/*--------------------------------*- C++ -*----------------------------------*\
  =========                 |
  \\      /  F ield         | OpenFOAM: The Open Source CFD Toolbox
   \\    /   O peration     | Website:  https://openfoam.org
    \\  /    A nd           | Version:  6
     \\/     M anipulation  |
\*---------------------------------------------------------------------------*/
FoamFile
{
    version     2.0;
    format      ascii;
    class       volScalarField;
    location    "3.81";
    object      p;
}
// * * * * * * * * * * * * * * * * * * * * * * * * * * * * * * * * * * * * * //

dimensions      [0 2 -2 0 0 0 0];

internalField   nonuniform List<scalar> 
4214
(
-0.388077
-0.437931
-0.33307
-0.221082
-0.150982
-0.0892273
-0.0487985
-0.0219961
0.00296819
0.034295
0.0666141
0.1059
0.156467
0.224576
0.302315
0.374478
0.392099
0.350841
0.27047
0.195273
0.00564176
-0.255853
-0.49851
-0.679121
-0.73296
-0.734876
-0.71287
-0.625801
-0.532526
-0.415899
-0.298472
-0.211058
-0.156787
-0.132852
-0.13809
-0.151878
-0.17763
-0.240687
-0.373831
-0.499962
-0.427243
0.00359249
-0.174971
-0.210721
-0.117925
-0.090834
-0.07883
-0.0559607
-0.0406614
-0.0236172
0.00453374
0.0413933
0.0886263
0.151992
0.229832
0.298677
0.430277
0.525643
0.447518
0.193718
-0.0714902
-0.492348
-1.02886
-1.60212
-2.04736
-2.26823
-2.28458
-2.08976
-1.72925
-1.32685
-0.93129
-0.620361
-0.399676
-0.261874
-0.182649
-0.140454
-0.115677
-0.0933515
-0.116542
-0.19074
-0.128702
0.0927682
-0.100158
-0.231339
-0.273459
-0.184399
-0.131604
-0.119369
-0.0916966
-0.0524266
-0.00513534
0.0530593
0.122932
0.208969
0.318384
0.441388
0.584574
0.760957
0.776708
0.58076
0.238293
-0.194387
-0.83225
-1.64991
-2.54567
-3.36502
-3.90575
-4.13949
-4.10023
-3.70043
-3.04275
-2.3318
-1.69845
-1.18827
-0.815547
-0.579521
-0.44065
-0.35771
-0.289848
-0.291325
-0.324002
-0.238729
-0.110503
-0.18519
-0.244206
-0.29223
-0.228919
-0.166001
-0.133638
-0.0928811
-0.0341194
0.0323789
0.110075
0.205689
0.320482
0.455556
0.605287
0.771243
0.913892
0.871953
0.617612
0.16353
-0.417005
-1.2136
-2.25404
-3.42772
-4.56455
-5.45148
-5.9212
-6.06338
-5.74436
-5.06382
-4.16532
-3.14378
-2.2913
-1.57799
-1.0767
-0.761539
-0.572263
-0.446304
-0.408203
-0.40343
-0.296674
-0.288909
-0.280029
-0.303309
-0.327679
-0.269276
-0.196451
-0.144411
-0.0861408
-0.00722294
0.0839802
0.18763
0.309786
0.449636
0.605174
0.766993
0.926025
1.01392
0.925119
0.605877
0.051393
-0.663598
-1.57556
-2.74455
-4.09776
-5.46207
-6.63287
-7.43903
-7.78778
-7.80376
-7.21252
-6.18977
-4.94217
-3.71577
-2.67113
-1.83829
-1.27606
-0.906265
-0.670006
-0.558331
-0.505243
-0.404589
-0.425658
-0.35774
-0.358863
-0.359118
-0.298451
-0.215823
-0.143291
-0.064211
0.0345262
0.147148
0.271651
0.411644
0.565444
0.729251
0.887527
1.00874
1.03509
0.896188
0.506345
-0.111913
-0.919306
-1.92867
-3.15945
-4.54783
-5.96812
-7.24649
-8.25358
-8.89656
-9.11428
-8.79745
-7.95471
-6.70374
-5.25381
-3.8692
-2.69566
-1.86441
-1.28149
-0.927359
-0.731221
-0.618551
-0.528656
-0.555499
-0.419772
-0.412672
-0.397802
-0.32611
-0.230909
-0.137778
-0.0374606
0.0789865
0.20938
0.350557
0.502354
0.662097
0.818233
0.940792
1.00771
0.991938
0.786801
0.356503
-0.295264
-1.13236
-2.15218
-3.34997
-4.66374
-6.00363
-7.25165
-8.28182
-9.00496
-9.36428
-9.29398
-8.77426
-7.85833
-6.60377
-5.10203
-3.6884
-2.50765
-1.74693
-1.27596
-0.992508
-0.796766
-0.670811
-0.676358
-0.476351
-0.465167
-0.441724
-0.354963
-0.244055
-0.130671
-0.0111924
0.121201
0.264504
0.414022
0.56589
0.711388
0.833751
0.916821
0.949442
0.867717
0.611635
0.166282
-0.48029
-1.29665
-2.25866
-3.34213
-4.52618
-5.70163
-6.78941
-7.67461
-8.28794
-8.60407
-8.57859
-8.25367
-7.59015
-6.60777
-5.40921
-4.15559
-3.00792
-2.10887
-1.46752
-1.06683
-0.832823
-0.75615
-0.751493
-0.538303
-0.523552
-0.495623
-0.392637
-0.263897
-0.134235
0.000280075
0.142284
0.287859
0.431089
0.567841
0.691599
0.785249
0.835524
0.813666
0.669374
0.378479
-0.0689135
-0.681663
-1.44088
-2.32128
-3.29391
-4.30096
-5.26667
-6.11407
-6.7466
-7.14666
-7.28739
-7.15676
-6.80235
-6.25786
-5.5512
-4.69286
-3.70453
-2.7204
-1.8438
-1.23128
-0.872053
-0.720689
-0.711279
-0.69514
-0.617925
-0.600289
-0.571222
-0.454659
-0.307685
-0.169087
-0.0312046
0.11099
0.252595
0.386834
0.50882
0.607843
0.668723
0.677746
0.593371
0.403565
0.0884488
-0.351136
-0.925876
-1.61724
-2.4011
-3.2506
-4.09382
-4.86464
-5.45953
-5.852
-6.04541
-5.9868
-5.61198
-5.07944
-4.45071
-3.77645
-3.10496
-2.44296
-1.78386
-1.17516
-0.738544
-0.513533
-0.428735
-0.494896
-0.499433
-0.730285
-0.712748
-0.684467
-0.559392
-0.395662
-0.249736
-0.11202
0.0270314
0.161148
0.279232
0.377665
0.442041
0.46569
0.418571
0.289431
0.0696674
-0.263998
-0.693252
-1.23109
-1.86116
-2.55721
-3.28708
-4.006
-4.62149
-5.0521
-5.27086
-5.30004
-5.00555
-4.44739
-3.69515
-2.85587
-2.04449
-1.35626
-0.816988
-0.411649
-0.113314
0.0717152
0.137518
0.12389
-0.0638153
-0.182477
-0.898144
-0.888348
-0.862356
-0.724358
-0.546978
-0.397575
-0.264874
-0.135458
-0.0151675
0.0852688
0.156595
0.190984
0.162002
0.0658373
-0.101831
-0.353817
-0.698781
-1.12737
-1.63628
-2.21801
-2.84749
-3.48985
-4.09423
-4.60566
-4.94316
-5.05506
-4.90986
-4.49116
-3.80199
-2.87505
-1.81581
-0.764598
0.0965894
0.679826
0.980457
1.08404
1.08219
0.948153
0.703405
0.402276
0.160796
-1.17477
-1.1686
-1.13967
-0.992437
-0.811048
-0.668245
-0.538891
-0.415086
-0.304258
-0.219854
-0.168572
-0.171012
-0.243594
-0.377609
-0.578712
-0.861442
-1.22529
-1.66775
-2.17521
-2.7366
-3.33149
-3.92177
-4.4588
-4.90421
-5.20183
-5.1906
-4.99579
-4.50233
-3.69103
-2.59117
-1.30374
-0.0454682
1.01891
1.76188
2.11807
2.14467
1.93733
1.60108
1.19968
0.801661
0.45967
-1.56442
-1.56383
-1.52153
-1.36788
-1.19265
-1.05868
-0.93598
-0.823193
-0.725404
-0.661378
-0.637249
-0.685011
-0.78756
-0.954511
-1.18286
-1.49123
-1.86494
-2.32646
-2.84827
-3.42718
-4.02048
-4.59076
-5.0954
-5.48856
-5.64625
-5.56031
-5.31008
-4.76088
-3.88339
-2.71417
-1.33049
0.132156
1.43771
2.3421
2.78214
2.78491
2.47205
1.99872
1.46874
0.950142
0.472372
-2.0898
-2.09083
-2.00583
-1.84413
-1.70058
-1.57805
-1.4696
-1.37667
-1.30281
-1.25975
-1.27719
-1.37404
-1.50907
-1.71298
-1.96879
-2.31878
-2.70912
-3.2035
-3.72804
-4.32997
-4.90321
-5.47048
-5.94649
-6.22061
-6.24592
-6.11573
-5.80206
-5.20542
-4.25049
-2.99768
-1.50171
0.0481071
1.4635
2.51018
2.99991
2.9777
2.5762
1.9849
1.35594
0.792641
0.284025
-3.02122
-2.96862
-2.87937
-2.58903
-2.55609
-2.35507
-2.29927
-2.15539
-2.12666
-2.07195
-2.12992
-2.23027
-2.42104
-2.6667
-2.94139
-3.3653
-3.7673
-4.35807
-4.87237
-5.50748
-6.02502
-6.64018
-6.90755
-7.14188
-7.06371
-6.84154
-6.43659
-5.76312
-4.70901
-3.33249
-1.70689
-0.0132334
1.43887
2.47745
2.86372
2.75388
2.24353
1.55005
0.853935
0.258577
-0.248981
-4.6856
-4.43923
-4.61423
-3.94362
-4.14887
-3.63599
-3.75612
-3.35988
-3.42156
-3.24641
-3.38205
-3.35672
-3.61518
-3.88095
-4.16685
-4.68357
-5.02426
-5.73649
-6.18199
-7.02453
-7.27717
-7.99926
-7.98325
-8.26208
-8.09247
-7.79169
-7.25401
-6.44367
-5.1084
-3.60048
-1.8038
0.0725456
1.20408
2.31237
2.03484
1.95628
1.12753
0.455293
-0.31564
-0.824797
-1.34974
-1.71423
-0.781004
-0.221549
0.0665177
0.168202
0.0548568
-0.120366
-0.316259
-0.499091
-0.618036
-0.627904
-0.602131
-0.531189
-0.467407
-0.368656
-0.395488
-0.496448
-2.09487
-1.23065
-0.675889
-0.315862
-0.149054
-0.158008
-0.235817
-0.358186
-0.479983
-0.567481
-0.608102
-0.606978
-0.568964
-0.520165
-0.432968
-0.43272
-0.418228
-2.29583
-1.59422
-1.06655
-0.680283
-0.462173
-0.384004
-0.387047
-0.435111
-0.507318
-0.567621
-0.599861
-0.608184
-0.591612
-0.56398
-0.494219
-0.498387
-0.427017
-2.5057
-1.88738
-1.39763
-1.01743
-0.758445
-0.62696
-0.568297
-0.561843
-0.581678
-0.606247
-0.622302
-0.626675
-0.614284
-0.586641
-0.531866
-0.536135
-0.460533
-2.61857
-2.1149
-1.67658
-1.31619
-1.036
-0.867048
-0.767166
-0.713253
-0.690687
-0.683191
-0.678189
-0.669786
-0.654418
-0.623318
-0.585295
-0.575227
-0.500741
-2.73728
-2.29446
-1.90347
-1.56859
-1.29309
-1.09541
-0.968908
-0.883154
-0.826591
-0.790207
-0.763656
-0.739736
-0.714364
-0.679677
-0.644981
-0.618328
-0.548129
-2.78738
-2.42989
-2.08889
-1.78333
-1.52313
-1.31087
-1.16516
-1.06023
-0.98063
-0.920964
-0.874711
-0.835138
-0.797915
-0.756406
-0.717824
-0.677611
-0.613543
-2.83536
-2.53184
-2.23868
-1.96475
-1.72282
-1.5148
-1.35256
-1.23549
-1.1431
-1.06766
-1.00582
-0.952716
-0.904461
-0.855207
-0.810106
-0.760054
-0.694588
-2.81876
-2.58469
-2.34776
-2.11531
-1.89778
-1.70219
-1.53301
-1.40517
-1.30586
-1.22224
-1.15052
-1.0877
-1.03098
-0.974999
-0.923508
-0.86824
-0.795677
-2.80013
-2.6077
-2.41668
-2.22464
-2.03986
-1.86698
-1.70738
-1.56975
-1.4643
-1.37766
-1.30192
-1.23409
-1.1725
-1.11249
-1.05685
-0.997856
-0.921158
-2.75188
-2.60152
-2.45238
-2.29764
-2.14488
-1.99818
-1.85895
-1.72886
-1.61798
-1.52906
-1.45335
-1.38515
-1.32281
-1.26237
-1.20605
-1.14623
-1.07104
-2.70769
-2.58181
-2.46381
-2.34105
-2.21766
-2.09688
-1.97989
-1.86794
-1.76259
-1.67344
-1.59909
-1.53368
-1.47457
-1.41729
-1.36456
-1.30777
-1.23812
-2.64188
-2.54626
-2.45206
-2.35768
-2.26142
-2.16516
-2.0702
-1.97755
-1.88822
-1.80481
-1.73375
-1.67278
-1.61953
-1.56835
-1.52292
-1.47241
-1.41252
-2.58695
-2.50503
-2.42909
-2.35366
-2.28002
-2.20603
-2.13179
-2.05829
-1.98643
-1.91683
-1.85164
-1.79672
-1.75012
-1.70715
-1.67082
-1.62896
-1.58413
-2.51238
-2.45182
-2.39138
-2.33139
-2.2743
-2.21959
-2.1646
-2.10937
-2.05463
-2.00115
-1.94939
-1.90126
-1.85906
-1.8256
-1.79789
-1.76625
-1.73976
-2.45052
-2.39668
-2.34656
-2.29653
-2.24999
-2.20718
-2.16721
-2.12821
-2.08948
-2.0513
-2.01397
-1.97837
-1.94378
-1.91801
-1.89523
-1.87553
-1.86461
-2.36323
-2.32639
-2.28838
-2.24981
-2.21231
-2.17748
-2.14563
-2.11649
-2.08968
-2.06445
-2.04031
-2.01749
-1.99525
-1.97732
-1.95761
-1.94935
-1.94714
-2.28982
-2.25412
-2.22305
-2.19212
-2.16272
-2.13537
-2.10981
-2.08626
-2.06492
-2.04577
-2.02891
-2.01437
-2.00144
-1.99306
-1.9821
-1.98228
-1.97857
-2.19562
-2.17022
-2.14365
-2.11853
-2.09524
-2.07367
-2.05388
-2.03599
-2.02002
-2.00592
-1.9938
-1.98374
-1.97506
-1.96987
-1.96272
-1.96734
-1.96143
-2.11876
-2.08866
-2.0618
-2.03761
-2.01584
-1.99589
-1.97788
-1.96191
-1.94783
-1.93554
-1.92518
-1.91673
-1.90926
-1.90563
-1.89856
-1.904
-1.89147
-2.02205
-2.00303
-1.97395
-1.94934
-1.92852
-1.9089
-1.89097
-1.87505
-1.86092
-1.84845
-1.83772
-1.82827
-1.81902
-1.81514
-1.80302
-1.80498
-1.7774
-1.94009
-1.91445
-1.88447
-1.8596
-1.83863
-1.81894
-1.80136
-1.78565
-1.77095
-1.75693
-1.74334
-1.72923
-1.71402
-1.70117
-1.67367
-1.6687
-1.61253
-1.84369
-1.82494
-1.79117
-1.76573
-1.74488
-1.72404
-1.70442
-1.68542
-1.66552
-1.6435
-1.61794
-1.58693
-1.54973
-1.50803
-1.44924
-1.41351
-1.31266
-1.75347
-1.72788
-1.69049
-1.66063
-1.63383
-1.60453
-1.57321
-1.5379
-1.49613
-1.44662
-1.38895
-1.32294
-1.24941
-1.17053
-1.07739
-1.0045
-0.861693
-1.6431
-1.61959
-1.57025
-1.52773
-1.48494
-1.43362
-1.37425
-1.30634
-1.22949
-1.14422
-1.05092
-0.950014
-0.84315
-0.732464
-0.612348
-0.512856
-0.356211
-1.52662
-1.48815
-1.42128
-1.35635
-1.28469
-1.20158
-1.11034
-1.01048
-0.901734
-0.785107
-0.661721
-0.533038
-0.401625
-0.269758
-0.13448
-0.0207205
0.136228
-1.38652
-1.33505
-1.23838
-1.14636
-1.04725
-0.935614
-0.815526
-0.687184
-0.551019
-0.409096
-0.263517
-0.116475
0.0290068
0.170825
0.310079
0.427535
0.576612
-1.23912
-1.15941
-1.03695
-0.918627
-0.79374
-0.656241
-0.510751
-0.358759
-0.201725
-0.0424127
0.116588
0.2728
0.423235
0.566455
0.702232
0.816028
0.95165
-1.07373
-0.973018
-0.825472
-0.684611
-0.536289
-0.376215
-0.210277
-0.0407003
0.13026
0.299408
0.464042
0.621781
0.770045
0.90847
1.03646
1.14258
1.26265
-0.909066
-0.781929
-0.612883
-0.45186
-0.283225
-0.104658
0.0767248
0.257989
0.436472
0.608945
0.772952
0.926576
1.06795
1.19777
1.31457
1.41028
1.51524
-0.731172
-0.594156
-0.404379
-0.225098
-0.0395937
0.153147
0.345081
0.532642
0.713107
0.88363
1.04232
1.1879
1.31948
1.43832
1.54252
1.62664
1.7173
-0.563499
-0.406491
-0.202143
-0.00652668
0.192752
0.395136
0.592789
0.781772
0.959572
1.12406
1.2741
1.40918
1.52926
1.63568
1.72681
1.79931
1.87693
-0.390198
-0.227033
-0.00915781
0.200971
0.411487
0.619815
0.819024
1.00538
1.17695
1.33253
1.47185
1.59508
1.70276
1.79611
1.8743
1.9356
2.00143
-0.23745
-0.051724
0.175146
0.396024
0.614275
0.825083
1.02253
1.20337
1.3664
1.51145
1.63903
1.74984
1.8447
1.92514
1.99107
2.04219
2.09742
-0.0724932
0.123234
0.358885
0.586842
0.807709
1.01597
1.20729
1.37926
1.53145
1.66448
1.77943
1.8774
1.95943
2.02726
2.08177
2.12414
2.1702
0.0526039
0.286644
0.532814
0.767557
0.989724
1.19318
1.37559
1.53611
1.67548
1.79517
1.89673
1.98159
2.05107
2.10713
2.15152
2.18645
2.22427
0.193639
0.417445
0.670709
0.911487
1.13511
1.33483
1.50976
1.6606
1.78928
1.89786
1.98815
2.06187
2.12084
2.16754
2.20447
2.2347
2.26622
0.30171
0.553483
0.809619
1.04973
1.26854
1.45896
1.62259
1.7617
1.8791
1.97712
2.05767
2.12268
2.17444
2.21525
2.2468
2.27208
2.29749
0.446769
0.714984
0.986699
1.22589
1.43535
1.61201
1.75997
1.88267
1.9837
2.06627
2.13318
2.18624
2.22774
2.2597
2.28352
2.30183
2.31988
0.554398
0.848946
1.11807
1.34796
1.54446
1.70875
1.84528
1.95888
2.05242
2.12841
2.18942
2.23545
2.26962
2.29376
2.30952
2.32138
2.33611
2.99644
3.04249
3.095
3.13749
3.18481
3.22339
3.26886
3.30909
3.35699
3.40144
3.45384
3.50261
3.55919
3.61202
3.67302
3.72719
3.78415
3.8336
3.86955
3.89492
3.88907
3.86983
3.81975
3.74656
3.62562
3.4637
3.27777
3.04684
2.83289
2.56345
2.35543
2.08481
1.90309
1.6607
1.51042
1.30331
1.18252
1.01287
0.913385
0.77108
0.681051
3.02493
3.06972
3.11407
3.15442
3.19487
3.23251
3.27081
3.30886
3.34869
3.39069
3.43495
3.48093
3.52913
3.57833
3.63005
3.67874
3.72718
3.76878
3.79923
3.81638
3.80973
3.78665
3.73837
3.66532
3.55162
3.40149
3.22685
3.02508
2.81728
2.59261
2.37553
2.16323
1.96929
1.78399
1.61957
1.46785
1.33454
1.21441
1.10836
1.01332
0.925181
3.07491
3.1108
3.14457
3.17616
3.2087
3.24072
3.27374
3.30737
3.3429
3.38067
3.42049
3.4622
3.50534
3.54988
3.59471
3.63766
3.67876
3.71328
3.7379
3.74819
3.73968
3.71411
3.66608
3.59466
3.48636
3.34739
3.18471
3.00393
2.81185
2.61203
2.41446
2.2261
2.04956
1.8884
1.7422
1.61224
1.49684
1.39635
1.30864
1.23255
1.16355
3.11359
3.14228
3.16841
3.19422
3.22076
3.24845
3.27733
3.30749
3.33945
3.37349
3.40949
3.44719
3.48619
3.52598
3.5652
3.60256
3.63723
3.66541
3.68438
3.68924
3.67845
3.6509
3.60329
3.53306
3.43065
3.30154
3.15199
2.98765
2.81283
2.6325
2.45498
2.28554
2.12762
1.9844
1.85576
1.74226
1.64325
1.5579
1.48589
1.42401
1.37124
3.13998
3.16369
3.18574
3.20805
3.23106
3.25529
3.28107
3.3083
3.33742
3.36829
3.40097
3.4352
3.47056
3.50611
3.54053
3.57275
3.60174
3.6242
3.63791
3.63822
3.62501
3.59562
3.54849
3.47939
3.3825
3.26277
3.12571
2.97566
2.81693
2.65425
2.49492
2.34265
2.20153
2.07407
1.96079
1.86165
1.77644
1.70398
1.64464
1.5936
1.55354
3.16118
3.18004
3.19898
3.21903
3.23977
3.26153
3.28473
3.30972
3.33633
3.36461
3.3945
3.42571
3.45781
3.48962
3.51989
3.54748
3.5714
3.58876
3.59737
3.5944
3.57852
3.5475
3.50077
3.43269
3.34112
3.23016
3.10456
2.96739
2.82339
2.67674
2.53328
2.39657
2.27022
2.15657
2.05628
1.96924
1.89532
1.83327
1.78373
1.74047
1.70996
3.17924
3.19459
3.21063
3.22817
3.2471
3.26714
3.28847
3.31137
3.33591
3.36204
3.3896
3.41825
3.44746
3.47598
3.50262
3.52614
3.54551
3.55836
3.56247
3.55658
3.5382
3.50584
3.45912
3.39218
3.30567
3.20274
3.08729
2.96199
2.8313
2.69904
2.56967
2.44669
2.33327
2.23159
2.14231
2.06538
2.00065
1.94694
1.90495
1.8677
1.84485
3.19411
3.20751
3.22158
3.23688
3.2536
3.27202
3.29203
3.31347
3.33622
3.36044
3.38598
3.41246
3.43901
3.46471
3.48817
3.50814
3.52351
3.53215
3.53289
3.52407
3.5034
3.47011
3.42254
3.35726
3.2755
3.1798
3.07338
2.95878
2.83998
2.72047
2.60359
2.4926
2.39034
2.29886
2.21883
2.15019
2.09275
2.04544
2.00883
1.976
1.95799
3.20647
3.21885
3.23149
3.24484
3.25959
3.27674
3.2958
3.31594
3.33716
3.35971
3.38345
3.40805
3.43222
3.45545
3.47615
3.49302
3.50488
3.50993
3.50785
3.49622
3.47353
3.43922
3.39085
3.32746
3.25008
3.16079
3.0624
2.95732
2.84896
2.74052
2.63459
2.534
2.44129
2.35841
2.28603
2.22408
2.17229
2.12974
2.09672
2.06733
2.05183
3.2175
3.22906
3.24035
3.25176
3.26536
3.28155
3.29972
3.31862
3.33857
3.35972
3.38194
3.4047
3.42699
3.44808
3.46627
3.48038
3.4891
3.49159
3.48669
3.47251
3.4482
3.41235
3.36384
3.3024
3.22895
3.14532
3.05404
2.95738
2.85802
2.75906
2.66242
2.57067
2.48603
2.41031
2.34417
2.28752
2.24004
2.20099
2.17022
2.1436
2.12868
3.22787
3.23843
3.24846
3.25808
3.27069
3.2862
3.30338
3.32128
3.34022
3.3603
3.38129
3.40256
3.42313
3.44214
3.45811
3.46991
3.47621
3.47633
3.46891
3.45259
3.42645
3.38955
3.3413
3.28172
3.21174
3.1331
3.0479
2.95842
2.86708
2.77618
2.68727
2.60273
2.52468
2.4548
2.39368
2.3412
2.297
2.26051
2.23118
2.20686
2.19149
3.23811
3.24647
3.25563
3.26397
3.27562
3.29038
3.30654
3.32364
3.34185
3.36116
3.38121
3.40126
3.42025
3.43751
3.45161
3.46135
3.46563
3.46355
3.45396
3.43576
3.40819
3.37065
3.32282
3.26495
3.19798
3.12357
3.04344
2.95993
2.87513
2.79141
2.70914
2.63043
2.55758
2.49223
2.435
2.38574
2.34404
2.30939
2.28105
2.25836
2.2417
3.24779
3.25379
3.26145
3.26932
3.2802
3.2937
3.30895
3.32549
3.34326
3.36212
3.38155
3.40067
3.41858
3.43398
3.4465
3.45454
3.45701
3.45307
3.44163
3.42188
3.39323
3.35526
3.30788
3.2515
3.18702
3.11615
3.04035
2.96182
2.88234
2.80415
2.72748
2.65371
2.58492
2.52284
2.46825
2.4212
2.38126
2.34778
2.31998
2.29792
2.27906
3.25637
3.26044
3.26658
3.27377
3.28349
3.2958
3.3104
3.3268
3.34462
3.36343
3.38249
3.40096
3.418
3.43253
3.44302
3.44948
3.45039
3.44478
3.43175
3.41074
3.38125
3.34304
3.29616
3.24111
3.17886
3.11127
3.03928
2.96472
2.88925
2.81509
2.74273
2.67291
2.60698
2.54687
2.49341
2.44699
2.4074
2.374
2.34606
2.32359
2.3028
3.26382
3.2663
3.27092
3.27672
3.28491
3.2963
3.31068
3.32744
3.34579
3.36493
3.38392
3.40215
3.41867
3.43217
3.44179
3.44603
3.44549
3.43838
3.42416
3.40222
3.37224
3.33408
3.28792
3.23435
3.17464
3.10977
3.04068
2.96913
2.89708
2.82572
2.75621
2.68869
2.62414
2.56451
2.51077
2.46315
2.4217
2.38678
2.35808
2.33493
2.31454
3.27415
3.27235
3.27379
3.27803
3.28512
3.29592
3.31016
3.32703
3.34562
3.36502
3.38424
3.40245
3.41859
3.43151
3.44035
3.44424
3.4418
3.43368
3.41889
3.39654
3.36654
3.32886
3.28373
3.23179
3.17404
3.11074
3.04338
2.97369
2.90328
2.83369
2.76527
2.69887
2.63516
2.57538
2.52068
2.47144
2.42828
2.39188
2.36268
2.34037
2.32355
3.28847
3.27721
3.27478
3.27846
3.28573
3.29635
3.30999
3.32605
3.3439
3.36282
3.38197
3.40006
3.41603
3.42899
3.43781
3.44178
3.43994
3.43148
3.41623
3.39396
3.36426
3.32717
3.28296
3.23203
3.17466
3.11195
3.04537
2.97651
2.9069
2.83778
2.76958
2.70336
2.63982
2.5797
2.52409
2.47424
2.43098
2.39462
2.36602
2.34664
2.34075
-0.495112
-0.43405
-0.409151
-0.429304
-0.465761
-0.524563
-0.588476
-0.663552
-0.753009
-0.864638
-1.01169
-1.22256
-1.51287
-1.87619
-2.3026
-2.83831
-3.68208
-0.472356
-0.473172
-0.455695
-0.507633
-0.55701
-0.624294
-0.694034
-0.77566
-0.872873
-0.997585
-1.16305
-1.3906
-1.69672
-2.06506
-2.48493
-3.09775
-3.88803
-0.5043
-0.575823
-0.571281
-0.634899
-0.682294
-0.748115
-0.821104
-0.908172
-1.01478
-1.15339
-1.32952
-1.56357
-1.86597
-2.22548
-2.66471
-3.4833
-4.91677
-0.574101
-0.674529
-0.676295
-0.747054
-0.79997
-0.869226
-0.947762
-1.04136
-1.15925
-1.30479
-1.48305
-1.70369
-1.96935
-2.27644
-2.63784
-3.14024
-3.7533
-0.680281
-0.784228
-0.797186
-0.866981
-0.924079
-0.993497
-1.07506
-1.17624
-1.30051
-1.45065
-1.62956
-1.84312
-2.09575
-2.37908
-2.69384
-3.01997
-3.17167
-0.80065
-0.896637
-0.919228
-0.984181
-1.04278
-1.11176
-1.1966
-1.29874
-1.41915
-1.55968
-1.7243
-1.91747
-2.13639
-2.36355
-2.61947
-2.9754
-3.44226
-0.921885
-1.00963
-1.03803
-1.09693
-1.15543
-1.22511
-1.30973
-1.4066
-1.5174
-1.64434
-1.78969
-1.95137
-2.11993
-2.29292
-2.46913
-2.66488
-2.88794
-1.04092
-1.1128
-1.1453
-1.19726
-1.2562
-1.32411
-1.40245
-1.49118
-1.59151
-1.70409
-1.8275
-1.9559
-2.08748
-2.2237
-2.35328
-2.42134
-2.44258
-1.14889
-1.20169
-1.23742
-1.28121
-1.33584
-1.3957
-1.46434
-1.54109
-1.62535
-1.7152
-1.80807
-1.90616
-2.00839
-2.11181
-2.21205
-2.30413
-2.40455
-1.23951
-1.2735
-1.3088
-1.34622
-1.3921
-1.44218
-1.49783
-1.55773
-1.62001
-1.68492
-1.75244
-1.82098
-1.89003
-1.95102
-2.0013
-2.05047
-2.11552
-1.30245
-1.32305
-1.35396
-1.38095
-1.41416
-1.45018
-1.48916
-1.5311
-1.57638
-1.62395
-1.67324
-1.72117
-1.76379
-1.8023
-1.82844
-1.81831
-1.79693
-1.32258
-1.33014
-1.35055
-1.36606
-1.38593
-1.41034
-1.43817
-1.46894
-1.50137
-1.53387
-1.56505
-1.59471
-1.62151
-1.64558
-1.66597
-1.68035
-1.71062
-1.29991
-1.2945
-1.30314
-1.31287
-1.32507
-1.34032
-1.35696
-1.37509
-1.39371
-1.41196
-1.42857
-1.44253
-1.45355
-1.46272
-1.47139
-1.48328
-1.50113
-1.22644
-1.21548
-1.21649
-1.22246
-1.22818
-1.23619
-1.24459
-1.25378
-1.2629
-1.27147
-1.27886
-1.28449
-1.28818
-1.29244
-1.29245
-1.2595
-1.22856
-1.11537
-1.10222
-1.09852
-1.10061
-1.09819
-1.09995
-1.10153
-1.10418
-1.10692
-1.10949
-1.11167
-1.1134
-1.11461
-1.11551
-1.11013
-1.09126
-1.10631
-0.960371
-0.948714
-0.940203
-0.938449
-0.931902
-0.929668
-0.926977
-0.92526
-0.923504
-0.921534
-0.919691
-0.917579
-0.912817
-0.90525
-0.899934
-0.902863
-0.909063
-0.75982
-0.752912
-0.740087
-0.738519
-0.732039
-0.728899
-0.725476
-0.722647
-0.720012
-0.717521
-0.715143
-0.711338
-0.705234
-0.701998
-0.700856
-0.680426
-0.648693
-0.521173
-0.521155
-0.510094
-0.509132
-0.503918
-0.501379
-0.499138
-0.497533
-0.496434
-0.495642
-0.495201
-0.495029
-0.495354
-0.497357
-0.498344
-0.488196
-0.497686
-0.254471
-0.257387
-0.251396
-0.253128
-0.251894
-0.252094
-0.252468
-0.25333
-0.254553
-0.256018
-0.258125
-0.260864
-0.262954
-0.264501
-0.269878
-0.278657
-0.28359
0.0314907
0.0269226
0.0277494
0.0241803
0.0214471
0.0169384
0.011741
0.00594101
-0.000373807
-0.00739638
-0.0154055
-0.0232349
-0.029797
-0.0376597
-0.0484844
-0.0520998
-0.0445475
0.341995
0.329632
0.327134
0.316392
0.308448
0.298325
0.287521
0.276131
0.263779
0.250066
0.235899
0.221484
0.204125
0.184152
0.164381
0.148018
0.130067
0.668568
0.646783
0.639017
0.622169
0.607447
0.590942
0.57347
0.555275
0.535857
0.515657
0.495971
0.474069
0.448836
0.430288
0.410361
0.365844
0.341167
1.00289
0.973796
0.959133
0.936385
0.914634
0.891067
0.866107
0.839915
0.812234
0.783735
0.754528
0.721888
0.689001
0.6642
0.631076
0.579481
0.577111
1.3363
1.30182
1.28056
1.25202
1.2237
1.19339
1.16131
1.12769
1.09248
1.05589
1.01755
0.976548
0.934525
0.89305
0.842012
0.780835
0.75368
1.65756
1.61997
1.59369
1.56022
1.52615
1.48965
1.45082
1.41003
1.36735
1.32285
1.27728
1.22997
1.17969
1.13478
1.08713
1.00563
0.964326
1.95602
1.91778
1.88843
1.8523
1.81468
1.77434
1.7311
1.6852
1.63646
1.58521
1.53238
1.47508
1.41406
1.36508
1.30924
1.21407
1.2071
2.22182
2.18527
2.15557
2.11927
2.08076
2.03913
1.99412
1.94594
1.89456
1.84025
1.7824
1.71916
1.65505
1.59299
1.51111
1.41671
1.38272
2.44438
2.40984
2.38103
2.34602
2.30848
2.26769
2.22319
2.1751
2.12345
2.06808
2.00886
1.94597
1.87959
1.8123
1.73924
1.63692
1.57573
2.62951
2.59757
2.57043
2.53748
2.50184
2.46303
2.42046
2.37408
2.32364
2.26892
2.2102
2.14525
2.0738
2.01089
1.93896
1.81805
1.79023
2.78084
2.75152
2.72652
2.69609
2.66296
2.62685
2.58709
2.54351
2.49588
2.44411
2.38737
2.32311
2.25578
2.19014
2.09524
1.98304
1.94724
2.9027
2.87593
2.85349
2.82599
2.79573
2.76265
2.72602
2.68566
2.64138
2.59271
2.53862
2.47889
2.4158
2.34685
2.26338
2.16338
2.09226
2.99914
2.9747
2.95495
2.93062
2.90353
2.87385
2.8408
2.8042
2.76374
2.7187
2.66859
2.61215
2.54778
2.48418
2.41362
2.29248
2.24997
3.07427
3.05189
3.03476
3.01367
2.98988
2.96366
2.93425
2.90148
2.86506
2.8245
2.77908
2.72614
2.66715
2.60848
2.52014
2.405
2.37954
3.13192
3.11139
3.09659
3.0786
3.05808
3.03527
3.00942
2.98034
2.94784
2.91143
2.8699
2.82184
2.7699
2.71213
2.6321
2.5426
2.47992
3.17523
3.15638
3.14361
3.12852
3.11136
3.09211
3.06996
3.04473
3.0162
2.98375
2.94642
2.90293
2.85246
2.79819
2.73281
2.62558
2.58599
3.20729
3.19056
3.17969
3.16725
3.15321
3.1373
3.11874
3.09731
3.07269
3.04437
3.01163
2.97255
2.927
2.87788
2.80206
2.69901
2.68627
3.23212
3.21643
3.20618
3.1955
3.18375
3.17057
3.15524
3.13732
3.1164
3.09204
3.06334
3.0287
2.9894
2.94475
2.87581
2.79321
2.75265
3.25138
3.23567
3.22541
3.21589
3.2059
3.19492
3.18217
3.16724
3.14964
3.12883
3.1039
3.07357
3.03757
2.99617
2.93654
2.85187
2.82623
3.26789
3.25464
3.24514
3.23617
3.22706
3.21782
3.20767
3.19593
3.1819
3.16488
3.1442
3.11833
3.0866
3.04879
2.98605
2.90792
2.89924
3.28492
3.27041
3.26025
3.25182
3.24312
3.23419
3.22466
3.21507
3.20455
3.19185
3.17565
3.15428
3.12735
3.09301
3.03789
2.97534
2.94787
-5.66229
-5.67848
-5.39984
-5.13068
-4.95718
-5.03878
-5.53321
-6.43206
-7.54174
-8.55784
-9.25354
-9.12004
-8.24273
-6.1684
-2.48876
0.705863
1.77834
0.614585
-0.980164
-2.07899
-6.9522
-7.30867
-7.28879
-7.09428
-6.90939
-7.06247
-7.77327
-8.59681
-9.43704
-10.2634
-10.624
-10.1669
-9.13432
-7.07824
-3.28206
-0.162355
0.705964
-0.607354
-2.10467
-2.99192
-8.5591
-9.30357
-9.6236
-9.66643
-9.54166
-9.69782
-10.2284
-10.8093
-11.4826
-12.035
-11.9339
-11.1524
-9.88529
-7.48502
-3.71748
-1.09525
-0.725182
-2.104
-3.38913
-4.01338
-10.5134
-11.6652
-12.3592
-12.6688
-12.6288
-12.5922
-12.8637
-13.2704
-13.647
-13.6553
-13.105
-12.0578
-10.3479
-7.40063
-3.94801
-2.1224
-2.41487
-3.84983
-4.80937
-5.14095
-12.6028
-14.1338
-15.0956
-15.5613
-15.5956
-15.5309
-15.5439
-15.5637
-15.4354
-14.9523
-14.023
-12.6915
-10.4935
-7.12304
-4.47892
-3.50629
-4.46139
-5.84407
-6.35844
-6.37598
-14.5223
-16.2815
-17.3523
-17.9254
-18.0134
-17.8253
-17.5735
-17.217
-16.6349
-15.7847
-14.5697
-12.8013
-10.1252
-7.15516
-5.42103
-5.45478
-6.91052
-8.02074
-8.00523
-7.69954
-15.6406
-17.4883
-18.6843
-19.3771
-19.5124
-19.2497
-18.7911
-18.1075
-17.2129
-16.0696
-14.5013
-12.1343
-9.5041
-7.60252
-6.85537
-7.94291
-9.77613
-10.318
-9.78228
-9.07773
-15.8688
-17.6981
-18.9965
-19.8466
-20.0826
-19.8252
-19.2182
-18.3203
-17.1241
-15.5703
-13.5022
-11.2912
-9.52351
-8.50563
-9.10737
-11.0269
-12.8731
-12.7295
-11.6826
-10.4963
-14.9842
-16.8234
-18.3032
-19.3007
-19.6372
-19.3743
-18.6183
-17.4755
-15.9985
-14.2141
-12.3184
-10.9058
-10.1257
-10.1563
-12.0671
-14.7483
-16.0569
-15.2226
-13.6011
-11.9203
-13.4294
-15.2629
-16.7739
-17.7796
-18.1221
-17.8181
-16.9715
-15.7606
-14.3337
-12.8546
-11.7412
-11.3189
-11.4283
-12.8906
-15.6153
-18.5443
-19.0503
-17.5804
-15.3798
-13.3103
-11.4734
-13.1209
-14.5105
-15.4395
-15.7747
-15.537
-14.8391
-13.8887
-12.939
-12.2316
-12.043
-12.4474
-13.8258
-16.3172
-19.4534
-21.7679
-21.4366
-19.5255
-16.8709
-14.5491
-9.28906
-10.656
-11.8337
-12.6725
-13.0666
-13.078
-12.8048
-12.4639
-12.3009
-12.4413
-13.1011
-14.4672
-16.8526
-19.8594
-22.6551
-23.7516
-22.8061
-20.6461
-17.9955
-15.4925
-7.15629
-8.23716
-9.21793
-10.0295
-10.6088
-10.9835
-11.2985
-11.7165
-12.2493
-13.1533
-14.7142
-16.9088
-19.6784
-22.5278
-24.485
-24.4284
-23.1791
-21.0973
-18.6644
-16.1803
-5.34362
-6.21461
-7.07216
-7.91783
-8.72719
-9.54025
-10.4487
-11.4704
-12.7398
-14.4127
-16.5101
-19.0462
-21.733
-23.8533
-24.7186
-24.2557
-22.8316
-20.9593
-18.8899
-16.7091
-4.03037
-4.82253
-5.64996
-6.58127
-7.63046
-8.8403
-10.1669
-11.6388
-13.3908
-15.4493
-17.7466
-20.1252
-22.22
-23.5454
-23.9302
-23.2104
-21.7929
-20.076
-18.4491
-16.8877
-3.32898
-4.15266
-5.02736
-6.06593
-7.28545
-8.66297
-10.199
-11.9232
-13.8357
-15.8712
-17.9515
-19.9129
-21.4941
-22.3091
-22.4918
-21.764
-20.4932
-19.0014
-17.7105
-16.6827
-3.23925
-4.13858
-5.07382
-6.14631
-7.39228
-8.80701
-10.3648
-12.039
-13.8034
-15.6196
-17.3654
-18.8922
-20.0155
-20.5694
-20.6975
-20.0632
-19.0461
-17.8776
-16.8556
-16.2054
-3.60286
-4.58111
-5.60251
-6.68643
-7.87728
-9.1718
-10.5517
-11.9914
-13.4715
-14.938
-16.3009
-17.453
-18.2289
-18.6419
-18.7618
-18.3232
-17.6438
-16.8585
-16.1115
-15.614
-4.26673
-5.05576
-6.05276
-7.13348
-8.26414
-9.4188
-10.5952
-11.7926
-12.959
-14.0701
-15.0786
-15.9025
-16.4948
-16.8455
-17.0062
-16.8579
-16.5052
-16.0551
-15.5877
-15.2633
-6.08416
-7.08951
-7.92537
-8.72091
-9.49738
-10.2639
-11.0224
-11.7795
-12.5376
-13.2533
-13.8883
-14.4237
-14.8461
-15.1445
-15.3147
-15.3653
-15.3232
-15.2347
-15.1441
-15.1221
-15.2612
-15.0084
-15.0114
-15.1749
-15.1842
-15.0572
-14.8082
-14.3339
-13.635
-12.7779
-11.7974
-10.7265
-9.60811
-8.46626
-7.31773
-6.20478
-5.155
-4.19998
-3.36122
-2.62793
-15.6646
-15.317
-15.2237
-14.9907
-14.7216
-14.3225
-13.8025
-13.1679
-12.4138
-11.5711
-10.6599
-9.69866
-8.70319
-7.70204
-6.72966
-5.80847
-4.95453
-4.18338
-3.5025
-2.91458
-16.3422
-15.8729
-15.6235
-15.0245
-14.4135
-13.7867
-13.0794
-12.2863
-11.4407
-10.5649
-9.67046
-8.77499
-7.89939
-7.05277
-6.24565
-5.48704
-4.78472
-4.14577
-3.57408
-3.0823
-17.0652
-16.675
-16.065
-15.1593
-14.2264
-13.345
-12.4064
-11.4687
-10.5563
-9.67407
-8.82407
-8.00979
-7.23631
-6.50623
-5.82155
-5.18416
-4.59664
-4.06059
-3.57691
-3.1453
-17.7456
-17.8195
-16.6257
-15.2498
-13.9556
-12.8138
-11.7162
-10.6884
-9.75116
-8.88444
-8.07419
-7.3185
-6.61741
-5.96933
-5.3722
-4.82425
-4.32394
-3.86946
-3.46052
-3.09169
-18.3693
-18.9325
-17.1633
-15.2286
-13.6179
-12.2357
-11.0145
-9.94758
-9.00441
-8.15151
-7.3726
-6.66227
-6.01698
-5.43231
-4.90347
-4.42597
-3.99552
-3.60802
-3.26152
-2.94857
-18.8091
-19.4824
-17.4992
-14.9613
-13.1299
-11.6369
-10.318
-9.22571
-8.28869
-7.45191
-6.70053
-6.02967
-5.43289
-4.90334
-4.4342
-4.01915
-3.6518
-3.32628
-3.03903
-2.78128
-19.233
-19.3371
-17.5977
-14.5351
-12.5303
-10.967
-9.6215
-8.52216
-7.59369
-6.77693
-6.05686
-5.42806
-4.88039
-4.40364
-3.98917
-3.62981
-3.31794
-3.04798
-2.81465
-2.60752
-19.7836
-19.166
-17.4525
-13.924
-11.9051
-10.2722
-8.91317
-7.82576
-6.91339
-6.1258
-5.45059
-4.87376
-4.37878
-3.95306
-3.58707
-3.27318
-3.00087
-2.77303
-2.58211
-2.41845
-20.5799
-19.189
-17.1465
-13.2586
-11.2098
-9.58552
-8.22981
-7.15945
-6.27482
-5.5273
-4.90058
-4.37449
-3.92666
-3.54372
-3.21846
-2.94535
-2.71212
-2.52361
-2.36085
-2.22633
-21.5731
-19.2021
-16.7547
-12.6254