/*--------------------------------*- C++ -*----------------------------------*\
  =========                 |
  \\      /  F ield         | OpenFOAM: The Open Source CFD Toolbox
   \\    /   O peration     | Website:  https://openfoam.org
    \\  /    A nd           | Version:  6
     \\/     M anipulation  |
\*---------------------------------------------------------------------------*/
FoamFile
{
    version     2.0;
    format      ascii;
    class       surfaceScalarField;
    location    "3.04";
    object      meshPhi;
}
// * * * * * * * * * * * * * * * * * * * * * * * * * * * * * * * * * * * * * //

dimensions      [0 3 -1 0 0 0 0];

internalField   nonuniform List<scalar> 
8193
(
-0.00221137
-0.00365926
0.000809659
-0.00347579
-0.00691996
-0.00458797
-0.00985399
-0.00553759
-0.0124175
-0.00631852
-0.0145776
-0.00692836
-0.0163121
-0.00736783
-0.0176091
-0.00764026
-0.0184664
-0.00775099
-0.0188903
-0.00770685
-0.0188953
-0.00751567
-0.018502
-0.00718586
-0.017737
-0.00672612
-0.0166311
-0.00614516
-0.0152187
-0.00545157
-0.0135367
-0.00465378
-0.0116238
-0.00376011
-0.0095197
-0.00277886
-0.00726478
-0.00171858
-0.00489956
-0.000588322
-0.00246455
0.000602014
0
0.00184127
0.00245411
0.00311659
0.00485819
0.00441305
0.00717304
0.00571313
0.00936
0.00699641
0.011381
0.00823922
0.0131989
0.00941438
0.0147778
0.0104912
0.0160833
0.0114353
0.0170835
0.0122094
0.0177492
0.0127733
0.0180551
0.0130846
0.0179804
0.0131004
0.0175098
0.0127779
0.0166345
0.0120761
0.0153527
0.010958
0.0136709
0.00939215
0.0116044
0.00735508
0.00917724
0.00483355
0.0064233
0.00338568
0.00182676
-0.00802319
-0.0109755
0.00402083
-0.0116087
-0.0170375
-0.0147396
-0.0224251
-0.0173904
-0.0270662
-0.0195475
-0.0309088
-0.021207
-0.0339207
-0.0223737
-0.0360882
-0.0230593
-0.037415
-0.0232804
-0.0379205
-0.023058
-0.0376379
-0.0224151
-0.0366122
-0.0213762
-0.0348981
-0.0199664
-0.0325578
-0.0182105
-0.0296594
-0.0161327
-0.0262751
-0.0137567
-0.0224797
-0.0111056
-0.0183492
-0.00820248
-0.0139601
-0.00507081
-0.0093888
-0.00173556
-0.00471062
0.00177597
1.05843e-14
0.00543294
0.00466991
0.00919977
0.00922732
0.0130348
0.0136019
0.0168893
0.0177247
0.0207058
0.021529
0.0244178
0.02495
0.0279484
0.0279257
0.0312105
0.0303977
0.0341067
0.032312
0.0365299
0.0336204
0.0383647
0.0342812
0.0394893
0.0342613
0.0397785
0.033537
0.0391068
0.0320957
0.037353
0.0299368
0.034405
0.0270735
0.0301652
0.0235329
0.0245569
0.0193571
0.01753
0.0146031
0.00934279
0.00906789
-0.0165029
-0.0217667
0.0103319
-0.0219777
-0.0301075
-0.0267073
-0.0374268
-0.0306614
-0.043637
-0.0338262
-0.0486777
-0.0362023
-0.0525155
-0.0378023
-0.0551422
-0.0386482
-0.0565733
-0.0387694
-0.0568452
-0.0382003
-0.056013
-0.0369784
-0.0541471
-0.0351424
-0.0513308
-0.0327314
-0.0476572
-0.0297836
-0.0432264
-0.0263358
-0.0381436
-0.0224237
-0.0325166
-0.0180816
-0.0264543
-0.0133438
-0.0200652
-0.00824473
-0.0134566
-0.00282114
-0.00673389
0.00288685
1.76465e-20
0.00883377
0.00664478
0.0149668
0.0131029
0.021224
0.0192799
0.0275318
0.0250843
0.033804
0.0304281
0.0399392
0.0352272
0.0458204
0.0394023
0.0513141
0.0428797
0.05627
0.0455924
0.0605222
0.0474815
0.0638909
0.048498
0.0661849
0.0486037
0.0672058
0.0477736
0.0667528
0.0459969
0.0646291
0.0432785
0.0606485
0.0396399
0.0546442
0.0351205
0.046477
0.0297771
0.0360446
0.0236845
0.0169346
0.0232911
-0.0273895
-0.0357295
0.0195213
-0.0342994
-0.0457891
-0.0402002
-0.0544996
-0.0450629
-0.061767
-0.0488787
-0.0675304
-0.0516557
-0.0717614
-0.0534161
-0.0744622
-0.0541933
-0.0756632
-0.0540285
-0.0754203
-0.0529688
-0.073811
-0.0510637
-0.0709316
-0.0483644
-0.066893
-0.044921
-0.0618174
-0.0407823
-0.0558349
-0.0359949
-0.0490808
-0.030603
-0.0416928
-0.0246494
-0.0338087
-0.0181758
-0.0255651
-0.0112243
-0.0170961
-0.0038397
-0.00853227
0.00392918
-3.5293e-20
0.0120266
0.0083785
0.0203876
0.0164857
0.0289351
0.0242087
0.0375775
0.0314399
0.0462063
0.0380768
0.0546937
0.0440231
0.0628909
0.0491894
0.0706273
0.053494
0.0777105
0.0568645
0.0839265
0.0592392
0.0890421
0.0605686
0.0928081
0.0608169
0.0949635
0.059964
0.0952422
0.0580065
0.0933797
0.0549591
0.0891218
0.050855
0.0822349
0.0457471
0.0725157
0.0397069
0.0598034
0.0328248
0.0252084
0.0439902
-0.0403418
-0.0524486
0.0312644
-0.0482309
-0.0636553
-0.0548837
-0.0732199
-0.060277
-0.081048
-0.0644092
-0.0870834
-0.0672972
-0.0913063
-0.0689731
-0.0937316
-0.0694805
-0.0944064
-0.0688714
-0.0934062
-0.0672031
-0.090831
-0.0645354
-0.0868013
-0.0609287
-0.0814542
-0.0564417
-0.0749386
-0.051131
-0.0674119
-0.0450498
-0.0590363
-0.0382483
-0.0499758
-0.0307744
-0.0403939
-0.0226745
-0.0304513
-0.0139955
-0.0203048
-0.00478652
-0.0101058
0.00489811
3.5293e-20
0.0149963
0.00987316
0.0254352
0.0193809
0.0361276
0.0283972
0.0469694
0.0368033
0.057836
0.044488
0.0685801
0.0513484
0.0790294
0.0572911
0.0889855
0.0622325
0.098223
0.0661012
0.106491
0.0688388
0.113513
0.0704015
0.118995
0.070762
0.122624
0.0699104
0.124081
0.0678557
0.123044
0.0646267
0.119199
0.0602719
0.112255
0.0548596
0.101949
0.0484777
0.0880611
0.0412315
0.0332429
0.0704299
-0.05495
-0.0714087
0.0451446
-0.0633786
-0.0832049
-0.0703884
-0.0931111
-0.0759631
-0.101037
-0.080109
-0.106932
-0.0828513
-0.110787
-0.0842306
-0.112632
-0.0842992
-0.112529
-0.0831173
-0.110572
-0.0807504
-0.106883
-0.0772657
-0.101605
-0.07273
-0.0948975
-0.0672081
-0.0869341
-0.0607613
-0.0778964
-0.0534469
-0.0679702
-0.0453185
-0.0573427
-0.0364265
-0.0461991
-0.0268194
-0.034721
-0.016546
-0.0230838
-0.00565754
-0.0114565
0.0057895
-1.00411e-14
0.0177299
0.011133
0.0300864
0.0217984
0.0427662
0.0318614
0.055657
0.0411963
0.068624
0.0496878
0.0815067
0.0572311
0.0941166
0.0637332
0.106235
0.069114
0.117614
0.0733079
0.127974
0.0762646
0.137008
0.0779512
0.144387
0.0783532
0.14976
0.0774758
0.152764
0.0753445
0.153035
0.0720054
0.150213
0.0675254
0.143954
0.061991
0.133948
0.0555074
0.119925
0.048196
0.0401926
0.101672
-0.0707481
-0.0920108
0.0606677
-0.0793107
-0.103877
-0.0863202
-0.113657
-0.0917669
-0.121265
-0.0956637
-0.126659
-0.0980424
-0.12984
-0.0989501
-0.130849
-0.0984453
-0.129766
-0.0965942
-0.1267
-0.0934673
-0.121792
-0.0891365
-0.115205
-0.0836725
-0.10712
-0.0771433
-0.0977309
-0.0696126
-0.0872399
-0.0611395
-0.0758539
-0.0517783
-0.0637796
-0.04158
-0.0512211
-0.030593
-0.0383769
-0.0188659
-0.0254385
-0.00644939
-0.0125885
0.00659991
-3.5293e-20
0.0202164
0.0121642
0.0343217
0.0237524
0.0488205
0.034624
0.0635968
0.0446502
0.0785102
0.0537148
0.0933924
0.061715
0.108045
0.068562
0.122237
0.0741827
0.135703
0.078521
0.148149
0.0815388
0.159245
0.0832174
0.168637
0.0835589
0.175948
0.0825865
0.180788
0.0803453
0.182758
0.0769016
0.181465
0.0723427
0.176531
0.0667751
0.167607
0.0603226
0.154383
0.0531235
0.0453278
0.136606
-0.0872291
-0.113591
0.0772794
-0.0955697
-0.125068
-0.102271
-0.134315
-0.107329
-0.141253
-0.11076
-0.145846
-0.1126
-0.148104
-0.112902
-0.14808
-0.111725
-0.145866
-0.109141
-0.141587
-0.105221
-0.135399
-0.10004
-0.127482
-0.0936704
-0.118035
-0.0861799
-0.10727
-0.0776328
-0.0954068
-0.0680878
-0.0826697
-0.0575984
-0.0692821
-0.046214
-0.0554637
-0.0339813
-0.0414274
-0.0209469
-0.0273774
-0.00715942
-0.0135075
0.0073266
0
0.0224473
0.0129751
0.0381253
0.0252608
0.054266
0.0367137
0.0707527
0.0472046
0.0874433
0.0566192
0.104167
0.0648591
0.120719
0.0718428
0.136864
0.0775068
0.152329
0.0818071
0.166807
0.0847202
0.179958
0.0862445
0.191415
0.0864006
0.200784
0.085232
0.207657
0.0828052
0.211618
0.0792083
0.212251
0.0745502
0.209158
0.0689581
0.201964
0.0625752
0.190335
0.0555568
0.048067
0.173992
-0.103862
-0.135443
0.0943845
-0.111686
-0.146148
-0.11783
-0.154532
-0.122292
-0.160519
-0.125092
-0.16408
-0.126266
-0.165233
-0.125868
-0.164038
-0.12396
-0.160597
-0.12061
-0.15505
-0.115894
-0.147564
-0.109883
-0.138333
-0.102649
-0.127572
-0.0942602
-0.115507
-0.0847781
-0.102374
-0.0742595
-0.0884106
-0.0627553
-0.0738544
-0.0503121
-0.0589379
-0.0369737
-0.0438858
-0.0227831
-0.0289127
-0.00778565
-0.014221
0.00796756
-4.74878e-15
0.0244159
0.0135753
0.0414852
0.0263449
0.0590833
0.0381647
0.0770956
0.048907
0.0953816
0.0584614
0.113771
0.0667361
0.132059
0.0736584
0.150009
0.0791764
0.167346
0.0832601
0.183759
0.0859021
0.198906
0.087119
0.212413
0.0869514
0.223881
0.0854642
0.232896
0.0827457
0.239034
0.0789065
0.241871
0.0740771
0.240999
0.0684055
0.236034
0.0620537
0.226631
0.0551935
0.0480024
0.212498
-0.120107
-0.156839
0.111368
-0.127191
-0.166481
-0.132595
-0.173759
-0.136315
-0.178596
-0.13837
-0.180969
-0.138798
-0.180899
-0.137649
-0.178456
-0.134984
-0.173749
-0.130871
-0.166925
-0.12538
-0.158166
-0.118582
-0.147674
-0.110546
-0.135677
-0.101337
-0.122414
-0.0910141
-0.108131
-0.0796298
-0.0930802
-0.0672319
-0.0775091
-0.0538631
-0.0616611
-0.039563
-0.0457703
-0.0243706
-0.0300595
-0.00832683
-0.014738
0.00852149
-4.67665e-15
0.0261182
0.0139762
0.0443933
0.0270293
0.0632588
0.0390159
0.0826043
0.0498116
0.102293
0.0593112
0.122158
0.0674305
0.141998
0.0741072
0.161579
0.0793019
0.180628
0.0829994
0.198839
0.0852093
0.215871
0.0859669
0.231351
0.0853331
0.244886
0.0833943
0.256061
0.0802604
0.264455
0.0760637
0.269649
0.0709559
0.271235
0.0651046
0.268835
0.0586893
0.262103
0.0518967
0.0449159
0.25075
-0.135437
-0.177055
0.127618
-0.141634
-0.185447
-0.146181
-0.191466
-0.149073
-0.195039
-0.150327
-0.196143
-0.149975
-0.194805
-0.148066
-0.191097
-0.144655
-0.185137
-0.139808
-0.177077
-0.133591
-0.167108
-0.12607
-0.155442
-0.117312
-0.142314
-0.107375
-0.127975
-0.0963155
-0.112681
-0.0841819
-0.0966923
-0.0710173
-0.080267
-0.0568601
-0.0636568
-0.0417454
-0.0471034
-0.0257074
-0.0308359
-0.00878239
-0.0150688
0.00898781
9.13663e-15
0.0275519
0.0141904
0.0468451
0.0273411
0.0667845
0.0393106
0.0872649
0.0499785
0.108155
0.059246
0.129293
0.0670374
0.150484
0.0733012
0.1715
0.078011
0.192074
0.0811667
0.211906
0.0827951
0.230664
0.08295
0.247983
0.0817123
0.263476
0.0791888
0.276742
0.0755105
0.287369
0.0708302
0.294948
0.0653189
0.299086
0.0591622
0.299415
0.052555
0.295605
0.0456969
0.0387862
0.287377
-0.14935
-0.195398
0.142545
-0.15459
-0.202456
-0.158235
-0.20716
-0.160274
-0.209439
-0.160721
-0.209271
-0.159602
-0.206684
-0.156962
-0.201756
-0.152851
-0.194606
-0.147328
-0.185395
-0.140456
-0.174316
-0.132296
-0.161592
-0.122909
-0.147465
-0.112349
-0.132191
-0.100666
-0.116037
-0.0879062
-0.0992703
-0.0741067
-0.0821566
-0.0593014
-0.0649543
-0.0435206
-0.0479115
-0.0267938
-0.0312623
-0.00915245
-0.015225
0.00936665
3.5293e-20
0.0287174
0.0142317
0.0488402
0.0273097
0.069658
0.0390954
0.0910713
0.0494728
0.112955
0.0583502
0.135154
0.0656607
0.157482
0.0713639
0.179716
0.0754464
0.201601
0.0779232
0.222846
0.0788376
0.243128
0.0782616
0.262095
0.0762951
0.279376
0.0730642
0.294581
0.0687195
0.307316
0.0634324
0.31719
0.0573917
0.323829
0.0507983
0.326884
0.0438606
0.326047
0.0367881
0.0297858
0.321061
-0.161389
-0.211224
0.155605
-0.16568
-0.216969
-0.168441
-0.220396
-0.169661
-0.221434
-0.169344
-0.220063
-0.167515
-0.216312
-0.164208
-0.210261
-0.159472
-0.202034
-0.153358
-0.191795
-0.145923
-0.179742
-0.137223
-0.166103
-0.127313
-0.151127
-0.116244
-0.135077
-0.10406
-0.118226
-0.0908013
-0.100847
-0.0765015
-0.0832131
-0.0611896
-0.065588
-0.0448914
-0.0482246
-0.0276319
-0.0313613
-0.0094378
-0.0152191
0.00965881
-8.72084e-15
0.0296168
0.0141148
0.0503818
0.0269665
0.0718822
0.0384195
0.0940247
0.0483634
0.116691
0.0567132
0.139732
0.0634112
0.162971
0.0684279
0.186193
0.0717629
0.209154
0.0734457
0.231572
0.0735355
0.253139
0.0721216
0.273518
0.0693217
0.292352
0.06528
0.30927
0.0601648
0.323897
0.0541646
0.335863
0.0474835
0.344818
0.0403358
0.350435
0.0329405
0.352433
0.025515
0.0182684
0.350578
-0.171155
-0.223965
0.166318
-0.174574
-0.228517
-0.176534
-0.230792
-0.177019
-0.23072
-0.176028
-0.228281
-0.17358
-0.223509
-0.169706
-0.216484
-0.164445
-0.207333
-0.157845
-0.196224
-0.149956
-0.18336
-0.14083
-0.168974
-0.130516
-0.153318
-0.119059
-0.136662
-0.106499
-0.119284
-0.0928731
-0.101464
-0.0782091
-0.0834785
-0.0625322
-0.0655968
-0.0458641
-0.0480759
-0.0282258
-0.0311573
-0.00963991
-0.0150644
0.00986577
-4.26241e-15
0.0302545
0.0138551
0.0514767
0.0263439
0.0734657
0.0373346
0.0961339
0.046722
0.119369
0.0544283
0.14303
0.0604048
0.166946
0.0646329
0.190914
0.0671245
0.214698
0.0679232
0.238029
0.0671036
0.260611
0.064771
0.282123
0.0610598
0.302224
0.056131
0.320563
0.0501692
0.336784
0.0433778
0.35054
0.0359747
0.361502
0.0281855
0.369371
0.0202379
0.373887
0.0123551
0.00474872
0.374845
-0.17832
-0.23315
0.174283
-0.181006
-0.236716
-0.1823
-0.23804
-0.182181
-0.237055
-0.180644
-0.233744
-0.177704
-0.228142
-0.173385
-0.220334
-0.167723
-0.21045
-0.16076
-0.19866
-0.152541
-0.185172
-0.143113
-0.170223
-0.132519
-0.15407
-0.120802
-0.136988
-0.107997
-0.11926
-0.0941351
-0.10117
-0.0792427
-0.0830003
-0.0633409
-0.0650238
-0.046448
-0.0475011
-0.0285815
-0.0306765
-0.00976085
-0.014775
0.00998966
7.05861e-20
0.0306369
0.0134684
0.0521351
0.0254756
0.074422
0.0358935
0.0974148
0.0446222
0.121007
0.0515913
0.145063
0.0567609
0.16942
0.0601229
0.193883
0.0617014
0.218225
0.0615535
0.242189
0.0597682
0.265492
0.0564663
0.287826
0.0517977
0.308866
0.0459392
0.328278
0.0390901
0.345727
0.0314678
0.360884
0.0233022
0.373441
0.0148291
0.383122
0.0062837
0.389689
-0.00210622
-0.0101273
0.392955
-0.182637
-0.238417
0.179196
-0.184782
-0.241277
-0.185587
-0.241916
-0.185032
-0.240271
-0.183108
-0.236331
-0.179827
-0.230134
-0.17521
-0.221769
-0.169287
-0.211369
-0.162098
-0.19911
-0.153682
-0.185204
-0.144083
-0.16989
-0.133341
-0.153433
-0.121493
-0.13611
-0.108573
-0.11821
-0.0946078
-0.100022
-0.0796213
-0.0818311
-0.0636318
-0.0639154
-0.0466553
-0.0465382
-0.0287068
-0.029946
-0.00980329
-0.0143654
0.0100332
-3.995e-15
0.0307722
0.0129711
0.0523708
0.0243957
0.0747698
0.0341496
0.0978903
0.0421384
0.12163
0.048299
0.145858
0.0526002
0.170418
0.0550441
0.195122
0.055667
0.219751
0.0545385
0.244057
0.0517622
0.267769
0.0474732
0.290589
0.0418367
0.312208
0.035044
0.332304
0.0273086
0.350559
0.0188612
0.36666
0.00994284
0.380316
0.000799034
0.391267
-0.00832774
0.399288
-0.017205
-0.0256171
0.404208
-0.18395
0.180856
-0.18578
-0.186308
-0.185511
-0.183382
-0.179931
-0.175175
-0.169145
-0.161874
-0.153402
-0.143768
-0.13301
-0.121163
-0.108257
-0.0943188
-0.0793691
-0.063425
-0.0465011
-0.028611
-0.00977047
0.00999974
0.0306705
0.0522005
0.0745327
0.09759
0.121273
0.145455
0.169983
0.194674
0.219316
0.243668
0.267466
0.290422
0.312237
0.332599
0.351201
0.367741
0.381938
0.39354
0.40233
0.408138
0.0723862
0.373751
0.0929326
0.370546
0.11071
0.361161
0.124781
0.345963
0.134404
0.325496
0.139085
0.300466
0.138606
0.271712
0.133047
0.24019
0.122795
0.206935
0.10853
0.173031
0.0912093
0.139583
0.0720293
0.107674
0.0523773
0.078339
0.0337732
0.0525292
0.0178029
0.0310838
0.00604579
0.0147035
0.00392899
0.0784304
0.33897
0.0977792
0.336449
0.114574
0.328736
0.127994
0.316114
0.137383
0.299
0.142283
0.277934
0.142461
0.253562
0.137928
0.226619
0.128947
0.197909
0.116029
0.168282
0.0999215
0.138611
0.0815827
0.109768
0.0621511
0.082601
0.0429018
0.057908
0.0251985
0.0364176
0.0104395
0.0187678
0.00548839
0.0832538
0.304415
0.101355
0.302515
0.117116
0.296271
0.12982
0.285899
0.138884
0.271713
0.143882
0.254121
0.144573
0.233613
0.14091
0.210748
0.133054
0.186142
0.121373
0.160453
0.106432
0.134361
0.0889817
0.108559
0.0699365
0.0837281
0.0503433
0.0605255
0.0313488
0.0395672
0.0141597
0.0214127
0.0065513
0.0867775
0.270641
0.103598
0.26928
0.118289
0.264305
0.130223
0.255875
0.138881
0.244222
0.14387
0.22965
0.144941
0.212523
0.142004
0.193263
0.135137
0.172334
0.124587
0.150237
0.110765
0.127498
0.0942427
0.104654
0.0757353
0.0822468
0.0560825
0.0608045
0.0362254
0.0408355
0.0171788
0.0228147
0.00717438
0.0889615
0.238123
0.104487
0.237216
0.118083
0.233317
0.129206
0.226541
0.13739
0.217057
0.142273
0.205087
0.143606
0.190897
0.141265
0.174799
0.135262
0.157139
0.125743
0.138292
0.112994
0.118657
0.0974312
0.0986457
0.0795982
0.0786783
0.0601496
0.0591725
0.0398374
0.0405372
0.019492
0.0231642
0.00742056
0.0898034
0.207255
0.104032
0.206714
0.116525
0.203712
0.126806
0.198329
0.134462
0.190684
0.139158
0.180935
0.140649
0.169276
0.138789
0.155931
0.133535
0.141154
0.124957
0.125222
0.113234
0.10843
0.0986558
0.0910901
0.081618
0.0735208
0.0626142
0.0560456
0.0422269
0.0389856
0.0211152
0.022655
0.00735544
0.0893356
0.178345
0.102281
0.178088
0.113672
0.175819
0.123093
0.171593
0.130179
0.165492
0.134621
0.157625
0.136183
0.148128
0.134701
0.137162
0.130097
0.124908
0.122377
0.111566
0.111636
0.097353
0.0980609
0.0824968
0.0819231
0.0672362
0.0635792
0.0518152
0.0434638
0.0364804
0.022082
0.0214766
0.00704403
0.0876203
0.151616
0.0993063
0.151567
0.109608
0.149888
0.118165
0.146611
0.124651
0.141792
0.128788
0.135504
0.130346
0.127842
0.129157
0.118916
0.125114
0.108852
0.118178
0.0977936
0.108379
0.0858936
0.0958182
0.0733175
0.0806692
0.0602389
0.0631737
0.0468379
0.0436404
0.0332986
0.0224399
0.019807
0.0065482
0.084744
0.127211
0.0952059
0.127306
0.104442
0.12609
0.112138
0.123582
0.118008
0.119818
0.121799
0.114845
0.123296
0.108725
0.122328
0.101534
0.118771
0.0933578
0.112553
0.0842936
0.103657
0.0744489
0.0921181
0.0639398
0.078031
0.0528896
0.0615449
0.0414277
0.0428645
0.029688
0.0222471
0.0178074
0.00592464
0.0808106
0.105201
0.0900912
0.105385
0.0982918
0.104525
0.105142
0.102632
0.11039
0.0997267
0.113809
0.0958383
0.115199
0.0910067
0.114394
0.0852802
0.11126
0.0787161
0.105705
0.0713794
0.0976756
0.0633425
0.0871605
0.0546848
0.074193
0.0454914
0.0588505
0.0358524
0.041254
0.0258625
0.0215684
0.0156194
0.00522351
0.0759337
0.0855907
0.0840822
0.0858193
0.0912856
0.0852277
0.0973117
0.08382
0.101942
0.0816069
0.104973
0.0786057
0.106225
0.0748402
0.105537
0.0703406
0.102775
0.0651431
0.0978349
0.0592894
0.0906397
0.0528271
0.0811457
0.0458081
0.0693419
0.0382896
0.0552511
0.0303322
0.0389305
0.0220006
0.0204716
0.0133624
0.00448761
0.0702299
0.0683298
0.0772995
0.0685701
0.0835487
0.0681753
0.0887797
0.0671455
0.0928038
0.0654853
0.0954434
0.0632037
0.096535
0.060314
0.0959306
0.0568339
0.0935005
0.0527852
0.0891348
0.0481935
0.0827453
0.0430884
0.0742667
0.037503
0.063658
0.0314739
0.0509036
0.0250406
0.0360137
0.0182456
0.0190248
0.0111337
0.00375214
0.0638111
0.0533267
0.0698577
0.0535547
0.0751992
0.0533001
0.079669
0.052561
0.0831062
0.0513381
0.0853573
0.0496353
0.0862778
0.0474593
0.0857341
0.0448195
0.0836046
0.0417281
0.0797818
0.0382001
0.074173
0.0342529
0.066702
0.0299065
0.0573096
0.0251833
0.0459551
0.020108
0.0326168
0.014707
0.0172925
0.00900921
0.00304486
0.0567787
0.0404582
0.0618587
0.0406583
0.0663408
0.0405005
0.0700867
0.0399819
0.0729616
0.0391017
0.0748349
0.0378606
0.0755821
0.0362612
0.0750854
0.034308
0.0732351
0.0320071
0.0699308
0.0293666
0.0650821
0.0263961
0.0586098
0.0231069
0.0504466
0.019512
0.0405381
0.0156259
0.0288431
0.0114646
0.0153346
0.00704527
0.00238667
0.0492179
0.0295817
0.0533868
0.0297449
0.0570582
0.0296515
0.0601198
0.0292985
0.0624608
0.0286842
0.0639731
0.0278079
0.064552
0.0266701
0.0640971
0.0252723
0.0625131
0.0236173
0.0597104
0.0217089
0.055606
0.0195518
0.0501243
0.0171521
0.0431977
0.0145167
0.0347671
0.0116536
0.0247824
0.00857181
0.0132034
0.00528114
0.00179243
0.0411942
0.020546
0.0445052
0.0206691
0.0474138
0.0206168
0.0498312
0.0203865
0.0516696
0.0199764
0.0528423
0.0193854
0.0532645
0.018613
0.0528539
0.0176594
0.0515312
0.0165253
0.0492206
0.0152123
0.0458504
0.0137226
0.0413535
0.0120588
0.0356679
0.0102245
0.0287371
0.00822372
0.0205105
0.00606106
0.0109439
0.00374183
0.00127187
0.0327509
0.0132014
0.0352537
0.0132855
0.0374452
0.0132581
0.0392587
0.0131176
0.0406275
0.0128624
0.0414858
0.0124915
0.0417684
0.0120041
0.0414114
0.0113999
0.0403529
0.0106789
0.0385327
0.00984155
0.035893
0.00888854
0.0323789
0.00782103
0.0279384
0.00664051
0.0225231
0.00534882
0.0160881
0.00394819
0.00859254
0.00244119
0.000830707
0.0239084
0.00740777
0.0256484
0.00745699
0.0271659
0.00744422
0.0284146
0.00736837
0.0293482
0.00722851
0.0299204
0.00702391
0.0300855
0.00675399
0.0297983
0.00641839
0.0290144
0.0060169
0.0276906
0.00554953
0.025785
0.00501645
0.023257
0.00441802
0.020068
0.00375481
0.0161812
0.00302754
0.0115621
0.00223714
0.00617821
0.00138473
0.000471578
0.0146653
0.00304148
0.0156831
0.00306221
0.0165665
0.00305762
0.0172884
0.00302723
0.0178216
0.00297066
0.018139
0.00288754
0.0182136
0.00277761
0.0180185
0.00264068
0.0175275
0.0024766
0.0167147
0.00228533
0.0155547
0.00206688
0.0140231
0.00182132
0.0120963
0.00154881
0.0097515
0.00124959
0.00696722
0.000923953
0.00372307
0.000572269
0.000194983
0.00500088
3.91344e-18
0.00533225
3.10346e-18
0.00561819
3.32618e-18
0.00584988
3.23671e-18
0.00601847
2.51933e-18
0.0061151
2.3978e-18
0.00613092
2.28186e-18
0.00605718
1.71027e-18
0.00588522
1.18988e-18
0.00560652
8.48855e-19
0.00521277
4.79782e-19
0.00469584
4.82247e-19
0.0040479
5.99371e-19
0.00326137
4.20121e-19
0.00232905
2.14522e-19
0.00124408
8.59911e-20
1.72076e-20
-0.00512048
-0.00179504
-0.00544468
-0.00180736
-0.00572254
-0.00180474
-0.0059454
-0.0017869
-0.0061046
-0.00175359
-0.00619145
-0.00170461
-0.00619732
-0.00163981
-0.00611363
-0.00155905
-0.00593192
-0.00146225
-0.00564388
-0.00134939
-0.00524139
-0.00122047
-0.00471652
-0.00107552
-0.00406165
-0.000914652
-0.00326939
-0.000737984
-0.00233274
-0.000545696
-0.00124503
-0.000338005
-0.00011517
-0.0157442
-0.00239691
-0.0166973
-0.00241313
-0.0175076
-0.0024093
-0.0181497
-0.00238505
-0.018598
-0.00234008
-0.0188272
-0.00227414
-0.0188119
-0.00218703
-0.018527
-0.00207863
-0.0179481
-0.00194886
-0.017051
-0.00179772
-0.0158122
-0.00162524
-0.0142092
-0.00143155
-0.0122199
-0.0012168
-0.00982358
-0.000981245
-0.00700037
-0.000725163
-0.00373163
-0.00044891
-0.000152897
-0.0269192
-0.00183453
-0.0284776
-0.0018468
-0.0297904
-0.00184359
-0.0308158
-0.00182464
-0.0315119
-0.00178973
-0.0318373
-0.0017387
-0.0317512
-0.00167142
-0.0312132
-0.00158782
-0.0301839
-0.00148789
-0.0286253
-0.00137168
-0.0265002
-0.00123926
-0.0237733
-0.00109078
-0.0204108
-0.00092643
-0.016381
-0.00074646
-0.0116538
-0.000551163
-0.00620189
-0.000340889
-0.000116034
-0.0386906
-0.000114935
-0.0408331
-0.000116568
-0.0426186
-0.000117229
-0.0439893
-0.000116878
-0.0448877
-0.000115473
-0.0452575
-0.000112979
-0.0450432
-0.000109365
-0.0441909
-0.000104601
-0.0426482
-9.86641e-05
-0.0403651
-9.15366e-05
-0.0372937
-8.32055e-05
-0.0333889
-7.36642e-05
-0.0286082
-6.29125e-05
-0.0229128
-5.09567e-05
-0.0162669
-3.78103e-05
-0.00863862
-2.34939e-05
-8.03513e-06
-0.0510928
0.00277283
-0.053799
0.00278675
-0.0560261
0.0027766
-0.0577007
0.00274216
-0.0587507
0.00268329
-0.0591056
0.00259999
-0.0586971
0.00249233
-0.0574593
0.00236052
-0.0553297
0.00220483
-0.052249
0.00202567
-0.048162
0.00182351
-0.0430177
0.00159895
-0.0367697
0.00135266
-0.029377
0.0010854
-0.0208035
0.000798032
-0.0110193
0.000491475
0.000166744
-0.0641425
0.00685267
-0.0673912
0.00688464
-0.070026
0.006856
-0.0719585
0.00676631
-0.0731023
0.00661548
-0.0733745
0.0064037
-0.0726957
0.00613147
-0.0709908
0.0057996
-0.0681898
0.00540919
-0.0642284
0.00496164
-0.0590481
0.00445862
-0.0525974
0.00390209
-0.0448316
0.00329425
-0.0357138
0.00263757
-0.025215
0.00193475
-0.0133144
0.00118872
0.000402621
-0.0778319
0.0121554
-0.0815996
0.0122048
-0.084604
0.0121443
-0.0867417
0.0119733
-0.0879135
0.0116923
-0.0880254
0.0113022
-0.0869894
0.0108045
-0.0847244
0.0102015
-0.081157
0.009496
-0.0762222
0.00869151
-0.0698643
0.00779203
-0.0620371
0.00680214
-0.0527049
0.00572696
-0.0418429
0.00457208
-0.0294375
0.00334358
-0.0154866
0.00204795
0.000692075
-0.0921232
0.0187123
-0.0963832
0.0187748
-0.0997133
0.0186634
-0.101996
0.0183782
-0.10312
0.0179207
-0.102983
0.0172934
-0.101491
0.0164999
-0.0985617
0.0155454
-0.0941222
0.0144357
-0.0881132
0.013178
-0.0804882
0.0117805
-0.0712142
0.0102521
-0.0602732
0.00860291
-0.0476616
0.00684374
-0.0333913
0.00498614
-0.0174898
0.00304236
0.00102523
-0.106945
0.026548
-0.111665
0.0266147
-0.11527
0.0264271
-0.117628
0.0259865
-0.118618
0.0252965
-0.118132
0.0243625
-0.116074
0.0231921
-0.112364
0.0217947
-0.106937
0.0201816
-0.0997458
0.0183658
-0.0907615
0.0163622
-0.0799738
0.0141867
-0.0673918
0.0118572
-0.0530446
0.00939226
-0.036981
0.00681196
-0.0192699
0.00413713
0.00138935
-0.122188
0.0356742
-0.127332
0.0357311
-0.131153
0.0354343
-0.133507
0.0347876
-0.134266
0.0337979
-0.133318
0.0324756
-0.13057
0.0308343
-0.125952
0.0288906
-0.119413
0.0266637
-0.110926
0.024176
-0.100491
0.0214519
-0.0881292
0.0185183
-0.0738895
0.015404
-0.0578457
0.0121394
-0.0400965
0.00875651
-0.0207655
0.00528826
0.0017685
-0.137707
0.0460824
-0.143231
0.0461102
-0.1472
0.0456631
-0.149461
0.0447487
-0.149879
0.0433797
-0.148344
0.041574
-0.144772
0.039354
-0.139108
0.0367469
-0.131324
0.0337843
-0.121427
0.0305013
-0.109451
0.0269369
-0.0954656
0.023133
-0.0795715
0.0191341
-0.0619007
0.0149869
-0.0426159
0.0107397
-0.0219091
0.00644185
0.00214326
-0.153319
0.0577391
-0.159173
0.0577125
-0.163215
0.057065
-0.165283
0.0558099
-0.165239
0.0539684
-0.16298
0.051569
-0.158437
0.0486474
-0.151579
0.045246
-0.142414
0.0414132
-0.130988
0.0372029
-0.117389
0.0326737
-0.101745
0.0278884
-0.0842246
0.0229127
-0.0650322
0.0178151
-0.0444092
0.0126653
-0.0226304
0.00753377
0.00249074
-0.168809
0.0705802
-0.174937
0.0704685
-0.178969
0.0695613
-0.180734
0.0678802
-0.180096
0.0654582
-0.176965
0.0623391
-0.171294
0.058577
-0.163088
0.0542353
-0.152398
0.0493859
-0.139328
0.0441078
-0.124033
0.0384864
-0.106715
0.0326122
-0.0876245
0.0265789
-0.0670558
0.0204828
-0.0453435
0.0144211
-0.022858
0.00849021
0.00278481
-0.183934
0.0845077
-0.190275
0.0842753
-0.194207
0.0830398
-0.19555
0.0808346
-0.194177
0.0777089
-0.190014
0.0737275
-0.18305
0.0689695
-0.173334
0.0635266
-0.160976
0.057502
-0.146153
0.0510087
-0.129101
0.0441669
-0.110115
0.0371029
-0.0895436
0.0299465
-0.0677873
0.0228288
-0.0452881
0.0158803
-0.0225238
0.00922872
0.00299651
-0.198429
0.0993875
-0.20492
0.0989945
-0.208656
0.0973537
-0.209453
0.0945137
-0.207193
0.0905456
-0.201833
0.0855423
-0.193403
0.0796158
-0.18201
0.0728958
-0.167843
0.0655266
-0.151164
0.0576648
-0.13231
0.0494759
-0.111687
0.0411317
-0.0897607
0.0328064
-0.0670514
0.0246739
-0.0441216
0.0169042
-0.0215662
0.00966021
0.00309489
-0.212017
0.115048
-0.218593
0.114453
-0.222034
0.112322
-0.222154
0.108724
-0.218854
0.10376
-0.212123
0.0975576
-0.202048
0.0902735
-0.188813
0.0820858
-0.172697
0.0731922
-0.15407
0.063805
-0.133389
0.0541469
-0.11119
0.0444459
-0.0880714
0.0349306
-0.0646897
0.0258252
-0.0417383
0.0173451
-0.0199341
0.00969154
0.00304795
-0.22442
0.131282
-0.231016
0.130442
-0.234063
0.127731
-0.233375
0.123242
-0.228873
0.117112
-0.220595
0.109517
-0.208697
0.10067
-0.193454
0.09081
-0.175256
0.0802034
-0.154602
0.0691326
-0.132091
0.0578908
-0.108406
0.0467747
-0.084298
0.0360775
-0.0605705
0.0260815
-0.038055
0.0170518
-0.0175906
0.00922893
0.00282398
-0.235363
0.147847
-0.241921
0.146724
-0.244478
0.143338
-0.242849
0.137814
-0.236986
0.130336
-0.226983
0.12114
-0.213083
0.110507
-0.195669
0.0987583
-0.175267
0.0862432
-0.152524
0.0733315
-0.128203
0.0604026
-0.103156
0.0478357
-0.0783
0.0359988
-0.0545967
0.0252394
-0.0330177
0.0158745
-0.014517
0.00818193
0.00239303
-0.244594
0.16447
-0.25106
0.163032
-0.253036
0.158878
-0.250339
0.152169
-0.242957
0.143148
-0.231056
0.132125
-0.214977
0.119471
-0.195238
0.105604
-0.172519
0.09098
-0.147644
0.076074
-0.12156
0.0613698
-0.0953064
0.0473432
-0.0699835
0.0344478
-0.0467144
0.023101
-0.0266072
0.0136716
-0.0107157
0.00646795
0.0017286
-0.251885
0.180854
-0.258217
0.179081
-0.259529
0.174066
-0.255645
0.166019
-0.246594
0.15525
-0.232624
0.142163
-0.214198
0.127237
-0.191987
0.111014
-0.166854
0.0940768
-0.139823
0.0770302
-0.112051
0.0604813
-0.0847824
0.0450176
-0.0593095
0.0311877
-0.0369192
0.0194822
-0.0188443
0.0103165
-0.00621292
0.00401716
0.000809409
0.402324
-0.0254639
-0.40814
0.393527
-0.017097
0.381919
-0.00827078
0.367716
0.000801065
0.351172
0.0098882
0.332568
0.0187504
0.312204
0.0271447
0.29039
0.034832
0.267434
0.0415838
0.243639
0.0471882
0.21929
0.0514551
0.194652
0.0542203
0.169964
0.0553487
0.14544
0.0547371
0.121261
0.0523148
0.0975822
0.0480451
0.0745278
0.0419245
0.052198
0.0339827
0.0306696
0.0242813
0.00999963
0.012913
-0.00977058
1.13644e-17
-0.0286119
-0.0143072
-0.0465036
-0.0298317
-0.0634299
-0.0463713
-0.0793769
-0.0637015
-0.0943301
-0.0815772
-0.108272
-0.0997363
-0.121182
-0.117903
-0.133033
-0.135792
-0.143795
-0.153114
-0.153432
-0.169583
-0.161906
-0.184919
-0.169177
-0.198857
-0.175208
-0.211157
-0.179962
-0.221605
-0.183411
-0.230023
-0.185536
-0.236276
-0.186327
-0.240273
-0.185793
-0.241973
-0.183955
-0.241385
-0.23857
0.39939
-0.00996085
-0.404323
0.391355
-0.00198488
0.380392
0.00635371
0.366723
0.0148435
0.35061
0.0232589
0.332346
0.0313673
0.31224
0.0389351
0.290614
0.0457348
0.267787
0.0515511
0.244071
0.0561864
0.21976
0.0594651
0.195129
0.0612383
0.170423
0.0613855
0.145861
0.0598174
0.121631
0.0564767
0.0978912
0.0513381
0.0747703
0.0444087
0.0523709
0.0357269
0.0307722
0.0253614
0.0100332
0.0134104
-0.00980328
-6.28618e-15
-0.0287067
-0.0147169
-0.0466551
-0.0305623
-0.0636314
-0.0473345
-0.0796204
-0.0648103
-0.0946062
-0.0827471
-0.10857
-0.100886
-0.121489
-0.118954
-0.133334
-0.136672
-0.144074
-0.153755
-0.153669
-0.16992
-0.162079
-0.184892
-0.169262
-0.198413
-0.175177
-0.210245
-0.179786
-0.220179
-0.183057
-0.228042
-0.184968
-0.233701
-0.185512
-0.237069
-0.184693
-0.23811
-0.182535
-0.236838
-0.233317
0.389889
0.00493169
-0.393172
0.383305
0.012494
0.373606
0.0203259
0.361031
0.0282177
0.345856
0.0359489
0.328391
0.0432941
0.308963
0.0500299
0.287908
0.0559413
0.265561
0.0608266
0.242246
0.0645033
0.218271
0.0668114
0.193919
0.0676176
0.169448
0.0668169
0.145084
0.0643346
0.121021
0.0601266
0.0974247
0.0541801
0.0744279
0.0465124
0.0521381
0.037171
0.0306379
0.0262316
0.00998978
0.013798
-0.00976073
-2.4811e-17
-0.0285805