/*--------------------------------*- C++ -*----------------------------------*\
  =========                 |
  \\      /  F ield         | OpenFOAM: The Open Source CFD Toolbox
   \\    /   O peration     | Website:  https://openfoam.org
    \\  /    A nd           | Version:  6
     \\/     M anipulation  |
\*---------------------------------------------------------------------------*/
FoamFile
{
    version     2.0;
    format      ascii;
    class       volVectorField;
    location    "3.49";
    object      U;
}
// * * * * * * * * * * * * * * * * * * * * * * * * * * * * * * * * * * * * * //

dimensions      [0 1 -1 0 0 0 0];

internalField   nonuniform List<vector> 
4214
(
(4.76335 -0.103596 8.97863e-20)
(4.97832 -0.0698635 -5.97024e-20)
(5.08208 -0.042894 2.54382e-20)
(5.15168 -0.0172422 5.8775e-20)
(5.20765 0.0139471 1.51278e-20)
(5.25222 0.0443506 -1.73041e-20)
(5.28812 0.0679577 8.59722e-21)
(5.31886 0.0823482 -7.68216e-21)
(5.34743 0.0849366 4.34021e-21)
(5.37831 0.0715133 0)
(5.42078 0.0345527 -1.09721e-23)
(5.49316 -0.0331069 0)
(5.59112 -0.133108 0)
(5.63463 -0.23575 0)
(5.42032 -0.348974 0)
(4.68451 -0.494772 0)
(3.82256 -0.698996 -1.56246e-20)
(3.36459 -0.967029 -1.4865e-20)
(3.4711 -1.20061 0)
(3.90507 -1.36543 1.00532e-20)
(4.24914 -1.50379 0)
(4.42763 -1.61101 -1.25693e-20)
(4.51549 -1.65906 0)
(4.57937 -1.65596 0)
(4.65958 -1.60931 1.58563e-20)
(4.7736 -1.53005 0)
(4.91075 -1.42886 0)
(5.05083 -1.31476 0)
(5.1781 -1.19546 1.20155e-20)
(5.28317 -1.07474 -1.46379e-20)
(5.3621 -0.954234 6.90174e-20)
(5.41636 -0.835724 -4.82515e-20)
(5.44793 -0.719824 -4.76504e-20)
(5.46219 -0.606595 9.50445e-20)
(5.46128 -0.496172 1.42381e-21)
(5.44502 -0.388186 -4.91132e-20)
(5.41228 -0.282789 -3.29421e-21)
(5.36312 -0.184042 0)
(5.29801 -0.0923017 0)
(5.18602 0.0113096 0)
(4.94051 0.10834 2.04885e-19)
(5.045 -0.0585655 8.14528e-20)
(5.10714 -0.0223215 0)
(5.16671 0.00286204 6.26229e-20)
(5.21966 0.0262942 -6.7829e-20)
(5.26138 0.054474 0)
(5.29186 0.0788321 1.10259e-20)
(5.315 0.0944289 -6.80284e-21)
(5.33535 0.100134 -8.34813e-21)
(5.35563 0.0928981 1.21837e-21)
(5.37858 0.0691314 0)
(5.41397 0.0194833 -4.81102e-21)
(5.47776 -0.0621713 -2.40051e-22)
(5.55817 -0.1748 -1.50811e-20)
(5.55694 -0.286718 -8.76781e-21)
(5.25532 -0.418007 0)
(4.43922 -0.57796 -1.15968e-20)
(3.5694 -0.769045 2.62395e-20)
(3.15462 -1.0096 6.79393e-20)
(3.31404 -1.23995 -2.42439e-21)
(3.7635 -1.44944 1.01365e-20)
(4.11411 -1.67194 0)
(4.33214 -1.86572 -5.34246e-20)
(4.48846 -1.98586 6.79767e-21)
(4.62223 -2.02331 -6.33696e-20)
(4.76084 -1.99035 -6.51465e-20)
(4.91959 -1.90045 -2.52572e-20)
(5.08927 -1.76639 0)
(5.24876 -1.6093 0)
(5.38686 -1.44758 -7.9346e-20)
(5.50003 -1.29175 -4.99813e-20)
(5.58484 -1.14521 -1.67348e-20)
(5.64234 -1.00929 9.50733e-20)
(5.67627 -0.882864 7.33965e-21)
(5.69138 -0.764275 2.25474e-22)
(5.69088 -0.651819 5.84887e-22)
(5.67553 -0.543001 5.64707e-20)
(5.64387 -0.4348 -4.37015e-20)
(5.59615 -0.330247 1.28617e-19)
(5.53847 -0.234536 -1.21815e-19)
(5.47151 -0.117862 0)
(5.37559 0.0221441 0)
(5.05565 -0.0276724 2.01805e-19)
(5.12611 0.00500169 1.95913e-19)
(5.2026 0.0323177 -1.32599e-19)
(5.25027 0.0560287 7.71673e-20)
(5.2809 0.0798618 -3.61409e-20)
(5.30317 0.0982598 7.3666e-21)
(5.32097 0.108174 2.23985e-20)
(5.33726 0.108332 1.15717e-20)
(5.3536 0.0960592 -5.62816e-21)
(5.3725 0.0656858 7.39381e-21)
(5.40377 0.00933972 -7.97917e-21)
(5.4622 -0.0792121 4.95947e-21)
(5.53072 -0.196759 -5.09847e-22)
(5.51278 -0.317557 -1.66259e-20)
(5.14798 -0.455585 -1.65738e-20)
(4.31314 -0.603874 -9.8318e-21)
(3.45218 -0.768728 -7.40099e-21)
(3.05016 -0.986451 -1.45133e-19)
(3.21014 -1.22264 7.21421e-20)
(3.64292 -1.46812 5.64357e-21)
(3.97994 -1.73994 1.62668e-21)
(4.22013 -1.98374 -4.63574e-20)
(4.42524 -2.154 1.32804e-19)
(4.61943 -2.23498 3.21234e-19)
(4.81952 -2.23085 0)
(5.03162 -2.14495 1.72252e-19)
(5.2366 -1.99018 -9.37493e-20)
(5.41359 -1.79509 2.29767e-19)
(5.55125 -1.58873 0)
(5.65515 -1.39044 4.84044e-20)
(5.72749 -1.21106 -9.2541e-20)
(5.77395 -1.05515 -1.77505e-19)
(5.79859 -0.919898 1.93134e-19)
(5.80607 -0.800764 -1.22978e-19)
(5.80103 -0.693793 1.32305e-19)
(5.786 -0.59478 1.13363e-19)
(5.76016 -0.498496 -1.24961e-19)
(5.72098 -0.402779 2.13522e-19)
(5.66388 -0.311732 -2.62808e-19)
(5.58343 -0.202389 0)
(5.51024 -0.0675961 -3.0957e-19)
(5.1288 0.00970126 -1.98277e-19)
(5.201 0.0471295 6.03581e-21)
(5.25566 0.0720835 -5.54313e-20)
(5.28466 0.0905998 5.38759e-20)
(5.30345 0.107953 3.77018e-20)
(5.31742 0.119846 -3.18401e-20)
(5.32893 0.123568 -9.78358e-21)
(5.33976 0.117738 3.51613e-21)
(5.35036 0.0991566 -3.35302e-22)
(5.36319 0.0621478 -1.47261e-20)
(5.38838 -0.00170079 2.13393e-20)
(5.43892 -0.0979692 0)
(5.4902 -0.220908 -5.69345e-20)
(5.43099 -0.352067 1.67471e-19)
(5.01062 -0.492219 8.27613e-20)
(4.15289 -0.619807 2.46332e-20)
(3.30103 -0.752583 -3.99122e-20)
(2.915 -0.946927 1.64701e-19)
(3.06585 -1.19058 -7.97596e-20)
(3.47205 -1.4708 -2.55295e-20)
(3.79509 -1.79023 4.47547e-22)
(4.0604 -2.08705 1.07871e-19)
(4.32235 -2.31249 -1.76646e-19)
(4.59255 -2.44533 -2.2625e-19)
(4.87943 -2.48284 -3.97838e-19)
(5.1822 -2.41646 -1.67498e-19)
(5.45019 -2.24724 1.58937e-19)
(5.66746 -2.01631 -3.27218e-19)
(5.81764 -1.76154 -2.92479e-20)
(5.91176 -1.50778 3.65003e-20)
(5.95701 -1.27673 7.40592e-20)
(5.97357 -1.08378 0)
(5.97424 -0.92794 -2.66133e-19)
(5.96402 -0.8012 3.99183e-19)
(5.94576 -0.695689 -2.05637e-19)
(5.92227 -0.604826 0)
(5.89539 -0.522683 0)
(5.8643 -0.444031 4.41368e-20)
(5.8255 -0.368709 -2.18757e-19)
(5.7655 -0.280489 3.02978e-19)
(5.69411 -0.148296 5.40144e-20)
(5.19681 0.0566686 -1.02032e-20)
(5.25547 0.0939676 -1.46398e-19)
(5.29229 0.110493 -1.48604e-19)
(5.30897 0.123518 -5.60079e-20)
(5.31864 0.134443 0)
(5.32579 0.139886 4.28854e-20)
(5.33166 0.137712 -1.00848e-20)
(5.33742 0.126177 4.7179e-21)
(5.34222 0.101735 3.32575e-22)
(5.34882 0.0586192 0)
(5.36749 -0.0118625 3.6372e-20)
(5.40898 -0.114589 -1.02084e-19)
(5.43989 -0.241834 -8.37144e-20)
(5.35218 -0.382664 -7.33884e-20)
(4.87302 -0.517136 -1.46781e-19)
(4.00655 -0.613824 3.59098e-20)
(3.16411 -0.707474 0)
(2.77847 -0.875298 0)
(2.90263 -1.12108 8.85908e-20)
(3.26448 -1.42424 0)
(3.5659 -1.7756 0)
(3.84832 -2.11079 3.62962e-20)
(4.16247 -2.38156 6.68099e-20)
(4.51229 -2.56068 -9.3836e-20)
(4.89213 -2.62833 -5.35623e-19)
(5.30407 -2.60854 -2.47357e-19)
(5.6644 -2.44463 1.11279e-18)
(5.94945 -2.19307 -8.80666e-20)
(6.13689 -1.90686 -4.79361e-19)
(6.23752 -1.60841 -2.76524e-19)
(6.25312 -1.32599 0)
(6.22055 -1.08791 -4.10318e-19)
(6.17419 -0.902329 4.02349e-19)
(6.12929 -0.761567 -5.63706e-20)
(6.08721 -0.653115 -2.9427e-19)
(6.04667 -0.566782 2.55282e-19)
(6.00852 -0.494934 0)
(5.9739 -0.432062 3.49902e-19)
(5.94121 -0.372853 -9.28769e-21)
(5.90265 -0.314274 -4.42402e-19)
(5.85019 -0.209103 -1.02533e-19)
(5.2625 0.108509 2.26148e-19)
(5.30492 0.139455 -8.6343e-20)
(5.32253 0.147703 3.91519e-19)
(5.32795 0.155301 -1.85711e-20)
(5.32966 0.159758 -6.63208e-20)
(5.33057 0.15917 -6.09549e-20)
(5.33151 0.151443 1.92578e-20)
(5.33127 0.134422 6.03486e-21)
(5.32947 0.104572 4.16092e-21)
(5.32894 0.0558874 0)
(5.34005 -0.020445 -3.10352e-20)
(5.36969 -0.12826 3.82008e-20)
(5.37804 -0.259241 8.15051e-20)
(5.24992 -0.406905 -1.84639e-19)
(4.733 -0.528751 -1.94725e-19)
(3.86514 -0.588271 0)
(3.03008 -0.636305 0)
(2.63214 -0.771765 -1.7921e-20)
(2.71082 -1.00826 -7.32725e-20)
(3.01753 -1.31519 -1.04243e-19)
(3.28736 -1.67824 2.95249e-21)
(3.57565 -2.03123 -7.90601e-19)
(3.9318 -2.32938 1.02616e-18)
(4.35851 -2.53957 1.62621e-18)
(4.84048 -2.6517 2.99105e-18)
(5.3666 -2.65953 -3.97988e-19)
(5.8343 -2.49921 -2.0375e-18)
(6.21257 -2.24339 1.59722e-18)
(6.4658 -1.94947 4.95401e-19)
(6.60348 -1.63445 0)
(6.61287 -1.32826 0)
(6.53431 -1.06034 -5.61854e-19)
(6.42497 -0.847741 8.32372e-19)
(6.32398 -0.691729 -2.95754e-19)
(6.24315 -0.579768 4.24276e-19)
(6.17769 -0.496916 -2.94795e-19)
(6.12174 -0.432734 2.9541e-19)
(6.07459 -0.381111 0)
(6.0362 -0.336906 -5.21235e-19)
(6.00535 -0.296665 7.36421e-20)
(5.96614 -0.232363 5.6783e-19)
(5.31566 0.158505 8.9806e-20)
(5.34107 0.181415 -2.98091e-19)
(5.34345 0.18274 -1.70383e-19)
(5.34067 0.185285 -1.57094e-19)
(5.33585 0.183896 -5.23506e-20)
(5.33137 0.177915 1.04405e-19)
(5.32672 0.165 0)
(5.3202 0.142934 5.47603e-21)
(5.31107 0.108284 -1.02176e-21)
(5.30245 0.0548257 0)
(5.30435 -0.025947 -8.79889e-20)
(5.3195 -0.136927 2.27947e-19)
(5.30394 -0.271407 1.30958e-19)
(5.1393 -0.421672 1.80625e-19)
(4.59614 -0.524542 1.91926e-19)
(3.73623 -0.542409 -2.90508e-19)
(2.90655 -0.537728 -6.16352e-20)
(2.4813 -0.629429 3.96283e-20)
(2.4955 -0.840283 1.66855e-20)
(2.73675 -1.12594 1.08576e-19)
(2.9628 -1.47359 -5.05934e-21)
(3.23638 -1.81545 8.1468e-19)
(3.61188 -2.10909 -1.41723e-18)
(4.09694 -2.32437 4.25173e-19)
(4.69062 -2.50106 -2.1258e-18)
(5.32887 -2.4352 5.23769e-19)
(5.89311 -2.32005 1.84106e-18)
(6.38468 -2.08544 -3.78474e-18)
(6.7319 -1.80898 0)
(6.93373 -1.50763 1.46579e-18)
(6.96906 -1.21646 0)
(6.87514 -0.957588 4.51096e-19)
(6.71262 -0.741967 -2.9105e-19)
(6.54461 -0.582487 2.80255e-19)
(6.40881 -0.473967 1.17109e-19)
(6.30865 -0.39996 -5.06202e-20)
(6.23184 -0.346497 -2.25234e-20)
(6.16916 -0.305485 5.94257e-19)
(6.11853 -0.273677 -5.99783e-19)
(6.08053 -0.245455 0)
(6.04641 -0.216789 0)
(5.35514 0.203218 2.21708e-19)
(5.36622 0.218797 2.02674e-19)
(5.35737 0.215555 -1.95221e-19)
(5.34803 0.213685 -8.10804e-20)
(5.33752 0.207334 1.30728e-19)
(5.3277 0.196543 -1.0478e-19)
(5.31706 0.178976 2.5074e-20)
(5.30373 0.152579 -1.89307e-21)
(5.28637 0.113936 -6.33896e-21)
(5.2685 0.0568804 0)
(5.25903 -0.0263953 -1.0863e-19)
(5.25696 -0.138576 7.43216e-20)
(5.21671 -0.275338 2.49047e-20)
(5.01367 -0.420817 -2.47289e-19)
(4.46515 -0.503285 7.36399e-20)
(3.62424 -0.476144 -1.88501e-19)
(2.79905 -0.413537 6.90258e-19)
(2.33043 -0.445234 1.71699e-20)
(2.26512 -0.6065 -1.60807e-20)
(2.43098 -0.843888 -8.14989e-21)
(2.60264 -1.1418 -8.78298e-21)
(2.83987 -1.43414 1.45298e-18)
(3.20643 -1.682 2.72555e-19)
(3.7203 -1.84661 2.2601e-19)
(4.39224 -1.96607 2.95752e-18)
(5.11934 -1.93785 0)
(5.77555 -1.87087 -4.2375e-18)
(6.39636 -1.69257 7.25496e-18)
(6.86528 -1.46214 -4.28307e-18)
(7.14506 -1.20208 -3.12144e-18)
(7.22095 -0.948117 7.33107e-19)
(7.15567 -0.730383 -8.53758e-19)
(6.97863 -0.55015 1.85044e-19)
(6.76054 -0.414887 3.96199e-19)
(6.56878 -0.32688 4.84237e-19)
(6.42767 -0.27234 -8.35949e-19)
(6.328 -0.237107 4.37402e-19)
(6.25245 -0.211987 -6.83803e-19)
(6.19133 -0.193875 5.92662e-20)
(6.14293 -0.177601 6.85725e-19)
(6.10479 -0.170386 -7.83072e-20)
(5.38286 0.24195 -2.24435e-19)
(5.38181 0.252225 2.33144e-19)
(5.3651 0.24644 1.94131e-19)
(5.35022 0.240946 1.64582e-19)
(5.33449 0.230656 5.47766e-20)
(5.31911 0.21578 -9.17698e-20)
(5.30209 0.194322 1.93685e-20)
(5.28095 0.164415 -8.40434e-21)
(5.25456 0.122785 0)
(5.22634 0.063774 1.17218e-20)
(5.2033 -0.0195271 3.15608e-20)
(5.18125 -0.130922 -1.04103e-19)
(5.11418 -0.26667 -3.57768e-19)
(4.88339 -0.399823 2.61781e-19)
(4.34319 -0.458406 -1.39039e-19)
(3.53465 -0.390628 3.25985e-19)
(2.71476 -0.267822 -6.84392e-19)
(2.18547 -0.220959 3.29931e-20)
(2.03218 -0.302327 3.01388e-20)
(2.11459 -0.461803 -1.10804e-20)
(2.22682 -0.676061 1.04237e-20)
(2.41499 -0.877996 -3.24181e-18)
(2.74481 -1.04184 2.4728e-18)
(3.24736 -1.12921 -2.67376e-18)
(3.93126 -1.20371 -3.05343e-18)
(4.70471 -1.20868 0)
(5.44224 -1.18927 4.59453e-18)
(6.18614 -1.08603 -1.23172e-18)
(6.78807 -0.927803 2.3028e-18)
(7.18304 -0.741558 1.83049e-18)
(7.29684 -0.548155 -6.38184e-19)
(7.27643 -0.381424 -8.77969e-19)
(7.14351 -0.262373 5.33035e-19)
(6.91497 -0.183258 0)
(6.69022 -0.137777 -9.00578e-19)
(6.51528 -0.115219 9.39879e-19)
(6.39406 -0.105461 -4.38328e-19)
(6.30916 -0.101151 4.69669e-20)
(6.24368 -0.100394 6.62519e-19)
(6.18943 -0.0974494 -7.41311e-19)
(6.14677 -0.107499 7.98491e-20)
(5.4011 0.275678 1.429e-19)
(5.38991 0.282554 -4.76324e-19)
(5.36758 0.275818 0)
(5.3475 0.26773 1.7963e-19)
(5.32658 0.254572 0)
(5.30513 0.236547 0)
(5.28089 0.212126 0)
(5.25127 0.179704 0)
(5.21516 0.136378 0)
(5.1754 0.077403 2.04492e-21)
(5.13671 -0.00336723 1.05781e-20)
(5.09253 -0.111064 1.19514e-19)
(4.99851 -0.240999 -2.19312e-20)
(4.74998 -0.357847 0)
(4.23142 -0.390163 0)
(3.46908 -0.288149 -7.48397e-19)
(2.66594 -0.105557 6.02904e-19)
(2.07097 0.0366165 6.73494e-20)
(1.8189 0.065778 1.92349e-20)
(1.80977 0.0125428 -1.56197e-20)
(1.86193 -0.0896751 -2.51118e-20)
(1.99088 -0.173275 -3.14959e-19)
(2.25971 -0.222938 3.5222e-19)
(2.70881 -0.238028 3.81533e-18)
(3.34497 -0.283628 -4.1458e-18)
(4.11338 -0.307622 3.78568e-18)
(4.89718 -0.340043 0)
(5.73393 -0.316239 -4.60174e-18)
(6.47022 -0.244054 1.42709e-18)
(7.00117 -0.152793 0)
(7.28393 -0.0548765 8.24115e-19)
(7.29014 0.0341742 6.50223e-19)
(7.17827 0.0814788 4.25087e-19)
(6.96636 0.0905643 3.04278e-19)
(6.73958 0.0803464 5.21707e-19)
(6.55067 0.0611415 0)
(6.41649 0.0395091 9.7952e-20)
(6.32653 0.0201983 4.33407e-20)
(6.26223 0.00277502 7.36308e-19)
(6.20924 -0.00848115 -7.15904e-19)
(6.16801 -0.0321334 5.33877e-21)
(5.4118 0.305709 2.79809e-19)
(5.39231 0.310881 2.39034e-19)
(5.36525 0.304213 9.51607e-20)
(5.34001 0.294702 -1.9744e-19)
(5.31359 0.279834 -8.05333e-20)
(5.28541 0.259779 0)
(5.25315 0.233553 0)
(5.21438 0.199857 -3.97541e-20)
(5.16797 0.156414 1.24796e-19)
(5.11564 0.099626 -1.66279e-19)
(5.05959 0.0240904 2.43418e-19)
(4.99165 -0.0755434 -3.18414e-19)
(4.87175 -0.192811 5.44929e-19)
(4.61391 -0.289563 -5.05406e-19)
(4.12984 -0.299063 -2.03755e-19)
(3.43133 -0.17127 7.4349e-19)
(2.66176 0.0670717 -8.58001e-22)
(2.02442 0.314591 0)
(1.67246 0.477394 4.89607e-20)
(1.54513 0.550802 0)
(1.52536 0.584635 -2.7879e-20)
(1.58118 0.626091 1.90613e-18)
(1.7697 0.68461 -5.57088e-18)
(2.13477 0.727143 -3.46225e-18)
(2.67482 0.708704 7.61378e-18)
(3.38999 0.664795 -3.91839e-18)
(4.19641 0.5792 -2.65451e-18)
(5.10428 0.522638 2.21932e-18)
(5.96563 0.498754 2.48997e-18)
(6.62049 0.487086 9.08137e-19)
(7.01533 0.483511 -3.09245e-18)
(7.14484 0.475412 6.38711e-19)
(7.07383 0.442182 0)
(6.89682 0.379114 -3.18022e-19)
(6.69317 0.306725 -2.59123e-19)
(6.51511 0.239632 0)
(6.38501 0.183761 -4.80012e-19)
(6.29908 0.140381 2.80326e-19)
(6.24146 0.10556 0)
(6.19579 0.0804486 7.41565e-19)
(6.1616 0.047414 -6.86022e-19)
(5.41692 0.333537 -2.70911e-19)
(5.3904 0.338376 0)
(5.35862 0.332548 -1.32042e-19)
(5.32786 0.322651 -8.66051e-20)
(5.29539 0.307279 1.05699e-20)
(5.2598 0.286462 0)
(5.21877 0.259819 -7.53211e-21)
(5.17018 0.226337 7.83493e-21)
(5.11293 0.184626 -9.18838e-20)
(5.0473 0.13226 9.41012e-20)
(4.9729 0.0650377 9.05785e-20)
(4.88022 -0.0209458 2.30909e-19)
(4.73555 -0.117715 -1.17982e-19)
(4.47489 -0.190688 3.34962e-19)
(4.03685 -0.182477 5.45633e-19)
(3.42291 -0.0406061 9.05641e-20)
(2.71965 0.237291 -7.61908e-19)
(2.06858 0.578905 0)
(1.59951 0.883794 -1.49495e-19)
(1.35526 1.09924 -7.31232e-19)
(1.23317 1.28715 0)
(1.19443 1.44407 -2.23555e-18)
(1.283 1.57746 1.9819e-20)
(1.54087 1.65059 3.47602e-18)
(1.96993 1.63934 -2.92249e-18)
(2.61597 1.56576 -9.32459e-19)
(3.42498 1.41979 6.94007e-18)
(4.37589 1.28647 -4.98447e-19)
(5.32239 1.17397 -1.53675e-18)
(6.09655 1.06534 -1.77377e-18)
(6.60617 0.977944 -2.3174e-18)
(6.83054 0.886159 -1.67918e-19)
(6.83387 0.768267 4.7247e-19)
(6.71144 0.633338 3.56939e-19)
(6.55036 0.502006 -3.65245e-19)
(6.40515 0.390306 3.61488e-19)
(6.2988 0.304141 0)
(6.22977 0.241177 -1.55455e-19)
(6.18547 0.193487 0)
(6.15117 0.158185 -1.26529e-19)
(6.12711 0.120082 6.26475e-20)
(5.41874 0.361711 -2.74166e-19)
(5.38532 0.366905 2.88801e-19)
(5.34822 0.362501 -2.23645e-19)
(5.31123 0.352993 3.03645e-19)
(5.27197 0.338243 -1.68384e-20)
(5.22844 0.317914 0)
(5.17832 0.292411 9.24917e-21)
(5.11952 0.260879 -1.66491e-20)
(5.05101 0.222992 -1.02898e-19)
(4.97185 0.17743 1.01055e-19)
(4.87917 0.121832 -2.96656e-19)
(4.76295 0.0548782 -2.34006e-20)
(4.59761 -0.0145836 -4.55216e-19)
(4.34114 -0.0587805 -3.5986e-19)
(3.95415 -0.0330949 1.78606e-19)
(3.43181 0.114093 0)
(2.81939 0.40687 -5.87298e-19)
(2.19878 0.805398 -3.08172e-19)
(1.65167 1.22395 9.8282e-20)
(1.27975 1.58088 -8.75678e-19)
(1.03629 1.92043 0)
(0.876339 2.17978 -2.94698e-20)
(0.843099 2.35617 6.03608e-18)
(0.985342 2.42834 -7.00983e-18)
(1.31049 2.39584 0)
(1.88805 2.28081 -8.53486e-19)
(2.6662 2.07282 -2.57806e-18)
(3.62156 1.87091 -2.82205e-18)
(4.60884 1.67536 7.43953e-19)
(5.48564 1.4878 2.38666e-18)
(6.11327 1.33429 4.87945e-19)
(6.43301 1.17734 1.0813e-18)
(6.5087 0.992577 -2.73657e-19)
(6.44645 0.801937 -3.76501e-19)
(6.33994 0.626843 0)
(6.24192 0.484655 0)
(6.17303 0.380078 0)
(6.13079 0.306583 -6.06886e-19)
(6.10521 0.252774 1.28366e-18)
(6.08503 0.212361 -5.70999e-19)
(6.07157 0.174287 -8.95378e-20)
(5.41977 0.393935 -6.25627e-19)
(5.37886 0.399598 3.00686e-19)
(5.33497 0.397065 2.28455e-19)
(5.29084 0.388477 -2.61906e-19)
(5.24376 0.375309 2.56467e-19)
(5.19207 0.356417 -5.00935e-20)
(5.13321 0.333537 0)
(5.06508 0.305845 -4.01849e-20)
(4.98624 0.274049 -3.6693e-20)
(4.89489 0.237885 9.68352e-20)
(4.78654 0.197138 8.46458e-20)
(4.65174 0.153241 1.16097e-19)
(4.47254 0.115403 4.41737e-19)
(4.22393 0.105827 -3.2524e-19)
(3.88274 0.158567 1.7042e-19)
(3.4432 0.316758 0)
(2.93242 0.612478 5.90054e-19)
(2.38688 1.02903 1.28456e-19)
(1.82432 1.50167 0)
(1.35338 1.95475 2.63476e-18)
(1.00136 2.4041 -5.13811e-20)
(0.70354 2.7295 -2.19991e-19)
(0.527806 2.92538 -3.33863e-18)
(0.54482 2.97574 5.74835e-19)
(0.769372 2.91048 0)
(1.2753 2.74681 0)
(1.99259 2.48354 -2.85669e-18)
(2.92645 2.22504 1.27425e-18)
(3.92173 1.95572 -3.55705e-19)
(4.88014 1.7109 -4.91416e-19)
(5.60507 1.51731 5.11985e-19)
(6.01162 1.31002 -3.75452e-19)
(6.15983 1.08194 -1.3483e-19)
(6.15949 0.860379 -2.27669e-19)
(6.10903 0.662914 2.94987e-19)
(6.06135 0.510342 -3.89261e-19)
(6.03418 0.402606 -4.92664e-20)
(6.0222 0.329184 4.20549e-19)
(6.01737 0.276705 -1.63881e-19)
(6.0119 0.237119 7.13323e-19)
(6.00784 0.203564 2.31207e-20)
(5.42361 0.43392 -3.09964e-19)
(5.37544 0.440468 3.19832e-19)
(5.32187 0.440272 1.44865e-19)
(5.27018 0.433233 -1.81336e-19)
(5.21343 0.422439 1.14906e-19)
(5.15369 0.405954 4.03819e-20)
(5.08619 0.386617 7.56443e-20)
(5.01051 0.364139 3.5308e-20)
(4.92302 0.340499 3.92915e-20)
(4.82213 0.316505 -2.1281e-19)
(4.70217 0.293639 5.17927e-20)
(4.55574 0.276037 1.35285e-19)
(4.37047 0.273376 -2.36364e-19)
(4.13173 0.304862 0)
(3.82668 0.396754 -1.49808e-19)
(3.4516 0.582039 1.49424e-19)
(3.03116 0.887059 0)
(2.58893 1.3022 1.8531e-19)
(2.05938 1.77978 0)
(1.54635 2.27427 -2.22492e-18)
(1.1226 2.74948 2.2419e-20)
(0.684365 3.07027 -2.90425e-18)
(0.365955 3.26061 0)
(0.254506 3.27287 3.06909e-18)
(0.378215 3.17334 4.10702e-19)
(0.804442 2.95335 -6.17962e-19)
(1.4283 2.6541 4.67949e-18)
(2.33194 2.34471 -1.61519e-18)
(3.30351 2.01834 0)
(4.34357 1.7359 0)
(5.1434 1.52712 5.15588e-20)
(5.63032 1.28178 -4.54988e-21)
(5.84565 1.04407 -9.57606e-20)
(5.90027 0.812031 0)
(5.89886 0.617316 -6.49971e-20)
(5.89801 0.473446 0)
(5.90851 0.375954 -1.41936e-19)
(5.92424 0.311281 4.42801e-19)
(5.93876 0.26712 5.48622e-19)
(5.94675 0.233915 -3.73321e-19)
(5.95089 0.20877 0)
(5.43498 0.485316 -1.74711e-21)
(5.38403 0.493386 -1.41929e-20)
(5.31456 0.496039 -1.38543e-19)
(5.25858 0.491977 -2.30214e-19)
(5.18721 0.484321 2.42531e-19)
(5.12213 0.472409 -6.19831e-20)
(5.04263 0.457497 -3.70365e-20)
(4.96199 0.442215 -1.37345e-20)
(4.86505 0.428573 -1.29926e-21)
(4.75848 0.418889 9.39528e-20)
(4.62979 0.416264 6.91757e-20)
(4.4794 0.426265 1.33934e-19)
(4.2951 0.460137 -1.95616e-19)
(4.07179 0.533659 0)
(3.79821 0.670036 0)
(3.47243 0.888136 0)
(3.10849 1.20676 -6.37329e-21)
(2.74868 1.61595 -2.18589e-19)
(2.27502 2.06163 7.4e-19)
(1.73801 2.57563 2.69421e-18)
(1.30306 3.00846 0)
(0.72842 3.27918 2.52993e-18)
(0.317157 3.43244 3.85694e-18)
(0.0923171 3.38861 -4.45976e-18)
(0.106651 3.24021 4.06887e-19)
(0.446153 2.957 0)
(0.927565 2.63731 -1.77744e-18)
(1.84623 2.25292 0)
(2.74589 1.90293 0)
(3.92522 1.59208 -9.46164e-19)
(4.73886 1.39695 5.39464e-19)
(5.32798 1.11588 0)
(5.59546 0.917464 1.05371e-19)
(5.70029 0.677059 -1.6337e-20)
(5.73677 0.513482 6.96467e-20)
(5.77639 0.3882 0)
(5.81368 0.314551 -1.44996e-19)
(5.85422 0.263898 -1.79749e-19)
(5.88365 0.233629 0)
(5.90311 0.211036 0)
(5.91374 0.196872 2.91224e-19)
(5.45303 0.554523 0)
(5.41568 0.562274 5.32081e-19)
(5.31227 0.570442 -7.86314e-19)
(5.26859 0.570956 1.90662e-19)
(5.16529 0.567828 2.71943e-19)
(5.10968 0.563956 -2.86646e-19)
(5.00383 0.55657 1.29737e-19)
(4.92961 0.550854 -7.49699e-20)
(4.81354 0.548956 -1.25948e-20)
(4.71271 0.552315 -8.66317e-21)
(4.57489 0.572425 -3.69967e-20)
(4.43484 0.604615 1.28573e-19)
(4.25642 0.677547 -1.32217e-19)
(4.05893 0.784618 -9.60406e-20)
(3.81474 0.966492 0)
(3.53815 1.20989 1.40547e-20)
(3.20966 1.5341 -3.00807e-19)
(2.84605 1.9457 -4.0698e-19)
(2.43515 2.32351 -7.53651e-19)
(1.85762 2.83264 -1.45454e-18)
(1.44265 3.16334 -3.07461e-20)
(0.726648 3.41967 -3.31849e-19)
(0.338905 3.4898 -7.15863e-18)
(-0.0326859 3.40576 3.77563e-18)
(-0.0972642 3.2078 0)
(0.146306 2.84626 -1.79758e-18)
(0.474635 2.51008 0)
(1.494 1.96647 -3.07698e-19)
(2.21647 1.66461 -4.99994e-19)
(3.68281 1.29299 1.49497e-18)
(4.33219 1.15885 -5.76382e-19)
(5.14808 0.84594 7.20138e-19)
(5.38845 0.732329 0)
(5.57379 0.476672 1.03407e-19)
(5.62861 0.385867 2.19808e-19)
(5.71271 0.269013 -2.18818e-19)
(5.75479 0.231965 0)
(5.8244 0.198706 0)
(5.85464 0.187513 -3.4226e-19)
(5.88814 0.181512 -3.66762e-19)
(5.89972 0.178379 -3.18235e-19)
(5.90312 0.172793 1.05416e-18)
(5.91396 0.18127 -3.10047e-19)
(5.94316 0.18674 7.24043e-19)
(5.98835 0.180038 -5.88168e-19)
(6.04045 0.155775 0)
(6.08812 0.112354 0)
(6.12147 0.053217 -1.87761e-19)
(6.135 -0.0140638 7.47256e-19)
(6.12857 -0.0811454 3.64243e-19)
(6.10558 -0.142418 -1.80523e-19)
(6.06927 -0.193226 -1.59288e-19)
(6.00631 -0.219363 3.09388e-19)
(5.88824 -0.205543 -1.494e-19)
(5.7198 -0.148074 0)
(5.52996 -0.0555705 -1.27349e-19)
(5.26844 0.039866 -3.99772e-19)
(4.6044 0.126797 -3.08984e-19)
(5.90188 0.169013 -1.16002e-18)
(5.9108 0.170466 3.43214e-19)
(5.93286 0.171626 -7.66177e-19)
(5.9672 0.165499 9.63565e-19)
(6.00875 0.14722 -2.18757e-19)
(6.04941 0.114886 2.10432e-19)
(6.08191 0.069737 0)
(6.10162 0.0163179 -6.17913e-19)
(6.10717 -0.0396513 6.16875e-19)
(6.09931 -0.0922439 -8.08182e-19)
(6.07841 -0.136173 0)
(6.04057 -0.167616 0)
(5.98084 -0.177092 1.62437e-19)
(5.87912 -0.153112 -1.6488e-19)
(5.70592 -0.0805836 5.03936e-19)
(5.41325 -0.0207943 1.00344e-18)
(4.6403 0.0844213 -2.35949e-19)
(5.89517 0.166209 8.81418e-19)
(5.90403 0.162558 -1.10177e-18)
(5.92229 0.159929 3.01546e-19)
(5.94889 0.153423 -1.6304e-18)
(5.98184 0.13905 5.06256e-19)
(6.01632 0.114853 0)
(6.0471 0.0808974 0)
(6.07047 0.0394121 -9.15917e-19)
(6.08428 -0.00530034 -9.04895e-19)
(6.08745 -0.0495814 8.86317e-19)
(6.07951 -0.0909461 -6.64382e-19)
(6.06339 -0.123898 -4.21219e-19)
(6.0369 -0.137363 1.04439e-18)
(5.9756 -0.12781 0)
(5.83191 -0.0786936 0)
(5.51827 -0.0277786 -9.40351e-19)
(4.66777 0.0953216 5.53395e-19)
(5.89098 0.163747 0)
(5.89755 0.15689 1.20483e-18)
(5.91248 0.150642 -1.41369e-18)
(5.93376 0.142399 6.37655e-19)
(5.96011 0.129852 -2.7443e-19)
(5.98913 0.110896 2.67745e-19)
(6.01753 0.0846697 2.70251e-22)
(6.04236 0.0521976 5.10357e-19)
(6.0611 0.0161533 2.48243e-19)
(6.07196 -0.0211623 -2.43612e-19)
(6.07375 -0.0564585 1.20331e-18)
(6.0696 -0.0852883 0)
(6.06136 -0.104442 -7.93955e-19)
(6.03618 -0.109339 -5.79001e-19)
(5.94099 -0.081208 1.0229e-19)
(5.63489 -0.0401862 -2.00543e-19)
(4.70161 0.0902439 -2.74242e-19)
(5.87991 0.160868 0)
(5.88769 0.15175 8.90117e-19)
(5.90099 0.143451 1.172e-18)
(5.91888 0.13392 -1.06746e-18)
(5.94071 0.122027 -6.43366e-19)
(5.96538 0.106114 -2.98771e-19)
(5.99114 0.0850806 2.87891e-19)
(6.01583 0.0593678 0)
(6.03691 0.0303973 0)
(6.052 0.000295939 5.37113e-19)
(6.06075 -0.0289332 5.32902e-19)
(6.0656 -0.0554185 2.62199e-19)
(6.06554 -0.0753859 -3.92731e-19)
(6.0579 -0.0859028 6.30844e-19)
(6.00423 -0.0743597 1.2142e-19)
(5.7366 -0.0449091 -1.65903e-19)
(4.73454 0.0765313 0)
(5.8742 0.158572 -5.73802e-19)
(5.87982 0.147837 -1.48126e-18)
(5.89047 0.138044 -1.53893e-18)
(5.90496 0.127663 4.07389e-19)
(5.92294 0.116017 3.55727e-19)
(5.94387 0.101964 -1.01362e-18)
(5.96678 0.0845435 0)
(5.99017 0.0637851 6.1682e-19)
(6.0118 0.0403746 3.0127e-19)
(6.02913 0.0156807 -1.47812e-18)
(6.04164 -0.00909879 -5.84649e-19)
(6.0522 -0.0325928 0)
(6.06315 -0.0520385 0)
(6.06353 -0.0656029 0)
(6.03401 -0.0647187 -5.678e-19)
(5.80757 -0.0446633 5.62092e-19)
(4.76647 0.0519104 -3.36092e-20)
(5.85954 0.155319 -9.20127e-19)
(5.86677 0.143909 1.36541e-18)
(5.87691 0.133395 -2.49416e-19)
(5.88975 0.122642 4.49722e-19)
(5.90538 0.111274 1.61798e-18)
(5.92366 0.0984579 3.71746e-19)
(5.94406 0.0834309 0)
(5.96558 0.0660376 -1.36912e-18)
(5.98651 0.0465909 -3.32505e-19)
(6.00477 0.0257994 1.94938e-18)
(6.01942 0.00481799 -4.79649e-19)
(6.03278 -0.0156505 1.5822e-19)
(6.0492 -0.0340785 1.57102e-19)
(6.06238 -0.0479288 -3.16396e-22)
(6.04419 -0.0529765 4.55268e-19)
(5.84843 -0.0407906 0)
(4.79899 0.0271357 0)
(5.85386 0.153143 3.72001e-19)
(5.85861 0.140882 0)
(5.86626 0.12956 0)
(5.87639 0.118349 0)
(5.88931 0.107104 0)
(5.90493 0.0951138 8.34319e-19)
(5.92282 0.081714 -3.98456e-19)
(5.94213 0.0667128 1.13778e-18)
(5.96152 0.0502013 -3.66253e-19)
(5.97946 0.0325252 -7.14289e-19)
(5.99532 0.0144459 -5.21074e-19)
(6.01069 -0.00348928 6.03078e-22)
(6.03018 -0.0203842 -1.69827e-19)
(6.05306 -0.0343695 6.70405e-19)
(6.04097 -0.0427313 6.64336e-19)
(5.86554 -0.0366072 -6.61426e-19)
(4.83473 0.00381624 0)
(5.83573 0.149932 -3.44639e-19)
(5.84138 0.137816 0)
(5.84956 0.126217 5.82134e-19)
(5.85974 0.114867 5.33593e-19)
(5.872 0.103714 0)
(5.88629 0.0922413 -4.65623e-19)
(5.90235 0.0799407 -2.18435e-19)
(5.91961 0.0666564 -2.06707e-19)
(5.93711 0.0523535 -6.01636e-19)
(5.95386 0.0371512 1.9478e-19)
(5.96983 0.0213748 1.13988e-18)
(5.98654 0.00547804 0)
(6.00759 -0.00997415 0)
(6.03523 -0.0235112 -6.3015e-19)
(6.02833 -0.0339394 -7.98647e-19)
(5.86785 -0.0327709 1.40784e-18)
(4.8797 -0.0141188 7.07115e-19)
(5.83145 0.147792 1.19325e-18)
(5.83429 0.135102 -1.03938e-18)
(5.83946 0.123198 -6.43352e-19)
(5.84688 0.111722 -2.97053e-19)
(5.85667 0.100703 0)
(5.86868 0.089677 -5.07141e-19)
(5.88257 0.0782169 -4.78774e-19)
(5.89771 0.0662091 6.86874e-19)
(5.91324 0.0535647 8.8096e-19)
(5.92846 0.0402925 -4.24081e-19)
(5.94377 0.0265052 -2.07253e-19)
(5.96092 0.0125284 -3.97696e-19)
(5.98232 -0.00148257 -1.95845e-19)
(6.01032 -0.0146475 1.90826e-19)
(6.00795 -0.0267916 3.7532e-19)
(5.85984 -0.027099 -1.11886e-18)
(4.93569 -0.0249313 -7.44692e-19)
(5.80887 0.144934 0)
(5.81338 0.132711 7.69551e-19)
(5.82049 0.12091 0)
(5.8292 0.109496 3.19335e-19)
(5.83919 0.098536 -5.97556e-19)
(5.85049 0.0876548 1.12099e-18)
(5.86304 0.0766466 5.27862e-19)
(5.87642 0.0654997 -1.24795e-18)
(5.89 0.054066 -7.11465e-19)
(5.90356 0.0422927 6.82246e-19)
(5.91783 0.0301962 0)
(5.93464 0.0178932 4.27854e-19)
(5.95543 0.0050945 -4.10607e-19)
(5.98126 -0.00719353 -5.02521e-19)
(5.982 -0.0203012 9.43628e-20)
(5.84637 -0.0211388 3.92672e-19)
(4.99659 -0.0326316 0)
(5.80437 0.142534 2.00751e-20)
(5.80592 0.129976 8.00707e-19)
(5.8101 0.118327 -3.64818e-19)
(5.81621 0.107225 0)
(5.82399 0.0965904 -6.35573e-19)
(5.83334 0.0860346 3.01355e-19)
(5.84396 0.0754696 2.82682e-19)
(5.85531 0.0649417 -5.25988e-19)
(5.86693 0.0543527 2.64407e-19)
(5.87892 0.0437169 -4.89988e-19)
(5.89216 0.0329344 -4.61501e-19)
(5.90826 0.0219553 1.12545e-19)
(5.92772 0.0102868 3.29534e-19)
(5.95089 -0.000873021 3.19718e-19)
(5.95386 -0.0143315 -3.6552e-19)
(5.82959 -0.0149768 5.0495e-20)
(5.05424 -0.0366495 0)
(5.78161 0.141273 6.7317e-19)
(5.78632 0.129103 -8.55903e-19)
(5.79244 0.117386 3.96541e-19)
(5.79935 0.106258 3.61224e-19)
(5.80702 0.0956049 -6.66102e-19)
(5.81546 0.0851211 3.17863e-19)
(5.82452 0.0748098 4.6985e-21)
(5.83398 0.064712 2.88616e-19)
(5.84383 0.0547421 5.45903e-19)
(5.85447 0.0448558 -2.55147e-19)
(5.86673 0.0349095 4.93017e-19)
(5.88182 0.0249185 0)
(5.89986 0.014297 3.33564e-19)
(5.92061 0.00428896 1.09251e-19)
(5.92442 -0.00871177 0)
(5.80747 -0.00971104 0)
(5.10223 -0.0374479 4.11011e-19)
(5.77504 0.1387 -7.24811e-19)
(5.77597 0.126924 -4.2438e-19)
(5.77961 0.116071 5.98514e-19)
(5.78461 0.105533 0)
(5.79049 0.0951484 3.57698e-19)
(5.79713 0.0848587 7.15132e-21)
(5.80436 0.0747913 3.15273e-19)
(5.8121 0.0649884 -2.93049e-19)
(5.82048 0.0553708 4.21076e-19)
(5.82998 0.045912 -1.32005e-19)
(5.84124 0.0365225 0)
(5.85506 0.0271683 3.59324e-19)
(5.87177 0.0172822 -5.87619e-19)
(5.88944 0.00808289 0)
(5.8917 -0.00429063 5.48483e-20)
(5.77907 -0.00528765 -5.28623e-20)
(5.13966 -0.0366456 -4.26108e-19)
(5.75393 0.139175 7.31157e-19)
(5.75863 0.127423 2.38434e-19)
(5.76352 0.116399 -4.31623e-19)
(5.76807 0.105816 -5.67504e-19)
(5.77263 0.0953536 1.80069e-19)
(5.77767 0.0851078 1.68563e-20)
(5.78336 0.0752778 0)
(5.78965 0.0657363 0)
(5.79674 0.0563358 -1.41829e-19)
(5.80508 0.0471136 1.34217e-19)
(5.81522 0.0380816 0)
(5.82758 0.0290098 -2.50105e-19)
(5.84256 0.019737 1.12028e-19)
(5.85684 0.010768 5.60602e-20)
(5.85692 -0.000771027 2.70579e-19)
(5.74762 -0.00187234 0)
(5.16743 -0.0349449 2.07379e-19)
(5.74577 0.137121 -9.82953e-22)
(5.74662 0.12667 4.60854e-19)
(5.7489 0.116769 -2.2284e-19)
(5.75135 0.10665 2.05461e-19)
(5.75409 0.0963018 3.5561e-19)
(5.75743 0.0860592 3.46789e-19)
(5.76156 0.0762896 -1.52567e-19)
(5.76647 0.0668893 0)
(5.77229 0.0576271 1.41319e-19)
(5.77941 0.0484971 -1.33396e-19)
(5.78821 0.0396326 -1.28154e-19)
(5.79897 0.0305978 1.2149e-19)
(5.8118 0.0221756 -7.27852e-20)
(5.82345 0.0126075 2.74325e-19)
(5.82179 0.00274663 -2.23068e-19)
(5.71405 0.00029738 -1.33815e-20)
(5.18562 -0.03294 -1.9987e-19)
(5.72691 0.13938 0)
(5.73045 0.128455 -2.20265e-19)
(5.73232 0.118039 -2.15343e-19)
(5.73359 0.107922 0)
(5.73503 0.0978292 -1.83933e-19)
(5.73689 0.0877213 0)
(5.73933 0.0778141 3.0788e-19)
(5.74265 0.0683063 0)
(5.74704 0.0591067 0)
(5.75273 0.0500433 0)
(5.75996 0.0411138 -5.52769e-20)
(5.76895 0.0319759 -5.84687e-20)
(5.77959 0.0239932 -1.26546e-19)