/*--------------------------------*- C++ -*----------------------------------*\
  =========                 |
  \\      /  F ield         | OpenFOAM: The Open Source CFD Toolbox
   \\    /   O peration     | Website:  https://openfoam.org
    \\  /    A nd           | Version:  6
     \\/     M anipulation  |
\*---------------------------------------------------------------------------*/
FoamFile
{
    version     2.0;
    format      ascii;
    class       surfaceVectorField;
    location    "1.99";
    object      rhoUf;
}
// * * * * * * * * * * * * * * * * * * * * * * * * * * * * * * * * * * * * * //

dimensions      [1 -2 -1 0 0 0 0];

internalField   nonuniform List<vector> 
11670
(
(-0.00138298 5.59587e-05 0.000875192)
(-0.00142416 0.000189853 0.000195848)
(-0.00217018 -6.67614e-05 0.000847347)
(-0.00136629 0.00049075 0.00114888)
(-5.35815e-17 2.6746e-18 1.70456e-17)
(-1.1522e-16 6.95225e-18 2.06371e-17)
(-5.86464e-17 5.50063e-19 7.12109e-18)
(-5.3091e-17 -1.93953e-18 2.67953e-17)
(-0.0013781 -0.000240863 -0.00105101)
(-0.00137293 -0.000164342 -0.000429243)
(-0.00218215 -0.000303612 -0.000989881)
(-0.00127219 2.99526e-06 -0.0012386)
(-7.36545e-05 -9.26103e-06 4.51245e-05)
(-7.24884e-05 -9.45049e-06 2.13992e-05)
(-0.000115338 -1.54774e-05 4.08613e-05)
(-7.03495e-05 -4.10062e-06 4.79073e-05)
(-2.47225e-17 9.4557e-19 -1.41477e-17)
(-2.72861e-17 3.79477e-18 -9.21128e-18)
(-4.27405e-17 4.11337e-18 -1.32501e-17)
(-2.74576e-17 5.98404e-18 -2.03767e-17)
(-1.66728e-10 -3.957e-11 -1.14216e-10)
(-1.58588e-10 -3.82398e-11 -6.46587e-11)
(-2.58194e-10 -6.94174e-11 -9.08812e-11)
(-1.44676e-10 -3.984e-11 -1.01701e-10)
(-5.1138e-16 -2.4932e-17 1.95838e-16)
(-1.02266e-15 2.541e-17 2.36297e-16)
(-5.31953e-16 -4.5885e-17 8.93344e-17)
(-4.93633e-16 -1.37472e-17 2.6208e-16)
(-6.78727e-07 -2.16719e-07 4.40206e-07)
(-6.6267e-07 -2.06802e-07 2.18808e-07)
(-1.04761e-06 -3.50301e-07 3.43982e-07)
(-5.81948e-07 -1.99579e-07 3.79175e-07)
(-8.74593e-13 2.4025e-13 3.34604e-13)
(-8.91617e-13 2.19632e-13 1.1145e-13)
(-1.50848e-12 3.40895e-13 2.75221e-13)
(-8.38845e-13 2.48001e-13 3.7594e-13)
(-1.00379e-12 1.96802e-13 6.44653e-13)
(-9.68492e-13 1.8086e-13 2.62234e-13)
(-1.57786e-12 3.28183e-13 5.26064e-13)
(-9.498e-13 8.31607e-14 6.31214e-13)
(-1.3109e-14 -2.16989e-15 9.17164e-15)
(-1.21785e-14 -2.61803e-15 4.88547e-15)
(-2.06986e-14 -3.46266e-15 7.40195e-15)
(-1.22145e-14 -1.73376e-15 8.5977e-15)
(-0.000911409 -0.000523158 0.000176095)
(-0.000145077 -0.000300489 2.35583e-06)
(-4.49228e-05 -0.000281739 0.000200581)
(-6.4928e-05 -0.000307295 0.00032733)
(-9.01046e-18 9.94308e-18 -4.33542e-18)
(-1.56243e-18 -1.33158e-19 -1.39482e-18)
(-3.1832e-18 1.83903e-18 -4.66086e-18)
(-2.45315e-18 1.98663e-18 -2.38636e-18)
(-3.42083e-18 7.63836e-19 3.31438e-18)
(-8.55839e-18 1.12719e-17 2.42503e-18)
(-2.63899e-18 2.33036e-18 3.50612e-18)
(-3.48448e-18 2.31836e-18 4.32987e-18)
(-0.000550773 -0.000331834 -0.000332153)
(-0.00128799 -0.000657541 -0.00035761)
(-0.000415687 -0.000441708 -0.000600171)
(-0.000288973 -0.000285562 -0.00047845)
(-7.82872e-19 5.70658e-19 -5.38546e-19)
(-2.10051e-18 1.83991e-18 -1.01035e-18)
(-8.27143e-19 6.7931e-19 -1.28593e-18)
(-6.72356e-19 9.77719e-19 -5.13587e-19)
(-0.00273905 0.00138161 -0.00179969)
(-0.00124307 0.00147295 -0.000110306)
(-0.000310053 0.00281404 -0.0021587)
(-0.000238067 0.00215952 -0.00267901)
(-0.00284263 -0.00128996 0.0013297)
(-0.00112341 -0.0015905 3.49923e-05)
(-3.73142e-05 -0.00233038 0.00214679)
(-4.53925e-05 -0.00239187 0.00146829)
(-3.48663e-18 -3.56619e-18 -2.12339e-18)
(-9.3923e-19 -1.16182e-18 -1.47676e-18)
(-4.05249e-20 -3.02064e-19 -2.34295e-18)
(-9.00997e-20 -5.65673e-19 -1.7313e-18)
(-4.94085e-21 6.06469e-19 4.00063e-19)
(-1.2458e-18 1.85571e-18 7.47545e-19)
(-1.6024e-19 6.05611e-19 6.19706e-19)
(-1.74683e-19 3.09752e-19 8.45607e-19)
(-0.00222983 -0.00124928 -0.00018105)
(-0.00402096 -0.000859044 -0.00080035)
(-0.00148159 -0.00211403 -0.00177215)
(-0.00116931 -0.00144637 -0.00253849)
(-5.26836e-19 -5.00701e-19 1.72785e-19)
(6.85556e-20 4.21044e-20 7.07556e-20)
(-1.38146e-20 -1.65013e-19 1.00422e-19)
(-2.36482e-20 -1.20391e-19 1.80581e-19)
(-0.00173033 0.000721773 -0.00053096)
(-0.00337752 0.00119121 -2.53231e-05)
(-0.000457805 0.0020466 0.00126628)
(-0.000614723 0.0022761 0.000512325)
(-0.0009787 0.00046873 -0.000258348)
(-0.000176684 0.000276915 3.72752e-05)
(-0.000129037 0.000391245 -0.000325909)
(-9.58508e-05 0.000352573 -0.000239136)
(-4.42729e-20 1.23212e-20 -4.2443e-19)
(-8.26159e-19 -7.20364e-19 -6.19736e-19)
(-3.02689e-19 -4.91763e-19 -1.78602e-19)
(-2.27115e-19 -2.39473e-19 -4.28925e-19)
(-4.93806e-18 -4.81531e-18 1.09107e-18)
(-8.64281e-19 -5.53119e-19 1.47074e-18)
(-1.16347e-18 -1.04312e-18 9.41118e-19)
(-1.73613e-18 -1.33388e-18 1.61885e-18)
(-0.000619963 0.000349108 0.00020357)
(-0.00146495 0.000669813 0.000147365)
(-0.00033556 0.000349682 0.000336485)
(-0.000506282 0.000540568 0.000462554)
(-2.66294e-17 1.74594e-17 -6.28174e-18)
(-5.34372e-17 5.94054e-17 -4.22793e-17)
(-1.22866e-17 1.8008e-17 -2.42851e-17)
(-1.06548e-17 2.10984e-17 -1.30332e-17)
(-4.17097e-05 -1.53009e-05 2.59057e-05)
(-0.000291048 -0.000215017 6.47999e-05)
(-3.90219e-05 -5.6908e-05 7.9985e-05)
(-4.51396e-05 -5.20009e-05 0.000104052)
(-9.68765e-17 6.67435e-17 5.2591e-18)
(-2.32082e-17 4.48172e-18 3.96723e-17)
(-2.39067e-17 1.9901e-17 3.08311e-17)
(-3.58284e-17 2.80204e-17 4.45728e-17)
(-3.75288e-06 -1.25496e-06 1.81471e-06)
(-3.43921e-05 -2.64254e-05 1.12892e-05)
(-4.80252e-06 -6.62744e-06 9.2968e-06)
(-5.63045e-06 -6.08214e-06 1.30238e-05)
(-3.45144e-16 7.90713e-17 -1.35058e-16)
(-5.06235e-16 7.7261e-16 -3.81239e-16)
(-1.54047e-16 1.20397e-16 -1.98724e-16)
(-1.37896e-16 1.8489e-16 -1.25703e-16)
(-1.36808e-15 8.83018e-16 2.8268e-16)
(-3.04309e-16 -9.76612e-17 2.7256e-16)
(-2.98983e-16 2.1514e-16 2.77797e-16)
(-4.49051e-16 2.0903e-16 4.82987e-16)
(-3.46774e-06 -2.56755e-06 -4.6057e-07)
(-1.98596e-07 -4.25555e-08 -3.66072e-07)
(-5.25681e-07 -4.98121e-07 -1.30644e-06)
(-3.82244e-07 -6.15526e-07 -7.23737e-07)
(-1.82042e-06 -5.52065e-07 9.55926e-07)
(-4.15225e-06 -3.39299e-06 1.92345e-06)
(-1.14606e-06 -1.03923e-06 9.26303e-07)
(-1.56006e-06 -9.96812e-07 1.61046e-06)
(-3.50424e-15 9.34051e-16 3.05129e-15)
(-8.3872e-15 6.98108e-15 1.26175e-15)
(-2.25404e-15 1.65207e-15 2.43494e-15)
(-3.27496e-15 2.16113e-15 3.18236e-15)
(-6.31815e-15 4.84882e-15 -2.37568e-15)
(-4.92855e-16 1.10165e-16 2.61426e-16)
(-1.33459e-15 7.52364e-16 -2.42233e-15)
(-1.07662e-15 1.0758e-15 -1.17322e-15)
(-4.75244e-15 1.18818e-15 -1.48644e-14)
(-3.68755e-14 3.51192e-14 -2.87493e-15)
(-9.05535e-15 8.94207e-15 -2.0652e-14)
(-5.73154e-15 6.43928e-15 -1.5358e-14)
(-1.15708e-07 -7.8759e-08 -8.85114e-08)
(-2.15158e-07 -2.73918e-07 -1.68439e-07)
(-3.70601e-08 -7.97579e-08 -1.12809e-07)
(-3.30777e-08 -9.5835e-08 -7.74514e-08)
(-4.88552e-07 -3.8521e-07 -3.32456e-08)
(-1.22748e-07 -9.2434e-09 9.4822e-08)
(-1.17097e-07 -6.99931e-08 1.02847e-07)
(-1.86818e-07 -1.18328e-07 1.57773e-07)
(-3.08648e-13 3.01942e-13 -1.89885e-13)
(-1.37387e-13 7.40749e-14 -1.34478e-13)
(-2.10078e-14 4.96341e-14 -2.05998e-13)
(-2.12463e-14 5.75822e-14 -1.60571e-13)
(-5.39437e-08 -3.54367e-08 -5.52559e-09)
(-1.09831e-08 -6.17368e-10 -1.60333e-08)
(-1.71966e-08 -1.15379e-08 -2.28489e-08)
(-1.22815e-08 -8.48946e-09 -1.57564e-08)
(-4.16467e-13 4.08405e-13 7.38035e-14)
(-1.27796e-13 -1.45415e-14 1.06048e-13)
(-1.14893e-13 8.11269e-14 8.28928e-14)
(-1.61495e-13 9.93232e-14 1.52141e-13)
(-1.16702e-08 -8.96122e-09 6.8612e-09)
(-3.75307e-08 -3.40029e-08 2.1476e-08)
(-3.46418e-09 -1.17891e-08 7.21125e-09)
(-3.82956e-09 -7.35111e-09 1.47082e-08)
(-7.58011e-13 1.91944e-13 8.60654e-13)
(-2.56806e-12 1.9755e-12 5.28054e-13)
(-5.85159e-13 5.31676e-13 7.25072e-13)
(-7.37485e-13 5.07788e-13 8.8891e-13)
(-6.5371e-09 -5.51659e-09 -4.02734e-10)
(-7.59126e-10 6.75126e-10 -1.92555e-09)
(-1.37804e-09 -8.16123e-10 -2.8766e-09)
(-9.9439e-10 -1.03385e-09 -1.76434e-09)
(-2.53204e-12 1.75757e-12 -8.6584e-13)
(-2.2968e-13 8.1795e-14 -2.28221e-13)
(-5.96618e-13 3.866e-13 -1.00904e-12)
(-4.71138e-13 4.76494e-13 -5.2017e-13)
(-2.71289e-09 -5.41063e-10 6.11344e-10)
(-4.45117e-09 -6.19859e-09 4.48107e-09)
(-1.70982e-09 -1.99884e-09 9.09744e-10)
(-2.13107e-09 -1.54831e-09 1.81243e-09)
(-4.38025e-12 -2.47567e-12 -4.22216e-12)
(-1.25252e-11 -7.27326e-12 -5.27889e-12)
(-1.70411e-13 -2.45206e-12 -6.13454e-12)
(-2.24706e-13 -2.75209e-12 -4.76882e-12)
(-4.71228e-10 4.3771e-10 2.25147e-10)
(-2.10975e-11 5.63361e-11 2.71536e-11)
(-3.68701e-11 7.0748e-11 1.02569e-10)
(-4.60402e-11 2.9075e-11 2.41594e-10)
(-4.24432e-12 -4.08948e-13 2.94972e-12)
(-1.61566e-11 -1.03137e-11 2.44337e-12)
(-3.78137e-12 -2.80098e-12 2.48822e-12)
(-5.19655e-12 -2.95456e-12 4.9103e-12)
(-3.05359e-10 1.42319e-10 -2.59178e-10)
(-6.29209e-10 5.91511e-10 -1.4813e-10)
(-2.70173e-10 1.91361e-10 -3.0008e-10)
(-1.78187e-10 1.21937e-10 -2.43686e-10)
(-3.98848e-11 -1.63627e-11 1.52528e-11)
(-9.87206e-11 -1.12318e-10 7.60049e-11)
(-1.62268e-11 -4.25172e-11 1.4193e-11)
(-1.66854e-11 -2.48396e-11 3.20738e-11)
(-1.61921e-10 -1.0783e-10 5.59809e-12)
(-4.3104e-11 7.99007e-12 -3.64512e-11)
(-6.18641e-11 -3.15682e-11 -5.39423e-11)
(-4.34388e-11 -2.35912e-11 -3.79768e-11)
(-1.01003e-10 1.08068e-10 5.0971e-11)
(-1.44968e-11 -2.45841e-12 3.46228e-12)
(-1.77947e-11 2.11237e-11 3.08454e-11)
(-2.12292e-11 1.75103e-11 4.43608e-11)
(-1.03726e-11 9.1389e-12 4.78498e-12)
(-1.51557e-12 2.58056e-12 1.88941e-12)
(2.75685e-13 2.33965e-12 9.07918e-13)
(2.77718e-13 6.01978e-13 4.84337e-12)
(-8.58715e-11 -1.4333e-10 -9.48081e-11)
(-5.05759e-10 -4.11581e-10 -2.40227e-10)
(-1.34822e-11 -3.62666e-11 -2.4409e-10)
(-6.05685e-12 -9.91255e-11 -8.62379e-11)
(-1.59276e-11 1.44108e-11 -4.35559e-12)
(-4.39977e-12 1.96211e-12 -4.46989e-12)
(-7.7182e-12 5.95213e-12 -7.93413e-12)
(-5.07596e-12 4.17591e-12 -5.23453e-12)
(-1.35452e-10 -1.11562e-10 2.44044e-10)
(-5.4301e-10 -5.03855e-10 1.6043e-10)
(-1.65317e-10 -1.69533e-10 2.5797e-10)
(-2.35256e-10 -2.53204e-10 3.41172e-10)
(-2.12462e-17 -1.93661e-17 -9.08317e-18)
(-1.89348e-18 1.02806e-19 2.07076e-18)
(-4.88041e-18 -2.01396e-18 -7.74038e-18)
(-3.93748e-18 -3.09543e-18 -3.60905e-18)
(-0.000190511 0.000121912 3.08562e-05)
(-1.29861e-05 2.7698e-05 1.90611e-05)
(-1.29077e-05 4.36899e-05 4.01605e-05)
(-1.51012e-05 3.84794e-05 6.79162e-05)
(-1.27207e-17 -4.77045e-18 1.1606e-17)
(-2.88927e-17 -2.86058e-17 4.11514e-18)
(-8.04092e-18 -6.00868e-18 9.39981e-18)
(-1.24356e-17 -9.59822e-18 1.16591e-17)
(-0.000123858 4.48592e-05 -6.21896e-05)
(-0.000302357 0.000187769 -9.52483e-05)
(-0.000113047 6.35765e-05 -0.000108936)
(-7.93527e-05 6.02953e-05 -6.60138e-05)
(-5.36996e-13 -2.46536e-13 -5.53154e-13)
(-1.3075e-12 -1.07225e-12 -6.77142e-13)
(-1.50965e-13 -2.17716e-13 -8.21923e-13)
(-1.48319e-13 -2.42447e-13 -6.73593e-13)
(-5.48283e-13 4.43628e-14 4.61175e-13)
(-1.81378e-12 -1.53963e-12 4.46388e-13)
(-5.08206e-13 -3.5999e-13 3.69623e-13)
(-6.75857e-13 -3.35276e-13 6.65713e-13)
(-3.06395e-09 1.46393e-09 -1.39518e-09)
(-5.39877e-09 5.87556e-09 -3.81291e-09)
(-2.59569e-09 2.20744e-09 -2.74168e-09)
(-1.81606e-09 1.95016e-09 -1.51601e-09)
(-4.66744e-09 4.13537e-09 2.55803e-10)
(-1.74259e-10 4.06047e-11 6.393e-10)
(-4.56534e-10 8.08754e-10 1.00782e-09)
(-6.89138e-10 5.85769e-10 1.9941e-09)
(-1.77584e-16 1.47642e-17 3.97107e-16)
(-1.21587e-15 -1.40561e-15 2.55158e-16)
(-1.71528e-16 -1.94888e-16 6.51319e-16)
(-2.02762e-16 -2.40074e-16 7.6602e-16)
(-2.35307e-06 1.82786e-06 7.81304e-07)
(-2.09028e-07 2.28497e-07 -3.56898e-07)
(-4.59372e-07 4.35631e-07 2.49933e-07)
(-5.49206e-07 3.2703e-07 7.64906e-07)
(-1.48267e-06 6.38418e-07 -1.47143e-06)
(-3.17348e-06 2.57103e-06 -3.33076e-07)
(-1.4359e-06 1.05848e-06 -1.35651e-06)
(-9.69227e-07 7.40328e-07 -1.0976e-06)
(-2.0685e-07 4.46753e-08 1.30223e-07)
(-3.7964e-07 3.82837e-07 2.16524e-07)
(-1.23924e-07 1.00228e-07 1.19864e-07)
(-1.67123e-07 9.9744e-08 1.83602e-07)
(-3.91507e-07 3.36858e-07 -3.88929e-08)
(-1.11222e-08 7.85057e-09 -6.4117e-08)
(-4.88322e-08 5.34834e-08 -1.72486e-07)
(-3.39726e-08 6.67736e-08 -9.57739e-08)
(-1.48806e-14 -1.20592e-14 5.27238e-15)
(-1.24577e-15 1.79295e-16 -1.42117e-15)
(-2.61746e-15 -2.52514e-15 2.13193e-15)
(-3.11162e-15 -1.54833e-15 5.43246e-15)
(-9.03883e-15 -2.33811e-15 -8.10713e-15)
(-2.00452e-14 -1.74045e-14 -3.26183e-15)
(-8.55456e-15 -5.54617e-15 -7.92753e-15)
(-5.99799e-15 -4.20748e-15 -6.32786e-15)
(-2.07979e-16 -1.59877e-16 -3.46601e-17)
(-9.20152e-18 -7.03242e-18 -3.17674e-17)
(-3.36098e-17 -3.24425e-17 -8.8418e-17)
(-2.55218e-17 -4.11651e-17 -5.17459e-17)
(-1.16427e-16 -4.99668e-17 5.56859e-17)
(-2.69798e-16 -2.22585e-16 1.32307e-16)
(-7.36602e-17 -7.42883e-17 5.89858e-17)
(-1.03654e-16 -7.598e-17 1.06872e-16)
(-9.39196e-06 3.3405e-06 1.93292e-06)
(-1.63491e-05 2.31604e-05 1.15384e-05)
(-3.74245e-06 7.31385e-06 1.72587e-06)
(-4.07885e-06 4.38517e-06 5.11827e-06)
(-3.65048e-05 2.55513e-05 -7.15773e-06)
(-9.50845e-06 -1.25792e-06 -7.62841e-06)
(-1.26035e-05 7.25419e-06 -1.33899e-05)
(-8.6775e-06 6.69912e-06 -8.12946e-06)
(-2.72455e-08 3.21678e-08 -1.71331e-08)
(-5.70456e-09 1.29206e-09 -4.35358e-09)
(-4.27091e-09 6.03642e-10 -1.46629e-08)
(-4.21333e-09 5.17757e-09 -5.32897e-09)
(-2.06893e-14 -1.33838e-14 -3.66684e-14)
(-1.01733e-13 -9.45802e-14 -5.90109e-14)
(-2.17684e-15 -5.56136e-15 -5.12785e-14)
(-4.00475e-15 -2.21268e-14 -2.76081e-14)
(-5.01236e-14 -6.10736e-15 5.00384e-14)
(-1.74924e-13 -1.72916e-13 3.81291e-14)
(-6.28501e-14 -4.58573e-14 5.54356e-14)
(-9.16127e-14 -6.26453e-14 8.69223e-14)
(-3.01043e-08 3.58775e-08 6.88598e-09)
(-9.60033e-09 -8.16656e-10 1.19428e-08)
(-1.1459e-08 7.40958e-09 1.30106e-08)
(-1.60626e-08 1.14933e-08 1.66023e-08)
(-4.84459e-17 3.49127e-18 5.80783e-18)
(-9.97045e-17 -1.20931e-18 2.23882e-17)
(-4.32021e-17 3.55211e-18 1.90265e-17)
(-0.00207746 -0.000156381 -0.000869188)
(-0.00119636 -0.000133017 -0.000387492)
(-0.00129288 -0.000307662 -0.000992915)
(-0.00202676 2.70673e-05 0.000792782)
(-0.00118034 6.99822e-05 0.000266126)
(-0.00122513 -5.28332e-05 0.00086579)
(-4.61677e-16 -3.30825e-17 6.03784e-17)
(-7.83285e-16 1.28474e-16 2.89119e-16)
(-4.13144e-16 -1.56049e-17 2.00483e-16)
(-3.8753e-17 5.46337e-18 -1.2528e-17)
(-1.52241e-17 5.37509e-18 -5.92392e-18)
(-2.00414e-17 3.38982e-18 -1.42864e-17)
(-2.63209e-10 -3.05238e-11 -9.65344e-11)
(-1.18325e-10 -1.28968e-11 -6.03426e-11)
(-1.49165e-10 -2.68163e-11 -1.09056e-10)
(-1.11773e-06 -2.9941e-07 3.42139e-07)
(-4.83545e-07 -9.52406e-08 2.26803e-07)
(-6.14391e-07 -1.83706e-07 4.16502e-07)
(-0.000111807 -8.61025e-06 3.52435e-05)
(-4.98989e-05 1.59717e-06 1.93065e-05)
(-6.26887e-05 -3.8407e-06 4.10071e-05)
(-1.35343e-12 2.2029e-13 3.75748e-13)
(-6.01198e-13 3.24746e-14 1.32321e-13)
(-7.29878e-13 1.41298e-13 3.70005e-13)
(-1.61188e-12 2.84317e-13 4.12983e-13)
(-6.35989e-13 3.48785e-14 3.06011e-13)
(-8.79966e-13 1.22665e-13 5.59192e-13)
(-2.12205e-14 -2.74804e-15 6.27217e-15)
(-9.06941e-15 -8.30078e-16 4.83326e-15)
(-1.15696e-14 -1.47099e-15 8.05278e-15)
(-3.5516e-07 2.91425e-08 -5.28097e-08)
(-1.88346e-07 1.15243e-08 -3.05833e-08)
(-2.05667e-07 -6.7251e-09 -1.01844e-07)
(-1.8503e-07 6.56466e-09 -1.02354e-07)
(-2.16606e-07 -6.47208e-10 6.36421e-08)
(-3.08287e-07 1.71149e-08 7.39685e-09)
(-1.96871e-07 3.94962e-09 3.67549e-08)
(-1.74341e-07 4.40451e-09 4.0192e-08)
(-1.8451e-10 -1.0904e-11 -1.39432e-11)
(-1.59747e-10 -4.10256e-12 -4.31623e-11)
(-1.89086e-10 -5.03039e-12 -4.64613e-11)
(-1.83279e-10 -9.16483e-12 -4.8024e-11)
(-1.03175e-16 -1.61167e-17 5.23753e-18)
(-8.46062e-17 -1.52325e-17 2.55787e-17)
(-1.03388e-16 -2.28993e-17 2.42139e-17)
(-1.00381e-16 -2.08612e-17 2.15169e-17)
(-7.18097e-16 -2.04111e-17 7.13714e-17)
(-6.05184e-16 -1.31227e-17 2.07618e-16)
(-7.30041e-16 -7.18122e-18 2.21149e-16)
(-6.88068e-16 -4.93726e-19 2.05759e-16)
(-0.000147141 -2.45493e-05 -9.60618e-06)
(-0.000142064 -2.99926e-05 -4.81809e-05)
(-0.000183236 -3.71316e-05 -4.97757e-05)
(-0.00013757 -2.4167e-05 -4.04069e-05)
(-2.09279e-08 -1.95582e-10 -5.29043e-10)
(-2.32797e-08 -1.96965e-09 4.49592e-09)
(-1.93395e-08 -2.68617e-09 2.90203e-09)
(-1.55502e-08 -2.26623e-09 3.63276e-09)
(-9.75088e-17 -2.11661e-17 -1.07903e-17)
(-1.03485e-16 -8.28478e-18 -2.6204e-17)
(-8.41481e-17 -9.5991e-18 -1.6627e-17)
(-7.46058e-17 -9.67951e-18 -2.44082e-17)
(-4.05538e-07 6.48429e-09 9.69262e-08)
(-2.44037e-07 2.63904e-08 1.00001e-07)
(-2.18539e-07 6.89232e-09 1.07459e-07)
(-7.82208e-10 7.70308e-11 -2.14595e-11)
(-6.90229e-10 5.68459e-11 -1.53622e-10)
(-8.22027e-10 8.23704e-11 -1.37861e-10)
(-8.02851e-10 9.37295e-11 -1.64956e-10)
(-2.69475e-12 -2.14551e-13 -2.07023e-13)
(-3.25343e-12 -3.89892e-13 -7.19965e-13)
(-3.04247e-12 -3.71421e-13 -6.84166e-13)
(-2.89119e-12 -3.72603e-13 -6.23999e-13)
(-0.00114858 -2.69723e-05 4.51407e-06)
(-0.00126843 -0.000111171 -9.015e-05)
(-0.00110852 -0.000141398 6.61363e-06)
(-0.00104312 -0.000104197 -9.91332e-05)
(-2.01615e-12 -1.02102e-13 2.39747e-13)
(-2.55784e-12 -9.52258e-14 8.89547e-14)
(-2.53455e-12 -2.92594e-13 -1.09266e-13)
(-2.04719e-09 -6.18252e-11 -4.24716e-10)
(-1.92893e-09 -9.04447e-11 -5.79985e-10)
(-2.36062e-09 -1.19372e-10 -7.48581e-10)
(-2.61815e-09 -3.04593e-12 -7.3934e-10)
(-0.00128772 5.94337e-05 0.000103297)
(-0.00115849 6.40407e-05 6.98813e-06)
(-0.00105394 5.42057e-05 0.000108452)
(-8.50221e-10 1.05954e-10 6.58334e-11)
(-7.95362e-10 7.22358e-11 9.03922e-11)
(-7.72729e-10 1.02101e-10 1.14035e-10)
(-2.56062e-08 1.80598e-09 -5.84193e-09)
(-2.11936e-08 1.71029e-09 -4.12468e-09)
(-1.78949e-08 1.63818e-09 -4.72227e-09)
(-6.72183e-16 -3.60601e-17 -9.44919e-17)
(-8.13309e-16 -3.55205e-17 -7.38082e-17)
(-8.03787e-16 -2.37865e-17 -5.20671e-17)
(-1.66694e-10 -1.59966e-11 2.53518e-11)
(-2.01868e-10 -2.08124e-11 1.8893e-11)
(-1.98214e-10 -1.78747e-11 1.819e-11)
(-0.00012531 -1.27773e-05 3.03458e-05)
(-0.000156311 -1.25479e-05 2.8123e-05)
(-0.000154829 -3.15681e-05 3.40971e-05)
(-1.2206e-16 -3.85435e-17 5.59206e-18)
(-1.05489e-16 -2.97285e-17 -1.25544e-17)
(-8.49196e-17 -3.15135e-17 2.41073e-18)
(-9.86144e-17 -1.06514e-17 -1.78807e-17)
(-1.17967e-16 -1.49438e-17 -1.49464e-17)
(-1.1526e-16 -1.26003e-17 -1.33712e-17)
(-1.04792e-09 7.89145e-11 -8.70294e-11)
(-1.04166e-09 1.05313e-10 -1.34129e-10)
(-9.02985e-10 1.09054e-10 -1.64194e-10)
(-1.00103e-09 1.24694e-10 -2.28696e-10)
(-1.01497e-09 9.25935e-11 -2.82262e-11)
(-8.91071e-10 5.30872e-11 2.66923e-11)
(-9.80451e-10 4.20516e-11 -5.94478e-11)
(-3.69328e-12 -8.88795e-13 -1.19008e-12)
(-3.75146e-12 -6.11833e-13 -7.78222e-13)
(-3.47152e-12 -4.33593e-13 -1.0407e-12)
(-3.49189e-12 -7.00968e-13 -1.20207e-12)
(-3.45659e-12 -7.27488e-13 -8.67178e-13)
(-3.05399e-12 -9.89998e-13 -1.12523e-12)
(-3.32736e-12 -1.64375e-12 -1.9218e-12)
(-0.000943599 -3.11283e-05 -1.06922e-06)
(-0.00106975 4.69169e-05 -7.25261e-05)
(-0.000781181 4.03705e-05 0.000198295)
(-0.000873665 3.00354e-05 5.71412e-05)
(-0.00099792 -0.000146264 9.53398e-05)
(-0.000790389 -9.9509e-05 -0.000195751)
(-0.000851228 -0.000115835 -4.70983e-05)
(-1.49703e-09 -5.18892e-11 8.98352e-11)
(-1.08042e-09 1.29314e-10 4.56152e-10)
(-1.37417e-09 4.9961e-11 2.79626e-10)
(-1.8106e-09 1.10618e-10 1.58313e-10)
(-1.75724e-09 -1.59557e-10 2.46494e-11)
(-1.26851e-09 -1.37335e-10 -2.99185e-10)
(-1.42598e-09 -1.62365e-10 -1.06699e-10)
(-5.78328e-17 -2.02671e-17 -1.20884e-17)
(-6.31252e-17 -1.15872e-17 -7.00796e-18)
(-4.37805e-17 -9.06162e-18 -2.68598e-17)
(-4.92963e-17 -1.10929e-17 -1.56285e-17)
(-8.85366e-17 -2.33924e-17 -2.4662e-17)
(-4.25239e-17 -2.58973e-17 8.64443e-18)
(-5.89291e-17 -2.78129e-17 -4.01831e-18)
(-9.79403e-16 2.51867e-17 1.03064e-16)
(-1.04101e-15 2.34415e-17 -1.93635e-17)
(-9.7225e-16 6.36e-17 7.24459e-18)
(-1.04368e-15 1.05676e-16 -3.12288e-17)
(-8.73027e-16 -2.8205e-17 2.08016e-16)
(-7.51294e-16 -3.1087e-17 1.77115e-16)
(-8.36138e-16 -6.66342e-17 1.72304e-16)
(-1.45084e-16 -2.26542e-17 1.12973e-18)
(-1.48881e-16 -2.09445e-17 -8.9265e-18)
(-1.36145e-16 -2.04909e-17 -8.24431e-18)
(-1.4587e-16 -2.3538e-17 -1.23299e-17)
(-1.30024e-16 -2.53875e-17 1.58526e-17)
(-1.17026e-16 -2.02223e-17 1.00685e-17)
(-1.27453e-16 -1.89374e-17 6.49279e-18)
(-1.18167e-08 -3.69509e-10 -8.76283e-10)
(-1.47759e-08 -2.48546e-09 7.11841e-10)
(-7.52539e-09 -2.40109e-09 3.98914e-09)
(-9.97635e-09 -1.96339e-09 1.68303e-09)
(-1.63213e-08 1.20303e-09 -2.64284e-09)
(-9.99263e-09 1.55896e-09 -5.51061e-09)
(-1.20171e-08 1.36282e-09 -3.49848e-09)
(-2.51719e-10 -2.8464e-11 -2.99516e-11)
(-2.27153e-10 -2.86768e-11 -5.29296e-11)
(-2.0356e-10 -4.15477e-11 -5.47695e-11)
(-2.22191e-10 -7.03727e-11 -6.13727e-11)
(-2.57511e-10 -1.75878e-11 6.49431e-12)
(-2.36631e-10 -7.50509e-12 5.83194e-12)
(-2.55938e-10 -5.35198e-12 1.66225e-11)
(-4.44955e-07 2.85121e-08 -1.49174e-08)
(-4.31552e-07 3.67629e-08 -5.02876e-08)
(-9.5423e-18 -1.0416e-18 3.91326e-18)
(-6.3198e-18 2.35558e-19 1.26759e-18)
(-1.61527e-17 5.82824e-19 3.48708e-18)
(-7.86575e-18 -2.90167e-19 4.07293e-18)
(-8.81258e-18 1.25045e-18 -3.78944e-18)
(-5.63492e-18 -3.04612e-20 -2.16298e-18)
(-1.60714e-17 1.33376e-18 -1.13408e-18)
(-7.63069e-18 6.69456e-19 -4.44883e-18)
(-0.0027329 5.83473e-05 -0.0012867)
(-0.00445501 0.000342436 -0.00108456)
(-0.0029324 -9.10183e-05 -0.000542787)
(-0.00246758 0.000705106 -0.00155001)
(-1.01358e-17 -3.52549e-19 -3.09553e-18)
(-6.27653e-18 -8.73197e-19 -1.30686e-18)
(-1.50589e-17 -9.73991e-19 -1.74644e-18)
(-8.10036e-18 -1.0779e-18 -4.24597e-18)
(-0.00270517 0.000383208 0.000870242)
(-0.00416874 -6.7121e-05 0.000711273)
(-0.00283708 0.000246359 0.000334706)
(-0.0023405 -0.000341362 0.00118759)
(-6.66347e-18 -9.24705e-19 3.24359e-18)
(-4.57614e-18 -3.66596e-19 9.57463e-19)
(-1.34002e-17 -8.46796e-19 1.93754e-18)
(-5.83604e-18 -7.52213e-19 3.34435e-18)
(-7.60342e-18 1.2806e-19 -1.89808e-18)
(-5.00944e-18 -7.91622e-19 -4.41691e-19)
(-1.35821e-17 -1.35603e-18 -9.96859e-19)
(-6.5755e-18 -5.47235e-19 -2.95573e-18)
(-6.5606e-18 -1.11905e-18 1.89412e-18)
(-4.70999e-18 6.45823e-21 7.95123e-19)
(-1.27735e-17 -1.35537e-18 1.10473e-18)
(-5.78447e-18 -3.37966e-19 2.75147e-18)
(-0.00260508 0.000128996 -0.00113271)
(-0.0043711 0.000349628 -0.000929098)
(-0.00255313 -3.8761e-05 -0.00048104)
(-0.0023383 0.000785166 -0.00148077)
(-0.00238013 -0.000111211 0.000944118)
(-0.00420523 -0.000373568 0.000848541)
(-0.00241146 4.99289e-05 0.000529724)
(-0.00215685 -0.000616483 0.00128667)
(-0.00254534 -0.000427995 0.00116069)
(-0.00410683 0.000125492 0.000922987)
(-0.00259839 -0.000278321 0.000460067)
(-0.00221387 0.000338745 0.00145479)
(-0.00298604 -0.000136832 -0.0011645)
(-0.00453057 -0.000187337 -0.00104177)
(-0.00284978 2.18676e-05 -0.000535201)
(-0.00263712 -0.000747209 -0.00147573)
(-0.00151052 -0.000284557 0.000557885)
(-0.00136439 -0.000221236 0.000221364)
(-0.00232664 -5.683e-05 0.000209041)
(-0.00120361 -5.47152e-05 0.000613188)
(-0.00170282 -7.20337e-07 -0.000624624)
(-0.00149663 -1.39989e-05 -0.000274311)
(-0.00250453 0.000124221 -0.000550346)
(-0.00141413 -0.000146608 -0.000739458)
(-9.25644e-17 -1.34011e-18 -4.5192e-17)
(-1.41314e-16 -3.95194e-18 -1.72514e-17)
(-6.92087e-17 -3.82078e-18 -1.95685e-17)
(-7.20177e-17 -4.00181e-18 -4.13014e-17)
(-6.97104e-17 -1.42936e-17 3.09974e-17)
(-1.30035e-16 -5.79382e-18 2.54418e-17)
(-6.17662e-17 -3.74165e-18 1.10622e-17)
(-5.88647e-17 -7.26511e-18 3.10145e-17)
(-0.00145572 0.000107014 0.00060418)
(-0.00233214 -1.77587e-05 0.000404156)
(-0.00139373 -6.75349e-05 0.000257951)
(-0.00120849 0.00012223 0.000617107)
(-7.68857e-17 2.49564e-18 -3.17782e-17)
(-1.21163e-16 2.27881e-19 -1.84437e-17)
(-5.95055e-17 6.93559e-18 -8.22234e-18)
(-6.16632e-17 4.99061e-18 -3.25612e-17)
(-6.3778e-17 3.22088e-18 3.74459e-17)
(-1.13908e-16 -3.20435e-18 1.72766e-17)
(-5.43844e-17 1.8569e-18 1.90499e-17)
(-5.22221e-17 1.05849e-18 3.44015e-17)
(-7.04915e-17 -1.58621e-17 -2.07607e-17)
(-5.31671e-17 -1.35889e-17 -8.95305e-18)
(-9.03308e-17 -1.58491e-17 -1.22021e-17)
(-5.29675e-17 -1.49685e-17 -2.3919e-17)
(-0.00171616 -2.10865e-06 -0.000519444)
(-0.00252948 -0.000110655 -0.000326176)
(-0.00155009 -7.39065e-05 -0.000296665)
(-0.00145165 8.52255e-05 -0.000617494)
(-0.000307503 1.16401e-05 4.83954e-05)
(-0.000166542 2.43768e-05 -1.45849e-05)
(-0.000494839 3.23097e-05 0.000107199)
(-0.000187143 2.52201e-05 9.97746e-05)
(-5.04489e-05 1.72337e-06 -1.42835e-05)
(-2.90289e-05 4.11232e-06 -9.62218e-06)
(-8.65779e-05 -6.49411e-07 -2.55652e-05)
(-3.78638e-05 2.44835e-06 -1.93556e-05)
(-3.9011e-14 -6.92973e-15 -1.55954e-14)
(-5.30991e-14 -1.06506e-14 -9.69279e-15)
(-2.86285e-14 -6.28208e-15 -5.17705e-15)
(-2.96353e-14 -6.60028e-15 -1.53863e-14)
(-1.18386e-05 1.68004e-06 -4.00402e-06)
(-9.30312e-06 1.35458e-06 -7.75628e-07)
(-1.70046e-05 2.21501e-06 -3.13495e-06)
(-8.98339e-06 1.29538e-06 -4.39453e-06)
(-0.000441921 -5.28155e-05 0.000159398)
(-0.000701038 -9.43834e-05 9.71548e-05)
(-0.000370497 -5.79346e-05 6.20728e-05)
(-0.000314975 -4.37311e-05 0.000175326)
(-4.18551e-16 5.11379e-17 -1.27308e-16)
(-5.23033e-16 1.20041e-16 -1.99807e-16)
(-7.69573e-16 1.36128e-16 6.63029e-17)
(-4.40441e-16 9.25929e-17 -2.23513e-16)
(-5.39506e-16 -9.17616e-17 5.18991e-17)
(-7.93209e-16 -2.7628e-16 5.80778e-17)
(-2.84588e-16 -3.37056e-17 6.21805e-17)
(-3.81589e-16 -1.04276e-16 1.29428e-16)
(-2.54616e-14 1.203e-15 1.39179e-14)
(-4.01216e-14 -2.88518e-15 8.22256e-15)
(-1.96939e-14 -5.65579e-17 5.95648e-15)
(-1.91236e-14 -2.51888e-16 1.25885e-14)
(-9.61768e-15 1.20651e-15 -3.18207e-16)
(-3.91379e-15 5.80437e-16 -8.3197e-16)
(-4.53431e-15 9.88492e-16 -1.02756e-15)
(-3.98577e-15 5.98425e-16 -1.65172e-15)
(-8.64844e-05 6.64319e-06 -4.07481e-05)
(-6.86408e-05 4.59665e-06 -1.59593e-05)
(-0.000135437 3.76903e-06 -1.50359e-05)
(-6.91456e-05 5.44967e-06 -3.89769e-05)
(-5.60807e-15 -6.39727e-16 6.03505e-16)
(-6.86205e-15 -4.11809e-16 6.31276e-16)
(-3.64701e-15 -1.06643e-15 5.24293e-16)
(-3.92801e-15 -6.43131e-16 1.06394e-15)
(-2.84554e-14 -3.96936e-15 1.44358e-14)
(-4.7127e-14 -7.18063e-15 6.84026e-15)
(-2.34426e-14 -2.41778e-15 7.00039e-15)
(-2.23149e-14 -2.4791e-15 1.35286e-14)
(-5.5167e-05 -2.56217e-06 -1.3916e-05)
(-2.91147e-05 3.09832e-07 -7.83904e-06)
(-9.30525e-05 -6.16931e-06 -2.49437e-05)
(-3.98489e-05 -3.91677e-06 -2.16487e-05)
(-4.94008e-15 3.14133e-17 4.44508e-16)
(-3.49361e-15 1.34082e-16 1.01188e-15)
(-6.57181e-15 -4.53615e-16 8.27441e-16)
(-3.11676e-15 2.08356e-16 1.14453e-15)
(-2.62153e-14 -6.14872e-16 -1.26811e-14)
(-4.16553e-14 -2.49997e-15 -5.10273e-15)
(-2.00571e-14 9.79119e-16 -4.37794e-15)
(-2.08355e-14 -3.44642e-17 -1.18534e-14)
(-1.16033e-05 1.49967e-07 7.16879e-06)
(-1.83256e-05 -2.20667e-06 4.91542e-06)
(-8.90577e-06 -4.33004e-07 3.42698e-06)
(-8.40037e-06 -3.35203e-07 6.72836e-06)
(-1.03529e-06 1.34232e-07 1.33261e-07)
(-1.16878e-06 -1.29034e-07 3.59188e-07)
(-4.70071e-07 1.72013e-07 -1.64496e-07)
(-5.2405e-07 1.16663e-07 3.06692e-07)
(-1.92579e-06 2.47102e-07 -8.13083e-07)
(-1.37341e-06 1.5994e-07 -3.4079e-07)
(-2.54453e-06 4.3382e-07 -3.06714e-07)
(-1.4003e-06 2.3892e-07 -7.54534e-07)
(-1.38907e-13 -2.22883e-14 -4.39037e-14)
(-2.14946e-13 -1.69088e-14 -6.41436e-14)
(-6.89785e-14 -2.3267e-14 -1.74592e-14)
(-1.00527e-13 -2.44894e-14 -6.14278e-14)
(-2.0463e-13 6.74793e-15 8.20631e-14)
(-3.38133e-13 -4.3559e-16 5.617e-14)
(-1.65539e-13 -1.30163e-15 2.44375e-14)
(-1.62838e-13 -6.90251e-16 8.45203e-14)
(-6.535e-07 -5.27009e-08 -4.89436e-07)
(-1.70215e-06 -7.15513e-08 -1.75405e-07)
(-7.10548e-07 -7.11262e-08 -1.80716e-07)
(-4.88796e-07 1.45433e-09 -5.37073e-07)
(-1.96004e-13 -1.11415e-14 6.09093e-14)
(-3.02341e-13 -2.02752e-14 4.92436e-14)
(-1.52869e-13 -1.80723e-14 1.68389e-14)
(-1.53273e-13 -1.40323e-14 6.93867e-14)
(-8.09786e-05 -2.55728e-06 3.8746e-05)
(-6.72683e-05 -6.09815e-06 1.67471e-05)
(-0.000129681 -5.19534e-06 2.81259e-05)
(-6.31533e-05 -4.75308e-06 3.81901e-05)
(-7.70623e-06 -1.36497e-06 -3.89068e-06)
(-1.13978e-05 -7.87473e-07 -4.43354e-06)
(-7.09738e-06 -1.68658e-06 -1.39162e-06)
(-5.67922e-06 -1.23941e-06 -4.25265e-06)
(-8.35559e-05 -2.8282e-06 -5.24027e-05)
(-0.000133743 -1.6922e-05 -3.5837e-05)
(-7.05949e-05 -5.38411e-06 -2.73137e-05)
(-6.60237e-05 -7.12895e-06 -5.05065e-05)
(-6.36556e-15 -1.00502e-16 -9.54623e-16)
(-3.05453e-15 -6.31677e-16 -7.07189e-16)
(-3.47237e-15 -3.27262e-16 -1.45547e-15)
(-3.0667e-15 -2.54623e-16 -1.71392e-15)
(-5.0044e-16 -3.10277e-17 -1.16792e-16)
(-7.80183e-16 -3.84417e-17 -8.60209e-17)
(-3.88814e-16 4.57005e-18 -8.56416e-17)
(-3.86737e-16 3.7821e-19 -1.60541e-16)
(-4.5782e-09 2.25786e-11 -2.04364e-09)
(-3.56556e-09 3.30282e-10 -9.22059e-10)
(-7.38928e-09 5.08174e-10 -9.08152e-10)
(-3.6482e-09 2.60522e-10 -1.97138e-09)
(-4.35e-09 -1.55167e-11 1.33028e-09)
(-3.43437e-09 -4.7354e-11 4.74612e-10)
(-7.01761e-09 2.02225e-10 9.73738e-10)
(-3.3439e-09 -7.99369e-11 1.5911e-09)
(-2.24717e-13 -1.31223e-14 -1.11226e-13)
(-3.60476e-13 -6.59872e-17 -6.02541e-14)
(-1.76774e-13 4.44117e-15 -5.60397e-14)
(-1.82888e-13 -6.49926e-16 -1.08913e-13)
(-1.40369e-06 -5.9498e-08 5.44153e-07)
(-1.17686e-06 -1.01209e-07 2.13178e-07)
(-2.29322e-06 1.83527e-07 4.0899e-07)
(-1.10294e-06 -5.97035e-08 6.06265e-07)
(-1.76357e-13 -1.95345e-14 -9.49217e-14)
(-3.01445e-13 -1.67068e-14 -3.00588e-14)
(-1.40991e-13 -1.12041e-14 -4.25101e-14)
(-1.43566e-13 -1.2372e-14 -8.72348e-14)
(-3.71488e-09 3.4381e-10 1.63756e-10)
(-1.55667e-09 4.3929e-10 -4.56005e-10)
(-3.97196e-09 -6.57165e-11 1.5441e-09)
(-1.67496e-09 2.17061e-10 5.34338e-10)
(-2.54566e-09 1.15365e-10 6.96165e-10)
(-1.24814e-09 2.5902e-10 -3.70966e-10)
(-3.60271e-09 -9.96033e-11 1.66756e-09)
(-1.33318e-09 1.78501e-11 1.02408e-09)
(-6.99857e-11 -3.02472e-12 1.7445e-11)
(-7.8834e-11 -5.22409e-12 2.9708e-11)
(-7.49626e-11 -3.38883e-12 4.05974e-11)
(-3.43106e-10 -1.83993e-11 -1.56626e-10)
(-1.993e-10 -5.61827e-11 -9.35375e-11)
(-5.1145e-10 5.85612e-11 -1.79841e-10)
(-2.51123e-10 -2.16748e-11 -1.92673e-10)
(-1.84073e-10 -1.847e-11 -5.48256e-11)
(-4.99906e-10 9.56117e-11 -1.41658e-10)
(-3.01107e-10 3.85354e-11 -8.72383e-11)
(-2.31371e-10 3.57911e-11 -1.19543e-10)
(-7.33053e-11 -2.17797e-12 -1.14438e-11)
(-9.01761e-11 -4.13261e-13 -2.63931e-11)
(-8.08446e-11 -2.30058e-12 -3.83145e-11)
(-3.08336e-09 -1.08581e-09 -6.12982e-10)
(-7.42498e-09 -1.39654e-09 -2.58758e-10)