/*--------------------------------*- C++ -*----------------------------------*\
  =========                 |
  \\      /  F ield         | OpenFOAM: The Open Source CFD Toolbox
   \\    /   O peration     | Website:  https://openfoam.org
    \\  /    A nd           | Version:  6
     \\/     M anipulation  |
\*---------------------------------------------------------------------------*/
FoamFile
{
    version     2.0;
    format      ascii;
    class       volScalarField;
    location    "1.64";
    object      p;
}
// * * * * * * * * * * * * * * * * * * * * * * * * * * * * * * * * * * * * * //

dimensions      [1 -1 -2 0 0 0 0];

internalField   nonuniform List<scalar> 
5835
(
3.41375
1
3.36968
1.69965
1
1
1
1.0036
1
1
1
2.30223
1
1
2.40186
1
5.03091
4.837
1
1
5.03365
1
5.35138
2.33944
1
1
2.60809
1
1.30729
1
1.0449
1
1
1.00494
1.01033
1
1
1
1.00092
1.00073
1
1.00008
1
1.00009
1
1
1
1.00002
1
1
1
1
1
1
1
1
1
1
1
1
1.26724
1
1.37025
1
1
1.00002
1.00001
1
1.00523
1.00714
1.00101
1.00073
1
1
1
1
1.05419
1.05752
1.0001
1
1
1.00013
1
3.49819
3.24616
1
1
1
1.00459
1.64762
1
1
1
1.00006
1.00005
1
1
1
1.79193
1.00008
1
1.00007
1
1
1.96837
1
1.00001
2.1108
1
1.00011
1
1
1.7416
1
1
1
1
1
1
1.91909
1.82244
1
1
1
1
1
1
1
1
1.00005
1.00005
1
1
1.00011
1
1
4.87975
1
4.96661
1
1
1
4.9163
4.83736
4.89563
4.76138
3.89101
3.67915
1
1
3.8743
1
1
1
3.36522
2.9505
1.93638
1
1.21483
2.84305
1
1
1
1
2.07571
1
1
1.77204
1
1
1.05797
1.0611
1.03649
1
1
1.01669
1
2.01268
1.33447
1.52494
1
1
1.00002
1.00002
1
1.02251
1
1.00002
1.00002
1
1
1
1
1.00002
1.00003
1
1
1
1
1
4.70826
4.80546
1
1
1
1
1
1.00001
1
1
1.00551
1
1.00408
1
1.00213
1
1
1
1
1.00001
1
1
1.00001
1.00477
1
1.00691
1.00299
4.93622
1
1
1.0015
1
1
1
1
1
3.74256
1
3.73005
1.00039
1
1.0004
1.00026
1.00317
1
1.00028
1
1.00044
1.00018
1
1.23714
1
1
1
1
1
1
1.68908
1
1
1
2.01623
2.17376
1
2.20007
1
1
1
1.92728
2.04912
1
1
1
1
1
1.07664
1
1
1
1
1
1
2.34549
1.00001
1
1
1
1
1
1
4.53092
3.01346
1
3.04312
1
1
1
1
1
4.38418
1
4.71173
4.69384
4.25791
2.89129
4.30512
1
4.43566
1
3.61528
5.13692
3.42014
4.59874
2.34889
1
1
1.00042
2.23584
1.00006
1
1
1.01908
1
2.50157
1
2.71582
1.00059
1.00046
4.49262
1.00623
1
1.89405
1
1.00863
1
1.00494
1.00006
1
1.00004
1
1
4.65875
1.69873
4.7771
1
1.00024
1
1.0002
1
1.00025
2.26585
1
1
1.04848
1.00208
1
1.20336
1
2.20791
1.00642
1.52073
1
1.00003
1.0002
2.60798
1
1
1
1
1.00014
1.09366
1
1
1
1.67725
1.00383
1
1
1.00001
1
1
1
1.00001
1
1
1
1
1
1
1
1
1
1
1.00001
1
1
1.00001
1
1
1
1
1
1
1
1.00077
1.03448
1
1.01287
1.66346
1.00004
1.00038
1
1
1
1
1
1.94432
1
1
1
1
1.0001
1
1.02835
1
1
1
1
1.08937
1
1
1.49652
1.00017
1
1.02421
1
1
1.00015
1
1.38327
1.21807
1
1
1.20152
1.0025
1
1
1.00017
1.00383
1
1.17471
1
1.01323
1
1.00347
1
1
1.00022
1.00004
1.00659
1.00087
1
1.20447
1
1.00078
1.00004
1
1
1.231
1
1
1.01523
1
1.26451
1
1.03284
1.00004
1.34052
1
1.00001
1
1.04436
1
1.0001
1
1.00009
1
1.00017
1.00002
1
1
1.00002
1
1
1
1.00003
1.00003
1
1
1
2.03375
1.00005
1
1
1.8094
1
1
1.00001
2.00646
1
1
1.00003
1
1.75438
1
1
4.88975
1
1
4.82525
4.77916
4.71403
1
1
1
1
3.75712
3.93042
1
1
1
3.74337
4.64227
1
4.74987
1
1
1
3.6891
1
2.76211
1
4.75248
1
3.13979
1.94626
1.33807
1.00002
1.00002
1.24186
1
1.90204
1.00002
1.66829
1
1
1
1
1
1
1
1.04574
4.61004
1
1.44356
1
1
1.06699
1
1.01856
1
1
1.01853
1
1
1.00001
4.57781
1
1
1
1.07103
1.00001
1
1
1.27564
1
1.00475
1.00456
1
1.00042
1.00252
1
1.00245
1.00043
1
1.00603
1.00028
1.00026
1
1
1.03934
1
1
1
2.87895
1
1
1.00001
1
1.00016
1
2.04556
2.08149
2.10106
1
2.13223
1.00124
1
1
4.63338
1
1.95615
1
1
2.32624
1
4.29694
1
3.16511
3.80818
1
1
4.41813
4.26043
3.26592
1
1
1
1
2.34093
4.58084
1
2.46986
1
1
1
1
4.72574
4.57356
1
2.28017
1
4.31473
1
1
1
4.48838
2.03771
4.56069
1
1.00056
1
1.75507
1.7496
1
1
1.00207
1
1.26633
2.20809
1.03733
1
2.36506
1
1
1
1
1
1
1
1
1
1
1
1.00442
1
1.00001
1
1
1
1.44023
1.1067
1
1
1.00005
1.00005
1
1
1
1
1
1.01485
1
1
1.61199
1.67773
1.02885
1
1
1.00578
1.00003
1
1.00018
1.00022
1
1
1
1
1.00179
1
1
1
1
1
1.00019
1
1.36834
1
1
1
1.06933
1.03078
1.24217
1
1.00019
1
1.16878
1.18008
1.01529
1
1
1.21414
1
1
1.21587
1
1
1
1.00372
1.00334
1
1.3089
1
1
1.00844
1.00004
1
1.0009
1.00092
1
1.36241
1.00005
1.01778
1
1
1.00002
1
1
1.02524
1
1.00003
1
1.0426
1
1.0001
1.0001
1
1
1
1
1.00004
1.00002
1
1
1.00004
1.00002
1
1
1
1
1.00938
1
1
1
1
1.01044
1.00505
1.00966
1.00519
1
1
1
1
1
1.48391
1.00056
1.00044
1.00072
1.00044
1
1
1.02618
1.0132
1
1
1
1
1
1.00246
1
1
1.00557
1.00285
1
1
1
1
3.04244
3.1145
3.20887
2.88001
1
1
1
1.00001
1
1
1.00001
1
1
1
1
1
1
1
1
1
1.00001
1
1.00001
1
1
1
1.00086
1
1.00039
2.3816
1.00053
1
1.80599
1.0003
1
1
2.69604
1
1
1
1.00023
1.00016
1.42742
1
1
1.00024
1.00013
1
1
1.69955
1
1.00013
1
1
1
2.71776
1.86476
1
1
1
1
1.77689
1
3.40875
1
3.70003
1
1.00957
1
1
1
1
1
1
1
2.69851
2.85804
1
1
1.91592
1
2.64779
1
1.73295
1
1
4.63635
4.79185
1
1
1
4.43366
4.78265
4.89537
1
4.25238
1
1
1
5.14561
3.8495
1
4.75832
3.74569
1
1
1
4.85941
1
1
4.79205
1
3.93419
1
1
1
4.18994
3.70527
4.38315
1
1
1
3.76388
4.99447
4.82106
3.98496
3.93111
1
1
4.59856
1
1
3.79265
3.84158
4.39106
1
4.24379
1
1.98104
1
1
1
1
1.00007
1
1
1
1
2.67045
2.96088
1
1
1.96792
1
1
4.13927
1
1
4.08982
1
1.99113
1
1
1
1.00023
1
1.00188
1.0124
1.00004
1
1.03851
1.00429
1.10129
1
1
1.00058
1
1.23433
1
1
1.00001
1
1
1.00001
1
1.00008
1.00008
1.00085
1
1.53831
1.00739
1
1
1
2.71704
4.46246
1
1
2.15691
4.22006
1
2.86923
2.10303
1
1
1
1.01825
1.00237
1.00001
1.00031
1.00002
1
1
1
1
1
1
1.15029
1
1.96455
1
1
1
1
1
2.18569
3.24203
1
1.01732
1
1
1.01561
1.01732
1
1
1.00263
1.0004
1
1.01439
1.01923
1
1.00021
1
1.00191
1.00051
1
1
1.00831
1.0025
1.00821
1
1.0013
1
1.00042
1
1.00666
1
1.00165
1.01076
1
1
1.00534
1
1.00141
1.0071
1
1.00016
1.00062
1
1
1
1
1
1.00012
1
1
1
1.00063
1.00403
1.0004
1
1
1.00012
1
1.00671
1
1.00168
1.00007
1.00032
1
1.00007
1
1.00007
1.17616
1
1
1
1.08669
1
1.00006
1
1
1
1.00037
1.00011
1
1.11314
1.00292
1.00005
1.00005
1
1
1
1.00005
1.00006
1
1
1.02215
1.00004
1
1.00003
1
1.00082
1
1
1.0006
1
1
1.00043
1.00186
1.01138
1
1.00003
1
1.02129
1
1.07543
1
1
1.00103
1
1.00002
1.0006
1
1
1.00013
1
1.00003
1
1.05356
1
1.00165
1.00181
1
1
1.00244
1
1.02637
1.02412
1.00025
1
1
1.00015
1
1
1.02656
1
1.03766
1.00002
1
1.00026
1.00029
1
1.00679
1
1.00002
1
1.0891
1
1.06337
1
1.00104
1
1.00075
1.0004
1
1
1
1
1.00127
1
1
1.16733
1.1282
1
1.00104
1.28067
1.57911
1
1
1.12853
1
1
1.46584
1
1.01868
1.0788
1
1
1
2.29213
1
1.40841
1
1.0116
1.00277
1
1
1.00821
1
2.11325
1
1.01333
1.00004
1
1
1.0001
1
1.07739
1
1.00088
1
1.25397
1.99528
1
1
1
1
1
1.00009
1
1.01024
1.1029
2.01002
1.05505
1
1
1.00006
1
1
1.00018
1
1.78178
1
1.00814
1
1.00143
1.00005
1
1.00012
1.67086
1.12972
1
1
1.0397
1.64019
1.44786
1
1.55799
1
1.46059
1
1.37884
1.55121
1.32627
1
1
1.00053
1
1.00009
1
1
1.17602
1
1.01579
1.39698
2.28462
1.34189
1
1
1.43419
2.92604
3.95871
1
1
1
1
1
1
1
1
1
1.76438
4.82903
1
1
1
2.81908
3.06172
1
1
3.85632
1.07661
1
1
2.61527
1
1
2.56749
3.69235
4.61347
1
4.23785
3.76479
1
4.46485
1
3.83258
4.30026
2.86268
3.92548
3.83279
1
3.1446
1.95426
3.86991
1.02194
2.81976
2.81643
3.76823
1
1
1
1
1
4.13594
4.19125
1
1
1
2.25353
3.19281
1
1
2.94764
1.37807
1
3.93644
1
1
1
3.67664
3.01874
1.06216
1
2.69319
1
2.43631
1
2.15403
1
1
1.611
1.88713
1
1
2.72476
1
1.20112
1
1
1
1.00205
1.11743
1
1
1.00949
3.74984
1
1
1.01357
3.73309
1
1
1
1.03008
1
1
1.71068
1
1
1.00031
1
1.00065
1.0038
1
1.09747
1.39744
2.68332
1
1.68338
2.85304
1.00013
1
1
1.43323
3.8972
3.86005
1
1.0005
1
1
1
1.00001
2.87103
1
1
1.00001
1
1.00001
1.00001
1
1.00007
3.97301
1
1
1
1.39915
1
1.00242
2.70873
2.18757
1.74971
1
1
1.00005
3.26535
4.0101
1.00004
1
1
1
1
1.45658
1.00003
1
1
1.52161
1
1
1.7085
1
1
1
1
1
1
1
1
1
1.00001
1
1
1
1
1
1
1
1
1
1
1
1
1
1
1
1
1
1
1
1
1
1
1
1
1.00001
1
1
1.00001
1
1
1
1
1
1
1
1
1
1
1
1
1
1.00001
1
1
1
4.28395
1
1.00028
1.78384
1
1
1.88377
1
1
1
1.34548
1
1
1.78274
1.69401
1
1.96934
1
1
1.04066
1
1.00224
1
1.42712
1.00461
1
1.12138
1
1
1
1
1.00803
1
1.03596
1.00001
1.0135
1
1
1.00035
1.09119
1
1
1
1.00001
1
1.00699
1.00992
1
1
1
3.37027
1
1
1
1
1.05199
1.00009
1
1
4.44948
1
1.00069
1
1.0851
1
1.00194
1
4.19636
1
1
1.00003
1
1
1.4626
1.37438
1
2.43011
1
1
1.00055
4.64469
1
1
4.14885
1.00045
2.53092
1
1.01223
1
1
1.00159
1.57006
1
1.11325
1
1
1.00113
1
1
1
1.07915
1.53984
1
1
1.75845
1
1.34607
1
1
1.00065
1
1
1.69613
1.09515
1
1.00126
1
1.00211
1.00002
1
1
1.52636
1.00003
1
1
1.00002
1.00002
1
1
1
1.00001
1
1
1.00072
1
1
1.00001
1.69652
1
1.00001
1
1
1.47207
1
1.99722
1
1.76997
1
1
1.00001
1
1
1
1.8743
1
1.00002
1
1
1
1
1.00001
1
1
2.28883
2.57974
1
1
1
1
1
1
1
1
1
2.59313
1
4.33722
1
1
1
2.25738
1
2.46915
1.00003
1.00001
1
1
4.06473
1
1
1
2.42169
1
1
1
1
1
1
1
1
1
1
1.00009
1
4.9369
1
4.32527
1
1
1.00001
1
1
1
1.00005
1.00001
1
1
1
1.00013
1.00004
1
1.00008
1
1
1.00008
1.00005
1
1
1
1.00011
1.00016
1.00005
1
1
2.49154
1
4.82125
1
4.26587
1
1
1
3.02479
1
4.39579
1
4.19414
1
3.30397
4.16785
3.33344
2.73506
1
1
4.34232
1
1
4.78923
1
1
4.4277
1
3.97926
4.497
1
1
1
4.18553
1
3.88338
1
4.92291
1
4.30424
1
1.65536
1
1
1
1
1.00004
1
1.00172
1.31779
1
1
1
1
1
3.25515
2.64389
1
1
4.02475
4.42128
1
1
4.56291
5.02595
1
1
4.00415
4.63572
1
3.8939
5.43636
1
1
1
5.76817
5.42561
1
5.98799
1
5.65689
1
1
3.96269
4.39324
4.33019
1
1
4.50878
3.75999
1
3.89982
1
3.96691
1
1
4.00081
3.96113
1
1
4.17424
1
1
4.23149
4.28742
1
1
4.63906
4.55622
1
1
5.85447
5.91423
1
4.85781
4.96047
1
1
5.93455
1
5.62804
5.69508
1
1
6.11592
1
5.51539
1
5.49289
5.27027
1
1
5.18102
2.4817
1
1
2.43235
1
1
1
1
1.45084
1
1
3.12633
2.88685
1
1
1.00133
1
4.61314
1
1
4.32226
1
4.83998
4.94543
1
3.5409
1
3.72048
1
5.09087
1
1
1
5.25639
5.20107
4.15932
4.12666
1
1
1
1
4.20935
1
1
1
1
1
1
4.97125
3.64621
3.61032
5.05182
3.66021
4.32941
1
1
5.40629
1
3.54168
5.2895
3.9511
1
1
4.99732
1
4.08734
1
4.72816
4.44371
1
1.27862
1
1.00118
1
1
1
1
3.23467
2.37103
1
1
1.00521
1
1.16875
1
1
1
2.39821
3.45354
4.29208
1
1
1
4.64605
1
4.39703
4.49763
1
1.00025
1
1.00209
1
1.01621
1
1.02031
1.00004
1
1.00208
1
1.00024
1
1.10193
1
1.12437
1
1
1.00001
1
1
1
1
1
1.00003
1
1.00025
1
1.00236
1.00754
1
1.14742
1
1
4.42195
1.90714
3.08587
3.10941
1
1
1.86678
4.00753
1.85048
1
1
1.15691
1
1.69362
1
1.02208
1
1.00219
1.00033
1.00002
1
1
1
1
1
1
1.00001
1
1.01053
1
1.01788
1.00161
1
1.00022
1
1
1.00185
1
1.01963
1.00023
1
1
1.01721
1
1.00294
1.00033
1
1.00026
1
1
1.01412
1
1.00176
1.01091
1.00145
1.00037
1
1
1
1.01017
1
1
1.00746
1.00138
1.00117
1
1
1.00023
1.00015
1
1.00891
1
1.00103
1.00664
1
1.00077
1
1
1.00644
1
1.00015
1.00065
1.00516
1
1
1
1
1.00054
1.00012
1
1.00011
1
1.00623
1.00058
1
1.00441
1
1.00047
1.00011
1
1
1
1.00038
1
1.00234
1
1.00043
1
1.00009
1
1.00008
1
1.00322
1
1.00208
1.00334
1.00033
1
1.00235
1.00031
1
1
1.00008
1.0004
1
1.00008
1
1.0001
1.00008
1.09244
1
1
1.14511
1.00004
1.00006
1
1
1
1
1.00005
1
1.08806
1
1.00003
1.00004
1
1.07386
1.00321
1
1.00007
1
1.05328
1.0016
1
1.12474
1
1.00192
1.00006
1
1.06655
1
1.00003
1
1.00004
1
1
1.00046
1
1
1.00047
1.00003
1
1.00003
1
1
1.00751
1
1.00002
1.00003
1
1
1.00049
1
1.0005
1
1
1.03296
1.00576
1.00003
1
1.05408
1.00009
1
1.00002
1
1
1.02853
1.00071
1
1.01145
1
1.00069
1
1.00011
1
1.03317
1
1.00009
1.01327
1
1.00116
1
1.0008
1
1
1.02492
1
1.00181
1.0019
1
1
1.00017
1.02373
1.00013
1
1.02406
1
1
1.00188
1.00173
1
1.00025
1.02538
1.00003
1
1
1.00018
1.03299
1
1
1.00002
1.03936
1
1.0026
1
1.0003
1.0003
1.00003
1.00365
1
1
1.00002
1.00029
1
1.03558
1.00029
1.00598
1
1
1.04177
1
1.02722
1
1.00098
1
1.0008
1
1.02989
1.00101
1
1.0009
1
1.09266
1
1
1.07574
1.05975
1
1.12187
1
1.12027
1
1
1.21599
1.52832
1
1
1.2593
1.16157
1
1.44894
1
1.12033
1
1.00975
1.0971
1
1
1.20693
1.48648
1
1
1.00884
1
1
1.09711
1.08413
1
1.01095
1
1
1.00795
1
1
1.00003
1.37027
1
1.29189
1.08052
2.36978
1
1.0104
1
1
1.29889
2.13835
1
1.06108
1
1
1
2.28661
1
1
1
1.00751
2.09978
1
1
1
1.00166
1.01252
1.00079
1
1
1.00004
1.00071
1
1.00121
1
1.22142
1
1
1.00062
1
1.07405
1
1.18055
1
1
1.00081
1.03465
1.00006
1
1.01306
1.00257
1
1.00004
1
1
1.02559
1
1.00191
1
1
1.07192
1
1.00008
1
1
1.00004
1.79378
1
1
1.08661
1.00039
1.12241
1
1
1.01808
1
1
1.0161
1
1
1.01336
1.62621
1
1
1.00007
1.00012
1
1.00027
1
1
1.1558
1
1.01604
1
1
1
1.56003
1
1
1.00008
1.00014
1.12862
1
1.06913
1.01761
1
1.39067
1
1
1.67759
1
1.0002
1.00018
1
1
1.04852
1.12831
1
1
1.00013
1.01488
1
1.31109
1
1
1.00078
1
1.00668
1.1888
1
1.00018
1
1
1.12785
1
1.00015
1.01619
1
3.81243
1
1
1
1.79597
3.11951
2.96398
2.95381
1
1
3.09633
3.1828
1
1
1.64752
1
3.67436
3.18562
1
1
1
1
1
2.94299
1
1
1
1.55266
3.89371
1
1
2.91549
1
1
4.26818
3.64327
4.42395
1
3.04335
3.87305
1.815
3.43723
4.20638
4.04516
3.04926
2.55754
1
3.69105
2.92277
3.51407
1
1
1.72512
4.38477
3.60503
1
1
1
4.07571
1.91098
1
1.00015
1
1
1
1
3.89701
4.37677
1
1
2.37965
3.17238
3.22142
3.37136
1.00076
3.48844
3.95877
1
1
1
3.01124
1
1
1
1
3.30561
1
1.52227
1.16061
1
1
1.00249
1
1.01942
1.81066
1
2.17639
1
2.39413
2.73687
1
1
1.00047
1
1.00174
2.96845
1
3.14097
1
1.00011
1
2.82704
1
1
3.39362
3.75798
1
1
1
1.00006
1.00035
3.03931
3.15597
1
1
1
1.58199
1.58011
1
1.00002
1
1
1
1
1.00001
1
1.00001
1
1
1
1
1
1
1
1.00001
1
1
1
1
1
1
1
1
1
1
1
1
1
1
1
1.00001
1
1
1
1
1
1
1
1
1
1
1
1
1
1
1.00001
1.00001
1
1.00001
1
1
1
1
1
1
1
1
1
1
1
1
1
1
1
1
1.00001
1
1
1
1
1
1
1
1
1
1.00001
1
1
1
1
1
1
2.92356
1
2.93189
1
1.00001
1
1.00002
1
1.00041
3.57131
1
1
3.57508
1.00001
1.00002
1
1
1
1.00065
1
3.37408
1
3.01036
1.00002
1.00001
1
1
1
1
1
3.11571
3.88326
1
1
3.47531
3.66265
1
1.00075
1
1
1
3.62357
4.04049
1.4403
1.40914
2.81725
1
4.2517
3.98518
1
1
1.39544
1.62364
1
1.61322
1.58721
1
1
1.72341
1
1.67765
1
1.46013
1.44801
2.53979
1
1.63486
1.73468
1
1
1
2.36666
1
1
1.66208
1.81884
1.00001
1.00001
1.00024
1
1
2.01215
1.80282
1
1
1
1
1.00001
1.00001
1.00001
1.00001
1
1
1.00001
1
1.00038
1
1
1
1.34154
1
1
1.00224
1.46437
1.52443
1.54101
1.0054
1
1
1.34003
1.00001
1.00001
1
1.55497
1
1
1
1.5465
1
1
1.72496
1.68712
1.84904
1.96206
1
1
1.39561
1
1.00411
1
1
1
1
1
1.02832
1
1
1
1
1
1
1
1
1
1
1.00778
1
1
1.03774
1.00003
1.00002
1
1
1
1.03221
1.00677
1.00922
1
1.00004
1.00003
1
1
1.00001
1.00001
1
1
1.00906
1
1
1.0574
1
1.05145
1
3.50824
1
3.31338
1
1
1.07294
1
4.3287
4.5988
1
1
1
4.20433
4.37042
1
1
1.06835
1
1.01311
1
1
1.01983
1
1
1.00043
1
1
1
1
1.00044
1.00059
1.01438
1
1
1
1.02056
1
1.00074
1
1
1
1.11104
1
1
1.18641
1
1
1.00067
1
1.00088
1
1.10296
1.13811
1.0008
1
1.45997
1
1
1
1.00092
1
1.45895
1.12393
1.68566
1
1.66156
1
1
1
1.58675
1.00214
1.53097
1
1.00048
1
1
1.65834
1
1
1.00234
1.00096
1.00178
1.59066
1
1
1.00002
1
1
1
1.00002
1
1.00002
1.00001
1.00001
1
1
1.00001
1
1
1
1
1
1
1
1.00001
1
1.00001
1.00003
1.00002
1
1
1
1
1
1
1
1.00001
1.00001
1.00001
1
1
1
1
1
1
1.00002
1
1
1.00002
1
1
1
1
1.00003
1.00002
1
1
1
1
1
1
1
1.61006
1
1.00001
1
1
1
2.68777
1
2.33292
1
3.64334
1
1
4.36957
4.19898
1
1.80968
1
1
1
1
1
1
1
1
1
1
1.60081
1
1
1.00001
1
1
1
1
1.00001
1
1
1.00001
1
1
1
1.67357
1
1.00001
1.00001
1
1
1
1
1
1.00003
1
1
2.74279
1
1
1
1
1
1.9384
1
2.42084
2.37963
1
1.87914
1
1
1.00001
1
1
2.39852
1
2.59718
1.00003
1.00004
1
1
2.21366
1.00002
1.00006
1.00003
1.00006
1
1
1
1
2.37796
1.00005
1.00006
1
1
2.24707
1.00004
1.00004
1
1
1
1
1.0001
1.00007
1
1
1
1
1
1
1
1
4.67737
4.46161
4.45141
1
4.29191
1
1
3.38654
3.43601
1
1
3.43289
1
3.15689
2.9426
1
1
4.71123
3.96438
3.95512
1
1
4.45865
4.51178
1
4.41106
1
4.56397
1
1
4.43422
1
4.20415
1
4.00736
1
1
1
1.34437
1.00123
1
1
1
1
3.09151
2.5757
1
1.00626
1
1.18948
1
1
1
2.5527
3.34593
1.33137
1
1.00134
1
1
1
1
3.16139
2.56548
1
1
1.00226
1
1.27847
1
1
1
1
1
3.72457
2.75045
1
1.26025
1
1.00542
1
1
1
1
2.47619
3.33809
1
1
1
1.00136
1.00154
1
1
1
1
1.30425
1.24869
1
1
1
1
1
1
3.4742
3.26988
2.56294
2.48212
1
1
4.84145
1
4.78638
1
1
1
1
1
1
1
3.5681
1.00666
3.68714
1.83261
1.51381
3.32777
1.00267
1
1
1
1
1
1
1
1
2.93125
4.4107
4.64098
4.85077
5.35332
4.63083
5.10858
4.45597
4.26215
5.17814
4.87245
5.01562
4.56125
1
1
1
1
1
1
1
1
1
1
1
1
1
1
1
1
3.57065
1
1
1
1
1
1
1.42673
1.29616
1.26619
1.19063
1.12352
1
1
1
1
1
1
1
1
1
1
1
1.14499
1.22014
1
1
1
1
1
1.14268
1.28644
1.10868
1.18026
1.12034
1.18398
1
1
1
1
1
1
1.88726
2.1981
1.9522
1
1
1
1
1
1
1
1
1
1
1
1
1.37949
1.51637
1.28494
1.34662
1.18218
1
1
1
1
1
1.05524
1.09794
1.0251
1.04811
1.01653
1.07235
1.03427
1
1
1
1
1
1
1
1
1
1
1
1
1
1
1
1
1.02755
1.02599
1.01284
1
1
1
1
1
1
1
1
1.21274
1.39407
1.13148
1.22242
1.17195
1.26758
1
1
1
1.00001
1.00002
1.00001
1.00001
1
1.00001
1.00001
1.00002
1.00002
1.00002
1.00002
1.00002
1
1
1
1
1
1
1
1
1
1
1
1
1.04907
1.08782
1.02524
1.04644
1.02151
1.03389
1
1
1
1
1
1
1
1
1
1
1
1
3.03898
2.65426
3.6996
3.39679
3.76089
3.69567
1
1
1
1
1
1
2.85693
3.50076
2.23474
2.89318
2.55495
3.32304
1
1
1
1
1
1.00003
1.00001
1.00001
1
1.00002
1.00001
1
1
1
1
1
1
1
1
1
1
1
1
1
1
1
1
1
1
1.00001
1.00001
1
1
1
1
1
1
1
1
1
1
1
1
1.00001
1.00001
1.00001
1.00001
1.00001
1.007
1.00406
1.01614
1.01195
1.01694
1.01503
1
1
1
1
1
1
1
1
1
1
1
1
1
1
1
1
4.4586
4.04221
4.34827
4.23884
1.00081
1.00278
1.00417
1.00655
1
1
1
1
1
1.00042
1.00031
1.00075
1.00075
1.00126
1.00001
1.00001
1.00001
1.00001
1.00001
1.00001
1.00001
1
1
1
1
1
1
1
1
1
1
1
1
1
1
1
1
1
1
1
1
1
1.00044
1.00033
1.00102
1.00085
1.00135
1.00118
1
1
1
1
1
1
1.01391
1.01998
1.01432
1.01408
1
1
1
1
1
1
1
1
1
1
1
1
1
1
1
1
1
1
1.00014
1.00026
1.00004
1.00008
1.00003
1.00004
2.95586
2.37898
2.6399
1.0004
1.00085
1.00029
1.00046
1.00027
1
1
1
1
1
1
1
1
1.51007
1.28504
1.21074
1.12727
1.38117
1.17844
1.45699
1.21515
1
1
1
1
1
1
1.70947
2.09304
1.67978
1.85172
1.57215
1.00006
1.00004
1.00019
1.0001
1.00015
1.00006
1
1
1
1
1
1
1.16211
1.07397
1.08653
1.05213
1.2618
1.13388
1.22547
1.09946
1.00228
1.00152
1.00519
1.0036
1.00389
1.00385
1
1
1.01618
1.037
1.0517
1.10987
1.03248
1.08137
1.03182
1.08626
1
1
1
1
1
1
1
1
1.52261
1.29073
1.62972
1.38013
1.27083
1.19153
1.48508
1.25526
1
1
1
1
1
1
1.00097
1.00236
1.00061
1.00117
1.00116
1.00235
1.0008
1.00184
2.30863
1.85574
2.56605
1.97879
2.57178
2.014
2.44779
1.89278
1
1
1
1
1
1
1
1
1
1
1
1
1
1.00002
1.00001
1.00001
1
1
1
1.78192
2.17002
1.66637
1.87756
1.64452
1.81323
1
1
1
1
1
1
1
1
1
1
1
1
1
1
1
1
1
1
1
1
2.39758
2.06821
3.16866
2.75157
3.29688
3.15395
3.74116
3.767
3.93738
3.912
4.02527
3.83139
3.74871
3.77774
4.11567
3.95823
4.02414
3.8481
4.39749
3.43898
4.03715
3.76681
4.47478
3.86137
1
1
1
1
1
1
2.79768
2.04313
1.76948
1.50621
2.33553
1.713
1
1
1
1
1
1
1
1
1
1
1
1
1
1
1
1
1
1
1
1
1
1
1
4.03071
3.65826
3.45719
3.23189
3.82318
3.34682
4.05865
4.7517
4.00747
4.49704
1
1
1
1
1
1
3.31044
3.82337
2.86583
3.19862
2.90947
3.26416
1
1
1
1
1
1
4.60051
4.33445
5.04976
4.89361
5.01103
4.58368
1.8978
2.46584
1.64451
1.98713
1.47465
1
1
1
1
1
1
4.14552
4.04314
4.84303
4.54893
4.68099
4.28993
3.75928
4.80083
4.26365
4.94253
4.18881
4.7632
2.13347
2.74298
1.71555
2.01891
1.68178
1.90555
1.00653
1.00342
1.01438
1.00946
1.01333
1.01133
1
1
1
1
1
1
1
1
1
1
1
1
1
4.38172
4.16325
3.68905
4.30048
4.19539
1
1
1.0054
1.00428
1.00369
3.98271
3.98103
4.51754
4.29258
4.37038
4.09838
1
1
1
1
1
1
1
1
3.99352
3.94529
4.0932
4.08755
4.2216
4.01293
1.00015
1.00025
1.00026
1.00055
1.00021
1.00047
1
1
1
1
1
1.18365
1.38561
1.0014
1.00129
1.00322
1.00298
1.00566
1.00547
1
1
1
1
1
1
1
1
1
1
1
1
1
1
1
1
1
1
1
1
1
1
1
1
1
1
1
1
1
1
1
1.10799
1.08546
1.23733
1.19518
1.25812
1.24266
1.02336
1.04459
1.01006
1.01804
1.00786
1.00738
1
1
1
1
1
1
1
1
1
1
1
1
1
1
1
1
1.00002
1.00004
1.00001
1.00002
1.00001
1.00001
1.00009
1.00005
1.00021
1.00011
1.00015
1.00007
1.40945
1.32213
2.32532
1.01687
1.01466
1.03943
1.03282
1.05485
1
1
1
1
1
1
1.00004
1.00028
1.00041
1.00088
1.00021
1.00062
1
1
1
1
1.00129
1.00048
1.00146
1.00289
1
1
1
1
1
1
1.00001
1.00001
1
1.00001
1
1
1
1
1
1
1.00001
1
1.00002
1.00001
1.00002
1.00001
1.00001
1
1
1.00001
1
1
1
1
1
1
1
1
1
1.00001
1.00001
1.00002
1.00001
1
1
1
1
1
1
1
1
1.00002
1.00002
1.00001
1.00001
1
1
1
1
1.09579
1.16444
1.13137
1.28322
1
1
1
1
1
1
1
1
1
1
1
1
2.38032
2.7873
1
1
1
1
1.00004
1.00004
1.00002
1
1
1
1
1
1
1
1
1
1
1
1
1
1
1
1
1.03573
1.02546
1.07255
1.05341
1.06219
1.05144
1.00001
1.00003
1.00005
1.0001
1.00003
1.00006
1.00001
1.00002
1.00002
1.00003
1.00001
1.00003
1.00002
1.00009
1.00012
1.00025
1.00007
1.00019
1.00279
1.00101
1.00626
1.00265
1
1
1
1
1
1
1
1
1.09177
1.05776
1
1
1
1
1
1
1.00012
1.00003
1.00027
1.0001
1.00004
1.00005
1.00021
1.00012
1.00043
1.00025
1.00018
1.00013
1
1
1
1
1
1
1.00358
1.00089
1.01198
1.00599
1.00806
1.00278
1.03649
1.02196
1.0511
1.02146
1.0208
1.00675
1.001
1.00211
1.00038
1.00088
1.00032
1.0005
1.0295
1.02173
1
1
1
1
1
1
1.00023
1.00004
1.00046
1.00014
1
1
1
1
1
1
1
1.31797
1.51788
1.15524
1.22856
1.12567
1.16196
1
1
1
1
1
1
1.29728
1.43915
1.21908
1.35911
1.22464
1.38396
1.34451
1.53829
1
1
1
1
1
1.00232
1.00079
1.00101
1.00041
1.00298
1.00153
1.00221
1.00096
1.02356
1.01199
1.00852
1.00331
1.00535
1.00184
1
1
1
1
1
1
1
1
1
1
1
1.17247
1.35039
1.0647
1.14313
1.06265
1.10627
1
1
1
1
1
1
1
1
1
1
1
1.00058
1.00031
1.0002
1.00013
1.00046
1.00022
1
1
1
1
1
1.00063
1.00159
1.00243
1.00475
1.00124
1.00352
1
1
1
1
1
1
1.00529
1.01194
1.00246
1.00481
1.00233
1.00286
1
1
1
1
1
1
1.00056
1.00108
1.00042
1.00091
1
1
1
1
1
1
1
1
1
1
1
1
1.00031
1.00066
1.00022
1.00032
1.00015
1.00017
1
1
1
1
1.00001
1.00001
1.00001
1.00002
1
1
1
1
1
1
1
1
1
1
1.02762
1.01514
1.03615
1.01684
1
1
1
1
1.0248
1.01314
1.01173
1.0055
1.00831
1.00315
1
1
1
1
1
1
1.00001
1.00002
1.00001
1.00001
1.00001
1.00002
1
1
1.15054
1.30228
1.06626
1.14548
1.03266
1
1
1
1
1
1.19532
1.41605
1.11002
1.21562
1.08553
1
1
1
1
1
1
1
1
1
1
1
1
1
1
1
1
1.02904
1.01934
1.06003
1.04629
1.04975
1
1
1
1
1
1
1.06025
1.03729
1.12265
1.09354
1.11436
1.1138
1.2907
1.50351
1.1605
1.26703
1.12801
1.1782
1.00003
1.00006
1.00003
1.00005
1
1
1
1
1.00006
1.00005
1
1
1
1
1
1
1
1
1
1
1
1.00001
1.00001
1.00003
1.00002
1.00003
1.00001
1
1
1
1
1
1
1.00026
1.00018
1
1
1
1
1
1
1.00002
1.00001
1.00004
1.00003
1.00003
1.00003
1.00002
1.00004
1.00001
1.00002
1.00001
1.00001
1.43937
1.27531
1.38487
1.32374
1
1
1
1
1
1
1
1
1.00298
1.00211
1.00721
1.0042
1
1
1
1
1
1
1
1
1
1
1
1
1
1
1
1
1
1
3.43789
3.23452
3.45595
3.23185
2.83108
2.47663
2.75773
2.50585
1
1
1
1
1
1
1
1
1
1
1
1
1
1
1
1
1
1
1.00098
4.51216
4.7928
4.74842
5.1673
1
1
1
1
4.67315
4.53281
4.48149
4.21975
1
1
1
1
1.11122
1.1825
1.07364
1.12083
1.0507
1
1
1
1
1
1.85665
2.19531
1.57809
1.70882
1
1
1
1
1
1
1
1
1
1
1
1
1
1
1
1
1
1
1
1
1.01476
1.03069
1.24522
1.29136
1
1
1
1
1
1
1
1
1
1
1
1
1
1
1
1
1
1
1
1
1
1.00827
1.00007
1.00008
1.00007
1.00008
1
1
1
1
1
1
1
1.02844
1.03141
1.05975
1.0624
3.17037
3.69501
3.17732
3.92586
2.59122
2.64671
2.76833
2.94483
1
1
1
1
1
3.99405
3.63605
1
1
1
1
1
1
1
1.00001
1
1.00001
1.00001
1.01122
1.00542
1.00642
1.00284
3.18791
3.08336
3.20935
1
1
1
1
1.00002
1.00002
1.00002
1.00002
3.96285
4.00446
4.07224
1
1
1
1
1
1
1
1
1
1
1
1.17445
1.18129
1
1
1
1
1
1
2.28673
2.39887
3.31262
3.25008
1.00771
1
1
1
1.00005
1.00011
1.00001
1.00001
1.00001
1.00001
3.10821
3.20231
3.79521
3.93763
4.05078
3.91304
2.17026
2.41201
2.45738
2.80555
1
1
1
1
1
1
1.00001
1.00001
1
1.00001
1.00001
1.00001
1
1
1
1
1
1
1.03105
1.02087
1.06682
1.03756
1.00085
1.00122
1.00051
1.00078
1.00037
1.00043
3.19196
3.10674
2.78325
2.62593
1.94054
2.46247
1.74024
2.01405
1.70128
1.90418
1
1
1
1
1
1
1
1
1
1
1.00036
1.00021
1.00073
1.00052
1.00034
1.00039
1
1
1
1
1.1977
1.16563
1.39331
1.34947
1.43441
1.40344
1
1
1.00001
1
1
1
1
1
1.00001
1.00001
1.00002
1.00003
1.00003
1.00003
1
1
1
1
1
1
1
1
1
1
1
1
1
1
1
1.11737
1.27924
1.05184
1.13457
1.06397
1.10626
1.01982
1.01481
1.04013
1.03499
1.04362
1.04377
1
1
1
1
1
1
1
1
1
1
1
1
1
1
1
2.97126
3.28805
3.28117
3.37627
1.98181
2.45957
1.86235
2.07374
2.39549
2.80783
2.13378
2.60224
1.02831
1.0179
1.01944
1.01432
1
1
1
1
1.00001
1
1
1
1.00001
1.00001
1
1
1
1
1
1
1
1
1
1
1.00001
1.00002
1.00001
1.00001
1
1
1
1
1
1
1
1
1.15486
1.2218
1.13672
1.18633
1
1
1
1
1.63182
1.48389
1.6925
1.59585
1.77295
2.10669
1.90839
2.10569
1.94985
2.14454
2.46822
2.47102
2.89946
2.88233
1.00003
1.00003
1.00004
1.00005
1.00008
1.00393
1.00474
1.01563
1.01276
1.03461
1.02225
1.00004
1.00003
1.00004
1.00003
1.08964
1.06765
1.05669
1.05437
1
1
1
1
1
1
1
1
1
1
1
1
1
1
1
1
1
1
1
1
1.00009
1.00007
1.0001
1.00009
1.00017
1.00029
1.00007
1.00013
1.00013
1.00023
1.00136
1.00282
1.00066
1.00152
1.00076
1.00012
1.00083
1.00016
1.13352
1.22428
1.10698
1.16394
1
1
1
1
1
1
1
1
1.00321
1.00278
1.00613
1.00605
1
1
5.16757
4.95667
1
1
1
1
1
1
1
1
1
1
1
1
1
1
1
1
1
1
1
1
1
1
1
1
1
1
1
1.00001
1.00025
1.0013
1.01222
1.08447
1.55401
2.83892
5.4692
6.13632
5.48966
5.64141
5.7667
5.83732
5.7226
5.78589
5.6438
5.39898
5.07944
4.73065
4.73669
4.71662
4.66378
5.12953
5.45313
2.49874
1.32913
1.05239
1.00722
1.00086
1.00011
1.00002
1
1
1
1
1
1
1
1
1
1
2.43062
1.2616
1.03105
1.00377
1.00065
1.00009
1.00002
1
1
1
1
1
1
1
1
1
1
2.65382
1.23133
1.01851
1.00229
1.00033
1.00006
1.00001
1
1
1
1
1
1
1
1
1
1
2.29817
1.22109
1.02091
1.00172
1.00018
1.00004
1.00001
1
1
1
1
1
1
1
1
1
1
2.14563
1.18093
1.01126
1.00085
1.00017
1.00004
1.00001
1
1
1
1
1
1
1
1
1
1
2.24295
1.20433
1.01564
1.00147
1.00018
1.00005
1.00001
1
1
1
1
1
1
1
1
1
1
2.38908
1.20792
1.02216
1.00249
1.00037
1.00007
1.00002
1.00001
1
1
1
1
1
1
1
1
1
2.81842
1.26685
1.03784
1.00434
1.0007
1.00013
1.00003
1.00001
1
1
1
1
1
1
1
1
1
3.03056
1.51176
1.07082
1.00978
1.00186
1.00031
1.00005
1.00001
1
1
1
1
1
1
1
1
1
3.69501
1.76165
1.16748
1.01854
1.00303
1.00074
1.0001
1.00001
1
1
1
1
1
1
1
1
1
3.93741
2.23881
1.41162
1.07141
1.00868
1.00121
1.00019
1.00001
1
1
1
1
1
1
1
1
1
3.87611
2.48282
1.53308
1.15015
1.02317
1.00285
1.00029
1.00002
1
1
1
1
1
1
1
1
1
4.11091
3.09311
1.82914
1.30084
1.05124
1.0055
1.00046
1.00001
1
1
1
1
1
1
1
1
1
4.82193
3.56271
2.06059
1.30132
1.0493
1.00661
1.00032
1.00001
1
1
1
1
1
1
1
1
1
4.28906
2.59003
2.32396
1.30424
1.05074
1.00516
1.00025
1.00001
1
1
1
1
1
1
1
1
1
4.12569
2.70935
1.82867
1.22568
1.03356
1.00359
1.0002
1
1
1
1
1
1
1
1
1
1
3.78566
2.31701
1.54976
1.14777
1.02367
1.00217
1.00008
1.00001
1
1
1
1
1
1
1
1
1
3.50558
2.12463
1.31677
1.05828
1.00723
1.00067
1.00007
1
1
1
1
1
1
1
1
1
1
1
5.39848
2.42851
1.31959
1.05377
1.00611
1.00087
1.00011
1.00002
1
1
1
1
1
1
1
1
1
1
1
1
1
1
1
1
1
1
1
1
1
1
1
1
1
1
1
1
1
1
5.18468
1
1
1
1
1
1
1
1
1
1
1.00001
1.00006
1.00052
1.00572
1.03419
1.29843
2.26471
5.56248
5.09337
6.44806
6.68381
6.81009
6.9138
6.84628
6.85537
6.59268
6.29732
5.98342
5.6867
5.54196
5.17261
5.11535
5.13547
5.14042
5.27367
5.48144
5.25799
1
1
4.74914
2.81987
1.31379
1.04148
1.0063
1.00077
1.00014
1.00002
1
1
1
1
1
1
1
1
1
1
1
1
1
1
1
1
1
1
1
1
1
1
1
1
1
1
1
1
1
1
1
1
1
1
1
1
1
1.00002
1.00017
1.00233
1.01401
1.09284
1.48289
2.84195
5.26344
5.62694
5.51669
5.32239
5.67637
5.98709
5.75794
5.58748
5.35645
5.15602
4.79316
4.94862
4.76023
4.48591
4.53559
4.71781
4.61262
1
1
1
1
1
1
1
1
1
1
1.00002
1.00011
1.00057
1.00362
1.03837
1.36235
2.25379
1
1
1
1
1
1
1
1
1
1
1.00002
1.00005
1.00027
1.00212
1.02451
1.16773
2.31946
1
1
1
1
1
1
1
1
1
1
1.00001
1.00004
1.00018
1.00128
1.01356
1.1949
2.21857
1
1
1
1
1
1
1
1
1
1
1.00001
1.00004
1.00014
1.00129
1.01189
1.14683
2.18704
1
1
1
1
1
1
1
1
1
1.00001
1.00001
1.00004
1.00019
1.00073
1.0134
1.18012
2.38222
1
1
1
1
1
1
1
1
1
1.00001
1.00002
1.00007
1.0003
1.00198
1.02521
1.2967
2.21378
1
1
1
1
1
1
1
1
1
1.00001
1.00003
1.00013
1.00057
1.00376
1.04494
1.39432
2.40197
1
1
1
1
1
1
1
1
1
1.00001
1.00005
1.00023
1.0012
1.01112
1.07814
1.42085
2.888
1
1
1
1
1
1
1
1
1
1.00002
1.0001
1.0006
1.00487
1.03104
1.15197
1.70382
3.3062
1
1
1
1
1
1
1
1
1
1.00002
1.00017
1.00175
1.01308
1.05949
1.33895
2.13932
3.85321
1
1
1
1
1
1
1
1
1
1.00002
1.00025
1.00288
1.02153
1.11366
1.61871
3.07082
4.80166
1
1
1
1
1
1
1
1
1
1.00001
1.00044
1.0047
1.04429
1.23235
2.03313
2.92545
4.28812
1
1
1
1
1
1
1
1
1
1.00001
1.00021
1.00565
1.06136
1.39718
2.02453
2.97064
4.37261
1
1
1
1
1
1
1
1
1
1.00001
1.00023
1.00512
1.04921
1.29308
2.01101
3.52942
4.12429
1
1
1
1
1
1
1
1
1
1
1.00024
1.00364
1.03688
1.21518
1.70149
2.87603
4.49899
1
1
1
1
1
1
1
1
1
1.00001
1.0001
1.00214
1.02605
1.12186
1.57081
2.87674
3.67112
1
1
1
1
1
1
1
1
1
1
1.00006
1.00072
1.00702
1.05421
1.36098
2.02899
3.29209
)
;

boundaryField
{
    sides
    {
        type            fixedValue;
        value           uniform 1;
    }
    top
    {
        type            fixedValue;
        value           uniform 1;
    }
    outlet
    {
        type            fixedValue;
        value           uniform 1;
    }
    bottom
    {
        type            fixedValue;
        value           uniform 1;
    }
    inlet
    {
        type            fixedValue;
        value           uniform 10;
    }
}


// ************************************************************************* //
