/*--------------------------------*- C++ -*----------------------------------*\
  =========                 |
  \\      /  F ield         | OpenFOAM: The Open Source CFD Toolbox
   \\    /   O peration     | Website:  https://openfoam.org
    \\  /    A nd           | Version:  6
     \\/     M anipulation  |
\*---------------------------------------------------------------------------*/
FoamFile
{
    version     2.0;
    format      ascii;
    class       surfaceScalarField;
    location    "3e-06";
    object      phi;
}
// * * * * * * * * * * * * * * * * * * * * * * * * * * * * * * * * * * * * * //

dimensions      [0 3 -1 0 0 0 0];

internalField   nonuniform List<scalar> 
4070
(
0.18687
-0.078199
0.0327023
-0.141373
-0.0602357
0.11643
-0.090881
0.0346863
-0.0731788
0.0931519
-0.0199729
-0.0818718
0.114158
-0.0322866
-0.140429
0.102588
0.0378409
0.00350091
-0.0775267
0.0740258
-0.0574045
0.0948921
-0.0374876
0.0736853
0.0274812
-0.101166
-0.0284805
0.102166
0.0734936
0.0338455
-0.107339
0.104346
-0.0308518
-0.061651
-0.0308757
0.0925269
-0.131999
-0.00843046
-0.0780627
0.106506
-0.0284428
-0.0795222
0.0830231
0.0654494
0.0364717
-0.101921
0.0291065
-0.110978
-0.0813796
0.023975
-0.0938504
-0.0140778
0.107928
0.115766
-0.0245174
-0.0912485
-0.0293377
0.0947871
0.0449597
-0.106611
-0.073244
0.105901
-0.0326571
0.0121821
0.103584
-0.0484601
-0.0453905
0.0253168
-0.103379
-0.0967137
0.0234699
0.0987535
-0.023298
-0.0754557
0.0374651
-0.0855863
0.0481212
-0.0309655
0.129719
-0.0589182
0.0963833
0.0941814
0.0253932
-0.00519867
-0.114376
0.10127
0.0264614
-0.0179197
-0.109812
-0.0256577
-0.00318925
-0.0300712
-0.0612661
-0.0279383
0.0892044
-0.0973221
0.118972
-0.0216498
0.027897
-0.0891631
-0.111968
0.0273147
0.0846533
-0.0255741
-0.0863938
-0.0878763
0.0146976
0.0655276
0.0266562
-0.092184
-0.109899
0.0125769
0.0720469
0.0221042
-0.0941512
-0.0226037
0.0881313
-0.0173525
0.0893992
-0.0519025
0.0845461
-0.0326437
-0.0745435
0.022641
-0.0805584
-0.0110405
0.0915988
0.0199555
-0.100514
-0.0745486
0.0989513
-0.0244027
0.102716
-0.0158891
-0.0868272
0.0649869
0.0255793
-0.0905663
0.0420566
0.042795
-0.0848513
0.0222449
0.0804712
-0.0866521
0.0121035
-0.083584
-0.00570308
0.089287
-0.0643157
0.0878309
-0.0235152
-0.0382951
0.0803519
0.0196505
-0.103235
-0.0219492
0.0869361
-0.0865875
0.0222719
-0.066112
0.103769
-0.0376569
0.0747123
0.0298233
-0.104536
0.0831927
-0.109524
0.0263316
-0.12615
0.100576
0.0255737
-0.125239
0.0291785
0.0960608
-0.0983903
-0.0277601
0.113145
-0.0247604
-0.0883848
-0.091206
0.0250939
0.0251787
0.0879668
-0.0725844
-0.0345228
0.107107
0.0336859
-0.10627
-0.0802764
-0.0194932
0.0997695
0.0327558
-0.113032
-0.130907
0.0358598
0.0950473
0.125877
-0.0980239
-0.0278529
-0.111831
0.0993384
0.0124926
-0.0970654
-0.0147657
0.0999225
0.0259545
-0.0796899
0.109332
-0.0296425
-0.108793
0.0291028
0.0744873
-0.102312
0.0278254
0.103648
-0.0291609
-0.128066
0.105859
0.0222066
-0.0281343
0.102847
-0.0707305
0.102618
-0.0318875
0.054039
0.0311034
-0.0851424
-0.0258933
-0.105013
-0.0811909
-0.0173395
0.0985304
-0.0259408
-0.0992988
-0.119842
0.0964931
0.0233486
-0.0738404
-0.0227918
0.096632
-0.0747583
0.101665
-0.0269067
0.126296
-0.0215267
-0.104769
0.102743
-0.0195501
-0.0670608
-0.0281383
0.0951994
-0.0933697
0.0226393
-0.091975
-0.0278669
-0.0758577
-0.0253838
0.101241
0.126508
-0.095616
-0.0308922
-0.121277
0.0945451
0.0267321
0.124881
-0.0244859
-0.100395
0.12213
-0.0878708
-0.0342592
-0.102256
0.0274979
0.0769132
-0.100755
0.0238422
0.0741229
0.0280479
-0.102171
0.0271207
0.0314121
-0.10727
0.0344154
-0.108256
-0.0732936
0.109264
-0.0359701
0.0740931
-0.102422
0.0283288
0.0666763
-0.0962445
0.0295682
-0.0264886
0.100611
0.10145
0.0250585
-0.0936474
-0.02763
0.0761831
-0.103389
0.0272053
0.066524
-0.0909212
0.0243972
0.0318225
0.0930587
0.103513
-0.0273297
0.124088
-0.0229417
-0.101146
0.0733108
-0.0986776
0.0253667
-0.0683825
-0.0309798
0.0993621
0.0986718
-0.0319955
0.0897629
0.032367
0.0264502
-0.107641
0.0902461
-0.0362071
0.0328877
0.101421
-0.0273285
-0.124236
0.0986143
0.0256218
-0.0958234
-0.0284127
0.112511
-0.0822441
-0.0302672
0.0278976
0.098398
-0.128754
0.108807
0.0199464
0.126169
-0.0266412
-0.0995283
0.10782
-0.0309071
-0.0995853
-0.0284805
0.123799
-0.0309216
-0.0928772
-0.101295
0.0280013
0.026886
0.0972018
0.102989
-0.0296783
0.124001
-0.0231871
-0.100814
0.0811359
0.0313754
-0.125359
0.0241255
0.101233
0.0282696
0.0978994
-0.0964852
-0.0288737
0.0902296
-0.0237056
0.0277885
0.0962127
-0.102072
-0.0266822
0.125516
-0.0184466
-0.10707
0.0296413
0.0941573
0.0816022
-0.00921084
-0.0723915
-0.125403
0.0294296
0.0959728
-0.0763471
-0.0250518
0.101399
0.024421
0.101095
-0.0195
-0.105903
0.0287467
-0.105094
0.0593349
0.0222672
-0.0310544
0.0283094
-0.0226579
0.0181394
0.00739491
0.0511464
-0.0677522
0.0778163
-0.0110866
-0.0818095
-0.0294346
-0.042427
0.101659
-0.0592316
0.0864752
0.00940204
-0.0958773
0.0160606
0.0821731
-0.0982335
-0.0444833
-0.136856
0.18134
0.03159
0.113427
-0.145017
0.111828
0.0345772
-0.146405
0.083396
0.0156861
-0.099082
-0.0282032
-0.103756
0.131959
0.0287673
-0.116446
0.0876784
-0.041747
-0.119791
0.161538
0.107589
-0.00645362
-0.101136
0.0285905
0.109431
-0.138022
-0.0427641
-0.132732
0.175496
-0.124784
-0.0476216
0.172405
0.0938584
-0.112061
0.0182027
0.106531
-0.0126729
-0.14136
0.0933339
0.0480266
-0.105679
-0.0356816
0.0871238
-0.110297
0.0231736
0.106519
-0.0193952
0.0686157
-0.106631
0.038015
-0.132906
0.0938622
0.0390442
-0.100292
-0.0326145
-0.029069
0.0976847
0.129068
-0.0229084
-0.106159
0.023902
0.105166
-0.075871
-0.0262416
0.102113
0.0572634
0.0918197
-0.149083
-0.0960723
0.0202013
0.140171
-0.104747
-0.0354239
-0.147022
0.115751
0.0312705
-0.106202
-0.0408198
-0.0991042
0.0273234
0.0717807
0.105323
0.0348482
-0.0450793
-0.0526566
0.0977355
0.071949
-0.117029
-0.0147955
0.0987074
-0.0839121
-0.22822
0.0404606
0.187761
-0.182476
0.15236
0.0301157
0.0476369
-0.100216
0.0525793
0.00787706
0.0226557
-0.0305323
-0.118933
-0.0635434
-0.0408573
0.0260615
-0.0292326
0.101923
-0.0726906
0.031596
-0.259816
-0.0222267
0.0132884
0.00893865
0.0979457
-0.0191586
-0.0787869
0.106021
-0.0981429
-0.0934938
0.0249165
0.0685771
-0.000114968
-0.0221112
-0.000148603
0.0980946
0.16235
-0.0900821
-0.0722676
0.0943632
0.0679863
0.0146663
0.098374
-0.0186771
0.0167995
-0.0966914
0.104017
0.0395187
0.0970039
-0.0321767
0.127635
-0.0532736
-0.118446
0.0440833
-0.132118
-0.122985
0.175581
0.118475
0.0327521
-0.122121
0.0321725
-0.0816679
-0.0501109
0.0996065
-0.11783
0.0112697
0.127752
-0.0211927
0.0332146
-0.0857587
-0.0491554
0.101699
-0.13607
-0.0546578
0.147272
0.043456
0.0286407
0.0945662
-0.0206049
-0.102602
0.0318238
-0.161623
-0.00258244
0.132381
0.0330007
0.0710404
-0.0104275
-0.093614
0.0854322
-0.100074
-0.0455946
-0.0307481
0.0622808
0.067391
-0.0989237
0.0787494
0.11353
0.163731
0.0747204
-0.0310797
0.194811
0.142383
-0.0579298
0.259116
-0.203628
0.0478112
0.155817
-0.0604164
0.254134
0.143668
-0.0469329
-0.150437
-0.057391
-0.196643
-0.0620171
-0.243576
0.114268
-0.0442539
-0.0378413
-0.0663066
-0.172635
0.121112
0.12006
-0.0465917
-0.040254
-0.0917898
0.140231
-0.0198005
-0.001627
-0.255588
0.121144
0.138169
-0.0488944
-0.057451
-0.0822393
0.138596
-0.0233562
0.209832
0.00323481
0.0354492
-0.110197
0.044
0.159983
-0.0924123
-0.0280517
0.0543581
-0.207706
-0.249274
-0.00630258
0.123459
0.216468
0.0124937
-0.110487
0.0984664
-0.0993912
0.0573161
-0.0737007
0.185861
0.0527194
-0.23858
0.196389
0.0511749
-0.247564
-0.0152689
-0.178369
0.193638
0.0447664
0.243836
-0.288602
0.185851
0.0505239
-0.236374
0.18682
0.0588384
-0.245658
-0.0181991
-0.164379
0.182579
0.0585914
0.198352
-0.256943
-0.029783
-0.166227
0.19601
0.196138
0.041588
-0.237726
0.0664547
0.223437
-0.289891
0.187326
0.0438959
-0.231222
0.0794324
0.219506
-0.298938
-0.167538
-0.0317286
0.199266
0.205813
0.0502908
-0.256104
0.210518
0.0614547
-0.271973
0.201348
0.0869502
-0.288298
0.227014
0.0903356
-0.317349
0.087888
0.203598
-0.291486
0.04791
-0.052465
0.200693
0.196467
-0.198872
0.0818375
0.209172
0.0739095
-0.195193
0.0555258
-0.0654352
0.19577
0.205088
-0.201558
-0.201189
0.214907
0.0624742
-0.0592881
0.193203
0.193952
0.0559693
-0.249921
0.0490188
0.228341
-0.27736
0.0673794
0.19902
-0.0468934
-0.121051
0.140955
-0.0351728
-0.0635186
0.0611913
0.188178
0.211285
-0.207804
0.0470425
-0.0820582
-0.175992
0.0796814
0.204917
-0.204107
0.0439565
0.210821
-0.207566
0.0479194
0.201651
0.161202
-0.119017
-0.17045
-0.0479061
0.200157
0.0636767
-0.0653119
0.188455
0.207602
0.0537206
-0.202484
0.210757
0.0509278
-0.203093
0.0621211
-0.0620793
0.19831
-0.0263789
0.0594474
-0.197447
-0.0449517
0.0803764
-0.0603805
0.0479001
0.199806
0.210048
0.061695
-0.205289
0.0744552
0.18195
-0.209777
0.208321
0.0430436
0.0584118
0.202868
-0.0554671
0.0836688
0.226766
-0.310435
0.0808802
0.190525
0.0842521
0.189308
-0.27356
-0.0349159
0.072131
0.189799
0.053111
0.186121
-0.239232
-0.0418381
-0.218811
0.193941
0.0667086
0.0625749
0.204705
-0.0567624
-0.207041
0.196636
0.0543013
-0.0610264
0.0598508
-0.166362
0.182677
0.101519
-0.197246
0.218457
0.0491818
-0.21862
-0.0376115
-0.169794
0.207406
0.199016
-0.183943
0.0752623
-0.0211859
0.220549
-0.199364
-0.0515773
-0.168566
0.220143
0.076863
0.221977
-0.29884
0.0547012
0.196656
-0.0574058
0.201023
0.0590155
-0.260039
0.0709696
0.221175
-0.292145
0.0856821
0.215466
-0.301148
0.195085
0.0566356
-0.195752
0.0479639
0.184302
-0.189956
-0.04231
0.150992
0.0454749
-0.042802
0.229985
-0.187183
0.0575737
0.191507
-0.249081
0.0644222
0.233323
-0.0694038
0.194504
-0.178731
-0.0369596
0.252975
-0.0532711
-0.199704
0.206113
-0.208159
0.197815
0.0548042
-0.195045
-0.210009
-0.0307446
0.209025
-0.211041
0.212078
0.0492542
0.171037
0.073088
-0.159873
-0.0278325
-0.181191
0.209023
-0.253442
0.211604
0.197073
0.0583539
-0.255427
-0.227197
0.236731
0.074135
-0.0229875
-0.154047
0.177036
0.210546
0.057331
-0.206422
-0.0460585
0.20755
0.0590575
0.218371
0.075239
0.209036
-0.0575084
0.0638261
0.145346
-0.0549746
0.0647273
0.179555
-0.147941
0.195851
0.188008
-0.227638
0.0396298
-0.2049
0.219222
-0.0658994
0.176916
0.0869276
-0.18698
0.192169
-0.197374
-0.0375974
0.0386988
-0.22672
0.188021
0.137196
-0.195653
0.0584573
0.197377
0.0251229
-0.222499
0.0511247
0.200075
-0.0650782
-0.0194852
-0.183692
0.203178
0.162775
0.055682
-0.0398703
-0.178941
0.188681
0.0548891
-0.0539037
-0.189667
-0.0504461
-0.14907
0.199516
-0.189282
-0.0405169
0.0612333
0.144566
-0.201077
-0.121941
0.154636
0.25713
-0.062626
0.0711414
0.11754
0.1773
0.0410707
0.231005
-0.0690617
0.068042
0.20235
-0.19393
0.0625504
-0.0502497
-0.154124
0.204373
0.217364
0.051804
-0.183486
0.0571924
-0.0557482
0.199579
0.203481
-0.0586829
0.0536473
-0.144836
0.199537
0.0553303
0.214868
-0.270198
0.124595
-0.189331
-0.150265
0.148641
0.204166
-0.22792
0.0318513
0.196068
-0.147303
0.123282
-0.172666
0.0493836
-0.253951
0.150717
-0.209581
0.241937
0.194598
-0.195242
0.0559746
-0.0797162
0.0871005
-0.18005
-0.333668
0.179649
-0.221603
0.0419536
-0.10794
0.181706
0.253373
-0.198484
0.0522995
-0.061458
0.200666
-0.196982
-0.0605564
0.199985
0.0575543
-0.0552675
0.0531443
0.199197
-0.214182
0.0496874
0.164494
-0.0540852
0.20642
0.0457484
-0.198084
-0.158546
-0.00197951
0.160527
-0.144766
0.208592
0.195217
-0.188768
0.124712
0.0195487
-0.224166
0.204617
-0.203109
-0.0858996
-0.0890005
0.1749
-0.0563788
0.197334
0.144127
0.0634749
-0.14585
-0.150901
0.260258
-0.203554
-0.0567032
-0.145445
-0.17728
-0.12727
-0.0689902
0.19626
-0.136355
0.187107
-0.0507518
0.167274
-0.213489
0.0462151
0.211072
-0.232527
0.0448659
0.187661
0.147761
0.197558
0.0635626
-0.261121
0.0618188
0.141384
-0.203203
0.143933
0.0583673
0.164401
-0.0832608
-0.0811405
-0.144683
0.0524702
0.203035
-0.197151
0.0675849
0.128332
-0.195917
0.222216
0.0531321
0.182549
0.0357409
-0.218289
-0.147411
0.195311
0.247792
-0.0556231
-0.0492247
-0.157887
0.207112
0.150273
0.0487435
-0.268377
0.214292
-0.231656
0.0422963
0.18936
0.0691649
0.188874
-0.0544413
0.144689
0.0548482
0.222404
0.202863
-0.201499
0.0576516
0.0547171
0.211933
0.152586
0.0420124
-0.248253
0.216735
0.0315172
0.199083
-0.259639
-0.195811
0.126813
0.0610205
0.19854
-0.25956
0.264628
-0.204815
-0.0598131
0.0572454
0.197316
-0.057003
-0.0404424
0.0945147
-0.208119
0.148233
0.0541167
0.255777
-0.207814
0.0667631
0.143285
-0.0655512
-0.125831
0.191383
-0.090716
0.171538
0.209756
-0.160015
-0.0497408
0.0480617
0.262042
-0.0571287
0.144686
-0.0814613
-0.104883
0.186344
0.17974
0.0569909
-0.212478
-0.0213682
0.233847
-0.0469195
0.2504
-0.193894
0.0574466
0.207589
-0.0643683
0.250383
-0.186015
-0.144717
-0.049618
0.194335
-0.110517
0.254979
0.0316409
0.00197452
0.212308
-0.214282
-0.211206
0.273007
-0.0618003
-0.198773
0.0549972
0.204797
0.293182
-0.0821107
-0.238575
0.191656
0.211925
-0.163864
0.180756
-0.102637
-0.0398969
0.194915
-0.155019
-0.0685222
0.0625732
-0.152597
-0.262104
0.210019
0.052085
-0.214521
0.0273378
-0.0419244
-0.216138
0.0628197
-0.195771
0.193925
-0.15279
0.211202
-0.0467914
-0.160556
0.207347
-0.248756
0.22017
0.0285855
-0.145629
-0.0337905
-0.17111
-0.0435199
-0.188137
-0.140314
-0.0758499
-0.100143
0.175993
0.199872
-0.0600032
-0.139869
0.255342
-0.0552101
-0.140112
-0.0464031
-0.189209
0.0490968
-0.221585
-0.0282378
-0.0971993
-0.201107
0.109097
0.0569164
-0.0560564
0.19768
-0.318785
0.0536531
0.204382
-0.0431677
-0.206681
-0.0476206
0.210782
-0.0643261
0.0558385
0.202393
-0.0529282
0.0951868
0.159914
0.221189
0.0594784
-0.206415
0.0243767
0.223697
-0.0416587
0.196489
-0.0625177
0.0603638
0.169892
-0.0727699
-0.0971219
0.170662
0.0433913
-0.214053
0.154993
-0.0679403
-0.0870532
-0.223705
0.0244983
0.200959
-0.225457
-0.146508
0.203424
-0.0741385
0.191678
-0.149895
-0.0567861
0.211627
-0.206659
0.0507138
-0.0476088
-0.214221
-0.260827
0.207649
0.0531771
0.149588
0.0507573
-0.200346
0.140433
-0.0568272
0.175828
-0.214314
0.0384857
-0.0532239
0.254815
-0.201592
-0.20233
-0.0487733
0.208601
-0.250525
-0.241422
-0.0194051
0.00938402
0.217255
-0.226639
0.214511
-0.0604256
0.195929
-0.0833816
0.311553
0.187415
0.0367869
-0.224202
-0.235035
0.237491
-0.00443499
0.190498
-0.243852
0.0305917
0.176518
-0.20711
-0.0971864
0.176209
-0.0790228
-0.0986751
-0.10134
0.200015
0.206239
0.309675
-0.0948306
-0.214845
0.208153
0.137475
-0.201062
0.251653
-0.148466
-0.104683
-0.0431146
0.147798
-0.131086
-0.0599496
0.191036
0.171481
0.0430299
-0.135504
-0.0502907
0.185795
0.20295
0.183308
-0.10717
-0.0761375
0.0239072
0.182331
-0.119512
-0.0455167
0.165029
0.298987
-0.0683204
-0.230666
-0.0514515
0.181535
0.0586834
0.125618
0.151089
0.0544633
-0.205553
0.213319
-0.0622298
0.145495
-0.206521
0.0663471
-0.197451
0.19422
0.0561634
-0.257378
0.0778062
0.179572
0.258303
-0.046665
-0.211638
-0.142081
0.199528
-0.213177
0.177035
0.036142
-0.184434
-0.0891541
0.06111
0.046602
0.238897
-0.285499
0.247295
-0.0719954
-0.1753
-0.203299
0.059105
0.144194
-0.0950416
-0.128612
0.0881502
-0.0828499
0.0616426
0.228857
0.205756
-0.0689683
-0.193491
0.151813
0.0769144
0.170381
-0.157826
-0.049903
0.274133
-0.206473
-0.067661
0.294641
-0.0873942
-0.207246
0.0680973
0.131059
-0.199156
0.22357
0.0491152
-0.272686
-0.251203
0.0529063
0.198297
0.205508
0.0557542
0.0582889
-0.146107
0.0567563
0.25126
-0.197608
-0.0536521
-0.145057
0.304172
-0.076352
0.0575201
0.150265
-0.207785
-0.190148
0.214525
0.199354
-0.261872
0.181626
-0.222904
0.0412776
0.19439
-0.0615975
-0.0564939
-0.150188
0.206682
-0.0839512
-0.227564
0.311515
0.140537
0.0604512
-0.0628383
0.0638323
0.209025
0.147518
0.0504168
-0.197935
-0.214175
0.0215477
0.192627
-0.0403093
0.230729
-0.23253
0.00180143
0.193061
-0.204299
0.0657011
-0.029444
0.0285419
-0.201621
-0.259272
0.0663264
0.192946
-0.20286
0.0593999
-0.0549673
0.198428
-0.147214
-0.0556465
0.197706
0.225073
-0.0063647
-0.218709
0.0556544
0.216763
-0.246915
0.0301518
-0.308006
0.211807
0.0961997
-0.188843
-0.0645994
-0.0518924
-0.14778
-0.0624958
-0.214864
0.247212
-0.191237
-0.154315
-0.0511466
0.205462
-0.227792
0.193962
-0.254293
-0.162333
-0.044297
0.20663
-0.187055
0.250334
-0.196399
0.0647679
-0.198266
-0.0565553
-0.271381
0.204515
-0.200324
0.145831
0.0544933
0.158751
0.0487991
0.0783622
0.0469374
0.179205
-0.0363009
0.249544
0.20722
0.0423237
-0.0622981
0.0547977
0.0904342
0.0887709
0.231157
0.0664966
-0.201872
0.0592711
-0.059044
-0.14616
-0.0557122
-0.0479047
0.189018
-0.051555
0.217452
-0.165897
-0.189816
0.056795
0.194732
-0.0617101
-0.21058
0.200268
-0.0399792
-0.208229
-0.0686593
0.201421
-0.252922
0.192036
0.245632
-0.18767
-0.0579619
0.0396232
-0.257713
0.21809
-0.242228
0.0807443
-0.0254651
0.0684153
0.181919
0.18151
-0.218236
0.0367263
-0.246278
0.221706
0.0929876
0.188594
-0.192034
0.067526
-0.195163
-0.06255
0.097878
-0.0493977
0.244536
-0.164512
-0.049582
0.214094
-0.147188
0.201519
-0.054331
-0.0586313
0.206699
-0.201681
-0.254421
0.0561205
0.1983
-0.221442
0.0969183
0.222402
-0.20582
-0.180185
-0.0404432
-0.195021
0.0548312
-0.202045
0.147593
-0.197595
0.0500024
0.0646821
0.200651
-0.0638134
-0.198802
0.0586119
0.252677
0.202879
-0.147685
-0.0543601
-0.202915
0.148584
-0.203279
-0.0551934
0.0596708
-0.245576
0.0241349
-0.0553224
0.244202
-0.0508044
-0.193397
0.100586
0.0597951
-0.160381
-0.0439309
-0.150312
0.178051
0.0167609
-0.0825773
0.171348
0.219633
0.0562206
-0.179654
-0.229819
-0.0359424
0.270982
-0.0589651
-0.212017
-0.193189
0.197537
-0.198206
0.0754157
0.223377
-0.25647
0.0579295
-0.219384
0.196463
0.022921
-0.17855
0.202008
-0.053151
0.0531102
-0.201968
-0.100695
-0.0513476
0.156713
-0.147319
-0.0545542
0.201873
0.323256
-0.0902257
-0.23303
0.0546897
0.0543622
-0.200522
-0.139874
-0.255831
0.0576253
-0.197198
0.0484631
-0.18471
0.191051
-0.19958
0.0567436
-0.207368
-0.206112
-0.0496825
-0.193893
-0.0604573
0.196954
0.0934368
-0.202374
-0.0263391
0.0410249
0.183693
-0.224718
-0.185808
0.211692
-0.136276
0.259957
-0.0587615
-0.201196
0.185081
0.145323
-0.202653
0.05733
-0.196411
0.0551814
-0.0584435
0.199673
-0.0645147
0.14052
-0.209042
0.259163
-0.209982
0.206852
-0.210124
0.242679
-0.0325552
0.0538292
-0.243645
0.153563
-0.185263
0.0316999
0.145807
0.145134
-0.200846
-0.0616905
-0.2225
-0.0408008
0.198701
0.151535
-0.188684
0.0371481
0.180247
0.039896
0.0797593
-0.224705
0.0587385
0.25238
-0.0537499
-0.19863
0.0538087
0.232236
-0.165001
-0.0672349
-0.060958
0.198334
-0.149261
-0.0490731
0.19738
-0.196025
0.0496979
-0.0510542
0.031846
-0.0636634
0.215199
-0.0497774
-0.15605
0.208585
-0.0525352
-0.18658
0.149414
0.0371654
0.0538792
-0.0586351
0.20309
-0.152923
-0.226406
-0.208805
0.0404784
0.222535
0.206435
-0.0522997
-0.207554
0.302576
-0.232652
-0.0699242
0.160376
0.0460448
0.281814
-0.214999
-0.066816
-0.162318
0.205931
-0.0436133
-0.21584
0.194335
-0.0421587
0.248989
-0.194875
-0.0541138
-0.150165
-0.0501809
0.0737397
0.175249
0.206043
-0.219343
0.0132999
-0.164821
-0.0563118
0.221132
-0.146356
0.203151
-0.212416
-0.0615429
-0.0589735
0.195938
-0.203651
0.199414
-0.247035
-0.0867361
0.0854553
-0.187403
-0.0753681
-0.203427
0.056009
0.212846
-0.148384
-0.0574594
0.2463
-0.0815935
-0.164707
-0.105103
0.230493
-0.0847949
-0.234611
0.319406
-0.186633
0.0675711
0.181408
-0.033513
0.232624
-0.0523765
-0.277808
0.0531032
-0.0639044
0.206444
-0.206507
-0.208364
-0.142449
-0.0681299
0.0569475
-0.256087
0.19914
-0.0516556
0.187831
-0.0532907
0.199043
-0.200195
0.0544428
-0.0896991
-0.179516
0.208486
-0.0771122
-0.0547447
0.196281
0.0567602
-0.0627375
0.0589773
0.20144
-0.1012
0.0385993
-0.183308
0.192712
0.0596684
0.0540775
0.192223
-0.233554
0.185138
0.048416
0.0257245
0.196679
0.181069
-0.25785
0.2154
0.0424503
-0.194554
0.235118
-0.18104
0.231083
-0.00601012
-0.1927
0.251303
-0.0539229
0.147406
-0.200696
-0.0932619
0.173021
0.0581123
0.202722
-0.197271
0.0766522
-0.0501783
0.195985
-0.151149
-0.0544035
-0.0693738
-0.0311934
-0.191306
-0.19339
-0.0502547
-0.192918
0.198684
0.141518
-0.197231
0.0557128
0.145701
-0.206928
0.0612275
-0.00356581
0.225782
0.180036
-0.0295498
-0.250443
0.201209
0.0492339
-0.278333
0.0666929
0.21164
-0.0469708
-0.231362
-0.0860367
0.171416
-0.0853792
-0.253837
0.21583
0.0380068
-0.059167
-0.191276
-0.180305
-0.0735321
-0.103682
0.0878508
0.212709
-0.159063
-0.0526558
0.198169
0.0544054
-0.199919
0.202052
0.0684561
-0.254846
0.18639
0.29239
-0.0807858
-0.0361216
0.185536
0.148679
-0.14464
-0.23742
0.322875
0.14779
0.174895
-0.0667765
0.0726041
0.147506
-0.200162
0.0547602
-0.0816335
0.219096
0.0541215
0.145406
0.249237
-0.252286
0.0715053
-0.197873
-0.129548
0.18823
-0.058682
0.283868
-0.0608932
0.269046
-0.0609197
-0.207458
-0.255091
0.21429
-0.23432
0.0770861
0.0628908
0.199151
0.184078
-0.0988597
0.104075
-0.189295
0.202506
0.213988
-0.0637989
0.172601
0.219976
0.06433
-0.214087
0.248474
-0.185701
-0.0627731
0.0582443
-0.0588167
0.198773
-0.061297
-0.134564
-0.220884
0.0361236
-0.226187
-0.0375004
0.205711
-0.0430431
0.199468
-0.254568
-0.24221
0.215174
-0.0439413
-0.189613
0.0398914
0.207815
0.181092
0.0703699
-0.251462
0.197595
-0.165954
-0.269155
0.222184
0.0210885
0.253958
-0.059226
0.188487
-0.245358
0.0568707
0.152198
-0.195345
0.0431469
0.195757
-0.194794
0.0494526
0.252642
-0.0749947
-0.177647
-0.234798
-0.0387431
0.155967
-0.192926
-0.261877
0.0654661
0.204219
-0.146973
-0.129875
-0.221911
-0.0468764
0.192577
0.189089
0.0666798
0.208136
0.0254748
-0.227498
-0.062665
0.0783368
0.211826
-0.0383562
-0.249699
0.1859
-0.183189
0.0486244
-0.0721233
-0.202196
0.0595364
0.214783
0.220879
0.0166793
-0.237558
-0.208578
0.024996
-0.0462827
-0.173588
-0.0656612
0.21786
0.191166
-0.127334
0.0167099
-0.0437633
0.177874
0.0213917
0.250131
-0.192761
0.261821
-0.0690606
0.245215
-0.0389851
-0.20623
0.0319159
0.150256
0.0338225
-0.141228
0.177351
0.256226
-0.199208
-0.0570182
0.250555
-0.189321
-0.0499112
-0.242572
0.054691
0.187881
-0.0495898
0.0669994
-0.228348
0.210938
-0.0380802
-0.204492
-0.276857
0.194343
0.0825135
-0.140384
-0.0838805
0.059444
-0.0421185
0.167957
0.0370372
0.20741
0.054375
-0.252561
0.0648331
0.187728
-0.220645
0.0575832
-0.0557166
-0.199474
-0.2541
0.0575492
0.196551
-0.0672316
0.0655287
-0.0655551
0.0615761
-0.193252
-0.253985
0.0438613
0.150745
0.0479258
-0.198671
-0.0669008
0.217645
-0.0667464
0.197369
0.203102
-0.0362558
-0.204311
0.0704342
0.252689
-0.192963
-0.0597263
0.198277
0.0544122
0.254128
-0.0578467
0.217704
0.0349385
0.17397
-0.21679
-0.25382
0.20423
0.188665
-0.148186
-0.244024
0.191725
0.158956
0.0297092
-0.253308
0.210307
0.0430012
-0.201926
-0.211728
0.160052
0.0516757
-0.0493309
-0.194693
0.207609
-0.148226
-0.0593836
-0.087476
-0.0845308
0.172007
-0.228271
0.199757
-0.21076
0.203562
-0.200676
0.0547085
-0.195093
0.0799912
-0.257874
0.191188
-0.17639
0.221317
-0.252062
-0.209261
0.0729986
-0.0513597
-0.188978
0.254768
-0.192264
-0.0625045
0.190849
-0.130398
-0.242251
0.0527009
-0.201962
0.0524701
0.151749
-0.0822575
0.291729
-0.209471
-0.0524987
0.191283
-0.196084
0.251839
0.0480895
-0.211953
-0.061088
-0.200789
-0.201583
0.0603549
0.0727993
0.0715056
0.249821
-0.195942
-0.201008
0.215953
0.17096
-0.0776193
-0.0573641
-0.203757
0.255602
-0.20931
0.0570525
0.148475
-0.205527
0.207657
-0.0946043
-0.25249
0.220246
0.0970773
0.222318
-0.246394
0.0240756
-0.0494377
0.195358
-0.188092
0.199523
-0.0541171
-0.19918
-0.0549194
-0.184278
-0.244322
0.191721
-0.0350942
-0.235066
0.078438
-0.0576809
0.256724
0.0466708
0.196263
0.23584
-0.3347
-0.0214558
-0.22457
-0.0556501
0.253819
0.0160194
-0.154959
-0.252084
0.252878
0.149358
-0.202864
0.0535058
-0.194779
0.0528356
0.20872
-0.0598612
-0.178298
0.247598
-0.0693
-0.199612
0.171589
0.0220488
0.0565877
-0.201227
-0.0532864
0.204217
-0.0567113
0.16181
-0.0649199
-0.147215
0.202397
0.224025
0.0315779
-0.0126942
-0.212393
0.225088
0.0715509
-0.247543
-0.191538
0.0539845
-0.245522
-0.194731
-0.202087
0.255808
0.0177121
-0.237221
0.202048
0.169884
-0.0673367
-0.0497016
0.198023
0.0528883
-0.254043
0.0519557
-0.00308143
0.127459
-0.177362
-0.184879
-0.0767156
-0.201297
-0.0527458
0.055156
0.201811
0.254499
-0.197048
-0.0574515
0.221987
-0.0503981
-0.0673398
0.249909
-0.18257
0.245559
-0.183863
0.0597685
0.255915
-0.0585988
0.123454
0.189899
0.01358
-0.253593
0.0568048
0.196788
-0.192188
-0.0614056
-0.209204
-0.0627685
-0.246312
0.156592
-0.245583
0.0611486
-0.0711864
0.210269
0.217983
0.0296152
-0.176096
-0.0513985
-0.134216
-0.0667928
-0.253748
0.0546081
0.19914
-0.196343
-0.0574044
0.0237339
-0.209175
0.185441
-0.0203307
0.177636
0.262679
-0.0567714
-0.205908
0.0441817
0.21247
0.202164
-0.225918
-0.0445235
0.204061
-0.0690876
-0.186482
-0.0683638
0.220894
-0.253449
-0.0486415
0.250081
-0.277511
0.210172
0.248902
-0.200486
0.0217615
-0.179833
-0.190095
0.0613114
0.250072
-0.212466
0.0615374
0.202591
-0.183272
-0.0574512
0.0547085
-0.228327
0.206726
0.0425107
-0.0532218
0.0308956
-0.205031
-0.0472554
-0.0493499
0.252218
0.176272
0.0156565
0.247732
-0.07146
-0.054405
0.0563405
0.196342
0.192416
-0.215865
0.182442
-0.277373
0.0949312
0.0467275
-0.224701
0.209673
-0.0276098
-0.200738
-0.251456
0.0665766
-0.217089
0.0711531
0.210257
-0.192703
0.184735
0.0650204
-0.0355228
-0.124376
0.138531
-0.236729
0.0534562
-0.193515
-0.0579465
0.195084
-0.0572049
0.21584
0.0173002
-0.23314
0.209417
-0.15972
-0.212502
0.168025
0.0444763
-0.251862
0.189197
-0.0514027
0.200761
0.04965
0.190189
-0.0486726
-0.15816
-0.25292
0.0507238
0.204023
-0.190635
-0.0171214
-0.206173
0.260864
-0.182315
-0.0358062
-0.218179
-0.0934876
0.194854
-0.0646311
0.184932
0.0633924
-0.027594
0.156241
-0.184624
-0.0771613
-0.262529
0.0533253
-0.0736426
-0.18583
0.203876
-0.197762
0.0593519
0.0421913
0.202912
-0.248504
0.0711612
0.177343
-0.250097
0.0771687
-0.319955
-0.251336
0.224799
0.0265365
-0.198888
-0.049261
0.0464717
-0.0897786
0.0993635
-0.145836
0.192564
-0.255505
0.214308
0.0411968
0.196564
-0.0473542
-0.208151
-0.0804925
-0.186597
0.0642249
0.0566613
0.0502526
-0.251676
0.201423
0.244935
-0.055036
0.202993
-0.190174
0.190001
0.164012
-0.191832
-0.241344
0.288274
-0.0739839
-0.0300186
0.156988
0.180243
0.0250511
-0.188907
0.0311854
0.200158
-0.0420339
0.209276
-0.198408
-0.144217
0.164994
-0.186731
-0.195805
0.197215
-0.0522549
-0.242653
0.0492684
0.193385
0.0663633
0.19804
0.056509
0.147527
-0.212158
-0.0532597
0.201827
0.265911
0.200058
-0.20329
-0.259932
0.195941
0.0639911
-0.256557
0.0566381
0.2497
-0.20411
-0.0455902
-0.0770662
-0.21442
-0.244608
0.209085
0.20161
-0.246133
0.205389
-0.155937
-0.0556822
0.199812
0.190592
-0.064974
0.0101675
0.204991
0.0850006
-0.176599
-0.176953
-0.0626234
0.267002
0.0291738
-0.21353
-0.0636465
0.0683904
0.176882
-0.0898581
0.207814
0.069925
-0.0687721
-0.0250803
-0.196635
0.0507989
0.0423663
-0.088301
0.0781522
0.198137
0.256654
0.201084
0.0620309
0.0689915
0.0544704
0.0570202
-0.0540868
-0.0868139
0.0675298
0.156979
0.175142
-0.110482
0.234254
0.200995
0.0557289
-0.039403
0.215356
0.198807
-0.203601
0.0598616
0.0528969
-0.252105
-0.0923848
-0.242315
0.211236
0.208793
0.058291
0.0573936
-0.0614105
0.060345
0.18459
-0.0582592
0.0648276
-0.202066
-0.25122
0.216126
-0.199901
0.246572
-0.183886
0.211505
-0.203356
0.253566
-0.0427337
-0.192816
-0.0295433
-0.0309899
0.0640047
-0.198749
0.0569389
-0.0667335
-0.19732
0.0388667
-0.259316
0.220449
0.253396
-0.203746
0.197032
-0.0508656
0.148907
-0.212554
0.0158175
0.208458
0.191785
-0.197992
0.258045
-0.204056
0.203456
0.129139
0.0667116
-0.232854
-0.0890914
0.202392
0.0653362
-0.0660443
-0.195887
0.195575
-0.055409
-0.0148704
-0.192261
0.215687
-0.0587083
0.029496
-0.225565
-0.220435
0.176777
-0.198473
0.0737606
-0.0945894
-0.0877767
0.233446
0.0676657
-0.201378
0.0613872
0.0671293
-0.202358
-0.205389
0.206207
-0.195461
0.17785
-0.0309144
0.160916
-0.192869
-0.0579185
0.255281
-0.320201
-0.0709473
0.209478
0.076973
-0.213834
0.208022
0.163073
0.215661
-0.0631232
0.0356597
-0.223668
0.0906791
0.189295
-0.238645
0.210386
0.215917
-0.0665715
-0.108783
0.175354
-0.294454
0.216834
-0.0475954
0.0487876
-0.050399
-0.125377
0.220173
-0.213753
0.0691338
0.195092
-0.181317
-0.047492
0.196637
-0.130063
0.267386
0.205326
0.0470103
-0.190107
0.19335
0.217286
-0.197685
-0.0539903
0.180387
0.0431309
-0.182343
0.207021
-0.192691
0.0700979
0.168491
-0.18623
0.0532173
-0.0613865
-0.0842974
0.222435
0.134743
0.060568
0.0658421
-0.0498377
0.0689289
-0.0141871
-0.0377719
0.189456
0.0651106
0.207291
0.219041
-0.197649
0.218963
-0.208705
0.0312857
-0.176387
0.178773
0.0293709
-0.18242
-0.196167
0.0506558
0.252668
-0.0722806
0.027779
-0.184848
-0.0806993
0.175579
-0.215601
0.252158
-0.0733847
-0.203616
0.213222
-0.240072
0.175704
0.010529
-0.218046
-0.0764081
-0.193404
-0.0435657
0.0464425
0.190527
0.0618677
0.0168495
-0.209142
-0.205094
-0.249996
0.0565927
0.196032
-0.044475
-0.183021
-0.0682
0.0606411
0.242908
-0.0672041
0.0298608
-0.257006
0.0532596
0.196957
-0.047762
0.0513544
0.196895
-0.0100899
-0.187118
-0.0605409
-0.0308903
0.0584951
0.0422723
0.0613014
0.191367
-0.0446289
0.19967
-0.213269
0.0624229
-0.177054
0.168828
0.220431
0.205883
-0.0574012
0.204509
0.0772237
0.0695884
-0.0229852
0.0436094
0.059045
-0.060968
-0.05796
0.23033
-0.0614234
0.207208
0.242632
0.0424506
-0.141578
-0.0664272
0.0991793
-0.06928
-0.0537046
-0.0205255
0.0716717
-0.0956597
-0.0376839
-0.0238204
-0.0946258
0.0238163
-0.0974834
0.110772
0.0670954
0.0299087
-0.0803246
0.137588
0.103717
-0.122876
0.209525
0.0276194
-0.133821
-0.0289768
-0.0615687
-0.0375357
0.16393
0.0303086
-0.149242
-0.0237062
-0.0697877
0.029619
-0.134366
0.0329975
0.0190307
0.0529178
-0.0977628
0.0686936
0.0473341
-0.0751833
-0.215137
0.0535133
-0.111155
0.0882462
-0.0365065
0.103031
-0.0665246
-0.0998851
0.0272886
0.0792426
0.029
0.077519
0.110662
0.0657854
-0.00350467
0.101005
-0.00767141
0.0193375
-0.0242967
0.024903
0.0770718
-0.069228
-0.114003
0.0973456
-0.104262
-0.0285072
-0.0541953
0.0482166
-0.0504189
0.070719
0.0336687
0.0727516
-0.0664012
0.137467
0.127259
-0.109035
0.100007
0.00249452
-0.198987
-0.114442
0.00790778
0.0729802
0.0289711
0.0785769
0.0358413
0.0742772
-0.0931394
-0.126433
0.105549
-0.130572
0.125443
0.0730935
0.0543591
-0.0803385