/*--------------------------------*- C++ -*----------------------------------*\
  =========                 |
  \\      /  F ield         | OpenFOAM: The Open Source CFD Toolbox
   \\    /   O peration     | Website:  https://openfoam.org
    \\  /    A nd           | Version:  6
     \\/     M anipulation  |
\*---------------------------------------------------------------------------*/
FoamFile
{
    version     2.0;
    format      ascii;
    class       volVectorField;
    location    "3.83";
    object      U;
}
// * * * * * * * * * * * * * * * * * * * * * * * * * * * * * * * * * * * * * //

dimensions      [0 1 -1 0 0 0 0];

internalField   nonuniform List<vector> 
10000
(
(0.8944 0.4472 0)
(0.8944 0.4472 0)
(0.8944 0.4472 0)
(0.8944 0.4472 0)
(0.8944 0.4472 0)
(0.8944 0.4472 0)
(0.8944 0.4472 0)
(0.8944 0.4472 0)
(0.8944 0.4472 0)
(0.8944 0.4472 0)
(0.8944 0.4472 0)
(0.8944 0.4472 0)
(0.8944 0.4472 0)
(0.8944 0.4472 0)
(0.8944 0.4472 0)
(0.8944 0.4472 0)
(0.8944 0.4472 0)
(0.8944 0.4472 0)
(0.8944 0.4472 0)
(0.8944 0.4472 0)
(0.8944 0.4472 0)
(0.8944 0.4472 0)
(0.8944 0.4472 0)
(0.8944 0.4472 0)
(0.8944 0.4472 0)
(0.8944 0.4472 0)
(0.8944 0.4472 0)
(0.8944 0.4472 0)
(0.8944 0.4472 0)
(0.8944 0.4472 0)
(0.8944 0.4472 0)
(0.8944 0.4472 0)
(0.8944 0.4472 0)
(0.8944 0.4472 0)
(0.8944 0.4472 0)
(0.8944 0.4472 0)
(0.8944 0.4472 0)
(0.8944 0.4472 0)
(0.8944 0.4472 0)
(0.8944 0.447201 0)
(0.894399 0.447201 0)
(0.894399 0.447201 0)
(0.894399 0.447202 0)
(0.894399 0.447203 0)
(0.894399 0.447204 0)
(0.8944 0.447205 0)
(0.894401 0.447205 0)
(0.894404 0.447206 0)
(0.894407 0.447204 0)
(0.894412 0.447201 0)
(0.894418 0.447195 0)
(0.894423 0.447187 0)
(0.894428 0.447178 0)
(0.894431 0.447168 0)
(0.894431 0.447159 0)
(0.894427 0.447153 0)
(0.894419 0.447151 0)
(0.894406 0.447156 0)
(0.894389 0.447169 0)
(0.894368 0.447191 0)
(0.894346 0.447222 0)
(0.894324 0.447263 0)
(0.894305 0.447313 0)
(0.894291 0.447368 0)
(0.894283 0.447428 0)
(0.894286 0.447487 0)
(0.894298 0.44754 0)
(0.894316 0.447584 0)
(0.894343 0.447618 0)
(0.894373 0.447634 0)
(0.894404 0.447637 0)
(0.894435 0.447624 0)
(0.89446 0.447595 0)
(0.894477 0.447557 0)
(0.894489 0.44751 0)
(0.894493 0.447456 0)
(0.894488 0.447404 0)
(0.89448 0.447354 0)
(0.894467 0.447309 0)
(0.894452 0.44727 0)
(0.894437 0.44724 0)
(0.894424 0.447217 0)
(0.894412 0.447202 0)
(0.894404 0.447193 0)
(0.894398 0.447188 0)
(0.894395 0.447186 0)
(0.894393 0.447187 0)
(0.894393 0.447189 0)
(0.894394 0.447191 0)
(0.894395 0.447193 0)
(0.894396 0.447195 0)
(0.894397 0.447197 0)
(0.894398 0.447198 0)
(0.894399 0.447199 0)
(0.894399 0.447199 0)
(0.894399 0.447199 0)
(0.8944 0.4472 0)
(0.8944 0.4472 0)
(0.8944 0.4472 0)
(0.8944 0.4472 0)
(0.8944 0.4472 0)
(0.8944 0.4472 0)
(0.8944 0.4472 0)
(0.8944 0.4472 0)
(0.8944 0.4472 0)
(0.8944 0.4472 0)
(0.8944 0.4472 0)
(0.8944 0.4472 0)
(0.8944 0.4472 0)
(0.8944 0.4472 0)
(0.8944 0.4472 0)
(0.8944 0.4472 0)
(0.8944 0.4472 0)
(0.8944 0.4472 0)
(0.8944 0.4472 0)
(0.8944 0.4472 0)
(0.8944 0.4472 0)
(0.8944 0.4472 0)
(0.8944 0.4472 0)
(0.8944 0.4472 0)
(0.8944 0.4472 0)
(0.8944 0.4472 0)
(0.8944 0.4472 0)
(0.8944 0.4472 0)
(0.8944 0.4472 0)
(0.8944 0.4472 0)
(0.8944 0.4472 0)
(0.8944 0.4472 0)
(0.8944 0.4472 0)
(0.8944 0.4472 0)
(0.8944 0.4472 0)
(0.8944 0.4472 0)
(0.8944 0.4472 0)
(0.8944 0.4472 0)
(0.8944 0.4472 0)
(0.8944 0.4472 0)
(0.8944 0.4472 0)
(0.8944 0.4472 0)
(0.8944 0.4472 0)
(0.894399 0.447201 0)
(0.894399 0.447201 0)
(0.894399 0.447202 0)
(0.894398 0.447203 0)
(0.894398 0.447204 0)
(0.894398 0.447206 0)
(0.894399 0.447208 0)
(0.894401 0.447209 0)
(0.894404 0.447209 0)
(0.894409 0.447208 0)
(0.894416 0.447204 0)
(0.894423 0.447198 0)
(0.894431 0.447189 0)
(0.894436 0.447179 0)
(0.894439 0.447171 0)
(0.894438 0.447165 0)
(0.89443 0.447165 0)
(0.894415 0.447175 0)
(0.894395 0.447195 0)
(0.894368 0.44723 0)
(0.894338 0.44728 0)
(0.894304 0.447344 0)
(0.89427 0.447422 0)
(0.894241 0.447513 0)
(0.894219 0.447613 0)
(0.894207 0.447715 0)
(0.894209 0.447816 0)
(0.894225 0.447908 0)
(0.894256 0.447984 0)
(0.894297 0.448039 0)
(0.894348 0.44807 0)
(0.894402 0.448072 0)
(0.894453 0.448047 0)
(0.8945 0.447998 0)
(0.894537 0.447924 0)
(0.89456 0.447837 0)
(0.894572 0.44774 0)
(0.894571 0.447639 0)
(0.894557 0.447543 0)
(0.894537 0.447454 0)
(0.894512 0.447377 0)
(0.894485 0.447314 0)
(0.894459 0.447265 0)
(0.894436 0.447229 0)
(0.894419 0.447206 0)
(0.894406 0.447192 0)
(0.894397 0.447185 0)
(0.894393 0.447183 0)
(0.894391 0.447184 0)
(0.894391 0.447187 0)
(0.894392 0.44719 0)
(0.894394 0.447193 0)
(0.894395 0.447195 0)
(0.894397 0.447197 0)
(0.894398 0.447198 0)
(0.894399 0.447199 0)
(0.894399 0.447199 0)
(0.894399 0.4472 0)
(0.8944 0.4472 0)
(0.8944 0.4472 0)
(0.8944 0.4472 0)
(0.8944 0.4472 0)
(0.8944 0.4472 0)
(0.8944 0.4472 0)
(0.8944 0.4472 0)
(0.8944 0.4472 0)
(0.8944 0.4472 0)
(0.8944 0.4472 0)
(0.8944 0.4472 0)
(0.8944 0.4472 0)
(0.8944 0.4472 0)
(0.8944 0.4472 0)
(0.8944 0.4472 0)
(0.8944 0.4472 0)
(0.8944 0.4472 0)
(0.8944 0.4472 0)
(0.8944 0.4472 0)
(0.8944 0.4472 0)
(0.8944 0.4472 0)
(0.8944 0.4472 0)
(0.8944 0.4472 0)
(0.8944 0.4472 0)
(0.8944 0.4472 0)
(0.8944 0.4472 0)
(0.8944 0.4472 0)
(0.8944 0.4472 0)
(0.8944 0.4472 0)
(0.8944 0.4472 0)
(0.8944 0.4472 0)
(0.8944 0.4472 0)
(0.8944 0.4472 0)
(0.8944 0.4472 0)
(0.8944 0.4472 0)
(0.8944 0.4472 0)
(0.8944 0.4472 0)
(0.8944 0.4472 0)
(0.8944 0.4472 0)
(0.8944 0.4472 0)
(0.8944 0.4472 0)
(0.8944 0.447201 0)
(0.894399 0.447201 0)
(0.894399 0.447202 0)
(0.894398 0.447203 0)
(0.894398 0.447205 0)
(0.894397 0.447207 0)
(0.894397 0.447209 0)
(0.894398 0.447212 0)
(0.8944 0.447214 0)
(0.894405 0.447215 0)
(0.894412 0.447214 0)
(0.89442 0.44721 0)
(0.89443 0.447204 0)
(0.894438 0.447196 0)
(0.894444 0.447188 0)
(0.894444 0.447185 0)
(0.894437 0.44719 0)
(0.894422 0.447209 0)
(0.894396 0.447245 0)
(0.894362 0.447302 0)
(0.89432 0.447384 0)
(0.894272 0.44749 0)
(0.894221 0.447622 0)
(0.894171 0.447775 0)
(0.894128 0.447946 0)
(0.894095 0.448128 0)
(0.894079 0.448314 0)
(0.894084 0.448492 0)
(0.89411 0.448652 0)
(0.89416 0.448786 0)
(0.89423 0.44888 0)
(0.894314 0.448927 0)
(0.894405 0.448926 0)
(0.894496 0.448874 0)
(0.894578 0.448777 0)
(0.894647 0.448641 0)
(0.894695 0.448474 0)
(0.894718 0.44829 0)
(0.89472 0.448101 0)
(0.894703 0.447916 0)
(0.89467 0.447744 0)
(0.894626 0.447595 0)
(0.894579 0.447469 0)
(0.894531 0.447369 0)
(0.894488 0.447295 0)
(0.894452 0.447243 0)
(0.894425 0.44721 0)
(0.894407 0.447191 0)
(0.894396 0.447182 0)
(0.89439 0.44718 0)
(0.894388 0.447182 0)
(0.894389 0.447185 0)
(0.894391 0.447189 0)
(0.894393 0.447192 0)
(0.894395 0.447195 0)
(0.894397 0.447197 0)
(0.894398 0.447198 0)
(0.894399 0.447199 0)
(0.894399 0.447199 0)
(0.8944 0.4472 0)
(0.8944 0.4472 0)
(0.8944 0.4472 0)
(0.8944 0.4472 0)
(0.8944 0.4472 0)
(0.8944 0.4472 0)
(0.8944 0.4472 0)
(0.8944 0.4472 0)
(0.8944 0.4472 0)
(0.8944 0.4472 0)
(0.8944 0.4472 0)
(0.8944 0.4472 0)
(0.8944 0.4472 0)
(0.8944 0.4472 0)
(0.8944 0.4472 0)
(0.8944 0.4472 0)
(0.8944 0.4472 0)
(0.8944 0.4472 0)
(0.8944 0.4472 0)
(0.8944 0.4472 0)
(0.8944 0.4472 0)
(0.8944 0.447201 0)
(0.8944 0.447199 0)
(0.8944 0.4472 0)
(0.8944 0.4472 0)
(0.8944 0.4472 0)
(0.8944 0.4472 0)
(0.894401 0.4472 0)
(0.894399 0.4472 0)
(0.8944 0.4472 0)
(0.8944 0.4472 0)
(0.8944 0.4472 0)
(0.8944 0.4472 0)
(0.8944 0.4472 0)
(0.8944 0.4472 0)
(0.8944 0.4472 0)
(0.8944 0.4472 0)
(0.8944 0.4472 0)
(0.8944 0.4472 0)
(0.8944 0.4472 0)
(0.8944 0.4472 0)
(0.894399 0.447201 0)
(0.894398 0.447201 0)
(0.894398 0.447203 0)
(0.894397 0.447204 0)
(0.894396 0.447207 0)
(0.894396 0.44721 0)
(0.894396 0.447214 0)
(0.894397 0.447218 0)
(0.8944 0.447221 0)
(0.894406 0.447223 0)
(0.894414 0.447223 0)
(0.894425 0.44722 0)
(0.894436 0.447216 0)
(0.894445 0.447212 0)
(0.894447 0.447213 0)
(0.894441 0.447224 0)
(0.894423 0.447255 0)
(0.89439 0.447311 0)
(0.894344 0.447402 0)
(0.894284 0.447532 0)
(0.894214 0.447705 0)
(0.894138 0.447922 0)
(0.894059 0.448179 0)
(0.893985 0.448473 0)
(0.893922 0.448793 0)
(0.893877 0.449129 0)
(0.893858 0.449466 0)
(0.893872 0.449787 0)
(0.893922 0.450074 0)
(0.894009 0.450308 0)
(0.894129 0.450471 0)
(0.894275 0.450551 0)
(0.894433 0.450541 0)
(0.894591 0.450441 0)
(0.894739 0.450252 0)
(0.894859 0.449992 0)
(0.894945 0.449679 0)
(0.894992 0.449333 0)
(0.894999 0.448974 0)
(0.894972 0.448625 0)
(0.894916 0.4483 0)
(0.89484 0.448014 0)
(0.894755 0.447773 0)
(0.89467 0.447579 0)
(0.89459 0.447432 0)
(0.894523 0.447326 0)
(0.89447 0.447255 0)
(0.894432 0.447212 0)
(0.894407 0.447189 0)
(0.894393 0.447179 0)
(0.894387 0.447178 0)
(0.894386 0.44718 0)
(0.894387 0.447184 0)
(0.89439 0.447189 0)
(0.894392 0.447192 0)
(0.894395 0.447195 0)
(0.894397 0.447197 0)
(0.894398 0.447198 0)
(0.894399 0.447199 0)
(0.894399 0.447199 0)
(0.8944 0.4472 0)
(0.8944 0.4472 0)
(0.8944 0.4472 0)
(0.8944 0.4472 0)
(0.8944 0.4472 0)
(0.8944 0.4472 0)
(0.8944 0.4472 0)
(0.8944 0.4472 0)
(0.8944 0.4472 0)
(0.8944 0.4472 0)
(0.8944 0.4472 0)
(0.8944 0.4472 0)
(0.8944 0.4472 0)
(0.8944 0.4472 0)
(0.8944 0.4472 0)
(0.8944 0.4472 0)
(0.8944 0.4472 0)
(0.8944 0.4472 0)
(0.8944 0.447201 0)
(0.8944 0.447199 0)
(0.8944 0.447201 0)
(0.8944 0.447199 0)
(0.8944 0.447201 0)
(0.8944 0.4472 0)
(0.8944 0.4472 0)
(0.8944 0.447199 0)
(0.894401 0.447201 0)
(0.894399 0.447199 0)
(0.8944 0.4472 0)
(0.8944 0.4472 0)
(0.8944 0.4472 0)
(0.8944 0.4472 0)
(0.8944 0.4472 0)
(0.8944 0.4472 0)
(0.8944 0.4472 0)
(0.8944 0.4472 0)
(0.8944 0.4472 0)
(0.8944 0.4472 0)
(0.8944 0.4472 0)
(0.894399 0.4472 0)
(0.894399 0.447202 0)
(0.894398 0.447202 0)
(0.894397 0.447204 0)
(0.894396 0.447206 0)
(0.894394 0.44721 0)
(0.894393 0.447214 0)
(0.894393 0.447221 0)
(0.894395 0.447226 0)
(0.894399 0.447231 0)
(0.894406 0.447235 0)
(0.894417 0.447236 0)
(0.894429 0.447236 0)
(0.89444 0.447237 0)
(0.894445 0.447243 0)
(0.89444 0.447262 0)
(0.894419 0.447305 0)
(0.894378 0.447386 0)
(0.894314 0.447515 0)
(0.894228 0.447707 0)
(0.894124 0.447969 0)
(0.894005 0.448306 0)
(0.89388 0.448717 0)
(0.893757 0.449197 0)
(0.893644 0.449735 0)
(0.893552 0.450315 0)
(0.89349 0.450918 0)
(0.893473 0.451516 0)
(0.893507 0.452084 0)
(0.893599 0.452593 0)
(0.893754 0.453006 0)
(0.893967 0.453294 0)
(0.89422 0.45344 0)
(0.894498 0.453425 0)
(0.89478 0.453243 0)
(0.895041 0.452909 0)
(0.895257 0.452442 0)
(0.895409 0.451873 0)
(0.895495 0.45124 0)
(0.895514 0.450578 0)
(0.895466 0.449929 0)
(0.895367 0.449327 0)
(0.895233 0.448792 0)
(0.895081 0.44834 0)
(0.894926 0.447976 0)
(0.894782 0.447696 0)
(0.894658 0.447492 0)
(0.894559 0.447352 0)
(0.894485 0.447263 0)
(0.894435 0.447211 0)
(0.894405 0.447186 0)
(0.894389 0.447176 0)
(0.894383 0.447176 0)
(0.894383 0.447179 0)
(0.894386 0.447184 0)
(0.894389 0.447189 0)
(0.894392 0.447193 0)
(0.894395 0.447196 0)
(0.894397 0.447197 0)
(0.894398 0.447199 0)
(0.894399 0.447199 0)
(0.894399 0.4472 0)
(0.8944 0.4472 0)
(0.8944 0.4472 0)
(0.8944 0.4472 0)
(0.8944 0.4472 0)
(0.8944 0.4472 0)
(0.8944 0.4472 0)
(0.8944 0.4472 0)
(0.8944 0.4472 0)
(0.8944 0.4472 0)
(0.8944 0.4472 0)
(0.8944 0.4472 0)
(0.8944 0.4472 0)
(0.8944 0.4472 0)
(0.8944 0.4472 0)
(0.8944 0.4472 0)
(0.8944 0.4472 0)
(0.8944 0.4472 0)
(0.8944 0.447201 0)
(0.8944 0.447199 0)
(0.8944 0.447201 0)
(0.8944 0.4472 0)
(0.8944 0.4472 0)
(0.8944 0.4472 0)
(0.8944 0.4472 0)
(0.8944 0.4472 0)
(0.8944 0.447201 0)
(0.8944 0.447198 0)
(0.894401 0.447201 0)
(0.894399 0.4472 0)
(0.894401 0.4472 0)
(0.8944 0.447201 0)
(0.894399 0.447199 0)
(0.894401 0.4472 0)
(0.8944 0.4472 0)
(0.8944 0.4472 0)
(0.8944 0.4472 0)
(0.8944 0.4472 0)
(0.8944 0.447201 0)
(0.894399 0.447201 0)
(0.894398 0.447202 0)
(0.894397 0.447203 0)
(0.894396 0.447206 0)
(0.894394 0.447209 0)
(0.894392 0.447214 0)
(0.89439 0.447221 0)
(0.89439 0.447229 0)
(0.894392 0.447237 0)
(0.894397 0.447245 0)
(0.894406 0.447251 0)
(0.894419 0.447256 0)
(0.894431 0.447262 0)
(0.894439 0.447273 0)
(0.894434 0.4473 0)
(0.89441 0.447354 0)
(0.894359 0.447456 0)
(0.894275 0.447626 0)
(0.894155 0.447883 0)
(0.894002 0.448247 0)
(0.89382 0.448731 0)
(0.89362 0.44934 0)
(0.893416 0.450069 0)
(0.893219 0.450909 0)
(0.893044 0.451838 0)
(0.892905 0.452831 0)
(0.89282 0.453852 0)
(0.892804 0.454864 0)
(0.892871 0.455823 0)
(0.893036 0.45668 0)
(0.893303 0.457379 0)
(0.893663 0.457886 0)
(0.894098 0.458157 0)
(0.894585 0.458161 0)
(0.895083 0.457893 0)
(0.895545 0.457363 0)
(0.895932 0.456601 0)
(0.896219 0.455643 0)
(0.896387 0.454549 0)
(0.896427 0.453393 0)
(0.896347 0.452244 0)
(0.896173 0.45116 0)
(0.895937 0.450189 0)
(0.895665 0.449364 0)
(0.895389 0.448696 0)
(0.89513 0.44818 0)
(0.894906 0.447801 0)
(0.894725 0.447537 0)
(0.894589 0.447366 0)
(0.894494 0.447262 0)
(0.894433 0.447206 0)
(0.8944 0.447181 0)
(0.894384 0.447173 0)
(0.89438 0.447174 0)
(0.894381 0.447179 0)
(0.894385 0.447185 0)
(0.894389 0.44719 0)
(0.894393 0.447194 0)
(0.894396 0.447196 0)
(0.894397 0.447198 0)
(0.894399 0.447199 0)
(0.894399 0.447199 0)
(0.8944 0.4472 0)
(0.8944 0.4472 0)
(0.8944 0.4472 0)
(0.8944 0.4472 0)
(0.8944 0.4472 0)
(0.8944 0.4472 0)
(0.8944 0.4472 0)
(0.8944 0.4472 0)
(0.8944 0.4472 0)
(0.8944 0.4472 0)
(0.8944 0.4472 0)
(0.8944 0.4472 0)
(0.8944 0.4472 0)
(0.8944 0.4472 0)
(0.8944 0.4472 0)
(0.8944 0.4472 0)
(0.8944 0.4472 0)
(0.8944 0.447201 0)
(0.8944 0.447199 0)
(0.8944 0.4472 0)
(0.894399 0.4472 0)
(0.8944 0.4472 0)
(0.8944 0.447201 0)
(0.8944 0.447199 0)
(0.8944 0.447201 0)
(0.8944 0.4472 0)
(0.894401 0.447199 0)
(0.894399 0.447201 0)
(0.8944 0.447199 0)
(0.894401 0.447201 0)
(0.894398 0.4472 0)
(0.894401 0.447199 0)
(0.894401 0.447202 0)
(0.894399 0.4472 0)
(0.8944 0.447199 0)
(0.8944 0.4472 0)
(0.8944 0.447201 0)
(0.8944 0.447201 0)
(0.894398 0.447202 0)
(0.894397 0.447202 0)
(0.894396 0.447205 0)
(0.894394 0.447209 0)
(0.894391 0.447214 0)
(0.894388 0.44722 0)
(0.894386 0.44723 0)
(0.894385 0.44724 0)
(0.894388 0.447252 0)
(0.894395 0.447263 0)
(0.894406 0.447273 0)
(0.894418 0.447284 0)
(0.894427 0.447301 0)
(0.894425 0.447333 0)
(0.8944 0.447397 0)
(0.89434 0.447515 0)
(0.894234 0.447717 0)
(0.894076 0.448034 0)
(0.893861 0.4485 0)
(0.893594 0.449139 0)
(0.893289 0.449969 0)
(0.892959 0.450992 0)
(0.892627 0.4522 0)
(0.892315 0.453568 0)
(0.892042 0.455062 0)
(0.891831 0.456639 0)
(0.891705 0.458245 0)
(0.891687 0.459825 0)
(0.891797 0.461314 0)
(0.89206 0.46264 0)
(0.892484 0.463741 0)
(0.893056 0.464561 0)
(0.893766 0.46503 0)
(0.894572 0.465121 0)
(0.895409 0.464818 0)
(0.896215 0.464111 0)
(0.896923 0.463017 0)
(0.897478 0.461583 0)
(0.897826 0.459889 0)
(0.89794 0.458035 0)
(0.897839 0.456131 0)
(0.897565 0.454288 0)
(0.897162 0.452605 0)
(0.896688 0.451153 0)
(0.896201 0.449963 0)
(0.895746 0.449037 0)
(0.895348 0.448353 0)
(0.895025 0.447873 0)
(0.894779 0.447557 0)
(0.894605 0.447361 0)
(0.894492 0.447251 0)
(0.894426 0.447196 0)
(0.894392 0.447174 0)
(0.894379 0.44717 0)
(0.894377 0.447174 0)
(0.89438 0.447181 0)
(0.894385 0.447187 0)
(0.89439 0.447191 0)
(0.894394 0.447195 0)
(0.894396 0.447197 0)
(0.894398 0.447198 0)
(0.894399 0.447199 0)
(0.894399 0.4472 0)
(0.8944 0.4472 0)
(0.8944 0.4472 0)
(0.8944 0.4472 0)
(0.8944 0.4472 0)
(0.8944 0.4472 0)
(0.8944 0.4472 0)
(0.8944 0.4472 0)
(0.8944 0.4472 0)
(0.8944 0.4472 0)
(0.8944 0.4472 0)
(0.8944 0.4472 0)
(0.8944 0.4472 0)
(0.8944 0.4472 0)
(0.8944 0.4472 0)
(0.8944 0.4472 0)
(0.8944 0.4472 0)
(0.8944 0.4472 0)
(0.8944 0.4472 0)
(0.8944 0.4472 0)
(0.8944 0.4472 0)
(0.8944 0.4472 0)
(0.8944 0.4472 0)
(0.894401 0.447199 0)
(0.894399 0.447202 0)
(0.8944 0.447199 0)
(0.894401 0.447201 0)
(0.894397 0.447199 0)
(0.894403 0.447201 0)
(0.894398 0.447201 0)
(0.894399 0.447198 0)
(0.894402 0.447201 0)
(0.894399 0.447202 0)
(0.8944 0.447199 0)
(0.8944 0.447199 0)
(0.8944 0.4472 0)
(0.894399 0.4472 0)
(0.894399 0.447202 0)
(0.894397 0.447202 0)
(0.894396 0.447203 0)
(0.894395 0.447207 0)
(0.894391 0.447213 0)
(0.894387 0.44722 0)
(0.894383 0.447228 0)
(0.89438 0.447241 0)
(0.894379 0.447255 0)
(0.894382 0.447271 0)
(0.89439 0.447287 0)
(0.894402 0.447304 0)
(0.894411 0.447325 0)
(0.894411 0.447361 0)
(0.894388 0.447429 0)
(0.894323 0.447556 0)
(0.8942 0.447778 0)
(0.894002 0.44814 0)
(0.89372 0.44869 0)
(0.893354 0.449472 0)
(0.892912 0.450519 0)
(0.892416 0.451849 0)
(0.891894 0.453454 0)
(0.891375 0.455311 0)
(0.890893 0.457372 0)
(0.890479 0.459579 0)
(0.89016 0.461862 0)
(0.889967 0.46415 0)
(0.889929 0.466363 0)
(0.890079 0.468415 0)
(0.890446 0.470229 0)
(0.891039 0.471747 0)
(0.891865 0.472891 0)
(0.892916 0.473606 0)
(0.894127 0.473881 0)
(0.895439 0.473661 0)
(0.896769 0.472922 0)
(0.89802 0.471648 0)
(0.899069 0.469858 0)
(0.899802 0.467611 0)
(0.90017 0.464996 0)
(0.900166 0.462162 0)
(0.899814 0.459292 0)
(0.89919 0.456571 0)
(0.898412 0.454147 0)
(0.897588 0.452114 0)
(0.896801 0.450509 0)
(0.896111 0.44931 0)
(0.895547 0.448463 0)
(0.895116 0.447898 0)
(0.894808 0.447544 0)
(0.894603 0.447338 0)
(0.894479 0.44723 0)
(0.894412 0.447182 0)
(0.894382 0.447168 0)
(0.894374 0.447169 0)
(0.894375 0.447175 0)
(0.894381 0.447183 0)
(0.894386 0.447189 0)
(0.894391 0.447193 0)
(0.894395 0.447196 0)
(0.894397 0.447198 0)
(0.894398 0.447199 0)
(0.894399 0.447199 0)
(0.894399 0.4472 0)
(0.8944 0.4472 0)
(0.8944 0.4472 0)
(0.8944 0.4472 0)
(0.8944 0.4472 0)
(0.8944 0.4472 0)
(0.8944 0.4472 0)
(0.8944 0.4472 0)
(0.8944 0.4472 0)
(0.8944 0.4472 0)
(0.8944 0.4472 0)
(0.8944 0.4472 0)
(0.8944 0.4472 0)
(0.8944 0.4472 0)
(0.8944 0.4472 0)
(0.8944 0.4472 0)
(0.8944 0.4472 0)
(0.8944 0.4472 0)
(0.8944 0.4472 0)
(0.8944 0.4472 0)
(0.8944 0.4472 0)
(0.8944 0.447199 0)
(0.8944 0.447202 0)
(0.894398 0.447199 0)
(0.894403 0.4472 0)
(0.894398 0.4472 0)
(0.894399 0.447198 0)
(0.894403 0.447203 0)
(0.894395 0.447197 0)
(0.894405 0.447199 0)
(0.894399 0.447204 0)
(0.894398 0.447198 0)
(0.894401 0.447199 0)
(0.8944 0.447201 0)
(0.894399 0.4472 0)
(0.894399 0.447201 0)
(0.894398 0.447203 0)
(0.894396 0.447202 0)
(0.894395 0.447205 0)
(0.894392 0.447211 0)
(0.894387 0.447218 0)
(0.894382 0.447227 0)
(0.894377 0.447239 0)
(0.894372 0.447256 0)
(0.894371 0.447275 0)
(0.894375 0.447296 0)
(0.894383 0.447317 0)
(0.894393 0.447344 0)
(0.894395 0.447382 0)
(0.894375 0.447452 0)
(0.894311 0.447578 0)
(0.894178 0.447807 0)
(0.89395 0.448191 0)
(0.893604 0.448795 0)
(0.893131 0.449686 0)
(0.892537 0.450919 0)
(0.89184 0.452528 0)
(0.891075 0.45452 0)
(0.890288 0.45686 0)
(0.889522 0.459492 0)
(0.888822 0.462326 0)
(0.888223 0.465268 0)
(0.887758 0.468218 0)
(0.887463 0.471078 0)
(0.887371 0.473748 0)
(0.887521 0.476143 0)
(0.887945 0.478204 0)
(0.888662 0.479887 0)
(0.889695 0.481152 0)
(0.891027 0.482032 0)
(0.892629 0.482509 0)
(0.894474 0.482537 0)
(0.896468 0.482087 0)
(0.898487 0.481077 0)
(0.900336 0.479433 0)
(0.901849 0.477089 0)
(0.902876 0.474064 0)
(0.903289 0.470484 0)
(0.903059 0.466564 0)
(0.902288 0.462594 0)
(0.901157 0.458861 0)
(0.899853 0.455599 0)
(0.898553 0.452943 0)
(0.897389 0.450917 0)
(0.896428 0.449465 0)
(0.89569 0.448486 0)
(0.895158 0.447866 0)
(0.894801 0.447499 0)
(0.89458 0.4473 0)
(0.894455 0.447205 0)
(0.894395 0.447169 0)
(0.894373 0.447163 0)
(0.89437 0.447169 0)
(0.894375 0.447177 0)
(0.894382 0.447185 0)
(0.894388 0.447191 0)
(0.894393 0.447195 0)
(0.894396 0.447197 0)
(0.894398 0.447198 0)
(0.894399 0.447199 0)
(0.894399 0.4472 0)
(0.8944 0.4472 0)
(0.8944 0.4472 0)
(0.8944 0.4472 0)
(0.8944 0.4472 0)
(0.8944 0.4472 0)
(0.8944 0.4472 0)
(0.8944 0.4472 0)
(0.8944 0.4472 0)
(0.8944 0.4472 0)
(0.8944 0.4472 0)
(0.8944 0.4472 0)
(0.8944 0.4472 0)
(0.8944 0.4472 0)
(0.8944 0.4472 0)
(0.8944 0.4472 0)
(0.8944 0.4472 0)
(0.8944 0.4472 0)
(0.8944 0.4472 0)
(0.8944 0.4472 0)
(0.8944 0.4472 0)
(0.894401 0.447198 0)
(0.894398 0.447205 0)
(0.8944 0.447195 0)
(0.894402 0.447203 0)
(0.894396 0.4472 0)
(0.894404 0.447199 0)
(0.894397 0.447204 0)
(0.8944 0.447194 0)
(0.894404 0.447204 0)
(0.894395 0.447201 0)
(0.894401 0.447196 0)
(0.894402 0.447201 0)
(0.894399 0.4472 0)
(0.894398 0.447202 0)
(0.8944 0.447201 0)
(0.894396 0.447204 0)
(0.894396 0.447204 0)
(0.894392 0.447209 0)
(0.894387 0.447215 0)
(0.894381 0.447225 0)
(0.894375 0.447237 0)
(0.894368 0.447254 0)
(0.894362 0.447275 0)
(0.894361 0.447299 0)
(0.894364 0.447326 0)
(0.894372 0.447357 0)
(0.894375 0.447398 0)
(0.89436 0.447465 0)
(0.894302 0.447586 0)
(0.894169 0.447806 0)
(0.893924 0.448189 0)
(0.893532 0.448811 0)
(0.892965 0.449762 0)
(0.892213 0.451123 0)
(0.891296 0.452955 0)
(0.890256 0.455275 0)
(0.889146 0.45805 0)
(0.888038 0.461194 0)
(0.886988 0.464586 0)
(0.886044 0.468077 0)
(0.88524 0.471524 0)
(0.884604 0.474788 0)
(0.884165 0.47776 0)
(0.883958 0.48033 0)
(0.884016 0.482452 0)
(0.88437 0.484108 0)
(0.885038 0.485329 0)
(0.886051 0.486215 0)
(0.887407 0.486902 0)
(0.889179 0.487413 0)
(0.891371 0.487825 0)
(0.893963 0.488078 0)
(0.896854 0.487997 0)
(0.899833 0.487375 0)
(0.902672 0.48595 0)
(0.905 0.483546 0)
(0.906483 0.480089 0)
(0.90696 0.475709 0)
(0.906453 0.470747 0)
(0.905138 0.465646 0)
(0.903313 0.460869 0)
(0.901329 0.456764 0)
(0.89946 0.453507 0)
(0.897874 0.451113 0)
(0.896638 0.44947 0)
(0.895743 0.448415 0)
(0.895138 0.447782 0)
(0.894757 0.447431 0)
(0.894538 0.447255 0)
(0.894426 0.44718 0)
(0.894379 0.447159 0)
(0.894366 0.447161 0)
(0.894369 0.44717 0)
(0.894377 0.44718 0)
(0.894385 0.447188 0)
(0.89439 0.447193 0)
(0.894394 0.447196 0)
(0.894397 0.447198 0)
(0.894398 0.447199 0)
(0.894399 0.447199 0)
(0.8944 0.4472 0)
(0.8944 0.4472 0)
(0.8944 0.4472 0)
(0.8944 0.4472 0)
(0.8944 0.4472 0)
(0.8944 0.4472 0)
(0.8944 0.4472 0)
(0.8944 0.4472 0)
(0.8944 0.4472 0)
(0.8944 0.4472 0)
(0.8944 0.4472 0)
(0.8944 0.4472 0)
(0.8944 0.4472 0)
(0.8944 0.447199 0)
(0.8944 0.447201 0)
(0.894401 0.447198 0)
(0.894399 0.447202 0)
(0.8944 0.447199 0)
(0.8944 0.447201 0)
(0.894401 0.447198 0)
(0.894401 0.4472 0)
(0.894396 0.447204 0)
(0.894405 0.447193 0)
(0.894396 0.447203 0)
(0.894401 0.447203 0)
(0.894402 0.447194 0)
(0.894394 0.447202 0)
(0.89441 0.4472 0)
(0.894393 0.447203 0)
(0.894399 0.447198 0)
(0.894404 0.4472 0)
(0.894399 0.4472 0)
(0.894399 0.4472 0)
(0.894397 0.447201 0)
(0.894399 0.447203 0)
(0.894395 0.447203 0)
(0.894395 0.447207 0)
(0.894388 0.447214 0)
(0.894382 0.447219 0)
(0.894374 0.447232 0)
(0.894366 0.44725 0)
(0.894356 0.447273 0)
(0.89435 0.447299 0)
(0.894347 0.44733 0)
(0.89435 0.447364 0)
(0.894354 0.447407 0)
(0.894342 0.447471 0)
(0.894295 0.447582 0)
(0.894171 0.447784 0)
(0.893927 0.448143 0)
(0.893511 0.448748 0)
(0.892873 0.449705 0)
(0.891988 0.451126 0)
(0.890858 0.453095 0)
(0.889522 0.455657 0)
(0.888063 0.458776 0)
(0.886568 0.462342 0)
(0.88513 0.466178 0)
(0.883816 0.470065 0)
(0.882657 0.473785 0)
(0.881663 0.477144 0)
(0.880842 0.479985 0)
(0.880204 0.482198 0)
(0.879771 0.483711 0)
(0.879562 0.484544 0)
(0.879583 0.484784 0)
(0.879835 0.484632 0)
(0.880357 0.484379 0)
(0.881232 0.484263 0)
(0.882628 0.484502 0)
(0.884638 0.485278 0)
(0.887457 0.486463 0)
(0.891045 0.48791 0)
(0.895325 0.489288 0)
(0.899957 0.490122 0)
(0.904347 0.489912 0)
(0.907946 0.488201 0)
(0.910247 0.484855 0)
(0.910955 0.480024 0)
(0.910102 0.474186 0)
(0.908071 0.46805 0)
(0.905413 0.462301 0)
(0.902645 0.457447 0)
(0.900162 0.45371 0)
(0.898167 0.45106 0)
(0.896697 0.44932 0)
(0.895693 0.448259 0)
(0.895056 0.44766 0)
(0.894683 0.447351 0)
(0.894486 0.447211 0)
(0.894396 0.447161 0)
(0.894365 0.447153 0)
(0.894363 0.447162 0)
(0.894371 0.447174 0)
(0.89438 0.447184 0)
(0.894387 0.447191 0)
(0.894393 0.447195 0)
(0.894396 0.447197 0)
(0.894398 0.447199 0)
(0.894399 0.447199 0)
(0.894399 0.4472 0)
(0.8944 0.4472 0)
(0.8944 0.4472 0)
(0.8944 0.4472 0)
(0.8944 0.4472 0)
(0.8944 0.4472 0)
(0.8944 0.4472 0)
(0.8944 0.4472 0)
(0.8944 0.4472 0)
(0.8944 0.4472 0)
(0.8944 0.447199 0)
(0.894399 0.447201 0)
(0.894401 0.447199 0)
(0.894399 0.447201 0)
(0.894401 0.4472 0)
(0.8944 0.447199 0)
(0.8944 0.447202 0)
(0.8944 0.447197 0)
(0.894399 0.447203 0)
(0.894403 0.447195 0)
(0.894396 0.447206 0)
(0.894401 0.447196 0)
(0.894406 0.447201 0)
(0.89439 0.447198 0)
(0.894409 0.447208 0)
(0.894394 0.447191 0)
(0.8944 0.447197 0)
(0.894408 0.447213 0)
(0.894387 0.447188 0)
(0.894406 0.447199 0)
(0.894402 0.447205 0)
(0.894398 0.447198 0)
(0.894398 0.447202 0)
(0.894398 0.447202 0)
(0.894396 0.447203 0)
(0.894396 0.447205 0)
(0.894391 0.447211 0)
(0.894383 0.447218 0)
(0.894376 0.447228 0)
(0.894365 0.447244 0)
(0.894353 0.447267 0)
(0.894341 0.447297 0)
(0.894334 0.44733 0)
(0.89433 0.447368 0)
(0.894331 0.447411 0)
(0.894324 0.447472 0)
(0.894286 0.44757 0)
(0.894181 0.447749 0)
(0.893953 0.44807 0)
(0.893539 0.448629 0)
(0.892869 0.449543 0)
(0.891889 0.450947 0)
(0.890575 0.452963 0)
(0.888964 0.455656 0)
(0.88714 0.459008 0)
(0.885236 0.462887 0)
(0.883391 0.467046 0)
(0.881705 0.47119 0)
(0.880227 0.474986 0)
(0.87894 0.478161 0)
(0.877796 0.480498 0)
(0.87676 0.481865 0)
(0.875809 0.482177 0)
(0.874938 0.481467 0)
(0.874128 0.479862 0)
(0.873325 0.477655 0)
(0.87253 0.475261 0)
(0.871811 0.473169 0)
(0.871399 0.471772 0)
(0.871552 0.471492 0)
(0.872641 0.47241 0)
(0.875022 0.474477 0)
(0.878823 0.477648 0)
(0.884208 0.481495 0)
(0.890753 0.485484 0)
(0.897899 0.488841 0)
(0.9048 0.490754 0)
(0.910413 0.490569 0)
(0.913901 0.487877 0)
(0.914906 0.482925 0)
(0.913652 0.47644 0)
(0.910781 0.469444 0)
(0.907159 0.462926 0)
(0.90358 0.45753 0)
(0.900532 0.453503 0)
(0.898207 0.45076 0)
(0.896586 0.449041 0)
(0.895545 0.448047 0)
(0.894927 0.447522 0)
(0.894593 0.447274 0)
(0.894434 0.447176 0)
(0.894372 0.44715 0)
(0.894358 0.447153 0)
(0.894363 0.447166 0)
(0.894374 0.447178 0)
(0.894383 0.447187 0)
(0.89439 0.447193 0)
(0.894395 0.447196 0)
(0.894397 0.447198 0)
(0.894398 0.447199 0)
(0.894399 0.4472 0)
(0.8944 0.4472 0)
(0.8944 0.4472 0)
(0.8944 0.4472 0)
(0.8944 0.4472 0)
(0.8944 0.4472 0)
(0.8944 0.4472 0)
(0.8944 0.4472 0)
(0.8944 0.447201 0)
(0.8944 0.447199 0)
(0.8944 0.4472 0)
(0.8944 0.4472 0)
(0.894401 0.447199 0)
(0.894398 0.447201 0)
(0.894402 0.447199 0)
(0.894399 0.4472 0)
(0.894401 0.447201 0)
(0.894398 0.447199 0)
(0.894403 0.447202 0)
(0.894401 0.447194 0)
(0.894391 0.447212 0)
(0.894413 0.447183 0)
(0.894391 0.447215 0)
(0.8944 0.447193 0)
(0.894404 0.4472 0)
(0.894397 0.447206 0)
(0.894405 0.447186 0)
(0.894396 0.447224 0)
(0.8944 0.447186 0)
(0.894403 0.447199 0)
(0.894399 0.447204 0)
(0.894399 0.447202 0)
(0.894397 0.447199 0)
(0.894397 0.4472 0)
(0.894395 0.447205 0)
(0.894394 0.447209 0)
(0.894386 0.447216 0)
(0.894378 0.447223 0)
(0.894366 0.447239 0)
(0.894353 0.447259 0)
(0.894336 0.447289 0)
(0.894323 0.447324 0)
(0.894314 0.447365 0)
(0.894309 0.447412 0)
(0.894304 0.44747 0)
(0.894274 0.447556 0)
(0.894191 0.447707 0)
(0.893992 0.447983 0)
(0.893607 0.448475 0)
(0.892944 0.449308 0)
(0.89192 0.450631 0)
(0.890483 0.4526 0)
(0.888634 0.455316 0)
(0.886468 0.458782 0)
(0.884152 0.462851 0)
(0.88188 0.467239 0)
(0.87983 0.471531 0)
(0.878084 0.475294 0)
(0.876609 0.478133 0)
(0.875297 0.479758 0)
(0.873999 0.479993 0)
(0.872623 0.478778 0)
(0.871096 0.476116 0)
(0.869365 0.472199 0)
(0.867329 0.46734 0)
(0.864871 0.46211 0)
(0.86203 0.457155 0)
(0.858959 0.453181 0)
(0.856139 0.450708 0)
(0.854055 0.450097 0)
(0.853457 0.451215 0)
(0.854668 0.45414 0)
(0.858209 0.458618 0)
(0.864228 0.464345 0)
(0.872505 0.471079 0)
(0.882725 0.478121 0)
(0.893738 0.484571 0)
(0.904087 0.489139 0)
(0.912285 0.490756 0)
(0.917247 0.489012 0)
(0.918582 0.484153 0)
(0.916735 0.477238 0)
(0.912871 0.469638 0)
(0.908281 0.46262 0)
(0.903968 0.456973 0)
(0.900486 0.452912 0)
(0.897975 0.45026 0)
(0.896323 0.448677 0)
(0.895325 0.447813 0)
(0.894775 0.44739 0)
(0.894504 0.44721 0)
(0.89439 0.447152 0)
(0.894356 0.447146 0)
(0.894356 0.447158 0)
(0.894367 0.447172 0)
(0.894378 0.447183 0)
(0.894387 0.447191 0)
(0.894393 0.447195 0)
(0.894396 0.447198 0)
(0.894398 0.447198 0)
(0.894399 0.4472 0)
(0.8944 0.4472 0)
(0.8944 0.4472 0)
(0.8944 0.4472 0)
(0.8944 0.4472 0)
(0.8944 0.4472 0)
(0.8944 0.4472 0)
(0.8944 0.4472 0)
(0.894399 0.4472 0)
(0.894401 0.4472 0)
(0.894398 0.447201 0)
(0.894402 0.447199 0)
(0.894399 0.447201 0)
(0.8944 0.4472 0)
(0.894401 0.447201 0)
(0.894399 0.447198 0)
(0.8944 0.447204 0)
(0.894398 0.447197 0)
(0.894407 0.447199 0)
(0.894391 0.447203 0)
(0.894401 0.447201 0)
(0.894415 0.447192 0)
(0.894378 0.447208 0)
(0.894417 0.447207 0)
(0.894391 0.447174 0)
(0.894408 0.447229 0)
(0.894396 0.447183 0)
(0.894389 0.447195 0)
(0.894421 0.447214 0)
(0.894384 0.447187 0)
(0.894405 0.447205 0)
(0.8944 0.447209 0)
(0.894398 0.447202 0)
(0.894393 0.447197 0)
(0.894393 0.447207 0)
(0.89439 0.447213 0)
(0.894379 0.447219 0)
(0.894371 0.447232 0)
(0.894353 0.447252 0)
(0.894336 0.447279 0)
(0.894317 0.447316 0)
(0.894302 0.447357 0)
(0.894289 0.447406 0)
(0.894281 0.447464 0)
(0.894261 0.447542 0)
(0.894196 0.447668 0)
(0.894036 0.447895 0)
(0.893696 0.44831 0)
(0.893079 0.449036 0)
(0.89207 0.45023 0)
(0.890576 0.452071 0)
(0.888564 0.454704 0)
(0.886108 0.458162 0)
(0.883388 0.462322 0)
(0.880687 0.466839 0)
(0.878258 0.471236 0)
(0.876266 0.474949 0)
(0.874708 0.477446 0)
(0.873401 0.478356 0)
(0.872073 0.477449 0)
(0.870472 0.474663 0)
(0.868414 0.470038 0)
(0.865775 0.463763 0)
(0.862407 0.456199 0)
(0.858087 0.448006 0)
(0.85267 0.440023 0)
(0.846249 0.433233 0)
(0.83927 0.428446 0)
(0.832597 0.426221 0)
(0.827246 0.426544 0)
(0.824237 0.429079 0)
(0.824062 0.433361 0)
(0.827373 0.438615 0)
(0.833876 0.444911 0)
(0.843882 0.452389 0)
(0.857044 0.461073 0)
(0.872361 0.470541 0)
(0.888315 0.479379 0)
(0.902859 0.486176 0)
(0.914002 0.489443 0)
(0.92032 0.4885 0)
(0.921644 0.483759 0)
(0.918998 0.476518 0)
(0.91406 0.468576 0)
(0.908567 0.461426 0)
(0.903717 0.455866 0)
(0.900024 0.45203 0)
(0.897509 0.449639 0)
(0.895952 0.448285 0)
(0.895073 0.447592 0)
(0.894626 0.44728 0)
(0.894428 0.447167 0)
(0.89436 0.447142 0)
(0.894349 0.44715 0)
(0.894359 0.447165 0)
(0.894372 0.447178 0)
(0.894384 0.447188 0)
(0.894391 0.447194 0)
(0.894395 0.447197 0)
(0.894397 0.447198 0)
(0.894398 0.447199 0)
(0.8944 0.447199 0)
(0.8944 0.4472 0)
(0.8944 0.4472 0)
(0.8944 0.4472 0)
(0.894399 0.4472 0)
(0.894401 0.4472 0)
(0.894399 0.4472 0)
(0.894401 0.4472 0)
(0.8944 0.4472 0)