/*--------------------------------*- C++ -*----------------------------------*\
  =========                 |
  \\      /  F ield         | OpenFOAM: The Open Source CFD Toolbox
   \\    /   O peration     | Website:  https://openfoam.org
    \\  /    A nd           | Version:  6
     \\/     M anipulation  |
\*---------------------------------------------------------------------------*/
FoamFile
{
    version     2.0;
    format      ascii;
    class       volScalarField;
    location    "4.56";
    object      rho;
}
// * * * * * * * * * * * * * * * * * * * * * * * * * * * * * * * * * * * * * //

dimensions      [1 -3 0 0 0 0 0];

internalField   nonuniform List<scalar> 
5625
(
1.40003
1.40004
1.40007
1.40011
1.40017
1.40026
1.40038
1.40054
1.40074
1.40101
1.40133
1.40172
1.40217
1.4027
1.40329
1.40394
1.40464
1.40539
1.40617
1.40696
1.40776
1.40854
1.40928
1.40998
1.41062
1.41119
1.41166
1.41204
1.41231
1.41247
1.41252
1.41245
1.41227
1.41198
1.41159
1.4111
1.41053
1.40989
1.40919
1.40845
1.40769
1.40691
1.40615
1.4054
1.4047
1.40403
1.40343
1.40287
1.40238
1.40196
1.40158
1.40127
1.401
1.40079
1.40061
1.40046
1.40035
1.40026
1.40019
1.40013
1.40009
1.40006
1.40004
1.40002
1.40001
1.40001
1.4
1.4
1.4
1.4
1.4
1.4
1.4
1.4
1.4
1.40005
1.40008
1.40012
1.40019
1.40028
1.40041
1.40059
1.40082
1.40112
1.40149
1.40194
1.40248
1.4031
1.40381
1.4046
1.40546
1.40639
1.40736
1.40837
1.40939
1.4104
1.41139
1.41233
1.4132
1.41399
1.41469
1.41527
1.41573
1.41606
1.41626
1.41632
1.41624
1.41601
1.41566
1.41517
1.41457
1.41385
1.41304
1.41216
1.41122
1.41024
1.40924
1.40824
1.40727
1.40633
1.40545
1.40464
1.4039
1.40324
1.40266
1.40216
1.40173
1.40136
1.40107
1.40082
1.40062
1.40047
1.40034
1.40025
1.40018
1.40012
1.40008
1.40005
1.40003
1.40002
1.40001
1.4
1.4
1.4
1.4
1.4
1.4
1.4
1.4
1.4
1.40009
1.40014
1.4002
1.4003
1.40044
1.40063
1.40089
1.40122
1.40164
1.40215
1.40277
1.40349
1.40433
1.40527
1.40631
1.40744
1.40863
1.40988
1.41116
1.41244
1.4137
1.41491
1.41606
1.41712
1.41808
1.41891
1.4196
1.42015
1.42054
1.42078
1.42084
1.42075
1.42048
1.42006
1.41948
1.41876
1.41789
1.41691
1.41583
1.41466
1.41343
1.41217
1.41091
1.40966
1.40845
1.4073
1.40623
1.40525
1.40437
1.4036
1.40292
1.40234
1.40185
1.40145
1.40111
1.40085
1.40063
1.40047
1.40034
1.40024
1.40016
1.40011
1.40007
1.40004
1.40002
1.40001
1.4
1.4
1.39999
1.39999
1.39999
1.4
1.4
1.4
1.4
1.40015
1.40022
1.40032
1.40047
1.40067
1.40094
1.4013
1.40177
1.40234
1.40304
1.40387
1.40483
1.40594
1.40716
1.40851
1.40995
1.41146
1.41302
1.4146
1.41616
1.41769
1.41914
1.4205
1.42175
1.42286
1.42382
1.42462
1.42524
1.42569
1.42595
1.42603
1.42593
1.42563
1.42515
1.42449
1.42366
1.42266
1.42151
1.42022
1.41883
1.41734
1.4158
1.41423
1.41266
1.41113
1.40966
1.40828
1.40701
1.40585
1.40483
1.40393
1.40316
1.4025
1.40196
1.40151
1.40115
1.40086
1.40063
1.40045
1.40032
1.40022
1.40015
1.40009
1.40005
1.40003
1.40001
1.4
1.39999
1.39999
1.39999
1.39999
1.39999
1.39999
1.4
1.4
1.40023
1.40033
1.40048
1.40069
1.40098
1.40137
1.40187
1.4025
1.40327
1.40421
1.4053
1.40657
1.408
1.40957
1.41126
1.41306
1.41493
1.41683
1.41872
1.42058
1.42236
1.42405
1.4256
1.427
1.42824
1.4293
1.43017
1.43085
1.43134
1.43162
1.43171
1.4316
1.43129
1.43078
1.43007
1.42916
1.42806
1.42677
1.42531
1.42371
1.42197
1.42014
1.41825
1.41634
1.41445
1.41261
1.41087
1.40924
1.40776
1.40642
1.40525
1.40423
1.40336
1.40263
1.40203
1.40155
1.40116
1.40085
1.40062
1.40044
1.4003
1.4002
1.40013
1.40008
1.40004
1.40002
1.4
1.39999
1.39999
1.39999
1.39999
1.39999
1.39999
1.39999
1.4
1.40034
1.40049
1.4007
1.401
1.40141
1.40194
1.40262
1.40346
1.40449
1.40572
1.40715
1.40878
1.41058
1.41255
1.41465
1.41684
1.41908
1.42132
1.42352
1.42564
1.42764
1.4295
1.43119
1.43269
1.43399
1.43509
1.43599
1.43668
1.43717
1.43746
1.43755
1.43745
1.43715
1.43664
1.43592
1.435
1.43386
1.43251
1.43094
1.42919
1.42725
1.42518
1.42299
1.42074
1.41847
1.41623
1.41408
1.41204
1.41016
1.40846
1.40694
1.40561
1.40448
1.40352
1.40273
1.40208
1.40156
1.40115
1.40084
1.40059
1.40041
1.40027
1.40018
1.40011
1.40006
1.40003
1.40001
1.39999
1.39999
1.39998
1.39998
1.39999
1.39999
1.39999
1.39999
1.40048
1.4007
1.40101
1.40142
1.40197
1.40269
1.4036
1.40472
1.40607
1.40766
1.40948
1.41153
1.41377
1.41618
1.4187
1.42128
1.42387
1.42642
1.42887
1.43118
1.43332
1.43526
1.43698
1.43847
1.43975
1.4408
1.44164
1.44228
1.44273
1.443
1.44309
1.443
1.44273
1.44228
1.44163
1.44077
1.43969
1.43838
1.43682
1.43503
1.433
1.43076
1.42835
1.4258
1.42318
1.42054
1.41795
1.41547
1.41314
1.411
1.40908
1.40738
1.40592
1.40467
1.40363
1.40278
1.4021
1.40155
1.40113
1.4008
1.40056
1.40038
1.40024
1.40015
1.40008
1.40004
1.40001
1.39999
1.39999
1.39998
1.39998
1.39998
1.39998
1.39999
1.39999
1.40069
1.40099
1.40141
1.40198
1.40272
1.40368
1.40487
1.40633
1.40806
1.41008
1.41236
1.41488
1.41759
1.42045
1.42339
1.42633
1.42921
1.43198
1.43456
1.43694
1.43906
1.44093
1.44254
1.44389
1.445
1.44589
1.44658
1.44709
1.44744
1.44765
1.44772
1.44766
1.44746
1.44712
1.44661
1.44592
1.44503
1.4439
1.4425
1.44083
1.43887
1.43662
1.43412
1.43139
1.42849
1.42551
1.4225
1.41956
1.41675
1.41412
1.41173
1.4096
1.40774
1.40614
1.4048
1.40369
1.4028
1.40208
1.40152
1.40109
1.40076
1.40052
1.40034
1.40021
1.40012
1.40006
1.40002
1.4
1.39998
1.39998
1.39998
1.39998
1.39998
1.39998
1.39999
1.40096
1.40138
1.40194
1.4027
1.40369
1.40495
1.40649
1.40836
1.41055
1.41305
1.41584
1.41886
1.42205
1.42533
1.42862
1.43182
1.43487
1.43769
1.44024
1.44248
1.4444
1.44601
1.44732
1.44836
1.44916
1.44976
1.45019
1.45048
1.45067
1.45077
1.4508
1.45077
1.45068
1.4505
1.45022
1.44981
1.44924
1.44845
1.4474
1.44606
1.44438
1.44234
1.43995
1.43722
1.43422
1.431
1.42766
1.42429
1.421
1.41787
1.41496
1.41233
1.41
1.40799
1.40628
1.40486
1.4037
1.40276
1.40203
1.40146
1.40103
1.4007
1.40047
1.4003
1.40018
1.40009
1.40004
1.40001
1.39999
1.39998
1.39997
1.39997
1.39998
1.39998
1.39998
1.40132
1.40188
1.40264
1.40364
1.40494
1.40655
1.40853
1.41087
1.41358
1.41662
1.41994
1.42346
1.42707
1.43069
1.43419
1.43748
1.44049
1.44314
1.44541
1.44729
1.44878
1.44992
1.45074
1.4513
1.45164
1.45181
1.45188
1.45187
1.45184
1.4518
1.45178
1.45178
1.45181
1.45184
1.45185
1.45181
1.45168
1.45138
1.45087
1.45007
1.44891
1.44735
1.44535
1.44289
1.44001
1.43676
1.43325
1.42957
1.42586
1.42223
1.41879
1.41562
1.41277
1.41027
1.40812
1.40632
1.40484
1.40364
1.40269
1.40195
1.40138
1.40095
1.40064
1.40041
1.40025
1.40014
1.40007
1.40002
1.39999
1.39998
1.39997
1.39997
1.39997
1.39997
1.39998
1.40179
1.40253
1.40354
1.40484
1.4065
1.40856
1.41103
1.41392
1.4172
1.4208
1.42463
1.42857
1.4325
1.43627
1.43978
1.44291
1.44561
1.44782
1.44955
1.4508
1.45163
1.45209
1.45225
1.45217
1.45194
1.45161
1.45124
1.45088
1.45059
1.45038
1.45029
1.45031
1.45046
1.45072
1.45106
1.45145
1.45183
1.45215
1.45231
1.45225
1.45185
1.45103
1.44971
1.44784
1.4454
1.44242
1.43898
1.43519
1.4312
1.42716
1.42322
1.41949
1.41608
1.41304
1.41039
1.40814
1.40627
1.40475
1.40353
1.40257
1.40184
1.40128
1.40087
1.40057
1.40035
1.4002
1.4001
1.40004
1.4
1.39998
1.39997
1.39996
1.39997
1.39997
1.39997
1.40239
1.40337
1.40467
1.40635
1.40845
1.41102
1.41406
1.41755
1.42141
1.42553
1.42979
1.43401
1.43804
1.44173
1.44495
1.44762
1.4497
1.45118
1.4521
1.4525
1.45248
1.45211
1.45148
1.45069
1.44982
1.44893
1.44811
1.44739
1.44682
1.44643
1.44626
1.4463
1.44656
1.44704
1.4477
1.44852
1.44944
1.4504
1.45132
1.4521
1.45263
1.45278
1.45243
1.45147
1.44982
1.44746
1.44443
1.44082
1.43679
1.4325
1.42816
1.42392
1.41994
1.41632
1.41312
1.41036
1.40804
1.40612
1.40458
1.40336
1.40242
1.4017
1.40116
1.40077
1.40049
1.40029
1.40016
1.40007
1.40002
1.39998
1.39997
1.39996
1.39996
1.39996
1.39997
1.40316
1.40443
1.40609
1.40821
1.41084
1.41399
1.41765
1.42174
1.42614
1.4307
1.43521
1.43948
1.44333
1.44661
1.44921
1.45109
1.45225
1.45274
1.45263
1.45203
1.45104
1.44977
1.44833
1.44681
1.44531
1.4439
1.44263
1.44157
1.44075
1.4402
1.43994
1.43999
1.44034
1.441
1.44194
1.44314
1.44455
1.44613
1.44778
1.44943
1.45094
1.45218
1.45299
1.4532
1.45268
1.45132
1.44909
1.44604
1.44228
1.43801
1.43345
1.42883
1.42433
1.42013
1.41634
1.41302
1.41018
1.40782
1.40589
1.40436
1.40316
1.40224
1.40155
1.40104
1.40067
1.40041
1.40023
1.40012
1.40004
1.4
1.39997
1.39996
1.39996
1.39996
1.39996
1.40413
1.40575
1.40785
1.41049
1.41371
1.4175
1.42178
1.42644
1.43128
1.43607
1.44058
1.44458
1.4479
1.4504
1.45205
1.45285
1.45286
1.45218
1.45094
1.44927
1.4473
1.44516
1.44296
1.44079
1.43873
1.43686
1.43524
1.43389
1.43286
1.43217
1.43184
1.43188
1.43229
1.43308
1.43423
1.43572
1.43754
1.43962
1.44191
1.44433
1.44677
1.44909
1.45112
1.45265
1.45349
1.45345
1.45241
1.45032
1.44725
1.44335
1.43886
1.43404
1.42915
1.42443
1.42005
1.41613
1.41273
1.40985
1.40749
1.40558
1.40407
1.40291
1.40203
1.40138
1.4009
1.40057
1.40033
1.40018
1.40007
1.40001
1.39998
1.39996
1.39995
1.39995
1.39996
1.40533
1.40737
1.40999
1.41322
1.41709
1.42153
1.42641
1.43151
1.43658
1.44133
1.4455
1.44885
1.45126
1.45267
1.45308
1.45259
1.45133
1.44943
1.44706
1.44438
1.44153
1.43863
1.43579
1.43309
1.4306
1.42839
1.42649
1.42494
1.42376
1.42297
1.42259
1.42261
1.42306
1.42392
1.4252
1.42689
1.42897
1.43142
1.43419
1.43722
1.44042
1.44368
1.44684
1.44968
1.45196
1.45344
1.45389
1.45315
1.45119
1.44808
1.44403
1.43931
1.43424
1.42913
1.42422
1.41971
1.41571
1.41227
1.4094
1.40706
1.4052
1.40375
1.40264
1.40181
1.4012
1.40077
1.40047
1.40026
1.40012
1.40004
1.39999
1.39996
1.39995
1.39995
1.39995
1.40681
1.40935
1.41255
1.41644
1.42098
1.42604
1.43139
1.43674
1.44174
1.44609
1.44951
1.45185
1.45302
1.45307
1.45209
1.45024
1.4477
1.44466
1.44128
1.43774
1.43417
1.43068
1.42737
1.4243
1.42153
1.4191
1.41704
1.41537
1.4141
1.41325
1.41283
1.41284
1.41329
1.41418
1.41552
1.4173
1.41953
1.42219
1.42525
1.42869
1.43243
1.43641
1.44048
1.44446
1.4481
1.45112
1.45322
1.45411
1.45364
1.45175
1.44856
1.44432
1.43937
1.43407
1.42876
1.42371
1.41912
1.41509
1.41166
1.40884
1.40656
1.40477
1.40339
1.40235
1.40158
1.40103
1.40064
1.40037
1.40019
1.40008
1.40001
1.39997
1.39995
1.39995
1.39995
1.4086
1.41171
1.41557
1.42015
1.42534
1.43091
1.43652
1.4418
1.44637
1.44991
1.45221
1.45321
1.45293
1.4515
1.4491
1.44595
1.44227
1.43824
1.43406
1.42986
1.42577
1.42189
1.41828
1.415
1.41208
1.40956
1.40743
1.40572
1.40443
1.40356
1.40312
1.40312
1.40355
1.40442
1.40576
1.40755
1.40982
1.41255
1.41574
1.41939
1.42345
1.42787
1.43258
1.43743
1.4422
1.44662
1.45032
1.45296
1.45423
1.45392
1.45202
1.44869
1.44424
1.43904
1.43353
1.42806
1.42292
1.41829
1.41428
1.41092
1.40818
1.40599
1.4043
1.40301
1.40205
1.40135
1.40085
1.40051
1.40028
1.40013
1.40004
1.39998
1.39996
1.39995
1.39994
1.41075
1.4145
1.41905
1.42431
1.43005
1.43593
1.44151
1.44634
1.45006
1.4524
1.45328
1.45274
1.45092
1.44804
1.44434
1.44006
1.43544
1.43066
1.4259
1.42126
1.41687
1.41278
1.40904
1.4057
1.40276
1.40024
1.39814
1.39645
1.39518
1.39433
1.39388
1.39386
1.39425
1.39508
1.39636
1.3981
1.40031
1.40301
1.4062
1.40989
1.41406
1.4187
1.42377
1.42917
1.43475
1.44027
1.44539
1.4497
1.45278
1.4543
1.45404
1.45204
1.44849
1.44377
1.43833
1.43262
1.42704
1.42186
1.41726
1.41333
1.41008
1.40745
1.40539
1.40381
1.40262
1.40175
1.40113
1.40069
1.4004
1.4002
1.40008
1.4
1.39996
1.39995
1.39994
1.41327
1.41772
1.42297
1.42884
1.43495
1.44084
1.44599
1.44996
1.45244
1.4533
1.45259
1.45046
1.44717
1.44298
1.43818
1.43302
1.42771
1.42242
1.4173
1.41244
1.40791
1.40378
1.40007
1.39678
1.39392
1.39149
1.38948
1.38787
1.38666
1.38584
1.3854
1.38535
1.38569
1.38644
1.38762
1.38924
1.39134
1.39392
1.39701
1.40062
1.40476
1.40942
1.41461
1.42028
1.42633
1.43261
1.43882
1.44456
1.44936
1.45275
1.45436
1.45402
1.45178
1.44794
1.44292
1.43724
1.43138
1.42573
1.42058
1.41607
1.41226
1.40915
1.40668
1.40477
1.40332
1.40224
1.40147
1.40092
1.40054
1.40029
1.40013
1.40003
1.39998
1.39995
1.39994
1.4162
1.42136
1.42727
1.43358
1.43978
1.4453
1.44961
1.45233
1.45329
1.45251
1.45018
1.44656
1.44197
1.43672
1.43108
1.42528
1.41952
1.41395
1.40867
1.40376
1.39927
1.39523
1.39165
1.38851
1.38582
1.38355
1.38168
1.3802
1.37907
1.37829
1.37786
1.37778
1.37805
1.3787
1.37973
1.38119
1.3831
1.3855
1.38841
1.39185
1.39584
1.4004
1.40554
1.41125
1.41749
1.42418
1.43111
1.43794
1.44419
1.44935
1.45288
1.45442
1.45383
1.45125
1.44703
1.44169
1.43579
1.42982
1.42418
1.41911
1.41474
1.41111
1.40819
1.4059
1.40414
1.40283
1.40188
1.4012
1.40073
1.40041
1.4002
1.40007
1.4
1.39996
1.39994
1.41952
1.42538
1.43181
1.43831
1.44424
1.44898
1.45206
1.45325
1.45253
1.45011
1.44628
1.44137
1.43574
1.42968
1.42344
1.41725
1.41126
1.40559
1.40032
1.39551
1.39118
1.38735
1.38399
1.3811
1.37865
1.3766
1.37492
1.37358
1.37256
1.37185
1.37143
1.3713
1.37148
1.37198
1.37284
1.37408
1.37575
1.37789
1.38054
1.38374
1.38751
1.39186
1.39683
1.40243
1.40866
1.41548
1.42279
1.43032
1.43769
1.44434
1.44967
1.45316
1.45444
1.45344
1.45039
1.44575
1.44009
1.43401
1.428
1.42242
1.4175
1.41333
1.40992
1.40721
1.40511
1.40353
1.40237
1.40154
1.40095
1.40056
1.40029
1.40013
1.40003
1.39997
1.39995
1.42322
1.42968
1.43642
1.44278
1.44802
1.45159
1.45314
1.45264
1.45027
1.44633
1.4412
1.43526
1.42884
1.42222
1.41563
1.40924
1.4032
1.39759
1.39248
1.38789
1.38384
1.38031
1.37727
1.3747
1.37254
1.37076
1.36932
1.36817
1.36728
1.36663
1.36622
1.36604
1.36611
1.36644
1.36707
1.36804
1.3694
1.37121
1.37353
1.3764
1.37986
1.38393
1.38865
1.39404
1.4001
1.40687
1.41428
1.42218
1.43028
1.43808
1.44497
1.45029
1.45351
1.45433
1.45278
1.44918
1.44409
1.43814
1.43193
1.42594
1.4205
1.41579
1.41187
1.40871
1.40624
1.40436
1.40296
1.40194
1.40123
1.40074
1.40041
1.4002
1.40007
1.39999
1.39995
1.42722
1.43412
1.44086
1.44668
1.45084
1.45293
1.4528
1.45062
1.44671
1.44147
1.43531
1.42859
1.42162
1.41465
1.40789
1.40149
1.39554
1.39014
1.3853
1.38105
1.37738
1.37424
1.37161
1.36943
1.36764
1.36619
1.36502
1.36409
1.36336
1.3628
1.3624
1.36216
1.36209
1.36221
1.36257
1.36322
1.36421
1.36561
1.3675
1.36994
1.373
1.3767
1.38109
1.38617
1.39199
1.39856
1.40588
1.41389
1.42239
1.43097
1.43908
1.44603
1.45112
1.45385
1.45403
1.45179
1.44758
1.44205
1.43585
1.42959
1.42371
1.41848
1.41404
1.41041
1.40753
1.40531
1.40364
1.40243
1.40156
1.40095
1.40055
1.40028
1.40012
1.40002
1.39997
1.43142
1.43849
1.44487
1.44975
1.45251
1.45294
1.45112
1.44739
1.44216
1.43587
1.42891
1.42164
1.41432
1.4072
1.40043
1.39416
1.38845
1.38337
1.37893
1.37512
1.37192
1.36928
1.36713
1.36542
1.36406
1.36299
1.36215
1.36148
1.36093
1.36048
1.3601
1.3598
1.35958
1.35948
1.35953
1.3598
1.36035
1.36126
1.36263
1.36453
1.36706
1.37028
1.37422
1.37893
1.3844
1.39069
1.3978
1.40572
1.41435
1.42339
1.43238
1.44064
1.44741
1.45203
1.45406
1.45342
1.4504
1.44557
1.43964
1.43328
1.42706
1.42137
1.41642
1.41229
1.40898
1.40639
1.40443
1.40299
1.40194
1.40121
1.40072
1.40039
1.40018
1.40005
1.39998
1.43565
1.44257
1.44821
1.4518
1.45296
1.4517
1.44831
1.44322
1.43691
1.4298
1.42227
1.41464
1.40716
1.40003
1.3934
1.38738
1.38204
1.3774
1.37347
1.37021
1.36759
1.36553
1.36396
1.36278
1.36193
1.3613
1.36083
1.36046
1.36012
1.35979
1.35944
1.35908
1.35871
1.35836
1.35808
1.35793
1.35799
1.35834
1.35909
1.36035
1.36223
1.36482
1.36819
1.37239
1.37743
1.38334
1.39014
1.39784
1.4064
1.41564
1.42518
1.43443
1.44262
1.44898
1.45287
1.45398
1.4524
1.44856
1.44315
1.4369
1.43048
1.4244
1.41897
1.41436
1.41059
1.40761
1.40533
1.40363
1.4024
1.40152
1.40092
1.40052
1.40026
1.4001
1.40001
1.43973
1.44614
1.45067
1.45275
1.45224
1.44938
1.4446
1.43839
1.43121
1.42349
1.41557
1.40775
1.40026
1.39327
1.38691
1.38128
1.37642
1.37233
1.36902
1.36643
1.36448
1.3631
1.36218
1.36163
1.36133
1.3612
1.36113
1.36107
1.36097
1.36077
1.36047
1.36005
1.35952
1.35893
1.35831
1.35772
1.35725
1.35699
1.35706
1.35758
1.35869
1.36051
1.36316
1.36671
1.37118
1.3766
1.38299
1.39037
1.39872
1.40794
1.41777
1.42769
1.43701
1.44489
1.45055
1.45347
1.4535
1.4509
1.44626
1.44034
1.43389
1.42752
1.42167
1.41658
1.41236
1.40897
1.40634
1.40437
1.40291
1.40188
1.40116
1.40067
1.40036
1.40016
1.40004
1.44346
1.44899
1.45215
1.4526
1.45049
1.44619
1.44023
1.43311
1.42527
1.41712
1.40898
1.40112
1.39375
1.38702
1.38106
1.37594
1.37168
1.36827
1.36569
1.36386
1.36269
1.36207
1.36188
1.362
1.36229
1.36266
1.36301
1.36327
1.36339
1.36332
1.36305
1.36258
1.36192
1.3611
1.36015
1.35915
1.35815
1.35727
1.35662
1.35634
1.35659
1.35753
1.35931
1.36204
1.36579
1.37059
1.37645
1.38339
1.39141
1.40046
1.41035
1.42068
1.43083
1.43997
1.44724
1.45193
1.45366
1.45248
1.44886
1.44349
1.43719
1.43067
1.42447
1.41895
1.41427
1.41046
1.40747
1.40519
1.4035
1.40229
1.40144
1.40086
1.40047
1.40023
1.40008
1.44665
1.451
1.45263
1.45148
1.44789
1.44236
1.43542
1.42757
1.41925
1.41083
1.40261
1.39484
1.38772
1.38138
1.37594
1.37145
1.3679
1.36529
1.36355
1.36259
1.36228
1.36248
1.36306
1.36385
1.36473
1.36557
1.3663
1.36683
1.36712
1.36715
1.36691
1.36639
1.36562
1.3646
1.36338
1.362
1.36054
1.35908
1.35773
1.35665
1.35601
1.35599
1.35679
1.35856
1.36141
1.36543
1.37062
1.377
1.38457
1.39331
1.40309
1.4136
1.42431
1.43444
1.4431
1.44945
1.4529
1.45327
1.45085
1.44626
1.4403
1.43377
1.42732
1.42142
1.4163
1.41207
1.4087
1.4061
1.40416
1.40275
1.40175
1.40107
1.40061
1.40031
1.40013
1.44916
1.45213
1.45219
1.44954
1.44464
1.43806
1.43033
1.42193
1.41327
1.40472
1.39654
1.38899
1.38225
1.37643
1.37163
1.36787
1.36517
1.36345
1.36265
1.36263
1.36323
1.36428
1.3656
1.36703
1.36841
1.36964
1.37063
1.37134
1.37173
1.3718
1.37155
1.37099
1.37013
1.36899
1.36758
1.36593
1.3641
1.36216
1.36021
1.3584
1.35689
1.3559
1.35565
1.35636
1.35819
1.36126
1.36562
1.3713
1.3783
1.3866
1.39612
1.40661
1.41764
1.42851
1.43833
1.44617
1.45128
1.45327
1.4522
1.44857
1.44315
1.43677
1.43018
1.42395
1.41844
1.41379
1.41003
1.4071
1.40489
1.40327
1.40211
1.40131
1.40076
1.40041
1.40019
1.45091
1.45241
1.45095
1.44694
1.44092
1.43347
1.42511
1.4163
1.40744
1.39888
1.39088
1.38367
1.37741
1.37222
1.36817
1.36527
1.36351
1.36279
1.363
1.36396
1.36548
1.36732
1.3693
1.37123
1.37296
1.37439
1.37549
1.37622
1.37659
1.37662
1.37633
1.37574
1.37485
1.37367
1.37219
1.37042
1.36838
1.36613
1.36373
1.36132
1.35906
1.35716
1.35588
1.35548
1.35619
1.35818
1.36157
1.3664
1.37269
1.38042
1.38953
1.39984
1.41099
1.42235
1.43309
1.44224
1.4489
1.4525
1.45288
1.45037
1.44566
1.43959
1.43299
1.42652
1.42065
1.4156
1.41146
1.40819
1.40569
1.40384
1.40251
1.40158
1.40094
1.40053
1.40026
1.45191
1.45192
1.44906
1.44385
1.43687
1.4287
1.41985
1.41076
1.40183
1.39338
1.38567
1.37891
1.37325
1.3688
1.36561
1.36367
1.36295
1.3633
1.36455
1.36648
1.36882
1.37133
1.37378
1.37598
1.37781
1.37922
1.3802
1.38078
1.38099
1.3809
1.38055
1.37995
1.37911
1.37802
1.37663
1.37492
1.37287
1.37051
1.36787
1.36506
1.36222
1.35956
1.35734
1.35586
1.35542
1.35625
1.35855
1.36239
1.36783
1.37486
1.38343
1.3934
1.40448
1.41613
1.42756
1.4378
1.44587
1.45102
1.45289
1.45162
1.44777
1.44217
1.43569
1.42908
1.4229
1.41748
1.41296
1.40935
1.40656
1.40447
1.40295
1.40188
1.40115
1.40066
1.40034
1.45218
1.45078
1.44665
1.44039
1.43261
1.42386
1.41465
1.40541
1.39652
1.38829
1.38097
1.37477
1.36981
1.3662
1.36397
1.36309
1.36347
1.36491
1.36718
1.36997
1.37297
1.3759
1.37853
1.3807
1.38234
1.38344
1.38407
1.38429
1.3842
1.38391
1.38346
1.3829
1.38222
1.38137
1.38027
1.37885
1.37705
1.37483
1.3722
1.36924
1.36604
1.36281
1.35981
1.35736
1.3558
1.35545
1.35657
1.35932
1.36378
1.36998
1.37789
1.38739
1.39824
1.40997
1.42187
1.433
1.44231
1.44892
1.45228
1.45232
1.44947
1.44447
1.43824
1.43159
1.42517
1.41942
1.41454
1.41058
1.40748
1.40515
1.40343
1.40221
1.40137
1.40081
1.40044
1.45183
1.44911
1.44385
1.43669
1.42824
1.41903
1.40958
1.4003
1.39156
1.38366
1.37683
1.37127
1.36712
1.36445
1.36326
1.3635
1.365
1.36749
1.37066
1.37411
1.3775
1.38053
1.38299
1.38477
1.38587
1.38636
1.38636
1.38601
1.38548
1.38489
1.38434
1.38388
1.38348
1.38306
1.3825
1.38166
1.38039
1.37861
1.37629
1.37344
1.37016
1.36661
1.36304
1.35977
1.3572
1.35571
1.35563
1.35721
1.3606
1.36585
1.37297
1.38186
1.39234
1.40399
1.41617
1.42797
1.43835
1.44629
1.45109
1.45248
1.45072
1.44646
1.44059
1.434
1.42743
1.42138
1.41616
1.41186
1.40846
1.40587
1.40395
1.40258
1.40162
1.40097
1.40054
1.45094
1.44702
1.44078
1.43285
1.42384
1.4143
1.40472
1.3955
1.38699
1.3795
1.37325
1.36844
1.36517
1.36352
1.36344
1.36483
1.36741
1.37084
1.37469
1.37852
1.38194
1.38467
1.38656
1.38757
1.38777
1.3873
1.38638
1.38523
1.38406
1.38306
1.38238
1.38206
1.38209
1.38235
1.38263
1.38271
1.38235
1.38138
1.3797
1.37729
1.37423
1.37063
1.36674
1.36288
1.35946
1.35691
1.35566
1.35604
1.35828
1.36249
1.36871
1.37689
1.38686
1.39828
1.41056
1.42285
1.4341
1.44324
1.4494
1.45214
1.45152
1.4481
1.44272
1.43629
1.42963
1.42335
1.41781
1.41319
1.40949
1.40664
1.40451
1.40297
1.40189
1.40115
1.40066
1.44962
1.44462
1.43751
1.42893
1.41949
1.40972
1.4001
1.39102
1.38284
1.37585
1.37026
1.36627
1.36397
1.36339
1.36446
1.36696
1.37052
1.37468
1.37891
1.38274
1.38578
1.38779
1.38869
1.3885
1.38739
1.38559
1.3834
1.38113
1.37909
1.37754
1.37666
1.37655
1.37716
1.37836
1.37985
1.38129
1.3823
1.38259
1.38198
1.3804
1.37788
1.37456
1.37064
1.36643
1.36236
1.3589
1.35656
1.35576
1.35681
1.35991
1.36515
1.37251
1.38186
1.39291
1.40513
1.41773
1.42968
1.43985
1.44728
1.45133
1.4519
1.4494
1.4446
1.43842
1.43176
1.4253
1.41948
1.41455
1.41055
1.40744
1.4051
1.40339
1.40218
1.40134
1.40079
1.44795
1.442
1.43413
1.42502
1.41525
1.40534
1.39576
1.38691
1.37913
1.3727
1.36785
1.36475
1.36347
1.36401
1.36621
1.36973
1.37408
1.37868
1.38293
1.38635
1.38857
1.38942
1.38886
1.38701
1.38412
1.38052
1.37662
1.37287
1.36966
1.36737
1.36623
1.36636
1.36773
1.37015
1.37326
1.37656
1.37953
1.38167
1.38266
1.38235
1.38078
1.37807
1.37443
1.37017
1.3657
1.36152
1.35821
1.35628
1.35615
1.3581
1.36229
1.36874
1.37737
1.38794
1.39996
1.41271
1.42518
1.43623
1.4448
1.45011
1.45187
1.45034
1.4462
1.44038
1.43379
1.4272
1.42115
1.41593
1.41164
1.40827
1.40571
1.40383
1.40248
1.40155
1.40093
1.44602
1.43922
1.43072
1.42117
1.41116
1.40119
1.39173
1.38318
1.37586
1.37007
1.36601
1.36385
1.36364
1.36529
1.36854
1.37292
1.3778
1.38249
1.38637
1.38895
1.3899
1.3891
1.38657
1.38252
1.37729
1.37135
1.36526
1.35959
1.35491
1.35166
1.35017
1.35058
1.35287
1.35681
1.36196
1.36768
1.37325
1.37793
1.38119
1.38275
1.3826
1.38088
1.37785
1.37383
1.36923
1.36457
1.36046
1.3575
1.35623
1.35702
1.36011
1.36559
1.37342
1.3834
1.3951
1.40785
1.42069
1.43248
1.44206
1.44855
1.45148
1.45095
1.44754
1.44214
1.4357
1.42904
1.42279
1.4173
1.41275
1.40912
1.40635
1.40429
1.40281
1.40178
1.40108
1.4439
1.43636
1.42733
1.41743
1.40725
1.3973
1.38802
1.37983
1.37304
1.36793
1.36472
1.36354
1.36439
1.36711
1.37128
1.3763
1.3814
1.38582
1.38891
1.39021
1.38941
1.38643
1.38136
1.37448
1.36628
1.3574
1.34858
1.34058
1.33411
1.32972
1.3278
1.32854
1.33191
1.33764
1.34522
1.35389
1.36271
1.37069
1.37701
1.38115
1.383
1.38273
1.38066
1.37718
1.37273
1.36784
1.36314
1.3593
1.35697
1.35662
1.35859
1.36305
1.37001
1.37932
1.3906
1.40323
1.41629
1.42866
1.43914
1.4467
1.45076
1.45124
1.44861
1.4437
1.43746
1.4308
1.42439
1.41867
1.41386
1.40999
1.407
1.40476
1.40315
1.40201
1.40123
1.44167
1.43349
1.424
1.41384
1.40357
1.39368
1.38465
1.37686
1.37064
1.36626
1.36393
1.36375
1.36564
1.36933
1.37425
1.37964
1.38463
1.38839
1.39028
1.38983
1.38678
1.38104
1.37278
1.36241
1.35058
1.33815
1.32609
1.31535
1.3068
1.30111
1.29872
1.29986
1.30447
1.31225
1.32261
1.33468
1.34734
1.35935
1.36954
1.37708
1.38165
1.38338
1.38268
1.38005
1.37602
1.37114
1.36607
1.36154
1.35825
1.35682
1.35768
1.3611
1.36714
1.3757
1.38648
1.39888
1.41204
1.42486
1.43609
1.44464
1.44977
1.45124
1.44942
1.44504
1.43908
1.43246
1.42594
1.42002
1.41496
1.41086
1.40766
1.40525
1.40349
1.40225
1.4014
1.43938
1.43064
1.42078
1.41042
1.40012
1.39036
1.38161
1.37427
1.36866
1.36504
1.3636
1.3644
1.36728
1.3718
1.37726
1.38273
1.38726
1.38999
1.39026
1.3876
1.38173
1.37263
1.36052
1.34597
1.32987
1.31331
1.29752
1.28369
1.27282
1.26568
1.2628
1.26441
1.27045
1.28055
1.29403
1.30989
1.32688
1.34351
1.35832
1.37009
1.37818
1.38257
1.38373
1.38229
1.37894
1.37432
1.3691
1.36406
1.35997
1.35755
1.35734
1.3597
1.36479
1.37256
1.38275
1.39484
1.40799
1.42113
1.433
1.44243
1.44855
1.45099
1.44998
1.44618
1.44054
1.43402
1.42742
1.42133
1.41605
1.41172
1.40832
1.40574
1.40385
1.4025
1.40157
1.43707
1.42787
1.41769
1.4072
1.39691
1.38732
1.37889
1.37204
1.36706
1.36421
1.36366
1.36541
1.36918
1.37437
1.38012
1.38538
1.38912
1.39046
1.3887
1.38334
1.37411
1.36102
1.34441
1.32504
1.30405
1.28283
1.26288
1.2456
1.23216
1.22344
1.22004
1.22221
1.2299
1.24265
1.25964
1.27972
1.30144
1.32317
1.34317
1.35988
1.37226
1.38004
1.38362
1.38379
1.3814
1.37725
1.37209
1.36673
1.362
1.35869
1.35747
1.3588
1.36293
1.36988
1.37943
1.39112
1.40417
1.41752
1.42991
1.44012
1.44715
1.45053
1.45032
1.44712
1.44184
1.43545
1.42882
1.42258
1.41711
1.41258
1.40898
1.40623
1.4042
1.40275
1.40174
1.43479
1.4252
1.41477
1.40418
1.39397
1.38458
1.37649
1.37014
1.36582
1.36374
1.36406
1.36669
1.37122
1.3769
1.38269
1.38746
1.39011
1.3897
1.38549
1.37697
1.36387
1.34622
1.32451
1.29971
1.27327
1.2469
1.22236
1.20126
1.18495
1.17446
1.17046
1.17329
1.18286
1.19865
1.21964
1.24444
1.27137
1.29862
1.32425
1.34643
1.36376
1.37559
1.38219
1.38441
1.38329
1.37984
1.37493
1.36943
1.36422
1.36016
1.35801
1.35836
1.36153
1.36764
1.37652
1.38775
1.40062
1.41408
1.42689
1.43776
1.44563
1.44988
1.45046
1.44787
1.44297
1.43676
1.43013
1.42378
1.41814
1.41341
1.40963
1.40672
1.40456
1.40301
1.40192
1.43258
1.42267
1.41204
1.40139
1.39128
1.38213
1.37439
1.36855
1.36489
1.36357
1.3647
1.36813
1.3733
1.37926
1.38487
1.38889
1.39016
1.38766
1.38063
1.36854
1.3511
1.32839
1.30104
1.27029
1.23791
1.20591
1.17631
1.15096
1.13142
1.1189
1.11421
1.11774
1.12942
1.14864
1.17418
1.20432
1.23704
1.27026
1.30191
1.32997
1.35272
1.36918
1.37935
1.38407
1.38455
1.38202
1.37754
1.37207
1.36653
1.36185
1.35888
1.3583
1.36055
1.3658
1.37399
1.38473
1.39734
1.41083
1.42396
1.43541
1.44404
1.4491
1.45043
1.44845
1.44396
1.43794
1.43135
1.42491
1.41912
1.41421
1.41026
1.4072
1.40491
1.40326
1.4021
1.43045
1.42029
1.4095
1.39881
1.38884
1.37995
1.37258
1.36724
1.36423
1.36365
1.36552
1.36965
1.37531
1.38137
1.38657
1.38961
1.38924
1.38439
1.37423
1.35821
1.33604
1.30785
1.27443
1.23731
1.19854
1.16041
1.12524
1.09516
1.07205
1.05732
1.0519
1.0562
1.07018
1.09315
1.1237
1.15974
1.19885
1.23857
1.27662
1.31085
1.33938
1.3609
1.37511
1.38273
1.38513
1.38374
1.37986
1.37456
1.36883
1.36367
1.35999
1.35856
1.35992
1.36435
1.37183
1.38204
1.39436
1.40781
1.42118
1.43311
1.4424
1.44821
1.45026
1.44887
1.44479
1.439
1.43246
1.42596
1.42004
1.41498
1.41086
1.40766
1.40526
1.40351
1.40227
1.42843
1.41808
1.40719
1.39647
1.38663
1.37804
1.37104
1.36617
1.3638
1.36391
1.36646
1.37116
1.37717
1.38316
1.38777
1.38963
1.38743
1.37999
1.36645
1.34625
1.31907
1.28511
1.24532
1.20148
1.15592
1.1112
1.06997
1.03482
1.008
0.991122
0.985107
0.990344
1.00674
1.0336
1.06935
1.11164
1.15754
1.20417
1.24893
1.28957
1.32408
1.35093
1.36954
1.38044
1.38503
1.38499
1.38184
1.37684
1.37106
1.36554
1.36125
1.35906
1.3596
1.36323
1.37001
1.37969
1.39167
1.40503
1.41856
1.43089
1.44077
1.44726
1.44998
1.44916
1.44549
1.43993
1.43347
1.42694
1.4209
1.4157
1.41144
1.4081
1.40559
1.40375
1.40244
1.42654
1.41603
1.4051
1.39437
1.38466
1.37637
1.36974
1.36532
1.36354
1.36431
1.36743
1.3726
1.37883
1.38461
1.38845
1.38898
1.3848
1.37464
1.35757
1.33302
1.30067
1.26079
1.21448
1.16373
1.11107
1.05939
1.01184
0.971622
0.941355
0.922708
0.916456
0.922834
0.941697
0.972326
1.01314
1.06158
1.11434
1.16802
1.21963
1.26675
1.30729
1.3396
1.36281
1.37726
1.38429
1.38577
1.38348
1.37887
1.37314
1.36738
1.36261
1.35975
1.35954
1.36241
1.36852
1.37765
1.38928
1.4025
1.41613
1.42879
1.43917
1.44627
1.44961
1.44933
1.44605
1.44073
1.43437
1.42782
1.4217
1.41637
1.41198
1.40852
1.4059
1.40398
1.40261
1.4248
1.41416
1.40324
1.39251
1.38289
1.37492
1.36868
1.36464
1.3634
1.36479
1.3684
1.3739
1.38023
1.3857
1.38866
1.38775
1.38153
1.36859
1.34792
1.31894
1.28141
1.23565
1.18286
1.12516
1.06529
1.00656
0.95285
0.907998
0.87492
0.855128
0.849082
0.856796
0.878048
0.91213
0.957508
1.01159
1.07082
1.13135
1.1897
1.24316
1.28961
1.3273
1.35517
1.37331
1.38296
1.3861
1.38477
1.38064
1.37505
1.36914
1.36398
1.36056
1.35967
1.36185
1.3673
1.37591
1.38717
1.40022
1.4139
1.42682
1.43764
1.44528
1.44919
1.4494
1.44651
1.44143
1.43517
1.42861
1.42242
1.41699
1.41248
1.40891
1.40619
1.40419
1.40276
1.42325
1.41246
1.40159
1.39092
1.38135
1.37365
1.36782
1.36414
1.36333
1.36529
1.36933
1.37502
1.38137
1.38645
1.38844
1.38604
1.37779
1.3621
1.33786
1.30452
1.26193
1.21051
1.1515
1.08707
1.02019
0.954759
0.895463
0.846783
0.811715
0.791415
0.785935
0.795063
0.818503
0.85556
0.904793
0.963703
1.02868
1.0955
1.16019
1.21969
1.27173
1.31455
1.34696
1.36878
1.38113
1.38604
1.38573
1.38214
1.37674
1.37077
1.36532
1.36142
1.35994
1.36149
1.36634
1.37444
1.38534
1.39821
1.4119
1.42502
1.43621
1.44432
1.44873
1.4494
1.44686
1.44201
1.43586
1.42931
1.42307
1.41754
1.41294
1.40927
1.40647
1.40439
1.40291
1.4219
1.41093
1.40013
1.38958
1.38002
1.37253
1.36713
1.36378
1.3633
1.36576
1.37019
1.37596
1.38221
1.38689
1.38791
1.38399
1.37378
1.35549
1.32781
1.29025
1.24288
1.18621
1.12149
1.05087
0.97759
0.906208
0.842257
0.790704
0.754414
0.734054
0.729272
0.73969
0.764983
0.804473
0.856803
0.919632
0.989421
1.06174
1.13215
1.19717
1.25434
1.3019
1.33854
1.36392
1.37895
1.38564
1.38639
1.38336
1.3782
1.37223
1.36657
1.3623
1.36031
1.36129
1.3656
1.37323
1.38377
1.39645
1.41012
1.4234
1.43489
1.44341
1.44825
1.44933
1.44712
1.44249
1.43644
1.42992
1.42363
1.41804
1.41334
1.40959
1.40671
1.40458
1.40304
1.42079
1.40962
1.39884
1.38847
1.37895
1.37154
1.36656
1.36357
1.36329
1.36615
1.37094
1.37671
1.38276
1.38706
1.38715
1.38175
1.36969
1.34905
1.31821
1.2767
1.22489
1.16353
1.09385
1.01792
0.939228
0.86299
0.795474
0.741948
0.704979
0.68471
0.680468
0.691827
0.718523
0.759912
0.814671
0.880578
0.954238
1.03115
1.10652
1.17641
1.23812
1.28986
1.33032
1.35898
1.37655
1.38498
1.38679
1.38432
1.37943
1.3735