/*--------------------------------*- C++ -*----------------------------------*\
  =========                 |
  \\      /  F ield         | OpenFOAM: The Open Source CFD Toolbox
   \\    /   O peration     | Website:  https://openfoam.org
    \\  /    A nd           | Version:  6
     \\/     M anipulation  |
\*---------------------------------------------------------------------------*/
FoamFile
{
    version     2.0;
    format      ascii;
    class       volScalarField;
    location    "1.98";
    object      k;
}
// * * * * * * * * * * * * * * * * * * * * * * * * * * * * * * * * * * * * * //

dimensions      [0 2 -2 0 0 0 0];

internalField   nonuniform List<scalar> 
4214
(
0.0900674
0.0425776
0.024941
0.0182997
0.0158151
0.0149501
0.0147857
0.0150481
0.0157778
0.0172966
0.0202633
0.02579
0.035572
0.0519854
0.0782048
0.118597
0.180968
0.285486
0.488158
0.804402
0.984755
1.10651
0.905521
0.595749
0.377285
0.237659
0.147162
0.0895962
0.0547411
0.0348626
0.0241883
0.0187886
0.0162203
0.0150848
0.0146941
0.0148241
0.0156828
0.0181808
0.0248808
0.0427175
0.0907745
0.0387438
0.0236213
0.0179708
0.0158244
0.0150453
0.0148552
0.0149982
0.0154668
0.0164554
0.0184055
0.022122
0.0288951
0.0406131
0.0598048
0.0896841
0.134506
0.202008
0.312779
0.522199
0.848205
1.03575
1.20152
1.03456
0.693326
0.439696
0.278036
0.173161
0.10577
0.0643269
0.0402899
0.0271619
0.0203976
0.0171078
0.0155833
0.0149281
0.0147292
0.0149
0.0156538
0.0177444
0.0232631
0.0380003
0.020107
0.016987
0.0156521
0.0151154
0.014972
0.0150679
0.0153908
0.0160546
0.0173546
0.0198557
0.024531
0.0328753
0.0469891
0.069545
0.103762
0.153746
0.227087
0.344434
0.560042
0.893626
1.0877
1.29191
1.17445
0.806842
0.514265
0.325964
0.204108
0.125235
0.0760256
0.0470075
0.0308885
0.0224345
0.0182478
0.0162585
0.0153491
0.0149524
0.0148378
0.0149659
0.0154638
0.0167067
0.0196075
0.0163211
0.0155574
0.0152295
0.015147
0.0152318
0.0154737
0.0159424
0.0168258
0.0185207
0.0217347
0.027641
0.0379688
0.0550482
0.0816828
0.121038
0.177035
0.257144
0.382168
0.605293
0.948133
1.15423
1.39001
1.33445
0.940725
0.603494
0.38289
0.240966
0.148645
0.0902915
0.0553049
0.035543
0.0249954
0.0196863
0.0171185
0.0159185
0.0153539
0.0150946
0.0150084
0.0150798
0.0153737
0.0160641
0.0155122
0.0153592
0.0153507
0.0154479
0.0156517
0.0160043
0.0166306
0.0177929
0.0200105
0.0241634
0.0316669
0.0445197
0.0652972
0.0969018
0.14237
0.205387
0.293359
0.4271
0.658175
1.00916
1.2276
1.4873
1.50948
1.09644
0.709513
0.450857
0.284993
0.176847
0.107714
0.0655719
0.0413632
0.028211
0.0214856
0.0181796
0.0166176
0.015869
0.0154989
0.0153052
0.0152175
0.015224
0.0153599
0.0155688
0.0156087
0.0157217
0.0159038
0.016187
0.0166484
0.0174712
0.0190061
0.0219292
0.0273319
0.0369258
0.0530156
0.0784313
0.116119
0.168894
0.240139
0.337338
0.481192
0.721176
1.07974
1.31126
1.58839
1.70166
1.27716
0.835633
0.532425
0.337806
0.210916
0.129046
0.0783148
0.0486717
0.0322668
0.0237465
0.0194866
0.0174577
0.0164817
0.0160008
0.0157371
0.0155795
0.0154833
0.0154481
0.0159262
0.0160454
0.0162156
0.0164513
0.0168098
0.0174053
0.0184962
0.0205459
0.0244369
0.0315203
0.0438743
0.0641431
0.0954057
0.140562
0.2021
0.283047
0.391038
0.54672
0.796611
1.16171
1.40542
1.69361
1.91015
1.48524
0.985695
0.630509
0.40145
0.252241
0.155262
0.0941959
0.0579026
0.0374204
0.026615
0.0211107
0.0184666
0.0171893
0.0165729
0.0162428
0.0160453
0.015908
0.0158112
0.0164271
0.016577
0.0167818
0.0170668
0.0175193
0.0183002
0.0197734
0.0225467
0.0277824
0.0371455
0.0531724
0.0788647
0.117522
0.171858
0.243919
0.336365
0.457036
0.626458
0.887511
1.2578
1.51141
1.80551
2.13482
1.72294
1.16376
0.748626
0.478516
0.302611
0.187611
0.114077
0.069637
0.0440247
0.0303019
0.0231621
0.0196993
0.0180101
0.0172109
0.0167975
0.0165651
0.0164089
0.0162959
0.0169871
0.0171598
0.0173997
0.0177474
0.0183358
0.0193862
0.0214181
0.0252205
0.0323453
0.0448218
0.0657683
0.0985187
0.146533
0.212141
0.29684
0.402958
0.538622
0.723852
0.997064
1.37083
1.63036
1.92657
2.37521
1.9919
1.37418
0.891121
0.57227
0.364338
0.227718
0.139079
0.0846543
0.0525595
0.0351067
0.0258024
0.021245
0.0189834
0.0179281
0.0173954
0.0171173
0.0169435
0.016825
0.0175906
0.017786
0.0180724
0.0185117
0.0193073
0.0207578
0.0236199
0.0288971
0.0387035
0.0554502
0.0830162
0.124945
0.184773
0.264183
0.364059
0.486465
0.639881
0.843136
1.129
1.50354
1.76347
2.05991
2.63141
2.29346
1.62087
1.06305
0.686959
0.440347
0.277712
0.170668
0.104005
0.0636761
0.0414546
0.0292639
0.0232409
0.0201759
0.0187586
0.0180476
0.0177008
0.0175002
0.0173778
0.0182359
0.0184614
0.0188191
0.0193985
0.0205199
0.0225696
0.026685
0.0340843
0.0477361
0.070341
0.106835
0.160636
0.235315
0.331574
0.449699
0.59154
0.765864
0.989253
1.28747
1.65878
1.91178
2.20901
2.90354
2.62711
1.90752
1.27014
0.827768
0.534487
0.340416
0.21076
0.129116
0.0782548
0.0499534
0.0338782
0.0258952
0.0216898
0.0197609
0.0187798
0.0183274
0.0180801
0.0179476
0.0189301
0.0192015
0.0196769
0.0204745
0.0221207
0.02507
0.0311101
0.041558
0.0607808
0.0913731
0.139921
0.208914
0.302187
0.418977
0.55913
0.724182
0.922793
1.16777
1.47668
1.83921
2.07614
2.37729
3.19109
2.99146
2.23689
1.51826
1.001
0.651682
0.419621
0.261866
0.161958
0.0974767
0.0614813
0.0401137
0.0295257
0.0236787
0.0210306
0.019635
0.019022
0.0186938
0.0185389
0.0196913
0.0200346
0.0207136
0.0218504
0.0243649
0.0286539
0.0377083
0.0524854
0.0798718
0.121174
0.186033
0.274136
0.39072
0.532555
0.699466
0.892039
1.11803
1.3846
1.70066
2.04729
2.25741
2.56931
3.49461
3.38469
2.61008
1.81293
1.21412
0.798142
0.520497
0.327244
0.205307
0.122905
0.0773277
0.0486243
0.0346258
0.0263698
0.0227246
0.02068
0.0198269
0.0193591
0.019163
0.0205552
0.0210085
0.0220544
0.0237077
0.0277038
0.0339344
0.0478283
0.0685638
0.108103
0.163262
0.250415
0.361898
0.508181
0.680595
0.88021
1.10456
1.35973
1.64548
1.96312
2.28639
2.45961
2.80824
3.81799
3.80469
3.02627
2.15874
1.47578
0.981399
0.650234
0.411007
0.263188
0.156542
0.0994328
0.060294
0.0419814
0.0300917
0.0251073
0.0220183
0.0208168
0.0201032
0.0198399
0.0215826
0.0221986
0.0239409
0.0263323
0.0329586
0.0418116
0.0637386
0.0920843
0.150222
0.222021
0.340586
0.479126
0.664909
0.874097
1.11415
1.37408
1.65594
1.95487
2.26712
2.56446
2.71821
3.10814
4.17443
4.25033
3.48168
2.55794
1.79589
1.2098
0.819221
0.517978
0.341702
0.200767
0.130825
0.0762335
0.0528867
0.0352923
0.0286414
0.0238033
0.0221317
0.020968
0.0206043
0.0228966
0.0237172
0.026866
0.0301284
0.0416797
0.053452
0.0893904
0.125713
0.213779
0.30214
0.468135
0.633722
0.87671
1.12633
1.41869
1.7088
2.01109
2.31054
2.6113
2.90816
3.06235
3.47119
4.59699
4.71574
3.96393
3.00434
2.18648
1.48996
1.04383
0.652736
0.450771
0.25786
0.176508
0.0975882
0.0695812
0.0424947
0.0341786
0.0262349
0.0240496
0.0220149
0.0215274
0.0247927
0.0256924
0.0318937
0.0354966
0.0569327
0.0698394
0.131972
0.171298
0.311856
0.406649
0.653458
0.832251
1.1709
1.44675
1.80538
2.10727
2.41935
2.68512
2.97591
3.27318
3.00904
3.68113
4.79187
5.14915
4.42502
3.46358
2.6647
1.81737
1.35386
0.816116
0.608354
0.328229
0.245504
0.124742
0.0962109
0.0519991
0.0433904
0.0294745
0.0271614
0.0233094
0.0227785
0.0219167
0.0211236
0.020389
0.0197087
0.0190713
0.0184633
0.0178738
0.0172989
0.0167405
0.0162155
0.0157532
0.0154991
0.0157065
0.0175101
0.0263616
0.0790681
0.22438
0.0218767
0.0211371
0.0204717
0.0198544
0.0192683
0.0187011
0.0181464
0.0176053
0.0170824
0.0165925
0.0161575
0.015913
0.0160888
0.0178779
0.0273394
0.088856
0.2441
0.0217931
0.0211771
0.0205899
0.0200274
0.0194828
0.0189498
0.0184258
0.0179156
0.0174262
0.0169701
0.0165685
0.0163472
0.0165345
0.0183469
0.0281824
0.0970117
0.260867
0.0218677
0.0213041
0.02076
0.0202347
0.0197219
0.019217
0.0187202
0.0182395
0.0177822
0.0173589
0.016993
0.0168023
0.0170291
0.018848
0.0286499
0.0998754
0.277223
0.022
0.021471
0.0209632
0.0204689
0.0199823
0.0195012
0.0190302
0.0185781
0.0181509
0.0177588
0.0174291
0.0172752
0.0175558
0.0193994
0.028916
0.0981643
0.291847
0.0221373
0.0216689
0.0211967
0.0207283
0.0202635
0.0198043
0.0193586
0.0189342
0.0185361
0.018174
0.0178798
0.0177663
0.0181094
0.01999
0.0291144
0.0941216
0.304385
0.0223898
0.0219172
0.0214617
0.0210122
0.020566
0.0201282
0.0197078
0.019311
0.0189409
0.0186079
0.0183489
0.018278
0.0186902
0.0206362
0.0293433
0.0894169
0.314652
0.0225711
0.0221673
0.0217452
0.0213172
0.0208904
0.0204753
0.0200809
0.0197114
0.0193685
0.0190641
0.0188404
0.0188148
0.0193028
0.0213217
0.0296961
0.0851191
0.32297
0.0229069
0.0224768
0.0220602
0.0216464
0.0212393
0.0208488
0.0204814
0.0201385
0.0198221
0.0195467
0.0193591
0.0193826
0.019953
0.0220654
0.0302324
0.081788
0.329834
0.023126
0.0227715
0.0223873
0.0219961
0.0216138
0.0212512
0.0209118
0.0205952
0.020305
0.0200592
0.0199095
0.0199865
0.0206474
0.0228834
0.030983
0.0796341
0.335689
0.0235289
0.0231323
0.022748
0.0223736
0.0220177
0.0216848
0.021374
0.0210841
0.0208206
0.0206052
0.0204963
0.0206324
0.0213941
0.0237837
0.031956
0.0786696
0.34057
0.0237847
0.0234685
0.0231201
0.022776
0.0224524
0.0221513
0.0218696
0.0216069
0.0213713
0.0211883
0.0211239
0.0213251
0.022201
0.0247752
0.0331633
0.0787567
0.344689
0.0242427
0.0238755
0.0235315
0.0232134
0.0229224
0.0226529
0.0224002
0.0221654
0.0219595
0.0218114
0.0217949
0.0220672
0.0230737
0.0258629
0.0346004
0.0797072
0.348462
0.0245366
0.0242578
0.0239606
0.0236827
0.0234282
0.0231909
0.0229675
0.0227616
0.0225871
0.0224767
0.0225124
0.0228623
0.024012
0.0270408
0.0362418
0.0813167
0.351692
0.0250397
0.024715
0.0244357
0.0241924
0.0239726
0.0237668
0.0235732
0.0233974
0.0232561
0.0231863
0.0232787
0.0237142
0.0250226
0.0283151
0.0380791
0.0833773
0.354525
0.0253801
0.0251591
0.0249375
0.0247385
0.0245548
0.0243814
0.0242186
0.0240747
0.0239689
0.023943
0.0240964
0.0246237
0.0261022
0.0296768
0.0400935
0.0855794
0.3566
0.025924
0.0256798
0.0254881
0.0253265
0.025177
0.0250363
0.0249057
0.0247957
0.0247281
0.024749
0.0249672
0.0255922
0.0272476
0.031119
0.0422332
0.0877432
0.357737
0.0263304
0.0262058
0.0260711
0.0259526
0.0258386
0.0257325
0.0256363
0.0255631
0.0255363
0.025607
0.0258933
0.0266206
0.0284545
0.0326333
0.0443365
0.0902432
0.357801
0.0269161
0.0268017
0.0266993
0.0266198
0.0265414
0.026472
0.0264127
0.0263793
0.0263965
0.0265209
0.026877
0.0277096
0.0297196
0.0342176
0.0465095
0.092829
0.356996
0.0274202
0.0274173
0.0273619
0.0273261
0.0272863
0.0272571
0.0272384
0.027248
0.0273119
0.0274927
0.0279199
0.0288608
0.0310416
0.0358641
0.0487475
0.0954968
0.354903
0.0280531
0.0280854
0.0280673
0.0280744
0.0280768
0.0280915
0.0281175
0.0281736
0.0282884
0.0285276
0.0290264
0.0300726
0.0324108
0.0375564
0.0510274
0.0982144
0.351163
0.0286962
0.0287789
0.028811
0.0288655
0.0289158
0.0289786
0.0290543
0.0291618
0.0293316
0.0296322
0.0302037
0.0313546
0.0338456
0.0393094
0.0533905
0.101261
0.346274
0.0293813
0.0295136
0.0295999
0.0297044
0.0298077
0.0299237
0.030055
0.0302194
0.0304495
0.0308154
0.0314609
0.0327135
0.0353491
0.0411232
0.0558434
0.104231
0.340897
0.03011
0.0302834
0.0304302
0.0305929
0.0307564
0.0309323
0.0311251
0.0313521
0.0316462
0.0320781
0.0327945
0.034132
0.0368751
0.0428942
0.0581161
0.106788
0.335824
0.030864
0.0311031
0.031313
0.0315378
0.0317675
0.0320111
0.0322732
0.0325702
0.0329341
0.0334343
0.034218
0.0356229
0.0384391
0.0446202
0.0601877
0.108797
0.33116
0.031666
0.031961
0.0322446
0.0325429
0.0328483
0.0331687
0.0335095
0.0338859
0.0343282
0.0349021
0.0357523
0.0372103
0.0400628
0.0463115
0.0620439
0.110354
0.326963
0.0324997
0.0328757
0.0332366
0.033615
0.0340056
0.0344141
0.0348456
0.0353137
0.0358462
0.0365039
0.0374247
0.0389272
0.0417828
0.0480043
0.0636973
0.11159
0.323255
0.0333866
0.0338351
0.0342878
0.0347598
0.035248
0.0357579
0.0362945
0.03687
0.037509
0.0382663
0.0392688
0.040817
0.0436546
0.0497802
0.0652814
0.112689
0.320026
0.0343106
0.0348578
0.0354081
0.0359843
0.036584
0.0372112
0.0378707
0.0385731
0.0393401
0.0402194
0.0413243
0.0429321
0.0457464
0.0517189
0.0668798
0.113638
0.317227
0.035291
0.0359331
0.0365991
0.0372956
0.0380235
0.0387868
0.0395904
0.040444
0.0413662
0.0423979
0.043637
0.0453316
0.0481334
0.0539079
0.0685872
0.114508
0.314789
0.0363162
0.0370787
0.0378695
0.038702
0.039577
0.0404986
0.041472
0.042506
0.0436174
0.0448405
0.0462583
0.0480847
0.050909
0.0564736
0.0705315
0.115339
0.31264
0.0373955
0.0382861
0.0392231
0.040212
0.0412567
0.0423626
0.0435359
0.0447859
0.046128
0.0475919
0.0492466
0.0512715
0.0541816
0.0595647
0.072897
0.11626
0.31071
0.0385298
0.039571
0.0406685
0.0418351
0.0430753
0.0443961
0.0458054
0.0473141
0.0489379
0.0507042
0.0526707
0.0549851
0.0580801
0.0633638
0.0759327
0.117482
0.308935
0.0397233
0.0409276
0.0422111
0.0435815
0.0450475
0.046619
0.0483074
0.0501264
0.0520945
0.0542395
0.0566129
0.0593357
0.0627609
0.0680919
0.0799463
0.1193
0.307257
0.0409757
0.0423689
0.0438592
0.0454623
0.0471894
0.0490542
0.051073
0.0532651
0.0556546
0.0582739
0.0611744
0.0644602
0.0684152
0.0740239
0.0853299
0.122145
0.305622
0.0422914
0.0438916
0.0456198
0.0474899
0.0495193
0.051728
0.0541393
0.0567813
0.059688
0.0629023
0.0664837
0.070533
0.0752843
0.0815154
0.0926086
0.126665
0.303984
0.043669
0.0455066
0.0475017
0.0496778
0.0520583
0.0546714
0.057551
0.0607379
0.064282
0.0682451
0.0727072
0.0777839
0.0836907
0.0910391
0.102498
0.133825
0.302302
0.045112
0.0472116
0.0495125
0.0520405
0.0548297
0.0579201
0.0613608
0.0652115
0.0695462
0.0744574
0.0800632
0.0865219
0.0940752
0.103245
0.116022
0.14514
0.300536
0.0466178
0.0490152
0.0516604
0.0545931
0.0578589
0.0615149
0.0656312
0.0702956
0.0756185
0.0817406
0.0888443
0.0971709
0.107058
0.119059
0.134675
0.163023
0.298642
0.0481874
0.0509151
0.0539535
0.0573522
0.0611757
0.0655042
0.0704388
0.0761081
0.0826776
0.0903637
0.0994537
0.110336
0.123551
0.139886
0.160748
0.191564
0.29656
0.0497632
0.0510958
0.0524392
0.053788
0.0551351
0.0564729
0.0577928
0.0590858
0.0603431
0.0615545
0.0627102
0.0637997
0.0648129
0.0657395
0.06657
0.0672954
0.0679072
0.0683987
0.0687633
0.0689969
0.0690903
0.0690004
0.0687714
0.0684114
0.0679245
0.0673171
0.0665961
0.0657697
0.0648471
0.0638376
0.0627515
0.0615988
0.0603902
0.0591353
0.0578441
0.0565258
0.0551893
0.0538437
0.0524957
0.0511518
0.0498176
0.0528648
0.0542746
0.0556945
0.0571165
0.0585361
0.0599428
0.0613302
0.0626871
0.0640056
0.065274
0.0664835
0.0676219
0.0686801
0.0696464
0.070512
0.071267
0.0719034
0.0724135
0.0727915
0.0730324
0.073128
0.0730358
0.0727993
0.0724258
0.0719201
0.071288
0.0705374
0.0696758
0.0687134
0.0676588
0.0665237
0.0653172
0.0640515
0.0627352
0.0613803
0.0599945
0.0585891
0.0571707
0.0557495
0.0543292
0.0529188
0.0563482
0.0578413
0.0593415
0.060843
0.0623388
0.0638203
0.0652786
0.0667043
0.0680872
0.0694169
0.0706827
0.0718736
0.0729788
0.0739877
0.07489
0.0756765
0.0763386
0.0768687
0.0772606
0.0775093
0.077607
0.0775126
0.0772681
0.0768804
0.0763546
0.0756968
0.0749144
0.074016
0.0730109
0.0719092
0.0707214
0.0694585
0.0681314
0.0667507
0.0653269
0.0638701
0.0623898
0.060895
0.0593941
0.0578942
0.0564013
0.0602859
0.0618666
0.0634527
0.0650387
0.0666164
0.0681772
0.0697117
0.07121
0.0726617
0.074056
0.0753818
0.0766279
0.0777832
0.0788367
0.079778
0.0805976
0.0812868
0.0818378
0.0822444
0.0825014
0.0826011
0.0825046
0.0822515
0.0818489
0.081302
0.0806169
0.0798013
0.0788638
0.0778139
0.0766619
0.0754188
0.0740958
0.0727039
0.0712542
0.0697576
0.0682245
0.0666648
0.0650878
0.0635029
0.0619177
0.0603375
0.0647662
0.0664407
0.0681182
0.0697942
0.0714593
0.0731044
0.0747198
0.0762952
0.0778199
0.0792825
0.0806717
0.0819761
0.083184
0.0842844
0.0852666
0.086121
0.0868385
0.0874114
0.0878332
0.088099
0.0882008
0.0881019
0.0878399
0.0874218
0.0868528
0.0861391
0.0852886
0.0843101
0.083213
0.0820081
0.0807067
0.07932
0.0778596
0.0763368
0.0747629
0.0731488
0.0715046
0.0698402
0.0681658
0.0664895
0.0648155
0.0699021
0.071677
0.0734521
0.0752235
0.0769814
0.078716
0.080417
0.0820739
0.0836754
0.08521
0.0866658
0.0880311
0.0892941
0.0904435
0.0914684
0.0923588
0.0931058
0.0937014
0.0941391
0.0944139
0.0945179
0.0944166
0.0941452
0.0937111
0.0931191
0.0923757
0.0914888
0.0904675
0.0893211
0.0880609
0.0866983
0.0852448
0.0837122
0.0821124
0.0804568
0.0787567
0.0770231
0.0752662
0.0734967
0.0717228
0.0699485
0.0758387
0.0777209
0.0795997
0.0814721
0.0833278
0.0851565
0.0869478
0.0886902
0.0903721
0.0919817
0.0935069
0.0949354
0.0962555
0.0974556
0.0985244
0.099452
0.100229
0.100848
0.101302
0.101586
0.101692
0.101588
0.101308
0.100857
0.100241
0.0994674
0.0985432
0.0974776
0.0962803
0.0949628
0.0935365
0.0920135
0.0904055
0.0887249
0.0869836
0.0851935
0.0833658
0.0815113
0.0796408
0.0777632
0.0758817
0.0827652
0.0847611
0.0867493
0.0887277
0.0906858
0.0926127
0.0944975
0.0963287
0.0980939
0.0997809
0.101377
0.102871
0.104249
0.1055
0.106614
0.107579
0.108387
0.109029
0.109499
0.109792
0.1099
0.109794
0.109504
0.109037
0.108397
0.107593
0.106631
0.10552
0.104271
0.102895
0.101404
0.0998091
0.0981235
0.0963593
0.0945293
0.0926457
0.0907199
0.088763
0.0867862
0.0847992
0.0828039
0.0909309
0.0930458
0.0951481
0.0972366
0.0993004
0.101328
0.103308
0.10523
0.107079
0.108844
0.110512
0.11207
0.113507
0.114809
0.115967
0.116969
0.117806
0.118471
0.118957
0.119259
0.119369
0.119261
0.118962
0.118478
0.117816
0.116981
0.115981
0.114827
0.113526
0.112092
0.110535
0.108869
0.107105
0.105256
0.103336
0.101357
0.0993302
0.0972675
0.0951805
0.0930793
0.0909648
0.100671
0.102908
0.105126
0.107326
0.109497
0.111625
0.1137
0.11571
0.117642
0.119484
0.121221
0.122842
0.124333
0.125684
0.126883
0.12792
0.128785
0.129471
0.129972
0.130282
0.130393
0.130283
0.129975
0.129477
0.128793
0.12793
0.126896
0.125699
0.12435
0.12286
0.12124
0.119504
0.117664
0.115732
0.113723
0.111649
0.109522
0.107353
0.105154
0.102936
0.1007
0.112445
0.114802
0.117134
0.119442
0.121714
0.123939
0.126103
0.128196
0.130205
0.132115
0.133915
0.135592
0.137133
0.138526
0.139761
0.140827
0.141716
0.14242
0.142932
0.143248
0.143361
0.14325
0.142935
0.142425
0.141723
0.140836
0.139771
0.138538
0.137146
0.135607
0.133931
0.132131
0.130221
0.128214
0.126122
0.123959
0.121735
0.119463
0.117156
0.114825
0.112469
0.126896
0.12936
0.131795
0.1342
0.136562
0.138869
0.141109
0.14327
0.14534
0.147306
0.149156
0.150875
0.152452
0.153876
0.155136
0.156223
0.157128
0.157843
0.158362
0.158682
0.158795
0.158683
0.158365
0.157847
0.157133
0.15623
0.155144
0.153886
0.152462
0.150886
0.149167
0.147319
0.145353
0.143284
0.141124
0.138884
0.136577
0.134216
0.131813
0.129378
0.126914
0.144943
0.147487
0.15
0.152473
0.154897
0.157258
0.159546
0.161747
0.163852
0.165846
0.167718
0.169455
0.171046
0.17248
0.173747
0.174838
0.175745
0.17646
0.176979
0.177297
0.177408
0.177297
0.176981
0.176463
0.175748
0.174843
0.173753
0.172487
0.171053
0.169463
0.167726
0.165855
0.163861
0.161758
0.159557
0.157269
0.154908
0.152485
0.150012
0.1475
0.144955
0.167943
0.170511
0.173046
0.175534
0.177964
0.180326
0.182608
0.184798
0.186885
0.188859
0.190707
0.192419
0.193983
0.19539
0.196632
0.197699
0.198584
0.199282
0.199786
0.200095
0.200202
0.200095
0.199788
0.199284
0.198587
0.197702
0.196636
0.195395
0.193988
0.192424
0.190712
0.188864
0.186891
0.184804
0.182615
0.180333
0.177972
0.175541
0.173054
0.170519
0.167951
0.197962
0.200442
0.202893
0.205291
0.207625
0.209885
0.212063
0.214145
0.216124
0.21799
0.219733
0.221344
0.222812
0.22413
0.225291
0.226286
0.227111
0.227759
0.228227
0.228512
0.22861
0.228512
0.228228
0.22776
0.227112
0.226288
0.225293
0.224132
0.222815
0.221346
0.219736
0.217993
0.216127
0.214148
0.212066
0.209889
0.207628
0.205294
0.202897
0.200446
0.197965
0.238255
0.240439
0.242601
0.244709
0.246752
0.248723
0.250615
0.252417
0.254124
0.255728
0.257222
0.258598
0.259849
0.26097
0.261954
0.262797
0.263493
0.26404
0.264434
0.264673
0.264754
0.264673
0.264434
0.26404
0.263494
0.262797
0.261955
0.26097
0.25985
0.258598
0.257223
0.255729
0.254126
0.252419
0.250616
0.248724
0.246753
0.24471
0.242603
0.24044
0.238256
0.294192
0.295677
0.297157
0.29859
0.299973
0.3013
0.302568
0.303772
0.304907
0.30597
0.306955
0.30786
0.308681
0.309413
0.310055
0.310603
0.311055
0.311409
0.311664
0.311818
0.31187
0.311818
0.311664
0.31141
0.311055
0.310603
0.310055
0.309413
0.308681
0.30786
0.306956
0.30597
0.304908
0.303772
0.302569
0.301301
0.299973
0.29859
0.297157
0.295677
0.294193
0.222275
0.0811544
0.027438
0.0179128
0.0158958
0.0156313
0.0158583
0.0163251
0.0168663
0.0174589
0.0180907
0.0187617
0.0194793
0.0202682
0.0211559
0.0221539
0.0232336
0.242706
0.0925016
0.0286402
0.0182526
0.0162661
0.0160454
0.0162675
0.0167074
0.0172118
0.0177651
0.0183544
0.0189765
0.0196309
0.0203381
0.0211348
0.0220596
0.0231295
0.260536
0.102266
0.0295841
0.0187003
0.0167081
0.016478
0.0166807
0.0170868
0.0175555
0.0180711
0.018621
0.0191996
0.0198016
0.0204352
0.0211293
0.0219369
0.0229446
0.278244
0.106507
0.0300161
0.0191885
0.0171982
0.0169294
0.0171053
0.0174755
0.0179101
0.0183896
0.0189037
0.0194449
0.0200046
0.0205806
0.0211783
0.0218052
0.022473
0.294231
0.105076
0.0301453
0.0197126
0.0177147
0.0173969
0.0175397
0.0178742
0.0182772
0.0187227
0.0192032
0.0197129
0.020241
0.0207812
0.0213353
0.0219051
0.0224898
0.308072
0.100237
0.0301308
0.0202631
0.0182516
0.0178802
0.0179874
0.018287
0.0186596
0.0190737
0.0195223
0.0200021
0.0205031
0.0210141
0.0215331
0.0220658
0.022606
0.319304
0.0942173
0.0301164
0.020859
0.0188155
0.0183826
0.0184524
0.0187179
0.019061
0.0194457
0.0198643
0.0203147
0.0207887
0.021273
0.0217599
0.0222547
0.022776
0.328116
0.0885363
0.0302419
0.0214833
0.0194089
0.0189098
0.0189394
0.0191708
0.0194855
0.0198425
0.0202324
0.0206535
0.0210996
0.0215577
0.0220144
0.0224625
0.022906
0.334977
0.0839774
0.0305759
0.0221754
0.0200393
0.0194688
0.0194536
0.0196502
0.0199367
0.0202672
0.0206284
0.0210192
0.0214372
0.0218726
0.0223114
0.0227384
0.0231234
0.340351
0.080884
0.0311569
0.0229474
0.0207155
0.0200654
0.0200003
0.0201607
0.0204181
0.0207212
0.0210533
0.0214119
0.0217987
0.0222092
0.0226338
0.0230657
0.0235111
0.344498
0.0792768
0.0320114
0.023811
0.0214468
0.0207048
0.0205843
0.0207052
0.0209319
0.0212063
0.0215088
0.021835
0.0221873
0.022565
0.0229587
0.0233516
0.0237359
0.348201
0.07897
0.0331449
0.0247726
0.0222391
0.0213893
0.0212084
0.021286
0.0214796
0.0217242
0.021997
0.0222916
0.0226102
0.0229556
0.0233244
0.0236942
0.0240098
0.351483
0.0797003
0.0345166
0.0258258
0.023095
0.022123
0.0218751
0.0219052
0.0220636
0.0222771
0.0225198
0.0227823
0.023066
0.0233767
0.0237214
0.0240993
0.0244961
0.35448
0.0812005
0.0361288
0.0269806
0.0240213
0.0229098
0.0225869
0.0225652
0.0226859
0.0228671
0.0230789
0.0233091
0.0235562
0.0238252
0.0241249
0.0244565
0.0248084
0.356886
0.0830507
0.0379522
0.0282282
0.0250175
0.0237516
0.0233462
0.0232684
0.0233486
0.0234958
0.0236763
0.0238745
0.0240865
0.0243159
0.0245737
0.0248609
0.0251281
0.358296
0.0848389
0.0399583
0.0295633
0.0260802
0.0246489
0.0241547
0.0240169
0.0240534
0.0241649
0.0243128
0.0244788
0.0246564
0.024848
0.0250672
0.0253352
0.0256579
0.358943
0.0870966
0.0419431
0.0309774
0.0272075
0.025604
0.0250145
0.024813
0.024803
0.0248764
0.0249899
0.0251228
0.0252653
0.0254177
0.0255869
0.0257935
0.0260583
0.358557
0.0895588
0.0440187
0.0324684
0.0283941
0.026618
0.0259278
0.0256596
0.0256003
0.0256331
0.0257101
0.0258087
0.0259159
0.0260309
0.026155
0.0263034
0.0264468
0.357387
0.0922189
0.0461716
0.0340334
0.029639
0.0276925
0.0268977
0.0265608
0.0264484
0.0264381
0.0264756
0.0265375
0.0266081
0.0266867
0.0267696
0.0268838
0.027013
0.355039
0.0950185
0.0484041
0.0356651
0.0309439
0.0288292
0.0279273
0.0275204
0.0273515
0.0272945
0.0272891
0.0273108
0.0273415
0.0273811
0.027418
0.0274833
0.0275327
0.351199
0.0978956
0.0506906
0.0373495
0.0323054
0.0300286
0.0290203
0.0285425
0.0283152
0.0282078
0.028156
0.0281333
0.0281204
0.0281183
0.0281103
0.0281304
0.0280821
0.346301
0.101048
0.0530585
0.0390967
0.0337375
0.0312998
0.0301849
0.0296345
0.0293458
0.0291835
0.0290807
0.0290085
0.0289476
0.0288991
0.0288465
0.0288209
0.0287274
0.340635
0.104113
0.0555061
0.0409076
0.0352307
0.0326496
0.0314307
0.0308054
0.0304514
0.0302289
0.0300695
0.0299415
0.0298275
0.0297264
0.0296229
0.0295367
0.0294067
0.335362
0.1065
0.0578224
0.0427021
0.0367629
0.0340669
0.032758
0.0320592
0.031638
0.031351
0.0311287
0.0309393
0.0307661
0.030605
0.0304432
0.0302976
0.030129
0.330579
0.108495
0.0599436
0.0444541
0.0383364
0.0355586
0.0341769
0.0334078
0.0329169
0.0325592
0.0322667
0.032008
0.0317675
0.0315398
0.0313166
0.0311111
0.0308785
0.326331
0.109986
0.0618432
0.0461725
0.0399715
0.037148
0.0357079
0.0348692
0.0343031
0.0338663
0.0334939
0.0331563
0.0328385
0.0325355
0.0322409
0.0319603
0.0316618
0.322624
0.111316
0.0635472
0.0478955
0.0417035
0.0388675
0.0373776
0.0364655
0.035814
0.0352862
0.0348219
0.0343936
0.0339879
0.0335999
0.0332228
0.0328601
0.0324999
0.319431
0.112466
0.0651803
0.0497009
0.0435869
0.0407599
0.0392195
0.0382231
0.0374706
0.0368355
0.0362635
0.0357298
0.0352228
0.0347373
0.0342683
0.0338217
0.0333772
0.316691
0.11352
0.0668262
0.0516613
0.0456879
0.0428768
0.041273
0.040172
0.0392962
0.0385327
0.0378334
0.0371767
0.0365521
0.0359547
0.0353811
0.0348321
0.0342893
0.314326
0.114474
0.0685729
0.0538683
0.0480819
0.0452774
0.0435837
0.0423467
0.0413176
0.0403984
0.0395477
0.0387467
0.0379859
0.0372606
0.0365667
0.0359019
0.0352629
0.312257
0.115386
0.0705461
0.0564464
0.0508618
0.0480305
0.0462028
0.044786
0.0435649
0.0424562
0.0414247
0.0404537
0.0395345
0.0386618
0.0378311
0.0370431
0.0362884
0.310407
0.116374
0.0729331
0.0595447
0.0541362
0.0512166
0.0491892
0.0475349
0.0460725
0.0447327
0.0434849
0.0423136
0.0412098
0.0401672
0.0391811
0.0382484
0.0373565
0.308706
0.117645
0.0759842
0.0633467
0.0580346
0.0549292
0.0526119
0.0506453
0.0488804
0.0472584
0.0457514
0.0443438
0.043025
0.0417867
0.0406222
0.0395239
0.0384883
0.307093
0.119481
0.0799981
0.0680728
0.0627141
0.0592791
0.0565534
0.0541799
0.0520359
0.0500689
0.0482511
0.0465642
0.0449943
0.04353
0.0421613
0.0408815
0.0396835
0.305513
0.122327
0.085374
0.0740005
0.0683672
0.0644038
0.0611155
0.0582147
0.0555956
0.0532066
0.0510153
0.0489976
0.047134
0.0454083
0.0438068
0.0423185
0.0409263
0.303918
0.126826
0.0926379
0.081487
0.0752363
0.0704781
0.0664267
0.0628443
0.0596296
0.0567229
0.0540812
0.0516704
0.0494626
0.0474342
0.0455656
0.0438382
0.0422391
0.302266
0.133946
0.10251
0.0910069
0.0836444
0.0777323
0.072653
0.0681894
0.0642252
0.0606805
0.0574933
0.0546138
0.052001
0.0496212
0.0474456
0.0454511
0.0436205
0.300519
0.145218
0.116018
0.103212
0.0940327
0.0864748
0.0800133
0.0744053
0.0694923
0.0651563
0.0613045
0.0578633
0.0547727
0.0519837
0.0494561
0.0471575
0.045055
0.298636
0.16306
0.134661
0.119029
0.107021
0.0971307
0.0888006
0.081694
0.0755692
0.0702441
0.0655778
0.0614601
0.0578033
0.054537
0.0516044
0.0489578
0.0465607
0.296559
0.191571
0.160734
0.139865
0.123525
0.110306
0.0994195
0.0903254
0.0826354
0.0760624
0.0703901
0.0654531
0.0611227
0.057298
0.0538985
0.0508601
0.0481351
0.0280716
0.0421454
0.0898906
0.225815
0.530416
1.07141
1.82203
2.55729
3.02895
3.29114
3.98406
5.20091
3.86287
2.15441
0.996041
0.405121
0.154776
0.0627881
0.0332426
0.0248012
0.0310858
0.0514201
0.118308
0.302052
0.702664
1.40126
2.33155
3.1484
3.44794
3.43315
4.18255
5.62105
4.45548
2.62502
1.25044
0.515566
0.198291
0.0784348
0.0384652
0.0265264
0.0353816
0.0646839
0.157905
0.405611
0.934457
1.83479
2.98293
3.85088
3.99369
3.56903
4.3502
6.06126
5.12954
3.19585
1.57591
0.660644
0.25634
0.0999928
0.0458706
0.0289317
0.041571
0.0836112
0.212816
0.546482
1.2451
2.40449
3.76353
4.63123
4.60626
3.66519
4.47591
6.48587
5.86382
3.87914
1.99281
0.852001
0.333918
0.129726
0.0564591
0.0323804
0.0505674
0.110551
0.28884
0.738852
1.66212
3.11549
4.63665
5.43809
5.06092
3.72781
4.53847
6.86976
6.61423
4.66345
2.511
1.10448
0.437993
0.170743
0.0716893
0.0374456
0.063693
0.148747
0.394368
0.999976
2.20904
3.94526
5.54358
6.21691
5.33887
3.77648
4.57431
7.2022
7.35564
5.5285
3.17173
1.43992
0.578424
0.227304
0.0936515
0.0450169
0.0828626
0.202783
0.541342
1.35763
2.89643
4.83575
6.41873
6.8538
5.502
3.8168
4.60731
7.48959
8.07662
6.41295
3.94956
1.883
0.768752
0.30545
0.125333
0.0564798
0.110829
0.279396
0.746091
1.84484
3.6955
5.7163
7.20386
7.29511
5.57605
3.85577
4.64809
7.71835
8.62714
7.22642
4.79681
2.4503
1.02742
0.413826
0.170988
0.0739763
0.151605
0.388857
1.03385
2.46722
4.54239
6.53397
7.82289
7.48679
5.57424
3.89875
4.69973
7.89126
9.01986
7.89409
5.61862
3.13701
1.38267
0.564733
0.23677
0.100803
0.211142
0.545756
1.44268
3.2043
5.3675
7.25188
8.18461
7.47331
5.50767
3.95057
4.76334
8.00624
9.27202
8.38052
6.31489
3.87906
1.85485
0.775022
0.33184
0.142029
0.298835
0.7749
1.98053
3.98983
6.12316
7.80286
8.26679
7.30345
5.40541
4.02096
4.84646
8.04743
9.36691
8.67821
6.82478
4.56895
2.43923
1.07401
0.469633
0.205548
0.429748
1.11242
2.63616
4.75643
6.77355
8.06724
8.12513
7.03019
5.29718
4.13265
4.96261
8.01646
9.25709
8.79023
7.15203
5.11226
3.072
1.48971
0.66999
0.303889
0.629173
1.57346
3.3498
5.43832
7.23782
8.02881
7.79398
6.71464
5.22331
4.30144
5.1236
7.87289
8.9385
8.67074
7.31673
5.48993
3.63932
2.01099
0.969755
0.456687
0.928376
2.1538
4.04122
5.99709
7.39001
7.80972
7.41494
6.42619
5.2098
4.52644
5.35254
7.5815
8.43738
8.2737
7.29336
5.73041
4.08259
2.56301
1.39079
0.697772
1.35093
2.78175
4.6151
6.31539
7.24329
7.44843
7.03105
6.21799
5.29007
4.81956
5.56473
7.15947
7.80731
7.70654
7.0473
5.8791
4.41347
3.05336
1.9136
1.08482
1.86033
3.33784
5.01077
6.25209
6.87826
6.98986
6.70444
6.13485
5.49668
5.19586
5.75963
6.72665
7.14046
7.05139
6.6051
5.79786
4.66845
3.44107
2.42196
1.6244
2.32689
3.71513
5.06828
5.92188
6.41017
6.55773
6.47027
6.18469
5.82944
5.66252
5.96849
6.40655
6.5593
6.41392
6.06269
5.50274
4.73003
3.7522
2.8279
2.18983
2.71169
3.85298
4.69524
5.33866
5.78699
6.09487
6.24532
6.25477
6.17157
6.11581
6.18646
6.24316
6.1481
5.88964
5.51693
5.06532
4.50063
3.83522
3.10144
2.54794
2.77556
3.38994
3.99841
4.54493
5.0078
5.41348
5.72977
5.94596
6.06263
6.09267
6.03565
5.8908
5.6446
5.3092
4.91316
4.49587