/*--------------------------------*- C++ -*----------------------------------*\
  =========                 |
  \\      /  F ield         | OpenFOAM: The Open Source CFD Toolbox
   \\    /   O peration     | Website:  https://openfoam.org
    \\  /    A nd           | Version:  6
     \\/     M anipulation  |
\*---------------------------------------------------------------------------*/
FoamFile
{
    version     2.0;
    format      ascii;
    class       volScalarField;
    location    "1";
    object      nut;
}
// * * * * * * * * * * * * * * * * * * * * * * * * * * * * * * * * * * * * * //

dimensions      [0 2 -1 0 0 0 0];

internalField   nonuniform List<scalar> 
4214
(
0.00543091
0.00525508
0.00692225
0.0093441
0.0109852
0.0113088
0.010709
0.00967297
0.00854852
0.00755603
0.00680978
0.00634928
0.0061741
0.00627091
0.00663127
0.00726413
0.00823457
0.00974233
0.0123751
0.0174004
0.0253678
0.0245184
0.0181508
0.013567
0.0108174
0.00931231
0.0086348
0.00853651
0.00887631
0.00954488
0.0104137
0.0113199
0.0120977
0.012623
0.0128092
0.0125253
0.0114981
0.00947089
0.00694112
0.005253
0.00539167
0.00587373
0.00812686
0.010408
0.011746
0.012029
0.0115488
0.0105969
0.00943499
0.00829162
0.00733149
0.00664032
0.00624239
0.00613042
0.00628863
0.00670632
0.00738985
0.00839884
0.00992877
0.0125844
0.0177782
0.0264135
0.0261198
0.0191483
0.0140773
0.0110569
0.00941548
0.00867823
0.00855971
0.00889659
0.00956772
0.0104391
0.0113484
0.0121374
0.0127032
0.013012
0.0130556
0.0127789
0.0120024
0.010453
0.00814951
0.00590577
0.00875806
0.0109042
0.012143
0.0125145
0.0122347
0.0114709
0.0103882
0.00918399
0.00805433
0.00713993
0.00650859
0.00617417
0.00612525
0.00634497
0.00682179
0.00755929
0.00861039
0.0101636
0.0128333
0.0181556
0.0273701
0.0278086
0.020235
0.0146238
0.0113003
0.00951127
0.0087105
0.00857056
0.008904
0.0095771
0.0104499
0.0113592
0.0121497
0.0127257
0.013068
0.0132031
0.0131502
0.0128711
0.0122194
0.0109295
0.00883793
0.0111605
0.0123351
0.0128023
0.0127311
0.0122104
0.0113127
0.0101642
0.00894842
0.00784749
0.00698506
0.00641496
0.00614359
0.00615721
0.00643897
0.00697724
0.00777345
0.00887335
0.0104564
0.0131401
0.0185679
0.0282867
0.0295859
0.0214104
0.0152064
0.0115476
0.00959882
0.00872892
0.00856422
0.00889193
0.00956556
0.0104394
0.0113487
0.0121397
0.0127191
0.0130723
0.0132366
0.0132569
0.0131497
0.0128765
0.0123082
0.011199
0.0123728
0.0129179
0.013027
0.0127513
0.0121006
0.01112
0.00993451
0.00872607
0.00766543
0.00686067
0.00635385
0.00614601
0.00622258
0.00656786
0.00717104
0.00803263
0.00919209
0.01082
0.0135341
0.0190658
0.0292164
0.0314276
0.0226717
0.0158259
0.0118014
0.00967905
0.00873184
0.0085363
0.00885364
0.0095248
0.0103984
0.0113084
0.0121012
0.0126838
0.0130423
0.0132172
0.0132625
0.0132153
0.0130796
0.0128119
0.0122944
0.012901
0.0131471
0.013083
0.0126869
0.0119441
0.0109036
0.00970022
0.00851462
0.00750451
0.00676266
0.00632126
0.0061779
0.00631855
0.00672963
0.00740219
0.00833712
0.00957026
0.0112656
0.0140426
0.0197067
0.0302462
0.0333155
0.023996
0.0164808
0.0120654
0.00975481
0.00871947
0.00848408
0.00878376
0.00944758
0.010319
0.0112306
0.0120278
0.0126161
0.0129798
0.0131595
0.0132131
0.0131863
0.0130998
0.0129446
0.0126739
0.0131199
0.0132213
0.013052
0.0125628
0.0117427
0.0106581
0.00945429
0.00830701
0.00735799
0.00668498
0.00631209
0.00623525
0.00644222
0.0069225
0.00767006
0.00868781
0.0100115
0.0118037
0.0146935
0.0205497
0.031466
0.0352323
0.0253651
0.0171692
0.0123439
0.00983025
0.00869369
0.00840637
0.00867813
0.00932738
0.0101931
0.0111067
0.0119113
0.0125088
0.0128795
0.0130628
0.0131178
0.0130951
0.0130236
0.0129085
0.0127312
0.0131926
0.0132079
0.0129528
0.0123767
0.0114876
0.0103738
0.00918819
0.00809553
0.0072189
0.00662162
0.00632159
0.00631465
0.00659156
0.0071458
0.00797546
0.00908744
0.0105216
0.0124476
0.0155169
0.0216584
0.0329671
0.0371615
0.0267572
0.0178855
0.0126418
0.0099114
0.00865845
0.00830415
0.00853447
0.00915898
0.0100132
0.010928
0.0117427
0.0123534
0.0127341
0.012921
0.0129738
0.0129466
0.012874
0.0127687
0.0126242
0.0131715
0.0131165
0.0127754
0.0121121
0.0111627
0.0100378
0.00889159
0.00787147
0.00707984
0.00656671
0.00634555
0.00641367
0.00676599
0.00740097
0.00832208
0.00954265
0.0111121
0.0132175
0.0165531
0.0231042
0.0348316
0.0390866
0.0281449
0.0186231
0.0129648
0.0100063
0.00862017
0.0081809
0.00835284
0.00893897
0.00977251
0.0106855
0.0115119
0.0121399
0.0125339
0.0127253
0.0127735
0.0127356
0.0126512
0.0125389
0.0123997
0.0130532
0.0129242
0.0124901
0.0117411
0.0107469
0.00963582
0.00855424
0.00762683
0.00693456
0.00651569
0.00638134
0.00653193
0.00696765
0.00769307
0.00871861
0.0100671
0.0118042
0.0141478
0.0178611
0.0249708
0.0371243
0.0409844
0.029501
0.0193767
0.0133208
0.010125
0.00858808
0.00804334
0.0081365
0.00866662
0.00946598
0.0103704
0.011208
0.011857
0.0122683
0.0124661
0.0125078
0.0124536
0.012348
0.0122156
0.0120639
0.0127919
0.0125778
0.0120468
0.0112257
0.0102162
0.00915414
0.00816831
0.00735672
0.00677981
0.00646697
0.00642947
0.00667262
0.00720325
0.00803322
0.0091822
0.0106868
0.012637
0.015297
0.019529
0.0273575
0.0398728
0.0428249
0.0307999
0.0201442
0.0137212
0.0102808
0.00857484
0.00790169
0.00789258
0.00834493
0.00909112
0.00997533
0.0108197
0.0114924
0.0119255
0.0121328
0.0121672
0.0120921
0.0119567
0.0117919
0.0116113
0.0123004
0.0119952
0.0113816
0.0105261
0.00955166
0.00858622
0.0077326
0.00706181
0.00661757
0.00642423
0.00649608
0.00684529
0.0074871
0.00844272
0.00974436
0.011448
0.0136783
0.016761
0.0216868
0.0303755
0.0430311
0.0445836
0.0320206
0.0209302
0.0141838
0.0104909
0.00859776
0.00777065
0.00763317
0.00798197
0.00864971
0.00949575
0.0103361
0.0110331
0.0114924
0.0117146
0.0117435
0.011645
0.0114728
0.0112651
0.0110414
0.0114655
0.0110864
0.0104398
0.00962095
0.00875336
0.00794134
0.00725818
0.0067528
0.00645848
0.00639934
0.00659586
0.00706947
0.00784628
0.0089604
0.010462
0.0124327
0.0150429
0.0186923
0.0245178
0.0341379
0.0464741
0.0462204
0.0331527
0.0217486
0.0147356
0.0107777
0.00868054
0.00767021
0.00737676
0.00759268
0.00815036
0.00893308
0.00974947
0.0104668
0.0109553
0.0112017
0.0112306
0.0111105
0.010898
0.0106398
0.0103639
0.0101817
0.00977514
0.00918539
0.00851102
0.00784854
0.00725035
0.00677184
0.00645315
0.00632518
0.00641652
0.00675729
0.00738146
0.00833094
0.00965763
0.0114389
0.0137835
0.0169222
0.0213251
0.0282626
0.0387293
0.0499606
0.0476806
0.0342062
0.022624
0.0154177
0.0111687
0.00885623
0.00762634
0.00715007
0.00720061
0.00761142
0.00829888
0.00905781
0.00978505
0.0102999
0.0105843
0.0106242
0.0104928
0.0102425
0.00992919
0.00958714
0.00847716
0.00809708
0.00765391
0.00720717
0.00680643
0.0064938
0.00628547
0.00619326
0.00625709
0.00652135
0.00703501
0.00785048
0.00903867
0.0106688
0.012867
0.0157423
0.0196235
0.0249902
0.033178
0.0441159
0.0530791
0.0489088
0.0352212
0.0235866
0.0162944
0.0116954
0.00917272
0.00767055
0.00699129
0.00683881
0.00706426
0.00762007
0.00827101
0.00898973
0.00951195
0.00985284
0.00991852
0.00980111
0.00953085
0.00917764
0.00877443
0.00681117
0.00658478
0.0063598
0.00616664
0.00602475
0.00594843
0.0059565
0.00607561
0.00633884
0.0067998
0.00753518
0.00860828
0.0101718
0.0122393
0.0150975
0.0186874
0.0236308
0.0300776
0.0393833
0.0499714
0.0552273
0.0497327
0.0362703
0.0246591
0.0174731
0.0123849
0.00970509
0.00783562
0.00695729
0.00654757
0.00655744
0.0069429
0.00741818
0.00810512
0.00858132
0.00900136
0.00909652
0.00903403
0.00877287
0.00841498
0.00799366
0.00550254
0.00547377
0.00546532
0.0054887
0.00555364
0.00567097
0.00586415
0.00616635
0.00663356
0.00731981
0.0084608
0.00987447
0.0121928
0.0147439
0.0187945
0.0230952
0.0296407
0.036848
0.0465906
0.0557185
0.0559106
0.0499349
0.0375035
0.0258084
0.0191481
0.0132293
0.0105861
0.00813532
0.00714433
0.0063611
0.00616777
0.00632846
0.00655802
0.00719297
0.00751432
0.00804424
0.00812982
0.00817727
0.00796083
0.00762552
0.00724234
0.00675811
0.00753885
0.00834869
0.00924384
0.010086
0.0108083
0.0114157
0.0118868
0.0122196
0.0124153
0.0124433
0.0121815
0.0113057
0.00931711
0.00639138
0.00476676
0.00842013
0.00630787
0.00698906
0.00774887
0.00863336
0.00946276
0.0102163
0.0108702
0.0113929
0.0117753
0.0120122
0.0120601
0.0117684
0.0107745
0.00864028
0.00586717
0.00466608
0.00810689
0.0057902
0.00644223
0.00715291
0.0079975
0.00880023
0.00956257
0.0102437
0.0108047
0.0112293
0.0115055
0.0115778
0.0112718
0.0102027
0.00801324
0.00543986
0.00456329
0.00777627
0.00536571
0.00591797
0.0065707
0.00734788
0.00811038
0.008858
0.0095446
0.0101268
0.0105822
0.0108924
0.0109921
0.010691
0.00959639
0.00742985
0.00507277
0.00444282
0.00746329
0.00489567
0.00541393
0.00600566
0.0067029
0.0074087
0.00811938
0.00878901
0.00937259
0.00984347
0.0101782
0.0103057
0.0100305
0.00896397
0.00688839
0.00474654
0.00430205
0.00716657
0.00451948
0.00494323
0.00546452
0.00607567
0.00671146
0.00736641
0.00799846
0.0085634
0.00903226
0.00937888
0.00953168
0.0093001
0.00831113
0.00638152
0.00444775
0.00414368
0.00688561
0.00411385
0.00450152
0.00495323
0.0054772
0.00603473
0.00662048
0.00719819
0.00772645
0.00817601
0.00852037
0.00869241
0.00851652
0.00764503
0.00590386
0.00416942
0.00397206
0.00662045
0.00379382
0.00409735
0.0044769
0.00491633
0.00539261
0.00590163
0.00641355
0.00689131
0.00730691
0.00763548
0.0078183
0.00770253
0.00697471
0.0054522
0.00390884
0.00379213
0.00637133
0.00345615
0.00372583
0.00403903
0.00439943
0.00479615
0.00522662
0.00566721
0.00608601
0.00645738
0.0067593
0.0069437
0.00688506
0.0063117
0.00502547
0.00366592
0.0036092
0.00613842
0.00319378
0.00339255
0.00364209
0.00393064
0.00425295
0.00460779
0.00497694
0.00533382
0.0056559
0.00592443
0.00610225
0.00609204
0.00566913
0.00462409
0.00344235
0.00342915
0.00592174
0.00292287
0.00309286
0.0032874
0.00351228
0.00376747
0.00405284
0.00435467
0.00465146
0.00492407
0.00515686
0.00532231
0.00534895
0.00506087
0.00424918
0.0032403
0.00325819
0.00572108
0.00271677
0.00283066
0.00297553
0.00314534
0.00334179
0.00356566
0.00380692
0.00404873
0.00427528
0.00447368
0.00462409
0.00467595
0.00449996
0.00390264
0.00306213
0.0031017
0.00553596
0.00251007
0.00260161
0.00270614
0.00282978
0.00297636
0.00314737
0.003336
0.00352956
0.00371549
0.0038832
0.00401817
0.00408576
0.0039974
0.00358913
0.0029112
0.00296314
0.00536553
0.00235752
0.00240861
0.00247856
0.00256456
0.00267019
0.00279724
0.00294142
0.00309387
0.00324504
0.00338645
0.00350708
0.00358384
0.00356005
0.00330841
0.00279204
0.0028481
0.00520851
0.00221162
0.00224778
0.00229164
0.00234821
0.0024214
0.00251306
0.00262089
0.00273916
0.00286121
0.00298044
0.00308836
0.00316996
0.00319198
0.00306428
0.00270759
0.00276858
0.00506381
0.00210905
0.00212066
0.0021441
0.00217864
0.00222735
0.00229186
0.00237116
0.0024619
0.00256001
0.00266079
0.002758
0.0028419
0.00289528
0.00286049
0.00265359
0.00273117
0.00493143
0.00201971
0.00202388
0.00203399
0.00205327
0.00208456
0.00212938
0.00218759
0.00225765
0.00233731
0.00242365
0.00251254
0.00259799
0.00267248
0.00270319
0.00262745
0.00274189
0.00481329
0.00196378
0.00195773
0.0019593
0.00196891
0.00198886
0.00202053
0.00206444
0.00212029
0.0021874
0.00226454
0.00234935
0.0024385
0.0025291
0.00260441
0.00262839
0.00285047
0.00471441
0.00192547
0.00191889
0.00191688
0.0019215
0.00193501
0.00195899
0.00199454
0.00204237
0.00210309
0.00217705
0.00226372
0.00236195
0.0024704
0.00258023
0.00267869
0.00305174
0.00464343
0.00191194
0.0019055
0.00190306
0.00190611
0.00191687
0.00193726
0.00196892
0.00201359
0.00207318
0.00214966
0.00224447
0.00235859
0.0024911
0.00263745
0.00280168
0.00328391
0.00461032
0.00191555
0.00191331
0.00191304
0.00191699
0.00192755
0.00194697
0.00197754
0.00202196
0.00208348
0.00216573
0.00227238
0.00240671
0.00256926
0.00275963
0.00299187
0.00353867
0.00462596
0.0019359
0.00193857
0.00194192
0.00194815
0.00195986
0.00197957
0.00201016
0.00205507
0.00211872
0.00220641
0.00232404
0.00247745
0.00267018
0.00290664
0.00320705
0.00381159
0.00470112
0.00196822
0.00197675
0.00198439
0.00199345
0.00200667
0.00202678
0.00205694
0.0021012
0.00216482
0.00225453
0.00237827
0.00254424
0.00275908
0.00302966
0.00337974
0.00404841
0.00482706
0.00200919
0.00202342
0.00203524
0.00204703
0.00206148
0.00208129
0.00210981
0.0021513
0.00221154
0.00229819
0.00242085
0.00258995
0.00281441
0.00309953
0.00346087
0.00416152
0.00498739
0.00205652
0.00207493
0.0020903
0.00210413
0.00211912
0.00213775
0.00216327
0.0021999
0.00225346
0.00233203
0.00244635
0.00260887
0.00283082
0.00311463
0.00345258
0.00409566
0.00516243
0.0021046
0.0021279
0.00214593
0.00216113
0.00217596
0.00219268
0.00221418
0.00224451
0.00228908
0.00235589
0.00245615
0.00260401
0.00281368
0.00308802
0.00339674
0.00388766
0.00534039
0.00215735
0.00218097
0.00220028
0.00221587
0.00222985
0.00224419
0.00226129
0.00228466
0.00231928
0.0023725
0.00245539
0.00258316
0.00277333
0.00303432
0.00333245
0.00368159
0.00552846
0.00220373
0.00223145
0.00225159
0.00226702
0.00227978
0.00229156
0.00230436
0.002321
0.00234579
0.00238531
0.00244985
0.00255496
0.00272111
0.0029655
0.00326794
0.00356359
0.00574555
0.00225567
0.00228018
0.00229964
0.00231421
0.00232548
0.00233481
0.00234372
0.00235443
0.00237037
0.00239723
0.00244429
0.00252655
0.00266649
0.00289078
0.00320506
0.00354099
0.00600992
0.00229643
0.0023242
0.00234348
0.0023572
0.00236708
0.00237428
0.00237996
0.00238578
0.00239436
0.00241031
0.00244183
0.00250273
0.00261615
0.00281673
0.00314128
0.00358331
0.00633085
0.00234333
0.00236611
0.0023838
0.00239641
0.00240505
0.00241056
0.00241374
0.00241576
0.00241856
0.00242576
0.00244417
0.00248626
0.00257426
0.0027479
0.00307398
0.00365347
0.00670885
0.00237682
0.00240267
0.00242014
0.00243213
0.00243995
0.00244429
0.00244569
0.00244492
0.00244341
0.00244397
0.00245206
0.00247828
0.00254307
0.00268743
0.00300163
0.0037164
0.0071388
0.00241659
0.00243753
0.00245365
0.00246507
0.00247245
0.00247612
0.00247636
0.00247365
0.00246908
0.00246488
0.00246539
0.00247907
0.00252351
0.00263778
0.00292505
0.00374272
0.007614
0.00244356
0.00246753
0.00248397
0.00249556
0.00250304
0.00250654
0.00250614
0.00250217
0.00249555
0.00248821
0.00248364
0.00248829
0.00251594
0.00260111
0.0028483
0.0037126
0.00812728
0.00247625
0.00249635
0.00251223
0.00252422
0.00253221
0.00253593
0.00253531
0.0025306
0.00252275
0.00251363
0.0025062
0.00250519
0.00252045
0.00257945
0.00277833
0.00362078
0.00867035
0.00249798
0.00252113
0.00253807
0.00255121
0.00256022
0.00256455
0.00256404
0.002559
0.00255061
0.0025409
0.00253256
0.00252905
0.00253673
0.00257487
0.00272363
0.00347914
0.00923314
0.00252452
0.00254499
0.00256239
0.00257697
0.00258738
0.00259259
0.00259243
0.00258743
0.00257916
0.00256998
0.00256248
0.00255933
0.00256428
0.00258904
0.00269254
0.00331418
0.00980376
0.00254208
0.00256559
0.00258488
0.0026016
0.00261384
0.00262018
0.00262056
0.00261595
0.00260855
0.00260106
0.00259609
0.00259588
0.0026027
0.00262263
0.00269242
0.00315942
0.0103707
0.00256327
0.00258538
0.00260625
0.00262539
0.00263986
0.00264743
0.00264842
0.00264462
0.00263899
0.00263456
0.00263392
0.00263916
0.00265207
0.00267572
0.00272872
0.00304642
0.0109228
0.00257708
0.00260254
0.00262626
0.00264837
0.00266567
0.0026744
0.00267593
0.00267347
0.00267073
0.002671
0.00267687
0.00269042
0.00271357
0.0027488
0.00280455
0.00300817
0.0114501
0.00217418
0.00218805
0.00220225
0.00221683
0.00223181
0.0022472
0.00226299
0.00227915
0.00229567
0.0023125
0.0023296
0.00234691
0.00236438
0.00238194
0.00239954
0.00241713
0.00243467
0.00245212
0.00246957
0.00248752
0.00251261
0.00253383
0.00254943
0.00256347
0.00257643
0.00258842
0.00259941
0.00260937
0.00261821
0.00262585
0.00263221
0.00263716
0.00264057
0.00264139
0.0026403
0.00263646
0.00263173
0.00262349
0.00261573
0.00260356
0.00259314
0.00218905
0.00220282
0.00221701
0.00223165
0.00224675
0.00226229
0.00227826
0.00229463
0.00231136
0.00232841
0.00234572
0.00236325
0.00238093
0.0023987
0.00241651
0.00243428
0.00245198
0.00246958
0.00248713
0.00250509
0.0025296
0.00255062
0.00256627
0.00258044
0.00259359
0.0026058
0.00261706
0.00262731
0.00263651
0.00264457
0.00265144
0.002657
0.00266116
0.00266347
0.00266335
0.00266101
0.00265662
0.00264993
0.00264152
0.00263089
0.00261891
0.00220745
0.00222105
0.00223515
0.00224976
0.00226488
0.00228048
0.00229652
0.00231299
0.00232982
0.00234698
0.00236442
0.00238206
0.00239985
0.00241772
0.00243562
0.00245347
0.00247124
0.00248888
0.00250643
0.00252429
0.00254806
0.00256873
0.0025843
0.00259848
0.00261168
0.00262397
0.00263533
0.00264571
0.00265507
0.00266336
0.0026705
0.00267642
0.00268102
0.0026842
0.00268534
0.00268407
0.00268063
0.00267497
0.00266717
0.00265724
0.00264535
0.00222999
0.00224329
0.00225716
0.00227161
0.00228661
0.00230212
0.00231812
0.00233455
0.00235137
0.00236853
0.00238596
0.0024036
0.00242139
0.00243925
0.00245713
0.00247496
0.00249267
0.00251024
0.00252767
0.00254531
0.00256821
0.00258835
0.0026037
0.00261775
0.00263086
0.00264307
0.00265435
0.00266468
0.002674
0.00268228
0.00268944
0.00269542
0.00270015
0.00270352
0.00270542
0.00270542
0.002703
0.00269821
0.00269123
0.00268203
0.00267063
0.00225719
0.00226999
0.00228345
0.00229757
0.00231229
0.00232758
0.00234339
0.00235966
0.00237633
0.00239335
0.00241065
0.00242817
0.00244584
0.00246358
0.00248132
0.002499
0.00251654
0.00253391
0.00255111
0.0025684
0.00259028
0.00260971
0.00262471
0.00263847
0.00265132
0.00266326
0.00267428
0.00268434
0.0026934
0.0027014
0.0027083
0.00271403
0.00271851
0.00272164
0.00272332
0.00272339
0.0027217
0.00271799
0.00271176
0.00270301
0.00269168
0.00228944
0.00230155
0.00231441
0.00232801
0.0023423
0.00235721
0.00237268
0.00238864
0.00240504
0.00242179
0.00243885
0.00245612
0.00247354
0.00249104
0.00250852
0.00252592
0.00254316
0.00256021
0.00257702
0.00259384
0.00261455
0.00263309
0.00264757
0.00266089
0.00267329
0.00268478
0.00269533
0.00270491
0.00271345
0.00272092
0.00272725
0.00273238
0.00273622
0.00273867
0.0027396
0.00273883
0.00273616
0.00273134
0.00272407
0.00271406
0.00270093
0.00232701
0.00233826
0.00235035
0.00236328
0.00237697
0.00239136
0.00240635
0.00242188
0.00243787
0.00245424
0.00247092
0.00248782
0.00250488
0.00252199
0.00253908
0.00255607
0.00257289
0.00258946
0.00260576
0.00262196
0.00264135
0.00265883
0.00267263
0.00268533
0.0026971
0.00270794
0.00271781
0.00272667
0.00273445
0.00274111
0.00274658
0.00275077
0.0027536
0.00275493
0.00275462
0.00275245
0.00274814
0.00274138
0.00273182
0.00271911
0.00270286
0.00237011
0.00238039
0.0023916
0.00240373
0.0024167
0.00243044
0.00244484
0.00245981
0.00247527
0.00249113
0.00250731
0.00252372
0.00254027
0.00255687
0.00257344
0.00258989
0.00260612
0.00262208
0.00263772
0.00265314
0.0026711
0.00268733
0.0027003
0.00271219
0.00272314
0.00273314
0.00274212
0.00275004
0.00275683
0.00276243
0.00276676
0.00276972
0.00277121
0.00277107
0.00276913
0.00276512
0.00275872
0.00274959
0.0027374
0.00272183
0.0027026
0.00241889
0.00242819
0.00243848
0.00244975
0.00246192
0.00247491
0.00248861
0.00250292
0.00251774
0.00253298
0.00254854
0.00256433
0.00258025
0.00259621
0.00261211
0.00262786
0.00264337
0.00265857
0.00267339
0.00268788
0.00270426
0.00271911
0.00273107
0.00274199
0.00275195
0.0027609
0.0027688
0.00277559
0.00278118
0.00278551
0.00278849
0.00279
0.00278992
0.00278809
0.00278429
0.00277825
0.00276963
0.00275815
0.00274353
0.00272559
0.00270415
0.0024736
0.00248199
0.0024914
0.00250181
0.00251315
0.00252534
0.00253826
0.00255182
0.00256591
0.00258041
0.00259523
0.00261027
0.00262543
0.0026406
0.00265569
0.0026706
0.00268523
0.0026995
0.00271334
0.00272676
0.00274147
0.00275478
0.0027656
0.00277539
0.00278418
0.00279193
0.00279859
0.00280408
0.00280833
0.00281124
0.00281273
0.00281268
0.00281094
0.00280736
0.00280169
0.00279369
0.00278308
0.00276965
0.00275323
0.00273372
0.00271104
0.00253469
0.00254232
0.00255095
0.00256056
0.0025711
0.00258246
0.00259457
0.0026073
0.00262056
0.00263422
0.00264818
0.00266234
0.00267659
0.00269083
0.00270496
0.00271886
0.00273245
0.00274564
0.00275834
0.00277053
0.00278347
0.00279515
0.00280468
0.0028132
0.0028207
0.00282713
0.00283242
0.00283652
0.00283934
0.00284078
0.00284075
0.00283914
0.0028358
0.00283058
0.00282326
0.00281364
0.00280152
0.00278677
0.0027693
0.00274906
0.00272605
0.00260301
0.00261003
0.00261804
0.00262696
0.00263674
0.00264729
0.00265854
0.00267038
0.00268271
0.00269542
0.00270839
0.00272154
0.00273473
0.00274788
0.00276087
0.0027736
0.00278598
0.00279791
0.00280931
0.00282013
0.00283125
0.00284121
0.00284935
0.00285649
0.0028626
0.00286764
0.00287153
0.00287421
0.0028756
0.00287561
0.00287416
0.00287113
0.0028664
0.00285983
0.00285125
0.00284051
0.00282749
0.00281212
0.00279433
0.00277412
0.00275158
0.00268006
0.0026866
0.00269414
0.00270246
0.00271152
0.00272126
0.0027316
0.00274247
0.00275377
0.00276539
0.00277722
0.00278918
0.00280114
0.00281302
0.00282469
0.00283607
0.00284706
0.00285756
0.0028675
0.00287682
0.00288607
0.00289427
0.00290095
0.00290665
0.00291135
0.00291498
0.00291749
0.00291882
0.00291889
0.00291764
0.00291498
0.00291081
0.00290504
0.00289755
0.00288823
0.00287697
0.00286371
0.00284839
0.00283098
0.00281148
0.00279017
0.00276838
0.00277441
0.00278154
0.00278928
0.0027976
0.00280646
0.00281581
0.00282557
0.00283567
0.00284602
0.00285652
0.00286708
0.0028776
0.00288797
0.00289812
0.00290794
0.00291734
0.00292624
0.00293457
0.00294226
0.00294964
0.00295607
0.00296125
0.00296552
0.00296883
0.00297114
0.00297239
0.00297254
0.00297153
0.00296929
0.00296576
0.00296087
0.00295453
0.00294668
0.00293723
0.00292612
0.0029133
0.00289872
0.00288238
0.00286428
0.00284501
0.00287199
0.00287724
0.00288383
0.00289084
0.00289825
0.00290604
0.00291417
0.00292259
0.00293124
0.00294004
0.00294891
0.00295778
0.00296656
0.00297516
0.00298351
0.00299152
0.00299911
0.00300623
0.00301279
0.00301875
0.00302425
0.00302895
0.00303266
0.00303555
0.0030376
0.00303876
0.00303899
0.00303826
0.00303651
0.00303371
0.0030298
0.00302474
0.00301846
0.00301092
0.00300207
0.00299185
0.00298024
0.0029672
0.00295273
0.00293683
0.00292056
0.00299726
0.00300104
0.00300665
0.00301248
0.00301854
0.00302482
0.00303128
0.00303791
0.00304465
0.00305145
0.00305826
0.003065
0.00307163
0.00307806
0.00308425
0.00309013
0.00309564
0.00310074
0.00310536
0.00310948
0.00311314
0.00311618
0.0031185
0.00312017
0.00312117
0.00312147
0.00312104
0.00311986
0.00311789
0.00311512
0.00311149
0.00310699
0.00310157
0.0030952
0.00308784
0.00307946
0.00307004
0.00305956
0.00304801
0.00303539
0.00302344
0.00315412
0.00315518
0.00315885
0.00316259
0.00316641
0.00317031
0.00317428
0.0031783
0.00318235
0.0031864
0.00319041
0.00319435
0.00319818
0.00320187
0.00320538
0.00320868
0.00321173
0.0032145
0.00321698
0.00321914
0.00322098
0.00322246
0.00322352
0.0032242
0.00322448
0.00322434
0.00322377
0.00322275
0.00322128
0.00321933
0.00321688
0.00321393
0.00321044
0.00320639
0.00320178
0.00319657
0.00319075
0.00318431
0.00317725
0.00316955
0.00316387
0.00854218
0.00474877
0.00629861
0.00917556
0.0112425
0.0123062
0.0127792
0.0129709
0.0130154
0.012948
0.0127415
0.012317
0.0115567
0.0103541
0.00874061
0.00699791
0.00552939
0.00822378
0.00463987
0.00576025
0.00846713
0.0106946
0.0119284
0.0124862
0.0127006
0.0127312
0.0126263
0.0123663
0.0118865
0.0110985
0.00993351
0.00842937
0.00681001
0.00540613
0.00787652
0.00453924
0.00533843
0.00783871
0.0101355
0.0114935
0.0121198
0.0123481
0.012357
0.0122049
0.0118811
0.0113367
0.0105136
0.00938128
0.00799027
0.00651816
0.00522075
0.00754393
0.00442582
0.00499085
0.0072811
0.0095728
0.0109991
0.0116667
0.0118955
0.0118742
0.0116694
0.0112796
0.0106729
0.00982054
0.00872572
0.00745096
0.00613713
0.00497476
0.0072257
0.00429478
0.00469208
0.00678378
0.00900815
0.0104409
0.011114
0.0113273
0.0112694
0.0110123
0.0105633
0.0099078
0.00904336
0.00799897
0.00684436
0.00569191
0.00467908
0.00692205
0.00414664
0.00442442
0.00633254
0.00843813
0.00981557
0.0104561
0.0106375
0.0105401
0.0102375
0.00974489
0.00906381
0.00821226
0.00723606
0.00620616
0.00521167
0.00434939
0.00663357
0.00398409
0.00417749
0.00591518
0.0078582
0.00912372
0.00969733
0.00983441
0.00970019
0.00936521
0.00885137
0.00817293
0.0073615
0.00647089
0.00556827
0.00472374
0.00400401
0.00636108
0.00381122
0.0039458
0.00552167
0.00726498
0.00837367
0.00885573
0.00894309
0.0087799
0.00843024
0.00791988
0.00727182
0.00652446
0.00573244
0.00495609
0.0042511
0.00366142
0.00610537
0.00363323
0.00372694
0.00514434
0.00665909
0.00758325
0.00796281
0.00800266
0.0078221
0.00747604
0.00699166
0.00639617
0.00572956
0.00504289
0.00438836
0.00381046
0.00333705
0.00586704
0.00345642
0.00352112
0.00477842
0.0060472
0.00677932
0.00705902
0.00705922
0.00687334
0.00654619
0.00610413
0.00557522
0.00499762
0.0044169
0.00387708
0.00341251
0.00304279
0.00564638
0.00328815
0.00332999
0.00442294
0.00544314
0.0059941
0.00618596
0.00615635
0.00597474
0.00567644
0.00528554
0.00482898
0.00434156
0.00386269
0.00342852
0.00306372
0.00278334
0.00544322
0.00313636
0.00315638
0.00408127
0.00486554
0.00525857
0.00537836
0.00532759
0.00515585
0.00489052
0.00455325
0.00416872
0.00376778
0.0033838
0.0030451
0.00276737
0.0025559
0.00525705
0.00300976
0.00300508
0.00376129
0.00433337
0.00459612
0.00465887
0.00459286
0.0044331
0.00420079
0.00391526
0.00359899
0.0032787
0.00298095
0.00272579
0.00252209
0.00236688
0.00508723
0.00291626
0.00287844
0.003467
0.00386036
0.00401955
0.00403757
0.00395993
0.00381198
0.00361092
0.00337405
0.00312116
0.00287413
0.00265215
0.00246712
0.00232305
0.00222049
0.0049334
0.00285697
0.00277623
0.00320629
0.00345414
0.00353174
0.00351465
0.00342861
0.00329282
0.00312165
0.00293004
0.00273443
0.00255116
0.0023923
0.00226312
0.00216431
0.00209864
0.00479573
0.00281108
0.00269675
0.00298154
0.00311313
0.00312995
0.0030876
0.00299753
0.00287486
0.00273201
0.00258115
0.00243467
0.00230318
0.00219302
0.00210622
0.00204175
0.00199685
0.00467563
0.00277502
0.0026337
0.00279183
0.002839
0.00281505
0.0027558
0.00266532
0.00255605
0.00243833
0.00232139
0.00221337
0.00212042
0.00204552
0.00198905
0.00195001
0.00192649
0.00457729
0.00283781
0.00258831
0.00264901
0.00264051
0.00259096
0.00251959
0.00242956
0.00233109
0.00223242
0.0021402
0.00205922
0.00199256
0.00194125
0.00190489
0.00188248
0.0018745
0.00450839
0.00298955
0.00258134
0.00257387
0.00252993
0.00246011
0.00237548
0.00228193
0.00218814
0.0021004
0.00202309
0.00195885
0.00190861
0.00187217
0.00184857
0.00183639
0.00183462
0.00447817
0.00311618
0.00264312
0.0025851
0.00250971
0.0024139
0.0023091
0.00220484
0.00210828
0.00202395
0.00195407
0.00189922
0.00185872
0.00183118
0.00181519
0.00180923
0.0018123
0.00449549
0.00324694
0.00278791
0.00267843
0.00255885
0.00242613
0.00229384
0.0021733
0.00206952
0.00198461
0.00191828
0.00186897
0.00183436
0.00181207
0.00180027
0.00179728
0.00180274
0.00456903
0.00343254
0.00298519
0.00281446
0.00263644
0.00245994
0.00229875
0.0021622
0.00205203
0.0019669
0.00190372
0.00185878
0.00182844
0.00180958
0.00179999
0.00179796
0.00180282
0.00468891
0.00360848
0.00316935
0.00293328
0.00269738
0.00248171
0.00229884
0.00215303
0.00204176
0.00195991
0.00190169
0.00186166
0.00183533
0.00181921
0.00181089
0.00180868
0.00181204
0.00484315
0.00372247
0.00327951
0.0029927
0.00271424
0.00247397
0.00228238
0.00213772
0.00203261
0.00195846
0.00190745
0.00187324
0.00185106
0.00183742
0.00182995
0.00182718
0.00182869
0.00501997
0.00372844
0.00330173
0.00298599
0.00268387
0.00243663
0.00225047
0.00211698
0.00202419
0.00196103
0.0019187
0.00189081
0.00187278
0.0018614
0.00185469
0.00185126
0.00185061
0.00521021
0.00363243
0.00326405
0.00292969
0.00262022
0.00238169
0.00221215
0.00209642
0.00201914
0.00196809
0.00193459
0.00191272
0.00189841
0.00188899
0.00188281
0.00187856
0.00187579
0.00541657
0.00353263
0.00320236
0.00284701
0.00254271
0.00232391
0.00217711
0.00208146
0.00201982
0.00198013
0.00195448
0.00193765
0.00192635
0.00191844
0.00191258
0.00190773
0.00190311
0.00565268
0.00348487
0.00313201
0.00275612
0.00246685
0.00227376
0.00215124
0.00207473
0.00202697
0.00199685
0.0019774
0.00196441
0.00195526
0.00194834
0.0019426
0.00193718
0.00193084
0.00593284
0.00349267
0.0030587
0.00266822
0.00240135
0.00223594
0.0021363
0.0020764
0.00203999
0.00201719
0.00200225
0.00199186
0.00198407
0.00197764
0.00197176
0.00196559
0.00195765
0.00626465
0.0035375
0.00298444
0.0025891
0.00234959
0.00221128
0.00213175
0.00208545
0.00205764
0.00203998
0.00202797
0.00201911
0.00201196
0.00200559
0.00199932
0.00199251
0.00198325
0.00664859
0.0035956
0.00290919
0.00252143
0.00231226
0.002199
0.00213636
0.0021005
0.00207867
0.00206424
0.0020538
0.00204553
0.00203839
0.0020317
0.00202492
0.00201739
0.00200712
0.00708087
0.00364209
0.00283324
0.00246671
0.00228909
0.00219802
0.00214886
0.00212036
0.00210218
0.00208931
0.00207927
0.00207079
0.00206315
0.00205582
0.00204835
0.00203984
0.00202909
0.0075557
0.00365409
0.0027584
0.00242627
0.00227969
0.00220743
0.00216815
0.00214418
0.00212763
0.00211488
0.00210424
0.00209488
0.00208627
0.00207802
0.00206969
0.00206006
0.00204942
0.00806623
0.00361533
0.00268864
0.00240144
0.00228382
0.0022264
0.00219347
0.00217148
0.00215478
0.00214094
0.00212885
0.002118
0.00210802
0.00209857
0.00208918
0.00207847
0.00206813
0.00860497
0.00352199
0.00263
0.00239364
0.00230128
0.00225419
0.00222431
0.00220206
0.00218371
0.00216771
0.00215343
0.00214056
0.00212881
0.00211786
0.00210715
0.00209548
0.00208533
0.00916346
0.00338565
0.00258951
0.00240436
0.00233167
0.00229028
0.00226043
0.00223599
0.00221469
0.00219561
0.00217844
0.00216301
0.00214911
0.00213634
0.0021239
0.00211165
0.00210136
0.00973177
0.00323107
0.00257411
0.00243471
0.00237458
0.00233439
0.00230189
0.00227359
0.00224817
0.00222515
0.0022044
0.00218586
0.00216937
0.00215445
0.00213993
0.00212734
0.00211656
0.0103005
0.00308958
0.0025901
0.00248527
0.00242984
0.00238661
0.00234909
0.00231538
0.00228473
0.00225688
0.00223182
0.00220957
0.00219001
0.00217255
0.00215595
0.00214265
0.00213115
0.0108608
0.00299075
0.00264267
0.00255647
0.0024978
0.00244763
0.00240279
0.00236208
0.00232496
0.00229131
0.00226116
0.00223454