/*--------------------------------*- C++ -*----------------------------------*\
  =========                 |
  \\      /  F ield         | OpenFOAM: The Open Source CFD Toolbox
   \\    /   O peration     | Website:  https://openfoam.org
    \\  /    A nd           | Version:  6
     \\/     M anipulation  |
\*---------------------------------------------------------------------------*/
FoamFile
{
    version     2.0;
    format      ascii;
    class       surfaceScalarField;
    location    "1.96";
    object      meshPhi;
}
// * * * * * * * * * * * * * * * * * * * * * * * * * * * * * * * * * * * * * //

dimensions      [0 3 -1 0 0 0 0];

internalField   nonuniform List<scalar> 
8193
(
-0.0048232
0.00338509
0.00182238
-0.00734118
0.00642185
-0.00937666
0.00917464
-0.0109424
0.0116003
-0.0120614
0.0136653
-0.0127646
0.0153452
-0.0130887
0.0166252
-0.0130743
0.0174988
-0.0127641
0.0179679
-0.012201
0.0180414
-0.0114272
0.0177346
-0.0104829
0.0170684
-0.00940587
0.0160683
-0.00823039
0.0147632
-0.0069874
0.0131854
-0.00570427
0.0113689
-0.00440484
0.00934973
-0.00310972
0.007165
-0.0018365
0.00485264
-0.000600205
0.00245128
0.000586297
-1.04665e-14
0.00171189
-0.00246168
0.00276675
-0.00489389
0.00374198
-0.00725643
0.00462925
-0.00950892
0.00542048
-0.0116109
0.00610765
-0.013522
0.00668263
-0.0152027
0.00713715
-0.0166142
0.0074628
-0.0177197
0.00765117
-0.0184849
0.00769406
-0.0188788
0.0075838
-0.0188749
0.00731364
-0.0184523
0.00687819
-0.0175967
0.00627399
-0.0163016
0.00550004
-0.014569
0.00455842
-0.0124109
0.0034548
-0.00984921
0.00219903
-0.00691691
-0.00365779
0.000805546
-0.0174971
0.00934717
0.00904876
-0.0245162
0.0146083
-0.0301215
0.0193614
-0.0343618
0.0235349
-0.0373124
0.0270719
-0.0390699
0.0299307
-0.0397454
0.0320844
-0.0394596
0.0335205
-0.0383374
0.0342397
-0.0365039
0.034255
-0.0340811
0.0335905
-0.0311844
0.0322797
-0.0279214
0.0303641
-0.02439
0.0278922
-0.0206778
0.0249181
-0.016862
0.0215
-0.0130099
0.0176998
-0.00917907
0.0135821
-0.00541871
0.00921356
-0.00177061
0.00466284
0.0017296
1.0108e-14
0.0050512
-0.00470341
0.00816712
-0.00937452
0.0110528
-0.0139392
0.0136853
-0.0183222
0.0160421
-0.0224476
0.018101
-0.0262389
0.019839
-0.0296203
0.0212329
-0.0325172
0.0222586
-0.0348574
0.022892
-0.0365727
0.0231092
-0.0376009
0.0228875
-0.037887
0.0222066
-0.0373859
0.0210496
-0.0360641
0.0194048
-0.0339018
0.0172668
-0.0308949
0.0146386
-0.0270568
0.0115329
-0.0224195
0.0079738
-0.0170348
-0.0109746
0.00399779
-0.0359856
0.0169537
0.0232484
-0.0464097
0.0237065
-0.0545747
0.0297985
-0.0605808
0.035138
-0.0645655
0.0396507
-0.0666945
0.0432804
-0.0671524
0.0459887
-0.0661356
0.0477547
-0.0638443
0.0485744
-0.0604768
0.0484593
-0.0562245
0.047435
-0.0512676
0.0455402
-0.0457727
0.0428241
-0.0398905
0.039346
-0.0337555
0.0351727
-0.0274854
0.030378
-0.0211821
0.025041
-0.0149325
0.0192454
-0.00881038
0.0130788
-0.00287812
0.00663234
0.00281149
0
0.00821311
-0.00672116
0.0132869
-0.0134313
0.0179969
-0.0200281
0.0223092
-0.0264065
0.0261906
-0.0324598
0.0296077
-0.0380798
0.0325262
-0.0431577
0.0349104
-0.0475862
0.0367235
-0.0512601
0.0379277
-0.0540791
0.0384853
-0.0559501
0.0383598
-0.0567894
0.0375174
-0.0565261
0.035929
-0.0551046
0.0335726
-0.0524877
0.030435
-0.0486594
0.0265148
-0.043627
0.0218244
-0.0374236
0.0163926
-0.0301088
-0.0217702
0.0102663
-0.0597184
0.0252539
0.0439205
-0.0724237
0.0328745
-0.0821418
0.0397548
-0.0890317
0.0457879
-0.0932945
0.0508843
-0.0951626
0.0549736
-0.0948889
0.0580043
-0.0927372
0.0599442
-0.0889734
0.0607801
-0.0838584
0.0605163
-0.0776418
0.059174
-0.0705573
0.0567897
-0.0628195
0.0534133
-0.054622
0.0491069
-0.046136
0.0439428
-0.0375112
0.0380026
-0.028876
0.0313754
-0.0203397
0.0241572
-0.0119944
0.0164496
-0.00391725
0.00835984
0.0038266
-3.5293e-20
0.0111817
-0.00851311
0.0180994
-0.0170581
0.0245359
-0.0255092
0.0304498
-0.0337366
0.0358004
-0.0416069
0.0405464
-0.0489842
0.044645
-0.055731
0.0480511
-0.0617099
0.0507177
-0.0667859
0.0525959
-0.0708288
0.0536364
-0.0737161
0.0537906
-0.0753364
0.0530128
-0.0755929
0.0512621
-0.074407
0.0485056
-0.0717219
0.0447208
-0.067506
0.0398988
-0.0617562
0.0340474
-0.0544999
0.0271936
-0.045797
-0.0357411
0.0193864
-0.0879516
0.033326
0.0703334
-0.101834
0.0413179
-0.11214
0.0485592
-0.119087
0.054929
-0.122936
0.0603233
-0.123978
0.0646559
-0.122525
0.0678602
-0.118899
0.0698894
-0.113418
0.0707165
-0.106395
0.070334
-0.0981268
0.0687528
-0.0888882
0.0660015
-0.0789316
0.0621242
-0.0684832
0.0571798
-0.0577424
0.0512399
-0.0468824
0.0443875
-0.0360512
0.0367158
-0.0253741
0.0283271
-0.0149556
0.0193318
-0.00488318
0.00984774
0.00477025
1.81794e-14
0.0139428
-0.0100796
0.0225807
-0.0202527
0.0306353
-0.0303747
0.0380608
-0.0402949
0.0448119
-0.0498576
0.0508423
-0.0589029
0.0561032
-0.0672681
0.060543
-0.0747894
0.0641072
-0.081305
0.0667387
-0.0866575
0.068379
-0.0906976
0.0689697
-0.0932878
0.0684549
-0.0943065
0.0667837
-0.0936527
0.063913
-0.0912495
0.059811
-0.0870484
0.0544605
-0.0810331
0.0478621
-0.0732217
0.0400377
-0.0636695
-0.0524699
0.0310333
-0.119792
0.0403224
0.10155
-0.13381
0.0483257
-0.143816
0.0556268
-0.150076
0.0620915
-0.152902
0.0675999
-0.152634
0.0720491
-0.149631
0.0753547
-0.14426
0.0774522
-0.136881
0.0782973
-0.127846
0.0778664
-0.117486
0.0761559
-0.106107
0.0731814
-0.0939892
0.0689765
-0.0813824
0.0635917
-0.0685058
0.0570929
-0.0555487
0.0495599
-0.0426725
0.041085
-0.0300124
0.0317721
-0.0176811
0.0217358
-0.00577179
0.0111005
0.00563838
8.74893e-15
0.0164844
-0.011423
0.0267101
-0.0230171
0.0362651
-0.0346225
0.0451014
-0.0460716
0.0531718
-0.0571901
0.0604273
-0.0677975
0.0668159
-0.0777093
0.072282
-0.0867392
0.0767661
-0.0947014
0.0802055
-0.101415
0.0825352
-0.106705
0.0836897
-0.110413
0.0836054
-0.112392
0.0822231
-0.112522
0.0794917
-0.110706
0.0753711
-0.106879
0.0698363
-0.101011
0.0628806
-0.0931094
0.0545195
-0.0832218
-0.0714379
0.0447934
-0.154226
0.0455097
0.13646
-0.167444
0.0532995
-0.176366
0.0604811
-0.181299
0.0669064
-0.182592
0.0724392
-0.180623
0.0769581
-0.175784
0.0803593
-0.168472
0.0825583
-0.159079
0.0834907
-0.147983
0.0831139
-0.135538
0.0814062
-0.122073
0.0783668
-0.107885
0.0740152
-0.0932387
0.0683899
-0.0783663
0.0615471
-0.063467
0.0535594
-0.0487097
0.0445149
-0.0342353
0.0345155
-0.0201601
0.0236763
-0.00657963
0.0121248
0.00642764
3.5293e-20
0.0187963
-0.0125476
0.0304704
-0.0253569
0.0413996
-0.0382563
0.0515365
-0.0510646
0.0608335
-0.0635918
0.0692413
-0.0756405
0.0767068
-0.0870077
0.0831728
-0.0974875
0.0885773
-0.106874
0.0928544
-0.114964
0.0959353
-0.121565
0.0977499
-0.126493
0.0982295
-0.129586
0.0973095
-0.130701
0.0949326
-0.129726
0.0910529
-0.12658
0.085639
-0.121221
0.0786782
-0.113644
0.0701799
-0.10389
-0.0920422
0.0601787
-0.190149
0.0483024
0.173818
-0.201769
0.0557787
-0.208958
0.0627711
-0.212047
0.0691178
-0.211411
0.0746658
-0.207449
0.0792748
-0.200574
0.0828206
-0.191204
0.0851971
-0.179748
0.0863186
-0.166598
0.0861213
-0.152122
0.0845632
-0.136662
0.0816252
-0.120524
0.0773098
-0.103982
0.0716409
-0.0872729
0.0646624
-0.0706011
0.0564373
-0.0541382
0.0470463
-0.0380269
0.0365868
-0.0223838
0.0251717
-0.00730399
0.0129288
0.00713537
0
0.0208706
-0.0134595
0.0338475
-0.0272815
0.046018
-0.0412853
0.0573365
-0.0552788
0.0677572
-0.0690594
0.0772319
-0.0824156
0.0857086
-0.095129
0.0931301
-0.106977
0.0994343
-0.117737
0.104554
-0.127188
0.10842
-0.135118
0.110959
-0.141327
0.112101
-0.145636
0.111777
-0.147886
0.109928
-0.147949
0.106503
-0.145732
0.101468
-0.141179
0.0948056
-0.13428
0.0865209
-0.125066
-0.113616
0.0766439
-0.226407
0.0482892
0.212289
-0.235798
0.0554581
-0.240754
0.0622833
-0.241619
0.0685897
-0.238776
0.0742082
-0.232635
0.0789799
-0.223618
0.0827601
-0.212149
0.085421
-0.198644
0.086855
-0.1835
0.0869761
-0.167093
0.0857215
-0.149765
0.0830519
-0.131827
0.0789517
-0.113554
0.0734286
-0.0951842
0.0665125
-0.0769224
0.0582549
-0.0589392
0.0487273
-0.0413755
0.0380207
-0.024346
0.0262438
-0.00794286
0.0135228
0.00775961
7.83417e-15
0.022701
-0.0141664
0.0368307
-0.0288033
0.0501038
-0.0437234
0.062478
-0.0587259
0.0739104
-0.0735982
0.0843555
-0.0881172
0.0937637
-0.102052
0.10208
-0.115166
0.109243
-0.127221
0.115187
-0.137984
0.119843
-0.147226
0.12314
-0.154734
0.125005
-0.160312
0.125371
-0.16379
0.124177
-0.165028
0.121372
-0.163922
0.11692
-0.160407
0.110802
-0.154464
0.103021
-0.146119
-0.135448
0.0936047
-0.261828
0.0452492
0.250494
-0.268544
0.0521988
-0.270932
0.0589475
-0.269335
0.0653088
-0.264134
0.0710989
-0.255736
0.0761414
-0.24456
0.080272
-0.231027
0.0833422
-0.21555
0.0852226
-0.198526
0.0858056
-0.180326
0.085007
-0.16129
0.0827674
-0.141727
0.0790523
-0.121908
0.0738525
-0.102069
0.067183
-0.0824099
0.0590827
-0.063099
0.0496129
-0.044273
0.0388567
-0.0260423
0.0269175
-0.00849496
0.013918
0.00829909
-7.5508e-15
0.0242838
-0.0146774
0.0394129
-0.029938
0.0536456
-0.0455893
0.0669436
-0.0614243
0.0792682
-0.077222
0.0905773
-0.0927501
0.100825
-0.107767
0.109958
-0.122025
0.117921
-0.135276
0.124648
-0.147271
0.130074
-0.157772
0.134129
-0.166552
0.136743
-0.173406
0.137851
-0.178151
0.137393
-0.180639
0.13532
-0.180758
0.131597
-0.178435
0.126206
-0.173646
0.119151
-0.166414
-0.156811
0.110458
-0.295262
0.0391596
0.287057
-0.299053
0.0460307
-0.29871
0.0528369
-0.29456
0.0593825
-0.286974
0.0654709
-0.276344
0.0709105
-0.263079
0.075519
-0.24759
0.0791286
-0.23028
0.0815894
-0.211535
0.0827729
-0.191719
0.0825745
-0.171165
0.0809147
-0.150174
0.0777405
-0.12901
0.0730256
-0.107904
0.0667699
-0.0870502
0.0589992
-0.06661
0.0497639
-0.0467151
0.0391386
-0.0274708
0.0272202
-0.00895971
0.0141275
0.00875325
3.62357e-15
0.025617
-0.0150031
0.04159
-0.0307038
0.0566363
-0.0469062
0.0707222
-0.0633982
0.0838131
-0.0799525
0.0958715
-0.0963292
0.106855
-0.112278
0.116716
-0.127544
0.1254
-0.141865
0.132849
-0.154987
0.138998
-0.16666
0.143783
-0.176647
0.147137
-0.184735
0.148999
-0.190733
0.149312
-0.194486
0.148031
-0.195874
0.145123
-0.194822
0.140575
-0.191301
0.134391
-0.185331
-0.176983
0.126602
-0.325618
0.0301928
0.320657
-0.326435
0.0371481
-0.323364
0.044162
-0.316715
0.0510319
-0.306836
0.0575513
-0.294101
0.0635152
-0.278901
0.0687259
-0.26163
0.072998
-0.242677
0.0761629
-0.222415
0.0780727
-0.201193
0.0786031
-0.179335
0.0776558
-0.157132
0.0751599
-0.134839
0.0710722
-0.112679
0.0653777
-0.0908374
0.0580891
-0.0694699
0.0492458
-0.0487016
0.0389132
-0.0286316
0.0271816
-0.00933723
0.014165
0.00912221
-3.51092e-15
0.0267007
-0.0151551
0.0433617
-0.0311214
0.059074
-0.0477009
0.0738086
-0.0646774
0.0875355
-0.0818187
0.100222
-0.098879
0.111829
-0.115601
0.122315
-0.131722
0.131629
-0.146973
0.139717
-0.161091
0.146521
-0.173818
0.151979
-0.184911
0.156031
-0.194148
0.158619
-0.201334
0.159693
-0.206306
0.159211
-0.208941
0.157147
-0.209162
0.153489
-0.206935
0.148248
-0.202282
-0.195271
0.141456
-0.351899
0.0187037
0.350069
-0.349882
0.0258973
-0.344251
0.0332588
-0.33529
0.0405814
-0.323323
0.0476508
-0.308701
0.0542513
-0.291794
0.0601718
-0.272977
0.0652115
-0.25262
0.0691847
-0.23108
0.0719258
-0.208692
0.0732925
-0.185767
0.0731687
-0.162583
0.071466
-0.139387
0.0681256
-0.116391
0.0631177
-0.0937731
0.0564422
-0.0716819
0.0481276
-0.0502356
0.0382302
-0.0295272
0.0268332
-0.00962834
0.0140453
0.00940676
6.7355e-15
0.0275371
-0.015146
0.0447308
-0.0312138
0.0609612
-0.0480037
0.0762038
-0.0652967
0.0904331
-0.0828568
0.10362
-0.100433
0.115732
-0.117763
0.12673
-0.134576
0.136569
-0.1506
0.145199
-0.165562
0.152568
-0.179199
0.158618
-0.191263
0.163295
-0.201525
0.166547
-0.209785
0.168329
-0.215877
0.168605
-0.219674
0.167354
-0.221097
0.16457
-0.220111
0.160268
-0.216734
-0.211037
0.154484
-0.373234
0.0052087
0.374214
-0.368702
0.0127577
-0.360825
0.0205725
-0.349861
0.0284438
-0.336111
0.0361517
-0.319902
0.0434716
-0.301582
0.0501809
-0.281505
0.0560651
-0.260023
0.0609236
-0.237476
0.0645744
-0.214184
0.0668584
-0.190444
0.0676429
-0.166523
0.0668235
-0.142656
0.0643258
-0.119047
0.0601063
-0.0958665
0.0541523
-0.0732547
0.0464815
-0.051324
0.0371413
-0.0301618
0.0262076
-0.00983452
0.0137839
0.00960833
-2.46345e-17
0.0281302
-0.0149893
0.0457032
-0.0310055
0.062305
-0.0478479
0.0779149
-0.0652955
0.0925114
-0.0831089
0.10607
-0.101033
0.118561
-0.118801
0.129951
-0.136137
0.140198
-0.152763
0.149259
-0.1684
0.157085
-0.182782
0.163624
-0.195652
0.168828
-0.20678
0.172649
-0.215959
0.175049
-0.223022
0.175998
-0.227839
0.175478
-0.230326
0.17349
-0.230449
0.170053
-0.228224
-0.223719
0.165206
-0.388906
-0.00964415
0.392189
-0.382331
-0.00168357
-0.372649
0.00663567
-0.360097
0.0151026
-0.344953
0.0234924
-0.327526
0.031573
-0.308141
0.0391116
-0.287134
0.0458817
-0.264838
0.0516685
-0.241579
0.0562754
-0.217663
0.0595275
-0.193372
0.0612765
-0.168964
0.0614026
-0.144663
0.059817
-0.120665
0.0564628
-0.0971338
0.051315
-0.0742021
0.044381
-0.0519773
0.0356991
-0.0305418
0.0253383
-0.00995789
0.0133966
0.009729
0
0.0284858
-0.014699
0.0462882
-0.0305225
0.063117
-0.0472694
0.0789547
-0.0647169
0.0937832
-0.0826228
0.107581
-0.100729
0.120323
-0.118764
0.131978
-0.136447
0.142511
-0.153495
0.15188
-0.169626
0.160041
-0.184567
0.166948
-0.198058
0.172557
-0.209862
0.176827
-0.219772
0.179722
-0.227614
0.181218
-0.233256
0.181303
-0.236613
0.17998
-0.237646
0.177272
-0.23637
-0.23285
0.173222
-0.398375
-0.0251108
0.403303
-0.390352
-0.0167609
-0.379409
-0.00795583
-0.365767
0.0010913
-0.349688
0.0101508
-0.331464
0.0189831
-0.311403
0.027346
-0.289827
0.0350012
-0.267054
0.0417212
-0.243396
0.0472949
-0.219145
0.0515329
-0.194576
0.0542716
-0.169933
0.0553767
-0.145437
0.0547455
-0.121272
0.0523078
-0.0975981
0.0480271
-0.074543
0.0419004
-0.0522092
0.0339573
-0.0306756
0.0242595
-0.0100012
0.0128998
0.00977142
2.99948e-15
0.0286117
-0.0142895
0.0464978
-0.029792
0.0634128
-0.046306
0.0793417
-0.0636072
0.0942686
-0.0814513
0.108175
-0.0995765
0.121038
-0.117708
0.132829
-0.135561
0.143517
-0.152847
0.153063
-0.16928
0.161427
-0.184582
0.168568
-0.198488
0.174444
-0.210758
0.179018
-0.22118
0.182259
-0.229575
0.184147
-0.235809
0.184672
-0.239792
0.18384
-0.241482
0.181676
-0.240889
-0.238073
0.178222
-0.401292
0.407101
-0.39251
-0.380924
-0.366751
-0.350242
-0.331679
-0.311362
-0.289599
-0.266698
-0.242961
-0.218673
-0.194097
-0.169475
-0.145015
-0.120903
-0.0972893
-0.0743008
-0.0520366
-0.0305732
-0.00996769
0.00973883
0.0285173
0.0463471
0.0632125
0.0790997
0.0939944
0.107879
0.120734
0.132532
0.143242
0.15283
0.161259
0.168488
0.17448
0.179199
0.182619
0.184719
0.185491
0.184943
0.183098
0.179996
0.251307
0.163686
0.2576
0.162247
0.258886
0.158105
0.254989
0.151422
0.245941
0.14244
0.231989
0.131467
0.213598
0.118873
0.191437
0.105074
0.166365
0.090522
0.139406
0.075691
0.11171
0.0610614
0.0845212
0.047106
0.0591245
0.034276
0.0368028
0.0229865
0.0187844
0.0136043
0.00619302
0.00643643
0.00172026
0.244026
0.147139
0.250454
0.146014
0.252403
0.142638
0.249692
0.137136
0.24231
0.12969
0.230423
0.120535
0.214374
0.109952
0.194677
0.0982604
0.172013
0.0858073
0.147203
0.0729605
0.121191
0.0600973
0.0950129
0.0475944
0.0697654
0.0358179
0.0465672
0.0251132
0.0265226
0.0157956
0.0106814
0.00814159
0.00238134
0.234809
0.130649
0.241331
0.129808
0.243861
0.127104
0.242217
0.122632
0.236351
0.116528
0.22636
0.108968
0.212483
0.100162
0.195107
0.0903499
0.174752
0.0797959
0.152069
0.0687808
0.127814
0.0575961
0.102838
0.0465369
0.0780561
0.0358946
0.0544248
0.0259498
0.0329128
0.0169661
0.0144706
0.00918286
0.00280998
0.223884
0.114489
0.230446
0.113892
0.233468
0.111767
0.232763
0.108183
0.228257
0.103239
0.219986
0.0970648
0.208108
0.089815
0.192896
0.081667
0.174741
0.0728176
0.15414
0.0634778
0.13169
0.0538689
0.108072
0.0442178
0.0840355
0.0347516
0.0603798
0.0256933
0.0379342
0.0172568
0.0175343
0.00964248
0.00303261
0.211505
0.0988998
0.218048
0.0985046
0.221463
0.096868
0.221568
0.0940385
0.218261
0.0900872
0.211535
0.0851064
0.201476
0.0792078
0.188268
0.0725205
0.172189
0.065188
0.153609
0.057366
0.132984
0.0492192
0.110847
0.0409181
0.0877972
0.0326362
0.0644862
0.0245461
0.0416058
0.0168169
0.0198703
0.00961052
0.00307904
0.197943
0.0840875
0.204402
0.0838528
0.208114
0.0826203
0.208895
0.0804231
0.206628
0.0773106
0.201271
0.0733473
0.192853
0.0686118
0.181483
0.0631955
0.167348
0.0572012
0.150711
0.0507409
0.131908
0.0439345
0.111343
0.0369075
0.0894813
0.0297887
0.0668405
0.0227086
0.0439816
0.0157969
0.0214972
0.00918036
0.00298087
0.183477
0.070223
0.189789
0.0701092
0.193698
0.069204
0.195025
0.067529
0.193644
0.0651172
0.189482
0.0620123
0.182527
0.0582682
0.172829
0.053948
0.1605
0.0491231
0.145715
0.0438723
0.128708
0.0382804
0.109775
0.0324372
0.0892647
0.0264362
0.0675741
0.0203728
0.0451443
0.0143437
0.0224518
0.00844472
0.00276992
0.168383
0.0574402
0.174484
0.0574115
0.178495
0.0567653
0.180244
0.0555148
0.179597
0.0536811
0.176465
0.0512928
0.170802
0.0483853
0.162611
0.045001
0.151946
0.0411879
0.138909
0.0369997
0.123655
0.0324947
0.106386
0.0277352
0.0873515
0.0227867
0.0668448
0.017717
0.0451995
0.0125955
0.0227849
0.0074923
0.00247705
0.152926
0.0458365
0.158755
0.0458623
0.162777
0.045416
0.16483
0.0445049
0.164777
0.0431419
0.162517
0.0413446
0.15798
0.0391356
0.151135
0.036542
0.14199
0.0335949
0.130593
0.0303297
0.117031
0.0267848
0.101431
0.0230019
0.083962
0.0190254
0.0648274
0.0149017
0.0442682
0.0106785
0.022558
0.00640514
0.00213105
0.137348
0.0354757
0.142849
0.035531
0.1468
0.0352346
0.149047
0.0345902
0.149456
0.0336049
0.147919
0.0322891
0.144351
0.0306562
0.138698
0.0287227
0.130932
0.0265081
0.121059
0.0240342
0.109116
0.0213256
0.0951704
0.0184089
0.0793231
0.0153127
0.0617057
0.0120673
0.0424805
0.00870439
0.021839
0.00525675
0.00175795
0.121865
0.0263916
0.126988
0.0264569
0.130792
0.0262694
0.133133
0.0258304
0.133884
0.0251436
0.132933
0.0242144
0.130188
0.0230502
0.125579
0.0216606
0.119054
0.0200568
0.11059
0.0182518
0.100183
0.0162601
0.0878562
0.0140979
0.0736585
0.0117826
0.0576633
0.00933304
0.0399691
0.00676891
0.020699
0.00411092
0.00138054
0.106657
0.0185924
0.111359
0.0186538
0.114949
0.0185423
0.117295
0.0182583
0.118278
0.017803
0.117789
0.0171791
0.115732
0.0163903
0.112029
0.0154415
0.106614
0.0143387
0.0994419
0.0130891
0.0904822
0.0117005
0.0797255
0.0101822
0.0671808
0.00854405
0.0528772
0.00679675
0.0368634
0.00495179
0.0192083
0.00302134
0.00101813
0.0918712
0.0120668
0.0961152
0.0121153
0.0994318
0.0120546
0.101704
0.0118844
0.102821
0.0116049
0.102681
0.0112172
0.10119
0.0107228
0.098266
0.0101239
0.093837
0.00942337
0.0878437
0.00862468
0.0802397
0.00773181
0.0709926
0.00674933
0.0600841
0.00568229
0.047511
0.00453628
0.0332851
0.0033173
0.0174338
0.0020318
0.000686599
0.0776153
0.0067902
0.0813693
0.00682149
0.084362
0.00679271
0.0864905
0.00670347
0.087656
0.00655365
0.0877647
0.00634348
0.0867292
0.00607346
0.0844686
0.0057444
0.0809097
0.00535741
0.075988
0.00491388
0.0696479
0.00441547
0.0618434
0.00386413
0.0525392
0.00326204
0.0417105
0.00261166
0.0293437
0.00191566
0.0154369
0.00117694
0.000398618
0.063961
0.00273164
0.067198
0.00274509
0.069823
0.00273482
0.0717476
0.00270062
0.0728859
0.00264238
0.0731553
0.00256009
0.0724765
0.00245384
0.070775
0.00232382
0.0679809
0.00217035
0.0640301
0.00199379
0.0588645
0.00179465
0.0524327
0.00157349
0.0446904
0.001331
0.0356006
0.00106793
0.0251346
0.00078512
0.0132717
0.000483485
0.000164021
0.0509457
-0.000139461
0.0536425
-0.000141392
0.0558615
-0.000142145
0.0575296
-0.00014167
0.058575
-0.000139919
0.0589274
-0.000136851
0.0585187
-0.000132428
0.0572834
-0.000126618
0.0551592
-0.000119393
0.0520869
-0.000110734
0.0480117
-0.000100625
0.0428826
-8.90598e-05
0.0366536
-7.60394e-05
0.0292837
-6.15722e-05
0.0207372
-4.56751e-05
0.0109839
-2.83737e-05
-9.70178e-06
0.0385773
-0.00184677
0.0407125
-0.0018592
0.0424917
-0.00185605
0.0438572
-0.00183705
0.044752
-0.00180199
0.0451197
-0.00175068
0.0449052
-0.00168301
0.0440547
-0.0015989
0.042516
-0.00149835
0.0402393
-0.00138138
0.0371769
-0.00124808
0.0332837
-0.00109859
0.0285177
-0.000933103
0.0228399
-0.000751867
0.0162149
-0.000555179
0.0086109
-0.000343386
-0.000116889
0.026839
-0.00240104
0.0283922
-0.00241733
0.0297005
-0.00241352
0.0307221
-0.00238927
0.0314156
-0.00234425
0.0317395
-0.00227823
0.0316531
-0.002191
0.0311163
-0.00208244
0.0300898
-0.00195246
0.0285356
-0.00180106
0.0264168
-0.00162829
0.0236982
-0.00143426
0.0203461
-0.00121913
0.0163288
-0.000983134
0.0116166
-0.00072657
0.00618199
-0.000449787
-0.000153199
0.0156965
-0.00179512
0.0166464
-0.00180745
0.017454
-0.00180484
0.0180939
-0.001787
0.0185406
-0.0017537
0.0187688
-0.00170473
0.0187533
-0.00163993
0.0184691
-0.00155917
0.0178918
-0.00146238
0.0169973
-0.00134951
0.0157623
-0.00122058
0.0141641
-0.00107563
0.012181
-0.000914748
0.00979224
-0.000738066
0.00697796
-0.000545759
0.00371965
-0.000338046
-0.000115185
0.00510468
-3.91034e-18
0.00542783
-3.101e-18
0.00570477
-3.32354e-18
0.00592689
-3.23414e-18
0.00608554
-2.51733e-18
0.00617207
-2.3959e-18
0.00617787
-2.28005e-18
0.00609439
-1.70891e-18
0.0059132
-1.18893e-18
0.00562603
-8.48181e-19
0.00522476
-4.79401e-19
0.00470152
-4.81864e-19
0.00404869
-5.98895e-19
0.00325894
-4.19787e-19
0.00232527
-2.14351e-19
0.00124103
-8.59229e-20
-1.7194e-20
-0.00498517
0.00303756
-0.00531549
0.00305826
-0.00560051
0.00305366
-0.00583145
0.00302331
-0.00599949
0.0029668
-0.00609578
0.00288378
-0.00611152
0.00277399
-0.00603798
0.00263722
-0.00586654
0.00247336
-0.0055887
0.00228233
-0.00519617
0.00206415
-0.00468086
0.00181891
-0.00403496
0.00154676
-0.00325093
0.00124793
-0.00232158
0.000922724
-0.00124008
0.000571507
0.000194722
-0.0146184
0.00739586
-0.0156331
0.00744496
-0.0165137
0.00743217
-0.0172333
0.00735641
-0.0177648
0.00721674
-0.0180812
0.00701243
-0.0181555
0.00674293
-0.017961
0.00640784
-0.0174715
0.00600698
-0.0166612
0.00554035
-0.0155049
0.00500813
-0.0139782
0.00441067
-0.0120575
0.00374854
-0.00972021
0.00302247
-0.00694483
0.00223339
-0.00371109
0.00138239
0.000470782
-0.0238306
0.0131772
-0.0255652
0.0132611
-0.027078
0.0132337
-0.0283229
0.0130933
-0.0292536
0.0128385
-0.0298241
0.0124682
-0.0299888
0.0119816
-0.0297025
0.0113785
-0.0289212
0.0106588
-0.0276017
0.00982295
-0.0257022
0.00887169
-0.0231823
0.00780615
-0.0200035
0.00662783
-0.0161292
0.00533858
-0.0115249
0.00394061
-0.00615832
0.00243648
0.000829101
-0.0326423
0.0205051
-0.0351375
0.0206278
-0.0373223
0.0205754
-0.0391304
0.0203454
-0.0404952
0.019936
-0.041351
0.0193461
-0.041633
0.0185751
-0.0412775
0.0176232
-0.0402225
0.0164914
-0.0384083
0.015181
-0.0357772
0.0136942
-0.0322745
0.0120338
-0.0278484
0.0102032
-0.0224505
0.00820654
-0.0160363
0.00604836
-0.00856486
0.00373397
0.00126919
-0.041055
0.0295192
-0.044356
0.0296819
-0.047256
0.0295884
-0.0496663
0.0292359
-0.0514994
0.0286227
-0.052669
0.027748
-0.0530904
0.0266124
-0.0526816
0.0252175
-0.0513637
0.0235659
-0.0490609
0.0216614
-0.0457019
0.0195089
-0.0412198
0.0171143
-0.0355527
0.0144846
-0.0286443
0.0116278
-0.0204443
0.00855273
-0.0109086
0.00526935
0.00178841
-0.0490482
0.0403691
-0.0532048
0.0405683
-0.0568655
0.0404105
-0.0599183
0.0398927
-0.0622528
0.0390141
-0.0637613
0.0377754
-0.0643393
0.0361793
-0.0638868
0.0342301
-0.0623086
0.0319342
-0.0595157
0.0292994
-0.0554251
0.0263355
-0.0499617
0.0230537
-0.0430578
0.019467
-0.0346546
0.0155897
-0.0247024
0.0114379
-0.0131609
0.00702885
0.0023811
-0.0565788
0.0532054
-0.061644
0.0534324
-0.0661133
0.0531779
-0.0698487
0.0524398
-0.0727159
0.0512193
-0.0745847
0.04952
-0.0753309
0.0473485
-0.0748372
0.0447145
-0.0729941
0.0416299
-0.0697016
0.0381099
-0.0648695
0.0341717
-0.0584189
0.0298354
-0.0502827
0.0251232
-0.0404067
0.0200598
-0.0287498
0.0146717
-0.0152851
0.00898753
0.00303752
-0.0635816
0.0681706
-0.0696108
0.0684096
-0.0749372
0.0680149
-0.0793948
0.0669868
-0.0828231
0.0653299
-0.085069
0.063053
-0.0859886
0.0601696
-0.0854485
0.0566973
-0.0833277
0.0526577
-0.0795189
0.0480767
-0.0739296
0.0429836
-0.0664839
0.0374115
-0.0571228
0.0313969
-0.0458059
0.0249792
-0.0325112
0.0182007
-0.0172367
0.0111063
0.00374288
-0.0699713
0.0853874
-0.0770209
0.0856145
-0.0832527
0.0850233
-0.0884698
0.0836181
-0.0924837
0.0814093
-0.0951177
0.0784145
-0.0962084
0.0746574
-0.0956085
0.0701681
-0.0931887
0.0649826
-0.0888393
0.0591429
-0.0824724
0.0526961
-0.0740229
0.0456942
-0.06345
0.0381941
-0.0507379
0.0302564
-0.0358969
0.0219455
-0.0189633
0.0133289
0.00447634
-0.075647
0.104948
-0.0837727
0.10513
-0.0909564
0.104271
-0.0969668
0.102381
-0.101586
0.0994814
-0.104611
0.0956015
-0.105862
0.0907808
-0.10518
0.0850677
-0.10243
0.0785191
-0.0975086
0.0712001
-0.0903392
0.063183
-0.0808782
0.0545467
-0.0691145
0.0453762
-0.0550708
0.0357615
-0.038804
0.0257968
-0.0204054
0.0155797
0.00521023
-0.0804971
0.126901
-0.0897521
0.126994
-0.0979307
0.125779
-0.104763
0.123276
-0.109999
0.119519
-0.113412
0.114557
-0.114802
0.108452
-0.114003
0.101278
-0.110884
0.0931212
-0.105351
0.0840792
-0.0973501
0.074259
-0.0868719
0.0637763
-0.0739489
0.0527541
-0.0586579
0.0413214
-0.0411198
0.0296118
-0.0214985
0.0177617
0.00590944
-0.0844054
0.151242
-0.0948388
0.151192
-0.10405
0.149514
-0.111727
0.146244
-0.117584
0.141435
-0.121369
0.135162
-0.122866
0.127517
-0.121906
0.118612
-0.118366
0.108574
-0.112173
0.0975424
-0.103309
0.0856724
-0.0918117
0.0731283
-0.0777732
0.0600832
-0.061343
0.0467167
-0.0427247
0.0332125
-0.022175
0.0197557
0.00653129
-0.0872586
0.177902
-0.0989132
0.177643
-0.109189
0.175378
-0.117724
0.17116
-0.124197
0.165071
-0.128327
0.157222
-0.129887
0.147748
-0.128708
0.136809
-0.124684
0.124586
-0.117776
0.111277
-0.108013
0.0971002
-0.0954979
0.0822823
-0.0804017
0.0670612
-0.0629658
0.0516804
-0.0434978
0.0363855
-0.0223671
0.0214208
0.00702577
-0.0889532
0.206737
-0.101864
0.206195
-0.113226
0.203197
-0.122625
0.197824
-0.129696
0.190196
-0.134133
0.18047
-0.135697
0.168839
-0.134228
0.155527
-0.129646
0.140787
-0.121957
0.124895
-0.111257
0.108147
-0.0977313
0.0908518
-0.0816502
0.0733285
-0.0633693
0.055899
-0.0433215
0.0388838
-0.0220103
0.022596
0.00733634
-0.0894033
0.237525
-0.103595
0.236616
-0.116056
0.232724
-0.126313
0.225961
-0.133954
0.216499
-0.138645
0.204556
-0.140141
0.190401
-0.138296
0.174343
-0.133067
0.156727
-0.124525
0.137929
-0.112847
0.118345
-0.0983224
0.0983866
-0.081345
0.0784717
-0.0624068
0.0590173
-0.0420883
0.0404312
-0.0210466
0.0231038
0.00740129
-0.0885468
0.269958
-0.104032
0.268596
-0.117595
0.26363
-0.128693
0.255216
-0.136862
0.24359
-0.141741
0.229052
-0.14308
0.211968
-0.140758
0.192756
-0.134784
0.171881
-0.125305
0.149841
-0.112605
0.127162
-0.0971
0.104379
-0.0793307
0.0820303
-0.0599496
0.0606449
-0.0397064
0.0407286
-0.0194285
0.0227553
0.00715576
-0.0863517
0.303645
-0.10313
0.301744
-0.117785
0.29551
-0.129694
0.28516
-0.138337
0.271006
-0.143322
0.253457
-0.144402
0.233
-0.141487
0.210193
-0.134654
0.185651
-0.124148
0.160028
-0.110381
0.134006
-0.0939204
0.108272
-0.0754796
0.0835074
-0.0558954
0.0603665
-0.036106
0.0394637
-0.0171228
0.0213569
0.00653435
-0.0828206
0.33811
-0.100876
0.335589
-0.1166
0.327889
-0.129278
0.315294
-0.138327
0.298219
-0.143325
0.277204
-0.144028
0.252893
-0.140391
0.226019
-0.132574
0.197384
-0.120942
0.167835
-0.10606
0.138243
-0.0886755
0.109478
-0.0696992
0.0823831
-0.0501747
0.0577559
-0.0312452
0.0363224
-0.0141135
0.018719
0.00547424
-0.0779939
0.372801
-0.0972946
0.369596
-0.114051
0.360228
-0.127444
0.345062
-0.13682
0.324644
-0.141721
0.299674
-0.141915
0.270994
-0.137413
0.239553
-0.128476
0.206385
-0.115614
0.172571
-0.0995697
0.139212
-0.0813002
0.107389
-0.0619392
0.0781324
-0.0427577
0.0523914
-0.0251151
0.0310028
-0.0104054
0.0146654
0.0039189
-0.0719504
0.407099
-0.0924465
0.403169
-0.110185
0.391937
-0.124228
0.373867
-0.133839
0.349657
-0.138524
0.320212
-0.138066
0.286615
-0.132544
0.250083
-0.122341
0.211932
-0.108137
0.173529
-0.0908856
0.136243
-0.0717783
0.101403
-0.0521978
0.0702444
-0.0336593
0.0438751
-0.0177438
0.0232306
-0.00602603
0.0090445
0.00182209
0.183091
-0.237895
-0.179998
0.184928
-0.240763
0.185469
-0.241416
0.18469
-0.239789
0.182586
-0.235873
0.179163
-0.229704
0.174442
-0.22137
0.16845
-0.211004
0.161222
-0.198782
0.152796
-0.184913
0.143211
-0.169637
0.132505
-0.153217
0.120712
-0.13593
0.107862
-0.118064
0.0939814
-0.0999078
0.0790907
-0.081746
0.0632069
-0.0638556
0.0463442
-0.0464997
0.0285162
-0.0299247
0.00973871
-0.014357
-0.00996781
4.04564e-15
-0.0305743
0.0129672
-0.0520395
0.0243923
-0.0743064
0.034151
-0.0972984
0.0421487
-0.120916
0.0483219
-0.145033
0.0526391
-0.169496
0.055102
-0.194124
0.0557462
-0.218703
0.0546411
-0.242995
0.0518894
-0.266735
0.0476258
-0.289637
0.0420149
-0.3114
0.0352474
-0.331716
0.0275363
-0.350275
0.0191116
-0.366779
0.0102142
-0.380947
0.00108894
-0.392525
-0.00802196
-0.401299
-0.0168863
-0.0252887
0.181794
-0.232656
-0.178355
0.183943
-0.236229
0.184759
-0.237564
0.18422
-0.236596
0.182319
-0.233306
0.179066
-0.227731
0.174482
-0.219952
0.168597
-0.210099
0.161449
-0.198344
0.153079
-0.184892
0.143528
-0.169978
0.132837
-0.153861
0.121043
-0.136814
0.108178
-0.119118
0.0942704
-0.101059
0.0793427
-0.0829168
0.0634133
-0.0649647
0.0464981
-0.0474628
0.0286118
-0.0306551
0.00977143
-0.0147664
-0.0100012
-2.50581e-17
-0.0306756
0.013464
-0.052209
0.0254709
-0.0745425
0.0358926
-0.0975971
0.0446288
-0.12127
0.051609
-0.145433
0.0567928
-0.169929
0.0601717
-0.194568
0.0617695
-0.219134
0.0616424
-0.24338
0.0598794
-0.267033
0.0566004
-0.289798
0.0519549
-0.311366
0.046119
-0.331415
0.0392916
-0.349628
0.0316897
-0.365694
0.0235427
-0.379322
0.0150859
-0.39025
0.00655439
-0.398257
-0.00182445
-0.00983742
0.177505
-0.223507
-0.173474
0.180193
-0.228062
0.181494
-0.230346
0.181389
-0.230288
0.179872
-0.227869
0.176958
-0.223119
0.17267
-0.216121
0.167044
-0.207
0.160121
-0.195923
0.151946
-0.183093
0.142564
-0.16874
0.132021
-0.153117
0.120356
-0.136494
0.107606
-0.119147
0.0938004
-0.101356
0.0789662
-0.0833971
0.0631239
-0.0655388
0.0462917
-0.048038
0.0284871
-0.0311359
0.00972914
-0.0150556
-0.00995775