/*--------------------------------*- C++ -*----------------------------------*\
  =========                 |
  \\      /  F ield         | OpenFOAM: The Open Source CFD Toolbox
   \\    /   O peration     | Website:  https://openfoam.org
    \\  /    A nd           | Version:  6
     \\/     M anipulation  |
\*---------------------------------------------------------------------------*/
FoamFile
{
    version     2.0;
    format      ascii;
    class       volVectorField;
    location    "2.35";
    object      U;
}
// * * * * * * * * * * * * * * * * * * * * * * * * * * * * * * * * * * * * * //

dimensions      [0 1 -1 0 0 0 0];

internalField   nonuniform List<vector> 
5625
(
(0.8944 0.4472 0)
(0.8944 0.447199 0)
(0.8944 0.4472 0)
(0.8944 0.447199 0)
(0.8944 0.447199 0)
(0.8944 0.447199 0)
(0.8944 0.447199 0)
(0.8944 0.447199 0)
(0.8944 0.447199 0)
(0.8944 0.447199 0)
(0.8944 0.447199 0)
(0.8944 0.447199 0)
(0.8944 0.447199 0)
(0.8944 0.4472 0)
(0.8944 0.4472 0)
(0.8944 0.4472 0)
(0.8944 0.4472 0)
(0.8944 0.4472 0)
(0.8944 0.4472 0)
(0.8944 0.447201 0)
(0.8944 0.447201 0)
(0.8944 0.447201 0)
(0.8944 0.447201 0)
(0.8944 0.447201 0)
(0.8944 0.447201 0)
(0.8944 0.447201 0)
(0.8944 0.447201 0)
(0.8944 0.447201 0)
(0.8944 0.447201 0)
(0.8944 0.447201 0)
(0.8944 0.4472 0)
(0.8944 0.4472 0)
(0.8944 0.4472 0)
(0.8944 0.4472 0)
(0.8944 0.4472 0)
(0.8944 0.4472 0)
(0.8944 0.4472 0)
(0.8944 0.4472 0)
(0.8944 0.4472 0)
(0.8944 0.4472 0)
(0.8944 0.4472 0)
(0.8944 0.4472 0)
(0.8944 0.4472 0)
(0.8944 0.4472 0)
(0.8944 0.4472 0)
(0.8944 0.4472 0)
(0.8944 0.4472 0)
(0.8944 0.4472 0)
(0.8944 0.4472 0)
(0.8944 0.4472 0)
(0.8944 0.4472 0)
(0.8944 0.4472 0)
(0.8944 0.4472 0)
(0.8944 0.4472 0)
(0.8944 0.4472 0)
(0.8944 0.4472 0)
(0.8944 0.4472 0)
(0.8944 0.4472 0)
(0.8944 0.4472 0)
(0.8944 0.4472 0)
(0.8944 0.4472 0)
(0.8944 0.4472 0)
(0.8944 0.4472 0)
(0.8944 0.4472 0)
(0.8944 0.4472 0)
(0.8944 0.4472 0)
(0.8944 0.4472 0)
(0.8944 0.4472 0)
(0.8944 0.4472 0)
(0.8944 0.4472 0)
(0.8944 0.4472 0)
(0.8944 0.4472 0)
(0.8944 0.4472 0)
(0.8944 0.4472 0)
(0.8944 0.4472 0)
(0.8944 0.447199 0)
(0.8944 0.447199 0)
(0.8944 0.447199 0)
(0.8944 0.447199 0)
(0.8944 0.447199 0)
(0.8944 0.447199 0)
(0.8944 0.447199 0)
(0.8944 0.447199 0)
(0.8944 0.447199 0)
(0.8944 0.447199 0)
(0.8944 0.447199 0)
(0.8944 0.447199 0)
(0.8944 0.447199 0)
(0.8944 0.4472 0)
(0.8944 0.4472 0)
(0.8944 0.4472 0)
(0.8944 0.4472 0)
(0.8944 0.4472 0)
(0.8944 0.447201 0)
(0.8944 0.447201 0)
(0.8944 0.447201 0)
(0.8944 0.447201 0)
(0.8944 0.447201 0)
(0.8944 0.447201 0)
(0.8944 0.447201 0)
(0.8944 0.447201 0)
(0.8944 0.447201 0)
(0.8944 0.447201 0)
(0.8944 0.447201 0)
(0.8944 0.447201 0)
(0.8944 0.447201 0)
(0.8944 0.4472 0)
(0.8944 0.4472 0)
(0.8944 0.4472 0)
(0.8944 0.4472 0)
(0.8944 0.4472 0)
(0.8944 0.4472 0)
(0.8944 0.4472 0)
(0.8944 0.4472 0)
(0.8944 0.4472 0)
(0.8944 0.4472 0)
(0.8944 0.4472 0)
(0.8944 0.4472 0)
(0.8944 0.4472 0)
(0.8944 0.4472 0)
(0.8944 0.4472 0)
(0.8944 0.4472 0)
(0.8944 0.4472 0)
(0.8944 0.4472 0)
(0.8944 0.4472 0)
(0.8944 0.4472 0)
(0.8944 0.4472 0)
(0.8944 0.4472 0)
(0.8944 0.4472 0)
(0.8944 0.4472 0)
(0.8944 0.4472 0)
(0.8944 0.4472 0)
(0.8944 0.4472 0)
(0.8944 0.4472 0)
(0.8944 0.4472 0)
(0.8944 0.4472 0)
(0.8944 0.4472 0)
(0.8944 0.4472 0)
(0.8944 0.4472 0)
(0.8944 0.4472 0)
(0.8944 0.4472 0)
(0.8944 0.4472 0)
(0.8944 0.4472 0)
(0.8944 0.4472 0)
(0.8944 0.4472 0)
(0.8944 0.4472 0)
(0.8944 0.4472 0)
(0.8944 0.4472 0)
(0.8944 0.4472 0)
(0.8944 0.4472 0)
(0.8944 0.447199 0)
(0.8944 0.447199 0)
(0.8944 0.447199 0)
(0.8944 0.447199 0)
(0.8944 0.447199 0)
(0.8944 0.447199 0)
(0.8944 0.447199 0)
(0.8944 0.447199 0)
(0.8944 0.447199 0)
(0.8944 0.447199 0)
(0.8944 0.447199 0)
(0.8944 0.447199 0)
(0.8944 0.447199 0)
(0.894399 0.447199 0)
(0.894399 0.4472 0)
(0.894399 0.4472 0)
(0.894399 0.4472 0)
(0.8944 0.447201 0)
(0.8944 0.447201 0)
(0.8944 0.447201 0)
(0.8944 0.447201 0)
(0.8944 0.447201 0)
(0.8944 0.447201 0)
(0.8944 0.447201 0)
(0.8944 0.447201 0)
(0.8944 0.447201 0)
(0.8944 0.447201 0)
(0.8944 0.447201 0)
(0.8944 0.447201 0)
(0.8944 0.447201 0)
(0.8944 0.447201 0)
(0.8944 0.447201 0)
(0.8944 0.447201 0)
(0.8944 0.4472 0)
(0.8944 0.4472 0)
(0.8944 0.4472 0)
(0.8944 0.4472 0)
(0.8944 0.4472 0)
(0.8944 0.4472 0)
(0.8944 0.4472 0)
(0.8944 0.4472 0)
(0.8944 0.4472 0)
(0.8944 0.4472 0)
(0.8944 0.4472 0)
(0.8944 0.4472 0)
(0.8944 0.4472 0)
(0.8944 0.4472 0)
(0.8944 0.4472 0)
(0.8944 0.4472 0)
(0.8944 0.4472 0)
(0.8944 0.4472 0)
(0.8944 0.4472 0)
(0.8944 0.4472 0)
(0.8944 0.4472 0)
(0.8944 0.4472 0)
(0.8944 0.4472 0)
(0.8944 0.4472 0)
(0.8944 0.4472 0)
(0.8944 0.4472 0)
(0.8944 0.4472 0)
(0.8944 0.4472 0)
(0.8944 0.4472 0)
(0.8944 0.4472 0)
(0.8944 0.4472 0)
(0.8944 0.4472 0)
(0.8944 0.4472 0)
(0.8944 0.4472 0)
(0.8944 0.4472 0)
(0.8944 0.4472 0)
(0.8944 0.4472 0)
(0.8944 0.4472 0)
(0.8944 0.4472 0)
(0.8944 0.4472 0)
(0.8944 0.4472 0)
(0.8944 0.4472 0)
(0.8944 0.447199 0)
(0.8944 0.447199 0)
(0.8944 0.447198 0)
(0.8944 0.447198 0)
(0.8944 0.447198 0)
(0.8944 0.447198 0)
(0.8944 0.447198 0)
(0.8944 0.447198 0)
(0.8944 0.447198 0)
(0.8944 0.447198 0)
(0.8944 0.447198 0)
(0.894399 0.447199 0)
(0.894399 0.447199 0)
(0.894399 0.447199 0)
(0.894399 0.4472 0)
(0.894399 0.4472 0)
(0.894399 0.4472 0)
(0.894399 0.447201 0)
(0.894399 0.447201 0)
(0.894399 0.447202 0)
(0.8944 0.447202 0)
(0.8944 0.447202 0)
(0.8944 0.447202 0)
(0.8944 0.447202 0)
(0.8944 0.447202 0)
(0.8944 0.447202 0)
(0.8944 0.447202 0)
(0.8944 0.447202 0)
(0.8944 0.447202 0)
(0.8944 0.447201 0)
(0.8944 0.447201 0)
(0.8944 0.447201 0)
(0.8944 0.447201 0)
(0.8944 0.447201 0)
(0.8944 0.4472 0)
(0.8944 0.4472 0)
(0.8944 0.4472 0)
(0.8944 0.4472 0)
(0.8944 0.4472 0)
(0.8944 0.4472 0)
(0.8944 0.4472 0)
(0.8944 0.4472 0)
(0.8944 0.4472 0)
(0.8944 0.4472 0)
(0.8944 0.4472 0)
(0.8944 0.4472 0)
(0.8944 0.4472 0)
(0.8944 0.4472 0)
(0.8944 0.4472 0)
(0.8944 0.4472 0)
(0.8944 0.4472 0)
(0.8944 0.4472 0)
(0.8944 0.4472 0)
(0.8944 0.4472 0)
(0.8944 0.4472 0)
(0.8944 0.4472 0)
(0.8944 0.4472 0)
(0.8944 0.4472 0)
(0.8944 0.4472 0)
(0.8944 0.4472 0)
(0.8944 0.4472 0)
(0.8944 0.4472 0)
(0.8944 0.4472 0)
(0.8944 0.4472 0)
(0.8944 0.4472 0)
(0.8944 0.4472 0)
(0.8944 0.4472 0)
(0.8944 0.4472 0)
(0.8944 0.4472 0)
(0.8944 0.4472 0)
(0.8944 0.4472 0)
(0.8944 0.4472 0)
(0.8944 0.4472 0)
(0.8944 0.4472 0)
(0.8944 0.4472 0)
(0.894401 0.447198 0)
(0.894401 0.447198 0)
(0.8944 0.447198 0)
(0.8944 0.447198 0)
(0.8944 0.447197 0)
(0.8944 0.447197 0)
(0.8944 0.447197 0)
(0.8944 0.447197 0)
(0.8944 0.447197 0)
(0.8944 0.447197 0)
(0.894399 0.447198 0)
(0.894399 0.447198 0)
(0.894399 0.447198 0)
(0.894399 0.447199 0)
(0.894399 0.447199 0)
(0.894399 0.4472 0)
(0.894399 0.447201 0)
(0.894399 0.447201 0)
(0.894399 0.447202 0)
(0.894399 0.447202 0)
(0.894399 0.447202 0)
(0.8944 0.447203 0)
(0.8944 0.447203 0)
(0.8944 0.447203 0)
(0.8944 0.447203 0)
(0.8944 0.447203 0)
(0.8944 0.447203 0)
(0.8944 0.447202 0)
(0.8944 0.447202 0)
(0.894401 0.447202 0)
(0.894401 0.447202 0)
(0.894401 0.447201 0)
(0.8944 0.447201 0)
(0.8944 0.447201 0)
(0.8944 0.447201 0)
(0.8944 0.447201 0)
(0.8944 0.4472 0)
(0.8944 0.4472 0)
(0.8944 0.4472 0)
(0.8944 0.4472 0)
(0.8944 0.4472 0)
(0.8944 0.4472 0)
(0.8944 0.4472 0)
(0.8944 0.4472 0)
(0.8944 0.4472 0)
(0.8944 0.4472 0)
(0.8944 0.4472 0)
(0.8944 0.4472 0)
(0.8944 0.4472 0)
(0.8944 0.4472 0)
(0.8944 0.4472 0)
(0.8944 0.4472 0)
(0.8944 0.4472 0)
(0.8944 0.4472 0)
(0.8944 0.4472 0)
(0.8944 0.4472 0)
(0.8944 0.4472 0)
(0.8944 0.4472 0)
(0.8944 0.4472 0)
(0.8944 0.4472 0)
(0.8944 0.4472 0)
(0.8944 0.4472 0)
(0.8944 0.4472 0)
(0.8944 0.4472 0)
(0.8944 0.4472 0)
(0.8944 0.4472 0)
(0.8944 0.4472 0)
(0.8944 0.4472 0)
(0.8944 0.4472 0)
(0.8944 0.4472 0)
(0.8944 0.4472 0)
(0.8944 0.4472 0)
(0.8944 0.4472 0)
(0.8944 0.4472 0)
(0.8944 0.4472 0)
(0.894401 0.447198 0)
(0.894401 0.447197 0)
(0.894401 0.447197 0)
(0.894401 0.447196 0)
(0.894401 0.447196 0)
(0.8944 0.447196 0)
(0.8944 0.447196 0)
(0.8944 0.447196 0)
(0.8944 0.447196 0)
(0.894399 0.447196 0)
(0.894399 0.447197 0)
(0.894399 0.447197 0)
(0.894398 0.447198 0)
(0.894398 0.447198 0)
(0.894398 0.447199 0)
(0.894398 0.4472 0)
(0.894398 0.447201 0)
(0.894398 0.447202 0)
(0.894399 0.447202 0)
(0.894399 0.447203 0)
(0.894399 0.447204 0)
(0.894399 0.447204 0)
(0.8944 0.447204 0)
(0.8944 0.447204 0)
(0.8944 0.447204 0)
(0.8944 0.447204 0)
(0.894401 0.447204 0)
(0.894401 0.447204 0)
(0.894401 0.447203 0)
(0.894401 0.447203 0)
(0.894401 0.447202 0)
(0.894401 0.447202 0)
(0.894401 0.447202 0)
(0.894401 0.447201 0)
(0.894401 0.447201 0)
(0.8944 0.447201 0)
(0.8944 0.447201 0)
(0.8944 0.4472 0)
(0.8944 0.4472 0)
(0.8944 0.4472 0)
(0.8944 0.4472 0)
(0.8944 0.4472 0)
(0.8944 0.4472 0)
(0.8944 0.4472 0)
(0.8944 0.4472 0)
(0.8944 0.4472 0)
(0.8944 0.4472 0)
(0.8944 0.4472 0)
(0.8944 0.4472 0)
(0.8944 0.4472 0)
(0.8944 0.4472 0)
(0.8944 0.4472 0)
(0.8944 0.4472 0)
(0.8944 0.4472 0)
(0.8944 0.4472 0)
(0.8944 0.4472 0)
(0.8944 0.4472 0)
(0.8944 0.4472 0)
(0.8944 0.4472 0)
(0.8944 0.4472 0)
(0.8944 0.4472 0)
(0.8944 0.4472 0)
(0.8944 0.4472 0)
(0.8944 0.4472 0)
(0.8944 0.4472 0)
(0.8944 0.4472 0)
(0.8944 0.4472 0)
(0.8944 0.4472 0)
(0.8944 0.4472 0)
(0.8944 0.4472 0)
(0.8944 0.4472 0)
(0.8944 0.4472 0)
(0.8944 0.4472 0)
(0.8944 0.4472 0)
(0.8944 0.4472 0)
(0.894401 0.447197 0)
(0.894401 0.447196 0)
(0.894401 0.447196 0)
(0.894401 0.447195 0)
(0.894401 0.447195 0)
(0.8944 0.447195 0)
(0.8944 0.447194 0)
(0.8944 0.447194 0)
(0.894399 0.447194 0)
(0.894399 0.447195 0)
(0.894398 0.447195 0)
(0.894398 0.447196 0)
(0.894398 0.447197 0)
(0.894398 0.447198 0)
(0.894397 0.447199 0)
(0.894397 0.4472 0)
(0.894397 0.447201 0)
(0.894398 0.447202 0)
(0.894398 0.447203 0)
(0.894398 0.447204 0)
(0.894399 0.447205 0)
(0.894399 0.447205 0)
(0.894399 0.447206 0)
(0.8944 0.447206 0)
(0.8944 0.447206 0)
(0.8944 0.447206 0)
(0.894401 0.447205 0)
(0.894401 0.447205 0)
(0.894401 0.447204 0)
(0.894401 0.447204 0)
(0.894401 0.447203 0)
(0.894401 0.447203 0)
(0.894401 0.447202 0)
(0.894401 0.447202 0)
(0.894401 0.447202 0)
(0.894401 0.447201 0)
(0.894401 0.447201 0)
(0.8944 0.447201 0)
(0.8944 0.4472 0)
(0.8944 0.4472 0)
(0.8944 0.4472 0)
(0.8944 0.4472 0)
(0.8944 0.4472 0)
(0.8944 0.4472 0)
(0.8944 0.4472 0)
(0.8944 0.4472 0)
(0.8944 0.4472 0)
(0.8944 0.4472 0)
(0.8944 0.4472 0)
(0.8944 0.4472 0)
(0.8944 0.4472 0)
(0.8944 0.4472 0)
(0.8944 0.4472 0)
(0.8944 0.4472 0)
(0.8944 0.4472 0)
(0.8944 0.4472 0)
(0.8944 0.4472 0)
(0.8944 0.4472 0)
(0.8944 0.4472 0)
(0.8944 0.4472 0)
(0.8944 0.4472 0)
(0.8944 0.4472 0)
(0.8944 0.4472 0)
(0.8944 0.4472 0)
(0.8944 0.4472 0)
(0.8944 0.4472 0)
(0.8944 0.4472 0)
(0.8944 0.4472 0)
(0.8944 0.4472 0)
(0.8944 0.4472 0)
(0.8944 0.4472 0)
(0.8944 0.4472 0)
(0.8944 0.4472 0)
(0.8944 0.4472 0)
(0.8944 0.4472 0)
(0.894402 0.447196 0)
(0.894402 0.447195 0)
(0.894401 0.447194 0)
(0.894401 0.447194 0)
(0.894401 0.447193 0)
(0.894401 0.447193 0)
(0.8944 0.447192 0)
(0.8944 0.447192 0)
(0.894399 0.447193 0)
(0.894398 0.447193 0)
(0.894398 0.447194 0)
(0.894397 0.447195 0)
(0.894397 0.447196 0)
(0.894396 0.447197 0)
(0.894396 0.447199 0)
(0.894396 0.4472 0)
(0.894396 0.447202 0)
(0.894396 0.447203 0)
(0.894397 0.447205 0)
(0.894397 0.447206 0)
(0.894398 0.447207 0)
(0.894398 0.447207 0)
(0.894399 0.447208 0)
(0.8944 0.447208 0)
(0.8944 0.447208 0)
(0.894401 0.447208 0)
(0.894401 0.447207 0)
(0.894401 0.447207 0)
(0.894401 0.447206 0)
(0.894402 0.447205 0)
(0.894402 0.447204 0)
(0.894401 0.447204 0)
(0.894401 0.447203 0)
(0.894401 0.447203 0)
(0.894401 0.447202 0)
(0.894401 0.447202 0)
(0.894401 0.447201 0)
(0.894401 0.447201 0)
(0.8944 0.447201 0)
(0.8944 0.4472 0)
(0.8944 0.4472 0)
(0.8944 0.4472 0)
(0.8944 0.4472 0)
(0.8944 0.4472 0)
(0.8944 0.4472 0)
(0.8944 0.4472 0)
(0.8944 0.4472 0)
(0.8944 0.4472 0)
(0.8944 0.4472 0)
(0.8944 0.4472 0)
(0.8944 0.4472 0)
(0.8944 0.4472 0)
(0.8944 0.4472 0)
(0.8944 0.4472 0)
(0.8944 0.4472 0)
(0.8944 0.4472 0)
(0.8944 0.4472 0)
(0.8944 0.4472 0)
(0.8944 0.4472 0)
(0.8944 0.4472 0)
(0.8944 0.4472 0)
(0.8944 0.4472 0)
(0.8944 0.4472 0)
(0.8944 0.4472 0)
(0.8944 0.4472 0)
(0.8944 0.4472 0)
(0.8944 0.4472 0)
(0.8944 0.4472 0)
(0.8944 0.4472 0)
(0.8944 0.4472 0)
(0.8944 0.4472 0)
(0.8944 0.4472 0)
(0.8944 0.4472 0)
(0.8944 0.4472 0)
(0.8944 0.4472 0)
(0.894402 0.447194 0)
(0.894402 0.447193 0)
(0.894402 0.447192 0)
(0.894402 0.447191 0)
(0.894401 0.447191 0)
(0.894401 0.44719 0)
(0.8944 0.44719 0)
(0.894399 0.44719 0)
(0.894398 0.44719 0)
(0.894397 0.447191 0)
(0.894396 0.447192 0)
(0.894396 0.447193 0)
(0.894395 0.447195 0)
(0.894395 0.447197 0)
(0.894394 0.447199 0)
(0.894394 0.447201 0)
(0.894394 0.447203 0)
(0.894395 0.447205 0)
(0.894395 0.447206 0)
(0.894396 0.447208 0)
(0.894397 0.447209 0)
(0.894397 0.44721 0)
(0.894398 0.447211 0)
(0.894399 0.447211 0)
(0.8944 0.447211 0)
(0.894401 0.44721 0)
(0.894401 0.44721 0)
(0.894402 0.447209 0)
(0.894402 0.447208 0)
(0.894402 0.447207 0)
(0.894402 0.447206 0)
(0.894402 0.447205 0)
(0.894402 0.447204 0)
(0.894402 0.447203 0)
(0.894401 0.447203 0)
(0.894401 0.447202 0)
(0.894401 0.447202 0)
(0.894401 0.447201 0)
(0.894401 0.447201 0)
(0.894401 0.447201 0)
(0.8944 0.4472 0)
(0.8944 0.4472 0)
(0.8944 0.4472 0)
(0.8944 0.4472 0)
(0.8944 0.4472 0)
(0.8944 0.4472 0)
(0.8944 0.4472 0)
(0.8944 0.4472 0)
(0.8944 0.4472 0)
(0.8944 0.4472 0)
(0.8944 0.4472 0)
(0.8944 0.4472 0)
(0.8944 0.4472 0)
(0.8944 0.4472 0)
(0.8944 0.4472 0)
(0.8944 0.4472 0)
(0.8944 0.4472 0)
(0.8944 0.4472 0)
(0.8944 0.4472 0)
(0.8944 0.4472 0)
(0.8944 0.4472 0)
(0.8944 0.4472 0)
(0.8944 0.4472 0)
(0.8944 0.4472 0)
(0.8944 0.4472 0)
(0.8944 0.4472 0)
(0.8944 0.4472 0)
(0.8944 0.4472 0)
(0.8944 0.4472 0)
(0.8944 0.4472 0)
(0.8944 0.4472 0)
(0.8944 0.4472 0)
(0.8944 0.4472 0)
(0.8944 0.4472 0)
(0.8944 0.4472 0)
(0.894403 0.447192 0)
(0.894403 0.447191 0)
(0.894403 0.44719 0)
(0.894402 0.447188 0)
(0.894401 0.447187 0)
(0.8944 0.447187 0)
(0.894399 0.447186 0)
(0.894398 0.447186 0)
(0.894397 0.447187 0)
(0.894396 0.447188 0)
(0.894395 0.447189 0)
(0.894393 0.447191 0)
(0.894393 0.447193 0)
(0.894392 0.447196 0)
(0.894391 0.447198 0)
(0.894391 0.447201 0)
(0.894392 0.447204 0)
(0.894392 0.447207 0)
(0.894393 0.447209 0)
(0.894394 0.447211 0)
(0.894395 0.447213 0)
(0.894396 0.447214 0)
(0.894397 0.447214 0)
(0.894398 0.447215 0)
(0.8944 0.447215 0)
(0.894401 0.447214 0)
(0.894401 0.447213 0)
(0.894402 0.447212 0)
(0.894403 0.447211 0)
(0.894403 0.44721 0)
(0.894403 0.447208 0)
(0.894403 0.447207 0)
(0.894403 0.447206 0)
(0.894402 0.447205 0)
(0.894402 0.447204 0)
(0.894402 0.447203 0)
(0.894401 0.447202 0)
(0.894401 0.447202 0)
(0.894401 0.447201 0)
(0.894401 0.447201 0)
(0.894401 0.447201 0)
(0.8944 0.4472 0)
(0.8944 0.4472 0)
(0.8944 0.4472 0)
(0.8944 0.4472 0)
(0.8944 0.4472 0)
(0.8944 0.4472 0)
(0.8944 0.4472 0)
(0.8944 0.4472 0)
(0.8944 0.4472 0)
(0.8944 0.4472 0)
(0.8944 0.4472 0)
(0.8944 0.4472 0)
(0.8944 0.4472 0)
(0.8944 0.4472 0)
(0.8944 0.4472 0)
(0.8944 0.4472 0)
(0.8944 0.4472 0)
(0.8944 0.4472 0)
(0.8944 0.4472 0)
(0.8944 0.4472 0)
(0.8944 0.4472 0)
(0.8944 0.4472 0)
(0.8944 0.4472 0)
(0.8944 0.4472 0)
(0.8944 0.4472 0)
(0.8944 0.4472 0)
(0.8944 0.4472 0)
(0.8944 0.4472 0)
(0.8944 0.4472 0)
(0.8944 0.4472 0)
(0.8944 0.4472 0)
(0.8944 0.4472 0)
(0.8944 0.4472 0)
(0.8944 0.4472 0)
(0.894404 0.44719 0)
(0.894404 0.447188 0)
(0.894403 0.447186 0)
(0.894402 0.447185 0)
(0.894401 0.447184 0)
(0.8944 0.447183 0)
(0.894399 0.447182 0)
(0.894397 0.447182 0)
(0.894395 0.447183 0)
(0.894394 0.447184 0)
(0.894392 0.447186 0)
(0.89439 0.447188 0)
(0.894389 0.447191 0)
(0.894388 0.447195 0)
(0.894387 0.447198 0)
(0.894387 0.447202 0)
(0.894388 0.447206 0)
(0.894388 0.447209 0)
(0.894389 0.447212 0)
(0.894391 0.447215 0)
(0.894392 0.447217 0)
(0.894394 0.447219 0)
(0.894396 0.44722 0)
(0.894397 0.44722 0)
(0.894399 0.44722 0)
(0.8944 0.447219 0)
(0.894402 0.447218 0)
(0.894402 0.447216 0)
(0.894403 0.447215 0)
(0.894404 0.447213 0)
(0.894404 0.447211 0)
(0.894404 0.447209 0)
(0.894403 0.447208 0)
(0.894403 0.447206 0)
(0.894403 0.447205 0)
(0.894402 0.447204 0)
(0.894402 0.447203 0)
(0.894402 0.447202 0)
(0.894401 0.447202 0)
(0.894401 0.447201 0)
(0.894401 0.447201 0)
(0.894401 0.4472 0)
(0.8944 0.4472 0)
(0.8944 0.4472 0)
(0.8944 0.4472 0)
(0.8944 0.4472 0)
(0.8944 0.4472 0)
(0.8944 0.4472 0)
(0.8944 0.4472 0)
(0.8944 0.4472 0)
(0.8944 0.4472 0)
(0.8944 0.4472 0)
(0.8944 0.4472 0)
(0.8944 0.4472 0)
(0.8944 0.4472 0)
(0.8944 0.4472 0)
(0.8944 0.4472 0)
(0.8944 0.4472 0)
(0.8944 0.4472 0)
(0.8944 0.4472 0)
(0.8944 0.4472 0)
(0.8944 0.4472 0)
(0.8944 0.4472 0)
(0.8944 0.4472 0)
(0.8944 0.4472 0)
(0.8944 0.4472 0)
(0.8944 0.4472 0)
(0.8944 0.4472 0)
(0.8944 0.4472 0)
(0.8944 0.4472 0)
(0.8944 0.4472 0)
(0.8944 0.4472 0)
(0.8944 0.4472 0)
(0.8944 0.4472 0)
(0.8944 0.4472 0)
(0.894405 0.447187 0)
(0.894404 0.447184 0)
(0.894404 0.447182 0)
(0.894403 0.44718 0)
(0.894401 0.447179 0)
(0.8944 0.447178 0)
(0.894398 0.447177 0)
(0.894395 0.447177 0)
(0.894393 0.447178 0)
(0.89439 0.44718 0)
(0.894388 0.447182 0)
(0.894386 0.447186 0)
(0.894384 0.44719 0)
(0.894382 0.447194 0)
(0.894381 0.447199 0)
(0.894381 0.447204 0)
(0.894382 0.447209 0)
(0.894383 0.447213 0)
(0.894384 0.447217 0)
(0.894386 0.447221 0)
(0.894389 0.447224 0)
(0.894391 0.447226 0)
(0.894393 0.447226 0)
(0.894396 0.447227 0)
(0.894398 0.447226 0)
(0.8944 0.447225 0)
(0.894402 0.447224 0)
(0.894403 0.447222 0)
(0.894404 0.447219 0)
(0.894404 0.447217 0)
(0.894405 0.447215 0)
(0.894405 0.447212 0)
(0.894405 0.44721 0)
(0.894404 0.447208 0)
(0.894404 0.447206 0)
(0.894403 0.447205 0)
(0.894403 0.447204 0)
(0.894402 0.447203 0)
(0.894402 0.447202 0)
(0.894401 0.447201 0)
(0.894401 0.447201 0)
(0.894401 0.447201 0)
(0.8944 0.4472 0)
(0.8944 0.4472 0)
(0.8944 0.4472 0)
(0.8944 0.4472 0)
(0.8944 0.4472 0)
(0.8944 0.4472 0)
(0.8944 0.4472 0)
(0.8944 0.4472 0)
(0.8944 0.4472 0)
(0.8944 0.4472 0)
(0.8944 0.4472 0)
(0.8944 0.4472 0)
(0.8944 0.4472 0)
(0.8944 0.4472 0)
(0.8944 0.4472 0)
(0.8944 0.4472 0)
(0.8944 0.4472 0)
(0.8944 0.4472 0)
(0.8944 0.4472 0)
(0.8944 0.4472 0)
(0.8944 0.4472 0)
(0.8944 0.4472 0)
(0.8944 0.4472 0)
(0.8944 0.4472 0)
(0.8944 0.4472 0)
(0.8944 0.4472 0)
(0.8944 0.4472 0)
(0.8944 0.4472 0)
(0.8944 0.4472 0)
(0.8944 0.4472 0)
(0.8944 0.4472 0)
(0.8944 0.4472 0)
(0.8944 0.4472 0)
(0.894406 0.447183 0)
(0.894405 0.44718 0)
(0.894405 0.447177 0)
(0.894403 0.447174 0)
(0.894401 0.447172 0)
(0.894399 0.447171 0)
(0.894396 0.447171 0)
(0.894392 0.44717 0)
(0.894389 0.447172 0)
(0.894385 0.447175 0)
(0.894382 0.447178 0)
(0.894379 0.447183 0)
(0.894376 0.447188 0)
(0.894374 0.447194 0)
(0.894373 0.4472 0)
(0.894373 0.447207 0)
(0.894374 0.447213 0)
(0.894375 0.447219 0)
(0.894377 0.447225 0)
(0.89438 0.447229 0)
(0.894383 0.447232 0)
(0.894387 0.447235 0)
(0.89439 0.447236 0)
(0.894393 0.447236 0)
(0.894397 0.447235 0)
(0.894399 0.447234 0)
(0.894402 0.447231 0)
(0.894403 0.447229 0)
(0.894405 0.447225 0)
(0.894406 0.447222 0)
(0.894406 0.447219 0)
(0.894406 0.447216 0)
(0.894406 0.447213 0)
(0.894405 0.447211 0)
(0.894405 0.447208 0)
(0.894404 0.447206 0)
(0.894404 0.447205 0)
(0.894403 0.447203 0)
(0.894402 0.447202 0)
(0.894402 0.447202 0)
(0.894401 0.447201 0)
(0.894401 0.447201 0)
(0.894401 0.4472 0)
(0.8944 0.4472 0)
(0.8944 0.4472 0)
(0.8944 0.4472 0)
(0.8944 0.4472 0)
(0.8944 0.4472 0)
(0.8944 0.4472 0)
(0.8944 0.4472 0)
(0.8944 0.4472 0)
(0.8944 0.4472 0)
(0.8944 0.4472 0)
(0.8944 0.4472 0)
(0.8944 0.4472 0)
(0.8944 0.4472 0)
(0.8944 0.4472 0)
(0.8944 0.4472 0)
(0.8944 0.4472 0)
(0.8944 0.4472 0)
(0.8944 0.4472 0)
(0.8944 0.4472 0)
(0.8944 0.4472 0)
(0.8944 0.4472 0)
(0.8944 0.4472 0)
(0.8944 0.4472 0)
(0.8944 0.4472 0)
(0.8944 0.4472 0)
(0.8944 0.4472 0)
(0.8944 0.4472 0)
(0.8944 0.4472 0)
(0.8944 0.4472 0)
(0.8944 0.4472 0)
(0.8944 0.4472 0)
(0.8944 0.4472 0)
(0.894407 0.447178 0)
(0.894407 0.447174 0)
(0.894405 0.447171 0)
(0.894403 0.447168 0)
(0.8944 0.447165 0)
(0.894397 0.447164 0)
(0.894393 0.447164 0)
(0.894388 0.447164 0)
(0.894383 0.447166 0)
(0.894378 0.44717 0)
(0.894373 0.447175 0)
(0.894369 0.447181 0)
(0.894365 0.447188 0)
(0.894363 0.447196 0)
(0.894361 0.447204 0)
(0.894361 0.447212 0)
(0.894362 0.447221 0)
(0.894364 0.447228 0)
(0.894367 0.447235 0)
(0.894371 0.44724 0)
(0.894376 0.447244 0)
(0.89438 0.447247 0)
(0.894385 0.447248 0)
(0.89439 0.447248 0)
(0.894394 0.447247 0)
(0.894398 0.447244 0)
(0.894401 0.447241 0)
(0.894404 0.447238 0)
(0.894406 0.447233 0)
(0.894407 0.447229 0)
(0.894408 0.447225 0)
(0.894408 0.447221 0)
(0.894407 0.447217 0)
(0.894407 0.447213 0)
(0.894406 0.447211 0)
(0.894406 0.447208 0)
(0.894405 0.447206 0)
(0.894404 0.447204 0)
(0.894403 0.447203 0)
(0.894402 0.447202 0)
(0.894402 0.447201 0)
(0.894401 0.447201 0)
(0.894401 0.447201 0)
(0.894401 0.4472 0)
(0.8944 0.4472 0)
(0.8944 0.4472 0)
(0.8944 0.4472 0)
(0.8944 0.4472 0)
(0.8944 0.4472 0)
(0.8944 0.4472 0)
(0.8944 0.4472 0)
(0.8944 0.4472 0)
(0.8944 0.4472 0)
(0.8944 0.4472 0)
(0.8944 0.4472 0)
(0.8944 0.4472 0)
(0.8944 0.4472 0)
(0.8944 0.4472 0)
(0.8944 0.4472 0)
(0.8944 0.4472 0)
(0.8944 0.4472 0)
(0.8944 0.4472 0)
(0.8944 0.4472 0)
(0.8944 0.4472 0)
(0.8944 0.4472 0)
(0.8944 0.4472 0)
(0.8944 0.4472 0)
(0.8944 0.4472 0)
(0.8944 0.4472 0)
(0.8944 0.4472 0)
(0.8944 0.4472 0)
(0.8944 0.4472 0)
(0.8944 0.4472 0)
(0.8944 0.4472 0)
(0.8944 0.4472 0)
(0.894409 0.447172 0)
(0.894408 0.447168 0)
(0.894405 0.447163 0)
(0.894402 0.44716 0)
(0.894398 0.447157 0)
(0.894393 0.447155 0)
(0.894387 0.447156 0)
(0.894381 0.447156 0)
(0.894374 0.44716 0)
(0.894367 0.447165 0)
(0.89436 0.447172 0)
(0.894354 0.44718 0)
(0.894349 0.447189 0)
(0.894346 0.4472 0)
(0.894344 0.447211 0)
(0.894344 0.447222 0)
(0.894345 0.447232 0)
(0.894348 0.447242 0)
(0.894352 0.44725 0)
(0.894358 0.447256 0)
(0.894364 0.447261 0)
(0.894371 0.447264 0)
(0.894378 0.447265 0)
(0.894385 0.447265 0)
(0.894391 0.447263 0)
(0.894396 0.447259 0)
(0.8944 0.447255 0)
(0.894404 0.44725 0)
(0.894407 0.447244 0)
(0.894408 0.447238 0)
(0.894409 0.447232 0)
(0.89441 0.447227 0)
(0.894409 0.447222 0)
(0.894409 0.447217 0)
(0.894408 0.447213 0)
(0.894407 0.44721 0)
(0.894406 0.447208 0)
(0.894405 0.447205 0)
(0.894404 0.447204 0)
(0.894403 0.447202 0)
(0.894402 0.447201 0)
(0.894402 0.447201 0)
(0.894401 0.4472 0)
(0.894401 0.4472 0)
(0.8944 0.4472 0)
(0.8944 0.4472 0)
(0.8944 0.4472 0)
(0.8944 0.4472 0)
(0.8944 0.4472 0)
(0.8944 0.4472 0)
(0.8944 0.4472 0)
(0.8944 0.4472 0)
(0.8944 0.4472 0)
(0.8944 0.4472 0)
(0.8944 0.4472 0)
(0.8944 0.4472 0)
(0.8944 0.4472 0)
(0.8944 0.4472 0)
(0.8944 0.4472 0)
(0.8944 0.4472 0)
(0.8944 0.4472 0)
(0.8944 0.4472 0)
(0.8944 0.4472 0)
(0.8944 0.4472 0)
(0.8944 0.4472 0)
(0.8944 0.4472 0)
(0.8944 0.4472 0)
(0.8944 0.4472 0)
(0.8944 0.4472 0)
(0.8944 0.4472 0)
(0.8944 0.4472 0)
(0.8944 0.4472 0)
(0.8944 0.4472 0)
(0.8944 0.4472 0)
(0.8944 0.4472 0)
(0.89441 0.447166 0)
(0.894408 0.44716 0)
(0.894405 0.447155 0)
(0.8944 0.447151 0)
(0.894394 0.447148 0)
(0.894386 0.447147 0)
(0.894378 0.447147 0)
(0.894369 0.447149 0)
(0.894359 0.447154 0)
(0.894349 0.447161 0)
(0.89434 0.447171 0)
(0.894332 0.447182 0)
(0.894326 0.447195 0)
(0.894321 0.447208 0)
(0.894318 0.447223 0)
(0.894318 0.447237 0)
(0.894321 0.44725 0)
(0.894325 0.447262 0)
(0.894331 0.447272 0)
(0.894339 0.44728 0)
(0.894348 0.447285 0)
(0.894357 0.447288 0)
(0.894367 0.447288 0)
(0.894376 0.447287 0)
(0.894385 0.447284 0)
(0.894392 0.447278 0)
(0.894399 0.447272 0)
(0.894404 0.447265 0)
(0.894408 0.447257 0)
(0.89441 0.447249 0)
(0.894411 0.447242 0)
(0.894412 0.447235 0)
(0.894412 0.447228 0)
(0.894411 0.447222 0)
(0.89441 0.447217 0)
(0.894409 0.447213 0)
(0.894407 0.447209 0)
(0.894406 0.447207 0)
(0.894405 0.447205 0)
(0.894404 0.447203 0)
(0.894403 0.447202 0)
(0.894402 0.447201 0)
(0.894401 0.4472 0)
(0.894401 0.4472 0)
(0.894401 0.4472 0)
(0.8944 0.4472 0)
(0.8944 0.4472 0)
(0.8944 0.4472 0)
(0.8944 0.4472 0)
(0.8944 0.4472 0)
(0.8944 0.4472 0)
(0.8944 0.4472 0)
(0.8944 0.4472 0)
(0.8944 0.4472 0)
(0.8944 0.4472 0)
(0.8944 0.4472 0)
(0.8944 0.4472 0)
(0.8944 0.4472 0)
(0.8944 0.4472 0)
(0.8944 0.4472 0)
(0.8944 0.4472 0)
(0.8944 0.4472 0)
(0.8944 0.4472 0)
(0.8944 0.4472 0)
(0.8944 0.4472 0)
(0.8944 0.4472 0)
(0.8944 0.4472 0)
(0.8944 0.4472 0)
(0.8944 0.4472 0)
(0.8944 0.4472 0)
(0.8944 0.4472 0)
(0.8944 0.4472 0)
(0.8944 0.4472 0)
(0.8944 0.4472 0)
(0.8944 0.4472 0)
(0.894411 0.447158 0)
(0.894407 0.447152 0)
(0.894402 0.447146 0)
(0.894396 0.447142 0)
(0.894387 0.447139 0)
(0.894376 0.447138 0)
(0.894364 0.447139 0)
(0.894351 0.447144 0)
(0.894337 0.447151 0)
(0.894324 0.447161 0)
(0.894311 0.447174 0)
(0.8943 0.44719 0)
(0.894291 0.447207 0)
(0.894285 0.447225 0)
(0.894282 0.447243 0)
(0.894282 0.447261 0)
(0.894286 0.447278 0)
(0.894292 0.447292 0)
(0.8943 0.447304 0)
(0.894311 0.447314 0)
(0.894324 0.447319 0)
(0.894337 0.447322 0)
(0.89435 0.447321 0)
(0.894363 0.447318 0)
(0.894375 0.447312 0)
(0.894386 0.447304 0)
(0.894395 0.447295 0)
(0.894402 0.447285 0)
(0.894408 0.447275 0)
(0.894411 0.447264 0)
(0.894414 0.447254 0)
(0.894414 0.447245 0)
(0.894414 0.447236 0)
(0.894414 0.447228 0)
(0.894412 0.447222 0)
(0.894411 0.447216 0)
(0.894409 0.447212 0)
(0.894408 0.447208 0)
(0.894406 0.447205 0)
(0.894405 0.447203 0)
(0.894403 0.447202 0)
(0.894402 0.447201 0)
(0.894402 0.4472 0)
(0.894401 0.4472 0)
(0.894401 0.4472 0)
(0.8944 0.4472 0)
(0.8944 0.4472 0)
(0.8944 0.4472 0)
(0.8944 0.4472 0)
(0.8944 0.4472 0)
(0.8944 0.4472 0)
(0.8944 0.4472 0)
(0.8944 0.4472 0)
(0.8944 0.4472 0)
(0.8944 0.4472 0)
(0.8944 0.4472 0)
(0.8944 0.4472 0)
(0.8944 0.4472 0)
(0.8944 0.4472 0)
(0.8944 0.4472 0)
(0.8944 0.4472 0)
(0.8944 0.4472 0)
(0.8944 0.4472 0)
(0.8944 0.4472 0)
(0.8944 0.4472 0)
(0.8944 0.4472 0)
(0.8944 0.4472 0)
(0.8944 0.4472 0)
(0.8944 0.4472 0)
(0.8944 0.4472 0)
(0.8944 0.4472 0)
(0.8944 0.4472 0)
(0.8944 0.4472 0)
(0.8944 0.4472 0)
(0.8944 0.4472 0)
(0.89441 0.44715 0)
(0.894404 0.447143 0)
(0.894397 0.447137 0)
(0.894387 0.447132 0)
(0.894374 0.447129 0)
(0.894358 0.44713 0)
(0.894341 0.447134 0)
(0.894322 0.447141 0)
(0.894304 0.447152 0)
(0.894286 0.447167 0)
(0.894268 0.447185 0)
(0.894253 0.447207 0)
(0.894241 0.44723 0)
(0.894233 0.447254 0)
(0.894229 0.447277 0)
(0.89423 0.4473 0)
(0.894235 0.447321 0)
(0.894244 0.447339 0)
(0.894256 0.447353 0)
(0.894272 0.447363 0)
(0.894289 0.447369 0)
(0.894308 0.44737 0)
(0.894327 0.447367 0)
(0.894345 0.447361 0)
(0.894361 0.447352 0)
(0.894376 0.44734 0)
(0.894388 0.447327 0)
(0.894399 0.447312 0)
(0.894407 0.447298 0)
(0.894412 0.447283 0)
(0.894416 0.44727 0)
(0.894417 0.447257 0)
(0.894417 0.447246 0)
(0.894417 0.447236 0)
(0.894415 0.447227 0)
(0.894413 0.44722 0)
(0.894411 0.447214 0)
(0.894409 0.44721 0)
(0.894407 0.447206 0)
(0.894406 0.447204 0)
(0.894404 0.447202 0)
(0.894403 0.447201 0)
(0.894402 0.4472 0)
(0.894401 0.4472 0)
(0.894401 0.447199 0)
(0.8944 0.447199 0)
(0.8944 0.447199 0)
(0.8944 0.447199 0)
(0.8944 0.4472 0)
(0.8944 0.4472 0)
(0.8944 0.4472 0)
(0.8944 0.4472 0)
(0.8944 0.4472 0)
(0.8944 0.4472 0)
(0.8944 0.4472 0)
(0.8944 0.4472 0)
(0.8944 0.4472 0)
(0.8944 0.4472 0)
(0.8944 0.4472 0)
(0.8944 0.4472 0)
(0.8944 0.4472 0)
(0.8944 0.4472 0)
(0.8944 0.4472 0)
(0.8944 0.4472 0)
(0.8944 0.4472 0)
(0.8944 0.4472 0)
(0.8944 0.4472 0)
(0.8944 0.4472 0)
(0.8944 0.4472 0)
(0.8944 0.4472 0)
(0.8944 0.4472 0)
(0.8944 0.4472 0)
(0.8944 0.4472 0)
(0.8944 0.4472 0)
(0.8944 0.4472 0)
(0.894407 0.447142 0)
(0.894398 0.447134 0)
(0.894387 0.447128 0)
(0.894372 0.447124 0)
(0.894353 0.447123 0)
(0.894331 0.447126 0)
(0.894306 0.447133 0)
(0.89428 0.447145 0)
(0.894254 0.447162 0)
(0.894228 0.447184 0)
(0.894204 0.447209 0)
(0.894183 0.447239 0)
(0.894167 0.44727 0)
(0.894157 0.447302 0)
(0.894152 0.447333 0)
(0.894154 0.447362 0)
(0.894162 0.447388 0)
(0.894175 0.447409 0)
(0.894193 0.447425 0)
(0.894215 0.447436 0)
(0.89424 0.44744 0)
(0.894266 0.447439 0)
(0.894292 0.447433 0)
(0.894317 0.447421 0)
(0.89434 0.447407 0)
(0.894361 0.447389 0)
(0.894378 0.44737 0)
(0.894393 0.447349 0)
(0.894404 0.447329 0)
(0.894412 0.447309 0)
(0.894417 0.447291 0)
(0.89442 0.447274 0)
(0.894421 0.447258 0)
(0.89442 0.447245 0)
(0.894418 0.447234 0)
(0.894416 0.447225 0)
(0.894414 0.447218 0)
(0.894411 0.447212 0)
(0.894409 0.447208 0)
(0.894407 0.447204 0)
(0.894405 0.447202 0)
(0.894404 0.447201 0)
(0.894402 0.4472 0)
(0.894401 0.447199 0)
(0.894401 0.447199 0)
(0.8944 0.447199 0)
(0.8944 0.447199 0)
(0.8944 0.447199 0)
(0.8944 0.447199 0)
(0.8944 0.447199 0)
(0.8944 0.4472 0)
(0.8944 0.4472 0)
(0.8944 0.4472 0)
(0.8944 0.4472 0)
(0.8944 0.4472 0)
(0.8944 0.4472 0)
(0.8944 0.4472 0)
(0.8944 0.4472 0)
(0.8944 0.4472 0)
(0.8944 0.4472 0)
(0.8944 0.4472 0)
(0.8944 0.4472 0)
(0.8944 0.4472 0)
(0.8944 0.4472 0)
(0.8944 0.4472 0)
(0.8944 0.4472 0)
(0.8944 0.4472 0)
(0.8944 0.4472 0)
(0.8944 0.4472 0)
(0.8944 0.4472 0)
(0.8944 0.4472 0)
(0.8944 0.4472 0)
(0.8944 0.4472 0)
(0.8944 0.4472 0)
(0.8944 0.4472 0)
(0.894401 0.447134 0)
(0.894387 0.447126 0)
(0.89437 0.44712 0)
(0.894347 0.447118 0)
(0.894319 0.44712 0)
(0.894288 0.447127 0)
(0.894253 0.44714 0)
(0.894216 0.44716 0)
(0.894179 0.447186 0)
(0.894143 0.447217 0)
(0.89411 0.447254 0)
(0.894082 0.447294 0)
(0.89406 0.447337 0)
(0.894046 0.447379 0)
(0.894041 0.44742 0)
(0.894044 0.447457 0)
(0.894056 0.447489 0)
(0.894075 0.447515 0)
(0.894102 0.447533 0)
(0.894133 0.447543 0)
(0.894168 0.447545 0)
(0.894204 0.447539 0)
(0.894241 0.447526 0)
(0.894277 0.447507 0)
(0.894309 0.447484 0)
(0.894338 0.447458 0)
(0.894362 0.447429 0)
(0.894382 0.4474 0)
(0.894398 0.447371 0)
(0.89441 0.447344 0)
(0.894417 0.447319 0)
(0.894422 0.447296 0)
(0.894424 0.447275 0)
(0.894423 0.447258 0)
(0.894422 0.447243 0)
(0.894419 0.447232 0)
(0.894416 0.447222 0)
(0.894413 0.447215 0)
(0.894411 0.447209 0)
(0.894408 0.447205 0)
(0.894406 0.447202 0)
(0.894404 0.4472 0)
(0.894403 0.447199 0)
(0.894402 0.447199 0)
(0.894401 0.447199 0)
(0.8944 0.447199 0)
(0.8944 0.447199 0)
(0.8944 0.447199 0)
(0.8944 0.447199 0)
(0.8944 0.447199 0)
(0.8944 0.447199 0)