/*--------------------------------*- C++ -*----------------------------------*\
  =========                 |
  \\      /  F ield         | OpenFOAM: The Open Source CFD Toolbox
   \\    /   O peration     | Website:  https://openfoam.org
    \\  /    A nd           | Version:  6
     \\/     M anipulation  |
\*---------------------------------------------------------------------------*/
FoamFile
{
    version     2.0;
    format      ascii;
    class       surfaceVectorField;
    location    "1.22";
    object      rhoUf;
}
// * * * * * * * * * * * * * * * * * * * * * * * * * * * * * * * * * * * * * //

dimensions      [1 -2 -1 0 0 0 0];

internalField   nonuniform List<vector> 
11670
(
(-0.00175275 1.11326e-05 0.000940704)
(-0.00187623 0.000211627 0.000258044)
(-0.00258685 -0.000192337 0.00089444)
(-0.00185606 0.000635003 0.00124627)
(-7.71149e-17 -3.47506e-18 3.33937e-17)
(-1.50608e-16 1.0497e-17 2.57263e-17)
(-8.09727e-17 -6.94691e-19 2.04816e-17)
(-6.81625e-17 -3.4494e-18 3.73429e-17)
(-0.00199447 -0.000365073 -0.00167757)
(-0.00220138 -7.61401e-05 -0.000979464)
(-0.00294052 -0.000449343 -0.00143913)
(-0.0021305 0.000244666 -0.00219015)
(-0.000264831 -2.44764e-05 0.000133208)
(-0.00028311 -2.38057e-05 7.98387e-05)
(-0.000414902 -3.55271e-05 0.00014477)
(-0.000268941 5.71714e-06 0.000177703)
(-6.94005e-17 -2.34881e-17 -4.98878e-17)
(-7.62224e-17 -2.07286e-17 -3.50653e-17)
(-1.2908e-16 -3.59348e-17 -4.28725e-17)
(-7.82887e-17 -1.56423e-17 -6.11641e-17)
(-2.01345e-10 -2.12448e-11 -1.43912e-10)
(-1.92347e-10 -2.63247e-11 -7.78133e-11)
(-3.1915e-10 -3.40753e-11 -1.20712e-10)
(-1.80316e-10 -2.05039e-11 -1.30347e-10)
(-4.35358e-15 -5.94893e-16 1.66265e-15)
(-9.3319e-15 -7.1303e-16 2.41556e-15)
(-4.28659e-15 -6.63546e-16 5.42894e-16)
(-4.1937e-15 -3.76251e-16 2.30692e-15)
(-1.44126e-06 -4.09314e-07 1.27102e-06)
(-1.11322e-06 -2.9339e-07 5.21889e-07)
(-2.23054e-06 -9.0136e-07 7.75672e-07)
(-1.11087e-06 -3.02256e-07 9.53571e-07)
(-8.88095e-12 7.14781e-13 3.07078e-12)
(-9.66393e-12 5.30055e-13 1.73491e-12)
(-1.431e-11 9.94475e-13 2.26643e-12)
(-8.2499e-12 8.08981e-13 3.17559e-12)
(-2.81702e-13 5.62205e-14 1.70572e-13)
(-2.49281e-13 5.91907e-14 4.18489e-14)
(-4.57406e-13 4.41088e-14 1.49091e-13)
(-3.21634e-13 -1.0163e-14 2.31195e-13)
(-1.62564e-15 -1.67254e-16 1.12815e-15)
(-1.48509e-15 -2.80491e-16 5.75479e-16)
(-2.6595e-15 -1.68738e-16 9.38786e-16)
(-1.59221e-15 -8.66052e-17 1.08206e-15)
(-0.000839903 -0.000446621 0.000229628)
(-0.000150556 -0.000281563 0.000118213)
(1.80239e-05 -0.00015398 0.000307216)
(-2.42127e-05 -0.000262007 0.000528495)
(-1.09621e-17 1.74184e-17 -6.88968e-18)
(-3.01936e-18 -3.89493e-18 4.24376e-19)
(-4.92462e-18 4.47808e-19 -4.69289e-18)
(-4.01007e-18 2.82359e-20 -2.29977e-18)
(-4.94528e-18 -8.84185e-19 4.41951e-18)
(-1.24785e-17 2.20914e-17 2.79043e-18)
(-4.43057e-18 1.39066e-18 5.96744e-18)
(-6.59129e-18 4.12488e-18 5.78075e-18)
(-0.000523546 -0.000299484 -0.000380111)
(-0.00122916 -0.000551579 -0.000522301)
(-0.000358038 -0.000501406 -0.000853345)
(-0.000209069 -0.000195377 -0.000543939)
(-5.46222e-19 2.97785e-19 -2.35917e-19)
(-1.98216e-18 1.32444e-18 -9.82303e-19)
(-6.36931e-19 7.46619e-19 -6.36846e-19)
(-4.61794e-19 7.05078e-19 -3.51277e-19)
(-0.00232544 0.00122658 -0.00187154)
(-0.00099194 0.00157483 -0.000208509)
(1.5518e-05 0.00291069 -0.00237391)
(3.59254e-05 0.00205273 -0.00271564)
(-0.00248486 -0.00119597 0.00133011)
(-0.00109524 -0.00150672 -2.54857e-05)
(0.000128366 -0.00201453 0.00217069)
(9.67954e-05 -0.00233006 0.00161298)
(-2.98084e-18 -3.07282e-18 -1.94799e-18)
(-1.15595e-18 -1.23902e-18 -1.56806e-18)
(-3.27535e-19 -1.05173e-18 -1.95787e-18)
(-3.35167e-19 -8.83548e-19 -1.96087e-18)
(-1.87238e-19 7.25031e-20 1.97735e-19)
(-1.21575e-18 1.06426e-18 -1.96718e-19)
(-1.97414e-19 3.09137e-19 2.61489e-19)
(-3.23038e-19 2.77748e-19 3.54646e-19)
(-0.00207118 -0.00129278 -0.000159609)
(-0.00358669 -0.000903313 -0.000835401)
(-0.00123338 -0.00229884 -0.00195433)
(-0.000930712 -0.00125072 -0.00249149)
(-7.19082e-19 -7.35902e-19 1.93257e-19)
(-9.22302e-20 -2.26431e-19 4.52079e-19)
(1.57917e-20 -1.97389e-19 3.12968e-19)
(-5.76241e-21 -1.70149e-19 3.31178e-19)
(-0.00150081 0.000687682 -0.000641773)
(-0.00306813 0.000922587 -8.75062e-05)
(-0.000223204 0.00172703 0.00123487)
(-0.000358486 0.00220432 0.000575308)
(-0.000815192 0.000571098 -0.000353942)
(-0.000158077 0.000202917 1.09417e-05)
(-0.000108724 0.000366601 -0.000524848)
(-7.35272e-05 0.000274306 -0.000357664)
(-2.89055e-19 -2.6774e-19 -3.14421e-19)
(-8.18237e-19 -1.00761e-18 -3.62808e-19)
(-2.71746e-19 -4.48072e-19 -4.14769e-19)
(-2.00362e-19 -3.66206e-19 -2.58189e-19)
(-3.83679e-18 -3.90024e-18 4.8898e-19)
(-8.37361e-19 -8.08505e-19 7.44625e-19)
(-9.65408e-19 -1.37902e-18 7.70539e-19)
(-1.39565e-18 -1.0718e-18 2.26926e-18)
(-0.000555926 0.00040358 0.000302546)
(-0.00122651 0.000762971 0.000266783)
(-0.000267669 0.000318225 0.000391087)
(-0.000425179 0.000611381 0.0006609)
(-8.66333e-17 4.40363e-17 4.62516e-17)
(-2.13217e-16 1.3938e-16 -1.06915e-16)
(-3.95618e-17 4.8013e-17 -3.05904e-17)
(-3.46743e-17 5.11678e-17 1.37078e-17)
(-1.75321e-05 -1.1945e-05 4.96683e-05)
(-0.000313067 -0.000149872 8.47866e-05)
(7.45261e-06 -2.03563e-05 0.000120122)
(-8.52089e-07 -4.1002e-05 0.000169069)
(-3.3436e-16 1.45627e-16 -7.50031e-19)
(-7.2655e-17 2.40112e-17 1.79769e-16)
(-7.54721e-17 4.79814e-17 1.37986e-16)
(-1.14351e-16 7.54335e-17 1.59202e-16)
(-6.46831e-07 -1.33835e-06 7.70805e-06)
(-3.7836e-05 -2.0845e-05 1.65518e-05)
(2.30273e-06 -2.26341e-06 2.05006e-05)
(1.23078e-06 -6.26053e-06 2.87541e-05)
(-1.54134e-15 4.33154e-16 -3.98026e-17)
(-1.96645e-15 2.61068e-15 -1.55587e-15)
(-5.78109e-16 6.73887e-16 -2.83671e-16)
(-4.67006e-16 8.59223e-16 1.49831e-16)
(-6.37172e-15 2.40702e-15 5.58341e-16)
(-1.29574e-15 -1.20611e-16 1.05625e-15)
(-1.18634e-15 6.60576e-16 1.06849e-15)
(-1.95592e-15 6.22845e-16 1.64846e-15)
(-4.12831e-06 -1.95904e-06 -2.24155e-06)
(4.18216e-07 1.64376e-07 -9.33971e-07)
(-2.45213e-07 -1.12143e-08 -3.19965e-06)
(3.36712e-08 1.19294e-07 -1.99314e-06)
(-1.44379e-06 -6.53482e-09 2.04526e-06)
(-5.40895e-06 -2.59145e-06 2.66622e-06)
(-4.36176e-07 -9.48028e-08 1.98492e-06)
(-9.18389e-07 -7.32936e-07 3.09592e-06)
(-1.0226e-14 2.2246e-15 8.96676e-15)
(-2.57337e-14 1.85692e-14 -1.01062e-15)
(-5.29186e-15 3.20235e-15 9.35353e-15)
(-9.29963e-15 6.99112e-15 8.15178e-15)
(-1.80245e-14 1.31437e-14 -5.12464e-15)
(-2.50315e-15 1.31476e-15 6.27254e-15)
(-4.63691e-15 1.56927e-15 -1.62534e-15)
(-3.37261e-15 1.55385e-15 1.55728e-15)
(-6.98165e-15 7.42231e-15 -3.70025e-14)
(-1.01852e-13 9.46493e-14 1.10456e-15)
(-2.00891e-14 1.54312e-14 -4.8726e-14)
(-7.8424e-15 1.87271e-15 -4.1234e-14)
(-7.85181e-08 1.02119e-08 -1.52168e-07)
(-3.59404e-07 -3.75251e-07 -3.0694e-07)
(2.62271e-09 -2.0333e-08 -2.55935e-07)
(1.66118e-08 7.96654e-09 -1.88247e-07)
(-6.52511e-07 -3.33246e-07 1.31272e-07)
(-8.66188e-08 7.98003e-08 1.91483e-07)
(-1.19662e-07 2.57022e-08 2.34819e-07)
(-2.52831e-07 -1.25899e-07 4.19008e-07)
(-1.1077e-12 7.76743e-13 -7.02601e-13)
(-4.60478e-13 2.70932e-13 -5.54326e-13)
(-4.85171e-14 1.54377e-13 -8.53278e-13)
(-4.70616e-14 1.07571e-13 -7.80935e-13)
(-5.89049e-08 -2.76265e-08 -2.7731e-08)
(-6.965e-09 7.69307e-09 -2.57052e-08)
(-1.82954e-08 -4.9305e-09 -4.21087e-08)
(-1.02314e-08 1.8162e-09 -2.64515e-08)
(-1.47991e-12 8.81422e-13 5.23887e-14)
(-3.65445e-13 6.99359e-14 1.60479e-13)
(-3.40112e-13 1.19674e-13 1.05621e-13)
(-5.07668e-13 2.18256e-13 2.96471e-13)
(-8.79297e-09 -1.36808e-08 1.65226e-08)
(-4.53231e-08 -3.91615e-08 2.54224e-08)
(5.41811e-10 -1.04805e-08 2.189e-08)
(-2.00539e-09 -1.32661e-08 3.38111e-08)
(-2.60004e-12 7.95629e-13 2.45263e-12)
(-8.79529e-12 4.85063e-12 6.31262e-13)
(-2.06953e-12 1.71531e-12 1.89794e-12)
(-2.63683e-12 1.64856e-12 2.25102e-12)
(-9.44443e-09 -5.95389e-09 -2.10065e-09)
(6.6117e-11 2.13526e-09 -2.58473e-09)
(-1.58146e-09 -1.39028e-10 -4.72301e-09)
(-9.5716e-10 -2.5788e-10 -2.83546e-09)
(-8.64282e-12 4.20261e-12 -2.49234e-12)
(-1.10665e-12 8.53927e-13 2.72189e-14)
(-2.05916e-12 1.26677e-12 -2.27594e-12)
(-1.6237e-12 1.51772e-12 -1.09032e-12)
(-2.60831e-09 9.58055e-10 1.86642e-09)
(-7.00822e-09 -8.02315e-09 6.89469e-09)
(-1.53419e-09 -7.81027e-10 2.15637e-09)
(-2.14915e-09 -7.16826e-10 2.91494e-09)
(-6.10338e-12 -3.76323e-12 -5.787e-12)
(-1.6697e-11 -7.92209e-12 -5.38711e-12)
(-5.44374e-13 -4.93595e-12 -7.46737e-12)
(-7.2597e-13 -5.2725e-12 -6.32116e-12)
(-1.04318e-09 1.01743e-09 5.0594e-10)
(-9.20577e-11 4.94386e-11 1.59396e-10)
(-1.44168e-10 2.42424e-10 3.0748e-10)
(-1.70101e-10 9.55423e-11 5.88701e-10)
(-6.78816e-12 -2.28651e-12 1.93508e-12)
(-2.1518e-11 -1.15139e-11 3.45741e-12)
(-5.49623e-12 -4.61784e-12 2.70532e-12)
(-7.14586e-12 -4.48263e-12 5.54264e-12)
(-6.44146e-10 2.16202e-10 -5.45756e-10)
(-1.19642e-09 1.27519e-09 -4.69412e-10)
(-5.19805e-10 3.59285e-10 -6.246e-10)
(-3.70836e-10 3.05739e-10 -4.91418e-10)
(-5.82901e-11 -2.49457e-11 3.17358e-11)
(-1.64506e-10 -1.58348e-10 1.03716e-10)
(-2.33329e-11 -6.95022e-11 2.37327e-11)
(-2.29803e-11 -4.07911e-11 4.69127e-11)
(-2.58183e-10 -1.37278e-10 3.3484e-13)
(-6.75254e-11 1.37162e-11 -4.19189e-11)
(-9.34333e-11 -4.01327e-11 -7.49805e-11)
(-6.7759e-11 -3.61327e-11 -5.16759e-11)
(-2.41266e-10 2.52159e-10 1.13177e-10)
(-3.68879e-11 7.72707e-13 1.99984e-11)
(-4.54705e-11 5.65108e-11 7.41374e-11)
(-5.41581e-11 4.4436e-11 1.0219e-10)
(-3.44988e-11 2.53184e-11 1.38754e-11)
(-5.31421e-12 7.78152e-12 3.81377e-12)
(1.04355e-12 7.56054e-12 2.1024e-12)
(8.59517e-13 3.18785e-12 1.25194e-11)
(-8.93455e-11 -1.14987e-10 -1.10216e-10)
(-4.73813e-10 -4.74558e-10 -3.10443e-10)
(3.43434e-12 2.05703e-11 -2.84077e-10)
(1.66512e-11 -5.91828e-11 -9.73196e-11)
(-5.26833e-11 3.97178e-11 -1.06933e-11)
(-1.50264e-11 6.67359e-12 -1.32167e-11)
(-2.44378e-11 1.59465e-11 -2.14222e-11)
(-1.63252e-11 1.13007e-11 -1.56385e-11)
(-1.65241e-10 -1.2786e-10 3.23317e-10)
(-5.59888e-10 -6.42984e-10 2.00967e-10)
(-1.85764e-10 -1.81441e-10 3.61713e-10)
(-2.91443e-10 -3.44752e-10 4.91544e-10)
(-2.09991e-17 -1.69587e-17 -5.78708e-18)
(-5.14035e-18 -5.72409e-18 1.92566e-18)
(-5.3495e-18 -7.34152e-18 -5.84697e-18)
(-4.86363e-18 -8.72642e-18 -2.7863e-18)
(-0.000163262 0.00014512 7.85091e-05)
(-1.50757e-05 1.0598e-05 1.99063e-05)
(-1.5903e-05 4.40548e-05 6.94219e-05)
(-1.91772e-05 3.38619e-05 0.000112518)
(-1.40556e-17 -8.72959e-18 8.52583e-18)
(-2.77283e-17 -2.20351e-17 3.5627e-18)
(-9.18587e-18 -9.31727e-18 8.66816e-18)
(-1.24654e-17 -1.10378e-17 9.89958e-18)
(-0.000112381 5.19032e-05 -0.0001054)
(-0.000244626 0.000212311 -8.16666e-05)
(-9.46552e-05 7.21964e-05 -0.000144382)
(-6.31247e-05 5.77587e-05 -8.65064e-05)
(-8.6057e-13 -4.78911e-13 -6.97483e-13)
(-1.83809e-12 -1.24542e-12 -7.00619e-13)
(-4.2377e-13 -6.80073e-13 -9.11414e-13)
(-4.17769e-13 -7.29278e-13 -8.06178e-13)
(-9.86758e-13 -2.68859e-13 3.37498e-13)
(-2.43699e-12 -1.75448e-12 4.69838e-13)
(-7.94024e-13 -6.5659e-13 4.58302e-13)
(-9.53221e-13 -5.65681e-13 7.20156e-13)
(-4.95715e-09 2.07494e-09 -3.98244e-09)
(-7.24542e-09 9.56545e-09 -5.27133e-09)
(-4.2372e-09 3.37961e-09 -4.91642e-09)
(-2.96392e-09 3.33106e-09 -3.29219e-09)
(-7.94039e-09 7.95579e-09 2.78472e-09)
(-8.0422e-10 -5.68028e-10 1.09762e-09)
(-1.56788e-09 2.54507e-09 2.31496e-09)
(-1.91308e-09 1.28274e-09 4.27591e-09)
(-3.50317e-16 -3.83409e-16 2.7433e-16)
(-1.49227e-15 -1.08979e-15 -5.68649e-18)
(-2.75337e-16 -5.89929e-16 4.17657e-16)
(-2.67399e-16 -5.46536e-16 4.68602e-16)
(-2.18818e-06 2.8415e-06 1.75787e-06)
(-2.64169e-07 -2.51467e-07 5.28352e-07)
(-5.17458e-07 1.05423e-06 1.1589e-06)
(-6.4087e-07 4.57009e-07 2.01386e-06)
(-1.54004e-06 8.71803e-07 -1.88312e-06)
(-2.3459e-06 2.8979e-06 -1.38297e-06)
(-1.45154e-06 1.27299e-06 -2.27308e-06)
(-9.25536e-07 1.06178e-06 -1.4489e-06)
(-1.94518e-07 8.97429e-08 2.37723e-07)
(-3.00439e-07 3.5031e-07 2.05844e-07)
(-1.08223e-07 1.39252e-07 1.67517e-07)
(-1.57866e-07 1.36088e-07 2.57494e-07)
(-3.49869e-07 3.8216e-07 -1.58678e-07)
(-4.30732e-08 -1.26241e-08 -8.9787e-08)
(-9.80751e-08 7.97463e-08 -2.67126e-07)
(-7.82947e-08 1.37921e-07 -1.56116e-07)
(-1.87381e-14 -1.46711e-14 4.96986e-15)
(-4.79215e-15 -5.09494e-15 -4.90197e-16)
(-4.31583e-15 -8.8366e-15 3.31332e-15)
(-4.14647e-15 -6.94544e-15 5.32712e-15)
(-1.28965e-14 -6.46154e-15 -6.42042e-15)
(-2.54573e-14 -1.8754e-14 -3.00861e-15)
(-1.1691e-14 -9.04216e-15 -7.82152e-15)
(-9.38136e-15 -9.14707e-15 -6.83482e-15)
(-1.99092e-16 -1.64045e-16 -2.09095e-17)
(-4.15462e-17 -5.39115e-17 -3.0235e-17)
(-3.50849e-17 -7.8209e-17 -6.78103e-17)
(-3.36405e-17 -9.34285e-17 -4.76281e-17)
(-1.34365e-16 -7.82603e-17 3.21622e-17)
(-2.57084e-16 -2.18546e-16 9.99489e-17)
(-9.31171e-17 -1.07526e-16 5.93493e-17)
(-1.17556e-16 -1.01904e-16 8.97758e-17)
(-9.2114e-06 3.40927e-06 1.06674e-05)
(-1.65651e-05 2.69502e-05 1.12701e-05)
(-3.35074e-06 8.83649e-06 1.01126e-05)
(-3.79883e-06 5.55772e-06 1.31774e-05)
(-3.13182e-05 2.07526e-05 -1.09728e-05)
(-9.18002e-06 -6.41672e-06 -1.06816e-05)
(-1.3197e-05 9.69579e-06 -2.16603e-05)
(-8.99004e-06 9.67329e-06 -1.15846e-05)
(-4.71291e-08 5.86318e-08 -3.47182e-08)
(-8.57229e-09 1.10162e-08 -2.52986e-08)
(-5.75737e-09 9.86873e-09 -3.38232e-08)
(-5.64119e-09 2.57963e-08 -1.97296e-08)
(-3.99149e-14 -4.46505e-14 -3.72467e-14)
(-1.19065e-13 -1.00423e-13 -4.8271e-14)
(-1.3045e-14 -4.53598e-14 -4.70276e-14)
(-1.805e-14 -6.55227e-14 -3.1906e-14)
(-8.07792e-14 -4.48136e-14 3.84571e-14)
(-1.96089e-13 -1.55553e-13 3.03685e-14)
(-7.85795e-14 -6.94784e-14 5.71503e-14)
(-1.0289e-13 -8.06799e-14 7.77496e-14)
(-4.51853e-08 5.69493e-08 2.21205e-08)
(-9.5956e-09 -1.54555e-08 1.97412e-08)
(-1.71784e-08 1.94601e-08 2.3278e-08)
(-2.26601e-08 1.88153e-08 3.52543e-08)
(-7.86734e-17 -1.5143e-20 2.16605e-17)
(-1.8799e-16 -2.28539e-17 2.92376e-17)
(-6.90199e-17 -4.44134e-18 4.00492e-17)
(-0.00300266 -0.000324517 -0.00129065)
(-0.00199571 -0.000230758 -0.000735746)
(-0.00180039 -0.00052734 -0.00165898)
(-0.00234435 -8.24692e-05 0.00080678)
(-0.00152937 -3.16141e-06 0.000261143)
(-0.00149804 -9.28144e-05 0.000913712)
(-3.71795e-15 -6.34105e-16 3.20372e-16)
(-7.08491e-15 3.80547e-16 2.77536e-15)
(-3.4965e-15 -5.03594e-16 1.63854e-15)
(-1.2917e-16 -2.25556e-17 -4.44865e-17)
(-3.85285e-17 -2.64713e-19 -1.85379e-17)
(-5.61171e-17 -1.18135e-17 -4.63889e-17)
(-2.99025e-10 -7.94527e-12 -1.23697e-10)
(-1.33048e-10 3.8966e-12 -7.50608e-11)
(-1.74555e-10 -1.23344e-11 -1.34812e-10)
(-3.08441e-06 -1.12496e-06 1.02159e-06)
(-1.24454e-06 -1.72836e-07 7.02788e-07)
(-1.51957e-06 -6.27298e-07 1.24581e-06)
(-0.000350321 -1.51286e-05 9.77605e-05)
(-0.000178482 4.27537e-06 5.74918e-05)
(-0.000214836 -6.39495e-06 0.000123184)
(-1.2945e-11 4.56422e-13 3.16809e-12)
(-6.42138e-12 -3.3024e-13 1.40916e-12)
(-7.24482e-12 1.61064e-13 3.44512e-12)
(-3.93696e-13 4.69293e-14 1.35142e-13)
(-1.60757e-13 1.63111e-16 6.14209e-14)
(-2.29347e-13 2.55774e-14 1.44457e-13)
(-2.53985e-15 -5.11782e-17 7.67771e-16)
(-1.13438e-15 -1.01983e-16 6.02053e-16)
(-1.42002e-15 -9.48554e-17 1.01231e-15)
(-8.54392e-08 1.05792e-08 -8.47743e-09)
(-4.53061e-08 1.51117e-09 -7.6153e-09)
(-4.66021e-08 -1.75579e-09 -2.13533e-08)
(-4.50941e-08 1.56336e-09 -2.36158e-08)
(-5.12323e-08 3.0816e-10 1.35017e-08)
(-7.36947e-08 6.65691e-09 4.17038e-09)
(-4.77225e-08 3.70225e-10 8.41822e-09)
(-4.3261e-08 2.11687e-09 1.01448e-08)
(-1.6481e-10 -3.27182e-11 -1.04464e-11)
(-1.46494e-10 -2.37538e-11 -3.58654e-11)
(-1.75013e-10 -3.24415e-11 -3.74401e-11)
(-1.68123e-10 -3.06246e-11 -4.00548e-11)
(-7.52764e-17 -5.86826e-18 8.25241e-18)
(-5.62214e-17 -9.26464e-18 1.7217e-17)
(-6.96434e-17 -1.18378e-17 1.73319e-17)
(-6.8672e-17 -1.18133e-17 1.69704e-17)
(-3.05402e-16 -8.38606e-18 2.30337e-17)
(-2.76292e-16 -6.12445e-18 8.29461e-17)
(-3.22338e-16 -2.06928e-17 7.26093e-17)
(-2.95662e-16 8.74467e-19 7.57699e-17)
(-0.00051939 -4.65691e-05 -2.58217e-05)
(-0.000490654 -5.02537e-05 -0.000132492)
(-0.000607126 -6.14219e-05 -0.000124732)
(-0.000501936 -3.0186e-05 -0.000128065)
(-4.20082e-08 8.62263e-10 -8.13903e-10)
(-4.28394e-08 -5.8841e-09 1.16755e-08)
(-3.37285e-08 -7.13989e-09 8.68271e-09)
(-2.76136e-08 -5.53344e-09 8.80606e-09)
(-2.39387e-17 -5.69059e-18 -5.39962e-19)
(-2.81201e-17 -2.82593e-18 -5.13373e-18)
(-2.34428e-17 -2.60908e-18 -3.01746e-18)
(-2.04639e-17 -2.40133e-18 -5.97271e-18)
(-8.52805e-08 7.17267e-09 2.51178e-08)
(-5.48182e-08 5.28347e-09 1.93424e-08)
(-4.97562e-08 2.31177e-09 2.34944e-08)
(-1.18487e-09 1.708e-10 5.40287e-11)
(-1.0417e-09 1.16304e-10 -1.69354e-10)
(-1.20414e-09 1.6933e-10 -1.41896e-10)
(-1.15627e-09 1.84256e-10 -1.49507e-10)
(-2.8944e-12 -9.34735e-13 1.32795e-14)
(-3.02431e-12 -8.90012e-13 -2.7096e-13)
(-2.89527e-12 -8.61197e-13 -4.04979e-13)
(-2.66444e-12 -8.11038e-13 -3.2927e-13)
(-0.000889837 -4.64523e-05 2.7708e-05)
(-0.000939092 -0.000105463 -2.50065e-05)
(-0.000801479 -0.000117207 4.07009e-05)
(-0.000778602 -0.000100508 -3.54362e-05)
(-2.50558e-12 -8.67937e-13 4.27812e-13)
(-3.19448e-12 -1.18262e-12 2.12044e-13)
(-2.98007e-12 -1.10407e-12 2.53497e-13)
(-1.92736e-09 -3.97646e-10 -3.20992e-10)
(-1.79633e-09 -3.77978e-10 -4.7563e-10)
(-2.20761e-09 -4.39866e-10 -5.89957e-10)
(-2.30987e-09 -3.7542e-10 -6.00263e-10)
(-0.00107311 6.17275e-06 8.00957e-05)
(-0.000961284 2.76736e-05 -1.59166e-05)
(-0.000839406 1.11266e-05 7.38423e-05)
(-1.29556e-09 2.04377e-10 2.55379e-10)
(-1.20693e-09 1.71994e-10 2.57086e-10)
(-1.22405e-09 1.79893e-10 2.48976e-10)
(-5.77912e-08 9.85752e-09 -1.37939e-08)
(-4.62568e-08 8.30249e-09 -8.68619e-09)
(-3.62444e-08 5.97638e-09 -8.31176e-09)
(-2.68614e-16 -9.07775e-18 -3.73614e-17)
(-3.22427e-16 -8.61691e-18 -2.96589e-17)
(-3.2145e-16 -3.34436e-18 -3.08946e-17)
(-1.43277e-10 -3.31368e-11 2.12565e-11)
(-1.75173e-10 -4.38218e-11 1.61597e-11)
(-1.72413e-10 -3.85841e-11 1.53617e-11)
(-0.000439697 -3.91251e-05 7.4008e-05)
(-0.000535353 -4.85118e-05 5.09445e-05)
(-0.000570451 -6.11094e-05 7.67254e-05)
(-2.74648e-17 -1.00657e-17 3.1804e-18)
(-2.33966e-17 -8.5443e-18 -2.1891e-19)
(-1.88111e-17 -7.21087e-18 3.67311e-18)
(-7.86746e-17 -2.13474e-19 -6.51902e-18)
(-9.08975e-17 -1.70103e-18 -1.75658e-18)
(-8.65556e-17 4.75233e-18 -4.12609e-18)
(-1.37159e-09 2.1598e-10 1.05536e-10)
(-1.37332e-09 2.09498e-10 -1.31033e-10)
(-1.14697e-09 2.0559e-10 -1.36682e-10)
(-1.31498e-09 2.2325e-10 -2.12484e-10)
(-1.44291e-09 2.07675e-10 2.9623e-10)
(-1.25864e-09 1.90518e-10 3.56287e-10)
(-1.39896e-09 2.10193e-10 4.17927e-10)
(-3.8749e-12 -1.8069e-12 -4.5533e-13)
(-3.34678e-12 -1.17669e-12 -1.48844e-13)
(-3.21092e-12 -1.1441e-12 -4.33658e-13)
(-3.44004e-12 -1.73383e-12 -3.80585e-13)
(-4.17501e-12 -2.07228e-12 -3.76713e-13)
(-3.51737e-12 -1.8105e-12 -3.16053e-13)
(-4.35242e-12 -2.70498e-12 -9.66862e-13)
(-0.000729004 -4.69149e-05 1.16234e-05)
(-0.000889793 1.66163e-05 -0.000104792)
(-0.000589777 2.30462e-05 0.000155786)
(-0.000692828 1.03491e-05 4.15233e-05)
(-0.00070904 -0.000124293 9.7888e-05)
(-0.000600428 -8.7502e-05 -0.00011872)
(-0.00061953 -0.00010113 -6.19952e-06)
(-1.37584e-09 -2.78472e-10 8.82512e-11)
(-1.01406e-09 -9.89447e-11 4.60337e-10)
(-1.22943e-09 -1.57747e-10 2.67033e-10)
(-1.59019e-09 -1.35317e-10 1.58389e-10)
(-1.66853e-09 -4.54355e-10 7.5643e-11)
(-1.17726e-09 -3.43003e-10 -2.97751e-10)
(-1.34088e-09 -3.78231e-10 -9.09629e-11)
(-1.49695e-17 -4.06368e-18 -1.43811e-18)
(-1.87517e-17 -2.33932e-18 -1.58562e-18)
(-1.3166e-17 -1.63773e-18 -7.34496e-18)
(-1.50281e-17 -1.71734e-18 -4.29862e-18)
(-2.00191e-17 -7.09842e-18 -3.25056e-18)
(-9.97108e-18 -5.02085e-18 5.09369e-18)
(-1.37952e-17 -5.9653e-18 1.86987e-18)
(-3.61166e-16 1.32434e-17 2.42537e-17)
(-3.84212e-16 1.78182e-17 -1.62863e-17)
(-3.63901e-16 2.99218e-17 -2.25939e-17)
(-3.81431e-16 3.24622e-17 -3.4522e-17)
(-3.51016e-16 -3.42782e-17 5.92655e-17)
(-2.85507e-16 -1.49711e-17 6.52066e-17)
(-3.2187e-16 -3.77268e-17 4.85431e-17)
(-9.76148e-17 4.98303e-18 3.61283e-18)
(-1.09663e-16 7.24012e-18 1.60154e-18)
(-9.57779e-17 1.00964e-17 -4.86477e-18)
(-1.03049e-16 1.42678e-17 -6.05692e-18)
(-8.59745e-17 -6.67173e-18 1.11076e-17)
(-7.95144e-17 -4.97664e-18 1.18843e-17)
(-8.60619e-17 2.2851e-18 6.53623e-18)
(-2.02084e-08 -1.53994e-10 -3.47028e-10)
(-2.4266e-08 -6.64508e-09 3.24383e-09)
(-1.15183e-08 -4.63813e-09 9.15754e-09)
(-1.57538e-08 -4.22078e-09 4.02588e-09)
(-3.23879e-08 5.19837e-09 -4.20331e-09)
(-1.50117e-08 3.97021e-09 -9.55469e-09)
(-2.04798e-08 4.25452e-09 -5.24867e-09)
(-2.28543e-10 -5.56706e-11 -2.8265e-11)
(-2.14441e-10 -5.90299e-11 -4.27149e-11)
(-1.90839e-10 -6.3646e-11 -4.95677e-11)
(-2.12188e-10 -9.46232e-11 -5.69074e-11)
(-2.24712e-10 -4.69765e-11 4.33145e-12)
(-2.07293e-10 -3.37752e-11 2.5065e-12)
(-2.24664e-10 -3.74837e-11 8.9688e-12)
(-1.01933e-07 1.32615e-08 3.38281e-09)
(-1.05608e-07 1.44076e-08 -6.99633e-09)
(-9.46375e-18 5.94195e-20 5.07243e-18)
(-5.62147e-18 1.32049e-18 7.88758e-19)
(-1.92848e-17 3.88512e-18 3.7619e-18)
(-7.93389e-18 1.06749e-18 4.49268e-18)
(-5.17507e-18 3.94999e-18 -3.28782e-18)
(-3.63718e-18 8.38212e-19 -1.57143e-18)
(-1.81863e-17 5.12275e-18 -6.92757e-19)
(-5.64011e-18 2.29671e-18 -4.23278e-18)
(-0.00297984 0.000140869 -0.00142735)
(-0.00430881 0.000317005 -0.00100683)
(-0.00311178 -4.00796e-05 -0.000676495)
(-0.00281367 0.000767301 -0.00157349)
(-9.79787e-18 4.84723e-19 -4.04802e-18)
(-6.13138e-18 -1.02131e-18 -1.07462e-18)
(-1.84648e-17 4.68856e-18 -2.21651e-18)
(-8.33628e-18 -1.4022e-19 -4.995e-18)
(-0.00325895 0.000346133 0.00110899)
(-0.00386136 -0.000141833 0.000832142)
(-0.00326475 0.000220017 0.000379222)
(-0.00244126 -0.00030624 0.00131637)
(-7.49751e-18 1.15041e-18 4.49747e-18)
(-4.96981e-18 7.14691e-19 2.09826e-18)
(-1.66122e-17 5.20063e-18 2.90906e-18)
(-6.53378e-18 1.29316e-18 4.86096e-18)
(-8.41562e-18 1.27339e-18 -3.41345e-18)
(-5.39312e-18 1.58979e-19 -1.44653e-18)
(-1.86614e-17 1.23015e-18 -1.55375e-18)
(-7.54594e-18 7.67999e-19 -3.61905e-18)
(-8.24286e-18 -1.36125e-18 1.52327e-18)
(-5.35665e-18 5.48224e-19 1.98137e-19)
(-1.72374e-17 5.9989e-19 1.37795e-18)
(-7.17591e-18 2.8472e-19 3.49558e-18)
(-0.00248977 0.000369607 -0.00102703)
(-0.0041824 0.000454933 -0.000752333)
(-0.00243382 8.28757e-05 -0.000433812)
(-0.00228484 0.000919798 -0.00129784)
(-0.00251043 -4.06457e-05 0.000842913)
(-0.00393694 -0.000314942 0.000826641)
(-0.00246306 7.76626e-05 0.000490682)
(-0.00208671 -0.0004688 0.00120873)
(-0.00306141 -0.000146078 0.00148908)
(-0.00398214 0.000184632 0.00088736)
(-0.003049 -2.85094e-05 0.000833929)
(-0.00309582 0.00066998 0.00170233)
(-0.0032468 -0.000204418 -0.00151819)
(-0.00389487 -0.000493407 -0.00123289)
(-0.00334038 1.27521e-05 -0.000525733)
(-0.00233082 -0.000918926 -0.00181817)
(-0.00191172 -0.000270899 0.000581888)
(-0.00194857 -0.000138702 0.000275065)
(-0.00284887 4.14142e-05 0.000230339)
(-0.00167571 0.000115006 0.00069239)
(-0.00277529 5.83906e-05 -0.000744883)
(-0.0024831 0.000113752 -0.000326059)
(-0.00335754 0.000257693 -0.000627203)
(-0.00212373 -8.34392e-05 -0.000956237)
(-2.43191e-16 2.01174e-17 -1.5274e-16)
(-4.06693e-16 1.41547e-19 -5.24404e-17)
(-1.62101e-16 1.17563e-17 -6.61944e-17)
(-1.87855e-16 3.03577e-18 -1.23604e-16)
(-1.59877e-16 -3.55489e-17 6.49695e-17)
(-3.5596e-16 -1.2894e-17 6.58169e-17)
(-1.32082e-16 3.41098e-18 2.257e-17)
(-1.40853e-16 -1.84405e-17 7.0819e-17)
(-0.00247288 0.000107903 0.000905764)
(-0.00333645 -9.98213e-05 0.000477392)
(-0.00241378 -0.000121476 0.00036897)
(-0.00214107 0.000230642 0.000873989)
(-2.34558e-16 -1.05197e-17 -1.05427e-16)
(-4.98351e-16 -7.33765e-17 -8.98374e-17)
(-1.585e-16 2.55227e-17 -8.2309e-18)
(-1.97732e-16 2.38302e-20 -1.12681e-16)
(-2.03513e-16 4.71144e-18 1.84327e-16)
(-4.84461e-16 -7.90543e-17 5.03713e-17)
(-1.55224e-16 1.18163e-17 1.09274e-16)
(-1.76602e-16 -4.36761e-18 1.50563e-16)
(-1.53567e-16 -3.6913e-17 -6.017e-17)
(-1.08694e-16 -2.77079e-17 -2.08253e-17)
(-2.02596e-16 -4.45161e-17 -2.1308e-17)
(-1.15694e-16 -3.53187e-17 -5.57532e-17)
(-0.00187518 -5.66367e-05 -0.000375322)
(-0.00268946 -0.000239653 -0.000246142)
(-0.00179811 -0.000159234 -0.000308709)
(-0.00161329 4.88638e-05 -0.000506184)
(-0.0010427 0.000269278 8.31213e-06)
(-0.000670599 0.000222926 2.31185e-05)
(-0.00124252 0.000230891 0.00011606)
(-0.000658197 0.000223573 0.000232821)
(-0.00026026 5.56804e-06 -7.08353e-05)
(-0.000165521 1.57998e-05 -5.92592e-05)
(-0.000348224 -1.1413e-05 -0.000114925)
(-0.000196048 8.72656e-06 -9.15333e-05)
(-4.52689e-13 -1.03919e-13 -2.01186e-13)
(-5.8461e-13 -1.84625e-13 -1.14377e-13)
(-3.15356e-13 -7.81328e-14 -6.09108e-14)
(-3.30607e-13 -9.43239e-14 -1.73228e-13)
(-5.78882e-05 1.05808e-05 -1.81638e-05)
(-4.06916e-05 7.68547e-06 -4.45001e-06)
(-6.72907e-05 1.37002e-05 -1.29408e-05)
(-4.02925e-05 8.66856e-06 -1.77513e-05)
(-0.000973278 -0.000162867 0.000156264)
(-0.00146948 -0.000226369 0.000123459)
(-0.000879423 -0.000149667 9.11496e-05)
(-0.000709668 -8.88573e-05 0.000260051)
(-2.77189e-15 5.05945e-17 -1.17249e-15)
(-3.35185e-15 6.03471e-16 -1.74153e-15)
(-6.45064e-15 4.38284e-16 6.3332e-16)
(-3.03404e-15 4.08911e-16 -1.9469e-15)
(-2.49734e-15 -2.69674e-16 5.65956e-16)
(-4.20882e-15 -1.25676e-15 4.27753e-16)
(-1.16641e-15 -1.06033e-16 3.69063e-16)
(-1.77847e-15 -3.91448e-16 7.22266e-16)
(-8.57554e-14 7.05986e-16 6.5399e-14)
(-1.04463e-13 -2.76551e-14 3.33602e-14)
(-5.70485e-14 -9.48881e-16 2.68463e-14)
(-5.71901e-14 1.07718e-16 4.22752e-14)
(-1.29073e-13 7.90951e-15 -5.7268e-15)
(-4.61998e-14 2.10772e-15 -9.67486e-15)
(-5.78045e-14 6.60417e-15 -1.28116e-14)
(-5.03813e-14 2.65498e-15 -1.97574e-14)
(-0.000542541 8.56592e-05 -0.000189054)
(-0.000430896 6.35553e-05 -5.80767e-05)
(-0.000692491 8.08354e-05 -5.8227e-05)
(-0.000409041 6.30282e-05 -0.000183144)
(-3.7022e-14 -9.79689e-15 2.51109e-15)
(-3.89396e-14 -8.90031e-15 3.35465e-15)
(-2.36159e-14 -9.83946e-15 1.50408e-15)
(-2.54402e-14 -8.89915e-15 5.89065e-15)
(-2.28353e-13 -4.36131e-14 1.22902e-13)
(-4.84068e-13 -1.33534e-13 5.69281e-14)
(-2.18707e-13 -2.84986e-14 8.03204e-14)
(-2.04872e-13 -4.32623e-14 1.31097e-13)
(-0.00021853 -1.83585e-05 -4.60414e-05)
(-0.000131792 7.00375e-06 -3.31008e-05)
(-0.000345748 -3.87203e-05 -9.12469e-05)
(-0.000155741 -1.39205e-05 -7.84402e-05)
(-3.88693e-14 -5.14933e-15 5.8373e-15)
(-2.89563e-14 -7.83036e-16 7.78468e-15)
(-6.41152e-14 -1.16217e-14 9.38033e-15)
(-2.55375e-14 -2.86753e-15 9.28536e-15)
(-4.48285e-14 4.67667e-16 -2.42838e-14)
(-9.34585e-14 -2.613e-14 -8.54342e-15)
(-4.35481e-14 2.96645e-15 -1.26356e-14)
(-4.36991e-14 -4.91053e-15 -2.64058e-14)
(-2.13111e-05 -8.32958e-07 1.19923e-05)
(-3.98434e-05 -5.30717e-06 7.46147e-06)
(-1.77641e-05 -2.14366e-06 5.4253e-06)
(-1.63632e-05 -1.31066e-06 1.2592e-05)
(-8.03959e-06 1.11819e-06 1.9128e-06)
(-9.29951e-06 2.17276e-08 3.28338e-06)
(-3.56101e-06 1.02166e-06 -4.66739e-07)
(-4.07313e-06 9.24051e-07 2.80396e-06)
(-1.05398e-05 1.79964e-06 -4.34476e-06)
(-6.44527e-06 1.31226e-06 -1.342e-06)
(-1.13179e-05 2.72308e-06 -1.94373e-06)
(-6.8984e-06 1.77303e-06 -3.30209e-06)
(-1.68044e-12 -2.83788e-13 -6.00765e-13)
(-2.10933e-12 -5.13189e-13 -7.85393e-13)
(-8.68393e-13 -3.20265e-13 -3.09486e-13)
(-1.138e-12 -3.06442e-13 -6.46662e-13)
(-1.41639e-12 -6.42856e-14 7.23921e-13)
(-1.82643e-12 -2.84805e-13 4.72463e-13)
(-1.02081e-12 -7.83595e-14 2.8802e-13)
(-1.02919e-12 -6.81203e-14 5.88791e-13)
(-2.0822e-06 -1.19244e-07 -9.45757e-07)
(-4.01854e-06 -2.67198e-07 -7.40677e-07)
(-1.80925e-06 -1.87573e-08 -4.82185e-07)
(-1.47812e-06 2.30112e-08 -1.10368e-06)
(-5.88764e-13 -7.19776e-14 2.86631e-13)
(-7.51857e-13 -1.71959e-13 1.71316e-13)
(-4.17549e-13 -6.12766e-14 1.06419e-13)
(-4.23784e-13 -5.89705e-14 2.27461e-13)
(-0.000392614 -1.71078e-05 0.000180374)
(-0.000359007 -1.45176e-05 9.25587e-05)
(-0.00061403 1.24413e-05 0.000130848)
(-0.000306141 -6.75303e-06 0.000188811)
(-5.87642e-05 -1.14455e-05 -2.77127e-05)
(-9.42777e-05 -3.47966e-06 -3.61701e-05)
(-5.69192e-05 -1.32769e-05 -8.28934e-06)
(-4.2855e-05 -9.10081e-06 -3.17766e-05)
(-0.000196024 -1.22243e-05 -0.000108843)
(-0.000337696 -3.15948e-05 -7.93768e-05)
(-0.000192079 -1.0789e-05 -6.22416e-05)
(-0.000161111 -1.284e-05 -0.000118561)
(-3.13848e-14 -4.96817e-15 -4.16551e-15)
(-1.55075e-14 -5.09671e-15 -5.22397e-15)
(-1.45375e-14 -3.48717e-15 -7.45103e-15)
(-1.42635e-14 -3.55786e-15 -9.20862e-15)
(-8.42656e-16 -1.33974e-16 -3.44843e-16)
(-1.88756e-15 -2.94412e-16 -1.01393e-16)
(-7.92151e-16 -2.07526e-17 -2.70885e-16)
(-7.46777e-16 -8.41214e-17 -3.86259e-16)
(-5.37773e-09 3.30366e-10 -2.6599e-09)
(-3.74991e-09 4.84001e-10 -1.21349e-09)
(-9.08813e-09 7.13738e-10 -1.24747e-09)
(-4.07222e-09 5.55685e-10 -2.49476e-09)
(-4.29063e-09 -9.61267e-11 1.08726e-09)
(-3.42757e-09 -1.2085e-10 2.9713e-10)
(-8.27548e-09 1.5846e-10 8.54963e-10)
(-3.52647e-09 -1.15894e-10 1.58239e-09)
(-8.00108e-13 -5.90561e-14 -4.34929e-13)
(-1.68747e-12 -2.48971e-13 -1.13259e-13)
(-7.93938e-13 -1.84613e-14 -2.4426e-13)
(-7.77971e-13 -8.36535e-14 -4.57517e-13)
(-4.27779e-06 -3.58084e-07 1.87814e-06)
(-4.05175e-06 -1.72982e-07 1.03018e-06)
(-8.98931e-06 1.1592e-06 9.70576e-07)
(-3.76499e-06 -1.32795e-07 2.21999e-06)
(-3.06469e-13 -9.66295e-15 -1.79656e-13)
(-6.84035e-13 -1.31886e-13 -6.57462e-14)
(-3.13012e-13 -6.53718e-15 -1.10917e-13)
(-3.07334e-13 -3.55901e-14 -2.06208e-13)
(-5.06359e-09 1.17714e-09 3.03952e-10)
(-1.68179e-09 9.53611e-10 -9.81494e-10)
(-5.86972e-09 -3.04472e-11 2.77188e-09)
(-2.22674e-09 5.94744e-10 8.18395e-10)
(-3.04283e-09 2.98842e-10 8.59551e-10)
(-1.158e-09 5.39841e-10 -1.10652e-09)
(-5.13187e-09 -1.98693e-10 2.65015e-09)
(-1.61578e-09 1.46946e-10 1.33911e-09)
(-5.49234e-11 -7.81012e-12 1.38529e-11)
(-5.85078e-11 -9.58103e-12 2.47173e-11)
(-5.84511e-11 -9.00352e-12 3.48532e-11)
(-3.30742e-10 -4.45056e-11 -1.47294e-10)
(-1.86955e-10 -7.02649e-11 -8.66917e-11)
(-4.65799e-10 4.43489e-12 -1.73783e-10)
(-2.41592e-10 -3.96116e-11 -1.77484e-10)
(-1.44406e-10 -3.91727e-11 -3.95654e-11)
(-4.40385e-10 4.17102e-11 -1.27658e-10)
(-2.39446e-10 1.68319e-11 -6.60506e-11)
(-1.85985e-10 1.44285e-11 -9.68034e-11)
(-6.88734e-11 -8.79103e-12 -1.1788e-11)
(-8.9782e-11 -7.95755e-12 -2.46453e-11)
(-7.8175e-11 -9.55198e-12 -3.29921e-11)
(-5.24508e-09 -2.32026e-09 -1.63992e-09)
(-1.72987e-08 -2.96441e-09 -3.40294e-10)