/*--------------------------------*- C++ -*----------------------------------*\
  =========                 |
  \\      /  F ield         | OpenFOAM: The Open Source CFD Toolbox
   \\    /   O peration     | Website:  https://openfoam.org
    \\  /    A nd           | Version:  6
     \\/     M anipulation  |
\*---------------------------------------------------------------------------*/
FoamFile
{
    version     2.0;
    format      ascii;
    class       volScalarField;
    location    "4.34";
    object      p;
}
// * * * * * * * * * * * * * * * * * * * * * * * * * * * * * * * * * * * * * //

dimensions      [1 -1 -2 0 0 0 0];

internalField   nonuniform List<scalar> 
5625
(
0.999994
0.999995
0.999999
1.00001
1.00002
1.00004
1.00008
1.00013
1.00019
1.00027
1.00038
1.00051
1.00066
1.00083
1.00103
1.00125
1.00148
1.00173
1.00199
1.00226
1.00252
1.00278
1.00302
1.00324
1.00343
1.00359
1.00372
1.00381
1.00385
1.00386
1.00382
1.00374
1.00363
1.00348
1.0033
1.00309
1.00287
1.00263
1.00239
1.00214
1.0019
1.00167
1.00145
1.00124
1.00105
1.00089
1.00074
1.0006
1.00049
1.0004
1.00032
1.00025
1.00019
1.00015
1.00011
1.00008
1.00006
1.00004
1.00003
1.00002
1.00001
1.00001
1
1
0.999999
0.999998
0.999998
0.999997
0.999998
0.999998
0.999998
0.999998
0.999999
0.999999
0.999999
1
1.00001
1.00002
1.00003
1.00006
1.0001
1.00015
1.00023
1.00032
1.00045
1.0006
1.00078
1.001
1.00124
1.00152
1.00182
1.00215
1.00249
1.00284
1.0032
1.00355
1.00388
1.0042
1.00449
1.00474
1.00495
1.00511
1.00523
1.00528
1.00529
1.00523
1.00513
1.00497
1.00477
1.00452
1.00425
1.00394
1.00362
1.00329
1.00295
1.00262
1.0023
1.00199
1.00171
1.00145
1.00122
1.00101
1.00083
1.00067
1.00054
1.00043
1.00033
1.00026
1.0002
1.00015
1.00011
1.00008
1.00006
1.00004
1.00002
1.00001
1.00001
1
1
0.999998
0.999997
0.999997
0.999997
0.999997
0.999997
0.999998
0.999998
0.999998
0.999999
0.999999
1.00001
1.00002
1.00004
1.00007
1.00012
1.00018
1.00026
1.00037
1.00052
1.0007
1.00091
1.00117
1.00147
1.00181
1.00219
1.0026
1.00304
1.0035
1.00397
1.00444
1.0049
1.00534
1.00575
1.00612
1.00644
1.00671
1.00692
1.00706
1.00713
1.00713
1.00706
1.00691
1.00671
1.00644
1.00612
1.00576
1.00535
1.00493
1.00448
1.00403
1.00358
1.00315
1.00273
1.00235
1.00199
1.00167
1.00138
1.00113
1.00092
1.00073
1.00058
1.00045
1.00035
1.00026
1.0002
1.00014
1.0001
1.00007
1.00005
1.00003
1.00002
1.00001
1
1
0.999997
0.999996
0.999995
0.999995
0.999996
0.999996
0.999997
0.999997
0.999998
0.999998
0.999999
1.00003
1.00005
1.00008
1.00013
1.0002
1.00029
1.00042
1.00058
1.00079
1.00104
1.00135
1.00171
1.00212
1.00258
1.00309
1.00364
1.00422
1.00482
1.00543
1.00604
1.00664
1.0072
1.00772
1.00819
1.0086
1.00893
1.00919
1.00936
1.00945
1.00945
1.00935
1.00917
1.00891
1.00857
1.00816
1.00769
1.00717
1.00661
1.00603
1.00544
1.00485
1.00427
1.00371
1.00319
1.00271
1.00228
1.00189
1.00154
1.00125
1.001
1.00079
1.00061
1.00047
1.00036
1.00026
1.00019
1.00014
1.0001
1.00006
1.00004
1.00002
1.00001
1
0.999999
0.999996
0.999995
0.999994
0.999994
0.999994
0.999995
0.999996
0.999996
0.999997
0.999998
0.999998
1.00006
1.0001
1.00015
1.00022
1.00032
1.00046
1.00064
1.00087
1.00116
1.00152
1.00194
1.00243
1.00298
1.0036
1.00428
1.005
1.00575
1.00653
1.00731
1.00808
1.00883
1.00953
1.01018
1.01076
1.01126
1.01167
1.01198
1.01219
1.01229
1.01229
1.01217
1.01195
1.01163
1.01121
1.0107
1.01011
1.00946
1.00875
1.00801
1.00725
1.00648
1.00573
1.005
1.00431
1.00367
1.00308
1.00256
1.0021
1.0017
1.00136
1.00107
1.00083
1.00064
1.00048
1.00036
1.00026
1.00019
1.00013
1.00009
1.00005
1.00003
1.00002
1.00001
0.999999
0.999995
0.999993
0.999992
0.999992
0.999993
0.999994
0.999995
0.999995
0.999996
0.999997
0.999998
1.0001
1.00016
1.00023
1.00034
1.00049
1.00069
1.00095
1.00127
1.00168
1.00216
1.00273
1.00338
1.00412
1.00493
1.0058
1.00673
1.00769
1.00867
1.00965
1.0106
1.01152
1.01237
1.01315
1.01385
1.01444
1.01493
1.0153
1.01555
1.01567
1.01566
1.01553
1.01527
1.01489
1.01438
1.01377
1.01306
1.01227
1.0114
1.01048
1.00952
1.00855
1.00759
1.00665
1.00575
1.00491
1.00414
1.00345
1.00283
1.0023
1.00184
1.00145
1.00113
1.00087
1.00065
1.00049
1.00035
1.00025
1.00017
1.00012
1.00007
1.00004
1.00002
1.00001
1
0.999994
0.999991
0.99999
0.99999
0.999991
0.999992
0.999993
0.999994
0.999995
0.999996
0.999997
1.00017
1.00024
1.00036
1.00052
1.00073
1.00101
1.00137
1.00181
1.00236
1.00301
1.00376
1.00462
1.00558
1.00662
1.00773
1.0089
1.01009
1.0113
1.01249
1.01363
1.01472
1.01573
1.01664
1.01744
1.01813
1.01868
1.0191
1.01938
1.01952
1.01951
1.01936
1.01907
1.01864
1.01807
1.01737
1.01654
1.01561
1.01458
1.01347
1.01231
1.01111
1.00991
1.00873
1.00759
1.00651
1.00551
1.00461
1.0038
1.00309
1.00248
1.00196
1.00153
1.00117
1.00089
1.00066
1.00048
1.00034
1.00024
1.00016
1.0001
1.00006
1.00003
1.00001
1
0.999994
0.99999
0.999988
0.999988
0.999989
0.99999
0.999991
0.999993
0.999994
0.999995
0.999996
1.00025
1.00037
1.00053
1.00075
1.00105
1.00144
1.00193
1.00253
1.00326
1.00411
1.0051
1.0062
1.00742
1.00873
1.01012
1.01155
1.01299
1.01443
1.01583
1.01716
1.01841
1.01955
1.02056
1.02145
1.02219
1.02279
1.02324
1.02355
1.0237
1.02369
1.02354
1.02323
1.02277
1.02216
1.02139
1.02048
1.01943
1.01826
1.01698
1.01562
1.01419
1.01274
1.01129
1.00987
1.00852
1.00725
1.00609
1.00504
1.00411
1.00331
1.00263
1.00205
1.00158
1.0012
1.00089
1.00065
1.00047
1.00033
1.00022
1.00014
1.00009
1.00005
1.00002
1.00001
0.999994
0.999989
0.999986
0.999985
0.999986
0.999987
0.999989
0.999991
0.999993
0.999994
0.999995
1.00037
1.00053
1.00076
1.00107
1.00148
1.00201
1.00266
1.00346
1.00442
1.00552
1.00678
1.00818
1.0097
1.01131
1.01299
1.01469
1.01639
1.01804
1.01962
1.0211
1.02246
1.02368
1.02476
1.02568
1.02644
1.02705
1.0275
1.0278
1.02795
1.02796
1.02781
1.02751
1.02705
1.02644
1.02566
1.02472
1.02361
1.02235
1.02094
1.01941
1.01778
1.01609
1.01436
1.01265
1.01099
1.00941
1.00795
1.00661
1.00543
1.00439
1.00349
1.00274
1.00212
1.00161
1.0012
1.00088
1.00063
1.00044
1.0003
1.0002
1.00012
1.00007
1.00003
1.00001
0.999996
0.999988
0.999984
0.999982
0.999983
0.999985
0.999987
0.999989
0.999991
0.999993
0.999994
1.00053
1.00076
1.00108
1.0015
1.00205
1.00275
1.00362
1.00466
1.00589
1.0073
1.00888
1.0106
1.01245
1.01437
1.01634
1.01829
1.0202
1.02202
1.02373
1.02529
1.02668
1.02791
1.02896
1.02984
1.03056
1.03112
1.03153
1.0318
1.03193
1.03194
1.03181
1.03155
1.03115
1.03059
1.02987
1.02898
1.0279
1.02664
1.02519
1.02356
1.02179
1.0199
1.01793
1.01593
1.01395
1.01204
1.01024
1.00857
1.00707
1.00575
1.0046
1.00363
1.00281
1.00215
1.00161
1.00119
1.00086
1.00061
1.00042
1.00028
1.00017
1.0001
1.00005
1.00002
1
0.999988
0.999982
0.99998
0.99998
0.999981
0.999984
0.999986
0.999989
0.999991
0.999993
1.00074
1.00106
1.00149
1.00206
1.0028
1.00371
1.00484
1.00617
1.00772
1.00948
1.01141
1.01349
1.01567
1.01789
1.02011
1.02226
1.0243
1.0262
1.02792
1.02944
1.03076
1.03188
1.0328
1.03355
1.03413
1.03457
1.03489
1.03509
1.03519
1.0352
1.03511
1.03492
1.03462
1.03419
1.03362
1.03288
1.03194
1.0308
1.02944
1.02784
1.02604
1.02404
1.0219
1.01967
1.01739
1.01515
1.01299
1.01096
1.00911
1.00745
1.006
1.00475
1.00371
1.00284
1.00214
1.00159
1.00115
1.00082
1.00057
1.00038
1.00024
1.00015
1.00008
1.00004
1.00001
0.99999
0.999981
0.999977
0.999977
0.999978
0.99998
0.999983
0.999986
0.999989
0.999991
1.00103
1.00146
1.00203
1.00279
1.00375
1.00493
1.00636
1.00804
1.00997
1.0121
1.01441
1.01683
1.01931
1.02177
1.02416
1.0264
1.02846
1.03029
1.03188
1.03322
1.03431
1.03519
1.03586
1.03636
1.03672
1.03697
1.03713
1.03722
1.03726
1.03726
1.03722
1.03714
1.03699
1.03676
1.03643
1.03595
1.0353
1.03443
1.03331
1.03191
1.03024
1.0283
1.02611
1.02374
1.02125
1.01871
1.01621
1.01381
1.01157
1.00953
1.00773
1.00616
1.00483
1.00373
1.00283
1.00211
1.00154
1.0011
1.00077
1.00052
1.00034
1.00021
1.00012
1.00006
1.00002
0.999995
0.999982
0.999975
0.999973
0.999974
0.999977
0.99998
0.999983
0.999987
0.999989
1.0014
1.00197
1.00273
1.00371
1.00495
1.00645
1.00825
1.01032
1.01264
1.01517
1.01783
1.02056
1.02326
1.02586
1.02827
1.03045
1.03234
1.03392
1.0352
1.03619
1.03691
1.0374
1.0377
1.03785
1.0379
1.03789
1.03784
1.03778
1.03775
1.03773
1.03775
1.03779
1.03784
1.03787
1.03785
1.03774
1.03749
1.03704
1.03634
1.03535
1.03401
1.03232
1.03029
1.02795
1.02537
1.02263
1.01984
1.01709
1.01446
1.01202
1.00982
1.00789
1.00623
1.00484
1.00369
1.00277
1.00203
1.00146
1.00103
1.0007
1.00046
1.00029
1.00017
1.00009
1.00004
1
0.999984
0.999974
0.999971
0.999971
0.999973
0.999976
0.99998
0.999984
0.999987
1.00188
1.00263
1.00362
1.00487
1.00644
1.00832
1.01052
1.01301
1.01575
1.01864
1.02161
1.02454
1.02733
1.02989
1.03214
1.03404
1.03556
1.0367
1.03748
1.03795
1.03815
1.03813
1.03796
1.03769
1.03738
1.03706
1.03677
1.03655
1.03641
1.03638
1.03645
1.03662
1.03687
1.03719
1.03754
1.03786
1.03811
1.03821
1.03809
1.03768
1.0369
1.0357
1.03406
1.03198
1.02951
1.02675
1.02379
1.02076
1.01777
1.01493
1.01232
1.00998
1.00794
1.00621
1.00477
1.0036
1.00266
1.00193
1.00137
1.00094
1.00063
1.00041
1.00025
1.00014
1.00006
1.00002
0.99999
0.999975
0.999968
0.999967
0.999969
0.999972
0.999976
0.999981
0.999985
1.00249
1.00346
1.00472
1.00631
1.00826
1.01056
1.01321
1.01613
1.01924
1.02243
1.02558
1.02855
1.03124
1.03354
1.0354
1.03679
1.03773
1.03823
1.03836
1.03818
1.03776
1.03717
1.03648
1.03575
1.03504
1.0344
1.03387
1.03347
1.03323
1.03317
1.03329
1.03358
1.03404
1.03464
1.03535
1.03613
1.03691
1.03763
1.03819
1.03851
1.03848
1.038
1.037
1.03545
1.03336
1.03079
1.02785
1.02468
1.02143
1.01823
1.0152
1.01244
1.00999
1.00787
1.00609
1.00462
1.00344
1.00252
1.0018
1.00125
1.00085
1.00055
1.00034
1.0002
1.0001
1.00004
1
0.999978
0.999968
0.999964
0.999965
0.999968
0.999973
0.999977
0.999982
1.00325
1.0045
1.00609
1.00807
1.01044
1.0132
1.01629
1.01961
1.02302
1.02638
1.02952
1.03232
1.03464
1.03644
1.03767
1.03835
1.03852
1.03825
1.03762
1.03673
1.03565
1.03447
1.03326
1.03209
1.03102
1.03008
1.02932
1.02876
1.02843
1.02833
1.02848
1.02887
1.0295
1.03034
1.03138
1.03257
1.03387
1.03519
1.03646
1.03758
1.03841
1.03882
1.0387
1.03794
1.03652
1.03443
1.03177
1.02867
1.0253
1.02184
1.01845
1.01527
1.01238
1.00985
1.00768
1.00588
1.00441
1.00325
1.00234
1.00164
1.00113
1.00074
1.00047
1.00028
1.00015
1.00007
1.00002
0.999985
0.999968
0.999962
0.999961
0.999964
0.999969
0.999974
0.999979
1.00421
1.00577
1.00775
1.01016
1.01301
1.01623
1.01973
1.02335
1.02691
1.03023
1.03313
1.03548
1.0372
1.03824
1.03864
1.03844
1.03774
1.03663
1.03522
1.03362
1.03192
1.0302
1.02853
1.02698
1.0256
1.02442
1.02347
1.02278
1.02237
1.02224
1.0224
1.02286
1.02361
1.02465
1.02594
1.02747
1.02919
1.03105
1.03296
1.03484
1.03655
1.03793
1.03883
1.03909
1.0386
1.0373
1.03521
1.03246
1.0292
1.02564
1.02199
1.01844
1.01512
1.01215
1.00957
1.00738
1.00559
1.00414
1.00301
1.00213
1.00148
1.00099
1.00064
1.00039
1.00022
1.00011
1.00004
0.999996
0.999972
0.999961
0.999958
0.99996
0.999965
0.99997
0.999975
1.00537
1.00731
1.00973
1.01262
1.01595
1.0196
1.02342
1.02718
1.03068
1.0337
1.03608
1.03772
1.03858
1.03869
1.03812
1.03697
1.03538
1.03345
1.03132
1.02909
1.02686
1.02469
1.02267
1.02083
1.01921
1.01786
1.01678
1.016
1.01552
1.01537
1.01554
1.01604
1.01686
1.01801
1.01947
1.02124
1.02327
1.02553
1.02796
1.03049
1.03298
1.0353
1.03725
1.03864
1.03928
1.03903
1.03783
1.03572
1.03285
1.02942
1.02568
1.02186
1.01818
1.01478
1.01176
1.00916
1.00699
1.00523
1.00383
1.00274
1.00191
1.0013
1.00085
1.00053
1.00031
1.00017
1.00007
1.00001
0.999979
0.999963
0.999956
0.999957
0.99996
0.999966
0.999972
1.00679
1.00915
1.01205
1.01543
1.01921
1.02321
1.02718
1.03087
1.03404
1.03647
1.03806
1.03875
1.03859
1.03766
1.03609
1.03402
1.03159
1.02895
1.02622
1.02349
1.02085
1.01836
1.01609
1.01406
1.01231
1.01085
1.0097
1.00886
1.00836
1.00818
1.00835
1.00885
1.00971
1.01091
1.01246
1.01435
1.01657
1.0191
1.02189
1.02488
1.028
1.03111
1.03402
1.03653
1.03838
1.03935
1.03929
1.03814
1.03597
1.03296
1.02935
1.02544
1.02148
1.01769
1.01424
1.01121
1.00864
1.00651
1.00481
1.00347
1.00245
1.00168
1.00112
1.00072
1.00043
1.00024
1.00012
1.00004
0.999992
0.999967
0.999956
0.999954
0.999957
0.999962
0.999968
1.00847
1.01131
1.01471
1.01857
1.02272
1.0269
1.0308
1.03414
1.03667
1.03825
1.03883
1.03843
1.03718
1.03521
1.0327
1.0298
1.02669
1.02348
1.02029
1.01721
1.0143
1.01163
1.00922
1.00711
1.00529
1.0038
1.00263
1.00178
1.00126
1.00107
1.00122
1.00171
1.00256
1.00376
1.00533
1.00726
1.00955
1.0122
1.01519
1.01848
1.02202
1.02571
1.0294
1.03288
1.03589
1.03814
1.03938
1.03943
1.03827
1.03598
1.03278
1.02899
1.02491
1.02084
1.01699
1.01353
1.01053
1.00802
1.00598
1.00435
1.0031
1.00215
1.00145
1.00094
1.00058
1.00034
1.00018
1.00007
1.00001
0.999974
0.999957
0.999952
0.999953
0.999958
0.999964
1.01044
1.01379
1.01769
1.02195
1.02632
1.03045
1.03401
1.0367
1.03833
1.03885
1.03828
1.03675
1.03444
1.03153
1.02821
1.02465
1.02101
1.0174
1.01391
1.01063
1.0076
1.00485
1.00241
1.00029
0.998497
0.997023
0.99587
0.995036
0.99452
0.994324
0.994452
0.994911
0.995712
0.996866
0.998388
1.00029
1.00257
1.00523
1.00829
1.01171
1.01548
1.01953
1.02376
1.028
1.032
1.03544
1.03801
1.03941
1.03949
1.03821
1.03573
1.03232
1.02833
1.02411
1.01996
1.0161
1.01268
1.00975
1.00733
1.00539
1.00387
1.00271
1.00185
1.00122
1.00077
1.00046
1.00025
1.00012
1.00004
0.999987
0.999962
0.999952
0.99995
0.999954
0.99996
1.01271
1.01657
1.02091
1.02545
1.02983
1.03364
1.03654
1.03831
1.03884
1.03817
1.03645
1.03385
1.03059
1.0269
1.02295
1.01891
1.01491
1.01106
1.00743
1.00408
1.00103
0.998315
0.99593
0.993879
0.992154
0.990747
0.989648
0.98885
0.988348
0.988143
0.988239
0.988645
0.989373
0.990441
0.991869
0.993675
0.995874
0.998476
1.00149
1.00492
1.00876
1.01298
1.01752
1.02226
1.02701
1.03146
1.03525
1.03802
1.03947
1.03944
1.03796
1.03523
1.03158
1.0274
1.02306
1.01887
1.01505
1.0117
1.00889
1.0066
1.00479
1.00339
1.00233
1.00156
1.001
1.00062
1.00035
1.00018
1.00007
1
0.999969
0.999953
0.999948
0.999951
0.999956
1.01527
1.01961
1.02428
1.0289
1.033
1.0362
1.03818
1.03882
1.03815
1.0363
1.03349
1.02995
1.02593
1.02163
1.01724
1.01289
1.0087
1.00475
1.00111
0.997793
0.994831
0.992223
0.989964
0.988041
0.986436
0.985131
0.984112
0.983367
0.982886
0.982669
0.982721
0.983052
0.983679
0.984625
0.985914
0.987574
0.98963
0.992102
0.995005
0.998349
1.00214
1.00638
1.01105
1.01606
1.0213
1.02649
1.03131
1.03534
1.03819
1.03954
1.03928
1.0375
1.03445
1.03055
1.0262
1.02178
1.01761
1.01386
1.01064
1.00798
1.00584
1.00417
1.00291
1.00197
1.00128
1.0008
1.00048
1.00026
1.00012
1.00003
0.999981
0.999957
0.999948
0.999948
0.999953
1.01809
1.02283
1.02765
1.03208
1.03562
1.03792
1.03878
1.03821
1.03633
1.03339
1.02965
1.02535
1.02075
1.01603
1.01136
1.00685
1.00261
0.998686
0.995128
0.99195
0.989154
0.986728
0.984655
0.98291
0.981466
0.980297
0.979381
0.9787
0.978245
0.978012
0.978007
0.978242
0.978739
0.979524
0.980629
0.98209
0.983945
0.986224
0.98895
0.99214
0.995807
0.999963
1.00461
1.00972
1.0152
1.02089
1.02648
1.03157
1.03571
1.03847
1.03958
1.03896
1.03679
1.0334
1.02924
1.02475
1.02031
1.0162
1.01258
1.00953
1.00705
1.00508
1.00357
1.00245
1.00162
1.00103
1.00063
1.00035
1.00017
1.00006
0.999999
0.999965
0.99995
0.999947
0.99995
1.0211
1.02609
1.03083
1.03479
1.03749
1.03869
1.03833
1.03654
1.03356
1.02968
1.02518
1.02031
1.0153
1.01032
1.00552
1.00099
0.996805
0.993015
0.989638
0.986679
0.984123
0.981945
0.980113
0.978593
0.977349
0.976346
0.975555
0.974954
0.97453
0.974279
0.974206
0.974324
0.97466
0.975245
0.976119
0.977328
0.978917
0.980933
0.983412
0.986381
0.989856
0.993854
0.998385
1.00345
1.00901
1.01496
1.02107
1.02697
1.03222
1.0363
1.03881
1.03952
1.03843
1.0358
1.03205
1.02766
1.02308
1.01868
1.01469
1.01125
1.0084
1.00612
1.00435
1.003
1.00202
1.0013
1.00081
1.00047
1.00025
1.00011
1.00002
0.999976
0.999954
0.999946
0.999948
1.02421
1.02924
1.03364
1.03684
1.03848
1.03847
1.03688
1.03398
1.03005
1.0254
1.02032
1.01505
1.00979
1.0047
0.999885
0.995443
0.991426
0.987859
0.984749
0.982085
0.979838
0.97797
0.976436
0.975189
0.974183
0.973377
0.972735
0.972231
0.971846
0.971577
0.971427
0.971412
0.97156
0.971909
0.972505
0.973402
0.974659
0.976336
0.978488
0.981156
0.984365
0.988135
0.992479
0.997409
1.00292
1.00895
1.01534
1.02182
1.02793
1.03318
1.03704
1.03912
1.03928
1.03763
1.03451
1.03041
1.02584
1.02124
1.01693
1.01312
1.0099
1.00728
1.00522
1.00365
1.00247
1.00162
1.00102
1.00061
1.00034
1.00016
1.00005
0.999992
0.999961
0.999948
0.999946
1.0273
1.03212
1.03588
1.0381
1.03856
1.03732
1.03461
1.03073
1.02602
1.02078
1.01529
1.00976
1.00438
0.99929
0.994582
0.990329
0.986569
0.983314
0.980552
0.978258
0.976389
0.974891
0.973708
0.972781
0.972054
0.971477
0.971009
0.970619
0.970285
0.97
0.969771
0.969613
0.969554
0.969636
0.969912
0.970444
0.971302
0.972563
0.974298
0.976569
0.979422
0.982882
0.986965
0.991684
0.997046
1.00303
1.00953
1.01635
1.0231
1.0293
1.03437
1.0378
1.03929
1.03878
1.03651
1.0329
1.0285
1.02382
1.01926
1.01511
1.01153
1.00857
1.00621
1.00438
1.003
1.002
1.00128
1.00078
1.00045
1.00023
1.00009
1.00001
0.999971
0.999952
0.999946
1.03021
1.03456
1.03745
1.03853
1.03778
1.03539
1.03168
1.02699
1.02166
1.01599
1.01022
1.00457
0.999189
0.994206
0.989704
0.985735
0.982322
0.979463
0.97713
0.975279
0.973854
0.972787
0.972006
0.971442
0.971028
0.970706
0.970429
0.970166
0.969893
0.969601
0.969294
0.968989
0.968716
0.968516
0.968445
0.968571
0.968975
0.969746
0.970976
0.972751
0.97514
0.978188
0.981919
0.986347
0.99148
0.997311
1.00379
1.01076
1.01794
1.02486
1.03096
1.03566
1.03848
1.03921
1.03795
1.03503
1.03098
1.02635
1.02163
1.0172
1.01328
1.00997
1.00729
1.00519
1.0036
1.00242
1.00157
1.00098
1.00058
1.00031
1.00014
1.00004
0.999986
0.999958
0.999948
1.0328
1.03643
1.03827
1.03817
1.03625
1.03284
1.02828
1.02294
1.01714
1.01116
1.00525
0.999581
0.994307
0.989533
0.985332
0.981738
0.978759
0.976378
0.97455
0.973213
0.972295
0.971711
0.971372
0.971198
0.971114
0.971057
0.970977
0.970841
0.97063
0.970334
0.969957
0.969515
0.969035
0.968559
0.96814
0.967847
0.967765
0.967995
0.968648
0.969835
0.971651
0.974172
0.977441
0.981479
0.986295
0.991888
0.998229
1.00522
1.01263
1.02007
1.027
1.0328
1.0369
1.03892
1.03878
1.03671
1.03318
1.02876
1.024
1.01935
1.01512
1.01148
1.00848
1.0061
1.00427
1.0029
1.00191
1.00121
1.00073
1.00041
1.0002
1.00008
1
0.999967
0.999951
1.03494
1.03765
1.03835
1.03709
1.03412
1.02982
1.02456
1.01871
1.01257
1.00641
1.00046
0.994882
0.989811
0.985342
0.981532
0.978402
0.975942
0.974118
0.972867
0.972107
0.971743
0.971672
0.971791
0.972006
0.972237
0.972421
0.972512
0.972483
0.972318
0.972017
0.971582
0.971025
0.970371
0.969652
0.968917
0.96823
0.967672
0.967351
0.967388
0.967919
0.969072
0.970955
0.973643
0.977178
0.981575
0.986834
0.992939
0.999821
1.00731
1.01508
1.02265
1.02938
1.03465
1.03793
1.03899
1.0379
1.03505
1.03098
1.0263
1.02152
1.01703
1.01308
1.00976
1.00708
1.005
1.00343
1.00229
1.00147
1.0009
1.00052
1.00027
1.00012
1.00003
0.99998
0.999957
1.03654
1.03821
1.03777
1.03543
1.03153
1.02648
1.02066
1.01442
1.00806
1.00183
0.995931
0.99054
0.985766
0.981693
0.978361
0.975778
0.973918
0.972722
0.972108
0.971966
0.972177
0.972614
0.973161
0.973714
0.974194
0.974548
0.974744
0.974769
0.974619
0.974302
0.973826
0.973197
0.972427
0.971537
0.970561
0.969551
0.96858
0.967748
0.967184
0.96704
0.967473
0.968632
0.970632
0.973546
0.97741
0.982232
0.988001
0.994667
1.0021
1.01004
1.01806
1.02554
1.03183
1.03631
1.03858
1.03857
1.03653
1.03296
1.02848
1.02366
1.01897
1.01474
1.01111
1.00814
1.00581
1.00402
1.00271
1.00176
1.0011
1.00065
1.00035
1.00017
1.00006
0.999995
0.999964
1.03758
1.03815
1.03662
1.0333
1.0286
1.02293
1.01667
1.01016
1.00367
0.997467
0.991728
0.986613
0.982224
0.978632
0.975862
0.973905
0.972714
0.972204
0.972261
0.972743
0.973499
0.974381
0.975258
0.97603
0.97663
0.977028
0.977218
0.977212
0.977029
0.976686
0.976195
0.975555
0.974763
0.973816
0.972725
0.971518
0.970251
0.969011
0.967921
0.967141
0.966854
0.967245
0.968477
0.970668
0.973887
0.978162
0.98349
0.989835
0.997097
1.00506
1.01336
1.02142
1.02858
1.03415
1.03761
1.03871
1.03759
1.03464
1.03048
1.02573
1.02092
1.01644
1.01253
1.00927
1.00667
1.00467
1.00317
1.00209
1.00132
1.0008
1.00045
1.00023
1.00009
1.00001
0.999974
1.03805
1.03754
1.035
1.03083
1.02546
1.01928
1.01269
1.00599
0.999488
0.993394
0.9879
0.983145
0.979223
0.976192
0.974061
0.9728
0.972331
0.972536
0.973257
0.974311
0.975514
0.976696
0.977727
0.978521
0.979045
0.979305
0.979336
0.97919
0.978916
0.978543
0.978084
0.977527
0.976843
0.975999
0.974968
0.973747
0.972359
0.970871
0.969391
0.968078
0.96713
0.966766
0.967197
0.968593
0.971072
0.974695
0.979477
0.985397
0.992375
1.00024
1.00866
1.01714
1.02501
1.03155
1.03612
1.03835
1.03821
1.036
1.03228
1.02769
1.02283
1.01817
1.01399
1.01046
1.00759
1.00536
1.00368
1.00244
1.00157
1.00096
1.00056
1.0003
1.00013
1.00004
0.999987
1.038
1.03647
1.03303
1.02812
1.02218
1.0156
1.00877
1.002
0.995551
0.989654
0.984483
0.980168
0.97679
0.974392
0.972967
0.972453
0.972732
0.973635
0.974952
0.976449
0.977913
0.979164
0.980086
0.980632
0.98082
0.980713
0.980405
0.979995
0.979567
0.979171
0.978817
0.978472
0.978073
0.97754
0.976799
0.975797
0.97452
0.973
0.971324
0.969641
0.968153
0.967105
0.966753
0.967326
0.968999
0.971882
0.976021
0.981415
0.988005
0.995648
1.00407
1.0128
1.02122
1.02859
1.0342
1.03753
1.0384
1.03701
1.03383
1.02951
1.02468
1.01988
1.01548
1.01168
1.00856
1.0061
1.00422
1.00283
1.00184
1.00115
1.00068
1.00037
1.00018
1.00007
1
1.03751
1.03504
1.0308
1.02525
1.01884
1.01196
1.00498
0.998207
0.991903
0.98628
0.981506
0.977701
0.974938
0.973238
0.972568
0.972824
0.973831
0.975354
0.977118
0.978841
0.980288
0.981288
0.981764
0.981728
0.98127
0.98053
0.979674
0.97886
0.978214
0.977809
0.977656
0.977694
0.977809
0.977856
0.977693
0.977204
0.976323
0.975041
0.973416
0.971577
0.969723
0.968117
0.967055
0.966824
0.967665
0.969746
0.973161
0.977938
0.984043
0.99136
0.99965
1.00851
1.01733
1.02539
1.03191
1.03629
1.03819
1.03767
1.03512
1.03116
1.02644
1.02157
1.01698
1.01294
1.00957
1.00687
1.0048
1.00325
1.00213
1.00135
1.00081
1.00046
1.00024
1.0001
1.00002
1.03665
1.03333
1.02838
1.0223
1.01551
1.00841
1.00136
0.994667
0.988574
0.983293
0.978983
0.975754
0.973664
0.972713
0.972821
0.973829
0.975486
0.977474
0.979448
0.98109
0.982158
0.982515
0.982144
0.981137
0.979674
0.97799
0.97634
0.974954
0.974013
0.97362
0.973784
0.974414
0.97533
0.976301
0.977083
0.977474
0.977338
0.97662
0.975342
0.973611
0.971618
0.969631
0.967981
0.967011
0.967031
0.96828
0.970911
0.974996
0.98053
0.987425
0.995478
1.00433
1.01342
1.02202
1.02935
1.0347
1.0376
1.03798
1.03613
1.03261
1.02808
1.0232
1.01847
1.01421
1.0106
1.00768
1.0054
1.00369
1.00245
1.00156
1.00096
1.00056
1.0003
1.00014
1.00004
1.03549
1.0314
1.02585
1.01932
1.01223
1.005
0.997956
0.9914
0.985582
0.980705
0.97692
0.974321
0.972952
0.972775
0.973652
0.975343
0.977499
0.979714
0.981581
0.982757
0.983016
0.982275
0.980596
0.978168
0.97528
0.972284
0.969539
0.967372
0.966034
0.965664
0.966276
0.967743
0.96981
0.972129
0.974324
0.976061
0.977107
0.977345
0.976764
0.975453
0.97359
0.971448
0.969381
0.967782
0.967034
0.967455
0.969268
0.972602
0.977491
0.98388
0.991601
1.00033
1.00956
1.01858
1.0266
1.03282
1.03668
1.03798
1.03687
1.03385
1.02959
1.02476
1.01993
1.01549
1.01165
1.00851
1.00603
1.00416
1.00278
1.0018
1.00112
1.00066
1.00036
1.00018
1.00007
1.03409
1.02934
1.02327
1.01636
1.00906
1.00176
0.994779
0.988426
0.98294
0.97852
0.975308
0.973385
0.972766
0.97336
0.974951
0.97719
0.979623
0.981754
0.983126
0.983392
0.982359
0.980006
0.976489
0.972114
0.967305
0.962553
0.958355
0.955153
0.953283
0.952935
0.954133
0.956712
0.960332
0.964507
0.968686
0.972355
0.975131
0.976807
0.977338
0.976802
0.975381
0.973351
0.971082
0.969011
0.967588
0.967218
0.968207
0.970751
0.974938
0.98075
0.988055
0.996568
1.00582
1.01514
1.02371
1.03072
1.03549
1.03767
1.03733
1.03487
1.03094
1.02622
1.02134
1.01674
1.01271
1.00935
1.00669
1.00464
1.00313
1.00204
1.00128
1.00077
1.00044
1.00022
1.0001
1.03254
1.02719
1.02068
1.01348
1.00603
0.998708
0.991854
0.985753
0.980648
0.97673
0.974132
0.972916
0.973052
0.974378
0.976573
0.979166
0.981588
0.983266
0.983709
0.982573
0.979705
0.975158
0.969195
0.962265
0.954961
0.947951
0.941896
0.937374
0.93482
0.934484
0.9364
0.940372
0.945971
0.952562
0.959385
0.965689
0.970874
0.974588
0.976726
0.977375
0.976738
0.975115
0.972894
0.970547
0.968585
0.967499
0.967687
0.969427
0.97287
0.978047
0.984865
0.993076
1.00225
1.01175
1.02077
1.02846
1.03406
1.03711
1.03754
1.03569
1.03213
1.02758
1.02269
1.01798
1.01376
1.01021
1.00735
1.00514
1.00349
1.0023
1.00146
1.00089
1.00051
1.00028
1.00013
1.03086
1.025
1.01812
1.01069
1.00315
0.995871
0.989189
0.983384
0.9787
0.975321
0.973367
0.972868
0.973736
0.975713
0.978353
0.98105
0.983128
0.983946
0.982986
0.97991
0.974605
0.967209
0.958119
0.947965
0.93755
0.927755
0.91943
0.913305
0.909918
0.909576
0.91233
0.917954
0.925937
0.935498
0.945655
0.955377
0.963768
0.970248
0.974602
0.976912
0.977438
0.976535
0.97463
0.97223
0.969901
0.968208
0.967649
0.968595
0.971274
0.975773
0.982044
0.98988
0.998889
1.00847
1.01783
1.0261
1.03245
1.03632
1.03753
1.03629
1.03315
1.02882
1.02397
1.01917
1.01479
1.01106
1.00802
1.00565
1.00386
1.00256
1.00165
1.00102
1.0006
1.00033
1.00016
1.02913
1.02282
1.01564
1.00804
1.00045
0.993259
0.986788
0.981315
0.977081
0.974269
0.972974
0.973181
0.974726
0.977232
0.980114
0.98263
0.983999
0.983523
0.980655
0.975058
0.966661
0.955711
0.942776
0.928713
0.914578
0.901496
0.890525
0.88255
0.878208
0.877856
0.881556
0.889052
0.899762
0.912772
0.926896
0.940804
0.953252
0.963335
0.97063
0.975173
0.97729
0.977437
0.976124
0.973907
0.971401
0.969243
0.968022
0.968209
0.970122
0.973917
0.979597
0.986998
0.995768
1.00534
1.01495
1.02369
1.03071
1.03535
1.0373
1.0367
1.03401
1.02993
1.02516
1.0203
1.0158
1.01189
1.00868
1.00615
1.00424
1.00283
1.00184
1.00115
1.00068
1.00039
1.0002
1.02737
1.02069
1.01326
1.00554
0.997946
0.990874
0.984648
0.979536
0.975773
0.973541
0.972904
0.973784
0.97592
0.978801
0.981692
0.983717
0.984
0.981781
0.976476
0.967746
0.955581
0.940365
0.922883
0.904267
0.885865
0.86907
0.855157
0.845155
0.839785
0.839443
0.844191
0.853744
0.86745
0.884279
0.902861
0.9216
0.93889
0.953428
0.964474
0.971918
0.976128
0.977689
0.977245
0.975443
0.972959
0.970494
0.96872
0.96821
0.969377
0.972458
0.977517
0.984437
0.992905
1.00239
1.01215
1.02129
1.0289
1.03424
1.03691
1.03693
1.03472
1.03092
1.02626
1.02138
1.01677
1.01271
1.00934
1.00666
1.00462
1.00311
1.00203
1.00128
1.00077
1.00045
1.00024
1.02562
1.01862
1.011
1.0032
0.995637
0.988717
0.982762
0.97803
0.974751
0.973099
0.973102
0.9746
0.977213
0.98029
0.982942
0.984161
0.982979
0.978563
0.970287
0.957819
0.941232
0.921086
0.898427
0.874709
0.851604
0.83079
0.813744
0.801623
0.795208
0.794916
0.800808
0.812573
0.829486
0.850401
0.873785
0.897809
0.920544
0.940276
0.95586
0.966926
0.973794
0.977178
0.977895
0.976735
0.974466
0.971856
0.969656
0.96853
0.968991
0.971367
0.97579
0.982194
0.990312
0.99965
1.00949
1.01893
1.02705
1.03302
1.03637
1.037
1.03527
1.03178
1.02726
1.02239
1.01769
1.0135
1.00998
1.00716
1.00499
1.00338
1.00222
1.00142
1.00087
1.00051
1.00028
1.02392
1.01664
1.00888
1.00104
0.993534
0.986781
0.981116
0.976777
0.973985
0.972901
0.973509
0.975549
0.978507
0.981588
0.983753
0.983862
0.980842
0.973786
0.962033
0.945274
0.92369
0.89805
0.869708
0.840477
0.812382
0.787375
0.767118
0.752855
0.745403
0.745194
0.752299
0.766392
0.786682
0.81189
0.840306
0.869896
0.89846
0.923917
0.944691
0.960051
0.970163
0.975809
0.977997
0.977707
0.975838
0.973242
0.970745
0.969098
0.968913
0.970608
0.974392
0.980262
0.987993
0.99713
1.00698
1.01666
1.0252
1.03175
1.03572
1.03694
1.03568
1.03251
1.02816
1.02332
1.01856
1.01426
1.0106
1.00765
1.00536
1.00365
1.00242
1.00155
1.00096
1.00057
1.00032
1.0223
1.01478
1.0069
0.999058
0.991635
0.985059
0.979694
0.975757
0.973439
0.972896
0.974062
0.976556
0.979716
0.98261
0.984054
0.982766
0.977561
0.967465
0.951799
0.930293
0.903259
0.871703
0.837332
0.802352
0.769139
0.739899
0.716434
0.700044
0.691556
0.691423
0.69975
0.716226
0.740006
0.769665
0.803284
0.838606
0.873202
0.904693
0.931106
0.951302
0.965188
0.973527
0.977498
0.978301
0.977006
0.974575
0.97191
0.969845
0.969083
0.970137
0.973298
0.978625
0.985945
0.994839
1.00464
1.01449
1.02339
1.03044
1.03498
1.03677
1.03597
1.03313
1.02896
1.02417
1.01937
1.01497
1.0112
1.00812
1.00572
1.00392
1.00261
1.00169
1.00105
1.00063
1.00036
1.02076
1.01304
1.00507
0.99726
0.989939
0.983542
0.978475
0.974939
0.973078
0.973036
0.974701
0.977551
0.980773
0.9833
0.98381
0.980875
0.973189
0.959725
0.939811
0.913238
0.880456
0.842747
0.802195
0.761412
0.723107
0.689703
0.663103
0.64463
0.635111
0.635017
0.644508
0.663322
0.690596
0.724769
0.763685
0.804823
0.845522
0.883165
0.915453
0.940848
0.958928
0.970344
0.976388
0.978489
0.977923
0.975791
0.973081
0.970703
0.969445
0.969911
0.972474
0.977263
0.984159
0.992782
1.0025
1.01245
1.02164
1.02914
1.0342
1.03651
1.03616
1.03364
1.02966
1.02495
1.02012
1.01564
1.01176
1.00857
1.00607
1.00418
1.0028
1.00182
1.00115
1.0007
1.0004
1.01934
1.01145
1.0034
0.995639
0.988443
0.98222
0.977437
0.974298
0.972871
0.973276
0.975367
0.978485
0.981634
0.98363
0.983033
0.978254
0.967859
0.950795
0.926429
0.894629
0.855995
0.812099
0.76542
0.71896
0.675735
0.63835
0.608785
0.588361
0.577875
0.577803
0.588356
0.60934
0.639926
0.678476
0.722619
0.769533
0.816282
0.860033
0.898234
0.928997
0.951546
0.966336
0.9747
0.978276
0.97857
0.976851
0.974204
0.971614
0.969943
0.969881
0.971884
0.976153
0.982622
0.990956
1.00055
1.01056
1.01999
1.02786
1.03339
1.03618
1.03625
1.03406
1.03027
1.02563
1.0208
1.01626
1.01228
1.00899
1.00639
1.00442
1.00297
1.00194
1.00123
1.00076
1.00045
1.01804
1.01002
1.00189
0.994188
0.987139
0.981084
0.976558
0.973799
0.972783
0.973573
0.976015
0.979315
0.982277
0.983609
0.981774
0.975019
0.961782
0.941
0.912122
0.875113
0.830733
0.780838
0.728289
0.676461
0.628644
0.587612
0.555403
0.533304
0.522042
0.522049
0.533546
0.556404
0.589884
0.632384
0.681411
0.733854
0.786448