/*--------------------------------*- C++ -*----------------------------------*\
  =========                 |
  \\      /  F ield         | OpenFOAM: The Open Source CFD Toolbox
   \\    /   O peration     | Website:  https://openfoam.org
    \\  /    A nd           | Version:  6
     \\/     M anipulation  |
\*---------------------------------------------------------------------------*/
FoamFile
{
    version     2.0;
    format      ascii;
    class       volVectorField;
    location    "2.35";
    object      U;
}
// * * * * * * * * * * * * * * * * * * * * * * * * * * * * * * * * * * * * * //

dimensions      [0 1 -1 0 0 0 0];

internalField   nonuniform List<vector> 
24166
(
(0.890659 0.445257 0)
(0.882592 0.456845 0)
(0.8944 0.4472 0)
(0.8944 0.4472 0)
(0.8944 0.4472 0)
(0.8944 0.447201 0)
(0.8944 0.4472 0)
(0.8944 0.4472 0)
(0.888798 0.462598 0)
(0.8944 0.4472 0)
(0.894374 0.4472 0)
(0.895445 0.447445 0)
(0.893205 0.447712 0)
(0.895897 0.448567 0)
(0.89491 0.446962 0)
(0.894386 0.447184 0)
(0.89515 0.446944 0)
(0.8944 0.447137 0)
(0.894401 0.447199 0)
(0.894406 0.447316 0)
(0.894372 0.447174 0)
(0.894402 0.4472 0)
(0.8944 0.4472 0)
(0.8944 0.4472 0)
(0.889494 0.461375 0)
(0.8944 0.4472 0)
(0.894397 0.447204 0)
(0.895473 0.460311 0)
(0.894395 0.447194 0)
(0.8944 0.4472 0)
(0.895261 0.429544 0)
(0.8944 0.4472 0)
(0.8944 0.4472 0)
(0.8944 0.4472 0)
(0.894399 0.447201 0)
(0.894292 0.393974 0)
(0.8944 0.4472 0)
(0.858333 0.390479 0)
(0.8944 0.4472 0)
(1.18175 -0.120426 0)
(0.894401 0.447128 0)
(0.8944 0.4472 0)
(0.8944 0.4472 0)
(0.894401 0.447198 0)
(0.894389 0.447153 0)
(0.8944 0.4472 0)
(0.878959 0.4539 0)
(0.888864 0.459786 0)
(0.8944 0.4472 0)
(0.850395 0.422674 0)
(0.8944 0.4472 0)
(0.894426 0.44704 0)
(0.8944 0.4472 0)
(0.894012 0.447346 0)
(0.894405 0.447204 0)
(0.832132 0.515038 0)
(0.834833 0.404158 0)
(0.8944 0.4472 0)
(0.8944 0.4472 0)
(0.894392 0.447203 0)
(1.48523 0.17866 0)
(0.894269 0.447088 0)
(0.8944 0.4472 0)
(0.8944 0.4472 0)
(0.8944 0.4472 0)
(0.8944 0.4472 0)
(0.8944 0.4472 0)
(0.879488 0.414071 0)
(0.80389 0.358386 0)
(0.8944 0.4472 0)
(0.894391 0.447206 0)
(0.894227 0.447089 0)
(0.8944 0.447201 0)
(0.8944 0.4472 0)
(0.8944 0.4472 0)
(0.894409 0.447198 0)
(0.894393 0.447219 0)
(0.860897 0.443834 0)
(0.8944 0.4472 0)
(0.894371 0.447171 0)
(0.764023 0.838417 0)
(0.8944 0.4472 0)
(0.8944 0.447201 0)
(0.622908 0.625226 0)
(0.89417 0.447391 0)
(0.8944 0.4472 0)
(0.894144 0.447386 0)
(0.8944 0.4472 0)
(0.8944 0.4472 0)
(0.894388 0.447194 0)
(0.8944 0.4472 0)
(0.8944 0.4472 0)
(0.894869 0.447098 0)
(0.894398 0.447198 0)
(0.894641 0.447059 0)
(0.894457 0.44687 0)
(0.8944 0.4472 0)
(0.893995 0.447134 0)
(0.894392 0.447162 0)
(0.894413 0.447195 0)
(0.8944 0.4472 0)
(0.8944 0.4472 0)
(0.894539 0.447129 0)
(0.8944 0.4472 0)
(0.8944 0.4472 0)
(0.8944 0.4472 0)
(0.8944 0.4472 0)
(0.89439 0.447197 0)
(0.8944 0.4472 0)
(0.894421 0.447195 0)
(0.8944 0.4472 0)
(0.8944 0.4472 0)
(0.8944 0.4472 0)
(0.928693 0.334811 0)
(1.01121 0.299361 0)
(0.89432 0.447258 0)
(0.8944 0.4472 0)
(0.8944 0.4472 0)
(0.894439 0.447175 0)
(0.8944 0.4472 0)
(0.8944 0.4472 0)
(0.8944 0.4472 0)
(0.897427 0.452235 0)
(0.8944 0.4472 0)
(0.966694 0.540191 0)
(0.893982 0.447181 0)
(0.8944 0.4472 0)
(0.8944 0.4472 0)
(0.8944 0.4472 0)
(0.8944 0.4472 0)
(0.367004 0.80705 0)
(0.894061 0.448265 0)
(0.903355 0.459281 0)
(0.907751 0.537192 0)
(0.894392 0.447205 0)
(0.89439 0.447183 0)
(0.8944 0.4472 0)
(0.752615 0.885191 0)
(0.8944 0.4472 0)
(0.8944 0.447205 0)
(0.833023 0.510776 0)
(0.8944 0.4472 0)
(0.663953 0.610584 0)
(0.8944 0.4472 0)
(0.89472 0.435305 0)
(0.894391 0.447204 0)
(0.8944 0.4472 0)
(0.894412 0.447175 0)
(0.344413 0.813126 0)
(0.8944 0.4472 0)
(0.8944 0.4472 0)
(0.8944 0.4472 0)
(0.894399 0.447199 0)
(0.894416 0.447199 0)
(0.894398 0.447199 0)
(0.8944 0.4472 0)
(0.8944 0.4472 0)
(0.8944 0.4472 0)
(0.8944 0.4472 0)
(0.894457 0.44716 0)
(0.870064 0.447342 0)
(0.897893 0.437617 0)
(0.8944 0.4472 0)
(0.894401 0.447205 0)
(0.894401 0.4472 0)
(0.8944 0.4472 0)
(0.610623 0.0293747 0)
(0.8944 0.4472 0)
(0.8944 0.4472 0)
(0.8944 0.4472 0)
(0.8944 0.4472 0)
(0.8944 0.4472 0)
(0.8944 0.4472 0)
(0.895487 0.447408 0)
(0.8944 0.4472 0)
(0.892794 0.447184 0)
(0.8944 0.4472 0)
(0.8944 0.4472 0)
(0.894079 0.447063 0)
(0.875683 0.44309 0)
(0.8944 0.4472 0)
(0.8944 0.4472 0)
(1.05162 0.528149 0)
(0.8944 0.4472 0)
(0.8944 0.4472 0)
(0.8944 0.4472 0)
(0.8944 0.4472 0)
(0.8944 0.4472 0)
(0.8944 0.447201 0)
(0.8944 0.4472 0)
(0.894398 0.447201 0)
(0.913999 0.511594 0)
(0.894398 0.447194 0)
(0.895002 0.447673 0)
(0.8944 0.447204 0)
(0.894381 0.447082 0)
(0.897775 0.444732 0)
(0.8944 0.4472 0)
(0.894423 0.449502 0)
(0.894351 0.44719 0)
(0.8944 0.447199 0)
(0.8944 0.4472 0)
(0.8944 0.4472 0)
(0.891926 0.450122 0)
(0.8944 0.4472 0)
(0.8944 0.4472 0)
(0.8944 0.4472 0)
(0.8944 0.4472 0)
(0.8944 0.4472 0)
(0.781113 0.365026 0)
(0.933763 0.537365 0)
(0.8944 0.447201 0)
(0.890944 0.448822 0)
(0.894393 0.447232 0)
(0.8944 0.4472 0)
(0.894401 0.447202 0)
(0.8944 0.4472 0)
(0.8944 0.4472 0)
(0.995322 0.376918 0)
(0.8944 0.4472 0)
(0.8944 0.4472 0)
(0.895573 0.446598 0)
(0.8944 0.4472 0)
(0.8944 0.4472 0)
(0.956526 0.554686 0)
(0.8944 0.4472 0)
(0.8944 0.4472 0)
(0.8944 0.4472 0)
(0.894351 0.44693 0)
(0.8944 0.4472 0)
(0.897084 0.445197 0)
(0.894126 0.447307 0)
(0.894575 0.447347 0)
(0.8944 0.4472 0)
(0.896745 0.402048 0)
(0.8944 0.4472 0)
(0.894455 0.447304 0)
(0.8944 0.4472 0)
(0.8944 0.4472 0)
(0.8944 0.4472 0)
(0.8944 0.4472 0)
(0.8944 0.4472 0)
(0.8944 0.4472 0)
(0.8944 0.4472 0)
(0.894503 0.447265 0)
(0.8944 0.447199 0)
(0.894348 0.447069 0)
(0.89446 0.447397 0)
(0.894077 0.446683 0)
(0.8944 0.4472 0)
(0.89428 0.447398 0)
(0.894399 0.447197 0)
(0.894404 0.447226 0)
(1.07092 0.540658 0)
(0.8944 0.4472 0)
(0.8944 0.4472 0)
(0.8944 0.4472 0)
(0.892752 0.448273 0)
(0.8944 0.4472 0)
(0.894292 0.447282 0)
(0.8944 0.4472 0)
(0.8944 0.4472 0)
(0.8944 0.4472 0)
(0.89432 0.447036 0)
(0.8944 0.447199 0)
(0.894397 0.447214 0)
(0.894393 0.447208 0)
(0.8944 0.4472 0)
(0.894399 0.447199 0)
(0.8944 0.4472 0)
(0.893979 0.447421 0)
(1.04803 0.0589023 0)
(0.8944 0.4472 0)
(0.895749 0.444287 0)
(0.8944 0.4472 0)
(0.894401 0.447205 0)
(0.8944 0.4472 0)
(1.02417 0.570621 0)
(0.8944 0.447201 0)
(0.8944 0.447199 0)
(0.88081 0.513061 0)
(0.8944 0.4472 0)
(0.881727 -0.0534838 0)
(0.8944 0.4472 0)
(0.8944 0.4472 0)
(0.8944 0.4472 0)
(0.8944 0.4472 0)
(0.8944 0.4472 0)
(0.894688 0.447792 0)
(0.8944 0.4472 0)
(1.10403 0.964836 0)
(0.8944 0.4472 0)
(0.894401 0.4472 0)
(0.8944 0.4472 0)
(0.894239 0.446528 0)
(1.25559 0.222306 0)
(0.8944 0.4472 0)
(0.8944 0.4472 0)
(0.897136 0.446048 0)
(0.8944 0.4472 0)
(0.8944 0.4472 0)
(0.894123 0.447331 0)
(0.893546 0.446973 0)
(0.8944 0.4472 0)
(0.8944 0.4472 0)
(0.8944 0.4472 0)
(0.8944 0.4472 0)
(0.894447 0.447172 0)
(0.892935 0.449216 0)
(0.8944 0.4472 0)
(0.886856 0.452239 0)
(0.894398 0.447201 0)
(0.8944 0.4472 0)
(0.972728 -0.207121 0)
(0.892457 0.444946 0)
(0.8944 0.4472 0)
(0.894351 0.447175 0)
(0.8944 0.4472 0)
(0.894354 0.447198 0)
(0.894782 0.447245 0)
(0.8944 0.4472 0)
(0.8944 0.4472 0)
(0.789248 0.467509 0)
(0.8944 0.4472 0)
(0.8944 0.4472 0)
(0.894415 0.447192 0)
(0.8944 0.4472 0)
(0.8944 0.4472 0)
(0.8944 0.4472 0)
(1.01833 0.361631 0)
(0.8944 0.4472 0)
(0.894493 0.447211 0)
(0.8944 0.4472 0)
(0.896505 0.453147 0)
(0.8944 0.4472 0)
(0.89738 0.440713 0)
(0.8944 0.4472 0)
(0.8944 0.4472 0)
(0.894409 0.447656 0)
(0.912563 0.462799 0)
(0.8944 0.4472 0)
(0.8944 0.4472 0)
(0.8944 0.4472 0)
(0.8944 0.4472 0)
(0.8944 0.447199 0)
(0.8944 0.4472 0)
(0.894401 0.447201 0)
(0.8944 0.4472 0)
(0.8944 0.4472 0)
(0.8944 0.4472 0)
(0.8944 0.4472 0)
(0.894401 0.4472 0)
(0.8944 0.4472 0)
(0.8944 0.4472 0)
(0.8944 0.4472 0)
(0.8944 0.4472 0)
(0.8944 0.4472 0)
(0.8944 0.4472 0)
(0.665653 0.116576 0)
(0.903729 0.443301 0)
(0.8944 0.4472 0)
(0.8944 0.4472 0)
(0.8944 0.4472 0)
(0.898825 0.442833 0)
(0.8944 0.4472 0)
(0.8944 0.4472 0)
(0.893773 0.450311 0)
(0.8944 0.4472 0)
(0.8944 0.4472 0)
(0.8944 0.4472 0)
(0.898644 0.454612 0)
(0.8944 0.4472 0)
(0.8944 0.4472 0)
(0.894401 0.447201 0)
(0.8944 0.4472 0)
(0.894103 0.447322 0)
(0.8944 0.4472 0)
(0.894525 0.446721 0)
(0.8944 0.4472 0)
(0.8944 0.4472 0)
(0.894396 0.447213 0)
(0.8944 0.4472 0)
(0.8944 0.4472 0)
(0.894729 0.446845 0)
(0.891178 0.457618 0)
(0.8944 0.4472 0)
(0.8944 0.4472 0)
(0.894469 0.445288 0)
(0.8944 0.4472 0)
(1.12701 0.90877 0)
(0.8944 0.4472 0)
(0.8944 0.447201 0)
(0.893829 0.454261 0)
(0.900778 0.433092 0)
(0.860446 0.313479 0)
(0.895126 0.446375 0)
(0.894398 0.447207 0)
(0.8944 0.4472 0)
(0.8944 0.4472 0)
(0.8944 0.4472 0)
(0.8944 0.4472 0)
(0.8944 0.4472 0)
(0.893642 0.452895 0)
(0.895233 0.446958 0)
(0.8944 0.4472 0)
(0.8944 0.4472 0)
(0.8944 0.4472 0)
(0.896789 0.444097 0)
(0.8944 0.4472 0)
(0.8944 0.447198 0)
(0.891769 0.443432 0)
(0.8944 0.4472 0)
(0.8944 0.4472 0)
(0.894402 0.447201 0)
(0.8944 0.4472 0)
(0.890705 0.444307 0)
(0.885387 0.462677 0)
(0.8944 0.4472 0)
(0.89439 0.447204 0)
(0.8944 0.4472 0)
(0.8944 0.4472 0)
(0.849773 0.402526 0)
(0.8944 0.4472 0)
(0.8944 0.4472 0)
(0.894399 0.447199 0)
(0.894401 0.447201 0)
(0.895397 0.447179 0)
(0.8944 0.4472 0)
(0.8944 0.4472 0)
(0.895607 0.449746 0)
(0.894364 0.447217 0)
(0.932545 0.650064 0)
(0.8944 0.4472 0)
(0.894401 0.447208 0)
(0.894399 0.447222 0)
(0.8944 0.4472 0)
(0.8944 0.4472 0)
(0.8944 0.4472 0)
(0.8944 0.4472 0)
(0.894569 0.446489 0)
(0.89448 0.447407 0)
(0.8944 0.4472 0)
(0.634702 0.117287 0)
(0.8944 0.4472 0)
(0.8944 0.4472 0)
(0.894405 0.447202 0)
(0.865744 0.39998 0)
(0.894398 0.447208 0)
(0.802969 0.409709 0)
(1.07486 0.418337 0)
(0.8944 0.4472 0)
(0.8944 0.4472 0)
(0.8944 0.4472 0)
(0.896015 0.450791 0)
(0.901732 0.462628 0)
(0.894483 0.447333 0)
(0.89343 0.447909 0)
(0.8944 0.4472 0)
(0.8944 0.4472 0)
(0.894399 0.447204 0)
(0.160681 0.385068 0)
(0.8944 0.4472 0)
(0.893849 0.445258 0)
(0.876798 0.402972 0)
(0.8944 0.4472 0)
(0.8944 0.4472 0)
(0.894399 0.447201 0)
(0.8944 0.4472 0)
(0.894527 0.447357 0)
(0.894401 0.4472 0)
(0.894391 0.447202 0)
(0.905355 0.464273 0)
(0.8944 0.4472 0)
(0.8944 0.4472 0)
(0.8944 0.4472 0)
(0.892549 0.448735 0)
(0.8944 0.4472 0)
(0.8944 0.4472 0)
(0.8944 0.4472 0)
(0.894217 0.447454 0)
(0.8944 0.447201 0)
(0.956465 0.392057 0)
(0.8944 0.4472 0)
(0.8944 0.4472 0)
(0.710731 0.200776 0)
(0.894401 0.4472 0)
(0.895118 0.446992 0)
(0.894399 0.447205 0)
(0.8944 0.4472 0)
(0.8944 0.4472 0)
(0.8944 0.4472 0)
(0.8944 0.4472 0)
(0.8944 0.4472 0)
(0.8944 0.4472 0)
(0.870619 0.450967 0)
(0.855207 0.442802 0)
(0.8944 0.4472 0)
(0.894271 0.447237 0)
(0.8944 0.4472 0)
(0.887233 0.445658 0)
(0.8944 0.4472 0)
(0.895858 0.445935 0)
(0.833459 0.398861 0)
(0.171307 0.30444 0)
(0.8944 0.4472 0)
(0.89428 0.447518 0)
(0.894389 0.447205 0)
(0.8944 0.4472 0)
(0.8944 0.4472 0)
(0.896162 0.447642 0)
(0.894396 0.447196 0)
(0.8944 0.4472 0)
(0.8944 0.4472 0)
(0.8944 0.447205 0)
(0.895367 0.4461 0)
(0.913737 0.446157 0)
(0.910784 0.470955 0)
(0.894403 0.447496 0)
(0.8944 0.4472 0)
(0.8944 0.4472 0)
(0.894401 0.447201 0)
(0.894401 0.447201 0)
(0.914521 0.441539 0)
(0.962377 0.4316 0)
(0.8944 0.4472 0)
(0.8944 0.4472 0)
(0.8944 0.4472 0)
(0.8944 0.4472 0)
(0.8944 0.4472 0)
(1.08424 0.788595 0)
(0.8944 0.4472 0)
(0.894529 0.446937 0)
(0.8944 0.4472 0)
(0.8944 0.447196 0)
(0.894404 0.447182 0)
(0.8944 0.4472 0)
(0.219463 0.523914 0)
(0.894395 0.447203 0)
(0.893991 0.447237 0)
(0.894399 0.447201 0)
(0.8944 0.4472 0)
(0.8944 0.4472 0)
(0.875397 0.448727 0)
(0.8944 0.4472 0)
(0.88962 0.445067 0)
(0.894395 0.447213 0)
(0.945494 0.418965 0)
(0.8944 0.4472 0)
(0.894568 0.447498 0)
(0.892891 0.447209 0)
(0.877157 0.441115 0)
(0.8944 0.4472 0)
(0.894474 0.447142 0)
(0.894402 0.447201 0)
(0.8944 0.4472 0)
(0.8944 0.4472 0)
(0.8944 0.4472 0)
(0.92561 0.430861 0)
(0.8944 0.4472 0)
(1.08799 0.0831344 0)
(0.478113 0.909904 0)
(0.894399 0.4472 0)
(0.8944 0.4472 0)
(0.890395 0.447328 0)
(0.8944 0.4472 0)
(0.79775 0.468675 0)
(1.06686 0.845383 0)
(0.894415 0.447208 0)
(0.8944 0.4472 0)
(0.8944 0.4472 0)
(0.8944 0.4472 0)
(0.91317 0.525817 0)
(0.894401 0.44721 0)
(0.8944 0.4472 0)
(0.894234 0.446093 0)
(0.8944 0.4472 0)
(0.894604 0.447351 0)
(0.8944 0.4472 0)
(0.894394 0.447188 0)
(0.8944 0.4472 0)
(0.894372 0.446739 0)
(0.8944 0.4472 0)
(0.8944 0.4472 0)
(0.8944 0.4472 0)
(0.894404 0.447213 0)
(0.8944 0.4472 0)
(0.8944 0.447203 0)
(0.882187 0.441991 0)
(0.892184 0.450445 0)
(0.828888 0.391253 0)
(0.8944 0.4472 0)
(0.894248 0.447291 0)
(0.8944 0.4472 0)
(0.8944 0.4472 0)
(0.908761 -0.127358 0)
(0.894402 0.447201 0)
(0.894402 0.447201 0)
(0.83627 0.377053 0)
(0.8944 0.4472 0)
(0.8944 0.4472 0)
(0.901026 0.444554 0)
(0.8944 0.4472 0)
(0.8944 0.447201 0)
(0.893695 0.447962 0)
(0.8944 0.4472 0)
(0.896935 0.445794 0)
(0.894378 0.447398 0)
(0.894391 0.447266 0)
(0.886455 0.443222 0)
(0.8944 0.4472 0)
(0.891692 0.447924 0)
(0.8944 0.4472 0)
(0.894408 0.447213 0)
(0.8944 0.4472 0)
(0.894893 0.446844 0)
(0.8944 0.4472 0)
(0.8944 0.4472 0)
(1.00133 0.394684 0)
(0.913802 0.448681 0)
(0.8944 0.4472 0)
(0.909335 0.460424 0)
(0.8944 0.4472 0)
(0.894908 0.448816 0)
(0.894401 0.447201 0)
(0.8944 0.4472 0)
(0.894399 0.4472 0)
(0.893863 0.44687 0)
(0.894399 0.4472 0)
(0.954076 0.423729 0)
(0.8944 0.4472 0)
(0.8944 0.447201 0)
(0.849447 0.518899 0)
(0.8944 0.4472 0)
(0.880627 0.445357 0)
(0.8944 0.4472 0)
(0.8944 0.447199 0)
(0.949693 0.282298 0)
(0.8944 0.4472 0)
(0.8944 0.4472 0)
(0.938121 0.544771 0)
(0.894397 0.447199 0)
(0.8944 0.4472 0)
(0.894313 0.446577 0)
(0.89418 0.447271 0)
(1.16886 0.486053 0)
(0.894399 0.447201 0)
(0.89448 0.447195 0)
(0.894202 0.447347 0)
(0.894364 0.447358 0)
(0.894404 0.44721 0)
(0.8944 0.4472 0)
(0.8944 0.4472 0)
(0.8944 0.4472 0)
(0.8944 0.4472 0)
(0.894627 0.447656 0)
(0.8944 0.447201 0)
(0.8944 0.4472 0)
(0.8944 0.4472 0)
(0.8944 0.4472 0)
(0.8944 0.447194 0)
(0.8944 0.4472 0)
(0.894547 0.446959 0)
(0.8944 0.4472 0)
(0.8944 0.4472 0)
(0.8944 0.4472 0)
(0.880796 0.450606 0)
(0.903915 0.446403 0)
(0.8944 0.4472 0)
(0.894431 0.447246 0)
(0.8944 0.4472 0)
(0.8944 0.4472 0)
(1.08358 0.318282 0)
(0.8944 0.4472 0)
(0.8944 0.4472 0)
(0.89442 0.447204 0)
(0.782861 -0.0478426 0)
(0.894395 0.447207 0)
(0.8944 0.4472 0)
(0.894494 0.447473 0)
(0.8944 0.4472 0)
(0.8944 0.4472 0)
(0.8944 0.4472 0)
(0.8944 0.4472 0)
(0.894403 0.447209 0)
(0.8944 0.4472 0)
(0.8944 0.447202 0)
(0.894399 0.4472 0)
(0.8944 0.4472 0)
(0.894441 0.447362 0)
(0.895989 0.452661 0)
(0.874697 0.459009 0)
(0.894308 0.447513 0)
(0.8944 0.4472 0)
(0.89439 0.447202 0)
(0.894401 0.4472 0)
(0.8944 0.4472 0)
(0.895965 0.448603 0)
(0.894394 0.44722 0)
(0.853322 0.421205 0)
(1.14112 0.488168 0)
(0.8944 0.4472 0)
(0.8944 0.4472 0)
(0.8944 0.4472 0)
(0.8944 0.4472 0)
(0.9034 0.446783 0)
(0.8944 0.4472 0)
(0.894431 0.447256 0)
(1.14277 0.755642 0)
(0.8944 0.4472 0)
(0.8944 0.4472 0)
(0.8944 0.4472 0)
(0.901299 0.443613 0)
(0.8944 0.447201 0)
(0.8944 0.4472 0)
(0.8944 0.4472 0)
(0.8944 0.4472 0)
(0.897281 0.44679 0)
(1.05649 0.806093 0)
(0.8944 0.4472 0)
(0.905738 0.439003 0)
(0.902699 0.442611 0)
(0.787344 0.409796 0)
(0.894403 0.447192 0)
(0.8944 0.4472 0)
(0.894073 0.447199 0)
(0.8944 0.4472 0)
(0.792184 0.448656 0)
(0.8944 0.4472 0)
(0.894392 0.447159 0)
(0.8944 0.4472 0)
(0.894388 0.447218 0)
(0.8944 0.4472 0)
(0.895036 0.446267 0)
(0.873374 0.446138 0)
(0.919395 0.451147 0)
(0.894292 0.447615 0)
(0.894264 0.447186 0)
(0.8944 0.4472 0)
(0.8944 0.4472 0)
(0.8944 0.4472 0)
(0.89446 0.447197 0)
(0.8944 0.4472 0)
(0.89441 0.447165 0)
(0.895121 0.448005 0)
(0.626202 -0.142333 0)
(0.873679 0.451947 0)
(0.8944 0.4472 0)
(0.8944 0.4472 0)
(0.8944 0.4472 0)
(0.894399 0.4472 0)
(0.8944 0.447199 0)
(0.8944 0.4472 0)
(0.8944 0.4472 0)
(0.8944 0.4472 0)
(0.912954 0.602939 0)
(0.8944 0.4472 0)
(0.894401 0.447201 0)
(0.894418 0.447202 0)
(0.905903 0.45019 0)
(0.8944 0.4472 0)
(0.8944 0.4472 0)
(0.8944 0.4472 0)
(0.8944 0.4472 0)
(0.8944 0.4472 0)
(0.926577 0.675523 0)
(0.8944 0.4472 0)
(0.8944 0.4472 0)
(0.8944 0.4472 0)
(0.894398 0.447201 0)
(0.895235 0.446736 0)
(0.8944 0.4472 0)
(0.894399 0.447201 0)
(0.8944 0.4472 0)
(0.8944 0.4472 0)
(0.8944 0.4472 0)
(0.89439 0.447201 0)
(0.8944 0.4472 0)
(0.8944 0.4472 0)
(0.826543 0.426172 0)
(0.894399 0.447205 0)
(0.8944 0.447201 0)
(0.8944 0.4472 0)
(0.894391 0.447212 0)
(0.8944 0.4472 0)
(0.8944 0.4472 0)
(0.8944 0.4472 0)
(0.894294 0.447191 0)
(0.8944 0.4472 0)
(0.8944 0.4472 0)
(0.8944 0.4472 0)
(0.8944 0.4472 0)
(0.622101 0.447631 0)
(0.894401 0.4472 0)
(0.8944 0.4472 0)
(0.8944 0.4472 0)
(0.8944 0.4472 0)
(0.894403 0.447198 0)
(0.894399 0.4472 0)
(0.8944 0.4472 0)
(0.8944 0.4472 0)
(0.8944 0.4472 0)
(0.726069 -0.0856211 0)
(0.844307 0.521474 0)
(0.8944 0.4472 0)
(0.784329 0.409195 0)
(0.894402 0.447204 0)
(0.866614 0.483822 0)
(0.894401 0.447201 0)
(0.8944 0.4472 0)
(0.8944 0.4472 0)
(0.894401 0.4472 0)
(0.8944 0.4472 0)
(0.8944 0.4472 0)
(0.8944 0.4472 0)
(0.8944 0.4472 0)
(0.8944 0.4472 0)
(0.923036 0.159144 0)
(0.89404 0.447133 0)
(0.894369 0.447212 0)
(0.8944 0.4472 0)
(0.8944 0.4472 0)
(0.894404 0.447188 0)
(0.894396 0.447196 0)
(0.8944 0.4472 0)
(0.8944 0.4472 0)
(0.3564 0.366853 0)
(0.894347 0.447228 0)
(0.8944 0.4472 0)
(0.8944 0.4472 0)
(0.8944 0.4472 0)
(0.8944 0.4472 0)
(0.89397 0.447627 0)
(0.8944 0.4472 0)
(0.8944 0.4472 0)
(0.894445 0.447173 0)
(0.8944 0.4472 0)
(0.894413 0.447181 0)
(0.395714 0.400707 0)
(0.8944 0.4472 0)
(0.894091 0.447437 0)
(0.900961 0.445152 0)
(0.893128 0.449268 0)
(0.8944 0.4472 0)
(0.913723 0.466856 0)
(0.8944 0.4472 0)
(0.894391 0.447257 0)
(0.8944 0.4472 0)
(0.8944 0.4472 0)
(0.8944 0.4472 0)
(0.8944 0.4472 0)
(0.8944 0.4472 0)
(0.8944 0.4472 0)
(0.894398 0.447203 0)
(0.894877 0.448382 0)
(0.869233 0.458372 0)
(0.894398 0.447201 0)
(0.888321 0.447946 0)
(0.894404 0.4472 0)
(0.8944 0.447199 0)
(0.8944 0.4472 0)
(0.8944 0.4472 0)
(0.893812 0.447398 0)
(0.8944 0.4472 0)
(0.894399 0.4472 0)
(0.8944 0.4472 0)
(0.896638 0.445382 0)
(0.8944 0.4472 0)
(0.883824 0.438014 0)
(0.8944 0.4472 0)
(0.895206 0.442836 0)
(0.894475 0.447508 0)
(0.8944 0.4472 0)
(0.8944 0.4472 0)
(0.894864 0.446927 0)
(0.769339 0.457719 0)
(0.8944 0.4472 0)
(0.894409 0.447294 0)
(0.894401 0.4472 0)
(0.894391 0.447066 0)
(0.8944 0.4472 0)
(0.8944 0.4472 0)
(0.8944 0.4472 0)
(0.89425 0.447423 0)
(0.8944 0.4472 0)
(0.894398 0.447207 0)
(0.8944 0.4472 0)
(0.8944 0.4472 0)
(0.894406 0.447213 0)
(0.8944 0.4472 0)
(0.894313 0.449513 0)
(0.894399 0.447199 0)
(0.8944 0.4472 0)
(0.929869 0.507355 0)
(0.894401 0.447201 0)
(0.89436 0.446938 0)
(0.895655 0.446971 0)
(0.8944 0.4472 0)
(0.894405 0.447187 0)
(0.894401 0.447201 0)
(0.894399 0.4472 0)
(0.894445 0.447459 0)
(0.8944 0.4472 0)
(0.8944 0.4472 0)
(0.894432 0.447129 0)
(0.8944 0.4472 0)
(0.8944 0.4472 0)
(0.910733 0.431992 0)
(0.567841 0.08747 0)
(0.8944 0.4472 0)
(0.895931 0.445699 0)
(0.8944 0.4472 0)
(0.8944 0.4472 0)
(0.89439 0.447229 0)
(0.894398 0.447205 0)
(0.8944 0.4472 0)
(0.894408 0.4472 0)
(0.8944 0.4472 0)
(0.894399 0.447201 0)
(0.894378 0.447204 0)
(0.685472 0.687285 0)
(0.8944 0.4472 0)
(0.8944 0.4472 0)
(0.894408 0.447211 0)
(0.895815 0.447305 0)
(1.15029 0.522224 0)
(0.894492 0.44696 0)
(0.895489 0.447422 0)
(0.894408 0.4472 0)
(0.894389 0.447355 0)
(0.894404 0.447199 0)
(0.8944 0.4472 0)
(0.89439 0.447208 0)
(0.8944 0.4472 0)
(0.894383 0.447297 0)
(0.912718 0.443406 0)
(0.894365 0.447141 0)
(0.997927 0.386394 0)
(0.894399 0.4472 0)
(0.893853 0.447365 0)
(0.894392 0.447193 0)
(0.894393 0.447198 0)
(1.13283 0.508261 0)
(0.884138 0.377131 0)
(0.8944 0.4472 0)
(0.894422 0.447216 0)
(0.8944 0.447201 0)
(0.8944 0.4472 0)
(0.8944 0.4472 0)
(0.894376 0.447151 0)
(0.168236 0.218912 0)
(0.892579 0.445514 0)
(0.997354 0.458561 0)
(0.8944 0.4472 0)
(0.8944 0.4472 0)
(0.895893 0.447904 0)
(0.893818 0.446415 0)
(0.872806 0.475353 0)
(0.8944 0.4472 0)
(0.8944 0.4472 0)
(0.8944 0.4472 0)
(0.891444 0.46211 0)
(0.8944 0.4472 0)
(0.8944 0.4472 0)
(0.8944 0.4472 0)
(0.843182 0.434886 0)
(0.894389 0.447196 0)
(0.8944 0.4472 0)
(0.903073 0.442375 0)
(0.894399 0.447206 0)
(0.8944 0.4472 0)
(0.8944 0.4472 0)
(0.894399 0.447199 0)
(0.89439 0.447196 0)
(0.8944 0.4472 0)
(0.8944 0.4472 0)
(0.8944 0.4472 0)
(0.8944 0.4472 0)
(0.894402 0.447202 0)
(0.904643 0.444846 0)
(0.894448 0.447163 0)
(0.894133 0.447307 0)
(0.8944 0.4472 0)
(0.651053 0.681517 0)
(0.8944 0.4472 0)
(0.8944 0.4472 0)
(0.8944 0.447201 0)
(0.96496 0.328657 0)
(0.8944 0.4472 0)
(0.894401 0.447199 0)
(0.836465 0.959011 0)
(0.894322 0.447197 0)
(0.884792 0.398648 0)
(0.8944 0.4472 0)
(0.8944 0.4472 0)
(0.8944 0.4472 0)
(0.8944 0.4472 0)
(0.8944 0.4472 0)
(0.8944 0.4472 0)
(0.90725 0.458764 0)
(0.894397 0.447203 0)
(0.895446 0.446291 0)
(0.8944 0.4472 0)
(0.894271 0.449986 0)
(0.96501 0.435666 0)
(0.894534 0.447261 0)
(0.8944 0.4472 0)
(0.8944 0.4472 0)
(0.8944 0.4472 0)
(0.8944 0.4472 0)
(0.894401 0.4472 0)
(0.855086 0.452824 0)
(0.894416 0.44717 0)
(0.894456 0.447199 0)
(0.894321 0.447278 0)
(0.904158 0.436577 0)
(0.95192 0.508831 0)
(0.911535 0.433019 0)
(0.8944 0.4472 0)
(0.8944 0.4472 0)
(0.8944 0.4472 0)
(0.894402 0.4472 0)
(0.893965 0.446039 0)
(0.894399 0.4472 0)
(0.894402 0.447201 0)
(0.894393 0.447224 0)
(0.894401 0.447199 0)
(0.891716 0.446675 0)
(0.894434 0.447231 0)
(0.8944 0.4472 0)
(0.8944 0.447201 0)
(1.05689 0.419132 0)
(0.8944 0.4472 0)
(0.894395 0.447203 0)
(0.894403 0.447197 0)
(0.8944 0.4472 0)
(0.8944 0.4472 0)
(0.8944 0.4472 0)
(0.8944 0.4472 0)
(0.8944 0.4472 0)
(0.909901 0.603718 0)
(0.893572 0.375492 0)
(0.8944 0.4472 0)
(0.89399 0.447156 0)
(0.882603 0.419424 0)
(0.8944 0.4472 0)
(0.894392 0.447196 0)
(0.8944 0.4472 0)
(0.920105 0.494683 0)
(0.894399 0.447201 0)
(0.8944 0.4472 0)
(0.894398 0.4472 0)
(0.894387 0.447197 0)
(0.8944 0.4472 0)
(0.89439 0.447212 0)
(0.894401 0.4472 0)
(0.894487 0.447229 0)
(0.8944 0.447199 0)
(0.8944 0.4472 0)
(0.897138 0.449502 0)
(0.894399 0.447201 0)
(0.8944 0.4472 0)
(0.89439 0.447205 0)
(0.8944 0.4472 0)
(0.894406 0.447197 0)
(0.894504 0.447068 0)
(0.893679 0.472056 0)
(0.8944 0.4472 0)
(0.889276 0.466052 0)
(0.851956 0.438199 0)
(0.8944 0.4472 0)
(0.894405 0.447187 0)
(0.8944 0.447202 0)
(0.893289 0.444453 0)
(0.8944 0.4472 0)
(0.894313 0.450702 0)
(0.8944 0.4472 0)
(0.894394 0.447207 0)
(0.8944 0.4472 0)
(1.34306 -0.133173 0)
(0.894398 0.447171 0)
(0.917388 0.43847 0)
(0.8944 0.4472 0)
(0.8944 0.4472 0)
(0.8944 0.4472 0)
(0.894287 0.447126 0)
(0.8944 0.4472 0)
(0.897675 0.448853 0)
(0.894403 0.447199 0)
(0.8944 0.4472 0)
(0.8944 0.4472 0)
(0.8947 0.447446 0)
(0.8944 0.4472 0)
(0.894397 0.447195 0)
(0.8944 0.4472 0)
(0.8944 0.4472 0)
(0.8944 0.4472 0)
(0.89502 0.448074 0)
(0.894401 0.447201 0)
(0.894402 0.447198 0)
(0.8944 0.4472 0)
(0.906663 0.277943 0)
(0.894401 0.447194 0)
(0.898527 0.448856 0)
(0.894424 0.447217 0)
(0.8944 0.447203 0)
(0.894375 0.447198 0)
(0.894406 0.447204 0)
(0.8944 0.4472 0)
(0.894427 0.447209 0)
(0.8944 0.4472 0)
(0.894172 0.447151 0)
(0.891653 0.449041 0)
(0.894298 0.446967 0)
(0.894403 0.44721 0)
(0.894364 0.447231 0)
(0.926267 0.447401 0)
(0.884809 0.441096 0)
(0.894399 0.447201 0)
(0.8944 0.4472 0)
(0.8944 0.4472 0)
(0.8944 0.4472 0)
(0.888579 0.449105 0)
(0.8944 0.4472 0)
(0.894401 0.447205 0)
(0.8944 0.4472 0)
(0.8944 0.4472 0)
(0.8944 0.4472 0)
(0.770444 0.724291 0)
(0.8944 0.4472 0)
(0.699432 0.708381 0)
(0.8944 0.4472 0)
(0.894388 0.447205 0)
(0.8944 0.4472 0)
(0.894254 0.447488 0)
(0.8945 0.447205 0)
(0.894365 0.447298 0)
(0.899086 0.449843 0)
(0.959368 0.433592 0)
(0.894558 0.447321 0)
(0.8944 0.4472 0)
(0.913467 0.514236 0)
(0.8944 0.4472 0)
(0.910866 0.461531 0)
(0.900081 0.447128 0)
(0.8944 0.4472 0)
(0.8944 0.4472 0)
(0.893375 0.44826 0)
(0.8944 0.4472 0)
(0.89388 0.448249 0)
(0.882131 0.442145 0)
(0.894402 0.447198 0)
(0.894329 0.447244 0)
(0.8944 0.4472 0)
(0.894402 0.447202 0)
(0.894406 0.447201 0)
(0.8944 0.4472 0)
(0.796386 0.405295 0)
(0.894527 0.447758 0)
(0.8944 0.4472 0)
(0.894399 0.447201 0)
(0.894282 0.453741 0)
(0.8944 0.4472 0)
(0.8944 0.4472 0)
(0.893982 0.452259 0)
(1.49484 0.202598 0)
(0.894401 0.447199 0)
(0.8944 0.4472 0)
(0.893816 0.447509 0)
(0.8944 0.4472 0)
(0.894391 0.447187 0)
(0.563 0.892665 0)
(0.852448 0.45942 0)
(0.8944 0.4472 0)
(0.8944 0.4472 0)
(0.894398 0.4472 0)
(0.894406 0.447223 0)
(0.894399 0.4472 0)
(0.8944 0.4472 0)
(0.894401 0.447213 0)
(0.894405 0.447201 0)
(0.894402 0.447201 0)
(0.8944 0.4472 0)
(0.8944 0.4472 0)
(0.894395 0.4472 0)
(0.894403 0.447444 0)
(0.894154 0.44703 0)
(0.8944 0.4472 0)
(0.89439 0.447217 0)
(0.86431 0.457491 0)
(0.898225 0.449048 0)
(0.8944 0.4472 0)
(0.8944 0.4472 0)
(0.888372 0.447374 0)
(0.8944 0.4472 0)
(0.8944 0.4472 0)
(0.8944 0.4472 0)
(0.8944 0.4472 0)
(0.894397 0.447224 0)
(0.8944 0.4472 0)
(0.8944 0.4472 0)
(0.8944 0.4472 0)
(0.915827 0.467484 0)
(0.8944 0.4472 0)
(0.975034 0.455404 0)
(0.895524 0.4481 0)
(0.894453 0.447235 0)
(0.8944 0.4472 0)
(0.923054 0.498464 0)
(0.8944 0.4472 0)
(0.894401 0.447198 0)
(0.89334 0.348567 0)
(0.8944 0.4472 0)
(0.896412 0.459503 0)
(0.894405 0.447194 0)
(0.912324 0.444958 0)
(0.8944 0.4472 0)
(0.894395 0.447198 0)
(0.8944 0.4472 0)
(0.894401 0.447199 0)
(0.8944 0.4472 0)
(0.8944 0.447176 0)
(0.8944 0.4472 0)
(1.33948 0.188948 0)
(0.8944 0.4472 0)
(0.902992 0.44736 0)
(0.8944 0.4472 0)
(0.8944 0.4472 0)
(0.8944 0.4472 0)
(0.8944 0.4472 0)
(0.8944 0.4472 0)
(0.8944 0.4472 0)
(0.8944 0.4472 0)
(0.8944 0.4472 0)
(0.8944 0.447202 0)
(0.8944 0.4472 0)
(0.898057 0.45003 0)
(0.89476 0.448127 0)
(0.8944 0.4472 0)
(0.816578 0.38144 0)
(0.8944 0.4472 0)
(0.850812 0.97509 0)
(0.894272 0.447232 0)
(0.8944 0.4472 0)
(0.8944 0.447208 0)
(0.8944 0.4472 0)
(0.8944 0.4472 0)
(0.8944 0.4472 0)
(0.894386 0.447284 0)
(0.893122 0.446394 0)
(0.89439 0.4472 0)
(0.892453 0.448144 0)
(0.803263 0.411884 0)
(0.894405 0.447203 0)
(0.894405 0.447198 0)
(0.8944 0.4472 0)
(0.894399 0.447197 0)
(0.8944 0.4472 0)
(0.8944 0.4472 0)
(0.8944 0.4472 0)
(0.8944 0.4472 0)
(0.8944 0.4472 0)
(0.76913 0.372508 0)
(0.903931 0.519907 0)
(1.41241 0.212762 0)
(0.8944 0.4472 0)
(0.894401 0.447202 0)
(0.895769 0.452762 0)
(0.8944 0.4472 0)
(1.54458 0.141392 0)
(0.8944 0.4472 0)
(0.8943 0.447141 0)
(0.8944 0.4472 0)
(0.8944 0.4472 0)
(0.894312 0.447436 0)
(1.31656 0.164078 0)
(0.8944 0.4472 0)
(0.8944 0.4472 0)
(0.8944 0.4472 0)
(0.894189 0.447457 0)
(0.89545 0.448009 0)
(0.894406 0.447198 0)
(0.8944 0.4472 0)
(0.894403 0.447207 0)
(0.8944 0.4472 0)
(0.896363 0.443623 0)
(0.8944 0.4472 0)
(0.894401 0.447202 0)
(0.894466 0.447222 0)
(0.909694 0.417362 0)
(0.8944 0.4472 0)
(0.8944 0.4472 0)
(0.923258 0.429543 0)
(0.8944 0.44717 0)
(0.880678 0.45047 0)
(0.894313 0.447284 0)
(0.8944 0.4472 0)
(0.89442 0.447202 0)
(0.8944 0.4472 0)
(0.8944 0.4472 0)
(0.8944 0.4472 0)
(0.894413 0.447218 0)
(0.8944 0.4472 0)
(0.8944 0.4472 0)
(0.8944 0.4472 0)
(0.8944 0.4472 0)
(0.904433 0.537463 0)
(0.8944 0.4472 0)
(0.894393 0.447205 0)
(0.8944 0.4472 0)
(0.8944 0.4472 0)
(0.887753 0.441719 0)
(0.881213 0.411664 0)
(0.8944 0.4472 0)
(0.8944 0.4472 0)
(0.8944 0.4472 0)
(0.894401 0.4472 0)
(0.8944 0.4472 0)
(0.894431 0.447225 0)
(0.8944 0.4472 0)
(0.894436 0.447207 0)
(0.886238 0.44766 0)
(0.894418 0.447156 0)
(0.894395 0.447214 0)
(0.8944 0.4472 0)
(0.8944 0.4472 0)
(0.985752 0.534509 0)
(0.894337 0.447461 0)
(0.894398 0.447357 0)
(0.8944 0.4472 0)
(0.225759 0.17382 0)
(0.89556 0.451421 0)
(0.8944 0.4472 0)
(0.8944 0.4472 0)
(0.8944 0.4472 0)
(0.8944 0.4472 0)
(0.8944 0.4472 0)
(0.894393 0.447198 0)
(0.894401 0.447202 0)
(0.8944 0.4472 0)
(0.8944 0.4472 0)
(0.8944 0.4472 0)
(1.10706 0.352116 0)
(0.894403 0.447212 0)
(0.8944 0.4472 0)
(0.894404 0.447195 0)
(0.8944 0.4472 0)
(0.890455 0.451753 0)
(0.894402 0.447307 0)
(0.894351 0.447265 0)
(0.894396 0.4472 0)
(0.853825 0.44954 0)
(0.8944 0.4472 0)
(0.8944 0.4472 0)
(0.8944 0.4472 0)
(0.8944 0.4472 0)
(0.894406 0.447202 0)
(0.8944 0.4472 0)
(0.852759 0.455057 0)
(0.894438 0.447208 0)
(0.8944 0.4472 0)
(0.8944 0.4472 0)
(0.8944 0.4472 0)
(0.894401 0.447212 0)
(0.894399 0.4472 0)
(0.894452 0.447155 0)
(0.899592 0.447906 0)
(0.896136 0.48428 0)
(0.908246 0.449079 0)
(0.8944 0.4472 0)
(0.894254 0.44719 0)
(0.894399 0.4472 0)
(0.89488 0.448362 0)
(0.8944 0.4472 0)
(0.894397 0.44722 0)
(0.894412 0.447182 0)
(0.8944 0.4472 0)
(0.8944 0.4472 0)
(0.894427 0.447247 0)
(0.853317 0.423237 0)
(0.844359 0.907747 0)
(0.8944 0.4472 0)
(0.8944 0.4472 0)
(0.8944 0.4472 0)
(1.02546 0.552258 0)
(0.894397 0.447204 0)
(1.41627 0.157076 0)
(0.894706 0.447021 0)
(0.8944 0.4472 0)
(0.8944 0.4472 0)
(0.899129 0.445938 0)
(0.895897 0.447546 0)
(0.894398 0.447202 0)
(0.894403 0.447197 0)
(0.8944 0.4472 0)
(0.902643 0.447708 0)
(0.875577 0.388304 0)
(0.8944 0.4472 0)
(0.89441 0.447178 0)
(0.894418 0.448094 0)
(0.894469 0.44713 0)
(0.8944 0.4472 0)
(0.894433 0.447265 0)
(0.866927 0.437614 0)
(0.8944 0.4472 0)
(0.8944 0.4472 0)
(0.894348 0.447155 0)
(0.8944 0.4472 0)
(0.8944 0.4472 0)
(0.894432 0.447226 0)
(0.8944 0.4472 0)
(0.8944 0.4472 0)
(0.894405 0.447193 0)
(0.8944 0.4472 0)
(0.885657 0.43873 0)
(0.8944 0.4472 0)
(0.8944 0.4472 0)
(0.89389 0.446992 0)
(0.871466 0.448256 0)
(0.894634 0.447097 0)
(0.907698 0.44452 0)
(0.894394 0.4472 0)
(0.894406 0.447225 0)
(0.890253 0.443374 0)
(0.912197 0.480762 0)
(0.89439 0.447197 0)
(0.894397 0.447204 0)
(0.977832 0.457201 0)
(0.989465 0.0274012 0)
(0.837286 0.468707 0)
(0.8944 0.4472 0)
(0.8944 0.4472 0)
(0.8944 0.4472 0)
(0.8944 0.4472 0)
(0.8944 0.4472 0)
(0.894395 0.447211 0)
(0.8944 0.4472 0)
(0.8944 0.4472 0)
(0.894633 0.447493 0)
(0.8944 0.4472 0)
(0.894398 0.447198 0)
(0.637202 0.569422 0)
(0.8944 0.4472 0)
(0.894411 0.447207 0)
(0.8944 0.4472 0)
(0.8944 0.4472 0)
(0.894398 0.4472 0)
(0.895758 0.448825 0)
(0.8944 0.4472 0)
(0.8944 0.4472 0)
(0.8944 0.4472 0)
(0.8944 0.4472 0)
(0.901967 0.448567 0)
(0.894391 0.447199 0)
(0.8944 0.4472 0)
(0.8944 0.4472 0)
(0.894403 0.447195 0)
(0.891925 0.447398 0)
(0.8944 0.4472 0)
(0.86782 0.439563 0)
(0.893801 0.446876 0)
(0.8944 0.4472 0)
(0.8944 0.4472 0)
(0.8944 0.447199 0)
(0.894383 0.447212 0)
(0.894398 0.447203 0)
(0.894401 0.4472 0)
(0.8944 0.4472 0)
(0.894602 0.446499 0)
(0.986325 0.534044 0)