/*--------------------------------*- C++ -*----------------------------------*\
  =========                 |
  \\      /  F ield         | OpenFOAM: The Open Source CFD Toolbox
   \\    /   O peration     | Website:  https://openfoam.org
    \\  /    A nd           | Version:  6
     \\/     M anipulation  |
\*---------------------------------------------------------------------------*/
FoamFile
{
    version     2.0;
    format      ascii;
    class       surfaceScalarField;
    location    "4.96";
    object      meshPhi;
}
// * * * * * * * * * * * * * * * * * * * * * * * * * * * * * * * * * * * * * //

dimensions      [0 3 -1 0 0 0 0];

internalField   nonuniform List<scalar> 
8193
(
-0.00219903
-0.00365779
0.000805546
-0.0034548
-0.00691691
-0.00455842
-0.00984921
-0.00550004
-0.0124109
-0.00627399
-0.014569
-0.00687819
-0.0163016
-0.00731364
-0.0175967
-0.0075838
-0.0184523
-0.00769406
-0.0188749
-0.00765117
-0.0188788
-0.0074628
-0.0184849
-0.00713715
-0.0177197
-0.00668263
-0.0166142
-0.00610765
-0.0152027
-0.00542048
-0.013522
-0.00462925
-0.0116109
-0.00374198
-0.00950892
-0.00276675
-0.00725643
-0.00171189
-0.00489389
-0.000586297
-0.00246168
0.000600205
-1.04665e-14
0.0018365
0.00245128
0.00310972
0.00485264
0.00440484
0.007165
0.00570427
0.00934973
0.0069874
0.0113689
0.00823039
0.0131854
0.00940587
0.0147632
0.0104829
0.0160683
0.0114272
0.0170684
0.012201
0.0177346
0.0127641
0.0180414
0.0130743
0.0179679
0.0130887
0.0174988
0.0127646
0.0166252
0.0120614
0.0153452
0.0109424
0.0136653
0.00937666
0.0116003
0.00734118
0.00917464
0.0048232
0.00642185
0.00338509
0.00182238
-0.0079738
-0.0109746
0.00399779
-0.0115329
-0.0170348
-0.0146386
-0.0224195
-0.0172668
-0.0270568
-0.0194048
-0.0308949
-0.0210496
-0.0339018
-0.0222066
-0.0360641
-0.0228875
-0.0373859
-0.0231092
-0.037887
-0.022892
-0.0376009
-0.0222586
-0.0365727
-0.0212329
-0.0348574
-0.019839
-0.0325172
-0.018101
-0.0296203
-0.0160421
-0.0262389
-0.0136853
-0.0224476
-0.0110528
-0.0183222
-0.00816712
-0.0139392
-0.0050512
-0.00937452
-0.0017296
-0.00470341
0.00177061
-1.16467e-17
0.00541871
0.00466284
0.00917907
0.00921356
0.0130099
0.0135821
0.016862
0.0176998
0.0206778
0.0215
0.02439
0.0249181
0.0279214
0.0278922
0.0311844
0.0303641
0.0340811
0.0322797
0.0365039
0.0335905
0.0383374
0.034255
0.0394596
0.0342397
0.0397454
0.0335205
0.0390699
0.0320844
0.0373124
0.0299307
0.0343618
0.0270719
0.0301215
0.0235349
0.0245162
0.0193614
0.0174971
0.0146083
0.00934717
0.00904876
-0.0163926
-0.0217702
0.0102663
-0.0218244
-0.0301088
-0.0265148
-0.0374236
-0.030435
-0.043627
-0.0335726
-0.0486594
-0.035929
-0.0524877
-0.0375174
-0.0551046
-0.0383598
-0.0565261
-0.0384853
-0.0567894
-0.0379277
-0.0559501
-0.0367235
-0.0540791
-0.0349104
-0.0512601
-0.0325262
-0.0475862
-0.0296077
-0.0431577
-0.0261906
-0.0380798
-0.0223092
-0.0324598
-0.0179969
-0.0264065
-0.0132869
-0.0200281
-0.00821311
-0.0134313
-0.00281149
-0.00672116
0.00287812
-9.77338e-15
0.00881038
0.00663234
0.0149325
0.0130788
0.0211821
0.0192454
0.0274854
0.025041
0.0337555
0.030378
0.0398905
0.0351727
0.0457727
0.039346
0.0512676
0.0428241
0.0562245
0.0455402
0.0604768
0.047435
0.0638443
0.0484593
0.0661356
0.0485744
0.0671524
0.0477547
0.0666945
0.0459887
0.0645655
0.0432804
0.0605808
0.0396507
0.0545747
0.035138
0.0464097
0.0297985
0.0359856
0.0237065
0.0169537
0.0232484
-0.0271936
-0.0357411
0.0193864
-0.0340474
-0.045797
-0.0398988
-0.0544999
-0.0447208
-0.0617562
-0.0485056
-0.067506
-0.0512621
-0.0717219
-0.0530128
-0.074407
-0.0537906
-0.0755929
-0.0536364
-0.0753364
-0.0525959
-0.0737161
-0.0507177
-0.0708288
-0.0480511
-0.0667859
-0.044645
-0.0617099
-0.0405464
-0.055731
-0.0358004
-0.0489842
-0.0304498
-0.0416069
-0.0245359
-0.0337366
-0.0180994
-0.0255092
-0.0111817
-0.0170581
-0.0038266
-0.00851311
0.00391725
-3.5293e-20
0.0119944
0.00835984
0.0203397
0.0164496
0.028876
0.0241572
0.0375112
0.0313754
0.046136
0.0380026
0.054622
0.0439428
0.0628195
0.0491069
0.0705573
0.0534133
0.0776418
0.0567897
0.0838584
0.059174
0.0889734
0.0605163
0.0927372
0.0607801
0.0948889
0.0599442
0.0951626
0.0580043
0.0932945
0.0549736
0.0890317
0.0508843
0.0821418
0.0457879
0.0724237
0.0397548
0.0597184
0.0328745
0.0252539
0.0439205
-0.0400377
-0.0524699
0.0310333
-0.0478621
-0.0636695
-0.0544605
-0.0732217
-0.059811
-0.0810331
-0.063913
-0.0870484
-0.0667837
-0.0912495
-0.0684549
-0.0936527
-0.0689697
-0.0943065
-0.068379
-0.0932878
-0.0667387
-0.0906976
-0.0641072
-0.0866575
-0.060543
-0.081305
-0.0561032
-0.0747894
-0.0508423
-0.0672681
-0.0448119
-0.0589029
-0.0380608
-0.0498576
-0.0306353
-0.0402949
-0.0225807
-0.0303747
-0.0139428
-0.0202527
-0.00477025
-0.0100796
0.00488318
-9.1032e-15
0.0149556
0.00984774
0.0253741
0.0193318
0.0360512
0.0283271
0.0468824
0.0367158
0.0577424
0.0443875
0.0684832
0.0512399
0.0789316
0.0571798
0.0888882
0.0621242
0.0981268
0.0660015
0.106395
0.0687528
0.113418
0.070334
0.118899
0.0707165
0.122525
0.0698894
0.123978
0.0678602
0.122936
0.0646559
0.119087
0.0603233
0.11214
0.054929
0.101834
0.0485592
0.0879516
0.0413179
0.033326
0.0703334
-0.0545195
-0.0714379
0.0447934
-0.0628806
-0.0832218
-0.0698363
-0.0931094
-0.0753711
-0.101011
-0.0794917
-0.106879
-0.0822231
-0.110706
-0.0836054
-0.112522
-0.0836897
-0.112392
-0.0825352
-0.110413
-0.0802055
-0.106705
-0.0767661
-0.101415
-0.072282
-0.0947014
-0.0668159
-0.0867392
-0.0604273
-0.0777093
-0.0531718
-0.0677975
-0.0451014
-0.0571901
-0.0362651
-0.0460716
-0.0267101
-0.0346225
-0.0164844
-0.0230171
-0.00563838
-0.011423
0.00577179
8.77974e-15
0.0176811
0.0111005
0.0300124
0.0217358
0.0426725
0.0317721
0.0555487
0.041085
0.0685058
0.0495599
0.0813824
0.0570929
0.0939892
0.0635917
0.106107
0.0689765
0.117486
0.0731814
0.127846
0.0761559
0.136881
0.0778664
0.14426
0.0782973
0.149631
0.0774522
0.152634
0.0753547
0.152902
0.0720491
0.150076
0.0675999
0.143816
0.0620915
0.13381
0.0556268
0.119792
0.0483257
0.0403224
0.10155
-0.0701799
-0.0920422
0.0601787
-0.0786782
-0.10389
-0.085639
-0.113644
-0.0910529
-0.121221
-0.0949326
-0.12658
-0.0973095
-0.129726
-0.0982295
-0.130701
-0.0977499
-0.129586
-0.0959353
-0.126493
-0.0928544
-0.121565
-0.0885773
-0.114964
-0.0831728
-0.106874
-0.0767068
-0.0974875
-0.0692413
-0.0870077
-0.0608335
-0.0756405
-0.0515365
-0.0635918
-0.0413996
-0.0510646
-0.0304704
-0.0382563
-0.0187963
-0.0253569
-0.00642764
-0.0125476
0.00657963
0
0.0201601
0.0121248
0.0342353
0.0236763
0.0487097
0.0345155
0.063467
0.0445149
0.0783663
0.0535594
0.0932387
0.0615471
0.107885
0.0683899
0.122073
0.0740152
0.135538
0.0783668
0.147983
0.0814062
0.159079
0.0831139
0.168472
0.0834907
0.175784
0.0825583
0.180623
0.0803593
0.182592
0.0769581
0.181299
0.0724392
0.176366
0.0669064
0.167444
0.0604811
0.154226
0.0532995
0.0455097
0.13646
-0.0865209
-0.113616
0.0766439
-0.0948056
-0.125066
-0.101468
-0.13428
-0.106503
-0.141179
-0.109928
-0.145732
-0.111777
-0.147949
-0.112101
-0.147886
-0.110959
-0.145636
-0.10842
-0.141327
-0.104554
-0.135118
-0.0994343
-0.127188
-0.0931301
-0.117737
-0.0857086
-0.106977
-0.0772319
-0.095129
-0.0677572
-0.0824156
-0.0573365
-0.0690594
-0.046018
-0.0552788
-0.0338475
-0.0412853
-0.0208706
-0.0272815
-0.00713537
-0.0134595
0.00730399
0
0.0223838
0.0129288
0.0380269
0.0251717
0.0541382
0.0365868
0.0706011
0.0470463
0.0872729
0.0564373
0.103982
0.0646624
0.120524
0.0716409
0.136662
0.0773098
0.152122
0.0816252
0.166598
0.0845632
0.179748
0.0861213
0.191204
0.0863186
0.200574
0.0851971
0.207449
0.0828206
0.211411
0.0792748
0.212047
0.0746658
0.208958
0.0691178
0.201769
0.0627711
0.190149
0.0557787
0.0483024
0.173818
-0.103021
-0.135448
0.0936047
-0.110802
-0.146119
-0.11692
-0.154464
-0.121372
-0.160407
-0.124177
-0.163922
-0.125371
-0.165028
-0.125005
-0.16379
-0.12314
-0.160312
-0.119843
-0.154734
-0.115187
-0.147226
-0.109243
-0.137984
-0.10208
-0.127221
-0.0937637
-0.115166
-0.0843555
-0.102052
-0.0739104
-0.0881172
-0.062478
-0.0735982
-0.0501038
-0.0587259
-0.0368307
-0.0437234
-0.022701
-0.0288033
-0.00775961
-0.0141664
0.00794286
-2.76344e-17
0.024346
0.0135228
0.0413755
0.0262438
0.0589392
0.0380207
0.0769224
0.0487273
0.0951842
0.0582549
0.113554
0.0665125
0.131827
0.0734286
0.149765
0.0789517
0.167093
0.0830519
0.1835
0.0857215
0.198644
0.0869761
0.212149
0.086855
0.223618
0.085421
0.232635
0.0827601
0.238776
0.0789799
0.241619
0.0742082
0.240754
0.0685897
0.235798
0.0622833
0.226407
0.0554581
0.0482892
0.212289
-0.119151
-0.156811
0.110458
-0.126206
-0.166414
-0.131597
-0.173646
-0.13532
-0.178435
-0.137393
-0.180758
-0.137851
-0.180639
-0.136743
-0.178151
-0.134129
-0.173406
-0.130074
-0.166552
-0.124648
-0.157772
-0.117921
-0.147271
-0.109958
-0.135276
-0.100825
-0.122025
-0.0905773
-0.107767
-0.0792682
-0.0927501
-0.0669436
-0.077222
-0.0536456
-0.0614243
-0.0394129
-0.0455893
-0.0242838
-0.029938
-0.00829909
-0.0146774
0.00849496
1.13367e-14
0.0260423
0.013918
0.044273
0.0269175
0.063099
0.0388567
0.0824099
0.0496129
0.102069
0.0590827
0.121908
0.067183
0.141727
0.0738525
0.16129
0.0790523
0.180326
0.0827674
0.198526
0.085007
0.21555
0.0858056
0.231027
0.0852226
0.24456
0.0833422
0.255736
0.080272
0.264134
0.0761414
0.269335
0.0710989
0.270932
0.0653088
0.268544
0.0589475
0.261828
0.0521988
0.0452492
0.250494
-0.134391
-0.176983
0.126602
-0.140575
-0.185331
-0.145123
-0.191301
-0.148031
-0.194822
-0.149312
-0.195874
-0.148999
-0.194486
-0.147137
-0.190733
-0.143783
-0.184735
-0.138998
-0.176647
-0.132849
-0.16666
-0.1254
-0.154987
-0.116716
-0.141865
-0.106855
-0.127544
-0.0958715
-0.112278
-0.0838131
-0.0963292
-0.0707222
-0.0799525
-0.0566363
-0.0633982
-0.04159
-0.0469062
-0.025617
-0.0307038
-0.00875325
-0.0150031
0.00895971
-3.62364e-15
0.0274708
0.0141275
0.0467151
0.0272202
0.06661
0.0391386
0.0870502
0.0497639
0.107904
0.0589992
0.12901
0.0667699
0.150174
0.0730256
0.171165
0.0777405
0.191719
0.0809147
0.211535
0.0825745
0.23028
0.0827729
0.24759
0.0815894
0.263079
0.0791286
0.276344
0.075519
0.286974
0.0709105
0.29456
0.0654709
0.29871
0.0593825
0.299053
0.0528369
0.295262
0.0460307
0.0391596
0.287057
-0.148248
-0.195271
0.141456
-0.153489
-0.202282
-0.157147
-0.206935
-0.159211
-0.209162
-0.159693
-0.208941
-0.158619
-0.206306
-0.156031
-0.201334
-0.151979
-0.194148
-0.146521
-0.184911
-0.139717
-0.173818
-0.131629
-0.161091
-0.122315
-0.146973
-0.111829
-0.131722
-0.100222
-0.115601
-0.0875355
-0.098879
-0.0738086
-0.0818187
-0.059074
-0.0646774
-0.0433617
-0.0477009
-0.0267007
-0.0311214
-0.00912221
-0.0151551
0.00933723
3.5293e-20
0.0286316
0.014165
0.0487016
0.0271816
0.0694699
0.0389132
0.0908374
0.0492458
0.112679
0.0580891
0.134839
0.0653777
0.157132
0.0710722
0.179335
0.0751599
0.201193
0.0776558
0.222415
0.0786031
0.242677
0.0780727
0.26163
0.0761629
0.278901
0.072998
0.294101
0.0687259
0.306836
0.0635152
0.316715
0.0575513
0.323364
0.0510319
0.326435
0.044162
0.325618
0.0371481
0.0301928
0.320657
-0.160268
-0.211037
0.154484
-0.16457
-0.216734
-0.167354
-0.220111
-0.168605
-0.221097
-0.168329
-0.219674
-0.166547
-0.215877
-0.163295
-0.209785
-0.158618
-0.201525
-0.152568
-0.191263
-0.145199
-0.179199
-0.136569
-0.165562
-0.12673
-0.1506
-0.115732
-0.134576
-0.10362
-0.117763
-0.0904331
-0.100433
-0.0762038
-0.0828568
-0.0609612
-0.0652967
-0.0447308
-0.0480037
-0.0275371
-0.0312138
-0.00940676
-0.015146
0.00962834
3.36738e-15
0.0295272
0.0140453
0.0502356
0.0268332
0.0716819
0.0382302
0.0937731
0.0481276
0.116391
0.0564422
0.139387
0.0631177
0.162583
0.0681256
0.185767
0.071466
0.208692
0.0731687
0.23108
0.0732925
0.25262
0.0719258
0.272977
0.0691847
0.291794
0.0652115
0.308701
0.0601718
0.323323
0.0542513
0.33529
0.0476508
0.344251
0.0405814
0.349882
0.0332588
0.351899
0.0258973
0.0187037
0.350069
-0.170053
-0.223719
0.165206
-0.17349
-0.228224
-0.175478
-0.230449
-0.175998
-0.230326
-0.175049
-0.227839
-0.172649
-0.223022
-0.168828
-0.215959
-0.163624
-0.20678
-0.157085
-0.195652
-0.149259
-0.182782
-0.140198
-0.1684
-0.129951
-0.152763
-0.118561
-0.136137
-0.10607
-0.118801
-0.0925114
-0.101033
-0.0779149
-0.0831089
-0.062305
-0.0652955
-0.0457032
-0.0478479
-0.0281302
-0.0310055
-0.00960833
-0.0149893
0.00983452
-2.4564e-17
0.0301618
0.0137839
0.051324
0.0262076
0.0732547
0.0371413
0.0958665
0.0464815
0.119047
0.0541523
0.142656
0.0601063
0.166523
0.0643258
0.190444
0.0668235
0.214184
0.0676429
0.237476
0.0668584
0.260023
0.0645744
0.281505
0.0609236
0.301582
0.0560651
0.319902
0.0501809
0.336111
0.0434716
0.349861
0.0361517
0.360825
0.0284438
0.368702
0.0205725
0.373234
0.0127577
0.0052087
0.374214
-0.177272
-0.23285
0.173222
-0.17998
-0.23637
-0.181303
-0.237646
-0.181218
-0.236613
-0.179722
-0.233256
-0.176827
-0.227614
-0.172557
-0.219772
-0.166948
-0.209862
-0.160041
-0.198058
-0.15188
-0.184567
-0.142511
-0.169626
-0.131978
-0.153495
-0.120323
-0.136447
-0.107581
-0.118764
-0.0937832
-0.100729
-0.0789547
-0.0826228
-0.063117
-0.0647169
-0.0462882
-0.0472694
-0.0284858
-0.0305225
-0.009729
-0.014699
0.00995789
2.50228e-17
0.0305418
0.0133966
0.0519773
0.0253383
0.0742021
0.0356991
0.0971338
0.044381
0.120665
0.051315
0.144663
0.0564628
0.168964
0.059817
0.193372
0.0614026
0.217663
0.0612765
0.241579
0.0595275
0.264838
0.0562754
0.287134
0.0516685
0.308141
0.0458817
0.327526
0.0391116
0.344953
0.031573
0.360097
0.0234924
0.372649
0.0151026
0.382331
0.00663567
0.388906
-0.00168357
-0.00964415
0.392189
-0.181676
-0.238073
0.178222
-0.18384
-0.240889
-0.184672
-0.241482
-0.184147
-0.239792
-0.182259
-0.235809
-0.179018
-0.229575
-0.174444
-0.22118
-0.168568
-0.210758
-0.161427
-0.198488
-0.153063
-0.184582
-0.143517
-0.16928
-0.132829
-0.152847
-0.121038
-0.135561
-0.108175
-0.117708
-0.0942686
-0.0995765
-0.0793417
-0.0814513
-0.0634128
-0.0636072
-0.0464978
-0.046306
-0.0286117
-0.029792
-0.00977142
-0.0142895
0.0100012
-2.98692e-15
0.0306756
0.0128998
0.0522092
0.0242595
0.074543
0.0339573
0.0975981
0.0419004
0.121272
0.0480271
0.145437
0.0523078
0.169933
0.0547455
0.194576
0.0553767
0.219145
0.0542716
0.243396
0.0515329
0.267054
0.0472949
0.289827
0.0417212
0.311403
0.0350012
0.331464
0.027346
0.349688
0.0189831
0.365767
0.0101508
0.379409
0.0010913
0.390352
-0.00795583
0.398375
-0.0167609
-0.0251108
0.403303
-0.183098
0.179996
-0.184943
-0.185491
-0.184719
-0.182619
-0.179199
-0.17448
-0.168488
-0.161259
-0.15283
-0.143242
-0.132532
-0.120734
-0.107879
-0.0939944
-0.0790997
-0.0632125
-0.0463471
-0.0285173
-0.00973883
0.00996769
0.0305732
0.0520366
0.0743008
0.0972893
0.120903
0.145015
0.169475
0.194097
0.218673
0.242961
0.266698
0.289599
0.311362
0.331679
0.350242
0.366751
0.380924
0.39251
0.401292
0.407101
0.0717339
0.372801
0.0922498
0.36971
0.110023
0.360445
0.124111
0.345364
0.133772
0.325006
0.138506
0.30007
0.138088
0.271395
0.132596
0.239934
0.122409
0.206725
0.108209
0.172857
0.0909501
0.139436
0.0718285
0.107551
0.052231
0.0782384
0.0336771
0.0524523
0.0177505
0.0310316
0.00602724
0.0146752
0.0039204
0.0777417
0.338107
0.0970618
0.335684
0.113851
0.328073
0.127288
0.315552
0.136712
0.298533
0.141662
0.277552
0.141899
0.253252
0.137431
0.226367
0.128516
0.197702
0.115665
0.168111
0.0996209
0.138467
0.0813437
0.109647
0.0619705
0.0825012
0.0427761
0.0578296
0.0251231
0.0363617
0.0104072
0.018735
0.00547753
0.0825427
0.303638
0.100616
0.30182
0.116371
0.295663
0.12909
0.285378
0.138185
0.271275
0.143229
0.253758
0.143976
0.233315
0.140375
0.210504
0.132585
0.185942
0.12097
0.160287
0.106095
0.134223
0.0887089
0.108443
0.0697255
0.0836325
0.0501916
0.0604497
0.0312532
0.0395119
0.0141155
0.0213789
0.00653965
0.086058
0.269949
0.102852
0.268656
0.117536
0.263754
0.129481
0.255397
0.138167
0.243815
0.143197
0.229309
0.14432
0.21224
0.141442
0.19303
0.134639
0.172142
0.124154
0.150079
0.110398
0.127367
0.0939418
0.104546
0.0754989
0.0821575
0.055909
0.0607337
0.036113
0.0407833
0.0171247
0.0227824
0.00716298
0.088247
0.237513
0.103746
0.236662
0.117335
0.232823
0.128465
0.226109
0.136673
0.216685
0.141593
0.204771
0.142973
0.190633
0.140687
0.17458
0.134744
0.156958
0.125289
0.138143
0.112605
0.118534
0.0971088
0.0985451
0.0793419
0.0785965
0.0599589
0.0591081
0.0397117
0.0404898
0.0194301
0.0231346
0.00741009
0.0891063
0.206723
0.10331
0.206228
0.115793
0.203275
0.126079
0.197943
0.133754
0.190348
0.138482
0.180648
0.140016
0.169033
0.138205
0.155729
0.133008
0.140986
0.124491
0.125084
0.112832
0.108317
0.0983192
0.0909982
0.0813479
0.0734472
0.0624113
0.0559882
0.0420916
0.0389437
0.0210477
0.022629
0.00734625
0.0886666
0.177887
0.101587
0.177667
0.112967
0.175438
0.122391
0.171253
0.129492
0.165194
0.133962
0.157367
0.13556
0.147909
0.134124
0.136978
0.129572
0.124755
0.121908
0.111441
0.111229
0.0972504
0.0977175
0.0824141
0.0816456
0.0671707
0.0633693
0.051765
0.0433227
0.0364442
0.0220108
0.0214544
0.00703626
0.0869885
0.151228
0.0986508
0.151208
0.108941
0.14956
0.117498
0.146317
0.123996
0.141532
0.128154
0.135278
0.129745
0.127648
0.128596
0.118751
0.1246
0.108715
0.117717
0.0976806
0.107975
0.0858018
0.0954756
0.0732441
0.0803906
0.0601814
0.0629616
0.0467945
0.0434969
0.0332679
0.0223672
0.0197884
0.00654181
0.0841565
0.126887
0.0945957
0.127004
0.103819
0.125813
0.111513
0.123331
0.117392
0.119594
0.121201
0.114649
0.122725
0.108556
0.121792
0.10139
0.118277
0.093237
0.112108
0.0841939
0.103264
0.0743681
0.0917832
0.0638756
0.0777572
0.0528399
0.0613354
0.0413907
0.0427221
0.0296623
0.0221746
0.0177922
0.00591952
0.0802725
0.104935
0.0895317
0.105136
0.0977197
0.104295
0.104566
0.102423
0.10982
0.0995388
0.113253
0.0956724
0.114666
0.0908623
0.113891
0.0851566
0.110794
0.078612
0.105282
0.0712933
0.0973013
0.0632728
0.0868395
0.0546296
0.0739294
0.045449
0.0586479
0.0358213
0.0411158
0.0258413
0.0214977
0.0156071
0.00521948
0.0754485
0.0853763
0.083577
0.0856175
0.0907679
0.0850405
0.0967894
0.0836486
0.101423
0.0814522
0.104465
0.0784682
0.105735
0.0747199
0.105073
0.070237
0.102344
0.0650554
0.0974412
0.0592167
0.0902896
0.0527681
0.0808441
0.0457616
0.0690932
0.038254
0.0550593
0.0303064
0.0387992
0.0219833
0.0204043
0.0133526
0.00448448
0.0697992
0.0681612
0.0768506
0.0684108
0.0830879
0.0680267
0.0883136
0.0670088
0.0923391
0.0653612
0.094987
0.0630928
0.0960934
0.0602164
0.0955104
0.0567494
0.0931077
0.0527133
0.0887753
0.0481336
0.0824243
0.0430397
0.0739891
0.0374646
0.0634283
0.0314447
0.0507258
0.0250196
0.0358916
0.0182317
0.018962
0.0111259
0.00374973
0.0634354
0.053198
0.0694657
0.0534325
0.074796
0.0531857
0.0792603
0.0524551
0.0826976
0.0512416
0.0849548
0.0495486
0.0858871
0.0473825
0.0853609
0.0447527
0.0832546
0.041671
0.0794602
0.0381523
0.0738848
0.034214
0.0664518
0.0298758
0.0571018
0.02516
0.0457939
0.0200912
0.0325058
0.014696
0.0172354
0.00900318
0.00304303
0.0564574
0.0403634
0.0615231
0.0405679
0.0659952
0.0404155
0.0697356
0.039903
0.0726098
0.0390294
0.0744874
0.0377952
0.0752438
0.036203
0.0747613
0.0342571
0.0729301
0.0319634
0.0696497
0.0293299
0.0648293
0.026366
0.0583897
0.0230831
0.0502633
0.0194939
0.0403954
0.015613
0.0287447
0.0114561
0.0152838
0.00704068
0.00238531
0.0489498
0.0295152
0.0531066
0.0296813
0.0567692
0.0295914
0.0598257
0.0292425
0.0621655
0.0286326
0.0636807
0.0277611
0.0642667
0.0266282
0.0638231
0.0252355
0.0622546
0.0235855
0.0594714
0.021682
0.0553905
0.0195297
0.0499362
0.0171345
0.0430407
0.0145033
0.0346446
0.011644
0.0246977
0.00856551
0.0131597
0.00527773
0.00179142
0.0409778
0.0205024
0.0442788
0.0206274
0.04718
0.0205772
0.049593
0.0203494
0.0514301
0.0199421
0.0526047
0.0193541
0.0530322
0.0185848
0.0526303
0.0176344
0.0513197
0.0165036
0.0490247
0.0151939
0.0456734
0.0137073
0.0411987
0.0120466
0.0355384
0.0102151
0.0286358
0.00821692
0.0204403
0.0060566
0.0109076
0.0037394
0.00127115
0.0325845
0.0131757
0.0350795
0.0132607
0.0372652
0.0132346
0.0390751
0.0130954
0.0404427
0.0128418
0.0413022
0.0124725
0.0415886
0.0119869
0.0412381
0.0113846
0.0401887
0.0106656
0.0383802
0.00983009
0.035755
0.00887897
0.032258
0.00781328
0.0278371
0.00663448
0.0224438
0.00534442
0.0160331
0.00394526
0.00856402
0.00243957
0.00083022
0.0237905
0.00739519
0.025525
0.0074448
0.0270384
0.00743254
0.0282844
0.0073573
0.029217
0.00721814
0.0297899
0.00701431
0.0299576
0.00674523
0.0296748
0.00641051
0.0288973
0.00600993
0.0275818
0.00554348
0.0256863
0.00501133
0.0231704
0.00441381
0.0199954
0.00375148
0.0161243
0.00302506
0.0115225
0.00223546
0.00615771
0.00138377
0.000471284
0.0145949
0.0030374
0.0156094
0.00305821
0.0164903
0.00305375
0.0172106
0.00302353
0.0177432
0.00296714
0.018061
0.00288424
0.018137
0.00277455
0.0179446
0.00263788
0.0174573
0.00247408
0.0166494
0.0022831
0.0154955
0.00206495
0.0139711
0.00181969
0.0120526
0.0015475
0.00971724
0.00124858
0.00694342
0.000923243
0.00371072
0.000571852
0.000194848
0.00497742
3.91034e-18
0.0053077
3.101e-18
0.00559281
3.32354e-18
0.00582397
3.23414e-18
0.00599234
2.51733e-18
0.0060891
2.3959e-18
0.00610541
2.28005e-18
0.00603253
1.70891e-18
0.00586181
1.18893e-18
0.00558475
8.48181e-19
0.00519301
4.79401e-19
0.00467849
4.81864e-19
0.00403332
5.98895e-19
0.00324994
4.19787e-19
0.00232111
2.14351e-19
0.00123995
8.59229e-20
1.7194e-20
-0.00509693
-0.00179529
-0.00542004
-0.00180749
-0.00569707
-0.00180475
-0.00591941
-0.00178679
-0.0060784
-0.00175336
-0.00616539
-0.00170427
-0.00617175
-0.00163936
-0.00608893
-0.00155851
-0.00590848
-0.00146165
-0.00562208
-0.00134874
-0.00522161
-0.00121979
-0.00469915
-0.00107485
-0.00404706
-0.000914014
-0.00325795
-0.000737418
-0.0023248
-0.00054524
-0.00124091
-0.0003377
-0.000115058
-0.015673
-0.00240171
-0.0166228
-0.00241748
-0.0174306
-0.00241315
-0.0180712
-0.00238838
-0.018519
-0.00234285
-0.0187486
-0.00227635
-0.0187348
-0.0021887
-0.0184527
-0.00207977
-0.0178775
-0.00194952
-0.0169854
-0.00179793
-0.0157528
-0.00162509
-0.014157
-0.00143111
-0.0121761
-0.00121618
-0.00978927
-0.000980542
-0.00697655
-0.000724496
-0.00371927
-0.000448408
-0.000152697
-0.0267989
-0.00184826
-0.028352
-0.00185951
-0.0296608
-0.00185516
-0.0306836
-0.00183496
-0.031379
-0.00179873
-0.0317053
-0.00174634
-0.031622
-0.0016777
-0.0310886
-0.00159279
-0.0300659
-0.00149161
-0.0285157
-0.00137424
-0.026401
-0.0012408
-0.0236863
-0.00109146
-0.0203379
-0.000926448
-0.0163239
-0.000746029
-0.0116142
-0.000550524
-0.00618137
-0.0003403
-0.00011577
-0.0385194
-0.000142088
-0.0406545
-0.000141856
-0.0424345
-0.000140399
-0.0438019
-0.000137732
-0.0446995
-0.000133875
-0.0450709
-0.000128855
-0.0448608
-0.000122703
-0.0440153
-0.000115453
-0.0424822
-0.000107143
-0.0402112
-9.78134e-05
-0.0371547
-8.75078e-05
-0.0332672
-7.62709e-05
-0.0285064
-6.41486e-05
-0.0228332
-5.11876e-05
-0.0162117
-3.74348e-05
-0.00861006
-2.29368e-05
-7.73963e-06
-0.0508685
0.0027276
-0.0535652
0.00274457
-0.0557855
0.00273788
-0.0574563
0.00270721
-0.0585056
0.00265234
-0.0588631
0.00257315
-0.0584605
0.00246962
-0.0572321
0.00234185
-0.0551152
0.00219001
-0.0520507
0.00201442
-0.0479831
0.00181548
-0.0428615
0.00159369
-0.0366393
0.00134967
-0.0292752
0.00108414
-0.0207332
0.000797901
-0.0109829
0.000491863
0.000167026
-0.0638626
0.00678452
-0.0670998
0.00682112
-0.0697267
0.00679772
-0.071655
0.00671375
-0.0727986
0.00656893
-0.0730747
0.00636331
-0.072404
0.00609723
-0.0707113
0.00577134
-0.0679268
0.00538661
-0.0639858
0.00494431
-0.0588299
0.00444599
-0.0524073
0.00389352
-0.0446733
0.00328902
-0.0355906
0.0026349
-0.0251299
0.00193385
-0.0132705
0.00118877
0.000402827
-0.0774939
0.0120593
-0.0812484
0.0121155
-0.0842439
0.0120625
-0.0863774
0.0118997
-0.0875499
0.0116272
-0.0876674
0.0112458
-0.0866421
0.0107567
-0.0843927
0.0101621
-0.0808458
0.00946446
-0.0759361
0.00866717
-0.0696077
0.0077741
-0.0618143
0.00678971
-0.0525198
0.00571903
-0.0416992
0.00456765
-0.0293386
0.00334161
-0.0154356
0.00204745
0.000692117
-0.091725
0.0185831
-0.0959701
0.018655
-0.0992907
0.0185541
-0.101569
0.0182802
-0.102696
0.0178344
-0.102566
0.0172189
-0.101089
0.0164371
-0.0981784
0.0154936
-0.0937639
0.0143943
-0.087785
0.013146
-0.0801949
0.0117567
-0.0709605
0.0102353
-0.0600631
0.00859187
-0.047499
0.00683714
-0.0332797
0.00498274
-0.0174324
0.00304103
0.00102499
-0.106485
0.0263805
-0.111189
0.0264599
-0.114784
0.0262865
-0.117139
0.025861
-0.118133
0.0251865
-0.117658
0.0242681
-0.115617
0.0231127
-0.111931
0.0217296
-0.106534
0.0201296
-0.0993778
0.0183256
-0.0904341
0.0163321
-0.0796916
0.0141653
-0.0671591
0.0118426
-0.052865
0.00938304
-0.0368581
0.00680669
-0.019207
0.00413461
0.00138868
-0.121666
0.035463
-0.126792
0.0355369
-0.130603
0.0352589
-0.132956
0.0346319
-0.133721
0.0336623
-0.132787
0.0323599
-0.130061
0.0307377
-0.125472
0.0288117
-0.118968
0.026601
-0.110522
0.0241274
-0.100133
0.0214154
-0.0878221
0.0184918
-0.0736373
0.0153855
-0.0576518
0.0121271
-0.0399642
0.00874885
-0.0206979
0.00528414
0.0017672
-0.137124
0.0458225
-0.142629
0.0458724
-0.146589
0.0454496
-0.14885
0.0445605
-0.149277
0.0432171
-0.147761
0.0414362
-0.144215
0.0392397
-0.138585
0.0366542
-0.130842
0.0337108
-0.120991
0.0304444
-0.109067
0.0268939
-0.095138
0.0231012
-0.0793036
0.0191112
-0.0616957
0.0149709
-0.0424766
0.010729
-0.0218382
0.00643562
0.00214113
-0.152677
0.0574255
-0.158512
0.0574274
-0.162546
0.0568108
-0.164616
0.0555876
-0.164585
0.0537779
-0.162349
0.051409
-0.157838
0.0485158
-0.15102
0.0451399
-0.141901
0.0413294
-0.130527
0.0371379
-0.116985
0.0326241
-0.101403
0.027851
-0.083946
0.0228849
-0.0648199
0.0177947
-0.0442656
0.012651
-0.0225575
0.00752493
0.00248758
-0.168113
0.0702084
-0.174221
0.0701328
-0.178247
0.0692643
-0.180017
0.0676227
-0.179396
0.0652396
-0.176293
0.0621574
-0.17066
0.0584289
-0.162499
0.0541169
-0.151862
0.0492927
-0.13885
0.0440354
-0.123617
0.0384306
-0.106364
0.0325691
-0.0873404
0.0265457
-0.0668406
0.0204574
-0.0451986
0.0144024
-0.0227849
0.00847827
0.00278041
-0.18319
0.0840737
-0.189512
0.0838862
-0.193439
0.0826986
-0.194791
0.0805418
-0.19344
0.077463
-0.189311
0.0735254
-0.18239
0.0688064
-0.172725
0.0633973
-0.160426
0.0574007
-0.145666
0.0509296
-0.12868
0.0441049
-0.109762
0.0370539
-0.0892601
0.0299074
-0.067574
0.0227977
-0.0451455
0.0158568
-0.0224523
0.00921336
0.00299078
-0.197646
0.0988877
-0.204117
0.0985501
-0.20785
0.0969677
-0.20866
0.0941861
-0.206428
0.090274
-0.201108
0.0853217
-0.192727
0.07944
-0.181393
0.0727575
-0.167289
0.0654185
-0.150677
0.0575799
-0.131893
0.0494083
-0.11134
0.0410766
-0.0894842
0.032761
-0.066845
0.0246368
-0.0439848
0.0168755
-0.0214984
0.00964135
0.00308785
-0.211205
0.11448
-0.217762
0.113952
-0.221203
0.111891
-0.22134
0.108363
-0.218072
0.103465
-0.211387
0.0973213
-0.201369
0.0900875
-0.188197
0.0819409
-0.172149
0.0730791
-0.153593
0.0637154
-0.132985
0.054074
-0.110856
0.0443849
-0.0878084
0.0348788
-0.0644955
0.0257821
-0.0416111
0.0173115
-0.0198719
0.00966957
0.00303983
-0.223591
0.130643
-0.230169
0.129884
-0.233218
0.127256
-0.232551
0.12285
-0.228087
0.116796
-0.219861
0.109269
-0.208025
0.100477
-0.192851
0.090661
-0.174725
0.0800871
-0.154146
0.0690393
-0.131708
0.0578131
-0.108094
0.0467079
-0.0840547
0.0360197
-0.0603934
0.026033
-0.0379412
0.0170142
-0.0175363
0.00920485
0.00281529
-0.234532
0.147136
-0.241071
0.146109
-0.243632
0.142822
-0.242029
0.137394
-0.236209
0.130004
-0.226265
0.120883
-0.212431
0.110311
-0.195091
0.0986079
-0.174764
0.0861255
-0.152097
0.0732356
-0.127849
0.0603209
-0.102871
0.0477639
-0.0780824
0.035936
-0.0544417
0.025187
-0.0329208
0.0158349
-0.0144726
0.00815759
0.00238463
-0.243774
0.163686
-0.250221
0.162361
-0.252203
0.158322
-0.249536
0.151724
-0.242203
0.142803
-0.230364
0.131863
-0.214357
0.119274
-0.194695
0.105455
-0.172053
0.0908629
-0.147254
0.0759769
-0.121242
0.0612851
-0.0950564
0.0472678
-0.0697967
0.034382
-0.0465857
0.0230474
-0.0265306
0.0136332
-0.0106832
0.00644621
0.00172176
-0.251091
0.179998
-0.257403
0.178355
-0.258724
0.173474
-0.254872
0.165553
-0.245874
0.154896
-0.231971
0.1419
-0.21362
0.127044
-0.191489
0.110869
-0.166434
0.093962
-0.139477
0.0769332
-0.111775
0.0603952
-0.0845714
0.0449408
-0.0591578
0.0311223
-0.0368206
0.0194318
-0.0187911
0.0102841
-0.00619424
0.00400205
0.000805836
0.401299
-0.0252887
-0.407099
0.392525
-0.0168863
0.380947
-0.00802196
0.366779
0.00108894
0.350275
0.0102142
0.331716
0.0191116
0.3114
0.0275363
0.289637
0.0352474
0.266735
0.0420149
0.242995
0.0476258
0.218703
0.0518894
0.194124
0.0546411
0.169496
0.0557462
0.145033
0.055102
0.120916
0.0526391
0.0972984
0.0483219
0.0743064
0.0421487
0.0520395
0.034151
0.0305743
0.0243923
0.00996781
0.0129672
-0.00973871
-4.03011e-15
-0.0285162
-0.014357
-0.0463442
-0.0299247
-0.0632069
-0.0464997
-0.0790907
-0.0638556
-0.0939814
-0.081746
-0.107862
-0.0999078
-0.120712
-0.118064
-0.132505
-0.13593
-0.143211
-0.153217
-0.152796
-0.169637
-0.161222
-0.184913
-0.16845
-0.198782
-0.174442
-0.211004
-0.179163
-0.22137
-0.182586
-0.229704
-0.18469
-0.235873
-0.185469
-0.239789
-0.184928
-0.241416
-0.183091
-0.240763
-0.237895
0.398257
-0.00983742
-0.403169
0.39025
-0.00182445
0.379322
0.00655439
0.365694
0.0150859
0.349628
0.0235427
0.331415
0.0316897
0.311366
0.0392916
0.289798
0.046119
0.267033
0.0519549
0.24338
0.0566004
0.219134
0.0598794
0.194568
0.0616424
0.169929
0.0617695
0.145433
0.0601717
0.12127
0.0567928
0.0975971
0.051609
0.0745425
0.0446288
0.052209
0.0358926
0.0306756
0.0254709
0.0100012
0.013464
-0.00977143
3.5293e-20
-0.0286118
-0.0147664
-0.0464981
-0.0306551
-0.0634133
-0.0474628
-0.0793427
-0.0649647
-0.0942704
-0.0829168
-0.108178
-0.101059
-0.121043
-0.119118
-0.132837
-0.136814
-0.143528
-0.153861
-0.153079
-0.169978
-0.161449
-0.184892
-0.168597
-0.198344
-0.174482
-0.210099
-0.179066
-0.219952
-0.182319
-0.227731
-0.18422
-0.233306
-0.184759
-0.236596
-0.183943
-0.237564
-0.181794
-0.236229
-0.232656
0.388674
0.00499626
-0.391937
0.382118
0.0125965
0.372457
0.0204704
0.359926
0.0284063
0.344803
0.0361817
0.327395
0.0435689
0.308028
0.0503425
0.287038
0.0562854
0.264758
0.0611943
0.241513
0.0648853
0.217609
0.0671977
0.19333
0.0679977
0.168931
0.0671806
0.144639
0.0646721
0.120648
0.0604292
0.0971223
0.0544404
0.0741952
0.0467248
0.0519738
0.0373313
0.0305406
0.0263379
0.00995775
0.0138502
-0.00972914