/*--------------------------------*- C++ -*----------------------------------*\
  =========                 |
  \\      /  F ield         | OpenFOAM: The Open Source CFD Toolbox
   \\    /   O peration     | Website:  https://openfoam.org
    \\  /    A nd           | Version:  6
     \\/     M anipulation  |
\*---------------------------------------------------------------------------*/
FoamFile
{
    version     2.0;
    format      ascii;
    class       volScalarField;
    location    "4.49";
    object      rho;
}
// * * * * * * * * * * * * * * * * * * * * * * * * * * * * * * * * * * * * * //

dimensions      [1 -3 0 0 0 0 0];

internalField   nonuniform List<scalar> 
10000
(
1.4
1.4
1.4
1.4
1.4
1.4
1.4
1.4
1.4
1.40001
1.4
1.40001
1.4
1.40001
1.4
1.40001
1.4
1.40001
1.4
1.40001
1.4
1.40001
1.4
1.40001
1.40001
1.4
1.4
1.40001
1.40001
1.4
1.4
1.4
1.40001
1.4
1.4
1.40001
1.40001
1.40001
1.40001
1.40001
1.40001
1.40002
1.40002
1.40003
1.40005
1.40006
1.40007
1.40007
1.40008
1.40008
1.40008
1.4001
1.40014
1.40022
1.40035
1.40056
1.40085
1.40123
1.40169
1.40223
1.40283
1.40347
1.40413
1.40477
1.40537
1.40591
1.40636
1.40669
1.40691
1.407
1.40695
1.40679
1.40651
1.40613
1.40566
1.40514
1.40459
1.40401
1.40344
1.40288
1.40237
1.40189
1.40147
1.40111
1.4008
1.40056
1.40036
1.40022
1.40011
1.40004
1.4
1.39998
1.39997
1.39997
1.39997
1.39998
1.39998
1.39999
1.39999
1.4
1.4
1.4
1.4
1.4
1.4
1.4
1.4
1.4
1.4
1.40001
1.4
1.40001
1.4
1.40001
1.4
1.40001
1.4
1.40001
1.4
1.40001
1.40001
1.4
1.40001
1.40001
1.4
1.4
1.40001
1.4
1.40001
1.40001
1.4
1.4
1.40001
1.40001
1.4
1.4
1.40001
1.40001
1.40001
1.40001
1.40001
1.40002
1.40003
1.40004
1.40006
1.40008
1.40009
1.4001
1.40011
1.40012
1.40013
1.40018
1.40028
1.40046
1.40074
1.40114
1.40167
1.40233
1.40311
1.40399
1.40494
1.40592
1.40689
1.40781
1.40864
1.40933
1.40987
1.41022
1.41038
1.41034
1.41012
1.40972
1.40916
1.40849
1.40772
1.4069
1.40605
1.40521
1.4044
1.40365
1.40295
1.40233
1.4018
1.40134
1.40097
1.40067
1.40044
1.40026
1.40014
1.40006
1.40001
1.39998
1.39996
1.39996
1.39997
1.39997
1.39998
1.39999
1.39999
1.4
1.4
1.4
1.4
1.4
1.4
1.4
1.4
1.40001
1.4
1.40001
1.4
1.40001
1.4
1.40001
1.40001
1.4
1.4
1.40001
1.4
1.4
1.40001
1.4
1.4
1.40001
1.4
1.4
1.40001
1.40001
1.4
1.40001
1.4
1.4
1.40001
1.40001
1.4
1.4
1.40001
1.40001
1.40001
1.40001
1.40001
1.40002
1.40004
1.40005
1.40008
1.4001
1.40012
1.40014
1.40015
1.40017
1.40022
1.40033
1.40054
1.40089
1.40141
1.40212
1.40303
1.40412
1.40537
1.40674
1.40816
1.40959
1.41097
1.41222
1.4133
1.41415
1.41474
1.41505
1.41508
1.41482
1.41429
1.41353
1.41258
1.41149
1.4103
1.40906
1.40783
1.40665
1.40553
1.40452
1.40362
1.40284
1.40216
1.40161
1.40115
1.4008
1.40052
1.40032
1.40017
1.40007
1.40001
1.39998
1.39996
1.39996
1.39996
1.39997
1.39997
1.39998
1.39999
1.39999
1.39999
1.4
1.4
1.4
1.4
1.4
1.4
1.4
1.4
1.4
1.40001
1.4
1.40001
1.4
1.40001
1.40001
1.4
1.40001
1.4
1.4
1.40001
1.4
1.4
1.40001
1.40001
1.4
1.4
1.40001
1.40001
1.4
1.4
1.40001
1.40001
1.4
1.40001
1.4
1.40001
1.40001
1.40001
1.40001
1.40002
1.40003
1.40005
1.40007
1.4001
1.40013
1.40016
1.40018
1.40021
1.40025
1.40036
1.40059
1.40098
1.40161
1.40251
1.4037
1.40517
1.40689
1.40878
1.4108
1.41284
1.41483
1.41668
1.4183
1.41963
1.42061
1.4212
1.42139
1.42118
1.42057
1.41962
1.41837
1.41687
1.41521
1.41346
1.41168
1.40995
1.40834
1.40686
1.40553
1.40438
1.40339
1.40257
1.40189
1.40135
1.40093
1.40061
1.40037
1.4002
1.40009
1.40002
1.39998
1.39996
1.39995
1.39996
1.39996
1.39997
1.39998
1.39998
1.39999
1.39999
1.39999
1.4
1.4
1.4
1.4
1.4
1.4
1.40001
1.4
1.40001
1.4
1.40001
1.4
1.4
1.4
1.40001
1.4
1.4
1.40001
1.4
1.4
1.40001
1.40001
1.4
1.40001
1.4
1.40001
1.40001
1.4
1.4
1.40001
1.40001
1.4
1.4
1.40001
1.40001
1.40001
1.40001
1.40001
1.40002
1.40003
1.40006
1.40009
1.40013
1.40017
1.40021
1.40024
1.40028
1.40037
1.40058
1.401
1.4017
1.40277
1.40425
1.40614
1.40839
1.41094
1.41367
1.41648
1.41925
1.42187
1.42422
1.4262
1.42775
1.42879
1.4293
1.42929
1.42875
1.4277
1.42621
1.42432
1.42213
1.41974
1.41726
1.41481
1.41247
1.41031
1.40837
1.40667
1.40523
1.40402
1.40302
1.40221
1.40157
1.40108
1.4007
1.40043
1.40024
1.40011
1.40003
1.39998
1.39996
1.39995
1.39995
1.39995
1.39996
1.39997
1.39998
1.39998
1.39998
1.39999
1.39999
1.4
1.4
1.4
1.4
1.4
1.40001
1.4
1.40001
1.4
1.40001
1.40001
1.40001
1.4
1.40001
1.40001
1.39999
1.40002
1.40001
1.39999
1.40001
1.40001
1.4
1.4
1.40001
1.4
1.4
1.40001
1.4
1.40001
1.40001
1.4
1.4
1.40001
1.40001
1.40001
1.40001
1.40001
1.40002
1.40004
1.40007
1.40011
1.40016
1.40022
1.40026
1.4003
1.40038
1.40055
1.40093
1.40165
1.40283
1.40455
1.40686
1.4097
1.41298
1.41655
1.42026
1.42395
1.42747
1.43069
1.43348
1.43574
1.43739
1.4384
1.43878
1.43852
1.43763
1.43614
1.43407
1.43145
1.42843
1.42515
1.4218
1.41853
1.41542
1.41259
1.4101
1.40796
1.40617
1.40469
1.4035
1.40255
1.40181
1.40124
1.40081
1.4005
1.40028
1.40013
1.40004
1.39998
1.39995
1.39994
1.39994
1.39995
1.39995
1.39996
1.39997
1.39998
1.39998
1.39999
1.39999
1.39999
1.4
1.4
1.4
1.4
1.4
1.40001
1.4
1.40001
1.4
1.40001
1.40001
1.4
1.40002
1.4
1.4
1.40001
1.40001
1.4
1.4
1.40001
1.4
1.39999
1.40001
1.40001
1.4
1.4
1.40001
1.40001
1.4
1.4
1.4
1.40001
1.40001
1.40001
1.40001
1.40001
1.40003
1.40005
1.40008
1.40014
1.4002
1.40027
1.40032
1.40038
1.4005
1.40081
1.40146
1.40265
1.40452
1.40718
1.41059
1.41464
1.41912
1.42382
1.42852
1.43301
1.43714
1.44076
1.44376
1.44606
1.44765
1.44854
1.44877
1.44834
1.44727
1.44552
1.443
1.43973
1.43584
1.43155
1.42714
1.42284
1.41885
1.41524
1.41208
1.40941
1.40721
1.40544
1.40403
1.40292
1.40206
1.40141
1.40093
1.40058
1.40033
1.40016
1.40005
1.39998
1.39995
1.39993
1.39993
1.39994
1.39995
1.39995
1.39996
1.39997
1.39997
1.39998
1.39999
1.39999
1.4
1.4
1.4
1.4
1.4
1.40001
1.39999
1.40001
1.4
1.40001
1.4
1.4
1.40003
1.39999
1.4
1.40003
1.39999
1.4
1.40002
1.4
1.4
1.40001
1.4
1.40001
1.4
1.4
1.40001
1.40001
1.4
1.4
1.40001
1.40001
1.40001
1.40001
1.40001
1.40001
1.40003
1.40005
1.4001
1.40017
1.40025
1.40033
1.40039
1.40047
1.40068
1.40119
1.40225
1.40412
1.40699
1.41088
1.41566
1.42108
1.4268
1.43251
1.43794
1.44289
1.44719
1.45075
1.45351
1.45548
1.45675
1.45743
1.45761
1.45733
1.4565
1.45495
1.45247
1.44898
1.44443
1.43907
1.43339
1.42782
1.42276
1.4183
1.41438
1.41108
1.4084
1.40627
1.4046
1.40331
1.40234
1.4016
1.40105
1.40066
1.40038
1.40019
1.40007
1.39999
1.39995
1.39993
1.39992
1.39993
1.39993
1.39994
1.39995
1.39996
1.39996
1.39997
1.39998
1.39998
1.39999
1.39999
1.4
1.4
1.4
1.4
1.40001
1.39998
1.40002
1.40002
1.39997
1.40004
1.4
1.39999
1.40001
1.40002
1.40001
1.39998
1.40002
1.40002
1.39998
1.40001
1.40002
1.4
1.4
1.4
1.40001
1.40001
1.4
1.4
1.40001
1.40001
1.4
1.4
1.40001
1.40002
1.40003
1.40006
1.40012
1.4002
1.4003
1.40039
1.40046
1.40058
1.40091
1.40174
1.40341
1.40624
1.41041
1.41582
1.42213
1.42886
1.43554
1.44178
1.44733
1.45201
1.45572
1.45844
1.46028
1.4614
1.46207
1.46253
1.46295
1.46334
1.46347
1.46297
1.46146
1.45852
1.45388
1.4478
1.4408
1.43371
1.42728
1.42168
1.41696
1.41302
1.40977
1.40722
1.40525
1.40376
1.40264
1.4018
1.40119
1.40075
1.40044
1.40023
1.40009
1.4
1.39995
1.39992
1.39991
1.39992
1.39992
1.39993
1.39994
1.39995
1.39995
1.39996
1.39997
1.39998
1.39998
1.39999
1.4
1.39999
1.40001
1.39999
1.4
1.40001
1.39999
1.40003
1.39997
1.40002
1.40004
1.39994
1.40004
1.40002
1.39997
1.40002
1.4
1.40001
1.4
1.39999
1.40003
1.40001
1.39999
1.40001
1.40001
1.4
1.4
1.4
1.40001
1.40001
1.4
1.4
1.40001
1.40002
1.40003
1.40007
1.40014
1.40024
1.40035
1.40045
1.40053
1.40071
1.40124
1.40253
1.40505
1.40918
1.41497
1.42205
1.42977
1.43738
1.4443
1.45018
1.45481
1.45813
1.46016
1.46105
1.46114
1.46087
1.46073
1.46109
1.46218
1.46394
1.46599
1.46772
1.46835
1.46706
1.46343
1.45743
1.44955
1.44092
1.43262
1.42554
1.41988
1.41518
1.41137
1.40836
1.40601
1.40431
1.403
1.40205
1.40136
1.40086
1.40051
1.40027
1.40012
1.40001
1.39995
1.39992
1.39991
1.39991
1.39991
1.39992
1.39993
1.39994
1.39994
1.39995
1.39996
1.39998
1.39997
1.39999
1.39999
1.4
1.39998
1.40003
1.39996
1.4
1.40007
1.3999
1.40008
1.39999
1.39998
1.40003
1.39997
1.40007
1.39996
1.39998
1.40007
1.39997
1.4
1.40003
1.39999
1.40001
1.4
1.4
1.40002
1.4
1.39999
1.40001
1.40001
1.4
1.40001
1.40001
1.40001
1.40002
1.40004
1.40008
1.40016
1.40028
1.40041
1.40051
1.40061
1.40088
1.4017
1.40364
1.40732
1.41308
1.4207
1.42935
1.43793
1.4455
1.4515
1.45572
1.45814
1.45882
1.45797
1.45603
1.45368
1.45167
1.45067
1.45115
1.45333
1.45713
1.46211
1.46725
1.47122
1.47299
1.47177
1.46707
1.4592
1.44936
1.43923
1.43031
1.42319
1.41758
1.41317
1.40965
1.40695
1.40494
1.40343
1.40236
1.40156
1.40099
1.4006
1.40033
1.40015
1.40003
1.39996
1.39992
1.3999
1.3999
1.3999
1.39991
1.39992
1.39993
1.39993
1.39994
1.39995
1.39997
1.39997
1.39998
1.39999
1.39997
1.40002
1.39995
1.40007
1.39991
1.40009
1.4
1.39986
1.40024
1.39983
1.4
1.40013
1.3999
1.40005
1.39999
1.40002
1.40003
1.39994
1.40005
1.40001
1.39997
1.40002
1.4
1.4
1.40002
1.39999
1.4
1.40002
1.4
1.4
1.40001
1.40001
1.40002
1.40004
1.40009
1.40019
1.40033
1.40047
1.40057
1.4007
1.4011
1.40234
1.40518
1.41036
1.41805
1.42747
1.43712
1.4455
1.45166
1.45529
1.45648
1.45541
1.45231
1.44764
1.44225
1.43718
1.4334
1.43164
1.43236
1.43581
1.44203
1.45063
1.46022
1.46896
1.47511
1.4774
1.47525
1.46873
1.45873
1.44705
1.43619
1.42719
1.42041
1.41523
1.41115
1.40805
1.40569
1.40396
1.40276
1.4018
1.40119
1.40072
1.40041
1.4002
1.40006
1.39998
1.39993
1.3999
1.39989
1.39989
1.3999
1.39991
1.39992
1.39992
1.39993
1.39995
1.39994
1.39997
1.39995
1.4
1.39994
1.40004
1.39997
1.39991
1.40021
1.39972
1.40021
1.39995
1.39989
1.40023
1.39973
1.40019
1.40001
1.39984
1.40017
1.39994
1.39999
1.40003
1.39998
1.40005
1.39998
1.39999
1.40004
1.39999
1.4
1.40001
1.4
1.40001
1.40001
1.4
1.40001
1.40001
1.40001
1.40004
1.40011
1.40021
1.40037
1.40052
1.40063
1.40079
1.4014
1.40321
1.40725
1.41429
1.42402
1.43481
1.44439
1.45107
1.45428
1.45421
1.4513
1.44587
1.43835
1.42954
1.42074
1.41323
1.40797
1.40555
1.4063
1.41057
1.41871
1.43079
1.4457
1.46067
1.47252
1.47942
1.48094
1.47712
1.46803
1.45573
1.44312
1.4319
1.42394
1.41765
1.41289
1.40939
1.40656
1.40462
1.40321
1.40212
1.40144
1.40088
1.40052
1.40027
1.40011
1.4
1.39994
1.3999
1.39989
1.39988
1.39989
1.39989
1.39991
1.3999
1.39991
1.39994
1.39993
1.39995
1.39999
1.39989
1.4001
1.39981
1.4002
1.39978
1.40009
1.40018
1.3995
1.40062
1.39962
1.39997
1.40034
1.39962
1.40028
1.39988
1.39997
1.40015
1.39985
1.40008
1.40001
1.39998
1.40005
1.39995
1.40003
1.40002
1.39997
1.40002
1.40001
1.4
1.40001
1.4
1.40001
1.40001
1.40002
1.40004
1.40012
1.40024
1.40041
1.40057
1.40068
1.4009
1.40179
1.40438
1.40996
1.41915
1.43075
1.44196
1.44992
1.45329
1.4523
1.44776
1.4403
1.43032
1.41845
1.40599
1.39458
1.38548
1.37929
1.37625
1.37648
1.38035
1.38868
1.40271
1.42234
1.44443
1.46408
1.47752
1.48354
1.48287
1.47635
1.46496
1.45062
1.43791
1.42778
1.42037
1.41508
1.41099
1.40759
1.40565
1.40355
1.40272
1.40164
1.40114
1.40067
1.40039
1.40018
1.40005
1.39997
1.39992
1.39989
1.39988
1.39988
1.39988
1.39989
1.39989
1.3999
1.39991
1.39993
1.39992
1.39997
1.39993
1.39996
1.4001
1.39965
1.4005
1.39943
1.4004
1.39991
1.39967
1.40069
1.3992
1.40051
1.40003
1.39959
1.40046
1.39974
1.40008
1.40006
1.39989
1.40012
1.39994
1.40003
1.40001
1.39998
1.40005
1.39997
1.39999
1.40004
1.39999
1.4
1.40002
1.4
1.40001
1.40002
1.40005
1.40013
1.40027
1.40045
1.40061
1.40072
1.40104
1.40231
1.40594
1.41342
1.42487
1.43771
1.44789
1.45255
1.45138
1.44567
1.43664
1.42488
1.41079
1.39543
1.38061
1.36815
1.35882
1.3526
1.34921
1.34856
1.35074
1.35674
1.36908
1.39018
1.41847
1.44756
1.47014
1.48229
1.48557
1.48249
1.47304
1.45914
1.44499
1.43196
1.42385
1.41741
1.41265
1.40924
1.40648
1.40437
1.40328
1.402
1.40145
1.40088
1.40054
1.40029
1.40012
1.40002
1.39995
1.3999
1.39988
1.39987
1.39988
1.39988
1.39988
1.3999
1.39988
1.39992
1.39997
1.39978
1.40021
1.39961
1.40031
1.39973
1.39995
1.4005
1.39899
1.40113
1.39926
1.40005
1.40055
1.39913
1.40087
1.39947
1.40004
1.40035
1.3996
1.40026
1.39992
1.39999
1.40007
1.39992
1.40006
1.39998
1.40001
1.40002
1.39997
1.40003
1.40001
1.39998
1.40002
1.40001
1.4
1.40003
1.40006
1.40014
1.40029
1.40048
1.40064
1.40076
1.40122
1.40302
1.40797
1.41768
1.4312
1.44414
1.45159
1.4516
1.44544
1.43532
1.42242
1.40709
1.3899
1.37256
1.35748
1.34615
1.33848
1.33359
1.33071
1.32965
1.33011
1.33232
1.33867
1.35488
1.38369
1.42023
1.45419
1.47661
1.48562
1.48505
1.47882
1.46731
1.45204
1.43813
1.42753
1.4201
1.41441
1.4113
1.40694
1.40614
1.40326
1.40291
1.40163
1.40125
1.40071
1.40047
1.40023
1.4001
1.4
1.39994
1.3999
1.39988
1.39987
1.39987
1.39988
1.39988
1.39989
1.39992
1.39986
1.40002
1.39973
1.40036
1.39926
1.40085
1.39914
1.40053
1.39991
1.39942
1.40123
1.39849
1.4011
1.39975
1.39949
1.40087
1.39917
1.40054
1.3999
1.3998
1.40027
1.39984
1.40009
1.39996
1.4
1.40007
1.39993
1.40003
1.40001
1.39999
1.40003
1.39999
1.39999
1.40002
1.4
1.40003
1.40007
1.40015
1.40031
1.40051
1.40066
1.40082
1.40147
1.40396
1.41056
1.4227
1.43767
1.44919
1.45236
1.44711
1.43639
1.42274
1.40691
1.38899
1.37016
1.35301
1.34036
1.33276
1.3289
1.3269
1.32571
1.32508
1.32481
1.32426
1.32395
1.32959
1.34917
1.38483
1.42745
1.46326
1.48176
1.48534
1.48175
1.47243
1.45898
1.44535
1.43154
1.42369
1.41681
1.41248
1.40901
1.40676
1.4042
1.40348
1.40215
1.40153
1.40103
1.40065
1.40039
1.40021
1.40008
1.4
1.39994
1.39991
1.39988
1.39988
1.3999
1.39985
1.39992
1.39989
1.39978
1.4002
1.39952
1.40028
1.39982
1.39969
1.40079
1.39859
1.40152
1.39888
1.40029
1.40054
1.39872
1.40165
1.39861
1.4006
1.4002
1.39939
1.40067
1.39952
1.40017
1.40011
1.39984
1.40009
1.39996
1.40008
1.39996
1.39997
1.40008
1.39997
1.4
1.40004
1.39998
1.40001
1.40001
1.40002
1.40006
1.40017
1.40033
1.40054
1.40068
1.40089
1.40181
1.40517
1.41378
1.42831
1.44368
1.4521
1.45003
1.43979
1.42555
1.40949
1.39168
1.37235
1.35375
1.33958
1.33236
1.33089
1.33209
1.3332
1.33332
1.33282
1.33261
1.33165
1.32885
1.32634
1.33235
1.3548
1.39371
1.43823
1.47092
1.48398
1.48195
1.4756
1.46439
1.4508
1.4375
1.42664
1.4205
1.41341
1.4121
1.40615
1.40674
1.40319
1.4032
1.4017
1.4015
1.40082
1.40063
1.40035
1.4002
1.40008
1.40001
1.39994
1.39992
1.39988
1.39989
1.39989
1.39993
1.39975
1.40018
1.39943
1.40062
1.39894
1.40104
1.399
1.40051
1.39988
1.39941
1.40138
1.39801
1.40176
1.3991
1.39989
1.40091
1.39859
1.40141
1.39918
1.40011
1.40031
1.39961
1.40036
1.3998
1.40002
1.40009
1.39996
1.40002
1.39994
1.40007
1.40002
1.39994
1.40004
1.40001
1.39999
1.40003
1.40003
1.40004
1.40017
1.40036
1.40055
1.4007
1.40099
1.40225
1.40672
1.41765
1.43419
1.44854
1.45251
1.44503
1.43075
1.41421
1.39675
1.37787
1.35861
1.34263
1.33461
1.33547
1.34119
1.34644
1.34823
1.34616
1.34253
1.34073
1.34122
1.3413
1.33936
1.33946
1.34694
1.36992
1.40831
1.44992
1.47659
1.48203
1.47725
1.46732
1.45471
1.44338
1.43008
1.42401
1.41631
1.41259
1.40884
1.40719
1.40441
1.40354
1.40256
1.40166
1.40126
1.40082
1.40055
1.40034
1.40019
1.40009
1.40001
1.39996
1.39993
1.3999
1.39998
1.39978
1.39999
1.39993
1.3997
1.40008
1.39998
1.39949
1.40079
1.39864
1.40149
1.39869
1.40062
1.40011
1.3989
1.402
1.39772
1.40165
1.39935
1.39981
1.40083
1.39889
1.40085
1.39974
1.39989
1.40016
1.39987
1.40016
1.3999
1.40001
1.40004
1.39998
1.40006
1.39996
1.4
1.40003
1.39998
1.40001
1.40004
1.40005
1.40018
1.40037
1.40055
1.40071
1.40114
1.4028
1.40868
1.4221
1.43988
1.45171
1.45047
1.43815
1.42108
1.40336
1.38532
1.36642
1.34902
1.33854
1.33957
1.34966
1.36105
1.36733
1.36659
1.35925
1.34877
1.34049
1.3389
1.34182
1.34566
1.3511
1.35923
1.37074
1.3917
1.42605
1.45991
1.47872
1.47716
1.46984
1.45832
1.44675
1.43652
1.42454
1.42109
1.41253
1.4131
1.4059
1.40724
1.40346
1.40362
1.40193
1.40179
1.40106
1.40082
1.40052
1.40035
1.40019
1.40011
1.4
1.39999
1.40002
1.39993
1.39983
1.40024
1.39929
1.40075
1.39889
1.40097
1.39906
1.40038
1.39984
1.39973
1.40079
1.39829
1.40202
1.39838
1.40076
1.40016
1.39876
1.402
1.39811
1.40114
1.39961
1.39981
1.40064
1.39932
1.4003
1.40005
1.39995
1.39997
1.39997
1.40012
1.39992
1.4
1.40005
1.39996
1.40004
1.40003
1.39995
1.40002
1.40009
1.4002
1.40036
1.40054
1.40075
1.40134
1.40351
1.41111
1.42698
1.44488
1.45294
1.44642
1.43029
1.41162
1.39362
1.37575
1.35806
1.34474
1.34265
1.35442
1.37259
1.38637
1.39165
1.38847
1.37767
1.36086
1.34303
1.3312
1.3279
1.332
1.34322
1.36321
1.382
1.3964
1.4154
1.44185
1.46723
1.47559
1.47184
1.46227
1.44931
1.44061
1.42752
1.42404
1.41597
1.4127
1.40904
1.40735
1.40521
1.40363
1.40309
1.40196
1.40158
1.40107
1.40078
1.40053
1.40034
1.40022
1.40011
1.40002
1.40011
1.39985
1.40023
1.39962
1.40014
1.39977
1.40015
1.39943
1.40055
1.39912
1.40096
1.39884
1.40085
1.39937
1.39993
1.40124
1.39757
1.40257
1.39806
1.4011
1.39994
1.39893
1.40154
1.39887
1.40054
1.39983
1.39986
1.40039
1.39974
1.4
1.40005
1.40007
1.39996
1.39993
1.40008
1.39999
1.39998
1.40006
1.4
1.39999
1.40008
1.4002
1.40035
1.40052
1.4008
1.40159
1.40441
1.41402
1.43199
1.44877
1.4523
1.44101
1.4222
1.40292
1.38534
1.36846
1.35342
1.34653
1.35491
1.37701
1.39957
1.41241
1.41659
1.41382
1.40408
1.38592
1.36222
1.33947
1.32314
1.31514
1.31916
1.34065
1.37404
1.40316
1.41963
1.4354
1.45397
1.47041
1.4718
1.46432
1.45332
1.44165
1.43594
1.42254
1.42129
1.41196
1.4135
1.40629
1.40751
1.40394
1.404
1.40241
1.40207
1.40142
1.40108
1.40075
1.40056
1.40034
1.40026
1.4001
1.40007
1.40013
1.40012
1.39953
1.40069
1.39905
1.40076
1.3992
1.40034
1.39979
1.40003
1.39983
1.39944
1.40146
1.398
1.40174
1.39869
1.40023
1.40138
1.39757
1.40226
1.39833
1.40101
1.40005
1.39904
1.40092
1.39966
1.40011
1.39991
1.39995
1.40016
1.39995
1.40001
1.39995
1.40004
1.40005
1.39993
1.39998
1.40007
1.40004
1.40005
1.40017
1.40037
1.40052
1.40089
1.40188
1.40554
1.41737
1.4368
1.45133
1.45012
1.43488
1.41439
1.39528
1.37875
1.3637
1.35289
1.3544
1.37368
1.40281
1.42381
1.43184
1.43312
1.43018
1.42294
1.41073
1.39118
1.36696
1.34295
1.32051
1.30756
1.31322
1.34448
1.38686
1.41894
1.43819
1.44945
1.46295
1.46824
1.46505
1.45822
1.44493
1.43886
1.42556
1.42357
1.41626
1.41265
1.4098
1.40712
1.4061
1.40389
1.40353
1.40235
1.40193
1.40139
1.40104
1.40077
1.40053
1.40038
1.40028
1.40019
1.40035
1.39969
1.40051
1.39955
1.40035
1.39942
1.40047
1.39952
1.40031
1.39923
1.40092
1.3988
1.40123
1.39919
1.39909
1.40253
1.39701
1.40262
1.39796
1.40061
1.4012
1.39816
1.4014
1.39894
1.40067
1.40023
1.39929
1.4003
1.40011
1.40003
1.39985
1.39998
1.40012
1.4
1.40001
1.39998
1.39996
1.40002
1.40004
1.40004
1.40016
1.40038
1.40055
1.40103
1.40225
1.40696
1.42103
1.4411
1.45256
1.44684
1.4285
1.4072
1.38885
1.37396
1.36156
1.35649
1.36738
1.39573
1.42539
1.43733
1.43549
1.43015
1.424
1.41939
1.41732
1.41008
1.39419
1.37179
1.34701
1.32343
1.31054
1.32108
1.35535
1.40069
1.43326
1.45024
1.45764
1.46431
1.46641
1.4589
1.45043
1.43707
1.43522
1.42189
1.4213
1.41233
1.41343
1.40727
1.40763
1.40468
1.4042
1.403
1.40237
1.40178
1.40138
1.401
1.40079
1.40052
1.40041
1.40048
1.40016
1.40006
1.40052
1.39935
1.40062
1.39947
1.40034
1.39964
1.40011
1.39952
1.40057
1.39997
1.3985
1.4024
1.39724
1.4026
1.39857
1.39899
1.4027
1.39726
1.40236
1.39816
1.40032
1.40116
1.39893
1.40045
1.39953
1.40036
1.40025
1.39968
1.39995
1.40007
1.40011
1.39996
1.39993
1.40008
1.40007
1.39993
1.39999
1.40007
1.40016
1.40033
1.40057
1.40118
1.40269
1.40868
1.42481
1.44469
1.45262
1.44286
1.42223
1.40076
1.38368
1.37094
1.36196
1.36361
1.38339
1.416
1.43704
1.43177
1.41554
1.40214
1.39452
1.39677
1.40433
1.40883
1.40469
1.39055
1.37138
1.34891
1.32953
1.32257
1.33943
1.37573
1.41397
1.44325
1.45548
1.46325
1.46423
1.45886
1.45413
1.44147
1.43757
1.42507
1.42236
1.41723
1.41252
1.41092
1.40727
1.40672
1.40449
1.40391
1.40282
1.40228
1.40173
1.40131
1.40102
1.40073
1.40051
1.40056
1.40021
1.40061
1.39968
1.40053
1.39954
1.40061
1.39937
1.40022
1.39967
1.40076
1.39846
1.40185
1.39761
1.40202
1.39988
1.39749
1.40369
1.39626
1.40329
1.39838
1.39906
1.40207
1.3984
1.40141
1.39883
1.39994
1.40088
1.39972
1.39984
1.39978
1.40028
1.40021
1.39981
1.39987
1.4
1.40012
1.40009
1.39987
1.40001
1.40016
1.40016
1.40027
1.40061
1.40131
1.40321
1.41067
1.42853
1.44745
1.45179
1.43851
1.41632
1.39514
1.37978
1.36953
1.36452
1.37302
1.39929
1.42871
1.43138
1.40251
1.37076
1.35109
1.34744
1.36046
1.37758
1.39123
1.3992
1.39742
1.38261
1.36404
1.34647
1.33653
1.34265
1.36187
1.39484
1.42759
1.45081
1.46017
1.46099
1.46165
1.45403
1.4492
1.43442
1.43351
1.42236
1.42095
1.41336
1.41313
1.40853
1.40767
1.40563
1.40448
1.40354
1.40275
1.40213
1.40169
1.40124
1.40099
1.40072
1.40063
1.40054
1.40049
1.3998
1.40068
1.39973
1.40015
1.39976
1.40032
1.39964
1.40038
1.39918
1.40017
1.40148
1.39668
1.4041
1.39569
1.40311
1.39986
1.39729
1.40334
1.39712
1.40236
1.3992
1.39892
1.40117
1.39966
1.40052
1.39938
1.39981
1.40044
1.40011
1.39985
1.39984
1.40018
1.40008
1.39984
1.40001
1.39997
1.40005
1.40011
1.40011
1.40028
1.40076
1.40147
1.40389
1.4129
1.43199
1.44944
1.45034
1.43406
1.41087
1.39039
1.37701
1.3695
1.36853
1.38303
1.41165
1.42997
1.40716
1.35365
1.30886
1.28568
1.28854
1.31258
1.34216
1.36837
1.38923
1.39874
1.38988
1.3713
1.35336
1.34303
1.34462
1.36061
1.38603
1.41385
1.43983
1.45282
1.46031
1.46146
1.45531
1.45079
1.43924
1.43597
1.42642
1.42103
1.41821
1.41269
1.41151
1.40804
1.407
1.40518
1.40427
1.40328
1.4026
1.40204
1.40155
1.40124
1.40092
1.40087
1.40072
1.40019
1.40067
1.39985
1.40055
1.3994
1.40073
1.3995
1.40043
1.39878
1.40203
1.39729
1.40303
1.39688
1.40134
1.40187
1.3956
1.40493
1.39565
1.40255
1.40043
1.39773
1.40182
1.39885
1.40111
1.39985
1.39911
1.40033
1.40042
1.40016
1.39956
1.3998
1.40018
1.4003
1.40002
1.39972
1.40006
1.4001
1.39998
1.39999
1.40004
1.4003
1.40088
1.40166
1.40471
1.41529
1.43507
1.45078
1.44849
1.42969
1.40597
1.38645
1.37522
1.37045
1.37314
1.39178
1.41815
1.41957
1.36904
1.29376
1.23764
1.2108
1.21884
1.25502
1.30121
1.34671
1.3815
1.40012
1.40063
1.38314
1.36248
1.34577
1.34145
1.35639
1.37941
1.40577
1.42803
1.44568
1.45704
1.45879
1.45806
1.44933
1.44737
1.43469
1.43148
1.42325
1.42067
1.41467
1.41291
1.40969
1.40781
1.40631
1.40489
1.40393
1.40311
1.4024
1.40193
1.40147
1.4011
1.401
1.40082
1.40035
1.40081
1.39983
1.40032
1.40018
1.40013
1.39954
1.40044
1.39966
1.40034
1.39978
1.39868
1.40344
1.39493
1.40545
1.39549
1.40152
1.40217
1.39612
1.40329
1.39778
1.40083
1.401
1.39861
1.40028
1.39998
1.40052
1.40001
1.39943
1.4
1.40048
1.39997
1.3997
1.39996
1.40012
1.40018
1.39995
1.39987
1.40012
1.40009
1.40024
1.40095
1.40189
1.40565
1.4177
1.43772
1.45157
1.44645
1.42551
1.40167
1.38326
1.37421
1.37192
1.37755
1.3978
1.41852
1.40055
1.3241
1.22893
1.15823
1.12213
1.13195
1.18059
1.24548
1.31396
1.36806
1.40084
1.41157
1.39995
1.37757
1.35697
1.34569
1.34888
1.36814
1.39491
1.41967
1.44012
1.45055
1.45607
1.45747
1.4525
1.4485
1.4386
1.43342
1.42801
1.42086
1.41853
1.41366
1.41159
1.40895
1.40727
1.40572
1.40459
1.40362
1.40286
1.40226
1.40172
1.40138
1.40117
1.40086
1.40082
1.40026
1.4005
1.39998
1.4006
1.39934
1.40072
1.39928
1.4012
1.39782
1.40275
1.39684
1.40321
1.39766
1.39949
1.40378
1.39461
1.40482
1.39715
1.4
1.40218
1.39797
1.40079
1.39953
1.40022
1.40072
1.3994
1.39962
1.40016
1.40041
1.40016
1.3996
1.3999
1.40018
1.40007
1.39995
1.39989
1.3999
1.40029
1.40007
1.40021
1.40109
1.40223
1.40667
1.42012
1.43995
1.45197
1.44436
1.42169
1.39789
1.38079
1.37369
1.37355
1.38106
1.40032
1.41369
1.37666
1.27688
1.16117
1.06961
1.01725
1.02329
1.07937
1.16195
1.25608
1.33963
1.39519
1.417
1.41146
1.39041
1.37129
1.35808
1.3511
1.35906
1.38064
1.40942
1.43213
1.44523
1.45229
1.45489
1.45614
1.44755
1.44389
1.43563
1.43059
1.42388
1.42042
1.4158
1.41297
1.41043
1.4082
1.40666
1.40526
1.40417
1.40334
1.40258
1.40204
1.4016
1.40142
1.40092
1.40098
1.40018
1.40077
1.40009
1.40004
1.40006
1.40051
1.39932
1.40035
1.39991
1.39994
1.40057
1.39774
1.40413
1.39482
1.40459
1.39768
1.399
1.40325
1.39692
1.40162
1.39968
1.39923
1.40119
1.39973
1.39959
1.3998
1.40043
1.40038
1.39961
1.3997
1.40004
1.40043
1.40012
1.39966
1.39989
1.40021
1.39987
1.40017
1.39995
1.40023
1.40126
1.40263
1.40775
1.42248
1.44179
1.45206
1.44237
1.41831
1.39456
1.37902
1.37331
1.37511
1.38315
1.39936
1.40502
1.35045
1.22917
1.09104
0.973336
0.902092
0.900778
0.960161
1.05837
1.17909
1.29552
1.37793
1.4142
1.41677
1.40234
1.38166
1.36606
1.3575
1.35875
1.37363
1.39647
1.41954
1.43844
1.44898
1.45325
1.4545
1.45006
1.44596
1.43944
1.43207
1.42804
1.42174
1.41832
1.41455
1.41174
1.40943
1.40754
1.406
1.40477
1.40377
1.40297
1.40232
1.40176
1.40153
1.40117
1.40076
1.40068
1.40042
1.40024
1.40006
1.40051
1.39942
1.40071
1.39906
1.40143
1.39794
1.4023
1.39755
1.40211
1.39922
1.39828
1.40377
1.3961
1.40219
1.40011
1.39835
1.40151
1.39981
1.39958
1.40007
1.39987
1.40034
1.40028
1.3996
1.39962
1.40042
1.40025
1.39979
1.39986
1.39993
1.40021
1.40023
1.39964
1.4001
1.40005
1.40021
1.4014
1.40306
1.40892
1.42461
1.44331
1.45186
1.44065
1.41538
1.3917
1.37775
1.37299
1.37635
1.38372
1.39559
1.39379
1.32439
1.18498
1.02379
0.877413
0.788621
0.783892
0.851718
0.965032
1.10133
1.23522
1.33895
1.39725
1.41914
1.41858
1.39675
1.37046
1.35738
1.35996
1.37257
1.38759
1.40711
1.42829
1.44419
1.45132
1.45142
1.45217
1.44743
1.44204
1.4354
1.4303
1.42452
1.42033
1.41638
1.41321
1.41067
1.40849
1.40678
1.40539
1.40423
1.40335
1.40258
1.402
1.40163
1.40133
1.40075
1.40094
1.4001
1.40055
1.40019
1.40007
1.39976
1.40069
1.3994
1.40009
1.40018
1.39976
1.40058
1.3982
1.40303
1.39679
1.40185
1.40025
1.3982
1.40183
1.39935
1.39957
1.40084
1.39926
1.40009
1.4007
1.39955
1.39966
1.40017
1.40026
1.40022
1.39973
1.39965
1.40028
1.40011
1.4
1.39994
1.39971
1.40022
1.40021
1.40005
1.40161
1.40359
1.41016
1.42649
1.4446
1.45147
1.43924
1.41299
1.38928
1.37676
1.37279
1.37698
1.38315
1.39014
1.38105
1.30214
1.1508
0.968978
0.793613
0.686667
0.684145
0.769378
0.898765
1.0364
1.16742
1.27913
1.36263
1.41178
1.42891
1.41597
1.38323
1.36015
1.35818
1.36728
1.38083
1.39894
1.41919
1.43562
1.44609
1.45039
1.45188
1.44908
1.44363
1.43907
1.43223
1.42751
1.42237
1.41828
1.41483
1.41189
1.40952
1.40758
1.406
1.40472
1.40368
1.40287
1.40221
1.40181
1.40129
1.40103
1.40067
1.4004
1.40051
1.40001
1.40012
1.40036
1.39953
1.40053
1.39939
1.4008
1.3989
1.40119
1.39885
1.40076
1.40009
1.39873
1.40185
1.39884
1.39973
1.40118
1.39908
1.39994
1.40073
1.39953
1.40004
1.3999
1.40002
1.40036
1.39987
1.39976
1.39991
1.40022
1.4004
1.39966
1.39975
1.40017
1.39992
1.40008
1.40018
1.39999
1.40188
1.40417
1.41143
1.42812
1.44573
1.45098
1.43812
1.41129
1.38724
1.37592
1.3728
1.37682
1.38215
1.384
1.3679
1.28706
1.1314
0.93453
0.731024
0.597909
0.591443
0.691573
0.834483
0.972963
1.10115
1.21811
1.32489
1.3969
1.42275
1.42239
1.3994
1.37316
1.36147
1.36089
1.37185
1.39123
1.41105
1.42678
1.43896
1.44831
1.45081
1.44934
1.4459
1.44131
1.4351
1.42991
1.42469
1.42026
1.41643
1.41322
1.41057
1.40839
1.40661
1.4052
1.40403
1.40312
1.40237
1.4019
1.40137
1.40109
1.40054
1.40077
1.40006
1.4003
1.40021
1.40004
1.39974
1.40049
1.39974
1.39981
1.40027
1.39996
1.40002
1.39932
1.40128
1.39901
1.39998
1.40072
1.39939
1.40004
1.40047
1.39945
1.40034
1.39995
1.39976
1.40031
1.4001
1.39978
1.39973
1.40032
1.40019
1.39983
1.39999
1.39979
1.40008
1.40033
1.39973
1.39989
1.40018
1.40014
1.40199
1.40485
1.41264
1.42952
1.44663
1.45052
1.43728
1.41027
1.38569
1.37502
1.37302
1.37606
1.38108
1.37798
1.3557
1.27986
1.12737
0.923576
0.69931
0.53276
0.504365
0.59919
0.743131
0.887417
1.02567
1.15562
1.28566
1.38157
1.41255
1.41687
1.40727
1.38652
1.36961
1.3604
1.36562
1.38223
1.40095
1.41834
1.43259
1.44365
1.4487
1.4488
1.44788
1.44285
1.43796
1.43227
1.42703
1.42227
1.41809
1.41458
1.41163
1.40921
1.40724
1.40564
1.40437
1.40334
1.40253
1.40196
1.40147
1.40098
1.40075
1.40054
1.40017
1.40046
1.3999
1.40006
1.4003
1.39965
1.40019
1.39998
1.40007
1.39968
1.40039
1.39975
1.40008
1.40001
1.39981
1.4003
1.40004
1.39951
1.40043
1.40008
1.39959
1.40032
1.40006
1.39979
1.4
1.40011
1.39996
1.40019
1.39991
1.39975
1.40015
1.4001
1.40001
1.40002
1.39967
1.40005
1.40025
1.40026
1.402
1.40562
1.41381
1.43074
1.44718
1.45032
1.43656
1.41003
1.38477
1.3739
1.37334
1.37521
1.37968
1.37307
1.34587
1.27827
1.13484
0.93238
0.704813
0.514073
0.453096
0.521394
0.648159
0.794026
0.941875
1.07952
1.22352
1.34569
1.40129
1.41614
1.41234
1.39506
1.37613
1.36285
1.36337
1.37475
1.39105
1.40895
1.42545
1.43788
1.44494
1.44831
1.44819
1.44457
1.44018
1.43468
1.4293
1.42428
1.4198
1.41595
1.41271
1.41003
1.40785
1.40608
1.40467
1.40355
1.40266
1.40203
1.40146
1.40103
1.40078
1.40034
1.40052
1.40006
1.4001
1.40022
1.39993
1.39993
1.40019
1.39997
1.39977
1.4002
1.40013
1.39971
1.39996
1.4004
1.39982
1.39973
1.40024
1.40012
1.39974
1.40024
1.39985
1.39999
1.40014
1.39987
1.40005
1.40014
1.39988
1.39997
1.39994
1.4001
1.40018
1.39988
1.39981
1.40004
1.39993
1.40007
1.40009
1.40038
1.40219
1.4063
1.41506
1.43172
1.4475
1.45034
1.43606
1.41043
1.38462
1.3727
1.37332
1.37483
1.37784
1.37006
1.34008
1.27921
1.14868
0.951921
0.737269
0.548909
0.463042
0.493829
0.590551
0.728281
0.874287
1.00852
1.14771
1.27844
1.37005
1.41317
1.41768
1.40336
1.38324
1.36672
1.36197
1.36856
1.38258
1.39974
1.41701
1.43105
1.44048
1.44673
1.44754
1.44595
1.442
1.43693
1.43151
1.42628
1.42151
1.41733
1.41379
1.41084
1.40843
1.40649
1.40494
1.40372
1.40276
1.40205
1.40144
1.40105
1.40067
1.40048
1.40034
1.40006
1.4003
1.39994
1.39996
1.40027
1.39978
1.39998
1.40023
1.39986
1.39987
1.40021
1.4
1.39992
1.39991
1.40015
1.40006
1.39996
1.39979
1.40018
1.40011
1.39983
1.40008
1.40001
1.39999
1.39997
1.39997
1.40014
1.39997
1.39999
1.39996
1.39993
1.40003
1.40006
1.39991
1.39994
1.39996
1.4006
1.40252
1.4068
1.4163
1.43255
1.44762
1.45044
1.43606
1.41114
1.38543
1.37171
1.3725
1.37514
1.37602
1.36896
1.33979
1.28281
1.16866
0.980111
0.779012
0.615657
0.522467
0.515326
0.577901
0.692842
0.826449
0.963161
1.09301
1.20926
1.32012
1.39367
1.41393
1.40857
1.39199
1.37314
1.36262
1.36415
1.37481
1.39051
1.40827
1.42347
1.43552
1.44337
1.44663
1.44647
1.44349
1.43894
1.43363
1.42825
1.4232
1.41871
1.41484
1.41162
1.40898
1.40685
1.40517
1.40385
1.40283
1.40204
1.40145
1.40098
1.40067
1.40049
1.40019
1.40028
1.40005
1.40002
1.40017
1.39988