/*--------------------------------*- C++ -*----------------------------------*\
  =========                 |
  \\      /  F ield         | OpenFOAM: The Open Source CFD Toolbox
   \\    /   O peration     | Website:  https://openfoam.org
    \\  /    A nd           | Version:  6
     \\/     M anipulation  |
\*---------------------------------------------------------------------------*/
FoamFile
{
    version     2.0;
    format      ascii;
    class       volVectorField;
    location    "3.96";
    object      U;
}
// * * * * * * * * * * * * * * * * * * * * * * * * * * * * * * * * * * * * * //

dimensions      [0 1 -1 0 0 0 0];

internalField   nonuniform List<vector> 
5625
(
(0.894442 0.447193 0)
(0.89443 0.447195 0)
(0.894421 0.447197 0)
(0.894415 0.447198 0)
(0.89441 0.447198 0)
(0.894407 0.447199 0)
(0.894405 0.447199 0)
(0.894403 0.447199 0)
(0.894402 0.4472 0)
(0.894401 0.4472 0)
(0.894401 0.4472 0)
(0.8944 0.4472 0)
(0.894401 0.4472 0)
(0.8944 0.4472 0)
(0.8944 0.4472 0)
(0.8944 0.4472 0)
(0.8944 0.4472 0)
(0.8944 0.4472 0)
(0.8944 0.4472 0)
(0.8944 0.4472 0)
(0.8944 0.4472 0)
(0.8944 0.4472 0)
(0.8944 0.4472 0)
(0.8944 0.4472 0)
(0.8944 0.4472 0)
(0.8944 0.4472 0)
(0.8944 0.4472 0)
(0.8944 0.4472 0)
(0.8944 0.4472 0)
(0.8944 0.4472 0)
(0.8944 0.4472 0)
(0.894399 0.4472 0)
(0.894401 0.4472 0)
(0.894399 0.4472 0)
(0.8944 0.4472 0)
(0.894399 0.4472 0)
(0.894401 0.4472 0)
(0.894398 0.447199 0)
(0.894402 0.447201 0)
(0.894398 0.447199 0)
(0.894401 0.4472 0)
(0.894399 0.447201 0)
(0.894401 0.447199 0)
(0.8944 0.4472 0)
(0.894401 0.447201 0)
(0.894402 0.4472 0)
(0.894403 0.447201 0)
(0.894405 0.4472 0)
(0.894407 0.447202 0)
(0.894412 0.447202 0)
(0.894414 0.447201 0)
(0.894425 0.447205 0)
(0.89443 0.447203 0)
(0.894444 0.447207 0)
(0.894454 0.447209 0)
(0.894469 0.447209 0)
(0.894479 0.447211 0)
(0.894485 0.447208 0)
(0.894469 0.447202 0)
(0.894426 0.447181 0)
(0.894321 0.447145 0)
(0.894126 0.447073 0)
(0.893778 0.446945 0)
(0.893203 0.446735 0)
(0.8923 0.446389 0)
(0.890927 0.445854 0)
(0.88893 0.445051 0)
(0.886156 0.443885 0)
(0.882486 0.442286 0)
(0.87799 0.440231 0)
(0.873061 0.43782 0)
(0.868424 0.43535 0)
(0.864944 0.433198 0)
(0.863273 0.431641 0)
(0.863627 0.430782 0)
(0.894439 0.447192 0)
(0.894428 0.447194 0)
(0.89442 0.447196 0)
(0.894414 0.447197 0)
(0.89441 0.447198 0)
(0.894407 0.447199 0)
(0.894405 0.447199 0)
(0.894403 0.447199 0)
(0.894402 0.4472 0)
(0.894401 0.4472 0)
(0.894401 0.4472 0)
(0.8944 0.4472 0)
(0.8944 0.4472 0)
(0.8944 0.4472 0)
(0.8944 0.4472 0)
(0.8944 0.4472 0)
(0.8944 0.4472 0)
(0.8944 0.4472 0)
(0.8944 0.4472 0)
(0.8944 0.4472 0)
(0.8944 0.4472 0)
(0.8944 0.4472 0)
(0.8944 0.4472 0)
(0.8944 0.4472 0)
(0.8944 0.4472 0)
(0.8944 0.4472 0)
(0.8944 0.4472 0)
(0.8944 0.4472 0)
(0.8944 0.4472 0)
(0.894399 0.4472 0)
(0.894401 0.4472 0)
(0.894399 0.4472 0)
(0.8944 0.4472 0)
(0.894401 0.4472 0)
(0.8944 0.4472 0)
(0.894399 0.4472 0)
(0.894401 0.4472 0)
(0.894399 0.4472 0)
(0.894401 0.4472 0)
(0.894399 0.4472 0)
(0.894402 0.4472 0)
(0.894398 0.4472 0)
(0.894402 0.4472 0)
(0.8944 0.4472 0)
(0.894401 0.4472 0)
(0.894403 0.4472 0)
(0.894402 0.447202 0)
(0.894405 0.4472 0)
(0.894407 0.447202 0)
(0.894411 0.447202 0)
(0.894414 0.447202 0)
(0.894424 0.447205 0)
(0.894428 0.447205 0)
(0.894443 0.447207 0)
(0.894453 0.447211 0)
(0.894469 0.447211 0)
(0.894478 0.447215 0)
(0.894488 0.447215 0)
(0.894478 0.447208 0)
(0.894443 0.447194 0)
(0.894362 0.447162 0)
(0.894195 0.447102 0)
(0.893898 0.446986 0)
(0.893401 0.446798 0)
(0.892615 0.446483 0)
(0.891412 0.445989 0)
(0.889643 0.445243 0)
(0.887158 0.444148 0)
(0.883827 0.442619 0)
(0.87964 0.440612 0)
(0.874874 0.438184 0)
(0.870148 0.435578 0)
(0.866293 0.433173 0)
(0.864019 0.431316 0)
(0.863681 0.430177 0)
(0.894437 0.447191 0)
(0.894426 0.447194 0)
(0.894419 0.447196 0)
(0.894413 0.447197 0)
(0.894409 0.447198 0)
(0.894406 0.447199 0)
(0.894404 0.447199 0)
(0.894403 0.447199 0)
(0.894402 0.4472 0)
(0.894401 0.4472 0)
(0.894401 0.4472 0)
(0.8944 0.4472 0)
(0.8944 0.4472 0)
(0.8944 0.4472 0)
(0.8944 0.4472 0)
(0.8944 0.4472 0)
(0.8944 0.4472 0)
(0.8944 0.4472 0)
(0.894399 0.4472 0)
(0.894401 0.4472 0)
(0.8944 0.4472 0)
(0.8944 0.4472 0)
(0.8944 0.4472 0)
(0.8944 0.4472 0)
(0.8944 0.4472 0)
(0.8944 0.4472 0)
(0.8944 0.4472 0)
(0.8944 0.4472 0)
(0.8944 0.4472 0)
(0.8944 0.4472 0)
(0.8944 0.4472 0)
(0.8944 0.4472 0)
(0.8944 0.4472 0)
(0.8944 0.4472 0)
(0.894399 0.4472 0)
(0.894401 0.4472 0)
(0.894399 0.447199 0)
(0.894402 0.447201 0)
(0.894399 0.447199 0)
(0.8944 0.447201 0)
(0.894401 0.4472 0)
(0.894399 0.4472 0)
(0.894401 0.4472 0)
(0.894401 0.447201 0)
(0.8944 0.4472 0)
(0.894403 0.447199 0)
(0.894402 0.447201 0)
(0.894404 0.4472 0)
(0.894407 0.447203 0)
(0.894409 0.447201 0)
(0.894415 0.447204 0)
(0.894421 0.447204 0)
(0.89443 0.447206 0)
(0.894437 0.447208 0)
(0.894453 0.447211 0)
(0.894466 0.447215 0)
(0.894478 0.447217 0)
(0.894487 0.447219 0)
(0.894486 0.447216 0)
(0.894458 0.447205 0)
(0.894394 0.44718 0)
(0.894254 0.447126 0)
(0.894006 0.447028 0)
(0.893584 0.446859 0)
(0.892899 0.446577 0)
(0.891855 0.446128 0)
(0.890309 0.445441 0)
(0.888105 0.444428 0)
(0.885112 0.44299 0)
(0.881273 0.441058 0)
(0.87674 0.438657 0)
(0.872017 0.435963 0)
(0.86787 0.433333 0)
(0.865047 0.431164 0)
(0.864016 0.4297 0)
(0.894434 0.447191 0)
(0.894425 0.447194 0)
(0.894417 0.447196 0)
(0.894412 0.447197 0)
(0.894409 0.447198 0)
(0.894406 0.447199 0)
(0.894404 0.447199 0)
(0.894403 0.447199 0)
(0.894402 0.4472 0)
(0.894401 0.4472 0)
(0.894401 0.4472 0)
(0.8944 0.4472 0)
(0.894401 0.4472 0)
(0.8944 0.4472 0)
(0.8944 0.4472 0)
(0.8944 0.4472 0)
(0.8944 0.4472 0)
(0.8944 0.4472 0)
(0.8944 0.4472 0)
(0.8944 0.4472 0)
(0.8944 0.4472 0)
(0.8944 0.4472 0)
(0.8944 0.4472 0)
(0.8944 0.4472 0)
(0.8944 0.4472 0)
(0.8944 0.4472 0)
(0.8944 0.4472 0)
(0.8944 0.4472 0)
(0.8944 0.4472 0)
(0.8944 0.4472 0)
(0.8944 0.447201 0)
(0.8944 0.4472 0)
(0.8944 0.4472 0)
(0.894401 0.4472 0)
(0.894399 0.4472 0)
(0.894401 0.4472 0)
(0.894399 0.447199 0)
(0.894402 0.447201 0)
(0.894398 0.4472 0)
(0.894401 0.4472 0)
(0.894399 0.4472 0)
(0.894402 0.4472 0)
(0.894399 0.4472 0)
(0.894402 0.4472 0)
(0.8944 0.447201 0)
(0.894402 0.447199 0)
(0.894403 0.447201 0)
(0.894403 0.4472 0)
(0.894408 0.447202 0)
(0.894408 0.447202 0)
(0.894414 0.447203 0)
(0.894418 0.447204 0)
(0.89443 0.447207 0)
(0.894435 0.44721 0)
(0.89445 0.44721 0)
(0.894463 0.447218 0)
(0.894477 0.447219 0)
(0.894486 0.447223 0)
(0.894489 0.447223 0)
(0.894472 0.447214 0)
(0.894418 0.447197 0)
(0.894308 0.447149 0)
(0.894099 0.447067 0)
(0.893742 0.446919 0)
(0.893159 0.446669 0)
(0.892258 0.446265 0)
(0.890916 0.445642 0)
(0.888985 0.444716 0)
(0.886328 0.443383 0)
(0.882854 0.441557 0)
(0.878624 0.43922 0)
(0.874002 0.436495 0)
(0.86966 0.43369 0)
(0.86636 0.431214 0)
(0.864663 0.429392 0)
(0.894432 0.447191 0)
(0.894423 0.447193 0)
(0.894416 0.447196 0)
(0.894411 0.447197 0)
(0.894408 0.447198 0)
(0.894405 0.447199 0)
(0.894404 0.447199 0)
(0.894402 0.447199 0)
(0.894402 0.4472 0)
(0.894401 0.4472 0)
(0.894401 0.4472 0)
(0.8944 0.4472 0)
(0.8944 0.4472 0)
(0.8944 0.4472 0)
(0.8944 0.4472 0)
(0.8944 0.4472 0)
(0.8944 0.4472 0)
(0.8944 0.4472 0)
(0.8944 0.4472 0)
(0.8944 0.4472 0)
(0.8944 0.4472 0)
(0.8944 0.4472 0)
(0.8944 0.4472 0)
(0.8944 0.4472 0)
(0.8944 0.4472 0)
(0.8944 0.4472 0)
(0.8944 0.4472 0)
(0.8944 0.4472 0)
(0.8944 0.4472 0)
(0.8944 0.4472 0)
(0.8944 0.447199 0)
(0.8944 0.447201 0)
(0.8944 0.4472 0)
(0.894399 0.4472 0)
(0.8944 0.4472 0)
(0.8944 0.4472 0)
(0.8944 0.4472 0)
(0.8944 0.4472 0)
(0.894401 0.4472 0)
(0.8944 0.4472 0)
(0.8944 0.4472 0)
(0.894401 0.4472 0)
(0.894399 0.447199 0)
(0.894402 0.4472 0)
(0.8944 0.447201 0)
(0.894402 0.4472 0)
(0.894403 0.447201 0)
(0.894402 0.4472 0)
(0.894406 0.447202 0)
(0.894409 0.447203 0)
(0.894412 0.447203 0)
(0.894416 0.447205 0)
(0.894427 0.447206 0)
(0.894436 0.44721 0)
(0.894445 0.447212 0)
(0.89446 0.447216 0)
(0.894475 0.447223 0)
(0.894485 0.447224 0)
(0.89449 0.447229 0)
(0.894481 0.447224 0)
(0.894439 0.447208 0)
(0.894352 0.447174 0)
(0.89418 0.447102 0)
(0.893878 0.446974 0)
(0.893391 0.446756 0)
(0.89262 0.4464 0)
(0.891465 0.445843 0)
(0.889795 0.445006 0)
(0.887462 0.443786 0)
(0.884358 0.44209 0)
(0.880482 0.439859 0)
(0.876057 0.437159 0)
(0.871635 0.434237 0)
(0.867951 0.431489 0)
(0.865637 0.429295 0)
(0.894429 0.447191 0)
(0.894421 0.447194 0)
(0.894415 0.447195 0)
(0.89441 0.447197 0)
(0.894407 0.447198 0)
(0.894405 0.447199 0)
(0.894403 0.447199 0)
(0.894402 0.447199 0)
(0.894402 0.4472 0)
(0.894401 0.4472 0)
(0.894401 0.4472 0)
(0.8944 0.4472 0)
(0.8944 0.4472 0)
(0.8944 0.4472 0)
(0.8944 0.4472 0)
(0.8944 0.4472 0)
(0.8944 0.4472 0)
(0.8944 0.4472 0)
(0.8944 0.4472 0)
(0.8944 0.4472 0)
(0.8944 0.4472 0)
(0.8944 0.4472 0)
(0.8944 0.4472 0)
(0.8944 0.4472 0)
(0.8944 0.4472 0)
(0.8944 0.4472 0)
(0.8944 0.4472 0)
(0.8944 0.4472 0)
(0.894399 0.4472 0)
(0.8944 0.4472 0)
(0.8944 0.4472 0)
(0.894399 0.4472 0)
(0.894401 0.4472 0)
(0.894399 0.4472 0)
(0.894401 0.4472 0)
(0.894399 0.4472 0)
(0.894401 0.4472 0)
(0.894399 0.4472 0)
(0.894402 0.447201 0)
(0.894398 0.4472 0)
(0.894402 0.4472 0)
(0.894399 0.447201 0)
(0.894401 0.4472 0)
(0.8944 0.4472 0)
(0.894401 0.4472 0)
(0.894401 0.447201 0)
(0.894402 0.4472 0)
(0.894404 0.447202 0)
(0.894403 0.447201 0)
(0.894409 0.447202 0)
(0.894411 0.447205 0)
(0.894417 0.447204 0)
(0.894422 0.447206 0)
(0.894435 0.44721 0)
(0.894442 0.447214 0)
(0.894458 0.447216 0)
(0.894469 0.447224 0)
(0.894483 0.447228 0)
(0.89449 0.447231 0)
(0.894486 0.447231 0)
(0.894457 0.44722 0)
(0.894386 0.447193 0)
(0.894249 0.447134 0)
(0.894 0.447028 0)
(0.893589 0.446837 0)
(0.892942 0.446526 0)
(0.891957 0.446038 0)
(0.890522 0.445287 0)
(0.888502 0.44419 0)
(0.885769 0.442639 0)
(0.882273 0.44055 0)
(0.878133 0.437934 0)
(0.873757 0.434966 0)
(0.869802 0.432001 0)
(0.866944 0.429448 0)
(0.894427 0.447191 0)
(0.894419 0.447194 0)
(0.894414 0.447196 0)
(0.89441 0.447197 0)
(0.894407 0.447198 0)
(0.894405 0.447199 0)
(0.894403 0.447199 0)
(0.894402 0.447199 0)
(0.894401 0.447199 0)
(0.894401 0.4472 0)
(0.894401 0.447199 0)
(0.8944 0.4472 0)
(0.8944 0.4472 0)
(0.8944 0.4472 0)
(0.8944 0.4472 0)
(0.8944 0.4472 0)
(0.8944 0.4472 0)
(0.8944 0.4472 0)
(0.8944 0.4472 0)
(0.8944 0.4472 0)
(0.8944 0.447201 0)
(0.8944 0.447199 0)
(0.8944 0.4472 0)
(0.8944 0.4472 0)
(0.8944 0.4472 0)
(0.8944 0.4472 0)
(0.8944 0.4472 0)
(0.8944 0.4472 0)
(0.8944 0.4472 0)
(0.8944 0.4472 0)
(0.8944 0.4472 0)
(0.8944 0.447201 0)
(0.8944 0.447199 0)
(0.8944 0.4472 0)
(0.8944 0.4472 0)
(0.8944 0.4472 0)
(0.8944 0.4472 0)
(0.8944 0.4472 0)
(0.8944 0.4472 0)
(0.8944 0.4472 0)
(0.894401 0.4472 0)
(0.894399 0.447199 0)
(0.894402 0.447201 0)
(0.894399 0.4472 0)
(0.894401 0.4472 0)
(0.894403 0.4472 0)
(0.8944 0.447201 0)
(0.894405 0.4472 0)
(0.894405 0.447202 0)
(0.894406 0.4472 0)
(0.894411 0.447204 0)
(0.894416 0.447205 0)
(0.894421 0.447207 0)
(0.89443 0.447209 0)
(0.894441 0.447213 0)
(0.894453 0.44722 0)
(0.894466 0.447222 0)
(0.894479 0.447231 0)
(0.894489 0.447235 0)
(0.894487 0.447234 0)
(0.89447 0.447232 0)
(0.894415 0.447209 0)
(0.894304 0.447163 0)
(0.894103 0.447074 0)
(0.893763 0.446913 0)
(0.893221 0.446646 0)
(0.892391 0.446219 0)
(0.891172 0.44556 0)
(0.88944 0.444583 0)
(0.887068 0.443186 0)
(0.883968 0.441267 0)
(0.880177 0.438789 0)
(0.875964 0.435853 0)
(0.871878 0.432744 0)
(0.868577 0.429876 0)
(0.894424 0.447191 0)
(0.894417 0.447194 0)
(0.894412 0.447196 0)
(0.894409 0.447197 0)
(0.894406 0.447198 0)
(0.894404 0.447199 0)
(0.894403 0.447199 0)
(0.894402 0.447199 0)
(0.894401 0.4472 0)
(0.894401 0.4472 0)
(0.8944 0.4472 0)
(0.8944 0.4472 0)
(0.8944 0.4472 0)
(0.8944 0.4472 0)
(0.8944 0.4472 0)
(0.8944 0.4472 0)
(0.8944 0.4472 0)
(0.8944 0.4472 0)
(0.8944 0.4472 0)
(0.8944 0.4472 0)
(0.8944 0.4472 0)
(0.8944 0.4472 0)
(0.8944 0.4472 0)
(0.8944 0.4472 0)
(0.8944 0.4472 0)
(0.8944 0.4472 0)
(0.8944 0.4472 0)
(0.8944 0.4472 0)
(0.8944 0.4472 0)
(0.8944 0.4472 0)
(0.8944 0.447199 0)
(0.8944 0.447201 0)
(0.8944 0.4472 0)
(0.8944 0.4472 0)
(0.8944 0.4472 0)
(0.894401 0.4472 0)
(0.894398 0.447199 0)
(0.894401 0.447201 0)
(0.894399 0.447199 0)
(0.894401 0.447201 0)
(0.894399 0.4472 0)
(0.894401 0.4472 0)
(0.894399 0.447201 0)
(0.894402 0.447199 0)
(0.894399 0.447201 0)
(0.894402 0.4472 0)
(0.894403 0.447201 0)
(0.894401 0.447199 0)
(0.894406 0.447202 0)
(0.894405 0.447203 0)
(0.89441 0.447202 0)
(0.894414 0.447206 0)
(0.894421 0.447206 0)
(0.894425 0.44721 0)
(0.89444 0.447212 0)
(0.894446 0.447219 0)
(0.894463 0.447225 0)
(0.894474 0.44723 0)
(0.894487 0.447237 0)
(0.894489 0.447239 0)
(0.894475 0.447237 0)
(0.894438 0.447225 0)
(0.89435 0.447187 0)
(0.894188 0.447115 0)
(0.893911 0.446983 0)
(0.893461 0.446754 0)
(0.892769 0.446385 0)
(0.891742 0.445816 0)
(0.890274 0.444958 0)
(0.888239 0.443717 0)
(0.885539 0.441989 0)
(0.88214 0.439692 0)
(0.878193 0.436861 0)
(0.874116 0.433702 0)
(0.870511 0.430589 0)
(0.894422 0.447191 0)
(0.894416 0.447194 0)
(0.894411 0.447196 0)
(0.894408 0.447197 0)
(0.894405 0.447198 0)
(0.894404 0.447199 0)
(0.894403 0.447199 0)
(0.894402 0.447199 0)
(0.894401 0.4472 0)
(0.894401 0.4472 0)
(0.8944 0.4472 0)
(0.8944 0.4472 0)
(0.8944 0.4472 0)
(0.8944 0.4472 0)
(0.8944 0.4472 0)
(0.8944 0.4472 0)
(0.8944 0.4472 0)
(0.8944 0.4472 0)
(0.8944 0.4472 0)
(0.8944 0.4472 0)
(0.8944 0.4472 0)
(0.8944 0.4472 0)
(0.8944 0.4472 0)
(0.8944 0.4472 0)
(0.8944 0.4472 0)
(0.8944 0.4472 0)
(0.8944 0.4472 0)
(0.8944 0.4472 0)
(0.8944 0.447199 0)
(0.8944 0.447201 0)
(0.8944 0.4472 0)
(0.8944 0.4472 0)
(0.8944 0.447201 0)
(0.8944 0.4472 0)
(0.8944 0.447199 0)
(0.894401 0.447201 0)
(0.894399 0.4472 0)
(0.894401 0.4472 0)
(0.894399 0.4472 0)
(0.894401 0.4472 0)
(0.894399 0.4472 0)
(0.894401 0.4472 0)
(0.894398 0.447199 0)
(0.894402 0.447201 0)
(0.894399 0.4472 0)
(0.894401 0.4472 0)
(0.894402 0.447201 0)
(0.894401 0.447201 0)
(0.894405 0.4472 0)
(0.894406 0.447204 0)
(0.894409 0.447203 0)
(0.894412 0.447203 0)
(0.894419 0.447207 0)
(0.894424 0.44721 0)
(0.894436 0.447213 0)
(0.894444 0.447218 0)
(0.894457 0.447225 0)
(0.89447 0.44723 0)
(0.89448 0.447238 0)
(0.894487 0.447243 0)
(0.894482 0.447243 0)
(0.894453 0.447236 0)
(0.894386 0.447208 0)
(0.894257 0.447151 0)
(0.894034 0.447042 0)
(0.893667 0.446852 0)
(0.893094 0.44654 0)
(0.892239 0.446048 0)
(0.891007 0.445307 0)
(0.889282 0.444221 0)
(0.88696 0.442686 0)
(0.883977 0.440607 0)
(0.88038 0.437952 0)
(0.87645 0.43484 0)
(0.872689 0.431577 0)
(0.894419 0.447192 0)
(0.894414 0.447194 0)
(0.89441 0.447196 0)
(0.894407 0.447197 0)
(0.894405 0.447198 0)
(0.894403 0.447199 0)
(0.894402 0.447199 0)
(0.894401 0.447199 0)
(0.894401 0.4472 0)
(0.894401 0.4472 0)
(0.8944 0.4472 0)
(0.894401 0.4472 0)
(0.8944 0.4472 0)
(0.8944 0.4472 0)
(0.8944 0.4472 0)
(0.8944 0.4472 0)
(0.8944 0.4472 0)
(0.8944 0.4472 0)
(0.8944 0.4472 0)
(0.8944 0.4472 0)
(0.8944 0.4472 0)
(0.8944 0.4472 0)
(0.8944 0.4472 0)
(0.8944 0.4472 0)
(0.8944 0.4472 0)
(0.8944 0.4472 0)
(0.8944 0.447201 0)
(0.8944 0.447199 0)
(0.8944 0.4472 0)
(0.8944 0.4472 0)
(0.894401 0.4472 0)
(0.894399 0.4472 0)
(0.894401 0.4472 0)
(0.8944 0.447201 0)
(0.8944 0.447199 0)
(0.8944 0.4472 0)
(0.8944 0.447201 0)
(0.894399 0.447199 0)
(0.894401 0.4472 0)
(0.894399 0.4472 0)
(0.894401 0.4472 0)
(0.8944 0.4472 0)
(0.8944 0.4472 0)
(0.894399 0.447201 0)
(0.894403 0.447199 0)
(0.894399 0.447202 0)
(0.894401 0.447199 0)
(0.894404 0.447203 0)
(0.894401 0.4472 0)
(0.894407 0.447201 0)
(0.894408 0.447205 0)
(0.89441 0.447202 0)
(0.894416 0.447208 0)
(0.894424 0.447209 0)
(0.894428 0.447213 0)
(0.894443 0.447217 0)
(0.894451 0.447223 0)
(0.894464 0.447231 0)
(0.894478 0.447239 0)
(0.894484 0.447244 0)
(0.894481 0.447248 0)
(0.894463 0.447244 0)
(0.894414 0.447224 0)
(0.894313 0.447181 0)
(0.894134 0.447094 0)
(0.893836 0.446937 0)
(0.893371 0.446676 0)
(0.892666 0.446261 0)
(0.891638 0.445627 0)
(0.890194 0.444689 0)
(0.88823 0.443347 0)
(0.885656 0.441501 0)
(0.88246 0.439074 0)
(0.878795 0.436106 0)
(0.87504 0.432807 0)
(0.894417 0.447192 0)
(0.894412 0.447195 0)
(0.894409 0.447196 0)
(0.894406 0.447197 0)
(0.894404 0.447198 0)
(0.894403 0.447199 0)
(0.894402 0.447199 0)
(0.894401 0.447199 0)
(0.894401 0.4472 0)
(0.894401 0.4472 0)
(0.8944 0.4472 0)
(0.8944 0.4472 0)
(0.8944 0.4472 0)
(0.8944 0.4472 0)
(0.8944 0.4472 0)
(0.8944 0.4472 0)
(0.8944 0.4472 0)
(0.8944 0.4472 0)
(0.8944 0.4472 0)
(0.8944 0.4472 0)
(0.8944 0.4472 0)
(0.8944 0.4472 0)
(0.8944 0.4472 0)
(0.8944 0.4472 0)
(0.8944 0.4472 0)
(0.8944 0.4472 0)
(0.8944 0.4472 0)
(0.8944 0.4472 0)
(0.8944 0.4472 0)
(0.8944 0.4472 0)
(0.8944 0.4472 0)
(0.894401 0.4472 0)
(0.894399 0.447199 0)
(0.8944 0.447201 0)
(0.8944 0.4472 0)
(0.8944 0.4472 0)
(0.8944 0.4472 0)
(0.8944 0.447199 0)
(0.8944 0.4472 0)
(0.894399 0.4472 0)
(0.894401 0.447199 0)
(0.894399 0.447201 0)
(0.894401 0.4472 0)
(0.8944 0.447199 0)
(0.894401 0.447201 0)
(0.894401 0.4472 0)
(0.894402 0.4472 0)
(0.894402 0.4472 0)
(0.894403 0.447203 0)
(0.894404 0.4472 0)
(0.894407 0.447203 0)
(0.89441 0.447204 0)
(0.894414 0.447205 0)
(0.89442 0.44721 0)
(0.894428 0.44721 0)
(0.894436 0.447219 0)
(0.894448 0.447222 0)
(0.89446 0.447228 0)
(0.89447 0.44724 0)
(0.89448 0.447244 0)
(0.894481 0.44725 0)
(0.894469 0.44725 0)
(0.894433 0.447238 0)
(0.894355 0.447205 0)
(0.894216 0.447138 0)
(0.89398 0.447011 0)
(0.8936 0.446796 0)
(0.893024 0.446451 0)
(0.892181 0.445912 0)
(0.890983 0.445113 0)
(0.889336 0.443959 0)
(0.887154 0.442346 0)
(0.884381 0.440181 0)
(0.881072 0.437436 0)
(0.877475 0.434224 0)
(0.894415 0.447193 0)
(0.894411 0.447195 0)
(0.894408 0.447196 0)
(0.894405 0.447198 0)
(0.894404 0.447198 0)
(0.894403 0.447199 0)
(0.894402 0.447199 0)
(0.894401 0.4472 0)
(0.894401 0.4472 0)
(0.8944 0.4472 0)
(0.8944 0.4472 0)
(0.8944 0.4472 0)
(0.8944 0.4472 0)
(0.8944 0.4472 0)
(0.8944 0.4472 0)
(0.8944 0.4472 0)
(0.8944 0.4472 0)
(0.8944 0.4472 0)
(0.8944 0.4472 0)
(0.8944 0.4472 0)
(0.8944 0.4472 0)
(0.8944 0.4472 0)
(0.8944 0.4472 0)
(0.8944 0.4472 0)
(0.8944 0.4472 0)
(0.8944 0.4472 0)
(0.8944 0.4472 0)
(0.8944 0.4472 0)
(0.8944 0.4472 0)
(0.8944 0.4472 0)
(0.8944 0.4472 0)
(0.8944 0.4472 0)
(0.8944 0.4472 0)
(0.894399 0.4472 0)
(0.894401 0.4472 0)
(0.894399 0.4472 0)
(0.8944 0.447199 0)
(0.8944 0.447201 0)
(0.894399 0.4472 0)
(0.894401 0.447199 0)
(0.8944 0.447201 0)
(0.894399 0.4472 0)
(0.894402 0.4472 0)
(0.8944 0.447201 0)
(0.8944 0.447199 0)
(0.894402 0.4472 0)
(0.894401 0.447201 0)
(0.894401 0.4472 0)
(0.894403 0.447201 0)
(0.894404 0.447202 0)
(0.894405 0.447201 0)
(0.894411 0.447207 0)
(0.894412 0.447204 0)
(0.894417 0.447208 0)
(0.894425 0.447212 0)
(0.894433 0.447215 0)
(0.894442 0.447223 0)
(0.894455 0.447227 0)
(0.894463 0.447238 0)
(0.894474 0.447244 0)
(0.894482 0.44725 0)
(0.894471 0.447256 0)
(0.894445 0.447248 0)
(0.894391 0.447223 0)
(0.894278 0.447172 0)
(0.894091 0.447074 0)
(0.893791 0.4469 0)
(0.893325 0.446612 0)
(0.892639 0.446167 0)
(0.891655 0.445495 0)
(0.890292 0.444513 0)
(0.888467 0.443124 0)
(0.886107 0.441235 0)
(0.883204 0.438768 0)
(0.879889 0.435752 0)
(0.894413 0.447193 0)
(0.89441 0.447195 0)
(0.894407 0.447197 0)
(0.894405 0.447198 0)
(0.894403 0.447198 0)
(0.894402 0.447199 0)
(0.894402 0.447199 0)
(0.894401 0.4472 0)
(0.894401 0.4472 0)
(0.8944 0.4472 0)
(0.8944 0.4472 0)
(0.8944 0.4472 0)
(0.8944 0.4472 0)
(0.8944 0.4472 0)
(0.8944 0.4472 0)
(0.8944 0.4472 0)
(0.8944 0.4472 0)
(0.8944 0.4472 0)
(0.8944 0.4472 0)
(0.8944 0.4472 0)
(0.8944 0.4472 0)
(0.8944 0.4472 0)
(0.8944 0.4472 0)
(0.8944 0.4472 0)
(0.8944 0.4472 0)
(0.8944 0.4472 0)
(0.894399 0.4472 0)
(0.894401 0.4472 0)
(0.8944 0.4472 0)
(0.8944 0.4472 0)
(0.894399 0.4472 0)
(0.894401 0.4472 0)
(0.8944 0.4472 0)
(0.8944 0.4472 0)
(0.8944 0.4472 0)
(0.894401 0.4472 0)
(0.894399 0.4472 0)
(0.894401 0.447199 0)
(0.8944 0.447201 0)
(0.894399 0.4472 0)
(0.894401 0.4472 0)
(0.894399 0.4472 0)
(0.894401 0.447201 0)
(0.894401 0.447199 0)
(0.894399 0.447201 0)
(0.894401 0.4472 0)
(0.894401 0.4472 0)
(0.894401 0.447202 0)
(0.894402 0.4472 0)
(0.894404 0.447202 0)
(0.894405 0.447202 0)
(0.894407 0.447203 0)
(0.894413 0.447207 0)
(0.894414 0.447206 0)
(0.894422 0.447211 0)
(0.89443 0.447215 0)
(0.894436 0.447219 0)
(0.89445 0.447229 0)
(0.89446 0.447233 0)
(0.894466 0.447244 0)
(0.894475 0.447252 0)
(0.894473 0.447254 0)
(0.894455 0.447255 0)
(0.894412 0.44724 0)
(0.89433 0.4472 0)
(0.894182 0.447124 0)
(0.893945 0.446984 0)
(0.893574 0.446754 0)
(0.893017 0.446388 0)
(0.89222 0.445828 0)
(0.891107 0.445003 0)
(0.889595 0.443828 0)
(0.887619 0.442205 0)
(0.88514 0.440046 0)
(0.882191 0.437309 0)
(0.894412 0.447194 0)
(0.894408 0.447196 0)
(0.894406 0.447197 0)
(0.894404 0.447198 0)
(0.894403 0.447199 0)
(0.894402 0.447199 0)
(0.894401 0.4472 0)
(0.894401 0.447199 0)
(0.894401 0.4472 0)
(0.8944 0.4472 0)
(0.8944 0.4472 0)
(0.8944 0.4472 0)
(0.8944 0.4472 0)
(0.8944 0.4472 0)
(0.8944 0.4472 0)
(0.8944 0.4472 0)
(0.8944 0.4472 0)
(0.8944 0.4472 0)
(0.8944 0.4472 0)
(0.8944 0.4472 0)
(0.8944 0.4472 0)
(0.8944 0.4472 0)
(0.8944 0.4472 0)
(0.8944 0.4472 0)
(0.8944 0.4472 0)
(0.8944 0.4472 0)
(0.8944 0.4472 0)
(0.8944 0.4472 0)
(0.8944 0.4472 0)
(0.8944 0.4472 0)
(0.8944 0.4472 0)
(0.8944 0.4472 0)
(0.8944 0.4472 0)
(0.8944 0.447201 0)
(0.8944 0.447199 0)
(0.894399 0.447201 0)
(0.894401 0.4472 0)
(0.8944 0.4472 0)
(0.894399 0.4472 0)
(0.894401 0.4472 0)
(0.894399 0.4472 0)
(0.894401 0.447201 0)
(0.894399 0.447199 0)
(0.894401 0.447201 0)
(0.8944 0.4472 0)
(0.894401 0.4472 0)
(0.894401 0.447201 0)
(0.8944 0.447201 0)
(0.894402 0.447201 0)
(0.894403 0.447201 0)
(0.894405 0.447203 0)
(0.894404 0.447202 0)
(0.894411 0.447205 0)
(0.894413 0.447208 0)
(0.894419 0.447209 0)
(0.894425 0.447213 0)
(0.894434 0.44722 0)
(0.894442 0.447225 0)
(0.894454 0.447233 0)
(0.894463 0.447241 0)
(0.894467 0.447249 0)
(0.894472 0.447258 0)
(0.894459 0.447256 0)
(0.894427 0.44725 0)
(0.894368 0.447223 0)
(0.894252 0.447164 0)
(0.894065 0.447056 0)
(0.893774 0.446872 0)
(0.893331 0.446576 0)
(0.892689 0.446115 0)
(0.891787 0.445433 0)
(0.890554 0.444451 0)
(0.888923 0.443077 0)
(0.886842 0.441221 0)
(0.884302 0.438815 0)
(0.89441 0.447194 0)
(0.894407 0.447196 0)
(0.894405 0.447197 0)
(0.894404 0.447198 0)
(0.894403 0.447199 0)
(0.894402 0.447199 0)
(0.894401 0.4472 0)
(0.894401 0.4472 0)
(0.894401 0.4472 0)
(0.8944 0.4472 0)
(0.8944 0.4472 0)
(0.8944 0.4472 0)
(0.8944 0.4472 0)
(0.8944 0.4472 0)
(0.8944 0.4472 0)
(0.8944 0.4472 0)
(0.8944 0.4472 0)
(0.8944 0.4472 0)
(0.8944 0.4472 0)
(0.8944 0.4472 0)
(0.8944 0.4472 0)
(0.8944 0.4472 0)
(0.8944 0.4472 0)
(0.8944 0.4472 0)
(0.8944 0.4472 0)
(0.8944 0.4472 0)
(0.8944 0.4472 0)
(0.8944 0.4472 0)
(0.8944 0.4472 0)
(0.8944 0.4472 0)
(0.8944 0.4472 0)
(0.8944 0.4472 0)
(0.8944 0.4472 0)
(0.8944 0.4472 0)
(0.8944 0.4472 0)
(0.8944 0.4472 0)
(0.8944 0.4472 0)
(0.894401 0.4472 0)
(0.894399 0.4472 0)
(0.8944 0.4472 0)
(0.8944 0.4472 0)
(0.894401 0.447199 0)
(0.8944 0.447201 0)
(0.8944 0.4472 0)
(0.894401 0.4472 0)
(0.894399 0.4472 0)
(0.894401 0.4472 0)
(0.8944 0.447201 0)
(0.894402 0.447201 0)
(0.894404 0.4472 0)
(0.894402 0.447202 0)
(0.894408 0.447204 0)
(0.894407 0.447202 0)
(0.894413 0.447207 0)
(0.894416 0.44721 0)
(0.894423 0.447211 0)
(0.894431 0.447218 0)
(0.894435 0.447225 0)
(0.894448 0.447228 0)
(0.894456 0.447241 0)
(0.894463 0.447248 0)
(0.894466 0.447253 0)
(0.894462 0.44726 0)
(0.894439 0.447256 0)
(0.894391 0.447237 0)
(0.894308 0.447196 0)
(0.894164 0.447112 0)
(0.893932 0.446968 0)
(0.893584 0.446732 0)
(0.893074 0.44636 0)
(0.89235 0.445801 0)
(0.891356 0.444994 0)
(0.890027 0.443848 0)
(0.888309 0.442279 0)
(0.886171 0.44021 0)
(0.894409 0.447195 0)
(0.894406 0.447196 0)
(0.894404 0.447198 0)
(0.894403 0.447198 0)
(0.894402 0.447199 0)
(0.894401 0.447199 0)
(0.894401 0.4472 0)
(0.894401 0.4472 0)
(0.8944 0.4472 0)
(0.8944 0.4472 0)
(0.8944 0.4472 0)
(0.8944 0.4472 0)
(0.8944 0.4472 0)
(0.8944 0.4472 0)
(0.8944 0.4472 0)
(0.8944 0.4472 0)
(0.8944 0.4472 0)
(0.8944 0.4472 0)
(0.8944 0.4472 0)
(0.8944 0.4472 0)
(0.8944 0.4472 0)
(0.8944 0.4472 0)
(0.8944 0.4472 0)
(0.8944 0.4472 0)
(0.8944 0.4472 0)
(0.8944 0.4472 0)
(0.8944 0.4472 0)
(0.8944 0.4472 0)
(0.8944 0.4472 0)
(0.8944 0.4472 0)
(0.8944 0.4472 0)
(0.8944 0.4472 0)
(0.8944 0.4472 0)
(0.8944 0.4472 0)
(0.8944 0.4472 0)
(0.8944 0.4472 0)
(0.8944 0.4472 0)
(0.8944 0.4472 0)
(0.894399 0.4472 0)
(0.894401 0.4472 0)
(0.8944 0.4472 0)
(0.894398 0.4472 0)
(0.894402 0.447199 0)
(0.894398 0.4472 0)
(0.894401 0.4472 0)
(0.894401 0.4472 0)
(0.894399 0.4472 0)
(0.894402 0.447201 0)
(0.894401 0.4472 0)
(0.894402 0.447201 0)
(0.894403 0.447201 0)
(0.894404 0.447203 0)
(0.894408 0.447204 0)
(0.89441 0.447205 0)
(0.894415 0.447208 0)
(0.894418 0.447213 0)
(0.894426 0.447214 0)
(0.894434 0.447221 0)
(0.894439 0.44723 0)
(0.894451 0.447234 0)
(0.894457 0.447244 0)
(0.894461 0.447254 0)
(0.89446 0.447258 0)
(0.894445 0.44726 0)
(0.89441 0.447247 0)
(0.894347 0.447217 0)
(0.894237 0.44716 0)
(0.894058 0.447046 0)
(0.893786 0.446857 0)
(0.893384 0.446564 0)
(0.892809 0.446115 0)
(0.892015 0.445451 0)
(0.890945 0.444511 0)
(0.88955 0.443212 0)
(0.887785 0.441467 0)
(0.894407 0.447196 0)
(0.894405 0.447197 0)
(0.894404 0.447198 0)
(0.894403 0.447199 0)
(0.894402 0.447199 0)
(0.894401 0.447199 0)
(0.894401 0.4472 0)
(0.894401 0.4472 0)
(0.8944 0.4472 0)
(0.8944 0.4472 0)
(0.8944 0.4472 0)
(0.8944 0.4472 0)
(0.8944 0.4472 0)
(0.8944 0.4472 0)
(0.8944 0.4472 0)
(0.8944 0.4472 0)
(0.8944 0.4472 0)
(0.8944 0.4472 0)
(0.8944 0.4472 0)
(0.8944 0.4472 0)
(0.8944 0.4472 0)
(0.8944 0.4472 0)
(0.8944 0.4472 0)
(0.8944 0.4472 0)
(0.8944 0.4472 0)
(0.8944 0.4472 0)
(0.8944 0.4472 0)
(0.8944 0.4472 0)
(0.894399 0.4472 0)
(0.8944 0.4472 0)
(0.8944 0.4472 0)
(0.8944 0.447199 0)
(0.8944 0.447201 0)
(0.8944 0.4472 0)
(0.8944 0.4472 0)
(0.894399 0.447201 0)
(0.894401 0.447199 0)
(0.8944 0.4472 0)
(0.8944 0.4472 0)
(0.8944 0.447199 0)
(0.894401 0.447201 0)
(0.8944 0.4472 0)
(0.8944 0.4472 0)
(0.894401 0.4472 0)
(0.894399 0.4472 0)
(0.894402 0.4472 0)
(0.8944 0.4472 0)
(0.894399 0.447201 0)
(0.894404 0.4472 0)
(0.8944 0.447202 0)
(0.894403 0.447202 0)
(0.894405 0.4472 0)
(0.894405 0.447204 0)
(0.894408 0.447206 0)
(0.894411 0.447206 0)
(0.894419 0.44721 0)
(0.89442 0.447215 0)
(0.89443 0.447219 0)
(0.894435 0.447225 0)
(0.894445 0.447233 0)
(0.89445 0.44724 0)
(0.894455 0.447252 0)
(0.894457 0.447256 0)
(0.894445 0.447258 0)
(0.894423 0.447256 0)
(0.894376 0.447235 0)
(0.894292 0.447188 0)
(0.894156 0.447109 0)
(0.893945 0.446962 0)
(0.893631 0.446728 0)
(0.89318 0.446374 0)
(0.892552 0.44584 0)
(0.891701 0.445074 0)
(0.890579 0.444012 0)
(0.889147 0.442567 0)
(0.894406 0.447196 0)
(0.894404 0.447197 0)
(0.894403 0.447198 0)
(0.894402 0.447199 0)
(0.894401 0.447199 0)
(0.894401 0.4472 0)
(0.894401 0.4472 0)
(0.8944 0.4472 0)
(0.8944 0.4472 0)
(0.8944 0.4472 0)
(0.8944 0.4472 0)
(0.8944 0.4472 0)
(0.8944 0.4472 0)
(0.8944 0.4472 0)
(0.8944 0.4472 0)
(0.8944 0.4472 0)
(0.8944 0.4472 0)
(0.8944 0.4472 0)
(0.8944 0.4472 0)
(0.8944 0.4472 0)
(0.8944 0.4472 0)
(0.8944 0.4472 0)
(0.8944 0.4472 0)
(0.8944 0.4472 0)
(0.8944 0.4472 0)
(0.8944 0.4472 0)
(0.8944 0.4472 0)
(0.8944 0.4472 0)
(0.8944 0.4472 0)
(0.8944 0.4472 0)
(0.8944 0.447201 0)
(0.8944 0.447199 0)
(0.8944 0.447201 0)
(0.8944 0.4472 0)
(0.894401 0.4472 0)
(0.894399 0.447201 0)
(0.894401 0.447199 0)
(0.894399 0.447201 0)
(0.894401 0.4472 0)
(0.894399 0.4472 0)
(0.8944 0.4472 0)
(0.894401 0.447199 0)
(0.8944 0.4472 0)
(0.8944 0.447201 0)
(0.894401 0.4472 0)
(0.8944 0.4472 0)
(0.8944 0.447201 0)
(0.894402 0.4472 0)
(0.8944 0.447201 0)
(0.894402 0.447201 0)
(0.894402 0.4472 0)
(0.894405 0.447203 0)
(0.894404 0.447203 0)
(0.894407 0.447203 0)
(0.894411 0.447207 0)
(0.894414 0.447208 0)
(0.894418 0.447213 0)
(0.894425 0.447218 0)
(0.894432 0.447221 0)
(0.894436 0.447231 0)
(0.894446 0.447238 0)
(0.89445 0.447245 0)
(0.894449 0.447253 0)
(0.894448 0.447259 0)
(0.89443 0.447258 0)
(0.894393 0.447244 0)
(0.894333 0.447215 0)
(0.89423 0.447153 0)
(0.894067 0.447043 0)
(0.893826 0.446863 0)
(0.893474 0.446581 0)
(0.892981 0.446161 0)
(0.892311 0.445548 0)
(0.891423 0.444686 0)
(0.890276 0.443508 0)
(0.894405 0.447197 0)
(0.894404 0.447198 0)
(0.894403 0.447198 0)
(0.894402 0.447199 0)
(0.894401 0.447199 0)
(0.894401 0.447199 0)
(0.894401 0.4472 0)
(0.8944 0.4472 0)
(0.8944 0.4472 0)
(0.8944 0.4472 0)
(0.8944 0.4472 0)
(0.8944 0.4472 0)
(0.8944 0.4472 0)
(0.8944 0.4472 0)
(0.8944 0.4472 0)
(0.8944 0.4472 0)
(0.8944 0.4472 0)
(0.8944 0.4472 0)
(0.8944 0.4472 0)
(0.8944 0.4472 0)
(0.8944 0.4472 0)
(0.8944 0.4472 0)
(0.8944 0.4472 0)
(0.8944 0.4472 0)
(0.8944 0.4472 0)
(0.8944 0.4472 0)
(0.8944 0.4472 0)
(0.8944 0.4472 0)
(0.8944 0.4472 0)
(0.8944 0.4472 0)
(0.8944 0.4472 0)
(0.894401 0.4472 0)
(0.894399 0.4472 0)
(0.894401 0.4472 0)
(0.894399 0.4472 0)
(0.894401 0.4472 0)
(0.894399 0.4472 0)
(0.8944 0.4472 0)
(0.8944 0.4472 0)
(0.8944 0.4472 0)
(0.894399 0.4472 0)
(0.894401 0.4472 0)
(0.894399 0.4472 0)
(0.8944 0.4472 0)
(0.894401 0.447201 0)
(0.8944 0.447199 0)
(0.8944 0.447201 0)
(0.894401 0.4472 0)
(0.8944 0.4472 0)
(0.894401 0.447201 0)
(0.894402 0.4472 0)
(0.894402 0.447202 0)
(0.894407 0.447202 0)
(0.894404 0.447203 0)
(0.894411 0.447205 0)
(0.89441 0.447209 0)
(0.894416 0.44721 0)
(0.89442 0.447216 0)
(0.894428 0.44722 0)
(0.894431 0.447227 0)
(0.89444 0.447233 0)
(0.894444 0.447242 0)
(0.894446 0.44725 0)
(0.894443 0.447255 0)
(0.894433 0.447258 0)
(0.894409 0.44725 0)
(0.894361 0.44723 0)
(0.894284 0.447186 0)
(0.894162 0.447103 0)
(0.893975 0.446967 0)
(0.893707 0.44675 0)
(0.893326 0.44642 0)
(0.892801 0.445937 0)
(0.892103 0.445247 0)
(0.891198 0.444297 0)
(0.894404 0.447197 0)
(0.894403 0.447198 0)
(0.894402 0.447199 0)
(0.894402 0.447199 0)
(0.894401 0.447199 0)
(0.894401 0.4472 0)
(0.8944 0.4472 0)
(0.8944 0.4472 0)
(0.8944 0.4472 0)
(0.8944 0.4472 0)
(0.8944 0.4472 0)
(0.8944 0.4472 0)
(0.8944 0.4472 0)
(0.8944 0.4472 0)
(0.8944 0.4472 0)
(0.8944 0.4472 0)
(0.8944 0.4472 0)
(0.8944 0.4472 0)
(0.8944 0.4472 0)
(0.8944 0.4472 0)
(0.8944 0.4472 0)
(0.8944 0.4472 0)
(0.8944 0.4472 0)