/*--------------------------------*- C++ -*----------------------------------*\
  =========                 |
  \\      /  F ield         | OpenFOAM: The Open Source CFD Toolbox
   \\    /   O peration     | Website:  https://openfoam.org
    \\  /    A nd           | Version:  6
     \\/     M anipulation  |
\*---------------------------------------------------------------------------*/
FoamFile
{
    version     2.0;
    format      ascii;
    class       surfaceScalarField;
    location    "1.09";
    object      phi;
}
// * * * * * * * * * * * * * * * * * * * * * * * * * * * * * * * * * * * * * //

dimensions      [0 3 -1 0 0 0 0];

internalField   nonuniform List<scalar> 
1540
(
0.0568389
0.162114
0.0343919
0.0218982
0.0315881
0.00225505
0.0509417
-0.019902
0.0410166
0.0093761
0.0455469
-0.00507889
0.0308994
0.0140989
0.0388605
-0.00850981
0.0249869
0.0133251
0.0386597
-0.0142216
-0.0108189
0.0494786
0.00481276
-0.0156318
0.0525338
-0.047721
0.0458184
0.00671524
0.0622021
-0.0163836
0.0105273
0.0516746
-0.0670194
0.0775467
-0.0541084
-0.0129112
-0.0541165
8.07364e-06
-0.0541166
0.00485824
0.156707
0.0418339
-0.0156262
0.0340628
0.00947732
0.02205
-0.00843759
-0.0227248
0.0536019
0.00598569
-0.0343379
0.0165297
0.00300632
0.0194843
-0.012013
0.0280595
0.0042014
0.0303453
-0.0170563
-0.00777525
0.0875991
-0.0187309
-0.00467622
0.0206221
-0.0870741
0.0311388
-0.00380162
-0.000925575
0.0156807
0.0122615
0.0384873
0.0229484
0.0668597
-0.0329101
0.0429473
-0.058205
0.0253028
-0.112322
0.0231726
0.132985
0.0324612
-0.0254636
0.0282844
0.0131054
0.0341768
-0.0148783
0.0277523
0.0594775
0.0405686
-0.0477029
0.0546683
-0.011642
0.0280909
0.0140158
0.00718438
0.0245593
0.014034
-0.0244548
0.045002
0.0566311
0.0412814
-0.00095578
0.0115607
-0.0573534
0.0276702
-0.0199112
0.0150422
0.0283087
0.00681422
0.0467152
-0.056194
0.129868
-0.0579624
0.0447156
-0.0274636
-0.00519609
-0.139785
-0.00728353
0.13972
0.00238423
-0.0356801
0.00485835
0.0100824
0.0155352
-0.0261035
-0.00264102
0.0771048
-0.00278744
-0.0481051
0.0172839
-0.0322619
0.0399844
-0.00923337
0.0269584
0.0370367
0.0212347
-0.01928
-0.0278744
0.10574
-0.02626
-0.00257026
-0.0273955
-0.0562179
-0.0249142
-0.0223926
0.0182845
-0.01489
-0.0567712
0.121771
-0.0450093
0.118106
-0.0177853
0.0174915
-0.0695297
0.0465482
-0.209315
0.0188723
0.120299
-0.0103916
-0.00696483
-0.00930851
0.00845042
0.0211529
-0.0571135
0.0333168
0.064392
0.0322602
-0.0475972
-0.0488629
0.0483125
-0.0351501
-0.0234948
0.0552398
-0.0539018
0.0356636
-0.000252581
0.0520751
0.0893287
0.0275955
0.0219093
0.0110473
-0.0396697
0.0434317
-0.0547771
0.0318088
-0.00326711
0.106999
0.0465806
0.00116742
0.223937
-0.0781254
0.0967843
-0.00461815
-0.0269591
-0.213933
-0.000243383
0.119994
-0.0146686
0.00691162
-0.027411
0.020644
-0.0123338
-0.0727392
-0.0241544
0.0756637
-0.0242921
-0.0480082
0.0150672
0.00840463
-0.00637389
-0.00260232
-0.0252603
-0.035564
0.0245209
-0.0505827
-0.0098706
0.12372
0.0326586
-0.02062
0.0181688
-0.0251799
-0.0802524
0.0436439
-0.0743768
-0.00914273
-0.0740125
0.0462162
-0.0697868
0.219712
-0.0604487
0.087446
-0.0775003
-0.00990759
-0.291433
0.0225416
0.0969034
0.0203534
0.00855104
0.00704481
0.0334038
0.00641971
-0.0726626
0.020667
0.0608675
0.0378351
-0.065725
-0.0122942
0.0579853
0.00778128
-0.0232265
0.0312679
-0.0595992
-0.00513665
-0.014727
0.0346219
0.0839616
-0.0130221
0.0270239
-0.0538971
0.0156952
0.0212955
-0.0315487
-0.0272153
0.039368
0.025794
-0.00679328
0.0221288
0.223377
-0.0672846
0.176859
-0.0227889
-0.0544034
-0.314222
-0.00958004
0.105935
0.00489869
-0.00647641
-0.00670524
0.0444589
-0.0217555
-0.0581609
-0.00908218
0.0476453
0.00660344
-0.0819592
0.017521
0.0465191
0.0199435
-0.0261977
-0.0251974
-0.0150067
-0.0303155
-0.0101578
-0.0217349
0.0753811
-0.0500664
0.0553553
-0.0946379
0.0602666
-0.0833244
-0.0428622
-0.0722735
0.0283171
-0.084538
0.00547107
-0.0812721
0.220111
-0.0746694
0.170257
-0.0748079
-0.054265
-0.38903
0.000480108
0.104906
0.0191676
-0.0257126
0.0374687
0.025609
0.0311598
-0.0524004
0.036955
0.0413011
0.0348267
-0.0803796
-0.0104354
0.0912324
-0.0214533
-0.0157284
0.00748949
-0.044498
0.010423
-0.0136402
-0.0223243
0.108128
-0.0667523
0.0997832
-0.0669425
0.0604569
0.0190307
-0.128835
-0.0130129
0.0603606
0.0107006
-0.0182427
0.0157551
0.215056
-0.0536954
0.239707
-0.0187644
-0.089196
-0.407795
0.00142945
0.102928
0.0143238
-0.0391557
-0.0151143
0.0544982
-0.0478198
-0.0202432
-0.0362962
0.0292285
-0.000325464
-0.116899
0.0276384
0.0627199
0.0119917
-0.000630479
-0.0462618
0.013207
-0.0367439
-0.023707
-0.0508856
0.12227
-0.0377317
0.0866293
-0.0297852
0.0525104
-0.046709
-0.111912
-0.0511269
0.0647784
-0.0711827
0.00181298
-0.0648268
0.208701
-0.0479532
0.222834
-0.0651002
-0.0720492
-0.472895
0.00276517
0.0996136
0.0256672
-0.0626065
0.0188792
0.0607374
0.0209431
-0.0228554
0.0202945
0.0293281
0.0105106
-0.107664
-0.00927744
0.0819593
-0.0175787
0.0071221
0.00919936
-0.0141195
0.00929708
-0.0243535
-0.0032069
0.134774
-0.0147935
0.0982159
-0.0125847
0.0503016
0.043421
-0.167917
0.0576533
0.0505461
0.0601809
-0.00071483
0.0205909
0.248291
-0.0348358
0.27826
-0.00667024
-0.100215
-0.479565
0.00428299
0.0947818
0.00779287
-0.0666651
0.0155844
0.0523971
-0.0209055
0.0130861
-0.0465466
0.0544203
-0.00699174
-0.147767
0.00663249
0.0677864
0.00942822
0.00377773
-0.0384676
0.0332277
-0.0362456
-0.0271244
-0.0310553
0.129584
-0.0291679
0.0963284
-0.0159405
0.0370742
-0.0362242
-0.147634
-0.0357455
0.0500673
-0.0292908
-0.00716978
-0.0500428
0.269043
-0.0309352
0.259153
-0.0548253
-0.0763247
-0.53439
0.00552785
0.0887052
0.0277503
-0.0894363
0.00564993
0.0739487
0.00895079
0.00923685
0.0121858
0.0506363
-0.00674735
-0.129383
-0.0107962
0.0712865
-0.0125164
0.00494927
-0.0182965
0.0384593
-0.0291193
-0.0168505
0.0118105
0.0886541
0.0122133
0.0959257
-0.0286397
0.0779273
-0.00408017
-0.172193
-0.0540485
0.100036
-0.0361123
-0.0251061
0.00826322
0.224667
-0.0261502
0.293566
0.00894519
-0.11142
-0.525445
0.0100101
0.0781462
0.00529601
-0.0852709
0.00695504
0.0717408
-0.0309987
0.0466421
-0.0501093
0.069198
-0.0188077
-0.161233
-0.00972784
0.0616579
0.00398892
-0.00931615
0.002501
0.0393987
0.0146655
-0.0295638
-0.0307048
0.134024
-0.0323914
0.0976122
-0.0294521
0.0749879
-0.0456784
-0.155967
-0.0725623
0.126919
-0.0703541
-0.0273145
-0.0513696
0.205682
-0.0217254
0.263922
-0.0435033
-0.0896423
-0.568949
0.0110552
0.0665422
0.0256953
-0.10046
0.00683765
0.0900497
0.00428336
0.0486479
-0.00256766
0.0755001
-0.0156746
-0.148675
-0.021816
0.0672507
-0.0200682
-0.0116127
-0.0261741
0.044956
-0.0426587
-0.013628
0.0191699
0.0721959
0.0205993
0.0961828
-0.0155587
0.111146
0.00415471
-0.17568
-0.0575281
0.188602
-0.0409003
-0.0439424
0.0152217
0.14956
-0.0200082
0.299152
0.0223112
-0.131962
-0.546637
0.0139913
0.0520021
-0.000792632
-0.0862245
0.0129598
0.0757484
-0.00465729
0.0657165
-0.0242997
0.0945937
-0.0138299
-0.159694
-0.013834
0.0667061
-0.00753326
-0.018462
0.00493764
0.0319367
0.0330852
-0.0423244
-0.0302857
0.135567
-0.0481743
0.114071
-0.0363015
0.0992732
-0.0458431
-0.166139
-0.0603855
0.203145
-0.0498765
-0.0544516
-0.046965
0.146649
-0.00985411
0.262041
-0.0319793
-0.109837
-0.578617
0.0167881
0.0346651
0.0248534
-0.0948386
0.00744288
0.0926102
0.0130128
0.059598
0.0100005
0.097057
-0.0021029
-0.148139
-0.020245
0.0842995
-0.0188085
-0.0204472
0.00138825
0.0111914
-0.0162098
-0.0252753
0.0218757
0.0974814
0.0301998
0.105747
0.0142507
0.115222
0.0317806
-0.183669
-0.0214066
0.256332
-0.00964926
-0.066209
0.0287691
0.10823
-0.0133528
0.304163
0.0319306
-0.15512
-0.546686
0.00406559
0.0300507
-0.00907552
-0.0822463
0.0168346
0.0661512
0.00551049
0.0703736
-0.0164838
0.118502
-0.00514306
-0.160028
-0.0117218
0.0903295
-0.0297125
-0.0030051
-0.05009
0.0310204
-0.0246257
-0.0512884
-0.0362683
0.109124
-0.0415471
0.111026
-0.0317149
0.10539
-0.0282476
-0.187136
-0.02355
0.251634
-0.019189
-0.0705701
-0.0410358
0.130077
0.00677935
0.256347
-0.0201769
-0.128164
-0.566863
0.014301
0.0152009
0.0254154
-0.0939095
0.00657683
0.084441
0.0190865
0.0573153
0.0137226
0.123317
0.00268445
-0.149539
-0.00101099
0.0934763
-0.00663693
0.00207212
-0.0142471
0.038082
-0.040208
-0.0258763
0.00791878
0.0609973
0.0263889
0.0925559
0.0280409
0.103738
0.0469613
-0.206057
0.00495882
0.293637
0.00958428
-0.0751957
0.0406582
0.0990033
-0.00717124
0.304177
0.0365694
-0.171904
-0.530294
0.00479991
0.00985216
-0.00846536
-0.0811929
0.0212806
0.0541463
0.0113979
0.0666493
-0.0113924
0.145559
0.000673176
-0.162153
-0.00687644
0.100477
-0.0144266
0.00907361
0.000357668
0.0227493
0.0101314
-0.0361989
-0.02667
0.0977988
-0.0222061
0.088092
-0.0251225
0.106655
-0.0111383
-0.220041
-0.00427534
0.286774
-0.0217949
-0.0576763
-0.0413205
0.118529
0.0269475
0.235909
-0.00630629
-0.138651
-0.5366
0.0266848
-0.0173815
0.0172584
-0.0723153
-0.00380165
0.0746576
0.0212134
0.0410857
0.0225676
0.143656
0.00605977
-0.146194
0.00620618
0.0997821
0.0141506
0.000580502
-0.0145564
0.0509077
-0.0415847
-0.00971947
0.0105519
0.0456622
0.0160403
0.0826036
0.0298049
0.09289
0.0437473
-0.233983
0.0486998
0.281821
0.0584016
-0.0673783
0.0578189
0.119112
-0.00409923
0.297827
0.0349424
-0.177692
-0.501657
0.00780978
-0.0257401
-0.00983095
-0.0552234
0.0189554
0.0453224
0.010514
0.0489787
-0.00385485
0.157476
0.012044
-0.162642
-0.00165231
0.11293
-0.00673608
0.00511558
0.0225856
0.0210375
0.0468575
-0.0345402
-0.00818819
0.100708
-0.0245073
0.0989227
-0.0266483
0.0950309
-0.0105679
-0.250064
0.0301725
0.241081
0.00500503
-0.042211
-0.0395623
0.163679
0.0482327
0.210032
0.00986421
-0.139324
-0.491793
0.0150261
-0.041315
0.0011785
-0.0419245
-0.00872817
0.0546803
0.026145
0.013557
0.0238908
0.159181
0.00596833
-0.145268
0.0160254
0.102324
0.0070008
0.0135915
-0.000957447
0.0284473
-0.0113085
-0.0247379
0.0220979
0.0673015
0.024745
0.0962757
0.0363146
0.0834613
0.0399786
-0.253727
0.0364387
0.244621
0.0412629
-0.0470354
0.0582411
0.146701
-0.00393411
0.272207
0.0283382
-0.171596
-0.463455
0.00550415
-0.0473679
-0.00314743
-0.0338217
0.0218366
0.0291474
0.010691
0.0241541
-0.00723675
0.17656
0.0136836
-0.166737
0.00778964
0.107669
0.0071299
0.0137025
0.0202093
0.0148194
0.0221919
-0.0272693
-0.0103807
0.099874
-0.00848144
0.0943764
-0.024174
0.0991539
-0.0169064
-0.260995
0.0142321
0.213482
-0.00676741
-0.0260361
-0.03336
0.173293
0.0635636
0.175284
0.0245464
-0.132579
-0.438909
0.00325275
-0.0511695
-0.0108609
-0.0202568
-0.0112506
0.0289883
0.0238098
-0.0114547
0.0250882
0.174732
0.00882613
-0.151024
0.0209736
0.094973
-0.00114477
0.0352721
-0.0314525
0.0445786
-0.0392997
-0.019971
-0.00165232
0.0622267
-0.00490507
0.0976291
0.0229578
0.0712911
0.0383791
-0.276416
0.0323464
0.219515
0.0400538
-0.0337437
0.0622991
0.151048
-0.00713748
0.24472
0.0226292
-0.162346
-0.41628
0.00405695
-0.0557752
0.00182185
-0.0185704
0.023201
0.00706024
0.00696906
0.00422871
-0.0110666
0.192219
0.0125749
-0.175214
0.014488
0.0925112
0.0110341
0.0381774
0.0230048
0.0320593
0.0290968
-0.0266118
-0.0139226
0.105246
-0.0110324
0.0947389
-0.0223626
0.0826213
-0.0183442
-0.280435
0.0197069
0.181464
4.20305e-05
-0.014079
-0.0314219
0.182512
0.0708437
0.142454
0.0346611
-0.126163
-0.381618
-0.0064387
-0.0498853
-0.0191929
-0.00636495
-0.0124495
-0.000231979
0.0177518
-0.0265211
0.026132
0.18329
0.0104873
-0.160118
0.0238116
0.0786382
0.00065672
0.0607835
-0.0294395
0.0616068
-0.0361639
-0.0204362
-0.00114273
0.0702249
-0.010099
0.103695
0.021459
0.0510633
0.0352815
-0.294257
0.039782
0.176963
0.0528905
-0.0271876
0.0644606
0.170942
-0.00787485
0.21479
0.0196002
-0.153638
-0.362018
0.00354277
-0.0539769
0.00686341
-0.0102343
0.0255436
-0.019461
0.00319824
-0.00472428
-0.0161816
0.202121
0.00428524
-0.181133
0.0116141
0.0707606
0.00598036
0.0658685
0.00763849
0.0594001
0.00958441
-0.022931
-0.0140487
0.093858
-0.00350117
0.0931476
-0.0168673
0.0644295
-0.024213
-0.286912
0.0248707
0.127879
0.0176806
-0.0199975
-0.0258203
0.214443
0.0754835
0.113486
0.0427766
-0.120931
-0.319242
-0.0142023
-0.0403234
-0.0259129
0.000927484
-0.0145114
-0.0314113
0.00848993
-0.028274
0.0246763
0.185386
0.0074398
-0.164446
0.0159993
0.0616525
-0.00160029
0.0829194
-0.0189583
0.0762094
-0.0291546
-0.0132836
-0.00483863
0.0695421
-0.00879556
0.0971045
0.022222
0.033412
0.0207625
-0.285452
0.0329224
0.115719
0.0589567
-0.0460319
0.0654013
0.207998
-0.00843881
0.187326
0.0167408
-0.146111
-0.302501
0.00574312
-0.0466153
0.0137451
-0.00762323
0.0186728
-0.0368877
-0.00767483
-0.00247495
-0.0208128
0.197975
-0.0109158
-0.174891
-0.00292974
0.0531177
-0.00400492
0.0834458
0.00026449
0.0713914
0.00195719
-0.0155252
-0.0107385
0.0822378
0.00561374
0.0807522
-0.0072559
0.0462817
-0.0369398
-0.255768
0.00487376
0.0739058
0.0152531
-0.0564113
-0.019352
0.242603
0.0806967
0.0872774
0.0522942
-0.117708
-0.250207
-0.0200533
-0.0271109
-0.0365312
0.00830595
-0.024906
-0.0490617
-0.00194311
-0.0259863
0.0224076
0.173075
-0.00282221
-0.15021
-0.00449047
0.0542373
-0.00520253
0.0836091
-0.00594935
0.0715895
-0.0217465
-0.000276961
-0.0043922
0.0648835
-0.00411305
0.080473
0.0208756
0.0212931
0.00738322
-0.242276
0.0105312
0.0707577
0.0390067
-0.0848868
0.0623646
0.219245
-0.0118859
0.161528
0.012971
-0.142565
-0.237236
0.00628501
-0.0339447
0.0180359
-0.0039937
0.00849254
-0.0400671
-0.0128675
-0.00517483
-0.0106507
0.170309
-0.0201504
-0.141259
-0.0202941
0.0538323
-0.00845095
0.0712172
-0.00081553
0.0634055
0.000946048
-0.00258741
-0.00868459
0.0745141
0.00464115
0.0671472
-0.00270425
0.0286386
-0.0438781
-0.201102
-0.0216219
0.0485015
-0.00788989
-0.0986189
-0.0170884
0.228444
0.0856111
0.0588283
0.0641867
-0.121141
-0.173049
-0.0254879
-0.00900562
-0.0481065
0.0180762
-0.0355821
-0.0531403
-0.00113906
-0.0401663
0.0148579
0.153763
-0.0244452
-0.102505
-0.0140392
0.0428776
-0.00870398
0.0653333
-0.00333974
0.0574926
-0.0106896
0.00421361
-0.00504188
0.0688663
0.0146157
0.0474896
0.0430507
0.000203543
0.0238997
-0.181951
0.0177115
0.0546897
0.0249195
-0.105827
0.0550358
0.198327
-0.0191067
0.132971
0.00806958
-0.148317
-0.16498
0.00583133
-0.0153858
0.0156901
0.00766871
-0.00222058
-0.0357784
-0.00956191
-0.0333737
0.00981935
0.133833
-0.00722827
-0.0860058
-0.0177987
0.0528993
0.000522304
0.0464636
0.0103977
0.0470685
0.00840542
0.00565703
0.00469924
0.0725725
0.025338
0.0268508
0.0172085
0.00833312
-0.0287978
-0.135945
-0.0143033
0.0401952
-0.016317
-0.103813
-0.00975792
0.191768
0.086032
0.0371809
0.075053
-0.137338
-0.0899266
-0.0113909
-0.00454366
-0.0426517
0.0383807
-0.0396854
-0.0392935
0.00116483
-0.0747725
0.0190366
0.115413
-0.0296726
-0.0378452
-0.00734033
0.0300184
-1.15038e-06
0.0385757
-0.00564626
0.052165
-0.00382676
0.00328866
0.0154322
0.0533135
0.026326
0.015957
0.0458433
-0.0111841
0.0263371
-0.116438
0.0286171
0.0379152
0.029937
-0.105133
0.0425492
0.179156
-0.0257811
0.105511
-0.00327982
-0.159839
-0.0932065
-0.0020765
-0.00301595
0.010206
0.0255495
-0.00694242
-0.0226939
-0.0122529
-0.0700107
-0.00555949
0.10817
-0.0247356
-0.0192178
-0.00787351
0.0126077
0.0150329
0.0151205
0.0143441
0.052305
0.0148771
0.00220683
0.012597
0.0555936
0.0396837
-0.0111298
0.0337644
-0.0052647
0.00267165
-0.0853457
0.0220272
0.0185597
0.000657106
-0.083763
0.00156751
0.178246
0.0658349
0.0412438
0.0910916
-0.185096
-0.00211492
0.00795912
-0.0115239
0.00541534
0.0275445
-0.0127931
-0.00503422
-0.00371625
-0.0796361
0.0257937
0.0781114
-0.0141538
0.0201811
-0.00258024
0.000485349
0.0123031
-0.000311503
0.0110272
0.0530322
0.00982643
0.00285874
0.029173
0.036247
0.0467933
-0.02875
0.056302
-0.0147734
0.0291142
-0.0581579
0.0391167
0.00855723
0.0194458
-0.064092
0.0673294
0.130362
0.0459392
0.062634
-0.0228445
-0.116312
-0.0249594
-0.00481847
-0.00725417
0.0283419
-0.00616462
0.0222968
0.000462104
-0.0114215
-0.0464664
-0.0060144
0.0721553
0.000854704
0.0127633
-0.00221078
0.00300212
0.0040311
-0.00710212
0.00794319
0.0485714
0.00732207
0.00293103
0.0270775
0.0164916
-0.00911786
0.00744533
-0.0372099
0.0133186
-0.0548287
-0.0405391
-0.0539311
0.00765964
-0.0642359
-0.0537872
0.0231297
0.0429965
0.103111
-0.0173478
0.0947073
-0.107908
0.0697479
-0.0143184
0.00651546
-0.0254289
0.00439707
-0.0220052
-0.00351032
-0.0207558
-0.0482643
0.0191679
0.0316827
-0.00172409
0.0331066
-0.00524607
0.00597539
-0.00795514
-0.0049418
0.0213315
0.018736
0.0242169
-0.000503147
0.0350193
0.00568905
0.041889
0.000575686
0.0442823
0.0109253
0.0366678
-0.0329245
0.0641309
-0.0198035
0.0493116
-0.0389678
0.0748754
0.0174326
0.0483974
0.00913014
-0.0254163
-0.0340946
0.0443316
0.00596671
0.00981502
0.00575595
-0.0430571
-0.0119232
0.0206347
0.0260613
0.0205707
0.038758
0.0377061
0.0433952
0.0439708
0.0548961
0.0219716
0.0021681
-0.0367997
-0.0193671
-0.0102369
-0.0443316
)
;

boundaryField
{
    piston
    {
        type            calculated;
        value           nonuniform List<scalar> 
40
(
0
0
0
0
0
0
0
0
0
0
0
0
0
0
0
0
0
0
0
0
0
0
0
0
0
0
0
0
0
0
0
0
0
0
0
0
0
0
0
-8.67362e-19
)
;
    }
    outlet
    {
        type            calculated;
        value           uniform 0;
    }
    walls
    {
        type            calculated;
        value           uniform 0;
    }
    front
    {
        type            empty;
        value           nonuniform 0();
    }
    back
    {
        type            empty;
        value           nonuniform 0();
    }
}


// ************************************************************************* //
