/*--------------------------------*- C++ -*----------------------------------*\
  =========                 |
  \\      /  F ield         | OpenFOAM: The Open Source CFD Toolbox
   \\    /   O peration     | Website:  https://openfoam.org
    \\  /    A nd           | Version:  6
     \\/     M anipulation  |
\*---------------------------------------------------------------------------*/
FoamFile
{
    version     2.0;
    format      ascii;
    class       volScalarField;
    location    "1.14";
    object      k;
}
// * * * * * * * * * * * * * * * * * * * * * * * * * * * * * * * * * * * * * //

dimensions      [0 2 -2 0 0 0 0];

internalField   nonuniform List<scalar> 
4214
(
0.0849198
0.0499889
0.0381622
0.0348386
0.0344004
0.0348341
0.0355291
0.0363809
0.0374703
0.0389731
0.0411488
0.0443463
0.0489889
0.0555298
0.064462
0.0763493
0.0920089
0.113367
0.14706
0.215074
0.346081
0.415244
0.292207
0.179078
0.116021
0.0828236
0.0647978
0.0542409
0.0475874
0.0431503
0.0400579
0.0378255
0.0361874
0.0349911
0.0341368
0.0335635
0.033335
0.0339568
0.0372496
0.0486165
0.0825122
0.0417203
0.0356579
0.0338552
0.0337224
0.0341823
0.0348426
0.0356018
0.0364951
0.0376347
0.0391996
0.0414516
0.0447491
0.0495444
0.0563632
0.0657923
0.0785215
0.0955646
0.119105
0.156203
0.229883
0.368258
0.444775
0.307793
0.18357
0.116727
0.0827361
0.0645738
0.0540572
0.0474845
0.0431074
0.0400429
0.037817
0.0361719
0.0349624
0.0340899
0.0334693
0.0330439
0.0328571
0.0332167
0.0351128
0.0411616
0.0344052
0.033163
0.0331133
0.0335472
0.0341674
0.0348704
0.0356527
0.0365779
0.0377636
0.0393897
0.0417211
0.0451303
0.0501029
0.0572299
0.0672094
0.080908
0.0996101
0.125898
0.167561
0.248535
0.39485
0.474706
0.321226
0.187552
0.117764
0.0828653
0.0644727
0.0539285
0.0473875
0.0430412
0.0399904
0.0377635
0.0361104
0.0348911
0.0340084
0.0333744
0.0329116
0.032578
0.0324146
0.0326615
0.0340312
0.0327462
0.0326398
0.0329989
0.0335528
0.0341983
0.0349054
0.035698
0.0366483
0.0378757
0.0395611
0.0419753
0.045507
0.050679
0.0581556
0.0687654
0.083597
0.104304
0.134043
0.181647
0.271961
0.427239
0.505375
0.334252
0.191783
0.118956
0.083168
0.0644908
0.0538598
0.0473065
0.0429625
0.0399097
0.0376751
0.0360124
0.0347838
0.0338932
0.0332531
0.0327821
0.0324199
0.0321427
0.0320047
0.0322676
0.0322297
0.0324974
0.0329822
0.0335664
0.0342124
0.0349193
0.0357227
0.0366984
0.0379676
0.0397145
0.0422184
0.0458881
0.0512899
0.0591733
0.0705276
0.0867292
0.109932
0.144064
0.199284
0.301181
0.46551
0.535103
0.346422
0.195898
0.120423
0.0837217
0.0646682
0.053869
0.0472481
0.0428716
0.0397978
0.0375456
0.0358679
0.0346258
0.0337221
0.0330699
0.0325886
0.0322138
0.031903
0.031651
0.031559
0.0320597
0.0324606
0.0329851
0.0335729
0.0342143
0.0349222
0.0357378
0.0367395
0.0380515
0.0398638
0.0424676
0.0462966
0.0519697
0.0603414
0.0726088
0.0905349
0.116952
0.156757
0.22164
0.337458
0.510397
0.563731
0.358133
0.200129
0.122333
0.0846222
0.0650581
0.0539822
0.047225
0.0427746
0.0396573
0.0373749
0.035674
0.0344109
0.0334867
0.0328148
0.0323171
0.03193
0.0316058
0.0313175
0.0311075
0.0319753
0.0324352
0.0329736
0.0335611
0.0342012
0.0349142
0.0357453
0.0367761
0.0381353
0.0400213
0.042741
0.04676
0.0527644
0.0617452
0.0751837
0.095377
0.126064
0.1733
0.250307
0.382209
0.561955
0.590303
0.368888
0.204737
0.124881
0.0859805
0.0657257
0.0542335
0.0472544
0.0426785
0.0394893
0.0371593
0.0354224
0.0341271
0.0331714
0.0324698
0.0319474
0.0315431
0.0312083
0.030907
0.0306526
0.0319111
0.0324
0.0329462
0.0335351
0.0341778
0.0348998
0.0357505
0.0368156
0.0382299
0.0402033
0.0430635
0.0473182
0.0537435
0.0635178
0.0785318
0.101829
0.13833
0.195387
0.287435
0.43698
0.619654
0.615715
0.3791
0.210083
0.128304
0.0879392
0.0667599
0.0546728
0.0473638
0.0425964
0.0392983
0.0368967
0.0351067
0.0337643
0.0327641
0.0320215
0.0314654
0.0310379
0.0306909
0.0303849
0.0301179
0.0318384
0.0323468
0.0329004
0.0334939
0.0341435
0.0348795
0.035756
0.036864
0.0383469
0.0404296
0.0434686
0.0480281
0.0550132
0.0658705
0.0831019
0.11078
0.1553
0.225353
0.335865
0.503307
0.681811
0.64131
0.389258
0.216621
0.132901
0.0906826
0.0682842
0.055373
0.0475975
0.042551
0.0390948
0.0365898
0.0347248
0.0333175
0.0322579
0.0314614
0.030861
0.0304018
0.0300378
0.0297287
0.0294631
0.0317442
0.0322689
0.0328321
0.0334342
0.0340956
0.0348519
0.0357632
0.0369277
0.0385008
0.0407277
0.0440051
0.048977
0.0567442
0.0691446
0.0896125
0.123576
0.179161
0.266307
0.398877
0.582468
0.745695
0.664857
0.400162
0.224899
0.139053
0.0944527
0.0704728
0.0564406
0.0480258
0.0425814
0.0389019
0.0362505
0.0342839
0.0327918
0.0316572
0.0307933
0.0301362
0.0296338
0.0292423
0.0289238
0.028662
0.0316121
0.0321535
0.0327293
0.0333448
0.0340249
0.0348114
0.035772
0.0370154
0.0387134
0.0411397
0.0447498
0.0503045
0.0592193
0.0738944
0.0991934
0.142164
0.212875
0.322146
0.47979
0.675437
0.808138
0.68621
0.412749
0.235558
0.147251
0.0995653
0.0735722
0.0580316
0.0487586
0.0427527
0.0387623
0.0359054
0.0338049
0.0322054
0.0309808
0.0300365
0.0293099
0.0287501
0.0283155
0.0279706
0.0276984
0.031415
0.0319762
0.0325699
0.0332066
0.0339168
0.0347504
0.0357855
0.0371449
0.0390239
0.041736
0.0458312
0.0522425
0.0629169
0.0810067
0.113567
0.169219
0.260229
0.397283
0.581674
0.78161
0.865871
0.706209
0.427945
0.249337
0.158127
0.10643
0.0779324
0.0603702
0.0499665
0.0431682
0.0387497
0.0356014
0.0333254
0.0315906
0.0302618
0.0292254
0.0284189
0.0277885
0.0272936
0.0268998
0.0265895
0.0311128
0.0317
0.0323209
0.0329932
0.0337552
0.0346668
0.0358195
0.0373558
0.0395057
0.0426387
0.0474731
0.0551819
0.0686461
0.0918405
0.13524
0.208174
0.325678
0.496483
0.70687
0.898338
0.916725
0.726055
0.447236
0.267066
0.172509
0.115575
0.084054
0.0637726
0.0519136
0.0439873
0.0389856
0.0354127
0.032905
0.0309924
0.0295443
0.0284041
0.0275117
0.0268019
0.0262363
0.025778
0.0254075
0.0306531
0.0312738
0.0319396
0.0326775
0.0335336
0.0345787
0.0359217
0.0377297
0.0402929
0.0440543
0.0500733
0.0597713
0.0777498
0.108326
0.167631
0.263009
0.413777
0.624308
0.85491
1.01956
0.96159
0.747426
0.472579
0.289642
0.1915
0.127654
0.0926607
0.0686776
0.0550127
0.0454504
0.0396715
0.0354524
0.0326358
0.0304684
0.0288818
0.0276189
0.0266399
0.0258465
0.0252097
0.0246832
0.0242494
0.0300011
0.0306843
0.0314349
0.0322882
0.033301
0.0345577
0.0361954
0.0384036
0.0416183
0.0463247
0.0543633
0.0670356
0.0923693
0.132876
0.215121
0.337673
0.529187
0.785012
1.02053
1.13627
1.00423
0.772053
0.506201
0.31797
0.216621
0.143435
0.104814
0.0756675
0.0599192
0.0479088
0.041151
0.0358906
0.0326723
0.0300929
0.0283455
0.0269141
0.0258554
0.0249733
0.024276
0.0236835
0.023193
0.0292062
0.0299864
0.0308738
0.0319016
0.0331462
0.0346998
0.0367952
0.0395667
0.0439468
0.0500358
0.0617478
0.0783867
0.115732
0.16783
0.283125
0.435062
0.676521
0.978952
1.18937
1.23721
1.04894
0.80095
0.551251
0.35277
0.250099
0.163701
0.122123
0.0854454
0.0677084
0.0518422
0.0440374
0.0369759
0.0333068
0.0299662
0.0280591
0.0263298
0.0252214
0.0242221
0.023504
0.0228547
0.0223424
0.0283665
0.0293079
0.0303864
0.0316567
0.0332876
0.0351854
0.0382699
0.0416642
0.0486165
0.0561127
0.0749167
0.0950256
0.152496
0.214026
0.378517
0.555172
0.861151
1.19989
1.33558
1.32306
1.10335
0.833383
0.612248
0.394131
0.295437
0.188898
0.147171
0.0986585
0.080246
0.0577921
0.0495085
0.0390223
0.035173
0.0302108
0.0283136
0.0258893
0.0248608
0.0235878
0.022963
0.0222227
0.0217961
0.0213257
0.021881
0.0227727
0.0238891
0.0251119
0.0263559
0.0274992
0.0284672
0.0292674
0.0299412
0.0305345
0.0311338
0.0319164
0.0335719
0.0381259
0.0572543
0.17423
0.0209953
0.0214246
0.0222333
0.0232625
0.0244111
0.0255961
0.0267096
0.0276912
0.0285504
0.0293295
0.0300876
0.0309439
0.032162
0.0346547
0.0409998
0.0641729
0.186447
0.0206668
0.0210272
0.0217498
0.022684
0.0237516
0.0248657
0.025931
0.0269106
0.0278156
0.0286949
0.029633
0.0307932
0.0325721
0.0361198
0.0446329
0.0723444
0.196812
0.0204319
0.0206971
0.0213254
0.0221622
0.0231335
0.0241651
0.0251831
0.0261513
0.0270931
0.0280763
0.0292203
0.0307525
0.0332127
0.038003
0.0489849
0.0813658
0.206336
0.0202266
0.0204288
0.0209649
0.0216916
0.0225631
0.0235196
0.0244853
0.0254336
0.0264024
0.0274861
0.0288486
0.0308036
0.0340626
0.0403312
0.0540546
0.091
0.214564
0.0200879
0.02023
0.020667
0.0212815
0.0220611
0.0229388
0.0238482
0.0247704
0.0257567
0.0269303
0.0285089
0.0309028
0.034996
0.0427962
0.0593518
0.100797
0.222212
0.020008
0.020103
0.020435
0.0209537
0.0216379
0.0224332
0.0232827
0.0241728
0.0251644
0.026408
0.0281768
0.0309794
0.0358674
0.0451413
0.0643834
0.109996
0.229862
0.020002
0.0200478
0.0202914
0.0207162
0.0213048
0.0220144
0.0227995
0.0236502
0.0246317
0.025915
0.0278217
0.0309495
0.0365057
0.0470732
0.0687615
0.118348
0.237249
0.0200838
0.0200784
0.0202427
0.0205785
0.0210738
0.0216963
0.0224121
0.0232145
0.0241678
0.0254525
0.0274228
0.0307447
0.0367544
0.0482972
0.0720466
0.125457
0.244064
0.020262
0.0202015
0.0202951
0.0205491
0.0209565
0.0214945
0.022138
0.0228837
0.0237908
0.0250363
0.0269863
0.0303415
0.036519
0.0485632
0.0737336
0.130668
0.249997
0.020529
0.0204214
0.0204535
0.020635
0.0209634
0.0214233
0.0219975
0.0226836
0.0235315
0.0247041
0.0265571
0.0297869
0.0358257
0.0478095
0.0733306
0.133043
0.254755
0.0208869
0.0207422
0.0207221
0.0208412
0.0211018
0.0214947
0.0220086
0.0226418
0.0234324
0.0245166
0.0262244
0.0292105
0.0348575
0.046282
0.0711691
0.131841
0.258055
0.021338
0.0211647
0.0211031
0.0211701
0.0213749
0.0217139
0.0221819
0.0227782
0.0235308
0.0245461
0.0261012
0.0287964
0.0339106
0.0444203
0.067838
0.126943
0.259665
0.0218782
0.0216906
0.0215958
0.021621
0.0217809
0.0220783
0.0225159
0.0230963
0.0238415
0.0248315
0.0262875
0.0287273
0.0333117
0.0427929
0.0642607
0.118377
0.259565
0.022503
0.022313
0.0221969
0.0221897
0.0223135
0.0225782
0.0229959
0.0235778
0.0243472
0.0253694
0.0268196
0.0291319
0.0333438
0.0420115
0.0618677
0.111886
0.258094
0.0232048
0.0230256
0.0229006
0.0228716
0.0229636
0.0231987
0.023599
0.0241866
0.0249951
0.0260915
0.0276312
0.0299919
0.0341233
0.0424943
0.0618639
0.112405
0.255876
0.0239735
0.0238183
0.023697
0.0236557
0.0237228
0.0239285
0.0243039
0.0248856
0.0257216
0.0268921
0.028559
0.0310914
0.0354283
0.0441148
0.0643496
0.117765
0.253642
0.0247965
0.0246786
0.0245745
0.0245322
0.0245814
0.0247575
0.0250994
0.0256537
0.026483
0.0276849
0.0294387
0.0321317
0.0367501
0.0460174
0.0676423
0.123113
0.252052
0.0256616
0.0255918
0.0255181
0.0254877
0.0255288
0.025679
0.0259809
0.0264877
0.0272717
0.0284426
0.0301892
0.0329058
0.0375959
0.0471181
0.0698573
0.12847
0.251571
0.0265537
0.026542
0.0265115
0.0265066
0.0265527
0.0266861
0.0269489
0.0273963
0.028105
0.0291892
0.0308374
0.0334158
0.0378484
0.0468867
0.0694997
0.131441
0.25225
0.0274633
0.0275159
0.0275384
0.027572
0.0276372
0.0277675
0.0280013
0.0283909
0.0290112
0.0299748
0.0314614
0.0337947
0.0377403
0.0456012
0.0660251
0.128266
0.2535
0.0283797
0.0285026
0.0285853
0.0286686
0.0287676
0.028911
0.0291318
0.0294765
0.0300135
0.0308483
0.0321501
0.0342024
0.0376177
0.044064
0.0606251
0.117796
0.254313
0.029297
0.0294943
0.0296436
0.0297854
0.0299313
0.030105
0.030333
0.0306544
0.0311275
0.0318465
0.0329677
0.0347466
0.0376932
0.0429466
0.0555989
0.102436
0.253778
0.0302104
0.0304837
0.0307045
0.0309134
0.0311185
0.0313396
0.0315966
0.0319206
0.0323591
0.0329919
0.0339581
0.0354904
0.0380389
0.0424563
0.0522689
0.0878754
0.251556
0.0311169
0.0314698
0.0317658
0.032048
0.0323236
0.0326084
0.0329168
0.0332712
0.0337087
0.0342938
0.0351462
0.0364742
0.0386863
0.0425087
0.0504048
0.0777601
0.248055
0.0320145
0.0324464
0.0328223
0.0331853
0.033543
0.033908
0.0342899
0.0347036
0.0351755
0.0357562
0.0365446
0.0377231
0.0396613
0.0430299
0.0497731
0.0720965
0.24427
0.0329
0.0334156
0.0338743
0.0343246
0.0347757
0.0352376
0.0357152
0.0362168
0.0367596
0.0373807
0.0381597
0.0392527
0.0409886
0.0440008
0.0500456
0.0699712
0.241393
0.0337736
0.0343711
0.0349183
0.0354647
0.036022
0.0365985
0.0371946
0.0378129
0.0384627
0.03917
0.0399955
0.0410678
0.0426756
0.0454184
0.0509886
0.0697405
0.240571
0.0346318
0.0353173
0.0359565
0.0366071
0.0372845
0.0379947
0.0387335
0.0394979
0.040291
0.0411271
0.0420546
0.0431784
0.0447436
0.0473065
0.0525231
0.0706745
0.241851
0.0354774
0.0362489
0.0369875
0.0377534
0.0385678
0.0394333
0.0403409
0.041282
0.0422513
0.0432638
0.0443535
0.0456029
0.0472145
0.0496889
0.0546331
0.0724412
0.244927
0.0363071
0.037172
0.0380155
0.0389082
0.0398789
0.0409245
0.0420285
0.0431743
0.0443635
0.0456018
0.0469143
0.0483664
0.0501213
0.052613
0.0573573
0.0748676
0.24941
0.0371267
0.0380833
0.0390423
0.0400775
0.0412282
0.0424806
0.0438064
0.0451991
0.046652
0.0481688
0.0497696
0.0515077
0.0535139
0.0561485
0.0607874
0.0779197
0.25491
0.0379327
0.0389903
0.0400741
0.0412697
0.0426275
0.0441107
0.0457006
0.0473814
0.0491466
0.0510014
0.0529651
0.055084
0.0574652
0.0603989
0.0650756
0.0817035
0.261057
0.0387332
0.0398915
0.0411154
0.0424947
0.0440836
0.0458417
0.0477359
0.0497502
0.0518835
0.0541464
0.0565619
0.0591756
0.0620808
0.0655109
0.0704413
0.0864739
0.267495
0.039523
0.0407951
0.0421747
0.0437555
0.0456223
0.0476976
0.0499392
0.052339
0.0549068
0.0576632
0.0606411
0.0638927
0.0675095
0.0716882
0.0771903
0.0926596
0.273864
0.0403123
0.0417009
0.0432517
0.0450718
0.0472686
0.0497039
0.0523403
0.0551869
0.0582703
0.061628
0.0653097
0.0693851
0.0739592
0.0792186
0.0857477
0.100915
0.279797
0.0410953
0.0426165
0.0443542
0.0464697
0.0490486
0.0518869
0.0549716
0.0583397
0.0620414
0.0661389
0.07071
0.0758569
0.0817204
0.0885136
0.0967187
0.112214
0.284932
0.0418828
0.0435338
0.0455046
0.0479767
0.0509889
0.0542722
0.0578688
0.0618529
0.0663055
0.0713239
0.0770313
0.0835867
0.0912015
0.10017
0.110991
0.128022
0.288927
0.0426655
0.0444721
0.0467281
0.0496255
0.0531133
0.0568846
0.0610743
0.0657974
0.0711733
0.0773522
0.0845293
0.0929603
0.102986
0.115072
0.129904
0.150604
0.29144
0.0434398
0.0454496
0.0480582
0.0514503
0.0554397
0.0597535
0.0646458
0.070268
0.0767933
0.0844532
0.0935587
0.104528
0.117933
0.134572
0.155599
0.183599
0.292202
0.0558775
0.0578429
0.0597991
0.0617201
0.0635805
0.065351
0.0670041
0.068511
0.0698462
0.0709859
0.0719112
0.0726075
0.0730661
0.0732842
0.0732645
0.0730149
0.072549
0.0718849
0.0710437
0.0700425
0.0687574
0.0673191
0.065939
0.0645175
0.0630725
0.0616152
0.0601663
0.0587339
0.0573335
0.0559697
0.0546526
0.0533065
0.0520488
0.0508331
0.0497697
0.0486925
0.0477487
0.0467803
0.0459185
0.0450387
0.0442381
0.0599274
0.062052
0.0641622
0.0662295
0.0682243
0.0701151
0.0718705
0.0734596
0.0748542
0.0760295
0.0769653
0.0776475
0.078068
0.0782252
0.0781241
0.0777753
0.0771954
0.0764056
0.0754297
0.0742866
0.0728391
0.0712458
0.0697298
0.068182
0.0666148
0.0650457
0.0634907
0.0619631
0.0604743
0.0590323
0.0576445
0.0563127
0.054974
0.0536435
0.0524004
0.0512486
0.0501821
0.0491792
0.0482404
0.0473523
0.0465102
0.0643296
0.0666362
0.0689228
0.0711577
0.0733075
0.075337
0.0772112
0.0788963
0.0803616
0.0815805
0.0825323
0.0832026
0.0835843
0.0836777
0.0834902
0.0830355
0.0823337
0.0814092
0.0802892
0.0789946
0.0773769
0.0756187
0.0739592
0.0722751
0.0705792
0.06889
0.0672239
0.065595
0.0640141
0.0624903
0.0610297
0.0596373
0.0583154
0.0570369
0.0557764
0.0545528
0.0533983
0.0523266
0.0513345
0.0504089
0.0495389
0.0691249
0.0716391
0.0741276
0.0765548
0.0788829
0.0810725
0.0830847
0.0848822
0.0864316
0.0877044
0.0886789
0.0893409
0.0896845
0.0897123
0.0894341
0.0888675
0.0880363
0.0869687
0.0856955
0.0842403
0.0824451
0.0805136
0.0787017
0.0768727
0.0750401
0.0732234
0.0714398
0.0697036
0.0680263
0.0664169
0.0648821
0.0634265
0.0620524
0.0607604
0.0595481
0.058405
0.057318
0.0562807
0.055294
0.0543594
0.0534786
0.0743707
0.0771208
0.0798394
0.0824861
0.0850184
0.0873921
0.0895639
0.0914925
0.0931413
0.09448
0.0954857
0.0961446
0.0964523
0.0964137
0.0960418
0.0953583
0.0943911
0.0931727
0.091738
0.0901137
0.0881345
0.0860226
0.0840497
0.0820673
0.08009
0.0781383
0.0762304
0.0743811
0.0726026
0.0709043
0.0692931
0.0677732
0.0663469
0.0650145
0.0637743
0.0626231
0.0615562
0.0605674
0.0596486
0.0587902
0.0579814
0.0801476
0.0831639
0.0861423
0.0890378
0.0918022
0.094386
0.0967406
0.0988207
0.100586
0.102004
0.103051
0.103714
0.103989
0.103885
0.103418
0.102614
0.101505
0.100129
0.0985261
0.0967255
0.0945573
0.0922592
0.0901175
0.0879737
0.0858439
0.0837499
0.0817108
0.0797426
0.0778582
0.0760674
0.0743769
0.0727912
0.0713124
0.0699402
0.0686726
0.0675058
0.0664338
0.0654491
0.0645429
0.0637048
0.0629212
0.0865674
0.089881
0.0931501
0.0963244
0.0993496
0.10217
0.104732
0.106985
0.108885
0.110398
0.111498
0.112172
0.11242
0.112252
0.11169
0.110763
0.10951
0.107973
0.106195
0.104213
0.101853
0.0993654
0.0970482
0.094736
0.0924466
0.0902033
0.0880268
0.0859343
0.0839391
0.0820513
0.0802783
0.0786243
0.0770913
0.0756787
0.0743837
0.0732012
0.072124
0.0711437
0.0702494
0.0694287
0.068664
0.0937849
0.0974262
0.101016
0.104499
0.107813
0.110897
0.11369
0.116137
0.11819
0.119812
0.120977
0.121673
0.1219
0.121673
0.121018
0.119969
0.118571
0.11687
0.114916
0.112749
0.110198
0.10752
0.105023
0.102537
0.100082
0.0976844
0.0953654
0.0931432
0.0910323
0.0890433
0.0871838
0.0854582
0.0838683
0.0824126
0.0810877
0.0798874
0.0788039
0.0778266
0.076943
0.076139
0.0753937
0.102015
0.106011
0.109949
0.113767
0.117395
0.120766
0.123812
0.126473
0.128696
0.130442
0.131684
0.13241
0.132625
0.132346
0.131602
0.130436
0.128895
0.127033
0.124904
0.122554
0.119816
0.116953
0.114275
0.111613
0.10899
0.106435
0.103969
0.101613
0.0993828
0.0972885
0.0953388
0.0935378
0.0918871
0.0903851
0.0890275
0.0878077
0.0867165
0.085742
0.0848704
0.0840866
0.0833668
0.111557
0.11593
0.120237
0.124409
0.128371
0.132045
0.135361
0.138249
0.140656
0.142537
0.143867
0.144634
0.144845
0.144522
0.143699
0.142423
0.140749
0.138733
0.136437
0.133911
0.131
0.127962
0.125107
0.122272
0.119484
0.116771
0.114159
0.111669
0.109317
0.107116
0.105073
0.103194
0.10148
0.0999291
0.0985378
0.0972984
0.0962008
0.0952325
0.0943791
0.0936252
0.0929441
0.122836
0.127595
0.13228
0.136814
0.141115
0.1451
0.148689
0.15181
0.154405
0.156428
0.157852
0.158668
0.158885
0.158529
0.15764
0.15627
0.154476
0.152325
0.149879
0.147195
0.14413
0.140939
0.137923
0.134927
0.131983
0.129122
0.12637
0.12375
0.12128
0.118973
0.116839
0.114882
0.113106
0.111508
0.110086
0.108831
0.107733
0.106779
0.105956
0.105247
0.104624
0.136461
0.141594
0.146642
0.151524
0.15615
0.160429
0.164278
0.167621
0.170394
0.172553
0.17407
0.174939
0.175172
0.174798
0.173862
0.17242
0.170535
0.168276
0.165711
0.162901
0.159722
0.156415
0.153265
0.150136
0.14706
0.144071
0.141197
0.138463
0.135888
0.133487
0.131271
0.129245
0.127415
0.125778
0.124333
0.123072
0.121985
0.12106
0.120284
0.11964
0.119099
0.153329
0.158782
0.164141
0.169317
0.174214
0.178737
0.182799
0.186321
0.189239
0.191509
0.193106
0.194024
0.194279
0.193905
0.192949
0.191471
0.189538
0.18722
0.184588
0.181707
0.178475
0.175114
0.171885
0.168672
0.165511
0.162436
0.15948
0.156667
0.154018
0.151551
0.149277
0.147205
0.14534
0.143683
0.142233
0.140984
0.139927
0.139051
0.138343
0.137786
0.137353
0.174789
0.180438
0.185984
0.191331
0.196379
0.201033
0.205203
0.208814
0.211802
0.214126
0.215763
0.216712
0.216992
0.216639
0.215702
0.214242
0.212327
0.210028
0.207415
0.204553
0.201369
0.198055
0.19484
0.191633
0.18847
0.185391
0.182427
0.179603
0.176944
0.174467
0.172187
0.170114
0.168255
0.166615
0.165193
0.163985
0.162985
0.162183
0.161567
0.16112
0.16082
0.202938
0.208528
0.214009
0.219279
0.224242
0.228804
0.232881
0.236404
0.239315
0.241579
0.243179
0.244116
0.244412
0.244105
0.243242
0.241882
0.24009
0.237931
0.235474
0.232779
0.229803
0.226702
0.223659
0.220612
0.217601
0.214662
0.211826
0.20912
0.206569
0.20419
0.202002
0.200016
0.198241
0.196684
0.195347
0.194229
0.193326
0.192631
0.192133
0.191815
0.191665
0.241162
0.246192
0.251117
0.255834
0.260258
0.264311
0.26792
0.271029
0.273594
0.275587
0.277
0.277839
0.278124
0.27789
0.27718
0.276044
0.274537
0.272716
0.270636
0.26835
0.265841
0.263222
0.260618
0.258001
0.255405
0.252863
0.250402
0.248048
0.245823
0.243746
0.241832
0.240097
0.238551
0.237201
0.236053
0.235108
0.234366
0.233821
0.233464
0.233282
0.233276
0.295171
0.298657
0.30207
0.305321
0.308354
0.311117
0.313567
0.315669
0.317398
0.318741
0.319696
0.320269
0.320479
0.320349
0.319907
0.319187
0.318224
0.317054
0.315713
0.314233
0.312619
0.310929
0.309224
0.307503
0.305788
0.3041
0.30246
0.300885
0.299391
0.297992
0.2967
0.295528
0.294484
0.293577
0.292811
0.292191
0.291717
0.291386
0.291194
0.29113
0.291215
0.178604
0.0576579
0.0382915
0.0338959
0.0324324
0.0319179
0.0316692
0.0315231
0.0314013
0.0312728
0.031113
0.030889
0.030556
0.0300629
0.0293746
0.0284966
0.0275169
0.190788
0.0646214
0.0412735
0.035103
0.0328531
0.0319395
0.0314767
0.0311959
0.0309855
0.0307896
0.0305702
0.030286
0.0298885
0.0293282
0.0285744
0.0276353
0.0265781
0.200648
0.0728353
0.0450341
0.0367539
0.033499
0.0320738
0.0313203
0.0308614
0.0305385
0.0302635
0.0299794
0.0296342
0.029175
0.0285553
0.0277495
0.0267672
0.0256671
0.209241
0.0819762
0.0494924
0.0388895
0.034435
0.0323188
0.0311903
0.0305131
0.0300544
0.0296894
0.0293363
0.0289302
0.0284128
0.0277408
0.0268948
0.0258868
0.0247801
0.216123
0.091901
0.0547612
0.0414199
0.0355249
0.0326224
0.0310591
0.0301321
0.029522
0.0290601
0.0286371
0.0281721
0.0276013
0.0268851
0.0260105
0.0249963
0.0239058
0.222153
0.102035
0.0601601
0.0440135
0.0366324
0.0329077
0.0308842
0.0296952
0.0289307
0.0283728
0.0278831
0.0273635
0.0267457
0.0259946
0.0251051
0.0241037
0.0230625
0.227993
0.111479
0.0652442
0.0464051
0.0375877
0.0330741
0.0306118
0.0291777
0.0282733
0.0276307
0.0270823
0.026514
0.025856
0.0250804
0.0241924
0.0232304
0.0222837
0.233437
0.120044
0.0696503
0.0483141
0.0382105
0.0330176
0.0301911
0.028562
0.0275514
0.0268447
0.0262484
0.0256378
0.0249472
0.0241601
0.0232955
0.0224073
0.0215854
0.238249
0.127446
0.07296
0.0494575
0.0383401
0.0326592
0.0295952
0.0278508
0.0267819
0.0260361
0.0254021
0.0247554
0.0240427
0.0232631
0.0224515
0.0216707
0.0210027
0.242196
0.133143
0.0746723
0.0495894
0.0378743
0.031975
0.0288395
0.027076
0.0259987
0.0252355
0.0245716
0.023897
0.0231789
0.0224344
0.0217095
0.0210667
0.0205672
0.245062
0.136194
0.0743638
0.0485896
0.0368259
0.0310243
0.0279909
0.0262965
0.0252501
0.0244823
0.0237952
0.0231073
0.0224095
0.0217332
0.0211227
0.0206294
0.020288
0.246633
0.135453
0.0719894
0.0466208
0.0353627
0.0299512
0.0271566
0.0255919
0.0245973
0.0238292
0.023128
0.0224494
0.021802
0.0212178
0.0207324
0.0203823
0.0201845
0.246745
0.129868
0.0678266
0.0440165
0.0337654
0.0289453
0.0264692
0.0250596
0.0241135
0.0233437
0.0226433
0.0219942
0.0214146
0.0209305
0.0205643
0.0203374
0.0202654
0.245433
0.118113
0.0625707
0.0413098
0.0323771
0.0282286
0.0260858
0.0248081
0.0238822
0.0230986
0.022402
0.021792
0.021283
0.0208897
0.0206248
0.0204998
0.0205218
0.24308
0.104915
0.0576569
0.0392459
0.0315973
0.0280471
0.0261477
0.0249136
0.0239519
0.023135
0.0224362
0.0218576
0.021406
0.0210867
0.020903
0.0208566
0.0209453
0.240395
0.102183
0.055689
0.0386425
0.0317782
0.0285561
0.0266964
0.0253742
0.0243127
0.0234337
0.0227181
0.0221602
0.0217553
0.0214972
0.0213773
0.0213879
0.0215197
0.238042
0.10525
0.056582
0.0396291
0.0329193
0.0296347
0.0275785
0.0260572
0.0248601
0.0239148
0.0231881
0.0226567
0.0223002
0.0220974
0.0220284
0.0220776
0.0222266
0.236616
0.11009
0.0591553
0.0416367
0.0345445
0.0308781
0.0285043
0.0267752
0.0254743
0.0245023
0.0237982
0.0233148
0.0230155
0.0228663
0.0228358
0.0229037
0.023043
0.236522
0.112759
0.0615331
0.0435055
0.0359067
0.0318491
0.0292413
0.0274104
0.026097
0.025167
0.0245306
0.0241209
0.0238851
0.0237808
0.0237716
0.0238379
0.0239453
0.237843
0.114499
0.0623755
0.0442085
0.0365193
0.0323716
0.029748
0.02797
0.0267515
0.0259294
0.0253962
0.0250706
0.0248927
0.0248182
0.0248106
0.0248518
0.02491
0.239975
0.112223
0.0605397
0.0435679
0.0364619
0.0325737
0.0301421
0.0285488
0.0275038
0.0268313
0.026412
0.0261629
0.0260253
0.0259592
0.0259324
0.0259318
0.0259223
0.24188
0.104289
0.0566304
0.0422788
0.0361648
0.0327241
0.0306106
0.029274
0.0284332
0.0279096
0.0275868
0.0273884
0.0272638
0.0271811
0.0271134
0.0270534
0.026964
0.242605
0.0921504
0.0524482
0.0411213
0.0360025
0.03306
0.0313043
0.0302347
0.0295812
0.0291749
0.028912
0.0287297
0.0285881
0.0284638
0.0283342
0.0281955
0.0280233
0.241784
0.0809356
0.0496306
0.0405217
0.0361925
0.0337272
0.0323074
0.0314662
0.0309516
0.0306142
0.030369
0.0301683
0.0299828
0.029796
0.0295887
0.0293646
0.029102
0.23981
0.0732165
0.048134
0.0405327
0.0368246
0.0347807
0.0336373
0.0329609
0.0325258
0.0322076
0.0319408
0.0316912
0.0314383
0.0311715
0.0308735
0.0305534
0.0301927
0.237611
0.0691816
0.0477423
0.0411159
0.0379205
0.0362217
0.035279
0.0346983
0.0342855
0.0339415
0.0336183
0.0332935
0.0329536
0.0325912
0.0321864
0.0317517
0.0312956
0.236246
0.0679495
0.048203
0.0422459
0.0394742
0.038035
0.0372149
0.0366643
0.0362222
0.0358128
0.0354034
0.0349805
0.0345357
0.0340607
0.0335329
0.032984
0.0324385
0.236648
0.0681804
0.0493242
0.0438992
0.0414763
0.0402109
0.039438
0.0388575
0.0383395
0.0378293
0.0373062
0.0367632
0.0361948
0.0355897
0.0349269
0.034261
0.0336109
0.238844
0.0693614
0.0510583
0.0460925
0.043927
0.0427522
0.0419568
0.04129
0.0406532
0.0400086
0.0393446
0.0386584
0.0379459
0.0371913
0.0363789
0.0355818
0.0348182
0.242567
0.0712814
0.0534191
0.0488542
0.0468547
0.0456807
0.0447938
0.0439875
0.0431896
0.0423763
0.0415422
0.0406874
0.0398076
0.0388806
0.037904
0.0369707
0.0360983
0.247482
0.0738498
0.0564723
0.0522438
0.0503057
0.0490396
0.047987
0.0469879
0.045984
0.0449641
0.043927
0.0428739
0.0417989
0.0406743
0.0395232
0.0384484
0.0374426
0.253244
0.0770874
0.0603343
0.0563498
0.0543507
0.0528898
0.0515927
0.0503387
0.0490798
0.0478094
0.0465305
0.0452439
0.0439403
0.0425923
0.0412558
0.0400193
0.0388538
0.259534
0.0811395
0.0651768
0.0612962
0.059087
0.0573141
0.0556823
0.0540989
0.0525277
0.0509542
0.0493869
0.0478243
0.0462537
0.0446573
0.0431202
0.0416986
0.0403626
0.266053
0.0862928
0.0712374
0.0672519
0.0646465
0.062421
0.0603441
0.0583411
0.0563839
0.0544448
0.0525327
0.0506431
0.0487625
0.0468941
0.0451346
0.0435025
0.0419614
0.272516
0.0930054
0.0788374
0.0744449
0.0712061
0.0683494
0.065687
0.0631509
0.0607133
0.0583327
0.0560065
0.0537296
0.0514937
0.0493284
0.0473141
0.0454341
0.0436493
0.27865
0.101959
0.0884196
0.0831877
0.0790025
0.0752786
0.071846
0.0686297
0.0655911
0.0626754
0.0598499
0.0571158
0.0544789
0.0519842
0.0496701
0.0474988
0.0454458
0.284193
0.114151
0.100609
0.0939198
0.0883553
0.083441
0.0789902
0.0749002
0.071106
0.0675358
0.0641082
0.0608393
0.0577534
0.0548811
0.0522115
0.0497044
0.0473409
0.288875
0.131066
0.116317
0.107268
0.0997024
0.0931427
0.087334
0.0821125
0.0773641
0.0729846
0.0688333
0.0649467
0.0613525
0.0580334
0.0549446
0.0520511
0.0493334
0.292399
0.154988
0.136917
0.124147
0.113656
0.104796
0.0971557
0.0904546
0.084492
0.079106
0.0740891
0.069495
0.0653072
0.0614525
0.057874
0.0545382
0.0514264
0.294513
0.189579
0.164589
0.145937
0.131098
0.118969
0.108824
0.100166
0.092645
0.0859994
0.0799615
0.0745447
0.0696407
0.0651471
0.061002
0.0571652
0.0536097
0.0284153
0.0314406
0.0361895
0.0450166
0.06444
0.115572
0.267965
0.693067
1.43714
1.42179
0.871872
0.440179
0.218317
0.115333
0.0659883
0.042172
0.0308192
0.0254875
0.0229177
0.0216068
0.0284445
0.0320429
0.0379444
0.0491568
0.0742031
0.140205
0.333347
0.866903
1.76097
1.54919
0.965767
0.507755
0.262061
0.141481
0.0798596
0.0483861
0.0330182
0.0259983
0.0228738
0.0214433
0.028771
0.0331032
0.0404674
0.0548644
0.0874619
0.172114
0.412875
1.0759
2.14541
1.73248
1.09151
0.594375
0.319454
0.178527
0.101107
0.0586491
0.0370349
0.0272092
0.0230946
0.0214014
0.0294254
0.0347296
0.0441254
0.0630716
0.106058
0.213953
0.50917
1.3234
2.59196
1.92549
1.25382
0.705614
0.394305
0.23035
0.133257
0.0753011
0.0440714
0.0296163
0.0237559
0.0215469
0.0305386
0.0371934
0.0496008
0.0753552
0.133045
0.269945
0.626066
1.60656
3.08192
2.19786
1.46556
0.849127
0.491589
0.301663
0.18109
0.101876
0.0560966
0.0340717
0.0251566
0.0219754
0.0322966
0.040982
0.0581235
0.0946134
0.17373
0.346591
0.768673
1.9155
3.61009
2.55189
1.73931
1.0402
0.61885
0.398035
0.25047
0.143437
0.0762636
0.0420463
0.0278299
0.0228531
0.0349258
0.0468902
0.0721179
0.126376
0.236747
0.452719
0.941972
2.24571
4.14736
2.9559
2.09777
1.29876
0.788748
0.526579
0.347964
0.206705
0.109436
0.0560612
0.0327469
0.0244713
0.0388661
0.0567553
0.096809
0.180508
0.33425
0.599352
1.14842
2.58027
4.66806
3.40789
2.59654
1.6405
1.02125
0.698367
0.480841
0.299686
0.162623
0.0803248
0.0416894
0.0273783
0.0455497
0.0753085
0.142376
0.271454
0.479838
0.79925
1.40078
2.92403
5.03276
3.8309
3.2911
2.08504
1.33025
0.931819
0.658984
0.431163
0.244994
0.121522
0.0578985
0.0326381
0.0582747
0.111714
0.224262
0.415269
0.686658
1.06672
1.72426
3.27428
5.2592
4.11513
3.83545
2.63629
1.74316
1.2396
0.898241
0.611653
0.367411
0.189479
0.087111
0.0423686
0.0845225
0.181624
0.361602
0.626998
0.970426
1.4351
2.16273
3.72825
5.38605
4.21513
4.2393
3.30533
2.27844
1.66609
1.2221
0.85623
0.542791
0.297343
0.138951
0.0607835
0.139402
0.307433
0.575222
0.926741
1.36109
1.90537
2.71412
4.25301
5.4215
4.17961
4.41052
4.0704
2.89276
2.19605
1.65637
1.18734
0.788777
0.461988
0.228405
0.0960716
0.247963
0.517872
0.89371
1.3516
1.89903
2.5759
3.48463
4.77745
5.40415
4.05977
4.35379
4.50116
3.50759
2.75887
2.18209
1.63474
1.13004
0.706865
0.377549
0.163431
0.45046
0.855066
1.36004
1.94587
2.5927
3.35945
4.33671
5.20399
5.33333
3.95115
4.20122
4.58396
4.13466
3.28081
2.69917
2.1765
1.607
1.06777
0.619897
0.289886
0.811323
1.38029
2.02682
2.65785
3.26852
4.05049
4.95811
5.48754
5.26437
3.93289
4.07137
4.49479
4.47887
3.79552
3.1085
2.67394
2.20076
1.60245
1.01214
0.524385
1.45059
2.16414
2.77101
3.20817
3.73623
4.58602
5.26824
5.51651
5.19978
4.02793
4.02817
4.35667
4.43334
4.14205
3.4654
2.98178
2.72011
2.30277
1.65284
0.96617
2.47219
2.94991
3.19774
3.45303
4.04286
4.72971