/*--------------------------------*- C++ -*----------------------------------*\
  =========                 |
  \\      /  F ield         | OpenFOAM: The Open Source CFD Toolbox
   \\    /   O peration     | Website:  https://openfoam.org
    \\  /    A nd           | Version:  6
     \\/     M anipulation  |
\*---------------------------------------------------------------------------*/
FoamFile
{
    version     2.0;
    format      ascii;
    class       volScalarField;
    location    "2.27";
    object      epsilon;
}
// * * * * * * * * * * * * * * * * * * * * * * * * * * * * * * * * * * * * * //

dimensions      [0 2 -3 0 0 0 0];

internalField   nonuniform List<scalar> 
4214
(
0.0249306
0.011851
0.00709543
0.00552114
0.00512067
0.00519045
0.00552412
0.00609268
0.00693503
0.00809695
0.00964425
0.0116668
0.0142694
0.0175771
0.0217421
0.0269537
0.0333105
0.0405827
0.0477649
0.0535314
0.0613872
0.0672555
0.0513671
0.0346825
0.0238759
0.0173228
0.0132605
0.0106098
0.00878672
0.00748839
0.00654943
0.00587031
0.00538592
0.00505085
0.0048434
0.00477
0.00488482
0.00544308
0.0072093
0.0121943
0.0254074
0.0108021
0.00717653
0.00565607
0.00510303
0.00500064
0.00515194
0.00550751
0.00608786
0.00694078
0.00813296
0.00975476
0.0119185
0.0147627
0.0184571
0.0232156
0.0293085
0.0369339
0.0458664
0.0547674
0.061262
0.0674802
0.0719753
0.053855
0.0356012
0.0241702
0.0174284
0.0133204
0.010659
0.00883243
0.00753277
0.00659374
0.00591502
0.0054303
0.00509365
0.00487439
0.00476619
0.00478061
0.00500318
0.00566721
0.00729748
0.0109353
0.00775304
0.00601146
0.00523544
0.00495593
0.00494604
0.00512398
0.00548488
0.00606489
0.00692327
0.00814413
0.00983708
0.0121414
0.0152333
0.0193331
0.0247237
0.0317672
0.0407869
0.0516045
0.0627282
0.0704379
0.0745669
0.0767675
0.056279
0.0364637
0.0244886
0.0175885
0.0134369
0.0107552
0.00891304
0.00760074
0.00665238
0.00596723
0.00547768
0.00513588
0.00490812
0.00477799
0.00474733
0.00485555
0.00521776
0.00607661
0.00785564
0.00654867
0.00551625
0.00504821
0.00488935
0.00492132
0.00510943
0.0054691
0.00604586
0.00691205
0.00816646
0.00993965
0.0123997
0.0157649
0.0203098
0.0263944
0.0344768
0.0450156
0.0579302
0.0717796
0.0812414
0.0829977
0.08189
0.0587493
0.037376
0.0248764
0.0178308
0.0136287
0.0109126
0.00903965
0.00770121
0.00673234
0.0060322
0.00553173
0.00518098
0.00494392
0.00479837
0.00474061
0.0047911
0.00501655
0.00555653
0.00664661
0.00591693
0.00525119
0.00494875
0.00485777
0.00491376
0.00510757
0.00546615
0.00604544
0.00692984
0.00823437
0.0101143
0.0127698
0.0164668
0.0215375
0.0284233
0.037676
0.0498619
0.0651113
0.0821839
0.0937681
0.0925832
0.0870492
0.0611924
0.0382856
0.0253482
0.0181735
0.0139133
0.0111467
0.00922597
0.00784565
0.00684291
0.00611692
0.0055973
0.00523176
0.00498185
0.00482235
0.00474422
0.0047587
0.00490692
0.0052767
0.0060161
0.00554307
0.00509716
0.00489667
0.00484913
0.00492197
0.00512178
0.00548554
0.00607935
0.00700168
0.00838691
0.0104219
0.0133443
0.0174772
0.0232107
0.0310717
0.041679
0.055683
0.0735522
0.0943857
0.108275
0.103288
0.0924484
0.0636107
0.0392764
0.0259367
0.0186453
0.0143153
0.0114788
0.0094903
0.00804978
0.00699725
0.00623208
0.00568262
0.00529429
0.00502625
0.0048508
0.00475503
0.00474368
0.00484282
0.00510974
0.00564353
0.00530739
0.00500491
0.00487271
0.0048564
0.0049443
0.00515467
0.00553471
0.00616159
0.0071525
0.00866546
0.0109319
0.0142322
0.0189657
0.0255727
0.0346679
0.0468732
0.0629596
0.0838217
0.108965
0.125063
0.114943
0.0982765
0.0660208
0.040358
0.0266778
0.0192765
0.0148588
0.0119292
0.00985056
0.00833
0.00721021
0.00639071
0.00579847
0.00537692
0.00508296
0.00488667
0.00477208
0.00473853
0.00480232
0.00500072
0.00540101
0.00515541
0.00495105
0.00486754
0.00487642
0.00498111
0.00521019
0.00562228
0.00630766
0.00741072
0.00911766
0.0117279
0.015565
0.0211422
0.0289224
0.0395979
0.0537682
0.072276
0.0965912
0.126474
0.144425
0.127281
0.10434
0.0684809
0.0416038
0.0276226
0.0201028
0.0155687
0.0125163
0.0103212
0.00869881
0.00749356
0.00660414
0.00595553
0.00548911
0.00515976
0.00493551
0.00479778
0.00474156
0.00477565
0.0049235
0.00522968
0.00505821
0.00492277
0.0048762
0.00490833
0.00503471
0.00529375
0.00575899
0.00653593
0.00781074
0.00979969
0.0129115
0.0175007
0.0242628
0.0336019
0.0463541
0.0629525
0.0843412
0.112662
0.14777
0.166578
0.139863
0.110335
0.0710755
0.0430971
0.0288419
0.0211687
0.0164706
0.0132536
0.0109091
0.00915887
0.00784786
0.0068725
0.00615469
0.0056328
0.00525925
0.00500001
0.00483396
0.00475247
0.00475815
0.00486439
0.00509879
0.00499876
0.00491297
0.0048969
0.00495346
0.00510948
0.00541288
0.00595901
0.00686831
0.00839546
0.0107762
0.0146072
0.0202158
0.0286256
0.0400258
0.0555038
0.0750919
0.100013
0.13314
0.173695
0.191496
0.152216
0.116576
0.0739667
0.0449948
0.0304414
0.0225392
0.0176011
0.0141595
0.0116211
0.00970904
0.00826596
0.00718429
0.00638204
0.00579399
0.00536951
0.0050716
0.00487581
0.00476904
0.00474772
0.00481687
0.00499234
0.0049659
0.00491762
0.00492955
0.00501418
0.00521114
0.00557626
0.00623962
0.00732853
0.00921485
0.0121135
0.0169562
0.0239002
0.0345932
0.0486323
0.0676863
0.0909316
0.120283
0.159117
0.204816
0.218694
0.164261
0.123258
0.0773633
0.0474864
0.0325618
0.0243059
0.0190199
0.0152733
0.012483
0.010368
0.00876242
0.00755143
0.00664734
0.00598006
0.00549531
0.00515257
0.00492345
0.00479013
0.00474293
0.00477884
0.00490381
0.00495074
0.00493339
0.00497445
0.00509293
0.00534621
0.00579192
0.00661978
0.00793741
0.0103253
0.0138728
0.0201237
0.0287345
0.0425621
0.0598483
0.0836224
0.111321
0.146376
0.191723
0.241202
0.247038
0.176873
0.130434
0.0815249
0.0508398
0.0354082
0.0266025
0.020814
0.016651
0.0135343
0.0111627
0.00935578
0.00798707
0.00695975
0.00619797
0.00564225
0.00524749
0.00498064
0.00481849
0.0047452
0.00475039
0.00483132
0.00494551
0.0049569
0.0050321
0.00519136
0.00552184
0.00606555
0.0071206
0.00870785
0.0117882
0.0160914
0.0242858
0.034843
0.0529566
0.0740428
0.104159
0.137259
0.179618
0.231972
0.282384
0.275715
0.191034
0.138329
0.0868599
0.0554391
0.0392486
0.029588
0.0230912
0.0183546
0.0148123
0.0121147
0.0100599
0.00849982
0.00732578
0.00645266
0.0058147
0.00536059
0.00505141
0.00485793
0.00475794
0.00473429
0.00477678
0.00494479
0.00498555
0.00510403
0.00530954
0.00574562
0.00639585
0.00776343
0.00963362
0.0136672
0.0187585
0.0296259
0.0422439
0.0662259
0.0914786
0.130315
0.169642
0.22125
0.28049
0.327278
0.304659
0.207672
0.147527
0.0940358
0.0617375
0.0444084
0.0334438
0.0259902
0.020453
0.0163641
0.0132432
0.0108864
0.00909623
0.00775
0.00674871
0.00601699
0.00549625
0.00514012
0.00491269
0.00478523
0.00473438
0.00474356
0.00494811
0.00501778
0.00519341
0.00544319
0.00602553
0.00676831
0.00857057
0.0106764
0.0160295
0.0217871
0.0363371
0.0507959
0.0828713
0.112257
0.163284
0.209189
0.272409
0.337115
0.373499
0.334179
0.227684
0.159041
0.103968
0.0702052
0.0512971
0.0384061
0.029734
0.0230458
0.0182787
0.0145766
0.0118572
0.00978272
0.00823855
0.00708965
0.00625362
0.00565874
0.00525128
0.00498727
0.0048315
0.00475468
0.00473509
0.00495928
0.00504973
0.00530515
0.00557829
0.00637178
0.007147
0.00957093
0.0117513
0.0189556
0.0249857
0.0446376
0.0601559
0.10351
0.13625
0.204468
0.256615
0.334345
0.400541
0.416202
0.364133
0.251293
0.17311
0.117333
0.0812407
0.0604654
0.044843
0.0347428
0.0263262
0.0207958
0.0161919
0.0130676
0.0105774
0.00881847
0.00748226
0.00653518
0.00585364
0.0053925
0.00508712
0.00490254
0.0047993
0.00475453
0.00498281
0.00506678
0.00544844
0.00568304
0.00680528
0.00746434
0.0108142
0.0127115
0.0225583
0.0280385
0.0548003
0.0697576
0.128937
0.162968
0.255717
0.312526
0.407605
0.468183
0.449835
0.395955
0.276541
0.187425
0.133858
0.0949916
0.0725633
0.0533087
0.0417656
0.0306632
0.0245087
0.0183209
0.0149329
0.0115929
0.00970525
0.00796784
0.0069602
0.00609847
0.00561044
0.00522098
0.00501999
0.0048736
0.00481126
0.0047795
0.00475091
0.00476057
0.00480444
0.00488174
0.00499028
0.0051279
0.00529422
0.00549411
0.00574208
0.00606913
0.00653651
0.00726653
0.00853889
0.0111128
0.0185201
0.0591693
0.00478345
0.00477602
0.00480966
0.00488194
0.00499671
0.00515524
0.00535826
0.00560798
0.00591212
0.0062901
0.00678273
0.0074706
0.00851529
0.0102836
0.0137884
0.0237135
0.074666
0.00479971
0.0048128
0.00486745
0.00496781
0.00512239
0.00533761
0.00561945
0.00597461
0.00641624
0.00697094
0.00769221
0.00868511
0.0101626
0.0126121
0.0174223
0.031091
0.0940602
0.00482344
0.00485342
0.00492803
0.00505519
0.00525017
0.00552639
0.0058978
0.00637955
0.00699336
0.00777693
0.00880116
0.010203
0.0122647
0.0156368
0.0222583
0.0413967
0.119401
0.00484359
0.00489179
0.00498328
0.0051342
0.0053664
0.00570244
0.00616697
0.00678785
0.00760097
0.00866171
0.0100655
0.0119927
0.0148165
0.0194142
0.0285364
0.0554935
0.152041
0.00485925
0.00492196
0.00502757
0.005196
0.0054567
0.00584272
0.00639235
0.00714999
0.00817219
0.00953976
0.011383
0.0139423
0.017713
0.02389
0.0363508
0.0731815
0.192848
0.00485755
0.00493886
0.0050545
0.00523257
0.00550832
0.00592545
0.006537
0.00740737
0.00861885
0.0102863
0.0125881
0.0158437
0.0207127
0.0288097
0.0454215
0.0940918
0.241355
0.00484549
0.0049385
0.00506166
0.00524139
0.00551617
0.00593806
0.00657386
0.00750846
0.0088527
0.0107626
0.0134744
0.017407
0.0234196
0.0336341
0.0548981
0.116564
0.294727
0.00481111
0.00491968
0.00504834
0.00522394
0.00548355
0.00588237
0.00649678
0.00742897
0.00881712
0.0108559
0.0138466
0.018313
0.0253332
0.0375583
0.0633718
0.137622
0.347072
0.00476942
0.00488315
0.00501577
0.00518455
0.005421
0.00577623
0.00632783
0.0071869
0.00851091
0.0105276
0.0135903
0.0183173
0.0259769
0.0396993
0.0691404
0.153327
0.390253
0.00471439
0.00483505
0.00496781
0.00512931
0.00534163
0.00564573
0.00611074
0.00684399
0.00800822
0.00984562
0.0127409
0.0173659
0.0251031
0.0394157
0.0706976
0.160014
0.416514
0.00465516
0.00477905
0.00491068
0.00506581
0.00525738
0.00551541
0.00589333
0.00648232
0.00743065
0.00897371
0.0114971
0.015679
0.0228862
0.0366731
0.06741
0.156241
0.421634
0.00460072
0.00472037
0.00485035
0.00500011
0.00517853
0.00540399
0.00571207
0.00617092
0.0069009
0.00810607
0.0101397
0.0136404
0.0198976
0.032111
0.059916
0.143533
0.406381
0.00455179
0.00466628
0.00479243
0.00493794
0.00510838
0.00531501
0.00558048
0.00594927
0.0065067
0.00741162
0.00895707
0.0116981
0.0167728
0.0268557
0.0500602
0.125011
0.375878
0.00451812
0.00461758
0.00473719
0.00487807
0.00504483
0.00524455
0.00549155
0.00581412
0.00626882
0.00696849
0.00813594
0.0102199
0.014179
0.0223082
0.0414913
0.103975
0.337271
0.00450478
0.00458613
0.00469083
0.00482025
0.00497966
0.00517447
0.00541548
0.00572242
0.00613377
0.00672819
0.00767068
0.00931803
0.0124887
0.0192511
0.0357899
0.086681
0.297036
0.0045222
0.00458117
0.00466412
0.00477436
0.00491701
0.00509866
0.0053294
0.0056269
0.00602198
0.00657497
0.00741447
0.00883239
0.0115457
0.0174732
0.032487
0.0788415
0.259108
0.00457421
0.00461366
0.00467496
0.00476144
0.00487858
0.00503467
0.00524143
0.00551651
0.00588939
0.00641209
0.00719392
0.00848586
0.0109302
0.0163078
0.0300588
0.0715718
0.225034
0.00466461
0.00469118
0.004733
0.00479685
0.00488675
0.0050117
0.00518376
0.00542075
0.00575108
0.00622357
0.00693409
0.00810141
0.0102976
0.0151796
0.0279809
0.0669
0.195933
0.00479308
0.00481413
0.00484558
0.00489322
0.00496058
0.00505561
0.00518987
0.00538079
0.0056552
0.0060579
0.00667207
0.00768042
0.00956766
0.0138172
0.0254663
0.0623984
0.171704
0.00496214
0.00498513
0.00501386
0.00505402
0.00510741
0.00518055
0.00528315
0.00543061
0.00564712
0.00597245
0.00647762
0.00731037
0.00885006
0.0123025
0.0221399
0.0555237
0.151354
0.00517103
0.00520293
0.00523745
0.00527925
0.00532859
0.00539027
0.00547168
0.00558538
0.00575186
0.00600556
0.00640709
0.00707529
0.00829497
0.0109493
0.0184994
0.0458738
0.133626
0.00541996
0.00546926
0.00551695
0.00556865
0.00562335
0.00568425
0.00575643
0.00584936
0.00597927
0.00617465
0.00648671
0.00701331
0.00797181
0.00998006
0.0155006
0.0359255
0.117566
0.00571047
0.00578272
0.00585177
0.00592167
0.00599083
0.00606116
0.00613584
0.00622146
0.00633016
0.00648444
0.0067265
0.0071381
0.00789377
0.00944453
0.0135157
0.0284445
0.102925
0.00604188
0.0061468
0.00624437
0.00634028
0.00643256
0.00652207
0.00661036
0.00670159
0.00680419
0.00693509
0.007128
0.00745091
0.00804898
0.00927173
0.0123493
0.0236173
0.0901065
0.00641932
0.0065605
0.0066949
0.00682565
0.00695051
0.00706943
0.00718267
0.00729233
0.00740368
0.00752865
0.00769315
0.00795287
0.00843064
0.00941457
0.0118433
0.0207053
0.0796473
0.00683769
0.00702731
0.00720659
0.00738091
0.00754806
0.00770723
0.00785745
0.00799904
0.00813444
0.00827118
0.00842815
0.00864984
0.00904054
0.00984878
0.0118449
0.0191299
0.0717349
0.00730371
0.00754609
0.00778019
0.00800871
0.00822944
0.00844099
0.00864148
0.00882971
0.00900576
0.00917325
0.00934461
0.00955406
0.00988939
0.0105698
0.012263
0.0184594
0.0661327
0.00781283
0.00812184
0.00842061
0.00871438
0.00900107
0.00927867
0.00954445
0.00979594
0.0100312
0.0102506
0.0104607
0.0106861
0.0109991
0.0115937
0.0130688
0.0184985
0.0624141
0.00837295
0.0087553
0.00913188
0.00950474
0.00987216
0.0102318
0.0105803
0.0109142
0.0112302
0.0115258
0.0118029
0.0120771
0.0124052
0.0129582
0.0142813
0.0191563
0.0601798
0.00898351
0.0094547
0.00992254
0.0103902
0.0108557
0.0113162
0.0117682
0.0122075
0.0126298
0.0130307
0.0134085
0.013771
0.0141607
0.0147244
0.0159605
0.0204323
0.0591317
0.0096547
0.0102252
0.0108021
0.0113839
0.0119687
0.0125535
0.0131343
0.013707
0.0142669
0.014809
0.0153292
0.0158298
0.0163405
0.0169838
0.0182113
0.0224105
0.0590675
0.0103913
0.0110797
0.0117844
0.0125033
0.0132332
0.0139708
0.0147121
0.0154535
0.0161907
0.0169197
0.0176363
0.0183399
0.0190508
0.0198689
0.0211966
0.025262
0.0598488
0.011207
0.0120297
0.0128859
0.0137693
0.0146758
0.0156018
0.0165439
0.0174991
0.0184656
0.0194417
0.0204265
0.021421
0.0224419
0.0235716
0.025162
0.0292746
0.0613637
0.0121108
0.0130936
0.0141277
0.0152079
0.0163292
0.0174879
0.0186815
0.0199097
0.021174
0.0224788
0.0238307
0.0252393
0.0267272
0.0283714
0.0304797
0.0349174
0.0634966
0.013118
0.0142888
0.0155351
0.0168513
0.0182336
0.0196795
0.0211894
0.0227672
0.0244216
0.0261674
0.0280257
0.0300262
0.0322134
0.0346815
0.0377192
0.0429628
0.0661096
0.0142377
0.0156358
0.0171366
0.0187377
0.0204379
0.022239
0.0241471
0.0261747
0.0283432
0.030686
0.0332512
0.0361061
0.0393458
0.0431239
0.0477701
0.0547064
0.0690419
0.0154799
0.0171519
0.0189617
0.0209102
0.0230013
0.0252441
0.0276554
0.0302639
0.033114
0.0362723
0.039835
0.0439399
0.0487829
0.0546584
0.0620664
0.0723632
0.0721416
0.0168519
0.0188533
0.0210385
0.0234136
0.0259898
0.0287875
0.0318414
0.0352068
0.0389678
0.0432499
0.0482367
0.0541966
0.0615241
0.0708132
0.0830092
0.0997936
0.0753294
0.0183607
0.0207539
0.0233924
0.0262901
0.0294703
0.0329717
0.0368568
0.0412237
0.0462217
0.0520763
0.0591261
0.0678834
0.0791355
0.0941231
0.11478
0.144355
0.0786859
0.00715623
0.00735205
0.00761953
0.0078586
0.00820446
0.00850155
0.00893619
0.0093073
0.00983463
0.0103005
0.0109264
0.0115174
0.0122644
0.0130363
0.0139592
0.0149438
0.0160125
0.0171557
0.0183881
0.0197124
0.0213225
0.0230451
0.0245248
0.0259498
0.0272932
0.0285129
0.0295621
0.0303973
0.0309807
0.0312848
0.0312937
0.0310072
0.0304378
0.0296101
0.0285599
0.0273292
0.0259644
0.0245106
0.0230119
0.0215055
0.0200247
0.00776221
0.00798212
0.00824256
0.0085253
0.00886225
0.00922312
0.00965037
0.0101054
0.0106358
0.0112031
0.0118544
0.0125634
0.0133742
0.0142842
0.0153168
0.0164415
0.0176466
0.0189516
0.0203603
0.0218871
0.0237429
0.0257423
0.0274839
0.0291762
0.0307876
0.0322665
0.0335566
0.0346037
0.0353599
0.0357885
0.0358673
0.0355922
0.0349757
0.0340459
0.0328443
0.0314214
0.0298328
0.0281343
0.0263788
0.0246127
0.0228758
0.0085177
0.00875345
0.00902665
0.00933778
0.00969566
0.0100992
0.0105585
0.011071
0.0116483
0.0122886
0.0130068
0.0138099
0.0147234
0.0157667
0.0169392
0.0182095
0.0195772
0.0210665
0.022681
0.024438
0.0265755
0.0288863
0.0309272
0.0329261
0.0348451
0.0366222
0.0381897
0.0394806
0.0404346
0.0410043
0.0411593
0.0408909
0.040211
0.0391517
0.0377619
0.0361022
0.0342399
0.0322431
0.0301764
0.0280968
0.0260525
0.00949504
0.00974124
0.0100309
0.0103667
0.010754
0.0111961
0.011698
0.0122632
0.0128982
0.0136099
0.0144109
0.015321
0.0163686
0.0175687
0.0188971
0.0203251
0.0218815
0.0235837
0.0254358
0.0274568
0.0299134
0.032574
0.0349553
0.0373037
0.0395733
0.0416908
0.0435747
0.0451429
0.0463208
0.0470475
0.0472827
0.0470118
0.0462463
0.0450227
0.0433988
0.0414477
0.0392511
0.0368923
0.0344499
0.0319938
0.0295823
0.0107984
0.0110412
0.0113379
0.0116911
0.0121044
0.0125812
0.0131258
0.0137437
0.0144429
0.0152359
0.0161434
0.0171948
0.0184147
0.0197902
0.0212789
0.0228884
0.0246639
0.0266118
0.0287373
0.0310603
0.0338765
0.036929
0.0396957
0.0424399
0.0451065
0.0476092
0.0498505
0.051731
0.0531585
0.0540565
0.0543726
0.0540851
0.0532049
0.0517735
0.0498598
0.047552
0.0449495
0.0421537
0.0392609
0.0363557
0.0335087
0.0125904
0.0127934
0.0130698
0.0134205
0.0138466
0.0143502
0.0149359
0.0156114
0.0163894
0.0172906
0.0183443
0.0195782
0.0209884
0.0225331
0.0241989
0.0260337
0.0280631
0.0302942
0.0327331
0.035401
0.0386206
0.0421103
0.045311
0.0485007
0.0516137
0.0545485
0.0571895
0.0594172
0.061119
0.0622002
0.0625936
0.0622694
0.0612373
0.0595454
0.0572757
0.0545347
0.0514432
0.0481248
0.0446961
0.04126
0.0379009
0.0151615
0.0152507
0.015449
0.015755
0.0161665
0.0166837
0.0173112
0.0180605
0.0189514
0.0200107
0.0212601
0.0226924
0.0242679
0.0259714
0.0278496
0.0299442
0.0322658
0.0348224
0.0376201
0.04068
0.0443503
0.0483251
0.0520118
0.0556996
0.0593102
0.062725
0.065808
0.0684167
0.0704153
0.0716874
0.0721494
0.0717614
0.0705322
0.0685175
0.065815
0.0625534
0.0588788
0.054941
0.0508812
0.0468234
0.0428678
0.0190162
0.0188993
0.0189341
0.0191265
0.0194757
0.0199835
0.020656
0.0215046
0.022543
0.0237763
0.0251854
0.0267391
0.0284409
0.0303413
0.0324804
0.0348721
0.0375278
0.0404559
0.0436622
0.047167
0.0513383
0.0558478
0.0600747
0.0643144
0.068474
0.072416
0.0759813
0.0790018
0.0813153
0.0827812
0.0832966
0.0828107
0.0813309
0.0789221
0.0757006
0.0718208
0.067459
0.0627957
0.0580007
0.053222
0.0485782
0.0246537
0.0243324
0.0241787
0.0242189
0.0244655
0.0249276
0.0256084
0.0265022
0.0275922
0.0288599
0.0303054
0.031956
0.0338482
0.0360043
0.0384397
0.0411688
0.0442039
0.0475531
0.0512218
0.0552273
0.0599526
0.0650474
0.0698682
0.0747125
0.0794702
0.0839825
0.0880652
0.0915222
0.0941622
0.0958178
0.0963645
0.0957395
0.0939486
0.0910672
0.0872332
0.0826307
0.0774705
0.0719683
0.0663267
0.0607212
0.0552903
0.0321146
0.0316641
0.0313806
0.0312951
0.0314216
0.0317688
0.0323408
0.0331423
0.0341827
0.0354752
0.0370336
0.038872
0.0410056
0.0434501
0.0462207
0.0493318
0.0527951
0.0566185
0.0608052
0.0653689
0.0706994
0.0764278
0.0818921
0.0873879
0.0927849
0.0979015
0.102527
0.106435
0.109402
0.111234
0.111783
0.110972
0.108805
0.10537
0.100828
0.0953966
0.0893247
0.0828679
0.076265
0.069722
0.0633998
0.041657
0.0410154
0.0405615
0.0403272
0.0403304
0.0405874
0.041113
0.0419203
0.0430215
0.044429
0.0461555
0.0482147
0.0506215
0.0533918
0.0565406
0.0600813
0.0640244
0.0683758
0.0731359
0.0783119
0.0842916
0.0906895
0.0968367
0.103017
0.109078
0.114815
0.119989
0.124344
0.127627
0.12961
0.130124
0.129077
0.126472
0.122407
0.117069
0.110711
0.103623
0.0961017
0.0884267
0.0808367
0.0735165
0.0546188
0.0537273
0.0530659
0.0526687
0.0525544
0.0527405
0.0532438
0.0540803
0.0552646
0.056811
0.0587337
0.0610471
0.0637657
0.0669039
0.070476
0.0744937
0.078965
0.0838923
0.0892713
0.095101
0.101754
0.108832
0.115676
0.122543
0.12926
0.135601
0.141299
0.14607
0.149631
0.151726
0.152162
0.150833
0.14774
0.14299
0.136794
0.129439
0.121257
0.112587
0.103748
0.0950152
0.086598
0.0728065
0.0715921
0.0706689
0.0700728
0.0698218
0.0699321
0.0704199
0.0713014
0.0725917
0.074305
0.0764556
0.0790575
0.0821243
0.0856687
0.0897017
0.0942311
0.0992615
0.10479
0.110804
0.117292
0.124596
0.132316
0.139813
0.147312
0.15462
0.161489
0.167633
0.172742
0.176509
0.178656
0.17897
0.17733
0.173731
0.168289
0.161231
0.152873
0.143582
0.133738
0.123697
0.113768
0.104186
0.0991494
0.0975315
0.0962811
0.095438
0.0950185
0.095036
0.0955035
0.0964348
0.0978431
0.0997395
0.102136
0.105043
0.108471
0.112429
0.116923
0.121955
0.127522
0.133612
0.140205
0.147274
0.155112
0.163328
0.171331
0.179299
0.187022
0.194241
0.200658
0.205951
0.209799
0.211913
0.212063
0.21012
0.206069
0.200024
0.19222
0.182985
0.172709
0.161798
0.150639
0.13957
0.128848
0.13863
0.136565
0.134944
0.133819
0.133202
0.133104
0.133532
0.134495
0.136001
0.138054
0.140662
0.143827
0.147554
0.151843
0.156692
0.162095
0.168039
0.1745
0.181445
0.188834
0.196889
0.205249
0.213405
0.221472
0.229238
0.236446
0.242803
0.247998
0.251717
0.253673
0.25364
0.251479
0.247165
0.240797
0.232595
0.222875
0.212022
0.20044
0.188529
0.176641
0.165039
0.200092
0.1977
0.195778
0.194415
0.19362
0.1934
0.193755
0.194684
0.196187
0.198261
0.200902
0.204104
0.20786
0.21216
0.216991
0.222335
0.228167
0.234454
0.241153
0.248208
0.255753
0.263495
0.271046
0.278453
0.285522
0.292026
0.297711
0.302306
0.30554
0.307162
0.306966
0.304824
0.300695
0.294648
0.286854
0.277577
0.267146
0.25592
0.244263
0.232513
0.220883
0.300043
0.297984
0.296211
0.294931
0.294155
0.293881
0.294105
0.294821
0.296017
0.297682
0.299801
0.302361
0.305344
0.308733
0.312506
0.316639
0.321103
0.325864
0.33088
0.336101
0.341563
0.347095
0.35248
0.357707
0.362643
0.367138
0.371026
0.374131
0.376276
0.377297
0.377054
0.37545
0.372444
0.36806
0.362386
0.355575
0.34783
0.339385
0.330486
0.321376
0.312086
0.0585604
0.0186923
0.0111277
0.00847857
0.00714417
0.00636393
0.0058678
0.00553874
0.00531681
0.00516977
0.00507535
0.00501578
0.0049759
0.00494315
0.00491221
0.00488389
0.00485202
0.0734908
0.0239288
0.0137234
0.0101181
0.00826375
0.00715178
0.00642597
0.00593185
0.00559045
0.00535683
0.00520094
0.00509782
0.00502439
0.00496306
0.00490595
0.00485712
0.00482382
0.0920863
0.0313984
0.0172442
0.0122981
0.00973742
0.00817604
0.00714001
0.00642429
0.00592422
0.00557875
0.00534609
0.00519066
0.00508041
0.00499086
0.00490837
0.0048342
0.00478636
0.116386
0.0414948
0.0219389
0.0151285
0.0116173
0.00945877
0.0080142
0.00701088
0.00630941
0.00582644
0.00550312
0.00528883
0.00513986
0.00502311
0.00491782
0.00481687
0.00472892
0.14752
0.0548611
0.0280502
0.0186732
0.0138997
0.0109722
0.00901488
0.00766084
0.00672182
0.00608289
0.00566082
0.00538519
0.00519783
0.00505594
0.00493247
0.00481656
0.00471545
0.186292
0.0722417
0.035741
0.0229051
0.0164961
0.0126242
0.0100639
0.00831498
0.0071208
0.00632274
0.00580419
0.00547117
0.00524896
0.00508454
0.00494525
0.00481743
0.00470755
0.232068
0.0939047
0.044931
0.0276365
0.0192008
0.014246
0.0110379
0.00888997
0.00745462
0.00651582
0.00591721
0.00553817
0.00528822
0.00510513
0.00495324
0.00481579
0.00469385
0.281923
0.118743
0.0549878
0.032403
0.0216669
0.0156099
0.0117898
0.00929639
0.00767245
0.00663496
0.00598572
0.00557897
0.00531099
0.00511487
0.0049544
0.00481168
0.00468526
0.330018
0.143186
0.0643791
0.036424
0.0234725
0.0164705
0.0121799
0.00946063
0.00773826
0.0066638
0.00600222
0.00558951
0.00531451
0.00511212
0.00494687
0.00480233
0.00467709
0.368694
0.161702
0.0708267
0.0387009
0.0242299
0.0166387
0.0121235
0.00934994
0.00764331
0.00660205
0.00596824
0.00556968
0.00529899
0.00509621
0.00493001
0.0047866
0.00466346
0.391102
0.169587
0.0723193
0.0383306
0.0237407
0.0160465
0.0116236
0.00899239
0.00741538
0.00646974
0.00589483
0.00552496
0.00526637
0.00506774
0.00490421
0.00476503
0.00464764
0.393918
0.165158
0.0681674
0.0355535
0.0219553
0.0148152
0.0107995
0.00847453
0.0071109
0.00629984
0.00579712
0.00546277
0.00521938
0.00502808
0.00487051
0.00473848
0.00462955
0.378524
0.149245
0.0592787
0.0316261
0.0194548
0.0132368
0.00983697
0.00791259
0.00679581
0.00612218
0.00568975
0.00538817
0.00516055
0.0049788
0.00482963
0.00470688
0.00460832
0.350077
0.124694
0.0503959
0.0269848
0.0167741
0.0116645
0.00893206
0.00740488
0.00651094
0.00595391
0.00557846
0.00530485
0.005093
0.00492289
0.00478461
0.00467297
0.00458562
0.315295
0.100286
0.0426061
0.022915
0.0144747
0.010368
0.00821094
0.00700233
0.00627512
0.0058011
0.00546703
0.00521634
0.00502029
0.00486372
0.00473842
0.00463951
0.0045642
0.279538
0.0896245
0.037191
0.0199254
0.0128043
0.00944423
0.00769585
0.00670007
0.00607975
0.00565987
0.00535598
0.00512562
0.00494625
0.00480505
0.00469443
0.00460937
0.00454592
0.245163
0.0801
0.0333604
0.0178856
0.0116766
0.00881189
0.00732287
0.00645877
0.00590634
0.0055249
0.00524676
0.00503701
0.00487587
0.0047518
0.00465676
0.00458531
0.00453312
0.213982
0.0717316
0.030411
0.0163977
0.0108506
0.00832812
0.00701526
0.0062432
0.00574293
0.00539583
0.00514392
0.00495665
0.00481559
0.00470914
0.00462943
0.00457076
0.00452832
0.187045
0.0661482
0.027954
0.0150784
0.010113
0.00788916
0.00672902
0.00603982
0.00559032
0.00527932
0.00505607
0.00489256
0.00477171
0.00468234
0.00461657
0.00456865
0.00453382
0.164543
0.0617845
0.0254526
0.0137148
0.00938195
0.00746917
0.00646283
0.00585739
0.00546065
0.00518722
0.00499313
0.00485306
0.0047511
0.00467657
0.00462189
0.00458147
0.00455122
0.145848
0.0557949
0.0223684
0.0122674
0.00868178
0.00709311
0.00623762
0.00571377
0.00536878
0.00513201
0.00496532
0.00484602
0.00475954
0.00469598
0.0046483
0.0046115
0.00458191
0.129816
0.0468281
0.0188835
0.0109173
0.00809943
0.00680411
0.00608036
0.00562891
0.00533016
0.00512525
0.00498107
0.00487736
0.00480098
0.00474299
0.00469718
0.00465928
0.00462642
0.115307
0.0369783
0.0157779
0.00987894
0.00769724
0.00662912
0.00600928
0.00561672
0.00535527
0.00517462
0.00504563
0.00495037
0.00487719
0.0048183
0.00476847
0.00472414
0.00468415
0.101768
0.0294896
0.0136216
0.00921954
0.00747986
0.00657356
0.0060323
0.00568453
0.00544947
0.00528328
0.00516043
0.00506523
0.00498765
0.00492115
0.00486161
0.00480658
0.00475532
0.0894827
0.0241738
0.0122746
0.00888582
0.00743361
0.00663984
0.00615466
0.00583611
0.0056143
0.005451
0.00532404
0.00521993
0.00513019
0.00504952
0.00497488
0.00490476
0.00483845
0.0791744
0.0207879
0.0115613
0.00881729
0.00755063
0.00683173
0.00637986
0.00607248
0.00584867
0.00567534
0.00553343
0.00541139
0.00530206
0.00520111
0.00510614
0.00501582
0.00493122
0.0713051
0.0188978
0.0113494
0.0089863
0.00783277
0.00715433
0.00671045
0.00639338
0.00615039
0.00595311
0.00578511
0.00563635
0.00550054
0.00537388
0.00525423
0.00514092
0.0050348
0.0658033
0.0180736
0.0115373
0.00938768
0.0082895
0.00761494
0.00714959
0.00679876
0.00651743
0.00628132
0.00607585
0.00589171
0.00572282
0.0055654
0.00541729
0.00527812
0.00514717
0.0622538
0.0179956
0.0120791
0.010034
0.00893699
0.00822438
0.00770277
0.00729025
0.00694906
0.00665803
0.00640317
0.00617482
0.00596634
0.00577329
0.00559297
0.00542313
0.00526459
0.0602128
0.0185247
0.0129806
0.010955
0.0098001
0.00899934
0.00837968
0.00787234
0.00744657
0.00708281
0.0067657
0.00648384
0.00622903
0.00599539
0.00577908
0.00557691
0.00539097
0.0593476
0.0196317
0.0142893
0.0121988
0.0109153
0.00996495
0.00919589
0.00855363
0.00801401
0.00755715
0.00716347
0.00681795
0.00650963
0.00623021
0.0059738
0.00573765
0.00552181
0.0594458
0.021381
0.0160911
0.0138344
0.0123343
0.0111575
0.0101754
0.00934829
0.00865884
0.00808477
0.00759812
0.00717743
0.0068077
0.00647723
0.00617708
0.00590139
0.00564745
0.0603596
0.02392
0.0185139
0.0159597
0.0141285
0.012629
0.0113537
0.0102783
0.00939306
0.00867216
0.00807313
0.00756388
0.00712362
0.00673617
0.00638891
0.00607253
0.00578286
0.0619569
0.0274946
0.0217496
0.0187124
0.016398
0.0144523
0.0127826
0.0113766
0.0102348
0.00932906
0.00859405
0.00798039
0.00745885
0.00700732
0.00660834
0.00625108
0.00593119
0.0640915
0.0325062
0.0260906
0.0222929
0.0192832
0.0167293
0.0145359
0.0126925
0.0112111
0.0100695
0.00916861
0.00843134
0.00781582
0.00729226
0.00683639
0.0064316
0.00606342
0.0665815
0.039627
0.031994
0.0270012
0.0229857
0.0196017
0.0167172
0.0142984
0.0123629
0.0109137
0.00980739
0.00892271
0.008198
0.00759317
0.00707587
0.00662016
0.00620486
0.0692089
0.0500093
0.0401944
0.0333008
0.027803
0.0232682
0.0194692
0.016299
0.0137536
0.0118928
0.0105254
0.00946241
0.00860977
0.00791228
0.00732805
0.00682513
0.00638032
0.0717521
0.0656664
0.0519064
0.0419313
0.0341888
0.0280139
0.0229853
0.0188406
0.0154816
0.0130581
0.011346
0.0100615
0.00905686
0.00825232
0.00759248
0.00703494
0.00654142
0.0740649
0.0901573
0.069206
0.0541111
0.0428624
0.034266
0.0275312
0.0221184
0.0176966
0.0144978
0.0123118
0.0107391
0.00954817
0.00861831
0.00787266
0.00725062
0.00669878
0.0762019
0.130286
0.0958043
0.0719378
0.0550215
0.0427159
0.0335094
0.0263971
0.0206266
0.0163733
0.0135114
0.011539
0.0101037
0.00901943
0.0081758
0.00749543
0.00691503
0.00503339
0.00569611
0.00760703
0.0133342
0.0305013
0.0788278
0.191402
0.378097
0.546706
0.435243
0.198575
0.11148
0.0644426
0.0364978
0.0212707
0.0131359
0.00873393
0.00645411
0.00538633
0.00496073
0.0050522
0.0057971
0.00794707
0.0144344
0.0341237
0.0908247
0.227847
0.465422
0.652009
0.450072
0.209862
0.13063
0.0789581
0.0444938
0.025046
0.0150408
0.00976676
0.00701723
0.0056889
0.00512314
0.00508369
0.00592082
0.0083411
0.0156765
0.0381243
0.104061
0.269558
0.572449
0.771945
0.48423
0.230045
0.154342
0.0978382
0.055789
0.0302924
0.0175418
0.011085
0.00774183
0.00609069
0.0053479
0.00513108
0.00607641
0.00881784
0.0171337
0.0426344
0.118683
0.317106
0.701783
0.897251
0.50186
0.258269
0.183863
0.122986
0.0720245
0.0379688
0.0209588
0.012792
0.00867116
0.00661162
0.00564197
0.00519944
0.00628075
0.00943172
0.0189408
0.0478896
0.134983
0.37143
0.853561
1.02222
0.516189
0.29185
0.222886
0.156881
0.0953871
0.0497966
0.0259592
0.0150571
0.00985201
0.0072638
0.00600434
0.00529792
0.00656701
0.0102828
0.021327
0.05428
0.153452
0.433758
1.02946
1.14658
0.525267
0.32636
0.273179
0.202004
0.12841
0.0684012
0.0339231
0.0182955
0.0113775
0.00806548
0.00643161
0.00544487
0.00699975
0.0115491
0.0246679
0.0624109
0.174842
0.505518
1.22689
1.27983
0.531742
0.362353