/*--------------------------------*- C++ -*----------------------------------*\
  =========                 |
  \\      /  F ield         | OpenFOAM: The Open Source CFD Toolbox
   \\    /   O peration     | Website:  https://openfoam.org
    \\  /    A nd           | Version:  6
     \\/     M anipulation  |
\*---------------------------------------------------------------------------*/
FoamFile
{
    version     2.0;
    format      ascii;
    class       surfaceScalarField;
    location    "1.92";
    object      phi;
}
// * * * * * * * * * * * * * * * * * * * * * * * * * * * * * * * * * * * * * //

dimensions      [0 3 -1 0 0 0 0];

internalField   nonuniform List<scalar> 
8193
(
0.186207
-0.353419
-0.163789
0.200254
-0.367957
0.208561
-0.375269
0.212535
-0.379328
0.212911
-0.381875
0.210234
-0.38309
0.205069
-0.383109
0.197608
-0.382093
0.188059
-0.380091
0.17666
-0.377269
0.163644
-0.37382
0.149223
-0.370087
0.133555
-0.366843
0.116484
-0.365135
0.0971619
-0.363771
0.0745143
-0.355228
0.0479153
-0.329209
0.0190331
-0.289281
-0.0119892
-0.265933
-0.0448644
-0.270257
-0.0762387
-0.277043
-0.104245
-0.291513
-0.128522
-0.311096
-0.148608
-0.330667
-0.164582
-0.346126
-0.177136
-0.355505
-0.187412
-0.359605
-0.196396
-0.360761
-0.20483
-0.361482
-0.212927
-0.363315
-0.220296
-0.36622
-0.226481
-0.369694
-0.231074
-0.373045
-0.233869
-0.375971
-0.234834
-0.378618
-0.233767
-0.381054
-0.230492
-0.383357
-0.224588
-0.385998
-0.214975
-0.389064
-0.199371
-0.389837
-0.380943
-0.172985
0.229539
-0.372239
-0.208795
0.240447
-0.380459
0.246158
-0.385856
0.24799
-0.389017
0.246353
-0.390733
0.241678
-0.391167
0.23436
-0.390394
0.224545
-0.388313
0.212519
-0.385107
0.198576
-0.380954
0.182967
-0.37602
0.165981
-0.370699
0.1478
-0.365686
0.128054
-0.361502
0.106023
-0.356637
0.0810198
-0.343636
0.0532518
-0.313129
0.0241715
-0.269967
-0.0072073
-0.242233
-0.041079
-0.241851
-0.0745154
-0.246767
-0.106425
-0.260405
-0.135593
-0.28035
-0.161037
-0.301282
-0.181824
-0.319089
-0.197667
-0.331187
-0.209737
-0.336961
-0.219426
-0.338553
-0.227898
-0.338739
-0.235903
-0.339515
-0.24343
-0.341629
-0.250116
-0.344966
-0.255513
-0.348945
-0.259332
-0.353131
-0.26152
-0.357456
-0.26204
-0.361987
-0.260729
-0.36694
-0.257525
-0.372693
-0.2524
-0.379295
-0.24407
-0.385275
-0.38952
-0.224975
0.264464
-0.383755
-0.248744
0.273785
-0.389208
0.27847
-0.393393
0.27923
-0.395782
0.276374
-0.396712
0.270259
-0.396357
0.261151
-0.394669
0.24941
-0.391627
0.235356
-0.387366
0.219289
-0.382043
0.201548
-0.375873
0.182393
-0.36919
0.161886
-0.362509
0.139858
-0.356148
0.115625
-0.348109
0.0889
-0.331365
0.0603277
-0.297513
0.0308047
-0.251686
-0.00110402
-0.219671
-0.0357957
-0.21446
-0.0706095
-0.217091
-0.104927
-0.228979
-0.137542
-0.248327
-0.166851
-0.270243
-0.191507
-0.290393
-0.210962
-0.305421
-0.225622
-0.313789
-0.236794
-0.316774
-0.245896
-0.317066
-0.253999
-0.317042
-0.261538
-0.318116
-0.268385
-0.320765
-0.274158
-0.324691
-0.278509
-0.329451
-0.281288
-0.334808
-0.282461
-0.340731
-0.281996
-0.347455
-0.279924
-0.355311
-0.276388
-0.364246
-0.270827
-0.373498
-0.383802
-0.260835
0.302309
-0.39026
-0.289552
0.309737
-0.394134
0.31274
-0.397454
0.31173
-0.399139
0.307034
-0.399388
0.298945
-0.398299
0.287778
-0.395814
0.273883
-0.391928
0.257599
-0.386754
0.239293
-0.380479
0.219314
-0.373304
0.197897
-0.365466
0.175154
-0.357374
0.150954
-0.349128
0.124808
-0.338398
0.0966622
-0.318623
0.0675851
-0.282551
0.0381254
-0.234825
0.00624219
-0.198675
-0.0290999
-0.188127
-0.0652156
-0.187969
-0.101828
-0.197236
-0.137727
-0.215093
-0.171049
-0.23733
-0.200243
-0.259323
-0.224073
-0.277433
-0.242123
-0.289324
-0.255406
-0.294876
-0.265483
-0.296253
-0.273808
-0.295968
-0.2813
-0.295999
-0.288208
-0.297518
-0.29431
-0.300729
-0.299234
-0.305362
-0.302729
-0.311086
-0.30472
-0.317723
-0.305227
-0.325432
-0.304311
-0.334527
-0.302073
-0.344936
-0.298579
-0.355944
-0.369266
-0.292929
0.339931
-0.392598
-0.329562
0.345537
-0.395566
0.346615
-0.398043
0.343661
-0.399144
0.336957
-0.398797
0.326761
-0.397036
0.313406
-0.393845
0.297273
-0.389245
0.27876
-0.383358
0.258286
-0.376385
0.236144
-0.36841
0.212623
-0.359678
0.187876
-0.350479
0.161783
-0.340664
0.134058
-0.327761
0.104919
-0.30574
0.0756326
-0.268425
0.0465667
-0.219592
0.0151585
-0.179564
-0.020308
-0.163244
-0.0573388
-0.159656
-0.0955738
-0.165726
-0.134208
-0.181088
-0.171337
-0.202656
-0.204971
-0.225916
-0.233552
-0.246815
-0.25598
-0.262586
-0.272358
-0.271928
-0.284117
-0.275698
-0.293015
-0.276106
-0.30047
-0.275496
-0.307243
-0.275719
-0.313443
-0.277657
-0.318781
-0.281465
-0.322918
-0.286887
-0.325684
-0.2936
-0.327115
-0.301585
-0.327272
-0.311154
-0.326205
-0.32227
-0.323844
-0.33436
-0.348945
-0.320337
0.378313
-0.39103
-0.37036
0.381708
-0.393391
0.380593
-0.395145
0.375356
-0.395684
0.366301
-0.394795
0.353736
-0.392476
0.338031
-0.388739
0.319603
-0.38363
0.298893
-0.377284
0.276271
-0.369825
0.252086
-0.361325
0.226642
-0.351994
0.200115
-0.34201
0.172414
-0.330977
0.14342
-0.316423
0.113638
-0.292964
0.0843656
-0.255243
0.055987
-0.20615
0.0255728
-0.162721
-0.00963603
-0.140054
-0.0468496
-0.132746
-0.0861118
-0.134912
-0.126845
-0.146828
-0.167345
-0.166555
-0.205206
-0.190301
-0.238506
-0.213549
-0.265954
-0.232916
-0.286625
-0.246757
-0.301176
-0.254365
-0.311409
-0.256824
-0.319176
-0.25645
-0.325816
-0.255625
-0.331948
-0.255977
-0.337564
-0.258306
-0.342337
-0.262706
-0.345968
-0.268845
-0.348388
-0.276501
-0.349618
-0.285922
-0.349745
-0.297032
-0.348733
-0.309404
-0.324328
-0.346802
0.416982
-0.385524
-0.411784
0.417708
-0.387434
0.41402
-0.388636
0.40618
-0.388666
0.394543
-0.387349
0.379479
-0.384653
0.361385
-0.380589
0.340695
-0.375214
0.317843
-0.368654
0.293215
-0.36098
0.267177
-0.352249
0.240033
-0.342618
0.211982
-0.332178
0.18299
-0.320319
0.153064
-0.304633
0.122883
-0.280432
0.0938872
-0.243146
0.0665144
-0.194687
0.0373418
-0.148255
0.0034136
-0.119438
-0.0335346
-0.107544
-0.0729758
-0.105502
-0.11469
-0.1133
-0.157502
-0.12997
-0.199427
-0.152547
-0.237848
-0.177159
-0.270383
-0.200208
-0.295948
-0.218763
-0.314598
-0.230992
-0.327326
-0.237059
-0.336159
-0.238261
-0.342956
-0.237167
-0.348951
-0.236049
-0.35466
-0.236443
-0.359965
-0.2391
-0.364478
-0.243981
-0.367944
-0.250752
-0.370368
-0.25943
-0.371834
-0.269884
-0.372307
-0.28183
-0.29636
-0.37198
0.455364
-0.376012
-0.453302
0.453019
-0.377575
0.446378
-0.378386
0.435709
-0.378082
0.421377
-0.376528
0.403776
-0.373682
0.383321
-0.369542
0.360457
-0.364175
0.335604
-0.357669
0.309166
-0.350074
0.281512
-0.341419
0.252943
-0.331801
0.223644
-0.32121
0.193654
-0.308912
0.163106
-0.292611
0.132753
-0.268265
0.104056
-0.232035
0.0775874
-0.184968
0.0504689
-0.136835
0.0186086
-0.102033
-0.0173978
-0.0845775
-0.0561167
-0.0782522
-0.097494
-0.081682
-0.140982
-0.0944079
-0.185148
-0.114364
-0.227752
-0.138497
-0.266171
-0.163604
-0.297923
-0.186623
-0.32174
-0.204525
-0.338502
-0.215333
-0.349708
-0.21974
-0.357499
-0.219688
-0.363657
-0.21782
-0.369379
-0.216277
-0.375059
-0.216632
-0.380407
-0.219547
-0.384995
-0.22485
-0.388707
-0.232269
-0.3916
-0.241522
-0.39371
-0.252375
-0.265988
-0.395029
0.492518
-0.36245
-0.493942
0.486829
-0.363813
0.477047
-0.364448
0.463464
-0.364052
0.44644
-0.362509
0.426368
-0.359767
0.403676
-0.355829
0.378806
-0.350757
0.35218
-0.344602
0.324183
-0.337379
0.295187
-0.329102
0.265492
-0.319811
0.235283
-0.30939
0.204625
-0.297011
0.173719
-0.280529
0.143349
-0.256507
0.114931
-0.221767
0.0894547
-0.176945
0.0645004
-0.128428
0.0354941
-0.0884765
0.0013772
-0.0646409
-0.035871
-0.0537581
-0.0757308
-0.0530078
-0.118154
-0.0614719
-0.162561
-0.0776274
-0.207412
-0.0993921
-0.250311
-0.124425
-0.288584
-0.149954
-0.319593
-0.172922
-0.342204
-0.189858
-0.357479
-0.199267
-0.367629
-0.201955
-0.374763
-0.200676
-0.380683
-0.197896
-0.386645
-0.195746
-0.392765
-0.196046
-0.398493
-0.199311
-0.40354
-0.205026
-0.407962
-0.212589
-0.411655
-0.221947
-0.234028
-0.414772
0.527475
-0.34494
-0.532575
0.518364
-0.346327
0.505448
-0.347049
0.489022
-0.346836
0.469429
-0.345569
0.447057
-0.343204
0.422339
-0.339756
0.395711
-0.335271
0.367584
-0.329764
0.338331
-0.323207
0.3083
-0.315591
0.27779
-0.306921
0.246986
-0.296977
0.215974
-0.284851
0.184988
-0.268568
0.154772
-0.245221
0.126813
-0.212395
0.102103
-0.170257
0.0790373
-0.122612
0.0533224
-0.0790548
0.0221846
-0.0486693
-0.0130353
-0.032422
-0.0509554
-0.0275467
-0.0913644
-0.0319652
-0.134377
-0.0438377
-0.179391
-0.0618066
-0.224771
-0.0845701
-0.267899
-0.110347
-0.30582
-0.136422
-0.335797
-0.159111
-0.357032
-0.174992
-0.37128
-0.18232
-0.380936
-0.183222
-0.387797
-0.180773
-0.394027
-0.176748
-0.400635
-0.174139
-0.407386
-0.17472
-0.413786
-0.178253
-0.419795
-0.183702
-0.425142
-0.191268
-0.201483
-0.429974
0.559302
-0.323827
-0.568003
0.546919
-0.325502
0.53106
-0.32658
0.512001
-0.32681
0.49008
-0.326085
0.465687
-0.324376
0.439244
-0.321701
0.41117
-0.31808
0.381851
-0.313487
0.351649
-0.307865
0.320912
-0.301196
0.289924
-0.293426
0.258852
-0.284236
0.22779
-0.272659
0.196979
-0.256889
0.167192
-0.23457
0.139717
-0.203824
0.1154
-0.164396
0.0936491
-0.118672
0.0710178
-0.0734087
0.0437273
-0.0373746
0.0114085
-0.0149587
-0.0244271
-0.00528614
-0.0624398
-0.00611625
-0.102827
-0.0140797
-0.145751
-0.0278601
-0.190663
-0.0468706
-0.23603
-0.07032
-0.279208
-0.0966072
-0.316745
-0.122861
-0.345726
-0.145126
-0.365703
-0.159198
-0.379491
-0.163946
-0.389008
-0.163353
-0.396048
-0.159327
-0.403274
-0.154002
-0.411019
-0.151499
-0.418869
-0.15234
-0.42637
-0.155553
-0.433403
-0.161016
-0.169031
-0.440107
0.587206
-0.299689
-0.599172
0.571891
-0.301883
0.553424
-0.30355
0.532076
-0.304461
0.508194
-0.304538
0.482156
-0.303745
0.454367
-0.302101
0.425209
-0.299583
0.395044
-0.296133
0.364231
-0.291685
0.333121
-0.286219
0.301979
-0.279604
0.270961
-0.271423
0.24014
-0.260645
0.209762
-0.245653
0.180475
-0.224516
0.153351
-0.195798
0.129163
-0.158964
0.107952
-0.115689
0.08747
-0.0704537
0.0638826
-0.0304573
0.0353277
-0.00207164
0.00285355
0.0126572
-0.0325956
0.0160662
-0.0702942
0.0117371
-0.110213
0.0016786
-0.152464
-0.0133864
-0.19673
-0.0330967
-0.241673
-0.0568754
-0.284531
-0.083277
-0.321603
-0.109291
-0.349514
-0.130387
-0.368454
-0.141878
-0.382061
-0.144304
-0.3914
-0.142155
-0.399647
-0.135465
-0.408556
-0.12979
-0.417808
-0.127739
-0.426813
-0.128627
-0.435416
-0.131917
-0.137519
-0.443873
0.610477
-0.273237
-0.625201
0.592728
-0.276141
0.572128
-0.278578
0.548979
-0.280393
0.52361
-0.281492
0.496384
-0.281837
0.467674
-0.281426
0.437825
-0.280195
0.407193
-0.278081
0.376143
-0.275024
0.345021
-0.270989
0.314052
-0.265732
0.283367
-0.258751
0.25299
-0.24893
0.223146
-0.234865
0.194397
-0.214988
0.16748
-0.188051
0.143116
-0.153527
0.121743
-0.112821
0.102189
-0.0688204
0.0812575
-0.0267161
0.0561695
0.00669504
0.0275182
0.0259836
-0.00429518
0.0336719
-0.0390529
0.0335203
-0.076015
0.0270115
-0.115111
0.015536
-0.156317
-0.000502021
-0.199378
-0.0207547
-0.243109
-0.0447114
-0.285004
-0.0706818
-0.321086
-0.0956115
-0.347688
-0.114505
-0.365993
-0.123061
-0.379317
-0.123643
-0.389335
-0.117935
-0.399573
-0.109652
-0.410198
-0.10478
-0.420775
-0.103249
-0.431121
-0.104288
-0.107521
-0.441358
0.628462
-0.245312
-0.645267
0.60891
-0.249047
0.586819
-0.252417
0.562455
-0.255281
0.536165
-0.257579
0.508255
-0.259201
0.479077
-0.260159
0.448956
-0.260344
0.418264
-0.259733
0.387375
-0.258257
0.356588
-0.255812
0.326089
-0.25205
0.295923
-0.246339
0.266101
-0.237544
0.23686
-0.224503
0.208435
-0.205667
0.181514
-0.180259
0.156731
-0.147714
0.134682
-0.109418
0.114972
-0.0672821
0.0956686
-0.0249706
0.0738433
0.0117029
0.0476942
0.0361754
0.0183564
0.0480253
-0.0131994
0.0511733
-0.0470103
0.048107
-0.0827168
0.0398185
-0.120068
0.0268195
-0.159411
0.0100564
-0.200716
-0.0103388
-0.242584
-0.0340456
-0.282345
-0.0592834
-0.316098
-0.0822903
-0.3411
-0.0976137
-0.359309
-0.10292
-0.372784
-0.0998037
-0.384313
-0.0912616
-0.396138
-0.0838398
-0.408209
-0.0797728
-0.420124
-0.0786632
-0.0797999
-0.431833
0.640663
-0.216762
-0.658824
0.620038
-0.221427
0.597127
-0.225819
0.572244
-0.229882
0.545604
-0.233416
0.517553
-0.236406
0.488366
-0.238768
0.458459
-0.240514
0.428126
-0.241487
0.397827
-0.241781
0.367637
-0.240907
0.337866
-0.238762
0.308259
-0.234158
0.279064
-0.226477
0.250118
-0.214165
0.221793
-0.196226
0.194548
-0.171987
0.169015
-0.141072
0.145974
-0.105032
0.125274
-0.0648635
0.106104
-0.0235792
0.0861977
0.0144509
0.0626341
0.0433091
0.0353011
0.0597613
0.00594642
0.0658636
-0.0248316
0.0652509
-0.0573449
0.0598241
-0.0913663
0.0495555
-0.127111
0.0358334
-0.164593
0.0185893
-0.203342
-0.00234223
-0.241954
-0.0261172
-0.278155
-0.0498438
-0.308567
-0.0691813
-0.331718
-0.079896
-0.34946
-0.0802664
-0.363528
-0.073419
-0.376766
-0.0648041
-0.390214
-0.0584753
-0.403482
-0.0554848
-0.0548709
-0.416449
0.6462
-0.188494
-0.664883
0.625648
-0.194491
0.602494
-0.199408
0.578069
-0.205206
0.551409
-0.209351
0.524031
-0.214275
0.49512
-0.217534
0.466124
-0.221384
0.436405
-0.223573
0.407205
-0.226067
0.377643
-0.226256
0.348953
-0.22616
0.319528
-0.22176
0.29106
-0.215752
0.261602
-0.202957
0.233176
-0.186367
0.20513
-0.162649
0.178492
-0.133129
0.154329
-0.0994074
0.131651
-0.0604406
0.11231
-0.0220949
0.093083
0.0163285
0.0725985
0.0470486
0.0476831
0.0686301
0.020325
0.0779637
-0.00842183
0.0796159
-0.0386774
0.0766611
-0.0701393
0.0686485
-0.103564
0.058026
-0.137017
0.0420316
-0.172239
0.0241788
-0.206194
0.000527712
-0.241488
-0.0203867
-0.272742
-0.0422155
-0.300841
-0.0544701
-0.322327
-0.0597784
-0.339787
-0.0552338
-0.354588
-0.0475228
-0.368576
-0.0402352
-0.382871
-0.035168
-0.0334843
-0.396489
0.644271
-0.663607
0.625421
0.602272
0.579425
0.552982
0.527173
0.498831
0.471443
0.442494
0.41476
0.385645
0.358039
0.328231
0.30045
0.269849
0.24152
0.211827
0.18381
0.158428
0.133437
0.114404
0.0931551
0.0766051
0.0536067
0.029401
0.00248492
-0.0279862
-0.0545919
-0.0881948
-0.113992
-0.149829
-0.175087
-0.212326
-0.237356
-0.270836
-0.29298
-0.314006
-0.331285
-0.344639
-0.360713
-0.373943
-0.00338649
-0.351158
-0.0224154
-0.36884
-0.0414154
-0.384964
-0.0591319
-0.398044
-0.0744682
-0.406768
-0.0863326
-0.410095
-0.0939744
-0.408511
-0.0967819
-0.401873
-0.0949524
-0.390725
-0.0887158
-0.375595
-0.0788195
-0.357206
-0.0663578
-0.336371
-0.0520504
-0.314257
-0.0359921
-0.291763
-0.019593
-0.263738
-0.000140672
-0.235111
-0.16831
-0.00150566
-0.326887
-0.0200844
-0.341586
-0.0378662
-0.355049
-0.0543282
-0.36621
-0.06873
-0.374073
-0.0801904
-0.377836
-0.0882595
-0.377635
-0.0922692
-0.373615
-0.0921697
-0.365755
-0.0880982
-0.354433
-0.0803311
-0.34025
-0.0697301
-0.323427
-0.0570771
-0.305189
-0.0434037
-0.286144
-0.0277396
-0.263078
-0.0112917
-0.238666
-0.17051
0.00136671
-0.302891
-0.0165255
-0.31517
-0.0335616
-0.326402
-0.0492725
-0.335964
-0.0630704
-0.343061
-0.0742686
-0.347066
-0.0824886
-0.347879
-0.0873024
-0.345753
-0.0884339
-0.340566
-0.0858914
-0.332446
-0.0799161
-0.321785
-0.0709198
-0.308642
-0.0594618
-0.294087
-0.0466733
-0.278133
-0.0319204
-0.259296
-0.0164878
-0.238279
-0.174281
0.0057445
-0.278858
-0.0117813
-0.289452
-0.0281341
-0.299106
-0.0431115
-0.307407
-0.0563024
-0.313835
-0.067196
-0.317928
-0.0754349
-0.319487
-0.0807737
-0.318707
-0.0829221
-0.315555
-0.0817236
-0.310062
-0.0773442
-0.302322
-0.0699818
-0.292378
-0.0601445
-0.280994
-0.0484919
-0.268024
-0.0345974
-0.253051
-0.0197946
-0.234989
-0.178413
0.0104185
-0.255824
-0.00634109
-0.264984
-0.0220156
-0.273275
-0.0363446
-0.280549
-0.0490026
-0.286404
-0.0596112
-0.29048
-0.067816
-0.292603
-0.0734635
-0.292813
-0.0762964
-0.291218
-0.0761594
-0.287781
-0.0730941
-0.282426
-0.0671383
-0.27522
-0.0585821
-0.266685
-0.0480466
-0.256347
-0.0351098
-0.244827
-0.0210857
-0.229289
-0.181573
0.0158545
-0.233689
-0.000354844
-0.24167
-0.0153732
-0.24898
-0.0290755
-0.255439
-0.041225
-0.260801
-0.0515304
-0.2648
-0.0596903
-0.267311
-0.0655117
-0.268302
-0.0688576
-0.26786
-0.0695768
-0.265994
-0.0676046
-0.262565
-0.0629171
-0.257622
-0.0557123
-0.251481
-0.04621
-0.243655
-0.034121
-0.235278
-0.0207726
-0.221894
-0.182826
0.0210668
-0.212975
0.00580557
-0.219996
-0.00846896
-0.226372
-0.0215412
-0.232129
-0.0331894
-0.237057
-0.0431789
-0.240936
-0.0512602
-0.243689
-0.0571991
-0.245299
-0.0608959
-0.245748
-0.0622671
-0.245055
-0.0611961
-0.243139
-0.0576142
-0.240022
-0.0516533
-0.235837
-0.043237
-0.230319
-0.0323193
-0.22458
-0.0195454
-0.213477
-0.181893
0.0264549
-0.193765
0.0119841
-0.199866
-0.00151693
-0.205521
-0.0139235
-0.210675
-0.0250564
-0.215198
-0.0347073
-0.218925
-0.0426562
-0.221815
-0.0486969
-0.223864
-0.0526687
-0.225031
-0.0545306
-0.22524
-0.0541955
-0.224479
-0.0515743
-0.222791
-0.0467153
-0.220189
-0.039445
-0.216644
-0.0298565
-0.213015
-0.0179999
-0.204211
-0.179045
0.0312264
-0.176234
0.0178523
-0.181619
0.00523448
-0.186549
-0.00643694
-0.191145
-0.0169952
-0.195274
-0.0262588
-0.198804
-0.0340219
-0.201739
-0.0401018
-0.204072
-0.0443469
-0.205753
-0.0466356
-0.206694
-0.0469049
-0.206843
-0.0451371
-0.206216
-0.0412392
-0.204919
-0.0350847
-0.202972
-0.0267722
-0.201021
-0.0160904
-0.194296
-0.174448
0.0357248
-0.16052
0.023315
-0.16513
0.0116099
-0.169476
0.000725501
-0.173569
-0.00919654
-0.177316
-0.017992
-0.180622
-0.0254879
-0.183518
-0.0315226
-0.186
-0.0359657
-0.188002
-0.0386905
-0.18945
-0.0395661
-0.190313
-0.0384976
-0.190586
-0.0354606
-0.190319
-0.030379
-0.189599
-0.0234068
-0.188854
-0.0139982
-0.184027
-0.168386
0.039396
-0.146577
0.0281725
-0.150609
0.0174584
-0.154352
0.00741544
-0.15796
-0.00181597
-0.161331
-0.0100788
-0.164396
-0.0172189
-0.167195
-0.0231088
-0.169712
-0.0276408
-0.171873
-0.0306878
-0.173636
-0.0321333
-0.174974
-0.0318365
-0.175919
-0.0296753
-0.176515
-0.0256613
-0.176729
-0.0200238
-0.176783
-0.0119776
-0.173645
-0.161333
0.0425294
-0.134559
0.0323836
-0.13792
0.0226865
-0.14116
0.0135328
-0.144313
0.00504436
-0.147308
-0.00263112
-0.150115
-0.00936066
-0.152765
-0.0150339
-0.155229
-0.0195459
-0.157439
-0.0227749
-0.15938
-0.0246162
-0.161017
-0.0249558
-0.162404
-0.0237366
-0.163539
-0.0208596
-0.16444
-0.0163654
-0.165202
-0.0097631
-0.163335
-0.153427
0.0448072
-0.124293
0.0358862
-0.127169
0.0272453
-0.129887
0.0190157
-0.132597
0.0113172
-0.135225
0.00427962
-0.137755
-0.00198767
-0.140206
-0.00739243
-0.142537
-0.0118378
-0.144693
-0.015215
-0.146679
-0.0174244
-0.14846
-0.0183355
-0.150127
-0.0179062
-0.151601
-0.0160211
-0.15298
-0.0127387
-0.154196
-0.00764993
-0.153235
-0.14504
0.0464532
-0.115937
0.0386652
-0.118219
0.031106
-0.120498
0.0238406
-0.122785
0.0169687
-0.125043
0.0106012
-0.127271
0.00482442
-0.129468
-0.000281342
-0.131593
-0.00462252
-0.133609
-0.00809273
-0.13554
-0.0105919
-0.13735
-0.0120109
-0.139147
-0.012322
-0.140777
-0.0113646
-0.142479
-0.00928509
-0.143883
-0.00564237
-0.143571
-0.13649
0.047359
-0.109235
0.0407954
-0.111112
0.0343224
-0.112939
0.028028
-0.114815
0.0220074
-0.11671
0.0163437
-0.118616
0.0111028
-0.120516
0.00635721
-0.12238
0.00219574
-0.124191
-0.00129404
-0.125975
-0.00402097
-0.127706
-0.00590545
-0.129484
-0.00689916
-0.131128
-0.00687375
-0.132964
-0.00596826
-0.134361
-0.00376031
-0.134467
-0.128062
0.0477134
-0.104394
0.0423141
-0.105744
0.0369482
-0.107178
0.0316663
-0.108666
0.0265309
-0.110193
0.021604
-0.11175
0.0169396
-0.113315
0.0126012
-0.11487
0.00866558
-0.116414
0.0052036
-0.117969
0.00229494
-0.119522
-1.19542e-05
-0.121144
-0.00164496
-0.122684
-0.002544
-0.124456
-0.0027705
-0.125715
-0.00196833
-0.126029
-0.119964
0.0475544
-0.101114
0.0433767
-0.102135
0.039123
-0.103173
0.0348516
-0.104283
0.0306151
-0.105444
0.0264485
-0.106632
0.0223899
-0.107828
0.0184937
-0.109032
0.0148226
-0.110252
0.0114314
-0.111507
0.00838023
-0.112787
0.0056972
-0.114137
0.00346554
-0.115461
0.00167639
-0.116986
0.000379495
-0.118026
-0.000243631
-0.118285
-0.112345
0.0469933
-0.0996671
0.0440191
-0.100245
0.0409076
-0.100923
0.0376796
-0.101659
0.0343519
-0.102429
0.030952
-0.103218
0.0275151
-0.104018
0.024084
-0.104834
0.0207037
-0.105679
0.0174124
-0.106565
0.0142515
-0.107488
0.0112427
-0.108474
0.00845499
-0.109476
0.00583613
-0.110601
0.00350748
-0.111339
0.00147704
-0.111283
-0.105264
0.0461818
-0.0997517
0.0444067
-0.100058
0.0424096
-0.100384
0.0401994
-0.100747
0.0377807
-0.101121
0.0351637
-0.101493
0.0323713
-0.10187
0.0294316
-0.102263
0.0263696
-0.102681
0.0232037
-0.103131
0.0199549
-0.103611
0.0166342
-0.104139
0.0132796
-0.104694
0.00985845
-0.105315
0.00648645
-0.105641
0.0030376
-0.105025
-0.0989124
0.0451723
-0.101709
0.0446275
-0.101614
0.043769
-0.101582
0.04258
-0.101548
0.0410533
-0.101492
0.0391965
-0.101421
0.0370237
-0.101344
0.0345473
-0.101272
0.0317756
-0.10121
0.0287135
-0.10116
0.0253703
-0.101127
0.021741
-0.101113
0.0178515
-0.10113
0.0136388
-0.101128
0.00924875
-0.100954
0.0044458
-0.0995815
-0.0934611
0.0441424
-0.105253
0.0448221
-0.104934
0.0450819
-0.104519
0.0449048
-0.104067
0.0442857
-0.103572
0.043216
-0.103035
0.0416927
-0.102472
0.0397101
-0.10189
0.0372577
-0.101289
0.034324
-0.10067
0.0308994
-0.100041
0.0269699
-0.0993968
0.022536
-0.098766
0.0175586
-0.0980577
0.0121326
-0.0972543
0.00597964
-0.0949543
-0.0887884
0.0430293
-0.110794
0.0449181
-0.110047
0.0462967
-0.109235
0.047136
-0.108347
0.0474129
-0.10738
0.0471107
-0.106344
0.0462105
-0.10525
0.0446879
-0.104101
0.0425171
-0.102894
0.0396744
-0.101633
0.0361387
-0.100327
0.0318863
-0.0989685
0.0269051
-0.0975966
0.0211428
-0.0960803
0.0147048
-0.0945592
0.00731642
-0.0912512
-0.0850838
0.04192
-0.11801
0.0450195
-0.117017
0.0475011
-0.115773
0.0493379
-0.114421
0.050501
-0.112956
0.050951
-0.111376
0.0506494
-0.109694
0.0495575
-0.10791
0.0476375
-0.106025
0.0448537
-0.104041
0.0411739
-0.10197
0.0365694
-0.09981
0.0310184
-0.0976045
0.0244944
-0.0952174
0.017074
-0.0928904
0.00861404
-0.0886215
-0.0823655
0.0407337
-0.127408
0.0450502
-0.125926
0.0486564
-0.124226
0.0515066
-0.122373
0.053546
-0.120353
0.0547229
-0.118165
0.054985
-0.115821
0.0542803
-0.113322
0.0525628
-0.110671
0.0497949
-0.107882
0.0459443
-0.104969
0.0409834
-0.101933
0.0348861
-0.0988196
0.027665
-0.09553
0.0192928
-0.0922647
0.0100219
-0.0873003
-0.0804862
0.0394923
-0.13865
0.0450564
-0.136888
0.049785
-0.134674
0.0536335
-0.132267
0.0565354
-0.12963
0.0584172
-0.126756
0.0592173
-0.123667
0.058881
-0.12037
0.0573574
-0.116872
0.0546011
-0.113189
0.0505786
-0.109348
0.0452806
-0.105372
0.0386841
-0.101291
0.030817
-0.0970578
0.0216098
-0.0927726
0.0112813
-0.086999
-0.0795347
0.0381404
-0.152333
0.0449412
-0.149981
0.0508166
-0.147225
0.0556814
-0.1442
0.0594477
-0.140865
0.0620395
-0.137223
0.0633839
-0.1333
0.0634218
-0.129114
0.0621116
-0.124688
0.0594091
-0.120036
0.0552741
-0.115185
0.0496691
-0.110162
0.0425737
-0.105011
0.0339891
-0.0997027
0.0239325
-0.0943541
0.0125636
-0.0876689
-0.0794005
0.0365421
-0.168065
0.0446599
-0.165369
0.0517045
-0.161983
0.0575982
-0.158261
0.0622468
-0.154145
0.0655716
-0.149653
0.0674918
-0.144805
0.067937
-0.139631
0.0668394
-0.134153
0.0641541
-0.128406
0.0598464
-0.122428
0.0538941
-0.116252
0.0462854
-0.109933
0.0370246
-0.103455
0.0261383
-0.0969559
0.0137837
-0.0892667
-0.0800208
0.0346598
-0.186536
0.0440749
-0.183107
0.0523326
-0.17906
0.0592942
-0.174552
0.0648689
-0.16957
0.0689348
-0.1641
0.0714028
-0.158194
0.0722019
-0.151895
0.0712744
-0.145238
0.0685771
-0.13827
0.0640804
-0.131039
0.0577711
-0.123593
0.0496487
-0.115997
0.0397357
-0.108256
0.0280786
-0.100527
0.0148232
-0.0917385
-0.0814068
0.0322452
-0.207246
0.0430684
-0.203358
0.0525739
-0.198539
0.0606316
-0.193142
0.0671097
-0.187152
0.0718895
-0.180563
0.0748776
-0.173451
0.0760009
-0.165875
0.0752039
-0.157888
0.0724513
-0.149551
0.067728
-0.14093
0.0610405
-0.132091
0.0524113
-0.123112
0.0418956
-0.114027
0.0295616
-0.105004
0.0155737
-0.0950648
-0.0836251
0.029251
-0.230947
0.0414622
-0.226126
0.052233
-0.220456
0.0613815
-0.214038
0.0687511
-0.20688
0.07422
-0.199008
0.0776891
-0.190515
0.0790854
-0.181486
0.0783636
-0.171994
0.075505
-0.162125
0.070518
-0.151967
0.0634396
-0.141612
0.0543295
-0.131156
0.0432895
-0.120671
0.0304196
-0.11032
0.0159468
-0.0992482
-0.0867707
0.025329
-0.256938
0.0390306
-0.251497
0.0510877
-0.244809
0.0613248
-0.237207
0.0695689
-0.228698
0.0756903
-0.219346
0.07959
-0.209272
0.0812003
-0.198585
0.080492
-0.187394
0.0774727
-0.175815
0.0721862
-0.163969
0.0647129
-0.151978
0.0551661
-0.139969
0.043708
-0.128057
0.0304971
-0.116398
0.0158575
-0.104299
-0.0909587
0.0204562
-0.286003
0.0356014
-0.279366
0.0489421
-0.271528
0.0602549
-0.262559
0.0693433
-0.252487
0.0760702
-0.24143
0.0803387
-0.229543
0.0820937
-0.21697
0.0813304
-0.203864
0.0780935
-0.190386
0.0724757
-0.176699
0.0646172
-0.162967
0.0547036
-0.149356
0.0429758
-0.136035
0.0296791
-0.123157
0.0152466
-0.110215
-0.0962952
0.0142627
-0.317197
0.0309627
-0.309726
0.0456142
-0.300517
0.057988
-0.289948
0.0678827
-0.278067
0.0751572
-0.265046
0.0797205
-0.251081
0.0815396
-0.236368
0.080645
-0.221116
0.0771312
-0.205542
0.071155
-0.189864
0.0629341
-0.174304
0.0527454
-0.15908
0.0409272
-0.144417
0.0278388
-0.130488
0.014047
-0.116989
-0.102886
0.00677608
-0.351293
0.0249523
-0.342326
0.0409042
-0.331584
0.054325
-0.319168
0.0649876
-0.305196
0.0727487
-0.289915
0.0775297
-0.273576
0.0793287
-0.256442
0.0782239
-0.238793
0.0743748
-0.220921
0.0680207
-0.203115
0.0594769
-0.185666
0.0491314
-0.168861
0.0374389
-0.152987
0.0248981
-0.138259
0.0122165
-0.124579
-0.110814
-0.00229258
-0.387133
0.0174487
-0.377017
0.0346943
-0.364477
0.0491223
-0.349926
0.0604973
-0.333556
0.0686696
-0.315685
0.0735791
-0.296645
0.0752659
-0.276786
0.0738698
-0.256479
0.0696311
-0.236106
0.0628893
-0.216048
0.054078
-0.196684
0.0437179
-0.178383
0.0324027
-0.161502
0.0207882
-0.146317
0.0097174
-0.13292
-0.120144
-0.0128135
-0.425446
0.00844882
-0.413454
0.0269741
-0.398877
0.0423755
-0.381875
0.0543952
-0.362753
0.0628869
-0.341927
0.0678173
-0.319826
0.069279
-0.296914
0.0674913
-0.273677
0.0627967
-0.250609
0.0556565
-0.228202
0.0466428
-0.20694
0.0364267
-0.187288
0.0257591
-0.169681
0.0154679
-0.154474
0.0065404
-0.141923
-0.130904
-0.0250689
-0.464789
-0.0022214
-0.45134
0.0176071
-0.43444
0.0339672
-0.414626
0.0465897
-0.392365
0.0553247
-0.368172
0.0601803
-0.342616
0.0613157
-0.3163
0.0590447
-0.289847
0.0538325
-0.263894
0.0462864
-0.239067
0.0371432
-0.215975
0.0272469
-0.195187
0.017523
-0.177224
0.00897576
-0.162523
0.00272736
-0.151469
-0.143049
-0.0388006
-0.505836
-0.0145067
-0.490115
0.00650631
-0.470627
0.0237451
-0.447677
0.0368754
-0.421866
0.0457533
-0.39388
0.0504274
-0.364457
0.051134
-0.33437
0.0483008
-0.304421
0.0425352
-0.275412
0.0346103
-0.24813
0.025445
-0.223326
0.0160754
-0.201689
0.00762313
-0.183832
0.00128091
-0.170273
-0.00172726
-0.161444
-0.156528
-0.0540849
-0.546932
-0.0282623
-0.529397
-0.00604953
-0.506987
0.0119937
-0.480485
0.025535
-0.450691
0.0344432
-0.418462
0.038799
-0.384726
0.0389336
-0.350484
0.0354101
-0.316752
0.0290078
-0.28454
0.0206988
-0.254822
0.0116115
-0.228505
0.00298809
-0.206398
-0.00385445
-0.189203
-0.00755871
-0.177496
-0.00679612
-0.171703
-0.171273
-0.0705528
-0.588823
-0.0432562
-0.568627
-0.0198135
-0.543051
-0.000893263
-0.512629
0.0130861
-0.478372
0.0219846
-0.441383
0.0259477
-0.402845
0.0254116
-0.364025
0.0210922
-0.326204
0.0139628
-0.290638
0.00521867
-0.25852
-0.00376993
-0.230937
-0.0115152
-0.208831
-0.016472
-0.19298
-0.0171448
-0.183939
-0.0122082
-0.181997
-0.186981
-0.35977
0.0641038
0.36945
-0.350035
0.0564181
-0.338959
0.0465637
-0.327624
0.0345786
-0.314901
0.0204923
-0.30174
0.00450608
-0.287248
-0.0132736
-0.2722
-0.032578
-0.255889
-0.0532289
-0.23893
-0.0749018
-0.220794
-0.0973237
-0.201957
-0.120189
-0.182019
-0.143163
-0.161321
-0.165981
-0.139588
-0.188289
-0.117021
-0.209858
-0.0934781
-0.230363
-0.0690164
-0.249598
-0.0436331
-0.267306
-0.0172546
-0.283275
0.0100094
-0.297378
0.0383202
-0.309352
0.0674361
-0.319225
0.0974674
-0.326783
0.128237
-0.33195
0.159777
-0.334647
0.191929
-0.334864
0.224498
-0.332633
0.257462
-0.327956
0.290365
-0.320941
0.323356
-0.311647
0.355712
-0.300266
0.387763
-0.286934
0.41856
-0.271929
0.448605
-0.255456
0.476714
-0.237795
0.503617
-0.219334
0.528035
-0.200335
0.550863
-0.181171
0.570756
-0.162124
-0.143536
-0.343675
0.0485851
0.351425
-0.335135
0.041856
-0.325713
0.03289
-0.315342
0.0217273
-0.304008
0.00843377
-0.291659
-0.00684572
-0.278308
-0.023952
-0.263952
-0.0426445
-0.248605
-0.0627396
-0.232272
-0.0839249
-0.214962
-0.105932
-0.196704
-0.128437
-0.177484
-0.151151
-0.157339
-0.173757
-0.13624
-0.195969
-0.114216
-0.2175
-0.0912395
-0.238081
-0.0673207
-0.25747
-0.0424514
-0.27543
-0.0166154
-0.291761
0.0101511
-0.306288
0.0378751
-0.31882
0.0664889
-0.3293
0.0959599
-0.33756
0.126211
-0.343492
0.157157
-0.347027
0.188692
-0.348149
0.220649
-0.346848
0.252876
-0.343155
0.285139
-0.337116
0.317239
-0.328835
0.348887
-0.318428
0.379858
-0.3061
0.409815
-0.29202
0.438475
-0.276438
0.465573
-0.259646
0.490818
-0.241982
0.513954
-0.223722
0.534748
-0.205223
0.553024
-0.186785
-0.168723
-0.325845
0.0305049
0.331964
-0.318785
0.0248858
-0.310725
0.016981
-0.301616
0.00682052
-0.29144
-0.00551735
-0.280176
-0.0199049
-0.267835
-0.036166
-0.254424
-0.0540764
-0.239967
-0.0734414
-0.22447
-0.0939765
-0.207966
-0.11539
-0.190467
-0.137382
-0.171996
-0.159654
-0.152562
-0.181906
-0.132174
-0.20385
-0.110835
-0.225205
-0.0885427
-0.245709
-0.0652988
-0.265117
-0.0410983
-0.283201
-0.0159421
-0.299759
0.0101519
-0.314604
0.0371855
-0.327573
0.0651014
-0.33856
0.0938523
-0.34742
0.123365
-0.354032
0.153547
-0.358325
0.184273
-0.360266
0.215391
-0.359837
0.246715
-0.357053
0.278033
-0.351951
0.309101
-0.344617
0.339659
-0.335164
0.369416
-0.32377
0.398061
-0.310588
0.42529
-0.295871
0.450813
-0.279913
0.474308
-0.263
0.49551
-0.24544
0.514159
-0.227558
0.530065
-0.209686
-0.1921
-0.306893
0.00990448
0.311481
-0.301239
0.00552253
-0.294487
-0.00117599
-0.286599
-0.0101831
-0.277564
-0.021414