/*--------------------------------*- C++ -*----------------------------------*\
  =========                 |
  \\      /  F ield         | OpenFOAM: The Open Source CFD Toolbox
   \\    /   O peration     | Website:  https://openfoam.org
    \\  /    A nd           | Version:  6
     \\/     M anipulation  |
\*---------------------------------------------------------------------------*/
FoamFile
{
    version     2.0;
    format      ascii;
    class       volScalarField;
    location    "3.77";
    object      p;
}
// * * * * * * * * * * * * * * * * * * * * * * * * * * * * * * * * * * * * * //

dimensions      [1 -1 -2 0 0 0 0];

internalField   nonuniform List<scalar> 
10000
(
1
1
1
1
1
1
1
1
1
1
1
1
1
1
1
1
1
1
1
1
1
1
1
1
1
1
1
1
1
1
1
1
1
1
1
1
1
1
1
1
1
1
1
1
1
1
0.999997
0.999992
0.999985
0.999975
0.999963
0.999948
0.999933
0.999918
0.999907
0.999902
0.999906
0.999921
0.999948
0.999987
1.00004
1.00009
1.00016
1.00022
1.00029
1.00035
1.00039
1.00043
1.00045
1.00046
1.00046
1.00044
1.00041
1.00038
1.00034
1.0003
1.00026
1.00021
1.00017
1.00014
1.00011
1.00008
1.00006
1.00004
1.00003
1.00002
1.00001
1.00001
1
1
1
1
1
1
1
1
1
1
1
1
1
1
1
1
1
1
1
1
1
1
1
1
1
1
1
1
1
1
1
1
1
1
1
1
1
1
1
1
1
1
1
1
1
1
1
1
1
1
1
1
1
1
1
1
1
1
0.999997
0.999991
0.999982
0.99997
0.999955
0.999938
0.999922
0.999909
0.999904
0.999909
0.999928
0.999964
1.00002
1.00009
1.00017
1.00026
1.00036
1.00046
1.00055
1.00063
1.00068
1.00072
1.00074
1.00074
1.00072
1.00068
1.00063
1.00057
1.0005
1.00043
1.00037
1.0003
1.00024
1.00019
1.00015
1.00011
1.00008
1.00005
1.00003
1.00002
1.00001
1.00001
1
1
0.999999
0.999999
0.999999
0.999999
0.999999
1
1
1
1
1
1
1
1
1
1
1
1
1
1
1
1
1
1
1
1
1
1
1
1
1
1
1
1
1
1
1
1
1
1
1
1
1
1
1
1
1
1
1
1
1
1
1
1
1
1
1
0.999998
0.99999
0.999979
0.999965
0.999948
0.999931
0.999917
0.999911
0.999919
0.999944
0.999992
1.00007
1.00016
1.00028
1.00042
1.00057
1.00072
1.00086
1.00099
1.00109
1.00116
1.0012
1.00121
1.00118
1.00113
1.00105
1.00096
1.00085
1.00074
1.00063
1.00053
1.00043
1.00034
1.00027
1.0002
1.00015
1.0001
1.00007
1.00004
1.00003
1.00001
1.00001
1
1
0.999999
0.999998
0.999998
0.999999
0.999999
0.999999
0.999999
1
1
1
1
1
1
1
1
1
1
1
1
1
1
1
1
1
1
1
1
1
1
1
1
1
1
1
1
1
1
1
1
1
1
1
1
1
1
1
1
1
1
1
1
1.00001
1.00001
1.00001
1.00001
1
1
0.999991
0.999978
0.999962
0.999946
0.999931
0.999927
0.999937
0.99997
1.00003
1.00013
1.00027
1.00044
1.00063
1.00085
1.00108
1.00131
1.00152
1.00169
1.00183
1.00192
1.00196
1.00194
1.00188
1.00177
1.00163
1.00147
1.00129
1.00111
1.00094
1.00077
1.00062
1.00049
1.00037
1.00028
1.0002
1.00014
1.00009
1.00006
1.00003
1.00002
1.00001
1
0.999998
0.999997
0.999997
0.999997
0.999998
0.999998
0.999999
0.999999
0.999999
1
1
1
1
1
1
1
1
1
1
1
1
1
1
1
1
1
1
1
1
1
1
1
1
1
1
1
1
1
1
1
1
1
1
1
1
1
1
1
1
1
1
1.00001
1.00001
1.00001
1.00001
1.00001
1.00001
1
0.999994
0.99998
0.999965
0.999952
0.999949
0.999963
1
1.00008
1.00021
1.00039
1.00062
1.0009
1.00122
1.00156
1.00191
1.00224
1.00254
1.00279
1.00297
1.00308
1.00311
1.00306
1.00293
1.00275
1.00251
1.00224
1.00196
1.00167
1.00139
1.00113
1.0009
1.0007
1.00053
1.00039
1.00028
1.00019
1.00013
1.00008
1.00004
1.00002
1.00001
1
0.999996
0.999995
0.999995
0.999995
0.999996
0.999997
0.999998
0.999999
0.999999
0.999999
1
1
1
1
1
1
1
1
1
1
1
1
1
1
1
1
1
1
1
1
1
1
1
1
1
1
1
1
1
1
1
1
1
1
1
1
1
1
1
1
1.00001
1.00001
1.00001
1.00001
1.00002
1.00002
1.00002
1.00001
1
0.999989
0.999978
0.999976
0.999993
1.00004
1.00014
1.0003
1.00053
1.00084
1.00122
1.00166
1.00216
1.00267
1.00318
1.00366
1.00408
1.00442
1.00466
1.00479
1.00481
1.0047
1.0045
1.0042
1.00382
1.0034
1.00295
1.0025
1.00207
1.00168
1.00132
1.00102
1.00076
1.00056
1.00039
1.00027
1.00017
1.00011
1.00006
1.00003
1.00001
0.999998
0.999993
0.999991
0.999991
0.999993
0.999994
0.999996
0.999997
0.999998
0.999999
0.999999
0.999999
1
1
1
1
1
1
1
1
1
1
1
1
1
1
1
1
1
1
1
1
1
1
1
1
1
1
1
1
1
1
1
1
1
1
1
1
1
1
1.00001
1.00001
1.00001
1.00002
1.00002
1.00003
1.00003
1.00003
1.00002
1.00001
1.00001
1.00001
1.00003
1.00009
1.0002
1.00039
1.00067
1.00106
1.00156
1.00216
1.00284
1.00357
1.00432
1.00505
1.00573
1.0063
1.00676
1.00708
1.00723
1.00722
1.00705
1.00673
1.00628
1.00572
1.00508
1.00441
1.00373
1.00308
1.00248
1.00195
1.00149
1.00111
1.0008
1.00056
1.00038
1.00024
1.00015
1.00008
1.00004
1.00001
0.999995
0.999989
0.999986
0.999987
0.999989
0.999991
0.999994
0.999995
0.999997
0.999998
0.999999
0.999999
0.999999
1
1
1
1
1
1
1
1
1
1
1
1
1
1
1
1
1
1
1
1
1
1
1
1
1
1
1
1
1
1
1
1
1
1
1
1
1
1.00001
1.00001
1.00002
1.00002
1.00003
1.00004
1.00004
1.00004
1.00004
1.00004
1.00004
1.00007
1.00013
1.00025
1.00047
1.0008
1.00128
1.0019
1.00267
1.00358
1.00457
1.00563
1.00668
1.00769
1.0086
1.00937
1.00996
1.01036
1.01055
1.01051
1.01026
1.0098
1.00916
1.00837
1.00746
1.00649
1.0055
1.00454
1.00366
1.00287
1.00219
1.00162
1.00117
1.00081
1.00054
1.00035
1.00021
1.00011
1.00005
1.00001
0.999992
0.999983
0.99998
0.999981
0.999984
0.999987
0.999991
0.999993
0.999995
0.999997
0.999998
0.999999
0.999999
0.999999
1
1
1
1
1
1
1
1
1
1
1
1
1
1
1
1
1
1
1
1
1
1
1
1
1
1
1
1
1
1
1
1
1
1
1
1.00001
1.00001
1.00002
1.00002
1.00003
1.00004
1.00005
1.00006
1.00006
1.00007
1.00008
1.0001
1.00017
1.0003
1.00053
1.00091
1.00146
1.00221
1.00317
1.00432
1.00562
1.00703
1.00848
1.00991
1.01123
1.01241
1.01338
1.01412
1.0146
1.01481
1.01475
1.01441
1.01381
1.01297
1.01191
1.01069
1.00935
1.00797
1.00661
1.00534
1.00419
1.0032
1.00237
1.0017
1.00118
1.00079
1.0005
1.0003
1.00016
1.00007
1.00002
0.99999
0.999976
0.999972
0.999974
0.999977
0.999982
0.999987
0.99999
0.999993
0.999996
0.999997
0.999998
0.999999
0.999999
1
1
1
1
1
1
1
1
1
1
1
1
1
1
1
1
1
1
1
1
1
1
1
1
1
1
1
1
1
1
1
1
1
1
1.00001
1.00001
1.00002
1.00002
1.00003
1.00005
1.00006
1.00007
1.00008
1.0001
1.00011
1.00014
1.0002
1.00033
1.00058
1.00098
1.00159
1.00246
1.0036
1.005
1.00664
1.00846
1.01036
1.01226
1.01408
1.01574
1.01717
1.01832
1.01918
1.01973
1.01995
1.01986
1.01945
1.01873
1.01771
1.0164
1.01485
1.01312
1.01128
1.00943
1.00767
1.00606
1.00464
1.00345
1.00249
1.00173
1.00116
1.00074
1.00044
1.00024
1.00011
1.00003
0.999989
0.999969
0.999963
0.999964
0.999969
0.999975
0.999981
0.999987
0.999991
0.999994
0.999996
0.999998
0.999998
0.999999
0.999999
1
1
1
1
1
1
1
1
1
1
1
1
1
1
1
1
1
1
1
1
1
1
1
1
1
1
1
1
1
1
1
1
1
1.00001
1.00001
1.00002
1.00003
1.00005
1.00006
1.00008
1.0001
1.00012
1.00014
1.00017
1.00024
1.00036
1.0006
1.00101
1.00166
1.00261
1.00392
1.00557
1.00756
1.00979
1.01219
1.01463
1.01699
1.01917
1.02109
1.02269
1.02395
1.02485
1.0254
1.02562
1.02551
1.02507
1.0243
1.02318
1.02171
1.0199
1.01781
1.01551
1.01313
1.01079
1.00859
1.00664
1.00497
1.0036
1.00251
1.00169
1.00108
1.00066
1.00036
1.00018
1.00006
0.999995
0.999963
0.999952
0.999953
0.999959
0.999967
0.999975
0.999982
0.999987
0.999992
0.999995
0.999997
0.999997
0.999998
0.999999
0.999999
1
1
1
1
1
1
1
1
1
1
1
1
1
1
1
1
1
1
1
1
1
1
1
1
1
1
1
1
1
1
1
1.00001
1.00001
1.00002
1.00003
1.00004
1.00006
1.00008
1.00011
1.00013
1.00016
1.0002
1.00026
1.00038
1.0006
1.001
1.00166
1.00267
1.00409
1.00597
1.00828
1.01095
1.01386
1.01686
1.01979
1.02251
1.02491
1.02692
1.02852
1.0297
1.03051
1.03098
1.03114
1.03101
1.0306
1.0299
1.02885
1.02741
1.02554
1.02324
1.02059
1.01771
1.01477
1.01192
1.00931
1.00704
1.00514
1.00362
1.00245
1.00159
1.00097
1.00055
1.00028
1.00011
1.00001
0.999961
0.999942
0.99994
0.999946
0.999956
0.999967
0.999976
0.999983
0.999989
0.999993
0.999995
0.999996
0.999998
0.999999
0.999999
1
1
1
1
1
1
1
1
1
1
1
1
1
1
1
1
1
1
1
1
1
1
1
1
1
1
1
1
1
1
1.00001
1.00001
1.00002
1.00002
1.00004
1.00006
1.00008
1.00011
1.00014
1.00018
1.00022
1.00028
1.00039
1.0006
1.00097
1.0016
1.00261
1.0041
1.00615
1.00875
1.01183
1.01525
1.01881
1.02231
1.02555
1.02839
1.03072
1.03254
1.03385
1.03472
1.03523
1.03547
1.0355
1.03536
1.03507
1.03459
1.03385
1.03274
1.03113
1.02896
1.02622
1.02303
1.01957
1.01607
1.01275
1.00976
1.00721
1.00514
1.00352
1.00231
1.00143
1.00083
1.00044
1.00019
1.00004
0.999966
0.999934
0.999927
0.999933
0.999944
0.999957
0.999968
0.999978
0.999985
0.99999
0.999994
0.999995
0.999997
0.999998
0.999999
0.999999
1
1
1
1
1
1
1
1
1
1
1
1
1
1
1
1
1
1
1
1
1
1
1
1
1
1
1
1
1
1.00001
1.00001
1.00002
1.00003
1.00005
1.00007
1.00011
1.00014
1.00018
1.00023
1.0003
1.0004
1.00058
1.00091
1.00149
1.00246
1.00395
1.00609
1.00891
1.01235
1.01626
1.02038
1.02444
1.02817
1.03137
1.03391
1.03576
1.03697
1.03763
1.03788
1.03786
1.03771
1.03753
1.03738
1.03727
1.03719
1.03702
1.0366
1.0357
1.03413
1.03178
1.02867
1.02497
1.02096
1.01695
1.0132
1.0099
1.00715
1.00496
1.0033
1.00208
1.00124
1.00067
1.00031
1.0001
0.999985
0.999931
0.999915
0.999918
0.99993
0.999945
0.999959
0.999971
0.99998
0.999987
0.999992
0.999993
0.999996
0.999998
0.999999
0.999999
1
1
1
1
1
1
1
1
1
1
1
1
1
1
1
1
1
1
1
1
1
1
1
1
1
1
1
1
1
1.00001
1.00002
1.00003
1.00004
1.00007
1.00009
1.00013
1.00018
1.00023
1.0003
1.0004
1.00055
1.00084
1.00135
1.00223
1.00366
1.00579
1.00873
1.01246
1.01679
1.02145
1.02606
1.03026
1.03376
1.03639
1.03811
1.03897
1.03912
1.03877
1.03811
1.03736
1.03669
1.03622
1.03603
1.03616
1.03659
1.03721
1.03782
1.0381
1.0377
1.03635
1.03392
1.03048
1.02631
1.0218
1.01733
1.01324
1.00972
1.00685
1.00462
1.00297
1.00181
1.00102
1.00051
1.0002
1.00002
0.999938
0.999906
0.999904
0.999915
0.999932
0.999949
0.999963
0.999975
0.999983
0.999989
0.999991
0.999995
0.999997
0.999998
0.999999
0.999999
1
1
1
1
1
1
1
1
1
1
1
1
1
1
1
1
1
1
1
1
1
1
1
1
1
1
1
1.00001
1.00001
1.00002
1.00003
1.00005
1.00008
1.00012
1.00017
1.00022
1.00029
1.00038
1.00052
1.00076
1.00119
1.00196
1.00326
1.00529
1.00823
1.01211
1.01681
1.02196
1.0271
1.03176
1.03554
1.03818
1.03962
1.03994
1.03934
1.03808
1.03645
1.03471
1.03311
1.03184
1.03104
1.0308
1.03116
1.03213
1.03363
1.03545
1.03725
1.03856
1.03887
1.03784
1.03535
1.03159
1.02698
1.02202
1.0172
1.01287
1.00923
1.00634
1.00415
1.00258
1.00149
1.00078
1.00034
1.00009
0.999961
0.999905
0.999892
0.9999
0.999918
0.999937
0.999954
0.999968
0.999979
0.999986
0.999989
0.999993
0.999996
0.999998
0.999999
0.999999
1
1
1
1
1
1
1
1
1
1
1
1
1
1
1
1
1
1
1
1
1
1
1
1
1
1
1
1.00001
1.00001
1.00003
1.00004
1.00007
1.0001
1.00015
1.00021
1.00028
1.00037
1.00049
1.00069
1.00104
1.00168
1.0028
1.00464
1.00744
1.01134
1.01626
1.02184
1.02751
1.03266
1.03673
1.03937
1.04047
1.04014
1.03862
1.03626
1.03343
1.03045
1.02763
1.02521
1.02337
1.02224
1.02193
1.02247
1.0239
1.02619
1.0292
1.03261
1.03589
1.03838
1.03945
1.0387
1.0361
1.03199
1.02695
1.02163
1.01656
1.01212
1.00848
1.00566
1.00359
1.00214
1.00117
1.00056
1.0002
1.00001
0.999914
0.999884
0.999887
0.999903
0.999925
0.999945
0.999961
0.999974
0.999983
0.999987
0.999992
0.999995
0.999997
0.999998
0.999999
1
1
1
1
1
1
1
1
1
1
1
1
1
1
1
1
1
1
1
1
1
1
1
1
1
1
1.00001
1.00001
1.00002
1.00003
1.00005
1.00008
1.00012
1.00018
1.00025
1.00034
1.00045
1.00062
1.00091
1.00142
1.00234
1.00392
1.00646
1.01019
1.01516
1.02105
1.02724
1.03292
1.03737
1.04008
1.04088
1.03988
1.0374
1.03386
1.02973
1.02542
1.02127
1.01754
1.01446
1.01218
1.0108
1.0104
1.01103
1.01276
1.01561
1.01954
1.02435
1.02954
1.03437
1.038
1.03968
1.03904
1.0362
1.03168
1.02625
1.02065
1.01547
1.01105
1.00752
1.00487
1.00298
1.00169
1.00086
1.00036
1.00008
0.99994
0.999884
0.999876
0.99989
0.999912
0.999934
0.999953
0.999968
0.999979
0.999984
0.99999
0.999994
0.999997
0.999998
0.999999
0.999999
1
1
1
1
1
1
1
1
1
1
1
1
1
1
1
1
1
1
1
1
1
1
1
1
1
1.00001
1.00001
1.00002
1.00004
1.00006
1.0001
1.00015
1.00022
1.0003
1.0004
1.00055
1.00078
1.00119
1.00191
1.00321
1.00538
1.00877
1.01357
1.01961
1.02625
1.03252
1.03747
1.04041
1.04106
1.0395
1.03612
1.03144
1.02603
1.0204
1.01495
1.00997
1.00568
1.00222
0.999691
0.998158
0.997672
0.998292
1.0001
1.00319
1.00765
1.01339
1.02008
1.02704
1.03328
1.03777
1.03974
1.03893
1.03566
1.03068
1.02491
1.01916
1.01401
1.00974
1.00644
1.00403
1.00236
1.00126
1.00058
1.00019
0.999987
0.999896
0.999871
0.999878
0.999899
0.999923
0.999945
0.999962
0.999975
0.999981
0.999988
0.999993
0.999996
0.999998
0.999999
0.999999
1
1
1
1
1
1
1
1
1
1
1
1
1
1
1
1
1
1
1
1
1
1
1
1
1
1.00001
1.00001
1.00003
1.00005
1.00008
1.00012
1.00018
1.00025
1.00035
1.00048
1.00067
1.00098
1.00154
1.00256
1.00433
1.00724
1.01163
1.01755
1.02449
1.03139
1.03702
1.04042
1.04115
1.03925
1.03514
1.02946
1.02288
1.01602
1.00937
1.00328
0.997945
0.993485
0.989953
0.987383
0.985798
0.985226
0.985725
0.987406
0.990429
0.994964
1.00109
1.00867
1.01717
1.02567
1.03295
1.03786
1.03968
1.03835
1.03448
1.02902
1.02301
1.01726
1.01228
1.0083
1.00531
1.0032
1.00178
1.00088
1.00035
1.00006
0.999923
0.999873
0.99987
0.999888
0.999912
0.999936
0.999955
0.99997
0.999978
0.999986
0.999991
0.999995
0.999997
0.999998
0.999999
1
1
1
1
1
1
1
1
1
1
1
1
1
1
1
1
1
1
1
1
1
1
1
1
1.00001
1.00001
1.00002
1.00003
1.00006
1.00009
1.00014
1.00021
1.0003
1.00041
1.00057
1.00082
1.00124
1.002
1.00337
1.00574
1.00953
1.01503
1.022
1.02945
1.0359
1.04006
1.04121
1.03929
1.03474
1.02826
1.02068
1.01273
1.005
0.997915
0.991716
0.986493
0.982242
0.978921
0.976492
0.974933
0.974252
0.974518
0.975874
0.97854
0.98277
0.988778
0.996607
1.00596
1.01606
1.02569
1.03346
1.0382
1.03938
1.03724
1.03266
1.02678
1.02066
1.01507
1.01042
1.00682
1.00421
1.00242
1.00127
1.00056
1.00017
0.999969
0.999886
0.999867
0.999879
0.999902
0.999927
0.999949
0.999965
0.999974
0.999984
0.99999
0.999994
0.999997
0.999998
0.999999
0.999999
1
1
1
1
1
1
1
1
1
1
1
1
1
1
1
1
1
1
1
1
1
1
1
1.00001
1.00001
1.00002
1.00004
1.00007
1.0001
1.00016
1.00024
1.00034
1.00047
1.00067
1.00099
1.00155
1.00257
1.00439
1.00748
1.01228
1.0189
1.02665
1.03399
1.0392
1.04117
1.03965
1.03501
1.02804
1.01966
1.01076
1.00206
0.994091
0.987146
0.981339
0.976627
0.972883
0.96997
0.967789
0.966281
0.965445
0.965362
0.966215
0.968288
0.971914
0.97741
0.984972
0.994511
1.00549
1.01682
1.02704
1.03464
1.03859
1.03868
1.03551
1.03022
1.02405
1.01801
1.01274
1.00853
1.00539
1.00319
1.00174
1.00084
1.00031
1.00004
0.999912
0.999871
0.999873
0.999894
0.999919
0.999942
0.999961
0.999971
0.999982
0.999989
0.999993
0.999996
0.999998
0.999999
0.999999
1
1
1
1
1
1
1
1
1
1
1
1
1
1
1
1
1
1
1
1
1
1
1
1.00001
1.00001
1.00003
1.00004
1.00008
1.00012
1.00018
1.00027
1.00039
1.00054
1.00079
1.00119
1.00192
1.00327
1.00564
1.00956
1.01544
1.02306
1.03112
1.03761
1.04084
1.04019
1.03592
1.02884
1.01994
1.01025
1.00067
0.991855
0.984206
0.977887
0.97286
0.968932
0.965857
0.963424
0.961499
0.960015
0.958968
0.958444
0.95866
0.959959
0.962761
0.967475
0.974411
0.983647
0.994868
1.00721
1.01927
1.02937
1.03608
1.03868
1.03736
1.03311
1.02723
1.02097
1.0152
1.01041
1.00673
1.00409
1.00231
1.00117
1.0005
1.00013
0.999953
0.999884
0.999873
0.999888
0.999912
0.999936
0.999956
0.999968
0.999979
0.999987
0.999992
0.999996
0.999997
0.999999
0.999999
1
1
1
1
1
1
1
1
1
1
1
1
1
1
1
1
1
1
1
1
1
1
1
1.00001
1.00002
1.00003
1.00005
1.00009
1.00014
1.0002
1.0003
1.00043
1.00062
1.00091
1.00144
1.00238
1.00411
1.00713
1.01199
1.01894
1.02726
1.035
1.0399
1.04067
1.0373
1.03056
1.02151
1.01125
1.00087
0.991201
0.982803
0.97594
0.970606
0.966584
0.96353
0.961097
0.959049
0.957276
0.955749
0.954474
0.953516
0.953074
0.953522
0.955361
0.959106
0.965176
0.973781
0.984788
0.997553
1.01084
1.02294
1.03216
1.03731
1.03812
1.03528
1.03005
1.02383
1.01771
1.0124
1.0082
1.0051
1.00296
1.00158
1.00073
1.00026
1.00001
0.999908
0.999878
0.999886
0.999907
0.999931
0.999951
0.999965
0.999977
0.999986
0.999992
0.999995
0.999997
0.999998
0.999999
1
1
1
1
1
1
1
1
1
1
1
1
1
1
1
1
1
1
1
1
1
1
1.00001
1.00001
1.00002
1.00003
1.00005
1.0001
1.00015
1.00022
1.00033
1.00048
1.0007
1.00106
1.00173
1.00293
1.00511
1.00886
1.01471
1.02261
1.03117
1.03791
1.04069
1.03883
1.03297
1.02419
1.01369
1.00266
0.992126
0.982875
0.975334
0.969588
0.965421
0.962406
0.960054
0.957978
0.956003
0.954142
0.952479
0.951058
0.949877
0.949011
0.948756
0.949644
0.952316
0.957341
0.965074
0.975541
0.988289
1.00227
1.01586
1.02721
1.03478
1.03783
1.03666
1.03239
1.02646
1.02018
1.01445
1.00976
1.00621
1.0037
1.00204
1.00101
1.00041
1.00009
0.999943
0.999891
0.999887
0.999904
0.999927
0.999948
0.999962
0.999976
0.999985
0.999991
0.999995
0.999997
0.999998
0.999999
0.999999
1
1
1
1
1
1
1
1
1
1
1
1
1
1
1
1
1
1
1
1
1
1.00001
1.00001
1.00002
1.00004
1.00006
1.0001
1.00017
1.00024
1.00036
1.00053
1.00078
1.00122
1.00206
1.00357
1.00626
1.01081
1.01765
1.02624
1.03449
1.03965
1.04004
1.03571
1.02772
1.01738
1.00596
0.99464
0.984425
0.975999
0.96963
0.96516
0.962098
0.959776
0.957589
0.955214
0.952683
0.95028
0.948329
0.946977
0.946108
0.945501
0.945145
0.945443
0.947128
0.950999
0.957646
0.967293
0.979673
0.993915
1.00852
1.0216
1.03134
1.03659
1.03725
1.03418
1.02879
1.02252
1.0165
1.01137
1.00739
1.00451
1.00256
1.00132
1.00059
1.00019
0.999991
0.999911
0.999894
0.999904
0.999925
0.999945
0.999961
0.999974
0.999984
0.99999
0.999994
0.999997
0.999998
0.999999
1
1
1
1
1
1
1
1
1
1
1
1
1
1
1
1
1
1
1
1
1
1
1.00001
1.00001
1.00002
1.00004
1.00006
1.00011
1.00018
1.00026
1.00038
1.00059
1.00088
1.0014
1.00244
1.0043
1.00755
1.01294
1.0207
1.02961
1.03699
1.04021
1.03825
1.03173
1.02203
1.01059
0.998694
0.987511
0.977989
0.970689
0.965652
0.962387
0.960031
0.957638
0.954557
0.950686
0.946478
0.942707
0.940139
0.939158
0.939532
0.940524
0.941437
0.942184
0.943437
0.946274
0.951683
0.960233
0.971908
0.98603
1.00124
1.01564
1.02726
1.03459
1.03712
1.0354
1.03075
1.02468
1.01848
1.01299
1.0086
1.00536
1.00312
1.00168
1.0008
1.0003
1.00005
0.99994
0.999906
0.999908
0.999924
0.999944
0.99996
0.999973
0.999983
0.99999
0.999994
0.999997
0.999998
0.999999
0.999999
1
1
1
1
1
1
1
1
1
1
1
1
1
1
1
1
1
1
1
1
1
1.00001
1.00001
1.00002
1.00005
1.00007
1.00011
1.00019
1.00027
1.0004
1.00064
1.00098
1.0016
1.00286
1.00512
1.00897
1.01518
1.02369
1.03253
1.0386
1.03975
1.03565
1.02732
1.01629
1.00412
0.992134
0.981442
0.972896
0.966892
0.963152
0.96071
0.958204
0.954368
0.948601
0.941275
0.933582
0.927085
0.923249
0.922924
0.925838
0.930528
0.9351
0.938389
0.94061
0.943069
0.947341
0.954585
0.965219
0.978839
0.994246
1.00959
1.02276
1.03198
1.03635
1.03608
1.03232
1.0266
1.02035
1.01459
1.00984
1.00625
1.00372
1.00206
1.00103
1.00044
1.00012
0.999977
0.999923
0.999915
0.999926
0.999944
0.99996
0.999973
0.999983
0.999989
0.999994
0.999996
0.999998
0.999999
1
1
1
1
1
1
1
1
1
1
1
1
1
1
1
1
1
1
1
1
1
1
1.00001
1.00002
1.00002
1.00005
1.00008
1.0001
1.0002
1.00029
1.0004
1.00068
1.0011
1.00181
1.0033
1.00602
1.01048
1.01746
1.02649
1.03488
1.03939
1.03853
1.03259
1.02277
1.01074
0.998167
0.986421
0.976495
0.969098
0.964401
0.961672
0.959283
0.955186
0.947743
0.936594
0.922999
0.909337
0.898282
0.892237
0.892757
0.899697
0.910762
0.92235
0.931448
0.937159
0.940748
0.944502
0.950479
0.959817
0.972568
0.987776
1.00368
1.01808
1.02896
1.03506
1.03626
1.0335
1.02826
1.02207
1.01611
1.01105
1.00714
1.00434
1.00246
1.00128
1.00059
1.00021
1.00002
0.999946
0.999926
0.999931
0.999945
0.999962
0.999974
0.999983
0.999989
0.999994
0.999996
0.999998
0.999999
1
1
1
1
1
1
1
1
1
1
1
1
1
1
1
1
1
1
1
1
1
1
1
1.00002
1.00001
1.00005
1.00009
1.0001
1.0002
1.00031
1.00041
1.00071
1.00123
1.00204
1.00377
1.00697
1.01206
1.01967
1.02897
1.03667
1.03952
1.03678
1.0293
1.01833
1.00555
0.992842
0.981604
0.972643
0.966441
0.962862
0.960572
0.957014
0.949215
0.935151
0.915102
0.891882
0.869575
0.852144
0.842962
0.844439
0.856791
0.876946
0.899278
0.918219
0.930924
0.938077
0.94262
0.947785
0.955781
0.967382
0.982029
0.998112
1.01341
1.02569
1.03338
1.03602
1.0343
1.02963
1.02361
1.01753
1.01222
1.00802
1.00496
1.00288
1.00155
1.00075
1.0003
1.00008
0.999974
0.99994
0.999938
0.999949
0.999964
0.999975
0.999983
0.999989
0.999994
0.999996
0.999998
0.999999
0.999999
1
1
1
1
1
1
1
1
1
1
1
1
1
1
1
1
1
1
0.999999
1
1
1
1.00002
1.00001
1.00004
1.0001
1.00009
1.00018
1.00034
1.00041
1.00072
1.00137
1.0023
1.00423
1.00794
1.01367
1.02173
1.03105
1.03793
1.03917
1.03471
1.02597
1.01415
1.00085
0.98819
0.977662
0.969786
0.964681
0.961817
0.959087
0.952702
0.938488
0.914197
0.881499
0.845624
0.81272
0.787825
0.775
0.777534
0.796251
0.827514
0.863698
0.896323
0.919843
0.933601
0.940845
0.946105
0.952997
0.963326
0.977128
0.993058
1.00892
1.02234
1.03143
1.03543
1.03476
1.03073
1.02495
1.01883
1.01332
1.00887
1.00557
1.00329
1.00182
1.00092
1.0004
1.00013
1.00001
0.999958
0.999948
0.999954
0.999968
0.999977
0.999985
0.99999
0.999994
0.999996
0.999998
0.999999
1
1
1
1
1
1
1
1
1
1
1
1
1
1
1
1
1
1
1
1
1
1
0.999999
1.00002
1.00002
1.00003
1.0001
1.0001
1.00016
1.00035
1.00043
1.00072
1.0015
1.00259
1.00469
1.00888
1.01525
1.02361
1.03272
1.03877
1.03853
1.0325
1.02273
1.01035
0.996717
0.984204
0.974511
0.96777
0.963522
0.96075
0.956455
0.945299
0.921731
0.883747
0.83544
0.785233
0.741246
0.70893
0.692545
0.69623
0.721618
0.764781
0.816419
0.865304
0.902828
0.926203
0.938345
0.944935
0.951213
0.960319
0.973105
0.988618
1.00476
1.01904
1.02935
1.03459
1.03494
1.03157
1.02609
1.01999
1.01433
1.00967
1.00616
1.0037
1.00208
1.00109
1.00051
1.0002
1.00004
0.99998
0.99996
0.99996
0.999973
0.99998
0.999986
0.999991
0.999994
0.999997
0.999998
0.999999
0.999999
1
1
1
1
1
1
1
1
1
1
1
1
1
1
1
0.999999
1
1
0.999999
1
1.00001
0.999996
1.00002
1.00003
1.00001
1.0001
1.00011
1.00012
1.00035
1.00047
1.0007
1.0016
1.0029
1.00514
1.00974
1.01675
1.02529
1.03398
1.03926
1.03778
1.0303
1.01965
1.007
0.993211
0.980846
0.972016
0.966408
0.962674
0.959194
0.952083
0.934301
0.898935
0.84491
0.779711
0.715292
0.661166
0.622375
0.602943
0.607811
0.639513
0.694085
0.761019
0.826881
0.880172
0.915471
0.934569
0.943837
0.950151
0.958217
0.96992
0.984827
1.00101
1.01592
1.02723
1.03358
1.03489
1.03218
1.02702
1.02099
1.01523
1.0104
1.0067
1.00409
1.00235
1.00126
1.00062
1.00026
1.00009
1
0.999974
0.999969
0.999979
0.999983
0.999988
0.999992
0.999995
0.999997
0.999998
0.999999
1
1
1
1
1
1
1
1
1
1
1
1
1
1
1
1
1
1
1
0.999999
1
1.00001
0.999997
1.00001
1.00004
1
1.00008
1.00013
1.00008
1.00032
1.00051
1.00068
1.00164
1.00322
1.00559
1.01048
1.01811
1.0268
1.0349
1.03944
1.03702
1.02827
1.0168
1.0041
0.990368
0.978076
0.970003
0.965498
0.961919
0.956846
0.945745
0.920084
0.871788
0.801207
0.719683
0.64251
0.579923
0.535987
0.514224
0.520165
0.557219
0.621734
0.702475
0.78434
0.853456
0.90177
0.929327
0.942508
0.949567
0.956862
0.967494
0.98168
0.997729
1.01306
1.02519
1.03249
1.03467
1.03258
1.02776
1.02183
1.01601
1.01104
1.0072
1.00444
1.00259
1.00142
1.00072
1.00033
1.00013
1.00003
0.99999
0.999978
0.999985
0.999987
0.99999
0.999994
0.999996
0.999998
0.999999
0.999999
1
1
1
1
1
1
1
1
1
1
1
1
1
1
1
1
1
1
1
1
0.999998
1.00001
1
1
1.00004
1
1.00005
1.00014
1.00006
1.00026
1.00055
1.00069
1.00163
1.0035
1.00605
1.01109
1.01923
1.02814
1.03558
1.03935
1.03633
1.02657
1.01422
1.00159
0.988192
0.975888
0.968285
0.964825
0.961174
0.953691
0.937702
0.903931
0.84337
0.757675
0.661759
0.573844
0.504565
0.456912
0.433651
0.440344
0.481176
0.553427
0.645725
0.741587
0.825182
0.886219
0.922826
0.940786
0.949242
0.956091
0.965735
0.979145
0.994927
1.01052
1.02328
1.03139
1.03432
1.0328
1.02832
1.0225
1.01666
1.0116
1.00763
1.00476
1.00281
1.00157
1.00083
1.0004
1.00017
1.00006
1.00001
0.999989
0.999993
0.999992
0.999993
0.999995
0.999997
0.999998
0.999999
0.999999
1
1
1
1
1
1
1
1
1
1
1
1
1
1
1
1
1
1
1
1
0.999998
1.00001
1
0.999996
1.00004
1.00001
1.00002
1.00014
1.00007
1.00018
1.00056
1.00074
1.00159
1.00369
1.00653
1.01158
1.02007
1.02929
1.03613
1.03906
1.0357
1.02533
1.01203
0.999375
0.986618
0.974332
0.966729
0.964145
0.960484
0.950095
0.928682
0.887575
0.817133
0.71944
0.611977
0.515489
0.441211
0.391405
0.367683
0.374692
0.417164
0.494149
0.595076
0.702328
0.798189
0.870511
0.915728
0.938718
0.949009
0.95573
0.964527
0.97717
0.992612
1.00833
1.02158
1.03035
1.03392
1.03289
1.02871
1.02302
1.01718
1.01205
1.00799
1.00503
1.00301
1.00171
1.00092
1.00046
1.00021
1.00009
1.00003
1
1
0.999997
0.999996
0.999997
0.999998
0.999999
0.999999
0.999999
1
1
1
1
1
1
1
1
1
1
1
1
1
1
1
1
1
0.999999
1
1
0.999999
1
1.00001
0.999993
1.00003
1.00002
0.999994
1.00011
1.00008
1.00011
1.00052
1.00081
1.00155
1.00376
1.00695
1.01201
1.02058
1.03019
1.03669
1.03869
1.03506
1.02457
1.01041
0.997395
0.985466
0.973483
0.965348
0.963197
0.95992
0.946788
0.919783
0.872542
0.795655
0.690405
0.575152
0.472549
0.394968
0.344655
0.321706
0.328752
0.370598
0.448717
0.554493
0.669801
0.775074
0.856461
0.908986
0.936591
0.948811
0.955626
0.963742
0.975688
0.990768
1.00653
1.02013
1.0294
1.03349
1.03287
1.02895
1.02339
1.01757
1.0124
1.00827
1.00525
1.00317
1.00183
1.001
1.00052
1.00025
1.00011
1.00004
1.00001
1.00001
1
0.999999
0.999999
0.999999
0.999999
1
1
1
1
1
1
1
1
1
1
1
1
1
1
1
1
1
1
1
0.999999
1
1
1
1
1.00001
0.999996
1.00001
1.00002
0.999985
1.00007
1.0001
1.00007
1.00042
1.00086
1.00155
1.0037
1.00724
1.01242
1.02084
1.03074
1.03725
1.03842
1.03439
1.02419
1.00954
0.995735
0.984461
0.973317
0.964379
0.961806
0.959351
0.944624
0.912418
0.85993
0.779878
0.672166
0.553847
0.448154
0.368941
0.319376
0.298206
0.305359
0.345015
0.42103
0.52754
0.646862
0.758011
0.84562
0.903532
0.934795
0.948689
0.95568
0.963269
0.974625
0.989372
1.00512
1.01897
1.02861
1.03308
1.03278
1.02906
1.0236
1.01781
1.01263
1.00847
1.00541
1.0033
1.00193
1.00108
1.00058
1.00029
1.00014
1.00006
1.00003
1.00002
1.00001
1
1
1
1
1
1
1
1
1
1
1
1
1
1
1
1
1
1
1
1
1
1
1
0.999999
1
1
1
1
1
0.999999
1
1.00001
0.99999
1.00002
1.00008
1.00006
1.00032
1.00084
1.00159
1.00359
1.00733
1.01274
1.02094
1.0309
1.03774
1.03844
1.03378
1.02397
1.00946
0.994676
0.9834
0.973549
0.964196
0.960144
0.958372
0.944048
0.908226
0.850963
0.769508
0.663516
0.547046
0.441826
0.362674
0.314411
0.295312
0.302843
0.339936
0.412066
0.516082
0.635485
0.748646
0.83918
0.900096
0.933664
0.948711
0.955833
0.963026
0.973926
0.988402
1.00412
1.01811
1.028
1.03272
1.03263
1.02906
1.02368
1.01793
1.01275
1.00859
1.00551
1.00339
1.002
1.00113
1.00062
1.00033
1.00017
1.00008
1.00004
1.00002
1.00001
1.00001
1
1
1
1
1
1
1
1
1
1
1
1
1
1
1
1
1
1
1
1
1
1
0.999998
1
1
0.999999
1
0.999998
0.999999
0.999997
0.999998
0.999992
0.999991
1.00003
1.00006
1.00023
1.00075
1.00162
1.00349
1.00721
1.0129
1.02097
1.03074
1.03799
1.03876
1.03348
1.02378
1.00995
0.994552
0.982413
0.973658
0.964923
0.958905
0.956668
0.944535
0.908364
0.847616
0.764828
0.662052
0.55067
0.44922
0.372185
0.325785
0.308578
0.316607
0.351555
0.419554
0.5194
0.635946
0.747656
0.837832
0.899175
0.933444
0.948931
0.956046
0.962956
0.97355
0.987846
1.00353
1.01759
1.0276
1.03243
1.03244
1.02894
1.02362
1.01791
1.01276
1.00862
1.00556
1.00344
1.00205
1.00118
1.00066
1.00036
1.00019
1.0001
1.00005
1.00003
1.00002
1.00001
1
1
1
1
1
1
1
1
1
1
1
1
1
1
1
1
1
1
1
1
1
1
0.999999
1
1
0.999998
1
0.999997
0.999995
0.999997
0.999983
0.999982
0.999982
0.999981
1.00004
1.00019
1.00062
1.00157
1.00341
1.00696
1.01277
1.0209
1.03041
1.03792
1.03923
1.0337
1.02372
1.01062
0.995406
0.982031
0.973318
0.966034
0.958926
0.954788
0.944876
0.912262
0.851703
0.768091
0.667731
0.561754
0.465886
0.393265
0.350016
0.334676
0.34308
0.376365
0.44064
0.535618
0.647248
0.754658
0.84157
0.900919
0.934266
0.949395
0.956306
0.96303
0.973482
0.987706
1.00337
1.01743
1.02741
1.03223
1.03222
1.02872
1.02343
1.01776
1.01266
1.00857
1.00554
1.00344
1.00207
1.0012
1.00068
1.00038
1.00021
1.00011
1.00006
1.00004
1.00002
1.00001
1.00001
1
1
1
1
1
1
1
1
1
1
1
1
1
1
1
1
1
1
1
0.999999
1
1
1
1
0.999998
1
0.999997
0.999989
0.999996
0.999978
0.999962
0.999975
0.999946
0.999988
1.00016
1.00051
1.00143
1.0033
1.00667
1.01237
1.02059
1.03003
1.03762
1.03959
1.03444
1.02414
1.01129
0.99683
0.982765
0.972925
0.966633
0.960176
0.954167
0.944763
0.917588
0.862451
0.781534
0.683782
0.582367
0.492513
0.42589
0.386718
0.372975
0.381347
0.413175
0.47399
0.563438
0.668277
0.768806
0.849861
0.90509
0.936076
0.950112
0.956624
0.96326
0.973736
0.987997
1.00365
1.01762
1.02746
1.03211
1.03197
1.02841
1.02311
1.01749
1.01246
1.00843
1.00546
1.00341
1.00206
1.00122
1.0007
1.0004
1.00022
1.00013
1.00007
1.00004
1.00003
1.00001
1.00001
1
1
1
1
1
1
1
1
1
1
1
1
1
1
1
1
1
1
0.999999
1
1
1
1
1
0.999997
0.999999
0.999998
0.999987
0.999988
0.999979
0.999946
0.999955
0.999931
0.999929
1.0001
1.00044
1.00125
1.00309
1.00636
1.0118
1.01996
1.02952
1.03724
1.03975
1.0354
1.02526
1.01224
0.998318
0.984499
0.973403
0.966547
0.961453
0.955549
0.945711
0.922783
0.876191
0.803444
0.712074
0.616863
0.534128
0.473794
0.437629
0.424066
0.431587
0.461819
0.519011
0.601886
0.697883
0.789044
0.861923
0.911216
0.938664
0.951034
0.957026
0.963687
0.974352
0.988752
1.00439
1.01818
1.02774
1.03208
1.0317
1.028
1.02266
1.01709
1.01215
1.00821
1.00533
1.00334
1.00203
1.00121
1.00071
1.00041
1.00024
1.00014
1.00008
1.00005
1.00003
1.00002
1.00001
1.00001
1
1
1
1
1
1
1
1
1
0.999999
1
1
1
1
1
1
1
1
1
1
0.999999
1
1
0.999998
0.999997
0.999997
0.999987
0.999981
0.999976
0.999939
0.999927
0.99992
0.999891
1.00002
1.00037
1.00108
1.00277
1.00597
1.01115
1.01903
1.02872
1.03682
1.03983
1.03632
1.02692
1.01389
0.999884
0.986578
0.975137
0.966808
0.961866
0.957664
0.948965
0.928937
0.890205
0.828782
0.749155
0.665221
0.592382
0.537557
0.502116
0.487243
0.493334
0.521672
0.574654
0.649548
0.7345
0.81395
0.876721
0.9187
0.941765
0.952101
0.957551
0.964385
0.975398
0.990015
1.00562
1.01912
1.02823
1.03212
1.03138
1.02748
1.02209
1.01657
1.01174
1.00793
1.00514
1.00323
1.00198
1.00119
1.00071
1.00042
1.00025
1.00014
1.00009
1.00005
1.00003
1.00002
1.00001
1.00001
1
1
1
1
1
1
1
1
1
1
1
1
1
1
1
1
1
1
1
1
0.999999
1
1
0.999999
0.999996
0.999996
0.999988
0.999978
0.999968
0.999939
0.999906
0.999895
0.999871
0.999941
1.00026
1.00093
1.00242
1.00544
1.01042
1.01791
1.02755
1.03622
1.03996
1.03721
1.02874
1.01625
1.00203
0.988712
0.977504
0.968332
0.962234
0.958934
0.953065
0.936988
0.905013
0.854869
0.790165
0.722017
0.660743
0.610351
0.57506
0.55941
0.564492
0.590654
0.63853
0.703953
0.775886
0.841701
0.892971
0.926815
0.945084
0.953275
0.958274
0.965454
0.976956
0.991833
1.00733
1.0204
1.02891
1.03219
1.03099
1.02684
1.0214
1.01594
1.01124
1.00757
1.00491
1.00309
1.00191
1.00116
1.0007
1.00042
1.00025
1.00015
1.00009
1.00006
1.00003
1.00002
1.00001
1.00001
1
1
1
1
1
1
1
1