/*--------------------------------*- C++ -*----------------------------------*\
  =========                 |
  \\      /  F ield         | OpenFOAM: The Open Source CFD Toolbox
   \\    /   O peration     | Website:  https://openfoam.org
    \\  /    A nd           | Version:  6
     \\/     M anipulation  |
\*---------------------------------------------------------------------------*/
FoamFile
{
    version     2.0;
    format      ascii;
    class       volScalarField;
    location    "2.57";
    object      p;
}
// * * * * * * * * * * * * * * * * * * * * * * * * * * * * * * * * * * * * * //

dimensions      [1 -1 -2 0 0 0 0];

internalField   nonuniform List<scalar> 
10000
(
1
1
1
1
1
1
1
1
1
1
1
1
1
1
1
1
1
1
1
1
1
1
1
1
1
1
1
1
1
1
1
1
1
1
1
1
1
1
1
1
1
1
1
1
1
0.999999
0.999999
0.999999
0.999998
0.999997
0.999997
0.999996
0.999995
0.999994
0.999994
0.999994
0.999994
0.999994
0.999995
0.999997
0.999999
1
1
1
1.00001
1.00001
1.00001
1.00001
1.00001
1.00001
1
1
1
1
1
1
1
1
1
1
1
1
1
1
1
1
1
1
1
1
1
1
1
1
1
1
1
1
1
1
1
1
1
1
1
1
1
1
1
1
1
1
1
1
1
1
1
1
1
1
1
1
1
1
1
1
1
1
1
1
1
1
1
1
1
1
1
1
1
1
1
1
1
1
1
0.999999
0.999999
0.999998
0.999997
0.999996
0.999995
0.999993
0.999992
0.999991
0.99999
0.99999
0.99999
0.999991
0.999993
0.999996
0.999998
1
1
1.00001
1.00001
1.00001
1.00001
1.00001
1.00001
1.00001
1.00001
1.00001
1
1
1
1
1
1
1
1
1
1
1
1
1
1
1
1
1
1
1
1
1
1
1
1
1
1
1
1
1
1
1
1
1
1
1
1
1
1
1
1
1
1
1
1
1
1
1
1
1
1
1
1
1
1
1
1
1
1
1
1
1
1
1
1
1
1
1
1
1
1
1
0.999999
0.999999
0.999999
0.999998
0.999997
0.999996
0.999993
0.999992
0.999989
0.999987
0.999986
0.999984
0.999984
0.999985
0.999986
0.999989
0.999993
0.999997
1
1.00001
1.00001
1.00001
1.00002
1.00002
1.00002
1.00002
1.00001
1.00001
1.00001
1.00001
1.00001
1
1
1
1
1
1
1
1
1
1
1
1
1
1
1
1
1
1
1
1
1
1
1
1
1
1
1
1
1
1
1
1
1
1
1
1
1
1
1
1
1
1
1
1
1
1
1
1
1
1
1
1
1
1
1
1
1
1
1
1
1
1
1
1
1
1
1
1
1
0.999999
0.999999
0.999998
0.999997
0.999995
0.999993
0.99999
0.999987
0.999984
0.99998
0.999978
0.999976
0.999976
0.999977
0.99998
0.999984
0.99999
0.999997
1
1.00001
1.00002
1.00002
1.00002
1.00002
1.00002
1.00002
1.00002
1.00002
1.00002
1.00001
1.00001
1.00001
1
1
1
1
1
1
1
1
1
1
1
1
1
1
1
1
1
1
1
1
1
1
1
1
1
1
1
1
1
1
1
1
1
1
1
1
1
1
1
1
1
1
1
1
1
1
1
1
1
1
1
1
1
1
1
1
1
1
1
1
1
1
1
1
1
1
1
1
0.999999
0.999999
0.999997
0.999995
0.999992
0.999989
0.999985
0.99998
0.999975
0.999971
0.999967
0.999965
0.999965
0.999967
0.999971
0.999978
0.999987
0.999996
1.00001
1.00002
1.00003
1.00003
1.00004
1.00004
1.00004
1.00004
1.00003
1.00003
1.00002
1.00002
1.00001
1.00001
1.00001
1
1
1
1
1
1
1
1
1
1
1
1
1
1
1
1
1
1
1
1
1
1
1
1
1
1
1
1
1
1
1
1
1
1
1
1
1
1
1
1
1
1
1
1
1
1
1
1
1
1
1
1
1
1
1
1
1
1
1
1
1
1
1
1
1
1
1
0.999999
0.999998
0.999996
0.999993
0.999989
0.999984
0.999978
0.999971
0.999964
0.999958
0.999953
0.99995
0.99995
0.999953
0.99996
0.99997
0.999983
0.999998
1.00001
1.00003
1.00004
1.00005
1.00005
1.00006
1.00006
1.00005
1.00005
1.00004
1.00003
1.00003
1.00002
1.00002
1.00001
1.00001
1
1
1
1
1
1
1
1
1
1
1
1
1
1
1
1
1
1
1
1
1
1
1
1
1
1
1
1
1
1
1
1
1
1
1
1
1
1
1
1
1
1
1
1
1
1
1
1
1
1
1
1
1
1
1
1
1
1
1
1
1
1
1
1
1
1
0.999999
0.999997
0.999994
0.99999
0.999984
0.999977
0.999968
0.999959
0.999949
0.99994
0.999934
0.99993
0.999931
0.999937
0.999948
0.999963
0.999982
1
1.00002
1.00004
1.00006
1.00007
1.00008
1.00008
1.00008
1.00008
1.00007
1.00006
1.00005
1.00004
1.00003
1.00002
1.00002
1.00001
1.00001
1
1
1
1
1
1
1
1
1
1
1
1
1
1
1
1
1
1
1
1
1
1
1
1
1
1
1
1
1
1
1
1
1
1
1
1
1
1
1
1
1
1
1
1
1
1
1
1
1
1
1
1
1
1
1
1
1
1
1
1
1
1
1
1
1
0.999998
0.999996
0.999991
0.999986
0.999978
0.999968
0.999956
0.999943
0.99993
0.999918
0.99991
0.999907
0.99991
0.99992
0.999937
0.99996
0.999986
1.00002
1.00005
1.00007
1.00009
1.00011
1.00012
1.00013
1.00012
1.00011
1.0001
1.00009
1.00007
1.00006
1.00004
1.00003
1.00002
1.00001
1.00001
1.00001
1
1
1
1
1
1
1
1
1
1
1
1
1
1
1
1
1
1
1
1
1
1
1
1
1
1
1
1
1
1
1
1
1
1
1
1
1
1
1
1
1
1
1
1
1
1
1
1
1
1
1
1
1
1
1
1
1
1
1
1
1
1
1
1
0.999998
0.999994
0.999989
0.999981
0.99997
0.999956
0.99994
0.999923
0.999906
0.999893
0.999884
0.999883
0.99989
0.999908
0.999934
0.999967
1.00001
1.00005
1.00009
1.00012
1.00015
1.00017
1.00018
1.00018
1.00018
1.00016
1.00015
1.00012
1.0001
1.00008
1.00006
1.00004
1.00003
1.00002
1.00001
1.00001
1
1
1
1
1
1
1
1
1
1
1
1
1
1
1
1
1
1
1
1
1
1
1
1
1
1
1
1
1
1
1
1
1
1
1
1
1
1
1
1
1
1
1
1
1
1
1
1
1
1
1
1
1
1
1
1
1
1
1
1
1
1
1
1
0.999998
0.999994
0.999986
0.999975
0.99996
0.999942
0.999921
0.999899
0.99988
0.999866
0.999859
0.999863
0.999879
0.999908
0.999948
0.999998
1.00005
1.00011
1.00016
1.00021
1.00024
1.00026
1.00028
1.00027
1.00026
1.00024
1.00021
1.00018
1.00014
1.00011
1.00008
1.00006
1.00004
1.00003
1.00002
1.00001
1
1
1
1
0.999999
0.999999
0.999999
1
1
1
1
1
1
1
1
1
1
1
1
1
1
1
1
1
1
1
1
1
1
1
1
1
1
1
1
1
1
1
1
1
1
1
1
1
1
1
1
1
1
1
1
1
1
1
1
1
1
1
1
1
1
1
1
1
0.999999
0.999993
0.999983
0.999968
0.999949
0.999926
0.999901
0.999876
0.999855
0.999843
0.999843
0.999859
0.999892
0.99994
1
1.00008
1.00015
1.00023
1.0003
1.00035
1.00039
1.00041
1.00042
1.0004
1.00038
1.00034
1.00029
1.00025
1.0002
1.00015
1.00012
1.00008
1.00006
1.00004
1.00002
1.00001
1
1
1
0.999999
0.999999
0.999999
0.999999
0.999999
1
1
1
1
1
1
1
1
1
1
1
1
1
1
1
1
1
1
1
1
1
1
1
1
1
1
1
1
1
1
1
1
1
1
1
1
1
1
1
1
1
1
1
1
1
1
1
1
1
1
1
1
1
1.00001
1.00001
1
1
0.999993
0.99998
0.999962
0.999938
0.999911
0.999882
0.999856
0.999839
0.999836
0.999852
0.99989
0.999952
1.00003
1.00013
1.00024
1.00035
1.00045
1.00053
1.0006
1.00064
1.00065
1.00064
1.0006
1.00055
1.00049
1.00042
1.00035
1.00028
1.00021
1.00016
1.00011
1.00007
1.00005
1.00003
1.00001
1
1
0.999998
0.999997
0.999997
0.999998
0.999998
0.999999
0.999999
1
1
1
1
1
1
1
1
1
1
1
1
1
1
1
1
1
1
1
1
1
1
1
1
1
1
1
1
1
1
1
1
1
1
1
1
1
1
1
1
1
1
1
1
1
1
1
1
1
1
1
1.00001
1.00001
1.00001
1.00001
1
0.999994
0.999979
0.999957
0.99993
0.999899
0.99987
0.999849
0.999844
0.999863
0.99991
0.999989
1.0001
1.00023
1.00039
1.00055
1.0007
1.00083
1.00094
1.00101
1.00104
1.00103
1.00099
1.00091
1.00082
1.00071
1.0006
1.00049
1.00038
1.00029
1.00021
1.00015
1.0001
1.00006
1.00003
1.00001
1
0.999998
0.999996
0.999995
0.999996
0.999996
0.999997
0.999998
0.999999
0.999999
1
1
1
1
1
1
1
1
1
1
1
1
1
1
1
1
1
1
1
1
1
1
1
1
1
1
1
1
1
1
1
1
1
1
1
1
1
1
1
1
1
1
1
1
1
1
1
1
1
1.00001
1.00001
1.00001
1.00001
1.00001
1.00001
0.999998
0.999981
0.999956
0.999927
0.999897
0.999875
0.99987
0.999893
0.999953
1.00006
1.00021
1.0004
1.00062
1.00085
1.00109
1.0013
1.00148
1.00161
1.00168
1.00168
1.00163
1.00153
1.00139
1.00122
1.00104
1.00086
1.00069
1.00054
1.0004
1.00029
1.0002
1.00013
1.00007
1.00004
1.00002
1
0.999995
0.999992
0.999992
0.999993
0.999994
0.999996
0.999997
0.999998
0.999999
0.999999
1
1
1
1
1
1
1
1
1
1
1
1
1
1
1
1
1
1
1
1
1
1
1
1
1
1
1
1
1
1
1
1
1
1
1
1
1
1
1
1
1
1
1
1
1
1
1
1.00001
1.00001
1.00001
1.00002
1.00002
1.00002
1.00002
1.00001
0.999988
0.999963
0.999936
0.999915
0.999912
0.999942
1.00002
1.00016
1.00036
1.00062
1.00094
1.00128
1.00164
1.00199
1.00229
1.00252
1.00268
1.00273
1.0027
1.00257
1.00238
1.00212
1.00184
1.00155
1.00126
1.00099
1.00076
1.00056
1.00039
1.00026
1.00017
1.0001
1.00005
1.00002
0.999998
0.99999
0.999987
0.999987
0.999989
0.999991
0.999993
0.999995
0.999997
0.999998
0.999999
0.999999
1
1
1
1
1
1
1
1
1
1
1
1
1
1
1
1
1
1
1
1
1
1
1
1
1
1
1
1
1
1
1
1
1
1
1
1
1
1
1
1
1
1
1
1
1
1.00001
1.00001
1.00002
1.00002
1.00003
1.00003
1.00004
1.00003
1.00002
1
0.999983
0.999967
0.999969
1.00001
1.0001
1.00027
1.00054
1.00089
1.00133
1.00184
1.00238
1.00292
1.00341
1.00383
1.00414
1.00432
1.00435
1.00425
1.00401
1.00366
1.00324
1.00278
1.00231
1.00186
1.00145
1.00109
1.00079
1.00055
1.00036
1.00022
1.00012
1.00006
1.00002
0.999993
0.999982
0.999979
0.99998
0.999983
0.999987
0.99999
0.999993
0.999995
0.999997
0.999998
0.999999
0.999999
1
1
1
1
1
1
1
1
1
1
1
1
1
1
1
1
1
1
1
1
1
1
1
1
1
1
1
1
1
1
1
1
1
1
1
1
1
1
1
1
1
1
1
1.00001
1.00001
1.00002
1.00002
1.00003
1.00004
1.00005
1.00006
1.00005
1.00005
1.00004
1.00003
1.00003
1.00008
1.00019
1.0004
1.00073
1.00119
1.00178
1.00249
1.00327
1.00408
1.00486
1.00556
1.00614
1.00654
1.00675
1.00675
1.00653
1.00613
1.00557
1.0049
1.00418
1.00344
1.00275
1.00212
1.00158
1.00113
1.00077
1.0005
1.0003
1.00017
1.00007
1.00002
0.999985
0.999971
0.999967
0.99997
0.999975
0.999981
0.999986
0.99999
0.999993
0.999996
0.999997
0.999998
0.999999
1
1
1
1
1
1
1
1
1
1
1
1
1
1
1
1
1
1
1
1
1
1
1
1
1
1
1
1
1
1
1
1
1
1
1
1
1
1
1
1
1
1
1.00001
1.00001
1.00001
1.00002
1.00003
1.00005
1.00006
1.00007
1.00008
1.00009
1.00009
1.00009
1.0001
1.00016
1.00028
1.00052
1.00091
1.00148
1.00224
1.00318
1.00426
1.00541
1.00658
1.00769
1.00866
1.00943
1.00995
1.01019
1.01013
1.00978
1.00916
1.00832
1.00731
1.00621
1.00511
1.00406
1.00311
1.0023
1.00164
1.00111
1.00072
1.00043
1.00023
1.0001
1.00002
0.999976
0.999957
0.999953
0.999957
0.999964
0.999972
0.99998
0.999986
0.999991
0.999994
0.999996
0.999998
0.999999
0.999999
1
1
1
1
1
1
1
1
1
1
1
1
1
1
1
1
1
1
1
1
1
1
1
1
1
1
1
1
1
1
1
1
1
1
1
1
1
1
1
1
1
1.00001
1.00001
1.00002
1.00003
1.00005
1.00006
1.00008
1.0001
1.00012
1.00013
1.00015
1.00017
1.00023
1.00037
1.00063
1.00107
1.00173
1.00266
1.00385
1.00526
1.00683
1.00848
1.0101
1.01159
1.01287
1.01386
1.01452
1.01479
1.01468
1.01417
1.01329
1.0121
1.01066
1.00909
1.00748
1.00595
1.00456
1.00336
1.00238
1.00161
1.00103
1.00062
1.00033
1.00014
1.00003
0.999968
0.999941
0.999935
0.99994
0.99995
0.999962
0.999972
0.99998
0.999987
0.999992
0.999995
0.999997
0.999998
0.999999
0.999999
1
1
1
1
1
1
1
1
1
1
1
1
1
1
1
1
1
1
1
1
1
1
1
1
1
1
1
1
1
1
1
1
1
1
1
1
1
1
1
1.00001
1.00001
1.00002
1.00003
1.00004
1.00006
1.00009
1.00011
1.00014
1.00017
1.0002
1.00023
1.0003
1.00044
1.00071
1.00117
1.00191
1.00298
1.00441
1.00618
1.00821
1.01041
1.01264
1.01477
1.01669
1.01829
1.0195
1.02027
1.02058
1.02041
1.01975
1.01862
1.01706
1.01514
1.01299
1.01076
1.00859
1.00661
1.00489
1.00347
1.00235
1.00151
1.0009
1.00049
1.00022
1.00005
0.999964
0.999924
0.999914
0.999919
0.999933
0.999948
0.999962
0.999973
0.999982
0.999988
0.999993
0.999996
0.999997
0.999999
0.999999
1
1
1
1
1
1
1
1
1
1
1
1
1
1
1
1
1
1
1
1
1
1
1
1
1
1
1
1
1
1
1
1
1
1
1
1
1
1
1
1.00001
1.00001
1.00002
1.00004
1.00006
1.00008
1.00011
1.00015
1.00019
1.00023
1.00028
1.00036
1.0005
1.00076
1.00122
1.002
1.00316
1.0048
1.0069
1.0094
1.01219
1.0151
1.01795
1.02059
1.02288
1.02474
1.02611
1.02696
1.02728
1.02707
1.02632
1.02501
1.02314
1.02077
1.01802
1.01508
1.01215
1.00941
1.00701
1.005
1.0034
1.0022
1.00133
1.00073
1.00034
1.0001
0.99997
0.999909
0.999891
0.999896
0.999912
0.999931
0.99995
0.999965
0.999976
0.999985
0.99999
0.999994
0.999997
0.999998
0.999999
0.999999
1
1
1
1
1
1
1
1
1
1
1
1
1
1
1
1
1
1
1
1
1
1
1
1
1
1
1
1
1
1
1
1
1
1
1
1
1
1.00001
1.00001
1.00002
1.00003
1.00005
1.00007
1.00011
1.00015
1.0002
1.00025
1.00032
1.0004
1.00054
1.00078
1.00123
1.00199
1.00319
1.00496
1.00733
1.01027
1.01365
1.01727
1.02089
1.02429
1.0273
1.0298
1.03174
1.03309
1.0339
1.03419
1.03399
1.03327
1.03195
1.02998
1.02733
1.0241
1.02047
1.01672
1.01311
1.00986
1.0071
1.00488
1.00318
1.00194
1.00109
1.00053
1.00019
0.999994
0.999901
0.999868
0.99987
0.999888
0.999912
0.999935
0.999954
0.999969
0.99998
0.999987
0.999992
0.999995
0.999997
0.999999
0.999999
1
1
1
1
1
1
1
1
1
1
1
1
1
1
1
1
1
1
1
1
1
1
1
1
1
1
1
1
1
1
1
1
1
1
1
1
1
1.00001
1.00001
1.00002
1.00004
1.00006
1.00009
1.00014
1.00019
1.00025
1.00033
1.00042
1.00056
1.00078
1.00119
1.0019
1.00307
1.00487
1.00741
1.01071
1.01464
1.01895
1.02335
1.02752
1.03122
1.03428
1.03664
1.03831
1.03937
1.03995
1.04013
1.03998
1.03948
1.03847
1.03677
1.03424
1.03085
1.02675
1.02226
1.01774
1.01353
1.00987
1.00686
1.00453
1.00281
1.00162
1.00082
1.00033
1.00005
0.999906
0.99985
0.999844
0.999862
0.99989
0.999917
0.999941
0.99996
0.999974
0.999984
0.99999
0.999994
0.999997
0.999998
0.999999
1
1
1
1
1
1
1
1
1
1
1
1
1
1
1
1
1
1
1
1
1
1
1
1
1
1
1
1
1
1
1
1
1
1
1
1
1
1.00001
1.00002
1.00003
1.00005
1.00008
1.00012
1.00017
1.00024
1.00032
1.00042
1.00055
1.00076
1.00112
1.00175
1.00283
1.00457
1.00714
1.01065
1.01501
1.01997
1.02514
1.03007
1.03442
1.03794
1.04051
1.04217
1.04309
1.04347
1.04355
1.04351
1.04347
1.0434
1.04311
1.04225
1.04045
1.0375
1.03342
1.0285
1.02321
1.01804
1.01337
1.00944
1.00633
1.004
1.00235
1.00125
1.00055
1.00014
0.999932
0.999841
0.99982
0.999835
0.999865
0.999898
0.999927
0.99995
0.999967
0.999979
0.999987
0.999993
0.999996
0.999998
0.999999
0.999999
1
1
1
1
1
1
1
1
1
1
1
1
1
1
1
1
1
1
1
1
1
1
1
1
1
1
1
1
1
1
1
1
1
1
1
1.00001
1.00001
1.00002
1.00004
1.00006
1.0001
1.00015
1.00021
1.00029
1.0004
1.00053
1.00072
1.00103
1.00157
1.00251
1.00409
1.00656
1.0101
1.01473
1.02022
1.0261
1.03179
1.03677
1.04067
1.04327
1.04462
1.04491
1.0445
1.04376
1.04304
1.04265
1.04276
1.04336
1.04422
1.04483
1.04457
1.0429
1.03962
1.03488
1.02921
1.02325
1.01759
1.01265
1.00862
1.00555
1.00334
1.00184
1.00087
1.0003
0.99999
0.999847
0.999802
0.99981
0.999841
0.999877
0.999911
0.999939
0.99996
0.999975
0.999984
0.999991
0.999995
0.999997
0.999998
0.999999
1
1
1
1
1
1
1
1
1
1
1
1
1
1
1
1
1
1
1
1
1
1
1
1
1
1
1
1
1
1
1
1
1
1
1
1.00001
1.00001
1.00003
1.00004
1.00007
1.00012
1.00018
1.00026
1.00036
1.00049
1.00066
1.00093
1.00138
1.00217
1.00352
1.00575
1.00912
1.01379
1.01961
1.02612
1.03257
1.03822
1.0425
1.04507
1.0459
1.0452
1.04341
1.0411
1.03883
1.03709
1.03623
1.03651
1.03798
1.04036
1.04303
1.04512
1.04572
1.04423
1.04058
1.0352
1.02886
1.02238
1.01644
1.01144
1.00751
1.00463
1.00263
1.00133
1.00053
1.00009
0.999876
0.999795
0.999789
0.999817
0.999856
0.999894
0.999927
0.999951
0.999969
0.999981
0.999989
0.999993
0.999996
0.999998
0.999999
0.999999
1
1
1
1
1
1
1
1
1
1
1
1
1
1
1
1
1
1
1
1
1
1
1
1
1
1
1
1
1
1
1
1
1
1
1.00001
1.00002
1.00003
1.00005
1.00009
1.00014
1.00021
1.0003
1.00043
1.00059
1.00082
1.00119
1.00182
1.00293
1.00482
1.00784
1.01229
1.01818
1.02513
1.03231
1.03872
1.0435
1.04614
1.04644
1.0446
1.0411
1.03663
1.032
1.02792
1.02498
1.02361
1.0241
1.02655
1.0307
1.03588
1.04097
1.04474
1.04612
1.04461
1.04043
1.03437
1.02747
1.0207
1.01473
1.00988
1.00623
1.00364
1.00193
1.00086
1.00025
0.999935
0.999804
0.999775
0.999796
0.999835
0.999877
0.999914
0.999943
0.999963
0.999977
0.999986
0.999992
0.999996
0.999998
0.999999
0.999999
1
1
1
1
1
1
1
1
1
1
1
1
1
1
1
1
1
1
1
1
1
1
1
1
1
1
1
1
1
1
1
1
1
1.00001
1.00001
1.00002
1.00004
1.00006
1.0001
1.00016
1.00024
1.00035
1.0005
1.0007
1.001
1.0015
1.00238
1.0039
1.00645
1.01042
1.01606
1.02316
1.03095
1.0382
1.04372
1.04667
1.0467
1.04385
1.03861
1.03173
1.02418
1.01697
1.01094
1.00675
1.00486
1.00562
1.00914
1.01522
1.02314
1.03167
1.03925
1.04438
1.04606
1.04412
1.0392
1.03247
1.0252
1.01839
1.01262
1.00814
1.00489
1.00269
1.00129
1.00047
1.00003
0.999834
0.999772
0.99978
0.999817
0.999861
0.999901
0.999934
0.999957
0.999973
0.999984
0.999991
0.999995
0.999997
0.999999
0.999999
1
1
1
1
1
1
1
1
1
1
1
1
1
1
1
1
1
1
1
1
1
1
1
1
1
1
1
1
1
1
1
1
1
1.00001
1.00001
1.00002
1.00004
1.00007
1.00012
1.00018
1.00028
1.00041
1.00058
1.00083
1.00122
1.00188
1.00306
1.00509
1.00842
1.01347
1.02034
1.02846
1.03656
1.04307
1.04675
1.04694
1.04354
1.03688
1.02772
1.01712
1.00626
0.996312
0.988244
0.982771
0.9804
0.981501
0.986236
0.994395
1.00523
1.01741
1.02919
1.03867
1.04437
1.04562
1.04275
1.03693
1.02964
1.02224
1.01565
1.01033
1.00637
1.00362
1.00184
1.00077
1.00018
0.999891
0.999784
0.999772
0.999803
0.999847
0.99989
0.999925
0.999951
0.99997
0.999982
0.999989
0.999994
0.999997
0.999998
0.999999
1
1
1
1
1
1
1
1
1
1
1
1
1
1
1
1
1
1
1
1
1
1
1
1
1
1
1
1
1
1
1
1
1
1.00001
1.00001
1.00003
1.00005
1.00008
1.00013
1.00021
1.00031
1.00046
1.00066
1.00097
1.00147
1.00233
1.00387
1.00651
1.01074
1.01694
1.02495
1.0337
1.04139
1.04627
1.04722
1.04392
1.03653
1.02566
1.01231
0.997746
0.983355
0.970471
0.960202
0.953346
0.950482
0.952036
0.958195
0.96871
0.98273
0.998798
1.01498
1.02916
1.03941
1.04458
1.04459
1.04043
1.03371
1.02608
1.01883
1.01274
1.00805
1.00471
1.0025
1.00114
1.00037
0.999978
0.999814
0.999775
0.999794
0.999836
0.99988
0.999917
0.999946
0.999966
0.999979
0.999988
0.999993
0.999996
0.999998
0.999999
0.999999
1
1
1
1
1
1
1
1
1
1
1
1
1
1
1
1
1
1
1
1
1
1
1
1
1
1
1
1
1
1
1
1
1.00001
1.00002
1.00003
1.00005
1.00009
1.00015
1.00023
1.00035
1.00051
1.00074
1.00112
1.00175
1.00286
1.00482
1.00815
1.01336
1.02071
1.02962
1.03843
1.04492
1.04732
1.04491
1.03768
1.02603
1.01075
0.992982
0.97416
0.955855
0.939629
0.926786
0.918282
0.914826
0.916953
0.924874
0.938225
0.95594
0.976317
0.997218
1.01631
1.03143
1.041
1.04452
1.0427
1.03712
1.02968
1.02204
1.01527
1.00988
1.00594
1.00328
1.00159
1.00062
1.0001
0.999865
0.99979
0.999793
0.999829
0.999872
0.99991
0.999941
0.999962
0.999977
0.999987
0.999992
0.999996
0.999998
0.999999
0.999999
1
1
1
1
1
1
1
1
1
1
1
1
1
1
1
1
1
1
1
1
1
1
1
1
1
1
1
1
1
1
1
1
1.00001
1.00002
1.00003
1.00006
1.0001
1.00016
1.00025
1.00037
1.00056
1.00083
1.00128
1.00207
1.00346
1.00591
1.01
1.01623
1.0246
1.03403
1.04225
1.04678
1.04613
1.04
1.02869
1.0127
0.992851
0.970348
0.946729
0.923823
0.903537
0.887484
0.876862
0.872614
0.875459
0.885625
0.902533
0.924736
0.950133
0.976275
1.00063
1.02086
1.03512
1.04257
1.0436
1.03969
1.03287
1.02511
1.01783
1.01181
1.00728
1.00414
1.00212
1.00091
1.00025
0.999938
0.999819
0.999801
0.999827
0.999867
0.999906
0.999937
0.99996
0.999975
0.999985
0.999992
0.999995
0.999998
0.999999
0.999999
1
1
1
1
1
1
1
1
1
1
1
1
1
1
1
1
1
1
1
1
1
1
1
1
1
1
1
1
1
1
1
1
1.00001
1.00002
1.00003
1.00006
1.0001
1.00017
1.00026
1.0004
1.0006
1.00091
1.00145
1.00242
1.00412
1.00711
1.01201
1.01923
1.02841
1.03788
1.04488
1.04691
1.0429
1.03298
1.01762
0.997275
0.972635
0.944835
0.915558
0.887032
0.861669
0.841523
0.828155
0.822852
0.826621
0.839693
0.861115
0.888844
0.920204
0.952329
0.982454
1.0081
1.02729
1.03894
1.04318
1.04134
1.03553
1.02794
1.02033
1.01377
1.00869
1.00508
1.0027
1.00125
1.00044
1.00003
0.999863
0.999818
0.999832
0.999867
0.999904
0.999935
0.999958
0.999974
0.999985
0.999991
0.999995
0.999997
0.999999
0.999999
1
1
1
1
1
1
1
1
1
1
1
1
1
1
1
1
1
1
1
1
1
1
1
1
1
1
1
1
1
1
1
1
1.00001
1.00002
1.00004
1.00006
1.0001
1.00017
1.00027
1.00041
1.00064
1.00099
1.00163
1.00279
1.00484
1.00838
1.01412
1.02225
1.03193
1.04095
1.04624
1.0455
1.03807
1.02446
1.00518
0.980453
0.950637
0.916728
0.88065
0.845231
0.813582
0.788336
0.771523
0.764909
0.769916
0.78676
0.813877
0.848333
0.886691
0.925604
0.962064
0.993484
1.01783
1.03388
1.04158
1.04211
1.03759
1.03044
1.02268
1.01569
1.01011
1.00605
1.00333
1.00163
1.00066
1.00015
0.999923
0.999846
0.999844
0.999871
0.999905
0.999934
0.999957
0.999974
0.999984
0.999991
0.999995
0.999997
0.999999
0.999999
1
1
1
1
1
1
1
1
1
1
1
1
1
1
1
1
1
1
1
1
1
1
1
1
1
1
1
1
1
1
1
1
1.00001
1.00002
1.00004
1.00006
1.0001
1.00017
1.00027
1.00042
1.00067
1.00107
1.0018
1.00318
1.00559
1.0097
1.01623
1.02513
1.035
1.04313
1.04645
1.0429
1.03219
1.01508
0.992033
0.962833
0.927335
0.886354
0.842206
0.798543
0.759378
0.728056
0.707149
0.699019
0.705677
0.727331
0.761496
0.803957
0.850301
0.896688
0.939934
0.977417
1.00709
1.02766
1.03896
1.04206
1.03907
1.03255
1.02483
1.01752
1.01151
1.00704
1.00397
1.00203
1.0009
1.00029
0.999996
0.999885
0.999863
0.99988
0.999909
0.999936
0.999958
0.999974
0.999984
0.999991
0.999995
0.999997
0.999999
0.999999
1
1
1
1
1
1
1
1
1
1
1
1
1
1
1
1
1
1
1
1
1
1
1
1
1
1
1
1
1
1
1
1
1.00001
1.00002
1.00003
1.00006
1.0001
1.00017
1.00027
1.00042
1.00069
1.00114
1.00196
1.00357
1.00636
1.01101
1.01826
1.02778
1.03752
1.04448
1.04575
1.03954
1.02577
1.00538
0.978713
0.944961
0.903289
0.854322
0.800931
0.747821
0.700111
0.661964
0.636482
0.626693
0.635425
0.662928
0.705479
0.75715
0.812313
0.866632
0.916866
0.96048
0.995489
1.0206
1.03555
1.04131
1.03999
1.03428
1.02672
1.01921
1.01284
1.008
1.00463
1.00245
1.00115
1.00044
1.00008
0.999933
0.999889
0.999894
0.999916
0.99994
0.99996
0.999975
0.999985
0.999991
0.999995
0.999997
0.999999
0.999999
1
1
1
1
1
1
1
1
1
1
1
1
1
1
1
1
1
1
1
1
1
1
1
1
1
1
1
1
1
1
1
1
1.00001
1.00002
1.00003
1.00006
1.00009
1.00016
1.00026
1.0004
1.0007
1.0012
1.00211
1.00394
1.00712
1.01225
1.02012
1.0301
1.0395
1.04512
1.04443
1.03585
1.0193
0.995833
0.965695
0.927403
0.879274
0.821712
0.758265
0.694912
0.638092
0.592827
0.562604
0.551125
0.56221
0.59622
0.648073
0.709819
0.774343
0.836769
0.893911
0.943459
0.983598
1.01308
1.03159
1.04001
1.04043
1.03562
1.02835
1.02073
1.01408
1.00891
1.00526
1.00287
1.00141
1.0006
1.00018
0.999989
0.999922
0.999913
0.999927
0.999946
0.999963
0.999977
0.999986
0.999992
0.999995
0.999997
0.999999
0.999999
1
1
1
1
1
1
1
1
1
1
1
1
1
1
1
1
1
1
1
1
1
1
1
1
1
1
1
1
1
1
1
1
1.00001
1.00002
1.00003
1.00005
1.00009
1.00014
1.00024
1.00038
1.00068
1.00125
1.00223
1.00426
1.00783
1.0134
1.02174
1.03205
1.041
1.04523
1.04275
1.03218
1.01318
0.986825
0.953394
0.910773
0.856323
0.790131
0.716458
0.642748
0.576982
0.524981
0.490383
0.477422
0.490751
0.531005
0.592132
0.664141
0.738124
0.808494
0.872178
0.927212
0.972052
1.00556
1.02739
1.03835
1.04047
1.03661
1.02969
1.02205
1.01518
1.00975
1.00585
1.00326
1.00167
1.00076
1.00028
1.00005
0.99996
0.999936
0.999941
0.999955
0.999968
0.99998
0.999987
0.999993
0.999996
0.999998
0.999999
0.999999
1
1
1
1
1
1
1
1
1
1
1
1
1
1
1
1
1
1
1
1
1
1
1
0.999999
1
1
1
1
1
1
1
1
1.00001
1.00001
1.00002
1.00005
1.00007
1.00012
1.00022
1.00035
1.00065
1.00128
1.00234
1.00451
1.00845
1.01441
1.02306
1.03359
1.04212
1.04502
1.04095
1.0288
1.00776
0.978721
0.9422
0.895703
0.835636
0.761581
0.67841
0.595148
0.52147
0.463871
0.425926
0.41191
0.426732
0.471688
0.540771
0.622357
0.705374
0.783161
0.852721
0.912555
0.961474
0.998499
1.02327
1.03652
1.04024
1.0373
1.03076
1.02315
1.01613
1.01048
1.00638
1.00363
1.00192
1.00092
1.00038
1.00012
1
0.999963
0.999958
0.999965
0.999975
0.999983
0.999989
0.999994
0.999996
0.999998
0.999999
0.999999
1
1
1
1
1
1
1
1
1
1
1
1
1
1
1
1
1
1
1
1
1
1
1
1
1
1
1
1
1
1
1
1
1.00001
1.00001
1.00002
1.00004
1.00006
1.0001
1.00019
1.00032
1.0006
1.00128
1.00243
1.00469
1.00894
1.01527
1.02409
1.03472
1.04294
1.04469
1.03921
1.0259
1.00333
0.971899
0.932497
0.882759
0.818346
0.738109
0.647217
0.556198
0.476379
0.414854
0.375005
0.360352
0.375366
0.422469
0.497007
0.586558
0.677656
0.762013
0.836518
0.900226
0.952421
0.992313
1.01954
1.03474
1.03984
1.03773
1.03156
1.02402
1.0169
1.0111
1.00684
1.00396
1.00215
1.00108
1.00049
1.00019
1.00005
0.999993
0.999977
0.999977
0.999982
0.999988
0.999992
0.999995
0.999997
0.999998
0.999999
1
1
1
1
1
1
1
1
1
1
1
1
1
1
1
1
1
1
1
1
1
1
1
1
1
1
1
1
1
0.999999
1
1
1
1
1.00001
1.00001
1.00003
1.00004
1.00007
1.00015
1.00028
1.00054
1.00124
1.00248
1.0048
1.00925
1.01593
1.02484
1.03543
1.04352
1.04444
1.0377
1.02356
1.0001
0.966762
0.924714
0.872377
0.805231
0.721262
0.625431
0.529303
0.445506
0.381796
0.341377
0.326405
0.34034
0.386844
0.463633
0.558665
0.656288
0.746063
0.824384
0.890868
0.945375
0.987359
1.01644
1.03317
1.03939
1.03796
1.03213
1.02466
1.01749
1.01158
1.00721
1.00423
1.00234
1.00122
1.00059
1.00026
1.0001
1.00002
0.999997
0.99999
0.99999
0.999992
0.999995
0.999997
0.999998
0.999999
0.999999
1
1
1
1
1
1
1
1
1
1
1
1
1
1
1
1
1
1
1
1
1
1
1
1
1
1
1
1
1
1
1
1
1
1
1
1.00001
1.00001
1.00002
1.00004
1.0001
1.00023
1.00047
1.00115
1.00249
1.00484
1.00937
1.01634
1.02533
1.03577
1.04386
1.04439
1.03662
1.02182
0.998137
0.963678
0.919377
0.864938
0.796562
0.71159
0.614239
0.51621
0.430713
0.366243
0.326143
0.311189
0.323409
0.367225
0.443078
0.540486
0.642389
0.736026
0.816869
0.884933
0.940701
0.98392
1.01421
1.03198
1.03898
1.03805
1.03246
1.02508
1.01788
1.01192
1.00748
1.00444
1.0025
1.00134
1.00068
1.00032
1.00014
1.00006
1.00002
1
0.999999
0.999998
0.999998
0.999999
0.999999
0.999999
1
1
1
1
1
1
1
1
1
1
1
1
1
1
1
1
1
1
1
1
1
1
1
1
1
1
1
1
1
1
1
1
1
1
0.999999
1
0.999998
1
1
1.00001
1.00005
1.00017
1.0004
1.00104
1.00242
1.00482
1.0093
1.01646
1.02558
1.0358
1.04393
1.04456
1.03616
1.02076
0.997342
0.962838
0.917091
0.860964
0.792318
0.708596
0.613038
0.516404
0.431476
0.367376
0.328085
0.313551
0.324175
0.364315
0.436778
0.533431
0.636882
0.732384
0.814247
0.882639
0.938601
0.982177
1.01297
1.03127
1.03869
1.03803
1.03259
1.02526
1.01808
1.0121
1.00764
1.00458
1.00262
1.00144
1.00076
1.00038
1.00019
1.00009
1.00004
1.00002
1.00001
1
1
1
1
1
1
1
1
1
1
1
1
1
1
1
1
1
1
1
1
1
1
1
1
1
1
1
1
1
1
1
1
1
1
1
1
1
1
0.999999
0.999998
0.999997
0.999992
0.999987
0.999984
0.999981
1
1.0001
1.00033
1.00091
1.00227
1.00472
1.00909
1.01626
1.02554
1.03561
1.04374
1.04487
1.03646
1.02055
0.997566
0.96409
0.918281
0.861221
0.79275
0.711442
0.619958
0.527392
0.445168
0.382647
0.344673
0.33097
0.340552
0.377056
0.444799
0.538128
0.64033
0.735405
0.81658
0.884
0.939113
0.982192
1.0128
1.03109
1.03854
1.03793
1.03251
1.02521
1.01806
1.01212
1.00769
1.00465
1.0027
1.00151
1.00082
1.00044
1.00023
1.00012
1.00006
1.00003
1.00002
1.00001
1
1
1
1
1
1
1
1
1
1
1
1
1
1
1
1
1
1
1
1
1
1
1
1
1
1
1
1
1
1
1
1
1
1
1
0.999999
0.999999
0.999999
0.999995
0.999993
0.999985
0.999976
0.999964
0.999951
0.999955
1.00002
1.00024
1.00078
1.00206
1.0045
1.00877
1.01575
1.02514
1.03524
1.04336
1.04515
1.03743
1.02143
0.998806
0.967009
0.922826
0.866356
0.798664
0.720059
0.633448
0.546374
0.468609
0.409266
0.373607
0.361259
0.370417
0.403912
0.466557
0.554658
0.652929
0.745118
0.823762
0.88888
0.942145
0.983928
1.0137
1.03145
1.03856
1.03774
1.03223
1.02494
1.01785
1.01199
1.00763
1.00465
1.00273
1.00156
1.00087
1.00048
1.00026
1.00014
1.00008
1.00004
1.00002
1.00001
1.00001
1
1
1
1
1
1
1
1
1
1
1
1
1
1
1
1
1
1
1
1
1
1
1
1
1
1
1
1
1
1
1
1
1
1
1
0.999999
0.999997
0.999994
0.999989
0.99998
0.999965
0.999947
0.99992
0.999914
0.999952
1.00014
1.00064
1.00181
1.00417
1.00831
1.01503
1.02434
1.03461
1.0429
1.04535
1.03881
1.02346
1.00129
0.971252
0.929992
0.876205
0.810809
0.735384
0.653622
0.57235
0.500295
0.445921
0.413895
0.403464
0.412642
0.443794
0.501421
0.582846
0.674591
0.761309
0.835486
0.897003
0.947501
0.987266
1.01559
1.03231
1.03871
1.03745
1.03175
1.02444
1.01743
1.0117
1.00746
1.00457
1.00271
1.00157
1.0009
1.00051
1.00029
1.00017
1.0001
1.00006
1.00003
1.00002
1.00001
1.00001
1
1
1
1
1
1
1
1
1
1
1
1
1
1
1
1
1
1
1
1
1
1
1
1
1
1
1
1
1
1
0.999999
1
1
0.999999
0.999998
0.999997
0.999993
0.999986
0.999975
0.999956
0.999932
0.999895
0.999872
0.999891
1.00003
1.00049
1.00155
1.00374
1.00771
1.01413
1.02317
1.0336
1.04232
1.04552
1.04033
1.02638
1.0052
0.976863
0.938988
0.88964
0.828778
0.758042
0.681557
0.606335
0.541061
0.493037
0.465312
0.456781
0.465956
0.495053
0.547746
0.621456
0.704468
0.783308
0.851193
0.907936
0.954886
0.992017
1.01836
1.03358
1.03893
1.03703
1.03104
1.02371
1.01682
1.01126
1.00719
1.00443
1.00265
1.00156
1.00091
1.00053
1.00031
1.00019
1.00011
1.00006
1.00004
1.00002
1.00001
1.00001
1
1
1
1
1
1
1
1
1
1
1
1
1
1
1
1
1
1
1
1
1
1
1
1
1
1
1
1
1
1
0.999999
1
0.999999
1
0.999998
0.999995
0.999992
0.999984
0.999971
0.999947
0.999919
0.999874
0.999835
0.999837
0.999935
1.00032
1.00128
1.00326
1.00696
1.01305
1.02172
1.03213
1.04145
1.04567
1.04192
1.02976
1.01032
0.983997
0.949521
0.905395
0.850908
0.786899
0.717141
0.649197
0.591917
0.55064
0.526634
0.519195
0.52787
0.554737
0.602328
0.667647
0.740501
0.809765
0.870005
0.921103
0.963924
0.997928
1.02182
1.03515
1.03913
1.03642
1.03009
1.02274
1.01603
1.01069
1.00682
1.00422
1.00255
1.00153
1.00091
1.00054
1.00033
1.0002
1.00012
1.00007
1.00004
1.00003
1.00001
1.00001
1
1
1
1
1
1
1
1
1
1
1
1
1
1
1
1
1
1
1
1
1
1
1
1
1
1
1
1
1
1
1
0.999999
1
0.999999
0.999999
0.999995
0.999991
0.999983
0.999968
0.999942
0.999909
0.999859
0.999805
0.999786
0.999853
1.00016
1.001
1.00276
1.0061
1.01179
1.02005
1.03026
1.04012
1.04564
1.04356
1.03334
1.01613
0.99239
0.961525
0.922782
0.875414
0.819508
0.758284
0.699581
0.651153
0.615842
0.59435
0.587266
0.595056
0.619352
0.661458
0.717914
0.779942
0.838856
0.890816
0.935846
0.974193
1.0047
1.02575
1.03683
1.03921
1.03557
1.02888
1.02156
1.01507
1.01
1.00638
1.00396
1.00242
1.00147
1.00089
1.00054
1.00033
1.00021
1.00013
1.00008
1.00005
1.00003
1.00002
1.00001
1
1
1
1
1
1
1
1
1
1
1
1
1
1
1
1
1
1
1
1
1
1
1
1
1
1
1
1
1
1
0.999999
1
0.999999
0.999999
0.999999
0.999994
0.99999
0.999982
0.999966
0.999939
0.999902
0.999848
0.999784
0.999745
0.999779
1.00001
1.00071
1.00225
1.0052
1.01037
1.01815
1.02805
1.03826
1.04515
1.04507
1.03703
1.02221
1.00141
0.974521
0.941262
0.901025
0.85366
0.802267
0.754013
0.713952
0.683272
0.66368
0.657026
0.663946
0.685363
0.721589
0.768945
0.820105
0.868734
0.912503
0.951491
0.985252
1.01201
1.02988
1.03842
1.03904
1.03442
1.02739
1.02016
1.01395
1.00921
1.00587
1.00366
1.00225
1.00139
1.00086
1.00053
1.00033
1.00021
1.00013
1.00008
1.00005
1.00003
1.00002
1.00001
1.00001
1
1
1
1
1
1
1
1
1
1
1
1
1
1
1
1
1
1
1
1
1
1
1
1
1
1
1
1
1
1
0.999999
0.999999
1
0.999998
0.999996
0.99999
0.999981
0.999965
0.999938
0.999898
0.999843
0.999772
0.999716
0.999716
0.999888
1.00045
1.00174
1.0043
1.00888
1.01603
1.02552
1.0359
1.04402
1.04611
1.04061
1.02837
1.01053
0.987673
0.959831
0.92654
0.887773
0.84657
0.80812
0.774835
0.748055
0.730806
0.725122
0.731172
0.749373
0.779468
0.817865
0.858729
0.897847
0.934097
0.967424
0.996652
1.01946
1.0339
1.0397
1.03847
1.03289
1.02562
1.01856
1.01271
1.00834
1.00531
1.00333
1.00207
1.00129
1.00081
1.00051
1.00033
1.00021
1.00013
1.00008
1.00005
1.00003
1.00002
1.00001
1.00001
1
1
1
1
1
1
1
1
1
1
1
1
1
1
1
1
1
1
1
1
1
1
1
1
1
1
1
1
1
0.999999
1
1
0.999999
0.999998
0.999995
0.99999
0.999982
0.999965
0.999939
0.999899
0.99984
0.999766
0.999698
0.999673
0.999779
1.00022
1.00127
1.00342
1.00738
1.01378
1.02266
1.03303
1.04216
1.04637
1.04366
1.03431
1.01949
1.00034
0.977434
0.950656
0.920135
0.888189
0.857701
0.830033
0.807489
0.793321
0.78879
0.793707
0.808437
0.832472
0.862516
0.894213
0.925126
0.954905
0.983132
1.00794
1.02665
1.03746
1.04042
1.03737
1.03096
1.02357
1.0168
1.01138
1.00743
1.00473
1.00298
1.00187
1.00118
1.00076
1.00049
1.00031
1.0002
1.00013
1.00008
1.00005
1.00003
1.00002
1.00001
1.00001
1
1
1
1
1
1
1
1
1
1
1
1
1
1
1
1
1
1
1
1
1
1
1
1
1
1
1
1
1
0.999999
1
0.999999
0.999999
0.999998
0.999995
0.999991
0.999983
0.999967
0.999941
0.999902
0.999842
0.999769
0.999693