/*--------------------------------*- C++ -*----------------------------------*\
  =========                 |
  \\      /  F ield         | OpenFOAM: The Open Source CFD Toolbox
   \\    /   O peration     | Website:  https://openfoam.org
    \\  /    A nd           | Version:  6
     \\/     M anipulation  |
\*---------------------------------------------------------------------------*/
FoamFile
{
    version     2.0;
    format      ascii;
    class       volScalarField;
    location    "3.87";
    object      rho;
}
// * * * * * * * * * * * * * * * * * * * * * * * * * * * * * * * * * * * * * //

dimensions      [1 -3 0 0 0 0 0];

internalField   nonuniform List<scalar> 
5625
(
1.45005
1.44282
1.4337
1.42346
1.41274
1.4021
1.39197
1.38271
1.37459
1.36782
1.36258
1.35885
1.35652
1.35538
1.35499
1.35482
1.35438
1.35345
1.35195
1.34965
1.34641
1.34271
1.33921
1.33599
1.33319
1.33154
1.33154
1.33282
1.33478
1.33719
1.3399
1.34257
1.34493
1.3469
1.3484
1.34934
1.34989
1.35056
1.35196
1.35443
1.358
1.36259
1.36829
1.37536
1.38412
1.39467
1.40669
1.41936
1.43148
1.4417
1.44889
1.45238
1.45217
1.44882
1.4433
1.43664
1.42976
1.42333
1.41774
1.41314
1.40951
1.40676
1.40473
1.40327
1.40225
1.40154
1.40105
1.40073
1.4005
1.40035
1.40025
1.40018
1.40013
1.40009
1.40007
1.45221
1.44603
1.43776
1.42813
1.41779
1.40731
1.39717
1.38774
1.37927
1.37201
1.36613
1.3617
1.35866
1.35687
1.35602
1.35577
1.3558
1.35582
1.35553
1.35463
1.35315
1.35142
1.34959
1.34762
1.34587
1.34491
1.34474
1.34494
1.34534
1.34608
1.34707
1.34803
1.34884
1.34955
1.35012
1.35049
1.3509
1.35183
1.35374
1.35682
1.36098
1.36614
1.3724
1.38005
1.38932
1.40022
1.41229
1.42461
1.43594
1.445
1.4508
1.4529
1.45148
1.44727
1.44125
1.43444
1.42766
1.42149
1.41621
1.41193
1.4086
1.40609
1.40425
1.40294
1.40202
1.40139
1.40096
1.40066
1.40046
1.40033
1.40023
1.40017
1.40012
1.40009
1.40007
1.45397
1.44899
1.44168
1.43278
1.42295
1.41275
1.40269
1.39316
1.38442
1.37676
1.37034
1.36523
1.36143
1.35888
1.35744
1.35687
1.35684
1.35705
1.35722
1.35715
1.35684
1.3563
1.35547
1.35441
1.35345
1.35281
1.35229
1.35172
1.35128
1.35113
1.35113
1.3511
1.35108
1.35116
1.35132
1.35159
1.35222
1.35364
1.35619
1.35989
1.36463
1.37033
1.37714
1.38531
1.39503
1.40616
1.41812
1.42989
1.44023
1.44795
1.45227
1.45295
1.45038
1.44539
1.43898
1.43211
1.4255
1.41963
1.4147
1.41075
1.40771
1.40545
1.4038
1.40263
1.40181
1.40125
1.40086
1.4006
1.40042
1.4003
1.40022
1.40016
1.40012
1.40008
1.40006
1.45523
1.45158
1.44538
1.43734
1.42813
1.41835
1.40849
1.39894
1.39003
1.38204
1.37515
1.36942
1.36492
1.36167
1.35957
1.35839
1.35787
1.35782
1.35806
1.35835
1.35853
1.35851
1.35824
1.35776
1.35724
1.35667
1.35591
1.35504
1.35431
1.35377
1.35327
1.35278
1.35245
1.35237
1.35254
1.35302
1.35411
1.35617
1.35939
1.3637
1.36897
1.37518
1.38249
1.39113
1.4012
1.41242
1.42407
1.43507
1.44421
1.45045
1.4532
1.45248
1.44884
1.44318
1.43651
1.42967
1.42331
1.41778
1.41321
1.40961
1.40687
1.40484
1.40337
1.40233
1.40161
1.40112
1.40078
1.40055
1.40039
1.40028
1.4002
1.40015
1.40011
1.40008
1.40006
1.45588
1.45367
1.44873
1.4417
1.43326
1.42401
1.41446
1.40502
1.39606
1.38784
1.38054
1.37429
1.36918
1.36527
1.36243
1.36049
1.35936
1.35893
1.35892
1.35905
1.35922
1.35934
1.3593
1.35909
1.35874
1.35818
1.35737
1.35652
1.35579
1.35514
1.35448
1.35391
1.35364
1.35373
1.35416
1.35507
1.35677
1.35952
1.36339
1.36826
1.37401
1.38067
1.38843
1.39747
1.40776
1.41888
1.43
1.44
1.44775
1.45237
1.45353
1.45145
1.44685
1.44068
1.43386
1.42717
1.42111
1.41596
1.41178
1.40852
1.40607
1.40426
1.40297
1.40206
1.40143
1.40099
1.4007
1.40049
1.40035
1.40026
1.40019
1.40014
1.4001
1.40007
1.40006
1.45583
1.45515
1.4516
1.44573
1.4382
1.42963
1.42054
1.41135
1.40243
1.39408
1.38648
1.37981
1.3742
1.36964
1.36606
1.36343
1.36173
1.36073
1.36015
1.35986
1.35983
1.35987
1.3598
1.35959
1.35926
1.35873
1.35802
1.35732
1.35671
1.3561
1.35551
1.35514
1.35517
1.35561
1.35647
1.35795
1.36031
1.36373
1.3682
1.37355
1.37972
1.38678
1.39492
1.40425
1.4146
1.42541
1.43575
1.44452
1.45068
1.4536
1.45318
1.44986
1.44445
1.43791
1.43108
1.42463
1.41894
1.4142
1.41041
1.4075
1.40532
1.40373
1.4026
1.4018
1.40125
1.40088
1.40062
1.40044
1.40032
1.40023
1.40017
1.40013
1.40009
1.40007
1.40005
1.45497
1.45588
1.45384
1.4493
1.44285
1.43511
1.4266
1.41779
1.40906
1.4007
1.39292
1.38596
1.37991
1.37478
1.37058
1.36735
1.36499
1.36329
1.36209
1.36138
1.36102
1.36075
1.36046
1.36016
1.3598
1.3593
1.35873
1.35821
1.35775
1.3573
1.35697
1.35697
1.35741
1.35829
1.35967
1.36176
1.36478
1.36882
1.37378
1.37954
1.38606
1.39346
1.40189
1.41138
1.42159
1.43184
1.44115
1.44844
1.45287
1.45405
1.45212
1.44771
1.44167
1.43493
1.42823
1.4221
1.41683
1.41252
1.40912
1.40654
1.40462
1.40324
1.40226
1.40157
1.4011
1.40077
1.40055
1.4004
1.40029
1.40021
1.40016
1.40012
1.40009
1.40007
1.40005
1.45327
1.45576
1.45532
1.45224
1.44705
1.44029
1.43253
1.42425
1.41583
1.40759
1.39979
1.39264
1.38625
1.38066
1.37596
1.37217
1.36916
1.36681
1.36509
1.36392
1.36308
1.36239
1.36185
1.36143
1.361
1.36051
1.36006
1.35972
1.35942
1.35921
1.35924
1.35969
1.36058
1.36194
1.36386
1.36656
1.37018
1.37473
1.3801
1.38617
1.39297
1.40064
1.40926
1.41872
1.42856
1.43798
1.44597
1.45158
1.45419
1.45366
1.45036
1.44504
1.43858
1.4318
1.42535
1.41962
1.4148
1.41093
1.40792
1.40565
1.40399
1.40279
1.40195
1.40136
1.40096
1.40068
1.40049
1.40035
1.40026
1.40019
1.40014
1.40011
1.40008
1.40006
1.40004
1.45071
1.4547
1.45591
1.45441
1.45061
1.44501
1.43818
1.43058
1.42263
1.41466
1.40698
1.39976
1.39313
1.38724
1.38216
1.37787
1.37429
1.3714
1.36919
1.36751
1.36616
1.3651
1.36433
1.36374
1.36318
1.3627
1.36236
1.36216
1.36206
1.36213
1.36256
1.36346
1.3648
1.36662
1.36907
1.37232
1.37645
1.38141
1.38706
1.39337
1.40038
1.40822
1.41688
1.4261
1.4353
1.44358
1.45
1.45377
1.45453
1.45239
1.44792
1.44192
1.43524
1.4286
1.4225
1.41723
1.41289
1.40945
1.40681
1.40485
1.40341
1.40239
1.40167
1.40117
1.40083
1.40059
1.40043
1.40031
1.40023
1.40017
1.40013
1.4001
1.40007
1.40006
1.40004
1.44733
1.45266
1.45548
1.45564
1.45337
1.44911
1.44337
1.43663
1.4293
1.42177
1.41432
1.40717
1.40048
1.39442
1.38905
1.38435
1.38033
1.37702
1.37434
1.37217
1.3704
1.36905
1.36803
1.36721
1.36653
1.36606
1.36582
1.36574
1.36584
1.36623
1.36705
1.36833
1.37007
1.37233
1.37526
1.37898
1.3835
1.38874
1.39459
1.40104
1.40818
1.41607
1.42458
1.4333
1.44154
1.44839
1.45302
1.45487
1.45384
1.45028
1.44488
1.43845
1.43176
1.4254
1.41974
1.41496
1.4111
1.40809
1.40581
1.40412
1.4029
1.40203
1.40143
1.40101
1.40072
1.40052
1.40038
1.40028
1.40021
1.40016
1.40012
1.40009
1.40007
1.40005
1.40004
1.44324
1.44964
1.45396
1.45579
1.45516
1.45239
1.44792
1.4422
1.43568
1.42874
1.42169
1.41476
1.40816
1.40205
1.39649
1.39152
1.38721
1.38355
1.38048
1.3779
1.37581
1.37419
1.37291
1.37188
1.37112
1.37067
1.37048
1.37051
1.37081
1.37151
1.37267
1.37428
1.37636
1.379
1.38233
1.38642
1.39121
1.39661
1.40256
1.40908
1.41624
1.424
1.43212
1.44004
1.447
1.45216
1.45485
1.45479
1.45213
1.4474
1.44134
1.43473
1.42822
1.42226
1.41711
1.41285
1.40947
1.40686
1.4049
1.40347
1.40244
1.40172
1.40121
1.40086
1.40062
1.40045
1.40033
1.40025
1.40018
1.40014
1.40011
1.40008
1.40006
1.40005
1.40003
1.43864
1.44573
1.45131
1.45475
1.45581
1.45464
1.45159
1.44709
1.44156
1.43539
1.42889
1.42234
1.41599
1.40996
1.40435
1.39927
1.39478
1.39087
1.38748
1.38462
1.38229
1.38042
1.37891
1.37773
1.37693
1.37647
1.37631
1.37644
1.37695
1.37791
1.37934
1.38121
1.38357
1.38653
1.39017
1.39449
1.39943
1.40489
1.41084
1.41734
1.42437
1.4318
1.43922
1.44601
1.45138
1.45464
1.45536
1.45351
1.44946
1.44386
1.43744
1.43089
1.42472
1.41925
1.41465
1.41091
1.40798
1.40576
1.4041
1.4029
1.40204
1.40144
1.40102
1.40073
1.40053
1.40039
1.40029
1.40022
1.40016
1.40012
1.40009
1.40007
1.40005
1.40004
1.40003
1.43374
1.44113
1.44763
1.45247
1.45518
1.4557
1.45421
1.45108
1.44672
1.44148
1.43572
1.42974
1.42376
1.41796
1.41247
1.40741
1.40285
1.39878
1.39522
1.39219
1.38967
1.38759
1.38591
1.38465
1.38382
1.38335
1.38322
1.38345
1.38413
1.38529
1.3869
1.38897
1.39156
1.39475
1.39859
1.40304
1.40799
1.4134
1.41927
1.4256
1.43232
1.43913
1.44554
1.45086
1.4544
1.45567
1.45449
1.45108
1.44597
1.43982
1.43333
1.42705
1.42135
1.41644
1.41239
1.40916
1.40666
1.40479
1.4034
1.40241
1.4017
1.4012
1.40086
1.40062
1.40045
1.40033
1.40025
1.40019
1.40014
1.40011
1.40008
1.40006
1.40005
1.40004
1.40003
1.42882
1.43607
1.44307
1.44899
1.45319
1.45538
1.45556
1.45395
1.45091
1.4468
1.44196
1.4367
1.43126
1.42585
1.42063
1.41573
1.41121
1.40711
1.4035
1.40039
1.39775
1.39554
1.39377
1.39247
1.39159
1.3911
1.39101
1.39135
1.39217
1.39345
1.39518
1.39739
1.40014
1.40349
1.40741
1.41184
1.41671
1.42198
1.42764
1.43363
1.43977
1.44565
1.45069
1.45426
1.45584
1.45515
1.45229
1.44765
1.44183
1.43548
1.42917
1.42331
1.41817
1.41385
1.41035
1.4076
1.4055
1.40394
1.4028
1.40198
1.4014
1.401
1.40072
1.40052
1.40038
1.40029
1.40022
1.40017
1.40013
1.4001
1.40007
1.40006
1.40004
1.40003
1.40003
1.42414
1.43089
1.43791
1.44448
1.44987
1.45358
1.45543
1.45546
1.4539
1.45108
1.44734
1.44298
1.43825
1.43339
1.42859
1.42398
1.41963
1.41565
1.41209
1.40898
1.4063
1.40405
1.40226
1.40094
1.40004
1.39955
1.3995
1.39993
1.40082
1.40218
1.40398
1.40628
1.40912
1.41251
1.4164
1.42071
1.42538
1.43038
1.43566
1.44108
1.44633
1.45093
1.45431
1.45596
1.45557
1.45313
1.44891
1.44343
1.43728
1.43102
1.42509
1.41979
1.41525
1.41152
1.40854
1.40624
1.4045
1.40321
1.40228
1.40161
1.40115
1.40082
1.4006
1.40044
1.40033
1.40025
1.40019
1.40014
1.40011
1.40009
1.40007
1.40005
1.40004
1.40003
1.40002
1.41987
1.42588
1.43252
1.43924
1.44538
1.45034
1.45372
1.45539
1.45543
1.45406
1.45159
1.44829
1.44446
1.44032
1.43608
1.43189
1.42788
1.42414
1.42074
1.41771
1.41508
1.41288
1.41113
1.40981
1.40892
1.40845
1.40845
1.40893
1.40987
1.41125
1.41309
1.41541
1.41825
1.42157
1.4253
1.42936
1.43372
1.43829
1.44298
1.44753
1.45155
1.45456
1.45609
1.45581
1.45364
1.44976
1.4446
1.43869
1.43255
1.42662
1.42123
1.41654
1.41262
1.40945
1.40696
1.40506
1.40364
1.40259
1.40184
1.40131
1.40093
1.40067
1.40049
1.40037
1.40028
1.40021
1.40016
1.40013
1.4001
1.40008
1.40006
1.40004
1.40003
1.40003
1.40002
1.41609
1.42127
1.42725
1.43368
1.44007
1.44582
1.45044
1.45361
1.45525
1.45545
1.45439
1.45235
1.44958
1.44634
1.44283
1.43922
1.43567
1.43229
1.42915
1.42632
1.42384
1.42176
1.42008
1.41881
1.41796
1.41755
1.4176
1.4181
1.41903
1.4204
1.42222
1.42451
1.42724
1.43037
1.43382
1.43751
1.44138
1.44532
1.44912
1.45248
1.45499
1.45623
1.45589
1.45384
1.45022
1.44534
1.43967
1.4337
1.42785
1.42244
1.41767
1.41362
1.4103
1.40766
1.40561
1.40406
1.40291
1.40207
1.40148
1.40105
1.40076
1.40055
1.40041
1.40031
1.40023
1.40018
1.40014
1.40011
1.40008
1.40007
1.40005
1.40004
1.40003
1.40002
1.40002
1.41284
1.41719
1.42236
1.42819
1.43436
1.4404
1.44581
1.45018
1.45327
1.455
1.45545
1.4548
1.45327
1.45109
1.44848
1.44562
1.44268
1.43979
1.43704
1.43451
1.43228
1.43038
1.42883
1.42766
1.42689
1.42655
1.42663
1.42713
1.42803
1.42935
1.43109
1.43324
1.43576
1.43857
1.44159
1.44475
1.44793
1.45097
1.45361
1.45551
1.45633
1.45578
1.45374
1.45027
1.44563
1.44021
1.43444
1.42873
1.42338
1.41859
1.41448
1.41106
1.4083
1.40613
1.40447
1.40322
1.4023
1.40164
1.40117
1.40084
1.40061
1.40045
1.40033
1.40025
1.4002
1.40015
1.40012
1.40009
1.40007
1.40006
1.40004
1.40003
1.40003
1.40002
1.40002
1.41012
1.41368
1.41802
1.42309
1.4287
1.43456
1.44026
1.44538
1.44957
1.45265
1.45455
1.45534
1.45517
1.4542
1.45265
1.45071
1.44853
1.44626
1.44403
1.44193
1.44003
1.43839
1.43704
1.43602
1.43536
1.43509
1.43519
1.43567
1.43651
1.43772
1.4393
1.44121
1.44338
1.44572
1.44816
1.45059
1.45284
1.45473
1.45598
1.45629
1.45544
1.4533
1.4499
1.44546
1.44028
1.43475
1.42923
1.42399
1.41926
1.41514
1.41168
1.40884
1.40659
1.40484
1.40351
1.40253
1.40181
1.40129
1.40092
1.40067
1.40049
1.40036
1.40028
1.40021
1.40016
1.40013
1.4001
1.40008
1.40006
1.40005
1.40004
1.40003
1.40002
1.40002
1.40001
1.40788
1.41074
1.41429
1.41854
1.42343
1.42877
1.43429
1.43964
1.44449
1.44857
1.45169
1.45382
1.45498
1.45531
1.45493
1.45404
1.45277
1.45128
1.4497
1.44813
1.44666
1.44537
1.44429
1.44348
1.44296
1.44275
1.44286
1.44329
1.44403
1.44507
1.44639
1.44792
1.4496
1.45133
1.453
1.45449
1.45563
1.4562
1.45598
1.45476
1.45246
1.44909
1.44481
1.43987
1.43461
1.42932
1.42427
1.41966
1.4156
1.41214
1.40928
1.40697
1.40517
1.40378
1.40273
1.40196
1.4014
1.401
1.40072
1.40053
1.40039
1.40029
1.40022
1.40017
1.40014
1.40011
1.40009
1.40007
1.40005
1.40004
1.40003
1.40003
1.40002
1.40002
1.40001
1.40606
1.40833
1.41118
1.41465
1.41874
1.42339
1.4284
1.43356
1.43857
1.44318
1.44714
1.45032
1.45267
1.45421
1.45502
1.45523
1.45498
1.45438
1.45356
1.45263
1.45169
1.45082
1.45008
1.44951
1.44916
1.44903
1.44914
1.44949
1.45006
1.45085
1.45179
1.45283
1.45389
1.45485
1.45562
1.45604
1.45597
1.45522
1.45364
1.45116
1.44779
1.44366
1.43898
1.434
1.42899
1.42418
1.41975
1.41581
1.41241
1.40958
1.40726
1.40542
1.40399
1.40291
1.4021
1.4015
1.40108
1.40077
1.40056
1.40041
1.40031
1.40024
1.40018
1.40014
1.40011
1.40009
1.40007
1.40006
1.40005
1.40004
1.40003
1.40002
1.40002
1.40001
1.40001
1.40461
1.40638
1.40863
1.41141
1.41475
1.41863
1.42297
1.42762
1.4324
1.43706
1.44141
1.44524
1.44845
1.45098
1.45286
1.45412
1.45485
1.45516
1.45516
1.45495
1.45462
1.45424
1.45388
1.45359
1.45342
1.45337
1.45346
1.4537
1.45406
1.45451
1.45499
1.45544
1.45578
1.4559
1.4557
1.45506
1.45384
1.45195
1.44932
1.44598
1.44202
1.4376
1.43294
1.42825
1.42372
1.41953
1.41576
1.41249
1.40972
1.40744
1.4056
1.40416
1.40304
1.40221
1.40159
1.40114
1.40082
1.40059
1.40043
1.40032
1.40024
1.40019
1.40015
1.40012
1.40009
1.40008
1.40006
1.40005
1.40004
1.40003
1.40003
1.40002
1.40002
1.40001
1.40001
1.40346
1.40483
1.40658
1.40877
1.41143
1.41458
1.41819
1.42219
1.42646
1.43083
1.43513
1.43918
1.44285
1.44603
1.44867
1.45078
1.45238
1.45353
1.45432
1.45481
1.45508
1.45521
1.45526
1.45527
1.45528
1.45531
1.45537
1.45546
1.45556
1.45563
1.45561
1.45545
1.45506
1.45437
1.45328
1.45172
1.4496
1.44689
1.44362
1.43986
1.43574
1.43143
1.4271
1.42291
1.419
1.41546
1.41236
1.4097
1.40749
1.40569
1.40425
1.40314
1.40229
1.40165
1.40119
1.40085
1.40061
1.40045
1.40033
1.40025
1.40019
1.40015
1.40012
1.4001
1.40008
1.40006
1.40005
1.40004
1.40003
1.40003
1.40002
1.40002
1.40001
1.40001
1.40001
1.40257
1.40362
1.40496
1.40666
1.40874
1.41124
1.41416
1.41747
1.4211
1.42496
1.4289
1.43281
1.43654
1.43997
1.44304
1.44568
1.4479
1.44971
1.45113
1.45222
1.45304
1.45363
1.45405
1.45433
1.45451
1.45461
1.45464
1.45458
1.45441
1.4541
1.45361
1.45289
1.45188
1.45052
1.44875
1.44653
1.44385
1.44073
1.43723
1.43345
1.42952
1.42558
1.42176
1.41818
1.41491
1.41202
1.40952
1.40741
1.40568
1.40428
1.40318
1.40233
1.40169
1.40122
1.40088
1.40063
1.40046
1.40034
1.40025
1.40019
1.40015
1.40012
1.4001
1.40008
1.40007
1.40005
1.40004
1.40004
1.40003
1.40002
1.40002
1.40002
1.40001
1.40001
1.40001
1.4019
1.40268
1.4037
1.405
1.4066
1.40855
1.41086
1.41351
1.41649
1.41973
1.42316
1.42667
1.43015
1.43351
1.43665
1.43951
1.44204
1.44423
1.44607
1.44759
1.4488
1.44975
1.45047
1.45097
1.45129
1.45143
1.45141
1.45122
1.45083
1.45021
1.44935
1.44821
1.44676
1.44495
1.44278
1.44024
1.43735
1.43417
1.43077
1.42726
1.42374
1.42032
1.4171
1.41413
1.41148
1.40917
1.4072
1.40556
1.40423
1.40317
1.40234
1.40171
1.40123
1.40088
1.40064
1.40046
1.40034
1.40025
1.40019
1.40015
1.40012
1.4001
1.40008
1.40006
1.40005
1.40004
1.40004
1.40003
1.40002
1.40002
1.40002
1.40001
1.40001
1.40001
1.40001
1.40138
1.40197
1.40274
1.40372
1.40494
1.40643
1.40821
1.4103
1.41267
1.4153
1.41815
1.42113
1.42419
1.42723
1.43018
1.43297
1.43553
1.43783
1.43985
1.44158
1.44302
1.44418
1.44507
1.44572
1.44613
1.4463
1.44623
1.44594
1.44539
1.44459
1.4435
1.44212
1.44044
1.43845
1.43615
1.43358
1.43077
1.42779
1.42472
1.42164
1.41864
1.41579
1.41315
1.41078
1.40868
1.40687
1.40535
1.4041
1.4031
1.4023
1.40169
1.40122
1.40088
1.40063
1.40045
1.40033
1.40024
1.40018
1.40014
1.40011
1.40009
1.40008
1.40006
1.40005
1.40004
1.40004
1.40003
1.40002
1.40002
1.40002
1.40001
1.40001
1.40001
1.40001
1.40001
1.401
1.40144
1.40201
1.40274
1.40365
1.40478
1.40614
1.40774
1.40959
1.41166
1.41395
1.41639
1.41895
1.42156
1.42415
1.42666
1.42904
1.43124
1.43323
1.43497
1.43646
1.43768
1.43864
1.43934
1.43978
1.43996
1.43988
1.43952
1.4389
1.43802
1.43685
1.43541
1.4337
1.43173
1.42953
1.42714
1.42461
1.42199
1.41936
1.41678
1.41432
1.41202
1.40993
1.40806
1.40644
1.40506
1.40391
1.40297
1.40222
1.40164
1.40119
1.40086
1.40062
1.40044
1.40032
1.40023
1.40017
1.40013
1.40011
1.40009
1.40007
1.40006
1.40005
1.40004
1.40004
1.40003
1.40003
1.40002
1.40002
1.40001
1.40001
1.40001
1.40001
1.40001
1.40001
1.40072
1.40104
1.40146
1.402
1.40268
1.40352
1.40454
1.40575
1.40716
1.40877
1.41055
1.41249
1.41455
1.41669
1.41885
1.421
1.42307
1.42503
1.42682
1.42844
1.42984
1.43101
1.43194
1.43262
1.43304
1.43321
1.43312
1.43276
1.43214
1.43127
1.43014
1.42877
1.42718
1.42539
1.42342
1.42133
1.41917
1.41698
1.41482
1.41274
1.41077
1.40897
1.40734
1.40592
1.40468
1.40365
1.40279
1.40211
1.40156
1.40114
1.40082
1.40059
1.40042
1.4003
1.40022
1.40016
1.40012
1.4001
1.40008
1.40006
1.40005
1.40005
1.40004
1.40003
1.40003
1.40002
1.40002
1.40002
1.40001
1.40001
1.40001
1.40001
1.40001
1.40001
1.40001
1.40052
1.40076
1.40106
1.40146
1.40196
1.40258
1.40333
1.40423
1.40529
1.4065
1.40787
1.40937
1.41098
1.41267
1.41441
1.41616
1.41788
1.41953
1.42107
1.42247
1.4237
1.42473
1.42557
1.42618
1.42656
1.4267
1.42661
1.42628
1.42571
1.42492
1.4239
1.42269
1.4213
1.41976
1.4181
1.41636
1.41459
1.41282
1.4111
1.40946
1.40794
1.40656
1.40533
1.40426
1.40334
1.40258
1.40195
1.40146
1.40107
1.40077
1.40055
1.40039
1.40028
1.4002
1.40015
1.40011
1.40009
1.40007
1.40006
1.40005
1.40004
1.40004
1.40003
1.40003
1.40002
1.40002
1.40002
1.40002
1.40001
1.40001
1.40001
1.40001
1.40001
1.40001
1.40001
1.40038
1.40055
1.40077
1.40106
1.40142
1.40187
1.40243
1.40309
1.40387
1.40478
1.4058
1.40693
1.40816
1.40947
1.41083
1.41221
1.41358
1.4149
1.41616
1.41731
1.41834
1.41921
1.41991
1.42043
1.42075
1.42087
1.42078
1.42049
1.41999
1.41931
1.41845
1.41743
1.41628
1.41501
1.41366
1.41227
1.41086
1.40948
1.40815
1.40689
1.40574
1.4047
1.40378
1.40299
1.40233
1.40178
1.40133
1.40098
1.40071
1.40051
1.40036
1.40025
1.40018
1.40013
1.40009
1.40007
1.40006
1.40005
1.40004
1.40004
1.40003
1.40003
1.40003
1.40002
1.40002
1.40002
1.40001
1.40001
1.40001
1.40001
1.40001
1.40001
1.40001
1.40001
1.40001
1.40028
1.4004
1.40056
1.40077
1.40103
1.40135
1.40176
1.40224
1.40281
1.40347
1.40423
1.40507
1.40599
1.40698
1.40801
1.40907
1.41013
1.41116
1.41215
1.41306
1.41388
1.41458
1.41515
1.41556
1.41581
1.41591
1.41583
1.41558
1.41517
1.41461
1.41391
1.41308
1.41215
1.41115
1.41009
1.409
1.40792
1.40686
1.40586
1.40492
1.40406
1.40329
1.40263
1.40205
1.40158
1.40119
1.40088
1.40064
1.40045
1.40032
1.40022
1.40015
1.4001
1.40008
1.40006
1.40004
1.40004
1.40003
1.40003
1.40003
1.40003
1.40002
1.40002
1.40002
1.40002
1.40001
1.40001
1.40001
1.40001
1.40001
1.40001
1.40001
1.40001
1.40001
1.40001
1.40021
1.40029
1.40041
1.40056
1.40075
1.40098
1.40127
1.40162
1.40203
1.40251
1.40306
1.40367
1.40435
1.40508
1.40585
1.40664
1.40744
1.40822
1.40897
1.40967
1.41031
1.41084
1.41128
1.4116
1.4118
1.41186
1.41179
1.41159
1.41126
1.41082
1.41026
1.40961
1.40888
1.40811
1.4073
1.40647
1.40565
1.40486
1.40412
1.40343
1.4028
1.40225
1.40177
1.40137
1.40103
1.40076
1.40055
1.40039
1.40027
1.40019
1.40012
1.40008
1.40006
1.40004
1.40003
1.40003
1.40002
1.40002
1.40002
1.40002
1.40002
1.40002
1.40002
1.40002
1.40001
1.40001
1.40001
1.40001
1.40001
1.40001
1.40001
1.40001
1.40001
1.40001
1.40001
1.40016
1.40022
1.40031
1.40041
1.40054
1.40071
1.40092
1.40117
1.40146
1.4018
1.4022
1.40264
1.40313
1.40366
1.40422
1.4048
1.40539
1.40597
1.40653
1.40705
1.40752
1.40792
1.40825
1.40849
1.40863
1.40867
1.40861
1.40845
1.40819
1.40784
1.40741
1.40692
1.40637
1.40578
1.40517
1.40455
1.40395
1.40337
1.40283
1.40233
1.40188
1.40149
1.40116
1.40088
1.40065
1.40047
1.40033
1.40022
1.40015
1.40009
1.40006
1.40004
1.40002
1.40002
1.40002
1.40001
1.40001
1.40002
1.40002
1.40002
1.40002
1.40001
1.40001
1.40001
1.40001
1.40001
1.40001
1.40001
1.40001
1.40001
1.40001
1.40001
1.40001
1.40001
1.40001
1.40012
1.40017
1.40023
1.40031
1.4004
1.40052
1.40067
1.40084
1.40105
1.4013
1.40158
1.40189
1.40224
1.40261
1.40301
1.40343
1.40386
1.40428
1.40468
1.40506
1.40541
1.4057
1.40593
1.4061
1.4062
1.40622
1.40617
1.40604
1.40584
1.40557
1.40525
1.40487
1.40446
1.40403
1.40358
1.40313
1.40269
1.40228
1.40189
1.40154
1.40123
1.40095
1.40072
1.40053
1.40038
1.40027
1.40018
1.40011
1.40007
1.40004
1.40002
1.40001
1.40001
1.4
1.4
1.40001
1.40001
1.40001
1.40001
1.40001
1.40001
1.40001
1.40001
1.40001
1.40001
1.40001
1.40001
1.40001
1.40001
1.40001
1.40001
1.40001
1.40001
1.40001
1.40001
1.40009
1.40013
1.40018
1.40023
1.4003
1.40039
1.40049
1.40061
1.40076
1.40093
1.40113
1.40135
1.4016
1.40186
1.40214
1.40243
1.40273
1.40304
1.40332
1.40359
1.40383
1.40404
1.4042
1.40432
1.40438
1.40439
1.40434
1.40424
1.40409
1.40389
1.40364
1.40336
1.40306
1.40274
1.40242
1.4021
1.40179
1.40149
1.40122
1.40098
1.40076
1.40058
1.40043
1.4003
1.40021
1.40013
1.40008
1.40004
1.40002
1.4
1.39999
1.39999
1.39999
1.39999
1.4
1.4
1.4
1.40001
1.40001
1.40001
1.40001
1.40001
1.40001
1.40001
1.40001
1.40001
1.40001
1.40001
1.40001
1.40001
1.40001
1.40001
1.40001
1.40001
1.40001
1.40008
1.4001
1.40013
1.40018
1.40023
1.40029
1.40036
1.40045
1.40055
1.40068
1.40081
1.40096
1.40113
1.40132
1.40152
1.40172
1.40192
1.40213
1.40233
1.40252
1.40268
1.40282
1.40293
1.40301
1.40305
1.40305
1.403
1.40292
1.40281
1.40266
1.40248
1.40227
1.40205
1.40182
1.40159
1.40137
1.40115
1.40094
1.40076
1.40059
1.40045
1.40033
1.40023
1.40015
1.40009
1.40004
1.40001
1.4
1.39998
1.39998
1.39998
1.39998
1.39999
1.39999
1.39999
1.4
1.4
1.4
1.40001
1.40001
1.40001
1.40001
1.40001
1.40001
1.40001
1.40001
1.40001
1.40001
1.40001
1.40001
1.40001
1.40001
1.40001
1.40001
1.40001
1.40006
1.40008
1.40011
1.40014
1.40018
1.40022
1.40027
1.40033
1.40041
1.40049
1.40058
1.40069
1.40081
1.40093
1.40106
1.40121
1.40135
1.40149
1.40162
1.40174
1.40186
1.40195
1.40202
1.40207
1.40209
1.40208
1.40204
1.40198
1.40189
1.40177
1.40164
1.4015
1.40134
1.40118
1.40101
1.40086
1.4007
1.40057
1.40044
1.40033
1.40024
1.40016
1.4001
1.40005
1.40002
1.39999
1.39998
1.39997
1.39997
1.39997
1.39997
1.39998
1.39998
1.39999
1.39999
1.4
1.4
1.4
1.40001
1.40001
1.40001
1.40001
1.40001
1.40001
1.40001
1.40001
1.40001
1.40001
1.40001
1.40001
1.40001
1.40001
1.40001
1.40001
1.40001
1.40005
1.40007
1.40009
1.40011
1.40014
1.40017
1.40021
1.40025
1.40031
1.40036
1.40043
1.4005
1.40058
1.40067
1.40076
1.40085
1.40094
1.40104
1.40113
1.40121
1.40127
1.40133
1.40138
1.4014
1.40141
1.4014
1.40136
1.40131
1.40125
1.40116
1.40106
1.40096
1.40085
1.40073
1.40062
1.40051
1.40041
1.40032
1.40023
1.40016
1.4001
1.40006
1.40002
1.39999
1.39997
1.39996
1.39996
1.39996
1.39996
1.39997
1.39997
1.39998
1.39998
1.39999
1.39999
1.4
1.4
1.4
1.4
1.4
1.40001
1.40001
1.40001
1.40001
1.40001
1.40001
1.40001
1.40001
1.40001
1.40001
1.40001
1.40001
1.40001
1.40001
1.40001
1.40005
1.40006
1.40007
1.40009
1.40011
1.40013
1.40016
1.40019
1.40023
1.40027
1.40032
1.40037
1.40042
1.40048
1.40054
1.4006
1.40066
1.40072
1.40078
1.40083
1.40087
1.40091
1.40093
1.40094
1.40094
1.40092
1.4009
1.40085
1.4008
1.40074
1.40067
1.4006
1.40052
1.40044
1.40036
1.40028
1.40022
1.40016
1.4001
1.40006
1.40002
1.39999
1.39997
1.39996
1.39995
1.39995
1.39995
1.39995
1.39996
1.39997
1.39997
1.39998
1.39998
1.39999
1.39999
1.4
1.4
1.4
1.4
1.4
1.40001
1.40001
1.40001
1.40001
1.40001
1.40001
1.40001
1.40001
1.40001
1.40001
1.40001
1.40001
1.40001
1.4
1.40001
1.40004
1.40004
1.40006
1.40007
1.40009
1.4001
1.40013
1.40015
1.40018
1.4002
1.40024
1.40027
1.40031
1.40034
1.40038
1.40043
1.40047
1.4005
1.40054
1.40057
1.40059
1.40061
1.40062
1.40063
1.40062
1.4006
1.40058
1.40054
1.4005
1.40046
1.4004
1.40035
1.4003
1.40024
1.40019
1.40014
1.40009
1.40006
1.40002
1.4
1.39998
1.39996
1.39995
1.39994
1.39994
1.39995
1.39995
1.39996
1.39996
1.39997
1.39998
1.39998
1.39999
1.39999
1.4
1.4
1.4
1.4
1.4
1.4
1.4
1.40001
1.40001
1.40001
1.40001
1.40001
1.40001
1.40001
1.40001
1.40001
1.40001
1.40001
1.40001
1.40001
1.40001
1.40003
1.40004
1.40005
1.40006
1.40007
1.40009
1.4001
1.40011
1.40014
1.40016
1.40018
1.4002
1.40023
1.40026
1.40028
1.4003
1.40033
1.40035
1.40038
1.40039
1.4004
1.40041
1.40041
1.40041
1.4004
1.40039
1.40037
1.40034
1.40031
1.40027
1.40024
1.4002
1.40016
1.40012
1.40008
1.40005
1.40002
1.4
1.39998
1.39996
1.39995
1.39995
1.39994
1.39994
1.39995
1.39995
1.39995
1.39996
1.39997
1.39997
1.39998
1.39998
1.39999
1.39999
1.4
1.4
1.4
1.4
1.4
1.4
1.40001
1.40001
1.40001
1.40001
1.40001
1.40001
1.40001
1.40001
1.40001
1.40001
1.40001
1.40001
1.4
1.4
1.4
1.40002
1.40003
1.40004
1.40005
1.40006
1.40006
1.40008
1.4001
1.40011
1.40012
1.40014
1.40016
1.40017
1.40019
1.40021
1.40023
1.40024
1.40025
1.40026
1.40027
1.40028
1.40028
1.40028
1.40027
1.40026
1.40024
1.40023
1.40021
1.40018
1.40015
1.40013
1.4001
1.40007
1.40005
1.40002
1.4
1.39998
1.39997
1.39996
1.39995
1.39994
1.39994
1.39994
1.39994
1.39995
1.39995
1.39996
1.39997
1.39997
1.39998
1.39998
1.39999
1.39999
1.39999
1.4
1.4
1.4
1.4
1.4
1.4
1.4
1.4
1.40001
1.40001
1.40001
1.40001
1.40001
1.40001
1.4
1.4
1.40001
1.40001
1.40001
1.40001
1.40001
1.40003
1.40003
1.40003
1.40004
1.40005
1.40006
1.40006
1.40007
1.40009
1.4001
1.40011
1.40012
1.40013
1.40015
1.40015
1.40016
1.40018
1.40018
1.40018
1.40019
1.40019
1.40019
1.40019
1.40018
1.40017
1.40015
1.40014
1.40012
1.4001
1.40008
1.40006
1.40004
1.40002
1.4
1.39999
1.39997
1.39996
1.39996
1.39995
1.39995
1.39994
1.39994
1.39995
1.39995
1.39995
1.39996
1.39997
1.39997
1.39998
1.39998
1.39999
1.39999
1.39999
1.4
1.4
1.4
1.4
1.4
1.4
1.4
1.4
1.4
1.4
1.4
1.40001
1.40001
1.40001
1.40001
1.40001
1.40001
1.40001
1.40001
1.4
1.40001
1.4
1.40001
1.40002
1.40003
1.40003
1.40003
1.40004
1.40006
1.40006
1.40007
1.40008
1.40009
1.4001
1.4001
1.40011
1.40012
1.40012
1.40013
1.40013
1.40014
1.40014
1.40013
1.40013
1.40012
1.40012
1.40011
1.4001
1.40008
1.40007
1.40005
1.40004
1.40002
1.40001
1.4
1.39998
1.39997
1.39996
1.39996
1.39995
1.39995
1.39995
1.39995
1.39995
1.39995
1.39996
1.39996
1.39997
1.39997
1.39998
1.39998
1.39999
1.39999
1.39999
1.4
1.4
1.4
1.4
1.4
1.4
1.4
1.4
1.4
1.40001
1.40001
1.40001
1.4
1.4
1.4
1.4
1.4
1.40001
1.40001
1.40001
1.40001
1.40001
1.40001
1.40002
1.40001
1.40002
1.40003
1.40003
1.40004
1.40004
1.40005
1.40006
1.40006
1.40007
1.40007
1.40008
1.40009
1.40009
1.4001
1.4001
1.4001
1.4001
1.4001
1.4001
1.40009
1.40009
1.40008
1.40007
1.40006
1.40005
1.40004
1.40003
1.40002
1.4
1.39999
1.39998
1.39997
1.39997
1.39996
1.39996
1.39995
1.39995
1.39995
1.39995
1.39996
1.39996
1.39996
1.39997
1.39997
1.39998
1.39998
1.39999
1.39999
1.39999
1.39999
1.4
1.4
1.4
1.4
1.4
1.4
1.4
1.4
1.4
1.4
1.40001
1.40001
1.40001
1.40001
1.40001
1.40001
1.40001
1.4
1.4
1.4
1.4
1.4
1.4
1.40001
1.40002
1.40002
1.40002
1.40002
1.40003
1.40004
1.40004
1.40004
1.40005
1.40006
1.40006
1.40006
1.40007
1.40007
1.40007
1.40008
1.40007
1.40007
1.40007
1.40007
1.40007
1.40006
1.40005
1.40005
1.40004
1.40003
1.40002
1.40001
1.4
1.39999
1.39999
1.39998
1.39997
1.39997
1.39996
1.39996
1.39996
1.39996
1.39996
1.39996
1.39997
1.39997
1.39997
1.39998
1.39998
1.39998
1.39999
1.39999
1.39999
1.4
1.4
1.4
1.4
1.4
1.4
1.4
1.4
1.4
1.4
1.4
1.4
1.4
1.4
1.4
1.40001
1.40001
1.40001
1.40001
1.40001
1.40001
1.40001
1.40001
1.40001
1.40001
1.40001
1.40001
1.40002
1.40002
1.40002
1.40002
1.40003
1.40003
1.40004
1.40004
1.40004
1.40005
1.40005
1.40005
1.40005
1.40006
1.40006
1.40006
1.40006
1.40006
1.40005
1.40005
1.40004
1.40004
1.40003
1.40003
1.40002
1.40001
1.4
1.4
1.39999
1.39998
1.39998
1.39997
1.39997
1.39997
1.39997
1.39997
1.39997
1.39997
1.39997
1.39997
1.39998
1.39998
1.39998
1.39999
1.39999
1.39999
1.39999
1.39999
1.4
1.4
1.4
1.4
1.4
1.4
1.4
1.4
1.4
1.4
1.4
1.40001
1.40001
1.40001
1.4
1.4
1.4
1.4
1.4
1.40001
1.40001
1.40001
1.40001
1.40001
1.40001
1.40001
1.40001
1.40001
1.40001
1.40002
1.40002
1.40002
1.40003
1.40003
1.40003
1.40003
1.40004
1.40004
1.40004
1.40004
1.40004
1.40004
1.40004
1.40004
1.40004
1.40004
1.40004
1.40003
1.40003
1.40002
1.40002
1.40001
1.40001
1.4
1.39999
1.39999
1.39999
1.39998
1.39998
1.39998
1.39997
1.39997
1.39997
1.39998
1.39998
1.39998
1.39998
1.39998
1.39998
1.39999
1.39999
1.39999
1.39999
1.4
1.4
1.4
1.4
1.4
1.4
1.4
1.4
1.4
1.4
1.4
1.4
1.4
1.4
1.4
1.40001
1.40001
1.40001
1.40001
1.40001
1.40001
1.4
1.4
1.40001
1.40001
1.40001
1.40001
1.40001
1.40001
1.40001
1.40001
1.40001
1.40002
1.40002
1.40002
1.40002
1.40003
1.40003
1.40003
1.40003
1.40003
1.40003
1.40003
1.40004
1.40003
1.40003
1.40003
1.40003
1.40003
1.40002
1.40002
1.40002
1.40001
1.40001
1.4
1.4
1.4
1.39999
1.39999
1.39998
1.39998
1.39998
1.39998
1.39998
1.39998
1.39998
1.39998
1.39998
1.39999
1.39999
1.39999
1.39999
1.39999
1.39999
1.4
1.4
1.4
1.4
1.4
1.4
1.4
1.4
1.4
1.4
1.4
1.4
1.4
1.4
1.4
1.4
1.4
1.4
1.4
1.4
1.40001
1.40001
1.40001
1.40001
1.40001
1.40001
1.40001
1.40001
1.40001
1.40001
1.40001
1.40001
1.40001
1.40001
1.40001
1.40002
1.40002
1.40002
1.40002
1.40002
1.40003
1.40003
1.40003
1.40003
1.40003
1.40003
1.40003
1.40003
1.40003
1.40002
1.40002
1.40002
1.40001
1.40001
1.40001
1.4
1.4
1.4
1.39999
1.39999
1.39999
1.39999
1.39999
1.39999
1.39999
1.39999
1.39999
1.39999
1.39999
1.39999
1.39999
1.39999
1.39999
1.4
1.4
1.4
1.4
1.4
1.4
1.4
1.4
1.4
1.4
1.4
1.4
1.4
1.4
1.4
1.40001
1.40001
1.40001
1.40001
1.40001
1.40001
1.4
1.4
1.4
1.4
1.4
1.40001
1.40001
1.40001
1.4
1.40001
1.40001
1.40001
1.40001
1.40001
1.40001
1.40001
1.40001
1.40002
1.40002
1.40002
1.40002
1.40002
1.40002
1.40002
1.40002
1.40002
1.40002
1.40002
1.40002
1.40002
1.40002
1.40002
1.40001
1.40001
1.40001
1.40001
1.4
1.4
1.4
1.39999
1.39999
1.39999
1.39999
1.39999
1.39999
1.39999
1.39999
1.39999
1.39999
1.39999
1.39999
1.4
1.4
1.4
1.4
1.4
1.4
1.4
1.4
1.4
1.4
1.4
1.4
1.4