/*--------------------------------*- C++ -*----------------------------------*\
  =========                 |
  \\      /  F ield         | OpenFOAM: The Open Source CFD Toolbox
   \\    /   O peration     | Website:  https://openfoam.org
    \\  /    A nd           | Version:  6
     \\/     M anipulation  |
\*---------------------------------------------------------------------------*/
FoamFile
{
    version     2.0;
    format      ascii;
    class       surfaceScalarField;
    location    "1.66";
    object      phi;
}
// * * * * * * * * * * * * * * * * * * * * * * * * * * * * * * * * * * * * * //

dimensions      [0 3 -1 0 0 0 0];

internalField   nonuniform List<scalar> 
1540
(
-0.280929
0.0968386
0.43041
-0.710877
0.448505
-0.0176346
0.428112
0.0208549
0.423081
0.00549222
0.418012
0.00553091
0.412811
0.0056625
0.407787
0.00548528
0.404424
0.003824
0.398095
0.00679008
0.396001
0.00209438
0.388641
0.00736002
0.381821
0.00682002
0.379511
0.00231005
0.364446
0.0150648
0.371675
-0.00722935
0.347664
0.0240114
0.352231
-0.00456747
0.316733
0.035498
0.316733
-0.250784
0.348084
-0.109526
-0.851674
0.149465
-0.276164
0.145374
0.0254075
0.144031
0.00729731
0.142167
0.00785644
0.142567
0.00572381
0.138899
0.00961473
0.145167
-0.00198303
0.141997
0.0104213
0.144963
-0.000871169
0.156621
-0.00429875
0.146152
0.0172896
0.168044
-0.0195818
0.148514
0.0345946
0.177408
-0.0361241
0.177543
0.0238772
0.185601
-0.0126253
0.22774
-0.00664188
0.544474
-0.00629745
0.354843
0.166782
-1.02429
0.051059
-0.15998
-0.0301279
0.107056
-0.0280765
0.00570747
-0.00235708
-0.0174017
0.00932099
-0.00549237
0.0108046
0.00859218
0.0281111
-0.0188277
0.0271482
0.0118451
0.0315327
-0.00525591
0.0393756
-0.0121419
0.0410678
0.0155977
0.0628181
-0.041332
0.0572634
0.0401492
0.0856612
-0.0645219
0.10577
0.00376799
0.109384
-0.016239
0.144781
-0.0420387
0.689254
-0.177723
0.533027
-0.134093
-1.06746
0.0553502
-0.348963
0.00949644
0.153371
-0.0578666
0.073532
-0.0239828
-0.0508241
-0.0276916
-0.00132165
-0.00348291
-0.0151555
0.00272721
-0.024576
-0.000430771
0.015464
0.0105023
-0.0161892
0.0291937
-0.0308336
0.0336658
0.0111257
0.0368032
-0.0444693
0.0340568
0.0428955
0.0680024
-0.0984675
0.0712031
0.000567348
0.0744721
-0.019508
0.0939516
-0.0615183
0.783206
0.0175915
0.515897
0.112858
-1.16226
0.0139112
-0.249555
-0.0335584
0.201302
-0.0188337
0.0592688
-0.00376796
-0.0654286
0.000371784
-0.00499954
-0.00125592
-0.0130667
0.000969717
-0.0263399
0.00766475
0.00923
0.00535411
-0.0138787
0.00930785
-0.0347876
0.0242207
-0.0037869
0.0126304
-0.0328788
0.023123
0.0324027
0.043088
-0.118433
0.0574153
-0.0137599
0.0563949
-0.0184877
0.0552408
-0.0603643
0.838447
-0.143843
0.660201
-0.141168
-1.16448
0.00539638
-0.395658
-0.0225976
0.229758
-0.0538337
0.0909663
-0.0137384
-0.105062
-0.0303593
0.0120832
-0.0138042
-0.0291608
-0.0017965
-0.0378857
0.00432674
0.00356775
-0.00478313
-0.00476908
0.00630313
-0.0458742
0.0108237
-0.00830724
0.0122014
-0.0342564
0.0164134
0.0281906
0.0318025
-0.133822
0.0365921
-0.0185495
0.0532963
-0.0351918
0.0354343
-0.0425023
0.873881
0.0308683
0.629794
0.0890401
-1.22219
-0.0207307
-0.285426
-0.0524057
0.261894
-0.0247932
0.0638153
-0.024035
-0.105359
-0.0191268
0.00763685
-0.00997794
-0.0378485
-0.0139167
-0.0334852
-0.00329498
-0.00659294
8.21801e-05
-0.00814642
-0.00308594
-0.0427063
0.0173453
-0.0287383
0.0197179
-0.0366289
0.0212486
0.0266598
0.00950549
-0.122079
0.0255566
-0.0346005
0.0406253
-0.0502606
0.0196964
-0.0215734
0.893578
-0.123791
0.754046
-0.151574
-1.19394
-0.0373326
-0.399205
-0.0297766
0.254799
-0.0465006
0.0810008
-0.00894946
-0.142449
-0.0125484
0.0116977
-0.0160203
-0.0339154
-0.0148713
-0.0341725
-0.00785024
-0.0131529
-0.0117599
-0.00423694
0.00371762
-0.0581842
0.000769117
-0.0257895
-0.00397124
-0.0318884
0.000559033
0.0221293
0.0148113
-0.136331
0.0201428
-0.039932
0.0398414
-0.0699592
0.00973924
0.00852872
0.903317
0.0420651
0.712443
0.0870696
-1.23849
-0.0352198
-0.276455
-0.0593989
0.27944
-0.0200525
0.0421158
-0.0301372
-0.131903
-0.0271059
0.00912812
-0.00729577
-0.0532643
-0.0103438
-0.0306628
-6.3569e-05
-0.022972
-0.000346457
-0.00395423
-0.00613719
-0.0523937
0.0020773
-0.0340038
-0.00179547
-0.0280155
0.00528936
0.0150443
0.00060085
-0.131643
0.0163374
-0.0556686
0.0215709
-0.0751927
0.00401823
0.0260814
0.907335
-0.115104
0.828008
-0.172251
-1.18088
-0.0764313
-0.371813
-0.026083
0.229553
-0.0372875
0.0537819
-0.0208418
-0.147887
-0.019684
0.00843223
-0.0209844
-0.0515027
-0.0207788
-0.0304066
-0.0111009
-0.0321889
-0.00964687
-0.00540842
-0.00395744
-0.0580834
-0.0103673
-0.0275937
-0.00232717
-0.0360555
0.000330812
0.0123862
0.0115866
-0.142898
0.0143451
-0.058427
0.0164539
-0.0773014
-0.00857286
0.0511081
0.898762
0.054287
0.774182
0.0885466
-1.21468
-0.0385615
-0.244244
-0.0646258
0.256079
-0.0316515
0.0212691
-0.0280267
-0.151051
-0.026952
0.00781933
-0.0109497
-0.0670438
-0.0176766
-0.023218
-0.0031745
-0.0462298
-0.00257666
-0.00600643
-0.00684325
-0.0538171
-0.00341565
-0.0310211
-0.0134033
-0.0260677
-0.00354735
0.0025301
-0.0104813
-0.135964
-0.000147631
-0.0687607
7.27494e-05
-0.0775218
-0.00458935
0.0557702
0.894173
-0.114975
0.889618
-0.18373
-1.14546
-0.0935076
-0.334005
-0.0216947
0.184727
-0.041845
0.0418809
-0.0296385
-0.162796
-0.0261802
0.00482282
-0.0235002
-0.0692624
-0.0200734
-0.026183
-0.0144543
-0.0513876
-0.00779899
-0.012662
-0.0162736
-0.0453428
-0.0242268
-0.0230677
-0.00336474
-0.0469296
-0.00392968
0.00309489
-0.000687722
-0.139206
0.00295985
-0.0724083
0.00222887
-0.0767908
-0.0218734
0.0798724
0.872299
0.0645375
0.825542
0.0718253
-1.15229
-0.0410182
-0.2207
-0.0456349
0.189805
-0.0440119
0.0407194
-0.0175603
-0.188786
-0.0189468
0.00667105
-0.0105791
-0.0771688
-0.0124054
-0.0238951
-0.000671428
-0.0626604
0.000893423
-0.014227
0.000709062
-0.0451587
-0.00600804
-0.0163504
-0.0218722
-0.0310653
-0.0097161
-0.00906134
-0.0198408
-0.129082
-0.0128208
-0.0794282
-0.0143573
-0.0752544
-0.0102052
0.0757203
0.862094
-0.113881
0.939885
-0.173377
-1.09233
-0.0845083
-0.309108
-0.0154569
0.121216
-0.0501211
0.075845
-0.0348131
-0.203633
-0.0265739
-0.00110635
-0.0235925
-0.0796888
-0.0181675
-0.0288583
-0.0169031
-0.0634634
-0.00720799
-0.0239223
-0.0188323
-0.0335347
-0.0228664
-0.0123161
-0.00677919
-0.0471524
-0.0140925
-0.00174819
-0.00740936
-0.135765
-0.00445382
-0.0823837
-0.00802957
-0.0716787
-0.0303166
0.0980073
0.831778
0.0680857
0.87226
0.0409345
-1.06472
-0.056297
-0.211415
-0.0139518
0.0793319
-0.043725
0.10608
-0.0102849
-0.236612
-0.00503653
-0.00589298
-0.00614348
-0.0781207
-0.00669941
-0.0278407
-8.23986e-05
-0.0696192
0.00214622
-0.0261511
-0.00110125
-0.0302875
-0.0148789
0.0014618
-0.0269234
-0.0351078
-0.0173966
-0.0112751
-0.0265608
-0.126601
-0.0202765
-0.0886679
-0.0243198
-0.0676354
-0.0139438
0.0876314
0.817834
-0.103532
0.976254
-0.147905
-1.01988
-0.0923429
-0.266516
-0.0308568
0.0183074
-0.0468283
0.122513
-0.0400519
-0.242927
-0.0259577
-0.0195253
-0.0323631
-0.0712539
-0.0277782
-0.0319639
-0.022594
-0.074342
-0.0124284
-0.0363168
-0.0160161
-0.0267
-0.0191898
0.00463571
-0.00722345
-0.047074
-0.0154638
-0.00303488
-0.0117826
-0.130282
-0.0105088
-0.0899417
-0.0141207
-0.0640235
-0.0356366
0.109147
0.782197
0.0648163
0.911899
0.0114617
-0.966065
-0.0772568
-0.177336
-0.0147303
-0.0437576
-0.0316016
0.139845
-0.0144806
-0.259586
0.00175688
-0.0353011
0.0141092
-0.083145
0.00819222
-0.0255853
-0.00104223
-0.0646463
-0.00311648
-0.0342427
-0.00543783
-0.0243789
-0.0209492
0.0201473
-0.0314649
-0.0365582
-0.0229746
-0.0115253
-0.0272692
-0.125987
-0.0247102
-0.0925007
-0.0330921
-0.0556416
-0.0164254
0.0924805
0.765772
-0.0848881
0.997248
-0.117881
-0.93261
-0.0867645
-0.207992
-0.0422635
-0.0877971
-0.0326214
0.130665
-0.0280769
-0.263669
-0.0106963
-0.0522199
-0.0214564
-0.0719236
-0.0160868
-0.0304931
-0.0244753
-0.0557965
-0.0160972
-0.0426209
-0.0157068
-0.0247696
-0.0179647
0.0224054
-0.0133011
-0.0412217
-0.0234134
-0.00141309
-0.0160909
-0.13331
-0.0131412
-0.0954505
-0.017602
-0.0511808
-0.0387208
0.113599
0.727051
0.0589134
0.938796
-0.00268286
-0.870553
-0.0732951
-0.136918
-0.00674826
-0.153883
-0.0148664
0.139244
-0.00677025
-0.271304
0.0111804
-0.069709
0.000570827
-0.0608528
-0.00362619
-0.0258345
0.00502415
-0.0639856
-0.00856365
-0.0290333
-0.0134791
-0.0198544
-0.0216941
0.0306206
-0.0250297
-0.037886
-0.0172595
-0.00918337
-0.0273251
-0.123244
-0.0300618
-0.0927137
-0.0411309
-0.0401118
-0.0179224
0.0903908
0.709129
-0.0657076
1.00496
-0.0925164
-0.843282
-0.0739579
-0.155015
-0.0504299
-0.176949
-0.0327688
0.122045
-0.0309775
-0.272634
-0.0226814
-0.0775434
-0.0267673
-0.0563056
-0.0123659
-0.039774
-0.0259341
-0.0499562
-0.0204849
-0.0344826
-0.0184615
-0.0218781
-0.021646
0.0338054
-0.0222765
-0.0372554
-0.0306481
-0.000811841
-0.019234
-0.134659
-0.0157975
-0.0961502
-0.0194688
-0.0364404
-0.0405217
0.111444
0.668607
0.0547359
0.95069
0.000284578
-0.78837
-0.0532245
-0.101045
-0.0102998
-0.219413
-0.015627
0.127833
-0.0123872
-0.275413
-0.00890122
-0.080568
-0.0133828
-0.0513628
-0.00338333
-0.0493119
0.00669908
-0.0595774
-0.012985
-0.0147987
-0.0199726
-0.0148907
-0.0167033
0.0305363
-0.0192294
-0.0347293
-0.0188583
-0.00118312
-0.0312394
-0.122277
-0.0351152
-0.0922744
-0.0473508
-0.0242048
-0.0182547
0.0823476
0.650352
-0.0516972
1.00285
-0.077
-0.762605
-0.0626861
-0.114898
-0.0638916
-0.217746
-0.0433047
0.107708
-0.0351358
-0.28312
-0.0135915
-0.101651
-0.0134808
-0.0510123
-0.011331
-0.051
-0.0282707
-0.0421765
-0.0248771
-0.0181924
-0.0220928
-0.0176753
-0.0252166
0.0336604
-0.0246487
-0.0352971
-0.0305764
0.00474444
-0.0236735
-0.12918
-0.0213019
-0.094646
-0.0210574
-0.0244494
-0.0420228
0.103313
0.608329
0.0534917
0.949819
0.0224817
-0.731134
-0.0182499
-0.0737045
-0.0129521
-0.222582
-0.021923
0.11714
-0.0211181
-0.283464
-0.0213589
-0.100949
-0.0266012
-0.0453087
-0.00802162
-0.0691181
0.010549
-0.0602859
-0.0121131
0.0044695
-0.0234626
-0.00632607
-0.014276
0.0244741
-0.0192396
-0.0303333
-0.0255398
0.0110445
-0.0354202
-0.1193
-0.0376068
-0.0924594
-0.050424
-0.0116321
-0.0173975
0.0702864
0.590932
-0.0427486
0.993029
-0.0751332
-0.698288
-0.0595316
-0.0888448
-0.0707114
-0.210941
-0.0496463
0.0965365
-0.0392013
-0.293447
-0.0184996
-0.121189
-0.0285603
-0.0347868
-0.0290771
-0.0681396
-0.0303527
-0.058549
-0.027135
0.00125162
-0.0214999
-0.0119614
-0.0272755
0.0302499
-0.0261502
-0.0314585
-0.0289889
0.0138831
-0.0307018
-0.117587
-0.0292648
-0.0938964
-0.0221029
-0.018794
-0.04416
0.0923434
0.546772
0.0553472
0.938143
0.0527597
-0.695239
0.0202302
-0.055854
0.00209464
-0.192344
-0.0134902
0.112583
-0.0231396
-0.283337
-0.0297545
-0.114112
-0.0224193
-0.0416608
-0.0209116
-0.0691858
-0.0250729
-0.0539265
-0.021908
-0.00191339
-0.0231487
-0.010721
-0.0161
0.0232015
-0.0233202
-0.0242382
-0.0286792
0.0192419
-0.0368955
-0.109371
-0.039043
-0.0917489
-0.0515341
-0.00630294
-0.0153918
0.0562011
0.53138
-0.0345133
0.973117
-0.0808304
-0.648461
-0.0632164
-0.0730066
-0.0642582
-0.190841
-0.044174
0.09296
-0.0382974
-0.288752
-0.0112522
-0.140696
-0.017946
-0.0345059
-0.0218031
-0.0648671
-0.0254505
-0.0498179
-0.031769
0.00440499
-0.0233319
-0.0191584
-0.028979
0.0288488
-0.0331127
-0.0201043
-0.0331471
0.0192761
-0.0359444
-0.106574
-0.0349487
-0.0927446
-0.0229075
-0.0183441
-0.0471106
0.0804042
0.484269
0.0605069
0.913072
0.071457
-0.658949
0.04404
-0.0451284
0.000735335
-0.147075
-0.0215757
0.115732
-0.0248764
-0.28499
-0.0251916
-0.13992
-0.014486
-0.0447504
-0.0165573
-0.0623342
-0.019902
-0.046012
-0.0186405
0.00314334
-0.0253877
-0.0124115
-0.0147579
0.0182192
-0.0229377
-0.0119243
-0.025223
0.0215613
-0.0353289
-0.0964677
-0.0405035
-0.08757
-0.0517076
-0.00714
-0.0136856
0.0423822
0.470584
-0.0244021
0.937935
-0.0853605
-0.597529
-0.0768235
-0.0532041
-0.0863458
-0.137091
-0.055473
0.0853212
-0.038725
-0.301277
-0.00836261
-0.16982
-0.00247311
-0.0501786
-0.0183355
-0.0460101
-0.020912
-0.0429743
-0.0228769
0.00510817
-0.0246198
-0.0106688
-0.0283458
0.0219454
-0.0344051
-0.00586489
-0.0323079
0.019464
-0.0345539
-0.0942217
-0.0368704
-0.0852534
-0.0258213
-0.0181892
-0.0508557
0.0674165
0.419728
0.0674732
0.870923
0.085458
-0.615053
0.0707431
-0.0380279
0.0409045
-0.106791
0.00389455
0.122793
-0.0268684
-0.270052
-0.0221905
-0.174037
-0.0100958
-0.0618122
-0.0151706
-0.0404737
-0.0288083
-0.0288754
-0.0252808
0.00158052
-0.0296612
-0.00628876
-0.0214016
0.0136861
-0.0243258
-0.00294052
-0.0242029
0.019341
-0.0358985
-0.0825262
-0.0418089
-0.079343
-0.0522238
-0.00777419
-0.0129907
0.0281833
0.406737
-0.00991934
0.881304
-0.0793249
-0.545186
-0.0723849
-0.0445065
-0.0637924
-0.114922
-0.0251715
0.0846331
-0.0367847
-0.257978
-0.0152142
-0.195146
-0.00344953
-0.0731156
-0.0324486
-0.0110128
-0.0348663
-0.0259965
-0.0231743
-0.0101116
-0.0295784
0.000115053
-0.0258762
0.00998404
-0.0297025
0.000885935
-0.0316494
0.0212878
-0.0329472
-0.0812284
-0.0384355
-0.0738547
-0.0281071
-0.0181026
-0.0530222
0.0530985
0.353715
0.0730221
0.808743
0.0989285
-0.570631
0.0860578
-0.0311745
0.0634527
-0.0918554
0.0327167
0.115831
-0.0194151
-0.205385
-0.024718
-0.189382
-0.0119609
-0.0854115
-0.0197481
-0.002764
-0.0340863
-0.011197
-0.0222429
-0.0219552
-0.0223341
0.000205963
-0.0215038
0.00915402
-0.0293132
0.00869553
-0.0261333
0.0181077
-0.0385193
-0.0688425
-0.0443883
-0.0679856
-0.0527928
-0.00969813
-0.0139043
0.01421
0.339811
0.0116461
0.797558
-0.0765061
-0.482017
-0.0700281
-0.0371911
-0.0569702
-0.104452
-0.00872173
0.0680435
-0.0289262
-0.184719
-0.0262013
-0.191645
-0.0187811
-0.0923704
-0.0265111
0.00542764
-0.0285244
-0.00872244
-0.0220178
-0.028462
-0.0155017
-0.00631029
-0.0344007
0.0280532
-0.0319946
0.00628959
-0.0263807
0.0124936
-0.0343981
-0.0608251
-0.0389617
-0.0634221
-0.02622
-0.0224399
-0.0503372
0.0383272
0.289474
0.0788023
0.719218
0.12019
-0.522943
0.10921
-0.02575
0.0868996
-0.08168
0.0730538
0.0823508
0.0101677
-0.121371
-0.0303078
-0.150708
-0.0313157
-0.0909013
-0.0270485
0.00162205
-0.037017
0.00170733
-0.0320346
-0.0334446
-0.0174943
-0.0208509
-0.0261155
0.0366747
-0.031702
0.0118763
-0.0044321
-0.0147765
-0.0297103
-0.0355469
-0.0474587
-0.0456735
-0.0518337
-0.0180649
-0.0193181
0.00581162
0.270156
0.0438909
0.675788
-0.0728788
-0.405712
-0.0664949
-0.0316726
-0.0591168
-0.0885967
-0.0255962
0.0492916
-0.0250353
-0.121471
-0.0255673
-0.149715
-0.0313411
-0.0846662
-0.028864
-0.000393423
-0.0265823
-0.00011318
-0.0374338
-0.0225932
-0.0364663
-0.0218185
-0.0409943
0.0412028
-0.0440522
0.0149343
-0.0398146
-0.0190141
-0.029743
-0.0456186
-0.036753
-0.0386636
-0.022268
-0.0325498
-0.0454715
0.029015
0.224684
0.0892337
0.587016
0.129389
-0.445406
0.121661
-0.023484
0.0929157
-0.0593896
0.07762
0.0650488
0.0260424
-0.069432
-0.0202347
-0.102976
-0.0293318
-0.0751078
-0.0197118
-0.00955183
-0.0251386
0.00577491
-0.0349094
-0.0128225
-0.042612
-0.0141163
-0.0311782
0.0297693
-0.0301401
0.0138964
-0.0135299
-0.0356246
-0.0289371
-0.0302114
-0.0456157
-0.0219849
-0.0542247
-0.0239407
-0.025849
0.000639225
0.198835
0.0771305
0.510346
-0.0673102
-0.300504
-0.0707202
-0.0196127
-0.073846
-0.0558024
-0.0426004
0.0342646
-0.016216
-0.0953551
-0.0080647
-0.110666
-0.0177442
-0.064967
-0.0205737
-0.0062608
-0.0184284
0.00409086
-0.019459
-0.0117921
-0.0309124
-0.00266297
-0.0279025
0.0267595
-0.0130475
-0.000958456
-0.0286618
-0.0200104
-0.0235943
-0.0352789
-0.0401724
-0.00540679
-0.0389545
-0.0251586
-0.0447059
0.00639063
0.154129
0.102075
0.408733
0.167749
-0.365716
0.14855
4.70448e-05
0.116621
-0.0234113
0.10188
0.0494666
0.00117322
0.00581321
-0.0204648
-0.0885664
-0.0204024
-0.0645682
-0.0211834
-0.00501828
-0.022772
0.00614096
-0.031862
-0.00270239
-0.0296084
-0.00491683
-0.0198679
0.0170192
-0.0228011
0.00197496
-0.00761313
-0.0351986
-0.0310886
-0.0118036
-0.0338717
-0.00262356
-0.0473896
-0.0116407
-0.0297659
-0.0112331
0.124363
0.109676
0.299518
-0.0733058
-0.182273
-0.0742713
0.0014739
-0.0685244
-0.0286968
-0.0491139
0.0305174
-0.0135706
-0.0292687
-0.0205076
-0.0811679
-0.0225831
-0.0620314
-0.0267129
-0.000426908
-0.011435
-0.00867555
-0.00785544
-0.00628217
-0.0158094
0.0030369
-0.0214405
0.0226506
-0.0187438
-0.000721536
-0.0313577
-0.0225849
-0.0292049
-0.0139565
-0.0364647
0.00463635
-0.0350036
-0.0131018
-0.0448089
-0.00142785
0.0795544
0.118385
0.181594
0.178793
-0.242219
0.179361
0.00136658
0.154801
-0.00367529
0.140733
0.0450465
0.0408393
0.0710867
-0.00495267
-0.0349145
-0.0298704
-0.0366524
-0.0258671
-0.00396866
-0.0336988
-0.000382473
-0.0304462
-0.00953498
-0.0271646
-0.000244998
-0.0135883
0.00907459
-0.0188296
0.00451993
-0.011113
-0.0303017
-0.0368896
0.0118201
-0.0371454
0.00489221
-0.0475278
-0.00271933
-0.0330485
-0.0159072
0.0465059
0.182056
-0.0597018
-0.0578739
-0.0610878
-0.01558
0.0559681
0.0215149
-0.0146761
-0.0181834
-0.0181045
-0.0276395
-0.0278845
-0.0188099
-0.01429
-0.0445916
-0.0327716
-0.0278793
-0.0305987
-0.0465059
)
;

boundaryField
{
    piston
    {
        type            calculated;
        value           uniform 0;
    }
    outlet
    {
        type            calculated;
        value           uniform 0;
    }
    walls
    {
        type            calculated;
        value           uniform 0;
    }
    front
    {
        type            empty;
        value           nonuniform 0();
    }
    back
    {
        type            empty;
        value           nonuniform 0();
    }
}


// ************************************************************************* //
