/*--------------------------------*- C++ -*----------------------------------*\
  =========                 |
  \\      /  F ield         | OpenFOAM: The Open Source CFD Toolbox
   \\    /   O peration     | Website:  https://openfoam.org
    \\  /    A nd           | Version:  6
     \\/     M anipulation  |
\*---------------------------------------------------------------------------*/
FoamFile
{
    version     2.0;
    format      ascii;
    class       surfaceScalarField;
    location    "1.71";
    object      meshPhi;
}
// * * * * * * * * * * * * * * * * * * * * * * * * * * * * * * * * * * * * * //

dimensions      [0 3 -1 0 0 0 0];

internalField   nonuniform List<scalar> 
11670
(
0.0262695
0.0328859
-0.0150958
-0.042401
0.0270701
-0.0233268
0.0238151
-0.0226893
-0.0112047
0.0785469
-0.0656389
0.0120456
0.102748
0.060196
-0.00861021
-0.159044
0.115004
0.0259911
0.0187269
-0.177572
-0.00301279
-0.00460244
-0.000669074
0.000642696
-0.334957
-0.0611283
0.031794
0.355285
0.0910231
0.101075
-0.0848316
-0.0935394
-0.076034
0.0352149
-0.0384474
0.0761367
0.136557
-0.137861
0.156889
-0.149119
-0.216887
-0.224268
0.132859
0.311142
-0.00181507
0.00505327
-0.00264281
0.00369107
-0.00369709
0.00251016
-0.00578479
0.00277702
-0.000335423
-0.00152993
0.00274171
-0.00613826
0.00710732
-0.00688347
0.00778772
-0.00282195
0.00172416
-0.00221927
-0.00330582
0.00136132
0.00235444
-0.0017825
0.00251224
-0.00110171
-0.000555004
0.00166913
-0.00110878
0.00154298
0.000296134
-0.00205542
-0.00463784
0.00291276
0.000587401
-0.00195055
0.00107907
-0.00159023
0.00302985
-0.00265873
0.00321798
-0.00118923
0.000213852
-0.0015288
0.000954971
-0.000956305
-0.000919205
0.00194741
-0.00103519
0.0015054
0.00622407
-0.00360467
0.00441971
-0.00282444
-0.00271436
0.00223031
-0.00365527
0.00135165
0.00351421
-0.00491468
0.00276815
-0.00919034
-0.00833337
0.00870299
-0.00291624
0.00903818
-0.00217509
-0.00180242
-0.00666041
0.00436043
0.00726498
-0.00465754
-0.004506
0.00713131
-0.00402148
0.00343218
0.00450214
-0.0144222
0.00991234
-0.00666677
-0.00560873
0.00892997
-0.0035534
-0.00135119
-0.00817935
0.0054239
-0.00259729
0.00181362
0.00560017
-0.0178295
-0.00697027
0.0122705
0.00881194
-0.0058996
0.0282412
-0.0274523
-0.00609133
0.0194195
-0.0016594
0.000869094
0.00608993
-0.0194659
-0.00415582
-0.00112704
-0.00877039
0.00589824
0.000175058
-0.00172955
-0.0129859
0.00595741
0.0135323
-0.00924259
0.00874545
-0.00583608
-0.0315874
0.033682
-0.00676804
0.0213512
-0.00216672
-0.000927771
-0.00815772
0.0051234
-0.0129554
0.0133558
0.0140185
-0.0049598
-0.00338204
0.000994696
0.00486904
-0.0158776
0.0126606
-0.00708427
-0.00464496
0.00629772
-0.000601061
-0.00161158
0.00354149
-0.00704442
-0.00467323
0.00623194
0.00765134
-0.00358436
-0.00407557
0.00239379
-0.00850036
0.0035871
0.010638
-0.00826574
-0.00353879
0.00776383
-0.0016375
0.00043729
-0.00316401
0.00198714
0.00362535
-0.00160094
-0.00179739
0.00221717
-0.00406766
0.00315072
0.00188848
-0.00619263
-0.00377143
0.00393453
0.00580806
-0.00191922
0.00018824
-7.97965e-05
-8.73729e-06
0.000208927
0.000228446
-0.000254959
-0.000458203
-1.07512e-05
1.76106e-14
-1.46229e-14
0
0
-0.00347369
-0.00011765
0.00172058
-0.00147061
0.00451829
-0.00162214
0.00212559
-0.00176072
-0.00278572
0.00290141
-0.00706622
0.00231138
0.00286492
-0.00349623
-0.00201049
0.00575992
-0.00186489
-0.00197049
-0.00631966
0.00434927
0.0104376
-0.00616432
-0.00402943
0.00582026
-0.00368515
0.00309647
0.00449062
-0.0145439
-0.0180061
0.0190337
0.0156481
-0.00500669
-0.0022457
-2.46692e-05
-0.00598516
0.00375894
-0.00490315
0.00309584
0.00357232
-0.0118602
-0.0133541
0.0130291
0.0133321
-0.00387393
0.00882005
-0.00459566
-0.00360023
0.00455432
-0.00174294
-0.001789
0.00610366
-0.00971779
0.0172394
-0.010207
-0.00584943
0.00767026
-0.0262851
0.0257665
0.0211561
-0.00629411
-0.0244695
0.0251462
-0.00592241
0.0192021
0.0145782
-0.00945673
0.00848961
-0.00573599
-0.00476036
-0.00210396
0.00569083
-0.00751315
-0.00167597
0.002133
-0.0206156
0.00612346
-0.00331904
-0.00150126
-0.00797725
0.00541728
-0.00241294
0.00168394
0.00559334
-0.0179791
-0.00609453
0.0124943
-0.00537234
0.00694994
0.0255865
-0.0260661
0.0196073
-0.00578075
0.0147305
-0.00726341
0.00548036
-0.00453962
-0.0033543
-0.00181064
-0.00558657
0.00409731
-0.00301797
0.000943242
0.00646259
-0.0178736
0.0105729
-0.0122006
-0.0051836
0.0148507
0.0205312
-0.0246654
0.0347462
-0.0534649
0.0660701
-0.0116891
-0.0147072
0.0180776
0.0235456
0.120813
-0.134278
-0.328544
-0.0124537
0.0217475
0.0944851
-0.000914226
-0.00537807
-0.00204995
-0.121183
0.117426
0.104732
-0.0334517
0.033999
0.097594
-0.0330555
0.0193942
-0.0645895
0.094681
-0.103017
0.149477
0.193716
-0.188581
-0.217821
0.0682036
-0.0532683
-0.0880696
0.0754225
0.0311449
0.0141852
-0.0542723
0.00974012
4.44472e-06
0.00205901
-0.000167483
-0.000965506
-0.00550507
-0.0447592
0.0426583
0.0114281
-0.00284892
-0.115588
0.0419034
0.0813917
-0.0128246
0.237375
-0.0708472
-0.148725
-0.0140761
-0.0168388
0.0556668
-0.030627
-0.00115004
0.0818973
-0.034769
-0.0436139
0.050342
-0.0880696
0.0710257
-0.000764795
-0.00788681
0.00576597
0.00704563
2.20122e-05
0.00998592
-0.000214682
-0.00679121
0.00599737
0.00713445
-0.0351957
0.0183514
0.011296
0.000419188
-0.00847644
-0.00722228
0.00245153
0.00332233
0.00194549
0.0205781
0.0101547
-0.0284865
0.00809824
0.00670567
-0.0115938
-0.0631104
-0.0226908
0.0662998
-0.136872
0.0907235
0.0479105
-0.00130719
0.00222772
-4.68517e-06
0.175495
-0.124245
-0.0590486
0.0823886
-0.0449228
-0.0362182
-0.0441412
0.0104982
0.0319136
-0.00355387
-0.0496629
-0.0524656
0.117573
-0.059055
-0.056062
0.123454
4.08435e-05
-0.0461603
0.000575311
0.0534091
0.0607964
0.000518344
-0.0534091
-0.0257974
0.0377533
0.030377
-0.0519721
0.00609044
0.030543
-0.0720701
-0.00279704
0.0184436
-0.0283067
0.0150847
0.0202687
0.018612
-0.0392531
0.00332338
0.146625
0.168152
-0.309125
0.179623
0.157262
-0.324586
-0.0210521
-0.337091
-0.319903
0.687803
-0.291731
-0.315617
0.596052
0.0194426
-0.0912264
-0.117833
0.198577
-0.13066
-0.116306
0.275368
-0.0528129
-0.0150835
-0.0709292
0.126498
-0.140802
-0.0703085
0.14597
-1.02136e-05
0.00976442
4.33274e-05
-0.00800063
-0.00625487
4.09383e-05
0.00800063
0.0184177
0.0644338
-0.0733539
0.0222763
-0.0215296
0.0585006
0.109832
0.0132731
-0.0573921
-0.0857284
0.0118432
-0.0118799
0.0188603
-0.0103319
0.076286
0.0100112
-0.0410007
-0.0594489
-0.00366889
-0.00993235
0.0239301
0.0027692
-0.0405624
0.0149918
-0.0162362
0.0342239
0.0398457
0.00572057
-0.0238643
-0.0296759
-0.011887
0.00765278
-0.00808253
0.0113138
0.00880218
-0.00641365
0.0073156
-0.00865004
-0.00960421
-0.0047482
0.0146915
0.00695115
-0.005703
-0.016997
0.0362391
0.00466022
0.0120345
-0.0195245
0.0390806
-0.00988367
0.0227555
0.0592477
-0.0535275
-0.0189367
-0.000193101
0.0771599
-0.0620464
0.000152813
0.223584
-0.135274
0.071161
-0.168597
-0.115975
-0.0695167
0.086021
0.0969851
0.000187038
-0.059113
0.0715362
-0.000128792
-0.321062
-0.096449
0.139662
0.259533
0.316769
-0.159843
0.0652501
-0.240737
0.116537
0.032601
-0.0731075
-0.0771653
0.0288548
-0.0169533
0.00745773
-0.0242239
-0.0336515
0.110863
-0.0802529
0.012483
-0.111811
0.0697128
-0.00942426
0.0522194
0.358485
-0.355545
0.28241
-0.275961
-0.234197
0.0556621
0.0140003
0.151382
0.068463
-0.0705365
0.0456434
-0.0410752
0.188134
-0.449897
-0.067006
0.320699
0.271259
-0.183069
0.0641666
-0.153322
0.151657
-0.172716
0.141634
-0.103446
-0.245514
0.0420814
0.48346
-0.284948
-0.166841
0.195025
-0.153176
0.131333
0.305761
-0.203501
0.113288
-0.211087
-0.259849
-0.241269
0.303081
0.207676
0.112669
-0.00616275
-0.0558953
-0.052655
-0.330436
0.284644
-0.138131
0.186993
-0.0713389
-0.119517
0.139405
0.0718125
0.0643526
-0.0221632
-0.00782798
-0.0511373
-0.27579
0.0424464
0.157443
0.0689878
-0.308972
0.0647997
-0.00908835
0.232242
0.161351
-0.147252
0.0637653
-0.07242
0.173257
-0.23852
0.213021
-0.130206
-0.114396
0.021643
0.0291502
0.056019
0.119643
-0.150639
0.133908
-0.0837686
0.147952
0.125385
-0.153802
-0.115678
0.204904
-0.106662
-0.000470798
-0.100119
0.129
-0.0414231
0.000748822
-0.0975384
-0.119224
0.177446
-0.211453
0.160778
-0.0586161
-0.0479086
0.0750938
0.0405118
-0.0823404
0.0212311
-0.015551
0.0585963
0.024035
0.00796485
-0.0180978
-0.0233161
-0.148538
-0.204986
0.24137
0.130786
0.178009
0.00169071
-0.0484861
-0.149044
-0.0647593
-0.106937
0.126464
0.0650626
-0.10383
0.0447487
0.0207495
0.027308
0.065052
-0.00991187
-0.0465633
-0.0171576
-0.00667759
0.0160915
-0.00930402
2.2261e-15
0.000244938
0.00114072
-1.07914e-15
-0.00137044
-1.52171e-05
-5.36548e-14
1.04052e-14
0.00409734
0.0115825
-0.00685354
0.0556
-0.0107362
-0.220393
0.157671
0.159317
0.00711025
-0.0650697
-0.115967
2.51804e-14
0.00470383
0.00387579
-1.61045e-14
-8.97771e-14
0.00151661
0.00207276
5.15717e-15
0.00552672
-0.000103008
0.00330793
-0.0030474
0.0233842
-0.0138627
0.0050527
-0.0111673
0.00899489
-8.64469e-05
-0.0048081
-0.00503376
-0.00552672
-5.92813e-05
0.00344122
0.00304713
-0.00899546
-9.24033e-05
-0.00227573
0.00503376
7.6737e-05
-0.00272043
-0.00601792
-9.81455e-06
9.64434e-08
0.00556438
0.00627198
-8.06693e-07
-1.91398e-07
0.00833359
0.00809548
1.48321e-08
-0.0111365
-0.00518553
-1.7904e-05
8.39358e-05
-0.0194695
-0.0513629
0.0772063
0.014247
-0.22224
0.0487411
0.0260922
0.132153
-0.0572378
0.0755904
0.00777532
-0.00576214
0.103526
0.197677
-0.209142
-0.0738175
-0.299712
0.0556419
0.15579
0.0785268
0.0641784
-0.0318018
0.000978876
-0.0356554
-0.325125
-0.0158066
0.0718108
0.244711
-0.0798452
-0.0259507
0.0491242
0.0543506
-0.121397
0.0236482
0.0348407
0.0548083
0.082096
0.113556
-0.11787
-0.0574571
0.000179102
-0.00656213
-0.013819
-1.74895e-05
-2.54671e-05
-0.0162785
-0.00827488
0.000168937
-0.000187085
0.00671889
0.00701232
-0.000199041
0.00696592
0.056161
-0.0410498
-0.00523294
-0.0432309
0.0693579
-0.160217
0.122642
0.214208
-0.100267
0.0280285
-0.156738
0.012206
0.056041
-0.0438755
-0.0101572
0.239666
-0.129524
-0.0581633
-0.0628401
0.231436
-0.184686
-0.111115
0.0823703
-0.043581
0.0020006
0.00203763
0.0216398
0.177932
-0.0562105
0.00857363
-0.149216
-0.0118622
-0.0128725
0.0340603
0.00666458
0.109186
0.0123249
-0.0579976
-0.0846432
-0.127066
0.0288353
-0.0273203
0.101528
0.0521866
-0.0219205
-0.0142031
-0.0236649
-0.0521536
0.104179
-0.085879
0.052515
0.117955
-0.106518
0.0208742
-0.0149336
-0.200366
-0.052747
0.0740939
0.161693
0.248721
-0.11323
0.0435769
-0.200476
-0.349412
-0.0456411
0.116257
0.260987
-0.0132911
0.0974023
-0.076568
0.0100115
-0.140447
0.0375199
0.332575
-0.248516
0.120828
-0.100864
0.00981733
-0.00779169
-0.269578
-0.0200193
0.203802
0.0421836
0.118002
-0.109837
-0.0294956
-0.0528355
0.152659
-0.417812
0.297628
-0.142877
-0.0120202
0.0299347
0.104199
-0.0443742
0.00316355
0.00253251
0.0231712
-0.0453032
0.119004
-0.0916304
0.0329762
0.145928
-0.0582749
-0.121134
-0.0587125
0.112339
-0.0834801
0.0462209
0.389471
-0.157161
0.0367149
-0.288087
0.0442162
-0.0211823
0.00742082
-0.0439097
0.0270733
0.00804607
-0.0139611
-0.0338695
0.00193595
0.00436242
0.0165666
0.453648
-0.203306
0.0769555
-0.344541
0.0365725
-0.0187432
0.0113051
-0.0184365
0.343067
-0.225675
0.144017
-0.265436
0.0238471
-0.0122252
0.00681089
-0.0109828
-0.471468
-0.0840951
0.185318
0.355008
0.0298694
0.0155225
-0.0128962
-0.0151867
-0.015087
-0.00677411
0.00444318
0.00420553
0.213947
-0.204005
0.159262
-0.165707
-0.399261
-0.182919
0.261814
0.317054
-0.0128076
-0.0500897
0.06688
0.00784619
-0.252211
0.0958781
0.0336942
0.114018
0.228448
-0.0283985
-0.106081
-0.103272
-0.0226204
-0.0487374
0.0682515
0.014014
-0.245125
0.0596431
0.0361292
0.135458
0.118662
-0.0933154
0.0366697
-0.0561268
-0.027006
0.0366756
-0.00638848
0.00309729
0.00987731
-0.0361194
0.0386782
-0.00478876
0.124075
-0.0691439
-0.352801
0.279589
0.31733
0.0375431
-0.130645
-0.240255
-0.0151014
-0.00603867
2.38709e-12
-1.88793e-12
-7.90602e-13
-0.00425269
-0.0137121
6.11562e-13
0.0152705
-0.0251106
0.0236814
-0.00773659
-0.027835
-0.0221254
0.0428034
0.014151
-0.245351
-0.191685
0.247422
0.194925
0.357403
0.00836002
-0.163386
-0.206065
0.0111877
-0.0186276
0.0365491
-0.009015
-0.0100306
-0.0188395
0.0414724
0.00835533
-0.224556
-0.0296111
0.066795
0.170278
-0.101517
0.0294129
0.25007
-0.198551
-0.188029
0.0870415
0.0391605
0.0494151
-0.0223438
-0.0089791
0.028743
0.00558334
-0.0768915
0.0728037
-0.058417
0.0640484
0.0274721
-0.024583
0.0104329
-0.00505813
0.0112132
-0.00545231
0.00510981
-0.00719031
0.03184
-0.0173401
-0.0130985
0.00635049
0.027159
0.0120807
-0.0248442
-0.0119768
-0.012123
-0.0157846
0.0376421
0.00911947
0.0289493
-0.023303
0.000559028
-0.00722836
-0.0178236
0.0345474
0.00608364
-0.00461414
0.083135
0.00805178
-0.0495863
-0.0523503
-0.029519
0.0505941
-0.0204348
0.00757064
0.13329
-0.0256864
-0.0837745
-0.0351516
0.0226326
0.0358621
-0.0420286
-0.0058371
-0.00725867
0.0108928
0.00831185
-0.00520844
0.00995712
-0.0402549
0.0438729
-0.00596575
0.231412
-0.038821
-0.0720102
-0.133453
0.00966064
-0.0146447
0.0253241
-0.00538688
-0.00877649
0.029579
-0.0194618
0.00386874
0.00882311
-0.0561109
0.107398
-0.0795413
-0.0850787
0.0167471
-0.0156523
0.0651408
0.00104027
-0.0146205
0.0292764
-0.000801946
-0.0166795
0.0392071
-0.0102911
0.00811115
-0.0883277
0.0244017
-0.0223978
0.0696282
0.024946
0.0192437
-0.0199906
-0.0145778
0.120555
0.0139462
-0.0612968
-0.0950508
-0.00803478
-0.00142866
0.00913125
0.00342383
-0.125296
0.0253232
-0.0125818
0.0924185
0.063067
0.00975275
-0.0349082
-0.0538079
0.0109248
0.11044
-0.0904557
-0.00809075
-0.000985181
-0.00917297
0.0215411
0.000619975
-0.0363405
0.11726
-0.0906133
0.03062
0.00897747
-0.00401962
0.0076144
-0.00517422
0.169881
0.0588927
-0.116937
-0.117407
-0.0538279
0.00986257
-0.00365353
0.0339574
-0.0305993
0.0146132
-0.00532298
0.0195792
0.172485
-0.0229861
-0.0571458
-0.0965357
-0.243526
-0.0627903
0.140223
0.157616
0.00894848
-0.0191195
0.0393316
-0.0366849
-0.0619775
-0.0498329
0.0810347
0.0435311
-0.0501299
-0.057688
0.0659766
0.0506581
0.0722545
-0.0115961
-0.0151404
-0.0625717
-0.0312812
-0.0300478
0.0277431
-0.116217
0.0277704
0.0803848
0.033447
-0.0409357
-0.0237658
0.00465094
0.0404882
-0.0350261
-0.156943
0.0392432
0.0262768
0.0860742
0.0522795
0.00309361
-0.0175452
-0.0524817
0.0749179
0.00828545
-0.0479122
-0.0467867
-0.115653
0.231067
-0.471196
0.345986
0.0900054
0.154301
-0.164119
-0.0695033
-0.0672699
0.130574
-0.106684
0.0621552
0.360578
-0.301705
0.180601
-0.235279
-0.167604
0.0232887
0.0142578
0.113674
0.206059
-0.223028
0.15172
-0.124306
-0.0677216
-0.100847
0.0549958
0.103493
-0.0472308
0.0234777
-0.0107628
0.0329697
0.130045
-0.0952128
0.058124
-0.0909326
0.0588223
0.035019
-0.0427851
-0.0516869
0.00957812
-0.00717861
0.0163448
-0.00694766
-0.00881275
-0.00681883
0.0131874
0.00873806
0.0118941
0.00412474
-0.0107852
-0.011156
0.0501444
0.0413314
-0.0439049
-0.0338139
-0.040787
0.00760787
-0.0103584
0.0296812
-0.0815364
-0.00279013
0.0203542
0.051613
0.105074
-0.165553
0.22604
-0.165401
0.114706
-0.0534808
-0.0063531
-0.0670986
0.100423
0.0123497
-0.0389607
-0.0798364
0.153771
-0.104439
0.0482352
-0.0912407
-0.081866
0.0228833
-0.00591543
0.056089
-0.0546929
-0.0502442
0.0855039
0.0276132
0.122216
-0.0266338
-0.0128963
-0.0976241
0.258524
-0.09198
0.0296878
-0.218361
-0.115026
-0.157179
0.193596
0.0969064
0.31829
0.0650935
-0.189022
-0.199659
-0.30423
0.281151
-0.189679
0.219675
0.07237
0.0559718
-0.0647767
-0.0485894
-0.098603
0.20746
-0.173573
0.0781299
0.0675348
0.130411
-0.127074
-0.0498677
0.499626
-0.231652
0.089803
-0.36878
-0.129655
0.212917
0.107872
-0.038973
-0.0322315
0.0843437
-0.0215495
-0.0396118
0.0498769
-0.035657
0.0297543
-0.241276
0.184504
-0.11658
0.175435
-0.0586835
0.124764
-0.0922001
0.0367982
-0.239813
-0.0622599
0.161145
0.137644
-0.239588
-0.0274242
0.204811
0.0629355
0.296562
-0.132932
0.0686924
-0.241607
0.325801
0.13249
-0.233482
-0.222467
0.050347
-0.0232927
-0.102895
0.0733225
0.196795
-0.243133
0.20373
-0.138101
0.0105614
0.0393237
-0.224184
0.157235
-0.329761
-0.0284697
0.0923409
0.243262
0.178813
0.0023382
-0.0802514
-0.109489
-0.145943
0.264393
-0.218369
0.11529
0.0938588
0.0402282
-0.0643235
-0.0586229
-0.00470084
0.0917418
-0.0780212
0.00300304
-0.0266586
-0.0218582
0.0375365
0.0207581
0.0182342
-0.0291826
0.0371496
-0.01244
0.0223724
0.0121728
-0.0184692
-0.0156424
-2.75518e-13
0.00710486
0.00658111
2.05154e-13
-0.00301007
-0.00684789
-0.0030731
0.000993525
-0.0337386
0.0466635
-0.00154093
0.000823354
1.41341e-05
0.00413521
-0.000113733
1.11167e-13
0.00364136
0.00433529
-9.92497e-14
0.00184209
0.0456948
-0.0341435
-0.0013593
0.00211768
-0.00395261
-0.00924671
0.00251822
-0.000591243
-0.00318243
-0.00044619
-0.00029305
-1.09384e-07
0.00917363
0.00929249
8.98983e-09
0.0463339
-0.0365376
0.0147228
-0.0103741
-0.00117941
0.028379
-0.0192348
0.000295271
-0.184756
0.0611286
-0.0214611
0.124462
0.0533784
-0.0298349
0.00308395
-0.0387651
-0.0173077
-0.0256975
0.043772
0.0102675
0.0148463
0.015362
-0.021736
-0.00371684
0.169112
-0.0231241
-0.0453236
-0.112729
-0.134707
0.00571196
0.0564505
0.0659604
-7.8124e-08
0.00726326
0.00779472
6.19404e-07
-6.28398e-13
0.00319383
0.00236379
5.87837e-14
-0.0443368
-0.00432481
0.00965719
0.0285563
-0.0142813
-0.00208396
0.0120577
0.00509128
0.0166144
0.00795657
-0.00826296
-0.00934755
0.0306495
0.00202602
-0.0161913
-0.0170302
0.0773014
0.0130217
-0.0327859
-0.068966
-0.286964
0.238933
0.0959295
-0.0394167
-0.32869
0.204107
-0.0788385
0.206071
-0.114087
0.0251743
0.0536282
0.0293247
0.243243
-0.216946
0.139642
-0.154841
0.155293
0.222598
-0.121783
-0.016428
0.0760614
-0.0758798
0.0189969
0.0832789
-0.0462669
0.0181216
-0.0482051
-0.0645649
0.00127693
0.01277
0.0415778
-0.374026
-0.0948019
0.160906
0.298394
0.299595
-0.22592
0.00210055
-0.0786457
-0.325082
-0.00175195
0.240907
0.0829979
0.0512368
0.115366
-0.387748
0.212886
0.165825
0.263277
-0.28214
-0.129402
-0.227234
-0.0572467
0.148834
0.135108
0.041544
0.0100145
-0.0398544
-0.0105356
-0.101959
0.0420233
-0.0202318
0.0734081
-0.0517846
0.104709
-0.0862292
0.0509208
-0.112007
0.00638019
0.139355
-0.0348881
-0.0432607
0.0204869
-0.00393653
0.0271362
0.246745
-0.132135
-0.0621019
-0.0630978
0.247555
-0.16651
-0.154021
0.0870591
0.374713
-0.199219
0.0468498
-0.231483
0.355318
-0.24415
-0.026811
-0.090728
-0.0230263
0.0491516
-0.0269219
0.00584894
-0.142754
0.0327368
0.0205012
0.0772779
0.112642
0.142014
-0.150903
-0.0811088
-0.0393214
0.0748939
-0.0596186
0.0390823
0.0639246
-0.0225989
0.00325529
-0.0595776
0.168605
0.0393449
-0.161855
-0.0438428
-0.358403
-0.0123432
0.162283
0.205119
0.0532786
0.164476
-0.304129
0.0776965
-0.0721251
-0.0881412
0.0586291
0.139285
-0.188241
0.120219
-0.0633567
-0.167522
0.201989
-0.072567
0.0435607
0.0702126
0.102816
-0.100267
-0.0513061
-0.148707
0.000493657
0.0287356
0.103531
0.387775
-0.158585
0.0662031
-0.312796
-0.134955
0.0722402
-0.0549395
0.0483635
0.114295
-0.119302
-0.0291924
-0.476996
-0.0930831
0.166474
0.383788
0.201771
-0.27744
0.305541
-0.220226
-0.272004
-0.0368787
0.0894401
0.206978
-0.0672758
0.153743
-0.442567
0.344344
0.238591
0.167234
-0.225038
-0.171637
0.20082
0.181142
-0.221638
-0.145572
-0.351481
-0.0103206
0.0928303
0.254822
0.43295
-0.221738
0.105753
-0.332038
-0.0291735
0.081604
-0.0594539
0.0141944
0.425299
-0.159563
-0.00356632
-0.268319
-0.0908263
0.00752101
0.00897576
0.0609819
-0.23817
0.246459
-0.18343
0.185818
0.190876
-0.0681443
0.020387
-0.155469
0.331271
-0.120438
0.0355597
-0.256587
0.228661
-0.159578
-0.214217
0.154835
0.0672699
-0.112352
0.0690765
-0.01769
-0.130705
0.19968
-0.170537
0.119128
0.0758742
0.0376787
-0.0535701
-0.0478947
-0.0778174
0.0048357
0.258154
-0.199929
-0.474321
-0.144505
0.223369
0.379995
0.119178
-0.0150346
-0.0364299
-0.0801697
-0.0941798
0.143177
-0.0920707
0.0552353
-0.0716834
0.149945
-0.0875359
0.0183579
0.103918
-0.0444645
0.0319974
0.139714
-0.0910595
-0.157508
0.111391
0.37431
-0.25348
0.159185
-0.284666
0.0669591
0.0717993
-0.0508504
-0.0761596
0.0439787
-0.023209
0.0526817
-0.287727
0.251157
-0.0359434
0.0734466
0.16418
0.0709825
-0.112772
-0.122475
-0.22791
-0.145079
0.187641
0.185421
-0.135888
0.0390044
-0.00771727
0.0939846
0.227567
-0.207755
0.153871
-0.164485
0.0668439
-0.0996865
0.0722878
-0.0323891
0.0761465
-0.0442762
0.0178107
-0.0440314
0.0639564
0.0140946
-0.0328539
-0.0531754
0.11418
-0.101254
0.0104451
-0.00735991
-0.368474
-0.0342443
0.11039
0.275253
-0.135144
-0.153895
0.179506
0.123319
0.0917246
0.000382926
-0.0293773
-0.0762887
0.0679465
-0.0781359
0.0516237
-0.0329266
0.240746
-0.11454
0.0131692
-0.152421
-0.0884428
0.136907
-0.0891741
0.0529393
-0.0757739
0.010132
0.0164496
0.0386963
0.0214742
-0.0330228
0.0446255
-0.0247959
0.126609
-0.101601
-0.0347623
0.0256516
-0.129183
0.0406528
0.353667
-0.284325
-0.139024
0.0316143
0.0614721
0.0347685
0.0465689
0.106728
-0.0985262
-0.03371
0.19786
-0.0509758
-0.0317637
-0.129089
-0.0805651
-0.000737639
0.0157109
0.0515502
0.0757332
-0.0473141
-0.0187443
-0.0189339
-0.0532439
0.10624
-0.0835522
0.0484245
-0.0958316
-0.00820206
-0.000954751
0.0131208
-0.036087
-0.04059
-0.0235349
-0.213373
0.0124627
0.354645
-0.426427
-0.0542079
0.0828356
0.00980159
0.107793
-0.00455222
-0.0247658
0.0341463
-0.0741948
-0.000347869
-0.0301362
-0.000407867
0.0718178
0.00246951
0.0130453
-0.0155995
0.0540718
0.00323969
-0.0445106
-0.0335698
-0.200499
-0.226779
0.0500578
-0.001696
-0.00105272
0.103828
0.0995663
-0.314745
0.00797296
-0.0788127
0.0186301
0.123551
0.056523
-0.0263746
-0.00597936
0.0130905
-0.0468029
-0.0548958
0.0230198
-0.0295687
0.0659994
0.0448655
-0.0215312
-0.00429408
-0.00908547
0.0218439
0.00864245
-0.0093018
0.0168361
-0.00852353
0.00913643
-0.0296382
-0.0286728
0.0146829
-0.0208339
0.0365005
-0.0720367
0.0363288
0.112402
-0.196809
0.159196
-0.307522
0.0844396
-0.0690506
0.000139743
-0.0672648
0.0804654
0.0232265
0.144761
-0.176232
0.240054
0.0705416
-0.0613638
0.105738
0.0424695
-0.0772828
-0.0826679
0.0914409
-0.0748519
-0.000161146
-0.00337547
0.0052306
-0.00633401
0.00487179
-0.00772561
0.0106967
-0.0247423
0.0491204
-0.00900092
-0.0728619
0.0328921
-0.124571
0.0274038
-0.0276949
0.0298479
0.0666096
-0.149676
-0.286448
-0.0861866
0.101156
-0.00934114
-0.242545
0.235095
0.27599
-0.0834557
0.0807524
0.0743465
0.0934208
-0.227731
-0.35196
-0.0029198
0.00791555
0.00497328
0.00333544
-0.0098041
-0.00647268
0.0146039
-0.010038
0.0164235
0.154127
-0.162912
0.157834
-0.214513
0.118515
0.291434
-0.0274907
0.0202579
0.0564642
-0.0403469
0.0291799
-0.0941782
-0.0995612
0.103469
-0.257421
0.388893
-0.364488
-0.266696
0.14646
-0.123167
-0.134066
-0.00959432
0.00768594
0.0147942
-0.0599372
0.060136
0.106986
-0.433475
0.430342
0.370001
0.27504
-0.296562
0.195569
0.00607798
0.00538903
-2.27526e-14
-0.00675346
-0.00652104
0.000823152
0.00482047
0.00550887
-6.93343e-08
0.0127563
0.0124203
-1.07461e-05
-0.381914
0.377478
-0.394209
-0.0949503
0.0901582
-0.330588
-0.0241871
0.0555515
0.00905717
-0.376926
0.369545
0.204479
-0.0347615
0.0368528
0.107831
-0.0134195
-0.0131464
0.00258478
0.0177725
0.0140271
-1.66224e-05
-0.141233
0.245822
-0.401949
-0.481535
0.428938
0.236082
0.0263166
0.000971293
-0.161557
0.179022
-0.199593
-0.108361
0.187497
-0.156867
0.106895
0.00163299
-0.0297413
0.180852
0.11405
-0.0720713
0.25674
-0.0452043
0.0489464
0.0444329
0.0648072
-0.0465594
0.0113163
0.00342
-0.0046183
0.00647318
-0.00489003
0.00838049
-0.00497328
-0.0978177
0.0385056
-0.157391
-0.367535
0.37636
-0.241128
-0.335523
0.247814
0.43322
-0.0617384
0.0838722
0.00839054
-0.0615012
0.0766051
0.181224
-0.0147278
-0.00687471
1.83102e-05
-0.004087
0.0117529
-0.0666614
-0.101377
0.0356177
-0.178741
-0.0595683
0.0564504
0.222914
-0.087894
0.0808513
-0.346981
0.350164
-0.326594
0.107641
0.123697
-0.145363
0.376236
-0.0372176
0.0196535
0.165134
-0.161993
0.179081
0.0874217
-0.0169201
0.0304852
-0.160559
0.0779773
-0.0872968
-0.295411
0.324681
-0.302158
-0.0973568
0.190876
-0.163536
0.454924
-0.0547291
0.0205174
-0.129116
-0.0187657
0.0431477
0.10313
-0.10578
0.117592
-0.0472947
0.0940392
-0.0952865
-0.0400021
-0.00263667
-0.00559205
0.0445111
0.0810655
-0.0833255
-0.0383982
-0.158636
0.183533
-0.00490683
0.0546385
-0.0464643
0.0366089
0.231628
-0.199167
-0.0443886
-0.0572529
0.044053
-0.033111
0.101042
-0.0747667
-0.0182158
-0.107505
0.10286
-0.250162
-0.00805758
-0.0159371
7.22524e-13
-0.00962413
0.0101149
0.0271572
-0.0582451
0.0797242
0.205224
0.10738
-0.169423
0.348027
-0.293302
0.307474
-0.167059
0.0785615
-0.165016
0.282885
-0.068595
0.0266718
0.11631
0.143076
-0.10627
-0.315237
-0.0168279
0.000677229
0.0370956
0.064493
-0.0639631
-0.0301289
-0.0975444
0.105373
-0.0389459
0.00260377
-0.00824021
-0.0107015
-0.00367662
0.00949796
0.0063329
0.119419
-0.10924
-0.28884
0.0862816
-0.065439
-0.0299214
0.103714
-0.090418
0.0441995
-0.0447145
0.0276403
-0.121915
0.0454147
-0.0201431
0.00891195
-0.0742968
0.0374493
0.121464
0.0495523
-0.0216488
0.00750171
-0.0747463
0.0922701
0.0249202
-0.106465
0.131465
0.010675
0.0766027
-0.0539396
-0.0356572
-0.0498382
0.0387978
0.121602
0.021844
-0.0380782
0.0795444
0.0195725
-0.0477735
-0.0809146
-0.10879
0.13402
-0.0327661
0.015837
-0.00760985
-0.0105171
0.0696789
-0.0650591
0.0323306
-0.0812563
0.0979749
0.0115227
-0.0782298
0.0989592
-0.0114944
0.12667
-0.155061
0.189017
-0.0226285
0.0470242
0.000957446
0.0169743
-0.00861037
0.00917612
0.0497669
-0.0702788
-0.0540858
0.0188545
-0.0239703
0.0479411
-0.0455764
0.0267912
-0.0974688
-0.0228233
0.0258837
0.0235616
-0.029158
0.0372985
-0.0418885
-0.0217494
0.0450408
-0.000946048
0.0238739
-0.0122186
0.012231
0.0103228
-0.0367167
-0.0454397
0.157451
-0.155107
-0.265444
0.0483426
-0.0240109
-0.00737619
-0.0686278
0.0316352
-0.125642
0.0467492
-0.0234841
-0.0100394
0.038103
-0.0480729
-0.029641
0.121651
-0.192248
-0.31051
-0.0510564
0.0197695
0.0751381
-0.354596
0.37257
0.168446
-0.0308494
0.0145277
-0.0467322
0.0317687
-0.0160932
0.0119784
0.00682241
-0.00601783
0.0291176
-0.189907
0.156961
-0.193658
0.0995839
-0.0785704
0.0485527
0.0987771
-0.100194
-0.0440624
0.0296686
-0.0160237
-0.127056
0.0393771
-0.0418287
-0.0214881
-0.00159753
-0.00300396
-0.0608031
0.00118617
-0.00171747
0.0896213
-0.201317
0.201962
0.103432
0.174179
-0.146156
-0.0612904
-0.163034
0.153176
-0.0813312
0.0562625
-0.0607742
0.228819
0.204892
-0.196903
0.086466
-0.00162043
0.0132646
0.0869738
0.0773841
-0.0667627
-0.037698
0.00435188
0.00360959
-8.04459e-14
-0.00999312
-0.00688475
0.00257464
0.0103177
0.0109033
9.90862e-08
-0.029462
0.0129432
-0.043875
-0.00239543
-0.00588254
-0.000791053
0.00772416
0.00719638
2.39291e-13
0.0108326
0.0113738
-1.3708e-05
0.0064696
0.00699815
5.61986e-08
-0.0125477
-0.00614347
-0.00209809
-0.134585
0.15238
0.0935359
-0.0170819
0.0204497
0.0343453
0.112358
-0.0820437
-0.187868
0.00411673
0.00485902
7.49423e-14
0.0234501
-0.0186932
0.0197545
0.0225673
-0.0139236
-0.0211274
0.326054
-0.295892
-0.129507
0.29363
-0.273817
0.19711
-0.0811443
0.127782
-0.403399
0.108384
-0.150007
0.17341
0.0225886
-0.0289555
-0.0422918
0.0368802
-0.0226822
0.0431647
-0.310814
0.239249
0.209958
0.00519727
-0.0185694
-0.0635134
0.020326
-0.00512479
0.0498805
0.0290814
-0.0249622
-0.130364
0.0363779
-0.0386652
0.164046
0.401612
-0.414111
0.273826
-0.0896691
0.105119
0.267352
0.17941
-0.111585
0.269231
0.219634
-0.237935
-0.110722
0.278787
-0.236739
0.132261
0.460533
-0.425057
-0.354856
-0.1478
0.190385
0.172253
-0.0565046
0.0382038
-0.0891245
-0.0147361
6.48461e-05
-0.174389
0.0685193
-0.0617442
-0.0399827
0.174782
-0.159338
0.146778
0.0115597
-0.0269931
-0.0737884
0.0318712
-0.0134191
0.0740299
-0.427216
0.398075
0.257627
-0.0910872
0.1162
-0.0350655
0.155054
-0.139364
0.0835944
-0.466984
0.420069
0.410337
-0.170688
0.128039
0.347016
0.495186
-0.490782
-0.291684
-0.205147
0.190113
-0.223182
-0.297506
0.277976
0.347331
0.0511059
-0.039731
0.0355886
0.0550218
-0.058679
0.0470296
0.192134
-0.187822
0.16888
-0.321894
0.400292
-0.442249
0.0303304
-0.0423551
-0.158526
0.114611
-0.117014
-0.0505998
0.142469
-0.115265
0.0643521
-0.205553
0.226675
0.11626
0.0531981
-0.0195552
-0.205744
-0.12117
0.0367154
0.302184
0.100526
-0.0888502
0.353301
0.31281
-0.28987
0.057595
0.276917
-0.268278
-0.243327
0.272855
-0.232838
-0.0429985
-0.0980665
0.171859
0.343351
-0.203113
0.100148
-0.391862
0.210904
-0.243364
0.443987
0.183234
-0.359144
0.514693
-0.280215
0.283955
0.150215
0.277178
-0.308363
-0.461568
0.141604
-0.142549
-0.284325
0.115606
-0.154256
-0.35266
0.28161
-0.310479
0.393344
-0.0427031
0.102622
0.257958
-0.110189
0.0460435
-0.302478
0.121741
-0.109995
0.0637567
0.213329
-0.256019
-0.181671
0.233569
-0.194982
0.174993
-0.0429943
0.0224173
0.190389
0.217486
-0.218025
-0.224861
-0.0651032
0.0721872
-0.0848107
-0.00138588
0.0124332
-0.129865
0.173136
-0.186534
-0.0935511
0.277172
-0.287782
0.0997397
0.00440009
-0.00837138
0.0966817
0.171966
-0.167957
0.0982118
0.167214
-0.161642
-0.0742499
0.0195422
-0.0115342
0.0453215
0.131189
-0.166829
0.124749
0.324453
-0.271794
-0.100822
-0.330571
0.413424
-0.367579
-0.113804
0.118611
0.155786
-0.0472402
0.0665075
-0.185893
-0.124723
0.146608
0.0476012
-0.0913806
0.0531404
0.202746
-0.0563364
0.0595606
-0.151292
-0.326855
0.288994
0.276417
-0.0280813
0.0200724
0.0620353
0.0948005
-0.086184
-0.0382713
-0.0322142
0.0325707
-0.110446
-0.160061
0.140392
-0.0968491
0.0104806
-0.00107632
0.0649156
0.273729
-0.229372
-0.104545
0.21695
-0.226583
0.10268
-0.0624142
0.0268109
0.242697
-0.00463863
0.0346085
-0.138287
0.574245
0.319236
-0.582201
0.344998
-0.092922
0.0997318
-0.314865
0.0680631
-0.227059
0.133233
0.150318
0.546891
0.012793
-0.234929
0.64394
0.256216
0.0706573
-0.25324
-0.0610269
-0.12241
-4.12929e-19
0.00443661
0.00242626
-0.00443661
0.0112995
-2.48349e-14
-1.40487e-14
0.000940309
1.72788e-14
0.00981353
-0.784222
0.277622
0.168008
0.0674606
0.170376
-0.17922
-0.0672693
0.122863
0.000122112
-0.0628673
0.0996365
0.0775647
0.0191337
-0.525128
-0.0801249
-0.207839
0.534051
-0.729222
0.433913
0.00665456
0.03831
-0.103454
0.0331218
0.038286
-0.10058
0.082557
-0.165769
0.153543
-0.191504
0.257423
0.0715441
-0.177106
-0.0320598
0.214477
-0.615213
0.82814