/*--------------------------------*- C++ -*----------------------------------*\
  =========                 |
  \\      /  F ield         | OpenFOAM: The Open Source CFD Toolbox
   \\    /   O peration     | Website:  https://openfoam.org
    \\  /    A nd           | Version:  6
     \\/     M anipulation  |
\*---------------------------------------------------------------------------*/
FoamFile
{
    version     2.0;
    format      ascii;
    class       volScalarField;
    location    "3.86";
    object      T;
}
// * * * * * * * * * * * * * * * * * * * * * * * * * * * * * * * * * * * * * //

dimensions      [0 0 0 1 0 0 0];

internalField   nonuniform List<scalar> 
10000
(
1
1
1
1
1
1
1
1
1
1
1
1
1
1
1
1
1
1
1
1
1
1
1
1
1
1
1
1
1
1
1
1
1
1
1
1
1
1
1
1
1
1
1
1
1
1
1
1
1
1
1
1
1
1
1
1
1
1
1
1
1
1
1
1
1
1
1
1
1
1
1
1
1
1
1
1
1
1
1
1
1
1
1
1
1
1
1
1
1
1
1
1
1
1
1
1
1
1
1
1
1
1
1
1
1
1
1
1
1
1
1
1
1
1
1
1
1
1
1
1
1
1
1
1
1
1
1
1
1
1
1
1
1
1
1
1
1
1
1
1
1
1
1
1
1
1
1
1
1
1
1
1
1
1
1
1
1
1
1
1
1
1
1
1
1
1
1
1
1
1
1
1
1
1
1
1
1
1
1
1
1
1
1
1
1
1
1
1
1
1
1
1
1
1
1
1
1
1
1
1
1
1
1
1
1
1
1
1
1
1
1
1
1
1
1
1
1
1
1
1
1
1
1
1
1
1
1
1
1
1
1
1
1
1
1
1
1
1
1
1
1
1
1
1
1
1
1
1
1
1
1
1
1
1
1
1
1
1
1
1
1
1
1
1
1
1
1
1
1
1
1
1
1
1
1
1
1
1
1
1
1
1
1
1
1
1
1
1
1
1
1
1
1
1
1
1
1
1
1
1
1
1
1
1
1
1
1
1
1
1
1
1
1
1
1
1
1
1
1
1
1
1
1
1
1
1
1
1
1
1
1
1
1
1
1
1
1
1
1
1
1
1
1
1
1
1
1
1
1
1
1
1
1
1
1
1
1
1
1
1
1
1
1
1
1
1
1
1
1
1
1
1
1
1
1
1
1
1
1
1
1
1
1
1
1
1
1
1
1
1
1
1
1
1
1
1
1
1
1
1
1
1
1
1
1
1
1
1
1
1
1
1
1
1
1
1
1
1
1
1
1
1
1
1
1
1
1
1
1
1
1
1
1
1
1
1
1
1
1
1
1
1
1
1
1
1
1
1
1
1
1
1
1
1
1
1
1
1
1
1
1
1
1
1
1
1
1
1
1
1
1
1
1
1
1
1
1
1
1
1
1
1
1
1
1
1
1
1
1
1
1
1
1
1
1
1
1
1
1
1
1
1
1
1
1
1
1
1
1
1
1
1
1
1
1
1
1
1
1
1
1
1
1
1
1
1
1
1
1
1
1
1
1
1
1
1
1
1
1
1
1
1
1
1
1
1
1
1
1
1
1
1
1
1
1
1
1
1
1
1
1
1
1
1.00001
1.00001
1.00001
1.00001
1.00001
1.00001
1.00001
1.00001
1.00001
1.00001
1.00001
1.00001
1.00001
1
1
1
1
1
1
1
1
1
1
1
1
1
1
1
1
1
1
1
1
1
1
1
1
1
1
1
1
1
1
1
1
1
1
1
1
1
1
1
1
1
1
1
1
1
1
1
1
1
1
1
1
1
1
1
1
1
1
1
1
1
1
1
1
1
1
1
1
1
1
1
1
1
1
1
1
1
1
1
1
1
1
1
1
1.00001
1.00001
1.00001
1.00001
1.00001
1.00001
1.00001
1.00001
1.00001
1.00001
1.00001
1.00001
1.00001
1.00001
1.00001
1.00001
1.00001
1.00001
1.00001
1
1
1
1
1
1
1
1
1
1
1
1
1
1
1
1
1
1
1
1
1
1
1
1
1
1
1
1
1
1
1
1
1
1
1
1
1
1
1
1
1
1
1
1
1
1
1
1
1
1
1
1
1
1
1
1
1
1
1
1
1
1
1
1
1
1
1
1
1
1
1
1
1
1
1
1
1
1
1
1.00001
1.00001
1.00001
1.00001
1.00001
1.00001
1.00002
1.00002
1.00002
1.00002
1.00002
1.00002
1.00002
1.00002
1.00002
1.00002
1.00002
1.00002
1.00001
1.00001
1.00001
1.00001
1.00001
1
1
1
1
1
1
1
1
1
1
1
1
1
1
1
1
1
1
1
1
1
1
1
1
1
1
1
1
1
1
1
1
1
1
1
1
1
1
1
1
1
1
1
1
1
1
1
1
1
1
1
1
1
1
1
1
1
1
1
1
1
1
1
1
1
1
1
1
1
1
1
1
1
1
1
1.00001
1.00001
1.00001
1.00001
1.00001
1.00002
1.00002
1.00002
1.00002
1.00002
1.00002
1.00003
1.00003
1.00003
1.00003
1.00003
1.00003
1.00002
1.00002
1.00002
1.00002
1.00002
1.00001
1.00001
1.00001
1.00001
1
1
1
1
1
1
1
1
1
1
1
1
1
1
1
1
1
1
1
1
1
1
1
1
1
1
1
1
1
1
1
1
1
1
1
1
1
1
1
1
1
1
1
1
1
1
1
1
1
1
1
1
1
1
1
1
1
1
1
1
1
1
1
1
1
1
1
1
1
1
1
1
1
1.00001
1.00001
1.00001
1.00001
1.00002
1.00002
1.00002
1.00002
1.00003
1.00003
1.00003
1.00003
1.00003
1.00003
1.00003
1.00003
1.00003
1.00003
1.00003
1.00003
1.00003
1.00003
1.00002
1.00002
1.00002
1.00001
1.00001
1.00001
1.00001
1
1
1
1
1
1
1
1
1
1
1
1
1
1
1
1
1
1
1
1
1
1
1
1
1
1
1
1
1
1
1
1
1
1
1
1
1
1
1
1
1
1
1
1
1
1
1
1
1
1
1
1
1
1
1
1
1
1
1
1
1
1
1
1
1
1
1
1
1
1
1.00001
1.00001
1.00001
1.00001
1.00002
1.00002
1.00002
1.00003
1.00003
1.00003
1.00003
1.00003
1.00003
1.00003
1.00003
1.00003
1.00003
1.00003
1.00003
1.00003
1.00003
1.00003
1.00003
1.00003
1.00003
1.00003
1.00002
1.00002
1.00001
1.00001
1.00001
1
1
1
1
1
1
1
1
1
1
1
1
1
1
1
1
1
1
1
1
1
1
1
1
1
1
1
1
1
1
1
1
1
1
1
1
1
1
1
1
1
1
1
1
1
1
1
1
1
1
1
1
1
1
1
1
1
1
1
1
1
1
1
1
1
1
1
1
1.00001
1.00001
1.00001
1.00001
1.00002
1.00002
1.00003
1.00003
1.00003
1.00003
1.00003
1.00003
1.00003
1.00002
1.00002
1.00002
1.00001
1.00001
1.00001
1.00001
1.00002
1.00002
1.00003
1.00003
1.00003
1.00003
1.00003
1.00003
1.00002
1.00002
1.00001
1.00001
1.00001
1
1
1
1
1
1
1
1
1
1
1
1
1
1
1
1
1
1
1
1
1
1
1
1
1
1
1
1
1
1
1
1
1
1
1
1
1
1
1
1
1
1
1
1
1
1
1
1
1
1
1
1
1
1
1
1
1
1
1
1
1
1
1
1
1
1
1.00001
1.00001
1.00001
1.00002
1.00002
1.00002
1.00003
1.00003
1.00003
1.00003
1.00003
1.00003
1.00002
1.00001
1
0.999996
0.999988
0.999982
0.99998
0.99998
0.999984
0.999991
1
1.00001
1.00002
1.00003
1.00003
1.00004
1.00004
1.00003
1.00003
1.00002
1.00001
1.00001
1.00001
1
1
1
1
1
1
1
1
1
1
1
1
1
1
1
1
1
1
1
1
1
1
1
1
1
1
1
1
1
1
1
1
1
1
1
1
1
1
1
1
1
1
1
1
1
1
1
1
1
1
1
1
1
1
1
1
1
1
1
1
1
1
1
1
1.00001
1.00001
1.00001
1.00002
1.00002
1.00002
1.00003
1.00003
1.00003
1.00003
1.00003
1.00002
1.00001
1
0.999987
0.999969
0.999951
0.999935
0.999924
0.999919
0.999921
0.99993
0.999943
0.999959
0.999976
0.999993
1.00001
1.00002
1.00003
1.00004
1.00004
1.00003
1.00003
1.00002
1.00001
1.00001
1
1
1
1
1
1
1
1
1
1
1
1
1
1
1
1
1
1
1
1
1
1
1
1
1
1
1
1
1
1
1
1
1
1
1
1
1
1
1
1
1
1
1
1
1
1
1
1
1
1
1
1
1
1
1
1
1
1
1
1
1
1
1
1
1.00001
1.00001
1.00002
1.00002
1.00002
1.00003
1.00003
1.00003
1.00003
1.00003
1.00002
1.00001
0.999995
0.999971
0.999939
0.999902
0.999864
0.999831
0.999808
0.9998
0.999808
0.999829
0.999858
0.999889
0.999921
0.999951
0.999977
1
1.00002
1.00003
1.00004
1.00004
1.00003
1.00003
1.00002
1.00001
1.00001
1
1
1
1
1
1
1
1
1
1
1
1
1
1
1
1
1
1
1
1
1
1
1
1
1
1
1
1
1
1
1
1
1
1
1
1
1
1
1
1
1
1
1
1
1
1
1
1
1
1
1
1
1
1
1
1
1
1
1
1
1
1
1.00001
1.00001
1.00001
1.00002
1.00002
1.00003
1.00003
1.00003
1.00003
1.00003
1.00002
1.00001
0.999992
0.99996
0.999911
0.999846
0.999769
0.999689
0.999618
0.999568
0.999549
0.999566
0.999612
0.999678
0.999753
0.999825
0.999882
0.999929
0.999965
0.999993
1.00002
1.00003
1.00004
1.00004
1.00003
1.00002
1.00002
1.00001
1.00001
1
1
1
1
1
1
1
1
1
1
1
1
1
1
1
1
1
1
1
1
1
1
1
1
1
1
1
1
1
1
1
1
1
1
1
1
1
1
1
1
1
1
1
1
1
1
1
1
1
1
1
1
1
1
1
1
1
1
1
1
1.00001
1.00001
1.00001
1.00002
1.00002
1.00003
1.00003
1.00003
1.00003
1.00003
1.00002
1.00001
0.999996
0.999959
0.999895
0.999797
0.999664
0.999504
0.999333
0.999175
0.999055
0.999001
0.999022
0.999114
0.999263
0.999443
0.999613
0.999751
0.999849
0.999913
0.999958
0.999992
1.00002
1.00003
1.00004
1.00004
1.00003
1.00002
1.00001
1.00001
1
1
1
1
1
1
1
1
1
1
1
1
1
1
1
1
1
1
1
1
1
1
1
1
1
1
1
1
1
1
1
1
1
1
1
1
1
1
1
0.999999
1
0.999999
1
1
1
1
1
1
1
1
1
1
1
1
1
1
1
1
1
1
1.00001
1.00001
1.00002
1.00002
1.00003
1.00003
1.00003
1.00003
1.00003
1.00002
1.00002
1.00001
0.999972
0.999899
0.999771
0.999575
0.999308
0.998984
0.998626
0.998278
0.997996
0.997839
0.997836
0.998004
0.998317
0.998713
0.999109
0.999447
0.99968
0.999823
0.999906
0.999959
0.999994
1.00002
1.00003
1.00004
1.00003
1.00003
1.00002
1.00001
1.00001
1
1
1
1
1
1
1
1
1
1
1
1
1
1
1
1
1
1
1
1
1
1
1
1
1
1
1
1
1
1
1
1
1
0.999999
1
1
1
1
0.999998
1
0.999998
1
0.999999
1
1
1
1
1
1
1
1
1
1
1
1
1
1
1
1.00001
1.00001
1.00001
1.00002
1.00002
1.00003
1.00003
1.00003
1.00002
1.00002
1.00002
1.00002
0.999994
0.999926
0.999783
0.999535
0.999158
0.998645
0.99801
0.997288
0.996554
0.995922
0.995508
0.99541
0.995682
0.996286
0.997101
0.997977
0.998735
0.999285
0.999622
0.999806
0.999905
0.999964
1
1.00002
1.00003
1.00003
1.00003
1.00002
1.00001
1.00001
1
1
1
1
1
1
1
1
1
1
1
1
1
1
1
1
1
1
1
1
1
1
1
1
1
1
1
1
1
1
1
1
1
1
1
1
1
1
0.999999
1
0.999998
1
0.999999
1
1
1
1
1
1
1
1
1
1
1
1
1
1
1.00001
1.00001
1.00001
1.00002
1.00002
1.00003
1.00003
1.00003
1.00002
1.00002
1.00003
1.00003
1.00002
0.999968
0.999836
0.999566
0.999106
0.998414
0.997472
0.996279
0.994885
0.993416
0.992079
0.991106
0.990742
0.991115
0.99221
0.993814
0.995607
0.997205
0.998411
0.999169
0.999586
0.999798
0.999912
0.999975
1.00001
1.00003
1.00003
1.00003
1.00003
1.00002
1.00001
1.00001
1
1
1
1
1
1
1
1
1
1
1
1
1
1
1
1
1
1
1
1
1
1
1
1
1
1
1
1
1
0.999999
1
0.999998
1
0.999998
1
1
0.999999
1
0.999998
1
1
1
1
1
1
1
1
1
1
1
1
1
1
1
1
1
1.00001
1.00001
1.00002
1.00002
1.00003
1.00003
1.00003
1.00002
1.00002
1.00002
1.00003
1.00004
1.00001
0.999913
0.999666
0.999181
0.998369
0.997164
0.995505
0.993361
0.990788
0.987999
0.985358
0.983339
0.982408
0.982865
0.984734
0.987689
0.991052
0.99419
0.996625
0.998227
0.999114
0.999576
0.999806
0.999926
0.999988
1.00002
1.00003
1.00003
1.00003
1.00002
1.00001
1.00001
1
1
1
1
1
1
1
1
1
1
1
1
1
1
1
1
1
1
1
1
1
1
1
1
1
1
1
1
1
1
1
0.999999
1
0.999999
1
1
0.999996
1
0.999995
1
0.999998
1
1
0.999999
1
1
1
1
1
1
1
1
1
1
1
1.00001
1.00001
1.00001
1.00002
1.00003
1.00003
1.00003
1.00002
1.00002
1.00002
1.00003
1.00004
1.00004
0.999992
0.999806
0.999368
0.998539
0.997187
0.995184
0.992384
0.988687
0.984162
0.979178
0.974408
0.970734
0.968931
0.969562
0.972633
0.977603
0.983341
0.988872
0.993329
0.9964
0.998213
0.999141
0.999594
0.99983
0.999947
1
1.00002
1.00003
1.00003
1.00002
1.00002
1.00001
1.00001
1
1
1
1
1
1
1
1
1
1
1
1
1
1
1
1
1
1
1
1
1
1
1
1
1
1
1
0.999998
1
0.999995
1.00001
0.999995
1
0.999996
1
0.999997
1
0.999996
1
0.999998
1
1
0.999999
1
1
0.999999
1
1
1
1
1
1
1
1
1.00001
1.00001
1.00002
1.00002
1.00003
1.00003
1.00002
1.00002
1.00002
1.00003
1.00004
1.00006
1.00005
0.999945
0.999616
0.998882
0.997542
0.995405
0.992224
0.987698
0.981614
0.974104
0.965847
0.958039
0.952121
0.949315
0.950413
0.955366
0.963101
0.972135
0.980798
0.988045
0.993296
0.996609
0.998349
0.999224
0.999652
0.999868
0.999969
1.00001
1.00003
1.00003
1.00002
1.00002
1.00001
1.00001
1
1
1
1
1
1
1
1
1
1
1
1
1
1
1
1
1
1
1
1
1
1
1
1
1
1
0.999999
1
1
0.999996
1.00001
0.999993
1.00001
0.999997
0.999999
1
0.999996
1
0.999998
1
1
1
1
0.999999
1
0.999999
1
1
1
1
1
1
1
1.00001
1.00001
1.00001
1.00002
1.00003
1.00003
1.00003
1.00002
1.00002
1.00002
1.00004
1.00007
1.00009
1.00005
0.999854
0.999307
0.998143
0.996096
0.99288
0.988056
0.981054
0.971544
0.959858
0.947232
0.935593
0.927008
0.923309
0.925442
0.933216
0.944758
0.957891
0.970354
0.980905
0.98888
0.994063
0.997083
0.998619
0.99936
0.999733
0.999912
0.999991
1.00002
1.00003
1.00002
1.00002
1.00001
1.00001
1
1
1
1
1
1
1
1
1
1
1
1
1
1
1
1
1
1
1
1
1
1
1
1
1
1
0.999996
1.00001
0.999989
1.00001
0.99999
1.00001
0.999996
1
0.999995
1.00001
0.999992
1.00001
0.999995
1
1
0.999998
1
0.999999
1
1
1
1
1
1
1
1
1
1.00001
1.00001
1.00002
1.00002
1.00003
1.00003
1.00002
1.00001
1.00001
1.00003
1.00006
1.0001
1.00012
1.00003
0.9997
0.998844
0.997094
0.99413
0.98953
0.98253
0.972188
0.958103
0.941065
0.923093
0.907043
0.89575
0.891694
0.895999
0.907703
0.924148
0.941881
0.958674
0.9728
0.98353
0.990812
0.995331
0.997721
0.998932
0.999529
0.999822
0.999954
1.00001
1.00002
1.00002
1.00002
1.00001
1.00001
1
1
1
1
1
1
1
1
1
1
1
1
1
1
1
1
1
1
1
1
1
1
1
1
1
0.999998
1
0.999999
0.999995
1.00001
0.999981
1.00002
0.999988
1.00001
0.999999
1
0.999998
1
0.999997
1
1
0.999997
1
1
0.999999
1
1
1
1
1
1
1
1.00001
1.00001
1.00001
1.00002
1.00003
1.00003
1.00003
1.00002
1.00001
1.00001
1.00004
1.0001
1.00015
1.00015
0.999984
0.999469
0.998193
0.995699
0.991626
0.985369
0.975639
0.961056
0.94132
0.91803
0.894216
0.873648
0.860115
0.856677
0.864442
0.881129
0.902931
0.925812
0.947079
0.964841
0.97808
0.987461
0.99329
0.996629
0.998376
0.999256
0.999695
0.9999
0.999986
1.00002
1.00002
1.00002
1.00001
1.00001
1.00001
1
1
1
1
1
1
1
1
1
1
1
1
1
1
1
1
1
1
1
1
1
1
1
1
0.999999
1.00001
0.999985
1.00002
0.999979
1.00001
1
0.999994
1
1
0.999991
1.00001
0.999994
1
0.999999
1
0.999999
1
1
0.999998
1
1
1
1
1
1
1
1.00001
1.00001
1.00002
1.00002
1.00003
1.00003
1.00003
1.00001
0.999995
1.00002
1.00007
1.00015
1.00021
1.00017
0.999903
0.999151
0.997335
0.993939
0.988651
0.980539
0.967586
0.947927
0.921797
0.891921
0.862602
0.838192
0.823275
0.821299
0.832862
0.854682
0.881721
0.910113
0.936189
0.957553
0.973429
0.98445
0.991398
0.995548
0.997785
0.998949
0.999542
0.99983
0.999958
1.00001
1.00002
1.00002
1.00002
1.00001
1.00001
1
1
1
1
1
1
1
1
1
1
1
1
1
1
1
1
1
1
1
1
1
1
1
0.999999
1
0.999992
1.00001
1.00001
0.999975
1.00004
0.99997
1.00001
1
0.999999
0.999996
1.00001
0.999991
1
1
0.999998
1
0.999999
1
1
1
1
1
1
1
1
1.00001
1.00001
1.00001
1.00002
1.00002
1.00003
1.00003
1.00002
0.999996
0.999982
1.00004
1.00012
1.00021
1.00028
1.00017
0.999786
0.998749
0.996255
0.991834
0.985345
0.975331
0.958765
0.933457
0.900683
0.864899
0.83142
0.804663
0.789013
0.788333
0.802816
0.828609
0.860544
0.89426
0.925569
0.950794
0.969529
0.98199
0.989967
0.994666
0.997286
0.998673
0.999393
0.999756
0.999924
0.999993
1.00002
1.00002
1.00002
1.00001
1.00001
1
1
1
1
1
1
1
1
1
1
1
1
1
1
1
1
1
1
1
1
1
1
0.999999
1
0.999999
0.999995
1.00002
0.999965
1.00003
0.99999
0.999983
1.00002
0.999994
0.99999
1.00001
0.999996
0.999998
1
1
0.999996
1
1
0.999997
1
1
0.999999
1
1
1
1
1.00001
1.00001
1.00002
1.00002
1.00002
1.00004
1.00002
1.00002
0.999975
0.99997
1.00007
1.00017
1.0003
1.00037
1.00015
0.999644
0.998284
0.994933
0.989422
0.981906
0.970141
0.94978
0.918676
0.879661
0.839479
0.804133
0.777256
0.761535
0.760917
0.776398
0.804628
0.840739
0.879528
0.915528
0.944597
0.965781
0.980033
0.988954
0.994081
0.99694
0.998479
0.999285
0.999695
0.999893
0.999979
1.00001
1.00002
1.00002
1.00001
1.00001
1
1
1
1
1
1
1
1
1
1
1
1
1
1
1
1
1
1
1
1
1
1
1
1
0.999995
1.00001
0.999981
1
1.00003
0.999946
1.00004
0.999995
0.999984
1.00001
1.00001
0.999985
1.00001
1
0.999999
0.999998
1
1
0.999996
1
1
0.999999
0.999999
1
1
1
1.00001
1.00001
1.00002
1.00003
1.00002
1.00004
1.00002
1.00001
0.999942
0.999964
1.00013
1.00023
1.00041
1.00046
1.0001
0.999511
0.997791
0.993372
0.986744
0.978551
0.965344
0.941383
0.904954
0.861089
0.818452
0.783663
0.758378
0.74325
0.741573
0.756436
0.786263
0.82615
0.869547
0.908827
0.940081
0.962674
0.978396
0.988166
0.99375
0.996764
0.998377
0.999227
0.999661
0.999873
0.999969
1.00001
1.00002
1.00002
1.00001
1.00001
1
1
1
1
1
1
1
1
1
1
1
1
1
1
1
1
1
1
1
1
1
1
1
0.999996
1.00001
0.999997
0.999985
1.00004
0.999947
1.00002
1.00003
0.999959
1.00001
1.00002
0.999985
0.999995
1.00001
0.999998
0.999996
1
1
0.999999
1
1
1
1
1
1
1
1.00001
1.00001
1.00001
1.00002
1.00002
1.00003
1.00005
1.00001
1
0.99989
0.999975
1.0002
1.00029
1.00057
1.00054
0.999987
0.999442
0.997304
0.991583
0.983908
0.97542
0.961178
0.934214
0.893874
0.847428
0.80476
0.772214
0.749116
0.734315
0.731187
0.745114
0.776744
0.820774
0.867646
0.908313
0.93917
0.961691
0.977473
0.987615
0.993553
0.996724
0.998362
0.999215
0.999652
0.999866
0.999964
1
1.00001
1.00001
1.00001
1.00001
1
1
1
1
1
1
1
1
1
1
1
1
1
1
1
1
1
1
1
1
1
1
0.999999
1
1
0.999984
1.00003
0.999975
0.999985
1.00006
0.999945
1
1.00003
0.999988
0.999979
1.00002
1
0.999991
1
1.00001
0.999996
0.999998
1.00001
1
0.999997
1
1
1
1
1
1.00001
1.00001
1.00003
1.00002
1.00003
1.00005
1
0.999992
0.999815
1.00002
1.00025
1.00035
1.0008
1.00057
0.999852
0.999507
0.996805
0.98963
0.981121
0.972583
0.957545
0.928514
0.886542
0.84037
0.800041
0.770315
0.74901
0.73408
0.730026
0.743694
0.77755
0.825106
0.873557
0.913398
0.942457
0.963497
0.978032
0.987667
0.993531
0.996757
0.998409
0.999243
0.999664
0.99987
0.999964
1
1.00001
1.00001
1.00001
1.00001
1
1
1
1
1
1
1
1
1
1
1
1
1
1
1
1
1
1
1
1
1
1
0.999999
1
0.999991
1.00001
1
0.999964
1.00006
0.999959
0.999981
1.00005
0.999987
0.99997
1.00002
1.00001
0.999986
0.999996
1.00001
1
0.999993
1
1
1
0.999999
1
1
1
1
1
1.00001
1.00001
1.00003
1.00001
1.00005
1.00005
1.00002
0.999954
0.999734
1.0001
1.00026
1.00047
1.00106
1.0005
0.999805
0.999727
0.996188
0.987673
0.978693
0.970049
0.954088
0.924095
0.882952
0.839887
0.803476
0.776506
0.756205
0.741421
0.737298
0.751521
0.787108
0.835834
0.883459
0.920952
0.948153
0.96722
0.980076
0.988562
0.993862
0.996893
0.998489
0.999294
0.999692
0.999882
0.999969
1
1.00001
1.00001
1.00001
1.00001
1
1
1
1
1
1
1
1
1
1
1
1
1
1
1
1
1
1
1
1
1
0.999999
1
0.999998
1
1.00001
0.999969
1.00004
0.999992
0.999957
1.00006
0.999986
0.999968
1.00002
1.00002
0.99998
0.999992
1.00001
1
0.999993
1
1
0.999998
1
1
1
1
1
1
1.00001
1.00002
1.00001
1.00003
0.999993
1.00008
1.00003
1.00006
0.999868
0.999691
1.00016
1.00022
1.00071
1.00126
1.00034
1.00001
0.999999
0.995372
0.985991
0.976908
0.967683
0.950489
0.92058
0.882311
0.844146
0.81222
0.787717
0.768495
0.754807
0.751541
0.766397
0.801996
0.849175
0.893926
0.928765
0.954157
0.971499
0.982823
0.990049
0.994549
0.997191
0.998625
0.99936
0.999725
0.999898
0.999976
1.00001
1.00002
1.00001
1.00001
1.00001
1
1
1
1
1
1
1
1
1
1
1
1
1
1
1
1
1
1
1
1
1
1
1
0.999998
1.00001
0.999988
1.00001
1.00002
0.999951
1.00005
0.999997
0.999964
1.00002
1.00002
0.999978
0.999991
1.00001
1.00001
0.999992
0.999992
1.00001
1
0.999996
0.999998
1
1
1
1
1
1.00001
1.00002
1.00002
1.00003
0.999986
1.00009
1.00003
1.0001
0.999753
0.999702
1.00012
1.00022
1.00103
1.00128
1.00026
1.00048
1.00012
0.994484
0.984929
0.97582
0.96533
0.946736
0.917799
0.883509
0.850555
0.822758
0.800572
0.783373
0.771978
0.770545
0.785862
0.819908
0.863901
0.904894
0.936963
0.96007
0.975615
0.985563
0.99171
0.995418
0.9976
0.998816
0.999449
0.999765
0.999916
0.999983
1.00001
1.00002
1.00001
1.00001
1.00001
1
1
1
1
1
1
1
1
1
1
1
1
1
1
1
1
1
1
1
1
1
1
0.999999
1
0.999999
0.999995
1.00002
0.99997
1.00002
1.00001
0.999962
1.00002
1.00002
0.999984
0.999988
1.00001
1.00001
0.999988
0.999997
1.00001
1
0.999999
0.999998
1
1
1
1
1.00001
1
1.00001
1.00002
1.00002
1.00002
0.999986
1.00009
1.00007
1.00011
0.999672
0.999711
0.999976
1.00032
1.00129
1.00117
1.00043
1.00102
1.00002
0.993867
0.984634
0.975229
0.96305
0.943329
0.915954
0.885576
0.85694
0.832334
0.812616
0.798399
0.790383
0.79164
0.807643
0.839908
0.880384
0.91766
0.946477
0.966572
0.979715
0.988073
0.993242
0.996296
0.998043
0.999022
0.999547
0.99981
0.999935
0.999991
1.00001
1.00002
1.00001
1.00001
1.00001
1
1
1
1
1
1
1
1
1
1
1
1
1
1
1
1
1
1
1
1
1
1
1
1
0.999997
1.00001
0.999994
0.999996
1.00002
0.999968
1.00002
1.00001
0.999987
0.999991
1.00001
1
0.999993
0.999993
1
1.00001
0.999994
0.999994
1
1
0.999999
0.999998
1
1.00001
1
1
1.00002
1.00003
1.00001
0.999986
1.00007
1.00014
1.00009
0.999657
0.999654
0.999805
1.00049
1.0014
1.00109
1.00079
1.00142
0.999886
0.993774
0.984961
0.974922
0.961212
0.941042
0.915402
0.888103
0.862395
0.840116
0.823022
0.812355
0.808413
0.812969
0.830197
0.861153
0.898305
0.931798
0.956871
0.973577
0.984033
0.990527
0.994587
0.997051
0.998455
0.999224
0.999637
0.999851
0.999953
0.999998
1.00001
1.00002
1.00001
1.00001
1.00001
1
1
1
1
1
1
1
1
1
1
1
1
1
1
1
1
1
1
1
1
1
1
1
0.999999
1
1
0.999993
1.00001
0.999984
1
1.00001
0.999988
0.999998
1.00001
1
0.999993
0.999995
1.00001
1
0.999995
0.999997
1
1
1
0.999999
1
1
1.00001
1
1
1.00002
1.00004
1
0.999972
1.00005
1.0002
1.00009
0.999691
0.999533
0.999652
1.00058
1.0014
1.00113
1.00118
1.00168
0.999893
0.994193
0.985687
0.974929
0.960276
0.940361
0.916417
0.891308
0.867471
0.847047
0.83261
0.825741
0.826046
0.833941
0.852575
0.882289
0.916083
0.945451
0.966559
0.980006
0.988079
0.992903
0.99586
0.997696
0.998791
0.999399
0.999721
0.999886
0.999967
1
1.00002
1.00002
1.00001
1.00001
1.00001
1
1
1
1
1
1
1
1
1
1
1
1
1
1
1
1
1
1
1
1
1
1
1
1
1
0.999998
1
1
0.999994
1.00001
0.999989
1
1.00001
0.999999
0.999995
1
1
1
0.999997
0.999998
1
1
0.999997
0.999999
1
1
1
1.00001
1.00001
0.999997
1.00002
1.00006
1.00001
0.999945
1.00002
1.00025
1.00014
0.999751
0.999395
0.999514
1.00055
1.00134
1.00127
1.00152
1.00184
1.0001
0.994992
0.986713
0.975448
0.960469
0.941316
0.919052
0.895708
0.873387
0.854727
0.843075
0.840037
0.844139
0.854613
0.873964
0.901937
0.932056
0.957117
0.974407
0.985027
0.991208
0.99481
0.996966
0.998281
0.999077
0.999539
0.99979
0.999919
0.999981
1.00001
1.00002
1.00002
1.00001
1.00001
1.00001
1
1
1
1
1
1
1
1
1
1
1
1
1
1
1
1
1
1
1
1
1
1
1
1
1
1
1
0.999996
1.00001
0.999994
1
1
0.999998
0.999997
1
1
0.999998
0.999997
1
1
0.999999
0.999998
1
1
1
0.999999
1
1.00001
1.00001
0.999991
1.00001
1.00007
1.00003
0.999916
0.999988
1.00026
1.00024
0.999832
0.999307
0.999356
1.00036
1.00124
1.00147
1.00179
1.00196
1.0005
0.995999
0.988009
0.976619
0.961804
0.943693
0.923154
0.901607
0.880912
0.864275
0.855705
0.856308
0.863164
0.874921
0.894003
0.919751
0.946012
0.966798
0.980541
0.988722
0.9934
0.996114
0.997744
0.998731
0.999318
0.999657
0.999846
0.999945
0.999993
1.00001
1.00002
1.00002
1.00001
1.00001
1.00001
1
1
1
1
1
1
1
1
1
1
1
1
1
1
1
1
1
1
1
1
1
1
1
1
1
1
1
1
1
0.999997
1
0.999999
0.999997
1
1
0.999995
1
1
1
0.999998
1
1
1
0.999998
1
1
0.999997
1.00001
1.00002
0.99999
0.999989
1.00008
1.00006
0.999899
0.999928
1.00023
1.00035
0.999964
0.999311
0.99917
1.00004
1.00107
1.00163
1.00199
1.00214
1.00097
0.997049
0.98957
0.978483
0.964155
0.94722
0.928516
0.908901
0.890048
0.875851
0.870627
0.874232
0.882407
0.894361
0.912768
0.936239
0.958652
0.975297
0.985733
0.991712
0.995086
0.997067
0.998284
0.999039
0.999491
0.99975
0.999892
0.999966
1
1.00002
1.00002
1.00002
1.00001
1.00001
1.00001
1
1
1
1
1
1
1
1
1
1
1
1
1
1
1
1
1
1
1
1
1
1
1
1
1
1
0.999999
1
0.999998
1
1
0.999998
1
1
0.999997
1
1
0.999998
0.999998
1
1
1
1
0.999997
1
1
0.999994
1
1.00003
0.999996
0.999965
1.00007
1.00011
0.999911
0.999852
1.00016
1.00043
1.00016
0.999429
0.999021
0.999639
1.00077
1.00165
1.00219
1.00237
1.00143
0.998105
0.991328
0.980825
0.967268
0.951751
0.934973
0.917225
0.900341
0.888994
0.88706
0.89244
0.900671
0.912496
0.930345
0.951506
0.970035
0.982762
0.990221
0.994285
0.996538
0.997885
0.998739
0.999285
0.999621
0.999817
0.999925
0.999981
1.00001
1.00002
1.00002
1.00002
1.00001
1.00001
1.00001
1
1
1
1
1
1
1
1
1
1
1
1
1
1
1
1
1
1
1
1
1
1
1
1
1
1
1
1
1
1
1
1
1
0.999999
0.999999
1
0.999998
0.999999
1
1
0.999999
0.999999
1
0.999999
1
1.00001
0.999996
0.999989
1.00003
1.00001
0.999943
1.00004
1.00015
0.999965
0.99979
1.00003
1.00043
1.00037
0.99968
0.998995
0.999223
1.00031
1.00147
1.0023
1.00263
1.00196
0.999152
0.993031
0.983318
0.970951
0.957144
0.942163
0.926037
0.911303
0.903111
0.903787
0.909568
0.917392
0.92932
0.946507
0.964886
0.979452
0.988655
0.993665
0.996248
0.997664
0.998538
0.999115
0.999493
0.999731
0.999872
0.999952
0.999993
1.00001
1.00002
1.00002
1.00002
1.00001
1.00001
1.00001
1
1
1
1
1
1
1
1
1
1
1
1
1
1
1
1
1
1
1
1
1
1
1
1
1
1
1
1
1
1
1
1
0.999999
1
1
0.999999
0.999999
1
1
0.999999
1
1
1
1
0.999994
1.00001
1
0.999978
1.00002
1.00004
0.999941
0.999985
1.00017
1.00006
0.99978
0.999872
1.00033
1.00053
1.00003
0.999154
0.998925
0.99975
1.00103
1.00217
1.00291
1.00261
1.00015
0.994543
0.985799
0.974972
0.962955
0.94949
0.93486
0.922571
0.917435
0.919633
0.925101
0.932751
0.944842
0.960668
0.975673
0.986428
0.992694
0.995894
0.997492
0.998387
0.998969
0.999372
0.999642
0.999813
0.999916
0.999973
1
1.00002
1.00002
1.00002
1.00001
1.00001
1.00001
1
1
1
1
1
1
1
1
1
1
1
1
1
1
1
1
1
1
1
1
1
1
1
1
1
1
1
1
1
1
1
1
1
1
1
0.999999
1
1
1
0.999999
1
1
0.999998
1
1
0.999993
1
1.00002
0.999979
0.999997
1.00007
0.999975
0.999921
1.00013
1.00017
0.999858
0.999744
1.00012
1.00056
1.00037
0.999492
0.998892
0.999253
1.00034
1.00174
1.00307
1.00328
1.00112
0.995953
0.988276
0.979116
0.968734
0.956487
0.943414
0.933807
0.93125
0.934158
0.939253
0.946956
0.958729
0.972331
0.983764
0.991194
0.995208
0.997189
0.998212
0.998829
0.999251
0.999546
0.999745
0.999871
0.999947
0.999989
1.00001
1.00002
1.00002
1.00002
1.00001
1.00001
1.00001
1
1
1
1
1
1
1
1
1
1
1
1
1
1
1
1
1
1
1
1
1
1
1
1
1
1
1
1
1
1
1
1
1
1
1
1
1
1
0.999999
1
1
1
1
0.999998
1
0.999998
0.999991
1.00002
0.999996
0.999968
1.00006
1.00003
0.999897
1.00003
1.00022
1.00001
0.999717
0.99988
1.00043
1.00056
0.999911
0.999163
0.998983
0.999591
1.00105
1.0029
1.00369
1.00195
0.997397
0.990927
0.983348
0.974228
0.962989
0.951748
0.94493
0.944376
0.947485
0.952233
0.959835
0.970522
0.981368
0.989493
0.994298
0.996742
0.997965
0.998665
0.99913
0.999455
0.999677
0.999823
0.999915
0.99997
1
1.00002
1.00002
1.00002
1.00002
1.00001
1.00001
1.00001
1
1
1
1
1
1
1
1
1
1
1
1
1
1
1
1
1
1
1
1
1
1
1
1
1
1
1
1
1
1
1
1
1
1
1
1
1
1
1
1
1
1
1
0.999998
1
1.00001
0.999988
1.00001
1.00002
0.99996
1.00002
1.00008
0.999942
0.999931
1.00017
1.00016
0.999825
0.999728
1.00018
1.00053
1.00027
0.999626
0.99902
0.999063
1.00032
1.00234
1.00354
1.00241
0.998836
0.993761
0.987561
0.979392
0.969245
0.960153
0.955976
0.956752
0.959586
0.963851
0.970883
0.979808
0.987837
0.993262
0.996244
0.997735
0.99853
0.999028
0.999374
0.999615
0.999778
0.999883
0.999949
0.999988
1.00001
1.00002
1.00002
1.00002
1.00002
1.00001
1.00001
1.00001
1
1
1
1
1
1
1
1
1
1
1
1
1
1
1
1
1
1
1
1
1
1
1
1
1
1
1
1
1
1
1
1
1
1
1
1
1
1
1
1
1
0.999999
1
1
0.999997
1.00001
0.999996
0.999991
1.00002
0.999988
0.999972
1.00006
1.00003
0.999907
1.00004
1.0002
1
0.999758
0.999929
1.0003
1.00043
1.00007
0.999321
0.998942
0.999768
1.00153
1.0028
1.00231
1
0.996473
0.991504
0.984145
0.975262
0.968582
0.966747
0.967988
0.969951
0.973441
0.979472
0.986453
0.99211
0.995637
0.997513
0.998483
0.999031
0.999374
0.999603
0.999757
0.999862
0.999931
0.999976
1
1.00002
1.00002
1.00002
1.00002
1.00001
1.00001
1.00001
1
1
1
1
1
1
1
1
1
1
1
1
1
1
1
1
1
1
1
1
1
1
1
1
1
1
1
1
1
1
1
1
1
1
1
1
1
1
1
1
1
1
1
1
1
0.999999
0.999999
1.00001
0.99999
1.00001
1.00002
0.99997
1.00001
1.00007
0.999973
0.999948
1.00011
1.00013
0.999926
0.999819
1.00003
1.00035
1.0003
0.999725
0.999231
0.999563
1.00067
1.00165
1.0017
1.00073
0.998718
0.994703
0.987999
0.980801
0.976883
0.976547
0.976974
0.977649
0.98052
0.985715
0.991115
0.995037
0.997296
0.998456
0.999057
0.999397
0.999608
0.999749
0.999847
0.999915
0.999962
0.999993
1.00001
1.00002
1.00002
1.00002
1.00002
1.00001
1.00001
1.00001
1
1
1
1
1
1
1
1
1
1
1
1
1
1
1
1
1
1
1
1
1
1
1
1
1
1
1
1
1
1
1
1
1
1
1
1
1
1
1
1
1
1
1
1
1
1
0.999997
1
1
0.99999
1.00002
1
0.999974
1.00003
1.00004
0.999962
0.999994
1.00012
1.00008
0.999886
0.999891
1.00013
1.00026
1.00004
0.999706
0.999651
0.999999
1.0005
1.00093
1.00108
1.00005
0.996434
0.990678
0.986051
0.984462
0.983854
0.982661
0.982795
0.985888
0.990563
0.994603
0.997127
0.998432
0.999067
0.999398
0.999596
0.999731
0.999828
0.999899
0.999949
0.999983
1
1.00002
1.00002
1.00002
1.00002
1.00002
1.00001
1.00001
1.00001
1
1
1
1
1
1
1
1
1
1
1
1
1
1
1
1
1
1
1
1
1
1
1
1
1
1
1
1
1
1
1
1
1
1
1
1
1
1
1
1
1
1
1
1
0.999999
1
1
0.999997
1.00001
0.999995
0.999995
1.00002
0.999992
0.999987
1.00004
1.00002
0.99997
1.00004
1.0001
1.00002
0.999923
0.999961
1.0001
1.00017
1.00006
0.999812
0.999656
0.999861
1.00053
1.00106
0.999997
0.996636
0.992845
0.990857
0.989706
0.987559
0.985838
0.987018
0.990663
0.994463
0.997035
0.998399
0.999062
0.999407
0.999613
0.999749
0.999841
0.999904
0.999948
0.999979
1
1.00001
1.00002
1.00002
1.00002
1.00002
1.00001
1.00001
1.00001
1
1
1
1
1
1
1
1
1
1
1
1
1
1
1
1
1
1
1
1
1
1
1
1
1
1
1
1
1
1
1
1
1
1
1
1
1
1
1
1
1
1
1
1
1
1
0.999999
1
0.999998
1
1
0.999993
1
1.00001
0.99999
1
1.00004
1.00002
0.999995
1.00004
1.00007
1
0.999936
1
1.00013
1.00011
0.999895
0.999719
0.999929
1.00046
1.00041
0.998915
0.996648
0.995128
0.993961
0.99162
0.989081
0.988953
0.99151
0.994734
0.997082
0.998389
0.999064
0.999436
0.999654
0.999783
0.99986
0.99991
0.999947
0.999975
0.999996
1.00001
1.00002
1.00002
1.00002
1.00002
1.00002
1.00001
1.00001
1.00001
1
1
1
1
1
1
1
1
1
1
1
1
1
1
1
1
1
1
1
1
1
1
1
1
1
1
1
1
1
1
1
1
1
1
1
1
1
1
1
1
1
1
1
1
1
1
1
1
1
0.999997
1
1
0.999994
1
1.00001
0.999993
1.00001
1.00003
1.00001
1.00002
1.00004
1.00003
1
0.999999
1.00001
0.999998
0.999973
1.00004
1.0002
1.00013
0.999436
0.998362
0.997554
0.996668
0.994659
0.992211
0.991484
0.993036
0.995393
0.997255
0.998409
0.999091
0.99949
0.999707
0.999821
0.999883
0.999923
0.999952
0.999975
0.999993
1.00001
1.00002
1.00002
1.00002
1.00002
1.00002
1.00001
1.00001
1.00001
1
1
1
1
1
1
1
1
1
1
1
1
1
1
1
1
1
1
1
1
1
1
1
1
1
1
1
1
1
1
1
1
1
1
1
1
0.999999
1
1
0.999999
1
1
1
1
1
1
0.999999
1
1
1
1
0.999998
1
1
0.999996
1.00001
1.00001
1
1.00002
1.00003
1.00002
1.00001
1.00003
1.00004
1
0.999955
0.999973
1.00008
1.00018
1.00008
0.999711
0.999268
0.998951
0.998369
0.996891
0.994995
0.994142
0.994859
0.996298
0.997611
0.998568
0.9992
0.999569
0.99976
0.999859
0.999913
0.999945
0.999965
0.999981
0.999994
1.00001
1.00002
1.00002
1.00003
1.00002
1.00002
1.00002
1.00001
1.00001
1.00001
1
1
1
1
1
1
1
1
1
1
1
1
1
1
1
1
1
1
1
1
1
1
1
1
0.999999
1
1
1
1
1
1
1
1
1
1
1
1
1
0.999999
1
1
1
1
1
1
1
1
1
1
0.999999
1
1
0.999998
1
1
0.999998
1.00001
1.00001
1.00001
1.00002
1.00003
1.00002
1.00003
1.00002
1
0.999996
1.00002
1.00005
1.00001
0.9999
0.999817
0.999756
0.999403
0.998444
0.997186
0.996468
0.996669
0.997395
0.998188
0.998856
0.999336
0.999634
0.999804
0.999898
0.999947
0.99997
0.99998
0.999988
0.999996
1.00001
1.00001
1.00002
1.00003
1.00003
1.00002
1.00002
1.00002
1.00001
1.00001
1.00001
1
1
1
1
1
1
1
1
1
1
1
1
1
1
1
1
1
1
1
1
1
1
1
1
0.999999
1
0.999999
1
0.999999
1
1
1
1
0.999999
1
0.999999
1
1
0.999999
1
1
1
1
1
1
1
1
1
1
1
1
1
1
0.999998
1
1
1
1.00001
1.00001
1.00001
1.00003
1.00003
1.00002
1.00001
1.00002
1.00003
1.00001
0.999965
0.99995
1
1.00004
0.999876
0.999366
0.99868
0.998226
0.998205
0.998472
0.998828
0.999183
0.999486
0.999709
0.999854
0.999939
0.999979
0.999993
0.999995
0.999996
1
1.00001
1.00001
1.00002
1.00003
1.00003
1.00003
1.00002
1.00002
1.00001
1.00001
1.00001
1
1
1
1
1
1
1
1
1
1
1
1
1
1
1
1
1
1
1
1
1
1
1
1
1
1
1
0.999999
1
0.999997
1
0.999998
1
1
0.999998
1
0.999999
1
0.999999
1
1
0.999999
1
1
1
1
1
1
1
1
0.999999
1
1
1
0.999999
0.999999
1
1
1
1.00001
1.00001
1.00002
1.00003
1.00003
1.00003
1.00003
1.00001
0.999992
0.999987
1.00002
1.00004
0.999977
0.999778
0.999514
0.999318
0.999264
0.999299
0.999372
0.999493
0.999648
0.999794
0.999904
0.999972
1
1.00001
1.00001
1.00001
1
1.00001
1.00001
1.00002
1.00002
1.00003
1.00003
1.00002
1.00002
1.00002
1.00001
1.00001
1.00001
1
1
1
1
1
1
1
1
1
1
1
1
1
1
1
1
1
1
1
1
1
1
1
1
1
1
1
1
0.999999
1
1
0.999998
1
0.999997
1
0.999999
0.999999
1
0.999997
1
1
1
1
0.999999
1
1
0.999999
1
1
1
1
1
1
1
1
1
0.999999
1
1
1
1.00001
1.00002
1.00002
1.00003
1.00003
1.00002
1.00001
1.00001
1.00002
1.00001
0.999979
0.999924
0.999869
0.999832
0.999809
0.999772
0.999729
0.999727
0.999783
0.999868
0.999944
0.999996
1.00002
1.00003
1.00002
1.00001
1.00001
1.00001
1.00001
1.00002
1.00002
1.00003
1.00003
1.00003
1.00002
1.00002
1.00001
1.00001
1.00001
1
1
1
1
1
1
1
1
1
1
1
1
1
1
1
1
1
1
1
1
1
1
0.999999
1
0.999999
1
1
0.999999
1
0.999997
1
0.999997
1
0.999999
0.999998
1