/*--------------------------------*- C++ -*----------------------------------*\
  =========                 |
  \\      /  F ield         | OpenFOAM: The Open Source CFD Toolbox
   \\    /   O peration     | Website:  https://openfoam.org
    \\  /    A nd           | Version:  6
     \\/     M anipulation  |
\*---------------------------------------------------------------------------*/
FoamFile
{
    version     2.0;
    format      ascii;
    class       volScalarField;
    location    "4.95";
    object      nut;
}
// * * * * * * * * * * * * * * * * * * * * * * * * * * * * * * * * * * * * * //

dimensions      [0 2 -1 0 0 0 0];

internalField   nonuniform List<scalar> 
4214
(
0.00251274
0.00154746
0.00130075
0.00142892
0.00187565
0.00278265
0.00437819
0.00689771
0.0104672
0.0149676
0.019994
0.0250096
0.0294525
0.0328507
0.0349748
0.0357228
0.0351752
0.0334554
0.0308381
0.0274
0.0237778
0.0209472
0.0195021
0.0196369
0.0211294
0.0237563
0.0280221
0.0345128
0.0426229
0.0480671
0.0470065
0.0401604
0.0304862
0.0209927
0.0133388
0.00793775
0.00453483
0.0026203
0.00170639
0.00151925
0.0022091
0.00117574
0.00109643
0.00123465
0.00158664
0.0023088
0.00364911
0.00589376
0.00929108
0.0138886
0.0193974
0.0252516
0.0307904
0.0353637
0.0385814
0.0403387
0.0406818
0.0397794
0.0377499
0.0347066
0.0309252
0.0269642
0.0235112
0.0211212
0.0202178
0.0209012
0.0235165
0.0289765
0.0368298
0.044246
0.0478866
0.0457555
0.0387307
0.0294222
0.020403
0.0131252
0.00794982
0.00462571
0.00268395
0.00165983
0.0011796
0.00102149
0.000999566
0.0011127
0.00136464
0.00190539
0.00297054
0.00487358
0.00794338
0.012403
0.0181506
0.0247019
0.0313709
0.0372656
0.0417411
0.0445615
0.0457676
0.0456403
0.0444014
0.0420967
0.0387596
0.0346055
0.0301771
0.0262561
0.0231662
0.021557
0.0218841
0.0252302
0.0317882
0.0394919
0.0455035
0.0471718
0.043769
0.0365147
0.0276467
0.0192571
0.0125179
0.00770305
0.00457307
0.00270751
0.00169632
0.00121191
0.000999787
0.00103464
0.00119392
0.00157267
0.00237473
0.00389913
0.00653311
0.0106289
0.0163315
0.0233242
0.0309568
0.038291
0.0442284
0.0482049
0.0501437
0.0504625
0.0497081
0.0481553
0.0457513
0.0422565
0.0378274
0.0330713
0.0288603
0.0254909
0.02377
0.02471
0.0291522
0.0360126
0.042735
0.046593
0.0460854
0.041409
0.0339327
0.0255291
0.0178212
0.0116862
0.00729624
0.00441665
0.00267269
0.00170615
0.0012365
0.00104442
0.00107742
0.00131257
0.0018808
0.00303498
0.00516189
0.00871987
0.0140509
0.0211446
0.0294363
0.0381201
0.0457422
0.0511555
0.0538145
0.0541514
0.0531899
0.0517172
0.0500239
0.0477722
0.0443955
0.0399897
0.0352591
0.0311269
0.0281481
0.0272391
0.0294981
0.0346374
0.0408136
0.0454429
0.0466739
0.044081
0.0383682
0.0308501
0.0230278
0.0160914
0.0106376
0.00673727
0.00416127
0.00258095
0.00168869
0.00124623
0.00107156
0.00112941
0.00149307
0.00231531
0.00392848
0.00682361
0.0115163
0.0182876
0.0268483
0.0365692
0.0459649
0.0532185
0.0569184
0.0571472
0.0552962
0.0529732
0.0510207
0.04946
0.0475655
0.0445905
0.040657
0.0365576
0.0332534
0.0316199
0.032352
0.0357027
0.0404974
0.0447338
0.0465811
0.0452482
0.0409837
0.0346374
0.0273524
0.0202598
0.0141712
0.00944636
0.00607345
0.00383389
0.00244557
0.0016499
0.00124715
0.00108631
0.00121566
0.00175318
0.00289974
0.0050945
0.00893693
0.0149865
0.0233059
0.0336438
0.0445799
0.0538798
0.0592383
0.059817
0.0570255
0.0531804
0.0500578
0.0481402
0.0469281
0.0454557
0.0432415
0.040486
0.0378558
0.0362168
0.0363673
0.038416
0.0416853
0.0448203
0.0463745
0.045505
0.0421518
0.0368197
0.0303221
0.0235681
0.0173458
0.012157
0.00818075
0.00534884
0.00346079
0.00228057
0.00159609
0.00124296
0.00109627
0.00135161
0.00210415
0.003651
0.00655599
0.0115196
0.0190917
0.0293136
0.0412131
0.052492
0.0600684
0.0619293
0.0588557
0.0536517
0.0489647
0.0459701
0.0445116
0.0438267
0.0430081
0.0418598
0.040651
0.0399053
0.040107
0.0414001
0.0433692
0.0452116
0.0459902
0.0450187
0.0421074
0.0375182
0.0318021
0.0256379
0.0196797
0.0144267
0.0101514
0.00691096
0.0046084
0.00306855
0.0020999
0.00153308
0.00123555
0.00110534
0.00154234
0.00254716
0.0045674
0.00829854
0.0145374
0.0238023
0.0357377
0.0484869
0.0586247
0.0629337
0.06089
0.0551027
0.0490163
0.0446441
0.0423354
0.041585
0.0414166
0.0413507
0.0413279
0.0415078
0.0420938
0.0430787
0.0441848
0.0449493
0.0448699
0.0435422
0.0408005
0.0367596
0.0317681
0.0263051
0.0208716
0.0158902
0.0116412
0.00824831
0.00569948
0.00389212
0.00268101
0.00191605
0.00146581
0.00122576
0.0011145
0.00178018
0.00306291
0.00560697
0.0102478
0.017858
0.0287986
0.0420413
0.0544158
0.0618565
0.0623903
0.0575801
0.0507139
0.0448203
0.0411386
0.0395436
0.039385
0.0397455
0.0402538
0.0408882
0.0416147
0.0423532
0.042912
0.0430016
0.0423266
0.040702
0.0380616
0.0344878
0.0301999
0.025515
0.0207835
0.0163271
0.0123888
0.00910839
0.00652477
0.00459678
0.00323243
0.00231776
0.00173946
0.00139838
0.00121394
0.00112327
0.00204603
0.00362752
0.0067493
0.0123912
0.0214472
0.0337294
0.04695
0.0573308
0.06176
0.0597272
0.0535297
0.0467207
0.0413894
0.0381506
0.0368914
0.0370412
0.0376606
0.0383356
0.0389068
0.0392867
0.0393478
0.0389515
0.0379576
0.036257
0.0338305
0.0307581
0.0271938
0.023341
0.0194273
0.015674
0.0122648
0.00932522
0.00691538
0.00503514
0.00363889
0.00265322
0.00199383
0.00157842
0.00133416
0.00120052
0.0011308
0.00227052
0.00406427
0.00753731
0.0136611
0.0231363
0.0354034
0.0479664
0.057218
0.0605068
0.0577242
0.0511693
0.043946
0.0384031
0.0352346
0.0338737
0.0338909
0.0342922
0.0345985
0.0346093
0.034196
0.0333726
0.0321542
0.0305026
0.0284011
0.0258937
0.0230759
0.0200718
0.0170186
0.014054
0.011303
0.00886244
0.00679174
0.00511176
0.00380938
0.00284627
0.00216916
0.00171918
0.00143878
0.0012758
0.00118614
0.00113653
0.00232386
0.00409606
0.0075174
0.0135116
0.0227221
0.0346042
0.046782
0.0558089
0.0591414
0.0565548
0.0500416
0.0425096
0.0362569
0.0324075
0.0306255
0.0300693
0.0298741
0.0294399
0.0286407
0.0274906
0.0260703
0.0244498
0.0226394
0.0206494
0.0185093
0.0162757
0.014018
0.0118131
0.00973544
0.00784983
0.00620388
0.00482282
0.003711
0.00285403
0.00222407
0.00178501
0.00149763
0.00132292
0.00122446
0.00117118
0.00114022
0.00220822
0.00376113
0.00681848
0.0122742
0.0208234
0.0321028
0.0440239
0.0533771
0.0575774
0.0560005
0.0500486
0.0422774
0.0351801
0.0302092
0.0276232
0.0262409
0.0252137
0.0240146
0.0225972
0.0210424
0.0194242
0.0177956
0.0161524
0.0144949
0.0128233
0.0111643
0.00955113
0.00802404
0.00662169
0.00537327
0.00430078
0.00341074
0.00270149
0.00215948
0.00176598
0.00149686
0.00132657
0.00122888
0.00117872
0.00115469
0.00114106
0.00198415
0.0032193
0.00572332
0.0103377
0.0178441
0.0281966
0.0397858
0.0497382
0.0553977
0.0556043
0.0509673
0.0434372
0.0355031
0.0292218
0.0253593
0.023067
0.0213015
0.0196187
0.0179406
0.0163614
0.0148601
0.0134443
0.0120617
0.010713
0.00938372
0.00809967
0.0068829
0.00575808
0.00475406
0.00387613
0.00314135
0.00253875
0.00206946
0.00171492
0.00146466
0.00129889
0.00120119
0.00115258
0.001135
0.00113332
0.00113564
0.00172142
0.00262412
0.00451774
0.00814652
0.0143322
0.0233832
0.0342846
0.0446907
0.0520011
0.0545516
0.05216
0.0457868
0.0375664
0.0298591
0.024397
0.0210776
0.0187537
0.0169837
0.015411
0.014087
0.0128547
0.0117082
0.0105404
0.00938691
0.00821869
0.00708114
0.00600602
0.00500127
0.00413041
0.00335478
0.00273619
0.00221496
0.00183142
0.00153191
0.00133288
0.00119815
0.00112606
0.00109482
0.00109133
0.00110274
0.00111617
0.00148374
0.00209192
0.00342334
0.00608151
0.0108702
0.0183252
0.0281156
0.0384526
0.0470437
0.0519228
0.0521857
0.0483484
0.0410532
0.0330166
0.0254702
0.0207446
0.0178945
0.0162832
0.0150069
0.014061
0.0131087
0.012221
0.0111913
0.0101502
0.00902184
0.00786299
0.00677889
0.00565101
0.00475209
0.00380848
0.00316119
0.00248391
0.00207675
0.00166157
0.00144062
0.00123246
0.00113982
0.0010731
0.00105804
0.00106583
0.00107954
0.00110065
0.00112806
0.00113586
0.00112908
0.00111836
0.00110635
0.00109376
0.00108141
0.00107035
0.00106102
0.00105183
0.00103743
0.00100847
0.00096071
0.000930968
0.00121352
0.00453598
0.00111126
0.00112938
0.00112846
0.00111804
0.00110561
0.00109336
0.00108214
0.0010726
0.00106521
0.00105955
0.00105298
0.00103914
0.0010083
0.00095903
0.000948761
0.0013234
0.00441299
0.00112072
0.00112719
0.00112149
0.00111037
0.00109842
0.00108726
0.00107771
0.00107039
0.00106559
0.0010626
0.00105829
0.00104556
0.00101416
0.000965795
0.000976218
0.00142799
0.00430213
0.00112086
0.00112188
0.00111434
0.00110396
0.00109343
0.00108391
0.00107617
0.00107089
0.00106841
0.00106799
0.00106636
0.00105587
0.00102574
0.000980309
0.00100931
0.00151169
0.00420693
0.00111804
0.00111482
0.00110711
0.00109811
0.00108933
0.00108161
0.00107573
0.00107244
0.00107224
0.00107457
0.00107622
0.00106929
0.00104243
0.00100134
0.00104577
0.00158555
0.00412212
0.0011114
0.00110689
0.00109995
0.00109252
0.00108549
0.00107956
0.00107549
0.00107415
0.00107624
0.00108149
0.00108697
0.00108488
0.00106317
0.00102723
0.00108278
0.00164552
0.00404374
0.00110341
0.00109887
0.00109303
0.00108711
0.00108171
0.00107743
0.00107506
0.00107558
0.00107993
0.00108818
0.00109792
0.0011017
0.00108673
0.00105631
0.00111798
0.00168911
0.00396913
0.00109539
0.00109116
0.00108644
0.00108187
0.0010779
0.0010751
0.00107427
0.00107654
0.00108304
0.00109428
0.00110847
0.00111882
0.00111183
0.00108706
0.00114977
0.00171698
0.0038965
0.00108727
0.00108395
0.00108025
0.00107682
0.00107406
0.00107253
0.0010731
0.00107697
0.0010855
0.0010996
0.00111823
0.00113545
0.00113726
0.00111818
0.0011769
0.0017293
0.00382397
0.00108021
0.0010773
0.00107443
0.00107194
0.0010702
0.00106979
0.0010716
0.00107692
0.00108734
0.00110411
0.00112697
0.00115094
0.00116192
0.00114874
0.00119918
0.00172665
0.00374907
0.00107339
0.0010712
0.001069
0.00106727
0.00106638
0.00106693
0.00106985
0.00107652
0.00108867
0.00110789
0.0011346
0.00116486
0.00118492
0.00117824
0.0012178
0.00171186
0.00366945
0.0010676
0.00106562
0.00106393
0.00106282
0.00106265
0.00106405
0.00106799
0.00107591
0.00108965
0.00111108
0.00114121
0.001177
0.00120568
0.00120657
0.0012348
0.00168822
0.00358347
0.00106208
0.00106052
0.00105922
0.00105862
0.00105909
0.00106127
0.00106616
0.00107528
0.00109049
0.00111391
0.00114696
0.0011874
0.00122395
0.00123392
0.00125321
0.00166021
0.00349047
0.00105742
0.00105589
0.00105491
0.00105475
0.0010558
0.00105872
0.00106455
0.0010748
0.00109141
0.00111665
0.00115212
0.00119633
0.00123982
0.00126056
0.00127662
0.00163427
0.00339068
0.00105298
0.00105174
0.00105104
0.0010513
0.0010529
0.00105655
0.00106332
0.0010747
0.00109267
0.00111957
0.00115706
0.0012043
0.00125377
0.00128661
0.00130789
0.0016173
0.00328508
0.00104937
0.00104809
0.00104767
0.00104835
0.00105054
0.00105495
0.00106266
0.00107518
0.00109455
0.00112299
0.00116225
0.00121202
0.00126667
0.00131214
0.00134783
0.00161428
0.0031751
0.00104596
0.00104501
0.0010449
0.00104604
0.00104884
0.00105406
0.00106276
0.0010765
0.00109729
0.00112727
0.00116828
0.00122045
0.00127987
0.00133756
0.00139447
0.00162491
0.00306211
0.00104347
0.00104254
0.0010428
0.00104445
0.00104794
0.00105402
0.0010638
0.00107888
0.00110116
0.00113281
0.00117577
0.00123061
0.00129488
0.00136366
0.00144301
0.00164479
0.00294711
0.00104123
0.00104075
0.00104146
0.0010437
0.00104795
0.00105497
0.00106596
0.00108247
0.00110644
0.00114006
0.0011854
0.00124346
0.00131295
0.00139121
0.00148602
0.00166926
0.00283075
0.00103998
0.00103966
0.00104087
0.00104378
0.00104889
0.00105703
0.00106939
0.00108758
0.00111357
0.00114962
0.00119793
0.00125981
0.00133468
0.00142024
0.00151937
0.00167266
0.00271255
0.00103914
0.00103933
0.00104107
0.00104467
0.00105068
0.00105998
0.0010738
0.00109383
0.00112215
0.00116115
0.00121318
0.00127975
0.00136036
0.00145128
0.0015466
0.00165779
0.00260139
0.00103915
0.00103972
0.00104201
0.00104633
0.00105327
0.00106375
0.00107911
0.00110112
0.00113202
0.00117436
0.00123066
0.00130248
0.00138878
0.00148312
0.00157002
0.00163903
0.00250859
0.00104
0.00104097
0.00104379
0.00104877
0.0010566
0.00106826
0.00108517
0.00110924
0.00114286
0.00118877
0.00124959
0.00132676
0.00141826
0.00151419
0.00158982
0.00161765
0.00243513
0.00104119
0.00104282
0.00104623
0.00105189
0.00106058
0.00107336
0.00109177
0.00111784
0.00115414
0.00120355
0.00126879
0.00135105
0.00144714
0.00154368
0.00160751
0.00159622
0.00238148
0.00104398
0.00104578
0.00104959
0.00105578
0.00106517
0.00107891
0.0010986
0.00112643
0.00116508
0.0012176
0.0012868
0.00137369
0.00147405
0.0015715
0.0016256
0.00157954
0.00234832
0.00104626
0.00104909
0.00105356
0.00106031
0.00107027
0.00108471
0.00110533
0.00113441
0.00117478
0.00122968
0.00130209
0.00139305
0.00149782
0.00159788
0.00164686
0.00157403
0.00233726
0.00105116
0.0010539
0.00105861
0.00106564
0.00107588
0.00109064
0.00111164
0.00114124
0.0011824
0.00123858
0.00131312
0.00140748
0.00151712
0.00162266
0.00167332
0.00158519
0.00235108
0.00105453
0.00105868
0.00106411
0.00107152
0.00108189
0.00109656
0.00111731
0.00114651
0.00118726
0.0012433
0.00131849
0.00141522
0.00153017
0.00164463
0.00170542
0.0016161
0.00239289
0.00106166
0.0010654
0.00107084
0.00107824
0.00108838
0.0011025
0.00112231
0.00115014
0.00118913
0.0012433
0.00131721
0.00141465
0.00153461
0.00166112
0.00174136
0.00166781
0.00246563
0.00106616
0.00107167
0.00107789
0.00108549
0.00109533
0.0011086
0.00112691
0.00115247
0.00118836
0.0012388
0.00130905
0.00140464
0.00152787
0.00166797
0.00177673
0.00173941
0.00257238
0.00107557
0.00108037
0.00108645
0.00109386
0.00110318
0.00111535
0.00113175
0.00115436
0.00118607
0.00123102
0.00129504
0.00138529
0.00150808
0.0016603
0.00180443
0.00182727
0.00271599
0.00108134
0.00108836
0.0010954
0.00110308
0.00111208
0.00112325
0.00113771
0.00115712
0.00118399
0.0012222
0.00127763
0.00135866
0.00147542
0.00163413
0.00181524
0.00192353
0.0028985
0.00109309
0.00109921
0.00110617
0.00111385
0.00112259
0.00113295
0.00114574
0.00116217
0.0011842
0.00121515
0.00126045
0.00132881
0.00143307
0.00158854
0.00179966
0.00201432
0.00312067
0.00110017
0.001109
0.00111728
0.00112565
0.00113465
0.00114476
0.00115651
0.00117067
0.00118853
0.00121259
0.00124742
0.00130109
0.00138726
0.00152769
0.00175175
0.00207865
0.00338223
0.00111377
0.00112163
0.00113009
0.00113899
0.00114852
0.00115893
0.00117044
0.00118334
0.00119823
0.00121661
0.00124191
0.00128086
0.00134605
0.00146127
0.00167423
0.00209163
0.00368218
0.00112165
0.00113264
0.00114286
0.00115311
0.00116388
0.00117539
0.00118763
0.00120049
0.00121384
0.00122826
0.00124606
0.00127227
0.00131714
0.00140216
0.00158119
0.00203574
0.00401818
0.00113588
0.00114608
0.00115694
0.00116847
0.00118089
0.00119419
0.00120809
0.00122212
0.0012354
0.00124765
0.00126044
0.00127734
0.00130572
0.001362
0.00149425
0.00191667
0.00438566
0.00114415
0.0011577
0.00117078
0.0011845
0.00119936
0.00121527
0.00123177
0.00124808
0.00126259
0.00127414
0.00128419
0.0012955
0.0013131
0.00134741
0.00143326
0.0017679
0.00477712
0.00115832
0.00117139
0.00118575
0.00120178
0.00121958
0.00123877
0.00125859
0.00127804
0.00129483
0.0013066
0.0013155
0.0013243
0.00133689
0.00135883
0.00140953
0.00163427
0.00518117
0.00116688
0.00118344
0.00120065
0.00121994
0.00124146
0.00126457
0.00128826
0.00131137
0.00133134
0.00134394
0.00135235
0.00136091
0.00137326
0.00139215
0.00142522
0.00155498
0.00558367
0.00115968
0.00116134
0.00116292
0.00116451
0.0011662
0.00116812
0.00117036
0.00117303
0.00117619
0.00117991
0.00118421
0.00118913
0.00119467
0.00120081
0.00120755
0.00121482
0.0012226
0.00123082
0.00123952
0.00124903
0.00126299
0.00127671
0.00128429
0.00129005
0.0012942
0.00129664
0.00129726
0.00129599
0.00129265
0.00128704
0.0012802
0.00127137
0.00126304
0.00125231
0.00124362
0.00123169
0.00122314
0.00121034
0.00120213
0.00118872
0.00118063
0.00115291
0.00115517
0.00115735
0.00115954
0.00116188
0.00116447
0.00116744
0.00117087
0.00117483
0.00117937
0.00118453
0.00119032
0.00119674
0.00120379
0.00121143
0.00121962
0.00122832
0.00123748
0.00124711
0.00125754
0.00127243
0.00128713
0.0012959
0.00130302
0.00130868
0.00131275
0.00131509
0.00131557
0.00131401
0.00130997
0.00130389
0.00129596
0.00128692
0.0012766
0.00126616
0.00125465
0.00124375
0.00123164
0.00122064
0.0012082
0.00119709
0.00114765
0.00115055
0.00115332
0.00115612
0.00115909
0.00116236
0.00116603
0.00117021
0.00117494
0.00118027
0.00118624
0.00119284
0.00120009
0.00120796
0.00121643
0.00122546
0.001235
0.001245
0.00125545
0.00126666
0.00128221
0.00129761
0.00130738
0.00131568
0.00132268
0.00132825
0.00133221
0.00133442
0.00133473
0.00133238
0.00132774
0.00132098
0.00131247
0.00130249
0.00129158
0.0012798
0.00126774
0.0012551
0.00124253
0.00122945
0.00121659
0.00114458
0.00114806
0.00115138
0.00115473
0.00115829
0.00116218
0.00116652
0.00117138
0.00117683
0.00118288
0.00118958
0.00119692
0.0012049
0.00121351
0.00122272
0.00123248
0.00124275
0.00125347
0.00126462
0.00127647
0.00129243
0.00130824
0.00131881
0.00132809
0.00133622
0.00134309
0.0013485
0.00135231
0.00135438
0.00135389
0.00135093
0.00134562
0.00133821
0.00132901
0.0013184
0.00130667
0.00129418
0.00128104
0.00126752
0.00125356
0.00123939
0.00114436
0.0011483
0.00115205
0.00115586
0.00115992
0.00116435
0.00116927
0.00117473
0.00118079
0.00118748
0.0011948
0.00120278
0.00121139
0.00122063
0.00123046
0.00124083
0.00125171
0.00126302
0.00127474
0.00128708
0.00130321
0.00131916
0.00133034
0.00134038
0.00134942
0.00135733
0.00136396
0.00136914
0.00137273
0.00137417
0.00137295
0.00136926
0.00136326
0.00135519
0.00134537
0.00133413
0.00132178
0.00130854
0.00129463
0.0012801
0.00126504
0.00114766
0.00115186
0.00115587
0.00116
0.00116443
0.00116929
0.00117466
0.00118061
0.00118716
0.00119435
0.00120219
0.00121067
0.00121979
0.00122953
0.00123985
0.00125072
0.00126206
0.00127383
0.00128596
0.00129864
0.00131471
0.00133059
0.00134217
0.00135275
0.00136244
0.00137113
0.00137867
0.00138492
0.00138974
0.00139294
0.0013934
0.00139141
0.00138698
0.00138028
0.00137157
0.00136116
0.00134936
0.00133643
0.00132259
0.00130792
0.00129241
0.00115513
0.00115931
0.00116337
0.00116763
0.00117228
0.00117741
0.00118309
0.00118937
0.00119628
0.00120383
0.00121204
0.00122089
0.00123038
0.00124048
0.00125116
0.00126237
0.00127404
0.00128611
0.00129851
0.00131136
0.00132717
0.00134276
0.00135455
0.00136544
0.00137553
0.00138469
0.00139282
0.0013998
0.00140549
0.00140978
0.00141207
0.0014117
0.00140887
0.00140368
0.00139628
0.00138696
0.00137599
0.00136367
0.00135022
0.00133576
0.00132021
0.00116736
0.0011712
0.00117506
0.00117926
0.00118394
0.00118916
0.00119498
0.00120143
0.00120852
0.00121628
0.00122469
0.00123377
0.00124348
0.00125379
0.00126468
0.00127608
0.00128792
0.00130013
0.00131264
0.0013255
0.00134086
0.00135597
0.00136776
0.00137875
0.00138897
0.00139832
0.00140671
0.00141403
0.00142017
0.00142503
0.00142849
0.00142976
0.00142847
0.0014248
0.00141884
0.00141078
0.00140086
0.00138935
0.00137651
0.00136248
0.00134719
0.00118489
0.00118806
0.00119148
0.0011954
0.00119989
0.00120501
0.00121077
0.0012172
0.00122431
0.0012321
0.00124056
0.0012497
0.00125947
0.00126984
0.00128078
0.00129221
0.00130406
0.00131625
0.00132868
0.00134138
0.00135611
0.00137056
0.00138216
0.00139301
0.0014031
0.00141235
0.00142066
0.00142795
0.00143413
0.0014391
0.00144275
0.00144496
0.00144519
0.00144299
0.00143847
0.00143176
0.00142303
0.00141249
0.00140036
0.00138675
0.00137145
0.00120814
0.0012104
0.00121315
0.00121656
0.00122066
0.00122546
0.00123097
0.0012372
0.00124414
0.00125178
0.00126013
0.00126915
0.00127882
0.00128909
0.00129991
0.0013112
0.00132288
0.00133486
0.00134705
0.0013594
0.00137334
0.00138695
0.00139815
0.00140862
0.00141833
0.00142719
0.00143512
0.00144204
0.00144785
0.00145249
0.00145585
0.00145781
0.00145824
0.00145698
0.00145372
0.00144819
0.00144046
0.00143059
0.00141854
0.00140386
0.00138603
0.00123744
0.00123867
0.0012406
0.00124331
0.00124681
0.0012511
0.00125617
0.001262
0.00126859
0.00127592
0.00128398
0.00129272
0.00130211
0.0013121
0.00132261
0.00133358
0.00134492
0.0013565
0.00136823
0.00138005
0.00139302
0.00140562
0.00141621
0.00142607
0.00143516
0.00144338
0.00145064
0.00145689
0.00146203
0.00146599
0.00146868
0.00147001
0.00146983
0.001468
0.00146433
0.00145862
0.00145065
0.00144019
0.00142708
0.0014113
0.00139306
0.00127307
0.00127328
0.00127432
0.00127622
0.00127897
0.00128258
0.00128704
0.00129232
0.00129839
0.00130524
0.00131282
0.00132111
0.00133004
0.00133956
0.00134958
0.00136004
0.00137081
0.00138179
0.00139286
0.00140392
0.00141575
0.00142716
0.00143692
0.00144595
0.00145419
0.00146154
0.00146793
0.00147329
0.00147754
0.00148062
0.00148245
0.00148295
0.00148199
0.00147945
0.00147513
0.00146882
0.00146033
0.0014495
0.00143632
0.00142089
0.0014035
0.00131538
0.00131467
0.00131488
0.00131595
0.0013179
0.00132073
0.00132446
0.00132904
0.00133444
0.00134064
0.00134758
0.00135523
0.00136351
0.00137235
0.00138168
0.00139138
0.00140137
0.00141151
0.00142168
0.00143177
0.00144227
0.00145231
0.00146102
0.00146901
0.00147621
0.00148252
0.00148788
0.00149223
0.0014955
0.00149763
0.00149856
0.00149823
0.00149653
0.00149335
0.00148851
0.00148183
0.0014732
0.0014626
0.00145005
0.00143564
0.00141968
0.00136495
0.00136349
0.00136304
0.00136339
0.00136458
0.00136663
0.00136956
0.00137334
0.00137795
0.00138335
0.00138947
0.00139627
0.00140368
0.00141162
0.00141999
0.0014287
0.00143763
0.00144666
0.00145566
0.00146451
0.00147348
0.00148198
0.00148943
0.0014962
0.00150219
0.00150735
0.0015116
0.0015149
0.0015172
0.00151844
0.00151858
0.00151756
0.00151531
0.00151173
0.00150667
0.00150003
0.00149178
0.00148192
0.00147046
0.00145741
0.00144322
0.00142289
0.00142092
0.00142008
0.00141992
0.0014205
0.00142184
0.00142397
0.0014269
0.00143061
0.00143504
0.00144015
0.00144588
0.00145217
0.00145891
0.00146603
0.00147341
0.00148096
0.00148854
0.00149605
0.00150337
0.0015106
0.00151738
0.00152336
0.00152873
0.0015334
0.00153733
0.00154046
0.00154275
0.00154417
0.00154467
0.00154423
0.00154278
0.00154029
0.00153667
0.00153182
0.00152571
0.00151833
0.00150964
0.00149963
0.00148832
0.00147635
0.00149142
0.00148921
0.00148829
0.00148788
0.00148804
0.00148879
0.00149019
0.00149223
0.00149492
0.00149821
0.00150207
0.00150643
0.00151124
0.00151641
0.00152187
0.00152751
0.00153324
0.00153897
0.00154459
0.00155001
0.00155525
0.00156009
0.00156439
0.00156819
0.00157144
0.0015741
0.00157613
0.00157752
0.00157822
0.00157822
0.00157748
0.00157598
0.00157366
0.00157049
0.0015664
0.00156139
0.00155541
0.00154844
0.00154046
0.00153148
0.00152246
0.00157452
0.00157236
0.00157171
0.00157133
0.00157128
0.00157159
0.00157228
0.00157338
0.00157488
0.00157677
0.00157901
0.00158157
0.0015844
0.00158744
0.00159064
0.00159393
0.00159726
0.00160055
0.00160376
0.00160682
0.00160971
0.00161235
0.0016147
0.00161674
0.00161845
0.00161981
0.0016208
0.00162141
0.00162162
0.00162142
0.00162079
0.0016197
0.00161814
0.00161607
0.00161347
0.00161033
0.00160661
0.00160229
0.00159736
0.00159182
0.00158701
0.00513034
0.00166588
0.00101617
0.000961583
0.00100246
0.00102694
0.00104037
0.00106652
0.00112141
0.00120913
0.00131871
0.00142243
0.00148559
0.00148405
0.00142052
0.00132196
0.00122577
0.00496098
0.00168528
0.00101343
0.000958508
0.00100023
0.00102448
0.00103328
0.00104307
0.00106288
0.00109431
0.00113226
0.00116633
0.00118497
0.0011814
0.00115887
0.00112885
0.0011056
0.0047746
0.00164766
0.00100816
0.000959682
0.00100061
0.00102384
0.00103041
0.0010334
0.0010392
0.00104896
0.00106067
0.00107084
0.0010763
0.00107598
0.00107207
0.00106869
0.00106967
0.00459529
0.00162298
0.00101018
0.000965087
0.00100345
0.00102448
0.00102923
0.00102923
0.00102997
0.00103261
0.0010364
0.00104019
0.00104321
0.00104552
0.00104811
0.00105218
0.00105861
0.00442973
0.00161113
0.0010191
0.000975367
0.00100976
0.0010273
0.00102974
0.00102771
0.00102619
0.00102628
0.00102773
0.00103
0.00103278
0.00103609
0.00104034
0.00104582
0.00105309
0.00428044
0.00160751
0.00103422
0.00099079
0.00102028
0.00103315
0.00103243
0.00102817
0.00102484
0.00102348
0.00102388
0.00102561
0.00102833
0.00103199
0.00103669
0.00104256
0.00104975
0.00414648
0.00160832
0.00105417
0.00101128
0.00103541
0.00104264
0.00103788
0.00103088
0.00102568
0.00102308
0.00102273
0.00102411
0.00102681
0.00103065
0.0010356
0.00104164
0.00104879
0.0040252
0.00161046
0.00107742
0.00103623
0.00105488
0.00105582
0.00104638
0.00103628
0.00102907
0.00102521
0.00102414
0.00102518
0.00102781
0.00103172
0.00103675
0.00104276
0.0010498
0.00391304
0.00161205
0.0011023
0.00106444
0.00107788
0.00107226
0.00105785
0.00104445
0.00103512
0.00102991
0.00102801
0.00102858
0.00103097
0.00103474
0.00103961
0.00104539
0.00105197
0.00380618
0.00160949
0.00112703
0.00109456
0.00110321
0.00109115
0.00107187
0.00105516
0.00104362
0.00103691
0.00103402
0.00103392
0.00103584
0.00103924
0.00104374
0.00104912
0.0010552
0.00370125
0.00160164
0.00115103
0.00112555
0.00112967
0.00111163
0.00108783
0.00106797
0.00105419
0.00104586
0.00104178
0.00104079
0.00104202
0.00104483
0.00104881
0.00105367
0.00105924
0.00359588
0.00158971
0.00117504
0.00115691
0.00115636
0.00113296
0.0011052
0.00108246
0.00106649
0.00105645
0.001051
0.00104892
0.00104924
0.00105128
0.00105456
0.0010588
0.00106373
0.0034887
0.00157574
0.00120097
0.00118863
0.00118264
0.00115457
0.00112356
0.0010983
0.00108024
0.00106844
0.00106149
0.00105814
0.00105737
0.00105845
0.00106089
0.00106435
0.00106854
0.00337938
0.00156455
0.0012317
0.00122097
0.00120817
0.00117608
0.00114253
0.00111513
0.00109513
0.00108158
0.00107306
0.00106829
0.00106627
0.00106624
0.0010677
0.00107029
0.00107367
0.00326826
0.00156024
0.0012698
0.00125429
0.00123305
0.00119739
0.00116188
0.00113268
0.00111088
0.00109559
0.00108545
0.00107917
0.00107577
0.0010745
0.00107486
0.00107652
0.00107914
0.00315597
0.00156665
0.00131631
0.00128888
0.00125795
0.00121886
0.00118163
0.00115082
0.00112726
0.00111022
0.00109839
0.00109055
0.00108567
0.00108304
0.00108218
0.00108278
0.00108458
0.00304322
0.00158627
0.00136963
0.00132491
0.00128397
0.00124127
0.00120213
0.00116959
0.00114423
0.00112531
0.00111168
0.00110217
0.00109574
0.00109169
0.00108957
0.00108904
0.0010897
0.00293067
0.00161748
0.00142479
0.00136254
0.00131237
0.00126554
0.0012239
0.00118923
0.00116176
0.00114076
0.00112511
0.00111376
0.00110574
0.00110027
0.00109694
0.0010954
0.00109503
0.00281851
0.00164902
0.00147533
0.00140172
0.00134399
0.00129248
0.00124753
0.00121002
0.00117989
0.00115638
0.00113846
0.00112509
0.00111537
0.00110855
0.00110407
0.00110163
0.0011009
0.00270585
0.00165917
0.00151592
0.00144144
0.00137864
0.00132229
0.00127324
0.00123204
0.00119854
0.00117199
0.00115143
0.00113591
0.0011245
0.00111635
0.00111081
0.00110743
0.00110601
0.00259882
0.00164746
0.00154844
0.0014814
0.00141597
0.00135468
0.00130051
0.00125454
0.00121678
0.00118661
0.00116318
0.0011455
0.00113254
0.00112334
0.00111704
0.00111299
0.00111037
0.00250962
0.00163113
0.00157668
0.001521
0.00145449
0.00138794
0.00132764
0.00127587
0.00123315
0.00119909
0.00117283
0.00115323
0.00113908
0.00112919
0.00112257
0.00111841
0.00111599
0.00243827
0.00161432
0.00160165
0.00155917
0.00149195
0.00141953
0.00135214
0.00129387
0.00124596
0.00120819
0.00117953
0.00115857
0.00114378
0.0011337
0.0011271
0.00112298
0.00112087
0.00238586
0.0016005
0.00162654
0.00159539
0.00152591
0.00144632
0.00137105
0.00130615
0.00125353
0.00121286
0.00118273
0.00116127
0.00114656
0.00113688
0.00113074
0.00112685
0.00112409
0.00235391
0.00159374
0.00165394
0.00162897
0.00155376
0.00146517
0.00138165
0.00131087
0.00125483
0.00121269
0.00118237
0.00116143
0.00114756
0.00113882
0.00113363
0.00113058
0.00112848
0.00234344
0.00159971
0.00168544
0.00165855
0.00157284
0.00147357
0.00138233
0.00130732
0.00124984
0.00120803
0.00117891
0.00115947
0.00114709
0.0011397
0.00113564
0.00113353
0.0011325
0.0023577
0.0016232
0.00172074
0.00168183
0.00158082
0.00147017
0.00137286
0.00129608
0.00123947
0.00119978
0.00117311
0.00115598
0.00114558
0.00113983
0.00113705
0.0011358
0.00113474
0.00239971
0.00166557
0.00175718
0.00169567
0.00157589
0.00145486
0.00135428
0.00127861
0.00122514
0.00118909
0.00116581
0.00115151
0.0011434
0.00113943
0.00113807
0.00113801
0.00113782
0.00247236
0.00172524
0.00179025
0.00169657
0.001557
0.00142855
0.00132837
0.00125675
0.00120833
0.00117702
0.00115769
0.00114652
0.00114079
0.00113861
0.00113863
0.00113974
0.00114085
0.00257824
0.00179863
0.00181411
0.00168125
0.00152409
0.00139296
0.00129729
0.00123234
0.00119038
0.00116446
0.00114933
0.00114132
0.00113795
0.00113752
0.00113887
0.00114098
0.00114251
0.0027194
0.0018803
0.00182209
0.00164736
0.00147831
0.00135056
0.00126335
0.00120714
0.00117246
0.00115213
0.00114115
0.00113618
0.00113503
0.00113625
0.0011389
0.00114216
0.00114465
0.00289735
0.00196203
0.00180738
0.00159449
0.00142252
0.00130457
0.00122911
0.00118284
0.00115566
0.00114074
0.00113361
0.00113138
0.00113222
0.00113493
0.00113876
0.00114309
0.00114692
0.00311283
0.00203117
0.00176461
0.00152545
0.00136151
0.00125897
0.00119725
0.0011612
0.00114112
0.00113102
0.00112719
0.00112727
0.00112978
0.00113376
0.0011386
0.00114379
0.0011483
0.00336599
0.0020697
0.00169286
0.00144714
0.00130184
0.00121824
0.00117059
0.00114396
0.00112994
0.00112372
0.00112242
0.00112424
0.00112801
0.00113296
0.0011386
0.00114458
0.00115001
0.00365637
0.0020575
0.00159894
0.00137002
0.00125079
0.00118674
0.00115171
0.00113269
0.00112313
0.00111954
0.00111985
0.0011227
0.0011272
0.00113273
0.0011389
0.00114544
0.00115189
0.00398267
0.00198278
0.00149826
0.00130578
0.00121486
0.00116796
0.00114249
0.0011285
0.00112144
0.00111903
0.00111985
0.00112293
0.00112755
0.00113323
0.0011396
0.00114641
0.00115329
0.00434175
0.001855
0.00141062
0.00126406
0.00119829
0.00116373
0.00114377
0.00113185
0.00112518
0.0011224
0.00112258
0.001125
0.00112911
0.00113447
0.00114072
0.00114759
0.00115484
0.00472817
0.00170719
0.00135308
0.0012501
0.00120215
0.00117388
0.00115522
0.00114246
0.00113412
0.00112946
0.00112786
0.00112879
0.00113177
0.00113637
0.00114219
0.00114891
0.00115633
0.00513285
0.0015808
0.0013353
0.00126423
0.00122461
0.00119671
0.00117554
0.00115939
0.00114758
0.0011397
0.00113533
0.00113403