/*--------------------------------*- C++ -*----------------------------------*\
  =========                 |
  \\      /  F ield         | OpenFOAM: The Open Source CFD Toolbox
   \\    /   O peration     | Website:  https://openfoam.org
    \\  /    A nd           | Version:  6
     \\/     M anipulation  |
\*---------------------------------------------------------------------------*/
FoamFile
{
    version     2.0;
    format      ascii;
    class       surfaceScalarField;
    location    "4.95";
    object      phi;
}
// * * * * * * * * * * * * * * * * * * * * * * * * * * * * * * * * * * * * * //

dimensions      [0 3 -1 0 0 0 0];

internalField   nonuniform List<scalar> 
8193
(
0.123311
-0.221291
-0.116938
0.125171
-0.22475
0.124887
-0.223925
0.12372
-0.22261
0.122418
-0.222201
0.121357
-0.223068
0.120887
-0.225662
0.12132
-0.230193
0.122685
-0.236539
0.124332
-0.242902
0.124742
-0.246192
0.123635
-0.244387
0.120403
-0.236182
0.115014
-0.220316
0.108244
-0.197638
0.101097
-0.170249
0.0943466
-0.14118
0.0883375
-0.113055
0.0825379
-0.0879903
0.0765597
-0.0689947
0.070292
-0.0579487
0.062643
-0.0544164
0.0536947
-0.058752
0.0443745
-0.06875
0.0359308
-0.083174
0.0281715
-0.0988368
0.0203134
-0.11433
0.0111497
-0.128677
1.19724e-05
-0.141133
-0.0128267
-0.152984
-0.0268093
-0.166862
-0.0413642
-0.182878
-0.0556676
-0.198166
-0.0689188
-0.209813
-0.0806233
-0.217226
-0.0906485
-0.221332
-0.0991964
-0.223294
-0.106506
-0.22365
-0.112466
-0.222885
-0.115949
-0.221224
-0.215087
-0.114755
0.1377
-0.215689
-0.132157
0.138526
-0.21205
0.138243
-0.208115
0.137741
-0.204979
0.137292
-0.203429
0.137288
-0.203951
0.137985
-0.206858
0.139266
-0.211971
0.140716
-0.218855
0.14073
-0.224498
0.13816
-0.226241
0.13296
-0.223135
0.124738
-0.213496
0.114289
-0.197217
0.103364
-0.176071
0.0933355
-0.151741
0.0848361
-0.126486
0.0779008
-0.102295
0.0723837
-0.0810675
0.0670412
-0.0646788
0.0603293
-0.0546722
0.0521056
-0.0519772
0.0425594
-0.0572429
0.0315331
-0.0678798
0.0202944
-0.0840398
0.00945582
-0.101843
-0.00163652
-0.118578
-0.0136143
-0.133256
-0.0264702
-0.145734
-0.0396495
-0.157816
-0.0529325
-0.171769
-0.0663374
-0.187441
-0.0796176
-0.202214
-0.0920622
-0.213625
-0.102975
-0.221064
-0.11191
-0.225211
-0.118769
-0.226899
-0.123581
-0.226564
-0.126528
-0.224575
-0.127772
-0.22123
-0.216306
-0.124174
0.149009
-0.201823
-0.146185
0.150083
-0.194841
0.150766
-0.189315
0.151257
-0.185176
0.151578
-0.183029
0.152065
-0.183659
0.152664
-0.186972
0.153144
-0.192592
0.152612
-0.199399
0.148885
-0.203062
0.142145
-0.203261
0.131859
-0.198301
0.118532
-0.187505
0.104447
-0.172515
0.0913638
-0.154547
0.0800556
-0.134267
0.070473
-0.11308
0.0626662
-0.0930424
0.0566418
-0.0759788
0.0509176
-0.0622442
0.0441975
-0.0535363
0.0359178
-0.0514845
0.0262103
-0.0574004
0.0150611
-0.0685157
0.00291914
-0.0854112
-0.00974145
-0.104199
-0.0231834
-0.121396
-0.0375554
-0.136094
-0.0522722
-0.148854
-0.0666015
-0.161596
-0.0804287
-0.175944
-0.0940332
-0.19133
-0.107336
-0.205478
-0.11971
-0.216465
-0.130402
-0.223807
-0.138858
-0.227992
-0.144754
-0.229645
-0.147886
-0.229107
-0.148253
-0.226592
-0.14592
-0.222382
-0.216501
-0.140771
0.161071
-0.183146
-0.158273
0.163074
-0.174587
0.164242
-0.167818
0.164884
-0.163105
0.165182
-0.160908
0.165315
-0.161986
0.164825
-0.165587
0.163384
-0.171436
0.15945
-0.177173
0.15134
-0.1783
0.139188
-0.176284
0.123208
-0.169481
0.105724
-0.1593
0.0890777
-0.147366
0.0744528
-0.133714
0.0623004
-0.118248
0.0520979
-0.101373
0.0441088
-0.0859039
0.0373993
-0.0724405
0.0311793
-0.0614547
0.0244888
-0.0544463
0.0165681
-0.0532165
0.00667137
-0.0590616
-0.00432919
-0.0708013
-0.0169566
-0.0875906
-0.0311315
-0.106112
-0.0463808
-0.123246
-0.06238
-0.137905
-0.0782197
-0.151204
-0.0932222
-0.164806
-0.107478
-0.17954
-0.121416
-0.194482
-0.135001
-0.207806
-0.147609
-0.218172
-0.158446
-0.225264
-0.166879
-0.229425
-0.172477
-0.231094
-0.174942
-0.230518
-0.174032
-0.227898
-0.169539
-0.223536
-0.21725
-0.161531
0.173934
-0.160668
-0.171042
0.17595
-0.15124
0.176966
-0.143817
0.17717
-0.13895
0.176824
-0.137152
0.175704
-0.138667
0.173253
-0.142381
0.169164
-0.148245
0.160025
-0.150766
0.146256
-0.14925
0.127866
-0.144725
0.107369
-0.138027
0.0877011
-0.130962
0.0701086
-0.123441
0.0548135
-0.11445
0.0417462
-0.103578
0.0310303
-0.0914014
0.0222516
-0.0801739
0.0147769
-0.0702535
0.0079501
-0.0620655
0.000994304
-0.0569652
-0.00680271
-0.0567934
-0.0163921
-0.0625814
-0.0269097
-0.0749373
-0.0395566
-0.0909225
-0.0545438
-0.108182
-0.0710886
-0.124558
-0.0879949
-0.13935
-0.104387
-0.153324
-0.119847
-0.16766
-0.134664
-0.182457
-0.149226
-0.196674
-0.163399
-0.208993
-0.17654
-0.21858
-0.187855
-0.225273
-0.196661
-0.229315
-0.202449
-0.230996
-0.204837
-0.230472
-0.203484
-0.227943
-0.198122
-0.223701
-0.217515
-0.1886
0.186667
-0.134949
-0.184102
0.18815
-0.12518
0.188461
-0.117615
0.187688
-0.112952
0.185978
-0.111735
0.182639
-0.113343
0.178034
-0.117685
0.16849
-0.12065
0.153069
-0.119455
0.133293
-0.115838
0.111013
-0.111134
0.089147
-0.107222
0.069164
-0.104438
0.0512802
-0.101418
0.0353239
-0.0967426
0.0212403
-0.0900975
0.00934817
-0.0824132
-0.000645284
-0.075314
-0.00921979
-0.0689514
-0.0169239
-0.0636626
-0.0244011
-0.0606869
-0.032372
-0.0617665
-0.0410454
-0.0684212
-0.051453
-0.0804119
-0.0642256
-0.095175
-0.0795001
-0.110822
-0.0963422
-0.126241
-0.113437
-0.141083
-0.129896
-0.155661
-0.145719
-0.170244
-0.16126
-0.184553
-0.176694
-0.197712
-0.19172
-0.208865
-0.205666
-0.217545
-0.217766
-0.223691
-0.227336
-0.227473
-0.233825
-0.229074
-0.236771
-0.228596
-0.235757
-0.22624
-0.230475
-0.222248
-0.216403
-0.220671
0.198656
-0.106538
-0.196902
0.199086
-0.0968371
0.198113
-0.0894929
0.195792
-0.0853049
0.19201
-0.0846193
0.186244
-0.0863799
0.176587
-0.0890808
0.16084
-0.0882954
0.140789
-0.0852004
0.117929
-0.0812212
0.0947374
-0.0786536
0.0728638
-0.0785284
0.0527091
-0.0799162
0.0342246
-0.0809864
0.0173937
-0.0803351
0.00229724
-0.077731
-0.0108773
-0.0741963
-0.0223082
-0.0709741
-0.032308
-0.0680664
-0.041152
-0.065831
-0.0491225
-0.0654828
-0.0569067
-0.06834
-0.0656261
-0.0754676
-0.0763773
-0.0866289
-0.0894348
-0.100059
-0.104541
-0.114377
-0.12093
-0.128952
-0.137654
-0.143592
-0.154184
-0.158166
-0.170565
-0.172346
-0.187057
-0.185617
-0.203571
-0.197435
-0.219649
-0.207304
-0.234616
-0.21497
-0.247749
-0.220421
-0.258387
-0.223784
-0.265968
-0.225162
-0.269991
-0.224635
-0.26997
-0.222432
-0.26559
-0.218683
-0.213282
-0.256491
0.209365
-0.0760364
-0.208873
0.208297
-0.0667122
0.205602
-0.0598491
0.201273
-0.0562756
0.194761
-0.0557723
0.185021
-0.0567556
0.170103
-0.0567915
0.150864
-0.0542362
0.128343
-0.0504263
0.104816
-0.0480053
0.0820785
-0.048772
0.0606691
-0.0524823
0.0404502
-0.0575174
0.021364
-0.0621133
0.00360995
-0.0651112
-0.0125564
-0.0663242
-0.0270742
-0.0665684
-0.0400136
-0.0669439
-0.0514599
-0.0674252
-0.0615038
-0.0683516
-0.0704249
-0.0707337
-0.0789432
-0.0754328
-0.0883543
-0.0829201
-0.0996448
-0.0932474
-0.112846
-0.105583
-0.127593
-0.118919
-0.143371
-0.13275
-0.159807
-0.146718
-0.17671
-0.160486
-0.194026
-0.173564
-0.211693
-0.185428
-0.229424
-0.195743
-0.246688
-0.204245
-0.262835
-0.210797
-0.277199
-0.215407
-0.28917
-0.21816
-0.298185
-0.219135
-0.303681
-0.218444
-0.305193
-0.216269
-0.302372
-0.212674
-0.207668
-0.294823
0.218467
-0.0441479
-0.219566
0.215655
-0.0354655
0.211009
-0.0292436
0.204335
-0.0262051
0.194849
-0.0255171
0.181431
-0.0252342
0.163546
-0.0234841
0.142187
-0.0201325
0.119203
-0.0173508
0.0964065
-0.0177315
0.0746441
-0.0220914
0.0538615
-0.0292741
0.0337596
-0.0374049
0.0142883
-0.0449587
-0.00428311
-0.0510876
-0.021534
-0.0557473
-0.0372437
-0.0595454
-0.051677
-0.063088
-0.0646486
-0.0667897
-0.076164
-0.070788
-0.086574
-0.0757354
-0.0965589
-0.0821496
-0.107093
-0.0901906
-0.118968
-0.100075
-0.132336
-0.11159
-0.146988
-0.124068
-0.162766
-0.136925
-0.179555
-0.149741
-0.197299
-0.162095
-0.215844
-0.173574
-0.234847
-0.183821
-0.253885
-0.192571
-0.272427
-0.199654
-0.289864
-0.205007
-0.3056
-0.208633
-0.319069
-0.210597
-0.329712
-0.210995
-0.336989
-0.209955
-0.340449
-0.207613
-0.33968
-0.204046
-0.199344
-0.334253
0.226065
-0.0117843
-0.228819
0.221483
-0.00391804
0.214879
0.00161092
0.205846
0.00431581
0.193749
0.00528508
0.177918
0.00651913
0.158507
0.0090879
0.136862
0.0119513
0.114707
0.0125741
0.0931467
0.00900032
0.0724225
0.00128477
0.0523083
-0.00893786
0.0325482
-0.0197553
0.0131026
-0.0298516
-0.00579806
-0.0386431
-0.023863
-0.0461398
-0.0409052
-0.0528397
-0.0567056
-0.0593745
-0.0711911
-0.0660052
-0.0843533
-0.0727958
-0.096496
-0.0800758
-0.108211
-0.0880617
-0.120186
-0.0968051
-0.133029
-0.106581
-0.147067
-0.117442
-0.162382
-0.128941
-0.179012
-0.140521
-0.196912
-0.151819
-0.215945
-0.162484
-0.235842
-0.172212
-0.256213
-0.180752
-0.2766
-0.18789
-0.296463
-0.19353
-0.315252
-0.197613
-0.332442
-0.200123
-0.347498
-0.201149
-0.359892
-0.200801
-0.369123
-0.19921
-0.374768
-0.196482
-0.37639
-0.192755
-0.188194
-0.37354
0.232753
0.0198948
-0.236893
0.226484
0.0270915
0.218071
0.0319301
0.207099
0.0343469
0.19322
0.0353855
0.176256
0.0368987
0.156742
0.039258
0.135917
0.0407381
0.114972
0.0388636
0.0944699
0.0323192
0.0744099
0.0217306
0.0546084
0.00892365
0.0349571
-0.00425935
0.0155035
-0.0166537
-0.00355784
-0.0278189
-0.021983
-0.0378107
-0.0396789
-0.0469723
-0.056524
-0.0559596
-0.0722999
-0.0651246
-0.0869664
-0.074346
-0.100827
-0.0836003
-0.114338
-0.0929401
-0.128046
-0.102312
-0.142421
-0.112054
-0.157846
-0.122286
-0.174589
-0.132656
-0.192699
-0.142807
-0.212107
-0.152467
-0.232612
-0.161401
-0.253906
-0.16939
-0.275604
-0.176239
-0.29725
-0.181794
-0.318402
-0.185934
-0.338566
-0.188649
-0.357215
-0.189963
-0.373862
-0.189933
-0.388034
-0.188679
-0.399281
-0.186341
-0.407183
-0.183035
-0.411336
-0.178933
-0.174283
-0.411312
0.238781
0.0499698
-0.244163
0.231302
0.0564396
0.221648
0.0606149
0.209538
0.0626602
0.194778
0.0635518
0.177667
0.0646692
0.158787
0.0661156
0.138975
0.0659274
0.118924
0.061782
0.098942
0.0527607
0.0790525
0.039779
0.0592111
0.024737
0.0394121
0.00944212
0.0197419
-0.00503056
0.000360093
-0.0183115
-0.0185535
-0.0304748
-0.0367465
-0.0419338
-0.0541104
-0.053198
-0.0707526
-0.0643985
-0.0866972
-0.0754919
-0.102138
-0.0862768
-0.117469
-0.0965969
-0.133039
-0.106429
-0.149201
-0.116094
-0.166386
-0.125616
-0.18483
-0.134819
-0.204561
-0.143534
-0.225469
-0.151606
-0.247345
-0.158877
-0.269905
-0.165184
-0.292801
-0.17038
-0.315632
-0.174349
-0.337963
-0.176994
-0.359362
-0.178299
-0.37938
-0.17831
-0.397562
-0.177104
-0.413457
-0.174816
-0.426648
-0.171583
-0.436738
-0.16754
-0.443367
-0.16287
-0.157827
-0.446231
0.244573
0.0775907
-0.250985
0.236281
0.083206
0.225931
0.086703
0.213414
0.0882006
0.198683
0.0886344
0.182027
0.089061
0.164004
0.0893367
0.145056
0.0876203
0.125493
0.081737
0.10552
0.0708774
0.0853065
0.0559998
0.0650206
0.0390109
0.0448097
0.0217398
0.0247517
0.00533325
0.00488815
-0.00980229
-0.0146202
-0.023859
-0.0335553
-0.0373068
-0.0518263
-0.0505259
-0.0695539
-0.0634328
-0.086775
-0.076063
-0.103725
-0.0880094
-0.120688
-0.0990584
-0.137845
-0.109277
-0.155607
-0.118745
-0.174335
-0.127517
-0.194207
-0.135583
-0.215235
-0.142922
-0.237323
-0.149465
-0.26028
-0.155129
-0.283851
-0.159795
-0.307724
-0.163359
-0.331545
-0.165729
-0.354894
-0.166872
-0.377372
-0.166743
-0.39856
-0.165415
-0.418045
-0.162969
-0.435435
-0.159542
-0.450358
-0.15528
-0.462447
-0.150351
-0.471377
-0.144944
-0.139277
-0.476912
0.250378
0.101879
-0.257427
0.241643
0.106635
0.231078
0.109418
0.218609
0.110298
0.204345
0.110047
0.18855
0.109585
0.171513
0.108757
0.153336
0.105924
0.134059
0.098981
0.113788
0.0870598
0.0928267
0.0709284
0.0715673
0.0524057
0.0503683
0.0333579
0.0294936
0.0150269
0.00885193
-0.00182568
-0.0116154
-0.0174247
-0.0317335
-0.0324734
-0.0513404
-0.0473379
-0.0704305
-0.0617757
-0.0891127
-0.0757037
-0.107497
-0.0887077
-0.125738
-0.100522
-0.144147
-0.111044
-0.163091
-0.120285
-0.182822
-0.128401
-0.203545
-0.135409
-0.225314
-0.141422
-0.248082
-0.146453
-0.271684
-0.150513
-0.295893
-0.153534
-0.320408
-0.155463
-0.344897
-0.156232
-0.368983
-0.155838
-0.392265
-0.154266
-0.414347
-0.151583
-0.434854
-0.147861
-0.453413
-0.143259
-0.469703
-0.137897
-0.483402
-0.131985
-0.494243
-0.125698
-0.119272
-0.502
0.255931
0.122056
-0.26316
0.247225
0.126014
0.236868
0.128167
0.224836
0.128455
0.211265
0.127512
0.19644
0.126126
0.180455
0.124349
0.163124
0.120832
0.144211
0.113535
0.123633
0.10144
0.101808
0.0848197
0.0792346
0.0654177
0.0565371
0.0449734
0.0341595
0.0249105
0.012338
0.00619825
-0.0092711
-0.0108091
-0.0307582
-0.0270679
-0.0520282
-0.0431294
-0.0727556
-0.0589792
-0.0931136
-0.0740321
-0.112966
-0.088178
-0.132573
-0.100746
-0.152101
-0.111717
-0.171914
-0.120894
-0.192244
-0.128546
-0.213325
-0.134678
-0.235312
-0.139455
-0.258199
-0.143041
-0.281929
-0.145472
-0.306265
-0.146847
-0.330977
-0.147088
-0.3557
-0.146252
-0.380108
-0.144288
-0.403795
-0.14126
-0.426393
-0.137202
-0.447515
-0.132216
-0.466837
-0.12642
-0.484035
-0.119962
-0.498844
-0.113029
-0.511026
-0.105817
-0.0985485
-0.520405
0.260912
0.137737
-0.26809
0.252495
0.140988
0.242621
0.142629
0.231323
0.142374
0.218604
0.140908
0.204931
0.138572
0.190045
0.136163
0.173946
0.132083
0.155669
0.125269
0.135159
0.113799
0.112689
0.0976258
0.088814
0.0782103
0.0647514
0.0566344
0.0406052
0.0354342
0.017096
0.0149622
-0.00649385
-0.00298971
-0.0294775
-0.0207826
-0.0522887
-0.0378465
-0.0743261
-0.0552009
-0.0964146
-0.0708305
-0.118035
-0.0859638
-0.139319
-0.0992726
-0.160205
-0.110919
-0.181018
-0.12031
-0.202094
-0.127689
-0.223383
-0.133428
-0.245424
-0.137088
-0.267943
-0.139626
-0.291379
-0.14035
-0.315197
-0.140311
-0.339633
-0.138651
-0.363941
-0.136395
-0.388263
-0.132597
-0.411696
-0.128365
-0.434443
-0.122632
-0.455548
-0.116672
-0.475246
-0.109432
-0.492698
-0.102164
-0.508127
-0.0940268
-0.520904
-0.0861118
-0.0778419
-0.531255
0.264704
-0.27184
0.257352
0.24774
0.237918
0.225394
0.213641
0.19876
0.185181
0.167618
0.148822
0.12673
0.10174
0.0760859
0.0491981
0.0234577
-0.00159384
-0.025524
-0.0500151
-0.0734032
-0.0971526
-0.120059
-0.143192
-0.166037
-0.188357
-0.210778
-0.232561
-0.255022
-0.277001
-0.300079
-0.322749
-0.346604
-0.369622
-0.39355
-0.415788
-0.438412
-0.458481
-0.4783
-0.494963
-0.510694
-0.522959
-0.53372
0.0194277
-0.489837
-0.0099169
-0.489052
-0.0356928
-0.480915
-0.0569865
-0.466239
-0.0730949
-0.445727
-0.0835806
-0.420242
-0.0883926
-0.390789
-0.0877751
-0.358483
-0.0822634
-0.324393
-0.0726803
-0.289614
-0.0600037
-0.255237
-0.0455005
-0.222378
-0.0306659
-0.192032
-0.0168752
-0.165546
-0.00588534
-0.143814
0.00063613
-0.12474
-0.110272
0.0128363
-0.447091
-0.0147057
-0.447041
-0.0392841
-0.441029
-0.0599903
-0.429465
-0.0761143
-0.412891
-0.0872064
-0.391943
-0.0930923
-0.367377
-0.0939284
-0.340005
-0.0900437
-0.310739
-0.0819504
-0.280504
-0.0705054
-0.250054
-0.0567787
-0.22029
-0.0419122
-0.192128
-0.0272303
-0.166717
-0.0145705
-0.144417
-0.00411757
-0.124759
-0.105711
0.00714113
-0.40475
-0.0187292
-0.405631
-0.0419447
-0.401441
-0.0617581
-0.39251
-0.0775374
-0.379291
-0.0888455
-0.362252
-0.0954545
-0.341965
-0.0973613
-0.319036
-0.0948056
-0.294154
-0.0882104
-0.268073
-0.0781301
-0.241422
-0.0653827
-0.214844
-0.0508788
-0.189158
-0.0358357
-0.165201
-0.0215274
-0.143261
-0.00856145
-0.123519
-0.101468
0.00195144
-0.364366
-0.021989
-0.365575
-0.0437426
-0.362747
-0.0625497
-0.355982
-0.0778254
-0.345583
-0.0891342
-0.331889
-0.0962188
-0.315313
-0.098985
-0.296319
-0.0975364
-0.275412
-0.0921851
-0.25315
-0.0833302
-0.230085
-0.0715347
-0.206701
-0.0575542
-0.183626
-0.0423938
-0.161445
-0.0269692
-0.14053
-0.0119904
-0.121255
-0.0972681
-0.00225965
-0.325534
-0.0244052
-0.327186
-0.0446314
-0.325458
-0.0623
-0.320463
-0.0768897
-0.312404
-0.0879846
-0.301533
-0.0953053
-0.288143
-0.0987051
-0.272579
-0.0981845
-0.255215
-0.0939154
-0.236448
-0.0862087
-0.2167
-0.0754398
-0.196399
-0.0621663
-0.175993
-0.0471184
-0.155897
-0.031057
-0.13645
-0.0148096
-0.117955
-0.0932544
-0.00581398
-0.289268
-0.0260397
-0.290975
-0.0446697
-0.290034
-0.0611139
-0.286435
-0.0748825
-0.280294
-0.0855838
-0.27178
-0.0929272
-0.261097
-0.0967359
-0.248492
-0.0969445
-0.234236
-0.0936132
-0.218614
-0.086929
-0.201928
-0.0771708
-0.184523
-0.0647212
-0.16675
-0.0500727
-0.148914
-0.033827
-0.131249
-0.0168898
-0.113751
-0.0894269
-0.00843183
-0.255272
-0.026866
-0.257132
-0.043902
-0.256797
-0.0590567
-0.254295
-0.0718976
-0.249702
-0.0820561
-0.243135
-0.0892471
-0.234727
-0.0932721
-0.224645
-0.0940263
-0.213081
-0.0914935
-0.200237
-0.0857519
-0.186333
-0.0769752
-0.171623
-0.0654145
-0.156387
-0.0513974
-0.140859
-0.0353892
-0.125138
-0.0181789
-0.108898
-0.0857007
-0.0103492
-0.224193
-0.0269565
-0.225945
-0.0423964
-0.226008
-0.0562263
-0.224345
-0.068059
-0.220988
-0.0775622
-0.216005
-0.0844562
-0.209486
-0.0885372
-0.201532
-0.0896707
-0.192272
-0.0877925
-0.181849
-0.0829051
-0.170421
-0.0750839
-0.158178
-0.0644768
-0.145333
-0.0512983
-0.132058
-0.0358878
-0.118332
-0.0187785
-0.103638
-0.0820424
-0.0114437
-0.195733
-0.026345
-0.197478
-0.0402224
-0.197825
-0.0527203
-0.196795
-0.0634986
-0.19441
-0.0722575
-0.190705
-0.0787462
-0.185728
-0.0827552
-0.179546
-0.0841329
-0.172237
-0.0827788
-0.1639
-0.0786441
-0.154647
-0.0717367
-0.144618
-0.0621225
-0.133974
-0.0499282
-0.122832
-0.0353695
-0.111085
-0.0187707
-0.0981123
-0.078439
-0.0118949
-0.170262
-0.0251099
-0.171833
-0.0374624
-0.17234
-0.0486352
-0.171776
-0.0583368
-0.170141
-0.0663032
-0.167449
-0.0723027
-0.16372
-0.0761406
-0.15899
-0.0776524
-0.153312
-0.0767117
-0.146753
-0.0732364
-0.139388
-0.0671877
-0.131316
-0.0585774
-0.122654
-0.0474621
-0.11348
-0.0339419
-0.103646
-0.0182025
-0.0924521
-0.0748549
-0.0116339
-0.147467
-0.0232966
-0.14894
-0.0341915
-0.149557
-0.0440715
-0.149335
-0.0526952
-0.148273
-0.0598399
-0.146369
-0.0653003
-0.143631
-0.068889
-0.14008
-0.0704432
-0.135751
-0.0698276
-0.130685
-0.066933
-0.124938
-0.0616922
-0.118571
-0.0540808
-0.111662
-0.0441102
-0.104258
-0.0317905
-0.0962173
-0.0171924
-0.0867814
-0.071299
-0.0108433
-0.127532
-0.0209683
-0.128798
-0.0304624
-0.12944
-0.0390994
-0.129452
-0.0466734
-0.128817
-0.0529952
-0.127519
-0.0578852
-0.125559
-0.0611725
-0.122954
-0.062701
-0.119725
-0.0623333
-0.115901
-0.0599563
-0.111515
-0.0554831
-0.106607
-0.0488599
-0.101226
-0.0400683
-0.095385
-0.0290726
-0.088966
-0.0158277
-0.0812219
-0.0677938
-0.00944542
-0.110128
-0.018163
-0.111252
-0.0263309
-0.111893
-0.0337769
-0.112062
-0.0403369
-0.111734
-0.0458516
-0.11089
-0.0501635
-0.109533
-0.0531194
-0.107677
-0.0545766
-0.105336
-0.0544067
-0.102528
-0.0524975
-0.0992701
-0.0487568
-0.0955878
-0.0431111
-0.091513
-0.0355053
-0.0870453
-0.0258964
-0.0820561
-0.0141834
-0.0758599
-0.0643661
-0.00764695
-0.0953153
-0.0149704
-0.0962302
-0.02186
-0.0968168
-0.0281663
-0.0970671
-0.0337517
-0.0969451
-0.0384807
-0.0964323
-0.0422166
-0.095534
-0.0448266
-0.0942618
-0.0461858
-0.0926248
-0.0461793
-0.090631
-0.0447023
-0.0882924
-0.0416591
-0.085626
-0.0369666
-0.0826539
-0.030555
-0.0793652
-0.0223642
-0.0756242
-0.0123269
-0.0707547
-0.0610452
-0.00531343
-0.0827565
-0.011375
-0.0835222
-0.0170732
-0.0840498
-0.0223044
-0.0843341
-0.0269623
-0.0843426
-0.0309346
-0.0840639
-0.0341068
-0.0835066
-0.0363681
-0.0826803
-0.0376137
-0.0815892
-0.037745
-0.0802369
-0.0366688
-0.0786318
-0.0342967
-0.0767877
-0.0305432
-0.0747259
-0.0253238
-0.0724364
-0.0185834
-0.0697562
-0.0103043
-0.0659738
-0.0578489
-0.00264812
-0.0724659
-0.00745383
-0.0730313
-0.0120043
-0.0734615
-0.01621
-0.0737313
-0.0199837
-0.0738065
-0.0232329
-0.0736821
-0.025864
-0.0733684
-0.027788
-0.0728715
-0.0289196
-0.0721927
-0.0291766
-0.0713342
-0.0284795
-0.0703028
-0.0267533
-0.069109
-0.02393
-0.0677688
-0.0199435
-0.0662718
-0.0147168
-0.0644675
-0.00821728
-0.0616016
-0.054848
0.000539904
-0.0641143
-0.00313559
-0.0645375
-0.00662358
-0.0648757
-0.00986867
-0.0651073
-0.0128085
-0.0652055
-0.0153738
-0.065173
-0.0174946
-0.0650212
-0.0191036
-0.0647545
-0.0201355
-0.0643733
-0.0205249
-0.06388
-0.0202071
-0.0632824
-0.0191199
-0.0625892
-0.0172135
-0.0618051
-0.0144539
-0.0609054
-0.0107971
-0.0597504
-0.00608185
-0.0577045
-0.0520897
0.00403442
-0.0577147
0.00149528
-0.057957
-0.000959305
-0.0581766
-0.00328427
-0.0583388
-0.00543152
-0.0584203
-0.00735092
-0.0584261
-0.00899395
-0.0583668
-0.0103139
-0.0582455
-0.0112644
-0.0580626
-0.0117989
-0.0578219
-0.0118709
-0.0575312
-0.0114357
-0.0571987
-0.0104558
-0.0568222
-0.00890425
-0.0563676
-0.00676711
-0.0556829
-0.00388357
-0.0542801
-0.0495752
0.00812387
-0.0529621
0.00659238
-0.0530815
0.0050786
-0.0531954
0.00360093
-0.0532806
0.00218488
-0.0533215
0.000858111
-0.0533255
-0.000352433
-0.0533028
-0.00141985
-0.0532571
-0.00231642
-0.05319
-0.00301389
-0.0531061
-0.00348484
-0.0530131
-0.0037052
-0.052916
-0.00365742
-0.0528068
-0.00332933
-0.0526462
-0.00268256
-0.0523091
-0.0016626
-0.0513241
-0.0473223
0.0125945
-0.0499264
0.0121006
-0.0498763
0.0115167
-0.0498603
0.010855
-0.0498448
0.0101274
-0.049814
0.00934403
-0.0497743
0.00851476
-0.0497357
0.00764949
-0.049702
0.00675882
-0.0496761
0.00585378
-0.049663
0.00494423
-0.0496694
0.00403661
-0.0496973
0.00313338
-0.0497344
0.00223292
-0.0497376
0.00135364
-0.0496018
0.000528436
-0.0488701
-0.0453835
0.0177905
-0.0483339
0.0182262
-0.048187
0.018496
-0.048053
0.0185878
-0.0479312
0.0184933
-0.0478097
0.0182028
-0.0476938
0.0177073
-0.0475942
0.0169993
-0.0475164
0.0160722
-0.0474641
0.0149193
-0.0474422
0.0135325
-0.0474556
0.0119001
-0.0475026
0.0100085
-0.0475686
0.00784484
-0.0476109
0.00541521
-0.0475427
0.00272681
-0.0469078
-0.0437595
0.023457
-0.0483366
0.0248473
-0.048012
0.0259542
-0.0477357
0.0267633
-0.0474872
0.0272514
-0.0472465
0.0273943
-0.0470176
0.0271696
-0.0468129
0.026555
-0.0466379
0.0255283
-0.0464955
0.024067
-0.0463904
0.0221475
-0.0463254
0.0197441
-0.0462956
0.0168312
-0.0462862
0.0133863
-0.0462563
0.00940829
-0.0461393
0.00487925
-0.0454608
-0.0424916
0.0299369
-0.0496451
0.0321816
-0.0492446
0.0340488
-0.0488308
0.0355018
-0.0484448
0.036505
-0.0480676
0.0370158
-0.0476955
0.0369936
-0.0473429
0.0364017
-0.0470178
0.0352039
-0.0467233
0.0333641
-0.0464627
0.0308461
-0.0462372
0.0276131
-0.0460404
0.0236318
-0.0458588
0.0188742
-0.045655
0.0133328
-0.0453811
0.00698498
-0.0445452
-0.0416077
0.0369837
-0.0525117
0.0401117
-0.0519261
0.042738
-0.0513566
0.0448125
-0.0508073
0.0462818
-0.0502554
0.047095
-0.0496984
0.0472029
-0.0491515
0.0465569
-0.0486218
0.0451089
-0.0481112
0.0428126
-0.0476228
0.0396231
-0.047157
0.0354975
-0.0467071
0.0303982
-0.0462619
0.024295
-0.0457888
0.0171759
-0.0452547
0.00903166
-0.0441674
-0.0411307
0.0449278
-0.0566532
0.0488551
-0.0560008
0.0521534
-0.0552626
0.05476
-0.0545292
0.0566162
-0.0537806
0.0576528
-0.0530021
0.0578054
-0.0522114
0.0570157
-0.0514194
0.0552277
-0.0506277
0.052388
-0.0498388
0.0484469
-0.0490537
0.0433601
-0.0482667
0.0370901
-0.0474704
0.02961
-0.046638
0.0209103
-0.0457494
0.0110035
-0.04433
-0.0410764
0.0534669
-0.0623768
0.0582034
-0.06152
0.0621727
-0.0605984
0.0652855
-0.0596432
0.0674656
-0.0586454
0.0686438
-0.0575944
0.0687518
-0.0565054
0.0677239
-0.0553884
0.0654994
-0.0542459
0.0620234
-0.0530816
0.0572474
-0.051898
0.0511303
-0.0506918
0.0436408
-0.0494598
0.0347609
-0.0481826
0.0244887
-0.0468504
0.0128923
-0.0450523
-0.0414386
0.0628766
-0.0694006
0.0683372
-0.0684484
0.0728757
-0.0673219
0.0763879
-0.0661112
0.0788002
-0.0648336
0.0800258
-0.063461
0.0799856
-0.0620118
0.0786122
-0.0605019
0.0758459
-0.0589358
0.0716343
-0.0573185
0.0659355
-0.0556558
0.0587199
-0.0539502
0.0499702
-0.052203
0.0396877
-0.0504062
0.0278883
-0.0485566
0.0146428
-0.0462905
-0.0422281
0.0727865
-0.0780469
0.0789829
-0.0768503
0.0840758
-0.075483
0.0879529
-0.0739724
0.0905192
-0.0723477
0.0916952
-0.0705899
0.0914007
-0.06871
0.0895706
-0.0667309
0.0861523
-0.0646624
0.081103
-0.0625101
0.0743944
-0.0602859
0.0660144
-0.0579991
0.0559672
-0.0556581
0.0442758
-0.0532639
0.0309899
-0.0508308
0.0162012
-0.0480269
-0.043462
0.0834107
-0.0880053
0.0902484
-0.086682
0.0957924
-0.0850415
0.0999133
-0.0831793
0.102525
-0.0811596
0.103535
-0.0789488
0.102863
-0.0765603
0.100451
-0.0740292
0.0962588
-0.0713711
0.0902602
-0.068597
0.0824494
-0.0657261
0.072841
-0.0627771
0.0614706
-0.0597676
0.0483961
-0.0567094
0.0337031
-0.0536332
0.0175206
-0.0502392
-0.0451488
0.0943295
-0.0996099
0.101808
-0.0979864
0.107766
-0.0960172
0.112076
-0.0937442
0.114632
-0.091244
0.115355
-0.0884941
0.114176
-0.085509
0.111051
-0.0823328
0.105959
-0.0789909
0.0989003
-0.0755024
0.0899004
-0.0718971
0.0790112
-0.0682056
0.0663103
-0.0644577
0.0519022
-0.0606783
0.0359195
-0.0569134
0.0185412
-0.0528971
-0.0472933
0.105655
-0.112522
0.113664
-0.110682
0.119919
-0.108337
0.124283
-0.10559
0.126657
-0.102536
0.126957
-0.0991561
0.125129
-0.0954756
0.121149
-0.0915523
0.115025
-0.0874243
0.106793
-0.083123
0.0965196
-0.0786924
0.0843062
-0.0741793
0.0702852
-0.0696295
0.0546211
-0.0650845
0.0375082
-0.0606061
0.0191907
-0.0559659
-0.0499036
0.116896
-0.127012
0.125439
-0.124783
0.131945
-0.121985
0.136284
-0.118676
0.138353
-0.114963
0.13809
-0.110844
0.135466
-0.106357
0.130486
-0.101572
0.123194
-0.0965446
0.113673
-0.0913244
0.102048
-0.0859748
0.0884794
-0.0805637
0.0731713
-0.0751578
0.0563634
-0.0698209
0.0383277
-0.0646322
0.0193921
-0.0594074
-0.0529921
0.128101
-0.142706
0.137054
-0.140154
0.143683
-0.136835
0.147857
-0.132882
0.14948
-0.128409
0.148502
-0.123433
0.144922
-0.118013
0.138784
-0.112238
0.130181
-0.106188
0.119257
-0.0999356
0.106204
-0.0935716
0.0912667
-0.0871924
0.0747321
-0.0808916
0.0569337
-0.0747615
0.0382371
-0.0689011
0.019073
-0.0631818
-0.056571
0.138754
-0.159799
0.148112
-0.156749
0.154807
-0.152813
0.158715
-0.148103
0.159754
-0.142741
0.157903
-0.136768
0.1532
-0.130273
0.14574
-0.123363
0.135679
-0.116154
0.123238
-0.10875
0.108698
-0.10128
0.0924006
-0.0938734
0.0747371
-0.0866601
0.0561497
-0.0797662
0.0371134
-0.073315
0.0181745
-0.0672438
-0.0606419
0.148833
-0.177865
0.158469
-0.174369
0.165099
-0.169738
0.168597
-0.164164
0.168896
-0.157779
0.166002
-0.150657
0.159997
-0.142922
0.151041
-0.134719
0.139372
-0.126204
0.125308
-0.11753
0.109239
-0.108867
0.09162
-0.100393
0.0729668
-0.0922767
0.0538438
-0.0846851
0.0348466
-0.0777685
0.016639
-0.0715359
-0.0652018
0.157842
-0.197027
0.167748
-0.192902
0.174248
-0.187468
0.17722
-0.180887
0.176621
-0.173317
0.172503
-0.164872
0.165011
-0.155716
0.154385
-0.146046
0.140967
-0.136073
0.125189
-0.126009
0.107571
-0.116081
0.0887027
-0.106518
0.0692384
-0.0975388
0.0498779
-0.0893541
0.0313459
-0.0821444
0.0144254
-0.0759926
-0.0702377
0.165713
-0.216794
0.175774
-0.212095
0.182019
-0.205766
0.184322
-0.198044
0.182663
-0.189116
0.177138
-0.179152
0.167969
-0.168377
0.155503
-0.157057
0.140203
-0.145473
0.12264
-0.133907
0.103481
-0.122653
0.083472
-0.112005
0.063419
-0.102236
0.0441648
-0.0936014
0.0265657
-0.0863154
0.0115206
-0.080535
-0.0757139
0.171989
-0.237222
0.182202
-0.231773
0.188123
-0.224424
0.18963
-0.21539
0.186742
-0.204909
0.179627
-0.193215
0.168601
-0.180611
0.154133
-0.167449
0.136831
-0.154096
0.117427
-0.14092
0.0967585
-0.128298
0.0757441
-0.116594
0.055357
-0.106145
0.0365919
-0.09725
0.0204407
-0.0901608
0.007889
-0.0850824
-0.0816137
0.176625
-0.257763
0.186887
-0.251623
0.192364
-0.243155
0.192932
-0.232645
0.188647
-0.220405
0.179757
-0.206759
0.166696
-0.192108
0.150074
-0.176905
0.130666
-0.161626
0.109388
-0.146742
0.0872684
-0.132725
0.0654176
-0.120024
0.0449849
-0.109039
0.027121
-0.100118
0.01295
-0.0935511
0.00353032
-0.0895613
-0.0879263
0.179261
-0.278444
0.1896
-0.271441
0.194581
-0.26171
0.194098
-0.249537
0.188272
-0.235319
0.177445
-0.219485
0.162182
-0.202552
0.143265
-0.185103
0.121661
-0.167742
0.098498
-0.151063
0.0750209
-0.135652
0.0525444
-0.122045
0.0324049
-0.110716
0.0159136
-0.102062
0.00429614
-0.0963878
-0.00137841
-0.0938798
-0.0944947
-0.49632
-0.0596142
0.50845
-0.481739
-0.0722528
-0.464273
-0.0853
-0.444668
-0.0985405
-0.422636
-0.111685
-0.398922
-0.124487
-0.373375
-0.136655
-0.346691
-0.147935
-0.318811
-0.158067
-0.290333
-0.166831
-0.261282
-0.174001
-0.23212
-0.17943
-0.202912
-0.182954
-0.17399
-0.184481
-0.145439
-0.183927
-0.117463
-0.181264
-0.0901529
-0.17648
-0.063604
-0.16961
-0.0379044
-0.160706
-0.0130698
-0.149854
0.0108398
-0.137172
0.0338411
-0.122801
0.0558787
-0.106957
0.076975
-0.0898066
0.0971142
-0.0715742
0.116284
-0.052507
0.134504
-0.0328523
0.151721
-0.0128995
0.167984
0.00707594
0.183188
0.0267653
0.197414
0.0458891
0.210523
0.0641273
0.222613
0.0812502
0.233521
0.0969353
0.243376
0.111029
0.251992
0.123231
0.259551
0.133494
0.265858
0.14156
0.271161
0.147521
0.275246
0.15118
0.152751
-0.488118
-0.080568
0.498716
-0.474602
-0.0926961
-0.458316
-0.10516
-0.439486
-0.117717
-0.418344
-0.130116
-0.395188
-0.142082
-0.370305
-0.153362
-0.344015
-0.163687
-0.316617
-0.172835
-0.288426
-0.180571
-0.259716
-0.186712
-0.230766
-0.191098
-0.201804
-0.193602
-0.173052
-0.194129
-0.144684
-0.192622
-0.116856
-0.189053
-0.0896868
-0.183431
-0.0632767
-0.175791
-0.0376945
-0.1662
-0.0129887
-0.154749
0.010804
-0.141558
0.0336631
-0.126774
0.0555679
-0.110603
0.0765175
-0.0932278
0.0965033
-0.0748617
0.115516
-0.055749
0.133552
-0.036143
0.150592
-0.016317
0.166625
0.00344448
0.181621
0.0228509
0.195563
0.0416123
0.208402
0.0594384
0.220131
0.0760643
0.230692
0.0912218
0.240095
0.104699
0.248277
0.116275
0.255278
0.125816
0.261044
0.133173
0.265657
0.13832
0.269078
0.141202
0.141884
-0.473799
-0.100507
0.482393
-0.462061
-0.112134
-0.447363
-0.124003
-0.429925
-0.135892
-0.410019
-0.14754
-0.387938
-0.158686
-0.364004
-0.169078
-0.338541
-0.17847
-0.31188
-0.186638
-0.284331
-0.193376
-0.256198
-0.198508
-0.227756
-0.20189
-0.199257
-0.203412
-0.17092
-0.202992
-0.142934
-0.200587
-0.115457
-0.196181
-0.0886182
-0.189793
-0.0625178
-0.18147