/*--------------------------------*- C++ -*----------------------------------*\
  =========                 |
  \\      /  F ield         | OpenFOAM: The Open Source CFD Toolbox
   \\    /   O peration     | Website:  https://openfoam.org
    \\  /    A nd           | Version:  6
     \\/     M anipulation  |
\*---------------------------------------------------------------------------*/
FoamFile
{
    version     2.0;
    format      ascii;
    class       volScalarField;
    location    "4.36";
    object      rho;
}
// * * * * * * * * * * * * * * * * * * * * * * * * * * * * * * * * * * * * * //

dimensions      [1 -3 0 0 0 0 0];

internalField   nonuniform List<scalar> 
10000
(
1.4
1.4
1.4
1.4
1.4
1.4
1.4
1.40001
1.40001
1.4
1.40001
1.4
1.40001
1.4
1.40001
1.40001
1.4
1.40001
1.4
1.40001
1.40001
1.4
1.40001
1.4
1.4
1.40001
1.4
1.4
1.40001
1.4
1.40001
1.40001
1.40001
1.4
1.40001
1.40001
1.40001
1.40001
1.40001
1.40001
1.40001
1.40001
1.40002
1.40002
1.40002
1.40002
1.40002
1.40001
1.4
1.39999
1.39998
1.39997
1.39998
1.40003
1.40012
1.40028
1.40053
1.40086
1.40129
1.40181
1.40241
1.40307
1.40375
1.40443
1.40508
1.40566
1.40614
1.40651
1.40674
1.40683
1.40677
1.40658
1.40626
1.40583
1.40531
1.40474
1.40414
1.40353
1.40296
1.40242
1.40194
1.40152
1.40117
1.40088
1.40064
1.40046
1.40032
1.40021
1.40013
1.40008
1.40004
1.40002
1.40001
1.4
1.4
1.4
1.4
1.4
1.4
1.4
1.4
1.4
1.4
1.4
1.4
1.4
1.4
1.4
1.4
1.40001
1.4
1.40001
1.4
1.40001
1.40001
1.4
1.40001
1.4
1.40001
1.40001
1.40001
1.40001
1.4
1.40001
1.40001
1.4
1.40001
1.40001
1.4
1.40001
1.4
1.40001
1.40001
1.40001
1.40001
1.40001
1.40001
1.40001
1.40001
1.40001
1.40001
1.40002
1.40002
1.40003
1.40003
1.40003
1.40003
1.40003
1.40002
1.40001
1.4
1.40002
1.40007
1.40018
1.40037
1.40066
1.40107
1.40162
1.40231
1.40311
1.40401
1.40498
1.40597
1.40693
1.40783
1.40863
1.40928
1.40976
1.41005
1.41015
1.41005
1.40975
1.40927
1.40864
1.40788
1.40704
1.40615
1.40525
1.40438
1.40358
1.40286
1.40223
1.40171
1.40127
1.40092
1.40065
1.40045
1.40029
1.40018
1.40011
1.40006
1.40003
1.40001
1.4
1.39999
1.39999
1.39999
1.4
1.4
1.4
1.4
1.4
1.4
1.4
1.4
1.4
1.4
1.4
1.4
1.4
1.40001
1.4
1.40001
1.4
1.40001
1.40001
1.4
1.40001
1.4
1.40001
1.4
1.40001
1.40001
1.4
1.40001
1.40001
1.4
1.40001
1.40001
1.40001
1.4
1.40001
1.40001
1.4
1.40001
1.40001
1.40001
1.40001
1.40001
1.40001
1.40002
1.40002
1.40003
1.40004
1.40004
1.40005
1.40005
1.40004
1.40004
1.40004
1.40006
1.40011
1.40023
1.40044
1.40078
1.40128
1.40195
1.40281
1.40385
1.40505
1.40635
1.40772
1.4091
1.41042
1.41163
1.41268
1.41352
1.41414
1.4145
1.4146
1.41444
1.41402
1.41336
1.41249
1.41144
1.41025
1.40898
1.4077
1.40644
1.40527
1.40421
1.40328
1.4025
1.40185
1.40134
1.40094
1.40064
1.40042
1.40026
1.40015
1.40008
1.40003
1.40001
1.39999
1.39999
1.39999
1.39999
1.39999
1.4
1.4
1.4
1.4
1.4
1.4
1.4
1.4
1.4
1.4
1.40001
1.4
1.40001
1.40001
1.4
1.40001
1.4
1.40001
1.4
1.40001
1.4
1.40001
1.40001
1.40001
1.4
1.40001
1.4
1.40001
1.40001
1.4
1.40001
1.40001
1.4
1.40001
1.40001
1.4
1.40001
1.40001
1.40001
1.40001
1.40001
1.40002
1.40002
1.40003
1.40004
1.40005
1.40006
1.40006
1.40007
1.40007
1.40008
1.4001
1.40015
1.40028
1.4005
1.40088
1.40145
1.40224
1.40329
1.40458
1.40611
1.40781
1.40964
1.41151
1.41334
1.41507
1.41662
1.41794
1.41898
1.41972
1.42015
1.42025
1.42003
1.41949
1.41865
1.41752
1.41614
1.41456
1.41285
1.41108
1.40933
1.40766
1.40613
1.40479
1.40365
1.40271
1.40195
1.40137
1.40092
1.4006
1.40037
1.40021
1.40011
1.40004
1.40001
1.39999
1.39998
1.39998
1.39998
1.39999
1.39999
1.39999
1.39999
1.4
1.4
1.4
1.4
1.4
1.4
1.4
1.4
1.40001
1.4
1.40001
1.4
1.40001
1.40001
1.40001
1.40001
1.40001
1.4
1.40001
1.4
1.40001
1.4
1.40001
1.4
1.40001
1.4
1.40001
1.4
1.40001
1.4
1.4
1.40001
1.40001
1.40001
1.40001
1.40001
1.40001
1.40002
1.40002
1.40003
1.40004
1.40005
1.40007
1.40008
1.40009
1.4001
1.40011
1.40014
1.40019
1.40031
1.40055
1.40094
1.40157
1.40247
1.4037
1.40525
1.40713
1.40927
1.41161
1.41405
1.41648
1.4188
1.42094
1.42281
1.42436
1.42556
1.4264
1.42687
1.42697
1.4267
1.42606
1.42506
1.42372
1.42204
1.42008
1.41789
1.41557
1.41322
1.41094
1.40882
1.40692
1.40529
1.40394
1.40284
1.40199
1.40135
1.40088
1.40054
1.40031
1.40016
1.40007
1.40001
1.39998
1.39997
1.39997
1.39997
1.39998
1.39998
1.39999
1.39999
1.4
1.4
1.4
1.4
1.4
1.4
1.4
1.4
1.4
1.4
1.40001
1.40001
1.4
1.40001
1.4
1.40001
1.40001
1.40001
1.40001
1.40001
1.4
1.40001
1.40001
1.4
1.40001
1.4
1.4
1.40001
1.40001
1.4
1.40001
1.40001
1.40001
1.40001
1.40001
1.40001
1.40001
1.40002
1.40003
1.40004
1.40005
1.40007
1.40009
1.40011
1.40012
1.40014
1.40017
1.40023
1.40035
1.40057
1.40098
1.40163
1.40262
1.404
1.4058
1.40803
1.41064
1.41353
1.41659
1.41967
1.42265
1.42542
1.42787
1.42995
1.43162
1.43288
1.43373
1.43419
1.43426
1.43396
1.43329
1.43224
1.43079
1.42894
1.42669
1.4241
1.42125
1.41826
1.41528
1.41244
1.40985
1.40758
1.40567
1.40412
1.4029
1.40197
1.40129
1.4008
1.40046
1.40024
1.4001
1.40002
1.39998
1.39996
1.39996
1.39996
1.39997
1.39998
1.39998
1.39999
1.39999
1.4
1.4
1.4
1.4
1.4
1.4
1.4
1.4
1.4
1.40001
1.4
1.40001
1.40001
1.4
1.40001
1.40001
1.40001
1.4
1.40001
1.4
1.4
1.40001
1.4
1.40001
1.40001
1.4
1.4
1.40001
1.40001
1.40001
1.40001
1.40001
1.40001
1.40001
1.40001
1.40002
1.40002
1.40004
1.40005
1.40007
1.40009
1.40012
1.40014
1.40017
1.4002
1.40026
1.40037
1.40059
1.40098
1.40164
1.40266
1.40416
1.40618
1.40875
1.41181
1.41527
1.41898
1.42276
1.42642
1.42982
1.43284
1.43539
1.43745
1.43902
1.44014
1.44086
1.44121
1.44124
1.44095
1.44034
1.4394
1.43806
1.43627
1.43398
1.4312
1.42798
1.42444
1.42077
1.41714
1.41373
1.41068
1.40806
1.4059
1.40418
1.40286
1.40188
1.40118
1.4007
1.40037
1.40017
1.40005
1.39998
1.39996
1.39995
1.39995
1.39996
1.39997
1.39998
1.39998
1.39999
1.39999
1.4
1.4
1.4
1.4
1.4
1.4
1.4
1.4
1.4
1.40001
1.4
1.40001
1.4
1.40001
1.4
1.40001
1.4
1.40001
1.4
1.40001
1.4
1.40001
1.4
1.40001
1.40001
1.40001
1.4
1.40001
1.40001
1.40001
1.40001
1.40001
1.40001
1.40001
1.40002
1.40003
1.40005
1.40007
1.40009
1.40012
1.40015
1.40019
1.40023
1.40029
1.40039
1.40059
1.40095
1.40158
1.40261
1.40417
1.40635
1.4092
1.4127
1.41672
1.42109
1.42557
1.42992
1.43393
1.43743
1.44034
1.44262
1.4443
1.44545
1.44617
1.44656
1.44668
1.44661
1.44636
1.44595
1.44532
1.44439
1.44303
1.44111
1.43855
1.43531
1.4315
1.42729
1.42293
1.41867
1.41472
1.41124
1.40832
1.40595
1.40411
1.40273
1.40174
1.40104
1.40058
1.40028
1.4001
1.4
1.39995
1.39994
1.39994
1.39994
1.39996
1.39997
1.39997
1.39998
1.39999
1.39999
1.4
1.4
1.4
1.4
1.4
1.4
1.4
1.40001
1.4
1.40001
1.4
1.40001
1.4
1.40001
1.40001
1.4
1.40001
1.40001
1.4
1.40001
1.40001
1.4
1.40001
1.4
1.4
1.40001
1.40001
1.40001
1.40001
1.40001
1.40001
1.40001
1.40002
1.40003
1.40004
1.40006
1.40009
1.40012
1.40016
1.4002
1.40025
1.40031
1.40041
1.40058
1.4009
1.40149
1.40247
1.40402
1.40628
1.40935
1.41322
1.41778
1.42279
1.42797
1.43299
1.43755
1.44145
1.44454
1.44682
1.44832
1.44918
1.44954
1.44955
1.44938
1.44913
1.44891
1.44874
1.44864
1.44854
1.44834
1.44784
1.44682
1.44506
1.4424
1.43883
1.43449
1.42963
1.42462
1.41976
1.41533
1.41149
1.40833
1.40582
1.40392
1.40252
1.40154
1.40088
1.40045
1.40018
1.40003
1.39996
1.39993
1.39992
1.39993
1.39994
1.39996
1.39996
1.39997
1.39998
1.39999
1.4
1.4
1.4
1.4
1.4
1.4
1.4
1.40001
1.4
1.40001
1.4
1.40001
1.40001
1.4
1.40001
1.4
1.4
1.40001
1.4
1.40001
1.40001
1.4
1.4
1.40001
1.4
1.4
1.40001
1.40001
1.40001
1.40001
1.40001
1.40001
1.40002
1.40003
1.40005
1.40008
1.40011
1.40015
1.4002
1.40025
1.40032
1.40041
1.40057
1.40085
1.40136
1.40226
1.40374
1.40599
1.40917
1.41332
1.41834
1.42397
1.42983
1.4355
1.44057
1.44476
1.44788
1.44991
1.45093
1.45113
1.45072
1.44992
1.44897
1.44806
1.44733
1.44691
1.44683
1.4471
1.44769
1.44847
1.44922
1.44963
1.44934
1.44801
1.44543
1.44162
1.43679
1.43134
1.42572
1.42034
1.41551
1.41141
1.40809
1.40552
1.40361
1.40225
1.40131
1.4007
1.40032
1.40009
1.39997
1.39992
1.39991
1.39991
1.39993
1.39995
1.39995
1.39997
1.39998
1.39999
1.39999
1.4
1.4
1.4
1.4
1.4
1.4
1.4
1.4
1.4
1.40001
1.4
1.40001
1.40001
1.40001
1.40001
1.4
1.40001
1.4
1.40001
1.40001
1.4
1.4
1.40001
1.40001
1.4
1.40001
1.40001
1.40001
1.40001
1.40001
1.40002
1.40003
1.40004
1.40007
1.4001
1.40014
1.40019
1.40025
1.40032
1.40041
1.40055
1.40079
1.40123
1.40201
1.40336
1.4055
1.40866
1.41297
1.41836
1.42454
1.43106
1.43737
1.44292
1.44732
1.45033
1.45192
1.4522
1.45142
1.44988
1.44788
1.44573
1.44368
1.44194
1.44068
1.44002
1.44
1.44066
1.44196
1.44381
1.44601
1.44822
1.44997
1.45072
1.45001
1.44762
1.4436
1.43833
1.43232
1.42618
1.42037
1.41526
1.411
1.40762
1.40507
1.40321
1.40192
1.40106
1.40052
1.40019
1.40001
1.39993
1.3999
1.3999
1.39991
1.39993
1.39994
1.39996
1.39997
1.39998
1.39999
1.4
1.4
1.4
1.4
1.4
1.4
1.4
1.4
1.40001
1.4
1.40001
1.4
1.40001
1.4
1.40001
1.4
1.40001
1.4
1.40001
1.4
1.40001
1.4
1.40001
1.4
1.40001
1.40001
1.40001
1.40001
1.40001
1.40001
1.40002
1.40003
1.40005
1.40008
1.40012
1.40017
1.40024
1.40031
1.4004
1.40053
1.40073
1.40109
1.40175
1.40292
1.40487
1.40788
1.41218
1.41779
1.42443
1.43158
1.43853
1.44458
1.44918
1.45202
1.45303
1.45239
1.4504
1.44748
1.44401
1.44037
1.43687
1.43376
1.43125
1.4295
1.4286
1.42862
1.42958
1.43148
1.43429
1.43786
1.44192
1.44597
1.44932
1.45127
1.45124
1.44902
1.44478
1.43905
1.43254
1.42596
1.41986
1.41459
1.41029
1.40696
1.4045
1.40276
1.40158
1.40081
1.40035
1.40008
1.39995
1.3999
1.39988
1.3999
1.39992
1.39992
1.39994
1.39996
1.39998
1.39999
1.39999
1.4
1.4
1.4
1.4
1.4
1.4
1.40001
1.4
1.40001
1.40001
1.4
1.40001
1.4
1.40001
1.40001
1.4
1.40001
1.4
1.40001
1.40001
1.4
1.40001
1.40001
1.40001
1.40001
1.40001
1.40001
1.40001
1.40002
1.40003
1.40004
1.40007
1.4001
1.40015
1.40021
1.40029
1.40038
1.4005
1.40067
1.40097
1.40151
1.40248
1.40417
1.4069
1.41102
1.41665
1.42361
1.43132
1.43893
1.44554
1.45041
1.45309
1.45351
1.45187
1.44858
1.44416
1.43909
1.43384
1.42877
1.42417
1.42024
1.41715
1.41502
1.41394
1.41394
1.41507
1.41735
1.42081
1.42542
1.43101
1.43718
1.44323
1.44826
1.45136
1.4519
1.44971
1.44515
1.43895
1.432
1.4251
1.41884
1.41355
1.40934
1.40615
1.40385
1.40227
1.40123
1.40058
1.4002
1.4
1.3999
1.39988
1.39988
1.3999
1.39991
1.39993
1.39995
1.39997
1.39998
1.39999
1.4
1.4
1.4
1.4
1.4
1.4
1.4
1.4
1.40001
1.40001
1.4
1.40001
1.40001
1.4
1.40001
1.40001
1.4
1.40001
1.4
1.40001
1.40001
1.4
1.40001
1.40001
1.40001
1.40001
1.40001
1.40001
1.40002
1.40003
1.40005
1.40008
1.40013
1.40018
1.40026
1.40035
1.40046
1.40062
1.40086
1.40129
1.40206
1.40346
1.40583
1.40958
1.41501
1.42207
1.43024
1.43852
1.44579
1.45106
1.45372
1.45364
1.45106
1.44649
1.44058
1.43393
1.42709
1.42048
1.41444
1.40916
1.40478
1.4014
1.39907
1.39786
1.39781
1.39895
1.40134
1.40505
1.41017
1.41671
1.42443
1.43277
1.44079
1.44733
1.45133
1.45214
1.44975
1.44474
1.43805
1.43073
1.42365
1.41738
1.41222
1.40821
1.40526
1.40318
1.40179
1.4009
1.40037
1.40008
1.39993
1.39988
1.39987
1.39989
1.39989
1.39992
1.39994
1.39996
1.39998
1.39999
1.39999
1.4
1.4
1.4
1.4
1.4
1.40001
1.4
1.40001
1.40001
1.4
1.4
1.40001
1.4
1.40001
1.40001
1.40001
1.4
1.40001
1.4
1.40001
1.4
1.40001
1.40001
1.40001
1.40001
1.40001
1.40002
1.40002
1.40004
1.40006
1.4001
1.40015
1.40022
1.40031
1.40042
1.40056
1.40076
1.4011
1.4017
1.40281
1.40476
1.40801
1.41299
1.41989
1.42831
1.43724
1.44529
1.45116
1.45404
1.45367
1.45032
1.44462
1.43733
1.4292
1.42089
1.41289
1.40556
1.39913
1.39369
1.38928
1.38591
1.38359
1.38233
1.38218
1.38317
1.38538
1.38894
1.39403
1.40081
1.40928
1.41912
1.42951
1.43923
1.4469
1.45136
1.45204
1.44916
1.44355
1.43638
1.4288
1.4217
1.41559
1.4107
1.40699
1.40433
1.40251
1.40133
1.40061
1.4002
1.39998
1.39989
1.39986
1.39987
1.39988
1.39991
1.39993
1.39996
1.39997
1.39998
1.39999
1.4
1.4
1.4
1.4
1.4
1.4
1.4
1.40001
1.40001
1.4
1.4
1.40001
1.4
1.4
1.40001
1.40001
1.4
1.40001
1.40001
1.4
1.40001
1.40001
1.40001
1.40001
1.40001
1.40001
1.40002
1.40003
1.40005
1.40008
1.40012
1.40018
1.40026
1.40036
1.40049
1.40067
1.40094
1.4014
1.40225
1.40378
1.40646
1.41079
1.4172
1.42559
1.43503
1.44394
1.45068
1.4541
1.45376
1.44994
1.44334
1.43486
1.42543
1.4158
1.40658
1.39817
1.3908
1.38457
1.37948
1.37545
1.37239
1.37024
1.369
1.36868
1.36936
1.37114
1.37419
1.37876
1.38514
1.39354
1.40392
1.41573
1.4279
1.4389
1.44714
1.45148
1.45156
1.44789
1.44159
1.43401
1.42633
1.41938
1.41358
1.40907
1.40575
1.40343
1.4019
1.40094
1.40037
1.40006
1.39992
1.39986
1.39986
1.39987
1.3999
1.39992
1.39995
1.39997
1.39998
1.39999
1.4
1.4
1.4
1.4
1.4
1.4
1.4
1.4
1.40001
1.4
1.4
1.40001
1.40001
1.4
1.40001
1.40001
1.4
1.40001
1.4
1.40001
1.40001
1.40001
1.40001
1.40001
1.40001
1.40001
1.40002
1.40003
1.40006
1.40009
1.40014
1.40021
1.40031
1.40043
1.40058
1.4008
1.40115
1.40178
1.40295
1.40504
1.40861
1.41424
1.42219
1.43185
1.44163
1.4495
1.45385
1.45398
1.45007
1.44289
1.4335
1.42295
1.41217
1.40187
1.39253
1.38442
1.37766
1.37221
1.36792
1.3646
1.36208
1.36024
1.35904
1.35849
1.35868
1.35977
1.36199
1.36565
1.37111
1.37877
1.38881
1.40104
1.41463
1.42816
1.43981
1.44794
1.45153
1.45056
1.4459
1.43892
1.43106
1.42345
1.41682
1.41147
1.40744
1.40456
1.40261
1.40136
1.4006
1.40018
1.39997
1.39988
1.39986
1.39986
1.39989
1.39991
1.39994
1.39996
1.39998
1.39999
1.39999
1.4
1.4
1.4
1.4
1.4
1.4
1.4
1.40001
1.40001
1.4
1.40001
1.4
1.4
1.40001
1.40001
1.4
1.40001
1.4
1.40001
1.40001
1.40001
1.40001
1.40001
1.40001
1.40001
1.40002
1.40004
1.40007
1.40011
1.40017
1.40025
1.40035
1.40049
1.40067
1.40095
1.40142
1.40227
1.40384
1.40663
1.41129
1.41839
1.42781
1.43825
1.4474
1.45311
1.45422
1.45071
1.44338
1.43339
1.42196
1.41017
1.39888
1.3887
1.37997
1.37284
1.36726
1.36304
1.35992
1.35758
1.35576
1.3543
1.35313
1.35225
1.35178
1.35193
1.35301
1.35541
1.35957
1.36598
1.37502
1.38678
1.40079
1.41584
1.43016
1.44175
1.449
1.45126
1.44891
1.44317
1.4356
1.42764
1.42031
1.41417
1.40939
1.40589
1.40347
1.40189
1.40091
1.40034
1.40004
1.39991
1.39986
1.39986
1.39988
1.39991
1.39993
1.39995
1.39997
1.39998
1.39999
1.4
1.4
1.4
1.4
1.4
1.4
1.4
1.40001
1.40001
1.4
1.40001
1.4
1.40001
1.4
1.40001
1.40001
1.4
1.4
1.40001
1.40001
1.40001
1.40001
1.40001
1.40001
1.40002
1.40003
1.40005
1.40008
1.40012
1.40019
1.40028
1.4004
1.40056
1.40078
1.40113
1.40174
1.40288
1.40496
1.40859
1.41453
1.42316
1.43377
1.44416
1.45161
1.45427
1.45175
1.44477
1.43457
1.42252
1.40989
1.39768
1.38665
1.37728
1.36981
1.36421
1.36028
1.35768
1.35598
1.35478
1.35375
1.35268
1.3515
1.35022
1.34895
1.34794
1.34757
1.34836
1.35087
1.35565
1.36323
1.37389
1.38746
1.40309
1.41915
1.43354
1.44424
1.44991
1.45036
1.44645
1.43971
1.43176
1.42394
1.41708
1.41157
1.40742
1.40449
1.40253
1.40129
1.40055
1.40015
1.39995
1.39988
1.39987
1.39988
1.3999
1.39993
1.39995
1.39997
1.39998
1.39999
1.4
1.4
1.4
1.4
1.4
1.4
1.4
1.4
1.40001
1.4
1.4
1.40001
1.40001
1.4
1.40001
1.4
1.4
1.40001
1.40001
1.4
1.40001
1.40001
1.40001
1.40001
1.40002
1.40003
1.40006
1.40009
1.40014
1.40022
1.40032
1.40045
1.40063
1.4009
1.40134
1.40214
1.40363
1.40633
1.41097
1.41832
1.42841
1.43962
1.44896
1.45373
1.45288
1.44686
1.43693
1.42461
1.41131
1.39823
1.38631
1.3762
1.36827
1.36261
1.35901
1.3571
1.35635
1.35621
1.35618
1.3559
1.35519
1.354
1.35232
1.35021
1.34791
1.34585
1.3447
1.34517
1.34796
1.3537
1.36281
1.37534
1.39075
1.40767
1.42409
1.43772
1.44671
1.4502
1.44858
1.44315
1.43562
1.42757
1.42014
1.41393
1.40913
1.40566
1.40328
1.40175
1.40082
1.40029
1.40002
1.3999
1.39988
1.39988
1.39989
1.39992
1.39994
1.39996
1.39998
1.39999
1.39999
1.4
1.4
1.4
1.4
1.4
1.4
1.4
1.40001
1.40001
1.4
1.4
1.40001
1.40001
1.4
1.4
1.40001
1.4
1.40001
1.4
1.40001
1.40001
1.40001
1.40002
1.40002
1.40003
1.40006
1.4001
1.40015
1.40024
1.40036
1.4005
1.40071
1.40104
1.40159
1.40261
1.40454
1.40798
1.41378
1.42259
1.43382
1.44482
1.45212
1.45363
1.44929
1.44025
1.42808
1.41436
1.40051
1.38764
1.37663
1.36802
1.36206
1.35867
1.35743
1.35774
1.35891
1.36025
1.36124
1.36156
1.36112
1.35994
1.35799
1.35523
1.35177
1.34799
1.34466
1.34271
1.34308
1.34657
1.35372
1.36476
1.37934
1.3964
1.41407
1.43001
1.44198
1.44853
1.44947
1.44576
1.43904
1.43107
1.42324
1.41643
1.41099
1.40696
1.40414
1.40229
1.40114
1.40047
1.40011
1.39994
1.39991
1.39988
1.39989
1.39992
1.39994
1.39996
1.39998
1.39999
1.39999
1.4
1.4
1.4
1.4
1.4
1.4
1.4
1.4
1.40001
1.4
1.4
1.40001
1.40001
1.4
1.40001
1.40001
1.4
1.40001
1.4
1.40001
1.40001
1.40001
1.40002
1.40003
1.40004
1.40007
1.40011
1.40017
1.40027
1.4004
1.40055
1.40079
1.4012
1.40189
1.40318
1.40562
1.40993
1.41699
1.42719
1.43903
1.44889
1.45343
1.45155
1.44411
1.43269
1.41894
1.40445
1.39063
1.37854
1.36896
1.36237
1.35884
1.35807
1.35937
1.36188
1.36473
1.36718
1.36875
1.36929
1.36889
1.36772
1.3658
1.36292
1.35888
1.3538
1.34839
1.3438
1.34133
1.34208
1.34682
1.3559
1.36917
1.38577
1.40403
1.42164
1.43613
1.44557
1.44918
1.44747
1.4419
1.4343
1.42629
1.41898
1.41296
1.40837
1.4051
1.4029
1.40151
1.40068
1.40022
1.4
1.39994
1.3999
1.3999
1.39991
1.39994
1.39996
1.39997
1.39998
1.39999
1.4
1.4
1.4
1.4
1.4
1.4
1.4
1.4
1.40001
1.40001
1.4
1.40001
1.40001
1.4
1.4
1.40001
1.4
1.40001
1.40001
1.4
1.40001
1.40001
1.40002
1.40003
1.40004
1.40007
1.40013
1.40018
1.40028
1.40044
1.4006
1.40087
1.40138
1.40224
1.40385
1.40689
1.41218
1.42055
1.43188
1.44361
1.45155
1.45298
1.44796
1.43798
1.42478
1.41001
1.39528
1.38198
1.37115
1.3635
1.35936
1.35861
1.36062
1.36436
1.36867
1.37253
1.37523
1.37649
1.37647
1.37561
1.37437
1.37289
1.37077
1.36733
1.36212
1.35546
1.34854
1.34305
1.34061
1.34239
1.34901
1.36046
1.37607
1.39433
1.41302
1.42953
1.44157
1.44781
1.44828
1.44413
1.43718
1.42919
1.42153
1.41499
1.40988
1.40614
1.40359
1.40194
1.40093
1.40036
1.40007
1.39998
1.39992
1.3999
1.39992
1.39994
1.39996
1.39997
1.39998
1.39999
1.4
1.4
1.4
1.4
1.4
1.4
1.4
1.40001
1.4
1.40001
1.4
1.40001
1.4
1.40001
1.4
1.40001
1.4
1.40001
1.40001
1.4
1.40001
1.40001
1.40001
1.40004
1.40004
1.40007
1.40015
1.4002
1.40029
1.40047
1.40066
1.40096
1.40157
1.40265
1.40462
1.40832
1.41469
1.42434
1.43637
1.44726
1.45276
1.45114
1.44339
1.43142
1.41695
1.40161
1.38707
1.37474
1.36561
1.36031
1.35896
1.36115
1.36581
1.37147
1.37665
1.3802
1.38161
1.38104
1.37917
1.37698
1.37538
1.37473
1.37453
1.37348
1.37022
1.36418
1.35618
1.34817
1.34242
1.3408
1.34439
1.35349
1.36757
1.38529
1.4045
1.42254
1.43682
1.44555
1.44824
1.44571
1.43963
1.43187
1.42401
1.41704
1.41143
1.40725
1.40433
1.40241
1.40122
1.40053
1.40016
1.40004
1.39994
1.39991
1.39992
1.39994
1.39995
1.39997
1.39998
1.39999
1.4
1.4
1.4
1.4
1.4
1.4
1.4
1.4
1.4
1.40001
1.4
1.40001
1.4
1.40001
1.4
1.40001
1.4
1.4
1.40001
1.4
1.40001
1.40001
1.40001
1.40004
1.40005
1.40007
1.40016
1.40022
1.40029
1.4005
1.40073
1.40104
1.40178
1.40312
1.40549
1.40992
1.41742
1.42821
1.44039
1.44981
1.45272
1.44833
1.4383
1.42478
1.40946
1.39396
1.37998
1.36899
1.36195
1.35931
1.36093
1.36594
1.37271
1.37921
1.38355
1.38467
1.38252
1.37799
1.37255
1.3679
1.36548
1.366
1.36891
1.37237
1.37384
1.37136
1.36473
1.35574
1.34729
1.34218
1.34232
1.34851
1.36052
1.37717
1.39637
1.41545
1.43158
1.44257
1.44746
1.44665
1.44162
1.43428
1.42635
1.41905
1.413
1.40839
1.40511
1.40292
1.40153
1.40071
1.40026
1.4001
1.39997
1.39993
1.39993
1.39994
1.39995
1.39997
1.39998
1.39999
1.4
1.4
1.4
1.4
1.4
1.4
1.4
1.4
1.4
1.40001
1.4
1.40001
1.40001
1.40001
1.4
1.40001
1.4
1.4
1.40001
1.4
1.40001
1.40002
1.4
1.40004
1.40006
1.40006
1.40017
1.40025
1.40029
1.40052
1.40081
1.40114
1.40199
1.40366
1.40648
1.41163
1.42028
1.43197
1.44376
1.45131
1.45172
1.44492
1.433
1.41829
1.4025
1.38717
1.37406
1.36474
1.36009
1.36031
1.36482
1.37217
1.37997
1.38547
1.38651
1.38233
1.37383
1.363
1.35227
1.34407
1.34041
1.34236
1.34946
1.35941
1.3685
1.37305
1.37118
1.36384
1.35424
1.34621
1.34281
1.3457
1.35514
1.37019
1.38888
1.40851
1.42609
1.43908
1.44605
1.44699
1.44315
1.43638
1.42853
1.42098
1.41456
1.40955
1.40593
1.40346
1.40188
1.40092
1.40038
1.40018
1.40002
1.39995
1.39994
1.39994
1.39996
1.39997
1.39998
1.39999
1.4
1.4
1.4
1.4
1.4
1.4
1.40001
1.4
1.4
1.4
1.40001
1.4
1.40001
1.40001
1.4
1.40001
1.40001
1.4
1.40001
1.4
1.40001
1.40003
1.4
1.40004
1.40008
1.40005
1.40016
1.40028
1.40029
1.40051
1.40089
1.40125
1.4022
1.40423
1.40757
1.41344
1.42315
1.43548
1.44641
1.45191
1.45004
1.44123
1.42772
1.41211
1.39618
1.38132
1.36932
1.3619
1.35985
1.36292
1.36996
1.37871
1.38584
1.38785
1.38251
1.36992
1.35237
1.33327
1.316
1.30351
1.29832
1.30196
1.31415
1.33218
1.3513
1.36606
1.37253
1.37013
1.36174
1.35208
1.34555
1.34502
1.35152
1.36452
1.38223
1.40196
1.42059
1.43526
1.44415
1.44682
1.44424
1.43815
1.43049
1.4228
1.41607
1.4107
1.40675
1.40401
1.40223
1.40114
1.40051
1.40026
1.40006
1.39998
1.39995
1.39995
1.39996
1.39997
1.39998
1.39999
1.4
1.4
1.4
1.4
1.4
1.4
1.40001
1.4
1.40001
1.4
1.40001
1.40001
1.4
1.40001
1.4
1.40001
1.40001
1.4
1.40001
1.4
1.4
1.40004
1.4
1.40002
1.4001
1.40005
1.40013
1.40031
1.4003
1.40048
1.40097
1.4014
1.4024
1.40483
1.40877
1.41531
1.4259
1.4386
1.44842
1.4518
1.4479
1.43746
1.42264
1.40635
1.39057
1.37644
1.36571
1.36033
1.36094
1.36665
1.37547
1.38419
1.38846
1.38416
1.3694
1.34566
1.31705
1.2884
1.26379
1.24645
1.23943
1.24502
1.2632
1.29073
1.32171
1.34911
1.36695
1.37268
1.36822
1.35872
1.34995
1.3462
1.3496
1.36022
1.37655
1.39596
1.41525
1.4313
1.4419
1.44622
1.44491
1.43959
1.43222
1.42448
1.4175
1.41182
1.40756
1.40458
1.4026
1.40137
1.40065
1.40035
1.40011
1.40001
1.39997
1.39996
1.39996
1.39997
1.39998
1.39999
1.4
1.4
1.4
1.4
1.4
1.4
1.4
1.4
1.40001
1.4
1.40001
1.40001
1.4
1.40001
1.4
1.4
1.40001
1.4
1.40001
1.40001
1.39999
1.40004
1.40001
1.4
1.40012
1.40007
1.40008
1.40034
1.40033
1.40042
1.40103
1.4016
1.40261
1.40539
1.41003
1.4172
1.42841
1.44127
1.44991
1.45117
1.44547
1.43378
1.41792
1.40109
1.38566
1.3725
1.36313
1.35978
1.36296
1.37087
1.3804
1.38731
1.38639
1.37323
1.34667
1.30985
1.26881
1.2297
1.19689
1.17378
1.16427
1.17202
1.19746
1.23628
1.28089
1.32269
1.35404
1.37048
1.37252
1.36518
1.35532
1.34884
1.34918
1.35722
1.37187
1.39063
1.41024
1.42736
1.43944
1.44529
1.44522
1.44072
1.43371
1.426
1.41883
1.41288
1.40835
1.40513
1.40297
1.40161
1.4008
1.40044
1.40017
1.40004
1.39998
1.39997
1.39997
1.39998
1.39998
1.39999
1.4
1.4
1.4
1.4
1.4
1.4
1.4
1.4
1.4
1.40001
1.40001
1.4
1.40001
1.40001
1.4
1.4
1.40001
1.4
1.40001
1.40002
1.39998
1.40003
1.40003
1.39997
1.40011
1.40011
1.40003
1.40032
1.4004
1.40035
1.40103
1.40183
1.40285
1.40589
1.4113
1.4191
1.43062
1.44345
1.45102
1.45023
1.44283
1.43029
1.41371
1.39637
1.3814
1.36944
1.36143
1.35994
1.36548
1.37496
1.38386
1.3871
1.37908
1.35541
1.31561
1.26434
1.20961
1.15875
1.1163
1.08592
1.073
1.08327
1.1177
1.17021
1.23056
1.28826
1.33449
1.3634
1.374
1.3707
1.36108
1.35253
1.35
1.35541
1.36818
1.38602
1.40565
1.42356
1.4369
1.44412
1.44524
1.44155
1.43496
1.42733
1.42004
1.41387
1.4091
1.40566
1.40333
1.40185
1.40095
1.40053
1.40023
1.40007
1.40001
1.39998
1.39998
1.39998
1.39999
1.39999
1.4
1.4
1.4
1.4
1.4
1.4
1.4
1.4
1.40001
1.4
1.40001
1.40001
1.4
1.40001
1.4
1.4
1.40001
1.4
1.4
1.40003
1.39998
1.40002
1.40006
1.39996
1.40008
1.40016
1.39999
1.40027
1.40048
1.40032
1.40097
1.40207
1.40315
1.40631
1.4125
1.42098
1.43252
1.44512
1.45183
1.4492
1.44012
1.42701
1.41013
1.39228
1.37769
1.36713
1.3605
1.36051
1.368
1.37838
1.3853
1.3833
1.36714
1.3324
1.27861
1.21163
1.14151
1.07706
1.02326
0.98432
0.96758
0.981074
1.02621
1.09469
1.17287
1.24782
1.30968
1.35192
1.37244
1.37475
1.36666
1.35684
1.35178
1.3546
1.3654
1.38214
1.40155
1.42001
1.43438
1.44281
1.44502
1.44212
1.43597
1.42847
1.42111
1.41476
1.40979
1.40616
1.40368
1.40208
1.4011
1.40063
1.40029
1.40011
1.40003
1.4
1.39999
1.39999
1.39999
1.39999
1.4
1.4
1.4
1.4
1.4
1.4
1.4
1.4
1.40001
1.4
1.40001
1.40001
1.4
1.40001
1.40001
1.4
1.40001
1.40001
1.39999
1.40003
1.39999
1.39999
1.40008
1.39997
1.40003
1.40019
1.39999
1.40017
1.40054
1.40034
1.40084
1.40225
1.40353
1.40667
1.41352
1.42279
1.43419
1.44627
1.45239
1.44829
1.43748
1.4239
1.40721
1.38892
1.37441
1.36538
1.36019
1.36119
1.37008
1.38079
1.38466
1.37641
1.35198
1.30652
1.23851
1.15454
1.06717
0.987478
0.921534
0.874423
0.855056
0.872824
0.929178
1.01415
1.11101
1.20387
1.28153
1.33716
1.3681
1.37703
1.37158
1.36133
1.35421
1.35462
1.36342
1.37895
1.39798
1.41677
1.43197
1.44144
1.44463
1.44248
1.43676
1.42943
1.42203
1.41555
1.41041
1.40662
1.404
1.4023
1.40125
1.40072
1.40035
1.40015
1.40005
1.40001
1.4
1.39999
1.39999
1.4
1.4
1.4
1.4
1.4
1.4
1.4
1.40001
1.4
1.40001
1.4
1.40001
1.40001
1.4
1.40001
1.40001
1.4
1.40001
1.40001
1.39999
1.40002
1.40001
1.39998
1.40007
1.4
1.39998
1.4002
1.40004
1.40005
1.40054
1.40043
1.40071
1.40232
1.40397
1.40703
1.41429
1.42444
1.43572
1.44698
1.45265
1.44764
1.43514
1.4209
1.40486
1.38645
1.37153
1.3639
1.36041
1.36183
1.37134
1.38205
1.38243
1.36747
1.33521
1.28013
1.19841
1.09688
0.991216
0.895961
0.819205
0.766943
0.748003
0.7709
0.836803
0.935805
1.04962
1.15949
1.25226
1.32061
1.36168
1.37756
1.3755
1.36558
1.35694
1.3552
1.36212
1.3764
1.39494
1.41391
1.42975
1.44008
1.44413
1.44265
1.43735
1.43019
1.4228
1.41623
1.41095
1.40702
1.4043
1.4025
1.40138
1.4008
1.4004
1.40019
1.40008
1.40003
1.40001
1.4
1.4
1.4
1.4
1.4
1.4
1.4
1.4
1.4
1.40001
1.4
1.40001
1.4
1.40001
1.40001
1.4
1.40001
1.4
1.4
1.4
1.40001
1.4
1.40001
1.40002
1.39997
1.40005
1.40003
1.39995
1.40016
1.4001
1.39997
1.40046
1.40055
1.40064
1.40226
1.40438
1.40747
1.4148
1.42577
1.43716
1.44742
1.45255
1.44725
1.43338
1.41804
1.40282
1.38495
1.36916
1.36236
1.36095
1.36246
1.37153
1.38219
1.37946
1.35777
1.31817
1.25512
1.16169
1.04395
0.920937
0.811723
0.727531
0.675013
0.660351
0.688471
0.760233
0.868064
0.994378
1.11831
1.22425
1.30387
1.35412
1.37667
1.3783
1.36927
1.35963
1.35612
1.36132
1.37442
1.39242
1.41144
1.42777
1.43881
1.44358
1.44268
1.43775
1.43077
1.42341
1.41678
1.41139
1.40737
1.40455
1.40268
1.40151
1.40088
1.40046
1.40022
1.4001
1.40004
1.40002
1.40001
1.4
1.4
1.4
1.4
1.4
1.4
1.4
1.4
1.4
1.40001
1.4
1.40001
1.4
1.40001
1.4
1.40001
1.4
1.4
1.4
1.40001
1.4
1.4
1.40002
1.39998
1.40002
1.40006
1.39995
1.40009
1.40015
1.39995
1.40032
1.40063
1.40067
1.4021
1.40464
1.40797
1.41514
1.42665
1.43848
1.44783
1.45213
1.44696
1.4324
1.41557
1.40078
1.38431
1.36765
1.36053
1.36145
1.36331
1.3707
1.38114
1.37664
1.34877
1.30192
1.23272
1.13142
1.00177
0.865053
0.745151
0.657374
0.609034
0.60156
0.634024
0.707053
0.81741
0.950362
1.08393
1.19989
1.2885
1.34636
1.37477
1.38
1.3722
1.36201
1.35711
1.36088
1.37291
1.3904
1.40939
1.42608
1.43767
1.44301
1.44259
1.43799
1.43118
1.42386
1.41719
1.41175
1.40765
1.40476
1.40284
1.40162
1.40095
1.40051
1.40026
1.40013
1.40006
1.40003
1.40001
1.40001
1.4
1.4
1.4
1.40001
1.4
1.40001
1.4
1.4
1.40001
1.4
1.4
1.4
1.40001
1.4
1.40001
1.40001
1.4
1.40001
1.4
1.40001
1.4
1.40002
1.4
1.4
1.40005
1.39998
1.40003
1.40014
1.39999
1.40018
1.4006
1.40077
1.40196
1.40469
1.40846
1.41545
1.42705
1.43949
1.44837
1.4516
1.44654
1.43215
1.4139
1.39861
1.38406
1.36735
1.35855
1.36129
1.36454
1.36936
1.37872
1.37437
1.34207
1.28775
1.21334
1.10884
0.97431
0.830412
0.704195
0.615403
0.572864
0.573001
0.608208
0.67858
0.785989
0.920041
1.05867
1.18114
1.27594
1.33932
1.37233
1.3807
1.37425
1.36389
1.358
1.36063
1.3718
1.38883
1.40778
1.4247
1.43669
1.44247
1.44243
1.43809
1.43142
1.42416
1.41748
1.412
1.40786
1.40492
1.40296
1.40171
1.40101
1.40055
1.40029
1.40015
1.40008
1.40004
1.40002
1.40001
1.40001
1.40001
1.40001
1.40001
1.4
1.40001
1.40001
1.40001
1.4
1.40001
1.40001
1.4
1.40001
1.4
1.40001
1.40001
1.4
1.40001
1.4
1.4
1.40001
1.40001
1.40001
1.4
1.40002
1.4
1.4
1.40008
1.40003
1.4001
1.40048
1.40086
1.40191
1.40455
1.40877
1.41579
1.42712
1.44
1.44902
1.45129
1.44593
1.43231
1.41339
1.39662
1.38353
1.36827
1.35712
1.35991
1.36584
1.36852
1.37501
1.37217
1.33895
1.27787
1.19754
1.09262
0.960389
0.817433
0.690225
0.601836
0.563432
0.568632
0.604867
0.670927
0.772456
0.903595
1.04332
1.16894
1.26718
1.3338
1.36982
1.38056
1.37535
1.36511
1.35863
1.36048
1.37102
1.38771
1.40659
1.42367
1.43593
1.442
1.44221
1.43806
1.4315
1.42429
1.41764
1.41215
1.40799
1.40504
1.40305
1.40179
1.40105
1.40059
1.40032
1.40017
1.40009
1.40005
1.40003
1.40002
1.40001
1.40001
1.40001
1.40001
1.40001
1.40001
1.40001
1.4
1.40001
1.4
1.40001
1.4
1.40001
1.4
1.4
1.40001
1.4
1.40001
1.40001
1.4
1.40001
1.4
1.4
1.40001
1.4
1.4
1.40001
1.40001
1.40003
1.40009
1.40033
1.40084
1.40194
1.40435
1.40878
1.41606
1.42706
1.43999
1.44953
1.45143
1.44539
1.43243
1.41396
1.39552
1.38239
1.36966
1.35716
1.35749
1.36615
1.36898
1.37109
1.36892
1.33911
1.27494
1.18799
1.08161
0.954639
0.818794
0.696519
0.610979
0.574365
0.580766
0.616714
0.679304
0.775007
0.901119
1.03852
1.16391
1.26272
1.33031
1.36767
1.3798
1.37556
1.36561
1.35891
1.36034
1.37052
1.38701
1.40585
1.423
1.43539
1.44161
1.44195
1.43791
1.43143
1.42428
1.41766
1.4122
1.40805
1.4051
1.40311
1.40184
1.40108
1.40062
1.40034
1.40019
1.4001
1.40006
1.40003
1.40002
1.40001
1.40001
1.40001
1.40001
1.40001
1.40001
1.40001
1.4
1.40001
1.4
1.40001
1.4
1.40001
1.4
1.4
1.40001
1.4
1.40001
1.40001
1.4
1.40001
1.40001
1.39999
1.40002
1.39999
1.39998
1.40002
1.39997
1.39997
1.4001
1.40024
1.40071
1.40195
1.40421
1.40852
1.41606
1.42697
1.43962
1.44963
1.45193
1.44536
1.43243
1.41499
1.39586
1.38116
1.3704
1.35881
1.35538
1.36439
1.3702
1.36896
1.3646
1.34014
1.27947
1.18906
1.07923
0.95523
0.827625
0.715097
0.636679
0.601688
0.606689
0.641398
0.701797
0.792741
0.912838
1.04507
1.16677
1.26306
1.32917
1.36613
1.37863
1.37496
1.36539
1.35879
1.36017
1.37028
1.38672
1.40556
1.42272
1.43511
1.44133
1.44168
1.43766
1.43122
1.42412
1.41756
1.41214
1.40803
1.40511
1.40314
1.40187
1.4011
1.40064
1.40036
1.4002
1.40012
1.40007
1.40004
1.40002
1.40001
1.40001
1.40001
1.40001
1.40001
1.40001
1.40001
1.4
1.40001
1.40001
1.4
1.40001
1.40001
1.4
1.4
1.40001
1.4
1.4
1.40001
1.4
1.40001
1.40001
1.39999
1.40001
1.4
1.39995
1.40001
1.39997
1.3999
1.40007
1.40021
1.40055
1.40184
1.40414
1.40816
1.41567
1.42675
1.43918
1.44929
1.4524
1.44607
1.43273
1.4159
1.39735
1.38099
1.37009
1.36086
1.35516
1.3611
1.37007
1.36958
1.36166
1.34001
1.28776
1.20178
1.09159
0.968773
0.848112
0.74786
0.67949
0.646413
0.6486
0.680839
0.738693
0.824587
0.937426
1.06216
1.17728
1.26824
1.33054
1.36539
1.3772
1.37367