/*--------------------------------*- C++ -*----------------------------------*\
  =========                 |
  \\      /  F ield         | OpenFOAM: The Open Source CFD Toolbox
   \\    /   O peration     | Website:  https://openfoam.org
    \\  /    A nd           | Version:  6
     \\/     M anipulation  |
\*---------------------------------------------------------------------------*/
FoamFile
{
    version     2.0;
    format      ascii;
    class       volScalarField;
    location    "3.1";
    object      mag(U);
}
// * * * * * * * * * * * * * * * * * * * * * * * * * * * * * * * * * * * * * //

dimensions      [0 1 -1 0 0 0 0];

internalField   nonuniform List<scalar> 
10000
(
0.99997
0.99997
0.99997
0.99997
0.99997
0.99997
0.99997
0.99997
0.99997
0.99997
0.99997
0.99997
0.99997
0.99997
0.99997
0.99997
0.99997
0.99997
0.99997
0.99997
0.99997
0.99997
0.99997
0.99997
0.99997
0.99997
0.99997
0.99997
0.99997
0.99997
0.99997
0.99997
0.99997
0.99997
0.99997
0.99997
0.99997
0.99997
0.99997
0.99997
0.99997
0.99997
0.99997
0.99997
0.99997
0.99997
0.999971
0.999971
0.999971
0.999971
0.99997
0.99997
0.999968
0.999966
0.999964
0.99996
0.999957
0.999954
0.999951
0.999949
0.999948
0.999949
0.999951
0.999956
0.999962
0.999967
0.999975
0.99998
0.999985
0.999989
0.999991
0.999991
0.999991
0.999989
0.999987
0.999983
0.999981
0.999978
0.999976
0.999974
0.999973
0.999971
0.999971
0.999971
0.99997
0.99997
0.99997
0.99997
0.99997
0.99997
0.99997
0.99997
0.99997
0.99997
0.99997
0.99997
0.99997
0.99997
0.99997
0.99997
0.99997
0.99997
0.99997
0.99997
0.99997
0.99997
0.99997
0.99997
0.99997
0.99997
0.99997
0.99997
0.99997
0.99997
0.99997
0.99997
0.99997
0.99997
0.99997
0.99997
0.99997
0.99997
0.99997
0.99997
0.99997
0.99997
0.99997
0.99997
0.99997
0.99997
0.99997
0.99997
0.99997
0.99997
0.99997
0.99997
0.99997
0.99997
0.99997
0.99997
0.99997
0.99997
0.99997
0.99997
0.99997
0.999971
0.999971
0.999971
0.999972
0.999972
0.999972
0.99997
0.999969
0.999966
0.999961
0.999957
0.999951
0.999947
0.999943
0.99994
0.999939
0.999941
0.999945
0.99995
0.999958
0.999968
0.999977
0.999985
0.999992
0.999998
1
1
1
0.999999
0.999995
0.999991
0.999987
0.999983
0.999979
0.999977
0.999974
0.999972
0.999971
0.999971
0.99997
0.99997
0.99997
0.99997
0.99997
0.99997
0.99997
0.99997
0.99997
0.99997
0.99997
0.99997
0.99997
0.99997
0.99997
0.99997
0.99997
0.99997
0.99997
0.99997
0.99997
0.99997
0.99997
0.99997
0.99997
0.99997
0.99997
0.99997
0.99997
0.99997
0.99997
0.99997
0.99997
0.99997
0.99997
0.99997
0.99997
0.99997
0.99997
0.99997
0.99997
0.99997
0.99997
0.99997
0.99997
0.99997
0.99997
0.99997
0.99997
0.99997
0.99997
0.99997
0.99997
0.99997
0.99997
0.99997
0.99997
0.99997
0.99997
0.99997
0.99997
0.999971
0.999972
0.999973
0.999974
0.999974
0.999973
0.999971
0.999968
0.999964
0.999959
0.999952
0.999945
0.999938
0.999932
0.999928
0.999928
0.99993
0.999935
0.999945
0.999957
0.999969
0.999982
0.999994
1
1.00001
1.00002
1.00002
1.00002
1.00001
1.00001
1
0.999995
0.999989
0.999983
0.99998
0.999976
0.999974
0.999972
0.999971
0.99997
0.99997
0.99997
0.99997
0.99997
0.99997
0.99997
0.99997
0.99997
0.99997
0.99997
0.99997
0.99997
0.99997
0.99997
0.99997
0.99997
0.99997
0.99997
0.99997
0.99997
0.99997
0.99997
0.99997
0.99997
0.99997
0.99997
0.99997
0.99997
0.99997
0.99997
0.99997
0.99997
0.99997
0.99997
0.99997
0.99997
0.99997
0.99997
0.99997
0.99997
0.99997
0.99997
0.99997
0.99997
0.99997
0.99997
0.99997
0.99997
0.99997
0.99997
0.99997
0.99997
0.99997
0.99997
0.99997
0.99997
0.99997
0.99997
0.999971
0.999971
0.999973
0.999973
0.999975
0.999975
0.999976
0.999975
0.999973
0.99997
0.999964
0.999956
0.999946
0.999937
0.999927
0.999919
0.999915
0.999914
0.999918
0.999927
0.99994
0.999956
0.999974
0.999992
1.00001
1.00002
1.00003
1.00004
1.00004
1.00004
1.00003
1.00002
1.00002
1.00001
0.999998
0.99999
0.999985
0.999979
0.999976
0.999973
0.999972
0.99997
0.99997
0.99997
0.99997
0.99997
0.99997
0.99997
0.99997
0.99997
0.99997
0.99997
0.99997
0.99997
0.99997
0.99997
0.99997
0.99997
0.99997
0.99997
0.99997
0.99997
0.99997
0.99997
0.99997
0.99997
0.99997
0.99997
0.99997
0.99997
0.99997
0.99997
0.99997
0.99997
0.99997
0.99997
0.99997
0.99997
0.99997
0.99997
0.99997
0.99997
0.99997
0.99997
0.99997
0.99997
0.99997
0.99997
0.99997
0.99997
0.99997
0.99997
0.99997
0.99997
0.99997
0.99997
0.99997
0.99997
0.99997
0.99997
0.999971
0.999972
0.999974
0.999975
0.999977
0.999979
0.999979
0.999979
0.999976
0.999971
0.999963
0.999954
0.999941
0.999928
0.999915
0.999904
0.999899
0.9999
0.999906
0.99992
0.999937
0.999961
0.999986
1.00001
1.00003
1.00005
1.00007
1.00007
1.00007
1.00007
1.00006
1.00005
1.00004
1.00002
1.00001
1
0.99999
0.999984
0.999978
0.999975
0.999973
0.999971
0.99997
0.99997
0.99997
0.99997
0.99997
0.99997
0.99997
0.99997
0.99997
0.99997
0.99997
0.99997
0.99997
0.99997
0.99997
0.99997
0.99997
0.99997
0.99997
0.99997
0.99997
0.99997
0.99997
0.99997
0.99997
0.99997
0.99997
0.99997
0.99997
0.99997
0.99997
0.99997
0.99997
0.99997
0.99997
0.99997
0.99997
0.99997
0.99997
0.99997
0.99997
0.99997
0.99997
0.99997
0.99997
0.99997
0.99997
0.99997
0.99997
0.99997
0.99997
0.99997
0.99997
0.99997
0.999969
0.99997
0.99997
0.99997
0.999971
0.999974
0.999975
0.999978
0.999981
0.999983
0.999985
0.999984
0.999981
0.999975
0.999964
0.999951
0.999935
0.999917
0.999902
0.99989
0.999884
0.999887
0.999899
0.999918
0.999945
0.999977
1.00001
1.00005
1.00008
1.0001
1.00011
1.00012
1.00012
1.00011
1.0001
1.00008
1.00006
1.00004
1.00003
1.00001
0.999999
0.999988
0.999982
0.999977
0.999974
0.999971
0.99997
0.999969
0.999969
0.999969
0.99997
0.99997
0.99997
0.99997
0.99997
0.99997
0.99997
0.99997
0.99997
0.99997
0.99997
0.99997
0.99997
0.99997
0.99997
0.99997
0.99997
0.99997
0.99997
0.99997
0.99997
0.99997
0.99997
0.99997
0.99997
0.99997
0.99997
0.99997
0.99997
0.99997
0.99997
0.99997
0.99997
0.99997
0.99997
0.99997
0.99997
0.99997
0.99997
0.99997
0.99997
0.99997
0.99997
0.99997
0.99997
0.99997
0.99997
0.99997
0.99997
0.999969
0.999969
0.99997
0.99997
0.999971
0.999973
0.999975
0.999978
0.999982
0.999987
0.99999
0.999992
0.999992
0.999988
0.99998
0.999966
0.999948
0.999928
0.999908
0.99989
0.999877
0.999874
0.999882
0.999902
0.999933
0.999971
1.00002
1.00006
1.00011
1.00015
1.00017
1.00019
1.0002
1.00019
1.00017
1.00015
1.00013
1.0001
1.00007
1.00005
1.00003
1.00001
0.999996
0.999986
0.999979
0.999974
0.999972
0.99997
0.999969
0.999969
0.999969
0.999969
0.99997
0.99997
0.99997
0.99997
0.99997
0.99997
0.99997
0.99997
0.99997
0.99997
0.99997
0.99997
0.99997
0.99997
0.99997
0.99997
0.99997
0.99997
0.99997
0.99997
0.99997
0.99997
0.99997
0.99997
0.99997
0.99997
0.99997
0.99997
0.99997
0.99997
0.99997
0.99997
0.99997
0.99997
0.99997
0.99997
0.99997
0.99997
0.99997
0.99997
0.99997
0.99997
0.99997
0.99997
0.99997
0.99997
0.99997
0.999969
0.999969
0.99997
0.99997
0.99997
0.999972
0.999974
0.999977
0.999982
0.999987
0.999994
0.999999
1
1
0.999998
0.999987
0.99997
0.999948
0.999923
0.999899
0.999881
0.999872
0.999874
0.999893
0.999925
0.999973
1.00003
1.00009
1.00016
1.00022
1.00026
1.00029
1.00031
1.00031
1.00029
1.00027
1.00023
1.00019
1.00015
1.00011
1.00008
1.00005
1.00002
1
0.999991
0.999981
0.999975
0.999971
0.999969
0.999968
0.999969
0.999968
0.999969
0.999969
0.99997
0.99997
0.99997
0.99997
0.99997
0.99997
0.99997
0.99997
0.99997
0.99997
0.99997
0.99997
0.99997
0.99997
0.99997
0.99997
0.99997
0.99997
0.99997
0.99997
0.99997
0.99997
0.99997
0.99997
0.99997
0.99997
0.99997
0.99997
0.99997
0.99997
0.99997
0.99997
0.99997
0.99997
0.99997
0.99997
0.99997
0.99997
0.99997
0.99997
0.99997
0.99997
0.99997
0.99997
0.99997
0.999969
0.999969
0.999969
0.999969
0.99997
0.99997
0.999973
0.999976
0.99998
0.999986
0.999994
1
1.00001
1.00002
1.00002
1.00001
0.999996
0.999975
0.999949
0.99992
0.999895
0.999879
0.999877
0.999893
0.99993
0.999986
1.00006
1.00015
1.00024
1.00032
1.0004
1.00045
1.00049
1.0005
1.00049
1.00045
1.00041
1.00035
1.00029
1.00023
1.00017
1.00012
1.00008
1.00004
1.00002
0.999996
0.999984
0.999976
0.999971
0.999968
0.999968
0.999967
0.999967
0.999968
0.999968
0.999968
0.99997
0.99997
0.99997
0.99997
0.99997
0.99997
0.99997
0.99997
0.99997
0.99997
0.99997
0.99997
0.99997
0.99997
0.99997
0.99997
0.99997
0.99997
0.99997
0.99997
0.99997
0.99997
0.99997
0.99997
0.99997
0.99997
0.99997
0.99997
0.99997
0.99997
0.99997
0.99997
0.99997
0.99997
0.99997
0.99997
0.99997
0.99997
0.99997
0.99997
0.99997
0.99997
0.99997
0.999969
0.999969
0.999969
0.999968
0.999969
0.999969
0.99997
0.999973
0.999978
0.999984
0.999993
1
1.00002
1.00003
1.00003
1.00003
1.00002
1.00001
0.999981
0.999949
0.999918
0.999896
0.999887
0.9999
0.999939
1.00001
1.0001
1.00022
1.00035
1.00048
1.0006
1.0007
1.00076
1.00079
1.00079
1.00075
1.00069
1.00061
1.00052
1.00042
1.00033
1.00025
1.00018
1.00011
1.00007
1.00003
1
0.999987
0.999976
0.999969
0.999967
0.999966
0.999966
0.999966
0.999966
0.999968
0.999968
0.999968
0.99997
0.99997
0.99997
0.99997
0.99997
0.99997
0.99997
0.99997
0.99997
0.99997
0.99997
0.99997
0.99997
0.99997
0.99997
0.99997
0.99997
0.99997
0.99997
0.99997
0.99997
0.99997
0.99997
0.99997
0.99997
0.99997
0.99997
0.99997
0.99997
0.99997
0.99997
0.99997
0.99997
0.99997
0.99997
0.99997
0.99997
0.99997
0.99997
0.99997
0.99997
0.999969
0.999969
0.999969
0.999968
0.999968
0.999968
0.999968
0.999971
0.999974
0.999979
0.999988
1
1.00001
1.00003
1.00004
1.00005
1.00005
1.00004
1.00002
0.999983
0.999948
0.999916
0.999899
0.999906
0.999945
1.00002
1.00014
1.00029
1.00047
1.00067
1.00086
1.00103
1.00116
1.00124
1.00127
1.00124
1.00117
1.00105
1.00092
1.00077
1.00062
1.00048
1.00036
1.00025
1.00017
1.0001
1.00005
1.00001
0.99999
0.999975
0.999968
0.999964
0.999963
0.999963
0.999964
0.999966
0.999966
0.999968
0.999968
0.999968
0.99997
0.99997
0.99997
0.99997
0.99997
0.99997
0.99997
0.99997
0.99997
0.99997
0.99997
0.99997
0.99997
0.99997
0.99997
0.99997
0.99997
0.99997
0.99997
0.99997
0.99997
0.99997
0.99997
0.99997
0.99997
0.99997
0.99997
0.99997
0.99997
0.99997
0.99997
0.99997
0.99997
0.99997
0.99997
0.99997
0.99997
0.99997
0.99997
0.99997
0.999969
0.999968
0.999968
0.999968
0.999967
0.999967
0.999967
0.99997
0.999975
0.999982
0.999993
1.00001
1.00003
1.00005
1.00006
1.00007
1.00006
1.00005
1.00002
0.999976
0.999935
0.999905
0.999901
0.999933
1.00001
1.00015
1.00034
1.00058
1.00085
1.00114
1.00142
1.00166
1.00185
1.00195
1.00198
1.00191
1.00178
1.00159
1.00138
1.00114
1.00092
1.00071
1.00052
1.00037
1.00024
1.00015
1.00008
1.00003
0.999993
0.999974
0.999964
0.999959
0.999959
0.99996
0.999961
0.999963
0.999965
0.999966
0.999968
0.999968
0.999968
0.99997
0.99997
0.99997
0.99997
0.99997
0.99997
0.99997
0.99997
0.99997
0.99997
0.99997
0.99997
0.99997
0.99997
0.99997
0.99997
0.99997
0.99997
0.99997
0.99997
0.99997
0.99997
0.99997
0.99997
0.99997
0.99997
0.99997
0.99997
0.99997
0.99997
0.99997
0.99997
0.99997
0.99997
0.99997
0.99997
0.99997
0.99997
0.999969
0.999969
0.999969
0.999967
0.999967
0.999966
0.999966
0.999966
0.999969
0.999975
0.999984
0.999999
1.00002
1.00004
1.00006
1.00008
1.00008
1.00007
1.00004
0.999998
0.999945
0.999897
0.999871
0.999884
0.999953
1.00009
1.0003
1.00059
1.00095
1.00136
1.00178
1.00219
1.00255
1.00282
1.00298
1.003
1.0029
1.00268
1.00239
1.00205
1.00169
1.00135
1.00103
1.00076
1.00053
1.00035
1.00021
1.00011
1.00004
0.999999
0.999972
0.999958
0.999953
0.999953
0.999955
0.999958
0.99996
0.999963
0.999965
0.999967
0.999968
0.999968
0.99997
0.99997
0.99997
0.99997
0.99997
0.99997
0.99997
0.99997
0.99997
0.99997
0.99997
0.99997
0.99997
0.99997
0.99997
0.99997
0.99997
0.99997
0.99997
0.99997
0.99997
0.99997
0.99997
0.99997
0.99997
0.99997
0.99997
0.99997
0.99997
0.99997
0.99997
0.99997
0.99997
0.99997
0.99997
0.99997
0.99997
0.999969
0.999969
0.999969
0.999968
0.999966
0.999966
0.999964
0.999962
0.999965
0.999966
0.999973
0.999985
1
1.00003
1.00005
1.00007
1.00009
1.00008
1.00006
1.00001
0.99994
0.999867
0.999807
0.999784
0.999818
0.99993
1.00014
1.00045
1.00086
1.00137
1.00195
1.00257
1.00317
1.0037
1.00411
1.00436
1.00441
1.00427
1.00396
1.00353
1.00302
1.00249
1.00197
1.0015
1.0011
1.00076
1.0005
1.00031
1.00016
1.00007
1.00001
0.99997
0.999953
0.999945
0.999945
0.999948
0.999952
0.999956
0.99996
0.999963
0.999966
0.999967
0.999968
0.999968
0.99997
0.99997
0.99997
0.99997
0.99997
0.99997
0.99997
0.99997
0.99997
0.99997
0.99997
0.99997
0.99997
0.99997
0.99997
0.99997
0.99997
0.99997
0.99997
0.99997
0.99997
0.99997
0.99997
0.99997
0.99997
0.99997
0.99997
0.99997
0.99997
0.99997
0.99997
0.99997
0.99997
0.99997
0.99997
0.99997
0.999969
0.999969
0.999968
0.999967
0.999965
0.999964
0.999961
0.99996
0.99996
0.999963
0.99997
0.999984
1.00001
1.00003
1.00006
1.00008
1.00008
1.00006
1.00001
0.99992
0.999813
0.999707
0.999623
0.999591
0.99964
0.999792
1.00007
1.00048
1.00103
1.00172
1.00252
1.00338
1.00424
1.00504
1.00568
1.0061
1.00625
1.00611
1.00571
1.00512
1.00439
1.00362
1.00287
1.00218
1.00159
1.00111
1.00073
1.00044
1.00024
1.00011
1.00002
0.999969
0.999944
0.999934
0.999934
0.999938
0.999945
0.999951
0.999957
0.99996
0.999963
0.999966
0.999967
0.999968
0.999969
0.99997
0.99997
0.99997
0.99997
0.99997
0.99997
0.99997
0.99997
0.99997
0.99997
0.99997
0.99997
0.99997
0.99997
0.99997
0.99997
0.99997
0.99997
0.99997
0.99997
0.99997
0.99997
0.99997
0.99997
0.99997
0.99997
0.99997
0.99997
0.99997
0.99997
0.99997
0.99997
0.99997
0.99997
0.999969
0.999969
0.999968
0.999967
0.999966
0.999963
0.999961
0.999958
0.999956
0.999954
0.999957
0.999966
0.999981
1
1.00003
1.00006
1.00006
1.00005
0.99999
0.999888
0.999743
0.999574
0.999408
0.999277
0.999213
0.999248
0.999407
0.999718
1.0002
1.00088
1.00174
1.00277
1.00393
1.00515
1.00632
1.00734
1.00808
1.00845
1.00841
1.00798
1.00722
1.00626
1.00519
1.00413
1.00314
1.0023
1.0016
1.00105
1.00065
1.00036
1.00017
1.00004
0.999971
0.999935
0.999922
0.999921
0.999927
0.999936
0.999944
0.999952
0.999958
0.999962
0.999964
0.999966
0.999967
0.999968
0.99997
0.99997
0.99997
0.99997
0.99997
0.99997
0.99997
0.99997
0.99997
0.99997
0.99997
0.99997
0.99997
0.99997
0.99997
0.99997
0.99997
0.99997
0.99997
0.99997
0.99997
0.99997
0.99997
0.99997
0.99997
0.99997
0.99997
0.99997
0.99997
0.99997
0.99997
0.99997
0.99997
0.999969
0.999969
0.999968
0.999968
0.999966
0.999964
0.999961
0.999958
0.999953
0.999949
0.999946
0.999949
0.999957
0.999972
0.999996
1.00002
1.00003
1.00002
0.999962
0.999844
0.999662
0.999423
0.999156
0.998891
0.998668
0.998519
0.998474
0.998562
0.998818
0.999281
0.999989
1.00097
1.00223
1.00373
1.00539
1.0071
1.00869
1.00997
1.01079
1.01104
1.01071
1.00988
1.00868
1.00728
1.00583
1.00448
1.00328
1.0023
1.00152
1.00094
1.00053
1.00026
1.00008
0.99998
0.999928
0.999907
0.999906
0.999913
0.999924
0.999935
0.999945
0.999953
0.999958
0.999962
0.999965
0.999967
0.999968
0.999969
0.99997
0.99997
0.99997
0.99997
0.99997
0.99997
0.99997
0.99997
0.99997
0.99997
0.99997
0.99997
0.99997
0.99997
0.99997
0.99997
0.99997
0.99997
0.99997
0.99997
0.99997
0.99997
0.99997
0.99997
0.99997
0.99997
0.99997
0.99997
0.99997
0.99997
0.99997
0.99997
0.999969
0.999969
0.999968
0.999967
0.999966
0.999962
0.999957
0.999953
0.999946
0.999939
0.999935
0.999936
0.999943
0.999957
0.999976
0.999989
0.99998
0.999925
0.999798
0.999582
0.999275
0.998894
0.998471
0.998049
0.997657
0.997322
0.997067
0.996921
0.996934
0.997181
0.997745
0.998706
1.00011
1.00195
1.00415
1.00658
1.009
1.01115
1.01277
1.01364
1.0137
1.01298
1.01165
1.00994
1.00807
1.00626
1.00463
1.00327
1.00218
1.00137
1.00079
1.0004
1.00015
1
0.999925
0.999894
0.999888
0.999896
0.99991
0.999924
0.999937
0.999947
0.999954
0.99996
0.999963
0.999966
0.999967
0.999968
0.999969
0.99997
0.99997
0.99997
0.99997
0.99997
0.99997
0.99997
0.99997
0.99997
0.99997
0.99997
0.99997
0.99997
0.99997
0.99997
0.99997
0.99997
0.99997
0.99997
0.99997
0.99997
0.99997
0.99997
0.99997
0.99997
0.99997
0.99997
0.99997
0.99997
0.99997
0.99997
0.999969
0.999969
0.999968
0.999966
0.999963
0.999959
0.999954
0.999946
0.999937
0.999927
0.999921
0.999918
0.999922
0.999932
0.999939
0.99993
0.999878
0.99975
0.999515
0.99915
0.998657
0.998064
0.997413
0.996737
0.996051
0.995356
0.99466
0.993996
0.993446
0.993142
0.99325
0.993935
0.995322
0.997453
1.00028
1.00362
1.00721
1.01066
1.01357
1.01559
1.01649
1.01625
1.01504
1.01313
1.01087
1.00856
1.00641
1.00457
1.00309
1.00197
1.00116
1.00061
1.00025
1.00004
0.999931
0.999882
0.999869
0.999877
0.999894
0.999911
0.999927
0.999941
0.99995
0.999957
0.999961
0.999965
0.999967
0.999968
0.999969
0.99997
0.99997
0.99997
0.99997
0.99997
0.99997
0.99997
0.99997
0.99997
0.99997
0.99997
0.99997
0.99997
0.99997
0.99997
0.99997
0.99997
0.99997
0.99997
0.99997
0.99997
0.99997
0.99997
0.99997
0.99997
0.99997
0.99997
0.99997
0.99997
0.99997
0.999969
0.999969
0.999968
0.999967
0.999965
0.999961
0.999956
0.999949
0.999937
0.999925
0.999912
0.999901
0.999894
0.999891
0.99989
0.999877
0.999828
0.999706
0.999465
0.999063
0.998478
0.997723
0.996832
0.995846
0.994778
0.993597
0.992263
0.990759
0.989134
0.987526
0.986168
0.985357
0.985393
0.986514
0.98884
0.992345
0.996841
1.00197
1.00725
1.01208
1.01591
1.01832
1.01915
1.0185
1.0167
1.01418
1.01139
1.00868
1.00628
1.0043
1.00278
1.00167
1.00091
1.00041
1.00011
0.999952
0.999876
0.999852
0.999857
0.999875
0.999896
0.999915
0.999932
0.999944
0.999953
0.999959
0.999964
0.999966
0.999967
0.999968
0.999969
0.99997
0.99997
0.99997
0.99997
0.99997
0.99997
0.99997
0.99997
0.99997
0.99997
0.99997
0.99997
0.99997
0.99997
0.99997
0.99997
0.99997
0.99997
0.99997
0.99997
0.99997
0.99997
0.99997
0.99997
0.99997
0.99997
0.99997
0.99997
0.99997
0.999969
0.999969
0.999967
0.999966
0.999964
0.999958
0.999951
0.999941
0.999927
0.99991
0.999892
0.999876
0.999861
0.999847
0.999826
0.999779
0.999664
0.999433
0.999021
0.99838
0.997489
0.996376
0.99508
0.993623
0.991957
0.989981
0.987588
0.98474
0.981526
0.978181
0.975096
0.97276
0.971666
0.972209
0.974607
0.978865
0.984763
0.99186
0.999522
1.00698
1.01343
1.0182
1.0209
1.02149
1.02029
1.01782
1.0147
1.01143
1.00842
1.00587
1.00385
1.00237
1.00133
1.00065
1.00023
0.999995
0.999881
0.999839
0.999838
0.999856
0.99988
0.999903
0.999923
0.999938
0.999949
0.999957
0.999962
0.999965
0.999967
0.999968
0.999969
0.99997
0.99997
0.99997
0.99997
0.99997
0.99997
0.99997
0.99997
0.99997
0.99997
0.99997
0.99997
0.99997
0.99997
0.99997
0.99997
0.99997
0.99997
0.99997
0.99997
0.99997
0.99997
0.99997
0.99997
0.99997
0.99997
0.99997
0.99997
0.99997
0.999969
0.999968
0.999967
0.999965
0.999962
0.999955
0.999945
0.999932
0.999915
0.999892
0.999868
0.999843
0.999817
0.999786
0.999735
0.99963
0.999418
0.999024
0.99837
0.997397
0.9961
0.994521
0.992694
0.99058
0.98803
0.98483
0.980799
0.975892
0.970273
0.964341
0.958713
0.954139
0.951371
0.951006
0.953379
0.958512
0.966118
0.97564
0.986283
0.997078
1.00698
1.01503
1.02053
1.02324
1.02336
1.02145
1.01829
1.01461
1.011
1.00781
1.00523
1.00328
1.0019
1.00098
1.0004
1.00007
0.999903
0.999833
0.999821
0.999836
0.999862
0.999889
0.999913
0.999931
0.999944
0.999953
0.999959
0.999964
0.999966
0.999967
0.999969
0.999969
0.99997
0.99997
0.99997
0.99997
0.99997
0.99997
0.99997
0.99997
0.99997
0.99997
0.99997
0.99997
0.99997
0.99997
0.99997
0.99997
0.99997
0.99997
0.99997
0.99997
0.99997
0.99997
0.99997
0.99997
0.99997
0.99997
0.99997
0.99997
0.999969
0.999968
0.999967
0.999964
0.999959
0.999952
0.99994
0.999922
0.9999
0.999871
0.999838
0.999802
0.99976
0.999703
0.999604
0.999417
0.999061
0.998438
0.997451
0.996043
0.994231
0.992074
0.989568
0.986554
0.982729
0.977737
0.971327
0.96348
0.954491
0.944989
0.9359
0.928321
0.923331
0.921779
0.924122
0.930368
0.940105
0.952586
0.966815
0.981618
0.995727
1.00791
1.01717
1.02295
1.02526
1.02461
1.0219
1.01807
1.01395
1.01013
1.00692
1.00444
1.00264
1.00142
1.00064
1.00019
0.999947
0.999839
0.999809
0.999819
0.999844
0.999874
0.999901
0.999923
0.999939
0.99995
0.999958
0.999963
0.999965
0.999967
0.999969
0.999969
0.99997
0.99997
0.99997
0.99997
0.99997
0.99997
0.99997
0.99997
0.99997
0.99997
0.99997
0.99997
0.99997
0.99997
0.99997
0.99997
0.99997
0.99997
0.99997
0.99997
0.99997
0.99997
0.99997
0.99997
0.99997
0.99997
0.99997
0.99997
0.999969
0.999968
0.999966
0.999962
0.999957
0.999947
0.999932
0.999911
0.999882
0.999846
0.999803
0.999751
0.999688
0.999593
0.999426
0.999118
0.998562
0.997629
0.996205
0.994251
0.991824
0.988979
0.985617
0.98139
0.975787
0.968303
0.958641
0.94685
0.933418
0.919284
0.905766
0.89441
0.886712
0.883822
0.886311
0.894109
0.90658
0.922683
0.94114
0.960551
0.979464
0.996447
1.01024
1.01997
1.02535
1.02678
1.02513
1.02156
1.01716
1.01278
1.00893
1.00586
1.00358
1.002
1.00098
1.00036
1.00002
0.999862
0.999805
0.999805
0.999829
0.99986
0.99989
0.999915
0.999934
0.999946
0.999955
0.999961
0.999965
0.999966
0.999968
0.999969
0.99997
0.99997
0.99997
0.99997
0.99997
0.99997
0.99997
0.99997
0.99997
0.99997
0.99997
0.99997
0.99997
0.99997
0.99997
0.99997
0.99997
0.99997
0.99997
0.99997
0.99997
0.99997
0.99997
0.99997
0.99997
0.99997
0.99997
0.999969
0.999969
0.999967
0.999965
0.999961
0.999953
0.999941
0.999924
0.999897
0.999861
0.999817
0.999761
0.999691
0.999596
0.999449
0.999188
0.998714
0.997889
0.996551
0.994581
0.99198
0.988853
0.985218
0.980789
0.974957
0.966974
0.956201
0.942328
0.925522
0.906524
0.886651
0.86773
0.851874
0.84111
0.836944
0.840038
0.850128
0.866196
0.886753
0.910135
0.934678
0.958791
0.980944
0.999726
1.01401
1.02322
1.02748
1.0276
1.02481
1.02045
1.01566
1.01122
1.00753
1.00472
1.00272
1.00141
1.0006
1.00014
0.999907
0.999814
0.999797
0.999815
0.999847
0.99988
0.999907
0.999928
0.999943
0.999953
0.99996
0.999964
0.999966
0.999967
0.999969
0.999969
0.99997
0.99997
0.99997
0.99997
0.99997
0.99997
0.99997
0.99997
0.99997
0.99997
0.99997
0.99997
0.99997
0.99997
0.99997
0.99997
0.99997
0.99997
0.99997
0.99997
0.99997
0.99997
0.99997
0.99997
0.99997
0.99997
0.999969
0.999968
0.999966
0.999964
0.999959
0.99995
0.999936
0.999914
0.999882
0.999839
0.999783
0.999713
0.99962
0.999485
0.999266
0.998877
0.998184
0.99701
0.995165
0.992545
0.989222
0.985344
0.980816
0.97507
0.96717
0.956137
0.941233
0.922173
0.899276
0.873577
0.846858
0.821582
0.800597
0.786618
0.781572
0.786134
0.79966
0.820506
0.846534
0.875567
0.905658
0.935133
0.962487
0.986313
1.00537
1.01883
1.0265
1.02899
1.02753
1.02361
1.01865
1.01371
1.00942
1.00605
1.0036
1.00194
1.0009
1.0003
0.999979
0.999839
0.999798
0.999807
0.999836
0.999869
0.999898
0.999922
0.999939
0.99995
0.999958
0.999963
0.999966
0.999967
0.999969
0.999969
0.99997
0.99997
0.99997
0.99997
0.99997
0.99997
0.99997
0.99997
0.99997
0.99997
0.99997
0.99997
0.99997
0.99997
0.99997
0.99997
0.99997
0.99997
0.99997
0.99997
0.99997
0.99997
0.99997
0.99997
0.99997
0.99997
0.999969
0.999968
0.999966
0.999962
0.999956
0.999947
0.99993
0.999903
0.999867
0.999815
0.999747
0.999661
0.999536
0.999348
0.999036
0.998483
0.997509
0.995899
0.993446
0.990095
0.986017
0.981369
0.975843
0.968486
0.958014
0.943247
0.923394
0.898218
0.868206
0.834715
0.800077
0.767553
0.740966
0.723929
0.718862
0.726313
0.744938
0.772102
0.804753
0.840102
0.875944
0.910627
0.942825
0.97131
0.994891
1.01258
1.02391
1.0292
1.02954
1.02647
1.02162
1.01633
1.01149
1.00756
1.00462
1.00259
1.00128
1.00051
1.00008
0.999881
0.999809
0.999805
0.999828
0.999861
0.999892
0.999916
0.999935
0.999948
0.999956
0.999962
0.999966
0.999967
0.999969
0.999969
0.99997
0.99997
0.99997
0.99997
0.99997
0.99997
0.99997
0.99997
0.99997
0.99997
0.99997
0.99997
0.99997
0.99997
0.99997
0.99997
0.99997
0.99997
0.99997
0.99997
0.99997
0.99997
0.99997
0.99997
0.99997
0.99997
0.999969
0.999968
0.999966
0.999962
0.999955
0.999942
0.999923
0.999893
0.99985
0.99979
0.999708
0.999601
0.999441
0.999184
0.998754
0.997995
0.996673
0.994537
0.991391
0.987266
0.982452
0.977045
0.9704
0.961115
0.947568
0.928438
0.902919
0.870832
0.832808
0.790541
0.746994
0.706441
0.673992
0.654459
0.650849
0.66333
0.689341
0.72473
0.765204
0.807306
0.84871
0.887995
0.924214
0.956499
0.983868
1.00532
1.02015
1.02836
1.03078
1.02889
1.02442
1.01897
1.01369
1.00921
1.00577
1.00334
1.00174
1.00077
1.00022
0.999946
0.999835
0.99981
0.999826
0.999855
0.999886
0.999912
0.999932
0.999946
0.999955
0.999962
0.999965
0.999966
0.999968
0.999969
0.99997
0.99997
0.99997
0.99997
0.99997
0.99997
0.99997
0.99997
0.99997
0.99997
0.99997
0.99997
0.99997
0.99997
0.99997
0.99997
0.99997
0.99997
0.99997
0.99997
0.99997
0.99997
0.99997
0.99997
0.99997
0.99997
0.999969
0.999967
0.999965
0.999961
0.999953
0.999939
0.999917
0.999881
0.999835
0.999765
0.999666
0.999536
0.999333
0.998991
0.998417
0.997406
0.995669
0.992922
0.989023
0.984141
0.978657
0.972514
0.964623
0.953097
0.936034
0.912043
0.880337
0.840766
0.794074
0.74226
0.688997
0.639795
0.601454
0.580432
0.580491
0.601018
0.637417
0.683273
0.732693
0.781585
0.827777
0.870424
0.909246
0.943943
0.973888
0.99817
1.01594
1.02685
1.03139
1.03086
1.02701
1.02157
1.01593
1.01096
1.00703
1.00419
1.00227
1.00108
1.00039
1.00004
0.999875
0.999825
0.999828
0.999853
0.999882
0.999909
0.99993
0.999944
0.999954
0.999961
0.999965
0.999966
0.999968
0.999969
0.99997
0.99997
0.99997
0.99997
0.99997
0.99997
0.99997
0.99997
0.99997
0.99997
0.99997
0.99997
0.99997
0.99997
0.99997
0.99997
0.99997
0.99997
0.99997
0.99997
0.99997
0.99997
0.99997
0.99997
0.99997
0.99997
0.999968
0.999967
0.999965
0.99996
0.999949
0.999936
0.999912
0.99987
0.999818
0.999741
0.999623
0.999467
0.999215
0.998771
0.99802
0.996717
0.994499
0.991071
0.986401
0.98083
0.974784
0.967929
0.958662
0.94464
0.923757
0.894629
0.85651
0.809253
0.753625
0.691883
0.628412
0.570116
0.525949
0.504777
0.511526
0.544117
0.594621
0.653418
0.712703
0.767906
0.81742
0.861438
0.900744
0.93586
0.966662
0.992419
1.01215
1.0252
1.03165
1.03249
1.02936
1.02407
1.01819
1.01278
1.00837
1.00511
1.00287
1.00144
1.0006
1.00015
0.999932
0.99985
0.999838
0.999856
0.999882
0.999907
0.999928
0.999942
0.999953
0.99996
0.999964
0.999966
0.999968
0.999969
0.999969
0.99997
0.99997
0.99997
0.99997
0.99997
0.99997
0.99997
0.99997
0.99997
0.99997
0.99997
0.99997
0.99997
0.99997
0.99997
0.99997
0.99997
0.99997
0.99997
0.99997
0.99997
0.99997
0.99997
0.99997
0.99997
0.999969
0.999967
0.999965
0.999959
0.999948
0.999932
0.999907
0.999861
0.999802
0.99972
0.99958
0.999393
0.999089
0.998524
0.997563
0.995931
0.99318
0.989024
0.983606
0.977468
0.970986
0.96344
0.952702
0.936042
0.911248
0.877019
0.832681
0.77805
0.713839
0.642439
0.568777
0.501056
0.450853
0.430869
0.4481
0.497695
0.56643
0.64059
0.710384
0.771013
0.821834
0.864584
0.901578
0.934502
0.963926
0.989368
1.00975
1.02406
1.03192
1.03394
1.03152
1.02645
1.0204
1.01461
1.00976
1.00609
1.00352
1.00185
1.00084
1.00028
1
0.999887
0.999854
0.999862
0.999884
0.999907
0.999927
0.999942
0.999953
0.999959
0.999964
0.999967
0.999968
0.999969
0.999969
0.99997
0.99997
0.99997
0.99997
0.99997
0.99997
0.99997
0.99997
0.99997
0.99997
0.99997
0.99997
0.99997
0.99997
0.99997
0.99997
0.99997
0.99997
0.99997
0.99997
0.99997
0.99997
0.99997
0.99997
0.999969
0.999969
0.999967
0.999963
0.999958
0.999947
0.999929
0.999904
0.999853
0.999787
0.999703
0.999541
0.999313
0.998956
0.998259
0.997054
0.995055
0.991745
0.986842
0.980738
0.974191
0.967406
0.959193
0.946957
0.927699
0.899189
0.86029
0.810458
0.749468
0.677916
0.598121
0.515077
0.437639
0.380303
0.362183
0.39411
0.46583
0.556447
0.647919
0.728712
0.793918
0.844051
0.882739
0.914285
0.941964
0.967324
0.99027
1.00965
1.02406
1.03263
1.03545
1.0336
1.02873
1.02256
1.01643
1.01117
1.0071
1.0042
1.00229
1.00111
1.00044
1.00009
0.999935
0.999879
0.999875
0.99989
0.999909
0.999928
0.999942
0.999953
0.999959
0.999964
0.999966
0.999968
0.999969
0.999969
0.99997
0.99997
0.99997
0.99997
0.99997
0.99997
0.99997
0.99997
0.99997
0.99997
0.99997
0.99997
0.99997
0.99997
0.99997
0.99997
0.99997
0.99997
0.99997
0.99997
0.99997
0.99997
0.99997
0.99997
0.999969
0.999969
0.999967
0.999962
0.999958
0.999946
0.999925
0.999901
0.99985
0.999774
0.999689
0.99951
0.999232
0.998819
0.997985
0.996499
0.994109
0.990238
0.984603
0.977896
0.971109
0.964161
0.955329
0.94168
0.920091
0.888406
0.845723
0.79173
0.726253
0.649747
0.564163
0.473725
0.386591
0.319719
0.302332
0.35218
0.449494
0.56404
0.674111
0.76662
0.836301
0.8846
0.917092
0.940381
0.959774
0.978202
0.996216
1.01269
1.02582
1.03417
1.03726
1.03572
1.03096
1.02465
1.01822
1.01257
1.00812
1.0049
1.00275
1.0014
1.00062
1.0002
0.999992
0.999911
0.999892
0.999898
0.999915
0.99993
0.999944
0.999953
0.99996
0.999964
0.999966
0.999968
0.999969
0.999969
0.99997
0.99997
0.99997
0.99997
0.99997
0.99997
0.99997
0.99997
0.99997
0.99997
0.99997
0.99997
0.99997
0.99997
0.99997
0.99997
0.99997
0.99997
0.99997
0.99997
0.99997
0.99997
0.99997
0.99997
0.999969
0.999969
0.999967
0.999962
0.999958
0.999947
0.999923
0.999901
0.999851
0.999762
0.999678
0.999489
0.999153
0.998675
0.997712
0.995921
0.99311
0.988715
0.982395
0.975166
0.968305
0.96135
0.951998
0.937148
0.913763
0.879807
0.834684
0.778491
0.711302
0.633448
0.546138
0.451867
0.356499
0.277381
0.256036
0.322869
0.44555
0.584041
0.713524
0.819024
0.894238
0.940966
0.966459
0.97971
0.988402
0.99729
1.00795
1.0195
1.02984
1.03691
1.0396
1.03799
1.03318
1.02669
1.01994
1.01393
1.00912
1.00561
1.00322
1.0017
1.0008
1.00031
1.00006
0.99995
0.999913
0.999911
0.999921
0.999934
0.999946
0.999954
0.99996
0.999964
0.999966
0.999968
0.999969
0.999969
0.99997
0.99997
0.99997
0.99997
0.99997
0.99997
0.99997
0.99997
0.99997
0.99997
0.99997
0.99997
0.99997
0.99997
0.99997
0.99997
0.99997
0.99997
0.99997
0.99997
0.99997
0.99997
0.999969
0.99997
0.999969
0.999968
0.999967
0.999963
0.999957
0.999949
0.999923
0.999898
0.999856
0.999756
0.999668
0.999482
0.99908
0.998528
0.997453
0.995342
0.992089
0.987224
0.980305
0.972622
0.965829
0.959044
0.94934
0.933649
0.90925
0.874279
0.828472
0.772567
0.707164
0.632479
0.548541
0.455499
0.356195
0.265423
0.232041
0.306841
0.449736
0.610142
0.759291
0.879357
0.961989
1.00858
1.02762
1.03035
1.02698
1.02441
1.02565
1.0304
1.03642
1.0411
1.04264
1.04053
1.03543
1.02866
1.02159
1.01523
1.01009
1.00629
1.00368
1.00201
1.001
1.00043
1.00013
0.999996
0.999941
0.999927
0.999931
0.999939
0.999949
0.999956
0.999962
0.999965
0.999967
0.999968
0.999969
0.99997
0.99997
0.99997