/*--------------------------------*- C++ -*----------------------------------*\
  =========                 |
  \\      /  F ield         | OpenFOAM: The Open Source CFD Toolbox
   \\    /   O peration     | Website:  https://openfoam.org
    \\  /    A nd           | Version:  6
     \\/     M anipulation  |
\*---------------------------------------------------------------------------*/
FoamFile
{
    version     2.0;
    format      ascii;
    class       volVectorField;
    location    "3.66";
    object      U;
}
// * * * * * * * * * * * * * * * * * * * * * * * * * * * * * * * * * * * * * //

dimensions      [0 1 -1 0 0 0 0];

internalField   nonuniform List<vector> 
10000
(
(0.8944 0.4472 0)
(0.8944 0.4472 0)
(0.8944 0.4472 0)
(0.8944 0.4472 0)
(0.8944 0.4472 0)
(0.8944 0.4472 0)
(0.8944 0.4472 0)
(0.8944 0.4472 0)
(0.8944 0.4472 0)
(0.8944 0.4472 0)
(0.8944 0.4472 0)
(0.8944 0.4472 0)
(0.8944 0.4472 0)
(0.8944 0.4472 0)
(0.8944 0.4472 0)
(0.8944 0.4472 0)
(0.8944 0.4472 0)
(0.8944 0.4472 0)
(0.8944 0.4472 0)
(0.8944 0.4472 0)
(0.8944 0.4472 0)
(0.8944 0.4472 0)
(0.8944 0.4472 0)
(0.8944 0.4472 0)
(0.8944 0.4472 0)
(0.8944 0.4472 0)
(0.8944 0.4472 0)
(0.8944 0.4472 0)
(0.8944 0.4472 0)
(0.8944 0.4472 0)
(0.8944 0.4472 0)
(0.8944 0.4472 0)
(0.8944 0.4472 0)
(0.8944 0.4472 0)
(0.8944 0.4472 0)
(0.8944 0.4472 0)
(0.8944 0.4472 0)
(0.8944 0.4472 0)
(0.8944 0.4472 0)
(0.8944 0.4472 0)
(0.8944 0.447201 0)
(0.8944 0.447201 0)
(0.8944 0.447201 0)
(0.894399 0.447202 0)
(0.8944 0.447202 0)
(0.8944 0.447203 0)
(0.894402 0.447203 0)
(0.894404 0.447202 0)
(0.894406 0.4472 0)
(0.89441 0.447197 0)
(0.894414 0.447191 0)
(0.894418 0.447185 0)
(0.894421 0.447176 0)
(0.894423 0.447167 0)
(0.894423 0.447158 0)
(0.89442 0.447151 0)
(0.894414 0.447145 0)
(0.894405 0.447144 0)
(0.894393 0.447148 0)
(0.894378 0.447158 0)
(0.894363 0.447176 0)
(0.894349 0.4472 0)
(0.894337 0.44723 0)
(0.89433 0.447264 0)
(0.894328 0.447301 0)
(0.894333 0.447337 0)
(0.894343 0.447368 0)
(0.894358 0.447394 0)
(0.894377 0.447412 0)
(0.894396 0.447418 0)
(0.894415 0.447416 0)
(0.894432 0.447404 0)
(0.894443 0.447383 0)
(0.894449 0.447359 0)
(0.894453 0.447331 0)
(0.89445 0.4473 0)
(0.894444 0.447273 0)
(0.894437 0.447248 0)
(0.894427 0.447227 0)
(0.894418 0.447211 0)
(0.89441 0.4472 0)
(0.894404 0.447192 0)
(0.894399 0.447189 0)
(0.894397 0.447188 0)
(0.894395 0.447188 0)
(0.894395 0.44719 0)
(0.894395 0.447192 0)
(0.894396 0.447194 0)
(0.894396 0.447195 0)
(0.894397 0.447197 0)
(0.894398 0.447198 0)
(0.894399 0.447199 0)
(0.894399 0.447199 0)
(0.894399 0.447199 0)
(0.8944 0.4472 0)
(0.8944 0.4472 0)
(0.8944 0.4472 0)
(0.8944 0.4472 0)
(0.8944 0.4472 0)
(0.8944 0.4472 0)
(0.8944 0.4472 0)
(0.8944 0.4472 0)
(0.8944 0.4472 0)
(0.8944 0.4472 0)
(0.8944 0.4472 0)
(0.8944 0.4472 0)
(0.8944 0.4472 0)
(0.8944 0.4472 0)
(0.8944 0.4472 0)
(0.8944 0.4472 0)
(0.8944 0.4472 0)
(0.8944 0.4472 0)
(0.8944 0.4472 0)
(0.8944 0.4472 0)
(0.8944 0.4472 0)
(0.8944 0.4472 0)
(0.8944 0.4472 0)
(0.8944 0.4472 0)
(0.8944 0.4472 0)
(0.8944 0.4472 0)
(0.8944 0.4472 0)
(0.8944 0.4472 0)
(0.8944 0.4472 0)
(0.8944 0.4472 0)
(0.8944 0.4472 0)
(0.8944 0.4472 0)
(0.8944 0.4472 0)
(0.8944 0.4472 0)
(0.8944 0.4472 0)
(0.8944 0.4472 0)
(0.8944 0.4472 0)
(0.8944 0.4472 0)
(0.8944 0.4472 0)
(0.8944 0.4472 0)
(0.8944 0.4472 0)
(0.8944 0.4472 0)
(0.8944 0.4472 0)
(0.8944 0.4472 0)
(0.8944 0.4472 0)
(0.894399 0.4472 0)
(0.894399 0.447201 0)
(0.894399 0.447201 0)
(0.894399 0.447202 0)
(0.894399 0.447203 0)
(0.894399 0.447203 0)
(0.894401 0.447204 0)
(0.894402 0.447204 0)
(0.894405 0.447204 0)
(0.894409 0.447201 0)
(0.894413 0.447198 0)
(0.894419 0.447191 0)
(0.894424 0.447183 0)
(0.894429 0.447173 0)
(0.894431 0.447163 0)
(0.894431 0.447153 0)
(0.894427 0.447145 0)
(0.894418 0.447143 0)
(0.894405 0.447146 0)
(0.894387 0.447157 0)
(0.894366 0.447177 0)
(0.894343 0.447207 0)
(0.89432 0.447247 0)
(0.8943 0.447297 0)
(0.894286 0.447353 0)
(0.89428 0.447413 0)
(0.894282 0.447474 0)
(0.894295 0.44753 0)
(0.894316 0.447575 0)
(0.894343 0.447609 0)
(0.894376 0.447629 0)
(0.894409 0.447629 0)
(0.89444 0.447615 0)
(0.894467 0.447586 0)
(0.894485 0.447543 0)
(0.894494 0.447494 0)
(0.894496 0.447441 0)
(0.894491 0.447386 0)
(0.894479 0.447335 0)
(0.894464 0.447291 0)
(0.894448 0.447254 0)
(0.894432 0.447226 0)
(0.894418 0.447206 0)
(0.894408 0.447194 0)
(0.8944 0.447187 0)
(0.894395 0.447185 0)
(0.894393 0.447185 0)
(0.894393 0.447187 0)
(0.894393 0.44719 0)
(0.894394 0.447192 0)
(0.894396 0.447195 0)
(0.894397 0.447196 0)
(0.894398 0.447198 0)
(0.894399 0.447199 0)
(0.894399 0.447199 0)
(0.894399 0.447199 0)
(0.8944 0.4472 0)
(0.8944 0.4472 0)
(0.8944 0.4472 0)
(0.8944 0.4472 0)
(0.8944 0.4472 0)
(0.8944 0.4472 0)
(0.8944 0.4472 0)
(0.8944 0.4472 0)
(0.8944 0.4472 0)
(0.8944 0.4472 0)
(0.8944 0.4472 0)
(0.8944 0.4472 0)
(0.8944 0.4472 0)
(0.8944 0.4472 0)
(0.8944 0.4472 0)
(0.8944 0.4472 0)
(0.8944 0.4472 0)
(0.8944 0.4472 0)
(0.8944 0.4472 0)
(0.8944 0.4472 0)
(0.8944 0.4472 0)
(0.8944 0.4472 0)
(0.8944 0.4472 0)
(0.8944 0.4472 0)
(0.8944 0.4472 0)
(0.8944 0.4472 0)
(0.8944 0.4472 0)
(0.8944 0.4472 0)
(0.8944 0.4472 0)
(0.8944 0.4472 0)
(0.8944 0.4472 0)
(0.8944 0.4472 0)
(0.8944 0.4472 0)
(0.8944 0.4472 0)
(0.8944 0.4472 0)
(0.8944 0.4472 0)
(0.8944 0.4472 0)
(0.8944 0.4472 0)
(0.8944 0.4472 0)
(0.8944 0.4472 0)
(0.8944 0.4472 0)
(0.8944 0.4472 0)
(0.8944 0.4472 0)
(0.8944 0.447201 0)
(0.894399 0.447201 0)
(0.894399 0.447201 0)
(0.894399 0.447202 0)
(0.894399 0.447203 0)
(0.894399 0.447204 0)
(0.894399 0.447205 0)
(0.894401 0.447207 0)
(0.894403 0.447207 0)
(0.894407 0.447207 0)
(0.894411 0.447204 0)
(0.894418 0.4472 0)
(0.894425 0.447192 0)
(0.894432 0.447183 0)
(0.894438 0.447173 0)
(0.89444 0.447163 0)
(0.894439 0.447155 0)
(0.894431 0.447153 0)
(0.894418 0.447159 0)
(0.894398 0.447175 0)
(0.894372 0.447204 0)
(0.894341 0.447247 0)
(0.894306 0.447305 0)
(0.894271 0.447378 0)
(0.894239 0.447465 0)
(0.894214 0.447562 0)
(0.8942 0.447665 0)
(0.8942 0.447768 0)
(0.894214 0.447864 0)
(0.894243 0.447947 0)
(0.894286 0.448009 0)
(0.894337 0.448045 0)
(0.894394 0.448054 0)
(0.89445 0.448033 0)
(0.894498 0.447986 0)
(0.894539 0.447917 0)
(0.894566 0.447828 0)
(0.894576 0.447729 0)
(0.894575 0.447627 0)
(0.894561 0.447528 0)
(0.894538 0.447437 0)
(0.89451 0.44736 0)
(0.894481 0.447297 0)
(0.894454 0.44725 0)
(0.894431 0.447217 0)
(0.894413 0.447197 0)
(0.894401 0.447186 0)
(0.894394 0.447182 0)
(0.894391 0.447182 0)
(0.89439 0.447185 0)
(0.894391 0.447188 0)
(0.894393 0.447191 0)
(0.894395 0.447194 0)
(0.894396 0.447196 0)
(0.894398 0.447198 0)
(0.894398 0.447199 0)
(0.894399 0.447199 0)
(0.894399 0.4472 0)
(0.8944 0.4472 0)
(0.8944 0.4472 0)
(0.8944 0.4472 0)
(0.8944 0.4472 0)
(0.8944 0.4472 0)
(0.8944 0.4472 0)
(0.8944 0.4472 0)
(0.8944 0.4472 0)
(0.8944 0.4472 0)
(0.8944 0.4472 0)
(0.8944 0.4472 0)
(0.8944 0.4472 0)
(0.8944 0.4472 0)
(0.8944 0.4472 0)
(0.8944 0.4472 0)
(0.8944 0.4472 0)
(0.8944 0.4472 0)
(0.8944 0.4472 0)
(0.8944 0.4472 0)
(0.8944 0.4472 0)
(0.8944 0.4472 0)
(0.8944 0.4472 0)
(0.8944 0.4472 0)
(0.8944 0.4472 0)
(0.8944 0.4472 0)
(0.8944 0.4472 0)
(0.8944 0.4472 0)
(0.8944 0.4472 0)
(0.8944 0.4472 0)
(0.8944 0.4472 0)
(0.8944 0.4472 0)
(0.8944 0.4472 0)
(0.8944 0.4472 0)
(0.8944 0.4472 0)
(0.8944 0.4472 0)
(0.8944 0.4472 0)
(0.8944 0.4472 0)
(0.8944 0.4472 0)
(0.8944 0.4472 0)
(0.8944 0.4472 0)
(0.8944 0.4472 0)
(0.8944 0.4472 0)
(0.894399 0.447201 0)
(0.894399 0.447201 0)
(0.894399 0.447202 0)
(0.894398 0.447204 0)
(0.894398 0.447205 0)
(0.894398 0.447207 0)
(0.894399 0.447209 0)
(0.8944 0.447211 0)
(0.894403 0.447212 0)
(0.894408 0.447212 0)
(0.894415 0.447209 0)
(0.894424 0.447205 0)
(0.894433 0.447197 0)
(0.894441 0.447188 0)
(0.894447 0.447179 0)
(0.894447 0.447174 0)
(0.894442 0.447175 0)
(0.894428 0.447187 0)
(0.894405 0.447214 0)
(0.894374 0.44726 0)
(0.894333 0.447328 0)
(0.894287 0.447419 0)
(0.894235 0.447535 0)
(0.894182 0.447673 0)
(0.894134 0.447832 0)
(0.894094 0.448007 0)
(0.894068 0.44819 0)
(0.894063 0.448372 0)
(0.894082 0.448542 0)
(0.894124 0.448689 0)
(0.894189 0.448803 0)
(0.894273 0.448871 0)
(0.894367 0.44889 0)
(0.894463 0.448858 0)
(0.894554 0.448776 0)
(0.89463 0.448649 0)
(0.894687 0.448488 0)
(0.894719 0.448304 0)
(0.894725 0.448112 0)
(0.89471 0.447923 0)
(0.894677 0.447746 0)
(0.894631 0.44759 0)
(0.89458 0.44746 0)
(0.894529 0.447358 0)
(0.894484 0.447283 0)
(0.894447 0.447232 0)
(0.89442 0.447201 0)
(0.894402 0.447185 0)
(0.894392 0.447179 0)
(0.894388 0.447179 0)
(0.894388 0.447182 0)
(0.894389 0.447187 0)
(0.894392 0.447191 0)
(0.894394 0.447194 0)
(0.894396 0.447196 0)
(0.894397 0.447198 0)
(0.894399 0.447199 0)
(0.894399 0.447199 0)
(0.8944 0.4472 0)
(0.8944 0.4472 0)
(0.8944 0.4472 0)
(0.8944 0.4472 0)
(0.8944 0.4472 0)
(0.8944 0.4472 0)
(0.8944 0.4472 0)
(0.8944 0.4472 0)
(0.8944 0.4472 0)
(0.8944 0.4472 0)
(0.8944 0.4472 0)
(0.8944 0.4472 0)
(0.8944 0.4472 0)
(0.8944 0.4472 0)
(0.8944 0.4472 0)
(0.8944 0.4472 0)
(0.8944 0.4472 0)
(0.8944 0.4472 0)
(0.8944 0.4472 0)
(0.8944 0.4472 0)
(0.8944 0.4472 0)
(0.8944 0.4472 0)
(0.8944 0.4472 0)
(0.8944 0.4472 0)
(0.8944 0.4472 0)
(0.8944 0.4472 0)
(0.8944 0.4472 0)
(0.8944 0.4472 0)
(0.8944 0.4472 0)
(0.8944 0.4472 0)
(0.894401 0.4472 0)
(0.894399 0.4472 0)
(0.8944 0.4472 0)
(0.8944 0.4472 0)
(0.894399 0.4472 0)
(0.8944 0.4472 0)
(0.8944 0.447201 0)
(0.8944 0.4472 0)
(0.8944 0.4472 0)
(0.8944 0.4472 0)
(0.8944 0.447201 0)
(0.8944 0.447201 0)
(0.894399 0.447201 0)
(0.894398 0.447202 0)
(0.894398 0.447203 0)
(0.894397 0.447205 0)
(0.894397 0.447208 0)
(0.894397 0.447211 0)
(0.894398 0.447214 0)
(0.8944 0.447216 0)
(0.894404 0.447218 0)
(0.894411 0.447219 0)
(0.89442 0.447217 0)
(0.89443 0.447213 0)
(0.894441 0.447207 0)
(0.894449 0.447201 0)
(0.894452 0.447199 0)
(0.894448 0.447206 0)
(0.894433 0.447227 0)
(0.894406 0.44727 0)
(0.894366 0.447341 0)
(0.894312 0.447447 0)
(0.894247 0.44759 0)
(0.894174 0.447774 0)
(0.894095 0.447998 0)
(0.894014 0.44826 0)
(0.89394 0.448554 0)
(0.893879 0.448873 0)
(0.893839 0.449204 0)
(0.89383 0.449532 0)
(0.893855 0.44984 0)
(0.89392 0.450111 0)
(0.894025 0.450319 0)
(0.894163 0.450451 0)
(0.894322 0.450494 0)
(0.894488 0.450442 0)
(0.89465 0.450298 0)
(0.894795 0.450066 0)
(0.894904 0.449768 0)
(0.894972 0.449428 0)
(0.894998 0.449065 0)
(0.894984 0.448702 0)
(0.894934 0.44836 0)
(0.894859 0.448055 0)
(0.894771 0.447797 0)
(0.89468 0.44759 0)
(0.894595 0.447433 0)
(0.894522 0.447321 0)
(0.894466 0.447248 0)
(0.894427 0.447205 0)
(0.894402 0.447184 0)
(0.894389 0.447176 0)
(0.894385 0.447177 0)
(0.894385 0.447181 0)
(0.894388 0.447186 0)
(0.894391 0.44719 0)
(0.894394 0.447194 0)
(0.894396 0.447196 0)
(0.894398 0.447198 0)
(0.894399 0.447199 0)
(0.894399 0.447199 0)
(0.8944 0.4472 0)
(0.8944 0.4472 0)
(0.8944 0.4472 0)
(0.8944 0.4472 0)
(0.8944 0.4472 0)
(0.8944 0.4472 0)
(0.8944 0.4472 0)
(0.8944 0.4472 0)
(0.8944 0.4472 0)
(0.8944 0.4472 0)
(0.8944 0.4472 0)
(0.8944 0.4472 0)
(0.8944 0.4472 0)
(0.8944 0.4472 0)
(0.8944 0.4472 0)
(0.8944 0.4472 0)
(0.8944 0.4472 0)
(0.8944 0.4472 0)
(0.8944 0.4472 0)
(0.8944 0.4472 0)
(0.8944 0.4472 0)
(0.8944 0.4472 0)
(0.8944 0.4472 0)
(0.8944 0.447201 0)
(0.8944 0.447199 0)
(0.8944 0.4472 0)
(0.8944 0.4472 0)
(0.8944 0.4472 0)
(0.8944 0.4472 0)
(0.8944 0.4472 0)
(0.894399 0.4472 0)
(0.894401 0.4472 0)
(0.8944 0.4472 0)
(0.8944 0.447199 0)
(0.8944 0.4472 0)
(0.8944 0.447201 0)
(0.8944 0.4472 0)
(0.8944 0.4472 0)
(0.8944 0.4472 0)
(0.894399 0.447201 0)
(0.894399 0.447201 0)
(0.894398 0.447202 0)
(0.894398 0.447203 0)
(0.894397 0.447206 0)
(0.894396 0.447208 0)
(0.894395 0.447212 0)
(0.894396 0.447216 0)
(0.894396 0.447221 0)
(0.894399 0.447225 0)
(0.894405 0.447228 0)
(0.894413 0.447229 0)
(0.894425 0.447229 0)
(0.894437 0.447227 0)
(0.894447 0.447226 0)
(0.894453 0.447228 0)
(0.89445 0.447242 0)
(0.894433 0.447274 0)
(0.8944 0.447335 0)
(0.894347 0.447436 0)
(0.894274 0.447588 0)
(0.894181 0.4478 0)
(0.894073 0.448078 0)
(0.893953 0.448424 0)
(0.893827 0.448839 0)
(0.893702 0.449315 0)
(0.893588 0.449845 0)
(0.893492 0.450414 0)
(0.89343 0.451003 0)
(0.893414 0.451588 0)
(0.893451 0.452143 0)
(0.893553 0.452633 0)
(0.893724 0.453021 0)
(0.893952 0.453283 0)
(0.894222 0.453392 0)
(0.894519 0.453329 0)
(0.894814 0.45309 0)
(0.895078 0.452694 0)
(0.895285 0.452168 0)
(0.895423 0.451548 0)
(0.895488 0.450875 0)
(0.895479 0.450192 0)
(0.895404 0.449543 0)
(0.895279 0.448959 0)
(0.895127 0.448458 0)
(0.894965 0.448052 0)
(0.89481 0.447739 0)
(0.894674 0.447512 0)
(0.894565 0.447358 0)
(0.894485 0.447261 0)
(0.894431 0.447207 0)
(0.894401 0.447182 0)
(0.894386 0.447174 0)
(0.894382 0.447175 0)
(0.894383 0.44718 0)
(0.894387 0.447186 0)
(0.894391 0.447191 0)
(0.894394 0.447194 0)
(0.894396 0.447197 0)
(0.894398 0.447198 0)
(0.894399 0.447199 0)
(0.894399 0.4472 0)
(0.8944 0.4472 0)
(0.8944 0.4472 0)
(0.8944 0.4472 0)
(0.8944 0.4472 0)
(0.8944 0.4472 0)
(0.8944 0.4472 0)
(0.8944 0.4472 0)
(0.8944 0.4472 0)
(0.8944 0.4472 0)
(0.8944 0.4472 0)
(0.8944 0.4472 0)
(0.8944 0.4472 0)
(0.8944 0.4472 0)
(0.8944 0.4472 0)
(0.8944 0.4472 0)
(0.8944 0.4472 0)
(0.8944 0.4472 0)
(0.8944 0.4472 0)
(0.8944 0.4472 0)
(0.8944 0.4472 0)
(0.8944 0.4472 0)
(0.8944 0.447199 0)
(0.8944 0.447201 0)
(0.894399 0.447199 0)
(0.8944 0.447201 0)
(0.8944 0.447199 0)
(0.8944 0.4472 0)
(0.8944 0.4472 0)
(0.8944 0.4472 0)
(0.8944 0.4472 0)
(0.894401 0.447201 0)
(0.894398 0.4472 0)
(0.894401 0.4472 0)
(0.8944 0.447201 0)
(0.894399 0.4472 0)
(0.894401 0.4472 0)
(0.8944 0.4472 0)
(0.894399 0.447201 0)
(0.894399 0.447201 0)
(0.894398 0.447202 0)
(0.894398 0.447204 0)
(0.894397 0.447206 0)
(0.894395 0.447209 0)
(0.894394 0.447212 0)
(0.894393 0.447218 0)
(0.894393 0.447224 0)
(0.894394 0.44723 0)
(0.894399 0.447236 0)
(0.894406 0.447241 0)
(0.894416 0.447245 0)
(0.894429 0.447248 0)
(0.894441 0.447251 0)
(0.894449 0.44726 0)
(0.894446 0.44728 0)
(0.894428 0.447323 0)
(0.894388 0.447402 0)
(0.89432 0.447533 0)
(0.89422 0.447734 0)
(0.89409 0.448022 0)
(0.893931 0.44841 0)
(0.893747 0.448909 0)
(0.893549 0.449519 0)
(0.893345 0.450239 0)
(0.893144 0.451059 0)
(0.892961 0.451963 0)
(0.892809 0.452927 0)
(0.892708 0.453923 0)
(0.892673 0.454916 0)
(0.89272 0.455866 0)
(0.892876 0.456714 0)
(0.893141 0.457416 0)
(0.893506 0.457923 0)
(0.893961 0.458182 0)
(0.894475 0.458159 0)
(0.895005 0.457844 0)
(0.895492 0.457245 0)
(0.895894 0.456395 0)
(0.896187 0.455342 0)
(0.896343 0.454157 0)
(0.896354 0.452931 0)
(0.89624 0.451744 0)
(0.896037 0.450655 0)
(0.895776 0.44971 0)
(0.89549 0.448936 0)
(0.895211 0.448333 0)
(0.894963 0.44789 0)
(0.894759 0.447582 0)
(0.894604 0.447383 0)
(0.894497 0.447266 0)
(0.894431 0.447204 0)
(0.894396 0.447178 0)
(0.894381 0.447172 0)
(0.894379 0.447175 0)
(0.894382 0.447181 0)
(0.894386 0.447187 0)
(0.894391 0.447192 0)
(0.894394 0.447195 0)
(0.894397 0.447197 0)
(0.894398 0.447199 0)
(0.894399 0.447199 0)
(0.8944 0.4472 0)
(0.8944 0.4472 0)
(0.8944 0.4472 0)
(0.8944 0.4472 0)
(0.8944 0.4472 0)
(0.8944 0.4472 0)
(0.8944 0.4472 0)
(0.8944 0.4472 0)
(0.8944 0.4472 0)
(0.8944 0.4472 0)
(0.8944 0.4472 0)
(0.8944 0.4472 0)
(0.8944 0.4472 0)
(0.8944 0.4472 0)
(0.8944 0.4472 0)
(0.8944 0.4472 0)
(0.8944 0.4472 0)
(0.8944 0.4472 0)
(0.8944 0.4472 0)
(0.8944 0.4472 0)
(0.8944 0.4472 0)
(0.8944 0.4472 0)
(0.8944 0.4472 0)
(0.894399 0.4472 0)
(0.894401 0.4472 0)
(0.894399 0.4472 0)
(0.8944 0.4472 0)
(0.8944 0.4472 0)
(0.894399 0.447201 0)
(0.894401 0.447199 0)
(0.894398 0.447201 0)
(0.894401 0.447199 0)
(0.894401 0.447202 0)
(0.894397 0.447199 0)
(0.894401 0.447199 0)
(0.8944 0.447201 0)
(0.894399 0.4472 0)
(0.894399 0.447201 0)
(0.894398 0.447202 0)
(0.894397 0.447204 0)
(0.894397 0.447205 0)
(0.894395 0.447209 0)
(0.894393 0.447213 0)
(0.894391 0.447218 0)
(0.89439 0.447226 0)
(0.89439 0.447234 0)
(0.894392 0.447243 0)
(0.894398 0.447252 0)
(0.894407 0.44726 0)
(0.894419 0.447267 0)
(0.894431 0.447277 0)
(0.89444 0.44729 0)
(0.894439 0.447318 0)
(0.894419 0.447369 0)
(0.894372 0.447464 0)
(0.894288 0.447622 0)
(0.89416 0.447868 0)
(0.893982 0.448229 0)
(0.893756 0.448731 0)
(0.893487 0.449391 0)
(0.893181 0.450222 0)
(0.892856 0.451227 0)
(0.892524 0.452396 0)
(0.892202 0.453711 0)
(0.891908 0.455146 0)
(0.891661 0.456664 0)
(0.891486 0.458225 0)
(0.891404 0.45978 0)
(0.891447 0.461267 0)
(0.891651 0.462617 0)
(0.892016 0.463778 0)
(0.892561 0.464664 0)
(0.893278 0.465203 0)
(0.894119 0.465347 0)
(0.895017 0.465057 0)
(0.895896 0.464317 0)
(0.896688 0.463134 0)
(0.897308 0.461558 0)
(0.897684 0.459695 0)
(0.897796 0.457676 0)
(0.897674 0.455636 0)
(0.897364 0.453704 0)
(0.896925 0.451993 0)
(0.896428 0.450566 0)
(0.895936 0.449442 0)
(0.895491 0.448604 0)
(0.89512 0.448015 0)
(0.894834 0.447627 0)
(0.894631 0.44739 0)
(0.8945 0.447258 0)
(0.894425 0.447196 0)
(0.894389 0.447173 0)
(0.894377 0.44717 0)
(0.894377 0.447175 0)
(0.894381 0.447182 0)
(0.894387 0.447189 0)
(0.894392 0.447193 0)
(0.894395 0.447196 0)
(0.894398 0.447198 0)
(0.894399 0.447199 0)
(0.894399 0.4472 0)
(0.8944 0.4472 0)
(0.8944 0.4472 0)
(0.8944 0.4472 0)
(0.8944 0.4472 0)
(0.8944 0.4472 0)
(0.8944 0.4472 0)
(0.8944 0.4472 0)
(0.8944 0.4472 0)
(0.8944 0.4472 0)
(0.8944 0.4472 0)
(0.8944 0.4472 0)
(0.8944 0.4472 0)
(0.8944 0.4472 0)
(0.8944 0.4472 0)
(0.8944 0.4472 0)
(0.8944 0.4472 0)
(0.8944 0.4472 0)
(0.8944 0.4472 0)
(0.8944 0.4472 0)
(0.8944 0.4472 0)
(0.8944 0.447199 0)
(0.8944 0.4472 0)
(0.8944 0.4472 0)
(0.8944 0.4472 0)
(0.894399 0.447201 0)
(0.894401 0.447199 0)
(0.894399 0.447201 0)
(0.894401 0.4472 0)
(0.8944 0.447199 0)
(0.894399 0.4472 0)
(0.894404 0.447201 0)
(0.894396 0.447201 0)
(0.8944 0.447197 0)
(0.894402 0.447202 0)
(0.894399 0.447201 0)
(0.894399 0.4472 0)
(0.894398 0.447203 0)
(0.894397 0.447203 0)
(0.894396 0.447206 0)
(0.894395 0.447209 0)
(0.894391 0.447214 0)
(0.894389 0.447219 0)
(0.894387 0.447227 0)
(0.894385 0.447237 0)
(0.894385 0.447248 0)
(0.894389 0.44726 0)
(0.894396 0.447273 0)
(0.894406 0.447285 0)
(0.894418 0.4473 0)
(0.894427 0.447319 0)
(0.894428 0.447353 0)
(0.894407 0.447412 0)
(0.894355 0.447517 0)
(0.894256 0.447695 0)
(0.894097 0.447977 0)
(0.893871 0.4484 0)
(0.893568 0.449002 0)
(0.893191 0.449816 0)
(0.892751 0.450866 0)
(0.892262 0.452163 0)
(0.891744 0.453704 0)
(0.891221 0.455467 0)
(0.890717 0.457417 0)
(0.890253 0.459507 0)
(0.889855 0.461686 0)
(0.88955 0.463898 0)
(0.889366 0.466076 0)
(0.889358 0.468143 0)
(0.889558 0.470043 0)
(0.88999 0.471703 0)
(0.890711 0.47302 0)
(0.891701 0.473951 0)
(0.89293 0.474422 0)
(0.894333 0.474359 0)
(0.895824 0.473705 0)
(0.897277 0.472414 0)
(0.898517 0.470496 0)
(0.899406 0.46802 0)
(0.899877 0.46512 0)
(0.899909 0.461983 0)
(0.899535 0.458849 0)
(0.898867 0.45595 0)
(0.89805 0.453449 0)
(0.897205 0.451429 0)
(0.896425 0.449901 0)
(0.895767 0.448814 0)
(0.895254 0.448087 0)
(0.894883 0.447634 0)
(0.894636 0.447373 0)
(0.894489 0.44724 0)
(0.894412 0.447183 0)
(0.89438 0.447167 0)
(0.894373 0.447169 0)
(0.894376 0.447177 0)
(0.894383 0.447185 0)
(0.894389 0.447191 0)
(0.894393 0.447195 0)
(0.894396 0.447197 0)
(0.894398 0.447199 0)
(0.894399 0.447199 0)
(0.8944 0.4472 0)
(0.8944 0.4472 0)
(0.8944 0.4472 0)
(0.8944 0.4472 0)
(0.8944 0.4472 0)
(0.8944 0.4472 0)
(0.8944 0.4472 0)
(0.8944 0.4472 0)
(0.8944 0.4472 0)
(0.8944 0.4472 0)
(0.8944 0.4472 0)
(0.8944 0.4472 0)
(0.8944 0.4472 0)
(0.8944 0.4472 0)
(0.8944 0.4472 0)
(0.8944 0.4472 0)
(0.8944 0.4472 0)
(0.8944 0.4472 0)
(0.8944 0.4472 0)
(0.8944 0.4472 0)
(0.8944 0.4472 0)
(0.8944 0.447201 0)
(0.8944 0.447199 0)
(0.894399 0.447201 0)
(0.894401 0.4472 0)
(0.894399 0.447199 0)
(0.894399 0.447202 0)
(0.894402 0.447199 0)
(0.894397 0.4472 0)
(0.894403 0.4472 0)
(0.894399 0.447203 0)
(0.894395 0.447196 0)
(0.894406 0.447201 0)
(0.894397 0.447202 0)
(0.894399 0.4472 0)
(0.894399 0.447203 0)
(0.894397 0.447203 0)
(0.894397 0.447206 0)
(0.894394 0.447209 0)
(0.894392 0.447214 0)
(0.894387 0.44722 0)
(0.894384 0.447228 0)
(0.894381 0.447239 0)
(0.89438 0.447252 0)
(0.89438 0.447267 0)
(0.894384 0.447283 0)
(0.894392 0.447301 0)
(0.894403 0.44732 0)
(0.894412 0.447345 0)
(0.894412 0.447383 0)
(0.894393 0.447449 0)
(0.894337 0.447561 0)
(0.894228 0.447751 0)
(0.894044 0.448056 0)
(0.893768 0.448523 0)
(0.893387 0.449203 0)
(0.892895 0.450144 0)
(0.892297 0.451385 0)
(0.891609 0.452953 0)
(0.890861 0.454846 0)
(0.890079 0.457041 0)
(0.889296 0.459491 0)
(0.888545 0.46213 0)
(0.887848 0.464879 0)
(0.88723 0.46767 0)
(0.886719 0.470422 0)
(0.886351 0.473059 0)
(0.886193 0.475513 0)
(0.886267 0.477743 0)
(0.886662 0.479662 0)
(0.887425 0.481244 0)
(0.888561 0.482492 0)
(0.890107 0.483324 0)
(0.892027 0.483701 0)
(0.894265 0.48353 0)
(0.896632 0.482676 0)
(0.898891 0.481034 0)
(0.900822 0.478522 0)
(0.902191 0.47516 0)
(0.902813 0.471111 0)
(0.902663 0.466693 0)
(0.901885 0.462288 0)
(0.900699 0.458247 0)
(0.899343 0.454835 0)
(0.898027 0.452169 0)
(0.896889 0.45023 0)
(0.895989 0.448916 0)
(0.895332 0.448084 0)
(0.894889 0.447596 0)
(0.894615 0.447335 0)
(0.894465 0.447213 0)
(0.894395 0.447169 0)
(0.894371 0.447162 0)
(0.89437 0.44717 0)
(0.894377 0.44718 0)
(0.894385 0.447188 0)
(0.894391 0.447193 0)
(0.894395 0.447196 0)
(0.894397 0.447198 0)
(0.894399 0.447199 0)
(0.894399 0.4472 0)
(0.8944 0.4472 0)
(0.8944 0.4472 0)
(0.8944 0.4472 0)
(0.8944 0.4472 0)
(0.8944 0.4472 0)
(0.8944 0.4472 0)
(0.8944 0.4472 0)
(0.8944 0.4472 0)
(0.8944 0.4472 0)
(0.8944 0.4472 0)
(0.8944 0.4472 0)
(0.8944 0.4472 0)
(0.8944 0.4472 0)
(0.8944 0.4472 0)
(0.8944 0.4472 0)
(0.894401 0.4472 0)
(0.8944 0.4472 0)
(0.8944 0.447201 0)
(0.8944 0.447199 0)
(0.8944 0.4472 0)
(0.8944 0.4472 0)
(0.894399 0.4472 0)
(0.8944 0.447201 0)
(0.894402 0.447198 0)
(0.894396 0.447202 0)
(0.894403 0.447199 0)
(0.8944 0.4472 0)
(0.894399 0.447199 0)
(0.894403 0.447204 0)
(0.894394 0.447198 0)
(0.894404 0.447198 0)
(0.894402 0.447203 0)
(0.894394 0.447199 0)
(0.894401 0.447202 0)
(0.894397 0.447203 0)
(0.894395 0.447205 0)
(0.894394 0.447208 0)
(0.894392 0.447214 0)
(0.894385 0.447221 0)
(0.894382 0.447227 0)
(0.894378 0.447241 0)
(0.894374 0.447255 0)
(0.894372 0.447272 0)
(0.894373 0.447291 0)
(0.894378 0.447313 0)
(0.894386 0.447337 0)
(0.894395 0.447367 0)
(0.894395 0.447411 0)
(0.894376 0.447479 0)
(0.894319 0.447596 0)
(0.894204 0.44779 0)
(0.894002 0.448107 0)
(0.893686 0.448597 0)
(0.893233 0.449325 0)
(0.892626 0.450353 0)
(0.891862 0.451744 0)
(0.890961 0.453531 0)
(0.889944 0.455725 0)
(0.888861 0.458298 0)
(0.887755 0.461183 0)
(0.886665 0.464282 0)
(0.885619 0.467485 0)
(0.884639 0.470673 0)
(0.883734 0.473751 0)
(0.882925 0.476622 0)
(0.882254 0.479218 0)
(0.881778 0.481494 0)
(0.881537 0.48343 0)
(0.881662 0.484996 0)
(0.882147 0.486323 0)
(0.883118 0.487435 0)
(0.884652 0.488381 0)
(0.886812 0.489247 0)
(0.889626 0.489904 0)
(0.892955 0.490185 0)
(0.896614 0.489819 0)
(0.900242 0.48847 0)
(0.903324 0.485876 0)
(0.905412 0.481958 0)
(0.906275 0.476937 0)
(0.905925 0.471254 0)
(0.904597 0.465503 0)
(0.902696 0.460267 0)
(0.900649 0.455932 0)
(0.898774 0.452647 0)
(0.897243 0.450358 0)
(0.896107 0.448882 0)
(0.895331 0.448001 0)
(0.894845 0.44752 0)
(0.894569 0.447283 0)
(0.894432 0.447186 0)
(0.894377 0.447158 0)
(0.894365 0.447161 0)
(0.89437 0.447172 0)
(0.89438 0.447183 0)
(0.894387 0.44719 0)
(0.894393 0.447195 0)
(0.894396 0.447198 0)
(0.894398 0.447199 0)
(0.894399 0.4472 0)
(0.8944 0.4472 0)
(0.8944 0.4472 0)
(0.8944 0.4472 0)
(0.8944 0.4472 0)
(0.8944 0.4472 0)
(0.8944 0.4472 0)
(0.8944 0.4472 0)
(0.8944 0.4472 0)
(0.8944 0.4472 0)
(0.8944 0.4472 0)
(0.8944 0.4472 0)
(0.8944 0.4472 0)
(0.8944 0.4472 0)
(0.8944 0.4472 0)
(0.8944 0.447201 0)
(0.894401 0.447199 0)
(0.894399 0.4472 0)
(0.8944 0.4472 0)
(0.8944 0.4472 0)
(0.894401 0.4472 0)
(0.894399 0.447199 0)
(0.894399 0.447202 0)
(0.894403 0.447198 0)
(0.894398 0.447199 0)
(0.894398 0.447204 0)
(0.894405 0.447194 0)
(0.894396 0.447203 0)
(0.894403 0.447197 0)
(0.894396 0.447204 0)
(0.8944 0.447193 0)
(0.894408 0.447207 0)
(0.894391 0.447201 0)
(0.894401 0.447199 0)
(0.8944 0.447207 0)
(0.894393 0.447202 0)
(0.894396 0.447209 0)
(0.894389 0.447212 0)
(0.894388 0.44722 0)
(0.894379 0.44723 0)
(0.894376 0.44724 0)
(0.894368 0.447257 0)
(0.894365 0.447276 0)
(0.894362 0.447298 0)
(0.894364 0.447323 0)
(0.894369 0.447351 0)
(0.894376 0.447385 0)
(0.894375 0.447433 0)
(0.894357 0.447504 0)
(0.894302 0.447621 0)
(0.894183 0.447815 0)
(0.893972 0.448132 0)
(0.893628 0.448628 0)
(0.893116 0.449374 0)
(0.892409 0.450453 0)
(0.89149 0.451932 0)
(0.890363 0.453873 0)
(0.889072 0.456298 0)
(0.887663 0.459163 0)
(0.886202 0.462393 0)
(0.884754 0.465843 0)
(0.883356 0.469344 0)
(0.882015 0.472721 0)
(0.880728 0.475828 0)
(0.879478 0.478537 0)
(0.878259 0.480767 0)
(0.877119 0.482463 0)
(0.876081 0.483637 0)
(0.875237 0.484298 0)
(0.874645 0.484607 0)
(0.87435 0.484801 0)
(0.874598 0.485005 0)
(0.875454 0.485566 0)
(0.877209 0.486616 0)
(0.880008 0.4881 0)
(0.883964 0.489962 0)
(0.88905 0.491802 0)
(0.894813 0.493067 0)
(0.900534 0.493071 0)
(0.905417 0.49127 0)
(0.908735 0.487444 0)
(0.910052 0.481789 0)
(0.909429 0.475008 0)
(0.907379 0.468018 0)
(0.904608 0.46167 0)
(0.901767 0.456526 0)
(0.899301 0.452762 0)
(0.897405 0.450249 0)
(0.896084 0.448712 0)
(0.895244 0.447853 0)
(0.894758 0.44742 0)
(0.894507 0.447229 0)
(0.894398 0.447163 0)
(0.894364 0.447153 0)
(0.894363 0.447163 0)
(0.894373 0.447177 0)
(0.894383 0.447187 0)
(0.894391 0.447193 0)
(0.894395 0.447197 0)
(0.894398 0.447198 0)
(0.894399 0.447199 0)
(0.894399 0.4472 0)
(0.8944 0.4472 0)
(0.8944 0.4472 0)
(0.8944 0.4472 0)
(0.8944 0.4472 0)
(0.8944 0.4472 0)
(0.8944 0.4472 0)
(0.8944 0.4472 0)
(0.8944 0.4472 0)
(0.8944 0.4472 0)
(0.8944 0.4472 0)
(0.8944 0.4472 0)
(0.8944 0.4472 0)
(0.8944 0.4472 0)
(0.8944 0.4472 0)
(0.8944 0.4472 0)
(0.894399 0.4472 0)
(0.8944 0.447201 0)
(0.8944 0.447198 0)
(0.8944 0.447202 0)
(0.894398 0.447198 0)
(0.894403 0.447203 0)
(0.8944 0.447193 0)
(0.894394 0.447206 0)
(0.894407 0.447198 0)
(0.894398 0.447197 0)
(0.8944 0.447206 0)
(0.894399 0.447201 0)
(0.894398 0.447194 0)
(0.894408 0.447205 0)
(0.894393 0.447198 0)
(0.894396 0.447202 0)
(0.894401 0.447202 0)
(0.894394 0.447206 0)
(0.894395 0.447207 0)
(0.894389 0.447212 0)
(0.894387 0.44722 0)
(0.894377 0.44723 0)
(0.894375 0.447239 0)
(0.894366 0.447259 0)
(0.894355 0.447277 0)
(0.894353 0.447302 0)
(0.89435 0.447331 0)
(0.894353 0.447362 0)
(0.894355 0.4474 0)
(0.894355 0.44745 0)
(0.894336 0.447524 0)
(0.894285 0.447639 0)
(0.894168 0.447829 0)
(0.893951 0.448136 0)
(0.893593 0.448625 0)
(0.893042 0.449366 0)
(0.892256 0.450452 0)
(0.891199 0.451971 0)
(0.889876 0.453997 0)
(0.888305 0.456557 0)
(0.886562 0.459632 0)
(0.884743 0.463104 0)
(0.882931 0.466789 0)
(0.881195 0.470458 0)
(0.879558 0.473855 0)
(0.877977 0.476746 0)
(0.876383 0.478969 0)
(0.874719 0.480404 0)
(0.872934 0.480996 0)
(0.871073 0.480746 0)
(0.869109 0.479732 0)
(0.867172 0.478076 0)
(0.865176 0.476168 0)
(0.86339 0.47431 0)
(0.861964 0.472952 0)
(0.861202 0.47262 0)
(0.861609 0.473355 0)
(0.86348 0.475381 0)
(0.867319 0.478682 0)
(0.873272 0.482913 0)
(0.881086 0.487546 0)
(0.890114 0.491631 0)
(0.899189 0.494148 0)
(0.906852 0.494066 0)
(0.911883 0.490924 0)
(0.913776 0.485054 0)
(0.912817 0.477427 0)
(0.909891 0.469398 0)
(0.906125 0.462182 0)
(0.902475 0.456485 0)
(0.899486 0.452468 0)
(0.897325 0.449912 0)
(0.895917 0.448437 0)
(0.895086 0.44767 0)
(0.894646 0.447318 0)
(0.894444 0.447183 0)
(0.89437 0.44715 0)
(0.894357 0.447154 0)
(0.894365 0.447169 0)
(0.894378 0.447182 0)
(0.894387 0.447191 0)
(0.894393 0.447196 0)
(0.894397 0.447198 0)
(0.894399 0.447199 0)
(0.894399 0.447199 0)
(0.8944 0.4472 0)
(0.8944 0.4472 0)
(0.8944 0.4472 0)
(0.8944 0.4472 0)
(0.8944 0.4472 0)
(0.8944 0.4472 0)
(0.8944 0.4472 0)
(0.8944 0.4472 0)
(0.8944 0.4472 0)
(0.8944 0.4472 0)
(0.8944 0.4472 0)
(0.894401 0.4472 0)
(0.894399 0.4472 0)
(0.894401 0.447201 0)
(0.894399 0.447199 0)
(0.8944 0.447201 0)
(0.894401 0.447199 0)
(0.8944 0.447199 0)
(0.894398 0.447201 0)
(0.8944 0.4472 0)
(0.894406 0.447199 0)
(0.894392 0.447197 0)
(0.894401 0.447209 0)
(0.89441 0.447188 0)
(0.894386 0.447205 0)
(0.894408 0.447199 0)
(0.894391 0.447203 0)
(0.894408 0.447187 0)
(0.894405 0.447223 0)
(0.894385 0.447186 0)
(0.894407 0.447208 0)
(0.894396 0.447207 0)
(0.894384 0.4472 0)
(0.894401 0.447215 0)
(0.894378 0.447215 0)
(0.89438 0.44723 0)
(0.894371 0.447239 0)
(0.894361 0.447255 0)
(0.894352 0.44728 0)
(0.894343 0.447307 0)
(0.894338 0.447336 0)
(0.894335 0.44737 0)
(0.894334 0.447413 0)
(0.894332 0.447465 0)
(0.894316 0.447539 0)
(0.894266 0.447651 0)
(0.894155 0.447833 0)
(0.89394 0.448128 0)
(0.893578 0.448595 0)
(0.893006 0.449314 0)
(0.892165 0.450378 0)
(0.891012 0.451888 0)
(0.88951 0.453928 0)
(0.887692 0.456558 0)
(0.885636 0.459737 0)
(0.883446 0.463351 0)
(0.881278 0.46719 0)
(0.879238 0.470925 0)
(0.877365 0.474237 0)
(0.875615 0.476798 0)
(0.873871 0.478363 0)
(0.871954 0.478774 0)
(0.86973 0.477976 0)
(0.867127 0.475953 0)
(0.864125 0.472824 0)
(0.860693 0.468714 0)
(0.856847 0.464012 0)
(0.852516 0.459257 0)
(0.848077 0.454976 0)
(0.843633 0.452027 0)
(0.840075 0.450783 0)
(0.837941 0.451361 0)
(0.837966 0.453979 0)
(0.840809 0.458243 0)
(0.846775 0.464093 0)
(0.856095 0.471257 0)
(0.868445 0.479215 0)
(0.882544 0.486824 0)
(0.896321 0.492357 0)
(0.907584 0.494433 0)
(0.914737 0.492311 0)
(0.917221 0.486403 0)
(0.915703 0.478165 0)
(0.911727 0.469415 0)
(0.906958 0.461683 0)
(0.902611 0.455782 0)
(0.899268 0.451805 0)
(0.897005 0.449406 0)
(0.895632 0.448108 0)
(0.894887 0.447485 0)
(0.894532 0.447231 0)
(0.894391 0.447154 0)
(0.894354 0.447147 0)
(0.894357 0.447161 0)
(0.894371 0.447176 0)
(0.894383 0.447187 0)
(0.894391 0.447194 0)
(0.894396 0.447197 0)
(0.894398 0.447199 0)
(0.894399 0.447199 0)
(0.894399 0.4472 0)
(0.8944 0.4472 0)
(0.8944 0.4472 0)
(0.8944 0.4472 0)
(0.8944 0.4472 0)
(0.8944 0.4472 0)
(0.8944 0.4472 0)
(0.894399 0.4472 0)
(0.894401 0.4472 0)
(0.894399 0.4472 0)
(0.894401 0.447201 0)
(0.8944 0.447199 0)
(0.8944 0.447201 0)
(0.894401 0.4472 0)
(0.894399 0.447199 0)
(0.894401 0.447202 0)
(0.8944 0.447197 0)
(0.894399 0.447203 0)
(0.894398 0.447198 0)