/*--------------------------------*- C++ -*----------------------------------*\
  =========                 |
  \\      /  F ield         | OpenFOAM: The Open Source CFD Toolbox
   \\    /   O peration     | Website:  https://openfoam.org
    \\  /    A nd           | Version:  6
     \\/     M anipulation  |
\*---------------------------------------------------------------------------*/
FoamFile
{
    version     2.0;
    format      ascii;
    class       volScalarField;
    location    "2.8";
    object      k;
}
// * * * * * * * * * * * * * * * * * * * * * * * * * * * * * * * * * * * * * //

dimensions      [0 2 -2 0 0 0 0];

internalField   nonuniform List<scalar> 
4214
(
0.107141
0.0465193
0.025744
0.018703
0.0165317
0.0162865
0.0174009
0.0209801
0.0311155
0.0582207
0.12642
0.282895
0.600368
1.1513
1.94762
2.86652
3.64482
3.95895
3.65057
3.10487
2.67389
1.97958
1.1808
0.698515
0.451191
0.302683
0.200111
0.12809
0.080025
0.0502375
0.0331612
0.0240708
0.019531
0.0173663
0.0163938
0.0161326
0.016683
0.0190109
0.026128
0.0467148
0.106687
0.0268287
0.0194473
0.0167331
0.0158777
0.0158424
0.0164081
0.0180826
0.0226756
0.0355299
0.0697941
0.155914
0.35317
0.752753
1.44172
2.41797
3.5079
4.32973
4.43525
3.77766
3.14965
2.70132
1.9783
1.21815
0.763885
0.516159
0.356617
0.240741
0.156124
0.0977938
0.0606628
0.0388999
0.0271031
0.0211288
0.0182465
0.0168836
0.016239
0.0160096
0.0162277
0.0173324
0.0206343
0.0296292
0.0166361
0.0158297
0.0156032
0.0156855
0.0160365
0.0168626
0.0190005
0.0247919
0.0410348
0.084153
0.192396
0.440366
0.943643
1.80642
3.00847
4.26906
5.04421
4.74212
3.72377
3.05444
2.65367
1.96065
1.26835
0.846766
0.597876
0.425342
0.293442
0.193177
0.121663
0.0748297
0.0467346
0.0312161
0.0232459
0.0193707
0.0175362
0.016638
0.0161711
0.0159406
0.0159294
0.0162576
0.0172862
0.015723
0.0156365
0.0157281
0.0159628
0.0164307
0.0174554
0.0201375
0.0274097
0.0478601
0.101827
0.237273
0.54808
1.18007
2.25767
3.71873
5.12883
5.74772
4.96965
3.73488
3.05764
2.66489
1.98674
1.35439
0.956441
0.701953
0.513249
0.361926
0.24226
0.15387
0.0942417
0.0575864
0.0369347
0.0261691
0.0208892
0.0184018
0.0172054
0.0165881
0.0162344
0.0160344
0.0159633
0.0160979
0.0157653
0.0158548
0.0160336
0.0163302
0.0168952
0.0181527
0.0215195
0.0306228
0.0562593
0.123356
0.291872
0.679772
1.46909
2.80617
4.54512
6.04564
6.34618
5.0939
3.73122
3.09388
2.68825
2.04356
1.47063
1.09311
0.831161
0.624086
0.45009
0.306932
0.19728
0.120914
0.0727027
0.0449457
0.0302364
0.0229409
0.01951
0.0178892
0.0170868
0.0166355
0.0163556
0.016166
0.0160652
0.0160564
0.0161935
0.0164065
0.0167486
0.0174263
0.0189751
0.0232081
0.034554
0.0665237
0.149304
0.357631
0.838804
1.81866
3.45804
5.46918
6.98166
6.83475
5.18
3.74234
3.14492
2.7353
2.13947
1.6235
1.26247
0.991218
0.763489
0.563192
0.391889
0.255791
0.157708
0.0939378
0.0563218
0.0360174
0.0258041
0.0209922
0.0187439
0.0176793
0.0171097
0.0167676
0.016524
0.0163532
0.0164272
0.016583
0.0168186
0.0172106
0.0180332
0.0199511
0.0252774
0.0393371
0.0789717
0.180207
0.435889
1.02723
2.23594
4.20623
6.4584
7.88914
7.24548
5.25495
3.77252
3.20795
2.81251
2.27785
1.81661
1.4703
1.18875
0.937928
0.707281
0.502727
0.334282
0.208422
0.123884
0.0726165
0.044356
0.0298899
0.0230398
0.019846
0.01839
0.0176509
0.017237
0.0169517
0.0167402
0.0168423
0.017006
0.0172655
0.0177216
0.018736
0.0211197
0.0278202
0.0451174
0.0939471
0.216515
0.527551
1.24679
2.7171
5.02694
7.4724
8.74454
7.62712
5.34218
3.82951
3.28872
2.92516
2.46118
2.05481
1.72532
1.43346
1.15575
0.889901
0.646325
0.438844
0.278024
0.16613
0.0960871
0.0565305
0.0358366
0.0259635
0.0213284
0.0192767
0.0182775
0.0177636
0.017434
0.0172002
0.017286
0.0174579
0.0177505
0.0182929
0.0195632
0.0225293
0.0309513
0.0520483
0.111819
0.25851
0.633112
1.49763
3.24878
5.88331
8.46877
9.54949
8.03019
5.47823
3.91962
3.39149
3.07376
2.68837
2.34187
2.03719
1.73959
1.42888
1.12085
0.831294
0.576996
0.37283
0.225498
0.129933
0.0744511
0.0446184
0.0302548
0.0234014
0.020435
0.0190237
0.0183571
0.0179641
0.0177077
0.0177564
0.0179408
0.0182826
0.0189419
0.0205546
0.0242404
0.0348162
0.0602883
0.132994
0.306263
0.75224
1.7739
3.80678
6.72853
9.40754
10.3222
8.4964
5.68248
4.04677
3.52488
3.25389
2.9537
2.67571
2.40572
2.10974
1.77341
1.41377
1.06907
0.758302
0.500789
0.308295
0.178558
0.100933
0.0577082
0.0366952
0.0264004
0.0220273
0.0199498
0.0190419
0.0185452
0.0182593
0.0182562
0.0184621
0.0188775
0.0196933
0.0217662
0.0263283
0.0396057
0.0699996
0.157957
0.359491
0.883387
2.06078
4.35727
7.51342
10.2545
11.0726
9.0663
6.02074
4.21357
3.66842
3.45691
3.24953
3.05486
2.83843
2.55476
2.19333
1.78665
1.37571
0.995618
0.672177
0.422745
0.247858
0.140058
0.0772926
0.0465284
0.0308536
0.0243274
0.0211582
0.0198654
0.0191888
0.0188512
0.0187941
0.0190333
0.0195587
0.0205809
0.0232788
0.0288879
0.0455845
0.081353
0.187369
0.41749
1.0243
2.34352
4.86405
8.19087
10.9789
11.7731
9.79195
6.52254
4.43217
3.8229
3.68209
3.56871
3.47656
3.3399
3.09501
2.72378
2.26256
1.77258
1.30651
0.900548
0.579636
0.345438
0.197606
0.10651
0.0617265
0.0375789
0.0278005
0.0228186
0.0209181
0.019926
0.0194963
0.0193838
0.0196704
0.0203622
0.0216511
0.0252143
0.0320383
0.0531404
0.09452
0.222216
0.47921
1.17331
2.60685
5.29336
8.71909
11.5502
12.3985
10.617
7.21797
4.73362
3.983
3.90619
3.89582
3.92278
3.89112
3.71579
3.3619
2.86012
2.28464
1.71425
1.20396
0.793642
0.4809
0.281602
0.149611
0.0853854
0.047794
0.0332367
0.0252003
0.0223636
0.0208134
0.0202291
0.0200432
0.020394
0.0213466
0.0229665
0.0277648
0.0359233
0.0628774
0.109643
0.264154
0.543151
1.32997
2.83085
5.622
9.06491
11.9343
12.9049
11.3747
8.04331
5.22969
4.177
4.0965
4.20796
4.36456
4.46035
4.38818
4.09207
3.5828
2.93292
2.24642
1.60503
1.08536
0.666288
0.403337
0.211896
0.122335
0.0631988
0.0419856
0.0287139
0.0244989
0.0219382
0.0211088
0.0207988
0.0212313
0.0226136
0.024607
0.0312509
0.0406972
0.0757949
0.126763
0.316225
0.607391
1.50092
3.0037
5.85083
9.21065
12.0993
13.2389
12.019
8.91016
5.86493
4.47418
4.26962
4.49971
4.7737
5.01171
5.07023
4.87395
4.40605
3.71911
2.92803
2.12741
1.48318
0.916
0.579651
0.299168
0.180135
0.0858953
0.0563687
0.0339318
0.0278739
0.023429
0.0222453
0.0216997
0.0222159
0.0243549
0.0266545
0.0362432
0.0464542
0.0936525
0.145536
0.384085
0.667918
1.70365
3.11221
6.0088
9.13901
12.0138
13.3372
12.4575
9.70119
6.62716
4.90767
4.4927
4.72932
5.12011
5.50861
5.71439
5.65443
5.27626
4.60988
3.768
2.78475
2.0249
1.24295
0.837822
0.416242
0.270917
0.117854
0.0804079
0.0415019
0.033531
0.0254556
0.0238671
0.0228683
0.0233744
0.0269621
0.0291157
0.0438432
0.0529847
0.119749
0.164388
0.478494
0.715954
1.97812
3.12577
6.16819
8.79087
11.6265
13.0965
12.514
10.2958
7.354
5.45329
4.80806
4.96138
5.44446
5.90119
6.25949
6.38692
6.12051
5.53742
4.74382
3.55528
2.76434
1.64348
1.22263
0.563477
0.41493
0.159381
0.121114
0.0517394
0.0434836
0.0281524
0.0264811
0.0233542
0.0223362
0.021424
0.0206218
0.0199089
0.019261
0.0186566
0.0180819
0.0175367
0.0170403
0.0165959
0.0162709
0.016093
0.0166184
0.0198153
0.0538134
0.288431
0.0230906
0.0221134
0.0213182
0.0206295
0.0200043
0.0194185
0.0188579
0.018318
0.0178029
0.0173321
0.0169085
0.0166062
0.0164688
0.0170792
0.0205281
0.0545433
0.309041
0.0225294
0.021892
0.0212806
0.0206997
0.0201432
0.0196033
0.0190749
0.0185616
0.0180747
0.0176291
0.01723
0.0169489
0.0168663
0.0175777
0.0212814
0.0560916
0.319968
0.0225243
0.0219282
0.021371
0.020841
0.0203273
0.0198204
0.0193184
0.0188298
0.0183693
0.0179476
0.0175741
0.0173147
0.0172897
0.0181206
0.0220797
0.0573966
0.328747
0.0225042
0.0220001
0.0215064
0.0210226
0.0205441
0.0200655
0.0195884
0.0191249
0.0186892
0.0182908
0.0179432
0.0177079
0.017742
0.0186878
0.0229056
0.0585279
0.334437
0.0226059
0.022153
0.0216964
0.0212436
0.0207913
0.0203363
0.0198841
0.0194473
0.0190371
0.0186615
0.0183393
0.0181321
0.0182276
0.0192606
0.02379
0.0595854
0.338982
0.0228026
0.0223599
0.0219256
0.0214961
0.021065
0.0206318
0.0202055
0.0197971
0.0194138
0.0190623
0.0187658
0.0185923
0.0187536
0.0198911
0.0247402
0.0606726
0.342406
0.0229616
0.0225813
0.0221804
0.0217745
0.0213636
0.0209529
0.0205537
0.0201745
0.019819
0.0194934
0.0192252
0.0190918
0.0193242
0.0205922
0.0257665
0.0618983
0.345123
0.0232713
0.0228679
0.0224723
0.0220802
0.0216879
0.0213013
0.0209308
0.0205808
0.0202528
0.0199547
0.019719
0.0196316
0.0199438
0.0213724
0.0269177
0.0634624
0.347397
0.0234719
0.0231393
0.0227758
0.0224062
0.0220372
0.0216784
0.0213382
0.0210172
0.0207168
0.0204473
0.0202479
0.0202121
0.0206162
0.0222323
0.0282207
0.0654976
0.349994
0.0238556
0.0234818
0.0231159
0.0227602
0.0224157
0.0220867
0.0217771
0.0214847
0.0212124
0.0209731
0.0208138
0.0208356
0.0213463
0.0231713
0.0296683
0.0679193
0.352607
0.0240925
0.0237946
0.0234634
0.0231369
0.0228238
0.0225273
0.0222484
0.0219845
0.0217411
0.0215339
0.0214189
0.0215047
0.0221377
0.0241969
0.0312851
0.0706343
0.355341
0.0245303
0.0241819
0.0238518
0.0235481
0.0232666
0.0230023
0.0227533
0.0225179
0.0223043
0.0221313
0.0220651
0.022221
0.0229906
0.0253066
0.0330727
0.0733129
0.35776
0.0248034
0.0245382
0.0242535
0.0239892
0.0237442
0.0235126
0.0232931
0.0230866
0.022904
0.0227676
0.0227545
0.0229871
0.0239073
0.0264988
0.0349345
0.0760263
0.359606
0.0252831
0.0249732
0.0247037
0.0244712
0.0242601
0.0240599
0.0238697
0.0236926
0.0235424
0.0234457
0.023489
0.0238058
0.0248882
0.0277729
0.0368786
0.0790244
0.360885
0.0256003
0.0253899
0.0251776
0.0249892
0.0248137
0.0246451
0.0244846
0.0243382
0.0242222
0.0241685
0.0242713
0.0246805
0.0259317
0.0291322
0.0389347
0.0821126
0.361568
0.02612
0.0258885
0.0257045
0.02555
0.0254069
0.02527
0.0251402
0.0250263
0.0249467
0.024939
0.0251049
0.0256135
0.0270434
0.030571
0.0410805
0.08535
0.361695
0.0265026
0.0263886
0.0262616
0.0261489
0.0260399
0.0259362
0.025839
0.0257602
0.0257198
0.0257609
0.0259935
0.0266071
0.0282242
0.0320863
0.0432924
0.0886885
0.360868
0.0270683
0.0269633
0.0268667
0.0267899
0.0267144
0.0266459
0.0265842
0.0265435
0.0265452
0.0266388
0.0269409
0.0276635
0.0294749
0.0336739
0.0455733
0.0921598
0.359271
0.0275453
0.0275538
0.027504
0.0274701
0.0274317
0.0274018
0.027379
0.0273801
0.0274273
0.0275775
0.0279505
0.0287848
0.0307882
0.0353263
0.0479003
0.0955462
0.356565
0.0281616
0.0282024
0.0281851
0.0281928
0.0281949
0.0282076
0.0282283
0.0282749
0.0283721
0.0285812
0.0290265
0.0299739
0.0321587
0.037034
0.0502461
0.0983863
0.352419
0.0287803
0.0288727
0.0289047
0.0289594
0.0290077
0.0290674
0.0291369
0.0292341
0.0293862
0.0296575
0.0301773
0.0312382
0.0335939
0.0388019
0.0526433
0.101195
0.347317
0.0294471
0.0295873
0.0296721
0.0297749
0.029875
0.0299868
0.0301113
0.030265
0.0304776
0.0308153
0.0314125
0.0325837
0.0350883
0.0406348
0.0551096
0.103987
0.341293
0.0301604
0.0303357
0.0304814
0.0306415
0.0308013
0.0309722
0.0311582
0.031375
0.0316532
0.0320601
0.0327351
0.0340049
0.0366369
0.0424734
0.0574965
0.106276
0.335655
0.030898
0.0311381
0.0313452
0.0315664
0.031792
0.0320302
0.0322855
0.032573
0.032923
0.0334018
0.0341514
0.0355017
0.0382279
0.0442653
0.0596719
0.108175
0.330624
0.0316859
0.0319781
0.0322592
0.0325532
0.0328541
0.0331691
0.0335033
0.0338711
0.0343014
0.0348578
0.035681
0.0370968
0.0398807
0.0460202
0.0616223
0.109697
0.326219
0.0325057
0.0328777
0.0332351
0.0336089
0.0339948
0.0343978
0.0348231
0.0352835
0.0358059
0.0364497
0.0373502
0.0388221
0.0416297
0.0477807
0.0633789
0.111062
0.322423
0.0333792
0.0338223
0.0342716
0.0347387
0.0352222
0.0357268
0.0362576
0.0368263
0.0374569
0.0382036
0.0391917
0.0407198
0.0435285
0.049618
0.0650625
0.11227
0.31919
0.0342921
0.0348323
0.0353787
0.0359501
0.0365451
0.0371673
0.0378214
0.0385178
0.0392778
0.0401494
0.0412447
0.0428409
0.0456415
0.0516023
0.066753
0.1134
0.316444
0.0352577
0.035896
0.0365579
0.0372498
0.0379731
0.0387318
0.0395306
0.0403788
0.0412952
0.0423212
0.0435547
0.0452443
0.0480449
0.0538292
0.0685356
0.114425
0.314097
0.0362727
0.0370312
0.037818
0.0386462
0.0395169
0.0404343
0.0414033
0.0424327
0.0435392
0.0447582
0.0461729
0.0479991
0.0508309
0.0564213
0.0705358
0.11539
0.312058
0.0373427
0.0382297
0.0391628
0.0401476
0.0411883
0.0422904
0.0434599
0.0447061
0.0460442
0.047505
0.0491583
0.0511858
0.054109
0.0595292
0.0729464
0.11643
0.310245
0.038469
0.0395066
0.0406006
0.0417634
0.0430002
0.0443176
0.0457237
0.0472294
0.0488502
0.0506141
0.0525802
0.0548985
0.0580089
0.0633358
0.0760107
0.117733
0.308584
0.0396553
0.0408566
0.0421368
0.043504
0.044967
0.0465357
0.0482215
0.0500383
0.0520045
0.054148
0.0565213
0.0592484
0.0626887
0.0680626
0.0800275
0.119583
0.307006
0.0409019
0.0422923
0.0437799
0.0453802
0.0471048
0.0489675
0.0509844
0.0531752
0.0555638
0.0581828
0.0610838
0.0643735
0.0683417
0.0739888
0.0854001
0.12243
0.305455
0.0422125
0.0438107
0.0455367
0.0474047
0.0494323
0.0516395
0.0540498
0.0566914
0.0595981
0.062813
0.0663961
0.070449
0.075211
0.0814727
0.0926556
0.126916
0.303883
0.0435865
0.0454224
0.047416
0.0495907
0.0519702
0.0545827
0.0574622
0.0606496
0.0641947
0.0681595
0.0726241
0.077705
0.0836202
0.0909907
0.102517
0.134012
0.302247
0.0450267
0.0471256
0.0494256
0.051953
0.054742
0.0578328
0.0612744
0.0651267
0.0694636
0.0743777
0.079987
0.0864502
0.0940107
0.103195
0.116017
0.14526
0.300511
0.0465311
0.0489285
0.0515739
0.0545068
0.0577735
0.0614309
0.0655495
0.0702169
0.0755433
0.0816697
0.0887781
0.0971101
0.107003
0.119015
0.134654
0.16308
0.298633
0.0481004
0.0508295
0.053869
0.0572691
0.0610948
0.0654262
0.0703647
0.0760387
0.0826136
0.0903057
0.0994021
0.110291
0.123513
0.139855
0.160727
0.191575
0.296558
0.0498485
0.0511811
0.0525243
0.0538716
0.0552163
0.0565518
0.0578691
0.0591594
0.0604132
0.0616206
0.0627719
0.0638565
0.0648645
0.0657855
0.0666101
0.0673293
0.0679349
0.0684199
0.0687781
0.0690051
0.0690937
0.068999
0.0687629
0.0683967
0.0679032
0.0672892
0.0665617
0.065729
0.0648004
0.0637851
0.0626936
0.0615359
0.0603227
0.0590637
0.0577691
0.0564477
0.0551087
0.0537603
0.0524103
0.0510659
0.049732
0.0529473
0.0543571
0.0557769
0.0571977
0.0586151
0.0600196
0.0614047
0.0627585
0.0640738
0.0653383
0.0665435
0.0676771
0.0687303
0.0696911
0.070551
0.0712999
0.0719302
0.0724341
0.0728059
0.0730404
0.0731313
0.0730345
0.0727911
0.0724117
0.0718995
0.0712611
0.070504
0.0696364
0.0686679
0.0676078
0.0664674
0.0652561
0.0639858
0.0626656
0.0613071
0.0599184
0.0585104
0.0570896
0.0556665
0.0542458
0.0528353
0.056428
0.0579206
0.05942
0.0609205
0.0624145
0.0638941
0.0653501
0.066773
0.0681527
0.0694787
0.0707404
0.0719268
0.0730271
0.0740307
0.0749275
0.0757082
0.0763643
0.0768884
0.0772743
0.0775171
0.0776102
0.0775114
0.0772603
0.0768669
0.076335
0.0756709
0.0748824
0.073978
0.0729672
0.07186
0.0706672
0.0693996
0.0680682
0.0666836
0.0652565
0.0637968
0.062314
0.0608172
0.0593147
0.0578139
0.0563203
0.0603627
0.0619426
0.0635273
0.0651116
0.0666878
0.068247
0.0697794
0.0712752
0.072724
0.0741148
0.0754368
0.0766786
0.0778292
0.0788778
0.0798138
0.0806278
0.0813112
0.0818565
0.0822574
0.0825089
0.0826043
0.0825034
0.0822442
0.0818362
0.0812835
0.0805924
0.0797709
0.0788276
0.0777722
0.0766151
0.0753672
0.0740396
0.0726437
0.0711904
0.0696906
0.0681548
0.066593
0.0650143
0.0634274
0.0618405
0.0602592
0.0648389
0.0665127
0.0681886
0.0698622
0.0715257
0.0731694
0.0747831
0.0763563
0.0778782
0.0793377
0.0807234
0.0820237
0.0832273
0.0843231
0.0853003
0.0861493
0.0868614
0.0874289
0.0878455
0.088106
0.0882039
0.0881009
0.0878332
0.0874098
0.0868354
0.0861161
0.08526
0.0842759
0.0831737
0.081964
0.0806581
0.0792672
0.077803
0.0762769
0.0747001
0.0730835
0.0714374
0.0697715
0.0680947
0.066416
0.0647408
0.0699699
0.0717441
0.0735175
0.0752864
0.0770423
0.0787755
0.080475
0.08213
0.0837292
0.085261
0.0867136
0.0880752
0.0893342
0.0904794
0.0914996
0.0923851
0.093127
0.0937176
0.0941504
0.0944203
0.0945207
0.0944156
0.0941393
0.0936999
0.093103
0.0923545
0.0914623
0.0904357
0.0892847
0.08802
0.0866532
0.0851958
0.0836599
0.082057
0.0803989
0.0786968
0.0769614
0.0752027
0.0734302
0.0716539
0.0698782
0.0759008
0.0777822
0.0796594
0.0815294
0.0833831
0.0852103
0.0869998
0.0887405
0.0904206
0.0920279
0.0935503
0.0949756
0.0962921
0.0974883
0.0985528
0.099476
0.100249
0.100863
0.101312
0.101592
0.101695
0.101587
0.101302
0.100847
0.100227
0.0994481
0.0985189
0.0974485
0.096247
0.0949254
0.0934954
0.0919689
0.0903581
0.0886749
0.0869315
0.0851393
0.0833097
0.0814532
0.0795797
0.0776998
0.0758169
0.0828206
0.0848158
0.0868025
0.0887788
0.090735
0.0926605
0.0945435
0.0963729
0.0981365
0.0998217
0.101416
0.102906
0.104281
0.10553
0.106639
0.1076
0.108404
0.109042
0.109508
0.109797
0.109903
0.109793
0.109499
0.109028
0.108385
0.107576
0.106609
0.105494
0.104241
0.102862
0.101367
0.0997695
0.0980815
0.0963153
0.0944833
0.0925975
0.0906698
0.0887109
0.0867313
0.0847421
0.0827456
0.0909789
0.0930934
0.0951943
0.0972809
0.0993431
0.101369
0.103348
0.105268
0.107116
0.108879
0.110546
0.112102
0.113535
0.114835
0.115989
0.116987
0.117821
0.118483
0.118965
0.119263
0.119371
0.11926
0.118958
0.11847
0.117805
0.116966
0.115962
0.114804
0.1135
0.112063
0.110503
0.108835
0.107069
0.105218
0.103296
0.101315
0.0992865
0.0972219
0.0951325
0.0930294
0.0909138
0.100711
0.102948
0.105165
0.107363
0.109532
0.11166
0.113734
0.115742
0.117673
0.119512
0.121249
0.122868
0.124357
0.125706
0.126902
0.127936
0.128798
0.129481
0.129978
0.130285
0.130395
0.130282
0.129972
0.129471
0.128784
0.127918
0.12688
0.12568
0.124328
0.122835
0.121214
0.119476
0.117634
0.115701
0.11369
0.111614
0.109485
0.107314
0.105113
0.102894
0.100657
0.112478
0.114834
0.117165
0.119472
0.121743
0.123967
0.12613
0.128222
0.130229
0.132138
0.133937
0.135613
0.137152
0.138544
0.139776
0.14084
0.141727
0.142428
0.142938
0.143251
0.143363
0.143249
0.142933
0.142419
0.141715
0.140826
0.139758
0.138522
0.137128
0.135587
0.13391
0.132109
0.130198
0.128189
0.126095
0.12393
0.121705
0.119432
0.117123
0.114791
0.112434
0.12692
0.129384
0.131819
0.134222
0.136584
0.13889
0.14113
0.14329
0.145359
0.147324
0.149172
0.15089
0.152466
0.15389
0.155148
0.156233
0.157136
0.157849
0.158367
0.158684
0.158796
0.158682
0.158363
0.157842
0.157127
0.156222
0.155134
0.153873
0.152448
0.150871
0.149151
0.147302
0.145335
0.143264
0.141103
0.138862
0.136554
0.134192
0.131787
0.129352
0.126887
0.14496
0.147504
0.150016
0.152489
0.154912
0.157273
0.159561
0.161762
0.163865
0.165858
0.167729
0.169466
0.171056
0.17249
0.173756
0.174845
0.17575
0.176465
0.176982
0.177298
0.177409
0.177297
0.176979
0.17646
0.175744
0.174837
0.173746
0.172478
0.171044
0.169453
0.167715
0.165843
0.163849
0.161744
0.159542
0.157254
0.154892
0.152468
0.149994
0.147482
0.144937
0.167954
0.170521
0.173056
0.175544
0.177974
0.180336
0.182617
0.184807
0.186893
0.188866
0.190714
0.192425
0.193989
0.195397
0.196638
0.197703
0.198588
0.199285
0.199788
0.200096
0.200202
0.200095
0.199787
0.199282
0.198584
0.197698
0.196631
0.195389
0.193982
0.192417
0.190705
0.188857
0.186883
0.184795
0.182605
0.180323
0.177961
0.175531
0.173042
0.170508
0.16794
0.197967
0.200447
0.202898
0.205296
0.20763
0.20989
0.212067
0.21415
0.216129
0.217994
0.219737
0.221347
0.222815
0.224133
0.225294
0.226288
0.227113
0.227761
0.228228
0.228513
0.228611
0.228512
0.228227
0.227759
0.227111
0.226286
0.22529
0.22413
0.222811
0.221343
0.219732
0.217989
0.216123
0.214143
0.212061
0.209884
0.207623
0.205289
0.202891
0.20044
0.19796
0.238257
0.24044
0.242603
0.244711
0.246754
0.248725
0.250616
0.252419
0.254126
0.25573
0.257223
0.258599
0.259851
0.260971
0.261955
0.262797
0.263494
0.264041
0.264434
0.264673
0.264754
0.264673
0.264434
0.26404
0.263493
0.262796
0.261954
0.260969
0.259848
0.258597
0.257221
0.255728
0.254123
0.252417
0.250614
0.248723
0.246752
0.244708
0.242601
0.240438
0.238254
0.294193
0.295677
0.297157
0.29859
0.299973
0.301301
0.302569
0.303772
0.304908
0.30597
0.306956
0.30786
0.308681
0.309414
0.310055
0.310603
0.311056
0.31141
0.311664
0.311818
0.31187
0.311818
0.311664
0.311409
0.311055
0.310603
0.310055
0.309413
0.30868
0.30786
0.306955
0.30597
0.304907
0.303772
0.302568
0.3013
0.299973
0.29859
0.297157
0.295677
0.294192
0.287516
0.0463287
0.0186559
0.0161153
0.0157803
0.0159822
0.0163218
0.0167319
0.0171752
0.0176456
0.0181401
0.0186635
0.0192269
0.0198433
0.0205235
0.0212646
0.022049
0.302119
0.0467761
0.0192897
0.0165728
0.0161475
0.0163112
0.0166269
0.017017
0.0174396
0.0178886
0.0183587
0.0188508
0.0193723
0.0199363
0.020559
0.021255
0.0220246
0.308373
0.0480289
0.020019
0.0170667
0.0165437
0.0166591
0.01695
0.0173186
0.0177221
0.0181517
0.0186017
0.0190691
0.0195562
0.0200716
0.02063
0.021255
0.0219796
0.313354
0.0494678
0.0208281
0.017599
0.0169738
0.0170344
0.0172979
0.0176442
0.0180285
0.0184395
0.0188715
0.0193196
0.0197814
0.0202593
0.020759
0.0212904
0.0218713
0.317076
0.051141
0.0217317
0.0181832
0.0174392
0.017438
0.01767
0.0179928
0.0183571
0.0187493
0.0191638
0.0195957
0.0200401
0.0204956
0.020964
0.0214474
0.0219504
0.321077
0.0531149
0.0227391
0.0188222
0.017943
0.0178725
0.0180686
0.0183662
0.0187098
0.0190822
0.0194784
0.019894
0.0203235
0.0207629
0.021212
0.0216699
0.0221206
0.324959
0.0553795
0.0238603
0.0195285
0.0184891
0.0183407
0.0184959
0.0187662
0.0190878
0.0194394
0.0198158
0.0202136
0.0206278
0.0210526
0.0214865
0.0219379
0.0224276
0.329145
0.0579404
0.025101
0.0203003
0.019081
0.0188453
0.0189543
0.0191949
0.019493
0.0198228
0.020178
0.0205564
0.0209538
0.0213621
0.0217726
0.0221809
0.0225955
0.333488
0.0607626
0.026464
0.0211461
0.0197234
0.0193895
0.0194467
0.0196545
0.0199277
0.0202346
0.020567
0.0209239
0.0213033
0.0216987
0.0220992
0.0224899
0.0228399
0.337719
0.0638074
0.0279531
0.0220697
0.0204209
0.0199767
0.0199762
0.0201476
0.020394
0.0206769
0.0209853
0.0213175
0.0216743
0.0220532
0.0224479
0.0228559
0.0232883
0.341773
0.0670244
0.0295715
0.0230758
0.0211785
0.0206105
0.020546
0.0206769
0.0208945
0.0211523
0.0214355
0.021741
0.0220704
0.0224234
0.0227921
0.0231636
0.0235366
0.345622
0.0703537
0.0313225
0.0241693
0.0220009
0.0212941
0.0211588
0.0212449
0.0214315
0.0216627
0.0219199
0.0221978
0.0224987
0.0228257
0.023175
0.0235254
0.0238264
0.349192
0.0737582
0.0332067
0.0253509
0.0228903
0.0220304
0.0218176
0.0218544
0.0220073
0.0222102
0.0224403
0.0226895
0.0229594
0.0232563
0.0235867
0.0239506
0.0243416
0.352439
0.0771528
0.0352129
0.0266164
0.0238491
0.0228229
0.0225251
0.0225079
0.0226238
0.0227968
0.0229989
0.0232187
0.0234553
0.0237141
0.0240031
0.0243232
0.02467
0.355319
0.0804593
0.0373455
0.0279687
0.0248798
0.0236739
0.0232836
0.023208
0.0232835
0.0234243
0.0235972
0.0237876
0.0239918
0.024214
0.0244638
0.0247415
0.0250025
0.35728
0.0835956
0.0395566
0.0293989
0.0259796
0.0245851
0.0240956
0.0239571
0.0239887
0.0240948
0.0242369
0.024397
0.0245688
0.0247551
0.0249677
0.0252285
0.0255503
0.358458
0.0866837
0.0417638
0.0309007
0.0271451
0.0255572
0.0249629
0.0247577
0.024742
0.0248106
0.0249193
0.0250478
0.0251861
0.0253346
0.0254986
0.0256997
0.0259654
0.358559
0.0896476
0.0440152
0.0324699
0.0283721
0.0265909
0.0258877
0.0256122
0.0255462
0.0255741
0.0256469
0.0257417
0.0258459
0.0259585
0.0260783
0.0262217
0.0263679
0.357739
0.092556
0.0462997
0.0341011
0.0296571
0.0276866
0.026872
0.0265244
0.026404
0.026388
0.0264212
0.0264796
0.0265477
0.0266245
0.026704
0.0268127
0.026949
0.355636
0.0953937
0.0486219
0.0357872
0.0309977
0.0288451
0.0279172
0.0274962
0.0273184
0.0272555
0.0272458
0.027264
0.0272922
0.02733
0.0273646
0.0274251
0.0274843
0.351846
0.0981896
0.0509633
0.0375125
0.0323861
0.0300648
0.0290268
0.0285325
0.0282952
0.0281811
0.0281248
0.0280985
0.0280829
0.0280783
0.0280687
0.0280842
0.0280463
0.34689
0.10126
0.0533698
0.0392919
0.0338373
0.0313545
0.0302079
0.0296393
0.0293396
0.02917
0.0290623
0.0289862
0.0289224
0.0288708
0.0288167
0.0287871
0.0287025
0.341427
0.104218
0.055854
0.0411267
0.0353542
0.0327207
0.0314697
0.0308251
0.0304593
0.030229
0.0300641
0.0299321
0.0298149
0.0297105
0.0296049
0.0295154
0.0293911
0.3363
0.106829
0.0581443
0.0429101
0.0368884
0.0341445
0.032807
0.0320905
0.0316583
0.0313637
0.031136
0.0309423
0.0307656
0.0306014
0.0304373
0.0302893
0.0301223
0.331593
0.108857
0.060221
0.0446418
0.0384572
0.0356393
0.0342337
0.0334495
0.0329486
0.0325839
0.032286
0.0320231
0.0317788
0.0315477
0.0313213
0.0311127
0.0308817
0.327355
0.110438
0.062075
0.0463339
0.0400829
0.0372293
0.0357707
0.0349198
0.0343451
0.033902
0.0335245
0.0331827
0.0328611
0.0325546
0.0322566
0.0319725
0.0316739
0.323605
0.11167
0.0637207
0.0480244
0.041803
0.0389478
0.0374452
0.0365239
0.0358654
0.0353321
0.034863
0.0344305
0.034021
0.0336294
0.0332487
0.0328831
0.032521
0.320332
0.112742
0.0652942
0.0497954
0.0436743
0.0408386
0.0392909
0.0382883
0.0375304
0.0368905
0.036314
0.0357763
0.0352654
0.0347763
0.0343035
0.0338536
0.0334068
0.317487
0.113666
0.0668794
0.0517289
0.0457649
0.0429543
0.0413478
0.0402431
0.0393633
0.0385956
0.0378922
0.0372317
0.0366034
0.0360024
0.0354252
0.0348725
0.0343272
0.315003
0.114503
0.0685743
0.0539141
0.0481509
0.0453542
0.0436617
0.042423
0.041391
0.0404681
0.0396137
0.0388091
0.0380449
0.0373162
0.0366187
0.0359506
0.0353094
0.312811
0.115297
0.0705089
0.0564767
0.050926
0.0481078
0.0462839
0.0448667
0.0436434
0.0425315
0.0414966
0.0405225
0.0396001
0.0387243
0.0378901
0.037099
0.0363427
0.310841
0.116192
0.0728687
0.0595668
0.0541987
0.0512951
0.0492728
0.0476188
0.0461549
0.0448123
0.0435616
0.0423877
0.0412812
0.0402357
0.0392464
0.0383106
0.0374156
0.30903
0.117398
0.0759011
0.0633663
0.0580977
0.055009
0.0526971
0.0507313
0.0489651
0.047341
0.045832
0.0444223
0.0431011
0.0418603
0.040693
0.0395918
0.0385538
0.307322
0.119213
0.0799173
0.0680964
0.0627792
0.0593596
0.056639
0.0542664
0.0521216
0.0501535
0.0483344
0.046646
0.0450742
0.0436078
0.0422367
0.0409545
0.0397547
0.305663
0.122063
0.085307
0.074031
0.0684339
0.0644836
0.0611997
0.0583
0.0556812
0.0532921
0.0511002
0.0490815
0.0472167
0.0454894
0.043886
0.0423956
0.041001
0.304008
0.126598
0.092594
0.081525
0.0753028
0.0705551
0.0665075
0.0629271
0.0597137
0.0568078
0.0541663
0.0517554
0.049547
0.0475177
0.0456476
0.0439185
0.0423179
0.302315
0.133777
0.102492
0.0910502
0.083708
0.0778041
0.072729
0.0682683
0.0643064
0.0607634
0.0575773
0.0546985
0.052086
0.0497059
0.0475295
0.0455341
0.0437033
0.300542
0.145112
0.116023
0.103256
0.0940905
0.0865397
0.0800828
0.0744786
0.0695689
0.0652356
0.0613861
0.0579466
0.054857
0.0520685
0.049541
0.047242
0.0451388
0.298643
0.163011
0.134678
0.119069
0.10707
0.0971856
0.0888609
0.0817592
0.0756389
0.0703178
0.065655
0.0615401
0.0578854
0.0546206
0.051689
0.0490428
0.0466462
0.296561
0.191562
0.160752
0.139892
0.123559
0.110347
0.0994665
0.0903788
0.082695
0.0761277
0.0704604
0.0655277
0.0612008
0.0573788
0.0539813
0.0509444
0.0482222
0.0246349
0.0316432
0.0590354
0.178242
0.729029
2.9599
8.06302
12.3091
10.444
6.31601
5.33702
6.1979
7.04452
6.41857
4.34089
2.0767
0.725227
0.205065
0.0632999
0.0312649
0.0260535
0.0352647
0.0693334
0.208415
0.805732
3.04012
7.86398
11.8617
10.5259
6.77249
5.54793
6.36282
7.57953
7.38209
5.34402
2.69036
0.956491
0.270897
0.0799527
0.0355083
0.0279364
0.0401707
0.0830904
0.247677
0.903635
3.15627
7.71202
11.424
10.4998
7.14974
5.75626
6.53303
7.95504
8.22763
6.39136
3.43815
1.25858
0.358553
0.102747
0.0414747
0.0305013
0.0469297
0.101709
0.299484
1.03055
3.31404
7.57952
10.9754
10.405
7.44538
5.97741
6.67819
8.21923
8.90712
7.4375
4.32087
1.65212
0.475706
0.133801
0.0498914
0.0340832
0.0563834
0.127194
0.36879
1.19732
3.52826
7.47623
10.501
10.1926
7.65124
6.19377
6.79084
8.39289
9.38473
8.39231
5.29791
2.16405
0.631144
0.175936
0.0618032
0.0391999
0.0697751
0.162403
0.462666
1.41877
3.8167
7.41632
10.0085
9.87267
7.75563
6.37968
6.88473
8.4868
9.66683
9.19277
6.30201
2.79335
0.836926
0.233091
0.0787014
0.0466571
0.0889442
0.211456
0.591386
1.71355
4.18949
7.40237
9.5186
9.47066
7.75424
6.52036
6.95578
8.51072
9.80375
9.75336
7.25319
3.53525
1.1098
0.310932
0.102724
0.057714
0.116608
0.280374
0.769111
2.10385
4.64294
7.41071
9.04165
9.0193
7.6581
6.61532
7.0062
8.46778
9.81199
10.0521
8.05329
4.36175
1.4722
0.417363
0.136924
0.0743466
0.156796
0.378109
1.01694
2.61352
5.1378
7.39376
8.58082
8.54899
7.48915
6.67234
7.03813
8.37183
9.69477
10.0908
8.62771
5.19737
1.94446
0.563072
0.185891
0.0996743
0.215608
0.517754
1.36674
3.23428
5.5827
7.29439
8.12248
8.07945
7.27657
6.68123
7.04418
8.23062
9.4584
9.91127
8.91622
5.94998
2.50879
0.764526
0.256619
0.138653
0.302371
0.719286
1.83874
3.89085
5.87111
7.08449
7.66219
7.62229
7.044
6.64068
7.00895
8.04047
9.11382
9.55737
8.86743
6.49671
3.1552
1.04675
0.359986
0.199304
0.431103
1.01803
2.43222
4.4389
5.91528
6.77891
7.20629
7.18516
6.79542
6.5625
6.92205
7.79617
8.67036
9.06396
8.57508
6.73881
3.81085
1.43449
0.512494
0.294639
0.625125
1.43669
3.04933
4.7388
5.78435
6.43118
6.75705
6.77408
6.54324
6.45266
6.79875
7.4997
8.16942
8.46247
8.07196
6.64586
4.34756
1.92425
0.743089
0.446026
0.927667
1.96497
3.51257
4.74063
5.55077
6.04933
6.32288
6.38462
6.2961
6.31235
6.62673
7.15248
7.61833
7.77843
7.43565
6.33747
4.62221
2.4826
1.09756
0.695735
1.3529
2.46824
3.68918
4.6155
5.24762
5.66044
5.91089
6.02013
6.04349
6.13001
6.39135
6.75031
7.03255
7.03919
6.72619
5.88343
4.57987
2.96775
1.58709
1.08851
1.83561
2.78239
3.66892
4.39896
4.90578
5.26367
5.5118
5.66709
5.76757
5.88865
6.08188
6.29022
6.40504
6.31392
5.99609
5.34074
4.34332
3.23362
2.15376
1.60045
2.19241
2.85713
3.55138
4.10248
4.52337
4.8463
5.10252
5.29432
5.43961
5.56666
5.68801
5.77214
5.73859
5.57864
5.25061
4.7403
3.98612
3.18757
2.56776
1.96295
2.27183
2.79041
3.28203
3.71645
4.07549
4.37626
4.63499
4.84384
5.00303
5.11507
5.17571
5.15041
5.03739
4.82078
4.49761
4.07457
3.529
2.91999
2.49031
1.86181
2.10467
2.46791
2.83975
3.16881
3.4567
3.71868
3.95106
4.14236
4.28568
4.37571
4.38334
4.31608
4.16863
3.93998
3.64325
3.29058
2.8998
2.4634
2.07038
1.07529
1.25448
1.43969
1.61196
1.77469
1.93692
2.09565
2.22909
2.33177
2.4011
2.4342
2.41755
2.35774
2.25243
2.10143
1.91877
1.70589
1.48218
1.28477
1.10955
0.890176
1.79782
2.55335
2.23472
1.4001
0.803062