/*--------------------------------*- C++ -*----------------------------------*\
  =========                 |
  \\      /  F ield         | OpenFOAM: The Open Source CFD Toolbox
   \\    /   O peration     | Website:  https://openfoam.org
    \\  /    A nd           | Version:  6
     \\/     M anipulation  |
\*---------------------------------------------------------------------------*/
FoamFile
{
    version     2.0;
    format      ascii;
    class       volVectorField;
    location    "40";
    object      D;
}
// * * * * * * * * * * * * * * * * * * * * * * * * * * * * * * * * * * * * * //

dimensions      [0 1 0 0 0 0 0];

internalField   nonuniform List<vector> 
1000
(
(9.61754e-08 -5.60137e-09 0)
(8.82185e-08 -1.93816e-09 0)
(8.25169e-08 3.53601e-10 0)
(7.84526e-08 1.7785e-09 0)
(7.56331e-08 2.61722e-09 0)
(7.37883e-08 3.03822e-09 0)
(7.27251e-08 3.14682e-09 0)
(7.23031e-08 3.01057e-09 0)
(7.24198e-08 2.67237e-09 0)
(7.30194e-08 2.1598e-09 0)
(8.88236e-08 -6.55969e-09 0)
(8.03673e-08 -3.39574e-09 0)
(7.44122e-08 -1.40993e-09 0)
(7.02474e-08 -1.55091e-10 0)
(6.74225e-08 6.12254e-10 0)
(6.56306e-08 1.03443e-09 0)
(6.46561e-08 1.19767e-09 0)
(6.43461e-08 1.15499e-09 0)
(6.45944e-08 9.37935e-10 0)
(6.5339e-08 5.68426e-10 0)
(8.09128e-08 -7.62661e-09 0)
(7.20934e-08 -5.08316e-09 0)
(6.59933e-08 -3.47734e-09 0)
(6.1813e-08 -2.43185e-09 0)
(5.90453e-08 -1.7505e-09 0)
(5.73476e-08 -1.32514e-09 0)
(5.64831e-08 -1.09476e-09 0)
(5.62873e-08 -1.02494e-09 0)
(5.6647e-08 -1.09743e-09 0)
(5.74914e-08 -1.29922e-09 0)
(7.24468e-08 -8.81077e-09 0)
(6.34287e-08 -6.9851e-09 0)
(5.73195e-08 -5.81352e-09 0)
(5.32304e-08 -4.99929e-09 0)
(5.05963e-08 -4.40421e-09 0)
(4.90395e-08 -3.96318e-09 0)
(4.83043e-08 -3.64654e-09 0)
(4.82176e-08 -3.44203e-09 0)
(4.86623e-08 -3.34656e-09 0)
(4.95648e-08 -3.35722e-09 0)
(6.3419e-08 -1.01232e-08 0)
(5.43961e-08 -9.0842e-09 0)
(4.84465e-08 -8.37374e-09 0)
(4.45811e-08 -7.78705e-09 0)
(4.21711e-08 -7.25794e-09 0)
(4.08059e-08 -6.77478e-09 0)
(4.02169e-08 -6.34505e-09 0)
(4.02286e-08 -5.9811e-09 0)
(4.07263e-08 -5.69549e-09 0)
(4.16383e-08 -5.49568e-09 0)
(5.38057e-08 -1.15807e-08 0)
(4.50106e-08 -1.13621e-08 0)
(3.94338e-08 -1.10986e-08 0)
(3.59532e-08 -1.06983e-08 0)
(3.38687e-08 -1.01882e-08 0)
(3.27447e-08 -9.62164e-09 0)
(3.2312e-08 -9.04668e-09 0)
(3.24037e-08 -8.49986e-09 0)
(3.29148e-08 -8.00767e-09 0)
(3.3781e-08 -7.5864e-09 0)
(4.35561e-08 -1.32091e-08 0)
(3.52886e-08 -1.37932e-08 0)
(3.03581e-08 -1.38968e-08 0)
(2.74486e-08 -1.35911e-08 0)
(2.57896e-08 -1.30256e-08 0)
(2.4944e-08 -1.23253e-08 0)
(2.4664e-08 -1.15759e-08 0)
(2.48061e-08 -1.08322e-08 0)
(2.52838e-08 -1.01298e-08 0)
(2.60446e-08 -9.49026e-09 0)
(3.2577e-08 -1.50337e-08 0)
(2.52721e-08 -1.63117e-08 0)
(2.13333e-08 -1.66022e-08 0)
(1.91828e-08 -1.62468e-08 0)
(1.80223e-08 -1.554e-08 0)
(1.7464e-08 -1.46656e-08 0)
(1.73134e-08 -1.37304e-08 0)
(1.74653e-08 -1.27964e-08 0)
(1.78584e-08 -1.19012e-08 0)
(1.84554e-08 -1.10672e-08 0)
(2.07136e-08 -1.70041e-08 0)
(1.50756e-08 -1.87028e-08 0)
(1.25184e-08 -1.88927e-08 0)
(1.12576e-08 -1.83384e-08 0)
(1.06079e-08 -1.74395e-08 0)
(1.03087e-08 -1.63915e-08 0)
(1.02468e-08 -1.52958e-08 0)
(1.03634e-08 -1.42094e-08 0)
(1.06239e-08 -1.31658e-08 0)
(1.10066e-08 -1.21856e-08 0)
(7.69828e-09 -1.86806e-08 0)
(4.92132e-09 -2.03427e-08 0)
(4.055e-09 -2.02026e-08 0)
(3.67975e-09 -1.9433e-08 0)
(3.48618e-09 -1.83951e-08 0)
(3.39756e-09 -1.7243e-08 0)
(3.38402e-09 -1.60593e-08 0)
(3.42879e-09 -1.48928e-08 0)
(3.52131e-09 -1.37736e-08 0)
(3.65488e-09 -1.27204e-08 0)
(1.34912e-07 -1.22799e-10 0)
(1.32571e-07 2.6609e-10 0)
(1.30235e-07 5.31707e-10 0)
(1.28109e-07 6.92354e-10 0)
(1.26286e-07 7.77754e-10 0)
(1.24802e-07 8.09135e-10 0)
(1.2366e-07 8.00198e-10 0)
(1.22851e-07 7.59906e-10 0)
(1.22359e-07 6.94317e-10 0)
(1.22162e-07 6.08082e-10 0)
(1.34272e-07 -4.57339e-10 0)
(1.31765e-07 7.83281e-10 0)
(1.29326e-07 1.55978e-09 0)
(1.27138e-07 2.02703e-09 0)
(1.2528e-07 2.27741e-09 0)
(1.23776e-07 2.3705e-09 0)
(1.22626e-07 2.34541e-09 0)
(1.21816e-07 2.22827e-09 0)
(1.21326e-07 2.03738e-09 0)
(1.21133e-07 1.78756e-09 0)
(1.32817e-07 -8.26584e-10 0)
(1.29996e-07 1.22413e-09 0)
(1.27359e-07 2.48632e-09 0)
(1.25051e-07 3.24197e-09 0)
(1.23123e-07 3.64791e-09 0)
(1.21582e-07 3.8006e-09 0)
(1.20418e-07 3.76272e-09 0)
(1.1961e-07 3.57638e-09 0)
(1.19131e-07 3.27127e-09 0)
(1.18956e-07 2.87147e-09 0)
(1.30602e-07 -1.22688e-09 0)
(1.27331e-07 1.54366e-09 0)
(1.24418e-07 3.24477e-09 0)
(1.21941e-07 4.26181e-09 0)
(1.19914e-07 4.80949e-09 0)
(1.18324e-07 5.01831e-09 0)
(1.17143e-07 4.97235e-09 0)
(1.1634e-07 4.72794e-09 0)
(1.15884e-07 4.32485e-09 0)
(1.15739e-07 3.79503e-09 0)
(1.27662e-07 -1.6647e-09 0)
(1.23825e-07 1.70506e-09 0)
(1.20566e-07 3.77779e-09 0)
(1.1788e-07 5.01902e-09 0)
(1.15733e-07 5.69038e-09 0)
(1.14085e-07 5.95101e-09 0)
(1.12888e-07 5.90312e-09 0)
(1.12099e-07 5.61502e-09 0)
(1.11677e-07 5.13491e-09 0)
(1.11579e-07 4.50124e-09 0)
(1.24022e-07 -2.14919e-09 0)
(1.19531e-07 1.67765e-09 0)
(1.15873e-07 4.03829e-09 0)
(1.12948e-07 5.45681e-09 0)
(1.10668e-07 6.22924e-09 0)
(1.08957e-07 6.53622e-09 0)
(1.07749e-07 6.49368e-09 0)
(1.06984e-07 6.179e-09 0)
(1.06611e-07 5.64679e-09 0)
(1.06578e-07 4.94034e-09 0)
(1.19708e-07 -2.68996e-09 0)
(1.14505e-07 1.43647e-09 0)
(1.10414e-07 3.98977e-09 0)
(1.07233e-07 5.53099e-09 0)
(1.04814e-07 6.3778e-09 0)
(1.03045e-07 6.72437e-09 0)
(1.01833e-07 6.69525e-09 0)
(1.01105e-07 6.37331e-09 0)
(1.00797e-07 5.81692e-09 0)
(1.00849e-07 5.07223e-09 0)
(1.14744e-07 -3.29653e-09 0)
(1.08804e-07 9.62949e-10 0)
(1.04269e-07 3.60648e-09 0)
(1.00829e-07 5.21069e-09 0)
(9.82763e-08 6.10212e-09 0)
(9.64576e-08 6.48043e-09 0)
(9.52563e-08 6.4734e-09 0)
(9.45802e-08 6.16544e-09 0)
(9.43552e-08 5.61547e-09 0)
(9.45106e-08 4.86954e-09 0)
(1.09153e-07 -3.97809e-09 0)
(1.02486e-07 2.45141e-10 0)
(9.75189e-08 2.87356e-09 0)
(9.38345e-08 4.47858e-09 0)
(9.11626e-08 5.38319e-09 0)
(8.93105e-08 5.78454e-09 0)
(8.81356e-08 5.80837e-09 0)
(8.75289e-08 5.53707e-09 0)
(8.74049e-08 5.02714e-09 0)
(8.76847e-08 4.32043e-09 0)
(1.02957e-07 -4.74353e-09 0)
(9.56071e-08 -7.22246e-10 0)
(9.02427e-08 1.78704e-09 0)
(8.63446e-08 3.3311e-09 0)
(8.358e-08 4.2174e-09 0)
(8.17172e-08 4.63267e-09 0)
(8.05881e-08 4.69532e-09 0)
(8.00674e-08 4.4824e-09 0)
(8.0061e-08 4.04639e-09 0)
(8.0489e-08 3.42417e-09 0)
(1.22245e-07 4.89321e-10 0)
(1.22585e-07 3.53473e-10 0)
(1.23163e-07 2.17029e-10 0)
(1.23962e-07 8.17328e-11 0)
(1.24969e-07 -5.13912e-11 0)
(1.26172e-07 -1.81552e-10 0)
(1.27558e-07 -3.08098e-10 0)
(1.29116e-07 -4.30383e-10 0)
(1.30838e-07 -5.47758e-10 0)
(1.32712e-07 -6.5948e-10 0)
(1.34731e-07 -7.64723e-10 0)
(1.36883e-07 -8.62516e-10 0)
(1.3916e-07 -9.51744e-10 0)
(1.41551e-07 -1.0311e-09 0)
(1.44045e-07 -1.09908e-09 0)
(1.46629e-07 -1.15394e-09 0)
(1.4929e-07 -1.19368e-09 0)
(1.52012e-07 -1.2161e-09 0)
(1.54775e-07 -1.21923e-09 0)
(1.5756e-07 -1.2025e-09 0)
(1.21279e-07 1.44505e-09 0)
(1.21725e-07 1.04968e-09 0)
(1.22393e-07 6.48348e-10 0)
(1.2327e-07 2.47923e-10 0)
(1.24344e-07 -1.47712e-10 0)
(1.25604e-07 -5.3586e-10 0)
(1.27042e-07 -9.14323e-10 0)
(1.28646e-07 -1.28104e-09 0)
(1.30407e-07 -1.63392e-09 0)
(1.32318e-07 -1.97066e-09 0)
(1.3437e-07 -2.28868e-09 0)
(1.36553e-07 -2.58499e-09 0)
(1.38859e-07 -2.85618e-09 0)
(1.41278e-07 -3.09825e-09 0)
(1.43798e-07 -3.30664e-09 0)
(1.46409e-07 -3.47605e-09 0)
(1.49096e-07 -3.60044e-09 0)
(1.51844e-07 -3.6729e-09 0)
(1.54636e-07 -3.68516e-09 0)
(1.5745e-07 -3.6255e-09 0)
(1.19238e-07 2.32808e-09 0)
(1.19909e-07 1.69835e-09 0)
(1.20771e-07 1.05262e-09 0)
(1.21815e-07 4.02916e-10 0)
(1.23034e-07 -2.43457e-10 0)
(1.24421e-07 -8.81312e-10 0)
(1.25968e-07 -1.50643e-09 0)
(1.2767e-07 -2.11495e-09 0)
(1.29519e-07 -2.70304e-09 0)
(1.31507e-07 -3.26656e-09 0)
(1.3363e-07 -3.80097e-09 0)
(1.35878e-07 -4.30107e-09 0)
(1.38244e-07 -4.76093e-09 0)
(1.4072e-07 -5.17371e-09 0)
(1.43295e-07 -5.53155e-09 0)
(1.45959e-07 -5.82543e-09 0)
(1.487e-07 -6.04493e-09 0)
(1.51502e-07 -6.17783e-09 0)
(1.54348e-07 -6.20894e-09 0)
(1.57217e-07 -6.11621e-09 0)
(1.16225e-07 3.08573e-09 0)
(1.17227e-07 2.26187e-09 0)
(1.18375e-07 1.40519e-09 0)
(1.19668e-07 5.32877e-10 0)
(1.21103e-07 -3.43823e-10 0)
(1.22679e-07 -1.21657e-09 0)
(1.24393e-07 -2.07848e-09 0)
(1.2624e-07 -2.92335e-09 0)
(1.28219e-07 -3.7451e-09 0)
(1.30325e-07 -4.53739e-09 0)
(1.32553e-07 -5.29333e-09 0)
(1.34898e-07 -6.0052e-09 0)
(1.37354e-07 -6.66423e-09 0)
(1.39915e-07 -7.26042e-09 0)
(1.42571e-07 -7.78232e-09 0)
(1.45315e-07 -8.21672e-09 0)
(1.48133e-07 -8.5484e-09 0)
(1.51013e-07 -8.7594e-09 0)
(1.53939e-07 -8.82736e-09 0)
(1.56889e-07 -8.72045e-09 0)
(1.1233e-07 3.67238e-09 0)
(1.13758e-07 2.70817e-09 0)
(1.15278e-07 1.68568e-09 0)
(1.16895e-07 6.27255e-10 0)
(1.18614e-07 -4.51325e-10 0)
(1.20438e-07 -1.53783e-09 0)
(1.22369e-07 -2.622e-09 0)
(1.2441e-07 -3.69463e-09 0)
(1.2656e-07 -4.74686e-09 0)
(1.28819e-07 -5.76963e-09 0)
(1.31186e-07 -6.75325e-09 0)
(1.33659e-07 -7.68708e-09 0)
(1.36233e-07 -8.55913e-09 0)
(1.38905e-07 -9.35581e-09 0)
(1.41667e-07 -1.00616e-08 0)
(1.44514e-07 -1.06587e-08 0)
(1.47433e-07 -1.11266e-08 0)
(1.50415e-07 -1.14411e-08 0)
(1.53444e-07 -1.15722e-08 0)
(1.56501e-07 -1.1478e-08 0)
(1.07651e-07 4.04742e-09 0)
(1.09588e-07 3.00801e-09 0)
(1.11556e-07 1.87522e-09 0)
(1.13566e-07 6.76212e-10 0)
(1.15631e-07 -5.68083e-10 0)
(1.17759e-07 -1.84082e-09 0)
(1.19959e-07 -3.12767e-09 0)
(1.22237e-07 -4.41575e-09 0)
(1.24599e-07 -5.69284e-09 0)
(1.27048e-07 -6.94665e-09 0)
(1.29586e-07 -8.16426e-09 0)
(1.32215e-07 -9.33161e-09 0)
(1.34934e-07 -1.04331e-08 0)
(1.37741e-07 -1.14511e-08 0)
(1.40633e-07 -1.23655e-08 0)
(1.43604e-07 -1.31535e-08 0)
(1.46648e-07 -1.37885e-08 0)
(1.49753e-07 -1.42396e-08 0)
(1.52908e-07 -1.44687e-08 0)
(1.56095e-07 -1.4423e-08 0)
(1.02291e-07 4.17666e-09 0)
(1.04807e-07 3.1353e-09 0)
(1.0729e-07 1.95581e-09 0)
(1.09757e-07 6.69507e-10 0)
(1.12224e-07 -6.97179e-10 0)
(1.14709e-07 -2.12227e-09 0)
(1.17226e-07 -3.58674e-09 0)
(1.19785e-07 -5.07353e-09 0)
(1.22397e-07 -6.56652e-09 0)
(1.25071e-07 -8.04975e-09 0)
(1.27812e-07 -9.50662e-09 0)
(1.30626e-07 -1.09193e-08 0)
(1.33515e-07 -1.22682e-08 0)
(1.36482e-07 -1.35311e-08 0)
(1.39525e-07 -1.46831e-08 0)
(1.42642e-07 -1.56954e-08 0)
(1.45829e-07 -1.65352e-08 0)
(1.49078e-07 -1.7164e-08 0)
(1.52381e-07 -1.75346e-08 0)
(1.55722e-07 -1.75828e-08 0)
(9.63595e-08 4.0349e-09 0)
(9.95089e-08 3.0684e-09 0)
(1.02563e-07 1.91072e-09 0)
(1.0554e-07 5.96123e-10 0)
(1.08464e-07 -8.43549e-10 0)
(1.11355e-07 -2.38108e-09 0)
(1.14234e-07 -3.99249e-09 0)
(1.17117e-07 -5.65622e-09 0)
(1.20018e-07 -7.35187e-09 0)
(1.22952e-07 -9.05957e-09 0)
(1.25927e-07 -1.07587e-08 0)
(1.28954e-07 -1.24276e-08 0)
(1.32039e-07 -1.4042e-08 0)
(1.35187e-07 -1.55752e-08 0)
(1.38403e-07 -1.69967e-08 0)
(1.41686e-07 -1.82717e-08 0)
(1.45036e-07 -1.936e-08 0)
(1.48449e-07 -2.02151e-08 0)
(1.51919e-07 -2.078e-08 0)
(1.55436e-07 -2.09781e-08 0)
(8.99698e-08 3.60855e-09 0)
(9.37915e-08 2.79202e-09 0)
(9.74607e-08 1.72543e-09 0)
(1.00995e-07 4.44769e-10 0)
(1.0442e-07 -1.01408e-09 0)
(1.07764e-07 -2.61891e-09 0)
(1.11048e-07 -4.34127e-09 0)
(1.14295e-07 -6.15472e-09 0)
(1.17524e-07 -8.03495e-09 0)
(1.20751e-07 -9.95767e-09 0)
(1.23992e-07 -1.18987e-08 0)
(1.2726e-07 -1.38319e-08 0)
(1.30567e-07 -1.5729e-08 0)
(1.3392e-07 -1.7558e-08 0)
(1.37329e-07 -1.92829e-08 0)
(1.40798e-07 -2.08622e-08 0)
(1.4433e-07 -2.22484e-08 0)
(1.47926e-07 -2.33857e-08 0)
(1.51584e-07 -2.42068e-08 0)
(1.55298e-07 -2.46216e-08 0)
(8.32654e-08 2.90159e-09 0)
(8.77859e-08 2.30502e-09 0)
(9.20994e-08 1.39575e-09 0)
(9.62229e-08 2.10355e-10 0)
(1.00186e-07 -1.21247e-09 0)
(1.04018e-07 -2.83728e-09 0)
(1.07745e-07 -4.63081e-09 0)
(1.11393e-07 -6.56292e-09 0)
(1.14983e-07 -8.60473e-09 0)
(1.18536e-07 -1.07288e-08 0)
(1.22073e-07 -1.29066e-08 0)
(1.25609e-07 -1.51088e-08 0)
(1.29162e-07 -1.73026e-08 0)
(1.32743e-07 -1.94516e-08 0)
(1.36366e-07 -2.15139e-08 0)
(1.40041e-07 -2.34416e-08 0)
(1.43774e-07 -2.5179e-08 0)
(1.47572e-07 -2.6661e-08 0)
(1.51438e-07 -2.78087e-08 0)
(1.55372e-07 -2.85186e-08 0)
(7.82843e-08 1.69808e-09 0)
(8.33864e-08 1.27842e-09 0)
(8.82112e-08 4.90928e-10 0)
(9.2807e-08 -6.17434e-10 0)
(9.72072e-08 -2.00502e-09 0)
(1.01441e-07 -3.63421e-09 0)
(1.05536e-07 -5.47062e-09 0)
(1.09517e-07 -7.48246e-09 0)
(1.13407e-07 -9.63979e-09 0)
(1.1723e-07 -1.19134e-08 0)
(1.21007e-07 -1.42734e-08 0)
(1.24757e-07 -1.66883e-08 0)
(1.28499e-07 -1.91234e-08 0)
(1.32251e-07 -2.15392e-08 0)
(1.36029e-07 -2.38906e-08 0)
(1.39847e-07 -2.61252e-08 0)
(1.43717e-07 -2.81824e-08 0)
(1.47651e-07 -2.99909e-08 0)
(1.51656e-07 -3.14648e-08 0)
(1.55738e-07 -3.24901e-08 0)
(7.58229e-08 2.22427e-10 0)
(8.12071e-08 -1.81879e-10 0)
(8.63307e-08 -9.48691e-10 0)
(9.1222e-08 -2.04878e-09 0)
(9.59066e-08 -3.44354e-09 0)
(1.00409e-07 -5.09717e-09 0)
(1.04752e-07 -6.9772e-09 0)
(1.08959e-07 -9.05364e-09 0)
(1.13053e-07 -1.12978e-08 0)
(1.17054e-07 -1.36815e-08 0)
(1.20986e-07 -1.61754e-08 0)
(1.24868e-07 -1.8748e-08 0)
(1.28722e-07 -2.13641e-08 0)
(1.32567e-07 -2.39836e-08 0)
(1.36422e-07 -2.65601e-08 0)
(1.40306e-07 -2.90398e-08 0)
(1.44233e-07 -3.13598e-08 0)
(1.4822e-07 -3.34467e-08 0)
(1.5228e-07 -3.52122e-08 0)
(1.56424e-07 -3.65411e-08 0)
(7.40778e-08 -1.23208e-09 0)
(7.96729e-08 -1.66462e-09 0)
(8.50362e-08 -2.44063e-09 0)
(9.01776e-08 -3.54776e-09 0)
(9.51107e-08 -4.95675e-09 0)
(9.98521e-08 -6.6369e-09 0)
(1.0442e-07 -8.55936e-09 0)
(1.08835e-07 -1.0697e-08 0)
(1.13115e-07 -1.30237e-08 0)
(1.17282e-07 -1.55132e-08 0)
(1.21357e-07 -1.81376e-08 0)
(1.25363e-07 -2.08665e-08 0)
(1.2932e-07 -2.36655e-08 0)
(1.3325e-07 -2.64943e-08 0)
(1.37177e-07 -2.93064e-08 0)
(1.4112e-07 -3.20467e-08 0)
(1.45101e-07 -3.46512e-08 0)
(1.49138e-07 -3.7045e-08 0)
(1.53249e-07 -3.91386e-08 0)
(1.57452e-07 -4.08166e-08 0)
(7.30544e-08 -2.66248e-09 0)
(7.88246e-08 -3.14982e-09 0)
(8.43862e-08 -3.95987e-09 0)
(8.97393e-08 -5.09102e-09 0)
(9.48877e-08 -6.52377e-09 0)
(9.98403e-08 -8.23451e-09 0)
(1.0461e-07 -1.01997e-08 0)
(1.09211e-07 -1.23964e-08 0)
(1.13661e-07 -1.48022e-08 0)
(1.1798e-07 -1.73937e-08 0)
(1.22186e-07 -2.01459e-08 0)
(1.26303e-07 -2.30304e-08 0)
(1.30354e-07 -2.60144e-08 0)
(1.34362e-07 -2.90589e-08 0)
(1.38351e-07 -3.21175e-08 0)
(1.42348e-07 -3.51351e-08 0)
(1.46376e-07 -3.80471e-08 0)
(1.50458e-07 -4.07774e-08 0)
(1.54618e-07 -4.32357e-08 0)
(1.58878e-07 -4.53084e-08 0)
(7.27287e-08 -4.06525e-09 0)
(7.86559e-08 -4.6263e-09 0)
(8.43924e-08 -5.48882e-09 0)
(8.99321e-08 -6.65855e-09 0)
(9.52717e-08 -8.12445e-09 0)
(1.00414e-07 -9.87049e-09 0)
(1.05365e-07 -1.18794e-08 0)
(1.10137e-07 -1.41337e-08 0)
(1.14743e-07 -1.66156e-08 0)
(1.192e-07 -1.93059e-08 0)
(1.23527e-07 -2.21833e-08 0)
(1.27745e-07 -2.52228e-08 0)
(1.3188e-07 -2.83943e-08 0)
(1.35956e-07 -3.1661e-08 0)
(1.40001e-07 -3.49778e-08 0)
(1.44044e-07 -3.82904e-08 0)
(1.48112e-07 -4.15338e-08 0)
(1.52235e-07 -4.46314e-08 0)
(1.56439e-07 -4.74927e-08 0)
(1.60752e-07 -5.00042e-08 0)
(7.30722e-08 -5.44509e-09 0)
(7.91509e-08 -6.0931e-09 0)
(8.50524e-08 -7.02085e-09 0)
(9.07658e-08 -8.23967e-09 0)
(9.62828e-08 -9.74587e-09 0)
(1.01601e-07 -1.15307e-08 0)
(1.06722e-07 -1.35838e-08 0)
(1.11653e-07 -1.58937e-08 0)
(1.16404e-07 -1.84481e-08 0)
(1.2099e-07 -2.12334e-08 0)
(1.25428e-07 -2.4233e-08 0)
(1.2974e-07 -2.74264e-08 0)
(1.33951e-07 -3.07875e-08 0)
(1.38088e-07 -3.42828e-08 0)
(1.42181e-07 -3.78697e-08 0)
(1.46262e-07 -4.14952e-08 0)
(1.50365e-07 -4.50949e-08 0)
(1.54521e-07 -4.85917e-08 0)
(1.58764e-07 -5.1894e-08 0)
(1.63126e-07 -5.489e-08 0)
(7.40581e-08 -6.81408e-09 0)
(8.02932e-08 -7.55712e-09 0)
(8.63603e-08 -8.55772e-09 0)
(9.22446e-08 -9.8318e-09 0)
(9.79342e-08 -1.13821e-08 0)
(1.03422e-07 -1.3207e-08 0)
(1.08707e-07 -1.53028e-08 0)
(1.13791e-07 -1.76648e-08 0)
(1.18682e-07 -2.02871e-08 0)
(1.23392e-07 -2.31621e-08 0)
(1.27937e-07 -2.62793e-08 0)
(1.32337e-07 -2.96241e-08 0)
(1.36619e-07 -3.31755e-08 0)
(1.40809e-07 -3.69048e-08 0)
(1.44943e-07 -4.07731e-08 0)
(1.49056e-07 -4.47297e-08 0)
(1.53185e-07 -4.87111e-08 0)
(1.57368e-07 -5.26397e-08 0)
(1.61644e-07 -5.64234e-08 0)
(1.66048e-07 -5.99488e-08 0)
(7.56638e-08 -8.19046e-09 0)
(8.20685e-08 -9.03152e-09 0)
(8.83098e-08 -1.01077e-08 0)
(9.43704e-08 -1.14389e-08 0)
(1.00235e-07 -1.30335e-08 0)
(1.05895e-07 -1.48966e-08 0)
(1.11344e-07 -1.70313e-08 0)
(1.16581e-07 -1.94397e-08 0)
(1.21612e-07 -2.21229e-08 0)
(1.26446e-07 -2.50802e-08 0)
(1.31097e-07 -2.83083e-08 0)
(1.35584e-07 -3.17994e-08 0)
(1.39932e-07 -3.55397e-08 0)
(1.44173e-07 -3.95064e-08 0)
(1.48341e-07 -4.36659e-08 0)
(1.52478e-07 -4.7971e-08 0)
(1.56625e-07 -5.23598e-08 0)
(1.60828e-07 -5.67544e-08 0)
(1.65129e-07 -6.10597e-08 0)
(1.6957e-07 -6.51625e-08 0)
(7.78726e-08 -9.59691e-09 0)
(8.4466e-08 -1.05342e-08 0)
(9.08963e-08 -1.16842e-08 0)
(9.71443e-08 -1.30699e-08 0)
(1.03194e-07 -1.47054e-08 0)
(1.09032e-07 -1.66016e-08 0)
(1.14651e-07 -1.87685e-08 0)
(1.20048e-07 -2.12151e-08 0)
(1.25225e-07 -2.39495e-08 0)
(1.30187e-07 -2.6979e-08 0)
(1.34947e-07 -3.0308e-08 0)
(1.39524e-07 -3.39373e-08 0)
(1.4394e-07 -3.78614e-08 0)
(1.48229e-07 -4.20658e-08 0)
(1.52428e-07 -4.65239e-08 0)
(1.56583e-07 -5.11936e-08 0)
(1.60741e-07 -5.60155e-08 0)
(1.64955e-07 -6.09108e-08 0)
(1.69274e-07 -6.5782e-08 0)
(1.73744e-07 -7.05108e-08 0)
(8.06738e-08 -1.10589e-08 0)
(8.74786e-08 -1.2086e-08 0)
(9.41164e-08 -1.33037e-08 0)
(1.00567e-07 -1.47377e-08 0)
(1.06814e-07 -1.6407e-08 0)
(1.12843e-07 -1.83284e-08 0)
(1.18644e-07 -2.0518e-08 0)
(1.24212e-07 -2.29917e-08 0)
(1.29545e-07 -2.5765e-08 0)
(1.34647e-07 -2.88531e-08 0)
(1.39528e-07 -3.22694e-08 0)
(1.44202e-07 -3.60243e-08 0)
(1.48692e-07 -4.01228e-08 0)
(1.53032e-07 -4.45607e-08 0)
(1.5726e-07 -4.93208e-08 0)
(1.61427e-07 -5.43687e-08 0)
(1.65589e-07 -5.96487e-08 0)
(1.69805e-07 -6.50816e-08 0)
(1.74132e-07 -7.0564e-08 0)
(1.78624e-07 -7.5973e-08 0)
(8.40634e-08 -1.26031e-08 0)
(9.11033e-08 -1.37096e-08 0)
(9.79687e-08 -1.49849e-08 0)
(1.0464e-07 -1.64574e-08 0)
(1.11101e-07 -1.81506e-08 0)
(1.17335e-07 -2.00864e-08 0)
(1.23334e-07 -2.22869e-08 0)
(1.29088e-07 -2.47743e-08 0)
(1.34595e-07 -2.75713e-08 0)
(1.39854e-07 -3.07013e-08 0)
(1.44871e-07 -3.41872e-08 0)
(1.49659e-07 -3.80502e-08 0)
(1.54236e-07 -4.23076e-08 0)
(1.58635e-07 -4.69683e-08 0)
(1.62895e-07 -5.20283e-08 0)
(1.67072e-07 -5.74639e-08 0)
(1.7123e-07 -6.32256e-08 0)
(1.75437e-07 -6.9234e-08 0)
(1.79764e-07 -7.53794e-08 0)
(1.8427e-07 -8.15264e-08 0)
(8.80427e-08 -1.42554e-08 0)
(9.534e-08 -1.54272e-08 0)
(1.02452e-07 -1.67469e-08 0)
(1.09362e-07 -1.82455e-08 0)
(1.16053e-07 -1.99502e-08 0)
(1.22512e-07 -2.18878e-08 0)
(1.28726e-07 -2.40856e-08 0)
(1.34687e-07 -2.65715e-08 0)
(1.40389e-07 -2.93751e-08 0)
(1.45829e-07 -3.25274e-08 0)
(1.51008e-07 -3.60611e-08 0)
(1.55933e-07 -4.00092e-08 0)
(1.6062e-07 -4.44028e-08 0)
(1.65094e-07 -4.92676e-08 0)
(1.69397e-07 -5.46168e-08 0)
(1.73586e-07 -6.04428e-08 0)
(1.77733e-07 -6.6707e-08 0)
(1.81922e-07 -7.33314e-08 0)
(1.86235e-07 -8.01957e-08 0)
(1.90748e-07 -8.71496e-08 0)
(9.26178e-08 -1.60394e-08 0)
(1.00191e-07 -1.72594e-08 0)
(1.07567e-07 -1.86077e-08 0)
(1.14731e-07 -2.01178e-08 0)
(1.21669e-07 -2.18203e-08 0)
(1.28369e-07 -2.37462e-08 0)
(1.34819e-07 -2.59269e-08 0)
(1.4101e-07 -2.83955e-08 0)
(1.46934e-07 -3.11874e-08 0)
(1.52585e-07 -3.43408e-08 0)
(1.57959e-07 -3.78974e-08 0)
(1.63057e-07 -4.1902e-08 0)
(1.67887e-07 -4.64015e-08 0)
(1.72468e-07 -5.14409e-08 0)
(1.76835e-07 -5.70567e-08 0)
(1.81045e-07 -6.32651e-08 0)
(1.85179e-07 -7.0046e-08 0)
(1.89336e-07 -7.7328e-08 0)
(1.93624e-07 -8.49792e-08 0)
(1.98131e-07 -9.28188e-08 0)
(9.77979e-08 -1.79746e-08 0)
(1.05659e-07 -1.92229e-08 0)
(1.1331e-07 -2.05824e-08 0)
(1.2074e-07 -2.20885e-08 0)
(1.27939e-07 -2.37748e-08 0)
(1.34896e-07 -2.56754e-08 0)
(1.41603e-07 -2.78252e-08 0)
(1.48049e-07 -3.02614e-08 0)
(1.54226e-07 -3.30239e-08 0)
(1.60124e-07 -3.61569e-08 0)
(1.65736e-07 -3.97099e-08 0)
(1.71054e-07 -4.37387e-08 0)
(1.76077e-07 -4.83059e-08 0)
(1.80813e-07 -5.34785e-08 0)
(1.85285e-07 -5.93221e-08 0)
(1.89542e-07 -6.58873e-08 0)
(1.93667e-07 -7.31873e-08 0)
(1.97781e-07 -8.11681e-08 0)
(2.02021e-07 -8.96847e-08 0)
(2.06511e-07 -9.85146e-08 0)
(1.03594e-07 -2.00739e-08 0)
(1.11746e-07 -2.13294e-08 0)
(1.19676e-07 -2.2682e-08 0)
(1.27378e-07 -2.41687e-08 0)
(1.34847e-07 -2.58254e-08 0)
(1.42076e-07 -2.76886e-08 0)
(1.49058e-07 -2.97957e-08 0)
(1.55784e-07 -3.21865e-08 0)
(1.62245e-07 -3.49043e-08 0)
(1.68432e-07 -3.79976e-08 0)
(1.7433e-07 -4.15217e-08 0)
(1.79929e-07 -4.55414e-08 0)
(1.85214e-07 -5.01329e-08 0)
(1.90179e-07 -5.53853e-08 0)
(1.94826e-07 -6.13976e-08 0)
(1.99184e-07 -6.82678e-08 0)
(2.03326e-07 -7.60637e-08 0)
(2.07386e-07 -8.47758e-08 0)
(2.1155e-07 -9.4259e-08 0)
(2.16e-07 -1.04218e-07 0)
(1.10014e-07 -2.23417e-08 0)
(1.18449e-07 -2.35831e-08 0)
(1.26653e-07 -2.49114e-08 0)
(1.34627e-07 -2.63647e-08 0)
(1.42369e-07 -2.79806e-08 0)
(1.49878e-07 -2.97967e-08 0)
(1.5715e-07 -3.18522e-08 0)
(1.64178e-07 -3.41885e-08 0)
(1.70956e-07 -3.68508e-08 0)
(1.77473e-07 -3.98897e-08 0)
(1.83714e-07 -4.33644e-08 0)
(1.89662e-07 -4.7345e-08 0)
(1.95296e-07 -5.19177e-08 0)
(2.00592e-07 -5.71892e-08 0)
(2.05526e-07 -6.32915e-08 0)
(2.10093e-07 -7.03784e-08 0)
(2.14327e-07 -7.86033e-08 0)
(2.18349e-07 -8.80497e-08 0)
(2.22393e-07 -9.86133e-08 0)
(2.2676e-07 -1.0992e-07 0)
(1.17064e-07 -2.47726e-08 0)
(1.25762e-07 -2.59803e-08 0)
(1.34225e-07 -2.72691e-08 0)
(1.4246e-07 -2.86775e-08 0)
(1.50472e-07 -3.0244e-08 0)
(1.58263e-07 -3.20071e-08 0)
(1.65834e-07 -3.40063e-08 0)
(1.73182e-07 -3.62838e-08 0)
(1.80303e-07 -3.88854e-08 0)
(1.87189e-07 -4.18626e-08 0)
(1.93827e-07 -4.52756e-08 0)
(2.00199e-07 -4.91967e-08 0)
(2.0628e-07 -5.37161e-08 0)
(2.12035e-07 -5.89501e-08 0)
(2.17419e-07 -6.50536e-08 0)
(2.22379e-07 -7.22331e-08 0)
(2.2688e-07 -8.07486e-08 0)
(2.30968e-07 -9.08532e-08 0)
(2.34874e-07 -1.02612e-07 0)
(2.39069e-07 -1.15616e-07 0)
(1.24739e-07 -2.73499e-08 0)
(1.33667e-07 -2.85079e-08 0)
(1.42363e-07 -2.97455e-08 0)
(1.50841e-07 -3.11015e-08 0)
(1.5911e-07 -3.26142e-08 0)
(1.67178e-07 -3.43222e-08 0)
(1.75051e-07 -3.62652e-08 0)
(1.82729e-07 -3.84852e-08 0)
(1.90212e-07 -4.10276e-08 0)
(1.97498e-07 -4.39441e-08 0)
(2.04579e-07 -4.7294e-08 0)
(2.11442e-07 -5.11492e-08 0)
(2.18067e-07 -5.55989e-08 0)
(2.2442e-07 -6.07593e-08 0)
(2.3045e-07 -6.67904e-08 0)
(2.36075e-07 -7.39267e-08 0)
(2.41185e-07 -8.25216e-08 0)
(2.45673e-07 -9.30629e-08 0)
(2.49597e-07 -1.06014e-07 0)
(2.53547e-07 -1.21296e-07 0)
(1.33029e-07 -3.00459e-08 0)
(1.42141e-07 -3.11441e-08 0)
(1.51035e-07 -3.23242e-08 0)
(1.59728e-07 -3.36247e-08 0)
(1.68234e-07 -3.50836e-08 0)
(1.76567e-07 -3.67391e-08 0)
(1.84734e-07 -3.86305e-08 0)
(1.92742e-07 -4.07993e-08 0)
(2.00596e-07 -4.32906e-08 0)
(2.08299e-07 -4.61551e-08 0)
(2.15853e-07 -4.94517e-08 0)
(2.23254e-07 -5.32503e-08 0)
(2.30496e-07 -5.76372e-08 0)
(2.37564e-07 -6.27231e-08 0)
(2.44428e-07 -6.86581e-08 0)
(2.51029e-07 -7.56682e-08 0)
(2.57248e-07 -8.41305e-08 0)
(2.62872e-07 -9.4717e-08 0)
(2.67641e-07 -1.08545e-07 0)
(2.71715e-07 -1.26829e-07 0)
(1.41931e-07 -3.28226e-08 0)
(1.51169e-07 -3.38582e-08 0)
(1.60213e-07 -3.49809e-08 0)
(1.69085e-07 -3.62286e-08 0)
(1.77801e-07 -3.76386e-08 0)
(1.86376e-07 -3.92486e-08 0)
(1.94821e-07 -4.10971e-08 0)
(2.03148e-07 -4.32252e-08 0)
(2.11366e-07 -4.56779e-08 0)
(2.19487e-07 -4.85055e-08 0)
(2.27519e-07 -5.17664e-08 0)
(2.35475e-07 -5.55299e-08 0)
(2.43366e-07 -5.98809e-08 0)
(2.51206e-07 -6.4926e-08 0)
(2.59013e-07 -7.08073e-08 0)
(2.66808e-07 -7.77298e-08 0)
(2.74615e-07 -8.60328e-08 0)
(2.82441e-07 -9.63895e-08 0)
(2.90167e-07 -1.10359e-07 0)
(2.97174e-07 -1.31595e-07 0)
(3.72308e-09 -1.17511e-08 0)
(1.11896e-08 -1.1317e-08 0)
(1.87104e-08 -1.03993e-08 0)
(2.6309e-08 -9.08966e-09 0)
(3.39818e-08 -7.48565e-09 0)
(4.17016e-08 -5.69633e-09 0)
(4.94237e-08 -3.83589e-09 0)
(5.70926e-08 -2.01491e-09 0)
(6.46478e-08 -3.31872e-10 0)
(7.20268e-08 1.13088e-09 0)
(3.71851e-09 -1.08584e-08 0)
(1.11568e-08 -1.05345e-08 0)
(1.86082e-08 -9.83814e-09 0)
(2.60763e-08 -8.8267e-09 0)
(3.3546e-08 -7.56223e-09 0)
(4.09883e-08 -6.11899e-09 0)
(4.83648e-08 -4.58068e-09 0)
(5.56327e-08 -3.03419e-09 0)
(6.27488e-08 -1.56407e-09 0)
(6.96769e-08 -2.55298e-10 0)
(3.74208e-09 -1.00519e-08 0)
(1.1213e-08 -9.82127e-09 0)
(1.86634e-08 -9.31562e-09 0)
(2.60786e-08 -8.5655e-09 0)
(3.34316e-08 -7.60502e-09 0)
(4.06877e-08 -6.48055e-09 0)
(4.78098e-08 -5.25054e-09 0)
(5.47618e-08 -3.9813e-09 0)
(6.15128e-08 -2.74314e-09 0)
(6.80431e-08 -1.61408e-09 0)
(3.79033e-09 -9.33755e-09 0)
(1.13467e-08 -9.18737e-09 0)
(1.88558e-08 -8.84781e-09 0)
(2.62873e-08 -8.32762e-09 0)
(3.36023e-08 -7.63826e-09 0)
(4.07589e-08 -6.80358e-09 0)
(4.77171e-08 -5.86146e-09 0)
(5.44433e-08 -4.86108e-09 0)
(6.09124e-08 -3.85985e-09 0)
(6.71135e-08 -2.92737e-09 0)
(3.86055e-09 -8.72076e-09 0)
(1.15488e-08 -8.64168e-09 0)
(1.91692e-08 -8.4494e-09 0)
(2.6678e-08 -8.13407e-09 0)
(3.40253e-08 -7.68809e-09 0)
(4.11609e-08 -7.11661e-09 0)
(4.80401e-08 -6.44071e-09 0)
(5.46278e-08 -5.69551e-09 0)
(6.09011e-08 -4.92743e-09 0)
(6.68533e-08 -4.19783e-09 0)
(3.95086e-09 -8.20669e-09 0)
(1.18133e-08 -8.19212e-09 0)
(1.95924e-08 -8.13337e-09 0)
(2.72333e-08 -8.00366e-09 0)
(3.4676e-08 -7.77842e-09 0)
(4.18621e-08 -7.44675e-09 0)
(4.87407e-08 -7.01579e-09 0)
(5.52735e-08 -6.50932e-09 0)
(6.14366e-08 -5.96486e-09 0)
(6.72244e-08 -5.43644e-09 0)
(4.06021e-09 -7.80038e-09 0)
(1.21367e-08 -7.84615e-09 0)
(2.01185e-08 -7.91174e-09 0)
(2.7942e-08 -7.9538e-09 0)
(3.55381e-08 -7.93174e-09 0)
(4.28402e-08 -7.82023e-09 0)
(4.9791e-08 -7.61459e-09 0)
(5.63476e-08 -7.32955e-09 0)
(6.24837e-08 -6.99574e-09 0)
(6.81927e-08 -6.66112e-09 0)
(4.18822e-09 -7.50701e-09 0)
(1.25176e-08 -7.61127e-09 0)
(2.07447e-08 -7.79623e-09 0)
(2.87987e-08 -8.0013e-09 0)
(3.66026e-08 -8.16975e-09 0)
(4.40817e-08 -8.26268e-09 0)
(5.11725e-08 -8.26513e-09 0)
(5.78272e-08 -8.18468e-09 0)
(6.40162e-08 -8.04693e-09 0)
(6.97306e-08 -7.89507e-09 0)
(4.33523e-09 -7.3321e-09 0)
(1.29569e-08 -7.49524e-09 0)
(2.14717e-08 -7.79874e-09 0)
(2.98034e-08 -8.16293e-09 0)
(3.78672e-08 -8.51391e-09 0)
(4.55813e-08 -8.79938e-09 0)
(5.28758e-08 -8.99535e-09 0)
(5.96985e-08 -9.10387e-09 0)
(6.60166e-08 -9.14716e-09 0)
(7.18184e-08 -9.16507e-09 0)
(4.50229e-09 -7.28182e-09 0)
(1.34574e-08 -7.50664e-09 0)
(2.23043e-08 -7.93212e-09 0)
(3.09615e-08 -8.4563e-09 0)
(3.9337e-08 -8.98613e-09 0)
(4.73417e-08 -9.45574e-09 0)
(5.49002e-08 -9.83313e-09 0)
(6.1957e-08 -1.01164e-08 0)
(6.84764e-08 -1.0326e-08 0)
(7.44445e-08 -1.04999e-08 0)
(4.6914e-09 -7.36307e-09 0)
(1.40252e-08 -7.65521e-09 0)
(2.32518e-08 -8.21077e-09 0)
(3.22848e-08 -8.90054e-09 0)
(4.10243e-08 -9.60941e-09 0)
(4.9374e-08 -1.02575e-08 0)
(5.72541e-08 -1.08061e-08 0)
(6.46069e-08 -1.12511e-08 0)
(7.13959e-08 -1.16129e-08 0)
(7.76055e-08 -1.19288e-08 0)
(4.90575e-09 -7.58414e-09 0)
(1.46698e-08 -7.9527e-09 0)
(2.43298e-08 -8.65177e-09 0)
(3.37934e-08 -9.5174e-09 0)
(4.2951e-08 -1.04085e-08 0)
(5.16992e-08 -1.12312e-08 0)
(5.99552e-08 -1.19416e-08 0)
(6.76616e-08 -1.25358e-08 0)
(7.47834e-08 -1.30359e-08 0)
(8.13053e-08 -1.34799e-08 0)
(5.15031e-09 -7.95494e-09 0)
(1.54061e-08 -8.41382e-09 0)
(2.55626e-08 -9.2762e-09 0)
(3.55182e-08 -1.03324e-08 0)
(4.51507e-08 -1.14106e-08 0)
(5.43493e-08 -1.24036e-08 0)
(6.30315e-08 -1.32658e-08 0)
(7.11437e-08 -1.39962e-08 0)
(7.86555e-08 -1.46204e-08 0)
(8.55549e-08 -1.51789e-08 0)
(5.43275e-09 -8.48831e-09 0)
(1.62577e-08 -9.05826e-09 0)
(2.69884e-08 -1.01115e-08 0)
(3.75065e-08 -1.13761e-08 0)
(4.76725e-08 -1.26453e-08 0)
(5.73704e-08 -1.38016e-08 0)
(6.65226e-08 -1.48026e-08 0)
(7.5085e-08 -1.56541e-08 0)
(8.30362e-08 -1.63874e-08 0)
(9.03705e-08 -1.70465e-08 0)
(5.76538e-09 -9.20131e-09 0)
(1.72631e-08 -9.91391e-09 0)
(2.86677e-08 -1.11944e-08 0)
(3.98287e-08 -1.26855e-08 0)
(5.05858e-08 -1.41437e-08 0)
(6.08241e-08 -1.54494e-08 0)
(7.048e-08 -1.65711e-08 0)
(7.95261e-08 -1.75253e-08 0)
(8.79556e-08 -1.83512e-08 0)
(9.57726e-08 -1.90967e-08 0)
(6.16993e-09 -1.01191e-08 0)
(1.84903e-08 -1.10235e-08 0)
(3.06987e-08 -1.25754e-08 0)
(4.25895e-08 -1.43034e-08 0)
(5.39856e-08 -1.59354e-08 0)
(6.47896e-08 -1.73654e-08 0)
(7.49663e-08 -1.85819e-08 0)
(8.45145e-08 -1.96164e-08 0)
(9.34474e-08 -2.05166e-08 0)
(1.01782e-07 -2.13343e-08 0)
(6.69295e-09 -1.12833e-08 0)
(2.00689e-08 -1.24565e-08 0)
(3.32435e-08 -1.43215e-08 0)
(4.59396e-08 -1.62733e-08 0)
(5.79949e-08 -1.80409e-08 0)
(6.93616e-08 -1.95548e-08 0)
(8.00523e-08 -2.08324e-08 0)
(9.01011e-08 -2.19212e-08 0)
(9.95454e-08 -2.28763e-08 0)
(1.08419e-07 -2.37524e-08 0)
(7.46199e-09 -1.2779e-08 0)
(2.22609e-08 -1.43269e-08 0)
(3.6563e-08 -1.65103e-08 0)
(5.00843e-08 -1.86246e-08 0)
(6.27626e-08 -2.04589e-08 0)
(7.46456e-08 -2.2002e-08 0)
(8.58113e-08 -2.33014e-08 0)
(9.6335e-08 -2.44172e-08 0)
(1.06279e-07 -2.54086e-08 0)
(1.15694e-07 -2.63312e-08 0)
(8.8788e-09 -1.48176e-08 0)
(2.55844e-08 -1.6804e-08 0)
(4.10469e-08 -1.91964e-08 0)
(5.52799e-08 -2.13426e-08 0)
(6.84542e-08 -2.31491e-08 0)
(8.075e-08 -2.46612e-08 0)
(9.23147e-08 -2.59451e-08 0)
(1.03261e-07 -2.70643e-08 0)
(1.13673e-07 -2.80772e-08 0)
(1.23614e-07 -2.90379e-08 0)
(1.21667e-08 -1.79917e-08 0)
(3.09532e-08 -2.0042e-08 0)
(4.72215e-08 -2.23277e-08 0)
(6.1828e-08 -2.43294e-08 0)
(7.52538e-08 -2.60184e-08 0)
(8.77942e-08 -2.74532e-08 0)
(9.96419e-08 -2.86964e-08 0)
(1.1093e-07 -2.98049e-08 0)
(1.21756e-07 -3.08317e-08 0)
(1.32191e-07 -3.18274e-08 0)
)
;

boundaryField
{
    left
    {
        type            symmetryPlane;
    }
    right
    {
        type            tractionDisplacement;
        traction        uniform (10000 0 0);
        pressure        uniform 0;
        value           nonuniform List<vector> 
30
(
(1.58955e-07 -1.19064e-09 1.37202e-26)
(1.58859e-07 -3.56946e-09 -2.72306e-26)
(1.58653e-07 -6.02361e-09 -1.38802e-26)
(1.58365e-07 -8.60123e-09 1.334e-26)
(1.5803e-07 -1.13451e-08 4.32291e-26)
(1.57691e-07 -1.42928e-08 -1.35525e-26)
(1.57396e-07 -1.7476e-08 -1.45289e-26)
(1.57201e-07 -2.092e-08 -1.62493e-26)
(1.57166e-07 -2.46425e-08 4.48452e-26)
(1.57353e-07 -2.86541e-08 -1.23125e-27)