/*--------------------------------*- C++ -*----------------------------------*\
  =========                 |
  \\      /  F ield         | OpenFOAM: The Open Source CFD Toolbox
   \\    /   O peration     | Website:  https://openfoam.org
    \\  /    A nd           | Version:  6
     \\/     M anipulation  |
\*---------------------------------------------------------------------------*/
FoamFile
{
    version     2.0;
    format      ascii;
    class       volScalarField;
    location    "3.57";
    object      rho;
}
// * * * * * * * * * * * * * * * * * * * * * * * * * * * * * * * * * * * * * //

dimensions      [1 -3 0 0 0 0 0];

internalField   nonuniform List<scalar> 
5625
(
1.39999
1.39998
1.39998
1.39997
1.39997
1.39996
1.39996
1.39996
1.39995
1.39995
1.39995
1.39996
1.39996
1.39997
1.39998
1.39999
1.4
1.40001
1.40003
1.40004
1.40006
1.40007
1.40009
1.4001
1.40011
1.40012
1.40013
1.40014
1.40014
1.40014
1.40014
1.40014
1.40014
1.40013
1.40012
1.40012
1.40011
1.4001
1.40009
1.40008
1.40007
1.40006
1.40005
1.40005
1.40004
1.40003
1.40003
1.40002
1.40002
1.40002
1.40001
1.40001
1.40001
1.40001
1.40001
1.40001
1.40001
1.40001
1.40001
1.4
1.4
1.4
1.4
1.4
1.4
1.4
1.40001
1.40001
1.40001
1.40001
1.40001
1.40001
1.40001
1.40001
1.40001
1.39998
1.39998
1.39997
1.39997
1.39996
1.39996
1.39995
1.39995
1.39995
1.39995
1.39995
1.39996
1.39997
1.39998
1.39999
1.40001
1.40003
1.40005
1.40007
1.40009
1.40011
1.40013
1.40015
1.40016
1.40017
1.40019
1.40019
1.4002
1.4002
1.4002
1.4002
1.40019
1.40018
1.40017
1.40016
1.40015
1.40014
1.40013
1.40011
1.4001
1.40009
1.40008
1.40007
1.40006
1.40005
1.40004
1.40003
1.40003
1.40002
1.40002
1.40001
1.40001
1.40001
1.40001
1.40001
1.40001
1.40001
1.40001
1.40001
1.4
1.4
1.4
1.4
1.4
1.4
1.4
1.4
1.4
1.4
1.40001
1.40001
1.40001
1.40001
1.40001
1.40001
1.39998
1.39997
1.39997
1.39996
1.39996
1.39995
1.39995
1.39995
1.39995
1.39995
1.39996
1.39997
1.39999
1.4
1.40002
1.40005
1.40007
1.4001
1.40013
1.40016
1.40019
1.40021
1.40023
1.40025
1.40027
1.40028
1.40029
1.40029
1.40029
1.40028
1.40028
1.40026
1.40025
1.40024
1.40022
1.4002
1.40018
1.40016
1.40015
1.40013
1.40011
1.4001
1.40008
1.40007
1.40006
1.40005
1.40004
1.40003
1.40003
1.40002
1.40002
1.40001
1.40001
1.40001
1.40001
1.40001
1.40001
1.40001
1.4
1.4
1.4
1.4
1.4
1.4
1.4
1.4
1.4
1.4
1.4
1.40001
1.40001
1.40001
1.40001
1.40001
1.40001
1.39998
1.39997
1.39996
1.39996
1.39995
1.39995
1.39995
1.39995
1.39996
1.39996
1.39998
1.4
1.40002
1.40005
1.40008
1.40012
1.40016
1.40019
1.40023
1.40027
1.40031
1.40034
1.40037
1.40039
1.40041
1.40042
1.40043
1.40042
1.40042
1.40041
1.40039
1.40037
1.40035
1.40032
1.4003
1.40027
1.40024
1.40022
1.40019
1.40017
1.40014
1.40012
1.40011
1.40009
1.40007
1.40006
1.40005
1.40004
1.40003
1.40002
1.40002
1.40001
1.40001
1.40001
1.40001
1.40001
1.40001
1.40001
1.4
1.4
1.4
1.4
1.4
1.4
1.4
1.4
1.4
1.4
1.4
1.4
1.4
1.40001
1.40001
1.40001
1.40001
1.39997
1.39997
1.39996
1.39996
1.39995
1.39995
1.39995
1.39996
1.39997
1.39999
1.40002
1.40005
1.40009
1.40013
1.40018
1.40023
1.40028
1.40034
1.4004
1.40045
1.4005
1.40054
1.40057
1.4006
1.40062
1.40063
1.40063
1.40062
1.4006
1.40058
1.40055
1.40052
1.40048
1.40044
1.4004
1.40036
1.40032
1.40029
1.40025
1.40022
1.40019
1.40016
1.40013
1.40011
1.40009
1.40007
1.40006
1.40005
1.40004
1.40003
1.40002
1.40002
1.40001
1.40001
1.40001
1.40001
1.40001
1.4
1.4
1.4
1.4
1.4
1.4
1.4
1.4
1.4
1.4
1.4
1.4
1.4
1.4
1.40001
1.40001
1.40001
1.40001
1.39997
1.39996
1.39996
1.39996
1.39996
1.39996
1.39997
1.39999
1.40001
1.40004
1.40008
1.40013
1.40019
1.40026
1.40033
1.4004
1.40048
1.40056
1.40064
1.40071
1.40077
1.40083
1.40087
1.40091
1.40093
1.40093
1.40092
1.4009
1.40087
1.40083
1.40079
1.40073
1.40068
1.40062
1.40056
1.4005
1.40044
1.40038
1.40033
1.40029
1.40024
1.4002
1.40017
1.40014
1.40011
1.40009
1.40007
1.40006
1.40004
1.40003
1.40003
1.40002
1.40001
1.40001
1.40001
1.40001
1.40001
1.4
1.4
1.4
1.4
1.4
1.4
1.4
1.4
1.4
1.4
1.4
1.4
1.4
1.4
1.4
1.40001
1.40001
1.40001
1.39997
1.39997
1.39996
1.39996
1.39997
1.39998
1.4
1.40003
1.40008
1.40013
1.40019
1.40027
1.40036
1.40045
1.40056
1.40067
1.40078
1.40089
1.401
1.40109
1.40118
1.40125
1.40131
1.40135
1.40137
1.40137
1.40135
1.40131
1.40126
1.4012
1.40112
1.40104
1.40095
1.40086
1.40077
1.40068
1.4006
1.40052
1.40045
1.40038
1.40032
1.40027
1.40022
1.40018
1.40015
1.40012
1.40009
1.40007
1.40005
1.40004
1.40003
1.40002
1.40002
1.40001
1.40001
1.40001
1.4
1.4
1.4
1.4
1.4
1.4
1.4
1.4
1.4
1.4
1.4
1.4
1.4
1.4
1.4
1.4
1.4
1.40001
1.40001
1.39997
1.39997
1.39997
1.39998
1.4
1.40002
1.40006
1.40011
1.40018
1.40026
1.40036
1.40048
1.40061
1.40075
1.4009
1.40106
1.40122
1.40137
1.40152
1.40165
1.40177
1.40186
1.40193
1.40198
1.40199
1.40198
1.40195
1.40189
1.40181
1.40171
1.40159
1.40147
1.40134
1.40121
1.40107
1.40094
1.40082
1.40071
1.4006
1.40051
1.40043
1.40035
1.40029
1.40023
1.40019
1.40015
1.40011
1.40009
1.40007
1.40005
1.40004
1.40003
1.40002
1.40001
1.40001
1.40001
1.4
1.4
1.4
1.4
1.4
1.4
1.4
1.4
1.4
1.4
1.4
1.4
1.4
1.4
1.4
1.4
1.4
1.40001
1.40001
1.39998
1.39999
1.4
1.40002
1.40005
1.40009
1.40016
1.40024
1.40034
1.40047
1.40062
1.40079
1.40098
1.40118
1.4014
1.40162
1.40184
1.40205
1.40225
1.40243
1.40258
1.40271
1.4028
1.40285
1.40287
1.40285
1.40279
1.40269
1.40257
1.40242
1.40225
1.40207
1.40188
1.40169
1.4015
1.40131
1.40114
1.40097
1.40082
1.40069
1.40057
1.40047
1.40038
1.4003
1.40024
1.40019
1.40014
1.40011
1.40008
1.40006
1.40004
1.40003
1.40002
1.40001
1.40001
1.4
1.4
1.4
1.4
1.4
1.4
1.4
1.4
1.4
1.4
1.4
1.4
1.4
1.4
1.4
1.4
1.4
1.4
1.4
1.40001
1.4
1.40001
1.40004
1.40007
1.40013
1.4002
1.4003
1.40043
1.40059
1.40078
1.401
1.40124
1.40151
1.4018
1.4021
1.4024
1.40271
1.403
1.40327
1.40351
1.40372
1.40388
1.40399
1.40406
1.40407
1.40403
1.40394
1.4038
1.40362
1.40341
1.40316
1.4029
1.40263
1.40236
1.40208
1.40182
1.40157
1.40134
1.40113
1.40094
1.40077
1.40063
1.40051
1.4004
1.40032
1.40024
1.40019
1.40014
1.4001
1.40007
1.40005
1.40003
1.40002
1.40001
1.40001
1.4
1.4
1.4
1.4
1.4
1.4
1.4
1.4
1.4
1.4
1.4
1.4
1.4
1.4
1.4
1.4
1.4
1.4
1.4
1.4
1.40003
1.40006
1.4001
1.40016
1.40025
1.40037
1.40053
1.40072
1.40095
1.40122
1.40153
1.40188
1.40226
1.40266
1.40307
1.40349
1.4039
1.40429
1.40465
1.40497
1.40524
1.40546
1.4056
1.40568
1.40568
1.40562
1.40549
1.40529
1.40504
1.40474
1.4044
1.40404
1.40366
1.40327
1.40289
1.40252
1.40217
1.40184
1.40155
1.40129
1.40105
1.40085
1.40068
1.40054
1.40042
1.40032
1.40024
1.40018
1.40013
1.40009
1.40006
1.40004
1.40003
1.40002
1.40001
1.4
1.4
1.4
1.4
1.4
1.4
1.4
1.4
1.4
1.4
1.4
1.4
1.4
1.4
1.4
1.4
1.4
1.4
1.4
1.4
1.40008
1.40012
1.4002
1.4003
1.40044
1.40062
1.40085
1.40113
1.40146
1.40184
1.40228
1.40276
1.40328
1.40383
1.40439
1.40496
1.4055
1.40602
1.4065
1.40692
1.40727
1.40754
1.40773
1.40782
1.40782
1.40772
1.40754
1.40727
1.40693
1.40652
1.40606
1.40556
1.40504
1.4045
1.40398
1.40347
1.40298
1.40254
1.40213
1.40176
1.40144
1.40116
1.40092
1.40073
1.40056
1.40043
1.40032
1.40024
1.40017
1.40012
1.40008
1.40005
1.40003
1.40002
1.40001
1.4
1.4
1.4
1.4
1.4
1.4
1.4
1.4
1.4
1.4
1.4
1.4
1.4
1.4
1.4
1.4
1.4
1.4
1.4
1.4
1.40015
1.40023
1.40034
1.4005
1.40071
1.40097
1.4013
1.4017
1.40217
1.40271
1.40331
1.40397
1.40467
1.4054
1.40615
1.40689
1.40761
1.40829
1.40891
1.40945
1.4099
1.41024
1.41048
1.41059
1.41058
1.41045
1.4102
1.40984
1.40939
1.40884
1.40823
1.40756
1.40686
1.40615
1.40543
1.40474
1.40408
1.40347
1.40291
1.4024
1.40196
1.40158
1.40125
1.40098
1.40076
1.40057
1.40043
1.40031
1.40022
1.40016
1.4001
1.40007
1.40004
1.40002
1.40001
1.4
1.4
1.39999
1.39999
1.39999
1.39999
1.4
1.4
1.4
1.4
1.4
1.4
1.4
1.4
1.4
1.4
1.4
1.4
1.4
1.4
1.40026
1.40038
1.40055
1.40078
1.40109
1.40147
1.40193
1.40249
1.40313
1.40387
1.40468
1.40556
1.4065
1.40746
1.40844
1.4094
1.41033
1.4112
1.41198
1.41267
1.41323
1.41366
1.41395
1.41408
1.41407
1.41389
1.41357
1.41311
1.41252
1.41182
1.41102
1.41016
1.40924
1.40829
1.40735
1.40642
1.40554
1.40471
1.40396
1.40327
1.40267
1.40215
1.4017
1.40133
1.40102
1.40077
1.40058
1.40042
1.4003
1.40021
1.40014
1.40009
1.40005
1.40003
1.40001
1.4
1.39999
1.39999
1.39999
1.39999
1.39999
1.39999
1.4
1.4
1.4
1.4
1.4
1.4
1.4
1.4
1.4
1.4
1.4
1.4
1.4
1.40041
1.4006
1.40085
1.40119
1.40161
1.40215
1.40279
1.40355
1.40442
1.40541
1.40649
1.40765
1.40886
1.41011
1.41136
1.41258
1.41375
1.41483
1.4158
1.41665
1.41734
1.41786
1.41821
1.41837
1.41835
1.41813
1.41774
1.41716
1.41643
1.41555
1.41454
1.41344
1.41226
1.41105
1.40982
1.40861
1.40745
1.40635
1.40534
1.40443
1.40362
1.40291
1.40231
1.4018
1.40139
1.40105
1.40078
1.40056
1.4004
1.40028
1.40018
1.40012
1.40007
1.40003
1.40001
1.4
1.39999
1.39999
1.39999
1.39999
1.39999
1.39999
1.39999
1.4
1.4
1.4
1.4
1.4
1.4
1.4
1.4
1.4
1.4
1.4
1.4
1.40063
1.4009
1.40126
1.40173
1.40233
1.40306
1.40393
1.40495
1.40612
1.40741
1.40882
1.41031
1.41186
1.41343
1.41499
1.4165
1.41793
1.41925
1.42042
1.42143
1.42225
1.42287
1.42328
1.42347
1.42344
1.42319
1.42272
1.42203
1.42115
1.42008
1.41885
1.41749
1.41603
1.4145
1.41295
1.4114
1.4099
1.40847
1.40714
1.40594
1.40486
1.40392
1.40312
1.40244
1.40187
1.40142
1.40105
1.40076
1.40054
1.40037
1.40025
1.40016
1.40009
1.40005
1.40002
1.4
1.39999
1.39998
1.39998
1.39998
1.39998
1.39999
1.39999
1.39999
1.4
1.4
1.4
1.4
1.4
1.4
1.4
1.4
1.4
1.4
1.4
1.40093
1.40132
1.40183
1.40247
1.40328
1.40427
1.40543
1.40678
1.40829
1.40996
1.41175
1.41363
1.41555
1.41749
1.41938
1.4212
1.42289
1.42444
1.4258
1.42697
1.42791
1.42862
1.42908
1.4293
1.42927
1.42898
1.42845
1.42767
1.42665
1.42541
1.42397
1.42235
1.42059
1.41873
1.41681
1.41487
1.41298
1.41116
1.40945
1.40789
1.40648
1.40524
1.40418
1.40327
1.40252
1.40191
1.40142
1.40103
1.40073
1.40051
1.40034
1.40022
1.40013
1.40007
1.40003
1.4
1.39999
1.39998
1.39998
1.39998
1.39998
1.39998
1.39999
1.39999
1.39999
1.4
1.4
1.4
1.4
1.4
1.4
1.4
1.4
1.4
1.4
1.40134
1.40188
1.40257
1.40345
1.40454
1.40584
1.40736
1.4091
1.41104
1.41314
1.41536
1.41767
1.42
1.4223
1.42453
1.42663
1.42857
1.43031
1.43183
1.43311
1.43414
1.4349
1.43541
1.43564
1.43561
1.43531
1.43474
1.4339
1.43279
1.43142
1.42981
1.42797
1.42593
1.42374
1.42144
1.4191
1.41677
1.4145
1.41235
1.41036
1.40855
1.40695
1.40555
1.40437
1.40338
1.40257
1.40191
1.4014
1.401
1.40069
1.40046
1.4003
1.40018
1.4001
1.40004
1.40001
1.39999
1.39998
1.39997
1.39997
1.39997
1.39998
1.39998
1.39999
1.39999
1.39999
1.4
1.4
1.4
1.4
1.4
1.4
1.4
1.4
1.4
1.40189
1.40262
1.40355
1.40473
1.40615
1.40784
1.4098
1.412
1.41442
1.417
1.4197
1.42244
1.42517
1.42782
1.43034
1.43267
1.43478
1.43664
1.43823
1.43955
1.4406
1.44138
1.44188
1.44212
1.4421
1.4418
1.44124
1.4404
1.43927
1.43786
1.43616
1.43417
1.43193
1.42947
1.42683
1.42409
1.42131
1.41856
1.41591
1.41343
1.41115
1.4091
1.40731
1.40577
1.40448
1.40342
1.40256
1.40187
1.40134
1.40094
1.40063
1.40041
1.40025
1.40014
1.40007
1.40002
1.39999
1.39997
1.39997
1.39997
1.39997
1.39997
1.39998
1.39998
1.39999
1.39999
1.39999
1.4
1.4
1.4
1.4
1.4
1.4
1.4
1.4
1.40261
1.40358
1.40482
1.40635
1.4082
1.41035
1.41281
1.41554
1.41848
1.42157
1.42474
1.4279
1.43097
1.43388
1.43658
1.43902
1.44118
1.44303
1.44458
1.44584
1.44681
1.44752
1.44798
1.44819
1.44817
1.44792
1.44742
1.44667
1.44563
1.44429
1.44264
1.44065
1.43834
1.43573
1.43285
1.42977
1.42658
1.42335
1.42018
1.41715
1.41434
1.41178
1.40952
1.40756
1.4059
1.40452
1.40339
1.4025
1.4018
1.40127
1.40086
1.40057
1.40035
1.4002
1.4001
1.40004
1.4
1.39997
1.39996
1.39996
1.39996
1.39997
1.39997
1.39998
1.39998
1.39999
1.39999
1.39999
1.4
1.4
1.4
1.4
1.4
1.4
1.4
1.40354
1.40483
1.40643
1.4084
1.41074
1.41344
1.41646
1.41975
1.42323
1.42681
1.43039
1.43387
1.43716
1.44019
1.4429
1.44527
1.44729
1.44896
1.4503
1.45135
1.45213
1.45268
1.45302
1.45318
1.45317
1.45299
1.45262
1.45204
1.45122
1.45012
1.4487
1.44691
1.44473
1.44216
1.43922
1.43596
1.43245
1.42881
1.42515
1.42157
1.41818
1.41505
1.41224
1.40978
1.40767
1.40591
1.40447
1.40331
1.4024
1.40169
1.40117
1.40077
1.40049
1.40029
1.40016
1.40007
1.40001
1.39998
1.39996
1.39995
1.39995
1.39996
1.39996
1.39997
1.39998
1.39998
1.39999
1.39999
1.4
1.4
1.4
1.4
1.4
1.4
1.4
1.40473
1.40639
1.40845
1.41093
1.41384
1.41714
1.42076
1.42462
1.42861
1.43259
1.43646
1.44009
1.44339
1.44631
1.44881
1.45087
1.45252
1.4538
1.45474
1.45542
1.45587
1.45615
1.45631
1.45638
1.45637
1.45628
1.45611
1.45581
1.45535
1.45466
1.45367
1.45232
1.45053
1.44828
1.44553
1.44231
1.4387
1.4348
1.43073
1.42664
1.42267
1.41894
1.41552
1.41249
1.40987
1.40765
1.40582
1.40433
1.40316
1.40225
1.40156
1.40105
1.40067
1.40041
1.40023
1.40011
1.40003
1.39998
1.39996
1.39995
1.39995
1.39995
1.39996
1.39996
1.39997
1.39998
1.39998
1.39999
1.39999
1.4
1.4
1.4
1.4
1.4
1.4
1.40623
1.40834
1.41093
1.414
1.41754
1.42147
1.42569
1.43006
1.43444
1.43867
1.44261
1.44614
1.44918
1.4517
1.45369
1.45518
1.45622
1.45689
1.45725
1.4574
1.4574
1.45733
1.45724
1.45718
1.45716
1.45718
1.45725
1.45731
1.45731
1.45719
1.45684
1.45617
1.45506
1.45343
1.45121
1.44837
1.44494
1.44101
1.43673
1.43226
1.42777
1.42344
1.4194
1.41575
1.41253
1.40978
1.40749
1.40562
1.40412
1.40296
1.40207
1.4014
1.40092
1.40057
1.40033
1.40017
1.40006
1.4
1.39996
1.39995
1.39994
1.39994
1.39995
1.39996
1.39997
1.39997
1.39998
1.39999
1.39999
1.39999
1.4
1.4
1.4
1.4
1.4
1.40807
1.41072
1.41392
1.41765
1.42184
1.42639
1.43114
1.43589
1.44047
1.44468
1.44839
1.4515
1.45396
1.45576
1.45696
1.45761
1.45781
1.45768
1.45732
1.45682
1.45629
1.4558
1.45542
1.4552
1.45515
1.4553
1.45562
1.45608
1.45662
1.45717
1.45761
1.45782
1.45765
1.45696
1.45561
1.45352
1.45065
1.44706
1.44285
1.43821
1.43336
1.42851
1.42386
1.41955
1.4157
1.41236
1.40953
1.4072
1.40532
1.40385
1.40271
1.40186
1.40123
1.40078
1.40046
1.40025
1.40011
1.40002
1.39997
1.39995
1.39994
1.39994
1.39994
1.39995
1.39996
1.39997
1.39998
1.39998
1.39999
1.39999
1.4
1.4
1.4
1.4
1.4
1.41032
1.41358
1.41745
1.42187
1.42671
1.4318
1.43691
1.44182
1.4463
1.45017
1.4533
1.45563
1.45716
1.45794
1.45808
1.45769
1.45691
1.45586
1.45469
1.4535
1.4524
1.45148
1.45079
1.4504
1.45032
1.45056
1.45113
1.45199
1.45308
1.45433
1.45562
1.45683
1.45777
1.45826
1.45811
1.45715
1.45526
1.4524
1.44866
1.44418
1.43921
1.434
1.42883
1.4239
1.41939
1.4154
1.41197
1.40912
1.40679
1.40495
1.40352
1.40244
1.40163
1.40105
1.40064
1.40036
1.40018
1.40006
1.39999
1.39995
1.39993
1.39993
1.39994
1.39994
1.39995
1.39996
1.39997
1.39998
1.39999
1.39999
1.39999
1.4
1.4
1.4
1.4
1.41302
1.41696
1.42153
1.42662
1.43203
1.43749
1.44273
1.44747
1.45148
1.45461
1.45678
1.45799
1.45831
1.45785
1.45677
1.45522
1.45339
1.45141
1.44943
1.44757
1.44593
1.4446
1.44362
1.44306
1.44294
1.44327
1.44405
1.44526
1.44684
1.44875
1.45086
1.45306
1.45517
1.45697
1.45823
1.45869
1.45816
1.45649
1.45365
1.44975
1.445
1.4397
1.43417
1.42871
1.42357
1.41891
1.41484
1.4114
1.40856
1.40629
1.40451
1.40315
1.40214
1.4014
1.40087
1.40051
1.40026
1.40011
1.40001
1.39996
1.39993
1.39993
1.39993
1.39994
1.39995
1.39996
1.39997
1.39998
1.39998
1.39999
1.39999
1.4
1.4
1.4
1.4
1.41618
1.42085
1.42612
1.4318
1.4376
1.44317
1.44819
1.45237
1.45552
1.45753
1.4584
1.45822
1.45714
1.45532
1.45297
1.45028
1.44744
1.4446
1.4419
1.43945
1.43735
1.43567
1.43445
1.43375
1.43358
1.43397
1.43491
1.43639
1.43838
1.44083
1.44365
1.44673
1.44993
1.45302
1.45574
1.45781
1.45891
1.45879
1.4573
1.45443
1.45034
1.4453
1.43969
1.43387
1.42818
1.42288
1.41814
1.41407
1.41066
1.4079
1.40571
1.40403
1.40276
1.40183
1.40116
1.4007
1.40038
1.40018
1.40005
1.39998
1.39994
1.39992
1.39992
1.39993
1.39994
1.39995
1.39996
1.39997
1.39998
1.39999
1.39999
1.39999
1.4
1.4
1.4
1.41983
1.42522
1.43112
1.43723
1.44314
1.44847
1.45287
1.45608
1.45798
1.45855
1.45789
1.45618
1.45363
1.45047
1.44693
1.44321
1.43949
1.43593
1.43265
1.42974
1.42729
1.42535
1.42396
1.42315
1.42294
1.42336
1.4244
1.42607
1.42834
1.43118
1.43454
1.43834
1.44244
1.44666
1.45076
1.45441
1.45725
1.45893
1.45915
1.45775
1.45478
1.45044
1.44509
1.43917
1.4331
1.42724
1.42186
1.41712
1.4131
1.40979
1.40715
1.40508
1.40352
1.40236
1.40153
1.40094
1.40053
1.40027
1.4001
1.4
1.39995
1.39992
1.39992
1.39992
1.39993
1.39994
1.39996
1.39997
1.39998
1.39998
1.39999
1.39999
1.4
1.4
1.4
1.42393
1.42999
1.43637
1.44263
1.44832
1.45299
1.45634
1.4582
1.45854
1.45748
1.4552
1.45196
1.44802
1.44365
1.43908
1.43451
1.43011
1.42601
1.42232
1.4191
1.41642
1.41431
1.41281
1.41193
1.41169
1.41211
1.4132
1.41497
1.4174
1.4205
1.42422
1.42851
1.43328
1.43839
1.44364
1.44871
1.45323
1.45677
1.45891
1.45934
1.45791
1.45472
1.45006
1.44437
1.43816
1.43189
1.42593
1.42055
1.41589
1.41199
1.40883
1.40634
1.40443
1.40301
1.40197
1.40124
1.40073
1.40039
1.40017
1.40004
1.39997
1.39993
1.39992
1.39992
1.39993
1.39994
1.39995
1.39996
1.39997
1.39998
1.39999
1.39999
1.4
1.4
1.4
1.42843
1.43503
1.44163
1.4477
1.45274
1.45634
1.45827
1.45849
1.45712
1.45436
1.45051
1.44586
1.44072
1.43534
1.42997
1.42477
1.4199
1.41546
1.41152
1.40814
1.40534
1.40316
1.4016
1.40068
1.40041
1.40081
1.4019
1.40368
1.40618
1.40939
1.4133
1.41789
1.4231
1.42883
1.43493
1.44115
1.44714
1.45243
1.45652
1.45895
1.4594
1.45777
1.45424
1.44919
1.44315
1.43668
1.43028
1.4243
1.419
1.41448
1.41077
1.40781
1.40551
1.40378
1.40251
1.4016
1.40097
1.40054
1.40026
1.40009
1.39999
1.39994
1.39992
1.39991
1.39992
1.39993
1.39994
1.39996
1.39997
1.39998
1.39998
1.39999
1.39999
1.4
1.4
1.4332
1.44011
1.44661
1.45209
1.45606
1.45821
1.45845
1.4569
1.45378
1.44942
1.44415
1.43831
1.4322
1.42607
1.42013
1.41454
1.4094
1.4048
1.40077
1.39734
1.39453
1.39234
1.39078
1.38984
1.38954
1.3899
1.39093
1.39266
1.39512
1.39833
1.40229
1.407
1.41245
1.41856
1.42524
1.43229
1.43942
1.44621
1.45212
1.45657
1.45907
1.45933
1.45732
1.45332
1.44782
1.44144
1.43477
1.42831
1.42241
1.41727
1.41297
1.40949
1.40677
1.40469
1.40315
1.40204
1.40126
1.40073
1.40038
1.40016
1.40003
1.39995
1.39992
1.39991
1.39991
1.39992
1.39994
1.39995
1.39996
1.39997
1.39998
1.39999
1.39999
1.4
1.4
1.43808
1.445
1.451
1.45547
1.458
1.45844
1.45688
1.45355
1.4488
1.44301
1.43656
1.42978
1.42296
1.41633
1.41006
1.40428
1.39905
1.39444
1.39045
1.38708
1.38434
1.3822
1.38065
1.37971
1.37937
1.37966
1.38059
1.38221
1.38455
1.38766
1.39155
1.39625
1.40176
1.40804
1.41505
1.42265
1.43061
1.43857
1.44602
1.45235
1.45692
1.45924
1.45906
1.45649
1.45193
1.44596
1.43928
1.43249
1.42606
1.42032
1.41543
1.4114
1.40821
1.40575
1.40391
1.40256
1.40161
1.40096
1.40052
1.40024
1.40007
1.39998
1.39993
1.39991
1.39991
1.39992
1.39993
1.39995
1.39996
1.39997
1.39998
1.39999
1.39999
1.4
1.4
1.44285
1.44942
1.45451
1.4576
1.45843
1.45705
1.45369
1.4487
1.44252
1.43556
1.42818
1.42073
1.41345
1.40654
1.40014
1.39435
1.38919
1.38469
1.38084
1.37762
1.37499
1.37293
1.37144
1.37049
1.37011
1.3703
1.3711
1.37255
1.3747
1.37761
1.38133
1.38589
1.39132
1.39762
1.40476
1.41266
1.42116
1.42997
1.43865
1.44659
1.45309
1.45749
1.45935
1.45852
1.45523
1.45003
1.44362
1.4367
1.42988
1.4236
1.41811
1.41353
1.40983
1.40696
1.40478
1.40317
1.40203
1.40123
1.4007
1.40035
1.40014
1.40001
1.39994
1.39992
1.39991
1.39992
1.39993
1.39994
1.39995
1.39997
1.39998
1.39998
1.39999
1.39999
1.4
1.44728
1.4531
1.45691
1.45835
1.45737
1.45417
1.44913
1.4427
1.43533
1.42744
1.4194
1.41151
1.40399
1.39701
1.39066
1.385
1.38004
1.37576
1.37213
1.3691
1.36663
1.36469
1.36326
1.36232
1.36188
1.36195
1.36258
1.36382
1.36572
1.36836
1.3718
1.37612
1.38135
1.38753
1.39465
1.40266
1.41146
1.42083
1.43041
1.43965
1.44784
1.45423
1.45816
1.45926
1.45757
1.45347
1.44763
1.44082
1.43377
1.42704
1.421
1.41585
1.41164
1.40831
1.40577
1.40388
1.40251
1.40156
1.40091
1.40048
1.40021
1.40005
1.39997
1.39992
1.39991
1.39991
1.39992
1.39994
1.39995
1.39996
1.39997
1.39998
1.39999
1.39999
1.4
1.45112
1.45582
1.45808
1.45773
1.45493
1.45004
1.44352
1.43587
1.42757
1.41901
1.41054
1.40244
1.39488
1.38799
1.38184
1.37643
1.37176
1.36777
1.36441
1.36162
1.35935
1.35755
1.35619
1.35526
1.35476
1.35472
1.35517
1.35616
1.35777
1.36007
1.36315
1.36711
1.37203
1.37795
1.3849
1.39287
1.40177
1.41147
1.42166
1.43189
1.44149
1.44965
1.45559
1.45872
1.45882
1.45611
1.45114
1.44471
1.43762
1.43057
1.42405
1.41836
1.41362
1.40982
1.40688
1.40468
1.40307
1.40194
1.40116
1.40064
1.40031
1.40011
1.39999
1.39994
1.39991
1.39991
1.39992
1.39993
1.39995
1.39996
1.39997
1.39998
1.39999
1.39999
1.4
1.45418
1.45746
1.45801
1.45585
1.45134
1.44493
1.43716
1.42855
1.41954
1.41055
1.40186
1.39373
1.38629
1.37964
1.3738
1.36875
1.36444
1.3608
1.35775
1.35522
1.35314
1.35148
1.3502
1.34929
1.34875
1.3486
1.34888
1.34963
1.35093
1.35286
1.35553
1.35905
1.36353
1.36906
1.3757
1.38346
1.39231
1.40213
1.41271
1.42364
1.43434
1.44402
1.4518
1.45693
1.45896
1.45786
1.45404
1.44825
1.44134
1.43411
1.4272
1.42101
1.41575
1.41147
1.40811
1.40557
1.4037
1.40237
1.40144
1.40082
1.40042
1.40018
1.40003
1.39996
1.39992
1.39991
1.39992
1.39993
1.39994
1.39996
1.39997
1.39998
1.39998
1.39999
1.39999
1.45632
1.458
1.45678
1.4529
1.44684
1.43913
1.43035
1.42099
1.41151
1.40227
1.39355
1.38555
1.37838
1.37209
1.36665
1.36202
1.35811
1.35483
1.35209
1.3498
1.34791
1.34638
1.34516
1.34427
1.3437
1.34348
1.34362
1.34418
1.34521
1.34679
1.34903
1.35206
1.35602
1.36104
1.36722
1.37463
1.38325
1.39302
1.40376
1.41516
1.42669
1.43761
1.44702
1.45404
1.45801
1.45867
1.45623
1.45132
1.44482
1.43759
1.43039
1.42376
1.418
1.41324
1.40946
1.40656
1.40441
1.40286
1.40177
1.40104
1.40056
1.40026
1.40008
1.39998
1.39993
1.39992
1.39992
1.39993
1.39994
1.39995
1.39996
1.39997
1.39998
1.39999
1.39999
1.4575
1.45749
1.45455
1.44909
1.44168
1.43289
1.4233
1.41341
1.40365
1.39435
1.38576
1.37804
1.37125
1.36539
1.36042
1.35623
1.35272
1.34977
1.34729
1.34518
1.3434
1.34191
1.34072
1.33982
1.33924
1.33899
1.33909
1.33956
1.34043
1.34175
1.34363
1.34619
1.3496
1.35403
1.35964
1.36654
1.37477
1.38431
1.39502
1.40666
1.41877
1.43066
1.44146
1.45021
1.45606
1.45854
1.45765
1.45385
1.44796
1.44091
1.43356
1.42657
1.42036
1.41512
1.41091
1.40764
1.40518
1.4034
1.40214
1.40128
1.40071
1.40035
1.40013
1.40001
1.39995
1.39992
1.39992
1.39993
1.39994
1.39995
1.39996
1.39997
1.39998
1.39999
1.39999
1.45774
1.45605
1.45151
1.44464
1.43607
1.42641
1.41622
1.40599
1.39612
1.38692
1.3786
1.37126
1.36493
1.35957
1.35507
1.35131
1.34814
1.34542
1.34305
1.34096
1.33912
1.33753
1.33624
1.33528
1.33469
1.33449
1.33468
1.33523
1.33615
1.33742
1.33912
1.34135
1.34427
1.34811
1.35308
1.35935
1.36703
1.37616
1.38667
1.39834
1.41079
1.42341
1.43535
1.44561
1.45324
1.45754
1.45829
1.45576
1.45069
1.44401
1.43665
1.42939
1.42278
1.41709
1.41245
1.40879
1.40603
1.40399
1.40255
1.40155
1.40089
1.40046
1.4002
1.40005
1.39997
1.39993
1.39992
1.39993
1.39994
1.39995
1.39996
1.39997
1.39998
1.39999
1.39999
1.45714
1.45384
1.44784
1.43975
1.43022
1.41987
1.40926
1.39885
1.38903
1.38007
1.37212
1.36525
1.35944
1.35458
1.35052
1.34709
1.3441
1.3414
1.33888
1.33652
1.33432
1.33238
1.33079
1.32967
1.32907
1.32903
1.3295
1.33042
1.33169
1.33325
1.33507
1.33723
1.33987
1.34322
1.34756
1.35314
1.36017
1.36874
1.37885
1.39036
1.40293
1.41604
1.42887
1.44044
1.44968
1.45575
1.45818
1.45706
1.45297
1.44682
1.43959
1.43218
1.42523
1.41913
1.41406
1.41002
1.40693
1.40464
1.403
1.40186
1.40109
1.40059
1.40028
1.40009
1.39999
1.39994
1.39993
1.39993
1.39994
1.39995
1.39996
1.39997
1.39998
1.39999
1.39999
1.4558
1.45102
1.44372
1.43458
1.42428
1.41341
1.40254
1.39211
1.38248
1.37385
1.36636
1.36002
1.35472
1.35032
1.34658
1.34329
1.34019
1.33714
1.33406
1.33096
1.32798
1.32531
1.32317
1.32174
1.32114
1.3214
1.32243
1.32409
1.32616
1.32846
1.33088
1.33337
1.33605
1.33916
1.34301
1.34794
1.35425
1.36215
1.37171
1.38287
1.39537
1.40873
1.42223
1.43486
1.44554
1.45326
1.45737
1.45772
1.45476
1.44929
1.44235
1.43488
1.42767
1.42119
1.41572
1.41131
1.40789
1.40533
1.40348
1.40219
1.40131
1.40073
1.40036
1.40015
1.40002
1.39996
1.39993
1.39993
1.39994
1.39995
1.39996
1.39997
1.39998
1.39998
1.39999
1.45387
1.44773
1.43931
1.4293
1.41837
1.40715
1.39617
1.38584
1.3765
1.3683
1.36133
1.35551
1.35069
1.34662
1.34299
1.3395
1.33585
1.3319
1.32763
1.32318
1.31885
1.31499
1.31197
1.31009
1.30952
1.31028
1.31222
1.31509
1.31853
1.32219
1.32579
1.32919
1.3324
1.33564
1.33925
1.34365
1.34928
1.35644
1.36534
1.37599
1.38822
1.40164
1.41557
1.42905
1.44097
1.45021
1.45593
1.4578
1.45605
1.4514
1.44487
1.43747
1.43007
1.42327
1.41742
1.41264
1.40889
1.40606
1.404
1.40254
1.40154
1.40088
1.40046
1.4002
1.40006
1.39998
1.39994
1.39993
1.39994
1.39995
1.39996
1.39997
1.39998
1.39998
1.39999
1.45147
1.44413
1.43474
1.42401
1.41262
1.40118
1.3902
1.38009
1.37112
1.36342
1.35697
1.35164
1.34719
1.34324
1.33937
1.33518
1.33036
1.32477
1.31852
1.31196
1.30559
1.3
1.29574
1.29325
1.29276
1.29428
1.29758
1.30225
1.30774
1.3135
1.31903
1.32403
1.32839
1.33225
1.336
1.34013
1.34517
1.35162
1.35978
1.3698
1.38162
1.3949
1.40905
1.42317
1.43612
1.44671
1.45397
1.45733
1.45686
1.45313
1.44712
1.43989
1.43239
1.42533
1.41913
1.414
1.40993
1.40683
1.40454
1.40292
1.4018
1.40105
1.40057
1.40027
1.4001
1.4
1.39996
1.39994
1.39994
1.39995
1.39996
1.39997
1.39998
1.39998
1.39999
1.44874
1.44034
1.43012
1.41882
1.4071
1.39556
1.3847
1.37489
1.36635
1.35916
1.35322
1.3483
1.34401
1.33985
1.33526
1.32972
1.3229
1.31476
1.30561
1.29604
1.28688
1.27897
1.2731
1.26984
1.26951
1.27209
1.27726
1.28442
1.29276
1.30147
1.3098
1.31721
1.32346
1.32859
1.33296
1.33715
1.34183
1.34763
1.35504
1.36435
1.37562
1.3886
1.40279
1.41733
1.43112
1.4429
1.45157
1.45639
1.45721
1.45448
1.44909
1.44212
1.4346
1.42733
1.42084
1.41537
1.41098
1.40761
1.40511
1.40331
1.40207
1.40123
1.40068
1.40034
1.40014
1.40003
1.39997
1.39995
1.39994
1.39995
1.39996
1.39997
1.39998
1.39998
1.39999
1.44578
1.43647
1.42556
1.4138
1.40187
1.39033
1.37967
1.37022
1.36216
1.35548
1.34998
1.34531
1.34091
1.3361
1.33015
1.32244
1.31267
1.30095
1.28786
1.27434
1.26157
1.25074
1.24286
1.23868
1.23859
1.24256
1.25017
1.26058
1.27268
1.2853
1.29737
1.30811
1.31707
1.3242
1.32979
1.33448
1.33908
1.34439
1.35109
1.35966
1.37027
1.38282
1.39688
1.41166
1.42609
1.43889
1.44883
1.45503
1.45714
1.45546
1.45077
1.44415
1.43669
1.42927
1.42251
1.41673
1.41205
1.40841
1.40569
1.40373
1.40235
1.40142
1.40081
1.40042
1.40019
1.40006
1.39999
1.39996
1.39995
1.39995
1.39996
1.39997
1.39998
1.39998
1.39999
1.4427
1.4326
1.42113
1.40904
1.39698
1.38553
1.37513
1.36609
1.35851
1.3523
1.34714
1.34248
1.3376
1.33159
1.32353
1.31274
1.29896
1.28254
1.26443
1.24598
1.22881
1.21446
1.2042
1.19894
1.19915
1.20482
1.21544
1.22991
1.24676
1.26435
1.28121
1.29623
1.30878
1.31867
1.32614
1.33186
1.33674
1.34178
1.34788
1.3557
1.3656
1.37761
1.39139
1.40625
1.42114
1.43478
1.44586
1.45335
1.45672
1.45609
1.45215
1.44596
1.43863
1.43112
1.42414
1.41808
1.41311
1.40922
1.40628
1.40415
1.40264
1.40161
1.40094
1.40051
1.40024
1.40009
1.40001
1.39997
1.39996
1.39996
1.39996
1.39997
1.39998
1.39998
1.39999
1.43959
1.42882
1.41689
1.40455
1.39247
1.38116
1.37107
1.36245
1.35535
1.34954
1.34454
1.33962
1.33382
1.32597
1.31499
1.30012
1.28125
1.25902
1.23481
1.21052
1.18823
1.16983
1.15683
1.1503
1.15081
1.15843
1.17255
1.19188
1.21449
1.23818
1.26093
1.28126
1.29827
1.31168
1.32171
1.32902
1.33461
1.33967
1.34531
1.35244
1.3616
1.37299
1.38638
1.40117
1.41636
1.43068
1.44275
1.45142
1.45598
1.45641
1.45326
1.44755
1.4404
1.43286
1.42569
1.41939
1.41416
1.41002
1.40687
1.40457
1.40294
1.40182
1.40107
1.4006
1.4003
1.40013
1.40003
1.39998
1.39996
1.39996
1.39996
1.39997
1.39998
1.39998
1.39999
1.43651
1.42518
1.41289
1.40039
1.38833
1.37723
1.36747
1.35928
1.35261
1.34709
1.34205
1.33654
1.32931
1.31897
1.30424
1.28433
1.2593
1.2302
1.19895
1.16806
1.14006
1.11718
1.10115
1.09315
1.09389
1.10355
1.12153
1.14634
1.17563
1.20655
1.23636
1.26304
1.28541
1.30309
1.3163
1.32574
1.33249
1.33789
1.34329
1.34981
1.35825
1.36896
1.38188
1.39648
1.41183
1.42667
1.43959
1.44931
1.455
1.45645
1.45411
1.44891
1.442
1.43447
1.42717
1.42065
1.41517
1.4108
1.40746
1.40499
1.40324
1.40202
1.40121
1.40069
1.40036
1.40016
1.40006
1.4
1.39997
1.39997
1.39997
1.39997
1.39998
1.39998
1.39999
1.43352
1.42174
1.40916
1.39656
1.38459
1.37372
1.36431
1.35651
1.35021
1.34486
1.33955
1.33307
1.32392
1.31045
1.29118
1.26535
1.23324
1.19638
1.15739
1.11935
1.08527
1.05765
1.03836
1.02873
1.02959
1.04125
1.06319
1.09383
1.13045
1.16951
1.20747
1.24157
1.27021
1.29287
1.30984
1.32189
1.33023
1.33631
1.34169
1.34775
1.3555
1.36552
1.37789
1.3922
1.40759
1.42282
1.43645
1.44711
1.45384
1.45627
1.45472
1.45006
1.44343
1.43595
1.42855
1.42184
1.41615
1.41156
1.40803
1.40541
1.40353
1.40223
1.40135
1.40078
1.40042
1.4002
1.40008
1.40002
1.39998
1.39997
1.39997
1.39997
1.39998
1.39999
1.39999
1.43069
1.41853
1.40574
1.39309
1.38123
1.37062
1.36154
1.35411
1.34809
1.34275
1.33693
1.32913
1.31759
1.30041
1.27597
1.24349
1.20358
1.15839
1.11123
1.06582
1.02554
0.993118
0.97054
0.959233
0.96014
0.973674
0.999444
1.03586
1.07996
1.12767
1.17457
1.21701
1.25276
1.2811
1.30234
1.31744
1.32772
1.3348
1.3404
1.34615
1.3533
1.36264
1.37442
1.38837
1.40369
1.41918
1.43339
1.44488
1.45255
1.4559
1.45512
1.45101
1.44468
1.43729
1.42982
1.42296
1.41707
1.41229
1.40858
1.40581
1.40382
1.40243
1.40149
1.40087
1.40048
1.40025
1.40011
1.40003
1.4
1.39998
1.39998
1.39998
1.39998
1.39999
1.39999
1.42803
1.41559
1.40265
1.38997
1.37825
1.3679
1.35913
1.352
1.34617
1.34071
1.33415
1.32471
1.31038
1.28906
1.25896
1.21937
1.17129
1.11755
1.06219
1.00949
0.963183
0.926175
0.900555
0.887768
0.888772
0.90404
0.933282
0.974999
1.02619
1.08241
1.1385
1.18983
1.23336
1.26795
1.29392
1.31241
1.32494
1.33328
1.33933
1.34493
1.35157
1.36027
1.37146
1.38499
1.40016
1.41581
1.43049
1.44268
1.45119
1.45539
1.45535
1.45177
1.44576
1.43849
1.43098
1.42399
1.41793
1.41297
1.4091
1.4062
1.4041
1.40262
1.40162
1.40096
1.40054
1.40029
1.40014
1.40005
1.40001
1.39999
1.39998
1.39998
1.39998
1.39999
1.39999
1.4256
1.41293
1.39989
1.38721
1.37562
1.36553
1.35705
1.35015
1.34441
1.33869
1.3312
1.31985
1.30245
1.27671
1.24075
1.19393
1.1377
1.07558
1.01235
0.952786
0.900936
0.859897
0.831785
0.817949
0.81924
0.836104
0.868323
0.914546
0.971897
1.03584
1.1007
1.16093
1.21252
1.25374
1.28477
1.3069
1.32189
1.3317
1.3384
1.34401
1.35025
1.35836
1.36896
1.38205