/*--------------------------------*- C++ -*----------------------------------*\
  =========                 |
  \\      /  F ield         | OpenFOAM: The Open Source CFD Toolbox
   \\    /   O peration     | Website:  https://openfoam.org
    \\  /    A nd           | Version:  6
     \\/     M anipulation  |
\*---------------------------------------------------------------------------*/
FoamFile
{
    version     2.0;
    format      ascii;
    class       volScalarField;
    location    "2.88";
    object      rho;
}
// * * * * * * * * * * * * * * * * * * * * * * * * * * * * * * * * * * * * * //

dimensions      [1 -3 0 0 0 0 0];

internalField   nonuniform List<scalar> 
5625
(
1.4
1.4
1.4
1.4
1.4
1.4
1.4
1.4
1.39999
1.39999
1.39999
1.39999
1.4
1.4
1.4
1.4
1.4
1.4
1.4
1.40001
1.40001
1.40001
1.40001
1.40001
1.40001
1.40002
1.40002
1.40002
1.40002
1.40002
1.40002
1.40001
1.40001
1.40001
1.40001
1.40001
1.40001
1.40001
1.40001
1.40001
1.40001
1.40001
1.40001
1.40001
1.40001
1.40001
1.40001
1.40001
1.40001
1.40001
1.40001
1.40001
1.40001
1.40001
1.40001
1.40001
1.40001
1.40001
1.40001
1.40001
1.40001
1.40001
1.40001
1.40001
1.40001
1.40001
1.40001
1.40001
1.40001
1.40001
1.40001
1.40001
1.40001
1.40001
1.40001
1.4
1.4
1.4
1.4
1.39999
1.39999
1.39999
1.39999
1.39999
1.39999
1.39999
1.39999
1.39999
1.39999
1.4
1.4
1.4
1.4
1.4
1.40001
1.40001
1.40001
1.40001
1.40002
1.40002
1.40002
1.40002
1.40002
1.40002
1.40002
1.40002
1.40002
1.40002
1.40002
1.40001
1.40001
1.40001
1.40001
1.40001
1.40001
1.40001
1.40001
1.40001
1.40001
1.40001
1.40001
1.40001
1.40001
1.40001
1.40001
1.40001
1.40001
1.40001
1.40001
1.40001
1.40001
1.40001
1.40001
1.40001
1.40001
1.40001
1.40001
1.40001
1.40001
1.40001
1.40001
1.40001
1.40001
1.40001
1.40001
1.40001
1.40001
1.40001
1.40001
1.40001
1.4
1.4
1.39999
1.39999
1.39999
1.39999
1.39999
1.39999
1.39999
1.39999
1.39999
1.39999
1.39999
1.39999
1.39999
1.4
1.4
1.4
1.40001
1.40001
1.40001
1.40001
1.40002
1.40002
1.40002
1.40002
1.40002
1.40002
1.40002
1.40002
1.40002
1.40002
1.40002
1.40002
1.40002
1.40002
1.40001
1.40001
1.40001
1.40001
1.40001
1.40001
1.40001
1.40001
1.40001
1.40001
1.40001
1.40001
1.40001
1.40001
1.40001
1.40001
1.40001
1.40001
1.40001
1.40001
1.40001
1.40001
1.40001
1.40001
1.40001
1.40001
1.40001
1.40001
1.40001
1.40001
1.40001
1.40001
1.40001
1.40001
1.40001
1.40001
1.40001
1.40001
1.40001
1.4
1.39999
1.39999
1.39999
1.39999
1.39999
1.39998
1.39998
1.39998
1.39998
1.39998
1.39998
1.39999
1.39999
1.39999
1.39999
1.4
1.4
1.40001
1.40001
1.40002
1.40002
1.40002
1.40003
1.40003
1.40003
1.40003
1.40003
1.40003
1.40003
1.40003
1.40003
1.40003
1.40002
1.40002
1.40002
1.40002
1.40002
1.40001
1.40001
1.40001
1.40001
1.40001
1.40001
1.40001
1.40001
1.40001
1.40001
1.40001
1.40001
1.40001
1.40001
1.40001
1.40001
1.40001
1.40001
1.40001
1.40001
1.40001
1.40001
1.40001
1.40001
1.40001
1.40001
1.40001
1.40001
1.40001
1.40001
1.40001
1.40001
1.40001
1.40001
1.40001
1.40001
1.40001
1.39999
1.39999
1.39999
1.39998
1.39998
1.39998
1.39998
1.39998
1.39998
1.39998
1.39998
1.39998
1.39998
1.39998
1.39999
1.39999
1.4
1.4
1.40001
1.40001
1.40002
1.40002
1.40003
1.40003
1.40004
1.40004
1.40004
1.40004
1.40004
1.40004
1.40004
1.40003
1.40003
1.40003
1.40003
1.40002
1.40002
1.40002
1.40002
1.40001
1.40001
1.40001
1.40001
1.40001
1.40001
1.40001
1.40001
1.40001
1.40001
1.40001
1.40001
1.40001
1.40001
1.40001
1.40001
1.40001
1.40001
1.40001
1.40001
1.40001
1.40001
1.40001
1.40001
1.40001
1.40001
1.40001
1.40001
1.40001
1.40001
1.40001
1.40001
1.40001
1.40001
1.40001
1.40001
1.39999
1.39999
1.39998
1.39998
1.39998
1.39997
1.39997
1.39997
1.39997
1.39997
1.39997
1.39997
1.39998
1.39998
1.39999
1.39999
1.4
1.40001
1.40001
1.40002
1.40003
1.40003
1.40004
1.40004
1.40005
1.40005
1.40005
1.40005
1.40005
1.40005
1.40005
1.40004
1.40004
1.40004
1.40003
1.40003
1.40003
1.40002
1.40002
1.40002
1.40001
1.40001
1.40001
1.40001
1.40001
1.40001
1.40001
1.40001
1.40001
1.40001
1.40001
1.40001
1.40001
1.40001
1.40001
1.40001
1.40001
1.40001
1.40001
1.40001
1.40001
1.40001
1.40001
1.40001
1.40001
1.40001
1.40001
1.40001
1.40001
1.40001
1.40001
1.40001
1.40001
1.40001
1.40001
1.39998
1.39998
1.39998
1.39997
1.39997
1.39997
1.39996
1.39996
1.39996
1.39996
1.39996
1.39997
1.39997
1.39998
1.39999
1.39999
1.4
1.40001
1.40002
1.40003
1.40004
1.40005
1.40005
1.40006
1.40006
1.40006
1.40007
1.40007
1.40006
1.40006
1.40006
1.40006
1.40005
1.40005
1.40004
1.40004
1.40003
1.40003
1.40002
1.40002
1.40002
1.40001
1.40001
1.40001
1.40001
1.40001
1.40001
1.40001
1.40001
1.40001
1.40001
1.40001
1.40001
1.40001
1.40001
1.40001
1.40001
1.40001
1.40001
1.40001
1.40001
1.40001
1.40001
1.40001
1.40001
1.40001
1.40001
1.40001
1.40001
1.40001
1.40001
1.40001
1.40001
1.40001
1.40001
1.39998
1.39998
1.39997
1.39997
1.39996
1.39996
1.39996
1.39995
1.39995
1.39996
1.39996
1.39996
1.39997
1.39998
1.39999
1.4
1.40001
1.40002
1.40003
1.40004
1.40006
1.40006
1.40007
1.40008
1.40008
1.40009
1.40009
1.40009
1.40008
1.40008
1.40008
1.40007
1.40006
1.40006
1.40005
1.40005
1.40004
1.40003
1.40003
1.40002
1.40002
1.40002
1.40001
1.40001
1.40001
1.40001
1.40001
1.40001
1.40001
1.40001
1.40001
1.40001
1.4
1.4
1.4
1.4
1.4
1.4
1.4
1.40001
1.40001
1.40001
1.40001
1.40001
1.40001
1.40001
1.40001
1.40001
1.40001
1.40001
1.40001
1.40001
1.40001
1.40001
1.40001
1.39997
1.39997
1.39996
1.39996
1.39995
1.39995
1.39995
1.39995
1.39995
1.39995
1.39996
1.39996
1.39997
1.39999
1.4
1.40001
1.40003
1.40004
1.40006
1.40007
1.40008
1.40009
1.4001
1.40011
1.40011
1.40011
1.40012
1.40011
1.40011
1.4001
1.4001
1.40009
1.40008
1.40007
1.40007
1.40006
1.40005
1.40004
1.40004
1.40003
1.40003
1.40002
1.40002
1.40001
1.40001
1.40001
1.40001
1.40001
1.40001
1.40001
1.40001
1.40001
1.4
1.4
1.4
1.4
1.4
1.4
1.4
1.4
1.40001
1.40001
1.40001
1.40001
1.40001
1.40001
1.40001
1.40001
1.40001
1.40001
1.40001
1.40001
1.40001
1.40001
1.40001
1.39997
1.39996
1.39995
1.39995
1.39994
1.39994
1.39994
1.39994
1.39994
1.39995
1.39996
1.39997
1.39999
1.4
1.40002
1.40004
1.40006
1.40008
1.40009
1.40011
1.40012
1.40014
1.40015
1.40015
1.40015
1.40016
1.40015
1.40015
1.40014
1.40014
1.40013
1.40012
1.40011
1.40009
1.40008
1.40007
1.40006
1.40005
1.40004
1.40004
1.40003
1.40002
1.40002
1.40002
1.40001
1.40001
1.40001
1.40001
1.40001
1.40001
1.40001
1.4
1.4
1.4
1.4
1.4
1.4
1.4
1.4
1.4
1.4
1.4
1.40001
1.40001
1.40001
1.40001
1.40001
1.40001
1.40001
1.40001
1.40001
1.40001
1.40001
1.40001
1.40001
1.39996
1.39995
1.39995
1.39994
1.39994
1.39993
1.39994
1.39994
1.39995
1.39996
1.39997
1.39999
1.40001
1.40003
1.40006
1.40008
1.40011
1.40013
1.40015
1.40017
1.40019
1.4002
1.40021
1.40022
1.40022
1.40021
1.40021
1.4002
1.40019
1.40018
1.40017
1.40015
1.40014
1.40012
1.40011
1.40009
1.40008
1.40007
1.40005
1.40004
1.40004
1.40003
1.40002
1.40002
1.40001
1.40001
1.40001
1.40001
1.40001
1.40001
1.40001
1.4
1.4
1.4
1.4
1.4
1.4
1.4
1.4
1.4
1.4
1.4
1.40001
1.40001
1.40001
1.40001
1.40001
1.40001
1.40001
1.40001
1.40001
1.40001
1.40001
1.40001
1.40001
1.39995
1.39995
1.39994
1.39993
1.39993
1.39993
1.39994
1.39995
1.39996
1.39998
1.4
1.40003
1.40006
1.40009
1.40012
1.40016
1.40019
1.40022
1.40024
1.40027
1.40029
1.4003
1.40031
1.40031
1.40031
1.4003
1.40029
1.40027
1.40026
1.40024
1.40022
1.4002
1.40018
1.40015
1.40013
1.40012
1.4001
1.40008
1.40007
1.40005
1.40004
1.40003
1.40003
1.40002
1.40002
1.40001
1.40001
1.40001
1.40001
1.40001
1.4
1.4
1.4
1.4
1.4
1.4
1.4
1.4
1.4
1.4
1.4
1.4
1.4
1.40001
1.40001
1.40001
1.40001
1.40001
1.40001
1.40001
1.40001
1.40001
1.40001
1.40001
1.40001
1.39995
1.39994
1.39994
1.39993
1.39994
1.39994
1.39995
1.39997
1.39999
1.40002
1.40006
1.4001
1.40014
1.40018
1.40023
1.40027
1.40032
1.40035
1.40039
1.40041
1.40043
1.40044
1.40045
1.40045
1.40044
1.40042
1.4004
1.40038
1.40035
1.40032
1.40029
1.40026
1.40023
1.4002
1.40017
1.40015
1.40012
1.4001
1.40008
1.40007
1.40005
1.40004
1.40003
1.40002
1.40002
1.40001
1.40001
1.40001
1.40001
1.40001
1.4
1.4
1.4
1.4
1.4
1.4
1.4
1.4
1.4
1.4
1.4
1.4
1.4
1.4
1.40001
1.40001
1.40001
1.40001
1.40001
1.40001
1.40001
1.40001
1.40001
1.40001
1.40001
1.39994
1.39994
1.39994
1.39994
1.39995
1.39996
1.39998
1.40001
1.40005
1.4001
1.40015
1.40021
1.40027
1.40033
1.4004
1.40046
1.40051
1.40056
1.4006
1.40063
1.40065
1.40066
1.40066
1.40065
1.40062
1.4006
1.40056
1.40052
1.40048
1.40043
1.40039
1.40034
1.4003
1.40026
1.40022
1.40019
1.40015
1.40013
1.4001
1.40008
1.40006
1.40005
1.40004
1.40003
1.40002
1.40001
1.40001
1.40001
1.40001
1.4
1.4
1.4
1.4
1.4
1.4
1.4
1.4
1.4
1.4
1.4
1.4
1.4
1.4
1.4
1.4
1.40001
1.40001
1.40001
1.40001
1.40001
1.40001
1.40001
1.40001
1.40001
1.40001
1.39995
1.39995
1.39995
1.39996
1.39998
1.40001
1.40004
1.40009
1.40015
1.40022
1.4003
1.40039
1.40048
1.40057
1.40065
1.40074
1.40081
1.40087
1.40092
1.40095
1.40097
1.40098
1.40096
1.40094
1.4009
1.40085
1.40079
1.40073
1.40066
1.40059
1.40052
1.40046
1.4004
1.40034
1.40029
1.40024
1.4002
1.40016
1.40013
1.4001
1.40008
1.40006
1.40004
1.40003
1.40002
1.40002
1.40001
1.40001
1.40001
1.4
1.4
1.4
1.4
1.4
1.4
1.4
1.4
1.4
1.4
1.4
1.4
1.4
1.4
1.4
1.4
1.40001
1.40001
1.40001
1.40001
1.40001
1.40001
1.40001
1.40001
1.40001
1.40001
1.39996
1.39996
1.39998
1.4
1.40004
1.40008
1.40015
1.40023
1.40032
1.40043
1.40054
1.40066
1.40079
1.40092
1.40104
1.40115
1.40125
1.40133
1.40139
1.40142
1.40144
1.40143
1.4014
1.40135
1.40129
1.40121
1.40111
1.40102
1.40092
1.40081
1.40072
1.40062
1.40053
1.40045
1.40038
1.40031
1.40025
1.4002
1.40016
1.40013
1.4001
1.40007
1.40005
1.40004
1.40003
1.40002
1.40001
1.40001
1.4
1.4
1.4
1.4
1.4
1.4
1.4
1.4
1.4
1.4
1.4
1.4
1.4
1.4
1.4
1.4
1.4
1.4
1.40001
1.40001
1.40001
1.40001
1.40001
1.40001
1.40001
1.40001
1.40001
1.39998
1.4
1.40003
1.40007
1.40013
1.40021
1.40031
1.40043
1.40057
1.40073
1.4009
1.40107
1.40125
1.40143
1.4016
1.40175
1.40188
1.40198
1.40205
1.40209
1.4021
1.40208
1.40202
1.40194
1.40184
1.40171
1.40158
1.40143
1.40128
1.40113
1.40098
1.40085
1.40072
1.4006
1.4005
1.40041
1.40033
1.40026
1.40021
1.40016
1.40012
1.40009
1.40006
1.40004
1.40003
1.40002
1.40001
1.40001
1.4
1.4
1.4
1.4
1.4
1.4
1.4
1.4
1.4
1.4
1.4
1.4
1.4
1.4
1.4
1.4
1.4
1.4
1.4
1.40001
1.40001
1.40001
1.40001
1.40001
1.40001
1.40001
1.40001
1.40002
1.40006
1.40011
1.40019
1.40029
1.40041
1.40057
1.40075
1.40095
1.40118
1.40142
1.40167
1.40192
1.40216
1.40239
1.40259
1.40276
1.4029
1.40299
1.40303
1.40303
1.40299
1.4029
1.40277
1.40261
1.40242
1.40222
1.402
1.40178
1.40157
1.40136
1.40116
1.40098
1.40082
1.40067
1.40055
1.40044
1.40034
1.40027
1.4002
1.40015
1.40011
1.40008
1.40005
1.40003
1.40002
1.40001
1.40001
1.4
1.4
1.4
1.4
1.4
1.4
1.4
1.4
1.4
1.4
1.4
1.4
1.4
1.4
1.4
1.4
1.4
1.4
1.4
1.40001
1.40001
1.40001
1.40001
1.40001
1.40001
1.40001
1.40001
1.40009
1.40015
1.40024
1.40036
1.40052
1.40071
1.40094
1.40121
1.4015
1.40182
1.40216
1.40251
1.40286
1.40319
1.4035
1.40377
1.40399
1.40417
1.40428
1.40433
1.40431
1.40423
1.4041
1.40391
1.40367
1.4034
1.40311
1.4028
1.40249
1.40218
1.40188
1.4016
1.40134
1.40111
1.40091
1.40073
1.40058
1.40045
1.40035
1.40026
1.40019
1.40014
1.4001
1.40006
1.40004
1.40002
1.40001
1.4
1.4
1.4
1.4
1.4
1.4
1.4
1.4
1.4
1.4
1.4
1.4
1.4
1.4
1.4
1.4
1.4
1.4
1.4
1.4
1.4
1.40001
1.40001
1.40001
1.40001
1.40001
1.40001
1.40001
1.40019
1.4003
1.40044
1.40063
1.40086
1.40115
1.40148
1.40186
1.40228
1.40273
1.4032
1.40368
1.40415
1.4046
1.40501
1.40537
1.40566
1.40588
1.40602
1.40608
1.40604
1.40592
1.40572
1.40545
1.40512
1.40474
1.40432
1.40389
1.40345
1.40301
1.40259
1.4022
1.40184
1.40152
1.40123
1.40099
1.40078
1.4006
1.40046
1.40034
1.40025
1.40018
1.40012
1.40008
1.40005
1.40003
1.40001
1.4
1.4
1.39999
1.39999
1.39999
1.39999
1.4
1.4
1.4
1.4
1.4
1.4
1.4
1.4
1.4
1.4
1.4
1.4
1.4
1.4
1.4
1.40001
1.40001
1.40001
1.40001
1.40001
1.40001
1.40001
1.40036
1.40052
1.40074
1.40102
1.40136
1.40177
1.40224
1.40277
1.40335
1.40397
1.40461
1.40526
1.40589
1.40648
1.40702
1.4075
1.40788
1.40816
1.40833
1.40839
1.40833
1.40816
1.40788
1.4075
1.40705
1.40652
1.40595
1.40535
1.40474
1.40414
1.40356
1.40302
1.40252
1.40207
1.40168
1.40134
1.40105
1.40081
1.40061
1.40046
1.40033
1.40023
1.40016
1.4001
1.40006
1.40003
1.40001
1.4
1.39999
1.39999
1.39999
1.39999
1.39999
1.39999
1.39999
1.4
1.4
1.4
1.4
1.4
1.4
1.4
1.4
1.4
1.4
1.4
1.4
1.4
1.4
1.40001
1.40001
1.40001
1.40001
1.40001
1.40001
1.40059
1.40084
1.40116
1.40156
1.40205
1.40262
1.40328
1.40401
1.4048
1.40563
1.40649
1.40735
1.40818
1.40896
1.40966
1.41027
1.41076
1.41111
1.41132
1.41139
1.4113
1.41106
1.41069
1.41018
1.40957
1.40887
1.4081
1.40729
1.40647
1.40565
1.40486
1.40412
1.40344
1.40283
1.40229
1.40182
1.40142
1.4011
1.40083
1.40061
1.40044
1.40031
1.40021
1.40013
1.40008
1.40004
1.40002
1.4
1.39999
1.39999
1.39998
1.39998
1.39999
1.39999
1.39999
1.39999
1.4
1.4
1.4
1.4
1.4
1.4
1.4
1.4
1.4
1.4
1.4
1.4
1.4
1.40001
1.40001
1.40001
1.40001
1.40001
1.40001
1.40093
1.40129
1.40175
1.40231
1.40299
1.40378
1.40468
1.40566
1.40672
1.40782
1.40895
1.41006
1.41113
1.41213
1.41302
1.41379
1.4144
1.41484
1.41511
1.41518
1.41505
1.41474
1.41425
1.4136
1.4128
1.41189
1.41088
1.40982
1.40872
1.40764
1.40658
1.40559
1.40467
1.40384
1.4031
1.40247
1.40193
1.40148
1.40112
1.40082
1.40059
1.40041
1.40028
1.40018
1.40011
1.40006
1.40002
1.4
1.39999
1.39998
1.39998
1.39998
1.39998
1.39998
1.39999
1.39999
1.39999
1.4
1.4
1.4
1.4
1.4
1.4
1.4
1.4
1.4
1.4
1.4
1.4
1.4
1.40001
1.40001
1.40001
1.40001
1.40001
1.40139
1.4019
1.40255
1.40333
1.40426
1.40532
1.40652
1.40782
1.4092
1.41063
1.41208
1.41349
1.41484
1.41609
1.4172
1.41815
1.4189
1.41944
1.41975
1.41983
1.41968
1.41929
1.41867
1.41785
1.41685
1.41568
1.4144
1.41303
1.41161
1.4102
1.40881
1.4075
1.40628
1.40517
1.40418
1.40333
1.4026
1.402
1.40151
1.40111
1.4008
1.40056
1.40038
1.40024
1.40014
1.40008
1.40003
1.4
1.39998
1.39998
1.39997
1.39997
1.39998
1.39998
1.39998
1.39999
1.39999
1.39999
1.4
1.4
1.4
1.4
1.4
1.4
1.4
1.4
1.4
1.4
1.4
1.4
1.40001
1.40001
1.40001
1.40001
1.40001
1.40202
1.40273
1.40362
1.40468
1.40592
1.40733
1.40889
1.41057
1.41235
1.41416
1.41597
1.41773
1.41939
1.42091
1.42225
1.42338
1.42427
1.42491
1.42528
1.42537
1.42518
1.42471
1.42398
1.42298
1.42176
1.42033
1.41874
1.41703
1.41524
1.41344
1.41166
1.40995
1.40836
1.4069
1.4056
1.40447
1.4035
1.40269
1.40203
1.4015
1.40108
1.40075
1.40051
1.40033
1.4002
1.40011
1.40005
1.40001
1.39998
1.39997
1.39997
1.39997
1.39997
1.39997
1.39998
1.39998
1.39999
1.39999
1.39999
1.4
1.4
1.4
1.4
1.4
1.4
1.4
1.4
1.4
1.4
1.4
1.4
1.40001
1.40001
1.40001
1.40001
1.40287
1.40383
1.40502
1.40643
1.40805
1.40988
1.41189
1.41402
1.41623
1.41847
1.42068
1.42279
1.42477
1.42656
1.42812
1.42942
1.43045
1.43118
1.4316
1.4317
1.43149
1.43096
1.43011
1.42896
1.42753
1.42585
1.42395
1.42187
1.41968
1.41744
1.41521
1.41304
1.411
1.40912
1.40743
1.40594
1.40467
1.4036
1.40272
1.40201
1.40145
1.40102
1.40069
1.40045
1.40028
1.40015
1.40007
1.40002
1.39998
1.39997
1.39996
1.39996
1.39996
1.39997
1.39997
1.39998
1.39998
1.39999
1.39999
1.4
1.4
1.4
1.4
1.4
1.4
1.4
1.4
1.4
1.4
1.4
1.4
1.40001
1.40001
1.40001
1.40001
1.40397
1.40526
1.40682
1.40866
1.41075
1.41307
1.41558
1.41821
1.4209
1.42359
1.42619
1.42865
1.43092
1.43294
1.43468
1.43612
1.43724
1.43803
1.43848
1.4386
1.43837
1.4378
1.43689
1.43563
1.43405
1.43215
1.42997
1.42755
1.42496
1.42225
1.41953
1.41685
1.41429
1.41191
1.40974
1.40783
1.40618
1.40478
1.40362
1.40269
1.40195
1.40137
1.40094
1.40062
1.40038
1.40022
1.40011
1.40003
1.39999
1.39997
1.39995
1.39995
1.39995
1.39996
1.39997
1.39997
1.39998
1.39998
1.39999
1.39999
1.4
1.4
1.4
1.4
1.4
1.4
1.4
1.4
1.4
1.4
1.4
1.4
1.40001
1.40001
1.40001
1.40539
1.40709
1.4091
1.41144
1.41408
1.41696
1.42001
1.42317
1.42635
1.42945
1.43241
1.43515
1.43763
1.43979
1.44163
1.44312
1.44426
1.44506
1.44552
1.44565
1.44543
1.44487
1.44395
1.44267
1.44102
1.439
1.43663
1.43395
1.431
1.42787
1.42464
1.42142
1.41829
1.41533
1.41262
1.4102
1.40808
1.40628
1.40478
1.40357
1.4026
1.40184
1.40127
1.40084
1.40053
1.40031
1.40016
1.40006
1.4
1.39997
1.39995
1.39994
1.39994
1.39995
1.39996
1.39997
1.39997
1.39998
1.39999
1.39999
1.39999
1.4
1.4
1.4
1.4
1.4
1.4
1.4
1.4
1.4
1.4
1.4
1.40001
1.40001
1.40001
1.4072
1.40937
1.41193
1.41485
1.41809
1.42157
1.42519
1.42886
1.43247
1.43591
1.43911
1.442
1.44454
1.44671
1.4485
1.44992
1.45099
1.45172
1.45214
1.45226
1.45207
1.45157
1.45074
1.44956
1.44799
1.44601
1.44361
1.44081
1.43764
1.43417
1.4305
1.42674
1.42302
1.41945
1.41613
1.41311
1.41045
1.40817
1.40625
1.40469
1.40343
1.40245
1.4017
1.40114
1.40073
1.40044
1.40024
1.4001
1.40002
1.39997
1.39995
1.39994
1.39994
1.39994
1.39995
1.39996
1.39997
1.39998
1.39998
1.39999
1.39999
1.4
1.4
1.4
1.4
1.4
1.4
1.4
1.4
1.4
1.4
1.4
1.4
1.40001
1.40001
1.40944
1.41217
1.41535
1.41892
1.4228
1.42688
1.43103
1.43512
1.43904
1.44266
1.44592
1.44876
1.45116
1.45312
1.45468
1.45586
1.45672
1.45729
1.4576
1.45769
1.45756
1.45719
1.45656
1.45563
1.45432
1.4526
1.4504
1.44771
1.44452
1.4409
1.43693
1.43273
1.42847
1.42427
1.42029
1.41662
1.41335
1.4105
1.40809
1.4061
1.40449
1.40323
1.40225
1.40152
1.40099
1.40061
1.40034
1.40016
1.40005
1.39998
1.39995
1.39993
1.39993
1.39993
1.39994
1.39995
1.39996
1.39997
1.39998
1.39998
1.39999
1.39999
1.4
1.4
1.4
1.4
1.4
1.4
1.4
1.4
1.4
1.4
1.4
1.40001
1.40001
1.41217
1.41555
1.41941
1.42366
1.42817
1.43278
1.43735
1.4417
1.44571
1.44927
1.45232
1.45484
1.45683
1.45835
1.45945
1.4602
1.46069
1.46099
1.46114
1.46117
1.46111
1.46094
1.46063
1.4601
1.45927
1.45805
1.45634
1.45407
1.45117
1.44768
1.44364
1.43919
1.4345
1.42974
1.42511
1.42076
1.4168
1.41332
1.41033
1.40784
1.40581
1.40421
1.40296
1.40202
1.40133
1.40083
1.40048
1.40025
1.4001
1.4
1.39995
1.39993
1.39992
1.39992
1.39993
1.39994
1.39995
1.39996
1.39997
1.39998
1.39999
1.39999
1.4
1.4
1.4
1.4
1.4
1.4
1.4
1.4
1.4
1.4
1.4
1.40001
1.40001
1.41544
1.41953
1.4241
1.429
1.43407
1.43908
1.44386
1.44821
1.45202
1.45519
1.45771
1.45958
1.46087
1.46167
1.46209
1.46224
1.46223
1.46214
1.46205
1.46201
1.46204
1.46212
1.4622
1.46223
1.46208
1.46161
1.46069
1.45918
1.45695
1.45395
1.4502
1.44579
1.44089
1.43572
1.43052
1.4255
1.42084
1.41666
1.41302
1.40995
1.40743
1.40542
1.40385
1.40265
1.40176
1.40112
1.40067
1.40036
1.40016
1.40004
1.39996
1.39993
1.39991
1.39991
1.39992
1.39993
1.39994
1.39996
1.39997
1.39998
1.39998
1.39999
1.39999
1.4
1.4
1.4
1.4
1.4
1.4
1.4
1.4
1.4
1.4
1.4
1.40001
1.41928
1.4241
1.42936
1.43483
1.44028
1.44546
1.45015
1.45416
1.45739
1.45981
1.46143
1.46234
1.46265
1.46251
1.46206
1.46145
1.46082
1.46027
1.4599
1.45976
1.45987
1.46023
1.46078
1.46146
1.46212
1.46263
1.46277
1.46235
1.46118
1.4591
1.45605
1.45207
1.4473
1.44198
1.43637
1.43077
1.42543
1.42052
1.41619
1.41248
1.40939
1.4069
1.40494
1.40344
1.40231
1.40149
1.40091
1.40052
1.40025
1.40008
1.39999
1.39993
1.39991
1.39991
1.39991
1.39992
1.39994
1.39995
1.39996
1.39997
1.39998
1.39999
1.39999
1.4
1.4
1.4
1.4
1.4
1.4
1.4
1.4
1.4
1.4
1.4
1.40001
1.42366
1.42921
1.43505
1.44092
1.4465
1.45151
1.45572
1.45898
1.46125
1.46254
1.46294
1.46262
1.46173
1.46048
1.45904
1.45759
1.45629
1.45525
1.45457
1.45431
1.4545
1.45513
1.45617
1.45753
1.45909
1.46068
1.46207
1.463
1.46322
1.46248
1.46059
1.45751
1.4533
1.44817
1.44244
1.43643
1.43049
1.42489
1.41983
1.41542
1.41171
1.40867
1.40626
1.4044
1.40299
1.40196
1.40122
1.40071
1.40037
1.40015
1.40002
1.39995
1.39991
1.3999
1.3999
1.39991
1.39993
1.39994
1.39996
1.39997
1.39998
1.39998
1.39999
1.39999
1.4
1.4
1.4
1.4
1.4
1.4
1.4
1.4
1.4
1.4
1.40001
1.42854
1.43471
1.44098
1.44696
1.45231
1.45674
1.46005
1.46216
1.46308
1.46293
1.46188
1.46013
1.45793
1.4555
1.45304
1.45075
1.44878
1.44726
1.44627
1.44589
1.44615
1.44705
1.44854
1.45056
1.453
1.45568
1.45837
1.46081
1.46265
1.46356
1.46326
1.46154
1.45837
1.45389
1.4484
1.44226
1.4359
1.42969
1.42393
1.4188
1.4144
1.41076
1.40784
1.40555
1.40382
1.40253
1.40161
1.40096
1.40053
1.40024
1.40007
1.39997
1.39992
1.3999
1.3999
1.3999
1.39992
1.39993
1.39995
1.39996
1.39997
1.39998
1.39999
1.39999
1.4
1.4
1.4
1.4
1.4
1.4
1.4
1.4
1.4
1.4
1.4
1.43381
1.44043
1.44683
1.45257
1.45728
1.46069
1.46269
1.46327
1.46257
1.46077
1.45812
1.4549
1.45137
1.44779
1.44436
1.44129
1.43871
1.43675
1.4355
1.43502
1.43533
1.43645
1.43834
1.44095
1.44418
1.44788
1.45183
1.45576
1.4593
1.46206
1.46363
1.46369
1.46203
1.45869
1.45387
1.44797
1.44146
1.4348
1.42841
1.42257
1.41747
1.41318
1.40968
1.40692
1.40481
1.40323
1.40208
1.40128
1.40072
1.40036
1.40014
1.4
1.39993
1.3999
1.39989
1.3999
1.39991
1.39993
1.39994
1.39996
1.39997
1.39998
1.39999
1.39999
1.4
1.4
1.4
1.4
1.4
1.4
1.4
1.4
1.4
1.4
1.4
1.43929
1.4461
1.45227
1.45734
1.46095
1.46294
1.46328
1.46209
1.45959
1.45606
1.45183
1.44718
1.44242
1.43779
1.43351
1.42975
1.42665
1.42433
1.42285
1.42228
1.42264
1.42394
1.42617
1.42927
1.43318
1.43776
1.44283
1.44813
1.4533
1.45793
1.46153
1.46363
1.46388
1.46213
1.45847
1.45323
1.44691
1.44005
1.43317
1.42669
1.42089
1.41592
1.41181
1.40852
1.40597
1.40406
1.40265
1.40166
1.40097
1.40051
1.40022
1.40005
1.39995
1.3999
1.39989
1.39989
1.3999
1.39992
1.39994
1.39995
1.39996
1.39997
1.39998
1.39999
1.39999
1.4
1.4
1.4
1.4
1.4
1.4
1.4
1.4
1.4
1.4
1.44475
1.4514
1.45692
1.46088
1.463
1.46324
1.46169
1.4586
1.45428
1.44907
1.44334
1.43741
1.43155
1.42603
1.42103
1.4167
1.41318
1.41056
1.4089
1.40826
1.40865
1.4101
1.4126
1.41611
1.42057
1.42588
1.4319
1.43839
1.44503
1.45141
1.45701
1.46127
1.46368
1.4639
1.46184
1.45772
1.45198
1.44523
1.43808
1.43107
1.42462
1.41896
1.4142
1.41035
1.40733
1.40503
1.40333
1.40212
1.40127
1.4007
1.40033
1.40011
1.39998
1.39992
1.39989
1.39989
1.3999
1.39991
1.39993
1.39994
1.39996
1.39997
1.39998
1.39999
1.39999
1.4
1.4
1.4
1.4
1.4
1.4
1.4
1.4
1.4
1.4
1.44992
1.456
1.46045
1.4629
1.46322
1.4615
1.45798
1.45299
1.44693
1.44019
1.43313
1.42608
1.41931
1.41303
1.40743
1.40264
1.39877
1.39589
1.39408
1.39337
1.3938
1.39537
1.39809
1.40193
1.40685
1.41277
1.41957
1.42706
1.43496
1.44289
1.45034
1.45671
1.46137
1.4638
1.46371
1.46112
1.45639
1.4501
1.44295
1.4356
1.42859
1.42228
1.41686
1.41241
1.40887
1.40615
1.40412
1.40266
1.40163
1.40093
1.40048
1.40019
1.40002
1.39993
1.39989
1.39988
1.39989
1.39991
1.39992
1.39994
1.39995
1.39997
1.39998
1.39999
1.39999
1.4
1.4
1.4
1.4
1.4
1.4
1.4
1.4
1.4
1.4
1.45451
1.45961
1.46259
1.46323
1.46157
1.45782
1.45236
1.44559
1.43796
1.42986
1.42167
1.41368
1.40612
1.39921
1.39309
1.38788
1.38369
1.38058
1.37862
1.37785
1.3783
1.37998
1.3829
1.38704
1.39236
1.39881
1.40627
1.4146
1.42357
1.43283
1.44192
1.45023
1.45709
1.46182
1.46392
1.46322
1.45989
1.45445
1.44761
1.44014
1.4327
1.42581
1.41975
1.41468
1.4106
1.40742
1.40503
1.40329
1.40205
1.40121
1.40065
1.40029
1.40008
1.39996
1.39991
1.39989
1.39989
1.3999
1.39992
1.39993
1.39995
1.39996
1.39997
1.39998
1.39999
1.39999
1.4
1.4
1.4
1.4
1.4
1.4
1.4
1.4
1.4
1.45825
1.46199
1.46321
1.46187
1.45816
1.45244
1.44516
1.43679
1.42778
1.41853
1.40936
1.40055
1.39231
1.38481
1.3782
1.37257
1.36804
1.36468
1.36255
1.36171
1.36219
1.364
1.36713
1.37157
1.37728
1.38422
1.39228
1.40135
1.41123
1.42163
1.43214
1.44219
1.45109
1.45807
1.46248
1.4639
1.4623
1.45807
1.45187
1.44454
1.43686
1.42948
1.42284
1.41715
1.41251
1.40885
1.40606
1.40401
1.40254
1.40153
1.40085
1.40042
1.40015
1.4
1.39992
1.39989
1.39989
1.3999
1.39991
1.39993
1.39995
1.39996
1.39997
1.39998
1.39999
1.39999
1.4
1.4
1.4
1.4
1.4
1.4
1.4
1.4
1.4
1.46095
1.46303
1.46231
1.45893
1.45322
1.44566
1.43675
1.42697
1.41678
1.40653
1.39651
1.38695
1.37805
1.36994
1.36277
1.35666
1.35172
1.34805
1.34573
1.34482
1.34534
1.34731
1.35071
1.35551
1.36166
1.3691
1.37776
1.38752
1.39822
1.40961
1.42135
1.43293
1.44367
1.45277
1.45946
1.46313
1.46351
1.4608
1.45557
1.44866
1.44095
1.43323
1.42606
1.41979
1.41457
1.41041
1.4072
1.40482
1.4031
1.4019
1.40109
1.40056
1.40024
1.40005
1.39995
1.3999
1.39989
1.39989
1.39991
1.39993
1.39994
1.39996
1.39997
1.39998
1.39999
1.39999
1.4
1.4
1.4
1.4
1.4
1.4
1.4
1.4
1.4
1.46249
1.46271
1.45999
1.45461
1.44704
1.43782
1.42747
1.41649
1.40526
1.39411
1.38329
1.37298
1.36334
1.35452
1.34667
1.33995
1.33449
1.33042
1.32785
1.32686
1.32748
1.32969
1.33347
1.33875
1.34545
1.35349
1.36279
1.37325
1.38473
1.39703
1.40986
1.42277
1.43514
1.44619
1.45507
1.46099
1.4635
1.46255
1.45858
1.45237
1.44486
1.43695
1.42936
1.42255
1.41678
1.4121
1.40846
1.40572
1.40372
1.40232
1.40136
1.40073
1.40034
1.40011
1.39998
1.39991
1.39989
1.39989
1.39991
1.39992
1.39994
1.39995
1.39997
1.39998
1.39999
1.39999
1.4
1.4
1.4
1.4
1.4
1.4
1.4
1.4
1.4
1.46285
1.46114
1.45644
1.44919
1.43993
1.42924
1.41765
1.40559
1.39344
1.38144
1.36977
1.35861
1.34808
1.33837
1.32964
1.32209
1.31593
1.31134
1.30847
1.3074
1.30818
1.31078
1.31511
1.32107
1.32852
1.33734
1.34741
1.35864
1.37091
1.38407
1.39788
1.41197
1.42579
1.43859
1.44949
1.45762
1.4623
1.46329
1.46081
1.45556
1.44848
1.44057
1.43267
1.4254
1.41909
1.4139
1.40981
1.4067
1.40441
1.40279
1.40167
1.40093
1.40046
1.40018
1.40002
1.39993
1.3999
1.3999
1.3999
1.39992
1.39994
1.39995
1.39996
1.39998
1.39998
1.39999
1.4
1.4
1.4
1.4
1.4
1.4
1.4
1.4
1.4
1.4621
1.45846
1.45189
1.44293
1.43217
1.42019
1.4075
1.3945
1.38145
1.36856
1.35594
1.34374
1.33208
1.32118
1.31127
1.30263
1.29554
1.29025
1.28697
1.28583
1.28687
1.29003
1.29518
1.30213
1.31064
1.32052
1.33159
1.34374
1.35687
1.37089
1.38561
1.40076
1.41586
1.43022
1.44298
1.45319
1.46003
1.46303
1.46223
1.45816
1.45173
1.44401
1.43594
1.42827
1.42148
1.4158
1.41125
1.40775
1.40516
1.4033
1.40202
1.40116
1.4006
1.40026
1.40006
1.39996
1.39991
1.3999
1.39991
1.39992
1.39993
1.39995
1.39996
1.39997
1.39998
1.39999
1.39999
1.4
1.4
1.4
1.4
1.4
1.4
1.4
1.4
1.46037
1.45488
1.44659
1.43609
1.42401
1.4109
1.39723
1.38332
1.36936
1.35546
1.3417
1.32817
1.31504
1.30257
1.29109
1.28099
1.27265
1.26642
1.26261
1.26138
1.26279
1.26675
1.27306
1.2814
1.29141
1.30277
1.3152
1.32853
1.34269
1.35763
1.37324
1.38935
1.40557
1.42131
1.43574
1.44789
1.45681
1.46185
1.46283
1.46012
1.45455
1.44718
1.43909
1.43113
1.42391
1.41775
1.41276
1.40887
1.40596
1.40386
1.40239
1.4014
1.40076
1.40036
1.40012
1.39999
1.39993
1.39991
1.39991
1.39992
1.39993
1.39995
1.39996
1.39997
1.39998
1.39999
1.39999
1.4
1.4
1.4
1.4
1.4
1.4
1.4
1.4
1.45782
1.4506
1.44074
1.42888
1.41564
1.40154
1.38696
1.37214
1.35717
1.34208
1.32688
1.31165
1.29661
1.28209
1.26855
1.2565
1.24649
1.23902
1.23448
1.23313
1.23503
1.24009
1.24797
1.25822
1.27031
1.2837
1.29799
1.31292
1.32838
1.34437
1.36091
1.37792
1.39515
1.41209
1.428
1.44191
1.4528
1.45985
1.46267
1.46144
1.45689
1.45005
1.44207
1.43392
1.42634
1.41974
1.41431
1.41004
1.40681
1.40446
1.4028
1.40167
1.40093
1.40046
1.40019
1.40003
1.39995
1.39992
1.39991
1.39992
1.39993
1.39995
1.39996
1.39997
1.39998
1.39999
1.39999
1.4
1.4
1.4
1.4
1.4
1.4
1.4
1.4
1.45462
1.44583
1.43457
1.42151
1.40725
1.39223
1.37677
1.36098
1.34486
1.32831
1.3113
1.29391
1.27642
1.25925
1.24303
1.22846
1.21627
1.20716
1.20168
1.20015
1.2027
1.20915
1.2191
1.23189
1.24673
1.26286
1.27965
1.29669
1.31385
1.33116
1.34873
1.36664
1.38476
1.40276
1.41996
1.43545
1.44816
1.45713
1.4618
1.46214
1.45874
1.45257
1.44483
1.4366
1.42872
1.42174
1.4159
1.41125
1.4077
1.40509
1.40323
1.40196
1.40112
1.40058
1.40026
1.40007
1.39997
1.39993
1.39992
1.39992
1.39993
1.39995
1.39996
1.39997
1.39998
1.39999
1.39999
1.4
1.4
1.4
1.4
1.4
1.4
1.4
1.4
1.45096
1.44074
1.42824
1.41413
1.39895
1.38308
1.36672
1.34986
1.33236
1.31404
1.29479
1.2747
1.2541
1.23359
1.21397
1.1962
1.18128
1.17012
1.16345
1.16171
1.16503
1.17323
1.18576
1.20175
1.22012
1.23978
1.25981
1.27963
1.29899
1.31795
1.33675
1.3556
1.37458
1.3935
1.41182
1.4287
1.44305
1.45384
1.46032
1.46226
1.46009
1.45473
1.44735
1.43914
1.43104
1.42371
1.41749
1.41247
1.40861
1.40574
1.40369
1.40227
1.40132
1.40071
1.40034
1.40012
1.4
1.39995
1.39993
1.39993
1.39994
1.39995
1.39996
1.39997
1.39998
1.39999
1.39999
1.4
1.4
1.4
1.4
1.4
1.4
1.4
1.4
1.44698
1.43549
1.4219
1.40686
1.39085
1.37415
1.35683
1.33875
1.31964
1.29918
1.27719
1.25378
1.22937
1.20474
1.18094
1.15928
1.14107
1.12748
1.1194
1.11739
1.12163
1.1319
1.14752
1.16738
1.19006
1.2141
1.2382
1.26151
1.28366
1.30471
1.32498
1.3449
1.36473
1.38446
1.40375
1.42183
1.43766
1.45012
1.45832
1.46186
1.46098
1.45651
1.4496
1.4415
1.43326
1.42564
1.41906
1.4137
1.40953
1.4064
1.40415
1.40259
1.40153
1.40085
1.40043
1.40018
1.40004
1.39997
1.39994
1.39993
1.39994
1.39995
1.39996
1.39997
1.39998
1.39999
1.39999
1.4
1.4
1.4
1.4
1.4
1.4
1.4
1.4
1.44284
1.43022
1.41567
1.39981
1.38303
1.36548
1.34713
1.32767
1.30666
1.28367
1.25844
1.23106
1.20208
1.17252
1.14381
1.11762
1.09563
1.07928
1.06963
1.0673
1.07255
1.08515
1.10431
1.12866
1.1564
1.18563
1.21463
1.2422
1.26777
1.29137
1.31344
1.33458
1.35529
1.37578
1.39589
1.415
1.43212
1.4461
1.45593
1.46102
1.46145
1.45792
1.45156
1.44366
1.43535
1.42748
1.4206
1.41491
1.41044
1.40707
1.40463
1.40291
1.40175
1.40099
1.40052
1.40023
1.40007
1.39999
1.39995
1.39994
1.39994
1.39995
1.39996
1.39997
1.39998
1.39999
1.39999
1.4
1.4
1.4
1.4
1.4
1.4
1.4
1.4
1.43867
1.42504
1.40966
1.39306
1.37554
1.35713
1.33763
1.31661
1.29344
1.26755
1.23855
1.20656
1.1723
1.13709
1.10281
1.0716
1.0455
1.02617
1.01478
1.01208
1.01838
1.03349
1.05653
1.08586
1.11928
1.1544
1.18905
1.22161
1.25126
1.27793
1.30214
1.32469
1.34634
1.36755
1.38838
1.40836
1.4266
1.44193
1.45324
1.45981
1.46154
1.45899
1.45325
1.4456
1.43728
1.42924
1.42207
1.41609
1.41134
1.40774
1.4051
1.40324
1.40198
1.40114
1.40062
1.4003
1.40011
1.40001
1.39997
1.39995
1.39995
1.39996
1.39997
1.39997
1.39998
1.39999
1.39999
1.4
1.4
1.4
1.4
1.4
1.4
1.4
1.4
1.43456
1.42007
1.40394
1.38667
1.36843
1.34912
1.32839
1.30563
1.28006
1.25091
1.2177
1.18055
1.1404
1.09898
1.0587
1.02216
0.991759
0.969314
0.956084
0.952903
0.960225
0.977924
1.00504
1.03968
1.07921
1.12076
1.16165
1.19983
1.23414
1.26437
1.29109
1.31527
1.33794
1.35986
1.38131
1.40202
1.4212
1.43772
1.45038
1.45834
1.46131
1.45975
1.45465
1.44733
1.43905
1.43087
1.42347
1.41722
1.41222
1.40839
1.40557
1.40357
1.4022
1.40129
1.40072
1.40036
1.40015
1.40004
1.39998
1.39996
1.39996
1.39996
1.39997
1.39998
1.39998
1.39999
1.39999
1.4
1.4
1.4
1.4
1.4
1.4
1.4
1.4
1.43062
1.41536
1.39857
1.38069
1.36176
1.34151
1.31944
1.29481