/*--------------------------------*- C++ -*----------------------------------*\
  =========                 |
  \\      /  F ield         | OpenFOAM: The Open Source CFD Toolbox
   \\    /   O peration     | Website:  https://openfoam.org
    \\  /    A nd           | Version:  6
     \\/     M anipulation  |
\*---------------------------------------------------------------------------*/
FoamFile
{
    version     2.0;
    format      ascii;
    class       surfaceScalarField;
    location    "1.74";
    object      meshPhi;
}
// * * * * * * * * * * * * * * * * * * * * * * * * * * * * * * * * * * * * * //

dimensions      [0 3 -1 0 0 0 0];

internalField   nonuniform List<scalar> 
8193
(
-0.000852804
0.00260663
0.000282528
-0.00145323
0.0049069
-0.00204278
0.00694895
-0.0025816
0.00870188
-0.00303438
0.0101459
-0.0033732
0.0112713
-0.00357928
0.0120777
-0.00364396
0.0125721
-0.0035687
0.0127677
-0.00336434
0.0126825
-0.00304979
0.0123379
-0.00265026
0.0117575
-0.0021953
0.010966
-0.00171675
0.00998876
-0.0012468
0.00885104
-0.0008162
0.00757767
-0.000452736
0.00619284
-0.000179944
0.00472007
-1.61321e-05
0.00318221
2.63563e-05
0.00160156
-5.83797e-05
-1.01047e-14
-0.000269546
-0.00160082
-0.000599622
-0.00317927
-0.00103456
-0.00471354
-0.00155419
-0.00618147
-0.00213293
-0.00756039
-0.00274072
-0.008827
-0.00334429
-0.00995737
-0.00390863
-0.010927
-0.00439885
-0.0117109
-0.00478211
-0.0122843
-0.00502975
-0.0126227
-0.0051193
-0.0127029
-0.00503635
-0.012504
-0.00477602
-0.0120083
-0.00434384
-0.011203
-0.00375586
-0.0100813
-0.00303798
-0.008644
-0.00222424
-0.00690077
-0.00135431
-0.00487155
-0.00258715
-0.000470206
-0.00355202
0.0080169
0.00166304
-0.00542298
0.0123306
-0.00716519
0.0160554
-0.00867803
0.0191454
-0.00987839
0.0215799
-0.0107061
0.0233605
-0.0111269
0.024507
-0.0111339
0.0250534
-0.0107459
0.0250444
-0.0100049
0.024531
-0.00897254
0.0235675
-0.00772439
0.0222088
-0.00634551
0.0205088
-0.00492495
0.0185183
-0.00355097
0.0162849
-0.00230668
0.0138524
-0.00126633
0.0112608
-0.000492349
0.00854686
-3.29774e-05
0.00574453
7.94131e-05
0.00288551
-0.000170561
9.40247e-15
-0.000780704
-0.00288261
-0.00173116
-0.00573304
-0.00298481
-0.00852136
-0.00448826
-0.0112163
-0.00617338
-0.0137847
-0.00795951
-0.0161906
-0.0097564
-0.0183949
-0.0114679
-0.020355
-0.0129961
-0.0220248
-0.0142468
-0.0233545
-0.0151342
-0.024292
-0.0155865
-0.024784
-0.0155513
-0.0247774
-0.0149996
-0.0242228
-0.0139289
-0.0230769
-0.0123652
-0.0213069
-0.0103618
-0.0188938
-0.00799749
-0.015837
-0.00537107
-0.0121573
-0.00790067
-0.00259479
-0.00817284
0.0161278
0.00490531
-0.0112293
0.0220048
-0.0139244
0.0269285
-0.016131
0.0308573
-0.0177536
0.033788
-0.0187326
0.0357501
-0.0190471
0.0367989
-0.0187137
0.0370086
-0.0177842
0.0364648
-0.0163402
0.035259
-0.0144871
0.0334828
-0.0123475
0.0312244
-0.0100531
0.0285656
-0.00773873
0.0255799
-0.00553525
0.0223322
-0.00356419
0.0188788
-0.00193296
0.0152679
-0.00073112
0.0115409
-2.7471e-05
0.00773352
0.000132048
0.00387705
-0.000274285
1.27055e-18
-0.00124323
-0.0038707
-0.00274646
-0.00770834
-0.00473099
-0.0114851
-0.00712035
-0.0151704
-0.0098164
-0.0187301
-0.0127021
-0.0221246
-0.0156449
-0.0253077
-0.018502
-0.0282255
-0.0211252
-0.0308159
-0.0233679
-0.0330083
-0.0250922
-0.034724
-0.0261764
-0.0358781
-0.0265223
-0.0363822
-0.0260617
-0.0361479
-0.0247623
-0.0350925
-0.0226311
-0.0331446
-0.0197155
-0.030251
-0.0161024
-0.026384
-0.0119135
-0.0215476
-0.0157838
-0.00729882
-0.0148308
0.0265643
0.0103519
-0.0188019
0.0334443
-0.0221107
0.0390161
-0.0246386
0.0432585
-0.0263086
0.0461996
-0.0270881
0.0479079
-0.0269896
0.0484823
-0.0260673
0.0480419
-0.0244129
0.0467167
-0.0221492
0.0446392
-0.0194221
0.0419372
-0.0163927
0.0387293
-0.0132293
0.0351211
-0.0100996
0.0312039
-0.00716381
0.0270542
-0.00456875
0.0227344
-0.00244291
0.0182945
-0.000892574
0.0137735
1.07599e-06
0.00920203
0.000184071
0.00460428
-0.000368969
-1.76465e-20
-0.00165408
-0.00459334
-0.00363777
-0.00915858
-0.00625741
-0.0136769
-0.0094223
-0.0181258
-0.0130154
-0.022477
-0.0168962
-0.0266942
-0.020904
-0.0307308
-0.0248633
-0.0345286
-0.0285891
-0.0380154
-0.0318943
-0.0411049
-0.0345976
-0.0436965
-0.0365318
-0.0456772
-0.0375522
-0.0469243
-0.0375453
-0.0473109
-0.0364355
-0.0467118
-0.0341908
-0.0450125
-0.0308265
-0.0421181
-0.0264058
-0.037963
-0.0210378
-0.0325214
-0.0258153
-0.014873
-0.0233958
0.0387113
0.0180764
-0.0278629
0.0459915
-0.0313521
0.051656
-0.0337815
0.0557149
-0.0351157
0.0582345
-0.0353662
0.0593262
-0.0345893
0.0591334
-0.0328825
0.0578196
-0.0303776
0.055556
-0.0272341
0.0525119
-0.0236307
0.0488464
-0.0197571
0.0447028
-0.0158061
0.0402051
-0.0119659
0.0354562
-0.00841348
0.0305386
-0.0053091
0.0255155
-0.00279178
0.020433
-0.000975688
0.0153234
5.24443e-05
0.0102073
0.000235222
0.00509728
-0.000454194
0
-0.00201138
-0.00508072
-0.00440046
-0.0101416
-0.0075543
-0.0151772
-0.0113755
-0.0201774
-0.0157376
-0.0251248
-0.0204877
-0.0299913
-0.0254499
-0.0347357
-0.030429
-0.0393006
-0.0352169
-0.0436099
-0.0395987
-0.0475677
-0.0433609
-0.0510576
-0.0462994
-0.053944
-0.0482285
-0.0560758
-0.0489897
-0.0572914
-0.0484599
-0.0574269
-0.0465579
-0.0563259
-0.0432502
-0.0538506
-0.0385536
-0.0498947
-0.0325364
-0.0443952
-0.0373442
-0.0253157
-0.0334837
0.0517798
0.0278433
-0.0379397
0.0588846
-0.0411384
0.0641411
-0.0430526
0.0675941
-0.0437007
0.0693487
-0.043145
0.0695567
-0.0414884
0.068402
-0.0388688
0.0660862
-0.0354529
0.0628152
-0.0314285
0.0587881
-0.0269968
0.0541879
-0.022365
0.0491759
-0.0177383
0.043888
-0.0133138
0.0384332
-0.00927393
0.0328949
-0.00578254
0.0273326
-0.00298028
0.0217853
-0.000981989
0.0162748
0.000125557
0.0108093
0.000285179
0.00538714
-0.000529697
0
-0.00231443
-0.00536411
-0.00503292
-0.0107178
-0.00861773
-0.0160712
-0.0129706
-0.0214292
-0.0179637
-0.0267877
-0.0234413
-0.0321304
-0.0292225
-0.037425
-0.0351049
-0.0426194
-0.0408696
-0.047639
-0.0462868
-0.052384
-0.0511229
-0.0567285
-0.0551482
-0.0605216
-0.0581454
-0.0635909
-0.0599177
-0.0657476
-0.0602974
-0.0667959
-0.0591533
-0.0665435
-0.0563967
-0.0648146
-0.0519867
-0.0614643
-0.0459325
-0.0563925
-0.0495576
-0.0382946
-0.0444814
0.0648948
0.0391092
-0.0484018
0.0713374
-0.0508619
0.0757867
-0.0518954
0.0783199
-0.0515763
0.079076
-0.0500159
0.0782407
-0.0473579
0.0760301
-0.0437733
0.0726754
-0.0394536
0.0684084
-0.0346047
0.0634494
-0.0294391
0.0579978
-0.0241699
0.0522258
-0.019004
0.0462751
-0.0141368
0.040256
-0.00974739
0.0342488
-0.00599462
0.0283064
-0.00301398
0.0224582
-0.000915373
0.0167139
0.000218554
0.0110684
0.000333566
0.00550508
-0.00059537
-1.76465e-20
-0.00256358
-0.00547488
-0.00553644
-0.0109484
-0.00944929
-0.0164468
-0.0142078
-0.0219904
-0.0196886
-0.0275899
-0.0257405
-0.0332423
-0.0321869
-0.0389264
-0.0388278
-0.0445987
-0.0454447
-0.0501899
-0.0518045
-0.0556012
-0.057666
-0.0607034
-0.0627859
-0.0653373
-0.066927
-0.0693169
-0.0698649
-0.0724348
-0.0713962
-0.0744722
-0.0713458
-0.0752095
-0.0695734
-0.074441
-0.065979
-0.07199
-0.0605077
-0.0677245
-0.0615716
-0.0531525
-0.055602
0.077195
0.0510695
-0.0585167
0.0826201
-0.0598688
0.0859936
-0.0597487
0.0874189
-0.058279
0.0870606
-0.0556108
0.0851291
-0.0519182
0.0818631
-0.0473941
0.0775138
-0.0422437
0.0723297
-0.0366791
0.0665439
-0.0309134
0.0603646
-0.0251554
0.053969
-0.0196043
0.0474996
-0.0144458
0.0410642
-0.00984793
0.0347372
-0.00595855
0.028563
-0.00290286
0.0225604
-0.00078185
0.0167271
0.000328888
0.0110445
0.000379963
0.00548169
-0.000651248
5.81386e-15
-0.0027602
-0.00544379
-0.00591488
-0.0108938
-0.0100557
-0.0163916
-0.0150954
-0.0219724
-0.0209197
-0.0276615
-0.0273875
-0.0334693
-0.0343328
-0.0393868
-0.0415664
-0.0453809
-0.0488787
-0.05139
-0.0560438
-0.0573205
-0.0628237
-0.0630447
-0.0689736
-0.0684012
-0.0742484
-0.0731975
-0.0784088
-0.0772164
-0.081228
-0.0802246
-0.0824985
-0.0819853
-0.0820383
-0.0822725
-0.0796971
-0.0808867
-0.0753608
-0.0776719
-0.0725305
-0.0689566
-0.0659636
0.0879255
0.0627413
-0.0675196
0.0921305
-0.0675176
0.0943
-0.0660928
0.0945554
-0.0634036
0.093078
-0.0596274
0.0900931
-0.0549562
0.0858526
-0.049592
0.0806184
-0.0437423
0.0746472
-0.0376148
0.0681776
-0.0314137
0.0614206
-0.025335
0.0545532
-0.0195631
0.0477152
-0.0142676
0.0410091
-0.00960047
0.034502
-0.00569432
0.0282293
-0.00266074
0.0221992
-0.000589253
0.0163981
0.000453436
0.0107949
0.000423924
0.00534619
-0.000697494
2.424e-15
-0.0029065
-0.00530023
-0.00617448
-0.0106121
-0.0104482
-0.0159908
-0.0156498
-0.0214851
-0.0216766
-0.0271335
-0.0284016
-0.0329591
-0.035674
-0.038965
-0.0433209
-0.045129
-0.0511486
-0.0513988
-0.0589461
-0.0576882
-0.0664876
-0.0638747
-0.0735372
-0.0697995
-0.0798536
-0.0752699
-0.085195
-0.0800657
-0.0893245
-0.0839479
-0.0920164
-0.086671
-0.0930615
-0.0879981
-0.0922726
-0.0877167
-0.0894902
-0.0856558
-0.0817009
-0.0845872
-0.0746839
0.0965138
0.0730763
-0.0746897
0.099446
-0.0732383
0.100414
-0.0704937
0.0995502
-0.0666345
0.097043
-0.0618505
0.0931242
-0.0563382
0.0880507
-0.0502974
0.0820873
-0.0439273
0.0754923
-0.0374227
0.068504
-0.0309713
0.0613314
-0.0247505
0.0541478
-0.0189246
0.0470878
-0.0136433
0.0402473
-0.00903935
0.0336856
-0.00522775
0.0274294
-0.00230467
0.0214775
-0.000346888
0.015806
0.000588629
0.0103736
0.000464986
0.00512584
-0.000734389
-2.44463e-15
-0.00300549
-0.0050716
-0.00632345
-0.0101578
-0.0106422
-0.0153252
-0.0158941
-0.020634
-0.0219898
-0.026134
-0.0288183
-0.0318597
-0.0362469
-0.0378252
-0.0441222
-0.0440188
-0.0522711
-0.0503978
-0.0605027
-0.0568847
-0.0686106
-0.0633645
-0.0763756
-0.0696841
-0.0835696
-0.0756553
-0.0899592
-0.0810605
-0.0953103
-0.0856613
-0.0993928
-0.0892115
-0.101986
-0.0914711
-0.102881
-0.092223
-0.101892
-0.0912891
-0.0885464
-0.0988543
-0.0809779
0.102617
0.0810851
-0.0794235
0.104352
-0.0765855
0.104229
-0.0726397
0.102382
-0.0677705
0.0990033
-0.0621667
0.0943232
-0.0560185
0.0885968
-0.0495136
0.0820864
-0.0428354
0.0750467
-0.0361597
0.0677116
-0.0296526
0.0602848
-0.0234692
0.0529341
-0.0177512
0.0457875
-0.0126263
0.0389341
-0.00820677
0.0324257
-0.00458931
0.0262811
-0.00185418
0.0204913
-6.51672e-05
0.015024
0.000730579
0.00982962
0.000502686
0.00484541
-0.000762315
2.24023e-15
-0.00306077
-0.00478288
-0.00637163
-0.00958083
-0.010656
-0.0144693
-0.0158569
-0.0195175
-0.0218986
-0.0247847
-0.0286866
-0.0303146
-0.0361073
-0.0361308
-0.0440287
-0.0422308
-0.0523002
-0.0485812
-0.0607544
-0.0551134
-0.069208
-0.0617206
-0.0774642
-0.068258
-0.0853147
-0.0745444
-0.0925433
-0.0803685
-0.0989285
-0.0854978
-0.104248
-0.0896904
-0.108283
-0.0927096
-0.11082
-0.0943399
-0.111662
-0.0944032
-0.0927737
-0.110627
-0.0842466
0.106133
0.0859587
-0.0812986
0.10684
-0.0772814
0.105809
-0.0723692
0.103174
-0.0667401
0.0991228
-0.0605722
0.0938814
-0.0540408
0.0876989
-0.0473157
0.080831
-0.0405593
0.0735254
-0.0339248
0.0660091
-0.0275548
0.0584791
-0.0215804
0.051096
-0.0161201
0.0439815
-0.0112795
0.0372179
-0.00715092
0.0308507
-0.00381291
0.0248923
-0.00133054
0.0193273
0.000244776
0.0141174
0.000875225
0.00920687
0.000536576
0.00452688
-0.000781736
0
-0.00307643
-0.00445617
-0.00633008
-0.0089255
-0.0105107
-0.0134898
-0.0155714
-0.0182252
-0.0214496
-0.0231976
-0.0280668
-0.0284581
-0.0353284
-0.0340378
-0.0431233
-0.0399421
-0.0513239
-0.0461456
-0.0597871
-0.052588
-0.0683546
-0.0591713
-0.0768543
-0.065759
-0.0851022
-0.0721789
-0.092904
-0.0782285
-0.100058
-0.0836838
-0.106358
-0.088311
-0.111598
-0.0918809
-0.115573
-0.094184
-0.118089
-0.0950464
-0.0943439
-0.118961
-0.0841473
0.107186
0.0871707
-0.0801186
0.107085
-0.0752435
0.105368
-0.0696853
0.102163
-0.0636079
0.097653
-0.0571728
0.0920553
-0.0505358
0.0856107
-0.0438455
0.0785661
-0.0372416
0.0711603
-0.0308538
0.0636123
-0.0248009
0.0561113
-0.0191909
0.0488111
-0.01412
0.0418269
-0.00967325
0.0352354
-0.00592402
0.0290768
-0.00293457
0.0233589
-0.000756004
0.0180618
0.000571483
0.0131431
0.00101847
0.0085431
0.000566237
0.00418913
-0.000793186
3.28331e-16
-0.00305687
-0.00411052
-0.0062107
-0.00823025
-0.0102289
-0.0124451
-0.0150738
-0.0168357
-0.0206947
-0.0214725
-0.027028
-0.0264119
-0.0339964
-0.0316905
-0.0415084
-0.0373198
-0.0494583
-0.0432812
-0.0577264
-0.0495217
-0.0661788
-0.0559512
-0.0746686
-0.0624419
-0.0830368
-0.068831
-0.0911134
-0.0749259
-0.0987201
-0.0805126
-0.105672
-0.0853677
-0.111781
-0.0892715
-0.116859
-0.0920235
-0.120724
-0.0934564
-0.0934506
-0.123204
-0.0806349
0.106073
0.0845451
-0.075936
0.105401
-0.0705939
0.103223
-0.0647562
0.0996652
-0.0585695
0.0949002
-0.0521761
0.0891373
-0.0457113
0.0826069
-0.0393022
0.0755459
-0.0330663
0.0681836
-0.0271111
0.0607304
-0.0215334
0.0533677
-0.01642
0.0462428
-0.0118472
0.0394653
-0.00788169
0.0331073
-0.00458038
0.027205
-0.00199114
0.0217633
-0.000153001
0.0167594
0.000903545
0.0121488
0.00115631
0.00786978
0.000591295
0.00384784
-0.000797249
1.73237e-15
-0.00300671
-0.00376175
-0.00602582
-0.00752713
-0.00983423
-0.0113842
-0.014402
-0.0154158
-0.0196892
-0.0196953
-0.0256449
-0.0242822
-0.032207
-0.0292168
-0.0393015
-0.0345152
-0.0468422
-0.0401639
-0.0547304
-0.0461159
-0.0628548
-0.0522884
-0.0710919
-0.0585618
-0.0793064
-0.0647823
-0.0873525
-0.0707675
-0.0950749
-0.0763144
-0.102311
-0.0812106
-0.108895
-0.0852475
-0.114658
-0.0882344
-0.119435
-0.0900126
-0.0904681
-0.123069
-0.0739704
0.103199
0.0782824
-0.0690491
0.102175
-0.0636491
0.0997462
-0.0579018
0.0960294
-0.0519365
0.0911897
-0.0458768
0.0854262
-0.039839
0.078959
-0.0339303
0.0720145
-0.0282486
0.0648124
-0.0228816
0.0575543
-0.0179072
0.0504145
-0.013394
0.0435342
-0.00940138
0.0370183
-0.00598044
0.0309353
-0.00317437
0.0253191
-0.00101904
0.0201727
0.000456568
0.0154723
0.00122997
0.0111728
0.00128495
0.00721203
0.000611427
0.00351545
-0.000794544
-1.59889e-15
-0.0029306
-0.00342245
-0.00578782
-0.00684179
-0.0093503
-0.0103465
-0.0135947
-0.01402
-0.0184896
-0.0179368
-0.0239949
-0.0221578
-0.0300613
-0.0267255
-0.0366295
-0.0316588
-0.0436296
-0.0369482
-0.0509811
-0.0425516
-0.0585921
-0.0483921
-0.0663593
-0.0543578
-0.0741688
-0.0603035
-0.0818959
-0.0660568
-0.089407
-0.0714256
-0.0965607
-0.076209
-0.10321
-0.0802099
-0.109208
-0.0832483
-0.114405
-0.0851745
-0.0858809
-0.118662
-0.0646946
0.0990018
0.0689379
-0.0599737
0.0978172
-0.0548922
0.0953123
-0.0495673
0.0915984
-0.0441126
0.0868314
-0.0386357
0.0812002
-0.0332362
0.0749142
-0.0280048
0.0681894
-0.0230226
0.0612362
-0.0183611
0.0542476
-0.0140827
0.0473913
-0.010241
0.0408031
-0.00688174
0.0345843
-0.00404356
0.0288006
-0.00175856
0.0234848
-5.30368e-05
0.0186392
0.00105203
0.0142405
0.00154052
0.010244
0.00140097
0.00658869
0.000626382
0.0032013
-0.000785711
3.22084e-16
-0.00283314
-0.00310205
-0.00550881
-0.00619358
-0.00880032
-0.00936207
-0.0126895
-0.0126902
-0.0171518
-0.0162522
-0.0221556
-0.020109
-0.0276619
-0.0243041
-0.0336231
-0.0288578
-0.0399828
-0.0337632
-0.0466749
-0.0389822
-0.0536233
-0.044443
-0.0607418
-0.0500404
-0.0679338
-0.0556375
-0.0750926
-0.0610713
-0.0821025
-0.0661605
-0.0888404
-0.0707156
-0.095177
-0.0745512
-0.100981
-0.0774983
-0.10612
-0.0794168
-0.0802061
-0.110468
-0.0535698
0.0573568
-0.0493921
-0.0449293
-0.0402861
-0.035563
-0.0308542
-0.0262458
-0.0218147
-0.0176288
-0.0137466
-0.010218
-0.00708523
-0.00438325
-0.00214098
-0.000381989
0.000874795
0.00161452
0.00182598
0.00150133
0.000635981
-0.000771393
-0.00271872
-0.00520026
-0.00820622
-0.0117223
-0.0157292
-0.0202019
-0.025109
-0.030412
-0.0360648
-0.0420127
-0.0481921
-0.0545297
-0.060943
-0.0673395
-0.0736182
-0.0796702
-0.0853809
-0.0906319
-0.095305
-0.0992853
0.0701386
-0.091081
0.0624614
-0.100811
0.0529042
-0.108064
0.0421941
-0.112204
0.0311614
-0.112825
0.0206398
-0.1098
0.0113651
-0.103299
0.00388804
-0.0937738
-0.00148594
-0.0819123
-0.00471993
-0.0685707
-0.00602966
-0.0546854
-0.00583086
-0.0411802
-0.00465884
-0.0288776
-0.00307393
-0.018424
-0.00156838
-0.010238
-0.000490654
-0.0044874
-0.00109613
0.0688845
-0.0827216
0.0617476
-0.0911125
0.0529064
-0.097474
0.0429786
-0.101299
0.0326694
-0.102249
0.0226951
-0.10019
0.0137043
-0.0952075
0.00620801
-0.0876018
0.000528123
-0.077862
-0.0032294
-0.0666212
-0.00517189
-0.0545993
-0.00558945
-0.0425384
-0.00490069
-0.0311369
-0.0035831
-0.0209911
-0.00209832
-0.0125475
-0.000823581
-0.00607389
-0.00164842
0.066589
-0.0744102
0.0600672
-0.081581
0.052013
-0.0871048
0.0429444
-0.0905805
0.0334536
-0.0917275
0.0241492
-0.0904125
0.0155959
-0.0866637
0.00825888
-0.0806702
0.00246018
-0.0727681
-0.00164775
-0.0634138
-0.00408817
-0.0531474
-0.0050451
-0.0425485
-0.00482926
-0.0321905
-0.00382946
-0.0225958
-0.00245596
-0.0141971
-0.00108323
-0.00730771
-0.00210414
0.0633342
-0.0663179
0.0574732
-0.0723883
0.0502465
-0.0771346
0.042083
-0.0802408
0.0334743
-0.0814764
0.0249317
-0.0807154
0.0169403
-0.0779482
0.00991574
-0.0732843
0.00416826
-0.0669457
-0.000122366
-0.0592516
-0.0029174
-0.0505959
-0.00431473
-0.0414186
-0.00452967
-0.0321751
-0.00386327
-0.0233034
-0.00266189
-0.0151947
-0.0012726
-0.00816722
-0.00244807
0.0592463
-0.0585815
0.0540645
-0.06367
0.0476774
-0.0677026
0.0404352
-0.0704326
0.0327414
-0.0716718
0.0250202
-0.0713056
0.0176833
-0.0693018
0.0110954
-0.0657148
0.00554613
-0.0606833
0.00122714
-0.0544224
-0.00178007
-0.0472105
-0.00350641
-0.0393716
-0.00408638
-0.031255
-0.00373928
-0.0232136
-0.0027422
-0.0155817
-0.00139782
-0.00865492
-0.00267347
0.054487
-0.0513033
0.0499786
-0.0555245
0.0444173
-0.0589102
0.0380856
-0.0612687
0.0313103
-0.0624482
0.0244396
-0.0623474
0.0178176
-0.0609225
0.0117596
-0.0581914
0.00652832
-0.054234
0.00231572
-0.0491884
-0.000770176
-0.043244
-0.00271084
-0.0366312
-0.00357528
-0.0296088
-0.00351043
-0.0224498
-0.00272483
-0.0154263
-0.00146694
-0.00879457
-0.00278187
0.0492406
-0.0445525
0.0453796
-0.0480157
0.0406092
-0.050822
0.0351539
-0.0528237
0.0292754
-0.0538996
0.0232556
-0.0539625
0.0173789
-0.0529645
0.0119128
-0.0509009
0.00709049
-0.0478114
0.00309537
-0.0437789
4.89707e-05
-0.0389264
-0.00199607
-0.0334112
-0.00305813
-0.0274177
-0.00322325
-0.0211485
-0.00263649
-0.014815
-0.00148876
-0.00862671
-0.00278193
0.0437016
-0.0383688
0.0404466
-0.0411765
0.0364154
-0.0434703
0.0317841
-0.0451375
0.0267594
-0.0460826
0.021567
-0.046232
0.0164383
-0.0455391
0.0115971
-0.0439861
0.00724584
-0.0415868
0.00355348
-0.0383859
0.00064508
-0.0344583
-0.00140548
-0.0299061
-0.00257968
-0.024855
-0.00291478
-0.0194489
-0.00250048
-0.0138443
-0.001472
-0.00820334
-0.00268785
0.0380617
-0.032766
0.0353606
-0.0350128
0.0320053
-0.0368591
0.0281322
-0.0382199
0.0239023
-0.0390205
0.0194938
-0.0392009
0.0150929
-0.038718
0.0108836
-0.0375485
0.0070383
-0.03569
0.00370801
-0.0331621
0.00101404
-0.0300064
-0.00095884
-0.0262848
-0.00216718
-0.0220785
-0.00261135
-0.0174844
-0.00233544
-0.0126127
-0.00142463
-0.00758237
-0.00251741
0.0324986
-0.0277368
0.0302929
-0.0295086
0.0275435
-0.0309692
0.0243541
-0.0320551
0.0208489
-0.0327089
0.0171666
-0.0328825
0.0134547
-0.0325383
0.00986245
-0.0316515
0.00653384
-0.0302113
0.0036004
-0.0282219
0.00117469
-0.0257022
-0.000655506
-0.0226867
-0.00183186
-0.0192239
-0.00232874
-0.0153754
-0.00215491
-0.0112141
-0.00135346
-0.00682258
-0.00229002
0.0271668
-0.0232571
0.0253958
-0.024631
0.0231794
-0.0257636
0.0205956
-0.0266079
0.0177386
-0.0271208
0.0147148
-0.0272643
0.0116398
-0.0270071
0.0086325
-0.0263259
0.00581108
-0.0252063
0.00328742
-0.0236435
0.00116232
-0.021643
-0.000479188
-0.0192207
-0.00157186
-0.0164027
-0.00207355
-0.013225
-0.00196758
-0.0097328
-0.00126405
-0.00597941
-0.00202499
0.0221916
-0.0192905
0.0207953
-0.0203347
0.01904
-0.0211921
0.0169834
-0.0218285
0.0146959
-0.0222121
0.0122581
-0.0223137
0.00975896
-0.0221082
0.00729198
-0.0215753
0.0049523
-0.0207001
0.00283304
-0.0194738
0.0010217
-0.0178941
-0.000403295
-0.0159658
-0.00137588
-0.0137004
-0.00184519
-0.0111166
-0.00177804
-0.00823986
-0.00116069
-0.00510184
-0.00174014
0.0176659
-0.0157918
0.0165873
-0.0165661
0.0152248
-0.017196
0.0136199
-0.0176574
0.0118246
-0.0179271
0.00989887
-0.0179836
0.00791016
-0.0178073
0.00593074
-0.0173818
0.00403584
-0.0166935
0.00230124
-0.0157325
0.000800761
-0.0144932
-0.000396159
-0.0129741
-0.00122695
-0.0111783
-0.00163821
-0.0091134
-0.00158778
-0.00679186
-0.00104658
-0.00423058
-0.00145087
0.0136501
-0.0127105
0.0128371
-0.0132666
0.0118039
-0.0137117
0.0105804
-0.0140292
0.00920375
-0.0142028
0.00771809
-0.0142171
0.0061735
-0.0140577
0.00462481
-0.0137118
0.00313032
-0.0131683
0.00175028
-0.0124183
0.000545244
-0.011455
-0.000425544
-0.0102745
-0.00110593
-0.00887539
-0.00144449
-0.00725928
-0.00139623
-0.00543072
-0.000924016
-0.00339731
-0.00116963
0.0101742
-0.00999334
0.00957978
-0.0103757
0.00881917
-0.0106738
0.00791289
-0.0108765
0.00688719
-0.0109728
0.00577367
-0.0109524
0.00460879
-0.010805
0.0034332
-0.0105215
0.00229102
-0.0100934
0.00122887
-0.0095137
0.000294948
-0.00877634
-0.000462075
-0.00787684
-0.000994178
-0.00681229
-0.00125513
-0.00558144
-0.00120168
-0.00418484
-0.000794633
-0.00262488
-0.000905826
0.0072418
-0.00758597
0.00682478
-0.00783285
0.00628638
-0.00801716
0.00564031
-0.00813194
0.00490451
-0.00817031
0.00410093
-0.0081255
0.00325536
-0.00799101
0.00239705
-0.00776072
0.00155835
-0.00742894
0.000774178
-0.00699054
8.14735e-05
-0.00644106
-0.00048144
-0.00577679
-0.000875537
-0.00499485
-0.00106182
-0.00409327
-0.00100206
-0.00307105
-0.000659574
-0.00192824
-0.000665968
0.00483542
-0.00543455
0.00455987
-0.00557896
0.00419986
-0.00567905
0.00376411
-0.00573084
0.00326428
-0.0057304
0.00271499
-0.00567386
0.00213368
-0.00555746
0.00154051
-0.00537759
0.000958134
-0.00513089
0.000411483
-0.00481422
-7.25421e-05
-0.0044248
-0.000465408
-0.00396016
-0.000737327
-0.00341829
-0.000857676
-0.00279758
-0.000795436
-0.00209694
-0.00051967
-0.00131579
-0.000454103
0.00292193
-0.00348652
0.00275676
-0.00355738
0.00253736
-0.00359984
0.0022688
-0.00361199
0.00195811
-0.00359198
0.00161431
-0.00353796
0.00124834
-0.00344817
0.000873075
-0.0033209
0.000503208
-0.00315456
0.000155173
-0.00294765
-0.000152999
-0.00269883
-0.000401842
-0.0024069
-0.000570641
-0.00207085
-0.000637647
-0.00168986
-0.000580312
-0.00126332
-0.000375549
-0.000790842
-0.000272284
0.00145815
-0.0016912
0.0013764
-0.00171449
0.00126515
-0.0017239
0.0011269
-0.00171884
0.000965246
-0.00169873
0.000784909
-0.00166302
0.000591744
-0.00161118
0.000392737
-0.00154272
0.000195986
-0.00145719
1.06631e-05
-0.00135419
-0.000153032
-0.00123335
-0.000283941
-0.00109437
-0.000370021
-0.000937015
-0.000398445
-0.000761087
-0.000355703
-0.000566472
-0.000227722
-0.000353126
-0.000121075
0.000395902
-2.69013e-18
0.000373966
-2.13334e-18
0.000343021
-2.28644e-18
0.000303746
-2.22493e-18
0.000257177
-1.7318e-18
0.000204713
-1.64827e-18
0.000148122
-1.56857e-18
8.95465e-05
-1.17565e-18
3.14989e-05
-8.1793e-19
-2.31458e-05
-5.83508e-19
-7.11607e-05
-3.29805e-19
-0.000108983
-3.315e-19
-0.000132736
-4.12011e-19
-0.000138252
-2.88794e-19
-0.000121103
-1.47464e-19
-7.66339e-05
-5.91108e-20
-1.18286e-20
-0.000313684
0.00163346
-0.000296679
0.00163289
-0.000271293
0.00161852
-0.000238089
0.00159043
-0.000197976
0.00154875
-0.000152227
0.00149366
-0.00010248
0.00142539
-5.07445e-05
0.0013442
6.03746e-07
0.00125041
4.88259e-05
0.00114435
9.08329e-05
0.00102639
0.0001232
0.000896933
0.000142188
0.000756387
0.000143765
0.000605186
0.00012364
0.000443775
7.72893e-05
0.000272603
9.21256e-05
-0.000716464
0.00325329
-0.00067927
0.0032274
-0.000618267
0.00317354
-0.000534865
0.00309257
-0.000431538
0.00298553
-0.000311851
0.00285357
-0.000180477
0.00269795
-4.31957e-05
0.00252
9.31181e-05
0.00232116
0.000220526
0.0021029
0.000330072
0.00186672
0.000411835
0.00161413
0.000455012
0.00134667
0.000447999
0.0010658
0.000378493
0.000772988
0.000233608
0.000469612
0.000156985
-0.00085229
0.00490124
-0.000811946
0.00482306
-0.000733256
0.00470199
-0.000618243
0.00454056
-0.000470775
0.00434158
-0.000296597
0.00410806
-0.000103334
0.00384318
9.95373e-05
0.00355025
0.000300744
0.00323266
0.000487304
0.00289383
0.000644644
0.00253712
0.000756742
0.00216588
0.000806296
0.00178328
0.000774927
0.00139236
0.000643392
0.000995951
0.000391826
0.000596629
0.000196693
-0.000752449
0.00661648
-0.000724536
0.00645539
-0.000643622
0.00623555
-0.000512272
0.00596221
-0.000335803
0.00564099
-0.000122294
0.00527783
0.000117465
0.00487887
0.000370073
0.00445034
0.000619673
0.00399849
0.000848158
0.00352944
0.00103543
0.00304913
0.00115968
0.00256317
0.00119776
0.00207681
0.00112555
0.0015948
0.000918357
0.00112136
0.000551343
0.00066007
0.000213849
-0.00043743
0.00843524
-0.000436161
0.00815553
-0.000366195
0.00780022
-0.000230746
0.00737856
-3.6881e-05
0.00690036
0.000204542
0.00637573
0.00047904
0.00581497
0.000768752
0.00522829
0.00105277
0.00462567
0.00130758
0.00401666
0.00150752
0.00341022
0.00162537
0.00281451
0.00163292
0.00223678
0.00150168
0.00168323
0.00120352
0.0011589
0.000711382
0.000667568
0.00021168
8.50844e-05
0.0103902
4.68928e-05
0.00994964
9.4956e-05
0.00941572
0.00022509
0.00880343
0.000427891
0.00812842
0.000688952
0.00740656
0.000989225
0.00665364
0.00130553
0.005885
0.00161121
0.00511522
0.00187685
0.00435781
0.0020712
0.0036249
0.00216207
0.002927
0.00211731
0.00227282
0.00190593
0.00166902
0.00149903
0.00112015
0.000870905
0.000628523
0.000194217
0.000821969
0.0125097
0.000732989
0.0118581
0.000750361
0.0110948
0.000868356
0.0102428
0.00107432
0.00932567
0.00134913
0.00836693
0.00166796
0.00738944
0.00200112
0.00641488
0.00231524
0.00546313
0.00257451
0.00455187
0.00274206
0.00369615
0.00278149
0.00290799
0.0026583
0.00219618
0.00234145
0.00156606
0.00180482
0.00101945
0.00102849
0.000554627
0.000166447
0.00179599
0.0148169
0.00164645
0.0138949
0.00162639
0.0128427
0.00172765
0.0116944
0.00193303
0.0104841
0.00221714
0.00924538
0.00254771
0.00800987
0.00288707
0.00680669
0.00319404
0.00566155
0.00342584
0.00459605
0.00354029
0.00362715
0.00349792
0.0027667
0.00326415
0.00202128
0.00281123
0.00139203
0.00212016
0.000874765
0.00118216
0.0004602
0.000134355
0.00304646
0.0173292
0.00282805
0.0160666
0.00276555
0.0146563
0.00284713
0.0131472
0.00304927
0.0115874
0.00333832
0.0100228
0.00367251
0.00849614
0.00400447
0.00704485
0.00428399
0.0057005
0.00446101
0.00448764
0.00448869
0.00342319
0.00432639
0.00251609
0.0039425
0.00176715
0.00331689
0.00116929
0.00244299
0.000707998
0.00132923
0.000362116
0.000104776
0.00462875
0.0200567
0.00433434
0.018372
0.0042255
0.0165243
0.00428511
0.0145819
0.00448112
0.012611
0.00476909
0.0106734
0.0050954
0.00882459
0.005401
0.00711114
0.00562556
0.00556979
0.00571176
0.00422605
0.00560947
0.00309365
0.00527969
0.00217435
0.00469795
0.00145836
0.00385708
0.000925124
0.00276908
0.000544644
0.00146603
0.000279127
8.49783e-05
0.0066124
0.0230027
0.00623536
0.020802
0.00607637
0.0184268
0.00611097
0.0159708
0.00629589
0.0135234
0.00657293
0.011166
0.00687389
0.00896838
0.00712607
0.00698678
0.00725824
0.0052613
0.00720647
0.00381503
0.00691969
0.00265366
0.00636451
0.001766
0.00552906
0.00112527
0.00442547
0.000691161
0.00309104
0.000412497
0.00158771
0.000230422
8.1937e-05
0.0090774
0.0261627
0.00861051
0.0233399
0.00839611
0.0203366
0.00840001
0.0172797
0.00856447
0.0142878
0.0088142
0.0114657
0.00906349
0.00889993
0.00922421
0.00665499
0.00921394
0.00477138
0.00896383
0.00326456
0.00842551
0.00212543
0.00757668
0.00132215
0.00642476
0.000803215
0.00500851
0.000501504
0.0033973
0.00033922
0.00168807
0.00023333
0.000101269
0.0121084
0.0295255
0.0115423
0.0259623
0.0112639
0.0222204
0.0112263
0.0184693
0.0113537
0.014864
0.0115502
0.0115374
0.0117096
0.00859362
0.0117269
0.00610365
0.0115091
0.00410322
0.0109856
0.00259262
0.0101159
0.00153884
0.00889609
0.000879843
0.00736081
0.000530424
0.0055833
0.000389582
0.0036712
0.000348715
0.00175938
0.000300214
0.00014589
0.0157871
0.0330739
0.0151085
0.0286409
0.0147515
0.0240409
0.0146537
0.0194977
0.0147174
0.0152116
0.0148219
0.011348
0.014838
0.00802895
0.0146432
0.0053282
0.0141361
0.003269
0.0132488
0.00182613
0.0119564
0.00093104
0.0102818
0.00047998
0.00829653
0.000344523
0.00611593
0.00038363
0.00389048
0.000456423
0.00179248
0.000434728
0.00021449
0.020183
0.036786
0.0193725
0.0313442
0.018914
0.0257595
0.0187264
0.020324
0.0186861
0.0152932
0.0186439
0.01087
0.0184454
0.00719374
0.0179512
0.00433421
0.017055
0.0022915
0.0156991
0.00100124
0.0138833
0.000344875
0.0116685
0.000164001
0.00917268
0.000277654
0.00656062
0.000500982
0.00402727
0.000663842
0.00177699
0.000627786
0.000300029
0.0253431
0.0406374
0.0243731
0.0340411
0.023779
0.0273398
0.0234583
0.0209114
0.0232571
0.0150782
0.0229948
0.0100856
0.0224903
0.00608723
0.0215892
0.00313964
0.0201868
0.001205
0.0182449
0.000162391
0.0158002
-0.000173942
0.012964
-3.0863e-05
0.00991094
0.000350391
0.00686021
0.000741567
0.0040489
0.000952802
0.00170176
0.000853752
0.000388469
0.0312819
0.0446026
0.0301148
0.0367028
0.0293377
0.0287507
0.028824
0.0212309
0.0283865
0.0145465
0.0278097
0.00898931
0.0268863
0.00472266
0.025451
0.00177628
0.0234094
5.51458e-05
0.0207553
-0.000639777
0.0175773
-0.000580994
0.0140505
-7.74809e-05
0.0104157
0.000564869
0.00694833
0.00108121
0.00391959
0.00128019
0.00155572
0.00106748
0.000458048
0.0379721
0.0486576
0.0365591
0.0393061
0.0355366
0.02997
0.0347524
0.0212652
0.0339824
0.0136913
0.0329751
0.00759105
0.0314983
0.00312913
0.029383
0.000290266
0.0265567
-0.00110238
0.0230613
-0.00135174
0.0190541
-0.000838464
0.0147883
3.44654e-05
0.0105784
0.000897705
0.0067533
0.00146551
0.00360318
0.00157395
0.00132885
0.0012029
0.000479349
0.0453377
0.0527801
0.043619
0.0418356
0.0422733
0.0309866
0.0411221
0.0210107
0.039903
0.012522
0.0383279
0.00591786
0.0361436
0.00135236
0.033187
-0.00125866
0.0294231
-0.00220437
0.0249612
-0.00192161
0.0200461
-0.000921298
0.0150232
0.000291498
0.0102847
0.00129349
0.00620388
0.00180522
0.00306663
0.00173133
0.00101345
0.00117376
0.000416431
0.0532504
0.0569509
0.0511563
0.0442849
0.049395
0.031803
0.047763
0.0204799
0.0459591
0.0110657
0.0436597
0.0040146
0.0405973
-0.000545811
0.0366276
-0.0027991