/*--------------------------------*- C++ -*----------------------------------*\
  =========                 |
  \\      /  F ield         | OpenFOAM: The Open Source CFD Toolbox
   \\    /   O peration     | Website:  https://openfoam.org
    \\  /    A nd           | Version:  6
     \\/     M anipulation  |
\*---------------------------------------------------------------------------*/
FoamFile
{
    version     2.0;
    format      ascii;
    class       volVectorField;
    location    "4.17";
    object      U;
}
// * * * * * * * * * * * * * * * * * * * * * * * * * * * * * * * * * * * * * //

dimensions      [0 1 -1 0 0 0 0];

internalField   nonuniform List<vector> 
22500
(
(0.8944 0.4472 0)
(0.8944 0.4472 0)
(0.8944 0.4472 0)
(0.8944 0.4472 0)
(0.8944 0.4472 0)
(0.8944 0.4472 0)
(0.8944 0.4472 0)
(0.8944 0.4472 0)
(0.8944 0.4472 0)
(0.8944 0.4472 0)
(0.8944 0.4472 0)
(0.8944 0.4472 0)
(0.8944 0.4472 0)
(0.8944 0.4472 0)
(0.8944 0.4472 0)
(0.8944 0.4472 0)
(0.8944 0.4472 0)
(0.8944 0.4472 0)
(0.8944 0.4472 0)
(0.8944 0.4472 0)
(0.8944 0.4472 0)
(0.8944 0.4472 0)
(0.8944 0.4472 0)
(0.8944 0.4472 0)
(0.8944 0.4472 0)
(0.8944 0.4472 0)
(0.8944 0.4472 0)
(0.8944 0.4472 0)
(0.8944 0.4472 0)
(0.8944 0.4472 0)
(0.8944 0.4472 0)
(0.8944 0.4472 0)
(0.8944 0.4472 0)
(0.8944 0.4472 0)
(0.8944 0.4472 0)
(0.8944 0.4472 0)
(0.8944 0.4472 0)
(0.8944 0.4472 0)
(0.8944 0.4472 0)
(0.8944 0.4472 0)
(0.8944 0.4472 0)
(0.8944 0.4472 0)
(0.8944 0.4472 0)
(0.8944 0.4472 0)
(0.8944 0.4472 0)
(0.8944 0.4472 0)
(0.8944 0.4472 0)
(0.8944 0.4472 0)
(0.8944 0.4472 0)
(0.8944 0.4472 0)
(0.8944 0.4472 0)
(0.8944 0.4472 0)
(0.8944 0.4472 0)
(0.8944 0.4472 0)
(0.8944 0.4472 0)
(0.8944 0.4472 0)
(0.8944 0.4472 0)
(0.8944 0.4472 0)
(0.8944 0.4472 0)
(0.894399 0.4472 0)
(0.8944 0.447201 0)
(0.8944 0.447201 0)
(0.894399 0.447201 0)
(0.894399 0.447201 0)
(0.894399 0.447202 0)
(0.8944 0.447202 0)
(0.8944 0.447202 0)
(0.8944 0.447203 0)
(0.894401 0.447203 0)
(0.894402 0.447202 0)
(0.894403 0.447202 0)
(0.894405 0.447202 0)
(0.894408 0.447201 0)
(0.89441 0.447199 0)
(0.894412 0.447197 0)
(0.894416 0.447195 0)
(0.894419 0.447193 0)
(0.89442 0.447192 0)
(0.894421 0.447192 0)
(0.89442 0.447193 0)
(0.894417 0.447198 0)
(0.894412 0.447207 0)
(0.894403 0.447221 0)
(0.894392 0.447242 0)
(0.894377 0.44727 0)
(0.894357 0.447308 0)
(0.894335 0.447356 0)
(0.894311 0.447415 0)
(0.894285 0.447487 0)
(0.894258 0.447569 0)
(0.89423 0.447662 0)
(0.894205 0.447765 0)
(0.894183 0.447875 0)
(0.894165 0.447991 0)
(0.894152 0.448109 0)
(0.894146 0.448228 0)
(0.894147 0.448343 0)
(0.894155 0.44845 0)
(0.894171 0.448548 0)
(0.894194 0.448632 0)
(0.894222 0.448701 0)
(0.894256 0.448752 0)
(0.894294 0.448783 0)
(0.894335 0.448794 0)
(0.894376 0.448786 0)
(0.894417 0.448757 0)
(0.894456 0.448709 0)
(0.894491 0.448646 0)
(0.894523 0.448568 0)
(0.894549 0.448479 0)
(0.89457 0.448382 0)
(0.894584 0.448278 0)
(0.894594 0.448173 0)
(0.894598 0.448067 0)
(0.894597 0.447964 0)
(0.894592 0.447866 0)
(0.894584 0.447773 0)
(0.894573 0.447688 0)
(0.89456 0.447611 0)
(0.894547 0.447542 0)
(0.894532 0.447481 0)
(0.894517 0.447429 0)
(0.894503 0.447384 0)
(0.89449 0.447346 0)
(0.894477 0.447315 0)
(0.894465 0.447288 0)
(0.894454 0.447267 0)
(0.894445 0.44725 0)
(0.894436 0.447236 0)
(0.894429 0.447225 0)
(0.894422 0.447217 0)
(0.894417 0.447211 0)
(0.894413 0.447207 0)
(0.894409 0.447203 0)
(0.894407 0.447201 0)
(0.894404 0.4472 0)
(0.894403 0.447199 0)
(0.894402 0.447199 0)
(0.894401 0.447198 0)
(0.8944 0.447198 0)
(0.8944 0.447198 0)
(0.8944 0.447199 0)
(0.8944 0.447199 0)
(0.8944 0.447199 0)
(0.8944 0.447199 0)
(0.8944 0.447199 0)
(0.8944 0.4472 0)
(0.8944 0.4472 0)
(0.8944 0.4472 0)
(0.8944 0.4472 0)
(0.8944 0.4472 0)
(0.8944 0.4472 0)
(0.8944 0.4472 0)
(0.8944 0.4472 0)
(0.8944 0.4472 0)
(0.8944 0.4472 0)
(0.8944 0.4472 0)
(0.8944 0.4472 0)
(0.8944 0.4472 0)
(0.8944 0.4472 0)
(0.8944 0.4472 0)
(0.8944 0.4472 0)
(0.8944 0.4472 0)
(0.8944 0.4472 0)
(0.8944 0.4472 0)
(0.8944 0.4472 0)
(0.8944 0.4472 0)
(0.8944 0.4472 0)
(0.8944 0.4472 0)
(0.8944 0.4472 0)
(0.8944 0.4472 0)
(0.8944 0.4472 0)
(0.8944 0.4472 0)
(0.8944 0.4472 0)
(0.8944 0.4472 0)
(0.8944 0.4472 0)
(0.8944 0.4472 0)
(0.8944 0.4472 0)
(0.8944 0.4472 0)
(0.8944 0.4472 0)
(0.8944 0.4472 0)
(0.8944 0.4472 0)
(0.8944 0.4472 0)
(0.8944 0.4472 0)
(0.8944 0.4472 0)
(0.8944 0.4472 0)
(0.8944 0.4472 0)
(0.8944 0.4472 0)
(0.8944 0.4472 0)
(0.8944 0.4472 0)
(0.8944 0.4472 0)
(0.8944 0.4472 0)
(0.8944 0.4472 0)
(0.8944 0.4472 0)
(0.8944 0.4472 0)
(0.8944 0.4472 0)
(0.8944 0.4472 0)
(0.8944 0.4472 0)
(0.8944 0.4472 0)
(0.8944 0.4472 0)
(0.8944 0.4472 0)
(0.8944 0.4472 0)
(0.8944 0.4472 0)
(0.8944 0.4472 0)
(0.8944 0.4472 0)
(0.8944 0.4472 0)
(0.8944 0.4472 0)
(0.8944 0.4472 0)
(0.8944 0.4472 0)
(0.894399 0.447201 0)
(0.894399 0.447201 0)
(0.894399 0.447201 0)
(0.894399 0.447202 0)
(0.894399 0.447202 0)
(0.894399 0.447202 0)
(0.894399 0.447203 0)
(0.894399 0.447203 0)
(0.8944 0.447204 0)
(0.894401 0.447204 0)
(0.894402 0.447204 0)
(0.894404 0.447203 0)
(0.894406 0.447203 0)
(0.894409 0.447202 0)
(0.894412 0.447201 0)
(0.894414 0.4472 0)
(0.894417 0.447198 0)
(0.894419 0.447198 0)
(0.89442 0.447198 0)
(0.894419 0.447201 0)
(0.894416 0.447207 0)
(0.89441 0.447218 0)
(0.8944 0.447235 0)
(0.894386 0.447259 0)
(0.894368 0.447295 0)
(0.894345 0.447341 0)
(0.894318 0.4474 0)
(0.894287 0.447474 0)
(0.894252 0.447563 0)
(0.894216 0.447668 0)
(0.894179 0.447788 0)
(0.894143 0.447922 0)
(0.894111 0.448069 0)
(0.894083 0.448224 0)
(0.894061 0.448386 0)
(0.894048 0.448551 0)
(0.894044 0.448714 0)
(0.89405 0.44887 0)
(0.894066 0.449016 0)
(0.894092 0.449147 0)
(0.894127 0.449258 0)
(0.894171 0.449348 0)
(0.894221 0.449413 0)
(0.894276 0.44945 0)
(0.894334 0.44946 0)
(0.894393 0.449442 0)
(0.894451 0.449398 0)
(0.894505 0.449327 0)
(0.894554 0.449234 0)
(0.894596 0.449122 0)
(0.894631 0.448994 0)
(0.894658 0.448854 0)
(0.894676 0.448707 0)
(0.894687 0.448556 0)
(0.894689 0.448406 0)
(0.894686 0.44826 0)
(0.894676 0.44812 0)
(0.894662 0.44799 0)
(0.894644 0.44787 0)
(0.894624 0.447762 0)
(0.894603 0.447665 0)
(0.894581 0.447581 0)
(0.89456 0.447508 0)
(0.894539 0.447446 0)
(0.89452 0.447394 0)
(0.894502 0.447351 0)
(0.894486 0.447315 0)
(0.894471 0.447287 0)
(0.894458 0.447264 0)
(0.894446 0.447246 0)
(0.894437 0.447232 0)
(0.894428 0.447221 0)
(0.894422 0.447214 0)
(0.894416 0.447208 0)
(0.894412 0.447204 0)
(0.894408 0.447201 0)
(0.894405 0.447199 0)
(0.894403 0.447198 0)
(0.894402 0.447198 0)
(0.894401 0.447198 0)
(0.8944 0.447198 0)
(0.8944 0.447198 0)
(0.8944 0.447198 0)
(0.894399 0.447198 0)
(0.894399 0.447199 0)
(0.894399 0.447199 0)
(0.8944 0.447199 0)
(0.8944 0.447199 0)
(0.8944 0.4472 0)
(0.8944 0.4472 0)
(0.8944 0.4472 0)
(0.8944 0.4472 0)
(0.8944 0.4472 0)
(0.8944 0.4472 0)
(0.8944 0.4472 0)
(0.8944 0.4472 0)
(0.8944 0.4472 0)
(0.8944 0.4472 0)
(0.8944 0.4472 0)
(0.8944 0.4472 0)
(0.8944 0.4472 0)
(0.8944 0.4472 0)
(0.8944 0.4472 0)
(0.8944 0.4472 0)
(0.8944 0.4472 0)
(0.8944 0.4472 0)
(0.8944 0.4472 0)
(0.8944 0.4472 0)
(0.8944 0.4472 0)
(0.8944 0.4472 0)
(0.8944 0.4472 0)
(0.8944 0.4472 0)
(0.8944 0.4472 0)
(0.8944 0.4472 0)
(0.8944 0.4472 0)
(0.8944 0.4472 0)
(0.8944 0.4472 0)
(0.8944 0.4472 0)
(0.8944 0.4472 0)
(0.8944 0.4472 0)
(0.8944 0.4472 0)
(0.8944 0.4472 0)
(0.8944 0.4472 0)
(0.8944 0.4472 0)
(0.8944 0.4472 0)
(0.8944 0.4472 0)
(0.8944 0.4472 0)
(0.8944 0.4472 0)
(0.8944 0.4472 0)
(0.8944 0.4472 0)
(0.8944 0.4472 0)
(0.8944 0.4472 0)
(0.8944 0.4472 0)
(0.8944 0.4472 0)
(0.8944 0.4472 0)
(0.8944 0.4472 0)
(0.8944 0.4472 0)
(0.8944 0.4472 0)
(0.8944 0.4472 0)
(0.8944 0.4472 0)
(0.8944 0.4472 0)
(0.8944 0.4472 0)
(0.8944 0.4472 0)
(0.8944 0.4472 0)
(0.8944 0.4472 0)
(0.8944 0.4472 0)
(0.8944 0.4472 0)
(0.8944 0.4472 0)
(0.8944 0.447201 0)
(0.894399 0.447201 0)
(0.894399 0.447201 0)
(0.894399 0.447201 0)
(0.894399 0.447202 0)
(0.894399 0.447202 0)
(0.894399 0.447202 0)
(0.894399 0.447203 0)
(0.894399 0.447204 0)
(0.894399 0.447204 0)
(0.8944 0.447205 0)
(0.894401 0.447205 0)
(0.894402 0.447206 0)
(0.894404 0.447206 0)
(0.894406 0.447205 0)
(0.894409 0.447204 0)
(0.894412 0.447204 0)
(0.894415 0.447204 0)
(0.894417 0.447204 0)
(0.894418 0.447205 0)
(0.894418 0.447209 0)
(0.894414 0.447217 0)
(0.894407 0.447229 0)
(0.894397 0.44725 0)
(0.894381 0.447279 0)
(0.894358 0.44732 0)
(0.894331 0.447375 0)
(0.894297 0.447447 0)
(0.894257 0.447537 0)
(0.894213 0.447647 0)
(0.894165 0.447777 0)
(0.894116 0.447929 0)
(0.894066 0.4481 0)
(0.894019 0.44829 0)
(0.893977 0.448494 0)
(0.893943 0.448711 0)
(0.893918 0.448934 0)
(0.893905 0.449159 0)
(0.893904 0.449379 0)
(0.893918 0.449591 0)
(0.893945 0.449786 0)
(0.893986 0.44996 0)
(0.894039 0.450107 0)
(0.894104 0.450223 0)
(0.894177 0.450305 0)
(0.894255 0.450351 0)
(0.894338 0.450359 0)
(0.89442 0.450329 0)
(0.894501 0.450262 0)
(0.894576 0.450161 0)
(0.894643 0.45003 0)
(0.894701 0.449872 0)
(0.894748 0.449692 0)
(0.894783 0.449496 0)
(0.894806 0.449291 0)
(0.894818 0.44908 0)
(0.894819 0.44887 0)
(0.89481 0.448666 0)
(0.894794 0.448471 0)
(0.894771 0.448288 0)
(0.894744 0.448121 0)
(0.894714 0.447969 0)
(0.894682 0.447835 0)
(0.89465 0.447717 0)
(0.894618 0.447616 0)
(0.894589 0.44753 0)
(0.894561 0.447459 0)
(0.894536 0.4474 0)
(0.894513 0.447352 0)
(0.894493 0.447313 0)
(0.894475 0.447283 0)
(0.89446 0.447259 0)
(0.894447 0.44724 0)
(0.894436 0.447227 0)
(0.894427 0.447217 0)
(0.89442 0.447209 0)
(0.894414 0.447204 0)
(0.89441 0.447201 0)
(0.894407 0.447199 0)
(0.894404 0.447197 0)
(0.894402 0.447197 0)
(0.894401 0.447197 0)
(0.8944 0.447197 0)
(0.8944 0.447197 0)
(0.894399 0.447198 0)
(0.894399 0.447198 0)
(0.894399 0.447198 0)
(0.894399 0.447199 0)
(0.894399 0.447199 0)
(0.894399 0.447199 0)
(0.8944 0.447199 0)
(0.8944 0.4472 0)
(0.8944 0.4472 0)
(0.8944 0.4472 0)
(0.8944 0.4472 0)
(0.8944 0.4472 0)
(0.8944 0.4472 0)
(0.8944 0.4472 0)
(0.8944 0.4472 0)
(0.8944 0.4472 0)
(0.8944 0.4472 0)
(0.8944 0.4472 0)
(0.8944 0.4472 0)
(0.8944 0.4472 0)
(0.8944 0.4472 0)
(0.8944 0.4472 0)
(0.8944 0.4472 0)
(0.8944 0.4472 0)
(0.8944 0.4472 0)
(0.8944 0.4472 0)
(0.8944 0.4472 0)
(0.8944 0.4472 0)
(0.8944 0.4472 0)
(0.8944 0.4472 0)
(0.8944 0.4472 0)
(0.8944 0.4472 0)
(0.8944 0.4472 0)
(0.8944 0.4472 0)
(0.8944 0.4472 0)
(0.8944 0.4472 0)
(0.8944 0.4472 0)
(0.8944 0.4472 0)
(0.8944 0.4472 0)
(0.8944 0.4472 0)
(0.8944 0.4472 0)
(0.8944 0.4472 0)
(0.8944 0.4472 0)
(0.8944 0.4472 0)
(0.8944 0.4472 0)
(0.8944 0.4472 0)
(0.8944 0.4472 0)
(0.8944 0.4472 0)
(0.8944 0.4472 0)
(0.8944 0.4472 0)
(0.8944 0.4472 0)
(0.8944 0.4472 0)
(0.8944 0.4472 0)
(0.8944 0.4472 0)
(0.8944 0.4472 0)
(0.8944 0.4472 0)
(0.8944 0.4472 0)
(0.8944 0.4472 0)
(0.8944 0.4472 0)
(0.8944 0.4472 0)
(0.8944 0.4472 0)
(0.8944 0.4472 0)
(0.8944 0.4472 0)
(0.8944 0.4472 0)
(0.8944 0.4472 0)
(0.894399 0.4472 0)
(0.8944 0.447201 0)
(0.8944 0.447201 0)
(0.894399 0.447201 0)
(0.894399 0.447201 0)
(0.894399 0.447202 0)
(0.894399 0.447203 0)
(0.894398 0.447203 0)
(0.894398 0.447204 0)
(0.894398 0.447205 0)
(0.894399 0.447206 0)
(0.894399 0.447206 0)
(0.894401 0.447207 0)
(0.894402 0.447208 0)
(0.894404 0.447208 0)
(0.894407 0.447208 0)
(0.89441 0.447208 0)
(0.894412 0.447209 0)
(0.894414 0.44721 0)
(0.894416 0.447212 0)
(0.894415 0.447217 0)
(0.894411 0.447226 0)
(0.894404 0.447241 0)
(0.894392 0.447264 0)
(0.894373 0.447298 0)
(0.894347 0.447346 0)
(0.894314 0.44741 0)
(0.894273 0.447495 0)
(0.894224 0.447602 0)
(0.894168 0.447734 0)
(0.894106 0.447893 0)
(0.89404 0.44808 0)
(0.893972 0.448294 0)
(0.893907 0.448535 0)
(0.893846 0.448798 0)
(0.893793 0.449079 0)
(0.893751 0.449374 0)
(0.893723 0.449677 0)
(0.893711 0.44998 0)
(0.893716 0.450275 0)
(0.893741 0.450556 0)
(0.893785 0.450814 0)
(0.893846 0.451042 0)
(0.893924 0.451233 0)
(0.894016 0.451383 0)
(0.89412 0.451488 0)
(0.894231 0.451543 0)
(0.894346 0.451548 0)
(0.894461 0.451503 0)
(0.894572 0.451409 0)
(0.894675 0.45127 0)
(0.894767 0.451089 0)
(0.894846 0.450872 0)
(0.894909 0.450626 0)
(0.894956 0.450358 0)
(0.894986 0.450076 0)
(0.894999 0.449787 0)
(0.894998 0.449498 0)
(0.894984 0.449216 0)
(0.894958 0.448947 0)
(0.894923 0.448695 0)
(0.894883 0.448463 0)
(0.894838 0.448253 0)
(0.894792 0.448067 0)
(0.894745 0.447905 0)
(0.8947 0.447766 0)
(0.894657 0.447647 0)
(0.894618 0.447549 0)
(0.894582 0.447468 0)
(0.89455 0.447402 0)
(0.894523 0.44735 0)
(0.894499 0.447309 0)
(0.894478 0.447277 0)
(0.894461 0.447253 0)
(0.894446 0.447234 0)
(0.894435 0.447221 0)
(0.894425 0.447212 0)
(0.894418 0.447205 0)
(0.894412 0.447201 0)
(0.894408 0.447198 0)
(0.894405 0.447196 0)
(0.894402 0.447196 0)
(0.894401 0.447196 0)
(0.8944 0.447196 0)
(0.894399 0.447196 0)
(0.894399 0.447197 0)
(0.894399 0.447197 0)
(0.894399 0.447198 0)
(0.894399 0.447198 0)
(0.894399 0.447199 0)
(0.894399 0.447199 0)
(0.894399 0.447199 0)
(0.8944 0.447199 0)
(0.8944 0.4472 0)
(0.8944 0.4472 0)
(0.8944 0.4472 0)
(0.8944 0.4472 0)
(0.8944 0.4472 0)
(0.8944 0.4472 0)
(0.8944 0.4472 0)
(0.8944 0.4472 0)
(0.8944 0.4472 0)
(0.8944 0.4472 0)
(0.8944 0.4472 0)
(0.8944 0.4472 0)
(0.8944 0.4472 0)
(0.8944 0.4472 0)
(0.8944 0.4472 0)
(0.8944 0.4472 0)
(0.8944 0.4472 0)
(0.8944 0.4472 0)
(0.8944 0.4472 0)
(0.8944 0.4472 0)
(0.8944 0.4472 0)
(0.8944 0.4472 0)
(0.8944 0.4472 0)
(0.8944 0.4472 0)
(0.8944 0.4472 0)
(0.8944 0.4472 0)
(0.8944 0.4472 0)
(0.8944 0.4472 0)
(0.8944 0.4472 0)
(0.8944 0.4472 0)
(0.8944 0.4472 0)
(0.8944 0.4472 0)
(0.8944 0.4472 0)
(0.8944 0.4472 0)
(0.8944 0.4472 0)
(0.8944 0.4472 0)
(0.8944 0.4472 0)
(0.8944 0.4472 0)
(0.8944 0.4472 0)
(0.8944 0.4472 0)
(0.8944 0.4472 0)
(0.8944 0.4472 0)
(0.8944 0.4472 0)
(0.8944 0.4472 0)
(0.8944 0.4472 0)
(0.8944 0.4472 0)
(0.8944 0.4472 0)
(0.8944 0.4472 0)
(0.8944 0.4472 0)
(0.8944 0.4472 0)
(0.8944 0.4472 0)
(0.8944 0.4472 0)
(0.8944 0.4472 0)
(0.8944 0.4472 0)
(0.8944 0.4472 0)
(0.8944 0.4472 0)
(0.8944 0.447201 0)
(0.894399 0.4472 0)
(0.894399 0.447201 0)
(0.894399 0.447201 0)
(0.894399 0.447202 0)
(0.894399 0.447202 0)
(0.894398 0.447203 0)
(0.894398 0.447204 0)
(0.894398 0.447204 0)
(0.894398 0.447205 0)
(0.894398 0.447207 0)
(0.894398 0.447208 0)
(0.894399 0.447209 0)
(0.8944 0.44721 0)
(0.894402 0.447211 0)
(0.894404 0.447212 0)
(0.894406 0.447213 0)
(0.894409 0.447213 0)
(0.894411 0.447216 0)
(0.894412 0.44722 0)
(0.894411 0.447225 0)
(0.894408 0.447236 0)
(0.8944 0.447253 0)
(0.894386 0.447278 0)
(0.894365 0.447317 0)
(0.894336 0.44737 0)
(0.894296 0.447443 0)
(0.894247 0.44754 0)
(0.894187 0.447665 0)
(0.894117 0.447821 0)
(0.894038 0.448011 0)
(0.893953 0.448237 0)
(0.893863 0.448499 0)
(0.893773 0.448796 0)
(0.893687 0.449126 0)
(0.893608 0.449485 0)
(0.893542 0.449866 0)
(0.893491 0.450263 0)
(0.89346 0.450666 0)
(0.893451 0.451067 0)
(0.893467 0.451456 0)
(0.893508 0.451822 0)
(0.893574 0.452158 0)
(0.893664 0.452453 0)
(0.893775 0.452699 0)
(0.893904 0.452891 0)
(0.894048 0.453022 0)
(0.894202 0.453089 0)
(0.89436 0.453091 0)
(0.894517 0.453027 0)
(0.894668 0.4529 0)
(0.894809 0.452713 0)
(0.894934 0.452471 0)
(0.895041 0.452181 0)
(0.895127 0.451853 0)
(0.895191 0.451494 0)
(0.89523 0.451115 0)
(0.895247 0.450725 0)
(0.895243 0.450335 0)
(0.895221 0.449952 0)
(0.895183 0.449586 0)
(0.895132 0.449242 0)
(0.895073 0.448925 0)
(0.895009 0.448638 0)
(0.894942 0.448384 0)
(0.894876 0.448161 0)
(0.894811 0.44797 0)
(0.894751 0.447808 0)
(0.894695 0.447673 0)
(0.894645 0.447562 0)
(0.894601 0.447472 0)
(0.894563 0.447401 0)
(0.89453 0.447345 0)
(0.894502 0.447302 0)
(0.894479 0.44727 0)
(0.89446 0.447245 0)
(0.894444 0.447228 0)
(0.894432 0.447215 0)
(0.894423 0.447206 0)
(0.894415 0.447201 0)
(0.89441 0.447197 0)
(0.894406 0.447195 0)
(0.894403 0.447194 0)
(0.894401 0.447194 0)
(0.8944 0.447195 0)
(0.894399 0.447195 0)
(0.894399 0.447196 0)
(0.894398 0.447196 0)
(0.894399 0.447197 0)
(0.894399 0.447198 0)
(0.894399 0.447198 0)
(0.894399 0.447199 0)
(0.894399 0.447199 0)
(0.894399 0.447199 0)
(0.8944 0.447199 0)
(0.8944 0.447199 0)
(0.8944 0.4472 0)
(0.8944 0.4472 0)
(0.8944 0.4472 0)
(0.8944 0.4472 0)
(0.8944 0.4472 0)
(0.8944 0.4472 0)
(0.8944 0.4472 0)
(0.8944 0.4472 0)
(0.8944 0.4472 0)
(0.8944 0.4472 0)
(0.8944 0.4472 0)
(0.8944 0.4472 0)
(0.8944 0.4472 0)
(0.8944 0.4472 0)
(0.8944 0.4472 0)
(0.8944 0.4472 0)
(0.8944 0.4472 0)
(0.8944 0.4472 0)
(0.8944 0.4472 0)
(0.8944 0.4472 0)
(0.8944 0.4472 0)
(0.8944 0.4472 0)
(0.8944 0.4472 0)
(0.8944 0.4472 0)
(0.8944 0.4472 0)
(0.8944 0.4472 0)
(0.8944 0.4472 0)
(0.8944 0.4472 0)
(0.8944 0.4472 0)
(0.8944 0.4472 0)
(0.8944 0.4472 0)
(0.8944 0.4472 0)
(0.8944 0.4472 0)
(0.8944 0.4472 0)
(0.8944 0.4472 0)
(0.8944 0.4472 0)
(0.8944 0.4472 0)
(0.8944 0.4472 0)
(0.8944 0.4472 0)
(0.8944 0.4472 0)
(0.8944 0.4472 0)
(0.8944 0.4472 0)
(0.8944 0.4472 0)
(0.8944 0.4472 0)
(0.8944 0.4472 0)
(0.8944 0.4472 0)
(0.8944 0.4472 0)
(0.8944 0.4472 0)
(0.8944 0.4472 0)
(0.8944 0.4472 0)
(0.8944 0.4472 0)
(0.8944 0.4472 0)
(0.8944 0.4472 0)
(0.894399 0.4472 0)
(0.8944 0.4472 0)
(0.894399 0.447201 0)
(0.894399 0.447201 0)
(0.894399 0.447201 0)
(0.894398 0.447202 0)
(0.894398 0.447203 0)
(0.894397 0.447203 0)
(0.894397 0.447205 0)
(0.894397 0.447206 0)
(0.894396 0.447207 0)
(0.894397 0.447208 0)
(0.894397 0.44721 0)
(0.894398 0.447211 0)
(0.894399 0.447213 0)
(0.894401 0.447214 0)
(0.894403 0.447217 0)
(0.894405 0.447219 0)
(0.894407 0.447221 0)
(0.894408 0.447226 0)
(0.894407 0.447233 0)
(0.894403 0.447245 0)
(0.894394 0.447264 0)
(0.894379 0.447291 0)
(0.894356 0.447333 0)
(0.894323 0.447392 0)
(0.894278 0.447474 0)
(0.894219 0.447583 0)
(0.894148 0.447725 0)
(0.894062 0.447905 0)
(0.893964 0.448127 0)
(0.893855 0.448394 0)
(0.893739 0.448707 0)
(0.893618 0.449068 0)
(0.893499 0.449473 0)
(0.893387 0.449918 0)
(0.893288 0.450399 0)
(0.893205 0.450905 0)
(0.893146 0.451427 0)
(0.893113 0.451956 0)
(0.893111 0.452477 0)
(0.893142 0.452978 0)
(0.893205 0.453449 0)
(0.893301 0.453877 0)
(0.893429 0.454251 0)
(0.893584 0.454563 0)
(0.893762 0.454803 0)
(0.893958 0.454966 0)
(0.894166 0.455049 0)
(0.894379 0.455047 0)
(0.894591 0.454962 0)
(0.894795 0.454796 0)
(0.894985 0.454552 0)
(0.895155 0.454239 0)
(0.8953 0.453862 0)
(0.895416 0.453434 0)
(0.895501 0.452964 0)
(0.895556 0.452465 0)
(0.895579 0.451951 0)
(0.895572 0.451433 0)
(0.895541 0.450923 0)
(0.895487 0.450433 0)
(0.895416 0.449971 0)
(0.895333 0.449543 0)
(0.895242 0.449155 0)
(0.895148 0.448809 0)
(0.895055 0.448506 0)
(0.894964 0.448246 0)
(0.894879 0.448025 0)
(0.894802 0.447841 0)
(0.894732 0.44769 0)
(0.894671 0.447568 0)
(0.894618 0.447471 0)
(0.894573 0.447396 0)
(0.894535 0.447337 0)
(0.894503 0.447293 0)
(0.894478 0.447261 0)
(0.894457 0.447237 0)
(0.894441 0.44722 0)
(0.894429 0.447209 0)
(0.894419 0.447201 0)
(0.894412 0.447196 0)
(0.894407 0.447194 0)
(0.894403 0.447193 0)
(0.894401 0.447193 0)
(0.894399 0.447193 0)
(0.894398 0.447194 0)
(0.894398 0.447195 0)
(0.894398 0.447195 0)
(0.894398 0.447196 0)
(0.894398 0.447197 0)
(0.894398 0.447198 0)
(0.894399 0.447198 0)
(0.894399 0.447199 0)
(0.894399 0.447199 0)
(0.894399 0.447199 0)
(0.894399 0.447199 0)
(0.8944 0.4472 0)
(0.8944 0.4472 0)
(0.8944 0.4472 0)
(0.8944 0.4472 0)
(0.8944 0.4472 0)
(0.8944 0.4472 0)
(0.8944 0.4472 0)
(0.8944 0.4472 0)
(0.8944 0.4472 0)
(0.8944 0.4472 0)
(0.8944 0.4472 0)
(0.8944 0.4472 0)
(0.8944 0.4472 0)
(0.8944 0.4472 0)
(0.8944 0.4472 0)
(0.8944 0.4472 0)
(0.8944 0.4472 0)
(0.8944 0.4472 0)
(0.8944 0.4472 0)
(0.8944 0.4472 0)
(0.8944 0.4472 0)
(0.8944 0.4472 0)
(0.8944 0.4472 0)
(0.8944 0.4472 0)
(0.8944 0.4472 0)
(0.8944 0.4472 0)
(0.8944 0.4472 0)
(0.8944 0.4472 0)
(0.8944 0.4472 0)
(0.8944 0.4472 0)
(0.8944 0.4472 0)
(0.8944 0.4472 0)
(0.8944 0.4472 0)
(0.8944 0.4472 0)
(0.8944 0.4472 0)
(0.8944 0.4472 0)
(0.8944 0.4472 0)
(0.8944 0.4472 0)
(0.8944 0.4472 0)
(0.8944 0.4472 0)
(0.8944 0.4472 0)
(0.8944 0.4472 0)
(0.8944 0.4472 0)
(0.8944 0.4472 0)
(0.8944 0.4472 0)
(0.8944 0.4472 0)
(0.8944 0.4472 0)
(0.8944 0.4472 0)
(0.8944 0.4472 0)
(0.8944 0.4472 0)
(0.8944 0.4472 0)
(0.8944 0.4472 0)
(0.8944 0.4472 0)
(0.8944 0.4472 0)
(0.894399 0.447201 0)
(0.894399 0.447201 0)
(0.894399 0.447201 0)
(0.894399 0.447202 0)
(0.894398 0.447203 0)
(0.894397 0.447203 0)
(0.894397 0.447204 0)
(0.894396 0.447206 0)
(0.894396 0.447207 0)
(0.894395 0.447209 0)
(0.894395 0.44721 0)
(0.894396 0.447213 0)
(0.894396 0.447215 0)
(0.894398 0.447217 0)
(0.894399 0.44722 0)
(0.894401 0.447223 0)
(0.894403 0.447227 0)
(0.894404 0.447232 0)
(0.894402 0.44724 0)
(0.894398 0.447253 0)
(0.894389 0.447273 0)
(0.894373 0.447303 0)
(0.894347 0.447348 0)
(0.89431 0.447411 0)
(0.894259 0.4475 0)
(0.894192 0.44762 0)
(0.894107 0.447778 0)
(0.894005 0.447981 0)
(0.893885 0.448235 0)
(0.893749 0.448543 0)
(0.893601 0.44891 0)
(0.893445 0.449337 0)
(0.893286 0.449824 0)
(0.893131 0.450366 0)
(0.892987 0.450956 0)
(0.892862 0.451587 0)
(0.892763 0.452247 0)
(0.892695 0.452922 0)
(0.892663 0.453598 0)
(0.892673 0.454262 0)
(0.892725 0.454897 0)
(0.892819 0.455488 0)
(0.892956 0.456022 0)
(0.893132 0.456487 0)
(0.893343 0.456871 0)
(0.893582 0.457167 0)
(0.893844 0.457367 0)
(0.89412 0.457466 0)
(0.894404 0.457462 0)
(0.894685 0.457355 0)
(0.894956 0.457146 0)
(0.895209 0.456841 0)
(0.895435 0.456446 0)
(0.89563 0.45597 0)
(0.895788 0.455426 0)
(0.895905 0.454827 0)
(0.895979 0.454186 0)
(0.896012 0.453522 0)
(0.896006 0.452849 0)
(0.895964 0.452182 0)
(0.895892 0.451538 0)
(0.895795 0.450926 0)
(0.895682 0.450358 0)
(0.895557 0.449839 0)
(0.895427 0.449376 0)
(0.895297 0.448968 0)
(0.895171 0.448616 0)
(0.895054 0.448318 0)
(0.894946 0.448069 0)
(0.89485 0.447864 0)
(0.894765 0.447699 0)
(0.894692 0.447568 0)
(0.89463 0.447465 0)
(0.894579 0.447386 0)
(0.894536 0.447326 0)
(0.894502 0.447282 0)
(0.894475 0.44725 0)
(0.894453 0.447228 0)
(0.894437 0.447212 0)
(0.894424 0.447202 0)
(0.894415 0.447196 0)
(0.894408 0.447193 0)
(0.894404 0.447191 0)
(0.894401 0.447191 0)
(0.894399 0.447191 0)
(0.894398 0.447192 0)
(0.894397 0.447193 0)
(0.894397 0.447194 0)
(0.894397 0.447195 0)
(0.894398 0.447196 0)
(0.894398 0.447197 0)
(0.894398 0.447198 0)
(0.894399 0.447198 0)
(0.894399 0.447199 0)
(0.894399 0.447199 0)
(0.894399 0.447199 0)
(0.894399 0.447199 0)
(0.8944 0.4472 0)
(0.8944 0.4472 0)
(0.8944 0.4472 0)
(0.8944 0.4472 0)
(0.8944 0.4472 0)
(0.8944 0.4472 0)
(0.8944 0.4472 0)
(0.8944 0.4472 0)
(0.8944 0.4472 0)
(0.8944 0.4472 0)
(0.8944 0.4472 0)
(0.8944 0.4472 0)
(0.8944 0.4472 0)
(0.8944 0.4472 0)
(0.8944 0.4472 0)
(0.8944 0.4472 0)
(0.8944 0.4472 0)
(0.8944 0.4472 0)
(0.8944 0.4472 0)
(0.8944 0.4472 0)
(0.8944 0.4472 0)
(0.8944 0.4472 0)
(0.8944 0.4472 0)
(0.8944 0.4472 0)
(0.8944 0.4472 0)
(0.8944 0.4472 0)
(0.8944 0.4472 0)
(0.8944 0.4472 0)
(0.8944 0.4472 0)
(0.8944 0.4472 0)
(0.8944 0.4472 0)
(0.8944 0.4472 0)
(0.8944 0.4472 0)
(0.8944 0.4472 0)
(0.8944 0.4472 0)
(0.8944 0.4472 0)
(0.8944 0.4472 0)
(0.8944 0.4472 0)
(0.8944 0.4472 0)
(0.8944 0.4472 0)
(0.8944 0.4472 0)
(0.8944 0.4472 0)
(0.8944 0.4472 0)
(0.8944 0.4472 0)
(0.8944 0.4472 0)
(0.8944 0.4472 0)
(0.8944 0.4472 0)
(0.8944 0.4472 0)
(0.8944 0.4472 0)
(0.8944 0.4472 0)
(0.8944 0.4472 0)
(0.8944 0.4472 0)
(0.894399 0.447201 0)
(0.894399 0.447201 0)
(0.894399 0.447201 0)
(0.894398 0.447202 0)
(0.894398 0.447202 0)
(0.894397 0.447203 0)
(0.894397 0.447204 0)
(0.894396 0.447205 0)
(0.894395 0.447207 0)
(0.894394 0.447209 0)
(0.894394 0.447211 0)
(0.894394 0.447213 0)
(0.894394 0.447216 0)
(0.894394 0.447219 0)
(0.894395 0.447222 0)
(0.894397 0.447226 0)
(0.894398 0.447231 0)
(0.894398 0.447237 0)
(0.894397 0.447246 0)
(0.894392 0.44726 0)
(0.894383 0.447281 0)
(0.894365 0.447312 0)
(0.894338 0.447359 0)
(0.894298 0.447427 0)
(0.894242 0.447521 0)
(0.894166 0.44765 0)
(0.894069 0.447823 0)
(0.893948 0.448046 0)
(0.893804 0.448329 0)
(0.893639 0.448678 0)
(0.893455 0.4491 0)
(0.893256 0.449596 0)
(0.893049 0.450167 0)
(0.892843 0.450811 0)
(0.892645 0.451522 0)
(0.892464 0.45229 0)
(0.89231 0.453101 0)
(0.892193 0.453943 0)
(0.892119 0.454796 0)
(0.892093 0.455643 0)
(0.89212 0.456467 0)
(0.892202 0.45725 0)
(0.892338 0.457974 0)
(0.892527 0.458623 0)
(0.892764 0.459185 0)
(0.893044 0.459648 0)
(0.893359 0.460003 0)
(0.893702 0.460242 0)
(0.894062 0.46036 0)
(0.894431 0.460355 0)
(0.894797 0.460226 0)
(0.895151 0.459974 0)
(0.895482 0.459605 0)
(0.895781 0.459124 0)
(0.89604 0.458543 0)
(0.896252 0.457873 0)
(0.896412 0.457129 0)
(0.896517 0.456329 0)
(0.896568 0.455492 0)
(0.896565 0.454637 0)
(0.896514 0.453784 0)
(0.896421 0.452952 0)
(0.896294 0.452157 0)
(0.896142 0.451414 0)
(0.895974 0.450733 0)
(0.895798 0.45012 0)
(0.895621 0.449578 0)
(0.89545 0.449108 0)
(0.895289 0.448709 0)
(0.895141 0.448374 0)
(0.895009 0.448099 0)
(0.894893 0.447876 0)
(0.894793 0.447699 0)
(0.894709 0.44756 0)
(0.894639 0.447453 0)
(0.894581 0.447373 0)
(0.894535 0.447313 0)
(0.894498 0.44727 0)
(0.89447 0.447239 0)
(0.894448 0.447218 0)
(0.894431 0.447205 0)
(0.894419 0.447196 0)
(0.894411 0.447191 0)
(0.894405 0.447189 0)
(0.894401 0.447188 0)
(0.894398 0.447189 0)
(0.894397 0.44719 0)
(0.894396 0.447191 0)
(0.894396 0.447193 0)
(0.894396 0.447194 0)
(0.894397 0.447195 0)
(0.894397 0.447196 0)
(0.894398 0.447197 0)
(0.894398 0.447198 0)
(0.894399 0.447198 0)
(0.894399 0.447199 0)
(0.894399 0.447199 0)
(0.894399 0.447199 0)
(0.894399 0.4472 0)
(0.8944 0.4472 0)
(0.8944 0.4472 0)
(0.8944 0.4472 0)
(0.8944 0.4472 0)
(0.8944 0.4472 0)
(0.8944 0.4472 0)
(0.8944 0.4472 0)
(0.8944 0.4472 0)
(0.8944 0.4472 0)
(0.8944 0.4472 0)
(0.8944 0.4472 0)
(0.8944 0.4472 0)
(0.8944 0.4472 0)
(0.8944 0.4472 0)
(0.8944 0.4472 0)
(0.8944 0.4472 0)
(0.8944 0.4472 0)
(0.8944 0.4472 0)
(0.8944 0.4472 0)
(0.8944 0.4472 0)
(0.8944 0.4472 0)
(0.8944 0.4472 0)
(0.8944 0.4472 0)
(0.8944 0.4472 0)
(0.8944 0.4472 0)
(0.8944 0.4472 0)
(0.8944 0.4472 0)
(0.8944 0.4472 0)
(0.8944 0.4472 0)
(0.8944 0.4472 0)
(0.8944 0.4472 0)
(0.8944 0.4472 0)
(0.8944 0.4472 0)
(0.8944 0.4472 0)
(0.8944 0.4472 0)
(0.8944 0.4472 0)
(0.8944 0.4472 0)
(0.8944 0.4472 0)
(0.8944 0.4472 0)
(0.8944 0.4472 0)
(0.8944 0.4472 0)
(0.8944 0.4472 0)
(0.8944 0.4472 0)
(0.8944 0.4472 0)
(0.8944 0.4472 0)
(0.8944 0.4472 0)
(0.8944 0.4472 0)
(0.8944 0.4472 0)
(0.8944 0.4472 0)
(0.894399 0.4472 0)
(0.8944 0.4472 0)
(0.894399 0.447201 0)
(0.894399 0.447201 0)
(0.894398 0.447201 0)
(0.894398 0.447202 0)
(0.894397 0.447203 0)
(0.894396 0.447204 0)
(0.894396 0.447205 0)
(0.894395 0.447207 0)
(0.894394 0.447209 0)
(0.894393 0.447211 0)
(0.894392 0.447214 0)
(0.894391 0.447217 0)
(0.894392 0.44722 0)
(0.894392 0.447224 0)
(0.894392 0.447229 0)
(0.894393 0.447234 0)
(0.894392 0.447241 0)
(0.894391 0.447252 0)
(0.894386 0.447266 0)
(0.894376 0.447287 0)
(0.894359 0.44732 0)
(0.89433 0.447367 0)
(0.894287 0.447437 0)
(0.894226 0.447535 0)
(0.894142 0.447671 0)
(0.894032 0.447855 0)
(0.893894 0.448096 0)
(0.893727 0.448406 0)
(0.893529 0.448793 0)
(0.893305 0.449266 0)
(0.893058 0.44983 0)
(0.892796 0.450488 0)
(0.892527 0.451238 0)
(0.892263 0.452075 0)
(0.892014 0.452989 0)
(0.891792 0.453965 0)
(0.891609 0.454986 0)
(0.891475 0.456033 0)
(0.891398 0.457084 0)
(0.891385 0.458118 0)
(0.89144 0.459113 0)
(0.891563 0.460049 0)
(0.891753 0.460908 0)
(0.892007 0.461674 0)
(0.89232 0.462332 0)
(0.892683 0.462871 0)
(0.893089 0.463283 0)
(0.893527 0.463561 0)
(0.893986 0.463699 0)
(0.894455 0.463694 0)
(0.894922 0.463547 0)
(0.895375 0.463257 0)
(0.895802 0.462829 0)
(0.896191 0.462268 0)
(0.896531 0.461584 0)
(0.896814 0.460787 0)
(0.897032 0.459895 0)
(0.897181 0.458925 0)
(0.897259 0.4579 0)
(0.897268 0.456842 0)
(0.897212 0.455777 0)
(0.897098 0.454727 0)
(0.896938 0.453716 0)
(0.896742 0.452761 0)
(0.896521 0.45188 0)
(0.896287 0.451081 0)
(0.896051 0.450372 0)
(0.89582 0.449753 0)
(0.895602 0.449224 0)
(0.895402 0.448779 0)
(0.895222 0.448411 0)
(0.895064 0.448113 0)
(0.894929 0.447875 0)
(0.894814 0.447689 0)
(0.894719 0.447545 0)
(0.894641 0.447436 0)
(0.894579 0.447356 0)
(0.89453 0.447297 0)
(0.894492 0.447256 0)
(0.894463 0.447228 0)
(0.894441 0.447209 0)
(0.894425 0.447197 0)
(0.894414 0.447191 0)
(0.894406 0.447187 0)
(0.894401 0.447186 0)
(0.894398 0.447187 0)
(0.894396 0.447188 0)
(0.894395 0.447189 0)
(0.894395 0.447191 0)
(0.894395 0.447193 0)
(0.894396 0.447194 0)
(0.894397 0.447195 0)
(0.894397 0.447196 0)
(0.894398 0.447197 0)
(0.894398 0.447198 0)
(0.894399 0.447199 0)
(0.894399 0.447199 0)
(0.894399 0.447199 0)
(0.894399 0.447199 0)
(0.894399 0.4472 0)
(0.8944 0.4472 0)
(0.8944 0.4472 0)
(0.8944 0.4472 0)
(0.8944 0.4472 0)
(0.8944 0.4472 0)
(0.8944 0.4472 0)
(0.8944 0.4472 0)
(0.8944 0.4472 0)
(0.8944 0.4472 0)
(0.8944 0.4472 0)
(0.8944 0.4472 0)
(0.8944 0.4472 0)
(0.8944 0.4472 0)
(0.8944 0.4472 0)
(0.8944 0.4472 0)
(0.8944 0.4472 0)
(0.8944 0.4472 0)
(0.8944 0.4472 0)
(0.8944 0.4472 0)
(0.8944 0.4472 0)
(0.8944 0.4472 0)
(0.8944 0.4472 0)
(0.8944 0.4472 0)
(0.8944 0.4472 0)
(0.8944 0.4472 0)
(0.8944 0.4472 0)
(0.8944 0.4472 0)
(0.8944 0.4472 0)
(0.8944 0.4472 0)
(0.8944 0.4472 0)
(0.8944 0.4472 0)
(0.8944 0.4472 0)
(0.8944 0.4472 0)
(0.8944 0.4472 0)
(0.8944 0.4472 0)
(0.8944 0.4472 0)
(0.8944 0.4472 0)
(0.8944 0.4472 0)
(0.8944 0.4472 0)
(0.8944 0.4472 0)
(0.8944 0.4472 0)
(0.8944 0.4472 0)
(0.8944 0.4472 0)
(0.8944 0.4472 0)
(0.8944 0.4472 0)
(0.8944 0.4472 0)
(0.8944 0.4472 0)
(0.8944 0.447201 0)
(0.894399 0.4472 0)
(0.894399 0.4472 0)
(0.894399 0.447201 0)
(0.894399 0.447201 0)
(0.894398 0.447201 0)
(0.894397 0.447203 0)
(0.894397 0.447203 0)
(0.894395 0.447205 0)
(0.894394 0.447206 0)
(0.894393 0.447209 0)
(0.894392 0.447211 0)
(0.894391 0.447214 0)
(0.89439 0.447217 0)
(0.894389 0.447221 0)
(0.894388 0.447225 0)
(0.894388 0.447231 0)
(0.894388 0.447237 0)
(0.894387 0.447245 0)
(0.894385 0.447255 0)
(0.89438 0.44727 0)
(0.89437 0.447292 0)
(0.894352 0.447325 0)
(0.894323 0.447373 0)
(0.894278 0.447442 0)
(0.894212 0.447542 0)
(0.894122 0.447683 0)
(0.894002 0.447875 0)
(0.893846 0.44813 0)
(0.893654 0.448461 0)
(0.893424 0.448882 0)
(0.893157 0.449402 0)
(0.892858 0.450031 0)
(0.892534 0.450773 0)
(0.892194 0.451629 0)
(0.891851 0.452594 0)
(0.891519 0.453658 0)
(0.891214 0.454806 0)
(0.890949 0.456018 0)
(0.890738 0.45727 0)
(0.890592 0.458538 0)