/*--------------------------------*- C++ -*----------------------------------*\
  =========                 |
  \\      /  F ield         | OpenFOAM: The Open Source CFD Toolbox
   \\    /   O peration     | Website:  https://openfoam.org
    \\  /    A nd           | Version:  6
     \\/     M anipulation  |
\*---------------------------------------------------------------------------*/
FoamFile
{
    version     2.0;
    format      ascii;
    class       volScalarField;
    location    "2.92";
    object      rho;
}
// * * * * * * * * * * * * * * * * * * * * * * * * * * * * * * * * * * * * * //

dimensions      [1 -3 0 0 0 0 0];

internalField   nonuniform List<scalar> 
22500
(
1.40001
1.40001
1.40001
1.40001
1.40001
1.40001
1.40001
1.40001
1.40001
1.40001
1.40001
1.40001
1.40001
1.40001
1.40001
1.40001
1.40001
1.40001
1.40001
1.40001
1.40001
1.4
1.40001
1.4
1.40001
1.40001
1.4
1.40001
1.4
1.40001
1.4
1.4
1.4
1.4
1.4
1.4
1.4
1.4
1.4
1.4
1.4
1.4
1.4
1.4
1.40001
1.40001
1.4
1.40001
1.4
1.40001
1.40001
1.40001
1.4
1.4
1.40001
1.4
1.40001
1.40001
1.40001
1.4
1.4
1.4
1.40001
1.4
1.4
1.40001
1.4
1.4
1.40001
1.4
1.4
1.4
1.4
1.4
1.4
1.4
1.4
1.4
1.4
1.4
1.4
1.4
1.4
1.4
1.4
1.40001
1.40001
1.40001
1.40001
1.40001
1.40001
1.40001
1.40001
1.40001
1.40001
1.40001
1.40001
1.40001
1.40001
1.40001
1.40001
1.40001
1.4
1.4
1.4
1.4
1.4
1.4
1.4
1.4
1.4
1.4
1.4
1.4
1.4
1.4
1.4
1.4
1.4
1.4
1.4
1.4
1.4
1.4
1.4
1.4
1.4
1.40001
1.40001
1.40001
1.40001
1.40001
1.40001
1.40001
1.40001
1.40001
1.40001
1.40001
1.40001
1.40001
1.40001
1.40001
1.40001
1.40001
1.40001
1.40001
1.40001
1.40001
1.40001
1.40001
1.40001
1.40001
1.40001
1.40001
1.40001
1.40001
1.40001
1.40001
1.40001
1.40001
1.40001
1.40001
1.40001
1.40001
1.40001
1.40001
1.40001
1.4
1.40001
1.4
1.40001
1.4
1.40001
1.4
1.40001
1.40001
1.4
1.40001
1.4
1.40001
1.4
1.40001
1.40001
1.40001
1.40001
1.40001
1.40001
1.40001
1.40001
1.40001
1.40001
1.40001
1.40001
1.40001
1.4
1.40001
1.40001
1.4
1.40001
1.4
1.4
1.40001
1.4
1.40001
1.4
1.40001
1.4
1.40001
1.4
1.4
1.4
1.4
1.40001
1.4
1.40001
1.40001
1.40001
1.40001
1.40001
1.4
1.4
1.4
1.4
1.4
1.4
1.4
1.4
1.4
1.4
1.4
1.4
1.4
1.4
1.4
1.4
1.40001
1.40001
1.40001
1.40001
1.40001
1.40001
1.40001
1.40001
1.40001
1.40001
1.40001
1.40001
1.40001
1.40001
1.40001
1.40001
1.40001
1.4
1.4
1.4
1.4
1.4
1.4
1.4
1.4
1.4
1.4
1.4
1.4
1.4
1.4
1.4
1.4
1.4
1.4
1.4
1.4
1.4
1.4
1.4
1.4
1.4
1.4
1.4
1.4
1.4
1.4
1.4
1.40001
1.40001
1.40001
1.40001
1.40001
1.40001
1.40001
1.40001
1.40001
1.40001
1.40001
1.40001
1.40001
1.40001
1.40001
1.40001
1.40001
1.40001
1.40001
1.40001
1.40001
1.40001
1.40001
1.40001
1.40001
1.40001
1.40001
1.40001
1.40001
1.40001
1.40001
1.40001
1.40001
1.40001
1.40001
1.40001
1.4
1.40001
1.4
1.40001
1.40001
1.4
1.40001
1.4
1.40001
1.40001
1.4
1.40001
1.4
1.40001
1.4
1.4
1.4
1.4
1.40001
1.4
1.4
1.40001
1.4
1.4
1.40001
1.4
1.40001
1.40001
1.4
1.40001
1.40001
1.4
1.40001
1.40001
1.4
1.40001
1.40001
1.40001
1.4
1.40001
1.4
1.40001
1.4
1.40001
1.40001
1.40001
1.40001
1.4
1.40001
1.4
1.4
1.4
1.4
1.4
1.4
1.4
1.4
1.4
1.4
1.4
1.4
1.4
1.4
1.4
1.4
1.4
1.4
1.40001
1.40001
1.40001
1.40001
1.40001
1.40001
1.40001
1.40001
1.40001
1.40001
1.40001
1.40001
1.40001
1.40001
1.40001
1.40001
1.4
1.4
1.4
1.4
1.4
1.4
1.4
1.4
1.39999
1.39999
1.39999
1.4
1.4
1.4
1.4
1.4
1.4
1.4
1.4
1.4
1.4
1.4
1.4
1.4
1.4
1.40001
1.40001
1.40001
1.40001
1.40001
1.40001
1.40001
1.40001
1.40001
1.40001
1.40001
1.40001
1.40001
1.40001
1.40001
1.40001
1.40001
1.40001
1.40001
1.40001
1.40001
1.40001
1.40001
1.40001
1.40001
1.40001
1.40001
1.40001
1.40001
1.40001
1.40001
1.40001
1.40001
1.40001
1.40001
1.40001
1.40001
1.40001
1.4
1.40001
1.4
1.40001
1.4
1.40001
1.40001
1.4
1.40001
1.4
1.40001
1.4
1.4
1.40001
1.4
1.40001
1.4
1.40001
1.40001
1.4
1.40001
1.4
1.40001
1.40001
1.4
1.40001
1.40001
1.4
1.40001
1.4
1.40001
1.40001
1.4
1.40001
1.40001
1.4
1.4
1.4
1.40001
1.4
1.40001
1.4
1.4
1.4
1.4
1.4
1.40001
1.40001
1.40001
1.40001
1.40001
1.40001
1.4
1.40001
1.4
1.4
1.4
1.4
1.4
1.4
1.4
1.4
1.4
1.4
1.4
1.4
1.4
1.4
1.4
1.4
1.40001
1.40001
1.40001
1.40001
1.40001
1.40001
1.40001
1.40002
1.40002
1.40002
1.40002
1.40002
1.40002
1.40002
1.40001
1.40001
1.40001
1.40001
1.4
1.4
1.4
1.4
1.39999
1.39999
1.39999
1.39999
1.39999
1.39999
1.39999
1.39999
1.4
1.4
1.4
1.4
1.4
1.4
1.4
1.4
1.4
1.4
1.4
1.4
1.40001
1.40001
1.40001
1.40001
1.40001
1.40001
1.40001
1.40001
1.40001
1.40001
1.40001
1.40001
1.40001
1.40001
1.40001
1.40001
1.40001
1.40001
1.40001
1.40001
1.40001
1.40001
1.40001
1.40001
1.40001
1.40001
1.40001
1.40001
1.40001
1.40001
1.40001
1.40001
1.40001
1.40001
1.40001
1.40001
1.40001
1.40001
1.40001
1.40001
1.4
1.40001
1.40001
1.4
1.40001
1.4
1.40001
1.4
1.40001
1.40001
1.4
1.40001
1.4
1.40001
1.4
1.4
1.40001
1.4
1.40001
1.40001
1.4
1.40001
1.4
1.40001
1.40001
1.4
1.4
1.40001
1.4
1.40001
1.4
1.4
1.40001
1.4
1.4
1.40001
1.40001
1.40001
1.40001
1.40001
1.4
1.40001
1.4
1.40001
1.40001
1.40001
1.40001
1.40001
1.40001
1.4
1.4
1.40001
1.4
1.4
1.4
1.4
1.4
1.4
1.4
1.4
1.4
1.4
1.4
1.4
1.4
1.4
1.4
1.4
1.4
1.40001
1.40001
1.40001
1.40001
1.40001
1.40002
1.40002
1.40002
1.40002
1.40002
1.40002
1.40002
1.40002
1.40002
1.40001
1.40001
1.40001
1.4
1.4
1.4
1.4
1.39999
1.39999
1.39999
1.39999
1.39999
1.39999
1.39998
1.39998
1.39999
1.39999
1.4
1.4
1.4
1.4
1.4
1.4
1.4
1.4
1.4
1.4
1.40001
1.40001
1.40001
1.40001
1.40001
1.40001
1.40001
1.40001
1.40001
1.40001
1.40001
1.40001
1.40001
1.40001
1.40001
1.40001
1.40001
1.40001
1.40001
1.40001
1.40001
1.40001
1.40001
1.40001
1.40001
1.40001
1.40001
1.40001
1.40001
1.40001
1.40001
1.40001
1.40001
1.40001
1.40001
1.40001
1.40001
1.40001
1.40001
1.40001
1.40001
1.4
1.40001
1.4
1.40001
1.4
1.40001
1.40001
1.4
1.40001
1.4
1.40001
1.4
1.4
1.40001
1.4
1.40001
1.4
1.4
1.40001
1.4
1.40001
1.40001
1.4
1.40001
1.40001
1.4
1.40001
1.40001
1.40001
1.40001
1.4
1.40001
1.4
1.4
1.40001
1.40001
1.40001
1.40001
1.4
1.4
1.4
1.40001
1.40001
1.40001
1.4
1.40001
1.4
1.40001
1.40001
1.4
1.40001
1.40001
1.4
1.4
1.4
1.4
1.4
1.4
1.4
1.4
1.4
1.4
1.4
1.4
1.4
1.4
1.4
1.4
1.40001
1.40001
1.40001
1.40001
1.40002
1.40002
1.40002
1.40003
1.40003
1.40003
1.40003
1.40003
1.40003
1.40003
1.40002
1.40002
1.40002
1.40001
1.4
1.4
1.4
1.39999
1.39998
1.39998
1.39998
1.39999
1.4
1.39999
1.39998
1.39998
1.39998
1.39999
1.4
1.4
1.4
1.4
1.4
1.4
1.4
1.4
1.4
1.4
1.40001
1.40001
1.40001
1.40001
1.40001
1.40001
1.40001
1.40001
1.40001
1.40001
1.40001
1.40001
1.40001
1.40001
1.40001
1.40001
1.40001
1.40001
1.40001
1.40001
1.40001
1.40001
1.40001
1.40001
1.40001
1.40001
1.40001
1.40001
1.40001
1.40001
1.40001
1.40001
1.40001
1.40001
1.40001
1.40001
1.4
1.40001
1.4
1.40001
1.4
1.40001
1.4
1.40001
1.40001
1.4
1.40001
1.4
1.40001
1.40001
1.4
1.40001
1.4
1.40001
1.4
1.4
1.40002
1.39999
1.40001
1.4
1.4
1.40001
1.4
1.4
1.40001
1.4
1.40001
1.40001
1.4
1.4
1.40001
1.40001
1.4
1.4
1.40001
1.40001
1.40001
1.4
1.4
1.4
1.40001
1.40001
1.40001
1.40001
1.40001
1.40001
1.40001
1.40001
1.40001
1.4
1.40001
1.40001
1.4
1.4
1.4
1.4
1.4
1.4
1.4
1.4
1.4
1.4
1.4
1.4
1.4
1.4
1.4
1.4
1.40001
1.40001
1.40001
1.40002
1.40002
1.40003
1.40003
1.40003
1.40004
1.40005
1.40004
1.40004
1.40005
1.40005
1.40003
1.40002
1.40003
1.40003
1.40001
1.39999
1.39999
1.4
1.39999
1.39997
1.39996
1.39997
1.39999
1.40001
1.4
1.39998
1.39997
1.39997
1.39998
1.4
1.40001
1.40001
1.4
1.4
1.4
1.4
1.4
1.4
1.4
1.40001
1.40001
1.40001
1.40001
1.40001
1.40001
1.40001
1.40001
1.40001
1.40001
1.40001
1.40001
1.40001
1.40001
1.40001
1.40001
1.40001
1.40001
1.40001
1.40001
1.40001
1.40001
1.40001
1.40001
1.40001
1.40001
1.40001
1.40001
1.40001
1.40001
1.40001
1.40001
1.40001
1.40001
1.40001
1.4
1.40001
1.4
1.40001
1.4
1.40001
1.40001
1.4
1.40001
1.4
1.40001
1.4
1.4
1.40002
1.39999
1.40002
1.4
1.4
1.40003
1.39998
1.40003
1.4
1.4
1.40003
1.39999
1.40001
1.40001
1.4
1.40001
1.4
1.4
1.40001
1.40001
1.4
1.4
1.40001
1.4
1.4
1.40001
1.40001
1.4
1.4
1.4
1.40001
1.40001
1.40001
1.40001
1.40001
1.4
1.4
1.40001
1.40001
1.40001
1.40001
1.40001
1.40001
1.4
1.4
1.4
1.4
1.4
1.4
1.4
1.4
1.4
1.4
1.4
1.4
1.4
1.4
1.4
1.4
1.40001
1.40002
1.40002
1.40003
1.40003
1.40004
1.40005
1.40006
1.40005
1.40007
1.40008
1.40006
1.40005
1.40008
1.40007
1.40003
1.40002
1.40005
1.40004
1.4
1.39997
1.39998
1.40001
1.40001
1.39996
1.39993
1.39994
1.39998
1.40002
1.40002
1.39999
1.39996
1.39996
1.39997
1.39999
1.40001
1.40001
1.40001
1.4
1.4
1.4
1.4
1.4
1.40001
1.40001
1.40001
1.40001
1.40001
1.40001
1.40001
1.40001
1.40001
1.40001
1.40001
1.40001
1.40001
1.40001
1.40001
1.40001
1.40001
1.40001
1.40001
1.40001
1.40001
1.40001
1.40001
1.40001
1.40001
1.40001
1.40001
1.40001
1.40001
1.40001
1.40001
1.40001
1.40001
1.4
1.40001
1.4
1.40001
1.4
1.40001
1.4
1.40001
1.40001
1.4
1.40001
1.4
1.4
1.40001
1.39999
1.40002
1.39999
1.4
1.40003
1.39997
1.40005
1.39998
1.4
1.40004
1.39996
1.40004
1.39999
1.4
1.40002
1.39999
1.4
1.40001
1.4
1.4
1.40001
1.4
1.40001
1.40001
1.40001
1.4
1.40001
1.40001
1.4
1.4
1.40001
1.40001
1.40001
1.40001
1.40001
1.40001
1.40001
1.4
1.40001
1.40001
1.40001
1.40001
1.40001
1.40001
1.40001
1.40001
1.4
1.4
1.4
1.4
1.4
1.4
1.4
1.4
1.4
1.4
1.4
1.4
1.40001
1.40001
1.40002
1.40003
1.40004
1.40004
1.40006
1.40006
1.40008
1.40009
1.40009
1.40009
1.40012
1.40012
1.40008
1.40009
1.40012
1.4001
1.40003
1.40003
1.40007
1.40007
1.4
1.39994
1.39996
1.40003
1.40005
1.39998
1.3999
1.39988
1.39994
1.40002
1.40005
1.40002
1.39997
1.39994
1.39996
1.39998
1.40001
1.40002
1.40001
1.40001
1.4
1.4
1.4
1.4
1.4
1.40001
1.40001
1.40001
1.40001
1.40001
1.40001
1.40001
1.40001
1.40001
1.40001
1.40001
1.40001
1.40001
1.40001
1.40001
1.40001
1.40001
1.40001
1.40001
1.40001
1.40001
1.40001
1.40001
1.40001
1.40001
1.40001
1.40001
1.40001
1.40001
1.4
1.40001
1.4
1.40001
1.40001
1.4
1.40001
1.4
1.40001
1.4
1.40001
1.40001
1.4
1.40001
1.4
1.40001
1.40001
1.39999
1.40003
1.39997
1.40004
1.39999
1.39999
1.40006
1.39993
1.40007
1.39997
1.40001
1.40003
1.39996
1.40004
1.40001
1.4
1.40002
1.40001
1.4
1.40001
1.4
1.4
1.40001
1.40001
1.4
1.40001
1.40001
1.4
1.4
1.40001
1.40001
1.40001
1.40001
1.40001
1.40001
1.40001
1.40001
1.40001
1.40001
1.40001
1.40001
1.40001
1.40001
1.40001
1.40001
1.40001
1.4
1.4
1.4
1.4
1.4
1.4
1.4
1.40001
1.40001
1.40001
1.40001
1.40002
1.40003
1.40004
1.40005
1.40007
1.40008
1.4001
1.40012
1.40012
1.40015
1.40017
1.40015
1.40016
1.40021
1.40018
1.40011
1.40014
1.4002
1.40015
1.40003
1.40001
1.40011
1.40014
1.40003
1.39989
1.39989
1.40003
1.40013
1.40006
1.39989
1.3998
1.39986
1.4
1.40008
1.40006
1.39999
1.39994
1.39993
1.39996
1.39999
1.40001
1.40002
1.40001
1.40001
1.4
1.4
1.4
1.4
1.40001
1.40001
1.40001
1.40001
1.40001
1.40001
1.40001
1.40001
1.40001
1.40001
1.40001
1.40001
1.40001
1.40001
1.40001
1.40001
1.40001
1.40001
1.40001
1.40001
1.40001
1.40001
1.40001
1.40001
1.40001
1.40001
1.40001
1.40001
1.40001
1.4
1.40001
1.4
1.40001
1.4
1.40001
1.4
1.40001
1.40001
1.4
1.40001
1.39999
1.40002
1.4
1.39999
1.40005
1.39995
1.40005
1.4
1.39995
1.40012
1.39986
1.40013
1.39993
1.40001
1.40005
1.39991
1.4001
1.39996
1.39999
1.40002
1.39997
1.40001
1.40001
1.4
1.40001
1.40002
1.4
1.4
1.40001
1.4
1.4
1.40001
1.4
1.4
1.40001
1.40001
1.40001
1.4
1.4
1.40001
1.40001
1.40001
1.40001
1.40001
1.40001
1.40001
1.40001
1.40001
1.40001
1.40001
1.40001
1.40001
1.40001
1.4
1.4
1.4
1.40001
1.40001
1.40001
1.40002
1.40003
1.40004
1.40005
1.40007
1.40008
1.4001
1.40013
1.40015
1.40017
1.40021
1.40023
1.40023
1.40028
1.4003
1.40025
1.40027
1.40035
1.40028
1.40015
1.4002
1.40032
1.40024
1.40002
1.39996
1.40012
1.40027
1.40013
1.39984
1.39971
1.39994
1.40023
1.40025
1.39998
1.39972
1.39971
1.3999
1.40009
1.40013
1.40005
1.39995
1.39991
1.39993
1.39997
1.4
1.40002
1.40002
1.40001
1.40001
1.4
1.4
1.4
1.4
1.4
1.40001
1.40001
1.40001
1.40001
1.40001
1.40001
1.40001
1.40001
1.40001
1.40001
1.40001
1.40001
1.40001
1.40001
1.40001
1.40001
1.40001
1.40001
1.40001
1.40001
1.40001
1.4
1.40001
1.4
1.40001
1.4
1.40001
1.4
1.40001
1.4
1.40001
1.4
1.40001
1.4
1.40001
1.40001
1.4
1.40001
1.40001
1.4
1.40001
1.40001
1.4
1.39998
1.40009
1.39987
1.40015
1.39993
1.39999
1.40012
1.3998
1.40024
1.39985
1.40004
1.40004
1.39996
1.40009
1.4
1.4
1.40002
1.39999
1.39999
1.40001
1.4
1.4
1.40001
1.40001
1.4
1.4
1.40001
1.40001
1.40001
1.40001
1.40001
1.4
1.4
1.40001
1.40001
1.40001
1.40001
1.40001
1.40001
1.40001
1.40001
1.40001
1.40001
1.40001
1.40001
1.40001
1.40001
1.40001
1.40001
1.40001
1.40002
1.40002
1.40003
1.40005
1.40006
1.40008
1.4001
1.40013
1.40017
1.4002
1.40023
1.40029
1.40032
1.40035
1.40042
1.40043
1.40042
1.40051
1.40051
1.40039
1.40044
1.40058
1.40044
1.40019
1.40026
1.40049
1.40044
1.40006
1.3998
1.40002
1.40046
1.40043
1.39988
1.39938
1.39961
1.40024
1.40056
1.40026
1.39975
1.39953
1.39972
1.40003
1.4002
1.40016
1.40002
1.39992
1.3999
1.39993
1.39997
1.4
1.40002
1.40001
1.40001
1.40001
1.4
1.4
1.4
1.4
1.40001
1.40001
1.40001
1.40001
1.40001
1.40001
1.40001
1.40001
1.40001
1.40001
1.40001
1.40001
1.40001
1.40001
1.40001
1.40001
1.4
1.40001
1.4
1.40001
1.4
1.40001
1.4
1.40001
1.4
1.40001
1.4
1.40001
1.4
1.40001
1.40001
1.40001
1.4
1.40001
1.40001
1.4
1.40002
1.40001
1.39997
1.40008
1.39992
1.40007
1.39999
1.39996
1.40011
1.39982
1.40025
1.39965
1.40041
1.39969
1.40011
1.40007
1.39987
1.40017
1.39984
1.4
1.40002
1.39997
1.40004
1.40004
1.4
1.40002
1.40002
1.39999
1.4
1.40002
1.4
1.4
1.40001
1.40001
1.40001
1.4
1.4
1.40001
1.40001
1.40001
1.40001
1.40001
1.40001
1.40001
1.40001
1.40001
1.40001
1.40001
1.40001
1.40001
1.40001
1.40001
1.40001
1.40001
1.40002
1.40002
1.40003
1.40005
1.40006
1.40009
1.40012
1.40015
1.40021
1.40025
1.4003
1.40038
1.40043
1.4005
1.40059
1.40062
1.40068
1.40078
1.40074
1.40073
1.40089
1.40083
1.40058
1.40067
1.40093
1.4007
1.40021
1.40021
1.4007
1.40084
1.40024
1.39944
1.39964
1.4006
1.40112
1.40023
1.39904
1.3989
1.39993
1.40085
1.40077
1.40002
1.39944
1.39944
1.39983
1.40018
1.40028
1.40016
1.4
1.3999
1.3999
1.39994
1.39998
1.4
1.40001
1.40001
1.40001
1.4
1.4
1.4
1.4
1.40001
1.40001
1.40001
1.40001
1.40001
1.40001
1.40001
1.40001
1.40001
1.40001
1.40001
1.40001
1.40001
1.40001
1.40001
1.40001
1.40001
1.40001
1.4
1.40001
1.4
1.40001
1.4
1.40001
1.4
1.40001
1.4
1.40001
1.40001
1.4
1.40002
1.39998
1.40004
1.39998
1.40002
1.40004
1.39994
1.40006
1.40001
1.39997
1.40002
1.40013
1.39973
1.4004
1.3996
1.40042
1.39976
1.39999
1.40028
1.39963
1.40044
1.39958
1.40026
1.40004
1.39996
1.40012
1.39994
1.39996
1.40001
1.39997
1.39999
1.40002
1.4
1.4
1.40002
1.40001
1.39999
1.40001
1.40002
1.40001
1.4
1.4
1.40001
1.40001
1.40001
1.40001
1.40001
1.40001
1.40001
1.40001
1.40001
1.40002
1.40002
1.40002
1.40002
1.40002
1.40002
1.40002
1.40002
1.40003
1.40005
1.40006
1.40009
1.40013
1.40017
1.40023
1.40029
1.40037
1.40046
1.40055
1.40066
1.40078
1.40086
1.40099
1.40111
1.40112
1.40125
1.40137
1.40121
1.40121
1.40149
1.4013
1.4008
1.40095
1.40144
1.40117
1.40021
1.39991
1.40077
1.40165
1.40081
1.39899
1.39859
1.40043
1.40212
1.40134
1.39902
1.39795
1.39903
1.40077
1.40138
1.40066
1.39963
1.3992
1.39947
1.39998
1.40031
1.40032
1.40016
1.39999
1.39992
1.39992
1.39995
1.39998
1.4
1.40001
1.40001
1.40001
1.4
1.4
1.40001
1.40001
1.40001
1.40001
1.40001
1.40001
1.40001
1.40001
1.40001
1.40001
1.40001
1.40001
1.40001
1.40001
1.40001
1.40001
1.40001
1.40001
1.40001
1.4
1.40001
1.4
1.40001
1.4
1.40001
1.4
1.40001
1.4
1.40001
1.40001
1.4
1.40003
1.39999
1.40002
1.4
1.40007
1.39989
1.40019
1.39985
1.40006
1.40006
1.39992
1.40003
1.39997
1.40013
1.39948
1.40084
1.39904
1.40089
1.39919
1.40059
1.39987
1.3998
1.40022
1.39972
1.40013
1.40007
1.39999
1.40008
1.40003
1.39998
1.40002
1.40001
1.39999
1.40001
1.40001
1.4
1.4
1.40002
1.40001
1.4
1.4
1.40001
1.40001
1.40001
1.40001
1.40001
1.40002
1.40001
1.40001
1.40001
1.40002
1.40002
1.40002
1.40002
1.40002
1.40003
1.40003
1.40004
1.40005
1.40008
1.40011
1.40016
1.40023
1.4003
1.4004
1.40052
1.40064
1.4008
1.40096
1.40111
1.40132
1.40149
1.40161
1.40184
1.40196
1.40192
1.40217
1.40228
1.40187
1.4019
1.40239
1.40201
1.40103
1.40112
1.40216
1.40212
1.40028
1.39903
1.40043
1.40296
1.40221
1.39882
1.39668
1.39928
1.40297
1.40327
1.40003
1.39722
1.39754
1.39987
1.40161
1.40152
1.40029
1.39925
1.39907
1.39954
1.40009
1.40036
1.40032
1.40015
1.4
1.39994
1.39994
1.39997
1.39999
1.4
1.40001
1.4
1.4
1.40001
1.40001
1.40001
1.40001
1.40001
1.40001
1.40001
1.40001
1.40001
1.40001
1.40001
1.40001
1.40001
1.4
1.40001
1.4
1.40001
1.4
1.40001
1.4
1.40001
1.4
1.40001
1.40001
1.40001
1.40001
1.4
1.40003
1.39998
1.40007
1.39993
1.40011
1.39991
1.40005
1.40009
1.39984
1.40019
1.39996
1.39995
1.40004
1.40024
1.39953
1.40074
1.39917
1.40111
1.39895
1.40101
1.39923
1.4005
1.40012
1.39933
1.4008
1.39932
1.40058
1.3998
1.39992
1.40009
1.39985
1.39998
1.40005
1.39998
1.4
1.40003
1.40001
1.39999
1.40001
1.40001
1.4
1.40001
1.40001
1.4
1.40001
1.40001
1.40001
1.40001
1.40001
1.40001
1.40001
1.40002
1.40002
1.40002
1.40002
1.40002
1.40002
1.40003
1.40003
1.40004
1.40005
1.40007
1.40009
1.40014
1.4002
1.40028
1.40039
1.40052
1.40068
1.40088
1.40108
1.40132
1.4016
1.40186
1.40211
1.40245
1.40266
1.40285
1.40322
1.40324
1.40314
1.40358
1.40358
1.40274
1.40279
1.40369
1.40309
1.40119
1.40092
1.40309
1.40382
1.40091
1.3972
1.39923
1.40417
1.40518
1.39954
1.39459
1.3963
1.40261
1.40551
1.40249
1.39778
1.39608
1.398
1.40084
1.40209
1.40137
1.39989
1.39898
1.39902
1.3996
1.40014
1.40035
1.40028
1.40013
1.40001
1.39996
1.39997
1.39998
1.4
1.4
1.4
1.40001
1.40001
1.40001
1.40001
1.40001
1.40001
1.40001
1.40001
1.40001
1.40001
1.40001
1.40001
1.40001
1.40001
1.4
1.40001
1.4
1.40001
1.4
1.40001
1.4
1.40002
1.39999
1.40002
1.39999
1.40002
1.40001
1.4
1.40005
1.39995
1.40011
1.39993
1.40007
1.39998
1.40013
1.39976
1.40045
1.39964
1.40007
1.40021
1.39983
1.39987
1.4003
1.39973
1.39965
1.40068
1.39895
1.40138
1.398
1.40221
1.3982
1.40132
1.3993
1.40009
1.4003
1.3997
1.40031
1.39999
1.39994
1.40008
1.39999
1.39997
1.40002
1.40003
1.39998
1.39999
1.40003
1.40001
1.39999
1.4
1.40002
1.40001
1.40001
1.4
1.40001
1.40001
1.40001
1.40001
1.40002
1.40002
1.40002
1.40002
1.40003
1.40003
1.40004
1.40004
1.40005
1.40007
1.40011
1.40016
1.40023
1.40033
1.40047
1.40064
1.40086
1.40111
1.40141
1.40177
1.40212
1.40253
1.40299
1.40336
1.4038
1.40429
1.40447
1.4048
1.40532
1.40507
1.40486
1.40564
1.40543
1.40377
1.40374
1.40549
1.40494
1.40117
1.39989
1.40389
1.40689
1.40252
1.39475
1.39601
1.40451
1.40932
1.40265
1.3934
1.39226
1.3995
1.4064
1.406
1.40046
1.39603
1.39588
1.39881
1.40165
1.40233
1.40112
1.39957
1.39884
1.39906
1.39967
1.40013
1.40027
1.40021
1.40009
1.40001
1.39999
1.39998
1.39999
1.4
1.4
1.40001
1.40001
1.40001
1.40001
1.40001
1.40001
1.40001
1.40001
1.40001
1.40001
1.40001
1.4
1.40001
1.4
1.40001
1.40001
1.4
1.40001
1.4
1.40001
1.39999
1.40003
1.39998
1.40006
1.39996
1.40009
1.39993
1.40013
1.39987
1.40021
1.39984
1.40008
1.4002
1.3996
1.40048
1.39985
1.39993
1.40011
1.40043
1.39915
1.40129
1.39875
1.40182
1.39787
1.40293
1.39694
1.40313
1.39757
1.40153
1.39925
1.39981
1.40081
1.39886
1.4009
1.39945
1.40006
1.40013
1.39984
1.40006
1.40005
1.39995
1.40002
1.40004
1.39999
1.39998
1.40003
1.40002
1.39998
1.39999
1.40003
1.40002
1.4
1.4
1.40001
1.40001
1.40001
1.40001
1.40002
1.40003
1.40003
1.40004
1.40004
1.40004
1.40005
1.40006
1.40008
1.40012
1.40017
1.40025
1.40037
1.40053
1.40075
1.40102
1.40136
1.40177
1.40221
1.40275
1.40333
1.40391
1.40458
1.40525
1.40576
1.40646
1.40705
1.40715
1.40772
1.4083
1.40754
1.40716
1.40849
1.408
1.40482
1.40449
1.40801
1.40797
1.40091
1.39773
1.40348
1.41158
1.4055
1.39371
1.39003
1.40238
1.4127
1.40898
1.3956
1.38857
1.39387
1.4038
1.40846
1.40506
1.39859
1.39505
1.39624
1.39979
1.40234
1.40238
1.40083
1.39938
1.39891
1.39923
1.39976
1.40009
1.40017
1.40012
1.40005
1.40001
1.4
1.39999
1.4
1.4
1.40001
1.40001
1.40001
1.40001
1.40001
1.40001
1.40001
1.40001
1.40001
1.40001
1.4
1.4
1.40001
1.4
1.40001
1.4
1.40002
1.39999
1.40002
1.4
1.40002
1.40002
1.39999
1.40008
1.39992
1.40019
1.39979
1.40031
1.3998
1.40014
1.40006
1.40005
1.39974
1.40077
1.39927
1.4002
1.40042
1.39967
1.39951
1.40105
1.39882
1.40046
1.39936
1.40042
1.39984
1.39882
1.40235
1.39715
1.40313
1.39708
1.40276
1.39825
1.40079
1.40005
1.39961
1.40036
1.39987
1.39997
1.40009
1.39997
1.39997
1.40003
1.40001
1.39998
1.40001
1.40002
1.39999
1.4
1.40002
1.40001
1.4
1.4
1.4
1.40001
1.40002
1.40002
1.40003
1.40004
1.40004
1.40005
1.40005
1.40006
1.40007
1.40009
1.40012
1.40018
1.40026
1.40039
1.40058
1.40083
1.40116
1.40159
1.40209
1.4027
1.4034
1.40415
1.40503
1.40592
1.40679
1.40783
1.40868
1.40938
1.41042
1.41099
1.4109
1.41178
1.41247
1.41063
1.40991
1.41248
1.41155
1.40564
1.40447
1.41144
1.41234
1.40161
1.3933
1.40145
1.41591
1.41243
1.39458
1.38399
1.39493
1.4133
1.41604
1.40281
1.38897
1.38751
1.39718
1.40707
1.40907
1.40355
1.39689
1.39461
1.39707
1.40084
1.4027
1.40211
1.40053
1.39941
1.39918
1.39948
1.39984
1.40004
1.40009
1.40006
1.40003
1.40001
1.4
1.4
1.4
1.40001
1.40001
1.40001
1.40001
1.40001
1.40001
1.40001
1.40001
1.4
1.40001
1.40001
1.4
1.40001
1.39999
1.40003
1.39998
1.40005
1.39996
1.40008
1.39994
1.40011
1.39994
1.40011
1.39997
1.40009
1.39995
1.40019
1.39986
1.40008
1.40038
1.39923
1.40104
1.39949
1.39986
1.40069
1.40035
1.39858
1.402
1.39896
1.40168
1.39731
1.4047
1.39486
1.40605
1.39363
1.40625
1.39439
1.40447
1.39682
1.40111
1.40018
1.39904
1.40124
1.39909
1.40039
1.40005
1.3998
1.4001
1.40006
1.39994
1.40001
1.40004
1.40001
1.4
1.39999
1.40002
1.40002
1.39999
1.4
1.40002
1.40001
1.4
1.40002
1.40003
1.40004
1.40004
1.40005
1.40005
1.40006
1.40007
1.40008
1.4001
1.40012
1.40018
1.40026
1.4004
1.4006
1.40089
1.40127
1.40176
1.40239
1.40314
1.40401
1.40504
1.40614
1.40733
1.40865
1.40991
1.41118
1.41261
1.41361
1.41455
1.41595
1.41626
1.4158
1.41728
1.41793
1.41418
1.413
1.41775
1.41642
1.40583
1.4032
1.41543
1.41786
1.40503
1.38735
1.39717
1.41584
1.42285
1.40067
1.38082
1.38389
1.40598
1.42087
1.4134
1.39564
1.38499
1.38854
1.40056
1.40928
1.40837
1.40122
1.39538
1.39493
1.39826
1.40149
1.40244
1.40156
1.4003
1.39959
1.3995
1.39971
1.39991
1.40001
1.40004
1.40003
1.40001
1.40001
1.40001
1.40001
1.40001
1.40001
1.40001
1.40001
1.40001
1.40001
1.4
1.40001
1.4
1.40001
1.4
1.40001
1.4
1.4
1.40002
1.39999
1.40006
1.39995
1.40013
1.39988
1.40024
1.39977
1.40039
1.3996
1.40053
1.39972
1.40011
1.40044
1.39949
1.40036
1.40076
1.39869
1.40062
1.40085
1.39909
1.39913
1.40236
1.39736
1.40173
1.3974
1.40358
1.39538
1.40346
1.39824
1.4008
1.39994
1.39856
1.40357
1.39595
1.40378
1.39705
1.4017
1.39943
1.39986
1.4004
1.39978
1.39999
1.40009
1.40003
1.3999
1.40002
1.4001
1.39995
1.39995
1.40007
1.40003
1.39996
1.39999
1.40002
1.40003
1.40003
1.40003
1.40004
1.40005
1.40005
1.40005
1.40006
1.40007
1.40008
1.4001
1.40013
1.40018
1.40026
1.40039
1.4006
1.40091
1.40133
1.40189
1.40261
1.4035
1.40459
1.40583
1.40724
1.40882
1.41046
1.41221
1.41407
1.41568
1.41747
1.41925
1.42027
1.42144
1.42327
1.42296
1.42167
1.42448
1.42493
1.41754
1.41623
1.4244
1.42317
1.40499
1.4013
1.41681
1.42648
1.4102
1.38555
1.38551
1.41221
1.43045
1.41534
1.38294
1.37399
1.3927
1.41639
1.42255
1.40801
1.38958
1.38327
1.39139
1.40416
1.40994
1.40598
1.39866
1.39488
1.39606
1.39928
1.40146
1.40174
1.40096
1.40016
1.39979
1.39977
1.39987
1.39996
1.4
1.40002
1.40001
1.40001
1.40001
1.40001
1.40001
1.40001
1.40001
1.4
1.40001
1.4
1.40001
1.4
1.39999
1.40003
1.39997
1.40005
1.39995
1.40008
1.39994
1.4001
1.39997
1.40008
1.40006
1.39998
1.40024
1.39981
1.40028
1.39997
1.3999
1.4003
1.40022
1.39921
1.4016
1.39891
1.39978
1.40213
1.39927
1.39812
1.40307
1.39992
1.39959
1.39891
1.40427
1.3955
1.40532
1.39337
1.40824
1.39077
1.40993
1.39025
1.40813
1.39382
1.40388
1.39845
1.39988
1.40103
1.39878
1.40081
1.39985
1.39978
1.40019
1.40005
1.39988
1.40006
1.40006
1.39993
1.4
1.40006
1.40002
1.39998
1.39996
1.40001
1.40006
1.40005
1.40004
1.40005
1.40004
1.40005
1.40006
1.40007
1.40008
1.4001
1.40013
1.40018
1.40025
1.40038
1.40059
1.40089
1.40134
1.40194
1.40275
1.40378
1.40504
1.40653
1.40827
1.41017
1.4123
1.41454
1.4168
1.41919
1.42155
1.42355
1.42581
1.42786
1.42859
1.43012
1.43251
1.43056
1.42847
1.43363
1.43295
1.4208
1.41905
1.43225
1.43151
1.40502
1.39854
1.41273
1.4357
1.4185
1.39148
1.37202
1.39831
1.43287
1.43141
1.39761
1.36974
1.37694
1.40392
1.4227
1.42033
1.40187
1.38557
1.38485
1.39627
1.4069
1.40844
1.40289
1.39725
1.39572
1.3975
1.39982
1.40098
1.40097
1.40049
1.4001
1.39993
1.39992
1.39996
1.39999
1.4
1.40001
1.40001
1.40001
1.40001
1.40001
1.4
1.40001
1.4
1.40001
1.4
1.40002
1.40001
1.39999
1.40003
1.39997
1.40006
1.39994
1.40013
1.39991
1.40022
1.39989
1.40028
1.39989
1.40031
1.39984
1.40038
1.39996
1.39974
1.40128
1.39821
1.40189
1.39996
1.39815
1.40216
1.40012
1.39824
1.3995
1.40464
1.39429
1.40309
1.39712
1.40627
1.39091
1.4088
1.39209
1.40878
1.39066
1.40754
1.39573
1.40161
1.40066
1.39735
1.40396
1.39612
1.40274
1.39875
1.40018
1.40019
1.39986
1.4001
1.39983
1.40011
1.40009
1.39988
1.40002
1.40004
1.39998
1.40004
1.40003
1.39998
1.4
1.40001
1.40003
1.40004
1.40002
1.40002
1.40005
1.40006
1.40008
1.4001
1.40013
1.40017
1.40023
1.40036
1.40054
1.40084
1.40129
1.40192
1.4028
1.40392
1.40535
1.40707
1.40909
1.4114
1.41397
1.41668
1.41961
1.42255
1.42542
1.42847
1.43111
1.43336
1.43609
1.43815
1.43814
1.44042
1.44341
1.43833
1.43579
1.44488
1.44184
1.42394
1.41987
1.44198
1.43825
1.41174
1.39181
1.40658
1.43414
1.43929
1.39989
1.36559
1.37522
1.42577
1.44408
1.41527
1.37997
1.36796
1.38575
1.41279
1.42457
1.4149
1.39588
1.38534
1.38999
1.40115
1.40733
1.40564
1.40067
1.39742
1.39725
1.39867
1.39997
1.40048
1.40043
1.40021
1.40005
1.39999
1.39998
1.39999
1.4
1.4
1.40001
1.4
1.40001
1.4
1.40001
1.4
1.40001
1.40001
1.4
1.40003
1.39998
1.40003
1.39998
1.40003
1.40002
1.40002
1.40012
1.39999
1.40029
1.39988
1.40051
1.3997
1.40052
1.39998
1.39944
1.40149
1.39858
1.40109
1.40025
1.39905
1.40007
1.40493
1.39431
1.39955
1.40606
1.39952
1.39452
1.4039
1.40218
1.39843
1.39827
1.40231
1.40119
1.39605
1.4049
1.39362
1.40935
1.38867
1.41062
1.39155
1.4063
1.39566
1.40196
1.40048
1.39837
1.40118
1.39991
1.39969
1.4001
1.40013
1.39989
1.39996
1.40009
1.39999
1.39995
1.39998
1.40007
1.40011
1.40002
1.39995
1.4
1.4
1.4
1.40003
1.40006
1.40008
1.40011
1.40015
1.40017
1.40023
1.40032
1.40049
1.40077
1.40119
1.40184
1.40272
1.40394
1.40548
1.4074
1.40971
1.41239
1.41535
1.41866
1.42209
1.42568
1.42932
1.43282
1.43615
1.43958
1.44226
1.44446
1.44779
1.4491
1.44801
1.45221
1.45477
1.44561
1.44409
1.4564
1.45215
1.42714
1.41905
1.44827
1.44573
1.42541
1.38767
1.39452
1.42171
1.45654
1.42499
1.36343
1.35752
1.40335
1.4444
1.43443
1.39684
1.37278
1.37352
1.3944
1.41703
1.42114
1.40715
1.39215
1.38882
1.39575
1.40347
1.40562
1.40308
1.39986
1.3984
1.39862
1.39941
1.39998
1.40018
1.40015
1.40007
1.40002
1.4
1.4
1.4
1.4
1.40001
1.4
1.40001
1.4
1.40002
1.39999
1.40002
1.39998
1.39997
1.40003
1.4
1.39999
1.40007
1.39994
1.40021
1.39989
1.40041
1.39981
1.40069
1.39965
1.40091
1.39968
1.40071
1.39943
1.40147
1.39766
1.40335
1.398
1.39804
1.40693
1.39362
1.40028
1.40152
1.40806
1.38421
1.41001
1.39822
1.4049
1.38947
1.41085
1.39288
1.40758
1.38901
1.41467
1.3863
1.41062
1.39071
1.40886
1.3947
1.3999
1.40343
1.39647
1.40239
1.39834
1.40112
1.39958
1.39959
1.40068
1.39991
1.39976
1.40009
1.40007
1.40004
1.39992
1.39986
1.40007
1.40013
1.40002
1.39999
1.39998
1.39998
1.40004
1.40008
1.40009
1.40013
1.40015
1.40019
1.40023
1.40031
1.40045
1.40068
1.40109
1.40168
1.40257
1.4038
1.40543
1.40751
1.41004
1.41304
1.41646
1.42023
1.42425
1.42848
1.43267
1.43686
1.44095
1.44455
1.44804
1.45147
1.45355
1.45568
1.45955
1.45912
1.45733
1.46453
1.46586
1.45144
1.45252
1.46633
1.46606
1.42765
1.42356
1.44004
1.45999
1.43703
1.40016
1.36666
1.4103
1.46134
1.45209
1.37618
1.34435
1.38715
1.42715
1.43631
1.41832
1.38846
1.37263
1.38041
1.40116
1.41601
1.41333
1.40036
1.39207
1.39353
1.39933
1.40316
1.40325
1.40141
1.39984
1.3993
1.39946
1.39978
1.39998
1.40004
1.40004
1.40002
1.40001
1.4
1.4
1.4
1.40001
1.4
1.40002
1.39999
1.40003
1.39998
1.40004
1.40012
1.39987
1.40016
1.39987
1.40015
1.39999
1.40008
1.40025
1.39996
1.40064
1.39978
1.40105
1.39937
1.40168
1.39787
1.40414
1.39494
1.40623
1.39428
1.40288
1.40055
1.4049
1.38586
1.41153
1.40505
1.39128
1.39367
1.41531
1.39453
1.39881
1.39374
1.41541
1.38533
1.41019
1.39207
1.40883
1.39186
1.40254
1.40459
1.3923
1.40724
1.39236
1.40902
1.39239
1.40326
1.40058
1.3988
1.4005
1.3997
1.40001
1.4002
1.4
1.39986
1.40013
1.40019
1.39989
1.39995
1.40003
1.39996
1.40001
1.40007
1.40001
1.40006
1.40011
1.40013
1.40014
1.40017
1.40019
1.40022
1.4003
1.4004
1.40061
1.40095
1.4015
1.40235
1.40354
1.40521
1.40736
1.41009
1.41336
1.41716
1.42137
1.42598
1.43071
1.43559
1.44035
1.44485
1.44908
1.45301
1.45603
1.45924
1.46206
1.46281
1.46551
1.46935
1.46631
1.46552
1.4758
1.47457
1.45756
1.45805
1.47493
1.48043
1.43412
1.42551
1.42395
1.46325
1.46149
1.418
1.35062
1.37504
1.46683
1.46474
1.40007
1.35226
1.36713
1.41028
1.4262
1.42375
1.41078
1.38741
1.37659
1.38823
1.40519
1.41112
1.40533
1.3971
1.39432
1.39695
1.40042
1.40187
1.40148
1.40056
1.39995
1.39978
1.39984
1.39993
1.39999
1.40001
1.40001
1.4
1.40001
1.39999
1.40001
1.4
1.4
1.40002
1.39997
1.40006
1.39992
1.39981
1.40035
1.39948
1.40076
1.39909
1.40124
1.39878
1.40163
1.39874
1.40185
1.39904
1.40183
1.39968
1.40095
1.40075
1.3993
1.40105
1.4001
1.4004
1.39755
1.40974
1.37966
1.42106
1.39319
1.40612
1.3728
1.43676
1.38036
1.4063
1.39172
1.41061
1.39533
1.39632
1.41215
1.3921
1.39845
1.40352
1.40031
1.40524
1.3853
1.41474
1.39296
1.40158
1.39947
1.39948
1.40214
1.39725
1.40198
1.39993
1.39914
1.4003
1.39996
1.39992
1.40013
1.39996
1.40007
1.40023
1.3999
1.39985
1.40004
1.4001
1.40011
1.40016
1.40014
1.40013
1.40017
1.40017
1.40021
1.40026
1.40037
1.40053
1.40081
1.40131
1.40205
1.4032
1.40481
1.40699
1.40982
1.41329
1.4174
1.42206
1.42713
1.43244
1.43787
1.44307
1.44814
1.45266
1.45655
1.46013
1.4628
1.46468
1.46721
1.46857
1.46814
1.4719
1.47519
1.46965
1.47051
1.48547
1.48077
1.46583
1.45538
1.48823
1.47924
1.46357
1.41237
1.41961
1.4414
1.49769
1.43014
1.34744
1.35388
1.4472
1.47602
1.406
1.37435
1.37789
1.38475
1.40607
1.42306
1.42121
1.40529
1.38751
1.38421
1.39593
1.40613
1.40604
1.40082
1.39719
1.397
1.39874
1.40029
1.40077
1.40055
1.4002
1.4
1.39995