/*--------------------------------*- C++ -*----------------------------------*\
  =========                 |
  \\      /  F ield         | OpenFOAM: The Open Source CFD Toolbox
   \\    /   O peration     | Website:  https://openfoam.org
    \\  /    A nd           | Version:  6
     \\/     M anipulation  |
\*---------------------------------------------------------------------------*/
FoamFile
{
    version     2.0;
    format      ascii;
    class       volScalarField;
    location    "2.81";
    object      rho;
}
// * * * * * * * * * * * * * * * * * * * * * * * * * * * * * * * * * * * * * //

dimensions      [1 -3 0 0 0 0 0];

internalField   nonuniform List<scalar> 
22500
(
1.40001
1.40001
1.40001
1.40001
1.40001
1.40001
1.40001
1.40001
1.40001
1.40001
1.40001
1.40001
1.40001
1.40001
1.40001
1.40001
1.40001
1.40001
1.40001
1.40001
1.40001
1.40001
1.40001
1.40001
1.40001
1.40001
1.40001
1.40001
1.40001
1.40001
1.4
1.40001
1.40001
1.4
1.4
1.4
1.4
1.4
1.4
1.4
1.4
1.4
1.40001
1.4
1.40001
1.4
1.4
1.40001
1.4
1.40001
1.40001
1.40001
1.40001
1.4
1.40001
1.4
1.40001
1.40001
1.40001
1.4
1.40001
1.4
1.40001
1.4
1.4
1.40001
1.4
1.4
1.4
1.4
1.4
1.4
1.4
1.4
1.4
1.4
1.4
1.4
1.4
1.4
1.4
1.4
1.4
1.4
1.40001
1.4
1.40001
1.40001
1.40001
1.40001
1.40001
1.40001
1.40001
1.40001
1.40001
1.40001
1.40001
1.40001
1.40001
1.40001
1.40001
1.4
1.4
1.4
1.4
1.4
1.4
1.4
1.4
1.4
1.4
1.4
1.4
1.4
1.4
1.4
1.4
1.4
1.4
1.4
1.4
1.4
1.4
1.4
1.4
1.4
1.40001
1.4
1.4
1.4
1.40001
1.40001
1.40001
1.40001
1.40001
1.40001
1.40001
1.40001
1.40001
1.40001
1.40001
1.40001
1.40001
1.40001
1.40001
1.40001
1.40001
1.40001
1.40001
1.40001
1.40001
1.40001
1.40001
1.40001
1.40001
1.40001
1.40001
1.40001
1.40001
1.40001
1.40001
1.40001
1.40001
1.40001
1.40001
1.40001
1.40001
1.40001
1.40001
1.4
1.40001
1.4
1.40001
1.4
1.40001
1.40001
1.40001
1.40001
1.4
1.40001
1.4
1.40001
1.4
1.40001
1.40001
1.40001
1.40001
1.4
1.40001
1.40001
1.4
1.40001
1.4
1.40001
1.40001
1.40001
1.4
1.40001
1.4
1.4
1.40001
1.40001
1.4
1.40001
1.40001
1.4
1.4
1.40001
1.4
1.40001
1.4
1.4
1.4
1.4
1.40001
1.4
1.40001
1.4
1.40001
1.4
1.4
1.4
1.4
1.4
1.4
1.4
1.4
1.4
1.4
1.4
1.4
1.4
1.4
1.4
1.4
1.40001
1.40001
1.40001
1.40001
1.40001
1.40001
1.40001
1.40001
1.40001
1.40001
1.40001
1.40001
1.40001
1.40001
1.40001
1.40001
1.4
1.4
1.4
1.4
1.4
1.4
1.4
1.4
1.4
1.4
1.4
1.4
1.4
1.4
1.4
1.4
1.4
1.4
1.4
1.4
1.4
1.4
1.4
1.4
1.4
1.4
1.4
1.4
1.4
1.4
1.4
1.4
1.4
1.40001
1.40001
1.40001
1.40001
1.40001
1.40001
1.40001
1.40001
1.40001
1.40001
1.40001
1.40001
1.40001
1.40001
1.40001
1.40001
1.40001
1.40001
1.40001
1.40001
1.40001
1.40001
1.40001
1.40001
1.40001
1.40001
1.40001
1.40001
1.40001
1.40001
1.40001
1.40001
1.40001
1.40001
1.40001
1.40001
1.40001
1.40001
1.40001
1.4
1.40001
1.40001
1.40001
1.40001
1.4
1.40001
1.4
1.40001
1.40001
1.4
1.40001
1.4
1.40001
1.4
1.4
1.40001
1.4
1.40001
1.40001
1.4
1.40001
1.40001
1.4
1.40001
1.40001
1.4
1.4
1.40001
1.4
1.40001
1.40001
1.4
1.40001
1.40001
1.40001
1.4
1.40001
1.4
1.40001
1.4
1.40001
1.40001
1.4
1.40001
1.4
1.4
1.4
1.4
1.4
1.4
1.4
1.4
1.4
1.4
1.4
1.4
1.4
1.4
1.4
1.4
1.40001
1.40001
1.40001
1.40001
1.40001
1.40001
1.40001
1.40001
1.40001
1.40001
1.40001
1.40001
1.40001
1.40001
1.40001
1.40001
1.40001
1.4
1.4
1.4
1.4
1.4
1.4
1.4
1.4
1.4
1.4
1.4
1.4
1.4
1.4
1.4
1.4
1.4
1.4
1.4
1.4
1.4
1.4
1.4
1.4
1.40001
1.40001
1.40001
1.40001
1.40001
1.40001
1.40001
1.40001
1.40001
1.40001
1.40001
1.40001
1.40001
1.40001
1.40001
1.40001
1.40001
1.40001
1.40001
1.40001
1.40001
1.40001
1.40001
1.40001
1.40001
1.40001
1.40001
1.40001
1.40001
1.40001
1.40001
1.40001
1.40001
1.40001
1.40001
1.40001
1.40001
1.40001
1.40001
1.40001
1.40001
1.40001
1.40001
1.40001
1.4
1.40001
1.4
1.40001
1.4
1.40001
1.40001
1.4
1.40001
1.4
1.40001
1.4
1.40001
1.4
1.40001
1.40001
1.4
1.40001
1.40001
1.40001
1.4
1.4
1.40001
1.40001
1.40001
1.40001
1.40001
1.4
1.40001
1.40001
1.4
1.4
1.40001
1.4
1.4
1.40001
1.40001
1.4
1.40001
1.40001
1.40001
1.4
1.40001
1.4
1.40001
1.4
1.40001
1.4
1.40001
1.4
1.4
1.4
1.4
1.4
1.4
1.4
1.4
1.4
1.4
1.4
1.4
1.4
1.4
1.4
1.4
1.40001
1.40001
1.40001
1.40001
1.40001
1.40001
1.40001
1.40001
1.40002
1.40002
1.40002
1.40002
1.40002
1.40001
1.40001
1.40001
1.40001
1.4
1.4
1.4
1.4
1.4
1.39999
1.39999
1.39999
1.39999
1.39999
1.39999
1.39999
1.4
1.4
1.4
1.4
1.4
1.4
1.4
1.4
1.4
1.4
1.4
1.4
1.4
1.4
1.4
1.40001
1.40001
1.40001
1.40001
1.40001
1.40001
1.40001
1.40001
1.40001
1.40001
1.40001
1.40001
1.40001
1.40001
1.40001
1.40001
1.40001
1.40001
1.40001
1.40001
1.40001
1.40001
1.40001
1.40001
1.40001
1.40001
1.40001
1.40001
1.40001
1.40001
1.40001
1.40001
1.40001
1.40001
1.40001
1.40001
1.40001
1.40001
1.40001
1.40001
1.40001
1.4
1.40001
1.4
1.40001
1.40001
1.4
1.40001
1.4
1.40001
1.4
1.40001
1.4
1.40001
1.40001
1.4
1.4
1.40001
1.40001
1.4
1.4
1.40001
1.40001
1.4
1.4
1.4
1.4
1.4
1.4
1.4
1.40001
1.40001
1.4
1.40001
1.4
1.4
1.40001
1.40001
1.40001
1.4
1.40001
1.4
1.4
1.4
1.40001
1.40001
1.40001
1.40001
1.40001
1.40001
1.4
1.4
1.4
1.4
1.4
1.4
1.4
1.4
1.4
1.4
1.4
1.4
1.4
1.4
1.4
1.4
1.4
1.40001
1.40001
1.40001
1.40001
1.40001
1.40002
1.40002
1.40002
1.40002
1.40002
1.40002
1.40002
1.40002
1.40001
1.40001
1.40001
1.40001
1.4
1.4
1.4
1.39999
1.39999
1.39999
1.39999
1.39999
1.39999
1.39999
1.39998
1.39999
1.39999
1.4
1.4
1.4
1.4
1.4
1.4
1.4
1.4
1.4
1.4
1.4
1.40001
1.40001
1.40001
1.40001
1.40001
1.40001
1.40001
1.40001
1.40001
1.40001
1.40001
1.40001
1.40001
1.40001
1.40001
1.40001
1.40001
1.40001
1.40001
1.40001
1.40001
1.40001
1.40001
1.40001
1.40001
1.40001
1.40001
1.40001
1.40001
1.40001
1.40001
1.40001
1.40001
1.40001
1.40001
1.40001
1.40001
1.40001
1.40001
1.4
1.40001
1.4
1.40001
1.4
1.40001
1.40001
1.4
1.4
1.40001
1.4
1.40001
1.40001
1.4
1.40001
1.40001
1.4
1.4
1.40001
1.40001
1.4
1.4
1.40001
1.40001
1.4
1.4
1.40001
1.40001
1.40001
1.40001
1.40001
1.40001
1.4
1.4
1.4
1.4
1.40001
1.4
1.4
1.40001
1.40001
1.40001
1.4
1.40001
1.4
1.4
1.40001
1.40001
1.40001
1.40001
1.40001
1.4
1.40001
1.4
1.4
1.4
1.4
1.4
1.4
1.4
1.4
1.4
1.4
1.4
1.4
1.4
1.4
1.4
1.4
1.4
1.40001
1.40001
1.40001
1.40001
1.40002
1.40002
1.40002
1.40003
1.40003
1.40003
1.40003
1.40003
1.40003
1.40002
1.40001
1.40002
1.40001
1.4
1.39999
1.39999
1.39999
1.39999
1.39998
1.39998
1.39999
1.39999
1.39999
1.39999
1.39998
1.39998
1.39998
1.4
1.4
1.4
1.4
1.4
1.4
1.4
1.4
1.4
1.4
1.40001
1.40001
1.40001
1.40001
1.40001
1.40001
1.40001
1.40001
1.40001
1.40001
1.40001
1.40001
1.40001
1.40001
1.40001
1.40001
1.40001
1.40001
1.40001
1.40001
1.40001
1.40001
1.40001
1.40001
1.40001
1.40001
1.40001
1.40001
1.40001
1.40001
1.40001
1.40001
1.40001
1.40001
1.40001
1.40001
1.40001
1.40001
1.40001
1.40001
1.4
1.40001
1.4
1.40001
1.40001
1.4
1.40001
1.4
1.40001
1.40001
1.4
1.40001
1.40001
1.4
1.4
1.40001
1.40001
1.39999
1.4
1.40002
1.4
1.39999
1.4
1.40001
1.40001
1.4
1.39999
1.4
1.4
1.4
1.40001
1.40001
1.40001
1.40001
1.40001
1.40001
1.4
1.40001
1.4
1.40001
1.40001
1.4
1.40001
1.4
1.4
1.40001
1.40001
1.40001
1.40001
1.40001
1.4
1.4
1.40001
1.4
1.4
1.4
1.4
1.4
1.4
1.4
1.4
1.4
1.4
1.4
1.4
1.4
1.4
1.4
1.4
1.40001
1.40001
1.40001
1.40002
1.40002
1.40003
1.40003
1.40004
1.40004
1.40005
1.40004
1.40004
1.40005
1.40004
1.40002
1.40002
1.40003
1.40002
1.4
1.39998
1.39999
1.4
1.39998
1.39996
1.39996
1.39997
1.4
1.4
1.39999
1.39998
1.39997
1.39998
1.39999
1.4
1.40001
1.40001
1.4
1.4
1.4
1.4
1.4
1.4
1.40001
1.40001
1.40001
1.40001
1.40001
1.40001
1.40001
1.40001
1.40001
1.40001
1.40001
1.40001
1.40001
1.40001
1.40001
1.40001
1.40001
1.40001
1.40001
1.40001
1.40001
1.40001
1.40001
1.40001
1.40001
1.40001
1.40001
1.40001
1.40001
1.40001
1.40001
1.40001
1.40001
1.40001
1.40001
1.40001
1.40001
1.40001
1.4
1.40001
1.4
1.40001
1.4
1.40001
1.4
1.4
1.40001
1.4
1.40001
1.40001
1.4
1.4
1.40001
1.40001
1.39999
1.40001
1.40004
1.40001
1.39998
1.40001
1.40003
1.40001
1.39998
1.4
1.40002
1.40003
1.40003
1.40002
1.4
1.4
1.4
1.4
1.4
1.4
1.4
1.4
1.40001
1.40001
1.40001
1.40001
1.4
1.4
1.4
1.40001
1.40001
1.40001
1.40001
1.40001
1.40001
1.40001
1.4
1.40001
1.4
1.4
1.4
1.4
1.4
1.4
1.4
1.4
1.4
1.4
1.4
1.4
1.4
1.4
1.4
1.4
1.40001
1.40001
1.40002
1.40002
1.40003
1.40004
1.40005
1.40006
1.40006
1.40007
1.40008
1.40006
1.40006
1.40008
1.40006
1.40003
1.40003
1.40005
1.40003
1.39999
1.39997
1.39999
1.40001
1.39999
1.39995
1.39992
1.39994
1.39999
1.40002
1.40001
1.39998
1.39996
1.39996
1.39998
1.4
1.40001
1.40001
1.40001
1.4
1.4
1.4
1.4
1.4
1.40001
1.40001
1.40001
1.40001
1.40001
1.40001
1.40001
1.40001
1.40001
1.40001
1.40001
1.40001
1.40001
1.40001
1.40001
1.40001
1.40001
1.40001
1.40001
1.40001
1.40001
1.40001
1.40001
1.40001
1.40001
1.40001
1.40001
1.40001
1.40001
1.40001
1.40001
1.40001
1.40001
1.4
1.40001
1.4
1.40001
1.4
1.40001
1.4
1.4
1.40001
1.4
1.40001
1.4
1.40001
1.40001
1.4
1.4
1.4
1.40001
1.39999
1.4
1.40003
1.39999
1.39994
1.4
1.40005
1.39999
1.39995
1.40001
1.40005
1.40002
1.39998
1.39996
1.39997
1.39999
1.40001
1.40002
1.40002
1.40002
1.40001
1.40001
1.40001
1.4
1.4
1.40001
1.40001
1.4
1.4
1.4
1.40001
1.40001
1.40001
1.40001
1.40001
1.40001
1.40001
1.40001
1.4
1.40001
1.40001
1.4
1.4
1.4
1.4
1.4
1.4
1.4
1.4
1.4
1.4
1.4
1.4
1.4
1.40001
1.40001
1.40001
1.40002
1.40003
1.40004
1.40006
1.40007
1.40008
1.4001
1.40011
1.40011
1.40013
1.40013
1.4001
1.40011
1.40013
1.40009
1.40003
1.40004
1.40008
1.40006
1.39998
1.39994
1.39997
1.40003
1.40003
1.39996
1.39989
1.39989
1.39995
1.40002
1.40004
1.40001
1.39996
1.39995
1.39996
1.39999
1.40001
1.40001
1.40001
1.40001
1.4
1.4
1.4
1.4
1.40001
1.40001
1.40001
1.40001
1.40001
1.40001
1.40001
1.40001
1.40001
1.40001
1.40001
1.40001
1.40001
1.40001
1.40001
1.40001
1.40001
1.40001
1.40001
1.40001
1.40001
1.40001
1.40001
1.40001
1.40001
1.40001
1.40001
1.40001
1.40001
1.40001
1.40001
1.4
1.40001
1.4
1.40001
1.4
1.40001
1.4
1.40001
1.4
1.40001
1.4
1.4
1.40001
1.4
1.40001
1.4
1.40001
1.39999
1.40001
1.40003
1.40002
1.39996
1.40005
1.40013
1.4
1.39995
1.40007
1.40009
1.39999
1.39993
1.39998
1.40006
1.40008
1.40005
1.40001
1.39998
1.39997
1.39998
1.39999
1.4
1.4
1.4
1.40001
1.4
1.40001
1.40001
1.4
1.4
1.4
1.40001
1.40001
1.40001
1.40001
1.40001
1.40001
1.40001
1.40001
1.4
1.40001
1.4
1.4
1.4
1.4
1.4
1.4
1.4
1.4
1.4
1.4
1.4
1.4
1.4
1.40001
1.40001
1.40002
1.40003
1.40004
1.40007
1.40008
1.4001
1.40013
1.40015
1.40017
1.4002
1.4002
1.4002
1.40024
1.40021
1.40016
1.40018
1.40022
1.40015
1.40004
1.40005
1.40012
1.40011
1.4
1.39989
1.39991
1.40003
1.4001
1.40004
1.39989
1.39981
1.39987
1.39999
1.40007
1.40005
1.39999
1.39994
1.39994
1.39996
1.39999
1.40001
1.40001
1.40001
1.40001
1.4
1.4
1.4
1.4
1.4
1.40001
1.40001
1.40001
1.40001
1.40001
1.40001
1.40001
1.40001
1.40001
1.40001
1.40001
1.40001
1.40001
1.40001
1.40001
1.40001
1.40001
1.40001
1.40001
1.40001
1.40001
1.40001
1.40001
1.40001
1.40001
1.40001
1.40001
1.40001
1.4
1.40001
1.4
1.40001
1.40001
1.4
1.40001
1.4
1.40001
1.4
1.40001
1.4
1.4
1.40001
1.40001
1.4
1.4
1.4
1.40003
1.39993
1.4
1.40008
1.39987
1.39984
1.40003
1.40004
1.39989
1.39988
1.40004
1.40011
1.40003
1.39994
1.39993
1.39996
1.40002
1.40006
1.40006
1.40004
1.40002
1.40001
1.40001
1.4
1.4
1.4
1.4
1.40001
1.4
1.4
1.4
1.40001
1.40001
1.40001
1.40001
1.4
1.40001
1.40001
1.40001
1.40001
1.4
1.40001
1.40001
1.40001
1.4
1.4
1.4
1.4
1.4
1.4
1.4
1.4
1.40001
1.40001
1.40002
1.40003
1.40005
1.40007
1.40009
1.40013
1.40017
1.4002
1.40024
1.40029
1.40031
1.40035
1.40038
1.40035
1.40037
1.40042
1.40035
1.40024
1.40029
1.40036
1.40024
1.40005
1.40002
1.40014
1.40022
1.40009
1.39984
1.39974
1.39991
1.40017
1.40023
1.4
1.39977
1.39974
1.3999
1.40007
1.40011
1.40005
1.39997
1.39993
1.39994
1.39997
1.4
1.40001
1.40001
1.40001
1.4
1.4
1.4
1.4
1.4
1.4
1.40001
1.40001
1.40001
1.40001
1.40001
1.40001
1.40001
1.40001
1.40001
1.40001
1.40001
1.40001
1.40001
1.40001
1.40001
1.40001
1.40001
1.40001
1.40001
1.40001
1.40001
1.40001
1.40001
1.4
1.40001
1.4
1.40001
1.4
1.40001
1.4
1.40001
1.4
1.40001
1.4
1.4
1.40001
1.39999
1.40002
1.4
1.4
1.4
1.4
1.40005
1.39995
1.40001
1.40014
1.39993
1.4
1.40022
1.4002
1.39999
1.40001
1.40021
1.40014
1.39993
1.3999
1.39997
1.40005
1.40007
1.40003
1.39996
1.39993
1.39994
1.39996
1.39999
1.4
1.40001
1.40001
1.40001
1.40001
1.40001
1.40001
1.4
1.4
1.4
1.40001
1.40001
1.40001
1.40001
1.4
1.40001
1.40001
1.40001
1.40001
1.40001
1.40001
1.40001
1.40001
1.40001
1.4
1.4
1.4
1.4
1.4
1.40001
1.40001
1.40002
1.40003
1.40005
1.40008
1.40011
1.40015
1.4002
1.40025
1.40032
1.40039
1.40045
1.40053
1.40058
1.4006
1.40067
1.40068
1.40061
1.40064
1.40071
1.40056
1.40035
1.4004
1.40056
1.40044
1.40009
1.39989
1.40006
1.40037
1.40039
1.39991
1.39947
1.39956
1.40013
1.40047
1.4003
1.39984
1.39962
1.39973
1.39999
1.40015
1.40014
1.40005
1.39996
1.39993
1.39995
1.39997
1.4
1.40001
1.40001
1.4
1.4
1.4
1.4
1.4
1.40001
1.40001
1.40001
1.40001
1.40001
1.40001
1.40001
1.40001
1.40001
1.40001
1.40001
1.40001
1.40001
1.40001
1.40001
1.40001
1.40001
1.40001
1.40001
1.40001
1.4
1.40001
1.4
1.40001
1.4
1.40001
1.4
1.40001
1.4
1.40002
1.39999
1.40003
1.39998
1.40003
1.39998
1.40002
1.40001
1.39999
1.40003
1.39999
1.40005
1.39995
1.39995
1.40014
1.39985
1.39995
1.40003
1.39996
1.3997
1.39976
1.40003
1.39984
1.39975
1.39994
1.40005
1.40011
1.40008
1.4
1.39999
1.40003
1.40007
1.40008
1.40007
1.40003
1.40001
1.4
1.4
1.4
1.4
1.40001
1.40001
1.4
1.4
1.40001
1.40001
1.40001
1.40001
1.40001
1.4
1.4
1.40001
1.40001
1.40001
1.40001
1.40001
1.40001
1.40001
1.40001
1.40001
1.40001
1.4
1.40001
1.40001
1.40001
1.40002
1.40003
1.40005
1.40008
1.40012
1.40017
1.40023
1.4003
1.4004
1.4005
1.40061
1.40073
1.40084
1.40093
1.40105
1.40109
1.40111
1.40121
1.40116
1.40097
1.40102
1.40116
1.40088
1.40044
1.40045
1.40078
1.40082
1.40027
1.39962
1.39965
1.40048
1.401
1.40037
1.39925
1.39891
1.39974
1.40061
1.40071
1.40014
1.39961
1.39954
1.3998
1.40008
1.4002
1.40015
1.40005
1.39997
1.39995
1.39996
1.39998
1.39999
1.4
1.4
1.4
1.4
1.4
1.4
1.40001
1.40001
1.40001
1.40001
1.40001
1.40001
1.40001
1.40001
1.40001
1.40001
1.40001
1.40001
1.40001
1.40001
1.40001
1.40001
1.40001
1.40001
1.40001
1.40001
1.4
1.40001
1.4
1.40001
1.4
1.40001
1.4
1.40001
1.4
1.40001
1.39999
1.40003
1.39997
1.40005
1.39994
1.40006
1.39996
1.40002
1.39999
1.39992
1.40023
1.39986
1.40003
1.4001
1.40013
1.40002
1.40008
1.4005
1.4001
1.40015
1.40035
1.40012
1.40006
1.4
1.3999
1.39991
1.39993
1.39996
1.39996
1.39994
1.39995
1.39997
1.4
1.40001
1.40001
1.40002
1.40001
1.4
1.40001
1.40001
1.4
1.4
1.40001
1.40001
1.40001
1.40001
1.40001
1.40001
1.40001
1.40001
1.40001
1.40001
1.40001
1.40001
1.40001
1.40001
1.40001
1.40001
1.40001
1.40001
1.40001
1.40002
1.40003
1.40005
1.40007
1.40011
1.40017
1.40024
1.40033
1.40045
1.40058
1.40074
1.40093
1.40111
1.4013
1.40151
1.40164
1.40179
1.40194
1.40191
1.40191
1.40206
1.40188
1.40145
1.4015
1.40179
1.40141
1.40054
1.40025
1.40091
1.40157
1.40089
1.39926
1.39863
1.40016
1.40178
1.40151
1.39942
1.39827
1.39884
1.40035
1.40101
1.40063
1.39988
1.39945
1.39953
1.39984
1.40011
1.4002
1.40015
1.40006
1.39999
1.39996
1.39997
1.39999
1.4
1.4
1.4
1.4
1.4
1.40001
1.40001
1.40001
1.40001
1.40001
1.40001
1.40001
1.40001
1.40001
1.40001
1.40001
1.40001
1.40001
1.40001
1.40001
1.40001
1.40001
1.4
1.40001
1.40001
1.4
1.40001
1.4
1.40001
1.4
1.40002
1.39999
1.40003
1.39997
1.40005
1.39996
1.40005
1.39998
1.40002
1.40003
1.39996
1.40008
1.39992
1.40022
1.39983
1.39991
1.40012
1.39994
1.39998
1.39961
1.40026
1.39951
1.39971
1.39994
1.39954
1.39977
1.39998
1.39997
1.39997
1.40007
1.40017
1.40014
1.40006
1.40005
1.40005
1.40002
1.4
1.40001
1.39999
1.39999
1.4
1.4
1.4
1.40001
1.40001
1.4
1.4
1.40001
1.40001
1.40001
1.4
1.4
1.40001
1.40001
1.40001
1.40001
1.40001
1.40001
1.40001
1.40001
1.40001
1.40001
1.40001
1.40001
1.40002
1.40002
1.40003
1.40006
1.40009
1.40014
1.40021
1.40032
1.40045
1.40061
1.40082
1.40106
1.40132
1.40164
1.40195
1.40224
1.40257
1.40285
1.403
1.40321
1.40335
1.40312
1.40307
1.4033
1.40287
1.40199
1.40199
1.40266
1.40236
1.40073
1.39952
1.40058
1.40264
1.40242
1.39916
1.397
1.39874
1.40221
1.4031
1.40061
1.39807
1.39786
1.3994
1.40086
1.4011
1.40046
1.39972
1.39939
1.39951
1.39984
1.4001
1.40018
1.40013
1.40005
1.4
1.39998
1.39998
1.39999
1.4
1.4
1.4
1.40001
1.40001
1.40001
1.40001
1.40001
1.40001
1.40001
1.40001
1.40001
1.40001
1.40001
1.40001
1.40001
1.40001
1.40001
1.4
1.40001
1.4
1.40001
1.4
1.40001
1.4
1.40001
1.39999
1.40002
1.39998
1.40004
1.39995
1.40007
1.39992
1.40011
1.39989
1.40014
1.39984
1.40014
1.39991
1.40007
1.39994
1.3998
1.40042
1.39988
1.40016
1.39961
1.40072
1.39988
1.40012
1.40056
1.39995
1.40043
1.40035
1.4002
1.39989
1.40003
1.40018
1.39988
1.3998
1.39993
1.39995
1.39999
1.40001
1.4
1.40002
1.40002
1.40002
1.40001
1.4
1.40001
1.4
1.4
1.40001
1.4
1.4
1.40001
1.40001
1.40001
1.4
1.4
1.40001
1.40001
1.40001
1.40001
1.40001
1.40001
1.40001
1.40001
1.40002
1.40002
1.40002
1.40002
1.40003
1.40004
1.40006
1.4001
1.40016
1.40026
1.40039
1.40057
1.4008
1.40108
1.40142
1.40183
1.40228
1.40275
1.40328
1.40378
1.40421
1.4047
1.405
1.40509
1.40538
1.40539
1.40476
1.40461
1.40502
1.40426
1.40251
1.40216
1.40367
1.40414
1.40127
1.39794
1.39913
1.40371
1.40517
1.40023
1.39551
1.39596
1.40132
1.40417
1.40286
1.39917
1.39742
1.39816
1.3999
1.40112
1.40115
1.40042
1.39967
1.39937
1.39953
1.39986
1.40008
1.40014
1.4001
1.40004
1.4
1.39999
1.39999
1.4
1.4
1.4
1.40001
1.40001
1.40001
1.40001
1.40001
1.40001
1.40001
1.40001
1.40001
1.40001
1.40001
1.40001
1.40001
1.40001
1.40001
1.4
1.40001
1.4
1.40001
1.4
1.40001
1.4
1.40001
1.4
1.40001
1.4
1.40001
1.39999
1.40003
1.39995
1.4001
1.39988
1.40019
1.39982
1.4002
1.39973
1.40053
1.39967
1.39991
1.39973
1.40042
1.40001
1.39919
1.4005
1.39923
1.40021
1.39959
1.39987
1.39965
1.39999
1.40028
1.39979
1.39995
1.40019
1.40012
1.40006
1.40004
1.39997
1.4
1.40002
1.39997
1.39999
1.4
1.39999
1.40001
1.4
1.40001
1.4
1.4
1.40001
1.4
1.40001
1.40001
1.4
1.40001
1.40001
1.40001
1.40001
1.40001
1.40001
1.40001
1.40001
1.40001
1.40002
1.40002
1.40002
1.40002
1.40003
1.40004
1.40007
1.40011
1.40018
1.40029
1.40045
1.40068
1.40097
1.40135
1.40182
1.40237
1.40301
1.40374
1.40449
1.40528
1.4061
1.40676
1.40737
1.40799
1.40815
1.40811
1.40848
1.40815
1.40678
1.40643
1.40731
1.40629
1.40284
1.40144
1.40455
1.40706
1.40283
1.39601
1.39576
1.40365
1.4083
1.40386
1.39544
1.393
1.39795
1.40371
1.40468
1.40185
1.39843
1.3973
1.3984
1.40023
1.40138
1.40127
1.4004
1.39964
1.39942
1.39962
1.3999
1.40007
1.40009
1.40006
1.40002
1.4
1.4
1.4
1.4
1.40001
1.40001
1.40001
1.40001
1.40001
1.40001
1.40001
1.40001
1.40001
1.40001
1.40001
1.40001
1.40001
1.40001
1.4
1.40001
1.4
1.4
1.40001
1.4
1.40002
1.39998
1.40004
1.39995
1.40008
1.3999
1.40013
1.39986
1.40016
1.39983
1.40019
1.39977
1.40017
1.3999
1.40007
1.40001
1.39959
1.40048
1.40004
1.40055
1.39869
1.40143
1.39938
1.4008
1.39975
1.40031
1.40011
1.4
1.40037
1.39946
1.40019
1.39998
1.39983
1.40002
1.39988
1.39995
1.40006
1.39998
1.4
1.40004
1.40002
1.40003
1.40002
1.40001
1.39999
1.40001
1.40002
1.4
1.4
1.40001
1.40001
1.40001
1.4
1.40001
1.40001
1.4
1.40001
1.40001
1.40001
1.40002
1.40001
1.40001
1.40001
1.40002
1.40002
1.40003
1.40003
1.40004
1.40007
1.40011
1.40018
1.4003
1.40049
1.40075
1.40111
1.4016
1.4022
1.40293
1.40382
1.40479
1.40589
1.40707
1.40822
1.40939
1.41052
1.41129
1.41205
1.41271
1.41246
1.41213
1.41259
1.41178
1.40895
1.40815
1.41028
1.40934
1.40298
1.39918
1.4046
1.41106
1.40654
1.39485
1.39068
1.40056
1.40973
1.40948
1.39878
1.3922
1.3931
1.40007
1.40471
1.40445
1.40117
1.39785
1.39702
1.39856
1.40061
1.40157
1.40119
1.40027
1.39966
1.39957
1.39976
1.39995
1.40004
1.40005
1.40003
1.40001
1.4
1.4
1.4
1.40001
1.40001
1.40001
1.40001
1.40001
1.40001
1.40001
1.40001
1.40001
1.40001
1.40001
1.40001
1.40001
1.4
1.40001
1.4
1.40001
1.39999
1.40003
1.39997
1.40006
1.39993
1.40011
1.39986
1.40019
1.39976
1.40032
1.39958
1.40055
1.39941
1.40071
1.39932
1.40066
1.39929
1.40098
1.3993
1.40028
1.39911
1.40093
1.39975
1.39956
1.40018
1.39947
1.40046
1.39914
1.40101
1.3991
1.40077
1.40003
1.39983
1.40048
1.40006
1.39999
1.40009
1.40004
1.39996
1.40005
1.39995
1.39995
1.40001
1.39993
1.40001
1.40003
1.39998
1.4
1.40002
1.40002
1.39999
1.4
1.40002
1.4
1.4
1.40001
1.40001
1.40001
1.40001
1.40001
1.40001
1.40001
1.40001
1.40002
1.40002
1.40002
1.40003
1.40004
1.40005
1.40006
1.40011
1.40017
1.4003
1.40049
1.40079
1.40121
1.40178
1.40252
1.40346
1.40457
1.40589
1.40737
1.40895
1.41067
1.41239
1.41397
1.41558
1.41689
1.41763
1.41849
1.41899
1.41786
1.417
1.41785
1.41629
1.41088
1.40919
1.4139
1.41399
1.40347
1.39527
1.40246
1.4141
1.41323
1.39686
1.38678
1.39235
1.40737
1.41353
1.40662
1.39495
1.39066
1.39406
1.40135
1.40542
1.40423
1.40023
1.39703
1.39692
1.399
1.4009
1.40141
1.40085
1.40012
1.39976
1.39976
1.39989
1.39999
1.40002
1.40002
1.40001
1.40001
1.40001
1.40001
1.40001
1.40001
1.40001
1.40001
1.40001
1.40001
1.40001
1.40001
1.40001
1.40001
1.40001
1.40001
1.40001
1.4
1.40001
1.39999
1.40002
1.39998
1.40003
1.39998
1.40003
1.39997
1.40006
1.39992
1.40013
1.39983
1.40023
1.39975
1.40014
1.39976
1.40043
1.39961
1.40029
1.39918
1.40106
1.39977
1.40078
1.39789
1.40252
1.39848
1.40153
1.39816
1.40218
1.39851
1.40053
1.39971
1.39951
1.40031
1.39938
1.4
1.3997
1.40005
1.4001
1.39981
1.40008
1.40009
1.4
1.4001
1.40006
1.39999
1.39999
1.40001
1.40004
1.39997
1.39999
1.40003
1.39999
1.4
1.40001
1.40001
1.4
1.39999
1.40001
1.40002
1.40001
1.40001
1.40001
1.40001
1.40002
1.40002
1.40003
1.40003
1.40004
1.40004
1.40007
1.4001
1.40016
1.40028
1.40047
1.40079
1.40124
1.40189
1.40275
1.40387
1.40525
1.4069
1.40878
1.41091
1.41317
1.41551
1.41792
1.42017
1.42214
1.42411
1.42535
1.42581
1.42669
1.42679
1.42403
1.42225
1.42435
1.42186
1.412
1.4089
1.41752
1.42036
1.40553
1.39093
1.39631
1.41362
1.42093
1.40481
1.38772
1.38247
1.39849
1.41223
1.4148
1.40342
1.39241
1.39023
1.39548
1.40308
1.40613
1.40342
1.39895
1.3967
1.39751
1.39956
1.40086
1.40096
1.40047
1.40004
1.39988
1.39989
1.39996
1.4
1.40001
1.40001
1.40001
1.40001
1.4
1.4
1.40001
1.40001
1.40001
1.40001
1.40001
1.40001
1.40001
1.4
1.40001
1.4
1.4
1.40001
1.40001
1.39999
1.40003
1.39996
1.40008
1.3999
1.40015
1.39982
1.40026
1.39965
1.40052
1.39928
1.40103
1.39879
1.40153
1.39853
1.40131
1.39834
1.40227
1.39858
1.4004
1.39828
1.40233
1.39922
1.39982
1.39892
1.40126
1.3998
1.39928
1.40091
1.39912
1.40169
1.39886
1.40124
1.39995
1.40007
1.40034
1.39989
1.40004
1.40003
1.39996
1.39988
1.39998
1.39992
1.39997
1.4001
1.39994
1.39999
1.40006
1.4
1.40001
1.39999
1.40001
1.40001
1.39999
1.40002
1.40001
1.4
1.4
1.4
1.40001
1.40001
1.4
1.40001
1.40002
1.40003
1.40004
1.40004
1.40005
1.40006
1.40009
1.40015
1.40024
1.40043
1.40073
1.40121
1.4019
1.40286
1.40413
1.40575
1.40773
1.41006
1.41269
1.41558
1.41868
1.42179
1.4249
1.42795
1.4305
1.43273
1.43484
1.43562
1.43537
1.43646
1.43591
1.43012
1.42745
1.43199
1.42837
1.41242
1.40643
1.41938
1.42751
1.41113
1.39039
1.38564
1.40643
1.42335
1.42058
1.39506
1.37832
1.38398
1.40507
1.41605
1.4134
1.40015
1.39054
1.39112
1.39819
1.40487
1.40576
1.40194
1.39822
1.3973
1.39848
1.39993
1.40058
1.40051
1.40021
1.40001
1.39995
1.39996
1.39999
1.4
1.40001
1.40001
1.4
1.4
1.4
1.40001
1.40001
1.40001
1.40001
1.40001
1.4
1.40001
1.4
1.40001
1.39999
1.40002
1.39997
1.40006
1.39993
1.40011
1.39986
1.4002
1.39973
1.40041
1.3994
1.4009
1.3988
1.4015
1.39823
1.40179
1.39803
1.40219
1.39782
1.40229
1.39748
1.40182
1.39908
1.40229
1.39668
1.40275
1.39754
1.40336
1.39688
1.40334
1.39592
1.40355
1.39763
1.4012
1.39854
1.39994
1.40014
1.39957
1.40041
1.39936
1.40023
1.40037
1.39967
1.40023
1.40017
1.39985
1.40006
1.40001
1.40002
1.40001
1.39991
1.40004
1.40003
1.39999
1.40003
1.4
1.4
1.4
1.40002
1.40004
1.4
1.4
1.4
1.4
1.40001
1.40002
1.40003
1.40004
1.40005
1.40006
1.40007
1.40009
1.40013
1.40022
1.40037
1.40065
1.40111
1.40181
1.40282
1.40421
1.40603
1.40831
1.41104
1.4142
1.41775
1.42152
1.4255
1.42951
1.43333
1.43697
1.44035
1.44282
1.44504
1.4471
1.44682
1.44551
1.4475
1.44592
1.43517
1.43175
1.44031
1.4358
1.41324
1.40193
1.41722
1.43193
1.42211
1.397
1.37591
1.39016
1.4164
1.43473
1.41128
1.38349
1.37372
1.3905
1.41038
1.41603
1.40957
1.39666
1.38995
1.39362
1.40109
1.40521
1.40408
1.40061
1.39841
1.39837
1.39931
1.40006
1.40029
1.40021
1.40007
1.4
1.39999
1.39999
1.4
1.4
1.4
1.4
1.4
1.40001
1.40001
1.40001
1.40001
1.40001
1.4
1.40001
1.4
1.40001
1.40002
1.39998
1.40003
1.39998
1.40004
1.39996
1.40008
1.39987
1.40024
1.39965
1.40048
1.39952
1.40029
1.40018
1.39961
1.40082
1.3989
1.40113
1.39854
1.40267
1.3968
1.4021
1.3987
1.40216
1.39654
1.40187
1.40022
1.40156
1.39541
1.40231
1.40113
1.40006
1.39877
1.3997
1.40308
1.39822
1.40102
1.39922
1.40057
1.4003
1.39956
1.39989
1.40013
1.39994
1.39988
1.40015
1.39997
1.39988
1.40014
1.40004
1.40002
1.39999
1.39992
1.40002
1.40002
1.40003
1.4
1.39996
1.40002
1.40002
1.40002
1.40001
1.39999
1.40001
1.40003
1.40003
1.40004
1.40005
1.40006
1.40007
1.40009
1.40012
1.40018
1.40031
1.40055
1.40096
1.40164
1.40265
1.4041
1.40605
1.40856
1.41166
1.41532
1.41945
1.42397
1.42874
1.43352
1.43831
1.44281
1.44682
1.45057
1.45373
1.45563
1.45773
1.45985
1.45749
1.45519
1.45944
1.45584
1.43879
1.43453
1.44745
1.44429
1.41685
1.39682
1.40898
1.427
1.43784
1.4121
1.37756
1.36458
1.40278
1.43544
1.43115
1.39535
1.3773
1.37861
1.39691
1.41191
1.41293
1.40437
1.39414
1.39151
1.39674
1.40242
1.4039
1.40214
1.39998
1.39907
1.39926
1.39976
1.40005
1.40011
1.40007
1.40002
1.4
1.4
1.4
1.4
1.4
1.4
1.40001
1.40001
1.40001
1.40001
1.4
1.40001
1.4
1.40001
1.39999
1.40001
1.39999
1.40003
1.39997
1.40003
1.4
1.4
1.4
1.40011
1.39966
1.40087
1.39836
1.40259
1.39661
1.40348
1.39601
1.40537
1.3942
1.40541
1.39352
1.40744
1.39568
1.40129
1.39557
1.4084
1.39614
1.39935
1.39578
1.40899
1.39552
1.40177
1.39358
1.40739
1.39622
1.40128
1.3972
1.40226
1.39959
1.39917
1.40093
1.39942
1.40028
1.40035
1.3995
1.4002
1.4002
1.39978
1.40013
1.39989
1.39987
1.4002
1.40008
1.4
1.39994
1.39997
1.40008
1.39999
1.39999
1.4
1.39998
1.40002
1.4
1.4
1.40003
1.40004
1.40005
1.40005
1.40005
1.40006
1.40008
1.40011
1.40016
1.40026
1.40044
1.40081
1.40141
1.40237
1.4038
1.4058
1.40848
1.41186
1.41593
1.42062
1.42583
1.43129
1.43694
1.44242
1.4476
1.45238
1.4566
1.46
1.46335
1.4658
1.46672
1.46929
1.47152
1.46595
1.46337
1.47156
1.46536
1.44107
1.43507
1.4506
1.45249
1.42505
1.39709
1.3935
1.41037
1.44794
1.43618
1.39212
1.34733
1.38034
1.42471
1.438
1.41414
1.38842
1.38199
1.38553
1.4004
1.41135
1.40877
1.39986
1.39393
1.39458
1.39897
1.40205
1.40214
1.40087
1.39988
1.3996
1.39974
1.39993
1.40002
1.40003
1.40002
1.4
1.4
1.4
1.4
1.4
1.40001
1.40001
1.40001
1.4
1.40001
1.4
1.40001
1.40001
1.4
1.39999
1.40002
1.39999
1.40002
1.39996
1.40014
1.39967
1.40071
1.39877
1.40198
1.39722
1.40345
1.39668
1.4029
1.39763
1.40299
1.39598
1.40265
1.4005
1.39942
1.39881
1.39834
1.40598
1.39707
1.39818
1.39802
1.40499
1.39922
1.40132
1.39287
1.40433
1.40215
1.40157
1.39512
1.40045
1.40424
1.39756
1.40087
1.39854
1.40118
1.39981
1.39986
1.3999
1.4001
1.40011
1.39973
1.40014
1.40021
1.39995
1.39994
1.39974
1.40006
1.40025
1.39996
1.4
1.4
1.40002
1.40008
1.39999
1.4
1.40002
1.40001
1.40004
1.40004
1.40004
1.40005
1.40004
1.40006
1.40007
1.40009
1.40014
1.40021
1.40036
1.40064
1.40115
1.40202
1.40336
1.40533
1.40805
1.4116
1.416
1.42117
1.42695
1.43315
1.43946
1.44559
1.45138
1.45645
1.4608
1.46451
1.46742
1.46964
1.47245
1.4739
1.47383
1.47844
1.48074
1.47116
1.46964
1.48221
1.47396
1.44355
1.43257
1.44694
1.45838
1.43765
1.41027
1.3726
1.38741
1.43804
1.46826
1.40686
1.35424
1.35917
1.40977
1.42449
1.42314
1.4067
1.39149
1.38722
1.39129
1.40297
1.40935
1.40473
1.39781
1.39562
1.39743
1.39995
1.40112
1.40089
1.40028
1.39993
1.39988
1.39993
1.39999
1.40001
1.4
1.4
1.4
1.4
1.4
1.40001
1.40001
1.40001
1.4
1.40001
1.4
1.40001
1.4
1.40002
1.40004
1.39993
1.40016
1.3997
1.40057
1.39907
1.40142
1.39815
1.40223
1.39778
1.40176
1.39961
1.3983
1.40266
1.3978
1.403
1.39431
1.40857
1.39
1.41015
1.39048
1.40911
1.39164
1.40709
1.39284
1.40656
1.39939
1.39987
1.38992
1.41221
1.3994
1.39903
1.38836
1.41224
1.39812
1.40062
1.39279
1.40623
1.40003
1.39806
1.40077
1.39957
1.40046
1.40019
1.39957
1.40014
1.40012
1.39954
1.40043
1.40037
1.39967
1.39981
1.39991
1.40011
1.40009
1.39985
1.40003
1.40005
1.39998
1.4
1.4
1.40006
1.40007
1.40005
1.40003
1.40003
1.40004
1.40007
1.4001
1.40012
1.40019
1.40028
1.40049
1.40091
1.40163
1.40283
1.40467
1.40733
1.41093
1.41551
1.42103
1.42733
1.43414
1.44108
1.44786
1.45398
1.45926
1.4635
1.46665
1.46875
1.47064
1.47154
1.47275
1.47561
1.47597
1.47594
1.48478
1.48718
1.47294
1.47299
1.49
1.48139
1.44882
1.42837
1.43545
1.4536
1.4546
1.43621
1.36035
1.35968
1.41411
1.48312
1.4271
1.36909
1.36219
1.38991
1.40829
1.40864
1.41676
1.40738
1.39207
1.39011
1.39703
1.40429
1.40581
1.40181
1.39808
1.39774
1.39909
1.40013
1.40042
1.40028
1.40008
1.39998
1.39997
1.39998
1.39999
1.4
1.4
1.4
1.4
1.40001
1.40001
1.40001
1.40001
1.4
1.40001
1.4
1.40002
1.39999
1.3998
1.40034
1.39947
1.40077
1.39905
1.40102
1.39925
1.40016
1.401
1.39744
1.40478
1.3934
1.40766
1.39384
1.40508
1.39115
1.41314
1.39041
1.40356
1.39388
1.41065
1.39767
1.39145
1.40194
1.4115
1.39495
1.38864
1.40553
1.41123
1.39698
1.38614
1.40579
1.40774
1.40259
1.38727
1.40213
1.40864
1.39583
1.39849
1.39914
1.4036
1.39793
1.39994
1.40036
1.39975
1.40054
1.39981
1.39972
1.39987
1.40005
1.40068
1.40001
1.39958
1.40012
1.4
1.39995
1.40002
1.39993
1.39998
1.39994
1.39993
1.40001
1.40001
1.4
1.40001
1.40002
1.40006
1.40009
1.40013
1.40017
1.40024
1.40039
1.40069
1.40126
1.40227
1.4039
1.40639
1.40987
1.4145
1.42024
1.42694
1.43427
1.44184
1.44912
1.45563
1.46101
1.46484
1.46721
1.46826
1.46814
1.4676
1.46758
1.46674
1.46826
1.47243
1.47177
1.47352
1.48839
1.49101
1.47278
1.47393
1.49306
1.48721
1.45788
1.42384
1.42098
1.43068
1.47456
1.45785
1.37644
1.32503
1.40446
1.45999
1.44347
1.38186
1.3878
1.38698
1.38836
1.39545
1.4055
1.41484
1.40433
1.39153
1.39338
1.40066
1.40366
1.40261
1.40038
1.39903
1.39912
1.39974
1.40008
1.40012
1.40007
1.40002
1.39999
1.39998
1.39999
1.4
1.4
1.40001
1.40001
1.40001
1.40001
1.4
1.40002
1.39998
1.40004
1.39994
1.40012
1.40007
1.4
1.39981
1.40064
1.3986
1.40258
1.396
1.40571
1.39286
1.40854
1.39107
1.40745
1.39537
1.40284
1.39659
1.4063
1.39594
1.39348
1.41329
1.39471
1.39967
1.38638
1.42408
1.39217