/*--------------------------------*- C++ -*----------------------------------*\
  =========                 |
  \\      /  F ield         | OpenFOAM: The Open Source CFD Toolbox
   \\    /   O peration     | Website:  https://openfoam.org
    \\  /    A nd           | Version:  6
     \\/     M anipulation  |
\*---------------------------------------------------------------------------*/
FoamFile
{
    version     2.0;
    format      ascii;
    class       volScalarField;
    location    "1.32";
    object      k;
}
// * * * * * * * * * * * * * * * * * * * * * * * * * * * * * * * * * * * * * //

dimensions      [0 2 -2 0 0 0 0];

internalField   nonuniform List<scalar> 
4214
(
0.081879
0.0471604
0.0354198
0.0323888
0.0322207
0.0327896
0.0335226
0.0344018
0.0355522
0.0372246
0.0398292
0.0439736
0.0506954
0.0615424
0.0791811
0.106734
0.14827
0.207572
0.283731
0.37274
0.459275
0.462334
0.308161
0.176735
0.107641
0.0744345
0.0577498
0.0485308
0.0429888
0.0393246
0.0367265
0.0347708
0.0332777
0.0321811
0.0314612
0.0309787
0.0307091
0.0310965
0.0340434
0.045193
0.0790649
0.0391922
0.0332265
0.0314725
0.0314594
0.0320222
0.0327135
0.0334592
0.0343267
0.0354539
0.037126
0.039755
0.0440033
0.0510779
0.0628142
0.08264
0.114493
0.163668
0.234168
0.321271
0.41527
0.494562
0.474911
0.301938
0.171189
0.104972
0.0731755
0.0569489
0.0478361
0.0423446
0.0387164
0.0361368
0.0342033
0.0327494
0.0316836
0.0309572
0.0304735
0.0301171
0.0299054
0.0301924
0.0320189
0.0379362
0.0317979
0.0306869
0.0307195
0.0312346
0.031906
0.0326061
0.0333536
0.0342005
0.0353311
0.0370193
0.0397047
0.0441122
0.0516647
0.0645213
0.0870921
0.124253
0.182785
0.266608
0.3661
0.462211
0.527776
0.484324
0.294017
0.165941
0.103196
0.0724915
0.0564529
0.0472626
0.0416986
0.0380125
0.0354122
0.0334759
0.0320287
0.0309717
0.0302282
0.0297186
0.0293502
0.0290744
0.0289684
0.0292393
0.0305498
0.0299734
0.0300166
0.0304807
0.0311087
0.0317878
0.0324819
0.0332163
0.0340533
0.0351996
0.0369225
0.0397057
0.0443451
0.0525431
0.0668124
0.0928288
0.136463
0.206254
0.305587
0.418742
0.513661
0.559506
0.489664
0.286424
0.162196
0.102574
0.0724812
0.0563692
0.0469072
0.0411382
0.0372952
0.0346128
0.0326298
0.0311613
0.0300855
0.0293265
0.0287995
0.0284278
0.0281676
0.0280309
0.0280111
0.0282973
0.0292826
0.0297121
0.0303071
0.0309572
0.0316283
0.0323189
0.0330329
0.0338825
0.0350597
0.0368433
0.0397801
0.044745
0.0538088
0.0698497
0.100175
0.151616
0.234765
0.351984
0.479389
0.56758
0.585868
0.489264
0.280509
0.160577
0.103329
0.0733127
0.0568546
0.046892
0.0407607
0.0366277
0.0337772
0.031682
0.030153
0.0290304
0.0282354
0.0276829
0.0273042
0.0270558
0.0269413
0.0268964
0.0269073
0.0289033
0.0294839
0.0301193
0.030768
0.0314329
0.0321086
0.0328213
0.0336927
0.0349202
0.0367978
0.0399623
0.0453724
0.055591
0.0738348
0.10953
0.170257
0.268999
0.406731
0.548111
0.621633
0.60626
0.48408
0.277408
0.161645
0.105695
0.0752395
0.058145
0.0474256
0.0407455
0.0361447
0.0330086
0.0307074
0.0290676
0.0278655
0.0270206
0.0264308
0.0260359
0.0257903
0.0256903
0.0256732
0.0256372
0.0286041
0.0292458
0.0298896
0.030532
0.031192
0.0318525
0.0325797
0.0334854
0.0347902
0.0368048
0.0402983
0.0463039
0.0580514
0.0790053
0.121346
0.19292
0.309626
0.470855
0.625052
0.671812
0.621362
0.477786
0.276394
0.164909
0.1099
0.0786069
0.0605611
0.0488061
0.0413501
0.0360429
0.0324598
0.0298124
0.0279932
0.0266643
0.0257538
0.0251163
0.0246951
0.0244364
0.0243308
0.024331
0.0243189
0.0283054
0.0289668
0.0296078
0.0302467
0.0308947
0.031555
0.0323079
0.0332639
0.0346842
0.0368918
0.0408529
0.0476382
0.0613967
0.0856333
0.136115
0.220075
0.357226
0.545708
0.709301
0.715768
0.63218
0.472446
0.278279
0.17055
0.115989
0.0836087
0.0645403
0.0514551
0.0429382
0.036602
0.0323488
0.0291437
0.027047
0.0255157
0.024519
0.0238208
0.0233693
0.0230864
0.0229588
0.0229496
0.0229667
0.0279695
0.0286301
0.0292652
0.0299001
0.0305408
0.0312113
0.0320061
0.0330342
0.0346253
0.0370984
0.0417166
0.0495023
0.0658856
0.0940153
0.154355
0.252106
0.412316
0.631958
0.798072
0.757337
0.641321
0.469548
0.283543
0.178984
0.124557
0.090844
0.0705544
0.055896
0.0460055
0.0381998
0.032971
0.0288901
0.0263765
0.0245179
0.0234036
0.0226211
0.0221393
0.021828
0.0216719
0.0216342
0.0216544
0.0275709
0.0282211
0.028852
0.0294798
0.030126
0.0308166
0.0316784
0.0328081
0.0346516
0.0374817
0.0430177
0.0520567
0.0718331
0.104456
0.17658
0.289294
0.475478
0.729581
0.888203
0.800528
0.652303
0.470552
0.292816
0.1907
0.136255
0.101049
0.0794185
0.0628114
0.0511339
0.0413391
0.0347164
0.0292946
0.0261692
0.0237811
0.0225012
0.0215889
0.021077
0.0207366
0.0205567
0.0204858
0.0204832
0.0270863
0.0277234
0.0283532
0.0289771
0.0296444
0.030368
0.0313377
0.0326078
0.0348264
0.0381233
0.0449354
0.0554981
0.0796139
0.117247
0.203265
0.331733
0.547239
0.837526
0.977816
0.845109
0.669567
0.476865
0.307036
0.206315
0.151897
0.11516
0.0921154
0.0731602
0.0591373
0.0465715
0.0380813
0.0306782
0.0266673
0.023438
0.0219197
0.0207952
0.0202486
0.0198741
0.0196817
0.019585
0.0195577
0.0264923
0.0271182
0.0277557
0.0283814
0.0290954
0.0298691
0.0310141
0.0324709
0.0352508
0.0391362
0.0477151
0.0600638
0.0896607
0.132647
0.234834
0.379299
0.627698
0.954864
1.06581
0.889168
0.694339
0.48992
0.327035
0.226626
0.172502
0.134352
0.109872
0.0881058
0.0710639
0.0546849
0.0436688
0.0333903
0.0281773
0.023663
0.0217915
0.0203151
0.0197181
0.0192918
0.019099
0.0189899
0.0189596
0.0257697
0.026389
0.0270539
0.027687
0.0284935
0.0293353
0.0307665
0.0324577
0.036081
0.0406717
0.0516865
0.0660378
0.102468
0.1509
0.271663
0.431663
0.716402
1.08098
1.15091
0.932455
0.726298
0.5109
0.353761
0.252629
0.199347
0.160042
0.134165
0.109047
0.0882137
0.0666113
0.0523356
0.0378956
0.0310886
0.0246338
0.0222692
0.0202247
0.019547
0.0190303
0.0188454
0.0187395
0.0187274
0.0249154
0.0255275
0.0262584
0.0268993
0.0278794
0.028799
0.0306977
0.0326558
0.0375465
0.0429242
0.0572852
0.0737652
0.118593
0.172252
0.313998
0.4884
0.812832
1.21496
1.23163
0.978254
0.767539
0.541016
0.388507
0.285484
0.233923
0.193861
0.166659
0.137558
0.112177
0.0834311
0.0651628
0.0447374
0.0359526
0.0265671
0.0235589
0.0205904
0.0197945
0.0191092
0.0189373
0.018842
0.0188608
0.0239522
0.0245401
0.025408
0.0260371
0.0273304
0.028308
0.0309659
0.0331761
0.0399678
0.046146
0.0650826
0.0837187
0.138676
0.197041
0.362009
0.549087
0.916091
1.35505
1.30748
1.0304
0.819906
0.581689
0.433318
0.326449
0.27783
0.237505
0.209084
0.175222
0.1448
0.106295
0.0835439
0.0545088
0.0435036
0.0296964
0.0259387
0.0214757
0.0205261
0.0195262
0.0193641
0.0192655
0.0193225
0.022945
0.023454
0.0245776
0.0251299
0.0269619
0.0279173
0.0317873
0.0341555
0.0437765
0.0506971
0.0758269
0.0966322
0.16349
0.225972
0.415899
0.61353
1.02444
1.49659
1.38196
1.09301
0.884489
0.633627
0.49113
0.376448
0.332685
0.292374
0.263108
0.22333
0.188081
0.136212
0.109241
0.0677657
0.0547451
0.0342484
0.0298075
0.0229313
0.0218329
0.0202548
0.0200943
0.0199462
0.020033
0.0220068
0.0223294
0.0238767
0.0242254
0.0269135
0.0277003
0.0334279
0.035809
0.049533
0.0571825
0.0904688
0.113586
0.193938
0.260078
0.476339
0.682326
1.1353
1.62816
1.45928
1.17197
0.962661
0.695639
0.566071
0.435067
0.399957
0.358989
0.330278
0.282637
0.244331
0.173661
0.144441
0.084866
0.0710542
0.0403853
0.0357722
0.0249844
0.0238785
0.0212543
0.0211054
0.0208107
0.0208912
0.0211496
0.0202372
0.0194729
0.0189772
0.0188417
0.019092
0.0197109
0.0206439
0.0218082
0.0231137
0.0244843
0.0258875
0.0273987
0.0295111
0.0340949
0.0529308
0.169469
0.021351
0.020513
0.0197631
0.0192382
0.0190278
0.0191592
0.0196132
0.0203486
0.0213089
0.0224524
0.0237528
0.0252342
0.02703
0.02979
0.0357851
0.0587377
0.182275
0.0217613
0.0208879
0.0201353
0.0196076
0.0193679
0.0194189
0.0197308
0.0202757
0.0210339
0.0220035
0.0232121
0.0247517
0.026861
0.0303935
0.0382374
0.0664881
0.194527
0.0220039
0.021229
0.0205336
0.0200423
0.0198118
0.0198302
0.020058
0.0204641
0.0210536
0.0218752
0.0230199
0.0246488
0.0271154
0.0315313
0.0416317
0.076455
0.20764
0.0224428
0.0216509
0.0209868
0.0205378
0.0203406
0.0203675
0.0205635
0.020889
0.0213636
0.0220829
0.0232027
0.0249588
0.0278364
0.0332519
0.0461819
0.0894519
0.221795
0.0227318
0.0220429
0.0214528
0.0210654
0.0209175
0.0209832
0.0212017
0.0215226
0.0219595
0.0226377
0.0237755
0.0256984
0.0290326
0.0355153
0.0518859
0.105916
0.236894
0.0231733
0.0224887
0.0219479
0.0216162
0.0215187
0.0216369
0.0219186
0.0223074
0.022802
0.0235232
0.0247317
0.0268468
0.0306497
0.0381864
0.0583087
0.125205
0.252112
0.0235064
0.0229158
0.022447
0.0221738
0.0221244
0.0222957
0.0226589
0.0231694
0.0238121
0.0246808
0.0260396
0.0283776
0.0326259
0.0411357
0.0647657
0.14508
0.265956
0.0239425
0.0233735
0.0229576
0.022733
0.0227233
0.0229396
0.023381
0.024031
0.0248816
0.026001
0.0276272
0.0302715
0.0349762
0.0443862
0.0705669
0.162069
0.276848
0.0243101
0.0238246
0.0234695
0.0232877
0.0233081
0.0235575
0.024059
0.0248325
0.0259035
0.0273432
0.0293628
0.0324721
0.0377733
0.0481747
0.0759652
0.173364
0.284341
0.0247469
0.0242955
0.0239864
0.0238382
0.0238759
0.0241442
0.0246815
0.0255413
0.0267951
0.02856
0.0310695
0.0348284
0.0409854
0.0526524
0.082129
0.178664
0.28928
0.0251448
0.0247708
0.0245064
0.0243833
0.0244306
0.0246991
0.0252462
0.0261486
0.027518
0.0295355
0.0325167
0.0370526
0.0443886
0.0577567
0.0887556
0.17935
0.292223
0.0255956
0.0252627
0.0250322
0.0249259
0.0249738
0.0252292
0.025759
0.0266592
0.0280676
0.0302192
0.0335291
0.0387572
0.0473892
0.0628653
0.0956488
0.179376
0.293778
0.0260331
0.0257654
0.025565
0.0254703
0.025512
0.0257436
0.026234
0.0270886
0.0284632
0.030622
0.0340448
0.0396479
0.0492345
0.0666315
0.101724
0.181937
0.294528
0.0265074
0.0262824
0.0261082
0.0260214
0.0260515
0.0262495
0.0266841
0.0274601
0.0287372
0.0307918
0.0341233
0.0397115
0.0495481
0.0679014
0.105001
0.185531
0.294163
0.0270012
0.0268116
0.0266608
0.0265805
0.0265974
0.026757
0.027123
0.0277939
0.0289211
0.0307668
0.0338137
0.039024
0.0484188
0.0665901
0.104406
0.186709
0.292774
0.0275068
0.0273525
0.0272258
0.0271541
0.0271602
0.027283
0.0275782
0.0281327
0.0290815
0.0306586
0.0332972
0.037864
0.0462555
0.062991
0.0994283
0.182239
0.290943
0.0280241
0.0279057
0.0278062
0.0277476
0.0277488
0.0278419
0.0280738
0.0285171
0.0292862
0.0305783
0.0327624
0.0365845
0.0436822
0.0581479
0.091082
0.170416
0.288954
0.028554
0.0284735
0.0284046
0.0283649
0.0283695
0.0284439
0.0286263
0.0289759
0.0295859
0.0306165
0.032368
0.0354531
0.0412414
0.0531901
0.0811983
0.15374
0.286583
0.0290951
0.0290547
0.0290214
0.0290077
0.0290254
0.0290945
0.029245
0.0295243
0.0300072
0.0308221
0.0322072
0.034651
0.0392673
0.0489436
0.0719401
0.13582
0.283621
0.0296463
0.0296494
0.0296564
0.0296764
0.0297177
0.0297952
0.0299326
0.0301665
0.0305569
0.0312059
0.0323023
0.0342339
0.0378964
0.0456947
0.0649438
0.118841
0.279965
0.0302047
0.0302549
0.030308
0.0303697
0.0304454
0.0305458
0.0306884
0.0309016
0.031233
0.0317638
0.032645
0.0341875
0.037116
0.0434327
0.0594797
0.106845
0.275803
0.0307677
0.0308694
0.0309744
0.0310857
0.0312065
0.0313438
0.0315099
0.0317264
0.0320302
0.0324863
0.0332163
0.0344733
0.0368531
0.0420642
0.0558881
0.0999913
0.271633
0.0313308
0.0314884
0.0316513
0.0318205
0.0319972
0.0321852
0.0323926
0.0326351
0.0329411
0.0333618
0.0339955
0.0350503
0.0370294
0.0414332
0.0536592
0.0957119
0.268033
0.0318903
0.0321083
0.0323353
0.0325706
0.0328138
0.0330662
0.0333324
0.0336232
0.0339595
0.0343815
0.0349684
0.0358926
0.0375853
0.0413849
0.0523734
0.0925484
0.265458
0.0324406
0.032724
0.0330217
0.0333319
0.0336526
0.0339831
0.0343253
0.034686
0.0350804
0.035539
0.0361248
0.03698
0.0384723
0.0417934
0.0516852
0.0896008
0.264127
0.0329792
0.0333325
0.0337078
0.0341016
0.0345109
0.0349332
0.0353685
0.0358206
0.0362999
0.0368294
0.0374582
0.038301
0.0396667
0.0426019
0.0514959
0.0873968
0.264068
0.0335016
0.0339301
0.0343902
0.0348774
0.0353872
0.0359156
0.0364613
0.0370259
0.037617
0.0382516
0.0389672
0.039854
0.0411655
0.0438056
0.0518035
0.0858624
0.265161
0.0340065
0.0345155
0.0350682
0.0356588
0.0362817
0.036931
0.0376049
0.0383041
0.0390343
0.0398088
0.0406564
0.0416464
0.0429798
0.0454183
0.0526001
0.084758
0.267177
0.0344922
0.0350874
0.0357412
0.0364466
0.037196
0.0379822
0.0388033
0.0396603
0.0405587
0.0415099
0.0425371
0.0436935
0.0451328
0.0474736
0.0539211
0.08406
0.26985
0.0349591
0.0356469
0.0364114
0.0372437
0.0381342
0.0390743
0.0400632
0.0411034
0.0422017
0.0433701
0.0446293
0.0460211
0.0476607
0.0500278
0.055856
0.0837893
0.27291
0.0354088
0.0361959
0.0370814
0.0380545
0.0391021
0.0402147
0.0413942
0.042646
0.0439802
0.0454117
0.0469623
0.0486681
0.0506156
0.0531606
0.0585382
0.0840952
0.276101
0.0358436
0.0367386
0.037757
0.0388857
0.0401077
0.0414133
0.042809
0.044305
0.0459171
0.0476657
0.0495776
0.0516895
0.0540711
0.056977
0.0621426
0.0852227
0.279196
0.0362703
0.0372809
0.0384449
0.0397456
0.041161
0.0426825
0.0443239
0.0461025
0.0480424
0.0501733
0.0525314
0.0551614
0.0581288
0.0616171
0.0668959
0.0875395
0.282005
0.0366922
0.0378319
0.0391555
0.0406454
0.0422744
0.0440378
0.0459595
0.048067
0.0503957
0.0529893
0.0558995
0.0591874
0.0629296
0.0672736
0.0730954
0.0915729
0.284389
0.0371251
0.0384018
0.0399009
0.0415987
0.0434638
0.0454993
0.0477432
0.050236
0.0530294
0.0561869
0.0597842
0.0639101
0.068671
0.074218
0.0811417
0.0980555
0.28627
0.0375736
0.0390089
0.0406978
0.0426229
0.0447495
0.0470939
0.0497116
0.0526606
0.0560148
0.0598661
0.0643257
0.0695275
0.0756326
0.0828434
0.0916033
0.108019
0.287624
0.0380672
0.0396667
0.0415667
0.043741
0.0461595
0.0488594
0.0519167
0.0554127
0.0594521
0.0641673
0.0697225
0.0763215
0.0842181
0.0937309
0.105325
0.122976
0.288458
0.0386112
0.0404075
0.0425354
0.0449845
0.0477347
0.0508518
0.054435
0.0585975
0.0634878
0.0692965
0.0762664
0.0847094
0.0950307
0.107763
0.123619
0.145191
0.288777
0.039246
0.0412485
0.0436424
0.0464026
0.049542
0.0531603
0.0573857
0.0623772
0.0683462
0.0755689
0.084407
0.095341
0.109022
0.126353
0.148619
0.178249
0.288494
0.0663891
0.0694963
0.0725642
0.0755285
0.0783228
0.0808722
0.0831083
0.0849631
0.0863816
0.0873203
0.0877548
0.0876777
0.0870977
0.0860479
0.0845738
0.0827343
0.0805942
0.0782236
0.0756808
0.072994
0.06991
0.066812
0.0642711
0.0618697
0.05959
0.057433
0.055409
0.0535158
0.0517656
0.0501519
0.0486745
0.0473307
0.0461118
0.0450165
0.0440321
0.0431546
0.0423666
0.0416708
0.0410563
0.0405016
0.0400104
0.0717304
0.0751655
0.078554
0.0818211
0.0848879
0.087671
0.0900897
0.0920688
0.0935458
0.0944747
0.0948298
0.0946066
0.0938218
0.0925174
0.0907507
0.0885928
0.0861206
0.0834134
0.0805396
0.0775316
0.0741258
0.070718
0.0679319
0.0653104
0.0628306
0.0604971
0.0583139
0.0562857
0.0544146
0.0527013
0.0511376
0.0497256
0.0484568
0.0473211
0.0463143
0.0454102
0.0446249
0.0439141
0.043311
0.0427544
0.0422815
0.0773525
0.0811682
0.0849287
0.0885488
0.0919366
0.0949966
0.0976357
0.0997688
0.101326
0.102257
0.102536
0.102162
0.101161
0.0995845
0.0975043
0.0950042
0.0921752
0.0891071
0.0858803
0.0825312
0.0787835
0.0750486
0.0720032
0.0691465
0.0664542
0.0639318
0.0615819
0.05941
0.057416
0.0555974
0.0539485
0.052468
0.0511449
0.0499708
0.0489334
0.0480248
0.0472333
0.0465467
0.0459519
0.0454306
0.0449753
0.0832454
0.0874971
0.0916867
0.0957164
0.0994796
0.102866
0.10577
0.108094
0.109758
0.110709
0.11092
0.110394
0.109167
0.107305
0.104893
0.102029
0.0988211
0.0953707
0.0917687
0.0880601
0.0839512
0.0798745
0.0765555
0.0734491
0.0705331
0.0678098
0.0652847
0.0629601
0.0608357
0.0589069
0.0571698
0.0556168
0.0542375
0.0530207
0.0519579
0.0510391
0.0502514
0.0495794
0.0490095
0.04852
0.0481007
0.089415
0.0941609
0.0988396
0.103339
0.107537
0.111306
0.114524
0.11708
0.118884
0.119877
0.120033
0.11936
0.117905
0.115747
0.112988
0.109745
0.106139
0.102288
0.0982918
0.0942059
0.0897174
0.0852921
0.0816807
0.0783071
0.075151
0.0722156
0.0695049
0.0670194
0.0647563
0.0627118
0.0608796
0.0592492
0.0578102
0.0565526
0.0554655
0.0545361
0.0537502
0.0530917
0.0525443
0.0520895
0.0517113
0.0958937
0.101191
0.106419
0.11145
0.116143
0.120353
0.123938
0.126773
0.128755
0.129819
0.129939
0.129128
0.127447
0.12499
0.121877
0.118242
0.114225
0.109957
0.105553
0.101075
0.0961926
0.0914136
0.0874902
0.0838332
0.0804223
0.0772609
0.0743514
0.0716931
0.0692827
0.0671148
0.0651799
0.0634673
0.0619667
0.0606669
0.059555
0.0586165
0.0578357
0.0571949
0.0566781
0.0562685
0.055944
0.102751
0.108652
0.114487
0.120108
0.125357
0.130065
0.134072
0.137233
0.139435
0.140603
0.140711
0.139781
0.137884
0.135131
0.131663
0.127632
0.123196
0.118503
0.113679
0.108799
0.103517
0.0983759
0.0941251
0.0901694
0.0864891
0.0830873
0.0799656
0.0771227
0.0745543
0.0722524
0.0702066
0.0684067
0.0668413
0.0654975
0.0643609
0.0634158
0.0626453
0.0620321
0.0615611
0.0612154
0.0609685
0.110106
0.116657
0.123146
0.12941
0.135267
0.140527
0.145007
0.148542
0.151005
0.152314
0.152441
0.151414
0.14932
0.146286
0.142471
0.13805
0.133199
0.12808
0.122833
0.117546
0.111862
0.106357
0.101767
0.0974984
0.0935347
0.0898785
0.0865316
0.0834919
0.0807535
0.0783072
0.0761435
0.0742511
0.0726174
0.0712285
0.070069
0.0691226
0.0683725
0.0678037
0.0674
0.0671455
0.0670105
0.11815
0.125381
0.13256
0.139505
0.146011
0.151866
0.156861
0.160812
0.163576
0.165061
0.165241
0.16415
0.161885
0.158595
0.154457
0.149665
0.144412
0.138879
0.133218
0.127528
0.121452
0.115588
0.11065
0.106059
0.1018
0.0978782
0.0942942
0.0910459
0.0881265
0.0855278
0.0832397
0.0812504
0.0795467
0.0781138
0.0769366
0.0759992
0.0752871
0.0747856
0.0744788
0.0743523
0.0743743
0.127166
0.135088
0.142972
0.150615
0.157792
0.164263
0.169799
0.174195
0.17729
0.178986
0.179254
0.178136
0.175741
0.172235
0.167812
0.162685
0.157065
0.151146
0.145095
0.139021
0.132577
0.126369
0.121085
0.116169
0.11161
0.107414
0.103585
0.100119
0.0970121
0.0942553
0.0918387
0.0897507
0.087978
0.0865066
0.0853221
0.0844113
0.0837608
0.0833568
0.0831849
0.0832322
0.0834667
0.137569
0.146167
0.154739
0.163066
0.170899
0.177979
0.184054
0.188899
0.19234
0.194271
0.194662
0.19356
0.191088
0.187422
0.182775
0.177375
0.171446
0.165196
0.158801
0.152385
0.145617
0.139102
0.133488
0.128256
0.123402
0.118936
0.114861
0.111177
0.107882
0.104966
0.102422
0.100238
0.0984032
0.0969045
0.0957304
0.0948699
0.0943112
0.0940421
0.0940506
0.0943262
0.0948371
0.149968
0.159181
0.168379
0.177325
0.185753
0.193385
0.199951
0.205213
0.208985
0.211156
0.211698
0.210662
0.208177
0.204433
0.199652
0.194072
0.187928
0.181436
0.174781
0.168097
0.161085
0.154328
0.148427
0.142913
0.13779
0.133072
0.128768
0.124879
0.121405
0.11834
0.115678
0.113411
0.111528
0.110022
0.108883
0.108103
0.107672
0.107581
0.107822
0.108385
0.109241
0.165261
0.174962
0.184649
0.194072
0.202954
0.211005
0.217947
0.223533
0.227577
0.229964
0.230669
0.229748
0.227335
0.223621
0.218835
0.213216
0.207001
0.20041
0.193631
0.186807
0.179681
0.172798
0.166696
0.160973
0.155643
0.150726
0.146236
0.142179
0.138558
0.135373
0.13262
0.130295
0.128392
0.126908
0.125836
0.125172
0.12491
0.125044
0.125568
0.126477
0.127745
0.184803
0.194748
0.204668
0.214302
0.223373
0.231592
0.238686
0.244414
0.248596
0.251126
0.251982
0.251224
0.248983
0.245447
0.240836
0.235383
0.229316
0.222848
0.216164
0.209411
0.202385
0.195571
0.189428
0.18364
0.178229
0.173224
0.168644
0.164502
0.160807
0.157565
0.154777
0.152445
0.15057
0.14915
0.148187
0.14768
0.147625
0.148023
0.148871
0.150166
0.15189
0.210701
0.220443
0.230126
0.239495
0.248288
0.256235
0.263088
0.268632
0.272709
0.27523
0.276183
0.275626
0.273681
0.270519
0.26634
0.261351
0.25576
0.249758
0.243517
0.237176
0.230599
0.22418
0.218289
0.212701
0.207452
0.202576
0.1981
0.194045
0.190426
0.187256
0.184546
0.182302
0.180531
0.179242
0.178437
0.178123
0.178302
0.178977
0.18015
0.181817
0.183971
0.246374
0.25507
0.263661
0.271917
0.279614
0.286536
0.292483
0.297293
0.300849
0.303089
0.304014
0.303677
0.302179
0.299658
0.296271
0.292185
0.287564
0.282561
0.277316
0.271947
0.266387
0.260918
0.255798
0.2509
0.246269
0.241942
0.237952
0.234325
0.231083
0.228246
0.225831
0.223854
0.222329
0.221267
0.22068
0.220577
0.220967
0.221854
0.223243
0.225129
0.227514
0.29765
0.303665
0.309553
0.315146
0.320307
0.324906
0.328831
0.331995
0.334339
0.335839
0.336504
0.336372
0.335508
0.333992
0.331918
0.329384
0.326485
0.323315
0.319958
0.316488
0.312894
0.309326
0.305907
0.302605
0.299456
0.29649
0.293736
0.29122
0.288964
0.286989
0.285315
0.283958
0.282935
0.282261
0.28195
0.282013
0.282459
0.283294
0.284517
0.286124
0.288128
0.172752
0.0541374
0.0350436
0.0307421
0.0292597
0.0285686
0.0281241
0.0277554
0.0273862
0.0269737
0.026482
0.025877
0.0251371
0.0242462
0.0232264
0.0221381
0.0210738
0.185465
0.0608629
0.0370299
0.0312223
0.0291144
0.0281118
0.0274931
0.0270197
0.026585
0.0261295
0.0256086
0.0249867
0.0242423
0.0233796
0.0224446
0.0215332
0.0207446
0.19725
0.0701096
0.0398407
0.0320561
0.0291449
0.0277383
0.0268927
0.026284
0.025767
0.0252633
0.024715
0.024079
0.0233336
0.0224923
0.0216197
0.020846
0.0203254
0.209488
0.0821945
0.0437101
0.0333278
0.029416
0.0275109
0.0263835
0.0256072
0.0249896
0.0244269
0.0238471
0.0231972
0.022453
0.0216307
0.0207955
0.0200637
0.0195493
0.222111
0.0974942
0.0489125
0.0350744
0.029938
0.0274415
0.0259814
0.0250084
0.0242745
0.0236452
0.0230309
0.0223709
0.0216426
0.0208728
0.0201384
0.0195559
0.0192404
0.235023
0.116523
0.0555272
0.0372143
0.0306694
0.0275191
0.0256961
0.0245106
0.0236523
0.0229537
0.0223051
0.0216379
0.0209348
0.0202269
0.0195868
0.0191287
0.0189845
0.247638
0.13876
0.0630781
0.0394912
0.031508
0.0277031
0.0255225
0.0241289
0.0231519
0.0223921
0.0217199
0.0210593
0.0203947
0.0197557
0.0192012
0.0188326
0.0187876
0.258766
0.161454
0.0702581
0.0415383
0.032316
0.0279398
0.0254468
0.0238745
0.0228049
0.0220072
0.0213283
0.0206845
0.0200641
0.0194918
0.0190053
0.0186901
0.0187129
0.267021
0.179869
0.0752279
0.043085
0.0329981
0.0282014
0.0254752
0.023783
0.022662
0.0218534
0.0211732
0.0205423
0.019953
0.0194284
0.0189981
0.0187256
0.0187704
0.27164
0.188997
0.076367
0.0440942
0.0335838
0.0285318
0.0256738
0.0239294
0.0227957
0.0219687
0.0212649
0.0206209
0.0200374
0.0195386
0.0191562
0.0189515
0.019098
0.273026
0.186295
0.0742697
0.0448869
0.0342884
0.0290964
0.0261704
0.0243992
0.0232275
0.0223276
0.0215584
0.0208733
0.0202812
0.0198033
0.0194626
0.019296
0.0194261
0.272828
0.17495
0.0730159
0.0461461
0.0354807
0.0301055
0.0270638
0.0251841
0.0238705
0.0228366
0.0219666
0.0212329
0.0206394
0.0201935
0.0199065
0.0197844
0.0198746
0.273023
0.163497
0.0759304
0.0487672
0.0374284
0.0316119
0.0282557
0.0261032
0.0245643
0.0233715
0.0224158
0.0216583
0.0210859
0.020687
0.0204582
0.0203924
0.0205675
0.274193
0.159881
0.0813913
0.0526675
0.0399209
0.0332984
0.0294323
0.0269294
0.025168
0.0238607
0.0228724
0.022135
0.0216124
0.0212766
0.0211051
0.0210801
0.0212291
0.275162
0.161976
0.0871724
0.0563859
0.0420891
0.0345973
0.0302542
0.027499
0.0256264
0.024298
0.0233423
0.0226656
0.0222127
0.0219456
0.0218294
0.0218402
0.0219473
0.275152
0.163584
0.0901519
0.0582094
0.0430375
0.0351256
0.0306097
0.0278113
0.0259695
0.0247099
0.0238403
0.0232539
0.0228835
0.0226843
0.0226151
0.022651
0.0227578
0.27483
0.162568
0.0887802
0.0570833
0.0423297
0.0347688
0.0305116
0.0279168
0.0262424
0.0251287
0.0243881
0.0239109
0.0236277
0.0234888
0.0234541
0.0235
0.0235965
0.274627
0.155455
0.0833642
0.0537755
0.0405436
0.0338958
0.030186
0.0279487
0.0265299
0.0256104
0.0250185
0.0246527
0.0244471
0.0243552
0.024341
0.0243852
0.0244574
0.274204
0.142552
0.0755755
0.0496397
0.0384758
0.0329512
0.0298941
0.0280689
0.0269309
0.0262104
0.0257599
0.0254903
0.0253439
0.0252808
0.0252713
0.0253006
0.0253419
0.273136
0.127377
0.0674482
0.0458384
0.0367101
0.0322605
0.0298253
0.0283904
0.027511
0.0269653
0.0266302
0.0264312
0.0263204
0.0262659
0.026244
0.0262433
0.0262489
0.271204
0.113028
0.0610072
0.0429211
0.035521
0.0319819
0.0300733
0.0289661
0.028298
0.0278874
0.0276337
0.0274765
0.0273775
0.0273127
0.0272642
0.0272259
0.0271833
0.268585
0.102219
0.0564487
0.0410569
0.0349862
0.0321563
0.0306603
0.0298065
0.0292948
0.028976
0.0287685
0.0286246
0.0285152
0.0284228
0.0283347
0.0282494
0.0281494
0.265789
0.0963445
0.0534909
0.0400797
0.0350281
0.0327458
0.0315656
0.0308983
0.0304922
0.030225
0.0300317
0.0298756
0.0297355
0.0295993
0.029458
0.029311
0.0291489
0.263419
0.0929786
0.0518385
0.0398479
0.0355711
0.0337107
0.0327673
0.032229
0.031884
0.0316333
0.0314262
0.0312359
0.0310474
0.0308532
0.0306469
0.0304313
0.0301982
0.261945
0.0907678
0.0510861
0.0402275
0.0365637
0.035029
0.0342553
0.0337951
0.0334717
0.033206
0.0329601
0.032715
0.0324611
0.0321946
0.0319117
0.0316202
0.0313014
0.261579
0.0887575
0.0509165
0.0411122
0.0379702
0.036689
0.0360285
0.0356022
0.0352649
0.0349558
0.0346475
0.0343277
0.0339913
0.0336366
0.0332624
0.0328737
0.0324554
0.262335
0.0872834
0.0512451
0.0424651
0.0397829
0.0386953
0.0380979
0.037665
0.0372814
0.0369021
0.0365087
0.0360944
0.0356573
0.035198
0.0347169
0.0342182
0.0337044
0.264088
0.0862875
0.0520829
0.0443021
0.0420208
0.0410688
0.0404863
0.0400081
0.0395464
0.0390699
0.0385678
0.0380377
0.0374804
0.0368987
0.0362941
0.0356773
0.0350435
0.266628
0.0856303
0.053462
0.0466664
0.0447215
0.0438443
0.043228
0.042665
0.0420924
0.0414903
0.0408539
0.040184
0.0394837
0.0387574
0.0380091
0.0372496
0.0364666
0.269719
0.0853387
0.0554635
0.0496258
0.0479393
0.0470702
0.0463675
0.0456778
0.0449588
0.0441997
0.0434
0.0425632
0.0416945
0.0407996
0.0398849
0.038957
0.0380252
0.273128
0.085492
0.0582164
0.0532717
0.0517457
0.0508082
0.049961
0.0490975
0.0481918
0.0472393
0.0462428
0.0452078
0.0441412
0.0430506
0.0419437
0.0408315
0.039723
0.276649
0.0862974
0.0618961
0.0577199
0.0562306
0.0551355
0.0540767
0.0529846
0.0518445
0.050656
0.0494234
0.0481538
0.0468552
0.0455366
0.0442068
0.0428797
0.0415507
0.280112
0.0880611
0.0667235
0.0631149
0.0615075
0.0601486
0.0587973
0.0574102
0.0559783
0.0545027
0.052988
0.0514414
0.0498713
0.0482871
0.0466995
0.0451176
0.0435542
0.283388
0.0912184
0.0729685
0.0696386
0.0677216
0.0659678
0.0642234
0.0624583
0.0606643
0.0588403
0.0569889
0.0551153
0.0532271
0.0513337
0.0494456
0.0475742
0.0457364
0.286397
0.0963604
0.0809698
0.077528
0.0750613
0.0727451
0.0704778
0.0682299
0.0659866
0.0637397
0.0614855
0.0592249
0.0569626
0.0547067
0.0524676
0.0502603
0.0480901
0.289103
0.104273
0.0911705
0.0871028
0.0837749
0.0806743
0.0777138
0.0748486
0.0720465
0.0692838
0.0665452
0.0638235
0.0611186
0.0584363
0.0557873
0.0531841
0.0506431
0.291496
0.11604
0.104182
0.0988066
0.0941946
0.0900062
0.0861252
0.0824664
0.0789632
0.0755653
0.0722388
0.068964
0.0657333
0.0625486
0.0594193
0.0563587
0.0533878
0.29357
0.133215
0.120889
0.113267
0.106772
0.101073
0.0959596
0.0912679
0.0868731
0.0826839
0.0786378
0.0746967
0.0708409
0.0670657
0.0633775
0.0597909
0.0563225
0.295285
0.158072
0.142621
0.13139
0.122139
0.114321
0.107532
0.101473
0.0959276
0.0907423
0.0858116
0.0810677
0.0764717
0.072007
0.0676739
0.063484
0.0594568
0.296519
0.194086
0.171459
0.154534
0.1412
0.130352
0.121237
0.113338
0.106292
0.0998467
0.0938276
0.0881202
0.082654
0.0773922
0.0723226
0.0674507
0.0627921
0.0212776
0.0234233
0.0278195
0.0385742
0.0665951
0.136324
0.301191
0.757459
1.74513
1.2857
0.768876
0.502987
0.437634
0.353174
0.218137
0.105708
0.0480725
0.0275995
0.0224749
0.0218148
0.0210475
0.0234258
0.0289082
0.0431885
0.0802439
0.167484
0.354577
0.848538
1.95159
1.42106
0.879495
0.598416
0.53848
0.44305
0.274464
0.132871
0.0583043
0.0308334
0.023569
0.0224138
0.020952
0.0237087
0.0308386
0.0502779
0.0998109
0.209087
0.4209
0.944797
2.18165
1.66595
1.02871
0.725559
0.668276
0.55342
0.342594
0.166779
0.0716905
0.0351471
0.0249303
0.0230588
0.0210278
0.0244127
0.0341004
0.0610727
0.127485
0.263466
0.503363
1.0458
2.42388
1.95886
1.22085
0.887966
0.831378
0.688498
0.424518
0.208624
0.0891342
0.0409629
0.0266839
0.0237719
0.0213323
0.0257912
0.0394943
0.0773271
0.165854
0.332752
0.605879
1.15739
2.63975
2.41073
1.46782
1.08837
1.02853
0.855188
0.523936
0.260003
0.111827
0.0489021
0.0290357
0.0245956
0.0219771
0.0283071
0.0482956
0.101443
0.217733
0.419255
0.733005
1.28547
2.78788
2.84776
1.81899
1.31878
1.29472
1.06658
0.64694
0.323155
0.141308
0.0598608
0.0323127
0.0256021
0.023175
0.0327714
0.0624613
0.136553
0.286235
0.52776
0.889334
1.43929
2.88384
3.24316
2.21573
1.60464
1.6412
1.3403
0.80114
0.401785
0.179569
0.0751197
0.0370361
0.0269196
0.0253351
0.0405686
0.0849057
0.186541
0.375143
0.667206
1.08363
1.64466
2.97005
3.5198
2.62402
1.93745
2.06884
1.69198
0.995527
0.501332
0.229214
0.0964827
0.0440307
0.0287735
0.0292489
0.0540227
0.119763
0.256129
0.490432
0.849109
1.33773
1.90569
3.10092
3.63354
3.01428
2.31157
2.57175
2.12737
1.24997
0.628931
0.293775
0.12643
0.0545927
0.0315632
0.0364422
0.0769221
0.172524
0.351637
0.642878
1.09048
1.66842
2.22577
3.27858
3.63375
3.26091
2.80441
3.13826
2.64224
1.58154
0.794678
0.378259
0.168285
0.0707339
0.0359992
0.0498144
0.115017
0.250062
0.482052
0.851767
1.41815
2.14904
2.72053
3.57654
3.5656
3.39302
3.43925
3.73572
3.22789
2.00329
1.01711
0.490453
0.226524
0.0955164
0.0433505
0.074687
0.176623
0.362027
0.662144
1.14405
1.892
2.86346
3.60164
4.04931
3.53403
3.46857
3.81969
4.27066
3.86217
2.51816
1.31629
0.640647
0.307148
0.133426
0.0558664
0.120275
0.273767
0.523525
0.914434
1.55455
2.54612
3.8414
4.89917
4.591
3.55341
3.50229
4.03182
4.64255
4.48492
3.1183
1.70746
0.846932
0.419546
0.190911
0.0774849
0.202108
0.425623
0.756104
1.27345
2.11338
3.37368
4.96751
5.90023
5.13848
3.6711
3.55401
4.14745
4.84966
4.96898
3.7912
2.19614
1.13005
0.57792
0.27704
0.114867
0.347494
0.661421
1.09655
1.75661
2.78504
4.26695
5.93377
6.44392
5.62588
3.9879
3.71049
4.25341
4.94552
5.20565
4.46448
2.76919
1.50157
0.803856
0.406562
0.178938
0.603446
1.02923
1.55825
2.30254
3.46246
5.05
6.33211
6.55536
5.97504
4.45806
4.11641
4.50053
4.99609
5.24713
4.9001
3.38536
1.95081
1.1223
0.602856
0.287342
1.05634
1.54857
2.04938
2.81331
4.062
5.40982
6.16027
6.41981
6.1871
5.11718
4.78771
4.95308
5.19365
5.20938
4.90992