/*--------------------------------*- C++ -*----------------------------------*\
  =========                 |
  \\      /  F ield         | OpenFOAM: The Open Source CFD Toolbox
   \\    /   O peration     | Website:  https://openfoam.org
    \\  /    A nd           | Version:  6
     \\/     M anipulation  |
\*---------------------------------------------------------------------------*/
FoamFile
{
    version     2.0;
    format      ascii;
    class       surfaceScalarField;
    location    "1.06";
    object      phi;
}
// * * * * * * * * * * * * * * * * * * * * * * * * * * * * * * * * * * * * * //

dimensions      [1 0 -1 0 0 0 0];

internalField   nonuniform List<scalar> 
11670
(
0.000102793
7.59555e-05
-0.000290509
0.000110682
1.01603e-06
-3.29485e-07
4.47719e-07
-8.51604e-07
0.00011967
2.53211e-05
-0.000204036
5.90778e-05
1.32723e-05
6.70601e-06
-2.11415e-05
4.65604e-07
3.04363e-06
7.80041e-07
3.81871e-07
-4.69949e-06
-9.50075e-08
-8.39997e-08
-3.00463e-09
2.02931e-08
-8.05337e-06
-7.70947e-07
1.3195e-07
8.54213e-06
3.67845e-06
8.54523e-07
-1.95433e-07
-3.68791e-06
-5.78187e-06
2.28408e-06
-2.55684e-06
5.78968e-06
4.56784e-06
-1.87716e-06
2.7042e-06
-4.98805e-06
-1.07037e-05
-3.91144e-06
-6.65744e-07
1.53553e-05
-4.09343e-05
-2.89113e-06
1.48065e-05
2.92678e-05
-1.41968e-07
8.93876e-08
-2.5626e-07
1.23019e-07
-2.17012e-08
-6.09318e-08
1.21455e-07
-2.71919e-07
-7.82373e-06
-5.91941e-05
6.51751e-05
2.16944e-06
3.07713e-08
-5.27043e-08
-1.46445e-07
6.03051e-08
-0.000158631
3.14091e-05
7.5613e-05
5.19249e-05
-0.000130864
2.27624e-06
7.6802e-05
5.20221e-05
4.17495e-09
-8.21094e-08
-2.05452e-07
1.29032e-07
-3.46394e-09
-5.69223e-08
4.78017e-08
-7.04457e-08
7.17756e-05
-0.000233225
0.000214286
-5.25392e-05
-1.1572e-08
-4.6679e-08
4.23042e-08
-4.23633e-08
7.22569e-05
-0.000121867
0.000134585
-8.47699e-05
-4.32826e-05
3.12121e-06
1.85202e-05
2.18489e-05
-7.63359e-08
5.48928e-08
-1.61925e-07
5.98767e-08
1.22649e-07
-1.84688e-07
1.22626e-07
-4.07123e-07
3.46111e-06
-6.44454e-05
2.16588e-05
3.96669e-05
-5.90682e-08
-1.17131e-07
-2.95049e-07
1.93163e-07
-4.63014e-07
-9.49916e-06
-6.88215e-07
1.09251e-05
-2.47874e-07
2.21768e-07
1.9944e-07
-6.3889e-07
8.50834e-08
-1.23801e-06
-4.20687e-07
1.87499e-06
-7.26985e-08
-1.4457e-07
-3.62337e-07
2.40273e-07
-3.02971e-07
2.68255e-07
2.48082e-07
-7.89828e-07
-7.61856e-08
1.43905e-07
5.71102e-07
-2.74476e-07
2.95912e-07
-5.41706e-07
-2.27136e-07
1.10134e-06
1.82895e-07
-2.17904e-07
2.69778e-07
-8.62321e-07
-2.90283e-07
5.6258e-08
-3.88519e-07
2.61286e-07
1.19636e-07
-1.88498e-07
-5.75264e-07
2.63907e-07
2.48932e-07
-7.19239e-08
4.00022e-07
-2.57995e-07
-2.28781e-07
2.92965e-07
-2.99685e-07
9.74472e-07
-1.44655e-07
7.57211e-09
-3.61378e-07
2.26961e-07
-9.0797e-08
1.05411e-07
6.24256e-07
-2.1983e-07
-3.12642e-07
2.06885e-07
2.15693e-07
-7.03362e-07
2.62582e-07
-1.80086e-08
-2.05064e-07
2.80744e-07
-2.57095e-08
-7.23083e-08
1.56885e-07
-3.12061e-07
1.72916e-08
5.12886e-08
3.39412e-07
-1.58781e-07
-2.0134e-07
1.26838e-07
-3.76557e-07
1.58905e-07
2.09408e-07
-1.04675e-07
-1.56609e-07
3.44132e-07
-5.59794e-08
2.81037e-09
-1.40162e-07
8.80282e-08
9.55899e-08
-5.94627e-09
-7.96201e-08
9.82511e-08
-1.22392e-07
8.1771e-08
8.36581e-08
-2.74326e-07
-3.62854e-08
4.34766e-08
2.57323e-07
-8.50179e-08
5.49399e-09
-6.98812e-10
-3.82262e-10
9.25916e-09
3.38105e-09
-4.56894e-09
-2.02853e-08
-4.75633e-10
-5.23904e-12
1.83987e-13
6.45047e-13
4.3224e-12
-1.27049e-07
-3.20452e-08
7.62203e-08
-6.51458e-08
1.07983e-07
2.02654e-08
9.42042e-08
-7.79924e-08
-7.75239e-08
8.26477e-08
-3.13026e-07
1.02392e-07
3.14495e-08
-5.94487e-08
-8.90567e-08
2.55185e-07
-5.69943e-08
-1.12909e-07
-2.79954e-07
1.92668e-07
-8.32112e-06
-6.1995e-07
1.43346e-06
7.75941e-06
-2.44199e-07
2.18121e-07
1.9893e-07
-6.4428e-07
-8.89184e-07
-1.80868e-05
1.59276e-05
3.61049e-06
-1.06027e-07
5.45189e-09
-2.65136e-07
1.66517e-07
-2.38568e-07
1.58506e-07
1.5825e-07
-5.25394e-07
-1.30508e-07
1.15683e-07
5.90882e-07
-1.7147e-07
2.01353e-07
-1.44962e-08
-1.59443e-07
2.01985e-07
-1.68107e-07
1.16456e-08
2.70386e-07
-4.30488e-07
2.01822e-07
-1.47183e-08
-2.32698e-07
4.37415e-07
-2.51384e-07
8.312e-08
1.05108e-06
-2.47197e-07
-1.80079e-07
1.84483e-07
-2.57581e-07
8.71498e-07
2.61825e-07
-5.40916e-08
3.91712e-07
-2.50669e-07
-9.98277e-08
-2.04255e-07
2.52098e-07
-3.32825e-07
-3.13136e-07
3.33382e-07
-9.1325e-07
2.71263e-07
-7.14764e-08
-1.42058e-07
-3.53384e-07
2.3998e-07
-3.02744e-07
2.7045e-07
2.47779e-07
-7.96455e-07
9.89377e-08
-9.35216e-07
3.55968e-07
8.40725e-07
-1.61811e-06
-5.99966e-07
2.63618e-06
1.75199e-07
2.75632e-07
5.26394e-08
2.44823e-07
-2.0065e-07
-2.08816e-07
-1.99856e-08
-2.47479e-07
1.81506e-07
-2.83691e-07
1.91782e-07
2.86286e-07
-7.91782e-07
7.96293e-08
-1.531e-07
-2.29296e-07
6.58887e-07
1.58836e-07
-2.34777e-07
1.30414e-06
-0.000225676
3.79365e-05
0.000307349
-0.000205998
3.8867e-05
0.000269237
2.17639e-06
-2.42339e-06
-7.89918e-06
-4.05405e-07
6.34572e-07
2.50058e-06
-2.08848e-08
-1.13561e-07
-6.46159e-08
-1.65052e-06
1.48774e-06
4.31428e-06
-1.71679e-05
4.08114e-06
2.58136e-05
-1.92699e-06
8.49702e-07
-4.91159e-06
6.96876e-07
-8.2257e-07
5.00001e-06
3.70732e-06
-3.50826e-06
-1.07498e-05
3.53038e-06
-2.10851e-06
-1.03244e-05
8.84807e-06
-4.73328e-07
5.28539e-07
-3.07404e-06
2.99554e-06
1.85707e-10
4.24001e-08
2.77355e-08
-2.88301e-08
-2.11285e-07
-3.35623e-07
1.26028e-06
-5.85366e-07
3.59374e-07
-1.83909e-06
-9.76606e-07
2.61955e-06
-1.35058e-06
1.69668e-05
-8.62138e-06
-6.86587e-06
-4.01354e-07
-7.43361e-07
1.64413e-06
-6.75308e-07
-6.79922e-07
3.23215e-06
9.18093e-07
-3.46235e-06
1.45132e-06
-1.0322e-05
8.33346e-06
5.61065e-08
-1.67722e-07
-2.66619e-07
4.61146e-07
1.13278e-08
1.8376e-07
-9.96744e-08
3.43527e-08
1.44945e-06
-5.75111e-05
2.49147e-05
3.08961e-05
1.43328e-07
1.91127e-07
-1.8374e-07
-3.71014e-07
3.10327e-07
-8.16652e-08
1.42266e-07
-5.52506e-05
2.33841e-05
3.3044e-05
4.0965e-07
-3.29675e-07
5.44161e-08
-2.04423e-06
-4.63294e-07
1.94458e-06
-8.87561e-07
2.68606e-06
-1.28644e-06
-9.17631e-09
6.35598e-08
-1.35455e-08
1.16222e-05
-1.06582e-05
-2.17367e-06
1.09368e-06
-3.01407e-06
1.25583e-06
-7.54305e-07
-2.91475e-07
9.61169e-07
5.2211e-07
-1.43805e-06
-9.34295e-07
2.09371e-06
-4.34517e-07
-9.98336e-07
2.19844e-06
3.12864e-09
-2.41179e-07
6.24184e-09
5.79439e-07
9.24575e-07
5.62369e-09
-5.7944e-07
-4.3356e-06
-0.000110168
-6.01184e-05
0.00017395
-0.000107216
-6.52402e-05
0.00016749
-2.17427e-07
4.16198e-07
-6.38656e-07
4.49027e-07
2.5744e-07
4.19981e-07
-8.85706e-07
-2.59087e-06
6.26388e-06
4.26145e-06
-7.83411e-06
1.74996e-06
3.98548e-06
-8.22595e-06
-1.98165e-06
-1.83128e-06
-3.63055e-06
7.80581e-06
-4.80196e-06
-3.5819e-06
6.76454e-06
9.00167e-07
-1.53752e-06
-1.40595e-06
2.36936e-06
-6.71663e-07
-1.38772e-06
3.28561e-06
-1.33239e-06
-7.11996e-07
-2.17572e-06
3.88164e-06
-3.99333e-06
-2.1568e-06
4.47928e-06
-4.30527e-10
2.0915e-07
7.22663e-10
-1.30285e-07
-5.21734e-08
6.83154e-10
1.30217e-07
-8.59765e-07
4.88949e-06
-1.70488e-06
4.1821e-07
-3.04003e-07
1.35966e-06
2.28574e-06
2.15296e-07
-1.05966e-06
-1.78411e-06
-0.000110342
-0.000333725
0.000108403
0.000336163
1.77303e-06
1.48385e-07
-7.56051e-07
-1.3817e-06
-0.000206068
-0.000253949
0.000132597
0.000328248
-1.13336e-06
2.83629e-07
-2.01527e-07
9.56255e-07
1.11334e-06
7.77659e-08
-4.49577e-07
-8.29181e-07
-4.38023e-07
1.4884e-07
-8.8851e-08
4.16901e-07
-9.88107e-05
-0.000309046
9.22949e-05
0.000315364
-0.000126648
-0.000267766
8.03171e-05
0.000314439
-9.91014e-05
-0.00027746
8.35704e-05
0.000294253
-0.000203147
-0.000306379
0.000130556
0.000380443
-5.24954e-05
6.5031e-05
-0.000170217
0.000157053
-0.000138936
9.44425e-05
-0.000222962
0.000266897
5.47956e-06
-2.10216e-06
7.8046e-07
-4.13197e-06
-3.3758e-06
-6.90918e-07
1.381e-06
2.82305e-06
-1.44413e-05
-0.000163529
5.77265e-05
0.000120013
-7.09054e-06
-1.42424e-06
2.50482e-06
5.7317e-06
6.69819e-06
-2.90773e-06
9.96453e-07
-5.09046e-06
3.39216e-06
2.60941e-07
-1.24276e-06
-2.24613e-06
-5.81177e-05
-0.00017316
7.42573e-05
0.00015583
-3.46782e-05
2.21329e-05
-2.55186e-05
3.76436e-05
-1.70964e-05
5.66248e-06
-6.10668e-07
1.18719e-05
1.45141e-05
-5.39239e-06
2.51843e-06
-1.11729e-05
-1.29323e-05
4.62182e-06
-2.20132e-06
9.81582e-06
-1.47685e-05
-5.60832e-05
2.03582e-05
4.95637e-05
3.39234e-06
-1.12346e-05
-2.35818e-07
8.00832e-06
7.41083e-06
-2.90982e-06
-1.1254e-07
-4.18878e-06
6.40492e-06
-2.15916e-06
9.05589e-07
-4.36883e-06
-5.09074e-06
-8.16595e-07
1.42867e-05
-8.42049e-06
-2.80885e-05
1.19191e-05
-1.92867e-05
3.50024e-05
9.89932e-06
-3.16477e-06
4.25092e-07
-6.83416e-06
-1.07017e-05
-1.95554e-06
4.56789e-06
8.55299e-06
5.34587e-06
-1.26013e-07
-8.50508e-06
2.96209e-06
-1.06982e-05
5.27008e-06
-3.49506e-07
6.05407e-06
-3.10767e-06
-8.00927e-07
1.69151e-06
3.1283e-06
1.60238e-06
-3.82719e-06
8.803e-07
5.62855e-07
-9.6809e-06
1.59399e-06
5.31224e-06
2.5334e-06
-1.14408e-05
3.989e-06
-2.24652e-06
8.87495e-06
9.92028e-06
-4.04262e-06
-1.24081e-06
-4.45258e-06
9.89805e-06
-3.31786e-06
1.53377e-06
-7.43855e-06
-4.5492e-06
3.29864e-07
1.5791e-06
2.32937e-06
6.20127e-06
-1.9556e-06
8.77902e-07
-4.34185e-06
8.08032e-06
6.04971e-06
-2.23078e-05
7.75911e-06
8.95669e-06
-5.12811e-06
-6.74268e-07
-3.31893e-06
-6.03051e-07
-1.87167e-05
4.23349e-06
1.43258e-05
-4.58835e-07
2.69288e-06
-7.56559e-06
5.75247e-06
-2.28015e-06
-1.69567e-07
1.32985e-06
1.5759e-06
-2.33647e-06
5.89195e-07
-4.21588e-07
1.6632e-06
8.91721e-07
1.89039e-07
-5.42186e-07
-8.6472e-07
-7.69896e-06
-1.53496e-06
3.20685e-06
6.77881e-06
6.81031e-06
1.4216e-06
-3.47514e-06
-5.48415e-06
-3.02063e-06
-7.36833e-07
1.57554e-06
3.03478e-06
-2.46154e-06
1.07229e-06
4.7528e-07
6.4753e-07
1.84559e-06
-3.01847e-07
-1.29408e-06
-4.86589e-07
-1.36062e-07
5.97079e-07
-3.45223e-07
-2.45886e-11
-1.17759e-08
3.81056e-08
3.00823e-11
-3.80764e-08
1.17378e-08
-1.63822e-11
1.96465e-11
1.68112e-08
6.36276e-07
-3.76488e-07
1.2286e-06
-2.93179e-07
-4.68924e-06
3.35513e-06
3.77663e-06
1.67829e-07
-1.54184e-06
-2.74865e-06
-1.29361e-11
1.26343e-07
3.66882e-08
4.2753e-11
-3.59018e-11
1.85809e-08
4.9609e-08
6.42831e-11
3.06761e-07
-2.09145e-09
3.29855e-08
-1.69147e-07
8.77685e-07
-2.98681e-07
5.20301e-08
-4.19146e-07
3.3145e-07
-1.09141e-09
-9.43761e-08
-1.85488e-07
-0.00013674
-0.000278945
8.54498e-05
0.000330117
-0.000143165
-0.000307873
0.000108353
0.000341972
2.12026e-09
-3.77043e-08
-1.2894e-07
-2.12349e-10
-8.17695e-12
7.39695e-08
1.50996e-07
-3.05053e-11
-1.152e-10
2.1573e-07
9.65555e-08
7.35584e-11
-2.24296e-07
-8.66923e-08
-4.14147e-10
1.99616e-09
5.12909e-06
-1.49373e-06
5.35771e-07
-3.75324e-06
-4.52066e-06
9.76148e-07
5.51786e-07
2.68853e-06
-4.13431e-07
2.04945e-06
-4.66769e-06
3.45914e-06
1.2131e-05
1.19099e-06
-4.14006e-06
-8.64983e-06
-8.17985e-06
1.42152e-06
4.33352e-06
2.15164e-06
1.82091e-06
-5.55161e-07
-2.01477e-07
-1.01164e-06
-9.6134e-06
-1.71316e-06
3.23594e-06
7.27517e-06
-2.26543e-06
-2.71675e-07
1.03735e-06
1.54208e-06
-4.07324e-06
4.92449e-07
1.4346e-06
1.84933e-06
5.37654e-06
7.77134e-07
-1.63973e-06
-3.76292e-06
3.66597e-09
-1.1891e-07
-2.68701e-07
-2.97634e-10
-5.1716e-10
-3.12408e-07
-1.54504e-07
3.39242e-09
6.13346e-08
-7.44431e-08
2.06434e-07
6.53271e-08
-4.18184e-06
1.83359e-06
-5.53253e-07
3.14176e-06
-4.97968e-07
1.25167e-06
-3.79817e-06
2.90742e-06
4.55765e-06
-1.78724e-06
3.50513e-07
-3.33486e-06
3.95587e-06
8.6407e-07
-1.3568e-06
-3.29157e-06
7.06516e-06
-4.34438e-06
-1.23822e-06
-1.83644e-06
4.2551e-06
-1.14302e-06
-9.8424e-06
7.29621e-06
-1.95125e-06
-3.02954e-07
2.76153e-07
1.2042e-06
5.9334e-06
-2.79528e-06
1.12085e-06
-4.9445e-06
5.0779e-07
-0.000222779
9.0602e-05
0.000132842
2.20358e-06
2.32831e-07
-1.13749e-06
-1.70826e-06
-2.52571e-06
5.5774e-07
-5.10578e-07
2.01809e-06
2.0673e-06
-1.13951e-06
-3.15796e-07
-9.26194e-07
-2.60171e-06
1.38206e-06
-6.30941e-07
2.61974e-06
4.92895e-07
-2.59268e-06
8.9328e-06
-6.39061e-06
-4.26313e-06
-8.24229e-07
1.35837e-06
3.4403e-06
5.059e-06
-2.07386e-06
7.21691e-07
-4.07768e-06
-7.38843e-06
-7.8539e-07
2.31182e-06
5.51865e-06
7.9008e-06
5.21148e-05
-0.000160132
0.000100283
-2.88964e-06
7.0403e-07
7.13451e-06
-5.33125e-06
9.71778e-05
-0.000168835
-0.000136955
0.000208715
-6.92891e-06
-1.01557e-06
5.2432e-06
6.69006e-06
6.69611e-07
-2.07629e-06
-4.67781e-06
-1.14228e-06
3.3743e-06
-9.33972e-06
6.65851e-06
-4.31262e-06
-7.27789e-07
1.20422e-06
3.14968e-06
-2.1417e-06
1.34844e-07
-5.5066e-08
1.35239e-06
-7.1848e-06
2.70581e-06
-3.35553e-07
5.22983e-06
4.40104e-06
-2.02726e-06
-3.64941e-06
-4.8764e-06
2.02789e-06
-4.62829e-07
3.8389e-06
9.06704e-06
-3.68178e-06
8.71407e-07
-6.70291e-06
1.68374e-06
-9.31175e-07
3.93618e-07
-1.66928e-06
1.35057e-06
-1.04497e-07
-6.96456e-07
-8.36417e-06
2.00623e-06
-5.68946e-06
1.14563e-05
1.10452e-05
-4.3561e-06
1.336e-06
-8.38873e-06
1.42266e-06
-2.53545e-07
8.39923e-08
-7.17177e-07
1.38202e-05
-5.60219e-06
2.34385e-06
-1.06929e-05
1.15109e-06
-2.39484e-07
-6.69837e-08
-5.30134e-07
-1.13355e-05
-1.30055e-06
3.80377e-06
8.53547e-06
1.5362e-06
1.17672e-07
-1.74893e-07
-7.81058e-07
8.87997e-05
-7.14915e-05
-3.09261e-05
1.26474e-05
1.34595e-05
-5.39681e-06
2.37491e-06
-1.04247e-05
-1.60432e-05
-2.86398e-06
6.07504e-06
1.27399e-05
6.55672e-06
-1.28885e-06
-1.00967e-06
-4.01678e-06
-8.18694e-05
-1.66022e-05
2.03963e-05
7.78329e-05
-3.90038e-05
-4.12396e-05
5.84589e-06
7.40723e-05
-5.08499e-06
-4.38112e-07
2.64737e-06
3.15031e-06
-9.86816e-05
-7.97057e-05
2.95621e-05
0.00014825
4.589e-06
-1.73913e-06
-3.8854e-07
-2.17059e-06
-1.78163e-06
-6.74964e-07
4.96454e-06
-2.40693e-06
-5.0566e-06
5.57069e-07
2.20011e-06
2.45156e-06
-0.000116784
3.32801e-05
-0.000117628
0.000200707
-5.38604e-05
-0.000128042
2.68244e-05
0.000154675
-2.91641e-07
-1.10189e-07
2.8814e-12
4.61085e-11
-4.4381e-11
-7.74173e-08
-2.64068e-07
9.53914e-11
3.43274e-06
-1.02551e-06
-5.088e-07
-1.73916e-06
-2.56862e-06
2.46172e-07
1.22823e-06
1.30586e-06
-1.56189e-05
-2.8091e-06
6.09077e-06
1.24088e-05
1.20897e-05
-1.46107e-06
-3.92178e-06
-6.79087e-06
-2.27328e-06
-2.35905e-07
1.0562e-06
1.8318e-06
2.40279e-06
-5.00226e-07
4.89718e-07
-2.00149e-06
-4.56747e-06
-5.29198e-07
1.30574e-06
3.46346e-06
-2.02677e-06
5.56935e-07
5.1629e-06
-4.09924e-06
-4.33998e-06
2.084e-06
8.09691e-07
1.14057e-06
-3.00525e-06
4.31922e-07
1.78088e-06
7.50963e-07
-5.78662e-05
-0.000143068
3.88292e-05
0.000162505
1.56261e-06
3.53525e-07
-3.38794e-06
1.64265e-06
8.2514e-07
-1.25408e-07
-1.24777e-07
-5.29112e-07
-4.91104e-07
-1.14393e-06
3.4506e-06
-1.67287e-06
3.6529e-06
-5.43417e-07
-1.53185e-06
-1.61088e-06
2.46332e-06
-4.66241e-07
2.24741e-07
-1.85302e-06
1.98803e-06
-1.19873e-06
-4.30514e-07
-4.96393e-07
-1.57576e-07
1.06389e-06
-2.2526e-06
1.70849e-06
0.000135775
-0.000127185
6.77597e-05
-7.71341e-05
-1.99278e-05
1.77628e-05
-3.0686e-05
3.32798e-05
3.52756e-06
-5.86807e-07
-2.32906e-06
-9.30299e-07
-1.93863e-05
1.52603e-05
-4.4051e-05
4.86394e-05
-1.71186e-07
-2.68225e-07
1.48429e-06
-9.30097e-07
5.08688e-06
-2.51577e-06
5.46354e-07
-3.04777e-06
5.34131e-06
-7.99095e-07
-1.77943e-06
-3.08028e-06
-2.31417e-06
1.12231e-07
1.17867e-06
1.29041e-06
-4.48372e-06
2.03064e-06
5.22745e-07
1.97645e-06
-0.000307068
6.05281e-05
-0.000148872
0.00039401
-1.85534e-06
3.55677e-07
-3.19902e-07
1.42055e-06
-0.000243346
-0.000216138
0.000109476
0.000351069
-0.000273578
9.48437e-05
-6.20058e-05
0.000242252
-0.000237964
-0.000275512
8.42552e-05
0.000428036
-8.25205e-05
2.60721e-05
-3.79834e-05
9.50279e-05
-9.90216e-05
-0.000323754
0.000105799
0.00031539
-5.91254e-07
1.21477e-09
3.60496e-07
2.51948e-07
-0.000269611
-0.000247275
0.000131637
0.000383737
1.59103e-06
1.9154e-07
-7.76236e-07
-1.35745e-06
-3.00112e-05
4.95658e-05
-0.000162548
0.0001438
0.000115631
-0.000136687
7.02691e-05
-4.81917e-05
-0.000115449
8.84063e-05
-0.000206297
0.000234184
-0.000113009
-0.000176595
9.80138e-05
0.000192228
-8.57869e-05
-0.000147695
7.29867e-05
0.000160819
-1.35796e-06
2.19902e-07
-2.25297e-08
8.56668e-07
-2.10135e-06
6.45002e-07
-1.01379e-07
1.34456e-06
9.8114e-06
-1.67879e-06
-2.91958e-06
-5.45949e-06
-0.000121306
4.23927e-05
-5.44059e-05
0.000133267
3.7558e-07
-9.22125e-07
2.07693e-06
-1.93535e-06
-2.79278e-06
3.97379e-07
9.93416e-07
1.96156e-06
-1.91154e-06
-5.08431e-07
9.62488e-07
1.93168e-06
2.82278e-06
-8.0566e-07
-1.1901e-06
-1.58209e-06
-2.36294e-07
-1.62333e-06
1.49882e-06
-8.428e-05
-0.000124186
0.000149892
3.0865e-06
-8.1174e-07
-2.19311e-06
-0.000145059
-3.62843e-05
0.000125084
-8.9933e-06
2.38033e-06
1.32531e-06
4.98953e-06
2.59686e-06
6.48687e-07
-1.36542e-06
-2.58901e-06
-0.000147272
-0.000185441
7.61934e-05
0.000255641
-1.39785e-06
4.5648e-06
-1.25774e-05
9.26566e-06
1.16682e-05
2.0443e-06
-4.54554e-06
-9.01033e-06
-1.22621e-05
1.39995e-05
-4.93578e-05
4.83375e-05
1.24786e-05
-4.63464e-06
6.14525e-07
-8.14239e-06
-7.67378e-06
1.21707e-06
-3.29331e-07
6.08212e-06
9.87462e-06
-4.58143e-06
1.10196e-06
-5.95692e-06
-2.80035e-06
-4.66245e-06
2.48799e-06
4.5341e-06
-3.92371e-06
1.25064e-06
-3.07521e-07
2.74085e-06
3.92378e-06
-1.38715e-06
5.11993e-07
-2.74367e-06
4.88464e-06
1.03901e-06
-1.89389e-06
-4.29033e-06
1.01754e-06
-1.52887e-07
1.54281e-07
-7.38092e-07
-4.89153e-07
-8.20121e-08
2.71999e-07
4.85007e-07
-6.97995e-05
-0.000297255
6.0676e-05
0.000305802
-2.09352e-05
7.73636e-06
-2.2539e-05
3.63128e-05
-0.000193339
-0.000311379
0.000142735
0.000360722
-2.83528e-06
-3.44103e-07
9.19565e-07
1.79475e-06
1.50466e-06
-5.4157e-06
1.38601e-05
-1.00658e-05
4.37138e-06
-2.71982e-06
4.14247e-07
-2.5571e-06
6.57079e-06
7.14323e-07
-2.47251e-06
-5.21171e-06
5.14365e-06
-1.37093e-06
-3.30805e-07
-3.05201e-06
-5.37066e-06
1.84406e-06
-7.18089e-07
3.70021e-06
-3.12205e-05
-1.11605e-05
8.5727e-06
3.40239e-05
5.23919e-06
-2.26898e-06
5.66296e-07
-4.18498e-06
7.54115e-06
-3.32396e-06
1.45186e-06
-6.36961e-06
-5.21824e-06
-1.87712e-06
2.69448e-06
5.19519e-06
1.26456e-05
1.02727e-06
-6.44784e-06
-7.41677e-06
-1.48767e-05
5.38306e-06
-9.83599e-07
1.0742e-05
-1.41702e-06
1.34759e-06
-3.82505e-06
4.52007e-06
-1.35109e-05
5.33428e-06
-2.29929e-06
1.07056e-05
-1.22203e-05
1.65986e-05
-5.26304e-05
4.89243e-05
1.31524e-05
-4.86102e-06
1.1839e-06
-9.67748e-06
-1.29137e-05
6.19739e-06
1.88357e-05
-2.65845e-06
-8.27523e-07
4.14762e-06
-1.0597e-06
-6.28296e-06
2.3121e-06
-8.81184e-07
4.72104e-06
-1.54014e-05
5.51428e-06
-1.42298e-06
1.1273e-05
-5.52128e-05
2.06701e-05
-3.01052e-05
6.46925e-05
-6.16073e-06
-4.57904e-07
3.13644e-06
3.53605e-06
-7.06781e-06
1.34982e-06
4.02195e-06
1.85659e-06
1.20964e-05
-4.71484e-06
2.10066e-06
-9.85484e-06
9.61108e-06
9.08877e-07
-3.63842e-06
-6.56273e-06
3.14344e-06
-8.60056e-07
-9.12186e-06
6.51303e-06
8.75994e-06
-4.49455e-06
1.61313e-06
-5.06477e-06
-9.93969e-07
3.05682e-06
-9.34135e-06
6.55171e-06
-8.55582e-06
-1.46801e-06
3.04877e-06
6.31158e-06
9.74941e-06
6.07457e-07
-4.84374e-06
-5.96968e-06
-1.62392e-05
7.89158e-06
-1.57334e-05
2.43946e-05
3.72655e-06
-1.97845e-07
-7.19533e-07
-2.28321e-06
-8.43669e-06
2.3717e-06
9.04891e-07
5.38962e-06
-1.90989e-06
-1.05786e-07
8.22428e-07
1.48726e-06
2.89608e-06
-7.09282e-07
1.47129e-07
-1.97575e-06
1.60282e-06
2.58e-07
-8.43083e-07
-1.12066e-06
-1.53937e-11
1.7887e-07
8.12257e-08
3.00773e-11
-7.55081e-08
-1.45274e-07
-3.5077e-08
2.49476e-08
-2.09472e-07
2.23878e-06
-3.78036e-06
2.02003e-06
-1.64855e-08
-4.69256e-08
1.32652e-07
5.11566e-12
5.00418e-08
1.0154e-07
1.40235e-11
4.51911e-06
2.91552e-07
-1.30157e-06
-3.33471e-06
5.31119e-08
-6.33282e-08
-2.02556e-07
6.31669e-08
-1.86532e-08
-6.47786e-08
2.2707e-08
-9.2275e-09
1.0809e-10
2.42406e-07
1.08412e-07
3.17921e-11
1.82791e-06
-1.85989e-07
-4.78091e-06
3.36877e-06
-2.89339e-06
1.8722e-06
4.07255e-07
7.24378e-07
-4.11523e-06
1.43371e-06
-5.81738e-07
2.77225e-06
1.71013e-06
-8.66927e-07
2.9139e-08
-1.24195e-06
-2.74907e-06
4.14637e-07
9.92898e-07
1.63093e-06
2.35811e-06
-5.08124e-07
-1.23639e-06
-5.90364e-07
3.76678e-06
-4.85285e-07
-1.04973e-06
-2.5109e-06
-3.00055e-06
3.43234e-07
1.09828e-06
1.46945e-06
-1.71638e-11
9.39084e-08
1.92178e-07
1.44834e-10
-1.92565e-11
8.36397e-08
2.19809e-08
2.47184e-11
-1.42046e-06
-9.81968e-08
2.84664e-07
9.14888e-07
-1.02315e-06
5.79259e-08
5.2395e-07
3.64753e-07
1.19019e-06
-1.51064e-07
-1.67001e-07
-6.69598e-07
9.81834e-07
-3.68793e-08
-3.45996e-07
-5.45512e-07
4.39494e-06
1.19649e-06
-2.29611e-06
-3.92103e-06
-4.81539e-06
1.7325e-06
2.41233e-06
1.17137e-06
-1.17607e-05
3.24903e-06
1.13209e-06
7.57555e-06
-6.22034e-06
9.8667e-07
3.32248e-06
1.59887e-06
8.96382e-06
-3.21705e-06
4.29682e-07
-5.60341e-06
6.58235e-06
4.92848e-06
5.96832e-06
5.42956e-07
1.57127e-06
-2.54804e-06
6.38328e-07
3.01453e-06
-6.14995e-07
-2.89636e-07
-1.74179e-06
-3.67081e-06
-1.86614e-07
1.0148e-06
2.36389e-06
-1.50674e-05
-2.61888e-06
5.2932e-06
1.20206e-05
8.16869e-06
-4.67252e-06
-1.3198e-06
-2.14433e-06
-8.8636e-06
1.65747e-06
4.97709e-06
2.263e-06
1.81511e-06
3.16746e-06
-1.15635e-05
6.34873e-06
1.24594e-05
8.58753e-06
-2.35301e-05
2.69794e-06
-1.42954e-05
1.62785e-07
5.48798e-06
8.49967e-06
4.62291e-06
-9.22935e-07
-2.63427e-06
-1.17237e-06
-7.75327e-06
3.0118e-06
-1.36951e-06
5.58219e-06
-2.49961e-06
1.3684e-06
-5.84235e-07
2.45792e-06
-2.20271e-06
-5.76663e-07
3.84683e-06
-9.62517e-07
-4.81393e-06
1.08278e-06
5.74092e-07
3.01964e-06
7.24427e-06
-4.62819e-06
-3.79014e-06
8.31211e-07
5.59572e-06
-4.24751e-07
-1.0784e-05
6.09557e-06
8.37457e-06
-4.06136e-06
7.0895e-07
-5.17349e-06
9.36934e-06
-5.51145e-06
-1.56815e-06
-2.3924e-06
-5.65919e-06
3.34596e-06
8.81886e-07
1.4375e-06
-9.56414e-06
2.30443e-06
-4.16941e-06
1.09486e-05
6.54608e-06
1.01029e-06
-1.96278e-06
-4.71356e-06
-2.02231e-06
1.04588e-06
-4.29424e-07
2.01002e-06
-3.64831e-05
9.73729e-06
-4.34827e-05
6.93562e-05
1.07187e-05
-1.93473e-06
-6.0024e-06
-2.75853e-06
-1.21682e-05
1.55008e-06
3.59482e-06
6.96404e-06
2.15878e-06
4.20192e-06
-1.15096e-05
4.93576e-06
-5.3303e-06
-3.61521e-07
4.3329e-06
1.22743e-05
-6.51764e-06
1.62763e-08
-5.58324e-06
-1.05483e-05
6.10866e-06
1.84712e-06
2.75938e-06
5.18896e-06
7.71404e-07
-1.41635e-06
-3.7917e-06
-3.73907e-05
7.48184e-06
-3.12804e-05
6.0453e-05
3.20287e-06
3.11746e-06
-3.5538e-05
2.89306e-05
-2.29726e-06
8.3938e-06
-6.38358e-06
9.3051e-06
-1.01782e-06
-2.2932e-06
-5.6166e-06
-3.5945e-05
1.17232e-05
-4.40775e-05
6.80172e-05
8.46467e-07
-4.12994e-06
1.21998e-05
-8.43658e-06
-1.31833e-05
-2.28623e-06
4.83875e-06
1.00317e-05
-1.8789e-06
4.84549e-06
-1.51221e-05
1.17659e-05
1.49583e-05
7.54243e-07
-4.70091e-06
-1.07125e-05
8.07914e-06
8.86233e-07
-2.77242e-06
-5.49994e-06
-1.23968e-05
-1.15082e-06
4.03761e-06
8.98763e-06
-1.13076e-06
2.79911e-07
-4.09519e-05
4.17781e-05
-7.95193e-06
3.49401e-06
7.34452e-07
3.86901e-06
1.11117e-05
-2.65909e-06
-4.30191e-06
-4.20445e-06
-4.16239e-06
-2.84924e-07
1.0495e-06
2.79468e-06
-9.9711e-06
3.23682e-06
-9.07537e-07
8.1516e-06
9.02515e-06
-3.98345e-06
1.73154e-06
-7.35102e-06
1.1684e-05
-4.18436e-06
1.19235e-06
-9.04989e-06
4.45183e-06
-6.11085e-07
-1.27712e-05
9.27251e-06
-1.74216e-06
-5.19968e-06
9.46348e-06
-2.42037e-06
-5.55699e-06
2.05884e-06
-1.108e-06
5.40994e-06
3.68983e-06
-2.75642e-07
-5.975e-07
-2.31023e-06
-3.86626e-06
1.12107e-06
9.62812e-06
-7.45656e-06
-4.31775e-05
1.07346e-05
-3.66024e-05
6.9084e-05
4.80286e-06
-1.48565e-06
-6.07225e-07
-3.23084e-06
-4.63541e-06
2.83313e-06
-4.39454e-07
2.75015e-06
-9.29542e-06
5.5426e-06
1.59627e-06
2.38441e-06
4.13303e-06
-1.063e-05
7.64952e-06
5.30916e-06
-1.46356e-06
-1.35161e-05
9.55872e-06
-4.99479e-06
7.12149e-06
-3.73429e-05
3.57933e-05
1.00158e-05
8.00082e-07
-7.60627e-06
-6.98136e-06
2.67051e-06
-9.20342e-07
4.8292e-06
-1.10245e-05
4.25336e-06
2.41433e-06
4.55766e-06
1.24939e-05
1.32671e-06
-4.68948e-06
-9.32023e-06
-2.80058e-05
3.19998e-06
-3.44547e-05
5.98006e-05
-8.68275e-06
3.22775e-06
-1.1878e-06
6.0053e-06
5.86432e-06
-1.72104e-06
-2.88814e-06
-6.30198e-07
8.66224e-06
-3.40448e-06
-8.84227e-07
-4.19405e-06
-1.96891e-05
4.22246e-06
-7.54593e-06
2.34171e-05
3.89931e-06
7.55363e-07
-1.90684e-06
-3.24201e-06
4.48479e-07
-2.74017e-06
9.03691e-06
-6.36704e-06
-8.34837e-06
-8.99976e-07
2.60824e-06
6.23629e-06
-5.55238e-06
-5.28381e-07
-3.01558e-06
9.84752e-06
4.8501e-06
9.25193e-07
-2.42548e-06
-4.0339e-06
5.16296e-06
-1.88006e-06
-4.8859e-07
-2.49944e-06
7.51737e-06
-4.1419e-06
9.41243e-07
-4.7594e-06
-6.72595e-06
2.21788e-06
8.9856e-07
4.03041e-06
-2.74873e-06
1.01121e-07
8.35637e-07
1.40372e-06
-1.38057e-07
-6.66987e-07
2.53425e-06
-1.40726e-06
3.08524e-06
-4.41868e-07
-8.54385e-06
6.30542e-06
-3.25979e-06
1.09501e-06
8.5868e-06
-6.90322e-06
-3.83838e-06
6.74353e-07
1.86519e-06
9.59938e-07
5.18132e-06
8.66636e-07
-1.64652e-06
-3.74991e-06
5.4628e-06
-1.72996e-06
-5.925e-07
-3.56406e-06
-2.70532e-06
-1.71739e-07
6.46513e-07
1.73102e-06
2.54307e-06
-1.75338e-06
-4.81647e-07
-6.35785e-07
-3.46077e-06
1.66754e-06
-7.29018e-07
3.14838e-06
2.66933e-06
-7.8863e-06
-5.005e-08
3.83868e-07
-1.24017e-06
2.20557e-06
1.30159e-06
-6.6269e-06
1.00684e-06
2.97386e-05
-3.91234e-05
-1.58371e-06
2.15936e-06
-1.82906e-06
9.02922e-06
3.31479e-07
-1.73619e-06
2.0565e-05
-0.000103522
-1.20373e-07
3.20779e-07
-2.1126e-07
1.76276e-06
3.08121e-07
-4.13548e-07
1.22781e-05
-9.978e-05
-3.03777e-07
4.72915e-07
-2.34618e-06
3.60809e-06
-6.0593e-06
1.23781e-06
-6.17491e-08
1.4854e-07
9.30056e-06
6.57618e-06
-2.61635e-05
5.96715e-07
-2.06988e-06
2.93632e-06
-4.11513e-06
0.000238261
-0.000555433
0.000220197
2.03238e-07
-8.74157e-07
-1.27588e-06
4.22226e-07
-4.4867e-07
1.53395e-06
0.00024603
-0.000532222
8.15195e-05
-0.000414237
0.000141168
0.000163317
-0.00035141
0.000104592
0.000120613
1.30655e-07
-5.64044e-07
-8.01151e-07
2.71814e-07
-2.88767e-07
1.01987e-06
-1.29844e-06
6.59403e-07
2.33923e-06
-3.08844e-06
2.49403e-06
-6.79153e-06
9.34435e-05
-0.000259782
0.000151557
-0.000297884
0.000134297
0.000109945
2.09447e-06
-2.54273e-06
5.88321e-06
9.65995e-07
-4.52195e-07
3.07782e-06
2.5522e-07
-1.04604e-06
-2.40631e-06
0.000111358
-0.000283721
3.29505e-05
-0.000372901
8.04992e-05
0.000155529
9.26192e-08
-9.90702e-08
3.94159e-07
-0.000363548
0.000222274
0.000143835
-1.35917e-06
6.11329e-07
-2.47612e-06
4.0446e-07
-2.82853e-07
1.12029e-06
1.14799e-06
-2.84521e-06
-6.05704e-06
-0.000183132
8.3928e-05
0.000107204
-3.20466e-06
3.33268e-06
7.54009e-06
-0.00011959
4.33144e-05
5.97387e-05
1.22933e-06
-4.35015e-06
-8.46217e-06
-0.000385169
0.000145729
0.000140506
4.44747e-08
-1.93747e-07
-2.3851e-07
0.000133321
-0.000271215
7.81094e-05
1.27951e-05
-3.94452e-05
3.38141e-05
-1.2755e-05
4.19612e-06
1.68729e-05
-7.32556e-07
5.40028e-07
1.60226e-06
-1.07586e-06
7.77209e-07
-2.67162e-06
-1.09037e-05
7.34601e-06
-1.04454e-05
4.70738e-06
-3.59517e-06
-1.09837e-05
1.36526e-05
-2.29457e-05
-8.55248e-06
-2.76535e-07
2.28777e-07
5.49209e-07
-1.91494e-05
9.07415e-06
1.45956e-05
-5.994e-06
5.97166e-06
1.49803e-05
2.48229e-06
-3.31106e-06
8.25946e-06
1.46217e-07
7.16908e-08
1.92919e-11
-1.31045e-07
-1.31955e-07
2.29303e-08
6.08106e-08
1.35465e-07
2.52957e-11
2.73609e-07
2.09602e-07
-5.38984e-09
-6.47226e-06
6.37536e-06
-1.58402e-05
-5.7886e-06
4.90262e-06
-1.15749e-05
-0.000493402
0.000139388
0.000152865
-4.77246e-06
3.88636e-06
1.16817e-05
-3.49932e-05
9.94365e-06
2.29958e-05
-2.56714e-07
-2.5416e-07
5.34221e-08
2.85541e-07
3.75777e-07
5.47742e-09
-4.96226e-06
8.20307e-06
-1.36786e-05
-8.10605e-06
4.25851e-06
1.4515e-05
2.42855e-06
-1.65303e-06
-6.1401e-06
1.27704e-06
-2.56288e-06
-5.61648e-06
2.44463e-06
-1.05666e-06
5.5405e-06
1.93707e-06
-3.35403e-06
7.18979e-06
2.15679e-06
-1.21119e-06
5.42884e-06
-3.34647e-07
6.11644e-07
1.72843e-06
1.60321e-06
-1.14246e-06
3.66796e-06
-0.000358198
0.000100164
0.000187615
-9.6979e-08
1.01101e-07
-2.76042e-07
-1.74414e-06
5.75709e-07
-3.34877e-06
-6.26964e-06
6.34249e-06
-1.53501e-05
-8.48545e-06
5.23926e-06
1.50062e-05
-1.0247e-06
2.25074e-06
-5.03675e-06
-9.26544e-07
1.3539e-06
3.85585e-06
-2.82755e-07
-1.27912e-07
3.97971e-10
-2.40235e-05
5.97874e-06
8.27231e-06
-1.926e-06
6.26174e-07
-3.63559e-06
-2.62857e-06
2.45469e-06
6.5945e-06
-3.86567e-06
3.51275e-06
-1.01979e-05
5.04498e-06
-4.76942e-06
1.26132e-05
3.24356e-06
-3.81215e-06
8.76626e-06
-2.68395e-06
1.93384e-06
5.56588e-06
-1.81681e-06
2.2877e-06
5.72532e-06
-1.75458e-06
2.09916e-06
-5.35962e-06
2.55262e-06
-2.88612e-06
-7.58156e-06
5.57419e-06
-5.21398e-06
-1.33401e-05
3.94236e-06
-3.18823e-06
1.20216e-05
-2.03061e-06
9.44041e-07
-3.89307e-06
-8.99397e-07
1.58651e-06
3.1144e-06
-1.29688e-06
1.10595e-06
-3.92808e-06
8.85977e-07
-9.05063e-07
-1.74257e-06
-4.8441e-06
1.38619e-06
3.76407e-06
7.69459e-07
-9.61361e-07
-1.79105e-06
-2.68067e-06
3.55002e-06
-8.80639e-06
6.494e-07
-3.93322e-07
1.82626e-06
5.48056e-05
-7.85588e-05
-1.17739e-05
-7.15238e-07
3.41326e-07
-1.28801e-06
1.87094e-06
-1.00301e-06
4.79881e-06
-2.08844e-06
2.02042e-06
-5.08789e-06
-1.50293e-07
-3.05804e-07
2.68919e-11
-4.84948e-07
4.82715e-07
1.03837e-06
-1.02147e-06
1.50364e-06
4.17425e-06
-0.000321994
6.5664e-05
0.000201578
-3.85157e-05
1.42324e-05
-4.205e-06
-0.000235619
8.65751e-05
0.000108864
-1.36465e-06
5.28944e-07
2.34736e-06
-0.000261786
8.49106e-05
7.68846e-05
-1.37465e-06
6.52147e-07
1.49841e-06
5.71639e-07
-7.38504e-07
-1.503e-06
-8.75172e-07
1.19144e-06
-1.75495e-06
-0.00040063
0.000126612
0.000130138
-4.64339e-08
1.98199e-07
3.51509e-07
-0.00016443
6.4731e-05
1.69843e-05
1.50058e-06
-7.38236e-07
-2.76115e-06
1.28257e-06
-1.54483e-06
4.07874e-06
0.000103131
-0.000224289
3.54591e-05
4.84252e-07
-5.04489e-07
-1.81086e-06
0.000247365
-0.000563925
0.00021495
5.63113e-07
-6.13132e-07
-1.79701e-06
-0.000161785
7.20382e-05
7.12819e-05
-0.000216537
8.40562e-05
0.000103181
2.87235e-06
-1.21006e-06
-4.79592e-06
-1.52454e-06
1.19356e-06
3.21823e-06
-0.000218435
0.000237639
0.000115315
-0.000469184
6.25653e-05
0.00016723
-0.000325917
9.76726e-05
0.000114167
3.55625e-07
-1.59676e-07
-7.73919e-07
1.58724e-06
-2.41778e-06
4.34848e-06
-2.37296e-06
1.72406e-06
5.8867e-06
-1.41899e-06
2.95825e-06
-5.87222e-06
-0.000244636
0.000103913
5.54109e-05
-0.000430707
0.00011986
6.93483e-05
3.57329e-07
-1.92772e-07
6.75241e-07
-0.00019865
6.90371e-05
7.21637e-05
4.25625e-07
-5.00655e-07
1.20944e-06
-9.32051e-07
5.54421e-07
-2.12554e-06
-8.16909e-07
8.65374e-07
1.61804e-06