/*--------------------------------*- C++ -*----------------------------------*\
  =========                 |
  \\      /  F ield         | OpenFOAM: The Open Source CFD Toolbox
   \\    /   O peration     | Website:  https://openfoam.org
    \\  /    A nd           | Version:  6
     \\/     M anipulation  |
\*---------------------------------------------------------------------------*/
FoamFile
{
    version     2.0;
    format      ascii;
    class       volScalarField;
    location    "2.09";
    object      p;
}
// * * * * * * * * * * * * * * * * * * * * * * * * * * * * * * * * * * * * * //

dimensions      [1 -1 -2 0 0 0 0];

internalField   nonuniform List<scalar> 
5625
(
1.01031
0.987436
0.95879
0.924635
0.885676
0.843134
0.798706
0.754393
0.712341
0.674667
0.643219
0.619255
0.603361
0.595723
0.596417
0.605445
0.622652
0.647667
0.679858
0.718151
0.760817
0.805526
0.849813
0.891642
0.929673
0.963104
0.991334
1.01379
1.03002
1.03998
1.04416
1.04363
1.03978
1.03406
1.02769
1.02157
1.01619
1.01178
1.00834
1.00578
1.00393
1.00264
1.00176
1.00116
1.00077
1.00052
1.00035
1.00024
1.00017
1.00012
1.00008
1.00006
1.00004
1.00003
1.00002
1.00001
1.00001
1.00001
1
1
1
1
1
1
1
1
1
1
1
1
1
1
1
1
1
1.01812
0.99842
0.973493
0.943579
0.909263
0.871572
0.831974
0.792245
0.754346
0.720226
0.691567
0.669542
0.654795
0.647648
0.648262
0.656648
0.672603
0.695674
0.72513
0.759852
0.798185
0.838027
0.877258
0.914186
0.947707
0.977102
1.00174
1.02102
1.0345
1.04218
1.04461
1.04289
1.03837
1.03239
1.02605
1.02012
1.01501
1.01087
1.00768
1.00531
1.00362
1.00243
1.00163
1.00109
1.00073
1.00049
1.00034
1.00023
1.00016
1.00012
1.00008
1.00006
1.00004
1.00003
1.00002
1.00001
1.00001
1.00001
1
1
1
1
1
1
1
1
1
1
1
1
1
1
1
1
1
1.02538
1.0088
0.98753
0.961788
0.932083
0.899278
0.864609
0.829629
0.796078
0.765684
0.73995
0.719983
0.706492
0.699899
0.700411
0.708034
0.72253
0.743401
0.769868
0.80081
0.834674
0.86961
0.903834
0.935965
0.965082
0.990509
1.01159
1.0277
1.03842
1.04384
1.04459
1.04176
1.03666
1.0305
1.02427
1.01859
1.01378
1.00993
1.007
1.00484
1.0033
1.00222
1.0015
1.00101
1.00068
1.00047
1.00032
1.00023
1.00016
1.00011
1.00008
1.00006
1.00004
1.00003
1.00002
1.00001
1.00001
1.00001
1
1
1
1
1
1
1
1
1
1
1
1
1
1
1
1
1
1.03188
1.01833
1.00056
0.978824
0.953572
0.925522
0.895717
0.865483
0.836309
0.809689
0.786952
0.769153
0.757034
0.751057
0.751458
0.758235
0.771131
0.78963
0.812956
0.840033
0.869439
0.899573
0.928969
0.956512
0.981412
1.003
1.0206
1.03358
1.04161
1.04486
1.04403
1.04022
1.03465
1.02843
1.02238
1.01699
1.01252
1.00899
1.00631
1.00436
1.00298
1.00202
1.00136
1.00092
1.00063
1.00044
1.00031
1.00022
1.00016
1.00011
1.00008
1.00006
1.00004
1.00003
1.00002
1.00001
1.00001
1.00001
1
1
1
1
1
1
1
1
1
1
1
1
1
1
1
1
1
1.03743
1.02677
1.01231
0.994344
0.973272
0.94972
0.924565
0.8989
0.873974
0.851059
0.831333
0.81578
0.805114
0.7998
0.800086
0.80598
0.817217
0.833278
0.853433
0.87669
0.901784
0.927355
0.952211
0.975451
0.996372
1.0143
1.02853
1.03847
1.04391
1.04512
1.04288
1.03826
1.03238
1.0262
1.0204
1.01537
1.01125
1.00805
1.00564
1.00389
1.00266
1.00181
1.00123
1.00084
1.00058
1.00041
1.00029
1.00021
1.00015
1.00011
1.00008
1.00006
1.00004
1.00003
1.00002
1.00001
1.00001
1.00001
1
1
1
1
1
1
1
1
1
1
1
1
1
1
1
1
1
1.04187
1.03393
1.02259
1.0081
0.990881
0.971473
0.950616
0.929213
0.908294
0.888932
0.872153
0.85884
0.849642
0.845011
0.845201
0.850221
0.859808
0.873477
0.890556
0.910161
0.9312
0.952541
0.973221
0.99249
1.00969
1.02414
1.03515
1.04221
1.04522
1.0446
1.04115
1.03591
1.02988
1.02386
1.01839
1.01374
1.01001
1.00713
1.00499
1.00344
1.00236
1.00161
1.00111
1.00076
1.00053
1.00038
1.00027
1.0002
1.00014
1.0001
1.00007
1.00005
1.00004
1.00003
1.00002
1.00001
1.00001
1.00001
1
1
1
1
1
1
1
1
1
1
1
1
1
1
1
1
1
1.04508
1.03969
1.03121
1.01993
1.00621
0.990546
0.973575
0.956046
0.938808
0.922758
0.908769
0.8976
0.889834
0.885891
0.88601
0.890196
0.898206
0.90961
0.923816
0.940042
0.957365
0.974865
0.991764
1.00741
1.02115
1.03232
1.04028
1.04464
1.04547
1.04326
1.03887
1.03322
1.0272
1.02145
1.01637
1.01214
1.00879
1.00624
1.00436
1.00302
1.00207
1.00142
1.00098
1.00069
1.00049
1.00035
1.00025
1.00018
1.00013
1.0001
1.00007
1.00005
1.00004
1.00003
1.00002
1.00001
1.00001
1.00001
1
1
1
1
1
1
1
1
1
1
1
1
1
1
1
1
1
1.04697
1.04392
1.03809
1.02971
1.01914
1.00683
0.993325
0.979253
0.965323
0.952276
0.940838
0.931654
0.925238
0.921963
0.922039
0.92546
0.932017
0.941346
0.952937
0.966118
0.980115
0.994186
1.00769
1.02003
1.03058
1.03867
1.04379
1.04572
1.04465
1.04117
1.0361
1.03027
1.02441
1.01903
1.01439
1.0106
1.00764
1.00541
1.00378
1.00261
1.0018
1.00125
1.00087
1.00061
1.00044
1.00032
1.00023
1.00017
1.00012
1.00009
1.00007
1.00005
1.00003
1.00002
1.00002
1.00001
1.00001
1
1
1
1
1
1
1
1
1
1
1
1
1
1
1
1
1
1
1.04749
1.04655
1.04312
1.03739
1.02965
1.02032
1.00987
0.998842
0.987826
0.977441
0.968286
0.960893
0.955706
0.953053
0.953103
0.95584
0.961098
0.968582
0.977854
0.988342
0.999406
1.01045
1.02091
1.03023
1.03782
1.04309
1.04565
1.04545
1.04283
1.03841
1.03294
1.02715
1.02159
1.01665
1.01248
1.00914
1.00656
1.00463
1.00323
1.00224
1.00156
1.00108
1.00076
1.00054
1.00039
1.00029
1.00021
1.00016
1.00012
1.00009
1.00006
1.00004
1.00003
1.00002
1.00002
1.00001
1.00001
1
1
1
1
1
1
1
1
1
1
1
1
1
1
1
1
1
1
1.04667
1.04757
1.04629
1.04292
1.03772
1.03103
1.02327
1.01491
1.00644
0.998374
0.991214
0.985401
0.98131
0.979217
0.979252
0.981395
0.985521
0.991395
0.998637
1.00677
1.01526
1.02361
1.03134
1.03792
1.0428
1.04552
1.04586
1.04393
1.04014
1.03512
1.02953
1.02395
1.01881
1.01436
1.01069
1.00778
1.00556
1.00392
1.00274
1.00191
1.00133
1.00093
1.00066
1.00048
1.00035
1.00026
1.00019
1.00014
1.00011
1.00008
1.00006
1.00004
1.00003
1.00002
1.00001
1.00001
1.00001
1
1
1
1
1
1
1
1
1
1
1
1
1
1
1
1
1
1
1.04458
1.047
1.04758
1.04631
1.04336
1.03901
1.03362
1.02758
1.02132
1.01527
1.00985
1.00541
1.00227
1.00066
1.00067
1.00231
1.00547
1.00995
1.01543
1.02149
1.02772
1.03369
1.03896
1.04305
1.0455
1.04602
1.04454
1.0413
1.03675
1.03146
1.02599
1.02078
1.01614
1.01221
1.00902
1.00654
1.00466
1.00328
1.0023
1.00161
1.00113
1.0008
1.00057
1.00042
1.00031
1.00023
1.00017
1.00013
1.0001
1.00007
1.00005
1.00004
1.00003
1.00002
1.00001
1.00001
1.00001
1
1
1
1
1
1
1
1
1
1
1
1
1
1
1
1
1
1
1.04141
1.04498
1.04707
1.04759
1.04661
1.04432
1.041
1.037
1.03266
1.02836
1.02442
1.02117
1.01885
1.01765
1.01765
1.01885
1.02118
1.02445
1.02838
1.03263
1.03687
1.04071
1.04378
1.04567
1.04605
1.04478
1.04193
1.03781
1.03287
1.02761
1.02246
1.01774
1.01363
1.01023
1.00752
1.00542
1.00386
1.00272
1.00191
1.00134
1.00095
1.00068
1.00049
1.00036
1.00027
1.0002
1.00015
1.00012
1.00009
1.00006
1.00005
1.00003
1.00002
1.00002
1.00001
1.00001
1.00001
1
1
1
1
1
1
1
1
1
1
1
1
1
1
1
1
1
1
1.03741
1.04172
1.04495
1.0469
1.04757
1.04704
1.04553
1.04329
1.04063
1.03782
1.03517
1.03294
1.03132
1.03047
1.03045
1.03127
1.03287
1.03506
1.03763
1.0403
1.04278
1.04476
1.04592
1.04595
1.04467
1.04206
1.03831
1.03373
1.02875
1.02375
1.01906
1.01488
1.01134
1.00845
1.00617
1.00444
1.00315
1.00222
1.00157
1.00111
1.00079
1.00057
1.00042
1.00031
1.00024
1.00018
1.00014
1.0001
1.00008
1.00006
1.00004
1.00003
1.00002
1.00002
1.00001
1.00001
1
1
1
1
1
1
1
1
1
1
1
1
1
1
1
1
1
1
1
1.03289
1.03754
1.04148
1.04448
1.04643
1.04735
1.04735
1.04661
1.04537
1.04386
1.04232
1.04095
1.03992
1.03935
1.03931
1.0398
1.04074
1.042
1.04338
1.04467
1.04564
1.04604
1.04562
1.0442
1.04171
1.03825
1.03402
1.02936
1.0246
1.02003
1.01588
1.01228
1.00928
1.00687
1.005
1.00358
1.00254
1.0018
1.00127
1.00091
1.00065
1.00048
1.00036
1.00027
1.00021
1.00016
1.00012
1.00009
1.00007
1.00005
1.00004
1.00003
1.00002
1.00001
1.00001
1.00001
1
1
1
1
1
1
1
1
1
1
1
1
1
1
1
1
1
1
1
1.02818
1.03281
1.03706
1.04069
1.04353
1.04553
1.04672
1.04721
1.04714
1.04671
1.04609
1.04544
1.0449
1.04457
1.0445
1.04468
1.04505
1.0455
1.04588
1.04602
1.04576
1.0449
1.04329
1.04086
1.03762
1.03373
1.02942
1.02495
1.0206
1.01657
1.013
1.00996
1.00747
1.0055
1.00399
1.00285
1.00203
1.00144
1.00102
1.00074
1.00054
1.0004
1.0003
1.00023
1.00018
1.00014
1.00011
1.00008
1.00006
1.00005
1.00003
1.00002
1.00002
1.00001
1.00001
1.00001
1
1
1
1
1
1
1
1
1
1
1
1
1
1
1
1
1
1
1
1.02358
1.02792
1.03213
1.03599
1.03933
1.04202
1.04404
1.04543
1.04628
1.04669
1.04681
1.04674
1.0466
1.04646
1.04635
1.04627
1.04616
1.04595
1.04553
1.04479
1.04359
1.04184
1.03944
1.03642
1.03286
1.02892
1.0248
1.02073
1.0169
1.01344
1.01045
1.00794
1.00592
1.00434
1.00313
1.00224
1.00159
1.00113
1.00081
1.00059
1.00044
1.00033
1.00025
1.00019
1.00015
1.00012
1.00009
1.00007
1.00005
1.00004
1.00003
1.00002
1.00002
1.00001
1.00001
1
1
1
1
1
1
1
1
1
1
1
1
1
1
1
1
1
1
1
1
1.0193
1.02318
1.02709
1.03086
1.03432
1.03734
1.03985
1.04182
1.04329
1.04431
1.04497
1.04533
1.04549
1.04548
1.04534
1.04505
1.04458
1.04388
1.04289
1.04153
1.03973
1.03744
1.03465
1.03142
1.02787
1.02414
1.02041
1.01685
1.01359
1.0107
1.00825
1.00623
1.00462
1.00337
1.00243
1.00173
1.00124
1.00089
1.00064
1.00047
1.00035
1.00027
1.00021
1.00016
1.00013
1.0001
1.00008
1.00006
1.00005
1.00003
1.00003
1.00002
1.00001
1.00001
1.00001
1
1
1
1
1
1
1
1
1
1
1
1
1
1
1
1
1
1
1
1
1.01549
1.01881
1.02228
1.02573
1.02904
1.03207
1.03474
1.03699
1.0388
1.04019
1.04119
1.04184
1.04219
1.04228
1.04211
1.04168
1.04097
1.03997
1.03863
1.03692
1.03482
1.03231
1.02945
1.02631
1.023
1.01966
1.01642
1.01341
1.01071
1.00836
1.0064
1.0048
1.00354
1.00257
1.00185
1.00132
1.00094
1.00068
1.0005
1.00037
1.00028
1.00022
1.00017
1.00014
1.00011
1.00009
1.00007
1.00005
1.00004
1.00003
1.00002
1.00002
1.00001
1.00001
1.00001
1
1
1
1
1
1
1
1
1
1
1
1
1
1
1
1
1
1
1
1
1.01222
1.01497
1.01791
1.02092
1.0239
1.02672
1.0293
1.03157
1.03348
1.03502
1.03618
1.03699
1.03745
1.03758
1.0374
1.0369
1.03608
1.03493
1.03345
1.03162
1.02946
1.027
1.02429
1.02142
1.0185
1.01564
1.01293
1.01045
1.00827
1.00641
1.00487
1.00363
1.00266
1.00192
1.00138
1.00099
1.00071
1.00052
1.00038
1.00029
1.00023
1.00018
1.00014
1.00011
1.00009
1.00007
1.00006
1.00004
1.00003
1.00002
1.00002
1.00001
1.00001
1.00001
1
1
1
1
1
1
1
1
1
1
1
1
1
1
1
1
1
1
1
1
1
1.00948
1.0117
1.01411
1.01664
1.01919
1.02167
1.024
1.02611
1.02794
1.02946
1.03064
1.03147
1.03197
1.03212
1.03194
1.03143
1.03059
1.02943
1.02796
1.02619
1.02416
1.0219
1.01949
1.017
1.01453
1.01216
1.00996
1.00798
1.00626
1.00481
1.00363
1.00269
1.00196
1.00141
1.00101
1.00073
1.00053
1.00039
1.00029
1.00023
1.00018
1.00014
1.00011
1.00009
1.00007
1.00006
1.00005
1.00004
1.00003
1.00002
1.00002
1.00001
1.00001
1.00001
1
1
1
1
1
1
1
1
1
1
1
1
1
1
1
1
1
1
1
1
1
1.00725
1.009
1.01093
1.01297
1.01508
1.01716
1.01916
1.021
1.02264
1.02402
1.02512
1.0259
1.02637
1.02653
1.02636
1.02587
1.02508
1.024
1.02265
1.02105
1.01925
1.01729
1.01524
1.01317
1.01116
1.00925
1.00751
1.00597
1.00464
1.00354
1.00265
1.00195
1.00141
1.00102
1.00073
1.00052
1.00038
1.00029
1.00022
1.00017
1.00014
1.00011
1.00009
1.00008
1.00006
1.00005
1.00004
1.00003
1.00002
1.00002
1.00001
1.00001
1.00001
1
1
1
1
1
1
1
1
1
1
1
1
1
1
1
1
1
1
1
1
1
1
1.00547
1.00683
1.00833
1.00994
1.01162
1.01331
1.01495
1.01649
1.01788
1.01906
1.02001
1.0207
1.02112
1.02125
1.0211
1.02067
1.01997
1.01902
1.01784
1.01647
1.01494
1.01331
1.01164
1.00997
1.00837
1.00688
1.00554
1.00436
1.00336
1.00254
1.00189
1.00138
1.00099
1.00071
1.00051
1.00037
1.00027
1.00021
1.00016
1.00013
1.00011
1.00009
1.00007
1.00006
1.00005
1.00004
1.00003
1.00002
1.00002
1.00001
1.00001
1.00001
1.00001
1
1
1
1
1
1
1
1
1
1
1
1
1
1
1
1
1
1
1
1
1
1
1.00409
1.00511
1.00626
1.0075
1.00881
1.01013
1.01144
1.01267
1.01379
1.01476
1.01555
1.01612
1.01647
1.01657
1.01644
1.01607
1.01547
1.01467
1.01369
1.01255
1.01131
1.01001
1.00868
1.00737
1.00614
1.005
1.00399
1.00311
1.00238
1.00178
1.00131
1.00094
1.00068
1.00048
1.00035
1.00025
1.00019
1.00015
1.00012
1.0001
1.00008
1.00007
1.00006
1.00005
1.00004
1.00003
1.00003
1.00002
1.00002
1.00001
1.00001
1.00001
1
1
1
1
1
1
1
1
1
1
1
1
1
1
1
1
1
1
1
1
1
1
1
1.00302
1.00379
1.00465
1.00558
1.00658
1.00759
1.0086
1.00956
1.01043
1.0112
1.01182
1.01227
1.01254
1.01262
1.0125
1.01219
1.0117
1.01105
1.01025
1.00935
1.00837
1.00735
1.00632
1.00533
1.00439
1.00354
1.0028
1.00216
1.00163
1.00121
1.00088
1.00063
1.00044
1.00031
1.00022
1.00017
1.00013
1.0001
1.00008
1.00007
1.00006
1.00005
1.00005
1.00004
1.00003
1.00003
1.00002
1.00002
1.00001
1.00001
1.00001
1
1
1
1
1
1
1
1
1
1
1
1
1
1
1
1
1
1
1
1
1
1
1
1
1.00222
1.00278
1.00342
1.00411
1.00485
1.00561
1.00636
1.00709
1.00775
1.00833
1.0088
1.00914
1.00935
1.0094
1.00929
1.00903
1.00864
1.00812
1.0075
1.0068
1.00604
1.00526
1.00449
1.00375
1.00306
1.00244
1.00191
1.00145
1.00108
1.00078
1.00056
1.00039
1.00027
1.00019
1.00014
1.0001
1.00008
1.00007
1.00006
1.00005
1.00005
1.00004
1.00003
1.00003
1.00003
1.00002
1.00002
1.00001
1.00001
1.00001
1.00001
1
1
1
1
1
1
1
1
1
1
1
1
1
1
1
1
1
1
1
1
1
1
1
1
1.00162
1.00203
1.00249
1.003
1.00354
1.00409
1.00465
1.00518
1.00567
1.00609
1.00644
1.00669
1.00683
1.00685
1.00676
1.00656
1.00624
1.00584
1.00536
1.00483
1.00426
1.00368
1.00311
1.00257
1.00207
1.00163
1.00125
1.00094
1.00068
1.00048
1.00034
1.00023
1.00016
1.00011
1.00008
1.00006
1.00005
1.00004
1.00004
1.00004
1.00003
1.00003
1.00003
1.00002
1.00002
1.00002
1.00001
1.00001
1.00001
1.00001
1
1
1
1
1
1
1
1
1
1
1
1
1
1
1
1
1
1
1
1
1
1
1
1
1
1.00118
1.00148
1.00181
1.00217
1.00256
1.00295
1.00335
1.00374
1.00408
1.00439
1.00463
1.00481
1.0049
1.0049
1.00482
1.00465
1.00441
1.0041
1.00374
1.00334
1.00292
1.0025
1.00209
1.0017
1.00135
1.00104
1.00078
1.00057
1.0004
1.00027
1.00018
1.00012
1.00008
1.00005
1.00004
1.00003
1.00003
1.00003
1.00003
1.00003
1.00002
1.00002
1.00002
1.00002
1.00002
1.00001
1.00001
1.00001
1.00001
1
1
1
1
1
1
1
1
1
1
1
1
1
1
1
1
1
1
1
1
1
1
1
1
1
1
1.00086
1.00107
1.00131
1.00156
1.00184
1.00212
1.00239
1.00266
1.00291
1.00312
1.00328
1.00339
1.00345
1.00344
1.00337
1.00324
1.00305
1.00282
1.00255
1.00225
1.00195
1.00164
1.00135
1.00108
1.00084
1.00063
1.00046
1.00032
1.00021
1.00013
1.00008
1.00004
1.00002
1.00001
1.00001
1.00001
1.00001
1.00001
1.00002
1.00002
1.00002
1.00002
1.00001
1.00001
1.00001
1.00001
1.00001
1.00001
1
1
1
1
1
1
1
1
1
1
1
1
1
1
1
1
1
1
1
1
1
1
1
1
1
1
1
1.00063
1.00078
1.00095
1.00113
1.00131
1.00151
1.0017
1.00188
1.00204
1.00219
1.0023
1.00236
1.00239
1.00237
1.00231
1.0022
1.00206
1.00188
1.00169
1.00147
1.00126
1.00104
1.00084
1.00065
1.00049
1.00035
1.00024
1.00015
1.00009
1.00004
1.00001
0.999996
0.999989
0.999989
0.999992
0.999996
1
1.00001
1.00001
1.00001
1.00001
1.00001
1.00001
1.00001
1.00001
1.00001
1.00001
1
1
1
1
1
1
1
1
1
1
1
1
1
1
1
1
1
1
1
1
1
1
1
1
1
1
1
1
1.00047
1.00057
1.00068
1.00081
1.00094
1.00107
1.0012
1.00132
1.00143
1.00152
1.00158
1.00162
1.00163
1.0016
1.00155
1.00147
1.00136
1.00123
1.00108
1.00093
1.00077
1.00063
1.00049
1.00036
1.00025
1.00016
1.00009
1.00004
1.00001
0.999985
0.999973
0.999969
0.99997
0.999974
0.999981
0.999988
0.999994
0.999999
1
1.00001
1.00001
1.00001
1.00001
1.00001
1.00001
1.00001
1
1
1
1
1
1
1
1
1
1
1
1
1
1
1
1
1
1
1
1
1
1
1
1
1
1
1
1
1
1.00035
1.00042
1.0005
1.00059
1.00067
1.00076
1.00085
1.00092
1.00099
1.00105
1.00108
1.0011
1.00109
1.00107
1.00102
1.00095
1.00087
1.00077
1.00067
1.00056
1.00045
1.00035
1.00025
1.00017
1.0001
1.00005
1.00001
0.999979
0.99996
0.999951
0.999951
0.999954
0.999961
0.999969
0.999977
0.999985
0.999991
0.999997
1
1
1
1.00001
1.00001
1.00001
1
1
1
1
1
1
1
1
1
1
1
1
1
1
1
1
1
1
1
1
1
1
1
1
1
1
1
1
1
1
1
1.00027
1.00031
1.00037
1.00043
1.00049
1.00054
1.0006
1.00065
1.00069
1.00072
1.00073
1.00074
1.00073
1.0007
1.00066
1.0006
1.00054
1.00047
1.00039
1.00031
1.00024
1.00017
1.00011
1.00005
1.00001
0.999979
0.999958
0.999945
0.999939
0.999938
0.999942
0.999949
0.999957
0.999966
0.999975
0.999982
0.999989
0.999994
0.999998
1
1
1
1
1
1
1
1
1
1
1
1
1
1
1
1
1
1
1
1
1
1
1
1
1
1
1
1
1
1
1
1
1
1
1
1
1.0002
1.00024
1.00028
1.00031
1.00035
1.00039
1.00042
1.00046
1.00048
1.00049
1.00049
1.00049
1.00048
1.00045
1.00041
1.00037
1.00032
1.00027
1.00021
1.00016
1.00011
1.00006
1.00002
0.999987
0.999961
0.999943
0.999932
0.999928
0.999929
0.999933
0.999941
0.999949
0.999959
0.999968
0.999976
0.999983
0.999989
0.999993
0.999997
0.999999
1
1
1
1
1
1
1
1
1
1
1
1
1
1
1
1
1
1
1
1
1
1
1
1
1
1
1
1
1
1
1
1
1
1
1
1.00015
1.00018
1.00021
1.00024
1.00026
1.00028
1.00031
1.00032
1.00033
1.00034
1.00033
1.00032
1.00031
1.00028
1.00026
1.00022
1.00018
1.00014
1.0001
1.00006
1.00003
0.999995
0.999969
0.999949
0.999936
0.999928
0.999924
0.999925
0.999929
0.999936
0.999944
0.999953
0.999962
0.99997
0.999977
0.999984
0.999989
0.999993
0.999996
0.999999
1
1
1
1
1
1
1
1
1
1
1
1
1
1
1
1
1
1
1
1
1
1
1
1
1
1
1
1
1
1
1
1
1
1
1
1.00012
1.00014
1.00016
1.00018
1.00019
1.00021
1.00022
1.00023
1.00023
1.00023
1.00023
1.00022
1.0002
1.00018
1.00015
1.00012
1.0001
1.00007
1.00004
1.00001
0.999983
0.999963
0.999947
0.999935
0.999927
0.999924
0.999924
0.999927
0.999933
0.999941
0.999949
0.999958
0.999966
0.999973
0.99998
0.999986
0.99999
0.999994
0.999997
0.999998
1
1
1
1
1
1
1
1
1
1
1
1
1
1
1
1
1
1
1
1
1
1
1
1
1
1
1
1
1
1
1
1
1
1
1
1.00009
1.00011
1.00012
1.00013
1.00015
1.00015
1.00016
1.00017
1.00017
1.00016
1.00015
1.00014
1.00013
1.00011
1.00009
1.00007
1.00004
1.00002
0.999998
0.999979
0.999962
0.999948
0.999938
0.999931
0.999928
0.999928
0.999931
0.999935
0.999941
0.999948
0.999955
0.999963
0.999971
0.999977
0.999983
0.999987
0.999991
0.999994
0.999997
0.999999
1
1
1
1
1
1
1
1
1
1
1
1
1
1
1
1
1
1
1
1
1
1
1
1
1
1
1
1
1
1
1
1
1
1
1
1.00007
1.00008
1.00009
1.0001
1.00011
1.00012
1.00012
1.00012
1.00012
1.00011
1.00011
1.0001
1.00008
1.00007
1.00005
1.00003
1.00002
0.999997
0.999981
0.999966
0.999955
0.999946
0.999938
0.999935
0.999934
0.999935
0.999938
0.999943
0.99995
0.999957
0.999963
0.999969
0.999975
0.99998
0.999985
0.99999
0.999993
0.999995
0.999997
0.999998
0.999999
0.999999
1
1
1
1
1
1
1
1
1
1
1
1
1
1
1
1
1
1
1
1
1
1
1
1
1
1
1
1
1
1
1
1
1
1.00006
1.00006
1.00007
1.00008
1.00008
1.00009
1.00009
1.00009
1.00009
1.00008
1.00007
1.00006
1.00005
1.00004
1.00003
1.00001
0.999998
0.999985
0.999973
0.999963
0.999954
0.999948
0.999945
0.999943
0.999943
0.999945
0.999949
0.999953
0.999958
0.999964
0.99997
0.999975
0.99998
0.999984
0.999988
0.999991
0.999994
0.999996
0.999997
0.999998
0.999999
0.999999
1
1
1
1
1
1
1
1
1
1
1
1
1
1
1
1
1
1
1
1
1
1
1
1
1
1
1
1
1
1
1
1
1
1.00004
1.00005
1.00006
1.00006
1.00006
1.00007
1.00007
1.00007
1.00006
1.00006
1.00005
1.00004
1.00003
1.00002
1.00001
1
0.999991
0.999981
0.999973
0.999965
0.999958
0.999954
0.999952
0.999952
0.999951
0.999953
0.999957
0.999961
0.999966
0.99997
0.999975
0.999979
0.999984
0.999987
0.99999
0.999992
0.999995
0.999996
0.999998
0.999999
0.999999
1
1
1
1
1
1
1
1
1
1
1
1
1
1
1
1
1
1
1
1
1
1
1
1
1
1
1
1
1
1
1
1
1
1
1.00003
1.00004
1.00004
1.00005
1.00005
1.00005
1.00005
1.00005
1.00005
1.00004
1.00004
1.00003
1.00002
1.00001
1.00001
0.999997
0.999989
0.999981
0.999974
0.999968
0.999964
0.999961
0.99996
0.99996
0.999961
0.999963
0.999966
0.999969
0.999972
0.999976
0.999981
0.999984
0.999987
0.99999
0.999992
0.999994
0.999996
0.999997
0.999998
0.999999
0.999999
0.999999
1
1
1
1
1
1
1
1
1
1
1
1
1
1
1
1
1
1
1
1
1
1
1
1
1
1
1
1
1
1
1
1
1
1.00003
1.00003
1.00003
1.00004
1.00004
1.00004
1.00004
1.00004
1.00003
1.00003
1.00003
1.00002
1.00002
1.00001
1
0.999996
0.999989
0.999983
0.999978
0.999974
0.99997
0.999969
0.999968
0.999968
0.999968
0.99997
0.999973
0.999975
0.999979
0.999982
0.999985
0.999988
0.99999
0.999992
0.999994
0.999996
0.999997
0.999998
0.999999
0.999999
1
1
1
1
1
1
1
1
1
1
1
1
1
1
1
1
1
1
1
1
1
1
1
1
1
1
1
1
1
1
1
1
1
1
1
1.00002
1.00002
1.00003
1.00003
1.00003
1.00003
1.00003
1.00003
1.00003
1.00002
1.00002
1.00002
1.00001
1.00001
1
0.999995
0.99999
0.999985
0.999981
0.999979
0.999976
0.999975
0.999974
0.999975
0.999976
0.999977
0.999979
0.999981
0.999983
0.999986
0.999988
0.99999
0.999992
0.999994
0.999995
0.999996
0.999997
0.999998
0.999999
0.999999
0.999999
1
1
1
1
1
1
1
1
1
1
1
1
1
1
1
1
1
1
1
1
1
1
1
1
1
1
1
1
1
1
1
1
1
1
1.00002
1.00002
1.00002
1.00002
1.00002
1.00002
1.00002
1.00002
1.00002
1.00002
1.00001
1.00001
1.00001
1
1
0.999996
0.999992
0.999989
0.999985
0.999983
0.999982
0.999981
0.99998
0.99998
0.999981
0.999982
0.999984
0.999986
0.999988
0.999989
0.999991
0.999992
0.999994
0.999995
0.999996
0.999997
0.999998
0.999998
0.999999
0.999999
0.999999
1
1
1
1
1
1
1
1
1
1
1
1
1
1
1
1
1
1
1
1
1
1
1
1
1
1
1
1
1
1
1
1
1
1
1.00001
1.00001
1.00001
1.00001
1.00002
1.00002
1.00002
1.00002
1.00001
1.00001
1.00001
1.00001
1
1
0.999999
0.999996
0.999993
0.999991
0.999989
0.999987
0.999986
0.999985
0.999985
0.999985
0.999986
0.999987
0.999988
0.999989
0.99999
0.999992
0.999993
0.999994
0.999996
0.999996
0.999997
0.999998
0.999998
0.999999
0.999999
1
1
1
1
1
1
1
1
1
1
1
1
1
1
1
1
1
1
1
1
1
1
1
1
1
1
1
1
1
1
1
1
1
1
1
1
1.00001
1.00001
1.00001
1.00001
1.00001
1.00001
1.00001
1.00001
1.00001
1.00001
1.00001
1.00001
1
1
0.999999
0.999997
0.999995
0.999993
0.999992
0.99999
0.999989
0.999988
0.999989
0.999989
0.999989
0.99999
0.999991
0.999992
0.999993
0.999994
0.999995
0.999996
0.999997
0.999997
0.999998
0.999998
0.999999
0.999999
1
1
1
1
1
1
1
1
1
1
1
1
1
1
1
1
1
1
1
1
1
1
1
1
1
1
1
1
1
1
1
1
1
1
1
1
1
1.00001
1.00001
1.00001
1.00001
1.00001
1.00001
1.00001
1.00001
1.00001
1.00001
1.00001
1
1
1
0.999999
0.999998
0.999996
0.999995
0.999994
0.999993
0.999992
0.999992
0.999992
0.999992
0.999992
0.999993
0.999993
0.999994
0.999995
0.999995
0.999996
0.999997
0.999997
0.999998
0.999998
0.999999
0.999999
0.999999
1
1
1
1
1
1
1
1
1
1
1
1
1
1
1
1
1
1
1
1
1
1
1
1
1
1
1
1
1
1
1
1
1
1
1
1
1
1
1
1.00001
1.00001
1.00001
1.00001
1.00001
1.00001
1.00001
1
1
1
1
1
0.999999
0.999998
0.999997
0.999996
0.999995
0.999994
0.999995
0.999994
0.999994
0.999994
0.999994
0.999995
0.999995
0.999995
0.999996
0.999997
0.999997
0.999998
0.999998
0.999999
0.999999
0.999999
0.999999
1
1
1
1
1
1
1
1
1
1
1
1
1
1
1
1
1
1
1
1
1
1
1
1
1
1
1
1
1
1
1
1
1
1
1
1
1
1
1
1
1
1
1
1
1
1
1
1
1
1
1
1
0.999999
0.999999
0.999998
0.999997
0.999997
0.999997
0.999996
0.999996
0.999996
0.999996
0.999996
0.999996
0.999996
0.999997
0.999997
0.999998
0.999998
0.999998
0.999999
0.999999
0.999999
0.999999
1
1
1
1
1
1
1
1
1
1
1
1
1
1
1
1
1
1
1
1
1
1
1
1
1
1
1
1
1
1
1
1
1
1
1
1
1
1
1
1
1
1
1
1
1
1
1
1
1
1
1
1
1
1
0.999999
0.999998
0.999998
0.999998
0.999997
0.999997
0.999997
0.999997
0.999997
0.999997
0.999997
0.999998
0.999998
0.999998
0.999998
0.999999
0.999999
0.999999
0.999999
0.999999
1
1
1
1
1
1
1
1
1
1
1
1
1
1
1
1
1
1
1
1
1
1
1
1
1
1
1
1
1
1
1
1
1
1
1
1
1
1
1
1
1
1
1
1
1
1
1
1
1
1
1
1
1
1
1
0.999999
0.999999
0.999999
0.999998
0.999998
0.999998
0.999998
0.999997
0.999998
0.999998
0.999998
0.999998
0.999998
0.999999
0.999999
0.999999
0.999999
0.999999
1
1
1
1
1
1
1
1
1
1
1
1
1
1
1
1
1
1
1
1
1
1
1
1
1
1
1
1
1
1
1
1
1
1
1
1
1
1
1
1
1
1
1
1
1
1
1
1
1
1
1
1
1
1
1
1
1
0.999999
0.999999
0.999999
0.999999
0.999999
0.999998
0.999998
0.999998
0.999999
0.999999
0.999999
0.999999
0.999999
0.999999
0.999999
0.999999
1
0.999999
0.999999
1
1
1
1
1
1
1
1
1
1
1
1
1
1
1
1
1
1
1
1
1
1
1
1
1
1
1
1
1
1
1
1
1
1
1
1
1
1
1
1
1
1
1
1
1
1
1
1
1
1
1
1
1
1
1
1
1
1
0.999999
0.999999
0.999999
0.999999
0.999999
0.999999
0.999999
0.999999
0.999999
0.999999
0.999999
1
0.999999
0.999999
0.999999
1
1
1
1
1
1
1
1
1
1
1
1
1
1
1
1
1
1
1
1
1
1
1
1
1
1
1
1
1
1
1
1
1
1
1
1
1
1
1
1
1
1
1
1
1
1
1
1
1
1
1
1
1
1
1
1
1
1
1
1
0.999999
0.999999
0.999999
1
0.999999
0.999999
0.999999
1
1
0.999999
0.999999
0.999999
0.999999
0.999999
1
1
1
1
1
1
1
1
1
1
1
1
1
1
1
1
1
1
1
1
1
1
1
1
1
1
1
1
1
1
1
1
1
1
1
1
1
1
1
1
1
1
1
1
1
1
1
1
1
1
1
1
1
1
1
1
1
1
1
1
0.999999
0.999999
0.999999
1
0.999999
0.999999
0.999999
1
0.999999
0.999999
1
0.999999
0.999999
1
1
1
1
1
1
1
1
1
1
1
1
1
1
1
1
1
1
1
1
1
1
1
1
1
1
1
1
1
1
1
1
1
1
1
1
1
1
1
1
1
1
1
1
1
1
1
1
1
1
1
1
1
1
1
1
1
1
1
1
1
1
1
1
1
0.999999
1
1
1
1
1
1
1
1
1
1
1
1
1
1
1
1
1
1
1
1
1
1
1
1
1
1
1
1
1
1
1
1
1
1
1
1
1
1
1
1
1
1
1
1
1
1
1
1
1
1
1
1
1
1
1
1
1
1
1
1
1
1
1
1
1
1
1
1
1
1
1
1
1
1
1
1
1
1
1
1
1
1
1
1
1
1
1
1
1
1
1
1
1
1
1
1
1
1
1
1
1
1
1
1
1
1
1
1
1
1
1
1
1
1
1
1
1
1
1
1
1
1
1
1
1
1
1
1
1
1
1
1
1
1
1
1
1
1
1
1
1
1
1
1
1
1
1
1
1
1
1
1
1
1
1
1
1
1
1
1
1
1
1
1
1
1
1
1
1
1
1
1
1
1
1
1
1
1
1
1
1
1
1
1
1
1
1
1
1
1
1
1
1
1
1
1
1
1
1
1
1
1
1
1
1
1
1
1
1
1
1
1
1
1
1
1
1
1
1
1
1
1
1
1
1
1
1
1
0.999999
1
1
1
1
1
1
1
1
1
1
1
1
1
1
1
1
1
1
1
1
1
1
1
1
1
1
1
1
1
1
1
1
1
1
1
1
1
1
1
1
1
1
1
1
1
1
1
1
1
1
1
1
1
1
1
1
1
1
1
1
1
1
1
1
1
1
1
1
1
1
1
1
1
1
1
1
1
1
1
1
1
1
1
1
1
1
1
1
1
1
1
1
1
1
1
1
1
1
1
1
1
1
1
1
1
1
1
1
1
1
1
1
1
1
1
1
1
1
1
1
1
1
1
1
1
1
1
1
1
1
1
1
1
1
1
1
1
1
1
1
1
1
1
1
1
1
1
1
1
1
1
1
1
1
1
1
1
1
1
1
1
1
1
1
1
1
1
1
1
1
1
1
1
1
1
1
1
1
1
1
1
1
1
1
1
1
1
1
1
1
1
1
1
1
1
1
1
1
1
1
1
1
1
1
1
1
1
1
1
1
1
1
1
1
1
1
1
1
1
1
1
1
1
1
1
1
1
1
1
1
1
1
1
1
1
1
1
1
1
1
1
1
1
1
1
1
1
1
1
1
1
1
1
1
1
1
1
1
1
1
1
1
1
1
1
1
1
1
1
1
1
1
1
1
1
1
1
1
1
1
1
1
1
1
1
1
1
1
1
1
1
1
1
1
1
1
1
1
1
1
1
1
1
1
1
1
1
1
1
1
1
1
1
1
1
1
1
1
1
1
1
1
1
1
1
1
1
1
1
1
1
1
1
1
1
1
1
1
1
1
1
1
1
1
1
1
1
1
1
1
1
1
1
1
1
1
1
1
1
1
1
1
1
1
1
1
1
1
1
1
1
1
1
1
1
1
1
1
1
1
1
1
1
1
1
1
1
1
1
1
1
1
1
1
1
1
1
1
1
1
1
1
1
1
1
1
1
1
1
1
1
1
1
1
1
1
1
1
1
1
1
1
1
1
1
1
1
1
1
1
1
1
1
1
1
1
1
1
1
1
1
1
1
1
1
1
1
1
1
1
1
1
1
1
1
1
1
1
1
1
1
1
1
1
1
1
1
1
1
1
1
1
1
1
1
1
1
1
1
1
1
1
1
1
1
1
1
1
1
1
1
1
1
1
1
1
1
1
1
1
1
1
1
1
1
1
1
1
1
1
1
1
1
1
1
1
1
1
1
1
1
1
1
1
1
1
1
1
1
1
1
1
1
1
1
1
1
1
1
1
1
1
1
1
1
1
1
1
1
1
1
1
1
1
1
1
1
1
1
1
1
1
1
1
1
1
1
1
1
1
1
1
1
1
1
1
1
1
1
1
1
1
1
1
1
1
1
1
1
1
1
1
1
1
1
1
1
1
1
1
1
1
1
1
1
1
1
1
1
1
1
1
1
1
1
1
1
1
1
1
1
1
1
1
1
1
1
1
1
1
1
1
1
1
1
1
1
1
1
1
1
1
1
1
1
1
1
1
1
1
1
1
1
1
1
1
1
1
1
1
1
1
1
1
1
1
1
1
1
1
1
1
1
1
1
1
1
1
1
1
1
1
1
1
1
1
1
1
1
1
1
1
1
1
1
1
1
1
1
1
1
1
1
1
1
1
1
1
1
1
1
1
1
1
1
1
1
1
1
1
1
1
1
1
1
1
1
1
1
1
1
1
1
1
1
1
1
1
1
1
1
1
1
1
1
1
1
1
1
1
1
1
1
1
1
1
1
1
1
1
1
1
1
1
1
1
1
1
1
1
1
1
1
1
1
1
1
1
1
1
1
1
1
1
1
1
1
1
1
1
1
1
1
1
1
1
1
1
1
1
1
1
1
1
1
1
1
1
1
1
1
1
1
1
1
1
1
1
1
1
1
1
1
1
1
1
1
1
1
1
1
1
1
1
1
1
1
1
1
1
1
1
1
1
1
1
1
1
1
1
1
1
1
1
1
1
1
1
1
1
1
1
1
1
1
1
1
1
1
1
1
1
1
1
1
1
1
1
1
1
1
1
1
1
1
1
1
1
1
1
1
1
1
1
1
1
1
1
1
1
1
1
1
1
1
1
1
1
1
1
1
1
1
1
1
1
1
1
1
1
1
1
1
1
1
1
1
1
1
1
1
1
1
1
1
1
1
1
1
1
1
1
1
1
1
1
1
1
1
1
1
1
1
1
1
1
1
1
1
1
1
1
1
1
1
1
1
1
1
1
1
1
1
1
1
1
1
1
1
1
1
1
1
1
1
1
1
1
1
1
1
1
1
1
1
1
1
1
1
1
1
1
1
1
1
1
1
1
1
1
1
1
1
1
1
1
1
1
1
1
1
1
1
1
1
1
1
1
1
1
1
1
1
1
1
1
1
1
1
1
1
1
1
1
1
1
1
1
1
1
1
1
1
1
1
1
1
1
1
1
1
1
1
1
1
1
1
1
1
1
1
1
1
1
1
1
1
1
1
1
1
1
1
1
1
1
1
1
1
1
1
1
1
1
1
1
1
1
1
1
1
1
1
1
1
1
1
1
1
1
1
1
1
1
1
1
1
1
1
1
1
1
1
1
1
1
1
1
1
1
1
1
1
1
1
1
1
1
1
1
1
1
1
1
1
1
1
1
1
1
1
1
1
1
1
1
1
1
1
1
1
1
1
1
1
1
1
1
1
1
1
1
1
1
1
1
1
1
1
1
1
1
1
1
1
1
1
1
1
1
1
1
1
1
1
1
1
1
1
1
1
1
1
1
1
1
1
1
1
1
1
1
1
1
1
1
1
1
1
1
1
1
1
1
1
1
1
1
1
1
1
1
1
1
1
1
1
1
1
1
1
1
1
1
1
1
1
1
1
1
1
1
1
1
1
1
1
1
1
1
1
1
1
1
1
1
1
1
1
1
1
1
1
1
1
1
1
1
1
1
1
1
1
1
1
1
1
1
1
1
1
1
1
1
1
1
1
1
1
1
1
1
1
1
1
1
1
1
1
1
1
1
1
1
1
1
1
1
1
1
1
1
1
1
1
1
)
;

boundaryField
{
    emptyPatches_empt
    {
        type            empty;
    }
    top_cyc
    {
        type            cyclic;
    }
    bottom_cyc
    {
        type            cyclic;
    }
    inlet_cyc
    {
        type            cyclic;
    }
    outlet_cyc
    {
        type            cyclic;
    }
    procBoundary1to0
    {
        type            processor;
        value           nonuniform List<scalar> 
75
(
1.02744
1.03258
1.03719
1.04111
1.04417
1.04626
1.04728
1.04718
1.04597
1.04371
1.04055
1.03667
1.03234
1.02785
1.02345
1.01933
1.01563
1.01242
1.00972
1.00749
1.0057
1.00428
1.00319
1.00235
1.00173
1.00126
1.00092
1.00068
1.0005
1.00037
1.00028
1.00022
1.00016
1.00013
1.0001
1.00008
1.00006
1.00005
1.00004
1.00003
1.00002
1.00002
1.00001
1.00001
1.00001
1
1
1
1
1
1
1
1
1
1
1
1
1
1
1
1
1
1
1
1
1
1
1
1
1
1
1
1
1
1
)
;
    }
    procBoundary1to0throughoutlet_cyc
    {
        type            processorCyclic;
        value           nonuniform List<scalar> 
75
(
1
1
1
1
1
1
1
1
1
1
1
1
1
1
1
1
1
1
1
1
1
1
1
1
1
1
1
1
1
1
1
1
1
1
1
1
1
1
1
1
1
1
1
1
1
1
1
1
1
1
1
1
1
1
1
1
1
1
1
1
1
1
1
1
1
1
1
1
1
1
1
1
1
1
1
)
;
    }
    procBoundary1to3
    {
        type            processor;
        value           nonuniform List<scalar> 
75
(
1.00219
0.976156
0.943808
0.905467
0.861986
0.814777
0.765764
0.717175
0.671302
0.630377
0.596353
0.57058
0.553621
0.545526
0.546252
0.555774
0.573992
0.600651
0.635245
0.676789
0.723525
0.772924
0.822176
0.868875
0.911413
0.948874
0.980663
1.00624
1.02518
1.03739
1.04332
1.04402
1.0409
1.03551
1.02918
1.02291
1.0173
1.01264
1.00898
1.00623
1.00423
1.00283
1.00188
1.00124
1.00081
1.00054
1.00036
1.00024
1.00017
1.00011
1.00008
1.00006
1.00004
1.00003
1.00002
1.00001
1.00001
1.00001
1
1
1
1
1
1
1
1
1
1
1
1
1
1
1
1
1
)
;
    }
    procBoundary1to3throughbottom_cyc
    {
        type            processorCyclic;
        value           nonuniform List<scalar> 
75
(
1
1
1
1
1
1
1
1
1
1
1
1
1
1
1
1
1
1
1
1
1
1
1
1
1
1
1
1
1
1
1
1
1
1
1
1
1
1
1
1
1
1
1
1
1
1
1
1
1
1
1
1
1
1
1
1
1
1
1
1
1
1
1
1
1
1
1
1
1
1
1
1
1
1
1
)
;
    }
}


// ************************************************************************* //
