/*--------------------------------*- C++ -*----------------------------------*\
  =========                 |
  \\      /  F ield         | OpenFOAM: The Open Source CFD Toolbox
   \\    /   O peration     | Website:  https://openfoam.org
    \\  /    A nd           | Version:  6
     \\/     M anipulation  |
\*---------------------------------------------------------------------------*/
FoamFile
{
    version     2.0;
    format      ascii;
    class       surfaceScalarField;
    location    "1.18";
    object      meshPhi;
}
// * * * * * * * * * * * * * * * * * * * * * * * * * * * * * * * * * * * * * //

dimensions      [0 3 -1 0 0 0 0];

internalField   nonuniform List<scalar> 
11670
(
-0.102367
-0.0874885
0.0252054
0.165229
-0.0380189
0.0197243
-0.0227955
0.0318663
-0.264547
-0.0713153
0.0327369
0.284401
-0.296249
-0.240857
0.0890228
0.458566
-0.103572
-0.0685741
0.0388682
0.15992
0.00340894
0.00682847
0.00123767
-0.000727205
0.264723
0.101178
-0.0729793
-0.280789
-0.139303
-0.0525965
0.0246878
0.143154
0.240087
-0.152872
0.160226
-0.240411
-0.166405
0.0993165
-0.12729
0.181713
0.421299
0.290618
-0.111719
-0.604389
-0.000615626
-0.00492969
0.00452574
-0.00632085
0.00810224
-0.00606965
0.00990628
-0.00475557
-0.00218803
0.00538238
-0.0046951
0.0105116
-0.00669481
0.00631147
-0.0133362
0.0048325
-0.00292751
0.00377538
0.00566112
-0.00233122
-0.00300861
0.00202919
-0.00430213
0.00188665
0.000181266
-0.00208917
0.00189875
-0.0026423
-0.0019471
0.00495982
0.00794216
-0.00498802
-0.00102013
0.00335448
-0.00184787
0.00272323
-0.00353256
0.00289703
-0.00551069
0.00203652
-0.000319695
0.00257151
-0.00163536
0.00163764
0.000722788
-0.00248356
0.00177273
-0.00257795
-0.00686988
0.00238424
-0.00756862
0.00483678
0.00473905
-0.00391012
0.00625955
-0.00231466
-0.0110939
0.0134922
-0.00474038
0.0157382
0.00639023
-0.0070232
0.00499397
-0.0154776
-0.0013755
0.00818686
0.0114058
-0.00746711
-0.00615768
0.00169251
0.00771639
-0.0122121
0.018347
-0.0173378
-0.00770979
0.0246977
-0.00747854
0.0019206
0.00960478
-0.0152923
-0.00196745
0.0103664
0.0140069
-0.00928826
0.0231157
-0.0217737
-0.00959013
0.0305325
-0.00124041
-0.00783601
-0.0150902
0.0101029
-0.0170173
0.0156664
0.0104312
-0.0332553
-0.0197289
0.0210823
-0.0104288
0.0333348
0.0164704
-0.00742361
0.015019
-0.0101006
-0.0103719
0.0130339
0.022238
-0.0102019
-0.0114483
0.00410232
-0.0149763
0.00999411
0.0140038
-0.0175907
0.0115901
-0.0365632
0.0091752
-0.00387599
0.0139698
-0.00877367
0.00648379
-0.00716956
-0.0240063
0.00849351
0.0242929
-0.0202047
-0.00833808
0.0271899
-0.0119394
0.00239019
0.00795435
-0.0107847
-0.00265867
0.00644775
-0.0060647
0.0120634
0.00140415
-0.00407341
-0.0131027
0.00613811
0.0118424
-0.00896234
0.0145566
-0.00614281
-0.010205
0.00614261
0.00606007
-0.0132953
0.00331041
-0.00125508
0.00541828
-0.00340291
-0.00463683
0.00117009
0.00307797
-0.00379684
0.00868048
-0.00711025
-0.00323397
0.0106047
0.00310935
-0.00338865
-0.00994613
0.0032866
-0.000278886
9.31803e-05
1.49624e-05
-0.000357781
-0.000313448
0.00035885
0.00078466
1.84112e-05
-4.18571e-14
6.71328e-15
4.34096e-13
0
0.00676663
-0.000616565
-0.00294645
0.00251838
-0.0054313
0.000471725
-0.00364
0.00301517
0.00614019
-0.00633831
0.0121007
-0.00395818
-0.00251934
0.00360045
0.0034429
-0.00986368
-0.00125395
0.00782192
0.0108222
-0.00744799
-0.0100504
0.00273263
0.00690027
-0.00996702
0.0181134
-0.0171053
-0.00769005
0.024906
0.0102688
-0.0120286
-0.0267968
0.0085738
0.00652737
-0.00263944
0.0102494
-0.00643707
0.0178599
-0.014765
-0.00611749
0.0203102
0.00891645
-0.00835985
-0.0228309
0.00663399
-0.00949558
0.00226144
0.00616529
-0.00779914
0.0109542
-0.00490586
-0.0104523
0.0166414
-0.0150112
0.00296849
0.010017
-0.0131351
0.0126758
-0.0117878
-0.0362292
0.0107785
0.0113843
-0.0125431
0.0101419
-0.0328831
-0.0126818
0.00391148
-0.0145382
0.00982271
-0.00179514
0.0135501
-0.00974537
0.012866
0.024814
-0.0255967
0.0353036
-0.0104862
-0.00187967
0.0101343
0.0136608
-0.00927692
0.0231006
-0.0218522
-0.00957842
0.0307886
-0.00164619
-0.00931313
0.00919997
-0.0119016
-0.0156919
0.0165132
-0.033577
0.00989937
-0.0130439
0.000256727
-0.00938495
0.00777397
0.0125151
-0.0036703
0.00956683
-0.00701651
0.0221515
-0.0185986
-0.011067
0.030608
-0.00550329
0.00829068
0.00887677
-0.0254313
-0.0147682
0.0187528
-0.0487996
0.126675
-0.131447
-0.275982
0.0441599
-0.0537204
-0.0917528
-0.129631
0.143873
0.259654
0.0413995
-0.0430814
-0.0850928
0.00120262
0.00726719
0.0023195
0.0823638
-0.0788537
-0.160283
0.166139
-0.171525
-0.281389
0.131303
-0.08993
0.203949
-0.0568038
0.0633307
-0.182149
-0.225079
0.216509
0.423115
-0.209843
0.144368
0.443017
-0.379398
-0.0361387
-0.0386659
0.179151
-0.104937
-7.34763e-06
-0.00239262
-0.000525679
0.00132864
0.0096081
0.0284212
-0.0608993
0.016871
-0.0130784
0.102732
0.0261444
-0.12343
0.0267552
-0.206453
-0.0260131
0.197846
0.0168308
0.0802459
-0.0795915
-0.00854022
0.0282394
-0.213501
-0.000465195
0.182958
-0.123454
0.443017
-0.357281
-0.00232976
0.0114663
0.0101275
-0.0250472
-0.000375022
-0.00889272
0.00330597
0.000863465
-0.00746435
-0.0427269
0.0640294
-0.00799428
-0.00793471
-0.00634135
0.00843357
0.0177286
-0.0107759
-0.00164351
-0.00586808
-0.0495063
-0.00219545
0.0501501
-0.0231518
0.0126968
0.00261178
0.137707
-0.0197182
-0.0929092
0.0732803
-0.12965
0.0360772
0.00111155
-0.00299868
0.000315372
-0.102624
0.15697
-0.0355434
-0.12239
0.163242
-0.0155173
0.0429853
0.0068388
-0.0461449
-0.0228936
0.0891256
0.0667617
-0.14961
0.0462452
0.071338
-0.157093
-0.000111645
0.0222243
-0.000379077
-0.0351916
-0.0484199
-0.000341541
0.0351916
0.0341067
-0.0998236
-0.114239
0.195452
-0.106569
-0.114863
0.271035
0.00896528
-0.0312089
0.0478985
-0.0285074
-0.0288145
-0.0314939
0.0664212
0.118642
-0.403093
-0.325648
0.59866
-0.216842
-0.304559
0.628604
0.0766211
0.166217
0.224882
-0.483505
0.257975
0.221869
-0.419007
-0.0379846
0.0844868
0.088887
-0.149796
0.067597
0.0877349
-0.207723
0.0451399
0.106922
0.170653
-0.304351
0.245544
0.16916
-0.3512
1.70281e-05
-0.0121415
-4.92944e-05
0.00910247
0.0060948
-4.65763e-05
-0.00910247
-0.012868
-0.235775
0.0552976
-0.0253366
0.0330874
-0.0441004
-0.0706432
-0.020268
0.0628535
0.0551398
-0.053675
0.0214801
-0.0255866
0.0468255
-0.0575078
-0.0136389
0.045137
0.0448153
0.0730313
0.0126914
-0.0480267
-0.0551225
0.0392556
-0.0173569
0.0210219
-0.0331213
-0.038562
-0.00700945
0.0269944
0.0287199
0.0163245
-0.00917241
0.00900116
-0.0155373
-0.019564
0.011096
-0.0113483
0.0192258
0.0435277
0.0067181
-0.0280411
-0.0315036
-0.0978681
0.0299725
-0.0369276
0.0799731
0.114985
0.0213109
-0.07157
-0.0944348
-0.225954
-0.101331
0.127801
0.188034
0.308763
-0.18288
0.0994102
-0.244344
-0.181434
0.122088
-0.0675271
0.136814
0.118399
0.0610966
-0.0794995
-0.0990127
-0.299068
0.140467
-0.0637857
0.205935
0.225117
0.131772
-0.150599
-0.181976
-0.208562
0.172701
-0.0977157
0.158502
-0.118973
-0.0261263
0.0654281
0.0787785
-0.0621893
0.0453401
-0.026006
0.0522086
0.407341
-0.310662
0.0417768
-0.151103
0.381289
-0.19403
-0.00936341
-0.178074
-0.551689
0.308623
-0.198379
0.424689
0.439676
-0.268516
0.136046
-0.2842
-0.341318
0.2352
-0.0997278
0.204778
-0.189285
0.374578
0.0917308
-0.267009
-0.25485
0.149233
-0.0399833
0.144048
-0.245444
0.112323
-0.0639439
0.167419
0.275631
-0.0628786
-0.503314
0.29665
0.618578
-0.385635
0.246737
-0.486931
-0.357642
0.160277
-0.0588683
0.246904
0.408137
0.157335
-0.256273
-0.326192
-0.324854
-0.0139071
0.191457
0.151818
0.386503
-0.254418
0.0795207
-0.218721
0.119773
0.0542748
-0.0884701
-0.120568
-0.112435
0.128471
-0.0765533
0.0893454
0.350601
0.0176866
-0.269709
-0.0877014
0.414681
-0.280028
0.211432
-0.311699
-0.402531
0.200438
0.012853
0.180671
-0.397897
0.182378
-0.112214
0.299026
0.1666
0.015084
-0.0874774
-0.0815831
-0.245912
0.102729
-0.0608986
0.172177
-0.504533
-0.219524
0.325915
0.394474
-0.393806
0.231734
-0.0260707
0.19242
-0.30204
0.203304
-0.112466
0.228377
0.0551893
-0.136383
0.280091
-0.212966
0.0859706
0.0217614
-0.0645762
-0.0594175
0.0813051
-0.0387916
0.0423845
-0.0578596
-0.0332882
-0.0196879
0.0356029
0.0322925
0.305304
0.108495
-0.175915
-0.268815
-0.259243
-0.155926
0.227718
0.21706
0.117812
0.0497594
-0.0828275
-0.118364
0.0804677
-0.0511636
0.00780229
-0.0211637
-0.0642342
-0.00386571
0.0639584
0.0169419
0.00726287
-0.0222864
0.0128859
-1.99222e-14
4.47704e-05
-0.00195415
9.65878e-15
0.00188261
2.67694e-05
1.06661e-14
-5.17137e-15
-0.00272616
-0.0254427
0.0150548
-0.0698326
0.0535529
0.146425
-0.104754
-0.12347
-0.0336527
0.0882842
0.089874
1.50715e-13
-0.00782699
-0.00399543
-5.33903e-14
1.04251e-14
-0.0018525
-0.00309353
1.28561e-14
-0.0122839
0.000130242
-0.00325212
0.00677325
-0.0328422
0.0145746
-0.00405692
0.0156841
-0.0123527
9.65643e-05
0.00572706
0.00691285
0.0122839
9.33524e-05
-0.006048
-0.00677264
0.0123535
0.000149814
0.00403441
-0.00691285
-7.37679e-05
0.00440915
0.00760318
9.4348e-06
-4.46272e-07
-0.0065135
-0.00979867
3.7328e-06
4.3591e-06
-0.0140005
-0.00864197
-3.37804e-07
0.013428
0.00902748
1.33728e-05
-6.26928e-05
-0.239425
0.0934861
-0.0580204
0.175201
0.138175
-0.059828
0.025025
-0.0821648
0.0435466
-0.127776
0.214862
-0.15923
-0.520768
-0.116096
0.237948
0.371325
0.28084
0.0213476
-0.214015
-0.0735823
-0.0633715
0.0302948
-0.000235419
0.0352071
0.33772
0.181419
-0.226683
-0.254191
0.0788413
0.024608
-0.0477268
-0.0536673
0.147931
0.00729922
-0.0753951
-0.0667881
-0.21979
-0.0562149
0.0893481
0.153826
-0.000113957
0.0116301
0.0163339
1.11281e-05
1.51222e-05
0.0191868
0.0145358
-0.000100314
-0.00285049
0.000498801
-0.0130711
-0.00303266
0.192495
-0.122519
0.0524758
-0.144606
0.0564008
-0.0708117
0.124167
-0.0950476
-0.142316
0.0999446
-0.0422951
0.104134
-0.176388
-0.0800137
0.091338
0.146781
-0.248951
0.221912
-0.0213304
0.0652745
-0.241456
0.106518
0.414269
-0.307099
0.0704226
0.0108118
-0.0159012
-0.0349679
-0.216823
0.192704
-0.127341
0.181831
-0.113339
0.0397399
-0.0120867
0.0636776
-0.0670994
-0.022671
0.0669725
0.052017
0.0763246
-0.0342587
0.0520732
-0.0609846
-0.0787611
0.0620019
-0.00623933
0.0357156
0.102576
-0.0750525
0.0445667
-0.103286
-0.0621287
0.150626
-0.400314
0.286389
0.13312
0.0791319
-0.0814879
-0.107426
-0.15464
0.126172
-0.067153
0.124644
0.230054
0.0997014
-0.133316
-0.171834
-0.313807
-0.0838186
0.137019
0.236374
0.169385
-0.0865518
-0.223616
0.167097
-0.193527
0.0906579
0.350302
-0.278023
0.233262
0.115037
-0.176347
-0.29173
-0.0632331
0.119478
0.203984
0.143878
-0.200718
0.297989
-0.212272
0.152788
0.074426
-0.0833167
-0.111427
0.0807268
-0.0262135
0.0144766
-0.0421536
0.313304
-0.15355
0.0458558
-0.228055
-0.156051
0.132547
0.129537
0.204135
-0.114139
0.0452909
-0.160704
-0.29442
0.219942
-0.115926
0.217779
-0.0633047
0.0640324
-0.0415176
0.0628658
-0.0532477
0.00137029
0.0274586
0.0641226
-0.0176813
0.00412011
-0.0313643
-0.364817
0.273012
-0.161035
0.277074
-0.0536399
0.0137941
-0.00633471
0.0270404
-0.524791
0.357455
-0.232433
0.406038
-0.0451479
0.0110841
0.000718524
0.0207929
0.372611
0.16037
-0.231319
-0.28057
-0.0608478
-0.00850667
0.00968668
0.0309372
0.0620976
-0.0265661
-0.010672
-0.0026343
-0.547651
0.348344
-0.228971
0.424168
0.608894
0.267969
-0.388389
-0.483524
-0.302391
0.0824737
0.0181466
0.185251
0.166056
-0.0903663
0.0113574
-0.0750698
-0.16018
-0.0113937
0.112484
0.0724111
0.224612
0.0376672
-0.139045
-0.139154
0.171873
-0.0838665
0.0268993
-0.0949783
-0.172812
0.0794067
0.00118582
0.0817401
0.0992885
0.00962575
-0.227954
0.110518
0.233206
-0.00976868
-0.121001
-0.113064
-0.140185
0.11586
0.237216
-0.18799
-0.208931
-0.0753548
0.148137
0.158184
0.0173186
0.0118116
-1.87695e-12
7.36574e-13
8.55192e-13
0.00956898
0.0151859
-8.68031e-13
-0.15163
0.0527181
0.0131061
0.0768213
0.108468
-0.00121001
-0.0627925
-0.0551438
0.636406
0.255915
-0.393643
-0.505608
-0.443675
-0.0302698
0.22328
0.255806
0.106895
0.0199567
-0.0683643
-0.0861351
-0.112438
0.0331287
-0.0431292
0.0936596
0.139615
0.0652533
-0.0754112
-0.105869
0.121376
-0.0600642
-0.15896
0.126211
0.140372
-0.0991372
0.0136826
-0.0368905
0.130016
-0.00164456
-0.0987176
-0.0324889
0.0909782
-0.0670084
0.0467506
-0.0757822
-0.0859438
-0.0067174
0.157406
-0.0763143
-0.034153
0.00869087
-0.00119071
0.0219002
0.00861131
0.0637515
-0.161078
0.0780946
-0.158035
0.00099353
0.085065
0.0696914
-0.115831
0.0296007
-0.0270214
0.0871332
-0.0816975
0.0652555
-0.000984581
0.0203991
0.0153945
-0.0658991
0.1044
-0.0791825
-0.0572418
-0.0110494
0.0468487
0.0360453
0.0833054
-0.069474
-0.00532302
-0.021365
-0.12004
-0.010101
0.115454
0.0316574
-0.131697
0.00975883
0.0720433
0.0339654
0.0117178
0.00345891
-0.0650432
0.040758
-0.22855
0.143116
-0.0609952
0.136935
-0.172759
-0.0142506
0.106082
0.0996281
0.108292
0.00169891
-0.0699853
-0.0603846
0.201451
-0.113276
-0.0058527
-0.0888009
-0.0195227
0.0644466
-0.0690777
0.0511604
0.0585801
-0.0223702
0.0351481
-0.044852
0.0881601
0.0130005
-0.0540229
-0.0679628
0.0291329
-0.0330476
-0.115359
0.0909225
0.0608172
-0.0278366
0.0375966
-0.0479418
-0.0703998
-0.0117663
0.0258514
0.0411398
-0.0740867
-0.0225279
0.0679423
0.0584129
0.0244723
0.00142853
-0.0192519
-0.0104283
0.0752615
-0.029066
0.0372102
-0.0555129
-0.0532444
-0.0182039
0.0485734
0.0454274
-0.250761
-0.0796726
0.111333
0.185711
-0.0834916
0.0129854
0.00121528
0.0525413
0.211461
-0.133746
0.0692996
-0.178175
-0.0273435
0.00609364
-0.00545063
0.0157596
-0.152994
-0.0518603
0.103812
0.105736
0.0454443
-0.0139165
0.0165513
-0.0286686
0.0863541
-0.0416729
0.0153411
-0.0552543
-0.396125
-0.0115799
0.193985
0.221701
0.181802
0.0713899
-0.124928
-0.117667
-0.0440013
0.0633948
-0.0826373
0.0770765
0.108285
-0.0025105
-0.0514893
-0.0760561
0.0717714
0.0387
-0.0541481
-0.0725277
-0.12131
-0.0692914
0.114653
0.105053
0.0209222
0.0647605
-0.0597934
0.118647
-0.0559844
-0.0820654
-0.130337
0.0454142
0.0926107
-0.0248754
-0.0568641
0.0491927
0.36043
-0.164442
0.011667
-0.197675
-0.102823
-0.0747071
0.100192
0.103221
-0.0564765
-0.0133921
0.0506618
0.0352699
0.164061
-0.265024
0.428618
-0.314722
-0.503811
-0.19566
0.296312
0.389049
0.166247
-0.105782
0.0628263
-0.153606
-0.458388
0.26216
-0.111779
0.299101
0.271252
-0.149426
0.0899274
-0.183971
-0.38685
0.218179
-0.0822612
0.23337
-0.136784
0.545343
-0.0803096
-0.31096
0.164215
-0.0845297
0.0398585
-0.114631
-0.139065
0.0765469
-0.0410341
0.0972405
-0.204517
-0.104145
0.133111
0.179708
-0.0434095
0.00967221
-0.014755
0.0314878
0.0195875
0.00710417
-0.0168188
-0.0194215
-0.0163341
-0.00716436
0.017154
0.0153205
-0.123924
-0.0188445
0.0369033
0.0835656
0.039473
-0.0114121
0.0206539
-0.028725
0.104269
0.0334543
-0.0516459
-0.0660031
-0.194369
0.347041
-0.563916
0.412636
-0.164109
0.151317
-0.0629335
0.0959979
-0.268856
-0.101383
0.168565
0.213741
-0.187381
0.0728027
-0.00888886
0.111184
0.219174
-0.134912
0.0830269
-0.150163
0.211602
-0.00504999
-0.112434
-0.106833
-0.201331
0.154965
-0.0890483
0.16082
-0.264658
0.228581
-0.153269
0.223542
0.204985
0.0681952
-0.131601
-0.172695
-0.489832
-0.159445
0.35069
0.307265
0.584702
-0.312689
0.138887
-0.422195
-0.152192
-0.02193
0.047057
0.102182
0.585085
-0.348777
0.209146
-0.463603
-0.261286
-0.0736013
0.10912
0.192934
-0.447767
0.282242
-0.149925
0.330502
0.337706
-0.184459
-0.28097
0.148489
-0.012277
-0.163159
0.0416866
0.273945
-0.161406
0.0900517
-0.205773
0.625835
-0.350713
0.178106
-0.455053
0.381762
-0.224889
0.0666466
-0.239388
0.207507
0.0550755
-0.140494
-0.119102
0.24887
-0.00551706
-0.180929
-0.0653736
-0.460461
0.319634
-0.218919
0.375135
-0.338423
-0.0845039
0.184986
0.231085
-0.216169
0.113058
0.383621
-0.273367
-0.363738
0.168432
-0.0925474
0.255254
0.134002
-0.211795
0.357059
-0.250429
0.289178
0.16264
-0.204226
-0.213325
-0.389439
-0.12708
0.293776
0.238458
0.461203
-0.277294
0.156737
-0.364334
-0.143643
-0.00292389
0.0373455
0.0897175
0.38265
-0.154475
-0.000307062
-0.244448
0.0788371
0.0143096
-0.0466633
-0.0613877
-0.126303
0.0408599
-0.0209658
0.0861689
-0.0661616
-0.0261218
0.0468969
0.0462591
-1.3531e-12
-0.0115716
-0.00728724
7.19328e-13
0.00252074
0.00825075
0.00656333
-0.000832015
0.0236945
-0.120928
0.171629
-0.0917051
0.000754654
0.000218309
-0.0060725
1.02507e-12
-0.00442827
-0.00656327
-8.4892e-13
-0.205172
-0.043513
0.0814216
0.151399
-0.00177343
0.00575931
0.00974917
-0.00210885
0.000668986
0.00404513
0.000963741
0.000331583
-5.84028e-06
-0.0157855
-0.00965466
4.80005e-07
-0.113961
0.0293759
0.22213
-0.156519
0.131362
-0.104336
-0.00490536
-0.0328873
0.131136
-0.0778696
0.0648059
-0.0883404
-0.061614
0.0554552
-0.0200247
0.0447461
0.119886
-0.00690099
-0.058123
-0.0711204
-0.102836
0.00342694
0.0679989
0.0257456
-0.120032
-0.00851342
0.0658164
0.0800125
0.0956118
0.0108303
-0.0510225
-0.0468172
6.39053e-07
-0.00821414
-0.0125318
-5.06672e-06
-8.37097e-13
-0.00510598
-0.00255222
3.18165e-13
0.0511775
0.0151431
-0.0173671
-0.0329622
0.0422339
0.00234115
-0.0293896
-0.0150563
-0.0491335
0.00097548
0.00999453
0.0276433
-0.0353783
-0.00130251
0.0169313
0.0196578
-0.176561
-0.123614
0.163804
0.157523
0.228996
-0.130635
-0.0976439
-0.0168964
0.427771
-0.184158
0.0189457
-0.268189
0.248471
0.0104923
-0.184252
-0.0638667
-0.338999
0.158598
-0.0554904
0.215796
-0.49075
-0.130079
0.384855
-0.00366476
-0.0717894
0.0929116
-0.0232609
-0.112193
0.0318347
0.00274255
0.0649419
0.14747
0.0323137
-0.0684141
-0.0949663
0.572149
0.259568
-0.359602
-0.456455
-0.280731
0.213321
-0.00347415
0.0736937
0.304613
0.0032335
-0.227223
-0.0777718
0.020849
-0.192676
0.40846
-0.224258
-0.597362
-0.202669
0.307225
0.466151
0.581662
0.107746
-0.341042
-0.345842
-0.197818
0.00101766
0.146728
0.0501667
0.321948
-0.216313
0.140769
-0.231795
0.0980398
-0.072283
0.0409819
-0.0964045
0.0990012
0.000441466
-0.13276
0.0332372
0.205992
-0.0757548
0.000313051
-0.129213
-0.288611
0.255958
-0.0243254
0.073804
-0.285829
0.0705133
0.444081
-0.251014
-0.26725
0.184777
-0.0703247
0.165097
-0.318437
0.258871
-0.0132088
0.0813108
0.250629
-0.187068
-0.00567179
-0.0636626
0.189093
0.0227194
-0.0894101
-0.102362
-0.26374
-0.0688452
0.105527
0.189908
0.0801026
-0.0580078
0.0325907
-0.0796156
-0.0937564
0.0836199
-0.0523861
0.0873808
-0.437337
0.00759312
0.313196
0.113722
0.444917
0.0298465
-0.21558
-0.254632
0.0196781
-0.25062
0.32799
-0.0837921
0.220718
0.0393645
-0.179418
-0.516412
0.342434
-0.0723392
0.234901
0.428814
-0.308409
-0.0172442
-0.111505
-0.214866
-0.0562674
0.0800046
0.157008
0.168707
0.0614613
-0.0873703
-0.117456
-0.322856
0.246882
-0.159241
0.26043
0.129939
-0.360149
0.273898
-0.4089
0.00198142
0.139156
0.246814
0.376979
0.20282
-0.248082
-0.303315
-0.112459
0.22792
-0.474403
0.341937
0.517417
0.244153
-0.345882
-0.393723
0.212226
-0.316736
0.553789
-0.430881
-0.610733
-0.107175
0.264316
0.439348
-0.319848
-0.0894206
0.151767
0.231853
0.457431
0.162836
-0.265783
-0.331635
-0.342169
0.264296
-0.164014
0.262416
0.353135
-0.191858
0.000536499
-0.171818
-0.442764
0.210434
-0.0385179
0.279338
0.16186
0.043408
-0.0735789
-0.108675
0.379334
-0.194861
0.0928558
-0.295954
-0.352798
0.282453
-0.195455
0.287355
-0.431129
0.26967
-0.156255
0.333932
-0.245762
0.087532
0.515116
-0.372323
0.0170054
0.279469
-0.409882
0.104968
0.215316
-0.132731
0.0833513
-0.196245
-0.146776
0.000874572
0.0329372
0.0926504
0.259515
-0.154157
-0.359779
0.278633
0.381442
0.203436
-0.258565
-0.305586
-0.182392
0.109735
-0.0291145
0.122693
0.182187
-0.13305
0.0372941
-0.10685
0.401252
-0.289365
-0.0223731
-0.102759
-0.265271
0.470402
-0.338509
-0.34597
0.178461
0.567398
-0.401271
-0.328245
0.21082
-0.129333
0.249633
-0.435598
-0.115181
0.330804
0.294655
-0.188828
0.106361
-0.203821
0.321351
-0.236913
-0.00549458
-0.0820296
-0.518834
-0.172369
0.306759
0.387041
0.233317
0.109373
-0.156314
-0.189821
0.35394
-0.23243
0.143679
-0.244797
-0.281801
0.143519
-0.0830704
0.203685
-0.374163
0.180381
0.00215999
0.1813
-0.0973769
0.0317654
-0.00144014
0.0563078
-0.158058
-0.0910021
0.13317
0.131414
-0.0637665
0.161316
-0.408262
0.287673
0.267955
0.114083
-0.157295
-0.200165
0.19335
0.0810313
-0.122689
-0.176432
-0.192895
-0.116289
0.173073
0.160433
-0.21455
0.0924273
0.00466871
0.10397
-0.268983
0.22358
-0.104343
0.170299
0.279269
-0.122371
-0.00907872
-0.167162
0.102083
0.0162236
-0.0489505
-0.0521316
-0.000423737
0.0321285
-0.101927
0.0566354
-0.17936
0.05693
0.378369
-0.279204
0.204927
-0.121398
-0.283315
0.227766
0.132446
0.011665
-0.0939217
-0.0331232
-0.221745
-0.066174
0.0950597
0.160515
-0.188497
0.116626
-0.0297682
0.12298
0.0986484
0.0283495
-0.0414513
-0.0631209
-0.092732
0.0914546
-0.00714033
0.0231837
0.141365
-0.09592
0.0547124
-0.128569
0.0358583
0.284165
0.00188064
-0.0187241
0.0580095
-0.0690529
-0.0432458
0.306815
0.0792345
-0.565632
0.442504
0.0720062
-0.0264921
0.062884
-0.473149
-0.0137092
0.0925706
-0.048667
0.0232827
0.00384792
-0.000336966
0.00699256
-0.0790023
-0.0109044
-0.0030702
0.0164573
-0.103339
0.0131949
-0.00357958
0.10033
-0.0830035
0.273038
-0.0274836
0.00252889
-0.00187031
-0.15553
0.147085
0.145028
-0.0237307
0.0992098
-0.13905
0.0758936
-0.0774298
0.0416334
-0.102611
-0.0178378
0.0521375
0.041383
-0.0261316
0.0408557
-0.0497533
-0.0748981
0.0320833
0.085476
0.0130323
-0.0397947
-0.0391689
0.0167791
-0.0229174
0.0386299
-0.0112604
0.0338076
0.027749
-0.0168629
0.0257844
-0.0353245
0.0921601
-0.0454296
-0.0722962
0.213333
-0.172812
0.215624
-0.204927
0.109381
-0.223445
0.159334
-0.170005
-0.23063
-0.141394
0.17225
-0.194799
-0.061143
0.0493068
-0.107948
-0.0336425
0.0669798
0.0843962
-0.157787
0.187385
0.257668
0.00583309
-0.00813969
0.0140782
-0.00578523
0.00867618
-0.0146897
0.0249403
-0.0897504
-0.0860006
0.0990684
-0.0461154
0.0748262
-0.023882
0.0211892
-0.0419201
-0.106512
0.175453
0.188598
0.0702295
-0.189262
-0.220547
0.198012
-0.193906
-0.259295
0.265715
-0.235936
-0.37065
-0.151219
0.265617
0.27816
0.00463878
-0.0137282
-0.0110538
-0.00376664
0.0117255
0.00888893
-0.0423768
0.0305538
-0.0353967
-0.391931
0.428339
-0.538231
0.529182
-0.345769
-0.560108
0.0565155
-0.0414075
-0.0557543
0.0825481
-0.0599376
0.0929941
0.445871
-0.455559
0.483276
-0.274767
0.233251
0.418893
-0.382818
0.309016
0.457179
0.0210773
-0.0161536
-0.0204897
0.249265
-0.253606
-0.308469
0.400136
-0.397728
-0.569411
-0.154119
0.186396
-0.316512
-0.00949423
-0.0063072
-8.58345e-14
0.00931488
0.00871994
-0.000791302
-0.0055237
-0.00870998
3.2083e-07
-0.0189544
-0.0159591
0.000244742
0.456137
-0.45053
0.60119
0.403862
-0.389959
0.443693
0.0412351
-0.0518149
0.0865379
0.287405
-0.254432
-0.469599
0.26389
-0.278231
-0.252476
0.0182625
0.0165856
-0.00164462
-0.0220336
-0.0245887
-0.000253265
0.414244
-0.540685
0.510981
0.48659
-0.334971
-0.588968
-0.179355
0.143754
0.235283
-0.088308
0.138265
0.222723
-0.130656
0.0746905
-0.219709
-0.181927
0.228133
-0.263383
-0.131078
0.116173
-0.169038
0.0255507
-0.0348007
-0.0651685
-0.1218
0.0871008
-0.16353
-0.00554407
0.00815114
-0.00888962
0.0061209
-0.00871808
0.0110538
0.104313
-0.0539952
0.104568
0.441001
-0.449266
0.625451
0.51379
-0.402205
-0.537794
0.0848723
-0.155689
0.231862
0.0837266
-0.0818667
-0.120402
0.0172032
0.0125499
-1.08725e-05
0.0902841
-0.108501
0.126205
0.116871
-0.0610497
0.11113
0.210641
-0.197152
-0.23155
0.307672
-0.285448
0.360423
-0.342244
0.321732
-0.541467
-0.250667
0.291475
-0.284415
0.207422
-0.174047
-0.201228
0.109318
-0.131151
-0.234048
0.157179
-0.163622
0.195653
-0.21458
0.244869
0.255615
-0.395674
0.369267
0.57769
-0.289997
0.274452
-0.407704
0.133225
-0.0866489
0.138072
0.0872234
-0.104315
-0.110284
0.082932
-0.079422
0.164437
-0.0501973
0.0511091
0.0671604
0.0901508
-0.0765857
-0.0777683
-0.0440764
0.0511571
0.069855
0.197301
-0.248494
0.399418
-0.0362658
0.0253906
-0.0720024
-0.393716
0.234331
0.53731
0.0407295
-0.0253612
0.048563
-0.13498
0.0814373
-0.224007
0.157415
-0.129683
0.155536
0.0141771
0.0188668
-1.00088e-12
0.0386465
-0.0358403
-0.0388812
0.095479
-0.0923926
-0.127596
-0.171812
0.235783
-0.229142
0.425487
-0.44511
0.619386
-0.15929
0.243252
-0.198349
0.0933983
-0.0406643
-0.0714776
-0.208612
0.207064
0.221033
0.0978477
-0.0683589
-0.0559855
-0.0361528
0.0417369
0.0592575
0.0506319
-0.0630679
0.068045
-0.00451828
0.0133282
0.0146964
0.00388009
-0.0121538
-0.0140757
-0.16385
0.176636
0.190173
-0.0889938
0.0521967
0.116598
-0.0871186
0.0922714
-0.172237
0.109954
-0.0809184
0.124464
-0.0435872
0.033576
0.0851505
0.0977548
-0.0480095
-0.0746449
-0.0513181
0.0403366
0.084091
0.0676486
-0.0840586
-0.145008
0.1128
-0.154435
-0.245028
-0.201419
0.115114
0.207486
0.116973
-0.0934245
-0.109514
-0.0272034
0.0514307
-0.0547695
-0.026234
0.059339
0.055713
0.0990138
-0.121427
0.190662
-0.0267794
0.0125708
0.0320329
-0.149549
0.170395
-0.188128
0.173966
-0.160625
-0.264486
0.129821
-0.214491
0.263836
-0.117141
0.143383
-0.170227
0.0315369
-0.0586571
0.0811411
-0.0280702
0.0145439
-0.0279486
-0.0421642
0.0623679
0.0639944
-0.0268022
0.0428755
-0.0404743
0.0743023
-0.0391433
0.0671112
0.0629878
-0.0713183
-0.0664929
0.080323
-0.102873
0.118213
0.0272771
-0.0633564
-0.0801751
-0.0267973
0.0148407
-0.037253
-0.0184001
0.0511425
0.0383625
-0.158543
0.166386
0.198165
-0.0941887
0.02753
-0.0826839
0.0969582
-0.0456438
0.0754693
-0.079735
0.0248005
-0.0959225
-0.0281484
0.0381927
0.0424373
-0.255923
0.364559
0.474988
0.0782069
-0.0341024
-0.0566425
0.391661
-0.412558
-0.6068
0.0506547
-0.0243546
0.0452267
-0.0350291
0.0198943
-0.0542879
-0.06806
0.0619405
-0.0572685
0.390891
-0.30384
0.495717
-0.0786262
0.0432403
-0.11999
-0.0561119
0.0781866
0.108893
-0.141137
0.134498
0.16248
-0.0212947
0.0320996
0.0437739
0.0713686
-0.064856
0.110615
-0.117141
0.123785
-0.128221
0.126576
-0.11388
-0.217515
-0.151958
0.0931223
0.237127
0.0920452
-0.0725507
0.144939
-0.221499
0.244407
-0.234248
-0.136697
0.16811
-0.33453
0.13483
-0.152739
-0.143275
-0.048694
0.0337299
0.0713708
-0.00662721
-0.00434342
-8.68673e-13
0.0140733
0.00906276
-0.0021561
-0.0148041
-0.0136772
5.29048e-06
0.0551788
-0.0301294
0.0506444
0.00357065
0.00800214
0.000895069
-0.0124397
-0.00811974
1.35055e-12
-0.0136116
-0.0162524
-0.000731903
-0.00711833
-0.0114394
-4.59704e-07
0.0166825
0.0087136
0.00175702
0.0654005
-0.0965153
-0.143149
0.0403651
-0.0384186
-0.0396444
-0.114346
0.106314
0.133345
-0.00504224
-0.00732603
3.76754e-13
-0.0477027
0.0399386
-0.0584195
-0.0485242
0.0282663
0.0624796
-0.239514
0.190935
0.337319
-0.18561
0.15222
-0.36432
0.245549
-0.269713
0.353754
-0.0823189
0.121855
-0.185439
-0.0770065
0.099345
0.147043
-0.124837
0.0759192
-0.150078
0.217536
-0.119718
-0.305772
-0.0885288
0.113578
0.145069
-0.122266
0.0821103
-0.11393
-0.219571
0.206228
0.283921
-0.298459
0.297305
-0.357279
-0.27986
0.289507
-0.381621
0.312371
-0.334768
-0.415108
-0.329932
0.226691
-0.411844
-0.126053
0.21095
0.349897
-0.243711
0.141197
-0.417965
-0.376114
0.323512
0.461823
0.279179
-0.385355
-0.440925
0.243455
-0.190382
0.281422
0.206586
-0.1812
0.282234
-0.179662
0.171238
0.27651
-0.127026
0.101867
-0.17886
-0.106152
0.142243
0.197549
-0.165897
0.110897
-0.198195
0.31028
-0.251103
-0.483663
0.161401
-0.307423
0.381669
-0.283961
0.236855
-0.467925
0.441728
-0.386273
-0.521644
0.432869
-0.365675
-0.534039
-0.458238
0.454336
0.56059
0.151959
-0.140546
0.231828
0.220025
-0.205859
-0.360787
-0.0386573
0.02194
-0.0724985
-0.0268515
0.0378421
-0.0890376
-0.283648
0.278393
-0.438051
0.387944
-0.48559
0.549002
-0.127551
0.151017
0.179847
-0.0584527
0.0940041
0.154846
-0.109972
0.0581726
-0.196932
0.127432
-0.159449
-0.272212
-0.260783
0.22536
0.272529
0.395895
-0.284896
-0.353458
-0.218491
0.223373
-0.294154
-0.304336
0.335189
-0.48695
-0.410024
0.396126
0.631157
-0.423718
0.219526
0.520483
0.176837
-0.225535
-0.271357
0.273617
-0.181288
0.309697
-0.324499
0.363538
-0.46222
-0.2625
0.427538
-0.46127
0.369449
-0.349842
-0.556935
-0.300718
0.334226
0.371186
-0.450935
0.451101
0.540855
-0.187288
0.231245
0.256455
-0.256634
0.282973
-0.344937
0.202051
-0.275983
-0.335717
0.31034
-0.222243
0.393657
-0.30614
0.277929
-0.414765
-0.115955
0.181893
0.289348
-0.165947
0.102598
-0.278712
0.317095
-0.281339
-0.351899
-0.16431
0.158328
0.230197
0.233836
-0.259369
0.328126
0.185335
-0.206628
0.231429
-0.0947755
0.115013
0.154111
-0.23102
0.382703
-0.558299
-0.142991
0.153032
-0.147963
-0.0957098
0.0946476
-0.189987
-0.0941218
0.0898218
0.143634
-0.106126
0.0804672
-0.112005
-0.0871867
0.124319
-0.15953
-0.423674
0.226233
0.564359
0.247779
-0.346128
0.410534
0.379983
-0.396204
-0.492308
0.161206
-0.163657
0.177096
0.105647
-0.13571
-0.22666
0.227539
-0.171881
-0.193152
0.307668
-0.32382
0.394063
0.22917
-0.190331
-0.342293
0.0976054
-0.079775
-0.0759595
-0.0700957
0.0721898
0.101612
0.125424
-0.114949
0.135236
0.0943286
-0.07283
0.138562
-0.132459
0.107188
-0.136516
-0.236222
0.140607
0.330114
-0.126773
0.196699
-0.324226
0.290655
-0.235106
-0.271163
0.144703
-0.175552
0.186301
-0.671681
-0.254498
0.556067
-0.224502
-0.0786937
-0.161498
0.24402
0.0605497
0.17597
-0.158369
-0.116496
-0.639686
0.0979253
0.274791
-0.582516
-0.29969
-0.113263
0.272998
0.00702604
0.0948671
-1.23464e-14
-0.00990027
0.000443478
0.00990027
-0.0193571
-3.50938e-19
1.6543e-14
0.00249106
1.36269e-15
-0.0173095
0.734842
-0.552381
0.15672
-0.0684713
-0.168233
0.179498
0.0664236
-0.121319
-0.00130754
0.0637916
-0.0995809
-0.0765895
-0.0166609
0.738614
-0.155201
0.194752
-0.770755
0.683306
-0.406591
-0.0648683
-0.0057625
0.167172
-0.0535216
-0.113954
0.162528
-0.570942
0.118177
0.118898
0.196237
-0.497031
-0.49478
0.349104
0.221717
-0.33959
0.678754
-0.665978
-0.100974
-0.240725
0.129391
0.0229413
-0.0329494
0.450543
-0.78483
-0.0362898
-0.763027
0.823915
0.415203
0.390348
-0.790823
0.0290345
-0.377789
-0.2542
-0.53143
0.436037
-0.653189
0.0580337
0.293754
0.0828085
0.00931834
-0.169721
0.205621
-0.171293
0.092196
-0.141112
0.375378
-0.0672819
-0.218197
0.461383
-0.429096
-0.233159
0.300453
0.240774
0.00928395
0.0226762
-0.601097
0.276834
-0.757495
0.953518
-0.611045
0.464332
0.308211
-0.652204
-0.361834
-0.0426501
-0.658432
0.750545
-0.192345
0.222642
-0.376084
0.38208
-0.295322
0.131881
0.213502
-0.310858
-0.0325424
0.181079
0.474004
-0.340907
-0.187006
0.119213
0.189138
-0.237534
-0.120604
-0.153882
-0.0513688