/*--------------------------------*- C++ -*----------------------------------*\
  =========                 |
  \\      /  F ield         | OpenFOAM: The Open Source CFD Toolbox
   \\    /   O peration     | Website:  https://openfoam.org
    \\  /    A nd           | Version:  6
     \\/     M anipulation  |
\*---------------------------------------------------------------------------*/
FoamFile
{
    version     2.0;
    format      ascii;
    class       volScalarField;
    location    "4.5";
    object      p;
}
// * * * * * * * * * * * * * * * * * * * * * * * * * * * * * * * * * * * * * //

dimensions      [1 -1 -2 0 0 0 0];

internalField   nonuniform List<scalar> 
5625
(
1.03584
1.03212
1.0269
1.0207
1.01397
1.00707
1.0003
0.993927
0.988153
0.983148
0.97909
0.976098
0.97422
0.973498
0.973892
0.975247
0.977385
0.980023
0.982729
0.985177
0.987241
0.988722
0.989371
0.989242
0.988595
0.98753
0.986147
0.984774
0.98368
0.982918
0.982586
0.982822
0.983508
0.984385
0.985328
0.986226
0.986782
0.98666
0.98578
0.984277
0.982279
0.979863
0.977222
0.97475
0.972908
0.972007
0.972114
0.973137
0.974985
0.977693
0.981424
0.986373
0.992636
1.00008
1.0083
1.01661
1.02417
1.03014
1.03391
1.03524
1.03427
1.03149
1.02753
1.02305
1.01858
1.0145
1.011
1.00814
1.0059
1.0042
1.00295
1.00205
1.00142
1.00098
1.00067
1.03679
1.03382
1.02922
1.02348
1.01706
1.01032
1.0036
0.99717
0.991226
0.985936
0.981475
0.977975
0.975509
0.974116
0.973758
0.974382
0.975888
0.978007
0.980404
0.982901
0.985325
0.987341
0.988735
0.989603
0.990025
0.989957
0.989534
0.989037
0.988556
0.988091
0.987794
0.987762
0.987845
0.987883
0.987863
0.987701
0.987138
0.985987
0.984319
0.982313
0.980068
0.977655
0.975281
0.973318
0.972138
0.971936
0.972694
0.97429
0.976657
0.979861
0.984078
0.989481
0.996106
1.00375
1.01192
1.0199
1.02684
1.03197
1.03482
1.03527
1.03358
1.0303
1.02609
1.02156
1.01719
1.01329
1.01001
1.00736
1.00531
1.00377
1.00264
1.00184
1.00127
1.00088
1.00061
1.03741
1.0353
1.03139
1.02619
1.02015
1.01366
1.00705
1.00061
0.994546
0.989035
0.984243
0.980293
0.977277
0.975236
0.97418
0.974099
0.974898
0.976357
0.978295
0.980587
0.982957
0.985067
0.986833
0.988308
0.989389
0.989989
0.990272
0.990383
0.990284
0.990018
0.989764
0.989533
0.989175
0.988642
0.987982
0.987108
0.985832
0.984108
0.982093
0.97996
0.977779
0.975622
0.973709
0.97238
0.971915
0.972409
0.973782
0.975914
0.978769
0.982445
0.987122
0.992937
0.999861
1.00761
1.01562
1.02313
1.02933
1.03354
1.03542
1.03498
1.03262
1.02891
1.02452
1.02001
1.01578
1.0121
1.00904
1.00661
1.00475
1.00336
1.00235
1.00163
1.00113
1.00078
1.00054
1.03766
1.03648
1.03337
1.02879
1.02322
1.01704
1.01062
1.00423
0.9981
0.992421
0.987361
0.983035
0.979525
0.976893
0.975202
0.974451
0.974514
0.975254
0.976611
0.978445
0.980452
0.982417
0.984318
0.986056
0.987422
0.98839
0.989096
0.98954
0.98966
0.989556
0.989348
0.988967
0.988318
0.987458
0.986437
0.985157
0.983518
0.981598
0.979588
0.977615
0.975721
0.973998
0.972677
0.972048
0.972303
0.973457
0.975396
0.978017
0.981324
0.985443
0.990546
0.996723
1.00387
1.01161
1.01932
1.02623
1.03156
1.03478
1.03566
1.03437
1.03139
1.02735
1.02285
1.01841
1.01437
1.01092
1.0081
1.00589
1.00421
1.00297
1.00208
1.00145
1.001
1.0007
1.00049
1.03748
1.03729
1.03506
1.03121
1.02618
1.02041
1.01425
1.00799
1.00186
0.996078
0.990809
0.986167
0.982235
0.979102
0.976838
0.975414
0.974741
0.974794
0.975542
0.976787
0.97828
0.979936
0.981694
0.983334
0.984694
0.985817
0.986726
0.98731
0.987548
0.987562
0.987373
0.986883
0.986089
0.985101
0.983939
0.982511
0.980807
0.978984
0.977224
0.9756
0.974142
0.972965
0.972303
0.97239
0.973335
0.975089
0.977533
0.980594
0.984318
0.98885
0.994339
1.00081
1.00808
1.01568
1.02294
1.0291
1.03346
1.03562
1.03551
1.03343
1.02992
1.02562
1.0211
1.01679
1.01298
1.00977
1.0072
1.00521
1.00371
1.00261
1.00183
1.00127
1.00088
1.00062
1.00043
1.03681
1.03765
1.03639
1.03337
1.029
1.02371
1.01789
1.01183
1.00579
0.999972
0.994558
0.98966
0.985382
0.98183
0.979045
0.976992
0.975669
0.97511
0.975216
0.975775
0.97668
0.977908
0.979301
0.98063
0.981835
0.982942
0.983841
0.984406
0.984682
0.984751
0.984553
0.984017
0.983219
0.982264
0.981129
0.979754
0.978213
0.976691
0.975327
0.974158
0.973217
0.972645
0.972661
0.973439
0.975013
0.977298
0.980183
0.983638
0.987744
0.992652
0.998471
1.00515
1.01242
1.01974
1.02639
1.03165
1.03494
1.03601
1.03494
1.03215
1.02822
1.02376
1.01929
1.01518
1.01161
1.00868
1.00635
1.00457
1.00325
1.00228
1.0016
1.00111
1.00078
1.00054
1.00038
1.03561
1.0375
1.03728
1.03518
1.03157
1.02688
1.02149
1.01571
1.00982
1.00406
0.998563
0.993477
0.988941
0.985043
0.981793
0.979206
0.97734
0.976187
0.975604
0.975485
0.975833
0.976571
0.977478
0.978413
0.979371
0.980288
0.981001
0.981457
0.981725
0.981798
0.981581
0.981067
0.980365
0.97953
0.978522
0.97734
0.976115
0.975016
0.974126
0.973457
0.973067
0.973113
0.973787
0.975198
0.977323
0.98006
0.983325
0.987128
0.99158
0.99682
1.0029
1.00969
1.01681
1.02367
1.02955
1.03378
1.03594
1.03591
1.03395
1.03055
1.02631
1.02181
1.01747
1.01358
1.0103
1.00764
1.00556
1.00398
1.00282
1.00198
1.00138
1.00097
1.00068
1.00048
1.00034
1.03388
1.03678
1.03765
1.03655
1.03381
1.02982
1.02496
1.01956
1.01392
1.00827
1.00278
0.997593
0.992878
0.988691
0.985051
0.982029
0.979683
0.977952
0.976747
0.976066
0.97589
0.976066
0.97643
0.976945
0.977578
0.978188
0.97865
0.978982
0.979201
0.979224
0.978985
0.978543
0.977987
0.977318
0.976505
0.975611
0.974786
0.974152
0.973746
0.973583
0.973747
0.974396
0.97568
0.977645
0.980233
0.983343
0.986928
0.99104
0.9958
1.00132
1.00757
1.01433
1.02114
1.02736
1.03229
1.03539
1.03637
1.0353
1.03256
1.02868
1.02425
1.01979
1.01565
1.01204
1.00905
1.00666
1.00482
1.00344
1.00243
1.00171
1.00119
1.00084
1.00059
1.00042
1.0003
1.03165
1.03546
1.03741
1.03739
1.03562
1.03244
1.02822
1.0233
1.018
1.01255
1.00714
1.00196
0.99713
0.992704
0.988771
0.98542
0.982654
0.980413
0.978694
0.97752
0.976808
0.976411
0.976268
0.976378
0.976642
0.976908
0.977122
0.977305
0.977414
0.977352
0.977111
0.976777
0.976386
0.975904
0.975331
0.974774
0.974372
0.974197
0.974257
0.97458
0.975273
0.976482
0.978304
0.980736
0.983697
0.987109
0.990965
0.995345
1.00037
1.00608
1.01239
1.01897
1.02528
1.03066
1.03451
1.03639
1.03621
1.03419
1.03079
1.02657
1.02208
1.01776
1.01387
1.01056
1.00787
1.00576
1.00415
1.00295
1.00208
1.00146
1.00102
1.00072
1.00051
1.00036
1.00026
1.02897
1.03353
1.03651
1.03761
1.0369
1.03463
1.03117
1.02685
1.02198
1.01682
1.0116
1.00649
1.00161
0.99705
0.992934
0.98932
0.986184
0.983524
0.981385
0.979758
0.978539
0.977648
0.977086
0.976808
0.976675
0.976595
0.976572
0.976592
0.976562
0.97642
0.976206
0.975979
0.975736
0.975441
0.975135
0.974934
0.974942
0.975188
0.975673
0.976445
0.977624
0.979328
0.981605
0.984411
0.987663
0.991313
0.995393
0.999999
1.00522
1.01104
1.01726
1.02347
1.02907
1.03344
1.03608
1.03672
1.03545
1.0326
1.02869
1.02428
1.01985
1.01574
1.01216
1.00917
1.00678
1.00493
1.00354
1.00251
1.00177
1.00124
1.00087
1.00062
1.00044
1.00032
1.00023
1.02595
1.03104
1.03493
1.03713
1.03753
1.03628
1.0337
1.03009
1.02577
1.02101
1.01607
1.01111
1.00627
1.00168
0.997458
0.993624
0.990196
0.987231
0.984762
0.982735
0.981081
0.979794
0.978858
0.978185
0.977676
0.977304
0.977071
0.976911
0.976738
0.97654
0.976369
0.976239
0.976116
0.976001
0.975967
0.97611
0.976485
0.977096
0.977958
0.97914
0.980753
0.982875
0.985511
0.988597
0.992065
0.9959
1.00016
1.00495
1.01029
1.01609
1.02204
1.02766
1.03235
1.03555
1.03691
1.03635
1.03409
1.03057
1.02634
1.02189
1.01762
1.01379
1.01054
1.00788
1.00579
1.00419
1.00299
1.00212
1.00149
1.00105
1.00074
1.00053
1.00038
1.00027
1.0002
1.02275
1.02808
1.03267
1.03589
1.03743
1.03729
1.03568
1.03289
1.02924
1.02501
1.02044
1.01572
1.01103
1.00651
1.00223
0.998258
0.994658
0.991491
0.988745
0.986371
0.984367
0.982754
0.981483
0.98046
0.979642
0.979033
0.978597
0.978254
0.977956
0.977727
0.977595
0.97754
0.977529
0.977591
0.977812
0.978259
0.978947
0.97987
0.981061
0.982602
0.984582
0.987038
0.989941
0.993223
0.996842
1.00082
1.00522
1.01011
1.01547
1.02107
1.02655
1.03136
1.03494
1.03687
1.03694
1.03527
1.03219
1.0282
1.02381
1.01945
1.01544
1.01194
1.00903
1.0067
1.00489
1.00352
1.00251
1.00178
1.00125
1.00088
1.00063
1.00045
1.00032
1.00024
1.00018
1.0195
1.02479
1.02982
1.0339
1.03652
1.03753
1.03699
1.03514
1.03228
1.02868
1.0246
1.02024
1.0158
1.01141
1.00718
1.00318
0.9995
0.996176
0.993199
0.990572
0.988326
0.986453
0.984887
0.983578
0.982522
0.981711
0.981084
0.980576
0.980185
0.979941
0.979837
0.979835
0.979927
0.980163
0.980613
0.98131
0.982249
0.98343
0.984903
0.986747
0.989021
0.991726
0.994808
0.998213
1.00193
1.006
1.01048
1.01539
1.0206
1.02582
1.03058
1.03436
1.0367
1.0373
1.03616
1.03353
1.02984
1.02557
1.02119
1.01704
1.01335
1.01021
1.00766
1.00564
1.00409
1.00294
1.00209
1.00148
1.00104
1.00074
1.00053
1.00038
1.00028
1.0002
1.00015
1.0164
1.02137
1.02653
1.0312
1.03477
1.0369
1.0375
1.0367
1.03474
1.0319
1.02842
1.02454
1.02044
1.01629
1.0122
1.00827
1.00458
1.00117
0.998063
0.995292
0.992874
0.990779
0.988974
0.987453
0.986217
0.985229
0.984432
0.983803
0.983357
0.983099
0.983
0.983036
0.983228
0.983626
0.98427
0.98516
0.98629
0.987682
0.989391
0.991478
0.993967
0.996829
1.00001
1.00348
1.00725
1.01136
1.01585
1.02064
1.02551
1.0301
1.03392
1.0365
1.0375
1.03682
1.03461
1.03123
1.02714
1.02279
1.01857
1.01472
1.01139
1.00863
1.00642
1.0047
1.00339
1.00243
1.00172
1.00122
1.00086
1.00061
1.00044
1.00032
1.00024
1.00018
1.00013
1.01355
1.01802
1.02299
1.02793
1.03222
1.03536
1.0371
1.03743
1.03649
1.03452
1.03176
1.02847
1.02484
1.02103
1.01717
1.0134
1.0098
1.00639
1.00324
1.0004
0.997861
0.995611
0.993645
0.991979
0.990602
0.989468
0.988544
0.987834
0.987348
0.98707
0.986973
0.98705
0.987335
0.987865
0.988652
0.989685
0.990964
0.992523
0.994417
0.996679
0.999302
1.00224
1.00546
1.00894
1.01271
1.01679
1.02116
1.02565
1.02996
1.03368
1.03634
1.0376
1.03727
1.03543
1.03237
1.02848
1.02422
1.01997
1.01602
1.01253
1.00959
1.0072
1.00532
1.00387
1.00279
1.00199
1.00141
1.001
1.00071
1.00051
1.00037
1.00027
1.0002
1.00015
1.00011
1.01104
1.01491
1.01944
1.02431
1.02899
1.03293
1.03572
1.03719
1.03736
1.03638
1.03448
1.0319
1.02884
1.02548
1.02198
1.01846
1.01501
1.0117
1.0086
1.00575
1.00316
1.00083
0.998785
0.997031
0.995546
0.9943
0.993291
0.992533
0.992022
0.991728
0.991633
0.99175
0.992112
0.992739
0.993624
0.994757
0.996149
0.997838
0.999862
1.00223
1.00491
1.00785
1.01105
1.01449
1.01819
1.02214
1.02622
1.03019
1.03368
1.0363
1.03767
1.03758
1.03604
1.03326
1.02958
1.02544
1.02121
1.0172
1.0136
1.01052
1.00798
1.00594
1.00436
1.00316
1.00227
1.00161
1.00115
1.00081
1.00058
1.00042
1.00031
1.00023
1.00017
1.00013
1.0001
1.00887
1.01213
1.01609
1.02061
1.02532
1.02973
1.03337
1.0359
1.0372
1.03731
1.0364
1.03465
1.03228
1.02949
1.02645
1.02327
1.02008
1.01697
1.014
1.01121
1.00864
1.00631
1.00424
1.00244
1.0009
0.999594
0.998551
0.997767
0.997227
0.996914
0.996828
0.99699
0.997417
0.998108
0.999051
1.00025
1.00172
1.0035
1.00559
1.00799
1.01065
1.01355
1.01666
1.01999
1.02353
1.02718
1.03075
1.03395
1.03639
1.03775
1.03778
1.03645
1.0339
1.03044
1.02643
1.02227
1.01824
1.01458
1.01138
1.00871
1.00655
1.00484
1.00354
1.00255
1.00183
1.0013
1.00092
1.00066
1.00047
1.00034
1.00025
1.00019
1.00014
1.00011
1.00008
1.00704
1.00972
1.01308
1.01707
1.0215
1.02602
1.03018
1.03357
1.03592
1.03715
1.0373
1.03652
1.03498
1.03289
1.03041
1.0277
1.02487
1.02204
1.01928
1.01664
1.01417
1.0119
1.00987
1.00807
1.00651
1.0052
1.00415
1.00336
1.00281
1.00249
1.00243
1.00263
1.00309
1.00382
1.00479
1.00603
1.00754
1.00936
1.01146
1.01382
1.0164
1.01918
1.02215
1.02527
1.02849
1.03163
1.03445
1.03663
1.03786
1.0379
1.03669
1.03431
1.03103
1.02717
1.0231
1.01911
1.01541
1.01215
1.00939
1.00712
1.00531
1.0039
1.00284
1.00204
1.00146
1.00104
1.00074
1.00053
1.00038
1.00028
1.00021
1.00016
1.00012
1.00009
1.00007
1.00553
1.0077
1.01047
1.01386
1.01781
1.0221
1.0264
1.03033
1.03354
1.0358
1.03703
1.0373
1.03672
1.03546
1.03368
1.03155
1.0292
1.02675
1.02428
1.02187
1.01957
1.01744
1.0155
1.01376
1.01224
1.01097
1.00994
1.00916
1.00862
1.00831
1.00827
1.0085
1.00898
1.00972
1.0107
1.01195
1.01347
1.01526
1.0173
1.01955
1.02199
1.02458
1.02729
1.03006
1.03275
1.03515
1.03699
1.03799
1.03794
1.03675
1.03449
1.03136
1.02765
1.02369
1.01976
1.01608
1.0128
1.00998
1.00763
1.00574
1.00425
1.00311
1.00225
1.00161
1.00115
1.00082
1.00059
1.00042
1.00031
1.00023
1.00017
1.00013
1.0001
1.00008
1.00006
1.00429
1.00602
1.00827
1.01107
1.01444
1.01829
1.02241
1.0265
1.03022
1.03329
1.03551
1.03683
1.03728
1.03696
1.03601
1.03459
1.03284
1.03088
1.02881
1.02673
1.02469
1.02276
1.02097
1.01935
1.01793
1.01673
1.01575
1.015
1.01449
1.01422
1.0142
1.01444
1.01492
1.01565
1.01662
1.01784
1.01932
1.02103
1.02293
1.02501
1.02721
1.0295
1.03181
1.03402
1.03596
1.03739
1.0381
1.03787
1.03664
1.03443
1.03142
1.02785
1.02402
1.02019
1.01657
1.01329
1.01045
1.00807
1.00612
1.00457
1.00336
1.00245
1.00177
1.00126
1.0009
1.00065
1.00047
1.00034
1.00025
1.00019
1.00014
1.00011
1.00008
1.00007
1.00005
1.00328
1.00466
1.00645
1.00871
1.0115
1.0148
1.01851
1.02242
1.02629
1.02984
1.03281
1.03504
1.03649
1.03716
1.03714
1.03656
1.03553
1.03419
1.03264
1.03098
1.02929
1.02764
1.02608
1.02465
1.02337
1.02228
1.02139
1.0207
1.02024
1.02001
1.02002
1.02026
1.02073
1.02142
1.02235
1.0235
1.02487
1.02642
1.02812
1.02991
1.03176
1.0336
1.03532
1.03677
1.03777
1.03812
1.03766
1.03632
1.03412
1.0312
1.02777
1.02408
1.02037
1.01684
1.01362
1.0108
1.0084
1.00643
1.00484
1.00359
1.00263
1.00191
1.00137
1.00098
1.0007
1.0005
1.00037
1.00027
1.0002
1.00015
1.00012
1.00009
1.00007
1.00005
1.00004
1.00249
1.00356
1.00497
1.00678
1.00903
1.01176
1.01493
1.01846
1.02215
1.02581
1.02919
1.03208
1.03435
1.03594
1.03686
1.03718
1.03698
1.03637
1.03545
1.03433
1.0331
1.03183
1.03058
1.0294
1.02833
1.0274
1.02663
1.02604
1.02565
1.02546
1.02549
1.02572
1.02615
1.0268
1.02764
1.02866
1.02985
1.03115
1.03253
1.03393
1.03529
1.0365
1.03746
1.038
1.03797
1.03724
1.03576
1.03353
1.03068
1.02739
1.02386
1.0203
1.01689
1.01377
1.011
1.00863
1.00666
1.00505
1.00377
1.00278
1.00203
1.00147
1.00105
1.00075
1.00054
1.00039
1.00029
1.00021
1.00016
1.00012
1.00009
1.00007
1.00006
1.00005
1.00004
1.00186
1.00269
1.00379
1.0052
1.00699
1.00919
1.01182
1.01483
1.01815
1.02162
1.02505
1.02826
1.03108
1.03339
1.03514
1.03631
1.03696
1.03714
1.03694
1.03647
1.0358
1.035
1.03414
1.03329
1.03249
1.03178
1.03118
1.03072
1.03042
1.03029
1.03033
1.03053
1.03091
1.03145
1.03215
1.03297
1.03388
1.03484
1.03579
1.03667
1.03739
1.03786
1.03795
1.03754
1.03654
1.0349
1.03264
1.02986
1.02671
1.02335
1.01997
1.01672
1.01372
1.01105
1.00873
1.00679
1.00519
1.00391
1.0029
1.00213
1.00155
1.00111
1.0008
1.00057
1.00041
1.0003
1.00022
1.00017
1.00013
1.0001
1.00008
1.00006
1.00005
1.00004
1.00003
1.00138
1.00201
1.00285
1.00395
1.00535
1.00709
1.00921
1.01169
1.01452
1.01761
1.02082
1.02403
1.02707
1.0298
1.03213
1.034
1.0354
1.03635
1.03689
1.0371
1.03704
1.03679
1.03642
1.03597
1.0355
1.03506
1.03467
1.03438
1.03418
1.03411
1.03416
1.03433
1.03461
1.03501
1.03549
1.03603
1.03659
1.03711
1.03753
1.03779
1.0378
1.03748
1.03673
1.03548
1.0337
1.03143
1.02873
1.02572
1.02256
1.01938
1.01632
1.01348
1.01093
1.00871
1.00682
1.00526
1.00399
1.00298
1.0022
1.00161
1.00116
1.00084
1.0006
1.00043
1.00031
1.00023
1.00017
1.00013
1.0001
1.00008
1.00006
1.00005
1.00004
1.00003
1.00002
1.00101
1.00149
1.00213
1.00297
1.00405
1.0054
1.00707
1.00907
1.01139
1.014
1.01683
1.01979
1.02276
1.02561
1.02823
1.03054
1.03248
1.03405
1.03525
1.0361
1.03665
1.03697
1.0371
1.03709
1.037
1.03687
1.03674
1.03663
1.03655
1.03654
1.03658
1.03669
1.03686
1.03707
1.03729
1.03749
1.03763
1.03766
1.03752
1.03714
1.03647
1.03543
1.03399
1.03213
1.02987
1.02728
1.02444
1.02149
1.01854
1.01569
1.01305
1.01065
1.00855
1.00675
1.00524
1.00401
1.00302
1.00224
1.00165
1.0012
1.00086
1.00062
1.00044
1.00032
1.00023
1.00017
1.00013
1.0001
1.00008
1.00006
1.00005
1.00004
1.00003
1.00003
1.00002
1.00073
1.00109
1.00157
1.00221
1.00303
1.00407
1.00536
1.00693
1.00879
1.01092
1.0133
1.01587
1.01856
1.02126
1.02389
1.02636
1.0286
1.03056
1.03222
1.03358
1.03466
1.03548
1.03608
1.0365
1.03679
1.03698
1.03709
1.03717
1.03723
1.03727
1.03731
1.03735
1.03737
1.03736
1.0373
1.03715
1.03687
1.03642
1.03576
1.03483
1.03361
1.03205
1.03016
1.02797
1.02552
1.02289
1.02018
1.01748
1.01487
1.01243
1.01022
1.00826
1.00657
1.00514
1.00396
1.00301
1.00225
1.00166
1.00121
1.00088
1.00063
1.00045
1.00033
1.00024
1.00017
1.00013
1.0001
1.00008
1.00006
1.00005
1.00004
1.00003
1.00003
1.00002
1.00002
1.00053
1.00079
1.00115
1.00163
1.00225
1.00303
1.00402
1.00524
1.00668
1.00838
1.01031
1.01244
1.01474
1.01715
1.01958
1.02196
1.02424
1.02635
1.02825
1.02991
1.03134
1.03253
1.0335
1.03428
1.03489
1.03535
1.0357
1.03594
1.03611
1.0362
1.03624
1.0362
1.03608
1.03587
1.03554
1.03507
1.03444
1.0336
1.03254
1.03123
1.02966
1.02782
1.02576
1.02349
1.0211
1.01865
1.01622
1.01387
1.01167
1.00965
1.00786
1.0063
1.00497
1.00386
1.00295
1.00222
1.00165
1.00121
1.00088
1.00063
1.00045
1.00033
1.00024
1.00017
1.00013
1.0001
1.00008
1.00006
1.00005
1.00004
1.00003
1.00003
1.00002
1.00002
1.00001
1.00037
1.00057
1.00083
1.00118
1.00165
1.00224
1.00299
1.00391
1.00502
1.00634
1.00786
1.00957
1.01146
1.01349
1.0156
1.01774
1.01986
1.02191
1.02383
1.02559
1.02718
1.02857
1.02977
1.03077
1.0316
1.03226
1.03278
1.03315
1.0334
1.03353
1.03354
1.03344
1.03321
1.03284
1.03231
1.03162
1.03074
1.02966
1.02837
1.02687
1.02517
1.02328
1.02125
1.01912
1.01695
1.0148
1.01272
1.01077
1.00897
1.00735
1.00593
1.00471
1.00369
1.00284
1.00216
1.00161
1.00119
1.00087
1.00062
1.00045
1.00032
1.00023
1.00017
1.00012
1.00009
1.00007
1.00006
1.00005
1.00004
1.00003
1.00003
1.00002
1.00002
1.00001
1.00001
1.00027
1.00041
1.0006
1.00086
1.0012
1.00164
1.0022
1.00289
1.00373
1.00473
1.00591
1.00725
1.00876
1.01039
1.01214
1.01397
1.01582
1.01765
1.01944
1.02113
1.0227
1.02412
1.02539
1.02649
1.02742
1.02818
1.02878
1.02923
1.02953
1.02968
1.02968
1.02953
1.02922
1.02875
1.02812
1.02731
1.02632
1.02515
1.0238
1.02229
1.02063
1.01886
1.01701
1.01514
1.01328
1.01148
1.00977
1.00819
1.00676
1.0055
1.0044
1.00347
1.00269
1.00206
1.00155
1.00115
1.00084
1.00061
1.00043
1.00031
1.00022
1.00016
1.00012
1.00009
1.00007
1.00005
1.00004
1.00003
1.00003
1.00002
1.00002
1.00002
1.00001
1.00001
1.00001
1.00019
1.00029
1.00043
1.00062
1.00087
1.00119
1.0016
1.00212
1.00274
1.0035
1.00439
1.00542
1.00658
1.00787
1.00927
1.01076
1.0123
1.01386
1.0154
1.01691
1.01834
1.01967
1.02088
1.02196
1.02289
1.02366
1.02428
1.02475
1.02506
1.02521
1.0252
1.02502
1.02468
1.02418
1.02352
1.02269
1.02171
1.02057
1.01929
1.01789
1.0164
1.01485
1.01327
1.0117
1.01017
1.00871
1.00735
1.00611
1.00501
1.00404
1.0032
1.0025
1.00193
1.00146
1.00109
1.0008
1.00058
1.00041
1.00029
1.00021
1.00015
1.00011
1.00008
1.00006
1.00005
1.00004
1.00003
1.00003
1.00002
1.00002
1.00002
1.00001
1.00001
1.00001
1.00001
1.00014
1.00021
1.00031
1.00045
1.00063
1.00086
1.00116
1.00154
1.002
1.00256
1.00323
1.004
1.00489
1.00588
1.00697
1.00814
1.00937
1.01063
1.01192
1.01318
1.01441
1.01557
1.01665
1.01762
1.01847
1.01919
1.01978
1.02021
1.0205
1.02063
1.02062
1.02044
1.02012
1.01964
1.01901
1.01824
1.01733
1.01631
1.01518
1.01397
1.0127
1.01141
1.01011
1.00884
1.00762
1.00648
1.00542
1.00447
1.00363
1.0029
1.00229
1.00177
1.00135
1.00101
1.00074
1.00054
1.00039
1.00027
1.00019
1.00014
1.0001
1.00007
1.00005
1.00004
1.00003
1.00003
1.00002
1.00002
1.00002
1.00001
1.00001
1.00001
1.00001
1.00001
1.00001
1.0001
1.00015
1.00022
1.00032
1.00045
1.00062
1.00084
1.00111
1.00145
1.00186
1.00235
1.00292
1.00359
1.00433
1.00516
1.00606
1.00701
1.00801
1.00903
1.01005
1.01106
1.01202
1.01293
1.01375
1.01448
1.01511
1.01561
1.016
1.01625
1.01637
1.01634
1.01618
1.01589
1.01546
1.01491
1.01424
1.01346
1.01259
1.01164
1.01064
1.00961
1.00857
1.00754
1.00654
1.0056
1.00472
1.00392
1.00321
1.00259
1.00205
1.0016
1.00122
1.00092
1.00068
1.00049
1.00035
1.00025
1.00017
1.00012
1.00008
1.00006
1.00004
1.00003
1.00003
1.00002
1.00002
1.00002
1.00001
1.00001
1.00001
1.00001
1.00001
1.00001
1.00001
1
1.00007
1.00011
1.00016
1.00023
1.00033
1.00045
1.00061
1.0008
1.00105
1.00134
1.0017
1.00212
1.00261
1.00316
1.00378
1.00445
1.00518
1.00594
1.00673
1.00753
1.00832
1.00908
1.00981
1.01048
1.01108
1.0116
1.01202
1.01233
1.01254
1.01263
1.01261
1.01247
1.01222
1.01186
1.01139
1.01084
1.0102
1.00949
1.00873
1.00793
1.00712
1.00631
1.00551
1.00475
1.00403
1.00338
1.00278
1.00225
1.0018
1.00141
1.00109
1.00082
1.00061
1.00044
1.00032
1.00022
1.00015
1.0001
1.00007
1.00005
1.00003
1.00003
1.00002
1.00002
1.00001
1.00001
1.00001
1.00001
1.00001
1.00001
1.00001
1.00001
1.00001
1
1
1.00005
1.00008
1.00012
1.00017
1.00024
1.00033
1.00044
1.00058
1.00075
1.00097
1.00122
1.00153
1.00188
1.00228
1.00273
1.00323
1.00377
1.00435
1.00494
1.00554
1.00615
1.00674
1.00731
1.00783
1.0083
1.00871
1.00904
1.00929
1.00945
1.00952
1.0095
1.00939
1.00918
1.00889
1.00851
1.00806
1.00755
1.007
1.0064
1.00579
1.00516
1.00454
1.00394
1.00338
1.00285
1.00236
1.00193
1.00155
1.00122
1.00094
1.00072
1.00053
1.00039
1.00027
1.00019
1.00013
1.00009
1.00006
1.00004
1.00002
1.00002
1.00001
1.00001
1.00001
1.00001
1.00001
1.00001
1.00001
1.00001
1.00001
1.00001
1
1
1
1
1.00004
1.00006
1.00009
1.00013
1.00018
1.00024
1.00032
1.00042
1.00054
1.0007
1.00088
1.00109
1.00135
1.00164
1.00197
1.00233
1.00272
1.00314
1.00358
1.00403
1.00448
1.00492
1.00535
1.00575
1.00611
1.00641
1.00667
1.00686
1.00698
1.00703
1.00701
1.00692
1.00675
1.00652
1.00623
1.00588
1.00549
1.00506
1.00461
1.00414
1.00367
1.00321
1.00277
1.00235
1.00196
1.00161
1.0013
1.00103
1.0008
1.00061
1.00045
1.00033
1.00023
1.00016
1.00011
1.00007
1.00004
1.00002
1.00001
1.00001
1.00001
1
1
1
1.00001
1.00001
1.00001
1.00001
1
1
1
1
1
1
1
1.00003
1.00005
1.00007
1.00009
1.00013
1.00018
1.00023
1.0003
1.00039
1.0005
1.00063
1.00078
1.00096
1.00117
1.0014
1.00166
1.00194
1.00225
1.00256
1.00289
1.00322
1.00355
1.00386
1.00415
1.00442
1.00465
1.00483
1.00497
1.00506
1.0051
1.00508
1.005
1.00487
1.00469
1.00447
1.0042
1.00391
1.00358
1.00325
1.0029
1.00255
1.00222
1.0019
1.00159
1.00132
1.00107
1.00085
1.00066
1.00051
1.00038
1.00027
1.00019
1.00013
1.00008
1.00005
1.00003
1.00001
1
1
0.999999
0.999999
0.999999
1
1
1
1
1
1
1
1
1
1
1
1
1
1.00003
1.00004
1.00005
1.00007
1.0001
1.00013
1.00017
1.00023
1.00029
1.00036
1.00045
1.00056
1.00069
1.00083
1.001
1.00118
1.00138
1.00159
1.00182
1.00205
1.00229
1.00252
1.00275
1.00296
1.00315
1.00332
1.00345
1.00355
1.00361
1.00363
1.00361
1.00355
1.00345
1.00331
1.00314
1.00294
1.00272
1.00249
1.00224
1.00199
1.00174
1.00149
1.00126
1.00105
1.00086
1.00069
1.00054
1.00041
1.0003
1.00021
1.00015
1.0001
1.00006
1.00003
1.00001
1
0.999995
0.999992
0.999991
0.999992
0.999994
0.999996
0.999998
1
1
1
1
1
1
1
1
1
1
1
1
1.00002
1.00003
1.00004
1.00006
1.00008
1.0001
1.00013
1.00017
1.00021
1.00027
1.00033
1.0004
1.00049
1.0006
1.00071
1.00084
1.00098
1.00113
1.00129
1.00145
1.00161
1.00178
1.00194
1.00208
1.00222
1.00233
1.00243
1.00249
1.00253
1.00254
1.00252
1.00248
1.0024
1.0023
1.00217
1.00202
1.00186
1.00169
1.00151
1.00133
1.00115
1.00098
1.00082
1.00067
1.00054
1.00042
1.00032
1.00023
1.00017
1.00011
1.00007
1.00004
1.00001
0.999999
0.999991
0.999986
0.999985
0.999986
0.999988
0.99999
0.999993
0.999995
0.999997
0.999998
1
1
1
1
1
1
1
1
1
1
1
1.00002
1.00002
1.00003
1.00005
1.00006
1.00008
1.0001
1.00013
1.00016
1.0002
1.00024
1.0003
1.00036
1.00043
1.00051
1.0006
1.00069
1.00079
1.0009
1.00102
1.00113
1.00124
1.00135
1.00145
1.00154
1.00162
1.00168
1.00173
1.00175
1.00175
1.00174
1.0017
1.00164
1.00156
1.00147
1.00136
1.00124
1.00112
1.00099
1.00086
1.00074
1.00062
1.00051
1.00041
1.00032
1.00024
1.00017
1.00012
1.00007
1.00004
1.00002
1
0.999988
0.999981
0.999979
0.999979
0.99998
0.999982
0.999985
0.999988
0.999991
0.999994
0.999996
0.999998
0.999999
1
1
1
1
1
1
1
1
1
1
1.00002
1.00002
1.00003
1.00003
1.00005
1.00006
1.00008
1.0001
1.00012
1.00015
1.00018
1.00022
1.00026
1.00031
1.00036
1.00043
1.00049
1.00056
1.00063
1.00071
1.00079
1.00086
1.00093
1.001
1.00106
1.00111
1.00115
1.00118
1.00119
1.00119
1.00117
1.00114
1.0011
1.00104
1.00097
1.00089
1.00081
1.00072
1.00063
1.00054
1.00045
1.00037
1.0003
1.00023
1.00017
1.00012
1.00008
1.00005
1.00002
0.999999
0.999986
0.999978
0.999974
0.999972
0.999973
0.999975
0.999978
0.999982
0.999986
0.999989
0.999992
0.999994
0.999996
0.999998
0.999999
0.999999
1
1
1
1
1
1
1
1
1
1.00001
1.00002
1.00003
1.00003
1.00004
1.00005
1.00006
1.00008
1.00009
1.00011
1.00013
1.00016
1.00019
1.00023
1.00026
1.0003
1.00035
1.0004
1.00045
1.00049
1.00054
1.00059
1.00064
1.00069
1.00073
1.00076
1.00078
1.00079
1.0008
1.00079
1.00078
1.00075
1.00072
1.00068
1.00063
1.00057
1.00051
1.00045
1.00039
1.00032
1.00027
1.00021
1.00016
1.00012
1.00008
1.00005
1.00002
1
0.999986
0.999977
0.999971
0.999968
0.999968
0.999969
0.999972
0.999975
0.999978
0.999982
0.999986
0.999989
0.999992
0.999994
0.999996
0.999998
0.999999
1
1
1
1
1
1
1
1
1
1
1.00001
1.00001
1.00002
1.00002
1.00003
1.00004
1.00005
1.00006
1.00007
1.00009
1.00011
1.00012
1.00014
1.00017
1.0002
1.00022
1.00025
1.00028
1.00031
1.00035
1.00038
1.00041
1.00044
1.00047
1.00049
1.00051
1.00052
1.00053
1.00053
1.00052
1.00051
1.00049
1.00046
1.00043
1.00039
1.00035
1.00031
1.00027
1.00022
1.00018
1.00014
1.00011
1.00007
1.00004
1.00002
1
0.999987
0.999977
0.99997
0.999966
0.999964
0.999964
0.999966
0.999969
0.999973
0.999977
0.999981
0.999985
0.999988
0.99999
0.999993
0.999995
0.999997
0.999998
0.999998
0.999999
0.999999
1
1
1
1
1
1
1
1
1.00001
1.00001
1.00001
1.00002
1.00002
1.00003
1.00004
1.00005
1.00006
1.00007
1.00008
1.0001
1.00011
1.00013
1.00014
1.00016
1.00018
1.0002
1.00022
1.00024
1.00027
1.00029
1.0003
1.00032
1.00033
1.00034
1.00035
1.00035
1.00035
1.00034
1.00033
1.00031
1.00029
1.00026
1.00024
1.00021
1.00018
1.00015
1.00012
1.00009
1.00006
1.00004
1.00002
1
0.999989
0.999977
0.999969
0.999964
0.999961
0.999961
0.999962
0.999965
0.999968
0.999972
0.999975
0.999979
0.999983
0.999986
0.999989
0.999992
0.999994
0.999995
0.999997
0.999998
0.999999
0.999999
1
1
1
1
1
1
1
1
1
1.00001
1.00001
1.00001
1.00001
1.00002
1.00003
1.00003
1.00004
1.00005
1.00006
1.00006
1.00007
1.00008
1.0001
1.00011
1.00012
1.00013
1.00015
1.00016
1.00018
1.00019
1.0002
1.00021
1.00022
1.00023
1.00023
1.00023
1.00023
1.00022
1.00022
1.00021
1.00019
1.00018
1.00016
1.00014
1.00012
1.0001
1.00007
1.00005
1.00004
1.00002
1
0.999989
0.999979
0.999971
0.999966
0.999963
0.999961
0.999961
0.999962
0.999964
0.999967
0.99997
0.999974
0.999978
0.999982
0.999985
0.999988
0.999991
0.999993
0.999995
0.999996
0.999997
0.999998
0.999999
0.999999
1
1
1
1
1
1
1
1
1
1
1.00001
1.00001
1.00002
1.00001
1.00002
1.00003
1.00003
1.00003
1.00004
1.00005
1.00006
1.00006
1.00007
1.00008
1.00009
1.0001
1.00011
1.00012
1.00013
1.00014
1.00014
1.00015
1.00015
1.00015
1.00015
1.00015
1.00015
1.00014
1.00014
1.00013
1.00012
1.0001
1.00009
1.00007
1.00006
1.00004
1.00003
1.00002
1
0.999992
0.999983
0.999975
0.999969
0.999964
0.999961
0.999961
0.999961
0.999963
0.999965
0.999969
0.999972
0.999975
0.999978
0.999981
0.999985
0.999988
0.99999
0.999992
0.999993
0.999995
0.999997
0.999998
0.999999
0.999999
0.999999
1
1
1
1
1
1
1
1
1
1.00001
1.00001
1
1.00001
1.00002
1.00002
1.00002
1.00002
1.00003
1.00003
1.00004
1.00004
1.00005
1.00006
1.00006
1.00007
1.00008
1.00008
1.00009
1.00009
1.0001
1.0001
1.0001
1.0001
1.0001
1.0001
1.0001
1.0001
1.00009
1.00009
1.00008
1.00007
1.00006
1.00005
1.00004
1.00002
1.00001
1
0.999994
0.999986
0.999979
0.999973
0.999968
0.999966
0.999964
0.999964
0.999964
0.999965
0.999967
0.999969
0.999971
0.999975
0.999978
0.999982
0.999985
0.999987
0.99999
0.999992
0.999994
0.999996
0.999997
0.999997
0.999998
0.999998
0.999999
0.999999
1
1
1
1
1
1
1
1
1
1
1.00001
1.00001
1.00001
1.00001
1.00002
1.00002
1.00002
1.00002
1.00003
1.00003
1.00004
1.00004
1.00004
1.00005
1.00005
1.00006
1.00006
1.00007
1.00007
1.00007
1.00007
1.00007
1.00007
1.00007
1.00007
1.00007
1.00006
1.00006
1.00005
1.00005
1.00004
1.00003
1.00002
1.00001
1
0.999998
0.999991
0.999985
0.999979
0.999974
0.999971
0.999968
0.999966
0.999966
0.999966
0.999968
0.999969
0.999972
0.999975
0.999978
0.99998
0.999982
0.999985
0.999987
0.99999
0.999991
0.999993
0.999994
0.999996
0.999997
0.999998
0.999999
0.999999
0.999999
1
1
1
1
1
1
1
1
1
1
1
1
1
1.00001
1.00001
1.00001
1.00001
1.00002
1.00002
1.00002
1.00002
1.00003
1.00003
1.00003
1.00004
1.00004
1.00004
1.00005
1.00005
1.00005
1.00005
1.00005
1.00005
1.00005
1.00005
1.00005
1.00005
1.00004
1.00004
1.00003
1.00003
1.00002
1.00001
1.00001
1
0.999996
0.99999
0.999984
0.99998
0.999976
0.999974
0.999972
0.999971
0.99997
0.99997
0.999971
0.999973
0.999974
0.999976
0.999978
0.999981
0.999984
0.999986
0.999988
0.99999
0.999992
0.999994
0.999995
0.999996
0.999997
0.999998
0.999998
0.999999
0.999999
0.999999
0.999999
1
1
1
1
1
1
1
1
1
1
1.00001
1
1
1.00001
1.00001
1.00001
1.00001
1.00001
1.00002
1.00002
1.00002
1.00002
1.00003
1.00003
1.00003
1.00003
1.00004
1.00004
1.00004
1.00004
1.00004
1.00004
1.00004
1.00004
1.00003
1.00003
1.00003
1.00002
1.00002
1.00001
1.00001
1
1
0.999995
0.999991
0.999988
0.999984
0.999981
0.999978
0.999976
0.999975
0.999974
0.999975
0.999976
0.999977
0.999978
0.99998
0.999981
0.999983
0.999985
0.999987
0.999989
0.999991
0.999992
0.999994
0.999995
0.999996
0.999997
0.999997
0.999998
0.999999
0.999999
1
1
1
1
1
1
1
1
1
1
1
1
0.999998
1
1.00001
1
1
1
1.00001
1.00001
1.00001
1.00001
1.00001
1.00002
1.00002
1.00002
1.00002
1.00002
1.00002
1.00003
1.00003
1.00003
1.00003
1.00003
1.00003
1.00003
1.00003
1.00002
1.00002
1.00002
1.00001
1.00001
1.00001
1
1
0.999997
0.999994
0.99999
0.999986
0.999984
0.999982
0.999981
0.99998
0.999979
0.999979
0.999979
0.99998
0.999981
0.999982
0.999984
0.999985
0.999987
0.999989
0.99999
0.999991
0.999992
0.999994
0.999995
0.999996
0.999997
0.999998
0.999998
0.999999
0.999999
0.999999