/*--------------------------------*- C++ -*----------------------------------*\
  =========                 |
  \\      /  F ield         | OpenFOAM: The Open Source CFD Toolbox
   \\    /   O peration     | Website:  https://openfoam.org
    \\  /    A nd           | Version:  6
     \\/     M anipulation  |
\*---------------------------------------------------------------------------*/
FoamFile
{
    version     2.0;
    format      ascii;
    class       volVectorField;
    location    "1.32";
    object      U;
}
// * * * * * * * * * * * * * * * * * * * * * * * * * * * * * * * * * * * * * //

dimensions      [0 1 -1 0 0 0 0];

internalField   nonuniform List<vector> 
24166
(
(0.893106 0.447705 0)
(0.891312 0.447449 0)
(0.8944 0.4472 0)
(0.8944 0.4472 0)
(0.8944 0.4472 0)
(0.8944 0.4472 0)
(0.8944 0.4472 0)
(0.8944 0.4472 0)
(0.894021 0.447511 0)
(0.8944 0.4472 0)
(0.894396 0.447195 0)
(0.895053 0.446889 0)
(0.895675 0.445332 0)
(0.895265 0.447264 0)
(0.894503 0.447317 0)
(0.8944 0.447199 0)
(0.894552 0.447337 0)
(0.894402 0.447198 0)
(0.8944 0.4472 0)
(0.8944 0.447207 0)
(0.894397 0.447203 0)
(0.8944 0.4472 0)
(0.8944 0.4472 0)
(0.8944 0.4472 0)
(0.894025 0.447485 0)
(0.8944 0.4472 0)
(0.8944 0.4472 0)
(0.903577 0.448401 0)
(0.8944 0.4472 0)
(0.8944 0.4472 0)
(0.89581 0.450255 0)
(0.8944 0.4472 0)
(0.8944 0.4472 0)
(0.8944 0.4472 0)
(0.8944 0.4472 0)
(1.02027 0.287766 0)
(0.8944 0.4472 0)
(1.08943 0.253239 0)
(0.8944 0.4472 0)
(1.5687 0.165216 0)
(0.894378 0.447199 0)
(0.8944 0.4472 0)
(0.8944 0.4472 0)
(0.8944 0.4472 0)
(0.894387 0.447195 0)
(0.8944 0.4472 0)
(0.889946 0.446838 0)
(0.838881 0.394277 0)
(0.8944 0.4472 0)
(0.834595 0.412956 0)
(0.8944 0.4472 0)
(0.894098 0.447106 0)
(0.8944 0.4472 0)
(0.894345 0.447199 0)
(0.894401 0.4472 0)
(0.888738 0.451441 0)
(0.854594 0.386601 0)
(0.8944 0.4472 0)
(0.8944 0.4472 0)
(0.8944 0.447202 0)
(1.44679 0.311155 0)
(0.894447 0.447185 0)
(0.8944 0.4472 0)
(0.8944 0.4472 0)
(0.8944 0.4472 0)
(0.8944 0.4472 0)
(0.8944 0.4472 0)
(0.907561 0.459488 0)
(0.897535 0.440197 0)
(0.8944 0.4472 0)
(0.894401 0.4472 0)
(0.894372 0.447197 0)
(0.8944 0.4472 0)
(0.8944 0.4472 0)
(0.8944 0.4472 0)
(0.8944 0.4472 0)
(0.8944 0.447199 0)
(0.811975 0.391195 0)
(0.8944 0.4472 0)
(0.894399 0.447194 0)
(0.878631 0.498702 0)
(0.8944 0.4472 0)
(0.8944 0.4472 0)
(0.861403 0.477782 0)
(0.894378 0.447203 0)
(0.8944 0.4472 0)
(0.89435 0.447201 0)
(0.8944 0.4472 0)
(0.8944 0.4472 0)
(0.8944 0.4472 0)
(0.8944 0.4472 0)
(0.8944 0.4472 0)
(0.894223 0.447464 0)
(0.8944 0.4472 0)
(0.894153 0.447128 0)
(0.894437 0.447201 0)
(0.8944 0.4472 0)
(0.894486 0.447043 0)
(0.894402 0.4472 0)
(0.8944 0.447201 0)
(0.8944 0.4472 0)
(0.8944 0.4472 0)
(0.894417 0.44718 0)
(0.8944 0.4472 0)
(0.8944 0.4472 0)
(0.8944 0.4472 0)
(0.8944 0.4472 0)
(0.8944 0.447201 0)
(0.8944 0.4472 0)
(0.894402 0.447201 0)
(0.8944 0.4472 0)
(0.8944 0.4472 0)
(0.8944 0.4472 0)
(1.39108 -0.0735816 0)
(1.37312 -0.00833734 0)
(0.8944 0.447199 0)
(0.8944 0.4472 0)
(0.8944 0.4472 0)
(0.894398 0.447187 0)
(0.8944 0.4472 0)
(0.8944 0.4472 0)
(0.8944 0.4472 0)
(0.896193 0.447284 0)
(0.8944 0.4472 0)
(0.89561 0.456964 0)
(0.894379 0.447209 0)
(0.8944 0.4472 0)
(0.8944 0.4472 0)
(0.8944 0.4472 0)
(0.8944 0.4472 0)
(0.793604 0.582534 0)
(0.891373 0.445943 0)
(0.908629 0.444396 0)
(0.893198 0.45104 0)
(0.8944 0.4472 0)
(0.894401 0.447201 0)
(0.8944 0.4472 0)
(0.876349 0.510681 0)
(0.8944 0.4472 0)
(0.894401 0.4472 0)
(0.888308 0.451198 0)
(0.8944 0.4472 0)
(0.868157 0.470088 0)
(0.8944 0.4472 0)
(0.88602 0.448174 0)
(0.8944 0.4472 0)
(0.8944 0.4472 0)
(0.8944 0.4472 0)
(0.787897 0.595709 0)
(0.8944 0.4472 0)
(0.8944 0.4472 0)
(0.8944 0.4472 0)
(0.8944 0.4472 0)
(0.894399 0.447199 0)
(0.8944 0.4472 0)
(0.8944 0.4472 0)
(0.8944 0.4472 0)
(0.8944 0.4472 0)
(0.8944 0.4472 0)
(0.894399 0.447196 0)
(0.907335 0.446839 0)
(0.927843 0.455979 0)
(0.8944 0.4472 0)
(0.8944 0.4472 0)
(0.8944 0.4472 0)
(0.8944 0.4472 0)
(0.332623 0.281912 0)
(0.8944 0.4472 0)
(0.8944 0.4472 0)
(0.8944 0.4472 0)
(0.8944 0.4472 0)
(0.8944 0.4472 0)
(0.8944 0.4472 0)
(0.893675 0.446795 0)
(0.8944 0.4472 0)
(0.893435 0.446537 0)
(0.8944 0.4472 0)
(0.8944 0.4472 0)
(0.894401 0.447201 0)
(0.865809 0.390567 0)
(0.8944 0.4472 0)
(0.8944 0.4472 0)
(0.927917 0.494287 0)
(0.8944 0.4472 0)
(0.8944 0.4472 0)
(0.8944 0.4472 0)
(0.8944 0.4472 0)
(0.8944 0.4472 0)
(0.8944 0.4472 0)
(0.8944 0.4472 0)
(0.8944 0.4472 0)
(0.893564 0.449566 0)
(0.8944 0.4472 0)
(0.894798 0.44773 0)
(0.8944 0.4472 0)
(0.894395 0.44719 0)
(0.897566 0.448618 0)
(0.8944 0.4472 0)
(0.894387 0.447216 0)
(0.894397 0.4472 0)
(0.8944 0.4472 0)
(0.8944 0.4472 0)
(0.8944 0.4472 0)
(0.891634 0.441912 0)
(0.8944 0.4472 0)
(0.8944 0.4472 0)
(0.8944 0.4472 0)
(0.8944 0.4472 0)
(0.8944 0.4472 0)
(0.882951 0.439496 0)
(0.893936 0.452621 0)
(0.8944 0.4472 0)
(0.893011 0.446587 0)
(0.894399 0.447216 0)
(0.8944 0.4472 0)
(0.8944 0.447201 0)
(0.8944 0.4472 0)
(0.8944 0.4472 0)
(1.17465 0.436558 0)
(0.8944 0.4472 0)
(0.8944 0.4472 0)
(0.894879 0.446822 0)
(0.8944 0.4472 0)
(0.8944 0.4472 0)
(0.894819 0.457578 0)
(0.8944 0.4472 0)
(0.8944 0.4472 0)
(0.8944 0.4472 0)
(0.894341 0.44718 0)
(0.8944 0.4472 0)
(0.898131 0.448186 0)
(0.894363 0.447208 0)
(0.894401 0.447161 0)
(0.8944 0.4472 0)
(1.15714 0.203827 0)
(0.8944 0.4472 0)
(0.894473 0.447154 0)
(0.8944 0.4472 0)
(0.8944 0.4472 0)
(0.8944 0.4472 0)
(0.8944 0.4472 0)
(0.8944 0.4472 0)
(0.8944 0.4472 0)
(0.8944 0.4472 0)
(0.894402 0.447214 0)
(0.8944 0.4472 0)
(0.894403 0.447195 0)
(0.894413 0.447192 0)
(0.894481 0.447255 0)
(0.8944 0.4472 0)
(0.894183 0.447372 0)
(0.8944 0.4472 0)
(0.8944 0.447201 0)
(0.933352 0.502989 0)
(0.8944 0.4472 0)
(0.8944 0.4472 0)
(0.8944 0.4472 0)
(0.894495 0.447149 0)
(0.8944 0.4472 0)
(0.894396 0.447202 0)
(0.8944 0.4472 0)
(0.8944 0.4472 0)
(0.8944 0.4472 0)
(0.894449 0.447043 0)
(0.8944 0.4472 0)
(0.8944 0.4472 0)
(0.8944 0.4472 0)
(0.8944 0.4472 0)
(0.8944 0.4472 0)
(0.8944 0.4472 0)
(0.894336 0.447209 0)
(0.941769 -0.224759 0)
(0.8944 0.4472 0)
(0.896161 0.447933 0)
(0.8944 0.4472 0)
(0.8944 0.4472 0)
(0.8944 0.4472 0)
(0.885234 0.435068 0)
(0.894402 0.4472 0)
(0.8944 0.4472 0)
(0.892799 0.449204 0)
(0.8944 0.4472 0)
(0.441436 -0.0971054 0)
(0.8944 0.4472 0)
(0.8944 0.4472 0)
(0.8944 0.4472 0)
(0.8944 0.4472 0)
(0.8944 0.4472 0)
(0.89441 0.447207 0)
(0.8944 0.4472 0)
(0.932386 0.618275 0)
(0.8944 0.4472 0)
(0.8944 0.4472 0)
(0.8944 0.4472 0)
(0.894369 0.447201 0)
(1.59051 0.340458 0)
(0.8944 0.4472 0)
(0.8944 0.4472 0)
(0.893465 0.446213 0)
(0.8944 0.4472 0)
(0.8944 0.4472 0)
(0.894367 0.447204 0)
(0.894572 0.447253 0)
(0.8944 0.4472 0)
(0.8944 0.4472 0)
(0.8944 0.4472 0)
(0.8944 0.4472 0)
(0.894403 0.447191 0)
(0.895052 0.448443 0)
(0.8944 0.4472 0)
(0.87695 0.433777 0)
(0.8944 0.4472 0)
(0.8944 0.4472 0)
(0.559508 -0.0352075 0)
(0.894879 0.447562 0)
(0.8944 0.4472 0)
(0.894263 0.447225 0)
(0.8944 0.4472 0)
(0.89439 0.447202 0)
(0.894307 0.447154 0)
(0.8944 0.4472 0)
(0.8944 0.4472 0)
(0.861293 0.450527 0)
(0.8944 0.4472 0)
(0.8944 0.4472 0)
(0.8944 0.4472 0)
(0.8944 0.4472 0)
(0.8944 0.4472 0)
(0.8944 0.4472 0)
(1.20635 0.452766 0)
(0.8944 0.4472 0)
(0.894408 0.447196 0)
(0.8944 0.4472 0)
(0.894363 0.44727 0)
(0.8944 0.4472 0)
(0.889522 0.441674 0)
(0.8944 0.4472 0)
(0.8944 0.4472 0)
(0.894398 0.447204 0)
(0.894387 0.447945 0)
(0.8944 0.4472 0)
(0.8944 0.4472 0)
(0.8944 0.4472 0)
(0.8944 0.4472 0)
(0.8944 0.4472 0)
(0.8944 0.4472 0)
(0.8944 0.4472 0)
(0.8944 0.4472 0)
(0.8944 0.4472 0)
(0.8944 0.4472 0)
(0.8944 0.4472 0)
(0.8944 0.4472 0)
(0.8944 0.4472 0)
(0.8944 0.4472 0)
(0.8944 0.4472 0)
(0.8944 0.4472 0)
(0.8944 0.4472 0)
(0.8944 0.4472 0)
(0.358802 0.270038 0)
(0.910612 0.454102 0)
(0.8944 0.4472 0)
(0.8944 0.4472 0)
(0.8944 0.4472 0)
(0.891218 0.441709 0)
(0.8944 0.4472 0)
(0.8944 0.4472 0)
(0.893484 0.447667 0)
(0.8944 0.4472 0)
(0.8944 0.4472 0)
(0.8944 0.4472 0)
(0.894356 0.447306 0)
(0.8944 0.4472 0)
(0.8944 0.4472 0)
(0.8944 0.4472 0)
(0.8944 0.4472 0)
(0.894386 0.44717 0)
(0.8944 0.4472 0)
(0.894645 0.44735 0)
(0.8944 0.4472 0)
(0.8944 0.4472 0)
(0.8944 0.4472 0)
(0.8944 0.4472 0)
(0.8944 0.4472 0)
(0.894653 0.447059 0)
(0.894165 0.447372 0)
(0.8944 0.4472 0)
(0.8944 0.4472 0)
(0.896222 0.447354 0)
(0.8944 0.4472 0)
(0.928391 0.609258 0)
(0.8944 0.4472 0)
(0.8944 0.4472 0)
(0.894323 0.447283 0)
(0.894183 0.442451 0)
(0.717279 -0.0691531 0)
(0.899481 0.447349 0)
(0.894398 0.447199 0)
(0.8944 0.4472 0)
(0.8944 0.4472 0)
(0.8944 0.4472 0)
(0.8944 0.4472 0)
(0.8944 0.4472 0)
(0.894336 0.447257 0)
(0.895062 0.447373 0)
(0.8944 0.4472 0)
(0.8944 0.4472 0)
(0.8944 0.4472 0)
(0.893115 0.448047 0)
(0.8944 0.4472 0)
(0.8944 0.4472 0)
(0.895098 0.444886 0)
(0.8944 0.4472 0)
(0.8944 0.4472 0)
(0.8944 0.4472 0)
(0.8944 0.4472 0)
(0.891587 0.44547 0)
(0.894608 0.457317 0)
(0.8944 0.4472 0)
(0.8944 0.4472 0)
(0.8944 0.4472 0)
(0.8944 0.4472 0)
(0.768509 0.399911 0)
(0.8944 0.4472 0)
(0.8944 0.4472 0)
(0.8944 0.4472 0)
(0.8944 0.4472 0)
(0.895275 0.447574 0)
(0.8944 0.4472 0)
(0.8944 0.4472 0)
(0.893363 0.446346 0)
(0.894417 0.447136 0)
(0.893531 0.463893 0)
(0.8944 0.4472 0)
(0.894399 0.447199 0)
(0.8944 0.4472 0)
(0.8944 0.4472 0)
(0.8944 0.4472 0)
(0.8944 0.4472 0)
(0.8944 0.4472 0)
(0.893511 0.447293 0)
(0.8944 0.447201 0)
(0.8944 0.4472 0)
(0.40598 0.324794 0)
(0.8944 0.4472 0)
(0.8944 0.4472 0)
(0.894407 0.447202 0)
(1.09845 0.178046 0)
(0.8944 0.4472 0)
(0.738753 0.368477 0)
(1.05654 0.5173 0)
(0.8944 0.4472 0)
(0.8944 0.4472 0)
(0.8944 0.4472 0)
(0.894123 0.446441 0)
(0.894291 0.44748 0)
(0.894468 0.447248 0)
(0.883522 0.431101 0)
(0.8944 0.4472 0)
(0.8944 0.4472 0)
(0.8944 0.4472 0)
(0.482657 0.777925 0)
(0.8944 0.4472 0)
(0.894029 0.447652 0)
(0.837009 0.0469366 0)
(0.8944 0.4472 0)
(0.8944 0.4472 0)
(0.8944 0.4472 0)
(0.8944 0.4472 0)
(0.8944 0.447202 0)
(0.8944 0.4472 0)
(0.8944 0.4472 0)
(0.894298 0.447561 0)
(0.8944 0.4472 0)
(0.8944 0.4472 0)
(0.8944 0.4472 0)
(0.894374 0.446965 0)
(0.8944 0.4472 0)
(0.8944 0.4472 0)
(0.8944 0.4472 0)
(0.894393 0.447205 0)
(0.8944 0.4472 0)
(1.06861 0.119733 0)
(0.8944 0.4472 0)
(0.8944 0.4472 0)
(0.44909 0.320326 0)
(0.8944 0.4472 0)
(0.894588 0.447094 0)
(0.8944 0.4472 0)
(0.8944 0.4472 0)
(0.8944 0.4472 0)
(0.8944 0.4472 0)
(0.8944 0.4472 0)
(0.8944 0.4472 0)
(0.8944 0.4472 0)
(0.918548 0.402124 0)
(0.784693 0.387109 0)
(0.8944 0.4472 0)
(0.894372 0.447193 0)
(0.8944 0.4472 0)
(0.894213 0.446523 0)
(0.8944 0.4472 0)
(0.893198 0.446565 0)
(0.76145 0.364658 0)
(0.413217 0.810348 0)
(0.8944 0.4472 0)
(0.894381 0.447211 0)
(0.894393 0.447195 0)
(0.8944 0.4472 0)
(0.8944 0.4472 0)
(0.895369 0.446543 0)
(0.8944 0.447201 0)
(0.8944 0.4472 0)
(0.8944 0.4472 0)
(0.8944 0.4472 0)
(0.89428 0.446598 0)
(0.89625 0.449729 0)
(0.893747 0.428314 0)
(0.894399 0.447202 0)
(0.8944 0.4472 0)
(0.8944 0.4472 0)
(0.8944 0.4472 0)
(0.8944 0.4472 0)
(0.905842 0.455075 0)
(0.950093 0.479793 0)
(0.8944 0.4472 0)
(0.8944 0.4472 0)
(0.8944 0.4472 0)
(0.8944 0.4472 0)
(0.8944 0.4472 0)
(0.926248 0.544212 0)
(0.8944 0.4472 0)
(0.894418 0.447188 0)
(0.8944 0.4472 0)
(0.8944 0.4472 0)
(0.8944 0.447199 0)
(0.8944 0.4472 0)
(0.431799 0.858728 0)
(0.8944 0.4472 0)
(0.895228 0.447941 0)
(0.8944 0.4472 0)
(0.8944 0.4472 0)
(0.8944 0.4472 0)
(0.881597 0.43619 0)
(0.8944 0.4472 0)
(0.902192 0.410531 0)
(0.8944 0.4472 0)
(1.09868 0.359478 0)
(0.8944 0.4472 0)
(0.894399 0.447202 0)
(0.894448 0.447097 0)
(0.904799 0.438001 0)
(0.8944 0.4472 0)
(0.894382 0.447228 0)
(0.8944 0.4472 0)
(0.8944 0.4472 0)
(0.8944 0.4472 0)
(0.8944 0.4472 0)
(0.882648 0.381726 0)
(0.8944 0.4472 0)
(0.912689 -0.317374 0)
(0.663061 0.948444 0)
(0.8944 0.4472 0)
(0.8944 0.4472 0)
(0.894238 0.448132 0)
(0.8944 0.4472 0)
(0.868541 0.451974 0)
(0.913607 1.18183 0)
(0.894402 0.447189 0)
(0.8944 0.4472 0)
(0.8944 0.4472 0)
(0.8944 0.4472 0)
(0.893549 0.450276 0)
(0.894399 0.447201 0)
(0.8944 0.4472 0)
(0.894341 0.447391 0)
(0.8944 0.4472 0)
(0.894401 0.447203 0)
(0.8944 0.4472 0)
(0.8944 0.447199 0)
(0.8944 0.4472 0)
(0.894692 0.447273 0)
(0.8944 0.4472 0)
(0.8944 0.4472 0)
(0.8944 0.4472 0)
(0.8944 0.447201 0)
(0.8944 0.4472 0)
(0.8944 0.4472 0)
(0.889542 0.439104 0)
(0.885628 0.441477 0)
(0.822469 0.0502058 0)
(0.8944 0.4472 0)
(0.893953 0.446944 0)
(0.8944 0.4472 0)
(0.8944 0.4472 0)
(0.535514 -0.0541012 0)
(0.8944 0.4472 0)
(0.8944 0.447201 0)
(0.835138 0.06598 0)
(0.8944 0.4472 0)
(0.8944 0.4472 0)
(0.900493 0.44627 0)
(0.8944 0.4472 0)
(0.8944 0.4472 0)
(0.894253 0.447206 0)
(0.8944 0.4472 0)
(0.894846 0.440365 0)
(0.894399 0.447201 0)
(0.8944 0.4472 0)
(0.896078 0.447605 0)
(0.8944 0.4472 0)
(0.892312 0.444296 0)
(0.8944 0.4472 0)
(0.894406 0.447205 0)
(0.8944 0.4472 0)
(0.893042 0.445757 0)
(0.8944 0.4472 0)
(0.8944 0.4472 0)
(1.08281 0.494839 0)
(0.943689 0.446483 0)
(0.8944 0.4472 0)
(0.900691 0.449738 0)
(0.8944 0.4472 0)
(0.894875 0.446772 0)
(0.8944 0.4472 0)
(0.8944 0.4472 0)
(0.8944 0.4472 0)
(0.894321 0.44722 0)
(0.8944 0.4472 0)
(0.95715 0.475829 0)
(0.8944 0.4472 0)
(0.8944 0.4472 0)
(0.890464 0.45068 0)
(0.8944 0.4472 0)
(0.878038 0.430092 0)
(0.8944 0.4472 0)
(0.8944 0.4472 0)
(1.26908 -0.0403495 0)
(0.8944 0.4472 0)
(0.8944 0.4472 0)
(0.893963 0.453647 0)
(0.8944 0.4472 0)
(0.8944 0.4472 0)
(0.89403 0.447674 0)
(0.894276 0.447124 0)
(1.06223 0.57254 0)
(0.8944 0.4472 0)
(0.894361 0.447203 0)
(0.894391 0.447202 0)
(0.894397 0.447217 0)
(0.8944 0.4472 0)
(0.8944 0.4472 0)
(0.8944 0.4472 0)
(0.8944 0.4472 0)
(0.8944 0.4472 0)
(0.894399 0.447203 0)
(0.8944 0.4472 0)
(0.8944 0.4472 0)
(0.8944 0.4472 0)
(0.8944 0.4472 0)
(0.8944 0.4472 0)
(0.8944 0.4472 0)
(0.894009 0.447003 0)
(0.8944 0.4472 0)
(0.8944 0.4472 0)
(0.8944 0.4472 0)
(0.890346 0.442828 0)
(0.902783 0.448485 0)
(0.8944 0.4472 0)
(0.894396 0.447197 0)
(0.8944 0.4472 0)
(0.8944 0.4472 0)
(1.42599 0.442422 0)
(0.8944 0.4472 0)
(0.8944 0.4472 0)
(0.894402 0.4472 0)
(0.457343 -0.101793 0)
(0.8944 0.4472 0)
(0.8944 0.4472 0)
(0.8944 0.447201 0)
(0.8944 0.4472 0)
(0.8944 0.4472 0)
(0.8944 0.4472 0)
(0.8944 0.4472 0)
(0.8944 0.4472 0)
(0.8944 0.4472 0)
(0.8944 0.4472 0)
(0.8944 0.4472 0)
(0.8944 0.4472 0)
(0.894411 0.447204 0)
(0.896343 0.451665 0)
(0.888932 0.447809 0)
(0.894397 0.447203 0)
(0.8944 0.4472 0)
(0.8944 0.4472 0)
(0.8944 0.4472 0)
(0.8944 0.4472 0)
(0.893449 0.44779 0)
(0.8944 0.4472 0)
(0.882202 0.415704 0)
(1.07793 0.570338 0)
(0.8944 0.4472 0)
(0.8944 0.4472 0)
(0.8944 0.4472 0)
(0.8944 0.4472 0)
(0.879451 0.435575 0)
(0.8944 0.4472 0)
(0.8944 0.447194 0)
(0.929576 0.543587 0)
(0.8944 0.4472 0)
(0.8944 0.4472 0)
(0.8944 0.4472 0)
(0.895994 0.448274 0)
(0.8944 0.4472 0)
(0.8944 0.4472 0)
(0.8944 0.4472 0)
(0.8944 0.4472 0)
(0.895002 0.446776 0)
(0.910941 0.519504 0)
(0.8944 0.4472 0)
(0.916536 0.453208 0)
(0.887201 0.440972 0)
(0.936799 0.21793 0)
(0.8944 0.4472 0)
(0.8944 0.4472 0)
(0.894393 0.447461 0)
(0.8944 0.4472 0)
(0.844847 0.447409 0)
(0.8944 0.4472 0)
(0.894403 0.447205 0)
(0.8944 0.4472 0)
(0.8944 0.4472 0)
(0.8944 0.4472 0)
(0.895034 0.447754 0)
(0.879213 0.437021 0)
(0.912163 0.428177 0)
(0.894397 0.447203 0)
(0.894507 0.447146 0)
(0.8944 0.4472 0)
(0.8944 0.4472 0)
(0.8944 0.4472 0)
(0.894397 0.447204 0)
(0.8944 0.4472 0)
(0.894395 0.447204 0)
(0.8944 0.447211 0)
(0.229307 0.124514 0)
(0.87569 0.440359 0)
(0.8944 0.4472 0)
(0.8944 0.4472 0)
(0.8944 0.4472 0)
(0.8944 0.4472 0)
(0.8944 0.4472 0)
(0.8944 0.4472 0)
(0.8944 0.4472 0)
(0.8944 0.4472 0)
(0.892111 0.456612 0)
(0.8944 0.4472 0)
(0.8944 0.4472 0)
(0.8944 0.4472 0)
(0.89462 0.446255 0)
(0.8944 0.4472 0)
(0.8944 0.4472 0)
(0.8944 0.4472 0)
(0.8944 0.4472 0)
(0.8944 0.4472 0)
(0.893399 0.468824 0)
(0.8944 0.4472 0)
(0.8944 0.4472 0)
(0.8944 0.4472 0)
(0.8944 0.4472 0)
(0.894498 0.447506 0)
(0.8944 0.4472 0)
(0.8944 0.4472 0)
(0.8944 0.4472 0)
(0.8944 0.4472 0)
(0.8944 0.4472 0)
(0.8944 0.447201 0)
(0.8944 0.4472 0)
(0.8944 0.4472 0)
(0.90343 0.447879 0)
(0.8944 0.4472 0)
(0.8944 0.4472 0)
(0.8944 0.4472 0)
(0.8944 0.4472 0)
(0.8944 0.4472 0)
(0.8944 0.4472 0)
(0.8944 0.4472 0)
(0.894404 0.447201 0)
(0.8944 0.4472 0)
(0.8944 0.4472 0)
(0.8944 0.4472 0)
(0.8944 0.4472 0)
(0.807282 0.475495 0)
(0.8944 0.4472 0)
(0.8944 0.4472 0)
(0.8944 0.4472 0)
(0.8944 0.4472 0)
(0.894401 0.447198 0)
(0.8944 0.4472 0)
(0.8944 0.4472 0)
(0.8944 0.4472 0)
(0.8944 0.4472 0)
(0.272564 0.169037 0)
(0.890082 0.450703 0)
(0.8944 0.4472 0)
(0.766489 0.415309 0)
(0.8944 0.4472 0)
(0.89178 0.448853 0)
(0.8944 0.4472 0)
(0.8944 0.4472 0)
(0.8944 0.4472 0)
(0.8944 0.4472 0)
(0.8944 0.4472 0)
(0.8944 0.4472 0)
(0.8944 0.4472 0)
(0.8944 0.4472 0)
(0.8944 0.4472 0)
(1.18258 -0.185111 0)
(0.894368 0.447143 0)
(0.894401 0.447197 0)
(0.8944 0.4472 0)
(0.8944 0.4472 0)
(0.894401 0.4472 0)
(0.894396 0.447202 0)
(0.8944 0.4472 0)
(0.8944 0.4472 0)
(0.691418 0.535915 0)
(0.894401 0.447197 0)
(0.8944 0.4472 0)
(0.8944 0.4472 0)
(0.8944 0.4472 0)
(0.8944 0.4472 0)
(0.894413 0.447205 0)
(0.8944 0.4472 0)
(0.8944 0.4472 0)
(0.894397 0.447201 0)
(0.8944 0.4472 0)
(0.894401 0.447196 0)
(0.716657 0.532031 0)
(0.8944 0.4472 0)
(0.894348 0.4472 0)
(0.893003 0.442301 0)
(0.894896 0.446869 0)
(0.8944 0.4472 0)
(0.899458 0.445483 0)
(0.8944 0.4472 0)
(0.8944 0.4472 0)
(0.8944 0.4472 0)
(0.8944 0.4472 0)
(0.8944 0.4472 0)
(0.8944 0.4472 0)
(0.8944 0.4472 0)
(0.8944 0.4472 0)
(0.8944 0.4472 0)
(0.894753 0.447342 0)
(0.874298 0.445665 0)
(0.8944 0.4472 0)
(0.889669 0.44459 0)
(0.894399 0.447201 0)
(0.8944 0.4472 0)
(0.8944 0.4472 0)
(0.8944 0.4472 0)
(0.894563 0.447325 0)
(0.8944 0.4472 0)
(0.8944 0.4472 0)
(0.8944 0.4472 0)
(0.894277 0.446427 0)
(0.8944 0.4472 0)
(0.864981 0.175325 0)
(0.8944 0.4472 0)
(0.897695 0.449567 0)
(0.894399 0.447201 0)
(0.8944 0.4472 0)
(0.8944 0.4472 0)
(0.894301 0.447252 0)
(0.885723 0.434374 0)
(0.8944 0.4472 0)
(0.8944 0.4472 0)
(0.8944 0.4472 0)
(0.894512 0.447123 0)
(0.8944 0.4472 0)
(0.8944 0.4472 0)
(0.8944 0.4472 0)
(0.894491 0.447085 0)
(0.8944 0.4472 0)
(0.894399 0.447199 0)
(0.8944 0.4472 0)
(0.8944 0.4472 0)
(0.8944 0.4472 0)
(0.8944 0.4472 0)
(0.899761 0.444848 0)
(0.8944 0.4472 0)
(0.8944 0.4472 0)
(0.893987 0.450722 0)
(0.8944 0.4472 0)
(0.894387 0.447257 0)
(0.895312 0.447605 0)
(0.8944 0.4472 0)
(0.894401 0.447199 0)
(0.8944 0.4472 0)
(0.8944 0.4472 0)
(0.894399 0.447201 0)
(0.8944 0.4472 0)
(0.8944 0.4472 0)
(0.894396 0.447202 0)
(0.8944 0.4472 0)
(0.8944 0.4472 0)
(0.905834 0.437938 0)
(0.325757 0.339567 0)
(0.8944 0.4472 0)
(0.896576 0.448137 0)
(0.8944 0.4472 0)
(0.8944 0.4472 0)
(0.8944 0.4472 0)
(0.8944 0.4472 0)
(0.8944 0.4472 0)
(0.8944 0.4472 0)
(0.8944 0.4472 0)
(0.8944 0.4472 0)
(0.894399 0.447201 0)
(0.876036 0.477313 0)
(0.8944 0.4472 0)
(0.8944 0.4472 0)
(0.894401 0.447205 0)
(0.894424 0.447422 0)
(1.02001 0.554307 0)
(0.894419 0.447219 0)
(0.894423 0.447037 0)
(0.894401 0.4472 0)
(0.8944 0.447201 0)
(0.8944 0.4472 0)
(0.8944 0.4472 0)
(0.8944 0.4472 0)
(0.8944 0.4472 0)
(0.8944 0.447201 0)
(0.920734 0.404255 0)
(0.894404 0.447131 0)
(1.16705 0.098918 0)
(0.8944 0.4472 0)
(0.893966 0.447273 0)
(0.8944 0.4472 0)
(0.8944 0.4472 0)
(1.03811 0.558153 0)
(1.02991 0.190033 0)
(0.8944 0.4472 0)
(0.894403 0.447198 0)
(0.8944 0.4472 0)
(0.8944 0.4472 0)
(0.8944 0.4472 0)
(0.894387 0.447199 0)
(0.377072 0.736219 0)
(0.893419 0.446687 0)
(0.856025 0.238358 0)
(0.8944 0.4472 0)
(0.8944 0.4472 0)
(0.894694 0.446914 0)
(0.895638 0.44764 0)
(0.892375 0.448272 0)
(0.8944 0.4472 0)
(0.8944 0.4472 0)
(0.8944 0.4472 0)
(0.891613 0.447239 0)
(0.8944 0.4472 0)
(0.8944 0.4472 0)
(0.8944 0.4472 0)
(0.829846 0.385066 0)
(0.894393 0.447201 0)
(0.8944 0.4472 0)
(0.890012 0.446837 0)
(0.8944 0.4472 0)
(0.8944 0.4472 0)
(0.8944 0.4472 0)
(0.8944 0.4472 0)
(0.894399 0.447201 0)
(0.8944 0.4472 0)
(0.8944 0.4472 0)
(0.8944 0.4472 0)
(0.8944 0.4472 0)
(0.8944 0.447201 0)
(0.899418 0.448796 0)
(0.894394 0.447216 0)
(0.894629 0.447273 0)
(0.8944 0.4472 0)
(0.869437 0.480299 0)
(0.8944 0.4472 0)
(0.8944 0.4472 0)
(0.8944 0.4472 0)
(1.29009 -0.0278146 0)
(0.8944 0.4472 0)
(0.8944 0.4472 0)
(0.880348 0.52928 0)
(0.894402 0.44719 0)
(1.04962 0.250667 0)
(0.8944 0.4472 0)
(0.8944 0.4472 0)
(0.8944 0.4472 0)
(0.8944 0.4472 0)
(0.8944 0.4472 0)
(0.8944 0.4472 0)
(0.8944 0.447713 0)
(0.8944 0.4472 0)
(0.892565 0.446762 0)
(0.8944 0.4472 0)
(0.89438 0.447224 0)
(0.921333 0.468873 0)
(0.894403 0.447207 0)
(0.8944 0.4472 0)
(0.8944 0.4472 0)
(0.8944 0.4472 0)
(0.8944 0.4472 0)
(0.8944 0.4472 0)
(0.879781 0.408966 0)
(0.894406 0.447199 0)
(0.894392 0.447186 0)
(0.894407 0.447195 0)
(0.891536 0.441231 0)
(0.895174 0.452755 0)
(0.927721 0.458093 0)
(0.8944 0.4472 0)
(0.8944 0.4472 0)
(0.8944 0.4472 0)
(0.8944 0.4472 0)
(0.894029 0.446362 0)
(0.8944 0.4472 0)
(0.8944 0.4472 0)
(0.8944 0.447201 0)
(0.8944 0.4472 0)
(0.890049 0.442744 0)
(0.89439 0.447207 0)
(0.8944 0.4472 0)
(0.8944 0.4472 0)
(1.19338 0.345345 0)
(0.8944 0.4472 0)
(0.894397 0.447202 0)
(0.8944 0.4472 0)
(0.8944 0.4472 0)
(0.8944 0.4472 0)
(0.8944 0.4472 0)
(0.8944 0.4472 0)
(0.8944 0.4472 0)
(0.891486 0.457612 0)
(0.858528 0.21915 0)
(0.8944 0.4472 0)
(0.894361 0.447225 0)
(0.886301 0.424471 0)
(0.8944 0.4472 0)
(0.8944 0.4472 0)
(0.8944 0.4472 0)
(0.894076 0.448972 0)
(0.8944 0.4472 0)
(0.8944 0.4472 0)
(0.8944 0.4472 0)
(0.894398 0.447198 0)
(0.8944 0.4472 0)
(0.8944 0.447199 0)
(0.8944 0.4472 0)
(0.8944 0.447203 0)
(0.8944 0.4472 0)
(0.8944 0.4472 0)
(0.894404 0.447261 0)
(0.8944 0.4472 0)
(0.8944 0.4472 0)
(0.8944 0.4472 0)
(0.8944 0.4472 0)
(0.8944 0.4472 0)
(0.894377 0.446994 0)
(0.899476 0.400276 0)
(0.8944 0.4472 0)
(0.894042 0.447525 0)
(0.859115 0.384625 0)
(0.8944 0.4472 0)
(0.8944 0.4472 0)
(0.8944 0.447201 0)
(0.908657 0.445537 0)
(0.8944 0.4472 0)
(0.894368 0.44723 0)
(0.8944 0.4472 0)
(0.894399 0.447201 0)
(0.8944 0.4472 0)
(1.06093 0.443211 0)
(0.894401 0.4472 0)
(0.93303 0.453617 0)
(0.8944 0.4472 0)
(0.8944 0.4472 0)
(0.8944 0.4472 0)
(0.894424 0.447239 0)
(0.8944 0.4472 0)
(0.894418 0.447289 0)
(0.8944 0.4472 0)
(0.8944 0.4472 0)
(0.8944 0.4472 0)
(0.894423 0.447119 0)
(0.8944 0.4472 0)
(0.8944 0.4472 0)
(0.8944 0.4472 0)
(0.8944 0.4472 0)
(0.8944 0.4472 0)
(0.894343 0.447075 0)
(0.8944 0.4472 0)
(0.8944 0.4472 0)
(0.8944 0.4472 0)
(0.677005 -0.0910936 0)
(0.894406 0.447198 0)
(0.900048 0.446321 0)
(0.894372 0.447268 0)
(0.8944 0.4472 0)
(0.894398 0.447201 0)
(0.8944 0.4472 0)
(0.8944 0.4472 0)
(0.894402 0.447201 0)
(0.8944 0.4472 0)
(0.894389 0.447192 0)
(0.893508 0.447001 0)
(0.894396 0.447203 0)
(0.8944 0.4472 0)
(0.894396 0.447195 0)
(1.03925 0.229496 0)
(0.895545 0.445339 0)
(0.8944 0.4472 0)
(0.8944 0.4472 0)
(0.8944 0.4472 0)
(0.8944 0.4472 0)
(0.893171 0.444675 0)
(0.8944 0.4472 0)
(0.8944 0.4472 0)
(0.8944 0.4472 0)
(0.8944 0.4472 0)
(0.8944 0.4472 0)
(0.612558 1.08552 0)
(0.8944 0.4472 0)
(0.621269 1.08565 0)
(0.8944 0.4472 0)
(0.8944 0.4472 0)
(0.8944 0.4472 0)
(0.893946 0.447025 0)
(0.894405 0.447197 0)
(0.894387 0.447193 0)
(0.894869 0.444741 0)
(0.92368 0.472499 0)
(0.894405 0.447212 0)
(0.8944 0.4472 0)
(0.893669 0.449688 0)
(0.8944 0.4472 0)
(0.883848 0.421335 0)
(0.894626 0.447695 0)
(0.8944 0.4472 0)
(0.8944 0.4472 0)
(0.895163 0.446532 0)
(0.8944 0.4472 0)
(0.894415 0.446941 0)
(0.906333 0.429359 0)
(0.8944 0.4472 0)
(0.894364 0.447163 0)
(0.8944 0.4472 0)
(0.8944 0.4472 0)
(0.8944 0.4472 0)
(0.8944 0.4472 0)
(0.846239 0.125176 0)
(0.894941 0.44729 0)
(0.8944 0.4472 0)
(0.8944 0.4472 0)
(0.892952 0.445744 0)
(0.8944 0.4472 0)
(0.8944 0.4472 0)
(0.891729 0.451269 0)
(1.04273 0.977994 0)
(0.8944 0.4472 0)
(0.8944 0.4472 0)
(0.894315 0.447212 0)
(0.8944 0.4472 0)
(0.894396 0.447207 0)
(0.849796 0.531959 0)
(0.878953 0.446347 0)
(0.8944 0.4472 0)
(0.8944 0.4472 0)
(0.8944 0.4472 0)
(0.8944 0.447202 0)
(0.8944 0.4472 0)
(0.8944 0.4472 0)
(0.8944 0.4472 0)
(0.894399 0.4472 0)
(0.8944 0.4472 0)
(0.8944 0.4472 0)
(0.8944 0.4472 0)
(0.8944 0.4472 0)
(0.894399 0.447201 0)
(0.89437 0.447236 0)
(0.8944 0.4472 0)
(0.8944 0.4472 0)
(0.884648 0.446809 0)
(0.894432 0.447313 0)
(0.8944 0.4472 0)
(0.8944 0.4472 0)
(0.883662 0.446573 0)
(0.8944 0.4472 0)
(0.8944 0.4472 0)
(0.8944 0.4472 0)
(0.8944 0.4472 0)
(0.894408 0.447201 0)
(0.8944 0.4472 0)
(0.8944 0.4472 0)
(0.8944 0.4472 0)
(0.894303 0.44822 0)
(0.8944 0.4472 0)
(0.916567 0.473748 0)
(0.894952 0.446635 0)
(0.8944 0.447201 0)
(0.8944 0.4472 0)
(0.89405 0.449261 0)
(0.8944 0.4472 0)
(0.8944 0.4472 0)
(1.21425 0.059133 0)
(0.8944 0.4472 0)
(0.894295 0.447366 0)
(0.894399 0.4472 0)
(0.89583 0.449893 0)
(0.8944 0.4472 0)
(0.8944 0.4472 0)
(0.8944 0.4472 0)
(0.8944 0.4472 0)
(0.8944 0.4472 0)
(0.894392 0.447192 0)
(0.8944 0.4472 0)
(1.60423 0.3743 0)
(0.8944 0.4472 0)
(0.89478 0.447974 0)
(0.8944 0.4472 0)
(0.8944 0.4472 0)
(0.8944 0.4472 0)
(0.8944 0.4472 0)
(0.8944 0.4472 0)
(0.8944 0.4472 0)
(0.8944 0.4472 0)
(0.8944 0.4472 0)
(0.8944 0.4472 0)
(0.8944 0.4472 0)
(0.894403 0.447285 0)
(0.894398 0.447207 0)
(0.8944 0.4472 0)
(0.889508 0.4395 0)
(0.8944 0.4472 0)
(0.883124 0.548346 0)
(0.894441 0.447154 0)
(0.8944 0.4472 0)
(0.8944 0.4472 0)
(0.8944 0.4472 0)
(0.8944 0.4472 0)
(0.8944 0.4472 0)
(0.894418 0.447187 0)
(0.894088 0.446961 0)
(0.894396 0.447198 0)
(0.893883 0.447155 0)
(0.792995 0.410459 0)
(0.8944 0.4472 0)
(0.8944 0.4472 0)
(0.8944 0.4472 0)
(0.894399 0.447201 0)
(0.8944 0.4472 0)
(0.8944 0.4472 0)
(0.8944 0.4472 0)
(0.8944 0.4472 0)
(0.8944 0.4472 0)
(0.8492 0.416303 0)
(0.893432 0.449674 0)
(1.11284 0.961208 0)
(0.8944 0.4472 0)
(0.8944 0.4472 0)
(0.894364 0.447258 0)
(0.8944 0.4472 0)
(1.10369 0.949765 0)
(0.8944 0.4472 0)
(0.894431 0.44714 0)
(0.8944 0.4472 0)
(0.8944 0.4472 0)
(0.894386 0.447257 0)
(1.66519 0.387963 0)
(0.8944 0.4472 0)
(0.8944 0.4472 0)
(0.8944 0.4472 0)
(0.894397 0.447205 0)
(0.891114 0.449673 0)
(0.8944 0.4472 0)
(0.8944 0.4472 0)
(0.8944 0.4472 0)
(0.8944 0.4472 0)
(0.906461 0.451688 0)
(0.8944 0.4472 0)
(0.8944 0.4472 0)
(0.8944 0.447201 0)
(0.95288 0.46857 0)
(0.8944 0.4472 0)
(0.8944 0.4472 0)
(0.95343 0.453438 0)
(0.8944 0.447201 0)
(0.901773 0.446875 0)
(0.894399 0.447199 0)
(0.8944 0.4472 0)
(0.894409 0.447196 0)
(0.8944 0.4472 0)
(0.8944 0.4472 0)
(0.8944 0.4472 0)
(0.894417 0.447211 0)
(0.8944 0.4472 0)
(0.8944 0.4472 0)
(0.8944 0.4472 0)
(0.8944 0.4472 0)
(0.893195 0.450676 0)
(0.8944 0.4472 0)
(0.8944 0.4472 0)
(0.8944 0.4472 0)
(0.8944 0.4472 0)
(0.894424 0.450339 0)
(1.08653 0.177828 0)
(0.8944 0.4472 0)
(0.8944 0.4472 0)
(0.8944 0.4472 0)
(0.8944 0.4472 0)
(0.8944 0.4472 0)
(0.8944 0.447202 0)
(0.8944 0.4472 0)
(0.894404 0.447201 0)
(0.893775 0.265556 0)
(0.894398 0.447193 0)
(0.8944 0.4472 0)
(0.8944 0.4472 0)
(0.8944 0.4472 0)
(0.906203 0.464597 0)
(0.894394 0.447178 0)
(0.894399 0.447201 0)
(0.8944 0.4472 0)
(0.329767 0.770011 0)
(0.894377 0.447244 0)
(0.8944 0.4472 0)
(0.8944 0.4472 0)
(0.8944 0.4472 0)
(0.8944 0.4472 0)
(0.8944 0.4472 0)
(0.8944 0.4472 0)
(0.8944 0.4472 0)
(0.8944 0.4472 0)
(0.8944 0.4472 0)
(0.8944 0.4472 0)
(1.24934 0.535214 0)
(0.8944 0.4472 0)
(0.8944 0.4472 0)
(0.894399 0.4472 0)
(0.8944 0.4472 0)
(0.895653 0.447125 0)
(0.8944 0.4472 0)
(0.894388 0.447204 0)
(0.8944 0.4472 0)
(0.87087 0.443403 0)
(0.8944 0.4472 0)
(0.8944 0.4472 0)
(0.8944 0.4472 0)
(0.8944 0.4472 0)
(0.8944 0.4472 0)
(0.8944 0.4472 0)
(0.872543 0.445233 0)
(0.894399 0.447212 0)
(0.8944 0.4472 0)
(0.8944 0.4472 0)
(0.8944 0.4472 0)
(0.8944 0.4472 0)
(0.8944 0.4472 0)
(0.894414 0.447201 0)
(0.894498 0.447566 0)
(0.893912 0.447999 0)
(0.88618 0.437149 0)
(0.8944 0.4472 0)
(0.894403 0.447198 0)
(0.8944 0.4472 0)
(0.894398 0.44721 0)
(0.8944 0.4472 0)
(0.8944 0.4472 0)
(0.8944 0.447203 0)
(0.8944 0.4472 0)
(0.8944 0.4472 0)
(0.8944 0.447201 0)
(0.888092 0.236162 0)
(0.883521 0.512695 0)
(0.8944 0.4472 0)
(0.8944 0.4472 0)
(0.8944 0.4472 0)
(0.906719 0.478462 0)
(0.8944 0.4472 0)
(1.0322 0.952351 0)
(0.894489 0.447038 0)
(0.8944 0.4472 0)
(0.8944 0.4472 0)
(0.895523 0.448193 0)
(0.894881 0.447246 0)
(0.8944 0.4472 0)
(0.8944 0.447201 0)
(0.8944 0.4472 0)
(0.894974 0.448231 0)
(0.805159 0.296914 0)
(0.8944 0.4472 0)
(0.894399 0.447206 0)
(0.894413 0.447366 0)
(0.894385 0.447187 0)
(0.8944 0.4472 0)
(0.894415 0.44722 0)
(0.868744 0.412388 0)
(0.8944 0.4472 0)
(0.8944 0.4472 0)
(0.894391 0.44719 0)
(0.8944 0.4472 0)
(0.8944 0.4472 0)
(0.8944 0.447202 0)
(0.8944 0.4472 0)
(0.8944 0.4472 0)
(0.8944 0.4472 0)
(0.8944 0.4472 0)
(0.896132 0.444484 0)
(0.8944 0.4472 0)
(0.8944 0.4472 0)
(0.894067 0.447228 0)
(0.879078 0.441251 0)
(0.894317 0.447223 0)
(0.896523 0.449804 0)
(0.8944 0.4472 0)
(0.8944 0.4472 0)
(0.893313 0.44673 0)
(0.90555 0.251436 0)
(0.894399 0.447199 0)
(0.8944 0.4472 0)
(0.913693 0.471154 0)
(1.42019 0.173818 0)
(0.555419 1.18648 0)
(0.8944 0.4472 0)
(0.8944 0.4472 0)
(0.8944 0.4472 0)
(0.8944 0.4472 0)
(0.8944 0.4472 0)
(0.8944 0.4472 0)
(0.8944 0.4472 0)
(0.8944 0.4472 0)
(0.894264 0.447148 0)
(0.8944 0.4472 0)
(0.8944 0.4472 0)
(0.858963 0.475691 0)
(0.8944 0.4472 0)
(0.894401 0.447199 0)
(0.8944 0.4472 0)
(0.8944 0.4472 0)
(0.8944 0.4472 0)
(0.893486 0.447273 0)
(0.8944 0.4472 0)
(0.8944 0.4472 0)
(0.8944 0.4472 0)
(0.8944 0.4472 0)
(0.894584 0.44767 0)
(0.894399 0.4472 0)
(0.8944 0.4472 0)
(0.8944 0.4472 0)
(0.8944 0.447201 0)
(0.89403 0.447441 0)
(0.8944 0.4472 0)
(0.857909 0.413362 0)
(0.894428 0.447322 0)
(0.8944 0.4472 0)
(0.8944 0.4472 0)
(0.8944 0.4472 0)
(0.8944 0.4472 0)
(0.8944 0.4472 0)
(0.8944 0.4472 0)
(0.8944 0.4472 0)
(0.89421 0.447048 0)
(0.696488 1.13588 0)
(0.894399 0.447199 0)
(0.894397 0.447212 0)
(0.8944 0.4472 0)
(0.8944 0.4472 0)
(0.8944 0.4472 0)
(0.8944 0.4472 0)
(0.8944 0.4472 0)
(0.8944 0.4472 0)
(0.881501 0.421448 0)
(0.8944 0.4472 0)
(0.8944 0.4472 0)
(0.8944 0.4472 0)
(0.8944 0.4472 0)
(0.888301 0.459359 0)
(0.894483 0.447378 0)
(0.8944 0.4472 0)
(0.8944 0.4472 0)
(0.894397 0.447198 0)
(0.8944 0.4472 0)
(0.8944 0.4472 0)
(0.8944 0.4472 0)
(0.88633 0.452186 0)
(0.892457 0.445613 0)
(0.8944 0.4472 0)
(0.8944 0.4472 0)
(0.8944 0.4472 0)
(0.894489 0.447154 0)
(0.895455 0.604331 0)
(0.8944 0.4472 0)
(0.8944 0.4472 0)
(0.8944 0.4472 0)
(0.895938 0.448339 0)
(0.8944 0.4472 0)
(0.8944 0.4472 0)
(0.8944 0.4472 0)
(0.8944 0.4472 0)
(0.851323 0.474656 0)