/*--------------------------------*- C++ -*----------------------------------*\
  =========                 |
  \\      /  F ield         | OpenFOAM: The Open Source CFD Toolbox
   \\    /   O peration     | Website:  https://openfoam.org
    \\  /    A nd           | Version:  6
     \\/     M anipulation  |
\*---------------------------------------------------------------------------*/
FoamFile
{
    version     2.0;
    format      ascii;
    class       volScalarField;
    location    "1.86";
    object      epsilon;
}
// * * * * * * * * * * * * * * * * * * * * * * * * * * * * * * * * * * * * * //

dimensions      [0 2 -3 0 0 0 0];

internalField   nonuniform List<scalar> 
4214
(
0.0940722
0.0403784
0.0213864
0.014316
0.0118389
0.0115227
0.012728
0.0156758
0.0212558
0.0312363
0.0488422
0.0798375
0.134247
0.228337
0.385104
0.628238
0.935854
1.12295
0.959528
0.518284
0.357853
0.302626
0.281487
0.263206
0.238792
0.207553
0.172349
0.136606
0.103559
0.0755333
0.0535378
0.0374184
0.0263484
0.019268
0.0152086
0.0134298
0.0136981
0.0167177
0.0253139
0.0481801
0.112904
0.0263984
0.0161233
0.0121968
0.0107867
0.0106131
0.0113721
0.0132614
0.0169021
0.023468
0.0350623
0.0554339
0.0912458
0.154018
0.262315
0.442453
0.719119
1.0549
1.23996
1.04989
0.5804
0.414955
0.362071
0.344046
0.326498
0.300407
0.265513
0.224584
0.181245
0.1395
0.102697
0.0727532
0.0501156
0.0341713
0.0237346
0.0174341
0.0140309
0.0126237
0.0127925
0.0148609
0.0205886
0.0353918
0.0140379
0.0113994
0.0104067
0.0102294
0.0106679
0.0118563
0.0142177
0.0185492
0.0262463
0.039752
0.0634017
0.104891
0.177482
0.302452
0.509636
0.822904
1.18442
1.36333
1.15218
0.648623
0.480621
0.434439
0.421699
0.406161
0.379149
0.341141
0.294701
0.243288
0.191369
0.143325
0.102383
0.0701555
0.0467154
0.0309909
0.0212996
0.0158595
0.0131604
0.0121452
0.0122978
0.0137316
0.0176284
0.0111882
0.0103665
0.0101494
0.0103709
0.0111025
0.0126233
0.0154785
0.0206166
0.0296646
0.0454581
0.0730223
0.121256
0.205431
0.350038
0.589054
0.945079
1.33804
1.51537
1.28944
0.74349
0.567805
0.528584
0.52267
0.510194
0.482859
0.44185
0.389817
0.32978
0.266184
0.20411
0.148279
0.102124
0.0671531
0.0429491
0.0277163
0.0190501
0.0146367
0.0126737
0.0120204
0.0121563
0.013181
0.0104176
0.0102072
0.0103111
0.0107637
0.0117463
0.0136306
0.0170743
0.0231916
0.0338794
0.052436
0.084693
0.140933
0.238753
0.406409
0.682413
1.08622
1.51235
1.68798
1.4549
0.865051
0.674989
0.646005
0.65118
0.644928
0.61893
0.575645
0.518455
0.449857
0.373667
0.294947
0.219692
0.153705
0.101055
0.0630874
0.0385006
0.0243087
0.0170653
0.013805
0.012491
0.0120375
0.0121324
0.0103686
0.0104144
0.0107009
0.0113446
0.0125979
0.0149174
0.0190837
0.0264041
0.0390963
0.0610049
0.0989
0.164658
0.278551
0.47314
0.791646
1.24879
1.71249
1.88948
1.65455
1.03062
0.809236
0.793723
0.816657
0.822251
0.801146
0.756889
0.694863
0.617474
0.527817
0.430106
0.330566
0.237224
0.157946
0.0977223
0.0571865
0.0332608
0.0210222
0.0156149
0.0134447
0.0125367
0.0122309
0.0106463
0.0108299
0.0112613
0.0121091
0.0136898
0.0165519
0.0216206
0.0304337
0.0455927
0.0715874
0.116276
0.193353
0.326119
0.551867
0.918316
1.43397
1.94067
2.12461
1.89395
1.25299
0.975327
0.97664
1.02817
1.056
1.04801
1.00799
0.941688
0.85415
0.748969
0.629835
0.501012
0.371477
0.25342
0.157938
0.0903356
0.0490562
0.027693
0.0184236
0.0148629
0.0133975
0.0128102
0.0111081
0.011397
0.0119852
0.0130853
0.0150834
0.0186363
0.0248448
0.0355257
0.0537425
0.0847446
0.137642
0.228181
0.382989
0.644252
1.0635
1.64224
2.19978
2.40234
2.18143
1.54982
1.17866
1.1966
1.29191
1.35885
1.37934
1.35546
1.29348
1.19816
1.07029
0.924795
0.760164
0.584101
0.411901
0.262545
0.149936
0.0778027
0.0395007
0.0229777
0.0169096
0.0145668
0.0136735
0.0116924
0.0121059
0.0128992
0.0143321
0.0168754
0.021319
0.0289829
0.0420236
0.0640642
0.101243
0.164098
0.270632
0.450976
0.751947
1.22761
1.87276
2.49189
2.73277
2.5259
1.93305
1.42699
1.44415
1.60072
1.7313
1.80884
1.82899
1.79026
1.69431
1.55014
1.36785
1.15429
0.916595
0.67063
0.442072
0.257116
0.131074
0.0612947
0.0308352
0.0199952
0.0160943
0.0147573
0.0123994
0.012991
0.0140681
0.0159477
0.0192113
0.0248166
0.0343632
0.0504212
0.0772961
0.122153
0.197142
0.322663
0.532284
0.876601
1.41039
2.1233
2.81757
3.12588
2.9381
2.38329
1.75544
1.69299
1.92299
2.14986
2.33317
2.4596
2.50322
2.44553
2.29128
2.05898
1.76884
1.43934
1.0888
0.744791
0.447471
0.230058
0.102615
0.0451885
0.0250018
0.0181636
0.0161319
0.0132779
0.0141297
0.0156
0.018081
0.0223083
0.0294514
0.0414767
0.0614515
0.0945246
0.149018
0.238876
0.386909
0.629714
1.02012
1.61145
2.39136
3.1727
3.58323
3.43315
2.895
2.19322
1.91621
2.2054
2.57297
2.92856
3.24596
3.47141
3.53882
3.43093
3.16276
2.76437
2.28557
1.76974
1.25111
0.779381
0.411815
0.181549
0.0724432
0.0337447
0.0211132
0.0178984
0.0144261
0.0156494
0.01766
0.0209562
0.0265007
0.0357218
0.0510896
0.0762431
0.11741
0.184134
0.292366
0.467085
0.747158
1.1855
1.83188
2.67486
3.54485
4.08779
4.02238
3.49175
2.74339
2.17173
2.37117
2.96067
3.60325
4.2114
4.70037
4.9849
5.04374
4.84335
4.37218
3.69307
2.90654
2.10386
1.3543
0.739664
0.330594
0.125068
0.0500087
0.0256703
0.0204012
0.0160135
0.0177399
0.0204961
0.0249176
0.0323268
0.0444293
0.0644524
0.0965932
0.148586
0.231031
0.362272
0.568696
0.890411
1.37761
2.07442
2.97023
3.91983
4.60511
4.6878
4.20434
3.42784
2.63795
2.32561
2.78132
3.68732
4.75728
5.83123
6.68503
7.12503
7.06614
6.6857
5.91357
4.80806
3.5513
2.34225
1.32215
0.60688
0.22595
0.081518
0.0331469
0.0242648
0.0182864
0.0206696
0.024498
0.0305187
0.0407109
0.0569086
0.0836973
0.125422
0.19237
0.295191
0.455841
0.699957
1.06818
1.60417
2.34363
3.27608
4.28233
5.09186
5.37109
5.01338
4.23958
3.38084
2.74124
2.64826
3.24239
4.4815
6.01802
7.588
8.83617
9.54304
9.46987
8.80481
7.63127
5.92762
4.02983
2.3328
1.10523
0.414542
0.143719
0.0458957
0.0306313
0.0215879
0.0248132
0.0303457
0.0386978
0.0533769
0.0754313
0.112659
0.167456
0.256068
0.384998
0.58459
0.872866
1.29388
1.87835
2.65158
3.5989
4.62041
5.4979
5.96168
5.80451
5.13373
4.28713
3.49991
3.00321
3.07817
3.90679
5.44635
7.42954
9.36063
10.9101
11.8394
11.9021
10.9564
9.175
6.68186
4.03983
1.97826
0.750586
0.267
0.0678218
0.0416286
0.0263919
0.0306788
0.0394475
0.0510583
0.0738985
0.103747
0.15881
0.229944
0.352897
0.512263
0.767755
1.10359
1.58887
2.22021
3.01704
3.95857
4.94143
5.80487
6.34845
6.33525
5.81148
4.97893
4.20423
3.6347
3.38183
3.7449
4.88039
6.81515
9.09542
11.218
13.0406
14.1672
14.3003
12.7117
10.0952
6.54964
3.42675
1.31098
0.516532
0.104746
0.0616972
0.0337013
0.0388428
0.055525
0.0698104
0.110909
0.146553
0.238851
0.320893
0.510479
0.688193
1.04289
1.40584
1.99026
2.64695
3.45382
4.37605
5.23834
6.04701
6.55863
6.637
6.3142
5.54069
4.65868
4.08784
3.81104
3.88064
4.71249
6.14107
8.56829
10.7535
13.6397
15.3423
17.2691
15.9901
13.9289
9.43526
5.70998
2.11204
1.06297
0.162165
0.102644
0.0457505
0.0359474
0.0283989
0.0233269
0.0200705
0.0179312
0.0164147
0.0152014
0.0141469
0.013278
0.0125903
0.0122812
0.0128104
0.0158604
0.0276025
0.0760597
0.318107
0.0383513
0.0303714
0.0252032
0.0218262
0.0195814
0.0179748
0.0167302
0.0156664
0.0147194
0.0138687
0.0131776
0.0128087
0.0132188
0.0162396
0.0290409
0.085398
0.332573
0.0299807
0.0262349
0.0232249
0.0210192
0.019409
0.0181497
0.0170858
0.0161318
0.0152523
0.0144524
0.013772
0.0133641
0.0136521
0.0164819
0.0296403
0.0910129
0.350983
0.0279542
0.0247381
0.0224429
0.0207667
0.019487
0.0184327
0.0174927
0.0166246
0.0158057
0.0150439
0.0143844
0.0139529
0.0141317
0.016646
0.0295077
0.0936169
0.374679
0.025505
0.0236302
0.0220448
0.0207646
0.0197081
0.0187881
0.0179419
0.0171373
0.0163684
0.0156457
0.0150132
0.0145777
0.0146727
0.0168112
0.0287313
0.0936252
0.402016
0.0250608
0.0234013
0.0220718
0.0209827
0.0200504
0.0192113
0.0184289
0.0176753
0.0169486
0.0162633
0.0156622
0.0152396
0.0152898
0.0170939
0.0277163
0.0915681
0.431355
0.0244971
0.0233096
0.0222475
0.0213126
0.0204707
0.0196891
0.01895
0.0182399
0.0175505
0.0169037
0.0163392
0.0159466
0.0159943
0.0175693
0.0268768
0.0878367
0.461906
0.0246134
0.0235521
0.0226012
0.0217476
0.0209602
0.0202171
0.0195095
0.0188312
0.0181807
0.0175736
0.0170536
0.0167086
0.0167977
0.0182862
0.0265779
0.0838002
0.494141
0.0247911
0.0238781
0.0230323
0.0222462
0.0215015
0.0207886
0.0201073
0.0194569
0.0188424
0.0182827
0.0178164
0.01754
0.0177177
0.0192697
0.0269513
0.0806295
0.529442
0.0251323
0.0243286
0.0235489
0.0228069
0.0220922
0.0214034
0.0207459
0.0201239
0.0195476
0.0190398
0.0186428
0.0184608
0.0187831
0.0205497
0.0281096
0.079181
0.569408
0.0256533
0.0248667
0.0241264
0.0234175
0.0227282
0.0220623
0.0214299
0.0208403
0.020309
0.0198629
0.0195524
0.0194999
0.0200328
0.0221666
0.0301007
0.080005
0.615309
0.0261065
0.0254369
0.0247524
0.0240767
0.0234118
0.0227701
0.0221671
0.0216174
0.0211418
0.0207727
0.0205737
0.0206954
0.0215218
0.0241786
0.0329432
0.0831593
0.667936
0.0268291
0.0261175
0.0254445
0.0247895
0.0241481
0.0235346
0.0229686
0.02247
0.0220652
0.0217947
0.0217416
0.0220923
0.0233141
0.026685
0.0367307
0.0894202
0.727767
0.0273621
0.0267857
0.0261722
0.0255532
0.0249432
0.0243663
0.0238488
0.0234168
0.0231033
0.0229608
0.0230975
0.0237462
0.0254764
0.0297446
0.0415887
0.0996183
0.795068
0.028241
0.0275931
0.0269813
0.0263849
0.0258092
0.0252793
0.0248255
0.0244799
0.0242842
0.024307
0.0246883
0.0257187
0.0280864
0.0334449
0.0474778
0.113019
0.871557
0.0288571
0.0283672
0.0278267
0.0272796
0.0267547
0.0262882
0.0259178
0.0256832
0.025638
0.0258712
0.0265631
0.0280727
0.0312199
0.0378726
0.0545032
0.129101
0.957891
0.0298837
0.0293072
0.0287717
0.0282621
0.0277964
0.0274104
0.0271457
0.0270508
0.0271938
0.0276907
0.0287696
0.0308651
0.0349422
0.0431036
0.0627409
0.147854
1.0538
0.0306028
0.0302082
0.0297614
0.0293254
0.028943
0.0286602
0.028527
0.0286034
0.0289769
0.0297977
0.0313454
0.0341403
0.0392992
0.0491974
0.0722311
0.169376
1.15756
0.0317769
0.0312914
0.0308668
0.0304968
0.0302101
0.0300514
0.0300758
0.0303563
0.0310059
0.0322121
0.0343128
0.0379208
0.0443099
0.0561506
0.0829941
0.193963
1.26875
0.0326244
0.0323424
0.0320307
0.0317665
0.031602
0.0315914
0.0317994
0.0323171
0.0332866
0.0349379
0.0376718
0.0421986
0.0499537
0.0639248
0.0949805
0.221624
1.38552
0.0339423
0.0335777
0.0333174
0.033156
0.0331278
0.0332849
0.0336996
0.0344838
0.0358121
0.0379611
0.0413983
0.0469341
0.0561669
0.0724202
0.108028
0.251698
1.50288
0.0349428
0.0347961
0.0346739
0.0346536
0.0347862
0.0351301
0.0357713
0.0368456
0.038563
0.0412492
0.0454398
0.0520492
0.0628345
0.0814932
0.121899
0.283694
1.61943
0.0363918
0.036183
0.0361513
0.0362745
0.0365799
0.0371241
0.0380059
0.0393863
0.0415111
0.0447557
0.0497233
0.0574308
0.0697883
0.090896
0.136215
0.316838
1.72773
0.0375543
0.0375729
0.0377116
0.0380111
0.0385067
0.0392626
0.0403949
0.0420894
0.0446263
0.0484281
0.0541615
0.0629397
0.076816
0.1003
0.150332
0.34948
1.82768
0.039114
0.0391142
0.0393954
0.0398762
0.0405713
0.0415474
0.0429358
0.044945
0.0478856
0.0522213
0.0586757
0.0684465
0.083726
0.109395
0.163739
0.379172
1.92409
0.0404361
0.0406922
0.0411846
0.0418729
0.0427811
0.0439867
0.0456356
0.0479572
0.0512867
0.0561223
0.0632353
0.0738976
0.0904304
0.118043
0.176129
0.403912
2.01266
0.0420956
0.0424203
0.0431138
0.0440187
0.0451527
0.0466
0.0485187
0.0511545
0.0548625
0.060168
0.0678796
0.0793299
0.0969548
0.126245
0.187375
0.423024
2.09416
0.0435935
0.0442351
0.0451837
0.0463298
0.0477104
0.0494198
0.0516259
0.0545879
0.0586763
0.0644359
0.0727021
0.0848534
0.103424
0.134133
0.197536
0.435678
2.16265
0.0453828
0.0462185
0.0474247
0.0488333
0.0504889
0.0524917
0.0550163
0.058331
0.0628204
0.0690414
0.0778457
0.090641
0.110035
0.141921
0.206823
0.441917
2.20804
0.0471161
0.0483434
0.0498511
0.0515603
0.053533
0.055875
0.0587662
0.0624812
0.0674167
0.0741373
0.0834995
0.0969214
0.117053
0.149891
0.215581
0.44268
2.21816
0.049114
0.0506614
0.0524942
0.0545508
0.0568985
0.0596448
0.0629732
0.0671646
0.0726237
0.0799223
0.0899106
0.103996
0.124829
0.158422
0.224291
0.439926
2.18194
0.0511828
0.0531668
0.0553804
0.0578511
0.060653
0.0638942
0.0677613
0.0725422
0.078649
0.0866585
0.0974099
0.11228
0.133873
0.168105
0.233651
0.435997
2.09265
0.0534861
0.0558867
0.0585436
0.0615147
0.0648758
0.0687365
0.073286
0.078821
0.0857652
0.0946985
0.106453
0.122366
0.144952
0.179907
0.244814
0.433233
1.95177
0.0559843
0.0588251
0.062015
0.0655987
0.0696571
0.0743057
0.0797386
0.0862648
0.0943273
0.104521
0.117675
0.135105
0.159221
0.195391
0.25979
0.434322
1.77032
0.0587149
0.0619935
0.0658237
0.0701591
0.0750929
0.0807532
0.0873472
0.0952025
0.104795
0.116757
0.131953
0.151702
0.178362
0.216932
0.281893
0.443498
1.56644
0.0616238
0.0654854
0.0699926
0.0752457
0.0812776
0.0882395
0.0963694
0.106028
0.117745
0.132236
0.150461
0.173838
0.204761
0.247963
0.316101
0.467713
1.35827
0.064696
0.0692828
0.0746041
0.0809014
0.0882937
0.0969243
0.107082
0.119194
0.133886
0.152025
0.174779
0.20381
0.241799
0.293554
0.36961
0.512954
1.16596
0.0679225
0.0733386
0.0796992
0.0872205
0.0962023
0.106958
0.119763
0.135198
0.154056
0.177471
0.207043
0.244935
0.294196
0.360198
0.452568
0.596039
1.00046
0.0712893
0.0776441
0.0852017
0.0942618
0.105197
0.118471
0.134668
0.154564
0.179243
0.210248
0.249782
0.301024
0.368689
0.459955
0.585568
0.753329
0.860751
0.0747939
0.0821962
0.0911182
0.101968
0.115271
0.131706
0.152161
0.177829
0.210371
0.252162
0.306668
0.379027
0.47702
0.612648
0.803703
1.05545
0.744098
0.117497
0.124598
0.132364
0.140023
0.147596
0.154903
0.161837
0.168259
0.174024
0.178996
0.183056
0.186107
0.188091
0.188983
0.188792
0.187566
0.185376
0.182323
0.178509
0.173988
0.168285
0.161938
0.156485
0.150995
0.145521
0.140109
0.134801
0.12963
0.124616
0.119781
0.115133
0.110681
0.106416
0.102339
0.0984422
0.0947257
0.0911787
0.0877953
0.084559
0.0814525
0.0784437
0.132727
0.141529
0.1505
0.159357
0.167916
0.176148
0.183896
0.190993
0.197286
0.202623
0.206877
0.209951
0.211793
0.212386
0.211759
0.209971
0.207123
0.203333
0.198733
0.193401
0.186849
0.179679
0.173419
0.167154
0.160935
0.154816
0.148843
0.143047
0.137453
0.132078
0.126937
0.122028
0.117344
0.112878
0.108628
0.104586
0.100742
0.0970853
0.0935987
0.090256
0.0870157
0.151464
0.161777
0.172038
0.182045
0.191804
0.201128
0.209827
0.217709
0.224604
0.230351
0.234813
0.237895
0.239549
0.239772
0.238611
0.23615
0.232514
0.227852
0.222323
0.216036
0.208501
0.200379
0.193186
0.186022
0.178945
0.172014
0.165279
0.158772
0.152518
0.146537
0.140839
0.135421
0.130271
0.125382
0.120747
0.116357
0.1122
0.108261
0.104521
0.100949
0.097489
0.173918
0.185634
0.197313
0.208852
0.220041
0.230657
0.240475
0.249278
0.256868
0.26308
0.26777
0.27084
0.272251
0.272018
0.270208
0.266938
0.262362
0.256665
0.250038
0.242629
0.233951
0.224721
0.216444
0.208236
0.200166
0.192299
0.184689
0.177368
0.170363
0.163695
0.157371
0.151383
0.145717
0.140363
0.135313
0.130552
0.126068
0.121844
0.117856
0.114071
0.110419
0.200233
0.213767
0.227338
0.240711
0.253614
0.265772
0.276918
0.286803
0.295207
0.301951
0.306889
0.309925
0.311028
0.310234
0.307639
0.303396
0.2977
0.290775
0.282853
0.274122
0.26411
0.25359
0.244046
0.234624
0.225402
0.216452
0.207832
0.199575
0.191712
0.184262
0.177231
0.170605
0.164367
0.158504
0.153004
0.147853
0.143033
0.138526
0.134307
0.130339
0.12654
0.231711
0.247446
0.263245
0.278805
0.293771
0.307787
0.32052
0.331689
0.341052
0.348415
0.353629
0.356604
0.357322
0.355843
0.352302
0.346895
0.339866
0.331486
0.322033
0.311744
0.300171
0.288146
0.277119
0.266279
0.255714
0.245506
0.235716
0.22638
0.217532
0.209191
0.201357
0.194014
0.18714
0.18072
0.174739
0.16918
0.164023
0.159248
0.154826
0.150721
0.146839
0.269767
0.288083
0.306495
0.324648
0.342093
0.358363
0.373023
0.38573
0.396237
0.404333
0.409864
0.412751
0.412995
0.41069
0.406014
0.39922
0.390607
0.380504
0.369245
0.357118
0.343717
0.329929
0.317164
0.304661
0.292527
0.280852
0.269703
0.259118
0.249135
0.239772
0.231025
0.222875
0.215294
0.208266
0.201772
0.195794
0.190311
0.185298
0.180724
0.176547
0.172662
0.316067
0.337487
0.359001
0.380223
0.400629
0.419632
0.436653
0.451236
0.463122
0.472105
0.478018
0.480797
0.480473
0.477183
0.471159
0.46272
0.452235
0.4401
0.426712
0.41242
0.396877
0.381023
0.366212
0.35176
0.337786
0.324397
0.311661
0.299625
0.28833
0.277791
0.268004
0.258943
0.250578
0.242888
0.235855
0.229459
0.223678
0.218481
0.213829
0.209672
0.205889
0.372843
0.398045
0.423307
0.448194
0.472119
0.494407
0.51432
0.531216
0.544794
0.554866
0.561264
0.563934
0.562953
0.558509
0.550903
0.540535
0.527852
0.513332
0.497445
0.480611
0.46256
0.444282
0.427069
0.410326
0.394194
0.378796
0.364204
0.350479
0.337662
0.32577
0.314794
0.304707
0.295473
0.28707
0.27948
0.272686
0.26666
0.261364
0.256745
0.252742
0.249204
0.443352
0.47314
0.502943
0.532233
0.560344
0.586527
0.609928
0.629676
0.645344
0.656777
0.663807
0.666406
0.664697
0.658938
0.649511
0.636911
0.621679
0.604387
0.585588
0.565787
0.544812
0.523701
0.503673
0.484243
0.465581
0.447831
0.43107
0.415378
0.400796
0.387344
0.375012
0.363772
0.353583
0.344424
0.336279
0.329134
0.322955
0.317689
0.313267
0.309609
0.306528
0.532577
0.567826
0.603051
0.637587
0.670648
0.701393
0.728896
0.752095
0.770328
0.783458
0.79133
0.793939
0.791473
0.784269
0.772804
0.75768
0.739548
0.719086
0.696945
0.673724
0.649373
0.624979
0.601677
0.579119
0.557509
0.537015
0.517731
0.499757
0.483136
0.467895
0.454027
0.441502
0.430281
0.420342
0.411679
0.404277
0.398091
0.393046
0.389058
0.386026
0.383723
0.648296
0.689887
0.731406
0.77203
0.810818
0.846791
0.878961
0.906174
0.927473
0.942674
0.951642
0.954406
0.951223
0.942516
0.928867
0.910994
0.889669
0.865688
0.83981
0.812737
0.78457
0.75644
0.729398
0.703253
0.678259
0.654608
0.632425
0.611834
0.592888
0.575623
0.56004
0.546115
0.533813
0.523115
0.514025
0.506531
0.500564
0.496028
0.492822
0.490828
0.489769
0.80288
0.851567
0.900082
0.94744
0.99254
1.03424
1.07146
1.10305
1.1278
1.1454
1.15573
1.15885
1.15509
1.14495
1.12913
1.10846
1.08382
1.05614
1.02629
0.995082
0.962779
0.930559
0.899403
0.869288
0.84053
0.81336
0.787947
0.764443
0.742923
0.723443
0.706015
0.690632
0.67727
0.665918
0.656596
0.649282
0.643878
0.640274
0.638354
0.637974
0.6388
1.01658
1.07268
1.12835
1.18251
1.23391
1.28128
1.32344
1.35926
1.38748
1.40757
1.41941
1.42311
1.41903
1.40778
1.39011
1.36695
1.3393
1.30816
1.27452
1.2393
1.20292
1.16661
1.13129
1.09712
1.06448
1.03367
1.00491
0.978384
0.954219
0.932496
0.913254
0.896511
0.882268
0.870531
0.861333
0.854631
0.850303
0.84823
0.848278
0.850263
0.853762
1.32391
1.38645
1.44802
1.5076
1.56386
1.61548
1.66124
1.70009
1.73087
1.75291
1.76605
1.77045
1.7665
1.75481
1.7362
1.71161
1.68208
1.64867
1.61241
1.57428
1.53484
1.49537
1.45673
1.41925
1.38339
1.34951
1.31793
1.28887
1.26251
1.23899
1.21838
1.20076
1.18616
1.1746
1.16615
1.16071
1.15816
1.15837
1.16116
1.16632
1.17322
1.78667
1.85127
1.91394
1.97405
2.03038
2.08173
2.12702
2.16533
2.19583
2.21785
2.23119
2.23604
2.23278
2.22201
2.20444
2.18092
2.1524
2.11986
2.08428
2.04662
2.00745
1.96796
1.92907
1.89116
1.85477
1.82031
1.78817
1.75864
1.73194
1.70829
1.68786
1.67074
1.65702
1.64679
1.64005
1.63673
1.63669
1.63977
1.64575
1.65435
1.66458
2.52237
2.57554
2.62554
2.67284
2.71665
2.75621
2.79084
2.81997
2.84318
2.86011
2.87052
2.87467
2.87283
2.86536
2.85275
2.83557
2.81445
2.79008
2.76315
2.73434
2.70414
2.67337
2.64277
2.6127
2.58363
2.55598
2.53013
2.50638
2.48502
2.46626
2.4503
2.43722
2.4272
2.42036
2.41666
2.41604
2.41836
2.42346
2.43109
2.44091
2.45121
0.261598
0.0550027
0.0208428
0.0132214
0.0110693
0.0105469
0.0106325
0.0110031
0.0115124
0.0121142
0.0128278
0.0137049
0.0148943
0.0166285
0.0192308
0.0229899
0.0275648
0.264956
0.0621985
0.0225861
0.013822
0.0114742
0.0109575
0.0110668
0.0114454
0.0119473
0.0125254
0.0131824
0.0139471
0.0149213
0.0162676
0.0182579
0.0213172
0.0258306
0.274712
0.0688631
0.024106
0.0143265
0.0118975
0.011415
0.0115467
0.011927
0.0124185
0.0129754
0.013587
0.0142698
0.0150893
0.0161385
0.0175781
0.0197317
0.0234285
0.293101
0.0751279
0.0252968
0.0147668
0.0123563
0.0119201
0.0120681
0.0124443
0.012923
0.0134599
0.0140346
0.01466
0.0153756
0.016232
0.0172937
0.0186084
0.0201488
0.319872
0.0802001
0.0260314
0.015184
0.012872
0.0124794
0.0126335
0.0129994
0.0134626
0.0139796
0.0145251
0.0151081
0.0157523
0.0164951
0.0173921
0.0185165
0.0198954
0.353954
0.0838485
0.0264111
0.0156518
0.0134655
0.0130979
0.0132453
0.0135949
0.01404
0.0145363
0.0150585
0.0156087
0.0161985
0.0168526
0.0176096
0.0185384
0.0197587
0.393834
0.0860814
0.0266217
0.0162355
0.0141519
0.013782
0.0139093
0.0142361
0.0146601
0.0151337
0.015637
0.0161632
0.0167153
0.0173057
0.0179533
0.0186846
0.0195559
0.438229
0.0871843
0.0268961
0.0169911
0.014946
0.0145407
0.0146331
0.0149299
0.0153273
0.015778
0.0162637
0.0167721
0.0173005
0.0178545
0.0184448
0.0190804
0.01977
0.486653
0.0877439
0.027468
0.0179659
0.0158658
0.0153866
0.0154273
0.0156854
0.0160492
0.0164753
0.0169423
0.0174342
0.0179437
0.0184742
0.0190354
0.0196316
0.0202223
0.53956
0.0884943
0.0285363
0.0192048
0.0169363
0.0163374
0.0163056
0.0165124
0.0168371
0.0172342
0.0176794
0.0181538
0.0186443
0.0191498
0.0196824
0.0202692
0.0209686
0.597979
0.0900724
0.0302531
0.0207587
0.0181912
0.017417
0.017285
0.0174253
0.0177029
0.0180644
0.0184834
0.0189395
0.0194144
0.019896
0.0203819
0.0208771
0.0214081
0.662945
0.0931594
0.0327474
0.0226898
0.0196751
0.0186568
0.0183878
0.0184418
0.0186599
0.018977
0.0193625
0.0197953
0.0202556
0.0207262
0.0211988
0.0216609
0.0220443
0.735068
0.0982588
0.0361215
0.0250711
0.0214475
0.0200988
0.0196425
0.0195837
0.0197263
0.0199873
0.0203289
0.0207276
0.0211614
0.0216122
0.0220775
0.0225814
0.023177
0.814364
0.105993
0.0405009
0.0280077
0.0235764
0.0217873
0.0210843
0.0208775
0.0209223
0.0211123
0.0213983
0.0217525
0.0221497
0.0225633
0.022974
0.0233799
0.0238211
0.900084
0.117316
0.0460794
0.031561
0.0261189
0.0237744
0.0227524
0.0223523
0.02227
0.0223686
0.0225843
0.0228838
0.0232409
0.0236272
0.0240129
0.0243622
0.0245936
0.992744
0.132758
0.0527214
0.0357813
0.0291412
0.0261159
0.0246917
0.0240423
0.0237964
0.023778
0.0239035
0.02413
0.0244297
0.0247768
0.0251508
0.0255529
0.0260168
1.09362
0.150656
0.0604765
0.0407429
0.0327124
0.0288714
0.0269512
0.0259878
0.0255334
0.0253674
0.0253794
0.025513
0.0257335
0.0260084
0.0263039
0.0266003
0.0269368
1.2017
0.170732
0.0693855
0.0465042
0.0368925
0.032097
0.0295794
0.0282292
0.0275142
0.0271632
0.0270355
0.0270572
0.0271867
0.0273894
0.0276212
0.0278201
0.0278772
1.31562
0.192786
0.079464
0.0530926
0.0417244
0.0358387
0.0326198
0.0308049
0.0297716
0.029192
0.0288913
0.0287747
0.0287907
0.028907
0.0290918
0.0293193
0.029588
1.43465
0.217297
0.0905537
0.0605029
0.0472278
0.0401277
0.0361075
0.033749
0.032337
0.0314828
0.0309729
0.0306875
0.0305594
0.0305481
0.0306123
0.0307154
0.03089
1.5563
0.243859
0.102673
0.0687095
0.053401
0.0449796
0.0400662
0.0370889
0.0352376
0.0340617
0.0333064
0.0328247
0.0325315
0.0323801
0.0323212
0.0322683
0.0320811
1.67997
0.272437
0.115747
0.0776676
0.0602176
0.0503892
0.0445046
0.0408409
0.0384935
0.0369487
0.0359097
0.0351998
0.0347156
0.0344088
0.0342426
0.0341599
0.034125
1.80335
0.302542
0.129637
0.0872817
0.0676171
0.0563254
0.0494128
0.0450093
0.0421171
0.040161
0.0388007
0.0378282
0.0371202
0.0366167
0.0362708
0.0360244
0.0359296
1.92399
0.333632
0.144196
0.0974459
0.0755276
0.0627454
0.0547722
0.0495926
0.0461189
0.0437159
0.0420013
0.0407383
0.0397828
0.0390601
0.0385103
0.0380359
0.0374866
2.0383
0.364848
0.159212
0.108033
0.0838649
0.0695985
0.0605592
0.0545872
0.0505079
0.0476295
0.0455313
0.0439493
0.0427191
0.0417591
0.0410237
0.0404447
0.0399766
2.14118
0.394709
0.174351
0.118887
0.0925301
0.0768274
0.0667487
0.0599906
0.0552969
0.0519246
0.049418
0.0474868
0.0459476
0.0447077
0.0437208
0.0429311
0.0424363
2.22903
0.42106
0.189207
0.129841
0.101428
0.0843868
0.0733295
0.0658145
0.0605127
0.0566372
0.0537017
0.0513948
0.0495196
0.0479697
0.0466819
0.0455626
0.0444755
2.29689
0.442338
0.203481
0.140795
0.110539
0.0922947
0.0803419
0.0721124
0.0662153
0.0618274
0.0584396
0.0557278
0.0534826
0.0515917
0.0500112
0.0486929
0.0475932
2.33522
0.457095
0.216956
0.151782
0.119975
0.100685
0.0879213
0.0790125
0.0725212
0.0675999
0.0637261
0.060565
0.0578955
0.0556038
0.0536516
0.0520277
0.0509291
2.3338
0.46494
0.229701
0.163038
0.130021
0.109839
0.0963214
0.086735
0.0796191
0.0741165
0.0696968
0.0660181
0.0628587
0.0601001
0.0576853
0.0555571
0.0536255
2.28392
0.467169
0.242154
0.175045
0.141176
0.120209
0.105932
0.0956075
0.0877821
0.0816005
0.0765325
0.072236
0.0684914
0.0651791
0.0622645
0.0597454
0.0576125
2.18171
0.466367
0.255231
0.188646
0.154215
0.132464
0.11731
0.106086
0.0973779
0.090347
0.0844677
0.079401
0.0749263
0.0709276
0.0673764
0.0643157
0.0621341
2.0303
0.465577
0.27047
0.205168
0.170256
0.147523
0.131202
0.118771
0.108885
0.100731
0.0937918
0.0877322
0.0823353
0.0774809
0.0731076
0.0691839
0.0657254
1.8412
0.468495
0.290372
0.226604
0.190858
0.166612
0.148577
0.134426
0.122896
0.113205
0.104848
0.0974907
0.0909169
0.0849917
0.0796534
0.074915
0.0708249
1.63134
0.480383
0.318841
0.255828
0.218154
0.191351
0.170682
0.154003
0.140126
0.1283
0.118026
0.108963
0.100871
0.0935905
0.087042
0.0812673
0.0768474
1.41783
0.50892
0.361564
0.296873
0.255059
0.223897
0.199105
0.178662
0.161417
0.146623
0.133759
0.122449
0.112407
0.103423
0.0953437
0.0880733
0.0816761
1.2183
0.561931
0.42685
0.355432
0.305662
0.267126
0.235877
0.209832
0.187761
0.168852
0.15251
0.138262
0.125732
0.114625
0.104715
0.0958835
0.0880955
1.0454
0.655021
0.525021
0.43985
0.375854
0.324983
0.283666
0.249288
0.220323
0.195758
0.174779
0.156713
0.14102
0.127268
0.115132
0.104467
0.095781
0.89829
0.826827
0.678336
0.561662
0.472898
0.403186
0.34597
0.299245
0.260497
0.228255
0.201152
0.178137
0.158419
0.141373
0.126491
0.11344
0.102067
0.774458
1.14994
0.923176
0.742462
0.608651
0.507107
0.427699
0.362579
0.310199
0.267651
0.232428
0.20295
0.178086
0.15693
0.138681
0.122959
0.10937
0.0484733
0.0932524
0.199434
0.429964
0.891957
1.74937
3.14486
4.89604
6.28222
6.57563
5.56063
4.32389
4.27522
6.55383
11.5401
16.8654
17.6374
10.7658
2.67302
0.21825
0.0620982
0.125645
0.27291
0.581024
1.16938
2.19454
3.72084
5.43417
6.67415
6.75201
5.74685
4.47791
4.20127
6.09804
11.1712
17.7879
20.3542
13.5743
3.52525
0.293248
0.0820893
0.173196
0.379031
0.793952
1.55085
2.78942
4.46814
6.1555
7.18904
7.10911
6.03044
4.6581
4.19992
5.84848
11.0278
18.8056
22.7767
16.1816
4.46728
0.387644
0.111651
0.242979
0.531458
1.09291
2.073
3.56967
5.35668
6.91812
7.71247
7.48595
6.38151
4.90884
4.25018
5.72896
11.1166
19.8649
25.117
18.9823
5.50583
0.504609
0.155654
0.34532
0.749512
1.51156
2.77839
4.51186
6.34741
7.72424
8.26093
7.88593
6.7459
5.20532
4.33935
5.65967
11.3799
20.9051
27.2337
21.3674
6.53925
0.649647
0.221329
0.49505
1.06083
2.09524
3.70759
5.67377
7.43546
8.55744
8.84462
8.33842
7.13607
5.51263
4.46703
5.67098
11.8015
21.9263
28.9139
23.1904
7.5334
0.828844
0.319513
0.713572
1.50398
2.89442
4.86843
6.9174
8.4696
9.33333
9.43801
8.84939
7.55267
5.81916
4.6267
5.81255
12.3846
22.8796
30.0257
24.3969
8.45748
1.0464
0.466709
1.03175
2.1267
3.92611
6.12586
8.03194
9.30768
9.98586
10.0034
9.36107
7.96048
6.09796
4.80352
6.15177
13.1027
23.6609
30.5237
25.0949
9.30078
1.3131
0.688642
1.49418
2.97398
5.10404
7.23156
8.82419
9.89289
10.504
10.5043
9.80235
8.28781
6.27236
5.02387
6.69468
13.9055
24.1412
30.4169
25.3901
10.099
1.64505
1.02541
2.16488
4.0387
6.19286
7.94501
9.24634
10.2552
10.8826
10.8774
10.0859
8.43383
6.31199
5.31994
7.41508
14.6739
24.1254
29.7136
25.2208
10.9071
2.07685
1.54136
3.10431
5.17429
6.93815
8.23551
9.39573
10.4313
11.078
11.0384
10.12
8.26295
6.28865
5.71314
8.23855
15.2278
23.5208
28.2828
24.5131
11.7103
2.6709
2.34546
4.29917
6.13277
7.29247
8.27832
9.3784
10.4027
11.0088
10.8725
9.70355
7.83562
6.24396
6.1974
9.03139
15.3479
22.2269
26.0751
23.2095
12.4781
3.52688
3.53431
5.56342
6.77749
7.44315
8.25526
9.25672
10.1512
10.6014
10.1594
8.86402
7.29954
6.24861
6.72249
9.62818
14.9061
20.2564
23.1627
21.3455
13.392
4.85336
5.09959
6.65589
7.21495
7.58791
8.22944
9.00116
9.59008
9.70981
8.99541
7.90626
6.81607
6.33878
7.19821
9.86847
13.9386
17.8048
19.8228
18.9065
13.9756
7.03718
6.78035
7.51081
7.60837
7.74758
8.11677
8.5181
8.64064
8.34522
7.78531
7.08448
6.52236
6.53215
7.5501
9.72708
12.6026
15.1306
16.3524
16.0107
13.7577
9.99876
8.21938
8.14475
7.90746
7.75636
7.75799
7.72969
7.54577
7.23992
6.93331
6.63837
6.5288
6.84919
7.8139
9.39574
11.2219
12.6727
13.2927
13.0515
12.1694
12.0717
8.96971
8.4333
7.83999
7.38497
7.12373
6.92658
6.77212
6.70836
6.69619
6.74492
6.95192
7.41284
8.17979
9.18484
10.2033
10.8618
11.0247
10.6129
9.90688
10.1536
9.20944
8.04577
7.26712
6.84569
6.66205
6.65064
6.79312
7.01468
7.27404
7.58501
7.97151
8.45032
8.99334
9.52395
9.92877
10.0498
9.79517
9.19515
8.50508
8.40323
8.75306
7.80095
7.38818
7.23502
7.30669
7.60804
7.9887
8.4073
8.84978
9.30287
9.74869
10.1681
10.5218
10.751
10.7755
10.5906
10.1007
9.43923
8.81715
8.90488
11.1567
11.5525
11.8066
12.164
12.6509
13.3166
14.0492
14.7862
15.5155
16.2356
16.9405
17.6137
18.2197
18.6422
18.8855
18.7387
18.7776
18.9856
19.5333
20.6218
17.8071
9.56902
9.80993
13.4223
12.2883
5.99133
3.11603
1.80174
1.14215
0.771559
0.542743
0.393584
0.292136
0.220817
0.169367
0.131515
0.10327
0.0820138
0.0658821
0.0536228
13.16
9.21469
11.0898
14.0452
7.82048
3.64157
1.84756
1.05196
0.653627
0.430643
0.296039
0.210488
0.153974
0.115508
0.0887126
0.0696992
0.056009
0.0460476
0.0387569
0.0333902
9.79826
8.79146
14.6022
11.2981
5.1539
2.32191
1.18499
0.674599
0.414748
0.269674
0.183446
0.129792
0.0952335
0.0723889
0.0569731
0.0463861
0.0390067
0.0337983
0.0300765
0.0273812
7.40802
7.91207
14.6012
7.3277
3.02364
1.37348
0.718683
0.413291
0.255758
0.167835
0.115885
0.0839398
0.0637165
0.050614
0.0419525
0.0361174
0.0321098
0.0292979
0.0272709
0.0257599
5.79053
7.38349
9.77888
4.14993
1.66235
0.79151
0.423781
0.249332
0.158256
0.1071
0.0769473
0.0585922