/*--------------------------------*- C++ -*----------------------------------*\
  =========                 |
  \\      /  F ield         | OpenFOAM: The Open Source CFD Toolbox
   \\    /   O peration     | Website:  https://openfoam.org
    \\  /    A nd           | Version:  6
     \\/     M anipulation  |
\*---------------------------------------------------------------------------*/
FoamFile
{
    version     2.0;
    format      ascii;
    class       surfaceScalarField;
    location    "3e-05";
    object      phi;
}
// * * * * * * * * * * * * * * * * * * * * * * * * * * * * * * * * * * * * * //

dimensions      [0 3 -1 0 0 0 0];

internalField   nonuniform List<scalar> 
4070
(
0.0993919
-0.0610877
0.066762
-0.105066
-0.0711993
0.0629521
-0.0820564
0.0903036
-0.0924682
0.100705
-0.00823688
-0.084197
0.114377
-0.0301804
-0.161079
0.0932473
0.0678316
-0.000252486
-0.0705348
0.0707873
-0.0974678
0.115041
-0.0175735
0.073063
0.0301352
-0.103198
-0.0317624
0.104825
0.0644997
0.0362442
-0.100744
0.105935
-0.0414357
-0.0580622
-0.0349022
0.0929643
-0.210953
0.0498746
-0.0829686
0.113944
-0.0309753
-0.028763
0.0285105
0.0638254
0.0381035
-0.101929
0.0266649
-0.110862
-0.145005
0.0475376
-0.086427
-0.02296
0.109387
0.100974
-0.00453211
-0.0964422
-0.0317368
0.0955622
0.0475766
-0.105639
-0.0695474
0.100156
-0.0306085
-0.0134329
0.114407
-0.0571276
-0.0292994
0.0310997
-0.114068
-0.0812828
0.0117355
0.0902403
-0.0204248
-0.0698155
0.0953471
-0.000295097
-0.095052
-0.0500114
0.140252
0.0280649
0.0672822
0.0850443
0.0252591
0.00257155
-0.112875
0.0753261
0.026563
-0.00866728
-0.0932218
-0.00100927
0.0328191
-0.00374488
-0.0614109
-0.0296274
0.0910384
-0.105812
0.12805
-0.0222384
0.0312017
-0.0926126
-0.114143
0.027579
0.0865639
-0.0308232
-0.0833196
-0.0801258
-0.0123424
0.0613053
0.0265954
-0.0879007
-0.124885
0.0190729
0.0802587
0.0110017
-0.0912604
-0.0208775
0.0821828
-0.0238089
0.104068
-0.0435524
0.0732949
-0.0297425
-0.0691621
0.0256097
-0.0821558
-0.010788
0.0929438
0.0178806
-0.100036
-0.109417
0.131617
-0.0221994
0.0910191
-0.0114569
-0.0795622
0.0601841
0.0248435
-0.0850276
0.0153755
0.0595317
-0.0749071
0.00866021
0.0823589
-0.0794455
-0.0299719
-0.0978462
-0.0159491
0.113795
-0.0681593
0.0879018
-0.0197425
-0.0778385
0.093214
0.0230329
-0.120879
-0.0272104
0.0873945
-0.089793
0.0216337
-0.0710814
0.111329
-0.0402473
0.0748363
0.0319475
-0.106784
0.0865996
-0.0886251
0.00202551
-0.123141
0.107017
0.0161241
-0.123453
0.0265947
0.0968579
-0.110701
-0.0124398
0.11273
-0.0224382
-0.0902921
-0.0892856
0.0182042
0.0254832
0.0872471
-0.0711656
-0.0193638
0.0905294
0.0199877
-0.0911533
-0.0841919
-0.0146271
0.098819
0.0433004
-0.127492
-0.132228
0.0161296
0.116098
0.125732
-0.0943192
-0.0314128
-0.112386
0.0947384
0.0176476
-0.108771
-0.00361521
0.0990431
0.0266889
-0.0811911
0.121348
-0.0401565
-0.131243
0.0500515
0.0749516
-0.105369
0.0304177
0.106719
-0.0317676
-0.130551
0.138936
-0.00838524
-0.0288357
0.103672
-0.069088
0.114794
-0.0457063
0.0303494
0.0279125
-0.0582619
-0.0417371
-0.0904905
-0.0818716
-0.00388552
0.0857571
-0.0357029
-0.0877496
-0.120728
0.0941686
0.0265594
-0.0729313
-0.0425497
0.115481
-0.0759903
0.097981
-0.0219908
0.124901
-0.0306318
-0.0942691
0.0810328
0.0055668
-0.0663275
-0.0178844
0.0842119
-0.0922974
0.0232095
-0.0864379
-0.0342901
-0.0745747
-0.0315225
0.106097
0.12665
-0.0852852
-0.0413652
-0.11762
0.0982777
0.0193428
0.123706
-0.033052
-0.0906542
0.118515
-0.0766024
-0.0419123
-0.110331
0.0343405
0.0820294
-0.100798
0.0187688
0.0773721
0.0257992
-0.103171
0.0187169
0.0259479
-0.100523
0.0244987
-0.0974299
-0.0693786
0.103734
-0.0343549
0.0743367
-0.102204
0.0278668
0.0678542
-0.108218
0.0403635
-0.0139942
0.0913663
0.0929288
0.0337217
-0.0855323
-0.0320882
0.076031
-0.0959923
0.0199613
0.0665957
-0.0949558
0.0283601
0.0266318
0.0970744
0.103171
-0.0271403
0.120571
-0.0208948
-0.0996759
0.0734385
-0.0954534
0.0220149
-0.0676698
-0.00778241
0.0754522
0.0937443
-0.0258901
0.0929862
0.0255285
0.00182183
-0.0836934
0.083057
-0.0527076
0.00765628
0.0983303
-0.0239936
-0.122202
0.0950039
0.0271979
-0.091131
-0.0310708
0.112902
-0.0690956
-0.043806
0.0548779
0.0700229
-0.1301
0.115819
0.0142815
0.125704
-0.0229104
-0.102794
0.0940867
-0.0120573
-0.14029
0.00973868
0.12314
-0.02535
-0.0977903
-0.111062
0.0416834
0.0362154
0.0843553
0.119309
-0.0458704
0.122558
-0.0173974
-0.105161
0.0684522
0.0444495
-0.122
0.0212253
0.100775
0.0196388
0.106065
-0.0919132
-0.0300871
0.0906697
-0.0240741
0.0285289
0.0940296
-0.0958197
-0.0342805
0.122782
-0.0099096
-0.112873
0.0250603
0.0980799
0.0633297
0.0908945
-0.154224
-0.127261
0.0244673
0.102794
-0.0788832
-0.0191512
0.0980344
0.0210756
0.101707
-0.0171812
-0.11008
0.0282481
-0.107131
0.223267
-0.159937
-0.0210197
0.0283943
-0.00962573
0.0284063
0.133648
0.0567023
-0.0994553
0.207718
0.149196
-0.0389934
0.037689
-0.0498453
0.071224
-0.0213787
0.0200622
-0.0221738
0.00211152
0.00865284
0.0299159
-0.0385688
-0.0602829
-0.16576
0.226043
0.0246713
0.100965
-0.125636
0.107841
0.0267418
-0.134583
0.017861
-0.0015982
-0.0162628
-0.030016
-0.100084
0.1301
0.0269547
-0.126457
0.0995027
-0.0507558
-0.139651
0.190407
0.100911
-0.0421876
-0.0587231
0.0193546
0.101951
-0.121306
-0.0399491
-0.14544
0.185389
-0.128927
-0.0727141
0.201641
0.0941802
-0.117865
0.023685
0.105402
-0.0112217
-0.144077
0.0955036
0.048573
-0.10672
-0.0373565
0.0806099
-0.108277
0.027667
0.103739
-0.0231294
0.0280307
-0.0675269
0.0394962
-0.123855
0.0934931
0.030362
-0.0943558
-0.0294993
-0.0258985
0.0539292
0.167082
-0.0196786
-0.147404
0.0416435
0.125439
-0.0835518
-0.0198522
0.103404
0.157933
0.0132014
-0.171134
-0.0934828
0.00993105
0.145914
-0.104703
-0.0412108
-0.180556
0.138947
0.0416087
-0.108586
-0.0719701
-0.0971333
0.031212
0.0659213
0.105996
0.0399182
-0.081887
-0.0533362
0.135223
0.0790164
-0.160903
0.0259581
0.100834
-0.126792
-0.389652
0.179891
0.209761
-0.230344
0.186893
0.0434513
0.0445262
-0.0975959
0.0530697
0.0347084
0.0302866
-0.064995
-0.116715
-0.113629
-0.0115014
0.0374595
-0.0251199
0.0984716
-0.0733517
0.00921546
-0.398867
0.102593
0.0056884
-0.108281
0.0934974
-0.0208228
-0.0726745
0.139961
-0.105253
-0.0957428
0.0371158
0.058627
0.0385648
0.0640281
1.27242e-05
0.0934846
0.229818
-0.0960222
-0.133796
0.191708
0.0381094
0.0559433
0.104275
0.0314906
0.0202384
-0.101431
0.102418
0.0486722
0.0775283
-0.020265
0.141912
-0.087869
-0.124181
0.0701378
-0.0941834
-0.193326
0.258747
0.117075
0.0315847
-0.121995
0.0289886
-0.0728338
-0.0620668
0.105912
-0.101669
-0.0468264
0.166448
-0.0179523
0.0340514
-0.0852912
-0.055313
0.106553
-0.0751228
-0.167727
0.20759
0.0352604
0.0397208
0.0682901
-0.00280185
-0.105209
0.0544583
-0.145719
0.00978234
0.0814784
0.0500935
0.0448642
0.0167178
-0.111676
0.125212
-0.110695
-0.0857163
-0.0245557
0.040014
0.0975534
-0.113012
0.143246
0.0634962
0.0991645
0.119547
0.0365538
0.0626107
0.189005
-0.0647207
0.27183
-0.209424
0.0323146
0.177109
-0.0778282
0.244944
0.134388
-0.0315262
-0.160872
-0.0628796
-0.190815
-0.0782224
-0.222341
0.111565
-0.0518308
-0.0307457
-0.0549877
-0.134969
0.0882871
0.119497
-0.0513384
-0.0341075
-0.08398
0.161208
-0.0375068
0.0525989
-0.121244
-0.00647787
0.161719
0.0224672
-0.129728
-0.064636
0.173695
-0.0589654
0.296008
-0.0288836
0.0597061
-0.117191
0.0329289
0.177974
-0.0849197
-0.0443817
0.0527776
-0.251342
-0.178799
0.0412221
0.0433936
0.214784
0.0125123
-0.110221
0.108498
-0.0972501
0.0817991
-0.066269
0.168705
0.0593205
-0.228025
0.218177
0.0894278
-0.307605
0.248338
-0.0533837
-0.194955
0.0222489
0.410496
-0.432745
0.194348
0.071477
-0.265825
0.188575
0.0737413
-0.262316
0.198799
0.0235799
-0.222379
0.0886489
0.21192
-0.300569
0.0409488
-0.0236526
-0.0172962
0.213839
0.0824413
-0.29628
0.152073
0.241344
-0.393417
0.199493
0.06777
-0.267263
0.151747
0.270979
-0.422726
-0.0355933
0.0477697
-0.0121764
0.223594
0.104301
-0.327895
0.233422
0.0976305
-0.331053
0.171605
0.17782
-0.349425
0.293914
0.223186
-0.5171
0.154325
0.25197
-0.406296
0.0633748
-0.058992
0.209456
0.176633
-0.190593
0.165707
0.241242
0.0740668
-0.160984
0.0614206
-0.0831731
0.190457
0.20477
-0.205489
-0.1861
0.300412
0.0534946
-0.0558743
0.220557
0.213024
0.073762
-0.286786
0.0858226
0.31128
-0.397103
0.103961
0.190625
-0.0236076
0.00151097
0.169065
0.0777629
-0.0653086
0.0616072
0.198049
0.222447
-0.199794
0.0488242
-0.256511
-0.0773426
0.28047
0.297266
-0.257344
-0.0176729
0.209309
-0.1923
0.0724187
0.19033
0.268993
-0.0488264
-0.0311605
-0.00488823
0.234848
0.0623425
-0.0671738
0.193406
0.208468
0.0612991
-0.196025
0.208001
0.0685018
-0.187854
0.051473
-0.0576002
0.218047
0.157233
0.0816928
-0.215346
-0.0261491
0.192826
-0.0614703
0.0536141
0.207349
0.329781
0.0532402
-0.230948
0.173025
0.0825363
-0.197495
0.210723
0.0692137
0.050996
0.213957
-0.0413585
0.178642
0.267302
-0.445945
0.210637
0.111573
0.177336
0.239302
-0.416638
0.0127704
0.167006
0.114137
0.0526941
0.175819
-0.228513
-0.00801162
-0.256229
0.167935
0.0963058
0.046687
0.238811
-0.0520754
-0.200881
0.195033
0.0736178
-0.0955085
0.12291
-0.0629951
0.132597
0.230503
-0.18528
0.20172
0.0685653
-0.184463
-0.072488
-0.108832
0.18132
0.210175
-0.131518
0.144529
0.0157136
0.26583
-0.281544
0.0171194
-0.137772
0.120652
0.148784
0.315656
-0.46444
0.0674796
0.197237
-0.0516929
0.213087
0.0699665
-0.283054
0.123764
0.294109
-0.417872
0.161072
0.278712
-0.439783
0.206119
0.0627724
-0.195129
0.0413178
0.111083
-0.159645
0.00724446
0.163557
0.0130763
-0.0146248
0.261942
-0.247317
0.0756631
0.21703
-0.292693
0.0338124
0.322218
-0.0447501
0.197675
-0.159728
-0.0222329
0.233981
-0.0503993
-0.183581
0.203567
-0.212246
0.200011
0.0568232
-0.181171
-0.24702
0.0228151
0.271974
-0.188922
0.203666
0.0895578
0.207581
0.0825888
-0.112834
-0.0662531
-0.113415
0.179668
-0.260869
0.252857
0.21053
0.0872482
-0.297778
-0.205299
0.22246
0.161481
0.0226304
-0.0856092
0.0629788
0.199836
0.0930286
-0.195234
-0.0216716
0.225074
0.0624278
0.267518
0.123144
0.169599
-0.0254412
0.0987835
0.142459
-0.0494688
0.0924475
0.196323
-0.149252
0.212627
0.450375
-0.378977
-0.0713984
-0.162122
0.266081
-0.0868395
0.124065
0.189959
-0.16524
0.193606
-0.186627
-0.0216042
0.00754086
-0.165442
0.157901
0.168516
-0.208699
0.0401827
0.303091
-0.0372894
-0.265802
0.0454279
0.201202
-0.0708113
-0.0683342
-0.113806
0.18214
0.171486
0.0302338
0.00214994
-0.258379
0.165117
0.0591032
-0.0478613
-0.176359
-0.0962067
-0.0628763
0.159083
-0.203539
-0.0231169
0.0888845
0.145833
-0.200487
-0.0745963
0.186713
0.268862
-0.0711876
0.0925929
0.0725245
0.286709
-0.0191906
0.273048
-0.0838267
0.0727201
0.198198
-0.165147
0.0907125
-0.0592279
-0.137925
0.197152
0.283148
0.0397976
-0.161873
0.0607708
-0.0542054
0.206522
0.22164
-0.0669154
0.0530969
-0.146891
0.214371
0.0788336
0.24325
-0.322084
0.112606
-0.176486
-0.147413
0.145456
0.206877
-0.455481
-0.116205
0.571686
-0.144
0.103795
-0.153903
0.0501085
-0.294972
0.146164
-0.194725
0.297118
0.192984
-0.180811
0.0666613
-0.114224
0.124211
-0.16389
-0.409196
0.125938
-0.130986
0.00504805
-0.0258138
0.0793919
0.258138
-0.199035
0.0419824
-0.0586423
0.233689
-0.186779
-0.085311
0.186095
0.0859951
-0.0458403
0.0324907
0.22388
-0.224555
0.0546254
0.16993
-0.102617
0.188474
0.0619698
-0.147827
-0.129538
0.0288191
0.100719
-0.0623509
0.161134
0.173562
-0.174701
0.110252
-0.130456
-0.340439
0.470895
-0.255
-0.248439
0.196407
0.052032
-0.0895505
0.258615
0.137451
0.0710163
-0.139274
-0.161616
0.268971
-0.211323
-0.0576475
-0.140827
-0.0043833
-0.0772317
-0.0998496
0.177081
-0.0638591
0.145728
-0.0818692
0.294237
-0.290508
-0.0037289
0.247191
-0.200284
0.0305879
0.169696
0.145367
0.210146
0.0748204
-0.284966
0.0558726
0.152428
-0.208301
0.111167
0.0732823
0.047054
0.151056
-0.19811
-0.144796
0.0755683
0.191762
-0.180083
0.0708448
0.124164
-0.195009
0.318392
0.0552146
0.350363
-0.0640176
-0.286345
-0.147886
0.2015
0.243555
-0.0499484
-0.0471466
-0.170452
0.217599
0.155613
0.0545616
-0.367435
0.264819
-0.176648
0.0178182
0.15883
0.113972
0.172754
-0.0347548
0.174048
0.040323
0.32262
0.205381
-0.198492
0.0630777
0.0576316
0.249553
0.163224
0.0297593
-0.329485
0.340679
-0.0111937
0.225328
-0.310639
-0.186473
0.121724
0.103965
0.224167
-0.328132
0.300213
-0.221367
-0.0788455
0.0619484
0.21624
-0.0680428
0.0108279
0.132423
-0.22886
0.150638
0.0475603
0.245506
-0.204188
0.199979
0.129803
-0.132736
-0.00446357
0.1372
-0.0371888
0.105883
0.20718
-0.155086
-0.0520945
-0.0150262
0.30398
-0.0549735
0.141045
-0.117366
-0.0502992
0.167665
0.191131
0.0313291
-0.186866
0.0726736
0.114192
-0.0272432
0.248883
-0.174161
0.049043
0.217711
-0.0493364
0.257312
-0.207976
-0.140254
-0.0226825
0.162937
0.195595
0.314275
-0.0084958
-0.0973347
0.368404
-0.271069
-0.241509
0.324747
-0.0832379
-0.17256
0.0693661
0.207159
0.385601
-0.13841
-0.200696
0.173453
0.247452
-0.262478
0.110799
-0.0579401
-0.0159025
0.186621
-0.170718
-0.10172
0.110584
-0.138402
-0.280748
0.237014
0.043734
-0.237067
-0.0102495
-0.0187742
-0.239945
0.0779078
-0.187514
0.175737
-0.147791
0.198787
-0.0560754
-0.14914
0.205215
-0.340307
0.376602
-0.0362954
-0.14007
0.0328023
-0.194925
-0.0268202
-0.149828
-0.121627
-0.117635
-0.00403206
0.121667
0.169183
-0.0963139
-0.0728696
0.252544
-0.0575345
-0.126406
-0.0615358
-0.188325
0.0619193
-0.241303
-0.00924483
-0.168123
-0.188234
0.168032
0.0804397
-0.0466055
0.190333
-0.409426
0.0802985
0.195441
-0.0324897
-0.210431
-0.0422195
0.22583
-0.0932292
0.0693396
0.241218
-0.0385724
0.0899461
0.182394
0.347077
0.0839768
-0.207633
-0.0633541
0.276322
-0.00533536
0.153878
-0.0951938
0.104252
0.139429
0.00295078
-0.14238
0.208703
0.0187708
-0.227474
0.0763545
0.0525617
-0.128916
-0.36223
-0.072497
0.370348
-0.297851
-0.153302
0.233741
-0.0950293
0.167554
-0.152063
-0.0583683
0.218042
-0.231818
0.0503576
-0.0298633
-0.245292
-0.268844
0.210888
0.0579559
0.155549
0.043836
-0.199385
0.107273
-0.052084
0.222468
-0.240453
0.0179851
-0.0372709
0.256801
-0.21953
-0.221857
-0.035555
0.232032
-0.250807
-0.270808
0.00196431
-0.0683193
0.353702
-0.285383
0.256431
-0.047953
0.1678
-0.13849
0.368676
0.277328
-0.00231051
-0.275018
-0.270824
0.24973
0.049913
0.187979
-0.243245
-0.00682427
0.234144
-0.22732
-0.0722547
0.161921
-0.0896667
-0.14708
-0.0372147
0.184295
0.243523
0.353332
-0.117679
-0.235653
0.216713
0.12773
-0.19861
0.266603
-0.142236
-0.224537
0.145722
0.0788146
-0.092344
-0.0799057
0.17225
0.266699
-0.0102685
-0.0752773
-0.0482063
0.123484
0.208269
0.150495
-0.0438981
-0.106597
-0.0496271
0.29315
-0.241912
0.141081
0.10083
0.341706
-0.0860942
-0.255612
-0.0442117
0.157436
0.0767945
0.0342884
0.155752
0.0588515
-0.214603
0.241012
-0.0852604
0.138205
-0.233713
0.0929294
-0.211218
0.184719
0.0725932
-0.270921
0.115476
0.155445
0.262799
-0.0500316
-0.212768
-0.148233
0.197276
-0.252963
0.248905
0.00405796
-0.150348
-0.159463
0.122945
0.0448171
0.273088
-0.317905
0.243247
-0.0922068
-0.15104
-0.208307
0.0580803
0.150227
-0.114682
-0.0853834
0.124788
-0.0924741
0.0652915
0.23807
0.221368
-0.0927398
-0.186275
0.150412
0.102056
0.141191
-0.18389
-0.0466408
0.3473
-0.237487
-0.109813
0.392129
-0.149232
-0.242897
0.0738416
0.125098
-0.198939
0.282493
0.0321248
-0.314618
-0.271681
0.0778121
0.193869
0.222393
0.0571567
0.0538575
-0.147536
0.057845
0.253681
-0.201914
-0.0517669
-0.137157
0.34321
-0.121094
0.0366992
0.185017
-0.221716
-0.15807
0.094716
0.230001
-0.325195
0.126272
-0.129475
0.00320247
0.208848
-0.0900511
-0.0516682
-0.163134
0.214802
-0.107753
-0.254755
0.362507
0.127141
0.0852367
-0.0833927
0.0933478
0.227059
0.150925
0.0366714
-0.187597
-0.258604
-0.0341063
0.292711
-0.0174766
0.25183
-0.237953
-0.0138776
0.172845
-0.217106
0.103113
0.0375786
-0.0418586
-0.199495
-0.279995
0.0974127
0.182582
-0.209313
0.0549864
-0.04448
0.198806
-0.144265
-0.0650478
0.189041
0.27389
-0.0323834
-0.241506
0.0585057
0.277143
-0.284697
0.00755476
-0.352827
0.202161
0.150666
-0.178675
-0.0821939
-0.0548513
-0.162272
-0.10116
-0.295943
0.242353
-0.175691
-0.148634
-0.0533429
0.201977
-0.289458
0.195926
-0.258821
-0.167329
-0.0457326
0.213062
-0.188821
0.237951
-0.143618
0.036231
-0.21117
-0.0576744
-0.278458
0.214288
-0.225858
0.182208
0.0436502
0.0915086
0.133566
0.14676
0.0621164
0.141086
-0.0131845
0.249051
0.207588
0.0414629
-0.0783562
0.0585632
0.166555
-0.0254689
0.277379
0.0967643
-0.20009
0.0651545
-0.0641535
-0.141895
-0.0581945
-0.048655
0.183753
-0.042681
0.210388
-0.167707
-0.183281
0.0548656
0.19312
-0.0647048
-0.209389
0.189828
-0.0286448
-0.232989
-0.0905684
0.216645
-0.253703
0.191134
0.227502
-0.15873
-0.0687712
0.0184119
-0.268232
0.24982
-0.280611
0.110789
-0.00346831
0.112329
0.125623
0.289636
-0.273284
-0.016352
-0.325867
0.252387
0.185808
0.175751
-0.202434
0.108853
-0.200528
-0.0677043
0.138562
-0.054638
0.250796
-0.175124
-0.0467009
0.221825
-0.147235
0.202308
-0.0550729
-0.0696455
0.205314
-0.196212
-0.245206
0.0512247
0.193981
-0.245574
0.157659
0.226477
-0.21688
-0.173191
-0.0308046
-0.19022
0.0504247
-0.19469
0.147357
-0.187128
0.0397709
0.0731443
0.199166
-0.0700023
-0.204134
0.064339
0.259903
0.192586
-0.126041
-0.068649
-0.203929
0.148856
-0.205265
-0.0665451
0.0676762
-0.23239
-0.0131836
-0.0565724
0.242622
-0.0513643
-0.191258
0.168265
-0.0770574
-0.0912074
-0.0737327
-0.157088
0.123537
-0.0609264
-0.14372
0.118251
0.252694
0.0586496
-0.160677
-0.268787
-0.0399891
0.276187
-0.0367282
-0.239459
-0.189001
0.200105
-0.183785
0.102365
0.249685
-0.24637
0.0505068
-0.295043
0.333577
-0.0385337
-0.166333
0.202187
-0.0554095
0.0537148
-0.200492
-0.159605
-0.0617954
0.0806014
-0.146161
-0.0561689
0.20233
0.435349
-0.155268
-0.280081
0.0560254
0.057011
-0.198906
-0.126524
-0.26319
0.0794056
-0.181216
0.0531581
-0.157549
0.187212
-0.192558
0.0683532
-0.210032
-0.212888
-0.0398117
-0.182529
-0.0651193
0.196163
0.166561
-0.208905
0.0323803
0.00881405
0.155122
-0.163936
-0.159378
0.232019
-0.129654
0.297548
-0.0804734
-0.217074
0.132295
0.180306
-0.229883
0.049577
-0.208737
0.0621666
-0.0650053
0.211576
-0.108815
0.138401
-0.240121
0.267897
-0.199332
0.218587
-0.213248
0.229945
-0.0166978
0.0598324
-0.243114
0.159163
-0.168764
0.00960121
0.141462
0.140048
-0.198243
-0.0863775
-0.26104
-0.00567267
0.184518
0.156825
-0.178329
0.0215044
0.14347
-0.0228173
0.12617
-0.302959
0.04878
0.254186
-0.056111
-0.198075
0.0424633
0.205443
-0.11604
-0.0894037
-0.0779047
0.186851
-0.152362
-0.0344885
0.195998
-0.187821
0.0308823
-0.0390595
0.00119088
-0.0953581
0.252183
-0.0445326
-0.141336
0.204663
-0.0633273
-0.158378
0.152288
0.00608995
0.0439685
-0.065336
0.208218
-0.149692
-0.258236
-0.199407
0.0104668
0.268778
0.205968
-0.0480956
-0.216785
0.380612
-0.275972
-0.10464
0.162801
0.0256731
0.332373
-0.238814
-0.093559
-0.120788
0.182434
-0.061646
-0.240193
0.173965
-0.0291303
0.246437
-0.194069
-0.0523684
-0.166389
-0.0329956
0.102567
0.14387
0.23716
-0.232882
-0.00427858
-0.203285
-0.0646889
0.267974
-0.14395
0.198816
-0.223779
-0.0691459
-0.0769494
0.190651
-0.199964
0.201376
-0.243596
-0.140419
0.133554
-0.171465
-0.140232
-0.222828
0.0747813
0.239633
-0.157572
-0.0640676
0.240442
-0.114141
-0.126302
-0.156148
0.257369
-0.133794
-0.29324
0.427034
-0.226679
0.144632
0.140992
-0.00691256
0.234201
-0.0907308
-0.338377
0.0354184
-0.0699496
0.193362
-0.198577
-0.235335
-0.135048
-0.0743413
0.0554041
-0.2654
0.209996
-0.0569658
0.184528
-0.0574911
0.191153
-0.195011
0.06135
-0.121613
-0.154903
0.175026
-0.123727
-0.0224968
0.174865
0.0415012
-0.0771702
0.0463981
0.221105
-0.144801
0.00852008
-0.166384
0.193602
0.0605841
0.0608626
0.17958
-0.23584
0.192944
0.0428964
-0.100435
0.423055
0.19152
-0.280774
0.297728
-0.0169536
-0.217971
0.221152
-0.16029
0.263594
0.0102954
-0.181125
0.246168
-0.0501696
0.144673
-0.202164
-0.00481955
0.13099
0.0700233
0.204019
-0.199222
0.107137
-0.0545058
0.195968
-0.163842
-0.0507611
-0.0805981
0.022614
-0.283654
-0.194558
-0.0485555
-0.220099
0.198628
0.115698
-0.183343
0.0676445
0.152774
-0.219352
0.0665789
-0.224021
0.542413
0.164729
-0.0233356
-0.252324
0.200625
0.0516994
-0.286546
0.0731521
0.213394
-0.0449198
-0.241626
0.039276
0.112703
-0.151979
-0.265755
0.286596
-0.0208411
-0.058869
-0.193455
-0.15979
-0.105965
-0.129831
0.108728
0.23616
-0.183063
-0.0600295
0.189868
0.0663253
-0.196164
0.216135
0.0854794
-0.260124
0.174644
0.412712
-0.159855
-0.0131993
0.165488
0.211244
-0.135232
-0.279795
0.413349
0.147527
0.134336
-0.127365
0.0691817
0.147379
-0.207409
0.0715752
-0.129517
0.237522
0.0479909
0.149285
0.314762
-0.325199
0.0959155
-0.211783
-0.100661
0.16989
-0.0692296
0.303023
-0.0640725
0.280785
-0.120158
-0.247277
-0.26363
0.257958
-0.281689
0.112538
0.0965314
0.207449
0.180478
-0.105749
0.113639
-0.188368
0.195106
0.224295
-0.0724197
0.112892
0.231719
0.089351
-0.247819
0.220883
-0.173376
-0.0475066
0.021662
-0.052786
0.190908
-0.0631775
-0.0938082
-0.28714
0.0157087
-0.261171
-0.00929194
0.21654
-0.0314125
0.198702
-0.256768
-0.310865
0.236314
-0.0519939
-0.183846
0.00206863
0.221548
0.154545
0.0965151
-0.25106
0.199966
-0.208462
-0.306775
0.261855
-0.00281792
0.259543
-0.0664231
0.188831
-0.250743
0.061912
0.160833
-0.184235
0.0234019
0.190007
-0.17368
0.0203452
0.259973
-0.115458
-0.144516
-0.262612
-0.0303821
0.158701
-0.180934
-0.315293
0.106556
0.211762
-0.149814
-0.0870312
-0.278852
-0.0261959
0.178969
0.159862
0.103802
0.240181
-0.0298137
-0.236537
-0.0656517
0.0876235
0.214565
-0.032813
-0.25773
0.18531
-0.138714
0.0449054
-0.119376
-0.198201
0.0765242
0.241053
0.235816
0.00908889
-0.244905
-0.248912
-0.0265593
-0.0398965
-0.127613
-0.0907289
0.251562
0.168609
-0.0752608
-0.0552721
-0.0318446
0.0827121
-0.0948885
0.257411
-0.176337
0.241786
-0.0654488
0.189172
-0.0031063
-0.186066
0.0153357
0.153976
0.0265017
-0.141672
0.15738
0.258656
-0.201181
-0.0574752
0.24857
-0.182582
-0.045931
-0.243721
0.0550509
0.18867
-0.044048
0.087072
-0.272341
0.229317
-0.014541
-0.22918
-0.309764
0.192337
0.117427
-0.125529
-0.146361
0.0686056
-0.0850167
0.196988
-0.0402463
0.200629
0.0610625
-0.246676
0.058849
0.187827
-0.23134
0.0410783
-0.0521267
-0.190866
-0.254933
0.0597154
0.195217
-0.0553298
0.0603644
-0.0983885
0.0854622
-0.170416
-0.247885
0.0346378
0.159665
0.0278262
-0.187491
-0.0916085
0.251273
-0.126325
0.221638
0.190184
-0.0148335
-0.253991
0.12417
0.255111
-0.198871
-0.0562406
0.199634
0.0554776
0.245938
-0.0710731
0.221146
0.0388278
0.14185
-0.229809
-0.256882
0.212834
0.0203512
-0.00988441
-0.227756
0.17966
0.052483
-0.0321319
-0.258791
0.252166
0.00662561
-0.21303
-0.214207
0.169454
0.0447531
-0.0425481
-0.185208
0.197803
-0.146395
-0.0514074
-0.192327
0.0910361
0.101291
-0.260808
0.191584
-0.245768
0.204401
-0.197739
0.0574257
-0.182955
0.114451
-0.347421
0.147893
-0.167388
0.283288
-0.260473
-0.217223
0.0663163
-0.0592934
-0.16944
0.255613
-0.176778
-0.0788352
0.153064
-0.067827
-0.327143
0.0508615
-0.203224
0.0464014
0.165361
-0.154793
0.392092
-0.2373
-0.0572548
0.183563
-0.190054
0.24721
0.00687796
-0.269356
-0.0952579
-0.220035
-0.199525
0.0578538
0.0805349
0.125572
0.224336
-0.180368
-0.128638
0.165976
0.192212
-0.104699
-0.0699759
-0.21499
0.288553
-0.270538
0.0772929
0.156734
-0.234027
0.257643
-0.152541
-0.267381
0.219578
0.106652
0.315858
-0.294859
-0.020999
-0.066476
0.204003
-0.176558
0.189192
-0.0399078
-0.199887
-0.055046
-0.137792
-0.313346
0.188599
-0.0208557
-0.244605
0.0768614
-0.054901
0.246054
0.0225779
0.17422
0.22926
-0.335009
0.000623384
-0.241165
-0.0457012
0.23557
-0.0602052
-0.0777127
-0.330214
0.316527
0.148859
-0.206991
0.0581324
-0.209595
0.0569285
0.20985
-0.0614274
-0.088293
0.247368
-0.159075
-0.20754
-0.00267148
-0.192283
0.0609228
-0.196155
-0.0529604
0.214008
-0.0666292
0.148421
-0.0775006
-0.144135
0.206301
0.391742
-0.103189
0.22999
-0.27805
0.0480599
0.18569
-0.263032
-0.179201
0.063089
-0.24229
-0.193814
-0.20205
0.263349
-0.105589
-0.17021
0.247973
0.00761123
-0.162599
-0.0597558
0.198349
0.0620312
-0.253578
0.0515282
-0.113255
0.10557
-0.152211
-0.205619
-0.110225
-0.200117
-0.0534613
0.0480733
0.210999
0.25344
-0.191254
-0.0621854
0.111732
-0.114403
-0.128635
0.219324
-0.0906891
0.173941
-0.120701
0.0596252
0.281469
-0.065229
0.115608
0.160973
-0.0551551
-0.251966
0.0554396
0.196526
-0.195826
-0.0561396
-0.235362
-0.0956907
-0.282704
0.178139
-0.264725
0.114377
-0.103625
0.233902
0.254828
-0.00745975
-0.150949
-0.0890843
-0.0197417
-0.108896
-0.253721
0.0563721
0.197349
-0.195358
-0.058363
-0.0614733
-0.0795735
0.141047
-0.073857
0.200548
0.252966
-0.0428079
-0.210158
-0.0312221
0.293616
0.201074
-0.269281
-0.0757237
0.216927
-0.0789054
-0.176222
-0.0839017
0.231471
-0.248169
-0.00604748
0.227152
-0.405723
0.277089
0.24732
-0.204424
0.0155502
-0.136307
-0.179399
0.0604084
0.264075
-0.236852
0.0783303
0.22371
-0.190594
-0.088372
0.0709908
-0.308199
0.29998
0.0147826
-0.055164
-0.0168632
-0.309151
-0.0160471
-0.0434534
0.25741
0.150971
-0.0438869
0.240399
-0.0894277
-0.0612161
0.0619472
0.198903
0.198237
-0.246345
0.0946438
-0.416943
0.3223
0.0402865
-0.250847
0.220161
0.026351
-0.298692
-0.252611
0.0469914
-0.263347
0.110988
0.208895
-0.150808
0.139597
0.0885036
-0.00378904
-0.0784031
0.154866
-0.241821
0.0512266
-0.191065
-0.059995
0.189413
-0.0625776
0.340745
-0.041986
-0.298759
0.227952
-0.19707
-0.057459
0.0470721
0.0103869
-0.255581
0.189929
-0.0571182
0.205977
0.0430699
0.167148
-0.0416098
-0.0800995
-0.257794
0.0595926
0.187663
-0.19008
0.0471299
-0.221755
0.276805
-0.160966
0.0306953
-0.278581
-0.157753
0.179856
-0.0822375
0.164756
0.072604
0.0182908
0.073532
-0.162414
-0.172767
-0.284536
0.0491737
-0.111742
-0.178879
0.210278
-0.171919
0.0681972
0.00959495
0.215169
-0.254049
0.131606
0.122443
-0.311826
0.116655
-0.394446
-0.256316
0.282066
-0.0257501
-0.194554
-0.0546843
0.0500603
-0.140297
0.132582
-0.147683
0.18797
-0.266299
0.238181
0.0281183
0.163612
-0.043139
-0.22316
-0.147467
-0.150718
0.0911946
0.0661431
0.0525783
-0.252142
0.199563
0.247367
-0.0863942
0.177231
-0.140539
0.144402
0.146853
-0.178613
-0.156855
0.391981
-0.134023
0.0269727
0.169747
0.142923
-0.0404769
-0.166253
-0.060933
0.197263
-0.0066759
0.20977
-0.201857
-0.14682
0.110796
-0.172438
-0.196882
0.195639
0.0030063
-0.184592
0.0186061
0.165986
0.113128
0.144888
0.0724873
0.142981
-0.225218
-0.0458944
0.214202
0.310252
0.121892
-0.179178
-0.251726
0.193164
0.0585616
-0.262238
0.0660742
0.245212
-0.191714
-0.0534977
-0.147019
-0.259277
-0.2223
0.218511
0.199106
-0.27483
0.225844
-0.205498
-0.0458969
0.201995
0.141469
-0.107181
-0.0569684
0.190094
0.170326
-0.119288
-0.0683597
-0.0719104
0.306982
-0.0238975
-0.237866
-0.103245
0.0986094
0.130908
-0.14037
0.231602
0.0974382
-0.0448327
-0.0282584
-0.187694
0.0400109
-0.00492614
-0.126094
0.0892507
0.189673
0.269691
0.215104
0.0670229
0.0751574
0.0585162
0.10765
-0.0309731
-0.111661
0.081347
0.187802
0.113801
-0.16645
0.255541
0.194649
0.051404
-0.0183038
0.243029
0.198618
-0.198227
0.0570972
0.0560404
-0.257221
-0.0993208
-0.235688
0.244625
0.231558
0.0656639
0.046424
-0.0166809
0.0659207
0.181447
-0.0418279
0.0688424
-0.20612
-0.255568
0.234712
-0.212521
0.235099
-0.154123
0.269252
-0.259734
0.286688
-0.0189585
-0.178783
-0.00810929
-0.00760734
0.0495373
-0.189616
0.068875
-0.139588
-0.161242
0.00213427
-0.284605
0.282471
0.255301
-0.212231
0.20594
-0.0393677
0.152684
-0.255929
-0.105474
0.232413
0.151641
-0.193401
0.288971
-0.207324
0.2044
0.158478
0.0541493
-0.270235
-0.180127
0.210418
0.0398786
-0.0826288
-0.19394
0.195266
-0.103281
0.013333
-0.185541
0.260674
-0.0728726
-0.101713
-0.469973
-0.365421
0.0545757
-0.202328
0.0920754
-0.257556
-0.250983
0.409406
0.0729352
-0.202207
0.0838135
0.0656977
-0.201079
-0.201966
0.237555
-0.189862
0.1065
0.0377119
-0.12843
-0.103352
-0.0449949
0.27085
-0.348351
-0.107468
0.262334
0.159915
-0.278612
0.250304
0.171541
0.214917
-0.128908
-0.0687115
-0.381663
0.248482
0.211895
-0.255348
0.227707
0.24159
-0.00717293
-0.15254
0.159713
-0.349411
0.244712
-0.0355289
0.0271831
-0.0671654
-0.260239
0.256509
-0.250745
0.0910058
0.214048
-0.118392
-0.0725356
0.21265
-0.243226
0.332965
0.222419
0.0616376
-0.217769
0.20871
0.181367
-0.203484
-0.0486575
0.126393
-0.00826467
-0.12469
0.213602
-0.205018
0.109628
0.114517
-0.165116
0.0459389
-0.0444888
-0.197672
0.308715
0.14166
0.0598401
0.102151
-0.0345341
0.098959
-0.00878833
-0.0685833
0.20799
0.093609
0.235103
0.152486
-0.247374
0.181998
-0.190026
-0.071751
-0.112814
0.0639189
-0.0339813
-0.130373
-0.207575
0.0617586
0.258738
-0.132345
-0.00403146
-0.151604
-0.157313
0.102145
-0.224895
0.265644
-0.201725
-0.21011
0.244181
-0.350105
0.0911789
-0.201063
-0.243818
-0.105593
-0.202553
-0.0581748
0.0594408
0.201287
0.0909586
-0.123314
-0.211785
-0.195584
-0.250684
0.0481305
0.185325
-0.0210132
-0.202878
-0.0526894
0.0664877
0.203786
-0.112607
-0.0755427
-0.265936
0.0537045
0.193713
-0.015674
0.0296049
0.198042
-0.0212177
-0.190449
-0.0426937
-0.0121904
0.0681223
-0.0159544
0.0812888
0.177449
-0.0109288
0.18377
-0.215392
0.0625515
-0.173623
0.106636
0.278444
0.178963
-0.041989
0.2264
0.133332
0.174955
-0.0145699
0.0165283
0.0830854
-0.0592909
-0.0533188
0.336366
-0.0659148
0.221992
0.419098
0.0724975
-0.178535
-0.0667795
0.0983642
-0.126087
-0.0672392
0.131206
-0.0745035
-0.0918995
-0.116872
-0.0577567
-0.0664239
-0.0132306
-0.14752
0.153208
0.0388157
0.0387126
-0.0918488
0.249782
0.104721
-0.125544
0.129679
0.0149876
-0.123573
-0.0546672
-0.0334807
-0.0636526
0.0439622
0.00666386
-0.123379
-0.00380359
-0.0919392
0.0241806
-0.128884
0.0348093
-0.0170803
0.0960967
-0.112295
0.0863962
0.0410606
-0.0365216
-0.163786
0.0180673
-0.0451009
0.0254222
-0.0767041
0.0939272
-0.0172231
-0.0919273
0.0369726
0.0684292
0.0343072
0.0694321
0.113732
0.0357573
0.00425675
0.102561
-0.00705734
0.0297271
-0.0602649
0.0284403
0.0869391
-0.0710166
-0.163326
0.102572
-0.105328
-0.0384552
-0.0547279
0.054191
-0.0518266
0.0604119
0.0343109
0.0965861
-0.0753467
0.0489752
0.126359
-0.118681
0.106789
0.00129072
-0.199992
-0.11486
0.0245819
0.0724554
0.0224935
0.0933098
0.0422056
0.0788694
-0.0804845
-0.12749
0.114409
-0.134076
0.131816
0.0881256
0.0799787
-0.0847032
0.042284
0.0687243