/*--------------------------------*- C++ -*----------------------------------*\
  =========                 |
  \\      /  F ield         | OpenFOAM: The Open Source CFD Toolbox
   \\    /   O peration     | Website:  https://openfoam.org
    \\  /    A nd           | Version:  6
     \\/     M anipulation  |
\*---------------------------------------------------------------------------*/
FoamFile
{
    version     2.0;
    format      ascii;
    class       volVectorField;
    location    "2.51";
    object      U;
}
// * * * * * * * * * * * * * * * * * * * * * * * * * * * * * * * * * * * * * //

dimensions      [0 1 -1 0 0 0 0];

internalField   nonuniform List<vector> 
5625
(
(0.939497 0.284417 0)
(0.971716 0.248556 0)
(1.01113 0.209201 0)
(1.0575 0.168048 0)
(1.10993 0.127749 0)
(1.16699 0.0915189 0)
(1.22692 0.062628 0)
(1.28791 0.0439894 0)
(1.34821 0.0378777 0)
(1.40608 0.0457934 0)
(1.45985 0.068492 0)
(1.50792 0.105969 0)
(1.54892 0.157254 0)
(1.58178 0.220396 0)
(1.60576 0.292975 0)
(1.6205 0.372544 0)
(1.6257 0.456189 0)
(1.62081 0.540054 0)
(1.60558 0.620117 0)
(1.58061 0.693327 0)
(1.54704 0.757409 0)
(1.50585 0.809909 0)
(1.45795 0.848026 0)
(1.40486 0.869584 0)
(1.34889 0.874123 0)
(1.29262 0.86312 0)
(1.23842 0.839388 0)
(1.18814 0.80623 0)
(1.14312 0.766833 0)
(1.10416 0.724057 0)
(1.07143 0.680419 0)
(1.04446 0.638097 0)
(1.02226 0.598914 0)
(1.00362 0.564234 0)
(0.98741 0.534872 0)
(0.97282 0.511073 0)
(0.959435 0.49257 0)
(0.947184 0.478721 0)
(0.936198 0.4687 0)
(0.926655 0.46165 0)
(0.918658 0.456799 0)
(0.912203 0.453518 0)
(0.907173 0.451327 0)
(0.903378 0.449878 0)
(0.9006 0.448927 0)
(0.898618 0.448307 0)
(0.897236 0.447905 0)
(0.896293 0.447646 0)
(0.89566 0.44748 0)
(0.895239 0.447374 0)
(0.894962 0.447308 0)
(0.89478 0.447266 0)
(0.894659 0.44724 0)
(0.894578 0.447224 0)
(0.894524 0.447214 0)
(0.894487 0.447208 0)
(0.894461 0.447205 0)
(0.894443 0.447203 0)
(0.89443 0.447201 0)
(0.89442 0.447201 0)
(0.894414 0.4472 0)
(0.894409 0.4472 0)
(0.894406 0.4472 0)
(0.894404 0.4472 0)
(0.894403 0.4472 0)
(0.894402 0.4472 0)
(0.894401 0.4472 0)
(0.894401 0.4472 0)
(0.8944 0.4472 0)
(0.8944 0.4472 0)
(0.8944 0.4472 0)
(0.8944 0.4472 0)
(0.8944 0.4472 0)
(0.8944 0.4472 0)
(0.8944 0.4472 0)
(0.934854 0.299509 0)
(0.965245 0.267798 0)
(1.00259 0.233127 0)
(1.04685 0.196784 0)
(1.09742 0.160916 0)
(1.15307 0.128316 0)
(1.21215 0.101996 0)
(1.27277 0.0847561 0)
(1.33302 0.0788338 0)
(1.39101 0.0857221 0)
(1.44497 0.106174 0)
(1.4933 0.140161 0)
(1.53462 0.18671 0)
(1.56775 0.244013 0)
(1.59194 0.30993 0)
(1.60677 0.382162 0)
(1.61184 0.457807 0)
(1.60664 0.533275 0)
(1.59121 0.605163 0)
(1.56639 0.670902 0)
(1.53324 0.728285 0)
(1.4926 0.774802 0)
(1.44539 0.807863 0)
(1.39322 0.825752 0)
(1.33842 0.828385 0)
(1.28353 0.817298 0)
(1.23075 0.795051 0)
(1.18185 0.764549 0)
(1.13809 0.728597 0)
(1.10021 0.68975 0)
(1.06829 0.650297 0)
(1.04182 0.612251 0)
(1.01982 0.577283 0)
(1.00115 0.546616 0)
(0.984801 0.520931 0)
(0.970074 0.500362 0)
(0.956649 0.484572 0)
(0.944502 0.472908 0)
(0.933755 0.464574 0)
(0.924545 0.458779 0)
(0.916925 0.454834 0)
(0.91084 0.45219 0)
(0.906144 0.450439 0)
(0.902628 0.449288 0)
(0.90007 0.448537 0)
(0.898255 0.44805 0)
(0.896995 0.447735 0)
(0.896137 0.447534 0)
(0.895561 0.447405 0)
(0.895179 0.447324 0)
(0.894925 0.447274 0)
(0.894758 0.447243 0)
(0.894647 0.447225 0)
(0.894572 0.447214 0)
(0.89452 0.447207 0)
(0.894485 0.447203 0)
(0.89446 0.447201 0)
(0.894442 0.4472 0)
(0.894429 0.4472 0)
(0.89442 0.4472 0)
(0.894414 0.4472 0)
(0.894409 0.4472 0)
(0.894406 0.4472 0)
(0.894404 0.4472 0)
(0.894403 0.4472 0)
(0.894402 0.4472 0)
(0.894401 0.4472 0)
(0.894401 0.4472 0)
(0.8944 0.4472 0)
(0.8944 0.4472 0)
(0.8944 0.4472 0)
(0.8944 0.4472 0)
(0.8944 0.4472 0)
(0.8944 0.4472 0)
(0.8944 0.4472 0)
(0.929455 0.313793 0)
(0.957709 0.285866 0)
(0.992601 0.255532 0)
(1.03415 0.223791 0)
(1.08197 0.192338 0)
(1.13509 0.163505 0)
(1.19207 0.139954 0)
(1.25107 0.124275 0)
(1.31012 0.118604 0)
(1.36724 0.124424 0)
(1.42061 0.142506 0)
(1.46857 0.172841 0)
(1.50964 0.214525 0)
(1.54262 0.26595 0)
(1.56673 0.325219 0)
(1.5815 0.390124 0)
(1.58644 0.457827 0)
(1.5812 0.525121 0)
(1.56607 0.589185 0)
(1.54198 0.647762 0)
(1.50981 0.698622 0)
(1.47029 0.739281 0)
(1.4244 0.767477 0)
(1.37388 0.78196 0)
(1.32109 0.782955 0)
(1.26841 0.771991 0)
(1.2179 0.751361 0)
(1.17118 0.723589 0)
(1.12941 0.691115 0)
(1.09324 0.656214 0)
(1.06267 0.620965 0)
(1.03715 0.587211 0)
(1.01571 0.556468 0)
(0.997325 0.529802 0)
(0.9811 0.50775 0)
(0.966477 0.490338 0)
(0.953228 0.477167 0)
(0.941366 0.467579 0)
(0.931005 0.460826 0)
(0.922239 0.456192 0)
(0.915072 0.453076 0)
(0.90941 0.451009 0)
(0.905077 0.449652 0)
(0.901859 0.448767 0)
(0.899531 0.448193 0)
(0.897888 0.447823 0)
(0.896751 0.447586 0)
(0.895979 0.447435 0)
(0.89546 0.44734 0)
(0.895116 0.447281 0)
(0.894887 0.447245 0)
(0.894735 0.447223 0)
(0.894633 0.447211 0)
(0.894563 0.447204 0)
(0.894515 0.447201 0)
(0.894482 0.447199 0)
(0.894458 0.447199 0)
(0.894441 0.447199 0)
(0.894429 0.447199 0)
(0.89442 0.447199 0)
(0.894413 0.447199 0)
(0.894409 0.447199 0)
(0.894406 0.4472 0)
(0.894404 0.4472 0)
(0.894403 0.4472 0)
(0.894402 0.4472 0)
(0.894401 0.4472 0)
(0.894401 0.4472 0)
(0.8944 0.4472 0)
(0.8944 0.4472 0)
(0.8944 0.4472 0)
(0.8944 0.4472 0)
(0.8944 0.4472 0)
(0.8944 0.4472 0)
(0.8944 0.4472 0)
(0.923605 0.32717 0)
(0.949454 0.302653 0)
(0.981607 0.276227 0)
(1.02007 0.248713 0)
(1.06455 0.221454 0)
(1.11431 0.196349 0)
(1.16814 0.175659 0)
(1.22437 0.161677 0)
(1.28108 0.156381 0)
(1.33632 0.161205 0)
(1.38822 0.176947 0)
(1.43506 0.203638 0)
(1.47528 0.240478 0)
(1.50768 0.286097 0)
(1.53148 0.338803 0)
(1.54608 0.39646 0)
(1.55099 0.456407 0)
(1.54604 0.515898 0)
(1.53173 0.572567 0)
(1.50886 0.624298 0)
(1.47813 0.668823 0)
(1.4402 0.703815 0)
(1.39623 0.727429 0)
(1.34808 0.738854 0)
(1.29805 0.73853 0)
(1.24832 0.72791 0)
(1.20079 0.709007 0)
(1.15691 0.683992 0)
(1.11774 0.65498 0)
(1.08379 0.623989 0)
(1.05499 0.592907 0)
(1.03075 0.563405 0)
(1.01017 0.536833 0)
(0.992319 0.514089 0)
(0.976456 0.495564 0)
(0.962156 0.481173 0)
(0.949279 0.470472 0)
(0.93787 0.462813 0)
(0.928025 0.457506 0)
(0.919798 0.45392 0)
(0.913147 0.451541 0)
(0.907944 0.449983 0)
(0.903997 0.448972 0)
(0.901086 0.448318 0)
(0.898994 0.447896 0)
(0.897523 0.447627 0)
(0.896509 0.447456 0)
(0.895821 0.447348 0)
(0.89536 0.447282 0)
(0.895052 0.447242 0)
(0.894847 0.447218 0)
(0.89471 0.447206 0)
(0.894618 0.447199 0)
(0.894554 0.447196 0)
(0.894509 0.447195 0)
(0.894478 0.447195 0)
(0.894455 0.447196 0)
(0.894439 0.447197 0)
(0.894427 0.447198 0)
(0.894419 0.447198 0)
(0.894413 0.447199 0)
(0.894409 0.447199 0)
(0.894406 0.447199 0)
(0.894404 0.4472 0)
(0.894402 0.4472 0)
(0.894402 0.4472 0)
(0.894401 0.4472 0)
(0.894401 0.4472 0)
(0.8944 0.4472 0)
(0.8944 0.4472 0)
(0.8944 0.4472 0)
(0.8944 0.4472 0)
(0.8944 0.4472 0)
(0.8944 0.4472 0)
(0.8944 0.4472 0)
(0.917626 0.33956 0)
(0.940844 0.318094 0)
(0.970037 0.295139 0)
(1.00516 0.271399 0)
(1.04596 0.247962 0)
(1.09186 0.226364 0)
(1.14181 0.208475 0)
(1.19437 0.19625 0)
(1.24779 0.191451 0)
(1.3002 0.195433 0)
(1.34977 0.208984 0)
(1.39472 0.232165 0)
(1.43349 0.264326 0)
(1.46492 0.304335 0)
(1.48815 0.350664 0)
(1.50248 0.401283 0)
(1.50747 0.453818 0)
(1.50316 0.505973 0)
(1.49004 0.555673 0)
(1.46872 0.600837 0)
(1.43973 0.639253 0)
(1.40381 0.668872 0)
(1.36232 0.688292 0)
(1.31719 0.697067 0)
(1.27055 0.695757 0)
(1.22441 0.685688 0)
(1.18042 0.668589 0)
(1.13991 0.646315 0)
(1.10378 0.620704 0)
(1.07242 0.593548 0)
(1.04569 0.566549 0)
(1.02298 0.541207 0)
(1.00346 0.518693 0)
(0.986342 0.499731 0)
(0.97104 0.48456 0)
(0.957257 0.472999 0)
(0.944928 0.464571 0)
(0.934117 0.458659 0)
(0.924898 0.454641 0)
(0.917284 0.451976 0)
(0.911195 0.450237 0)
(0.906477 0.449115 0)
(0.902927 0.448397 0)
(0.900327 0.447938 0)
(0.898467 0.447647 0)
(0.897166 0.447462 0)
(0.896272 0.447347 0)
(0.895667 0.447276 0)
(0.89526 0.447233 0)
(0.894989 0.447209 0)
(0.894808 0.447196 0)
(0.894685 0.44719 0)
(0.894602 0.447189 0)
(0.894544 0.447189 0)
(0.894503 0.447191 0)
(0.894474 0.447192 0)
(0.894453 0.447194 0)
(0.894437 0.447195 0)
(0.894426 0.447196 0)
(0.894418 0.447197 0)
(0.894413 0.447198 0)
(0.894408 0.447199 0)
(0.894406 0.447199 0)
(0.894404 0.447199 0)
(0.894402 0.4472 0)
(0.894402 0.4472 0)
(0.894401 0.4472 0)
(0.894401 0.4472 0)
(0.8944 0.4472 0)
(0.8944 0.4472 0)
(0.8944 0.4472 0)
(0.8944 0.4472 0)
(0.8944 0.4472 0)
(0.8944 0.4472 0)
(0.8944 0.4472 0)
(0.911828 0.350943 0)
(0.932258 0.332166 0)
(0.958317 0.312258 0)
(0.989947 0.291825 0)
(1.02689 0.271772 0)
(1.06863 0.25334 0)
(1.11428 0.238047 0)
(1.16261 0.227528 0)
(1.21207 0.223314 0)
(1.26092 0.226625 0)
(1.30741 0.238183 0)
(1.3498 0.258083 0)
(1.38661 0.285851 0)
(1.41667 0.320557 0)
(1.43904 0.360796 0)
(1.45298 0.404723 0)
(1.45817 0.450326 0)
(1.45468 0.495651 0)
(1.44291 0.538765 0)
(1.42326 0.577635 0)
(1.39623 0.610244 0)
(1.36273 0.63491 0)
(1.32424 0.65062 0)
(1.28266 0.657187 0)
(1.23994 0.655214 0)
(1.19783 0.645867 0)
(1.1578 0.630612 0)
(1.121 0.611029 0)
(1.0882 0.588722 0)
(1.05966 0.56529 0)
(1.03517 0.542253 0)
(1.01414 0.520931 0)
(0.995829 0.502305 0)
(0.979603 0.48692 0)
(0.965031 0.474873 0)
(0.951931 0.465901 0)
(0.940301 0.459515 0)
(0.93021 0.455142 0)
(0.921705 0.45224 0)
(0.914758 0.45036 0)
(0.909261 0.449161 0)
(0.90504 0.448404 0)
(0.901888 0.447927 0)
(0.899594 0.447629 0)
(0.897962 0.447442 0)
(0.896825 0.447327 0)
(0.896045 0.447257 0)
(0.895518 0.447216 0)
(0.895165 0.447193 0)
(0.894928 0.447182 0)
(0.894768 0.447178 0)
(0.89466 0.447178 0)
(0.894586 0.44718 0)
(0.894533 0.447183 0)
(0.894496 0.447186 0)
(0.894469 0.447189 0)
(0.89445 0.447192 0)
(0.894435 0.447194 0)
(0.894425 0.447196 0)
(0.894417 0.447197 0)
(0.894412 0.447198 0)
(0.894408 0.447199 0)
(0.894405 0.447199 0)
(0.894403 0.447199 0)
(0.894402 0.4472 0)
(0.894401 0.4472 0)
(0.894401 0.4472 0)
(0.894401 0.4472 0)
(0.8944 0.4472 0)
(0.8944 0.4472 0)
(0.8944 0.4472 0)
(0.8944 0.4472 0)
(0.8944 0.4472 0)
(0.8944 0.4472 0)
(0.8944 0.4472 0)
(0.906461 0.361362 0)
(0.92405 0.34491 0)
(0.946885 0.327633 0)
(0.974918 0.310056 0)
(1.00791 0.292932 0)
(1.04537 0.277264 0)
(1.08655 0.264282 0)
(1.13035 0.255334 0)
(1.17544 0.251712 0)
(1.22024 0.254468 0)
(1.26313 0.264237 0)
(1.30248 0.281162 0)
(1.33691 0.304909 0)
(1.36521 0.334683 0)
(1.38643 0.369218 0)
(1.39986 0.40693 0)
(1.40524 0.446142 0)
(1.40259 0.485115 0)
(1.39214 0.522003 0)
(1.37419 0.55492 0)
(1.34933 0.58215 0)
(1.31861 0.602389 0)
(1.28357 0.614925 0)
(1.24596 0.619726 0)
(1.20751 0.617376 0)
(1.16972 0.608883 0)
(1.13388 0.595479 0)
(1.10099 0.578512 0)
(1.07165 0.559389 0)
(1.04602 0.539539 0)
(1.02383 0.520308 0)
(1.00454 0.50282 0)
(0.987528 0.48786 0)
(0.972314 0.475791 0)
(0.95861 0.466584 0)
(0.946337 0.459918 0)
(0.935531 0.455312 0)
(0.926256 0.452255 0)
(0.918526 0.450291 0)
(0.912281 0.44906 0)
(0.907387 0.448301 0)
(0.903661 0.447837 0)
(0.900898 0.447555 0)
(0.898899 0.447383 0)
(0.897485 0.44728 0)
(0.896503 0.44722 0)
(0.895832 0.447186 0)
(0.895378 0.447168 0)
(0.895074 0.447161 0)
(0.894869 0.44716 0)
(0.89473 0.447163 0)
(0.894635 0.447168 0)
(0.89457 0.447173 0)
(0.894523 0.447178 0)
(0.894489 0.447183 0)
(0.894464 0.447187 0)
(0.894446 0.447191 0)
(0.894433 0.447193 0)
(0.894423 0.447195 0)
(0.894416 0.447197 0)
(0.894411 0.447198 0)
(0.894407 0.447198 0)
(0.894405 0.447199 0)
(0.894403 0.447199 0)
(0.894402 0.4472 0)
(0.894401 0.4472 0)
(0.894401 0.4472 0)
(0.894401 0.4472 0)
(0.8944 0.4472 0)
(0.8944 0.4472 0)
(0.8944 0.4472 0)
(0.8944 0.4472 0)
(0.8944 0.4472 0)
(0.8944 0.4472 0)
(0.8944 0.4472 0)
(0.901726 0.370895 0)
(0.916514 0.356412 0)
(0.93612 0.34137 0)
(0.960535 0.326215 0)
(0.989544 0.311569 0)
(1.02271 0.298254 0)
(1.05936 0.287264 0)
(1.09855 0.279691 0)
(1.13909 0.276601 0)
(1.17959 0.278869 0)
(1.21857 0.287052 0)
(1.25458 0.301323 0)
(1.28629 0.321431 0)
(1.31252 0.346682 0)
(1.33234 0.375988 0)
(1.34513 0.408036 0)
(1.35059 0.441388 0)
(1.34863 0.474451 0)
(1.33939 0.505519 0)
(1.32319 0.532953 0)
(1.30073 0.555363 0)
(1.27312 0.571761 0)
(1.24185 0.581657 0)
(1.20847 0.585098 0)
(1.17445 0.582618 0)
(1.1411 0.575068 0)
(1.10953 0.563492 0)
(1.08056 0.54905 0)
(1.05468 0.532982 0)
(1.03192 0.516556 0)
(1.01201 0.500938 0)
(0.994463 0.487052 0)
(0.978799 0.475476 0)
(0.964684 0.466409 0)
(0.951964 0.459715 0)
(0.940632 0.45504 0)
(0.930747 0.451937 0)
(0.922352 0.449967 0)
(0.915433 0.448765 0)
(0.909901 0.448051 0)
(0.905606 0.447638 0)
(0.902361 0.447402 0)
(0.899972 0.447269 0)
(0.898253 0.447196 0)
(0.897043 0.447156 0)
(0.896205 0.447137 0)
(0.895634 0.447131 0)
(0.895248 0.447131 0)
(0.894988 0.447136 0)
(0.894813 0.447143 0)
(0.894694 0.447152 0)
(0.894611 0.44716 0)
(0.894553 0.447168 0)
(0.894512 0.447175 0)
(0.894481 0.447181 0)
(0.894459 0.447186 0)
(0.894443 0.447189 0)
(0.89443 0.447192 0)
(0.894422 0.447195 0)
(0.894415 0.447196 0)
(0.89441 0.447198 0)
(0.894407 0.447198 0)
(0.894405 0.447199 0)
(0.894403 0.447199 0)
(0.894402 0.4472 0)
(0.894401 0.4472 0)
(0.894401 0.4472 0)
(0.8944 0.4472 0)
(0.8944 0.4472 0)
(0.8944 0.4472 0)
(0.8944 0.4472 0)
(0.8944 0.4472 0)
(0.8944 0.4472 0)
(0.8944 0.4472 0)
(0.8944 0.4472 0)
(0.89777 0.379653 0)
(0.909869 0.366814 0)
(0.926328 0.353624 0)
(0.94719 0.340475 0)
(0.972277 0.327889 0)
(1.00121 0.31653 0)
(1.03338 0.307197 0)
(1.06798 0.300769 0)
(1.10394 0.298107 0)
(1.14005 0.299927 0)
(1.17501 0.306709 0)
(1.20749 0.318623 0)
(1.23625 0.335452 0)
(1.26018 0.356606 0)
(1.27845 0.381199 0)
(1.29045 0.408135 0)
(1.2958 0.436134 0)
(1.29438 0.463755 0)
(1.28629 0.489509 0)
(1.27193 0.512048 0)
(1.25206 0.530274 0)
(1.2278 0.543431 0)
(1.20046 0.551178 0)
(1.17138 0.553611 0)
(1.1418 0.551195 0)
(1.11285 0.544653 0)
(1.08546 0.534869 0)
(1.06032 0.522855 0)
(1.03776 0.509708 0)
(1.01775 0.496529 0)
(1.00001 0.484294 0)
(0.984163 0.473721 0)
(0.969864 0.465196 0)
(0.956918 0.458769 0)
(0.945272 0.454227 0)
(0.934967 0.451215 0)
(0.926065 0.449335 0)
(0.918588 0.448231 0)
(0.91249 0.447619 0)
(0.907662 0.447301 0)
(0.903945 0.447149 0)
(0.901158 0.447083 0)
(0.89912 0.447061 0)
(0.897661 0.447059 0)
(0.896639 0.447066 0)
(0.895933 0.447078 0)
(0.895453 0.447091 0)
(0.895128 0.447104 0)
(0.89491 0.447118 0)
(0.894761 0.447131 0)
(0.894659 0.447144 0)
(0.894588 0.447155 0)
(0.894538 0.447164 0)
(0.894501 0.447172 0)
(0.894474 0.447179 0)
(0.894454 0.447184 0)
(0.894439 0.447189 0)
(0.894428 0.447192 0)
(0.89442 0.447194 0)
(0.894414 0.447196 0)
(0.894409 0.447197 0)
(0.894406 0.447198 0)
(0.894404 0.447199 0)
(0.894403 0.447199 0)
(0.894402 0.4472 0)
(0.894401 0.4472 0)
(0.894401 0.4472 0)
(0.8944 0.4472 0)
(0.8944 0.4472 0)
(0.8944 0.4472 0)
(0.8944 0.4472 0)
(0.8944 0.4472 0)
(0.8944 0.4472 0)
(0.8944 0.4472 0)
(0.8944 0.4472 0)
(0.894667 0.387749 0)
(0.904271 0.376273 0)
(0.917749 0.364592 0)
(0.935199 0.353068 0)
(0.956499 0.342146 0)
(0.981323 0.332367 0)
(1.00915 0.324369 0)
(1.03926 0.318848 0)
(1.07073 0.316489 0)
(1.1025 0.317874 0)
(1.13343 0.323402 0)
(1.16231 0.333202 0)
(1.18801 0.347096 0)
(1.20955 0.364607 0)
(1.22614 0.385003 0)
(1.23717 0.407345 0)
(1.24226 0.430497 0)
(1.24127 0.453206 0)
(1.23436 0.474251 0)
(1.22196 0.49255 0)
(1.20483 0.50723 0)
(1.18399 0.517705 0)
(1.16057 0.523743 0)
(1.13569 0.525465 0)
(1.1104 0.523279 0)
(1.08567 0.517789 0)
(1.06226 0.509758 0)
(1.04072 0.500075 0)
(1.02125 0.489699 0)
(1.00378 0.479561 0)
(0.988083 0.470439 0)
(0.973867 0.462844 0)
(0.960936 0.456986 0)
(0.949206 0.4528 0)
(0.938699 0.450033 0)
(0.929478 0.448352 0)
(0.921592 0.447425 0)
(0.915038 0.446978 0)
(0.909747 0.446806 0)
(0.905596 0.446777 0)
(0.902425 0.44681 0)
(0.900065 0.446864 0)
(0.898349 0.446918 0)
(0.897128 0.446965 0)
(0.896275 0.447005 0)
(0.895688 0.447037 0)
(0.89529 0.447064 0)
(0.89502 0.447086 0)
(0.894838 0.447106 0)
(0.894713 0.447123 0)
(0.894627 0.447138 0)
(0.894566 0.447151 0)
(0.894523 0.447162 0)
(0.89449 0.447171 0)
(0.894466 0.447178 0)
(0.894448 0.447184 0)
(0.894435 0.447188 0)
(0.894425 0.447192 0)
(0.894418 0.447194 0)
(0.894412 0.447196 0)
(0.894409 0.447197 0)
(0.894406 0.447198 0)
(0.894404 0.447199 0)
(0.894402 0.447199 0)
(0.894402 0.4472 0)
(0.894401 0.4472 0)
(0.894401 0.4472 0)
(0.8944 0.4472 0)
(0.8944 0.4472 0)
(0.8944 0.4472 0)
(0.8944 0.4472 0)
(0.8944 0.4472 0)
(0.8944 0.4472 0)
(0.8944 0.4472 0)
(0.8944 0.4472 0)
(0.892433 0.395284 0)
(0.899802 0.384957 0)
(0.910532 0.374496 0)
(0.924786 0.364261 0)
(0.942504 0.354645 0)
(0.963426 0.346094 0)
(0.987102 0.33912 0)
(1.01291 0.334274 0)
(1.04006 0.332091 0)
(1.06763 0.333031 0)
(1.09459 0.337404 0)
(1.11991 0.345313 0)
(1.14256 0.35661 0)
(1.16168 0.370904 0)
(1.1765 0.387582 0)
(1.18647 0.405829 0)
(1.19122 0.424673 0)
(1.19068 0.443083 0)
(1.185 0.460074 0)
(1.17461 0.474779 0)
(1.16023 0.486505 0)
(1.14273 0.494802 0)
(1.12306 0.49952 0)
(1.10215 0.50079 0)
(1.0809 0.498965 0)
(1.06009 0.494563 0)
(1.04035 0.488246 0)
(1.02209 0.480791 0)
(1.00541 0.473017 0)
(0.990256 0.465677 0)
(0.976437 0.459345 0)
(0.963785 0.454341 0)
(0.952215 0.450729 0)
(0.941733 0.448368 0)
(0.9324 0.446999 0)
(0.924283 0.446333 0)
(0.917413 0.446112 0)
(0.911761 0.446136 0)
(0.907241 0.446271 0)
(0.903725 0.446437 0)
(0.90106 0.446595 0)
(0.899089 0.446726 0)
(0.897664 0.446829 0)
(0.896655 0.446908 0)
(0.895953 0.446967 0)
(0.895472 0.447012 0)
(0.895145 0.447047 0)
(0.894923 0.447075 0)
(0.894773 0.447099 0)
(0.894669 0.447119 0)
(0.894597 0.447135 0)
(0.894546 0.447149 0)
(0.894508 0.447161 0)
(0.89448 0.447171 0)
(0.894459 0.447178 0)
(0.894443 0.447184 0)
(0.894432 0.447188 0)
(0.894423 0.447192 0)
(0.894416 0.447194 0)
(0.894411 0.447196 0)
(0.894408 0.447197 0)
(0.894405 0.447198 0)
(0.894403 0.447199 0)
(0.894402 0.447199 0)
(0.894402 0.4472 0)
(0.894401 0.4472 0)
(0.894401 0.4472 0)
(0.8944 0.4472 0)
(0.8944 0.4472 0)
(0.8944 0.4472 0)
(0.8944 0.4472 0)
(0.8944 0.4472 0)
(0.8944 0.4472 0)
(0.8944 0.4472 0)
(0.8944 0.4472 0)
(0.891014 0.402323 0)
(0.896458 0.393006 0)
(0.90474 0.383555 0)
(0.916078 0.374333 0)
(0.930483 0.365709 0)
(0.947767 0.358076 0)
(0.967556 0.351846 0)
(0.989321 0.347451 0)
(1.01239 0.345307 0)
(1.03595 0.345771 0)
(1.05913 0.349081 0)
(1.08101 0.355304 0)
(1.10071 0.364311 0)
(1.11743 0.37578 0)
(1.13049 0.38919 0)
(1.13937 0.403851 0)
(1.14381 0.418961 0)
(1.14373 0.433695 0)
(1.13928 0.447266 0)
(1.13088 0.45898 0)
(1.11912 0.468288 0)
(1.10476 0.474859 0)
(1.08856 0.478603 0)
(1.0713 0.479651 0)
(1.05372 0.478305 0)
(1.03646 0.47502 0)
(1.02001 0.470373 0)
(1.00465 0.465025 0)
(0.990454 0.459647 0)
(0.977357 0.454808 0)
(0.965263 0.450888 0)
(0.954104 0.448046 0)
(0.943881 0.446239 0)
(0.934654 0.44529 0)
(0.926501 0.444961 0)
(0.919478 0.445023 0)
(0.913593 0.445289 0)
(0.908797 0.445626 0)
(0.904996 0.445958 0)
(0.902062 0.446245 0)
(0.899854 0.446476 0)
(0.898231 0.446652 0)
(0.897064 0.446783 0)
(0.896242 0.446878 0)
(0.895672 0.446948 0)
(0.895282 0.446999 0)
(0.895017 0.447039 0)
(0.894838 0.44707 0)
(0.894715 0.447096 0)
(0.89463 0.447117 0)
(0.89457 0.447135 0)
(0.894527 0.447149 0)
(0.894495 0.447161 0)
(0.894471 0.447171 0)
(0.894453 0.447178 0)
(0.894439 0.447184 0)
(0.894428 0.447189 0)
(0.89442 0.447192 0)
(0.894414 0.447194 0)
(0.89441 0.447196 0)
(0.894407 0.447197 0)
(0.894405 0.447198 0)
(0.894403 0.447199 0)
(0.894402 0.447199 0)
(0.894401 0.4472 0)
(0.894401 0.4472 0)
(0.894401 0.4472 0)
(0.8944 0.4472 0)
(0.8944 0.4472 0)
(0.8944 0.4472 0)
(0.8944 0.4472 0)
(0.8944 0.4472 0)
(0.8944 0.4472 0)
(0.8944 0.4472 0)
(0.8944 0.4472 0)
(0.890302 0.408893 0)
(0.894157 0.400514 0)
(0.900338 0.391943 0)
(0.909105 0.383543 0)
(0.920523 0.375675 0)
(0.934485 0.368698 0)
(0.950707 0.362964 0)
(0.968745 0.358821 0)
(0.98802 0.356594 0)
(1.00785 0.356552 0)
(1.02748 0.358866 0)
(1.04613 0.363578 0)
(1.06301 0.370572 0)
(1.07744 0.379575 0)
(1.08881 0.390155 0)
(1.0967 0.401741 0)
(1.10085 0.413694 0)
(1.10122 0.425354 0)
(1.09795 0.43609 0)
(1.09139 0.445351 0)
(1.08205 0.45272 0)
(1.07051 0.457966 0)
(1.05742 0.461044 0)
(1.04341 0.462071 0)
(1.02909 0.46131 0)
(1.01496 0.459155 0)
(1.00137 0.456107 0)
(0.98854 0.452709 0)
(0.976501 0.449469 0)
(0.965239 0.446777 0)
(0.954734 0.444847 0)
(0.944998 0.443713 0)
(0.936093 0.443273 0)
(0.928104 0.443347 0)
(0.921103 0.443739 0)
(0.91513 0.444281 0)
(0.910172 0.444851 0)
(0.906168 0.445375 0)
(0.903021 0.445817 0)
(0.900609 0.446167 0)
(0.898806 0.446432 0)
(0.897489 0.446627 0)
(0.896548 0.446768 0)
(0.895887 0.44687 0)
(0.89543 0.446943 0)
(0.895118 0.446997 0)
(0.894907 0.447038 0)
(0.894763 0.44707 0)
(0.894664 0.447097 0)
(0.894595 0.447118 0)
(0.894546 0.447136 0)
(0.894509 0.447151 0)
(0.894482 0.447162 0)
(0.894462 0.447171 0)
(0.894446 0.447179 0)
(0.894434 0.447185 0)
(0.894425 0.447189 0)
(0.894418 0.447192 0)
(0.894413 0.447195 0)
(0.894409 0.447196 0)
(0.894406 0.447198 0)
(0.894404 0.447198 0)
(0.894403 0.447199 0)
(0.894402 0.447199 0)
(0.894401 0.4472 0)
(0.894401 0.4472 0)
(0.8944 0.4472 0)
(0.8944 0.4472 0)
(0.8944 0.4472 0)
(0.8944 0.4472 0)
(0.8944 0.4472 0)
(0.8944 0.4472 0)
(0.8944 0.4472 0)
(0.8944 0.4472 0)
(0.8944 0.4472 0)
(0.890134 0.41496 0)
(0.892749 0.407509 0)
(0.897205 0.399764 0)
(0.90378 0.392086 0)
(0.912595 0.384828 0)
(0.923609 0.378327 0)
(0.936621 0.372904 0)
(0.95128 0.368853 0)
(0.967108 0.366435 0)
(0.98353 0.365853 0)
(0.999906 0.367235 0)
(1.01557 0.370595 0)
(1.02985 0.375831 0)
(1.04215 0.38271 0)
(1.05197 0.390877 0)
(1.05894 0.399877 0)
(1.06283 0.409202 0)
(1.06361 0.418327 0)
(1.06139 0.426755 0)
(1.05647 0.434058 0)
(1.04924 0.439925 0)
(1.04019 0.4442 0)
(1.02981 0.446868 0)
(1.01862 0.448038 0)
(1.0071 0.447939 0)
(0.995633 0.446905 0)
(0.98449 0.445344 0)
(0.973808 0.443676 0)
(0.963646 0.442252 0)
(0.954027 0.441302 0)
(0.944994 0.440911 0)
(0.936614 0.441037 0)
(0.928979 0.441554 0)
(0.922178 0.442307 0)
(0.916272 0.44315 0)
(0.911279 0.443972 0)
(0.907171 0.444705 0)
(0.903882 0.445316 0)
(0.901315 0.445801 0)
(0.899362 0.44617 0)
(0.897911 0.446442 0)
(0.896858 0.446639 0)
(0.896108 0.446778 0)
(0.895585 0.446878 0)
(0.895224 0.446949 0)
(0.894979 0.447003 0)
(0.894812 0.447043 0)
(0.894698 0.447074 0)
(0.89462 0.4471 0)
(0.894564 0.447121 0)
(0.894524 0.447138 0)
(0.894494 0.447152 0)
(0.894471 0.447164 0)
(0.894453 0.447173 0)
(0.89444 0.44718 0)
(0.894429 0.447185 0)
(0.894421 0.44719 0)
(0.894415 0.447193 0)
(0.894411 0.447195 0)
(0.894408 0.447197 0)
(0.894405 0.447198 0)
(0.894404 0.447199 0)
(0.894402 0.447199 0)
(0.894402 0.447199 0)
(0.894401 0.4472 0)
(0.894401 0.4472 0)
(0.8944 0.4472 0)
(0.8944 0.4472 0)
(0.8944 0.4472 0)
(0.8944 0.4472 0)
(0.8944 0.4472 0)
(0.8944 0.4472 0)
(0.8944 0.4472 0)
(0.8944 0.4472 0)
(0.8944 0.4472 0)
(0.890339 0.420479 0)
(0.892046 0.413956 0)
(0.895151 0.407047 0)
(0.899934 0.40007 0)
(0.906557 0.393365 0)
(0.915032 0.387254 0)
(0.92523 0.382039 0)
(0.936897 0.377985 0)
(0.949655 0.375311 0)
(0.963025 0.374181 0)
(0.976473 0.374692 0)
(0.989438 0.376851 0)
(1.00136 0.380564 0)
(1.01174 0.385637 0)
(1.02014 0.39178 0)
(1.02626 0.398635 0)
(1.02989 0.405803 0)
(1.03099 0.412874 0)
(1.02967 0.41946 0)
(1.02614 0.42524 0)
(1.02071 0.429989 0)
(1.01376 0.433597 0)
(1.00567 0.436064 0)
(0.996865 0.437493 0)
(0.987699 0.438081 0)
(0.978465 0.438098 0)
(0.969359 0.43785 0)
(0.960502 0.437627 0)
(0.951967 0.437644 0)
(0.943823 0.438006 0)
(0.936153 0.438711 0)
(0.929053 0.439683 0)
(0.92262 0.4408 0)
(0.916935 0.441945 0)
(0.91204 0.443023 0)
(0.907937 0.443971 0)
(0.904588 0.44476 0)
(0.901927 0.445388 0)
(0.899866 0.44587 0)
(0.898309 0.446228 0)
(0.897158 0.446488 0)
(0.896328 0.446673 0)
(0.895741 0.446804 0)
(0.895333 0.446897 0)
(0.895052 0.446963 0)
(0.894862 0.447013 0)
(0.894732 0.447051 0)
(0.894643 0.447081 0)
(0.894581 0.447106 0)
(0.894537 0.447126 0)
(0.894505 0.447142 0)
(0.89448 0.447155 0)
(0.894461 0.447166 0)
(0.894446 0.447175 0)
(0.894435 0.447181 0)
(0.894426 0.447186 0)
(0.894419 0.44719 0)
(0.894413 0.447193 0)
(0.894409 0.447195 0)
(0.894407 0.447197 0)
(0.894405 0.447198 0)
(0.894403 0.447199 0)
(0.894402 0.447199 0)
(0.894401 0.447199 0)
(0.894401 0.4472 0)
(0.894401 0.4472 0)
(0.8944 0.4472 0)
(0.8944 0.4472 0)
(0.8944 0.4472 0)
(0.8944 0.4472 0)
(0.8944 0.4472 0)
(0.8944 0.4472 0)
(0.8944 0.4472 0)
(0.8944 0.4472 0)
(0.8944 0.4472 0)
(0.890763 0.425393 0)
(0.891838 0.419797 0)
(0.893945 0.413747 0)
(0.897333 0.407509 0)
(0.902175 0.401377 0)
(0.908535 0.395656 0)
(0.91635 0.39063 0)
(0.925437 0.386549 0)
(0.935514 0.383618 0)
(0.946202 0.38198 0)
(0.957066 0.38171 0)
(0.967641 0.382818 0)
(0.977468 0.385227 0)
(0.986123 0.388782 0)
(0.993248 0.393253 0)
(0.998567 0.398361 0)
(1.00192 0.403795 0)
(1.00325 0.409233 0)
(1.00264 0.41438 0)
(1.00024 0.419 0)
(0.996284 0.422936 0)
(0.99105 0.426113 0)
(0.984853 0.428534 0)
(0.978003 0.430282 0)
(0.970771 0.431515 0)
(0.963371 0.432436 0)
(0.95596 0.433256 0)
(0.94865 0.434142 0)
(0.941538 0.435201 0)
(0.934721 0.436453 0)
(0.928304 0.437851 0)
(0.922388 0.439312 0)
(0.917063 0.440742 0)
(0.912394 0.44206 0)
(0.908407 0.443212 0)
(0.905091 0.444176 0)
(0.902406 0.444948 0)
(0.900288 0.445546 0)
(0.898657 0.445993 0)
(0.897433 0.446321 0)
(0.896535 0.446556 0)
(0.895891 0.446722 0)
(0.895438 0.446839 0)
(0.895124 0.446922 0)
(0.89491 0.446983 0)
(0.894765 0.447028 0)
(0.894665 0.447062 0)
(0.894596 0.44709 0)
(0.894548 0.447112 0)
(0.894514 0.447131 0)
(0.894487 0.447146 0)
(0.894467 0.447158 0)
(0.894451 0.447168 0)
(0.894439 0.447176 0)
(0.894429 0.447183 0)
(0.894422 0.447188 0)
(0.894416 0.447191 0)
(0.894411 0.447194 0)
(0.894408 0.447196 0)
(0.894406 0.447197 0)
(0.894404 0.447198 0)
(0.894403 0.447199 0)
(0.894402 0.447199 0)
(0.894401 0.447199 0)
(0.894401 0.4472 0)
(0.8944 0.4472 0)
(0.8944 0.4472 0)
(0.8944 0.4472 0)
(0.8944 0.4472 0)
(0.8944 0.4472 0)
(0.8944 0.4472 0)
(0.8944 0.4472 0)
(0.8944 0.4472 0)
(0.8944 0.4472 0)
(0.8944 0.4472 0)
(0.891286 0.429674 0)
(0.891934 0.424975 0)
(0.893336 0.419797 0)
(0.895688 0.414334 0)
(0.89915 0.408835 0)
(0.903814 0.403566 0)
(0.909672 0.398793 0)
(0.916603 0.394748 0)
(0.924404 0.391624 0)
(0.932791 0.389561 0)
(0.941421 0.38864 0)
(0.949916 0.388871 0)
(0.9579 0.390198 0)
(0.965026 0.392504 0)
(0.970996 0.395619 0)
(0.975574 0.399325 0)
(0.978618 0.403378 0)
(0.980078 0.407537 0)
(0.979991 0.411584 0)
(0.978462 0.415345 0)
(0.975662 0.418704 0)
(0.971801 0.421606 0)
(0.967113 0.424054 0)
(0.96183 0.426108 0)
(0.956152 0.427876 0)
(0.950246 0.429492 0)
(0.944244 0.431079 0)
(0.938259 0.432715 0)
(0.932399 0.434429 0)
(0.926773 0.436192 0)
(0.921489 0.437946 0)
(0.916644 0.439618 0)
(0.912314 0.441143 0)
(0.908546 0.442475 0)
(0.905352 0.443594 0)
(0.902716 0.4445 0)
(0.900596 0.445208 0)
(0.898936 0.445746 0)
(0.897666 0.446144 0)
(0.896719 0.446431 0)
(0.896028 0.446635 0)
(0.895536 0.446779 0)
(0.895192 0.44688 0)
(0.894955 0.446951 0)
(0.894793 0.447004 0)
(0.894684 0.447043 0)
(0.894609 0.447074 0)
(0.894558 0.447099 0)
(0.894521 0.44712 0)
(0.894493 0.447137 0)
(0.894472 0.447151 0)
(0.894456 0.447162 0)
(0.894443 0.447171 0)
(0.894433 0.447178 0)
(0.894425 0.447184 0)
(0.894418 0.447188 0)
(0.894414 0.447192 0)
(0.89441 0.447194 0)
(0.894407 0.447196 0)
(0.894405 0.447197 0)
(0.894403 0.447198 0)
(0.894402 0.447199 0)
(0.894402 0.447199 0)
(0.894401 0.4472 0)
(0.894401 0.4472 0)
(0.8944 0.4472 0)
(0.8944 0.4472 0)
(0.8944 0.4472 0)
(0.8944 0.4472 0)
(0.8944 0.4472 0)
(0.8944 0.4472 0)
(0.8944 0.4472 0)
(0.8944 0.4472 0)
(0.8944 0.4472 0)
(0.8944 0.4472 0)
(0.891827 0.433318 0)
(0.8922 0.429457 0)
(0.893109 0.425124 0)
(0.89472 0.420459 0)
(0.897158 0.415654 0)
(0.900519 0.410924 0)
(0.904824 0.406502 0)
(0.91001 0.402608 0)
(0.915938 0.399421 0)
(0.922398 0.397076 0)
(0.929133 0.395661 0)
(0.935849 0.395205 0)
(0.942244 0.395679 0)
(0.948029 0.397001 0)
(0.95296 0.399042 0)
(0.956849 0.401641 0)
(0.959563 0.404619 0)
(0.961045 0.407795 0)
(0.961306 0.411008 0)
(0.960414 0.414129 0)
(0.95849 0.417065 0)
(0.955686 0.419769 0)
(0.952173 0.422238 0)
(0.948117 0.42451 0)
(0.943675 0.426646 0)
(0.938981 0.428713 0)
(0.934153 0.43076 0)
(0.929302 0.432807 0)
(0.924539 0.434838 0)
(0.91997 0.436807 0)
(0.915696 0.438658 0)
(0.911799 0.440339 0)
(0.908339 0.441812 0)
(0.905348 0.443057 0)
(0.90283 0.444075 0)
(0.900767 0.444882 0)
(0.89912 0.445502 0)
(0.897838 0.445966 0)
(0.896864 0.446304 0)
(0.896143 0.446546 0)
(0.895621 0.446717 0)
(0.895252 0.446837 0)
(0.894995 0.446922 0)
(0.894819 0.446982 0)
(0.8947 0.447027 0)
(0.894619 0.447061 0)
(0.894564 0.447088 0)
(0.894525 0.44711 0)
(0.894497 0.447128 0)
(0.894476 0.447143 0)
(0.894459 0.447156 0)
(0.894446 0.447166 0)
(0.894436 0.447174 0)
(0.894428 0.447181 0)
(0.894421 0.447186 0)
(0.894416 0.44719 0)
(0.894411 0.447193 0)
(0.894408 0.447195 0)
(0.894406 0.447197 0)
(0.894404 0.447198 0)
(0.894403 0.447198 0)
(0.894402 0.447199 0)
(0.894401 0.447199 0)
(0.894401 0.4472 0)
(0.894401 0.4472 0)
(0.8944 0.4472 0)
(0.8944 0.4472 0)
(0.8944 0.4472 0)
(0.8944 0.4472 0)
(0.8944 0.4472 0)
(0.8944 0.4472 0)
(0.8944 0.4472 0)
(0.8944 0.4472 0)
(0.8944 0.4472 0)
(0.8944 0.4472 0)
(0.892322 0.436357 0)
(0.892535 0.433244 0)
(0.893123 0.429701 0)
(0.894212 0.425814 0)
(0.895914 0.421726 0)
(0.898302 0.41761 0)
(0.901418 0.413649 0)
(0.905235 0.410031 0)
(0.909664 0.406929 0)
(0.914559 0.404476 0)
(0.919728 0.402759 0)
(0.924951 0.401826 0)
(0.92999 0.401676 0)
(0.934619 0.402257 0)
(0.938635 0.403482 0)
(0.941879 0.405238 0)
(0.944238 0.407395 0)
(0.945652 0.40982 0)
(0.946113 0.412391 0)
(0.945658 0.41501 0)
(0.94437 0.417605 0)
(0.942356 0.420129 0)
(0.93974 0.422565 0)
(0.936642 0.424922 0)
(0.933185 0.427226 0)
(0.929478 0.429493 0)
(0.925628 0.431725 0)
(0.921743 0.433902 0)
(0.917926 0.435988 0)
(0.914275 0.437939 0)
(0.910874 0.439711 0)
(0.907792 0.441272 0)
(0.905073 0.442603 0)
(0.902739 0.443704 0)
(0.900787 0.444587 0)
(0.899198 0.445275 0)
(0.897938 0.445796 0)
(0.896963 0.446182 0)
(0.896228 0.446461 0)
(0.895688 0.446658 0)
(0.8953 0.446797 0)
(0.895027 0.446894 0)