/*--------------------------------*- C++ -*----------------------------------*\
  =========                 |
  \\      /  F ield         | OpenFOAM: The Open Source CFD Toolbox
   \\    /   O peration     | Website:  https://openfoam.org
    \\  /    A nd           | Version:  6
     \\/     M anipulation  |
\*---------------------------------------------------------------------------*/
FoamFile
{
    version     2.0;
    format      ascii;
    class       surfaceVectorField;
    location    "1.98";
    object      rhoUf;
}
// * * * * * * * * * * * * * * * * * * * * * * * * * * * * * * * * * * * * * //

dimensions      [1 -2 -1 0 0 0 0];

internalField   nonuniform List<vector> 
11670
(
(-0.00140651 6.19889e-05 0.000894899)
(-0.00145882 0.000193216 0.000197984)
(-0.00220572 -6.99608e-05 0.000862508)
(-0.0013907 0.000512892 0.00118648)
(-5.55727e-17 2.27504e-18 1.70309e-17)
(-1.21399e-16 6.41901e-18 2.107e-17)
(-6.06056e-17 2.52051e-19 6.66987e-18)
(-5.51359e-17 -2.25065e-18 2.71726e-17)
(-0.00142859 -0.000237688 -0.00108568)
(-0.00143296 -0.00016284 -0.000448378)
(-0.0022499 -0.00030158 -0.00101989)
(-0.00131661 1.04333e-05 -0.00128512)
(-7.96649e-05 -9.7703e-06 4.8674e-05)
(-7.88243e-05 -1.0257e-05 2.30511e-05)
(-0.000125023 -1.6391e-05 4.43187e-05)
(-7.66624e-05 -4.10335e-06 5.24254e-05)
(-2.72001e-17 1.8619e-18 -1.56055e-17)
(-3.03654e-17 4.56107e-18 -9.31791e-18)
(-4.71233e-17 5.47553e-18 -1.39821e-17)
(-3.03407e-17 6.92428e-18 -2.27229e-17)
(-1.64531e-10 -3.92665e-11 -1.13453e-10)
(-1.56074e-10 -3.75289e-11 -6.43155e-11)
(-2.55414e-10 -6.90307e-11 -9.06046e-11)
(-1.42797e-10 -3.95868e-11 -1.00974e-10)
(-5.94763e-16 -3.30568e-17 2.2713e-16)
(-1.20162e-15 2.1807e-17 2.76328e-16)
(-6.17073e-16 -5.73469e-17 1.01679e-16)
(-5.75148e-16 -1.98879e-17 3.05848e-16)
(-7.22412e-07 -2.25601e-07 4.76908e-07)
(-7.05305e-07 -2.11412e-07 2.41404e-07)
(-1.1131e-06 -3.65788e-07 3.72108e-07)
(-6.16274e-07 -2.06089e-07 4.0648e-07)
(-9.57814e-13 2.74914e-13 3.71387e-13)
(-9.76675e-13 2.50836e-13 1.24766e-13)
(-1.65643e-12 4.08121e-13 2.9842e-13)
(-9.15514e-13 2.83207e-13 4.12074e-13)
(-9.51132e-13 1.81605e-13 5.95384e-13)
(-9.18161e-13 1.64074e-13 2.34031e-13)
(-1.49326e-12 2.94877e-13 4.93544e-13)
(-9.07483e-13 6.82478e-14 5.93201e-13)
(-1.05507e-14 -1.84414e-15 7.43147e-15)
(-9.75759e-15 -2.1755e-15 3.9053e-15)
(-1.6621e-14 -3.00439e-15 5.94258e-15)
(-9.76242e-15 -1.49778e-15 6.88605e-15)
(-0.000921254 -0.000523955 0.000172037)
(-0.000149318 -0.000308343 -1.50865e-06)
(-4.62204e-05 -0.000289845 0.000199311)
(-6.63522e-05 -0.000316254 0.000322691)
(-9.69892e-18 1.05315e-17 -4.84031e-18)
(-2.02097e-18 -4.09593e-19 -1.87101e-18)
(-3.42664e-18 2.00714e-18 -5.10667e-18)
(-2.62049e-18 2.14836e-18 -2.79701e-18)
(-3.85472e-18 6.83634e-19 3.56948e-18)
(-9.07437e-18 1.1942e-17 2.51028e-18)
(-2.79789e-18 2.32551e-18 3.75808e-18)
(-3.71365e-18 2.56395e-18 4.44856e-18)
(-0.000559817 -0.000336482 -0.000330526)
(-0.00130108 -0.000659108 -0.000356966)
(-0.000422249 -0.000449084 -0.000599945)
(-0.00029413 -0.000292234 -0.000482761)
(-6.24197e-19 3.25554e-19 -4.02602e-19)
(-2.57755e-18 2.00371e-18 -1.07985e-18)
(-8.48071e-19 7.58873e-19 -1.25148e-18)
(-6.77528e-19 1.07045e-18 -4.7065e-19)
(-0.00273414 0.001373 -0.00180482)
(-0.00124081 0.00147822 -0.000109544)
(-0.000299784 0.0028191 -0.00215389)
(-0.000230744 0.00217686 -0.00269768)
(-0.00284514 -0.00129544 0.00133016)
(-0.0011271 -0.0015956 3.46722e-05)
(-3.52522e-05 -0.00235011 0.00215658)
(-4.32234e-05 -0.00240176 0.00146643)
(-3.44187e-18 -3.31818e-18 -2.39619e-18)
(-1.287e-18 -9.80679e-19 -1.53435e-18)
(-9.07583e-20 -5.02277e-19 -2.64669e-18)
(-1.33059e-19 -4.35083e-19 -2.28127e-18)
(-1.57299e-19 1.78711e-19 5.78321e-19)
(-1.78282e-18 1.91963e-18 1.15231e-19)
(-2.39375e-19 4.51023e-19 3.43889e-19)
(-2.82975e-19 2.48387e-19 5.68829e-19)
(-0.00223326 -0.00124507 -0.000178726)
(-0.0040225 -0.000862458 -0.000798395)
(-0.00148234 -0.00211786 -0.00176862)
(-0.00117049 -0.00146119 -0.00255313)
(-3.80617e-19 -3.73699e-19 1.05912e-19)
(-6.43569e-20 -1.1043e-19 7.47676e-20)
(5.17868e-20 -1.62397e-19 3.39451e-20)
(4.15104e-20 -8.28791e-20 1.9478e-19)
(-0.00172391 0.000727535 -0.000536256)
(-0.00337611 0.00118854 -3.08967e-05)
(-0.000453184 0.00207442 0.00127566)
(-0.000607507 0.00228957 0.000504721)
(-0.00098464 0.000473637 -0.000258885)
(-0.000182273 0.000285252 4.02677e-05)
(-0.000131235 0.000402124 -0.0003224)
(-9.90111e-05 0.000365746 -0.000240581)
(-1.42382e-19 -2.30798e-19 -2.27983e-19)
(-6.01797e-19 -5.85716e-19 -5.61687e-19)
(-2.00815e-19 -4.32921e-19 -2.9462e-19)
(-1.68952e-19 -2.21608e-19 -4.09333e-19)
(-4.63447e-18 -4.38696e-18 9.23765e-19)
(-1.26226e-18 8.11353e-21 1.47629e-18)
(-1.16779e-18 -8.70212e-19 8.75445e-19)
(-1.70459e-18 -1.02527e-18 1.64112e-18)
(-0.000626617 0.000353766 0.00020195)
(-0.00147313 0.000674046 0.000142833)
(-0.000341993 0.000357631 0.000341866)
(-0.000512567 0.000546889 0.000460322)
(-2.75731e-17 1.7505e-17 -7.51351e-18)
(-5.62407e-17 6.33919e-17 -4.46842e-17)
(-1.28064e-17 1.83111e-17 -2.63267e-17)
(-1.09895e-17 2.1189e-17 -1.47058e-17)
(-4.25121e-05 -1.73208e-05 2.54574e-05)
(-0.000298149 -0.000215358 6.37189e-05)
(-3.99187e-05 -5.8249e-05 7.94182e-05)
(-4.60638e-05 -5.32745e-05 0.000103547)
(-1.01868e-16 7.04061e-17 7.55774e-18)
(-2.32628e-17 3.75718e-18 4.18901e-17)
(-2.48033e-17 2.06082e-17 3.29453e-17)
(-3.73781e-17 2.97602e-17 4.74392e-17)
(-3.87081e-06 -1.42961e-06 1.40899e-06)
(-3.55138e-05 -2.67004e-05 1.14264e-05)
(-4.96157e-06 -6.68148e-06 9.07674e-06)
(-5.80736e-06 -6.1378e-06 1.29125e-05)
(-3.50278e-16 7.22155e-17 -1.4406e-16)
(-5.24249e-16 8.09261e-16 -4.02006e-16)
(-1.55945e-16 1.15592e-16 -2.13471e-16)
(-1.38139e-16 1.78596e-16 -1.38361e-16)
(-1.4166e-15 9.14719e-16 3.07599e-16)
(-3.01833e-16 -1.16672e-16 2.87506e-16)
(-3.03816e-16 2.12776e-16 2.91444e-16)
(-4.59772e-16 2.06993e-16 5.07432e-16)
(-3.58356e-06 -2.6223e-06 -4.17991e-07)
(-1.9899e-07 -6.12931e-08 -3.87807e-07)
(-5.26447e-07 -5.13965e-07 -1.31958e-06)
(-3.76255e-07 -6.23627e-07 -7.32056e-07)
(-1.87703e-06 -5.66427e-07 9.40503e-07)
(-4.28037e-06 -3.46744e-06 2.0064e-06)
(-1.1797e-06 -1.06404e-06 9.37538e-07)
(-1.60735e-06 -1.03073e-06 1.64608e-06)
(-3.61352e-15 8.84449e-16 3.22201e-15)
(-8.81381e-15 7.25846e-15 1.38977e-15)
(-2.30752e-15 1.63453e-15 2.57722e-15)
(-3.39318e-15 2.19877e-15 3.3786e-15)
(-6.61378e-15 5.00231e-15 -2.54442e-15)
(-4.23361e-16 4.05055e-17 2.26437e-16)
(-1.34477e-15 6.85903e-16 -2.61046e-15)
(-1.0659e-15 1.02213e-15 -1.27997e-15)
(-4.84121e-15 8.97681e-16 -1.55243e-14)
(-3.84074e-14 3.68733e-14 -3.51967e-15)
(-9.43849e-15 9.21033e-15 -2.21814e-14)
(-5.90892e-15 6.32366e-15 -1.64945e-14)
(-1.18814e-07 -8.30519e-08 -8.67457e-08)
(-2.22243e-07 -2.76256e-07 -1.77185e-07)
(-3.79316e-08 -8.43667e-08 -1.13691e-07)
(-3.35636e-08 -1.00683e-07 -7.51953e-08)
(-5.04361e-07 -3.8792e-07 -4.42797e-08)
(-1.23987e-07 -1.16052e-08 9.90618e-08)
(-1.18782e-07 -6.89625e-08 1.0562e-07)
(-1.91205e-07 -1.19632e-07 1.57589e-07)
(-3.23781e-13 3.16929e-13 -1.99878e-13)
(-1.41199e-13 7.38786e-14 -1.40366e-13)
(-1.89216e-14 4.75284e-14 -2.15914e-13)
(-1.91404e-14 5.59801e-14 -1.66683e-13)
(-5.57944e-08 -3.61585e-08 -5.04161e-09)
(-1.13744e-08 -7.45238e-10 -1.6665e-08)
(-1.77178e-08 -1.1799e-08 -2.33033e-08)
(-1.26279e-08 -8.50568e-09 -1.62887e-08)
(-4.38381e-13 4.2988e-13 8.11931e-14)
(-1.29827e-13 -2.17792e-14 1.1558e-13)
(-1.18877e-13 8.17024e-14 8.93576e-14)
(-1.68446e-13 1.01012e-13 1.62826e-13)
(-1.20421e-08 -9.12155e-09 6.52785e-09)
(-3.87267e-08 -3.4589e-08 2.22144e-08)
(-3.54211e-09 -1.20404e-08 6.96116e-09)
(-3.9194e-09 -7.60312e-09 1.48275e-08)
(-7.68164e-13 1.94929e-13 9.01128e-13)
(-2.65239e-12 2.03569e-12 5.65609e-13)
(-5.87393e-13 5.24083e-13 7.69362e-13)
(-7.46969e-13 5.12122e-13 9.42537e-13)
(-6.61103e-09 -5.55256e-09 -3.39901e-10)
(-7.39696e-10 6.70224e-10 -1.99945e-09)
(-1.35723e-09 -8.14094e-10 -2.90765e-09)
(-9.70227e-10 -1.0168e-09 -1.80683e-09)
(-2.61497e-12 1.81635e-12 -9.10447e-13)
(-2.1764e-13 8.12661e-14 -2.57265e-13)
(-6.05759e-13 3.87347e-13 -1.06588e-12)
(-4.73361e-13 4.75594e-13 -5.51741e-13)
(-2.75298e-09 -5.85472e-10 5.40389e-10)
(-4.48342e-09 -6.25314e-09 4.55152e-09)
(-1.7317e-09 -2.0236e-09 8.65155e-10)
(-2.16436e-09 -1.59294e-09 1.81256e-09)
(-4.20764e-12 -2.37071e-12 -4.08006e-12)
(-1.21176e-11 -7.00351e-12 -5.07343e-12)
(-1.16777e-13 -2.36584e-12 -5.90599e-12)
(-1.74213e-13 -2.66269e-12 -4.57174e-12)
(-4.82946e-10 4.4884e-10 2.28357e-10)
(-2.26093e-11 5.87323e-11 2.58756e-11)
(-3.86638e-11 7.45437e-11 1.03204e-10)
(-4.77111e-11 3.19384e-11 2.44719e-10)
(-4.08208e-12 -3.59194e-13 2.8514e-12)
(-1.56311e-11 -9.97339e-12 2.37681e-12)
(-3.64611e-12 -2.72281e-12 2.40999e-12)
(-5.01065e-12 -2.86462e-12 4.7713e-12)
(-3.13474e-10 1.47159e-10 -2.63317e-10)
(-6.4349e-10 6.05081e-10 -1.48653e-10)
(-2.77492e-10 1.9737e-10 -3.04837e-10)
(-1.83644e-10 1.26816e-10 -2.48166e-10)
(-3.96152e-11 -1.60871e-11 1.47327e-11)
(-9.80337e-11 -1.11256e-10 7.57627e-11)
(-1.60913e-11 -4.21732e-11 1.37638e-11)
(-1.65571e-11 -2.46371e-11 3.16712e-11)
(-1.60479e-10 -1.06705e-10 6.03271e-12)
(-4.26323e-11 8.30045e-12 -3.64941e-11)
(-6.1261e-11 -3.11218e-11 -5.3583e-11)
(-4.2979e-11 -2.31263e-11 -3.7804e-11)
(-1.01731e-10 1.09046e-10 5.1566e-11)
(-1.45027e-11 -2.14078e-12 3.39497e-12)
(-1.78133e-11 2.12176e-11 3.11996e-11)
(-2.12701e-11 1.76714e-11 4.49255e-11)
(-1.05787e-11 9.38876e-12 4.93028e-12)
(-1.51088e-12 2.60591e-12 1.90503e-12)
(2.99565e-13 2.3042e-12 9.21699e-13)
(2.88333e-13 5.42947e-13 5.001e-12)
(-8.47445e-11 -1.44418e-10 -9.06979e-11)
(-5.05411e-10 -4.07218e-10 -2.37519e-10)
(-1.2241e-11 -3.6612e-11 -2.41462e-10)
(-4.63074e-12 -9.70479e-11 -8.37688e-11)
(-1.62373e-11 1.48485e-11 -4.51119e-12)
(-4.44823e-12 1.99486e-12 -4.67063e-12)
(-7.87799e-12 6.11143e-12 -8.23524e-12)
(-5.16159e-12 4.2271e-12 -5.44172e-12)
(-1.34507e-10 -1.14013e-10 2.45373e-10)
(-5.42231e-10 -5.00087e-10 1.59086e-10)
(-1.63936e-10 -1.68752e-10 2.58578e-10)
(-2.33706e-10 -2.53628e-10 3.41215e-10)
(-1.9666e-17 -1.79936e-17 -8.58284e-18)
(-2.06568e-18 -3.52705e-20 1.28411e-18)
(-4.60024e-18 -2.04572e-18 -7.8382e-18)
(-3.74164e-18 -3.46605e-18 -3.69128e-18)
(-0.000192413 0.000124012 3.06581e-05)
(-1.4616e-05 2.96218e-05 1.88309e-05)
(-1.40609e-05 4.65805e-05 4.01076e-05)
(-1.60064e-05 4.09236e-05 6.7393e-05)
(-1.23034e-17 -4.64149e-18 1.00457e-17)
(-2.59589e-17 -2.6409e-17 4.12403e-18)
(-7.51032e-18 -5.95212e-18 8.2118e-18)
(-1.14584e-17 -8.42498e-18 1.1177e-17)
(-0.000126314 4.71709e-05 -6.17888e-05)
(-0.000305187 0.000189786 -9.40693e-05)
(-0.000115331 6.5843e-05 -0.000109189)
(-8.14483e-05 6.24724e-05 -6.67703e-05)
(-5.02075e-13 -2.25103e-13 -5.23799e-13)
(-1.2274e-12 -1.01598e-12 -6.37101e-13)
(-1.36869e-13 -2.05252e-13 -7.72021e-13)
(-1.34613e-13 -2.31349e-13 -6.2822e-13)
(-5.134e-13 5.7522e-14 4.41083e-13)
(-1.70118e-12 -1.46731e-12 4.29709e-13)
(-4.774e-13 -3.45612e-13 3.53962e-13)
(-6.34764e-13 -3.173e-13 6.35973e-13)
(-3.12195e-09 1.54664e-09 -1.38629e-09)
(-5.45972e-09 5.93e-09 -3.83817e-09)
(-2.63254e-09 2.26834e-09 -2.76467e-09)
(-1.85078e-09 2.00994e-09 -1.5252e-09)
(-4.72718e-09 4.20242e-09 2.24458e-10)
(-1.91595e-10 1.00115e-10 6.65219e-10)
(-4.5555e-10 8.65134e-10 1.01587e-09)
(-6.85851e-10 6.38511e-10 2.00444e-09)
(-1.70049e-16 2.65019e-17 3.68547e-16)
(-1.0865e-15 -1.29219e-15 2.45805e-16)
(-1.6185e-16 -1.84502e-16 5.97947e-16)
(-1.91304e-16 -2.19765e-16 7.0517e-16)
(-2.40959e-06 1.86564e-06 7.71362e-07)
(-2.36648e-07 2.71686e-07 -3.60988e-07)
(-4.80938e-07 4.89102e-07 2.48997e-07)
(-5.67192e-07 3.78997e-07 7.59289e-07)
(-1.52627e-06 6.81646e-07 -1.47124e-06)
(-3.25158e-06 2.5956e-06 -3.26449e-07)
(-1.47428e-06 1.09271e-06 -1.36057e-06)
(-1.00534e-06 7.84377e-07 -1.10385e-06)
(-2.12676e-07 5.20663e-08 1.28804e-07)
(-3.85248e-07 3.88382e-07 2.1825e-07)
(-1.27962e-07 1.0643e-07 1.21098e-07)
(-1.71442e-07 1.05712e-07 1.85546e-07)
(-3.97501e-07 3.44173e-07 -3.61566e-08)
(-1.37778e-08 1.26078e-08 -6.60868e-08)
(-4.98532e-08 5.96165e-08 -1.73034e-07)
(-3.5295e-08 7.31022e-08 -9.63243e-08)
(-1.34419e-14 -1.10853e-14 4.93144e-15)
(-1.07469e-15 2.91753e-16 -1.09568e-15)
(-2.33465e-15 -2.37397e-15 2.11663e-15)
(-2.77508e-15 -1.38373e-15 5.14785e-15)
(-8.17367e-15 -2.16369e-15 -7.30328e-15)
(-1.80159e-14 -1.59611e-14 -3.20357e-15)
(-7.69824e-15 -5.06267e-15 -7.25577e-15)
(-5.39812e-15 -3.90675e-15 -5.6911e-15)
(-1.87093e-16 -1.4338e-16 -3.37148e-17)
(-7.75643e-18 -5.70742e-18 -2.78779e-17)
(-3.02569e-17 -2.9232e-17 -8.1129e-17)
(-2.31752e-17 -3.80817e-17 -4.72823e-17)
(-1.04418e-16 -4.54614e-17 5.21184e-17)
(-2.42693e-16 -1.99875e-16 1.16807e-16)
(-6.61368e-17 -6.75813e-17 5.36884e-17)
(-9.30895e-17 -6.82506e-17 9.70463e-17)
(-9.67925e-06 3.70475e-06 1.93169e-06)
(-1.65826e-05 2.33209e-05 1.14819e-05)
(-3.8773e-06 7.73084e-06 1.67741e-06)
(-4.19018e-06 4.73923e-06 5.1021e-06)
(-3.68758e-05 2.59239e-05 -6.98101e-06)
(-9.9578e-06 -8.21746e-07 -7.55083e-06)
(-1.28461e-05 7.60693e-06 -1.33619e-05)
(-8.90689e-06 7.05744e-06 -8.17614e-06)
(-2.78117e-08 3.25982e-08 -1.711e-08)
(-6.09739e-09 1.69112e-09 -4.35746e-09)
(-4.41172e-09 1.06797e-09 -1.47094e-08)
(-4.39276e-09 5.63665e-09 -5.32521e-09)
(-1.88936e-14 -1.24449e-14 -3.53486e-14)
(-9.33555e-14 -8.7685e-14 -5.54204e-14)
(-1.49439e-15 -5.3065e-15 -4.80348e-14)
(-3.12836e-15 -2.12846e-14 -2.59498e-14)
(-4.59661e-14 -4.28692e-15 4.53541e-14)
(-1.59499e-13 -1.59934e-13 3.52766e-14)
(-5.76547e-14 -4.28273e-14 5.07757e-14)
(-8.4127e-14 -5.80001e-14 8.0417e-14)
(-3.06658e-08 3.62969e-08 6.76851e-09)
(-1.01328e-08 -3.44284e-10 1.18323e-08)
(-1.17954e-08 7.94306e-09 1.29701e-08)
(-1.64412e-08 1.19903e-08 1.65258e-08)
(-4.99719e-17 3.32165e-18 5.96699e-18)
(-1.06006e-16 -2.25238e-18 2.30943e-17)
(-4.48031e-17 3.38048e-18 1.97378e-17)
(-0.00212468 -0.000156838 -0.00089065)
(-0.0012438 -0.000137856 -0.000401573)
(-0.00133839 -0.000316092 -0.0010223)
(-0.00204589 2.38731e-05 0.000804486)
(-0.00120378 6.91239e-05 0.000272747)
(-0.00124422 -5.66397e-05 0.000882713)
(-5.35196e-16 -4.08351e-17 6.78162e-17)
(-9.15725e-16 1.50836e-16 3.41698e-16)
(-4.79984e-16 -2.0449e-17 2.32425e-16)
(-4.24446e-17 6.66447e-18 -1.35086e-17)
(-1.72855e-17 5.97396e-18 -6.31065e-18)
(-2.20336e-17 4.04509e-18 -1.51763e-17)
(-2.61207e-10 -2.9227e-11 -9.6483e-11)
(-1.16307e-10 -1.17719e-11 -5.98168e-11)
(-1.47301e-10 -2.60961e-11 -1.08581e-10)
(-1.20311e-06 -3.16293e-07 3.65439e-07)
(-5.16068e-07 -1.00118e-07 2.48287e-07)
(-6.57946e-07 -1.93379e-07 4.50433e-07)
(-0.000119687 -8.99905e-06 3.80505e-05)
(-5.39311e-05 1.77332e-06 2.08173e-05)
(-6.73991e-05 -4.02268e-06 4.41107e-05)
(-1.49998e-12 2.7255e-13 4.1348e-13)
(-6.65636e-13 4.37908e-14 1.48584e-13)
(-8.03181e-13 1.65765e-13 4.09444e-13)
(-1.51482e-12 2.54917e-13 3.85153e-13)
(-5.93669e-13 2.51046e-14 2.80432e-13)
(-8.29218e-13 1.08702e-13 5.18855e-13)
(-1.72326e-14 -2.46065e-15 5.09195e-15)
(-7.35413e-15 -7.80915e-16 3.98202e-15)
(-9.37007e-15 -1.3039e-15 6.5465e-15)
(-3.36469e-07 2.78439e-08 -5.00422e-08)
(-1.78895e-07 1.09123e-08 -2.98768e-08)
(-1.95332e-07 -6.03856e-09 -9.69348e-08)
(-1.75718e-07 6.4639e-09 -9.76397e-08)
(-2.05822e-07 -7.52688e-10 5.99948e-08)
(-2.92428e-07 1.61598e-08 6.67464e-09)
(-1.87495e-07 3.44539e-09 3.43585e-08)
(-1.66335e-07 3.84486e-09 3.81411e-08)
(-1.94474e-10 -1.35951e-11 -1.43081e-11)
(-1.68931e-10 -6.2273e-12 -4.52102e-11)
(-1.99894e-10 -7.89705e-12 -4.86088e-11)
(-1.93781e-10 -1.19987e-11 -5.02352e-11)
(-1.01898e-16 -1.68218e-17 6.31472e-18)
(-8.25179e-17 -1.5489e-17 2.61687e-17)
(-1.00761e-16 -2.31111e-17 2.58015e-17)
(-9.79178e-17 -2.14938e-17 2.24379e-17)
(-6.59059e-16 -2.72331e-17 5.93951e-17)
(-5.61035e-16 -2.28093e-17 1.89809e-16)
(-6.75796e-16 -2.17938e-17 1.99569e-16)
(-6.34989e-16 -1.23952e-17 1.84507e-16)
(-0.000157864 -2.50556e-05 -1.05631e-05)
(-0.00015322 -3.1116e-05 -5.20067e-05)
(-0.000197712 -3.86384e-05 -5.40021e-05)
(-0.000147834 -2.49064e-05 -4.39006e-05)
(-2.25404e-08 -4.18737e-10 -5.22132e-10)
(-2.50068e-08 -2.28202e-09 4.90722e-09)
(-2.06829e-08 -3.05812e-09 3.2158e-09)
(-1.66747e-08 -2.58322e-09 3.91814e-09)
(-8.10192e-17 -1.77567e-17 -8.41057e-18)
(-8.62186e-17 -7.49249e-18 -2.18229e-17)
(-7.0139e-17 -8.37231e-18 -1.40731e-17)
(-6.22052e-17 -8.28551e-18 -2.0541e-17)
(-3.83859e-07 6.97691e-09 9.14187e-08)
(-2.30527e-07 2.51965e-08 9.4211e-08)
(-2.06746e-07 6.86459e-09 1.01629e-07)
(-8.09611e-10 8.304e-11 -2.41763e-11)
(-7.14464e-10 6.15951e-11 -1.59191e-10)
(-8.49008e-10 8.8825e-11 -1.43943e-10)
(-8.27954e-10 9.89309e-11 -1.72704e-10)
(-2.84268e-12 -2.93581e-13 -2.39153e-13)
(-3.39993e-12 -4.87757e-13 -7.84982e-13)
(-3.17702e-12 -4.54936e-13 -7.47149e-13)
(-3.01686e-12 -4.55491e-13 -6.76743e-13)
(-0.0011437 -2.67692e-05 2.22212e-06)
(-0.00125657 -0.000111313 -9.42074e-05)
(-0.0010972 -0.000139315 1.41954e-06)
(-0.0010366 -0.000102601 -0.000100144)
(-2.15527e-12 -1.59557e-13 2.42504e-13)
(-2.73211e-12 -1.72008e-13 7.36839e-14)
(-2.71066e-12 -3.78002e-13 -1.3746e-13)
(-2.15911e-09 -8.02762e-11 -4.46061e-10)
(-2.03521e-09 -1.09801e-10 -6.09478e-10)
(-2.48596e-09 -1.39145e-10 -7.81306e-10)
(-2.75907e-09 -1.89008e-11 -7.74067e-10)
(-0.00128624 5.72659e-05 0.000103925)
(-0.00115931 6.37242e-05 8.65529e-06)
(-0.00105444 5.38847e-05 0.000106385)
(-8.79972e-10 1.13486e-10 6.57964e-11)
(-8.24252e-10 7.88988e-11 9.12652e-11)
(-8.00573e-10 1.09522e-10 1.15518e-10)
(-2.76956e-08 1.66837e-09 -6.33407e-09)
(-2.28572e-08 1.58066e-09 -4.45555e-09)
(-1.93253e-08 1.58107e-09 -4.97986e-09)
(-6.13167e-16 -3.71681e-17 -9.33737e-17)
(-7.41222e-16 -3.77042e-17 -7.6337e-17)
(-7.32168e-16 -2.67117e-17 -5.66948e-17)
(-1.75269e-10 -1.85237e-11 2.7012e-11)
(-2.12193e-10 -2.41787e-11 2.0408e-11)
(-2.08384e-10 -2.08223e-11 1.95567e-11)
(-0.000133812 -1.23428e-05 3.19883e-05)
(-0.000166846 -1.1775e-05 2.97376e-05)
(-0.000165982 -3.19826e-05 3.61483e-05)
(-1.01355e-16 -3.19335e-17 5.83573e-18)
(-8.73368e-17 -2.48615e-17 -9.09482e-18)
(-7.04272e-17 -2.59875e-17 2.92731e-18)
(-9.8429e-17 -1.15369e-17 -1.71993e-17)
(-1.17859e-16 -1.63118e-17 -1.43038e-17)
(-1.14894e-16 -1.36221e-17 -1.2461e-17)
(-1.07834e-09 8.73544e-11 -9.16469e-11)
(-1.07232e-09 1.12433e-10 -1.42651e-10)
(-9.27302e-10 1.13499e-10 -1.74787e-10)
(-1.02979e-09 1.28432e-10 -2.41407e-10)
(-1.04818e-09 1.02538e-10 -2.82324e-11)
(-9.19957e-10 6.25764e-11 2.93914e-11)
(-1.0129e-09 5.48801e-11 -5.40973e-11)
(-3.89549e-12 -1.03687e-12 -1.27861e-12)
(-3.898e-12 -7.34806e-13 -8.42438e-13)
(-3.60895e-12 -5.40813e-13 -1.10592e-12)
(-3.62524e-12 -8.46023e-13 -1.26299e-12)
(-3.69982e-12 -8.58691e-13 -9.39039e-13)
(-3.27279e-12 -1.1306e-12 -1.21782e-12)
(-3.57347e-12 -1.82894e-12 -2.04497e-12)
(-0.000943794 -2.83616e-05 -2.119e-06)
(-0.00107257 4.71563e-05 -7.03118e-05)
(-0.000784139 4.33935e-05 0.000194788)
(-0.000877025 3.26114e-05 5.57253e-05)
(-0.000989015 -0.000142114 9.05476e-05)
(-0.00079085 -9.602e-05 -0.000193565)
(-0.000848404 -0.000110978 -4.73894e-05)
(-1.58081e-09 -6.94187e-11 9.75998e-11)
(-1.14395e-09 1.22577e-10 4.87049e-10)
(-1.44917e-09 3.85909e-11 3.01616e-10)
(-1.90778e-09 1.00709e-10 1.76457e-10)
(-1.85719e-09 -1.84269e-10 2.29454e-11)
(-1.34431e-09 -1.57888e-10 -3.16808e-10)
(-1.50924e-09 -1.84669e-10 -1.14288e-10)
(-4.8096e-17 -1.70225e-17 -1.03346e-17)
(-5.27281e-17 -1.00455e-17 -6.69711e-18)
(-3.64861e-17 -7.73157e-18 -2.30568e-17)
(-4.10544e-17 -9.58948e-18 -1.40445e-17)
(-7.29956e-17 -1.97668e-17 -1.94491e-17)
(-3.56966e-17 -2.14469e-17 7.46229e-18)
(-4.95423e-17 -2.30378e-17 -2.75553e-18)
(-8.94383e-16 1.1625e-17 8.15886e-17)
(-9.42676e-16 1.60526e-17 -3.05113e-17)
(-8.79735e-16 5.14854e-17 -5.24123e-18)
(-9.43832e-16 8.99287e-17 -4.32499e-17)
(-8.10386e-16 -4.39131e-17 1.83868e-16)
(-6.93289e-16 -4.14403e-17 1.53945e-16)
(-7.74314e-16 -7.60278e-17 1.48634e-16)
(-1.42593e-16 -2.42412e-17 3.41627e-18)
(-1.49166e-16 -2.29053e-17 -7.62097e-18)
(-1.35938e-16 -2.20515e-17 -6.90858e-18)
(-1.45323e-16 -2.5955e-17 -1.08126e-17)
(-1.25827e-16 -2.60354e-17 1.8217e-17)
(-1.12987e-16 -2.11483e-17 1.19807e-17)
(-1.23075e-16 -1.96552e-17 9.11403e-18)
(-1.26281e-08 -5.13386e-10 -8.58316e-10)
(-1.57107e-08 -2.78952e-09 8.43606e-10)
(-7.97002e-09 -2.67706e-09 4.29921e-09)
(-1.05897e-08 -2.18345e-09 1.84562e-09)
(-1.75079e-08 1.04169e-09 -2.80256e-09)
(-1.07285e-08 1.58781e-09 -5.76416e-09)
(-1.28968e-08 1.32867e-09 -3.65169e-09)
(-2.65288e-10 -3.32209e-11 -3.09141e-11)
(-2.404e-10 -3.35741e-11 -5.52679e-11)
(-2.15514e-10 -4.68173e-11 -5.73177e-11)
(-2.35405e-10 -7.76146e-11 -6.43978e-11)
(-2.70307e-10 -2.14329e-11 7.72282e-12)
(-2.48424e-10 -1.05161e-11 6.62477e-12)
(-2.68607e-10 -8.77901e-12 1.81242e-11)
(-4.21608e-07 2.75374e-08 -1.40608e-08)
(-4.08925e-07 3.4873e-08 -4.75468e-08)
(-9.596e-18 -1.19725e-18 3.5482e-18)
(-6.25915e-18 -6.73264e-21 1.15982e-18)
(-1.65142e-17 5.58907e-19 2.94647e-18)
(-7.88746e-18 -3.89807e-19 3.81212e-18)
(-8.64327e-18 9.7359e-19 -3.78728e-18)
(-5.28204e-18 1.22932e-19 -2.06995e-18)
(-1.63179e-17 1.19238e-18 -1.49897e-18)
(-7.37013e-18 5.32595e-19 -4.50224e-18)
(-0.00272875 5.91429e-05 -0.00130052)
(-0.00442628 0.000354207 -0.00109187)
(-0.00294366 -9.65643e-05 -0.000538529)
(-0.00245524 0.000721126 -0.00155978)
(-1.02129e-17 2.36541e-20 -3.64513e-18)
(-6.23935e-18 -6.11634e-19 -1.22835e-18)
(-1.58736e-17 -5.55356e-19 -2.18094e-18)
(-8.1729e-18 -7.61034e-19 -4.77916e-18)
(-0.00271867 0.000384485 0.000878658)
(-0.00415073 -6.26908e-05 0.000709251)
(-0.00285142 0.000242174 0.000345231)
(-0.00236231 -0.000351513 0.00119613)
(-7.165e-18 -9.88897e-19 3.58792e-18)
(-5.00901e-18 -2.52855e-19 1.2804e-18)
(-1.43703e-17 -5.98923e-19 1.80448e-18)
(-6.25746e-18 -6.2894e-19 3.72884e-18)
(-8.24535e-18 1.69717e-19 -2.44504e-18)
(-5.37558e-18 -9.13451e-19 -1.24831e-18)
(-1.43217e-17 -1.58826e-18 -7.71947e-19)
(-7.07954e-18 -7.69261e-19 -3.65038e-18)
(-6.44648e-18 -9.40813e-19 2.99258e-18)
(-4.32697e-18 -2.06286e-19 1.11121e-18)
(-1.3191e-17 -1.53086e-18 2.47141e-18)
(-5.70313e-18 -4.07986e-19 3.80086e-18)
(-0.0025805 0.000133347 -0.00114217)
(-0.0043413 0.000359538 -0.000931421)
(-0.00254514 -4.28914e-05 -0.000478868)
(-0.00231733 0.00080238 -0.00148866)
(-0.00238087 -0.00010975 0.000947459)
(-0.00418601 -0.000364743 0.000848534)
(-0.00241202 4.8016e-05 0.000535681)
(-0.00216374 -0.00062266 0.00129353)
(-0.00257372 -0.000436851 0.00118209)
(-0.00407742 0.000127947 0.000937549)
(-0.00262864 -0.000290137 0.000457011)
(-0.0022159 0.000341622 0.00146838)
(-0.00302271 -0.000139987 -0.00117593)
(-0.00451463 -0.000187439 -0.00104075)
(-0.00287632 1.21651e-05 -0.000553523)
(-0.00268252 -0.000762385 -0.00148718)
(-0.00155553 -0.000307194 0.000568061)
(-0.00140847 -0.000239056 0.000219206)
(-0.00236363 -7.50551e-05 0.000210537)
(-0.00123565 -6.38059e-05 0.00062589)
(-0.00174352 -2.22108e-07 -0.000639456)
(-0.00153625 -1.87434e-05 -0.000287442)
(-0.00253677 0.000117955 -0.000563245)
(-0.00144947 -0.000157535 -0.00075776)
(-1.02542e-16 -1.83317e-18 -5.14076e-17)
(-1.55626e-16 -4.79399e-18 -2.04341e-17)
(-7.56755e-17 -4.49816e-18 -2.23059e-17)
(-7.93332e-17 -4.8933e-18 -4.65228e-17)
(-7.48055e-17 -1.68472e-17 3.38665e-17)
(-1.42186e-16 -7.10733e-18 2.70925e-17)
(-6.65609e-17 -4.75706e-18 1.20017e-17)
(-6.36167e-17 -8.71115e-18 3.41219e-17)
(-0.00149369 0.000107173 0.000618359)
(-0.00237762 -2.35707e-05 0.000412462)
(-0.00143918 -7.05008e-05 0.000264512)
(-0.00123937 0.000126887 0.000632113)
(-8.61988e-17 3.27597e-18 -3.56834e-17)
(-1.383e-16 6.46092e-19 -2.16401e-17)
(-6.64265e-17 7.99123e-18 -9.08999e-18)
(-6.93749e-17 5.76293e-18 -3.63812e-17)
(-7.09069e-17 4.29312e-18 4.23211e-17)
(-1.29692e-16 -3.00979e-18 1.86105e-17)
(-6.03701e-17 2.45794e-18 2.14128e-17)
(-5.84188e-17 1.76333e-18 3.8555e-17)
(-7.49971e-17 -1.85083e-17 -2.18577e-17)
(-5.5704e-17 -1.51661e-17 -8.61131e-18)
(-9.60372e-17 -1.88235e-17 -1.35064e-17)
(-5.60525e-17 -1.71114e-17 -2.48559e-17)
(-0.00173348 -8.65399e-06 -0.000528921)
(-0.00255299 -0.000124287 -0.00033015)
(-0.00157226 -8.05766e-05 -0.000298493)
(-0.00146921 8.73183e-05 -0.000628587)
(-0.000328089 1.44046e-05 4.91355e-05)
(-0.000179187 2.55402e-05 -1.45346e-05)
(-0.000523188 3.34002e-05 0.000112091)
(-0.000198925 2.71184e-05 0.000104578)
(-5.62897e-05 1.54362e-06 -1.59376e-05)
(-3.25502e-05 4.21385e-06 -1.07496e-05)
(-9.50735e-05 -5.8238e-07 -2.852e-05)
(-4.21289e-05 2.43295e-06 -2.13722e-05)
(-4.71756e-14 -8.3223e-15 -1.87748e-14)
(-6.39471e-14 -1.28311e-14 -1.17082e-14)
(-3.44556e-14 -7.45558e-15 -6.21245e-15)
(-3.57325e-14 -7.95338e-15 -1.84714e-14)
(-1.31357e-05 1.76471e-06 -4.50337e-06)
(-1.03055e-05 1.39474e-06 -9.32556e-07)
(-1.87372e-05 2.35521e-06 -3.47125e-06)
(-9.94857e-06 1.35561e-06 -4.8958e-06)
(-0.00046462 -5.95506e-05 0.000165924)
(-0.00073541 -0.000102327 0.000100498)
(-0.0003933 -6.37284e-05 6.47002e-05)
(-0.000332089 -4.80565e-05 0.000183676)
(-4.86006e-16 6.06568e-17 -1.5106e-16)
(-6.09381e-16 1.40955e-16 -2.37127e-16)
(-8.97436e-16 1.61793e-16 8.04068e-17)
(-5.12613e-16 1.09415e-16 -2.6366e-16)
(-6.12359e-16 -1.12899e-16 5.51251e-17)
(-8.99508e-16 -3.23357e-16 7.04158e-17)
(-3.18118e-16 -4.07072e-17 6.64103e-17)
(-4.31561e-16 -1.24292e-16 1.44095e-16)
(-2.9125e-14 1.17949e-15 1.57889e-14)
(-4.50558e-14 -4.00161e-15 9.45078e-15)
(-2.2189e-14 -2.98799e-16 6.56871e-15)
(-2.16583e-14 -5.95749e-16 1.41289e-14)
(-1.16642e-14 1.50921e-15 -3.90453e-16)
(-4.71159e-15 7.07134e-16 -9.94958e-16)
(-5.47343e-15 1.21732e-15 -1.24177e-15)
(-4.81377e-15 7.39985e-16 -1.99815e-15)
(-9.61808e-05 6.96923e-06 -4.47588e-05)
(-7.65113e-05 4.63672e-06 -1.76877e-05)
(-0.00015032 3.14098e-06 -1.62096e-05)
(-7.68288e-05 5.50484e-06 -4.30198e-05)
(-6.55244e-15 -7.57697e-16 6.73801e-16)
(-7.99115e-15 -4.88111e-16 7.33542e-16)
(-4.22995e-15 -1.23669e-15 6.08237e-16)
(-4.57907e-15 -7.60863e-16 1.22139e-15)
(-3.37622e-14 -4.46616e-15 1.69515e-14)
(-5.65171e-14 -8.54562e-15 7.95469e-15)
(-2.79097e-14 -2.71917e-15 8.27303e-15)
(-2.65627e-14 -2.80659e-15 1.60627e-14)
(-5.99795e-05 -2.77263e-06 -1.51026e-05)
(-3.21315e-05 2.68129e-07 -8.53756e-06)
(-0.000101237 -6.52258e-06 -2.74464e-05)
(-4.34477e-05 -4.24332e-06 -2.35886e-05)
(-5.77934e-15 2.48322e-17 4.93731e-16)
(-4.09807e-15 1.48455e-16 1.18125e-15)
(-7.80607e-15 -5.53325e-16 9.53091e-16)
(-3.65055e-15 2.31742e-16 1.33262e-15)
(-2.8196e-14 -8.83004e-16 -1.34145e-14)
(-4.61524e-14 -3.62703e-15 -5.17337e-15)
(-2.18663e-14 8.11745e-16 -4.76408e-15)
(-2.26919e-14 -3.42775e-16 -1.28451e-14)
(-1.20104e-05 4.44102e-08 7.458e-06)
(-1.92633e-05 -2.3555e-06 5.10795e-06)
(-9.31316e-06 -5.33709e-07 3.59252e-06)
(-8.74849e-06 -4.05795e-07 7.04898e-06)
(-1.16821e-06 1.40255e-07 1.53007e-07)
(-1.32962e-06 -1.41759e-07 4.12572e-07)
(-5.29991e-07 1.9116e-07 -1.81417e-07)
(-5.90533e-07 1.2765e-07 3.46651e-07)
(-2.13338e-06 2.58918e-07 -9.08021e-07)
(-1.51845e-06 1.66958e-07 -3.77579e-07)
(-2.81278e-06 4.62262e-07 -3.50564e-07)
(-1.55031e-06 2.54814e-07 -8.38599e-07)
(-1.68148e-13 -2.55026e-14 -5.29754e-14)
(-2.5865e-13 -1.81937e-14 -7.72819e-14)
(-8.38965e-14 -2.74417e-14 -2.13736e-14)
(-1.2179e-13 -2.84609e-14 -7.39968e-14)
(-2.42711e-13 7.77221e-15 9.64005e-14)
(-3.95057e-13 -1.97629e-15 6.63717e-14)
(-1.94874e-13 -1.55224e-15 2.84899e-14)
(-1.91876e-13 -1.43472e-15 9.88216e-14)
(-7.37258e-07 -6.25859e-08 -5.21702e-07)
(-1.83684e-06 -8.96328e-08 -2.00386e-07)
(-7.84755e-07 -7.82288e-08 -1.92227e-07)
(-5.49249e-07 -1.5366e-09 -5.71985e-07)
(-2.23789e-13 -1.35251e-14 6.74782e-14)
(-3.38661e-13 -2.60563e-14 5.54721e-14)
(-1.7248e-13 -2.13363e-14 1.83407e-14)
(-1.73536e-13 -1.72493e-14 7.69979e-14)
(-9.01013e-05 -3.14209e-06 4.28263e-05)
(-7.5089e-05 -7.13988e-06 1.84075e-05)
(-0.000143945 -6.65361e-06 3.12316e-05)
(-7.02531e-05 -5.55105e-06 4.22835e-05)
(-8.7423e-06 -1.52952e-06 -4.42469e-06)
(-1.29319e-05 -9.08077e-07 -5.07558e-06)
(-8.0433e-06 -1.91201e-06 -1.58519e-06)
(-6.45013e-06 -1.39575e-06 -4.83027e-06)
(-8.82739e-05 -3.56693e-06 -5.5374e-05)
(-0.000141884 -1.81452e-05 -3.74209e-05)
(-7.52056e-05 -6.00606e-06 -2.88909e-05)
(-6.99766e-05 -7.75868e-06 -5.34292e-05)
(-7.36032e-15 -1.25867e-16 -1.07828e-15)
(-3.47971e-15 -7.34238e-16 -7.89885e-16)
(-3.92825e-15 -3.82217e-16 -1.64623e-15)
(-3.49039e-15 -3.02737e-16 -1.95779e-15)
(-5.33066e-16 -3.50238e-17 -1.2449e-16)
(-8.47506e-16 -4.65807e-17 -8.85826e-17)
(-4.16731e-16 3.23838e-18 -9.30911e-17)
(-4.13918e-16 -1.99801e-18 -1.7262e-16)
(-4.8132e-09 -1.12377e-11 -2.18375e-09)
(-3.74617e-09 3.17933e-10 -9.89384e-10)
(-7.79636e-09 4.73851e-10 -9.63965e-10)
(-3.83618e-09 2.44431e-10 -2.09409e-09)
(-4.57631e-09 -4.79043e-11 1.40798e-09)
(-3.61289e-09 -8.15173e-11 5.03117e-10)
(-7.39662e-09 1.53052e-10 1.03647e-09)
(-3.52172e-09 -1.10483e-10 1.68077e-09)
(-2.58866e-13 -1.5269e-14 -1.27774e-13)
(-4.18459e-13 -1.57133e-15 -6.8291e-14)
(-2.04747e-13 4.97312e-15 -6.46286e-14)
(-2.11347e-13 -1.23343e-15 -1.25751e-13)
(-1.53804e-06 -7.04683e-08 6.11438e-07)
(-1.29275e-06 -1.19054e-07 2.44914e-07)
(-2.52732e-06 1.89354e-07 4.49615e-07)
(-1.21181e-06 -6.86989e-08 6.74084e-07)
(-1.90059e-13 -2.29438e-14 -1.01288e-13)
(-3.33199e-13 -2.23569e-14 -3.03837e-14)
(-1.54017e-13 -1.40562e-14 -4.56436e-14)
(-1.56185e-13 -1.5502e-14 -9.44491e-14)
(-3.92453e-09 2.96331e-10 1.6857e-10)
(-1.64084e-09 4.3508e-10 -4.98161e-10)
(-4.21343e-09 -1.16144e-10 1.66121e-09)
(-1.76793e-09 1.98384e-10 5.54712e-10)
(-2.67871e-09 1.13597e-10 7.36892e-10)
(-1.31401e-09 2.70026e-10 -3.9958e-10)
(-3.81828e-09 -1.21035e-10 1.79201e-09)
(-1.40466e-09 1.55855e-11 1.08092e-09)
(-7.34949e-11 -3.71263e-12 1.82431e-11)
(-8.25276e-11 -5.99713e-12 3.13544e-11)
(-7.85821e-11 -4.1709e-12 4.28496e-11)
(-3.63844e-10 -2.09312e-11 -1.64595e-10)
(-2.11983e-10 -6.04688e-11 -9.91489e-11)
(-5.40681e-10 5.78243e-11 -1.89001e-10)
(-2.66276e-10 -2.40956e-11 -2.02536e-10)
(-1.93529e-10 -2.13753e-11 -5.80376e-11)
(-5.27214e-10 9.64647e-11 -1.48998e-10)
(-3.15187e-10 3.78948e-11 -9.21273e-11)
(-2.42423e-10 3.55613e-11 -1.26106e-10)
(-7.78154e-11 -2.76038e-12 -1.21965e-11)
(-9.59888e-11 -8.97938e-13 -2.77924e-11)
(-8.58618e-11 -2.96212e-12 -4.02643e-11)
(-3.15252e-09 -1.18105e-09 -6.4937e-10)