/*--------------------------------*- C++ -*----------------------------------*\
  =========                 |
  \\      /  F ield         | OpenFOAM: The Open Source CFD Toolbox
   \\    /   O peration     | Website:  https://openfoam.org
    \\  /    A nd           | Version:  6
     \\/     M anipulation  |
\*---------------------------------------------------------------------------*/
FoamFile
{
    version     2.0;
    format      ascii;
    class       volScalarField;
    location    "4.26";
    object      nut;
}
// * * * * * * * * * * * * * * * * * * * * * * * * * * * * * * * * * * * * * //

dimensions      [0 2 -1 0 0 0 0];

internalField   nonuniform List<scalar> 
4214
(
0.0024587
0.00154214
0.00119139
0.00113467
0.00117244
0.00119891
0.00119553
0.00117857
0.00117128
0.00119856
0.00128784
0.00147459
0.00181772
0.00244447
0.003672
0.00626492
0.011544
0.0205342
0.031717
0.0413142
0.0466802
0.04656
0.0453209
0.0459891
0.0484996
0.0518533
0.054614
0.0544522
0.0494275
0.0398941
0.0289012
0.0189231
0.0112831
0.00630271
0.00345513
0.00210567
0.0014967
0.00123445
0.00117659
0.0014771
0.00240089
0.00166606
0.00123447
0.00110925
0.00111985
0.00115235
0.0011628
0.00115009
0.00112762
0.00111409
0.00113152
0.00120412
0.00135957
0.00163591
0.00210186
0.00291799
0.0045052
0.00784278
0.0143851
0.0245513
0.0359367
0.0448665
0.049121
0.0510675
0.0510071
0.0519271
0.0545216
0.0575269
0.0577502
0.0524559
0.0421342
0.0302057
0.0195452
0.0115705
0.00647294
0.00359248
0.00215279
0.0015094
0.00123721
0.00112669
0.00116646
0.00146487
0.0012751
0.00111347
0.00108864
0.00111321
0.00113307
0.00113234
0.00111385
0.00108838
0.00107323
0.00109076
0.00116528
0.00132119
0.00158487
0.00199282
0.00261929
0.00366531
0.00567802
0.00980452
0.0173564
0.0280006
0.0384459
0.0448768
0.0490594
0.0509813
0.0532312
0.0568942
0.0609271
0.0618149
0.0561347
0.044613
0.0314991
0.0200709
0.0117543
0.00655857
0.00366599
0.00218681
0.00151637
0.00123425
0.00111669
0.00107551
0.00115204
0.00112858
0.00107489
0.00108451
0.00110627
0.00111573
0.00110788
0.0010859
0.00105993
0.00104903
0.00107906
0.00117739
0.00136844
0.00167198
0.00210391
0.00268714
0.00349679
0.00479115
0.0072817
0.0122851
0.0208606
0.031704
0.0406458
0.0466461
0.050424
0.053851
0.0585555
0.0637717
0.0656861
0.0599021
0.0472318
0.0328688
0.0206075
0.0119108
0.00660454
0.00369512
0.00220969
0.00151793
0.00122957
0.00111482
0.00105743
0.00105455
0.00107487
0.00106825
0.00108535
0.00109936
0.00110073
0.00108788
0.00106386
0.00104064
0.0010424
0.00110165
0.00125205
0.00152118
0.00192509
0.0024612
0.0031102
0.0038654
0.00481461
0.00632289
0.00932571
0.0152593
0.0246461
0.0349555
0.0428192
0.0482521
0.0528815
0.0588527
0.0656705
0.0691227
0.0636452
0.0499401
0.0342893
0.0211521
0.0120487
0.0066203
0.00369377
0.00221282
0.00151406
0.00122297
0.00111245
0.00105808
0.00102963
0.00106322
0.00107277
0.0010863
0.00109242
0.00108769
0.00107114
0.0010468
0.00103163
0.00105866
0.00117029
0.00141097
0.00181565
0.00239903
0.00313561
0.00395577
0.00477871
0.00558278
0.00653457
0.00819504
0.011772
0.0186406
0.0283718
0.0377696
0.0447742
0.050591
0.057746
0.0663814
0.071878
0.0672127
0.0527018
0.0357731
0.0217449
0.0122046
0.00663018
0.00367754
0.00220083
0.00150561
0.00121449
0.00110814
0.0010606
0.00102793
0.0010687
0.00107877
0.00108546
0.00108513
0.0010758
0.00105667
0.00103507
0.00103663
0.0011072
0.00130248
0.00168536
0.00230339
0.00317191
0.00423043
0.00533726
0.00632404
0.00707992
0.00767295
0.0084577
0.0102779
0.014552
0.022233
0.0318615
0.0403466
0.047359
0.0554494
0.0658254
0.0737679
0.0704527
0.0554406
0.0373255
0.0224062
0.0124048
0.00665525
0.00366034
0.00218271
0.00149317
0.00120497
0.00110268
0.00106156
0.00103196
0.00107759
0.00108203
0.00108234
0.00107725
0.00106445
0.00104443
0.0010311
0.00106249
0.00120155
0.00152112
0.00211558
0.00304868
0.00433733
0.00586311
0.00738111
0.00861357
0.00935864
0.00964705
0.00976843
0.0103485
0.0125004
0.0176251
0.0259659
0.0352691
0.0434537
0.0523023
0.0641175
0.0746766
0.0732038
0.0580443
0.0389018
0.0231353
0.0126685
0.0067152
0.00365555
0.00216666
0.00147971
0.00119534
0.00109672
0.00106092
0.00103634
0.00108293
0.00108129
0.00107706
0.00106867
0.00105349
0.00103567
0.00103973
0.00111869
0.00135862
0.0018529
0.00274825
0.00411933
0.005986
0.00813497
0.0101858
0.0117332
0.0124726
0.0124363
0.0119359
0.0115504
0.0121435
0.0149572
0.0211248
0.0300222
0.0390388
0.0485365
0.0615992
0.0746591
0.0753248
0.0603732
0.0404094
0.0239005
0.0129913
0.00681986
0.00367227
0.00215858
0.00146868
0.00118642
0.00109068
0.00105919
0.00103973
0.0010825
0.00107691
0.00107005
0.00105947
0.00104357
0.00103336
0.00106824
0.00121631
0.00159756
0.00232499
0.00363011
0.00557025
0.00818157
0.0111042
0.0138018
0.0157297
0.0164548
0.0160518
0.0149039
0.0136476
0.0130506
0.0140737
0.0179763
0.0253845
0.0346261
0.044675
0.0588064
0.0740138
0.0767235
0.0622572
0.0416968
0.0245915
0.0133234
0.00694976
0.00370578
0.00215729
0.00146006
0.00117836
0.00108476
0.00105672
0.00104194
0.00107706
0.00106997
0.00106181
0.0010501
0.00103658
0.0010422
0.00112563
0.00136619
0.00193816
0.00295913
0.00479873
0.00742446
0.0109472
0.0147832
0.018245
0.0206322
0.0213346
0.0205458
0.0187558
0.0166009
0.0149274
0.0145976
0.0166056
0.0220496
0.0307074
0.0412579
0.0564337
0.0731317
0.0773875
0.0634127
0.042493
0.025008
0.0135323
0.0070342
0.00372128
0.00214753
0.00144755
0.0011694
0.00107897
0.00105383
0.00104295
0.00106858
0.00106164
0.00105295
0.0010417
0.00103599
0.00106795
0.00122159
0.00157662
0.0023985
0.00376332
0.00627395
0.00966064
0.0142757
0.0191572
0.023505
0.0264494
0.0271191
0.0259323
0.0233233
0.0202437
0.0175913
0.0161683
0.0167828
0.0203569
0.027687
0.0388458
0.0551713
0.0726755
0.0774125
0.063609
0.0425844
0.0249595
0.0134508
0.00696408
0.00366726
0.00211196
0.00142739
0.00115897
0.00107312
0.00105055
0.00104268
0.00105907
0.00105295
0.00104445
0.0010364
0.00104685
0.00111586
0.00136513
0.00185004
0.00299237
0.0047233
0.00805647
0.012215
0.0181527
0.0241885
0.0295289
0.0331245
0.0336925
0.0321252
0.0286938
0.0246083
0.0209433
0.0185579
0.0181504
0.0203511
0.0264206
0.0385809
0.0557693
0.0728711
0.0766977
0.0627122
0.0418525
0.0243978
0.0130747
0.00674838
0.0035545
0.00205616
0.00140159
0.00114763
0.00106735
0.00104689
0.00104108
0.00104996
0.00104487
0.00103803
0.00103718
0.00107501
0.00118833
0.00156344
0.00217868
0.00372721
0.00579667
0.0101372
0.0149931
0.0225725
0.0297407
0.0362002
0.0404909
0.040729
0.0387816
0.0344438
0.0294526
0.0249076
0.0216724
0.020472
0.0218405
0.0278651
0.0405926
0.057895
0.0735052
0.0754127
0.0608763
0.0403443
0.0233443
0.0124385
0.00640963
0.0033906
0.00198153
0.00137037
0.0011355
0.00106173
0.00104305
0.00103844
0.00104224
0.00103868
0.00103647
0.00104671
0.00112577
0.00128198
0.00182097
0.00253938
0.00460421
0.00691109
0.0125112
0.0178682
0.0275113
0.0355842
0.0433281
0.0482183
0.0476775
0.0453131
0.0399621
0.0343374
0.029285
0.0254038
0.0236761
0.0247792
0.0318787
0.0449512
0.0612145
0.0740974
0.0732022
0.0579014
0.0379986
0.0217892
0.0115534
0.00595513
0.00317803
0.00188867
0.00133384
0.00112271
0.00105656
0.00103948
0.00103535
0.00103718
0.00103604
0.00104318
0.00106511
0.00120278
0.00138426
0.0021394
0.00288862
0.00562119
0.00796492
0.0151826
0.0207005
0.0329531
0.0415237
0.0506162
0.0558549
0.0538271
0.0510026
0.0446833
0.0389572
0.0339512
0.0296634
0.0282597
0.0304132
0.0389103
0.0511007
0.0648713
0.0738068
0.0696415
0.0536932
0.0349644
0.0197621
0.010492
0.00539833
0.00293227
0.00177947
0.00129367
0.00110949
0.00105219
0.00103678
0.00103265
0.00103653
0.00103776
0.00106123
0.00108693
0.00130813
0.00146979
0.00251962
0.00315929
0.00677872
0.00882585
0.0181599
0.0232677
0.038878
0.0473933
0.0575996
0.0628826
0.0584723
0.0551415
0.0485002
0.043434
0.0396051
0.0360503
0.0364062
0.0401753
0.0475374
0.0572646
0.0675536
0.0722503
0.06487
0.0483861
0.0321962
0.0177039
0.00996011
0.00488818
0.00284323
0.00167436
0.00127956
0.00109771
0.00105198
0.00103577
0.00103186
0.00103051
0.00103207
0.00103487
0.00103737
0.0010384
0.00103729
0.00103396
0.0010289
0.00102294
0.0010173
0.00101426
0.00101962
0.00104829
0.00113838
0.00138823
0.00212373
0.00441289
0.00103133
0.00103307
0.00103571
0.0010374
0.00103684
0.00103336
0.00102726
0.00101964
0.00101222
0.0010074
0.00100918
0.00102546
0.00107338
0.00119098
0.00146379
0.00208927
0.00387233
0.00103414
0.00103626
0.00103884
0.00103988
0.00103787
0.00103226
0.00102384
0.00101456
0.0010073
0.00100572
0.00101508
0.00104442
0.0011109
0.00124849
0.00152384
0.00205467
0.00333168
0.00103858
0.00104133
0.00104412
0.00104476
0.00104153
0.001034
0.00102356
0.00101322
0.00100707
0.00100992
0.00102784
0.00106986
0.00115131
0.00129912
0.00155815
0.00198544
0.00284962
0.00104468
0.00104804
0.00105125
0.00105177
0.0010476
0.00103829
0.00102587
0.00101446
0.00100938
0.00101642
0.00104191
0.00109403
0.00118491
0.001333
0.00156334
0.0018905
0.00243306
0.00105146
0.00105586
0.0010598
0.00106061
0.00105583
0.00104496
0.00103039
0.00101727
0.00101215
0.00102169
0.00105227
0.00111065
0.00120519
0.0013461
0.00154277
0.00178852
0.0020864
0.00105918
0.0010644
0.00106933
0.00107094
0.00106621
0.00105422
0.00103738
0.00102156
0.00101451
0.00102381
0.00105586
0.00111612
0.00120938
0.00133925
0.00150584
0.00170313
0.00180956
0.00106668
0.0010731
0.00107937
0.0010824
0.00107873
0.0010666
0.00104781
0.00102846
0.00101726
0.00102296
0.00105246
0.00111039
0.00119907
0.00131809
0.00146658
0.0016739
0.00160198
0.00107431
0.00108159
0.00108936
0.00109448
0.00109315
0.0010825
0.00106302
0.00104007
0.0010229
0.00102162
0.00104435
0.00109607
0.00117831
0.00128984
0.00143778
0.0017369
0.00146054
0.00108117
0.00108935
0.00109868
0.0011064
0.00110868
0.00110166
0.00108389
0.00105885
0.0010352
0.00102425
0.00103621
0.00107787
0.00115215
0.00125994
0.00142691
0.00176717
0.00137927
0.00108747
0.00109615
0.00110675
0.00111713
0.00112387
0.00112258
0.0011099
0.00108625
0.00105801
0.00103654
0.00103445
0.00106192
0.0011254
0.00123015
0.00141277
0.00170076
0.00135229
0.00109278
0.00110163
0.0011131
0.00112572
0.00113691
0.00114258
0.00113819
0.001121
0.0010932
0.00106374
0.00104642
0.00105553
0.00110272
0.00119845
0.00137421
0.00163205
0.00137538
0.00109726
0.00110583
0.00111751
0.00113155
0.00114632
0.00115869
0.00116425
0.00115826
0.00113827
0.00110785
0.00107838
0.00106682
0.00109113
0.00116896
0.00132965
0.00158702
0.00144249
0.00110096
0.00110877
0.00112004
0.00113451
0.00115145
0.00116891
0.00118359
0.00119078
0.00118523
0.00116421
0.00113206
0.00110315
0.00110021
0.00115075
0.00129102
0.00156136
0.00154755
0.00110404
0.00111069
0.00112096
0.00113494
0.0011525
0.00117283
0.00119397
0.00121259
0.00122356
0.00122061
0.0011998
0.00116585
0.00113848
0.00115354
0.00126422
0.00154635
0.00168387
0.00110663
0.00111187
0.00112065
0.00113332
0.00115022
0.00117134
0.00119581
0.00122194
0.00124636
0.00126326
0.00126464
0.00124409
0.00120732
0.00118714
0.00125537
0.00153705
0.00184398
0.00110889
0.00111257
0.0011195
0.00113025
0.0011455
0.00116575
0.00119096
0.00122068
0.00125333
0.00128538
0.00130991
0.00131595
0.00129324
0.00125372
0.00127247
0.0015324
0.00202029
0.00111082
0.00111299
0.0011179
0.00112633
0.00113917
0.00115732
0.00118134
0.00121165
0.00124801
0.00128889
0.0013302
0.00136285
0.00137049
0.00133974
0.00131858
0.00153313
0.00220567
0.00111246
0.0011132
0.00111612
0.00112206
0.00113202
0.00114715
0.0011685
0.00119718
0.00123395
0.00127875
0.0013298
0.00138144
0.00141972
0.00141946
0.00138574
0.00154483
0.00239407
0.00111366
0.00111319
0.00111427
0.0011178
0.00112474
0.00113632
0.00115395
0.00117923
0.00121381
0.00125891
0.00131455
0.00137777
0.00143873
0.00147293
0.00145598
0.00156722
0.00258141
0.00111442
0.00111286
0.00111236
0.00111372
0.00111779
0.00112574
0.0011391
0.00115979
0.0011901
0.00123242
0.00128855
0.00135799
0.00143432
0.00149697
0.00151152
0.00159557
0.00276659
0.00111465
0.00111216
0.00111032
0.00110984
0.00111139
0.00111602
0.00112514
0.00114072
0.00116541
0.00120248
0.0012554
0.00132636
0.00141257
0.00149745
0.001544
0.00162989
0.00295193
0.00111448
0.00111115
0.00110818
0.00110617
0.00110563
0.00110741
0.00111271
0.00112334
0.00114195
0.00117223
0.00121891
0.00128682
0.00137756
0.00148012
0.00155885
0.00166328
0.00314196
0.00111394
0.00110986
0.00110597
0.00110275
0.00110056
0.00110004
0.00110215
0.00110841
0.00112122
0.00114424
0.0011828
0.00124377
0.00133331
0.00144801
0.00155845
0.00169665
0.00334182
0.00111324
0.00110854
0.00110391
0.00109974
0.00109629
0.001094
0.00109361
0.0010963
0.00110407
0.00112022
0.00115004
0.00120148
0.00128444
0.00140418
0.00154324
0.00172887
0.00355571
0.00111244
0.00110725
0.00110211
0.0010973
0.00109297
0.00108944
0.0010872
0.00108716
0.00109087
0.00110109
0.00112259
0.0011634
0.00123574
0.0013528
0.00151358
0.00175494
0.00378647
0.00111173
0.00110625
0.00110078
0.00109559
0.00109075
0.00108645
0.00108301
0.00108106
0.00108175
0.00108724
0.00110151
0.00113191
0.00119136
0.00129884
0.00147122
0.00176997
0.0040353
0.00111117
0.00110553
0.00109998
0.00109471
0.0010897
0.00108508
0.00108104
0.00107797
0.00107666
0.00107867
0.00108715
0.00110831
0.00115438
0.00124732
0.00141968
0.0017707
0.00430152
0.00111083
0.00110526
0.00109984
0.00109472
0.00108987
0.00108535
0.00108123
0.00107775
0.00107537
0.00107516
0.0010794
0.00109303
0.00112666
0.00120244
0.00136391
0.00175448
0.00458254
0.00111073
0.00110542
0.00110035
0.00109565
0.00109127
0.00108721
0.00108349
0.0010802
0.00107759
0.00107629
0.00107783
0.00108583
0.0011089
0.00116723
0.00130935
0.00172025
0.00487385
0.00111097
0.00110616
0.00110164
0.00109758
0.00109392
0.00109065
0.00108773
0.00108515
0.00108299
0.00108157
0.00108179
0.0010861
0.00110095
0.00114334
0.001261
0.00166922
0.00516903
0.00111162
0.00110749
0.00110377
0.00110059
0.00109792
0.00109572
0.00109392
0.00109246
0.0010913
0.00109054
0.0010906
0.00109297
0.00110208
0.00113118
0.00122279
0.00160523
0.00545997
0.00111284
0.00110961
0.0011069
0.00110484
0.00110339
0.00110251
0.00110212
0.00110212
0.00110238
0.00110286
0.00110366
0.00110553
0.00111125
0.00113026
0.00119728
0.00153458
0.00573697
0.00111474
0.00111258
0.00111114
0.00111044
0.00111047
0.00111117
0.00111244
0.00111416
0.00111618
0.00111834
0.00112054
0.00112304
0.00112735
0.00113959
0.00118564
0.00146512
0.0059886
0.00111753
0.00111661
0.00111661
0.00111752
0.00111927
0.00112179
0.00112498
0.00112868
0.00113272
0.00113691
0.00114101
0.00114498
0.00114944
0.00115796
0.0011879
0.00140473
0.00620156
0.00112134
0.0011218
0.00112344
0.00112616
0.00112986
0.00113445
0.00113979
0.00114573
0.00115207
0.00115857
0.00116498
0.00117105
0.00117689
0.00118426
0.00120348
0.00136046
0.00636103
0.00112628
0.00112831
0.00113172
0.00113641
0.00114226
0.00114914
0.00115688
0.00116531
0.00117421
0.00118335
0.00119244
0.00120118
0.00120939
0.00121776
0.00123158
0.00133803
0.00645247
0.0011324
0.00113617
0.00114152
0.00114834
0.0011565
0.00116583
0.00117617
0.00118733
0.00119908
0.00121119
0.00122338
0.00123536
0.0012469
0.00125817
0.00127151
0.00134178
0.00646379
0.00113968
0.00114538
0.00115286
0.00116199
0.00117261
0.00118455
0.00119764
0.00121171
0.00122655
0.00124198
0.00125776
0.00127369
0.00128963
0.0013057
0.00132299
0.00137227
0.00639061
0.00114802
0.00115584
0.00116566
0.00117731
0.00119059
0.00120532
0.00122133
0.00123847
0.00125662
0.00127568
0.00129557
0.0013163
0.00133801
0.00136113
0.00138686
0.00142946
0.00623576
0.00115937
0.00116595
0.00117487
0.00118163
0.00119155
0.00119862
0.00120918
0.00121643
0.00122692
0.00123407
0.00124354
0.00124999
0.00125737
0.0012621
0.00126614
0.00126787
0.00126834
0.00126801
0.00126708
0.00126528
0.00126002
0.00125552
0.00125326
0.00125157
0.00125011
0.00124864
0.00124701
0.00124504
0.00124259
0.0012395
0.00123568
0.00123103
0.00122548
0.00121904
0.00121173
0.00120364
0.00119491
0.0011857
0.00117623
0.00116669
0.00115734
0.00117555
0.00118285
0.00119103
0.00119893
0.00120788
0.00121626
0.00122561
0.00123408
0.00124313
0.00125098
0.00125874
0.00126502
0.00127045
0.00127419
0.00127653
0.00127727
0.00127691
0.00127604
0.00127476
0.00127288
0.00126805
0.00126411
0.00126239
0.0012613
0.00126047
0.00125966
0.00125869
0.00125737
0.00125552
0.00125298
0.00124959
0.00124526
0.00123991
0.0012335
0.00122606
0.00121768
0.00120847
0.00119863
0.00118835
0.00117786
0.00116741
0.0011957
0.00120319
0.00121114
0.00121929
0.00122784
0.00123638
0.00124507
0.00125337
0.00126137
0.00126851
0.00127481
0.00127985
0.00128365
0.00128603
0.00128703
0.00128671
0.00128562
0.00128429
0.00128279
0.00128098
0.00127679
0.0012736
0.00127256
0.00127218
0.00127207
0.00127202
0.00127181
0.00127122
0.00127005
0.00126811
0.00126523
0.00126128
0.00125616
0.00124983
0.00124231
0.00123366
0.00122403
0.00121359
0.00120256
0.00119119
0.00117974
0.00122035
0.00122766
0.0012353
0.00124314
0.00125116
0.00125913
0.00126693
0.00127426
0.00128094
0.00128669
0.00129137
0.00129484
0.00129705
0.00129798
0.00129764
0.00129625
0.00129456
0.0012929
0.00129135
0.00128975
0.00128642
0.00128416
0.00128392
0.00128434
0.00128507
0.00128585
0.00128646
0.00128666
0.00128622
0.00128493
0.00128259
0.00127904
0.00127418
0.00126795
0.00126035
0.00125146
0.00124142
0.00123041
0.00121868
0.00120648
0.00119411
0.0012498
0.00125655
0.00126347
0.00127048
0.00127748
0.00128427
0.00129067
0.00129644
0.00130139
0.00130534
0.00130819
0.0013099
0.00131048
0.00130992
0.00130822
0.00130592
0.00130381
0.00130201
0.00130058
0.0012994
0.00129713
0.00129596
0.00129662
0.00129794
0.00129956
0.00130123
0.0013027
0.00130372
0.00130403
0.0013034
0.0013016
0.00129846
0.00129386
0.00128773
0.00128005
0.00127091
0.00126046
0.0012489
0.00123648
0.00122351
0.00121028
0.00128318
0.00128916
0.00129496
0.00130061
0.00130603
0.00131107
0.00131556
0.00131931
0.00132219
0.00132408
0.00132493
0.00132476
0.00132362
0.00132147
0.00131859
0.00131581
0.00131352
0.00131181
0.00131071
0.00131013
0.0013091
0.00130917
0.00131082
0.00131309
0.00131565
0.00131823
0.00132058
0.00132241
0.00132345
0.00132346
0.00132218
0.00131943
0.00131507
0.001309
0.00130124
0.00129184
0.00128097
0.00126885
0.00125578
0.00124206
0.00122804
0.00131574
0.00132191
0.00132698
0.00133128
0.00133494
0.00133796
0.00134024
0.00134171
0.0013423
0.00134198
0.00134079
0.0013388
0.00133595
0.00133242
0.00132891
0.00132601
0.00132384
0.0013225
0.00132198
0.0013222
0.00132254
0.00132396
0.00132665
0.0013299
0.00133341
0.00133689
0.00134009
0.00134269
0.00134444
0.00134503
0.00134423
0.00134183
0.00133766
0.00133163
0.00132374
0.00131406
0.00130277
0.00129011
0.00127639
0.00126197
0.00124723
0.00133851
0.0013468
0.00135282
0.00135704
0.00135978
0.00136128
0.0013617
0.00136115
0.00135973
0.00135755
0.00135465
0.00135099
0.00134677
0.00134269
0.00133929
0.0013367
0.00133504
0.00133436
0.00133466
0.00133586
0.00133768
0.0013405
0.00134424
0.00134847
0.0013529
0.00135724
0.00136123
0.00136455
0.00136692
0.00136804
0.00136764
0.00136552
0.00136149
0.00135546
0.00134741
0.00133744
0.00132572
0.00131252
0.00129819
0.00128312
0.00126773
0.00134713
0.00135782
0.00136578
0.00137128
0.00137461
0.00137607
0.00137599
0.00137465
0.00137223
0.00136885
0.00136473
0.00136033
0.00135622
0.00135271
0.00134999
0.0013482
0.00134743
0.00134772
0.00134908
0.00135141
0.00135472
0.00135894
0.00136372
0.00136889
0.00137417
0.00137931
0.001384
0.00138794
0.00139084
0.00139239
0.00139232
0.0013904
0.00138646
0.00138038
0.00137216
0.00136188
0.00134974
0.00133603
0.00132112
0.00130546
0.00128949
0.00134575
0.00135765
0.00136702
0.00137391
0.00137842
0.00138074
0.00138114
0.00137996
0.00137765
0.00137465
0.00137138
0.00136817
0.00136532
0.00136306
0.00136158
0.00136102
0.00136149
0.00136302
0.0013656
0.00136915
0.00137393
0.00137948
0.00138523
0.00139125
0.00139731
0.00140312
0.00140839
0.00141283
0.00141614
0.00141802
0.00141818
0.00141639
0.00141248
0.00140632
0.00139792
0.00138735
0.00137482
0.00136065
0.00134523
0.00132904
0.00131256
0.00134136
0.00135224
0.00136137
0.00136867
0.00137406
0.00137766
0.00137964
0.0013803
0.00137996
0.00137896
0.00137763
0.00137631
0.00137526
0.00137472
0.0013749
0.00137591
0.00137787
0.00138079
0.00138468
0.00138948
0.0013956
0.00140233
0.00140894
0.0014157
0.00142238
0.00142871
0.00143443
0.00143923
0.00144281
0.00144488
0.00144517
0.00144345
0.00143953
0.00143329
0.00142472
0.00141391
0.00140107
0.00138652
0.00137067
0.00135403
0.00133711
0.00134499
0.00135362
0.00136131
0.00136793
0.00137338
0.00137763
0.00138078
0.00138298
0.00138444
0.00138539
0.00138609
0.0013868
0.00138775
0.00138913
0.00139113
0.00139384
0.00139736
0.00140172
0.00140689
0.00141284
0.00142009
0.00142777
0.00143508
0.00144239
0.00144951
0.00145619
0.00146216
0.00146714
0.00147084
0.00147299
0.00147332
0.0014716
0.00146765
0.00146135
0.00145269
0.00144174
0.00142872
0.00141392
0.00139779
0.00138082
0.00136357
0.00135954
0.00136551
0.00137119
0.00137644
0.00138115
0.00138528
0.00138886
0.00139195
0.00139467
0.00139716
0.00139958
0.0014021
0.00140488
0.00140806
0.00141177
0.00141608
0.00142104
0.00142667
0.00143295
0.00143984
0.0014479
0.00145622
0.00146397
0.00147159
0.00147891
0.00148569
0.00149169
0.00149665
0.00150031
0.0015024
0.00150268
0.00150093
0.00149698
0.0014907
0.00148208
0.00147118
0.00145818
0.00144338
0.00142719
0.0014101
0.00139271
0.00138663
0.00138986
0.00139338
0.00139693
0.00140046
0.00140394
0.00140734
0.00141071
0.00141407
0.00141751
0.0014211
0.00142494
0.00142911
0.00143368
0.00143871
0.00144425
0.0014503
0.00145686
0.00146389
0.00147135
0.00147975
0.00148826
0.00149609
0.00150368
0.00151087
0.00151745
0.0015232
0.00152791
0.00153133
0.00153323
0.00153339
0.00153163
0.00152776
0.00152167
0.00151333
0.00150278
0.00149016
0.00147575
0.00145991
0.00144307
0.00142593
0.00142836
0.001429
0.00143046
0.00143229
0.00143447
0.00143697
0.00143977
0.00144288
0.00144629
0.00145003
0.00145413
0.00145859
0.00146346
0.00146874
0.00147444
0.00148056
0.00148708
0.00149396
0.00150114
0.00150858
0.00151667
0.00152474
0.00153214
0.00153921
0.00154583
0.00155181
0.00155697
0.00156114
0.00156411
0.0015657
0.00156572
0.001564
0.00156039
0.00155478
0.00154712
0.00153741
0.00152578
0.00151241
0.00149761
0.00148176
0.00146567
0.00148774
0.00148623
0.00148604
0.0014864
0.00148729
0.00148871
0.00149063
0.00149304
0.00149593
0.00149928
0.00150308
0.00150731
0.00151195
0.00151699
0.00152239
0.00152811
0.00153413
0.00154037
0.00154679
0.00155331
0.00156019
0.00156697
0.00157318
0.00157905
0.00158447
0.00158931
0.00159344
0.00159671
0.00159901
0.00160017
0.00160006
0.00159855
0.00159551
0.00159085
0.00158451
0.00157646
0.00156676
0.00155556
0.00154304
0.00152951
0.001516
0.00156927
0.00156647
0.00156551
0.00156503
0.00156502
0.00156548
0.0015664
0.00156776
0.00156954
0.00157171
0.00157425
0.00157713
0.00158033
0.0015838
0.00158751
0.00159142
0.0015955
0.00159969
0.00160395
0.00160822
0.0016126
0.00161686
0.00162079
0.00162446
0.0016278
0.00163076
0.00163324
0.00163519
0.00163651
0.00163714
0.00163699
0.00163598
0.00163404
0.0016311
0.0016271
0.00162202
0.00161586
0.00160868
0.0016006
0.00159176
0.00158364
0.00431387
0.0026836
0.00165249
0.00129486
0.0011401
0.00107885
0.0010649
0.00107154
0.00108198
0.00108721
0.00108475
0.00107634
0.00106528
0.00105444
0.00104541
0.00103909
0.00103645
0.0038407
0.00282144
0.00176209
0.00136294
0.001175
0.00109102
0.0010645
0.00106705
0.00107891
0.0010876
0.0010879
0.0010804
0.00106866
0.0010565
0.00104642
0.00103948
0.00103637
0.00334198
0.00298476
0.00184131
0.00141746
0.0012072
0.0011045
0.00106579
0.00106326
0.0010757
0.00108771
0.00109114
0.00108497
0.00107277
0.00105919
0.0010477
0.00103988
0.00103619
0.00288775
0.00306985
0.00187492
0.00144783
0.00122878
0.00111424
0.00106625
0.00105925
0.00107209
0.00108734
0.00109409
0.00108959
0.00107722
0.00106235
0.00104927
0.00104023
0.00103557
0.00249052
0.00303987
0.00186655
0.00145205
0.00123616
0.00111753
0.00106435
0.00105478
0.00106852
0.00108694
0.00109689
0.00109408
0.00108168
0.0010657
0.0010511
0.0010407
0.00103526
0.00215633
0.00287012
0.00182719
0.00143393
0.00122941
0.00111335
0.00105971
0.00105019
0.00106581
0.00108727
0.00109988
0.00109834
0.00108583
0.00106891
0.00105306
0.00104134
0.00103496
0.00188775
0.00262385
0.00176791
0.00139935
0.00121086
0.00110242
0.00105272
0.0010463
0.00106506
0.00108927
0.00110354
0.00110238
0.00108942
0.00107167
0.00105487
0.00104208
0.00103447
0.00168378
0.00235235
0.00168878
0.0013542
0.00118379
0.00108661
0.00104483
0.0010445
0.00106756
0.00109385
0.00110824
0.0011062
0.00109223
0.00107371
0.00105631
0.00104288
0.00103451
0.00154165
0.00209461
0.00159246
0.00130204
0.00115164
0.00106876
0.0010385
0.0010468
0.00107463
0.0011016
0.00111408
0.00110968
0.00109408
0.00107485
0.00105715
0.00104348
0.00103479
0.00145771
0.00187997
0.00148776
0.00124539
0.00111788
0.00105256
0.00103709
0.00105561
0.00108731
0.00111251
0.00112065
0.00111245
0.00109481
0.00107497
0.00105731
0.00104377
0.00103496
0.00142775
0.00171879
0.00138558
0.00119087
0.00108723
0.00104308
0.00104471
0.00107304
0.00110575
0.00112563
0.00112698
0.00111401
0.00109424
0.00107403
0.00105676
0.00104371
0.00103515
0.00144678
0.0016022
0.00129982
0.00114554
0.00106693
0.00104625
0.00106502
0.00109978
0.00112846
0.0011391
0.00113191
0.00111385
0.0010922
0.00107202
0.00105552
0.00104329
0.00103525
0.00150872
0.00151845
0.00124481
0.00111471
0.00106374
0.00106759
0.0011
0.00113416
0.0011522
0.00115023
0.001134
0.00111151
0.00108874
0.00106909
0.00105366
0.00104248
0.00103522
0.00160732
0.00146363
0.00121087
0.00110524
0.00108379
0.00110929
0.0011464
0.00116991
0.00117158
0.00115612
0.00113222
0.00110687
0.00108402
0.0010655
0.00105143
0.00104146
0.00103505
0.00173555
0.001438
0.00119747
0.00112073
0.00112937
0.00116704
0.00119492
0.00119859
0.00118211
0.00115542
0.00112663
0.00110035
0.00107849
0.00106156
0.00104907
0.0010404
0.00103489
0.00188571
0.00142929
0.001205
0.00116471
0.00119638
0.00122852
0.00123336
0.00121396
0.00118255
0.00114889
0.00111828
0.00109277
0.00107269
0.00105766
0.00104683
0.00103948
0.00103488
0.0020508
0.00144467
0.00123551
0.0012334
0.00126953
0.001277
0.00125353
0.00121534
0.00117498
0.00113869
0.00110865
0.00108503
0.00106715
0.00105412
0.00104494
0.00103885
0.0010351
0.00222415
0.00146378
0.00129117
0.00131271
0.00132822
0.00130241
0.00125595
0.00120676
0.00116298
0.00112709
0.00109905
0.00107787
0.00106231
0.00105124
0.0010436
0.00103864
0.00103566
0.00240047
0.00149183
0.00135907
0.00138023
0.0013605
0.00130682
0.00124687
0.00119328
0.00114961
0.00111577
0.00109038
0.0010718
0.0010585
0.00104923
0.00104297
0.001039
0.00103667
0.00257644
0.0015237
0.00142286
0.0014213
0.00136915
0.00129842
0.0012325
0.00117844
0.00113673
0.0011057
0.00108317
0.00106712
0.0010559
0.00104823
0.00104315
0.00103999
0.00103818
0.00275154
0.00155616
0.00146963
0.00143803
0.00136362
0.00128401
0.00121638
0.00116395
0.00112518
0.0010973
0.00107764
0.00106398
0.00105463
0.00104834
0.00104423
0.00104171
0.00104025
0.00292838
0.00158685
0.00149737
0.00143937
0.0013508
0.00126692
0.0012001
0.00115063
0.0011154
0.00109085
0.00107399
0.00106251
0.00105477
0.00104963
0.00104628
0.0010442
0.00104294
0.00311168
0.00161635
0.00151182
0.00143213
0.00133398
0.0012488
0.00118459
0.00113907
0.00110777
0.00108658
0.00107233
0.00106278
0.00105638
0.0010521
0.00104927
0.00104742
0.0010462
0.00330678
0.00164702
0.00151841
0.00141911
0.0013144
0.00123039
0.00117041
0.00112963
0.0011025
0.00108458
0.00107271
0.0010648
0.00105944
0.00105577
0.0010532
0.0010514
0.00105008
0.003518
0.00167807
0.00151862
0.00140106
0.00129281
0.00121246
0.00115813
0.00112268
0.00109978
0.00108492
0.00107514
0.00106852
0.0010639
0.00106056
0.00105805
0.00105614
0.00105455
0.00374832
0.0017079
0.00151183
0.00137827
0.00127012
0.00119592
0.00114843
0.0011186
0.00109979
0.00108766
0.00107955
0.00107387
0.00106966
0.00106637
0.00106369
0.00106142
0.00105945
0.00399919
0.00173478
0.00149687
0.00135145
0.00124762
0.00118183
0.00114194
0.00111772
0.00110261
0.00109274
0.00108586
0.00108072
0.0010766
0.0010731
0.00107004
0.0010673
0.00106483
0.0042702
0.00175504
0.00147311
0.00132208
0.0012269
0.00117126
0.00113923
0.00112023
0.00110826
0.00110006
0.00109392
0.00108892
0.00108456
0.00108062
0.00107699
0.00107368
0.00107058
0.004559
0.00176407
0.00144119
0.00129241
0.00120964
0.00116506
0.00114061
0.00112618
0.00111663
0.00110948
0.00110355
0.00109828
0.00109339
0.00108878
0.00108442
0.00108029
0.00107641
0.00486105
0.00175738
0.00140335
0.00126507
0.00119727
0.00116376
0.00114617
0.00113549
0.00112757
0.00112078
0.00111454
0.00110862
0.00110293
0.00109744
0.0010922
0.00108723
0.00108263
0.00516954
0.00173186
0.00136316
0.00124257
0.00119071
0.00116749
0.00115578
0.00114792
0.00114087
0.00113381
0.00112677
0.00111983
0.00111305
0.00110648
0.00110021
0.00109439
0.00108909
0.00547542
0.00168713
0.00132491
0.0012268
0.00119029
0.00117601
0.001169
0.00116317
0.00115636
0.00114845
0.00114014
0.00113184
0.00112371
0.00111588
0.00110841
0.00110142
0.00109498
0.00576754
0.00162647
0.00129267
0.00121878
0.00119584
0.00118871
0.00118533
0.00118093
0.00117391
0.00116467
0.00115464
0.00114463
0.00113492
0.00112564
0.00111688
0.00110868
0.0011011
0.00603274
0.00155666
0.00126954
0.00121877
0.00120666
0.00120481
0.00120414
0.00120083
0.00119341
0.00118248
0.00117032
0.00115826
0.00114669
0.00113578
0.0011256
0.00111633
0.00110814
0.00625615
0.00148676
0.00125738
0.00122622
0.00122177
0.0012235
0.00122481
0.00122247
0.00121473
0.00120193
0.00118727
0.00117279
0.00115909
0.00114632
0.00113451
0.0011238
0.00111413
0.0064218
0.00142629
0.00125694
0.00124009
0.00124017
0.00124396
0.0012467
0.00124538
0.00123768
0.00122304
0.00120556
0.0011883
0.00117218
0.00115737
0.00114382
0.00113145
0.00112006
0.00651409
0.00138391
0.00126812
0.00125931
0.00126092
0.00126541
0.00126917
0.00126904
0.0012619
0.00124578
0.00122528
0.00120486
0.00118599
0.00116893
0.00115361
0.00113996
0.00112785
0.00652002
0.00136666
0.00129046
0.00128317
0.00128332
0.00128704
0.00129143
0.00129279
0.0012868
0.00126997
0.00124647
0.00122252
0.00120052
0.00118091
0.00116359
0.00114839
0.00113492
0.00643441