/*--------------------------------*- C++ -*----------------------------------*\
  =========                 |
  \\      /  F ield         | OpenFOAM: The Open Source CFD Toolbox
   \\    /   O peration     | Website:  https://openfoam.org
    \\  /    A nd           | Version:  6
     \\/     M anipulation  |
\*---------------------------------------------------------------------------*/
FoamFile
{
    version     2.0;
    format      ascii;
    class       volScalarField;
    location    "2.97";
    object      nut;
}
// * * * * * * * * * * * * * * * * * * * * * * * * * * * * * * * * * * * * * //

dimensions      [0 2 -1 0 0 0 0];

internalField   nonuniform List<scalar> 
4214
(
0.00359806
0.00392577
0.00488166
0.00582064
0.00637773
0.00650602
0.00633695
0.0060612
0.00585638
0.00585676
0.00615625
0.0068211
0.00789691
0.00940931
0.011376
0.0138575
0.0170119
0.0210201
0.0253866
0.0272544
0.0231062
0.0171099
0.0128837
0.0107574
0.00956866
0.00871113
0.00800837
0.00743498
0.00700422
0.006729
0.0066136
0.00665067
0.00681591
0.00705945
0.00729376
0.00738355
0.00715472
0.0064492
0.00529639
0.00412466
0.0036609
0.00363214
0.00466169
0.00554752
0.00608316
0.00625418
0.00614476
0.00589534
0.00566206
0.00558101
0.00575689
0.00627013
0.00718413
0.00854345
0.0103689
0.012675
0.0155265
0.0190989
0.023439
0.027478
0.0277441
0.0224624
0.0166684
0.0129924
0.011117
0.00993043
0.00897111
0.00814035
0.00744386
0.00690225
0.00652847
0.00632579
0.00628695
0.006393
0.00660777
0.00686963
0.00708355
0.00711969
0.00682997
0.00609651
0.00494678
0.00369025
0.00446118
0.00528547
0.00577974
0.00596769
0.0059098
0.00569973
0.00546149
0.00532243
0.00539157
0.00575795
0.0064989
0.00768126
0.00935238
0.0115328
0.0142345
0.0175252
0.0215339
0.0259775
0.0292043
0.0276951
0.0217542
0.0163921
0.0132827
0.0115882
0.0103483
0.00925668
0.00828345
0.00745732
0.00680291
0.00633091
0.00604085
0.00592369
0.00596264
0.00612957
0.00637883
0.00664057
0.00681825
0.00679436
0.00644893
0.00569617
0.00456574
0.00502216
0.00546126
0.00564131
0.00562427
0.00546471
0.00524578
0.00507491
0.00505894
0.00529152
0.00585719
0.00683844
0.00831061
0.0103276
0.0129117
0.0160702
0.0198681
0.0243002
0.0286378
0.0307626
0.0273903
0.0211746
0.0164206
0.0137926
0.0121711
0.0108149
0.00956092
0.00843289
0.0074736
0.00670673
0.0061383
0.00576258
0.00556746
0.00553617
0.00564504
0.0058584
0.00612266
0.00636336
0.00648877
0.00640068
0.0060105
0.00526289
0.00513445
0.00528834
0.00528778
0.00517641
0.00499687
0.00482325
0.00474978
0.00486997
0.00527123
0.00604216
0.00727699
0.0090641
0.011469
0.0145169
0.0182138
0.0225802
0.0273345
0.0311854
0.0318529
0.0267875
0.0207712
0.0167491
0.0144846
0.0128358
0.0113124
0.00987478
0.00858498
0.00749155
0.00661382
0.00595108
0.00549169
0.00521968
0.00511703
0.00516217
0.00532569
0.00556482
0.00581987
0.00601668
0.00607627
0.00592795
0.00551806
0.00492706
0.00492308
0.00483947
0.00470352
0.00455197
0.00445213
0.00448828
0.00474681
0.00531635
0.00629658
0.00779937
0.00993159
0.0127756
0.0163607
0.0206944
0.0256558
0.0305228
0.0334725
0.0324744
0.0261445
0.0206911
0.0173901
0.0153333
0.0135628
0.0118324
0.0101976
0.00874301
0.00751615
0.00652929
0.0057741
0.00523285
0.00488537
0.00471154
0.00469033
0.00479617
0.00499363
0.00523315
0.00545202
0.00558381
0.00557284
0.00538323
0.00455651
0.00448236
0.00437338
0.00425121
0.00415126
0.00413555
0.00428152
0.00467359
0.00540756
0.00659978
0.00838535
0.0108969
0.0142378
0.018461
0.0235339
0.0290466
0.0337041
0.0353595
0.0326254
0.0256754
0.0210114
0.0183113
0.0163047
0.0143383
0.012375
0.0105367
0.00891726
0.00755796
0.00646279
0.00561582
0.00499345
0.00457129
0.00432657
0.00423771
0.00428135
0.00442732
0.00463351
0.00484516
0.00500315
0.00506001
0.00499227
0.00412961
0.00403476
0.00393069
0.00384027
0.00379951
0.00386647
0.0041147
0.0046309
0.00552237
0.00692622
0.00900687
0.0119341
0.0158489
0.0208372
0.0267289
0.0326518
0.0366954
0.0368111
0.0324986
0.025516
0.0217526
0.0194658
0.0173752
0.0151628
0.012954
0.0109111
0.00912765
0.00763576
0.00643098
0.00549058
0.00478578
0.00428811
0.00397186
0.00381412
0.0037925
0.00388074
0.00404301
0.00423103
0.00439019
0.00447573
0.00446856
0.00370337
0.00361304
0.00352647
0.00346902
0.00348125
0.00362126
0.00396267
0.00459636
0.00563884
0.00724863
0.0096363
0.0130242
0.0176187
0.0235064
0.0302555
0.036363
0.0394054
0.0378809
0.0323194
0.0257752
0.0228771
0.020809
0.018539
0.0160548
0.0135988
0.0113539
0.00940685
0.00777974
0.00646048
0.00542126
0.00462928
0.00405245
0.00366196
0.00343285
0.00334272
0.00336814
0.00347905
0.00363386
0.00378184
0.00387756
0.00389974
0.00329597
0.00321004
0.0031379
0.00311449
0.00317837
0.00338391
0.00380517
0.0045438
0.00574243
0.00758914
0.0103022
0.0141904
0.0195825
0.0265153
0.034145
0.0402036
0.0419261
0.0387323
0.0323046
0.0264972
0.0243212
0.0223145
0.0198121
0.0170533
0.0143576
0.0119155
0.0098039
0.00803536
0.00659196
0.00544313
0.00455398
0.00388978
0.00341879
0.00311341
0.0029501
0.00290702
0.00295933
0.00307305
0.00320286
0.00330177
0.00334121
0.00291269
0.00284356
0.0027993
0.00280981
0.00291309
0.00316223
0.00363271
0.00443506
0.00573508
0.00777913
0.010919
0.0155501
0.0219924
0.0301037
0.0384115
0.0439752
0.0441822
0.0394636
0.0326135
0.0276443
0.0260241
0.0239812
0.0212355
0.0182198
0.0153004
0.0126673
0.010388
0.00846744
0.00688448
0.00560836
0.00460471
0.00383806
0.00327464
0.002884
0.00264025
0.00252137
0.00250627
0.00256891
0.00267237
0.00277073
0.00282567
0.00258708
0.00253472
0.00250926
0.00254169
0.00266848
0.00293992
0.00343051
0.00425606
0.00560172
0.00776064
0.0111718
0.0163796
0.0237473
0.032822
0.0416269
0.0467816
0.0459085
0.0402284
0.0333282
0.0291358
0.0279499
0.0258343
0.0228735
0.019639
0.01652
0.013704
0.0112522
0.0091651
0.00742075
0.00599122
0.00484628
0.00395233
0.00327572
0.00278372
0.00244758
0.00224287
0.00214933
0.00214699
0.00220954
0.00229846
0.00236898
0.00230025
0.00226568
0.00225613
0.0023032
0.00244178
0.00271843
0.00320405
0.00401449
0.00534543
0.00752582
0.0110697
0.0166262
0.0246301
0.0345139
0.0438865
0.0490299
0.0476205
0.041348
0.0345015
0.0309313
0.0300585
0.0279175
0.0248089
0.0214156
0.0181325
0.0151463
0.012517
0.0102461
0.00831361
0.006696
0.00537158
0.00431192
0.00348797
0.0028664
0.00241678
0.00211041
0.0019246
0.00184031
0.00183964
0.00189728
0.00197394
0.00204772
0.00203007
0.00203501
0.00209294
0.00223625
0.0025067
0.00296892
0.00373331
0.00499618
0.00710422
0.0106218
0.016291
0.0246494
0.0351641
0.0452613
0.0508876
0.0495166
0.0430046
0.0362395
0.0329763
0.0323315
0.0302825
0.0271313
0.023668
0.0202741
0.0171402
0.0143323
0.0118611
0.00971246
0.0078658
0.00631362
0.00503362
0.00401015
0.00321121
0.00261049
0.00217342
0.00187444
0.00168866
0.00159957
0.00159103
0.00164133
0.00182869
0.00182648
0.00184493
0.001912
0.00205683
0.00231553
0.00274427
0.0034427
0.00459678
0.00655041
0.00989105
0.0154355
0.0238587
0.0347471
0.0456363
0.0522416
0.051583
0.0452314
0.0385011
0.0352253
0.03476
0.0329663
0.0299166
0.0265132
0.0230896
0.0198526
0.0168798
0.014197
0.0118103
0.00969067
0.00786018
0.0062887
0.00499643
0.0039438
0.00313037
0.00250705
0.00205753
0.00174028
0.00153866
0.00142875
0.00140025
0.00164367
0.00165506
0.00168581
0.00176107
0.00190669
0.00215311
0.00254665
0.00317245
0.00419524
0.0059353
0.00896084
0.0141268
0.0222484
0.0332273
0.044772
0.0527303
0.0535779
0.0479985
0.0412632
0.0377131
0.0373356
0.0359517
0.0331861
0.0300295
0.0266996
0.0234423
0.0203758
0.017472
0.0148532
0.0124059
0.0102718
0.00831525
0.00669276
0.00526507
0.00416141
0.00324245
0.00258136
0.002065
0.00172157
0.00147852
0.00133964
0.00149323
0.00151562
0.00155673
0.00163889
0.00178578
0.00202267
0.00238663
0.00294556
0.00383991
0.00534584
0.00800016
0.0126001
0.0201526
0.0307791
0.0428587
0.0521963
0.0548178
0.0504828
0.0439896
0.0408257
0.0400885
0.039095
0.0368194
0.0341731
0.0311438
0.0279572
0.0249885
0.0218455
0.0191657
0.0162368
0.0139319
0.0113729
0.00951294
0.00744181
0.00607755
0.00459173
0.0037045
0.00277719
0.00227308
0.00178049
0.00153896
0.00133008
0.00126926
0.00143815
0.00171175
0.00202508
0.00239239
0.00282686
0.00332335
0.00385623
0.00437519
0.00479618
0.00499303
0.0048164
0.00419119
0.00330987
0.00286352
0.00478447
0.00123562
0.00124754
0.00141856
0.00163388
0.00187627
0.0021669
0.00251974
0.00293326
0.00338819
0.00384319
0.00422617
0.00442435
0.00429735
0.00377185
0.00304755
0.00281126
0.00461126
0.00117805
0.00124802
0.00139805
0.00156117
0.00174541
0.00197205
0.00225407
0.00259247
0.00297393
0.00336577
0.00370784
0.00390268
0.00382431
0.00340265
0.00282748
0.00274701
0.00443885
0.0011691
0.00125594
0.00137376
0.00149365
0.00163188
0.00180633
0.00202833
0.00230086
0.00261562
0.0029477
0.00324775
0.00343325
0.00339505
0.00306987
0.00263092
0.00267464
0.00427612
0.00118143
0.00126009
0.001345
0.00143144
0.00153424
0.00166697
0.00183923
0.00205536
0.00231122
0.0025886
0.00284775
0.0030197
0.00301211
0.00277172
0.00245511
0.00260144
0.00412284
0.00119227
0.00125424
0.00131282
0.00137467
0.0014507
0.00155063
0.00168253
0.00185157
0.00205676
0.00228551
0.00250643
0.00266248
0.00267667
0.00250809
0.00230123
0.0025399
0.00398043
0.00119922
0.0012395
0.00127915
0.00132349
0.00137953
0.0014541
0.00155395
0.00168456
0.00184718
0.00203374
0.00222013
0.00235974
0.00238919
0.00228061
0.00217285
0.00249973
0.00385124
0.00119197
0.00121876
0.00124594
0.00127793
0.00131913
0.00137443
0.00144938
0.00154938
0.00167707
0.00182791
0.00198402
0.00210796
0.00214829
0.00208995
0.00207174
0.00248192
0.00373713
0.00117887
0.00119576
0.00121464
0.00123782
0.00126806
0.00130896
0.00136506
0.00144131
0.00154108
0.00166246
0.00179284
0.00190283
0.00195106
0.00193414
0.00199508
0.00248489
0.0036382
0.00116155
0.00117273
0.0011861
0.00120291
0.00122509
0.00125542
0.0012976
0.00135596
0.00143408
0.00153189
0.00164113
0.00173941
0.00179355
0.0018088
0.00193525
0.00250261
0.00355191
0.00114365
0.00115125
0.00116065
0.00117281
0.00118913
0.00121185
0.001244
0.00128928
0.00135117
0.00143079
0.00152329
0.00161224
0.00167096
0.0017087
0.00188154
0.00251595
0.00347335
0.001127
0.00113179
0.00113833
0.00114711
0.00115927
0.00117666
0.00120176
0.00123771
0.00128779
0.00135385
0.00143353
0.00151537
0.00157795
0.00162952
0.00182471
0.00250332
0.00339655
0.00111147
0.0011146
0.00111902
0.00112541
0.00113471
0.00114848
0.00116874
0.00119822
0.00123993
0.0012961
0.00136617
0.00144268
0.00150879
0.00156883
0.00176677
0.00245483
0.00331661
0.00109817
0.0010996
0.00110252
0.00110729
0.00111472
0.00112612
0.00114319
0.00116831
0.00120423
0.00125335
0.00131628
0.00138864
0.00145803
0.00152425
0.00171141
0.0023895
0.00323156
0.00108606
0.00108672
0.00108863
0.00109238
0.00109866
0.0011086
0.00112363
0.00114591
0.00117795
0.0012222
0.00127995
0.00134901
0.00142111
0.00149352
0.00166492
0.00230512
0.0031424
0.00107618
0.00107584
0.00107715
0.00108033
0.00108599
0.00109506
0.00110889
0.00112943
0.001159
0.00120003
0.00125424
0.00132088
0.00139507
0.00147471
0.00163269
0.0021843
0.00305169
0.00106725
0.00106686
0.00106787
0.0010708
0.00107619
0.00108485
0.00109809
0.00111768
0.00114582
0.00118494
0.001237
0.00130223
0.00137811
0.00146435
0.00160863
0.00206064
0.00296189
0.00106058
0.00105962
0.00106057
0.00106352
0.00106888
0.00107747
0.00109055
0.0011098
0.00113733
0.00117559
0.00122674
0.00129168
0.00136933
0.00146058
0.00159657
0.00195197
0.00287416
0.00105447
0.00105402
0.00105513
0.00105822
0.00106374
0.00107256
0.00108582
0.00110521
0.00113285
0.00117116
0.00122251
0.00128831
0.00136829
0.00146301
0.00159243
0.00186191
0.00278818
0.00105066
0.00104993
0.00105127
0.00105468
0.0010606
0.00106987
0.00108367
0.00110369
0.00113206
0.00117128
0.00122385
0.00129147
0.00137423
0.00147098
0.00158958
0.00178655
0.00270278
0.00104715
0.00104713
0.00104885
0.00105262
0.00105902
0.0010689
0.00108347
0.00110449
0.00113416
0.00117507
0.00122984
0.0013003
0.00138626
0.00148381
0.00158718
0.00171448
0.00261698
0.00104567
0.00104565
0.00104767
0.00105187
0.0010588
0.00106936
0.00108485
0.00110707
0.00113836
0.00118144
0.00123909
0.00131314
0.00140273
0.00150077
0.00159035
0.00166482
0.00254844
0.00104465
0.00104527
0.0010477
0.00105231
0.00105976
0.00107103
0.00108746
0.00111098
0.00114405
0.00118956
0.0012504
0.00132836
0.00142167
0.00152001
0.00159695
0.00162709
0.0024982
0.001045
0.00104598
0.00104879
0.00105381
0.00106177
0.00107368
0.001091
0.00111574
0.00115052
0.00119837
0.00126234
0.00134416
0.00144119
0.00154017
0.00160646
0.00159738
0.00246641
0.00104656
0.00104789
0.00105106
0.00105641
0.00106474
0.00107714
0.00109512
0.00112081
0.00115693
0.00120672
0.0012734
0.00135875
0.00145963
0.00156048
0.00161987
0.00157851
0.00245406
0.00104837
0.00105055
0.00105423
0.00105996
0.00106857
0.00108123
0.00109952
0.00112565
0.00116248
0.00121343
0.00128205
0.00137042
0.00147544
0.00158032
0.00163848
0.00157518
0.00246319
0.00105251
0.00105472
0.00105865
0.00106457
0.00107325
0.00108586
0.00110399
0.00112987
0.00116649
0.00121751
0.00128689
0.00137744
0.00148688
0.00159855
0.00166264
0.00159032
0.00249674
0.00105563
0.00105917
0.00106378
0.00107002
0.00107868
0.00109094
0.0011084
0.00113328
0.0011686
0.00121829
0.00128686
0.00137824
0.0014919
0.00161307
0.00169118
0.00162498
0.00255759
0.00106231
0.00106557
0.00107029
0.00107655
0.00108498
0.00109659
0.00111289
0.001136
0.00116892
0.00121571
0.00128152
0.00137168
0.00148838
0.00162082
0.00172109
0.00167872
0.00264849
0.00106671
0.00107179
0.00107735
0.00108391
0.00109214
0.00110298
0.00111779
0.00113855
0.00116809
0.00121048
0.00127136
0.00135755
0.00147463
0.00161798
0.00174727
0.00174917
0.00277208
0.00107592
0.00108043
0.00108604
0.00109261
0.00110054
0.00111054
0.00112374
0.00114182
0.00116734
0.00120415
0.00125802
0.00133701
0.00145022
0.00160104
0.00176282
0.00183121
0.00293026
0.00108167
0.00108852
0.00109525
0.00110232
0.00111022
0.00111962
0.00113139
0.0011469
0.00116824
0.00119882
0.00124416
0.00131284
0.00141688
0.00156824
0.00176008
0.00191592
0.00312377
0.00109329
0.00109938
0.00110624
0.00111357
0.00112156
0.00113062
0.00114137
0.00115476
0.00117231
0.00119674
0.00123288
0.00128903
0.0013787
0.00152111
0.00173259
0.00198935
0.00335222
0.00110025
0.00110918
0.00111752
0.00112577
0.00113433
0.0011436
0.001154
0.00116607
0.00118071
0.00119977
0.00122708
0.00126992
0.00134159
0.00146531
0.00167851
0.00203248
0.00361446
0.00111351
0.00112163
0.00113032
0.00113929
0.00114867
0.00115866
0.00116945
0.00118117
0.00119406
0.00120906
0.00122885
0.00125923
0.00131187
0.00140997
0.00160377
0.00202551
0.00390861
0.00112115
0.00113244
0.00114298
0.00115344
0.00116425
0.00117566
0.00118768
0.00120013
0.00121256
0.001225
0.00123919
0.00125939
0.00129476
0.00136519
0.00152241
0.00195846
0.00423143
0.00113488
0.00114555
0.00115682
0.00116864
0.00118124
0.00119468
0.00120875
0.00122293
0.00123611
0.00124737
0.00125798
0.00127106
0.00129316
0.00133893
0.00145209
0.00184218
0.00457738
0.00114294
0.00115693
0.00117041
0.00118442
0.0011995
0.00121571
0.00123262
0.00124947
0.00126441
0.00127551
0.00128423
0.00129317
0.00130704
0.00133503
0.00140739
0.00170813
0.00493803
0.00115672
0.00117028
0.00118503
0.0012013
0.00121934
0.0012389
0.0012593
0.00127947
0.00129698
0.0013085
0.00131647
0.00132366
0.00133405
0.00135279
0.00139602
0.00159404
0.00530106
0.00116506
0.00118204
0.00119953
0.00121894
0.00124064
0.00126416
0.00128851
0.00131243
0.00133323
0.00134567
0.0013532
0.00136047
0.00137144
0.00138892
0.00141908
0.00153055
0.00565315
0.00115849
0.00115976
0.00116111
0.00116263
0.00116442
0.00116656
0.00116915
0.00117222
0.00117583
0.00118
0.00118474
0.00119004
0.00119589
0.00120225
0.0012091
0.00121638
0.00122406
0.00123209
0.00124051
0.00124973
0.00126331
0.0012765
0.0012837
0.00128913
0.00129302
0.00129528
0.00129577
0.00129441
0.00129069
0.00128479
0.00127786
0.00126874
0.00126038
0.00124939
0.00124069
0.00122863
0.00122013
0.00120744
0.00119934
0.0011863
0.00117844
0.00115188
0.00115386
0.00115592
0.00115816
0.00116069
0.00116361
0.00116699
0.00117088
0.00117531
0.0011803
0.00118587
0.00119199
0.00119866
0.00120585
0.00121352
0.00122162
0.00123012
0.00123897
0.0012482
0.00125821
0.00127258
0.00128666
0.00129495
0.00130163
0.00130694
0.00131076
0.00131292
0.0013133
0.00131137
0.00130711
0.00130085
0.00129275
0.00128365
0.00127325
0.00126285
0.00125138
0.00124062
0.00122875
0.00121801
0.00120599
0.00119528
0.00114703
0.00114973
0.00115249
0.00115543
0.00115869
0.00116235
0.00116648
0.00117113
0.00117633
0.00118209
0.00118841
0.00119529
0.00120271
0.00121064
0.00121904
0.00122788
0.0012371
0.00124667
0.00125661
0.00126728
0.00128219
0.00129687
0.00130607
0.00131384
0.00132041
0.00132565
0.00132939
0.00133148
0.00133141
0.00132887
0.00132405
0.00131716
0.00130859
0.0012986
0.00128777
0.00127612
0.00126429
0.00125197
0.00123981
0.00122724
0.00121494
0.00114459
0.00114793
0.00115131
0.0011549
0.00115881
0.00116314
0.00116795
0.00117328
0.00117917
0.0011856
0.0011926
0.00120014
0.0012082
0.00121678
0.00122582
0.00123528
0.00124513
0.00125531
0.00126584
0.00127703
0.00129225
0.00130726
0.00131718
0.00132586
0.00133348
0.00133995
0.0013451
0.00134875
0.00135058
0.0013498
0.00134667
0.00134129
0.00133387
0.00132472
0.00131422
0.00130267
0.00129044
0.00127766
0.00126461
0.00125123
0.00123772
0.00114514
0.001149
0.00115289
0.00115699
0.00116145
0.00116634
0.00117173
0.00117764
0.00118409
0.0011911
0.00119865
0.00120674
0.00121535
0.00122445
0.00123402
0.001244
0.00125435
0.00126502
0.00127601
0.00128759
0.00130288
0.00131799
0.00132844
0.00133781
0.00134627
0.00135373
0.00136004
0.00136503
0.00136856
0.00136957
0.00136824
0.00136453
0.00135859
0.00135065
0.00134103
0.00133003
0.001318
0.00130516
0.00129174
0.00127782
0.00126349
0.00114928
0.00115345
0.00115767
0.00116215
0.00116702
0.00117234
0.00117816
0.00118451
0.00119141
0.00119885
0.00120683
0.00121535
0.00122438
0.00123389
0.00124385
0.00125422
0.00126495
0.00127598
0.0012873
0.00129912
0.00131428
0.00132926
0.00134005
0.0013499
0.00135896
0.00136714
0.00137433
0.00138037
0.00138513
0.00138801
0.0013884
0.00138641
0.00138211
0.00137563
0.00136723
0.00135717
0.00134578
0.00133332
0.00132003
0.00130601
0.00129131
0.00115757
0.00116181
0.00116615
0.00117082
0.00117591
0.0011815
0.0011876
0.00119424
0.00120143
0.00120917
0.00121744
0.00122625
0.00123556
0.00124535
0.00125558
0.0012662
0.00127716
0.00128842
0.00129992
0.00131184
0.00132668
0.00134132
0.00135226
0.00136238
0.00137178
0.00138041
0.00138815
0.00139489
0.00140051
0.00140487
0.00140687
0.00140657
0.00140393
0.00139905
0.00139206
0.00138322
0.00137278
0.00136104
0.00134824
0.0013345
0.00131984
0.00117055
0.00117455
0.00117878
0.00118342
0.00118856
0.00119422
0.00120043
0.00120719
0.00121452
0.00122239
0.00123082
0.00123977
0.00124922
0.00125914
0.00126949
0.00128023
0.00129129
0.00130261
0.00131415
0.001326
0.00134034
0.00135447
0.00136536
0.00137552
0.00138502
0.0013938
0.00140177
0.00140884
0.0014149
0.00141985
0.00142344
0.00142465
0.0014236
0.00142031
0.00141484
0.00140737
0.00139811
0.00138732
0.00137524
0.00136204
0.0013477
0.00118867
0.00119216
0.00119603
0.00120043
0.0012054
0.00121094
0.00121707
0.00122378
0.00123107
0.00123893
0.00124734
0.00125629
0.00126573
0.00127564
0.00128597
0.00129667
0.00130767
0.0013189
0.00133031
0.00134195
0.00135562
0.00136905
0.0013797
0.00138968
0.00139902
0.00140766
0.00141552
0.00142253
0.00142861
0.00143365
0.00143754
0.00144011
0.00144052
0.00143872
0.00143476
0.00142873
0.00142077
0.00141108
0.00139984
0.00138717
0.00137285
0.00121233
0.00121507
0.00121836
0.0012223
0.00122689
0.00123213
0.00123799
0.00124447
0.00125156
0.00125924
0.00126748
0.00127627
0.00128555
0.0012953
0.00130545
0.00131596
0.00132673
0.00133771
0.00134882
0.00136007
0.00137291
0.00138547
0.00139568
0.00140524
0.00141417
0.00142239
0.00142984
0.00143643
0.00144211
0.00144677
0.00145032
0.00145265
0.00145359
0.00145295
0.00145023
0.00144539
0.00143847
0.00142948
0.00141839
0.00140459
0.00138749
0.00124181
0.00124367
0.00124623
0.00124953
0.00125356
0.0012583
0.00126372
0.00126981
0.00127654
0.00128387
0.00129179
0.00130026
0.00130923
0.00131865
0.00132847
0.00133861
0.001349
0.00135954
0.00137017
0.00138085
0.00139269
0.00140421
0.00141377
0.0014227
0.00143097
0.00143851
0.00144526
0.00145114
0.00145608
0.00146001
0.00146282
0.00146441
0.00146462
0.0014633
0.00146024
0.0014552
0.00144795
0.00143823
0.00142585
0.00141075
0.00139308
0.00127737
0.00127833
0.00128009
0.00128265
0.00128598
0.00129008
0.00129492
0.00130046
0.00130667
0.00131351
0.00132095
0.00132894
0.00133743
0.00134636
0.00135567
0.00136526
0.00137507
0.001385
0.00139495
0.00140487
0.00141556
0.00142586
0.00143458
0.00144265
0.00145005
0.0014567
0.00146253
0.00146747
0.00147146
0.00147443
0.00147628
0.00147692
0.00147623
0.00147406
0.0014702
0.00146444
0.00145655
0.00144638
0.00143387
0.00141909
0.0014023
0.00131931
0.00131945
0.00132046
0.00132226
0.00132485
0.00132823
0.00133237
0.00133724
0.0013428
0.00134901
0.00135581
0.00136316
0.001371
0.00137925
0.00138785
0.00139671
0.00140573
0.00141483
0.00142389
0.00143284
0.00144221
0.00145116
0.00145883
0.00146586
0.00147221
0.0014778
0.00148257
0.00148646
0.0014894
0.00149135
0.00149221
0.00149192
0.00149038
0.00148745
0.00148297
0.00147674
0.00146865
0.00145864
0.00144674
0.00143299
0.00141769
0.00136819
0.00136767
0.00136809
0.00136923
0.00137112
0.00137377
0.00137716
0.00138127
0.00138606
0.00139148
0.00139749
0.00140402
0.001411
0.00141837
0.00142605
0.00143393
0.00144194
0.00144996
0.0014579
0.00146567
0.00147356
0.00148101
0.00148746
0.0014933
0.00149847
0.00150291
0.00150656
0.00150938
0.00151131
0.0015123
0.00151231
0.00151126
0.00150908
0.00150567
0.00150089
0.00149464
0.00148687
0.00147758
0.00146674
0.00145438
0.00144091
0.00142523
0.00142422
0.00142427
0.00142493
0.00142622
0.00142818
0.00143081
0.00143409
0.001438
0.0014425
0.00144752
0.00145302
0.00145892
0.00146515
0.00147163
0.00147827
0.00148497
0.00149164
0.0014982
0.00150453
0.00151079
0.00151661
0.00152169
0.00152621
0.00153013
0.00153338
0.00153594
0.00153776
0.00153881
0.00153904
0.00153843
0.00153691
0.00153443
0.00153094
0.00152632
0.00152054
0.00151358
0.00150541
0.001496
0.00148537
0.00147413
0.00149275
0.00149142
0.00149132
0.00149167
0.00149249
0.00149382
0.00149568
0.00149807
0.00150096
0.00150434
0.00150814
0.00151233
0.00151683
0.00152159
0.00152652
0.00153154
0.00153659
0.00154157
0.00154641
0.00155104
0.00155548
0.00155955
0.00156312
0.00156623
0.00156886
0.00157096
0.00157252
0.0015735
0.00157388
0.00157363
0.00157272
0.00157113
0.00156881
0.00156572
0.00156182
0.00155706
0.00155144
0.0015449
0.00153745
0.00152907
0.00152071
0.00157498
0.00157342
0.00157333
0.00157347
0.00157389
0.00157461
0.00157564
0.00157699
0.00157865
0.00158061
0.00158283
0.00158528
0.00158792
0.0015907
0.00159357
0.00159648
0.00159937
0.0016022
0.00160492
0.00160749
0.00160989
0.00161206
0.00161395
0.00161557
0.0016169
0.00161792
0.00161861
0.00161897
0.00161897
0.0016186
0.00161786
0.00161671
0.00161514
0.00161312
0.00161063
0.00160765
0.00160415
0.00160012
0.00159553
0.00159039
0.00158606
0.00475894
0.00288347
0.00341883
0.00424659
0.0047238
0.00477612
0.0045441
0.0041751
0.00376312
0.00335693
0.00297833
0.0026352
0.00232917
0.00205983
0.00182688
0.00163073
0.00147209
0.00458236
0.00279613
0.00310869
0.00380494
0.00424368
0.00431437
0.00412712
0.00381113
0.00345104
0.00309198
0.0027552
0.00244926
0.00217674
0.0019379
0.00173251
0.00156071
0.0014227
0.00440472
0.00270858
0.00284336
0.00340429
0.00378789
0.00386122
0.00370727
0.00343599
0.00312258
0.00280826
0.00251317
0.00224587
0.00200914
0.0018033
0.00162802
0.00148305
0.00136808
0.00423511
0.00262049
0.00261101
0.00304269
0.00336133
0.00342596
0.00329591
0.00306283
0.00279225
0.00252103
0.00226747
0.00203943
0.00183935
0.00166732
0.00152266
0.00140465
0.00131273
0.004073
0.00253889
0.00241006
0.00272078
0.00297056
0.00301899
0.002906
0.00270615
0.00247526
0.00224539
0.00203246
0.00184311
0.00167912
0.00154008
0.00142491
0.00133246
0.00126182
0.0039198
0.00247336
0.00224199
0.00244201
0.0026243
0.0026528
0.00255181
0.00238072
0.002186
0.00199472
0.00182013
0.00166734
0.0015372
0.00142874
0.00134046
0.0012709
0.00121884
0.00377855
0.00243437
0.00211101
0.00221063
0.00233006
0.00233787
0.00224517
0.00209839
0.00193557
0.00177891
0.00163883
0.00151881
0.00141872
0.001337
0.00127181
0.00122142
0.0011846
0.00365267
0.0024303
0.00202011
0.00202815
0.00209114
0.00207952
0.00199261
0.00186594
0.00173023
0.00160321
0.00149261
0.0014003
0.00132526
0.00126548
0.00121883
0.00118353
0.0011584
0.00354432
0.00245882
0.00196722
0.00189101
0.00190483
0.00187653
0.00179407
0.00168388
0.00157054
0.00146785
0.00138112
0.00131087
0.00125543
0.00121248
0.00117982
0.00115574
0.0011391
0.00345303
0.00250826
0.00194229
0.00179039
0.0017632
0.00172196
0.00164354
0.00154699
0.00145183
0.00136846
0.00130021
0.00124662
0.00120563
0.00117487
0.00115222
0.00113607
0.00112545
0.00337518
0.00256918
0.00192931
0.00171422
0.00165608
0.00160599
0.00153166
0.00144661
0.00136616
0.00129785
0.0012435
0.00120203
0.00117127
0.00114896
0.00113319
0.00112248
0.00111604
0.00330474
0.00261715
0.00190963
0.00165153
0.00157458
0.00151937
0.0014491
0.0013738
0.00130525
0.00124864
0.00120465
0.00117188
0.00114824
0.00113167
0.00112052
0.0011135
0.00110983
0.00323569
0.00262273
0.00186856
0.00159645
0.00151302
0.0014553
0.0013888
0.00132172
0.00126276
0.00121518
0.00117889
0.00115237
0.00113363
0.00112089
0.00111276
0.00110814
0.00110627
0.00316438
0.00257032
0.0018097
0.00154976
0.00146803
0.00140896
0.00134587
0.00128564
0.00123428
0.00119356
0.0011629
0.00114074
0.00112527
0.00111497
0.00110867
0.00110546
0.00110476
0.00309014
0.00246689
0.0017438
0.00151455
0.00143697
0.00137671
0.00131669
0.00126207
0.00121655
0.00118087
0.00115415
0.0011349
0.0011215
0.00111261
0.00110732
0.00110488
0.00110471
0.00301449
0.0023404
0.00168416
0.00149289
0.00141745
0.00135601
0.00129862
0.00124828
0.001207
0.00117483
0.00115072
0.00113327
0.00112105
0.00111285
0.00110798
0.00110585
0.00110577
0.00293941
0.00220468
0.00164043
0.00148382
0.0014078
0.00134529
0.00128975
0.00124229
0.00120376
0.00117377
0.00115115
0.0011346
0.00112288
0.00111489
0.00111005
0.00110787
0.00110771
0.00286581
0.00207172
0.00161709
0.00148453
0.00140722
0.00134367
0.00128884
0.00124275
0.00120551
0.00117643
0.00115432
0.00113792
0.00112618
0.00111813
0.00111314
0.00111079
0.00111038
0.002793
0.00194692
0.00161092
0.00149278
0.00141517
0.00135022
0.00129475
0.00124846
0.00121107
0.0011817
0.00115922
0.00114245
0.00113034
0.00112206
0.00111685
0.00111427
0.00111367
0.0027189
0.00183676
0.00160987
0.00150674
0.0014303
0.00136347
0.00130608
0.0012581
0.00121922
0.00118855
0.00116502
0.00114751
0.00113492
0.00112631
0.00112086
0.00111793
0.00111701
0.00263951
0.00174272
0.00160535
0.00152477
0.00145075
0.00138163
0.00132099
0.00126985
0.00122827
0.00119551
0.00117055
0.00115218
0.00113917
0.00113039
0.00112487
0.00112176
0.00112018
0.00257356
0.00168211
0.00160872
0.0015471
0.0014746
0.00140188
0.00133646
0.00128095
0.00123596
0.00120089
0.0011746
0.00115563
0.00114251
0.00113388
0.0011286
0.00112569
0.00112432
0.00252351
0.0016433
0.00161898
0.00157181
0.00149878
0.00142078
0.00134933
0.00128883
0.00124041
0.00120343
0.00117637
0.00115738
0.00114465
0.00113654
0.00113173
0.0011291
0.00112808
0.00249044
0.00161789
0.00163503
0.0015969
0.00152
0.00143473
0.00135651
0.00129126
0.00124026
0.00120239
0.00117553
0.0011573
0.00114553
0.00113838
0.00113435
0.00113211
0.00113065
0.00247614
0.00160495
0.00165639
0.00162006
0.00153493
0.00144062
0.00135579
0.00128704
0.00123504
0.00119775
0.00117222
0.00115555
0.00114528
0.00113945
0.00113652
0.00113513
0.00113421
0.00248235
0.00160946
0.0016825
0.00163862
0.00154072
0.0014365
0.00134638
0.00127623
0.00122525
0.00119009
0.00116696
0.00115251
0.00114412
0.00113981
0.00113804
0.00113753
0.00113753
0.00251328
0.00163431
0.00171125
0.00164964
0.00153541
0.00142193
0.00132895
0.00125998
0.00121204
0.00118034
0.0011604
0.00114861
0.00114233
0.00113965
0.0011391
0.00113939
0.00113938
0.00257194
0.00167783
0.00173869
0.00165002
0.00151808
0.00139776
0.00130514
0.00123995
0.00119672
0.00116943
0.00115313
0.0011442
0.0011401
0.00113907
0.00113982
0.00114119
0.00114187
0.00266066
0.0017363
0.00175981
0.00163705
0.00148884
0.0013657
0.00127699
0.00121785
0.0011805
0.00115811
0.0011456
0.00113953
0.00113754
0.00113809
0.00114008
0.00114253
0.0011444
0.00278121
0.00180477
0.00176911
0.00160892
0.00144891
0.00132805
0.00124664
0.00119523
0.00116439
0.001147
0.00113821
0.00113483
0.00113481
0.00113684
0.00114001
0.00114341
0.00114572
0.00293469
0.00187689
0.00176118
0.00156525
0.00140066
0.00128753
0.00121618
0.0011735
0.00114929
0.00113669
0.0011313
0.00113034
0.0011321
0.00113547
0.00113975
0.00114421
0.00114745
0.00312153
0.00194394
0.00173153
0.00150787
0.00134773
0.00124726
0.00118777
0.00115404
0.0011361
0.00112778
0.00112532
0.00112641
0.00112964
0.00113416
0.00113938
0.00114479
0.00114933
0.00334158
0.00199362
0.00167821
0.00144133
0.00129497
0.00121062
0.00116353
0.00113823
0.00112574
0.00112091
0.00112074
0.00112339
0.00112775
0.00113313
0.00113909
0.00114521
0.00115042
0.00359414
0.00201035
0.00160396
0.00137291
0.00124785
0.00118097
0.00114549
0.0011273
0.00111902
0.00111668
0.00111801
0.00112163
0.00112667
0.0011326
0.00113905
0.00114576
0.00115182
0.00387797
0.00197958
0.00151768
0.00131143
0.00121157
0.00116117
0.00113525
0.00112221
0.00111658
0.00111555
0.0011175
0.0011214
0.00112661
0.00113269
0.00113935
0.0011464
0.00115338
0.00419086
0.00189683
0.00143333
0.00126521
0.00119014
0.00115308
0.00113366
0.00112345
0.00111875
0.00111774
0.00111932
0.00112278
0.00112761
0.00113344
0.00114002
0.00114712
0.00115444
0.00452876
0.00177565
0.00136603
0.00124021
0.0011856
0.00115723
0.00114082
0.00113096
0.00112544
0.00112316
0.00112341
0.00112569
0.0011296
0.00113481
0.00114103
0.00114801
0.00115559
0.00488521
0.00164596
0.00132751
0.0012391
0.00119778
0.00117293
0.00115609
0.00114425
0.00113625
0.00113149
0.00112952
0.00112996
0.00113246