/*--------------------------------*- C++ -*----------------------------------*\
  =========                 |
  \\      /  F ield         | OpenFOAM: The Open Source CFD Toolbox
   \\    /   O peration     | Website:  https://openfoam.org
    \\  /    A nd           | Version:  6
     \\/     M anipulation  |
\*---------------------------------------------------------------------------*/
FoamFile
{
    version     2.0;
    format      ascii;
    class       surfaceVectorField;
    location    "2.97";
    object      Uf;
}
// * * * * * * * * * * * * * * * * * * * * * * * * * * * * * * * * * * * * * //

dimensions      [0 1 -1 0 0 0 0];

internalField   nonuniform List<vector> 
8193
(
(5.03258 -0.0700819 -1.67024e-21)
(5.10415 -0.0802884 1.09847e-19)
(4.79661 -0.111362 -1.46525e-21)
(5.13735 -0.0344802 0)
(5.19218 -0.0401553 -4.01548e-21)
(5.17391 0.0054937 0)
(5.21336 -0.00323889 -3.22041e-20)
(5.19562 0.0446542 0)
(5.22537 0.0271834 3.22656e-20)
(5.21755 0.0815547 9.82977e-22)
(5.24365 0.058385 0)
(5.24011 0.117456 8.31622e-23)
(5.26506 0.0912749 -1.69529e-20)
(5.26285 0.153286 8.59364e-21)
(5.28713 0.124993 3.45068e-20)
(5.28628 0.189548 2.63785e-19)
(5.31001 0.159302 -6.78677e-21)
(5.31172 0.227654 -5.91216e-21)
(5.33554 0.195041 -7.59707e-21)
(5.34152 0.270778 8.23498e-20)
(5.36707 0.234582 1.52208e-21)
(5.3774 0.322649 -7.35647e-21)
(5.40708 0.281717 -1.24345e-21)
(5.4185 0.387058 -4.15916e-20)
(5.45579 0.340635 -3.58754e-21)
(5.45973 0.463875 3.70786e-21)
(5.50618 0.412934 -1.07679e-20)
(5.48687 0.545333 0)
(5.54377 0.492211 2.82367e-23)
(5.476 0.612374 -8.82299e-22)
(5.53932 0.566614 -3.99542e-22)
(5.38997 0.632679 -1.94347e-20)
(5.46025 0.611655 6.43174e-21)
(5.16097 0.550572 7.45027e-22)
(5.23669 0.558558 7.42905e-22)
(4.75707 0.33123 0)
(4.81515 0.366461 7.01955e-22)
(4.29283 0.00393362 -5.52983e-22)
(4.26304 0.0275652 6.28648e-21)
(4.05265 -0.274074 -5.36525e-21)
(3.87602 -0.3226 -3.54283e-20)
(4.14741 -0.42091 8.05119e-21)
(3.93359 -0.48701 1.07738e-22)
(4.34039 -0.533671 2.08284e-21)
(4.1827 -0.595139 -1.78603e-20)
(4.46887 -0.611381 2.59773e-22)
(4.36086 -0.683123 -2.69672e-21)
(4.56065 -0.63857 0)
(4.49357 -0.70823 -4.13569e-21)
(4.63699 -0.636092 0)
(4.59469 -0.698504 4.11766e-21)
(4.70386 -0.623117 -3.42664e-21)
(4.67033 -0.678308 -2.23861e-21)
(4.76825 -0.606144 7.3798e-20)
(4.735 -0.656534 -1.20062e-21)
(4.83309 -0.58479 8.2131e-21)
(4.80018 -0.633303 -7.24322e-21)
(4.89636 -0.557492 -1.66679e-19)
(4.86718 -0.606268 4.95403e-21)
(4.95449 -0.523194 2.31481e-21)
(4.9329 -0.572923 1.76098e-20)
(5.0044 -0.482282 -2.16182e-19)
(4.99281 -0.532413 -2.22355e-20)
(5.0445 -0.43625 -6.39281e-21)
(5.04346 -0.48594 9.62807e-21)
(5.07469 -0.386733 1.40298e-21)
(5.08362 -0.43553 -1.34874e-20)
(5.09572 -0.334893 1.4693e-21)
(5.11382 -0.382874 2.94853e-20)
(5.10835 -0.281457 1.54569e-23)
(5.13524 -0.328878 -4.76175e-20)
(5.11384 -0.225986 -1.48617e-21)
(5.14865 -0.273653 1.72851e-20)
(5.11356 -0.168373 -2.99188e-20)
(5.15648 -0.217706 3.07201e-20)
(5.10579 -0.106854 4.75658e-19)
(5.16151 -0.162114 -1.01196e-19)
(5.07831 -0.0403876 7.68534e-20)
(5.16562 -0.104797 6.37934e-20)
(4.98205 0.0217261 -1.19022e-18)
(5.1542 -0.0365139 3.70304e-20)
(5.07655 0.0395103 1.67149e-19)
(4.74462 0.0890003 5.20211e-19)
(5.21855 -0.0209267 -2.3681e-21)
(5.19295 -0.0419 9.80489e-20)
(5.14805 -0.0730775 1.47691e-21)
(5.23378 0.00133651 -3.63776e-20)
(5.221 -0.0160664 -8.16166e-20)
(5.24486 0.025558 -4.14776e-21)
(5.24119 0.0112465 -5.68784e-21)
(5.2626 0.0526616 3.21557e-20)
(5.25808 0.0335119 4.27327e-20)
(5.28308 0.0806409 2.44322e-21)
(5.27731 0.0582839 0)
(5.30426 0.109513 1.92145e-20)
(5.29874 0.0864588 1.74869e-20)
(5.32616 0.139612 1.68776e-19)
(5.32108 0.1164 1.66863e-20)
(5.35049 0.171377 -1.40898e-20)
(5.34517 0.147317 -3.65733e-20)
(5.38081 0.206661 -1.45302e-22)
(5.37449 0.180204 4.13101e-20)
(5.42082 0.248715 -2.29774e-21)
(5.41321 0.217689 -7.79658e-21)
(5.47129 0.301818 2.47561e-21)
(5.46326 0.263486 1.70725e-20)
(5.52618 0.368 -1.83846e-22)
(5.52102 0.321015 -3.08639e-22)
(5.57036 0.443412 -1.54187e-22)
(5.5732 0.389102 1.21737e-20)
(5.5759 0.515651 -3.70936e-22)
(5.59782 0.459145 1.62559e-20)
(5.50877 0.565773 2.85448e-21)
(5.56283 0.519765 9.03346e-21)
(5.30552 0.539757 4.6946e-22)
(5.40964 0.531745 4.68311e-22)
(4.9099 0.373357 7.00139e-22)
(5.06934 0.425649 3.52514e-21)
(4.36964 0.0601251 6.96465e-21)
(4.54492 0.161462 2.06758e-20)
(3.91262 -0.303398 3.4793e-20)
(3.98079 -0.21882 5.60444e-20)
(3.81453 -0.541297 -9.17669e-21)
(3.70647 -0.536149 -6.35231e-20)
(4.00751 -0.65336 -8.22089e-21)
(3.85602 -0.67372 -3.00221e-21)
(4.23155 -0.742499 -3.70445e-21)
(4.11584 -0.777908 -1.99069e-20)
(4.4057 -0.776408 -2.17608e-21)
(4.32761 -0.82829 -6.36555e-22)
(4.53767 -0.765792 1.43689e-20)
(4.48868 -0.822011 2.93707e-21)
(4.63179 -0.739324 1.87697e-21)
(4.60102 -0.792 -2.57105e-21)
(4.7028 -0.711253 -8.30754e-21)
(4.67849 -0.759243 1.41116e-21)
(4.7679 -0.686114 -8.24718e-21)
(4.74027 -0.730068 -1.50262e-20)
(4.83505 -0.660103 6.19279e-20)
(4.80388 -0.702023 2.08878e-20)
(4.90399 -0.629205 1.32661e-19)
(4.87212 -0.670847 -2.17824e-20)
(4.97055 -0.591216 -1.34151e-19)
(4.94178 -0.633328 5.08815e-20)
(5.03006 -0.54635 1.2389e-19)
(5.00725 -0.588505 -3.3434e-20)
(5.0796 -0.496477 1.06199e-20)
(5.06371 -0.537777 -1.1784e-20)
(5.11856 -0.443636 2.78081e-20)
(5.10922 -0.483504 -1.40376e-21)
(5.1478 -0.389333 -2.93072e-19)
(5.1441 -0.427639 2.92951e-20)
(5.16869 -0.33457 -3.36593e-20)
(5.16958 -0.371256 -2.99319e-20)
(5.18256 -0.279592 2.69198e-20)
(5.18685 -0.31476 -1.32394e-20)
(5.19137 -0.224613 -2.54172e-19)
(5.19803 -0.259093 4.59015e-20)
(5.19728 -0.169375 -3.25177e-20)
(5.20608 -0.206053 -8.57603e-20)
(5.20343 -0.114102 2.43941e-20)
(5.21188 -0.154201 9.11762e-20)
(5.20186 -0.0545768 9.08726e-20)
(5.20992 -0.0936689 -1.29456e-19)
(5.19732 -0.0268341 1.16039e-19)
(5.14393 0.0392038 2.7338e-18)
(5.22952 -0.0113535 5.71028e-20)
(5.22776 -0.0266031 2.16892e-19)
(5.21795 -0.0395158 7.81209e-19)
(5.24369 0.00321479 -3.757e-19)
(5.24261 -0.0150519 -1.37747e-19)
(5.26319 0.0221612 3.78074e-20)
(5.26927 0.0084362 6.63311e-20)
(5.28382 0.047139 -1.06994e-20)
(5.2915 0.0314821 1.72232e-21)
(5.30445 0.0742036 -3.4886e-21)
(5.31156 0.0558093 -1.57972e-20)
(5.32551 0.101664 -3.45567e-21)
(5.33242 0.0822606 -1.77035e-20)
(5.34829 0.129733 -2.04836e-20)
(5.3549 0.109981 0)
(5.37596 0.159371 -8.26113e-20)
(5.38105 0.138254 -3.20632e-20)
(5.41277 0.19272 1.71739e-20)
(5.41542 0.168013 4.6703e-20)
(5.46129 0.232733 -3.12778e-21)
(5.46183 0.201722 -3.75301e-20)
(5.51926 0.282442 5.1379e-21)
(5.52043 0.242615 1.45704e-20)
(5.57582 0.342761 -1.09053e-21)
(5.58358 0.293127 8.44107e-21)
(5.61024 0.406928 -5.44745e-20)
(5.63041 0.349753 -9.33962e-22)
(5.59174 0.461523 5.06059e-20)
(5.63402 0.406344 -7.25164e-21)
(5.46842 0.487798 4.95925e-22)
(5.55796 0.449035 4.94938e-22)
(5.17308 0.418842 3.51744e-21)
(5.31026 0.426344 1.25387e-21)
(4.69334 0.212604 2.03235e-20)
(4.85544 0.27597 -4.98396e-21)
(4.13229 -0.118237 -4.21531e-21)
(4.2489 -0.0246075 1.16628e-20)
(3.74418 -0.461364 2.39483e-20)
(3.70541 -0.405888 -4.43683e-21)
(3.72712 -0.672609 -9.92687e-21)
(3.55125 -0.684601 2.48561e-20)
(3.9532 -0.790964 6.62699e-21)
(3.77051 -0.825657 -2.97049e-21)
(4.20257 -0.861396 5.2995e-21)
(4.05791 -0.919481 1.3858e-20)
(4.40363 -0.871523 7.85657e-21)
(4.30751 -0.942463 -7.49898e-21)
(4.54767 -0.846771 -5.93968e-21)
(4.49216 -0.918335 1.46552e-20)
(4.64382 -0.810764 -3.02237e-21)
(4.61408 -0.877586 -6.59655e-21)
(4.71318 -0.777118 -7.79096e-21)
(4.6914 -0.837481 3.60253e-21)
(4.77529 -0.746415 1.03464e-20)
(4.75063 -0.802319 -1.95383e-20)
(4.84113 -0.715785 -2.90391e-20)
(4.81186 -0.768949 3.11112e-20)
(4.91145 -0.680138 5.37592e-21)
(4.88097 -0.732209 -2.06685e-20)
(4.9814 -0.637249 -8.14671e-20)
(4.9543 -0.688874 6.3036e-20)
(5.04517 -0.587563 -1.46055e-19)
(5.02513 -0.638348 -1.45142e-20)
(5.0989 -0.533153 -2.12511e-20)
(5.08731 -0.582135 2.43855e-20)
(5.1415 -0.476278 0)
(5.13801 -0.52275 -3.44364e-20)
(5.17374 -0.418665 0)
(5.17725 -0.462305 0)
(5.1971 -0.361313 4.94608e-21)
(5.2064 -0.40207 0)
(5.21305 -0.304358 2.02555e-20)
(5.22719 -0.34274 2.54118e-20)
(5.22305 -0.247892 2.09194e-20)
(5.24168 -0.285162 5.74212e-21)
(5.22879 -0.19303 6.15368e-20)
(5.25173 -0.230278 2.66323e-20)
(5.2326 -0.141379 -2.96531e-19)
(5.25708 -0.176712 5.62127e-20)
(5.23747 -0.0897889 -3.01192e-20)
(5.25591 -0.119481 -1.78984e-19)
(5.25917 -0.0665658 1.18544e-19)
(5.24171 -0.0244271 9.38801e-20)
(5.25254 -0.00830835 9.32434e-19)
(5.25103 -0.019993 -8.41059e-20)
(5.23626 -0.021306 1.31036e-19)
(5.27569 0.00629146 -8.08172e-20)
(5.27029 -0.0113506 -8.0574e-20)
(5.29951 0.0247266 2.39736e-20)
(5.30039 0.011878 2.92624e-20)
(5.3212 0.0477408 -9.36984e-21)
(5.32502 0.0360129 1.02513e-19)
(5.34167 0.0726867 -2.99766e-20)
(5.34515 0.0597576 -7.98253e-20)
(5.36271 0.0976986 -1.41333e-20)
(5.3651 0.0839571 -6.33651e-20)
(5.38701 0.122644 -4.12573e-21)
(5.38766 0.10835 9.81732e-20)
(5.41889 0.148741 1.97885e-20)
(5.41644 0.13224 -5.71788e-20)
(5.46236 0.177813 -1.61347e-20)
(5.45596 0.156379 -6.27179e-21)
(5.51843 0.211865 -1.42516e-20)
(5.50869 0.18263 -1.02868e-20)
(5.58199 0.25337 9.35113e-21)
(5.5731 0.213955 2.25507e-20)
(5.63619 0.302445 1.56968e-22)
(5.6367 0.252715 -4.56596e-21)
(5.65207 0.351338 -3.77926e-22)
(5.6707 0.294537 -6.54615e-21)
(5.59789 0.392671 -2.20454e-22)
(5.65138 0.337228 4.00475e-21)
(5.39925 0.391267 1.25169e-21)
(5.51572 0.359833 -4.32996e-21)
(4.99218 0.283412 -7.20859e-21)
(5.15878 0.30253 2.46099e-21)
(4.41303 0.0356829 -2.81164e-20)
(4.58926 0.11018 -1.55199e-20)
(3.82763 -0.315268 4.20266e-21)
(3.92444 -0.22105 1.09157e-20)
(3.51874 -0.642084 -1.53849e-20)
(3.43706 -0.592752 -6.68964e-21)
(3.60006 -0.835841 2.2638e-20)
(3.40664 -0.84336 1.84609e-20)
(3.87883 -0.95002 7.12059e-21)
(3.68469 -0.987501 4.65157e-21)
(4.16565 -0.997139 -1.20127e-21)
(4.01323 -1.06207 -6.38346e-22)
(4.39773 -0.986701 7.99721e-21)
(4.2995 -1.06393 -8.26742e-21)
(4.55749 -0.948002 7.92361e-21)
(4.50447 -1.02728 7.87902e-21)
(4.65843 -0.902953 0)
(4.63388 -0.978605 7.50295e-22)
(4.72692 -0.861884 -2.42693e-21)
(4.71081 -0.931358 -5.62016e-22)
(4.78659 -0.824506 -2.441e-21)
(4.76741 -0.888854 -1.56241e-21)
(4.85164 -0.787047 -1.10511e-21)
(4.82619 -0.848318 -3.57429e-20)
(4.92425 -0.74479 3.69195e-20)
(4.89545 -0.804342 3.9028e-20)
(4.99891 -0.695432 -6.18027e-20)
(4.97184 -0.753948 -1.70181e-20)
(5.06852 -0.639504 2.99657e-20)
(5.04762 -0.69682 1.64013e-20)
(5.12803 -0.579157 -9.8236e-20)
(5.11535 -0.634378 3.35736e-20)
(5.17567 -0.516801 -3.45752e-20)
(5.17116 -0.569103 -3.42328e-20)
(5.21213 -0.454333 0)
(5.21457 -0.50315 -9.59344e-20)
(5.2391 -0.392881 2.02233e-20)
(5.24698 -0.43797 -2.50332e-21)
(5.25838 -0.332894 2.55578e-20)
(5.27047 -0.374552 9.25982e-20)
(5.27151 -0.274666 2.60067e-20)
(5.28719 -0.313829 -1.10342e-19)
(5.27968 -0.218864 2.12513e-20)
(5.2987 -0.256303 1.21797e-19)
(5.28395 -0.16596 -1.33664e-19)
(5.30473 -0.200372 -3.8499e-20)
(5.28635 -0.114946 7.43648e-19)
(5.30413 -0.142866 1.08641e-21)
(5.3074 -0.0939746 1.15575e-19)
(5.2916 -0.0643532 9.87407e-20)
(5.28011 -0.00550432 -1.96909e-19)
(5.28021 -0.012814 -1.61185e-19)
(5.25657 -0.0185088 -5.27225e-19)
(5.30673 0.0118407 8.92921e-21)
(5.30475 -0.00180011 1.75992e-19)
(5.33131 0.0311784 1.00584e-19)
(5.33479 0.0220866 -2.14575e-19)
(5.35237 0.0531912 1.50611e-19)
(5.35922 0.0472275 9.75368e-20)
(5.37174 0.0761643 -1.05942e-19)
(5.37824 0.0703577 -6.01266e-20)
(5.3924 0.098297 -8.22846e-21)
(5.39664 0.0916918 -4.55691e-20)
(5.41826 0.119317 5.56415e-20)
(5.41895 0.111399 3.83727e-20)
(5.45391 0.139843 -8.25242e-20)
(5.44955 0.128965 1.07924e-20)
(5.50251 0.16109 3.01961e-21)
(5.49246 0.144591 -1.85636e-20)
(5.56347 0.18438 4.51712e-20)
(5.54848 0.159234 2.11109e-20)
(5.62855 0.213063 6.58191e-23)
(5.61548 0.175868 1.57762e-20)
(5.67357 0.247354 -4.6649e-21)
(5.67452 0.198602 -3.09909e-21)
(5.66968 0.278896 4.38126e-21)
(5.69089 0.225534 -1.68188e-21)
(5.56921 0.306298 -5.58823e-20)
(5.64596 0.25406 -1.7198e-21)
(5.2762 0.273685 1.37722e-21)
(5.4274 0.253153 -4.27661e-21)
(4.75625 0.127668 2.17038e-20)
(4.95269 0.161374 1.84056e-20)
(4.10056 -0.150689 -7.08426e-21)
(4.27948 -0.0646295 -2.02213e-20)
(3.53212 -0.504035 0)
(3.58806 -0.409896 5.48203e-22)
(3.32217 -0.805541 -9.17873e-21)
(3.18493 -0.758931 -6.58339e-21)
(3.48994 -0.990034 -4.50798e-21)
(3.26667 -0.993742 2.11915e-21)
(3.81818 -1.0966 -6.21894e-21)
(3.60117 -1.13701 4.601e-21)
(4.14582 -1.12498 -8.60002e-21)
(3.97945 -1.19313 -8.55722e-21)
(4.40388 -1.10253 0)
(4.29848 -1.18436 6.99932e-21)
(4.57621 -1.05622 7.461e-22)
(4.5219 -1.14392 -2.44953e-21)
(4.68145 -1.00583 7.06172e-21)
(4.65826 -1.09181 -5.65496e-21)
(4.74885 -0.957659 -1.50286e-21)
(4.73705 -1.03844 -5.5748e-22)
(4.80589 -0.91236 -3.64324e-20)
(4.79213 -0.987931 4.16434e-21)
(4.86946 -0.866657 1.88334e-20)
(4.84869 -0.9388 -3.54901e-20)
(4.94314 -0.816581 -1.35195e-20)
(4.91742 -0.886444 -1.47668e-20)
(5.02132 -0.759995 5.38172e-20)
(4.99599 -0.828387 -5.45704e-22)
(5.09583 -0.697372 2.3111e-20)
(5.07609 -0.764441 6.56075e-20)
(5.16047 -0.630727 -1.01962e-20)
(5.14916 -0.695755 -7.09248e-20)
(5.21262 -0.562388 -9.49212e-20)
(5.21018 -0.624545 5.89655e-20)
(5.2526 -0.494242 1.19846e-19)
(5.25799 -0.552839 2.63625e-20)
(5.28213 -0.42751 2.91332e-19)
(5.29379 -0.482122 -1.20234e-19)
(5.3032 -0.362937 -4.36194e-20)
(5.31973 -0.413508 7.12372e-20)
(5.31757 -0.301141 1.32858e-19)
(5.33799 -0.34801 -3.0068e-19)
(5.32671 -0.242618 6.08813e-20)
(5.3502 -0.286164 6.32896e-20)
(5.33163 -0.187265 3.6022e-19)
(5.35668 -0.22658 1.9781e-20)
(5.333 -0.134798 1.3595e-19)
(5.35646 -0.16646 8.61506e-20)
(5.35636 -0.116248 2.3577e-19)
(5.33482 -0.0870797 2.83536e-19)
(5.31571 0.00787837 2.17862e-19)
(5.32123 0.00440238 1.32034e-20)
(5.28747 -0.0104985 -3.16978e-19)
(5.34354 0.026957 9.12158e-19)
(5.34489 0.0187602 1.6791e-19)
(5.3672 0.0467805 -2.11666e-19)
(5.37214 0.0436804 -1.52826e-19)
(5.38632 0.0676354 4.33365e-21)
(5.394 0.0691305 9.42473e-21)
(5.40362 0.0878939 0)
(5.41009 0.0904149 1.00174e-19)
(5.42319 0.10608 -6.41248e-20)
(5.42591 0.107223 -1.03472e-19)
(5.44924 0.121332 7.29726e-21)
(5.44653 0.120556 -1.06688e-19)
(5.48612 0.133492 7.38318e-20)
(5.47669 0.12975 8.11199e-20)
(5.536 0.142777 1.09409e-20)
(5.51935 0.133934 2.71909e-20)
(5.59786 0.150533 3.42943e-21)
(5.5749 0.133085 0)
(5.65975 0.161541 -8.16528e-21)
(5.6409 0.130581 1.74186e-21)
(5.69144 0.179521 2.08103e-20)
(5.69342 0.134184 -6.26396e-22)
(5.66522 0.198047 -7.70886e-21)
(5.69291 0.147531 -5.44863e-21)
(5.50471 0.205541 -5.82702e-21)
(5.60842 0.160651 -2.14597e-20)
(5.10395 0.141858 1.27823e-20)
(5.28786 0.133558 1.63437e-20)
(4.47539 -0.0345786 4.08773e-20)
(4.69642 0.0128566 -8.17403e-21)
(3.76617 -0.32948 -1.24813e-20)
(3.93886 -0.233856 -2.47956e-20)
(3.23968 -0.673343 3.80301e-20)
(3.25221 -0.577379 4.71786e-20)
(3.1295 -0.953502 -2.91777e-21)
(2.94795 -0.902424 -4.44532e-20)
(3.37861 -1.13536 1.11415e-20)
(3.12667 -1.13242 1.10947e-20)
(3.76184 -1.23088 0)
(3.52326 -1.26855 0)
(4.13028 -1.24912 6.9657e-21)
(3.95108 -1.31486 0)
(4.41261 -1.2237 -4.19627e-21)
(4.2983 -1.3077 7.32302e-21)
(4.59887 -1.17755 -2.27261e-20)
(4.53882 -1.27179 -2.80824e-21)
(4.71024 -1.12336 -8.21286e-21)
(4.68624 -1.22028 -8.15741e-21)
(4.77843 -1.06812 3.4957e-21)
(4.77047 -1.16206 4.26787e-21)
(4.83384 -1.01407 3.52144e-21)
(4.82608 -1.10327 -2.28289e-20)
(4.89591 -0.95933 -5.32379e-20)
(4.88094 -1.04468 4.26308e-20)
(4.97002 -0.900958 4.3078e-20)
(4.94845 -0.983336 -7.22604e-20)
(5.05105 -0.837112 8.49499e-20)
(5.02808 -0.91755 5.20014e-20)
(5.13018 -0.76808 -2.73327e-20)
(5.11163 -0.84715 -5.80737e-21)
(5.20011 -0.695522 8.80781e-20)
(5.18971 -0.77284 1.64873e-20)
(5.25727 -0.621467 1.79682e-19)
(5.2562 -0.69636 2.64685e-20)
(5.30139 -0.547643 -1.93367e-19)
(5.30899 -0.619429 1.21058e-19)
(5.33401 -0.475282 -1.18453e-19)
(5.34884 -0.543431 -1.17079e-19)
(5.35714 -0.405276 -1.82135e-19)
(5.37774 -0.469487 0)
(5.37264 -0.33832 -8.1425e-20)
(5.39791 -0.398677 -1.14424e-19)
(5.3821 -0.274821 1.40541e-19)
(5.41117 -0.331673 4.80789e-20)
(5.38661 -0.214981 1.61322e-20)
(5.41807 -0.267113 6.19742e-20)
(5.3864 -0.159599 1.85498e-19)
(5.4172 -0.201729 2.06263e-20)
(5.41501 -0.146649 2.94911e-19)
(5.38385 -0.108953 7.21574e-19)
(5.3603 0.0326794 -2.71668e-20)
(5.37076 0.0359213 1.64508e-20)
(5.33337 0.010174 -2.50493e-20)
(5.38452 0.0540711 6.41774e-20)
(5.38978 0.0534337 4.8341e-19)
(5.4036 0.0741262 6.79562e-20)
(5.41107 0.0786688 -2.82503e-19)
(5.41829 0.0927419 1.04929e-19)
(5.42753 0.102564 4.57461e-20)
(5.4319 0.109121 -4.80927e-20)
(5.43905 0.12001 9.93687e-20)
(5.4484 0.121749 -1.54899e-19)
(5.45058 0.130742 -1.60264e-19)
(5.47196 0.129136 -3.35233e-20)
(5.46722 0.136314 -5.19155e-20)
(5.50639 0.130181 7.78885e-20)
(5.49352 0.135467 9.73809e-20)
(5.55361 0.124608 4.51128e-20)
(5.53201 0.126078 3.37147e-20)
(5.61311 0.113105 -1.64634e-21)
(5.58283 0.107639 -5.31067e-20)
(5.67151 0.103287 2.28383e-21)
(5.6458 0.0839228 3.57391e-20)
(5.6934 0.103884 8.76342e-21)
(5.69277 0.0661638 -1.89638e-20)
(5.63547 0.110775 -5.89359e-20)
(5.67451 0.0636069 2.43635e-20)
(5.39299 0.0929306 4.24851e-20)
(5.52708 0.0582287 4.06576e-21)
(4.88024 0.00335505 -4.62015e-21)
(5.09843 0.00744476 -1.15025e-20)
(4.15852 -0.192307 -9.28989e-20)
(4.40035 -0.131542 1.0529e-20)
(3.42294 -0.488959 -2.85149e-20)
(3.58305 -0.384016 -5.58397e-20)
(2.95838 -0.815719 4.48724e-20)
(2.92665 -0.713556 9.45469e-20)
(2.9446 -1.08169 -4.60868e-20)
(2.72183 -1.01976 -1.02847e-19)
(3.27114 -1.26176 0)
(2.98631 -1.24862 0)
(3.71086 -1.34949 0)
(3.44922 -1.37856 0)
(4.11586 -1.37066 3.35886e-21)
(3.91836 -1.42918 -7.65155e-21)
(4.42065 -1.35342 3.7777e-21)
(4.29031 -1.43601 1.33457e-20)
(4.62257 -1.31275 4.16894e-22)
(4.55087 -1.41292 4.14194e-22)
(4.74392 -1.25791 4.23919e-21)
(4.71523 -1.36685 1.57298e-21)
(4.81651 -1.19663 -2.18638e-20)
(4.81045 -1.30611 -2.03278e-21)
(4.87204 -1.13359 1.49033e-20)
(4.87017 -1.23941 -4.47921e-20)
(4.93262 -1.06939 2.39284e-20)
(4.92455 -1.17083 4.53149e-20)
(5.00614 -1.00257 -1.89906e-20)
(4.9903 -1.09997 3.10118e-21)
(5.08882 -0.931765 -3.29778e-20)
(5.06965 -1.02631 -5.19671e-20)
(5.1718 -0.857012 4.27068e-20)
(5.15542 -0.949744 1.01946e-20)
(5.24692 -0.779418 -4.38487e-20)
(5.23795 -0.870443 -1.68761e-20)
(5.30953 -0.700514 -3.23475e-20)
(5.31009 -0.789503 1.11827e-19)
(5.35854 -0.621746 0)
(5.36864 -0.708178 -3.73131e-19)
(5.39508 -0.544294 0)
(5.41355 -0.627629 2.82408e-19)
(5.42107 -0.469069 6.45615e-20)
(5.44649 -0.548944 -2.75925e-19)
(5.43843 -0.396686 1.43833e-19)
(5.46971 -0.473338 2.37129e-19)
(5.4488 -0.327425 7.95278e-20)
(5.48534 -0.40159 -3.27592e-21)
(5.45326 -0.261779 6.66421e-20)
(5.49369 -0.332003 0)
(5.45212 -0.201082 1.27888e-19)
(5.49242 -0.260482 1.09323e-21)
(5.48927 -0.198757 2.79549e-19)
(5.44734 -0.144797 5.57448e-20)
(5.40975 0.0743645 -3.42659e-19)
(5.42468 0.0851371 -2.78871e-19)
(5.38945 0.0498123 9.32815e-19)
(5.42662 0.095697 1.00065e-18)
(5.43551 0.103136 8.9139e-19)
(5.4388 0.1139 -3.03394e-19)
(5.44862 0.126645 -3.45667e-19)
(5.44749 0.128799 4.102e-20)
(5.45767 0.146884 -3.60155e-20)
(5.45559 0.139793 -5.7838e-20)
(5.46274 0.158863 0)
(5.46664 0.145484 -5.70506e-20)
(5.46813 0.162591 -4.79498e-20)
(5.48449 0.143371 7.9383e-20)
(5.4778 0.159556 1.51265e-19)
(5.51276 0.13178 5.18867e-20)
(5.4967 0.147717 -5.33296e-20)
(5.5542 0.10985 -7.52662e-20)
(5.52731 0.123831 -9.69017e-20)
(5.6105 0.078191 -1.88035e-20)
(5.57051 0.0873166 -1.43928e-21)
(5.66502 0.0461056 2.3408e-20)
(5.62814 0.0421356 1.77241e-20)
(5.67403 0.0269198 1.30958e-20)
(5.66899 0.00126535 -1.61378e-20)
(5.56879 0.0152196 4.24591e-20)
(5.62444 -0.02309 5.06211e-20)
(5.23399 -0.0261137 1.7403e-20)
(5.39919 -0.0486742 -9.56392e-21)
(4.6174 -0.130856 3.70883e-21)
(4.86897 -0.113812 -2.72513e-20)
(3.82227 -0.331193 -1.33642e-20)
(4.0802 -0.2575 3.86199e-20)
(3.08418 -0.616695 6.28519e-21)
(3.22747 -0.501821 5.90725e-20)
(2.68899 -0.924264 1.23609e-20)
(2.61606 -0.81083 2.31114e-20)
(2.76397 -1.18418 -5.64544e-20)
(2.5008 -1.10485 -9.97062e-20)
(3.16428 -1.36331 0)
(2.84547 -1.33396 4.27729e-20)
(3.65589 -1.45512 -7.61636e-21)
(3.36991 -1.46757 0)
(4.09111 -1.49218 5.82029e-21)
(3.87065 -1.53815 -6.79702e-22)
(4.41843 -1.49341 9.96412e-21)
(4.26563 -1.57095 9.62307e-21)
(4.64144 -1.46532 1.56297e-21)
(4.5515 -1.56949 0)
(4.78001 -1.41393 -2.7739e-21)
(4.74125 -1.53486 -9.97803e-22)
(4.86278 -1.34826 -2.29014e-20)
(4.85557 -1.47492 -4.33905e-21)
(4.92156 -1.27638 -1.35059e-20)
(4.92498 -1.40131 5.18514e-20)
(4.98131 -1.20224 2.43902e-20)
(4.98131 -1.32222 -6.76512e-20)
(5.05335 -1.12651 -3.20808e-20)
(5.04522 -1.24079 1.91975e-20)
(5.1363 -1.0486 -9.31825e-21)
(5.12286 -1.1583 -1.13983e-19)
(5.22208 -0.968384 -1.34062e-19)
(5.20918 -1.07493 2.20074e-19)
(5.30209 -0.886328 5.3085e-20)
(5.29508 -0.99043 -9.28443e-20)
(5.37062 -0.803343 -4.07706e-19)
(5.37265 -0.905172 1.4783e-19)
(5.42553 -0.72051 9.49187e-20)
(5.43746 -0.819852 -3.71037e-19)
(5.46724 -0.638866 1.18495e-20)
(5.48841 -0.73533 -1.76335e-19)
(5.49744 -0.559273 6.19295e-20)
(5.5266 -0.652624 4.5515e-20)
(5.5181 -0.482293 9.45032e-20)
(5.55422 -0.57318 5.63029e-20)
(5.53091 -0.408191 -8.03904e-20)
(5.57371 -0.497822 -1.92978e-19)
(5.53687 -0.33758 -6.72508e-20)
(5.58497 -0.424326 0)
(5.53634 -0.271188 1.82015e-19)
(5.58537 -0.347821 -6.76922e-20)
(5.58319 -0.280665 1.70674e-19)
(5.532 -0.208247 1.36622e-18)
(5.45906 0.130749 -7.11615e-19)
(5.47687 0.148627 -3.19889e-19)
(5.44848 0.10776 -8.13523e-19)
(5.46638 0.149887 4.05241e-19)
(5.47833 0.164877 3.35894e-20)
(5.47 0.164482 -7.55434e-20)
(5.48179 0.185052 3.84784e-19)
(5.47105 0.174619 -7.45375e-20)
(5.4823 0.200351 2.16985e-20)
(5.47149 0.179651 -5.2212e-20)
(5.47936 0.206342 0)
(5.47431 0.177402 9.95323e-20)
(5.47607 0.203112 2.11709e-20)
(5.48332 0.165249 8.62777e-20)
(5.47615 0.191425 3.27507e-19)
(5.50265 0.140892 -8.33802e-20)
(5.48467 0.168464 -2.16015e-19)
(5.53637 0.10147 -3.73957e-22)
(5.50301 0.130431 -1.03706e-19)
(5.58562 0.0503803 -6.131e-21)
(5.53675 0.0758183 -6.00324e-21)
(5.63281 -0.00377514 1.21028e-21)
(5.58638 0.00927179 -1.53694e-21)
(5.62155 -0.0474444 3.49736e-20)
(5.61501 -0.0553753 2.03696e-20)
(5.45731 -0.0813305 -9.90785e-20)
(5.53579 -0.104593 -7.48199e-21)
(5.03318 -0.138124 -3.55823e-20)
(5.23238 -0.147421 -3.55212e-20)
(4.32943 -0.246273 1.30515e-20)
(4.61401 -0.216083 -4.70734e-20)
(3.48272 -0.437584 1.1431e-19)
(3.75321 -0.351764 6.69728e-20)
(2.75851 -0.703161 1.22087e-19)
(2.88439 -0.577087 3.91727e-20)
(2.42957 -0.994342 -7.05635e-20)
(2.3202 -0.862858 7.63454e-21)
(2.58412 -1.25321 -3.29259e-21)
(2.28128 -1.1496 -2.82758e-20)
(3.05144 -1.43709 4.24543e-20)
(2.69977 -1.38351 3.14032e-20)
(3.58441 -1.5482 6.85742e-21)
(3.27229 -1.53579 3.97536e-21)
(4.04431 -1.61499 5.65204e-21)
(3.79549 -1.6412 1.2525e-21)
(4.39736 -1.64516 -1.20484e-21)
(4.2141 -1.71159 -5.42095e-21)
(4.64974 -1.63738 -1.60529e-21)
(4.53267 -1.74087 -1.26144e-20)
(4.81528 -1.59467 -1.6138e-21)
(4.75863 -1.72496 -3.09128e-20)
(4.91644 -1.52723 6.71806e-20)
(4.90306 -1.67069 4.00973e-20)
(4.98355 -1.44688 -1.83954e-21)
(4.99059 -1.59204 1.03048e-19)
(5.04427 -1.36183 -7.05564e-20)
(5.05337 -1.50183 -6.9884e-20)
(5.11427 -1.27568 -6.74972e-20)
(5.11648 -1.40791 0)
(5.19581 -1.18924 1.80159e-19)
(5.19115 -1.31422 -1.54111e-19)
(5.28272 -1.10248 1.72441e-19)
(5.27591 -1.22174 3.25832e-19)
(5.36662 -1.0153 0)
(5.36325 -1.13013 -2.17891e-19)
(5.44091 -0.928012 0)
(5.44509 -1.03915 1.47567e-19)
(5.50223 -0.841261 -4.45061e-19)
(5.51584 -0.948957 0)
(5.55009 -0.755847 5.66759e-20)
(5.57317 -0.860056 -3.16315e-19)
(5.58565 -0.672586 2.0357e-19)
(5.61728 -0.773247 4.57508e-19)
(5.61094 -0.592133 -2.27811e-19)
(5.65001 -0.690271 5.55671e-21)
(5.62772 -0.514811 -1.14389e-19)
(5.67407 -0.611964 -1.31195e-19)
(5.63709 -0.441195 0)
(5.6891 -0.535662 0)
(5.63993 -0.371165 -8.03901e-20)
(5.69285 -0.456388 0)
(5.69514 -0.386152 1.01932e-20)
(5.63902 -0.302437 -3.18652e-19)
(5.50382 0.197537 -3.72643e-19)
(5.52326 0.220358 0)
(5.50373 0.178169 4.2529e-19)
(5.50092 0.21325 -5.96185e-19)
(5.51566 0.234264 6.12073e-20)
(5.49523 0.22381 4.76606e-19)
(5.5091 0.250628 2.60757e-19)
(5.48762 0.229087 9.51079e-20)
(5.50032 0.260863 6.9756e-20)
(5.47886 0.228125 7.27444e-20)
(5.48786 0.261813 -3.23442e-20)
(5.47121 0.218398 1.25845e-19)
(5.47375 0.252946 -2.52404e-19)
(5.46848 0.196698 7.75837e-20)
(5.46152 0.233894 5.33607e-20)
(5.47569 0.159416 -8.15462e-20)
(5.45605 0.201182 -4.104e-20)
(5.49814 0.103667 -9.35641e-20)
(5.45909 0.150832 8.24172e-20)
(5.53676 0.0335153 -9.04119e-21)
(5.48105 0.0798514 3.16243e-21)
(5.56931 -0.0425675 1.53735e-20)
(5.51862 -0.00695084 2.63637e-20)
(5.53011 -0.111082 -4.09322e-20)
(5.52838 -0.0953486 3.4644e-20)
(5.31093 -0.165961 -4.14146e-20)
(5.41148 -0.167918 -1.24551e-19)
(4.81017 -0.22833 -4.70033e-20)
(5.04014 -0.223058 3.28037e-20)
(4.03429 -0.329648 -6.28091e-20)
(4.34777 -0.287336 8.29241e-21)
(3.15316 -0.500943 7.35005e-20)
(3.43489 -0.404513 -2.16742e-20)
(2.44878 -0.742274 -2.6827e-20)
(2.56177 -0.601842 -6.02305e-20)
(2.17618 -1.01841 3.98946e-20)
(2.03954 -0.863061 3.32397e-20)
(2.39892 -1.2825 -9.29751e-21)
(2.05824 -1.14627 -5.34767e-20)
(2.92152 -1.48237 -9.58532e-21)
(2.53928 -1.39395 1.13919e-20)
(3.48337 -1.62758 -3.72504e-21)
(3.14237 -1.58079 8.38364e-21)
(3.96446 -1.73633 -1.4144e-20)
(3.68058 -1.73347 -8.49698e-21)
(4.34803 -1.80558 -1.78365e-20)
(4.12479 -1.8515 -3.39984e-21)
(4.63984 -1.82679 -4.53056e-20)
(4.48453 -1.92064 -1.13592e-20)
(4.84461 -1.79971 5.19253e-21)
(4.75918 -1.93221 -9.2907e-20)
(4.97555 -1.73462 7.56651e-20)
(4.94785 -1.89073 1.23906e-19)
(5.05899 -1.64678 3.59043e-20)
(5.06583 -1.81071 4.36469e-20)
(5.12454 -1.54934 0)
(5.14295 -1.70942 0)
(5.1929 -1.44998 -8.54991e-20)
(5.2084 -1.60051 0)
(5.27136 -1.35175 6.68853e-20)
(5.27972 -1.49178 1.02641e-20)
(5.35704 -1.2553 -1.56937e-19)
(5.36056 -1.38588 6.73466e-20)
(5.44276 -1.16037 2.89909e-20)
(5.44643 -1.28309 -1.18077e-19)
(5.52147 -1.06672 1.48526e-19)
(5.53002 -1.18291 5.19218e-19)
(5.58866 -0.974529 1.24608e-19)
(5.60502 -1.08514 -3.58809e-19)
(5.64263 -0.884336 2.6985e-19)
(5.66779 -0.989789 3.14524e-19)
(5.68381 -0.797007 2.60663e-19)
(5.7172 -0.897261 -3.28151e-19)
(5.71392 -0.713165 9.7211e-20)
(5.75462 -0.809432 1.15765e-19)
(5.73505 -0.633351 -2.05665e-20)
(5.78251 -0.727307 4.17586e-19)
(5.7485 -0.557765 0)
(5.80089 -0.647784 -2.65797e-19)
(5.75617 -0.485451 8.13491e-20)
(5.80834 -0.566951 2.56189e-19)
(5.8163 -0.495237 2.02356e-19)
(5.76131 -0.413311 9.38398e-20)
(5.54144 0.268978 4.29437e-19)
(5.56267 0.293509 -5.64362e-19)
(5.55103 0.253047 7.68455e-19)
(5.52901 0.281429 7.28755e-19)
(5.54673 0.305981 4.23873e-19)
(5.51438 0.289057 -1.04435e-19)
(5.53115 0.319523 -3.82865e-19)
(5.49752 0.290662 -1.18158e-19)
(5.5123 0.326499 -1.41417e-19)
(5.47831 0.285093 -3.30353e-19)
(5.48894 0.324569 -3.18798e-20)
(5.45799 0.269649 -2.43838e-19)
(5.46208 0.312685 -3.37639e-19)
(5.4402 0.240538 -6.49119e-20)
(5.4351 0.289401 -1.87749e-19)
(5.43122 0.193148 5.63708e-20)
(5.4129 0.250518 1.04953e-19)
(5.43876 0.125411 1.07604e-19)
(5.39986 0.191421 7.93344e-20)
(5.46283 0.038034 3.83715e-20)
(5.40551 0.108589 -2.86566e-21)
(5.47788 -0.0600255 5.1971e-20)
(5.42567 0.00468256 -5.14641e-20)
(5.40939 -0.151412 -6.2322e-20)
(5.41233 -0.105669 7.61714e-20)
(5.13953 -0.223208 -4.28811e-20)
(5.25841 -0.199314 3.41651e-20)
(4.57426 -0.285854 5.01128e-20)
(4.83292 -0.263672 -8.76293e-20)
(3.74424 -0.371229 -2.73887e-20)
(4.08557 -0.318171 1.39784e-19)
(2.84282 -0.513879 -8.06055e-20)
(3.13953 -0.407996 -7.76688e-20)
(2.15574 -0.72632 0)
(2.26734 -0.57027 5.1271e-20)
(1.92528 -0.993254 -6.39872e-20)
(1.7699 -0.806232 4.57572e-20)
(2.20094 -1.26652 -3.88733e-20)
(1.82807 -1.08833 -6.37602e-20)
(2.76151 -1.49564 3.4974e-20)
(2.35111 -1.3602 -9.37904e-21)
(3.33987 -1.68733 3.41171e-21)
(2.96724 -1.59508 -6.35997e-21)
(3.84022 -1.84774 -4.62412e-22)
(3.51486 -1.80395 2.67202e-21)
(4.25982 -1.96496 1.32467e-21)
(3.98688 -1.97716 3.94168e-21)
(4.60188 -2.02435 -6.26374e-20)
(4.39559 -2.09457 6.11249e-21)
(4.86023 -2.02184 1.41873e-20)
(4.7315 -2.14339 3.40259e-20)
(5.03599 -1.96581 9.7153e-20)
(4.981 -2.12452 -3.65086e-20)
(5.14789 -1.87332 1.31191e-20)
(5.14641 -2.05018 -4.34069e-20)
(5.22545 -1.76256 0)
(5.25077 -1.94018 -2.56837e-19)
(5.2946 -1.64643 8.73506e-20)
(5.32558 -1.81475 2.49175e-19)
(5.36897 -1.5315 2.64509e-21)
(5.39532 -1.68669 8.76694e-20)
(5.45054 -1.42012 1.20939e-19)
(5.47048 -1.56162 -3.50069e-19)
(5.53473 -1.31254 4.72621e-19)
(5.55121 -1.44161 1.03327e-19)
(5.61496 -1.20828 -1.88767e-19)
(5.63256 -1.32675 3.70217e-19)
(5.68581 -1.10709 -1.74662e-19)
(5.70834 -1.2167 8.66503e-20)
(5.74432 -1.00933 -2.70235e-19)
(5.77375 -1.11097 -2.53568e-19)
(5.7899 -0.915635 -3.13668e-19)
(5.82628 -1.00942 -8.64318e-19)
(5.82368 -0.826511 4.95033e-19)
(5.8666 -0.913725 -7.74563e-23)
(5.84784 -0.742665 1.7456e-19)
(5.89623 -0.825074 6.24646e-19)
(5.86417 -0.664084 1.69221e-19)
(5.91577 -0.739975 -4.42088e-19)
(5.8755 -0.589061 3.76769e-19)
(5.92531 -0.656237 2.54562e-19)
(5.9366 -0.582249 -1.29401e-21)
(5.88603 -0.514649 -3.50988e-20)
(5.57256 0.339616 -5.5723e-19)
(5.59654 0.36238 -1.04425e-18)
(5.5903 0.32517 -4.17909e-19)
(5.55193 0.350914 -2.51667e-19)
(5.57347 0.375381 0)
(5.52834 0.35749 -3.60109e-19)
(5.54925 0.388676 -9.40542e-20)
(5.50117 0.35785 -1.10185e-19)
(5.52012 0.395684 -1.10048e-19)
(5.47008 0.350474 -9.38446e-20)
(5.48515 0.394081 -2.19859e-19)
(5.43606 0.332774 -2.80143e-19)
(5.4449 0.382499 1.79737e-19)
(5.40244 0.30049 -2.08871e-20)
(5.40206 0.359189 9.46195e-20)
(5.37536 0.248147 1.66285e-19)
(5.36139 0.319831 9.6593e-20)
(5.36359 0.173246 1.72065e-20)
(5.33073 0.257967 2.77638e-20)
(5.36733 0.0735856 -7.14694e-20)
(5.31544 0.169435 1.38152e-21)
(5.35926 -0.0422975 -7.18717e-20)
(5.31236 0.053805 -1.76704e-19)
(5.26021 -0.153978 1.70557e-19)
(5.27173 -0.0747149 2.38625e-19)
(4.94942 -0.240197 1.38091e-20)
(5.08459 -0.187159 7.22677e-20)