/*--------------------------------*- C++ -*----------------------------------*\
  =========                 |
  \\      /  F ield         | OpenFOAM: The Open Source CFD Toolbox
   \\    /   O peration     | Website:  https://openfoam.org
    \\  /    A nd           | Version:  6
     \\/     M anipulation  |
\*---------------------------------------------------------------------------*/
FoamFile
{
    version     2.0;
    format      ascii;
    class       volScalarField;
    location    "4.95";
    object      rho;
}
// * * * * * * * * * * * * * * * * * * * * * * * * * * * * * * * * * * * * * //

dimensions      [1 -3 0 0 0 0 0];

internalField   nonuniform List<scalar> 
5625
(
1.40017
1.40025
1.40036
1.40053
1.40076
1.40107
1.40149
1.40203
1.40271
1.40356
1.40457
1.40577
1.40715
1.40871
1.41044
1.41231
1.4143
1.41637
1.41849
1.42061
1.4227
1.42471
1.42663
1.42841
1.43004
1.4315
1.43279
1.43389
1.43481
1.43554
1.43609
1.43646
1.43665
1.43666
1.4365
1.43615
1.43562
1.4349
1.43399
1.43289
1.43159
1.4301
1.42844
1.42661
1.42465
1.42258
1.42046
1.41831
1.41618
1.41412
1.41216
1.41034
1.40868
1.40719
1.40587
1.40474
1.40377
1.40296
1.40229
1.40175
1.40131
1.40097
1.4007
1.4005
1.40035
1.40024
1.40015
1.40009
1.40005
1.40003
1.40001
1.4
1.39999
1.39999
1.39999
1.40025
1.40037
1.40053
1.40076
1.40109
1.40152
1.40209
1.40282
1.40373
1.40484
1.40616
1.40771
1.40947
1.41143
1.41357
1.41585
1.41824
1.42068
1.42313
1.42554
1.42786
1.43006
1.4321
1.43396
1.43562
1.43708
1.43834
1.43939
1.44025
1.44093
1.44143
1.44176
1.44194
1.44196
1.44182
1.44151
1.44104
1.44039
1.43956
1.43851
1.43726
1.43578
1.43409
1.43218
1.43008
1.42781
1.42541
1.42294
1.42045
1.41799
1.41561
1.41336
1.41128
1.4094
1.40772
1.40625
1.405
1.40394
1.40306
1.40234
1.40177
1.40131
1.40095
1.40068
1.40048
1.40032
1.40021
1.40013
1.40008
1.40004
1.40001
1.4
1.39999
1.39999
1.39999
1.40036
1.40052
1.40076
1.40108
1.40153
1.40212
1.40288
1.40385
1.40505
1.40649
1.40818
1.41014
1.41233
1.41474
1.41732
1.42003
1.4228
1.42558
1.4283
1.43091
1.43336
1.43561
1.43764
1.43944
1.44099
1.44231
1.44341
1.4443
1.44501
1.44555
1.44593
1.44619
1.44632
1.44634
1.44624
1.44602
1.44567
1.44517
1.4445
1.44364
1.44257
1.44125
1.43968
1.43785
1.43575
1.43341
1.43086
1.42816
1.42535
1.42251
1.41971
1.41701
1.41447
1.41213
1.41003
1.40817
1.40657
1.4052
1.40406
1.40312
1.40236
1.40176
1.40129
1.40092
1.40065
1.40044
1.40029
1.40018
1.40011
1.40006
1.40002
1.4
1.39999
1.39998
1.39998
1.40051
1.40074
1.40106
1.4015
1.40211
1.4029
1.40391
1.40518
1.40672
1.40856
1.4107
1.41312
1.41579
1.41867
1.4217
1.42479
1.42789
1.4309
1.43377
1.43643
1.43884
1.44097
1.44281
1.44436
1.44563
1.44665
1.44744
1.44804
1.44848
1.44879
1.449
1.44913
1.44919
1.4492
1.44916
1.44906
1.44888
1.44861
1.44822
1.44768
1.44693
1.44595
1.4447
1.44314
1.44126
1.43905
1.43653
1.43374
1.43074
1.42761
1.42443
1.42129
1.41828
1.41545
1.41287
1.41056
1.40853
1.40679
1.40533
1.40412
1.40313
1.40235
1.40172
1.40124
1.40088
1.40061
1.4004
1.40026
1.40016
1.40009
1.40004
1.40001
1.39999
1.39998
1.39998
1.40071
1.40102
1.40146
1.40206
1.40286
1.40391
1.40523
1.40686
1.40882
1.41113
1.41376
1.41669
1.41986
1.4232
1.42662
1.43001
1.4333
1.43639
1.4392
1.4417
1.44385
1.44563
1.44706
1.44816
1.44896
1.44951
1.44986
1.45005
1.45012
1.45012
1.45009
1.45005
1.45001
1.45
1.45002
1.45006
1.45011
1.45014
1.45011
1.44999
1.44972
1.44925
1.44852
1.44747
1.44605
1.44422
1.44198
1.43934
1.43636
1.4331
1.42966
1.42616
1.4227
1.41938
1.41628
1.41346
1.41096
1.40878
1.40693
1.40539
1.40412
1.4031
1.40229
1.40166
1.40118
1.40082
1.40055
1.40036
1.40022
1.40013
1.40006
1.40002
1.4
1.39998
1.39998
1.40097
1.4014
1.40199
1.40279
1.40384
1.40519
1.40689
1.40896
1.41141
1.41424
1.41741
1.42086
1.4245
1.42823
1.43191
1.43544
1.43871
1.44164
1.44415
1.44622
1.44785
1.44904
1.44984
1.4503
1.45046
1.45041
1.4502
1.44988
1.44952
1.44916
1.44885
1.4486
1.44845
1.44841
1.44849
1.44868
1.44896
1.44932
1.44971
1.45009
1.45041
1.45059
1.45055
1.45022
1.4495
1.44834
1.44668
1.4445
1.44181
1.43867
1.43518
1.43146
1.42765
1.42389
1.42028
1.41693
1.4139
1.41122
1.40892
1.40698
1.40537
1.40406
1.40302
1.40221
1.40158
1.40111
1.40075
1.4005
1.40031
1.40018
1.4001
1.40004
1.40001
1.39999
1.39998
1.40131
1.40188
1.40267
1.40371
1.40508
1.40681
1.40896
1.41153
1.41453
1.41793
1.42164
1.42557
1.42959
1.43355
1.4373
1.44072
1.4437
1.44617
1.44809
1.44946
1.45032
1.45071
1.45069
1.45036
1.44978
1.44904
1.44821
1.44736
1.44654
1.4458
1.44519
1.44474
1.44446
1.44439
1.44451
1.44484
1.44535
1.44602
1.44684
1.44774
1.44867
1.44956
1.45032
1.45086
1.45106
1.45082
1.45003
1.44863
1.44658
1.44389
1.44065
1.43696
1.43298
1.42888
1.42482
1.42095
1.41737
1.41415
1.41134
1.40893
1.40692
1.40527
1.40395
1.4029
1.40209
1.40148
1.40102
1.40068
1.40043
1.40026
1.40015
1.40007
1.40002
1.39999
1.39998
1.40176
1.40251
1.40353
1.40489
1.40663
1.40882
1.41148
1.41463
1.41822
1.42218
1.42639
1.43069
1.4349
1.43886
1.4424
1.4454
1.44777
1.44947
1.45052
1.45095
1.45084
1.45027
1.44934
1.44815
1.4468
1.44536
1.44392
1.44255
1.4413
1.44021
1.43934
1.43869
1.4383
1.43818
1.43834
1.43877
1.43947
1.44042
1.4416
1.44297
1.44448
1.44606
1.44763
1.44909
1.45031
1.45115
1.45148
1.45116
1.4501
1.44823
1.44559
1.44226
1.43839
1.43417
1.42981
1.42548
1.42137
1.41759
1.41422
1.4113
1.40882
1.40677
1.4051
1.40378
1.40274
1.40195
1.40135
1.40091
1.4006
1.40037
1.40021
1.40011
1.40004
1.4
1.39998
1.40233
1.40331
1.40463
1.40635
1.40855
1.41127
1.41452
1.41827
1.42245
1.42691
1.43149
1.43596
1.44011
1.44376
1.44675
1.44898
1.45042
1.45109
1.45104
1.45037
1.44919
1.44762
1.44577
1.44376
1.44168
1.43961
1.43764
1.43583
1.43422
1.43285
1.43175
1.43095
1.43046
1.4303
1.43047
1.43097
1.43181
1.43297
1.43443
1.43617
1.43815
1.44032
1.44261
1.44492
1.44713
1.4491
1.45066
1.45163
1.45183
1.45114
1.4495
1.44692
1.44352
1.43948
1.43503
1.43041
1.42585
1.42154
1.41759
1.41411
1.4111
1.40859
1.40652
1.40486
1.40356
1.40255
1.40179
1.40122
1.40081
1.40051
1.40031
1.40017
1.40008
1.40002
1.39999
1.40305
1.40431
1.40599
1.40816
1.41089
1.4142
1.41808
1.42244
1.42715
1.43198
1.4367
1.44105
1.4448
1.44778
1.44986
1.45102
1.45128
1.45073
1.44948
1.44766
1.44543
1.44291
1.44023
1.4375
1.43481
1.43225
1.42987
1.42772
1.42585
1.42427
1.42302
1.42211
1.42156
1.42136
1.42153
1.42207
1.42299
1.42427
1.42591
1.4279
1.43022
1.43281
1.43565
1.43865
1.44172
1.44471
1.44747
1.44977
1.4514
1.45215
1.45185
1.45042
1.4479
1.44443
1.44021
1.43554
1.43069
1.42593
1.42144
1.41737
1.41381
1.41077
1.40825
1.4062
1.40457
1.4033
1.40234
1.40161
1.40108
1.4007
1.40043
1.40024
1.40012
1.40004
1.4
1.40395
1.40555
1.40767
1.41036
1.41369
1.41764
1.42215
1.42707
1.43215
1.43713
1.44169
1.44556
1.44853
1.45047
1.45135
1.45121
1.45015
1.44832
1.44588
1.44299
1.43982
1.4365
1.43315
1.42987
1.42674
1.42383
1.42118
1.41883
1.4168
1.41512
1.41378
1.41281
1.41222
1.412
1.41216
1.41271
1.41364
1.41497
1.4167
1.41881
1.42131
1.42417
1.42736
1.43083
1.43453
1.43833
1.4421
1.44563
1.44868
1.45096
1.45223
1.4523
1.45106
1.44856
1.44498
1.44059
1.4357
1.43064
1.4257
1.42108
1.41693
1.41334
1.4103
1.40781
1.4058
1.40423
1.40302
1.4021
1.40142
1.40093
1.40059
1.40035
1.40019
1.40008
1.40002
1.40507
1.40708
1.4097
1.41299
1.41697
1.42158
1.42667
1.432
1.43723
1.44201
1.44603
1.44903
1.45087
1.4515
1.45098
1.44944
1.44705
1.44401
1.44051
1.43673
1.43281
1.42889
1.42507
1.42143
1.41804
1.41494
1.41216
1.40972
1.40763
1.40591
1.40456
1.40358
1.40297
1.40274
1.40288
1.40341
1.40433
1.40565
1.40737
1.40951
1.41205
1.41501
1.41836
1.4221
1.42617
1.43051
1.43503
1.43954
1.44382
1.44757
1.45047
1.45221
1.45257
1.45146
1.44893
1.44521
1.44061
1.43551
1.43026
1.42517
1.42047
1.4163
1.41271
1.40972
1.40729
1.40535
1.40385
1.40271
1.40186
1.40123
1.40079
1.40048
1.40027
1.40013
1.40005
1.40644
1.40894
1.41214
1.41608
1.42074
1.42596
1.4315
1.43699
1.44203
1.44624
1.44933
1.45111
1.45153
1.45068
1.44871
1.44582
1.44223
1.43817
1.43382
1.42936
1.42492
1.42061
1.41652
1.4127
1.4092
1.40605
1.40325
1.40083
1.39878
1.39709
1.39577
1.39481
1.39421
1.39397
1.39409
1.39458
1.39545
1.39671
1.39837
1.40044
1.40294
1.40587
1.40924
1.41304
1.41726
1.42188
1.42684
1.43201
1.43722
1.4422
1.4466
1.45004
1.45217
1.45273
1.45165
1.44901
1.4451
1.44027
1.43496
1.42956
1.42438
1.41964
1.41548
1.41195
1.40904
1.4067
1.40486
1.40345
1.40239
1.40161
1.40105
1.40065
1.40038
1.4002
1.40008
1.4081
1.41115
1.415
1.41963
1.42494
1.43066
1.43641
1.44173
1.44619
1.44943
1.45122
1.45152
1.45041
1.44807
1.44474
1.44066
1.43609
1.43123
1.42628
1.42137
1.41663
1.41213
1.40794
1.4041
1.40062
1.39753
1.39483
1.3925
1.39054
1.38894
1.38769
1.38678
1.3862
1.38596
1.38605
1.38649
1.38728
1.38844
1.38999
1.39194
1.39431
1.39713
1.4004
1.40413
1.40833
1.41301
1.41813
1.42365
1.42945
1.43531
1.44093
1.44589
1.44977
1.45216
1.45281
1.45165
1.44882
1.44465
1.43959
1.43408
1.42855
1.42332
1.41861
1.41451
1.41108
1.40829
1.40607
1.40435
1.40304
1.40207
1.40137
1.40087
1.40052
1.40029
1.40014
1.41008
1.41376
1.4183
1.42361
1.42947
1.43546
1.4411
1.44587
1.44933
1.45124
1.4515
1.45022
1.44759
1.44389
1.43939
1.43437
1.42906
1.42367
1.41834
1.4132
1.40834
1.40382
1.39967
1.39593
1.39259
1.38965
1.38711
1.38494
1.38313
1.38165
1.3805
1.37966
1.37912
1.37887
1.37893
1.3793
1.37998
1.38101
1.3824
1.38417
1.38637
1.389
1.3921
1.39567
1.39973
1.40431
1.4094
1.415
1.42106
1.42745
1.43392
1.4401
1.44553
1.44971
1.45223
1.45282
1.45145
1.44834
1.44388
1.43856
1.43288
1.42727
1.42205
1.4174
1.41343
1.41014
1.40749
1.40542
1.40383
1.40264
1.40176
1.40114
1.4007
1.4004
1.40021
1.41242
1.41678
1.42202
1.42794
1.43415
1.44012
1.44525
1.44904
1.45116
1.4515
1.45015
1.44733
1.44333
1.43848
1.43308
1.42737
1.42158
1.41587
1.41037
1.40518
1.40035
1.39594
1.39196
1.38841
1.38529
1.38259
1.38027
1.37831
1.37668
1.37537
1.37434
1.37358
1.37308
1.37283
1.37284
1.37311
1.37366
1.37452
1.37571
1.37727
1.37923
1.38162
1.38448
1.38782
1.39167
1.39605
1.40098
1.40647
1.41254
1.41913
1.42608
1.43311
1.43977
1.44554
1.44989
1.45236
1.45273
1.45103
1.44755
1.44276
1.43719
1.43138
1.42575
1.42058
1.41606
1.41225
1.40914
1.40667
1.40476
1.40331
1.40224
1.40147
1.40092
1.40055
1.4003
1.41513
1.42021
1.42611
1.43247
1.43876
1.4443
1.44851
1.45096
1.45151
1.4502
1.44729
1.4431
1.43798
1.43225
1.42619
1.42004
1.41397
1.40814
1.40263
1.39753
1.39287
1.38868
1.38495
1.38169
1.37887
1.37646
1.37442
1.37272
1.37132
1.3702
1.36932
1.36865
1.3682
1.36794
1.36788
1.36804
1.36844
1.36909
1.37004
1.37132
1.37298
1.37507
1.37762
1.38067
1.38425
1.38837
1.39305
1.39834
1.40425
1.41079
1.41791
1.4254
1.43292
1.43996
1.44594
1.45027
1.45252
1.45251
1.45036
1.44644
1.4413
1.43551
1.42961
1.42401
1.41897
1.41462
1.41102
1.40812
1.40584
1.40411
1.40281
1.40187
1.4012
1.40073
1.40042
1.41822
1.42399
1.43044
1.437
1.44299
1.4477
1.45062
1.4515
1.45038
1.4475
1.44321
1.4379
1.4319
1.42554
1.41906
1.41267
1.40651
1.4007
1.39532
1.39042
1.38603
1.38216
1.37878
1.37589
1.37343
1.37138
1.36968
1.36829
1.36716
1.36626
1.36555
1.365
1.3646
1.36433
1.3642
1.36422
1.36442
1.36483
1.36548
1.36643
1.36773
1.36944
1.37161
1.3743
1.37753
1.38132
1.38571
1.39071
1.39637
1.40272
1.40976
1.4174
1.42541
1.43336
1.44066
1.44667
1.45079
1.45263
1.45209
1.44938
1.44498
1.4395
1.43353
1.42761
1.42211
1.41725
1.41313
1.40977
1.4071
1.40504
1.40349
1.40235
1.40153
1.40095
1.40056
1.42167
1.42807
1.43484
1.44127
1.44655
1.45005
1.45142
1.45064
1.44793
1.44365
1.43823
1.43204
1.42542
1.41865
1.41194
1.40546
1.39936
1.3937
1.38857
1.38398
1.37996
1.37649
1.37355
1.3711
1.36909
1.36746
1.36616
1.36513
1.36432
1.36368
1.36317
1.36275
1.36241
1.36213
1.36192
1.3618
1.36178
1.3619
1.36221
1.36276
1.36363
1.36487
1.36657
1.36879
1.37158
1.37498
1.379
1.38366
1.389
1.39506
1.40189
1.40946
1.41764
1.42613
1.4344
1.44181
1.44766
1.45137
1.45261
1.45139
1.44805
1.44317
1.43738
1.4313
1.42543
1.42009
1.41547
1.41163
1.40853
1.40611
1.40427
1.40291
1.40192
1.40122
1.40073
1.42542
1.43229
1.4391
1.445
1.4492
1.45121
1.45092
1.44852
1.44439
1.43896
1.43265
1.42582
1.41879
1.41178
1.405
1.39858
1.39264
1.38726
1.38248
1.37831
1.37475
1.37178
1.36936
1.36744
1.36595
1.36482
1.36398
1.36337
1.36291
1.36257
1.36228
1.36202
1.36175
1.36147
1.36118
1.3609
1.36063
1.36044
1.36037
1.36047
1.36083
1.36153
1.36266
1.3643
1.36654
1.36942
1.37298
1.37723
1.3822
1.38791
1.39443
1.40177
1.4099
1.41862
1.42752
1.436
1.44333
1.4488
1.45188
1.45234
1.45035
1.44635
1.44099
1.43496
1.42886
1.42311
1.41801
1.41368
1.41014
1.40734
1.40518
1.40356
1.40238
1.40153
1.40095
1.42939
1.43649
1.44298
1.44795
1.45075
1.45113
1.44922
1.44538
1.44005
1.43371
1.42674
1.41947
1.41218
1.40509
1.39836
1.39213
1.38648
1.38147
1.37714
1.37349
1.3705
1.36813
1.36633
1.36501
1.36412
1.36355
1.36323
1.36308
1.36303
1.36301
1.36297
1.36287
1.3627
1.36242
1.36206
1.36161
1.3611
1.36057
1.36009
1.35971
1.35951
1.35959
1.36005
1.36101
1.36256
1.36479
1.36777
1.3715
1.376
1.38131
1.38745
1.39447
1.40239
1.41111
1.42032
1.42954
1.43806
1.44509
1.44995
1.45219
1.45174
1.4489
1.44425
1.43849
1.43231
1.42626
1.42072
1.41592
1.41192
1.40871
1.40621
1.40431
1.40291
1.4019
1.4012
1.43343
1.44044
1.44623
1.44995
1.45118
1.44993
1.44653
1.44145
1.43517
1.42813
1.42068
1.41314
1.40574
1.39869
1.39214
1.3862
1.38095
1.37643
1.37266
1.36963
1.36731
1.36563
1.36453
1.36391
1.36368
1.36373
1.36398
1.36432
1.36468
1.36499
1.36521
1.36529
1.3652
1.36494
1.3645
1.3639
1.36316
1.36231
1.36141
1.36053
1.35975
1.35917
1.3589
1.35907
1.35983
1.36128
1.36351
1.36659
1.37052
1.37531
1.38101
1.38763
1.39524
1.40377
1.41307
1.42272
1.43211
1.44045
1.44694
1.45094
1.45217
1.4507
1.447
1.44175
1.43568
1.42946
1.42356
1.41831
1.41386
1.41023
1.40736
1.40516
1.40352
1.40233
1.40149
1.43738
1.44394
1.44867
1.45092
1.45053
1.44777
1.44308
1.43699
1.42996
1.42239
1.41462
1.40694
1.39956
1.39267
1.38641
1.38088
1.37613
1.37221
1.36911
1.36681
1.36526
1.36437
1.36405
1.36419
1.36467
1.36537
1.36619
1.36702
1.36779
1.36841
1.36886
1.36909
1.36909
1.36883
1.36834
1.3676
1.36665
1.36551
1.36423
1.36288
1.36153
1.36029
1.35927
1.35861
1.35848
1.35903
1.36039
1.36265
1.36585
1.37002
1.37517
1.38132
1.38851
1.39675
1.40593
1.41577
1.42574
1.4351
1.44301
1.44869
1.45162
1.45168
1.44915
1.44464
1.43889
1.43264
1.42648
1.42084
1.41595
1.41189
1.40863
1.40611
1.40422
1.40282
1.40183
1.44103
1.44679
1.4502
1.45088
1.44896
1.44485
1.43909
1.43218
1.42457
1.41663
1.40868
1.40098
1.39373
1.38712
1.38126
1.37623
1.3721
1.36889
1.36657
1.3651
1.36441
1.36439
1.36492
1.36585
1.36705
1.36839
1.36974
1.371
1.37211
1.37298
1.3736
1.37394
1.37398
1.37373
1.37319
1.37235
1.37124
1.36988
1.36829
1.36654
1.3647
1.36285
1.36111
1.35963
1.35858
1.35815
1.35852
1.35982
1.36215
1.36555
1.37002
1.37559
1.38228
1.39012
1.39905
1.40887
1.41917
1.42927
1.43836
1.44555
1.45015
1.45181
1.45063
1.44707
1.44184
1.43573
1.42943
1.42346
1.41816
1.41367
1.41003
1.40717
1.40499
1.40338
1.40222
1.44422
1.44888
1.45081
1.44995
1.44663
1.44138
1.43473
1.42717
1.41912
1.41094
1.40293
1.39532
1.38833
1.38209
1.37674
1.37234
1.36894
1.36654
1.3651
1.36456
1.3648
1.3657
1.36709
1.3688
1.37068
1.37257
1.37435
1.37593
1.37725
1.37827
1.37897
1.37934
1.37939
1.37913
1.37855
1.37766
1.37646
1.37497
1.37319
1.37116
1.36893
1.36659
1.36423
1.362
1.36008
1.35867
1.35798
1.35823
1.35954
1.36201
1.36568
1.37054
1.37663
1.38396
1.39251
1.40216
1.41256
1.42317
1.43317
1.44167
1.44784
1.45112
1.45139
1.44896
1.44444
1.43865
1.43234
1.42613
1.42047
1.41558
1.41154
1.40832
1.40585
1.404
1.40265
1.44679
1.45014
1.45057
1.44827
1.44373
1.43751
1.43013
1.42207
1.41372
1.40542
1.39745
1.39005
1.38341
1.37766
1.37292
1.36925
1.36668
1.36519
1.36473
1.36518
1.36641
1.36823
1.37044
1.37285
1.37527
1.37756
1.3796
1.38133
1.38271
1.38372
1.38439
1.38471
1.38472
1.38443
1.38385
1.38297
1.38177
1.38026
1.37842
1.37626
1.37382
1.37115
1.36832
1.36548
1.36279
1.36046
1.35875
1.35789
1.3581
1.35952
1.36223
1.36626
1.37163
1.37835
1.38642
1.39574
1.40608
1.41695
1.42763
1.43722
1.4448
1.44965
1.45143
1.45026
1.44664
1.44133
1.43515
1.42881
1.42284
1.41757
1.41315
1.40957
1.40679
1.40469
1.40314
1.44868
1.45061
1.44959
1.446
1.44041
1.43338
1.42542
1.41698
1.40844
1.40013
1.39231
1.38522
1.37903
1.37387
1.36985
1.36701
1.36537
1.36489
1.36546
1.36695
1.36915
1.37182
1.37474
1.37767
1.38044
1.38291
1.38499
1.38666
1.38791
1.38877
1.38927
1.38947
1.3894
1.38908
1.38853
1.38773
1.38665
1.38526
1.38351
1.38141
1.37893
1.37612
1.37302
1.36976
1.36646
1.36335
1.36069
1.35875
1.35782
1.35811
1.35975
1.36282
1.36735
1.37335
1.38082
1.3897
1.39981
1.41076
1.42189
1.43235
1.44117
1.44749
1.45078
1.45095
1.44837
1.44371
1.4378
1.43144
1.42525
1.41964
1.41484
1.41091
1.40781
1.40544
1.40368
1.44985
1.45036
1.448
1.44328
1.43679
1.42909
1.42067
1.41197
1.40335
1.39513
1.38756
1.38087
1.37523
1.37076
1.36755
1.36564
1.36502
1.36561
1.36726
1.36976
1.37284
1.37623
1.37964
1.38286
1.38571
1.3881
1.38998
1.39137
1.3923
1.39286
1.3931
1.39311
1.39292
1.39259
1.39211
1.39147
1.39062
1.3895
1.38803
1.38616
1.38385
1.38111
1.37796
1.37447
1.37078
1.36707
1.36361
1.36069
1.35865
1.35777
1.35827
1.36028
1.36385
1.36902
1.37579
1.38412
1.39387
1.40472
1.4161
1.42721
1.43707
1.44473
1.44948
1.45105
1.44961
1.44574
1.44025
1.43399
1.42765
1.42176
1.4166
1.41232
1.40889
1.40625
1.40427
1.45036
1.44951
1.44594
1.44023
1.43297
1.42473
1.41596
1.4071
1.3985
1.39046
1.38324
1.37705
1.37204
1.36835
1.36604
1.36515
1.36561
1.3673
1.37001
1.37342
1.37723
1.38109
1.38474
1.38795
1.3906
1.39264
1.39407
1.39498
1.39543
1.39555
1.39543
1.39517
1.39484
1.3945
1.39415
1.39376
1.39327
1.39259
1.39159
1.39016
1.38824
1.38578
1.38278
1.37931
1.37545
1.37135
1.36727
1.36352
1.36047
1.35845
1.35778
1.35865
1.36118
1.36541
1.37138
1.37904
1.38831
1.39892
1.41038
1.42193
1.43263
1.44148
1.44762
1.45057
1.45035
1.44739
1.44245
1.4364
1.43001
1.42389
1.41842
1.41379
1.41004
1.40712
1.40491
1.45026
1.44816
1.44351
1.43694
1.42905
1.42037
1.41136
1.40244
1.39395
1.38618
1.37938
1.37377
1.36948
1.36665
1.36533
1.36552
1.3671
1.36988
1.37353
1.3777
1.38198
1.38604
1.3896
1.3925
1.39466
1.3961
1.39687
1.3971
1.39691
1.39644
1.39584
1.39524
1.39472
1.39436
1.39418
1.39414
1.39415
1.39408
1.39377
1.39304
1.39174
1.38981
1.38721
1.38397
1.38016
1.37591
1.37144
1.36704
1.36311
1.36005
1.35822
1.35792
1.35933
1.36254
1.36761
1.37452
1.38321
1.39344
1.40481
1.41663
1.42799
1.43785
1.44525
1.44957
1.4506
1.44864
1.44437
1.43864
1.43229
1.42601
1.42026
1.41531
1.41125
1.40804
1.40559
1.44966
1.44641
1.44081
1.4335
1.42508
1.41607
1.40692
1.39802
1.38971
1.3823
1.376
1.37104
1.36756
1.36567
1.36541
1.36671
1.3694
1.37316
1.3776
1.38226
1.38673
1.39065
1.39383
1.39613
1.39755
1.39815
1.39805
1.3974
1.39637
1.39515
1.39393
1.39287
1.39209
1.39169
1.3917
1.39208
1.39274
1.3935
1.39412
1.39437
1.39401
1.39289
1.39094
1.38818
1.38466
1.38049
1.37585
1.37103
1.36641
1.36242
1.35951
1.35804
1.3583
1.36043
1.36452
1.37059
1.37859
1.38834
1.39948
1.4114
1.42323
1.43394
1.44249
1.44809
1.45038
1.44949
1.44598
1.44068
1.43446
1.42809
1.42211
1.41687
1.4125
1.40901
1.40631
1.44864
1.44435
1.43791
1.42998
1.42114
1.41189
1.40267
1.39387
1.38583
1.37883
1.37312
1.36888
1.36628
1.36539
1.36622
1.36863
1.37235
1.37695
1.38193
1.3868
1.39112
1.39462
1.39711
1.39856
1.39899
1.39852
1.3973
1.39552
1.39343
1.39125
1.38923
1.38757
1.38645
1.38597
1.38619
1.38707
1.38851
1.3903
1.39214
1.39369
1.39462
1.39466
1.39369
1.39168
1.3887
1.38484
1.38028
1.37526
1.37015
1.36541
1.36152
1.35895
1.35804
1.35905
1.36211
1.36726
1.37449
1.38365
1.39445
1.40633
1.41847
1.42986
1.43941
1.44621
1.44973
1.44994
1.44727
1.44249
1.4365
1.43011
1.42395
1.41844
1.41378
1.41001
1.40707
1.44728
1.44206
1.4349
1.42645
1.41727
1.40786
1.39865
1.39003
1.38231
1.3758
1.37072
1.36728
1.3656
1.36577
1.3677
1.37117
1.37578
1.38099
1.38624
1.39099
1.39488
1.39766
1.39922
1.39955
1.39874
1.39692
1.39429
1.39112
1.38769
1.38432
1.38131
1.37892
1.37736
1.37677
1.37722
1.37867
1.38101
1.38401
1.38732
1.39052
1.39313
1.39475
1.39514
1.39422
1.39205
1.38875
1.38449
1.37951
1.37414
1.36884
1.36413
1.36053
1.35851
1.35838
1.36036
1.36453
1.37092
1.37942
1.38977
1.40147
1.41378
1.42569
1.43609
1.444
1.4487
1.45002
1.44824
1.44407
1.43838
1.43204
1.42576
1.42002
1.41508
1.41104
1.40786
1.44565
1.43961
1.43183
1.42295
1.41352
1.40402
1.39489
1.3865
1.37917
1.37319
1.36881
1.36621
1.36552
1.36675
1.36975
1.37417
1.37947
1.38504
1.39025
1.39461
1.39778
1.39959
1.39996
1.39891
1.39656
1.39308
1.38873
1.38385
1.37881
1.37401
1.3698
1.36654
1.36447
1.36376
1.36447
1.36657
1.36993
1.3743
1.3793
1.38444
1.38912
1.39277
1.39497
1.39554
1.3945
1.39202
1.3883
1.38358
1.37818
1.37253
1.36717
1.36269
1.35961
1.35837
1.35925
1.3624
1.3679
1.37566
1.38547
1.39689
1.40922
1.42151
1.43263
1.44152
1.44735
1.44976
1.44891
1.4454
1.44009
1.43387
1.42751
1.42158
1.41639
1.41209
1.40867
1.44383
1.43706
1.42876
1.41953
1.40991
1.4004
1.3914
1.38329
1.3764
1.37101
1.36737
1.36566
1.36597
1.36825
1.37224
1.37745
1.38322
1.38886
1.39376
1.39746
1.39968
1.40026
1.39917
1.39645
1.39223
1.38675
1.38035
1.37345
1.36651
1.36002
1.35444
1.35018
1.34753
1.3467
1.34774
1.35061
1.35513
1.36103
1.3679
1.3752
1.38226
1.38836
1.39285
1.39538
1.39588
1.39451
1.39155
1.3873
1.38208
1.37631
1.3705
1.36528
1.36126
1.35895
1.35874
1.36085
1.3654
1.37237
1.38157
1.39261
1.40486
1.41739
1.4291
1.43885
1.44571
1.44919
1.44928
1.44648
1.44161
1.43557
1.42919
1.4231
1.41769
1.41315
1.40949
1.44187
1.43448
1.42573
1.41623
1.40648
1.397
1.38818
1.38041
1.37399
1.36924
1.36638
1.36559
1.3669
1.37018
1.37503
1.38082
1.38681
1.39227
1.39661
1.39942
1.40044
1.39955
1.39672
1.39201
1.38559
1.37778
1.36898
1.35971
1.35055
1.3421
1.33493
1.32952
1.32624
1.32532
1.32681
1.33062
1.33653
1.34418
1.35311
1.36277
1.37244
1.38129
1.38849
1.39346
1.39594
1.39606
1.39414
1.39057
1.38572
1.38001
1.37395
1.36817
1.36334
1.36004
1.35877
1.35984
1.36343
1.36955
1.37807
1.38867
1.40073
1.41338
1.42555
1.43605
1.44386
1.44835
1.44938
1.44732
1.44294
1.43714
1.43079
1.42459
1.41898
1.4142
1.41033
1.43983
1.43189
1.42277
1.41306
1.40325
1.39384
1.38525
1.37784
1.37194
1.36785
1.36581
1.36593
1.36822
1.37241
1.37797
1.38414
1.3901
1.39514
1.3987
1.4004
1.39999
1.39737
1.39251
1.3855
1.37656
1.36605
1.35448
1.34245
1.33069
1.31992
1.31087
1.30412
1.30012
1.29914
1.30124
1.30627
1.31391
1.32368
1.335
1.34726
1.35972
1.37153
1.38175
1.38957
1.39449
1.39651
1.39595
1.39329
1.38899
1.38352
1.37739
1.37123
1.36573
1.36155
1.35928
1.35933
1.36194
1.36719
1.375
1.38507
1.39686
1.40954
1.42204
1.43318
1.44185
1.44729
1.44923
1.44793
1.44408
1.43857
1.4323
1.42601
1.42024
1.41525
1.41116
1.43776
1.42934
1.41992
1.41005
1.40022
1.39092
1.38259
1.37559
1.37023
1.36683
1.3656
1.36664
1.36984
1.37482
1.38091
1.38725
1.39297
1.39738
1.39996
1.40034
1.39829
1.39369
1.38652
1.37691
1.36511
1.35151
1.3367
1.32143
1.30656
1.29302
1.28169
1.27331
1.26845
1.26742
1.27031
1.27693
1.2868
1.29925
1.3135
1.32876
1.34429
1.35925
1.37269
1.38364
1.39139
1.39572
1.39687
1.39537
1.39182
1.38675
1.38072
1.37434
1.36832
1.36339
1.3602
1.35926
1.3609
1.36527
1.37232
1.38183
1.39328
1.40589
1.41863
1.43029
1.43972
1.44605
1.44887
1.44833
1.44503
1.43985
1.4337
1.42737
1.42145
1.41627
1.41198
1.43569
1.42686
1.41718
1.40721
1.39741
1.38825
1.38021
1.37364
1.36884
1.36612
1.36572
1.36764
1.37168
1.37731
1.38375
1.39005
1.39534
1.39894
1.40036
1.39923
1.39533
1.38852
1.37881
1.3663
1.35124
1.33407
1.31546
1.29632
1.27771
1.26079
1.24667
1.23629
1.23034
1.22926
1.23313
1.24172
1.25441
1.27028
1.28823
1.30719
1.32628
1.34468
1.36151
1.37578
1.38663
1.3936
1.3968
1.39675
1.39414
1.38963
1.38384
1.3774
1.37101
1.36545
1.36144
1.35958
1.36028
1.36376
1.37004
1.37894
1.38999
1.40247
1.41535
1.42744
1.43754
1.44468
1.44834
1.44854
1.44581
1.44098
1.43498
1.42865
1.42262
1.41727
1.41279
1.43367
1.42448
1.41458
1.40457
1.39482
1.38582
1.37808
1.37197
1.36774
1.36571
1.36611
1.36886
1.37363
1.37977
1.38638
1.39246
1.39715
1.3998
1.3999
1.39711
1.39117
1.38196
1.36945
1.35371
1.33495
1.31364
1.29055
1.26678
1.24367
1.22267
1.20517
1.19236
1.1851
1.18391
1.18893
1.19988
1.216
1.23609
1.25865
1.28222
1.30561
1.32794
1.34842
1.36619
1.38032
1.39018
1.39571
1.39737
1.39591
1.39212
1.3867
1.38032
1.37371
1.36765
1.36292
1.36021
1.36001
1.36262
1.36813
1.3764
1.38701
1.39929
1.41223
1.42466
1.43534
1.44321
1.44766
1.44859
1.44643
1.44197
1.43616
1.42985
1.42372
1.41823
1.41358
1.43171
1.42223
1.41214
1.4021
1.39246
1.38364
1.3762
1.37055
1.3669
1.36555
1.3667
1.37022
1.37561
1.38211
1.38873
1.39445
1.3984
1.39996
1.39863
1.39404
1.38593
1.37414
1.35857
1.33923
1.31626
1.29014
1.26179
1.23256
1.20414
1.17834
1.15691
1.14129
1.13255
1.13127
1.13761
1.15124
1.1713
1.19632
1.22439
1.25354
1.28212
1.30905
1.3336
1.35506
1.37262
1.38556
1.39365
1.39724
1.39711
1.39417
1.38924
1.38305
1.37633
1.3699
1.36457
1.36109
1.36005
1.36182
1.36657
1.37419
1.38434
1.39636
1.4093
1.42199
1.43315
1.44169
1.44686
1.44848
1.44689
1.44282
1.43721
1.43095
1.42477
1.41914
1.41434
1.42984
1.42013
1.40987
1.39982
1.39033
1.3817
1.37455
1.36936
1.36629
1.36558
1.36745
1.37166
1.37755
1.38426
1.39076
1.396
1.3991
1.39946
1.39661
1.39015
1.37975
1.36519
1.34631
1.32296
1.29523
1.2636
1.22921
1.19373
1.15924
1.12801
1.10221
1.08358
1.07332
1.07204
1.07987
1.09645
1.12081
1.15127
1.18555
1.22113
1.25578
1.28806
1.31717
1.3426
1.36372
1.37987
1.39068
1.39638
1.39776
1.39579
1.39145
1.38553
1.37883
1.37214
1.36631
1.36216
1.36034
1.36132
1.36531
1.3723
1.38196
1.39369
1.40658
1.41945
1.43103
1.44015
1.44599
1.44826
1.44722
1.44354
1.43815
1.43196
1.42574
1.42
1.41506
1.42805
1.41819
1.4078
1.39772
1.38839
1.37999
1.37311
1.36837
1.36589
1.36578
1.36829
1.37311
1.3794
1.38618
1.39245
1.39711
1.39928
1.39839
1.39397
1.38556
1.37277
1.35529
1.33283
1.30508
1.27204
1.23428
1.19317
1.15075
1.1096
1.07252
1.04215
1.02053
1.00889
1.00779
1.01728
1.03696
1.06578
1.10193
1.14281
1.18539
1.22685
1.26517
1.29936
1.32904
1.35385
1.37327
1.38691
1.39487
1.39787
1.397
1.39332
1.38776
1.38114
1.3743
1.36808
1.36335
1.36083
1.36106
1.36434
1.3707
1.37986
1.39128
1.40407
1.41706
1.42899
1.43862
1.44507
1.44795
1.44743
1.44414
1.43898
1.43288
1.42663
1.42081
1.41574
1.42636
1.41641
1.40593
1.3958
1.38666
1.37852
1.37188
1.36754
1.36564
1.36611
1.36917
1.37451
1.3811
1.38784
1.39378
1.39781
1.39901
1.39682
1.39081
1.38044
1.36519
1.34465
1.31835
1.28585
1.24707
1.20272
1.15441
1.10461
1.05644
1.01334
0.978498
0.954137
0.941415
0.94072
0.952018
0.974851
1.00811
1.04988
1.09738
1.14717
1.19584
1.24073
1.28047
1.31469
1.34329
1.36599
1.38248
1.39277
1.39751
1.3978
1.39485
1.3897
1.38325
1.37633
1.36982
1.3646
1.36146
1.36101
1.36362
1.36936
1.37804
1.38913
1.40178
1.41485
1.42706
1.43714
1.44413
1.44757
1.44754
1.44463
1.4397
1.43369
1.42744
1.42155
1.41637
1.42479
1.41479
1.40428
1.39408
1.38508
1.37726
1.37085
1.36684
1.3655
1.36653
1.37003
1.37581
1.38262
1.38923
1.39476
1.39814
1.39836
1.39487
1.38728
1.37496
1.35722
1.33348
1.30315
1.26566
1.22093
1.16978
1.11408
1.05671
1.00144
0.952502
0.913606
0.887033
0.87365
0.873588
0.886732
0.912623
0.950114
0.997194
1.05095
1.10773
1.1636
1.21529
1.26088
1.29985
1.33231
1.35828
1.37757
1.3902
1.39672
1.39824
1.39607
1.39137
1.38513
1.3782
1.37149
1.36587
1.36219
1.36112
1.3631
1.36827
1.37648
1.38724
1.39973
1.41283
1.42526
1.43572
1.4432
1.44714
1.44757
1.44501
1.44031
1.43441
1.42817
1.42222
1.41695
1.42333
1.4133
1.40285
1.39259
1.38365
1.37617
1.37003
1.36626
1.36543
1.367
1.37087
1.37696
1.38395
1.39037
1.39543
1.39816
1.39743
1.39264
1.3835
1.36929
1.34907
1.32206
1.28759
1.24505
1.19441
1.13658
1.0736
1.00877
0.946694
0.892511
0.850358
0.822288
0.808668
0.809341
0.824186
0.852827
0.894123
0.945986
1.00541
1.06859
1.13128
1.18962
1.24111
1.28491
1.32123
1.35038
1.3724
1.3873
1.3956
1.39837
1.397
1.39277
1.38676
1.37989
1.37303
1.3671
1.36297
1.36135
1.36276
1.3674
1.37515
1.38558
1.3979
1.41101
1.42361
1.43439
1.44229
1.44669
1.44754
1.44531
1.44083
1.43504
1.42882
1.42282
1.41747
1.42206
1.41192
1.40162
1.39135
1.38237
1.37521
1.3694
1.36579
1.36537
1.36751
1.37166
1.37793
1.38507
1.39128
1.39581
1.39791
1.39629
1.39027
1.37963
1.36362
1.34099
1.31072
1.2721
1.22466
1.16843
1.10433
1.03449
0.962717
0.894601
0.836184
0.791777
0.762892
0.749285
0.75057
0.76674
0.797602
0.842087
0.898056
0.962406
1.03123
1.10007
1.16463
1.22179
1.27031
1.31038
1.34256
1.36714
1.38421
1.39423
1.39824
1.39766
1.39391
1.38816
1.38137
1.37443
1.36826
1.36375
1.36166
1.36256
1.36671
1.37404
1.38416
1.3963
1.40939
1.42212
1.43317
1.44143
1.44623
1.44745
1.44553
1.44125
1.43558
1.42938
1.42335
1.41794
1.421
1.41067
1.40054
1.39037
1.38127
1.37432
1.36895
1.36545
1.36528
1.36797
1.3724
1.37871
1.38595
1.39199
1.39596
1.39743
1.39505
1.38787
1.37579
1.35812
1.33324
1.29982
1.2572
1.20515
1.14386
1.07418
0.998258
0.920513
0.847549
0.786113
0.740354
0.71107
0.697462
0.699057
0.71606
0.748516
0.795481
0.854799
0.923274
0.996898
1.07108
1.14118
1.20357
1.25654
1.30013
1.33511
1.36202
1.38108
1.39271
1.3979
1.3981
1.39482
1.38932
1.38263
1.37566
1.36932
1.3645
1.36202
1.36248
1.36619
1.37314
1.38296
1.39493
1.40797
1.4208
1.43207
1.44064
1.44578
1.44733
1.44568
1.44159
1.43602
1.42985
1.4238
1.41834
1.42018
1.4096
1.39954
1.38963
1.38041
1.37348
1.36858
1.36528
1.36516
1.36833
1.37311
1.37932
1.38657
1.39253
1.39595
1.39676
1.39376
1.38559
1.37215
1.35294
1.32608
1.28977
1.24341
1.18717
1.12147
1.04708
0.966198
0.883831
0.807427
0.74408
0.697538
0.667945
0.654163
0.655777
0.673214
0.706727
0.755497
0.817395
0.889155
0.96668
1.04529
1.12011
1.18709
1.24404
1.29081
1.32828
1.35724
1.37806
1.39114
1.39743
1.39835
1.3955
1.39025
1.38367
1.37671
1.37025
1.3652
1.36239
1.36247
1.36581
1.37242
1.38198
1.39377
1.40677
1.41966
1.43111
1.43993
1.44537
1.4472
1.44578
1.44186
1.43638
1.43024
1.42418
1.41868
1.41959
1.40879
1.39863
1.38904
1.37986
1.37273
1.36821
1.36526
1.36504
1.36851
1.37374
1.37981
1.38689
1.39289
1.39587
1.39598
1.39246
1.38355
1.36888
1.34824
1.3197
1.28097
1.2313
1.17133
1.10185
1.02368
0.939149
0.853699
0.775233
0.710821
0.663759