/*--------------------------------*- C++ -*----------------------------------*\
  =========                 |
  \\      /  F ield         | OpenFOAM: The Open Source CFD Toolbox
   \\    /   O peration     | Website:  https://openfoam.org
    \\  /    A nd           | Version:  6
     \\/     M anipulation  |
\*---------------------------------------------------------------------------*/
FoamFile
{
    version     2.0;
    format      ascii;
    class       volVectorField;
    location    "4.95";
    object      U;
}
// * * * * * * * * * * * * * * * * * * * * * * * * * * * * * * * * * * * * * //

dimensions      [0 1 -1 0 0 0 0];

internalField   nonuniform List<vector> 
5625
(
(0.894359 0.447299 0)
(0.894334 0.447337 0)
(0.894295 0.447395 0)
(0.894241 0.447478 0)
(0.894163 0.447594 0)
(0.894059 0.447754 0)
(0.893923 0.447969 0)
(0.893753 0.448251 0)
(0.893545 0.448613 0)
(0.8933 0.449066 0)
(0.893017 0.449621 0)
(0.892701 0.450287 0)
(0.892358 0.451067 0)
(0.891999 0.451963 0)
(0.891633 0.452969 0)
(0.891275 0.454076 0)
(0.890938 0.45527 0)
(0.890638 0.456532 0)
(0.890385 0.457839 0)
(0.890193 0.459168 0)
(0.89007 0.460493 0)
(0.890023 0.461792 0)
(0.890055 0.463042 0)
(0.890168 0.464222 0)
(0.890358 0.465316 0)
(0.890624 0.466311 0)
(0.890958 0.467198 0)
(0.891353 0.467968 0)
(0.891802 0.468617 0)
(0.892295 0.469142 0)
(0.892825 0.469542 0)
(0.893382 0.469816 0)
(0.893956 0.469964 0)
(0.894538 0.469985 0)
(0.89512 0.469878 0)
(0.895691 0.469642 0)
(0.896242 0.469275 0)
(0.896763 0.468776 0)
(0.897242 0.468146 0)
(0.89767 0.467385 0)
(0.898037 0.466498 0)
(0.898334 0.465491 0)
(0.898553 0.464375 0)
(0.898689 0.463166 0)
(0.89874 0.461882 0)
(0.898706 0.460548 0)
(0.898593 0.45919 0)
(0.898409 0.457836 0)
(0.898166 0.456513 0)
(0.897876 0.455248 0)
(0.897554 0.454061 0)
(0.897216 0.45297 0)
(0.896873 0.451986 0)
(0.896539 0.451115 0)
(0.896221 0.450357 0)
(0.895928 0.44971 0)
(0.895664 0.449167 0)
(0.89543 0.448718 0)
(0.895228 0.448353 0)
(0.895056 0.448061 0)
(0.894912 0.447832 0)
(0.894794 0.447654 0)
(0.894698 0.447518 0)
(0.894622 0.447417 0)
(0.894562 0.447343 0)
(0.894516 0.447289 0)
(0.89448 0.447251 0)
(0.894454 0.447226 0)
(0.894434 0.447209 0)
(0.89442 0.447198 0)
(0.89441 0.447192 0)
(0.894404 0.447189 0)
(0.8944 0.447188 0)
(0.894397 0.447188 0)
(0.894396 0.447189 0)
(0.89433 0.447339 0)
(0.894291 0.447395 0)
(0.894234 0.447476 0)
(0.894153 0.447593 0)
(0.894042 0.447755 0)
(0.893896 0.447975 0)
(0.893708 0.448269 0)
(0.893476 0.448649 0)
(0.893196 0.449131 0)
(0.892868 0.449729 0)
(0.892497 0.450455 0)
(0.892088 0.451314 0)
(0.891652 0.45231 0)
(0.891201 0.453438 0)
(0.890752 0.454688 0)
(0.890322 0.456043 0)
(0.889928 0.457482 0)
(0.889587 0.458979 0)
(0.889314 0.460504 0)
(0.889122 0.462026 0)
(0.889019 0.463518 0)
(0.88901 0.464952 0)
(0.889096 0.466306 0)
(0.889276 0.467561 0)
(0.889545 0.468704 0)
(0.889895 0.469725 0)
(0.89032 0.470619 0)
(0.890809 0.471384 0)
(0.891352 0.47202 0)
(0.89194 0.47253 0)
(0.892564 0.472915 0)
(0.893215 0.473179 0)
(0.893884 0.473324 0)
(0.894561 0.473349 0)
(0.895239 0.473255 0)
(0.895908 0.473039 0)
(0.896558 0.472697 0)
(0.89718 0.472225 0)
(0.897762 0.471619 0)
(0.898293 0.470872 0)
(0.898761 0.469984 0)
(0.899153 0.468955 0)
(0.899459 0.46779 0)
(0.89967 0.466499 0)
(0.89978 0.4651 0)
(0.899786 0.463614 0)
(0.89969 0.462069 0)
(0.8995 0.4605 0)
(0.899228 0.458939 0)
(0.898889 0.457421 0)
(0.8985 0.455975 0)
(0.898082 0.454629 0)
(0.897651 0.453399 0)
(0.897224 0.452299 0)
(0.896815 0.451334 0)
(0.896433 0.450503 0)
(0.896085 0.4498 0)
(0.895777 0.449216 0)
(0.895508 0.448738 0)
(0.895279 0.448354 0)
(0.895087 0.44805 0)
(0.894929 0.447814 0)
(0.8948 0.447634 0)
(0.894698 0.447498 0)
(0.894617 0.447398 0)
(0.894555 0.447326 0)
(0.894508 0.447275 0)
(0.894472 0.44724 0)
(0.894446 0.447217 0)
(0.894428 0.447202 0)
(0.894415 0.447193 0)
(0.894406 0.447188 0)
(0.8944 0.447187 0)
(0.894397 0.447186 0)
(0.894395 0.447187 0)
(0.894288 0.447392 0)
(0.89423 0.447471 0)
(0.894147 0.447585 0)
(0.894032 0.447747 0)
(0.893877 0.447969 0)
(0.893674 0.448267 0)
(0.893418 0.448659 0)
(0.893106 0.449165 0)
(0.892735 0.449798 0)
(0.892307 0.450575 0)
(0.891828 0.451505 0)
(0.891309 0.452594 0)
(0.890765 0.453839 0)
(0.890214 0.455227 0)
(0.889678 0.456742 0)
(0.889178 0.458357 0)
(0.888735 0.460039 0)
(0.888369 0.461753 0)
(0.888097 0.463464 0)
(0.887928 0.465136 0)
(0.887871 0.466737 0)
(0.887926 0.46824 0)
(0.888091 0.469624 0)
(0.88836 0.470877 0)
(0.888725 0.471991 0)
(0.889176 0.472961 0)
(0.8897 0.47379 0)
(0.890288 0.474483 0)
(0.890927 0.475049 0)
(0.891607 0.475494 0)
(0.89232 0.475827 0)
(0.893056 0.476055 0)
(0.893809 0.476182 0)
(0.894571 0.47621 0)
(0.895335 0.476139 0)
(0.896092 0.475966 0)
(0.896836 0.475685 0)
(0.897556 0.475288 0)
(0.898243 0.474764 0)
(0.898883 0.474102 0)
(0.899464 0.473291 0)
(0.899969 0.472324 0)
(0.900386 0.471196 0)
(0.900699 0.46991 0)
(0.900898 0.468474 0)
(0.900974 0.466906 0)
(0.900925 0.465234 0)
(0.900754 0.46349 0)
(0.900472 0.461716 0)
(0.900097 0.459953 0)
(0.899647 0.458243 0)
(0.899147 0.456622 0)
(0.898619 0.455121 0)
(0.898087 0.453759 0)
(0.897568 0.452551 0)
(0.897079 0.4515 0)
(0.896629 0.450603 0)
(0.896227 0.449852 0)
(0.895874 0.449234 0)
(0.895572 0.448734 0)
(0.895317 0.448336 0)
(0.895107 0.448026 0)
(0.894936 0.447787 0)
(0.894799 0.447607 0)
(0.894691 0.447474 0)
(0.894608 0.447377 0)
(0.894545 0.447308 0)
(0.894498 0.44726 0)
(0.894463 0.447228 0)
(0.894438 0.447208 0)
(0.89442 0.447195 0)
(0.894409 0.447188 0)
(0.894401 0.447185 0)
(0.894397 0.447184 0)
(0.894394 0.447185 0)
(0.894229 0.447462 0)
(0.894146 0.447572 0)
(0.894027 0.447729 0)
(0.893866 0.447948 0)
(0.893652 0.448247 0)
(0.893377 0.448645 0)
(0.893035 0.449163 0)
(0.892622 0.449823 0)
(0.892138 0.450642 0)
(0.891588 0.451633 0)
(0.890982 0.452805 0)
(0.890338 0.454157 0)
(0.889677 0.455677 0)
(0.889022 0.457344 0)
(0.888404 0.459127 0)
(0.887847 0.460988 0)
(0.887377 0.462883 0)
(0.887014 0.464768 0)
(0.886773 0.466599 0)
(0.886662 0.468339 0)
(0.886684 0.469958 0)
(0.886834 0.471431 0)
(0.887107 0.472744 0)
(0.887488 0.473892 0)
(0.887967 0.474875 0)
(0.888528 0.475701 0)
(0.889157 0.476381 0)
(0.889841 0.476929 0)
(0.890568 0.477359 0)
(0.89133 0.477688 0)
(0.892116 0.477928 0)
(0.892921 0.478089 0)
(0.893738 0.478182 0)
(0.894563 0.478209 0)
(0.895393 0.478171 0)
(0.89622 0.478063 0)
(0.897041 0.477879 0)
(0.897847 0.477605 0)
(0.89863 0.477226 0)
(0.899377 0.476725 0)
(0.900076 0.476082 0)
(0.900709 0.475278 0)
(0.901257 0.474297 0)
(0.901701 0.473129 0)
(0.902023 0.47177 0)
(0.902208 0.47023 0)
(0.902246 0.468526 0)
(0.902133 0.46669 0)
(0.901876 0.464765 0)
(0.90149 0.462799 0)
(0.900996 0.460844 0)
(0.900422 0.458952 0)
(0.899797 0.457165 0)
(0.89915 0.455519 0)
(0.898508 0.454036 0)
(0.897893 0.452731 0)
(0.897321 0.451605 0)
(0.896804 0.450653 0)
(0.896347 0.449863 0)
(0.895952 0.44922 0)
(0.895618 0.448706 0)
(0.89534 0.448301 0)
(0.895114 0.447989 0)
(0.894933 0.447752 0)
(0.89479 0.447575 0)
(0.894679 0.447446 0)
(0.894595 0.447354 0)
(0.894532 0.447289 0)
(0.894486 0.447246 0)
(0.894452 0.447217 0)
(0.894429 0.4472 0)
(0.894413 0.44719 0)
(0.894403 0.447185 0)
(0.894397 0.447183 0)
(0.894393 0.447183 0)
(0.894148 0.447553 0)
(0.89403 0.447704 0)
(0.893865 0.447916 0)
(0.893643 0.448209 0)
(0.893353 0.448606 0)
(0.892986 0.449129 0)
(0.892535 0.449804 0)
(0.891998 0.450651 0)
(0.891377 0.451691 0)
(0.890684 0.452934 0)
(0.889934 0.45438 0)
(0.889154 0.45602 0)
(0.888374 0.457829 0)
(0.887625 0.459771 0)
(0.886943 0.461798 0)
(0.886357 0.46386 0)
(0.885896 0.465901 0)
(0.885577 0.46787 0)
(0.88541 0.469719 0)
(0.8854 0.471413 0)
(0.88554 0.472926 0)
(0.885821 0.474244 0)
(0.886227 0.475363 0)
(0.886741 0.476289 0)
(0.887343 0.477035 0)
(0.888018 0.47762 0)
(0.888748 0.478065 0)
(0.889518 0.478393 0)
(0.890318 0.478628 0)
(0.891139 0.47879 0)
(0.891975 0.478899 0)
(0.892821 0.478969 0)
(0.893674 0.479011 0)
(0.894534 0.479031 0)
(0.895398 0.47903 0)
(0.896268 0.479004 0)
(0.897138 0.478944 0)
(0.898007 0.478836 0)
(0.898867 0.478659 0)
(0.89971 0.478389 0)
(0.900521 0.478 0)
(0.901283 0.477462 0)
(0.901977 0.476747 0)
(0.902576 0.475827 0)
(0.903057 0.474685 0)
(0.903395 0.473312 0)
(0.903569 0.471713 0)
(0.903567 0.46991 0)
(0.903385 0.46794 0)
(0.903032 0.465855 0)
(0.902528 0.463716 0)
(0.901903 0.461585 0)
(0.901192 0.459524 0)
(0.900432 0.457586 0)
(0.899658 0.455809 0)
(0.898902 0.45422 0)
(0.898187 0.452831 0)
(0.897533 0.451644 0)
(0.896949 0.45065 0)
(0.89644 0.449834 0)
(0.896006 0.449175 0)
(0.895644 0.448654 0)
(0.895348 0.44825 0)
(0.895109 0.44794 0)
(0.894921 0.447709 0)
(0.894774 0.447538 0)
(0.894662 0.447416 0)
(0.894578 0.44733 0)
(0.894517 0.447271 0)
(0.894472 0.447232 0)
(0.894441 0.447207 0)
(0.89442 0.447193 0)
(0.894406 0.447185 0)
(0.894398 0.447181 0)
(0.894393 0.447181 0)
(0.894038 0.447672 0)
(0.893874 0.447874 0)
(0.893648 0.448157 0)
(0.893348 0.448545 0)
(0.892962 0.449063 0)
(0.892479 0.449741 0)
(0.891894 0.450604 0)
(0.891206 0.451677 0)
(0.890426 0.452975 0)
(0.88957 0.454501 0)
(0.888667 0.456245 0)
(0.88775 0.458181 0)
(0.886862 0.460268 0)
(0.886043 0.462451 0)
(0.885333 0.464664 0)
(0.884765 0.466841 0)
(0.884363 0.468921 0)
(0.884142 0.470847 0)
(0.884104 0.472576 0)
(0.884242 0.474081 0)
(0.884542 0.475347 0)
(0.884984 0.476373 0)
(0.885545 0.477172 0)
(0.886201 0.477763 0)
(0.88693 0.478172 0)
(0.88771 0.478431 0)
(0.888526 0.478571 0)
(0.889363 0.478622 0)
(0.89021 0.478616 0)
(0.891062 0.478576 0)
(0.891914 0.478527 0)
(0.892767 0.478486 0)
(0.89362 0.478464 0)
(0.894478 0.478471 0)
(0.895342 0.478508 0)
(0.896217 0.478572 0)
(0.897103 0.478651 0)
(0.898001 0.478733 0)
(0.89891 0.478793 0)
(0.899822 0.478806 0)
(0.900727 0.478738 0)
(0.90161 0.478552 0)
(0.90245 0.478207 0)
(0.903219 0.477662 0)
(0.903886 0.47688 0)
(0.904418 0.475831 0)
(0.904781 0.474501 0)
(0.90495 0.472892 0)
(0.904908 0.471028 0)
(0.904651 0.468954 0)
(0.904193 0.466734 0)
(0.903561 0.464441 0)
(0.902793 0.462152 0)
(0.901935 0.459941 0)
(0.901031 0.457869 0)
(0.900125 0.45598 0)
(0.899252 0.454303 0)
(0.898439 0.452849 0)
(0.897705 0.451617 0)
(0.897058 0.450595 0)
(0.896502 0.449764 0)
(0.896035 0.449101 0)
(0.89565 0.448582 0)
(0.895339 0.448183 0)
(0.895092 0.447883 0)
(0.894899 0.44766 0)
(0.894752 0.447499 0)
(0.894641 0.447385 0)
(0.894559 0.447306 0)
(0.8945 0.447253 0)
(0.894459 0.447219 0)
(0.89443 0.447198 0)
(0.894411 0.447187 0)
(0.8944 0.447181 0)
(0.894393 0.447179 0)
(0.893891 0.447825 0)
(0.893666 0.448093 0)
(0.893362 0.448465 0)
(0.892964 0.448969 0)
(0.892456 0.449638 0)
(0.891831 0.450502 0)
(0.891083 0.451591 0)
(0.89022 0.452924 0)
(0.889259 0.454511 0)
(0.88823 0.456343 0)
(0.887173 0.458391 0)
(0.886135 0.460607 0)
(0.885169 0.462928 0)
(0.884325 0.465276 0)
(0.883644 0.467572 0)
(0.883157 0.469739 0)
(0.882882 0.471712 0)
(0.882822 0.47344 0)
(0.882967 0.474892 0)
(0.883299 0.476054 0)
(0.883792 0.476931 0)
(0.884416 0.477541 0)
(0.885142 0.47791 0)
(0.885939 0.478076 0)
(0.886782 0.478077 0)
(0.88765 0.477954 0)
(0.888526 0.477747 0)
(0.889399 0.477491 0)
(0.89026 0.477221 0)
(0.891106 0.476965 0)
(0.891939 0.476747 0)
(0.892761 0.476587 0)
(0.893576 0.476496 0)
(0.894392 0.476484 0)
(0.895217 0.476554 0)
(0.896057 0.476703 0)
(0.89692 0.476923 0)
(0.897809 0.477197 0)
(0.898728 0.477505 0)
(0.899674 0.47782 0)
(0.900643 0.478105 0)
(0.901622 0.47832 0)
(0.902593 0.478416 0)
(0.903528 0.47834 0)
(0.904394 0.47804 0)
(0.905149 0.477462 0)
(0.905749 0.476568 0)
(0.906152 0.475332 0)
(0.906323 0.473756 0)
(0.906241 0.471865 0)
(0.905905 0.469715 0)
(0.905333 0.467382 0)
(0.904562 0.464957 0)
(0.903641 0.462531 0)
(0.902627 0.460191 0)
(0.901574 0.458006 0)
(0.900534 0.456027 0)
(0.899546 0.454282 0)
(0.898638 0.452783 0)
(0.897829 0.451524 0)
(0.897126 0.450489 0)
(0.89653 0.449657 0)
(0.896036 0.449 0)
(0.895634 0.448492 0)
(0.895313 0.448105 0)
(0.895062 0.447818 0)
(0.894869 0.447608 0)
(0.894723 0.447458 0)
(0.894616 0.447353 0)
(0.894538 0.447282 0)
(0.894482 0.447236 0)
(0.894444 0.447207 0)
(0.894419 0.44719 0)
(0.894403 0.447182 0)
(0.894394 0.447178 0)
(0.893696 0.44802 0)
(0.893394 0.44837 0)
(0.892991 0.448851 0)
(0.892468 0.449499 0)
(0.891812 0.45035 0)
(0.891014 0.451436 0)
(0.890077 0.452786 0)
(0.889015 0.454411 0)
(0.88786 0.456308 0)
(0.886659 0.458449 0)
(0.885467 0.460779 0)
(0.884345 0.463222 0)
(0.883356 0.46569 0)
(0.882554 0.468087 0)
(0.881978 0.470321 0)
(0.881649 0.472315 0)
(0.881572 0.474011 0)
(0.881737 0.475375 0)
(0.882116 0.476393 0)
(0.882677 0.477076 0)
(0.883382 0.477449 0)
(0.884194 0.477548 0)
(0.885077 0.477419 0)
(0.885997 0.477112 0)
(0.88693 0.476674 0)
(0.887854 0.476152 0)
(0.888756 0.475591 0)
(0.889627 0.47503 0)
(0.890464 0.474503 0)
(0.891267 0.474038 0)
(0.892041 0.473659 0)
(0.892794 0.473385 0)
(0.893534 0.473228 0)
(0.894271 0.473195 0)
(0.895018 0.473291 0)
(0.895785 0.473514 0)
(0.896585 0.473857 0)
(0.897426 0.474307 0)
(0.898315 0.474845 0)
(0.899256 0.475446 0)
(0.900249 0.476076 0)
(0.901286 0.476694 0)
(0.902355 0.477251 0)
(0.903434 0.477689 0)
(0.904489 0.477942 0)
(0.905476 0.477941 0)
(0.906342 0.47762 0)
(0.90703 0.476926 0)
(0.907485 0.475823 0)
(0.907664 0.474311 0)
(0.907541 0.47242 0)
(0.907119 0.470216 0)
(0.906424 0.467791 0)
(0.905503 0.465254 0)
(0.904421 0.462714 0)
(0.903245 0.460268 0)
(0.902043 0.457995 0)
(0.900871 0.455949 0)
(0.899772 0.45416 0)
(0.898777 0.452636 0)
(0.897902 0.451369 0)
(0.897151 0.450338 0)
(0.896524 0.449518 0)
(0.89601 0.448877 0)
(0.895597 0.448387 0)
(0.895272 0.448019 0)
(0.895022 0.447748 0)
(0.894832 0.447553 0)
(0.894691 0.447416 0)
(0.894588 0.447322 0)
(0.894515 0.44726 0)
(0.894464 0.447221 0)
(0.894431 0.447197 0)
(0.894409 0.447184 0)
(0.894396 0.447178 0)
(0.893442 0.448265 0)
(0.893043 0.448716 0)
(0.892515 0.449332 0)
(0.89184 0.450153 0)
(0.891004 0.451219 0)
(0.890004 0.452562 0)
(0.888851 0.454204 0)
(0.887576 0.456144 0)
(0.886229 0.458354 0)
(0.884876 0.460776 0)
(0.88359 0.463328 0)
(0.882447 0.465902 0)
(0.881515 0.468386 0)
(0.880843 0.470673 0)
(0.880461 0.472672 0)
(0.880372 0.474315 0)
(0.880563 0.475565 0)
(0.881003 0.476413 0)
(0.881649 0.476872 0)
(0.882454 0.476979 0)
(0.883371 0.476778 0)
(0.884356 0.476326 0)
(0.88537 0.47568 0)
(0.886381 0.474898 0)
(0.887366 0.474035 0)
(0.888306 0.473139 0)
(0.889193 0.472255 0)
(0.890022 0.47142 0)
(0.890795 0.470668 0)
(0.891517 0.470023 0)
(0.892196 0.469507 0)
(0.892845 0.469136 0)
(0.893475 0.468921 0)
(0.894102 0.468869 0)
(0.894739 0.468984 0)
(0.895403 0.469265 0)
(0.896106 0.469706 0)
(0.896863 0.470298 0)
(0.897684 0.471026 0)
(0.898579 0.471869 0)
(0.899553 0.472798 0)
(0.900605 0.473778 0)
(0.901729 0.474762 0)
(0.90291 0.475696 0)
(0.904121 0.47651 0)
(0.905321 0.477125 0)
(0.906455 0.477458 0)
(0.907455 0.477425 0)
(0.908249 0.476957 0)
(0.908767 0.476011 0)
(0.908955 0.474581 0)
(0.908788 0.472705 0)
(0.908271 0.470462 0)
(0.907441 0.467962 0)
(0.90636 0.465332 0)
(0.905109 0.462698 0)
(0.90377 0.460171 0)
(0.90242 0.457836 0)
(0.901122 0.455751 0)
(0.899922 0.453942 0)
(0.898849 0.452416 0)
(0.897919 0.45116 0)
(0.897132 0.450148 0)
(0.896482 0.449351 0)
(0.895957 0.448736 0)
(0.895541 0.448271 0)
(0.895218 0.447927 0)
(0.894972 0.447676 0)
(0.894789 0.447499 0)
(0.894655 0.447376 0)
(0.894559 0.447294 0)
(0.894492 0.447241 0)
(0.894447 0.447208 0)
(0.894417 0.447189 0)
(0.894399 0.447179 0)
(0.893114 0.448568 0)
(0.892593 0.449144 0)
(0.891913 0.449923 0)
(0.891054 0.450949 0)
(0.890005 0.452264 0)
(0.888775 0.453896 0)
(0.88739 0.455852 0)
(0.885902 0.458107 0)
(0.884384 0.460602 0)
(0.882926 0.463244 0)
(0.881618 0.465912 0)
(0.880545 0.468475 0)
(0.879769 0.470806 0)
(0.879327 0.4728 0)
(0.879228 0.474381 0)
(0.879453 0.475507 0)
(0.879963 0.476172 0)
(0.880708 0.476397 0)
(0.881629 0.476225 0)
(0.882668 0.475714 0)
(0.883772 0.474931 0)
(0.884896 0.473941 0)
(0.886 0.472811 0)
(0.887057 0.4716 0)
(0.888048 0.470365 0)
(0.88896 0.469151 0)
(0.889788 0.468 0)
(0.890534 0.466946 0)
(0.891206 0.466017 0)
(0.891812 0.465234 0)
(0.892366 0.464615 0)
(0.892882 0.464173 0)
(0.893377 0.463916 0)
(0.893868 0.46385 0)
(0.894372 0.463978 0)
(0.894907 0.464299 0)
(0.895489 0.464811 0)
(0.896135 0.465506 0)
(0.896859 0.466373 0)
(0.897674 0.467397 0)
(0.89859 0.468557 0)
(0.899613 0.469824 0)
(0.900743 0.47116 0)
(0.901975 0.472518 0)
(0.903292 0.473835 0)
(0.904661 0.475034 0)
(0.906033 0.476022 0)
(0.907338 0.476699 0)
(0.908493 0.476963 0)
(0.909405 0.476729 0)
(0.90999 0.475943 0)
(0.910186 0.474598 0)
(0.909964 0.47274 0)
(0.909338 0.470465 0)
(0.908359 0.467901 0)
(0.90711 0.465195 0)
(0.905685 0.46249 0)
(0.904183 0.459908 0)
(0.902691 0.457539 0)
(0.901277 0.45544 0)
(0.899988 0.453637 0)
(0.898852 0.452131 0)
(0.897879 0.450904 0)
(0.897068 0.449926 0)
(0.896407 0.449165 0)
(0.89588 0.448584 0)
(0.895468 0.44815 0)
(0.895152 0.447832 0)
(0.894916 0.447605 0)
(0.894742 0.447447 0)
(0.894617 0.447339 0)
(0.894529 0.447268 0)
(0.894469 0.447223 0)
(0.89443 0.447197 0)
(0.894405 0.447182 0)
(0.892699 0.448943 0)
(0.892026 0.449668 0)
(0.891161 0.450639 0)
(0.890084 0.451904 0)
(0.888793 0.453499 0)
(0.887312 0.455442 0)
(0.885692 0.457715 0)
(0.884012 0.46026 0)
(0.882374 0.462974 0)
(0.88089 0.465725 0)
(0.879661 0.468361 0)
(0.878767 0.470736 0)
(0.878257 0.472727 0)
(0.878143 0.474247 0)
(0.878403 0.475251 0)
(0.878991 0.475735 0)
(0.879843 0.475729 0)
(0.880892 0.475285 0)
(0.882069 0.474474 0)
(0.883307 0.473369 0)
(0.884554 0.472047 0)
(0.885767 0.470581 0)
(0.88691 0.469038 0)
(0.887961 0.467476 0)
(0.888908 0.465946 0)
(0.889745 0.46449 0)
(0.890473 0.463143 0)
(0.891099 0.461934 0)
(0.891635 0.460884 0)
(0.892097 0.460012 0)
(0.892499 0.459329 0)
(0.892861 0.458845 0)
(0.893203 0.458565 0)
(0.893542 0.458493 0)
(0.893897 0.458632 0)
(0.894289 0.45898 0)
(0.894736 0.459536 0)
(0.895254 0.460295 0)
(0.895862 0.461251 0)
(0.896573 0.462394 0)
(0.897403 0.463708 0)
(0.898361 0.465174 0)
(0.899455 0.466764 0)
(0.900687 0.468441 0)
(0.902051 0.470157 0)
(0.903529 0.471843 0)
(0.905082 0.473415 0)
(0.90665 0.474766 0)
(0.908148 0.475775 0)
(0.909471 0.476323 0)
(0.910508 0.476308 0)
(0.911156 0.475668 0)
(0.911346 0.474396 0)
(0.911052 0.472548 0)
(0.910299 0.470239 0)
(0.909157 0.467619 0)
(0.907729 0.464853 0)
(0.906129 0.4621 0)
(0.90447 0.459489 0)
(0.902846 0.457114 0)
(0.90133 0.455029 0)
(0.899968 0.453257 0)
(0.898785 0.451792 0)
(0.897785 0.450611 0)
(0.896963 0.449681 0)
(0.896302 0.448965 0)
(0.895782 0.448425 0)
(0.895381 0.448027 0)
(0.895078 0.447739 0)
(0.894854 0.447537 0)
(0.894693 0.447397 0)
(0.894579 0.447305 0)
(0.8945 0.447245 0)
(0.894448 0.447209 0)
(0.894415 0.447188 0)
(0.892175 0.449398 0)
(0.891321 0.450299 0)
(0.890236 0.451494 0)
(0.888908 0.453029 0)
(0.887351 0.454929 0)
(0.885612 0.457189 0)
(0.883776 0.459756 0)
(0.881955 0.462524 0)
(0.880282 0.465348 0)
(0.87888 0.468056 0)
(0.877851 0.470478 0)
(0.877257 0.472475 0)
(0.877116 0.473947 0)
(0.877405 0.474844 0)
(0.87807 0.475164 0)
(0.879037 0.474945 0)
(0.880223 0.47425 0)
(0.881545 0.473159 0)
(0.882931 0.471758 0)
(0.884317 0.470131 0)
(0.885649 0.468356 0)
(0.886892 0.466507 0)
(0.888017 0.464645 0)
(0.88901 0.462823 0)
(0.889864 0.461084 0)
(0.890581 0.459465 0)
(0.891169 0.457995 0)
(0.891641 0.456695 0)
(0.892013 0.45558 0)
(0.892305 0.454665 0)
(0.892538 0.453956 0)
(0.892731 0.453458 0)
(0.892906 0.453175 0)
(0.893085 0.453108 0)
(0.893287 0.453257 0)
(0.893531 0.453623 0)
(0.893838 0.454203 0)
(0.894223 0.454996 0)
(0.894706 0.455997 0)
(0.895304 0.457203 0)
(0.896032 0.458603 0)
(0.896903 0.460185 0)
(0.897929 0.46193 0)
(0.899118 0.463814 0)
(0.900476 0.465802 0)
(0.901998 0.467846 0)
(0.903661 0.469874 0)
(0.905424 0.47179 0)
(0.90721 0.473474 0)
(0.908916 0.474786 0)
(0.910414 0.475586 0)
(0.911569 0.475758 0)
(0.912266 0.475232 0)
(0.912428 0.474006 0)
(0.912037 0.472152 0)
(0.911135 0.469802 0)
(0.909814 0.46713 0)
(0.908199 0.464321 0)
(0.906426 0.461542 0)
(0.904618 0.458931 0)
(0.902878 0.456578 0)
(0.901279 0.454535 0)
(0.899863 0.452817 0)
(0.898651 0.451412 0)
(0.897641 0.450293 0)
(0.896821 0.449422 0)
(0.896171 0.448759 0)
(0.895667 0.448265 0)
(0.895283 0.447906 0)
(0.894998 0.44765 0)
(0.894791 0.447472 0)
(0.894643 0.447353 0)
(0.894541 0.447274 0)
(0.894473 0.447226 0)
(0.894428 0.447197 0)
(0.891526 0.449946 0)
(0.890454 0.451052 0)
(0.889114 0.4525 0)
(0.887508 0.45433 0)
(0.885672 0.456545 0)
(0.883691 0.459104 0)
(0.881689 0.461903 0)
(0.879815 0.464787 0)
(0.878221 0.467565 0)
(0.877033 0.470047 0)
(0.876332 0.472068 0)
(0.876146 0.473513 0)
(0.876452 0.474327 0)
(0.877187 0.474511 0)
(0.878266 0.474109 0)
(0.879592 0.473195 0)
(0.881069 0.471859 0)
(0.882611 0.470195 0)
(0.884145 0.468297 0)
(0.885612 0.466249 0)
(0.886966 0.464127 0)
(0.888177 0.461996 0)
(0.889229 0.459911 0)
(0.890111 0.457918 0)
(0.890826 0.456053 0)
(0.891381 0.454344 0)
(0.891793 0.452816 0)
(0.892081 0.451481 0)
(0.892264 0.450353 0)
(0.892367 0.449436 0)
(0.892413 0.448735 0)
(0.892427 0.448251 0)
(0.892432 0.447984 0)
(0.892449 0.447933 0)
(0.892498 0.448096 0)
(0.892598 0.448473 0)
(0.892769 0.449063 0)
(0.893027 0.449866 0)
(0.89339 0.45088 0)
(0.893874 0.452105 0)
(0.894496 0.453535 0)
(0.895272 0.455164 0)
(0.896215 0.456982 0)
(0.897338 0.458973 0)
(0.898651 0.461116 0)
(0.900161 0.463379 0)
(0.901866 0.465714 0)
(0.903742 0.468045 0)
(0.905736 0.470267 0)
(0.907758 0.472243 0)
(0.909679 0.473813 0)
(0.911347 0.474817 0)
(0.912604 0.475128 0)
(0.913322 0.474671 0)
(0.913423 0.473456 0)
(0.912903 0.471571 0)
(0.911826 0.469171 0)
(0.91031 0.466453 0)
(0.908505 0.463615 0)
(0.906565 0.460836 0)
(0.904624 0.458252 0)
(0.902787 0.45595 0)
(0.901125 0.453974 0)
(0.899678 0.452331 0)
(0.898455 0.451005 0)
(0.897452 0.44996 0)
(0.896649 0.449156 0)
(0.89602 0.448553 0)
(0.89554 0.448109 0)
(0.89518 0.44779 0)
(0.894916 0.447566 0)
(0.894727 0.447414 0)
(0.894595 0.447313 0)
(0.894506 0.447249 0)
(0.894448 0.44721 0)
(0.89073 0.450597 0)
(0.889405 0.451937 0)
(0.887778 0.453664 0)
(0.885874 0.455801 0)
(0.883769 0.458319 0)
(0.881592 0.461122 0)
(0.87951 0.464052 0)
(0.877704 0.4669 0)
(0.876329 0.469452 0)
(0.875491 0.471519 0)
(0.875232 0.472968 0)
(0.875533 0.473735 0)
(0.876324 0.47382 0)
(0.877506 0.473275 0)
(0.878969 0.47218 0)
(0.880603 0.470639 0)
(0.882309 0.468755 0)
(0.884002 0.466625 0)
(0.885613 0.46434 0)
(0.887094 0.461981 0)
(0.888406 0.459614 0)
(0.889528 0.457296 0)
(0.89045 0.455075 0)
(0.891172 0.452989 0)
(0.891703 0.451067 0)
(0.892058 0.449332 0)
(0.89226 0.447799 0)
(0.892333 0.44648 0)
(0.892303 0.445378 0)
(0.8922 0.444497 0)
(0.892049 0.443835 0)
(0.891877 0.44339 0)
(0.89171 0.443157 0)
(0.891568 0.443133 0)
(0.891472 0.443315 0)
(0.89144 0.443702 0)
(0.891488 0.444292 0)
(0.891632 0.445088 0)
(0.891889 0.44609 0)
(0.892272 0.4473 0)
(0.892799 0.448718 0)
(0.893485 0.450344 0)
(0.894345 0.452171 0)
(0.895392 0.454191 0)
(0.896641 0.456393 0)
(0.898106 0.458759 0)
(0.899797 0.46126 0)
(0.901713 0.463848 0)
(0.903826 0.466442 0)
(0.906072 0.468925 0)
(0.90834 0.471142 0)
(0.910475 0.472914 0)
(0.912295 0.474063 0)
(0.913623 0.474452 0)
(0.914321 0.474012 0)
(0.914319 0.472764 0)
(0.913631 0.470821 0)
(0.912352 0.468363 0)
(0.910628 0.465604 0)
(0.908634 0.462758 0)
(0.906539 0.460005 0)
(0.904484 0.457476 0)
(0.902575 0.455251 0)
(0.900876 0.453366 0)
(0.899419 0.451818 0)
(0.898207 0.450583 0)
(0.897226 0.449623 0)
(0.896452 0.448894 0)
(0.895855 0.448352 0)
(0.895405 0.44796 0)
(0.895073 0.447682 0)
(0.894833 0.447491 0)
(0.894665 0.447362 0)
(0.89455 0.447279 0)
(0.894474 0.447227 0)
(0.889766 0.451358 0)
(0.888154 0.452959 0)
(0.886216 0.454983 0)
(0.884016 0.457422 0)
(0.88168 0.460198 0)
(0.879389 0.463152 0)
(0.877351 0.466067 0)
(0.875758 0.468702 0)
(0.874746 0.470841 0)
(0.874378 0.472329 0)
(0.874642 0.473089 0)
(0.875465 0.47312 0)
(0.876735 0.472476 0)
(0.878327 0.471249 0)
(0.880115 0.469549 0)
(0.881987 0.467485 0)
(0.883848 0.465165 0)
(0.885618 0.462683 0)
(0.887237 0.46012 0)
(0.888665 0.457547 0)
(0.889874 0.455024 0)
(0.89085 0.4526 0)
(0.89159 0.450314 0)
(0.892103 0.448198 0)
(0.892405 0.446276 0)
(0.892521 0.444564 0)
(0.892477 0.443075 0)
(0.892306 0.441812 0)
(0.89204 0.440776 0)
(0.891712 0.439964 0)
(0.891353 0.43937 0)
(0.890992 0.438986 0)
(0.890655 0.438805 0)
(0.890363 0.438821 0)
(0.890136 0.439029 0)
(0.889988 0.439425 0)
(0.889935 0.440008 0)
(0.889988 0.440783 0)
(0.890161 0.441752 0)
(0.890466 0.442921 0)
(0.890918 0.444295 0)
(0.891532 0.445877 0)
(0.892321 0.447666 0)
(0.893301 0.44966 0)
(0.894485 0.451852 0)
(0.895892 0.454234 0)
(0.897539 0.45679 0)
(0.899441 0.459495 0)
(0.901596 0.462299 0)
(0.903972 0.465116 0)
(0.906486 0.467813 0)
(0.909003 0.470215 0)
(0.911336 0.472124 0)
(0.913276 0.473349 0)
(0.914629 0.473749 0)
(0.915254 0.473265 0)
(0.915097 0.471941 0)
(0.914201 0.469915 0)
(0.912694 0.467393 0)
(0.910755 0.464605 0)
(0.908579 0.461772 0)
(0.906348 0.459071 0)
(0.904205 0.456626 0)
(0.902251 0.454505 0)
(0.900541 0.452731 0)
(0.899098 0.451294 0)
(0.897916 0.450161 0)
(0.896973 0.449292 0)
(0.89624 0.448641 0)
(0.895682 0.448164 0)
(0.895268 0.447823 0)
(0.894967 0.447585 0)
(0.894754 0.447424 0)
(0.894607 0.447318 0)
(0.894509 0.447251 0)
(0.888617 0.452238 0)
(0.886686 0.454118 0)
(0.88443 0.456441 0)
(0.881962 0.45915 0)
(0.87947 0.462102 0)
(0.877187 0.465072 0)
(0.875342 0.467799 0)
(0.874114 0.470037 0)
(0.873593 0.471603 0)
(0.873779 0.472402 0)
(0.874599 0.472428 0)
(0.875933 0.471736 0)
(0.877637 0.470425 0)
(0.879574 0.468613 0)
(0.881614 0.466418 0)
(0.883647 0.463948 0)
(0.885586 0.461304 0)
(0.887362 0.458571 0)
(0.888923 0.455822 0)
(0.890236 0.453118 0)
(0.891282 0.45051 0)
(0.892054 0.448041 0)
(0.892559 0.445745 0)
(0.892813 0.44365 0)
(0.89284 0.441774 0)
(0.892671 0.44013 0)
(0.892343 0.438724 0)
(0.891894 0.437556 0)
(0.891365 0.436622 0)
(0.890794 0.435913 0)
(0.890216 0.435417 0)
(0.889663 0.435122 0)
(0.889161 0.435015 0)
(0.888732 0.435087 0)
(0.888393 0.435329 0)
(0.888156 0.435736 0)
(0.888031 0.436308 0)
(0.888025 0.437049 0)
(0.888148 0.437965 0)
(0.888407 0.439066 0)
(0.888815 0.440363 0)
(0.889383 0.441864 0)
(0.890126 0.443576 0)
(0.891058 0.445499 0)
(0.892193 0.447632 0)
(0.893549 0.449968 0)
(0.895146 0.452502 0)
(0.897007 0.455222 0)
(0.899151 0.458103 0)
(0.901575 0.461092 0)
(0.904235 0.464091 0)
(0.907027 0.466951 0)
(0.909783 0.469478 0)
(0.912286 0.471454 0)
(0.914298 0.47268 0)
(0.915614 0.47302 0)
(0.916101 0.472433 0)
(0.915734 0.470992 0)
(0.91459 0.468865 0)
(0.912836 0.466279 0)
(0.910681 0.463478 0)
(0.908338 0.460683 0)
(0.905996 0.458063 0)
(0.903795 0.455728 0)
(0.901826 0.453732 0)
(0.900133 0.452087 0)
(0.898727 0.450772 0)
(0.897593 0.44975 0)
(0.896701 0.448976 0)
(0.896018 0.448403 0)
(0.895507 0.44799 0)
(0.895133 0.447699 0)
(0.894866 0.447499 0)
(0.89468 0.447366 0)
(0.894554 0.447281 0)
(0.887266 0.453236 0)
(0.885001 0.455405 0)
(0.882441 0.458006 0)
(0.879768 0.460918 0)
(0.877236 0.463924 0)
(0.875111 0.466746 0)
(0.873619 0.469105 0)
(0.872891 0.470788 0)
(0.872949 0.471677 0)
(0.873723 0.471749 0)
(0.875085 0.471062 0)
(0.876881 0.46972 0)
(0.878951 0.467845 0)
(0.881154 0.465561 0)
(0.883366 0.462984 0)
(0.885484 0.460216 0)
(0.887431 0.457344 0)
(0.889145 0.454443 0)
(0.890584 0.451579 0)
(0.891721 0.448805 0)
(0.892544 0.446166 0)
(0.893055 0.443702 0)
(0.893267 0.441442 0)
(0.893204 0.43941 0)
(0.892902 0.437621 0)
(0.892399 0.436084 0)
(0.891742 0.434802 0)
(0.890977 0.433769 0)
(0.890153 0.432975 0)
(0.889316 0.432406 0)
(0.888506 0.432044 0)
(0.887757 0.43187 0)
(0.887099 0.431865 0)
(0.88655 0.432014 0)
(0.886126 0.432305 0)
(0.885833 0.43273 0)
(0.885676 0.433287 0)
(0.885655 0.433981 0)
(0.885772 0.434823 0)
(0.886029 0.435827 0)
(0.886434 0.437011 0)
(0.886995 0.438392 0)
(0.887726 0.439982 0)
(0.88864 0.44179 0)
(0.889751 0.443818 0)
(0.891077 0.446063 0)
(0.892636 0.448521 0)
(0.894455 0.451186 0)
(0.896563 0.454049 0)
(0.898982 0.457083 0)
(0.901703 0.460227 0)
(0.904665 0.46337 0)
(0.907735 0.466342 0)
(0.910709 0.468928 0)
(0.913334 0.470895 0)
(0.915353 0.472045 0)
(0.916557 0.472253 0)
(0.916837 0.471509 0)
(0.916201 0.469918 0)
(0.914776 0.467679 0)
(0.912763 0.465038 0)
(0.910401 0.462247 0)
(0.907916 0.459518 0)
(0.905495 0.457007 0)
(0.90327 0.454807 0)
(0.901317 0.452956 0)
(0.899668 0.451453 0)
(0.89832 0.450268 0)
(0.89725 0.44936 0)
(0.896421 0.448681 0)
(0.895796 0.448186 0)
(0.895335 0.447834 0)
(0.895004 0.44759 0)
(0.894771 0.447426 0)
(0.894612 0.447318 0)
(0.885708 0.454348 0)
(0.883109 0.456795 0)
(0.880294 0.459624 0)
(0.877521 0.462635 0)
(0.875095 0.465543 0)
(0.873294 0.468043 0)
(0.872298 0.469879 0)
(0.872166 0.470903 0)
(0.87284 0.471077 0)
(0.874188 0.47045 0)
(0.876041 0.469128 0)
(0.878226 0.46724 0)
(0.880583 0.464915 0)
(0.882971 0.46227 0)
(0.88528 0.459413 0)
(0.887414 0.456433 0)
(0.889302 0.453407 0)
(0.890891 0.450401 0)
(0.892144 0.447475 0)
(0.893041 0.444677 0)
(0.893576 0.442051 0)
(0.89376 0.43963 0)
(0.893613 0.437444 0)
(0.89317 0.435514 0)
(0.892474 0.433852 0)
(0.891577 0.432463 0)
(0.890535 0.431347 0)
(0.889406 0.430493 0)
(0.888249 0.429886 0)
(0.887117 0.429503 0)
(0.886059 0.429319 0)
(0.885112 0.429308 0)
(0.884306 0.429443 0)
(0.883661 0.4297 0)
(0.883185 0.430062 0)
(0.882881 0.430516 0)
(0.882744 0.431061 0)
(0.882766 0.4317 0)
(0.882937 0.432446 0)
(0.883251 0.433321 0)
(0.883708 0.434349 0)
(0.884314 0.435558 0)
(0.885076 0.436972 0)
(0.886011 0.43861 0)
(0.887132 0.44048 0)
(0.888457 0.442586 0)
(0.890004 0.444921 0)
(0.891798 0.447482 0)
(0.893872 0.450263 0)
(0.896262 0.453253 0)
(0.898989 0.456421 0)
(0.902033 0.459693 0)
(0.905307 0.462939 0)
(0.908642 0.465967 0)
(0.911794 0.468541 0)
(0.914476 0.470422 0)
(0.916419 0.471417 0)
(0.917427 0.471429 0)
(0.917424 0.470482 0)
(0.91647 0.46872 0)
(0.914737 0.46637 0)
(0.912467 0.463694 0)
(0.909919 0.460939 0)
(0.907324 0.458307 0)
(0.904861 0.455932 0)
(0.902647 0.453888 0)
(0.900742 0.452196 0)
(0.899162 0.450843 0)
(0.897891 0.449792 0)
(0.896898 0.448998 0)