/*--------------------------------*- C++ -*----------------------------------*\
  =========                 |
  \\      /  F ield         | OpenFOAM: The Open Source CFD Toolbox
   \\    /   O peration     | Website:  https://openfoam.org
    \\  /    A nd           | Version:  6
     \\/     M anipulation  |
\*---------------------------------------------------------------------------*/
FoamFile
{
    version     2.0;
    format      ascii;
    class       volVectorField;
    location    "3.07";
    object      U;
}
// * * * * * * * * * * * * * * * * * * * * * * * * * * * * * * * * * * * * * //

dimensions      [0 1 -1 0 0 0 0];

internalField   nonuniform List<vector> 
5625
(
(0.894402 0.447196 0)
(0.894402 0.447195 0)
(0.894402 0.447194 0)
(0.894403 0.447193 0)
(0.894403 0.447192 0)
(0.894403 0.447191 0)
(0.894403 0.44719 0)
(0.894402 0.447189 0)
(0.894402 0.447188 0)
(0.894401 0.447188 0)
(0.894401 0.447187 0)
(0.8944 0.447188 0)
(0.894399 0.447188 0)
(0.894398 0.447189 0)
(0.894397 0.44719 0)
(0.894396 0.447191 0)
(0.894395 0.447193 0)
(0.894395 0.447195 0)
(0.894394 0.447197 0)
(0.894394 0.4472 0)
(0.894394 0.447202 0)
(0.894394 0.447205 0)
(0.894395 0.447207 0)
(0.894395 0.447209 0)
(0.894396 0.447211 0)
(0.894397 0.447212 0)
(0.894398 0.447213 0)
(0.894399 0.447214 0)
(0.8944 0.447214 0)
(0.8944 0.447214 0)
(0.894401 0.447214 0)
(0.894402 0.447213 0)
(0.894402 0.447212 0)
(0.894402 0.447211 0)
(0.894403 0.44721 0)
(0.894403 0.447209 0)
(0.894403 0.447208 0)
(0.894403 0.447207 0)
(0.894402 0.447206 0)
(0.894402 0.447205 0)
(0.894402 0.447204 0)
(0.894402 0.447203 0)
(0.894401 0.447202 0)
(0.894401 0.447202 0)
(0.894401 0.447201 0)
(0.894401 0.447201 0)
(0.894401 0.447201 0)
(0.8944 0.4472 0)
(0.8944 0.4472 0)
(0.8944 0.4472 0)
(0.8944 0.4472 0)
(0.8944 0.4472 0)
(0.8944 0.4472 0)
(0.8944 0.4472 0)
(0.8944 0.4472 0)
(0.8944 0.4472 0)
(0.8944 0.4472 0)
(0.8944 0.4472 0)
(0.8944 0.4472 0)
(0.8944 0.4472 0)
(0.8944 0.4472 0)
(0.8944 0.4472 0)
(0.8944 0.4472 0)
(0.8944 0.4472 0)
(0.8944 0.4472 0)
(0.8944 0.4472 0)
(0.8944 0.4472 0)
(0.8944 0.4472 0)
(0.8944 0.4472 0)
(0.8944 0.4472 0)
(0.8944 0.4472 0)
(0.8944 0.4472 0)
(0.8944 0.4472 0)
(0.8944 0.4472 0)
(0.8944 0.4472 0)
(0.894403 0.447195 0)
(0.894403 0.447194 0)
(0.894404 0.447193 0)
(0.894404 0.447191 0)
(0.894404 0.44719 0)
(0.894404 0.447188 0)
(0.894403 0.447187 0)
(0.894403 0.447186 0)
(0.894403 0.447185 0)
(0.894402 0.447185 0)
(0.8944 0.447184 0)
(0.894399 0.447184 0)
(0.894398 0.447185 0)
(0.894397 0.447186 0)
(0.894396 0.447187 0)
(0.894395 0.447189 0)
(0.894394 0.447192 0)
(0.894393 0.447195 0)
(0.894392 0.447197 0)
(0.894392 0.447201 0)
(0.894392 0.447204 0)
(0.894392 0.447207 0)
(0.894393 0.44721 0)
(0.894394 0.447212 0)
(0.894395 0.447215 0)
(0.894396 0.447216 0)
(0.894397 0.447218 0)
(0.894398 0.447218 0)
(0.894399 0.447219 0)
(0.8944 0.447218 0)
(0.894401 0.447218 0)
(0.894402 0.447217 0)
(0.894403 0.447216 0)
(0.894403 0.447215 0)
(0.894404 0.447213 0)
(0.894404 0.447212 0)
(0.894404 0.44721 0)
(0.894404 0.447209 0)
(0.894403 0.447207 0)
(0.894403 0.447206 0)
(0.894403 0.447205 0)
(0.894402 0.447204 0)
(0.894402 0.447203 0)
(0.894402 0.447202 0)
(0.894401 0.447202 0)
(0.894401 0.447201 0)
(0.894401 0.447201 0)
(0.894401 0.447201 0)
(0.8944 0.4472 0)
(0.8944 0.4472 0)
(0.8944 0.4472 0)
(0.8944 0.4472 0)
(0.8944 0.4472 0)
(0.8944 0.4472 0)
(0.8944 0.4472 0)
(0.8944 0.4472 0)
(0.8944 0.4472 0)
(0.8944 0.4472 0)
(0.8944 0.4472 0)
(0.8944 0.4472 0)
(0.8944 0.4472 0)
(0.8944 0.4472 0)
(0.8944 0.4472 0)
(0.8944 0.4472 0)
(0.8944 0.4472 0)
(0.8944 0.4472 0)
(0.8944 0.4472 0)
(0.8944 0.4472 0)
(0.8944 0.4472 0)
(0.8944 0.4472 0)
(0.8944 0.4472 0)
(0.8944 0.4472 0)
(0.8944 0.4472 0)
(0.8944 0.4472 0)
(0.8944 0.4472 0)
(0.894404 0.447194 0)
(0.894404 0.447192 0)
(0.894404 0.447191 0)
(0.894405 0.447189 0)
(0.894405 0.447187 0)
(0.894405 0.447185 0)
(0.894404 0.447184 0)
(0.894404 0.447182 0)
(0.894403 0.447181 0)
(0.894402 0.44718 0)
(0.894401 0.44718 0)
(0.894399 0.44718 0)
(0.894397 0.447181 0)
(0.894396 0.447182 0)
(0.894394 0.447185 0)
(0.894393 0.447187 0)
(0.894391 0.447191 0)
(0.89439 0.447194 0)
(0.89439 0.447198 0)
(0.894389 0.447202 0)
(0.894389 0.447206 0)
(0.89439 0.44721 0)
(0.894391 0.447214 0)
(0.894392 0.447217 0)
(0.894393 0.44722 0)
(0.894394 0.447222 0)
(0.894396 0.447224 0)
(0.894398 0.447225 0)
(0.894399 0.447225 0)
(0.894401 0.447225 0)
(0.894402 0.447224 0)
(0.894403 0.447223 0)
(0.894404 0.447221 0)
(0.894405 0.447219 0)
(0.894405 0.447217 0)
(0.894405 0.447215 0)
(0.894405 0.447213 0)
(0.894405 0.447211 0)
(0.894404 0.447209 0)
(0.894404 0.447208 0)
(0.894404 0.447206 0)
(0.894403 0.447205 0)
(0.894403 0.447204 0)
(0.894402 0.447203 0)
(0.894402 0.447202 0)
(0.894401 0.447202 0)
(0.894401 0.447201 0)
(0.894401 0.447201 0)
(0.894401 0.447201 0)
(0.8944 0.4472 0)
(0.8944 0.4472 0)
(0.8944 0.4472 0)
(0.8944 0.4472 0)
(0.8944 0.4472 0)
(0.8944 0.4472 0)
(0.8944 0.4472 0)
(0.8944 0.4472 0)
(0.8944 0.4472 0)
(0.8944 0.4472 0)
(0.8944 0.4472 0)
(0.8944 0.4472 0)
(0.8944 0.4472 0)
(0.8944 0.4472 0)
(0.8944 0.4472 0)
(0.8944 0.4472 0)
(0.8944 0.4472 0)
(0.8944 0.4472 0)
(0.8944 0.4472 0)
(0.8944 0.4472 0)
(0.8944 0.4472 0)
(0.8944 0.4472 0)
(0.8944 0.4472 0)
(0.8944 0.4472 0)
(0.8944 0.4472 0)
(0.8944 0.4472 0)
(0.894405 0.447192 0)
(0.894406 0.44719 0)
(0.894406 0.447188 0)
(0.894406 0.447186 0)
(0.894406 0.447183 0)
(0.894406 0.447181 0)
(0.894406 0.447179 0)
(0.894405 0.447178 0)
(0.894404 0.447176 0)
(0.894402 0.447176 0)
(0.8944 0.447175 0)
(0.894398 0.447176 0)
(0.894396 0.447177 0)
(0.894394 0.447179 0)
(0.894392 0.447182 0)
(0.89439 0.447186 0)
(0.894388 0.44719 0)
(0.894387 0.447195 0)
(0.894386 0.4472 0)
(0.894385 0.447205 0)
(0.894386 0.447211 0)
(0.894386 0.447216 0)
(0.894387 0.44722 0)
(0.894389 0.447224 0)
(0.894391 0.447228 0)
(0.894393 0.44723 0)
(0.894395 0.447232 0)
(0.894397 0.447233 0)
(0.894399 0.447233 0)
(0.894401 0.447233 0)
(0.894403 0.447232 0)
(0.894404 0.44723 0)
(0.894405 0.447228 0)
(0.894406 0.447225 0)
(0.894407 0.447223 0)
(0.894407 0.44722 0)
(0.894407 0.447217 0)
(0.894406 0.447215 0)
(0.894406 0.447212 0)
(0.894405 0.44721 0)
(0.894405 0.447208 0)
(0.894404 0.447206 0)
(0.894403 0.447205 0)
(0.894403 0.447204 0)
(0.894402 0.447203 0)
(0.894402 0.447202 0)
(0.894401 0.447201 0)
(0.894401 0.447201 0)
(0.894401 0.447201 0)
(0.894401 0.4472 0)
(0.8944 0.4472 0)
(0.8944 0.4472 0)
(0.8944 0.4472 0)
(0.8944 0.4472 0)
(0.8944 0.4472 0)
(0.8944 0.4472 0)
(0.8944 0.4472 0)
(0.8944 0.4472 0)
(0.8944 0.4472 0)
(0.8944 0.4472 0)
(0.8944 0.4472 0)
(0.8944 0.4472 0)
(0.8944 0.4472 0)
(0.8944 0.4472 0)
(0.8944 0.4472 0)
(0.8944 0.4472 0)
(0.8944 0.4472 0)
(0.8944 0.4472 0)
(0.8944 0.4472 0)
(0.8944 0.4472 0)
(0.8944 0.4472 0)
(0.8944 0.4472 0)
(0.8944 0.4472 0)
(0.8944 0.4472 0)
(0.8944 0.4472 0)
(0.894406 0.44719 0)
(0.894407 0.447188 0)
(0.894408 0.447185 0)
(0.894408 0.447182 0)
(0.894408 0.44718 0)
(0.894408 0.447177 0)
(0.894407 0.447175 0)
(0.894406 0.447172 0)
(0.894404 0.447171 0)
(0.894403 0.447171 0)
(0.8944 0.447171 0)
(0.894397 0.447172 0)
(0.894394 0.447174 0)
(0.894391 0.447177 0)
(0.894389 0.447181 0)
(0.894386 0.447186 0)
(0.894384 0.447192 0)
(0.894383 0.447198 0)
(0.894381 0.447205 0)
(0.894381 0.447211 0)
(0.894381 0.447218 0)
(0.894382 0.447224 0)
(0.894384 0.44723 0)
(0.894386 0.447235 0)
(0.894388 0.447239 0)
(0.894391 0.447241 0)
(0.894394 0.447244 0)
(0.894397 0.447245 0)
(0.894399 0.447244 0)
(0.894402 0.447243 0)
(0.894404 0.447242 0)
(0.894406 0.447239 0)
(0.894407 0.447236 0)
(0.894408 0.447233 0)
(0.894409 0.447229 0)
(0.894409 0.447226 0)
(0.894409 0.447222 0)
(0.894409 0.447219 0)
(0.894408 0.447216 0)
(0.894407 0.447213 0)
(0.894406 0.44721 0)
(0.894405 0.447208 0)
(0.894405 0.447206 0)
(0.894404 0.447205 0)
(0.894403 0.447203 0)
(0.894402 0.447203 0)
(0.894402 0.447202 0)
(0.894401 0.447201 0)
(0.894401 0.447201 0)
(0.894401 0.447201 0)
(0.8944 0.4472 0)
(0.8944 0.4472 0)
(0.8944 0.4472 0)
(0.8944 0.4472 0)
(0.8944 0.4472 0)
(0.8944 0.4472 0)
(0.8944 0.4472 0)
(0.8944 0.4472 0)
(0.8944 0.4472 0)
(0.8944 0.4472 0)
(0.8944 0.4472 0)
(0.8944 0.4472 0)
(0.8944 0.4472 0)
(0.8944 0.4472 0)
(0.8944 0.4472 0)
(0.8944 0.4472 0)
(0.8944 0.4472 0)
(0.8944 0.4472 0)
(0.8944 0.4472 0)
(0.8944 0.4472 0)
(0.8944 0.4472 0)
(0.8944 0.4472 0)
(0.8944 0.4472 0)
(0.8944 0.4472 0)
(0.8944 0.4472 0)
(0.894408 0.447188 0)
(0.894409 0.447185 0)
(0.89441 0.447182 0)
(0.89441 0.447178 0)
(0.89441 0.447175 0)
(0.89441 0.447172 0)
(0.894409 0.447169 0)
(0.894407 0.447167 0)
(0.894405 0.447166 0)
(0.894402 0.447165 0)
(0.894399 0.447166 0)
(0.894396 0.447168 0)
(0.894392 0.447171 0)
(0.894388 0.447176 0)
(0.894384 0.447182 0)
(0.894381 0.447188 0)
(0.894378 0.447196 0)
(0.894376 0.447204 0)
(0.894375 0.447213 0)
(0.894375 0.447221 0)
(0.894375 0.447229 0)
(0.894376 0.447237 0)
(0.894378 0.447244 0)
(0.894381 0.44725 0)
(0.894385 0.447254 0)
(0.894388 0.447258 0)
(0.894392 0.44726 0)
(0.894396 0.44726 0)
(0.894399 0.44726 0)
(0.894403 0.447258 0)
(0.894406 0.447255 0)
(0.894408 0.447252 0)
(0.89441 0.447247 0)
(0.894411 0.447243 0)
(0.894412 0.447238 0)
(0.894412 0.447233 0)
(0.894412 0.447229 0)
(0.894411 0.447224 0)
(0.89441 0.44722 0)
(0.894409 0.447217 0)
(0.894408 0.447213 0)
(0.894407 0.44721 0)
(0.894406 0.447208 0)
(0.894405 0.447206 0)
(0.894404 0.447204 0)
(0.894403 0.447203 0)
(0.894402 0.447202 0)
(0.894402 0.447201 0)
(0.894401 0.447201 0)
(0.894401 0.447201 0)
(0.894401 0.4472 0)
(0.8944 0.4472 0)
(0.8944 0.4472 0)
(0.8944 0.4472 0)
(0.8944 0.4472 0)
(0.8944 0.4472 0)
(0.8944 0.4472 0)
(0.8944 0.4472 0)
(0.8944 0.4472 0)
(0.8944 0.4472 0)
(0.8944 0.4472 0)
(0.8944 0.4472 0)
(0.8944 0.4472 0)
(0.8944 0.4472 0)
(0.8944 0.4472 0)
(0.8944 0.4472 0)
(0.8944 0.4472 0)
(0.8944 0.4472 0)
(0.8944 0.4472 0)
(0.8944 0.4472 0)
(0.8944 0.4472 0)
(0.8944 0.4472 0)
(0.8944 0.4472 0)
(0.8944 0.4472 0)
(0.8944 0.4472 0)
(0.894411 0.447185 0)
(0.894412 0.447181 0)
(0.894413 0.447178 0)
(0.894413 0.447174 0)
(0.894413 0.44717 0)
(0.894412 0.447167 0)
(0.89441 0.447164 0)
(0.894408 0.447162 0)
(0.894405 0.447161 0)
(0.894401 0.447161 0)
(0.894397 0.447163 0)
(0.894393 0.447167 0)
(0.894387 0.447172 0)
(0.894382 0.447178 0)
(0.894378 0.447186 0)
(0.894374 0.447196 0)
(0.89437 0.447206 0)
(0.894368 0.447217 0)
(0.894367 0.447228 0)
(0.894366 0.447238 0)
(0.894367 0.447248 0)
(0.894369 0.447258 0)
(0.894372 0.447266 0)
(0.894376 0.447272 0)
(0.89438 0.447277 0)
(0.894385 0.44728 0)
(0.89439 0.447282 0)
(0.894395 0.447282 0)
(0.8944 0.44728 0)
(0.894404 0.447277 0)
(0.894408 0.447273 0)
(0.894411 0.447268 0)
(0.894413 0.447262 0)
(0.894415 0.447256 0)
(0.894416 0.447249 0)
(0.894416 0.447243 0)
(0.894416 0.447237 0)
(0.894415 0.447231 0)
(0.894414 0.447226 0)
(0.894412 0.447221 0)
(0.894411 0.447217 0)
(0.894409 0.447213 0)
(0.894408 0.44721 0)
(0.894406 0.447207 0)
(0.894405 0.447205 0)
(0.894404 0.447204 0)
(0.894403 0.447203 0)
(0.894402 0.447202 0)
(0.894402 0.447201 0)
(0.894401 0.447201 0)
(0.894401 0.4472 0)
(0.894401 0.4472 0)
(0.8944 0.4472 0)
(0.8944 0.4472 0)
(0.8944 0.4472 0)
(0.8944 0.4472 0)
(0.8944 0.4472 0)
(0.8944 0.4472 0)
(0.8944 0.4472 0)
(0.8944 0.4472 0)
(0.8944 0.4472 0)
(0.8944 0.4472 0)
(0.8944 0.4472 0)
(0.8944 0.4472 0)
(0.8944 0.4472 0)
(0.8944 0.4472 0)
(0.8944 0.4472 0)
(0.8944 0.4472 0)
(0.8944 0.4472 0)
(0.8944 0.4472 0)
(0.8944 0.4472 0)
(0.8944 0.4472 0)
(0.8944 0.4472 0)
(0.8944 0.4472 0)
(0.8944 0.4472 0)
(0.894413 0.447182 0)
(0.894414 0.447178 0)
(0.894415 0.447174 0)
(0.894416 0.44717 0)
(0.894415 0.447165 0)
(0.894414 0.447162 0)
(0.894412 0.447159 0)
(0.894409 0.447158 0)
(0.894405 0.447158 0)
(0.894399 0.447159 0)
(0.894394 0.447163 0)
(0.894388 0.447169 0)
(0.894381 0.447177 0)
(0.894375 0.447186 0)
(0.894369 0.447198 0)
(0.894364 0.44721 0)
(0.89436 0.447224 0)
(0.894357 0.447238 0)
(0.894356 0.447252 0)
(0.894356 0.447266 0)
(0.894357 0.447278 0)
(0.89436 0.447289 0)
(0.894364 0.447298 0)
(0.89437 0.447306 0)
(0.894376 0.44731 0)
(0.894382 0.447313 0)
(0.894388 0.447313 0)
(0.894395 0.447312 0)
(0.894401 0.447308 0)
(0.894407 0.447303 0)
(0.894411 0.447297 0)
(0.894415 0.447289 0)
(0.894418 0.447281 0)
(0.89442 0.447272 0)
(0.894421 0.447264 0)
(0.894421 0.447255 0)
(0.894421 0.447247 0)
(0.894419 0.447239 0)
(0.894418 0.447232 0)
(0.894416 0.447226 0)
(0.894414 0.447221 0)
(0.894412 0.447216 0)
(0.89441 0.447212 0)
(0.894408 0.447209 0)
(0.894407 0.447207 0)
(0.894405 0.447204 0)
(0.894404 0.447203 0)
(0.894403 0.447202 0)
(0.894402 0.447201 0)
(0.894402 0.447201 0)
(0.894401 0.4472 0)
(0.894401 0.4472 0)
(0.8944 0.4472 0)
(0.8944 0.4472 0)
(0.8944 0.4472 0)
(0.8944 0.4472 0)
(0.8944 0.4472 0)
(0.8944 0.4472 0)
(0.8944 0.4472 0)
(0.8944 0.4472 0)
(0.8944 0.4472 0)
(0.8944 0.4472 0)
(0.8944 0.4472 0)
(0.8944 0.4472 0)
(0.8944 0.4472 0)
(0.8944 0.4472 0)
(0.8944 0.4472 0)
(0.8944 0.4472 0)
(0.8944 0.4472 0)
(0.8944 0.4472 0)
(0.8944 0.4472 0)
(0.8944 0.4472 0)
(0.8944 0.4472 0)
(0.8944 0.4472 0)
(0.8944 0.4472 0)
(0.894416 0.447179 0)
(0.894418 0.447174 0)
(0.894419 0.44717 0)
(0.894419 0.447165 0)
(0.894418 0.447161 0)
(0.894416 0.447158 0)
(0.894412 0.447156 0)
(0.894408 0.447156 0)
(0.894402 0.447158 0)
(0.894395 0.447162 0)
(0.894388 0.447168 0)
(0.89438 0.447178 0)
(0.894371 0.44719 0)
(0.894363 0.447204 0)
(0.894356 0.44722 0)
(0.89435 0.447238 0)
(0.894345 0.447256 0)
(0.894342 0.447274 0)
(0.894341 0.447292 0)
(0.894342 0.447309 0)
(0.894345 0.447325 0)
(0.894349 0.447338 0)
(0.894355 0.447348 0)
(0.894362 0.447355 0)
(0.894371 0.447359 0)
(0.894379 0.447361 0)
(0.894387 0.447359 0)
(0.894396 0.447354 0)
(0.894403 0.447348 0)
(0.89441 0.447339 0)
(0.894416 0.447329 0)
(0.894421 0.447318 0)
(0.894424 0.447306 0)
(0.894427 0.447294 0)
(0.894428 0.447283 0)
(0.894428 0.447271 0)
(0.894427 0.44726 0)
(0.894425 0.44725 0)
(0.894423 0.447241 0)
(0.894421 0.447233 0)
(0.894418 0.447226 0)
(0.894416 0.44722 0)
(0.894413 0.447215 0)
(0.894411 0.447211 0)
(0.894409 0.447208 0)
(0.894407 0.447205 0)
(0.894405 0.447203 0)
(0.894404 0.447202 0)
(0.894403 0.447201 0)
(0.894402 0.4472 0)
(0.894401 0.4472 0)
(0.894401 0.4472 0)
(0.8944 0.4472 0)
(0.8944 0.4472 0)
(0.8944 0.4472 0)
(0.8944 0.4472 0)
(0.8944 0.4472 0)
(0.8944 0.4472 0)
(0.8944 0.4472 0)
(0.8944 0.4472 0)
(0.8944 0.4472 0)
(0.8944 0.4472 0)
(0.8944 0.4472 0)
(0.8944 0.4472 0)
(0.8944 0.4472 0)
(0.8944 0.4472 0)
(0.8944 0.4472 0)
(0.8944 0.4472 0)
(0.8944 0.4472 0)
(0.8944 0.4472 0)
(0.8944 0.4472 0)
(0.8944 0.4472 0)
(0.8944 0.4472 0)
(0.8944 0.4472 0)
(0.8944 0.4472 0)
(0.89442 0.447176 0)
(0.894421 0.447171 0)
(0.894422 0.447166 0)
(0.894422 0.447162 0)
(0.89442 0.447158 0)
(0.894417 0.447156 0)
(0.894412 0.447156 0)
(0.894405 0.447158 0)
(0.894398 0.447164 0)
(0.894388 0.447172 0)
(0.894378 0.447183 0)
(0.894367 0.447198 0)
(0.894357 0.447216 0)
(0.894347 0.447237 0)
(0.894338 0.44726 0)
(0.89433 0.447284 0)
(0.894325 0.447309 0)
(0.894322 0.447333 0)
(0.894322 0.447357 0)
(0.894324 0.447378 0)
(0.894328 0.447396 0)
(0.894335 0.447411 0)
(0.894344 0.447422 0)
(0.894354 0.447428 0)
(0.894365 0.447431 0)
(0.894376 0.447429 0)
(0.894387 0.447424 0)
(0.894398 0.447415 0)
(0.894408 0.447403 0)
(0.894417 0.44739 0)
(0.894424 0.447374 0)
(0.894429 0.447357 0)
(0.894433 0.447341 0)
(0.894436 0.447324 0)
(0.894437 0.447307 0)
(0.894436 0.447292 0)
(0.894435 0.447277 0)
(0.894433 0.447264 0)
(0.89443 0.447252 0)
(0.894427 0.447241 0)
(0.894424 0.447232 0)
(0.89442 0.447224 0)
(0.894417 0.447218 0)
(0.894414 0.447213 0)
(0.894411 0.447209 0)
(0.894409 0.447206 0)
(0.894406 0.447204 0)
(0.894405 0.447202 0)
(0.894403 0.447201 0)
(0.894402 0.4472 0)
(0.894401 0.4472 0)
(0.894401 0.4472 0)
(0.894401 0.447199 0)
(0.8944 0.447199 0)
(0.8944 0.447199 0)
(0.8944 0.4472 0)
(0.8944 0.4472 0)
(0.8944 0.4472 0)
(0.8944 0.4472 0)
(0.8944 0.4472 0)
(0.8944 0.4472 0)
(0.8944 0.4472 0)
(0.8944 0.4472 0)
(0.8944 0.4472 0)
(0.8944 0.4472 0)
(0.8944 0.4472 0)
(0.8944 0.4472 0)
(0.8944 0.4472 0)
(0.8944 0.4472 0)
(0.8944 0.4472 0)
(0.8944 0.4472 0)
(0.8944 0.4472 0)
(0.8944 0.4472 0)
(0.8944 0.4472 0)
(0.8944 0.4472 0)
(0.894423 0.447174 0)
(0.894425 0.447169 0)
(0.894425 0.447165 0)
(0.894424 0.447161 0)
(0.894421 0.447159 0)
(0.894416 0.447159 0)
(0.894408 0.447161 0)
(0.894399 0.447168 0)
(0.894388 0.447179 0)
(0.894376 0.447193 0)
(0.894362 0.447212 0)
(0.894349 0.447235 0)
(0.894335 0.447262 0)
(0.894322 0.447293 0)
(0.894311 0.447325 0)
(0.894303 0.447359 0)
(0.894297 0.447393 0)
(0.894295 0.447426 0)
(0.894296 0.447456 0)
(0.8943 0.447482 0)
(0.894307 0.447504 0)
(0.894318 0.447521 0)
(0.89433 0.447532 0)
(0.894344 0.447537 0)
(0.894359 0.447536 0)
(0.894374 0.447529 0)
(0.894389 0.447518 0)
(0.894403 0.447502 0)
(0.894415 0.447482 0)
(0.894426 0.44746 0)
(0.894435 0.447437 0)
(0.894441 0.447412 0)
(0.894446 0.447388 0)
(0.894448 0.447363 0)
(0.894449 0.44734 0)
(0.894448 0.447319 0)
(0.894446 0.447299 0)
(0.894443 0.447281 0)
(0.894439 0.447266 0)
(0.894435 0.447252 0)
(0.89443 0.44724 0)
(0.894426 0.44723 0)
(0.894421 0.447222 0)
(0.894417 0.447216 0)
(0.894414 0.447211 0)
(0.894411 0.447207 0)
(0.894408 0.447204 0)
(0.894406 0.447202 0)
(0.894404 0.447201 0)
(0.894403 0.4472 0)
(0.894402 0.447199 0)
(0.894401 0.447199 0)
(0.894401 0.447199 0)
(0.8944 0.447199 0)
(0.8944 0.447199 0)
(0.8944 0.447199 0)
(0.8944 0.447199 0)
(0.8944 0.4472 0)
(0.8944 0.4472 0)
(0.8944 0.4472 0)
(0.8944 0.4472 0)
(0.8944 0.4472 0)
(0.8944 0.4472 0)
(0.8944 0.4472 0)
(0.8944 0.4472 0)
(0.8944 0.4472 0)
(0.8944 0.4472 0)
(0.8944 0.4472 0)
(0.8944 0.4472 0)
(0.8944 0.4472 0)
(0.8944 0.4472 0)
(0.8944 0.4472 0)
(0.8944 0.4472 0)
(0.8944 0.4472 0)
(0.8944 0.4472 0)
(0.894427 0.447174 0)
(0.894428 0.447169 0)
(0.894427 0.447166 0)
(0.894424 0.447164 0)
(0.894419 0.447165 0)
(0.894411 0.447169 0)
(0.894401 0.447177 0)
(0.894388 0.44719 0)
(0.894373 0.447209 0)
(0.894356 0.447234 0)
(0.894338 0.447264 0)
(0.89432 0.447299 0)
(0.894302 0.44734 0)
(0.894287 0.447384 0)
(0.894273 0.44743 0)
(0.894264 0.447477 0)
(0.894258 0.447523 0)
(0.894257 0.447567 0)
(0.89426 0.447606 0)
(0.894268 0.447639 0)
(0.89428 0.447666 0)
(0.894295 0.447684 0)
(0.894313 0.447694 0)
(0.894333 0.447695 0)
(0.894354 0.447687 0)
(0.894374 0.447673 0)
(0.894394 0.447652 0)
(0.894412 0.447625 0)
(0.894428 0.447594 0)
(0.894441 0.44756 0)
(0.894451 0.447524 0)
(0.894459 0.447488 0)
(0.894464 0.447452 0)
(0.894466 0.447417 0)
(0.894466 0.447385 0)
(0.894464 0.447355 0)
(0.894461 0.447328 0)
(0.894456 0.447304 0)
(0.894451 0.447283 0)
(0.894445 0.447266 0)
(0.894439 0.44725 0)
(0.894433 0.447238 0)
(0.894427 0.447227 0)
(0.894422 0.447219 0)
(0.894417 0.447213 0)
(0.894413 0.447208 0)
(0.89441 0.447205 0)
(0.894407 0.447202 0)
(0.894405 0.447201 0)
(0.894403 0.4472 0)
(0.894402 0.447199 0)
(0.894401 0.447199 0)
(0.894401 0.447199 0)
(0.8944 0.447199 0)
(0.8944 0.447199 0)
(0.8944 0.447199 0)
(0.8944 0.447199 0)
(0.8944 0.447199 0)
(0.8944 0.4472 0)
(0.8944 0.4472 0)
(0.8944 0.4472 0)
(0.8944 0.4472 0)
(0.8944 0.4472 0)
(0.8944 0.4472 0)
(0.8944 0.4472 0)
(0.8944 0.4472 0)
(0.8944 0.4472 0)
(0.8944 0.4472 0)
(0.8944 0.4472 0)
(0.8944 0.4472 0)
(0.8944 0.4472 0)
(0.8944 0.4472 0)
(0.8944 0.4472 0)
(0.8944 0.4472 0)
(0.8944 0.4472 0)
(0.89443 0.447176 0)
(0.894429 0.447173 0)
(0.894427 0.447172 0)
(0.894422 0.447173 0)
(0.894413 0.447179 0)
(0.894402 0.44719 0)
(0.894386 0.447207 0)
(0.894368 0.447231 0)
(0.894347 0.447262 0)
(0.894324 0.447302 0)
(0.8943 0.447348 0)
(0.894276 0.447402 0)
(0.894253 0.447461 0)
(0.894234 0.447525 0)
(0.894219 0.447591 0)
(0.894208 0.447656 0)
(0.894203 0.447719 0)
(0.894204 0.447777 0)
(0.894212 0.447828 0)
(0.894225 0.44787 0)
(0.894243 0.447902 0)
(0.894266 0.447921 0)
(0.894293 0.447929 0)
(0.894321 0.447924 0)
(0.894349 0.447907 0)
(0.894377 0.44788 0)
(0.894403 0.447844 0)
(0.894426 0.447801 0)
(0.894447 0.447752 0)
(0.894463 0.4477 0)
(0.894476 0.447647 0)
(0.894484 0.447593 0)
(0.894489 0.447541 0)
(0.894491 0.447492 0)
(0.894489 0.447446 0)
(0.894486 0.447405 0)
(0.89448 0.447368 0)
(0.894474 0.447335 0)
(0.894466 0.447307 0)
(0.894458 0.447283 0)
(0.89445 0.447263 0)
(0.894442 0.447247 0)
(0.894435 0.447234 0)
(0.894428 0.447223 0)
(0.894422 0.447215 0)
(0.894417 0.44721 0)
(0.894412 0.447205 0)
(0.894409 0.447202 0)
(0.894406 0.4472 0)
(0.894404 0.447199 0)
(0.894402 0.447198 0)
(0.894401 0.447198 0)
(0.894401 0.447198 0)
(0.8944 0.447198 0)
(0.8944 0.447198 0)
(0.8944 0.447199 0)
(0.8944 0.447199 0)
(0.8944 0.447199 0)
(0.8944 0.447199 0)
(0.8944 0.447199 0)
(0.8944 0.4472 0)
(0.8944 0.4472 0)
(0.8944 0.4472 0)
(0.8944 0.4472 0)
(0.8944 0.4472 0)
(0.8944 0.4472 0)
(0.8944 0.4472 0)
(0.8944 0.4472 0)
(0.8944 0.4472 0)
(0.8944 0.4472 0)
(0.8944 0.4472 0)
(0.8944 0.4472 0)
(0.8944 0.4472 0)
(0.8944 0.4472 0)
(0.8944 0.4472 0)
(0.894431 0.447181 0)
(0.894428 0.447181 0)
(0.894423 0.447185 0)
(0.894414 0.447192 0)
(0.894401 0.447206 0)
(0.894383 0.447228 0)
(0.894361 0.447258 0)
(0.894335 0.447299 0)
(0.894305 0.447349 0)
(0.894274 0.44741 0)
(0.894241 0.447481 0)
(0.89421 0.44756 0)
(0.894182 0.447646 0)
(0.894158 0.447737 0)
(0.89414 0.44783 0)
(0.894129 0.447921 0)
(0.894125 0.448007 0)
(0.894131 0.448085 0)
(0.894145 0.448152 0)
(0.894166 0.448205 0)
(0.894195 0.448242 0)
(0.894228 0.448262 0)
(0.894266 0.448265 0)
(0.894306 0.44825 0)
(0.894345 0.448219 0)
(0.894383 0.448174 0)
(0.894418 0.448116 0)
(0.894449 0.448049 0)
(0.894475 0.447975 0)
(0.894496 0.447898 0)
(0.894511 0.447819 0)
(0.894521 0.447741 0)
(0.894525 0.447666 0)
(0.894525 0.447595 0)
(0.894522 0.447531 0)
(0.894516 0.447473 0)
(0.894507 0.447421 0)
(0.894497 0.447377 0)
(0.894486 0.447339 0)
(0.894475 0.447306 0)
(0.894464 0.44728 0)
(0.894454 0.447259 0)
(0.894444 0.447242 0)
(0.894435 0.447228 0)
(0.894427 0.447218 0)
(0.894421 0.447211 0)
(0.894415 0.447206 0)
(0.894411 0.447202 0)
(0.894407 0.4472 0)
(0.894405 0.447198 0)
(0.894403 0.447197 0)
(0.894401 0.447197 0)
(0.894401 0.447197 0)
(0.8944 0.447197 0)
(0.8944 0.447198 0)
(0.894399 0.447198 0)
(0.894399 0.447198 0)
(0.894399 0.447199 0)
(0.894399 0.447199 0)
(0.8944 0.447199 0)
(0.8944 0.447199 0)
(0.8944 0.4472 0)
(0.8944 0.4472 0)
(0.8944 0.4472 0)
(0.8944 0.4472 0)
(0.8944 0.4472 0)
(0.8944 0.4472 0)
(0.8944 0.4472 0)
(0.8944 0.4472 0)
(0.8944 0.4472 0)
(0.8944 0.4472 0)
(0.8944 0.4472 0)
(0.8944 0.4472 0)
(0.8944 0.4472 0)
(0.8944 0.4472 0)
(0.894429 0.447193 0)
(0.894423 0.447198 0)
(0.894414 0.447209 0)
(0.894399 0.447226 0)
(0.894378 0.447253 0)
(0.894351 0.447291 0)
(0.894319 0.447341 0)
(0.894282 0.447406 0)
(0.894241 0.447484 0)
(0.894198 0.447575 0)
(0.894154 0.44768 0)
(0.894114 0.447796 0)
(0.894077 0.44792 0)
(0.894048 0.448048 0)
(0.894027 0.448178 0)
(0.894016 0.448303 0)
(0.894016 0.44842 0)
(0.894028 0.448525 0)
(0.894052 0.448612 0)
(0.894086 0.448679 0)
(0.894129 0.448724 0)
(0.894178 0.448744 0)
(0.894232 0.448739 0)
(0.894288 0.44871 0)
(0.894344 0.448659 0)
(0.894396 0.448587 0)
(0.894443 0.448499 0)
(0.894484 0.448398 0)
(0.894518 0.448288 0)
(0.894544 0.448174 0)
(0.894562 0.448059 0)
(0.894572 0.447946 0)
(0.894576 0.447839 0)
(0.894574 0.447739 0)
(0.894567 0.447647 0)
(0.894556 0.447566 0)
(0.894543 0.447495 0)
(0.894529 0.447434 0)
(0.894513 0.447382 0)
(0.894498 0.447338 0)
(0.894483 0.447303 0)
(0.894468 0.447275 0)
(0.894456 0.447252 0)
(0.894444 0.447235 0)
(0.894434 0.447222 0)
(0.894426 0.447213 0)
(0.894419 0.447206 0)
(0.894413 0.447201 0)
(0.894409 0.447199 0)
(0.894406 0.447197 0)
(0.894403 0.447196 0)
(0.894401 0.447196 0)
(0.8944 0.447196 0)
(0.8944 0.447196 0)
(0.894399 0.447197 0)
(0.894399 0.447197 0)
(0.894399 0.447198 0)
(0.894399 0.447198 0)
(0.894399 0.447199 0)
(0.894399 0.447199 0)
(0.8944 0.447199 0)
(0.8944 0.4472 0)
(0.8944 0.4472 0)
(0.8944 0.4472 0)
(0.8944 0.4472 0)
(0.8944 0.4472 0)
(0.8944 0.4472 0)
(0.8944 0.4472 0)
(0.8944 0.4472 0)
(0.8944 0.4472 0)
(0.8944 0.4472 0)
(0.8944 0.4472 0)
(0.8944 0.4472 0)
(0.8944 0.4472 0)
(0.8944 0.4472 0)
(0.894422 0.447213 0)
(0.894412 0.447227 0)
(0.894395 0.447248 0)
(0.894371 0.447281 0)
(0.894339 0.447327 0)
(0.8943 0.447389 0)
(0.894253 0.447469 0)
(0.8942 0.447567 0)
(0.894144 0.447684 0)
(0.894085 0.447819 0)
(0.894027 0.447971 0)
(0.893973 0.448137 0)
(0.893927 0.448312 0)
(0.89389 0.448491 0)
(0.893866 0.44867 0)
(0.893857 0.448842 0)
(0.893863 0.449001 0)
(0.893886 0.44914 0)
(0.893923 0.449255 0)
(0.893975 0.44934 0)
(0.894038 0.449394 0)
(0.89411 0.449413 0)
(0.894187 0.449398 0)
(0.894266 0.449349 0)
(0.894343 0.449269 0)
(0.894415 0.449161 0)
(0.89448 0.44903 0)
(0.894535 0.448882 0)
(0.894579 0.448723 0)
(0.894612 0.448558 0)
(0.894634 0.448393 0)
(0.894645 0.448232 0)
(0.894647 0.448079 0)
(0.894641 0.447937 0)
(0.894629 0.447809 0)
(0.894613 0.447695 0)
(0.894593 0.447596 0)
(0.894572 0.447511 0)
(0.89455 0.44744 0)
(0.894528 0.447381 0)
(0.894507 0.447334 0)
(0.894488 0.447296 0)
(0.894471 0.447267 0)
(0.894456 0.447244 0)
(0.894443 0.447227 0)
(0.894432 0.447215 0)
(0.894423 0.447207 0)
(0.894416 0.447201 0)
(0.894411 0.447197 0)
(0.894406 0.447195 0)
(0.894403 0.447194 0)
(0.894401 0.447194 0)
(0.8944 0.447195 0)
(0.894399 0.447195 0)
(0.894399 0.447196 0)
(0.894399 0.447197 0)
(0.894399 0.447197 0)
(0.894399 0.447198 0)
(0.894399 0.447198 0)
(0.894399 0.447199 0)
(0.894399 0.447199 0)
(0.894399 0.447199 0)
(0.8944 0.4472 0)
(0.8944 0.4472 0)
(0.8944 0.4472 0)
(0.8944 0.4472 0)
(0.8944 0.4472 0)
(0.8944 0.4472 0)
(0.8944 0.4472 0)
(0.8944 0.4472 0)
(0.8944 0.4472 0)
(0.8944 0.4472 0)
(0.8944 0.4472 0)
(0.8944 0.4472 0)
(0.8944 0.4472 0)
(0.894407 0.447246 0)
(0.894389 0.447272 0)
(0.894361 0.447311 0)
(0.894324 0.447366 0)
(0.894277 0.44744 0)
(0.894219 0.447537 0)
(0.894153 0.447657 0)
(0.894079 0.447803 0)
(0.894 0.447974 0)
(0.893921 0.448169 0)
(0.893843 0.448385 0)
(0.893772 0.448618 0)
(0.893713 0.448861 0)
(0.893668 0.44911 0)
(0.893641 0.449354 0)
(0.893634 0.449587 0)
(0.893649 0.449799 0)
(0.893686 0.449984 0)
(0.893744 0.450135 0)
(0.89382 0.450244 0)
(0.893912 0.450309 0)
(0.894015 0.450327 0)
(0.894124 0.450297 0)
(0.894235 0.45022 0)
(0.894343 0.450101 0)
(0.894443 0.449945 0)
(0.894532 0.449757 0)
(0.894606 0.449546 0)
(0.894665 0.44932 0)
(0.894708 0.449086 0)
(0.894734 0.448852 0)
(0.894746 0.448625 0)
(0.894746 0.44841 0)
(0.894734 0.448211 0)
(0.894715 0.448032 0)
(0.89469 0.447873 0)
(0.89466 0.447735 0)
(0.89463 0.447618 0)
(0.894598 0.447521 0)
(0.894568 0.447441 0)
(0.89454 0.447376 0)
(0.894514 0.447326 0)
(0.894491 0.447286 0)
(0.894471 0.447256 0)
(0.894454 0.447234 0)
(0.89444 0.447218 0)
(0.894429 0.447207 0)
(0.89442 0.4472 0)
(0.894413 0.447196 0)
(0.894408 0.447193 0)
(0.894404 0.447192 0)
(0.894401 0.447192 0)
(0.8944 0.447193 0)
(0.894399 0.447194 0)
(0.894398 0.447195 0)
(0.894398 0.447196 0)
(0.894398 0.447196 0)
(0.894398 0.447197 0)
(0.894399 0.447198 0)
(0.894399 0.447198 0)
(0.894399 0.447199 0)
(0.894399 0.447199 0)
(0.894399 0.447199 0)
(0.8944 0.4472 0)
(0.8944 0.4472 0)
(0.8944 0.4472 0)
(0.8944 0.4472 0)
(0.8944 0.4472 0)
(0.8944 0.4472 0)
(0.8944 0.4472 0)
(0.8944 0.4472 0)
(0.8944 0.4472 0)
(0.8944 0.4472 0)
(0.8944 0.4472 0)
(0.8944 0.4472 0)
(0.894381 0.447296 0)
(0.894351 0.447341 0)
(0.894307 0.447404 0)
(0.894251 0.447491 0)
(0.894181 0.447606 0)
(0.894098 0.44775 0)
(0.894004 0.447927 0)
(0.893901 0.448138 0)
(0.893793 0.448382 0)
(0.893685 0.448657 0)
(0.893582 0.448959 0)
(0.893489 0.44928 0)
(0.893412 0.449614 0)
(0.893357 0.449951 0)
(0.893326 0.450281 0)
(0.893324 0.450592 0)
(0.893351 0.450875 0)
(0.893409 0.451119 0)
(0.893494 0.451315 0)
(0.893604 0.451455 0)
(0.893735 0.451535 0)
(0.89388 0.45155 0)
(0.894034 0.451502 0)
(0.894189 0.45139 0)
(0.894339 0.451221 0)
(0.894478 0.451001 0)
(0.8946 0.450739 0)
(0.894702 0.450444 0)
(0.894782 0.450128 0)
(0.894838 0.449803 0)
(0.894872 0.449477 0)
(0.894886 0.449161 0)
(0.894882 0.448862 0)
(0.894863 0.448586 0)
(0.894833 0.448337 0)
(0.894795 0.448117 0)
(0.894753 0.447927 0)
(0.894708 0.447765 0)
(0.894665 0.447631 0)
(0.894622 0.447522 0)
(0.894583 0.447435 0)
(0.894548 0.447366 0)
(0.894518 0.447314 0)
(0.894491 0.447274 0)
(0.894469 0.447245 0)
(0.89445 0.447224 0)
(0.894436 0.447209 0)
(0.894424 0.4472 0)
(0.894415 0.447194 0)
(0.894409 0.447191 0)
(0.894404 0.44719 0)
(0.894401 0.44719 0)
(0.894399 0.447191 0)
(0.894398 0.447192 0)
(0.894397 0.447193 0)
(0.894397 0.447194 0)
(0.894397 0.447195 0)
(0.894398 0.447196 0)
(0.894398 0.447197 0)
(0.894398 0.447198 0)
(0.894399 0.447198 0)
(0.894399 0.447199 0)
(0.894399 0.447199 0)
(0.894399 0.447199 0)
(0.8944 0.4472 0)
(0.8944 0.4472 0)
(0.8944 0.4472 0)
(0.8944 0.4472 0)
(0.8944 0.4472 0)
(0.8944 0.4472 0)
(0.8944 0.4472 0)
(0.8944 0.4472 0)
(0.8944 0.4472 0)
(0.8944 0.4472 0)
(0.8944 0.4472 0)
(0.894338 0.447369 0)
(0.894289 0.447441 0)
(0.894223 0.44754 0)
(0.89414 0.447672 0)
(0.894039 0.44784 0)
(0.893921 0.44805 0)
(0.893789 0.448304 0)
(0.893646 0.448602 0)
(0.893498 0.448943 0)
(0.893353 0.449323 0)
(0.893216 0.449736 0)
(0.893094 0.450173 0)
(0.892995 0.450622 0)
(0.892926 0.451073 0)
(0.892892 0.45151 0)
(0.892896 0.451921 0)
(0.89294 0.452292 0)
(0.893025 0.45261 0)
(0.893147 0.452863 0)
(0.893303 0.453043 0)
(0.893486 0.453142 0)
(0.893689 0.453156 0)
(0.893902 0.453085 0)
(0.894118 0.452931 0)
(0.894325 0.452699 0)
(0.894517 0.452399 0)
(0.894686 0.452041 0)
(0.894827 0.45164 0)
(0.894936 0.451209 0)
(0.895012 0.450763 0)
(0.895057 0.450318 0)
(0.895074 0.449884 0)
(0.895065 0.449473 0)
(0.895037 0.449094 0)
(0.894993 0.448752 0)
(0.894938 0.44845 0)
(0.894878 0.448189 0)
(0.894815 0.447967 0)
(0.894754 0.447784 0)
(0.894696 0.447634 0)
(0.894642 0.447515 0)
(0.894594 0.447422 0)
(0.894553 0.447351 0)
(0.894517 0.447298 0)
(0.894488 0.447259 0)
(0.894464 0.447232 0)
(0.894445 0.447213 0)
(0.89443 0.4472 0)
(0.894419 0.447193 0)
(0.89441 0.447189 0)
(0.894405 0.447187 0)
(0.894401 0.447187 0)
(0.894398 0.447188 0)
(0.894397 0.447189 0)
(0.894396 0.447191 0)
(0.894396 0.447193 0)
(0.894397 0.447194 0)
(0.894397 0.447195 0)
(0.894397 0.447196 0)