/*--------------------------------*- C++ -*----------------------------------*\
  =========                 |
  \\      /  F ield         | OpenFOAM: The Open Source CFD Toolbox
   \\    /   O peration     | Website:  https://openfoam.org
    \\  /    A nd           | Version:  6
     \\/     M anipulation  |
\*---------------------------------------------------------------------------*/
FoamFile
{
    version     2.0;
    format      ascii;
    class       volScalarField;
    location    "2.26";
    object      p;
}
// * * * * * * * * * * * * * * * * * * * * * * * * * * * * * * * * * * * * * //

dimensions      [1 -1 -2 0 0 0 0];

internalField   nonuniform List<scalar> 
10000
(
1
1
1
1
1
1
1
1
1
1
1
1
1
1
1
1
1
1
1
1
1
1
1
1
1
1
1
1
1
1
1
1
1
1
1
1
1
1
1
1
1
1
1
1
1
1
1
1
0.999999
0.999999
0.999999
0.999999
0.999999
0.999999
0.999999
1
1
1
1
1
1
1
1
1
1
1
1
1
1
1
1
0.999999
1
1
1
1
1
1
1
1
1
1
1
1
1
1
1
1
1
1
1
1
1
1
1
1
1
1
1
1
1
1
1
1
1
1
1
1
1
1
1
1
1
1
1
1
1
1
1
1
1
1
1
1
1
1
1
1
1
1
1
1
1
1
1
1
1
1
1
1
1
1
1
1
1
1
0.999999
0.999999
0.999999
0.999999
0.999999
0.999999
0.999999
0.999999
0.999999
0.999999
1
1
1
1
1
1
1
1
1
1
1
1
1
1
1
1
1
1
1
1
1
1
1
1
1
1
1
1
1
1
1
1
1
1
1
1
1
1
1
1
1
1
1
1
1
1
1
1
1
1
1
1
1
1
1
1
1
1
1
1
1
1
1
1
1
1
1
1
1
1
1
1
1
1
1
1
1
1
1
1
1
1
1
1
1
1
1
1
1
0.999999
0.999999
0.999999
0.999999
0.999998
0.999998
0.999998
0.999998
0.999998
0.999999
0.999999
1
1
1
1
1
1
1
1
1
1
1
1
1
1
0.999999
1
0.999999
1
1
1
1
1
1
1
1
1
1
1
1
1
1
1
1
1
1
1
1
1
1
1
1
1
1
1
1
1
1
1
1
1
1
1
1
1
1
1
1
1
1
1
1
1
1
1
1
1
1
1
1
1
1
1
1
1
1
1
1
1
1
1
1
1
1
1
1
1
1
1
0.999999
0.999999
0.999999
0.999998
0.999998
0.999997
0.999997
0.999997
0.999997
0.999997
0.999998
0.999999
1
1
1
1
1
1
1
1
1
1
1
1
1
0.999999
0.999999
0.999999
1
1
1
1
1
1
1
1
1
1
1
1
1
1
1
1
1
1
1
1
1
1
1
1
1
1
1
1
1
1
1
1
1
1
1
1
1
1
1
1
1
1
1
1
1
1
1
1
1
1
1
1
1
1
1
1
1
1
1
1
1
1
1
1
1
1
1
1
1
1
1
0.999999
1
0.999999
0.999998
0.999997
0.999997
0.999996
0.999995
0.999995
0.999995
0.999996
0.999997
0.999998
1
1
1
1
1
1
1
1
1
1
1
1
0.999999
0.999999
0.999999
0.999999
0.999999
1
1
1
1
1
1
1
1
1
1
1
1
1
1
1
1
1
1
1
1
1
1
1
1
1
1
1
1
1
1
1
1
1
1
1
1
1
1
1
1
1
1
1
1
1
1
1
1
1
1
1
1
1
1
1
1
1
1
1
1
1
1
1
1
1
1
1
1
1
1
1
0.999999
0.999999
0.999998
0.999996
0.999995
0.999993
0.999992
0.999992
0.999993
0.999994
0.999996
0.999998
1
1
1
1
1
1
1
1
1
1
1
0.999999
0.999999
0.999999
0.999999
0.999999
0.999999
0.999999
1
1
1
1
1
1
1
1
1
1
1
1
1
1
1
1
1
1
1
1
1
1
1
1
1
1
1
1
1
1
1
1
1
1
1
1
1
1
1
1
1
1
1
1
1
1
1
1
1
1
1
1
1
1
1
1
1
1
1
1
1
1
1
1
1
1
1
1
1
1
1
0.999998
0.999997
0.999994
0.999992
0.99999
0.999989
0.999988
0.99999
0.999992
0.999994
0.999997
1
1
1
1
1
1
1
1
1
1
0.999999
0.999999
0.999999
0.999999
0.999999
0.999999
0.999999
1
1
1
1
1
1
1
1
1
1
1
1
1
1
1
1
1
1
1
1
1
1
1
1
1
1
1
1
1
1
1
1
1
1
1
1
1
1
1
1
1
1
1
1
1
1
1
1
1
1
1
1
1
1
1
1
1
1
1
1
1
1
1
1
1
1
1
1
1
1
1
1
0.999998
0.999995
0.999992
0.999988
0.999985
0.999983
0.999983
0.999985
0.999988
0.999992
0.999996
1
1
1.00001
1.00001
1.00001
1.00001
1
1
1
1
0.999999
0.999999
0.999999
0.999999
0.999999
0.999999
0.999999
0.999999
1
1
1
1
1
1
1
1
1
1
1
1
1
1
1
1
1
1
1
1
1
1
1
1
1
1
1
1
1
1
1
1
1
1
1
1
1
1
1
1
1
1
1
1
1
1
1
1
0.999999
1
1
1
1
1
1
1
1
1
1
1
1
1
1
1
1
1
1
1
1
1
1
0.999997
0.999994
0.999988
0.999983
0.999979
0.999976
0.999975
0.999978
0.999982
0.999989
0.999996
1
1.00001
1.00001
1.00001
1.00001
1.00001
1.00001
1
1
1
0.999999
0.999998
0.999998
0.999999
0.999999
0.999999
0.999999
0.999999
0.999999
1
1
1
1
1
1
1
1
1
1
1
1
1
1
1
1
1
1
1
1
1
1
1
1
1
1
1
1
1
1
1
1
1
1
1
1
1
1
1
1
1
1
1
1
1
1
1
1
0.999999
1
0.999999
1
1
1
1
1
1
1
1
1
1
1
1
1
1
1
1
1
1
1
0.999998
0.999992
0.999985
0.999977
0.99997
0.999965
0.999964
0.999968
0.999975
0.999985
0.999995
1
1.00001
1.00001
1.00001
1.00001
1.00001
1.00001
1
1
0.999999
0.999998
0.999998
0.999998
0.999998
0.999999
0.999999
0.999999
0.999999
1
1
1
1
1
1
1
1
1
1
1
1
1
1
1
1
1
1
1
1
1
1
1
1
1
1
1
1
1
1
1
1
1
1
1
1
1
1
1
1
1
1
1
1
1
1
1
1
1
1
1
1
1
0.999999
1
1
0.999999
1
1
1
0.999999
1
1
1
1
1
1
1.00001
1.00001
1.00001
1.00001
1
0.999991
0.99998
0.999968
0.999958
0.999951
0.99995
0.999954
0.999965
0.999979
0.999994
1.00001
1.00002
1.00002
1.00002
1.00002
1.00001
1.00001
1
1
0.999999
0.999997
0.999997
0.999998
0.999997
0.999998
0.999999
0.999999
0.999999
1
0.999999
1
1
1
1
1
1
1
1
1
1
1
1
1
1
1
1
1
1
1
1
1
1
1
1
1
1
1
1
1
1
1
1
1
1
1
1
1
1
1
1
1
1
1
0.999999
1
1
0.999998
1
0.999999
1
1
0.999999
1
1
0.999999
1
1
1
0.999999
1
1
1
1
1
1.00001
1.00001
1.00001
1.00001
1.00001
1
0.999991
0.999975
0.999958
0.999943
0.999933
0.999931
0.999937
0.999952
0.999972
0.999993
1.00001
1.00002
1.00003
1.00003
1.00002
1.00002
1.00001
1.00001
1
0.999998
0.999998
0.999996
0.999996
0.999998
0.999998
0.999998
0.999999
0.999999
0.999999
1
1
0.999999
1
0.999999
1
1
1
1
1
1
1
1
1
1
1
1
1
1
1
1
1
1
1
1
1
1
1
1
1
1
1
1
1
1
1
1
1
0.999999
1
0.999999
1
0.999999
1
0.999999
1
0.999999
1
1
1
0.999999
1
1
0.999999
1
1
1
1
0.999999
1
1
1
1
1
1.00001
1.00001
1.00002
1.00002
1.00002
1.00002
1.00001
0.999993
0.999971
0.999947
0.999927
0.999912
0.999908
0.999916
0.999936
0.999963
0.999992
1.00002
1.00003
1.00004
1.00004
1.00003
1.00002
1.00001
1.00001
1
0.999997
0.999996
0.999996
0.999995
0.999995
0.999998
0.999999
0.999999
0.999999
1
1
0.999999
1
1
1
1
0.999999
1
1
1
1
1
1
1
1
1
1
1
1
1
1
1
1
1
1
1
1
1
1
1
1
1
1
1
1
1
1
1
1
1
1
1
1
0.999999
1
1
0.999998
1
0.999998
1
1
0.999999
1
1
0.999999
1
1
0.999999
1
1
1
1
1
1.00001
1.00001
1.00002
1.00003
1.00004
1.00004
1.00004
1.00002
0.999999
0.999968
0.999937
0.999911
0.999892
0.999885
0.999894
0.999919
0.999955
0.999994
1.00003
1.00005
1.00006
1.00006
1.00005
1.00003
1.00002
1.00001
1
0.999999
0.999993
0.999991
0.999995
0.999997
0.999997
0.999996
0.999997
1
1
0.999999
0.999999
1
0.999999
1
0.999999
1
1
1
1
1
1
1
1
1
1
1
1
1
1
1
1
1
1
1
1
1
1
1
1
1
1
1
1
1
0.999999
1
0.999998
1
0.999999
1
1
1
0.999998
1
0.999995
1
1
0.999999
0.999999
1
1
0.999998
1
1
1
1
0.999999
1
1
1
1
1
1.00001
1.00002
1.00003
1.00004
1.00006
1.00006
1.00006
1.00004
1.00001
0.99997
0.999932
0.999899
0.999877
0.999868
0.999876
0.999906
0.999952
1
1.00005
1.00008
1.00009
1.00008
1.00007
1.00005
1.00003
1.00002
1
0.999995
0.999996
0.999993
0.99999
0.999996
0.999997
0.999997
0.999998
0.999998
0.999999
0.999999
1
0.999999
1
0.999999
1
1
1
1
1
1
1
1
1
1
1
1
1
1
1
1
1
1
1
1
1
1
1
1
1
1
1
1
1
1
0.999999
1
0.999999
1
1
1
1
0.999998
1
1
0.999996
1
0.999999
0.999998
1
0.999999
1
0.999998
1
1
1
0.999998
1
1
1
1
1
1
1.00001
1.00002
1.00004
1.00006
1.00008
1.0001
1.0001
1.00007
1.00003
0.999982
0.999938
0.999904
0.999882
0.99987
0.999877
0.99991
0.999962
1.00002
1.00008
1.00011
1.00013
1.00012
1.0001
1.00007
1.00004
1.00002
1.00001
0.999993
0.999987
0.999997
0.999998
0.999988
0.999991
0.999999
1
1
0.999997
1
1
1
1
0.999998
1
0.999998
1
1
0.999999
1
0.999999
1
1
1
1
1
1
1
1
1
1
1
1
1
1
1
1
1
1
1
1
1
1
0.999999
1
0.999997
1
0.999997
1
1
0.999998
0.999999
1.00001
0.999993
1
0.999999
0.999999
0.999999
1
1
0.999998
1
1
1
1
0.999998
1
1
1
1
1
1.00001
1.00001
1.00003
1.00005
1.00008
1.00012
1.00014
1.00014
1.00012
1.00006
1.00001
0.999969
0.999944
0.999928
0.999917
0.999921
0.99995
1
1.00007
1.00013
1.00017
1.00018
1.00017
1.00014
1.0001
1.00006
1.00003
1.00001
0.999999
0.99999
0.999984
0.999993
0.999995
0.999994
0.999993
0.999993
0.999997
1
1
0.999999
1
0.999998
1
0.999997
1
0.999999
1
0.999999
1
1
1
1
1
1
1
1
1
1
1
1
1
1
1
1
1
1
1
1
1
1
0.999999
1
0.999997
1
0.999996
1
1
0.999996
1.00001
0.999993
1
1
0.999996
1
0.999999
0.999996
1.00001
0.999996
1
1
0.999999
1
1
0.999998
1
1
1
1
1
1
1.00001
1.00002
1.00004
1.00007
1.00012
1.00016
1.0002
1.0002
1.00017
1.00012
1.00007
1.00004
1.00005
1.00006
1.00005
1.00005
1.00007
1.00011
1.00017
1.00023
1.00027
1.00027
1.00024
1.00019
1.00014
1.00008
1.00004
1.00001
0.999994
0.999993
0.999987
0.99998
0.999992
0.999997
0.999997
0.999996
0.999996
0.999999
0.999997
1
1
1
1
0.999998
1
1
0.999999
1
0.999998
1
0.999999
1
1
1
1
1
1
1
1
1
1
1
1
1
1
1
1
1
1
1
0.999999
1
1
0.999998
1
0.999994
1
0.999999
0.999998
1
1
0.999993
1.00001
0.999997
1
0.999999
1
1
0.999995
1
1
0.999998
1
0.999997
1
1
0.999999
1
1
1
1.00001
1.00003
1.00005
1.0001
1.00016
1.00022
1.00027
1.00028
1.00025
1.0002
1.00017
1.00019
1.00026
1.00032
1.00035
1.00034
1.00032
1.00034
1.00037
1.0004
1.00042
1.0004
1.00036
1.00028
1.0002
1.00012
1.00006
1.00002
0.999998
0.999983
0.999985
0.999985
0.999988
0.999993
0.999993
0.999997
1
0.999998
0.999999
1
0.999996
1
0.999993
1.00001
0.999994
1
0.999998
1
1
0.999999
1
0.999999
1
1
1
1
1
1
1
1
1
1
1
1
1
1
1
1
1
1
1
0.999997
1.00001
0.999992
1.00001
0.999996
0.999997
1.00001
0.999986
1.00001
0.999995
0.999998
1
1
0.999995
1.00001
0.999993
1
0.999999
0.999997
1.00001
0.999997
0.999998
1
0.999998
1
1
0.999998
1
1
1.00001
1.00003
1.00006
1.00012
1.0002
1.00028
1.00035
1.00037
1.00035
1.00032
1.00034
1.00046
1.00064
1.00081
1.00089
1.00088
1.00082
1.00077
1.00073
1.00071
1.00067
1.00061
1.00052
1.00041
1.00029
1.00018
1.00009
1.00003
0.999998
0.999985
0.999978
0.999983
0.999982
0.999989
0.999992
0.999994
0.999994
0.999997
1
0.999998
1
0.999995
1
0.999996
1
0.999997
1
0.999997
1
0.999998
1
1
1
1
1
1
1
1
1
1
1
1
1
1
1
1
1
1
1
0.999999
1
0.999998
1
1
0.999995
1.00001
0.999992
1.00001
0.999999
0.999999
1
1
0.999995
1
0.999999
0.999999
1
0.999995
1.00001
0.999996
1
1
0.999993
1
1
0.999998
1
0.999999
1
1.00001
1.00001
1.00003
1.00008
1.00015
1.00024
1.00035
1.00044
1.00047
1.00047
1.00049
1.00062
1.0009
1.00128
1.00163
1.00183
1.00183
1.00171
1.00154
1.00137
1.00123
1.00108
1.00094
1.00077
1.00059
1.00042
1.00026
1.00014
1.00006
1.00001
0.999982
0.999975
0.999977
0.999983
0.999984
0.999991
0.999996
0.999997
1
0.999995
0.999996
1
0.999996
1.00001
0.999992
1.00001
0.999996
1
1
0.999997
1
0.999998
1
1
1
1
1
1
1
1
1
1
1
1
1
1
1
1
1
1
1
0.999998
1
0.999991
1.00001
0.999991
1
1.00001
0.999984
1.00002
0.999982
1.00001
1
0.999996
0.999998
1.00001
0.999991
1.00001
0.999998
0.999999
1.00001
0.999992
1
1
0.999997
1.00001
0.999997
0.999999
1
1
1.00001
1.00002
1.00004
1.00009
1.00018
1.00029
1.00042
1.00053
1.00059
1.00063
1.00074
1.00104
1.00159
1.00229
1.00293
1.00331
1.00337
1.00317
1.00284
1.00247
1.00209
1.00175
1.00144
1.00114
1.00087
1.00061
1.00039
1.00021
1.00009
1.00002
0.999985
0.999972
0.999968
0.999977
0.999983
0.99999
0.999994
0.999997
1
0.999996
1.00001
0.999991
1.00001
0.999989
1.00001
0.999991
1.00001
0.999996
1
0.999998
1
1
1
1
1
1
1
1
1
1
1
1
1
1
1
1
1
1
1
0.999999
1
0.999996
1
0.999997
0.999999
1.00001
0.999991
1.00001
0.999992
1.00001
1
0.999995
1.00001
1
0.999995
1
1
0.999992
1.00001
0.999995
1
0.999999
0.999994
1.00001
0.999995
1
1
0.999999
1
1
1
1.00002
1.00005
1.00011
1.00021
1.00034
1.0005
1.00063
1.00073
1.00083
1.00109
1.00166
1.00262
1.00379
1.00487
1.00555
1.00572
1.00545
1.00491
1.00423
1.00352
1.00284
1.00224
1.00172
1.00127
1.00089
1.00057
1.00033
1.00015
1.00005
0.99999
0.99997
0.99997
0.99997
0.999975
0.999985
0.99999
0.999993
0.99999
1
1
1
0.999999
0.999999
1
0.999997
1
1
0.999995
1
0.999997
1
0.999999
1
1
1
1
1
1
1
1
1
1
1
1
1
1
1
1
0.999999
1
1
0.999994
1.00001
0.999987
1.00001
1
0.999991
1.00002
0.999978
1.00002
0.999987
1
1.00001
0.999998
0.999994
1.00001
0.999993
1
1.00001
0.99999
1.00001
0.999996
1
1
0.999993
1
1
1
1
1.00001
1.00002
1.00005
1.00012
1.00023
1.00039
1.00057
1.00073
1.00087
1.00108
1.00157
1.00255
1.00408
1.00592
1.00761
1.00873
1.00909
1.00878
1.00801
1.00696
1.00577
1.00458
1.00351
1.00261
1.00189
1.00131
1.00084
1.00049
1.00025
1.0001
1.00001
0.999966
0.99996
0.999968
0.999976
0.999978
0.999986
0.999993
0.999996
1
0.99999
1.00001
0.999993
1.00001
0.999988
1.00001
0.999995
1
0.999998
1
1
1
1
1
1
1
1
1
1
1
1
1
1
1
1
1
1
1
1
1
0.999997
1.00001
0.999993
1
1
0.999992
1.00001
0.999993
1.00001
0.99999
1
1.00002
0.999978
1.00001
1.00001
0.999988
1
1.00001
0.999992
1
0.999997
1
1.00001
0.999989
1.00001
0.999998
1
1
0.999999
0.999998
1
1.00002
1.00005
1.00012
1.00025
1.00043
1.00064
1.00084
1.00104
1.00141
1.00222
1.00376
1.00606
1.00879
1.0113
1.013
1.01365
1.01338
1.01242
1.01097
1.00919
1.00729
1.00551
1.004
1.00282
1.00192
1.00125
1.00074
1.00039
1.00016
1.00004
0.999977
0.999949
0.999951
0.99997
0.999975
0.999982
0.999988
0.999999
0.999993
1
0.999994
1
0.999993
1
0.999997
1
0.999994
1.00001
0.999996
1
0.999999
1
1
1
1
1
1
1
1
1
1
1
1
1
1
1
1
0.999999
1
0.999999
0.999998
1.00001
0.999986
1.00001
0.999996
0.999994
1.00001
0.999991
1.00002
0.999975
1.00002
0.999997
0.999985
1.00002
0.999995
0.999991
1.00001
0.999997
0.999992
1.00001
0.999994
1
0.999996
0.999996
1.00001
0.999996
1
1
1
1
1.00001
1.00005
1.00013
1.00026
1.00046
1.00069
1.00094
1.00124
1.00182
1.00308
1.00536
1.00866
1.01249
1.01598
1.01839
1.01945
1.01931
1.01827
1.01651
1.01414
1.01138
1.0086
1.00617
1.00427
1.00286
1.00184
1.00112
1.00061
1.00027
1.00008
0.999993
0.999952
0.999943
0.999951
0.999971
0.999981
0.999984
0.999988
0.999989
1
0.999995
1
0.999993
1.00001
0.999996
1
0.999999
1
0.999999
1
1
1
1
1
1
1
1
1
1
1
1
1
1
1
1
1
1
1
0.999999
1
0.999993
1.00001
0.999996
0.999994
1.00001
0.999997
0.999999
0.999993
1.00001
0.999999
0.999973
1.00004
0.999978
0.999992
1.00002
0.999987
0.999998
1.00001
0.999992
1.00001
1
0.999992
1.00001
0.999994
1.00001
1
0.999993
1
1
1.00001
1.00001
1.00005
1.00013
1.00027
1.00048
1.00074
1.00104
1.00147
1.00235
1.0042
1.00742
1.01194
1.01704
1.0216
1.02476
1.02626
1.02637
1.02545
1.02363
1.02088
1.01727
1.01326
1.00952
1.00651
1.00429
1.00273
1.00166
1.00094
1.00046
1.00017
1.00002
0.999963
0.999943
0.999942
0.99996
0.999971
0.999984
0.999986
0.999999
0.999991
1
0.999993
1.00001
0.999992
1.00001
0.999992
1.00001
0.999994
1
0.999998
1
1
1
1
1
1
1
1
1
1
1
1
1
1
1
1
1
1
0.999999
1
1
0.99999
1.00002
0.999984
1
1.00001
0.999996
0.999995
0.999995
1.00002
0.999974
1
1.00003
0.999967
1.00001
1.00001
0.999981
1.00001
1
0.999992
1.00001
0.999994
1
1
0.999995
1
0.999998
0.999999
1
1
1.00001
1.00005
1.00012
1.00027
1.00049
1.00078
1.00116
1.00176
1.00302
1.00561
1.00998
1.0159
1.02234
1.02791
1.03168
1.03353
1.03392
1.03335
1.03189
1.02926
1.02521
1.02002
1.01461
1.00996
1.00651
1.00411
1.00247
1.00141
1.00075
1.00033
1.00008
0.999968
0.999942
0.999939
0.999941
0.99996
0.999977
0.999986
0.999989
0.999992
0.999997
0.999999
0.999996
1
0.999997
1
0.999999
1
1
1
1
1
1
1
1
1
1
1
1
1
1
1
1
1
1
1
1
1
1
0.999998
1.00001
0.999991
1
1.00001
0.99999
0.999997
1.00001
1
0.99998
1.00001
1.00003
0.999954
1.00002
1.00001
0.99997
1.00002
0.999997
0.99999
1.00001
0.999992
0.999997
1.00001
0.999996
1
0.999995
0.999997
1.00001
1
0.999996
0.999999
1
1.00004
1.00011
1.00025
1.00049
1.00083
1.0013
1.00211
1.00386
1.00734
1.01305
1.02047
1.02815
1.03442
1.0384
1.04027
1.04081
1.04072
1.04009
1.03839
1.03484
1.02916
1.02213
1.0153
1.00993
1.00625
1.00378
1.00213
1.00112
1.00055
1.0002
1
0.999934
0.999928
0.99993
0.999951
0.999967
0.99998
0.999983
0.999995
0.999992
0.999998
0.999995
1
0.999992
1.00001
0.999994
1
0.999998
1
0.999999
1
1
1
1
1
1
1
1
1
1
1
1
1
1
1
1
1
1
1
0.999997
1.00001
0.999981
1.00001
1
0.999987
0.999998
1.00002
0.999996
0.999978
1.00002
1.00001
0.999965
1.00003
0.99999
0.999984
1.00002
0.999988
0.999998
1.00001
0.999991
1.00001
1
0.999995
1
0.999996
1
1
0.99999
0.999999
0.999999
1.00003
1.0001
1.00024
1.00048
1.00088
1.00147
1.00256
1.00488
1.00942
1.01661
1.0255
1.03407
1.04041
1.04388
1.04512
1.0454
1.04568
1.04619
1.04626
1.04458
1.03998
1.03242
1.02344
1.01531
1.00948
1.00579
1.00338
1.00177
1.00083
1.00037
1.0001
0.999951
0.99991
0.999926
0.999935
0.99995
0.999966
0.999986
0.999988
0.99999
0.999991
1
0.999991
1
0.999997
1
0.999999
1
1
1
1
1
1
1
1
1
1
1
1
1
1
1
1
1
1
1
0.999999
1
1
0.999997
1.00001
0.999999
0.999992
1.00001
1.00001
0.999981
0.999999
1.00002
0.999988
0.999976
1.00004
0.999983
0.999984
1.00003
0.999979
1
1.00001
0.999983
1.00001
1
0.999994
1.00001
0.999992
1.00001
1
0.999992
1
0.999989
0.999996
0.999997
1.00002
1.00009
1.00021
1.00048
1.00094
1.00169
1.0031
1.0061
1.01184
1.02057
1.03072
1.03956
1.04504
1.04692
1.04657
1.0458
1.04596
1.04748
1.0498
1.05132
1.04999
1.04435
1.03483
1.02394
1.01475
1.00871
1.00518
1.00294
1.00142
1.00058
1.0002
1.00001
0.999917
0.999903
0.999918
0.999934
0.999956
0.999971
0.999976
0.999988
0.999998
0.999993
0.999993
1
0.999995
1
0.999998
1
0.999999
1
1
1
1
1
1
1
1
1
1
1
1
1
1
1
1
1
0.999999
1
0.999998
1
0.999991
1.00001
0.99999
0.999995
1.00001
1.00001
0.99998
1.00001
1.00002
0.999983
0.99999
1.00003
0.999977
0.999999
1.00002
0.999981
1.00001
1
0.999992
1.00001
0.999991
1
1
0.999999
1
0.999995
0.999999
0.999989
0.999998
0.999988
0.999997
1.00007
1.00019
1.00048
1.00103
1.00197
1.00377
1.00754
1.01457
1.0248
1.03578
1.04404
1.04746
1.04645
1.04322
1.04024
1.03928
1.04111
1.04548
1.05088
1.05473
1.05421
1.04772
1.03639
1.02385
1.01385
1.00777
1.0045
1.00248
1.00111
1.00036
1.00006
0.999937
0.999883
0.999889
0.999918
0.999941
0.999955
0.999972
0.999988
0.999991
0.999987
1
0.999994
1
0.999997
1
0.999999
1
1
1
1
1
1
1
1
1
1
1
1
1
1
1
1
1
1
1
1
1
1
1
0.999995
1.00001
0.999997
0.999986
1.00002
1
0.999977
1.00002
1.00001
0.999976
1.00001
1.00001
0.99998
1.00001
1
0.999987
1.00001
0.999997
0.999996
1
0.999997
1
1
0.999991
0.999999
1.00001
0.999985
0.999993
0.999982
0.999971
1.00005
1.00017
1.00048
1.00116
1.00232
1.00457
1.0092
1.01756
1.0291
1.04031
1.04695
1.04702
1.04171
1.03413
1.02745
1.0239
1.02472
1.03018
1.03915
1.04905
1.05616
1.05688
1.0498
1.03704
1.02334
1.0129
1.00686
1.00379
1.00199
1.00082
1.00019
0.999945
0.999872
0.999864
0.999882
0.999911
0.999938
0.999965
0.999977
0.999976
0.999991
0.999994
0.999993
0.999997
0.999997
1
0.999998
1
0.999999
1
1
1
1
1
1
1
1
1
1
1
1
1
1
1
1
1
1
1
0.999997
1.00001
0.999992
1
1.00001
0.999994
0.999993
1.00001
0.999998
0.999985
1.00001
1.00001
0.999982
1.00001
1.00001
0.999984
1.00001
1
0.999995
1.00001
0.999994
1
1.00001
0.999991
1.00001
1
0.999986
1.00001
0.99998
0.999981
0.999981
0.999959
1.00004
1.00015
1.0005
1.00132
1.00274
1.0055
1.01105
1.02071
1.03325
1.04397
1.04794
1.04344
1.0325
1.01903
1.00687
0.998849
0.996905
1.00198
1.01351
1.02919
1.04503
1.05596
1.05796
1.05041
1.03675
1.02256
1.01207
1.00613
1.00318
1.00154
1.00055
1.00005
0.999862
0.999822
0.999835
0.99987
0.999909
0.999938
0.999951
0.999972
0.999987
0.999986
0.999993
0.999994
0.999998
0.999997
0.999998
0.999999
0.999999
1
1
1
1
1
1
1
1
1
1
1
1
1
1
1
1
1
1
0.999999
1
0.999996
1.00001
0.99999
1
1.00001
0.999987
0.999999
1.00002
0.999985
1
1.00001
0.999991
1
1.00001
0.999994
0.999996
1.00001
0.999994
0.999995
1.00001
0.999993
1.00001
0.999997
0.999993
1.00001
0.999988
1
0.999977
0.999976
0.999976
0.999947
1.00004
1.00014
1.00053
1.00153
1.00325
1.00656
1.01307
1.0239
1.03703
1.04655
1.04691
1.03687
1.01917
0.998317
0.978711
0.964055
0.957307
0.96036
0.973229
0.993951
1.01856
1.04109
1.05539
1.05798
1.04977
1.03556
1.02145
1.01134
1.00563
1.00271
1.00116
1.00032
0.999919
0.999784
0.999777
0.999815
0.999861
0.999898
0.999929
0.999958
0.999969
0.999981
0.999988
0.999992
0.999995
0.999995
0.999998
0.999998
0.999999
0.999999
0.999999
1
1
1
1
1
1
1
1
1
1
1
1
1
1
1
1
0.999999
1
0.999996
1
1
0.999994
1
1.00001
0.999994
0.999997
1.00001
0.999992
0.999998
1.00001
0.999996
0.999994
1.00001
0.999997
0.999995
1.00001
0.999995
1
1
0.999996
1
0.999994
0.999999
0.999996
1
0.999972
0.999974
0.999972
0.999919
1.00003
1.00015
1.00059
1.00179
1.00385
1.00774
1.0152
1.02701
1.04029
1.04797
1.04407
1.02785
1.00261
0.972994
0.943903
0.920198
0.906348
0.90553
0.918434
0.943333
0.976334
1.0109
1.03924
1.05536
1.05743
1.0482
1.03371
1.0201
1.01063
1.00524
1.0024
1.0009
1.00014
0.999821
0.999733
0.999747
0.999794
0.999845
0.999895
0.999926
0.999949
0.999969
0.999978
0.999987
0.99999
0.999994
0.999996
0.999997
0.999998
0.999999
0.999999
0.999999
1
1
1
1
1
1
1
1
1
1
1
1
1
1
1
1
0.999999
1
0.999992
1.00001
0.999997
0.999995
1.00001
1
0.999994
1.00001
0.999991
1
1.00001
0.999992
1
1
0.999999
0.999993
1.00001
1.00001
0.999991
1
1
0.999995
1.00001
0.999999
0.999981
1.00001
0.999973
0.999962
0.999975
0.999896
1.00002
1.00017
1.00066
1.00209
1.00451
1.00902
1.01737
1.0299
1.04291
1.04835
1.03983
1.0172
0.983989
0.94454
0.903989
0.868673
0.845054
0.838023
0.849242
0.877215
0.917996
0.964571
1.0078
1.03967
1.05584
1.05652
1.04614
1.03154
1.01862
1.00991
1.00489
1.00217
1.00073
1.00003
0.999758
0.999693
0.999721
0.999782
0.999839
0.999886
0.999923
0.999946
0.999965
0.999978
0.999985
0.99999
0.999993
0.999996
0.999997
0.999998
0.999999
0.999999
0.999999
1
1
1
1
1
1
1
1
1
1
1
1
1
1
1
0.999999
1
1
0.999996
1.00001
0.999998
0.999996
1
1
0.999995
1
1
0.999998
1
1
0.999994
1
1
0.999995
1
1
0.999996
1.00001
0.999996
0.999996
1.00001
0.999981
0.999999
0.999973
0.999951
0.999977
0.999889
1.00002
1.0002
1.00074
1.00243
1.00525
1.01035
1.01951
1.03249
1.04489
1.04789
1.03476
1.00582
0.964677
0.914782
0.861173
0.811827
0.775572
0.759399
0.766477
0.795915
0.843694
0.902026
0.960353
1.00898
1.04169
1.0564
1.05516
1.04372
1.02927
1.01716
1.00916
1.00453
1.00196
1.0006
0.99996
0.999718
0.999673
0.99971
0.999772
0.999833
0.99988
0.999918
0.999947
0.999964
0.999976
0.999984
0.99999
0.999993
0.999996
0.999997
0.999998
0.999999
0.999999
1
1
1
1
1
1
1
1
1
1
1
1
1
1
1
1
0.999998
1
0.999995
1
1
0.999997
1
0.999999
0.999998
1.00001
0.999995
0.999999
1.00001
0.999995
0.999997
1
1
0.999995
0.999999
1.00001
0.999996
0.999999
1.00001
0.999992
1
0.999992
0.999996
0.99997
0.999942
0.999976
0.99988
1.00002
1.00025
1.00085
1.0028
1.00604
1.01171
1.02156
1.03472
1.04625
1.04687
1.02944
0.994618
0.946012
0.885785
0.818349
0.753289
0.702022
0.673719
0.673413
0.701612
0.754774
0.824183
0.89733
0.962824
1.0131
1.0444
1.0566
1.05327
1.04102
1.02696
1.01573
1.00843
1.00415
1.00175
1.0005
0.999916
0.999701
0.999665
0.999707
0.99977
0.99983
0.999882
0.999919
0.999945
0.999964
0.999976
0.999985
0.99999
0.999994
0.999996
0.999998
0.999998
0.999999
0.999999
1
1
1
1
1
1
1
1
1
1
1
1
1
1
1
1
0.999998
1
0.999996
1
1
0.999998
0.999999
1
0.999997
1
1
0.999998
0.999997
1.00001
0.999998
0.999996
1
1
1
1
0.999996
1
1
0.999999
0.999983
0.999998
0.999973
0.999932
0.999971
0.999876
1.00002
1.00032
1.00098
1.00319
1.00687
1.01305
1.02345
1.03656
1.04706
1.04557
1.02441
0.984353
0.929185
0.85966
0.778912
0.697828
0.630514
0.588072
0.57704
0.599811
0.654474
0.732403
0.819245
0.901355
0.969498
1.01866
1.04709
1.05616
1.05074
1.03799
1.02462
1.01431
1.00766
1.00374
1.00154
1.0004
0.999877
0.99969
0.999668
0.999713
0.999778
0.999839
0.999885
0.999922
0.999949
0.999967
0.999979
0.999986
0.999991
0.999995
0.999997
0.999998
0.999999
0.999999
1
1
1
1
1
1
1
1
1
1
1
1
1
1
1
1
0.999999
1
1
0.999999
1
1
1
0.999999
1
1
1
0.999997
1
1
0.999996
1
1
0.999999
0.999995
1
1
0.999998
0.999997
1
0.999984
0.999987
0.999973
0.999929
0.999968
0.999882
1.00002
1.00039
1.00113
1.00358
1.00773
1.01434
1.02513
1.03803
1.0474
1.04419
1.02014
0.975674
0.915125
0.838249
0.746255
0.65053
0.567828
0.511083
0.48744
0.500437
0.550497
0.631327
0.72857
0.825945
0.911485
0.978676
1.02463
1.04905
1.05473
1.04752
1.03468
1.02217
1.01283
1.00684
1.0033
1.00131
1.0003
0.999844
0.999689
0.999681
0.99973
0.999792
0.999849
0.999896
0.999932
0.999955
0.999971
0.999982
0.999989
0.999993
0.999996
0.999998
0.999999
0.999999
1
1
1
1
1
1
1
1
1
1
1
1
1
1
1
1
1
0.999998
1
0.999999
1
1
0.999999
0.999999
1
0.999998
0.999998
1
1
0.999994
1
1
0.999997
0.999999
1
1
1
0.999997
0.999996
0.999999
0.999987
0.999984
0.99997
0.999927
0.999957
0.999896
1.00002
1.00046
1.0013
1.00397
1.00858
1.01558
1.02658
1.03914
1.04737
1.04287
1.01697
0.96915
0.904469
0.822775
0.723074
0.615808
0.519858
0.450303
0.414441
0.415498
0.455456
0.531961
0.633465
0.742128
0.842603
0.926297
0.989312
1.03016
1.04984
1.05221
1.04362
1.03106
1.01961
1.01128
1.00596
1.00281
1.00108
1.0002
0.999822
0.999703
0.999706
0.999755
0.999816
0.999871
0.999912
0.999942
0.999963
0.999977
0.999986
0.999992
0.999995
0.999997
0.999998
0.999999
1
1
1
1
1
1
1
1
1
1
1
1
1
1
1
1
1
1
1
1
1
0.999999
1
1
0.999999
1
1
1
1
0.999999
1
0.999999
0.999998
1
1
0.999998
0.999998
0.999999
0.999997
0.999998
0.999987
0.999981
0.999965
0.999927
0.999945
0.999914
1.00003
1.00054
1.00151
1.00434
1.00941
1.01676
1.02778
1.03995
1.04709
1.04168
1.0151
0.965283
0.897684
0.813645
0.710657
0.596509
0.490666
0.410595
0.364241
0.353829
0.381389
0.447898
0.546306
0.65976
0.770338
0.866941
0.944445
1.00051
1.03484
1.04937
1.04861
1.03911
1.02721
1.01696
1.00967
1.00505
1.00233
1.00085
1.00012
0.999819
0.999732
0.999746
0.999795
0.999849
0.999895
0.99993
0.999956
0.999973
0.999983
0.99999
0.999994
0.999997
0.999998
0.999999
1
1
1
1
1
1
1
1
1
1
1
1
1
1
1
1
0.999999
1
0.999999
1
0.999999
1
1
0.999999
1
1
1
0.999998
1
1
0.999996
0.999999
1.00001
0.999999
0.999997
1
1
1
0.999997
0.999994
0.999987
0.999978
0.999961
0.999932
0.999935
0.999927
1.00005
1.00061
1.00174
1.00472
1.01016
1.01785
1.02874
1.04046
1.04669
1.04067
1.01452
0.964448
0.895278
0.810686
0.70853
0.59314
0.481975
0.394095
0.339044
0.318709
0.334267
0.388023
0.477238
0.588646
0.703605
0.808336
0.896217
0.96431
1.01153
1.03844
1.04766
1.04416
1.03423
1.02328
1.01431
1.00807
1.00415
1.00188
1.00066
1.00008
0.999841
0.999783
0.9998
0.999842
0.999887
0.999924
0.999951
0.99997
0.999982
0.99999
0.999994
0.999997
0.999998
0.999999
1
1
1
1
1
1
1
1
1
1
1
1
1
1
1
1
1
1
1
1
1
0.999999
1
1
0.999999
1
0.999999
1
0.999999
0.999998
1
1
0.999999
1
0.999998
1
1
0.999996
0.999996
0.999993
0.999983
0.999977
0.999958
0.999932
0.999926
0.99994
1.00008
1.00067
1.00198
1.00509
1.01082
1.01885
1.02951
1.0407
1.04627
1.03994
1.01503
0.966676
0.897838
0.813891
0.71508
0.60354
0.492579
0.400422
0.338414
0.309543
0.314336
0.354608
0.430637
0.534417
0.648902
0.757512
0.851499
0.927594
0.984396
1.02173
1.04086
1.04499
1.03923
1.02928
1.01944
1.01176
1.00654
1.00331
1.00147
1.00051
1.00006
0.999884
0.999843
0.99986
0.999893
0.999926
0.999952
0.999971
0.999983
0.99999
0.999995
0.999997
0.999999
0.999999
1
1
1
1
1
1
1
1
1
1
1
1
1
1
1
1
1
1
1
0.999999
1
0.999999
1
1
1
1
0.999999
1
0.999999
0.999999
1
0.999997
0.999999
1
1
0.999998
0.999998
0.999999
0.999995
0.999992
0.999982
0.999972
0.999953
0.999933
0.999921
0.99995
1.00012
1.00074
1.00221
1.00545
1.01135
1.0197
1.03014
1.04069
1.0459
1.03964
1.01643
0.971523
0.905592
0.823862
0.729341
0.6244
0.51844
0.426427
0.360086
0.324295
0.319841
0.34726
0.40807
0.499795
0.609511
0.718783
0.815623
0.896029
0.958799
1.0035
1.03065
1.04212
1.0416
1.0341
1.02446
1.01581
1.00938
1.00513
1.00256
1.00113
1.0004
1.00006
0.999935
0.999906
0.999917
0.999938
0.999959
0.999974
0.999985
0.999992
0.999996
0.999998
0.999999
1
1
1
1
1
1
1
1
1
1
1
1
1
1
1
1
1
1
1
1
1
0.999999
1
0.999999
1
1
1
1
0.999998
1
1
0.999999
1
1
0.999998
1
0.999999
0.999999
0.999998
0.999995
0.999989
0.99998
0.999971
0.999949
0.999932
0.999923
0.999956
1.00017
1.00081
1.00243
1.0058
1.01176
1.02035
1.03064
1.04053
1.04554
1.03987
1.01868
0.978263
0.917885
0.841013
0.751846
0.654253
0.555707
0.467683
0.400714
0.360863
0.349593
0.36626
0.412107
0.488698
0.588728
0.694801
0.79175
0.873561
0.939103
0.988072
1.02058
1.0377
1.04197
1.03746
1.02883
1.01982
1.01244
1.00721
1.00388
1.00192
1.00085
1.00032
1.00008
0.999983
0.99996
0.999963
0.999973
0.999983
0.99999
0.999995
0.999998
0.999999
1
1
1
1
1
1
1
1
1
1
1
1
1
1
1
1
1
1
1
1
1
1
1
1
1
1
1
1
1
1
1
0.999998
1
1
0.999999
1
0.999999
1
0.999997
0.999998
0.999992
0.999989
0.999978
0.999969
0.999946
0.999931
0.99992
0.999964
1.00021
1.00089
1.00261
1.00611
1.01206
1.02075
1.03099
1.04032
1.04522
1.04061
1.02185
0.986338
0.933305
0.864371
0.783001
0.69379
0.603668
0.522044
0.458075
0.417772
0.402778
0.411683
0.444951
0.505787
0.59159
0.688923
0.781983
0.862293
0.92783
0.978299
1.01355
1.0341
1.04171
1.0397
1.03229
1.02334
1.01536
1.00935
1.00531
1.00282
1.00139
1.00063
1.00026
1.00009
1.00002
0.999999
0.999994
0.999996
0.999998
0.999999
1
1
1
1
1
1
1
1
1
1
1
1
1
1
1
1
1
1
1
1
1
1
1
1
1
1
1
1
1
1
1
1
0.999999
1
0.999999
1
1
0.999999
0.999999
1
0.999997
0.999997
0.999992
0.999987
0.999978
0.999965
0.999944
0.99993
0.999919
0.999975
1.00026
1.00097
1.00276
1.00634
1.01225
1.02091
1.03108
1.04011
1.045
1.04167
1.02587
0.995533
0.950525
0.891697
0.821134
0.742718
0.662757
0.589757
0.531814
0.49402
0.477689
0.481301
0.504958
0.551747
0.621302
0.704611
0.788357
0.863235
0.925838
0.975247
1.01088
1.03268
1.0419
1.04132
1.03478
1.02604
1.01776
1.01121
1.00663
1.00369
1.00195
1.00098
1.00047
1.00022
1.0001
1.00004
1.00002
1.00001
1.00001
1.00001
1
1
1
1
1
1
1
1
1
1
1
1
1
1
1
1
1
1
1
1
1
1
1
0.999999
1
1
1
1
1
1
0.999999
1
1
0.999999
1
1
1
0.999999
0.999999
1
0.999995
0.999998
0.99999
0.999985
0.999976
0.999965
0.999942
0.999928
0.999918
0.99999
1.00029
1.00105
1.00289
1.00646
1.01233
1.02083
1.03084
1.03982
1.04499
1.043
1.03039
1.00551
0.96867
0.920727
0.862897
0.797795
0.730682
0.669149
0.619754
0.586286
0.569922
0.569787
0.586172
0.621361
0.675253
0.74186
0.811606
0.876651
0.932986
0.978717
1.01247
1.03356
1.04273
1.04244
1.03622
1.02764
1.01928
1.01249
1.0076
1.00439
1.00242
1.00128
1.00066
1.00034
1.00018
1.00009
1.00005
1.00003
1.00002
1.00001
1.00001
1
1
1
1
1
1
1
1
1
1
1
1
1
1
1
1
1
1
1
1
1
1
1
1
1
1
1
1
1
1
1
0.999999
1
1
0.999999
1
0.999999
0.999999
0.999999
0.999997
0.999996
0.999991
0.999983
0.999976
0.99996
0.999942
0.999923
0.999919
1
1.00032
1.00112
1.00297
1.00648
1.01224
1.02053
1.03027
1.0393
1.04508
1.04461
1.03517
1.01569
0.986833
0.949582
0.904779
0.854164
0.80198
0.754041
0.714593
0.686442
0.67111
0.668613
0.679533
0.705294
0.745294
0.79524
0.848938
0.901114
0.948273
0.987837
1.01757
1.0361
1.04378
1.0428
1.03643
1.02794
1.0197
1.01296
1.00804
1.00475
1.0027
1.00149
1.00081
1.00044
1.00024
1.00014
1.00008
1.00005
1.00003
1.00002
1.00001
1.00001
1
1
1
1
1
1
1
1
1
1
1
1
1
1
1
1
1
1
1
1
1
1
1
1
1
1
1
1
1
1
1
1
0.999999
1
0.999998
1
0.999997
1
0.999995
0.999997
0.99999
0.999981
0.999976
0.999957
0.99994
0.999916
0.999923
1.00001
1.00035
1.00118
1.00302
1.0064
1.01196
1.01997
1.02942
1.03843
1.04494
1.04626
1.04001
1.02557
1.00401
0.976462
0.943681
0.90708
0.869836
0.83524
0.805601
0.783434
0.770483
0.767204
0.774294
0.792469
0.820625
0.855652
0.894007
0.932791
0.969432
1.0011
1.02501
1.0394
1.04443
1.04206
1.03527
1.0269
1.01899
1.01256
1.00787
1.00471
1.00273
1.00155
1.00087