/*--------------------------------*- C++ -*----------------------------------*\
  =========                 |
  \\      /  F ield         | OpenFOAM: The Open Source CFD Toolbox
   \\    /   O peration     | Website:  https://openfoam.org
    \\  /    A nd           | Version:  6
     \\/     M anipulation  |
\*---------------------------------------------------------------------------*/
FoamFile
{
    version     2.0;
    format      ascii;
    class       surfaceScalarField;
    location    "1.12";
    object      phi;
}
// * * * * * * * * * * * * * * * * * * * * * * * * * * * * * * * * * * * * * //

dimensions      [0 3 -1 0 0 0 0];

internalField   nonuniform List<scalar> 
8193
(
0.156256
-0.341451
-0.175438
0.13488
-0.341083
0.114127
-0.339523
0.094951
-0.338737
0.0776533
-0.339414
0.0622475
-0.341386
0.0486949
-0.344105
0.0370332
-0.346936
0.027327
-0.349438
0.0195987
-0.351435
0.0137847
-0.352952
0.00974666
-0.354083
0.00730416
-0.354904
0.00626039
-0.355511
0.00642807
-0.356225
0.00765673
-0.357584
0.00975546
-0.360094
0.0123268
-0.36353
0.0145492
-0.366413
0.0149675
-0.365372
0.0117628
-0.353893
0.00717963
-0.353316
0.00465247
-0.374687
0.00262542
-0.379027
0.000566259
-0.372074
-0.00159405
-0.368989
-0.00417825
-0.369631
-0.0075678
-0.371296
-0.0119882
-0.372654
-0.0175828
-0.373512
-0.0245116
-0.373835
-0.0329301
-0.373424
-0.0429311
-0.371957
-0.0545078
-0.369181
-0.0675793
-0.365125
-0.082091
-0.360205
-0.0980896
-0.355159
-0.115599
-0.350643
-0.134328
-0.346803
-0.153503
-0.34288
-0.337401
-0.170666
0.150736
-0.312424
-0.170401
0.130718
-0.30935
0.112568
-0.307655
0.0963491
-0.307163
0.0818439
-0.308296
0.0688933
-0.310945
0.057424
-0.314647
0.0474653
-0.31886
0.0390644
-0.323146
0.0322301
-0.327269
0.0269068
-0.331168
0.02298
-0.33485
0.0202992
-0.338327
0.0186995
-0.341649
0.0180155
-0.345104
0.0181166
-0.349232
0.018852
-0.354484
0.0198711
-0.360403
0.0203642
-0.365016
0.0186944
-0.364091
0.0127927
-0.350647
0.005147
-0.350547
-0.000331336
-0.376224
-0.00566622
-0.382733
-0.0105142
-0.378139
-0.0150581
-0.377046
-0.019732
-0.379026
-0.0249427
-0.381369
-0.0308499
-0.382957
-0.0375513
-0.383631
-0.0451678
-0.383305
-0.0537976
-0.381778
-0.063466
-0.378784
-0.0741042
-0.37415
-0.0855839
-0.36796
-0.0977822
-0.360628
-0.110718
-0.352761
-0.12455
-0.344898
-0.139425
-0.337228
-0.155057
-0.32947
-0.321805
-0.16956
0.14313
-0.28119
-0.160463
0.126982
-0.277615
0.112347
-0.276099
0.0992444
-0.276164
0.0874624
-0.277998
0.0768448
-0.281542
0.0673269
-0.286409
0.0589074
-0.292106
0.0516143
-0.298205
0.0454572
-0.304428
0.0403975
-0.310642
0.0363501
-0.316779
0.0331974
-0.322791
0.0308125
-0.32869
0.0290659
-0.334732
0.0278518
-0.34145
0.0270403
-0.349243
0.0262861
-0.357406
0.0248002
-0.363495
0.0206799
-0.362132
0.0120578
-0.346342
0.00207815
-0.34697
-0.00615625
-0.376376
-0.0141482
-0.384977
-0.0214806
-0.382728
-0.0283327
-0.383604
-0.0351611
-0.386868
-0.0422853
-0.389915
-0.049804
-0.39182
-0.0577912
-0.39242
-0.0663084
-0.391616
-0.0753847
-0.389219
-0.084978
-0.385016
-0.0949663
-0.378906
-0.10518
-0.371016
-0.115479
-0.36174
-0.125799
-0.351617
-0.136193
-0.3411
-0.146767
-0.330355
-0.157392
-0.319386
-0.308661
-0.167705
0.139639
-0.249219
-0.153799
0.126966
-0.246127
0.115414
-0.245064
0.10499
-0.245921
0.0955354
-0.248706
0.0868864
-0.253342
0.0789581
-0.259504
0.0717358
-0.266749
0.0652403
-0.27466
0.0594877
-0.282933
0.0544611
-0.291376
0.0501072
-0.299859
0.0463452
-0.308282
0.0430811
-0.316616
0.040222
-0.325092
0.0376893
-0.334232
0.0353692
-0.344373
0.032899
-0.354536
0.0293981
-0.361732
0.0227451
-0.359318
0.0111913
-0.340664
-0.00128106
-0.342319
-0.0121684
-0.375137
-0.022796
-0.385678
-0.0326323
-0.385726
-0.0418401
-0.38853
-0.0508797
-0.39303
-0.0600116
-0.396789
-0.0692796
-0.399073
-0.0787331
-0.399686
-0.088386
-0.398543
-0.0982051
-0.395481
-0.108088
-0.390344
-0.117867
-0.383087
-0.12734
-0.373869
-0.136338
-0.363061
-0.144766
-0.351143
-0.1526
-0.338524
-0.159812
-0.325409
-0.166355
-0.311869
-0.298349
-0.172264
0.139429
-0.217637
-0.150028
0.129855
-0.215231
0.121113
-0.214965
0.113076
-0.216783
0.105616
-0.220673
0.0985945
-0.226531
0.0919322
-0.23407
0.0856098
-0.242883
0.0796443
-0.25257
0.0740588
-0.26281
0.0688592
-0.273367
0.0640255
-0.284066
0.0595163
-0.294759
0.0552722
-0.305377
0.0512369
-0.316133
0.0473585
-0.327528
0.0435393
-0.339834
0.0393681
-0.351735
0.0338476
-0.359634
0.024438
-0.355323
0.00974367
-0.333295
-0.00513263
-0.33657
-0.0184313
-0.372638
-0.0316106
-0.384814
-0.0438624
-0.387122
-0.055418
-0.391747
-0.0666932
-0.397415
-0.077877
-0.401892
-0.0889883
-0.404585
-0.100045
-0.405276
-0.111015
-0.40391
-0.121811
-0.400361
-0.13228
-0.394524
-0.142217
-0.386402
-0.151398
-0.37617
-0.159629
-0.364181
-0.166772
-0.350875
-0.172733
-0.336642
-0.177433
-0.321714
-0.180752
-0.306248
-0.290637
-0.182678
0.142933
-0.186742
-0.150486
0.13602
-0.185256
0.129583
-0.186008
0.123488
-0.188952
0.117614
-0.194068
0.111846
-0.201241
0.106111
-0.2102
0.100386
-0.22057
0.094685
-0.231967
0.0890412
-0.244064
0.0834816
-0.256602
0.0780184
-0.269367
0.0726494
-0.282178
0.0673525
-0.294927
0.0621052
-0.307808
0.0568843
-0.321301
0.0516143
-0.335608
0.0458094
-0.348985
0.0382147
-0.357046
0.0257224
-0.349712
0.00768663
-0.323916
-0.00933699
-0.329863
-0.025011
-0.368799
-0.0405692
-0.382447
-0.0551599
-0.386894
-0.0690257
-0.393203
-0.0825395
-0.399947
-0.0957777
-0.405161
-0.108796
-0.408252
-0.121559
-0.409068
-0.133995
-0.407571
-0.145977
-0.403673
-0.157313
-0.397322
-0.16777
-0.388559
-0.177104
-0.377569
-0.185102
-0.364683
-0.191592
-0.350319
-0.196434
-0.334862
-0.199487
-0.318584
-0.200602
-0.301695
-0.284592
-0.199686
0.149922
-0.156903
-0.154915
0.145193
-0.156513
0.140581
-0.158424
0.135983
-0.162616
0.131292
-0.169042
0.126408
-0.177576
0.121266
-0.187961
0.115845
-0.199845
0.110162
-0.212862
0.104257
-0.22669
0.0981747
-0.241056
0.0919562
-0.255725
0.0856357
-0.270492
0.0792374
-0.285223
0.0727577
-0.300067
0.0662169
-0.315517
0.0595663
-0.331686
0.0521875
-0.346248
0.0423313
-0.353671
0.0263716
-0.341981
0.00486125
-0.312276
-0.013947
-0.322439
-0.0318584
-0.363641
-0.049665
-0.378598
-0.0664851
-0.385048
-0.0825983
-0.392871
-0.0982898
-0.400609
-0.113576
-0.406544
-0.128524
-0.410009
-0.143053
-0.41098
-0.157066
-0.409413
-0.170407
-0.405265
-0.182861
-0.398533
-0.194172
-0.389293
-0.204079
-0.377737
-0.212347
-0.364181
-0.218776
-0.349023
-0.223192
-0.332653
-0.22541
-0.315389
-0.225233
-0.2975
-0.279381
-0.222523
0.160276
-0.128414
-0.16329
0.157184
-0.129237
0.153901
-0.132412
0.150345
-0.137924
0.146424
-0.145701
0.142054
-0.155603
0.137179
-0.167384
0.131785
-0.180714
0.12589
-0.195246
0.119541
-0.210663
0.112798
-0.226696
0.105723
-0.243095
0.0983826
-0.259647
0.09085
-0.27621
0.0831376
-0.292862
0.0753227
-0.310146
0.0673672
-0.328051
0.0583742
-0.343378
0.0459429
-0.349078
0.026169
-0.331662
0.00132239
-0.298385
-0.0191119
-0.314332
-0.0391026
-0.357203
-0.0589002
-0.373411
-0.0778036
-0.381627
-0.0960652
-0.390757
-0.113829
-0.399428
-0.13114
-0.406002
-0.148
-0.409829
-0.16432
-0.410958
-0.179985
-0.409354
-0.194822
-0.405014
-0.208607
-0.397979
-0.221072
-0.388363
-0.231941
-0.376368
-0.240957
-0.362302
-0.247893
-0.346549
-0.252542
-0.329509
-0.25469
-0.311541
-0.254111
-0.292973
-0.274195
-0.250636
0.173722
-0.101514
-0.175371
0.171715
-0.10363
0.169263
-0.108125
0.166298
-0.114985
0.162744
-0.124113
0.158533
-0.135355
0.153618
-0.148474
0.147991
-0.163161
0.141677
-0.179086
0.134726
-0.195947
0.127207
-0.213477
0.119199
-0.231429
0.110793
-0.249587
0.102106
-0.267826
0.0931886
-0.28615
0.0841747
-0.305175
0.0749188
-0.324601
0.064028
-0.339973
0.0486004
-0.342722
0.0247893
-0.318403
-0.00281301
-0.282697
-0.024924
-0.305367
-0.0467089
-0.349648
-0.0682472
-0.367022
-0.0890804
-0.376681
-0.109331
-0.386929
-0.129068
-0.396426
-0.148327
-0.403548
-0.167052
-0.407712
-0.185153
-0.408985
-0.202507
-0.407347
-0.218937
-0.402835
-0.234218
-0.395527
-0.248083
-0.385576
-0.260248
-0.373205
-0.270437
-0.358721
-0.278398
-0.342503
-0.283893
-0.324963
-0.286683
-0.306499
-0.286537
-0.287472
-0.268301
-0.283249
0.189923
-0.0763976
-0.190821
0.188455
-0.0798447
0.186347
-0.0856741
0.183541
-0.0938685
0.179975
-0.104308
0.175589
-0.116829
0.170351
-0.131204
0.164258
-0.147142
0.15734
-0.164332
0.149652
-0.182485
0.141267
-0.201345
0.132274
-0.22067
0.122778
-0.24025
0.11293
-0.260002
0.102857
-0.279897
0.0927429
-0.300602
0.08205
-0.321087
0.0690401
-0.33569
0.0501569
-0.334015
0.0219375
-0.301702
-0.0076422
-0.26586
-0.0311508
-0.295695
-0.0546215
-0.340963
-0.0776999
-0.35952
-0.100272
-0.370298
-0.122306
-0.381501
-0.143912
-0.391627
-0.165008
-0.399226
-0.185516
-0.403691
-0.205353
-0.405072
-0.224395
-0.403378
-0.242468
-0.39868
-0.259353
-0.391091
-0.274795
-0.3808
-0.28851
-0.368057
-0.300213
-0.353183
-0.309634
-0.33656
-0.316518
-0.318609
-0.32061
-0.29976
-0.321651
-0.280428
-0.261031
-0.319426
0.208478
-0.0532117
-0.209217
0.207029
-0.0579872
0.204807
-0.0651258
0.201757
-0.0746018
0.197825
-0.0862819
0.192963
-0.0999943
0.187147
-0.115522
0.180382
-0.132593
0.172704
-0.150915
0.16417
-0.170212
0.154853
-0.190236
0.144843
-0.210753
0.134252
-0.231574
0.12327
-0.252682
0.112096
-0.274058
0.100908
-0.296338
0.0884399
-0.317045
0.0729609
-0.330048
0.0501367
-0.322339
0.0173957
-0.281313
-0.0132204
-0.248684
-0.0377608
-0.285555
-0.0628689
-0.331077
-0.0872791
-0.350999
-0.111328
-0.362636
-0.13494
-0.374587
-0.158267
-0.3851
-0.181061
-0.393111
-0.203242
-0.397824
-0.224734
-0.399265
-0.245423
-0.397468
-0.265137
-0.392549
-0.283673
-0.384642
-0.300786
-0.373975
-0.316209
-0.360825
-0.329655
-0.345538
-0.340848
-0.328505
-0.349528
-0.310158
-0.355437
-0.290955
-0.358312
-0.271359
-0.251793
-0.357935
0.228946
-0.0320485
-0.230076
0.227033
-0.0381104
0.224274
-0.046496
0.220613
-0.0571699
0.216
-0.0699915
0.210395
-0.0847878
0.203784
-0.101353
0.196179
-0.119434
0.187618
-0.138754
0.178156
-0.159048
0.167859
-0.18007
0.156809
-0.2016
0.145133
-0.223485
0.133087
-0.245838
0.120863
-0.268568
0.108363
-0.292021
0.0939763
-0.312202
0.0754459
-0.32233
0.0480433
-0.30692
0.0111985
-0.257519
-0.0194256
-0.232066
-0.0449162
-0.274905
-0.0715142
-0.32002
-0.0970002
-0.341607
-0.122237
-0.353884
-0.147207
-0.366315
-0.172044
-0.376979
-0.19638
-0.385294
-0.220102
-0.390189
-0.24313
-0.391645
-0.265381
-0.389681
-0.286683
-0.384488
-0.306854
-0.376205
-0.325656
-0.365111
-0.342841
-0.351497
-0.358134
-0.335745
-0.371265
-0.318257
-0.381973
-0.299482
-0.39001
-0.279899
-0.395157
-0.259977
-0.24018
-0.397206
0.250838
-0.0129507
-0.252843
0.248032
-0.0202166
0.244362
-0.029754
0.239768
-0.0415177
0.234203
-0.0553651
0.227638
-0.0711285
0.220062
-0.0886115
0.211491
-0.107579
0.201959
-0.127762
0.19151
-0.1489
0.180201
-0.170754
0.168107
-0.193119
0.155377
-0.215912
0.14233
-0.239413
0.129057
-0.263302
0.115002
-0.287275
0.0984137
-0.306137
0.0758125
-0.311379
0.0434758
-0.287266
0.00373224
-0.231392
-0.0260819
-0.216695
-0.052632
-0.26351
-0.0805788
-0.307815
-0.106913
-0.331462
-0.133032
-0.344252
-0.159101
-0.356858
-0.185188
-0.367445
-0.210881
-0.375893
-0.235989
-0.380891
-0.26041
-0.382315
-0.2841
-0.380111
-0.306887
-0.374589
-0.328622
-0.365853
-0.349062
-0.354277
-0.367983
-0.340133
-0.385119
-0.323858
-0.400213
-0.305859
-0.413009
-0.286608
-0.423282
-0.266588
-0.430835
-0.246275
-0.226139
-0.435511
0.273612
0.00408597
-0.276897
0.269556
-0.00426558
0.264665
-0.0148335
0.258878
-0.0275621
0.252155
-0.042314
0.244466
-0.0589233
0.23581
-0.0772078
0.226187
-0.0969287
0.215632
-0.117841
0.204157
-0.139659
0.191833
-0.162194
0.178716
-0.185225
0.165011
-0.208814
0.150981
-0.233298
0.136469
-0.257935
0.120582
-0.281682
0.100821
-0.297739
0.0736112
-0.296517
0.0370653
-0.263964
-0.00408316
-0.204291
-0.0328947
-0.202637
-0.0608331
-0.250922
-0.0901176
-0.294361
-0.117091
-0.320671
-0.143789
-0.333944
-0.170652
-0.346435
-0.197676
-0.356738
-0.224493
-0.365077
-0.250822
-0.370042
-0.276471
-0.371398
-0.301463
-0.368868
-0.325589
-0.362979
-0.348777
-0.353694
-0.370757
-0.341579
-0.391345
-0.326826
-0.410263
-0.309975
-0.427278
-0.291405
-0.442142
-0.271626
-0.45464
-0.251117
-0.464593
-0.23036
-0.209826
-0.471861
0.296498
0.0190714
-0.301338
0.290968
0.00976964
0.284678
-0.00169523
0.277563
-0.0152544
0.269576
-0.0307738
0.260687
-0.0480968
0.25089
-0.0670507
0.24018
-0.0873887
0.228566
-0.108874
0.216056
-0.131215
0.202725
-0.154281
0.188629
-0.177833
0.174034
-0.202139
0.158991
-0.22732
0.142846
-0.251928
0.124846
-0.274818
0.100577
-0.285529
0.0693257
-0.27817
0.0298544
-0.238162
-0.0116434
-0.177142
-0.0398439
-0.189374
-0.0695381
-0.236656
-0.100251
-0.279458
-0.127473
-0.309522
-0.154702
-0.322918
-0.181882
-0.335442
-0.209554
-0.345073
-0.237124
-0.353156
-0.26458
-0.357681
-0.291195
-0.359115
-0.317434
-0.355974
-0.342664
-0.349873
-0.367237
-0.339784
-0.390569
-0.327206
-0.412766
-0.311647
-0.433362
-0.294226
-0.452283
-0.274945
-0.469192
-0.254605
-0.483958
-0.233506
-0.496383
-0.212236
-0.191207
-0.506368
0.318888
0.0319753
-0.325375
0.311891
0.0218045
0.304076
0.00975255
0.29564
-0.00459818
0.286269
-0.020592
0.276247
-0.0386541
0.265201
-0.0579449
0.253479
-0.0789305
0.240677
-0.100613
0.227194
-0.123498
0.212783
-0.146802
0.197758
-0.170849
0.182228
-0.195694
0.166013
-0.22117
0.147994
-0.244889
0.128411
-0.267064
0.0990932
-0.268821
0.0645128
-0.25691
0.0230886
-0.210698
-0.0190027
-0.149573
-0.047968
-0.175411
-0.078752
-0.221265
-0.111008
-0.262887
-0.138148
-0.298251
-0.165771
-0.311225
-0.192764
-0.324303
-0.221007
-0.332458
-0.248714
-0.340684
-0.277374
-0.343681
-0.304443
-0.345934
-0.332105
-0.341219
-0.357976
-0.33571
-0.384013
-0.324029
-0.408352
-0.311497
-0.432224
-0.294531
-0.454261
-0.276856
-0.47518
-0.25641
-0.49402
-0.23569
-0.511209
-0.213641
-0.526111
-0.191947
-0.170133
-0.539021
0.339511
-0.347486
0.331666
0.322269
0.312839
0.302017
0.290976
0.278642
0.265916
0.251946
0.237401
0.221951
0.205779
0.189163
0.171469
0.151713
0.130349
0.0979693
0.0611266
0.0173708
-0.0257064
-0.058206
-0.0891462
-0.121849
-0.149061
-0.176733
-0.203707
-0.232067
-0.259743
-0.289146
-0.316523
-0.345322
-0.371733
-0.399222
-0.424283
-0.449932
-0.473029
-0.496108
-0.516485
-0.536283
-0.553356
-0.569431
0.0966483
-0.527961
0.0687894
-0.500934
0.0451019
-0.472067
0.0260486
-0.44187
0.0120409
-0.410329
0.0032274
-0.377091
-0.000728657
-0.342682
-0.000520406
-0.308489
0.00290329
-0.275839
0.00842351
-0.245801
0.0148591
-0.21925
0.0209364
-0.196866
0.0253228
-0.179135
0.0268267
-0.166947
0.0237849
-0.159073
0.0167839
-0.158298
-0.151023
0.0770533
-0.48801
0.0513387
-0.46362
0.0292947
-0.438014
0.0113165
-0.411523
-0.00218432
-0.38417
-0.011021
-0.355397
-0.0153132
-0.325439
-0.0155894
-0.295291
-0.0126387
-0.26603
-0.00741682
-0.238565
-0.000953327
-0.213702
0.00562819
-0.192026
0.0112767
-0.174092
0.0146287
-0.160468
0.0146657
-0.150258
0.010162
-0.146022
-0.134251
0.0588593
-0.448875
0.0350412
-0.427271
0.014603
-0.404609
-0.00223054
-0.381327
-0.0151459
-0.357551
-0.0239036
-0.332665
-0.0284691
-0.306716
-0.0291941
-0.280322
-0.0266942
-0.254309
-0.0217555
-0.229422
-0.0152832
-0.206354
-0.00824805
-0.185626
-0.00156825
-0.167843
0.00351058
-0.153242
0.00625873
-0.141436
0.00522223
-0.13425
-0.119213
0.0420399
-0.411651
0.0201677
-0.392347
0.0013347
-0.372264
-0.0143079
-0.351741
-0.0265593
-0.330966
-0.0351377
-0.30942
-0.0399085
-0.287011
-0.0410512
-0.264056
-0.0390054
-0.24113
-0.0343878
-0.218808
-0.0279692
-0.197634
-0.0205663
-0.178087
-0.0130196
-0.16075
-0.00640342
-0.145625
-0.00133992
-0.132771
0.000759929
-0.123219
-0.106005
0.0268987
-0.376011
0.00682877
-0.359072
-0.0104347
-0.341314
-0.0248462
-0.323181
-0.0363196
-0.304914
-0.0445848
-0.286185
-0.0494562
-0.266831
-0.0509609
-0.246964
-0.0493673
-0.226925
-0.0451239
-0.207118
-0.0388477
-0.187923
-0.0312135
-0.169765
-0.0229846
-0.153142
-0.0150478
-0.137932
-0.00799368
-0.124489
-0.0030573
-0.113199
-0.0945649
0.0134048
-0.342602
-0.00491953
-0.327709
-0.0206619
-0.312036
-0.0338362
-0.295986
-0.0444243
-0.27984
-0.0522336
-0.263454
-0.0570718
-0.246672
-0.0588504
-0.229511
-0.0576843
-0.212115
-0.05386
-0.194722
-0.0478266
-0.177556
-0.0401187
-0.160962
-0.031402
-0.145307
-0.0224044
-0.130412
-0.0137047
-0.116779
-0.00633168
-0.104344
-0.0849214
0.00159802
-0.311244
-0.0150986
-0.298405
-0.0293749
-0.284647
-0.0413205
-0.270427
-0.0509434
-0.256115
-0.0581538
-0.241672
-0.0627919
-0.227018
-0.0647162
-0.212158
-0.0639127
-0.197114
-0.06052
-0.18198
-0.0548204
-0.166838
-0.047204
-0.15193
-0.0382128
-0.137478
-0.0284293
-0.123261
-0.0184172
-0.109804
-0.00904858
-0.0967354
-0.0770645
-0.00855425
-0.282309
-0.0237615
-0.271232
-0.0366766
-0.25926
-0.0473949
-0.24673
-0.0560222
-0.234007
-0.0625062
-0.221216
-0.0667559
-0.20832
-0.0686652
-0.195346
-0.0681168
-0.182331
-0.0651239
-0.169243
-0.0598166
-0.156053
-0.0524421
-0.14289
-0.0433996
-0.129826
-0.0331156
-0.116617
-0.0221226
-0.103686
-0.0111996
-0.0904132
-0.0709369
-0.0172069
-0.25561
-0.0309977
-0.246274
-0.04266
-0.235929
-0.0522352
-0.224982
-0.0598277
-0.213737
-0.0655008
-0.202365
-0.0692007
-0.19095
-0.0708826
-0.179514
-0.0704442
-0.168155
-0.0677784
-0.156851
-0.0628797
-0.145476
-0.0558704
-0.134033
-0.0469929
-0.122478
-0.0365075
-0.110553
-0.0248689
-0.0984887
-0.0128149
-0.0853846
-0.066464
-0.024452
-0.231354
-0.0369442
-0.223513
-0.0474242
-0.214696
-0.0559475
-0.205213
-0.062592
-0.195351
-0.0674015
-0.185316
-0.0704287
-0.175188
-0.071674
-0.165044
-0.0711121
-0.155013
-0.0686503
-0.14514
-0.064144
-0.135357
-0.0575602
-0.125558
-0.0490326
-0.115535
-0.038659
-0.10507
-0.0267394
-0.0941925
-0.0139576
-0.0816217
-0.0635799
-0.0304384
-0.209273
-0.0417523
-0.202888
-0.0511562
-0.195517
-0.0586759
-0.187447
-0.0644082
-0.178894
-0.0684368
-0.17008
-0.0707841
-0.161149
-0.0714539
-0.152199
-0.070532
-0.143279
-0.068007
-0.134536
-0.0637558
-0.126014
-0.0576178
-0.117649
-0.0495363
-0.109132
-0.039528
-0.100171
-0.0277045
-0.0907071
-0.0146042
-0.0790328
-0.0621387
-0.0353573
-0.189599
-0.0455398
-0.184365
-0.0539783
-0.178304
-0.0606198
-0.171587
-0.0655109
-0.164334
-0.0687424
-0.156723
-0.0704033
-0.148902
-0.0705555
-0.140997
-0.069188
-0.133134
-0.0663466
-0.125403
-0.0620464
-0.117884
-0.0562056
-0.110609
-0.0486016
-0.103413
-0.0391155
-0.0959043
-0.0277169
-0.0879354
-0.014664
-0.0775136
-0.0618461
-0.0392741
-0.171916
-0.0484339
-0.167816
-0.0559966
-0.162954
-0.0618748
-0.157515
-0.0660589
-0.15154
-0.068603
-0.145148
-0.0695926
-0.138455
-0.069124
-0.131578
-0.0672945
-0.124644
-0.0641504
-0.117796
-0.0596552
-0.111197
-0.0538095
-0.104845
-0.0465582
-0.0986334
-0.0376557
-0.0923609
-0.0269146
-0.0858246
-0.0142601
-0.0769208
-0.0624765
-0.0425434
-0.15652
-0.0505946
-0.153284
-0.057282
-0.149427
-0.0624681
-0.145124
-0.0660728
-0.140359
-0.0680862
-0.135181
-0.0685496
-0.129656
-0.0675415
-0.123866
-0.0651648
-0.117913
-0.0615409
-0.111924
-0.0567902
-0.106064
-0.0509058
-0.10046
-0.0438259
-0.0950619
-0.0354132
-0.0897448
-0.0255853
-0.0842529
-0.013564
-0.0771798
-0.0639251
-0.0448395
-0.142867
-0.051968
-0.140519
-0.057838
-0.137608
-0.0623624
-0.134332
-0.0654863
-0.130646
-0.0671217
-0.126631
-0.0672529
-0.122282
-0.065911
-0.117635
-0.0631627
-0.112757
-0.0591193
-0.107733
-0.0539366
-0.102682
-0.0477698
-0.0977339
-0.0406383
-0.0929753
-0.0325095
-0.0883355
-0.0234069
-0.0835031
-0.0125053
-0.077922
-0.0659724
-0.0466859
-0.131449
-0.0527023
-0.129636
-0.057714
-0.127466
-0.061576
-0.125076
-0.0641854
-0.122376
-0.0654911
-0.119398
-0.0654346
-0.116144
-0.0639704
-0.112638
-0.0611131
-0.108888
-0.0569242
-0.104932
-0.0515194
-0.100837
-0.0450754
-0.0966726
-0.0377602
-0.0925337
-0.0296577
-0.0884354
-0.0208478
-0.0840714
-0.0112076
-0.0790892
-0.0684847
-0.0477322
-0.121708
-0.0527068
-0.120489
-0.0568064
-0.118984
-0.0599608
-0.11733
-0.0620676
-0.115472
-0.0630349
-0.113431
-0.0627963
-0.111184
-0.0613088
-0.108732
-0.0585334
-0.10608
-0.0544583
-0.103239
-0.0491345
-0.100214
-0.0426772
-0.0970098
-0.035274
-0.0936515
-0.027163
-0.0901037
-0.0186181
-0.0860251
-0.00993893
-0.0810384
-0.0715651
-0.0487074
-0.114166
-0.0523569
-0.113286
-0.0553599
-0.112273
-0.0576272
-0.111208
-0.0590646
-0.110039
-0.0595994
-0.108768
-0.0591527
-0.107378
-0.05765
-0.105865
-0.0550288
-0.104223
-0.0512542
-0.102436
-0.046307
-0.100494
-0.040209
-0.0983619
-0.0330787
-0.0959673
-0.0251681
-0.0931423
-0.0168525
-0.0894232
-0.00861957
-0.0843203
-0.0752132
-0.049018
-0.108208
-0.0515047
-0.107797
-0.0534085
-0.107273
-0.0547088
-0.106728
-0.0553589
-0.10614
-0.0553061
-0.105513
-0.0544896
-0.10484
-0.0528529
-0.104114
-0.0503468
-0.103322
-0.0469117
-0.102458
-0.0424984
-0.101501
-0.0370635
-0.100413
-0.0306095
-0.0990732
-0.0232663
-0.0971883
-0.0153413
-0.0941171
-0.00745577
-0.0890561
-0.0796161
-0.0496487
-0.10439
-0.0506975
-0.104241
-0.0513441
-0.104089
-0.0515494
-0.103972
-0.0512783
-0.103863
-0.0504988
-0.103765
-0.0491769
-0.103673
-0.0472726
-0.103585
-0.0447516
-0.103483
-0.0415659
-0.103375
-0.0376666
-0.103242
-0.0330019
-0.103046
-0.0275078
-0.102683
-0.021135
-0.101841
-0.0139257
-0.0997894
-0.00659104
-0.0950548
-0.0850907
-0.0496754
-0.101998
-0.0495405
-0.102321
-0.0490025
-0.10261
-0.0481021
-0.102916
-0.0468475
-0.103242
-0.0452419
-0.103599
-0.0432835
-0.103986
-0.0409701
-0.104402
-0.0382822
-0.104845
-0.035209
-0.105316
-0.0317227
-0.105812
-0.0277868
-0.106303
-0.0233188
-0.106731
-0.0181661
-0.106855
-0.0121138
-0.106004
-0.00570587
-0.101947
-0.091623
-0.0501262
-0.101762
-0.0485193
-0.102301
-0.0466881
-0.102925
-0.0446292
-0.103595
-0.0423482
-0.104308
-0.0398617
-0.105062
-0.0371856
-0.105857
-0.0343367
-0.106691
-0.0313341
-0.10756
-0.0282013
-0.108458
-0.0249602
-0.109386
-0.0216116
-0.110333
-0.0180933
-0.111303
-0.0142965
-0.112101
-0.0096982
-0.11247
-0.00473135
-0.109221
-0.0991203
-0.050045
-0.102773
-0.0473187
-0.103815
-0.0443499
-0.10487
-0.0412182
-0.105924
-0.0379668
-0.107009
-0.0346373
-0.108124
-0.0312707
-0.109271
-0.0279104
-0.110444
-0.0245969
-0.111641
-0.0213678
-0.112859
-0.0182604
-0.114095
-0.0153139
-0.115339
-0.012528
-0.116631
-0.00989105
-0.117787
-0.00688363
-0.119054
-0.00364617
-0.116583
-0.107458
-0.0502623
-0.105892
-0.0461631
-0.107121
-0.0420177
-0.108496
-0.0378425
-0.109889
-0.0336747
-0.111312
-0.0295706
-0.112744
-0.025585
-0.114186
-0.0217686
-0.115638
-0.018173
-0.117093
-0.0148531
-0.118544
-0.0118617
-0.119989
-0.00925728
-0.121409
-0.00708626
-0.122855
-0.00538218
-0.124152
-0.0039511
-0.125774
-0.00236453
-0.124102
-0.116412
-0.0497744
-0.110097
-0.0446426
-0.111896
-0.039445
-0.113701
-0.0343003
-0.115446
-0.0292871
-0.117182
-0.0244694
-0.1189
-0.0199126
-0.1206
-0.0156849
-0.122273
-0.0118543
-0.123914
-0.00848839
-0.125513
-0.00565317
-0.127066
-0.00341757
-0.128549
-0.00184541
-0.130013
-0.000998886
-0.131283
-0.000835912
-0.132933
-0.000759692
-0.131895
-0.125613
-0.0491765
-0.116493
-0.0427502
-0.118429
-0.0364839
-0.120539
-0.0304061
-0.122604
-0.0245805
-0.124636
-0.0190884
-0.126608
-0.01401
-0.128517
-0.00942574
-0.130353
-0.00541451
-0.132107
-0.0020539
-0.133767
0.000579291
-0.135326
0.00240815
-0.136754
0.00336187
-0.138107
0.00337025
-0.139203
0.00240587
-0.140656
0.00110435
-0.140053
-0.134735
-0.0476359
-0.123843
-0.0402162
-0.126454
-0.0329315
-0.129003
-0.0259442
-0.131389
-0.0193478
-0.13369
-0.013232
-0.135879
-0.00768803
-0.137948
-0.00280699
-0.139882
0.0013213
-0.141668
0.00460942
-0.143292
0.00697352
-0.144746
0.00833768
-0.146001
0.00863205
-0.147111
0.00779663
-0.147901
0.00576993
-0.148975
0.00301422
-0.148439
-0.143632
-0.0455458
-0.133546
-0.0368982
-0.136243
-0.0286279
-0.139109
-0.0207814
-0.141808
-0.013463
-0.144359
-0.00678097
-0.146725
-0.000838763
-0.148895
0.0042619
-0.15085
0.00842132
-0.152575
0.0115472
-0.154054
0.0135547
-0.155279
0.0143708
-0.156227
0.0139273
-0.156949
0.0121952
-0.157298
0.00908543
-0.157813
0.00485348
-0.156935
-0.152243
-0.0423526
-0.144066
-0.0327319
-0.147581
-0.0234941
-0.150888
-0.0148301
-0.153881
-0.00685817
-0.156642
0.000309956
-0.159134
0.00655926
-0.161336
0.011779
-0.163225
0.0158657
-0.164784
0.018726
-0.165997
0.0202766
-0.166857
0.0204509
-0.167349
0.0191874
-0.167518
0.0164699
-0.167255
0.0122013
-0.167006
0.006574
-0.165494
-0.160507
-0.038305
-0.157098
-0.0275655
-0.160649
-0.0174645
-0.164284
-0.00807472
-0.16757
0.000460456
-0.17051
0.00801155
-0.173071
0.0144554
-0.175227
0.0196779
-0.176952
0.0235749
-0.178228
0.0260554
-0.179042
0.0270416
-0.179387
0.0264756
-0.179256
0.0243053
-0.178689
0.0205348
-0.177622
0.0150873
-0.176408
0.00813519
-0.174012
-0.168358
-0.0331585
-0.170728
-0.0215231
-0.175249
-0.0105876
-0.179308
-0.000557767
-0.182842
0.00842946
-0.185912
0.0162426
-0.188476
0.0227551
-0.190499
0.027852
-0.191953
0.0314322
-0.19282
0.0334116
-0.193087
0.0337242
-0.192753
0.0323264
-0.191819
0.029184
-0.190322
0.0243207
-0.188241
0.0176953
-0.185855
0.00950117
-0.18235
-0.175712
-0.0270877
-0.186926
-0.0145275
-0.191426
-0.00292187
-0.195825
0.00762135
-0.199612
0.0169352
-0.202771
0.0248791
-0.205269
0.0313259
-0.207066
0.036162
-0.208132
0.0392932
-0.208448
0.0406478
-0.208007
0.0401774
-0.206815
0.03786
-0.204883
0.0336912
-0.20225
0.0277235
-0.198939
0.0199595
-0.195168
0.0106394
-0.19035
-0.182461
-0.0201227
-0.203371
-0.00683043
-0.208986
0.00538702
-0.213792
0.0163206
-0.217784
0.0258238
-0.220984
0.0337584
-0.223346
0.0399965
-0.224819
0.0444301
-0.225368
0.0469773
-0.224979
0.047585
-0.223655
0.046229
-0.22141
0.0429172
-0.218269
0.0376859
-0.214285
0.0306302
-0.209527
0.021813
-0.204168
0.0115095
-0.197829
-0.188482
-0.0123916
-0.222275
0.00155421
-0.227831
0.0141875
-0.233014
0.0253652
-0.237225
0.0349131
-0.240429
0.0426888
-0.242582
0.0485669
-0.243622
0.0524494
-0.243514
0.054273
-0.242253
0.0540103
-0.239855
0.0516712
-0.236348
0.0473071
-0.231781
0.041008
-0.226229
0.0329163
-0.219803
0.0231652
-0.212659
0.0120658
-0.20459
-0.193642
-0.00414596
-0.24094
0.0103026
-0.247772
0.0232656
-0.253383
0.0345476
-0.257791
0.0439927
-0.260962
0.0514567
-0.262828
0.0568202
-0.263318
0.0600014
-0.262401
0.0609617
-0.260085
0.0597076
-0.256403
0.056295
-0.251411
0.0508326
-0.245192
0.0434776
-0.237856
0.0344348
-0.229552
0.0239083
-0.220433
0.0122544
-0.210446
-0.197817
0.00449423
-0.261764
0.0192896
-0.268589
0.0323848
-0.274664
0.0436221
-0.279311
0.0528136
-0.28242
0.0598108
-0.283919
0.0645057
-0.283733
0.0668384
-0.281841
0.0668025
-0.27827
0.0644506
-0.273083
0.0598994
-0.266376
0.0533261
-0.258274
0.0449576
-0.248928
0.0350653
-0.238528
0.0239443
-0.227257
0.012027
-0.215211
-0.20089
0.013075
-0.281746
0.0281221
-0.290102
0.0412522
-0.296697
0.0522945
-0.301592
0.0610749
-0.304615
0.067445
-0.305664
0.0713138
-0.30467
0.0726505
-0.301627
0.0714927
-0.296591
0.0679548
-0.289669
0.0622266
-0.281011
0.0545617
-0.270792
0.0452666
-0.259212
0.0346803
-0.246501
0.023196
-0.23291
0.011348
-0.218705
-0.20275
0.0215324
-0.303362
0.0366094
-0.311978
0.0495873
-0.319213
0.060275
-0.324414
0.0684746
-0.327329
0.0740474
-0.327847
0.0769255
-0.325909
0.0771167
-0.32153
0.0747192
-0.314812
0.0699239
-0.305925
0.0629995
-0.295075
0.0542757
-0.282492
0.0441416
-0.26844
0.0330488
-0.253233
0.0215134
-0.237219
0.0101401
-0.220797
-0.203354
0.0293617
-0.323568
0.0444219
-0.334037
0.0571457
-0.342008
0.0673403
-0.347562
0.0748103
-0.350352
0.0794336
-0.350258
0.0811723
-0.34723
0.0800877
-0.341323
0.0763545
-0.332704
0.0702457
-0.321608
0.0621099
-0.308305
0.0523634
-0.293094
0.0414964
-0.276334
0.0300788
-0.258457
0.0187733
-0.239958
0.0083446
-0.221407
-0.202718
0.036547
-0.344731
0.0514044
-0.355935
0.063772
-0.364858
0.0733696
-0.370838
0.0800069
-0.373506
0.0835775
-0.372722
0.084081
-0.368457
0.0816458
-0.360823
0.0765255
-0.350063
0.0690695
-0.33648
0.0597072
-0.320415
0.0489604
-0.302281
0.0374593
-0.282585
0.0259356
-0.261922
0.0152018
-0.240951
0.00611209
-0.220386
-0.200732
-0.515213
-0.196836
0.535481
-0.49334
-0.202175
-0.46981
-0.207005
-0.444885
-0.211135
-0.418745
-0.214581
-0.391581
-0.21722
-0.363639
-0.219045
-0.335107
-0.219968
-0.306216
-0.219971
-0.277164
-0.218993
-0.248135
-0.217011
-0.219321
-0.213985
-0.190848
-0.209897
-0.162877
-0.204729
-0.135493
-0.198475
-0.108795
-0.191144
-0.0828539
-0.182754
-0.0576821
-0.173347
-0.0333673
-0.162974
-0.00981914
-0.15171
0.0128298
-0.139662
0.0347698
-0.126926
0.0558187
-0.113686
0.0762496
-0.100038
0.09582
-0.0862292
0.114885
-0.0723758
0.133134
-0.0587681
0.150995
-0.0455557
0.168098
-0.0330126
0.184911
-0.0212758
0.201054
-0.0106459
0.216963
-0.00118909
0.232319
0.00676508
0.247436
0.0132358
0.262194
0.0179034
0.276568
0.0208457
0.290855
0.0219047
0.304463
0.0211896
0.31834
0.0187428
0.331184
0.0146653
0.00921345
-0.528992
-0.225509
0.549502
-0.506687
-0.229867
-0.482748
-0.23362
-0.457321
-0.236637
-0.430628
-0.238891
-0.402859
-0.240322
-0.374252
-0.240896
-0.34502
-0.24057
-0.315392
-0.239317
-0.285574
-0.237103
-0.255767
-0.23391
-0.22615
-0.229714
-0.196883
-0.224505
-0.168102
-0.218275
-0.13992
-0.211029
-0.112428
-0.202782
-0.0856924
-0.19356
-0.0597609
-0.18341
-0.0346599
-0.172389
-0.0103972
-0.16058
0.0130247
-0.148081
0.0356365
-0.135016
0.0574391
-0.121529
0.0784922
-0.10777
0.0987993
-0.0939264
0.118438
-0.0801851
0.137416
-0.0667665
0.155805
-0.0538796
0.173609
-0.0417311
0.190907
-0.0305337
0.207686
-0.020492
0.224052
-0.0117895
0.239965
-0.00460711
0.255562
0.000902263
0.270779
0.00462748
0.285712
0.00649158
0.300322
0.006484
0.314653
0.00463871
0.328713
0.00104898
0.342455
-0.00411381
-0.0106833
-0.53715
-0.254208
0.557214
-0.515156
-0.25756
-0.491385
-0.260235
-0.466009
-0.262125
-0.43924
-0.263199
-0.411294
-0.263421
-0.38241
-0.262763
-0.35282
-0.2612
-0.32276
-0.258714
-0.292451
-0.255289
-0.262103
-0.250913
-0.231904
-0.245581
-0.202024
-0.239289
-0.172606
-0.232044
-0.143772
-0.223857
-0.115616
-0.214751
-0.0882113
-0.204762
-0.0616085
-0.193939
-0.0358377
-0.18235
-0.0109125
-0.170077
0.013168
-0.157224
0.0364195
-0.143918
0.0588609
-0.130301
0.0805257
-0.116531
0.101445
-0.102787