/*--------------------------------*- C++ -*----------------------------------*\
  =========                 |
  \\      /  F ield         | OpenFOAM: The Open Source CFD Toolbox
   \\    /   O peration     | Website:  https://openfoam.org
    \\  /    A nd           | Version:  6
     \\/     M anipulation  |
\*---------------------------------------------------------------------------*/
FoamFile
{
    version     2.0;
    format      ascii;
    class       surfaceScalarField;
    location    "1.46";
    object      meshPhi;
}
// * * * * * * * * * * * * * * * * * * * * * * * * * * * * * * * * * * * * * //

dimensions      [0 3 -1 0 0 0 0];

internalField   nonuniform List<scalar> 
11670
(
0.154978
-0.0667818
0.126572
-0.250146
0.0966361
-0.0164633
0.0304302
-0.0809973
0.221992
-0.061218
0.0720076
-0.238653
0.508821
-0.230943
0.462036
-0.787609
0.356382
-0.0665502
0.239538
-0.55027
-0.00998645
0.0035811
0.00336781
0.00213034
-1.00346
0.158731
-0.214179
1.06436
0.335655
0.0692864
-0.000323758
-0.344934
-0.39603
-0.0530327
0.0200113
0.396564
0.46376
-0.14615
0.233213
-0.506422
-0.883326
0.0575026
-0.438742
1.2672
0.00672691
0.00576524
-0.0101953
0.0142392
-0.00314643
-0.00143247
-0.0223163
0.0107131
-0.0129156
0.00571951
0.0105768
-0.0236799
0.00577748
-0.00491392
0.0300431
-0.0108864
-0.00285007
0.00094005
-0.012753
0.00525163
0.00305706
-0.000850668
0.00969157
-0.00425014
0.00269205
0.00160596
-0.00427738
0.00595242
-0.00604665
-0.000740225
-0.0178916
0.0112367
-0.0039888
-0.0012699
0.00416278
-0.00613472
0.000535408
0.000896284
0.0124142
-0.00458776
-0.00343061
-0.00164215
0.00368404
-0.00368919
0.00266618
0.00130037
-0.00399349
0.00580745
0.0101148
-9.78192e-06
0.0170501
-0.010896
-0.000900406
-0.000966957
-0.0141011
0.00521433
-0.0121003
0.00669766
0.0106788
-0.035454
-0.00123091
0.00265682
-0.0112501
0.034867
-0.019347
0.00400282
-0.0256942
0.0168214
0.00923409
0.000824771
-0.017383
0.0275108
0.0120613
-0.0143346
0.0173681
-0.0556374
0.013094
-0.000573366
-0.0216371
0.0344496
-0.0255695
0.00664881
-0.0315539
0.020924
0.0192607
-0.0222839
0.0216041
-0.0687817
0.00637949
0.0140673
0.0339942
-0.0227592
0.0293823
-0.0263389
-0.0234988
0.0749156
-0.0356595
0.0326107
0.0234934
-0.0750947
-0.0038916
-0.0164883
-0.033834
0.0227539
-0.0129154
0.00691856
-0.0500965
0.0229822
0.0222718
-0.00572315
0.0337377
-0.0225141
-0.0181715
0.0262519
-0.0261094
0.0823675
0.00154596
-0.0134837
-0.0314704
0.0197648
-0.00574457
0.00728944
0.0540799
-0.0191337
0.0208975
-0.0301073
0.0187835
-0.0612519
0.0220879
-0.000575945
-0.0179191
0.024295
-0.0157196
0.00718382
0.0136622
-0.0271756
0.00491172
0.00110141
0.0295169
-0.0138276
-0.00217204
-0.00431588
-0.0327923
0.0138382
0.0154858
-0.00633418
-0.0136518
0.0299509
-0.000967508
-0.00366261
-0.012206
0.00766588
0.00610999
0.00169967
-0.00693388
0.0085533
0.00278737
-0.0063247
0.00728529
-0.0238896
0.000619041
1.01455e-05
0.022406
-0.00740386
0.00028802
0.000130327
-3.37063e-05
0.000805987
-0.000247164
0.000144884
-0.00176763
-4.14756e-05
2.15534e-14
2.95847e-14
-9.16778e-14
1.40206e-13
-0.00474079
-0.00911371
0.00663758
-0.00567326
0.00654306
0.00462958
0.00819998
-0.0067924
0.00395373
-0.00350742
-0.0272597
0.00891674
-0.000229567
-0.00220588
-0.00775596
0.0222203
-0.0181987
0.00340275
-0.0243797
0.0167784
0.0173044
-0.000819301
-0.0155445
0.0224531
0.0122596
-0.0145306
0.0173237
-0.0561067
-0.00697255
0.0109369
0.0603663
-0.0193145
-0.000155458
-0.00860304
-0.0230892
0.014501
0.0114729
-0.018445
0.0137811
-0.0457536
-0.00595237
0.0046985
0.051432
-0.0149446
0.0149195
0.00137716
-0.0138888
0.0175694
0.00353069
-0.017156
0.0235464
-0.0374888
0.0298626
-0.00273343
-0.0225656
0.0295899
-0.0192846
0.017284
0.0816151
-0.0242811
-0.0160626
0.0186732
-0.0228472
0.0740771
0.0245121
-0.00475487
0.0327508
-0.022128
-0.0316686
0.00518778
0.0219538
-0.0289839
0.0241666
-0.0224034
-0.0795298
0.0236228
-0.0247894
0.00619386
-0.0307742
0.0208985
0.0194096
-0.0222219
0.0215777
-0.0693588
0.00878578
0.0159027
-0.0207251
0.0268111
0.0244267
-0.026277
0.0756402
-0.0223007
0.0229271
0.00587913
0.0211418
-0.0175127
-0.000650967
-0.0192741
-0.0215516
0.0158064
0.0194043
-0.0274081
0.024931
-0.0689518
0.00567223
-0.0119515
-0.019997
0.0572902
-0.00354591
-0.00126124
0.124038
-0.00327613
-0.015147
0.231588
0.0152876
-0.0231311
0.138908
0.0828428
-0.0937696
-0.984245
0.0567166
-0.00679738
0.292796
-0.000732875
-0.00168014
-0.00679494
-0.128162
0.121232
0.386206
0.0966431
-0.108265
0.483298
0.0504824
-0.136229
-0.33642
0.0178128
-0.0272917
0.507636
0.115127
-0.100471
-0.887133
0.0288338
0.0428006
-0.612881
0.524869
-0.205842
-0.0189142
-0.0328403
0.251192
1.5833e-05
0.00185161
0.00375515
-0.00198907
-0.0137165
-0.00394228
0.0769498
-0.051222
0.0249653
-0.106593
-0.0733987
0.165365
-0.041501
0.199623
0.112951
-0.259924
-0.0343687
0.125295
0.0998453
-0.1998
-0.0399161
-0.0373365
0.161816
-0.0910798
-0.104687
-0.612881
0.494272
0.00256399
0.000263892
-0.0138453
0.0106829
0.00101931
0.0143774
-0.00896429
0.00462805
0.0191232
-0.0821928
-0.0495195
0.104544
0.0105187
0.0171879
-0.0147807
-0.0188464
0.0276381
-0.0204005
0.00995365
-0.00611733
0.0637299
-0.0467157
0.00773457
-0.0168418
0.0112001
0.024108
-0.189526
0.122847
-0.0331073
0.164374
-0.0968495
0.00105299
0.00421418
-0.00169041
0.0614628
-0.205567
0.114
-0.15093
-0.0705659
0.176146
-0.0378062
-0.0271698
0.0592665
0.0224201
-0.0162842
0.00486922
-0.0109117
0.028768
0.00520299
-0.0114575
0.000281397
-0.00810954
0.000405431
0.0376382
0.0677698
0.000365285
-0.0376382
-0.0866493
-0.0100292
-0.101064
0.17291
-0.249641
-0.101616
0.239776
-0.0150722
-0.0117717
0.0180669
0.00224973
-0.0347737
-0.0118792
0.0250535
-0.104869
-0.0433223
-0.160763
0.295542
-0.278253
-0.150352
0.310324
-0.152353
-0.0594972
-0.207119
0.445314
-0.307575
-0.204344
0.385911
0.065897
-0.0896695
-0.0684213
0.115306
-0.00335228
-0.0675345
0.159896
-0.158866
0.231893
0.111082
-0.198109
-0.0543711
0.11011
-0.228605
-3.61893e-05
0.00755181
3.56841e-06
-0.000658927
0.00616177
3.37166e-06
0.000658927
-0.211392
0.215055
-0.217251
0.0135462
0.039683
0.17326
0.313928
-0.0181193
-0.0400867
-0.245034
0.0769026
0.000675789
-0.0215472
-0.067089
0.225935
-0.0105369
-0.0275691
-0.176069
-0.0765459
0.00865893
-0.000501823
0.0577752
-0.128245
0.00844828
0.0212726
0.108204
0.125979
-0.00460839
-0.0153857
-0.0938253
-0.0420886
0.00401474
0.00760733
0.0400591
0.038154
-0.000136146
-0.0112999
-0.0374946
-0.0623641
0.00541523
0.00101
0.0451366
0.0786091
0.0016166
-0.02296
-0.0642356
-0.0803186
0.0098512
-0.00296274
0.0659639
0.262567
-0.0940685
0.0270886
-0.218504
-0.289048
-0.0452532
0.0810791
0.228742
0.674231
-0.107344
-0.024152
-0.508416
-0.372432
0.0206849
0.070696
0.31145
0.279972
-0.00177693
-0.0974169
-0.192786
-0.935075
0.104007
0.0906904
0.755876
0.909911
-0.111157
-0.0950225
-0.69151
0.374236
-0.0136587
-0.0824907
-0.247802
0.123257
0.00915121
-0.0601972
-0.103476
-0.456709
0.137466
0.143227
0.169416
-0.608768
0.110991
0.203754
0.284313
1.3248
-0.29941
0.0389496
-1.01983
-0.939574
-0.151703
0.427323
0.607326
0.473567
-0.00868005
-0.210292
-0.284122
0.176054
-1.36557
0.231473
0.973414
0.85046
-0.21787
-0.11643
-0.480701
0.571721
-0.187201
0.0753674
-0.389975
-0.263902
-0.367724
1.56165
-0.92043
-0.954775
-0.0445646
0.228121
0.751577
1.02442
-0.248187
-0.0311301
-0.707223
-0.96799
-0.0368089
0.274272
0.773637
0.557952
-0.263623
-0.0538468
-0.260754
-1.10709
0.413126
0.102007
0.626497
-0.272971
-0.0701641
0.148392
0.274783
0.250343
0.0399646
-0.157313
-0.198933
-0.95019
0.451077
0.246499
0.237686
-1.08498
-0.159366
0.367378
0.815535
0.740436
-0.236936
-0.159357
-0.332334
0.762977
-0.228737
0.0903548
-0.57339
-0.413924
0.155734
0.030677
0.202696
0.499902
-0.160949
0.0741911
-0.350009
0.80554
-0.238835
0.0421024
-0.629819
0.83058
-0.132684
-0.304238
-0.405836
0.573485
0.0977739
-0.290257
-0.43362
0.00541816
0.214813
-0.739069
0.561949
-0.212659
0.00376003
0.105642
0.146977
-0.261844
-0.000995476
0.05442
0.186338
0.0853637
-0.0260513
0.00186965
-0.0828104
-0.620636
-0.0974745
0.231633
0.54646
0.644097
-0.290231
0.127942
-0.539293
-0.256287
-0.0626161
0.133778
0.257488
-0.309564
0.0750554
0.146424
0.0814178
0.206867
-0.0861884
-0.076076
-0.0545617
-0.00753549
0.0571511
-0.0330445
1.14214e-15
-0.00210443
0.00178585
-5.5396e-16
-0.00223747
0.00255604
-1.76047e-15
8.53301e-16
-0.00302468
0.0499245
-0.029541
0.0483553
0.126687
-0.634304
0.453787
0.474996
-0.0827277
-0.0542063
-0.34575
-2.10382e-13
0.00173893
-0.00371147
1.38638e-13
4.33941e-14
-0.00162025
0.000795021
-6.73574e-14
0.0239562
-4.75684e-05
-0.00223263
-0.0132093
0.083478
-0.0209089
0.000292324
-0.0398656
0.0318483
5.27598e-05
-0.00283582
-0.0178231
-0.0239562
8.46549e-05
0.000680309
0.0132081
-0.0318503
-1.15214e-05
0.00446506
0.0178231
0.000242152
0.00600161
-0.00420779
-3.09709e-05
6.34824e-07
-0.00369991
0.000980594
-5.30993e-06
-4.50661e-06
0.0008811
-0.00465381
3.49235e-07
-0.00717008
0.0106398
-5.291e-05
0.000248048
0.179856
-0.0133507
-0.0354371
-0.131611
-0.630761
0.0262975
0.230585
0.375077
0.0248211
0.0244829
-0.18329
0.135833
0.720444
-0.00912091
-0.171855
-0.5137
-0.938973
0.426941
0.254197
0.246018
0.204089
-0.0321878
-0.042416
-0.113385
-1.0495
0.304807
-0.0961863
0.789925
-0.25391
0.0114652
0.0841108
0.172836
-0.412274
0.152132
0.0528192
0.186134
0.39074
0.0529334
-0.115931
-0.27347
0.00051076
0.012265
-0.00807026
-4.98764e-05
-7.16154e-05
-0.00885485
0.0140456
0.000475064
0.00224221
-0.00809708
0.00121259
0.0023855
-0.16421
-0.0180151
0.0420835
0.123358
0.06634
0.0613296
-0.477679
0.365653
0.616505
-0.092918
-0.0583056
-0.451102
0.192426
-0.0653824
0.0138839
-0.160126
0.77364
-0.202926
-0.389074
-0.202847
0.2021
-0.00503217
-0.638025
0.47297
-0.164191
0.0267351
-0.00955828
0.0815278
0.604271
0.0822079
-0.227905
-0.50675
0.0791688
-0.0097311
-0.0289485
-0.0444796
0.309157
-0.0240955
-0.0417901
-0.239665
-0.358136
0.015594
0.0612804
0.286157
0.191408
-0.0284111
-0.101846
-0.0867973
-0.213594
0.102767
-0.0415556
0.215074
-0.0249119
-0.08086
0.421303
-0.301404
-0.576665
0.0733945
0.0484542
0.465362
0.705922
-0.0675727
-0.0586156
-0.568991
-1.00368
0.163432
0.0938738
0.749677
0.263328
-0.0592924
-0.00920973
-0.198352
-0.103064
-0.138991
0.959657
-0.717103
0.0129573
0.0485158
-0.305282
0.242293
-0.826486
0.194491
0.624827
0.367901
0.00823064
-0.0898678
-0.257244
0.246323
0.0997109
-1.22156
0.870177
-0.465295
0.112211
-0.0286337
0.339335
-0.175613
-0.0155497
0.0362062
0.0917008
-0.395108
0.104509
0.0204372
0.2876
0.475233
0.0134808
-0.394486
-0.323329
0.101497
-0.0014806
0.254538
1.15426
-0.096523
-0.213102
-0.853791
0.158971
0.0228996
-0.0641114
-0.157869
0.110878
-0.0100817
-0.0571773
-0.136383
-0.0131324
0.0360499
0.0667088
1.36491
-0.0830868
-0.247025
-1.03663
0.132685
-0.0184454
0.00394229
-0.0668877
1.26486
-0.0529959
-0.241103
-0.978637
0.0960253
-0.0199281
-0.00564432
-0.0442246
-1.41242
0.245955
0.105267
1.06353
0.124293
0.00661136
-0.012063
-0.0631952
0.0292287
-0.108231
0.00836664
0.0245614
0.994797
-0.0249306
-0.208831
-0.770493
-1.4703
0.229558
0.0692082
1.16757
0.253749
-0.00976163
-0.0885726
-0.155452
-0.724468
0.165039
0.232687
0.327514
0.665342
-0.189165
-0.179382
-0.300775
-0.261008
0.00519286
0.102476
0.161703
-0.713915
0.0328222
0.280236
0.394513
0.429358
-0.152582
-0.0461465
-0.203086
-0.0317925
-0.0752835
0.198658
-0.0963143
-0.195693
0.0504302
0.0497264
0.0948768
0.0857392
0.133254
-1.01802
0.806764
0.911522
-0.114012
-0.103108
-0.690125
-0.010371
0.0152314
4.9081e-12
-3.80956e-12
-3.74959e-12
0.0153655
-0.0112352
2.91305e-12
0.1762
-0.0427808
-0.0385625
-0.0892695
-0.164214
0.0284899
0.0633517
0.0834843
-1.14864
0.189209
0.0408998
0.912565
1.22139
-0.421884
-0.095169
-0.704207
-0.0746673
0.00807856
0.00130198
0.0601664
0.082461
0.000848173
-0.0206542
-0.0686888
-0.637335
0.103995
0.053568
0.483284
-0.0653727
-0.0792013
0.713004
-0.566111
-0.5556
0.147063
0.254094
0.146015
-0.171962
0.0771528
0.0352181
0.0429704
-0.258588
0.0655553
0.0131444
0.215396
0.0353193
0.028677
-0.123586
0.0599174
0.0572326
0.00101253
-0.026287
-0.0366997
-0.0444553
-0.0204134
0.121002
-0.0586646
0.209021
-0.100366
-0.0298364
-0.0921752
0.0809094
-0.0024067
-0.0202817
-0.0608636
0.141705
-0.0314682
-0.0937153
-0.0353825
0.00842409
0.0103021
-0.0838558
0.0636005
0.241145
-0.00433784
-0.0799173
-0.151849
-0.144494
0.0825523
0.0418438
0.0370579
0.413047
-0.182537
-0.13569
-0.10893
0.174185
-0.0501834
-0.0658458
-0.0449233
0.00100229
-0.0344013
0.0795585
-0.0498537
0.236108
-0.0359541
-0.0725503
-0.141463
0.683789
-0.253669
-0.0445997
-0.394334
-0.0794198
0.0174046
0.0115361
0.0442853
-0.208112
0.0348071
0.0718237
0.0917374
-0.0293531
-0.0486305
0.306972
-0.227349
-0.246783
0.00661935
0.0489374
0.18895
-0.0800586
0.00639577
0.0122042
0.0617174
-0.00312433
-0.0156509
0.0846029
-0.0666815
-0.256207
0.0145191
0.0480888
0.201967
0.122109
0.0022727
-0.0318097
-0.0713575
0.34135
-0.0215125
-0.0412531
-0.269134
-0.04101
0.00430491
0.0126437
0.0174754
-0.353148
0.0191008
0.0764126
0.260482
0.192114
-0.0185051
-0.0139623
-0.163909
0.259053
0.00250321
-0.0511486
-0.191852
0.0758191
-1.70109e-05
-0.0282829
-0.047713
-0.279683
0.0702704
-0.00264247
0.235657
0.0458215
-0.00442355
-0.00756486
-0.0264095
0.526438
-0.0184172
-0.106481
-0.363828
-0.16397
0.00335768
0.0531583
0.103441
-0.149782
-0.0054847
0.03069
0.0958394
0.759579
-0.408074
0.0474593
-0.425117
-0.719585
0.0456213
0.223431
0.465732
-0.0750224
0.0232456
0.166017
-0.154846
-0.241104
0.0319179
0.0881648
0.169344
-0.180233
-0.0134117
0.0590404
0.182132
0.276474
-0.169787
0.0681517
-0.239424
0.000784574
-0.128353
0.118508
-0.373209
0.00723554
0.258141
0.197322
-0.0382067
-0.140207
-0.0542391
0.144537
-0.125037
-0.691133
-0.0561554
0.337588
0.379047
0.21411
-0.131057
0.0657165
-0.214938
0.221883
-0.00827596
-0.0751181
-0.138567
0.220398
0.17784
-1.46415
1.07509
0.674076
-0.159815
-0.00369424
-0.52053
-0.307228
0.114062
-0.0407166
0.283868
1.24231
-0.265443
-0.12901
-0.810616
-0.631837
-0.0796164
0.22306
0.428532
0.826688
-0.349388
0.0577438
-0.498704
-0.892875
0.533874
0.24894
0.0708298
-0.2601
-0.0280588
0.0729542
0.181564
0.423505
-0.090697
0.00592875
-0.296133
0.323934
-0.134956
0.05563
-0.284639
0.0621947
-0.00262008
-0.00801895
-0.045114
-0.0381999
0.00312943
0.00644933
0.0378761
0.0421134
-0.00740788
-0.00380536
-0.0395001
0.229014
0.00972632
-0.0466244
-0.154431
-0.128955
0.00187183
0.0254749
0.093842
-0.281495
0.048552
0.0203984
0.178188
-0.292323
-0.00570279
1.03729
-0.759022
0.412294
-0.0599094
-0.150239
-0.241177
0.477968
-0.209578
0.066967
-0.379985
0.522219
-0.10894
-0.0612915
-0.309861
-0.389645
-0.0848738
0.14864
0.266958
-0.321236
0.0450552
0.129749
0.162185
0.464038
0.0712293
-0.220083
-0.370666
0.830883
0.065027
-0.234265
-0.701803
-0.451224
-0.0691928
0.208196
0.380146
1.17626
-0.206207
-0.24782
-0.737851
-1.2332
0.219134
0.143565
0.890457
0.305602
0.0221833
-0.0741464
-0.205182
-0.769451
0.0131207
0.13948
0.609689
0.396663
0.0483704
-0.109413
-0.292896
1.54622
-0.171777
-0.229292
-1.14128
-0.608302
0.203427
0.506105
-0.0450719
-0.246766
0.342878
-0.0876041
-0.345472
-0.0656766
0.116074
0.2595
-1.12956
0.0417708
0.253222
0.821318
-0.489298
0.193118
0.00100976
0.30682
-0.735231
0.0536847
0.279091
0.421998
-0.773388
0.240264
0.353492
0.203155
1.09976
0.0732037
-0.306566
-0.895969
1.05168
-0.00750822
-0.282264
-0.71812
-0.0892713
0.21477
-0.590823
0.421018
0.784172
-0.253785
0.088999
-0.550296
0.293828
-0.104173
-0.839749
0.588972
-1.01459
0.266446
-0.0328374
0.748455
0.767612
-0.338639
-0.00438112
-0.470018
-0.760503
0.189161
-0.00231886
0.600771
0.346112
-0.0213392
-0.0604127
-0.216176
-0.368287
0.00761096
0.122804
0.235273
-0.133862
0.0118809
0.0329826
0.104233
0.159216
-0.0234508
-0.0146882
-0.108623
0.112339
-0.03165
-0.0202092
-0.0785457
1.38125e-12
0.00102015
-0.0041667
-1.03602e-12
-0.00915008
-0.00597289
0.0141961
0.00302014
0.014547
0.0649476
-0.163906
0.0875785
-0.000673502
-0.00554749
0.0054195
-1.32216e-12
-0.0026979
0.00086399
1.17771e-12
0.195939
-0.0601605
-0.00274115
-0.144586
0.00643739
0.00454723
-0.0145458
0.00765494
-0.00195978
-0.00142276
0.00794796
-0.000971368
5.21224e-06
0.000613337
-0.00486394
-4.28387e-07
0.00389752
0.038053
-0.174403
0.122889
-0.125451
0.0334088
0.0512147
0.0314074
-0.539579
0.0666023
0.098231
0.363491
0.17807
-0.0033551
-0.0650553
-0.12932
-0.151126
0.0399039
0.0319092
0.0896531
0.129633
-0.0811795
-0.0279447
-0.0324544
0.493892
-0.153148
-0.0168018
-0.329225
-0.39341
0.117019
0.0910132
0.192637
-7.73674e-07
-0.00434179
0.000877111
6.13407e-06
1.00641e-12
0.00149139
-0.00276914
-6.8121e-13
-0.147907
0.031479
0.00408752
0.0952636
-0.0717111
0.0190407
0.0121514
0.0255649
0.0834263
-0.0214091
-0.00532961
-0.046937
0.102246
-0.0108386
-0.0241549
-0.0568128
0.339511
-0.192862
0.0928624
-0.302901
-0.411322
0.08231
0.228912
0.153044
-1.14172
0.171777
0.277741
0.715795
-0.489753
0.267658
0.0654113
0.125886
0.865885
-0.256182
-0.00238678
-0.551195
0.809224
0.0659984
-0.634608
0.0868131
0.13065
-0.258112
0.0646196
0.292835
-0.0507967
-0.0359161
-0.169504
-0.283572
0.0809387
-0.0278323
0.182611
-1.379
0.32516
-0.075049
1.10015
0.938608
-0.388917
-0.288648
-0.246391
-1.01846
0.359089
0.4145
0.260026
0.502287
0.0543054
-1.25697
0.690114
0.932651
-0.00216563
-0.176715
-0.727793
-1.05658
0.382662
0.02406
0.628215
0.278675
-0.181871
-0.0472293
-0.0706718
-0.531061
-0.127996
0.213561
0.382353
-0.208521
0.110553
-0.0452424
0.205043
-0.193722
-0.114296
0.438625
-0.109812
-0.29019
-0.0340191
0.118568
0.182028
0.826688
-0.199789
-0.440345
-0.211402
0.334275
0.0288195
-0.76273
0.431128
1.09555
-0.342841
-0.0702016
-0.676789
1.09962
-0.413015
-0.401382
-0.280781
-0.286243
0.0561605
0.141688
0.0727091
-0.498954
0.231525
-0.0386632
0.270101
0.500765
0.0796494
-0.152371
-0.36058
-0.163625
0.0699469
-0.0209541
0.16263
0.231918
0.034573
-0.0981396
-0.216147
0.789343
-0.34123
-0.246767
-0.205255
-1.22481
0.425578
0.0997164
0.700976
0.460566
0.264905
-0.993016
0.253688
-0.369103
-0.00598216
0.300036
0.797081
-0.269073
-0.16088
-0.362569
-0.778931
0.323175
0.261966
0.202546
0.359316
0.0423918
-0.0883978
-0.262561
-0.493334
0.13335
-0.0209822
0.343465
1.17701
-0.0342503
-0.204405
-0.949426
-0.119173
0.499694
-0.380023
0.491373
-0.10951
-0.0710241
-0.296595
-1.42897
0.233783
0.0366119
1.14975
0.0170318
-0.290256
1.13306
-0.816681
-1.09757
0.387623
-0.180908
0.835186
0.329749
-0.0173218
-1.51654
1.17996
1.10938
-0.0849081
-0.208533
-0.798066
0.752233
0.0897828
-0.235108
-0.545282
-1.22088
0.349341
-0.0513054
0.885134
1.29702
-0.131463
-0.164444
-0.994713
-0.395934
0.0972736
0.105865
0.192642
1.37378
-0.0681983
-0.437662
-0.866715
-0.356295
0.106467
-0.0427998
0.239221
-0.892136
0.268759
-0.027305
0.696039
0.760588
0.145158
-0.338845
-0.619502
1.15068
0.0112623
-0.294864
-0.891265
0.234274
0.0562791
-0.964994
0.697492
-0.24609
-0.159381
0.539041
-0.138044
-0.496271
0.208736
-0.0942444
0.452314
0.308448
-0.0207428
-0.0510994
-0.194704
0.0770252
-0.328278
0.918963
-0.711697
-1.42711
0.166377
0.128055
1.14331
0.439477
0.0791653
-0.26606
-0.295632
-0.382864
0.234638
-0.0343776
0.224545
-0.536858
0.227582
0.1786
0.137488
-0.0199105
-0.54006
0.388636
-0.0394853
0.272417
-0.88587
0.626497
1.15166
-0.222185
-0.00937189
-0.875843
0.558299
-0.195132
-0.423986
-0.44732
-0.0968154
0.178686
0.309424
-0.949789
0.430158
0.298972
0.242448
0.855534
-0.295842
0.0482412
-0.638213
-0.732491
0.0054773
0.171925
0.595936
-0.637544
-0.144547
0.273164
0.440948
0.777038
-0.211399
0.0548918
-0.561641
0.500613
-0.136279
-0.11607
-0.242571
0.262887
-0.0444066
-0.0316076
-0.152014
0.292095
-0.164537
0.061774
-0.242857
-0.0433322
-0.068093
0.405193
-0.285511
-1.08213
0.20204
0.0628469
0.808358
-0.485756
-0.0690435
0.178549
0.443252
0.387332
-0.233693
0.102717
-0.322149
0.353905
-0.121478
-0.0413717
-0.171501
0.794803
-0.144673
-0.175398
-0.503206
-0.460662
0.133051
0.0794997
0.275739
-0.266445
0.0896962
0.00935484
0.136068
-0.0122971
-0.0501048
0.195997
-0.108905
0.0958849
0.0303291
-0.432136
0.318879
-0.04033
-0.18252
1.06306
-0.854634
-0.437586
0.211764
0.098491
0.109435
0.312381
0.0294256
-0.0799238
-0.226124
0.622773
0.0225764
-0.261401
-0.406312
-0.274049
0.0677411
-0.00341556
0.175352
0.257613
-0.0720142
-0.143593
-0.0644051
-0.252313
0.087913
-0.0228791
0.229474
0.610768
-0.617954
-0.00440889
0.0228994
-0.0777773
0.174878
0.0943616
-0.444738
-0.155304
0.696903
-0.406912
-0.113912
0.427513
-0.144625
0.24711
0.0153219
-0.0451068
0.0844218
-0.406426
-0.0114342
0.0405829
-0.0190129
0.140744
0.0267177
-0.0871704
-0.0626466
0.0924191
-0.0125085
0.0483871
-0.152298
0.282366
-0.460878
0.201689
-0.00511197
0.0234534
0.217711
-0.349806
-0.0444111
0.0448398
-0.136819
0.121001
-0.480735
-0.026895
0.00859746
0.0824184
-0.0118538
-0.0315489
-0.162584
0.0120936
0.0310418
0.195469
-0.0152604
0.0118125
-0.0895895
0.00935107
-0.00193456
0.056119
0.0013265
-0.0205271
-0.0553468
-0.00624409
-0.0192663
-0.0906537
0.00752064
0.0165613
0.115402
0.00524301
0.00218304
0.321274
-0.0308691
0.0231745
-0.895642
-0.0119572
0.0643485
0.209178
0.0836928
-0.134942
0.268001
0.0426387
-0.0499898
0.723897
0.0378813
0.0343851
0.339557
-0.0341658
-0.0389434
-0.265473
-0.0785394
0.00969431
-0.241216
0.000224451
-0.00835013
-0.0274555
0.00230604
0.00456361
0.0378739
0.0117307
0.000328892
0.0600725
0.0172278
-0.0133832
-0.351105
0.0203801
-0.00497254
0.106552
-0.094411
-0.079206
-0.822815
0.0729581
-0.00267321
0.18507
-0.150721
0.186446
0.865293
0.176675
-0.277124
0.514263
-0.219266
-0.129884
-1.05439
0.00378834
-2.95939e-05
0.0215572
-0.00168888
-0.0058818
-0.0229179
-0.0205324
0.0249584
0.070155
-0.358725
0.253078
0.859342
0.109609
-0.507838
1.18133
0.0309336
-0.0218323
0.179558
0.043786
-0.0326208
-0.299489
0.394503
-0.386034
-1.03275
0.308493
-0.20678
-0.993499
-0.215478
0.29341
-0.729934
0.0114708
-0.00491309
0.0525436
0.239023
-0.264449
0.52981
-0.154988
0.156494
1.36736
0.188219
-0.261904
0.737263
0.000948542
-0.00358439
1.92274e-13
0.00103633
-0.00117161
0.00259755
-0.00345377
0.00107929
-4.56383e-07
-0.00142977
-0.00416585
-0.000253024
-0.00528091
0.00178872
-1.4517
0.372418
-0.37017
-1.16089
0.0018133
-0.0293029
-0.0604478
-0.265414
0.194272
0.900468
0.231603
-0.24229
0.479379
0.00190614
-0.00352511
0.00737124
-0.00600441
0.000349662
0.000199219
0.511656
-0.123583
-1.38485
-0.321514
0.026247
1.08338
-0.1382
0.243788
-0.584568
0.0955263
-0.199385
-0.452761
0.192258
-0.0805011
0.446636
-0.287759
0.194674
0.654385
0.0676306
0.112077
0.737478
-0.0146962
0.0420548
0.161202
-0.0564034
0.0410563
0.178399
0.000134591
0.00920935
0.0229197
-0.00200141
-0.0037334
-0.0215572
-0.0656651
-0.0451413
-0.452982
-0.0062113
-0.00141715
-1.12887
-0.0613471
-0.208219
1.48049
0.0447085
-0.0289234
-0.197793
0.0613556
0.0482551
0.521573
-0.0086055
0.0135161
5.14898e-05
0.117236
-0.0923655
-0.268426
-0.0606622
-0.0629868
-0.507303
0.182393
-0.166641
0.719564
0.261096
-0.24629
-1.12005
0.0978209
-0.0953976
0.749079
-0.136477
0.150471
1.11503
0.184158
-0.220868
0.560809
-0.117134
0.150257
0.416088
0.20523
-0.139758
-0.545271
-0.187829
0.223752
-0.905687
-0.0094865
0.00709787
-0.759726
-0.079479
0.214566
1.40788
0.0186762
-0.103755
-0.420481
0.117559
-0.0142589
0.335856
-0.0571683
0.0399979
-0.260451
0.0813965
-0.0831122
-0.153064
0.102522
-0.135604
0.173156
0.0684037
-0.0845961
-0.151962
0.0283095
-0.0129367
-0.384425
0.0494422
-0.0287017
0.149931
-0.0159741
0.150351
-0.60243
-0.0490641
0.0158198
-0.120127
-0.0179562
0.0255424
0.168274
0.0495784
0.0345297
-0.710012
0.0137772
-0.00833837
3.42376e-12
0.0335607
-0.0221783
0.0976386
0.0874773
0.0436105
0.582466
-0.0865273
-0.00136839
0.999699
0.0934877
-0.100516
-0.956021
-0.129038
-0.0425964
0.823886
-0.00119293
-0.015916
0.329329
0.043197
0.147666
-0.918109
0.0681626
-0.118232
0.136058
0.0418897
-0.0559571
-0.123392
-0.0805055
0.107861
-0.151507
-0.00403305
-0.000887605
-0.0378911
0.00140448
0.00497919
0.0274507
0.00854926
0.0971781
-0.829686
0.0610764
-0.0186024
-0.176522
0.0369677
-0.0618249
0.260757
0.0554995
-0.0744032
-0.391509
-0.0201361
0.00049066
-0.0594787
0.00901571
0.000777646
0.343922
-0.028521
0.0012743
-0.0616713
-0.0282135
0.0356475
0.19179
-0.0253374
0.0475284
0.25313
-0.0729967
0.123845
-0.274424
0.0680362
-0.0602606
0.376827
-0.00152623
0.024054
0.23073
-0.0112218
0.00237129
-0.234704
-0.0418698
0.0507614
-0.252173
-0.0104185
0.00626893
-0.0536798
-0.158031
0.0640938
0.248822
0.0728942
-0.14599
0.273232
0.113428
-0.084081
-0.27256
0.0445854
-0.0560019
0.585736
-0.00182909
-0.00235178
-0.0736846
-0.0138497
0.00572796
0.0468354
0.0193864
-0.0523819
-0.181892
0.00679104
0.0323169
0.146038
0.0390157
-0.0048488
-0.282722
0.0409003
-0.0588061
0.115333
0.0642466
-0.0689979
-0.205042
0.000923414
0.00423067
0.0728074
-0.0017315
-0.00214409
0.0624275
-0.0135644
-0.0182288
-0.138418
0.0543061
0.0487713
-0.784351
0.000273027
0.011901
0.0606394
0.0229654
-0.0142719
-0.354123
0.000410206
0.00884691
0.0670031
0.0223917
-0.0398782
-0.106569
-0.283973
0.0304329
-1.14482
0.0139915
-0.0213064
0.222536
-0.0422981
0.0467429
0.947387
0.018831
-0.0116658
-0.147752
-0.00421676
-0.00201683
0.0777806
-0.0771522
0.0717211
0.119251
0.0696171
-0.249996
-0.90046
0.0918227
-0.0317123
0.221744
0.0427189
-0.0895376
-0.201237
-0.125656
0.196656
-0.438646
0.0152915
-0.0401443
-0.0894165
0.0903797
-0.111215
-0.240631
-0.183216
0.190861
0.322132
-0.174323
0.145048
0.436769
0.133633
-0.0535334
-0.359987
-0.142987
0.0994963
-0.319047
-0.199718
0.22768
0.735414
0.0829653
-0.142487
0.507854
0.180096
-0.134091
0.330228
0.0745865
-0.0442837
-0.151799
0.000989855
-0.00282028
9.52002e-13
0.00267294
-0.00182593
0.00782645
-0.00181841
-0.00362494
-4.72156e-06
0.000983632
-0.028042
-0.146367
0.00321984
-0.00203555
-0.00262209
0.000899878
-0.00433094
-1.25011e-12
-0.00357889
-0.00205991
0.000653197
-0.00416373
0.00106691
5.56544e-07
-0.00233467
0.00202144
-0.00637783
-0.0784884
0.155644
0.344921
0.0399442
-0.00132169
0.114576
0.0876234
0.0946566
-0.548668
-0.00293688
0.000873258
-8.81419e-13
-0.0435793
0.0204849
0.0991935
-0.0225344
0.0263761
-0.106087
0.285054
-0.204747
-0.607606
0.217283
-0.146952
0.785428
0.272418
-0.0788275
-1.24115
0.0279276
-0.115328
0.56473
-0.110229
0.0442699
-0.232901
-0.0590306
0.102701
0.237708
-0.344868
0.107164
0.759699
-0.149426
0.0783506
-0.278953
-0.0838958
0.13825
0.219077
-0.248003
0.255252
-0.559628
-0.365858
0.34143
0.704221
0.352307
-0.366879
0.974753
0.252665
-0.189996
0.991441
-0.00673584
0.262953
0.992632
0.0054418
-0.155077
-0.576965
0.185678
-0.0269366
0.689205
0.370543
-0.211899
-1.23261
0.226087
-0.0541478
0.800931
0.141157
-0.268037
-0.464213
0.245835
-0.298435
-0.657419
-0.11866
0.0841873
-0.348707
0.181931
-0.099123
0.49847
-0.178196
0.0885298
-0.351199
-0.10761
0.17741
0.352349
-0.29764
0.167859
1.03357
0.188416
-0.0788176
-0.435905
-0.140483
0.167219
0.626063
-0.266488
0.141829
1.41375
0.265416
-0.414817
1.28241
0.30973
-0.307574
-1.18235
-0.0668868
0.0592931
-0.720427
-0.0938714
0.0904109
1.12118
0.0479116
-0.0168258
0.148092
0.0339862
-0.0585784
0.189374
-0.072049
0.0654089
0.790631
0.0871282
0.213697
-1.51135
-0.112106
0.0946502
-0.525908
0.0296636
-0.0956836
-0.258947
0.110276
-0.0307564
0.329325
-0.152844
0.209244
0.516851
-0.16318
0.297535
-0.719115
0.186207
-0.440701
1.01243
-0.137224
0.220588
1.07237
0.0628963
-0.129059
0.585164
-0.0973186
0.0992823
-1.13917
0.0832147
0.107588
-0.583564
0.190604
0.0773803
1.0286
-0.0746706
-0.182084
-1.17393
-0.123391
0.0587742
1.43415
-0.258612
-0.223735
1.59285
-0.0285869
-0.0287586
0.859628
0.0405395
-0.048428
-1.38874
-0.371077
0.358793
-1.14729
-0.0526339
-0.000655154
-1.03569
0.107145
-0.115733
1.21022
0.309189
-0.0884107
0.896028
0.118124
-0.32709
-1.05067
-0.26396
0.235002
0.531598
0.0966207
-0.250079
-0.680503
0.234917
-0.0845028
0.655488
0.294871
-0.381332
0.758649
0.160261
-0.101652
-0.722694
0.205198
-0.224632
-0.498132
0.264321
-0.223352
-0.509435
0.143927
-0.189855
-0.355201
-0.0803853
-0.149781
0.746979
-0.188076
0.179375
0.356521
0.140183
-0.139673
0.399256
0.138847
-0.131476
-0.301845
-0.100968
0.11824
0.206987
0.0736056
-0.1569
0.430681
0.16865
0.0676856
-0.755087
-0.0286063
0.352988
-1.21338
0.312646
-0.333595
0.811793
0.160432
-0.0574777
-0.585105
-0.0631619
0.0925028
0.319306
0.0851915
-0.154527
0.638153
0.3141
-0.326846
-0.709817
-0.253764
0.163998
0.943839
0.073859
-0.0796051
0.211018
0.0548811
-0.0682753
-0.18136
0.120909
-0.090444
-0.37569
-0.130259
0.0815119
-0.348111
-0.147987
0.178134
0.274124
0.261933
-0.113253
-0.544532
0.0925133
-0.216111
0.534819
0.260867
-0.345078
0.801243
0.241588
-0.118461
-0.486262
1.92394
0.284795
-1.12613
0.0541223
0.841802
0.00223513
-0.938757
0.599997
-0.676968
0.204075
0.448167
1.83229
-0.702203
-0.787102
1.10706
0.858421
0.00788778
-0.489052
-0.321525
-0.364959
-1.32899e-16
0.0192678
-0.0208456
-0.0192678
0.0176899
-1.94411e-15
-5.17644e-15
-0.020504
-2.83011e-14
0.0180316
-2.4569
-0.0973781
1.56601
0.041349
0.541798
-0.334152
-0.213918
0.390708
-0.110193
0.0103435
0.170049
0.246658
0.334574
-0.829548
-1.01284
-0.651143
0.778501
-2.28459
1.35942
-0.0514732
0.223745
-0.389762
0.124786
0.0705657
-0.378934
0.720015
-0.0231891
-0.294453
-0.128642
0.491638
0.623967
-0.333078
-0.279607
0.0269434
-1.17013
2.49166
0.229835
0.303578
-0.320066
0.156657
0.0815045
0.288443
1.50493
-1.11375
1.46312
-0.458475
-0.796162
0.281613
0.455885
0.944016
0.724419
0.00158125
0.445945
-0.197413
0.548118
-0.303671
-0.246501
0.1599
-0.367297
0.386807
-0.117432
0.390389
-0.210122
0.0335791
-0.436205
0.183256
0.253553
-0.536146
0.342901
0.116821
-0.228798
-0.27979
-0.198688
-1.20268
2.24892
-1.03573
1.79657
-0.413328
-0.382977
-1.10127
-0.0268068
0.268029
0.30363
0.220178
0.356076
-1.78009
0.45619
1.31735
0.891968
-1.5123
-0.0760588
0.993818
0.0422925
1.23039
-0.579932
-0.716722
-0.810182
0.375216
0.740182
-0.085264
-0.328063
0.269484
0.20919
0.26691
0.0151075
-0.105351
0.102498
-0.133492
-0.124906
-0.00587365
0.843161
-1.55455
0.770641
-0.000754557
0.802749
-0.335915
-0.479786
1.11318
-0.633747
0.0086888
-0.231916
0.161259