/*--------------------------------*- C++ -*----------------------------------*\
  =========                 |
  \\      /  F ield         | OpenFOAM: The Open Source CFD Toolbox
   \\    /   O peration     | Website:  https://openfoam.org
    \\  /    A nd           | Version:  6
     \\/     M anipulation  |
\*---------------------------------------------------------------------------*/
FoamFile
{
    version     2.0;
    format      ascii;
    class       surfaceScalarField;
    location    "1.19";
    object      meshPhi;
}
// * * * * * * * * * * * * * * * * * * * * * * * * * * * * * * * * * * * * * //

dimensions      [0 3 -1 0 0 0 0];

internalField   nonuniform List<scalar> 
44700
(
0.000461672
0.00040693
0.000932694
0.00122023
0.00141209
0.00203128
0.00189892
0.00283896
0.00239218
0.00364215
0.0028907
0.00443864
0.00339335
0.00522786
0.00389897
0.00600873
0.00440622
0.00677853
0.00491382
0.00753728
0.00542048
0.0082839
0.00592472
0.00901525
0.0064252
0.0097319
0.0069205
0.0104328
0.00740911
0.0111145
0.00788961
0.011778
0.00836059
0.0124224
0.00882052
0.0130438
0.00926798
0.0136438
0.0097016
0.0142216
0.0101199
0.014773
0.0105216
0.0153002
0.0109053
0.0158023
0.0112698
0.0162749
0.0116138
0.0167208
0.0119361
0.0171392
0.0122357
0.0175255
0.0125116
0.0178828
0.0127627
0.0182106
0.0129881
0.0185041
0.0131872
0.018767
0.0133592
0.0189987
0.0135034
0.0191945
0.0136194
0.0193584
0.0137068
0.0194899
0.0137653
0.0195845
0.0137945
0.0196463
0.0137945
0.0196752
0.0137653
0.0196666
0.0137068
0.0196249
0.0136194
0.0195502
0.0135034
0.0194381
0.0133592
0.0192931
0.0131872
0.0191155
0.0129881
0.0189011
0.0127627
0.0186547
0.0125116
0.0183765
0.0122357
0.0180629
0.0119361
0.0177185
0.0116138
0.0173439
0.0112698
0.0169356
0.0109053
0.0164984
0.0105216
0.0160328
0.0101199
0.0155362
0.0097016
0.0150128
0.00926798
0.0144636
0.00882052
0.0138862
0.00836059
0.0132848
0.00788961
0.0126605
0.00740911
0.0120114
0.0069205
0.0113417
0.0064252
0.0106522
0.00592472
0.00994182
0.00542048
0.00921429
0.00491382
0.00847069
0.00440622
0.00771046
0.00389897
0.00693691
0.00339336
0.00615109
0.0028907
0.00535356
0.00239217
0.0045465
0.00189893
0.00373122
0.00141209
0.00290909
0.000932683
0.00208171
0.000461683
0.00125055
-4.16611e-14
0.000417099
-0.000451532
-0.000417099
-0.000892152
-0.00125055
-0.00132116
-0.00208171
-0.00173794
-0.00290909
-0.00214194
-0.00373122
-0.00253269
-0.0045465
-0.00290979
-0.00535356
-0.00327292
-0.00615109
-0.00362178
-0.00693691
-0.0039562
-0.00771046
-0.00427608
-0.00847069
-0.00458128
-0.00921429
-0.00487184
-0.00994182
-0.0051478
-0.0106522
-0.00540922
-0.0113417
-0.00565626
-0.0120114
-0.00588912
-0.0126605
-0.00610798
-0.0132848
-0.00631311
-0.0138862
-0.0065048
-0.0144636
-0.00668331
-0.0150128
-0.006849
-0.0155362
-0.00700218
-0.0160328
-0.00714319
-0.0164984
-0.00727237
-0.0169356
-0.00739006
-0.0173439
-0.00749659
-0.0177185
-0.00759228
-0.0180629
-0.00767744
-0.0183765
-0.00775235
-0.0186547
-0.00781729
-0.0189011
-0.00787248
-0.0191155
-0.00791814
-0.0192931
-0.00795444
-0.0194381
-0.00798154
-0.0195502
-0.00799955
-0.0196249
-0.00800853
-0.0196666
-0.00800853
-0.0196752
-0.00799955
-0.0196463
-0.00798154
-0.0195845
-0.00795444
-0.0194899
-0.00791814
-0.0193584
-0.00787248
-0.0191945
-0.00781729
-0.0189987
-0.00775235
-0.018767
-0.00767744
-0.0185041
-0.00759228
-0.0182106
-0.00749659
-0.0178828
-0.00739006
-0.0175255
-0.00727237
-0.0171392
-0.00714319
-0.0167208
-0.00700218
-0.0162749
-0.006849
-0.0158023
-0.00668331
-0.0153002
-0.0065048
-0.014773
-0.00631311
-0.0142216
-0.00610798
-0.0136438
-0.00588912
-0.0130438
-0.00565626
-0.0124224
-0.00540922
-0.011778
-0.0051478
-0.0111145
-0.00487184
-0.0104328
-0.00458128
-0.0097319
-0.00427608
-0.00901525
-0.0039562
-0.0082839
-0.00362178
-0.00753728
-0.00327292
-0.00677853
-0.00290979
-0.00600873
-0.00253269
-0.00522786
-0.00214195
-0.00443864
-0.00173793
-0.00364215
-0.00132116
-0.00283896
-0.000892162
-0.00203128
-0.000451522
-0.00122023
-0.00040693
0.00138418
0.000803023
0.00279634
0.00240801
0.00423355
0.00400873
0.00569299
0.00560306
0.00717167
0.0071889
0.00866607
0.00876199
0.0101728
0.0103213
0.0116884
0.0118648
0.0132089
0.0133872
0.0147303
0.0148886
0.0162489
0.016367
0.0177602
0.0178162
0.0192602
0.0192374
0.0207447
0.0206286
0.0222091
0.0219829
0.0236491
0.0233024
0.0250606
0.0245855
0.0264389
0.0258242
0.0277799
0.027022
0.0290794
0.028177
0.030333
0.029281
0.0315366
0.0303381
0.0326866
0.0313469
0.0337787
0.0322985
0.0348095
0.033198
0.0357755
0.0340442
0.0366733
0.0348276
0.0374998
0.0355545
0.0382522
0.0362237
0.0389279
0.0368256
0.0395244
0.0373672
0.0400397
0.0378476
0.0404719
0.038257
0.0408196
0.0386033
0.0410814
0.0388855
0.0412565
0.0390944
0.0413442
0.039238
0.0413442
0.0393159
0.0412565
0.039319
0.0410814
0.0392558
0.0408196
0.0391262
0.0404719
0.0389216
0.0400397
0.0386507
0.0395244
0.0383139
0.0389279
0.0379029
0.0382522
0.0374268
0.0374998
0.0368863
0.0366733
0.0362738
0.0357755
0.0355985
0.0348095
0.0348614
0.0337787
0.0340557
0.0326866
0.0331907
0.0315366
0.0322675
0.030333
0.0312804
0.0290794
0.0302385
0.0277799
0.0291431
0.0264389
0.0279896
0.0250606
0.0267868
0.0236491
0.0255363
0.0222091
0.0242347
0.0207447
0.02289
0.0192602
0.0215044
0.0177602
0.0200756
0.0162489
0.0186109
0.0147303
0.0171128
0.0132089
0.0155801
0.0116884
0.0140196
0.0101729
0.0124335
0.00866607
0.010823
0.00717164
0.00919253
0.00569303
0.00754489
0.00423355
0.00588296
0.00279631
0.00421003
0.00138421
0.00252921
-1.23785e-13
0.00084359
-0.00135383
-0.00084359
-0.002675
-0.00252921
-0.0039614
-0.00421003
-0.00521119
-0.00588296
-0.00642273
-0.00754489
-0.00759458
-0.00919253
-0.00872555
-0.010823
-0.00981466
-0.0124335
-0.0108611
-0.0140196
-0.0118642
-0.0155801
-0.0128237
-0.0171128
-0.0137393
-0.0186109
-0.014611
-0.0200756
-0.015439
-0.0215044
-0.0162234
-0.02289
-0.0169647
-0.0242347
-0.0176635
-0.0255363
-0.0183204
-0.0267868
-0.018936
-0.0279896
-0.0195114
-0.0291431
-0.0200473
-0.0302385
-0.0205446
-0.0312804
-0.0210045
-0.0322675
-0.0214279
-0.0331907
-0.0218158
-0.0340557
-0.0221692
-0.0348614
-0.0224891
-0.0355985
-0.0227765
-0.0362738
-0.0230322
-0.0368863
-0.0232572
-0.0374268
-0.0234523
-0.0379029
-0.0236181
-0.0383139
-0.0237552
-0.0386507
-0.0238643
-0.0389216
-0.0239457
-0.0391262
-0.0239998
-0.0392558
-0.0240268
-0.039319
-0.0240268
-0.0393159
-0.0239998
-0.039238
-0.0239457
-0.0390944
-0.0238643
-0.0388855
-0.0237552
-0.0386033
-0.0236181
-0.038257
-0.0234523
-0.0378476
-0.0232572
-0.0373672
-0.0230322
-0.0368256
-0.0227765
-0.0362237
-0.0224891
-0.0355545
-0.0221692
-0.0348276
-0.0218158
-0.0340442
-0.0214279
-0.033198
-0.0210045
-0.0322985
-0.0205446
-0.0313469
-0.0200473
-0.0303381
-0.0195114
-0.029281
-0.018936
-0.028177
-0.0183204
-0.027022
-0.0176635
-0.0258242
-0.0169647
-0.0245855
-0.0162234
-0.0233024
-0.015439
-0.0219829
-0.014611
-0.0206286
-0.0137393
-0.0192374
-0.0128237
-0.0178162
-0.0118642
-0.016367
-0.0108611
-0.0148886
-0.00981466
-0.0133872
-0.00872552
-0.0118648
-0.00759458
-0.0103213
-0.00642275
-0.00876199
-0.00521116
-0.0071889
-0.0039614
-0.00560306
-0.00267503
-0.00400873
-0.0013538
-0.00240801
-0.000803023
0.00230418
0.00118766
0.00465476
0.0035615
0.00704686
0.00592928
0.00947581
0.00828801
0.0119366
0.0106347
0.0144234
0.0129633
0.0169307
0.0152724
0.0194525
0.0175591
0.0219822
0.0198157
0.0245135
0.0220424
0.0270398
0.0242365
0.029554
0.0263889
0.0320492
0.0285014
0.0345185
0.0305711
0.0369543
0.0325879
0.0393496
0.034555
0.0416972
0.0364699
0.0439896
0.0383208
0.0462199
0.040113
0.048381
0.0418436
0.0504657
0.0435003
0.0524675
0.0450894
0.0543797
0.0466085
0.0561959
0.0480442
0.05791
0.0494044
0.0595163
0.0506869
0.0610092
0.0518776
0.0623835
0.0529857
0.0636346
0.0540091
0.0647581
0.0549335
0.0657499
0.0557692
0.0666067
0.0565145
0.0673254
0.0571549
0.0679035
0.0577015
0.0683388
0.0581532
0.0686299
0.0584956
0.0687757
0.0587407
0.0687757
0.0588876
0.0686299
0.0589224
0.0683388
0.0588577
0.0679035
0.0586933
0.0673254
0.0584156
0.0666067
0.058038
0.0657499
0.0575606
0.0647581
0.0569708
0.0636346
0.0562823
0.0623835
0.0554956
0.0610092
0.0545993
0.0595163
0.0536072
0.05791
0.0525203
0.0561959
0.0513287
0.0543797
0.0500459
0.0524675
0.0486737
0.0504657
0.0472033
0.048381
0.0456483
0.0462199
0.0440108
0.0439896
0.0422838
0.0416972
0.0404803
0.0393496
0.0386029
0.0369543
0.0366464
0.0345185
0.034623
0.0320492
0.032536
0.029554
0.0303818
0.0270398
0.0281719
0.0245135
0.0259097
0.0219822
0.0235938
0.0194525
0.0212345
0.0169307
0.0188351
0.0144234
0.0163976
0.0119366
0.0139291
0.00947587
0.0114336
0.00704686
0.00891583
0.00465471
0.00638084
0.00230423
0.00383349
-2.03446e-13
0.00127865
-0.00225384
-0.00127865
-0.00445347
-0.00383349
-0.00659541
-0.00638084
-0.00867656
-0.00891583
-0.0106942
-0.0114336
-0.012646
-0.0139291
-0.0145298
-0.0163976
-0.0163441
-0.0188351
-0.0180874
-0.0212345
-0.0197589
-0.0235938
-0.0213579
-0.0259097
-0.0228839
-0.0281719
-0.0243368
-0.0303818
-0.0257171
-0.032536
-0.0270249
-0.034623
-0.028261
-0.0366464
-0.0294264
-0.0386029
-0.0305219
-0.0404803
-0.031549
-0.0422838
-0.0325089
-0.0440108
-0.0334031
-0.0456483
-0.0342331
-0.0472033
-0.0350008
-0.0486737
-0.0357075
-0.0500459
-0.0363551
-0.0513287
-0.0369452
-0.0525203
-0.0374794
-0.0536072
-0.0379594
-0.0545993
-0.0383866
-0.0554956
-0.0387625
-0.0562823
-0.0390884
-0.0569708
-0.0393654
-0.0575606
-0.0395946
-0.058038
-0.0397768
-0.0584156
-0.0399129
-0.0586933
-0.0400033
-0.0588577
-0.0400484
-0.0589224
-0.0400484
-0.0588876
-0.0400033
-0.0587407
-0.0399129
-0.0584956
-0.0397768
-0.0581532
-0.0395946
-0.0577015
-0.0393654
-0.0571549
-0.0390884
-0.0565145
-0.0387625
-0.0557692
-0.0383866
-0.0549335
-0.0379594
-0.0540091
-0.0374794
-0.0529857
-0.0369452
-0.0518776
-0.0363551
-0.0506869
-0.0357075
-0.0494044
-0.0350008
-0.0480442
-0.0342331
-0.0466085
-0.0334031
-0.0450894
-0.0325089
-0.0435003
-0.031549
-0.0418436
-0.0305219
-0.040113
-0.0294264
-0.0383208
-0.028261
-0.0364699
-0.0270249
-0.034555
-0.0257171
-0.0325879
-0.0243368
-0.0305711
-0.0228839
-0.0285014
-0.0213579
-0.0263889
-0.0197589
-0.0242365
-0.0180874
-0.0220424
-0.0163441
-0.0198157
-0.0145298
-0.0175591
-0.012646
-0.0152724
-0.0106943
-0.0129633
-0.00867651
-0.0106347
-0.00659541
-0.00828801
-0.00445352
-0.00592928
-0.00225379
-0.0035615
-0.00118766
0.00322001
0.00156031
0.00650448
0.00467908
0.00984663
0.00779021
0.0132399
0.01089
0.0166774
0.0139748
0.0201508
0.0170367
0.0236525
0.0200741
0.0271742
0.0230834
0.0307067
0.0260547
0.0342411
0.0289885
0.0377684
0.0318812
0.0412784
0.0347209
0.0447618
0.0375104
0.0482087
0.0402459
0.0516086
0.0429139
0.0549518
0.045519
0.0582284
0.0480577
0.0614277
0.0505149
0.0645401
0.0528969
0.067556
0.0552005
0.0704651
0.0574091
0.0732583
0.0595311
0.0759266
0.0615631
0.0784606
0.0634875
0.0808522
0.0653144
0.0830934
0.0670408
0.0851762
0.0686481
0.0870935
0.0701479
0.088839
0.0715377
0.0904063
0.0727981
0.09179
0.0739424
0.0929853
0.0749682
0.0939879
0.0758562
0.0947943
0.0766208
0.0954016
0.0772601
0.0958077
0.0777548
0.0960111
0.0781206
0.0960111
0.078356
0.0958077
0.0784423
0.0954016
0.0783959
0.0947943
0.0782162
0.0939879
0.0778851
0.0929853
0.0774198
0.09179
0.0768204
0.0904063
0.0760698
0.088839
0.075186
0.0870935
0.0741695
0.0851762
0.0730049
0.0830934
0.0717102
0.0808522
0.070287
0.0784606
0.0687213
0.0759266
0.0670315
0.0732583
0.0652196
0.0704651
0.0632739
0.067556
0.0612123
0.0645401
0.0590376
0.0614277
0.0567405
0.0582284
0.0543382
0.0549518
0.0518343
0.0516086
0.0492218
0.0482087
0.0465172
0.0447618
0.0437246
0.0412784
0.0408397
0.0377684
0.0378778
0.0342411
0.0348436
0.0307067
0.0317352
0.0271742
0.0285667
0.0236526
0.0253427
0.0201508
0.0220661
0.0166773
0.0187464
0.01324
0.0153894
0.00984663
0.0120015
0.00650441
0.00858966
0.00322008
0.00516071
-2.805e-13
0.00172137
-0.00315002
-0.00172137
-0.00622466
-0.00516071
-0.00921903
-0.00858966
-0.0121288
-0.0120015
-0.0149502
-0.0153894
-0.0176798
-0.0187464
-0.0203149
-0.0220661
-0.0228531
-0.0253427
-0.0252924
-0.0285667
-0.0276314
-0.0317352
-0.0298696
-0.0348436
-0.0320058
-0.0378778
-0.0340402
-0.0408397
-0.0359732
-0.0437246
-0.0378051
-0.0465172
-0.0395369
-0.0492218
-0.0411699
-0.0518343
-0.0427054
-0.0543382
-0.0441452
-0.0567405
-0.0454911
-0.0590376
-0.0467452
-0.0612123
-0.0479095
-0.0632739
-0.0489865
-0.0652196
-0.0499783
-0.0670315
-0.0508873
-0.0687213
-0.0517157
-0.070287
-0.0524659
-0.0717102
-0.05314
-0.0730049
-0.0537401
-0.0741695
-0.0542682
-0.075186
-0.054726
-0.0760698
-0.0551153
-0.0768204
-0.0554374
-0.0774198
-0.0556936
-0.0778851
-0.0558848
-0.0782162
-0.0560119
-0.0783959
-0.0560753
-0.0784423
-0.0560753
-0.078356
-0.0560119
-0.0781206
-0.0558848
-0.0777548
-0.0556936
-0.0772601
-0.0554374
-0.0766208
-0.0551153
-0.0758562
-0.054726
-0.0749682
-0.0542682
-0.0739424
-0.0537401
-0.0727981
-0.05314
-0.0715377
-0.0524659
-0.0701479
-0.0517157
-0.0686481
-0.0508873
-0.0670408
-0.0499783
-0.0653144
-0.0489865
-0.0634875
-0.0479095
-0.0615631
-0.0467452
-0.0595311
-0.0454911
-0.0574091
-0.0441452
-0.0552005
-0.0427054
-0.0528969
-0.0411699
-0.0505149
-0.0395369
-0.0480577
-0.0378051
-0.045519
-0.0359732
-0.0429139
-0.0340402
-0.0402459
-0.0320058
-0.0375104
-0.0298696
-0.0347209
-0.0276314
-0.0318812
-0.0252924
-0.0289885
-0.0228531
-0.0260547
-0.0203148
-0.0230834
-0.0176798
-0.0200741
-0.0149503
-0.0170367
-0.0121288
-0.0139748
-0.00921903
-0.01089
-0.00622473
-0.00779021
-0.00314995
-0.00467908
-0.00156031
0.00413
0.00192049
0.00834206
0.00575934
0.0126275
0.00958919
0.0169779
0.0134058
0.0213843
0.0172048
0.0258363
0.0209769
0.030324
0.0247203
0.0348369
0.0284307
0.039363
0.0320963
0.0438912
0.0357178
0.0484099
0.0392909
0.052906
0.0428014
0.0573675
0.0462524
0.0617821
0.0496398
0.0661361
0.0529469
0.0704171
0.0561794
0.0746125
0.0593331
0.0787088
0.0623892
0.0826935
0.0653559
0.0865544
0.0682288
0.0902785
0.0709875
0.0938539
0.0736422
0.0972693
0.0761888
0.100513
0.0786053
0.103574
0.080904
0.106442
0.083081
0.109108
0.0851131
0.111561
0.0870145
0.113795
0.0887817
0.115801
0.0903906
0.117572
0.0918573
0.119101
0.0931785
0.120384
0.0943299
0.121416
0.0953292
0.122193
0.0961736
0.122713
0.0968388
0.122973
0.097344
0.122973
0.097687
0.122713
0.097844
0.122193
0.0978353
0.121416
0.0976597
0.120384
0.0972943
0.119101
0.0967603
0.117572
0.0960573
0.115801
0.0951639
0.113795
0.0941021
0.111561
0.0928724
0.109108
0.091455
0.106442
0.0898725
0.103574
0.0881264
0.100513
0.0861993
0.0972693
0.0841136
0.0938539
0.081872
0.0902785
0.0794595
0.0865544
0.0768986
0.0826935
0.0741927
0.0787088
0.0713298
0.0746125
0.0683317
0.0704171
0.0652029
0.0661361
0.0619345
0.0617821
0.0585474
0.0573675
0.0550468
0.052906
0.0514271
0.0484099
0.0477079
0.0438912
0.0438953
0.039363
0.0399869
0.0348369
0.0360006
0.0303241
0.0319425
0.0258363
0.0278163
0.0213842
0.0236342
0.016978
0.0194037
0.0126275
0.0151332
0.00834197
0.0108317
0.00413009
0.006508
-3.54846e-13
0.0021708
-0.00404086
-0.0021708
-0.00798566
-0.006508
-0.0118281
-0.0108317
-0.0155627
-0.0151332
-0.0191845
-0.0194037
-0.0226892
-0.0236342
-0.0260731
-0.0278163
-0.0293333
-0.0319425
-0.0324671
-0.0360006
-0.0354729
-0.0399869
-0.0383496
-0.0438953
-0.041096
-0.0477079
-0.0437121
-0.0514271
-0.0461984
-0.0550468
-0.0485553
-0.0585474
-0.0507839
-0.0619345
-0.0528861
-0.0652029
-0.0548632
-0.0683317
-0.0567175
-0.0713298
-0.0584516
-0.0741927
-0.0600677
-0.0768986
-0.0615686
-0.0794595
-0.0629572
-0.081872
-0.0642364
-0.0841136
-0.065409
-0.0861993
-0.0664781
-0.0881264
-0.0674464
-0.0898725
-0.0683166
-0.091455
-0.0690916
-0.0928724
-0.0697737
-0.0941021
-0.0703651
-0.0951639
-0.0708681
-0.0960573
-0.0712844
-0.0967603
-0.0716154
-0.0972943
-0.0718626
-0.0976597
-0.0720269
-0.0978353
-0.0721089
-0.097844
-0.0721089
-0.097687
-0.0720269
-0.097344
-0.0718626
-0.0968388
-0.0716154
-0.0961736
-0.0712844
-0.0953292
-0.0708681
-0.0943299
-0.0703651
-0.0931785
-0.0697737
-0.0918573
-0.0690916
-0.0903906
-0.0683166
-0.0887817
-0.0674464
-0.0870145
-0.0664781
-0.0851131
-0.065409
-0.083081
-0.0642364
-0.080904
-0.0629572
-0.0786053
-0.0615686
-0.0761888
-0.0600677
-0.0736422
-0.0584516
-0.0709875
-0.0567175
-0.0682288
-0.0548632
-0.0653559
-0.0528861
-0.0623892
-0.0507839
-0.0593331
-0.0485553
-0.0561794
-0.0461984
-0.0529469
-0.0437121
-0.0496398
-0.041096
-0.0462524
-0.0383496
-0.0428014
-0.0354729
-0.0392909
-0.0324671
-0.0357178
-0.0293333
-0.0320963
-0.026073
-0.0284307
-0.0226892
-0.0247203
-0.0191846
-0.0209769
-0.0155626
-0.0172048
-0.0118281
-0.0134058
-0.00798575
-0.00958919
-0.00404077
-0.00575934
-0.00192049
0.00503251
0.00226781
0.0101641
0.00680108
0.0153841
0.0113242
0.0206823
0.0158325
0.0260479
0.0203212
0.0314683
0.0247795
0.0369312
0.0292056
0.042424
0.0335949
0.0479322
0.0379334
0.0534423
0.0422224
0.05894
0.046457
0.0644098
0.0506205
0.0698368
0.054717
0.0752061
0.0587416
0.0805013
0.0626746
0.0857073
0.0665229
0.0908087
0.0702817
0.0957891
0.0739287
0.100634
0.0774735
0.105327
0.0809111
0.109854
0.084217
0.1142
0.0874034
0.118351
0.0904653
0.122293
0.0933762
0.126013
0.0961508
0.129499
0.0987841
0.132738
0.101248
0.13572
0.10356
0.138434
0.105715
0.140871
0.107684
0.143023
0.109486
0.144881
0.111116
0.14644
0.112546
0.147694
0.113796
0.148638
0.114862
0.149269
0.115715
0.149585
0.116378
0.149585
0.116847
0.149269
0.117093
0.148638
0.117141
0.147694
0.116988
0.14644
0.116607
0.144881
0.116023
0.143023
0.115235
0.140871
0.114217
0.138434
0.112994
0.13572
0.111567
0.132738
0.109913
0.129499
0.108058
0.126013
0.106003
0.122293
0.103727
0.118351
0.101257
0.1142
0.0985964
0.109854
0.0957265
0.105327
0.0926743
0.100634
0.0894438
0.0957891
0.0860206
0.0908087
0.0824308
0.0857073
0.0786799
0.0805013
0.074757
0.0752061
0.0706873
0.0698368
0.0664774
0.0644098
0.0621206
0.05894
0.0576405
0.0534423
0.0530446
0.0479322
0.0483304
0.042424
0.0435195
0.0369313
0.0386194
0.0314683
0.033635
0.0260478
0.0285812
0.0206824
0.0234675
0.0153841
0.0183039
0.010164
0.0131019
0.00503262
0.00787227
-4.26354e-13
0.00262591
-0.00492485
-0.00262591
-0.00973359
-0.00787227
-0.0144186
-0.0131019
-0.018973
-0.0183039
-0.023391
-0.0234675
-0.027667
-0.0285812
-0.0317967
-0.033635
-0.0357765
-0.0386194
-0.0396031
-0.0435195
-0.0432743
-0.0483304
-0.0467888
-0.0530446
-0.0501451
-0.0576405
-0.0533432
-0.0621206
-0.0563836
-0.0664774
-0.0592665
-0.0706873
-0.0619935
-0.074757
-0.0645666
-0.0786799
-0.0669874
-0.0824308
-0.0692587
-0.0860206
-0.0713834
-0.0894438
-0.0733642
-0.0926743
-0.0752045
-0.0957265
-0.0769077
-0.0985964
-0.0784772
-0.101257
-0.0799164
-0.103727
-0.0812289
-0.106003
-0.0824181
-0.108058
-0.0834872
-0.109913
-0.0844395
-0.111567
-0.0852778
-0.112994
-0.086005
-0.114217
-0.0866235
-0.115235
-0.0871354
-0.116023
-0.0875426
-0.116607
-0.0878468
-0.116988
-0.0880488
-0.117141
-0.0881497
-0.117093
-0.0881497
-0.116847
-0.0880488
-0.116378
-0.0878468
-0.115715
-0.0875426
-0.114862
-0.0871354
-0.113796
-0.0866235
-0.112546
-0.086005
-0.111116
-0.0852778
-0.109486
-0.0844395
-0.107684
-0.0834872
-0.105715
-0.0824181
-0.10356
-0.0812289
-0.101248
-0.0799164
-0.0987841
-0.0784772
-0.0961508
-0.0769077
-0.0933762
-0.0752045
-0.0904653
-0.0733642
-0.0874034
-0.0713834
-0.084217
-0.0692587
-0.0809111
-0.0669874
-0.0774735
-0.0645666
-0.0739287
-0.0619935
-0.0702817
-0.0592665
-0.0665229
-0.0563836
-0.0626746
-0.0533432
-0.0587416
-0.0501451
-0.054717
-0.0467888
-0.0506205
-0.0432743
-0.046457
-0.0396031
-0.0422224
-0.0357765
-0.0379334
-0.0317967
-0.0335949
-0.027667
-0.0292056
-0.023391
-0.0247795
-0.0189729
-0.0203212
-0.0144186
-0.0158325
-0.0097337
-0.0113242
-0.00492474
-0.00680108
-0.00226781
0.00592591
0.00260195
0.0119671
0.00780333
0.0181111
0.0129937
0.024346
0.0181679
0.0306589
0.023321
0.037035
0.0284408
0.04346
0.0335259
0.0499192
0.0385709
0.0563954
0.0435603
0.0628728
0.0484959
0.0693348
0.0533722
0.075763
0.0581703
0.0821401
0.0628952
0.0884486
0.0675412
0.0946694
0.0720862
0.100785
0.076538
0.106776
0.080891
0.112626
0.0851198
0.118315
0.0892354
0.123826
0.093232
0.129141
0.0970813
0.134243
0.100797
0.139116
0.104374
0.143744
0.107781
0.14811
0.111034
0.152202
0.114128
0.156004
0.117031
0.159503
0.11976
0.162688
0.122312
0.165548
0.124651
0.168073
0.1268
0.170254
0.128753
0.172083
0.130475
0.173554
0.131991
0.174662
0.133294
0.175403
0.134352
0.175774
0.135189
0.175774
0.135801
0.175403
0.136155
0.174662
0.136278
0.173554
0.136166
0.172083
0.135788
0.170254
0.135172
0.168073
0.134316
0.165548
0.13319
0.162688
0.131824
0.159503
0.130217
0.156004
0.128342
0.152202
0.126229
0.14811
0.123879
0.143744
0.121267
0.139116
0.118426
0.134243
0.115357
0.129141
0.11204
0.123826
0.108505
0.118315
0.104758
0.112626
0.10078
0.106776
0.096604
0.100785
0.0922348
0.0946694
0.0876601
0.0884486
0.0829094
0.0821401
0.0779905
0.075763
0.0728956
0.0693348
0.0676526
0.0628728
0.0622704
0.0563954
0.0567462
0.0499192
0.0511057
0.0434602
0.0453579
0.037035
0.0395087
0.0306587
0.0335759
0.0243461
0.027571
0.0181111
0.021506
0.011967
0.0153948
0.00592604
0.0092503
-4.94925e-13
0.00308563
-0.00580048
-0.00308563
-0.0114656
-0.0092503
-0.0169863
-0.0153948
-0.0223546
-0.021506
-0.0275633
-0.027571
-0.0326063
-0.0335759
-0.0374781
-0.0395087
-0.0421745
-0.0453579
-0.0466915
-0.0511057
-0.0510265
-0.0567462
-0.0551778
-0.0622704
-0.0591438
-0.0676526
-0.0629241
-0.0728956
-0.0665193
-0.0779905
-0.0699296
-0.0829094
-0.0731567
-0.0876601
-0.0762029
-0.0922348
-0.0790699
-0.096604
-0.0817609
-0.10078
-0.0842793
-0.104758
-0.086628
-0.108505
-0.088811
-0.11204
-0.0908323
-0.115357
-0.0926955
-0.118426
-0.0944048
-0.121267
-0.0959642
-0.123879
-0.0973775
-0.126229
-0.0986486
-0.128342
-0.0997812
-0.130217
-0.100779
-0.131824
-0.101644
-0.13319
-0.10238
-0.134316
-0.10299
-0.135172
-0.103474
-0.135788
-0.103837
-0.136166
-0.104077
-0.136278
-0.104197
-0.136155
-0.104197
-0.135801
-0.104077
-0.135189
-0.103837
-0.134352
-0.103474
-0.133294
-0.10299
-0.131991
-0.10238
-0.130475
-0.101644
-0.128753
-0.100779
-0.1268
-0.0997812
-0.124651
-0.0986486
-0.122312
-0.0973775
-0.11976
-0.0959642
-0.117031
-0.0944048
-0.114128
-0.0926955
-0.111034
-0.0908323
-0.107781
-0.088811
-0.104374
-0.086628
-0.100797
-0.0842793
-0.0970813
-0.0817609
-0.093232
-0.0790699
-0.0892354
-0.0762029
-0.0851198
-0.0731567
-0.080891
-0.0699296
-0.076538
-0.0665193
-0.0720862
-0.0629241
-0.0675412
-0.0591438
-0.0628952
-0.0551778
-0.0581703
-0.0510265
-0.0533722
-0.0466915
-0.0484959
-0.0421745
-0.0435603
-0.037478
-0.0385709
-0.0326063
-0.0335259
-0.0275635
-0.0284408
-0.0223544
-0.023321
-0.0169863
-0.0181679
-0.0114657
-0.0129937
-0.00580035
-0.00780333
-0.00260195
0.00680858
0.00292264
0.0137478
0.00876531
0.0208034
0.0145962
0.0279617
0.0204101
0.0352079
0.0262018
0.0425251
0.031958
0.0498969
0.0376774
0.0573064
0.0433545
0.0647342
0.0489722
0.0721619
0.0545327
0.0795707
0.0600304
0.0869396
0.065444
0.0942488
0.0707794
0.101478
0.0760306
0.108606
0.0811726
0.115613
0.0862145
0.122477
0.0911501
0.129176
0.0959507
0.135692
0.100629
0.142003
0.105178
0.148089
0.109566
0.153931
0.113808
0.159511
0.117898
0.164808
0.1218
0.169807
0.125534
0.17449
0.129093
0.178841
0.132439
0.182846
0.135593
0.186492
0.138549
0.189765
0.141269
0.192654
0.143775
0.195149
0.146062
0.197242
0.148089
0.198926
0.149884
0.200193
0.15144
0.201041
0.152717
0.201466
0.153745
0.201466
0.154517
0.201041
0.154996
0.200193
0.155211
0.198926
0.155158
0.197242
0.1548
0.195149
0.15417
0.192654
0.153264
0.189765
0.152048
0.186492
0.150555
0.182846
0.148784
0.178841
0.146703
0.17449
0.144347
0.169807
0.141716
0.164808
0.138783
0.159511
0.135582
0.153931
0.132117
0.148089
0.128363
0.142003
0.124355
0.135692
0.120099
0.129176
0.115575
0.122477
0.110819
0.115613
0.105836
0.108606
0.100614
0.101478
0.0951848
0.0942488
0.0895586
0.0869396
0.0837263
0.0795707
0.07772
0.0721619
0.0715503
0.0647342
0.065214
0.0573064
0.0587408
0.0498971
0.0521414
0.0425251
0.0454229
0.0352078
0.038606
0.0279618
0.0317042
0.0208034
0.0247317
0.0137477
0.0177048
0.00680874
0.0106387
-5.60454e-13
0.00354881
-0.00666626
-0.00354881
-0.0131788
-0.0106387
-0.0195271
-0.0177048
-0.0257021
-0.0247317
-0.0316955
-0.0317042
-0.0375
-0.038606
-0.0431095
-0.0454229
-0.0485188
-0.0521414
-0.0537234
-0.0587408
-0.0587203
-0.065214
-0.0635073
-0.0715503
-0.0680824
-0.07772
-0.0724451
-0.0837263
-0.076596
-0.0895586
-0.0805351
-0.0951848
-0.0842643
-0.100614
-0.0877858
-0.105836
-0.0911019
-0.110819
-0.0942158
-0.115575
-0.0971313
-0.120099
-0.0998517
-0.124355
-0.102381
-0.128363
-0.104724
-0.132117
-0.106885
-0.135582
-0.108869
-0.138783
-0.110679
-0.141716
-0.11232
-0.144347
-0.113797
-0.146703
-0.115113
-0.148784
-0.116273
-0.150555
-0.117279
-0.152048
-0.118136
-0.153264
-0.118845
-0.15417
-0.119409
-0.1548
-0.119831
-0.155158
-0.120111
-0.155211
-0.120251
-0.154996
-0.120251
-0.154517
-0.120111
-0.153745
-0.119831
-0.152717
-0.119409
-0.15144
-0.118845
-0.149884
-0.118136
-0.148089
-0.117279
-0.146062
-0.116273
-0.143775
-0.115113
-0.141269
-0.113797
-0.138549
-0.11232
-0.135593
-0.110679
-0.132439
-0.108869
-0.129093
-0.106885
-0.125534
-0.104724
-0.1218
-0.102381
-0.117898
-0.0998517
-0.113808
-0.0971313
-0.109566
-0.0942158
-0.105178
-0.0911019
-0.100629
-0.0877858
-0.0959507
-0.0842643
-0.0911501
-0.0805351
-0.0862145
-0.076596
-0.0811726
-0.0724451
-0.0760306
-0.0680824
-0.0707794
-0.0635073
-0.065444
-0.0587203
-0.0600304
-0.0537234
-0.0545327
-0.0485188
-0.0489722
-0.0431094
-0.0433545
-0.0375
-0.0376774
-0.0316956
-0.031958
-0.025702
-0.0262018
-0.0195271
-0.0204101
-0.0131789
-0.0145962
-0.00666611
-0.00876531
-0.00292264
0.00767894
0.0032297
0.015503
0.00968645
0.0234559
0.0161309
0.0315224
0.0225579
0.0396859
0.0289619
0.0479274
0.0353288
0.0562284
0.0416577
0.06457
0.0479428
0.0729304
0.0541656
0.081289
0.0603289
0.0896247
0.0664267
0.097914
0.0724361
0.106135
0.0783636
0.114265
0.0842028
0.122279
0.0899262
0.130155
0.0955442
0.13787
0.10105
0.1454
0.106411
0.152722
0.111643
0.159813
0.116736
0.166651
0.121657
0.173214
0.126421
0.179481
0.131021
0.185431
0.135419
0.191045
0.139635
0.196304
0.14366
0.20119
0.147453
0.205687
0.151037
0.20978
0.154405
0.213455
0.157512
0.216698
0.160385
0.2195
0.163016
0.22185
0.165361
0.223739
0.167448
0.225162
0.169269
0.226114
0.170781
0.22659
0.172014
0.22659
0.172963
0.226114
0.173582
0.225162
0.173905
0.223739
0.173928
0.22185
0.173608
0.2195
0.17298
0.216698
0.172041
0.213455
0.170751
0.20978
0.169147
0.205687
0.167229
0.20119
0.164958
0.196304
0.162373
0.191045
0.159477
0.185431
0.156235
0.179481
0.152688
0.173214
0.148838
0.166651
0.144658
0.159813
0.140188
0.152722
0.135433
0.1454
0.130371
0.13787
0.125041
0.130155
0.119451
0.122279
0.113586
0.114265
0.107483
0.106135
0.101153
0.097914
0.094586
0.0896247
0.0878179
0.081289
0.0808611
0.0729304
0.0737124
0.06457
0.0664055
0.0562286
0.0589528
0.0479274
0.0513626
0.0396858
0.0436587
0.0315226
0.0358565
0.0234559
0.0279727
0.0155028
0.0200259
0.00767911
0.0120338
-6.22868e-13
0.00401428
-0.00752072
-0.00401428
-0.0148703
-0.0120338
-0.0220371
-0.0200259
-0.0290105
-0.0279727
-0.0357813
-0.0358565
-0.0423412
-0.0436587
-0.0486831
-0.0513626
-0.0548012
-0.0589528
-0.0606901
-0.0664055
-0.0663465
-0.0737124
-0.0717677
-0.0808611
-0.0769512
-0.0878179
-0.0818964
-0.094586
-0.0866037
-0.101153
-0.0910731
-0.107483
-0.0953064
-0.113586
-0.0993061
-0.119451
-0.103074
-0.125041
-0.106615
-0.130371
-0.109931
-0.135433
-0.113027
-0.140188
-0.115907
-0.144658
-0.118577
-0.148838
-0.12104
-0.152688
-0.123302
-0.156235
-0.125368
-0.159477
-0.127241
-0.162373
-0.128927
-0.164958
-0.130431
-0.167229
-0.131756
-0.169147
-0.132907
-0.170751
-0.133886
-0.172041
-0.134698
-0.17298
-0.135343
-0.173608
-0.135826
-0.173928
-0.136146
-0.173905
-0.136307
-0.173582
-0.136307
-0.172963
-0.136146
-0.172014
-0.135826
-0.170781
-0.135343
-0.169269
-0.134698
-0.167448
-0.133886
-0.165361
-0.132907
-0.163016
-0.131756
-0.160385
-0.130431
-0.157512
-0.128927
-0.154405
-0.127241
-0.151037
-0.125368
-0.147453
-0.123302
-0.14366
-0.12104
-0.139635
-0.118577
-0.135419
-0.115907
-0.131021
-0.113027
-0.126421
-0.109931
-0.121657
-0.106615
-0.116736
-0.103074
-0.111643
-0.0993061
-0.106411
-0.0953064
-0.10105
-0.0910731
-0.0955442
-0.0866037
-0.0899262
-0.0818964
-0.0842028
-0.0769512
-0.0783636
-0.0717677
-0.0724361
-0.0663465
-0.0664267
-0.0606901
-0.0603289
-0.0548012
-0.0541656
-0.0486829
-0.0479428
-0.0423412
-0.0416577
-0.0357815
-0.0353288
-0.0290104
-0.0289619
-0.0220371
-0.0225579
-0.0148705
-0.0161309
-0.00752056
-0.00968645
-0.0032297
0.0085354
0.003523
0.0172292
0.0105664
0.0260635
0.0175972
0.0350212
0.0246102
0.0440841
0.0316
0.0532309
0.0385518
0.0624414
0.0454648
0.0716946
0.0523334
0.0809665
0.0591377
0.0902342
0.0658812
0.0994746
0.0725577
0.108662
0.0791425
0.117771
0.085643
0.126778
0.0920525
0.135655
0.0983411
0.144378
0.10452
0.152921
0.110582
0.161258
0.116493
0.169363
0.122267
0.177212
0.127897
0.18478
0.133343
0.192042
0.138624
0.198976
0.143732
0.205559
0.148623
0.211769
0.153319
0.217587
0.157812
0.222991
0.162054
0.227965
0.166073
0.232492
0.169857
0.236555
0.173359
0.240142
0.176607
0.24324
0.179592
0.245838
0.182264
0.247928
0.184654
0.249501
0.186754
0.250553
0.188513
0.25108
0.189966
0.25108
0.191105
0.250553
0.191879
0.249501
0.192327
0.247928
0.192441
0.245838
0.192174
0.24324
0.191565
0.240142
0.190609
0.236555
0.189262
0.232492
0.187563
0.227965
0.185512
0.222991
0.183067
0.217587
0.180269
0.211769
0.177121
0.205559
0.173584
0.198976
0.169704
0.192042
0.165482
0.18478
0.160888
0.177212
0.155966
0.169363
0.150721
0.161258
0.14513
0.152921
0.139236
0.144378
0.133047
0.135655
0.126546
0.126778
0.119775
0.117771
0.112745
0.108662
0.105447
0.0994746
0.0979203
0.0902342
0.090179
0.0809665
0.0822195
0.0716946
0.0740799
0.0624417
0.0657743
0.0532309
0.0573123
0.0440839
0.0487206
0.0350214
0.040017
0.0260635
0.0312205
0.017229
0.0223521
0.0085356
0.0134321
-6.82073e-13
0.00448078
-0.00836241
-0.00448078
-0.0165375
-0.0134321
-0.0245121
-0.0223521
-0.0322746
-0.0312205
-0.0398146
-0.040017
-0.0471227
-0.0487206
-0.0541911
-0.0573123
-0.0610131
-0.0657743
-0.0675826