/*--------------------------------*- C++ -*----------------------------------*\
  =========                 |
  \\      /  F ield         | OpenFOAM: The Open Source CFD Toolbox
   \\    /   O peration     | Website:  https://openfoam.org
    \\  /    A nd           | Version:  6
     \\/     M anipulation  |
\*---------------------------------------------------------------------------*/
FoamFile
{
    version     2.0;
    format      ascii;
    class       volVectorField;
    location    "3.43";
    object      U;
}
// * * * * * * * * * * * * * * * * * * * * * * * * * * * * * * * * * * * * * //

dimensions      [0 1 -1 0 0 0 0];

internalField   nonuniform List<vector> 
10000
(
(0.8944 0.4472 0)
(0.8944 0.4472 0)
(0.8944 0.4472 0)
(0.8944 0.4472 0)
(0.8944 0.4472 0)
(0.8944 0.4472 0)
(0.8944 0.4472 0)
(0.8944 0.4472 0)
(0.8944 0.4472 0)
(0.8944 0.4472 0)
(0.8944 0.4472 0)
(0.8944 0.4472 0)
(0.8944 0.4472 0)
(0.8944 0.4472 0)
(0.8944 0.4472 0)
(0.8944 0.4472 0)
(0.8944 0.4472 0)
(0.8944 0.4472 0)
(0.8944 0.4472 0)
(0.8944 0.4472 0)
(0.8944 0.4472 0)
(0.8944 0.4472 0)
(0.8944 0.4472 0)
(0.8944 0.4472 0)
(0.8944 0.4472 0)
(0.8944 0.4472 0)
(0.8944 0.4472 0)
(0.8944 0.4472 0)
(0.8944 0.4472 0)
(0.8944 0.4472 0)
(0.8944 0.4472 0)
(0.8944 0.4472 0)
(0.8944 0.4472 0)
(0.8944 0.4472 0)
(0.8944 0.4472 0)
(0.8944 0.4472 0)
(0.8944 0.4472 0)
(0.8944 0.4472 0)
(0.8944 0.4472 0)
(0.8944 0.4472 0)
(0.8944 0.4472 0)
(0.8944 0.4472 0)
(0.8944 0.447201 0)
(0.8944 0.447201 0)
(0.8944 0.447201 0)
(0.894401 0.447201 0)
(0.894402 0.4472 0)
(0.894403 0.447199 0)
(0.894405 0.447198 0)
(0.894407 0.447195 0)
(0.894409 0.447191 0)
(0.894411 0.447186 0)
(0.894412 0.447181 0)
(0.894413 0.447174 0)
(0.894412 0.447169 0)
(0.894409 0.447163 0)
(0.894405 0.44716 0)
(0.894399 0.447159 0)
(0.894392 0.447161 0)
(0.894384 0.447167 0)
(0.894378 0.447178 0)
(0.894372 0.447191 0)
(0.894369 0.447207 0)
(0.894369 0.447224 0)
(0.894372 0.447242 0)
(0.894377 0.447256 0)
(0.894384 0.447266 0)
(0.894393 0.447275 0)
(0.894402 0.447276 0)
(0.894408 0.447273 0)
(0.894416 0.447268 0)
(0.89442 0.447256 0)
(0.89442 0.447245 0)
(0.89442 0.447235 0)
(0.894419 0.447222 0)
(0.894414 0.447211 0)
(0.89441 0.447204 0)
(0.894407 0.447198 0)
(0.894403 0.447193 0)
(0.8944 0.447192 0)
(0.894399 0.447191 0)
(0.894397 0.447191 0)
(0.894397 0.447192 0)
(0.894397 0.447193 0)
(0.894397 0.447195 0)
(0.894398 0.447196 0)
(0.894398 0.447197 0)
(0.894398 0.447198 0)
(0.894399 0.447199 0)
(0.894399 0.447199 0)
(0.8944 0.447199 0)
(0.8944 0.4472 0)
(0.8944 0.4472 0)
(0.8944 0.4472 0)
(0.8944 0.4472 0)
(0.8944 0.4472 0)
(0.8944 0.4472 0)
(0.8944 0.4472 0)
(0.8944 0.4472 0)
(0.8944 0.4472 0)
(0.8944 0.4472 0)
(0.8944 0.4472 0)
(0.8944 0.4472 0)
(0.8944 0.4472 0)
(0.8944 0.4472 0)
(0.8944 0.4472 0)
(0.8944 0.4472 0)
(0.8944 0.4472 0)
(0.8944 0.4472 0)
(0.8944 0.4472 0)
(0.8944 0.4472 0)
(0.8944 0.4472 0)
(0.8944 0.4472 0)
(0.8944 0.4472 0)
(0.8944 0.4472 0)
(0.8944 0.4472 0)
(0.8944 0.4472 0)
(0.8944 0.4472 0)
(0.8944 0.4472 0)
(0.8944 0.4472 0)
(0.8944 0.4472 0)
(0.8944 0.4472 0)
(0.8944 0.4472 0)
(0.8944 0.4472 0)
(0.8944 0.4472 0)
(0.8944 0.4472 0)
(0.8944 0.4472 0)
(0.8944 0.4472 0)
(0.8944 0.4472 0)
(0.8944 0.4472 0)
(0.8944 0.4472 0)
(0.8944 0.4472 0)
(0.8944 0.4472 0)
(0.8944 0.4472 0)
(0.8944 0.4472 0)
(0.8944 0.4472 0)
(0.8944 0.4472 0)
(0.8944 0.4472 0)
(0.8944 0.4472 0)
(0.8944 0.4472 0)
(0.8944 0.447201 0)
(0.8944 0.447201 0)
(0.8944 0.447201 0)
(0.8944 0.447202 0)
(0.8944 0.447202 0)
(0.894401 0.447202 0)
(0.894403 0.447201 0)
(0.894405 0.4472 0)
(0.894407 0.447197 0)
(0.89441 0.447194 0)
(0.894413 0.447189 0)
(0.894415 0.447183 0)
(0.894417 0.447176 0)
(0.894418 0.447168 0)
(0.894417 0.447161 0)
(0.894414 0.447154 0)
(0.894408 0.44715 0)
(0.894401 0.447148 0)
(0.894392 0.447151 0)
(0.894382 0.447158 0)
(0.894372 0.447169 0)
(0.894364 0.447186 0)
(0.894359 0.447205 0)
(0.894357 0.447227 0)
(0.894358 0.447248 0)
(0.894364 0.447269 0)
(0.894373 0.447287 0)
(0.894383 0.447298 0)
(0.894395 0.447305 0)
(0.894407 0.447305 0)
(0.894415 0.447299 0)
(0.894422 0.44729 0)
(0.894428 0.447275 0)
(0.894428 0.447258 0)
(0.894426 0.447243 0)
(0.894423 0.447228 0)
(0.894418 0.447214 0)
(0.894413 0.447204 0)
(0.894408 0.447197 0)
(0.894404 0.447192 0)
(0.8944 0.44719 0)
(0.894398 0.447189 0)
(0.894396 0.44719 0)
(0.894396 0.447191 0)
(0.894396 0.447193 0)
(0.894396 0.447194 0)
(0.894397 0.447196 0)
(0.894398 0.447197 0)
(0.894398 0.447198 0)
(0.894399 0.447199 0)
(0.894399 0.447199 0)
(0.894399 0.447199 0)
(0.8944 0.4472 0)
(0.8944 0.4472 0)
(0.8944 0.4472 0)
(0.8944 0.4472 0)
(0.8944 0.4472 0)
(0.8944 0.4472 0)
(0.8944 0.4472 0)
(0.8944 0.4472 0)
(0.8944 0.4472 0)
(0.8944 0.4472 0)
(0.8944 0.4472 0)
(0.8944 0.4472 0)
(0.8944 0.4472 0)
(0.8944 0.4472 0)
(0.8944 0.4472 0)
(0.8944 0.4472 0)
(0.8944 0.4472 0)
(0.8944 0.4472 0)
(0.8944 0.4472 0)
(0.8944 0.4472 0)
(0.8944 0.4472 0)
(0.8944 0.4472 0)
(0.8944 0.4472 0)
(0.8944 0.4472 0)
(0.8944 0.4472 0)
(0.8944 0.4472 0)
(0.8944 0.4472 0)
(0.8944 0.4472 0)
(0.8944 0.4472 0)
(0.8944 0.4472 0)
(0.8944 0.4472 0)
(0.8944 0.4472 0)
(0.8944 0.4472 0)
(0.8944 0.4472 0)
(0.8944 0.4472 0)
(0.8944 0.4472 0)
(0.8944 0.4472 0)
(0.8944 0.4472 0)
(0.8944 0.4472 0)
(0.8944 0.4472 0)
(0.8944 0.4472 0)
(0.8944 0.4472 0)
(0.8944 0.4472 0)
(0.8944 0.4472 0)
(0.8944 0.4472 0)
(0.8944 0.4472 0)
(0.894399 0.447201 0)
(0.894399 0.447201 0)
(0.894399 0.447201 0)
(0.894399 0.447202 0)
(0.894399 0.447202 0)
(0.894399 0.447203 0)
(0.8944 0.447203 0)
(0.894402 0.447203 0)
(0.894404 0.447202 0)
(0.894406 0.447201 0)
(0.89441 0.447198 0)
(0.894414 0.447193 0)
(0.894418 0.447187 0)
(0.894421 0.447179 0)
(0.894423 0.447171 0)
(0.894424 0.447162 0)
(0.894423 0.447153 0)
(0.894419 0.447145 0)
(0.894413 0.44714 0)
(0.894403 0.447139 0)
(0.894392 0.447141 0)
(0.894379 0.447149 0)
(0.894367 0.447163 0)
(0.894355 0.447181 0)
(0.894346 0.447205 0)
(0.894342 0.447232 0)
(0.894342 0.44726 0)
(0.894347 0.447287 0)
(0.894355 0.447311 0)
(0.894368 0.44733 0)
(0.894383 0.447342 0)
(0.894398 0.447347 0)
(0.894413 0.447344 0)
(0.894425 0.447332 0)
(0.894432 0.447317 0)
(0.894437 0.447299 0)
(0.894438 0.447276 0)
(0.894435 0.447255 0)
(0.89443 0.447236 0)
(0.894423 0.447218 0)
(0.894416 0.447205 0)
(0.894409 0.447196 0)
(0.894403 0.44719 0)
(0.894399 0.447188 0)
(0.894397 0.447187 0)
(0.894396 0.447188 0)
(0.894395 0.44719 0)
(0.894395 0.447192 0)
(0.894396 0.447194 0)
(0.894397 0.447195 0)
(0.894397 0.447197 0)
(0.894398 0.447198 0)
(0.894399 0.447199 0)
(0.894399 0.447199 0)
(0.8944 0.4472 0)
(0.8944 0.4472 0)
(0.8944 0.4472 0)
(0.8944 0.4472 0)
(0.8944 0.4472 0)
(0.8944 0.4472 0)
(0.8944 0.4472 0)
(0.8944 0.4472 0)
(0.8944 0.4472 0)
(0.8944 0.4472 0)
(0.8944 0.4472 0)
(0.8944 0.4472 0)
(0.8944 0.4472 0)
(0.8944 0.4472 0)
(0.8944 0.4472 0)
(0.8944 0.4472 0)
(0.8944 0.4472 0)
(0.8944 0.4472 0)
(0.8944 0.4472 0)
(0.8944 0.4472 0)
(0.8944 0.4472 0)
(0.8944 0.4472 0)
(0.8944 0.4472 0)
(0.8944 0.4472 0)
(0.8944 0.4472 0)
(0.8944 0.4472 0)
(0.8944 0.4472 0)
(0.8944 0.4472 0)
(0.8944 0.4472 0)
(0.8944 0.4472 0)
(0.8944 0.4472 0)
(0.8944 0.4472 0)
(0.8944 0.4472 0)
(0.8944 0.4472 0)
(0.8944 0.4472 0)
(0.8944 0.4472 0)
(0.8944 0.4472 0)
(0.8944 0.4472 0)
(0.8944 0.4472 0)
(0.8944 0.4472 0)
(0.8944 0.4472 0)
(0.8944 0.4472 0)
(0.8944 0.4472 0)
(0.8944 0.4472 0)
(0.8944 0.447201 0)
(0.894399 0.447201 0)
(0.894399 0.447202 0)
(0.894399 0.447202 0)
(0.894399 0.447203 0)
(0.894399 0.447204 0)
(0.894398 0.447205 0)
(0.894399 0.447206 0)
(0.8944 0.447206 0)
(0.894402 0.447207 0)
(0.894405 0.447206 0)
(0.894409 0.447204 0)
(0.894414 0.447199 0)
(0.894419 0.447193 0)
(0.894425 0.447185 0)
(0.894428 0.447176 0)
(0.894431 0.447166 0)
(0.894432 0.447156 0)
(0.89443 0.447146 0)
(0.894425 0.447138 0)
(0.894417 0.447133 0)
(0.894406 0.447132 0)
(0.894392 0.447136 0)
(0.894376 0.447145 0)
(0.89436 0.44716 0)
(0.894344 0.447182 0)
(0.894332 0.44721 0)
(0.894323 0.447242 0)
(0.89432 0.447277 0)
(0.894324 0.447311 0)
(0.894333 0.447343 0)
(0.894347 0.44737 0)
(0.894365 0.447389 0)
(0.894385 0.447399 0)
(0.894404 0.447401 0)
(0.894423 0.447394 0)
(0.894437 0.447376 0)
(0.894446 0.447353 0)
(0.89445 0.447327 0)
(0.89445 0.447298 0)
(0.894445 0.44727 0)
(0.894437 0.447245 0)
(0.894428 0.447223 0)
(0.894419 0.447207 0)
(0.89441 0.447195 0)
(0.894404 0.447189 0)
(0.894399 0.447186 0)
(0.894396 0.447186 0)
(0.894394 0.447187 0)
(0.894394 0.447189 0)
(0.894394 0.447191 0)
(0.894395 0.447193 0)
(0.894396 0.447195 0)
(0.894397 0.447197 0)
(0.894398 0.447198 0)
(0.894399 0.447199 0)
(0.894399 0.447199 0)
(0.8944 0.4472 0)
(0.8944 0.4472 0)
(0.8944 0.4472 0)
(0.8944 0.4472 0)
(0.8944 0.4472 0)
(0.8944 0.4472 0)
(0.8944 0.4472 0)
(0.8944 0.4472 0)
(0.8944 0.4472 0)
(0.8944 0.4472 0)
(0.8944 0.4472 0)
(0.8944 0.4472 0)
(0.8944 0.4472 0)
(0.8944 0.4472 0)
(0.8944 0.4472 0)
(0.8944 0.4472 0)
(0.8944 0.4472 0)
(0.8944 0.4472 0)
(0.8944 0.4472 0)
(0.8944 0.4472 0)
(0.8944 0.4472 0)
(0.8944 0.4472 0)
(0.8944 0.4472 0)
(0.8944 0.4472 0)
(0.8944 0.4472 0)
(0.8944 0.4472 0)
(0.8944 0.4472 0)
(0.8944 0.447201 0)
(0.8944 0.447199 0)
(0.8944 0.447201 0)
(0.8944 0.4472 0)
(0.8944 0.4472 0)
(0.8944 0.4472 0)
(0.8944 0.4472 0)
(0.8944 0.4472 0)
(0.8944 0.4472 0)
(0.8944 0.4472 0)
(0.8944 0.4472 0)
(0.8944 0.4472 0)
(0.8944 0.4472 0)
(0.8944 0.4472 0)
(0.8944 0.4472 0)
(0.894399 0.447201 0)
(0.894399 0.447201 0)
(0.894398 0.447202 0)
(0.894398 0.447203 0)
(0.894398 0.447204 0)
(0.894398 0.447205 0)
(0.894397 0.447207 0)
(0.894397 0.447209 0)
(0.894398 0.44721 0)
(0.8944 0.447212 0)
(0.894403 0.447212 0)
(0.894407 0.447211 0)
(0.894413 0.447208 0)
(0.894419 0.447202 0)
(0.894426 0.447195 0)
(0.894433 0.447185 0)
(0.894437 0.447175 0)
(0.89444 0.447164 0)
(0.89444 0.447153 0)
(0.894438 0.447143 0)
(0.894431 0.447136 0)
(0.894422 0.447132 0)
(0.894408 0.447132 0)
(0.894392 0.447138 0)
(0.894372 0.44715 0)
(0.894352 0.447168 0)
(0.894332 0.447194 0)
(0.894314 0.447227 0)
(0.894301 0.447264 0)
(0.894294 0.447306 0)
(0.894295 0.447348 0)
(0.894303 0.447389 0)
(0.894318 0.447425 0)
(0.894338 0.447453 0)
(0.894363 0.447472 0)
(0.89439 0.447479 0)
(0.894415 0.447473 0)
(0.894437 0.447459 0)
(0.894454 0.447433 0)
(0.894464 0.447399 0)
(0.894468 0.447362 0)
(0.894465 0.447325 0)
(0.894458 0.447288 0)
(0.894447 0.447256 0)
(0.894435 0.447229 0)
(0.894422 0.447208 0)
(0.894411 0.447194 0)
(0.894403 0.447186 0)
(0.894397 0.447183 0)
(0.894394 0.447183 0)
(0.894393 0.447185 0)
(0.894393 0.447188 0)
(0.894393 0.447191 0)
(0.894395 0.447193 0)
(0.894396 0.447195 0)
(0.894397 0.447197 0)
(0.894398 0.447198 0)
(0.894399 0.447199 0)
(0.894399 0.447199 0)
(0.8944 0.4472 0)
(0.8944 0.4472 0)
(0.8944 0.4472 0)
(0.8944 0.4472 0)
(0.8944 0.4472 0)
(0.8944 0.4472 0)
(0.8944 0.4472 0)
(0.8944 0.4472 0)
(0.8944 0.4472 0)
(0.8944 0.4472 0)
(0.8944 0.4472 0)
(0.8944 0.4472 0)
(0.8944 0.4472 0)
(0.8944 0.4472 0)
(0.8944 0.4472 0)
(0.8944 0.4472 0)
(0.8944 0.4472 0)
(0.8944 0.4472 0)
(0.8944 0.4472 0)
(0.8944 0.4472 0)
(0.8944 0.4472 0)
(0.8944 0.4472 0)
(0.8944 0.4472 0)
(0.8944 0.4472 0)
(0.8944 0.4472 0)
(0.8944 0.4472 0)
(0.8944 0.4472 0)
(0.8944 0.4472 0)
(0.8944 0.4472 0)
(0.8944 0.4472 0)
(0.8944 0.4472 0)
(0.8944 0.4472 0)
(0.8944 0.447201 0)
(0.8944 0.447199 0)
(0.8944 0.447201 0)
(0.894401 0.4472 0)
(0.894399 0.4472 0)
(0.8944 0.4472 0)
(0.8944 0.447201 0)
(0.8944 0.447201 0)
(0.894399 0.447201 0)
(0.894399 0.447202 0)
(0.894398 0.447203 0)
(0.894397 0.447204 0)
(0.894396 0.447206 0)
(0.894396 0.447208 0)
(0.894395 0.44721 0)
(0.894394 0.447213 0)
(0.894395 0.447217 0)
(0.894396 0.447219 0)
(0.894399 0.44722 0)
(0.894404 0.447221 0)
(0.89441 0.447219 0)
(0.894418 0.447215 0)
(0.894426 0.447209 0)
(0.894435 0.4472 0)
(0.894442 0.447189 0)
(0.894447 0.447177 0)
(0.894449 0.447166 0)
(0.894449 0.447156 0)
(0.894445 0.447148 0)
(0.894436 0.447142 0)
(0.894424 0.447142 0)
(0.894408 0.447146 0)
(0.894388 0.447155 0)
(0.894365 0.447171 0)
(0.89434 0.447194 0)
(0.894315 0.447225 0)
(0.894292 0.447263 0)
(0.894274 0.447307 0)
(0.894262 0.447356 0)
(0.894258 0.447407 0)
(0.894264 0.447457 0)
(0.894279 0.447503 0)
(0.894302 0.447542 0)
(0.894332 0.447569 0)
(0.894365 0.447583 0)
(0.894399 0.447584 0)
(0.894432 0.447569 0)
(0.894459 0.447542 0)
(0.894478 0.447504 0)
(0.894489 0.447457 0)
(0.89449 0.447407 0)
(0.894485 0.447356 0)
(0.894473 0.447309 0)
(0.894458 0.447268 0)
(0.894442 0.447235 0)
(0.894426 0.44721 0)
(0.894412 0.447193 0)
(0.894402 0.447184 0)
(0.894395 0.44718 0)
(0.894392 0.447181 0)
(0.894391 0.447184 0)
(0.894391 0.447187 0)
(0.894393 0.44719 0)
(0.894394 0.447193 0)
(0.894396 0.447196 0)
(0.894397 0.447197 0)
(0.894398 0.447198 0)
(0.894399 0.447199 0)
(0.894399 0.447199 0)
(0.8944 0.4472 0)
(0.8944 0.4472 0)
(0.8944 0.4472 0)
(0.8944 0.4472 0)
(0.8944 0.4472 0)
(0.8944 0.4472 0)
(0.8944 0.4472 0)
(0.8944 0.4472 0)
(0.8944 0.4472 0)
(0.8944 0.4472 0)
(0.8944 0.4472 0)
(0.8944 0.4472 0)
(0.8944 0.4472 0)
(0.8944 0.4472 0)
(0.8944 0.4472 0)
(0.8944 0.4472 0)
(0.8944 0.4472 0)
(0.8944 0.4472 0)
(0.8944 0.4472 0)
(0.8944 0.4472 0)
(0.8944 0.4472 0)
(0.8944 0.4472 0)
(0.8944 0.4472 0)
(0.8944 0.4472 0)
(0.8944 0.4472 0)
(0.894399 0.4472 0)
(0.894401 0.447201 0)
(0.8944 0.447199 0)
(0.8944 0.447201 0)
(0.8944 0.4472 0)
(0.894399 0.4472 0)
(0.894401 0.4472 0)
(0.894399 0.447199 0)
(0.8944 0.4472 0)
(0.894401 0.4472 0)
(0.894399 0.4472 0)
(0.8944 0.447201 0)
(0.8944 0.447201 0)
(0.894399 0.447202 0)
(0.894397 0.447202 0)
(0.894397 0.447204 0)
(0.894396 0.447206 0)
(0.894395 0.447208 0)
(0.894393 0.447211 0)
(0.894391 0.447215 0)
(0.89439 0.447219 0)
(0.89439 0.447224 0)
(0.894391 0.447228 0)
(0.894394 0.447231 0)
(0.894398 0.447233 0)
(0.894405 0.447234 0)
(0.894414 0.447232 0)
(0.894424 0.447227 0)
(0.894434 0.447219 0)
(0.894444 0.44721 0)
(0.894452 0.447199 0)
(0.894456 0.447188 0)
(0.894457 0.447178 0)
(0.894455 0.44717 0)
(0.894448 0.447166 0)
(0.894436 0.447166 0)
(0.89442 0.447171 0)
(0.894401 0.447182 0)
(0.894378 0.447198 0)
(0.894351 0.447221 0)
(0.894322 0.447251 0)
(0.894291 0.447288 0)
(0.894263 0.447334 0)
(0.894239 0.447386 0)
(0.894221 0.447443 0)
(0.894213 0.447503 0)
(0.894215 0.447564 0)
(0.894229 0.447621 0)
(0.894254 0.44767 0)
(0.894288 0.447708 0)
(0.894329 0.44773 0)
(0.894374 0.447735 0)
(0.894417 0.447724 0)
(0.894457 0.447695 0)
(0.894489 0.447652 0)
(0.894512 0.447595 0)
(0.894522 0.447529 0)
(0.894521 0.44746 0)
(0.89451 0.447393 0)
(0.894492 0.447333 0)
(0.894471 0.447282 0)
(0.894449 0.447241 0)
(0.894429 0.447211 0)
(0.894412 0.447192 0)
(0.8944 0.447181 0)
(0.894393 0.447178 0)
(0.894389 0.447179 0)
(0.894389 0.447182 0)
(0.89439 0.447186 0)
(0.894392 0.44719 0)
(0.894394 0.447194 0)
(0.894396 0.447196 0)
(0.894397 0.447198 0)
(0.894398 0.447199 0)
(0.894399 0.447199 0)
(0.894399 0.4472 0)
(0.8944 0.4472 0)
(0.8944 0.4472 0)
(0.8944 0.4472 0)
(0.8944 0.4472 0)
(0.8944 0.4472 0)
(0.8944 0.4472 0)
(0.8944 0.4472 0)
(0.8944 0.4472 0)
(0.8944 0.4472 0)
(0.8944 0.4472 0)
(0.8944 0.4472 0)
(0.8944 0.4472 0)
(0.8944 0.4472 0)
(0.8944 0.4472 0)
(0.8944 0.4472 0)
(0.8944 0.4472 0)
(0.8944 0.4472 0)
(0.8944 0.4472 0)
(0.8944 0.4472 0)
(0.8944 0.4472 0)
(0.8944 0.4472 0)
(0.8944 0.447201 0)
(0.8944 0.447199 0)
(0.8944 0.447201 0)
(0.8944 0.447199 0)
(0.8944 0.447201 0)
(0.8944 0.447199 0)
(0.894399 0.4472 0)
(0.8944 0.4472 0)
(0.8944 0.447199 0)
(0.8944 0.4472 0)
(0.8944 0.447201 0)
(0.8944 0.447199 0)
(0.894399 0.447202 0)
(0.8944 0.4472 0)
(0.894399 0.447201 0)
(0.894398 0.447202 0)
(0.894396 0.447203 0)
(0.894395 0.447205 0)
(0.894394 0.447207 0)
(0.894391 0.447211 0)
(0.89439 0.447215 0)
(0.894386 0.44722 0)
(0.894383 0.447226 0)
(0.894383 0.447233 0)
(0.894383 0.447239 0)
(0.894386 0.447245 0)
(0.89439 0.44725 0)
(0.894397 0.447253 0)
(0.894407 0.447253 0)
(0.894418 0.447251 0)
(0.894431 0.447246 0)
(0.894442 0.447238 0)
(0.894452 0.447229 0)
(0.894459 0.44722 0)
(0.894462 0.447211 0)
(0.89446 0.447205 0)
(0.894454 0.447203 0)
(0.894442 0.447207 0)
(0.894427 0.447215 0)
(0.894406 0.44723 0)
(0.894382 0.447252 0)
(0.894355 0.447279 0)
(0.894324 0.447313 0)
(0.894291 0.447354 0)
(0.894255 0.447402 0)
(0.894222 0.447458 0)
(0.894192 0.44752 0)
(0.894169 0.447587 0)
(0.894154 0.447659 0)
(0.894152 0.447732 0)
(0.894165 0.4478 0)
(0.894191 0.44786 0)
(0.89423 0.447908 0)
(0.894279 0.447941 0)
(0.894335 0.447953 0)
(0.894394 0.447941 0)
(0.894448 0.447909 0)
(0.894496 0.447859 0)
(0.894533 0.447791 0)
(0.894557 0.447709 0)
(0.894566 0.447617 0)
(0.894559 0.447523 0)
(0.89454 0.447434 0)
(0.894514 0.447357 0)
(0.894485 0.447294 0)
(0.894456 0.447246 0)
(0.894431 0.447212 0)
(0.894411 0.44719 0)
(0.894398 0.447179 0)
(0.89439 0.447175 0)
(0.894387 0.447177 0)
(0.894387 0.447181 0)
(0.894389 0.447186 0)
(0.894392 0.44719 0)
(0.894394 0.447194 0)
(0.894396 0.447196 0)
(0.894398 0.447198 0)
(0.894399 0.447199 0)
(0.894399 0.447199 0)
(0.8944 0.4472 0)
(0.8944 0.4472 0)
(0.8944 0.4472 0)
(0.8944 0.4472 0)
(0.8944 0.4472 0)
(0.8944 0.4472 0)
(0.8944 0.4472 0)
(0.8944 0.4472 0)
(0.8944 0.4472 0)
(0.8944 0.4472 0)
(0.8944 0.4472 0)
(0.8944 0.4472 0)
(0.8944 0.4472 0)
(0.8944 0.4472 0)
(0.8944 0.4472 0)
(0.8944 0.4472 0)
(0.8944 0.4472 0)
(0.8944 0.4472 0)
(0.8944 0.4472 0)
(0.8944 0.4472 0)
(0.8944 0.4472 0)
(0.8944 0.4472 0)
(0.8944 0.447199 0)
(0.8944 0.447201 0)
(0.8944 0.447199 0)
(0.8944 0.4472 0)
(0.894401 0.4472 0)
(0.894398 0.447201 0)
(0.894402 0.4472 0)
(0.8944 0.447199 0)
(0.894398 0.447201 0)
(0.894402 0.4472 0)
(0.894397 0.447199 0)
(0.8944 0.447203 0)
(0.8944 0.447201 0)
(0.894395 0.447201 0)
(0.894396 0.447205 0)
(0.894394 0.447207 0)
(0.894391 0.44721 0)
(0.894387 0.447213 0)
(0.894384 0.44722 0)
(0.894381 0.447227 0)
(0.894375 0.447235 0)
(0.894373 0.447244 0)
(0.894372 0.447254 0)
(0.894373 0.447263 0)
(0.894377 0.447271 0)
(0.894384 0.447278 0)
(0.894394 0.447282 0)
(0.894407 0.447282 0)
(0.894421 0.44728 0)
(0.894435 0.447276 0)
(0.894447 0.447269 0)
(0.894456 0.447263 0)
(0.89446 0.447258 0)
(0.894459 0.447255 0)
(0.894452 0.447259 0)
(0.89444 0.447267 0)
(0.894422 0.447282 0)
(0.8944 0.447306 0)
(0.894373 0.447336 0)
(0.894343 0.447374 0)
(0.894311 0.447419 0)
(0.894276 0.44747 0)
(0.894238 0.447526 0)
(0.894199 0.44759 0)
(0.89416 0.44766 0)
(0.894126 0.447737 0)
(0.894097 0.447818 0)
(0.894076 0.447904 0)
(0.89407 0.447991 0)
(0.894082 0.448075 0)
(0.894109 0.448147 0)
(0.894153 0.448206 0)
(0.894211 0.448248 0)
(0.894281 0.448266 0)
(0.894357 0.448257 0)
(0.894432 0.448218 0)
(0.894498 0.448155 0)
(0.894554 0.448069 0)
(0.894596 0.447964 0)
(0.89462 0.447845 0)
(0.894623 0.447719 0)
(0.894607 0.447595 0)
(0.894577 0.44748 0)
(0.894539 0.447382 0)
(0.894499 0.447305 0)
(0.894462 0.447248 0)
(0.894431 0.447211 0)
(0.894409 0.447188 0)
(0.894394 0.447177 0)
(0.894386 0.447174 0)
(0.894384 0.447177 0)
(0.894385 0.447181 0)
(0.894388 0.447186 0)
(0.894391 0.447191 0)
(0.894394 0.447195 0)
(0.894396 0.447197 0)
(0.894398 0.447198 0)
(0.894399 0.447199 0)
(0.894399 0.4472 0)
(0.8944 0.4472 0)
(0.8944 0.4472 0)
(0.8944 0.4472 0)
(0.8944 0.4472 0)
(0.8944 0.4472 0)
(0.8944 0.4472 0)
(0.8944 0.4472 0)
(0.8944 0.4472 0)
(0.8944 0.4472 0)
(0.8944 0.4472 0)
(0.8944 0.4472 0)
(0.8944 0.4472 0)
(0.8944 0.4472 0)
(0.8944 0.4472 0)
(0.8944 0.4472 0)
(0.8944 0.4472 0)
(0.8944 0.4472 0)
(0.8944 0.4472 0)
(0.8944 0.4472 0)
(0.8944 0.4472 0)
(0.8944 0.447199 0)
(0.8944 0.447201 0)
(0.8944 0.4472 0)
(0.894401 0.4472 0)
(0.894399 0.447198 0)
(0.894399 0.447203 0)
(0.8944 0.447198 0)
(0.894401 0.447199 0)
(0.894399 0.447202 0)
(0.8944 0.4472 0)
(0.8944 0.447199 0)
(0.894398 0.447203 0)
(0.8944 0.4472 0)
(0.894396 0.447204 0)
(0.894392 0.447204 0)
(0.894393 0.44721 0)
(0.894389 0.447212 0)
(0.894383 0.447218 0)
(0.894376 0.447224 0)
(0.894371 0.447235 0)
(0.894364 0.447245 0)
(0.89436 0.447258 0)
(0.894357 0.44727 0)
(0.894355 0.447284 0)
(0.894359 0.447296 0)
(0.894365 0.447307 0)
(0.894376 0.447316 0)
(0.89439 0.447321 0)
(0.894405 0.447323 0)
(0.894421 0.447324 0)
(0.894434 0.447322 0)
(0.894444 0.44732 0)
(0.894449 0.447321 0)
(0.894447 0.447324 0)
(0.894438 0.447334 0)
(0.894423 0.447352 0)
(0.894401 0.447377 0)
(0.894374 0.447411 0)
(0.894342 0.447456 0)
(0.894308 0.44751 0)
(0.894271 0.447571 0)
(0.894231 0.447641 0)
(0.894191 0.447717 0)
(0.89415 0.447798 0)
(0.894107 0.447885 0)
(0.894065 0.447975 0)
(0.894026 0.448073 0)
(0.893993 0.448176 0)
(0.893968 0.448281 0)
(0.893959 0.448386 0)
(0.893969 0.448486 0)
(0.894 0.448577 0)
(0.894051 0.448653 0)
(0.89412 0.448705 0)
(0.894206 0.448725 0)
(0.894303 0.448713 0)
(0.894403 0.448668 0)
(0.894497 0.448588 0)
(0.894579 0.448474 0)
(0.894644 0.448331 0)
(0.894685 0.448171 0)
(0.894701 0.448006 0)
(0.894694 0.447838 0)
(0.894665 0.447674 0)
(0.89462 0.447527 0)
(0.894566 0.447404 0)
(0.894512 0.447311 0)
(0.894465 0.447246 0)
(0.894429 0.447206 0)
(0.894404 0.447184 0)
(0.894389 0.447175 0)
(0.894383 0.447174 0)
(0.894382 0.447177 0)
(0.894385 0.447182 0)
(0.894388 0.447188 0)
(0.894392 0.447192 0)
(0.894395 0.447195 0)
(0.894397 0.447197 0)
(0.894398 0.447199 0)
(0.894399 0.447199 0)
(0.8944 0.4472 0)
(0.8944 0.4472 0)
(0.8944 0.4472 0)
(0.8944 0.4472 0)
(0.8944 0.4472 0)
(0.8944 0.4472 0)
(0.8944 0.4472 0)
(0.8944 0.4472 0)
(0.8944 0.4472 0)
(0.8944 0.4472 0)
(0.8944 0.4472 0)
(0.8944 0.4472 0)
(0.8944 0.4472 0)
(0.8944 0.4472 0)
(0.8944 0.4472 0)
(0.8944 0.4472 0)
(0.8944 0.447201 0)
(0.8944 0.447199 0)
(0.8944 0.447201 0)
(0.8944 0.447199 0)
(0.8944 0.447199 0)
(0.8944 0.447202 0)
(0.8944 0.447198 0)
(0.8944 0.447201 0)
(0.894399 0.4472 0)
(0.8944 0.447203 0)
(0.894402 0.447195 0)
(0.894398 0.447204 0)
(0.894399 0.447201 0)
(0.894401 0.447197 0)
(0.894397 0.447203 0)
(0.8944 0.447204 0)
(0.894392 0.447198 0)
(0.894392 0.44721 0)
(0.89439 0.447209 0)
(0.894384 0.447213 0)
(0.894378 0.447223 0)
(0.894368 0.44723 0)
(0.894359 0.447243 0)
(0.894351 0.447257 0)
(0.894341 0.447273 0)
(0.894338 0.447291 0)
(0.894333 0.447308 0)
(0.894333 0.447327 0)
(0.894339 0.447343 0)
(0.894349 0.447357 0)
(0.894364 0.447368 0)
(0.894379 0.447377 0)
(0.894396 0.447384 0)
(0.89441 0.447389 0)
(0.89442 0.447394 0)
(0.894424 0.447402 0)
(0.894419 0.447415 0)
(0.894407 0.447435 0)
(0.894386 0.447465 0)
(0.894357 0.447504 0)
(0.894322 0.447556 0)
(0.894282 0.447618 0)
(0.894238 0.447693 0)
(0.894192 0.44778 0)
(0.894146 0.447874 0)
(0.894098 0.447978 0)
(0.894051 0.448089 0)
(0.894006 0.448204 0)
(0.893961 0.448323 0)
(0.893917 0.448447 0)
(0.893876 0.448575 0)
(0.893839 0.448704 0)
(0.893812 0.44884 0)
(0.893803 0.448974 0)
(0.893816 0.449094 0)
(0.893849 0.449212 0)
(0.893907 0.449314 0)
(0.893995 0.449379 0)
(0.894106 0.449402 0)
(0.894228 0.449384 0)
(0.894357 0.449325 0)
(0.894487 0.449223 0)
(0.89461 0.44907 0)
(0.894708 0.448871 0)
(0.894772 0.44865 0)
(0.894805 0.44842 0)
(0.894809 0.448187 0)
(0.894783 0.447959 0)
(0.894731 0.44775 0)
(0.894664 0.447568 0)
(0.89459 0.447421 0)
(0.894521 0.447312 0)
(0.894465 0.44724 0)
(0.894423 0.447198 0)
(0.894398 0.447179 0)
(0.894384 0.447173 0)
(0.89438 0.447175 0)
(0.894381 0.447179 0)
(0.894385 0.447185 0)
(0.894389 0.44719 0)
(0.894393 0.447193 0)
(0.894396 0.447196 0)
(0.894398 0.447198 0)
(0.894399 0.447199 0)
(0.894399 0.4472 0)
(0.8944 0.4472 0)
(0.8944 0.4472 0)
(0.8944 0.4472 0)
(0.8944 0.4472 0)
(0.8944 0.4472 0)
(0.8944 0.4472 0)
(0.8944 0.4472 0)
(0.8944 0.4472 0)
(0.8944 0.4472 0)
(0.8944 0.4472 0)
(0.8944 0.4472 0)
(0.8944 0.4472 0)
(0.8944 0.4472 0)
(0.8944 0.4472 0)
(0.8944 0.4472 0)
(0.8944 0.4472 0)
(0.8944 0.4472 0)
(0.8944 0.447201 0)
(0.8944 0.447198 0)
(0.894399 0.447202 0)
(0.894401 0.4472 0)
(0.8944 0.447197 0)
(0.894398 0.447202 0)
(0.894401 0.447203 0)
(0.894401 0.447193 0)
(0.8944 0.447204 0)
(0.894397 0.447203 0)
(0.8944 0.447196 0)
(0.8944 0.447201 0)
(0.894397 0.447206 0)
(0.894393 0.447199 0)
(0.894389 0.44721 0)
(0.89439 0.447209 0)
(0.894381 0.44722 0)
(0.894369 0.447219 0)
(0.89436 0.44724 0)
(0.894345 0.44725 0)
(0.894334 0.44727 0)
(0.89432 0.447289 0)
(0.894311 0.447313 0)
(0.894304 0.447336 0)
(0.8943 0.447361 0)
(0.894304 0.447384 0)
(0.894312 0.447404 0)
(0.894325 0.447424 0)
(0.894342 0.447439 0)
(0.894357 0.447454 0)
(0.894371 0.44747 0)
(0.894378 0.447485 0)
(0.894379 0.447505 0)
(0.894369 0.447531 0)
(0.89435 0.447566 0)
(0.89432 0.447611 0)
(0.89428 0.447671 0)
(0.894232 0.447742 0)
(0.894179 0.447831 0)
(0.894121 0.447935 0)
(0.89406 0.44805 0)
(0.893998 0.448181 0)
(0.89394 0.448323 0)
(0.893884 0.44847 0)
(0.893829 0.448629 0)
(0.893779 0.448791 0)
(0.893732 0.448954 0)
(0.893687 0.449127 0)
(0.893647 0.449296 0)
(0.89361 0.449465 0)
(0.893581 0.449648 0)
(0.89358 0.449815 0)
(0.893598 0.449978 0)
(0.893629 0.450137 0)
(0.893702 0.450263 0)
(0.893819 0.450355 0)
(0.893963 0.450397 0)
(0.894124 0.450375 0)
(0.894293 0.450294 0)
(0.89447 0.450152 0)
(0.894643 0.449936 0)
(0.894785 0.449666 0)
(0.894888 0.449366 0)
(0.894952 0.44904 0)
(0.894971 0.4487 0)
(0.894944 0.448374 0)
(0.894883 0.448077 0)
(0.894801 0.447816 0)
(0.894705 0.447598 0)
(0.894609 0.447427 0)
(0.894524 0.447306 0)
(0.894459 0.447229 0)
(0.894414 0.447188 0)
(0.89439 0.447172 0)
(0.894379 0.447171 0)
(0.894378 0.447175 0)
(0.894381 0.447181 0)
(0.894385 0.447187 0)
(0.89439 0.447192 0)
(0.894394 0.447195 0)
(0.894396 0.447197 0)
(0.894398 0.447199 0)
(0.894399 0.447199 0)
(0.8944 0.4472 0)
(0.8944 0.4472 0)
(0.8944 0.4472 0)
(0.8944 0.4472 0)
(0.8944 0.4472 0)
(0.8944 0.4472 0)
(0.8944 0.4472 0)
(0.8944 0.4472 0)
(0.8944 0.4472 0)
(0.8944 0.4472 0)
(0.8944 0.4472 0)
(0.8944 0.4472 0)
(0.8944 0.4472 0)
(0.8944 0.447199 0)
(0.894401 0.447201 0)
(0.894399 0.447199 0)
(0.894401 0.447202 0)
(0.8944 0.447198 0)
(0.8944 0.447201 0)
(0.8944 0.447202 0)
(0.894401 0.447196 0)
(0.894399 0.447201 0)
(0.894399 0.447204 0)
(0.894402 0.447196 0)
(0.894399 0.447196 0)
(0.894397 0.447214 0)
(0.8944 0.447188 0)
(0.894401 0.447203 0)
(0.894396 0.447206 0)
(0.894391 0.447201 0)
(0.894387 0.447203 0)
(0.894391 0.447219 0)
(0.894375 0.44721 0)
(0.894363 0.447232 0)
(0.894348 0.447239 0)
(0.894331 0.447257 0)
(0.894313 0.447283 0)
(0.894298 0.447305 0)
(0.894279 0.447334 0)
(0.894267 0.447366 0)
(0.894258 0.447395 0)
(0.894259 0.447429 0)
(0.894265 0.447456 0)
(0.894273 0.447484 0)
(0.894288 0.447512 0)
(0.8943 0.447537 0)
(0.894311 0.447565 0)
(0.894313 0.447595 0)
(0.894306 0.447631 0)
(0.894287 0.447676 0)
(0.894256 0.44773 0)
(0.894213 0.447799 0)
(0.894156 0.447883 0)
(0.89409 0.447985 0)
(0.894016 0.448103 0)
(0.893938 0.448241 0)
(0.893855 0.448399 0)
(0.893773 0.448571 0)
(0.893694 0.448757 0)
(0.89362 0.44896 0)
(0.893551 0.449168 0)
(0.893489 0.449388 0)
(0.893433 0.449612 0)
(0.893383 0.449841 0)
(0.893338 0.450073 0)
(0.893303 0.450295 0)
(0.893266 0.450541 0)
(0.893244 0.45077 0)
(0.893252 0.450988 0)
(0.893265 0.451228 0)
(0.893316 0.451434 0)
(0.893421 0.451613 0)
(0.89356 0.451749 0)
(0.893746 0.451813 0)
(0.893964 0.451811 0)
(0.8942 0.451722 0)
(0.894453 0.451512 0)
(0.894687 0.451202 0)
(0.894879 0.45084 0)
(0.895038 0.450427 0)
(0.895151 0.449959 0)
(0.895194 0.44947 0)
(0.895173 0.448997 0)
(0.895103 0.448563 0)
(0.894998 0.448181 0)
(0.894871 0.44786 0)
(0.894739 0.447608 0)
(0.894619 0.447421 0)
(0.894519 0.447293 0)
(0.894447 0.447216 0)
(0.894403 0.447179 0)
(0.894381 0.447167 0)
(0.894375 0.44717 0)
(0.894377 0.447177 0)
(0.894382 0.447184 0)
(0.894387 0.44719 0)
(0.894392 0.447194 0)
(0.894395 0.447196 0)
(0.894397 0.447198 0)
(0.894399 0.447199 0)
(0.894399 0.4472 0)
(0.8944 0.4472 0)
(0.8944 0.4472 0)
(0.8944 0.4472 0)
(0.8944 0.4472 0)
(0.8944 0.4472 0)
(0.8944 0.4472 0)
(0.8944 0.4472 0)
(0.8944 0.4472 0)
(0.8944 0.4472 0)
(0.8944 0.4472 0)
(0.8944 0.4472 0)
(0.894401 0.4472 0)
(0.894399 0.4472 0)
(0.894401 0.4472 0)
(0.894399 0.4472 0)
(0.894401 0.447202 0)
(0.894399 0.447197 0)
(0.894399 0.447204 0)
(0.894402 0.447197 0)
(0.894397 0.447197 0)
(0.894401 0.447207 0)
(0.894401 0.447196 0)
(0.894399 0.447192 0)
(0.8944 0.447217 0)
(0.894396 0.44719 0)
(0.894403 0.447196 0)
(0.894398 0.447211 0)
(0.894387 0.447204 0)
(0.894389 0.447197 0)
(0.894389 0.447224 0)
(0.894372 0.447208 0)
(0.894353 0.447236 0)
(0.89434 0.447236 0)
(0.894315 0.447274 0)
(0.894293 0.447277 0)
(0.89427 0.447328 0)
(0.894245 0.44735 0)
(0.894226 0.447393 0)
(0.894208 0.447427 0)
(0.894202 0.447469 0)
(0.894205 0.447509 0)
(0.894209 0.447548 0)
(0.894216 0.447588 0)
(0.894222 0.447629 0)
(0.894224 0.447673 0)
(0.894218 0.447722 0)
(0.894198 0.447779 0)
(0.894165 0.447848 0)
(0.894114 0.447931 0)
(0.894048 0.448029 0)
(0.893969 0.448148 0)
(0.893875 0.448286 0)
(0.893773 0.448444 0)
(0.893666 0.448628 0)
(0.893551 0.448831 0)
(0.893441 0.449056 0)
(0.89333 0.449305 0)
(0.893232 0.449563 0)
(0.893137 0.44984 0)
(0.893052 0.450133 0)
(0.892983 0.450426 0)
(0.892918 0.450728 0)
(0.892866 0.451049 0)
(0.892828 0.451345 0)
(0.892791 0.451663 0)
(0.892758 0.451992 0)
(0.892761 0.452284 0)
(0.892764 0.452613 0)
(0.892779 0.452911 0)
(0.892869 0.453207 0)
(0.892997 0.45348 0)
(0.893179 0.453664 0)
(0.893423 0.453801 0)
(0.893704 0.45385 0)
(0.894053 0.453744 0)
(0.894419 0.453474 0)
(0.894738 0.453085 0)
(0.895016 0.452587 0)
(0.895258 0.45198 0)
(0.895422 0.451303 0)
(0.895495 0.450607 0)
(0.895493 0.449933 0)
(0.89542 0.449298 0)
(0.895286 0.448728 0)
(0.895114 0.448249 0)
(0.894932 0.447872 0)
(0.89476 0.447591 0)
(0.894614 0.447395 0)
(0.894504 0.447271 0)
(0.894431 0.447202 0)
(0.89439 0.447172 0)
(0.894374 0.447165 0)
(0.894372 0.44717 0)
(0.894377 0.447179 0)
(0.894383 0.447187 0)
(0.894389 0.447192 0)
(0.894394 0.447196 0)
(0.894397 0.447198 0)
(0.894398 0.447199 0)
(0.894399 0.447199 0)
(0.8944 0.4472 0)
(0.8944 0.4472 0)
(0.8944 0.4472 0)
(0.8944 0.4472 0)
(0.8944 0.4472 0)
(0.8944 0.4472 0)
(0.8944 0.4472 0)
(0.8944 0.447199 0)
(0.8944 0.447201 0)
(0.8944 0.447199 0)
(0.8944 0.447201 0)
(0.8944 0.447199 0)
(0.8944 0.447201 0)
(0.8944 0.447199 0)
(0.8944 0.447201 0)
(0.8944 0.447199 0)
(0.8944 0.447201 0)
(0.8944 0.447202 0)
(0.894401 0.447194 0)
(0.894398 0.447206 0)
(0.894403 0.447202 0)
(0.894398 0.447186 0)
(0.894401 0.447215 0)
(0.894399 0.447204 0)
(0.894396 0.447176 0)