/*--------------------------------*- C++ -*----------------------------------*\
  =========                 |
  \\      /  F ield         | OpenFOAM: The Open Source CFD Toolbox
   \\    /   O peration     | Website:  https://openfoam.org
    \\  /    A nd           | Version:  6
     \\/     M anipulation  |
\*---------------------------------------------------------------------------*/
FoamFile
{
    version     2.0;
    format      ascii;
    class       volVectorField;
    location    "1.44";
    object      U;
}
// * * * * * * * * * * * * * * * * * * * * * * * * * * * * * * * * * * * * * //

dimensions      [0 1 -1 0 0 0 0];

internalField   nonuniform List<vector> 
5835
(
(-54.8361 2.34687 32.1669)
(-1.76557e-11 3.8524e-12 7.59981e-12)
(-69.2118 -11.1196 -50.1618)
(-28.762 -1.7889 14.6583)
(-2.54519e-11 -1.34761e-11 -2.01918e-11)
(-1.65649e-05 -2.36499e-06 -1.09518e-05)
(-3.41577e-09 -8.84576e-10 1.33304e-09)
(-0.247261 -0.0735359 0.277217)
(-3.28466e-06 5.8114e-07 1.08189e-06)
(-2.83622e-08 6.45327e-09 1.42486e-08)
(-1.71036e-10 -6.33896e-12 1.02236e-10)
(2.86337 -11.9985 7.71056)
(-9.11773e-13 -5.13112e-13 -1.08334e-12)
(-1.06965e-12 4.37247e-14 1.63107e-12)
(-12.0599 -12.6674 -24.9258)
(-1.68615e-13 1.26537e-13 -1.05876e-13)
(7.62433 46.2487 -35.1833)
(8.58098 -39.4838 26.4093)
(-5.11719e-14 -1.54133e-13 -4.97996e-13)
(-3.73883e-14 4.09606e-14 7.36929e-14)
(-16.2693 -35.9203 -16.5449)
(7.62731e-15 -2.20069e-14 2.14307e-14)
(1.11287 38.9858 -2.50635)
(-1.54507 17.6376 -11.2829)
(-5.25178e-14 -1.03733e-13 -3.86992e-14)
(-3.07254e-13 -3.20388e-13 2.23137e-13)
(-14.2095 20.2308 13.7357)
(-2.84233e-12 5.23582e-12 -2.02693e-12)
(0.305012 -2.01654 10.5592)
(-2.25866e-11 7.30851e-12 4.96465e-11)
(0.237824 -0.10135 2.30395)
(-5.00029e-11 1.05891e-10 5.18539e-11)
(-3.32055e-10 6.47729e-12 3.55861e-10)
(0.0654458 0.0282781 -0.199127)
(-0.140021 -0.0500385 0.29246)
(-9.15723e-10 2.4892e-10 1.87835e-09)
(-1.78643e-10 -2.09848e-10 5.11027e-10)
(-2.63364e-09 -1.21701e-09 -1.16577e-08)
(0.00453713 -0.00857051 -0.0259365)
(-0.0280868 0.0167767 0.040124)
(2.65241e-08 -1.03108e-08 -2.02823e-07)
(-0.00248389 0.000779338 -0.00567647)
(-8.72912e-08 4.00566e-09 5.07581e-08)
(0.00111488 -0.000779187 0.00359675)
(-3.70925e-07 9.64482e-08 6.10576e-07)
(2.8985e-05 7.03163e-05 -0.000528161)
(-2.51173e-07 1.98793e-07 -3.08856e-07)
(-0.0002473 -0.000116678 0.0001248)
(1.05817e-07 -3.02915e-07 -4.56919e-07)
(-1.56915e-05 3.04133e-05 6.29823e-05)
(-4.38804e-07 -3.4624e-07 2.4179e-07)
(-8.70649e-05 4.15969e-05 -0.00012218)
(-1.33502e-06 -4.12298e-06 2.66399e-06)
(-7.32185e-06 -2.6334e-06 -6.41765e-06)
(-6.62043e-06 4.90846e-06 1.702e-05)
(1.31539e-06 4.0916e-07 -2.30706e-08)
(7.63896e-06 1.98447e-06 -4.98072e-06)
(-3.89829e-06 2.15481e-06 -4.1481e-06)
(-1.99895e-05 -2.02902e-05 5.00686e-05)
(-5.95101e-13 -1.19771e-12 -6.16006e-13)
(-0.946062 5.23343 4.7091)
(-1.53608e-12 -1.63675e-12 1.39827e-12)
(-8.53652 5.82778 -9.26484)
(-1.64995e-08 -3.25143e-08 -4.84251e-08)
(-5.35136e-08 -3.75449e-08 4.15821e-08)
(-0.0007308 0.000640746 -0.000751148)
(-0.000241227 0.000418404 0.000438988)
(-1.90657e-11 -3.76535e-11 3.66267e-11)
(-0.0921933 0.183419 0.126217)
(-0.238812 0.186892 -0.278311)
(-0.0336803 0.0248793 0.0388851)
(-0.0144255 0.0293607 -0.0235283)
(-2.13167e-10 -5.21639e-10 2.13841e-10)
(-6.86833e-10 -6.27162e-10 -4.78373e-10)
(-3.4237e-12 -8.47431e-12 -4.40212e-12)
(-1.07358e-11 -1.18277e-11 7.56649e-12)
(-0.614675 0.730934 1.39741)
(-1.8903 1.72199 -1.70016)
(-0.00136318 0.00308062 -0.00447461)
(-1.01885e-10 -2.42023e-09 -1.92942e-09)
(-4.82428e-09 -4.67784e-09 3.35446e-09)
(-0.00434246 0.00388806 0.00424312)
(-1.42246e-11 2.52136e-12 6.50709e-12)
(-64.4229 -8.47515 -39.2065)
(-49.417 2.42697 28.5219)
(-2.75419e-09 -7.36938e-10 8.59355e-10)
(-1.85776e-11 -6.87191e-12 -1.48487e-11)
(-1.5878e-05 1.21928e-06 -1.19216e-05)
(-0.320987 -0.0477032 0.331497)
(-24.2413 0.412756 11.8806)
(-2.91365e-06 1.72339e-07 8.88201e-07)
(-2.30968e-08 1.99411e-09 1.35936e-08)
(-1.45681e-10 2.02779e-11 9.52288e-11)
(-0.0030323 0.000177805 -0.00114232)
(-0.00323738 1.76214e-06 0.000821303)
(-3.4248e-05 -8.81316e-06 -7.25356e-06)
(-1.08329e-11 -5.06151e-13 3.28831e-12)
(-3.07256e-11 3.54491e-12 7.71705e-12)
(-39.9131 1.48587 -10.6705)
(-0.00712445 -0.00181641 0.00192598)
(-4.37193e-12 -7.56099e-13 -6.83162e-13)
(-0.00337017 0.000108058 0.00123758)
(-0.000177949 1.56959e-05 -2.73819e-05)
(-5.96165e-07 -2.87903e-07 -1.58612e-07)
(-34.6554 -3.98127 -0.445803)
(-7.82627e-07 -3.33846e-07 2.20991e-08)
(-0.000361883 -8.44638e-05 -8.20417e-05)
(-39.9338 -0.99495 0.513335)
(-0.000177602 2.06187e-05 3.03876e-05)
(-0.010004 0.000474029 -0.00129133)
(-3.16183e-11 6.40322e-12 -5.74356e-12)
(-3.22283e-05 -1.00692e-05 4.74024e-06)
(-39.3916 3.13639 4.67667)
(-4.33725e-12 -1.5315e-12 5.37435e-13)
(-1.46249e-11 3.24718e-13 -1.13078e-12)
(-0.000192638 1.73871e-05 -3.66037e-05)
(-0.0002007 2.42073e-05 4.89367e-05)
(-6.72972e-07 -4.69785e-07 -1.29929e-07)
(-1.18291e-06 -5.93066e-07 -2.16538e-07)
(-37.6314 -0.613235 -0.0738011)
(-33.6263 -5.1627 -0.114649)
(-0.000253054 -4.94584e-05 5.77294e-05)
(-0.000277173 -9.13271e-05 -2.25207e-05)
(-3.15091e-12 -4.84231e-13 -7.10764e-13)
(-3.06023e-12 -1.25752e-12 2.59721e-13)
(-3.85537e-11 1.13396e-11 -5.21171e-12)
(-3.3018e-11 1.83888e-12 5.05529e-12)
(-1.89073e-11 7.60591e-13 -1.63708e-12)
(-1.39344e-11 -7.73451e-15 1.35996e-12)
(-0.00326335 -0.00156881 0.000961291)
(-0.0044643 0.000238657 -0.000711467)
(-4.55129e-05 -2.05713e-05 -1.05257e-05)
(-4.5743e-05 -1.09555e-05 1.74127e-06)
(-0.0060401 0.000688388 -0.000220758)
(-1.54005e-12 5.14744e-13 8.35475e-13)
(9.46296e-14 5.99484e-13 2.6295e-13)
(-50.9545 0.353597 -28.1407)
(-1.32783e-12 -3.6192e-13 -1.63638e-12)
(-54.1633 4.66623 17.5392)
(-1.52531e-12 7.74539e-13 6.32819e-13)
(-1.49292e-12 9.66331e-13 -9.76652e-13)
(-1.45568e-12 7.14059e-14 2.0714e-13)
(-36.0718 5.05159 -21.5013)
(-42.7768 2.6842 17.313)
(-54.2846 -2.40316 24.4248)
(-59.9885 -4.81646 -21.048)
(-47.2893 -11.7875 13.0997)
(-67.7394 6.80056 -20.8521)
(-9.97748e-11 -3.63207e-12 -6.41927e-11)
(-5.02101e-11 -1.38792e-11 2.57948e-11)
(-61.0272 -2.13996 18.154)
(-9.05935e-11 6.22271e-12 -3.93601e-11)
(-7.68365e-11 2.46513e-11 1.14078e-10)
(-3.84749e-11 -2.6266e-11 -1.08169e-11)
(-53.5673 -6.35088 -11.5679)
(-33.6103 14.6348 -2.56522)
(-21.4488 0.245265 -7.60661)
(-4.0194e-07 -1.19552e-07 -1.70193e-07)
(-8.82419 2.14986 -2.98705)
(-37.2462 -11.0098 3.99873)
(-2.29581e-09 5.09916e-10 -1.34196e-09)
(-1.26731e-09 -6.59553e-10 2.83583e-10)
(-4.0265e-08 -4.28012e-09 2.60896e-08)
(-5.75491e-08 6.77163e-09 -1.56739e-08)
(-39.1234 8.51046 -11.3539)
(-2.22075e-08 -9.32714e-09 4.07865e-09)
(-1.89074e-07 -1.94734e-08 9.49761e-08)
(-18.9074 -0.406513 -1.83774)
(-2.2116e-08 2.18591e-10 6.2021e-09)
(-1.63875e-08 -4.53573e-10 -1.09632e-08)
(-2.64027 -0.540708 1.43254)
(-1.7424 0.447477 0.785544)
(-1.92228 0.446632 -0.88026)
(-1.36169e-06 -2.74389e-07 -6.26932e-07)
(-9.12895e-07 -1.08978e-07 4.25697e-07)
(-0.436749 -0.0279859 -0.219663)
(-2.67728e-07 -6.25193e-08 8.09179e-08)
(-32.232 -4.27072 14.667)
(-9.21095 -2.4129 -4.45801)
(-18.9465 -3.93001 -10.4333)
(-8.22319e-09 -2.99167e-09 -2.86215e-09)
(-2.32356e-10 -4.5364e-11 -8.57587e-11)
(-0.00083992 8.35036e-05 -0.000501188)
(-0.000713391 -0.000114438 0.000210002)
(-5.10032e-07 -5.34805e-09 -2.65367e-07)
(-0.939558 -0.187162 0.422043)
(-9.19208e-08 -3.38148e-09 -3.96907e-08)
(-0.000665715 4.54638e-05 5.58632e-05)
(-0.00042085 6.46143e-05 3.92756e-05)
(-1.22886e-05 -3.25893e-06 5.53289e-06)
(-6.09087e-05 -1.23494e-05 -3.00645e-05)
(-3.91172e-05 -1.44151e-06 -1.26148e-05)
(-1.97874e-05 -3.28021e-06 -5.55338e-06)
(-0.000808305 -0.000733969 -0.00054933)
(-0.00164981 -0.000207248 0.000474473)
(-0.00011882 -1.4562e-05 5.25155e-05)
(-0.000104106 -1.87916e-05 -5.09633e-05)
(-1.22703e-12 2.50628e-13 5.80367e-13)
(-1.5811e-11 4.52956e-12 -8.65512e-12)
(-1.43309e-12 6.0592e-14 -5.5867e-13)
(-35.2663 7.93277 19.5934)
(-29.346 3.7748 -19.08)
(-8.40509e-05 7.43352e-07 3.25182e-05)
(-0.000157353 -2.60956e-05 -5.01213e-05)
(-0.000173387 -3.53568e-05 5.86463e-05)
(-5.56566e-05 -3.58312e-05 -1.76177e-05)
(-9.00561e-05 3.45076e-07 -2.16596e-05)
(-0.00019277 0.000288376 -0.000362959)
(-8.54864e-05 6.95147e-06 1.82547e-05)
(-9.88596e-06 -3.41949e-07 -3.33647e-06)
(-0.258239 0.0150834 0.0188262)
(-4.804e-06 -4.00557e-06 2.17808e-06)
(-0.196466 0.0266724 -0.117075)
(-2.40199e-06 -1.34515e-06 -1.11776e-06)
(-0.0663229 0.0120485 -0.0224083)
(-1.62095e-06 -5.00071e-07 6.3576e-07)
(-2.85219e-05 3.62889e-06 1.11885e-05)
(-3.24173e-05 9.7791e-06 -7.00529e-06)
(-0.000149478 3.58135e-06 4.60767e-05)
(-0.000453514 -8.58811e-06 0.000134765)
(-1.05239e-06 7.53763e-07 7.21134e-07)
(-5.01782e-07 -5.3182e-07 -1.98727e-06)
(-0.000500017 5.13529e-05 -0.000156422)
(-0.0886196 0.0182021 -0.0109237)
(-6.03603e-06 -1.11445e-08 1.80476e-06)
(-0.28183 -0.0611404 0.157639)
(-0.10912 -0.0170179 0.0578954)
(-57.6144 -4.03603 11.208)
(-1.97961e-12 -1.48023e-12 -3.1056e-12)
(-8.39831e-13 -1.17159e-12 -2.77841e-12)
(-0.0219542 -0.0181732 -0.00688893)
(-7.56445e-07 -1.12261e-07 -3.54742e-07)
(-3.05727e-05 -5.74405e-06 -9.55353e-06)
(-5.23058e-07 -7.82421e-07 1.23704e-07)
(-3.83534e-07 -1.91437e-07 -1.80702e-06)
(-7.61583e-11 5.54723e-11 1.20043e-11)
(-61.5449 -7.25218 13.3635)
(-5.57879e-11 -2.65939e-11 4.18427e-11)
(-63.3536 5.67855 -14.4014)
(-0.0193219 0.00274855 -0.0116353)
(-1.51413e-05 -2.39437e-06 5.64296e-06)
(-0.0249816 -0.00365988 0.0201083)
(-0.0124862 -0.000594774 -0.00473372)
(-0.181103 -0.00217076 -0.128903)
(-1.87432e-05 -2.31782e-06 6.13299e-06)
(-0.0127596 -0.00181169 0.00648102)
(-9.36234e-06 -1.1848e-06 -3.81308e-06)
(-0.0209181 -0.00949157 -0.0107056)
(-0.00737503 -0.00170696 0.00320249)
(-4.23751e-07 -1.39146e-07 1.3581e-07)
(-8.75549 0.244176 -3.81271)
(-3.95194e-09 1.44902e-11 1.27317e-09)
(-1.63498e-10 -5.95752e-11 4.5506e-11)
(-4.52302e-07 2.44548e-08 1.76002e-07)
(-2.67055e-10 -8.97664e-11 -4.59673e-11)
(-2.96277e-09 -4.43255e-10 -2.10918e-09)
(-9.65384e-11 1.09273e-11 -3.25863e-11)
(-31.6966 -1.02262 -2.29779)
(-2.70584e-06 9.94888e-09 9.69292e-07)
(-4.97133e-07 7.77063e-08 -1.90028e-07)
(-2.32787e-12 -2.41031e-13 -8.24759e-13)
(-14.1168 0.438273 -2.54314)
(-15.8174 0.669707 -4.61998)
(-3.60573e-12 -2.20741e-13 -1.28458e-12)
(-22.5464 -6.05955 12.4403)
(-1.60579e-09 -6.67618e-10 2.58685e-10)
(-1.26414e-12 -3.40066e-13 -4.25738e-13)
(-1.70478e-12 -4.40627e-13 -5.75562e-13)
(-26.3308 0.602065 -14.1817)
(-25.5182 2.70318 18.2117)
(-3.02115e-05 -9.49413e-06 -3.75725e-06)
(-2.52643e-05 5.32446e-07 7.73709e-05)
(-2.69861e-12 5.54335e-13 -7.52204e-13)
(-3.84082e-12 2.99439e-13 -1.50345e-12)
(-3.16034e-06 5.49401e-07 -1.07423e-06)
(-3.63627 -0.71729 1.41008)
(-9.23079e-13 -1.99323e-13 3.20273e-13)
(-8.78435e-13 -9.61153e-14 -3.78576e-13)
(-1.04487e-06 9.16674e-07 -2.53474e-06)
(5.97132e-08 -7.68724e-07 -2.0738e-06)
(-3.50391e-11 2.613e-11 8.16722e-12)
(-8.11335e-13 -4.41137e-13 3.14073e-13)
(-39.3431 -2.59688 16.789)
(-0.000219569 1.36064e-05 -7.24414e-05)
(-2.27016e-13 -1.71206e-13 -8.27517e-14)
(-0.000171401 3.06654e-05 -4.19544e-05)
(-1.05952e-12 -3.88071e-13 -4.46009e-13)
(-1.06028e-12 -2.00043e-13 -3.59544e-13)
(-4.5065e-13 -1.7518e-13 3.43982e-14)
(-1.18982e-12 -9.18353e-14 2.99082e-13)
(-11.1262 -4.10771 11.5939)
(-23.7494 1.90558 -3.02936)
(-8.4499e-12 -1.13381e-11 -1.0014e-12)
(-35.4951 -3.76459 2.33083)
(-3.08568e-13 -1.1934e-13 -9.60797e-14)
(-1.36299e-12 -1.64069e-13 4.86614e-13)
(-5.88234e-11 -1.05122e-11 3.44071e-11)
(-6.66853e-13 -2.61906e-13 3.04682e-13)
(-1.14676e-12 -4.26043e-13 -3.39837e-13)
(-24.1873 4.20521 18.3185)
(-5.4817e-13 3.43127e-13 -2.62124e-13)
(-57.6863 4.39097 21.0951)
(-62.1893 3.23393 -25.3165)
(-14.195 -11.0889 14.0235)
(-45.7365 0.622723 16.9578)
(-18.1299 7.99172 -7.19011)
(-1.25019e-13 -1.69129e-13 1.33925e-13)
(-16.1632 -16.9884 -3.00437)
(-5.73012e-13 2.56639e-13 1.5927e-13)
(-59.1368 -8.17626 18.4003)
(-56.9798 7.31027 -0.500148)
(-63.5019 5.59638 -27.109)
(-37.0744 -15.0868 7.91637)
(-31.9612 13.6349 -14.6555)
(-5.79167e-13 7.52609e-14 2.17557e-14)
(-9.88111e-13 -7.52715e-13 -3.73454e-13)
(-0.0224148 0.00602491 0.00550182)
(-22.2134 -5.49238 -5.53437)
(-0.00308015 -2.48991e-05 -0.000543669)
(-2.11516e-09 -8.54037e-10 -1.05355e-09)
(-6.76205e-07 -5.73426e-07 -1.12539e-07)
(-0.997642 0.0863554 0.374932)
(-8.5947e-12 -1.39062e-13 -2.2428e-12)
(-38.6252 -2.72297 -10.5631)
(-6.40427e-12 6.6708e-13 2.90441e-12)
(-44.1603 -2.10851 11.9414)
(-0.0327304 -0.00560914 0.00816131)
(-0.0197506 0.000176995 -0.00882598)
(-17.7297 16.8619 -2.52153)
(-0.445977 -0.0231343 0.187822)
(-1.09035e-05 -1.88375e-08 3.59265e-06)
(-36.6852 -4.7271 -12.8032)
(-1.05527e-09 7.02334e-11 3.76575e-10)
(-0.350253 -0.00235966 -0.185178)
(-2.46964e-10 2.60706e-11 -6.9954e-11)
(-0.306394 -0.0155459 -0.0505551)
(-0.00245548 -0.000328877 0.000821582)
(-2.37985e-07 2.87994e-08 3.79946e-07)
(-0.00229697 -8.63186e-05 -0.000606303)
(-1.49972e-12 2.60461e-13 3.33263e-13)
(-1.52625e-12 1.88608e-13 -3.7586e-13)
(-27.9874 5.41608 14.0733)
(-30.4139 -7.18222 11.7774)
(-25.6524 -3.93301 -11.3387)
(-1.29805e-10 3.4398e-11 -1.01391e-10)
(-0.00969456 0.00076323 0.00238942)
(-1.66815e-09 2.85844e-10 9.42802e-10)
(-0.0100827 0.000195071 -0.00190255)
(-2.80713e-08 2.46764e-09 -1.93021e-08)
(-0.0134062 -0.00199097 0.00658626)
(-27.8065 5.71315 -10.6679)
(-2.95333e-08 1.95918e-09 1.31716e-08)
(-6.05628e-10 9.30073e-11 -1.63587e-10)
(-2.84275 -0.496915 1.24662)
(-0.0699333 0.0287986 -0.0298722)
(-1.68028e-10 1.76688e-11 -8.32821e-11)
(-9.94204 -4.04199 4.55344)
(-1.33014e-05 1.3246e-06 -3.91261e-06)
(-40.9754 -9.67236 15.9675)
(-0.430818 -0.0322897 -0.242724)
(-23.2441 2.25504 7.46644)
(-6.36321e-08 -5.37887e-09 -4.77558e-08)
(-0.00145066 -0.000193704 0.000331263)
(-0.00855328 3.38804e-06 -0.00435712)
(-48.7578 4.09924 -12.4672)
(-1.51194e-07 -1.5533e-07 7.2337e-08)
(-7.87921e-09 1.70138e-09 -3.18618e-09)
(-2.39121e-07 -7.97191e-09 7.30017e-08)
(-1.88769e-08 2.72136e-09 -1.74035e-08)
(-0.00609257 -0.00125666 0.00133107)
(-6.70531 -0.933389 -2.75724)
(-6.2199e-08 1.08103e-08 -9.96132e-09)
(-1.00744e-09 3.96989e-10 9.3083e-10)
(-6.45364e-07 2.02352e-08 -8.28297e-08)
(-29.9789 0.280605 12.6096)
(-0.230698 -0.0987077 -0.054468)
(-3.54829e-05 1.48449e-06 -9.04886e-06)
(-0.000289371 6.33397e-05 -0.000132601)
(-0.00034868 9.97565e-05 8.20257e-05)
(-1.19472e-05 4.46093e-06 -5.23604e-06)
(-9.6001e-05 1.42531e-05 2.7316e-05)
(-8.56319e-06 -2.25473e-07 6.74326e-06)
(-0.00022868 1.5798e-05 8.17095e-05)
(-0.000133202 -5.50205e-06 -3.5255e-05)
(-8.25477e-05 2.01335e-05 -2.44198e-05)
(-6.09524e-05 -5.44326e-06 -2.14899e-05)
(-1.22425e-05 -4.03248e-06 -5.69234e-06)
(-1.84157e-05 -3.50186e-06 1.21964e-06)
(-0.000117725 1.20834e-05 3.30173e-05)
(-6.36264e-05 6.64805e-06 1.79465e-05)
(-2.89075e-05 4.91586e-06 6.12296e-06)
(-6.43469e-07 -2.60987e-07 -3.13686e-07)
(-7.2213e-07 1.37893e-07 1.17925e-07)
(-0.000283468 3.35736e-06 0.000100078)
(-2.4317e-05 2.13151e-06 6.29968e-06)
(-6.52178e-07 -2.49301e-07 -1.73979e-07)
(-0.000172008 -8.20391e-05 -0.000270541)
(-0.000112703 1.29342e-05 -3.77065e-05)
(-7.13421e-05 2.48123e-05 2.56184e-05)
(-1.05674e-06 1.02096e-08 -4.39661e-07)
(-1.16144e-05 4.78316e-06 4.07004e-06)
(-0.000313531 0.000119347 6.2544e-05)
(-0.000108234 -5.05381e-05 -5.27374e-05)
(-7.97039e-07 2.57181e-07 3.51393e-07)
(-0.0576972 -0.00938579 -0.00864383)
(-2.3019 0.00478641 -1.13609)
(-3.6575e-07 5.16118e-08 2.05412e-07)
(-0.886759 -0.0785881 -0.580351)
(-31.0293 -1.3258 -13.1136)
(-0.00117517 -0.000286289 -0.0005353)
(-0.0239339 -0.0156524 0.0038917)
(-6.28826e-07 3.53088e-07 -1.18684e-07)
(-4.41489e-07 6.18062e-08 -1.41364e-07)
(-5.37029e-09 -3.77923e-09 -3.96212e-09)
(-5.24645e-09 -1.03899e-09 4.34407e-09)
(-3.02708e-08 3.22974e-09 1.29458e-08)
(-35.0967 -7.34122 -11.3288)
(-2.5387e-06 1.53761e-07 -8.56597e-07)
(-6.04763e-06 4.01721e-07 4.16094e-07)
(-3.15632e-06 8.29263e-07 -8.26787e-07)
(-3.70582e-10 -7.91393e-11 1.448e-10)
(-0.00369227 -0.00032333 0.0016649)
(-1.10244e-05 4.35494e-06 -2.75642e-06)
(-0.61539 0.0554532 0.182894)
(-4.24546e-11 3.25748e-12 1.28585e-11)
(-8.49526e-08 2.65196e-08 3.50677e-08)
(-2.56851e-09 6.96148e-09 -4.13873e-09)
(-1.47867e-05 2.57225e-06 5.47691e-06)
(-3.11469 -1.22974 0.905637)
(-1.71166e-10 1.82995e-11 -1.06634e-10)
(-5.48551e-11 -4.47033e-12 2.52866e-11)
(-18.991 -0.710429 -10.9611)
(-0.00468131 0.00116142 0.000982716)
(-8.89181e-10 1.20335e-10 6.26842e-10)
(-0.532648 0.0323739 -0.0780283)
(-2.12605e-11 2.09375e-12 9.37507e-12)
(-2.08517e-11 2.967e-12 -2.5408e-12)
(-0.00357397 -0.000537718 0.000178911)
(-2.78724e-11 3.29849e-12 -9.09595e-12)
(-13.1772 -4.0642 9.38255)
(-8.55943 0.690862 4.40529)
(-1.74851e-11 1.82023e-12 -6.4243e-12)
(-7.03733e-12 1.04392e-12 -3.37865e-12)
(-10.0302 0.630144 -4.10969)
(-0.0929633 0.0148082 0.0490521)
(-1.15941e-10 -5.38581e-11 -4.96897e-11)
(-1.29558e-09 -5.7467e-10 -4.0545e-10)
(-0.00664124 0.000176632 -0.00403442)
(-0.156531 0.0403968 0.0805708)
(-9.23877e-10 -6.13167e-10 -2.72615e-10)
(-8.05044 0.339198 5.86772)
(-4.58476e-12 -4.78956e-13 -2.39253e-12)
(-0.361897 0.100254 -0.143096)
(-1.28967e-10 -7.95616e-11 7.90967e-11)
(-0.151426 0.0157023 -0.0567258)
(-9.83666e-11 -5.47606e-11 3.97231e-11)
(-8.67805e-10 -4.88302e-10 5.30889e-10)
(-0.0089811 0.00101258 0.00353142)
(-0.000977128 2.98672e-05 0.00017854)
(-0.351545 0.0181285 -0.116477)
(-0.0591614 0.00775893 -0.020856)
(-5.91874e-10 -3.63532e-10 2.89642e-10)
(-8.62316 -0.803866 -4.69577)
(-6.02373e-10 4.5217e-11 -1.2719e-10)
(-0.046037 0.0125494 0.0157362)
(-0.00106817 -3.07832e-05 0.00024072)
(-6.52393e-12 -2.22476e-12 1.70706e-12)
(-2.64767e-11 -7.17794e-12 1.24936e-11)
(-9.45106 2.62491 -5.7967)
(-6.44669e-12 -1.1134e-12 -1.79932e-12)
(-5.11359e-12 -2.75902e-12 -1.36728e-12)
(-0.364504 -0.0611971 0.247889)
(-2.21928e-11 -9.02289e-12 -8.63586e-12)
(-11.3648 -1.03242 7.88139)
(-2.55065e-11 -1.34152e-11 -8.97977e-12)
(-1.48998 0.378134 0.794195)
(-0.0011067 0.000298107 -0.000265198)
(-12.9721 5.8593 3.77339)
(-5.02648e-12 -2.27087e-12 1.57295e-12)
(-0.000640145 7.60551e-05 0.000131773)
(-8.57134e-08 1.50644e-08 8.04647e-08)
(-3.03361 0.45318 -1.51384)
(-2.32647e-11 -1.17369e-11 7.77998e-12)
(-0.00229907 0.000637998 -0.00102786)
(-8.35161e-10 2.90657e-09 -1.06771e-09)
(-0.00360098 -0.000166946 0.00120618)
(-7.90478e-09 -3.58563e-09 -3.74566e-09)
(-0.00640976 0.0025114 -0.00183054)
(-0.000765471 1.00578e-06 -0.000228317)
(-3.38741e-08 -9.65993e-09 -3.12673e-08)
(-3.31189e-08 -3.68769e-08 1.89933e-08)
(-0.00109304 0.000217066 0.000269781)
(-5.34646e-08 -2.62157e-08 -3.23044e-08)
(-9.84789e-08 -2.69554e-08 -4.47173e-08)
(-3.22129e-08 6.00783e-09 8.98216e-09)
(-0.00178448 0.000190206 -0.000506593)
(-0.00279354 0.000149018 9.42559e-05)
(-4.26478e-05 -1.49155e-05 -4.7905e-06)
(-1.33062e-11 -8.88066e-13 2.40049e-12)
(-3.9328e-11 -4.32779e-13 6.69e-12)
(-53.6733 0.903336 -10.2282)
(-0.00588565 -0.00221969 0.000569045)
(-4.35961e-12 -6.81745e-13 4.74969e-13)
(-0.000208522 1.8535e-05 -2.13442e-05)
(-32.549 -5.38318 7.08458)
(-6.82607e-07 -3.60338e-07 -1.0628e-07)
(-1.12819e-06 -5.52588e-07 -9.2774e-08)
(-0.000363326 -0.000111445 4.33262e-05)
(-46.8702 -0.768211 -9.45748)
(-0.000210392 2.37282e-05 2.91803e-05)
(-3.79635e-11 6.8205e-12 -3.71722e-12)
(-0.00869232 -6.36493e-05 -0.000621443)
(-4.06049e-05 -1.48972e-05 2.65358e-06)
(-46.3588 3.82355 -2.85882)
(-1.88544e-11 -1.26121e-12 9.58749e-13)
(-4.59948e-12 -1.40169e-12 -1.19342e-12)
(-63.6801 -3.63878 23.7131)
(-1.30536e-12 -8.66433e-14 8.64808e-13)
(-1.36208e-12 -7.32114e-13 -8.38654e-13)
(-64.915 1.7534 19.6296)
(-53.8153 2.13649 -27.7092)
(-45.6661 -0.815712 16.7525)
(-1.48951e-12 3.3866e-13 1.70636e-14)
(-1.28048e-12 1.41579e-12 -1.27082e-12)
(2.07573e-13 9.26462e-13 -1.11806e-12)
(-9.80465e-11 -1.85568e-11 -5.32003e-11)
(-69.3899 2.8601 24.3648)
(-60.7388 -14.2213 11.6098)
(-1.26068e-10 1.61559e-11 -9.62696e-11)
(-4.99244e-11 -2.72321e-11 -1.37146e-11)
(-4.30517e-11 -3.29082e-11 2.55365e-11)
(-74.5114 3.27216 -20.212)
(-34.4311 5.23501 21.2258)
(-1.5171e-12 3.70357e-13 -6.86883e-13)
(-68.17 -1.2378 11.807)
(-4.2034e-13 -1.19337e-12 -4.56552e-12)
(-1.96196e-11 5.67605e-12 -1.07633e-11)
(-9.27192e-11 3.71857e-11 2.98933e-11)
(-69.7566 -7.77953 10.6865)
(-1.55051e-09 -4.96822e-10 6.88261e-11)
(-51.1236 -12.6064 -1.32811)
(-3.08225e-09 -8.44723e-10 -2.41882e-09)
(-37.8602 10.8401 -19.5373)
(-1.32438e-12 -3.34815e-13 3.14609e-13)
(-57.7424 -0.545075 -9.73514)
(-37.0623 -2.08271 15.1401)
(-13.9899 -2.37761 -5.11781)
(-0.00069102 8.32468e-05 0.000202813)
(-0.00101903 -2.82306e-05 -0.000614877)
(-11.7142 1.96095 -3.57681)
(-1.7983e-07 -2.75334e-08 8.65558e-08)
(-30.9716 -0.445274 -6.44426)
(-0.000800083 -8.80871e-06 0.000166758)
(-25.2923 0.196567 -2.61166)
(-5.08667e-07 -7.56904e-08 -2.27763e-07)
(-6.23753e-08 9.18284e-09 4.53812e-08)
(-0.000160133 -3.48891e-05 -5.31074e-05)
(-8.59208e-05 2.41179e-05 2.68883e-05)
(-0.000133723 -1.00003e-05 5.95416e-05)
(-0.000212974 -1.31693e-05 6.30362e-05)
(-5.34935e-07 2.8155e-08 -2.41102e-07)
(-2.77763 0.125046 -1.23146)
(-62.6352 -4.99811 -20.7938)
(-1.29126e-06 1.09629e-08 6.22631e-07)
(-21.2221 -2.51492 -9.34538)
(-2.69236e-05 1.9462e-05 1.63475e-05)
(-0.00019996 5.44211e-06 5.95582e-05)
(-3.04312 0.265482 0.791603)
(-2.11045e-06 -1.60163e-07 -6.9426e-07)
(-0.672775 -0.105706 -0.231608)
(-4.29174e-07 -2.49341e-08 -2.75528e-07)
(-3.55822e-07 -3.7064e-08 1.02956e-07)
(-0.950933 -0.127397 0.47019)
(-6.16497e-11 4.87648e-11 1.21051e-10)
(-2.11512e-10 -7.45034e-11 5.61618e-11)
(-0.000627061 6.00167e-07 -0.000197905)
(-25.246 -0.2262 14.9457)
(-1.61235e-12 3.73335e-13 -3.95124e-13)
(-7.73914e-07 -1.26304e-06 -5.86537e-07)
(-3.59945e-06 2.79207e-07 -1.43589e-06)
(-4.02695 0.0682556 1.19315)
(-0.000602329 5.32384e-06 0.000154753)
(-3.3329e-07 -5.60786e-07 -1.8951e-06)
(-2.45818e-05 -4.89679e-06 7.11266e-05)
(-11.7404 -0.326121 -4.99233)
(-8.25355e-07 2.0967e-06 -3.23403e-06)
(-0.155595 0.0303512 0.0265862)
(-0.251586 -0.00675546 -0.166121)
(-1.27718e-05 3.51987e-07 -4.39697e-06)
(-0.0227509 -0.00834361 -0.0156572)
(-0.110737 0.00361249 0.0665222)
(-2.14952e-06 -3.95779e-07 7.27688e-07)
(-0.099477 0.00532026 -0.0186518)
(-0.0251379 0.00127873 -0.0205171)
(-1.6498e-05 4.1329e-07 -6.5022e-06)
(-0.449911 -0.0134212 -0.296903)
(-0.0133718 -0.00218545 -0.00461704)
(-0.0123527 -0.000184444 0.00720309)
(-1.01586e-05 -1.64288e-06 -3.07687e-06)
(-1.13621e-08 -5.48615e-10 -9.02255e-09)
(-2.99984 -0.280085 1.49981)
(-7.18094e-08 -1.28325e-08 -4.37773e-08)
(-4.41949e-05 2.34926e-07 -8.78982e-06)
(-4.55469e-07 -1.03523e-07 1.45793e-07)
(-49.3584 13.4768 -0.214445)
(-2.07107e-10 -7.67024e-11 -1.05764e-10)
(-0.000110179 3.70689e-06 -2.39175e-05)
(-0.000327867 0.000247033 -0.000403017)
(-3.36548e-05 1.90292e-05 7.67506e-06)
(-0.00910529 -0.00121029 0.00383506)
(-5.75528e-07 -7.98168e-07 -3.54013e-06)
(-29.8467 0.145935 20.7888)
(-46.7334 8.44408 -12.4264)
(-24.6312 0.607853 -5.50923)
(-3.69497e-12 5.36346e-13 -2.08885e-12)
(-27.356 -1.30427 14.0061)
(-0.0407556 -0.0204624 -0.00448587)
(-5.85933e-07 -1.92215e-07 -3.15344e-07)
(-3.11016e-09 -2.40971e-10 -1.43398e-09)
(-26.9531 9.56409 -19.4825)
(-1.33782e-12 2.03626e-13 7.02817e-13)
(-21.778 -0.450351 -5.77726)
(-5.47109e-12 6.9027e-13 -1.60317e-12)
(-6.76696e-12 1.07788e-13 2.38914e-12)
(-40.0697 -2.05998 -14.716)
(-1.00571e-12 -1.50841e-13 4.14301e-13)
(-10.4508 0.0539459 2.22565)
(-8.08972e-13 -1.61297e-13 3.28854e-13)
(-51.4944 -2.82713 13.0129)
(-73.3974 -6.69662 8.25569)
(-1.48933e-12 -5.84919e-13 4.50599e-13)
(-1.85156e-11 -9.48888e-12 -7.1127e-13)
(-0.838986 -9.0692 13.9428)
(-6.27893 -5.8068 19.9221)
(-72.7678 -1.73676 -32.0313)
(-1.89132e-13 -2.05086e-13 9.22778e-14)
(-1.61052e-12 -7.24657e-13 -4.58884e-13)
(-1.75839e-12 -4.66254e-13 5.79179e-13)
(-1.65059e-12 -5.18441e-13 -3.47721e-13)
(-35.894 11.3634 -11.6307)
(-64.1921 6.07781 22.9902)
(-2.3793e-13 -2.64343e-13 -4.43025e-14)
(-47.5004 2.37564 7.17886)
(-5.28577e-13 6.73675e-13 -2.90568e-13)
(3.60858e-13 6.73926e-13 -1.08144e-12)
(-7.83877e-13 -3.6625e-13 1.35097e-13)
(-1.21732e-12 -7.03582e-13 -4.75903e-13)
(-65.9363 9.07796 2.05901)
(-46.0253 -8.38163 8.04731)
(-6.88935e-13 2.85039e-14 3.73029e-13)
(-28.0934 -6.22047 -5.85385)
(-7.76599e-13 -2.78056e-13 -4.75682e-13)
(-6.63828 -8.47387 3.64624)
(-9.48776e-13 -3.89384e-13 -4.54893e-13)
(-9.20482e-07 -4.66283e-07 -1.30959e-07)
(-5.08453e-07 1.57965e-08 -1.70948e-07)
(-8.15435 13.6226 2.28889)
(-40.684 -5.51234 -10.8794)
(-21.3728 3.66598 -4.89955)
(-1.86265e-12 1.32157e-13 3.49215e-13)
(-0.0246757 -0.00238237 -0.0142828)
(-3.14497e-06 -2.08786e-08 -9.78693e-07)
(-35.4183 -3.96719 13.12)
(-38.5965 -8.16013 -14.7348)
(-1.69831e-10 -1.48872e-11 -1.43189e-10)
(-6.91891e-11 1.57844e-12 3.5966e-11)
(-0.164066 0.0192469 -0.106314)
(-1.65532e-09 5.43267e-11 1.09116e-09)
(-14.3627 -2.63513 5.97062)
(-39.7146 3.0761 -14.8844)
(-2.46835 -0.750638 1.18971)
(-4.55557e-10 2.20168e-10 -1.66768e-10)
(-52.4452 -6.14757 15.9702)
(-2.75281e-08 4.60467e-09 1.45083e-08)
(-5.51102e-10 -6.33061e-11 2.08846e-10)
(-7.99902e-05 1.69656e-05 2.95362e-05)
(-9.32485e-06 -6.61596e-06 -3.60171e-06)
(-0.000150973 4.79247e-06 -2.6352e-05)
(-9.85176e-07 2.47151e-07 -4.89992e-07)
(-1.64601e-05 1.0952e-06 -1.05281e-06)
(-0.000121291 1.69843e-05 -3.85755e-05)
(-0.00012738 -4.35783e-07 4.31657e-05)
(-0.000101453 3.73549e-06 3.7658e-05)
(-1.07248e-05 -3.07102e-07 7.98461e-06)
(-0.272041 -0.0602969 -0.0411406)
(-8.76275e-07 8.12618e-08 1.67711e-07)
(-0.000293224 -9.291e-05 -0.000376748)
(-8.55373e-05 2.60408e-05 -2.67869e-05)
(-1.70336e-05 5.50596e-06 -7.13601e-06)
(-1.66627e-05 4.72014e-06 4.66532e-06)
(-25.3693 -0.00259102 8.18301)
(-8.93664 0.41001 -3.5377)
(-1.04433e-09 1.36227e-10 9.36324e-10)
(-2.89432e-07 1.24397e-07 3.90092e-07)
(-0.00253101 -0.000127033 0.00107283)
(-0.00278185 -0.000371561 -0.000801705)
(-2.50966e-09 -7.74696e-10 9.83478e-11)
(-8.49278e-07 3.40932e-07 -1.73164e-07)
(-7.07132e-07 2.8116e-07 4.96724e-07)
(-5.40409e-07 8.69366e-09 2.02665e-07)
(-7.53061e-07 1.13817e-07 -1.66524e-07)
(-1.27764 0.148189 -0.983375)
(-2.71343e-07 1.0253e-08 7.23577e-08)
(-4.5444e-07 7.36716e-08 2.00869e-07)
(-31.5981 -1.33335 13.9443)
(-36.092 0.910484 -13.7765)
(-2.83492 0.136678 -1.43433)
(-2.90071e-06 1.82866e-07 1.09542e-06)
(-4.11173e-06 4.32462e-07 -1.10066e-06)
(-0.35437 0.00426035 -0.199971)
(-0.00177293 -0.000115864 0.000361831)
(-2.87887e-08 7.64408e-09 -1.86059e-08)
(-0.0121092 -9.53407e-05 0.00659824)
(-0.0127973 -0.000286979 -0.00238596)
(-2.28171e-10 -3.62839e-11 -7.21568e-11)
(-2.32306e-05 1.14531e-06 6.00042e-06)
(-1.31379e-05 -5.45894e-08 4.96781e-06)
(-1.11361e-09 -2.84339e-11 4.62145e-10)
(-0.0850522 0.0219974 -0.0326625)
(-1.92358e-10 6.99922e-11 -8.88275e-11)
(-1.12272e-08 -1.08053e-10 -3.24905e-09)
(-1.83013e-08 -1.56076e-09 -1.81072e-08)
(-8.75432e-11 -1.3022e-13 -3.11477e-11)
(-3.1779e-10 -1.04177e-10 -8.61226e-11)
(-0.00732576 0.00125744 0.00115581)
(-1.17934e-09 3.65682e-10 9.19899e-10)
(-16.4846 -4.06845 8.2612)
(-2.36603e-11 3.78155e-12 9.6794e-12)
(-2.53475e-11 3.63432e-13 -1.08816e-11)
(-1.46772e-10 7.40792e-12 -1.00017e-10)
(-3.54403 -0.705151 1.01653)
(-1.10546 0.113481 0.319947)
(-10.2564 -0.282187 3.58144)
(-9.03089e-12 1.13721e-12 -4.0819e-12)
(-0.00988496 0.000754998 -0.00541014)
(-6.99082e-12 -2.81344e-13 -2.83001e-12)
(-8.48519 -0.118451 6.25256)
(-9.83953 1.96861 -4.33876)
(-0.512291 0.0920637 -0.131054)
(-5.53863e-09 1.2024e-08 -6.87046e-09)
(-2.66401e-11 -2.72658e-13 -1.8698e-12)
(-9.36299 0.852871 -5.02154)
(-1.22691e-10 -3.95739e-11 -6.42075e-11)
(-9.72733e-08 1.15864e-07 1.83201e-07)
(-9.59346 1.4583 -5.83123)
(-9.16794e-10 -5.33979e-10 5.48004e-10)
(-1.0877e-09 -5.70406e-10 -3.71442e-10)
(-7.72243e-12 -2.12248e-12 -2.40947e-12)
(-0.175056 0.0441242 -0.0577493)
(-0.148632 0.0214558 0.0930978)
(-1.20926e-10 -7.49209e-11 5.35898e-11)
(-13.621 1.16742 6.69311)
(-5.99033e-12 -2.30196e-12 -2.09137e-12)
(-1.6414e-10 -8.30499e-11 9.59558e-11)
(-0.471754 0.0888556 -0.112653)
(-0.00173644 0.000231548 -0.000399665)
(-8.75498e-10 9.84108e-11 -4.62838e-11)
(-0.0678363 0.00921669 -0.0273094)
(-0.0668228 0.0194436 0.019583)
(-6.30923e-12 -3.38081e-12 1.07421e-12)
(-17.4299 8.02581 5.31789)
(-0.00187404 0.000108875 0.000515145)
(-0.705014 0.113188 0.409305)
(-2.52923e-11 -1.11065e-11 -1.10632e-11)
(-6.06086e-08 -4.43155e-08 1.92094e-08)
(-0.00114476 0.000134219 0.000386215)
(-7.0895e-08 -5.52552e-08 -3.02246e-08)
(-2.93138e-11 -1.07766e-11 -1.34241e-11)
(-1.58143 0.262553 0.939054)
(-5.71315e-08 -5.96073e-09 1.29876e-08)
(-0.00229838 0.000508718 -0.000445407)
(-8.87547e-08 -5.35712e-09 -3.32136e-08)
(-3.78549 0.993161 -1.71142)
(-2.84734e-11 -1.55055e-11 5.45275e-12)
(-0.00500854 0.00068845 0.000987436)
(-0.00354824 0.000565476 -0.00145964)
(-1.11063e-09 3.45356e-09 -2.13784e-09)
(-1.12731e-08 -4.07879e-09 -4.90425e-09)
(-3.54357e-08 -8.6716e-09 -2.20688e-09)
(-4.20773e-08 -8.14314e-09 -2.89711e-09)
(-0.0018937 -7.76583e-05 6.7415e-05)
(-0.000976575 3.7283e-05 -0.000726984)
(-1.97211e-08 -4.77959e-09 -1.25645e-08)
(-2.01818e-08 1.57037e-09 -1.18475e-08)
(-0.002742 2.67325e-05 7.46605e-05)
(-0.000944069 -0.00032313 -0.000798115)
(-0.000102016 -1.89994e-05 -2.65622e-05)
(-0.000158288 -2.3379e-05 -4.13948e-06)
(-0.000164591 -3.55567e-05 4.51755e-06)
(-0.000111232 -1.15307e-05 -4.46096e-05)
(-0.691078 0.0102439 0.0183072)
(-4.0583e-06 -7.27904e-07 -2.79198e-06)
(-1.07182e-05 -8.33698e-06 2.21744e-06)
(-7.18545e-06 -8.81874e-06 1.08708e-06)
(-3.79768e-06 -1.60909e-06 -1.72919e-06)
(-0.826737 0.00576563 -0.0125366)
(-0.329882 0.0356712 -0.290776)
(-0.457608 -0.0797522 0.0471767)
(-0.326579 -0.029418 0.172372)
(-1.86669e-05 -3.30311e-06 4.68882e-06)
(-1.97347e-05 -3.14741e-06 4.39101e-06)
(-2.664e-05 -4.95187e-06 -2.71979e-06)
(-6.63454e-09 1.01609e-09 1.35608e-10)
(-2.92923e-05 -4.91829e-06 -3.62271e-06)
(-22.1905 -0.362932 -8.28242)
(-0.0427635 0.00878384 0.00445628)
(-0.0271006 0.00665976 -0.00810087)