/*--------------------------------*- C++ -*----------------------------------*\
  =========                 |
  \\      /  F ield         | OpenFOAM: The Open Source CFD Toolbox
   \\    /   O peration     | Website:  https://openfoam.org
    \\  /    A nd           | Version:  6
     \\/     M anipulation  |
\*---------------------------------------------------------------------------*/
FoamFile
{
    version     2.0;
    format      ascii;
    class       volVectorField;
    location    "2.6";
    object      U;
}
// * * * * * * * * * * * * * * * * * * * * * * * * * * * * * * * * * * * * * //

dimensions      [0 1 -1 0 0 0 0];

internalField   nonuniform List<vector> 
5625
(
(0.925891 0.310425 0)
(0.954084 0.279121 0)
(0.988926 0.243951 0)
(1.03057 0.205878 0)
(1.07864 0.166826 0)
(1.13213 0.129532 0)
(1.18956 0.0971168 0)
(1.24923 0.072641 0)
(1.30941 0.0587541 0)
(1.36836 0.0574461 0)
(1.42436 0.0699686 0)
(1.47574 0.096838 0)
(1.52101 0.137751 0)
(1.55894 0.191408 0)
(1.58851 0.255686 0)
(1.6091 0.32827 0)
(1.62036 0.406748 0)
(1.62182 0.487913 0)
(1.61288 0.567753 0)
(1.59356 0.642634 0)
(1.56478 0.709972 0)
(1.52773 0.767572 0)
(1.48336 0.812859 0)
(1.43277 0.84326 0)
(1.37782 0.857318 0)
(1.32107 0.855408 0)
(1.26512 0.839569 0)
(1.21215 0.812788 0)
(1.16374 0.778236 0)
(1.12099 0.738843 0)
(1.08452 0.697174 0)
(1.05437 0.655451 0)
(1.02996 0.615596 0)
(1.01024 0.579191 0)
(0.993941 0.547389 0)
(0.979863 0.520838 0)
(0.96714 0.499652 0)
(0.955319 0.483476 0)
(0.94432 0.471635 0)
(0.934289 0.46329 0)
(0.925436 0.457601 0)
(0.917919 0.453827 0)
(0.911779 0.451378 0)
(0.906947 0.449815 0)
(0.903271 0.448828 0)
(0.900559 0.448211 0)
(0.898611 0.447827 0)
(0.897246 0.447589 0)
(0.896308 0.447441 0)
(0.895675 0.447349 0)
(0.895253 0.447292 0)
(0.894973 0.447257 0)
(0.894788 0.447235 0)
(0.894666 0.447221 0)
(0.894584 0.447212 0)
(0.894528 0.447207 0)
(0.89449 0.447204 0)
(0.894463 0.447202 0)
(0.894444 0.447201 0)
(0.894431 0.447201 0)
(0.894421 0.4472 0)
(0.894415 0.4472 0)
(0.89441 0.4472 0)
(0.894407 0.4472 0)
(0.894404 0.4472 0)
(0.894403 0.4472 0)
(0.894402 0.4472 0)
(0.894401 0.4472 0)
(0.894401 0.4472 0)
(0.8944 0.4472 0)
(0.8944 0.4472 0)
(0.8944 0.4472 0)
(0.8944 0.4472 0)
(0.8944 0.4472 0)
(0.8944 0.4472 0)
(0.921491 0.323014 0)
(0.947973 0.295392 0)
(0.980815 0.264572 0)
(1.02023 0.231266 0)
(1.06605 0.196958 0)
(1.11755 0.163903 0)
(1.17345 0.134852 0)
(1.23209 0.11265 0)
(1.29166 0.0998415 0)
(1.35025 0.0983735 0)
(1.40605 0.109471 0)
(1.45735 0.133644 0)
(1.50265 0.170593 0)
(1.54063 0.219077 0)
(1.57021 0.277194 0)
(1.59074 0.34288 0)
(1.60183 0.413775 0)
(1.60293 0.486719 0)
(1.59363 0.558155 0)
(1.57429 0.6251 0)
(1.54592 0.68529 0)
(1.50958 0.736481 0)
(1.46609 0.776136 0)
(1.41661 0.802024 0)
(1.36309 0.813138 0)
(1.30805 0.810095 0)
(1.25398 0.794852 0)
(1.20287 0.770068 0)
(1.15623 0.738507 0)
(1.11507 0.702734 0)
(1.07995 0.665038 0)
(1.05084 0.627446 0)
(1.02712 0.591736 0)
(1.00774 0.55936 0)
(0.991499 0.531349 0)
(0.977324 0.508236 0)
(0.964475 0.490044 0)
(0.952604 0.476366 0)
(0.941686 0.466517 0)
(0.931869 0.459696 0)
(0.923329 0.455129 0)
(0.916174 0.452156 0)
(0.910398 0.450263 0)
(0.905897 0.449077 0)
(0.9025 0.448343 0)
(0.900011 0.447893 0)
(0.898234 0.447618 0)
(0.896993 0.447451 0)
(0.896143 0.44735 0)
(0.89557 0.447288 0)
(0.895187 0.44725 0)
(0.894933 0.447228 0)
(0.894765 0.447215 0)
(0.894652 0.447208 0)
(0.894576 0.447203 0)
(0.894524 0.447201 0)
(0.894487 0.4472 0)
(0.894462 0.447199 0)
(0.894443 0.447199 0)
(0.89443 0.447199 0)
(0.894421 0.447199 0)
(0.894414 0.447199 0)
(0.89441 0.4472 0)
(0.894406 0.4472 0)
(0.894404 0.4472 0)
(0.894403 0.4472 0)
(0.894402 0.4472 0)
(0.894401 0.4472 0)
(0.894401 0.4472 0)
(0.8944 0.4472 0)
(0.8944 0.4472 0)
(0.8944 0.4472 0)
(0.8944 0.4472 0)
(0.8944 0.4472 0)
(0.8944 0.4472 0)
(0.916559 0.334867 0)
(0.941045 0.310588 0)
(0.971606 0.283715 0)
(1.00839 0.25483 0)
(1.05135 0.225076 0)
(1.09997 0.196255 0)
(1.15321 0.170699 0)
(1.2096 0.150945 0)
(1.26734 0.139343 0)
(1.3245 0.137752 0)
(1.37918 0.147384 0)
(1.42967 0.168786 0)
(1.47437 0.201693 0)
(1.51186 0.244972 0)
(1.54106 0.296962 0)
(1.56135 0.355799 0)
(1.5722 0.419148 0)
(1.57308 0.484022 0)
(1.56384 0.547399 0)
(1.54506 0.606826 0)
(1.51772 0.66017 0)
(1.48265 0.705124 0)
(1.44061 0.739312 0)
(1.3929 0.760931 0)
(1.34156 0.76939 0)
(1.28905 0.765471 0)
(1.23764 0.750992 0)
(1.18917 0.728286 0)
(1.145 0.699733 0)
(1.10607 0.667563 0)
(1.07286 0.633814 0)
(1.04524 0.600331 0)
(1.02258 0.568747 0)
(1.00383 0.540381 0)
(0.987899 0.516127 0)
(0.973846 0.496397 0)
(0.961072 0.481119 0)
(0.949334 0.469839 0)
(0.938655 0.461874 0)
(0.929182 0.456473 0)
(0.921055 0.452936 0)
(0.91433 0.450687 0)
(0.908963 0.44929 0)
(0.90482 0.448438 0)
(0.901718 0.447925 0)
(0.89946 0.44762 0)
(0.897856 0.447439 0)
(0.89674 0.447333 0)
(0.895978 0.447271 0)
(0.895464 0.447235 0)
(0.895121 0.447215 0)
(0.894892 0.447204 0)
(0.89474 0.447198 0)
(0.894637 0.447196 0)
(0.894567 0.447195 0)
(0.894518 0.447195 0)
(0.894484 0.447196 0)
(0.894459 0.447197 0)
(0.894442 0.447197 0)
(0.89443 0.447198 0)
(0.894421 0.447199 0)
(0.894414 0.447199 0)
(0.89441 0.447199 0)
(0.894406 0.447199 0)
(0.894404 0.4472 0)
(0.894403 0.4472 0)
(0.894402 0.4472 0)
(0.894401 0.4472 0)
(0.894401 0.4472 0)
(0.8944 0.4472 0)
(0.8944 0.4472 0)
(0.8944 0.4472 0)
(0.8944 0.4472 0)
(0.8944 0.4472 0)
(0.8944 0.4472 0)
(0.911382 0.345887 0)
(0.933624 0.324629 0)
(0.961661 0.301285 0)
(0.995567 0.276372 0)
(1.03528 0.250804 0)
(1.08043 0.226018 0)
(1.13021 0.203928 0)
(1.18334 0.186699 0)
(1.23816 0.176424 0)
(1.29281 0.17482 0)
(1.34545 0.183086 0)
(1.3943 0.201797 0)
(1.43767 0.230719 0)
(1.47413 0.268876 0)
(1.50266 0.314868 0)
(1.52252 0.366976 0)
(1.53312 0.422926 0)
(1.534 0.480046 0)
(1.52528 0.535838 0)
(1.50761 0.588182 0)
(1.48176 0.634961 0)
(1.44838 0.673887 0)
(1.40829 0.702864 0)
(1.36297 0.72055 0)
(1.31452 0.726707 0)
(1.26523 0.722188 0)
(1.21716 0.708632 0)
(1.17194 0.68805 0)
(1.13082 0.662476 0)
(1.09464 0.633845 0)
(1.06375 0.603969 0)
(1.03797 0.574526 0)
(1.01662 0.547001 0)
(0.99873 0.522569 0)
(0.983303 0.501982 0)
(0.969559 0.485522 0)
(0.957041 0.473023 0)
(0.945603 0.463995 0)
(0.93531 0.457771 0)
(0.926299 0.45366 0)
(0.918668 0.451044 0)
(0.912431 0.449433 0)
(0.907506 0.448467 0)
(0.903738 0.447901 0)
(0.90094 0.447575 0)
(0.898915 0.447391 0)
(0.897483 0.447289 0)
(0.896491 0.447233 0)
(0.895815 0.447204 0)
(0.895359 0.44719 0)
(0.895054 0.447184 0)
(0.89485 0.447182 0)
(0.894714 0.447183 0)
(0.894621 0.447185 0)
(0.894556 0.447188 0)
(0.894512 0.44719 0)
(0.89448 0.447192 0)
(0.894457 0.447194 0)
(0.89444 0.447196 0)
(0.894428 0.447197 0)
(0.89442 0.447198 0)
(0.894414 0.447198 0)
(0.894409 0.447199 0)
(0.894406 0.447199 0)
(0.894404 0.4472 0)
(0.894403 0.4472 0)
(0.894402 0.4472 0)
(0.894401 0.4472 0)
(0.894401 0.4472 0)
(0.8944 0.4472 0)
(0.8944 0.4472 0)
(0.8944 0.4472 0)
(0.8944 0.4472 0)
(0.8944 0.4472 0)
(0.8944 0.4472 0)
(0.906253 0.356022 0)
(0.926046 0.337455 0)
(0.951356 0.317242 0)
(0.982192 0.295837 0)
(1.01846 0.274001 0)
(1.05982 0.252894 0)
(1.10564 0.234064 0)
(1.15481 0.219306 0)
(1.20589 0.210413 0)
(1.25718 0.208936 0)
(1.30691 0.216018 0)
(1.3533 0.232202 0)
(1.39467 0.257309 0)
(1.42964 0.290564 0)
(1.45716 0.330804 0)
(1.47641 0.37641 0)
(1.48674 0.425269 0)
(1.48788 0.475104 0)
(1.48005 0.523831 0)
(1.46382 0.56948 0)
(1.43971 0.609948 0)
(1.40834 0.643112 0)
(1.37066 0.667253 0)
(1.3283 0.681439 0)
(1.28332 0.685678 0)
(1.23783 0.68083 0)
(1.19362 0.668329 0)
(1.15213 0.649878 0)
(1.11448 0.627214 0)
(1.0814 0.602017 0)
(1.05312 0.575904 0)
(1.0294 0.550391 0)
(1.00955 0.526815 0)
(0.992659 0.506197 0)
(0.977886 0.489132 0)
(0.964608 0.475772 0)
(0.952506 0.465868 0)
(0.941521 0.458904 0)
(0.931745 0.454249 0)
(0.923294 0.451278 0)
(0.916228 0.449462 0)
(0.91052 0.448395 0)
(0.906058 0.447791 0)
(0.902675 0.447463 0)
(0.90018 0.447291 0)
(0.898385 0.447207 0)
(0.897122 0.447168 0)
(0.89625 0.447153 0)
(0.895657 0.44715 0)
(0.895257 0.447153 0)
(0.894989 0.447159 0)
(0.894809 0.447165 0)
(0.894687 0.447171 0)
(0.894604 0.447177 0)
(0.894546 0.447182 0)
(0.894505 0.447186 0)
(0.894475 0.447189 0)
(0.894454 0.447192 0)
(0.894438 0.447194 0)
(0.894427 0.447196 0)
(0.894419 0.447197 0)
(0.894413 0.447198 0)
(0.894409 0.447199 0)
(0.894406 0.447199 0)
(0.894404 0.447199 0)
(0.894403 0.4472 0)
(0.894402 0.4472 0)
(0.894401 0.4472 0)
(0.894401 0.4472 0)
(0.8944 0.4472 0)
(0.8944 0.4472 0)
(0.8944 0.4472 0)
(0.8944 0.4472 0)
(0.8944 0.4472 0)
(0.8944 0.4472 0)
(0.901422 0.365285 0)
(0.918656 0.349066 0)
(0.941083 0.331588 0)
(0.968707 0.313241 0)
(1.0014 0.294665 0)
(1.03884 0.276806 0)
(1.08044 0.260911 0)
(1.1253 0.248443 0)
(1.17214 0.240909 0)
(1.21946 0.239668 0)
(1.26563 0.245737 0)
(1.30891 0.259602 0)
(1.34774 0.28117 0)
(1.38078 0.309874 0)
(1.40696 0.344699 0)
(1.42537 0.38414 0)
(1.43544 0.426353 0)
(1.43698 0.469454 0)
(1.43022 0.511611 0)
(1.41551 0.550915 0)
(1.39328 0.585365 0)
(1.36416 0.613143 0)
(1.32931 0.632929 0)
(1.29041 0.644106 0)
(1.24939 0.646825 0)
(1.2081 0.64189 0)
(1.1681 0.630536 0)
(1.13066 0.614195 0)
(1.09674 0.594339 0)
(1.06696 0.572443 0)
(1.04146 0.549952 0)
(1.0199 0.528231 0)
(1.00162 0.508456 0)
(0.985829 0.491479 0)
(0.971822 0.47774 0)
(0.959141 0.467259 0)
(0.947597 0.459721 0)
(0.9372 0.454604 0)
(0.928049 0.45132 0)
(0.920239 0.449327 0)
(0.913789 0.448184 0)
(0.908637 0.447567 0)
(0.904648 0.447259 0)
(0.901648 0.44712 0)
(0.899451 0.44707 0)
(0.89788 0.447063 0)
(0.896779 0.447074 0)
(0.896021 0.447091 0)
(0.895506 0.447108 0)
(0.895159 0.447124 0)
(0.894926 0.447138 0)
(0.894769 0.447151 0)
(0.894661 0.447161 0)
(0.894587 0.44717 0)
(0.894535 0.447177 0)
(0.894498 0.447182 0)
(0.89447 0.447187 0)
(0.894451 0.44719 0)
(0.894436 0.447193 0)
(0.894425 0.447195 0)
(0.894418 0.447197 0)
(0.894412 0.447198 0)
(0.894408 0.447198 0)
(0.894406 0.447199 0)
(0.894404 0.447199 0)
(0.894402 0.4472 0)
(0.894402 0.4472 0)
(0.894401 0.4472 0)
(0.894401 0.4472 0)
(0.8944 0.4472 0)
(0.8944 0.4472 0)
(0.8944 0.4472 0)
(0.8944 0.4472 0)
(0.8944 0.4472 0)
(0.8944 0.4472 0)
(0.897084 0.373744 0)
(0.911739 0.359522 0)
(0.931224 0.344385 0)
(0.955557 0.32866 0)
(0.984604 0.312883 0)
(1.01806 0.297823 0)
(1.05538 0.284484 0)
(1.09577 0.274053 0)
(1.13814 0.267776 0)
(1.18116 0.266796 0)
(1.22334 0.271975 0)
(1.26311 0.283763 0)
(1.29902 0.302152 0)
(1.32977 0.3267 0)
(1.35428 0.3565 0)
(1.37167 0.390224 0)
(1.38142 0.426342 0)
(1.38338 0.463264 0)
(1.37764 0.499293 0)
(1.36441 0.532612 0)
(1.34411 0.561452 0)
(1.31751 0.584349 0)
(1.28586 0.600333 0)
(1.2508 0.609004 0)
(1.21406 0.610571 0)
(1.17721 0.605755 0)
(1.14162 0.595605 0)
(1.10837 0.58132 0)
(1.0783 0.564156 0)
(1.05188 0.545411 0)
(1.02917 0.526384 0)
(1.00978 0.508288 0)
(0.993098 0.492128 0)
(0.978444 0.478578 0)
(0.965285 0.467916 0)
(0.953315 0.46005 0)
(0.942452 0.454612 0)
(0.932754 0.451095 0)
(0.92432 0.448974 0)
(0.917209 0.447791 0)
(0.911406 0.447193 0)
(0.906819 0.446935 0)
(0.9033 0.446857 0)
(0.900675 0.446864 0)
(0.898765 0.446906 0)
(0.897406 0.446956 0)
(0.896458 0.447004 0)
(0.895807 0.447044 0)
(0.895365 0.447076 0)
(0.895067 0.447102 0)
(0.894866 0.447123 0)
(0.894729 0.44714 0)
(0.894636 0.447153 0)
(0.89457 0.447164 0)
(0.894524 0.447173 0)
(0.89449 0.44718 0)
(0.894465 0.447185 0)
(0.894447 0.447189 0)
(0.894434 0.447192 0)
(0.894424 0.447195 0)
(0.894417 0.447196 0)
(0.894411 0.447197 0)
(0.894408 0.447198 0)
(0.894405 0.447199 0)
(0.894403 0.447199 0)
(0.894402 0.4472 0)
(0.894401 0.4472 0)
(0.894401 0.4472 0)
(0.894401 0.4472 0)
(0.8944 0.4472 0)
(0.8944 0.4472 0)
(0.8944 0.4472 0)
(0.8944 0.4472 0)
(0.8944 0.4472 0)
(0.8944 0.4472 0)
(0.893399 0.381495 0)
(0.905534 0.368931 0)
(0.922097 0.355747 0)
(0.94314 0.342226 0)
(0.96854 0.328803 0)
(0.998009 0.316103 0)
(1.03106 0.304934 0)
(1.06699 0.29625 0)
(1.10484 0.291062 0)
(1.14343 0.290305 0)
(1.18144 0.294703 0)
(1.21748 0.304663 0)
(1.25021 0.320219 0)
(1.27841 0.340996 0)
(1.301 0.366206 0)
(1.31721 0.394746 0)
(1.32655 0.425348 0)
(1.32879 0.4566 0)
(1.32391 0.486931 0)
(1.3121 0.514717 0)
(1.29385 0.53849 0)
(1.27002 0.557115 0)
(1.24187 0.569871 0)
(1.21088 0.576505 0)
(1.17856 0.577242 0)
(1.14623 0.57271 0)
(1.11506 0.563786 0)
(1.086 0.551483 0)
(1.05975 0.536887 0)
(1.03664 0.521144 0)
(1.01663 0.505414 0)
(0.999333 0.490751 0)
(0.9842 0.47798 0)
(0.970697 0.467591 0)
(0.958448 0.459712 0)
(0.947285 0.454154 0)
(0.937209 0.450523 0)
(0.9283 0.448347 0)
(0.920644 0.447176 0)
(0.914268 0.446639 0)
(0.909124 0.446465 0)
(0.905098 0.446478 0)
(0.902036 0.446571 0)
(0.899768 0.446685 0)
(0.898129 0.446792 0)
(0.896968 0.446883 0)
(0.896161 0.446955 0)
(0.895609 0.447011 0)
(0.895234 0.447054 0)
(0.894981 0.447087 0)
(0.89481 0.447113 0)
(0.894692 0.447133 0)
(0.894611 0.447148 0)
(0.894554 0.447161 0)
(0.894512 0.44717 0)
(0.894482 0.447178 0)
(0.89446 0.447184 0)
(0.894443 0.447188 0)
(0.894431 0.447192 0)
(0.894422 0.447194 0)
(0.894415 0.447196 0)
(0.894411 0.447197 0)
(0.894407 0.447198 0)
(0.894405 0.447199 0)
(0.894403 0.447199 0)
(0.894402 0.4472 0)
(0.894401 0.4472 0)
(0.894401 0.4472 0)
(0.894401 0.4472 0)
(0.8944 0.4472 0)
(0.8944 0.4472 0)
(0.8944 0.4472 0)
(0.8944 0.4472 0)
(0.8944 0.4472 0)
(0.8944 0.4472 0)
(0.890478 0.388647 0)
(0.900217 0.377442 0)
(0.91395 0.365848 0)
(0.931776 0.354123 0)
(0.953603 0.342634 0)
(0.979168 0.331879 0)
(1.00804 0.3225 0)
(1.03959 0.315258 0)
(1.07297 0.310961 0)
(1.10714 0.310364 0)
(1.14096 0.314063 0)
(1.1732 0.322408 0)
(1.20262 0.335434 0)
(1.22808 0.35282 0)
(1.24862 0.373913 0)
(1.26353 0.397813 0)
(1.27231 0.423436 0)
(1.27466 0.449512 0)
(1.27052 0.474639 0)
(1.26015 0.497458 0)
(1.24409 0.516803 0)
(1.22322 0.531789 0)
(1.19871 0.541869 0)
(1.17186 0.546882 0)
(1.14393 0.547057 0)
(1.11604 0.542932 0)
(1.08918 0.53524 0)
(1.06418 0.524843 0)
(1.04158 0.512691 0)
(1.0216 0.499804 0)
(1.00412 0.487193 0)
(0.988782 0.475742 0)
(0.975126 0.46609 0)
(0.962768 0.458552 0)
(0.95148 0.453119 0)
(0.941205 0.449533 0)
(0.931996 0.447402 0)
(0.923943 0.446307 0)
(0.917104 0.445877 0)
(0.911475 0.445828 0)
(0.906981 0.445967 0)
(0.903498 0.446175 0)
(0.90087 0.446386 0)
(0.898938 0.446571 0)
(0.897549 0.446721 0)
(0.89657 0.446837 0)
(0.895892 0.446925 0)
(0.895429 0.446991 0)
(0.895115 0.44704 0)
(0.894902 0.447077 0)
(0.894757 0.447105 0)
(0.894658 0.447127 0)
(0.894588 0.447145 0)
(0.894538 0.447158 0)
(0.894501 0.447168 0)
(0.894475 0.447177 0)
(0.894455 0.447183 0)
(0.89444 0.447188 0)
(0.894428 0.447191 0)
(0.89442 0.447194 0)
(0.894414 0.447196 0)
(0.89441 0.447197 0)
(0.894407 0.447198 0)
(0.894404 0.447199 0)
(0.894403 0.447199 0)
(0.894402 0.4472 0)
(0.894401 0.4472 0)
(0.894401 0.4472 0)
(0.8944 0.4472 0)
(0.8944 0.4472 0)
(0.8944 0.4472 0)
(0.8944 0.4472 0)
(0.8944 0.4472 0)
(0.8944 0.4472 0)
(0.8944 0.4472 0)
(0.888367 0.395314 0)
(0.895897 0.385215 0)
(0.90697 0.374889 0)
(0.921728 0.364591 0)
(0.940121 0.354636 0)
(0.961929 0.345431 0)
(0.986766 0.337483 0)
(1.01408 0.331386 0)
(1.04312 0.327777 0)
(1.07301 0.327256 0)
(1.10272 0.330302 0)
(1.13117 0.337194 0)
(1.15724 0.347959 0)
(1.17992 0.362336 0)
(1.19836 0.379788 0)
(1.21187 0.399565 0)
(1.21993 0.420718 0)
(1.22227 0.442133 0)
(1.21887 0.462636 0)
(1.21001 0.481134 0)
(1.19624 0.496706 0)
(1.1784 0.508652 0)
(1.15753 0.51655 0)
(1.13471 0.520305 0)
(1.11099 0.520143 0)
(1.08733 0.516524 0)
(1.06456 0.510064 0)
(1.04336 0.501502 0)
(1.02415 0.491679 0)
(1.00704 0.481491 0)
(0.991869 0.4718 0)
(0.97832 0.46331 0)
(0.966055 0.456468 0)
(0.95483 0.451425 0)
(0.944545 0.448065 0)
(0.935221 0.446098 0)
(0.926939 0.445157 0)
(0.919777 0.44489 0)
(0.913767 0.445009 0)
(0.908875 0.445311 0)
(0.905009 0.445664 0)
(0.902038 0.445999 0)
(0.899814 0.446284 0)
(0.89819 0.446511 0)
(0.897028 0.446685 0)
(0.896213 0.446815 0)
(0.895651 0.446911 0)
(0.895267 0.446981 0)
(0.895007 0.447033 0)
(0.89483 0.447072 0)
(0.894709 0.447102 0)
(0.894625 0.447125 0)
(0.894566 0.447143 0)
(0.894523 0.447157 0)
(0.894491 0.447168 0)
(0.894467 0.447176 0)
(0.894449 0.447183 0)
(0.894436 0.447187 0)
(0.894426 0.447191 0)
(0.894418 0.447194 0)
(0.894413 0.447196 0)
(0.894409 0.447197 0)
(0.894406 0.447198 0)
(0.894404 0.447199 0)
(0.894403 0.447199 0)
(0.894402 0.4472 0)
(0.894401 0.4472 0)
(0.894401 0.4472 0)
(0.8944 0.4472 0)
(0.8944 0.4472 0)
(0.8944 0.4472 0)
(0.8944 0.4472 0)
(0.8944 0.4472 0)
(0.8944 0.4472 0)
(0.8944 0.4472 0)
(0.88706 0.401591 0)
(0.89263 0.392409 0)
(0.901268 0.383085 0)
(0.913166 0.37389 0)
(0.928329 0.365114 0)
(0.946586 0.357094 0)
(0.967601 0.350234 0)
(0.990888 0.344997 0)
(1.01581 0.341875 0)
(1.04159 0.341334 0)
(1.06734 0.343742 0)
(1.0921 0.349319 0)
(1.11491 0.358079 0)
(1.13486 0.369803 0)
(1.15118 0.38405 0)
(1.16322 0.400178 0)
(1.17051 0.417373 0)
(1.17282 0.434701 0)
(1.1702 0.451215 0)
(1.16289 0.466046 0)
(1.15143 0.47846 0)
(1.13657 0.4879 0)
(1.11917 0.49405 0)
(1.10014 0.496869 0)
(1.08036 0.496566 0)
(1.06062 0.493534 0)
(1.04162 0.488304 0)
(1.02389 0.481516 0)
(1.00772 0.473911 0)
(0.993158 0.46626 0)
(0.980035 0.45926 0)
(0.968105 0.45343 0)
(0.95715 0.449038 0)
(0.94705 0.446098 0)
(0.9378 0.444424 0)
(0.929469 0.443722 0)
(0.922145 0.443676 0)
(0.915883 0.444006 0)
(0.910687 0.444504 0)
(0.906502 0.445033 0)
(0.903226 0.445518 0)
(0.900729 0.445926 0)
(0.898874 0.446249 0)
(0.897526 0.446495 0)
(0.896568 0.446678 0)
(0.8959 0.446812 0)
(0.895439 0.446909 0)
(0.895125 0.44698 0)
(0.894911 0.447032 0)
(0.894766 0.447071 0)
(0.894666 0.447101 0)
(0.894595 0.447124 0)
(0.894545 0.447143 0)
(0.894508 0.447157 0)
(0.89448 0.447168 0)
(0.89446 0.447176 0)
(0.894444 0.447183 0)
(0.894432 0.447188 0)
(0.894423 0.447191 0)
(0.894416 0.447194 0)
(0.894411 0.447196 0)
(0.894408 0.447197 0)
(0.894405 0.447198 0)
(0.894404 0.447199 0)
(0.894402 0.447199 0)
(0.894402 0.4472 0)
(0.894401 0.4472 0)
(0.894401 0.4472 0)
(0.8944 0.4472 0)
(0.8944 0.4472 0)
(0.8944 0.4472 0)
(0.8944 0.4472 0)
(0.8944 0.4472 0)
(0.8944 0.4472 0)
(0.8944 0.4472 0)
(0.886488 0.407533 0)
(0.89039 0.399156 0)
(0.896873 0.390644 0)
(0.906181 0.382293 0)
(0.918371 0.374387 0)
(0.93333 0.367229 0)
(0.950786 0.361148 0)
(0.970319 0.356505 0)
(0.991383 0.353674 0)
(1.01331 0.353003 0)
(1.03531 0.354779 0)
(1.05658 0.359162 0)
(1.07626 0.366146 0)
(1.09359 0.375539 0)
(1.10784 0.386977 0)
(1.11843 0.39992 0)
(1.12499 0.413687 0)
(1.12733 0.427518 0)
(1.12549 0.440663 0)
(1.11971 0.452435 0)
(1.11047 0.462243 0)
(1.09839 0.469655 0)
(1.0842 0.474445 0)
(1.06864 0.476613 0)
(1.05243 0.476346 0)
(1.03622 0.473981 0)
(1.02059 0.46998 0)
(1.00593 0.464909 0)
(0.99243 0.459403 0)
(0.98008 0.454095 0)
(0.968751 0.449512 0)
(0.958282 0.445992 0)
(0.948566 0.44365 0)
(0.939583 0.442399 0)
(0.931387 0.442023 0)
(0.924068 0.442251 0)
(0.917701 0.442829 0)
(0.912319 0.443554 0)
(0.907902 0.444285 0)
(0.904378 0.444943 0)
(0.901643 0.445493 0)
(0.899575 0.44593 0)
(0.898049 0.446263 0)
(0.896947 0.446511 0)
(0.896167 0.446691 0)
(0.895625 0.446822 0)
(0.895253 0.446916 0)
(0.895 0.446985 0)
(0.894827 0.447035 0)
(0.894709 0.447074 0)
(0.894627 0.447103 0)
(0.894568 0.447126 0)
(0.894526 0.447144 0)
(0.894495 0.447158 0)
(0.894471 0.447168 0)
(0.894453 0.447177 0)
(0.894439 0.447183 0)
(0.894429 0.447188 0)
(0.894421 0.447192 0)
(0.894415 0.447194 0)
(0.89441 0.447196 0)
(0.894407 0.447197 0)
(0.894405 0.447198 0)
(0.894403 0.447199 0)
(0.894402 0.447199 0)
(0.894401 0.4472 0)
(0.894401 0.4472 0)
(0.894401 0.4472 0)
(0.8944 0.4472 0)
(0.8944 0.4472 0)
(0.8944 0.4472 0)
(0.8944 0.4472 0)
(0.8944 0.4472 0)
(0.8944 0.4472 0)
(0.8944 0.4472 0)
(0.886536 0.413151 0)
(0.889087 0.40554 0)
(0.893736 0.39773 0)
(0.900771 0.390042 0)
(0.910297 0.382778 0)
(0.922262 0.376216 0)
(0.936464 0.370644 0)
(0.952556 0.366352 0)
(0.970068 0.363628 0)
(0.988425 0.362733 0)
(1.00697 0.363872 0)
(1.02499 0.367153 0)
(1.04176 0.372556 0)
(1.05661 0.379912 0)
(1.06891 0.388919 0)
(1.07817 0.399128 0)
(1.08407 0.409987 0)
(1.08646 0.420891 0)
(1.08537 0.431245 0)
(1.08102 0.440504 0)
(1.0738 0.448198 0)
(1.06424 0.454007 0)
(1.05292 0.457784 0)
(1.04044 0.459553 0)
(1.02738 0.45948 0)
(1.01428 0.457856 0)
(1.00158 0.455083 0)
(0.989561 0.451654 0)
(0.978336 0.448097 0)
(0.967884 0.444894 0)
(0.958124 0.442402 0)
(0.948985 0.440798 0)
(0.940451 0.440078 0)
(0.932571 0.440102 0)
(0.925428 0.440655 0)
(0.91911 0.441513 0)
(0.913672 0.442484 0)
(0.909125 0.443434 0)
(0.905431 0.444282 0)
(0.90251 0.444992 0)
(0.900262 0.445556 0)
(0.898575 0.445989 0)
(0.897337 0.446313 0)
(0.896449 0.446549 0)
(0.895824 0.44672 0)
(0.895391 0.446842 0)
(0.895094 0.44693 0)
(0.894892 0.446995 0)
(0.894754 0.447042 0)
(0.894659 0.447079 0)
(0.894592 0.447107 0)
(0.894544 0.447129 0)
(0.894509 0.447146 0)
(0.894482 0.447159 0)
(0.894462 0.44717 0)
(0.894446 0.447178 0)
(0.894434 0.447184 0)
(0.894425 0.447188 0)
(0.894418 0.447192 0)
(0.894413 0.447194 0)
(0.894409 0.447196 0)
(0.894406 0.447198 0)
(0.894404 0.447198 0)
(0.894403 0.447199 0)
(0.894402 0.447199 0)
(0.894401 0.4472 0)
(0.894401 0.4472 0)
(0.8944 0.4472 0)
(0.8944 0.4472 0)
(0.8944 0.4472 0)
(0.8944 0.4472 0)
(0.8944 0.4472 0)
(0.8944 0.4472 0)
(0.8944 0.4472 0)
(0.8944 0.4472 0)
(0.887033 0.418401 0)
(0.888564 0.41157 0)
(0.891733 0.404438 0)
(0.896842 0.397329 0)
(0.904055 0.390558 0)
(0.913376 0.384407 0)
(0.924666 0.379141 0)
(0.937656 0.375006 0)
(0.951956 0.372233 0)
(0.967083 0.371018 0)
(0.982477 0.37151 0)
(0.997536 0.373771 0)
(1.01165 0.37777 0)
(1.02423 0.383364 0)
(1.03475 0.390293 0)
(1.04281 0.398193 0)
(1.04812 0.406622 0)
(1.05055 0.415108 0)
(1.05013 0.423184 0)
(1.04704 0.430415 0)
(1.04161 0.436445 0)
(1.03425 0.44104 0)
(1.02542 0.444112 0)
(1.0156 0.445698 0)
(1.00525 0.445951 0)
(0.994801 0.445124 0)
(0.984577 0.443561 0)
(0.974769 0.44167 0)
(0.965451 0.439857 0)
(0.956618 0.438458 0)
(0.948245 0.437675 0)
(0.940335 0.437561 0)
(0.932936 0.438039 0)
(0.926132 0.438948 0)
(0.920015 0.440103 0)
(0.914659 0.441333 0)
(0.910098 0.442511 0)
(0.906322 0.443556 0)
(0.903282 0.444432 0)
(0.900899 0.445135 0)
(0.899078 0.445679 0)
(0.897721 0.446087 0)
(0.896732 0.446387 0)
(0.896027 0.446603 0)
(0.895533 0.446758 0)
(0.895191 0.446869 0)
(0.894958 0.446949 0)
(0.894799 0.447008 0)
(0.894691 0.447052 0)
(0.894615 0.447086 0)
(0.894562 0.447112 0)
(0.894523 0.447132 0)
(0.894493 0.447149 0)
(0.894471 0.447161 0)
(0.894454 0.447171 0)
(0.89444 0.447179 0)
(0.89443 0.447185 0)
(0.894422 0.447189 0)
(0.894416 0.447192 0)
(0.894411 0.447195 0)
(0.894408 0.447196 0)
(0.894405 0.447198 0)
(0.894404 0.447198 0)
(0.894402 0.447199 0)
(0.894402 0.447199 0)
(0.894401 0.4472 0)
(0.894401 0.4472 0)
(0.8944 0.4472 0)
(0.8944 0.4472 0)
(0.8944 0.4472 0)
(0.8944 0.4472 0)
(0.8944 0.4472 0)
(0.8944 0.4472 0)
(0.8944 0.4472 0)
(0.8944 0.4472 0)
(0.887811 0.42323 0)
(0.888626 0.4172 0)
(0.890667 0.410776 0)
(0.894227 0.404247 0)
(0.899506 0.39792 0)
(0.906559 0.392086 0)
(0.915308 0.387003 0)
(0.925559 0.382901 0)
(0.937011 0.379973 0)
(0.949263 0.378374 0)
(0.961847 0.378212 0)
(0.974258 0.37953 0)
(0.98598 0.382289 0)
(0.996524 0.386363 0)
(1.00545 0.391535 0)
(1.01242 0.39751 0)
(1.01718 0.403942 0)
(1.01963 0.410463 0)
(1.01977 0.416708 0)
(1.01776 0.42234 0)
(1.01384 0.427099 0)
(1.00834 0.430822 0)
(1.0016 0.433453 0)
(0.994014 0.435038 0)
(0.985937 0.435713 0)
(0.977688 0.435698 0)
(0.969501 0.435277 0)
(0.961512 0.434758 0)
(0.953782 0.434426 0)
(0.946335 0.434476 0)
(0.939201 0.434991 0)
(0.932434 0.435942 0)
(0.926119 0.437217 0)
(0.920349 0.438668 0)
(0.915207 0.440151 0)
(0.910749 0.441551 0)
(0.90699 0.442792 0)
(0.903907 0.443836 0)
(0.901446 0.44468 0)
(0.899532 0.445338 0)
(0.89808 0.445837 0)
(0.897005 0.446205 0)
(0.896226 0.446473 0)
(0.895675 0.446665 0)
(0.89529 0.446802 0)
(0.895025 0.4469 0)
(0.894845 0.446971 0)
(0.894721 0.447024 0)
(0.894637 0.447064 0)
(0.894578 0.447095 0)
(0.894535 0.447119 0)
(0.894504 0.447138 0)
(0.894479 0.447152 0)
(0.894461 0.447164 0)
(0.894446 0.447173 0)
(0.894435 0.44718 0)
(0.894426 0.447186 0)
(0.894419 0.44719 0)
(0.894414 0.447193 0)
(0.89441 0.447195 0)
(0.894407 0.447197 0)
(0.894405 0.447198 0)
(0.894403 0.447199 0)
(0.894402 0.447199 0)
(0.894401 0.447199 0)
(0.894401 0.4472 0)
(0.894401 0.4472 0)
(0.8944 0.4472 0)
(0.8944 0.4472 0)
(0.8944 0.4472 0)
(0.8944 0.4472 0)
(0.8944 0.4472 0)
(0.8944 0.4472 0)
(0.8944 0.4472 0)
(0.8944 0.4472 0)
(0.888725 0.427568 0)
(0.88907 0.42236 0)
(0.890308 0.416685 0)
(0.892694 0.41079 0)
(0.89642 0.404945 0)
(0.901593 0.399427 0)
(0.908198 0.394497 0)
(0.916101 0.390375 0)
(0.925077 0.387247 0)
(0.934812 0.38525 0)
(0.944927 0.384468 0)
(0.955005 0.384931 0)
(0.96462 0.386602 0)
(0.973362 0.389374 0)
(0.980872 0.393072 0)
(0.986854 0.397465 0)
(0.991101 0.402283 0)
(0.993508 0.407238 0)
(0.994087 0.412043 0)
(0.992942 0.416448 0)
(0.990255 0.420266 0)
(0.986261 0.423389 0)
(0.981237 0.425788 0)
(0.975473 0.427505 0)
(0.969244 0.428651 0)
(0.962778 0.429406 0)
(0.956241 0.429987 0)
(0.94974 0.430605 0)
(0.94334 0.431428 0)
(0.937098 0.432542 0)
(0.931082 0.433945 0)
(0.925377 0.435567 0)
(0.920077 0.437295 0)
(0.915273 0.439009 0)
(0.911031 0.44061 0)
(0.907387 0.442029 0)
(0.904342 0.443231 0)
(0.901866 0.444211 0)
(0.899905 0.444982 0)
(0.898391 0.445572 0)
(0.897251 0.446012 0)
(0.896413 0.446333 0)
(0.89581 0.446565 0)
(0.895385 0.44673 0)
(0.89509 0.446848 0)
(0.894888 0.446933 0)
(0.894751 0.446995 0)
(0.894657 0.447041 0)
(0.894591 0.447076 0)
(0.894545 0.447104 0)
(0.894512 0.447125 0)
(0.894487 0.447143 0)
(0.894467 0.447156 0)
(0.894451 0.447167 0)
(0.894439 0.447175 0)
(0.894429 0.447182 0)
(0.894422 0.447187 0)
(0.894416 0.447191 0)
(0.894412 0.447194 0)
(0.894408 0.447196 0)
(0.894406 0.447197 0)
(0.894404 0.447198 0)
(0.894403 0.447199 0)
(0.894402 0.447199 0)
(0.894401 0.447199 0)
(0.894401 0.4472 0)
(0.8944 0.4472 0)
(0.8944 0.4472 0)
(0.8944 0.4472 0)
(0.8944 0.4472 0)
(0.8944 0.4472 0)
(0.8944 0.4472 0)
(0.8944 0.4472 0)
(0.8944 0.4472 0)
(0.8944 0.4472 0)
(0.889661 0.431371 0)
(0.889722 0.426974 0)
(0.890416 0.422083 0)
(0.891952 0.416877 0)
(0.894505 0.411586 0)
(0.898192 0.406457 0)
(0.903045 0.401734 0)
(0.908993 0.397638 0)
(0.915877 0.394346 0)
(0.92346 0.391991 0)
(0.931448 0.39066 0)
(0.939507 0.390381 0)
(0.947285 0.391126 0)
(0.954448 0.392809 0)
(0.960696 0.395293 0)
(0.965783 0.398402 0)
(0.969533 0.401928 0)
(0.97185 0.405647 0)
(0.972731 0.40934 0)
(0.97224 0.41283 0)
(0.970508 0.415981 0)
(0.967703 0.418717 0)
(0.964032 0.42102 0)
(0.959711 0.422928 0)
(0.95494 0.424524 0)
(0.949886 0.425939 0)
(0.944674 0.427316 0)
(0.939395 0.428779 0)
(0.934127 0.430401 0)
(0.928947 0.432195 0)
(0.923944 0.434113 0)
(0.919213 0.436072 0)
(0.914845 0.437978 0)
(0.910918 0.439744 0)
(0.907481 0.441313 0)
(0.904555 0.44265 0)
(0.90213 0.44375 0)
(0.900173 0.444625 0)
(0.898635 0.445302 0)
(0.897457 0.445812 0)
(0.896575 0.446189 0)
(0.895932 0.446461 0)
(0.895472 0.446656 0)
(0.89515 0.446795 0)
(0.894928 0.446894 0)
(0.894776 0.446966 0)
(0.894673 0.447018 0)
(0.894603 0.447058 0)
(0.894554 0.447089 0)
(0.894518 0.447113 0)
(0.894492 0.447133 0)
(0.894472 0.447148 0)
(0.894456 0.44716 0)
(0.894443 0.44717 0)
(0.894433 0.447178 0)
(0.894425 0.447184 0)
(0.894419 0.447188 0)
(0.894414 0.447192 0)
(0.89441 0.447194 0)
(0.894407 0.447196 0)
(0.894405 0.447197 0)
(0.894403 0.447198 0)
(0.894402 0.447199 0)
(0.894402 0.447199 0)
(0.894401 0.4472 0)
(0.894401 0.4472 0)
(0.8944 0.4472 0)
(0.8944 0.4472 0)
(0.8944 0.4472 0)
(0.8944 0.4472 0)
(0.8944 0.4472 0)
(0.8944 0.4472 0)
(0.8944 0.4472 0)
(0.8944 0.4472 0)
(0.8944 0.4472 0)
(0.890541 0.434624 0)
(0.890454 0.430996 0)
(0.890797 0.42688 0)
(0.891746 0.422403 0)
(0.893449 0.417742 0)
(0.896016 0.413099 0)
(0.899498 0.40869 0)
(0.903874 0.404721 0)
(0.909042 0.401374 0)
(0.914833 0.398776 0)
(0.921026 0.397016 0)
(0.927361 0.396135 0)
(0.933562 0.396126 0)
(0.939354 0.39693 0)
(0.944488 0.398446 0)
(0.948764 0.400536 0)
(0.952031 0.403045 0)
(0.954202 0.405807 0)
(0.955253 0.408661 0)
(0.955221 0.411475 0)
(0.95419 0.414153 0)
(0.952284 0.416635 0)
(0.949649 0.418905 0)
(0.946435 0.420985 0)
(0.942794 0.422937 0)
(0.938847 0.424837 0)
(0.934696 0.42676 0)
(0.930429 0.428756 0)
(0.926131 0.430836 0)
(0.921888 0.432969 0)
(0.917796 0.435092 0)
(0.913945 0.43713 0)
(0.910414 0.439014 0)
(0.907262 0.440692 0)
(0.904525 0.442133 0)
(0.902214 0.443329 0)
(0.900314 0.444291 0)
(0.898792 0.445045 0)
(0.897605 0.445619 0)
(0.896702 0.446046 0)
(0.896032 0.446358 0)
(0.895546 0.446582 0)
(0.895201 0.446742 0)
(0.894962 0.446856 0)
(0.894798 0.446938 0)
(0.894687 0.446998 0)
(0.894611 0.447042 0)
(0.894559 0.447075 0)
(0.894522 0.447102 0)
(0.894495 0.447123 0)
(0.894475 0.44714 0)
(0.894459 0.447153 0)
(0.894446 0.447164 0)
(0.894436 0.447173 0)
(0.894428 0.44718 0)
(0.894421 0.447186 0)
(0.894416 0.44719 0)
(0.894412 0.447193 0)
(0.894408 0.447195 0)
(0.894406 0.447196 0)
(0.894404 0.447198 0)
(0.894403 0.447198 0)
(0.894402 0.447199 0)
(0.894401 0.447199 0)
(0.894401 0.4472 0)
(0.894401 0.4472 0)
(0.8944 0.4472 0)
(0.8944 0.4472 0)
(0.8944 0.4472 0)
(0.8944 0.4472 0)
(0.8944 0.4472 0)
(0.8944 0.4472 0)
(0.8944 0.4472 0)
(0.8944 0.4472 0)
(0.8944 0.4472 0)
(0.891314 0.437352 0)
(0.891166 0.434412 0)
(0.891311 0.431034 0)
(0.891875 0.427284 0)
(0.892987 0.423289 0)
(0.894738 0.419215 0)
(0.897188 0.415237 0)
(0.900343 0.411531 0)
(0.904149 0.408264 0)
(0.908492 0.405574 0)
(0.913209 0.403551 0)
(0.918106 0.402249 0)
(0.922969 0.401681 0)
(0.927582 0.401815 0)
(0.931746 0.402585 0)
(0.935287 0.403893 0)
(0.938083 0.405626 0)
(0.940049 0.407659 0)
(0.941155 0.409879 0)
(0.941411 0.412187 0)
(0.940867 0.414509 0)
(0.939608 0.416797 0)
(0.937738 0.41903 0)
(0.935365 0.421212 0)
(0.932594 0.423372 0)
(0.929518 0.425544 0)
(0.926226 0.42775 0)
(0.922803 0.429988 0)
(0.919336 0.432233 0)
(0.915913 0.434435 0)
(0.912621 0.436536 0)
(0.90954 0.438476 0)
(0.906734 0.440211 0)
(0.904251 0.441714 0)
(0.902111 0.442974 0)
(0.900316 0.444 0)
(0.898851 0.444813 0)
(0.897686 0.44544 0)
(0.896785 0.445913 0)