/*--------------------------------*- C++ -*----------------------------------*\
  =========                 |
  \\      /  F ield         | OpenFOAM: The Open Source CFD Toolbox
   \\    /   O peration     | Website:  https://openfoam.org
    \\  /    A nd           | Version:  6
     \\/     M anipulation  |
\*---------------------------------------------------------------------------*/
FoamFile
{
    version     2.0;
    format      ascii;
    class       volScalarField;
    location    "2.08";
    object      p;
}
// * * * * * * * * * * * * * * * * * * * * * * * * * * * * * * * * * * * * * //

dimensions      [0 2 -2 0 0 0 0];

internalField   nonuniform List<scalar> 
4214
(
-2.47234
-2.20408
-1.56403
-0.996367
-0.714033
-0.601901
-0.532225
-0.478874
-0.434342
-0.388391
-0.329946
-0.253202
-0.147837
-0.00905202
0.166237
0.361574
0.557482
0.918937
1.52046
1.67263
1.01528
0.145819
-0.69607
-1.3299
-1.41924
-1.37094
-1.32898
-1.07175
-0.872476
-0.716279
-0.60816
-0.536683
-0.490329
-0.464405
-0.465074
-0.483173
-0.540909
-0.768956
-1.36298
-2.10221
-2.2326
-1.35993
-1.7133
-1.7377
-1.43557
-1.24764
-1.1901
-1.15677
-1.11688
-1.06923
-1.00744
-0.921549
-0.798434
-0.633534
-0.417619
-0.135416
0.241262
0.780405
1.56243
2.24941
2.00423
0.551271
-1.22637
-2.8432
-3.89129
-3.90801
-3.27281
-2.69804
-2.03545
-1.56342
-1.23846
-1.01819
-0.87555
-0.781102
-0.72655
-0.713221
-0.715742
-0.749405
-0.935234
-1.34621
-1.2272
-0.523834
-2.40103
-2.47086
-2.55559
-2.35186
-2.16721
-2.06536
-1.99713
-1.92789
-1.8469
-1.7447
-1.5985
-1.39756
-1.13257
-0.78461
-0.329758
0.26107
1.03865
2.03947
2.94609
2.67545
0.813844
-1.78829
-4.39097
-6.18177
-6.59408
-6.0214
-5.07544
-3.90633
-3.05468
-2.44408
-2.01982
-1.73111
-1.54256
-1.43147
-1.38153
-1.3711
-1.42021
-1.6026
-1.8367
-1.734
-1.56688
-3.20598
-3.1214
-3.25766
-3.11289
-2.95114
-2.85634
-2.79198
-2.72214
-2.63303
-2.50816
-2.32496
-2.07527
-1.74356
-1.30629
-0.734978
0.00500793
0.958129
2.1182
3.15859
2.92903
0.762203
-2.56909
-6.05985
-8.60165
-9.46832
-8.76091
-7.31936
-5.7922
-4.50778
-3.5958
-2.95695
-2.52624
-2.23444
-2.05861
-1.9644
-1.92571
-1.96788
-2.11775
-2.25702
-2.17224
-2.2829
-3.99884
-3.90118
-4.04653
-3.93255
-3.79439
-3.70855
-3.64646
-3.57609
-3.48341
-3.34065
-3.13318
-2.84861
-2.46652
-1.95984
-1.29761
-0.445675
0.632385
1.91313
3.08264
3.07602
0.775732
-3.20886
-7.55707
-10.9366
-12.3552
-11.6478
-9.88167
-8.03771
-6.17097
-4.88153
-3.99792
-3.4005
-3.00135
-2.74759
-2.60373
-2.53496
-2.56242
-2.6673
-2.75329
-2.74991
-2.92061
-4.74384
-4.6597
-4.85583
-4.76473
-4.64772
-4.58151
-4.53647
-4.47992
-4.39543
-4.2522
-4.0402
-3.74283
-3.33604
-2.79025
-2.07292
-1.14998
0.00984112
1.37785
2.64281
2.86742
0.66909
-3.78525
-8.85312
-13.0258
-15.0967
-14.782
-12.6738
-10.3418
-7.94664
-6.21808
-5.06899
-4.29133
-3.77065
-3.44158
-3.23843
-3.13058
-3.13709
-3.20329
-3.26157
-3.28253
-3.47788
-5.50095
-5.45474
-5.70147
-5.64175
-5.54729
-5.50501
-5.48552
-5.45282
-5.38815
-5.26198
-5.06461
-4.77699
-4.37209
-3.81765
-3.07953
-2.12304
-0.919475
0.502038
1.84624
2.26356
0.363797
-4.25711
-9.80447
-14.7232
-17.5697
-17.7713
-15.5614
-12.5917
-9.8243
-7.6152
-6.16645
-5.20405
-4.55258
-4.13846
-3.88172
-3.72854
-3.70716
-3.74482
-3.78723
-3.81229
-4.00197
-6.30536
-6.29037
-6.57088
-6.55559
-6.49286
-6.48156
-6.50109
-6.49991
-6.47099
-6.38312
-6.22206
-5.96879
-5.5956
-5.0672
-4.34665
-3.39718
-2.19053
-0.753968
0.645147
1.22066
-0.256184
-4.68899
-10.3108
-15.8527
-19.5148
-20.3391
-18.3218
-14.7415
-11.7765
-9.07044
-7.26059
-6.11454
-5.33058
-4.82601
-4.5089
-4.32178
-4.25883
-4.27735
-4.30586
-4.32947
-4.51555
-7.14064
-7.1735
-7.4654
-7.52239
-7.48875
-7.52414
-7.59223
-7.63744
-7.65388
-7.62662
-7.52939
-7.33639
-7.02446
-6.55907
-5.89851
-5.00173
-3.84042
-2.43782
-1.02903
-0.335058
-1.39118
-5.25799
-10.678
-16.3627
-20.5941
-22.199
-20.6615
-16.9421
-13.6629
-10.5708
-8.33593
-7.00152
-6.08921
-5.49457
-5.11643
-4.89353
-4.79777
-4.79639
-4.80894
-4.83501
-5.01199
-8.01045
-8.08652
-8.40566
-8.52338
-8.55042
-8.63578
-8.75951
-8.86633
-8.94314
-8.99171
-8.99937
-8.90229
-8.68364
-8.31886
-7.76304
-6.97257
-5.91757
-4.61337
-3.26266
-2.48013
-3.18546
-6.07974
-11.1289
-16.4701
-20.8455
-23.0968
-22.3239
-18.9414
-15.1459
-12.0062
-9.35261
-7.82506
-6.79635
-6.12185
-5.69101
-5.43537
-5.31793
-5.29008
-5.28868
-5.32209
-5.49305
-8.9115
-9.02102
-9.38743
-9.57665
-9.67232
-9.81869
-10.0118
-10.1996
-10.3643
-10.5013
-10.6084
-10.6541
-10.5943
-10.3825
-9.9843
-9.36431
-8.49686
-7.37171
-6.15234
-5.33103
-5.76554
-7.58488
-11.6318
-16.1132
-20.1828
-22.929
-23.0565
-20.3892
-16.254
-13.1248
-10.2178
-8.52927
-7.41707
-6.68608
-6.21866
-5.93965
-5.80306
-5.75619
-5.74434
-5.78843
-5.96043
-9.86449
-9.99345
-10.4111
-10.6834
-10.8599
-11.0805
-11.3562
-11.6408
-11.9146
-12.1716
-12.4038
-12.5922
-12.716
-12.7306
-12.5913
-12.2293
-11.6673
-10.823
-9.8375
-9.02466
-9.15925
-10.0479
-12.403
-15.4305
-18.8345
-21.6603
-22.6487
-20.9715
-17.2357
-13.7648
-10.8662
-9.09972
-7.93723
-7.17134
-6.68283
-6.39195
-6.24376
-6.18767
-6.1747
-6.23532
-6.40657
-10.9006
-11.0266
-11.4747
-11.8406
-12.1169
-12.4263
-12.7973
-13.1933
-13.5972
-13.9982
-14.3991
-14.7598
-15.0956
-15.3411
-15.5288
-15.5229
-15.4079
-14.996
-14.3518
-13.6264
-13.3636
-13.3287
-13.8596
-14.8578
-17.074
-19.5556
-21.1598
-20.4716
-17.6166
-13.9683
-11.4596
-9.56257
-8.31916
-7.53623
-7.05085
-6.76916
-6.62818
-6.581
-6.57888
-6.66005
-6.83008
-12.0026
-12.1367
-12.5862
-13.0407
-13.4367
-13.8523
-14.3335
-14.8541
-15.4123
-15.9801
-16.5853
-17.1595
-17.7758
-18.2864
-18.8579
-19.2179
-19.6453
-19.7636
-19.5612
-19.1241
-18.4974
-17.2694
-15.7602
-14.7702
-15.2009
-16.9436
-18.8536
-18.8041
-17.0084
-13.7718
-11.4666
-9.56419
-8.4406
-7.72502
-7.29401
-7.05368
-6.94882
-6.92947
-6.96358
-7.06678
-7.23869
-13.1102
-13.3249
-13.7709
-14.2812
-14.8056
-15.3426
-15.9599
-16.6109
-17.3519
-18.0984
-18.9435
-19.7669
-20.7572
-21.6094
-22.759
-23.5162
-24.7126
-25.2134
-25.6621
-25.3554
-24.1594
-21.7131
-18.2448
-15.127
-13.3932
-14.0415
-15.8204
-16.1906
-15.3927
-12.9769
-11.052
-9.33671
-8.37845
-7.78267
-7.43804
-7.2568
-7.20186
-7.22544
-7.31159
-7.44654
-7.63364
-14.1017
-14.5243
-15.0324
-15.5767
-16.2496
-16.9027
-17.7024
-18.4603
-19.4092
-20.3245
-21.4302
-22.5426
-23.9708
-25.2817
-27.4472
-28.5843
-31.0387
-31.5799
-32.7413
-31.827
-30.1601
-26.5366
-21.2041
-15.9461
-11.66
-10.9613
-12.2514
-12.692
-13.6304
-11.8503
-10.7629
-9.10162
-8.20873
-7.71364
-7.42262
-7.36873
-7.38816
-7.5014
-7.65412
-7.84152
-8.06258
-15.2074
-15.7519
-16.4495
-16.9578
-17.8809
-18.5407
-19.6445
-20.3973
-21.6595
-22.6534
-24.1079
-25.4175
-27.3951
-29.0883
-32.3868
-33.6602
-37.5377
-37.8802
-39.7712
-38.4408
-36.2762
-31.4919
-23.8572
-16.3107
-9.48862
-7.49189
-8.44015
-8.66823
-11.5909
-10.4824
-10.1854
-8.57196
-7.63391
-7.31343
-7.07285
-7.33872
-7.48795
-7.78893
-7.98962
-8.3085
-8.53955
-8.89745
-8.33234
-7.87358
-7.46594
-7.06524
-6.67017
-6.26925
-5.86176
-5.44535
-5.0145
-4.57201
-4.13771
-3.66007
-3.26164
-2.78085
-2.65322
-2.85487
-9.18349
-8.66293
-8.2071
-7.80953
-7.42425
-7.05046
-6.67447
-6.29664
-5.9123
-5.51115
-5.11287
-4.70467
-4.26631
-3.8958
-3.41596
-3.18803
-2.8907
-9.57475
-8.99581
-8.52703
-8.13233
-7.75804
-7.40118
-7.04881
-6.70099
-6.34641
-5.98434
-5.62843
-5.24541
-4.86938
-4.52612
-4.07969
-3.87625
-3.38429
-9.86204
-9.33755
-8.87076
-8.4831
-8.12112
-7.77908
-7.44736
-7.12243
-6.79227
-6.46463
-6.1347
-5.78073
-5.45132
-5.10322
-4.69645
-4.48841
-3.98472
-10.2025
-9.66964
-9.20637
-8.82945
-8.482
-8.1569
-7.84654
-7.54271
-7.23848
-6.94175
-6.63696
-6.32288
-6.03053
-5.69983
-5.36515
-5.13455
-4.62486
-10.4542
-9.98469
-9.54019
-9.17485
-8.84323
-8.53653
-8.2464
-7.96288
-7.68472
-7.41373
-7.13219
-6.85288
-6.58799
-6.28078
-5.98884
-5.75828
-5.31098
-10.7292
-10.2903
-9.87182
-9.51415
-9.19657
-8.90839
-8.6385
-8.37738
-8.1259
-7.87884
-7.62328
-7.37726
-7.13375
-6.85759
-6.62153
-6.38672
-5.99258
-10.9092
-10.5483
-10.1799
-9.84114
-9.53691
-9.26643
-9.01634
-8.7782
-8.55198
-8.32873
-8.10318
-7.88973
-7.66692
-7.42527
-7.22531
-7.00199
-6.66475
-10.9398
-10.6977
-10.4121
-10.1314
-9.855
-9.6021
-9.37121
-9.15577
-8.95379
-8.75548
-8.56119
-8.37851
-8.18192
-7.98055
-7.81543
-7.60485
-7.3288
-10.9145
-10.72
-10.5208
-10.3221
-10.1135
-9.9004
-9.68938
-9.49831
-9.32137
-9.14792
-8.98279
-8.8276
-8.65994
-8.50002
-8.36864
-8.18385
-7.97793
-10.794
-10.6627
-10.5109
-10.3698
-10.2338
-10.0932
-9.94382
-9.79032
-9.63396
-9.48534
-9.35254
-9.22633
-9.0887
-8.96736
-8.8635
-8.71127
-8.57252
-10.6673
-10.5393
-10.4232
-10.3156
-10.2166
-10.1234
-10.0342
-9.94304
-9.84605
-9.74432
-9.64128
-9.53488
-9.42812
-9.34808
-9.27055
-9.15628
-9.07985
-10.4467
-10.3634
-10.2753
-10.1929
-10.1191
-10.0523
-9.99267
-9.93689
-9.88345
-9.83294
-9.7818
-9.72482
-9.66472
-9.61643
-9.55357
-9.48208
-9.46108
-10.2539
-10.1559
-10.0825
-10.0194
-9.96717
-9.92293
-9.88552
-9.85314
-9.82446
-9.79916
-9.77675
-9.75627
-9.74098
-9.72656
-9.70072
-9.67757
-9.67943
-9.90847
-9.86232
-9.8187
-9.77711
-9.74411
-9.71916
-9.70248
-9.6927
-9.6869
-9.68371
-9.68349
-9.68356
-9.68503
-9.69783
-9.69546
-9.7119
-9.74012
-9.62421
-9.5407
-9.49213
-9.45295
-9.42529
-9.40695
-9.39794
-9.39708
-9.39988
-9.40764
-9.4221
-9.43219
-9.45318
-9.49192
-9.49227
-9.551
-9.59839
-9.12566
-9.09041
-9.05932
-9.0263
-9.00052
-8.98134
-8.96919
-8.96366
-8.9639
-8.96953
-8.9874
-9.0049
-9.03668
-9.07788
-9.07416
-9.16767
-9.19931
-8.70442
-8.61332
-8.55937
-8.51127
-8.4734
-8.44281
-8.41883
-8.40099
-8.38938
-8.38418
-8.38432
-8.38841
-8.41487
-8.45103
-8.44105
-8.54038
-8.52348
-7.99082
-7.94814
-7.90219
-7.84866
-7.80065
-7.75727
-7.71917
-7.6864
-7.65912
-7.63724
-7.62086
-7.61036
-7.60624
-7.60801
-7.58695
-7.67301
-7.62798
-7.39627
-7.24588
-7.15138
-7.06308
-6.98894
-6.92208
-6.86273
-6.80955
-6.76197
-6.7199
-6.68331
-6.65233
-6.62479
-6.60981
-6.57456
-6.6234
-6.53609
-6.4517
-6.36477
-6.27846
-6.1728
-6.07386
-5.97875
-5.88915
-5.80518
-5.72683
-5.65411
-5.58723
-5.52715
-5.46716
-5.42641
-5.34588
-5.35473
-5.203
-5.80709
-5.56333
-5.40011
-5.24192
-5.09953
-4.96415
-4.83528
-4.71145
-4.59167
-4.47548
-4.36242
-4.25377
-4.14226
-4.05639
-3.92228
-3.91377
-3.69931
-4.74849
-4.5783
-4.41428
-4.22836
-4.04698
-3.86663
-3.69031
-3.51696
-3.34634
-3.1824
-3.02462
-2.8758
-2.72355
-2.60474
-2.41569
-2.38225
-2.10842
-4.02119
-3.66453
-3.40582
-3.15398
-2.91689
-2.68261
-2.45722
-2.24067
-2.0343
-1.83835
-1.64907
-1.46833
-1.28584
-1.12856
-0.908506
-0.846028
-0.508678
-2.83416
-2.57673
-2.31407
-2.01283
-1.73011
-1.45353
-1.19284
-0.946958
-0.71371
-0.490337
-0.273216
-0.0650799
0.145066
0.334704
0.577544
0.668167
1.06078
-2.02532
-1.54237
-1.19125
-0.842673
-0.524494
-0.217168
0.068277
0.336611
0.592425
0.838201
1.07684
1.30622
1.53877
1.75295
2.0123
2.13071
2.56601
-0.744772
-0.409747
-0.0587734
0.327389
0.67594
1.00362
1.3052
1.58978
1.86194
2.12356
2.37749
2.62322
2.87166
3.09951
3.36724
3.5142
3.97965
0.0901807
0.680955
1.08721
1.48969
1.85113
2.18883
2.49992
2.79405
3.07506
3.34518
3.60747
3.86238
4.11788
4.35662
4.63094
4.8022
5.27748
1.38848
1.79003
2.19659
2.61744
2.98685
3.3261
3.63854
3.93444
4.21684
4.48838
4.75217
5.00896
5.26583
5.51133
5.78898
5.97895
6.4394
2.23928
2.87079
3.29701
3.70976
4.07175
4.40407
4.71036
5.00026
5.27687
5.54316
5.80222
6.05528
6.30906
6.55323
6.82637
7.02657
7.45897
3.50613
3.92973
4.33829
4.74524
5.09573
5.41419
5.70708
5.98409
6.24852
6.50352
6.75212
6.99606
7.24077
7.4779
7.74066
7.94288
8.338
4.34526
4.94677
5.34836
5.72697
6.05352
6.35024
6.62296
6.88096
7.1278
7.36662
7.60024
7.83057
8.06159
8.28723
8.53364
8.73146
9.08482
5.53619
5.92392
6.2925
6.64534
6.94329
7.21134
7.45747
7.69073
7.91491
8.13314
8.348
8.56135
8.77576
8.98669
9.21312
9.39916
9.70814
6.3409
6.85608
7.19266
7.50176
7.76291
7.99694
8.21195
8.41646
8.61425
8.80845
9.00137
9.19467
9.38954
9.58276
9.78716
9.95694
10.2188
7.41505
7.72797
8.01943
8.28573
8.50621
8.70223
8.88308
9.05688
9.22696
9.39613
9.56617
9.73812
9.91182
10.085
10.2641
10.4134
10.6287
8.16772
8.55503
8.78873
8.99676
9.17022
9.32447
9.46828
9.60969
9.75153
9.89598
10.0438
10.1948
10.3477
10.5004
10.6536
10.7793
10.9485
9.12353
9.31253
9.49028
9.6434
9.76718
9.87703
9.98151
10.0888
10.2011
10.3199
10.4448
10.574
10.7049
10.8349
10.9598
11.0616
11.1892
9.82726
10.0412
10.1509
10.2441
10.3183
10.385
10.4516
10.5252
10.6077
10.6989
10.7973
10.9004
11.0047
11.1059
11.196
11.2679
11.3622
10.6694
10.7088
10.7574
10.7979
10.8257
10.8522
10.8846
10.9278
10.9822
11.0459
11.1156
11.1879
11.2592
11.3255
11.3809
11.4276
11.4849
11.2874
11.3125
11.2882
11.2704
11.2516
11.2375
11.2345
11.246
11.2729
11.3105
11.3538
11.3983
11.4394
11.4735
11.5015
11.5332
11.5726
14.7251
15.2697
15.8596
16.315
16.7738
17.1393
17.4557
17.7181
17.8991
18.0528
18.139
18.2163
18.2347
18.2517
18.1984
18.1655
18.0446
17.9561
17.8095
17.678
17.5172
17.3627
17.1956
17.0288
16.8554
16.6751
16.4921
16.2943
16.095
15.8738
15.6485
15.395
15.1324
14.834
14.5219
14.1628
13.791
13.3563
12.9258
12.4064
11.9093
14.6193
15.1179
15.5864
16.0194
16.4083
16.7513
17.0407
17.2839
17.4717
17.6189
17.7174
17.7865
17.8219
17.8305
17.8136
17.7654
17.6804
17.5836
17.4637
17.3308
17.1873
17.0372
16.8799
16.7167
16.5472
16.3712
16.1878
15.9958
15.794
15.5805
15.3531
15.1104
14.8483
14.5667
14.2595
13.9286
13.5655
13.1757
12.7474
12.2935
11.8002
14.4917
14.9344
15.3418
15.7276
16.0793
16.3932
16.6662
16.8959
17.0832
17.2294
17.3369
17.4065
17.4477
17.4617
17.4547
17.4166
17.3471
17.2591
17.1497
17.0264
16.8928
16.75
16.5992
16.4407
16.2749
16.1016
15.9202
15.73
15.5295
15.3178
15.0926
14.853
14.5958
14.3203
14.023
13.704
13.3593
12.9909
12.5929
12.1754
11.7163
14.3653
14.7592
15.1207
15.4686
15.7888
16.0792
16.3356
16.5558
16.7389
16.8852
16.9962
17.0734
17.1182
17.1367
17.1333
17.1083
17.0509
16.9711
16.871
16.7572
16.6316
16.4956
16.35
16.1956
16.0328
15.8616
15.6818
15.4927
15.2935
15.0831
14.8603
14.6236
14.3715
14.1024
13.8148
13.5075
13.1792
12.8308
12.458
12.0698
11.6411
14.2672
14.6115
14.9321
15.2462
15.5384
15.807
16.0475
16.2576
16.4355
16.5809
16.694
16.7759
16.8281
16.8512
16.8498
16.8354
16.7883
16.7156
16.6249
16.5194
16.4009
16.2706
16.1295
15.9783
15.8178
15.6481
15.4692
15.2807
15.0821
14.8729
14.6519
14.4181
14.1703
13.9073
13.6279
13.331
13.0147
12.6808
12.327
11.9659
11.5695
14.1948
14.501
14.7787
15.0602
15.3261
15.5738
15.7989
15.9985
16.1705
16.3138
16.428
16.5133
16.5707
16.6011
16.605
16.5931
16.5554
16.4908
16.4085
16.3102
16.1977
16.0722
15.9346
15.786
15.627
15.4579
15.2791
15.0905
14.8918
14.6826
14.4626
14.2307
13.9857
13.7266
13.4527
13.1641
12.8612
12.5453
12.2134
11.8794
11.511
14.143
14.4145
14.6594
14.9084
15.1487
15.3767
15.5864
15.7752
15.9406
16.0809
16.1951
16.2828
16.3444
16.3805
16.3921
16.3811
16.3507
16.2942
16.219
16.1269
16.0194
15.8977
15.763
15.616
15.4577
15.2884
15.1085
14.9185
14.7197
14.5114
14.2922
14.0614
13.8186
13.5637
13.2967
13.0178
12.7276
12.4281
12.1166
11.8077
11.4676
14.1164
14.3534
14.5678
14.7896
15.0038
15.2119
15.4069
15.5846
15.7427
15.8791
15.9924
16.0817
16.1465
16.1873
16.2044
16.1986
16.1729
16.1232
16.0541
15.9671
15.8637
15.7451
15.6123
15.4662
15.3076
15.1371
14.9561
14.7665
14.5674
14.3581
14.1385
13.9085
13.668
13.4173
13.1567
12.8874
12.61
12.3272
12.0369
11.7534
11.4433
14.1162
14.3178
14.5023
14.6974
14.889
15.0761
15.256
15.4232
15.5736
15.7056
15.8174
15.9074
15.9749
16.0195
16.0414
16.0411
16.0192
15.9755
15.9116
15.8288
15.7287
15.6123
15.4807
15.3347
15.1753
15.003
14.8214
14.6302
14.429
14.2183
13.998
13.7683
13.5298
13.2833
13.0297
12.7704
12.5068
12.2416
11.9735
11.7164
11.4389
14.1314
14.3005
14.4582
14.6283
14.7984
14.9673
15.1308
15.2871
15.4307
15.5579
15.6675
15.7577
15.8271
15.875
15.901
15.9053
15.8879
15.8492
15.7896
15.7102
15.6125
15.4977
15.3665
15.22
15.0588
14.8861
14.7025
14.5085
14.3047
14.0916
13.8698
13.6401
13.4036
13.1614
12.915
12.666
12.4163
12.169
11.9235
11.6931
11.4494
14.1558
14.2967
14.4309
14.5782
14.7286
14.8806
15.03
15.1738
15.3098
15.4329
15.54
15.6296
15.7005
15.7514
15.7814
15.79
15.777
15.7422
15.6863
15.6098
15.5139
15.3997
15.2679
15.12
14.9573
14.7829
14.5967
14.3996
14.1924
13.9763
13.7527
13.5228
13.2882
13.0504
12.8112
12.5727
12.337
12.1074
11.8844
11.6797
11.4684
14.1839
14.3006
14.4141
14.541
14.6735
14.8095
14.9458
15.0792
15.2066
15.3253
15.431
15.5206
15.593
15.6469
15.6809
15.6939
15.6857
15.6526
15.6006
15.5265
15.4318
15.3173
15.1838
15.0324
14.8664
14.6875
14.4968
14.2952
14.0838
13.8646
13.6391
13.409
13.1763
12.9429
12.7113
12.4841
12.2635
12.0526
11.8525
11.6729
11.4922
14.2103
14.3069
14.4034
14.5125
14.629
14.7508
14.8752
14.9993
15.1197
15.2335
15.3379
15.4297
15.5048
15.5616
15.5989
15.6156
15.6113
15.5807
15.5314
15.4591
15.3648
15.2496
15.1144
14.9597
14.7889
14.6043
14.4071
14.1988
13.9816
13.7579
13.5294
13.2988
13.0679
12.8392
12.6156
12.4003
12.1953
12.003
11.8255
11.6688
11.5155
14.2312
14.3104
14.3952
14.4915
14.5966
14.7079
14.823
14.9384
15.0527
15.1627
15.2649
15.3567
15.4347
15.4941
15.5341
15.5539
15.5524
15.5249
15.4772
15.4059
15.3115
15.1951
15.0586
14.903
14.7299
14.5404
14.3371
14.1224
13.8987
13.6699
13.4375
13.2053
12.9762
12.7526
12.538
12.333
12.1402
11.9623
11.8022
11.6625
11.5336
14.2482
14.3092
14.3843
14.4698
14.565
14.6675
14.7746
14.8835
14.994
15.1011
15.2019
15.2935
15.3722
15.4358
15.4807
15.5055
15.5074
15.4839
15.4379
15.367
15.2714
15.1521
15.0104
14.8486
14.6685
14.472
14.2617
14.0411
13.8127
13.5795
13.3452
13.1122
12.8845
12.6645
12.4574
12.2613
12.0805
11.9172
11.7737
11.65
11.548
14.2722
14.3143
14.3708
14.4392
14.5201
14.6113
14.7105
14.8172
14.9243
15.0285
15.1297
15.224
15.3082
15.3796
15.4343
15.468
15.4763
15.4587
15.4153
15.3446
15.2463
15.1209
14.9678
14.7925
14.5981
14.3883
14.1653
13.9335
13.697
13.457
13.2202
12.9871
12.7618
12.5454
12.3406
12.1561
11.9929
11.852
11.7345
11.6397
11.5704
14.3209
14.3295
14.3666
14.4233
14.4954
14.5796
14.6729
14.7721
14.875
14.981
15.0844
15.1815
15.27
15.3458
15.4053
15.4445
15.4603
15.4488
15.4085
15.3379
15.2367
15.1057
14.9491
14.7691
14.5683
14.3491
14.1162
13.873
13.6249
13.377
13.1319
12.8955
12.6698
12.4609
12.2695
12.0976
11.946
11.8181
11.7165
11.6438
11.6099
-3.40754
-3.40353
-3.76393
-4.3987
-5.00673
-5.70861
-6.42026
-7.17555
-7.9503
-8.73948
-9.56436
-10.4463
-11.3351
-12.2017
-13.0133
-13.7276
-14.2648
-3.77741
-4.19951
-4.53334
-5.17315
-5.72918
-6.37334
-7.03747
-7.72445
-8.43559
-9.16322
-9.91995
-10.6902
-11.4546
-12.1745
-12.8497
-13.4469
-13.8736
-4.4577
-5.06516
-5.34557
-5.92509
-6.44777
-7.02719
-7.64828
-8.27248
-8.91462
-9.572
-10.2338
-10.8938
-11.5345
-12.1084
-12.642
-13.1346
-13.717
-5.13398
-5.76155
-6.06906
-6.60833
-7.11581
-7.63927
-8.20554
-8.76328
-9.32986
-9.91169
-10.4776
-11.0332
-11.542
-11.9953
-12.3919
-12.7289
-12.9729
-5.85796
-6.47319
-6.78503
-7.27603
-7.75234
-8.21957
-8.72011
-9.20956
-9.70301
-10.2047
-10.6837
-11.1258
-11.5038
-11.8313
-12.1373
-12.3783
-12.488
-6.58173
-7.1635
-7.46799
-7.90413
-8.3373
-8.74598
-9.17614
-9.59864
-10.0271
-10.4413
-10.817
-11.1237
-11.3889
-11.6246
-11.8478
-12.0299
-12.2462
-7.29634
-7.82584
-8.11316
-8.48378
-8.86652
-9.2133
-9.57375
-9.93621
-10.2838
-10.5911
-10.8323
-11.037
-11.2221
-11.3874
-11.5157
-11.5925
-11.6
-7.98087
-8.44105
-8.70462
-9.00221
-9.32489
-9.60868
-9.90433
-10.1884
-10.4225
-10.602
-10.7505
-10.8908
-11.0156
-11.1047
-11.1666
-11.1852
-11.0813
-8.61525
-8.98653
-9.21354
-9.43506
-9.69397
-9.91757
-10.122
-10.287
-10.4112
-10.5144
-10.6129
-10.6918
-10.7469
-10.7719
-10.7789
-10.7732
-10.7952
-9.1638
-9.42934
-9.6111
-9.75204
-9.93077
-10.0667
-10.161
-10.2337
-10.3108
-10.371
-10.4098
-10.4292
-10.4302
-10.397
-10.3489
-10.2756
-10.1507
-9.56862
-9.71833
-9.85088
-9.92458
-9.98534
-10.0365
-10.0864
-10.121
-10.1398
-10.1456
-10.1333
-10.0961
-10.043
-9.96626
-9.88904
-9.75822
-9.52495
-9.81209
-9.8393
-9.88471
-9.90981
-9.92341
-9.93165
-9.93137
-9.90956
-9.86866
-9.81417
-9.74504
-9.65992
-9.56398
-9.45116
-9.34429
-9.20567
-9.15119
-9.86605
-9.80397
-9.80611
-9.77924
-9.73245
-9.68532
-9.62137
-9.54104
-9.4515
-9.35358
-9.24683
-9.13015
-9.00442
-8.86277
-8.72864
-8.56889
-8.45152
-9.69972
-9.55309
-9.5106
-9.42878
-9.32628
-9.22787
-9.11959
-9.00699
-8.89119
-8.76862
-8.64068
-8.5082
-8.37152
-8.22844
-8.09732
-7.90688
-7.68353
-9.25268
-9.06232
-8.96962
-8.85227
-8.71317
-8.58663
-8.45696
-8.32514
-8.19262
-8.05624
-7.91745
-7.77872
-7.64178
-7.50709
-7.38501
-7.2284
-7.20253
-8.51104
-8.29957
-8.17346
-8.04733
-7.89619
-7.76334
-7.6285
-7.48867
-7.35164
-7.21638
-7.08263
-6.95115
-6.82144
-6.6915
-6.57012
-6.44233
-6.43085
-7.46419
-7.26441
-7.1164
-7.00792
-6.86487
-6.73923
-6.61643
-6.49361
-6.37633
-6.26329
-6.15452
-6.05042
-5.94941
-5.85017
-5.75583
-5.63213
-5.52599
-6.09445
-5.98305
-5.83158
-5.75677
-5.64357
-5.54847
-5.45826
-5.36944
-5.28652
-5.2088
-5.13646
-5.06953
-5.00818
-4.95776
-4.9236
-4.88477
-4.91891
-4.45451
-4.46422
-4.34529
-4.32628
-4.25784
-4.20697
-4.16292
-4.12201
-4.08604
-4.05497
-4.02827
-4.00508
-3.98644
-3.9776
-3.97163
-3.96287
-3.99258
-2.7095
-2.76248
-2.72724
-2.75034
-2.75154
-2.76107
-2.77174
-2.78515
-2.80104
-2.81965
-2.84096
-2.86485
-2.89153
-2.92037
-2.9469
-2.95193
-2.94493
-0.83691
-0.993002
-1.01449
-1.11179
-1.17197
-1.24659
-1.31675
-1.38741
-1.45742
-1.52792
-1.59967
-1.67394
-1.75228
-1.83593
-1.92878
-2.02515
-2.18844
1.06454
0.813675
0.763645
0.582069
0.470667
0.332435
0.200198
0.0639203
-0.072717
-0.206246
-0.336797
-0.46441
-0.587066
-0.70351
-0.821735
-0.945403
-1.14913
2.89502
2.55774
2.47279
2.24482
2.07849
1.89338
1.71457
1.53064
1.3462
1.15893
0.968603
0.776332
0.585197
0.396964
0.220553
0.0988553
0.0138115
4.60796
4.19714
4.07664
3.81592
3.60632
3.38157
3.16452
2.94315
2.72148
2.49672
2.2674
2.0332
1.79108
1.53408
1.26584
1.01102
0.691326
6.16437
5.70591
5.55449
5.27569
5.04038
4.78575
4.53762
4.28519
4.03066
3.7723
3.51039
3.24328
2.96749
2.68738
2.40829
2.11051
1.68209
7.57062
7.09311
6.91271
6.61652
6.36196
6.08782
5.81723
5.54212
5.26399
4.98082
4.69177
4.39557
4.09001
3.77004
3.43367
3.13945
2.93207
8.81351
8.33472
8.13511
7.82801
7.55992
7.27623
6.9938
6.70552
6.41269
6.11289
5.80578
5.49184
5.16764
4.82151
4.44634
4.0644
3.5952
9.88709
9.4198
9.21186
8.90577
8.63527
8.35033
8.06527
7.77293
7.47403
7.16619
6.84919
6.52211
6.1808
5.82778
5.47582
5.08734
4.47981
10.8023
10.3607
10.1519
9.85659
9.59134
9.3121
9.03144
8.74267
8.4459
8.13899
7.82103
7.48972
7.14062
6.77241
6.38799
6.00517
5.70805
11.5741
11.1687
10.9653
10.6866
10.4313
10.1636
9.8933
9.6149
9.32761
9.02907
8.71824
8.39368
8.04986
7.6788
7.28205
6.86033
6.33044
12.2115
11.8505
11.6594
11.4015
11.1605
10.9091
10.6545
10.3922
10.1206
9.83732
9.54121
9.2297
8.89471
8.53739
8.18097
7.7759
7.08425
12.7295
12.4181
12.2415
12.0087
11.7868
11.5555
11.3203
11.0781
10.827
10.5648
10.2903
9.99928
9.68318
9.34347
8.98554
8.58531
8.27589
13.1435
12.883
12.7236
12.5186
12.3184
12.1094
11.8962
11.6774
11.4508
11.2145
10.967
10.7045
10.4185
10.1059
9.76592
9.3638
8.8652
13.4679
13.2569
13.117
12.9395
12.7635
12.5792
12.3907
12.1978
11.9988
11.7919
11.5759
11.3465
11.0935
10.8195
10.5468
10.1997
9.5124
13.718
13.5514
13.4335
13.2851
13.1341
12.9752
12.8118
12.6452
12.4747
12.299
12.1173
11.9248
11.7109
11.4793
11.2375
10.9274
10.7074
13.908
13.7823
13.6881
13.5668
13.4379
13.3023
13.1627
13.0212
12.8781
12.7333
12.5868
12.4344
12.2661
12.0838
11.8847
11.5986
11.2897
14.0507
13.9569
13.8816
13.785
13.6809
13.5687
13.4522
13.3346
13.2176
13.1027
12.9915
12.8802
12.7576
12.6328
12.52
12.3192
11.8277
14.1526
14.0819
14.0301
13.9628
13.8829
13.7956
13.7042
13.6122
13.5224
13.4377
13.3619
13.2908
13.215
13.1477
13.0835
12.9506
12.9744
14.2308
14.185
14.1496
14.1071
14.055
13.9964
13.9341
13.8715
13.8116
13.7588
13.7183
13.6863
13.6582
13.6427
13.6158
13.5458
13.613
14.295
14.2544
14.2259
14.2023
14.1744
14.1405
14.1027
14.0654
14.033
14.0102
14.005
14.0132
14.0335
14.0674
14.1109
14.1454
14.0456
-16.3619
-17.945
-19.8023
-22.0397
-24.753
-27.9856
-32.5865
-37.3561
-43.5565
-45.5678
-37.2499
-19.8615
-5.71078
-4.88929
-6.87683
-6.72731
-6.79453
-7.47335
-8.12703
-8.83656
-17.2708
-19.1576
-21.3395
-23.9553
-27.0883
-31.0145
-36.9694
-42.2402
-49.5888
-51.367
-41.5031
-21.3032
-4.87883
-3.09947
-5.0802
-5.80834
-6.45519
-7.41691
-8.30626
-9.14189
-18.2559
-20.4229
-22.9483
-25.9506
-29.5211
-34.3285
-40.3578
-47.1898
-54.3962
-55.3037
-44.4848
-21.462
-4.29792
-1.48325
-3.35282
-4.89358
-6.15762
-7.45797
-8.55315
-9.51916
-19.3597
-21.8076
-24.6957
-28.0584
-32.1624
-37.9994
-43.1641
-51.7784
-57.7686
-57.3482
-45.3776
-21.5087
-3.96665
-0.368031
-2.03737
-4.0633
-5.90963
-7.58377
-8.90247
-10.0032
-20.5625
-23.3126
-26.5655
-30.2745
-35.0034
-41.1183
-46.7116
-55.4516
-59.4407
-57.3326
-44.8058
-21.8427
-4.06375
0.246363
-1.10884
-3.40363
-5.94255
-7.88674
-9.39967
-10.6271
-21.9011
-24.9616
-28.568
-32.719
-38.129
-43.6575
-50.8925
-57.7877
-59.7083
-56.4234
-43.8632
-22.5067
-5.02557
0.410974
-0.555111
-3.40283
-6.28169
-8.4588
-10.1179
-11.4485
-23.3768
-26.7514
-30.7276
-35.4962
-41.4622
-46.6615
-54.6099
-59.1097
-59.1416
-54.9962
-43.0026
-23.6662
-6.94299
-0.444402
-0.855062
-3.89427
-7.00684
-9.38457
-11.1477
-12.5457
-25.0084
-28.7062
-33.1837
-38.5984
-44.1735
-50.8514
-57.3472
-59.6149
-58.3093
-53.6848
-42.6594
-25.5605
-10.2564
-2.55137
-2.16327
-5.008
-8.31837
-10.8338
-12.6244
-14.0239
-26.7927
-30.9084
-36.1325
-41.9442
-47.3352
-55.0492
-59.1987
-59.6302
-57.6171
-52.9947
-43.6971
-28.8715
-15.1807
-6.47851
-4.89378
-7.28621
-10.5596
-13.0576
-14.7205
-16.0135
-28.767
-33.5327
-39.4862
-45.0846
-51.9723
-58.2299
-60.2379
-59.5154
-57.2656
-53.0122
-46.2543
-34.0597
-22.3262
-12.9945
-9.78874
-11.5131
-14.223
-16.3235
-17.6315
-18.712
-31.1046
-36.6698
-42.7519
-49.2702
-56.5525
-60.1352
-60.5122
-59.4027
-57.222
-54.0683
-49.5629
-41.1214
-32.2657
-23.3112
-18.6371
-18.8632
-20.1688
-21.2929
-21.7645
-22.5357
-34.0137
-40.1571
-46.82
-54.3244
-59.4207
-60.6643
-60.2801
-59.2586
-57.5144
-55.6378
-53.6799
-49.7922
-45.0565
-38.8472
-34.3146
-32.0119
-30.6675
-29.768
-28.0153
-28.0658
-37.5393
-44.4497
-51.8427
-57.4574
-59.5351
-59.8055
-59.5538
-58.8649
-57.8615
-57.4626
-58.1835
-59.1738
-59.7292
-58.7275
-57.357
-54.4955
-49.3874
-43.8687
-38.4551
-35.7727
-42.719
-49.2389
-54.1357
-56.8446
-57.7428
-58.1211
-58.3009
-58.0594
-57.9591
-59.0355
-62.148
-67.2636
-72.771
-77.4102
-80.2743
-80.1945
-73.8466
-64.1183
-53.8404
-46.4604
-49.4741
-51.513
-52.66
-54.0009
-55.0619
-55.8694
-56.4025
-56.7099
-57.409
-59.53
-63.8013
-70.427
-78.6437
-86.956
-92.7381
-94.768
-91.1254
-82.2618
-71.1301
-60.8247
-50.3181
-49.3456
-49.2124
-50.5618
-52.0295
-53.178
-54.0236
-54.7693
-55.9801
-58.5331
-63.1428
-69.7112
-77.8107
-85.9371
-92.2116
-94.6144
-92.7112
-87.7448
-81.745
-74.5558
-45.5475
-44.8789
-45.5299
-47.2646
-48.9848
-50.3369
-51.4027
-52.3959
-53.7276
-55.9895
-59.6173
-64.6426
-70.7854
-77.1624
-82.8086
-85.4969
-84.4857
-82.0596
-79.2408
-75.7068
-40.2038
-41.1919
-42.6708
-44.6762
-46.4316
-47.8347
-48.9491
-49.9544
-51.1459
-52.9018
-55.5154
-59.0723
-63.373
-67.8876
-72.1087
-74.5028
-74.183
-72.9513
-71.5299
-69.6255
-37.5129
-39.1951
-41.085
-43.037
-44.6829
-45.9214
-46.8672
-47.6618
-48.5541
-49.7711
-51.527
-53.9567
-56.9881
-60.305
-63.5006
-65.6316
-65.9544
-65.3169
-64.0079
-61.8067
-36.5496
-38.5253
-40.5385
-42.2538
-43.5676
-44.4193
-44.9089
-45.3202
-45.8231
-46.5023
-47.5592
-49.1228
-51.1493
-53.5077
-55.8696
-57.809
-58.6219
-58.3485
-57.4783
-55.997
-53.0952
-56.7327
-62.8445
-65.6976
-62.5533
-54.0022
-44.5361
-36.2956
-29.6608
-24.2611
-20.2704
-17.4504
-15.3754
-13.8092
-12.6139
-11.6919
-10.9695
-10.3926
-9.93316
-9.55804
-50.4185
-52.9105
-57.5602
-60.4242
-56.7333
-49.4616
-42.0014
-35.223
-29.633
-25.2157
-21.5831
-18.719
-16.5427
-14.8965
-13.6234
-12.6225
-11.8247
-11.181
-10.6611
-10.2363
-48.4675
-50.0752
-52.8034
-54.851
-51.8088
-45.3942
-39.4545
-33.917
-29.1413
-25.2533
-22.1372
-19.5853
-17.4985
-15.814
-14.4717
-13.3993
-12.5381
-11.848
-11.2906
-10.8267
-47.0697
-47.737
-49.0563
-49.9164
-47.3566
-42.1081
-36.9964
-32.3489
-28.2524
-24.8158
-21.9882
-19.6703
-17.7816
-16.2283
-14.9525
-13.9022
-13.0369
-12.3327
-11.7521
-11.2564
-45.938
-45.6974
-46.2072
-45.5816
-42.8493
-38.9193
-34.6091
-30.6263
-27.08
-24.0342
-21.4791
-19.3474
-17.5771
-16.106
-14.8841
-13.8665
-13.0211
-12.3378
-11.759
-11.2433
-45.0875
-44.2267
-44.1134
-42.1984
-39.0863
-35.8674
-32.2312
-28.7966
-25.6846
-22.9751
-20.6678
-18.7188
-17.0792
-15.7027
-14.5489
-13.5791
-12.7669
-12.1132
-11.5429
-11.0007
-44.6281
-43.0717
-42.3804
-39.6652
-35.8782
-32.9879
-29.8546
-26.8514
-24.1249
-21.7018
-19.6126
-17.8328
-16.324
-15.0488
-13.9736
-13.0646
-12.2981
-11.6779
-11.1093
-10.546
-44.212
-42.0142
-40.5938
-37.6369
-33.2598
-30.2758
-27.4406
-24.7575
-22.3404
-20.1983
-18.3291
-16.7158
-15.332
-14.149
-13.1413
-12.2813
-11.552
-10.961
-10.4032
-9.88096
-43.6183
-41.4313
-38.5821
-35.1386
-30.8019
-27.642
-24.9389
-22.4921
-20.3095
-18.3906
-16.7147
-15.2582
-13.9988
-12.9125
-11.9794
-11.1767
-10.4942
-9.93375
-9.3964
-8.98014
-42.8146
-41.1462
-36.3711
-32.1249
-28.1512
-24.9628
-22.3088
-20.0313
-18.0339
-16.2956
-14.7871
-13.4759
-12.3384
-11.3523
-10.5005
-9.76194
-9.13276
-8.60013
-8.08841
-7.78473
-41.8646
-40.7564
-34.2133
-29.1281
-25.2642
-22.1369
-19.5087
-17.3516
-15.5048
-13.92
-12.5607
-11.3865
-10.3704
-9.48989
-8.72809
-8.06442
-7.50133
-7.00391
-6.54404
-6.34835
-40.9067
-39.6447
-32.1819
-26.0802
-22.1489
-19.0815
-16.4809
-14.4228
-12.7098
-11.2679
-10.051
-9.01212
-8.12076
-7.35339
-6.69088
-6.11524
-5.63138
-5.183
-4.81399
-4.69378
-39.8785
-37.3522
-30.0765
-22.9853
-18.7291
-15.7073
-13.1687
-11.2222
-9.64636
-8.3522
-7.28241
-6.38465
-5.62582
-4.98049
-4.42694
-3.95218
-3.55383
-3.17005
-2.90531
-2.82628
-38.4875
-33.594
-26.495
-19.3891
-14.9351
-11.9857
-9.56043
-7.75815
-6.33486
-5.20161
-4.29074
-3.54582
-2.93139
-2.41917
-1.98608