/*--------------------------------*- C++ -*----------------------------------*\
  =========                 |
  \\      /  F ield         | OpenFOAM: The Open Source CFD Toolbox
   \\    /   O peration     | Website:  https://openfoam.org
    \\  /    A nd           | Version:  6
     \\/     M anipulation  |
\*---------------------------------------------------------------------------*/
FoamFile
{
    version     2.0;
    format      ascii;
    class       volScalarField;
    location    "2.48";
    object      k;
}
// * * * * * * * * * * * * * * * * * * * * * * * * * * * * * * * * * * * * * //

dimensions      [0 2 -2 0 0 0 0];

internalField   nonuniform List<scalar> 
4214
(
0.0905998
0.0449215
0.0262854
0.0187379
0.0159626
0.0151894
0.0152762
0.0158313
0.0169985
0.0188923
0.0227367
0.0288388
0.0393664
0.0550893
0.0785847
0.111144
0.153913
0.206874
0.270003
0.347293
0.450731
0.596678
0.785254
0.98686
1.22275
1.60323
2.24148
3.07842
3.60652
3.14015
2.04617
1.0321
0.407845
0.135775
0.0468132
0.0228123
0.0177819
0.0185795
0.0242687
0.0404173
0.0830389
0.0401818
0.0257096
0.0192116
0.016485
0.0156086
0.0156089
0.0161371
0.0171351
0.0191185
0.0221494
0.0285354
0.0378779
0.0535898
0.0753065
0.106315
0.146909
0.197523
0.256557
0.321397
0.392602
0.480137
0.601936
0.761461
0.936257
1.14191
1.50622
2.14196
3.00883
3.64564
3.35827
2.29562
1.21386
0.503414
0.17358
0.0589118
0.0260517
0.0180559
0.0166626
0.0175448
0.0205605
0.0274361
0.0220993
0.0186135
0.0167213
0.0159214
0.0158812
0.016334
0.0173386
0.0190368
0.0224754
0.0273994
0.0381367
0.052378
0.0759833
0.105813
0.14662
0.196885
0.256469
0.322096
0.388703
0.453753
0.52371
0.616128
0.740238
0.883417
1.06802
1.41611
2.05422
2.94485
3.6619
3.55893
2.56066
1.41688
0.616201
0.220717
0.0747832
0.0306679
0.0191996
0.0165921
0.0163856
0.0171657
0.0189606
0.018464
0.0171028
0.016359
0.0162075
0.0165981
0.0174852
0.0192246
0.0221355
0.0280905
0.0360438
0.0540301
0.0753801
0.110891
0.151408
0.204855
0.266625
0.336579
0.409632
0.478281
0.537564
0.591566
0.656851
0.748807
0.86224
1.02324
1.35325
1.98394
2.89124
3.67166
3.73038
2.8325
1.64201
0.749059
0.279466
0.0955347
0.0369897
0.0209558
0.0169924
0.0162304
0.0163953
0.0171107
0.0173733
0.016787
0.0165854
0.0168547
0.0176716
0.0192016
0.0221798
0.0271589
0.0372465
0.0498812
0.0795434
0.11069
0.164068
0.218252
0.287868
0.363056
0.444851
0.525795
0.59552
0.647265
0.683997
0.721788
0.780461
0.863738
1.00182
1.31339
1.93245
2.84922
3.68123
3.85477
3.10167
1.88634
0.903068
0.351866
0.122429
0.0455107
0.0234262
0.017673
0.0163657
0.016206
0.016495
0.0171653
0.0170005
0.017185
0.0178554
0.0192576
0.0218447
0.0268625
0.0352137
0.0516916
0.0714045
0.119149
0.163321
0.243806
0.315622
0.40671
0.498397
0.595
0.68516
0.755179
0.795902
0.810437
0.817044
0.839843
0.889931
1.00403
1.29775
1.90554
2.82877
3.6997
3.95721
3.34181
2.14703
1.07949
0.44025
0.157118
0.0569301
0.0268447
0.0186561
0.0166616
0.0162389
0.0163042
0.0174279
0.0175694
0.0181179
0.0192873
0.0216142
0.0259207
0.0341074
0.0476249
0.0734395
0.103814
0.178403
0.240104
0.362421
0.458041
0.579415
0.693351
0.811023
0.914306
0.982555
1.00338
0.984894
0.950849
0.931472
0.943705
1.03131
1.31008
1.91162
2.83813
3.73654
4.05885
3.52744
2.41798
1.27832
0.546516
0.201527
0.0721672
0.0315441
0.0200347
0.0171033
0.0163918
0.0163067
0.0180163
0.0184461
0.0194281
0.0213103
0.0250188
0.0319118
0.0447722
0.0659769
0.104733
0.151448
0.264633
0.352435
0.539742
0.669815
0.836527
0.983702
1.13332
1.25102
1.30876
1.29714
1.22671
1.13515
1.06158
1.02963
1.08824
1.35365
1.95577
2.88807
3.80397
4.16922
3.69885
2.63419
1.49849
0.671596
0.257652
0.0924197
0.0379717
0.021959
0.0177175
0.0166323
0.0164139
0.0188742
0.019623
0.0211105
0.0240018
0.0296833
0.0401475
0.0594266
0.0912535
0.148699
0.221364
0.38914
0.521696
0.806825
0.989982
1.2262
1.42362
1.6197
1.75182
1.78503
1.71204
1.55722
1.38192
1.23726
1.15198
1.18097
1.43927
2.0529
2.99705
3.91741
4.29767
3.85993
2.82361
1.68103
0.815245
0.326977
0.11917
0.0467088
0.024647
0.0185649
0.0169597
0.0165892
0.0199495
0.0210258
0.0231798
0.0273917
0.0356236
0.0506372
0.078269
0.124381
0.208726
0.325507
0.571927
0.785201
1.20623
1.47376
1.81003
2.0762
2.3274
2.45843
2.43784
2.26252
1.98202
1.6931
1.45926
1.31344
1.31769
1.58344
2.22655
3.18922
4.09463
4.45308
4.01012
2.98317
1.83672
0.937473
0.403851
0.153966
0.0585135
0.0283901
0.0197442
0.0173934
0.0168209
0.0211458
0.022597
0.0255444
0.0313028
0.0425333
0.0629028
0.100978
0.166221
0.290327
0.477637
0.849297
1.19754
1.78472
2.17871
2.62951
2.96697
3.25105
3.34272
3.22411
2.9053
2.46494
2.04425
1.7124
1.51078
1.51047
1.81532
2.51433
3.49659
4.35264
4.64028
4.14447
3.10103
1.95295
1.03673
0.47056
0.189578
0.074434
0.0335376
0.0214032
0.0179716
0.0171131
0.0223755
0.0242095
0.027993
0.0353418
0.0497728
0.0759553
0.126739
0.217644
0.401299
0.695222
1.25561
1.80482
2.58326
3.11833
3.64211
4.01228
4.25223
4.25112
3.99348
3.52414
2.92567
2.38566
1.9644
1.73645
1.7826
2.18526
2.97377
3.95353
4.69991
4.84948
4.24186
3.15782
2.01301
1.09953
0.520945
0.220256
0.0896455
0.040082
0.0237404
0.018756
0.0174823
0.0235375
0.0256942
0.0302402
0.0389716
0.05651
0.0884475
0.154342
0.278721
0.549026
0.988044
1.81355
2.59223
3.55727
4.17596
4.69288
5.00629
5.1171
4.95966
4.53524
3.95222
3.28753
2.68433
2.1904
2.00059
2.19863
2.77824
3.66283
4.56754
5.12851
5.03394
4.25958
3.12548
1.99811
1.11216
0.545622
0.240858
0.102287
0.0461791
0.0264171
0.0198454
0.0179549
0.0245438
0.0268865
0.0320274
0.0416544
0.0619597
0.0988351
0.182151
0.346414
0.735253
1.34787
2.50333
3.47714
4.56875
5.15822
5.56972
5.72651
5.6551
5.31408
4.74651
4.09628
3.43679
2.88169
2.44565
2.37811
2.89329
3.71488
4.60681
5.30626
5.54177
5.09891
4.1448
2.97366
1.89303
1.06441
0.537652
0.246637
0.109959
0.0509313
0.0289799
0.0209883
0.0185577
0.0253561
0.0276805
0.0332401
0.0429859
0.06566
0.105425
0.208174
0.411342
0.952531
1.72442
3.25844
4.33157
5.47078
5.91928
6.14142
6.0789
5.79799
5.29809
4.65353
4.01823
3.43644
3.01777
2.80718
2.97907
3.87613
4.89776
5.60778
5.9358
5.69521
4.91406
3.82536
2.66768
1.6861
0.951813
0.495758
0.235313
0.111362
0.0533449
0.0311218
0.0220421
0.0192021
0.0260113
0.0280442
0.0339903
0.0427374
0.0678142
0.106449
0.232057
0.455329
1.19406
2.03849
4.00512
5.0506
6.16918
6.42048
6.39927
6.10871
5.63793
5.08028
4.45037
3.92292
3.50503
3.31618
3.40552
3.83205
4.87655
5.94698
6.26081
6.04854
5.39131
4.37179
3.26978
2.20525
1.3934
0.784009
0.428188
0.208127
0.107419
0.0527876
0.0327571
0.0227932
0.0198684
0.0266132
0.0279716
0.0346382
0.0407399
0.0697209
0.0995413
0.260558
0.451121
1.48032
2.20399
4.69289
5.58809
6.61415
6.7245
6.38485
5.98091
5.3538
4.85451
4.31442
3.97687
3.84186
3.87998
4.23831
4.76509
5.73266
6.55702
6.21226
5.5045
4.57914
3.46647
2.52977
1.62953
1.06889
0.583421
0.355661
0.168159
0.102198
0.0485798
0.0343638
0.0229004
0.0205734
0.0191646
0.0187353
0.018295
0.0178778
0.0175115
0.0172016
0.0169398
0.0167224
0.0165525
0.0164454
0.016437
0.0166028
0.0171127
0.0184181
0.0222623
0.0421781
0.194122
0.0189468
0.0185105
0.0181213
0.0177757
0.0174774
0.0172212
0.0170044
0.0168278
0.0167
0.0166427
0.0166988
0.0169521
0.0175789
0.0190274
0.0230487
0.0427727
0.197368
0.0189881
0.0185747
0.0182089
0.0178901
0.0176112
0.0173702
0.0171683
0.0170111
0.0169124
0.0168989
0.0170194
0.0173639
0.0181129
0.0197152
0.0239419
0.0441265
0.198167
0.0190218
0.0186328
0.018289
0.0179955
0.0177429
0.0175279
0.0173523
0.0172245
0.0171628
0.0171999
0.017391
0.017832
0.0187076
0.0204698
0.024949
0.0459172
0.199941
0.0193311
0.0189488
0.0186107
0.0183095
0.0180433
0.017815
0.0176333
0.0175122
0.0174749
0.0175573
0.0178182
0.0183566
0.0193586
0.0212837
0.0260585
0.0481639
0.20275
0.0193927
0.0190535
0.0187509
0.0184828
0.0182459
0.0180451
0.0178921
0.0178046
0.0178103
0.0179501
0.0182877
0.0189254
0.0200525
0.0221423
0.0272515
0.0508959
0.207015
0.0198628
0.0194985
0.0191676
0.01887
0.0186088
0.0183934
0.0182386
0.0181647
0.0182013
0.0183912
0.0187997
0.0195305
0.0207757
0.0230283
0.0285096
0.0540688
0.212886
0.019957
0.0196581
0.0193783
0.0191216
0.0188933
0.0187065
0.0185806
0.0185402
0.0186184
0.0188618
0.0193391
0.0201571
0.0215124
0.0239252
0.0298343
0.0576616
0.220448
0.0205238
0.0201662
0.0198437
0.0195551
0.019307
0.0191135
0.0189933
0.018971
0.0190794
0.0193663
0.0199018
0.0207955
0.0222507
0.0248223
0.0311964
0.0615612
0.229625
0.0206716
0.0204072
0.0201461
0.0199008
0.0196854
0.019519
0.0194249
0.0194302
0.01957
0.0198953
0.0204798
0.0214382
0.0229846
0.0257168
0.0325802
0.0655729
0.240145
0.021319
0.0209712
0.0206611
0.0203888
0.0201635
0.0200004
0.0199178
0.0199395
0.0201004
0.0204529
0.0210743
0.0220856
0.0237164
0.0266189
0.0339951
0.0695222
0.251565
0.0215351
0.0213028
0.0210612
0.0208351
0.0206453
0.0205105
0.0204506
0.0204912
0.0206693
0.021041
0.021689
0.0227437
0.0244567
0.0275505
0.035473
0.0732499
0.263364
0.0222516
0.0219172
0.0216317
0.0213944
0.0212107
0.021089
0.021043
0.021095
0.0212828
0.0216656
0.0223316
0.0234233
0.0252228
0.0285431
0.0370697
0.0766862
0.274931
0.0225508
0.0223527
0.0221427
0.0219561
0.0218101
0.0217155
0.0216872
0.0217499
0.0219444
0.0223336
0.0230123
0.0241389
0.0260369
0.0296346
0.0388695
0.0799101
0.285597
0.023331
0.023022
0.0227864
0.0226094
0.0224821
0.0224046
0.0223888
0.0224594
0.0226587
0.0230523
0.0237422
0.0249072
0.0269257
0.0308695
0.0409646
0.0831503
0.294768
0.0237254
0.0235731
0.0234212
0.0232963
0.0232027
0.0231472
0.0231458
0.0232256
0.0234308
0.0238299
0.0245341
0.0257489
0.027923
0.0323027
0.043446
0.0867099
0.302037
0.0245526
0.0243047
0.0241553
0.024054
0.0239834
0.0239472
0.0239609
0.0240522
0.0242664
0.0246752
0.0254023
0.0266875
0.0290667
0.0339978
0.0464266
0.0908643
0.307116
0.0250666
0.0249915
0.024919
0.0248602
0.0248184
0.0248051
0.0248377
0.0249448
0.0251731
0.0255992
0.0263635
0.0277486
0.030395
0.0360028
0.0499353
0.0956612
0.309592
0.0259259
0.0258045
0.0257545
0.0257262
0.0257128
0.0257256
0.0257817
0.0259103
0.0261598
0.0266149
0.0274376
0.0289631
0.0319527
0.0383668
0.0540535
0.10114
0.309364
0.0266293
0.0266419
0.0266408
0.0266505
0.0266706
0.0267148
0.0268001
0.026957
0.0272375
0.0277374
0.0286459
0.03036
0.033773
0.0411081
0.0585753
0.107501
0.30653
0.0274945
0.0275499
0.02759
0.0276408
0.0277001
0.0277817
0.0279032
0.028097
0.0284214
0.0289869
0.0300155
0.0319731
0.0358908
0.0442395
0.063537
0.114476
0.301407
0.0284117
0.0285143
0.028605
0.0287032
0.0288079
0.0289325
0.0290956
0.0293327
0.0297086
0.0303495
0.0315099
0.033719
0.0381264
0.0473942
0.0682103
0.120516
0.29705
0.029386
0.0295528
0.0296991
0.0298502
0.0300063
0.0301798
0.0303904
0.0306761
0.0311083
0.0318274
0.0331161
0.0355574
0.0403955
0.050431
0.0724339
0.125615
0.293659
0.0304388
0.0306657
0.0308787
0.0310928
0.0313087
0.0315389
0.0318037
0.0321431
0.032634
0.0334277
0.0348289
0.0374616
0.0426401
0.0532613
0.0761281
0.129805
0.29123
0.0315639
0.0318749
0.032163
0.0324487
0.0327334
0.0330287
0.0333549
0.0337529
0.0343021
0.0351607
0.0366474
0.0394122
0.0448162
0.055822
0.0792596
0.133242
0.289707
0.0327898
0.0331816
0.0335603
0.0339323
0.0342988
0.0346707
0.0350674
0.0355294
0.0361361
0.037047
0.0385857
0.0414138
0.0469182
0.058106
0.0818541
0.136054
0.288998
0.0341134
0.0346173
0.0350968
0.0355677
0.0360295
0.0364911
0.0369698
0.0375033
0.038168
0.0391194
0.0406759
0.0434962
0.048971
0.0601311
0.0839122
0.13817
0.288976
0.0355622
0.0361798
0.036784
0.0373741
0.0379503
0.038519
0.0390951
0.0397117
0.0404391
0.0414234
0.0429683
0.0457131
0.0510291
0.0619448
0.085464
0.139614
0.289499
0.037138
0.0379064
0.0386501
0.0393796
0.040091
0.040788
0.0414813
0.0421984
0.0430002
0.0440183
0.0455327
0.0481468
0.0531859
0.0636442
0.0865916
0.14043
0.290433
0.0388672
0.0397953
0.0407115
0.0416082
0.0424827
0.043335
0.0441718
0.0450139
0.0459111
0.0469763
0.0484578
0.0509074
0.0555755
0.0653797
0.0874274
0.140649
0.291654
0.0407531
0.0418859
0.0429974
0.0440919
0.0451607
0.046201
0.0472144
0.0482145
0.0492394
0.0503804
0.0518481
0.0541282
0.0583657
0.0673442
0.0881373
0.140285
0.293053
0.042823
0.044179
0.0455296
0.0468601
0.0481629
0.0494311
0.0506621
0.0518628
0.0530597
0.0543224
0.0558204
0.0579629
0.0617593
0.0697925
0.0889931
0.139533
0.294549
0.0450785
0.0467135
0.048338
0.0499487
0.0515311
0.053075
0.0545734
0.0560275
0.0574538
0.0589024
0.0605027
0.0625819
0.0659901
0.0730359
0.0903436
0.138569
0.296077
0.0475468
0.0494923
0.0514483
0.0533925
0.0553103
0.0571874
0.0590134
0.0607851
0.0625122
0.06423
0.0660334
0.0681705
0.0713197
0.0774466
0.0926632
0.13779
0.297584
0.0502467
0.0525495
0.0548895
0.05723
0.0595488
0.0618279
0.0640538
0.066221
0.0683361
0.0704267
0.0725643
0.0749311
0.0780369
0.0834585
0.0965637
0.137756
0.299014
0.0532219
0.0559031
0.0586847
0.061496
0.0642949
0.0670588
0.0697722
0.0724295
0.0750396
0.0776313
0.0802676
0.0830889
0.086464
0.0915717
0.102827
0.139364
0.300287
0.0563957
0.0595933
0.0628534
0.0662223
0.069594
0.0729418
0.0762486
0.0795124
0.0827502
0.0860032
0.0893453
0.0929076
0.0969709
0.102367
0.112433
0.143964
0.301289
0.0597615
0.0635373
0.0674148
0.0714316
0.0754845
0.0795329
0.0835609
0.0875744
0.0916072
0.0957266
0.100041
0.104712
0.110009
0.116539
0.1266
0.153552
0.301869
0.0633128
0.0677646
0.0723752
0.0771399
0.0819963
0.0868794
0.0917795
0.0967184
0.101759
0.107013
0.112652
0.118921
0.12617
0.134975
0.146883
0.171051
0.301869
0.0670403
0.0722649
0.0777167
0.0833697
0.0891586
0.0950204
0.100964
0.10704
0.113359
0.120104
0.127552
0.136096
0.14629
0.158933
0.175404
0.200856
0.301187
0.0390617
0.0397945
0.0404617
0.0411048
0.0417879
0.0425347
0.0433715
0.0443058
0.0453525
0.0465217
0.0478226
0.0492705
0.0508704
0.0526328
0.0545594
0.0566551
0.0589203
0.0613504
0.0639401
0.0666971
0.0699388
0.0737559
0.0768666
0.0798564
0.08271
0.0853572
0.0877344
0.0897741
0.0914122
0.092586
0.0932384
0.0933244
0.0928193
0.0917157
0.0900334
0.0878145
0.0851301
0.0820604
0.0787028
0.0751332
0.0713571
0.0406997
0.0415085
0.0422164
0.0428823
0.0435873
0.0443615
0.0452367
0.0462179
0.0473259
0.048566
0.0499541
0.0515003
0.0532172
0.0551142
0.0571971
0.0594722
0.0619415
0.064604
0.0674543
0.0705017
0.0740789
0.0782078
0.0816928
0.0851001
0.0883945
0.0915015
0.0943377
0.0968197
0.0988625
0.100385
0.101312
0.101584
0.101165
0.100045
0.0982441
0.0958126
0.0928307
0.0893992
0.0856305
0.0816331
0.0774485
0.0426724
0.043568
0.0443009
0.0449791
0.0456955
0.0464964
0.0474039
0.048434
0.0496
0.0509153
0.0523918
0.0540432
0.0558827
0.0579227
0.0601714
0.0626369
0.0653238
0.0682334
0.0713626
0.0747204
0.0786504
0.0831064
0.0869962
0.0908484
0.0946194
0.0982229
0.10156
0.104526
0.107014
0.10892
0.110145
0.110612
0.110272
0.10911
0.107146
0.104443
0.101096
0.0972236
0.0929655
0.0884491
0.0838078
0.0450768
0.0460625
0.0467977
0.0474671
0.0481864
0.0490037
0.0499418
0.0510164
0.0522419
0.0536324
0.0552018
0.0569636
0.0589333
0.0611252
0.0635506
0.066219
0.0691379
0.072311
0.0757374
0.0794262
0.0837252
0.0885272
0.0928488
0.0971748
0.101454
0.105589
0.109464
0.112952
0.11592
0.118236
0.119775
0.120437
0.120156
0.118912
0.11673
0.113683
0.109889
0.105486
0.100651
0.0955286
0.0902757
0.0480518
0.0491074
0.0498029
0.0504386
0.0511464
0.0519712
0.0529337
0.0540495
0.0553334
0.0568007
0.0584663
0.060345
0.0624527
0.0648064
0.0674201
0.0703049
0.0734709
0.0769244
0.0806669
0.0847077
0.0893927
0.094561
0.0993406
0.104169
0.108986
0.113682
0.118126
0.122166
0.125639
0.128381
0.130238
0.13108
0.130825
0.129447
0.126976
0.123498
0.119167
0.114148
0.108613
0.102881
0.0970505
0.05179
0.0528428
0.0534399
0.054013
0.0546919
0.0555123
0.056491
0.0576429
0.0589833
0.0605279
0.062293
0.0642945
0.066549
0.0690747
0.0718888
0.0750042
0.0784332
0.0821844
0.0862618
0.0906753
0.0957629
0.101318
0.106581
0.111936
0.117317
0.1226
0.127636
0.132246
0.136236
0.139406
0.141566
0.142557
0.142279
0.140698
0.137859
0.133865
0.128875
0.123202
0.117027
0.110562
0.104001
0.0565364
0.057434
0.0578673
0.0583485
0.0589775
0.0597774
0.0607606
0.0619412
0.0633342
0.0649558
0.0668228
0.0689526
0.0713622
0.0740706
0.0770974
0.0804579
0.0841657
0.0882319
0.0926627
0.0974683
0.102974
0.108935
0.114703
0.120608
0.12657
0.132456
0.138094
0.143279
0.147781
0.15136
0.153791
0.154882
0.154516
0.152652
0.14934
0.144782
0.13917
0.132751
0.125782
0.118511
0.111159
0.0625655
0.0630811
0.0632981
0.0636574
0.0642097
0.0649673
0.0659389
0.0671371
0.0685762
0.0702723
0.0722424
0.0745047
0.0770773
0.0799788
0.0832302
0.0868498
0.0908519
0.0952494
0.10005
0.105264
0.111201
0.117585
0.123874
0.13034
0.136894
0.143385
0.14962
0.155364
0.160351
0.164298
0.166943
0.168065
0.167526
0.165325
0.161543
0.156352
0.149996
0.142757
0.134933
0.126804
0.118619
0.070126
0.0700573
0.0700276
0.0702275
0.0706673
0.0713532
0.0722916
0.0734915
0.0749664
0.0767316
0.0788037
0.0812009
0.0839421
0.087046
0.0905329
0.0944237
0.0987335
0.103476
0.108659
0.114294
0.120669
0.127485
0.134301
0.141329
0.148466
0.155546
0.162351
0.168611
0.174027
0.178283
0.181051
0.182127
0.181384
0.178798
0.174462
0.168577
0.161421
0.153319
0.144605
0.135594
0.12656
0.0793625
0.0787758
0.078465
0.0784513
0.0787318
0.0793078
0.0801834
0.0813633
0.0828587
0.0846833
0.0868526
0.089384
0.0922963
0.0956083
0.0993388
0.103509
0.108136
0.113231
0.118803
0.12486
0.13167
0.138917
0.146248
0.153818
0.161507
0.169128
0.176446
0.183158
0.188891
0.193333
0.196172
0.197156
0.196143
0.193112
0.188176
0.181563
0.17359
0.164619
0.15502
0.14514
0.135276
0.0908402
0.0898489
0.0891714
0.0888729
0.0889348
0.089353
0.0901269
0.0912576
0.0927512
0.0946192
0.0968751
0.0995347
0.102615
0.106134
0.11011
0.114561
0.119503
0.124948
0.130902
0.137367
0.144591
0.152246
0.160054
0.168111
0.176287
0.184371
0.192067
0.199074
0.205038
0.209596
0.212414
0.213225
0.211883
0.208373
0.202827
0.195501
0.186744
0.176952
0.166527
0.155838
0.145207
0.105506
0.104019
0.102931
0.102264
0.102034
0.102237
0.10286
0.103902
0.105363
0.10725
0.109572
0.112344
0.11558
0.119294
0.123503
0.128221
0.133461
0.139232
0.145535
0.152366
0.15995
0.167956
0.17616
0.184603
0.193119
0.201488
0.209428
0.216607
0.222655
0.227195
0.229881
0.230443
0.228735
0.224754
0.218645
0.210689
0.201257
0.190768
0.179645
0.168277
0.156997
0.124459
0.122389
0.120806
0.119725
0.119143
0.119059
0.119474
0.120377
0.121762
0.123629
0.125985
0.128838
0.132197
0.136073
0.140477
0.145419
0.150906
0.156941
0.163517
0.170623
0.178455
0.1867
0.195131
0.203765
0.212428
0.220888
0.228855
0.235993
0.241928
0.246285
0.248721
0.248974
0.246907
0.242526
0.235988
0.227582
0.217687
0.20673
0.195139
0.183308
0.171578
0.149264
0.146559
0.144429
0.142878
0.141901
0.14149
0.141639
0.142339
0.143588
0.14538
0.147711
0.150582
0.153998
0.157961
0.162476
0.167544
0.173165
0.179332
0.186026
0.193226
0.201101
0.209352
0.217749
0.226291
0.234798
0.243037
0.250723
0.257528
0.263097
0.267075
0.269144
0.269062
0.266709
0.262098
0.255385
0.246847
0.236851
0.225804
0.214121
0.202182
0.190328
0.182214
0.178925
0.176276
0.174264
0.172883
0.172122
0.171974
0.172427
0.173472
0.175099
0.177301
0.180072
0.183408
0.187301
0.191747
0.196735
0.202255
0.208288
0.21481
0.221784
0.229321
0.237174
0.245107
0.253105
0.260993
0.268551
0.275517
0.281599
0.286482
0.289858
0.291456
0.291072
0.288604
0.28407
0.277606
0.269455
0.259934
0.249406
0.238237
0.226774
0.215341
0.226756
0.223188
0.220262
0.217965
0.216297
0.215252
0.214822
0.214993
0.215755
0.217094
0.218995
0.221446
0.224433
0.22794
0.231952
0.236447
0.241404
0.246793
0.252578
0.258714
0.265251
0.271998
0.278755
0.285489
0.292047
0.298248
0.303881
0.308716
0.312513
0.31504
0.316094
0.315526
0.31326
0.309306
0.303764
0.29681
0.28868
0.279647
0.269997
0.260006
0.249955
0.288213
0.285276
0.282825
0.280845
0.279346
0.278331
0.277796
0.277733
0.278131
0.278976
0.280253
0.281946
0.284036
0.286502
0.289324
0.292476
0.295931
0.299659
0.303622
0.307777
0.312127
0.316559
0.320951
0.325264
0.3294
0.333247
0.336681
0.339571
0.341783
0.34319
0.343682
0.343178
0.341634
0.33905
0.33547
0.330982
0.325707
0.319789
0.313388
0.306664
0.29981
0.207936
0.073377
0.0282718
0.0206316
0.0183569
0.017667
0.0177203
0.0182401
0.0190051
0.0198966
0.0208606
0.0218397
0.0227751
0.0236161
0.0243346
0.024935
0.0254343
0.222668
0.0720738
0.028744
0.021297
0.0190275
0.0183061
0.0182929
0.0186845
0.0193066
0.0200591
0.0208734
0.0217019
0.0225065
0.0232597
0.0239519
0.0245961
0.0252177
0.231659
0.0713461
0.0292335
0.0219232
0.0196683
0.0189013
0.018822
0.0191412
0.019696
0.0203772
0.0211157
0.0218683
0.0226085
0.0233207
0.0239991
0.0246467
0.0252647
0.239493
0.0697364
0.0296316
0.0225596
0.0203521
0.0195595
0.0194292
0.0196822
0.0201664
0.02079
0.0214806
0.0221953
0.0229085
0.0236033
0.0242674
0.024892
0.0254705
0.245601
0.0679729
0.0300095
0.0232179
0.0210616
0.0202487
0.020072
0.0202629
0.0206778
0.0212272
0.0218499
0.0224968
0.0231414
0.0237667
0.0243636
0.0249308
0.0254733
0.251091
0.066307
0.0303825
0.0238834
0.0217864
0.0209676
0.0207592
0.0209022
0.0212547
0.0217311
0.0222985
0.0228942
0.0234877
0.0240608
0.0246027
0.025109
0.0255789
0.255954
0.0648637
0.0307767
0.0245578
0.0225098
0.0216814
0.021446
0.0215592
0.0218836
0.0223306
0.0228432
0.0234037
0.0239822
0.0245561
0.0251097
0.0256338
0.0261233
0.26056
0.063907
0.0312608
0.0252581
0.0232346
0.0223821
0.0221028
0.0221656
0.0224402
0.0228411
0.0233106
0.02381
0.0243142
0.0248076
0.0252823
0.0257369
0.0261763
0.265589
0.0637565
0.0319194
0.0260129
0.0239721
0.0230815
0.022753
0.0227626
0.0229843
0.0233361
0.0237621
0.024224
0.0246942
0.0251524
0.0255837
0.0259778
0.0263252
0.271682
0.0645053
0.0328154
0.0268344
0.0247271
0.0237819
0.0233989
0.0233543
0.0235225
0.0238237
0.0242046
0.0246296
0.0250745
0.0255222
0.0259614
0.0263867
0.0267987
0.27884
0.0660618
0.0339841
0.0277307
0.0255049
0.0244867
0.0240439
0.0239438
0.0240576
0.0243057
0.0246346
0.0250094
0.0254061
0.0258073
0.0262001
0.0265772
0.0269406
0.286612
0.0682927
0.0354127
0.0287124
0.0263111
0.0252002
0.0246928
0.0245376
0.0245994
0.024797
0.025077
0.0254055
0.0257605
0.0261251
0.0264838
0.0268179
0.0271035
0.294499
0.071148
0.0371284
0.029795
0.0271538
0.0259274
0.0253495
0.025139
0.0251507
0.0253
0.0255327
0.0258153
0.0261281
0.0264602
0.026805
0.0271546
0.0274976
0.301965
0.0746209
0.0391583
0.0309998
0.0280453
0.0266755
0.0260188
0.0257512
0.025714
0.0258166
0.0260034
0.0262394
0.0265043
0.0267874
0.0270853
0.027395
0.0277114
0.308396
0.0787854
0.0415316
0.032354
0.0290036
0.0274537
0.0267073
0.0263785
0.0262924
0.0263498
0.0264932
0.0266859
0.0269066
0.0271438
0.0273941
0.027653
0.0278934
0.313225
0.0837164
0.0442937
0.0338884
0.0300506
0.0282759
0.0274221
0.0270261
0.0268887
0.026901
0.027002
0.0271541
0.0273341
0.0275302
0.0277423
0.0279803
0.028249
0.315992
0.0893269
0.0474877
0.0356443
0.0312065
0.0291592
0.0281725
0.0276997
0.0275066
0.0274725
0.027531
0.0276427
0.0277833
0.0279379
0.0281028
0.0282878
0.0285181
0.316114
0.0956044
0.0511471
0.0376767
0.032496
0.0301207
0.0289696
0.0284062
0.028151
0.0280675
0.0280821
0.0281531
0.0282548
0.0283712
0.0284939
0.0286225
0.0287539
0.314115
0.102388
0.0552593
0.0400001
0.0339483
0.0311781
0.0298265
0.0291539
0.0288271
0.0286892
0.0286574
0.028686
0.0287482
0.0288273
0.0289138
0.0290068
0.0291139
0.309704
0.109135
0.0597569
0.0426244
0.0355868
0.0323489
0.0307564
0.0299509
0.0295408
0.0293411
0.029259
0.0292427
0.0292632
0.0293034
0.0293522
0.0294057
0.0294633
0.302587
0.115843
0.0646039
0.0455624
0.0374403
0.0336529
0.0317738
0.0308075
0.030298
0.0300281
0.0298896
0.0298247
0.0298009
0.0297996
0.0298093
0.0298244
0.0298388
0.296415
0.121354
0.0690646
0.0484479
0.0393365
0.03501
0.0328382
0.0317036
0.0310887
0.0307442
0.0305465
0.0304302
0.0303598
0.030315
0.0302838
0.0302604
0.0302374
0.291745
0.125869
0.0729485
0.0511024
0.0411627
0.0363609
0.0339205
0.0326258
0.0319074
0.0314878
0.0312289
0.0310593
0.0309398
0.030849
0.0307743
0.0307091
0.0306466
0.288479
0.129621
0.0762466
0.0534576
0.0428651
0.0376742
0.035006
0.0335691
0.0327535
0.0322598
0.0319386
0.031713
0.0315416
0.0314017
0.0312805
0.0311708
0.0310668
0.286455
0.132631
0.0789023
0.0554611
0.0444066
0.0389302
0.0360865
0.0345322
0.0336289
0.0330629
0.0326777
0.0323927
0.0321653
0.0319724
0.0318012
0.0316446
0.0314958
0.285501
0.134882
0.0809404
0.0571158
0.0457821
0.0401266
0.0371638
0.035519
0.0345382
0.0339015
0.0334493
0.0331003
0.0328118
0.0325608
0.0323347
0.0321256
0.0319279
0.285425
0.136614
0.0824589
0.0584527
0.0470123
0.0412829
0.0382546
0.0365426
0.0354911
0.0347822
0.0342579
0.0338384
0.0334823
0.0331671
0.0328806
0.0326147
0.0323644
0.286004
0.137696
0.0834582
0.0595048
0.0481331
0.0424305
0.0393844
0.0376223
0.0365018
0.0357146
0.0351095
0.0346104
0.034178
0.033791
0.0334376
0.0331107
0.0328037
0.287025
0.138201
0.0839903
0.0603358
0.049204
0.0436175
0.0405895
0.0387843
0.0375881
0.0367107
0.0360114
0.0354204
0.0349008
0.0344328
0.0340048
0.0336082
0.0332379
0.288291
0.138085
0.0841256
0.0610425
0.0503102
0.0449084
0.0419154
0.0400598
0.0387707
0.0377836
0.036972
0.0362731
0.0356532
0.0350933
0.0345818
0.0341089
0.0336707
0.289632
0.13733
0.0839741
0.0617581
0.0515626
0.0463836
0.0434169
0.0414846
0.0400726
0.0389479
0.0380002
0.0371738
0.0364378
0.0357735
0.0351684
0.0346144
0.0341037
0.290908
0.135977
0.0837168
0.0626657
0.0531008
0.0481383
0.045156
0.0430983
0.0415188
0.0402195
0.0391059
0.0381286
0.0372582
0.0364753
0.035766
0.0351193
0.0345266
0.292019
0.134181
0.0836282
0.0640045
0.0550927
0.0502813
0.0472015
0.0449439
0.0431367
0.0416158
0.0403005
0.0391449
0.0381194
0.0372021
0.0363765
0.0356268
0.0349459
0.292899
0.132251
0.0841109
0.0660808
0.0577365
0.0529354
0.0496284
0.0470684
0.0449567
0.0431575
0.0416114
0.0402589
0.0390586
0.0379828
0.0370128
0.036148
0.0353748
0.293505
0.130709
0.0857224
0.0692738
0.0612624
0.056238
0.0525211
0.0495261
0.047016
0.0449108
0.0430922
0.041502
0.0401007
0.0388574
0.0377454
0.0367369
0.0358261
0.293793
0.130404
0.0892044
0.0740389
0.0659373
0.0603492
0.0559812
0.0523839
0.0493891
0.046863
0.0446943
0.0428153
0.041176
0.039736
0.0384628
0.0373284
0.0363096
0.293702
0.132654
0.0955187
0.0809289
0.072084
0.0654736
0.0601456
0.055735
0.0520969
0.0490437
0.0464537
0.0442359
0.0423219
0.0406583
0.0392022
0.0379193
0.0367906
0.293154
0.13947
0.105912
0.0906418
0.0801358
0.0719061
0.0652207
0.059723
0.0552324
0.0515229
0.0484213
0.0458008
0.0435671
0.041648
0.0399865
0.0385391
0.0372811
0.292067
0.15388
0.122029
0.104124
0.0907344
0.0801096
0.0715416
0.0645839
0.0589599
0.0544109
0.0506731
0.0475638
0.0449506
0.0427346
0.0408398
0.0392066
0.0377861
0.290405
0.180469
0.146205
0.12284
0.10492
0.0908569
0.0796921
0.0707487
0.0635688
0.0579049
0.0533442
0.0496187
0.0465392
0.043967
0.0417991
0.0399559
0.0383793
0.0274133
0.0365208
0.0788136
0.351234
2.16714
5.96275
6.96838
5.88307
4.71905
4.11935
4.37334
5.28016
6.36948
4.25398
2.31776
1.02273
0.364782
0.11179
0.0379064
0.0215234
0.0281487
0.0385355
0.0811969
0.353088
2.37152
6.42345
7.08197
5.64749
4.46085
4.03175
4.34339
4.96867
5.15006
2.88417
1.43561
0.625508
0.240677
0.0878107
0.0363246
0.0221757
0.0289698
0.04079
0.0853184
0.34605
2.52861
6.83023
7.16211
5.42936
4.20698
3.77963
3.8727
3.98358
3.55889
1.80983
0.825958
0.381103
0.171061
0.0758534
0.0361594
0.0229164
0.0299131
0.0433528
0.0919256
0.335643
2.64859
7.18233
7.22606
5.2345
3.93067
3.38182
3.16978
2.87453
2.22383
1.19677
0.544123
0.285511
0.147912
0.0736343
0.0372827
0.0238115
0.031032
0.0463302
0.0995013
0.330148
2.72711
7.48744
7.29201
5.07665
3.64044
2.91309
2.47879
1.99734
1.4653
0.910573
0.51537
0.282655
0.151299
0.0772419
0.0395045
0.0249898
0.0324001
0.049866
0.108202
0.339632
2.76953
7.73441
7.35609
4.97374
3.37677
2.49869
1.97261
1.54851
1.19496
0.853106
0.558723
0.324933
0.169441
0.0856014
0.0432827
0.026753
0.0341235
0.0541598
0.118428
0.372501
2.7781
7.91161
7.42305
4.94366
3.18478
2.20438
1.68592
1.38954
1.17204
0.90482
0.622815
0.380121
0.205463
0.101723
0.0502125
0.0296048
0.0363562
0.0594968
0.130674
0.414567
2.7773
8.01201
7.49938
4.99632
3.0932
2.04312
1.56474
1.37741
1.25793
1.01354
0.717263
0.452976
0.254277
0.128881
0.0624655
0.0338845
0.0393249
0.0662871
0.145681
0.464532
2.77439
8.02242
7.57784
5.15955
3.12609
2.0056
1.55885
1.46708
1.39646
1.17778
0.856171
0.556769
0.324226
0.169279
0.0814166
0.0406664
0.0433692
0.0751106
0.16451
0.523638
2.77438
7.8951
7.61956
5.4161
3.29152
2.1172
1.63188
1.63603
1.64059
1.41721
1.06169
0.709211
0.425057
0.229128
0.111048
0.0518173
0.049005
0.08681
0.188627
0.591673
2.78701
7.55729
7.56726
5.73764
3.63872
2.39886
1.76466
1.86979
1.97955
1.77864
1.37095
0.939175
0.573929
0.317794
0.157258
0.0705249
0.0570286
0.102646
0.220245
0.669692
2.845
6.98618
7.37512
5.98131
4.0296
2.75755
1.99339
2.13935
2.37421
2.24891
1.81845
1.28986
0.803772
0.451878
0.229049
0.102062
0.0686912
0.124538
0.262832
0.763196
2.86519
6.27012
6.96713
6.00197
4.38981
3.12525
2.37949
2.39667
2.71014
2.76824
2.41248
1.81228
1.16483
0.661552
0.341662
0.155227
0.0860037
0.155461
0.321784
0.874294
2.81406
5.49795
6.40715
5.8831
4.6778
3.56648
2.84906
2.72686
2.96386
3.18291
3.07536
2.5125
1.72213
1.00084
0.522015
0.244873
0.112275
0.200337
0.401074
1.0002
2.6941
4.75116
5.78532
5.67547
4.87369
4.00483
3.36731
3.16719
3.28205
3.50581
3.60449
3.2796
2.47715
1.54257
0.820306
0.396263
0.153286
0.268522
0.511036
1.1347
2.49316
4.13718
5.157
5.36967
4.96927
4.38077
3.90558
3.68068
3.71252
3.85989
3.97919
3.83976
3.29061
2.28541
1.30444
0.658518
0.220383
0.372142
0.655142
1.2595
2.38055
3.68002
4.57976
4.97578
4.8977
4.61323
4.29529
4.11839
4.12059
4.18022
4.22496
4.12687
3.76997
3.07408
1.96538
1.08754
0.334663
0.526647
0.813232
1.33016
2.33653
3.30877
4.03769
4.4931
4.64767
4.5903
4.46478
4.34678
4.27625
4.23885
4.17535
4.04551
3.79235
3.37267
2.66549
1.63044
0.515801
0.684924
0.923387
1.39842
2.14715
2.83085
3.37992
3.80366
4.0844
4.18561
4.17215
4.10798
4.01699
3.90285
3.7741
3.59614
3.36343
3.08759
2.78523
2.1797
0.341243
0.483969
0.614826
0.793951
1.06757
1.43629
1.80031
2.09993
2.33034
2.4746
2.53814
2.53631
2.48526
2.38903
2.26509
2.1459
2.01901
1.8715
1.68623
1.4504
1.07365
1.88877
1.30003
0.642056