/*--------------------------------*- C++ -*----------------------------------*\
  =========                 |
  \\      /  F ield         | OpenFOAM: The Open Source CFD Toolbox
   \\    /   O peration     | Website:  https://openfoam.org
    \\  /    A nd           | Version:  6
     \\/     M anipulation  |
\*---------------------------------------------------------------------------*/
FoamFile
{
    version     2.0;
    format      ascii;
    class       volScalarField;
    location    "1.33";
    object      rho;
}
// * * * * * * * * * * * * * * * * * * * * * * * * * * * * * * * * * * * * * //

dimensions      [1 -3 0 0 0 0 0];

internalField   nonuniform List<scalar> 
5625
(
1.19446
1.11242
1.02883
0.948841
0.876957
0.816652
0.77039
0.739772
0.725655
0.728181
0.746862
0.780932
0.829615
0.891944
0.966093
1.04869
1.13466
1.21775
1.29174
1.35182
1.39562
1.42341
1.43758
1.44168
1.43935
1.43368
1.42691
1.4204
1.41482
1.4104
1.4071
1.40474
1.40312
1.40203
1.40132
1.40086
1.40057
1.40038
1.40026
1.40018
1.40012
1.40009
1.40006
1.40004
1.40003
1.40002
1.40002
1.40001
1.40001
1.40001
1.40001
1.40001
1.40001
1.40001
1.40001
1.40001
1.40001
1.40001
1.40001
1.40001
1.40001
1.40001
1.40001
1.40001
1.40001
1.40001
1.40001
1.40001
1.40001
1.40001
1.40001
1.40001
1.40001
1.40001
1.40001
1.22826
1.15336
1.0762
1.00162
0.934019
0.876907
0.832935
0.803862
0.790673
0.79352
0.811856
0.844826
0.891483
0.950621
1.02019
1.09675
1.17542
1.25043
1.31625
1.36877
1.40617
1.42904
1.43982
1.44183
1.43842
1.43236
1.42559
1.41927
1.41395
1.40978
1.40669
1.40448
1.40297
1.40195
1.40128
1.40085
1.40057
1.40039
1.40027
1.40019
1.40013
1.40009
1.40007
1.40005
1.40003
1.40002
1.40002
1.40001
1.40001
1.40001
1.40001
1.40001
1.40001
1.40001
1.40001
1.40001
1.40001
1.40001
1.40001
1.40001
1.40001
1.40001
1.40001
1.40001
1.40001
1.40001
1.40001
1.40001
1.40001
1.40001
1.40001
1.40001
1.40001
1.40001
1.40001
1.26329
1.19631
1.1264
1.0581
0.995616
0.942484
0.901426
0.874331
0.862232
0.865278
0.882912
0.914238
0.958181
1.01333
1.07745
1.1471
1.21765
1.28386
1.34092
1.38546
1.41623
1.43411
1.4415
1.44151
1.43712
1.43076
1.42407
1.418
1.41298
1.40909
1.40622
1.40418
1.40279
1.40185
1.40123
1.40083
1.40056
1.40039
1.40027
1.40019
1.40014
1.4001
1.40007
1.40005
1.40003
1.40003
1.40002
1.40001
1.40001
1.40001
1.40001
1.40001
1.40001
1.40001
1.40001
1.40001
1.40001
1.40001
1.40001
1.40001
1.40001
1.40001
1.40001
1.40001
1.40001
1.40001
1.40001
1.40001
1.40001
1.40001
1.40001
1.40001
1.40001
1.40001
1.40001
1.29824
1.23978
1.17786
1.11665
1.06008
1.01165
0.974095
0.949337
0.938415
0.94149
0.958037
0.987151
1.02768
1.07805
1.13592
1.1979
1.25967
1.3166
1.36461
1.40107
1.42525
1.43825
1.44244
1.44063
1.43543
1.42889
1.42237
1.41661
1.41194
1.40835
1.40572
1.40386
1.40259
1.40174
1.40117
1.4008
1.40055
1.40039
1.40027
1.40019
1.40014
1.4001
1.40007
1.40005
1.40004
1.40003
1.40002
1.40001
1.40001
1.40001
1.40001
1.40001
1.40001
1.40001
1.40001
1.40001
1.40001
1.40001
1.40001
1.40001
1.40001
1.40001
1.40001
1.40001
1.40001
1.40001
1.40001
1.40001
1.40001
1.40001
1.40001
1.40001
1.40001
1.40001
1.40001
1.33174
1.28219
1.2288
1.17529
1.12534
1.08224
1.04867
1.02651
1.01679
1.01971
1.03479
1.06117
1.09764
1.14255
1.1935
1.24723
1.29983
1.34728
1.38626
1.41482
1.43271
1.4412
1.44252
1.43916
1.43335
1.42677
1.42052
1.41514
1.41084
1.40757
1.4052
1.40353
1.40238
1.40161
1.4011
1.40076
1.40053
1.40038
1.40027
1.40019
1.40014
1.4001
1.40007
1.40005
1.40004
1.40003
1.40002
1.40001
1.40001
1.40001
1.40001
1.40001
1.40001
1.40001
1.40001
1.40001
1.40001
1.40001
1.40001
1.40001
1.40001
1.40001
1.40001
1.40001
1.40001
1.40001
1.40001
1.40001
1.40001
1.40001
1.40001
1.40001
1.40001
1.40001
1.40001
1.36243
1.32188
1.27731
1.23192
1.18903
1.15171
1.12245
1.10306
1.09455
1.09714
1.11045
1.13368
1.1656
1.20452
1.24809
1.29327
1.3366
1.37471
1.40499
1.42614
1.43828
1.44278
1.44167
1.4371
1.43092
1.42447
1.41857
1.41362
1.40972
1.40679
1.40467
1.40318
1.40217
1.40148
1.40102
1.40072
1.40051
1.40036
1.40026
1.40019
1.40014
1.4001
1.40007
1.40005
1.40004
1.40003
1.40002
1.40001
1.40001
1.40001
1.40001
1.40001
1.40001
1.40001
1.40001
1.40001
1.40001
1.40001
1.4
1.40001
1.40001
1.40001
1.40001
1.40001
1.40001
1.40001
1.40001
1.40001
1.40001
1.40001
1.40001
1.40001
1.40001
1.40001
1.40001
1.38916
1.35738
1.32154
1.28436
1.24874
1.21739
1.19262
1.17608
1.16876
1.17092
1.18227
1.20206
1.22911
1.26175
1.29776
1.3344
1.3687
1.39794
1.42018
1.43465
1.44179
1.44295
1.43993
1.43453
1.42822
1.42204
1.41657
1.41209
1.4086
1.406
1.40414
1.40284
1.40195
1.40135
1.40094
1.40067
1.40048
1.40035
1.40025
1.40018
1.40013
1.4001
1.40007
1.40005
1.40004
1.40003
1.40002
1.40001
1.40001
1.40001
1.40001
1.40001
1.40001
1.40001
1.40001
1.40001
1.40001
1.40001
1.40001
1.40001
1.40001
1.40001
1.40001
1.40001
1.40001
1.40001
1.40001
1.40001
1.40001
1.40001
1.40001
1.40001
1.40001
1.40001
1.40001
1.4111
1.38748
1.35997
1.33075
1.30226
1.27685
1.25655
1.24287
1.23672
1.2384
1.2477
1.26395
1.28603
1.31237
1.34094
1.36938
1.39523
1.41638
1.43149
1.44024
1.44325
1.44178
1.4374
1.43153
1.42533
1.41954
1.41457
1.41058
1.40751
1.40525
1.40363
1.40251
1.40174
1.40122
1.40086
1.40062
1.40045
1.40033
1.40024
1.40018
1.40013
1.40009
1.40007
1.40005
1.40003
1.40002
1.40002
1.40001
1.40001
1.40001
1.40001
1.40001
1.40001
1.40001
1.40001
1.40001
1.40001
1.40001
1.40001
1.40001
1.40001
1.40001
1.40001
1.40001
1.40001
1.40001
1.40001
1.40001
1.40001
1.40001
1.40001
1.40001
1.40001
1.40001
1.40001
1.42778
1.41144
1.39151
1.36967
1.34789
1.32813
1.31212
1.30119
1.29618
1.2974
1.30469
1.31745
1.33468
1.35497
1.37656
1.39744
1.4157
1.4298
1.4389
1.443
1.44281
1.43946
1.43423
1.42824
1.42234
1.41705
1.41263
1.40912
1.40647
1.40452
1.40315
1.40219
1.40153
1.40108
1.40078
1.40057
1.40041
1.40031
1.40023
1.40017
1.40012
1.40009
1.40006
1.40005
1.40003
1.40002
1.40002
1.40001
1.40001
1.40001
1.40001
1.40001
1.40001
1.40001
1.40001
1.40001
1.40001
1.40001
1.40001
1.40001
1.40001
1.40001
1.40001
1.40001
1.40001
1.40001
1.40001
1.40001
1.40001
1.40001
1.40001
1.40001
1.40001
1.40001
1.40001
1.43915
1.42899
1.41565
1.40035
1.38461
1.37
1.35795
1.34959
1.34565
1.34644
1.35184
1.36133
1.37405
1.3888
1.40409
1.41835
1.43013
1.43839
1.44269
1.44325
1.44077
1.43623
1.43063
1.42481
1.41936
1.41464
1.41077
1.40775
1.40549
1.40385
1.40269
1.40189
1.40134
1.40096
1.4007
1.40051
1.40038
1.40028
1.40021
1.40016
1.40012
1.40008
1.40006
1.40004
1.40003
1.40002
1.40002
1.40001
1.40001
1.40001
1.40001
1.40001
1.40001
1.40001
1.40001
1.40001
1.40001
1.4
1.40001
1.40001
1.40001
1.40001
1.40001
1.40001
1.40001
1.40001
1.40001
1.40001
1.40001
1.40001
1.40001
1.40001
1.40001
1.40001
1.40001
1.44558
1.44038
1.43247
1.42268
1.41213
1.40201
1.39345
1.38738
1.38441
1.38482
1.38852
1.39511
1.40384
1.41374
1.42366
1.4324
1.43894
1.44264
1.44337
1.44144
1.43752
1.43239
1.4268
1.42136
1.41648
1.41236
1.40904
1.40649
1.4046
1.40324
1.40228
1.40161
1.40115
1.40084
1.40062
1.40046
1.40034
1.40026
1.40019
1.40014
1.40011
1.40008
1.40006
1.40004
1.40003
1.40002
1.40002
1.40001
1.40001
1.40001
1.40001
1.40001
1.40001
1.40001
1.40001
1.40001
1.40001
1.40001
1.40001
1.40001
1.40001
1.40001
1.40001
1.40001
1.40001
1.40001
1.40001
1.40001
1.40001
1.40001
1.40001
1.40001
1.40001
1.40001
1.40001
1.44775
1.44627
1.4426
1.4372
1.43087
1.42447
1.41884
1.41472
1.41259
1.41268
1.41495
1.41906
1.42446
1.43038
1.43595
1.44035
1.44292
1.44332
1.4416
1.43813
1.43347
1.42822
1.42294
1.41804
1.41378
1.41025
1.40747
1.40536
1.4038
1.40269
1.4019
1.40136
1.40099
1.40073
1.40054
1.40041
1.40031
1.40023
1.40018
1.40013
1.4001
1.40007
1.40005
1.40004
1.40003
1.40002
1.40002
1.40001
1.40001
1.40001
1.40001
1.40001
1.40001
1.40001
1.40001
1.40001
1.40001
1.40001
1.40001
1.40001
1.40001
1.40001
1.40001
1.40001
1.40001
1.40001
1.40001
1.40001
1.40001
1.40001
1.40001
1.40001
1.40001
1.40001
1.40001
1.44658
1.44767
1.44704
1.44493
1.44184
1.43834
1.43505
1.43249
1.43105
1.4309
1.43201
1.43416
1.43693
1.43976
1.44206
1.44329
1.44307
1.4413
1.43811
1.43386
1.429
1.42399
1.41921
1.41493
1.4113
1.40836
1.40607
1.40435
1.40309
1.4022
1.40157
1.40114
1.40084
1.40063
1.40047
1.40036
1.40028
1.40021
1.40016
1.40012
1.40009
1.40007
1.40005
1.40004
1.40003
1.40002
1.40001
1.40001
1.40001
1.40001
1.40001
1.40001
1.40001
1.40001
1.40001
1.40001
1.40001
1.40001
1.40001
1.40001
1.40001
1.40001
1.40001
1.40001
1.40001
1.40001
1.40001
1.40001
1.40001
1.40001
1.40001
1.40001
1.40001
1.40001
1.40001
1.44305
1.4457
1.44706
1.44722
1.44643
1.44506
1.44351
1.44214
1.44122
1.4409
1.44116
1.44186
1.44269
1.44331
1.44334
1.44245
1.44049
1.43746
1.43357
1.42912
1.42445
1.41991
1.41574
1.41211
1.4091
1.4067
1.40485
1.40348
1.40248
1.40178
1.40128
1.40094
1.4007
1.40053
1.40041
1.40032
1.40024
1.40019
1.40014
1.40011
1.40008
1.40006
1.40004
1.40003
1.40002
1.40002
1.40001
1.40001
1.40001
1.40001
1.40001
1.40001
1.40001
1.40001
1.40001
1.40001
1.40001
1.40001
1.40001
1.40001
1.40001
1.40001
1.40001
1.40001
1.40001
1.40001
1.40001
1.40001
1.40001
1.40001
1.40001
1.40001
1.40001
1.40001
1.40001
1.4381
1.44152
1.44401
1.44555
1.44626
1.44631
1.44595
1.44542
1.44488
1.44446
1.44415
1.44385
1.44341
1.44259
1.4412
1.43907
1.43618
1.43261
1.42857
1.42431
1.42009
1.41614
1.41262
1.40963
1.40719
1.40527
1.40381
1.40273
1.40196
1.40142
1.40104
1.40077
1.40059
1.40045
1.40035
1.40027
1.40021
1.40016
1.40013
1.4001
1.40007
1.40005
1.40004
1.40003
1.40002
1.40002
1.40001
1.40001
1.40001
1.40001
1.40001
1.40001
1.40001
1.40001
1.40001
1.40001
1.40001
1.40001
1.40001
1.40001
1.40001
1.40001
1.40001
1.40001
1.40001
1.40001
1.40001
1.40001
1.40001
1.40001
1.40001
1.40001
1.40001
1.40001
1.40001
1.43254
1.43613
1.4391
1.44135
1.44288
1.44378
1.44417
1.44417
1.44389
1.44343
1.44278
1.4419
1.4407
1.43907
1.43692
1.43422
1.431
1.4274
1.42358
1.41976
1.41611
1.41279
1.40991
1.4075
1.40556
1.40406
1.40293
1.40211
1.40152
1.40111
1.40083
1.40063
1.40048
1.40038
1.4003
1.40023
1.40018
1.40014
1.40011
1.40008
1.40006
1.40005
1.40003
1.40003
1.40002
1.40001
1.40001
1.40001
1.40001
1.40001
1.40001
1.40001
1.40001
1.40001
1.40001
1.40001
1.40001
1.40001
1.40001
1.40001
1.40001
1.40001
1.40001
1.40001
1.40001
1.40001
1.40001
1.40001
1.40001
1.40001
1.40001
1.40001
1.40001
1.40001
1.40001
1.42696
1.43036
1.43335
1.43581
1.4377
1.439
1.43977
1.44008
1.43997
1.43949
1.43868
1.43752
1.43597
1.43399
1.43158
1.42877
1.42563
1.42229
1.41891
1.41563
1.4126
1.4099
1.4076
1.40571
1.40421
1.40307
1.40222
1.4016
1.40117
1.40086
1.40065
1.4005
1.40039
1.40031
1.40025
1.4002
1.40016
1.40012
1.4001
1.40007
1.40005
1.40004
1.40003
1.40002
1.40002
1.40001
1.40001
1.40001
1.40001
1.40001
1.40001
1.40001
1.40001
1.40001
1.40001
1.40001
1.40001
1.40001
1.40001
1.40001
1.40001
1.40001
1.40001
1.40001
1.40001
1.40001
1.40001
1.40001
1.40001
1.40001
1.40001
1.40001
1.40001
1.40001
1.40001
1.42175
1.42476
1.42751
1.42986
1.43177
1.43318
1.4341
1.43453
1.43451
1.43407
1.43322
1.43198
1.43035
1.42834
1.42599
1.42335
1.42052
1.41761
1.41476
1.41206
1.40961
1.40748
1.40569
1.40425
1.40312
1.40226
1.40164
1.40119
1.40088
1.40066
1.40051
1.4004
1.40032
1.40026
1.40021
1.40017
1.40013
1.4001
1.40008
1.40006
1.40005
1.40004
1.40003
1.40002
1.40002
1.40001
1.40001
1.40001
1.40001
1.40001
1.40001
1.40001
1.40001
1.40001
1.40001
1.40001
1.40001
1.40001
1.40001
1.40001
1.40001
1.40001
1.40001
1.40001
1.40001
1.40001
1.40001
1.40001
1.40001
1.40001
1.40001
1.40001
1.40001
1.40001
1.40001
1.41716
1.41969
1.42205
1.42414
1.42587
1.4272
1.42809
1.42855
1.42856
1.42816
1.42736
1.42618
1.42464
1.42279
1.42067
1.41836
1.41595
1.41353
1.41121
1.40906
1.40715
1.40551
1.40416
1.40308
1.40225
1.40163
1.40118
1.40087
1.40065
1.4005
1.40039
1.40031
1.40025
1.40021
1.40017
1.40014
1.40011
1.40009
1.40007
1.40005
1.40004
1.40003
1.40002
1.40002
1.40001
1.40001
1.40001
1.40001
1.40001
1.40001
1.40001
1.40001
1.40001
1.40001
1.40001
1.40001
1.40001
1.40001
1.40001
1.40001
1.40001
1.40001
1.40001
1.40001
1.40001
1.40001
1.40001
1.40001
1.40001
1.40001
1.40001
1.40001
1.40001
1.40001
1.40001
1.41327
1.41532
1.41726
1.41899
1.42047
1.42162
1.4224
1.4228
1.42283
1.42247
1.42175
1.4207
1.41935
1.41774
1.41594
1.41401
1.41205
1.41011
1.40829
1.40663
1.40517
1.40395
1.40295
1.40217
1.40157
1.40114
1.40083
1.40061
1.40047
1.40037
1.40029
1.40024
1.4002
1.40017
1.40014
1.40012
1.40009
1.40007
1.40006
1.40005
1.40004
1.40003
1.40002
1.40002
1.40001
1.40001
1.40001
1.40001
1.40001
1.40001
1.40001
1.40001
1.40001
1.40001
1.40001
1.40001
1.40001
1.40001
1.40001
1.40001
1.40001
1.40001
1.40001
1.40001
1.40001
1.40001
1.40001
1.40001
1.40001
1.40001
1.40001
1.40001
1.40001
1.40001
1.40001
1.41009
1.41169
1.41322
1.4146
1.41579
1.41673
1.41737
1.41769
1.4177
1.41739
1.41677
1.41587
1.41474
1.4134
1.41194
1.4104
1.40885
1.40735
1.40595
1.4047
1.40363
1.40274
1.40203
1.40147
1.40106
1.40077
1.40056
1.40042
1.40033
1.40026
1.40022
1.40019
1.40016
1.40013
1.40011
1.40009
1.40008
1.40006
1.40005
1.40004
1.40003
1.40002
1.40002
1.40001
1.40001
1.40001
1.40001
1.40001
1.40001
1.40001
1.40001
1.40001
1.40001
1.40001
1.40001
1.40001
1.40001
1.40001
1.40001
1.40001
1.40001
1.40001
1.40001
1.40001
1.40001
1.40001
1.40001
1.40001
1.40001
1.40001
1.40001
1.40001
1.40001
1.40001
1.40001
1.40756
1.40877
1.40994
1.411
1.41192
1.41264
1.41314
1.41338
1.41336
1.41308
1.41257
1.41184
1.41091
1.40985
1.40869
1.4075
1.40631
1.40518
1.40414
1.40323
1.40246
1.40183
1.40133
1.40096
1.40068
1.40049
1.40036
1.40028
1.40022
1.40019
1.40016
1.40014
1.40012
1.40011
1.40009
1.40008
1.40006
1.40005
1.40004
1.40003
1.40003
1.40002
1.40002
1.40001
1.40001
1.40001
1.40001
1.40001
1.40001
1.40001
1.40001
1.40001
1.40001
1.40001
1.40001
1.40001
1.40001
1.40001
1.40001
1.40001
1.40001
1.40001
1.40001
1.40001
1.40001
1.40001
1.40001
1.40001
1.40001
1.40001
1.40001
1.40001
1.40001
1.40001
1.40001
1.4056
1.40649
1.40736
1.40815
1.40883
1.40936
1.40971
1.40988
1.40984
1.4096
1.40918
1.40859
1.40786
1.40704
1.40615
1.40524
1.40436
1.40353
1.40278
1.40213
1.40159
1.40116
1.40083
1.40058
1.40041
1.40029
1.40022
1.40017
1.40015
1.40013
1.40011
1.4001
1.40009
1.40008
1.40007
1.40006
1.40005
1.40004
1.40003
1.40003
1.40002
1.40002
1.40001
1.40001
1.40001
1.40001
1.40001
1.40001
1.40001
1.40001
1.40001
1.40001
1.40001
1.40001
1.40001
1.40001
1.40001
1.40001
1.40001
1.40001
1.40001
1.40001
1.40001
1.40001
1.40001
1.40001
1.40001
1.40001
1.40001
1.40001
1.40001
1.40001
1.40001
1.40001
1.40001
1.4041
1.40475
1.40537
1.40594
1.40643
1.4068
1.40705
1.40714
1.40709
1.40688
1.40654
1.40607
1.40551
1.40488
1.40422
1.40355
1.40291
1.40231
1.40178
1.40134
1.40097
1.40069
1.40047
1.40032
1.40022
1.40015
1.40012
1.4001
1.40009
1.40008
1.40008
1.40008
1.40007
1.40006
1.40006
1.40005
1.40004
1.40003
1.40003
1.40002
1.40002
1.40001
1.40001
1.40001
1.40001
1.40001
1.40001
1.40001
1.40001
1.40001
1.40001
1.40001
1.40001
1.40001
1.40001
1.40001
1.40001
1.40001
1.40001
1.40001
1.40001
1.40001
1.40001
1.40001
1.40001
1.40001
1.40001
1.40001
1.40001
1.40001
1.40001
1.40001
1.40001
1.40001
1.40001
1.40298
1.40344
1.40388
1.40428
1.40461
1.40486
1.40502
1.40507
1.40499
1.40481
1.40454
1.40419
1.40376
1.40329
1.4028
1.40231
1.40185
1.40144
1.40108
1.40077
1.40054
1.40036
1.40023
1.40014
1.40009
1.40006
1.40005
1.40005
1.40005
1.40005
1.40005
1.40006
1.40005
1.40005
1.40004
1.40004
1.40003
1.40003
1.40002
1.40002
1.40001
1.40001
1.40001
1.40001
1.40001
1.40001
1.40001
1.40001
1.40001
1.40001
1.40001
1.40001
1.4
1.4
1.4
1.40001
1.40001
1.40001
1.40001
1.40001
1.40001
1.40001
1.40001
1.40001
1.40001
1.40001
1.40001
1.40001
1.40001
1.40001
1.40001
1.40001
1.40001
1.40001
1.40001
1.40216
1.40248
1.40278
1.40304
1.40327
1.40343
1.40352
1.40352
1.40345
1.4033
1.40308
1.4028
1.40248
1.40213
1.40178
1.40143
1.40112
1.40083
1.40059
1.4004
1.40025
1.40014
1.40007
1.40003
1.40001
1.4
1.4
1.40001
1.40002
1.40003
1.40004
1.40004
1.40004
1.40004
1.40003
1.40003
1.40003
1.40002
1.40002
1.40002
1.40001
1.40001
1.40001
1.40001
1.40001
1.40001
1.40001
1.40001
1.40001
1.40001
1.40001
1.40001
1.40001
1.40001
1.40001
1.40001
1.40001
1.40001
1.40001
1.40001
1.40001
1.40001
1.40001
1.40001
1.40001
1.40001
1.40001
1.40001
1.40001
1.40001
1.40001
1.40001
1.40001
1.40001
1.40001
1.40157
1.40177
1.40198
1.40216
1.40229
1.40238
1.40243
1.40241
1.40233
1.40221
1.40204
1.40182
1.40158
1.40133
1.40108
1.40084
1.40062
1.40043
1.40027
1.40015
1.40006
1.4
1.39997
1.39996
1.39996
1.39996
1.39998
1.39999
1.4
1.40001
1.40002
1.40003
1.40003
1.40003
1.40003
1.40002
1.40002
1.40002
1.40002
1.40001
1.40001
1.40001
1.40001
1.40001
1.40001
1.40001
1.40001
1.40001
1.40001
1.40001
1.40001
1.40001
1.4
1.40001
1.40001
1.40001
1.40001
1.40001
1.40001
1.40001
1.40001
1.40001
1.40001
1.40001
1.40001
1.40001
1.40001
1.40001
1.40001
1.40001
1.40001
1.40001
1.40001
1.40001
1.40001
1.40113
1.40128
1.40141
1.40152
1.4016
1.40165
1.40165
1.40162
1.40156
1.40145
1.4013
1.40114
1.40096
1.40078
1.4006
1.40044
1.40029
1.40017
1.40007
1.4
1.39995
1.39992
1.39991
1.39992
1.39993
1.39995
1.39996
1.39998
1.39999
1.4
1.40001
1.40002
1.40002
1.40002
1.40002
1.40002
1.40002
1.40002
1.40001
1.40001
1.40001
1.40001
1.40001
1.40001
1.40001
1.40001
1.40001
1.40001
1.40001
1.40001
1.40001
1.40001
1.40001
1.40001
1.40001
1.40001
1.40001
1.40001
1.40001
1.40001
1.40001
1.40001
1.40001
1.40001
1.40001
1.40001
1.40001
1.40001
1.40001
1.40001
1.40001
1.40001
1.40001
1.40001
1.40001
1.40083
1.40092
1.401
1.40107
1.40111
1.40113
1.40112
1.40108
1.40101
1.40093
1.40081
1.40069
1.40056
1.40042
1.4003
1.40018
1.40009
1.40001
1.39995
1.39991
1.39989
1.39988
1.39989
1.3999
1.39992
1.39994
1.39996
1.39997
1.39999
1.4
1.40001
1.40001
1.40001
1.40002
1.40002
1.40002
1.40001
1.40001
1.40001
1.40001
1.40001
1.40001
1.40001
1.40001
1.40001
1.40001
1.40001
1.40001
1.40001
1.40001
1.40001
1.40001
1.40001
1.40001
1.40001
1.40001
1.40001
1.40001
1.40001
1.40001
1.40001
1.40001
1.40001
1.40001
1.40001
1.40001
1.40001
1.40001
1.40001
1.40001
1.40001
1.40001
1.40001
1.40001
1.40001
1.40061
1.40067
1.40072
1.40075
1.40077
1.40077
1.40076
1.40071
1.40065
1.40058
1.40049
1.40039
1.40029
1.4002
1.40011
1.40003
1.39997
1.39992
1.39989
1.39987
1.39987
1.39987
1.39988
1.3999
1.39992
1.39994
1.39996
1.39997
1.39998
1.39999
1.4
1.40001
1.40001
1.40001
1.40001
1.40001
1.40001
1.40001
1.40001
1.40001
1.40001
1.40001
1.40001
1.40001
1.40001
1.40001
1.40001
1.40001
1.40001
1.40001
1.40001
1.40001
1.40001
1.40001
1.40001
1.40001
1.40001
1.40001
1.40001
1.40001
1.40001
1.40001
1.40001
1.40001
1.40001
1.40001
1.40001
1.40001
1.40001
1.40001
1.40001
1.40001
1.40001
1.40001
1.40001
1.40045
1.40049
1.40052
1.40053
1.40054
1.40053
1.4005
1.40047
1.40041
1.40035
1.40028
1.40021
1.40013
1.40007
1.4
1.39995
1.39991
1.39988
1.39986
1.39986
1.39986
1.39987
1.39989
1.3999
1.39992
1.39994
1.39996
1.39997
1.39998
1.39999
1.4
1.4
1.40001
1.40001
1.40001
1.40001
1.40001
1.40001
1.40001
1.40001
1.40001
1.40001
1.40001
1.40001
1.40001
1.40001
1.40001
1.40001
1.40001
1.40001
1.40001
1.40001
1.40001
1.40001
1.40001
1.40001
1.40001
1.40001
1.40001
1.40001
1.40001
1.40001
1.40001
1.40001
1.40001
1.40001
1.40001
1.40001
1.40001
1.40001
1.40001
1.40001
1.40001
1.40001
1.40001
1.40033
1.40036
1.40038
1.40038
1.40038
1.40036
1.40034
1.4003
1.40026
1.40021
1.40015
1.4001
1.40004
1.39999
1.39995
1.39991
1.39988
1.39987
1.39986
1.39986
1.39987
1.39988
1.3999
1.39991
1.39993
1.39995
1.39996
1.39997
1.39998
1.39999
1.4
1.4
1.40001
1.40001
1.40001
1.40001
1.40001
1.40001
1.40001
1.40001
1.40001
1.40001
1.40001
1.40001
1.40001
1.40001
1.40001
1.40001
1.40001
1.40001
1.40001
1.40001
1.40001
1.40001
1.40001
1.40001
1.40001
1.40001
1.40001
1.40001
1.40001
1.40001
1.40001
1.40001
1.40001
1.40001
1.40001
1.40001
1.40001
1.40001
1.40001
1.40001
1.40001
1.40001
1.40001
1.40025
1.40027
1.40028
1.40028
1.40027
1.40025
1.40023
1.4002
1.40016
1.40012
1.40008
1.40003
1.39999
1.39995
1.39992
1.3999
1.39988
1.39987
1.39987
1.39987
1.39988
1.3999
1.39991
1.39992
1.39994
1.39995
1.39997
1.39998
1.39999
1.39999
1.4
1.4
1.40001
1.40001
1.40001
1.40001
1.40001
1.40001
1.40001
1.40001
1.40001
1.40001
1.40001
1.40001
1.40001
1.40001
1.40001
1.40001
1.40001
1.40001
1.40001
1.40001
1.40001
1.40001
1.40001
1.40001
1.40001
1.40001
1.40001
1.40001
1.40001
1.40001
1.40001
1.40001
1.40001
1.40001
1.40001
1.40001
1.40001
1.40001
1.40001
1.40001
1.40001
1.40001
1.40001
1.40019
1.4002
1.4002
1.4002
1.4002
1.40018
1.40016
1.40013
1.4001
1.40007
1.40003
1.4
1.39997
1.39994
1.39992
1.3999
1.39989
1.39989
1.39989
1.39989
1.3999
1.39991
1.39992
1.39994
1.39995
1.39996
1.39997
1.39998
1.39999
1.39999
1.4
1.4
1.4
1.40001
1.40001
1.40001
1.40001
1.40001
1.40001
1.40001
1.40001
1.40001
1.40001
1.40001
1.40001
1.40001
1.40001
1.40001
1.40001
1.40001
1.40001
1.40001
1.40001
1.40001
1.40001
1.40001
1.40001
1.40001
1.40001
1.40001
1.40001
1.40001
1.40001
1.40001
1.40001
1.40001
1.40001
1.40001
1.40001
1.40001
1.40001
1.40001
1.40001
1.40001
1.40001
1.40015
1.40015
1.40015
1.40015
1.40014
1.40013
1.40011
1.40009
1.40006
1.40003
1.40001
1.39998
1.39996
1.39994
1.39992
1.39991
1.3999
1.3999
1.3999
1.39991
1.39992
1.39993
1.39994
1.39995
1.39996
1.39997
1.39998
1.39999
1.39999
1.4
1.4
1.4
1.4
1.4
1.40001
1.40001
1.40001
1.40001
1.40001
1.40001
1.40001
1.40001
1.40001
1.40001
1.40001
1.40001
1.40001
1.40001
1.40001
1.40001
1.40001
1.40001
1.40001
1.40001
1.40001
1.40001
1.40001
1.40001
1.40001
1.40001
1.40001
1.40001
1.40001
1.40001
1.40001
1.40001
1.40001
1.40001
1.40001
1.40001
1.40001
1.40001
1.40001
1.40001
1.40001
1.40011
1.40012
1.40012
1.40011
1.40011
1.40009
1.40008
1.40006
1.40004
1.40002
1.4
1.39998
1.39996
1.39995
1.39993
1.39992
1.39992
1.39992
1.39992
1.39993
1.39993
1.39994
1.39995
1.39996
1.39997
1.39998
1.39998
1.39999
1.39999
1.4
1.4
1.4
1.4
1.4
1.4
1.4
1.4
1.40001
1.40001
1.40001
1.40001
1.40001
1.40001
1.40001
1.40001
1.40001
1.40001
1.40001
1.40001
1.4
1.4
1.4
1.4
1.40001
1.40001
1.40001
1.40001
1.40001
1.40001
1.40001
1.40001
1.40001
1.40001
1.40001
1.40001
1.40001
1.40001
1.40001
1.40001
1.40001
1.40001
1.40001
1.40001
1.40001
1.40001
1.40009
1.40009
1.40009
1.40009
1.40008
1.40007
1.40006
1.40004
1.40003
1.40001
1.39999
1.39998
1.39996
1.39995
1.39994
1.39994
1.39994
1.39993
1.39994
1.39994
1.39995
1.39995
1.39996
1.39997
1.39998
1.39998
1.39999
1.39999
1.4
1.4
1.4
1.4
1.4
1.4
1.4
1.40001
1.40001
1.40001
1.40001
1.40001
1.40001
1.40001
1.40001
1.40001
1.40001
1.40001
1.40001
1.40001
1.40001
1.40001
1.40001
1.40001
1.40001
1.40001
1.40001
1.40001
1.40001
1.40001
1.40001
1.40001
1.40001
1.40001
1.40001
1.40001
1.40001
1.40001
1.40001
1.40001
1.40001
1.40001
1.40001
1.40001
1.40001
1.40001
1.40001
1.40007
1.40007
1.40007
1.40006
1.40006
1.40005
1.40004
1.40003
1.40002
1.4
1.39999
1.39998
1.39997
1.39996
1.39996
1.39995
1.39995
1.39995
1.39995
1.39995
1.39996
1.39997
1.39997
1.39998
1.39998
1.39999
1.39999
1.39999
1.4
1.4
1.4
1.4
1.4
1.4
1.4
1.40001
1.4
1.40001
1.40001
1.40001
1.40001
1.40001
1.40001
1.40001
1.40001
1.40001
1.40001
1.4
1.4
1.4
1.4
1.4
1.4
1.40001
1.40001
1.40001
1.40001
1.40001
1.40001
1.40001
1.40001
1.40001
1.40001
1.40001
1.40001
1.40001
1.40001
1.40001
1.40001
1.40001
1.40001
1.40001
1.40001
1.40001
1.40001
1.40005
1.40005
1.40005
1.40005
1.40004
1.40004
1.40003
1.40002
1.40001
1.4
1.39999
1.39998
1.39998
1.39997
1.39997
1.39996
1.39996
1.39996
1.39996
1.39997
1.39997
1.39997
1.39998
1.39998
1.39999
1.39999
1.39999
1.4
1.4
1.4
1.4
1.4
1.4
1.4
1.4
1.4
1.40001
1.40001
1.40001
1.40001
1.40001
1.40001
1.40001
1.4
1.4
1.4
1.40001
1.40001
1.40001
1.40001
1.40001
1.40001
1.40001
1.40001
1.40001
1.40001
1.40001
1.40001
1.40001
1.40001
1.40001
1.40001
1.40001
1.40001
1.40001
1.40001
1.40001
1.40001
1.40001
1.40001
1.40001
1.40001
1.40001
1.40001
1.40001
1.40004
1.40004
1.40004
1.40004
1.40003
1.40003
1.40002
1.40002
1.40001
1.4
1.4
1.39999
1.39998
1.39998
1.39997
1.39997
1.39997
1.39997
1.39997
1.39998
1.39998
1.39998
1.39998
1.39999
1.39999
1.39999
1.4
1.4
1.4
1.4
1.4
1.4
1.4
1.4
1.4
1.40001
1.40001
1.4
1.4
1.4
1.4
1.4
1.40001
1.40001
1.40001
1.40001
1.4
1.4
1.4
1.4
1.4
1.4
1.40001
1.40001
1.40001
1.40001
1.40001
1.40001
1.40001
1.40001
1.40001
1.40001
1.40001
1.40001
1.40001
1.40001
1.40001
1.40001
1.40001
1.40001
1.40001
1.40001
1.40001
1.40001
1.40001
1.40003
1.40003
1.40003
1.40003
1.40003
1.40002
1.40002
1.40001
1.40001
1.4
1.4
1.39999
1.39999
1.39998
1.39998
1.39998
1.39998
1.39998
1.39998
1.39998
1.39999
1.39999
1.39999
1.39999
1.4
1.4
1.4
1.4
1.4
1.4
1.4
1.4
1.4
1.4
1.4
1.4
1.4
1.4
1.4
1.40001
1.40001
1.40001
1.4
1.4
1.4
1.40001
1.40001
1.40001
1.40001
1.40001
1.40001
1.40001
1.40001
1.40001
1.40001
1.40001
1.40001
1.40001
1.40001
1.40001
1.40001
1.40001
1.40001
1.40001
1.40001
1.40001
1.40001
1.40001
1.40001
1.40001
1.40001
1.40001
1.40001
1.40001
1.40001
1.40002
1.40002
1.40002
1.40002
1.40002
1.40002
1.40001
1.40001
1.40001
1.4
1.4
1.4
1.39999
1.39999
1.39999
1.39999
1.39999
1.39999
1.39999
1.39999
1.39999
1.39999
1.39999
1.4
1.4
1.4
1.4
1.4
1.4
1.4
1.4
1.4
1.4
1.4
1.4
1.4
1.40001
1.40001
1.40001
1.40001
1.40001
1.40001
1.40001
1.40001
1.40001
1.4
1.4
1.4
1.4
1.4
1.40001
1.40001
1.40001
1.40001
1.40001
1.40001
1.40001
1.40001
1.40001
1.40001
1.40001
1.40001
1.40001
1.40001
1.40001
1.40001
1.40001
1.40001
1.40001
1.40001
1.40001
1.40001
1.40001
1.40001
1.40001
1.40002
1.40002
1.40002
1.40002
1.40002
1.40001
1.40001
1.40001
1.40001
1.4
1.4
1.4
1.4
1.39999
1.39999
1.39999
1.39999
1.39999
1.39999
1.39999
1.39999
1.4
1.4
1.4
1.4
1.4
1.4
1.4
1.4
1.4
1.4
1.4
1.4
1.40001
1.40001
1.40001
1.40001
1.40001
1.40001
1.40001
1.40001
1.40001
1.40001
1.40001
1.40001
1.40001
1.40001
1.40001
1.40001
1.40001
1.40001
1.40001
1.40001
1.40001
1.40001
1.40001
1.40001
1.40001
1.40001
1.40001
1.40001
1.40001
1.40001
1.40001
1.40001
1.40001
1.40001
1.40001
1.40001
1.40001
1.40001
1.40001
1.40001
1.40001
1.40001
1.40001
1.40001
1.40001
1.40001
1.40001
1.40001
1.40001
1.40001
1.40001
1.4
1.4
1.4
1.4
1.4
1.4
1.39999
1.4
1.39999
1.4
1.4
1.4
1.4
1.4
1.4
1.4
1.4
1.4
1.4
1.4
1.4
1.4
1.4
1.4
1.4
1.40001
1.40001
1.40001
1.40001
1.4
1.4
1.4
1.4
1.40001
1.40001
1.4
1.4
1.4
1.4
1.40001
1.40001
1.40001
1.40001
1.40001
1.40001
1.40001
1.40001
1.40001
1.40001
1.40001
1.40001
1.40001
1.40001
1.40001
1.40001
1.40001
1.40001
1.40001
1.40001
1.40001
1.40001
1.40001
1.40001
1.40001
1.40001
1.40001
1.40001
1.40001
1.40001
1.40001
1.40001
1.40001
1.40001
1.40001
1.40001
1.4
1.4
1.4
1.4
1.4
1.4
1.4
1.4
1.4
1.4
1.4
1.4
1.4
1.4
1.4
1.4
1.4
1.4
1.4
1.4
1.4
1.4
1.4
1.4
1.4
1.4
1.4
1.4
1.4
1.40001
1.40001
1.40001
1.40001
1.40001
1.40001
1.40001
1.40001
1.40001
1.40001
1.40001
1.40001
1.40001
1.40001
1.40001
1.40001
1.40001
1.40001
1.40001
1.40001
1.40001
1.40001
1.40001
1.40001
1.40001
1.40001
1.40001
1.40001
1.40001
1.40001
1.40001
1.40001
1.40001
1.40001
1.40001
1.40001
1.40001
1.40001
1.40001
1.40001
1.40001
1.40001
1.40001
1.40001
1.40001
1.40001
1.4
1.4
1.4
1.4
1.4
1.4
1.4
1.4
1.4
1.4
1.4
1.4
1.4
1.4
1.4
1.4
1.4
1.4
1.4
1.4
1.4
1.4
1.4
1.40001
1.40001
1.40001
1.40001
1.4
1.4
1.4
1.4
1.40001
1.40001
1.40001
1.40001
1.40001
1.40001
1.40001
1.40001
1.40001
1.40001
1.40001
1.40001
1.40001
1.40001
1.40001
1.40001
1.40001
1.40001
1.40001
1.40001
1.40001
1.40001
1.40001
1.40001
1.40001
1.40001
1.40001
1.40001
1.40001
1.40001
1.40001
1.40001
1.40001
1.40001
1.40001
1.40001
1.40001
1.40001
1.40001
1.40001
1.40001
1.40001
1.40001
1.40001
1.4
1.4
1.4
1.4
1.4
1.4
1.4
1.4
1.4
1.4
1.4
1.4
1.4
1.4
1.4
1.4
1.4
1.4
1.4
1.4
1.4
1.4
1.4
1.40001
1.4
1.4
1.4
1.4
1.4
1.40001
1.40001
1.40001
1.40001
1.40001
1.40001
1.40001
1.40001
1.40001
1.40001
1.40001
1.40001
1.40001
1.40001
1.40001
1.40001
1.40001
1.40001
1.40001
1.40001
1.40001
1.40001
1.40001
1.40001
1.40001
1.40001
1.40001
1.40001
1.40001
1.40001
1.40001
1.40001
1.40001
1.40001
1.40001
1.40001
1.40001
1.40001
1.40001
1.40001
1.40001
1.40001
1.40001
1.40001
1.40001
1.40001
1.4
1.4
1.4
1.4
1.4
1.4
1.4
1.4
1.4
1.4
1.4
1.4
1.4
1.4
1.4
1.4
1.4
1.4
1.4
1.4
1.4
1.40001
1.40001
1.40001
1.4
1.4
1.4
1.40001
1.40001
1.40001
1.40001
1.40001
1.40001
1.40001
1.40001
1.40001
1.40001
1.40001
1.40001
1.40001
1.40001
1.40001
1.40001
1.40001
1.40001
1.40001
1.40001
1.40001
1.40001
1.40001
1.40001
1.40001
1.40001
1.40001
1.40001
1.40001
1.40001
1.40001
1.40001
1.40001
1.40001
1.40001
1.40001
1.40001
1.40001
1.40001
1.40001
1.40001
1.40001
1.40001
1.40001
1.40001
1.40001
1.40001
1.4
1.4
1.4
1.4
1.4
1.4
1.4
1.4
1.4
1.4
1.4
1.4
1.4
1.4
1.4
1.4
1.4
1.4
1.4
1.4
1.4
1.4
1.40001
1.40001
1.4
1.4
1.4
1.4
1.4
1.4
1.4
1.40001
1.40001
1.40001
1.40001
1.40001
1.40001
1.40001
1.40001
1.40001
1.40001
1.40001
1.40001
1.40001
1.40001
1.40001
1.40001
1.40001
1.40001
1.40001
1.40001
1.40001
1.40001
1.40001
1.40001
1.40001
1.40001
1.40001
1.40001
1.40001
1.40001
1.40001
1.40001
1.40001
1.40001
1.40001
1.40001
1.40001
1.40001
1.40001
1.40001
1.40001
1.40001
1.40001
1.40001
1.40001
1.40001
1.4
1.4
1.4
1.4
1.4
1.4
1.4
1.4
1.4
1.4
1.4
1.4
1.4
1.4
1.4
1.4
1.4
1.4
1.40001
1.40001
1.4
1.4
1.4
1.40001
1.40001
1.40001
1.40001
1.40001
1.40001
1.40001
1.40001
1.40001
1.40001
1.40001
1.40001
1.40001
1.40001
1.40001
1.40001
1.40001
1.40001
1.40001
1.40001
1.40001
1.40001
1.40001
1.40001
1.40001
1.40001
1.40001
1.40001
1.40001
1.40001
1.40001
1.40001
1.40001
1.40001
1.40001
1.40001
1.40001
1.40001
1.40001
1.40001
1.40001
1.40001
1.40001
1.40001
1.40001
1.40001
1.40001
1.40001
1.40001
1.40001
1.40001
1.4
1.4
1.4
1.4
1.4
1.4
1.4
1.4
1.4
1.4
1.4
1.4
1.4
1.4
1.4
1.4
1.4
1.4
1.40001
1.40001
1.4
1.4
1.4
1.4
1.4
1.40001
1.40001
1.40001
1.40001
1.40001
1.40001
1.40001
1.40001
1.40001
1.40001
1.40001
1.40001
1.40001
1.40001
1.40001
1.40001
1.40001
1.40001
1.40001
1.40001
1.40001
1.40001
1.40001
1.40001
1.40001
1.40001
1.40001
1.40001
1.40001
1.40001
1.40001
1.40001
1.40001
1.40001
1.40001
1.40001
1.40001
1.40001
1.40001
1.40001
1.40001
1.40001
1.40001
1.40001
1.40001
1.40001
1.40001
1.4
1.40001
1.40001
1.40001
1.4
1.4
1.4
1.4
1.4
1.4
1.4
1.4
1.4
1.4
1.4
1.4
1.4
1.4
1.40001
1.40001
1.40001
1.40001
1.4
1.4
1.4
1.4
1.40001
1.40001
1.40001
1.40001
1.40001
1.40001
1.40001
1.40001
1.40001
1.40001
1.40001
1.40001
1.40001
1.40001