/*--------------------------------*- C++ -*----------------------------------*\
  =========                 |
  \\      /  F ield         | OpenFOAM: The Open Source CFD Toolbox
   \\    /   O peration     | Website:  https://openfoam.org
    \\  /    A nd           | Version:  6
     \\/     M anipulation  |
\*---------------------------------------------------------------------------*/
FoamFile
{
    version     2.0;
    format      ascii;
    class       volScalarField;
    location    "3.8";
    object      epsilon;
}
// * * * * * * * * * * * * * * * * * * * * * * * * * * * * * * * * * * * * * //

dimensions      [0 2 -3 0 0 0 0];

internalField   nonuniform List<scalar> 
4214
(
0.234961
0.0841899
0.0342567
0.0180052
0.0132073
0.0127697
0.0154473
0.0238763
0.0489261
0.118819
0.291267
0.636861
1.17105
1.80665
2.37633
2.73971
2.83462
2.72941
2.48684
2.18512
2.02362
2.2134
2.69075
3.24928
3.94842
5.27788
7.70518
10.707
12.5431
11.5844
6.86654
2.02698
0.248331
0.0276476
0.0136059
0.0112546
0.011432
0.0148563
0.0271061
0.0652918
0.178877
0.0280403
0.0165778
0.012532
0.0113956
0.0116456
0.0131742
0.0175819
0.0298486
0.0668953
0.170973
0.423914
0.909544
1.61553
2.39093
3.03206
3.37647
3.36932
3.09795
2.69477
2.31062
2.10656
2.23491
2.69691
3.35921
4.3802
6.23088
9.06838
11.9464
13.1915
11.3832
6.32911
1.80714
0.219696
0.0271544
0.0139835
0.0113004
0.0104087
0.0102567
0.01093
0.0134519
0.0208782
0.0116952
0.0109744
0.0108823
0.0112303
0.0121936
0.0144644
0.0207415
0.0384535
0.0934738
0.247885
0.613464
1.28033
2.19237
3.13975
3.86053
4.15751
4.00844
3.55977
3.00044
2.50622
2.22185
2.29063
2.77633
3.61838
5.13664
7.60499
10.7147
13.1784
13.5094
10.6811
5.52866
1.48972
0.178883
0.0258733
0.0142389
0.0115621
0.0105697
0.0101488
0.0100125
0.010116
0.0106206
0.0109172
0.0109435
0.0112079
0.0118041
0.0131382
0.0162407
0.0251842
0.0508842
0.132845
0.360629
0.882828
1.78965
2.96806
4.11884
4.89574
5.0605
4.68705
4.01056
3.28791
2.7071
2.40177
2.51982
3.19731
4.37082
6.49911
9.45322
12.4568
14.1085
13.2347
9.56621
4.57628
1.15119
0.139004
0.0246648
0.0145601
0.0119088
0.0108746
0.0104084
0.0101948
0.0101179
0.0101732
0.0111635
0.011351
0.011752
0.0125468
0.0143447
0.0185881
0.0314358
0.0688174
0.190762
0.523075
1.25887
2.48332
3.99508
5.36119
6.10681
6.01507
5.32554
4.39517
3.53551
2.93094
2.71761
3.06392
4.12717
5.83736
8.49688
11.5111
13.8755
14.3603
12.3138
8.12356
3.54202
0.821618
0.103087
0.0235146
0.0148855
0.0122815
0.0112147
0.0107223
0.0104865
0.0103741
0.0103436
0.011617
0.0118877
0.0124118
0.0134484
0.0158868
0.0217167
0.0403052
0.09462
0.275156
0.753579
1.78185
3.42643
5.33608
6.86315
7.40327
6.91957
5.85105
4.69094
3.7938
3.32169
3.39955
4.20378
5.76913
8.01547
10.7917
13.2813
14.5476
13.7572
10.7727
6.44403
2.52866
0.540451
0.0751476
0.0226563
0.0152726
0.0127082
0.0116042
0.0110846
0.0108332
0.010709
0.0106583
0.0121677
0.0125127
0.0131856
0.0145426
0.0178826
0.0259079
0.0529298
0.131431
0.396483
1.07651
2.5073
4.68092
7.0191
8.54427
8.66044
7.66554
6.23857
5.01373
4.2494
4.07877
4.62727
5.98127
7.99836
10.4313
12.7987
14.3128
14.2813
12.3267
8.75652
4.6955
1.64499
0.330347
0.055969
0.0221945
0.0157573
0.0132025
0.0120482
0.0114951
0.011229
0.011099
0.011043
0.0127927
0.0132234
0.0140953
0.0158851
0.0204991
0.0315263
0.0708732
0.183201
0.568387
1.52569
3.49524
6.324
8.99233
10.2434
9.74291
8.228
6.64899
5.505
5.01656
5.28788
6.35751
8.12726
10.3004
12.4408
13.9742
14.2921
13.0241
10.216
6.52074
3.10013
0.971209
0.194073
0.0444587
0.0222214
0.0163957
0.0137914
0.0125611
0.0119607
0.0116755
0.01154
0.0114837
0.013488
0.0140302
0.0151787
0.0175522
0.0239647
0.0390228
0.096227
0.254618
0.808241
2.14623
4.81924
8.34922
11.115
11.7917
10.5972
8.75851
7.15113
6.20921
6.09477
6.81925
8.26173
10.1445
12.059
13.5059
13.982
13.1297
10.9136
7.72278
4.38464
1.84058
0.529299
0.117552
0.0387168
0.0228315
0.0172657
0.0145155
0.0131655
0.0124929
0.0121786
0.0120343
0.0119788
0.0142615
0.0149546
0.0164913
0.0196413
0.0285831
0.0489202
0.131718
0.350997
1.13712
2.97913
6.52088
10.6618
13.2146
13.0806
11.3368
9.29245
7.74902
7.0719
7.31008
8.33019
9.85276
11.4978
12.815
13.3538
12.7792
11.007
8.29476
5.2476
2.63739
0.992994
0.282993
0.080776
0.0370751
0.0241482
0.0184737
0.0154332
0.0138955
0.0131095
0.0127482
0.0125873
0.0125326
0.0151354
0.0160289
0.0181108
0.0222695
0.0347495
0.0617623
0.180755
0.477489
1.58788
4.05786
8.56504
13.1216
15.1078
14.1771
12.003
9.82447
8.37952
7.92802
8.37166
9.43274
10.7272
11.8529
12.3919
12.0188
10.6128
8.3369
5.65302
3.1864
1.43807
0.516051
0.167991
0.067258
0.0385859
0.0263673
0.0201724
0.0166281
0.0148012
0.013836
0.0133989
0.0132061
0.0131495
0.0161429
0.0172925
0.0201424
0.0255672
0.0429694
0.078031
0.247477
0.638883
2.1787
5.37335
10.8559
15.5652
16.7186
15.1418
12.6082
10.3168
8.93169
8.57625
9.00905
9.85164
10.6961
11.1562
10.9173
9.82413
7.96163
5.67238
3.4626
1.77154
0.762801
0.297002
0.126945
0.0671842
0.0431129
0.0298384
0.0226145
0.0182344
0.0159664
0.0147124
0.0141532
0.0138991
0.0138323
0.0173255
0.0187904
0.0227333
0.0296689
0.0538893
0.0980206
0.336877
0.836632
2.92696
6.85655
13.2381
17.7984
18.1304
16.026
13.1583
10.7252
9.30296
8.87724
9.09594
9.5417
9.82681
9.63131
8.78439
7.30096
5.4189
3.52528
1.99317
0.992187
0.463646
0.224697
0.125125
0.0765184
0.0513334
0.035155
0.0262302
0.0204714
0.0175372
0.0158065
0.0150532
0.0146841
0.0145901
0.0187375
0.0205726
0.0260987
0.0346944
0.0683687
0.121671
0.454935
1.06501
3.82776
8.3758
15.5625
19.7253
19.4408
16.8837
13.6736
11.0331
9.4524
8.81269
8.68948
8.6612
8.39994
7.70202
6.53044
5.02692
3.47242
2.15059
1.22542
0.67338
0.383655
0.230022
0.148405
0.0952413
0.064966
0.0433009
0.0317755
0.0236961
0.0197771
0.0172307
0.0161771
0.0155913
0.015443
0.0204627
0.0226904
0.0305761
0.0407072
0.0876058
0.148286
0.609093
1.30655
4.85848
9.75511
17.6776
21.3906
20.7015
17.7838
14.2042
11.2808
9.42892
8.47404
7.95834
7.48994
6.80934
5.84121
4.64554
3.39845
2.30911
1.49075
0.959398
0.626648
0.425119
0.284526
0.196231
0.126279
0.0873805
0.0558617
0.0406396
0.0284834
0.0231853
0.0191709
0.0176761
0.0166656
0.0164249
0.022664
0.025177
0.0367387
0.047617
0.113414
0.17603
0.809686
1.52705
6.00821
10.7957
19.4474
22.8872
21.911
18.8182
14.8181
11.5727
9.35022
8.03624
7.14351
6.33452
5.41403
4.40267
3.39293
2.4992
1.81774
1.32081
0.99008
0.735299
0.551205
0.38419
0.277842
0.175022
0.124946
0.0752124
0.0554999
0.0356993
0.0287623
0.0219162
0.0198759
0.0179811
0.01761
0.0257221
0.0279655
0.0456611
0.0549144
0.148869
0.200899
1.07407
1.67145
7.33367
11.2659
20.8047
24.2009
22.9125
20.1352
15.5528
12.095
9.38262
7.6966
6.45975
5.43464
4.44908
3.52942
2.78179
2.16875
1.77011
1.43165
1.1971
0.949314
0.764061
0.535145
0.413342
0.248223
0.190035
0.104264
0.0818519
0.0463967
0.0386582
0.025825
0.0235275
0.0196493
0.0191932
0.0184801
0.0173588
0.0163485
0.0154336
0.0146015
0.013842
0.013149
0.012522
0.0119623
0.0114663
0.0110299
0.0106622
0.0104006
0.010434
0.0119922
0.0414218
0.507155
0.0185817
0.0175547
0.0166207
0.0157615
0.0149646
0.0142253
0.0135449
0.0129259
0.0123695
0.0118739
0.0114377
0.0110757
0.0108391
0.0109476
0.0129522
0.0464948
0.566017
0.0187572
0.0178161
0.0169475
0.0161345
0.0153689
0.0146505
0.0139844
0.0133762
0.0128269
0.0123361
0.0119052
0.0115553
0.0113495
0.011562
0.0140893
0.0524293
0.628791
0.0189869
0.0181434
0.0173278
0.0165505
0.0158104
0.0151101
0.0144582
0.0138627
0.0133244
0.0128442
0.0124251
0.0120949
0.0119316
0.0122778
0.0154339
0.0598578
0.699687
0.0194067
0.0185544
0.0177616
0.0170084
0.0162886
0.0156056
0.0149699
0.0143898
0.0138666
0.0134013
0.0129993
0.0126962
0.0125902
0.0130997
0.0170107
0.068899
0.778924
0.0197168
0.0189759
0.0182306
0.0175031
0.0168021
0.0161375
0.0155212
0.0149604
0.014456
0.0140094
0.0136289
0.0133592
0.0133233
0.0140282
0.0188249
0.0793967
0.865713
0.0202927
0.0194985
0.0187551
0.0180403
0.0173546
0.0167096
0.0161163
0.0155791
0.015097
0.0146721
0.0143169
0.0140867
0.0141348
0.0150645
0.0208702
0.0909396
0.958754
0.0206685
0.0200006
0.0193051
0.0186144
0.0179487
0.0173271
0.0167607
0.0162507
0.0157939
0.0153933
0.0150671
0.014883
0.0150288
0.0162154
0.0231352
0.103189
1.05686
0.0213707
0.0206201
0.0199148
0.0192354
0.0185913
0.0179979
0.017462
0.0169813
0.0165518
0.0161781
0.0158846
0.0157538
0.0160115
0.0174841
0.0256046
0.115794
1.15791
0.0218125
0.0212014
0.0205465
0.0198978
0.0192862
0.0187286
0.0182275
0.0177782
0.0173772
0.0170328
0.0167762
0.0167062
0.0170903
0.0188806
0.0282603
0.128368
1.25969
0.0226321
0.0219157
0.0212466
0.0206178
0.0200425
0.019526
0.0190636
0.0186478
0.0182773
0.0179648
0.0177506
0.0177496
0.0182761
0.0204174
0.0311123
0.140725
1.36089
0.0231477
0.0225836
0.0219746
0.0213926
0.020866
0.0203966
0.0199757
0.0195961
0.019259
0.0189821
0.0188166
0.0188941
0.0195831
0.0221155
0.0341978
0.152831
1.45952
0.0240789
0.0233963
0.0227848
0.0222427
0.021768
0.0213481
0.0209705
0.0206291
0.0203289
0.0200928
0.0199837
0.0201492
0.0210234
0.0239843
0.0375378
0.164685
1.5546
0.0246808
0.0241685
0.0236393
0.0231661
0.0227536
0.0223868
0.0220544
0.0217539
0.0214947
0.0213054
0.0212613
0.0215269
0.0226112
0.0260396
0.0411529
0.176218
1.64467
0.0257174
0.0250957
0.0245934
0.0241824
0.0238319
0.0235189
0.0232339
0.0229782
0.0227654
0.0226303
0.0226606
0.0230392
0.0243602
0.0283011
0.0450853
0.187291
1.72733
0.0264284
0.0260092
0.0256166
0.0252898
0.0250063
0.02475
0.0245161
0.0243105
0.024151
0.0240784
0.0241935
0.0247002
0.0262839
0.0307804
0.0493428
0.197458
1.79873
0.0275684
0.0270853
0.0267539
0.026502
0.0262838
0.0260868
0.0259092
0.0257607
0.0256626
0.0256621
0.0258726
0.0265229
0.0283927
0.0334889
0.0539839
0.20617
1.85564
0.0284322
0.0281923
0.0279815
0.0278165
0.0276679
0.0275362
0.0274225
0.0273402
0.0273132
0.0273952
0.0277129
0.028524
0.0307003
0.0364445
0.0588834
0.213741
1.89366
0.0296841
0.0294586
0.029325
0.0292409
0.0291656
0.0291073
0.0290674
0.0290621
0.0291173
0.0292945
0.0297325
0.0307213
0.0332215
0.0396615
0.063915
0.221762
1.91333
0.0307756
0.0307972
0.0307699
0.0307766
0.0307844
0.0308112
0.0308573
0.0309413
0.031092
0.0313789
0.031951
0.0331368
0.035977
0.0431666
0.0693281
0.229658
1.91036
0.032164
0.0322697
0.0323314
0.0324334
0.0325368
0.0326621
0.0328087
0.0329976
0.03326
0.0336721
0.0343934
0.0357938
0.0389821
0.046974
0.0751659
0.238152
1.88211
0.0336021
0.0338334
0.0340087
0.0342204
0.0344361
0.0346762
0.0349415
0.0352535
0.0356471
0.0362038
0.0370942
0.0387322
0.0422943
0.0511419
0.081565
0.248729
1.83316
0.0351614
0.0355149
0.0358178
0.0361539
0.0365004
0.0368745
0.0372797
0.0377374
0.0382859
0.0390109
0.0400954
0.0419943
0.0459581
0.0556899
0.0884178
0.257961
1.77167
0.0368408
0.037313
0.0377624
0.038247
0.0387478
0.0392803
0.0398508
0.0404809
0.0412109
0.0421294
0.0434294
0.0455937
0.0499228
0.0604131
0.0948506
0.26478
1.70339
0.0386171
0.0392548
0.0398693
0.040522
0.0412023
0.0419224
0.0426897
0.0435258
0.0444718
0.0456167
0.0471607
0.049601
0.0542715
0.0653589
0.100884
0.26888
1.63072
0.0405357
0.0413355
0.0421446
0.0429997
0.0438927
0.0448358
0.0458386
0.0469227
0.0481289
0.0495452
0.0513733
0.0541127
0.0591054
0.0706135
0.106529
0.269903
1.55568
0.0425745
0.0435913
0.0446199
0.0457075
0.046851
0.0480607
0.0493474
0.0507325
0.0522567
0.0540053
0.0561752
0.0592579
0.0645757
0.0763545
0.11201
0.26966
1.47998
0.0447799
0.0460175
0.0473087
0.0486742
0.0501157
0.0516451
0.0532754
0.0550288
0.0569458
0.0591082
0.0617043
0.0652061
0.0708955
0.0828909
0.117906
0.268835
1.40491
0.0471351
0.0486563
0.0502448
0.0519346
0.0537303
0.0556447
0.0576932
0.0599001
0.0623066
0.0649915
0.0681328
0.0721736
0.0783383
0.0905673
0.124698
0.268197
1.33131
0.0496754
0.0515062
0.053451
0.0555272
0.0577463
0.0601255
0.062685
0.0654531
0.0684741
0.0718257
0.0756756
0.0804338
0.0872464
0.0998128
0.132968
0.268378
1.25975
0.0524054
0.0546133
0.056966
0.0594972
0.0622229
0.0651655
0.0683519
0.0718179
0.0756143
0.0798224
0.0846035
0.0903362
0.0980717
0.111228
0.143483
0.270368
1.1906
0.0553505
0.057982
0.0608219
0.0638954
0.0672295
0.0708568
0.0748153
0.0791527
0.0839326
0.0892478
0.0952614
0.102329
0.111404
0.12559
0.157301
0.275565
1.1241
0.0585223
0.0616602
0.0650639
0.0687802
0.0728466
0.0773089
0.0822218
0.0876526
0.0936866
0.10044
0.108095
0.117
0.128028
0.143952
0.175866
0.28578
1.06041
0.0619461
0.0656597
0.0697347
0.0742184
0.0791684
0.0846522
0.09075
0.0975596
0.105203
0.113838
0.12369
0.135136
0.149005
0.167761
0.201137
0.303509
0.999592
0.0656333
0.0700295
0.0748878
0.0802863
0.0863056
0.0930436
0.100619
0.109177
0.118898
0.130012
0.142828
0.157809
0.175813
0.199078
0.235974
0.332554
0.941674
0.06961
0.0747886
0.0805778
0.0870717
0.0943893
0.102674
0.112102
0.122891
0.135315
0.149724
0.166576
0.186511
0.210558
0.24091
0.284694
0.37887
0.886626
0.0738862
0.0799874
0.0868692
0.0946756
0.103575
0.113775
0.125539
0.139197
0.15517
0.174002
0.196411
0.223377
0.256333
0.297791
0.354066
0.452196
0.834388
0.0784862
0.0856496
0.0938289
0.103213
0.114044
0.126631
0.141361
0.158737
0.179413
0.204255
0.234423
0.271513
0.317801
0.376807
0.45512
0.569686
0.78487
0.0834157
0.091824
0.10153
0.112811
0.126013
0.141583
0.160104
0.182344
0.209327
0.242445
0.28362
0.33556
0.402186
0.489383
0.606412
0.763119
0.737933
0.0886914
0.0985353
0.110052
0.123619
0.139736
0.159059
0.182463
0.211128
0.246676
0.291377
0.348473
0.422699
0.521157
0.654821
0.840929
1.09459
0.693377
0.0940384
0.0986871
0.103472
0.108371
0.113361
0.118416
0.123497
0.128567
0.133582
0.138494
0.143252
0.147802
0.152089
0.156056
0.159649
0.162815
0.165505
0.167676
0.169291
0.170323
0.170727
0.170327
0.169305
0.167701
0.16554
0.162862
0.159709
0.156129
0.152176
0.147903
0.143368
0.138626
0.133731
0.128733
0.12368
0.118616
0.113577
0.108602
0.103718
0.0989502
0.0943146
0.105577
0.110742
0.116052
0.121478
0.126999
0.132579
0.138185
0.143767
0.149284
0.154678
0.159899
0.164883
0.169575
0.173911
0.177834
0.181286
0.184216
0.186576
0.188328
0.189442
0.189875
0.189446
0.188339
0.186595
0.184244
0.181324
0.177884
0.173972
0.169648
0.164969
0.159998
0.154792
0.149413
0.143912
0.138346
0.132756
0.127191
0.121685
0.116275
0.110982
0.105832
0.119254
0.125012
0.130917
0.136948
0.143074
0.149257
0.155457
0.161625
0.167709
0.173653
0.179395
0.184873
0.190021
0.194774
0.199069
0.202844
0.206042
0.208616
0.210522
0.21173
0.212193
0.211732
0.21053
0.20863
0.206063
0.202873
0.199107
0.194823
0.19008
0.184943
0.179477
0.173747
0.167817
0.161747
0.155594
0.149409
0.143241
0.13713
0.131115
0.125225
0.119482
0.135612
0.142049
0.14864
0.155363
0.162183
0.169056
0.175937
0.182772
0.189505
0.196073
0.20241
0.208447
0.214113
0.219337
0.224052
0.228191
0.231694
0.234508
0.236588
0.2379
0.238398
0.237901
0.236593
0.234516
0.231708
0.228211
0.224079
0.219373
0.214156
0.208499
0.202473
0.196147
0.189591
0.182871
0.176049
0.169183
0.162324
0.155519
0.14881
0.142232
0.135809
0.155364
0.162589
0.169972
0.177492
0.18511
0.192777
0.200439
0.208039
0.215514
0.222794
0.229809
0.236482
0.242737
0.248496
0.253687
0.258238
0.262085
0.26517
0.267446
0.268877
0.269414
0.268876
0.267448
0.265174
0.262091
0.258249
0.253703
0.248518
0.242765
0.236517
0.229853
0.222848
0.215578
0.208115
0.200527
0.192878
0.185226
0.17762
0.170111
0.16274
0.155528
0.179474
0.187616
0.195919
0.204363
0.212903
0.221483
0.230046
0.238525
0.24685
0.254946
0.262734
0.270133
0.277057
0.283425
0.289156
0.294175
0.298411
0.301803
0.304301
0.305865
0.306446
0.305863
0.304299
0.301802
0.29841
0.294176
0.289161
0.283434
0.277071
0.270151
0.26276
0.25498
0.246892
0.238577
0.23011
0.22156
0.212992
0.204463
0.196028
0.187734
0.179603
0.209257
0.218473
0.22785
0.237368
0.246976
0.256613
0.266213
0.275704
0.285007
0.294038
0.302712
0.310938
0.318626
0.325686
0.33203
0.337579
0.342255
0.345995
0.348743
0.350458
0.351088
0.350455
0.348739
0.345989
0.342249
0.337572
0.332025
0.325683
0.318625
0.310941
0.30272
0.294053
0.285029
0.275735
0.266255
0.256666
0.247039
0.237439
0.227928
0.218559
0.209353
0.246546
0.257023
0.267656
0.278426
0.289276
0.300137
0.310935
0.321591
0.332019
0.342123
0.351809
0.360981
0.369538
0.377384
0.384424
0.390572
0.395748
0.39988
0.40291
0.404794
0.40548
0.40479
0.402903
0.39987
0.395735
0.390559
0.38441
0.37737
0.369524
0.360969
0.351802
0.342121
0.332023
0.321605
0.310957
0.300168
0.289314
0.278469
0.267704
0.257078
0.246609
0.293935
0.305896
0.318001
0.330233
0.342528
0.354808
0.36699
0.378987
0.390703
0.402036
0.412879
0.423126
0.432671
0.441407
0.449234
0.456059
0.461795
0.466368
0.469715
0.47179
0.472538
0.471786
0.469707
0.466355
0.461779
0.456039
0.449212
0.441384
0.432646
0.423103
0.412858
0.402021
0.390693
0.378983
0.366994
0.354818
0.342544
0.330251
0.318022
0.305923
0.293968
0.355185
0.36889
0.382717
0.396653
0.410626
0.424545
0.438319
0.451853
0.465041
0.477771
0.489927
0.501391
0.512049
0.521787
0.530497
0.538078
0.544441
0.549506
0.553206
0.555491
0.556308
0.555486
0.553195
0.549491
0.544422
0.538054
0.530469
0.521757
0.512016
0.50136
0.489897
0.477747
0.465019
0.451837
0.438309
0.424538
0.410621
0.396649
0.382715
0.368893
0.355193
0.435875
0.451618
0.467447
0.483355
0.49926
0.515058
0.530649
0.545925
0.560776
0.575077
0.588701
0.601524
0.613421
0.624268
0.633953
0.642368
0.649419
0.655022
0.659107
0.661623
0.662513
0.661617
0.659096
0.655006
0.649398
0.642341
0.633921
0.624233
0.613383
0.601489
0.588667
0.575046
0.560746
0.545901
0.530627
0.515037
0.499239
0.483335
0.467429
0.451602
0.435862
0.54451
0.562601
0.580725
0.598877
0.616966
0.634877
0.652497
0.669709
0.686394
0.702419
0.717645
0.731944
0.74518
0.757222
0.767951
0.777256
0.785039
0.791213
0.795706
0.798464
0.799432
0.798459
0.795695
0.791198
0.785018
0.77723
0.767919
0.757186
0.745142
0.73191
0.717612
0.702385
0.686361
0.669681
0.652468
0.634846
0.616934
0.598847
0.580696
0.562574
0.544485
0.694466
0.715179
0.735842
0.756455
0.776918
0.797109
0.8169
0.836165
0.85478
0.872604
0.889489
0.905304
0.919905
0.933161
0.944943
0.955141
0.963655
0.970395
0.975291
0.978287
0.97933
0.978283
0.975281
0.970382
0.963636
0.955118
0.944914
0.933127
0.919874
0.905275
0.889458
0.872572
0.854748
0.836137
0.816869
0.797074
0.776884
0.756422
0.735809
0.715147
0.694436
0.90753
0.930965
0.954218
0.977309
1.00013
1.02255
1.04445
1.06567
1.0861
1.1056
1.124
1.14119
1.15701
1.17134
1.18404
1.19501
1.20415
1.21137
1.2166
1.21979
1.2209
1.21979
1.21659
1.21136
1.20413
1.19499
1.18401
1.17131
1.15699
1.14117
1.12398
1.10557
1.08608
1.06565
1.04442
1.02252
1.0001
0.97728
0.954188
0.930938
0.907502
1.22064
1.24641
1.27175
1.29679
1.3214
1.34547
1.36887
1.39144
1.41307
1.43362
1.45296
1.47095
1.48745
1.50235
1.51552
1.52687
1.53631
1.54374
1.54912
1.55239
1.55352
1.55239
1.54912
1.54374
1.5363
1.52686
1.51551
1.50233
1.48744
1.47093
1.45295
1.43361
1.41305
1.39142
1.36884
1.34545
1.32138
1.29677
1.27173
1.24639
1.22062
1.69944
1.72585
1.75137
1.77643
1.80092
1.82472
1.84774
1.86983
1.89089
1.9108
1.92945
1.94672
1.96251
1.97671
1.98923
1.99999
2.00891
2.01592
2.02098
2.02404
2.02509
2.02404
2.02097
2.01591
2.0089
1.99998
1.98923
1.9767
1.9625
1.94671
1.92944
1.91079
1.89088
1.86982
1.84773
1.82472
1.80091
1.77642
1.75136
1.72585
1.69943
2.46712
2.48918
2.50938
2.52906
2.54816
2.5666
2.58431
2.6012
2.61721
2.63225
2.64627
2.65919
2.67095
2.68148
2.69073
2.69866
2.7052
2.71034
2.71403
2.71627
2.71702
2.71627
2.71403
2.71034
2.7052
2.69865
2.69073
2.68148
2.67095
2.65919
2.64627
2.63225
2.6172
2.6012
2.5843
2.5666
2.54816
2.52906
2.50938
2.48918
2.46712
0.688436
0.0593805
0.0136631
0.0111627
0.0111244
0.0114823
0.0119763
0.0125531
0.013193
0.0138887
0.0146492
0.0155011
0.0164767
0.0175999
0.0188722
0.0202503
0.0216292
0.768231
0.0625243
0.0144407
0.0117031
0.0116074
0.0119328
0.0123981
0.0129398
0.0135369
0.0141782
0.0148623
0.0156056
0.0164407
0.0174077
0.0185469
0.0198816
0.0213781
0.825125
0.0664232
0.0153508
0.0123015
0.012134
0.0124225
0.0128571
0.0133669
0.0139285
0.0145287
0.0151595
0.0158248
0.0165419
0.017342
0.0182746
0.0194177
0.0208902
0.882606
0.0708803
0.0163817
0.012958
0.0127026
0.0129488
0.0133512
0.0138303
0.0143607
0.01493
0.0155277
0.0161489
0.0167957
0.0174768
0.0182067
0.0190071
0.0199128
0.942838
0.0761403
0.0175714
0.0136829
0.0133199
0.0135169
0.0138848
0.0143333
0.0148345
0.0153776
0.0159529
0.0165525
0.0171733
0.0178181
0.0184933
0.0192073
0.0199725
1.00855
0.0821881
0.0189458
0.0144841
0.0139908
0.0141314
0.014462
0.0148792
0.0153514
0.0158689
0.0164233
0.0170062
0.0176112
0.0182373
0.0188881
0.0195649
0.0202446
1.07938
0.0889067
0.0205004
0.015372
0.0147225
0.0147978
0.0150882
0.0154731
0.0159157
0.0164065
0.0169392
0.0175062
0.0180988
0.0187119
0.0193497
0.0200321
0.0208007
1.15487
0.0964001
0.0222504
0.0163575
0.0155233
0.0155232
0.01577
0.016121
0.0165331
0.016995
0.0175033
0.0180528
0.0186338
0.0192344
0.0198436
0.0204586
0.0211008
1.23439
0.104831
0.0242286
0.0174544
0.0164033
0.0163155
0.0165147
0.0168299
0.0172103
0.0176409
0.0181207
0.0186481
0.0192171
0.0198157
0.0204266
0.0210243
0.0215532
1.31732
0.114278
0.0264731
0.0186799
0.017374
0.0171838
0.0173302
0.0176072
0.0179548
0.0183518
0.0187982
0.0192957
0.0198431
0.0204338
0.0210585
0.021719
0.0224426
1.40289
0.124711
0.029017
0.0200526
0.0184484
0.0181381
0.0182253
0.0184606
0.0187742
0.0191361
0.0195451
0.0200048
0.0205186
0.0210816
0.0216774
0.0222858
0.022915
1.4897
0.135995
0.0318846
0.0215913
0.0196404
0.0191889
0.019209
0.019398
0.0196758
0.0200013
0.0203706
0.0207874
0.0212604
0.0217933
0.0223736
0.0229603
0.0234632
1.57537
0.147863
0.0350827
0.0233155
0.0209646
0.0203479
0.0202914
0.0204277
0.0206667
0.0209545
0.0212825
0.0216518
0.0220741
0.0225633
0.0231283
0.0237672
0.024477
1.6569
0.159983
0.0386158
0.0252477
0.0224383
0.021628
0.0214833
0.0215589
0.0217547
0.0220027
0.0222884
0.0226081
0.0229716
0.0233956
0.0238945
0.024468
0.0251123
1.73145
0.172051
0.0424907
0.0274041
0.0240822
0.0230466
0.0227968
0.0228027
0.0229485
0.0231533
0.0233951
0.0236652
0.0239694
0.0243254
0.0247551
0.0252604
0.0257561
1.79544
0.183719
0.0466971
0.0297996
0.0259131
0.0246203
0.0242451
0.0241712
0.0242586
0.0244144
0.0246086
0.0248278
0.0250722
0.0253574
0.0257143
0.0261952
0.0268419
1.84637
0.19473
0.0512295
0.0324536
0.0279472
0.026366
0.0258435
0.0256782
0.0256971
0.0257958
0.025936
0.0261011
0.0262845
0.0264946
0.0267512
0.0271107
0.0276572
1.88045
0.204922
0.0560957
0.0353862
0.0302005
0.0283015
0.0276092
0.0273393
0.0272776
0.0273089
0.0273869
0.0274919
0.0276119
0.0277511
0.0279144
0.0281466
0.028454
1.89745
0.214481
0.0613401
0.0386154
0.0326911
0.030445
0.029562
0.0291717
0.0290157
0.0289681
0.028973
0.0290082
0.0290577
0.0291249
0.0292027
0.029348
0.0296307
1.89299
0.223539
0.0669997
0.0421675
0.0354384
0.0328167
0.0317231
0.0311964
0.0309313
0.0307902
0.0307087
0.0306611
0.0306288
0.0306154
0.0306009
0.0306354
0.0307339
1.86464
0.232748
0.0731351
0.0460648
0.0384613
0.0354445
0.0341209
0.0334394
0.0330478
0.0327958
0.0326114
0.0324656
0.0323375
0.0322311
0.032121
0.0320534
0.0319273
1.81586
0.243819
0.0799283
0.0503694
0.0418095
0.0383696
0.0367895
0.0359308
0.0353916
0.0350078
0.0347012
0.0344383
0.0341976
0.0339814
0.0337666
0.033594
0.03336
1.75322
0.254386
0.087378
0.055115
0.0455237
0.041636
0.0397717
0.0387078
0.0379956
0.037455
0.0370023
0.0366
0.0362267
0.0358804
0.035542
0.0352382
0.0348974
1.68552
0.261847
0.0942821
0.0600261
0.0495545
0.0452485
0.0430957
0.0418046
0.0408933
0.0401689
0.0395429
0.0389754
0.0384448
0.0379455
0.0374611
0.0370126
0.0365525
1.61457
0.266526
0.100659
0.0651282
0.0539661
0.0492726
0.0468232
0.0452771
0.0441339
0.0431906
0.0423573
0.0415927
0.0408747
0.0401957
0.0395423
0.0389319
0.0383119
1.54191
0.268611
0.106587
0.0705075
0.0588544
0.0538019
0.0510362
0.0491969
0.0477772
0.0465708
0.0454879
0.0444865
0.0435446
0.0426531
0.0418005
0.0409934
0.0401922
1.46885
0.269233
0.112289
0.0763415
0.0643675
0.0589635
0.0558417
0.0536536
0.0518973
0.0503702
0.0489842
0.0476978
0.0464885
0.0453457
0.0442566
0.0432244
0.0422328
1.39635
0.269127
0.118338
0.0829367
0.0707179
0.0649261
0.0613767
0.0587579
0.0565844
0.0546619
0.0529053
0.0512734
0.0497431
0.0483012
0.0469355
0.0456503
0.0444178
1.32506
0.268951
0.125207
0.0906387
0.0781795
0.0719066
0.0678142
0.0646471
0.0619484
0.059534
0.0573216
0.0552693
0.0533521
0.0515539
0.0498623
0.0482709
0.0467541
1.25544
0.269462
0.133496
0.099889
0.0870986
0.0801795
0.0753692
0.0714921
0.0681247
0.0650935
0.0623171
0.0597511
0.0573668
0.055144
0.0530649
0.0511163
0.049289
1.1878
0.27161
0.143986
0.111293
0.0979306
0.0900963
0.0843139
0.079505
0.0752792
0.0714698
0.0679925
0.0647967
0.0618465
0.0591147
0.0565768
0.0542208
0.0520246
1.12242
0.276721
0.157736
0.125634
0.111269
0.102107
0.0949935
0.088952
0.083617
0.0788208
0.0744688
0.070498
0.0668603
0.0635172
0.060437
0.0575949
0.0549535
1.05949
0.286716
0.176201
0.143972
0.127903
0.116801
0.107854
0.100172
0.0933952
0.0873413
0.0818928
0.0769643
0.0724885
0.0684103
0.0646838
0.0612672
0.0581313
0.999155
0.304199
0.201377
0.167765
0.148897
0.134967
0.123482
0.113601
0.10494
0.0972733
0.0904426
0.0843257
0.078825
0.0738602
0.0693632
0.0652805
0.0615683
0.941509
0.333003
0.236134
0.199077
0.17573
0.157675
0.142658
0.129811
0.118668
0.10892
0.100337
0.0927387
0.0859803
0.0799428
0.0745285
0.0696576
0.06525
0.886592
0.379109
0.284799
0.240918
0.210508
0.186418
0.166447
0.149561
0.13512
0.122665
0.111847
0.102394
0.0940852
0.0867463
0.0802342
0.0744285
0.0692362
0.834404
0.452333
0.354153
0.297821
0.256322
0.223326
0.196324
0.173878
0.155011
0.139005
0.125316
0.113522
0.103295
0.0943714
0.0865428
0.079641
0.0735387
0.784892
0.5698
0.455213
0.376866
0.317826
0.271502
0.234375
0.20417
0.179292
0.15858
0.141169
0.126407
0.113791
0.102932
0.0935246
0.0853279
0.0781382
0.737947
0.763246
0.606518
0.489463
0.402239
0.335582
0.283607
0.242397
0.209242
0.182222
0.159947
0.141391
0.125788
0.112557
0.10125
0.0915173
0.0830895
0.693381
1.09472
0.841022
0.654899
0.521219
0.422738
0.348485
0.291358
0.246623
0.211039
0.182338
0.158899
0.139542
0.123393
0.109797
0.0982555
0.0883983
0.0305927
0.0609702
0.214618
1.64395
10.8584
25.2609
22.1141
13.2283
7.67871
4.90116
3.16861
2.18869
1.70115
1.2469
0.738986
0.348655
0.144204
0.0608542
0.0309438
0.0217174
0.0343515
0.0716405
0.249593
1.83427
11.6062
26.4552
23.6597
14.1519
7.8476
4.73007
3.12235
2.47665
2.13893
1.66698
1.02805
0.495992
0.204045
0.0824502
0.0381236
0.0239914
0.0392259
0.0852332
0.290818
2.01595
12.1999
27.2924
25.4741
15.4961
8.47212
4.92937
3.37257
2.96152
2.78919
2.25244
1.42788
0.70612
0.292516
0.115194
0.0490951
0.0273182
0.0456722
0.102885
0.34048
2.18586
12.5517
27.6039
27.1522
16.9252
9.38931
5.36951
3.88128
3.74271
3.73359
3.08879
1.99012
1.00295
0.421818
0.164789
0.0660901
0.0323804
0.0543944
0.126335
0.402052
2.34231
12.6108
27.3005
27.981
18.546
10.4372
5.99485
4.50453
4.68537
5.00375
4.29674
2.80033
1.42469
0.608983
0.239594
0.0926663
0.0403445
0.0664947
0.158246
0.481013
2.49631
12.3911
26.3218
27.8088
19.766
11.7577
6.82331
5.0865
5.55177
6.42541
5.93169
3.96523
2.03142
0.878584
0.351633
0.134401
0.0531792
0.0837473
0.202772
0.586
2.67043
11.9649
24.7083
26.5607
19.9705
12.654
7.78793
5.75522
6.13481
7.59096
7.79993
5.60183
2.90259
1.26899
0.518318
0.200001
0.0742349
0.10906
0.266453
0.730432
2.8997
11.4502
22.6162
24.4562
19.1898
12.9997
8.58064
6.52942
6.57082
8.14296
9.36393
7.64872
4.16857
1.83741
0.765684
0.302944
0.109223
0.147286
0.359681
0.934908
3.22713
10.9817
20.2782
21.7831
17.6488
12.7776
9.086
7.24593
7.07936
8.23334
10.0669
9.64973
5.93767
2.66337
1.1345
0.464148
0.167917
0.206646
0.499112
1.23111
3.71662
10.6915
17.9273
18.8284
15.6732
12.0825
9.24311
7.74993
7.51249
8.29048
9.86801
10.8806
8.05401
3.89455
1.68546
0.716506
0.267105
0.301239
0.711701
1.66872
4.4525
10.6395
15.7338
15.961
13.6572
11.1046
9.06975
7.96122
7.7454
8.23362
9.28931
10.8846
9.94422
5.64353
2.51287
1.11247
0.435826
0.455764
1.04108
2.32356
5.50135
10.7626
13.652
13.2727
11.7358
9.9876
8.63088
7.86808
7.70063
7.97899
8.61954
9.88211
10.7796
7.71526
3.79655
1.73694
0.725011
0.714254
1.5648
3.30439
6.84379
10.7886
11.6265
10.9116
9.97077
8.85864
8.01797
7.51951
7.37998
7.50198
7.83429
8.54557
10.1177
9.45543
5.62756
2.73382
1.22547
1.15744
2.41847
4.72797
8.19283
10.1687
9.56929
8.89487
8.3652
7.77862
7.28884
6.95905
6.81253
6.82566
6.95207
7.2871
8.37868
9.81589
7.78641
4.3762
2.10066
1.94072
3.77969
6.46105
8.74991
8.46705
7.56656
7.22804
7.01512
6.74091
6.46452
6.23719
6.08604
6.02771
6.01429
6.11185
6.59777
8.40671
9.26453
6.72085
3.68484
3.36075
5.70439
7.6937
7.60274
6.32441
5.91737
5.89532
5.8694
5.75446
5.59675
5.42981
5.27915
5.17178
5.1017
5.06549
5.22635
6.15839
8.77059
9.16328
6.40272
5.68837
7.30844
6.88954
5.29071
4.67513
4.71745
4.81912
4.8736
4.85054
4.7588
4.63231
4.49067
4.35663
4.26159
4.19205
4.18083
4.52958
6.22143
9.70771
10.0552
7.77533
6.56002
4.52297
3.60474
3.65611
3.82739
3.98339
4.07789
4.10791
4.06724
3.97939
3.85905
3.72513
3.60627
3.52372
3.47815
3.56536
4.15965
6.73783
11.1592
5.84618
3.45127
2.6399
2.76032
3.08039
3.38147
3.61599
3.76463
3.83622
3.83463
3.78695
3.68939
3.55756
3.41396
3.28442
3.20612
3.20245
3.29534
3.86627
6.03619
1.83618
2.45517
3.3422
4.33678
5.2003
5.89879
6.40202
6.71494
6.86785
6.88341
6.74635
6.51661
6.20181
5.82938
5.44022
5.12097
4.83073
4.5357
4.22664
3.81744
3.32599
8.29979
14.3629
7.99038
3.36792
1.52096
0.750631
0.394866
0.220576
0.13108
0.0834144
0.0572557
0.0424937
0.033912
0.0287439
0.0254905
0.0233272
0.0217981
0.0206433
0.0197203
2.78989
10.4782
10.5991
4.41722
1.74073
0.780802
0.380836
0.201102
0.115264
0.0723076
0.0499959
0.0380059
0.0313155
0.0274018
0.0249695
0.0233433
0.0221654
0.0212467
0.0204796
0.01981
2.26144
13.6846
7.56608
2.61461
0.994286
0.433404
0.211052
0.114419
0.0695564
0.0476989
0.0366014
0.0307055
0.0273838
0.025363
0.024015
0.0230254
0.0222323
0.0215543
0.020943
0.0203784
1.70317
12.4159
4.7671
1.47666
0.564027
0.249167
0.126029
0.0730322
0.0487579
0.0371158
0.0312571
0.0281107
0.0262631
0.0250533
0.0241672
0.0234518
0.0228296
0.0222636
0.0217287
0.0212181
1.19969
9.14488
2.87598
0.873409
0.338198
0.155805
0.0841705