/*--------------------------------*- C++ -*----------------------------------*\
  =========                 |
  \\      /  F ield         | OpenFOAM: The Open Source CFD Toolbox
   \\    /   O peration     | Website:  https://openfoam.org
    \\  /    A nd           | Version:  6
     \\/     M anipulation  |
\*---------------------------------------------------------------------------*/
FoamFile
{
    version     2.0;
    format      ascii;
    class       volScalarField;
    location    "2.2";
    object      k;
}
// * * * * * * * * * * * * * * * * * * * * * * * * * * * * * * * * * * * * * //

dimensions      [0 2 -2 0 0 0 0];

internalField   nonuniform List<scalar> 
4214
(
0.0930875
0.0454969
0.0256051
0.0178979
0.0151424
0.0142592
0.0140852
0.0142418
0.0146584
0.0154367
0.0168737
0.0195978
0.0248507
0.0350283
0.0550033
0.0956298
0.184984
0.390002
0.756352
1.03731
1.08957
1.2104
1.33925
1.40571
1.39
1.2708
1.03852
0.746304
0.461483
0.248817
0.121706
0.0587785
0.0318396
0.0216963
0.0181257
0.0170968
0.0175739
0.0204683
0.0291954
0.0518695
0.106349
0.0536746
0.029592
0.0198839
0.0161526
0.0148055
0.0143932
0.0143764
0.0145844
0.0150098
0.0157668
0.0171439
0.0197357
0.0246959
0.0341768
0.0522546
0.0873824
0.160587
0.327959
0.66913
1.03264
1.13107
1.29949
1.51199
1.63672
1.62781
1.47447
1.19445
0.848032
0.519788
0.274925
0.131001
0.0616237
0.0327995
0.0220791
0.0183172
0.0170965
0.0170023
0.0180856
0.0216249
0.0307366
0.051793
0.0297623
0.0210582
0.017106
0.0154325
0.0147959
0.0146287
0.0147011
0.0149443
0.0153843
0.0161477
0.0175315
0.0201345
0.0250973
0.0344582
0.0518391
0.0840669
0.14669
0.281816
0.573664
0.973501
1.14295
1.29146
1.59852
1.86581
1.91033
1.72914
1.38096
0.965281
0.584722
0.305005
0.141624
0.0647852
0.033783
0.0224214
0.0185008
0.0171874
0.016854
0.0171858
0.0185492
0.0219549
0.0292423
0.0224946
0.018253
0.0162291
0.0153322
0.0149963
0.0149476
0.0150715
0.0153421
0.0158053
0.0166038
0.0180612
0.0208159
0.0260675
0.0358668
0.0536409
0.0851829
0.142148
0.25492
0.498571
0.906371
1.17861
1.32133
1.66457
2.08024
2.22669
2.02822
1.60165
1.10349
0.660354
0.340035
0.154742
0.0687982
0.034888
0.0227753
0.0186935
0.0173271
0.0168953
0.0169414
0.0175398
0.0191063
0.0224139
0.0194844
0.0171433
0.0159879
0.0154643
0.0152856
0.0153064
0.015466
0.015763
0.0162609
0.017126
0.0187296
0.021786
0.0276285
0.0384349
0.0576615
0.0905118
0.14596
0.245221
0.446845
0.826746
1.18513
1.32381
1.67581
2.23945
2.56332
2.37647
1.86073
1.26511
0.747699
0.380861
0.170261
0.0735612
0.0361595
0.0231452
0.0188817
0.017478
0.0170024
0.0169228
0.0171941
0.0179998
0.0197186
0.0181724
0.0167581
0.0160428
0.0157197
0.0156322
0.0156982
0.0158865
0.0162127
0.016761
0.0177309
0.0195682
0.0231022
0.0298852
0.0423309
0.064138
0.100261
0.157843
0.251327
0.422194
0.755913
1.16617
1.33001
1.66087
2.33276
2.89132
2.77407
2.1638
1.45349
0.849577
0.429121
0.189097
0.0794543
0.0377302
0.0235721
0.0190783
0.017637
0.0171401
0.0170006
0.017117
0.0175707
0.0185672
0.0176276
0.0167148
0.0162469
0.0160443
0.0160168
0.016117
0.0163328
0.0166952
0.0173164
0.0184413
0.0206253
0.0248542
0.0330059
0.0478308
0.0734911
0.11493
0.178024
0.272042
0.424048
0.708234
1.12769
1.35698
1.63703
2.35775
3.17626
3.21691
2.51554
1.67172
0.968732
0.486417
0.212323
0.0869515
0.0397653
0.0241009
0.0192941
0.0178028
0.017293
0.0171227
0.0171586
0.0174314
0.0180601
0.017472
0.0168536
0.0165387
0.0164167
0.0164339
0.0165636
0.0168096
0.01722
0.0179469
0.0192952
0.0219797
0.0271822
0.037247
0.0553438
0.0863526
0.135328
0.207196
0.306994
0.450306
0.691948
1.0855
1.37672
1.6154
2.32452
3.39131
3.6907
2.919
1.92409
1.10853
0.554706
0.241344
0.0967261
0.0425111
0.0247989
0.0195467
0.0179794
0.0174572
0.0172693
0.0172593
0.0174298
0.0178518
0.0175304
0.0171011
0.0168905
0.0168285
0.0168829
0.0170412
0.0173242
0.0178014
0.0186835
0.0203508
0.02375
0.0302901
0.0429791
0.0654325
0.103584
0.162549
0.246431
0.356461
0.498937
0.709354
1.0568
1.38418
1.59108
2.2412
3.52047
4.1711
3.37469
2.21501
1.27212
0.636283
0.27793
0.109707
0.0463405
0.0257682
0.0198619
0.0181726
0.0176326
0.0174326
0.0173937
0.0175003
0.0177944
0.0177215
0.0174245
0.0172924
0.0172794
0.0173673
0.017556
0.0178888
0.0184617
0.0195751
0.0216956
0.0261151
0.0344668
0.0507237
0.0788444
0.126301
0.197939
0.297102
0.421264
0.568855
0.758632
1.05471
1.38585
1.56595
2.15711
3.57642
4.63011
3.8779
2.54832
1.46044
0.733957
0.324299
0.127188
0.0518385
0.0271772
0.0202829
0.0183915
0.0178218
0.0176109
0.0175516
0.0176144
0.0178218
0.0180088
0.0178127
0.0177438
0.0177727
0.0178931
0.0181172
0.0185229
0.0192365
0.0207002
0.0234619
0.0293432
0.0401145
0.0612013
0.0965322
0.155941
0.243101
0.360956
0.502973
0.660338
0.838248
1.08737
1.39537
1.56193
2.09044
3.59203
5.04556
4.4209
2.92347
1.67551
0.850728
0.383151
0.150908
0.0599374
0.029317
0.0208916
0.0186512
0.0180293
0.0178052
0.0177303
0.0177603
0.0179046
0.0183851
0.0182691
0.0182515
0.0183153
0.0184693
0.0187392
0.0192596
0.0201825
0.0221865
0.0258477
0.0338385
0.047784
0.075405
0.119662
0.194323
0.299946
0.440414
0.604419
0.775861
0.950112
1.16085
1.42763
1.58517
2.05669
3.59729
5.4131
4.9918
3.33308
1.92002
0.988762
0.457323
0.183028
0.0721062
0.0327021
0.0218576
0.0189829
0.0182636
0.0180186
0.0179304
0.0179353
0.0180318
0.0188601
0.0188051
0.0188253
0.0189156
0.0191103
0.0194455
0.0201569
0.021391
0.0242446
0.0291464
0.0402121
0.0582104
0.0947021
0.14961
0.243775
0.370714
0.539216
0.730477
0.921355
1.10138
1.28051
1.49521
1.63059
2.04517
3.61208
5.7457
5.5706
3.76496
2.19039
1.14269
0.549368
0.225811
0.0905689
0.0382214
0.023547
0.0194582
0.0185447
0.0182559
0.018155
0.0181405
0.0182011
0.0194445
0.0194262
0.0194703
0.0195808
0.0198399
0.0202749
0.0213196
0.023007
0.0272273
0.0337826
0.0493934
0.0723321
0.120984
0.187916
0.307445
0.45807
0.663138
0.888953
1.10569
1.28918
1.4427
1.60293
1.69735
2.06588
3.65763
6.07476
6.12749
4.19051
2.47537
1.30792
0.660751
0.280684
0.118401
0.0472846
0.0267447
0.020252
0.0189294
0.0185264
0.018409
0.018379
0.0184144
0.0201337
0.0201245
0.0201864
0.0203196
0.0207064
0.0212926
0.0229448
0.025255
0.0317358
0.040341
0.0628119
0.0912672
0.156898
0.236172
0.389902
0.565297
0.821239
1.08985
1.33465
1.52678
1.65061
1.75462
1.78931
2.12318
3.80588
6.49546
6.61522
4.57101
2.75935
1.47159
0.79092
0.346158
0.159116
0.0616733
0.033028
0.0217732
0.0195958
0.0188538
0.0187037
0.0186555
0.0186744
0.0208989
0.0208812
0.0209847
0.0211531
0.0218206
0.0226053
0.0254176
0.0284563
0.0388176
0.0495499
0.0826992
0.116162
0.206295
0.295743
0.49824
0.696337
1.02775
1.34584
1.6307
1.83141
1.91156
1.9609
1.93272
2.24432
4.10539
7.07433
6.95642
4.847
3.03192
1.61138
0.936602
0.414146
0.215161
0.0822458
0.0451157
0.024813
0.0210928
0.0193116
0.0190776
0.0189774
0.0189861
0.0217084
0.0216879
0.021929
0.0221256
0.0234447
0.0243575
0.0295194
0.0329886
0.0503525
0.062109
0.112636
0.147763
0.275075
0.367131
0.644389
0.855017
1.30554
1.6672
1.99563
2.20339
2.20991
2.18153
2.05973
2.35317
4.59959
7.83521
6.99384
4.93354
3.29001
1.6932
1.09177
0.465147
0.285419
0.104928
0.0662965
0.0301032
0.0248764
0.0201161
0.0197173
0.0193628
0.0193639
0.019419
0.0190456
0.0187457
0.018512
0.0183418
0.0182346
0.0181922
0.0182239
0.0183557
0.0186477
0.0192326
0.0204079
0.0228819
0.0285525
0.0432876
0.0986128
0.232951
0.0195338
0.0191943
0.0189316
0.0187446
0.0186343
0.0186034
0.0186585
0.018816
0.0191133
0.0196303
0.0205337
0.0221834
0.0254129
0.0323595
0.0494445
0.110886
0.256897
0.0196891
0.0193826
0.0191611
0.0190275
0.0189876
0.0190481
0.0192204
0.019532
0.0200356
0.0208332
0.0221304
0.0243563
0.0284735
0.0368437
0.056524
0.126443
0.275319
0.0198793
0.0196074
0.0194299
0.0193555
0.0193944
0.0195587
0.0198686
0.0203599
0.0211009
0.0222309
0.0239923
0.0268908
0.0320133
0.0419396
0.0643709
0.142024
0.29266
0.0201034
0.0198644
0.0197327
0.0197203
0.0198417
0.020116
0.020574
0.0212662
0.0222791
0.023766
0.0260379
0.0296838
0.0359046
0.0475078
0.072874
0.156726
0.308364
0.0203556
0.0201494
0.0200624
0.0201101
0.0203117
0.020694
0.0212975
0.0221887
0.0234792
0.0253599
0.0281719
0.0325596
0.0399161
0.0532784
0.0817271
0.168536
0.322586
0.0206353
0.0204581
0.0204107
0.0205117
0.0207846
0.0212627
0.0219957
0.0230645
0.0246026
0.0268385
0.0301742
0.0353499
0.0438281
0.0588792
0.0903743
0.178338
0.334501
0.0209383
0.0207857
0.0207701
0.0209127
0.0212415
0.0217947
0.0226291
0.0238345
0.0255618
0.0280699
0.0318147
0.037628
0.0471319
0.0639218
0.0983938
0.185963
0.343522
0.021266
0.02113
0.0211349
0.0213039
0.0216683
0.02227
0.0231684
0.0244576
0.0262961
0.0289608
0.0329447
0.0391533
0.04935
0.0674212
0.10426
0.190819
0.350358
0.021616
0.0214898
0.021503
0.0216812
0.0220582
0.0226782
0.0236006
0.0249172
0.026784
0.0294784
0.033506
0.039814
0.0502672
0.0689769
0.106943
0.192267
0.355052
0.0219909
0.0218675
0.0218769
0.0220468
0.0224131
0.0230215
0.0239293
0.0252217
0.027043
0.0296527
0.0335393
0.039646
0.049875
0.068439
0.106198
0.19029
0.357491
0.0223937
0.0222673
0.0222629
0.0224095
0.022744
0.0233131
0.0241723
0.0253989
0.0271187
0.0295602
0.0331645
0.0388197
0.0483816
0.0660359
0.102498
0.18492
0.357642
0.0228269
0.0226955
0.0226708
0.0227829
0.0230687
0.0235758
0.0243588
0.0254879
0.0270706
0.0292968
0.032541
0.0375884
0.0461621
0.0622906
0.0964636
0.176564
0.355508
0.0232951
0.0231593
0.023112
0.0231836
0.0234097
0.0238383
0.024524
0.0255335
0.0269594
0.028956
0.0318239
0.036216
0.043647
0.0578524
0.0889065
0.165773
0.351121
0.0238009
0.023665
0.0235976
0.0236286
0.0237912
0.0241319
0.0247062
0.0255798
0.0268374
0.0286067
0.0311226
0.0348997
0.0411985
0.0533375
0.0808126
0.153298
0.34457
0.024347
0.0242179
0.0241373
0.0241337
0.0242363
0.0244885
0.0249452
0.0256725
0.0267525
0.0282984
0.0304972
0.0337413
0.0390235
0.049168
0.0728733
0.139916
0.336017
0.0249354
0.0248215
0.0247376
0.0247101
0.0247631
0.0249356
0.0252789
0.0258587
0.0267574
0.0280831
0.029996
0.0327973
0.0372373
0.0456074
0.0656346
0.126314
0.325739
0.0255659
0.0254766
0.0254017
0.0253642
0.0253829
0.0254914
0.0257348
0.0261758
0.026896
0.028004
0.0296494
0.0320794
0.0358561
0.0427587
0.0594592
0.113151
0.314174
0.02624
0.026185
0.0261306
0.0260982
0.0261005
0.0261655
0.0263304
0.0266516
0.0272069
0.0281043
0.0294928
0.0315964
0.0348563
0.0406151
0.0544752
0.101208
0.301898
0.0269568
0.026944
0.0269233
0.0269114
0.0269161
0.0269601
0.0270725
0.027301
0.0277155
0.0284195
0.029562
0.0313625
0.0341997
0.039072
0.0504955
0.0912542
0.289567
0.0277171
0.0277568
0.0277799
0.0278027
0.0278277
0.027873
0.02796
0.0281267
0.0284322
0.0289708
0.0298867
0.0313992
0.0338674
0.0380703
0.0475958
0.0829177
0.277855
0.0285213
0.0286201
0.028699
0.0287702
0.0288326
0.0289003
0.0289883
0.0291254
0.0293588
0.0297694
0.0304904
0.0317363
0.0338667
0.0375512
0.0456798
0.0765367
0.267404
0.0293695
0.0295388
0.0296831
0.029815
0.0299296
0.0300386
0.0301518
0.0302896
0.0304876
0.0308118
0.0313791
0.0323909
0.0342074
0.0374598
0.044582
0.0720628
0.258696
0.0302658
0.0305103
0.0307319
0.0309377
0.0311194
0.031287
0.0314469
0.031613
0.0318103
0.0320899
0.0325496
0.0333707
0.0349028
0.0377708
0.0441457
0.0690733
0.252035
0.0312112
0.0315441
0.0318521
0.0321437
0.0324063
0.0326486
0.0328749
0.0330939
0.0333219
0.0335965
0.0339955
0.0346752
0.0359615
0.0384746
0.0442359
0.0670565
0.247518
0.0322169
0.03264
0.033047
0.0334381
0.0337966
0.0341299
0.0344414
0.0347363
0.0350239
0.0353297
0.0357132
0.0363035
0.0373919
0.0395797
0.0448016
0.0660139
0.245073
0.0332809
0.0338114
0.0343275
0.0348315
0.0353013
0.0357421
0.0361575
0.0365503
0.0369244
0.0372957
0.0377066
0.0382601
0.039206
0.0411072
0.0458273
0.0657374
0.244507
0.0344282
0.0350627
0.0357003
0.0363331
0.0369325
0.0374996
0.038039
0.038552
0.0390392
0.0395087
0.0399889
0.0405577
0.0414219
0.0430898
0.0473267
0.0661167
0.245553
0.0356493
0.0364128
0.0371823
0.0379579
0.0387057
0.0394202
0.040106
0.0407636
0.0413914
0.0419921
0.0425831
0.0432203
0.0440679
0.0455687
0.0493467
0.067103
0.24791
0.0369763
0.0378669
0.0387843
0.0397201
0.0406381
0.0415244
0.0423824
0.0432125
0.0440116
0.0447789
0.0455237
0.0462843
0.0471854
0.048596
0.051963
0.0686755
0.251267
0.0383973
0.0394476
0.0405264
0.0416384
0.0427492
0.0438351
0.0448958
0.0459309
0.046937
0.0479113
0.0488575
0.049801
0.0508331
0.0522466
0.0552835
0.0708953
0.255333
0.0399422
0.0411594
0.0424235
0.0437328
0.0450607
0.0463776
0.0476768
0.0489559
0.0502119
0.0514413
0.0526448
0.0538391
0.0550901
0.0566206
0.0594502
0.0739192
0.25984
0.0416008
0.0430237
0.0444956
0.0460261
0.0475974
0.0491798
0.0507592
0.0523296
0.0538877
0.0554314
0.0569608
0.0584881
0.0600617
0.0618481
0.0646457
0.0779415
0.264606
0.0433942
0.0450436
0.0467583
0.0485421
0.050388
0.0522734
0.0541805
0.0560987
0.0580238
0.0599558
0.0618979
0.0638619
0.0658877
0.0681022
0.0710953
0.0832413
0.269523
0.0453138
0.0472346
0.0492284
0.0513048
0.0534639
0.0556949
0.0579832
0.0603162
0.0626886
0.0651031
0.0675693
0.0701056
0.0727523
0.0756117
0.079109
0.0903295
0.274424
0.047373
0.0495972
0.0519175
0.0543361
0.0568585
0.0594865
0.0622168
0.065043
0.0679616
0.070979
0.0741156
0.0774045
0.0808974
0.0846919
0.0891243
0.0998931
0.279161
0.0495626
0.0521404
0.0548361
0.057655
0.060604
0.0636948
0.0669401
0.0703507
0.0739362
0.0777114
0.0817119
0.0859982
0.0906373
0.0957922
0.101757
0.112895
0.283609
0.051889
0.0548624
0.057991
0.0612768
0.0647299
0.0683691
0.0722229
0.076328
0.0807256
0.085457
0.0905804
0.0961837
0.102417
0.109541
0.117909
0.130736
0.287656
0.0543419
0.0577659
0.0613873
0.065214
0.069261
0.0735559
0.0781421
0.0830844
0.0884721
0.0944113
0.101
0.108365
0.116847
0.126848
0.13894
0.155569
0.291185
0.0569199
0.0608469
0.065028
0.0694766
0.0742189
0.079297
0.0847754
0.0907497
0.0973616
0.104825
0.113312
0.123112
0.134793
0.149069
0.167
0.190892
0.294028
0.0421171
0.0427764
0.0434817
0.0442443
0.0450766
0.0459862
0.0469946
0.0480941
0.0492894
0.050546
0.0518735
0.0532721
0.0547597
0.0563223
0.0579653
0.0596682
0.0614329
0.0632346
0.0650733
0.066941
0.0691759
0.0711906
0.0728371
0.0743038
0.0755763
0.076623
0.0774109
0.0779119
0.0781028
0.0779699
0.0775091
0.076725
0.0756317
0.0742518
0.0726165
0.0707611
0.0687266
0.0665536
0.0642849
0.0619586
0.059613
0.0444154
0.0450923
0.045835
0.0466445
0.0475416
0.0485265
0.0496028
0.0507549
0.051975
0.053266
0.0546456
0.056123
0.0576968
0.0593638
0.0611183
0.0629524
0.0648552
0.0668139
0.0688157
0.0708661
0.0733167
0.0755596
0.077414
0.0790854
0.0805563
0.0817898
0.0827476
0.0833958
0.0837064
0.0836607
0.0832512
0.0824805
0.0813624
0.0799203
0.0781871
0.0762025
0.0740111
0.0716593
0.0691946
0.0666613
0.0641022
0.0474395
0.0481228
0.0488758
0.0497034
0.0506114
0.0515973
0.052658
0.0537965
0.0550248
0.0563572
0.0578006
0.0593558
0.061021
0.0627937
0.0646683
0.0666372
0.0686897
0.0708126
0.0729924
0.0752344
0.0779131
0.0803946
0.0824702
0.0843599
0.0860425
0.0874755
0.0886145
0.0894191
0.0898557
0.0899
0.0895407
0.0887779
0.0876243
0.0861048
0.0842545
0.0821171
0.0797421
0.0771822
0.0744907
0.0717185
0.0689137
0.0511521
0.0517977
0.0525047
0.0532789
0.0541305
0.0550691
0.0561065
0.0572527
0.0585151
0.0598984
0.0614066
0.0630415
0.064802
0.0666855
0.068687
0.0707988
0.0730101
0.0753075
0.0776766
0.0801218
0.0830367
0.085767
0.088076
0.0901971
0.0921043
0.0937487
0.095079
0.0960479
0.0966153
0.0967508
0.0964383
0.0956752
0.0944732
0.0928578
0.0908674
0.08855
0.0859609
0.0831596
0.0802062
0.0771592
0.074073
0.0553086
0.055894
0.0565453
0.0572756
0.0580997
0.059029
0.0600736
0.061242
0.0625411
0.0639761
0.065551
0.0672684
0.0691286
0.0711288
0.0732643
0.0755275
0.0779072
0.0803895
0.0829591
0.0856191
0.0887771
0.091765
0.0943188
0.0966831
0.0988263
0.100692
0.102223
0.103362
0.104063
0.104288
0.104017
0.103243
0.101976
0.100244
0.0980875
0.0955596
0.0927225
0.0896432
0.08639
0.0830293
0.079623
0.0600289
0.0605778
0.0611966
0.0619022
0.0627102
0.0636341
0.0646858
0.0658752
0.0672107
0.0686985
0.0703431
0.0721473
0.0741121
0.0762357
0.0785131
0.0809364
0.0834943
0.0861719
0.088953
0.0918387
0.095245
0.0984972
0.101306
0.103923
0.106312
0.108407
0.110144
0.111457
0.112292
0.112604
0.112366
0.111567
0.110218
0.108345
0.105993
0.103222
0.100101
0.0967051
0.093112
0.0893972
0.0856308
0.0655394
0.0660478
0.0666308
0.0673095
0.0681004
0.0690184
0.0700773
0.0712885
0.0726619
0.0742049
0.0759231
0.0778196
0.0798954
0.0821493
0.0845765
0.087169
0.0899146
0.0927977
0.0958003
0.0989212
0.102578
0.106099
0.109169
0.112047
0.114687
0.117017
0.118963
0.120451
0.121417
0.121809
0.121592
0.120754
0.119301
0.117263
0.114687
0.111639
0.108197
0.104445
0.100472
0.0963623
0.092196
0.0720349
0.0724915
0.0730306
0.0736771
0.0744482
0.0753598
0.0764267
0.0776619
0.0790762
0.0806783
0.0824747
0.0844691
0.086663
0.0890548
0.0916398
0.0944098
0.0973519
0.100449
0.103681
0.107045
0.110951
0.114739
0.118074
0.121215
0.124109
0.126675
0.128828
0.130487
0.131578
0.13204
0.131833
0.130938
0.129361
0.127131
0.124301
0.120943
0.117144
0.113
0.108608
0.104066
0.0994622
0.0797913
0.0801758
0.0806559
0.0812593
0.0820036
0.0829054
0.0839796
0.08524
0.0866983
0.0883638
0.0902432
0.0923413
0.0946596
0.0971962
0.0999462
0.1029
0.106045
0.109362
0.112829
0.116438
0.120587
0.124636
0.128233
0.131634
0.134776
0.137571
0.139925
0.141745
0.14295
0.143471
0.143258
0.142288
0.140566
0.138121
0.135011
0.131315
0.127129
0.122559
0.117716
0.112708
0.107635
0.089189
0.0894725
0.0898705
0.0904131
0.0911178
0.0920012
0.0930784
0.0943626
0.0958654
0.0975966
0.0995631
0.101769
0.104216
0.106902
0.109821
0.112962
0.116312
0.119849
0.123549
0.127398
0.131775
0.136067
0.139915
0.143563
0.14694
0.149949
0.152487
0.154454
0.155757
0.156319
0.156084
0.155024
0.153139
0.150461
0.147052
0.142997
0.138402
0.133385
0.128068
0.122572
0.117005
0.100748
0.100894
0.10118
0.101638
0.102284
0.103135
0.104205
0.105506
0.10705
0.108846
0.110898
0.113212
0.115787
0.118621
0.121706
0.125031
0.128579
0.132326
0.136247
0.140321
0.144896
0.149401
0.153473
0.157341
0.160925
0.16412
0.166815
0.168903
0.170281
0.170865
0.170592
0.169428
0.167371
0.164453
0.160738
0.15632
0.151312
0.145842
0.140046
0.134056
0.127991
0.115187
0.115155
0.115295
0.115638
0.116202
0.116999
0.118046
0.119352
0.120926
0.122776
0.124907
0.127319
0.130013
0.132982
0.136219
0.139709
0.143433
0.147366
0.151476
0.155739
0.160461
0.165125
0.169374
0.173413
0.177156
0.18049
0.1833
0.18547
0.186893
0.187476
0.18715
0.185876
0.183651
0.180503
0.1765
0.17174
0.166343
0.160447
0.154197
0.147737
0.141196
0.133521
0.133272
0.133231
0.133429
0.133881
0.1346
0.1356
0.136888
0.138472
0.140355
0.142541
0.145027
0.147811
0.150884
0.154235
0.157848
0.1617
0.165762
0.17
0.174384
0.179169
0.183902
0.188248
0.192378
0.196199
0.199599
0.202456
0.204653
0.206078
0.206634
0.206247
0.204873
0.202505
0.19917
0.194934
0.189897
0.184184
0.177937
0.17131
0.164453
0.157509
0.157228
0.156732
0.156483
0.156507
0.15682
0.157432
0.158353
0.159589
0.161144
0.163019
0.165212
0.16772
0.170533
0.173641
0.17703
0.180679
0.184563
0.188651
0.192903
0.197285
0.201995
0.206655
0.210962
0.215051
0.218826
0.222174
0.224979
0.227122
0.228492
0.228992
0.228545
0.227105
0.224658
0.221229
0.216879
0.211704
0.205827
0.199392
0.192552
0.185463
0.178276
0.188523
0.187783
0.187324
0.187164
0.187316
0.187789
0.188589
0.189721
0.191182
0.192971
0.195081
0.197504
0.200228
0.203238
0.206515
0.210036
0.213775
0.217696
0.221762
0.225929
0.230336
0.23469
0.23874
0.242576
0.246105
0.249223
0.251823
0.253794
0.255033
0.255446
0.254961
0.253528
0.251131
0.247786
0.243545
0.238495
0.232746
0.226432
0.219702
0.212705
0.205597
0.230861
0.229959
0.229348
0.229033
0.229026
0.229334
0.229959
0.2309
0.232153
0.233712
0.235566
0.237703
0.240108
0.242763
0.245647
0.248736
0.252002
0.255414
0.258934
0.262522
0.266247
0.269918
0.273353
0.276593
0.279561
0.28217
0.284333
0.285958
0.286959
0.287256
0.286786
0.285505
0.28339
0.280451
0.276723
0.272271
0.267183
0.261572
0.255561
0.249281
0.24288
0.289855
0.289053
0.28849
0.288151
0.288046
0.288179
0.28855
0.289156
0.289991
0.291045
0.292308
0.293768
0.29541
0.297219
0.299177
0.301264
0.30346
0.305739
0.308077
0.310443
0.312854
0.315219
0.317442
0.319528
0.321429
0.32309
0.324457
0.325473
0.326084
0.326239
0.325897
0.325026
0.323607
0.321638
0.319135
0.316134
0.312685
0.308855
0.304721
0.300369
0.295915
0.199387
0.113392
0.047752
0.0307447
0.0239079
0.0207967
0.0192944
0.0185876
0.0183
0.0182583
0.0183757
0.0186221
0.0189987
0.0195189
0.0201839
0.0209588
0.0217803
0.221762
0.133356
0.0569046
0.0360661
0.0273696
0.0232089
0.0210581
0.0199238
0.01934
0.0190801
0.0190325
0.0191495
0.0194174
0.0198385
0.0204157
0.0211251
0.0218891
0.240339
0.156831
0.067558
0.0421889
0.0313585
0.0259739
0.0230624
0.0214267
0.0204972
0.0199876
0.019755
0.0197299
0.0198827
0.0202031
0.0206898
0.0213304
0.0220543
0.259128
0.176214
0.0789928
0.0489385
0.0357857
0.0290359
0.0252674
0.0230665
0.0217496
0.0209646
0.0205302
0.0203532
0.0203869
0.0206076
0.0210035
0.0215693
0.0222849
0.277582
0.192477
0.0907425
0.0560682
0.0404501
0.0322408
0.0275633
0.0247667
0.0230459
0.0219753
0.0213338
0.0210033
0.0209191
0.0210443
0.0213535
0.0218333
0.0224669
0.295946
0.205701
0.102032
0.0631133
0.0450342
0.0353733
0.0297996
0.0264258
0.0243157
0.0229734
0.0221356
0.0216603
0.021467
0.0215047
0.0217361
0.0221381
0.0226969
0.313495
0.215384
0.111992
0.0694931
0.0491713
0.0381931
0.0318203
0.0279339
0.0254789
0.0239001
0.0228965
0.022302
0.0220181
0.0219794
0.0221433
0.0224777
0.0229986
0.330244
0.221313
0.119275
0.0743026
0.0523099
0.0403524
0.0333929
0.0291381
0.026442
0.0246988
0.0235797
0.0229004
0.0225519
0.0224604
0.0225682
0.0228429
0.0232821
0.34555
0.22315
0.122852
0.076832
0.0540246
0.0416008
0.0343698
0.0299561
0.0271582
0.0253416
0.0241658
0.0234429
0.0230583
0.0229348
0.0230094
0.0232345
0.0235976
0.35854
0.220561
0.12266
0.0769321
0.0541727
0.0418434
0.034717
0.0303795
0.0276234
0.0258242
0.024652
0.023927
0.0235352
0.0233996
0.0234558
0.0236543
0.0239685
0.368358
0.214049
0.118778
0.0745732
0.0528285
0.0411973
0.0345264
0.0304665
0.0278725
0.0261675
0.0250519
0.0243608
0.0239876
0.0238573
0.0239068
0.0240888
0.0243648
0.374386
0.204191
0.111801
0.0702974
0.0504148
0.039939
0.0339676
0.0303206
0.0279691
0.0264119
0.0253907
0.0247608
0.0244255
0.024314
0.0243657
0.024537
0.0247885
0.376307
0.191329
0.102701
0.0649853
0.0474667
0.0383947
0.0332369
0.0300591
0.0279861
0.0266035
0.0256982
0.0251469
0.024862
0.0247778
0.0248372
0.0250015
0.0252313
0.374109
0.176425
0.0926777
0.0594103
0.0444645
0.036847
0.0325006
0.029783
0.0279873
0.0267852
0.0260046
0.0255397
0.0253107
0.0252574
0.0253263
0.0254837
0.0256926
0.368087
0.160317
0.082877
0.054159
0.0417494
0.0354883
0.0318685
0.0295618
0.0280213
0.0269931
0.0263363
0.0259579
0.0257846
0.025761
0.0258378
0.0259869
0.0261721
0.358739
0.143668
0.0737441
0.0496173
0.03952
0.0344165
0.0313973
0.0294365
0.0281217
0.0272543
0.0267144
0.0264171
0.0262942
0.0262954
0.0263764
0.0265147
0.0266735
0.34669
0.127067
0.0659247
0.0459538
0.0378341
0.033651
0.0311022
0.0294262
0.0283098
0.0275888
0.0271548
0.0269285
0.0268472
0.0268655
0.0269441
0.0270649
0.0271945
0.332743
0.112788
0.0595721
0.043207
0.0366513
0.0331603
0.0309773
0.0295409
0.0286009
0.0280107
0.0276688
0.0275005
0.0274492
0.0274744
0.0275422
0.0276399
0.0277353
0.317816
0.101325
0.0545854
0.0412457
0.035887
0.0329088
0.0310198
0.0297919
0.0290085
0.0285314
0.0282642
0.0281381
0.0281027
0.0281237
0.0281734
0.0282423
0.0282976
0.302879
0.0921
0.0509433
0.0399699
0.0354717
0.0328751
0.0312338
0.0301902
0.0295423
0.029157
0.0289442
0.0288421
0.0288077
0.0288125
0.0288337
0.028863
0.0288756
0.288807
0.084903
0.0483886
0.0392262
0.0353449
0.0330489
0.031626
0.0307439
0.0302072
0.0298896
0.0297089
0.0296118
0.0295628
0.0295391
0.0295219
0.0295057
0.0294711
0.276272
0.0789688
0.0467062
0.0389007
0.03547
0.0334321
0.0322038
0.0314571
0.031004
0.0307278
0.0305563
0.0304451
0.0303658
0.0303013
0.0302371
0.0301714
0.0300841
0.265746
0.0740355
0.0457296
0.0389337
0.03585
0.0340412
0.0329775
0.0323336
0.0319327
0.0316697
0.0314833
0.0313383
0.0312131
0.0310953
0.030974
0.0308481
0.0307036
0.257519
0.0705172
0.0453597
0.039281
0.0364853
0.0348796
0.0339472
0.0333708
0.0329889
0.0327101
0.0324853
0.0322877
0.0321015
0.0319189
0.0317319
0.0315422
0.0313359
0.251659
0.0681179
0.0454858
0.0399319
0.0373888
0.0359535
0.0351118
0.0345639
0.0341668
0.0338441
0.0335577
0.0332885
0.0330264
0.0327679
0.0325084
0.032251
0.0319756
0.248079
0.0667661
0.0460341
0.0408968
0.0385722
0.0372658
0.0364692
0.0359091
0.0354622
0.0350673
0.034696
0.0343364
0.0339834
0.0336371
0.0332948
0.0329555
0.0326066
0.246583
0.0663154
0.0469681
0.0421982
0.0400479
0.0388193
0.0380185
0.0374035
0.0368722
0.0363769
0.0358981
0.0354294
0.0349704
0.0345244
0.0340903
0.0336681
0.0332448
0.246904
0.0666223
0.048291
0.0438506
0.0418288
0.0406194
0.0397611
0.0390477
0.038397
0.0377732
0.0371635
0.0365663
0.0359852
0.0354271
0.0348946
0.0343889
0.0338835
0.24874
0.0675555
0.0500391
0.0458872
0.0439327
0.042676
0.0417036
0.040847
0.0400412
0.0392598
0.0384949
0.0377486
0.0370279
0.036344
0.0357025
0.0350958
0.034501
0.25177
0.0690565
0.052272
0.0483539
0.0463862
0.045006
0.0438594
0.0428126
0.0418143
0.0408444
0.0398985
0.0389809
0.0381018
0.0372763
0.0365145
0.0358066
0.035126
0.255675
0.0711491
0.0550775
0.0513085
0.0492266
0.0476372
0.046251
0.0449626
0.0437307
0.042539
0.041384
0.0402707
0.0392113
0.0382256
0.0373328
0.0365242
0.0357493
0.260152
0.0739293
0.0585821
0.0548299
0.0525082
0.0506115
0.0489112
0.0473229
0.0458108
0.0443595
0.0429644
0.0416286
0.0403645
0.0391963
0.0381571
0.037226
0.036342
0.265009
0.0775085
0.0629417
0.0590254
0.0563085
0.0539885
0.0518853
0.0499276
0.0480807
0.0463265
0.0446561
0.0430683
0.0415724
0.0401952
0.0389903
0.0379314
0.0369485
0.269973
0.0822039
0.0683662
0.0640363
0.060736
0.0578501
0.0552341
0.0528215
0.0505735
0.0484646
0.0464786
0.044606
0.042849
0.0412314
0.0398385
0.0386484
0.0375585
0.274772
0.0884822
0.0751532
0.0700684
0.0659366
0.062305
0.0590384
0.0560625
0.0533305
0.0508038
0.0484541
0.0462601
0.0442109
0.042319
0.0407082
0.0393563
0.0381413
0.279175
0.0970036
0.0837117
0.0774084
0.0721209
0.0674989
0.0634004
0.0597267
0.0564044
0.0533806
0.0506084
0.0480505
0.0456773
0.0434762
0.0416088
0.0400726
0.0387463
0.282987
0.108711
0.094629
0.0864646
0.0795764
0.0736372
0.0684604
0.0639072
0.0598639
0.0562409
0.0529723
0.0499988
0.0472677
0.0447252
0.0425588
0.0408184
0.0393691
0.286078
0.124996
0.108771
0.097829
0.0887078
0.0809965
0.0744108
0.0687329
0.0637915
0.0594443
0.0555841
0.052129
0.0490006
0.0460905
0.0435814
0.0415873
0.039973
0.288336
0.147997
0.127466
0.11238
0.100096
0.0899626
0.081509
0.0743799
0.0683028
0.063066
0.0584962
0.054474
0.050896
0.0475975
0.0447058
0.0424117
0.0406269
0.289643
0.181207
0.152856
0.131466
0.114599
0.101089
0.0901159
0.0810872
0.0735626
0.0672111
0.0617819
0.0570821
0.0529809
0.0492717
0.0459739
0.0433434
0.0413432
0.0225766
0.0232698
0.0266188
0.0389886
0.0780255
0.185288
0.448398
1.04105
2.05627
2.65555
2.25391
2.85122
7.54797
4.77752
1.67106
0.465513
0.113617
0.0349375
0.0214496
0.0199109
0.0231569
0.0243633
0.0295348
0.047549
0.100871
0.238172
0.562725
1.30558
2.61147
3.24437
2.43176
3.13746
7.43162
4.7904
1.68581
0.45868
0.111964
0.0354684
0.0220782
0.020345
0.0238617
0.0258765
0.0338611
0.0600486
0.132555
0.307808
0.711861
1.65301
3.28248
3.81768
2.68641
3.54722
7.49197
4.76162
1.65584
0.436756
0.106426
0.0351775
0.0225609
0.0207635
0.0247532
0.0280672
0.0403714
0.0782099
0.175988
0.39917
0.907107
2.10177
4.0496
4.24344
2.97072
4.05653
7.56474
4.62512
1.56317
0.399696
0.0979105
0.0344835
0.023044
0.0212087
0.0259548
0.0313723
0.0502426
0.104367
0.23483
0.519584
1.16555
2.66091
4.81804
4.46584
3.33229
4.65381
7.52874
4.32588
1.40632
0.350442
0.0882156
0.0339075
0.0236609
0.0217298
0.0276765
0.0365082
0.0652112
0.141546
0.313828
0.678774
1.50694
3.31945
5.45744
4.5593
3.79348
5.37278
7.25298
3.85842
1.20032
0.297399
0.0804952
0.0343293
0.0246135
0.0223844
0.0302994
0.0446502
0.0877704
0.193546
0.419502
0.890088
1.94834
4.0317
5.86882
4.64388
4.318
6.04994
6.65752
3.24123
0.974467
0.254711
0.0797058
0.037251
0.0262789
0.0232639
0.0345132
0.0576847
0.121348
0.265226
0.56112
1.17637
2.48863
4.72713
6.0382
4.77959
4.77339
6.3028
5.72244
2.54517
0.777798
0.24216
0.0932402
0.0453592
0.0294539
0.0245546
0.0415603
0.0785483
0.170456
0.363391
0.750796
1.55644
3.09364
5.32308
5.98846
4.87613
5.00393
6.00661
4.57762
1.91858
0.672289
0.281813
0.131607
0.0635357
0.0358453
0.0266619
0.0536581
0.111631
0.240972
0.497318
1.01124
2.0355
3.70351
5.71186
5.83708
4.89728
4.96373
5.20385
3.47285
1.51179
0.701021
0.390221
0.207972
0.100152
0.048978
0.0305028
0.0746678
0.163154
0.340738
0.680225
1.3651
2.57939
4.28173
5.87384
5.65117
4.83779
4.69449
4.29444
2.66576
1.39049
0.861472
0.570087
0.33487
0.167664
0.0755849
0.0381474
0.111025
0.241667
0.481215
0.937524
1.81006
3.12846
4.80869
5.8546
5.47359
4.71459
4.38126
3.68336
2.3606
1.52749
1.12879
0.821105
0.522579
0.281249
0.127088
0.0541601
0.172851
0.358876
0.680785
1.28287
2.29616
3.64354
5.18839
5.76509
5.29078
4.55688
4.22079
3.44475
2.3402
1.78582
1.51708
1.17213
0.788522
0.457967
0.220704
0.0880718
0.275716
0.535533
0.962848
1.69314
2.76714
4.11782
5.36225
5.62751
5.17129
4.52235
4.25163
3.56392
2.78501
2.33291
2.10323
1.68761
1.18188
0.727527
0.381432
0.158353
0.448096
0.801589
1.32194
2.10531
3.17127
4.51457
5.34891
5.48598
5.11969
4.58464
4.29962
3.85277
3.36612
3.10202
2.90574
2.42682
1.77227
1.14551
0.651907
0.299053
0.73733
1.16941
1.68709
2.42974
3.51268
4.70241
5.26215
5.3698
5.13192
4.74264
4.50942
4.24246
3.96339
3.8827
3.756
3.29205
2.58903
1.79959
1.10821
0.576925
1.19303
1.55159
1.90868
2.62617
3.72941
4.62468
5.10672
5.29953
5.24456
5.03601
4.86213
4.71061
4.55756
4.54466
4.48856
4.05034
3.38147
2.62587
1.86126
1.14313
1.64764
1.66248
1.86774
2.64298
3.65514
4.36983
4.86592
5.1956
5.35771
5.37221
5.3174
5.22453
5.09556
4.98422
4.83703
4.50892
3.84275
3.20947
2.71304
2.20798
1.23069
1.28124
1.65127
2.42797
3.20719
3.81718
4.31109
4.74275
5.08005
5.31084