/*--------------------------------*- C++ -*----------------------------------*\
  =========                 |
  \\      /  F ield         | OpenFOAM: The Open Source CFD Toolbox
   \\    /   O peration     | Website:  https://openfoam.org
    \\  /    A nd           | Version:  6
     \\/     M anipulation  |
\*---------------------------------------------------------------------------*/
FoamFile
{
    version     2.0;
    format      ascii;
    class       surfaceVectorField;
    location    "2.2";
    object      Uf;
}
// * * * * * * * * * * * * * * * * * * * * * * * * * * * * * * * * * * * * * //

dimensions      [0 1 -1 0 0 0 0];

internalField   nonuniform List<vector> 
8193
(
(9.7425 -0.0941693 -1.90935e-18)
(10.0632 -0.160942 4.90144e-19)
(8.71057 -0.291466 -4.21797e-18)
(10.1764 0.0894369 6.53377e-19)
(10.4504 0.0932531 7.84788e-19)
(10.261 0.270883 -2.43888e-19)
(10.4803 0.278537 -4.84072e-19)
(10.2412 0.431063 2.38209e-20)
(10.4244 0.410506 -9.39008e-20)
(10.1978 0.57182 1.0191e-19)
(10.365 0.543315 1.16765e-19)
(10.1453 0.701295 -2.38318e-20)
(10.3068 0.679111 -2.37758e-20)
(10.0857 0.823156 -9.69941e-21)
(10.2446 0.81037 0)
(10.0174 0.938889 -2.04366e-21)
(10.1766 0.936783 -9.68418e-21)
(9.93606 1.04823 1.70028e-20)
(10.0977 1.0602 9.75393e-21)
(9.83738 1.15094 2.39045e-20)
(10.0032 1.18001 -1.7195e-20)
(9.71832 1.24525 -6.29889e-20)
(9.88826 1.29408 4.45328e-20)
(9.57751 1.32765 1.07644e-20)
(9.74868 1.40004 1.2546e-21)
(9.4161 1.39216 4.91062e-21)
(9.58192 1.4937 -1.72375e-20)
(9.23821 1.42864 -3.22261e-21)
(9.38712 1.56909 2.07794e-20)
(9.05012 1.4222 6.89756e-21)
(9.16658 1.6167 2.90636e-21)
(8.84604 1.35363 -8.09103e-21)
(8.92672 1.61978 -8.81771e-21)
(8.54025 1.21495 3.57174e-20)
(8.66528 1.55368 -6.86927e-21)
(7.89035 1.07149 3.28505e-20)
(8.28798 1.41175 -9.56804e-20)
(6.80401 1.01853 7.67377e-20)
(7.46025 1.31482 5.54091e-20)
(5.76055 0.777516 -1.26235e-20)
(6.06536 1.43791 6.5256e-20)
(5.45758 0.0061226 0)
(4.9136 1.22841 4.3556e-21)
(6.01174 -1.13453 6.08415e-20)
(4.93171 0.297949 -1.28364e-20)
(7.14743 -2.19629 5.97084e-20)
(5.92761 -0.981413 3.1567e-19)
(8.63371 -2.96236 6.69515e-20)
(7.51471 -2.13457 0)
(10.176 -3.3803 6.57743e-20)
(9.323 -2.95374 -2.44544e-19)
(11.4414 -3.42514 -3.89672e-21)
(10.9903 -3.33979 -6.97649e-20)
(12.2032 -3.14171 -2.41618e-19)
(12.1563 -3.26759 -3.09291e-19)
(12.4875 -2.68601 7.77992e-20)
(12.6702 -2.88189 1.19029e-19)
(12.4744 -2.20316 1.07455e-19)
(12.7409 -2.39222 -4.26618e-20)
(12.3316 -1.78081 -1.05863e-19)
(12.5875 -1.91156 -3.94719e-20)
(12.1765 -1.45621 1.91541e-20)
(12.3757 -1.53824 1.65637e-20)
(12.0444 -1.20206 2.60259e-21)
(12.2128 -1.26453 -3.95639e-20)
(11.9224 -0.991841 0)
(12.0755 -1.0422 5.00316e-21)
(11.8097 -0.813604 3.31242e-21)
(11.9502 -0.857849 -4.26076e-22)
(11.7123 -0.658293 4.86083e-21)
(11.8418 -0.700635 -3.05624e-21)
(11.6348 -0.519316 -8.80041e-20)
(11.7536 -0.563343 2.95769e-20)
(11.5783 -0.391353 -1.3687e-20)
(11.6885 -0.439477 -1.31245e-20)
(11.5261 -0.265419 0)
(11.6512 -0.33186 0)
(11.4033 -0.133575 2.62281e-19)
(11.6387 -0.245526 0)
(10.9787 -0.0127169 -2.36735e-18)
(11.5764 -0.128639 2.17616e-19)
(11.2167 0.0574817 -1.54401e-18)
(9.97433 0.122203 -1.88616e-19)
(10.5744 0.138079 2.25275e-19)
(10.5678 0.0270368 4.8702e-19)
(10.2384 -0.178895 -1.97082e-19)
(10.5953 0.290009 1.62569e-19)
(10.6285 0.230714 1.69595e-19)
(10.5453 0.41063 -3.36588e-19)
(10.604 0.384769 -2.41997e-19)
(10.4868 0.535188 -6.3129e-20)
(10.5553 0.497595 -9.42797e-20)
(10.426 0.663808 9.35288e-20)
(10.5037 0.620104 9.28942e-20)
(10.3642 0.794251 0)
(10.4498 0.754234 -1.16593e-20)
(10.2976 0.92582 0)
(10.3897 0.890299 -9.44927e-21)
(10.2222 1.05731 0)
(10.322 1.02698 9.23687e-20)
(10.1332 1.18801 2.07637e-20)
(10.2425 1.16529 -3.73719e-20)
(10.0256 1.31673 4.86159e-20)
(10.1464 1.30363 -9.566e-20)
(9.89407 1.44168 3.45705e-20)
(10.0285 1.43999 1.00249e-19)
(9.73407 1.56013 -2.55841e-20)
(9.88382 1.57229 6.72056e-21)
(9.5422 1.6674 3.51675e-21)
(9.70796 1.69703 -9.80512e-21)
(9.31701 1.75562 -1.51797e-20)
(9.49734 1.80901 1.36273e-19)
(9.0604 1.81201 -4.93873e-20)
(9.25062 1.90046 -6.64756e-20)
(8.77659 1.81735 -2.33655e-20)
(8.97026 1.95725 1.26937e-19)
(8.443 1.75002 -3.39836e-20)
(8.65621 1.95848 6.88039e-20)
(7.88724 1.63967 -7.95824e-20)
(8.25942 1.89105 -3.48799e-20)
(6.8084 1.69567 2.00891e-19)
(7.55823 1.80997 -3.54409e-20)
(5.41619 1.87149 8.09065e-20)
(6.23267 1.99085 2.12504e-19)
(4.61988 1.55952 2.48459e-20)
(4.77103 2.19231 4.38247e-21)
(5.01359 0.469241 -7.37344e-22)
(4.35708 1.59767 4.07802e-19)
(6.38486 -0.905222 -8.65906e-20)
(5.2569 0.25491 -3.54421e-19)
(8.23624 -2.09318 -2.99713e-19)
(7.01159 -1.1748 -4.94097e-19)
(10.1279 -2.86671 -3.64972e-19)
(9.07494 -2.29825 2.07554e-19)
(11.6597 -3.1499 -3.38986e-19)
(10.9833 -2.93431 -3.97029e-19)
(12.5577 -2.98171 -1.28548e-19)
(12.3216 -3.0292 -3.68613e-19)
(12.8576 -2.56609 7.15361e-21)
(12.8952 -2.72851 3.53799e-19)
(12.7977 -2.08666 -6.73965e-20)
(12.9568 -2.27336 -2.37566e-19)
(12.5864 -1.65959 3.82439e-22)
(12.7635 -1.80074 3.87428e-22)
(12.3748 -1.34249 -1.6399e-20)
(12.5031 -1.43315 -2.874e-20)
(12.2114 -1.10309 -1.77787e-20)
(12.3127 -1.17512 -2.14959e-21)
(12.0728 -0.909016 4.54515e-21)
(12.1617 -0.967062 1.80954e-20)
(11.9524 -0.747966 -6.8388e-21)
(12.0283 -0.797153 7.74886e-21)
(11.8527 -0.610478 1.24636e-20)
(11.9163 -0.653912 -3.5402e-20)
(11.7747 -0.491841 1.81663e-20)
(11.826 -0.530922 7.72663e-20)
(11.7203 -0.3904 0)
(11.7577 -0.423785 -3.89654e-20)
(11.6896 -0.306574 0)
(11.7142 -0.335348 3.70634e-20)
(11.6761 -0.239488 -3.60345e-20)
(11.6948 -0.272229 0)
(11.6404 -0.154795 6.9839e-20)
(11.6634 -0.200184 -1.33876e-19)
(11.5874 -0.070431 2.50931e-19)
(11.3652 0.106637 4.30656e-18)
(10.7123 0.223538 5.16711e-19)
(10.8065 0.15153 -1.40511e-19)
(10.7176 0.0375652 2.87021e-18)
(10.6777 0.34241 2.018e-20)
(10.773 0.292439 1.99992e-20)
(10.6381 0.458258 0)
(10.745 0.43976 0)
(10.5954 0.584358 0)
(10.7088 0.558712 -1.19078e-19)
(10.5471 0.717162 -1.15222e-20)
(10.664 0.682837 5.94789e-20)
(10.4914 0.852517 -2.10796e-20)
(10.6111 0.817437 6.09614e-20)
(10.4279 0.990467 8.20426e-20)
(10.5519 0.957152 -7.35207e-20)
(10.3544 1.13071 4.40025e-20)
(10.4845 1.10157 3.35349e-20)
(10.2666 1.27339 -1.83771e-19)
(10.4056 1.25096 1.80638e-20)
(10.1591 1.41737 -4.44441e-20)
(10.3094 1.40385 -2.75718e-19)
(10.0265 1.5609 4.56108e-20)
(10.1901 1.55842 4.52286e-20)
(9.86342 1.70143 2.21969e-20)
(10.0421 1.71273 -1.05759e-19)
(9.66505 1.83459 1.64683e-19)
(9.85969 1.86373 3.21147e-20)
(9.4279 1.9532 5.75443e-20)
(9.63681 2.00645 1.18047e-19)
(9.15163 2.04637 1.05773e-20)
(9.36955 2.13414 1.92416e-19)
(8.83644 2.09991 6.9983e-20)
(9.05899 2.23604 -1.13819e-19)
(8.46392 2.0965 -7.99546e-21)
(8.70538 2.296 -1.5431e-19)
(7.92907 2.04088 -7.92861e-20)
(8.27974 2.3018 0)
(6.96702 2.06471 -1.59311e-19)
(7.64101 2.2669 1.11196e-21)
(5.53625 2.30835 2.12753e-20)
(6.44421 2.38407 -1.32071e-19)
(4.43682 2.29289 -1.02493e-20)
(4.814 2.73809 0)
(4.54132 1.42978 -2.80563e-19)
(3.93468 2.49598 1.08519e-19)
(5.85371 0.0166646 -7.68088e-19)
(4.59064 1.29511 -6.47574e-22)
(7.84843 -1.37556 1.9908e-21)
(6.42013 -0.273507 -1.84968e-19)
(9.95236 -2.37079 1.20456e-19)
(8.72624 -1.62322 1.21562e-18)
(11.6773 -2.83029 -3.0796e-19)
(10.8969 -2.47519 2.77923e-21)
(12.6952 -2.77673 1.5121e-19)
(12.4376 -2.74059 -4.50061e-19)
(13.0265 -2.43272 7.99301e-20)
(13.0914 -2.54092 4.64114e-19)
(12.9484 -1.97983 -1.68505e-19)
(13.1648 -2.13463 -1.77311e-19)
(12.7009 -1.56684 -2.91445e-20)
(12.9366 -1.68871 -1.15686e-19)
(12.4574 -1.26212 -1.24501e-21)
(12.6272 -1.33327 -2.91017e-20)
(12.2772 -1.03564 5.10126e-20)
(12.4084 -1.09213 2.40409e-20)
(12.1298 -0.852541 1.33208e-20)
(12.2438 -0.89768 -6.62527e-21)
(12.0041 -0.701484 1.88177e-20)
(12.1018 -0.740109 1.07271e-20)
(11.9014 -0.574181 -1.22772e-20)
(11.9853 -0.607894 1.34093e-20)
(11.8214 -0.464471 -6.09221e-20)
(11.8929 -0.494735 3.52052e-20)
(11.7643 -0.36861 -9.77519e-21)
(11.8235 -0.398025 -2.1489e-20)
(11.7274 -0.286744 3.61396e-20)
(11.7768 -0.317463 7.19656e-20)
(11.7017 -0.227393 1.19006e-19)
(11.7454 -0.252249 -6.05661e-20)
(11.6865 -0.169174 -3.66382e-19)
(11.7163 -0.18807 2.56616e-19)
(11.7087 -0.120187 1.19238e-19)
(11.6771 -0.05429 7.93311e-19)
(10.8798 0.300135 -6.48548e-19)
(10.9722 0.242038 -9.87958e-19)
(10.9397 0.171784 -1.45657e-18)
(10.839 0.41395 0)
(10.9257 0.362922 3.36376e-19)
(10.8072 0.530489 -1.17152e-19)
(10.9033 0.50695 0)
(10.7701 0.654771 -5.49866e-20)
(10.8742 0.625584 6.19212e-20)
(10.7226 0.785488 1.1891e-19)
(10.8333 0.748383 -1.29837e-19)
(10.6671 0.922159 5.913e-21)
(10.7836 0.88291 5.8937e-20)
(10.6045 1.06486 -1.10562e-19)
(10.7273 1.02649 8.21251e-20)
(10.5324 1.21453 7.33545e-21)
(10.6636 1.17857 -8.67039e-21)
(10.4455 1.37074 -1.14369e-19)
(10.5879 1.33912 1.70645e-20)
(10.3379 1.5323 -1.38395e-19)
(10.4939 1.50727 1.64183e-19)
(10.2036 1.69764 -1.04661e-19)
(10.3758 1.68133 7.5738e-20)
(10.0365 1.86455 -1.18304e-20)
(10.2276 1.85952 -1.80786e-19)
(9.82977 2.02918 2.08828e-20)
(10.0423 2.03923 2.07179e-20)
(9.57712 2.18529 2.51053e-19)
(9.81211 2.21581 0)
(9.27641 2.32334 6.50321e-20)
(9.53053 2.38297 1.67292e-20)
(8.92855 2.43176 -3.31159e-19)
(9.19808 2.53302 -2.10128e-19)
(8.5229 2.49605 -1.45383e-19)
(8.81491 2.65464 -3.00396e-20)
(7.99318 2.50999 5.72412e-20)
(8.36037 2.73487 -1.52932e-20)
(7.11928 2.54009 -4.41465e-20)
(7.74027 2.77005 5.69272e-20)
(5.70743 2.79223 -9.95498e-20)
(6.67207 2.85055 -1.00277e-19)
(4.30303 3.00914 1.88516e-19)
(5.00238 3.23015 0)
(4.00206 2.41889 6.1802e-19)
(3.68075 3.28601 -3.10724e-19)
(5.18662 1.05451 9.16955e-19)
(3.97278 2.33577 3.44973e-19)
(7.32641 -0.520978 1.11692e-18)
(5.75155 0.712358 3.87915e-19)
(9.69182 -1.74639 1.0149e-18)
(8.27263 -0.84643 2.37317e-19)
(11.6677 -2.41365 -2.0921e-19)
(10.7162 -1.91185 -6.98716e-19)
(12.8413 -2.50347 -9.3244e-20)
(12.4907 -2.37418 -2.96312e-19)
(13.2294 -2.24563 7.24824e-20)
(13.2535 -2.2949 3.7227e-19)
(13.1476 -1.83303 -1.06883e-19)
(13.3613 -1.94935 1.41355e-19)
(12.8567 -1.44453 -1.15394e-19)
(13.1031 -1.54951 -9.979e-20)
(12.5724 -1.15864 -1.44556e-20)
(12.7453 -1.21478 1.59534e-20)
(12.37 -0.949905 -2.92885e-20)
(12.4972 -0.994877 3.07826e-20)
(12.211 -0.782194 -4.38651e-21)
(12.3191 -0.817776 -7.17308e-21)
(12.0784 -0.643992 7.57299e-21)
(12.1686 -0.674878 6.20986e-21)
(11.9721 -0.528862 6.06426e-20)
(12.0466 -0.555631 -8.33541e-22)
(11.8903 -0.430812 6.8842e-20)
(11.9514 -0.453657 1.13196e-20)
(11.8308 -0.346717 6.15008e-20)
(11.8801 -0.368039 -2.09651e-20)
(11.7889 -0.276469 3.01928e-20)
(11.8304 -0.297436 -1.11012e-20)
(11.759 -0.220455 7.68952e-20)
(11.7936 -0.23772 2.24944e-20)
(11.7438 -0.168198 1.21351e-19)
(11.7637 -0.178664 -1.61605e-19)
(11.7596 -0.130884 1.83096e-19)
(11.7528 -0.114743 -1.71621e-19)
(11.0323 0.365972 -6.06723e-19)
(11.1335 0.31907 -1.33249e-18)
(11.1013 0.254244 2.40527e-18)
(10.9975 0.477146 3.43701e-19)
(11.095 0.430637 3.36468e-19)
(10.9726 0.592775 1.76765e-19)
(11.0776 0.567893 2.07525e-19)
(10.9397 0.715605 -9.18487e-21)
(11.0517 0.684775 1.54958e-19)
(10.8961 0.84597 -2.05298e-19)
(11.0135 0.806509 -3.30174e-19)
(10.845 0.984564 1.37839e-19)
(10.9674 0.941851 -1.563e-20)
(10.7873 1.13288 1.87922e-19)
(10.9161 1.08943 6.0584e-20)
(10.7198 1.29159 -1.50446e-20)
(10.8577 1.24862 3.70687e-20)
(10.637 1.46039 2.6182e-19)
(10.7867 1.41976 -3.68352e-20)
(10.5326 1.63868 3.79318e-19)
(10.6971 1.60258 5.59621e-19)
(10.4004 1.82541 -5.89677e-20)
(10.5829 1.79606 7.4684e-20)
(10.2335 2.0184 -7.61996e-20)
(10.4373 1.99843 -7.52986e-20)
(10.0239 2.21428 0)
(10.2523 2.20702 -9.83232e-20)
(9.76384 2.40765 -2.14105e-19)
(10.0189 2.41783 6.46102e-19)
(9.44922 2.5914 -2.67139e-19)
(9.72942 2.62565 -3.09305e-19)
(9.08057 2.75567 3.39557e-20)
(9.38297 2.82534 2.31301e-19)
(8.64879 2.88904 6.29848e-20)
(8.9803 3.00969 4.2947e-19)
(8.10396 2.97905 -1.52031e-20)
(8.50156 3.16561 2.63857e-19)
(7.28719 3.03942 0)
(7.86897 3.27825 -1.73639e-20)
(5.94619 3.24667 0)
(6.88435 3.36246 4.79497e-20)
(4.34344 3.57963 -1.15638e-19)
(5.26122 3.6689 0)
(3.62844 3.27335 -1.1384e-19)
(3.58642 3.9194 -2.70569e-19)
(4.54729 2.07207 0)
(3.44863 3.27828 0)
(6.72376 0.395628 -5.31493e-19)
(5.03522 1.70548 1.16331e-18)
(9.32406 -1.03418 -1.57936e-18)
(7.71651 -0.00663328 -3.2666e-19)
(11.56 -1.90928 -9.90881e-19)
(10.4327 -1.26457 1.2589e-18)
(12.9156 -2.16984 2.06806e-19)
(12.4633 -1.92897 -8.74761e-19)
(13.389 -2.00372 3.60687e-19)
(13.3784 -1.99038 8.69733e-19)
(13.3176 -1.65674 1.74946e-19)
(13.5353 -1.72359 1.15287e-19)
(12.991 -1.3052 3.57725e-20)
(13.2597 -1.38635 1.28303e-19)
(12.6693 -1.04552 6.21298e-20)
(12.8562 -1.08365 -2.44872e-20)
(12.446 -0.857115 4.49347e-20)
(12.5796 -0.887711 -1.16016e-20)
(12.2762 -0.706696 3.60321e-21)
(12.3879 -0.730978 1.11789e-20)
(12.1366 -0.582244 2.25279e-21)
(12.2291 -0.604033 3.4421e-21)
(12.0259 -0.479033 -5.70085e-20)
(12.1014 -0.498387 7.26197e-20)
(11.9414 -0.391465 -8.82143e-20)
(12.0029 -0.40773 9.04896e-20)
(11.8794 -0.316855 -9.10201e-20)
(11.9291 -0.332101 -5.98298e-20)
(11.8345 -0.254691 4.61742e-21)
(11.8763 -0.269655 5.00778e-20)
(11.8013 -0.202756 -2.53341e-19)
(11.8366 -0.215764 2.57162e-20)
(11.7835 -0.155321 5.31219e-20)
(11.8064 -0.163853 -4.39069e-19)
(11.7967 -0.124046 4.89851e-20)
(11.7882 -0.114003 5.0956e-19)
(11.2023 0.432004 -1.00879e-18)
(11.304 0.389399 -9.49303e-19)
(11.2596 0.329883 -2.31986e-18)
(11.1766 0.538073 2.01951e-19)
(11.2754 0.492724 5.12731e-19)
(11.1556 0.650823 1.56011e-19)
(11.2622 0.622134 -6.05367e-19)
(11.1246 0.771451 -1.71172e-19)
(11.2375 0.73671 2.19088e-19)
(11.084 0.901263 -1.4807e-19)
(11.202 0.856951 -1.39633e-19)
(11.0376 1.04213 -9.28737e-20)
(11.1608 0.992864 -8.55005e-21)
(10.9857 1.19578 -8.69597e-20)
(11.1161 1.14408 -8.49681e-20)
(10.9238 1.36298 0)
(11.0643 1.31009 2.58349e-19)
(10.8463 1.54371 2.57842e-19)
(10.9995 1.49129 0)
(10.7472 1.73772 2.63469e-19)
(10.916 1.68809 -1.25946e-19)
(10.6201 1.94485 0)
(10.8082 1.90041 -1.25184e-19)
(10.4564 2.16411 -9.70605e-20)
(10.6689 2.12705 6.34124e-20)
(10.2469 2.39139 6.15404e-19)
(10.4873 2.36497 -9.69648e-20)
(9.9836 2.62267 4.91902e-19)
(10.2548 2.61022 -4.10518e-19)
(9.66184 2.85334 1.79023e-19)
(9.96391 2.86015 -1.55024e-19)
(9.28049 3.07763 6.18038e-19)
(9.6134 3.11237 -8.20779e-19)
(8.82997 3.28237 6.21276e-19)
(9.19979 3.36246 6.12326e-20)
(8.26285 3.45055 2.32713e-19)
(8.70194 3.59603 -3.70871e-20)
(7.46103 3.56621 3.08896e-20)
(8.04127 3.78516 -1.73098e-20)
(6.18671 3.72342 4.76862e-20)
(7.07949 3.9102 -4.57637e-19)
(4.45943 4.06515 -1.56951e-19)
(5.53221 4.11075 -2.42033e-21)
(3.36102 4.01143 -1.54653e-19)
(3.62911 4.43264 4.7797e-19)
(3.9331 3.00871 1.18164e-18)
(3.02349 4.08069 6.13914e-19)
(6.05097 1.33049 1.36629e-18)
(4.30902 2.6496 -2.90631e-19)
(8.85429 -0.260379 2.50488e-18)
(7.06684 0.859641 1.02802e-19)
(11.3591 -1.32387 1.39096e-18)
(10.0451 -0.553371 6.99488e-19)
(12.9352 -1.76942 -9.61729e-20)
(12.3422 -1.40366 -1.19835e-20)
(13.525 -1.70842 6.20111e-19)
(13.4572 -1.62486 9.3155e-20)
(13.4733 -1.45044 9.88997e-20)
(13.6746 -1.46022 -2.00146e-19)
(13.1202 -1.14601 1.08462e-19)
(13.4034 -1.19576 3.08789e-20)
(12.7628 -0.919912 -9.70091e-20)
(12.9581 -0.938757 -3.51686e-20)
(12.5188 -0.755147 -4.80852e-20)
(12.6549 -0.769515 -5.67499e-20)
(12.3382 -0.624153 1.09612e-20)
(12.4498 -0.636546 1.14344e-20)
(12.1915 -0.515411 7.73879e-20)
(12.2831 -0.527567 -1.38391e-22)
(12.0762 -0.42477 2.20175e-19)
(12.1496 -0.436599 -1.00656e-21)
(11.9886 -0.348081 1.15507e-19)
(12.0474 -0.358104 -2.56634e-20)
(11.9239 -0.283 6.00238e-20)
(11.9708 -0.292521 -2.44235e-20)
(11.8766 -0.228609 5.28081e-20)
(11.915 -0.238179 -1.4657e-19)
(11.8415 -0.182411 -1.64864e-19)
(11.8734 -0.190757 -4.78559e-20)
(11.8197 -0.142128 -1.53893e-19)
(11.842 -0.146305 -2.59977e-19)
(11.8257 -0.113628 3.67138e-19)
(11.8144 -0.110874 -9.58419e-20)
(11.3826 0.489386 5.28317e-19)
(11.4849 0.449281 -6.12619e-19)
(11.4287 0.393725 2.72701e-20)
(11.3625 0.590504 -9.34989e-20)
(11.463 0.544981 5.08414e-19)
(11.3435 0.698895 -5.62314e-19)
(11.4513 0.665426 -8.89674e-19)
(11.3148 0.817073 2.47199e-19)
(11.4285 0.777347 -4.95713e-20)
(11.2786 0.946743 0)
(11.3968 0.896387 2.79905e-19)
(11.2387 1.09015 0)
(11.362 1.03302 -2.99926e-19)
(11.194 1.2492 2.51789e-19)
(11.3251 1.18772 0)
(11.1393 1.42473 2.603e-19)
(11.2811 1.3602 -1.01365e-20)
(11.0687 1.6171 -3.75075e-19)
(11.2239 1.55099 0)
(10.9767 1.82664 -5.40532e-19)
(11.1483 1.76114 -3.76898e-19)
(10.857 2.05331 -1.71657e-20)
(11.0486 1.99132 -1.23165e-19)
(10.7002 2.29663 6.33992e-20)
(10.9176 2.24116 6.24288e-20)
(10.4955 2.55493 -1.02836e-18)
(10.7437 2.50785 1.43543e-18)
(10.2344 2.82433 -1.0976e-18)
(10.5167 2.78823 -4.41528e-19)
(9.91387 3.10322 -1.10821e-18)
(10.2315 3.08185 -5.93683e-20)
(9.53047 3.38942 -1.33128e-18)
(9.88706 3.38985 5.85865e-20)
(9.06843 3.67117 -5.54713e-19)
(9.47386 3.7098 -2.63147e-19)
(8.47548 3.91869 -2.8414e-19)
(8.95905 4.02328 -2.8382e-19)
(7.65271 4.0992 -4.66457e-19)
(8.26032 4.28473 -1.07418e-18)
(6.41349 4.22788 -4.8529e-19)
(7.26695 4.46362 -7.71242e-19)
(4.65501 4.49838 -7.90765e-20)
(5.77373 4.57967 -2.42448e-21)
(3.21186 4.61671 5.44097e-19)
(3.76285 4.85327 1.20418e-18)
(3.35343 3.82554 -5.58291e-19)
(2.69289 4.71167 -2.13803e-18)
(5.33741 2.23184 -1.25373e-18)
(3.60501 3.49545 -1.12652e-18)
(8.2893 0.549546 -1.82053e-18)
(6.34398 1.71069 -1.95675e-19)
(11.0548 -0.67148 -7.1762e-19)
(9.55427 0.193978 -1.66359e-18)
(12.8767 -1.30023 2.2116e-19)
(12.1176 -0.808378 9.151e-19)
(13.6131 -1.36436 -7.56222e-19)
(13.4743 -1.20089 -1.15758e-18)
(13.6034 -1.21222 -2.53826e-19)
(13.7687 -1.15954 -5.60817e-19)
(13.2367 -0.966697 -9.7366e-20)
(13.5294 -0.974879 -3.13757e-20)
(12.8467 -0.781347 6.03514e-21)
(13.049 -0.778439 1.99867e-21)
(12.5834 -0.644178 0)
(12.7222 -0.640067 5.90064e-20)
(12.3922 -0.535107 0)
(12.5041 -0.534082 6.91775e-21)
(12.2389 -0.44379 -7.78138e-20)
(12.3301 -0.445416 -7.3662e-20)
(12.119 -0.366707 -2.42604e-19)
(12.1915 -0.370276 1.18688e-19)
(12.028 -0.301119 -1.61712e-19)
(12.0856 -0.304788 -1.90791e-19)
(11.9603 -0.245336 -2.41198e-19)
(12.0059 -0.249462 0)
(11.9105 -0.198392 -2.33831e-19)
(11.9471 -0.203219 2.85481e-19)
(11.8738 -0.158368 -1.45372e-19)
(11.9034 -0.16255 3.05213e-19)
(11.8489 -0.123948 3.64386e-19)
(11.8709 -0.125158 -1.41939e-19)
(11.8505 -0.0984968 1.0077e-19)
(11.8368 -0.0962274 4.10241e-19)
(11.5685 0.534589 -6.6177e-19)
(11.6692 0.495044 -2.2541e-18)
(11.6045 0.446034 -1.42261e-19)
(11.5528 0.6306 -8.32806e-20)
(11.6532 0.582851 6.73817e-19)
(11.5353 0.73508 -3.67347e-19)
(11.6417 0.695173 7.30449e-20)
(11.5097 0.850846 -1.02185e-20)
(11.6213 0.804545 3.99783e-19)
(11.4796 0.980566 -5.85113e-21)
(11.5953 0.923009 -3.79862e-19)
(11.4475 1.12677 -3.03966e-19)
(11.5689 1.06073 6.92328e-19)
(11.411 1.29102 -2.56264e-19)
(11.5406 1.2188 3.23958e-19)
(11.3645 1.47458 -2.65766e-19)
(11.5055 1.39716 2.86223e-19)
(11.3024 1.67827 0)
(11.4573 1.59698 1.6845e-19)
(11.2193 1.90308 0)
(11.3914 1.82001 0)
(11.1085 2.14913 0)
(11.3017 2.06724 -9.3907e-20)
(10.9605 2.4158 1.41272e-18)
(11.1803 2.33871 9.38898e-20)
(10.765 2.70174 2.01656e-18)
(11.0158 2.63247 -5.05168e-20)
(10.5137 3.00995 5.89238e-19)
(10.802 2.94794 5.82228e-19)
(10.2033 3.33901 1.09697e-18)
(10.5306 3.28808 0)
(9.82788 3.68959 1.10164e-18)
(10.2027 3.65502 1.10644e-18)
(9.36102 4.04844 0)
(9.79924 4.0481 1.83476e-18)
(8.73895 4.37564 -1.07364e-18)
(9.26923 4.44067 -1.76022e-18)
(7.86663 4.61934 -1.49309e-18)
(8.52129 4.76938 9.65216e-20)
(6.61609 4.74475 -4.2137e-19)
(7.45567 4.99405 -8.52351e-19)
(4.85298 4.90756 9.64492e-19)
(5.96387 5.06322 4.93477e-22)
(3.15141 5.07826 -2.94798e-19)
(3.92373 5.21148 8.57142e-20)
(2.85608 4.47869 -1.18816e-18)
(2.44122 5.16461 7.82897e-19)
(4.60845 3.05927 1.78601e-20)
(2.95837 4.19446 9.09475e-19)
(7.63907 1.35443 -5.0824e-20)
(5.56682 2.49514 1.11617e-18)
(10.6478 0.0240807 5.0281e-20)
(8.96747 0.939062 1.56394e-18)
(12.7317 -0.769935 -5.76181e-19)
(11.7836 -0.163587 4.0935e-20)
(13.6368 -0.977393 -9.5624e-19)
(13.4112 -0.720746 -1.16459e-19)
(13.6958 -0.935371 -3.25895e-19)
(13.8112 -0.819651 3.44674e-19)
(13.3372 -0.765551 5.19281e-20)
(13.6286 -0.723052 5.81843e-20)
(12.9201 -0.627855 5.47631e-20)
(13.126 -0.599552 -4.38536e-21)
(12.6397 -0.523349 6.4167e-20)
(12.7794 -0.498942 -9.12683e-20)
(12.439 -0.43923 -6.93741e-20)
(12.5495 -0.423177 3.61351e-20)
(12.2799 -0.367199 1.34836e-19)
(12.3696 -0.357364 -2.88198e-20)
(12.1558 -0.304926 1.73234e-19)
(12.2267 -0.29945 5.6095e-20)
(12.0615 -0.251043 -2.42437e-20)
(12.1174 -0.24799 -2.5144e-20)
(11.9908 -0.204792 5.23096e-19)
(12.0347 -0.2035 -2.59574e-19)
(11.9385 -0.165495 8.12995e-19)
(11.973 -0.165716 -5.74326e-20)
(11.9 -0.131954 2.9868e-19)
(11.9272 -0.132225 -3.46452e-19)
(11.8726 -0.103457 -3.44432e-19)
(11.8932 -0.101906 -3.79649e-19)
(11.8695 -0.081133 9.54031e-20)
(11.8551 -0.0810612 -3.05727e-19)
(11.7553 0.565094 -1.23843e-18)
(11.8548 0.524557 -1.40409e-18)
(11.7841 0.481609 2.83432e-19)
(11.7423 0.656005 8.44732e-19)
(11.8403 0.603623 1.44197e-18)
(11.7267 0.756811 8.21784e-19)
(11.8295 0.709069 1.84058e-19)
(11.7059 0.870636 5.2558e-20)
(11.8132 0.816846 -1.57296e-18)
(11.6837 1.00074 2.82766e-19)
(11.7952 0.935365 -6.90488e-19)
(11.661 1.14972 1.31026e-18)
(11.7787 1.07441 2.69452e-19)
(11.6339 1.31927 8.56643e-19)
(11.7605 1.23574 3.1791e-19)
(11.5967 1.51049 7.24842e-19)
(11.735 1.41965 -1.01019e-18)
(11.5448 1.72521 1.6955e-19)
(11.6973 1.62783 -3.94239e-20)
(11.4723 1.96494 -9.18419e-20)
(11.6431 1.8632 -6.8481e-19)
(11.3721 2.22977 3.41378e-20)
(11.5647 2.12654 -9.22513e-20)
(11.2343 2.51952 -1.33399e-18)
(11.4548 2.41838 -1.40467e-19)
(11.0514 2.83309 -1.45142e-18)
(11.3014 2.73745 -1.31738e-18)
(10.8181 3.17731 0)
(11.106 3.08752 1.22301e-19)
(10.5291 3.55841 1.24954e-20)
(10.8602 3.47561 0)
(10.1713 3.97529 1.82348e-18)
(10.5588 3.90417 -2.33163e-18)
(9.70301 4.40905 7.34722e-20)
(10.1708 4.37086 -2.44476e-18)
(9.04561 4.80806 -6.8043e-19)
(9.62188 4.83518 2.44355e-18)
(8.10226 5.10379 5.31867e-19)
(8.81091 5.22202 -1.18038e-18)
(6.79127 5.23932 -5.33349e-19)
(7.64537 5.47364 -1.16058e-18)
(5.01668 5.28708 -7.29537e-19)
(6.0888 5.5144 1.19951e-20)
(3.13525 5.41964 -9.65033e-20)
(4.06221 5.51757 -2.28237e-18)
(2.45622 4.9484 1.5076e-18)
(2.23288 5.44595 6.3024e-19)
(3.9029 3.74183 2.09313e-18)
(2.38184 4.7113 4.16807e-19)
(6.91668 2.10669 2.745e-18)
(4.76869 3.15987 -3.48316e-19)
(10.1378 0.726778 1.55002e-18)
(8.29726 1.63516 6.95878e-20)
(12.4924 -0.184931 5.18745e-19)
(11.3469 0.499081 4.17931e-20)
(13.5962 -0.553998 1.2804e-18)
(13.246 -0.187651 6.34958e-19)
(13.7444 -0.617213 7.48952e-19)
(13.7982 -0.436586 4.21782e-19)
(13.4111 -0.541104 0)
(13.6877 -0.444759 -7.60617e-20)
(12.9791 -0.458636 -1.55628e-19)
(13.185 -0.400741 0)
(12.6851 -0.392127 -1.28217e-19)
(12.8234 -0.345642 -9.25925e-20)
(12.4768 -0.336251 7.54568e-20)
(12.5841 -0.30359 3.01096e-20)
(12.3135 -0.285321 -1.08647e-19)
(12.4004 -0.263025 4.65658e-20)
(12.186 -0.239228 -1.39585e-19)
(12.2545 -0.223895 7.53729e-20)
(12.0886 -0.197953 -2.68906e-19)
(12.1427 -0.187573 -1.22383e-19)
(12.015 -0.161756 -8.39531e-19)
(12.0573 -0.154707 -1.54639e-19)
(11.9602 -0.130547 -1.21634e-18)
(11.9929 -0.125969 -1.19902e-19)
(11.9198 -0.103771 -1.01946e-18)
(11.9449 -0.100158 -4.75694e-19)
(11.8904 -0.0810356 6.54787e-20)
(11.9095 -0.0770502 4.15517e-21)
(11.8826 -0.0622874 5.24558e-19)
(11.8692 -0.063795 -9.21987e-19)
(11.9409 0.578205 9.38499e-19)
(12.0372 0.539728 6.42062e-19)
(11.9666 0.498675 -3.22644e-18)
(11.9279 0.665125 9.51954e-19)
(12.0213 0.609362 1.20379e-18)
(11.9151 0.762829 -2.15075e-18)
(12.0117 0.707015 2.61913e-20)
(11.9014 0.875366 -2.31266e-18)
(12.0022 0.813654 -9.47944e-19)
(11.8891 1.00616 -7.29652e-19)
(11.9944 0.932859 7.58958e-19)
(11.877 1.15772 -7.17609e-19)
(11.9891 1.07316 1.30767e-19)
(11.8604 1.33207 -1.50333e-18)
(11.9819 1.23727 -8.99826e-19)
(11.834 1.53114 -1.76469e-18)
(11.9677 1.42651 2.40211e-19)
(11.7937 1.7565 -8.63704e-19)
(11.9417 1.64279 1.2406e-18)
(11.7334 2.01055 -6.88068e-19)
(11.9009 1.88979 -7.29465e-19)
(11.6453 2.29328 -2.28036e-19)
(11.8351 2.16783 1.01022e-18)
(11.5199 2.60564 -3.79373e-20)
(11.7387 2.47888 -7.47235e-19)
(11.3536 2.94773 3.03621e-19)
(11.5998 2.8226 1.10118e-19)
(11.145 3.33088 1.22084e-19)
(11.43 3.20735 3.00765e-18)
(10.8871 3.75867 -2.32052e-18)
(11.2147 3.64335 2.43367e-18)
(10.5559 4.24051 -6.54792e-18)
(10.9515 4.13098 -2.95529e-18)
(10.0857 4.74148 -1.15816e-19)
(10.5784 4.6665 -1.8208e-18)
(9.38209 5.19937 1.8684e-18)
(10.0009 5.18648 1.91758e-18)
(8.34763 5.53085 -2.94269e-18)
(9.10925 5.61489 3.12967e-18)
(6.933 5.66813 -6.59363e-19)
(7.81907 5.86592 -1.49872e-18)
(5.11839 5.62587 -1.57201e-18)
(6.14638 5.86969 4.49787e-20)
(3.10952 5.62472 -1.54776e-18)
(4.11616 5.73978 -2.02492e-20)
(2.10613 5.24191 -8.03605e-20)
(2.05182 5.59059 0)
(3.2331 4.23607 -1.38104e-18)
(1.86432 5.02033 -1.15701e-18)
(6.16289 2.75621 -2.85501e-18)
(3.9848 3.6598 -1.22395e-18)
(9.5363 1.40812 -1.42209e-18)
(7.57024 2.2354 -2.54394e-18)
(12.1386 0.430415 1.15363e-19)
(10.8164 1.14348 1.42401e-19)
(13.4728 -0.0873367 -3.91613e-19)
(12.9687 0.383963 -5.13172e-19)
(13.7449 -0.264359 -4.84376e-19)
(13.715 -0.0109587 -4.2026e-19)
(13.453 -0.293178 -7.6025e-20)
(13.6944 -0.145532 -7.84823e-20)
(13.0222 -0.275102 6.31888e-20)
(13.2184 -0.183658 0)
(12.7179 -0.250138 6.09445e-20)
(12.8514 -0.178986 6.33055e-20)
(12.5044 -0.225635 0)
(12.6052 -0.174557 0)
(12.3386 -0.197682 2.30501e-19)
(12.4209 -0.16192 1.06033e-19)
(12.2089 -0.169237 9.3267e-20)
(12.2737 -0.143298 1.30196e-19)
(12.1093 -0.141727 -2.2699e-20)
(12.1605 -0.123334 -2.45946e-19)
(12.0332 -0.116358 5.68609e-19)
(12.0733 -0.103093 3.82065e-19)
(11.9759 -0.0938342 6.23462e-19)
(12.0067 -0.0841944 6.26434e-19)
(11.9336 -0.0742938 5.50208e-19)
(11.9566 -0.0666496 3.42318e-19)
(11.9023 -0.0579313 4.0647e-19)
(11.9195 -0.0510233 -4.42119e-20)
(11.8901 -0.0421402 1.08509e-19)
(11.878 -0.0457272 9.64247e-19)
(12.119 0.576809 8.87336e-19)
(12.2059 0.538673 5.24599e-21)
(12.1418 0.503156 -8.31747e-19)
(12.1058 0.659276 4.50339e-19)
(12.1908 0.602005 -1.9157e-21)
(12.0978 0.753951 1.21373e-18)
(12.1852 0.690718 0)
(12.0939 0.86521 2.07664e-18)
(12.1859 0.795164 2.23959e-18)
(12.0931 0.996441 1.62168e-18)
(12.1906 0.914992 -1.91935e-18)
(12.0925 1.15003 -3.21604e-20)
(12.1973 1.05641 1.72004e-18)
(12.0877 1.32832 8.00191e-19)
(12.202 1.22261 2.01764e-18)
(12.0741 1.53426 3.18356e-18)
(12.2011 1.41679 8.46331e-19)
(12.0474 1.77055 1.39977e-18)
(12.1895 1.64063 -3.30365e-18)
(12.0004 2.03862 9.36908e-19)
(12.1631 1.89886 -9.2385e-20)
(11.9258 2.33805 4.48696e-19)
(12.1103 2.19032 -9.14069e-19)
(11.8158 2.67295 -5.19164e-19)
(12.0308 2.51965 1.30241e-19)
(11.6726 3.04434 2.84161e-18)
(11.9109 2.88827 -6.40229e-19)
(11.4954 3.46944 5.11817e-18)
(11.7761 3.30852 -1.60012e-19)
(11.2735 3.94431 1.76387e-18)
(11.5936 3.79034 -4.00861e-19)
(10.9699 4.47827 1.89259e-18)
(11.3691 4.32946 2.61833e-18)
(10.4912 5.02805 4.01214e-19)
(11.0033 4.91798 2.5888e-18)
(9.72511 5.52335 3.13772e-18)
(10.3819 5.46787 -2.61683e-18)
(8.57529 5.86417 4.41197e-18)
(9.38698 5.91315 2.35175e-18)
(7.0248 5.97709 -7.93498e-19)
(7.94344 6.11842 2.06899e-18)
(5.13476 5.86083 1.5456e-18)
(6.12733 6.0693 5.85595e-20)
(3.03018 5.71365 1.5306e-18)
(4.06346 5.82516 1.53934e-18)
(1.77577 5.38078 -7.45143e-19)
(1.87825 5.60759 -2.13393e-18)
(2.60435 4.51324 -5.98715e-19)
(1.37179 5.12117 -7.20559e-19)
(5.4047 3.24831 -7.03791e-19)
(3.24194 3.95865 -2.94607e-19)
(8.87249 2.01548 -9.46616e-19)
(6.82054 2.70167 2.14441e-19)
(11.6798 1.04276 -6.12593e-19)
(10.2144 1.73115 -9.55538e-19)
(13.2429 0.417548 -6.27615e-19)
(12.5827 0.962452 -2.1911e-19)
(13.6851 0.115695 0)
(13.5395 0.444005 2.95797e-19)
(13.4668 -0.0295809 0)
(13.6316 0.17212 0)
(13.0455 -0.0757827 0)
(13.2226 0.0522587 -1.2847e-19)
(12.7352 -0.0960004 0)
(12.8591 0.00175866 7.80262e-20)
(12.5186 -0.106317 1.10528e-19)
(12.6087 -0.0348554 -4.78045e-22)
(12.3532 -0.103731 2.94893e-21)
(12.428 -0.0536776 2.20195e-19)
(12.223 -0.0946114 -2.16938e-19)
(12.2823 -0.057561 -3.2892e-19)
(12.1224 -0.0821774 1.58442e-19)
(12.1693 -0.0551728 1.25749e-19)
(12.0447 -0.0686064 4.3253e-19)
(12.0816 -0.0486689 1.44172e-19)
(11.9855 -0.055467 3.35003e-19)
(12.0137 -0.0405133 -1.54206e-19)
(11.9413 -0.043683 -2.79273e-19)
(11.962 -0.0318352 1.80464e-19)
(11.9082 -0.0340454 -4.24068e-19)
(11.9231 -0.0238993 -8.83048e-19)
(11.8918 -0.0206942 -5.01657e-19)
(11.8815 -0.0269735 -1.41416e-18)
(12.2781 0.561306 -9.0202e-19)
(12.3505 0.514454 2.10028e-18)
(12.2929 0.495285 8.04128e-19)
(12.2709 0.638737 -4.58117e-19)
(12.3445 0.577629 6.36412e-19)
(12.2721 0.730441 9.50411e-19)
(12.3487 0.659884 -2.93269e-18)
(12.2807 0.840192 -1.60901e-18)
(12.3626 0.761363 1.71371e-20)
(12.2929 0.971236 -1.89548e-18)
(12.3812 0.880954 -2.67184e-18)
(12.305 1.1262 3.7266e-18)
(12.4012 1.0234 8.93876e-19)
(12.3134 1.3078 2.09027e-18)
(12.419 1.19122 1.82698e-18)
(12.3146 1.51979 -5.46271e-18)
(12.4333 1.38982 -8.70536e-19)
(12.3035 1.76507 -4.79259e-18)
(12.4376 1.62053 -3.60706e-18)
(12.2716 2.04638 -1.90862e-18)
(12.428 1.88879 1.16056e-18)
(12.213 2.36315 -1.28586e-18)
(12.3901 2.19304 6.38152e-19)
(12.1228 2.72139 -2.36434e-20)
(12.3316 2.54129 6.2809e-19)
(12.0097 3.12288 -3.57538e-18)
(12.2363 2.93616 -6.29289e-19)
(11.8696 3.59073 -5.6267e-18)
(12.1455 3.39182 -3.79085e-18)
(11.6836 4.10813 7.13519e-19)
(11.9931 3.9147 -1.8946e-18)
(11.397 4.68781 3.49427e-18)
(11.8035 4.49101 3.25298e-18)
(10.8894 5.25182 -4.58807e-19)
(11.4142 5.10695 4.66354e-18)
(10.04 5.74843 -3.09519e-18)
(10.7294 5.64963 -4.24469e-19)
(8.75106 6.05472 1.70487e-19)
(9.60252 6.08221 -7.88928e-18)
(7.04607 6.10921 3.00976e-18)
(7.98876 6.21655 2.88995e-18)
(5.05741 5.93322 2.5011e-20)
(6.0295 6.09211 3.60033e-20)
(2.89938 5.66377 -2.1483e-18)
(3.90422 5.73757 3.69511e-18)
(1.45772 5.34336 -2.07749e-18)
(1.67962 5.44897 -2.85876e-18)
(2.00268 4.5963 -4.02101e-19)
(0.897119 5.01954 1.2445e-18)
(4.65998 3.55153 8.49072e-19)