/*--------------------------------*- C++ -*----------------------------------*\
  =========                 |
  \\      /  F ield         | OpenFOAM: The Open Source CFD Toolbox
   \\    /   O peration     | Website:  https://openfoam.org
    \\  /    A nd           | Version:  6
     \\/     M anipulation  |
\*---------------------------------------------------------------------------*/
FoamFile
{
    version     2.0;
    format      ascii;
    class       volVectorField;
    location    "3.4";
    object      U;
}
// * * * * * * * * * * * * * * * * * * * * * * * * * * * * * * * * * * * * * //

dimensions      [0 1 -1 0 0 0 0];

internalField   nonuniform List<vector> 
22500
(
(0.8944 0.4472 0)
(0.8944 0.4472 0)
(0.8944 0.4472 0)
(0.8944 0.4472 0)
(0.8944 0.4472 0)
(0.8944 0.4472 0)
(0.8944 0.4472 0)
(0.8944 0.4472 0)
(0.8944 0.4472 0)
(0.8944 0.4472 0)
(0.8944 0.4472 0)
(0.8944 0.4472 0)
(0.8944 0.4472 0)
(0.8944 0.4472 0)
(0.8944 0.4472 0)
(0.8944 0.4472 0)
(0.8944 0.4472 0)
(0.8944 0.4472 0)
(0.8944 0.4472 0)
(0.8944 0.4472 0)
(0.8944 0.4472 0)
(0.8944 0.4472 0)
(0.8944 0.4472 0)
(0.8944 0.4472 0)
(0.8944 0.4472 0)
(0.8944 0.4472 0)
(0.8944 0.4472 0)
(0.8944 0.4472 0)
(0.8944 0.4472 0)
(0.8944 0.4472 0)
(0.8944 0.4472 0)
(0.8944 0.4472 0)
(0.8944 0.4472 0)
(0.8944 0.4472 0)
(0.8944 0.4472 0)
(0.8944 0.4472 0)
(0.8944 0.4472 0)
(0.8944 0.4472 0)
(0.8944 0.4472 0)
(0.8944 0.4472 0)
(0.8944 0.4472 0)
(0.8944 0.4472 0)
(0.8944 0.4472 0)
(0.8944 0.4472 0)
(0.8944 0.4472 0)
(0.8944 0.4472 0)
(0.8944 0.4472 0)
(0.8944 0.4472 0)
(0.8944 0.4472 0)
(0.8944 0.4472 0)
(0.8944 0.4472 0)
(0.8944 0.4472 0)
(0.8944 0.4472 0)
(0.8944 0.4472 0)
(0.8944 0.4472 0)
(0.8944 0.4472 0)
(0.8944 0.4472 0)
(0.8944 0.4472 0)
(0.8944 0.4472 0)
(0.8944 0.4472 0)
(0.8944 0.4472 0)
(0.8944 0.4472 0)
(0.8944 0.4472 0)
(0.8944 0.4472 0)
(0.8944 0.4472 0)
(0.8944 0.4472 0)
(0.894401 0.4472 0)
(0.8944 0.4472 0)
(0.894401 0.447199 0)
(0.894401 0.447199 0)
(0.894402 0.447199 0)
(0.894402 0.447198 0)
(0.894403 0.447197 0)
(0.894403 0.447196 0)
(0.894404 0.447195 0)
(0.894405 0.447193 0)
(0.894406 0.447191 0)
(0.894407 0.447189 0)
(0.894407 0.447187 0)
(0.894408 0.447184 0)
(0.894408 0.447182 0)
(0.894408 0.447179 0)
(0.894407 0.447177 0)
(0.894407 0.447175 0)
(0.894405 0.447173 0)
(0.894404 0.447172 0)
(0.894402 0.447172 0)
(0.8944 0.447173 0)
(0.894397 0.447174 0)
(0.894394 0.447177 0)
(0.894392 0.44718 0)
(0.894389 0.447184 0)
(0.894387 0.447189 0)
(0.894385 0.447195 0)
(0.894383 0.447201 0)
(0.894382 0.447207 0)
(0.894382 0.447214 0)
(0.894382 0.44722 0)
(0.894383 0.447226 0)
(0.894384 0.447231 0)
(0.894386 0.447236 0)
(0.894388 0.44724 0)
(0.894391 0.447243 0)
(0.894394 0.447245 0)
(0.894396 0.447246 0)
(0.894399 0.447246 0)
(0.894401 0.447245 0)
(0.894403 0.447244 0)
(0.894405 0.447241 0)
(0.894407 0.447239 0)
(0.894408 0.447235 0)
(0.894409 0.447232 0)
(0.894409 0.447229 0)
(0.894409 0.447225 0)
(0.894409 0.447222 0)
(0.894408 0.447218 0)
(0.894408 0.447215 0)
(0.894407 0.447213 0)
(0.894406 0.44721 0)
(0.894405 0.447208 0)
(0.894404 0.447206 0)
(0.894404 0.447205 0)
(0.894403 0.447204 0)
(0.894402 0.447203 0)
(0.894402 0.447202 0)
(0.894401 0.447201 0)
(0.894401 0.447201 0)
(0.894401 0.447201 0)
(0.8944 0.4472 0)
(0.8944 0.4472 0)
(0.8944 0.4472 0)
(0.8944 0.4472 0)
(0.8944 0.4472 0)
(0.8944 0.4472 0)
(0.8944 0.4472 0)
(0.8944 0.4472 0)
(0.8944 0.4472 0)
(0.8944 0.4472 0)
(0.8944 0.4472 0)
(0.8944 0.4472 0)
(0.8944 0.4472 0)
(0.8944 0.4472 0)
(0.8944 0.4472 0)
(0.8944 0.4472 0)
(0.8944 0.4472 0)
(0.8944 0.4472 0)
(0.8944 0.4472 0)
(0.8944 0.4472 0)
(0.8944 0.4472 0)
(0.8944 0.4472 0)
(0.8944 0.4472 0)
(0.8944 0.4472 0)
(0.8944 0.4472 0)
(0.8944 0.4472 0)
(0.8944 0.4472 0)
(0.8944 0.4472 0)
(0.8944 0.4472 0)
(0.8944 0.4472 0)
(0.8944 0.4472 0)
(0.8944 0.4472 0)
(0.8944 0.4472 0)
(0.8944 0.4472 0)
(0.8944 0.4472 0)
(0.8944 0.4472 0)
(0.8944 0.4472 0)
(0.8944 0.4472 0)
(0.8944 0.4472 0)
(0.8944 0.4472 0)
(0.8944 0.4472 0)
(0.8944 0.4472 0)
(0.8944 0.4472 0)
(0.8944 0.4472 0)
(0.8944 0.4472 0)
(0.8944 0.4472 0)
(0.8944 0.4472 0)
(0.8944 0.4472 0)
(0.8944 0.4472 0)
(0.8944 0.4472 0)
(0.8944 0.4472 0)
(0.8944 0.4472 0)
(0.8944 0.4472 0)
(0.8944 0.4472 0)
(0.8944 0.4472 0)
(0.8944 0.4472 0)
(0.8944 0.4472 0)
(0.8944 0.4472 0)
(0.8944 0.4472 0)
(0.8944 0.4472 0)
(0.8944 0.4472 0)
(0.8944 0.4472 0)
(0.8944 0.4472 0)
(0.8944 0.4472 0)
(0.8944 0.4472 0)
(0.8944 0.4472 0)
(0.8944 0.4472 0)
(0.8944 0.4472 0)
(0.8944 0.4472 0)
(0.8944 0.4472 0)
(0.8944 0.4472 0)
(0.8944 0.4472 0)
(0.8944 0.4472 0)
(0.8944 0.4472 0)
(0.8944 0.4472 0)
(0.8944 0.4472 0)
(0.8944 0.4472 0)
(0.8944 0.4472 0)
(0.8944 0.4472 0)
(0.8944 0.4472 0)
(0.8944 0.4472 0)
(0.8944 0.4472 0)
(0.8944 0.4472 0)
(0.8944 0.4472 0)
(0.8944 0.4472 0)
(0.8944 0.4472 0)
(0.8944 0.4472 0)
(0.8944 0.4472 0)
(0.894401 0.4472 0)
(0.894401 0.4472 0)
(0.894401 0.447199 0)
(0.894402 0.447199 0)
(0.894402 0.447198 0)
(0.894403 0.447198 0)
(0.894404 0.447197 0)
(0.894405 0.447195 0)
(0.894405 0.447193 0)
(0.894407 0.447191 0)
(0.894408 0.447189 0)
(0.894408 0.447186 0)
(0.894409 0.447184 0)
(0.89441 0.447181 0)
(0.89441 0.447178 0)
(0.89441 0.447175 0)
(0.894409 0.447172 0)
(0.894408 0.44717 0)
(0.894406 0.447168 0)
(0.894404 0.447168 0)
(0.894402 0.447168 0)
(0.894399 0.44717 0)
(0.894395 0.447172 0)
(0.894392 0.447176 0)
(0.894388 0.447181 0)
(0.894385 0.447187 0)
(0.894382 0.447193 0)
(0.89438 0.447201 0)
(0.894378 0.447209 0)
(0.894377 0.447217 0)
(0.894376 0.447225 0)
(0.894377 0.447233 0)
(0.894378 0.44724 0)
(0.89438 0.447247 0)
(0.894383 0.447252 0)
(0.894386 0.447257 0)
(0.894389 0.44726 0)
(0.894392 0.447262 0)
(0.894396 0.447262 0)
(0.894399 0.447262 0)
(0.894402 0.44726 0)
(0.894405 0.447258 0)
(0.894407 0.447255 0)
(0.894409 0.447251 0)
(0.894411 0.447246 0)
(0.894412 0.447242 0)
(0.894412 0.447237 0)
(0.894412 0.447232 0)
(0.894412 0.447228 0)
(0.894411 0.447224 0)
(0.89441 0.44722 0)
(0.894409 0.447216 0)
(0.894408 0.447213 0)
(0.894407 0.44721 0)
(0.894406 0.447208 0)
(0.894405 0.447206 0)
(0.894404 0.447204 0)
(0.894403 0.447203 0)
(0.894402 0.447202 0)
(0.894402 0.447202 0)
(0.894401 0.447201 0)
(0.894401 0.447201 0)
(0.894401 0.4472 0)
(0.8944 0.4472 0)
(0.8944 0.4472 0)
(0.8944 0.4472 0)
(0.8944 0.4472 0)
(0.8944 0.4472 0)
(0.8944 0.4472 0)
(0.8944 0.4472 0)
(0.8944 0.4472 0)
(0.8944 0.4472 0)
(0.8944 0.4472 0)
(0.8944 0.4472 0)
(0.8944 0.4472 0)
(0.8944 0.4472 0)
(0.8944 0.4472 0)
(0.8944 0.4472 0)
(0.8944 0.4472 0)
(0.8944 0.4472 0)
(0.8944 0.4472 0)
(0.8944 0.4472 0)
(0.8944 0.4472 0)
(0.8944 0.4472 0)
(0.8944 0.4472 0)
(0.8944 0.4472 0)
(0.8944 0.4472 0)
(0.8944 0.4472 0)
(0.8944 0.4472 0)
(0.8944 0.4472 0)
(0.8944 0.4472 0)
(0.8944 0.4472 0)
(0.8944 0.4472 0)
(0.8944 0.4472 0)
(0.8944 0.4472 0)
(0.8944 0.4472 0)
(0.8944 0.4472 0)
(0.8944 0.4472 0)
(0.8944 0.4472 0)
(0.8944 0.4472 0)
(0.8944 0.4472 0)
(0.8944 0.4472 0)
(0.8944 0.4472 0)
(0.8944 0.4472 0)
(0.8944 0.4472 0)
(0.8944 0.4472 0)
(0.8944 0.4472 0)
(0.8944 0.4472 0)
(0.8944 0.4472 0)
(0.8944 0.4472 0)
(0.8944 0.4472 0)
(0.8944 0.4472 0)
(0.8944 0.4472 0)
(0.8944 0.4472 0)
(0.8944 0.4472 0)
(0.8944 0.4472 0)
(0.8944 0.4472 0)
(0.8944 0.4472 0)
(0.8944 0.4472 0)
(0.8944 0.4472 0)
(0.8944 0.4472 0)
(0.8944 0.4472 0)
(0.8944 0.4472 0)
(0.8944 0.4472 0)
(0.8944 0.4472 0)
(0.8944 0.4472 0)
(0.8944 0.4472 0)
(0.8944 0.4472 0)
(0.8944 0.4472 0)
(0.8944 0.4472 0)
(0.8944 0.4472 0)
(0.8944 0.4472 0)
(0.8944 0.4472 0)
(0.8944 0.4472 0)
(0.8944 0.4472 0)
(0.8944 0.4472 0)
(0.8944 0.4472 0)
(0.8944 0.4472 0)
(0.8944 0.4472 0)
(0.8944 0.4472 0)
(0.8944 0.4472 0)
(0.8944 0.4472 0)
(0.8944 0.4472 0)
(0.8944 0.4472 0)
(0.8944 0.4472 0)
(0.8944 0.4472 0)
(0.8944 0.4472 0)
(0.8944 0.4472 0)
(0.8944 0.4472 0)
(0.8944 0.4472 0)
(0.894401 0.4472 0)
(0.894401 0.4472 0)
(0.894401 0.4472 0)
(0.894402 0.447199 0)
(0.894403 0.447198 0)
(0.894403 0.447197 0)
(0.894405 0.447196 0)
(0.894406 0.447194 0)
(0.894407 0.447192 0)
(0.894408 0.447189 0)
(0.894409 0.447187 0)
(0.894411 0.447184 0)
(0.894411 0.44718 0)
(0.894412 0.447177 0)
(0.894413 0.447174 0)
(0.894412 0.44717 0)
(0.894411 0.447167 0)
(0.894409 0.447166 0)
(0.894407 0.447165 0)
(0.894404 0.447164 0)
(0.8944 0.447166 0)
(0.894396 0.447169 0)
(0.894392 0.447173 0)
(0.894388 0.447179 0)
(0.894383 0.447186 0)
(0.894379 0.447194 0)
(0.894376 0.447204 0)
(0.894373 0.447214 0)
(0.894371 0.447224 0)
(0.89437 0.447235 0)
(0.89437 0.447245 0)
(0.89437 0.447255 0)
(0.894372 0.447263 0)
(0.894375 0.447271 0)
(0.894378 0.447277 0)
(0.894382 0.447281 0)
(0.894387 0.447284 0)
(0.894391 0.447285 0)
(0.894396 0.447285 0)
(0.8944 0.447284 0)
(0.894404 0.447281 0)
(0.894408 0.447277 0)
(0.894411 0.447272 0)
(0.894413 0.447266 0)
(0.894415 0.44726 0)
(0.894416 0.447254 0)
(0.894416 0.447248 0)
(0.894416 0.447241 0)
(0.894415 0.447235 0)
(0.894414 0.44723 0)
(0.894413 0.447225 0)
(0.894412 0.44722 0)
(0.89441 0.447216 0)
(0.894409 0.447213 0)
(0.894408 0.44721 0)
(0.894406 0.447207 0)
(0.894405 0.447205 0)
(0.894404 0.447204 0)
(0.894403 0.447203 0)
(0.894402 0.447202 0)
(0.894402 0.447201 0)
(0.894401 0.447201 0)
(0.894401 0.4472 0)
(0.894401 0.4472 0)
(0.8944 0.4472 0)
(0.8944 0.4472 0)
(0.8944 0.4472 0)
(0.8944 0.4472 0)
(0.8944 0.4472 0)
(0.8944 0.4472 0)
(0.8944 0.4472 0)
(0.8944 0.4472 0)
(0.8944 0.4472 0)
(0.8944 0.4472 0)
(0.8944 0.4472 0)
(0.8944 0.4472 0)
(0.8944 0.4472 0)
(0.8944 0.4472 0)
(0.8944 0.4472 0)
(0.8944 0.4472 0)
(0.8944 0.4472 0)
(0.8944 0.4472 0)
(0.8944 0.4472 0)
(0.8944 0.4472 0)
(0.8944 0.4472 0)
(0.8944 0.4472 0)
(0.8944 0.4472 0)
(0.8944 0.4472 0)
(0.8944 0.4472 0)
(0.8944 0.4472 0)
(0.8944 0.4472 0)
(0.8944 0.4472 0)
(0.8944 0.4472 0)
(0.8944 0.4472 0)
(0.8944 0.4472 0)
(0.8944 0.4472 0)
(0.8944 0.4472 0)
(0.8944 0.4472 0)
(0.8944 0.4472 0)
(0.8944 0.4472 0)
(0.8944 0.4472 0)
(0.8944 0.4472 0)
(0.8944 0.4472 0)
(0.8944 0.4472 0)
(0.8944 0.4472 0)
(0.8944 0.4472 0)
(0.8944 0.4472 0)
(0.8944 0.4472 0)
(0.8944 0.4472 0)
(0.8944 0.4472 0)
(0.8944 0.4472 0)
(0.8944 0.4472 0)
(0.8944 0.4472 0)
(0.8944 0.4472 0)
(0.8944 0.4472 0)
(0.8944 0.4472 0)
(0.8944 0.4472 0)
(0.8944 0.4472 0)
(0.8944 0.4472 0)
(0.8944 0.4472 0)
(0.8944 0.4472 0)
(0.8944 0.4472 0)
(0.8944 0.4472 0)
(0.8944 0.4472 0)
(0.8944 0.4472 0)
(0.8944 0.4472 0)
(0.8944 0.4472 0)
(0.8944 0.4472 0)
(0.8944 0.4472 0)
(0.8944 0.4472 0)
(0.8944 0.4472 0)
(0.8944 0.4472 0)
(0.8944 0.4472 0)
(0.8944 0.4472 0)
(0.8944 0.4472 0)
(0.8944 0.4472 0)
(0.8944 0.4472 0)
(0.8944 0.4472 0)
(0.8944 0.4472 0)
(0.8944 0.4472 0)
(0.8944 0.4472 0)
(0.8944 0.4472 0)
(0.8944 0.4472 0)
(0.8944 0.4472 0)
(0.8944 0.4472 0)
(0.8944 0.4472 0)
(0.8944 0.4472 0)
(0.8944 0.4472 0)
(0.8944 0.4472 0)
(0.8944 0.4472 0)
(0.894401 0.4472 0)
(0.894401 0.4472 0)
(0.894402 0.447199 0)
(0.894403 0.447199 0)
(0.894403 0.447198 0)
(0.894404 0.447197 0)
(0.894406 0.447195 0)
(0.894407 0.447193 0)
(0.894409 0.44719 0)
(0.89441 0.447188 0)
(0.894412 0.447184 0)
(0.894413 0.447181 0)
(0.894414 0.447177 0)
(0.894415 0.447173 0)
(0.894415 0.447169 0)
(0.894414 0.447166 0)
(0.894413 0.447164 0)
(0.89441 0.447162 0)
(0.894407 0.447162 0)
(0.894403 0.447164 0)
(0.894398 0.447167 0)
(0.894393 0.447172 0)
(0.894387 0.447179 0)
(0.894382 0.447187 0)
(0.894376 0.447198 0)
(0.894371 0.44721 0)
(0.894367 0.447222 0)
(0.894363 0.447236 0)
(0.894361 0.44725 0)
(0.894361 0.447263 0)
(0.894361 0.447276 0)
(0.894362 0.447288 0)
(0.894365 0.447298 0)
(0.894369 0.447307 0)
(0.894374 0.447313 0)
(0.894379 0.447318 0)
(0.894385 0.44732 0)
(0.894391 0.44732 0)
(0.894397 0.447318 0)
(0.894402 0.447314 0)
(0.894407 0.447309 0)
(0.894411 0.447303 0)
(0.894415 0.447295 0)
(0.894418 0.447287 0)
(0.89442 0.447279 0)
(0.894421 0.44727 0)
(0.894421 0.447261 0)
(0.894421 0.447253 0)
(0.89442 0.447245 0)
(0.894419 0.447238 0)
(0.894417 0.447231 0)
(0.894415 0.447225 0)
(0.894414 0.44722 0)
(0.894412 0.447216 0)
(0.89441 0.447212 0)
(0.894408 0.447209 0)
(0.894407 0.447207 0)
(0.894405 0.447205 0)
(0.894404 0.447203 0)
(0.894403 0.447202 0)
(0.894402 0.447201 0)
(0.894402 0.447201 0)
(0.894401 0.4472 0)
(0.894401 0.4472 0)
(0.8944 0.4472 0)
(0.8944 0.4472 0)
(0.8944 0.4472 0)
(0.8944 0.4472 0)
(0.8944 0.4472 0)
(0.8944 0.4472 0)
(0.8944 0.4472 0)
(0.8944 0.4472 0)
(0.8944 0.4472 0)
(0.8944 0.4472 0)
(0.8944 0.4472 0)
(0.8944 0.4472 0)
(0.8944 0.4472 0)
(0.8944 0.4472 0)
(0.8944 0.4472 0)
(0.8944 0.4472 0)
(0.8944 0.4472 0)
(0.8944 0.4472 0)
(0.8944 0.4472 0)
(0.8944 0.4472 0)
(0.8944 0.4472 0)
(0.8944 0.4472 0)
(0.8944 0.4472 0)
(0.8944 0.4472 0)
(0.8944 0.4472 0)
(0.8944 0.4472 0)
(0.8944 0.4472 0)
(0.8944 0.4472 0)
(0.8944 0.4472 0)
(0.8944 0.4472 0)
(0.8944 0.4472 0)
(0.8944 0.4472 0)
(0.8944 0.4472 0)
(0.8944 0.4472 0)
(0.8944 0.4472 0)
(0.8944 0.4472 0)
(0.8944 0.4472 0)
(0.8944 0.4472 0)
(0.8944 0.4472 0)
(0.8944 0.4472 0)
(0.8944 0.4472 0)
(0.8944 0.4472 0)
(0.8944 0.4472 0)
(0.8944 0.4472 0)
(0.8944 0.4472 0)
(0.8944 0.4472 0)
(0.8944 0.4472 0)
(0.8944 0.4472 0)
(0.8944 0.4472 0)
(0.8944 0.4472 0)
(0.8944 0.4472 0)
(0.8944 0.4472 0)
(0.8944 0.4472 0)
(0.8944 0.4472 0)
(0.8944 0.4472 0)
(0.8944 0.4472 0)
(0.8944 0.4472 0)
(0.8944 0.4472 0)
(0.8944 0.4472 0)
(0.8944 0.4472 0)
(0.8944 0.4472 0)
(0.8944 0.4472 0)
(0.8944 0.4472 0)
(0.8944 0.4472 0)
(0.8944 0.4472 0)
(0.8944 0.4472 0)
(0.8944 0.4472 0)
(0.8944 0.4472 0)
(0.8944 0.4472 0)
(0.8944 0.4472 0)
(0.8944 0.4472 0)
(0.8944 0.4472 0)
(0.8944 0.4472 0)
(0.8944 0.4472 0)
(0.8944 0.4472 0)
(0.8944 0.4472 0)
(0.8944 0.4472 0)
(0.8944 0.4472 0)
(0.8944 0.4472 0)
(0.8944 0.4472 0)
(0.8944 0.4472 0)
(0.8944 0.4472 0)
(0.8944 0.4472 0)
(0.8944 0.447201 0)
(0.8944 0.447201 0)
(0.894401 0.447201 0)
(0.894401 0.4472 0)
(0.894401 0.4472 0)
(0.894402 0.447199 0)
(0.894403 0.447199 0)
(0.894404 0.447198 0)
(0.894405 0.447196 0)
(0.894407 0.447194 0)
(0.894409 0.447192 0)
(0.894411 0.447189 0)
(0.894413 0.447186 0)
(0.894415 0.447182 0)
(0.894416 0.447178 0)
(0.894417 0.447174 0)
(0.894418 0.447169 0)
(0.894418 0.447166 0)
(0.894416 0.447163 0)
(0.894414 0.447161 0)
(0.89441 0.447161 0)
(0.894406 0.447163 0)
(0.8944 0.447167 0)
(0.894394 0.447173 0)
(0.894387 0.447181 0)
(0.89438 0.447192 0)
(0.894372 0.447205 0)
(0.894366 0.447221 0)
(0.89436 0.447238 0)
(0.894355 0.447256 0)
(0.894351 0.447274 0)
(0.894349 0.447292 0)
(0.894348 0.44731 0)
(0.89435 0.447326 0)
(0.894353 0.44734 0)
(0.894357 0.447352 0)
(0.894362 0.447361 0)
(0.894369 0.447368 0)
(0.894376 0.447371 0)
(0.894384 0.447371 0)
(0.894391 0.447369 0)
(0.894399 0.447364 0)
(0.894406 0.447357 0)
(0.894412 0.447349 0)
(0.894417 0.447339 0)
(0.894422 0.447327 0)
(0.894425 0.447316 0)
(0.894427 0.447304 0)
(0.894428 0.447291 0)
(0.894428 0.44728 0)
(0.894428 0.447268 0)
(0.894427 0.447258 0)
(0.894425 0.447248 0)
(0.894423 0.44724 0)
(0.89442 0.447232 0)
(0.894418 0.447225 0)
(0.894415 0.44722 0)
(0.894413 0.447215 0)
(0.89441 0.447211 0)
(0.894408 0.447208 0)
(0.894407 0.447206 0)
(0.894405 0.447204 0)
(0.894404 0.447202 0)
(0.894403 0.447201 0)
(0.894402 0.447201 0)
(0.894401 0.4472 0)
(0.894401 0.4472 0)
(0.894401 0.4472 0)
(0.8944 0.4472 0)
(0.8944 0.4472 0)
(0.8944 0.4472 0)
(0.8944 0.4472 0)
(0.8944 0.4472 0)
(0.8944 0.4472 0)
(0.8944 0.4472 0)
(0.8944 0.4472 0)
(0.8944 0.4472 0)
(0.8944 0.4472 0)
(0.8944 0.4472 0)
(0.8944 0.4472 0)
(0.8944 0.4472 0)
(0.8944 0.4472 0)
(0.8944 0.4472 0)
(0.8944 0.4472 0)
(0.8944 0.4472 0)
(0.8944 0.4472 0)
(0.8944 0.4472 0)
(0.8944 0.4472 0)
(0.8944 0.4472 0)
(0.8944 0.4472 0)
(0.8944 0.4472 0)
(0.8944 0.4472 0)
(0.8944 0.4472 0)
(0.8944 0.4472 0)
(0.8944 0.4472 0)
(0.8944 0.4472 0)
(0.8944 0.4472 0)
(0.8944 0.4472 0)
(0.8944 0.4472 0)
(0.8944 0.4472 0)
(0.8944 0.4472 0)
(0.8944 0.4472 0)
(0.8944 0.4472 0)
(0.8944 0.4472 0)
(0.8944 0.4472 0)
(0.8944 0.4472 0)
(0.8944 0.4472 0)
(0.8944 0.4472 0)
(0.8944 0.4472 0)
(0.8944 0.4472 0)
(0.8944 0.4472 0)
(0.8944 0.4472 0)
(0.8944 0.4472 0)
(0.8944 0.4472 0)
(0.8944 0.4472 0)
(0.8944 0.4472 0)
(0.8944 0.4472 0)
(0.8944 0.4472 0)
(0.8944 0.4472 0)
(0.8944 0.4472 0)
(0.8944 0.4472 0)
(0.8944 0.4472 0)
(0.8944 0.4472 0)
(0.8944 0.4472 0)
(0.8944 0.4472 0)
(0.8944 0.4472 0)
(0.8944 0.4472 0)
(0.8944 0.4472 0)
(0.8944 0.4472 0)
(0.8944 0.4472 0)
(0.8944 0.4472 0)
(0.8944 0.4472 0)
(0.8944 0.4472 0)
(0.8944 0.4472 0)
(0.8944 0.4472 0)
(0.8944 0.4472 0)
(0.8944 0.4472 0)
(0.8944 0.4472 0)
(0.8944 0.4472 0)
(0.8944 0.4472 0)
(0.8944 0.4472 0)
(0.8944 0.4472 0)
(0.8944 0.4472 0)
(0.8944 0.4472 0)
(0.8944 0.4472 0)
(0.8944 0.4472 0)
(0.8944 0.4472 0)
(0.8944 0.4472 0)
(0.8944 0.4472 0)
(0.8944 0.447201 0)
(0.8944 0.447201 0)
(0.8944 0.447201 0)
(0.894401 0.447201 0)
(0.894401 0.447201 0)
(0.894402 0.4472 0)
(0.894403 0.4472 0)
(0.894404 0.447199 0)
(0.894405 0.447198 0)
(0.894407 0.447196 0)
(0.894409 0.447194 0)
(0.894411 0.447191 0)
(0.894414 0.447188 0)
(0.894416 0.447184 0)
(0.894418 0.447179 0)
(0.89442 0.447175 0)
(0.894421 0.447171 0)
(0.89442 0.447167 0)
(0.89442 0.447164 0)
(0.894418 0.447163 0)
(0.894414 0.447162 0)
(0.894408 0.447164 0)
(0.894402 0.447169 0)
(0.894395 0.447178 0)
(0.894386 0.447188 0)
(0.894377 0.447202 0)
(0.894368 0.447219 0)
(0.894359 0.447239 0)
(0.89435 0.447262 0)
(0.894343 0.447286 0)
(0.894338 0.447311 0)
(0.894334 0.447335 0)
(0.894332 0.44736 0)
(0.894333 0.447382 0)
(0.894335 0.447402 0)
(0.89434 0.44742 0)
(0.894347 0.447433 0)
(0.894355 0.447442 0)
(0.894364 0.447448 0)
(0.894374 0.447449 0)
(0.894384 0.447447 0)
(0.894394 0.44744 0)
(0.894404 0.447431 0)
(0.894412 0.447418 0)
(0.89442 0.447404 0)
(0.894426 0.447388 0)
(0.894431 0.447371 0)
(0.894435 0.447354 0)
(0.894437 0.447337 0)
(0.894438 0.44732 0)
(0.894438 0.447304 0)
(0.894437 0.447288 0)
(0.894435 0.447274 0)
(0.894433 0.447262 0)
(0.89443 0.44725 0)
(0.894426 0.44724 0)
(0.894423 0.447231 0)
(0.894419 0.447224 0)
(0.894416 0.447218 0)
(0.894413 0.447214 0)
(0.894411 0.44721 0)
(0.894408 0.447207 0)
(0.894406 0.447204 0)
(0.894405 0.447203 0)
(0.894403 0.447201 0)
(0.894402 0.447201 0)
(0.894402 0.4472 0)
(0.894401 0.4472 0)
(0.894401 0.4472 0)
(0.8944 0.4472 0)
(0.8944 0.4472 0)
(0.8944 0.4472 0)
(0.8944 0.4472 0)
(0.8944 0.4472 0)
(0.8944 0.4472 0)
(0.8944 0.4472 0)
(0.8944 0.4472 0)
(0.8944 0.4472 0)
(0.8944 0.4472 0)
(0.8944 0.4472 0)
(0.8944 0.4472 0)
(0.8944 0.4472 0)
(0.8944 0.4472 0)
(0.8944 0.4472 0)
(0.8944 0.4472 0)
(0.8944 0.4472 0)
(0.8944 0.4472 0)
(0.8944 0.4472 0)
(0.8944 0.4472 0)
(0.8944 0.4472 0)
(0.8944 0.4472 0)
(0.8944 0.4472 0)
(0.8944 0.4472 0)
(0.8944 0.4472 0)
(0.8944 0.4472 0)
(0.8944 0.4472 0)
(0.8944 0.4472 0)
(0.8944 0.4472 0)
(0.8944 0.4472 0)
(0.8944 0.4472 0)
(0.8944 0.4472 0)
(0.8944 0.4472 0)
(0.8944 0.4472 0)
(0.8944 0.4472 0)
(0.8944 0.4472 0)
(0.8944 0.4472 0)
(0.8944 0.4472 0)
(0.8944 0.4472 0)
(0.8944 0.4472 0)
(0.8944 0.4472 0)
(0.8944 0.4472 0)
(0.8944 0.4472 0)
(0.8944 0.4472 0)
(0.8944 0.4472 0)
(0.8944 0.4472 0)
(0.8944 0.4472 0)
(0.8944 0.4472 0)
(0.8944 0.4472 0)
(0.8944 0.4472 0)
(0.8944 0.4472 0)
(0.8944 0.4472 0)
(0.8944 0.4472 0)
(0.8944 0.4472 0)
(0.8944 0.4472 0)
(0.8944 0.4472 0)
(0.8944 0.4472 0)
(0.8944 0.4472 0)
(0.8944 0.4472 0)
(0.8944 0.4472 0)
(0.8944 0.4472 0)
(0.8944 0.4472 0)
(0.8944 0.4472 0)
(0.8944 0.4472 0)
(0.8944 0.4472 0)
(0.8944 0.4472 0)
(0.8944 0.4472 0)
(0.8944 0.4472 0)
(0.8944 0.4472 0)
(0.8944 0.4472 0)
(0.8944 0.4472 0)
(0.8944 0.4472 0)
(0.8944 0.4472 0)
(0.8944 0.4472 0)
(0.8944 0.4472 0)
(0.8944 0.4472 0)
(0.8944 0.4472 0)
(0.8944 0.4472 0)
(0.8944 0.4472 0)
(0.8944 0.4472 0)
(0.8944 0.447201 0)
(0.8944 0.447201 0)
(0.8944 0.447201 0)
(0.8944 0.447201 0)
(0.894401 0.447201 0)
(0.894401 0.447201 0)
(0.894402 0.447201 0)
(0.894403 0.4472 0)
(0.894405 0.447199 0)
(0.894406 0.447198 0)
(0.894408 0.447196 0)
(0.894411 0.447193 0)
(0.894414 0.44719 0)
(0.894416 0.447187 0)
(0.894419 0.447182 0)
(0.894421 0.447178 0)
(0.894423 0.447174 0)
(0.894423 0.44717 0)
(0.894423 0.447167 0)
(0.894421 0.447165 0)
(0.894417 0.447166 0)
(0.894412 0.447169 0)
(0.894404 0.447175 0)
(0.894395 0.447185 0)
(0.894385 0.447199 0)
(0.894374 0.447218 0)
(0.894362 0.44724 0)
(0.89435 0.447266 0)
(0.894338 0.447296 0)
(0.894328 0.447329 0)
(0.89432 0.447362 0)
(0.894314 0.447397 0)
(0.89431 0.447431 0)
(0.89431 0.447463 0)
(0.894312 0.447493 0)
(0.894318 0.447518 0)
(0.894326 0.447539 0)
(0.894336 0.447554 0)
(0.894347 0.447563 0)
(0.89436 0.447566 0)
(0.894374 0.447564 0)
(0.894387 0.447556 0)
(0.8944 0.447543 0)
(0.894412 0.447526 0)
(0.894423 0.447506 0)
(0.894433 0.447483 0)
(0.89444 0.447458 0)
(0.894446 0.447433 0)
(0.89445 0.447407 0)
(0.894452 0.447382 0)
(0.894452 0.447358 0)
(0.894451 0.447335 0)
(0.894449 0.447315 0)
(0.894446 0.447296 0)
(0.894443 0.447279 0)
(0.894439 0.447264 0)
(0.894434 0.447251 0)
(0.894429 0.44724 0)
(0.894425 0.44723 0)
(0.894421 0.447223 0)
(0.894417 0.447216 0)
(0.894414 0.447212 0)
(0.894411 0.447208 0)
(0.894408 0.447205 0)
(0.894406 0.447203 0)
(0.894404 0.447201 0)
(0.894403 0.4472 0)
(0.894402 0.4472 0)
(0.894401 0.4472 0)
(0.894401 0.447199 0)
(0.8944 0.447199 0)
(0.8944 0.447199 0)
(0.8944 0.447199 0)
(0.8944 0.447199 0)
(0.8944 0.4472 0)
(0.8944 0.4472 0)
(0.8944 0.4472 0)
(0.8944 0.4472 0)
(0.8944 0.4472 0)
(0.8944 0.4472 0)
(0.8944 0.4472 0)
(0.8944 0.4472 0)
(0.8944 0.4472 0)
(0.8944 0.4472 0)
(0.8944 0.4472 0)
(0.8944 0.4472 0)
(0.8944 0.4472 0)
(0.8944 0.4472 0)
(0.8944 0.4472 0)
(0.8944 0.4472 0)
(0.8944 0.4472 0)
(0.8944 0.4472 0)
(0.8944 0.4472 0)
(0.8944 0.4472 0)
(0.8944 0.4472 0)
(0.8944 0.4472 0)
(0.8944 0.4472 0)
(0.8944 0.4472 0)
(0.8944 0.4472 0)
(0.8944 0.4472 0)
(0.8944 0.4472 0)
(0.8944 0.4472 0)
(0.8944 0.4472 0)
(0.8944 0.4472 0)
(0.8944 0.4472 0)
(0.8944 0.4472 0)
(0.8944 0.4472 0)
(0.8944 0.4472 0)
(0.8944 0.4472 0)
(0.8944 0.4472 0)
(0.8944 0.4472 0)
(0.8944 0.4472 0)
(0.8944 0.4472 0)
(0.8944 0.4472 0)
(0.8944 0.4472 0)
(0.8944 0.4472 0)
(0.8944 0.4472 0)
(0.8944 0.4472 0)
(0.8944 0.4472 0)
(0.8944 0.4472 0)
(0.8944 0.4472 0)
(0.8944 0.4472 0)
(0.8944 0.4472 0)
(0.8944 0.4472 0)
(0.8944 0.4472 0)
(0.8944 0.4472 0)
(0.8944 0.4472 0)
(0.8944 0.4472 0)
(0.8944 0.4472 0)
(0.8944 0.4472 0)
(0.8944 0.4472 0)
(0.8944 0.4472 0)
(0.8944 0.4472 0)
(0.8944 0.4472 0)
(0.8944 0.4472 0)
(0.8944 0.4472 0)
(0.8944 0.4472 0)
(0.8944 0.4472 0)
(0.8944 0.4472 0)
(0.8944 0.4472 0)
(0.8944 0.4472 0)
(0.8944 0.4472 0)
(0.8944 0.4472 0)
(0.8944 0.4472 0)
(0.8944 0.4472 0)
(0.8944 0.4472 0)
(0.8944 0.4472 0)
(0.8944 0.4472 0)
(0.8944 0.447201 0)
(0.8944 0.447201 0)
(0.8944 0.447201 0)
(0.8944 0.447201 0)
(0.8944 0.447202 0)
(0.8944 0.447202 0)
(0.894401 0.447201 0)
(0.894402 0.447202 0)
(0.894402 0.447201 0)
(0.894404 0.447201 0)
(0.894406 0.4472 0)
(0.894408 0.447198 0)
(0.89441 0.447196 0)
(0.894413 0.447193 0)
(0.894416 0.44719 0)
(0.894419 0.447186 0)
(0.894422 0.447182 0)
(0.894424 0.447178 0)
(0.894426 0.447174 0)
(0.894425 0.447171 0)
(0.894424 0.44717 0)
(0.89442 0.447172 0)
(0.894414 0.447176 0)
(0.894406 0.447184 0)
(0.894395 0.447197 0)
(0.894383 0.447216 0)
(0.894369 0.44724 0)
(0.894353 0.447269 0)
(0.894338 0.447304 0)
(0.894322 0.447344 0)
(0.894308 0.447388 0)
(0.894296 0.447435 0)
(0.894287 0.447483 0)
(0.894281 0.447531 0)
(0.894278 0.447577 0)
(0.89428 0.447621 0)
(0.894285 0.447659 0)
(0.894295 0.44769 0)
(0.894307 0.447715 0)
(0.894322 0.447732 0)
(0.894339 0.447739 0)
(0.894357 0.447738 0)
(0.894376 0.44773 0)
(0.894395 0.447713 0)
(0.894412 0.44769 0)
(0.894427 0.447662 0)
(0.894441 0.447629 0)
(0.894452 0.447594 0)
(0.894461 0.447556 0)
(0.894467 0.447518 0)
(0.894471 0.447481 0)
(0.894472 0.447445 0)
(0.894472 0.447411 0)
(0.89447 0.447379 0)
(0.894466 0.44735 0)
(0.894461 0.447324 0)
(0.894456 0.447301 0)
(0.89445 0.447281 0)
(0.894444 0.447264 0)
(0.894438 0.44725 0)
(0.894432 0.447238 0)
(0.894426 0.447228 0)
(0.894421 0.44722 0)
(0.894417 0.447214 0)
(0.894413 0.447209 0)
(0.89441 0.447206 0)
(0.894407 0.447203 0)
(0.894405 0.447201 0)
(0.894404 0.4472 0)
(0.894402 0.447199 0)
(0.894401 0.447199 0)
(0.894401 0.447199 0)
(0.8944 0.447199 0)
(0.8944 0.447199 0)
(0.8944 0.447199 0)
(0.8944 0.447199 0)
(0.8944 0.447199 0)
(0.8944 0.4472 0)
(0.8944 0.4472 0)
(0.8944 0.4472 0)
(0.8944 0.4472 0)
(0.8944 0.4472 0)
(0.8944 0.4472 0)
(0.8944 0.4472 0)
(0.8944 0.4472 0)
(0.8944 0.4472 0)
(0.8944 0.4472 0)
(0.8944 0.4472 0)
(0.8944 0.4472 0)
(0.8944 0.4472 0)
(0.8944 0.4472 0)
(0.8944 0.4472 0)
(0.8944 0.4472 0)
(0.8944 0.4472 0)
(0.8944 0.4472 0)
(0.8944 0.4472 0)
(0.8944 0.4472 0)
(0.8944 0.4472 0)
(0.8944 0.4472 0)
(0.8944 0.4472 0)
(0.8944 0.4472 0)
(0.8944 0.4472 0)
(0.8944 0.4472 0)
(0.8944 0.4472 0)
(0.8944 0.4472 0)
(0.8944 0.4472 0)
(0.8944 0.4472 0)
(0.8944 0.4472 0)
(0.8944 0.4472 0)
(0.8944 0.4472 0)
(0.8944 0.4472 0)
(0.8944 0.4472 0)
(0.8944 0.4472 0)
(0.8944 0.4472 0)
(0.8944 0.4472 0)
(0.8944 0.4472 0)
(0.8944 0.4472 0)
(0.8944 0.4472 0)
(0.8944 0.4472 0)
(0.8944 0.4472 0)
(0.8944 0.4472 0)
(0.8944 0.4472 0)
(0.8944 0.4472 0)
(0.8944 0.4472 0)
(0.8944 0.4472 0)
(0.8944 0.4472 0)
(0.8944 0.4472 0)
(0.8944 0.4472 0)
(0.8944 0.4472 0)
(0.8944 0.4472 0)
(0.8944 0.4472 0)
(0.8944 0.4472 0)
(0.8944 0.4472 0)
(0.8944 0.4472 0)
(0.8944 0.4472 0)
(0.8944 0.4472 0)
(0.8944 0.4472 0)
(0.8944 0.4472 0)
(0.8944 0.4472 0)
(0.8944 0.4472 0)
(0.8944 0.4472 0)
(0.8944 0.4472 0)
(0.8944 0.4472 0)
(0.8944 0.4472 0)
(0.8944 0.4472 0)
(0.8944 0.4472 0)
(0.8944 0.4472 0)
(0.8944 0.4472 0)
(0.8944 0.4472 0)
(0.8944 0.447201 0)
(0.8944 0.447201 0)
(0.8944 0.447201 0)
(0.894399 0.447201 0)
(0.894399 0.447202 0)
(0.8944 0.447202 0)
(0.8944 0.447202 0)
(0.894401 0.447202 0)
(0.894402 0.447203 0)
(0.894403 0.447202 0)
(0.894404 0.447201 0)
(0.894407 0.4472 0)
(0.894409 0.447199 0)
(0.894412 0.447197 0)
(0.894416 0.447194 0)
(0.894419 0.44719 0)
(0.894422 0.447186 0)
(0.894425 0.447183 0)
(0.894427 0.44718 0)
(0.894427 0.447178 0)
(0.894426 0.447177 0)
(0.894422 0.44718 0)
(0.894415 0.447186 0)
(0.894406 0.447197 0)
(0.894394 0.447214 0)
(0.894379 0.447237 0)
(0.894361 0.447268 0)
(0.894342 0.447306 0)
(0.894322 0.447352 0)
(0.894301 0.447406 0)
(0.894282 0.447465 0)
(0.894264 0.447529 0)
(0.89425 0.447596 0)
(0.89424 0.447664 0)
(0.894235 0.447731 0)
(0.894234 0.447794 0)
(0.89424 0.447852 0)
(0.89425 0.447902 0)
(0.894265 0.447942 0)
(0.894285 0.447971 0)
(0.894307 0.447989 0)
(0.894332 0.447994 0)
(0.894358 0.447987 0)
(0.894384 0.447968 0)
(0.894409 0.447939 0)
(0.894431 0.447901 0)
(0.894452 0.447855 0)
(0.894469 0.447805 0)
(0.894482 0.44775 0)
(0.894492 0.447694 0)
(0.894498 0.447638 0)
(0.894502 0.447584 0)
(0.894502 0.447532 0)
(0.894499 0.447483 0)
(0.894495 0.447438 0)
(0.894489 0.447398 0)
(0.894482 0.447362 0)
(0.894474 0.447331 0)
(0.894466 0.447304 0)
(0.894457 0.447282 0)
(0.894449 0.447263 0)
(0.894441 0.447247 0)
(0.894434 0.447234 0)
(0.894427 0.447224 0)
(0.894422 0.447217 0)
(0.894417 0.447211 0)
(0.894413 0.447206 0)
(0.894409 0.447203 0)
(0.894406 0.447201 0)
(0.894404 0.4472 0)
(0.894403 0.447199 0)
(0.894402 0.447199 0)
(0.894401 0.447198 0)
(0.8944 0.447198 0)
(0.8944 0.447199 0)
(0.8944 0.447199 0)
(0.8944 0.447199 0)
(0.8944 0.447199 0)
(0.8944 0.447199 0)
(0.8944 0.4472 0)
(0.8944 0.4472 0)
(0.8944 0.4472 0)
(0.8944 0.4472 0)
(0.8944 0.4472 0)
(0.8944 0.4472 0)
(0.8944 0.4472 0)
(0.8944 0.4472 0)
(0.8944 0.4472 0)
(0.8944 0.4472 0)
(0.8944 0.4472 0)
(0.8944 0.4472 0)
(0.8944 0.4472 0)
(0.8944 0.4472 0)
(0.8944 0.4472 0)
(0.8944 0.4472 0)
(0.8944 0.4472 0)
(0.8944 0.4472 0)
(0.8944 0.4472 0)
(0.8944 0.4472 0)
(0.8944 0.4472 0)
(0.8944 0.4472 0)
(0.8944 0.4472 0)
(0.8944 0.4472 0)
(0.8944 0.4472 0)
(0.8944 0.4472 0)
(0.8944 0.4472 0)
(0.8944 0.4472 0)
(0.8944 0.4472 0)
(0.8944 0.4472 0)
(0.8944 0.4472 0)
(0.8944 0.4472 0)
(0.8944 0.4472 0)
(0.8944 0.4472 0)
(0.8944 0.4472 0)
(0.8944 0.4472 0)
(0.8944 0.4472 0)
(0.8944 0.4472 0)
(0.8944 0.4472 0)
(0.8944 0.4472 0)
(0.8944 0.4472 0)
(0.8944 0.4472 0)
(0.8944 0.4472 0)
(0.8944 0.4472 0)
(0.8944 0.4472 0)
(0.8944 0.4472 0)
(0.8944 0.4472 0)
(0.8944 0.4472 0)
(0.8944 0.4472 0)
(0.8944 0.4472 0)
(0.8944 0.4472 0)
(0.8944 0.4472 0)
(0.8944 0.4472 0)
(0.8944 0.4472 0)
(0.8944 0.4472 0)
(0.8944 0.4472 0)
(0.8944 0.4472 0)
(0.8944 0.4472 0)
(0.8944 0.4472 0)
(0.8944 0.4472 0)
(0.8944 0.4472 0)
(0.8944 0.4472 0)
(0.8944 0.4472 0)
(0.8944 0.4472 0)
(0.8944 0.4472 0)
(0.8944 0.4472 0)
(0.8944 0.4472 0)
(0.8944 0.4472 0)
(0.8944 0.4472 0)
(0.8944 0.447201 0)
(0.8944 0.447201 0)
(0.894399 0.447201 0)
(0.894399 0.447201 0)
(0.894399 0.447202 0)
(0.894399 0.447202 0)
(0.894399 0.447202 0)
(0.8944 0.447203 0)
(0.8944 0.447203 0)
(0.8944 0.447203 0)
(0.894402 0.447204 0)
(0.894403 0.447204 0)
(0.894405 0.447203 0)
(0.894408 0.447202 0)
(0.894411 0.4472 0)
(0.894414 0.447198 0)
(0.894418 0.447195 0)
(0.894422 0.447192 0)
(0.894425 0.447189 0)
(0.894427 0.447187 0)
(0.894428 0.447185 0)
(0.894427 0.447186 0)
(0.894423 0.44719 0)
(0.894416 0.447198 0)
(0.894405 0.447213 0)
(0.894391 0.447234 0)
(0.894373 0.447264 0)
(0.894352 0.447303 0)
(0.894327 0.447352 0)
(0.8943 0.447412 0)
(0.894273 0.447482 0)
(0.894247 0.447561 0)
(0.894222 0.447647 0)
(0.894201 0.44774 0)
(0.894185 0.447835 0)
(0.894174 0.447931 0)
(0.89417 0.448023 0)
(0.894174 0.44811 0)
(0.894185 0.448187 0)
(0.894203 0.448252 0)
(0.894227 0.448303 0)
(0.894256 0.448338 0)
(0.89429 0.448356 0)
(0.894326 0.448356 0)
(0.894363 0.448339 0)
(0.894398 0.448305 0)
(0.894432 0.448258 0)
(0.894463 0.448198 0)
(0.894489 0.448128 0)
(0.89451 0.448052 0)
(0.894527 0.447971 0)
(0.894538 0.447888 0)
(0.894544 0.447806 0)
(0.894546 0.447727 0)
(0.894544 0.447652 0)
(0.894539 0.447583 0)
(0.894531 0.44752 0)
(0.894521 0.447464 0)
(0.89451 0.447414 0)
(0.894498 0.447372 0)
(0.894486 0.447335 0)
(0.894475 0.447305 0)
(0.894464 0.44728 0)
(0.894453 0.447259 0)
(0.894443 0.447243 0)
(0.894435 0.44723 0)
(0.894427 0.44722 0)
(0.894421 0.447213 0)
(0.894416 0.447207 0)
(0.894411 0.447203 0)
(0.894408 0.447201 0)
(0.894405 0.447199 0)
(0.894403 0.447198 0)
(0.894402 0.447198 0)
(0.894401 0.447198 0)
(0.8944 0.447198 0)
(0.8944 0.447198 0)
(0.8944 0.447198 0)
(0.894399 0.447199 0)
(0.894399 0.447199 0)
(0.8944 0.447199 0)
(0.8944 0.447199 0)