/*--------------------------------*- C++ -*----------------------------------*\
  =========                 |
  \\      /  F ield         | OpenFOAM: The Open Source CFD Toolbox
   \\    /   O peration     | Website:  https://openfoam.org
    \\  /    A nd           | Version:  6
     \\/     M anipulation  |
\*---------------------------------------------------------------------------*/
FoamFile
{
    version     2.0;
    format      ascii;
    class       volScalarField;
    location    "2.36";
    object      p;
}
// * * * * * * * * * * * * * * * * * * * * * * * * * * * * * * * * * * * * * //

dimensions      [1 -1 -2 0 0 0 0];

internalField   nonuniform List<scalar> 
24166
(
1.00195
1.01358
1
1
1
0.999999
1
1
1.01417
1
0.999933
0.998614
0.999237
1.00502
1.00074
1.00001
1.00057
1.00011
0.999999
1.00015
1.00006
1
1
1
1.01188
1
0.999998
1.01267
1.00001
1
0.98273
1
1
1
0.999999
1.0179
1
1.00717
1
0.625035
0.999921
1
1
0.999997
0.999988
1
1.01502
1.00992
1
1.02248
1
0.999952
1
1.00039
1
1.04975
1.0071
1
1
1.00001
1.11432
0.999961
1
1
1
1
1
1.01171
0.828693
1
1
1.00026
1
1
1
0.999992
0.999978
1.03303
1
1.00008
0.963349
1
1
0.991398
0.999729
1
1.00017
1
1
1
1
1
0.999922
1
0.999419
0.999896
1
1.00024
0.999947
1.00002
1
1
1.00033
1
1
1
1
0.999973
1
1.00001
1
1
1
1.01223
1.05605
1.00001
1
1
1.00001
1
1
1
0.995979
1
1.04692
0.999584
1
1
1
1
0.83743
1.00472
0.999497
1.04487
0.999988
1.00003
1
0.940575
1
1.00003
1.03375
1
1.01083
1
0.966118
0.999988
1
1.00003
0.815508
1
1
1
0.999998
0.999972
1
1
1
1
1
0.999989
1.00571
1.02499
1
1
1
1
0.929704
1
1
1
1
1
1
0.998555
1
1.00225
1
1
0.999785
1.05785
1
1
1.04649
1
1
1
1
1
1
1
1
1.04418
1
0.998804
1
0.999906
1.00359
1
1.00221
1.00005
1
1
1
0.998611
1
1
1
1
1
0.828238
1.05244
1
1.00351
0.999985
1
0.999997
1
1
1.07006
1
1
0.998905
1
1
1.03883
1
1
1
0.999906
1
1.00355
1.00015
0.99991
1
1.03198
1
1.00009
1
1
1
1
1
1
1
1.00006
1
1.00004
1.00033
0.999909
1
0.999924
0.999999
0.999992
1.03418
1
1
1
1.00188
1
1.00004
1
1
1
1.00028
1
0.999993
0.999988
1
0.999999
1
1.00032
1.05785
1
1.00393
1
1
1
1.24741
0.999993
1
1.04172
1
0.848888
1
1
1
1
1
1.0005
1
0.874527
1
1
1
0.999254
0.900279
1
1
0.999368
1
1
1.00021
1.00082
1
1
1
1
0.999836
0.998004
1
1.00139
0.999999
1
0.832911
0.997367
1
0.9999
1
1.00002
0.999339
1
1
1.0428
1
1
1.00001
1
1
1
1.05743
1
1.00001
1
1.00635
1
1.00301
1
0.999999
1.00045
1.01936
1
1
1
1
1
1
1
1
1
1
1
1
1
1
1
1
1
1
0.951517
1.01047
1
1
1
1.01054
1
1
1.00974
1
1
1
1.00728
1
1
1
1
1.00024
1
1.00051
1
1
0.999994
1
1
0.99986
1.00979
1
1
1.0013
1
0.911764
1
1
1.00562
0.993033
1.05026
1.00174
1.00001
1
1
1
1
1
1.0052
1
1
1
1
0.996784
0.999999
0.999998
1.00101
1
1
0.999999
1
0.997685
1.02152
1
0.999994
1
1
0.995298
1
1
1
1
0.99995
1
1
1.00376
1.00012
1.02277
1
1.00001
1
1
1
1
1
1.00084
1.00014
1
0.957403
1
1
0.999969
1.00506
0.999996
1.05494
1.02827
1
0.999999
1
1.00609
1.01581
1.00006
0.998527
1
1
0.999994
0.623364
1
0.999999
1.0012
1
1
0.999998
1
1.00016
1
0.999996
1.01631
1
1
1
1.00237
1
1
1
1.00024
1
1.03482
1
1
0.967689
0.999999
0.999612
1.00001
1
1
1
1
1
1
0.995313
1.02437
1
1.00009
1
0.997744
1
1.00227
1.05412
0.579348
1
1.00053
1.00001
1
1
1.00216
0.999996
1
1
1
1.0032
1.01503
1.02921
1.0003
1
1
1
1
1.01843
1.02723
1
1
1
1
1
0.972914
1
1.00016
1
0.999999
1.00001
1
0.474603
1
0.998538
1
1
1
0.997727
1
1.00645
0.999986
1.13822
1
1.00025
0.998693
1.01268
1
1.00017
1
1
1
1
1.01898
1
1.02591
0.471138
1
1
0.99899
1
1.04072
0.417859
0.999983
1
1
1
1.04187
0.99999
1
1.00108
1
1.00018
1
1.00001
1
0.998594
1
1
1
0.999987
1
1
0.995373
1.00192
1.02584
1
0.999547
1
1
0.901075
1
0.999999
1.02041
1
1
0.996857
1
1
1.00021
1
0.992804
1.0002
1.00005
1.00508
1
0.99468
1
0.999991
1
1.00258
1
1
1.04013
0.988708
1
1.00225
1
0.998975
0.999998
1
0.999999
1.00041
0.999999
1.03987
1
1
1.04113
1
1.02989
1
1
1.00739
1
1
1.04001
0.999998
1
1.00245
1.0003
1.02566
0.999998
0.999913
1.00015
0.999845
1.00001
1
1
1
1
1.00038
1
1
1
1
1
1
0.999675
1
1
1
0.996112
1.012
1
1.00002
1
1
1.0458
1
1
1.00001
0.969311
0.999993
1
1.00018
1
1
1
1
1.00001
1
1
0.999999
1
1.00017
1.00389
1.01921
1.00028
1
0.999989
1
1
1.00788
0.99999
1.01132
1.00774
1
1
1
1
1.01598
1
1.00004
0.967502
1
1
1
1.0065
0.999999
1
1
1
0.998243
1.00028
1
1.01568
1.00666
1.00111
0.999996
1
0.999358
1
1.04581
1
0.999947
1
1.00002
1
1.00104
1.01168
1.0293
1.00036
0.999797
1
1
1
1.00004
1
0.999984
1.00089
0.853924
1.01813
1
1
1
0.999999
1
1
1
1
1.04008
1
1
1.00001
0.999787
1
1
1
1
1
1.02405
1
1
1
0.999999
1.00019
1
1
1
1
1
1.00001
1
1
0.954195
0.999995
1
1
1.00001
1
1
1
0.999917
1
1
1
1
1.01677
1
1
1
1
0.999993
0.999999
1
1
1
0.899956
1.05133
1
1.04626
0.999986
1.03186
1
1
1
1
1
1
1
1
1
0.990631
0.999928
0.999969
1
1
1.00002
1
1
1
0.936249
0.999994
1
1
1
1
0.999727
1
1
0.999967
1
1.00001
0.922612
1
1.00039
0.999046
0.999773
1
1.01188
1
1.00005
1
1
1
1
1
1
0.999995
0.999382
1.00663
1
0.994976
1
1
1
1
1.00018
1
0.999999
1
0.999006
1
1.05419
1
1.00415
1.00028
1
1
1.00023
0.89056
1
1.00007
0.999999
1.00031
1
1
1
1.00016
1
0.999993
1
1
0.99998
1
1.02062
0.999999
1
1.04685
1
1.00017
1.00102
1
1.00002
1
0.999999
1.00022
1
1
1.00006
1
1
0.994998
0.960602
1
0.99983
1
1
1.00003
1
1
1
1
1
1.00001
1.00156
1
1
0.999957
0.999501
1.00324
0.999594
1.0012
1.00001
1.00016
0.999998
1
0.999992
1
1.0001
0.986489
1.00047
1.18175
1
0.996042
0.999997
0.999996
1.03007
1.01794
1
0.999965
0.999999
1
1
0.999928
0.62523
1.00071
0.969664
1
1
1.00131
1.00042
1.02636
1
1
1
1.00364
1
1
1
0.990421
0.999995
1
0.985536
1
1
1
1
1.00002
1
1
1
1
1
0.990506
1.00002
0.999947
1
0.988323
1
1
1
1.04086
1
1
0.903182
0.999976
1.05786
1
1
1
1
1
1
1.01331
1
0.987954
1
1.0026
1.02626
1.00004
1
1
1
1
1
1.06911
1.00003
1.00022
0.999874
0.98959
1.04202
1.02545
1
1
1
1
1.00076
0.999999
1
0.999987
0.999999
1.00296
1.00003
1
0.999998
1.13427
1
1.00003
1
1
1
1
1
1
1.04979
0.973494
1
1.00001
1.0131
1
1
1
1.03141
0.999999
1
0.999998
0.999976
1
1.00003
0.999999
1.0001
1
1
1.00309
0.999999
1
0.999998
1
1
0.999473
0.993852
1
1.01739
0.992378
1
1.00002
1.00001
1.00587
1
1.00332
1
0.999995
1
0.671393
0.999988
1.00631
1
1
1
1.00025
1
1.00297
1
1
1
1.00047
1
1.00001
1
1
1
1.00061
1
0.999997
1
1.02607
1.00001
0.997138
1.00002
0.999994
1.00001
0.999997
1
1.00001
1
0.999933
1.00325
0.999675
1.00001
1.00001
0.969532
0.992905
1
1
1
1
0.997008
1
1.00001
1
1
1
0.329079
1
0.384988
1
1.00001
1
0.999867
0.999934
0.999974
1.0025
1.03289
1.00008
1
1.03575
1
0.973288
1.00515
1
1
0.998093
1
1.00001
1.0097
0.999999
1.00001
1
0.999999
0.999998
1
1.06001
1
1
1
0.996876
1
1
1.02255
0.477274
0.999999
1
1.00062
1
1.00001
0.889812
1.02566
1
1
0.999997
0.999987
0.999999
1
1.00001
0.999989
1
1
1
0.999997
1.00022
1.00003
1
0.999984
1.02518
1.00321
1
1
0.993857
1
1
1
1
0.999974
1
1
1
1.02322
1
1.04532
0.999732
1.00006
1
1.0378
1
1
1.06419
1
1.01109
0.999989
1.01868
1
1
1
1
1
0.999965
1
0.992913
1
1.00671
1
1
1
1
1
1
1
1
1
1
1.00368
1.00069
1
0.934089
1
0.922297
0.999906
1
1.00001
1
1
1
1.00004
0.99919
1.00002
1.00179
1.05076
1
1
1
1.00001
1
1
1
1
1
0.856187
1.04693
0.528967
1
1
1.00513
1
0.588726
1
0.999333
1
1
0.999786
0.908792
1
1
1
0.999874
1.00481
1.00001
1
1.00001
1
1.00716
1
1
1.00006
1.0259
1
1
1.02278
0.999944
0.978532
0.999955
1
0.999971
1
1
1
0.999979
1
1
1
1
1.03982
1
1
1
1
0.992039
1.06197
1
1
1
1
1
1.00003
1
0.999989
1.05636
1.00002
0.999985
1
1
1.18787
0.999931
1.00015
1
0.615238
1.00364
1
1
1
1
1
0.999999
0.999997
1
1
1
1.03026
1.00001
1
0.999996
1
1.00234
1.00011
0.999847
1
1.02329
1
1
1
1
0.999996
1
1.0307
1.00001
1
1
1
1.00001
1
1.00013
1.00566
1.02455
1.01077
1
0.999878
0.999998
1.00082
1
0.999985
1.00001
1
1
1.00002
1.00354
0.947745
1
1
1
1.0393
0.999999
0.546804
0.999501
1
1
1.00419
0.998495
0.999998
1
1
1.00821
1.02552
1
1
0.998636
0.999977
1
0.999947
0.977686
1
1
1.00006
1
1
1.00001
1
1
1.00002
1
1.00427
1
1
0.999415
1.02911
1.00012
1.0105
0.999996
1
1.00054
0.974482
1
0.999992
1.04204
0.714994
0.332762
1
1
1
1
1
0.999992
1
1
1.0004
1
1
0.991353
1
1
1
1
1
0.999138
1
1
1
1
1.00663
0.999992
1
1
1.00001
0.999844
1
1.01042
0.999774
1
1
0.999999
1.00001
0.999997
1
1
0.999675
0.328405
0.999981
1.00109
1
0.999999
0.999999
1
1
1
1.02395
1
1
1
1
1.01297
0.999868
0.999999
1
0.999991
1
0.999995
1
1.04924
0.996989
1
1
1
0.999816
0.853197
1
1
1
1.00547
1
1
1
1
1.00572
1
1.00306
0.999946
1
0.986217
1.0004
1
0.997045
1.00004
1.00616
1
1.02614
1.00063
1
1.00012
1
1
1
1
1
1.00147
1
1
0.999999
1
1.00008
1
1.00197
1.00005
1.02613
1
1.00158
0.912153
1.03339
1.00598
1.00025
0.999673
1.00678
1
1.00431
1.00015
0.996647
1
1
1.00022
1.00643
1
0.999504
1
1
1.00031
1
1
0.999158
1
1
1
1.00001
1.02274
1.00008
1.00006
1
1
1.00001
1
1
0.998707
1
1
1.00025
0.999998
1.00009
1.00127
0.999998
1.00066
1
1
1.00153
1
1
1
1
1.00038
0.999037
1
1.00212
1
1.00751
1
1
1
1.00001
1
1
1.00005
1
1
1
1.00096
1.05479
1
0.999995
1
1
1
0.999998
1
1
0.999996
1
0.9513
1
0.999998
0.988747
1.03191
1
1
1.00133
0.999998
1
0.97272
1
1.00005
1
0.999981
0.999998
1.00499
1
1.00167
1.0353
0.99997
1
1
1
1
1
1.00521
1
1.00129
1
1
1
0.999995
1
1.02483
0.993477
1.00124
0.999991
1
0.931754
1.04011
0.999995
0.9971
1
1
0.920877
1
1.00002
1
1
1
1
1
1
1
1
1
1
0.999997
1
1
1
1
0.999996
1
0.999015
1
1
0.999989
0.999999
0.995485
1
1
1
0.999899
0.999693
1.00044
1.14234
1
0.999849
1
1
1.00019
1.01597
0.99965
0.999978
1.00017
1
1.00046
1
1.00549
1
0.999998
1
1
1.02886
1
0.953251
1
1
1
1.04688
1
1.00001
0.997794
0.999999
1
1
1
0.999998
0.99584
0.999991
1.01148
0.953088
0.999978
1.02635
1
1
0.999906
1
1
1
1
1.04142
1
1
1
0.991146
0.999727
0.995073
1.00031
1
1
1
1
1
0.955324
1
0.944978
1
1.00993
1.00015
1
0.99972
0.999842
1
1
0.999941
1
0.999627
0.999974
1
1.00029
1.00004
1
1.00027
0.999995
0.999988
1
1.01774
1
1
1
1.01404
1.04481
1.00002
1.00001
1.10574
1.00068
1.0001
1
0.982632
1
1
0.999982
1
1
1
1.02108
1
1
1
1
1
1
1
1.00085
1
1
1
0.999995
0.999333
1
1.0355
0.999993
1
0.998264
1.00001
0.999183
0.99993
1.00002
0.999969
1
1
1
1.00017
1.00002
0.999907
1.00023
1
1
1
1.02655
1
1
1.00016
1.00002
1
1
1
0.999096
0.988339
0.999996
1
1
1.00003
1
1
0.964006
1.02666
1
1
0.999995
1.00034
1
1.02522
1
0.999933
1
1
1.01867
1.01141
1.00015
0.991949
0.924025
0.988055
1.08329
1.00008
1.00001
1.00311
1.03216
1.07323
1
1
0.985115
1
1
1.03439
0.999985
0.999992
1.00092
1
0.999875
1
1
1.00002
1.03654
1
1
1
1
0.999984
1.05136
1
0.999979
1
1
1.00624
1
0.999998
1
1
1.04817
1
1
1.00027
1.01514
1
1
1
1
0.803922
1
0.999984
1.04749
1.01473
1.00074
1
0.999462
1.00284
1.00053
1.03344
0.99897
1
1
1
1
1
1
0.999995
1.00009
1
1
1
1
0.999999
0.999946
1.05363
1.00007
1
1.01812
1.01355
0.999362
1.01557
1
1
1
1.00015
1.02292
1.01212
1.05726
1
1
0.999981
1.00003
1.02179
1
1.00423
0.957596
1
0.45281
1
1
1
1
0.999954
1
1
1
1.55929
1.00312
0.99961
1
1
1
1
1
0.453615
1
1.00004
1
0.999994
1
1.00002
1
1
1
1
1
1.01757
1.00213
1
1
0.97523
1
1.00268
1
1
1
0.999992
1
1
0.884663
1.02222
1.00269
1
1
1
1
1
1.01892
1.00004
1.00794
1
1
1.00352
1
1
1.01612
0.987279
1.00885
1.04637
1
0.999995
1
1.00001
1.00009
0.999349
1.00879
1.01084
0.99998
1.00002
1
0.998516
0.889928
1
1
1
1.00055
1
1.00018
0.999998
1.00291
1.01155
1.00004
1.0042
1
1
1.00001
1
1
1.00877
1
1
1.02179
1.00491
1
1.04298
0.999995
1.00002
0.999948
1
1.03723
1
1
1.01234
0.857821
1
1.04799
1.02232
1
1
1
1
1
1
1
1.00067
1
0.999999
0.96526
0.899097
1.00044
1
1
0.99999
1.00001
0.999994
1.00938
0.996265
1.0002
0.879381
1
1
1.00449
1
1
1
1
1
1.00001
1.00037
1
1
0.884999
1
1
1.00308
1
1.00003
1
0.999986
1
1
1
1
1
0.999997
1
1.00789
1
1
0.999002
1.00331
1
1
1.00012
0.999999
1
1
1
1
1
1.00008
1
1
1
1.01137
1
1
1
1.00692
1.00003
0.999992
0.999961
1
0.874886
1
1
1
0.999992
1.00196
1.00007
1.00012
1
1
1
0.995733
1
0.767461
1
1
1
0.999945
1.00096
1
1
1.02563
1
1.0001
1
1.04552
1.00025
1.00549
1
1
1.04489
1
1.02454
1
1
1
1.00001
1
1
1.02878
1
1
0.999979
1
0.999975
0.999999
1
1.00002
1
0.999993
1
0.999743
0.988741
1.02976
1.00472
1
0.999946
0.999994
0.999999
1
1
0.99212
1.00051
1
1
1.00022
1
0.999405
1.0116
1.00002
1
1
1
1
1.03153
1.00004
0.99925
1.00052
1
0.999998
1.00654
1.00003
1
0.999999
1
1
1
1.00001
1
1
0.999999
1
1.00237
1
0.999822
1.02281
1
0.999261
0.999999
1
1.03118
1.10295
1.0032
1
1
1
1
0.999992
1
0.99996
1.00276
1.00012
1
1.06908
1
1.0004
0.998586
1
1.0002
1.04005
0.998648
1
0.958496
0.999992
1.02044
0.999998
1
0.99963
1
0.999936
1
1.04021
1
1.00008
0.998168
0.972464
1
0.984499
1
0.999992
1.00003
1
1.00001
1
1
1
1
1
0.999999
1
1
0.995363
0.999999
1.0009
0.98001
0.984623
1
1
1.02846
0.990246
1
1
0.999392
1.02339
1.02273
0.999934
1
1
0.932772
0.999761
1
1
1
1
1
1
1.00001
0.995265
1.04511
1.0542
0.866702
1
0.908587
1
1.00927
1
1
1.05234
1.00002
1.00003
1
1.00509
0.999983
1
1
1
1
1.00128
0.999789
1
1
1
1.00074
0.905683
1
1.00001
0.999999
1
1
1.0309
1
1
1.03925
1.00015
1
1
1.00266
1
1
1
1
1
0.999839
1
1.02499
1
0.999997
1
1
1
0.999995
1.00696
1
1.02338
1.04301
1.03896
1
1
0.999552
1.0064
1.00629
1
1.03294
1
0.999994
0.872322
1
0.835745
1
1
1
1
1
1.007
1
0.991525
1
1.02677
1
0.999898
1
1
0.999999
1
1
1
0.999731
1
1.00002
1
1.09338
0.999999
0.99326
1
1
1.00248
1
1
1
1.03682
1.04721
1.00011
1
1
1
1.00023
1
1
0.896332
1.01687
0.999997
1.03233
1
1.00106
1.00104
0.999936
1
1
0.995861
1
1.00033
1
1
1
1.00404
1
1
1
0.999999
1
1
1
0.999712
1.02488
1
0.828611
0.999797
1
1.00011
1.01361
1.00093
1
1.02004
1
1
1
1
1
1.00525
1
1
1.00001
0.974014
0.999972
1
1.00231
1
1.00137
1
1
1.04136
1.02997
1
0.999998
0.999588
1
0.941772
1
1
1.0219
1
1
1.01743
0.999944
1.00002
1
1
0.999999
1
1.03966
1
0.84571
1.00216
1
1.00185
1
1.00002
1
1
0.970574
0.999603
1
1
1
1
1
1.0098
1
1
1
0.999287
0.969236
1.00203
1
1.00738
1
1.00048
1.00183
0.999999
0.999999
1
1
0.978352
1
1.02336
1.00286
1
1
1
1
1
1
1.00006
1
0.999999
1
1
1
1
1
1
1.10229
1.00018
1.05086
0.999991
0.999712
1.00169
1
1.00097
0.346363
1.00001
1
0.883053
1
1.0001
0.998487
1.02065
1
1
1.00131
0.999995
1
0.999997
1
0.999964
1
1.0561
1.00018
1.01139
1
1.00005
0.999962
1
1.00001
1
0.999998
1
1.00179
1.0076
1
1.0001
0.85031
1.00011
0.626289
1.01779
1.00182
1.00222
0.999996
1.00176
0.99934
0.999999
1.03316
0.999998
1
1
1
1
1.02456
1.00974
1
1
1.00374
1
0.999999
0.998702
1.02429
1
0.996059
1
0.999999
1
0.996893
1
1
1
1
0.97997
0.999981
1
0.822476
1
1
0.806817
1
1.02559
0.999987
1.00003
1
1
1
1
1
1
1
0.999999
1
0.999985
1.00007
1
0.632467
1
1
0.999477
1
1.00021
1
1
1.00764
1
0.99997
1
1
1
1
1
1
0.999998
1
1
1
1
0.999997
0.999762
1.00088
1.00126
1
1.01339
1.01167
0.999988
0.999989
1
1.00004
1.01676
1
1
1
1.02287
1
1
0.704434
1
1
1
1
1
1.00014
1
0.999955
1
0.988845
1
0.999992
0.997724
1
0.999999
1.03975
1
1
0.957831
0.874992
1
1.00017
1
1
1
1.03211
0.999929
0.999998
1.00528
0.912189
0.576802
1
0.66438
1
1
1
1
1
1
1.00317
1.00015
0.692531
0.999931
1.00068
0.999978
1
1
1.00001
1
1
0.999995
1
1.00045
0.999832
1.00003
1
1
1
1
1
0.890542
1
0.999992
1
1
1.59304
1
1.00004
1
1
1
1.01544
1.00512
1
0.999998
1
1
1
1.00029
0.996953
1
1
1
1
1
1
1.00176
1
1
1
1.03028
1
1.03505
1
1
1
1.02339
1
1
1.00036
1
1.0005
0.999954
1
1
1
1
1.00066
1
0.999973
1.00002
0.999995
1
0.53107
1
1.00236
1
1.00002
1.00279
0.999995
1.02364
1.03139
0.992388
1
1.06302
0.999999
0.342756
1
0.999993
1
1
1
1
1.05449
0.991042
1.00447
0.999999
1.0113
1.00369
0.999082
1
1.03546
1
1
1
0.999562
0.998285
0.999977
0.364329
1
1
1.00006
1.00101
0.981782
1.00024
1
1
1.00322
0.999997
0.999711
1.00007
0.999993
1
1
1
1
1.00077
0.999651
1.04681
0.486677
0.999991
1
1
1
0.999103
1.00372
1.00085
0.998856
1.00001
1
1.00277
1
1
1
0.999559
1.03113
1.01613
1.00002
1
1.00007
1.00046
1.0227
1
0.902755
1
0.821334
1
1.00056
0.999996
1.0001
1
0.986866
0.729967
1
1
1
1.00032
1.00738
1
1
1
1
1.03305
1
1
1.0003
1.00241
1
1
1.00171
0.951585
1
1.00001
0.792499
1
1.00004
1
1
1
1
1
0.999995
1
1.00013
1
1
1
1
1
1
1
1
0.998819
1
1.00003
1.0014
0.999999
1.01756
1
1
1
0.999984
1
1.03128
1
1
0.999979
1
1
1
1
1
1.05711
1
1
0.999992
0.390548
1
1.00548
1
1.0473
1
0.999989
1
0.691837
1
1
1.00222
1
0.999999
1.01924
0.9991
1.11649
0.473419
1
1
1
1.10777
1
1
1.00542
1
1
1
0.999996
1
0.999997
1.00456
1
1.00001
1
1
1.04683
0.999998
1
1
0.997086
1
1
1
1
1
1
1
1.00036
1
1
1
1
1
1
1.00068
1
1
1
1
1
1.01267
0.999998
1
1
1
1.00128
0.654529
1
0.999631
0.999993
1.00038
1
0.9998
1
0.999719
1.00948
1.00002
1
1.14784
1.03696
1
1.00251
1
1
0.554283
1
1
0.999974
1
1
1.00022
0.524303
1
1
1
1
1
1.00079
1
1
1.02144
1
0.999999
1
1
1
0.9995
0.999923
1
0.999999
1
0.999992
1
1
1
0.999999
1
1
0.988184
1.01103
1.00001
1
1
1.07106
1
0.999997
1
1
1
1
1.00013
1
1.12682
1
1
1
1.00001
1
1
1.01543
1.00097
1
1
1.01645
1
1
1
1.03244
1
1
1
1
1
1
1
1.00002
0.999805
0.564036
1
1
1
1
1.00008
1
1
1
1
0.999942
0.999966
1
1
1
1
1
0.730026
1
1
1
1
1
0.999999
0.958975
1
1.01087
1
1.00001
1.0324
0.995484
1
0.999991
1
1.03556
1
1
1
1
1
1
1.01607
1
1.0004
1.00001
1
1
1
1.00652
1
0.989951
0.999988
1.0001
0.99349
1
1
1.00181
1
1.01668
0.999999
1
1
1
1.0003
1
1
1
1
1.00523
1
1
1.02604
1
1
1.00866
0.749949
1.05231
1
1.01105
1
0.99998
1.04103
0.993466
1
0.999994
1.00291
1
1.00004
1.00005
1
1
1
1
1.00235
1
1
1.01344
1
1.03626
1
1
1
1
1.01617
1
1
1
1.00002
1
1
1
0.695705
1.02825
1
1
1
0.999965
1
0.999932
1
0.950529
0.580079
0.998219
1
1.00068
1
1.00023
0.98229
0.999992
1
0.997863
1
1
1.00001
0.377994
1
0.999991
1.03993
0.99946
0.999994
1.00446
1.00331
0.99988
0.999999
0.977992
1
1
0.999672
1.00003
1
1
1
1.00008
1
1
1.00024
1
1
1.00121
1
1
1
1
1.08378
1
1.00061
1
1.00005
1
1
1.00001
1
0.999974
0.999985
1.00008
0.999998
1
1
0.383212
1
1
1
1
1
0.999989
1.00203
1
1
1
1
1
0.992718
1
0.999992
1
1.03347
1
1
0.999999
1
1.00053
0.999963
1
1.02345
1
1
1.00085
1.00365
0.999195
1
1
1
1
1
0.630018
1.01406
0.999779
1.00107
1
1
1
1
0.999996
1.00107
0.999996
1.04837
0.999999
1.00689
1
0.999985
1
1
1
1
1
1
1
0.9995
0.99998
1.03316
1.00972
1
1.05724
1.00061
0.999014
1
1
1.00171
0.99999
1.00001
1.04485
1
1
1
1.00228
1.04483
1
1
1
1
1
1
1.00176
0.999998
1
0.699624
1
1
0.999898
1
0.941633
1
1
1
1
1
1.00331
1
1
1
1
1
1.00001
0.999995
1.00082
1.00001
0.999982
0.999995
0.999993
1.00001
1
1
1
1
1
0.977097
1
1.00167
1
1
1.00321
1.00013
1
1
1
1.01296
1
1
0.991921
1
1.00456
1.03099
1
1
1
1.03534
1
1.00275
1.00477
1.00002
0.999985
0.99819
1.00066
1.00001
1.00017
1
0.999974
1.00001
1
0.991
1.00011
0.999933
0.477588
1.00002
1.00047
1
1
1
1
1.00002
1
1.0004
1.00021
1
1
1
1
0.999999
1
1
1
1
1
1
1
1
1
1
0.999988
1
1
0.999999
0.999943
1
1
1
0.607431
1.00001
1
1
1
0.999951
1
1
1.00076
1.00777
1
1.00118
1
1
1
1
0.999997
1.00332
0.999995
1
1
1.00215
0.999999
1.00001
1
0.978481
1
1
1
1.00014
0.999998
1
1
1
1
1.00003
1
1
1
1
1
1
0.999863
1
1
1
1
1
0.574037
0.999987
0.999998
1
1
1
1.00011
0.999201
1
1
1.04575
0.996311
1.00005
1
1
1
1
1
1
1
1
0.999999
1
1
0.999991
1
1
1
1
1
1
1
1
1.00216
0.707319
0.984639
1
1
1.00068
1
0.767931
1
1
1
1
1
1
0.997452
1
0.999992
1
1.02516
1.00061
1.00049
1
1
0.999999
1
1.00005
0.999998
1
1.0001
1
1
1.00008
1.00559
0.999998
1
1
0.998825
1
1
1
1
0.999994
0.999998
1.00069
1.00176
1
1.00015
1.00002
1.00034
0.999977
0.999956
1
1
1
0.999997
0.993269
1.00001
1.00003
0.999923
1.00024
1
1
1
1.00599
1.13693
1
0.999999
1
1.00001
1
1.0005
1
0.999994
1
1
1
1
1
1
0.949987
1
1
1
1.00008
1
1.01237
0.999992
1
1.02064
1
1
1
1
1.00001
1
1
1.00189
1
1
1.07242
0.999947
1
1
1.00184
0.998234
1
1
1
0.992554
0.994897
0.999993
1
0.99982
0.999996
0.999992
0.999509
1
1.00001
0.999976
1
1.04225
1
1
1
1
1.00774
0.425536
0.999996
1.00035
0.970397
1
1
1
1
1
0.823671
0.999709
1
1
1
1
0.911209
1
1
1.00182
0.999988
1
1
0.999893
1
1
1
1
1
1
1.00055
1
1.00012
0.833939
1.00235
1.00003
1
0.984112
1
0.999821
1
0.999801
1
1
1.01818
1
1
0.99432
1
1
1.00131
1
1
1.00021
1.02737
1
1.01852
1
1
1
1
0.983514
1
1
1
1
1.00281
0.999986
1.00136
1
1
1.00014
1.00019
1.00149
1
1.00501
1
1
1
1
1.00385
1.00035
1
1
0.999999
1
1
1
1
1.05414
1
1.03388
1
1
1.00001
1
1.00001
1
0.980101
0.999114
1
0.999994
0.984882
1
1
1
1
1.00269
1
1.05296
1
1
1
1.00007
1
1
1
0.999969
1
1.00045
1
1
1
1
1.01183
1.00013
1
1
1
1
1.00023
1
1
1.05074
0.995643
0.995141
1
1.00843
1.00009
1
1
1.04467
1
0.999946
1
0.999985
1.06906
1
1
1.0005
1.01752
1
1
1.00023
0.984749
1
0.884683
0.999914
1
0.999999
1
0.999986
1
1
1.00006
1
1
0.999927
1
1
1.00015
0.999999
1
0.562126
1
1.00009
1
1.00019
1.00007
1
1
1.00001
1
0.999999
1.00001
1.00017
1
1
0.775739
1
1
1
1
1
1
0.808542
1.02768
1.02022
1.00075
1.00001
1
1
1
1
1
0.99998
1
1
1
0.999995
1.01053
0.999999
1.00526
1.00004
1
0.993816
1.00001
0.944386
1.01378
0.99344
0.999998
0.999997
1.00192
1
0.999999
0.999997
1
1.00017
1
0.999987
0.988364
0.999754
1
1.00091
1
0.996963
1
1
1
1.0006
1
1
1
1
1.05051
1.00005
1
1
0.788105
1
1.00038
1
1.00002
1
1
1
1
1
1
1
1
1
0.999998
0.999994
0.999998
1
1
1
1
1.0034
1
1.05045
1
1
1
1
1
1
0.999998
1
1
1
0.988751
1
1
1
1.00051
1.00005
1.00001
0.999457
1
1.00042
0.987145
1
1.04221
1.00241
1
1.00001
1
1
1.00082
0.999997
1
0.992291
1.02291
0.999601
1
1
1.00024
1
0.999882
1
1
0.967733
0.999971
0.646574
1.00004
1.00004
1
1
0.999623
0.999993
1.00002
1
1
1
1.00005
0.999635
1.00002
1.02031
1.00008
1
1
1
1
1
1
1
1.00021
0.999995
0.999986
1
0.997657
0.998667
0.999985
1.03224
1
1
1.00001
0.999999
1.00201
1.0201
1.00012
1
1
1
0.999712
1
1
1.01795
1
1
1.00609
0.99946
1
1
1.02778
1
1
1
0.827879
1.00007
1
1.01597
1
1.00219
0.99185
1.0301
1.00061
1.03577
1
1.00771
1.00097
0.428141
1
1
1.00002
1
0.999991
1
1
1
0.999994
1
1
1.00365
0.843266
0.999902
1
1.02354
1
1.00163
1.01674
1.00004
1
1.03786
1.00001
1
1
1.02716
1.00009
1
0.996256
1
0.999998
1
1
1
1.00581
1.00001
1.0001
1
1
0.999999
0.79455
1
1
1
0.326225
1
1.0004
0.999999
1
1
1
1
1
1
1
1.00146
0.999739
0.984701
1
0.98406
0.999998
1
1
0.999999
1.01257
1.00022
1
0.846443
1
1.00045
1
1
0.999497
1.00481
1.17473
1.03194
0.999999
1.00001
1.00018
1.02485
0.999936
0.999999
1
1
0.99997
1.03364
1
0.999998
1
1
1
1.03449
1.00205
1
1.05105
1
1
0.991537
1.0047
1.08131
1
1.00012
1
1
1
1.00297
1
1
1
1.05808
1
1
1
1
1.00713
1
1.04172
0.999994
0.999981
1.00066
1
1.00017
1.00887
0.999809
0.824672
1
1
1
1
1
1
1
1
1
0.934622
1
1
1
0.999998
1
1
1
0.999986
0.97787
0.999998
1.01991
0.999985
1
1.03866
1.00458
0.999806
1
1
1
0.517834
1
1.02146
1
1.01118
1
0.999988
1
1
1
1
1.0002
1
1.00002
1.00001
1.00001
1
1
1
1
1
1
1.00772
1
1.0045
1
0.999029
0.999993
1.00001
1
1.05029
1
1
1
1
1.02426
0.999692
1
0.99995
0.999995
0.998946
1.01548
1
1
1.00101
1
1
1
1
1.01576
1
1
0.999999
1.00004
1.00195
1
1
0.999955
1
1
1.00054
0.998961
1
1
1
1.0001
1.04308
1.04405
1
1
1.00307
1
1.04807
1
0.999499
1
1
1
1
1.00607
1.00061
1.03466
1.00003
1
1
1
1
0.999999
0.999999
1
1
1.01297
0.999999
1
1
1.05135
1.05089
0.921551
1.00101
0.999998
0.801422
1
1
0.999999
1.00004
1
1.00004
0.980612
1
1.01301
1
1
1.03942
0.993572
1
1
1.0111
0.998921
1.04171
1
1.00179
0.337808
0.943526
1
1
0.999996
1
1.02106
1.17937
0.978517
1
1.00001
1.04969
1
0.999986
0.949578
0.999998
0.367681
1
1.03788
0.999999
1.00008
0.420812
1
1
1
1.04145
1
0.483341
1
1.20936
1
1
0.422877
1
1
1
1.00001
0.999937
1
1.04341
0.999979
1.00002
0.999063
1.00665
1
1
0.999999
1
1.08736
1
1.00011
0.99488
1.00059
1.00091
1.06155
1.00027
1
0.984903
1
1.00001
1.02875
1
1.02231
1.00017
1
0.99984
1.00023
1.04143
1
0.997946
1
1.00005
1.00452
1
0.823312
0.966591
1
1.03409
1.04106
1
1
1
1.00001
1
0.999931
1.00019
1
1
1.00091
1
1.00001
1
0.996189
1.00002
1.0202
1
1
1
1
1
0.624718
1
1
0.999417
1
1
1
0.866896
1
1
0.995288
1.00017
1
0.999993
1.00088
1.0006
1
1.00045
1
0.977685
1
1
1
1
1
0.82961
0.998566
1.00001
1
1.00024
1.07718
1.00265
1
1
0.999967
1
0.961179
1
1.0001
0.999999
1
1.00001
1
1
1
1.00041
1.00017
1
0.999995
0.999999
0.995229
0.991626
0.976474
1
0.999999
0.988045
1
1
1
1
0.50679
1.00001
1
1
1
1.00001
1
0.540799
1
0.999999
1
0.978428
1
1
1
0.99997
0.999997
0.911552
0.92841
0.96921
1
1.00146
1.02299
1
1.00709
0.962921
1.00136
1
1
1
1
1
1
1
0.998143
1.00731
1
1.00762
1.00002
0.999989
1
1.00005
1
1.00407
1
1.00001
0.999997
1.00002
1.0019
1
1
1.00001
1
1.00018
1.03968
1.0576
1
1
1
1
0.963449
1.00001
0.999999
1
1
1
1.00007
1.01527
1
1.01912
1
1.00001
1
1
1
1.00002
1
0.999997
1.03671
1
1.00108
1.0005
1
1
1
1
1
1
1
1
0.999974
1.01541
1
1
1.00056
1
0.828978
0.999999
1.00015
1
1
1
1
1
1.01867
1
1
0.996072
1
1
1
1
1
1
1
1
1
1.00445
0.999226
1.00019
0.992687
1
1.00001
1.00007
1
1
1.03831
0.98638
1.00095
0.999985
1
0.999985
1
1
1.00003
1
1
0.74893
0.999661
0.999998
1
1.0005
1.03269
1
1.00165
1
1
1
1.00006
1
1
1
1.00003
0.717797
0.984516
1.00001
1
1
1
0.824029
1
0.999921
0.999996
1.00024
1
0.999999
1
0.668136
1
1
1.04247
1
0.998826
1.00001
1
1
0.999525
1
1
0.999994
1
1
0.995325
0.999986
1
0.999997
0.999887
1
1
1.00194
1
1
1.00039
0.814649
1.00002
1.00012
1
1
1
1
1.01637
1
1
0.999388
1.00014
1
0.999999
1
1
1.00001
1
1.00025
1
1
1.00011
1
1
1
1.00001
1
0.999925
1
1
1
1.00001
1
1
1
1.00006
1
1.00002
0.999996
0.999973
1.00038
1.06416
1.00068
1
1
1
1
1.00005
1
1
0.995694
0.957789
1
0.998373
1.00003
1.00098
1.03158
0.99998
1
0.592458
1
1
1
1.00065
0.999984
0.862942
1
1
1
1.00013
1
1
1.00002
1
1.00206
1.00001
1
0.999999
1.00013
1
1.00007
1
1
1.00019
1.00005
0.981055
1.03701
1
1
0.58799
1
1
1
1
1.04996
0.999999
1
0.999996
0.999982
0.999999
1.00464
1.02806
1
1
1
1.1025
0.997491
0.999992
1
1.00438
1
0.99742
0.99272
1
1
1
1
1.04022
0.999981
1
1.02534
1
1.00234
1.00946
1
1.00033
0.99865
1.00007
0.989565
1.00001
1
1
0.999999
1
1
1.00186
0.985206
1.00006
0.999522
0.999998
1
1.0006
0.972308
1
1
1
1
1
1
1.00002
1
1
1
0.999986
1
1
1
1
0.537071
1
1
1
0.999998
1
1
1
1
1
1.02393
1
1
1
0.999996
1
1
1
0.517124
0.999997
1
1
1
1
0.999991
0.999605
1
0.971136
1
1
0.999509
1
1
1
0.998373
1
0.999988
0.999993
0.999997
1.03814
0.505846
1.00317
1.07282
1
0.999999
1.00112
1.04176
1.00026
1.00007
1
1.00001
1.0469
1
1
1
1.00555
1
1
1.00003
1.00003
1
1
1
1.01243
1
1.00006
1
1
0.887599
1
1.00019
0.981052
0.999997
1
1
1
1
1
1
1.06125
1
1
1
1
0.83999
1
1
0.999984
1
1
1
0.773043
1
1
1.00002
1.01958
1.0675
0.999986
1
1
1
1
1.05902
1.00277
0.999999
1
1
1
1
1.00012
1
1.01465
1
0.999999
1.00112
0.99996
0.999993
1
1
1.00129
1
1
0.999991
1
1
1
1.00002
0.999988
1.00042
1
1
1
0.842075
1
1.00013
1.00574
1
1.00968
1.03756
1
1
1
0.99966
1
0.970373
1
0.999973
1
1.00024
1
1.00001
1.01377
0.999999
0.998993
1
1.00639
0.988131
1
1
1
1
0.999908
1
1.00035
1
1.00521
1.00361
1
1
0.781365
1
1
1
1
1
1.03884
1.00395
1
1.0015
1
1
0.999316
1
1
1
0.985083
1
1
1
0.999998
1
1.00507
1.00057
1
1
1.03622
0.943115
1
0.999914
0.999655
0.990065
1
0.999999
0.999906
1
1.00002
1.00009
1
0.783121
1.00064
1
1
1
1.00012
1.00047
1
0.999999
1.00012
1
0.99971
0.999831
1
0.999995
1.00051
1.02449
1
1
0.984469
1
1
0.999882
1
1
1.0006
1
0.845683
0.999641
1.05279
1
0.345803
1.00595
1
1
0.777908
0.980879
1.00009
0.440611
0.900832
1
1.00191
1
1.0035
0.999919
1
1
1
1.01295
1
1.01347
1
0.999926
1
1
1.03242
1
0.999996
0.999985
0.403257
1
0.999955
1.0099
1
1
1
1.00001
1
1.03653
1
0.913918
1.02892
0.999996
0.999993
0.999999
0.907673
1.00768
1
1
1.00024
1.00864
0.999994
1
0.999972
1.001
1.0313
1
1.00059
1
0.997451
1
1.0011
1
1.03792
1
1.05287
1.00009
1
1.00048
1
0.999991
1.00442
0.997038
1
1.04333
1
1
1.00001
1
1
1
1
1
0.999783
1.00001
1.00003
1
1
0.905913
1.0003
1.00004
0.999999
1
1
1
1.04447
1
1
0.999999
1
1
1.00488
1.00007
1
1.01494
1.00001
1.00095
0.999998
1.01539
1.04304
0.332983
1
1
1
1
1
1.00051
1.04884
1
0.999557
0.999894
0.897548
1
0.999867
1
1
1
1.03241
1
0.997425
1.00004
1
1.01725
1.00248
1
1
0.995954
0.999947
1.0004
1.00742
1
0.999991
1
0.999997
1.03616
0.999997
1
1
1
0.999996
1
1
1.02407
1
0.999994
0.619863
1
1
0.999989
1
1
0.973202
1
0.999997
0.999998
1
0.99925
1
0.999865
1.02777
1
1
1
0.999877
1
1
1
1.00709
1.04381
1
1.04822
0.999988
1
1
1.00094
1.00543
1.07325
1.00007
0.999999
0.999985
1
1
1
1
1.00001
1
1
1.00292
0.993895
0.999591
1
1.00832
1.01818
1
1
1.00001
1
0.999969
1
1.00616
1.00001
1
0.999991
0.999997
1
1.00114
1
1
1
1
1.00001
1
1.00895
1
1
1
1
1.00002
1
0.99999
1.03251
1
1
1
1
1
1.04015
1.00071
1
1
1
1
1
1.00207
0.999899
1
0.999987
1
0.999946
0.988462
1
1.00002
1
1.00118
1
1
1
1.00005
1
1.00001
0.990488
1.01912
1
1
0.994457
0.985504
1.00233
1.00001
0.999998
1
1
0.999996
1
0.999998
1
1.00191
0.998568
1.00003
1
1
1.00004
1
1
1
1
1.0007
1
1
1.00684
0.987699
0.999999
0.986588
1.00238
1
1
1
1
1.01803
1
1
1
0.999993
1
1
1
0.999984
1
1
1
1.00001
1
1
1
0.999997
1.00232
1
1.00092
0.981714
1
0.999999
1
1
1
1.00001
1
0.699059
1.0014
0.999995
1.00006
1
0.999495
1.04291
1.00044
1.0002
1
1.00001
1
0.99996
1
1
1
1
1.06499
1.00303
1
1
0.999999
1
1
0.981224
1.00001
1
1
1
1.04415
0.999996
1
1
0.999321
1
0.998937
1.0479
1.10258
1
1.00231
1
1
1
0.409399
1
1
1.00001
1
1.02849
1
1.00027
1.0085
1
1
1
1.00002
0.999917
1.00054
1
1.0303
1
1
1
1.00006
1
1
0.999996
0.999998
1
1.00001
1.04168
1
1
1
0.999964
1
1.00001
1
1
0.999851
1.00013
1
0.999068
1
0.999842
1.04864
1.0001
0.987093
1.00495
0.539601
1.00003
1.00003
1.00008
0.51204
1
1.00009
1
0.979894
1
0.999976
1.00035
1.00106
0.99145
1
1
1
1.00052
1.00147
1
0.999993
1
1.00054
1
1
1
1
1
1
1.02946
1
1
1.00149
1
1
0.99892
1
0.999995
1
1
1
1.00486
1
1.00079
1.00023
1
0.999999
1.03403
0.999999
1
1
1
1
1
0.523249
1
1
0.999205
0.994408
1
1
1.00064
0.999991
1.00396
1.00067
1
1
1
1.03056
1
0.999997
1
0.968826
1.05122
1.00055
1
1.00006
1
1
1
1
1.00023
0.99952
1
1
0.999998
1
0.999967
1.02617
1.0166
1
0.999976
1
0.999982
1
0.999999
1.00036
1
1.00257
1
1
1
0.999999
1
1
1.00001
1
0.999999
1.00019
1.0004
1
1
0.999971
1
1
1
0.99997
1.02567
1.03639
1
1
1
1
0.999991
1.00213
1.00292
1
1.00108
1
1
1
0.973618
1.00002
1
1.00053
1
1
1
1.02839
1
1.00246
1.03357
1.02066
1.00001
0.908561
0.592086
1.01217
0.999999
1
1
1.02295
1.00739
1
0.999748
1
1
1.01156
0.999999
1
1.0131
1.00139
1
1
0.997487
1.0088
1.01955
1.00006
1
1.00361
1.00921
0.999999
1
1
1
1
1.0092
1
1
0.999988
0.669115
1
1
1
1
0.999998
0.999921
1
1.00924
0.999419
1
1.00008
0.995202
1
1.02654
1.00049
1
1.02685
0.535846
1.06146
1
1
1
1
1
1
1.01157
0.999988
1
1.00467
1
1.00532
1.02391
1
1.00095
1.00001
1.00027
1.02978
1
1
1.0246
1
0.999999
1
1
1
1.01064
1.00001
1
1.00008
1.0003
0.999999
1
1
1
1
1
1
0.986986
1
1
1
1.00005
1
1
1
0.999999
1
1
0.999673
1
0.999999
1.00001
1
1.00016
1
1.0076
1
1
1
1.01019
0.999907
1
1.00988
1
0.999923
0.999969
1
0.961328
1
1
0.999995
1
1
1.03468
0.992806
0.98794
0.707985
1
1
1
1.00016
1.00016
1
1.00509
0.99998
1
0.755767
0.619881
0.999992
1
1
1
0.999925
1
1.00017
1
0.999837
1
1
1
1.07482
1
1
1
0.999999