/*--------------------------------*- C++ -*----------------------------------*\
  =========                 |
  \\      /  F ield         | OpenFOAM: The Open Source CFD Toolbox
   \\    /   O peration     | Website:  https://openfoam.org
    \\  /    A nd           | Version:  6
     \\/     M anipulation  |
\*---------------------------------------------------------------------------*/
FoamFile
{
    version     2.0;
    format      ascii;
    class       surfaceScalarField;
    location    "3.56";
    object      meshPhi;
}
// * * * * * * * * * * * * * * * * * * * * * * * * * * * * * * * * * * * * * //

dimensions      [0 3 -1 0 0 0 0];

internalField   nonuniform List<scalar> 
8193
(
0.00264967
0.00121163
-0.00110676
0.00361688
0.00221346
0.00411381
0.00302423
0.00425566
0.0036332
0.00415658
0.00404194
0.0039207
0.0042624
0.00363531
0.00431448
0.00336659
0.00422341
0.00315766
0.00401724
0.00302876
0.00372454
0.00297921
0.00337248
0.0029906
0.00298548
0.00303082
0.00258419
0.00305854
0.00218506
0.00302767
0.00180016
0.00289158
0.00143743
0.00260696
0.00110102
0.00213707
0.000791817
0.00145446
0.000508059
0.000543036
0.000245897
-0.000600354
1.14609e-14
-0.00196499
-0.000235873
-0.00352587
-0.000468314
-0.00524385
-0.0007037
-0.00706647
-0.000947613
-0.00892937
-0.00120423
-0.0107585
-0.00147572
-0.0124731
-0.00176157
-0.0139892
-0.00205807
-0.0152244
-0.00235781
-0.016102
-0.00264942
-0.0165571
-0.00291755
-0.0165409
-0.00314322
-0.0160257
-0.00330461
-0.0150083
-0.00337826
-0.0135126
-0.00334082
-0.0115894
-0.00317102
-0.00931493
-0.00285211
-0.00678682
-0.00237417
-0.00411741
-0.00173639
-0.000948841
-0.00142568
0.00849641
0.00503597
-0.00486201
0.0106914
0.00742742
0.0117473
0.00919914
0.0119732
0.0103467
0.0116623
0.0109026
0.0110722
0.0109291
0.010411
0.01051
0.0098295
0.00974127
0.00941809
0.00872368
0.00920968
0.00755503
0.00918563
0.00632462
0.00928474
0.00510907
0.00941386
0.00396981
0.00945915
0.002952
0.00929726
0.00208468
0.0088057
0.00138181
0.00787219
0.000843949
0.00640251
0.000460281
0.00432706
0.000210724
0.00160601
6.80687e-05
-0.00176703
1.10168e-14
-0.00576242
-2.89666e-05
-0.0103134
-5.56105e-05
-0.0153162
-0.000116121
-0.0206316
-0.000244135
-0.0260884
-0.000468652
-0.0314879
-0.000811823
-0.0366112
-0.00128668
-0.041228
-0.00189493
-0.0451069
-0.00262503
-0.0480281
-0.00345077
-0.0497958
-0.00433073
-0.0502522
-0.00520883
-0.0492899
-0.00601623
-0.0468629
-0.00667485
-0.0429941
-0.00710233
-0.0377794
-0.00721849
-0.0313864
-0.00695278
-0.0240478
-0.0062522
-0.016049
-0.00508906
-0.00346765
-0.00771048
0.0153623
0.0123482
-0.0109516
0.0178934
0.0160506
0.0189897
0.0185417
0.019085
0.0198552
0.0185737
0.0200892
0.0177887
0.0193913
0.0169877
0.0179427
0.0163456
0.0159419
0.0159548
0.0135897
0.0158305
0.0110762
0.0159208
0.00857068
0.01612
0.0062149
0.0162829
0.00411884
0.0162403
0.00235951
0.0158139
0.000981876
0.0148299
1.29197e-06
0.0131306
-0.000592903
0.0105855
-0.000833328
0.00709908
-0.000770345
0.00261776
-0.000467965
-0.00286511
2.4264e-21
-0.00930585
0.000553563
-0.0166085
0.00111005
-0.0246248
0.0015876
-0.0331554
0.00190885
-0.041954
0.00200489
-0.0507326
0.00181952
-0.059171
0.00131373
-0.0669267
0.000470174
-0.0736499
-0.000702812
-0.0789985
-0.002168
-0.0826566
-0.00385752
-0.0843529
-0.0056732
-0.0838789
-0.00748926
-0.0811059
-0.00915804
-0.0759986
-0.0105186
-0.0686237
-0.0114079
-0.0591533
-0.0116746
-0.0478614
-0.0111936
-0.0351128
-0.00988091
-0.00770678
-0.0213453
0.0224069
0.0234249
-0.0180486
0.0248113
0.0279805
0.0257756
0.0306658
0.0257794
0.031584
0.0252428
0.0309264
0.0245064
0.0289502
0.0238209
0.0259536
0.023343
0.0222528
0.0231381
0.01816
0.0231885
0.0139651
0.023406
0.00992192
0.0236471
0.00623871
0.0237292
0.00307315
0.0234476
0.000531305
0.0225915
-0.00133033
0.0209586
-0.00250054
0.0183677
-0.00300765
0.0146701
-0.00291319
0.00975827
-0.00230542
0.00357347
-0.00129313
-0.00388901
4.85279e-21
-0.0125757
0.00144083
-0.0223723
0.00289181
-0.0331034
0.00421611
-0.044533
0.00528303
-0.0563677
0.00597392
-0.0682628
0.00618858
-0.0798306
0.00585213
-0.0906517
0.00492195
-0.100289
0.00339424
-0.108308
0.00130932
-0.11429
-0.00124492
-0.117861
-0.00413256
-0.118707
-0.00717273
-0.116598
-0.0101469
-0.111405
-0.0128105
-0.103113
-0.0149087
-0.0918307
-0.0161958
-0.0777911
-0.0164565
-0.0613471
-0.0155276
-0.0133187
-0.042958
0.0292186
0.0379642
-0.0252529
0.0314157
0.0426707
0.032349
0.0448728
0.0324729
0.0447652
0.0321712
0.0426477
0.0317427
0.0388962
0.031394
0.0339307
0.0312388
0.0281858
0.0313027
0.0220829
0.0315327
0.0160076
0.0318105
0.0102925
0.0319676
0.00520638
0.0318019
0.000948325
0.0310933
-0.00235259
0.0296196
-0.00463396
0.0271706
-0.00589383
0.0235601
-0.00618275
0.0186365
-0.00559519
0.0122918
-0.00426095
0.00446866
-0.00233698
-0.00483401
2.56033e-17
-0.0155566
0.00256043
-0.0275758
0.00514842
-0.0407033
0.00756833
-0.0546861
0.00963176
-0.0692083
0.0111652
-0.0838964
0.0120186
-0.0983263
0.0120743
-0.112034
0.0112566
-0.124529
0.00954109
-0.135311
0.00696161
-0.143889
0.00361613
-0.149803
-0.00033179
-0.152647
-0.00465589
-0.152088
-0.00907538
-0.147889
-0.0132689
-0.139925
-0.0168936
-0.128198
-0.0196096
-0.112841
-0.0211065
-0.0941201
-0.0211313
-0.0195159
-0.0724306
0.0358572
0.0551905
-0.0322155
0.0380485
0.0592521
0.0392216
0.0602739
0.0397534
0.0585498
0.039951
0.0544892
0.0400424
0.0485821
0.0401723
0.0413624
0.0404032
0.0333722
0.0407213
0.0251303
0.0410456
0.0171056
0.0412402
0.00969833
0.0411279
0.00322711
0.0405049
-0.00207627
0.0391551
-0.00606689
0.0368637
-0.00868183
0.0334295
-0.00993216
0.0286763
-0.00989304
0.0224619
-0.00869305
0.0146865
-0.00650372
0.00529924
-0.00352974
-0.00569633
0
-0.0182376
0.0038405
-0.0321996
0.00773843
-0.047393
0.0114399
-0.0635635
0.0146985
-0.0803928
0.0172851
-0.0975019
0.0189974
-0.114457
0.0196715
-0.130779
0.0191936
-0.145953
0.017511
-0.159446
0.0146426
-0.170723
0.0106854
-0.179263
0.00581808
-0.184589
0.00029835
-0.186281
-0.00554542
-0.183998
-0.0113296
-0.177502
-0.0166369
-0.166667
-0.0210442
-0.151496
-0.0241533
-0.132121
-0.0256239
-0.0252057
-0.10881
0.0428214
0.0740196
-0.0391653
0.0453576
0.0766883
0.0470942
0.0759256
0.0483022
0.0721184
0.0491944
0.0657747
0.0499189
0.057484
0.0505573
0.0478766
0.0511261
0.0375842
0.0515819
0.0272052
0.0518292
0.0172757
0.0517299
0.00824898
0.051115
0.000481899
0.0497961
-0.00577043
0.0475773
-0.0103539
0.0442663
-0.0132092
0.0396847
-0.0143625
0.0336775
-0.0139137
0.0261208
-0.0120242
0.0169291
-0.00890469
0.00606156
-0.00480422
-0.00647309
0
-0.0206118
0.00521172
-0.0362338
0.0105242
-0.0531576
0.0156291
-0.07114
0.0202254
-0.0898756
0.0240303
-0.108999
0.0267905
-0.128088
0.0282952
-0.146673
0.0283898
-0.164242
0.0269893
-0.180258
0.0240899
-0.194167
0.0197779
-0.205422
0.0142347
-0.213499
0.0077343
-0.217915
0.00063576
-0.218247
-0.0066335
-0.214154
-0.0136008
-0.205391
-0.0197777
-0.191821
-0.0246946
-0.17343
-0.0279364
-0.0291778
-0.150328
0.0509467
0.093253
-0.0468361
0.054187
0.0939385
0.0567519
0.0909587
0.0588023
0.0847782
0.0604585
0.0759842
0.0617961
0.0652445
0.0628447
0.0532639
0.0635886
0.0407425
0.0639701
0.0283387
0.0638948
0.0166386
0.0632386
0.00613375
0.0618559
-0.00279194
0.0595879
-0.00986828
0.0562718
-0.0149371
0.051749
-0.0179455
0.0458734
-0.0189348
0.0385187
-0.0180277
0.0295854
-0.0154152
0.0190063
-0.0113425
0.00675242
-0.00609758
-0.00716227
8.59993e-15
-0.0226764
0.00660898
-0.0396774
0.0133756
-0.0579983
0.019943
-0.0774155
0.0259611
-0.097648
0.0310982
-0.118358
0.0350536
-0.139151
0.0375718
-0.159587
0.0384577
-0.179178
0.0375914
-0.197405
0.034942
-0.213727
0.0305776
-0.227596
0.0246713
-0.238469
0.0175001
-0.245831
0.00943691
-0.249204
0.000934065
-0.248174
-0.00750061
-0.242394
-0.0153349
-0.231612
-0.0220482
-0.215671
-0.027169
-0.0303131
-0.194525
0.0612475
0.111769
-0.056305
0.065434
0.110104
0.0689442
0.104685
0.0718425
0.0960347
0.0741731
0.0847963
0.075957
0.071693
0.07719
0.0574818
0.0778417
0.0429098
0.0778571
0.0286765
0.0771585
0.0154016
0.0756495
0.00360278
0.0732199
-0.00631905
0.0697512
-0.0140849
0.0651221
-0.019536
0.0592152
-0.0226265
0.0519222
-0.0234112
0.0431503
-0.0220328
0.0328269
-0.0187065
0.0209053
-0.0137064
0.00736915
-0.00735273
-0.00776276
4.10214e-15
-0.0244322
0.00797297
-0.0425376
0.016173
-0.0619306
0.024202
-0.082413
0.0316681
-0.103735
0.0381971
-0.125596
0.0434461
-0.147642
0.0471192
-0.169474
0.048983
-0.190645
0.0488836
-0.210676
0.0467606
-0.229058
0.0426591
-0.245264
0.0367359
-0.258766
0.02926
-0.269041
0.020604
-0.275592
0.0112285
-0.277958
0.00165739
-0.275733
-0.00755379
-0.268572
-0.0158543
-0.256211
-0.0227371
-0.0277771
-0.238474
0.0747234
0.128679
-0.068766
0.0798926
0.124536
0.084263
0.116667
0.0878271
0.10563
0.090577
0.0921037
0.0925015
0.0768449
0.0935826
0.060642
0.0937932
0.0442706
0.0930957
0.028455
0.0914419
0.0138354
0.0887732
0.00094474
0.0850232
-0.00980597
0.0801195
-0.0181333
0.0739874
-0.0238794
0.0665537
-0.0270045
0.0577505
-0.0275746
0.0475195
-0.0257473
0.0358161
-0.0217568
0.022614
-0.0158992
0.00790959
-0.0085196
-0.00827424
3.95052e-15
-0.0258835
0.00925138
-0.044829
0.0188099
-0.0649832
0.0282447
-0.0861762
0.0371295
-0.108194
0.0450548
-0.130777
0.0516426
-0.153619
0.0565617
-0.17637
0.0595449
-0.198636
0.0604064
-0.21999
0.0590568
-0.23997
0.0555158
-0.258094
0.0499193
-0.273865
0.0425203
-0.286784
0.0336807
-0.296361
0.0238561
-0.302125
0.0135705
-0.30364
0.00338567
-0.300514
-0.00613614
-0.292413
-0.0144708
-0.0211706
-0.27907
0.0921595
0.143426
-0.0852739
0.0981029
0.136895
0.103034
0.126742
0.106901
0.113545
0.109671
0.0979998
0.111319
0.0808776
0.111834
0.0629817
0.111204
0.0451013
0.109422
0.0279726
0.106478
0.0122462
0.102355
-0.00153731
0.0970359
-0.0129616
0.090496
-0.0217409
0.0827081
-0.0277187
0.0736431
-0.030859
0.0632726
-0.0312353
0.0515721
-0.0290152
0.0385239
-0.0244457
0.0241213
-0.0178385
0.00837215
-0.00955604
-0.0086972
4.2116e-15
-0.0270375
0.0103998
-0.0465726
0.0211955
-0.0671961
0.0319311
-0.0887671
0.042154
-0.111108
0.0514272
-0.134002
0.0593443
-0.157194
0.0655452
-0.180385
0.0697343
-0.203242
0.0716976
-0.225393
0.0713188
-0.246438
0.0685924
-0.265948
0.0636314
-0.283477
0.0566679
-0.298569
0.0480464
-0.310762
0.0382076
-0.319608
0.0276649
-0.324672
0.0169725
-0.325551
0.00669008
-0.321882
-0.00265609
-0.0106101
-0.313354
0.113945
0.15581
-0.106496
0.120224
0.147144
0.125232
0.135004
0.128901
0.11997
0.131188
0.10274
0.132078
0.0840894
0.131574
0.0648227
0.129695
0.0457316
0.126467
0.027555
0.12192
0.0109465
0.116086
-0.00355022
0.108992
-0.0155164
0.100661
-0.024665
0.0911118
-0.0308391
0.0803554
-0.0340042
0.0684009
-0.0342368
0.0552544
-0.0317097
0.0409231
-0.0266769
0.0254176
-0.0194587
0.00875585
-0.0104284
-0.00903286
7.23606e-15
-0.0279043
0.0113825
-0.047795
0.0232554
-0.0686188
0.0351453
-0.0902626
0.0465806
-0.112584
0.0571043
-0.135408
0.0662882
-0.158527
0.0737503
-0.181697
0.0791718
-0.204643
0.0823153
-0.227053
0.083041
-0.248589
0.0813199
-0.268885
0.0772418
-0.287554
0.0710165
-0.304192
0.0629666
-0.318389
0.0535127
-0.329733
0.0431492
-0.337819
0.0324144
-0.342261
0.0218551
-0.342703
0.0119892
0.00327021
-0.338826
0.139937
0.165949
-0.13251
0.145949
0.155505
0.150436
0.141742
0.153327
0.125238
0.154592
0.106683
0.154231
0.0868458
0.152271
0.0665236
0.148763
0.0465032
0.14377
0.0275202
0.137363
0.0102267
0.129616
-0.00483363
0.120601
-0.0172407
0.110383
-0.0267056
0.09902
-0.0330692
0.0865619
-0.0362956
0.0730492
-0.0364603
0.0585152
-0.0337363
0.0429884
-0.028379
0.0264945
-0.0207117
0.0090603
-0.011112
-0.00928315
0
-0.0284963
0.0121727
-0.0485273
0.0249331
-0.0693083
0.0377974
-0.0907516
0.0502816
-0.112747
0.0619151
-0.135157
0.0722551
-0.15782
0.0809031
-0.180541
0.0875229
-0.2031
0.0918585
-0.225244
0.0937506
-0.246695
0.0931492
-0.26715
0.0901224
-0.286282
0.0848572
-0.30375
0.0776531
-0.319196
0.0689068
-0.332259
0.0590898
-0.342581
0.0487185
-0.34981
0.0383204
-0.35362
0.0283982
0.0193957
-0.35371
0.169393
0.174177
-0.162678
0.174473
0.162352
0.177816
0.147355
0.179363
0.129752
0.179096
0.110222
0.17704
0.0895193
0.17325
0.0684289
0.167805
0.0477281
0.160804
0.0281452
0.152355
0.0103284
0.14257
-0.00517982
0.131558
-0.0179585
0.119423
-0.0277155
0.106255
-0.0342878
0.092137
-0.0376347
0.0771355
-0.037827
0.0613071
-0.0350335
0.0446978
-0.0295063
0.0273462
-0.0215664
0.00928579
-0.0115908
-0.0094506
3.33558e-15
-0.0288277
0.0127524
-0.0488039
0.02619
-0.069327
0.0398239
-0.0903315
0.0531639
-0.111734
0.0657315
-0.133433
0.0770745
-0.155303
0.0867837
-0.177195
0.0945107
-0.198936
0.0999853
-0.220328
0.103032
-0.241148
0.103584
-0.261151
0.101688
-0.280068
0.0975102
-0.297614
0.091326
-0.31349
0.0835072
-0.327389
0.0744996
-0.339
0.0647942
-0.348018
0.0548952
-0.354153
0.0452853
0.0363937
-0.357142
0.200973
0.180905
-0.195626
0.204522
0.168101
0.206181
0.152248
0.205908
0.133898
0.203707
0.113713
0.199621
0.0924306
0.193733
0.0708218
0.186149
0.0496508
0.176999
0.0296372
0.166423
0.0114235
0.154563
-0.00444936
0.141561
-0.0175586
0.127549
-0.0276079
0.112648
-0.034428
0.0969633
-0.0379706
0.0805852
-0.0382986
0.0635884
-0.0355729
0.0460332
-0.0300382
0.0279684
-0.0220093
0.00943321
-0.0118577
-0.00953834
0
-0.0289145
0.0131127
-0.0486617
0.0270051
-0.0687412
0.0411881
-0.089105
0.0551698
-0.109693
0.0684688
-0.130431
0.0806282
-0.151227
0.0912327
-0.171968
0.0999255
-0.192523
0.106426
-0.212739
0.110548
-0.232441
0.112206
-0.251433
0.111433
-0.269499
0.108371
-0.286405
0.103274
-0.301904
0.0964871
-0.315737
0.0884291
-0.327642
0.0795637
-0.337357
0.0703685
-0.344633
0.061303
0.0527775
-0.349241
0.232833
0.186478
-0.22932
0.234434
0.173084
0.234051
0.156732
0.23166
0.137958
0.227285
0.117407
0.220992
0.0957971
0.212884
0.0738843
0.203095
0.052419
0.191777
0.032111
0.179097
0.0135976
0.165222
-0.00258162
0.15032
-0.0160014
0.134545
-0.0263595
0.118042
-0.0334785
0.100936
-0.0373002
0.0833334
-0.0378768
0.0653246
-0.0353581
0.046981
-0.0299784
0.0283595
-0.0220425
0.00950415
-0.0119133
-0.00955
0
-0.0287736
0.0132526
-0.0481394
0.027374
-0.0676186
0.0418784
-0.0871772
0.0562762
-0.106773
0.0700864
-0.126354
0.0828514
-0.145853
0.0941531
-0.165189
0.10363
-0.184262
0.110995
-0.202956
0.116051
-0.221135
0.118701
-0.238644
0.11896
-0.25531
0.116952
-0.270941
0.112906
-0.285334
0.107143
-0.298273
0.100052
-0.309534
0.092069
-0.318895
0.0836418
-0.326141
0.0752035
0.0671425
-0.331074
0.262775
-0.261255
0.262298
0.259774
0.255202
0.248628
0.240139
0.229862
0.217949
0.204577
0.18993
0.174199
0.15757
0.140218
0.122303
0.103965
0.0853275
0.0664896
0.0475328
0.0285204
0.00950079
-0.00948969
-0.028423
-0.047276
-0.066027
-0.0846523
-0.103123
-0.121403
-0.139445
-0.15719
-0.174565
-0.19148
-0.20783
-0.223492
-0.238326
-0.252176
-0.264871
-0.276229
-0.286061
-0.294174
-0.300381
-0.304509
-0.0904268
-0.277941
-0.109122
-0.301098
-0.127651
-0.317302
-0.144374
-0.325059
-0.157562
-0.323468
-0.165641
-0.312325
-0.167424
-0.292172
-0.162307
-0.264251
-0.150391
-0.23039
-0.132513
-0.192835
-0.110179
-0.154027
-0.0853985
-0.116377
-0.060456
-0.0820383
-0.0376473
-0.0527267
-0.0190172
-0.0295865
-0.006144
-0.0131315
-0.00325873
-0.083076
-0.250861
-0.101028
-0.270879
-0.118913
-0.285203
-0.135309
-0.292641
-0.148717
-0.292432
-0.15774
-0.284331
-0.161272
-0.268639
-0.158652
-0.246195
-0.14978
-0.218306
-0.135157
-0.186634
-0.115858
-0.153058
-0.0934367
-0.119509
-0.0697634
-0.0878087
-0.0468314
-0.0595234
-0.026547
-0.0358456
-0.0105374
-0.0175193
-0.00481274
-0.0764801
-0.223886
-0.093476
-0.241041
-0.110469
-0.253579
-0.126239
-0.260557
-0.139496
-0.261337
-0.149013
-0.255652
-0.153778
-0.243641
-0.153111
-0.225842
-0.146768
-0.203159
-0.13499
-0.176793
-0.118499
-0.148155
-0.0984499
-0.11875
-0.0763234
-0.0900673
-0.0537912
-0.0634701
-0.0325556
-0.0400964
-0.0141906
-0.020787
-0.00603988
-0.0707253
-0.197547
-0.0866051
-0.212114
-0.102516
-0.222977
-0.117423
-0.229391
-0.130223
-0.230826
-0.139851
-0.227017
-0.145392
-0.217989
-0.146179
-0.204066
-0.141873
-0.185849
-0.132518
-0.164181
-0.118557
-0.14009
-0.100803
-0.114718
-0.0803868
-0.0892438
-0.058659
-0.0648027
-0.037079
-0.0424135
-0.0170904
-0.022914
-0.00691346
-0.0658072
-0.172286
-0.0804636
-0.184536
-0.0951624
-0.193844
-0.109031
-0.199626
-0.121136
-0.201444
-0.130562
-0.199049
-0.136492
-0.192396
-0.138291
-0.181655
-0.135568
-0.167209
-0.128226
-0.149626
-0.116486
-0.129634
-0.100887
-0.10807
-0.0822482
-0.0858376
-0.061619
-0.0638456
-0.0401994
-0.0429581
-0.0192508
-0.0239427
-0.00742917
-0.0616434
-0.148451
-0.0750182
-0.158646
-0.0884287
-0.166527
-0.101146
-0.17164
-0.112385
-0.173628
-0.121365
-0.172264
-0.12737
-0.167463
-0.129807
-0.159295
-0.128263
-0.147983
-0.122548
-0.133894
-0.112718
-0.117522
-0.0990888
-0.0994637
-0.0822194
-0.0803837
-0.0628857
-0.0609827
-0.0420315
-0.0419584
-0.0207072
-0.0239699
-0.0076038
-0.0580917
-0.126298
-0.0701697
-0.134687
-0.0822643
-0.141275
-0.0937705
-0.145711
-0.104034
-0.147708
-0.112395
-0.147064
-0.118229
-0.143679
-0.120998
-0.137555
-0.120291
-0.128808
-0.115857
-0.11766
-0.107636
-0.104432
-0.0957702
-0.0895279
-0.0806077
-0.073421
-0.0626864
-0.0566282
-0.0427104
-0.0396877
-0.021511
-0.0231338
-0.00747211
-0.0549719
-0.105997
-0.0657726
-0.112815
-0.0765639
-0.118246
-0.0868466
-0.122021
-0.0960789
-0.123911
-0.103706
-0.123744
-0.109192
-0.121415
-0.112055
-0.11689
-0.111902
-0.110212
-0.10845
-0.101503
-0.101562
-0.090958
-0.0912525
-0.0788384
-0.0777001
-0.0654641
-0.061246
-0.0512001
-0.0423808
-0.036442
-0.0217251
-0.0216
-0.00708222
-0.0520878
-0.0876437
-0.0616572
-0.0931082
-0.0711883
-0.097517
-0.0802717
-0.100664
-0.0884608
-0.102372
-0.095293
-0.102496
-0.100312
-0.100936
-0.103095
-0.0976402
-0.103273
-0.0926082
-0.100558
-0.0858941
-0.0947612
-0.0776051
-0.0858091
-0.0678995
-0.0737534
-0.0569819
-0.0587764
-0.0450963
-0.0411883
-0.0325185
-0.0214184
-0.0195467
-0.00649045
-0.0492475
-0.0712681
-0.0576495
-0.0755793
-0.0659853
-0.0790959
-0.0739205
-0.0816639
-0.0810892
-0.0831452
-0.0871079
-0.0834232
-0.091592
-0.0824086
-0.0941732
-0.0800428
-0.0945176
-0.0763017
-0.0923433
-0.0711975
-0.0874362
-0.0647797
-0.0796645
-0.0571342
-0.0689889
-0.0483821
-0.0554705
-0.0386766
-0.0392731
-0.0281984
-0.0206626
-0.0171515
-0.00575623
-0.0462804
-0.0568485
-0.053589
-0.060187
-0.0608073
-0.0629358
-0.0676634
-0.0649811
-0.0738588
-0.0662179
-0.0790777
-0.0665541
-0.0829982
-0.065914
-0.0853045
-0.0642408
-0.0856995
-0.0614996
-0.083918
-0.0576791
-0.079739
-0.0527929
-0.0729971
-0.0468796
-0.0635921
-0.0400032
-0.0514976
-0.0322512
-0.0367652
-0.0237336
-0.0195281
-0.0145803
-0.0049376
-0.0430482
-0.0443227
-0.0493411
-0.0468503
-0.0555255
-0.0489475
-0.0613813
-0.0505317
-0.066666
-0.0515249
-0.0711215
-0.0518563
-0.0744805
-0.0514645
-0.0764754
-0.0502991
-0.0768469
-0.0483234
-0.0753532
-0.0455149
-0.0717791
-0.0418672
-0.065945
-0.0373904
-0.0577148
-0.0321113
-0.0470032
-0.0260739
-0.0337816
-0.0193382
-0.0180821
-0.0119796
-0.00408769
-0.0394516
-0.0336001
-0.0448054
-0.0354605
-0.0500394
-0.0370131
-0.0549764
-0.0381997
-0.0594211
-0.0389638
-0.0631635
-0.0392527
-0.0659842
-0.0390188
-0.0676593
-0.0382206
-0.0679665
-0.0368244
-0.0666912
-0.034805
-0.0636331
-0.032147
-0.058613
-0.0288449
-0.0514782
-0.0249043
-0.0421094
-0.0203417
-0.030425
-0.0151847
-0.0163861
-0.00947194
-0.00325238
-0.0354319
-0.024573
-0.0399179
-0.0258922
-0.0442805
-0.0269978
-0.0483782
-0.0278495
-0.0520549
-0.0284081
-0.0551417
-0.0286359
-0.0574606
-0.0284977
-0.0588269
-0.0279615
-0.0590538
-0.0269996
-0.057956
-0.0255889
-0.0553541
-0.0237118
-0.0510794
-0.0213566
-0.0449782
-0.0185182
-0.0369163
-0.015198
-0.0267828
-0.0114048
-0.0144948
-0.00715425
-0.00246914
-0.0309678
-0.0171257
-0.0346501
-0.0180146
-0.0382129
-0.0187609
-0.0415447
-0.0193383
-0.0445223
-0.0197206
-0.0470123
-0.0198823
-0.0488722
-0.0197991
-0.0499529
-0.0194479
-0.050101
-0.0188081
-0.049161
-0.017861
-0.0469783
-0.0165912
-0.0434022
-0.0149863
-0.0382889
-0.0130375
-0.0315045
-0.0107398
-0.0229283
-0.0080925
-0.0124554
-0.00509892
-0.00176685
-0.0260703
-0.0111439
-0.0290042
-0.0116996
-0.0318295
-0.0121656
-0.0344602
-0.0125257
-0.0368015
-0.012764
-0.0387501
-0.0128644
-0.0401952
-0.0128113
-0.0410197
-0.0125897
-0.0411014
-0.0121857
-0.0403144
-0.0115861
-0.0385311
-0.0107794
-0.0356238
-0.00975572
-0.0314666
-0.00850669
-0.0259375
-0.00702616
-0.0189204
-0.00531006
-0.0103073
-0.00335664
-0.00116654
-0.0207759
-0.00652181
-0.0230073
-0.00682983
-0.0251471
-0.00708651
-0.0271316
-0.00728318
-0.0288907
-0.007411
-0.0303475
-0.00746112
-0.0314193
-0.00742476
-0.0320182
-0.00729339
-0.0320512
-0.00705879
-0.0314217
-0.00671318
-0.0300301
-0.00624939
-0.0277747
-0.00566092
-0.0245533
-0.00494206
-0.0202637
-0.00408802
-0.0148058
-0.00309502
-0.0080822
-0.00196036
-0.000682515
-0.015139
-0.0031681
-0.0167044
-0.00330486
-0.0182003
-0.00341697
-0.019583
-0.00350062
-0.0208039
-0.00355194
-0.0218104
-0.00356701
-0.0225451
-0.00354193
-0.0229468
-0.00347284
-0.0229505
-0.003356
-0.0224879
-0.00318781
-0.0214877
-0.00296486
-0.0198765
-0.00268401
-0.017579
-0.00234239
-0.014519
-0.00193749
-0.0106198
-0.00146716
-0.00580514
-0.000929676
-0.000323782
-0.00922615
-0.00101067
-0.0101528
-0.00104607
-0.0110359
-0.00107356
-0.0118499
-0.00109215
-0.0125666
-0.00110087
-0.0131549
-0.00109872
-0.0135814
-0.00108469
-0.0138099
-0.00105782
-0.013802
-0.00101713
-0.0135171
-0.000961694
-0.0129124
-0.000890643
-0.0119437
-0.000803147
-0.010565
-0.000698449
-0.00872938
-0.000575871
-0.00638886
-0.000434824
-0.00349519
-0.00027482
-9.54764e-05
-0.00311034
-7.2778e-19
-0.00341647
-5.77148e-19
-0.0037077
-6.18567e-19
-0.00397564
-6.01928e-19
-0.004211
-4.68518e-19
-0.00440361
-4.45918e-19
-0.00454243
-4.24356e-19
-0.00461556
-3.18058e-19
-0.00461031
-2.21281e-19
-0.0045132
-1.57861e-19
-0.00431004
-8.92247e-20
-0.00398603
-8.96831e-20
-0.00352576
-1.11465e-19
-0.00291338
-7.81296e-20
-0.00213266
-3.98945e-20
-0.00116708
-1.59917e-20
-3.20009e-21
0.00313258
-0.000111221
0.00343737
-0.00014048
0.0037271
-0.000169307
0.0039934
-0.000196872
0.00422701
-0.000222307
0.00441781
-0.000244718
0.00455478
-0.000263189
0.00462606
-0.000276796
0.004619
-0.000284618
0.00452015
-0.000285747
0.00431537
-0.000279298
0.00398987
-0.000264423
0.00352832
-0.00024032
0.00291487
-0.000206243
0.00213334
-0.000161515
0.00116726
-0.000105537
-3.77976e-05
0.0094268
-0.00134473
0.0103414
-0.00146933
0.0112109
-0.00158452
0.0120101
-0.00168679
0.012711
-0.00177248
0.0132829
-0.00183786
0.0136926
-0.00187918
0.0139044
-0.00189266
0.0138802
-0.00187461
0.0135796
-0.00182144
0.0129603
-0.00172971
0.0119783
-0.00159617
0.010588
-0.00141783
0.00874278
-0.00119198
0.00639503
-0.00091626
0.00349679
-0.000588676
-0.000207649
0.0156989
-0.0037256
0.0172306
-0.00401569
0.0186884
-0.00427805
0.0200295
-0.00450438
0.0212063
-0.00468615
0.0221669
-0.00481474
0.0228548
-0.00488154
0.0232099
-0.00487808
0.023168
-0.00479613
0.0226617
-0.00462787
0.0216207
-0.00436593
0.0199725
-0.00400359
0.0176428
-0.00353484
0.0145562
-0.00295449
0.0106369
-0.00225828
0.00580954
-0.00144298
-0.00050645
0.0218804
-0.00730159
0.0240449
-0.00783411
0.0261092
-0.00830966
0.0280114
-0.00871272
0.0296829
-0.0090275
0.0310489
-0.00923826
0.0320283
-0.00932948
0.0325351
-0.00928618
0.0324781
-0.00909411
0.0317625
-0.00874004
0.0302906
-0.008212
0.0279626
-0.00749944
0.0246778
-0.00659354
0.0203362
-0.00548733
0.014839
-0.00417586
0.00809077
-0.0026564
-0.000928521
0.0279111
-0.01214
0.0307326
-0.0130013
0.0334311
-0.013763
0.0359237
-0.0143996
0.0381184
-0.0148852
0.0399149
-0.0151944
0.0412055
-0.0153027
0.0418762
-0.0151871
0.0418078
-0.014826
0.0408776
-0.0142006
0.038961
-0.0132943
0.0359333
-0.0120939
0.0316715
-0.0105894
0.0260565
-0.00877445
0.0189749
-0.00664682
0.0103213
-0.00420819
-0.00146453
0.0337433
-0.0183234
0.0372545
-0.0196114
0.0406245
-0.020741
0.0437463
-0.0216724
0.0465013
-0.0223667
0.0487607
-0.0227859
0.0503866
-0.0228945
0.0512349
-0.0226598
0.0511567
-0.0220532
0.0500012
-0.0210504
0.0476184
-0.0196321
0.0438621
-0.0177851
0.0385927
-0.0155022
0.0316806
-0.0127826
0.0230087
-0.00963258
0.012476
-0.00606511
-0.00210016
0.0393471
-0.0259435
0.0435891
-0.0277706
0.0476769
-0.0293594
0.0514756
-0.0306516
0.0548355
-0.0315909
0.0575948
-0.0321239
0.059582
-0.0322021
0.0606195
-0.0317827
0.0605271
-0.0308302
0.059126
-0.0293174
0.0562434
-0.0272261
0.0517168
-0.0245482
0.0453982
-0.021286
0.0371589
-0.0174525
0.0268934
-0.0130715
0.0145231
-0.00817736
-0.00281484
0.0447168
-0.0350953
0.0497383
-0.0375899
0.0545983
-0.0397398
0.0591285
-0.0414625
0.063143
-0.0426794
0.0664413
-0.0433184
0.0688135
-0.0433164
0.0700449
-0.0426207
0.0699225
-0.0411916
0.0682406
-0.0390031
0.0648076
-0.0360449
0.0594521
-0.0323225
0.0520294
-0.027858
0.0424267
-0.0226898
0.030569
-0.0168723
0.0164228
-0.0104748
-0.00358057
0.049876
-0.0458684
0.0557321
-0.0491768
0.0614247
-0.0520007
0.0667462
-0.0542258
0.0714667
-0.0557458
0.0753409
-0.0564665
0.0781142
-0.056309
0.0795315
-0.0552127
0.0793457
-0.0531381
0.0773265
-0.0500686
0.0732699
-0.0460115
0.0670063
-0.040999
0.0584091
-0.0350875
0.0474014
-0.028357
0.0339615
-0.020909
0.0181277
-0.0128646
-0.00436142
0.0548823
-0.0583382
0.0616321
-0.0626258
0.0682213
-0.0662471
0.0743946
-0.0690469
0.07987
-0.0708844
0.0843488
-0.0716397
0.0875257
-0.0712184
0.0891011
-0.069556
0.0887936
-0.0666216
0.0863527
-0.0624192
0.0815711
-0.0569893
0.0742958
-0.0504083
0.0644379
-0.0427868
0.0519801
-0.0342667
0.0369821
-0.0250172
0.0195828
-0.0152302
-0.00511371
0.0598285
-0.0725562
0.0675318
-0.0780082
0.0750807
-0.0825601
0.0821625
-0.0860039
0.0884329
-0.0881567
0.0935304
-0.0888698
0.0970917
-0.0880351
0.0987693
-0.0855917
0.0982489
-0.0815294
0.0952669
-0.0758904
0.089626
-0.0687694
0.081209
-0.0603107
0.0699891
-0.0507044
0.0560377
-0.0401791
0.0395264
-0.0289947
0.0207259
-0.017433
-0.00578723
0.0648407
-0.088539
0.073553
-0.0953606
0.0821184
-0.100984
0.090155
-0.105135
0.0972443
-0.107578
0.102951
-0.108135
0.106848
-0.106687
0.108535
-0.103189
0.10767
-0.0976706
0.103986
-0.0902354
0.097315
-0.0810608
0.0875994
-0.0703899
0.0749052
-0.0585226
0.059425
-0.0458028
0.0414756
-0.0326049
0.0214897
-0.0193175
-0.00632766
0.0700706
-0.106257
0.0798376
-0.114673
0.0894629
-0.121515
0.0984825
-0.126424
0.10639
-0.129105
0.112665
-0.129344
0.116807
-0.127025
0.118365
-0.122133
0.116975
-0.114763
0.112384
-0.105115
0.104474
-0.0934843
0.093279
-0.0802508
0.0789936
-0.06586
0.0619679
-0.0508014
0.0426975
-0.0355854
0.0218028
-0.0207187
-0.00668003
0.0756842
-0.125624
0.086534
-0.135876
0.0972415
-0.144086
0.107245
-0.14979
0.115936
-0.152618
0.122696
-0.152326
0.126945
-0.148809
0.128183
-0.14211
0.126033
-0.132426
0.120278
-0.120092
0.110883
-0.105571
0.0980118
-0.0894237
0.0820249
-0.0722802
0.063469
-0.0548054
0.0430497
-0.0376615
0.0215932
-0.021473
-0.00679317
0.0818444
-0.146486
0.0937803
-0.158831
0.105562
-0.168559
0.116515
-0.175073
0.125911
-0.177917
0.133021
-0.176817
0.13718
-0.171701
0.137845
-0.162705
0.134643
-0.150172
0.127422
-0.134632
0.116266
-0.116768
0.101512
-0.0973743
0.0837337
-0.0773068
0.0637109
-0.0574299
0.0423839
-0.0385631
0.0207911
-0.0214314
-0.00662472
0.0886918
-0.168611
0.101684
-0.183321
0.114494
-0.194713
0.126317
-0.202026
0.136286
-0.204704
0.143552
-0.202452
0.147361
-0.195254
0.147134
-0.18339
0.142529
-0.167411
0.133493
-0.148107
0.120279
-0.126449
0.103446
-0.103521
0.083824
-0.0804444
0.0624633
-0.0582977
0.0405529
-0.038045
0.0193331
-0.0204734
-0.00614607
0.0963225
-0.191688
0.110301
-0.209041
0.124047
-0.222236
0.136606
-0.230308
0.146958
-0.232586
0.15412
-0.22876
0.157249
-0.218918
0.155747
-0.203537
0.149333
-0.183457
0.1381
-0.159811
0.122523
-0.133934
0.103437
-0.10726
0.0819792
-0.0812058
0.0594936
-0.0570646
0.0374193
-0.0359092
0.017167
-0.0185212
-0.00534671
0.104768
-0.215318
0.119617
-0.235596
0.134154
-0.250724
0.147259
-0.259483
0.15774
-0.261066
0.164468
-0.255172
0.166519
-0.242035
0.163295
-0.222417
0.154619
-0.197539
0.140783
-0.168976
0.122548
-0.138514
0.101086
-0.107991
0.0778788
-0.0791422
0.0545822
-0.053448
0.0328659
-0.0320252
0.014257
-0.0155507
-0.0042371
0.113977
-0.239021
0.129533
-0.262507
0.144663
-0.279683
0.158062
-0.28902
0.168351
-0.289557
0.174249
-0.281019
0.174757
-0.26386
0.16931
-0.239222
0.157883
-0.208826
0.141036
-0.174804
0.119882
-0.139482
0.0959889
-0.105157
0.07122
-0.0738759
0.0475404
-0.0472539
0.026809
-0.0263483
0.0105888
-0.0116
-0.00284953
0.123808
-0.262241
0.139859
-0.289208
0.155327
-0.308534
0.168711
-0.318306
0.178426
-0.317385
0.183036
-0.305556
0.181482
-0.283573
0.173268
-0.253084
0.158584
-0.216451
0.138333
-0.176493
0.114055
-0.136171
0.0877702
-0.0982744
0.0617452
-0.0651328
0.0382323
-0.0384003
0.0192108
-0.0189324
0.00617508
-0.0067712
-0.00123648
-0.303386
0.146876
0.303523
-0.300933
0.131394
-0.296152
0.113282
-0.289087
0.0931261
-0.279831
0.0716175
-0.268525
0.0495123
-0.255345
0.0275941
-0.240497
0.00663317
-0.224208
-0.0126507
-0.206711
-0.0296202
-0.188244
-0.0437451
-0.169034
-0.0546184
-0.149294
-0.061965
-0.129218
-0.0656413
-0.108976
-0.0656301
-0.0887146
-0.0620298
-0.0685544
-0.0550411
-0.0485923
-0.0449528
-0.0289033
-0.0321271
-0.00954341
-0.0169863
0.00944707
0
0.0280402
0.0183255
0.0462166
0.0374586
0.0639623
0.0568528
0.0812653
0.0759592
0.0981127
0.0942394
0.114488
0.111181
0.13037
0.126316
0.145727
0.139236
0.16052
0.149612
0.174699
0.157214
0.188199
0.161919
0.200944
0.163721
0.212843
0.162738
0.22379
0.159196
0.233668
0.153428
0.242345
0.145842
0.249683
0.136901
0.255539
0.127093
0.25977
0.116894
0.106745
-0.273142
0.139399
0.271187
-0.27285
0.124448
-0.270279
0.106798
-0.265449
0.0870522
-0.258435
0.0659182
-0.249355
0.0441698
-0.238368
0.0226057
-0.225658
0.00200842
-0.211432
-0.0168944
-0.195906
-0.0334618
-0.179296
-0.0471643
-0.16181
-0.0575993
-0.143645
-0.0644994
-0.124977
-0.0677308
-0.105961
-0.067288
-0.0867311
-0.0632814
-0.067396
-0.0559239
-0.048044
-0.0455161
-0.0287436
-0.0324306
-0.00954691
-0.0170993
0.00950724
-4.83214e-15
0.0283895