/*--------------------------------*- C++ -*----------------------------------*\
  =========                 |
  \\      /  F ield         | OpenFOAM: The Open Source CFD Toolbox
   \\    /   O peration     | Website:  https://openfoam.org
    \\  /    A nd           | Version:  6
     \\/     M anipulation  |
\*---------------------------------------------------------------------------*/
FoamFile
{
    version     2.0;
    format      ascii;
    class       volScalarField;
    location    "1.95";
    object      p;
}
// * * * * * * * * * * * * * * * * * * * * * * * * * * * * * * * * * * * * * //

dimensions      [1 -1 -2 0 0 0 0];

internalField   nonuniform List<scalar> 
5625
(
1
1
1
1
1
1
1
1
1
1
1
1
1
1
1
1
1
1
1
1
1
1
1
1
1
1
1
1
1
1
1
1
1
1
1
1
1
1
1
1
1
1
1
1
1
1
1
1
1
1
1
1
1
1
1
1
1
1
1
1
1
1
1
1
1
1
1
1
1
1
1
1
1
1
1
1
1
1
1
1
1
1
1
1
1
1
1
1
1
1
1
1
1
1
1
1
1
1
1
1
1
1
1
1
1
1
1
1
1
1
1
1
1
1
1
1
1
1
1
1
1
1
1
1
1
1
1
1
1
1
1
1
1
1
1
1
1
1
1
1
1
1
1
1
1
1
1
1
1
1
1
1
1
1
1
1
1
1
1
1
1
1
1
1
1
1
1
1
1
1
1
1
1
1
1
1
1
1
1
1
1
1
1
1
1
1
1
1
1
1
1
1
1
1
1
1
1
1
1
1
1
1
1
1
1
1
1
1
1
1
1
1
1
1
1
1
1
1
1
1
1
1
1
1
1
1
1
1
1
1
0.999999
0.999999
1
1
1
1
1
1
1
1
1
1
1
1
1
1
1
1
1
1
1
1
1
1
1
1
1
1
1
1
1
1
1
1
1
1
1
1
1
1
1
1
1
1
1
1
1
1
1
1
1
1
1
1
1
1
1
1
1
1
1
1
1
1
1
1
1
1
1
1
1
1
0.999999
0.999999
1
1
0.999999
1
1
1
1
1
1
1
1
1
1
1
1
1
1
1
1
1
1
1
1
1
1
1
1
1
1
1
1
1
1
1
1
1
1
1
1
1
1
1
1
1
1
1
1
1
1
1
1
1
1
1
1
1
1
1
1
1
1
1
1
1
1
1
1
1
1
1
1
1
0.999999
0.999999
0.999999
0.999999
0.999999
0.999999
0.999999
0.999999
0.999999
1
1
1
1
1
1
1
1
1
1
1
1
1
1
1
1
1
1
1
1
1
1
1
1
1
1
1
1
1
1
1
1
1
1
1
1
1
1
1
1
1
1
1
1
1
1
1
1
1
1
1
1
1
1
1
1
1
1
1
1
1
1
1
1
1
0.999999
0.999999
0.999999
0.999999
0.999999
0.999999
0.999999
0.999999
0.999999
0.999999
1
1
1
1
1
1
1
1
1
1
1
1
1
1
1
1
1
1
1
1
1
1
1
1
1
1
1
1
1
1
1
1
1
1
1
1
1
1
1
1
1
1
1
1
1
1
1
1
1
1
1
1
1
1
1
1
1
1
1
1
1
1
1
1
1
0.999999
0.999999
0.999998
0.999998
0.999998
0.999999
0.999998
0.999999
0.999999
0.999999
0.999999
1
1
1
1
1
1
1
1
1
1
1
1
1
1
1
1
1
1
1
1
1
1
1
1
1
1
1
1
1
1
1
1
1
1
1
1
1
1
1
1
1
1
1
1
1
1
1
1
1
1
1
1
1
1
1
1
1
1
1
1
1
1
1
1
0.999998
0.999998
0.999998
0.999998
0.999998
0.999998
0.999998
0.999998
0.999998
0.999998
0.999999
0.999999
1
1
1
1
1
1
1
1
1
1
1
1
1
1
1
1
1
1
1
1
1
1
1
1
1
1
1
1
1
1
1
1
1
1
1
1
1
1
1
1
1
1
1
1
1
1
1
1
1
1
1
1
1
1
1
1
1
1
1
1
1
1
1
0.999997
0.999997
0.999997
0.999997
0.999997
0.999997
0.999997
0.999997
0.999997
0.999998
0.999998
0.999999
1
1
1
1
1
1
1
1
1
1
1
1
1
1
1
1
1
1
1
1
1
1
1
1
1
1
1
1
1
1
1
1
1
1
1
1
1
1
1
1
1
1
1
1
1
1
1
1
1
1
1
1
1
1
1
1
1
1
1
1
1
1
1
0.999996
0.999996
0.999996
0.999996
0.999995
0.999995
0.999996
0.999996
0.999997
0.999997
0.999998
0.999999
1
1
1
1
1
1
1
1
1
1
1
1
1
1
1
1
1
1
1
1
1
1
1
1
1
1
1
1
1
1
1
1
1
1
1
1
1
1
1
1
1
1
1
1
1
1
1
1
1
1
1
1
1
1
1
1
1
1
1
1
1
1
1
0.999995
0.999994
0.999994
0.999994
0.999994
0.999994
0.999994
0.999995
0.999995
0.999996
0.999997
0.999999
1
1
1
1
1
1.00001
1.00001
1.00001
1.00001
1.00001
1.00001
1.00001
1.00001
1.00001
1
1
1
1
1
1
1
1
1
1
1
1
1
1
1
1
1
1
1
1
1
1
1
1
1
1
1
1
1
1
1
1
1
1
1
1
1
1
1
1
1
1
1
1
1
1
1
1
1
0.999993
0.999992
0.999992
0.999991
0.999992
0.999992
0.999992
0.999993
0.999994
0.999995
0.999996
0.999998
1
1
1
1
1.00001
1.00001
1.00001
1.00001
1.00001
1.00001
1.00001
1.00001
1.00001
1.00001
1.00001
1.00001
1
1
1
1
1
1
1
1
1
1
1
1
1
1
1
1
1
1
1
1
1
1
1
1
1
1
1
1
1
1
1
1
1
1
1
1
1
1
1
1
1
1
1
1
1
1
1
0.99999
0.99999
0.999989
0.999988
0.999988
0.999989
0.999989
0.99999
0.999991
0.999993
0.999995
0.999997
1
1
1
1.00001
1.00001
1.00001
1.00001
1.00001
1.00001
1.00001
1.00001
1.00001
1.00001
1.00001
1.00001
1.00001
1.00001
1
1
1
1
1
1
1
1
1
1
1
1
1
1
1
1
1
1
1
1
1
1
1
1
1
1
1
1
1
1
1
1
1
1
1
1
1
1
1
1
1
1
1
1
1
1
0.999988
0.999986
0.999985
0.999985
0.999985
0.999985
0.999986
0.999987
0.999989
0.999991
0.999994
0.999997
1
1
1.00001
1.00001
1.00001
1.00001
1.00001
1.00002
1.00002
1.00002
1.00002
1.00001
1.00001
1.00001
1.00001
1.00001
1.00001
1.00001
1.00001
1
1
1
1
1
1
1
1
1
1
1
1
1
1
1
1
1
1
1
1
1
1
1
1
1
1
1
1
1
1
1
1
1
1
1
1
1
1
1
1
1
1
1
1
0.999984
0.999982
0.999981
0.99998
0.99998
0.99998
0.999982
0.999983
0.999985
0.999989
0.999993
0.999996
1
1
1.00001
1.00001
1.00002
1.00002
1.00002
1.00002
1.00002
1.00002
1.00002
1.00002
1.00002
1.00002
1.00001
1.00001
1.00001
1.00001
1.00001
1.00001
1
1
1
1
1
1
1
1
1
1
1
1
1
1
1
1
1
1
1
1
1
1
1
1
1
1
1
1
1
1
1
1
1
1
1
1
1
1
1
1
1
1
1
0.999979
0.999977
0.999975
0.999974
0.999974
0.999975
0.999977
0.999979
0.999982
0.999986
0.999992
0.999997
1
1.00001
1.00001
1.00002
1.00002
1.00002
1.00003
1.00003
1.00003
1.00003
1.00003
1.00003
1.00002
1.00002
1.00002
1.00002
1.00001
1.00001
1.00001
1.00001
1.00001
1
1
1
1
1
1
1
1
1
1
1
1
1
1
1
1
1
1
1
1
1
1
1
1
1
1
1
1
1
1
1
1
1
1
1
1
1
1
1
1
1
1
0.999973
0.99997
0.999968
0.999967
0.999967
0.999969
0.999971
0.999975
0.999979
0.999984
0.999991
0.999998
1
1.00001
1.00002
1.00002
1.00003
1.00003
1.00004
1.00004
1.00004
1.00004
1.00004
1.00003
1.00003
1.00003
1.00003
1.00002
1.00002
1.00002
1.00001
1.00001
1.00001
1.00001
1
1
1
1
1
1
1
1
1
1
1
1
1
1
1
1
1
1
1
1
1
1
1
1
1
1
1
1
1
1
1
1
1
1
1
1
1
1
1
1
1
0.999965
0.999962
0.99996
0.99996
0.99996
0.999962
0.999965
0.99997
0.999976
0.999983
0.999991
1
1.00001
1.00002
1.00003
1.00003
1.00004
1.00005
1.00005
1.00005
1.00005
1.00005
1.00005
1.00005
1.00004
1.00004
1.00003
1.00003
1.00002
1.00002
1.00002
1.00001
1.00001
1.00001
1.00001
1
1
1
1
1
1
1
1
1
1
1
1
1
1
1
1
1
1
1
1
1
1
1
1
1
1
1
1
1
1
1
1
1
1
1
1
1
1
1
1
0.999957
0.999954
0.999952
0.999951
0.999952
0.999955
0.99996
0.999967
0.999975
0.999984
0.999995
1.00001
1.00002
1.00003
1.00004
1.00005
1.00006
1.00006
1.00007
1.00007
1.00007
1.00007
1.00006
1.00006
1.00005
1.00005
1.00004
1.00004
1.00003
1.00003
1.00002
1.00002
1.00001
1.00001
1.00001
1
1
1
1
1
1
1
1
1
1
1
1
1
1
1
1
1
1
1
1
1
1
1
1
1
1
1
1
1
1
1
1
1
1
1
1
1
1
1
1
0.999949
0.999945
0.999943
0.999943
0.999945
0.99995
0.999957
0.999966
0.999977
0.999989
1
1.00002
1.00003
1.00005
1.00006
1.00007
1.00008
1.00009
1.00009
1.00009
1.00009
1.00009
1.00008
1.00008
1.00007
1.00006
1.00005
1.00005
1.00004
1.00003
1.00003
1.00002
1.00002
1.00001
1.00001
1.00001
1
1
1
1
1
1
1
1
1
1
1
1
1
1
1
1
1
1
1
1
1
1
1
1
1
1
1
1
1
1
1
1
1
1
1
1
1
1
1
0.99994
0.999936
0.999935
0.999936
0.99994
0.999947
0.999957
0.99997
0.999985
1
1.00002
1.00004
1.00006
1.00007
1.00009
1.0001
1.00011
1.00012
1.00012
1.00012
1.00012
1.00012
1.00011
1.0001
1.00009
1.00008
1.00007
1.00006
1.00005
1.00004
1.00003
1.00003
1.00002
1.00001
1.00001
1.00001
1
1
1
1
1
1
0.999999
0.999999
1
1
1
1
1
1
1
1
1
1
1
1
1
1
1
1
1
1
1
1
1
1
1
1
1
1
1
1
1
1
1
0.999932
0.999929
0.999929
0.999933
0.99994
0.999952
0.999967
0.999984
1.00001
1.00003
1.00005
1.00007
1.0001
1.00012
1.00013
1.00015
1.00016
1.00017
1.00017
1.00017
1.00016
1.00015
1.00014
1.00013
1.00012
1.0001
1.00009
1.00008
1.00006
1.00005
1.00004
1.00003
1.00002
1.00002
1.00001
1.00001
1
1
1
1
1
0.999999
0.999999
0.999999
0.999999
0.999999
1
1
1
1
1
1
1
1
1
1
1
1
1
1
1
1
1
1
1
1
1
1
1
1
1
1
1
1
1
0.999926
0.999925
0.999929
0.999937
0.99995
0.999967
0.999989
1.00001
1.00004
1.00007
1.0001
1.00013
1.00016
1.00019
1.00021
1.00022
1.00023
1.00023
1.00023
1.00023
1.00022
1.00021
1.00019
1.00017
1.00015
1.00013
1.00011
1.0001
1.00008
1.00006
1.00005
1.00004
1.00003
1.00002
1.00001
1.00001
1.00001
1
1
1
0.999999
0.999999
0.999999
0.999999
0.999999
0.999999
0.999999
0.999999
1
1
1
1
1
1
1
1
1
1
1
1
1
1
1
1
1
1
1
1
1
1
1
1
1
1
1
0.999926
0.999929
0.999938
0.999953
0.999975
1
1.00003
1.00007
1.00011
1.00015
1.00019
1.00023
1.00026
1.00029
1.00031
1.00033
1.00034
1.00034
1.00033
1.00032
1.0003
1.00028
1.00025
1.00023
1.0002
1.00017
1.00015
1.00012
1.0001
1.00008
1.00006
1.00005
1.00003
1.00002
1.00002
1.00001
1.00001
1
1
0.999999
0.999999
0.999998
0.999998
0.999998
0.999999
0.999999
0.999999
0.999999
0.999999
1
1
1
1
1
1
1
1
1
1
1
1
1
1
1
1
1
1
1
1
1
1
1
1
1
1
0.999935
0.999945
0.999964
0.99999
1.00002
1.00007
1.00011
1.00017
1.00022
1.00027
1.00033
1.00038
1.00042
1.00045
1.00047
1.00049
1.00049
1.00048
1.00047
1.00044
1.00041
1.00038
1.00034
1.0003
1.00026
1.00023
1.00019
1.00016
1.00013
1.0001
1.00008
1.00006
1.00004
1.00003
1.00002
1.00001
1.00001
1
1
0.999998
0.999998
0.999997
0.999997
0.999998
0.999998
0.999998
0.999999
0.999999
0.999999
0.999999
1
1
1
1
1
1
1
1
1
1
1
1
1
1
1
1
1
1
1
1
1
1
1
1
1
0.999959
0.999982
1.00001
1.00006
1.00011
1.00017
1.00024
1.00032
1.00039
1.00047
1.00054
1.0006
1.00065
1.00069
1.00071
1.00072
1.00072
1.0007
1.00066
1.00062
1.00058
1.00052
1.00046
1.00041
1.00035
1.0003
1.00025
1.0002
1.00016
1.00013
1.0001
1.00007
1.00005
1.00004
1.00002
1.00001
1.00001
1
0.999999
0.999997
0.999996
0.999996
0.999996
0.999997
0.999997
0.999998
0.999998
0.999999
0.999999
0.999999
0.999999
1
1
1
1
1
1
1
1
1
1
1
1
1
1
1
1
1
1
1
1
1
1
1
1
1.00001
1.00005
1.0001
1.00017
1.00026
1.00035
1.00045
1.00056
1.00066
1.00076
1.00086
1.00093
1.001
1.00104
1.00106
1.00106
1.00104
1.001
1.00095
1.00088
1.0008
1.00072
1.00064
1.00055
1.00047
1.00039
1.00032
1.00026
1.00021
1.00016
1.00012
1.00009
1.00006
1.00004
1.00003
1.00001
1.00001
1
0.999997
0.999995
0.999994
0.999994
0.999995
0.999995
0.999996
0.999997
0.999997
0.999998
0.999999
0.999999
0.999999
1
1
1
1
1
1
1
1
1
1
1
1
1
1
1
1
1
1
1
1
1
1
1
1
1.00009
1.00016
1.00025
1.00036
1.00048
1.00062
1.00076
1.00091
1.00106
1.0012
1.00132
1.00142
1.0015
1.00154
1.00156
1.00155
1.0015
1.00144
1.00135
1.00124
1.00112
1.001
1.00087
1.00075
1.00064
1.00053
1.00043
1.00034
1.00027
1.00021
1.00015
1.00011
1.00008
1.00005
1.00003
1.00002
1.00001
0.999999
0.999995
0.999993
0.999992
0.999992
0.999993
0.999994
0.999995
0.999996
0.999997
0.999997
0.999998
0.999999
0.999999
0.999999
1
1
1
1
1
1
1
1
1
1
1
1
1
1
1
1
1
1
1
1
1
1
1
1.00023
1.00034
1.00048
1.00064
1.00082
1.00102
1.00122
1.00143
1.00164
1.00182
1.00198
1.00211
1.00221
1.00226
1.00227
1.00223
1.00216
1.00205
1.00191
1.00175
1.00157
1.00139
1.00121
1.00103
1.00086
1.00071
1.00057
1.00045
1.00035
1.00027
1.0002
1.00014
1.0001
1.00006
1.00004
1.00002
1.00001
0.999997
0.999993
0.99999
0.999989
0.99999
0.999991
0.999992
0.999993
0.999995
0.999996
0.999997
0.999998
0.999998
0.999999
0.999999
0.999999
1
1
1
1
1
1
1
1
1
1
1
1
1
1
1
1
1
1
1
1
1
1
1.00044
1.00061
1.00081
1.00105
1.00131
1.00159
1.00188
1.00217
1.00245
1.0027
1.00291
1.00308
1.00319
1.00325
1.00324
1.00318
1.00306
1.00289
1.00268
1.00245
1.00219
1.00193
1.00166
1.00141
1.00118
1.00096
1.00077
1.00061
1.00047
1.00035
1.00026
1.00018
1.00012
1.00008
1.00004
1.00002
1.00001
0.999995
0.999989
0.999986
0.999986
0.999986
0.999988
0.999989
0.999991
0.999993
0.999995
0.999996
0.999997
0.999998
0.999998
0.999999
0.999999
0.999999
1
1
1
1
1
1
1
1
1
1
1
1
1
1
1
1
1
1
1
1
1
1.00074
1.001
1.0013
1.00164
1.00201
1.0024
1.00281
1.0032
1.00357
1.0039
1.00418
1.0044
1.00454
1.0046
1.00457
1.00447
1.00429
1.00404
1.00374
1.0034
1.00304
1.00266
1.00229
1.00194
1.00161
1.00131
1.00104
1.00081
1.00062
1.00046
1.00034
1.00023
1.00016
1.0001
1.00006
1.00003
1
0.999992
0.999985
0.999981
0.999981
0.999982
0.999984
0.999986
0.999989
0.999991
0.999993
0.999995
0.999996
0.999997
0.999998
0.999999
0.999999
0.999999
1
1
1
1
1
1
1
1
1
1
1
1
1
1
1
1
1
1
1
1
1
1.00119
1.00155
1.00198
1.00246
1.00297
1.00351
1.00406
1.00459
1.00508
1.00552
1.00588
1.00616
1.00633
1.00639
1.00634
1.00618
1.00592
1.00558
1.00516
1.00468
1.00418
1.00366
1.00314
1.00265
1.00219
1.00178
1.00141
1.0011
1.00083
1.00062
1.00045
1.00031
1.00021
1.00013
1.00007
1.00003
1.00001
0.999989
0.99998
0.999976
0.999975
0.999976
0.999979
0.999982
0.999985
0.999988
0.999991
0.999993
0.999995
0.999996
0.999997
0.999998
0.999999
0.999999
0.999999
1
1
1
1
1
1
1
1
1
1
1
1
1
1
1
1
1
1
1
1
1.0018
1.00232
1.00292
1.00357
1.00427
1.005
1.00573
1.00642
1.00707
1.00763
1.0081
1.00844
1.00865
1.00872
1.00864
1.00841
1.00806
1.00758
1.00701
1.00637
1.00568
1.00497
1.00427
1.0036
1.00297
1.00241
1.00191
1.00148
1.00112
1.00083
1.0006
1.00041
1.00027
1.00017
1.00009
1.00004
1.00001
0.999987
0.999975
0.999969
0.999968
0.99997
0.999973
0.999977
0.999981
0.999985
0.999988
0.999991
0.999993
0.999995
0.999997
0.999998
0.999998
0.999999
0.999999
1
1
1
1
1
1
1
1
1
1
1
1
1
1
1
1
1
1
1
1
1.00264
1.00336
1.00416
1.00505
1.00598
1.00694
1.00789
1.00879
1.00961
1.01033
1.01091
1.01134
1.01159
1.01167
1.01155
1.01125
1.01078
1.01015
1.0094
1.00855
1.00764
1.00669
1.00575
1.00485
1.00401
1.00325
1.00257
1.002
1.00151
1.00111
1.0008
1.00055
1.00037
1.00023
1.00013
1.00006
1.00001
0.999986
0.99997
0.999962
0.999961
0.999963
0.999967
0.999972
0.999977
0.999982
0.999986
0.999989
0.999992
0.999994
0.999996
0.999997
0.999998
0.999999
0.999999
0.999999
1
1
1
1
1
1
1
1
1
1
1
1
1
1
1
1
1
1
1
1.00375
1.00472
1.0058
1.00696
1.00818
1.00941
1.01062
1.01176
1.01279
1.01368
1.01439
1.01491
1.01522
1.01529
1.01514
1.01475
1.01416
1.01336
1.0124
1.0113
1.01012
1.00889
1.00766
1.00647
1.00536
1.00435
1.00345
1.00268
1.00203
1.0015
1.00107
1.00074
1.00049
1.00031
1.00018
1.00008
1.00002
0.999986
0.999965
0.999955
0.999953
0.999955
0.99996
0.999965
0.999971
0.999977
0.999982
0.999987
0.99999
0.999993
0.999995
0.999996
0.999997
0.999998
0.999999
0.999999
0.999999
1
1
1
1
1
1
1
1
1
1
1
1
1
1
1
1
1
1
1.0052
1.00647
1.00788
1.00938
1.01093
1.01247
1.01397
1.01537
1.01662
1.01769
1.01855
1.01916
1.01952
1.0196
1.01941
1.01895
1.01822
1.01724
1.01605
1.01469
1.0132
1.01164
1.01007
1.00853
1.00709
1.00576
1.00458
1.00356
1.0027
1.002
1.00144
1.001
1.00067
1.00042
1.00024
1.00012
1.00004
0.999991
0.999962
0.999948
0.999944
0.999946
0.999951
0.999958
0.999965
0.999972
0.999979
0.999984
0.999988
0.999991
0.999994
0.999996
0.999997
0.999998
0.999999
0.999999
0.999999
1
1
1
1
1
1
1
1
1
1
1
1
1
1
1
1
1
1
1.00704
1.00868
1.01047
1.01236
1.01427
1.01616
1.01796
1.01962
1.02109
1.02233
1.02331
1.02401
1.02442
1.02451
1.0243
1.02376
1.02292
1.02178
1.02037
1.01873
1.01691
1.01499
1.01303
1.01109
1.00925
1.00755
1.00602
1.0047
1.00358
1.00266
1.00191
1.00134
1.0009
1.00057
1.00034
1.00018
1.00007
1
0.999962
0.999942
0.999935
0.999937
0.999942
0.99995
0.999958
0.999967
0.999974
0.99998
0.999985
0.999989
0.999992
0.999995
0.999996
0.999998
0.999998
0.999999
0.999999
1
1
1
1
1
1
1
1
1
1
1
1
1
1
1
1
1
1
1.00932
1.0114
1.01362
1.01592
1.01822
1.02044
1.02253
1.02442
1.02607
1.02744
1.02851
1.02927
1.02971
1.02982
1.0296
1.02903
1.02811
1.02685
1.02526
1.02337
1.02125
1.01896
1.01658
1.0142
1.0119
1.00977
1.00783
1.00613
1.00469
1.00349
1.00253
1.00178
1.0012
1.00077
1.00047
1.00025
1.00011
1.00002
0.999966
0.999938
0.999927
0.999927
0.999933
0.999941
0.999951
0.99996
0.999969
0.999976
0.999982
0.999987
0.999991
0.999994
0.999996
0.999997
0.999998
0.999999
0.999999
0.999999
1
1
1
1
1
1
1
1
1
1
1
1
1
1
1
1
1
1.0121
1.01465
1.01733
1.02004
1.0227
1.02522
1.02753
1.02957
1.03131
1.03273
1.03382
1.03459
1.03504
1.03517
1.03496
1.03441
1.03349
1.0322
1.03052
1.02848
1.02611
1.02349
1.0207
1.01787
1.01508
1.01245
1.01004
1.00791
1.00608
1.00455
1.00332
1.00234
1.0016
1.00104
1.00064
1.00036
1.00017
1.00005
0.999976
0.999937
0.99992
0.999917
0.999922
0.999932
0.999943
0.999954
0.999964
0.999972
0.999979
0.999985
0.999989
0.999992
0.999995
0.999997
0.999998
0.999998
0.999999
0.999999
1
1
1
1
1
1
1
1
1
1
1
1
1
1
1
1
1
1.01538
1.01843
1.02155
1.02464
1.02759
1.03029
1.03269
1.03474
1.03642
1.03775
1.03875
1.03944
1.03985
1.03998
1.03984
1.03939
1.0386
1.03742
1.03581
1.03376
1.03128
1.02844
1.02532
1.02206
1.01878
1.01563
1.01269
1.01006
1.00778
1.00586
1.0043
1.00306
1.0021
1.00138
1.00086
1.0005
1.00025
1.00009
0.999993
0.99994
0.999914
0.999908
0.999912
0.999922
0.999934
0.999946
0.999958
0.999968
0.999976
0.999982
0.999987
0.999991
0.999994
0.999996
0.999997
0.999998
0.999999
0.999999
1
1
1
1
1
1
1
1
1
1
1
1
1
1
1
1
1
1.01915
1.02267
1.02618
1.02954
1.03262
1.03532
1.0376
1.03943
1.04085
1.04189
1.04262
1.04311
1.04341
1.04355
1.04352
1.04329
1.04279
1.04192
1.04062
1.0388
1.03643
1.03356
1.03026
1.02667
1.02295
1.01928
1.01579
1.01262
1.00983
1.00745
1.0055
1.00394
1.00273
1.00182
1.00115
1.00068
1.00036
1.00015
1.00002
0.999949
0.999913
0.9999
0.999902
0.999912
0.999925
0.999938
0.999951
0.999963
0.999972
0.999979
0.999985
0.99999
0.999993
0.999995
0.999997
0.999998
0.999999
0.999999
0.999999
1
1
1
1
1
1
1
1
1
1
1
1
1
1
1
1
1.02335
1.02726
1.03101
1.03445
1.03742
1.03985
1.04171
1.04303
1.04388
1.04437
1.04462
1.04476
1.04487
1.04499
1.04514
1.04526
1.04525
1.04497
1.04426
1.043
1.04107
1.03847
1.03523
1.0315
1.02746
1.02333
1.01931
1.01557
1.01223
1.00935
1.00695
1.00501
1.0035
1.00236
1.00152
1.00092
1.00051
1.00024
1.00007
0.999967
0.999916
0.999896
0.999894
0.999902
0.999915
0.99993
0.999945
0.999957
0.999968
0.999976
0.999983
0.999988
0.999992
0.999994
0.999996
0.999998
0.999998
0.999999
0.999999
1
1
1
1
1
1
1
1
1
1
1
1
1
1
1
1
1.02783
1.03198
1.03577
1.03899
1.04153
1.04331
1.04437
1.04479
1.04472
1.04436
1.04389
1.04349
1.0433
1.0434
1.0438
1.04442
1.04513
1.04573
1.04599
1.04568
1.0446
1.04266
1.03984
1.03626
1.03212
1.02768
1.02319
1.0189
1.01498
1.01155
1.00866
1.0063
1.00444
1.00302
1.00197
1.00121
1.00069
1.00035
1.00013
0.999995
0.999925
0.999894
0.999887
0.999893
0.999906
0.999922
0.999938
0.999952
0.999963
0.999973
0.999981
0.999986
0.999991
0.999994
0.999996
0.999997
0.999998
0.999999
0.999999
1
1
1
1
1
1
1
1
1
1
1
1
1
1
1
1
1.03241
1.03656
1.04006
1.0427
1.04437
1.04505
1.04485
1.04394
1.04257
1.04101
1.03955
1.03843
1.03785
1.0379
1.03862
1.0399
1.04158
1.04338
1.045
1.04609
1.04635
1.04556
1.04362
1.04058
1.03665
1.03212
1.02731
1.02254
1.01806
1.01406
1.01063
1.0078
1.00555
1.00381
1.00252
1.00158
1.00093
1.00049
1.00021
1.00004
0.999941
0.999896
0.999882
0.999885
0.999898
0.999914
0.999931
0.999946
0.999959
0.99997
0.999978
0.999984
0.999989
0.999993
0.999995
0.999997
0.999998
0.999999
0.999999
0.999999
1
1
1
1
1
1
1
1
1
1
1
1
1
1
1
1.03682
1.04064
1.04345
1.04504
1.04534
1.04442
1.04247
1.03976
1.03667
1.03357
1.03085
1.02883
1.02776
1.02776
1.02888
1.03099
1.03388
1.03721
1.04059
1.04355
1.04566
1.04655
1.04601
1.04402
1.04071
1.03641
1.03149
1.02638
1.02141
1.01685
1.01287
1.00953
1.00684
1.00474
1.00317
1.00202
1.00121
1.00067
1.00031
1.00009
0.999968
0.999905
0.99988
0.999879
0.99989
0.999907
0.999924
0.99994
0.999955
0.999966
0.999976
0.999983
0.999988
0.999992
0.999995
0.999996
0.999998
0.999998
0.999999
0.999999
1
1
1
1
1
1
1
1
1
1
1
1
1
1
1
1.04074
1.04382
1.04546
1.04548
1.04388
1.04082
1.0366
1.03164
1.02642
1.02145
1.01722
1.01413
1.01247
1.01243
1.01402
1.01713
1.02147
1.02666
1.03218
1.03747
1.04194
1.04507
1.04652
1.0461
1.04391
1.04024
1.03553
1.03028
1.02493
1.01987
1.01533
1.01147
1.00831
1.00582
1.00393
1.00254
1.00156
1.00088
1.00044
1.00017
1
0.99992
0.999883
0.999876
0.999884
0.9999
0.999918
0.999935
0.99995
0.999963
0.999973
0.999981
0.999987
0.999991
0.999994
0.999996
0.999997
0.999998
0.999999
0.999999
1
1
1
1
1
1
1
1
1
1
1
1
1
1
1
1.04384
1.04571
1.04565
1.04355
1.0395
1.03377
1.02679
1.01912
1.0114
1.00425
0.998265
0.993939
0.991634
0.991545
0.993703
0.99796
1.004
1.01134
1.01938
1.02743
1.03475
1.04068
1.04467
1.04641
1.04588
1.04332
1.03919
1.03406
1.02851
1.02304
1.018
1.0136
1.00995
1.00704
1.0048
1.00315
1.00196
1.00114
1.0006
1.00026
1.00005
0.999943
0.999892
0.999876
0.99988
0.999894
0.999912
0.99993
0.999946
0.99996
0.999971
0.999979
0.999985
0.99999
0.999993
0.999996
0.999997
0.999998
0.999999
0.999999
1
1
1
1
1
1
1
1
1
1
1
1
1
1
1
1.04577
1.04593
1.04365
1.0389
1.03187
1.02295
1.01274
1.00195
0.991353
0.981725
0.973772
0.96807
0.965041
0.964913
0.967721
0.973291
0.981251
0.991049
1.00197
1.01319
1.02383
1.03304
1.04012
1.04459
1.04627
1.04532
1.0422
1.03753
1.03202
1.02627
1.02079
1.0159
1.01175
1.0084
1.00579
1.00384
1.00243
1.00145
1.00079
1.00037
1.00012
0.999975
0.999905
0.999879
0.999878
0.99989
0.999907
0.999926
0.999942
0.999957
0.999968
0.999977
0.999984
0.999989
0.999993
0.999995
0.999997
0.999998
0.999999
0.999999
0.999999
1
1
1
1
1
1
1
1
1
1
1
1
1
1
1.04625
1.0442
1.0392
1.03129
1.02077
1.0082
0.994322
0.980011
0.966208
0.953831
0.943697
0.93648
0.932659
0.932494
0.936026
0.943057
0.953163
0.965702
0.979846
0.99463
1.00902
1.022
1.03268
1.0404
1.04482
1.046
1.04434
1.04051
1.0353
1.02947
1.02366
1.01831
1.01368
1.00987
1.00688
1.00461
1.00296
1.0018
1.00102
1.00051
1.0002
1.00002
0.999925
0.999886
0.999879
0.999887
0.999904
0.999922
0.999939
0.999954
0.999966
0.999976
0.999983
0.999988
0.999992
0.999995
0.999997
0.999998
0.999999
0.999999
0.999999
1
1
1
1
1
1
1
1
1
1
1
1
1
1
1.04508
1.04037
1.03217
1.02063
1.00619
0.989525
0.971567
0.953376
0.936053
0.920673
0.908168
0.899303
0.894618
0.894406
0.898722
0.907343
0.919795
0.935344
0.95304
0.971769
0.990324
1.00751
1.02225
1.03371
1.04138
1.04517
1.04542
1.04281
1.03821
1.03252
1.02651
1.02079
1.01571
1.01145
1.00806
1.00546
1.00355
1.00219
1.00127
1.00067
1.00029
1.00007
0.999952
0.999898
0.999882
0.999887
0.999901
0.999919
0.999936
0.999952
0.999965
0.999974
0.999982
0.999988
0.999992
0.999995
0.999996
0.999998
0.999999
0.999999
0.999999
1
1
1
1
1
1
1
1
1
1
1
1
1
1
1.04216
1.03437
1.02257
1.00699
0.988204
0.967058
0.944657
0.922259
0.901146
0.882544
0.867503
0.856877
0.851257
0.850981
0.85611
0.866419
0.88138
0.900174
0.921716
0.944732
0.967833
0.989633
1.00886
1.0245
1.03586
1.04271
1.04531
1.04431
1.04063
1.03531
1.02928
1.02327
1.01779
1.01311
1.00931
1.00637
1.00419
1.00263
1.00156
1.00085
1.0004
1.00013
0.999987
0.999916
0.99989
0.999889
0.999901
0.999918
0.999935
0.99995
0.999963
0.999973
0.999981
0.999987
0.999991
0.999994
0.999996
0.999998
0.999999
0.999999
0.999999
1
1
1
1
1
1
1
1
1
1
1
1
1
1
1.03748
1.02627
1.01052
0.990549
0.967057
0.941081
0.913923
0.887053
0.861938
0.839954
0.822262
0.809788
0.803175
0.802803
0.808755
0.820803
0.838385
0.860596
0.886219
0.913806
0.941777
0.968544
0.992638
1.01284
1.02828
1.03861
1.04394
1.0449
1.04247
1.03776
1.03187
1.0257
1.01989
1.01481
1.01062
1.00734
1.00488
1.00311
1.00187
1.00105
1.00053
1.00021
1.00003
0.999938
0.999901
0.999893
0.999902
0.999917
0.999933
0.999949
0.999962
0.999972
0.999981
0.999987
0.999991
0.999994
0.999996
0.999998
0.999998
0.999999
0.999999
1
1
1
1
1
1
1
1
1
1
1
1
1
1
1.03114
1.01624
0.996241
0.971586
0.943097
0.912013
0.879863
0.848336
0.8191
0.793658
0.77327
0.758913
0.751276
0.750776
0.757526
0.771315
0.791558
0.817276
0.847123
0.879475
0.912552
0.944555
0.973809
0.998889
1.01876
1.03289
1.0413
1.04455
1.04365
1.0398
1.03424
1.02803
1.02196
1.01652
1.01197
1.00835
1.00561
1.00361
1.00221
1.00127
1.00067
1.00029
1.00008
0.999967
0.999916
0.999901
0.999905
0.999918
0.999934
0.999949
0.999962
0.999972
0.99998
0.999986
0.999991
0.999994
0.999996
0.999997
0.999998
0.999999
0.999999
1
1
1
1
1
1
1
1
1
1
1
1
1
1
1.02332
1.00451
0.980064
0.950496
0.916793
0.880415
0.843142
0.806897
0.77353
0.744665
0.721624
0.705417
0.696762
0.696105
0.703605
0.719079
0.741942
0.771154
0.805251
0.84244
0.880741
0.918138
0.952743
0.982931
1.00748
1.02568
1.03745
1.04327
1.04415
1.04138
1.03632
1.0302
1.02396
1.01823
1.01333
1.00939
1.00636
1.00414
1.00257
1.00151
1.00082
1.00039
1.00014
1
0.999935
0.999912
0.999911
0.999921
0.999935
0.999949
0.999962
0.999972
0.99998
0.999986
0.999991
0.999994
0.999996
0.999997
0.999998
0.999999
0.999999
1
1
1
1
1
1
1
1
1
1
1
1
1
1
1.01427
0.991429
0.962387
0.927771
0.88874
0.846997
0.8046
0.763707
0.726336
0.694202
0.668658
0.650712
0.641091
0.640264
0.64844
0.665488
0.690836
0.723413
0.761653
0.803611
0.847106
0.889914
0.929935
0.965337
0.994705
1.01717
1.0325
1.04111
1.04398
1.04248
1.03809
1.03219
1.02586
1.01988
1.01467
1.01042
1.00713
1.00468
1.00295
1.00176
1.00098
1.00049
1.0002
1.00004
0.999958
0.999925
0.999919
0.999925
0.999937
0.99995
0.999962
0.999972
0.99998
0.999986
0.999991
0.999994
0.999996
0.999997
0.999998
0.999999
0.999999
1
1
1
1
1
1
1
1
1
1
1
1
1
1
1.00429
0.977361
0.943686
0.90399
0.859637
0.812596
0.765216
0.719887
0.678777
0.643653
0.615856
0.596359
0.585871
0.58488
0.593646
0.612098
0.639709
0.6754
0.717537
0.764042
0.812553
0.860642
0.905999
0.94659
0.980809
1.00761
1.02662
1.03817
1.0432
1.04312
1.03954
1.03395
1.02763
1.02145
1.01598
1.01144
1.00789
1.00523
1.00333
1.00202
1.00115
1.0006
1.00027
1.00008
0.999985
0.999941
0.999928
0.999931
0.999941
0.999953
0.999964
0.999973
0.999981
0.999987
0.999991
0.999994
0.999996
0.999997
0.999998
0.999999
0.999999
1
1
1
1
1
1
1
1
1
1
1
1
1
1
0.993712
0.962739
0.92449
0.879807
0.830271
0.778143
0.726063
0.676648
0.632183
0.594455
0.564744
0.543953
0.532743
0.531611
0.540864
0.560504
0.590068
0.628511
0.67417
0.724862
0.778067
0.83116
0.881632
0.92725
0.96622
0.997325
1.02004
1.03458
1.04187
1.04333
1.04065
1.03549
1.02923
1.02293
1.01722
1.01243
1.00864
1.00577
1.00371
1.00228
1.00132
1.00071
1.00034
1.00013
1.00001
0.99996
0.99994
0.999939
0.999946
0.999956
0.999966
0.999975
0.999982
0.999987
0.999991
0.999994
0.999996
0.999998
0.999998
0.999999
0.999999
1
1
1
1
1
1
1
1
1
1
1
1
1
1
0.982908
0.94802
0.905371
0.85592
0.801486
0.744617
0.688245
0.635203
0.587863
0.547989
0.516763
0.494976
0.483224
0.481985
0.49161
0.512174
0.54331
0.584057
0.632762
0.687175
0.744633
0.802332
0.85757
0.907924
0.951421
0.986677
1.01301
1.03054
1.04011
1.04316
1.04146
1.03678
1.03067
1.02429
1.01839
1.01337
1.00935
1.0063
1.00408
1.00254
1.0015
1.00083
1.00042
1.00018
1.00005
0.999981
0.999954
0.999948
0.999952
0.99996
0.999969
0.999977
0.999983
0.999988
0.999992
0.999994
0.999996
0.999998
0.999999
0.999999
0.999999
1
1
1
1
1
1
1
1
1
1
1
1
1
1
0.972248
0.933675
0.886915
0.833052
0.774128
0.712986
0.652832
0.596692
0.547004
0.505472
0.473148
0.450685
0.438577
0.43727
0.447134
0.468326
0.500611
0.543155
0.594373
0.651976
0.713173
0.774987
0.834539
0.88923
0.936917
0.976061
1.00584
1.02623
1.03804
1.04268
1.042
1.03785
1.03193
1.02552
1.01946
1.01424
1.01003
1.0068
1.00444
1.00279
1.00167
1.00095
1.0005
1.00023
1.00008
1
0.999969
0.999958
0.999959
0.999965
0.999972
0.999979
0.999985
0.999989
0.999993
0.999995
0.999997
0.999998
0.999999
0.999999
0.999999
1
1
1
1
1
1
1
1
1
1
1
1
1
1
0.962108
0.920169
0.869697
0.811896
0.749011
0.68416
0.620795
0.562117
0.510609
0.467891
0.434861
0.412017
0.39973
0.398384
0.408348
0.429862
0.462854
0.506673
0.559853
0.620096
0.684489
0.749881
0.813222
0.87176
0.923207
0.965877
0.998813
1.02189
1.03581
1.04199
1.0423
1.03871
1.03301
1.0266
1.02042
1.01503
1.01065
1.00726
1.00478
1.00302
1.00184
1.00106
1.00057
1.00028
1.00012
1.00003
0.999986
0.99997
0.999967
0.99997
0.999976
0.999981
0.999986
0.99999
0.999993
0.999996
0.999997
0.999998
0.999999
0.999999
0.999999
1
1
1
1
1
1
1
1
1
1
1
1
1
1
0.952841
0.907941
0.85425
0.793087
0.726867
0.658933
0.592962
0.532296
0.479451
0.435956
0.402554
0.379576
0.367257
0.365887
0.375818
0.397371
0.430652
0.475244
0.529849
0.592188
0.659236
0.727655
0.794225
0.856061
0.910756
0.956511
0.992244
1.01772
1.03357
1.04118
1.04243
1.03938
1.03391
1.02752
1.02126
1.01573
1.0112
1.00768
1.00508
1.00324
1.00199
1.00117
1.00065
1.00033
1.00015
1.00005
1
0.999983
0.999976
0.999977
0.99998
0.999985
0.999989
0.999992
0.999994
0.999996
0.999998
0.999998
0.999999
0.999999
1
1
1
1
1
1
1
1
1
1
1
1
1
1
1
0.944771
0.897379
0.841035
0.777166
0.708308
0.637964
0.569989
0.507843
0.454071
0.410118
0.37659
0.353656
0.341406
0.340023
0.349815
0.371172
0.404391
0.449308
0.504835
0.568756
0.637931
0.70883
0.778057
0.842605
0.899984
0.948311
0.986409
1.01395
1.03147
1.04034
1.04244
1.03988
1.03464
1.02829
1.02197
1.01633
1.01167
1.00804
1.00535
1.00344
1.00213
1.00127
1.00072
1.00039
1.00019
1.00008
1.00002
0.999996
0.999986
0.999984
0.999985
0.999988
0.999991
0.999993
0.999995
0.999997
0.999998
0.999999
0.999999
0.999999
1
1
1
1
1
1
1
1
1
1
1
1
1
1
1
0.938184
0.888814
0.830432
0.764553
0.693793
0.621736
0.552349
0.489182
0.434804
0.39061
0.357101
0.334309
0.322184
0.320789
0.330375
0.351382
0.384277
0.429154
0.485167
0.550185
0.620979
0.69382
0.765127
0.831784
0.891245
0.941584
0.981557
1.01075
1.02965
1.03956
1.04238
1.04025
1.0352
1.0289
1.02254
1.01681
1.01206
1.00835
1.00558
1.00361
1.00225
1.00136
1.00079
1.00043
1.00022
1.00011
1.00004
1.00001
0.999996
0.999991
0.99999
0.999992
0.999994
0.999995
0.999997
0.999998
0.999999
0.999999
0.999999
1
1
1
1
1
1
1
1
1
1
1
1
1
1
1
1
0.933318
0.882512
0.822721
0.755542
0.68362
0.610551
0.540328
0.476551
0.421817
0.377506
0.344065
0.321432
0.309439
0.308029
0.317389
0.337974
0.370391
0.41497
0.471105
0.536783
0.608698
0.682941
0.755745
0.823894
0.884818
0.936574
0.977892
1.0083
1.02823
1.03893
1.0423
1.0405
1.03561
1.02935
1.02296
1.01718
1.01236
1.00858
1.00576
1.00374
1.00236
1.00144
1.00084
1.00048
1.00026
1.00013
1.00006
1.00002
1.00001
0.999999
0.999996
0.999995
0.999996
0.999997
0.999998
0.999999
0.999999
0.999999
1
1
1
1
1
1
1
1
1
1
1
1
1
1
1
1
1
0.930354
0.87867
0.818088
0.750297
0.677927
0.604524
0.534021
0.47002
0.415131
0.37077
0.337379
0.31486
0.302965
0.301541
0.310695
0.33087
0.36276
0.406886
0.462858
0.528794
0.601347
0.676437
0.750138
0.819148
0.880894
0.933457
0.975565
1.00672
1.02729
1.0385
1.04223
1.04065
1.03587
1.02965
1.02324
1.01742
1.01256
1.00874
1.00589
1.00385
1.00244
1.0015
1.0009
1.00052
1.00029
1.00016
1.00008
1.00004
1.00002
1.00001
1
1
0.999999
0.999999
0.999999
1
1
1
1
1
1
1
1
1
1
1
1
1
1
1
1
1
1
1
1
0.929403
0.877424
0.816646
0.748872
0.676716
0.603607
0.533356
0.469496
0.414649
0.370278
0.336893
0.314419
0.30258
0.301151
0.310161
0.330009
0.361413
0.405015
0.460605
0.526424
0.599121
0.674485
0.748455
0.817675
0.879591
0.932336
0.974668
1.00607
1.0269
1.03832
1.04221
1.04072
1.03599
1.02978
1.02337
1.01754
1.01266
1.00883
1.00596
1.00391
1.0025
1.00155
1.00094
1.00055
1.00032
1.00018
1.0001
1.00005
1.00003
1.00001
1.00001
1
1
1
1
1
1
1
1
1
1
1
1
1
1
1
1
1
1
1
1
1
1
1
1
0.930506
0.878833
0.818447
0.751261
0.679887
0.607627
0.538114
0.474756
0.420154
0.375844
0.342444
0.319965
0.30816
0.30676
0.315722
0.335371
0.366388
0.409455
0.464484
0.529825
0.60215
0.677179
0.750763
0.819519
0.880944
0.933247
0.975232
1.0064
1.02707
1.0384
1.04223
1.04071
1.03596
1.02974
1.02334
1.01752
1.01266
1.00884
1.00599
1.00394
1.00253
1.00158
1.00097
1.00058
1.00034
1.0002
1.00011
1.00007
1.00004