/*--------------------------------*- C++ -*----------------------------------*\
  =========                 |
  \\      /  F ield         | OpenFOAM: The Open Source CFD Toolbox
   \\    /   O peration     | Website:  https://openfoam.org
    \\  /    A nd           | Version:  6
     \\/     M anipulation  |
\*---------------------------------------------------------------------------*/
FoamFile
{
    version     2.0;
    format      ascii;
    class       volScalarField;
    location    "1.74";
    object      p;
}
// * * * * * * * * * * * * * * * * * * * * * * * * * * * * * * * * * * * * * //

dimensions      [0 2 -2 0 0 0 0];

internalField   nonuniform List<scalar> 
800
(
61.2816
-9590.03
-1456.87
-2499.89
-2625.32
-2576.07
-2462.18
-2352.63
-2210.79
-2253.79
-2155.56
-2116.51
-2030.91
-1981.74
-1998.8
-1829.43
-2201.27
-2693.07
-2855.86
-111.85
481.871
-9349.85
-1895.42
-2651.66
-2686.04
-2640.38
-2493.75
-2404.79
-2250.95
-2287.83
-2170.99
-2147.11
-2046.41
-2013.98
-2019.53
-1849.46
-2212.82
-2704.69
-2889.61
-492.978
89.7333
-9244.66
-2090.2
-2596.01
-2703.25
-2571.96
-2512.04
-2349.13
-2260.46
-2253.78
-2143.92
-2115.81
-2031.14
-2002.49
-2002.29
-1857.74
-2190.18
-2648.95
-2866.65
-591.211
-100.979
-9153.03
-2349.71
-2613.02
-2684.72
-2580.25
-2521.99
-2365.81
-2264.58
-2274.63
-2142.77
-2111.33
-2042.36
-2010.39
-2021.55
-1913.64
-2261.57
-2669.82
-2914.52
-567.502
-249.261
-9034.14
-2454.82
-2630.16
-2688.1
-2582.29
-2525.55
-2362.45
-2273.36
-2272.23
-2150.64
-2106.32
-2041.63
-2008.46
-2025.59
-1934.25
-2292.74
-2699.73
-3013.24
-586.196
-239.742
-8952.82
-2667.21
-2639.25
-2701.17
-2576.87
-2532.97
-2359.73
-2282.27
-2268.16
-2153.79
-2103.37
-2039.89
-2010.76
-2028.8
-1957.32
-2310.56
-2713.94
-3138.45
-665.431
-417.139
-8809.33
-2746.37
-2644.25
-2691.79
-2589.66
-2537.29
-2359.63
-2288.35
-2258.97
-2160.03
-2100.99
-2038.59
-2011.04
-2029.37
-1974.72
-2321.5
-2722.62
-3263.74
-745.105
-428.952
-8728.32
-2913.31
-2637.36
-2702.82
-2594
-2545.29
-2358.39
-2295.83
-2258.13
-2159.76
-2100.3
-2037.9
-2011.73
-2029.35
-1989.94
-2334.55
-2715.53
-3351.89
-827.735
-583.686
-8564.42
-2967.41
-2627.83
-2712.46
-2603.77
-2550.25
-2361.61
-2300.94
-2258.13
-2162.45
-2099.01
-2037.32
-2011.34
-2029.26
-2000.73
-2336.63
-2694.58
-3413.16
-906.699
-563.58
-8471.83
-3093.8
-2610.16
-2728.79
-2612.69
-2558.32
-2361.97
-2304.07
-2258.88
-2162.84
-2098.75
-2036.25
-2011.85
-2027.83
-2007.9
-2333.72
-2657.98
-3416.11
-989.547
-698.293
-8291.18
-3136.25
-2587.44
-2739.62
-2624.48
-2564.6
-2370.35
-2307.19
-2260.65
-2162.86
-2097.79
-2035.21
-2011.05
-2025.07
-2007.17
-2323.49
-2616.21
-3399.53
-1071.66
-657.924
-8183.33
-3234.67
-2562.96
-2755.17
-2636.28
-2574.5
-2371.17
-2308.46
-2262.51
-2163.07
-2097.54
-2033.94
-2010.52
-2021.38
-2002.84
-2309.8
-2569.86
-3344.21
-1145.23
-775.558
-7992.17
-3279.09
-2532.16
-2765.52
-2650.14
-2582.04
-2380.91
-2309.03
-2265.67
-2162.24
-2096.52
-2032.45
-2009.36
-2017.71
-1996.09
-2290.28
-2528.46
-3283.44
-1219.61
-715.646
-7870.92
-3359.74
-2506.38
-2781.3
-2664.37
-2591.24
-2378.4
-2309.35
-2267.38
-2162.61
-2096.23
-2030.89
-2008.42
-2014.97
-1989.44
-2277.83
-2491.78
-3217.23
-1277.51
-819.731
-7679.4
-3416.22
-2475.57
-2789.7
-2680.6
-2597.94
-2383.73
-2308.65
-2271.56
-2161.35
-2095.25
-2029.02
-2007.79
-2013.1
-1989.28
-2268.97
-2463.52
-3155.49
-1342.37
-745.178
-7545.85
-3483.62
-2451.69
-2805.86
-2696.27
-2604.51
-2376.3
-2309.38
-2272.93
-2161.82
-2095.15
-2027.38
-2006.99
-2012.02
-1993.29
-2266.06
-2440.11
-3130.85
-1385.89
-840.608
-7354.98
-3563.3
-2428.64
-2810.33
-2713.06
-2608.97
-2377.17
-2308.51
-2278.01
-2160.68
-2094.53
-2024.96
-2006.7
-2011.61
-2001.42
-2264.62
-2422.91
-3117.83
-1438.65
-757.418
-7200.79
-3632.47
-2406.72
-2827.07
-2727.45
-2613.27
-2368.83
-2309.94
-2279.22
-2161.1
-2094.7
-2022.93
-2006.33
-2011.49
-2005.46
-2265.39
-2410.05
-3091.1
-1465.16
-849.081
-6995
-3747.42
-2396.28
-2827.2
-2743.9
-2617.86
-2370.48
-2309.15
-2285.31
-2160.45
-2094
-2020.36
-2005.45
-2011.31
-2007.55
-2265.28
-2399.29
-3082.64
-1502.75
-764.682
-6817.53
-3850.05
-2380.05
-2846.9
-2758.08
-2624.77
-2364.37
-2310.67
-2286.3
-2161.19
-2094
-2017.87
-2004.96
-2010.81
-2009.13
-2263.63
-2395.69
-3032.65
-1514.14
-856.481
-6594.69
-3984.08
-2385.67
-2846.54
-2778.64
-2632.27
-2367.56
-2309.65
-2292.83
-2161.29
-2092.99
-2015.1
-2003.3
-2009.93
-2009.86
-2264.5
-2389.67
-3024.33
-1535.79
-777.529
-6415.57
-4124.01
-2382.28
-2873.05
-2796.62
-2643.88
-2362.05
-2310.33
-2293.43
-2162.65
-2092.87
-2011.81
-2001.78
-2008.41
-2011.21
-2260.56
-2388.28
-2965.8
-1536.09
-872.486
-6198.32
-4231.48
-2400.78
-2877.76
-2820.93
-2652.91
-2365.44
-2308.41
-2299.88
-2163.61
-2091.85
-2009.04
-1999.46
-2006.97
-2012.79
-2262.39
-2386.12
-2951.27
-1540.71
-801.777
-6042.88
-4382.85
-2409.38
-2908.7
-2842.97
-2664.57
-2359.2
-2307.83
-2300.11
-2165.82
-2091.41
-2004.33
-1997
-2005.42
-2015.55
-2252.31
-2381.73
-2906.42
-1534.76
-899.91
-5861.16
-4433.3
-2422.75
-2919.61
-2867.11
-2670.04
-2360.72
-2304.66
-2306.21
-2167.13
-2090.96
-2001.29
-1993.94
-2004.2
-2018.77
-2251.74
-2376.37
-2883.42
-1526.04
-837.152
-5754.59
-4557
-2420.93
-2944.08
-2887.39
-2674.67
-2353.25
-2303.42
-2306.67
-2170.44
-2089.99
-1996.29
-1991.7
-2003.13
-2022.4
-2237.2
-2371.83
-2852.81
-1516.3
-935.098
-5653.89
-4577.88
-2414.73
-2955.96
-2904.5
-2677.31
-2350.6
-2300.47
-2312.53
-2172.03
-2089.86
-1992.7
-1988.31
-2002.62
-2026.08
-2233.71
-2363.13
-2824.66
-1499.56
-873.363
-5578.57
-4564.76
-2394.27
-2965.12
-2907.57
-2695.08
-2342.62
-2300.78
-2313.45
-2176.38
-2088.74
-1988.57
-1985.78
-2002.28
-2029.82
-2218.94
-2359.83
-2801.61
-1485.52
-979.931
-5472.93
-4704.35
-2416.96
-2973.68
-2931.07
-2694.26
-2344
-2300.46
-2318.07
-2178.55
-2089.06
-1984.83
-1982.73
-2002.23
-2032.89
-2213.31
-2351.36
-2773.37
-1463.25
-931.773
-5223.29
-4559.06
-2452.81
-2948
-2911.42
-2695.65
-2343.09
-2303.01
-2318.89
-2183.96
-2088.31
-1981.13
-1980.02
-2001.75
-2036.07
-2202.6
-2349.05
-2753.18
-1445.67
-1004.38
-4916.49
-4697.67
-2705.8
-2977.17
-2908.19
-2693.93
-2351.96
-2304.9
-2320.64
-2186.79
-2088.53
-1977.08
-1977.39
-2001.85
-2038.26
-2197.63
-2342.37
-2728.44
-1420.19
-955.082
-4580.82
-4662.41
-2936.5
-2970.97
-2935.29
-2684.94
-2348.75
-2305.67
-2324.32
-2192.63
-2088.24
-1972.75
-1975.17
-2001.31
-2040.09
-2190.72
-2340.79
-2710.16
-1401.15
-945.932
-4266.88
-4552.3
-3198.19
-3003.62
-2979.43
-2681.39
-2364.21
-2311.68
-2326.19
-2196.06
-2088.93
-1967.8
-1972.4
-2000.99
-2042.13
-2185.93
-2336.3
-2689.68
-1373.68
-851.916
-4040.96
-4511.13
-3375.31
-3051.87
-3034.61
-2668.95
-2356.79
-2312.74
-2329.71
-2201.6
-2089.2
-1963.1
-1969.09
-2001.49
-2043.9
-2178.53
-2335.31
-2671.69
-1352.67
-777.794
-3856.07
-4329.92
-3524.44
-3081.1
-3067.17
-2653.3
-2356.71
-2313.87
-2336.87
-2205.16
-2089.77
-1957.07
-1965.4
-2001.02
-2044.97
-2174.41
-2333.25
-2654.8
-1323.3
-662.657
-3703.69
-4292.84
-3594.77
-3124.8
-3112.75
-2642.75
-2358.61
-2320.49
-2336.61
-2207.97
-2090.99
-1952.38
-1960.65
-2000.12
-2045.92
-2169.78
-2332.73
-2640.37
-1300.36
-543.995
-3659.63
-4134.35
-3622.94
-3141.85
-3131.75
-2629.94
-2358.34
-2326.53
-2336.72
-2210.31
-2091.45
-1948.26
-1957.33
-1999.51
-2047.31
-2166.86
-2333.26
-2626.29
-1272.6
-417.793
-3545.39
-4100.93
-3655.59
-3187.14
-3176.26
-2623.59
-2358.72
-2334.25
-2339.2
-2207.94
-2091.18
-1945.28
-1954.31
-1999.7
-2047.8
-2164.49
-2334.31
-2615.74
-1251.85
-296.371
-3556.82
-4032.92
-3640.29
-3203.73
-3189.38
-2621.49
-2353.38
-2336.96
-2335.47
-2202.86
-2096.16
-1946.34
-1952.26
-1999.04
-2047.8
-2162.29
-2335.68
-2601.24
-1230.7
-218
-3439.86
-4008.52
-3644.19
-3211.37
-3185.35
-2625.55
-2363.34
-2332.98
-2342.45
-2198.76
-2100.71
-1949.25
-1952.29
-1998.49
-2047.39
-2160.51
-2337.19
-2591.47
-1219.47
)
;

boundaryField
{
    piston
    {
        type            zeroGradient;
    }
    outlet
    {
        type            zeroGradient;
    }
    walls
    {
        type            zeroGradient;
    }
    front
    {
        type            empty;
    }
    back
    {
        type            empty;
    }
}


// ************************************************************************* //
