/*--------------------------------*- C++ -*----------------------------------*\
  =========                 |
  \\      /  F ield         | OpenFOAM: The Open Source CFD Toolbox
   \\    /   O peration     | Website:  https://openfoam.org
    \\  /    A nd           | Version:  6
     \\/     M anipulation  |
\*---------------------------------------------------------------------------*/
FoamFile
{
    version     2.0;
    format      ascii;
    class       volVectorField;
    location    "4.52";
    object      U;
}
// * * * * * * * * * * * * * * * * * * * * * * * * * * * * * * * * * * * * * //

dimensions      [0 1 -1 0 0 0 0];

internalField   nonuniform List<vector> 
5625
(
(0.865818 0.432417 0)
(0.868309 0.433131 0)
(0.871929 0.434429 0)
(0.876335 0.436136 0)
(0.881242 0.438078 0)
(0.886417 0.440074 0)
(0.891712 0.441924 0)
(0.897064 0.443383 0)
(0.902441 0.444211 0)
(0.907849 0.444173 0)
(0.913389 0.443006 0)
(0.919241 0.440446 0)
(0.925654 0.436265 0)
(0.932962 0.430285 0)
(0.941544 0.42243 0)
(0.951798 0.412795 0)
(0.964201 0.401619 0)
(0.979229 0.389352 0)
(0.997148 0.37669 0)
(1.01802 0.364415 0)
(1.04178 0.353392 0)
(1.06812 0.34472 0)
(1.09625 0.339534 0)
(1.125 0.338534 0)
(1.15304 0.342029 0)
(1.17915 0.350306 0)
(1.2022 0.363427 0)
(1.22105 0.380752 0)
(1.23459 0.401176 0)
(1.24212 0.423662 0)
(1.24361 0.447233 0)
(1.23928 0.470699 0)
(1.22915 0.492716 0)
(1.21329 0.512037 0)
(1.19237 0.5277 0)
(1.16756 0.539191 0)
(1.14012 0.546522 0)
(1.11121 0.550071 0)
(1.08193 0.550328 0)
(1.05332 0.547808 0)
(1.02619 0.543082 0)
(1.00102 0.536758 0)
(0.978182 0.529374 0)
(0.958014 0.521325 0)
(0.940826 0.512898 0)
(0.926758 0.504345 0)
(0.915698 0.495922 0)
(0.907347 0.48786 0)
(0.901366 0.480316 0)
(0.897497 0.473341 0)
(0.895604 0.466897 0)
(0.895619 0.460904 0)
(0.897443 0.455293 0)
(0.900843 0.450056 0)
(0.905394 0.445265 0)
(0.910491 0.441061 0)
(0.915418 0.43763 0)
(0.919477 0.435141 0)
(0.922125 0.433696 0)
(0.923081 0.433286 0)
(0.922368 0.433785 0)
(0.920267 0.434973 0)
(0.917215 0.436589 0)
(0.91369 0.438379 0)
(0.91011 0.44014 0)
(0.906779 0.441736 0)
(0.903878 0.443093 0)
(0.901479 0.444193 0)
(0.899575 0.445047 0)
(0.898117 0.445689 0)
(0.897032 0.446158 0)
(0.896243 0.446491 0)
(0.895682 0.446723 0)
(0.895288 0.446882 0)
(0.895016 0.446989 0)
(0.865597 0.431609 0)
(0.867524 0.432066 0)
(0.870658 0.433187 0)
(0.874667 0.434802 0)
(0.879258 0.436734 0)
(0.884181 0.438815 0)
(0.889264 0.440854 0)
(0.894423 0.44264 0)
(0.899606 0.443961 0)
(0.904811 0.444588 0)
(0.910115 0.444284 0)
(0.915655 0.44284 0)
(0.921614 0.440057 0)
(0.928236 0.435755 0)
(0.935833 0.429863 0)
(0.944803 0.422431 0)
(0.955574 0.41363 0)
(0.968434 0.403811 0)
(0.983523 0.393502 0)
(1.00101 0.383342 0)
(1.02097 0.374131 0)
(1.0431 0.366816 0)
(1.06662 0.362195 0)
(1.09067 0.360791 0)
(1.11436 0.36308 0)
(1.13666 0.369462 0)
(1.15642 0.379828 0)
(1.17251 0.393543 0)
(1.18414 0.409918 0)
(1.19087 0.428293 0)
(1.19252 0.447728 0)
(1.18893 0.467017 0)
(1.17995 0.485009 0)
(1.16588 0.500777 0)
(1.14755 0.513645 0)
(1.12606 0.523276 0)
(1.1024 0.529693 0)
(1.07752 0.533128 0)
(1.05236 0.533871 0)
(1.02783 0.532271 0)
(1.00456 0.528765 0)
(0.982989 0.523831 0)
(0.963463 0.51788 0)
(0.946329 0.511215 0)
(0.931868 0.504078 0)
(0.92017 0.496709 0)
(0.911094 0.489361 0)
(0.90436 0.482254 0)
(0.899686 0.475528 0)
(0.896884 0.469224 0)
(0.895872 0.463305 0)
(0.896606 0.45771 0)
(0.898974 0.452403 0)
(0.902712 0.447417 0)
(0.907366 0.442868 0)
(0.912316 0.438934 0)
(0.916864 0.43582 0)
(0.92037 0.433694 0)
(0.92238 0.432635 0)
(0.922718 0.4326 0)
(0.921496 0.433428 0)
(0.919049 0.434872 0)
(0.915831 0.436663 0)
(0.912296 0.438552 0)
(0.90882 0.440353 0)
(0.905661 0.441948 0)
(0.902958 0.443282 0)
(0.900753 0.444347 0)
(0.899023 0.445166 0)
(0.897709 0.445777 0)
(0.896739 0.446219 0)
(0.896037 0.446532 0)
(0.89554 0.44675 0)
(0.895192 0.446898 0)
(0.894951 0.446999 0)
(0.865618 0.430925 0)
(0.86694 0.43107 0)
(0.869548 0.431954 0)
(0.87312 0.433415 0)
(0.877351 0.435283 0)
(0.881985 0.437391 0)
(0.886838 0.439555 0)
(0.891792 0.441582 0)
(0.896771 0.443289 0)
(0.901764 0.444474 0)
(0.906828 0.444918 0)
(0.91205 0.444426 0)
(0.917571 0.442814 0)
(0.923591 0.439955 0)
(0.930377 0.435787 0)
(0.938249 0.430298 0)
(0.947486 0.423586 0)
(0.958296 0.415938 0)
(0.970926 0.40778 0)
(0.985621 0.399623 0)
(1.00234 0.392123 0)
(1.02066 0.386004 0)
(1.04007 0.381894 0)
(1.06008 0.380346 0)
(1.07995 0.381883 0)
(1.09862 0.386739 0)
(1.11511 0.394717 0)
(1.12862 0.405452 0)
(1.13855 0.41858 0)
(1.14439 0.433484 0)
(1.14575 0.449203 0)
(1.1424 0.464727 0)
(1.13435 0.479234 0)
(1.12207 0.49205 0)
(1.10636 0.502648 0)
(1.08807 0.510761 0)
(1.06797 0.51638 0)
(1.04684 0.519609 0)
(1.02551 0.520601 0)
(1.00473 0.519597 0)
(0.98503 0.516946 0)
(0.966784 0.513022 0)
(0.950334 0.508133 0)
(0.936017 0.50251 0)
(0.924071 0.496363 0)
(0.914538 0.489925 0)
(0.907261 0.483439 0)
(0.901988 0.47711 0)
(0.8985 0.471054 0)
(0.896673 0.465299 0)
(0.896469 0.459808 0)
(0.897852 0.454539 0)
(0.90069 0.449493 0)
(0.904687 0.444745 0)
(0.909354 0.440451 0)
(0.914064 0.43682 0)
(0.918151 0.434068 0)
(0.921044 0.432349 0)
(0.922392 0.43171 0)
(0.922123 0.432068 0)
(0.920429 0.433221 0)
(0.917692 0.434906 0)
(0.914362 0.436848 0)
(0.910864 0.438811 0)
(0.907528 0.440629 0)
(0.904562 0.442203 0)
(0.902066 0.443498 0)
(0.900058 0.44452 0)
(0.898499 0.445297 0)
(0.897325 0.445871 0)
(0.896464 0.446285 0)
(0.895844 0.446577 0)
(0.895407 0.446779 0)
(0.895102 0.446917 0)
(0.894891 0.447009 0)
(0.865919 0.430399 0)
(0.866595 0.430183 0)
(0.868636 0.430771 0)
(0.871728 0.432015 0)
(0.875559 0.433757 0)
(0.879869 0.435829 0)
(0.884461 0.43805 0)
(0.88919 0.440247 0)
(0.89396 0.442247 0)
(0.898741 0.443873 0)
(0.90356 0.444929 0)
(0.908477 0.445231 0)
(0.913598 0.44463 0)
(0.919088 0.443017 0)
(0.92516 0.440306 0)
(0.932032 0.436454 0)
(0.939904 0.431559 0)
(0.949014 0.425856 0)
(0.959637 0.419633 0)
(0.971889 0.413265 0)
(0.985612 0.407297 0)
(1.00057 0.402329 0)
(1.01654 0.398892 0)
(1.03309 0.39748 0)
(1.04943 0.39849 0)
(1.06472 0.40206 0)
(1.0783 0.408116 0)
(1.08954 0.416526 0)
(1.09779 0.426987 0)
(1.1025 0.43885 0)
(1.10332 0.451298 0)
(1.10014 0.463635 0)
(1.09309 0.475283 0)
(1.08266 0.485686 0)
(1.06947 0.494397 0)
(1.05413 0.501193 0)
(1.03725 0.506029 0)
(1.01951 0.508924 0)
(1.00164 0.509942 0)
(0.984254 0.509264 0)
(0.96778 0.507168 0)
(0.952554 0.50394 0)
(0.938908 0.499804 0)
(0.927154 0.494941 0)
(0.917481 0.489542 0)
(0.909886 0.483831 0)
(0.904208 0.478035 0)
(0.900234 0.472335 0)
(0.897807 0.466824 0)
(0.89686 0.461511 0)
(0.897385 0.456366 0)
(0.899342 0.451369 0)
(0.902569 0.446556 0)
(0.90673 0.442047 0)
(0.91131 0.438035 0)
(0.915682 0.434753 0)
(0.919228 0.432413 0)
(0.921461 0.431145 0)
(0.922138 0.430954 0)
(0.921287 0.43171 0)
(0.919175 0.433178 0)
(0.916208 0.435079 0)
(0.912826 0.437142 0)
(0.909414 0.43915 0)
(0.906248 0.440959 0)
(0.903492 0.442495 0)
(0.901211 0.443738 0)
(0.899398 0.444706 0)
(0.898006 0.445435 0)
(0.896966 0.44597 0)
(0.896208 0.446354 0)
(0.895666 0.446623 0)
(0.895284 0.446809 0)
(0.895019 0.446935 0)
(0.894834 0.447021 0)
(0.86653 0.430076 0)
(0.866532 0.42945 0)
(0.86796 0.429681 0)
(0.870526 0.430648 0)
(0.873919 0.432199 0)
(0.87787 0.434164 0)
(0.882168 0.436374 0)
(0.886647 0.438667 0)
(0.891196 0.440878 0)
(0.895763 0.442836 0)
(0.900346 0.444368 0)
(0.904981 0.445328 0)
(0.909739 0.445585 0)
(0.914748 0.44501 0)
(0.920169 0.443493 0)
(0.926168 0.441026 0)
(0.932928 0.437721 0)
(0.940661 0.433707 0)
(0.949537 0.429141 0)
(0.959577 0.424354 0)
(0.970719 0.419829 0)
(0.982917 0.416015 0)
(0.995982 0.413299 0)
(1.00941 0.412087 0)
(1.02257 0.412723 0)
(1.03494 0.415359 0)
(1.04602 0.420017 0)
(1.05514 0.426607 0)
(1.06169 0.434802 0)
(1.06526 0.444051 0)
(1.06564 0.453793 0)
(1.06276 0.463562 0)
(1.05678 0.472885 0)
(1.04809 0.481271 0)
(1.03715 0.488356 0)
(1.0244 0.493962 0)
(1.01035 0.49801 0)
(0.995624 0.500457 0)
(0.980835 0.501327 0)
(0.966466 0.500763 0)
(0.952864 0.498987 0)
(0.940337 0.496208 0)
(0.929205 0.492585 0)
(0.919742 0.488265 0)
(0.912085 0.483425 0)
(0.906194 0.47828 0)
(0.901914 0.473038 0)
(0.899079 0.467846 0)
(0.89759 0.462772 0)
(0.897428 0.457813 0)
(0.8986 0.452947 0)
(0.901047 0.448182 0)
(0.904572 0.443594 0)
(0.908794 0.439342 0)
(0.913178 0.435654 0)
(0.917115 0.432773 0)
(0.920046 0.430899 0)
(0.921586 0.430122 0)
(0.9216 0.430396 0)
(0.920213 0.431545 0)
(0.917748 0.433305 0)
(0.914621 0.435389 0)
(0.911248 0.437538 0)
(0.907964 0.43956 0)
(0.904996 0.441336 0)
(0.902464 0.442815 0)
(0.9004 0.443995 0)
(0.89878 0.444902 0)
(0.897548 0.445579 0)
(0.896635 0.446072 0)
(0.895974 0.446423 0)
(0.895503 0.446669 0)
(0.895172 0.446839 0)
(0.894942 0.446954 0)
(0.894783 0.447032 0)
(0.867471 0.429993 0)
(0.866789 0.428918 0)
(0.867565 0.428735 0)
(0.869558 0.429362 0)
(0.872468 0.430653 0)
(0.876021 0.432445 0)
(0.879992 0.434572 0)
(0.884197 0.436883 0)
(0.888509 0.439219 0)
(0.892858 0.44141 0)
(0.897215 0.443313 0)
(0.901583 0.4448 0)
(0.906009 0.445736 0)
(0.910593 0.445983 0)
(0.91546 0.445468 0)
(0.920731 0.444212 0)
(0.926552 0.442254 0)
(0.933085 0.43962 0)
(0.940432 0.436463 0)
(0.948635 0.433111 0)
(0.957721 0.429905 0)
(0.967642 0.427111 0)
(0.978142 0.425056 0)
(0.988817 0.424135 0)
(0.999303 0.424635 0)
(1.00924 0.426673 0)
(1.01808 0.430283 0)
(1.02524 0.435383 0)
(1.03027 0.441695 0)
(1.03293 0.448836 0)
(1.03304 0.456449 0)
(1.03052 0.464169 0)
(1.02553 0.471568 0)
(1.01836 0.478235 0)
(1.00934 0.483903 0)
(0.998811 0.488427 0)
(0.987236 0.491696 0)
(0.97515 0.493629 0)
(0.963054 0.494238 0)
(0.95132 0.493644 0)
(0.940236 0.492015 0)
(0.93009 0.489498 0)
(0.921179 0.486206 0)
(0.913731 0.482265 0)
(0.907828 0.477844 0)
(0.903408 0.473143 0)
(0.900332 0.468344 0)
(0.898485 0.463561 0)
(0.89782 0.458837 0)
(0.89835 0.454162 0)
(0.900082 0.449528 0)
(0.902929 0.444974 0)
(0.906647 0.440619 0)
(0.910818 0.436661 0)
(0.914895 0.433351 0)
(0.918303 0.430933 0)
(0.920562 0.429575 0)
(0.921394 0.429319 0)
(0.920775 0.430063 0)
(0.918913 0.431586 0)
(0.916168 0.433604 0)
(0.912955 0.43583 0)
(0.909649 0.438027 0)
(0.906535 0.44003 0)
(0.903788 0.44175 0)
(0.901487 0.443156 0)
(0.89964 0.444262 0)
(0.898206 0.445103 0)
(0.897126 0.445725 0)
(0.896332 0.446175 0)
(0.89576 0.446493 0)
(0.895355 0.446716 0)
(0.895071 0.446869 0)
(0.894873 0.446973 0)
(0.894736 0.447044 0)
(0.868746 0.430181 0)
(0.867396 0.428635 0)
(0.867495 0.427989 0)
(0.868867 0.428209 0)
(0.871245 0.429174 0)
(0.874362 0.430721 0)
(0.877972 0.432695 0)
(0.881874 0.434947 0)
(0.88593 0.437319 0)
(0.890054 0.439657 0)
(0.894183 0.441827 0)
(0.898296 0.443706 0)
(0.902431 0.445159 0)
(0.90666 0.446075 0)
(0.911053 0.446413 0)
(0.915691 0.446152 0)
(0.920706 0.445254 0)
(0.926231 0.443753 0)
(0.932342 0.441838 0)
(0.939077 0.439738 0)
(0.946459 0.437623 0)
(0.95441 0.435707 0)
(0.962726 0.434336 0)
(0.971169 0.433822 0)
(0.979495 0.434326 0)
(0.987337 0.43594 0)
(0.994206 0.438741 0)
(0.999684 0.442675 0)
(1.00351 0.447531 0)
(1.00548 0.453056 0)
(1.00541 0.459001 0)
(1.00323 0.465052 0)
(0.999077 0.470835 0)
(0.993184 0.476041 0)
(0.98578 0.480484 0)
(0.977157 0.484029 0)
(0.967721 0.486545 0)
(0.957925 0.487939 0)
(0.948152 0.488227 0)
(0.938689 0.487514 0)
(0.929785 0.485918 0)
(0.921712 0.483531 0)
(0.914734 0.480439 0)
(0.909026 0.476758 0)
(0.904625 0.472654 0)
(0.901455 0.468307 0)
(0.899404 0.463866 0)
(0.898406 0.459413 0)
(0.898457 0.45497 0)
(0.899589 0.450526 0)
(0.901792 0.446094 0)
(0.904938 0.441749 0)
(0.908736 0.437654 0)
(0.912735 0.434043 0)
(0.916393 0.431179 0)
(0.919188 0.429287 0)
(0.920734 0.428491 0)
(0.920867 0.428773 0)
(0.919666 0.429975 0)
(0.917405 0.431838 0)
(0.914467 0.434067 0)
(0.911242 0.43639 0)
(0.908059 0.438595 0)
(0.905148 0.440549 0)
(0.902638 0.44219 0)
(0.900571 0.443509 0)
(0.898935 0.444533 0)
(0.89768 0.445304 0)
(0.896742 0.445869 0)
(0.896058 0.446276 0)
(0.895567 0.446562 0)
(0.895221 0.446762 0)
(0.894979 0.446899 0)
(0.894811 0.446992 0)
(0.894694 0.447056 0)
(0.870352 0.430664 0)
(0.868373 0.428646 0)
(0.867779 0.4275 0)
(0.868497 0.427252 0)
(0.870302 0.427817 0)
(0.872934 0.42905 0)
(0.876139 0.430801 0)
(0.879709 0.432914 0)
(0.883493 0.435239 0)
(0.887377 0.437633 0)
(0.891272 0.439973 0)
(0.895148 0.442124 0)
(0.89903 0.443967 0)
(0.902945 0.445421 0)
(0.906919 0.446429 0)
(0.91103 0.446924 0)
(0.915402 0.446873 0)
(0.920118 0.446354 0)
(0.92521 0.445504 0)
(0.93072 0.444411 0)
(0.936674 0.443188 0)
(0.943011 0.442083 0)
(0.949594 0.441378 0)
(0.956263 0.441244 0)
(0.962788 0.441785 0)
(0.968839 0.443133 0)
(0.974074 0.445378 0)
(0.978247 0.44846 0)
(0.981155 0.452222 0)
(0.982574 0.456505 0)
(0.982339 0.461122 0)
(0.980443 0.4658 0)
(0.977006 0.470243 0)
(0.972182 0.474235 0)
(0.966141 0.477634 0)
(0.959144 0.480305 0)
(0.951546 0.482112 0)
(0.943704 0.482981 0)
(0.935905 0.482935 0)
(0.928373 0.482055 0)
(0.921339 0.480415 0)
(0.915053 0.478073 0)
(0.909736 0.475097 0)
(0.905508 0.471602 0)
(0.902369 0.467745 0)
(0.900244 0.463684 0)
(0.899057 0.459535 0)
(0.898785 0.455349 0)
(0.899455 0.451132 0)
(0.901098 0.446883 0)
(0.903676 0.442642 0)
(0.90701 0.438529 0)
(0.910765 0.434744 0)
(0.914468 0.431548 0)
(0.917602 0.429201 0)
(0.919716 0.427894 0)
(0.920533 0.427692 0)
(0.920001 0.428513 0)
(0.918291 0.430144 0)
(0.915723 0.432299 0)
(0.912678 0.434686 0)
(0.909512 0.437053 0)
(0.906501 0.439225 0)
(0.903821 0.441101 0)
(0.901557 0.442645 0)
(0.899724 0.443867 0)
(0.89829 0.444804 0)
(0.897202 0.445502 0)
(0.896396 0.44601 0)
(0.895812 0.446373 0)
(0.895395 0.446628 0)
(0.895102 0.446806 0)
(0.894897 0.446927 0)
(0.894755 0.447011 0)
(0.894656 0.447068 0)
(0.872253 0.431442 0)
(0.869721 0.428986 0)
(0.868457 0.427323 0)
(0.868495 0.426558 0)
(0.869683 0.426654 0)
(0.871781 0.427499 0)
(0.874539 0.42895 0)
(0.877746 0.430849 0)
(0.881229 0.433046 0)
(0.884846 0.435413 0)
(0.888506 0.437822 0)
(0.892169 0.44014 0)
(0.895816 0.442258 0)
(0.899434 0.444105 0)
(0.903056 0.445606 0)
(0.906763 0.44669 0)
(0.910621 0.447351 0)
(0.91465 0.447645 0)
(0.918892 0.447616 0)
(0.923424 0.447309 0)
(0.928263 0.446863 0)
(0.933332 0.446487 0)
(0.938526 0.446343 0)
(0.943734 0.446524 0)
(0.948774 0.44716 0)
(0.953397 0.448397 0)
(0.957383 0.450277 0)
(0.960554 0.452727 0)
(0.962715 0.455657 0)
(0.963668 0.458982 0)
(0.963311 0.462541 0)
(0.961677 0.466105 0)
(0.95885 0.469463 0)
(0.954922 0.472464 0)
(0.950031 0.474986 0)
(0.944418 0.476891 0)
(0.938379 0.478061 0)
(0.932186 0.478448 0)
(0.926046 0.478081 0)
(0.920149 0.477013 0)
(0.914706 0.475288 0)
(0.90994 0.47294 0)
(0.906025 0.470032 0)
(0.903032 0.466678 0)
(0.900938 0.463025 0)
(0.899681 0.459203 0)
(0.899218 0.455294 0)
(0.899563 0.451325 0)
(0.900758 0.447298 0)
(0.90282 0.443227 0)
(0.905668 0.439191 0)
(0.909071 0.435352 0)
(0.912653 0.431945 0)
(0.915938 0.429244 0)
(0.918456 0.427488 0)
(0.919847 0.426815 0)
(0.919946 0.427222 0)
(0.918812 0.428558 0)
(0.916683 0.430569 0)
(0.913906 0.432955 0)
(0.910843 0.435438 0)
(0.9078 0.4378 0)
(0.905 0.4399 0)
(0.902569 0.441672 0)
(0.900554 0.443104 0)
(0.898947 0.444221 0)
(0.897706 0.445068 0)
(0.896773 0.445693 0)
(0.896088 0.446145 0)
(0.895593 0.446466 0)
(0.895243 0.446691 0)
(0.894997 0.446847 0)
(0.894825 0.446955 0)
(0.894705 0.447028 0)
(0.894622 0.447079 0)
(0.874396 0.432499 0)
(0.871428 0.429671 0)
(0.869542 0.427503 0)
(0.868896 0.426189 0)
(0.86943 0.425758 0)
(0.870948 0.426143 0)
(0.873218 0.427213 0)
(0.876021 0.428818 0)
(0.879167 0.430814 0)
(0.882499 0.433069 0)
(0.885921 0.43545 0)
(0.889367 0.437832 0)
(0.892781 0.440121 0)
(0.896143 0.442236 0)
(0.899492 0.444093 0)
(0.902868 0.445631 0)
(0.906278 0.446847 0)
(0.909748 0.447751 0)
(0.91335 0.448345 0)
(0.917138 0.448687 0)
(0.921083 0.448908 0)
(0.925119 0.449131 0)
(0.929205 0.449431 0)
(0.933269 0.449903 0)
(0.937157 0.450691 0)
(0.940687 0.451894 0)
(0.943711 0.453508 0)
(0.946087 0.455489 0)
(0.947641 0.457809 0)
(0.948231 0.460404 0)
(0.947816 0.463127 0)
(0.946431 0.465802 0)
(0.944121 0.468292 0)
(0.940943 0.470491 0)
(0.937026 0.472281 0)
(0.932588 0.473529 0)
(0.927864 0.474145 0)
(0.923047 0.474111 0)
(0.918292 0.473454 0)
(0.913766 0.472203 0)
(0.909665 0.470373 0)
(0.906179 0.467993 0)
(0.903432 0.465132 0)
(0.901455 0.4619 0)
(0.900216 0.458424 0)
(0.899669 0.454807 0)
(0.89981 0.451101 0)
(0.900675 0.447317 0)
(0.902307 0.443459 0)
(0.904692 0.439573 0)
(0.907696 0.435777 0)
(0.911037 0.432276 0)
(0.914312 0.429334 0)
(0.917066 0.427214 0)
(0.918896 0.426115 0)
(0.91955 0.426107 0)
(0.918977 0.427111 0)
(0.917325 0.428917 0)
(0.914885 0.43124 0)
(0.912001 0.433785 0)
(0.909 0.4363 0)
(0.906137 0.438606 0)
(0.903579 0.440601 0)
(0.901406 0.442248 0)
(0.899637 0.443558 0)
(0.898246 0.444565 0)
(0.897184 0.445321 0)
(0.896392 0.445875 0)
(0.895815 0.446273 0)
(0.895402 0.446554 0)
(0.895109 0.446751 0)
(0.894904 0.446887 0)
(0.894761 0.446981 0)
(0.894662 0.447045 0)
(0.894591 0.44709 0)
(0.876701 0.433799 0)
(0.873443 0.4307 0)
(0.871027 0.428072 0)
(0.869728 0.4262 0)
(0.869589 0.425205 0)
(0.870487 0.425062 0)
(0.872224 0.425672 0)
(0.874578 0.426902 0)
(0.877347 0.428618 0)
(0.880373 0.430674 0)
(0.883539 0.432935 0)
(0.886752 0.435292 0)
(0.889944 0.437658 0)
(0.893095 0.439928 0)
(0.896211 0.442012 0)
(0.899292 0.44387 0)
(0.902339 0.44549 0)
(0.905396 0.446846 0)
(0.908517 0.447931 0)
(0.911703 0.448805 0)
(0.914922 0.449551 0)
(0.918166 0.450225 0)
(0.921426 0.450883 0)
(0.924619 0.451631 0)
(0.927617 0.45258 0)
(0.930305 0.453769 0)
(0.932588 0.455188 0)
(0.934344 0.45684 0)
(0.935436 0.458719 0)
(0.935782 0.460758 0)
(0.935375 0.462827 0)
(0.934226 0.464806 0)
(0.93235 0.466611 0)
(0.929803 0.468161 0)
(0.926716 0.469342 0)
(0.923269 0.470041 0)
(0.919636 0.470197 0)
(0.915953 0.469812 0)
(0.912347 0.468905 0)
(0.908971 0.467485 0)
(0.905998 0.465554 0)
(0.903577 0.463142 0)
(0.901787 0.460324 0)
(0.900631 0.457206 0)
(0.900079 0.453895 0)
(0.900114 0.45046 0)
(0.900758 0.44693 0)
(0.902057 0.44331 0)
(0.904036 0.439623 0)
(0.906636 0.435951 0)
(0.909668 0.432458 0)
(0.91281 0.429384 0)
(0.91565 0.427 0)
(0.917778 0.425544 0)
(0.918881 0.425151 0)
(0.918819 0.425811 0)
(0.917648 0.427372 0)
(0.915588 0.429578 0)
(0.912949 0.432132 0)
(0.910058 0.434759 0)
(0.907192 0.437243 0)
(0.904553 0.439448 0)
(0.902255 0.441309 0)
(0.900343 0.442816 0)
(0.898811 0.443996 0)
(0.897622 0.444894 0)
(0.896723 0.44556 0)
(0.896059 0.446044 0)
(0.895578 0.446391 0)
(0.895235 0.446635 0)
(0.894993 0.446805 0)
(0.894824 0.446923 0)
(0.894706 0.447005 0)
(0.894623 0.447061 0)
(0.894564 0.447101 0)
(0.87907 0.435263 0)
(0.875701 0.432041 0)
(0.872881 0.429044 0)
(0.870992 0.426644 0)
(0.870192 0.425059 0)
(0.870447 0.424336 0)
(0.871604 0.424416 0)
(0.873459 0.425196 0)
(0.875814 0.426543 0)
(0.878504 0.428312 0)
(0.881387 0.430377 0)
(0.884352 0.432626 0)
(0.887331 0.434959 0)
(0.890288 0.437268 0)
(0.89319 0.439479 0)
(0.896017 0.441554 0)
(0.898787 0.44345 0)
(0.901537 0.445123 0)
(0.904273 0.446573 0)
(0.906979 0.447845 0)
(0.909659 0.448975 0)
(0.912334 0.449991 0)
(0.914972 0.45095 0)
(0.917489 0.451943 0)
(0.919806 0.453025 0)
(0.921869 0.454206 0)
(0.923604 0.455495 0)
(0.924903 0.45692 0)
(0.925672 0.458473 0)
(0.925874 0.460076 0)
(0.925509 0.461636 0)
(0.924576 0.463084 0)
(0.923078 0.464362 0)
(0.921078 0.46539 0)
(0.918696 0.46607 0)
(0.916078 0.466321 0)
(0.913343 0.466113 0)
(0.910591 0.465448 0)
(0.907936 0.464335 0)
(0.905518 0.46277 0)
(0.903482 0.460755 0)
(0.901934 0.458327 0)
(0.900915 0.455565 0)
(0.900417 0.452565 0)
(0.900419 0.449408 0)
(0.900929 0.446139 0)
(0.901987 0.44277 0)
(0.903635 0.439314 0)
(0.905864 0.435822 0)
(0.908561 0.432421 0)
(0.911486 0.429318 0)
(0.91429 0.426775 0)
(0.91658 0.425048 0)
(0.918016 0.424323 0)
(0.918389 0.424655 0)
(0.917672 0.425952 0)
(0.916007 0.428001 0)
(0.913659 0.430516 0)
(0.910937 0.43321 0)
(0.908128 0.435839 0)
(0.905457 0.438235 0)
(0.903072 0.440301 0)
(0.901042 0.442007 0)
(0.899385 0.443364 0)
(0.898075 0.444413 0)
(0.897071 0.445202 0)
(0.896319 0.445782 0)
(0.895769 0.446201 0)
(0.895372 0.4465 0)
(0.895091 0.446709 0)
(0.894893 0.446855 0)
(0.894755 0.446957 0)
(0.894658 0.447027 0)
(0.89459 0.447076 0)
(0.894541 0.447111 0)
(0.881391 0.436806 0)
(0.878094 0.433616 0)
(0.875045 0.430398 0)
(0.872675 0.427549 0)
(0.871256 0.425378 0)
(0.87086 0.42404 0)
(0.871402 0.423538 0)
(0.872716 0.423792 0)
(0.874617 0.424683 0)
(0.876929 0.426086 0)
(0.879498 0.427872 0)
(0.882203 0.429922 0)
(0.884963 0.432121 0)
(0.887717 0.434379 0)
(0.890418 0.436632 0)
(0.893044 0.438814 0)
(0.895605 0.440857 0)
(0.898104 0.442727 0)
(0.900533 0.444436 0)
(0.902888 0.445994 0)
(0.905191 0.447399 0)
(0.907442 0.448671 0)
(0.9096 0.449869 0)
(0.911612 0.451045 0)
(0.913446 0.452218 0)
(0.915069 0.453397 0)
(0.916411 0.454612 0)
(0.917385 0.455882 0)
(0.917942 0.457181 0)
(0.918076 0.458445 0)
(0.917782 0.459619 0)
(0.917046 0.460666 0)
(0.915883 0.461536 0)
(0.91436 0.46215 0)
(0.912583 0.462428 0)
(0.910654 0.462326 0)
(0.908656 0.461834 0)
(0.90667 0.460957 0)
(0.904801 0.459685 0)
(0.903176 0.458008 0)
(0.901909 0.455937 0)
(0.901066 0.453519 0)
(0.900661 0.450833 0)
(0.900682 0.447959 0)
(0.901127 0.444955 0)
(0.902025 0.441843 0)
(0.903419 0.438634 0)
(0.905329 0.435361 0)
(0.907701 0.432117 0)
(0.910365 0.429074 0)
(0.91304 0.42647 0)
(0.915376 0.424567 0)
(0.917028 0.423581 0)
(0.917744 0.423623 0)
(0.917429 0.424661 0)
(0.916151 0.42653 0)
(0.914118 0.428968 0)
(0.91161 0.431688 0)
(0.90891 0.434427 0)
(0.906259 0.436987 0)
(0.903827 0.439243 0)
(0.901712 0.441141 0)
(0.89995 0.442678 0)
(0.898534 0.443883 0)
(0.897431 0.444801 0)
(0.896593 0.445485 0)
(0.895972 0.445985 0)
(0.89552 0.446344 0)
(0.895196 0.446598 0)
(0.894968 0.446776 0)
(0.894807 0.446901 0)
(0.894695 0.446987 0)
(0.894616 0.447048 0)
(0.89456 0.44709 0)
(0.89452 0.44712 0)
(0.883567 0.438339 0)
(0.8805 0.435325 0)
(0.877415 0.432058 0)
(0.874723 0.428899 0)
(0.872773 0.426213 0)
(0.87175 0.424254 0)
(0.871664 0.42312 0)
(0.872401 0.422782 0)
(0.873801 0.423146 0)
(0.875692 0.424097 0)
(0.877913 0.425518 0)
(0.880333 0.42728 0)
(0.882855 0.429269 0)
(0.8854 0.431394 0)
(0.887916 0.433582 0)
(0.890372 0.435754 0)
(0.892753 0.437846 0)
(0.895046 0.439832 0)
(0.897244 0.441702 0)
(0.899355 0.443435 0)
(0.901384 0.445017 0)
(0.903316 0.44647 0)
(0.905123 0.447836 0)
(0.90679 0.449133 0)
(0.908301 0.450366 0)
(0.909616 0.451552 0)
(0.910676 0.452722 0)
(0.911438 0.453872 0)
(0.911886 0.454969 0)
(0.912013 0.455973 0)
(0.911806 0.456862 0)
(0.911254 0.457608 0)
(0.910392 0.45816 0)
(0.909289 0.458448 0)
(0.908025 0.458421 0)
(0.906668 0.458057 0)
(0.905276 0.457359 0)
(0.903924 0.456322 0)
(0.90271 0.454931 0)
(0.901739 0.453179 0)
(0.901091 0.451088 0)
(0.900805 0.448713 0)
(0.900879 0.446127 0)
(0.90131 0.443391 0)
(0.902112 0.44054 0)
(0.903323 0.437588 0)
(0.904975 0.434558 0)
(0.90705 0.431517 0)
(0.909441 0.428604 0)
(0.911931 0.426028 0)
(0.914219 0.424042 0)
(0.91598 0.422879 0)
(0.916943 0.42269 0)
(0.91696 0.423496 0)
(0.916038 0.42518 0)
(0.914325 0.427517 0)
(0.91206 0.430227 0)
(0.909513 0.433039 0)
(0.906928 0.435734 0)
(0.904493 0.43816 0)
(0.902327 0.440239 0)
(0.900486 0.44195 0)
(0.898981 0.443311 0)
(0.897789 0.444363 0)
(0.896872 0.445157 0)
(0.896182 0.445743 0)
(0.895675 0.446168 0)
(0.895308 0.446472 0)
(0.895047 0.446686 0)
(0.894863 0.446836 0)
(0.894735 0.446941 0)
(0.894644 0.447015 0)
(0.894581 0.447066 0)
(0.894535 0.447103 0)
(0.894502 0.447129 0)
(0.885531 0.439788 0)
(0.882799 0.437062 0)
(0.879856 0.433913 0)
(0.877035 0.430627 0)
(0.874699 0.427562 0)
(0.873122 0.425036 0)
(0.872417 0.423249 0)
(0.872557 0.422265 0)
(0.873418 0.422035 0)
(0.87484 0.42246 0)
(0.876669 0.423426 0)
(0.878773 0.424814 0)
(0.881035 0.426511 0)
(0.883364 0.428418 0)
(0.885693 0.430446 0)
(0.887984 0.43252 0)
(0.890208 0.434584 0)
(0.892337 0.436598 0)
(0.894364 0.438523 0)
(0.896295 0.440328 0)
(0.898125 0.442008 0)
(0.899833 0.443578 0)
(0.901407 0.445046 0)
(0.902846 0.44641 0)
(0.904137 0.447675 0)
(0.905244 0.448863 0)
(0.906128 0.44999 0)
(0.906773 0.451039 0)
(0.907178 0.451982 0)
(0.907337 0.452798 0)
(0.907233 0.453476 0)
(0.906871 0.45399 0)
(0.906291 0.454294 0)
(0.905554 0.454336 0)
(0.904719 0.454088 0)
(0.903832 0.453544 0)
(0.90294 0.452702 0)
(0.902115 0.451552 0)
(0.901444 0.450081 0)
(0.901009 0.448293 0)
(0.900857 0.446221 0)
(0.901005 0.443924 0)
(0.901451 0.441461 0)
(0.902203 0.438874 0)
(0.903289 0.436185 0)
(0.90474 0.433414 0)
(0.906563 0.430609 0)
(0.908691 0.42788 0)
(0.910966 0.425409 0)
(0.913141 0.423429 0)
(0.914922 0.422176 0)
(0.916038 0.421826 0)
(0.916311 0.422444 0)
(0.915697 0.423958 0)
(0.914288 0.426182 0)
(0.912281 0.428856 0)
(0.909919 0.43171 0)
(0.907442 0.434507 0)
(0.905045 0.437078 0)
(0.902864 0.43932 0)
(0.900974 0.441196 0)
(0.899401 0.44271 0)
(0.898136 0.443895 0)
(0.897147 0.444801 0)
(0.896394 0.445477 0)
(0.895834 0.445973 0)
(0.895425 0.44633 0)
(0.895131 0.446585 0)
(0.894923 0.446764 0)
(0.894776 0.44689 0)
(0.894674 0.446978 0)
(0.894602 0.447039 0)
(0.89455 0.447083 0)
(0.894514 0.447114 0)
(0.894487 0.447136 0)
(0.887238 0.441091 0)
(0.884896 0.43872 0)
(0.882233 0.435834 0)
(0.879476 0.432613 0)
(0.87694 0.429353 0)
(0.874938 0.426391 0)
(0.873675 0.424003 0)
(0.873215 0.422346 0)
(0.873505 0.421458 0)
(0.874421 0.421284 0)
(0.875823 0.421718 0)
(0.87757 0.422646 0)
(0.879538 0.423965 0)
(0.881626 0.42557 0)
(0.883761 0.427361 0)
(0.885888 0.429259 0)
(0.887962 0.431208 0)
(0.889954 0.433152 0)
(0.891851 0.435041 0)
(0.893649 0.436847 0)
(0.895332 0.43856 0)
(0.89689 0.440178 0)
(0.898319 0.441684 0)
(0.899617 0.443068 0)
(0.900767 0.444342 0)
(0.901743 0.445519 0)
(0.902533 0.446596 0)
(0.903137 0.447553 0)
(0.903553 0.448375 0)
(0.903771 0.449053 0)
(0.903784 0.449576 0)
(0.90361 0.449915 0)
(0.903292 0.450031 0)
(0.902877 0.449894 0)
(0.902402 0.449493 0)
(0.901903 0.44883 0)
(0.901428 0.447895 0)
(0.901043 0.446677 0)
(0.900821 0.445169 0)
(0.900815 0.443388 0)
(0.90105 0.441377 0)
(0.901534 0.439189 0)
(0.902269 0.43687 0)
(0.903273 0.434447 0)
(0.904576 0.431942 0)
(0.90619 0.429394 0)
(0.908081 0.426893 0)
(0.910134 0.424591 0)
(0.912152 0.422697 0)
(0.913882 0.421438 0)
(0.91507 0.421004 0)
(0.915523 0.421489 0)
(0.91516 0.422865 0)
(0.914027 0.424981 0)
(0.912275 0.427603 0)
(0.910118 0.43047 0)
(0.907781 0.433341 0)
(0.90546 0.436027 0)
(0.903301 0.438411 0)
(0.901393 0.440435 0)
(0.899777 0.442092 0)
(0.898456 0.443408 0)
(0.897409 0.444425 0)
(0.896601 0.445194 0)
(0.895991 0.445762 0)
(0.895541 0.446176 0)
(0.895215 0.446473 0)
(0.894983 0.446684 0)
(0.894818 0.446833 0)
(0.894703 0.446937 0)
(0.894622 0.44701 0)
(0.894566 0.447062 0)
(0.894525 0.447098 0)
(0.894495 0.447125 0)
(0.894473 0.447144 0)
(0.88869 0.442236 0)
(0.886736 0.440224 0)
(0.884427 0.437696 0)
(0.881887 0.434706 0)
(0.879352 0.431457 0)
(0.877104 0.428251 0)
(0.8754 0.42539 0)
(0.87439 0.423108 0)
(0.874107 0.421537 0)
(0.874487 0.420694 0)
(0.875418 0.420516 0)
(0.876765 0.420906 0)
(0.878401 0.421762 0)
(0.88022 0.422979 0)
(0.882138 0.424451 0)
(0.884087 0.426097 0)
(0.886015 0.427846 0)
(0.887885 0.42964 0)
(0.889676 0.431427 0)
(0.891366 0.433171 0)
(0.892945 0.434849 0)
(0.894407 0.436437 0)
(0.895749 0.437919 0)
(0.896961 0.439288 0)
(0.898029 0.440547 0)
(0.898945 0.441693 0)
(0.89971 0.44271 0)
(0.900324 0.443581 0)
(0.900781 0.444305 0)
(0.901075 0.444879 0)
(0.901216 0.445285 0)
(0.901231 0.445492 0)
(0.901157 0.445472 0)
(0.901021 0.445214 0)
(0.900851 0.444717 0)
(0.900678 0.44398 0)
(0.900552 0.442993 0)
(0.900532 0.441747 0)
(0.90067 0.440245 0)
(0.901 0.438517 0)
(0.901534 0.436607 0)
(0.902276 0.434558 0)
(0.903234 0.432404 0)
(0.90443 0.430172 0)
(0.90588 0.427898 0)
(0.907564 0.425654 0)
(0.909403 0.42357 0)
(0.911245 0.42183 0)
(0.912877 0.420645 0)
(0.914069 0.420205 0)
(0.91463 0.420623 0)
(0.914458 0.421901 0)
(0.913561 0.423926 0)
(0.91205 0.426492 0)
(0.910107 0.429352 0)
(0.907934 0.432266 0)
(0.905722 0.435039 0)
(0.90362 0.437537 0)
(0.901726 0.43969 0)
(0.900094 0.441477 0)
(0.898739 0.442914 0)
(0.897648 0.444038 0)
(0.896795 0.444896 0)
(0.896143 0.445539 0)
(0.895656 0.446011 0)
(0.8953 0.446353 0)
(0.895044 0.446598 0)
(0.894861 0.44677 0)
(0.894733 0.446892 0)
(0.894643 0.446978 0)
(0.89458 0.447038 0)
(0.894535 0.447081 0)
(0.894503 0.447112 0)
(0.894479 0.447134 0)
(0.894462 0.447151 0)
(0.889898 0.443225 0)
(0.888303 0.44155 0)
(0.886365 0.439397 0)
(0.88414 0.436755 0)
(0.881769 0.433711 0)
(0.879473 0.430476 0)
(0.877499 0.427336 0)
(0.87605 0.424563 0)
(0.875238 0.422354 0)
(0.875077 0.420818 0)
(0.875502 0.419964 0)
(0.876403 0.419738 0)
(0.877667 0.420044 0)
(0.879184 0.42078 0)
(0.880858 0.42185 0)
(0.882609 0.423165 0)
(0.884377 0.424643 0)
(0.88612 0.426216 0)
(0.887808 0.427831 0)
(0.889415 0.429443 0)
(0.890921 0.431017 0)
(0.89232 0.432521 0)
(0.893609 0.433935 0)
(0.894777 0.43525 0)
(0.895814 0.436458 0)
(0.896718 0.437545 0)
(0.897493 0.438492 0)
(0.898144 0.43929 0)
(0.898667 0.439936 0)
(0.899061 0.440423 0)
(0.899343 0.440731 0)
(0.899539 0.440838 0)
(0.899678 0.440727 0)
(0.89978 0.440397 0)
(0.899869 0.439847 0)
(0.899978 0.439073 0)
(0.90015 0.438069 0)
(0.900432 0.436833 0)
(0.900858 0.435382 0)
(0.901447 0.433749 0)
(0.902204 0.431975 0)
(0.903137 0.430097 0)
(0.904257 0.428145 0)
(0.905579 0.426155 0)
(0.907091 0.424192 0)
(0.908737 0.422366 0)
(0.910398 0.420837 0)
(0.9119 0.419796 0)
(0.913045 0.419423 0)
(0.913655 0.41984 0)
(0.913617 0.421071 0)
(0.912914 0.42303 0)
(0.911623 0.425541 0)
(0.909891 0.428379 0)
(0.907899 0.431312 0)
(0.905821 0.434143 0)
(0.903806 0.436728 0)
(0.901957 0.438986 0)
(0.900337 0.440883 0)
(0.89897 0.442428 0)
(0.897853 0.44365 0)
(0.896967 0.444595 0)
(0.896282 0.445309 0)
(0.895764 0.445839 0)
(0.89538 0.446226 0)
(0.895102 0.446505 0)
(0.894903 0.446704 0)
(0.894762 0.446845 0)
(0.894663 0.446943 0)
(0.894594 0.447013 0)
(0.894545 0.447063 0)
(0.89451 0.447098 0)
(0.894485 0.447124 0)
(0.894466 0.447143 0)
(0.894451 0.447157 0)
(0.890888 0.444061 0)