/*--------------------------------*- C++ -*----------------------------------*\
  =========                 |
  \\      /  F ield         | OpenFOAM: The Open Source CFD Toolbox
   \\    /   O peration     | Website:  https://openfoam.org
    \\  /    A nd           | Version:  6
     \\/     M anipulation  |
\*---------------------------------------------------------------------------*/
FoamFile
{
    version     2.0;
    format      ascii;
    class       volScalarField;
    location    "3.49";
    object      p;
}
// * * * * * * * * * * * * * * * * * * * * * * * * * * * * * * * * * * * * * //

dimensions      [1 -1 -2 0 0 0 0];

internalField   nonuniform List<scalar> 
5625
(
1.03538
1.02926
1.02187
1.01379
1.00547
0.99729
0.989538
0.982427
0.976066
0.970434
0.965419
0.960797
0.956231
0.951344
0.945831
0.939496
0.932315
0.92448
0.916403
0.908636
0.901753
0.896344
0.89295
0.891859
0.893089
0.896543
0.901928
0.90866
0.916085
0.923705
0.931122
0.937956
0.944009
0.949436
0.954613
0.959851
0.965275
0.970947
0.97704
0.983859
0.991686
1.00056
1.01012
1.01964
1.02813
1.03462
1.03844
1.03936
1.03768
1.03404
1.02923
1.02402
1.01901
1.01455
1.01082
1.00786
1.00559
1.00391
1.0027
1.00184
1.00126
1.00085
1.00058
1.0004
1.00028
1.0002
1.00014
1.0001
1.00007
1.00005
1.00004
1.00003
1.00002
1.00001
1.00001
1.03732
1.03197
1.02519
1.01753
1.00949
1.00145
0.993717
0.986537
0.980047
0.974284
0.969216
0.964716
0.960537
0.956402
0.952064
0.947332
0.942117
0.936505
0.930767
0.925244
0.920294
0.916351
0.913816
0.912868
0.913541
0.915819
0.919486
0.924097
0.929224
0.934586
0.93993
0.944991
0.949681
0.954195
0.958839
0.963802
0.969111
0.974791
0.981001
0.988006
0.996004
1.00492
1.01429
1.0233
1.03099
1.03648
1.03922
1.03918
1.03675
1.03263
1.02763
1.02244
1.01758
1.01335
1.00987
1.00713
1.00505
1.00353
1.00243
1.00167
1.00114
1.00078
1.00054
1.00037
1.00026
1.00018
1.00013
1.00009
1.00007
1.00005
1.00003
1.00002
1.00002
1.00001
1.00001
1.039
1.03452
1.02845
1.02132
1.01363
1.0058
0.99815
0.990947
0.984349
0.978443
0.973267
0.968748
0.964709
0.96096
0.957326
0.953629
0.949745
0.945703
0.94165
0.937742
0.934195
0.931345
0.929462
0.928637
0.928927
0.930366
0.932778
0.935846
0.939342
0.943134
0.947052
0.950921
0.954741
0.958727
0.963107
0.967958
0.973245
0.978985
0.985335
0.992517
1.00064
1.0095
1.01854
1.02691
1.03366
1.03804
1.03967
1.03866
1.03553
1.03102
1.02589
1.02078
1.01612
1.01215
1.00892
1.00641
1.00453
1.00316
1.00218
1.00149
1.00102
1.0007
1.00049
1.00034
1.00024
1.00017
1.00012
1.00009
1.00006
1.00005
1.00003
1.00002
1.00002
1.00001
1.00001
1.04033
1.03683
1.03156
1.02507
1.01784
1.01029
1.0028
0.995632
0.988969
0.982943
0.977625
0.972982
0.968912
0.965313
0.962055
0.958957
0.955887
0.952855
0.949906
0.947075
0.944511
0.942457
0.941051
0.94033
0.940381
0.941253
0.9428
0.944822
0.947242
0.950022
0.953033
0.95617
0.959507
0.963249
0.967545
0.972392
0.977719
0.983549
0.990041
0.997369
1.00554
1.01423
1.0228
1.03035
1.03603
1.03922
1.03971
1.03778
1.03403
1.02921
1.02404
1.01907
1.01466
1.01096
1.008
1.00573
1.00403
1.00281
1.00194
1.00133
1.00092
1.00063
1.00044
1.00031
1.00022
1.00016
1.00012
1.00008
1.00006
1.00004
1.00003
1.00002
1.00002
1.00001
1.00001
1.04123
1.03879
1.03444
1.02869
1.02202
1.01488
1.00763
1.00055
0.993879
0.987769
0.98231
0.977502
0.973323
0.969726
0.96659
0.963741
0.961095
0.958654
0.956376
0.954227
0.952319
0.950799
0.949705
0.949073
0.949004
0.949521
0.950511
0.951887
0.95367
0.955854
0.958345
0.961099
0.964236
0.967932
0.972258
0.977155
0.98255
0.988484
0.995106
1.00252
1.01064
1.01901
1.02693
1.03351
1.038
1.03993
1.03931
1.03653
1.03226
1.02724
1.02211
1.01734
1.0132
1.0098
1.00711
1.00507
1.00356
1.00248
1.00171
1.00118
1.00082
1.00057
1.0004
1.00028
1.0002
1.00015
1.00011
1.00008
1.00006
1.00004
1.00003
1.00002
1.00001
1.00001
1.00001
1.04161
1.04031
1.03699
1.03209
1.0261
1.01946
1.01254
1.00565
0.999042
0.992899
0.987327
0.982369
0.978049
0.974346
0.971142
0.968329
0.965875
0.963736
0.961796
0.96003
0.958525
0.957329
0.956425
0.955871
0.955762
0.95608
0.956749
0.957785
0.959253
0.96114
0.963382
0.965999
0.969128
0.972897
0.97731
0.982277
0.987743
0.993772
1.00049
1.00792
1.01584
1.02373
1.0308
1.03626
1.03945
1.04012
1.03844
1.03492
1.03025
1.02513
1.02013
1.01561
1.01178
1.00868
1.00627
1.00445
1.00312
1.00217
1.0015
1.00104
1.00072
1.00051
1.00036
1.00026
1.00019
1.00014
1.0001
1.00007
1.00005
1.00004
1.00003
1.00002
1.00001
1.00001
1.00001
1.04139
1.04128
1.03908
1.03516
1.02996
1.02393
1.01746
1.01086
1.00441
0.998301
0.992665
0.987586
0.983122
0.979253
0.975909
0.973042
0.970621
0.968548
0.966716
0.96514
0.963859
0.96283
0.962032
0.961552
0.961449
0.961673
0.962202
0.963116
0.964483
0.966272
0.968447
0.971085
0.974319
0.978217
0.982727
0.987755
0.993279
0.999376
1.00612
1.01345
1.02102
1.02822
1.03428
1.03846
1.0403
1.03973
1.03709
1.03295
1.02802
1.02292
1.01813
1.01391
1.01041
1.00762
1.00547
1.00387
1.00271
1.00189
1.00131
1.00091
1.00064
1.00045
1.00032
1.00023
1.00017
1.00012
1.00009
1.00007
1.00005
1.00004
1.00003
1.00002
1.00001
1.00001
1.00001
1.04051
1.04161
1.04061
1.03777
1.03349
1.0282
1.02229
1.01609
1.00989
1.0039
0.998272
0.993134
0.988558
0.984531
0.981025
0.978045
0.97554
0.973397
0.971565
0.970062
0.968858
0.967886
0.96716
0.966754
0.966673
0.966874
0.967392
0.968325
0.969712
0.971519
0.973748
0.976501
0.979887
0.983915
0.988501
0.993567
0.999121
1.00523
1.01192
1.019
1.02603
1.03233
1.03719
1.03999
1.04047
1.03875
1.03528
1.03069
1.02564
1.02066
1.01614
1.01227
1.0091
1.00662
1.00474
1.00334
1.00234
1.00163
1.00113
1.00079
1.00056
1.0004
1.00029
1.00021
1.00015
1.00011
1.00008
1.00006
1.00005
1.00003
1.00002
1.00002
1.00001
1.00001
1.00001
1.03896
1.04122
1.04145
1.03979
1.03655
1.03212
1.02689
1.02122
1.01538
1.00961
1.00409
0.998973
0.994327
0.99017
0.98653
0.983422
0.980775
0.978515
0.976633
0.975119
0.9739
0.972933
0.972259
0.97191
0.971858
0.972092
0.972682
0.973709
0.975176
0.977061
0.979406
0.982314
0.985847
0.98997
0.994594
0.999664
1.0052
1.01126
1.01775
1.0244
1.03067
1.03588
1.03938
1.04075
1.03992
1.03717
1.03305
1.02818
1.02315
1.0184
1.01421
1.0107
1.00788
1.0057
1.00406
1.00286
1.002
1.0014
1.00098
1.00069
1.00049
1.00035
1.00025
1.00019
1.00014
1.0001
1.00008
1.00006
1.00004
1.00003
1.00002
1.00002
1.00001
1.00001
1.00001
1.03674
1.04006
1.04151
1.04109
1.03899
1.03555
1.03114
1.02611
1.02075
1.01532
1.01002
1.005
1.00035
0.996137
0.992423
0.989196
0.986405
0.984033
0.982083
0.980504
0.979225
0.978248
0.977612
0.977305
0.977287
0.97759
0.978294
0.979439
0.981002
0.982987
0.985467
0.988524
0.99217
0.996335
1.00094
1.00596
1.01143
1.01731
1.02345
1.02946
1.03474
1.03866
1.04071
1.04067
1.03864
1.03505
1.03047
1.0255
1.02062
1.01617
1.01236
1.00922
1.00675
1.00486
1.00345
1.00243
1.0017
1.00119
1.00084
1.00059
1.00042
1.00031
1.00023
1.00017
1.00012
1.00009
1.00007
1.00005
1.00004
1.00003
1.00002
1.00001
1.00001
1.00001
1
1.03391
1.03812
1.04073
1.04155
1.04067
1.03834
1.03488
1.03062
1.02587
1.0209
1.01593
1.0111
1.00655
1.00238
0.99864
0.995329
0.992436
0.989983
0.987958
0.986297
0.984967
0.983992
0.983377
0.983087
0.983109
0.983502
0.984324
0.985573
0.987228
0.98932
0.991924
0.995087
0.998779
1.00292
1.00745
1.01236
1.01765
1.02323
1.02881
1.03393
1.03801
1.04051
1.04109
1.03973
1.03669
1.03247
1.02764
1.02273
1.01811
1.01404
1.01062
1.00787
1.00572
1.0041
1.00291
1.00204
1.00143
1.00101
1.00071
1.00051
1.00037
1.00027
1.0002
1.00015
1.00011
1.00008
1.00006
1.00005
1.00003
1.00002
1.00002
1.00001
1.00001
1.00001
1
1.03061
1.03545
1.03906
1.04109
1.04147
1.04032
1.03792
1.03457
1.03056
1.02618
1.02165
1.01714
1.01281
1.00876
1.00506
1.00174
0.998819
0.99633
0.99424
0.992512
0.991156
0.990187
0.98958
0.989305
0.989382
0.989865
0.990776
0.992098
0.993826
0.996008
0.9987
1.00191
1.00557
1.00962
1.014
1.01872
1.0237
1.02877
1.03356
1.03758
1.04029
1.04131
1.04048
1.03796
1.03414
1.02953
1.02466
1.01995
1.01568
1.01202
1.00902
1.00663
1.0048
1.00343
1.00242
1.00171
1.0012
1.00085
1.0006
1.00043
1.00032
1.00023
1.00017
1.00013
1.0001
1.00007
1.00006
1.00004
1.00003
1.00002
1.00002
1.00001
1.00001
1.00001
1
1.02699
1.03216
1.03654
1.03965
1.04126
1.04136
1.04011
1.03778
1.03465
1.03098
1.02701
1.02295
1.01895
1.01512
1.01155
1.0083
1.00544
1.00295
1.00084
0.99909
0.99774
0.996778
0.996172
0.995917
0.996054
0.99661
0.997578
0.998939
1.00072
1.00295
1.00568
1.00885
1.01241
1.01628
1.02044
1.02483
1.02934
1.03368
1.03745
1.04016
1.04141
1.04097
1.03889
1.03546
1.03112
1.02637
1.02163
1.01724
1.01339
1.01017
1.00756
1.00553
1.00398
1.00284
1.002
1.00141
1.001
1.00071
1.00051
1.00037
1.00027
1.0002
1.00015
1.00012
1.00009
1.00007
1.00005
1.00004
1.00003
1.00002
1.00001
1.00001
1.00001
1
1
1.02325
1.02845
1.03329
1.03726
1.03998
1.04131
1.04128
1.04007
1.03794
1.03512
1.03184
1.02833
1.02477
1.02127
1.01795
1.01488
1.01212
1.0097
1.00762
1.00591
1.00459
1.00364
1.00304
1.00283
1.00302
1.00362
1.00461
1.00598
1.00778
1.01002
1.0127
1.01575
1.01911
1.02272
1.02654
1.03045
1.03427
1.03765
1.04019
1.04148
1.04127
1.03953
1.03644
1.03238
1.02779
1.02311
1.01866
1.01468
1.01128
1.00848
1.00627
1.00455
1.00327
1.00232
1.00164
1.00116
1.00082
1.00059
1.00043
1.00031
1.00023
1.00017
1.00013
1.0001
1.00008
1.00006
1.00004
1.00003
1.00002
1.00002
1.00001
1.00001
1.00001
1
1
1.01962
1.02456
1.02952
1.03403
1.03764
1.04009
1.04128
1.04126
1.04021
1.03836
1.03591
1.03309
1.03008
1.02703
1.02405
1.02125
1.01868
1.01639
1.01442
1.0128
1.01153
1.01062
1.01006
1.00988
1.01011
1.01072
1.01171
1.01307
1.01484
1.01702
1.01956
1.0224
1.02547
1.02871
1.03203
1.03527
1.03818
1.0404
1.04157
1.04144
1.0399
1.03709
1.0333
1.02891
1.02432
1.01988
1.01583
1.01231
1.00936
1.00699
1.00513
1.00371
1.00265
1.00189
1.00133
1.00095
1.00067
1.00049
1.00036
1.00026
1.0002
1.00015
1.00011
1.00009
1.00007
1.00005
1.00004
1.00003
1.00002
1.00002
1.00001
1.00001
1.00001
1
1
1.01623
1.02071
1.02549
1.03019
1.03439
1.03774
1.04002
1.04118
1.04129
1.04049
1.03899
1.03698
1.03465
1.03215
1.02963
1.02719
1.0249
1.02283
1.02103
1.01954
1.01836
1.01751
1.01701
1.01689
1.01713
1.01773
1.01868
1.02
1.02169
1.02372
1.02603
1.02855
1.03122
1.03394
1.03659
1.03895
1.04075
1.04167
1.04147
1.04004
1.03743
1.03386
1.02968
1.02524
1.02086
1.0168
1.01321
1.01016
1.00767
1.00568
1.00415
1.00299
1.00213
1.00152
1.00107
1.00077
1.00055
1.0004
1.0003
1.00022
1.00017
1.00013
1.0001
1.00008
1.00006
1.00004
1.00003
1.00002
1.00002
1.00001
1.00001
1.00001
1
1
1
1.01321
1.01711
1.02147
1.02604
1.03047
1.0344
1.03755
1.03976
1.04099
1.0413
1.04083
1.03974
1.03821
1.03639
1.03443
1.03245
1.03053
1.02877
1.0272
1.02589
1.02484
1.0241
1.02368
1.0236
1.02384
1.0244
1.02529
1.02651
1.02804
1.02983
1.0318
1.0339
1.03602
1.03806
1.03985
1.04116
1.04174
1.04137
1.03993
1.03744
1.03407
1.0301
1.02583
1.02157
1.01756
1.01396
1.01085
1.00827
1.00619
1.00456
1.00331
1.00238
1.0017
1.00121
1.00086
1.00062
1.00045
1.00033
1.00024
1.00019
1.00014
1.00011
1.00008
1.00007
1.00005
1.00004
1.00003
1.00002
1.00002
1.00001
1.00001
1.00001
1
1
1
1.01058
1.01387
1.01769
1.02188
1.0262
1.03036
1.03406
1.03708
1.03928
1.04065
1.04122
1.04111
1.04047
1.03944
1.03815
1.03673
1.03528
1.0339
1.03264
1.03156
1.0307
1.03009
1.02976
1.02971
1.02994
1.03044
1.03123
1.03228
1.03356
1.035
1.03653
1.03807
1.03951
1.04072
1.04152
1.0417
1.04108
1.03956
1.03713
1.03392
1.03014
1.02607
1.02197
1.01806
1.0145
1.0114
1.00878
1.00664
1.00493
1.00361
1.00261
1.00187
1.00134
1.00095
1.00068
1.00049
1.00036
1.00027
1.0002
1.00015
1.00012
1.00009
1.00007
1.00006
1.00004
1.00003
1.00002
1.00002
1.00001
1.00001
1.00001
1
1
1
1
1.00835
1.01107
1.0143
1.01797
1.02193
1.02599
1.02989
1.03338
1.0363
1.03854
1.04006
1.04091
1.04119
1.041
1.04047
1.0397
1.03881
1.03788
1.037
1.03622
1.03559
1.03514
1.0349
1.03488
1.03507
1.03549
1.03612
1.03693
1.03786
1.03886
1.03984
1.04071
1.04136
1.04164
1.04141
1.04052
1.03887
1.03647
1.03339
1.02981
1.02595
1.02204
1.01828
1.01482
1.01177
1.00915
1.00699
1.00525
1.00388
1.00283
1.00204
1.00146
1.00104
1.00074
1.00053
1.00039
1.00029
1.00022
1.00017
1.00013
1.0001
1.00008
1.00006
1.00005
1.00004
1.00003
1.00002
1.00002
1.00001
1.00001
1.00001
1
1
1
1
1.00651
1.0087
1.01136
1.01446
1.01793
1.02164
1.02542
1.02905
1.03235
1.03518
1.03745
1.03914
1.04026
1.0409
1.04114
1.04107
1.04079
1.04038
1.03992
1.03948
1.03911
1.03885
1.03871
1.03871
1.03886
1.03915
1.03956
1.04005
1.04057
1.04105
1.0414
1.04154
1.04136
1.04075
1.03959
1.03782
1.03542
1.03246
1.02908
1.02546
1.02177
1.01821
1.0149
1.01194
1.00938
1.00724
1.00548
1.00409
1.003
1.00218
1.00157
1.00112
1.0008
1.00057
1.00042
1.00031
1.00023
1.00017
1.00014
1.00011
1.00008
1.00007
1.00005
1.00004
1.00003
1.00002
1.00002
1.00001
1.00001
1.00001
1
1
1
1
1
1.00501
1.00675
1.00889
1.01143
1.01436
1.01759
1.02102
1.0245
1.02786
1.03096
1.03368
1.03596
1.03777
1.03912
1.04006
1.04066
1.04098
1.04111
1.04111
1.04103
1.04094
1.04086
1.04083
1.04085
1.04093
1.04106
1.04122
1.04136
1.04142
1.04134
1.04107
1.04051
1.03958
1.0382
1.03633
1.03396
1.03114
1.02798
1.0246
1.02118
1.01785
1.01473
1.01191
1.00945
1.00736
1.00563
1.00423
1.00314
1.00229
1.00166
1.00119
1.00085
1.00061
1.00044
1.00032
1.00024
1.00018
1.00014
1.00011
1.00009
1.00007
1.00005
1.00004
1.00003
1.00003
1.00002
1.00002
1.00001
1.00001
1.00001
1
1
1
1
1
1.00381
1.00517
1.00686
1.0089
1.01129
1.014
1.01696
1.02008
1.02325
1.02633
1.0292
1.03179
1.03403
1.03589
1.03738
1.03853
1.03938
1.04
1.04042
1.04069
1.04087
1.04097
1.04104
1.04107
1.04107
1.04103
1.04092
1.0407
1.04033
1.03976
1.03893
1.03778
1.03628
1.03437
1.03208
1.02943
1.0265
1.0234
1.02026
1.0172
1.01431
1.01168
1.00935
1.00735
1.00568
1.00431
1.00322
1.00237
1.00173
1.00124
1.00089
1.00064
1.00046
1.00033
1.00025
1.00019
1.00014
1.00011
1.00009
1.00007
1.00006
1.00005
1.00004
1.00003
1.00002
1.00002
1.00001
1.00001
1.00001
1
1
1
1
1
1
1.00286
1.00391
1.00523
1.00684
1.00874
1.01094
1.01341
1.01608
1.01888
1.02171
1.02449
1.02711
1.0295
1.03163
1.03346
1.03499
1.03623
1.03721
1.03797
1.03854
1.03894
1.0392
1.03935
1.03938
1.0393
1.0391
1.03875
1.03824
1.03752
1.03656
1.03532
1.03379
1.03194
1.02978
1.02734
1.02468
1.02188
1.01905
1.01628
1.01366
1.01124
1.00908
1.00721
1.00562
1.0043
1.00324
1.00241
1.00176
1.00128
1.00092
1.00066
1.00047
1.00034
1.00025
1.00019
1.00014
1.00011
1.00009
1.00007
1.00006
1.00005
1.00004
1.00003
1.00002
1.00002
1.00001
1.00001
1.00001
1.00001
1
1
1
1
1
1
1.00213
1.00293
1.00394
1.00518
1.00667
1.00842
1.0104
1.01261
1.01497
1.01744
1.01994
1.02238
1.02471
1.02687
1.02881
1.03052
1.03197
1.03318
1.03416
1.03492
1.03548
1.03585
1.03604
1.03608
1.03594
1.03562
1.0351
1.03437
1.03342
1.03223
1.03078
1.02907
1.0271
1.02492
1.02256
1.0201
1.0176
1.01514
1.01279
1.01062
1.00866
1.00693
1.00545
1.00422
1.00321
1.0024
1.00177
1.00129
1.00093
1.00067
1.00048
1.00034
1.00025
1.00019
1.00014
1.00011
1.00009
1.00007
1.00006
1.00005
1.00004
1.00003
1.00002
1.00002
1.00001
1.00001
1.00001
1.00001
1
1
1
1
1
1
1
1.00157
1.00217
1.00294
1.00389
1.00503
1.00639
1.00795
1.00971
1.01164
1.0137
1.01582
1.01797
1.02008
1.02209
1.02396
1.02566
1.02715
1.02844
1.0295
1.03035
1.03099
1.03142
1.03165
1.03167
1.03148
1.03109
1.03049
1.02967
1.02862
1.02735
1.02585
1.02414
1.02226
1.02023
1.0181
1.01594
1.01381
1.01176
1.00984
1.0081
1.00654
1.0052
1.00405
1.00311
1.00234
1.00174
1.00128
1.00092
1.00066
1.00047
1.00034
1.00025
1.00018
1.00014
1.00011
1.00008
1.00007
1.00006
1.00005
1.00004
1.00003
1.00002
1.00002
1.00002
1.00001
1.00001
1.00001
1
1
1
1
1
1
1
1
1.00115
1.0016
1.00217
1.00288
1.00375
1.00479
1.00599
1.00737
1.00889
1.01055
1.01229
1.01409
1.01589
1.01765
1.01933
1.02089
1.02229
1.02353
1.02457
1.02542
1.02606
1.02649
1.02672
1.02674
1.02654
1.02613
1.02551
1.02468
1.02365
1.02242
1.02101
1.01944
1.01775
1.01597
1.01416
1.01235
1.0106
1.00894
1.00742
1.00605
1.00485
1.00382
1.00296
1.00225
1.00168
1.00124
1.0009
1.00065
1.00046
1.00033
1.00024
1.00017
1.00013
1.0001
1.00008
1.00006
1.00005
1.00004
1.00004
1.00003
1.00002
1.00002
1.00002
1.00001
1.00001
1.00001
1.00001
1
1
1
1
1
1
1
1
1.00083
1.00117
1.00159
1.00212
1.00277
1.00355
1.00446
1.00552
1.00669
1.00799
1.00937
1.01082
1.0123
1.01376
1.01519
1.01653
1.01777
1.01887
1.01982
1.02059
1.02119
1.02159
1.02179
1.0218
1.02162
1.02123
1.02065
1.01988
1.01893
1.01783
1.01659
1.01523
1.01379
1.0123
1.01081
1.00936
1.00796
1.00666
1.00548
1.00443
1.00352
1.00275
1.00211
1.00159
1.00118
1.00086
1.00062
1.00044
1.00031
1.00022
1.00016
1.00012
1.00009
1.00007
1.00006
1.00005
1.00004
1.00003
1.00003
1.00002
1.00002
1.00002
1.00001
1.00001
1.00001
1.00001
1
1
1
1
1
1
1
1
1
1.0006
1.00085
1.00116
1.00155
1.00203
1.00261
1.00329
1.00408
1.00497
1.00596
1.00703
1.00817
1.00934
1.01051
1.01167
1.01278
1.01381
1.01474
1.01555
1.01621
1.01673
1.01708
1.01725
1.01725
1.01708
1.01674
1.01623
1.01556
1.01474
1.01381
1.01276
1.01164
1.01046
1.00927
1.00808
1.00694
1.00586
1.00486
1.00397
1.00318
1.0025
1.00194
1.00147
1.00109
1.0008
1.00058
1.00041
1.00029
1.00021
1.00015
1.00011
1.00008
1.00006
1.00005
1.00004
1.00003
1.00003
1.00003
1.00002
1.00002
1.00002
1.00001
1.00001
1.00001
1.00001
1
1
1
1
1
1
1
1
1
1
1.00044
1.00061
1.00084
1.00113
1.00148
1.0019
1.0024
1.00299
1.00365
1.0044
1.00521
1.00607
1.00697
1.00789
1.00879
1.00967
1.0105
1.01125
1.01191
1.01245
1.01287
1.01316
1.0133
1.0133
1.01315
1.01286
1.01243
1.01187
1.0112
1.01043
1.00959
1.00869
1.00776
1.00683
1.00591
1.00504
1.00422
1.00347
1.00281
1.00223
1.00174
1.00133
1.001
1.00073
1.00053
1.00037
1.00026
1.00018
1.00013
1.00009
1.00007
1.00005
1.00004
1.00003
1.00003
1.00003
1.00002
1.00002
1.00002
1.00001
1.00001
1.00001
1.00001
1.00001
1
1
1
1
1
1
1
1
1
1
1
1.00032
1.00045
1.00061
1.00081
1.00107
1.00138
1.00174
1.00217
1.00266
1.00321
1.00381
1.00445
1.00513
1.00582
1.00652
1.00719
1.00783
1.00842
1.00893
1.00936
1.00969
1.00991
1.01002
1.01002
1.00989
1.00965
1.0093
1.00885
1.00832
1.00771
1.00705
1.00635
1.00564
1.00493
1.00424
1.00358
1.00297
1.00242
1.00194
1.00152
1.00117
1.00088
1.00065
1.00047
1.00033
1.00023
1.00016
1.00011
1.00007
1.00005
1.00004
1.00003
1.00003
1.00002
1.00002
1.00002
1.00002
1.00001
1.00001
1.00001
1.00001
1.00001
1.00001
1
1
1
1
1
1
1
1
1
1
1
1
1.00024
1.00033
1.00045
1.00059
1.00077
1.001
1.00126
1.00157
1.00192
1.00232
1.00276
1.00323
1.00373
1.00424
1.00476
1.00527
1.00575
1.00619
1.00658
1.0069
1.00715
1.00732
1.0074
1.00739
1.00728
1.00709
1.00682
1.00646
1.00605
1.00558
1.00507
1.00454
1.00401
1.00348
1.00296
1.00248
1.00204
1.00165
1.0013
1.00101
1.00076
1.00056
1.00041
1.00028
1.00019
1.00013
1.00009
1.00006
1.00004
1.00003
1.00002
1.00002
1.00002
1.00001
1.00001
1.00001
1.00001
1.00001
1.00001
1.00001
1.00001
1.00001
1
1
1
1
1
1
1
1
1
1
1
1
1
1.00017
1.00024
1.00032
1.00043
1.00056
1.00072
1.00091
1.00113
1.00138
1.00167
1.00198
1.00232
1.00268
1.00306
1.00343
1.0038
1.00415
1.00448
1.00476
1.005
1.00518
1.0053
1.00536
1.00534
1.00526
1.00511
1.00489
1.00462
1.00431
1.00395
1.00358
1.00318
1.00278
1.0024
1.00202
1.00168
1.00136
1.00108
1.00084
1.00064
1.00047
1.00034
1.00024
1.00016
1.0001
1.00006
1.00004
1.00002
1.00001
1.00001
1.00001
1.00001
1.00001
1.00001
1.00001
1.00001
1.00001
1.00001
1.00001
1.00001
1.00001
1
1
1
1
1
1
1
1
1
1
1
1
1
1
1.00013
1.00018
1.00024
1.00032
1.00041
1.00052
1.00065
1.00081
1.00099
1.00119
1.00141
1.00165
1.00191
1.00218
1.00245
1.00271
1.00296
1.00319
1.0034
1.00357
1.0037
1.00378
1.00381
1.00379
1.00372
1.00361
1.00344
1.00324
1.003
1.00274
1.00246
1.00217
1.00189
1.00161
1.00134
1.0011
1.00088
1.00069
1.00052
1.00038
1.00027
1.00019
1.00012
1.00007
1.00004
1.00002
1.00001
1
0.999997
0.999998
0.999999
1
1
1
1.00001
1.00001
1.00001
1.00001
1.00001
1
1
1
1
1
1
1
1
1
1
1
1
1
1
1
1
1.0001
1.00014
1.00018
1.00024
1.0003
1.00038
1.00048
1.00058
1.00071
1.00085
1.00101
1.00118
1.00135
1.00154
1.00173
1.00192
1.00209
1.00225
1.00239
1.00251
1.0026
1.00265
1.00266
1.00264
1.00259
1.0025
1.00237
1.00222
1.00205
1.00185
1.00165
1.00145
1.00124
1.00104
1.00086
1.00069
1.00054
1.00041
1.0003
1.00021
1.00014
1.00009
1.00005
1.00002
1
0.999993
0.999989
0.999988
0.999989
0.999991
0.999994
0.999997
0.999999
1
1
1
1
1
1
1
1
1
1
1
1
1
1
1
1
1
1
1
1
1
1
1.00008
1.00011
1.00014
1.00018
1.00022
1.00028
1.00035
1.00043
1.00051
1.00061
1.00072
1.00084
1.00096
1.00109
1.00121
1.00134
1.00146
1.00157
1.00166
1.00174
1.00179
1.00183
1.00183
1.00181
1.00177
1.0017
1.0016
1.00149
1.00136
1.00122
1.00108
1.00093
1.00079
1.00065
1.00053
1.00041
1.00031
1.00022
1.00015
1.0001
1.00006
1.00002
1
0.999987
0.99998
0.999977
0.999978
0.99998
0.999984
0.999988
0.999992
0.999995
0.999998
1
1
1
1
1
1
1
1
1
1
1
1
1
1
1
1
1
1
1
1
1
1
1.00006
1.00008
1.00011
1.00014
1.00017
1.00021
1.00026
1.00031
1.00037
1.00044
1.00051
1.00059
1.00067
1.00076
1.00085
1.00093
1.00101
1.00108
1.00114
1.00119
1.00123
1.00124
1.00124
1.00122
1.00118
1.00113
1.00106
1.00097
1.00088
1.00078
1.00068
1.00058
1.00048
1.00039
1.0003
1.00022
1.00016
1.0001
1.00006
1.00002
1
0.999984
0.999974
0.99997
0.999969
0.999971
0.999974
0.999978
0.999983
0.999987
0.999991
0.999994
0.999996
0.999998
1
1
1
1
1
1
1
1
1
1
1
1
1
1
1
1
1
1
1
1
1
1.00005
1.00007
1.00008
1.00011
1.00013
1.00016
1.00019
1.00023
1.00027
1.00032
1.00037
1.00042
1.00048
1.00053
1.00059
1.00065
1.0007
1.00074
1.00078
1.00081
1.00083
1.00083
1.00083
1.00081
1.00078
1.00073
1.00068
1.00062
1.00055
1.00048
1.00041
1.00034
1.00027
1.00021
1.00015
1.0001
1.00006
1.00003
1
0.999985
0.999972
0.999964
0.999961
0.999961
0.999964
0.999968
0.999973
0.999978
0.999982
0.999986
0.99999
0.999994
0.999997
0.999998
1
1
1
1
1
1
1
1
1
1
1
1
1
1
1
1
1
1
1
1
1
1.00004
1.00005
1.00006
1.00008
1.0001
1.00012
1.00015
1.00017
1.00021
1.00024
1.00027
1.0003
1.00034
1.00038
1.00041
1.00045
1.00048
1.00051
1.00053
1.00054
1.00055
1.00055
1.00054
1.00053
1.0005
1.00047
1.00043
1.00038
1.00033
1.00028
1.00023
1.00018
1.00014
1.0001
1.00006
1.00003
1
0.999984
0.99997
0.999962
0.999957
0.999955
0.999956
0.99996
0.999964
0.999969
0.999974
0.999979
0.999984
0.999988
0.999991
0.999993
0.999996
0.999997
0.999999
1
1
1
1
1
1
1
1
1
1
1
1
1
1
1
1
1
1
1
1
1.00003
1.00004
1.00006
1.00007
1.00008
1.0001
1.00011
1.00013
1.00015
1.00018
1.0002
1.00022
1.00025
1.00027
1.00029
1.00031
1.00033
1.00035
1.00036
1.00037
1.00037
1.00036
1.00035
1.00033
1.00031
1.00029
1.00026
1.00022
1.00019
1.00015
1.00012
1.00009
1.00006
1.00003
1.00001
0.999988
0.999973
0.999963
0.999955
0.999951
0.999951
0.999953
0.999956
0.99996
0.999965
0.999971
0.999976
0.999981
0.999985
0.999989
0.999993
0.999995
0.999997
0.999998
0.999999
1
1
1
1
1
1
1
1
1
1
1
1
1
1
1
1
1
1
1
1
1.00003
1.00003
1.00004
1.00005
1.00007
1.00007
1.00009
1.0001
1.00012
1.00013
1.00015
1.00016
1.00018
1.00019
1.00021
1.00022
1.00023
1.00024
1.00024
1.00024
1.00024
1.00023
1.00022
1.00021
1.00019
1.00017
1.00015
1.00012
1.0001
1.00007
1.00005
1.00003
1.00001
0.99999
0.999976
0.999965
0.999957
0.999953
0.99995
0.99995
0.999952
0.999955
0.999959
0.999964
0.999969
0.999974
0.999979
0.999984
0.999987
0.99999
0.999993
0.999995
0.999997
0.999998
0.999999
0.999999
1
1
1
1
1
1
1
1
1
1
1
1
1
1
1
1
1
1
1
1.00002
1.00003
1.00003
1.00004
1.00005
1.00006
1.00007
1.00008
1.00009
1.0001
1.00011
1.00012
1.00013
1.00014
1.00015
1.00016
1.00016
1.00017
1.00017
1.00016
1.00016
1.00015
1.00014
1.00013
1.00011
1.0001
1.00008
1.00006
1.00004
1.00003
1.00001
0.999994
0.999982
0.999971
0.999962
0.999956
0.999952
0.99995
0.999951
0.999953
0.999956
0.99996
0.999964
0.999969
0.999974
0.999978
0.999982
0.999986
0.999989
0.999992
0.999994
0.999996
0.999997
0.999998
0.999999
0.999999
1
1
1
1
1
1
1
1
1
1
1
1
1
1
1
1
1
1
1
1.00001
1.00002
1.00003
1.00003
1.00004
1.00004
1.00005
1.00006
1.00007
1.00008
1.00009
1.00009
1.0001
1.0001
1.00011
1.00011
1.00011
1.00011
1.00011
1.00011
1.00011
1.0001
1.00009
1.00008
1.00007
1.00005
1.00004
1.00002
1.00001
1
0.999988
0.999978
0.999969
0.999963
0.999958
0.999955
0.999954
0.999954
0.999955
0.999958
0.999961
0.999965
0.999969
0.999973
0.999978
0.999982
0.999985
0.999988
0.999991
0.999993
0.999995
0.999996
0.999997
0.999998
0.999999
0.999999
1
1
1
1
1
1
1
1
1
1
1
1
1
1
1
1
1
1
1
1.00002
1.00002
1.00002
1.00003
1.00003
1.00004
1.00004
1.00005
1.00006
1.00006
1.00007
1.00007
1.00007
1.00008
1.00008
1.00008
1.00008
1.00008
1.00008
1.00007
1.00007
1.00006
1.00006
1.00005
1.00004
1.00003
1.00002
1.00001
0.999995
0.999986
0.999978
0.999971
0.999966
0.999961
0.999958
0.999957
0.999957
0.999958
0.999961
0.999964
0.999967
0.999971
0.999974
0.999978
0.999981
0.999984
0.999987
0.99999
0.999993
0.999995
0.999996
0.999997
0.999998
0.999999
0.999999
0.999999
1
1
1
1
1
1
1
1
1
1
1
1
1
1
1
1
1
1
1
1.00001
1.00001
1.00002
1.00002
1.00002
1.00003
1.00003
1.00004
1.00004
1.00005
1.00005
1.00005
1.00006
1.00006
1.00006
1.00006
1.00006
1.00006
1.00006
1.00005
1.00005
1.00004
1.00003
1.00003
1.00002
1.00001
1
0.999994
0.999987
0.999981
0.999975
0.99997
0.999967
0.999964
0.999963
0.999963
0.999964
0.999965
0.999966
0.999969
0.999972
0.999975
0.999979
0.999983
0.999986
0.999988
0.99999
0.999992
0.999994
0.999995
0.999996
0.999997
0.999998
0.999999
0.999999
1
1
1
1
1
1
1
1
1
1
1
1
1
1
1
1
1
1
1
1
1.00001
1.00001
1.00001
1.00002
1.00002
1.00002
1.00002
1.00003
1.00003
1.00004
1.00004
1.00004
1.00004
1.00004
1.00005
1.00005
1.00004
1.00004
1.00004
1.00004
1.00003
1.00003
1.00002
1.00001
1.00001
1
0.999997
0.99999
0.999984
0.999979
0.999975
0.999972
0.999969
0.999968
0.999967
0.999968
0.999969
0.999971
0.999974
0.999976
0.999978
0.999981
0.999983
0.999985
0.999988
0.99999
0.999992
0.999994
0.999996
0.999997
0.999998
0.999998
0.999999
0.999999
0.999999
1
1
1
1
1
1
1
1
1
1
1
1
1
1
1
1
1
1
1
1
1.00001
1.00001
1.00001
1.00001
1.00002
1.00002
1.00002
1.00002
1.00002
1.00003
1.00003
1.00003
1.00003
1.00003
1.00003
1.00003
1.00003
1.00003
1.00003
1.00003
1.00002
1.00002
1.00001
1.00001
1
0.999997
0.999992
0.999988
0.999985
0.999982
0.999978
0.999976
0.999975
0.999974
0.999974
0.999974
0.999974
0.999975
0.999977
0.999979
0.999982
0.999985
0.999987
0.999989
0.999991
0.999992
0.999994
0.999995
0.999996
0.999997
0.999998
0.999998
0.999999
0.999999
0.999999
1
1
1
1
1
1
1
1
1
1
1
1
1
1
1
1
1
1
1
1
1.00001
1.00001
1.00001
1.00001
1.00001
1.00001
1.00002
1.00002
1.00002
1.00002
1.00002
1.00002
1.00003
1.00003
1.00003
1.00003
1.00002
1.00002
1.00002
1.00002
1.00002
1.00001
1.00001
1
1
0.999996
0.999992
0.999988
0.999986
0.999983
0.99998
0.999979
0.999978
0.999978
0.999978
0.999979
0.999981
0.999982
0.999984
0.999985
0.999986
0.999987
0.999989
0.999991
0.999993
0.999994
0.999995
0.999996
0.999997
0.999998
0.999998
0.999999
0.999999
1
1
1
1
1
1
1
1
1
1
1
1
1
1
1
1
1
1
1
1
1
1
1
1
1.00001
1.00001
1.00001
1.00001
1.00001
1.00001
1.00002
1.00002
1.00002
1.00002
1.00002
1.00002
1.00002
1.00002
1.00002
1.00002
1.00001
1.00001
1.00001
1.00001
1.00001
1
0.999998
0.999996
0.999994
0.999991
0.999989
0.999987
0.999985
0.999984
0.999983
0.999983
0.999983
0.999983
0.999984
0.999985
0.999986
0.999988
0.99999
0.999991
0.999993
0.999994
0.999994
0.999995
0.999996
0.999997
0.999998
0.999998
0.999998
0.999999
0.999999
0.999999
1
1
1
1
1
1
1
1
1
1
1
1
1
1
1
1
1
1
1
1
1
1
1
1
1.00001
1.00001
1.00001
1.00001
1.00001
1.00001
1.00001
1.00001
1.00001
1.00001
1.00002
1.00001
1.00001
1.00001
1.00001
1.00001
1.00001
1.00001
1.00001
1
1
0.999998
0.999996
0.999994
0.999992
0.99999
0.999989
0.999988
0.999987
0.999987
0.999986
0.999986
0.999988
0.999989
0.999989
0.99999
0.999991
0.999992
0.999993
0.999994
0.999995
0.999996
0.999997
0.999997
0.999998
0.999999
0.999999
0.999999
1
1
1
1
1
1
1
1
1
1
1
1
1
1
1
1
1
1
1
1
1
1
1
1
1
1
1
1
1
1.00001
1.00001
1.00001
1.00001
1.00001
1.00001
1.00001
1.00001
1.00001
1.00001
1.00001
1.00001
1.00001
1.00001
1.00001
1.00001
1
1
1
0.999999
0.999997
0.999995
0.999994
0.999993
0.999991
0.99999
0.999989
0.999989
0.99999
0.99999
0.99999
0.99999
0.999991
0.999992
0.999993
0.999994
0.999995
0.999995
0.999996
0.999997
0.999997
0.999998
0.999998
0.999999
0.999999
0.999999
1
1
1
1
1
1
1
1
1
1
1
1
1
1
1
1
1
1
1
1
1
1
1
1
1
1
1
1
1
1
1
1.00001
1.00001
1.00001
1.00001
1.00001
1.00001
1.00001
1.00001
1.00001
1.00001
1.00001
1.00001
1
1
1
1
1
0.999999
0.999997
0.999996
0.999994
0.999994
0.999993
0.999993
0.999993
0.999992
0.999993
0.999993
0.999993
0.999994
0.999994
0.999994
0.999995
0.999995
0.999996
0.999996
0.999997
0.999998
0.999998
0.999998
0.999999
0.999999
0.999999
0.999999
1
1
1
1
1
1
1
1
1
1
1
1
1
1
1
1
1
1
1
1
1
1
1
1
1
1
1
1
1
1
1
1
1
1.00001
1.00001
1.00001
1.00001
1.00001
1.00001
1.00001
1.00001
1
1
1
1
1
1
1
0.999999
0.999999
0.999998
0.999997
0.999996
0.999995
0.999995
0.999995
0.999994
0.999994
0.999994
0.999994
0.999995
0.999995
0.999996
0.999996
0.999997
0.999997
0.999998
0.999998
0.999998
0.999999
0.999999
0.999999
0.999999
1
1
1
1
1
1
1
1
1
1
1
1
1
1
1
1
1
1
1
1
1
1
1
1
1
1
1
1
1
1
1
1
1
1
1
1
1
1
1
1
1
1
1
1
1
1
1
1
1
1
0.999999
0.999998
0.999997
0.999997
0.999997
0.999997
0.999996
0.999996
0.999996
0.999996
0.999996
0.999996
0.999997
0.999997
0.999997
0.999997
0.999997
0.999998
0.999998
0.999999
0.999999
0.999999
0.999999
0.999999
1
1
1
1
1
1
1
1
1
1
1
1
1
1
1
1
1
1
1
1
1
1
1
1
1
1
1
1
1
1
1
1
1
1
1
1
1
1
1
1
1
1
1
1
1
1
1
1
1
1
1
1
1
0.999999
0.999998
0.999998
0.999997
0.999997
0.999997
0.999997
0.999997
0.999997
0.999997
0.999997
0.999997
0.999998
0.999998
0.999999
0.999999
0.999999
0.999999
0.999999
0.999999
0.999999
0.999999
1
1
1
1
1
1
1
1
1
1
1
1
1
1
1
1
1
1
1
1
1
1
1
1
1
1
1
1
1
1
1
1
1
1
1
1
1
1
1
1
1
1
1
1
1
1
1
1
1
1
1
0.999999
0.999999
0.999999
0.999998
0.999998
0.999998
0.999998
0.999998
0.999998
0.999998
0.999998
0.999998
0.999998
0.999998
0.999998
0.999998
0.999999
0.999999
0.999999
0.999999
0.999999
1
1
1
1
1
1
1
1
1
1
1
1
1
1
1
1
1
1
1
1
1
1
1
1
1
1
1
1
1
1
1
1
1
1
1
1
1
1
1
1
1
1
1
1
1
1
1
1
1
1
1
1
1
1
1
1
0.999999
0.999999
0.999999
0.999999
0.999999
0.999999
0.999998
0.999998
0.999998
0.999999
0.999999
0.999999
0.999999
0.999999
0.999999
0.999999
0.999999
0.999999
1
1
1
1
1
1
1
1
1
1
1
1
1
1
1
1
1
1
1
1
1
1
1
1
1
1
1
1
1
1
1
1
1
1
1
1
1
1
1
1
1
1
1
1
1
1
1
1
1
1
1
1
1
1
1
1
1
1
0.999999
0.999999
0.999999
0.999999