/*--------------------------------*- C++ -*----------------------------------*\
  =========                 |
  \\      /  F ield         | OpenFOAM: The Open Source CFD Toolbox
   \\    /   O peration     | Website:  https://openfoam.org
    \\  /    A nd           | Version:  6
     \\/     M anipulation  |
\*---------------------------------------------------------------------------*/
FoamFile
{
    version     2.0;
    format      ascii;
    class       volScalarField;
    location    "2";
    object      rho;
}
// * * * * * * * * * * * * * * * * * * * * * * * * * * * * * * * * * * * * * //

dimensions      [1 -3 0 0 0 0 0];

internalField   nonuniform List<scalar> 
5625
(
1.40839
1.37504
1.33473
1.28836
1.23724
1.18313
1.12822
1.07494
1.0258
0.983343
0.949684
0.925983
0.912508
0.909321
0.916545
0.934014
0.96112
0.997081
1.04101
1.0915
1.14626
1.20234
1.25691
1.30771
1.3531
1.39175
1.42251
1.44457
1.45781
1.46296
1.4616
1.45574
1.44741
1.43833
1.42969
1.42218
1.41606
1.41133
1.40782
1.4053
1.40355
1.40235
1.40156
1.40104
1.40069
1.40047
1.40032
1.40023
1.40016
1.40011
1.40008
1.40006
1.40004
1.40003
1.40002
1.40002
1.40001
1.40001
1.40001
1.40001
1.40001
1.40001
1.40001
1.40001
1.40001
1.40001
1.40001
1.40001
1.40001
1.40001
1.40001
1.40001
1.40001
1.40001
1.40001
1.4202
1.39111
1.35552
1.3143
1.26865
1.22016
1.17081
1.12277
1.07837
1.03994
1.00935
0.987618
0.975115
0.972116
0.978827
0.995014
1.01998
1.05291
1.0929
1.13858
1.18779
1.23791
1.28649
1.3316
1.37173
1.4056
1.43207
1.45038
1.46053
1.46334
1.4604
1.45367
1.44504
1.43604
1.4277
1.42058
1.41484
1.41044
1.4072
1.40488
1.40328
1.40219
1.40146
1.40098
1.40067
1.40046
1.40032
1.40022
1.40016
1.40011
1.40008
1.40006
1.40004
1.40003
1.40002
1.40002
1.40001
1.40001
1.40001
1.40001
1.40001
1.40001
1.40001
1.40001
1.40001
1.40001
1.40001
1.40001
1.40001
1.40001
1.40001
1.40001
1.40001
1.40001
1.40001
1.43136
1.40665
1.37588
1.33989
1.2998
1.25703
1.21335
1.1707
1.1312
1.09689
1.06938
1.04963
1.03816
1.03538
1.04151
1.05622
1.07881
1.10846
1.14432
1.18503
1.22862
1.27278
1.31542
1.35487
1.38976
1.41881
1.44094
1.45548
1.46254
1.46307
1.45867
1.4512
1.44239
1.43357
1.42559
1.4189
1.41357
1.40953
1.40657
1.40446
1.40301
1.40202
1.40136
1.40092
1.40063
1.40044
1.40031
1.40022
1.40016
1.40011
1.40008
1.40006
1.40004
1.40003
1.40002
1.40002
1.40001
1.40001
1.40001
1.40001
1.40001
1.40001
1.40001
1.40001
1.40001
1.40001
1.40001
1.40001
1.40001
1.40001
1.40001
1.40001
1.40001
1.40001
1.40001
1.44145
1.42111
1.39517
1.36441
1.32984
1.29277
1.25474
1.2175
1.18287
1.15264
1.1282
1.11048
1.10012
1.09761
1.10308
1.11615
1.13617
1.16243
1.19406
1.2298
1.26783
1.30617
1.34303
1.37697
1.40669
1.43098
1.44878
1.45959
1.46367
1.46207
1.45638
1.44833
1.43947
1.43093
1.4234
1.41718
1.41229
1.40861
1.40593
1.40404
1.40273
1.40185
1.40125
1.40086
1.4006
1.40042
1.4003
1.40021
1.40016
1.40011
1.40008
1.40006
1.40004
1.40003
1.40002
1.40002
1.40001
1.40001
1.40001
1.40001
1.40001
1.40001
1.40001
1.40001
1.40001
1.40001
1.40001
1.40001
1.40001
1.40001
1.40001
1.40001
1.40001
1.40001
1.40001
1.45016
1.43407
1.41283
1.38716
1.35799
1.32646
1.29394
1.26194
1.23205
1.20579
1.18439
1.16875
1.15958
1.15733
1.16206
1.1734
1.19079
1.21362
1.24109
1.27198
1.30464
1.33739
1.36874
1.39738
1.42209
1.4417
1.45528
1.4625
1.46378
1.46027
1.45351
1.44509
1.43634
1.42819
1.42116
1.41544
1.41101
1.4077
1.4053
1.40362
1.40246
1.40167
1.40115
1.4008
1.40056
1.4004
1.40029
1.40021
1.40015
1.40011
1.40008
1.40006
1.40004
1.40003
1.40002
1.40002
1.40001
1.40001
1.40001
1.40001
1.40001
1.40001
1.40001
1.40001
1.40001
1.40001
1.40001
1.40001
1.40001
1.40001
1.40001
1.40001
1.40001
1.40001
1.40001
1.4572
1.44515
1.42841
1.4076
1.38355
1.3573
1.33002
1.30301
1.27763
1.25519
1.23676
1.22322
1.21523
1.2132
1.21716
1.22677
1.24158
1.2611
1.28457
1.31083
1.33842
1.36591
1.39205
1.41565
1.43555
1.45065
1.46019
1.46404
1.46281
1.45768
1.45012
1.44154
1.43305
1.42539
1.41891
1.41373
1.40975
1.40681
1.40469
1.40321
1.4022
1.40151
1.40104
1.40073
1.40052
1.40037
1.40027
1.4002
1.40014
1.40011
1.40008
1.40006
1.40004
1.40003
1.40002
1.40002
1.40001
1.40001
1.40001
1.40001
1.40001
1.40001
1.40001
1.40001
1.40001
1.40001
1.40001
1.40001
1.40001
1.40001
1.40001
1.40001
1.40001
1.40001
1.40001
1.46239
1.45411
1.44157
1.4253
1.40604
1.3847
1.36229
1.33993
1.31878
1.29993
1.28436
1.27285
1.26601
1.26418
1.26736
1.27533
1.28775
1.30418
1.32389
1.3458
1.36867
1.39129
1.41256
1.4314
1.44672
1.45754
1.46331
1.46412
1.46073
1.45434
1.44628
1.43776
1.42968
1.42258
1.41671
1.41207
1.40855
1.40596
1.40412
1.40283
1.40194
1.40134
1.40094
1.40067
1.40048
1.40035
1.40025
1.40019
1.40014
1.4001
1.40007
1.40005
1.40004
1.40003
1.40002
1.40002
1.40001
1.40001
1.40001
1.40001
1.40001
1.40001
1.40001
1.40001
1.40001
1.40001
1.40001
1.40001
1.40001
1.40001
1.40001
1.40001
1.40001
1.40001
1.40001
1.46559
1.46076
1.45209
1.43999
1.42513
1.40828
1.39032
1.37222
1.35495
1.33944
1.32654
1.31695
1.31118
1.30953
1.31202
1.31852
1.32878
1.34237
1.35861
1.37652
1.39505
1.41318
1.42995
1.44432
1.45532
1.46216
1.46453
1.46273
1.45762
1.45034
1.44208
1.43384
1.4263
1.41983
1.41458
1.41048
1.40741
1.40516
1.40357
1.40246
1.40171
1.40119
1.40084
1.4006
1.40044
1.40032
1.40024
1.40018
1.40013
1.4001
1.40007
1.40005
1.40004
1.40003
1.40002
1.40002
1.40001
1.40001
1.40001
1.40001
1.40001
1.40001
1.40001
1.40001
1.40001
1.40001
1.40001
1.40001
1.40001
1.40001
1.40001
1.40001
1.40001
1.40001
1.40001
1.46674
1.46501
1.45983
1.45154
1.44066
1.42786
1.41393
1.39966
1.38589
1.37343
1.36297
1.35513
1.35036
1.34891
1.35083
1.35606
1.36439
1.37542
1.38849
1.40275
1.41732
1.43135
1.44394
1.45417
1.46119
1.46445
1.46388
1.45996
1.45359
1.44582
1.43766
1.42988
1.42298
1.41719
1.41256
1.409
1.40634
1.40442
1.40307
1.40213
1.40149
1.40105
1.40075
1.40054
1.4004
1.4003
1.40022
1.40016
1.40012
1.40009
1.40007
1.40005
1.40004
1.40003
1.40002
1.40001
1.40001
1.40001
1.40001
1.40001
1.40001
1.40001
1.40001
1.40001
1.40001
1.40001
1.40001
1.40001
1.40001
1.40001
1.40001
1.40001
1.40001
1.40001
1.40001
1.46587
1.46682
1.46476
1.45987
1.45256
1.44341
1.43307
1.42222
1.41158
1.40183
1.39357
1.38733
1.38348
1.38225
1.38373
1.38786
1.39448
1.40319
1.41338
1.42434
1.43533
1.4456
1.45436
1.4608
1.46426
1.46443
1.46148
1.45599
1.44885
1.44097
1.43316
1.42599
1.41979
1.4147
1.41068
1.40763
1.40537
1.40375
1.40261
1.40182
1.40128
1.40091
1.40066
1.40049
1.40036
1.40027
1.4002
1.40015
1.40011
1.40008
1.40006
1.40005
1.40003
1.40002
1.40002
1.40001
1.40001
1.40001
1.40001
1.40001
1.40001
1.40001
1.40001
1.40001
1.40001
1.40001
1.40001
1.40001
1.40001
1.40001
1.40001
1.40001
1.40001
1.40001
1.40001
1.46311
1.46627
1.46689
1.46499
1.46085
1.45494
1.44778
1.43997
1.43211
1.42477
1.41847
1.41366
1.41065
1.40967
1.41079
1.41398
1.41906
1.42566
1.43325
1.44123
1.44899
1.45586
1.46115
1.46421
1.46462
1.4623
1.45757
1.45109
1.44363
1.43597
1.42871
1.42225
1.4168
1.4124
1.40897
1.40639
1.4045
1.40315
1.4022
1.40155
1.4011
1.40079
1.40058
1.40043
1.40032
1.40024
1.40018
1.40014
1.4001
1.40008
1.40006
1.40004
1.40003
1.40002
1.40002
1.40001
1.40001
1.40001
1.40001
1.40001
1.40001
1.40001
1.40001
1.40001
1.40001
1.40001
1.40001
1.40001
1.40001
1.40001
1.40001
1.40001
1.40001
1.40001
1.40001
1.45874
1.46356
1.46634
1.46698
1.4656
1.46253
1.45818
1.45305
1.44764
1.44243
1.43787
1.43433
1.43209
1.43135
1.43216
1.4345
1.43819
1.44287
1.44812
1.45343
1.45828
1.46212
1.46437
1.46458
1.46254
1.45837
1.4525
1.44555
1.43818
1.431
1.42444
1.41876
1.41406
1.41031
1.40743
1.40528
1.40372
1.40261
1.40184
1.4013
1.40094
1.40068
1.40051
1.40038
1.40029
1.40022
1.40017
1.40012
1.40009
1.40007
1.40005
1.40004
1.40003
1.40002
1.40002
1.40001
1.40001
1.40001
1.40001
1.40001
1.40001
1.40001
1.40001
1.40001
1.40001
1.40001
1.40001
1.40001
1.40001
1.40001
1.40001
1.40001
1.40001
1.40001
1.40001
1.45312
1.45901
1.4634
1.46605
1.46697
1.46632
1.46441
1.46162
1.45835
1.45501
1.45198
1.44957
1.448
1.44746
1.44799
1.44955
1.45196
1.45492
1.45808
1.46104
1.46335
1.46458
1.4643
1.46226
1.45844
1.45309
1.44666
1.4397
1.43275
1.42624
1.42046
1.41557
1.41158
1.40845
1.40607
1.40431
1.40304
1.40214
1.40152
1.40109
1.40079
1.40058
1.40044
1.40033
1.40025
1.40019
1.40015
1.40011
1.40008
1.40006
1.40005
1.40003
1.40003
1.40002
1.40001
1.40001
1.40001
1.40001
1.40001
1.40001
1.40001
1.40001
1.40001
1.40001
1.40001
1.40001
1.40001
1.40001
1.40001
1.40001
1.40001
1.40001
1.40001
1.40001
1.40001
1.44674
1.45312
1.45851
1.4626
1.46528
1.4666
1.46671
1.4659
1.46447
1.46275
1.46103
1.45958
1.4586
1.45822
1.45847
1.45931
1.46058
1.46203
1.46338
1.46433
1.46453
1.46365
1.46143
1.4578
1.45287
1.44695
1.44046
1.43385
1.42753
1.4218
1.41684
1.41271
1.4094
1.40683
1.4049
1.40348
1.40246
1.40174
1.40124
1.4009
1.40066
1.4005
1.40038
1.40029
1.40022
1.40017
1.40013
1.4001
1.40008
1.40006
1.40004
1.40003
1.40002
1.40002
1.40001
1.40001
1.40001
1.40001
1.40001
1.40001
1.40001
1.40001
1.40001
1.40001
1.40001
1.40001
1.40001
1.40001
1.40001
1.40001
1.40001
1.40001
1.40001
1.40001
1.40001
1.44005
1.44643
1.45225
1.45719
1.46107
1.46383
1.46551
1.46628
1.46636
1.46597
1.46536
1.46472
1.46421
1.46393
1.46392
1.46413
1.46442
1.46461
1.46448
1.46381
1.46237
1.45994
1.45642
1.45184
1.4464
1.44042
1.43425
1.42825
1.4227
1.41779
1.41363
1.41022
1.40752
1.40544
1.40389
1.40277
1.40196
1.4014
1.40101
1.40074
1.40055
1.40042
1.40032
1.40025
1.40019
1.40015
1.40012
1.40009
1.40007
1.40005
1.40004
1.40003
1.40002
1.40002
1.40001
1.40001
1.40001
1.40001
1.40001
1.40001
1.40001
1.40001
1.40001
1.40001
1.40001
1.40001
1.40001
1.40001
1.40001
1.40001
1.40001
1.40001
1.40001
1.40001
1.40001
1.43351
1.43948
1.44525
1.4505
1.45502
1.45867
1.46144
1.46337
1.46457
1.46522
1.46547
1.46546
1.46533
1.46513
1.46489
1.46457
1.46407
1.46328
1.46204
1.46021
1.45763
1.45422
1.44999
1.44504
1.43959
1.43393
1.42835
1.42309
1.41836
1.41426
1.41084
1.40808
1.40591
1.40427
1.40305
1.40217
1.40155
1.40111
1.40081
1.4006
1.40046
1.40035
1.40027
1.40021
1.40017
1.40013
1.4001
1.40008
1.40006
1.40004
1.40003
1.40003
1.40002
1.40001
1.40001
1.40001
1.40001
1.40001
1.40001
1.40001
1.40001
1.40001
1.40001
1.40001
1.40001
1.40001
1.40001
1.40001
1.40001
1.40001
1.40001
1.40001
1.40001
1.40001
1.40001
1.42742
1.43276
1.4381
1.44322
1.44789
1.45194
1.4553
1.45794
1.4599
1.46126
1.46212
1.46257
1.46271
1.46256
1.46215
1.46144
1.46039
1.45892
1.45695
1.45439
1.45118
1.44732
1.44287
1.43799
1.4329
1.42781
1.42295
1.4185
1.41457
1.41122
1.40847
1.40627
1.40457
1.4033
1.40236
1.40168
1.40121
1.40088
1.40065
1.40049
1.40038
1.40029
1.40023
1.40018
1.40014
1.40011
1.40009
1.40007
1.40005
1.40004
1.40003
1.40002
1.40002
1.40001
1.40001
1.40001
1.40001
1.40001
1.40001
1.40001
1.40001
1.40001
1.40001
1.40001
1.40001
1.40001
1.40001
1.40001
1.40001
1.40001
1.40001
1.40001
1.40001
1.40001
1.40001
1.422
1.42657
1.43128
1.43596
1.4404
1.44444
1.44797
1.45092
1.45328
1.45504
1.45627
1.45701
1.45731
1.4572
1.45667
1.45574
1.45437
1.45252
1.45017
1.44728
1.44386
1.43996
1.43569
1.43119
1.42667
1.42228
1.4182
1.41453
1.41134
1.40867
1.4065
1.40479
1.40348
1.4025
1.40179
1.40128
1.40093
1.40068
1.40051
1.40039
1.40031
1.40024
1.40019
1.40015
1.40012
1.4001
1.40008
1.40006
1.40005
1.40003
1.40003
1.40002
1.40002
1.40001
1.40001
1.40001
1.40001
1.40001
1.40001
1.40001
1.40001
1.40001
1.40001
1.40001
1.40001
1.40001
1.40001
1.40001
1.40001
1.40001
1.40001
1.40001
1.40001
1.40001
1.40001
1.41734
1.42112
1.42511
1.42918
1.43315
1.43689
1.44028
1.44321
1.44565
1.44756
1.44895
1.44982
1.4502
1.45011
1.44955
1.44852
1.44701
1.44504
1.4426
1.43971
1.4364
1.43276
1.4289
1.42497
1.42112
1.41746
1.41413
1.41118
1.40866
1.40657
1.4049
1.40359
1.4026
1.40187
1.40134
1.40097
1.40071
1.40053
1.4004
1.40031
1.40025
1.4002
1.40016
1.40013
1.4001
1.40008
1.40007
1.40005
1.40004
1.40003
1.40002
1.40002
1.40001
1.40001
1.40001
1.40001
1.40001
1.40001
1.40001
1.40001
1.40001
1.40001
1.40001
1.40001
1.40001
1.40001
1.40001
1.40001
1.40001
1.40001
1.40001
1.40001
1.40001
1.40001
1.40001
1.41344
1.41649
1.41976
1.42316
1.42655
1.42981
1.43284
1.43555
1.43784
1.4397
1.44107
1.44196
1.44237
1.44229
1.44173
1.44071
1.43924
1.43734
1.43502
1.43233
1.42934
1.42613
1.42282
1.41952
1.41634
1.41339
1.41074
1.40843
1.40647
1.40488
1.40361
1.40263
1.4019
1.40136
1.40098
1.40071
1.40053
1.4004
1.40031
1.40025
1.4002
1.40016
1.40013
1.40011
1.40009
1.40007
1.40006
1.40004
1.40003
1.40003
1.40002
1.40002
1.40001
1.40001
1.40001
1.40001
1.40001
1.40001
1.40001
1.40001
1.40001
1.40001
1.40001
1.40001
1.40001
1.40001
1.40001
1.40001
1.40001
1.40001
1.40001
1.40001
1.40001
1.40001
1.40001
1.41027
1.41267
1.41528
1.41802
1.4208
1.42353
1.42611
1.42845
1.43048
1.43214
1.4334
1.43422
1.4346
1.43453
1.43402
1.43309
1.43174
1.43002
1.42795
1.4256
1.42302
1.42032
1.41759
1.41491
1.41237
1.41005
1.40799
1.40622
1.40474
1.40354
1.4026
1.40189
1.40136
1.40098
1.40071
1.40052
1.40039
1.4003
1.40024
1.40019
1.40016
1.40013
1.40011
1.40009
1.40007
1.40006
1.40005
1.40004
1.40003
1.40002
1.40002
1.40001
1.40001
1.40001
1.40001
1.40001
1.40001
1.40001
1.40001
1.40001
1.40001
1.40001
1.40001
1.40001
1.40001
1.40001
1.40001
1.40001
1.40001
1.40001
1.40001
1.40001
1.40001
1.40001
1.40001
1.40775
1.4096
1.41162
1.41378
1.41599
1.41819
1.4203
1.42224
1.42394
1.42535
1.42642
1.42713
1.42746
1.42739
1.42694
1.42612
1.42495
1.42347
1.42172
1.41975
1.41762
1.41543
1.41324
1.41113
1.40916
1.40737
1.40581
1.40448
1.40338
1.40251
1.40183
1.40132
1.40095
1.40068
1.4005
1.40037
1.40028
1.40022
1.40018
1.40015
1.40013
1.40011
1.40009
1.40007
1.40006
1.40005
1.40004
1.40003
1.40002
1.40002
1.40002
1.40001
1.40001
1.40001
1.40001
1.40001
1.40001
1.40001
1.40001
1.40001
1.40001
1.40001
1.40001
1.40001
1.40001
1.40001
1.40001
1.40001
1.40001
1.40001
1.40001
1.40001
1.40001
1.40001
1.40001
1.40578
1.40718
1.40873
1.41038
1.41209
1.41381
1.41547
1.41702
1.41838
1.41952
1.4204
1.42097
1.42123
1.42117
1.42078
1.42009
1.41912
1.41789
1.41645
1.41486
1.41317
1.41144
1.40974
1.40811
1.40661
1.40528
1.40411
1.40314
1.40235
1.40172
1.40125
1.40089
1.40064
1.40046
1.40034
1.40026
1.4002
1.40016
1.40014
1.40012
1.4001
1.40008
1.40007
1.40006
1.40005
1.40004
1.40003
1.40003
1.40002
1.40002
1.40001
1.40001
1.40001
1.40001
1.40001
1.40001
1.40001
1.40001
1.40001
1.40001
1.40001
1.40001
1.40001
1.40001
1.40001
1.40001
1.40001
1.40001
1.40001
1.40001
1.40001
1.40001
1.40001
1.40001
1.40001
1.40427
1.40531
1.40647
1.40771
1.40901
1.41032
1.41159
1.41278
1.41384
1.41473
1.41541
1.41585
1.41604
1.41597
1.41566
1.41509
1.4143
1.41331
1.41217
1.41092
1.40961
1.40828
1.40699
1.40577
1.40466
1.40368
1.40284
1.40214
1.40158
1.40114
1.40082
1.40058
1.40041
1.4003
1.40022
1.40017
1.40014
1.40012
1.4001
1.40009
1.40008
1.40007
1.40006
1.40005
1.40004
1.40003
1.40003
1.40002
1.40002
1.40001
1.40001
1.40001
1.40001
1.40001
1.40001
1.40001
1.40001
1.40001
1.40001
1.40001
1.40001
1.40001
1.40001
1.40001
1.40001
1.40001
1.40001
1.40001
1.40001
1.40001
1.40001
1.40001
1.40001
1.40001
1.40001
1.40313
1.4039
1.40475
1.40567
1.40662
1.4076
1.40855
1.40944
1.41023
1.4109
1.4114
1.41173
1.41187
1.4118
1.41153
1.41107
1.41045
1.40968
1.4088
1.40784
1.40684
1.40585
1.40489
1.40399
1.40318
1.40248
1.40189
1.4014
1.40102
1.40072
1.40051
1.40035
1.40025
1.40018
1.40014
1.40011
1.40009
1.40008
1.40007
1.40007
1.40006
1.40005
1.40005
1.40004
1.40003
1.40003
1.40002
1.40002
1.40002
1.40001
1.40001
1.40001
1.40001
1.40001
1.40001
1.40001
1.40001
1.40001
1.40001
1.40001
1.40001
1.40001
1.40001
1.40001
1.40001
1.40001
1.40001
1.40001
1.40001
1.40001
1.40001
1.40001
1.40001
1.40001
1.40001
1.40229
1.40284
1.40346
1.40412
1.40482
1.40553
1.40622
1.40687
1.40745
1.40793
1.40829
1.40852
1.4086
1.40853
1.40831
1.40795
1.40746
1.40687
1.4062
1.40549
1.40475
1.40402
1.40332
1.40268
1.40211
1.40161
1.4012
1.40087
1.40062
1.40042
1.40029
1.4002
1.40014
1.4001
1.40008
1.40007
1.40006
1.40006
1.40005
1.40005
1.40005
1.40004
1.40004
1.40003
1.40003
1.40002
1.40002
1.40002
1.40001
1.40001
1.40001
1.40001
1.40001
1.40001
1.40001
1.40001
1.40001
1.40001
1.40001
1.40001
1.40001
1.40001
1.40001
1.40001
1.40001
1.40001
1.40001
1.40001
1.40001
1.40001
1.40001
1.40001
1.40001
1.40001
1.40001
1.40167
1.40207
1.40251
1.40298
1.40347
1.40398
1.40447
1.40493
1.40534
1.40568
1.40593
1.40608
1.40612
1.40605
1.40587
1.40558
1.40521
1.40477
1.40427
1.40374
1.4032
1.40267
1.40218
1.40173
1.40133
1.40099
1.40072
1.4005
1.40034
1.40022
1.40014
1.40009
1.40006
1.40005
1.40004
1.40004
1.40004
1.40004
1.40004
1.40004
1.40004
1.40003
1.40003
1.40003
1.40002
1.40002
1.40002
1.40001
1.40001
1.40001
1.40001
1.40001
1.40001
1.40001
1.40001
1.40001
1.40001
1.40001
1.40001
1.40001
1.40001
1.40001
1.40001
1.40001
1.40001
1.40001
1.40001
1.40001
1.40001
1.40001
1.40001
1.40001
1.40001
1.40001
1.40001
1.40122
1.4015
1.40181
1.40214
1.4025
1.40284
1.40318
1.4035
1.40379
1.40401
1.40417
1.40426
1.40428
1.40421
1.40406
1.40384
1.40356
1.40322
1.40286
1.40247
1.40209
1.40171
1.40137
1.40106
1.40079
1.40057
1.40039
1.40025
1.40015
1.40009
1.40004
1.40002
1.40001
1.40001
1.40001
1.40002
1.40002
1.40002
1.40003
1.40003
1.40003
1.40003
1.40002
1.40002
1.40002
1.40002
1.40001
1.40001
1.40001
1.40001
1.40001
1.40001
1.40001
1.40001
1.40001
1.40001
1.40001
1.40001
1.40001
1.40001
1.40001
1.40001
1.40001
1.40001
1.40001
1.40001
1.40001
1.40001
1.40001
1.40001
1.40001
1.40001
1.40001
1.40001
1.40001
1.40089
1.40109
1.40131
1.40154
1.40178
1.40203
1.40225
1.40246
1.40265
1.4028
1.4029
1.40294
1.40294
1.40287
1.40275
1.40257
1.40236
1.40212
1.40185
1.40158
1.40131
1.40105
1.40081
1.4006
1.40043
1.40028
1.40017
1.40009
1.40004
1.4
1.39998
1.39998
1.39998
1.39999
1.4
1.4
1.40001
1.40001
1.40002
1.40002
1.40002
1.40002
1.40002
1.40002
1.40001
1.40001
1.40001
1.40001
1.40001
1.40001
1.40001
1.40001
1.40001
1.40001
1.40001
1.40001
1.40001
1.40001
1.40001
1.40001
1.40001
1.40001
1.40001
1.40001
1.40001
1.40001
1.40001
1.40001
1.40001
1.40001
1.40001
1.40001
1.40001
1.40001
1.40001
1.40066
1.4008
1.40095
1.40111
1.40127
1.40143
1.40159
1.40173
1.40184
1.40193
1.40199
1.40201
1.40198
1.40192
1.40182
1.40169
1.40153
1.40135
1.40116
1.40096
1.40077
1.4006
1.40044
1.4003
1.40019
1.4001
1.40004
1.39999
1.39997
1.39995
1.39995
1.39996
1.39996
1.39997
1.39999
1.39999
1.4
1.40001
1.40001
1.40001
1.40002
1.40002
1.40001
1.40001
1.40001
1.40001
1.40001
1.40001
1.40001
1.40001
1.40001
1.40001
1.40001
1.40001
1.40001
1.40001
1.40001
1.40001
1.40001
1.40001
1.40001
1.40001
1.40001
1.40001
1.40001
1.40001
1.40001
1.40001
1.40001
1.40001
1.40001
1.40001
1.40001
1.40001
1.40001
1.4005
1.4006
1.4007
1.4008
1.40091
1.40102
1.40112
1.40121
1.40128
1.40132
1.40135
1.40135
1.40132
1.40126
1.40118
1.40108
1.40096
1.40082
1.40069
1.40055
1.40042
1.4003
1.4002
1.40011
1.40004
1.39999
1.39995
1.39993
1.39993
1.39993
1.39993
1.39995
1.39996
1.39997
1.39998
1.39999
1.4
1.4
1.40001
1.40001
1.40001
1.40001
1.40001
1.40001
1.40001
1.40001
1.40001
1.40001
1.40001
1.40001
1.40001
1.40001
1.40001
1.40001
1.40001
1.40001
1.40001
1.40001
1.40001
1.40001
1.40001
1.40001
1.40001
1.40001
1.40001
1.40001
1.40001
1.40001
1.40001
1.40001
1.40001
1.40001
1.40001
1.40001
1.40001
1.40037
1.40044
1.40052
1.40059
1.40066
1.40073
1.40079
1.40084
1.40088
1.40091
1.40091
1.4009
1.40086
1.40081
1.40075
1.40067
1.40058
1.40048
1.40038
1.40029
1.4002
1.40012
1.40005
1.4
1.39996
1.39993
1.39992
1.39991
1.39991
1.39992
1.39993
1.39994
1.39995
1.39997
1.39998
1.39999
1.4
1.4
1.40001
1.40001
1.40001
1.40001
1.40001
1.40001
1.40001
1.40001
1.40001
1.40001
1.40001
1.40001
1.40001
1.40001
1.40001
1.40001
1.40001
1.40001
1.40001
1.40001
1.40001
1.40001
1.40001
1.40001
1.40001
1.40001
1.40001
1.40001
1.40001
1.40001
1.40001
1.40001
1.40001
1.40001
1.40001
1.40001
1.40001
1.40029
1.40034
1.40038
1.40044
1.40048
1.40052
1.40056
1.40059
1.40061
1.40061
1.40061
1.40059
1.40056
1.40051
1.40046
1.4004
1.40033
1.40026
1.40019
1.40012
1.40006
1.40001
1.39997
1.39994
1.39991
1.3999
1.3999
1.3999
1.39991
1.39992
1.39993
1.39994
1.39996
1.39997
1.39998
1.39999
1.39999
1.4
1.4
1.40001
1.40001
1.40001
1.40001
1.40001
1.40001
1.40001
1.40001
1.40001
1.40001
1.40001
1.40001
1.40001
1.40001
1.40001
1.40001
1.40001
1.40001
1.40001
1.40001
1.40001
1.40001
1.40001
1.40001
1.40001
1.40001
1.40001
1.40001
1.40001
1.40001
1.40001
1.40001
1.40001
1.40001
1.40001
1.40001
1.40022
1.40026
1.40029
1.40032
1.40035
1.40038
1.4004
1.40042
1.40042
1.40042
1.40041
1.40039
1.40036
1.40032
1.40028
1.40023
1.40017
1.40012
1.40007
1.40003
1.39998
1.39995
1.39993
1.39991
1.3999
1.39989
1.3999
1.3999
1.39991
1.39992
1.39994
1.39995
1.39996
1.39997
1.39998
1.39999
1.4
1.4
1.4
1.4
1.40001
1.40001
1.40001
1.40001
1.40001
1.40001
1.40001
1.40001
1.40001
1.40001
1.40001
1.40001
1.40001
1.40001
1.40001
1.4
1.4
1.40001
1.40001
1.40001
1.40001
1.40001
1.40001
1.40001
1.40001
1.40001
1.40001
1.40001
1.40001
1.40001
1.40001
1.40001
1.40001
1.40001
1.40001
1.40017
1.4002
1.40022
1.40025
1.40026
1.40028
1.40029
1.4003
1.4003
1.40029
1.40028
1.40025
1.40023
1.4002
1.40016
1.40012
1.40008
1.40004
1.40001
1.39997
1.39995
1.39993
1.39991
1.3999
1.3999
1.3999
1.3999
1.39991
1.39992
1.39993
1.39995
1.39996
1.39997
1.39998
1.39998
1.39999
1.4
1.4
1.4
1.4
1.40001
1.40001
1.40001
1.40001
1.40001
1.40001
1.40001
1.40001
1.40001
1.40001
1.40001
1.40001
1.40001
1.40001
1.40001
1.40001
1.40001
1.40001
1.40001
1.40001
1.40001
1.40001
1.40001
1.40001
1.40001
1.40001
1.40001
1.40001
1.40001
1.40001
1.40001
1.40001
1.40001
1.40001
1.40001
1.40014
1.40015
1.40017
1.40019
1.4002
1.40021
1.40021
1.40022
1.40021
1.4002
1.40019
1.40017
1.40014
1.40012
1.40009
1.40006
1.40003
1.4
1.39997
1.39995
1.39993
1.39992
1.39991
1.3999
1.3999
1.39991
1.39991
1.39992
1.39993
1.39994
1.39995
1.39996
1.39997
1.39998
1.39999
1.39999
1.4
1.4
1.4
1.4
1.40001
1.40001
1.40001
1.40001
1.40001
1.40001
1.40001
1.40001
1.40001
1.40001
1.40001
1.40001
1.40001
1.40001
1.4
1.4
1.40001
1.40001
1.40001
1.40001
1.40001
1.40001
1.40001
1.40001
1.40001
1.40001
1.40001
1.40001
1.40001
1.40001
1.40001
1.40001
1.40001
1.40001
1.40001
1.40011
1.40012
1.40013
1.40014
1.40015
1.40016
1.40016
1.40016
1.40015
1.40014
1.40013
1.40011
1.40009
1.40007
1.40005
1.40002
1.4
1.39998
1.39996
1.39994
1.39993
1.39992
1.39991
1.39991
1.39992
1.39992
1.39993
1.39994
1.39994
1.39995
1.39996
1.39997
1.39998
1.39998
1.39999
1.39999
1.4
1.4
1.4
1.4
1.4
1.4
1.40001
1.40001
1.40001
1.40001
1.40001
1.40001
1.40001
1.40001
1.40001
1.40001
1.40001
1.40001
1.40001
1.40001
1.40001
1.40001
1.40001
1.40001
1.40001
1.40001
1.40001
1.40001
1.40001
1.40001
1.40001
1.40001
1.40001
1.40001
1.40001
1.40001
1.40001
1.40001
1.40001
1.40008
1.40009
1.4001
1.40011
1.40012
1.40012
1.40012
1.40012
1.40011
1.4001
1.40009
1.40008
1.40006
1.40004
1.40002
1.40001
1.39999
1.39997
1.39995
1.39994
1.39994
1.39993
1.39993
1.39993
1.39993
1.39993
1.39994
1.39995
1.39995
1.39996
1.39997
1.39998
1.39998
1.39999
1.39999
1.4
1.4
1.4
1.4
1.4
1.4
1.4
1.4
1.40001
1.40001
1.40001
1.40001
1.4
1.40001
1.40001
1.40001
1.40001
1.40001
1.40001
1.40001
1.40001
1.40001
1.40001
1.40001
1.40001
1.40001
1.40001
1.40001
1.40001
1.40001
1.40001
1.40001
1.40001
1.40001
1.40001
1.40001
1.40001
1.40001
1.40001
1.40001
1.40007
1.40008
1.40008
1.40009
1.40009
1.40009
1.40009
1.40009
1.40008
1.40007
1.40006
1.40005
1.40004
1.40003
1.40001
1.39999
1.39998
1.39997
1.39996
1.39995
1.39994
1.39994
1.39994
1.39994
1.39994
1.39995
1.39995
1.39996
1.39996
1.39997
1.39998
1.39998
1.39999
1.39999
1.39999
1.4
1.4
1.4
1.4
1.4
1.4
1.4
1.4
1.40001
1.40001
1.40001
1.40001
1.40001
1.40001
1.40001
1.40001
1.40001
1.40001
1.40001
1.40001
1.40001
1.40001
1.40001
1.40001
1.40001
1.40001
1.40001
1.40001
1.40001
1.40001
1.40001
1.40001
1.40001
1.40001
1.40001
1.40001
1.40001
1.40001
1.40001
1.40001
1.40005
1.40006
1.40006
1.40007
1.40007
1.40007
1.40007
1.40007
1.40006
1.40006
1.40005
1.40004
1.40003
1.40001
1.4
1.39999
1.39998
1.39997
1.39996
1.39996
1.39995
1.39995
1.39995
1.39995
1.39996
1.39996
1.39996
1.39997
1.39997
1.39998
1.39998
1.39999
1.39999
1.39999
1.4
1.4
1.4
1.4
1.4
1.4
1.4
1.4
1.40001
1.40001
1.40001
1.40001
1.4
1.4
1.40001
1.40001
1.40001
1.40001
1.40001
1.40001
1.40001
1.40001
1.40001
1.40001
1.40001
1.40001
1.40001
1.40001
1.40001
1.40001
1.40001
1.40001
1.40001
1.40001
1.40001
1.40001
1.40001
1.40001
1.40001
1.40001
1.40001
1.40004
1.40005
1.40005
1.40005
1.40005
1.40005
1.40005
1.40005
1.40005
1.40004
1.40003
1.40003
1.40002
1.40001
1.4
1.39999
1.39999
1.39998
1.39997
1.39997
1.39996
1.39996
1.39996
1.39996
1.39997
1.39997
1.39997
1.39998
1.39998
1.39998
1.39999
1.39999
1.39999
1.4
1.4
1.4
1.4
1.4
1.4
1.4
1.4
1.4
1.4
1.40001
1.40001
1.40001
1.40001
1.40001
1.40001
1.40001
1.40001
1.40001
1.4
1.4
1.40001
1.40001
1.40001
1.40001
1.40001
1.40001
1.40001
1.40001
1.40001
1.40001
1.40001
1.40001
1.40001
1.40001
1.40001
1.40001
1.40001
1.40001
1.40001
1.40001
1.40001
1.40003
1.40004
1.40004
1.40004
1.40004
1.40004
1.40004
1.40004
1.40004
1.40003
1.40003
1.40002
1.40001
1.40001
1.4
1.39999
1.39999
1.39998
1.39998
1.39997
1.39997
1.39997
1.39997
1.39997
1.39997
1.39998
1.39998
1.39998
1.39999
1.39999
1.39999
1.39999
1.4
1.4
1.4
1.4
1.4
1.4
1.4
1.4
1.4
1.4
1.4
1.4
1.4
1.4
1.40001
1.40001
1.40001
1.40001
1.40001
1.40001
1.40001
1.40001
1.40001
1.40001
1.40001
1.40001
1.4
1.4
1.40001
1.40001
1.40001
1.40001
1.40001
1.40001
1.40001
1.40001
1.40001
1.40001
1.40001
1.40001
1.40001
1.40001
1.40001
1.40003
1.40003
1.40003
1.40003
1.40003
1.40003
1.40003
1.40003
1.40003
1.40002
1.40002
1.40002
1.40001
1.40001
1.4
1.4
1.39999
1.39999
1.39998
1.39998
1.39998
1.39998
1.39998
1.39998
1.39998
1.39998
1.39999
1.39999
1.39999
1.39999
1.39999
1.4
1.4
1.4
1.4
1.4
1.4
1.4
1.4
1.4
1.4
1.4
1.40001
1.40001
1.4
1.4
1.4
1.40001
1.40001
1.40001
1.40001
1.4
1.4
1.4
1.4
1.40001
1.40001
1.40001
1.40001
1.40001
1.40001
1.40001
1.40001
1.40001
1.40001
1.40001
1.40001
1.40001
1.40001
1.40001
1.40001
1.40001
1.40001
1.40001
1.40001
1.40002
1.40002
1.40002
1.40002
1.40002
1.40003
1.40002
1.40002
1.40002
1.40002
1.40002
1.40001
1.40001
1.40001
1.4
1.4
1.39999
1.39999
1.39999
1.39999
1.39999
1.39999
1.39999
1.39999
1.39999
1.39999
1.39999
1.39999
1.39999
1.4
1.4
1.4
1.4
1.4
1.4
1.4
1.4
1.4
1.4
1.4
1.4
1.4
1.4
1.40001
1.40001
1.40001
1.40001
1.4
1.4
1.40001
1.40001
1.40001
1.40001
1.40001
1.40001
1.40001
1.4
1.4
1.4
1.4
1.40001
1.40001
1.40001
1.40001
1.40001
1.40001
1.40001
1.40001
1.40001
1.40001
1.40001
1.40001
1.40001
1.40001
1.40001
1.40002
1.40002
1.40002
1.40002
1.40002
1.40002
1.40002
1.40002
1.40002
1.40002
1.40001
1.40001
1.40001
1.4
1.4
1.4
1.4
1.4
1.39999
1.39999
1.39999
1.39999
1.39999
1.39999
1.39999
1.39999
1.39999
1.4
1.4
1.4
1.4
1.4
1.4
1.4
1.4
1.4
1.4
1.4
1.4
1.4
1.40001
1.40001
1.40001
1.40001
1.4
1.40001
1.40001
1.40001
1.40001
1.40001
1.4
1.4
1.4
1.4
1.40001
1.40001
1.40001
1.40001
1.40001
1.40001
1.40001
1.40001
1.40001
1.40001
1.40001
1.40001
1.40001
1.40001
1.40001
1.40001
1.40001
1.40001
1.40001
1.40001
1.40001
1.40001
1.40001
1.40002
1.40002
1.40002
1.40002
1.40002
1.40001
1.40001
1.40001
1.40001
1.40001
1.40001
1.40001
1.4
1.4
1.4
1.4
1.4
1.4
1.39999
1.39999
1.39999
1.39999
1.4
1.4
1.4
1.4
1.4
1.4
1.4
1.4
1.4
1.4
1.4
1.4
1.4
1.4
1.4
1.40001
1.40001
1.40001
1.40001
1.40001
1.40001
1.4
1.4
1.4
1.40001
1.40001
1.40001
1.40001
1.40001
1.40001
1.40001
1.4
1.4
1.4
1.4
1.40001
1.40001
1.40001
1.40001
1.40001
1.40001
1.40001
1.40001
1.40001
1.40001
1.40001
1.40001
1.40001
1.40001
1.40001
1.40001
1.40001
1.40001
1.40001
1.40001
1.40001
1.40001
1.40001
1.40001
1.40001
1.40001
1.40001
1.40001
1.40001
1.4
1.4
1.4
1.4
1.4
1.4
1.4
1.4
1.4
1.4
1.4
1.4
1.4
1.4
1.4
1.4
1.4
1.4
1.4
1.4
1.4
1.4
1.4
1.4
1.4
1.4
1.4
1.40001
1.40001
1.40001
1.4
1.4
1.40001
1.40001
1.40001
1.40001
1.4
1.4
1.4
1.40001
1.40001
1.40001
1.40001
1.40001
1.40001
1.40001
1.40001
1.40001
1.40001
1.40001
1.40001
1.40001
1.40001
1.40001
1.40001
1.40001
1.40001
1.40001
1.40001
1.40001
1.40001
1.40001
1.40001
1.40001
1.40001
1.40001
1.40001
1.40001
1.40001
1.40001
1.40001
1.40001
1.40001
1.40001
1.40001
1.4
1.4
1.4
1.4
1.4
1.4
1.4
1.4
1.4
1.4
1.4
1.4
1.4
1.4
1.4
1.4
1.4
1.4
1.4
1.4
1.4
1.4
1.4
1.4
1.40001
1.40001
1.40001
1.4
1.4
1.4
1.40001
1.40001
1.40001
1.40001
1.40001
1.40001
1.40001
1.40001
1.40001
1.40001
1.4
1.4
1.4
1.4
1.4
1.40001
1.40001
1.40001
1.40001
1.40001
1.40001
1.40001
1.40001
1.40001
1.40001
1.40001
1.40001
1.40001
1.40001
1.40001
1.40001
1.40001
1.40001
1.40001
1.40001
1.40001
1.40001
1.40001
1.40001
1.40001
1.40001
1.40001
1.40001
1.40001
1.40001
1.40001
1.4
1.4
1.4
1.4
1.4
1.4
1.4
1.4
1.4
1.4
1.4
1.4
1.4
1.4
1.4
1.4
1.4
1.4
1.4
1.4
1.4
1.4
1.4
1.4
1.40001
1.40001
1.40001
1.4
1.4
1.4
1.4
1.4
1.40001
1.40001
1.40001
1.40001
1.40001
1.40001
1.40001
1.40001
1.40001
1.40001
1.40001
1.40001
1.40001
1.40001
1.40001
1.40001
1.40001
1.40001
1.40001
1.40001
1.40001
1.40001
1.40001
1.40001
1.40001
1.40001
1.40001
1.40001
1.40001
1.40001
1.40001
1.40001
1.40001
1.40001
1.40001
1.40001
1.40001
1.40001
1.40001
1.40001
1.40001
1.40001
1.4
1.4
1.4
1.4
1.4
1.4
1.4
1.4
1.4
1.4
1.4
1.4
1.4
1.4
1.4
1.4
1.4
1.4
1.4
1.4
1.4
1.4
1.4
1.4
1.4
1.4
1.4
1.4
1.4
1.40001
1.40001
1.40001
1.40001
1.40001
1.40001
1.40001
1.40001
1.40001
1.4
1.4
1.4
1.4
1.4
1.40001
1.40001
1.40001
1.40001
1.40001
1.40001
1.40001
1.40001
1.40001
1.40001
1.40001
1.40001
1.40001
1.40001
1.40001
1.40001
1.40001
1.40001
1.40001
1.40001
1.40001
1.40001
1.40001
1.40001
1.40001
1.40001
1.40001
1.40001
1.40001
1.40001
1.40001
1.40001
1.40001
1.4
1.4
1.4
1.4
1.4
1.4
1.4
1.4
1.4
1.4
1.4
1.4
1.4
1.4
1.4
1.4
1.4
1.4
1.4
1.4
1.4
1.40001
1.4
1.4
1.4
1.4
1.4
1.4
1.4
1.40001
1.40001
1.40001
1.40001
1.40001
1.40001
1.40001
1.40001
1.40001
1.40001
1.40001
1.40001
1.40001
1.40001
1.40001
1.40001
1.40001
1.40001
1.40001
1.40001
1.40001
1.40001
1.40001
1.40001
1.40001
1.40001
1.40001
1.40001
1.40001
1.40001
1.40001
1.40001
1.40001
1.40001
1.40001
1.40001
1.40001
1.40001
1.40001
1.40001
1.40001
1.40001
1.40001
1.40001
1.4
1.4
1.4
1.4
1.4
1.4
1.4
1.4
1.4
1.4
1.4
1.4
1.4
1.4
1.4
1.4
1.4
1.4
1.4
1.4
1.4
1.4
1.40001
1.40001
1.40001
1.4
1.4
1.4
1.40001
1.40001
1.40001