/*--------------------------------*- C++ -*----------------------------------*\
  =========                 |
  \\      /  F ield         | OpenFOAM: The Open Source CFD Toolbox
   \\    /   O peration     | Website:  https://openfoam.org
    \\  /    A nd           | Version:  6
     \\/     M anipulation  |
\*---------------------------------------------------------------------------*/
FoamFile
{
    version     2.0;
    format      ascii;
    class       volVectorField;
    location    "3.08";
    object      U;
}
// * * * * * * * * * * * * * * * * * * * * * * * * * * * * * * * * * * * * * //

dimensions      [0 1 -1 0 0 0 0];

internalField   nonuniform List<vector> 
10000
(
(0.8944 0.4472 0)
(0.8944 0.4472 0)
(0.8944 0.4472 0)
(0.8944 0.4472 0)
(0.8944 0.4472 0)
(0.8944 0.4472 0)
(0.8944 0.4472 0)
(0.8944 0.4472 0)
(0.8944 0.4472 0)
(0.8944 0.4472 0)
(0.8944 0.4472 0)
(0.8944 0.4472 0)
(0.8944 0.4472 0)
(0.8944 0.4472 0)
(0.8944 0.4472 0)
(0.8944 0.4472 0)
(0.8944 0.4472 0)
(0.8944 0.4472 0)
(0.8944 0.4472 0)
(0.8944 0.4472 0)
(0.8944 0.4472 0)
(0.8944 0.4472 0)
(0.8944 0.4472 0)
(0.8944 0.4472 0)
(0.8944 0.4472 0)
(0.8944 0.4472 0)
(0.8944 0.4472 0)
(0.8944 0.4472 0)
(0.8944 0.4472 0)
(0.8944 0.4472 0)
(0.8944 0.4472 0)
(0.8944 0.4472 0)
(0.8944 0.4472 0)
(0.8944 0.4472 0)
(0.8944 0.4472 0)
(0.8944 0.4472 0)
(0.8944 0.4472 0)
(0.8944 0.4472 0)
(0.8944 0.4472 0)
(0.8944 0.4472 0)
(0.8944 0.4472 0)
(0.8944 0.4472 0)
(0.8944 0.4472 0)
(0.8944 0.4472 0)
(0.8944 0.4472 0)
(0.894401 0.447199 0)
(0.894402 0.447199 0)
(0.894403 0.447197 0)
(0.894404 0.447196 0)
(0.894405 0.447193 0)
(0.894406 0.44719 0)
(0.894407 0.447186 0)
(0.894408 0.447181 0)
(0.894408 0.447177 0)
(0.894407 0.447173 0)
(0.894405 0.447169 0)
(0.894403 0.447167 0)
(0.8944 0.447166 0)
(0.894396 0.447168 0)
(0.894392 0.447172 0)
(0.894388 0.447179 0)
(0.894385 0.447187 0)
(0.894383 0.447196 0)
(0.894383 0.447206 0)
(0.894384 0.447215 0)
(0.894386 0.447224 0)
(0.89439 0.447231 0)
(0.894394 0.447235 0)
(0.894397 0.447238 0)
(0.894401 0.447238 0)
(0.894404 0.447236 0)
(0.894406 0.447233 0)
(0.894407 0.447229 0)
(0.894408 0.447224 0)
(0.894408 0.44722 0)
(0.894407 0.447215 0)
(0.894406 0.447211 0)
(0.894405 0.447208 0)
(0.894404 0.447206 0)
(0.894403 0.447204 0)
(0.894402 0.447202 0)
(0.894401 0.447201 0)
(0.894401 0.447201 0)
(0.894401 0.4472 0)
(0.8944 0.4472 0)
(0.8944 0.4472 0)
(0.8944 0.4472 0)
(0.8944 0.4472 0)
(0.8944 0.4472 0)
(0.8944 0.4472 0)
(0.8944 0.4472 0)
(0.8944 0.4472 0)
(0.8944 0.4472 0)
(0.8944 0.4472 0)
(0.8944 0.4472 0)
(0.8944 0.4472 0)
(0.8944 0.4472 0)
(0.8944 0.4472 0)
(0.8944 0.4472 0)
(0.8944 0.4472 0)
(0.8944 0.4472 0)
(0.8944 0.4472 0)
(0.8944 0.4472 0)
(0.8944 0.4472 0)
(0.8944 0.4472 0)
(0.8944 0.4472 0)
(0.8944 0.4472 0)
(0.8944 0.4472 0)
(0.8944 0.4472 0)
(0.8944 0.4472 0)
(0.8944 0.4472 0)
(0.8944 0.4472 0)
(0.8944 0.4472 0)
(0.8944 0.4472 0)
(0.8944 0.4472 0)
(0.8944 0.4472 0)
(0.8944 0.4472 0)
(0.8944 0.4472 0)
(0.8944 0.4472 0)
(0.8944 0.4472 0)
(0.8944 0.4472 0)
(0.8944 0.4472 0)
(0.8944 0.4472 0)
(0.8944 0.4472 0)
(0.8944 0.4472 0)
(0.8944 0.4472 0)
(0.8944 0.4472 0)
(0.8944 0.4472 0)
(0.8944 0.4472 0)
(0.8944 0.4472 0)
(0.8944 0.4472 0)
(0.8944 0.4472 0)
(0.8944 0.4472 0)
(0.8944 0.4472 0)
(0.8944 0.4472 0)
(0.8944 0.4472 0)
(0.8944 0.4472 0)
(0.8944 0.4472 0)
(0.8944 0.4472 0)
(0.8944 0.4472 0)
(0.8944 0.4472 0)
(0.8944 0.4472 0)
(0.8944 0.4472 0)
(0.8944 0.4472 0)
(0.894401 0.4472 0)
(0.894402 0.447199 0)
(0.894403 0.447198 0)
(0.894404 0.447196 0)
(0.894406 0.447193 0)
(0.894407 0.44719 0)
(0.894409 0.447185 0)
(0.894411 0.44718 0)
(0.894412 0.447173 0)
(0.894412 0.447167 0)
(0.894411 0.447161 0)
(0.894408 0.447156 0)
(0.894404 0.447153 0)
(0.894399 0.447153 0)
(0.894393 0.447156 0)
(0.894387 0.447163 0)
(0.894381 0.447172 0)
(0.894377 0.447184 0)
(0.894375 0.447198 0)
(0.894374 0.447213 0)
(0.894376 0.447226 0)
(0.894379 0.447238 0)
(0.894385 0.447248 0)
(0.89439 0.447254 0)
(0.894396 0.447257 0)
(0.894402 0.447257 0)
(0.894406 0.447254 0)
(0.894409 0.447249 0)
(0.894411 0.447243 0)
(0.894412 0.447236 0)
(0.894412 0.447229 0)
(0.89441 0.447223 0)
(0.894409 0.447217 0)
(0.894407 0.447212 0)
(0.894406 0.447208 0)
(0.894404 0.447206 0)
(0.894403 0.447203 0)
(0.894402 0.447202 0)
(0.894401 0.447201 0)
(0.894401 0.447201 0)
(0.8944 0.4472 0)
(0.8944 0.4472 0)
(0.8944 0.4472 0)
(0.8944 0.4472 0)
(0.8944 0.4472 0)
(0.8944 0.4472 0)
(0.8944 0.4472 0)
(0.8944 0.4472 0)
(0.8944 0.4472 0)
(0.8944 0.4472 0)
(0.8944 0.4472 0)
(0.8944 0.4472 0)
(0.8944 0.4472 0)
(0.8944 0.4472 0)
(0.8944 0.4472 0)
(0.8944 0.4472 0)
(0.8944 0.4472 0)
(0.8944 0.4472 0)
(0.8944 0.4472 0)
(0.8944 0.4472 0)
(0.8944 0.4472 0)
(0.8944 0.4472 0)
(0.8944 0.4472 0)
(0.8944 0.4472 0)
(0.8944 0.4472 0)
(0.8944 0.4472 0)
(0.8944 0.4472 0)
(0.8944 0.4472 0)
(0.8944 0.4472 0)
(0.8944 0.4472 0)
(0.8944 0.4472 0)
(0.8944 0.4472 0)
(0.8944 0.4472 0)
(0.8944 0.4472 0)
(0.8944 0.4472 0)
(0.8944 0.4472 0)
(0.8944 0.4472 0)
(0.8944 0.4472 0)
(0.8944 0.4472 0)
(0.8944 0.4472 0)
(0.8944 0.4472 0)
(0.8944 0.4472 0)
(0.8944 0.4472 0)
(0.8944 0.4472 0)
(0.8944 0.4472 0)
(0.8944 0.4472 0)
(0.8944 0.4472 0)
(0.8944 0.4472 0)
(0.8944 0.4472 0)
(0.8944 0.4472 0)
(0.8944 0.4472 0)
(0.8944 0.4472 0)
(0.8944 0.4472 0)
(0.8944 0.4472 0)
(0.8944 0.4472 0)
(0.8944 0.4472 0)
(0.8944 0.4472 0)
(0.8944 0.4472 0)
(0.8944 0.4472 0)
(0.894401 0.4472 0)
(0.894401 0.4472 0)
(0.894402 0.447199 0)
(0.894404 0.447197 0)
(0.894406 0.447195 0)
(0.894408 0.447191 0)
(0.894411 0.447186 0)
(0.894414 0.447179 0)
(0.894416 0.447171 0)
(0.894417 0.447163 0)
(0.894417 0.447154 0)
(0.894415 0.447146 0)
(0.894411 0.44714 0)
(0.894405 0.447137 0)
(0.894397 0.447138 0)
(0.894388 0.447143 0)
(0.894379 0.447153 0)
(0.894371 0.447168 0)
(0.894365 0.447185 0)
(0.894362 0.447205 0)
(0.894361 0.447225 0)
(0.894364 0.447244 0)
(0.89437 0.447261 0)
(0.894377 0.447273 0)
(0.894386 0.447282 0)
(0.894395 0.447285 0)
(0.894403 0.447284 0)
(0.894409 0.447279 0)
(0.894414 0.447272 0)
(0.894417 0.447263 0)
(0.894418 0.447252 0)
(0.894418 0.447242 0)
(0.894416 0.447233 0)
(0.894414 0.447224 0)
(0.894411 0.447217 0)
(0.894409 0.447212 0)
(0.894406 0.447208 0)
(0.894405 0.447205 0)
(0.894403 0.447203 0)
(0.894402 0.447202 0)
(0.894401 0.447201 0)
(0.894401 0.4472 0)
(0.8944 0.4472 0)
(0.8944 0.4472 0)
(0.8944 0.4472 0)
(0.8944 0.4472 0)
(0.8944 0.4472 0)
(0.8944 0.4472 0)
(0.8944 0.4472 0)
(0.8944 0.4472 0)
(0.8944 0.4472 0)
(0.8944 0.4472 0)
(0.8944 0.4472 0)
(0.8944 0.4472 0)
(0.8944 0.4472 0)
(0.8944 0.4472 0)
(0.8944 0.4472 0)
(0.8944 0.4472 0)
(0.8944 0.4472 0)
(0.8944 0.4472 0)
(0.8944 0.4472 0)
(0.8944 0.4472 0)
(0.8944 0.4472 0)
(0.8944 0.4472 0)
(0.8944 0.4472 0)
(0.8944 0.4472 0)
(0.8944 0.4472 0)
(0.8944 0.4472 0)
(0.8944 0.4472 0)
(0.8944 0.4472 0)
(0.8944 0.4472 0)
(0.8944 0.4472 0)
(0.8944 0.4472 0)
(0.8944 0.4472 0)
(0.8944 0.4472 0)
(0.8944 0.4472 0)
(0.8944 0.4472 0)
(0.8944 0.4472 0)
(0.8944 0.4472 0)
(0.8944 0.4472 0)
(0.8944 0.4472 0)
(0.8944 0.4472 0)
(0.8944 0.4472 0)
(0.8944 0.4472 0)
(0.8944 0.4472 0)
(0.8944 0.4472 0)
(0.8944 0.4472 0)
(0.8944 0.4472 0)
(0.8944 0.4472 0)
(0.8944 0.4472 0)
(0.8944 0.4472 0)
(0.8944 0.4472 0)
(0.8944 0.4472 0)
(0.8944 0.4472 0)
(0.8944 0.4472 0)
(0.8944 0.4472 0)
(0.8944 0.4472 0)
(0.8944 0.4472 0)
(0.8944 0.4472 0)
(0.8944 0.4472 0)
(0.894401 0.447201 0)
(0.894402 0.4472 0)
(0.894404 0.447199 0)
(0.894406 0.447196 0)
(0.894409 0.447193 0)
(0.894412 0.447188 0)
(0.894416 0.447181 0)
(0.89442 0.447171 0)
(0.894423 0.447161 0)
(0.894425 0.447149 0)
(0.894424 0.447138 0)
(0.894421 0.447128 0)
(0.894414 0.447121 0)
(0.894405 0.447118 0)
(0.894393 0.447121 0)
(0.89438 0.447131 0)
(0.894367 0.447147 0)
(0.894356 0.447168 0)
(0.894347 0.447194 0)
(0.894343 0.447222 0)
(0.894343 0.44725 0)
(0.894348 0.447276 0)
(0.894356 0.447297 0)
(0.894367 0.447314 0)
(0.89438 0.447324 0)
(0.894393 0.447327 0)
(0.894405 0.447324 0)
(0.894415 0.447316 0)
(0.894421 0.447304 0)
(0.894425 0.44729 0)
(0.894427 0.447275 0)
(0.894426 0.44726 0)
(0.894424 0.447246 0)
(0.89442 0.447234 0)
(0.894417 0.447224 0)
(0.894413 0.447217 0)
(0.89441 0.447211 0)
(0.894407 0.447207 0)
(0.894405 0.447204 0)
(0.894403 0.447202 0)
(0.894402 0.447201 0)
(0.894401 0.4472 0)
(0.8944 0.4472 0)
(0.8944 0.4472 0)
(0.8944 0.4472 0)
(0.8944 0.4472 0)
(0.8944 0.4472 0)
(0.8944 0.4472 0)
(0.8944 0.4472 0)
(0.8944 0.4472 0)
(0.8944 0.4472 0)
(0.8944 0.4472 0)
(0.8944 0.4472 0)
(0.8944 0.4472 0)
(0.8944 0.4472 0)
(0.8944 0.4472 0)
(0.8944 0.4472 0)
(0.8944 0.4472 0)
(0.8944 0.4472 0)
(0.8944 0.4472 0)
(0.8944 0.4472 0)
(0.8944 0.4472 0)
(0.8944 0.4472 0)
(0.8944 0.4472 0)
(0.8944 0.4472 0)
(0.8944 0.4472 0)
(0.8944 0.4472 0)
(0.8944 0.4472 0)
(0.8944 0.4472 0)
(0.8944 0.4472 0)
(0.8944 0.4472 0)
(0.8944 0.4472 0)
(0.8944 0.4472 0)
(0.8944 0.4472 0)
(0.8944 0.4472 0)
(0.8944 0.4472 0)
(0.8944 0.4472 0)
(0.8944 0.4472 0)
(0.8944 0.4472 0)
(0.8944 0.4472 0)
(0.8944 0.4472 0)
(0.8944 0.4472 0)
(0.8944 0.4472 0)
(0.8944 0.4472 0)
(0.8944 0.4472 0)
(0.8944 0.4472 0)
(0.8944 0.4472 0)
(0.8944 0.4472 0)
(0.8944 0.4472 0)
(0.8944 0.4472 0)
(0.8944 0.4472 0)
(0.8944 0.4472 0)
(0.8944 0.4472 0)
(0.8944 0.4472 0)
(0.8944 0.4472 0)
(0.8944 0.4472 0)
(0.8944 0.4472 0)
(0.8944 0.447201 0)
(0.8944 0.447201 0)
(0.8944 0.447201 0)
(0.894401 0.447201 0)
(0.894403 0.4472 0)
(0.894405 0.447199 0)
(0.894408 0.447196 0)
(0.894412 0.447191 0)
(0.894418 0.447184 0)
(0.894423 0.447174 0)
(0.894429 0.447162 0)
(0.894433 0.447148 0)
(0.894434 0.447134 0)
(0.894433 0.447119 0)
(0.894427 0.447108 0)
(0.894417 0.447101 0)
(0.894403 0.4471 0)
(0.894385 0.447108 0)
(0.894367 0.447125 0)
(0.894349 0.44715 0)
(0.894333 0.447181 0)
(0.894321 0.447218 0)
(0.894316 0.447258 0)
(0.894317 0.447296 0)
(0.894325 0.44733 0)
(0.894338 0.447358 0)
(0.894355 0.447378 0)
(0.894373 0.447388 0)
(0.894392 0.44739 0)
(0.894409 0.447383 0)
(0.894423 0.447369 0)
(0.894433 0.44735 0)
(0.894438 0.447329 0)
(0.89444 0.447306 0)
(0.894439 0.447285 0)
(0.894435 0.447265 0)
(0.89443 0.447248 0)
(0.894424 0.447234 0)
(0.894419 0.447223 0)
(0.894414 0.447215 0)
(0.89441 0.447209 0)
(0.894407 0.447205 0)
(0.894404 0.447202 0)
(0.894402 0.447201 0)
(0.894401 0.4472 0)
(0.894401 0.4472 0)
(0.8944 0.4472 0)
(0.8944 0.4472 0)
(0.8944 0.4472 0)
(0.8944 0.4472 0)
(0.8944 0.4472 0)
(0.8944 0.4472 0)
(0.8944 0.4472 0)
(0.8944 0.4472 0)
(0.8944 0.4472 0)
(0.8944 0.4472 0)
(0.8944 0.4472 0)
(0.8944 0.4472 0)
(0.8944 0.4472 0)
(0.8944 0.4472 0)
(0.8944 0.4472 0)
(0.8944 0.4472 0)
(0.8944 0.4472 0)
(0.8944 0.4472 0)
(0.8944 0.4472 0)
(0.8944 0.4472 0)
(0.8944 0.4472 0)
(0.8944 0.4472 0)
(0.8944 0.4472 0)
(0.8944 0.4472 0)
(0.8944 0.4472 0)
(0.8944 0.4472 0)
(0.8944 0.4472 0)
(0.8944 0.4472 0)
(0.8944 0.4472 0)
(0.8944 0.4472 0)
(0.8944 0.4472 0)
(0.8944 0.4472 0)
(0.8944 0.4472 0)
(0.8944 0.4472 0)
(0.8944 0.4472 0)
(0.8944 0.4472 0)
(0.8944 0.4472 0)
(0.8944 0.4472 0)
(0.8944 0.4472 0)
(0.8944 0.4472 0)
(0.8944 0.4472 0)
(0.8944 0.4472 0)
(0.8944 0.4472 0)
(0.8944 0.4472 0)
(0.8944 0.4472 0)
(0.8944 0.4472 0)
(0.8944 0.4472 0)
(0.8944 0.4472 0)
(0.8944 0.4472 0)
(0.8944 0.4472 0)
(0.8944 0.4472 0)
(0.8944 0.4472 0)
(0.8944 0.447201 0)
(0.894399 0.447201 0)
(0.8944 0.447201 0)
(0.8944 0.447201 0)
(0.8944 0.447202 0)
(0.894401 0.447202 0)
(0.894404 0.447201 0)
(0.894407 0.447199 0)
(0.894411 0.447195 0)
(0.894418 0.447189 0)
(0.894425 0.44718 0)
(0.894432 0.447167 0)
(0.894439 0.447152 0)
(0.894444 0.447134 0)
(0.894446 0.447117 0)
(0.894443 0.4471 0)
(0.894433 0.447089 0)
(0.894418 0.447084 0)
(0.894396 0.44709 0)
(0.894371 0.447106 0)
(0.894344 0.447135 0)
(0.894319 0.447174 0)
(0.894298 0.447222 0)
(0.894284 0.447275 0)
(0.894278 0.447329 0)
(0.894281 0.44738 0)
(0.894294 0.447424 0)
(0.894314 0.447458 0)
(0.894339 0.44748 0)
(0.894366 0.447488 0)
(0.894393 0.447484 0)
(0.894417 0.447469 0)
(0.894436 0.447445 0)
(0.894449 0.447416 0)
(0.894457 0.447383 0)
(0.894459 0.44735 0)
(0.894456 0.447318 0)
(0.894451 0.44729 0)
(0.894443 0.447265 0)
(0.894435 0.447246 0)
(0.894427 0.44723 0)
(0.89442 0.447219 0)
(0.894414 0.447211 0)
(0.894409 0.447206 0)
(0.894406 0.447203 0)
(0.894403 0.447201 0)
(0.894402 0.4472 0)
(0.894401 0.447199 0)
(0.8944 0.447199 0)
(0.8944 0.447199 0)
(0.8944 0.4472 0)
(0.8944 0.4472 0)
(0.8944 0.4472 0)
(0.8944 0.4472 0)
(0.8944 0.4472 0)
(0.8944 0.4472 0)
(0.8944 0.4472 0)
(0.8944 0.4472 0)
(0.8944 0.4472 0)
(0.8944 0.4472 0)
(0.8944 0.4472 0)
(0.8944 0.4472 0)
(0.8944 0.4472 0)
(0.8944 0.4472 0)
(0.8944 0.4472 0)
(0.8944 0.4472 0)
(0.8944 0.4472 0)
(0.8944 0.4472 0)
(0.8944 0.4472 0)
(0.8944 0.4472 0)
(0.8944 0.4472 0)
(0.8944 0.4472 0)
(0.8944 0.4472 0)
(0.8944 0.4472 0)
(0.8944 0.4472 0)
(0.8944 0.4472 0)
(0.8944 0.4472 0)
(0.8944 0.4472 0)
(0.8944 0.4472 0)
(0.8944 0.4472 0)
(0.8944 0.4472 0)
(0.8944 0.4472 0)
(0.8944 0.4472 0)
(0.8944 0.4472 0)
(0.8944 0.4472 0)
(0.8944 0.4472 0)
(0.8944 0.4472 0)
(0.8944 0.4472 0)
(0.8944 0.4472 0)
(0.8944 0.4472 0)
(0.8944 0.4472 0)
(0.8944 0.4472 0)
(0.8944 0.4472 0)
(0.8944 0.4472 0)
(0.8944 0.4472 0)
(0.8944 0.4472 0)
(0.8944 0.4472 0)
(0.8944 0.4472 0)
(0.8944 0.4472 0)
(0.8944 0.4472 0)
(0.894399 0.447201 0)
(0.894399 0.447201 0)
(0.894399 0.447202 0)
(0.894399 0.447202 0)
(0.8944 0.447203 0)
(0.894402 0.447203 0)
(0.894405 0.447202 0)
(0.894409 0.4472 0)
(0.894416 0.447195 0)
(0.894424 0.447187 0)
(0.894434 0.447176 0)
(0.894444 0.447161 0)
(0.894453 0.447141 0)
(0.894458 0.447121 0)
(0.894459 0.447101 0)
(0.894452 0.447085 0)
(0.894436 0.447077 0)
(0.894412 0.44708 0)
(0.894381 0.447097 0)
(0.894345 0.44713 0)
(0.894307 0.447178 0)
(0.894273 0.44724 0)
(0.894245 0.447311 0)
(0.894228 0.447387 0)
(0.894223 0.447462 0)
(0.894231 0.44753 0)
(0.894252 0.447585 0)
(0.894283 0.447623 0)
(0.89432 0.447644 0)
(0.894359 0.447645 0)
(0.894397 0.447629 0)
(0.894431 0.447599 0)
(0.894457 0.447558 0)
(0.894475 0.44751 0)
(0.894484 0.44746 0)
(0.894486 0.44741 0)
(0.894482 0.447364 0)
(0.894473 0.447323 0)
(0.894462 0.447289 0)
(0.89445 0.447261 0)
(0.894439 0.44724 0)
(0.894428 0.447224 0)
(0.89442 0.447214 0)
(0.894413 0.447207 0)
(0.894408 0.447202 0)
(0.894405 0.4472 0)
(0.894402 0.447199 0)
(0.894401 0.447199 0)
(0.8944 0.447199 0)
(0.8944 0.447199 0)
(0.8944 0.447199 0)
(0.8944 0.447199 0)
(0.8944 0.4472 0)
(0.8944 0.4472 0)
(0.8944 0.4472 0)
(0.8944 0.4472 0)
(0.8944 0.4472 0)
(0.8944 0.4472 0)
(0.8944 0.4472 0)
(0.8944 0.4472 0)
(0.8944 0.4472 0)
(0.8944 0.4472 0)
(0.8944 0.4472 0)
(0.8944 0.4472 0)
(0.8944 0.4472 0)
(0.8944 0.4472 0)
(0.8944 0.4472 0)
(0.8944 0.4472 0)
(0.8944 0.4472 0)
(0.8944 0.4472 0)
(0.8944 0.4472 0)
(0.8944 0.4472 0)
(0.8944 0.4472 0)
(0.8944 0.4472 0)
(0.8944 0.4472 0)
(0.8944 0.4472 0)
(0.8944 0.4472 0)
(0.8944 0.4472 0)
(0.8944 0.4472 0)
(0.8944 0.4472 0)
(0.8944 0.4472 0)
(0.8944 0.4472 0)
(0.8944 0.4472 0)
(0.8944 0.4472 0)
(0.8944 0.4472 0)
(0.8944 0.4472 0)
(0.8944 0.4472 0)
(0.8944 0.4472 0)
(0.8944 0.4472 0)
(0.8944 0.4472 0)
(0.8944 0.4472 0)
(0.8944 0.4472 0)
(0.8944 0.4472 0)
(0.8944 0.4472 0)
(0.8944 0.4472 0)
(0.8944 0.4472 0)
(0.8944 0.4472 0)
(0.8944 0.4472 0)
(0.8944 0.4472 0)
(0.894399 0.447201 0)
(0.894399 0.447201 0)
(0.894399 0.447202 0)
(0.894399 0.447203 0)
(0.894399 0.447204 0)
(0.8944 0.447205 0)
(0.894402 0.447206 0)
(0.894406 0.447205 0)
(0.894412 0.447202 0)
(0.894421 0.447197 0)
(0.894432 0.447187 0)
(0.894445 0.447173 0)
(0.894458 0.447155 0)
(0.894468 0.447133 0)
(0.894473 0.447112 0)
(0.89447 0.447093 0)
(0.894457 0.447082 0)
(0.894431 0.447084 0)
(0.894394 0.447103 0)
(0.894348 0.447142 0)
(0.894297 0.447203 0)
(0.894245 0.447284 0)
(0.894199 0.447381 0)
(0.894164 0.447488 0)
(0.894144 0.447596 0)
(0.894143 0.447699 0)
(0.894161 0.447786 0)
(0.894196 0.447853 0)
(0.894244 0.447893 0)
(0.894299 0.447906 0)
(0.894356 0.447891 0)
(0.89441 0.447852 0)
(0.894456 0.447795 0)
(0.894491 0.447725 0)
(0.894514 0.447648 0)
(0.894525 0.44757 0)
(0.894526 0.447495 0)
(0.894518 0.447427 0)
(0.894505 0.447368 0)
(0.894488 0.44732 0)
(0.894471 0.447281 0)
(0.894454 0.447252 0)
(0.894439 0.447231 0)
(0.894427 0.447216 0)
(0.894418 0.447207 0)
(0.894411 0.447202 0)
(0.894406 0.447199 0)
(0.894403 0.447198 0)
(0.894401 0.447197 0)
(0.8944 0.447198 0)
(0.8944 0.447198 0)
(0.8944 0.447199 0)
(0.8944 0.447199 0)
(0.8944 0.447199 0)
(0.8944 0.4472 0)
(0.8944 0.4472 0)
(0.8944 0.4472 0)
(0.8944 0.4472 0)
(0.8944 0.4472 0)
(0.8944 0.4472 0)
(0.8944 0.4472 0)
(0.8944 0.4472 0)
(0.8944 0.4472 0)
(0.8944 0.4472 0)
(0.8944 0.4472 0)
(0.8944 0.4472 0)
(0.8944 0.4472 0)
(0.8944 0.4472 0)
(0.8944 0.4472 0)
(0.8944 0.4472 0)
(0.8944 0.4472 0)
(0.8944 0.4472 0)
(0.8944 0.4472 0)
(0.8944 0.4472 0)
(0.8944 0.4472 0)
(0.8944 0.4472 0)
(0.8944 0.4472 0)
(0.8944 0.4472 0)
(0.8944 0.4472 0)
(0.8944 0.4472 0)
(0.8944 0.4472 0)
(0.8944 0.4472 0)
(0.8944 0.4472 0)
(0.8944 0.4472 0)
(0.8944 0.4472 0)
(0.8944 0.4472 0)
(0.8944 0.4472 0)
(0.8944 0.4472 0)
(0.8944 0.4472 0)
(0.8944 0.4472 0)
(0.8944 0.4472 0)
(0.8944 0.4472 0)
(0.8944 0.4472 0)
(0.8944 0.4472 0)
(0.8944 0.4472 0)
(0.8944 0.4472 0)
(0.8944 0.4472 0)
(0.8944 0.4472 0)
(0.8944 0.4472 0)
(0.894399 0.447201 0)
(0.894399 0.447201 0)
(0.894399 0.447202 0)
(0.894398 0.447203 0)
(0.894398 0.447205 0)
(0.894398 0.447206 0)
(0.894399 0.447208 0)
(0.894402 0.447209 0)
(0.894407 0.447209 0)
(0.894415 0.447206 0)
(0.894427 0.4472 0)
(0.894442 0.447189 0)
(0.894457 0.447174 0)
(0.894472 0.447154 0)
(0.894483 0.447132 0)
(0.894486 0.447113 0)
(0.894476 0.447101 0)
(0.894451 0.447104 0)
(0.894409 0.447127 0)
(0.894353 0.447176 0)
(0.894285 0.447255 0)
(0.894212 0.447362 0)
(0.894141 0.447495 0)
(0.894081 0.447646 0)
(0.894038 0.447805 0)
(0.89402 0.447961 0)
(0.894028 0.448101 0)
(0.894063 0.448215 0)
(0.89412 0.448292 0)
(0.894194 0.448328 0)
(0.894277 0.448322 0)
(0.89436 0.448276 0)
(0.894436 0.448198 0)
(0.894499 0.448094 0)
(0.894545 0.447976 0)
(0.894574 0.447852 0)
(0.894586 0.44773 0)
(0.894584 0.447617 0)
(0.89457 0.447517 0)
(0.894549 0.447431 0)
(0.894525 0.447362 0)
(0.894499 0.447308 0)
(0.894475 0.447267 0)
(0.894454 0.447238 0)
(0.894437 0.447219 0)
(0.894424 0.447207 0)
(0.894414 0.4472 0)
(0.894408 0.447197 0)
(0.894403 0.447195 0)
(0.894401 0.447195 0)
(0.8944 0.447196 0)
(0.894399 0.447197 0)
(0.894399 0.447198 0)
(0.894399 0.447198 0)
(0.894399 0.447199 0)
(0.8944 0.447199 0)
(0.8944 0.4472 0)
(0.8944 0.4472 0)
(0.8944 0.4472 0)
(0.8944 0.4472 0)
(0.8944 0.4472 0)
(0.8944 0.4472 0)
(0.8944 0.4472 0)
(0.8944 0.4472 0)
(0.8944 0.4472 0)
(0.8944 0.4472 0)
(0.8944 0.4472 0)
(0.8944 0.4472 0)
(0.8944 0.4472 0)
(0.8944 0.4472 0)
(0.8944 0.4472 0)
(0.8944 0.4472 0)
(0.8944 0.4472 0)
(0.8944 0.4472 0)
(0.8944 0.4472 0)
(0.8944 0.4472 0)
(0.8944 0.4472 0)
(0.8944 0.4472 0)
(0.8944 0.4472 0)
(0.8944 0.4472 0)
(0.8944 0.4472 0)
(0.8944 0.4472 0)
(0.8944 0.4472 0)
(0.8944 0.4472 0)
(0.8944 0.4472 0)
(0.8944 0.4472 0)
(0.8944 0.4472 0)
(0.8944 0.4472 0)
(0.8944 0.4472 0)
(0.8944 0.4472 0)
(0.8944 0.4472 0)
(0.8944 0.4472 0)
(0.8944 0.4472 0)
(0.8944 0.4472 0)
(0.8944 0.4472 0)
(0.8944 0.4472 0)
(0.8944 0.4472 0)
(0.8944 0.4472 0)
(0.8944 0.4472 0)
(0.894399 0.4472 0)
(0.894399 0.447201 0)
(0.894398 0.447202 0)
(0.894398 0.447203 0)
(0.894397 0.447205 0)
(0.894396 0.447207 0)
(0.894396 0.44721 0)
(0.894398 0.447213 0)
(0.894402 0.447215 0)
(0.894408 0.447215 0)
(0.894419 0.447213 0)
(0.894434 0.447207 0)
(0.894452 0.447195 0)
(0.89447 0.44718 0)
(0.894487 0.447161 0)
(0.894495 0.447144 0)
(0.894491 0.447134 0)
(0.894468 0.44714 0)
(0.894423 0.44717 0)
(0.894356 0.447234 0)
(0.894269 0.447337 0)
(0.89417 0.44748 0)
(0.894067 0.447662 0)
(0.89397 0.447876 0)
(0.893893 0.448109 0)
(0.893844 0.448345 0)
(0.893831 0.448568 0)
(0.893857 0.44876 0)
(0.89392 0.448906 0)
(0.894014 0.448993 0)
(0.89413 0.449016 0)
(0.894254 0.448975 0)
(0.894376 0.448876 0)
(0.894483 0.44873 0)
(0.89457 0.448552 0)
(0.894631 0.448356 0)
(0.894666 0.448158 0)
(0.894677 0.447968 0)
(0.894669 0.447795 0)
(0.894645 0.447645 0)
(0.894613 0.44752 0)
(0.894576 0.44742 0)
(0.894538 0.447343 0)
(0.894504 0.447287 0)
(0.894474 0.447248 0)
(0.89445 0.447222 0)
(0.894432 0.447206 0)
(0.894418 0.447197 0)
(0.894409 0.447193 0)
(0.894404 0.447192 0)
(0.894401 0.447193 0)
(0.894399 0.447194 0)
(0.894398 0.447195 0)
(0.894398 0.447196 0)
(0.894399 0.447198 0)
(0.894399 0.447198 0)
(0.894399 0.447199 0)
(0.8944 0.447199 0)
(0.8944 0.4472 0)
(0.8944 0.4472 0)
(0.8944 0.4472 0)
(0.8944 0.4472 0)
(0.8944 0.4472 0)
(0.8944 0.4472 0)
(0.8944 0.4472 0)
(0.8944 0.4472 0)
(0.8944 0.4472 0)
(0.8944 0.4472 0)
(0.8944 0.4472 0)
(0.8944 0.4472 0)
(0.8944 0.4472 0)
(0.8944 0.4472 0)
(0.8944 0.4472 0)
(0.8944 0.4472 0)
(0.8944 0.4472 0)
(0.8944 0.4472 0)
(0.8944 0.4472 0)
(0.8944 0.4472 0)
(0.8944 0.4472 0)
(0.8944 0.4472 0)
(0.8944 0.4472 0)
(0.8944 0.4472 0)
(0.8944 0.4472 0)
(0.8944 0.4472 0)
(0.8944 0.4472 0)
(0.8944 0.4472 0)
(0.8944 0.4472 0)
(0.8944 0.4472 0)
(0.8944 0.4472 0)
(0.8944 0.4472 0)
(0.8944 0.4472 0)
(0.8944 0.4472 0)
(0.8944 0.4472 0)
(0.8944 0.4472 0)
(0.8944 0.4472 0)
(0.8944 0.4472 0)
(0.8944 0.4472 0)
(0.8944 0.4472 0)
(0.8944 0.4472 0)
(0.894399 0.447201 0)
(0.894399 0.447201 0)
(0.894398 0.447201 0)
(0.894398 0.447203 0)
(0.894396 0.447205 0)
(0.894395 0.447207 0)
(0.894394 0.44721 0)
(0.894394 0.447214 0)
(0.894395 0.447219 0)
(0.8944 0.447222 0)
(0.894408 0.447225 0)
(0.894422 0.447224 0)
(0.89444 0.447219 0)
(0.894461 0.447209 0)
(0.894481 0.447196 0)
(0.894496 0.447183 0)
(0.894497 0.447178 0)
(0.894478 0.447191 0)
(0.894431 0.447231 0)
(0.894354 0.447313 0)
(0.894247 0.447446 0)
(0.894115 0.447636 0)
(0.893969 0.447884 0)
(0.893823 0.448181 0)
(0.893693 0.448515 0)
(0.893594 0.448868 0)
(0.893541 0.449216 0)
(0.893541 0.449534 0)
(0.893598 0.449796 0)
(0.893708 0.449983 0)
(0.89386 0.450079 0)
(0.89404 0.450076 0)
(0.894228 0.449978 0)
(0.894408 0.449793 0)
(0.894563 0.449542 0)
(0.894683 0.449247 0)
(0.894764 0.448931 0)
(0.894806 0.448617 0)
(0.894814 0.448322 0)
(0.894794 0.448059 0)
(0.894754 0.447833 0)
(0.894703 0.447649 0)
(0.894647 0.447504 0)
(0.894593 0.447394 0)
(0.894543 0.447315 0)
(0.894501 0.44726 0)
(0.894467 0.447225 0)
(0.894441 0.447204 0)
(0.894423 0.447193 0)
(0.894411 0.447188 0)
(0.894404 0.447187 0)
(0.8944 0.447188 0)
(0.894398 0.44719 0)
(0.894397 0.447193 0)
(0.894397 0.447195 0)
(0.894398 0.447196 0)
(0.894398 0.447198 0)
(0.894399 0.447198 0)
(0.894399 0.447199 0)
(0.894399 0.447199 0)
(0.8944 0.4472 0)
(0.8944 0.4472 0)
(0.8944 0.4472 0)
(0.8944 0.4472 0)
(0.8944 0.4472 0)
(0.8944 0.4472 0)
(0.8944 0.4472 0)
(0.8944 0.4472 0)
(0.8944 0.4472 0)
(0.8944 0.4472 0)
(0.8944 0.4472 0)
(0.8944 0.4472 0)
(0.8944 0.4472 0)
(0.8944 0.4472 0)
(0.8944 0.4472 0)
(0.8944 0.4472 0)
(0.8944 0.4472 0)
(0.8944 0.4472 0)
(0.8944 0.4472 0)
(0.8944 0.4472 0)
(0.8944 0.4472 0)
(0.8944 0.4472 0)
(0.8944 0.4472 0)
(0.8944 0.4472 0)
(0.8944 0.4472 0)
(0.8944 0.4472 0)
(0.8944 0.4472 0)
(0.8944 0.4472 0)
(0.8944 0.4472 0)
(0.8944 0.4472 0)
(0.8944 0.4472 0)
(0.8944 0.4472 0)
(0.8944 0.4472 0)
(0.8944 0.4472 0)
(0.8944 0.4472 0)
(0.8944 0.4472 0)
(0.8944 0.4472 0)
(0.8944 0.4472 0)
(0.8944 0.4472 0)
(0.8944 0.4472 0)
(0.894399 0.447201 0)
(0.894398 0.447201 0)
(0.894398 0.447202 0)
(0.894396 0.447204 0)
(0.894394 0.447207 0)
(0.894393 0.44721 0)
(0.894391 0.447215 0)
(0.89439 0.447221 0)
(0.894392 0.447228 0)
(0.894397 0.447233 0)
(0.894407 0.447238 0)
(0.894423 0.44724 0)
(0.894444 0.447238 0)
(0.894467 0.447233 0)
(0.894486 0.447228 0)
(0.894494 0.44723 0)
(0.894478 0.447251 0)
(0.894432 0.447305 0)
(0.894344 0.447408 0)
(0.894214 0.447577 0)
(0.894045 0.447821 0)
(0.893845 0.448147 0)
(0.893632 0.448551 0)
(0.893426 0.449018 0)
(0.89325 0.449528 0)
(0.893126 0.450051 0)
(0.89307 0.450554 0)
(0.893094 0.451002 0)
(0.893201 0.45136 0)
(0.893384 0.451602 0)
(0.893626 0.451706 0)
(0.893903 0.451664 0)
(0.89419 0.451478 0)
(0.894457 0.451168 0)
(0.894684 0.45076 0)
(0.894855 0.450289 0)
(0.894965 0.449793 0)
(0.895016 0.449305 0)
(0.895016 0.448851 0)
(0.894977 0.448451 0)
(0.894912 0.448112 0)
(0.894832 0.447839 0)
(0.894748 0.447626 0)
(0.894668 0.447468 0)
(0.894597 0.447355 0)
(0.894537 0.447278 0)
(0.89449 0.447229 0)
(0.894454 0.447201 0)
(0.894429 0.447186 0)
(0.894413 0.447181 0)
(0.894403 0.44718 0)
(0.894398 0.447182 0)
(0.894396 0.447186 0)
(0.894395 0.447189 0)
(0.894396 0.447192 0)
(0.894396 0.447195 0)
(0.894397 0.447196 0)
(0.894398 0.447198 0)
(0.894399 0.447199 0)
(0.894399 0.447199 0)
(0.8944 0.4472 0)
(0.8944 0.4472 0)
(0.8944 0.4472 0)
(0.8944 0.4472 0)
(0.8944 0.4472 0)
(0.8944 0.4472 0)
(0.8944 0.4472 0)
(0.8944 0.4472 0)
(0.8944 0.4472 0)
(0.8944 0.4472 0)
(0.8944 0.4472 0)
(0.8944 0.4472 0)
(0.8944 0.4472 0)
(0.8944 0.4472 0)
(0.8944 0.4472 0)
(0.8944 0.4472 0)
(0.8944 0.4472 0)
(0.8944 0.4472 0)
(0.8944 0.4472 0)
(0.8944 0.4472 0)
(0.8944 0.4472 0)
(0.8944 0.4472 0)
(0.8944 0.4472 0)
(0.8944 0.4472 0)
(0.8944 0.4472 0)
(0.8944 0.4472 0)
(0.8944 0.4472 0)
(0.8944 0.4472 0)
(0.8944 0.4472 0)
(0.8944 0.4472 0)
(0.8944 0.4472 0)
(0.8944 0.4472 0)
(0.8944 0.4472 0)
(0.8944 0.4472 0)
(0.8944 0.4472 0)
(0.8944 0.4472 0)
(0.8944 0.4472 0)
(0.8944 0.4472 0)
(0.8944 0.4472 0)
(0.894399 0.447201 0)
(0.894399 0.447201 0)
(0.894398 0.447202 0)
(0.894396 0.447203 0)
(0.894395 0.447206 0)
(0.894392 0.447209 0)
(0.894389 0.447214 0)
(0.894386 0.447221 0)
(0.894385 0.44723 0)
(0.894386 0.447239 0)
(0.894392 0.447249 0)
(0.894403 0.447258 0)
(0.894421 0.447264 0)
(0.894444 0.447268 0)
(0.894465 0.447273 0)
(0.894476 0.447285 0)
(0.894468 0.447316 0)
(0.894421 0.447383 0)
(0.894326 0.447509 0)
(0.894172 0.447714 0)
(0.893959 0.448019 0)
(0.893696 0.448435 0)
(0.893397 0.448962 0)
(0.893088 0.449591 0)
(0.892799 0.450297 0)
(0.89256 0.451048 0)
(0.892401 0.451803 0)
(0.892346 0.452514 0)
(0.892407 0.453135 0)
(0.892589 0.453621 0)
(0.892879 0.453936 0)
(0.893255 0.454052 0)
(0.89368 0.453957 0)
(0.894114 0.453654 0)
(0.894516 0.453169 0)
(0.894853 0.45254 0)
(0.895103 0.45182 0)
(0.895258 0.451064 0)
(0.895323 0.450322 0)
(0.895312 0.449636 0)
(0.895245 0.449033 0)
(0.89514 0.448527 0)
(0.895018 0.448121 0)
(0.894893 0.447809 0)
(0.894775 0.447578 0)
(0.894672 0.447416 0)
(0.894587 0.447307 0)
(0.89452 0.447238 0)
(0.894471 0.447198 0)
(0.894437 0.447178 0)
(0.894415 0.447171 0)
(0.894402 0.447171 0)
(0.894395 0.447175 0)
(0.894393 0.44718 0)
(0.894392 0.447185 0)
(0.894393 0.447189 0)
(0.894395 0.447192 0)
(0.894396 0.447195 0)
(0.894397 0.447197 0)
(0.894398 0.447198 0)
(0.894399 0.447199 0)
(0.894399 0.447199 0)
(0.8944 0.4472 0)
(0.8944 0.4472 0)
(0.8944 0.4472 0)
(0.8944 0.4472 0)
(0.8944 0.4472 0)
(0.8944 0.4472 0)
(0.8944 0.4472 0)
(0.8944 0.4472 0)
(0.8944 0.4472 0)
(0.8944 0.4472 0)
(0.8944 0.4472 0)
(0.8944 0.4472 0)
(0.8944 0.4472 0)
(0.8944 0.4472 0)
(0.8944 0.4472 0)
(0.8944 0.4472 0)
(0.8944 0.4472 0)
(0.8944 0.4472 0)
(0.8944 0.4472 0)
(0.8944 0.4472 0)
(0.8944 0.4472 0)
(0.8944 0.4472 0)
(0.8944 0.4472 0)
(0.8944 0.4472 0)
(0.8944 0.4472 0)
(0.8944 0.4472 0)
(0.8944 0.4472 0)
(0.8944 0.4472 0)
(0.8944 0.4472 0)
(0.8944 0.4472 0)
(0.8944 0.4472 0)
(0.8944 0.4472 0)
(0.8944 0.4472 0)
(0.8944 0.4472 0)
(0.8944 0.4472 0)
(0.8944 0.4472 0)
(0.8944 0.4472 0)
(0.894399 0.4472 0)
(0.894399 0.447201 0)
(0.894398 0.447202 0)
(0.894397 0.447202 0)
(0.894394 0.447205 0)
(0.894392 0.447208 0)
(0.894388 0.447213 0)
(0.894383 0.44722 0)
(0.89438 0.44723 0)
(0.894377 0.447241 0)
(0.894377 0.447255 0)
(0.894383 0.447269 0)
(0.894395 0.447284 0)
(0.894414 0.447298 0)
(0.894435 0.447313 0)
(0.894449 0.447336 0)
(0.894443 0.447379 0)
(0.894399 0.447459 0)
(0.894298 0.447605 0)
(0.894123 0.447844 0)
(0.893865 0.448207 0)
(0.893527 0.448716 0)
(0.893124 0.449379 0)
(0.892683 0.450189 0)
(0.892238 0.451125 0)
(0.891831 0.45215 0)
(0.891505 0.453215 0)
(0.891298 0.454266 0)
(0.891242 0.455242 0)
(0.891355 0.456084 0)
(0.89164 0.456736 0)
(0.892082 0.45715 0)
(0.892648 0.457289 0)
(0.893289 0.457136 0)
(0.893943 0.456691 0)
(0.894551 0.455984 0)
(0.89506 0.455067 0)
(0.895436 0.454011 0)
(0.895667 0.452897 0)
(0.895759 0.4518 0)
(0.895737 0.450783 0)
(0.895629 0.449889 0)
(0.895469 0.44914 0)
(0.895285 0.448541 0)
(0.895099 0.448082 0)
(0.894926 0.447745 0)
(0.894777 0.44751 0)
(0.894656 0.447353 0)
(0.894562 0.447254 0)
(0.894494 0.447198 0)
(0.894447 0.44717 0)
(0.894417 0.44716 0)
(0.8944 0.44716 0)
(0.894391 0.447165 0)
(0.894388 0.447172 0)
(0.894388 0.447178 0)
(0.89439 0.447184 0)
(0.894392 0.447189 0)
(0.894394 0.447193 0)
(0.894396 0.447195 0)
(0.894397 0.447197 0)
(0.894398 0.447198 0)
(0.894399 0.447199 0)
(0.894399 0.447199 0)
(0.8944 0.4472 0)
(0.8944 0.4472 0)
(0.8944 0.4472 0)
(0.8944 0.4472 0)
(0.8944 0.4472 0)
(0.8944 0.4472 0)
(0.8944 0.4472 0)
(0.8944 0.4472 0)
(0.8944 0.4472 0)
(0.8944 0.4472 0)
(0.8944 0.4472 0)
(0.8944 0.4472 0)
(0.8944 0.4472 0)
(0.8944 0.4472 0)
(0.8944 0.4472 0)
(0.8944 0.4472 0)
(0.8944 0.4472 0)
(0.8944 0.4472 0)
(0.8944 0.4472 0)
(0.8944 0.4472 0)
(0.8944 0.4472 0)
(0.8944 0.4472 0)
(0.8944 0.4472 0)
(0.8944 0.4472 0)
(0.8944 0.4472 0)
(0.8944 0.4472 0)
(0.8944 0.4472 0)
(0.8944 0.4472 0)
(0.8944 0.4472 0)
(0.8944 0.4472 0)
(0.8944 0.4472 0)
(0.8944 0.4472 0)
(0.8944 0.4472 0)
(0.8944 0.4472 0)
(0.8944 0.4472 0)
(0.8944 0.4472 0)
(0.894399 0.4472 0)
(0.894399 0.447201 0)
(0.894397 0.447202 0)
(0.894395 0.447203 0)
(0.894392 0.447206 0)
(0.894388 0.447211 0)
(0.894383 0.447217 0)
(0.894376 0.447227 0)
(0.89437 0.44724 0)
(0.894365 0.447256 0)
(0.894365 0.447275 0)
(0.89437 0.447296 0)
(0.894381 0.447319 0)
(0.894397 0.447345 0)
(0.894411 0.447379 0)
(0.894407 0.447432 0)
(0.894366 0.447525 0)
(0.894262 0.447686 0)
(0.89407 0.447953 0)
(0.893769 0.448366 0)
(0.893353 0.44896 0)
(0.892832 0.449756 0)
(0.892229 0.450756 0)
(0.891586 0.451941 0)
(0.890953 0.45327 0)
(0.890383 0.45469 0)
(0.889933 0.456136 0)
(0.889653 0.457539 0)
(0.889586 0.458828 0)
(0.889757 0.459934 0)
(0.890173 0.46079 0)
(0.890816 0.461338 0)
(0.891643 0.461528 0)
(0.892587 0.461331 0)
(0.893564 0.46074 0)
(0.894481 0.459781 0)
(0.895259 0.458518 0)
(0.89584 0.457042 0)