/*--------------------------------*- C++ -*----------------------------------*\
  =========                 |
  \\      /  F ield         | OpenFOAM: The Open Source CFD Toolbox
   \\    /   O peration     | Website:  https://openfoam.org
    \\  /    A nd           | Version:  6
     \\/     M anipulation  |
\*---------------------------------------------------------------------------*/
FoamFile
{
    version     2.0;
    format      ascii;
    class       volVectorField;
    location    "3.53";
    object      U;
}
// * * * * * * * * * * * * * * * * * * * * * * * * * * * * * * * * * * * * * //

dimensions      [0 1 -1 0 0 0 0];

internalField   nonuniform List<vector> 
4214
(
(4.75145 -0.102006 -8.76214e-20)
(4.9698 -0.0659887 -1.51589e-20)
(5.07959 -0.033421 3.53076e-20)
(5.15526 -0.00351026 -5.67458e-20)
(5.21407 0.0297552 0)
(5.25782 0.0613164 -3.86866e-21)
(5.29076 0.0853422 1.15512e-20)
(5.31724 0.0987432 -1.28934e-20)
(5.34065 0.0987541 5.28351e-22)
(5.36403 0.0812575 6.2179e-23)
(5.3957 0.0380901 -7.93746e-23)
(5.45574 -0.0395997 7.492e-21)
(5.54747 -0.154425 -7.19537e-21)
(5.58023 -0.270918 0)
(5.33301 -0.400077 0)
(4.57032 -0.556216 2.90072e-20)
(3.71836 -0.746478 2.26487e-21)
(3.31456 -0.998879 0)
(3.48119 -1.23242 0)
(3.91302 -1.42288 -5.06729e-21)
(4.22665 -1.59656 9.77787e-22)
(4.38793 -1.72622 1.09416e-20)
(4.47928 -1.78428 5.0148e-21)
(4.55947 -1.78313 1.74936e-20)
(4.66069 -1.72837 -2.10891e-20)
(4.79257 -1.63513 7.42595e-20)
(4.94174 -1.51778 -5.1928e-20)
(5.08911 -1.38759 0)
(5.22038 -1.25408 0)
(5.32819 -1.12247 -4.91774e-20)
(5.40911 -0.994738 9.58939e-20)
(5.46484 -0.872019 4.56551e-22)
(5.49626 -0.753593 -4.88874e-20)
(5.51028 -0.638801 0)
(5.50921 -0.527495 0)
(5.49224 -0.418834 3.31188e-21)
(5.45739 -0.311902 0)
(5.40496 -0.209855 -6.81484e-21)
(5.33537 -0.112035 8.16774e-21)
(5.21769 -0.0003686 8.38606e-21)
(4.9652 0.103322 -1.98058e-19)
(5.04341 -0.053687 0)
(5.11494 -0.00868547 6.55006e-20)
(5.17967 0.0240997 -7.67239e-20)
(5.23476 0.0510086 1.72275e-20)
(5.27468 0.0795 -1.9666e-20)
(5.30063 0.102977 -8.11758e-21)
(5.3185 0.116511 1.20421e-20)
(5.33338 0.118538 1.19377e-20)
(5.34702 0.106509 -3.16897e-21)
(5.36142 0.075143 0)
(5.38665 0.0153024 1.16397e-20)
(5.44038 -0.0805897 -1.73716e-20)
(5.51008 -0.206992 0)
(5.47524 -0.330782 -5.94098e-20)
(5.0974 -0.468288 4.58777e-20)
(4.25041 -0.626983 -4.30447e-20)
(3.42967 -0.799696 -5.68277e-20)
(3.10531 -1.02026 3.12834e-20)
(3.31969 -1.25408 1.44225e-20)
(3.74548 -1.49761 4.37302e-21)
(4.05744 -1.75715 -2.42236e-21)
(4.2676 -1.97504 -3.49418e-20)
(4.4378 -2.11315 -1.72059e-20)
(4.59691 -2.1632 5.77915e-20)
(4.76623 -2.13461 -1.33964e-19)
(4.94966 -2.03599 1.07861e-19)
(5.13393 -1.8865 1.74734e-20)
(5.30099 -1.71019 -7.12414e-20)
(5.44043 -1.52624 1.43663e-19)
(5.55204 -1.34908 -1.38701e-19)
(5.63491 -1.18606 0)
(5.69188 -1.04027 1.77905e-20)
(5.72593 -0.90882 6.59444e-20)
(5.74094 -0.788311 -4.58978e-21)
(5.74074 -0.676371 -6.29749e-20)
(5.72675 -0.569944 -1.09933e-19)
(5.69735 -0.464045 2.09773e-19)
(5.65252 -0.360887 -9.71044e-20)
(5.5975 -0.264713 9.67909e-20)
(5.52927 -0.140995 -1.83012e-19)
(5.42601 0.0102472 2.14704e-19)
(5.07075 -0.0119591 1.0126e-19)
(5.14456 0.0282828 8.30636e-20)
(5.22004 0.0607576 -5.71718e-20)
(5.2659 0.0856907 0)
(5.29254 0.10837 0)
(5.30949 0.124323 0)
(5.32172 0.13046 -2.01337e-20)
(5.33228 0.125539 1.03915e-20)
(5.34139 0.106394 1.86384e-22)
(5.3514 0.0670612 -2.58465e-21)
(5.3732 -0.00167259 -2.8074e-21)
(5.42207 -0.105862 -5.67166e-20)
(5.47365 -0.233944 4.0937e-20)
(5.40759 -0.366374 8.43871e-20)
(4.95291 -0.503335 -3.63004e-21)
(4.09282 -0.6386 6.19357e-20)
(3.30364 -0.783089 5.33266e-20)
(3.00475 -0.984233 8.20735e-20)
(3.2097 -1.22724 7.22124e-20)
(3.60572 -1.5024 0)
(3.90274 -1.80028 4.63957e-21)
(4.13348 -2.06265 3.58105e-20)
(4.34948 -2.2527 -2.10963e-19)
(4.56872 -2.35584 3.21043e-20)
(4.80617 -2.36947 -1.03428e-19)
(5.05594 -2.29055 -3.02133e-19)
(5.28715 -2.13157 2.15876e-19)
(5.48202 -1.92626 1.36103e-19)
(5.62842 -1.69954 -1.15262e-19)
(5.73141 -1.47355 9.62943e-20)
(5.79507 -1.26611 2.22254e-19)
(5.83216 -1.08873 -3.00576e-19)
(5.85045 -0.940041 1.37552e-19)
(5.85423 -0.813818 -1.46937e-19)
(5.84687 -0.703961 2.47385e-21)
(5.83061 -0.605167 -8.83269e-21)
(5.80544 -0.51119 0)
(5.76989 -0.419228 0)
(5.71885 -0.333432 0)
(5.64277 -0.225737 1.63938e-19)
(5.57102 -0.0870431 -1.58764e-19)
(5.15439 0.0372033 0)
(5.22569 0.0780437 9.83525e-20)
(5.27703 0.106682 -1.10991e-19)
(5.30042 0.12442 0)
(5.31312 0.139062 0)
(5.32128 0.146937 -2.12417e-20)
(5.32651 0.145495 2.36146e-20)
(5.33097 0.133018 3.81934e-21)
(5.33324 0.105782 8.94838e-21)
(5.3368 0.0575486 -4.45507e-21)
(5.35346 -0.0210045 2.80034e-21)
(5.39465 -0.133298 -4.24393e-20)
(5.42153 -0.262923 1.43207e-19)
(5.29768 -0.403942 6.92131e-20)
(4.75929 -0.534038 -1.13497e-19)
(3.89414 -0.637089 1.62475e-19)
(3.13885 -0.749294 -2.41674e-19)
(2.86664 -0.930708 -1.04148e-19)
(3.0555 -1.1802 -1.00557e-19)
(3.41125 -1.48146 1.85713e-20)
(3.69104 -1.81417 -2.25694e-21)
(3.94292 -2.1202 1.62832e-19)
(4.21065 -2.36197 1.90554e-20)
(4.50279 -2.51859 -4.97822e-19)
(4.82535 -2.57342 0)
(5.17148 -2.53982 3.1393e-19)
(5.48591 -2.38795 4.83576e-19)
(5.74137 -2.16417 -2.77932e-19)
(5.92088 -1.90387 -2.609e-19)
(6.02986 -1.62809 -2.43655e-19)
(6.06934 -1.36483 4.44543e-19)
(6.06691 -1.1388 -1.35248e-19)
(6.04803 -0.957249 3.27352e-19)
(6.02434 -0.814557 -1.17546e-20)
(5.99771 -0.700193 1.21036e-20)
(5.96844 -0.605052 8.99706e-21)
(5.9378 -0.521928 -3.21759e-19)
(5.90647 -0.445162 3.01167e-19)
(5.87258 -0.375584 0)
(5.81845 -0.291912 2.80428e-19)
(5.75231 -0.165283 -2.48311e-19)
(5.23043 0.0933129 0)
(5.28201 0.130342 2.43705e-19)
(5.31263 0.149129 -7.75589e-20)
(5.32152 0.159337 4.35403e-20)
(5.32428 0.16639 0)
(5.32487 0.16663 -2.8965e-20)
(5.32478 0.15785 7.99786e-21)
(5.32256 0.138032 -1.53258e-20)
(5.31817 0.103365 4.86339e-21)
(5.31539 0.0470195 -2.31092e-21)
(5.32659 -0.0398401 -6.88806e-20)
(5.35762 -0.157477 1.34488e-19)
(5.35537 -0.289554 -8.26838e-20)
(5.17197 -0.434847 1.01286e-19)
(4.57584 -0.546973 -1.14624e-19)
(3.71701 -0.61002 -1.25958e-19)
(2.99217 -0.684729 1.51706e-19)
(2.72575 -0.844378 0)
(2.87913 -1.091 0)
(3.18214 -1.40039 -6.44091e-20)
(3.43484 -1.74811 1.85109e-20)
(3.69512 -2.07777 1.82676e-19)
(4.00418 -2.35462 2.63388e-19)
(4.36736 -2.55044 4.41732e-19)
(4.77533 -2.62798 -7.1371e-19)
(5.22155 -2.64078 0)
(5.64232 -2.53557 -1.84781e-18)
(5.99171 -2.30958 5.68185e-19)
(6.23715 -2.04038 1.28438e-18)
(6.38326 -1.73927 -1.18179e-18)
(6.41803 -1.43884 0)
(6.37346 -1.17021 -1.06145e-19)
(6.29667 -0.950568 -1.20756e-19)
(6.22075 -0.78333 -3.07914e-19)
(6.15677 -0.658834 -2.31344e-19)
(6.10274 -0.564029 9.76527e-19)
(6.0549 -0.48765 -4.42667e-19)
(6.01336 -0.42288 3.49472e-19)
(5.97854 -0.366201 -3.79999e-19)
(5.94138 -0.310545 3.43479e-19)
(5.89441 -0.214801 1.16099e-19)
(5.29596 0.150206 0)
(5.32759 0.17832 -1.32112e-19)
(5.33838 0.187754 -1.34649e-19)
(5.33509 0.191375 6.08977e-21)
(5.32965 0.191182 4.20062e-20)
(5.32395 0.18433 2.9027e-20)
(5.31729 0.168611 0)
(5.30828 0.141948 2.04739e-21)
(5.29654 0.100401 -1.08293e-20)
(5.28687 0.0368182 0)
(5.2914 -0.0566287 -6.14332e-20)
(5.30854 -0.177907 -1.05115e-19)
(5.27184 -0.314497 9.78188e-20)
(5.02187 -0.455356 -1.87201e-19)
(4.39422 -0.541391 4.51267e-19)
(3.54799 -0.559827 0)
(2.84818 -0.592448 2.74003e-19)
(2.5722 -0.722318 -3.2592e-20)
(2.67306 -0.951882 2.99698e-20)
(2.91606 -1.2466 2.20244e-19)
(3.13041 -1.58555 8.79034e-21)
(3.38165 -1.91326 1.69885e-18)
(3.7119 -2.19849 -1.21133e-19)
(4.12968 -2.41641 -2.15374e-18)
(4.63086 -2.57328 3.14726e-18)
(5.18551 -2.5986 1.21088e-18)
(5.71007 -2.46898 1.68441e-18)
(6.17044 -2.26412 0)
(6.513 -2.01074 0)
(6.73152 -1.7181 0)
(6.80115 -1.41824 0)
(6.74578 -1.14293 -4.28519e-19)
(6.61781 -0.905948 -3.96997e-19)
(6.4735 -0.720107 3.80922e-19)
(6.34958 -0.586658 5.91143e-19)
(6.2549 -0.492438 -1.045e-19)
(6.18118 -0.423018 -5.74766e-19)
(6.12128 -0.368528 -6.1292e-21)
(6.07308 -0.32372 -3.71572e-19)
(6.03599 -0.283463 3.89405e-19)
(5.99576 -0.226594 1.89583e-20)
(5.34308 0.200718 0)
(5.35655 0.220165 0)
(5.3521 0.2221 1.96531e-19)
(5.34049 0.220219 -2.23846e-19)
(5.32853 0.213616 9.94017e-21)
(5.31671 0.20035 -1.46337e-20)
(5.3034 0.178357 8.39328e-21)
(5.28684 0.145612 2.18756e-20)
(5.26701 0.0979959 4.67758e-20)
(5.24989 0.0285454 -3.76145e-20)
(5.246 -0.069319 0)
(5.24431 -0.193151 -2.32695e-19)
(5.16844 -0.332563 3.76016e-19)
(4.86675 -0.459565 -1.22931e-19)
(4.22251 -0.514039 -2.53957e-19)
(3.39629 -0.485518 3.37683e-19)
(2.71403 -0.470348 -2.7718e-19)
(2.4109 -0.556839 0)
(2.44546 -0.749791 -6.98167e-20)
(2.62132 -1.00368 -1.72066e-19)
(2.78612 -1.30256 -1.38739e-20)
(3.00491 -1.59224 -6.9813e-19)
(3.32675 -1.84229 -1.83452e-18)
(3.76855 -2.0272 1.8184e-18)
(4.34697 -2.16578 -2.10938e-18)
(4.99665 -2.14633 -6.41003e-18)
(5.60548 -2.10615 -1.52577e-18)
(6.18392 -1.9467 0)
(6.65578 -1.74007 0)
(6.98062 -1.49126 -9.04207e-19)
(7.11772 -1.22534 -1.16945e-18)
(7.09481 -0.981583 2.47571e-18)
(6.95865 -0.769142 -1.15159e-18)
(6.76185 -0.593538 8.05973e-19)
(6.56916 -0.467596 1.07845e-19)
(6.41836 -0.384377 -7.36477e-19)
(6.30969 -0.328381 7.30107e-19)
(6.22811 -0.287516 3.42287e-20)
(6.16331 -0.256526 -6.21843e-20)
(6.1128 -0.228197 0)
(6.07072 -0.203645 -1.11567e-19)
(5.37334 0.242979 1.56119e-19)
(5.37274 0.255671 -1.71405e-19)
(5.35709 0.252645 -2.08006e-19)
(5.3391 0.246384 1.15109e-19)
(5.32118 0.234348 -1.16252e-20)
(5.30311 0.215553 0)
(5.28257 0.188169 -1.80419e-20)
(5.25765 0.150253 5.75667e-20)
(5.22909 0.0977858 -5.44292e-20)
(5.20353 0.0242992 0)
(5.18767 -0.0758046 -4.97296e-20)
(5.16248 -0.200943 2.45101e-19)
(5.04768 -0.338194 -1.1429e-19)
(4.70692 -0.445121 -3.04841e-19)
(4.06466 -0.462988 1.55795e-19)
(3.26631 -0.388988 -5.10473e-19)
(2.59358 -0.31948 1.62539e-19)
(2.24731 -0.344402 0)
(2.20614 -0.475307 6.67186e-20)
(2.30979 -0.661445 0)
(2.41904 -0.88494 0)
(2.59028 -1.09516 -3.00174e-18)
(2.87662 -1.26977 -6.80748e-19)
(3.30531 -1.37249 2.89456e-19)
(3.90184 -1.44527 8.07461e-19)
(4.59407 -1.45473 2.19285e-18)
(5.26773 -1.4477 2.86836e-18)
(5.9554 -1.35711 -1.38165e-18)
(6.57079 -1.2206 2.47968e-18)
(7.03225 -1.04657 -1.74318e-19)
(7.25769 -0.846633 0)
(7.2807 -0.651805 1.69447e-18)
(7.20704 -0.490719 -1.00908e-18)
(7.01229 -0.366243 3.48255e-19)
(6.77779 -0.279883 -7.37994e-19)
(6.57519 -0.227574 9.954e-19)
(6.42715 -0.197422 7.34185e-19)
(6.32328 -0.178725 -1.38291e-18)
(6.24546 -0.166667 6.51871e-19)
(6.18299 -0.15424 0)
(6.13251 -0.15219 0)
(5.39056 0.277915 -2.11611e-19)
(5.37858 0.286372 0)
(5.35464 0.280306 1.45834e-19)
(5.33114 0.270599 0)
(5.30731 0.254229 -6.56207e-20)
(5.2825 0.230964 2.98705e-20)
(5.25398 0.199284 7.17263e-21)
(5.22007 0.157394 -2.76933e-20)
(5.18225 0.101694 -1.27691e-20)
(5.14643 0.0265103 1.76247e-19)
(5.11479 -0.0734746 -2.44301e-19)
(5.06276 -0.196951 0)
(4.91335 -0.324964 0)
(4.55056 -0.408466 0)
(3.92625 -0.390203 5.95364e-19)
(3.1638 -0.273136 -6.17908e-21)
(2.49453 -0.142733 -8.29474e-19)
(2.09552 -0.0863332 2.19054e-20)
(1.96992 -0.127406 -2.11527e-20)
(1.99996 -0.219534 6.12192e-19)
(2.05475 -0.339137 0)
(2.17207 -0.433523 3.6552e-18)
(2.40066 -0.495049 2.01068e-18)
(2.77723 -0.507469 3.44469e-19)
(3.32304 -0.527171 0)
(3.99608 -0.535249 0)
(4.69653 -0.555994 0)
(5.45575 -0.537073 0)
(6.1937 -0.485494 0)
(6.79988 -0.403354 -2.08317e-18)
(7.21777 -0.301143 2.00014e-18)
(7.31999 -0.188891 -1.29835e-18)
(7.28613 -0.0958448 -9.54345e-19)
(7.13888 -0.0441322 -3.61928e-19)
(6.90823 -0.0236509 7.48805e-19)
(6.68328 -0.021997 -1.01433e-18)
(6.50699 -0.0301301 0)
(6.38403 -0.0411544 0)
(6.29853 -0.0531254 -6.43687e-19)
(6.23192 -0.0592984 6.30788e-19)
(6.17852 -0.0789571 0)
(5.39786 0.307916 4.07446e-19)
(5.37652 0.313876 -1.97744e-19)
(5.34592 0.306142 0)
(5.31679 0.293848 0)
(5.28658 0.274339 2.1614e-20)
(5.25424 0.247815 -1.71876e-20)
(5.21707 0.2132 3.89443e-20)
(5.17376 0.168928 6.67226e-20)
(5.12593 0.112045 -2.10887e-19)
(5.07769 0.037788 3.38769e-19)
(5.02707 -0.0588822 2.90148e-19)
(4.94721 -0.175939 -4.17138e-19)
(4.76942 -0.289285 1.80986e-19)
(4.40147 -0.347172 -1.7822e-19)
(3.81098 -0.297316 -6.03954e-19)
(3.09593 -0.141231 6.05878e-19)
(2.43423 0.053713 6.61818e-19)
(1.97373 0.207374 0)
(1.76383 0.280746 0)
(1.7145 0.302767 -6.65654e-19)
(1.71323 0.306955 8.74944e-20)
(1.76846 0.341964 7.57543e-20)
(1.9244 0.405845 4.03934e-19)
(2.21929 0.47833 -3.77072e-18)
(2.66545 0.506819 0)
(3.25709 0.506392 0)
(3.94204 0.45654 0)
(4.7343 0.409907 0)
(5.56339 0.379152 -1.38383e-18)
(6.30247 0.361364 -9.3083e-19)
(6.85932 0.356458 -1.70484e-18)
(7.17922 0.360374 6.82831e-19)
(7.22194 0.359993 -3.48313e-19)
(7.108 0.331153 8.2006e-19)
(6.91108 0.277428 -2.55048e-19)
(6.69999 0.217061 4.79493e-19)
(6.52148 0.160504 -7.99548e-19)
(6.39262 0.1132 7.8421e-19)
(6.30639 0.0745495 6.38345e-19)
(6.24325 0.0484592 -1.23598e-18)
(6.19645 0.0115577 5.92146e-19)
(5.39767 0.335432 0)
(5.36805 0.340013 -1.66479e-19)
(5.33162 0.331633 3.39797e-19)
(5.29612 0.317552 4.28935e-20)
(5.25867 0.296133 -9.49575e-20)
(5.21802 0.267672 3.16867e-20)
(5.17174 0.231705 -2.71993e-20)
(5.11874 0.186926 0)
(5.06012 0.131245 1.50635e-19)
(4.99753 0.060872 -1.32602e-19)
(4.92587 -0.028269 -1.17908e-19)
(4.8191 -0.132459 1.48119e-19)
(4.62024 -0.226081 0)
(4.26157 -0.259368 0)
(3.72156 -0.185437 0)
(3.06853 0.00241685 -2.17619e-19)
(2.42837 0.258928 -1.81925e-19)
(1.92696 0.514866 0)
(1.62926 0.71545 -2.37355e-19)
(1.48198 0.862892 8.2211e-19)
(1.4068 1.00467 9.55712e-20)
(1.38656 1.1613 -2.2544e-18)
(1.45356 1.32358 4.16696e-19)
(1.64362 1.45483 6.55879e-18)
(1.97023 1.51654 3.68631e-18)
(2.45686 1.5115 9.72935e-19)
(3.10282 1.42582 -2.71201e-18)
(3.89763 1.3102 1.70033e-18)
(4.77583 1.20046 -1.26413e-18)
(5.61785 1.09244 3.57009e-18)
(6.30042 0.997036 4.58996e-18)
(6.73933 0.910388 -1.37136e-18)
(6.92505 0.815997 0)
(6.90614 0.704001 0)
(6.77068 0.577519 1.409e-19)
(6.60109 0.45393 -3.78296e-19)
(6.44929 0.34784 -3.86885e-20)
(6.33664 0.264618 -8.0648e-20)
(6.26215 0.200748 6.39488e-20)
(6.21005 0.155876 1.85025e-20)
(6.17633 0.106417 -5.15875e-19)
(5.39231 0.363484 -2.54178e-19)
(5.35486 0.367326 -2.06596e-19)
(5.31221 0.359035 -3.22322e-19)
(5.26943 0.344005 -5.96683e-20)
(5.22384 0.32182 3.05083e-20)
(5.1741 0.292665 0)
(5.11833 0.257022 5.91927e-20)
(5.05529 0.213849 -1.69494e-19)
(4.98508 0.161988 1.12363e-19)
(4.90681 0.0987948 -2.32609e-20)
(4.81322 0.0221135 1.53815e-19)
(4.68162 -0.062338 -2.94883e-19)
(4.46965 -0.130726 2.01121e-19)
(4.13229 -0.141422 -2.01102e-19)
(3.65753 -0.0519583 2.21119e-19)
(3.08436 0.155406 2.08717e-19)
(2.4934 0.45639 0)
(1.97635 0.796544 0)
(1.58826 1.12163 -6.89743e-20)
(1.34305 1.39506 -8.09826e-19)
(1.17331 1.67346 -3.79939e-20)
(1.05982 1.93403 -2.17726e-18)
(1.02193 2.1586 -3.14053e-18)
(1.09841 2.31008 -7.89858e-18)
(1.31081 2.36521 -2.96355e-18)
(1.69975 2.32636 9.02361e-19)
(2.28894 2.19365 -8.55197e-19)
(3.05271 2.01617 2.49648e-18)
(3.93197 1.83176 -1.91766e-18)
(4.8333 1.64679 0)
(5.62905 1.47799 -1.45588e-18)
(6.20036 1.32722 0)
(6.49987 1.16774 -4.20284e-19)
(6.57104 0.990037 6.08523e-19)
(6.5073 0.804119 -3.4419e-19)
(6.39664 0.631118 2.09588e-19)
(6.29259 0.488076 3.60765e-19)
(6.21636 0.379664 -4.27278e-19)
(6.16823 0.299686 -6.71961e-20)
(6.13591 0.242639 5.81253e-20)
(6.1189 0.188338 -3.54307e-20)
(5.38446 0.396372 5.20639e-19)
(5.33856 0.399778 4.15921e-19)
(5.28842 0.392073 1.61261e-19)
(5.23745 0.376821 -9.18929e-20)
(5.18306 0.354984 9.36072e-20)
(5.12379 0.326327 0)
(5.05815 0.292661 -4.40912e-20)
(4.98465 0.253151 7.08112e-20)
(4.90229 0.207745 0)
(4.80815 0.155206 -2.60396e-20)
(4.69403 0.0959773 -1.67536e-19)
(4.54238 0.0371998 1.15121e-19)
(4.32598 -0.00153727 3.62967e-19)
(4.01848 0.0114041 0)
(3.61233 0.11328 -8.44541e-19)
(3.12693 0.327596 0)
(2.61086 0.647115 0)
(2.11713 1.03579 -1.34562e-19)
(1.6766 1.44519 2.8483e-19)
(1.33778 1.82877 0)
(1.08004 2.21833 0)
(0.865653 2.55457 2.42397e-18)
(0.712745 2.80787 6.54984e-18)
(0.671266 2.9465 3.14914e-18)
(0.773219 2.96426 0)
(1.07446 2.87354 -8.04473e-19)
(1.58763 2.6811 2.08556e-18)
(2.29347 2.44943 -3.88881e-18)
(3.14437 2.19946 2.02421e-18)
(4.07177 1.95399 0)
(4.94457 1.73693 0)
(5.61962 1.54322 2.06392e-19)
(6.02245 1.34057 -3.00967e-19)
(6.17949 1.1247 9.16327e-20)
(6.1874 0.905537 6.91186e-20)
(6.138 0.707358 -7.78834e-20)
(6.08799 0.548972 3.40302e-19)
(6.05681 0.432478 -1.91702e-19)
(6.04301 0.349116 0)
(6.03596 0.289274 4.2152e-19)
(6.03616 0.238829 -1.05628e-18)
(5.3773 0.439547 -5.12745e-19)
(5.32192 0.442601 1.99307e-20)
(5.26202 0.436042 -1.44383e-19)
(5.2021 0.421245 2.13779e-19)
(5.13825 0.400929 0)
(5.06994 0.373954 0)
(4.99501 0.343591 4.35358e-20)
(4.91182 0.309418 -6.93312e-20)
(4.81829 0.272917 0)
(4.71053 0.234492 -2.03003e-19)
(4.58075 0.196784 1.1003e-19)
(4.4165 0.167306 -6.41248e-21)
(4.20234 0.161694 3.53253e-19)
(3.92442 0.204963 0)
(3.57809 0.326538 4.11799e-19)
(3.17528 0.547423 -1.41513e-19)
(2.74609 0.869101 1.07208e-19)
(2.31127 1.26981 1.00277e-19)
(1.86807 1.7115 7.43234e-20)
(1.47405 2.15098 -9.6674e-20)
(1.15324 2.60209 4.56429e-20)
(0.844217 2.9639 2.64138e-18)
(0.575509 3.21522 -2.73816e-18)
(0.407917 3.3185 -4.02012e-19)
(0.40179 3.27875 0)
(0.617595 3.13585 0)
(1.03977 2.89183 -2.15383e-18)
(1.66983 2.61121 2.0299e-18)
(2.47353 2.30179 -1.29819e-18)
(3.40691 2.01378 0)
(4.32785 1.76967 3.2095e-19)
(5.08159 1.5528 0)
(5.57221 1.329 1.07212e-19)
(5.80756 1.0978 3.78542e-19)
(5.8798 0.870134 -1.20143e-19)
(5.88521 0.674631 -3.25706e-20)
(5.88501 0.523226 -2.14801e-20)
(5.89632 0.415794 -6.86455e-20)
(5.91565 0.341851 0)
(5.93337 0.28898 1.20633e-19)
(5.94895 0.248929 -4.12616e-19)
(5.37525 0.497847 -4.99063e-20)
(5.31119 0.501408 -1.48818e-20)
(5.23762 0.496687 -2.19314e-19)
(5.16886 0.483352 0)
(5.09335 0.465575 -4.34121e-20)
(5.01717 0.441604 4.63158e-20)
(4.93329 0.415353 8.32726e-21)
(4.8429 0.388008 0)
(4.74035 0.362361 1.50612e-19)
(4.62322 0.340927 -1.58568e-19)
(4.48411 0.327587 -1.37082e-19)
(4.31551 0.330259 -1.88229e-19)
(4.10862 0.361439 -5.0523e-19)
(3.85645 0.442229 1.72619e-19)
(3.55714 0.594821 1.50064e-19)
(3.22137 0.83191 -1.50599e-19)
(2.87198 1.15551 5.24504e-20)
(2.51882 1.55207 4.96083e-20)
(2.10834 1.98554 0)
(1.69124 2.44159 1.58748e-18)
(1.33664 2.88309 0)
(0.934114 3.20435 -2.73517e-18)
(0.558101 3.41749 0)
(0.277317 3.44395 -4.38861e-19)
(0.173523 3.36256 1.19953e-18)
(0.296606 3.15413 -7.45706e-19)
(0.614236 2.87927 2.28094e-18)
(1.17126 2.55215 -1.79884e-18)
(1.91387 2.18684 1.06634e-18)
(2.85992 1.87032 2.58124e-19)
(3.80753 1.61476 -5.92452e-19)
(4.63371 1.38297 -1.35065e-18)
(5.19988 1.16155 3.62478e-19)
(5.50398 0.934956 1.42545e-20)
(5.6321 0.724344 -3.54447e-19)
(5.68558 0.551886 -1.07065e-19)
(5.72448 0.4254 -6.10457e-20)
(5.76851 0.340782 0)
(5.8134 0.285916 0)
(5.85106 0.247888 3.3755e-20)
(5.87878 0.223827 -7.46642e-19)
(5.38439 0.574798 -8.9068e-20)
(5.31822 0.580266 3.34781e-19)
(5.22281 0.578229 2.15804e-19)
(5.15043 0.568692 -1.073e-19)
(5.0561 0.553969 1.04589e-19)
(4.97607 0.536065 0)
(4.87852 0.515013 -5.49749e-20)
(4.78502 0.49679 1.18928e-19)
(4.67326 0.483577 -1.91596e-19)
(4.55321 0.480348 3.04332e-19)
(4.40966 0.491993 -1.80005e-19)
(4.2456 0.525168 0)
(4.05077 0.592696 5.55949e-19)
(3.82464 0.710303 -1.41496e-19)
(3.56275 0.895517 1.03549e-19)
(3.27707 1.14916 -6.66799e-20)
(2.97807 1.47274 -8.46336e-21)
(2.68204 1.86672 9.6551e-20)
(2.33064 2.26566 -9.42521e-20)
(1.89027 2.73085 -1.62759e-18)
(1.53593 3.12144 -4.64561e-20)
(1.03085 3.3729 -3.41392e-18)
(0.597043 3.50188 -4.7973e-19)
(0.221554 3.45574 4.6011e-19)
(0.0158013 3.30467 7.60674e-19)
(0.0534143 3.02021 -3.42967e-18)
(0.252218 2.70658 0)
(0.782017 2.30132 0)
(1.43099 1.89636 1.00061e-18)
(2.4617 1.55518 1.84536e-19)
(3.38794 1.31484 -1.13609e-18)
(4.31706 1.07032 2.15191e-18)
(4.92034 0.892196 -5.1181e-19)
(5.2953 0.672913 4.72511e-19)
(5.46987 0.510953 -1.39978e-19)
(5.56646 0.372208 3.2279e-21)
(5.63047 0.285478 0)
(5.69843 0.230541 0)
(5.75658 0.200259 0)
(5.80846 0.183704 -7.96901e-19)
(5.844 0.177553 5.86806e-19)
(5.4042 0.674746 1.27888e-18)
(5.35719 0.681306 -3.25101e-19)
(5.21731 0.685598 3.26887e-19)
(5.16272 0.683119 -1.93981e-19)
(5.02797 0.67242 -7.41061e-19)
(4.9623 0.665336 8.65882e-20)
(4.83408 0.652862 1.23748e-19)
(4.75133 0.646149 9.75446e-20)
(4.62099 0.647935 -2.06564e-20)
(4.51237 0.658597 -7.71919e-21)
(4.36606 0.696154 1.52074e-19)
(4.21951 0.749735 -1.5933e-19)
(4.03913 0.853345 -6.04672e-20)
(3.8422 0.997025 -7.71912e-20)
(3.61533 1.20689 7.91223e-20)
(3.36504 1.47115 0)
(3.09939 1.77567 -8.85662e-20)
(2.77377 2.17843 5.73131e-19)
(2.48744 2.51718 1.70284e-18)
(2.00494 2.98929 -3.96834e-20)
(1.67677 3.26889 3.82941e-20)
(1.05949 3.46691 7.66774e-18)
(0.668714 3.51431 4.21008e-18)
(0.145342 3.41109 4.32963e-18)
(-0.0952593 3.20776 0)
(-0.124194 2.83008 2.86402e-18)
(-0.0291995 2.47494 2.23397e-19)
(0.533227 1.88854 -2.9098e-19)
(1.01323 1.50524 1.83269e-19)
(2.29097 1.06853 0)
(3.02048 0.898471 0)
(4.19668 0.637391 -2.06973e-18)
(4.68957 0.55004 -8.09913e-19)
(5.20904 0.343527 3.4903e-19)
(5.38412 0.271325 0)
(5.54206 0.163722 -2.40181e-19)
(5.60654 0.128579 4.24908e-19)
(5.69872 0.107888 5.53823e-19)
(5.74687 0.103152 -5.48906e-19)
(5.81491 0.118384 -2.80211e-19)
(5.84575 0.125406 3.07942e-19)
(5.87201 0.136188 0)
(5.8652 0.166104 1.0736e-18)
(5.88839 0.197779 7.09262e-19)
(5.94058 0.215303 5.87911e-19)
(6.00882 0.207709 5.61356e-19)
(6.07672 0.169749 0)
(6.12833 0.106127 7.71876e-19)
(6.15326 0.028207 5.40263e-21)
(6.15017 -0.0506859 -1.55312e-19)
(6.12533 -0.120536 1.49273e-19)
(6.08825 -0.177521 -1.51358e-19)
(6.0344 -0.212975 -1.29917e-19)
(5.93541 -0.209191 -3.31407e-19)
(5.78274 -0.16322 0)
(5.59411 -0.0689469 0)
(5.31258 0.035468 -2.22028e-19)
(4.62396 0.125026 2.83874e-19)
(5.88059 0.139017 0)
(5.87556 0.158174 -1.18247e-18)
(5.88993 0.178859 0)
(5.92684 0.191722 -7.89366e-19)
(5.97893 0.187901 -1.72131e-19)
(6.03392 0.162781 -3.45429e-19)
(6.08026 0.116937 -8.4057e-19)
(6.1096 0.0568131 -6.79564e-19)
(6.11922 -0.00784429 6.8175e-19)
(6.11177 -0.0686852 -6.78243e-19)
(6.09137 -0.118248 0)
(6.05742 -0.154424 -6.50987e-19)
(6.00742 -0.172355 -6.22872e-19)
(5.92767 -0.160219 5.82132e-19)
(5.77787 -0.0967325 0)
(5.48607 -0.0339465 4.87015e-19)
(4.67671 0.081066 0)
(5.88162 0.145288 -4.87882e-19)
(5.87908 0.152303 -1.03543e-18)
(5.88835 0.164318 3.0331e-19)
(5.91432 0.173023 6.52178e-19)
(5.95366 0.170749 2.09359e-19)
(5.99797 0.153712 7.49935e-19)
(6.03877 0.121239 1.49511e-18)
(6.06973 0.0764759 7.44439e-19)
(6.08789 0.0255014 -7.43537e-19)
(6.0933 -0.0253064 3.59239e-22)
(6.08684 -0.0716676 7.28911e-19)
(6.07109 -0.109501 5.25304e-19)
(6.04866 -0.128962 1.54845e-18)
(6.0063 -0.128407 6.65834e-20)
(5.89777 -0.0886782 -6.45107e-19)
(5.60832 -0.0437739 -1.11836e-18)
(4.71927 0.0898973 0)
(5.88052 0.14627 -1.42752e-18)
(5.87853 0.147937 1.21223e-18)
(5.88615 0.152989 0)
(5.90487 0.156713 -5.51826e-19)
(5.93412 0.154015 -2.30879e-19)
(5.96936 0.141701 2.20626e-19)
(6.00458 0.118398 -8.28682e-19)
(6.03501 0.085151 2.04115e-19)
(6.05785 0.045467 -4.01479e-19)
(6.07189 0.00349451 2.04244e-19)
(6.07608 -0.0365894 -1.57969e-18)
(6.0719 -0.0692815 -5.94253e-19)
(6.06416 -0.092418 -8.56903e-19)
(6.04795 -0.104489 -8.25084e-19)
(5.98667 -0.0869057 6.81834e-19)
(5.73255 -0.0566666 6.57842e-19)
(4.77226 0.0802654 -2.00859e-20)
(5.87394 0.149187 5.70773e-19)
(5.87411 0.145129 1.10934e-20)
(5.88153 0.144412 -3.89566e-19)
(5.89603 0.143732 9.13794e-19)
(5.91797 0.140003 2.71377e-19)
(5.94562 0.130324 0)
(5.97539 0.113041 0)
(6.00386 0.0881342 0)
(6.02849 0.0574526 0)
(6.04726 0.0239188 8.679e-19)
(6.05847 -0.00902753 6.43535e-19)
(6.06351 -0.038766 1.70686e-18)
(6.06414 -0.0626271 -1.07593e-19)
(6.06031 -0.0780133 -1.05376e-19)
(6.02955 -0.0753571 5.01437e-20)
(5.82556 -0.057302 -2.77214e-20)
(4.82717 0.0636442 -2.37871e-20)
(5.86909 0.148948 0)
(5.86897 0.142886 5.06128e-19)
(5.8755 0.138639 4.32902e-19)
(5.88719 0.134636 0)
(5.9039 0.129334 -6.18009e-19)
(5.9253 0.120774 0)
(5.94982 0.107228 0)
(5.97532 0.0881496 2.49586e-19)
(5.99971 0.0643637 -2.42788e-19)
(6.02062 0.0376489 0)
(6.03597 0.0101674 2.33872e-19)
(6.04628 -0.0161523 -6.95826e-19)
(6.05621 -0.0388691 5.75991e-19)
(6.06184 -0.0561278 -6.84374e-19)
(6.04727 -0.0623965 1.13331e-19)
(5.88407 -0.0517272 0)
(4.87943 0.0405444 4.3426e-19)
(5.85714 0.14968 -2.80875e-19)
(5.85947 0.140867 -5.22267e-19)
(5.86605 0.134101 -9.15891e-19)
(5.87629 0.127722 -3.93141e-19)
(5.88999 0.120942 -3.51226e-19)
(5.90706 0.112596 -3.18665e-19)
(5.92718 0.101215 -2.99147e-19)
(5.94937 0.0860812 -2.87582e-19)
(5.97212 0.0672775 2.70073e-19)
(5.9933 0.0456695 5.22821e-19)
(6.01068 0.0227997 0)
(6.02405 0.000235506 0)
(6.03766 -0.0207808 -4.96082e-19)
(6.05496 -0.0381017 3.66229e-19)
(6.05005 -0.0485974 1.21733e-19)
(5.91436 -0.0433319 -2.96516e-20)
(4.92793 0.0176431 -4.24472e-19)
(5.85083 0.148341 6.71413e-19)
(5.85223 0.138657 2.95379e-19)
(5.8575 0.130407 1.25521e-18)
(5.86563 0.122377 -9.03474e-19)
(5.8766 0.114347 1.21924e-18)
(5.89038 0.105716 3.60924e-19)
(5.9069 0.0954365 3.25333e-19)
(5.92581 0.0827511 6.26492e-19)
(5.94612 0.0674652 -2.91056e-19)
(5.96611 0.0498826 -5.70632e-19)
(5.98391 0.0308333 2.79816e-19)
(5.99912 0.0114269 5.47327e-19)
(6.01515 -0.00745385 0)
(6.03918 -0.0243511 -1.3161e-19)
(6.04339 -0.0366306 1.30116e-19)
(5.92364 -0.0359654 0)
(4.97408 -0.0030959 0)
(5.83468 0.147316 0)
(5.83796 0.136734 3.28397e-19)
(5.84349 0.127336 8.29541e-19)
(5.85096 0.118182 -5.09914e-19)
(5.86069 0.109316 4.46324e-19)
(5.87282 0.100347 4.08541e-19)
(5.88725 0.0905475 3.78023e-19)
(5.90373 0.0793151 3.49776e-19)
(5.92161 0.066393 -1.32965e-18)
(5.93965 0.0517628 3.19794e-19)
(5.95661 0.0357241 -1.52701e-19)
(5.97249 0.0190048 -4.43378e-19)
(5.98998 0.00229246 0)
(6.01694 -0.0134805 0)
(6.02969 -0.0269161 -6.25567e-19)
(5.91787 -0.0298323 6.53189e-19)
(5.02223 -0.018252 -3.42772e-20)
(5.82873 0.145354 -1.13863e-18)
(5.8307 0.134607 -3.31977e-19)
(5.83451 0.124644 2.89133e-19)
(5.8396 0.114711 0)
(5.84678 0.105265 -9.84169e-19)
(5.85644 0.0960547 4.53284e-19)
(5.86849 0.086497 -8.43077e-19)
(5.8826 0.0761723 3.89647e-19)
(5.89812 0.0648138 0)
(5.91403 0.0522681 -1.74065e-19)
(5.9295 0.0385891 3.3457e-19)
(5.94512 0.0242445 -5.45345e-22)
(5.9632 0.00956351 -8.89106e-23)
(5.99002 -0.00491709 -1.51195e-19)
(6.00804 -0.0192813 6.65268e-19)
(5.90245 -0.0230857 -3.62113e-20)
(5.07281 -0.0257719 5.43821e-19)
(5.80788 0.143387 8.26309e-19)
(5.81067 0.132599 7.41075e-19)
(5.81517 0.122183 -6.68088e-19)
(5.82108 0.111966 -5.86744e-19)
(5.82878 0.102232 5.35245e-19)
(5.83824 0.0928208 0)
(5.84933 0.0833332 0)
(5.86187 0.0734819 -4.2944e-19)
(5.87542 0.0630632 4.0069e-19)
(5.88925 0.0519246 -3.79437e-19)
(5.90302 0.0400286 0)
(5.91783 0.0276217 0)
(5.93575 0.0146041 0)
(5.96081 0.00174805 -2.41792e-19)
(5.98025 -0.0128881 3.14389e-19)
(5.88233 -0.0163168 -6.91093e-19)
(5.12185 -0.0303335 -6.08936e-19)
(5.80214 0.141097 4.18114e-19)
(5.80316 0.130181 0)
(5.80583 0.119816 -3.47433e-19)
(5.80965 0.109535 1.28834e-18)
(5.8151 0.0996959 -5.90883e-19)
(5.8224 0.090273 5.31741e-19)
(5.83142 0.0809147 2.46201e-19)
(5.84187 0.0713894 2.33702e-19)
(5.85319 0.0615556 -6.52657e-19)
(5.86489 0.0513278 8.21197e-19)
(5.87704 0.0406579 3.86621e-19)
(5.89098 0.0296753 -4.26189e-22)
(5.90822 0.0180436 -1.78325e-19)
(5.93112 0.0067991 2.58069e-19)
(5.95008 -0.00742342 -2.50426e-19)
(5.859 -0.0100784 4.07433e-20)
(5.16351 -0.0319386 -3.9788e-20)
(5.77935 0.139276 -4.39758e-19)
(5.78216 0.128692 3.97884e-19)
(5.78629 0.118311 3.63742e-19)
(5.79148 0.107994 -6.81155e-19)
(5.79771 0.0980526 3.14749e-19)
(5.80491 0.0884885 -2.97281e-19)
(5.81298 0.0791022 -5.36642e-19)
(5.82175 0.0697262 2.45261e-19)
(5.83103 0.0602333 0)
(5.84083 0.0505652 -2.18806e-19)
(5.85163 0.0406782 -8.29401e-19)
(5.86464 0.0307085 1.98234e-19)
(5.88094 0.0202264 -3.7688e-19)
(5.90165 0.0103597 0)
(5.91858 -0.00275198 0)
(5.83074 -0.00509837 0)
(5.19384 -0.0314659 0)
(5.77234 0.136566 -3.63474e-21)
(5.77203 0.126093 -4.34449e-19)
(5.77425 0.116279 -1.75623e-20)
(5.77805 0.106475 0)
(5.78282 0.0968217 3.20153e-19)
(5.78828 0.0873254 -3.06711e-19)
(5.79441 0.0779274 0)
(5.8012 0.0685813 -2.65079e-19)
(5.80865 0.0592302 0)
(5.81694 0.0498851 4.60813e-19)
(5.82663 0.0405596 4.39678e-19)
(5.83855 0.0313386 4.15814e-19)
(5.85371 0.0216851 2.01962e-19)
(5.87174 0.0127189 -3.78775e-19)
(5.88489 0.000581011 9.23514e-20)
(5.79754 -0.00122789 -8.88737e-20)
(5.21349 -0.0302323 -3.48019e-19)
(5.74991 0.135981 -7.23727e-19)
(5.75312 0.125713 -2.13537e-19)
(5.75739 0.115772 -2.16029e-19)
(5.7618 0.105989 0)
(5.76596 0.096307 -3.46274e-19)
(5.77009 0.0866687 0)
(5.77465 0.0771456 0)
(5.77991 0.0678133 -2.66155e-19)
(5.78595 0.0586386 0)
(5.793 0.0495776 -4.81213e-19)
(5.8016 0.0407217 -7.94073e-21)
(5.8123 0.0319162 -2.20017e-19)
(5.82591 0.0229235 -2.03479e-19)
(5.84093 0.014351 5.00326e-19)
(5.85013 0.00302073 -9.52004e-20)
(5.76178 0.00156182 0)
(5.22425 -0.0287446 3.63912e-19)
(5.74191 0.133352 2.39991e-19)
(5.74188 0.124014 2.30786e-19)
(5.74404 0.115103 -2.10693e-19)
(5.74642 0.105801 -3.73185e-19)
(5.74864 0.0962715 3.59048e-21)
(5.75107 0.08664 2.45613e-21)
(5.75408 0.0770336 5.94657e-19)
(5.7579 0.0676344 1.49702e-19)
(5.76266 0.0585682 -2.52219e-19)
(5.76857 0.0497343 5.74253e-21)
(5.77601 0.0411498 -4.62886e-19)
(5.78539 0.0323517 -2.142e-19)
(5.79716 0.0242091 2.15036e-19)
(5.80962 0.0151178 1.96316e-19)
(5.81465 0.00566797 4.87998e-20)
(5.72377 0.00322326 -4.662e-20)
(5.22713 -0.0271847 1.79721e-19)
(5.72177 0.134421 2.31124e-19)
(5.72529 0.124925 -2.35117e-19)
(5.7278 0.115432 2.07867e-19)
(5.72911 0.105907 0)
(5.73009 0.0964647 1.66159e-19)
(5.73133 0.0870229 -1.6468e-19)
(5.73304 0.0775219 1.43649e-19)
(5.7354 0.0680619 6.94655e-19)
(5.73872 0.058925 8.71716e-21)
(5.74335 0.0501512 -1.16221e-19)
(5.74947 0.0416004 1.27948e-19)
(5.75738 0.0326833 1.16081e-19)
(5.76724 0.0250652 1.03769e-19)
(5.77758 0.0143428 -1.00504e-20)
(5.77637 0.00914832 -4.71733e-20)