/*--------------------------------*- C++ -*----------------------------------*\
  =========                 |
  \\      /  F ield         | OpenFOAM: The Open Source CFD Toolbox
   \\    /   O peration     | Website:  https://openfoam.org
    \\  /    A nd           | Version:  6
     \\/     M anipulation  |
\*---------------------------------------------------------------------------*/
FoamFile
{
    version     2.0;
    format      ascii;
    class       volScalarField;
    location    "3.83";
    object      p;
}
// * * * * * * * * * * * * * * * * * * * * * * * * * * * * * * * * * * * * * //

dimensions      [1 -1 -2 0 0 0 0];

internalField   nonuniform List<scalar> 
10000
(
1
1
1
1
1
1
1
1
1
1
1
1
1
1
1
1
1
1
1
1
1
1
1
1
1
1
1
1
1
1
1
1
1
1
1
1
1
1
1
1
1
1
1
1
1
1
0.999997
0.999992
0.999985
0.999975
0.999961
0.999946
0.99993
0.999916
0.999906
0.999905
0.999913
0.999935
0.999971
1.00002
1.00008
1.00016
1.00023
1.00032
1.00039
1.00046
1.00052
1.00056
1.00058
1.00059
1.00058
1.00056
1.00052
1.00048
1.00043
1.00038
1.00032
1.00027
1.00022
1.00018
1.00014
1.0001
1.00007
1.00005
1.00003
1.00002
1.00001
1.00001
1
1
1
0.999999
0.999999
0.999999
0.999999
1
1
1
1
1
1
1
1
1
1
1
1
1
1
1
1
1
1
1
1
1
1
1
1
1
1
1
1
1
1
1
1
1
1
1
1
1
1
1
1
1
1
1
1
1
1
1
1
1
1
1
0.999998
0.999992
0.999982
0.99997
0.999954
0.999937
0.999922
0.999911
0.99991
0.999921
0.99995
0.999999
1.00007
1.00016
1.00026
1.00038
1.0005
1.00062
1.00073
1.00082
1.00089
1.00094
1.00096
1.00095
1.00092
1.00087
1.0008
1.00072
1.00064
1.00055
1.00047
1.00039
1.00031
1.00025
1.00019
1.00014
1.0001
1.00007
1.00005
1.00003
1.00002
1.00001
1
1
0.999999
0.999999
0.999999
0.999999
0.999999
0.999999
1
1
1
1
1
1
1
1
1
1
1
1
1
1
1
1
1
1
1
1
1
1
1
1
1
1
1
1
1
1
1
1
1
1
1
1
1
1
1
1
1
1
1
1
1
1
1
1.00001
1.00001
1
0.999999
0.999991
0.99998
0.999966
0.999949
0.999933
0.999922
0.999921
0.999937
0.999975
1.00004
1.00014
1.00026
1.00041
1.00058
1.00077
1.00095
1.00113
1.00128
1.00141
1.0015
1.00155
1.00155
1.00152
1.00145
1.00135
1.00123
1.0011
1.00096
1.00081
1.00068
1.00056
1.00044
1.00035
1.00026
1.00019
1.00014
1.00009
1.00006
1.00004
1.00002
1.00001
1
1
0.999998
0.999998
0.999998
0.999998
0.999998
0.999999
0.999999
1
1
1
1
1
1
1
1
1
1
1
1
1
1
1
1
1
1
1
1
1
1
1
1
1
1
1
1
1
1
1
1
1
1
1
1
1
1
1
1
1
1
1
1
1.00001
1.00001
1.00001
1.00001
1.00001
1
0.999993
0.999981
0.999966
0.99995
0.999939
0.999941
0.999961
1.00001
1.00009
1.00022
1.00039
1.0006
1.00085
1.00112
1.0014
1.00168
1.00194
1.00216
1.00233
1.00244
1.00249
1.00247
1.0024
1.00227
1.00209
1.00189
1.00167
1.00144
1.00121
1.001
1.00081
1.00064
1.00049
1.00037
1.00027
1.00019
1.00013
1.00008
1.00005
1.00003
1.00001
1
0.999999
0.999997
0.999996
0.999996
0.999997
0.999998
0.999998
0.999999
0.999999
0.999999
1
1
1
1
1
1
1
1
1
1
1
1
1
1
1
1
1
1
1
1
1
1
1
1
1
1
1
1
1
1
1
1
1
1
1
1
1
1
1
1
1
1.00001
1.00001
1.00001
1.00001
1.00001
1.00001
1.00001
0.999998
0.999985
0.999972
0.999962
0.999966
0.999991
1.00005
1.00016
1.00032
1.00054
1.00083
1.00118
1.00157
1.00198
1.00241
1.00281
1.00318
1.00349
1.00372
1.00386
1.0039
1.00385
1.00371
1.00349
1.00321
1.00288
1.00252
1.00216
1.00181
1.00148
1.00118
1.00092
1.0007
1.00052
1.00038
1.00026
1.00017
1.00011
1.00007
1.00003
1.00001
1
0.999997
0.999994
0.999993
0.999994
0.999995
0.999996
0.999997
0.999998
0.999999
0.999999
1
1
1
1
1
1
1
1
1
1
1
1
1
1
1
1
1
1
1
1
1
1
1
1
1
1
1
1
1
1
1
1
1
1
1
1
1
1
1
1
1.00001
1.00001
1.00001
1.00002
1.00002
1.00002
1.00002
1.00002
1.00001
0.999997
0.99999
0.999996
1.00003
1.0001
1.00022
1.00042
1.00071
1.00109
1.00155
1.00209
1.00268
1.0033
1.00392
1.0045
1.00501
1.00543
1.00574
1.00591
1.00595
1.00585
1.00562
1.00528
1.00484
1.00434
1.00379
1.00324
1.0027
1.0022
1.00174
1.00135
1.00102
1.00075
1.00054
1.00037
1.00024
1.00015
1.00009
1.00004
1.00002
1
0.999993
0.99999
0.99999
0.999991
0.999992
0.999994
0.999996
0.999997
0.999998
0.999999
0.999999
0.999999
1
1
1
1
1
1
1
1
1
1
1
1
1
1
1
1
1
1
1
1
1
1
1
1
1
1
1
1
1
1
1
1
1
1
1
1
1
1.00001
1.00001
1.00001
1.00002
1.00002
1.00003
1.00003
1.00003
1.00003
1.00002
1.00002
1.00003
1.00006
1.00014
1.00028
1.00052
1.00087
1.00134
1.00194
1.00266
1.00347
1.00434
1.00523
1.0061
1.0069
1.0076
1.00816
1.00855
1.00877
1.0088
1.00864
1.0083
1.0078
1.00716
1.00642
1.00562
1.0048
1.004
1.00325
1.00257
1.00199
1.00149
1.00109
1.00077
1.00053
1.00034
1.00021
1.00012
1.00006
1.00002
1
0.999989
0.999985
0.999984
0.999986
0.999989
0.999991
0.999994
0.999996
0.999997
0.999998
0.999999
0.999999
0.999999
1
1
1
1
1
1
1
1
1
1
1
1
1
1
1
1
1
1
1
1
1
1
1
1
1
1
1
1
1
1
1
1
1
1
1
1.00001
1.00001
1.00001
1.00002
1.00003
1.00003
1.00004
1.00005
1.00005
1.00005
1.00005
1.00006
1.0001
1.00018
1.00034
1.00061
1.00101
1.00158
1.00232
1.00324
1.0043
1.00547
1.0067
1.00793
1.00911
1.01017
1.01108
1.0118
1.01229
1.01255
1.01256
1.01233
1.01187
1.01119
1.01032
1.0093
1.00818
1.00701
1.00586
1.00477
1.00378
1.00291
1.00218
1.00159
1.00112
1.00076
1.0005
1.00031
1.00017
1.00009
1.00003
1
0.999984
0.999978
0.999978
0.99998
0.999984
0.999988
0.999991
0.999994
0.999996
0.999997
0.999998
0.999999
0.999999
1
1
1
1
1
1
1
1
1
1
1
1
1
1
1
1
1
1
1
1
1
1
1
1
1
1
1
1
1
1
1
1
1
1
1
1.00001
1.00001
1.00002
1.00003
1.00004
1.00005
1.00006
1.00007
1.00008
1.00008
1.0001
1.00014
1.00022
1.00038
1.00067
1.00112
1.00177
1.00266
1.00378
1.00511
1.00662
1.00825
1.00991
1.01154
1.01305
1.01439
1.01551
1.01638
1.01696
1.01725
1.01725
1.01695
1.01637
1.01552
1.01441
1.01308
1.0116
1.01002
1.00843
1.00689
1.00549
1.00424
1.00319
1.00232
1.00164
1.00111
1.00073
1.00045
1.00025
1.00013
1.00005
1
0.999979
0.99997
0.999969
0.999972
0.999977
0.999983
0.999987
0.999991
0.999994
0.999996
0.999998
0.999998
0.999999
0.999999
1
1
1
1
1
1
1
1
1
1
1
1
1
1
1
1
1
1
1
1
1
1
1
1
1
1
1
1
1
1
1
1
1
1.00001
1.00001
1.00002
1.00003
1.00004
1.00005
1.00007
1.00008
1.0001
1.00011
1.00013
1.00017
1.00025
1.00041
1.0007
1.00118
1.0019
1.00291
1.00423
1.00585
1.00772
1.00978
1.01193
1.01406
1.01609
1.01792
1.0195
1.02078
1.02174
1.02238
1.02268
1.02266
1.02232
1.02166
1.02068
1.01938
1.01779
1.01594
1.01393
1.01184
1.00977
1.00784
1.0061
1.00461
1.00337
1.00239
1.00163
1.00106
1.00066
1.00038
1.00019
1.00008
1.00001
0.999976
0.999961
0.999959
0.999963
0.999969
0.999976
0.999982
0.999988
0.999992
0.999994
0.999997
0.999997
0.999998
0.999999
0.999999
1
1
1
1
1
1
1
1
1
1
1
1
1
1
1
1
1
1
1
1
1
1
1
1
1
1
1
1
1
1
1
1
1.00001
1.00001
1.00002
1.00004
1.00005
1.00007
1.00009
1.00011
1.00013
1.00016
1.0002
1.00028
1.00043
1.00072
1.0012
1.00196
1.00306
1.00455
1.00644
1.00868
1.01119
1.01386
1.01654
1.01911
1.02146
1.02351
1.0252
1.02651
1.02746
1.02806
1.02833
1.02829
1.02795
1.02729
1.0263
1.02495
1.02322
1.02112
1.01873
1.01615
1.01351
1.01096
1.00862
1.00656
1.00484
1.00345
1.00237
1.00156
1.00097
1.00057
1.0003
1.00013
1.00003
0.999976
0.999953
0.999947
0.999951
0.999959
0.999968
0.999976
0.999983
0.999989
0.999992
0.999995
0.999996
0.999998
0.999999
0.999999
1
1
1
1
1
1
1
1
1
1
1
1
1
1
1
1
1
1
1
1
1
1
1
1
1
1
1
1
1
1
1
1.00001
1.00001
1.00002
1.00003
1.00005
1.00007
1.00009
1.00012
1.00015
1.00018
1.00023
1.0003
1.00044
1.00071
1.00117
1.00193
1.00309
1.00471
1.00683
1.00942
1.01238
1.01558
1.01882
1.02195
1.0248
1.02727
1.0293
1.03087
1.03201
1.03277
1.0332
1.03336
1.03329
1.03299
1.03247
1.03165
1.03048
1.02887
1.02677
1.0242
1.02126
1.0181
1.01492
1.01189
1.00917
1.00683
1.00491
1.0034
1.00226
1.00143
1.00085
1.00046
1.00022
1.00007
0.999985
0.999947
0.999936
0.999938
0.999947
0.999958
0.999969
0.999978
0.999985
0.99999
0.999993
0.999995
0.999997
0.999998
0.999999
0.999999
1
1
1
1
1
1
1
1
1
1
1
1
1
1
1
1
1
1
1
1
1
1
1
1
1
1
1
1
1
1.00001
1.00001
1.00002
1.00003
1.00004
1.00006
1.00009
1.00012
1.00015
1.00019
1.00024
1.00032
1.00044
1.00068
1.00111
1.00184
1.00299
1.00468
1.00697
1.00986
1.01325
1.01697
1.02078
1.02445
1.02777
1.03059
1.03284
1.03449
1.03561
1.03628
1.03661
1.03671
1.03666
1.03653
1.03635
1.03609
1.03568
1.035
1.03389
1.03219
1.02983
1.02684
1.02338
1.01966
1.01596
1.0125
1.00944
1.00687
1.00482
1.00324
1.00208
1.00126
1.00071
1.00035
1.00013
1.00001
0.999948
0.999925
0.999924
0.999934
0.999947
0.99996
0.999971
0.99998
0.999987
0.999991
0.999993
0.999996
0.999997
0.999999
0.999999
1
1
1
1
1
1
1
1
1
1
1
1
1
1
1
1
1
1
1
1
1
1
1
1
1
1
1
1
1
1.00001
1.00001
1.00002
1.00003
1.00005
1.00008
1.00011
1.00015
1.0002
1.00025
1.00032
1.00044
1.00065
1.00102
1.00169
1.00278
1.00446
1.00684
1.00996
1.01373
1.01793
1.0223
1.0265
1.03025
1.03334
1.03566
1.0372
1.03804
1.03832
1.0382
1.03787
1.03746
1.03711
1.0369
1.03687
1.037
1.03721
1.03735
1.03716
1.03638
1.03478
1.03227
1.02891
1.02496
1.02072
1.01655
1.01272
1.00941
1.00669
1.00457
1.00298
1.00184
1.00106
1.00055
1.00024
1.00005
0.999959
0.999919
0.999911
0.999919
0.999934
0.999949
0.999963
0.999974
0.999983
0.999989
0.999991
0.999994
0.999997
0.999998
0.999999
0.999999
1
1
1
1
1
1
1
1
1
1
1
1
1
1
1
1
1
1
1
1
1
1
1
1
1
1
1
1
1.00001
1.00002
1.00003
1.00004
1.00007
1.0001
1.00014
1.00019
1.00025
1.00032
1.00043
1.00061
1.00093
1.0015
1.0025
1.00409
1.00646
1.00969
1.01375
1.0184
1.02329
1.02801
1.03217
1.03546
1.03773
1.03898
1.03931
1.03891
1.03801
1.03686
1.03567
1.03465
1.03392
1.0336
1.03372
1.0343
1.03526
1.03644
1.03755
1.0382
1.03799
1.03663
1.03402
1.03033
1.02591
1.02122
1.01666
1.01255
1.00908
1.0063
1.00418
1.00263
1.00156
1.00084
1.00039
1.00013
0.999987
0.999921
0.999901
0.999905
0.999919
0.999937
0.999954
0.999967
0.999978
0.999985
0.999988
0.999993
0.999996
0.999997
0.999999
0.999999
1
1
1
1
1
1
1
1
1
1
1
1
1
1
1
1
1
1
1
1
1
1
1
1
1
1
1
1.00001
1.00001
1.00002
1.00004
1.00006
1.00009
1.00013
1.00018
1.00024
1.00031
1.00041
1.00056
1.00083
1.00131
1.00217
1.00361
1.00585
1.00907
1.01329
1.01831
1.0237
1.02894
1.0335
1.03697
1.03914
1.03997
1.0396
1.0383
1.03637
1.03411
1.03181
1.02973
1.02805
1.02694
1.02648
1.02674
1.02773
1.02943
1.0317
1.03428
1.03671
1.03843
1.0389
1.0378
1.03509
1.03106
1.02621
1.02112
1.01627
1.012
1.00847
1.00572
1.00368
1.00223
1.00125
1.00063
1.00025
1.00004
0.999935
0.999895
0.999892
0.999905
0.999924
0.999943
0.999959
0.999972
0.999982
0.999986
0.999991
0.999995
0.999997
0.999998
0.999999
0.999999
1
1
1
1
1
1
1
1
1
1
1
1
1
1
1
1
1
1
1
1
1
1
1
1
1
1
1.00001
1.00001
1.00003
1.00004
1.00007
1.00011
1.00016
1.00022
1.00029
1.00039
1.00052
1.00074
1.00113
1.00184
1.00307
1.00509
1.00815
1.01237
1.01762
1.02346
1.02923
1.03424
1.03794
1.04001
1.04039
1.03925
1.03693
1.03381
1.03029
1.02671
1.02336
1.02048
1.01825
1.0168
1.01621
1.01654
1.01783
1.0201
1.02331
1.02724
1.03149
1.0354
1.03824
1.03935
1.0384
1.03549
1.03108
1.02583
1.02044
1.01542
1.01111
1.00765
1.00502
1.00312
1.00181
1.00095
1.00043
1.00012
0.999966
0.999899
0.999882
0.999891
0.999911
0.999932
0.999951
0.999966
0.999977
0.999982
0.999989
0.999993
0.999996
0.999998
0.999999
0.999999
1
1
1
1
1
1
1
1
1
1
1
1
1
1
1
1
1
1
1
1
1
1
1
1
1
1.00001
1.00001
1.00002
1.00003
1.00005
1.00009
1.00013
1.00019
1.00026
1.00035
1.00047
1.00066
1.00097
1.00153
1.00254
1.00427
1.00703
1.01106
1.01636
1.02254
1.02884
1.03439
1.03842
1.04049
1.04049
1.03862
1.03527
1.03094
1.02612
1.02122
1.01658
1.01246
1.00902
1.00641
1.00472
1.00402
1.00436
1.00579
1.00838
1.01218
1.01712
1.02288
1.02887
1.03421
1.038
1.03951
1.03851
1.03525
1.03041
1.02482
1.01923
1.01418
1.00997
1.00667
1.00424
1.00253
1.00139
1.00067
1.00025
1.00002
0.999915
0.999879
0.99988
0.999897
0.99992
0.999941
0.999959
0.999973
0.999979
0.999987
0.999992
0.999995
0.999997
0.999998
0.999999
1
1
1
1
1
1
1
1
1
1
1
1
1
1
1
1
1
1
1
1
1
1
1
1
1
1.00001
1.00001
1.00002
1.00004
1.00007
1.0001
1.00016
1.00022
1.00031
1.00042
1.00058
1.00083
1.00126
1.00206
1.00346
1.00582
1.00947
1.01459
1.02093
1.02773
1.03389
1.03844
1.0407
1.0405
1.03803
1.03377
1.02831
1.02224
1.01609
1.01024
1.00497
1.00045
0.996775
0.99402
0.992231
0.991445
0.991707
0.993093
0.995722
0.999722
1.00516
1.0119
1.01948
1.02707
1.03358
1.03795
1.0395
1.03814
1.03438
1.02909
1.02323
1.01757
1.01264
1.00864
1.00561
1.00344
1.00196
1.00101
1.00043
1.00011
0.999949
0.999884
0.999872
0.999886
0.999908
0.999932
0.999952
0.999967
0.999975
0.999984
0.99999
0.999994
0.999997
0.999998
0.999999
0.999999
1
1
1
1
1
1
1
1
1
1
1
1
1
1
1
1
1
1
1
1
1
1
1
1
1.00001
1.00002
1.00003
1.00005
1.00008
1.00012
1.00018
1.00026
1.00036
1.0005
1.0007
1.00103
1.00164
1.00273
1.00464
1.00777
1.01246
1.01869
1.02584
1.03269
1.03795
1.04069
1.04056
1.03774
1.03275
1.02631
1.01914
1.01185
1.00491
0.998652
0.993239
0.988736
0.985149
0.982473
0.980703
0.97985
0.979958
0.981125
0.983513
0.98733
0.992762
0.999857
1.00836
1.0176
1.02648
1.03369
1.03814
1.03928
1.03726
1.03287
1.02716
1.02115
1.01559
1.0109
1.00723
1.00454
1.00267
1.00144
1.00067
1.00023
1
0.999902
0.999871
0.999877
0.999898
0.999922
0.999944
0.999962
0.999971
0.999981
0.999988
0.999993
0.999996
0.999998
0.999999
0.999999
1
1
1
1
1
1
1
1
1
1
1
1
1
1
1
1
1
1
1
1
1
1
1
1
1.00001
1.00002
1.00003
1.00006
1.00009
1.00014
1.00021
1.0003
1.00042
1.00059
1.00085
1.0013
1.00211
1.00359
1.00612
1.01016
1.01596
1.02319
1.03068
1.03685
1.04038
1.0407
1.03787
1.03245
1.02526
1.01713
1.00883
1.00093
0.993804
0.987672
0.982577
0.978464
0.975237
0.972815
0.971145
0.970216
0.970075
0.970851
0.972758
0.976075
0.981088
0.987994
0.996753
1.00691
1.0175
1.02718
1.0345
1.03844
1.03871
1.0358
1.03074
1.02471
1.01871
1.0134
1.00909
1.00584
1.00352
1.00197
1.00099
1.0004
1.00009
0.999934
0.999878
0.999872
0.999889
0.999913
0.999937
0.999956
0.999967
0.999979
0.999987
0.999992
0.999995
0.999997
0.999999
0.999999
1
1
1
1
1
1
1
1
1
1
1
1
1
1
1
1
1
1
1
1
1
1
1
1.00001
1.00001
1.00002
1.00004
1.00007
1.00011
1.00016
1.00024
1.00035
1.00049
1.00069
1.00103
1.00162
1.0027
1.00465
1.00792
1.01299
1.01989
1.02779
1.03496
1.03964
1.04082
1.03841
1.03294
1.02529
1.01641
1.00722
0.998429
0.990519
0.983763
0.97823
0.97383
0.97038
0.967686
0.965607
0.964057
0.963013
0.962526
0.962757
0.963978
0.966544
0.970829
0.977143
0.985615
0.996017
1.00761
1.01912
1.02896
1.03571
1.03858
1.03763
1.0337
1.02804
1.02185
1.01605
1.01114
1.00731
1.00453
1.00261
1.00137
1.00062
1.0002
0.999986
0.999895
0.999873
0.999883
0.999905
0.999929
0.999951
0.999963
0.999976
0.999985
0.999991
0.999995
0.999997
0.999998
0.999999
1
1
1
1
1
1
1
1
1
1
1
1
1
1
1
1
1
1
1
1
1
1
1
1.00001
1.00001
1.00003
1.00004
1.00008
1.00012
1.00018
1.00028
1.00039
1.00055
1.0008
1.00124
1.00201
1.00343
1.00593
1.01007
1.01622
1.02405
1.03209
1.03819
1.04072
1.03922
1.03415
1.02641
1.01705
1.0071
0.99747
0.988779
0.981404
0.97547
0.970892
0.967426
0.964765
0.96264
0.960883
0.959413
0.958209
0.957318
0.956909
0.957299
0.958924
0.962254
0.967699
0.975512
0.985653
0.99761
1.01029
1.02211
1.03141
1.03691
1.03822
1.03586
1.03096
1.02488
1.01875
1.01332
1.00894
1.00566
1.00336
1.00184
1.00089
1.00035
1.00006
0.999925
0.999881
0.999881
0.9999
0.999923
0.999945
0.999959
0.999973
0.999983
0.99999
0.999994
0.999997
0.999998
0.999999
0.999999
1
1
1
1
1
1
1
1
1
1
1
1
1
1
1
1
1
1
1
1
1
1
1.00001
1.00002
1.00003
1.00005
1.00009
1.00014
1.0002
1.00031
1.00044
1.00063
1.00093
1.00148
1.00248
1.00429
1.00746
1.01255
1.01974
1.02816
1.03569
1.04002
1.04002
1.03588
1.02849
1.01898
1.00849
0.99807
0.98855
0.98047
0.974061
0.969277
0.965845
0.96336
0.96141
0.959707
0.958125
0.956644
0.955275
0.954039
0.953049
0.952604
0.953197
0.955408
0.959775
0.96667
0.976198
0.98804
1.00131
1.01454
1.02595
1.03394
1.03762
1.0371
1.03332
1.02765
1.02141
1.01557
1.01068
1.00691
1.00421
1.00238
1.00122
1.00053
1.00015
0.999969
0.999897
0.999883
0.999897
0.999919
0.999941
0.999956
0.999971
0.999981
0.999989
0.999993
0.999996
0.999998
0.999999
0.999999
1
1
1
1
1
1
1
1
1
1
1
1
1
1
1
1
1
1
1
1
1
1.00001
1.00001
1.00002
1.00003
1.00005
1.00009
1.00015
1.00022
1.00033
1.00049
1.00071
1.00108
1.00177
1.00304
1.00531
1.00922
1.0153
1.02339
1.03191
1.03825
1.04037
1.03779
1.03128
1.02204
1.0113
1.00022
0.989829
0.980896
0.973835
0.968699
0.965218
0.962896
0.961164
0.959563
0.957881
0.956146
0.9545
0.953039
0.951731
0.950525
0.949552
0.949253
0.95031
0.953438
0.95919
0.967826
0.979194
0.992599
1.00673
1.01979
1.02997
1.03596
1.03743
1.03503
1.03005
1.02391
1.01781
1.01249
1.00825
1.00514
1.00299
1.00159
1.00075
1.00027
1.00003
0.999923
0.999892
0.999897
0.999916
0.999937
0.999954
0.999969
0.99998
0.999988
0.999993
0.999996
0.999997
0.999999
0.999999
1
1
1
1
1
1
1
1
1
1
1
1
1
1
1
1
1
1
1
1
1
1.00001
1.00001
1.00002
1.00004
1.00006
1.0001
1.00017
1.00024
1.00036
1.00054
1.00079
1.00124
1.00211
1.00369
1.00648
1.01119
1.01825
1.02695
1.03499
1.03963
1.03938
1.03443
1.02596
1.01533
1.00383
0.992631
0.98271
0.974745
0.968997
0.965273
0.963006
0.961427
0.959824
0.957791
0.955343
0.952833
0.950722
0.949297
0.948482
0.947911
0.947282
0.946733
0.946929
0.948808
0.953222
0.960691
0.971262
0.984419
0.999002
1.01328
1.0253
1.03344
1.03694
1.03608
1.03201
1.0262
1.01998
1.0143
1.00964
1.00613
1.00365
1.00201
1.001
1.00041
1.0001
0.999959
0.999906
0.999901
0.999915
0.999935
0.999953
0.999968
0.999979
0.999987
0.999992
0.999995
0.999997
0.999998
0.999999
1
1
1
1
1
1
1
1
1
1
1
1
1
1
1
1
1
1
1
1
1
1.00001
1.00001
1.00002
1.00004
1.00007
1.0001
1.00018
1.00026
1.00037
1.00059
1.00089
1.00142
1.00248
1.00443
1.00779
1.01332
1.02126
1.03019
1.03724
1.03989
1.03735
1.03037
1.02034
1.00874
0.996911
0.985983
0.976882
0.970166
0.965878
0.963478
0.961995
0.960326
0.957658
0.953789
0.9492
0.944816
0.941645
0.940349
0.940878
0.942412
0.94384
0.944542
0.944856
0.945893
0.948953
0.955009
0.964449
0.976986
0.991621
1.0067
1.02021
1.03026
1.03572
1.0365
1.03351
1.0282
1.02201
1.01609
1.01106
1.00716
1.00436
1.00247
1.00128
1.00058
1.00019
1
0.999928
0.99991
0.999918
0.999935
0.999953
0.999967
0.999978
0.999987
0.999992
0.999995
0.999997
0.999998
0.999999
0.999999
1
1
1
1
1
1
1
1
1
1
1
1
1
1
1
1
1
1
1
1
1.00001
1.00002
1.00002
1.00005
1.00007
1.0001
1.00019
1.00028
1.00039
1.00063
1.001
1.00162
1.00289
1.00525
1.00922
1.01555
1.02418
1.03295
1.03862
1.03921
1.03464
1.02599
1.01476
1.00254
0.990727
0.980406
0.97239
0.96708
0.964206
0.96274
0.96115
0.957921
0.952205
0.944268
0.935412
0.927467
0.922252
0.92104
0.92396
0.929658
0.935807
0.940392
0.942856
0.944236
0.946375
0.950965
0.958984
0.970525
0.984814
1.0003
1.01494
1.02664
1.03393
1.03635
1.03455
1.02988
1.02387
1.01779
1.01245
1.00821
1.0051
1.00296
1.00159
1.00076
1.0003
1.00006
0.999956
0.999922
0.999923
0.999936
0.999954
0.999968
0.999978
0.999986
0.999992
0.999995
0.999997
0.999998
0.999999
1
1
1
1
1
1
1
1
1
1
1
1
1
1
1
1
1
1
1
1
1
1
1.00002
1.00002
1.00004
1.00008
1.0001
1.00019
1.0003
1.0004
1.00066
1.00112
1.00184
1.00333
1.00615
1.01075
1.01779
1.02686
1.03515
1.03924
1.03784
1.03154
1.02155
1.00942
0.996874
0.985386
0.975935
0.969168
0.965262
0.963515
0.962212
0.959047
0.951982
0.940313
0.925236
0.909385
0.895825
0.887362
0.886062
0.892437
0.90465
0.918851
0.930958
0.938741
0.94266
0.945029
0.948511
0.955003
0.965235
0.978794
0.994299
1.0097
1.02276
1.0317
1.03572
1.03516
1.03124
1.02551
1.01938
1.0138
1.00925
1.00584
1.00347
1.00191
1.00096
1.00041
1.00013
0.999991
0.99994
0.999931
0.99994
0.999956
0.999969
0.999979
0.999986
0.999992
0.999995
0.999997
0.999998
0.999999
1
1
1
1
1
1
1
1
1
1
1
1
1
1
1
1
1
1
0.999999
1
1
1
1.00002
1.00002
1.00004
1.00009
1.0001
1.00018
1.00033
1.00041
1.00068
1.00125
1.00209
1.00378
1.00707
1.01233
1.01996
1.02921
1.03678
1.03927
1.03603
1.02826
1.01726
1.00448
0.991837
0.980911
0.972526
0.967052
0.964355
0.963167
0.96083
0.953975
0.939992
0.918742
0.893084
0.867555
0.846586
0.833877
0.832326
0.843042
0.863877
0.889386
0.912968
0.929949
0.93947
0.943991
0.947262
0.952436
0.961201
0.973716
0.988874
1.00469
1.01881
1.02919
1.0347
1.03538
1.03228
1.02693
1.02083
1.01507
1.01026
1.00658
1.00398
1.00225
1.00117
1.00054
1.0002
1.00003
0.999962
0.999942
0.999945
0.99996
0.999971
0.99998
0.999987
0.999992
0.999995
0.999997
0.999998
0.999999
1
1
1
1
1
1
1
1
1
1
1
1
1
1
1
1
1
1
0.999999
1
1.00001
0.999999
1.00002
1.00002
1.00003
1.0001
1.0001
1.00016
1.00034
1.00044
1.00068
1.00137
1.00237
1.00424
1.008
1.01393
1.02199
1.03114
1.03791
1.03889
1.03396
1.02497
1.01325
1.00006
0.987462
0.977264
0.970068
0.965802
0.963911
0.962423
0.957451
0.944267
0.919836
0.885352
0.84625
0.809325
0.78009
0.762726
0.760882
0.776475
0.807281
0.84641
0.884701
0.914571
0.933059
0.942166
0.946599
0.951005
0.958357
0.969635
0.984151
1.00006
1.01494
1.02654
1.0334
1.03528
1.03302
1.02811
1.02211
1.01624
1.01121
1.0073
1.00448
1.00259
1.00139
1.00067
1.00028
1.00008
0.999988
0.999956
0.999953
0.999966
0.999973
0.999982
0.999988
0.999992
0.999995
0.999997
0.999998
0.999999
0.999999
1
1
1
1
1
1
1
1
1
1
1
1
1
1
1
1
1
0.999999
1
1.00001
0.999996
1.00002
1.00003
1.00001
1.0001
1.00012
1.00012
1.00034
1.00047
1.00067
1.00146
1.00268
1.0047
1.00887
1.01548
1.02386
1.03268
1.03861
1.03827
1.03182
1.02177
1.00961
0.996218
0.983743
0.974345
0.968396
0.965138
0.963441
0.960556
0.951121
0.928883
0.890812
0.840425
0.786475
0.737929
0.700692
0.678878
0.676819
0.697416
0.738547
0.792146
0.846831
0.89215
0.922512
0.938687
0.945907
0.950346
0.956526
0.966505
0.980175
0.995911
1.01129
1.02387
1.03193
1.03492
1.03349
1.02906
1.02322
1.01729
1.01209
1.00797
1.00497
1.00292
1.0016
1.00081
1.00036
1.00013
1.00002
0.999973
0.999963
0.999973
0.999977
0.999984
0.999989
0.999993
0.999996
0.999997
0.999999
0.999999
0.999999
1
1
1
1
1
1
1
1
1
1
1
1
1
1
1
1
1
1
0.999999
1.00001
0.999997
1.00001
1.00004
1
1.00008
1.00014
1.0001
1.00031
1.00052
1.00067
1.00152
1.003
1.00519
1.00966
1.01691
1.02555
1.03385
1.03895
1.03755
1.02976
1.01875
1.00637
0.993006
0.980658
0.972015
0.967311
0.96479
0.96252
0.957017
0.941439
0.908059
0.854411
0.78713
0.718586
0.659421
0.615184
0.58951
0.587374
0.6127
0.663603
0.73113
0.802157
0.863822
0.907847
0.933121
0.944728
0.950122
0.955502
0.964227
0.976929
0.992298
1.00795
1.0213
1.03038
1.03438
1.03374
1.0298
1.02416
1.01821
1.01288
1.00859
1.00542
1.00323
1.00181
1.00095
1.00045
1.00018
1.00005
0.999993
0.999974
0.999981
0.999982
0.999986
0.999991
0.999994
0.999996
0.999998
0.999998
1
0.999999
1
1
1
1
1
1
1
1
1
1
1
1
1
1
1
1
1
1
0.999998
1.00001
1
1
1.00004
1
1.00006
1.00015
1.00008
1.00025
1.00056
1.00069
1.00152
1.00328
1.00569
1.01035
1.01815
1.02707
1.03474
1.03898
1.03681
1.02795
1.01598
1.0035
0.990429
0.978195
0.970111
0.966583
0.964555
0.960905
0.951629
0.928823
0.883566
0.814217
0.730747
0.648977
0.580731
0.530777
0.502079
0.499998
0.529311
0.588649
0.6686
0.754635
0.831969
0.890008
0.92553
0.942797
0.950052
0.955082
0.962679
0.974366
0.989231
1.00497
1.0189
1.02883
1.03372
1.03381
1.03034
1.02492
1.01899
1.01356
1.00914
1.00583
1.00352
1.00201
1.00108
1.00053
1.00023
1.00008
1.00001
0.999987
0.999989
0.999988
0.99999
0.999993
0.999995
0.999997
0.999998
0.999999
1
1
1
1
1
1
1
1
1
1
1
1
1
1
1
1
1
1
1
1
0.999997
1.00001
1.00001
0.999993
1.00004
1.00001
1.00002
1.00015
1.00009
1.00018
1.00058
1.00075
1.00149
1.00349
1.00621
1.01094
1.01912
1.02839
1.03548
1.03876
1.03607
1.02651
1.01358
1.00095
0.988432
0.976371
0.968495
0.965962
0.964329
0.958648
0.944683
0.914457
0.858259
0.774921
0.67724
0.58412
0.508429
0.454214
0.423606
0.421665
0.453628
0.519211
0.609342
0.708337
0.799618
0.870712
0.916508
0.940088
0.949917
0.955058
0.961723
0.972416
0.9867
1.0024
1.01674
1.02736
1.03301
1.03375
1.03071
1.0255
1.01963
1.01414
1.00961
1.00618
1.00378
1.00219
1.0012
1.00061
1.00029
1.00012
1.00004
1
0.999999
0.999993
0.999993
0.999995
0.999996
0.999997
0.999999
0.999999
0.999999
1
1
1
1
1
1
1
1
1
1
1
1
1
0.999999
1
1
0.999999
1
1
0.999998
1
1.00001
0.999991
1.00003
1.00003
0.999994
1.00013
1.00011
1.00011
1.00054
1.00083
1.00147
1.00359
1.00669
1.01149
1.01979
1.02945
1.03616
1.03843
1.0353
1.02548
1.01169
0.998674
0.986872
0.975221
0.967128
0.965184
0.964066
0.956149
0.936947
0.899848
0.835053
0.741019
0.63214
0.529912
0.4485
0.391732
0.360678
0.359005
0.391802
0.460528
0.557658
0.666893
0.769766
0.852057
0.907128
0.936891
0.94962
0.95524
0.961204
0.970991
0.984675
1.00024
1.01486
1.02603
1.0323
1.03358
1.03093
1.02593
1.02012
1.0146
1.00999
1.00648
1.004
1.00235
1.00131
1.00069
1.00034
1.00015
1.00006
1.00002
1.00001
1
0.999997
0.999997
0.999998
0.999998
0.999999
0.999999
1
1
1
1
1
1
1
1
1
1
1
1
1
1
1
1
1
0.999999
1
1
0.999999
1
1.00001
0.999993
1.00002
1.00004
0.999983
1.00009
1.00013
1.00007
1.00045
1.00089
1.00149
1.00358
1.00706
1.01201
1.02022
1.03016
1.03683
1.03816
1.03448
1.0248
1.01049
0.996727
0.985521
0.97471
0.966139
0.964051
0.963664
0.954051
0.929593
0.886352
0.815902
0.715627
0.599707
0.491239
0.406012
0.348459
0.318529
0.317434
0.349337
0.417737
0.517809
0.633633
0.745036
0.836011
0.898613
0.933725
0.949221
0.955499
0.960973
0.969986
0.983112
0.998502
1.01331
1.02488
1.03164
1.03336
1.03103
1.02621
1.02046
1.01494
1.01028
1.00672
1.00418
1.00248
1.00141
1.00076
1.00039
1.00019
1.00008
1.00003
1.00002
1.00001
1
1
0.999999
0.999999
1
0.999999
1
1
1
1
1
1
1
1
1
1
1
1
1
1
1
1
1
0.999999
1
1
1
0.999999
1.00001
0.999998
1
1.00003
0.999988
1.00004
1.00012
1.00007
1.00034
1.0009
1.00156
1.00351
1.00724
1.01247
1.02049
1.0305
1.03741
1.03812
1.0337
1.02429
1.01004
0.995338
0.984182
0.974619
0.965789
0.962607
0.962831
0.952899
0.924088
0.875201
0.801422
0.69957
0.581715
0.470713
0.383733
0.326665
0.298876
0.298773
0.328848
0.394258
0.493329
0.611542
0.727697
0.824215
0.892025
0.931131
0.948871
0.95578
0.960918
0.969311
0.981964
0.99718
1.01209
1.02396
1.03106
1.03312
1.03103
1.02635
1.02067
1.01515
1.01048
1.00688
1.00431
1.00259
1.00149
1.00082
1.00043
1.00022
1.0001
1.00005
1.00003
1.00001
1.00001
1
1
1
1
1
1
1
1
1
1
1
1
1
1
1
1
1
1
1
1
1
1
0.999999
1
1
0.999999
1
1
1
0.999996
1.00001
0.999997
1
1.00008
1.00008
1.00025
1.00083
1.00162
1.00344
1.0072
1.01278
1.02068
1.03049
1.03777
1.03838
1.03318
1.02381
1.01015
0.994804
0.982903
0.974506
0.966235
0.961326
0.961253
0.952622
0.921817
0.868037
0.791735
0.691404
0.576355
0.466946
0.38047
0.324593
0.299064
0.300161
0.328424
0.389792
0.485285
0.602263
0.719331
0.817909
0.888196
0.929544
0.948707
0.956055
0.960958
0.968898
0.981194
0.996268
1.01123
1.02328
1.03061
1.03287
1.03094
1.02637
1.02074
1.01525
1.01058
1.00698
1.0044
1.00266
1.00155
1.00087
1.00047
1.00025
1.00012
1.00006
1.00004
1.00002
1.00001
1
1
1
1
1
1
1
1
1
1
1
1
1
1
1
1
1
1
1
1
1
1
0.999998
1
1
0.999998
1
0.999998
0.999997
0.999998
0.999994
0.999993
0.999987
1.00002
1.00007
1.00021
1.0007
1.00163
1.00341
1.00702
1.01283
1.0208
1.03031
1.0378
1.03882
1.03315
1.02342
1.01051
0.99524
0.9821
0.973983
0.967159
0.960965
0.959136
0.952377
0.92313
0.866898
0.788139
0.689677
0.579711
0.475066
0.391595
0.337945
0.314527
0.31669
0.343576
0.401157
0.492123
0.605481
0.720264
0.817642
0.887624
0.929278
0.948845
0.956317
0.961043
0.9687
0.980781
0.995767
1.01075
1.02287
1.03029
1.03263
1.03077
1.02626
1.02067
1.01522
1.01058
1.007
1.00443
1.0027
1.00159
1.00091
1.0005
1.00027
1.00014
1.00007
1.00005
1.00003
1.00001
1.00001
1
1
1
1
1
1
1
1
1
1
1
1
1
1
1
1
1
1
1
1
1
1
0.999999
1
0.999997
1
0.999998
0.999992
0.999998
0.999984
0.999975
0.999985
0.999974
1.00003
1.00019
1.00058
1.00153
1.00336
1.00679
1.01258
1.02073
1.03007
1.03758
1.03921
1.03367
1.02343
1.01085
0.996339
0.982311
0.973211
0.967756
0.961832
0.957619
0.951469
0.926575
0.872596
0.793267
0.69589
0.590408
0.491541
0.413257
0.363503
0.342374
0.345296
0.371135
0.425566
0.511828
0.619987
0.729876
0.823184
0.890332
0.930441
0.94936
0.956578
0.961155
0.968702
0.980721
0.995686
1.01066
1.02275
1.03013
1.03243
1.03054
1.02603
1.02048
1.01508
1.01049
1.00695
1.00442
1.00271
1.00161
1.00093
1.00053
1.00029
1.00016
1.00009
1.00005
1.00003
1.00002
1.00001
1.00001
1
1
1
1
1
1
1
1
1
1
1
1
1
1
1
1
1
1
1
1
1
1
1
0.999997
0.999999
0.999999
0.999988
0.999993
0.999983
0.999954
0.999972
0.999953
0.999966
1.00015
1.0005
1.00136
1.00323
1.00655
1.01212
1.02033
1.02976
1.03726
1.03939
1.03452
1.02413
1.01133
0.997575
0.98361
0.973015
0.967534
0.963092
0.95791
0.950742
0.930109
0.88294
0.808012
0.713396
0.611848
0.51871
0.446809
0.401747
0.382512
0.385538
0.410343
0.461988
0.543239
0.644675
0.747255
0.833884
0.895946
0.932889
0.950232
0.956857
0.961315
0.968924
0.981035
0.996042
1.01097
1.02292
1.03012
1.03225
1.03025
1.02569
1.02016
1.01482
1.0103
1.00684
1.00436
1.00269
1.00161
1.00094
1.00054
1.00031
1.00017
1.0001
1.00006
1.00004
1.00002
1.00001
1.00001
1
1
1
1
1
1
1
1
1
1
1
1
1
1
1
1
1
0.999999
1
1
1
0.999999
1
0.999998
0.999998
0.999999
0.999988
0.999983
0.999983
0.999945
0.999944
0.999942
0.999918
1.00008
1.00044
1.00119
1.00297
1.00625
1.01157
1.0196
1.02922
1.03696
1.03947
1.03538
1.02548
1.01242
0.998762
0.985416
0.974084
0.967149
0.963514
0.959591
0.952008
0.933753
0.894419
0.828912
0.742096
0.647416
0.561741
0.496624
0.454878
0.435726
0.437744
0.461189
0.509928
0.585381
0.678287
0.771177
0.848799
0.90387
0.936325
0.951366
0.957163
0.961571
0.969416
0.981765
0.996864
1.01169
1.02339
1.03026
1.03209
1.02988
1.02524
1.01972
1.01444
1.01003
1.00665
1.00425
1.00263
1.00159
1.00094
1.00055
1.00032
1.00018
1.00011
1.00007
1.00004
1.00002
1.00001
1.00001
1
1
1
1
1
1
1
1
1
1
1
1
1
1
1
1
1
1
1
1
0.999999
1
1
0.999999
0.999996
0.999997
0.999989
0.999977
0.999977
0.999944
0.999917
0.999922
0.999896
0.99999
1.00035
1.00106
1.00265
1.00582
1.01096
1.01865
1.02831
1.03657
1.03961
1.03618
1.02712
1.01433
1.00032
0.987191
0.976096
0.967805
0.963234
0.960845
0.955228
0.939304
0.906184
0.851372
0.777064
0.694938
0.620538
0.561999
0.521311
0.50075
0.501254
0.523064
0.568395
0.636873
0.719221
0.800067
0.866678
0.913326
0.940376
0.952652
0.957521
0.961997
0.970258
0.982969
0.998183
1.01284
1.02415
1.03054
1.03194
1.02944
1.02467
1.01915
1.01397
1.00967
1.00641
1.0041
1.00255
1.00155
1.00093
1.00055
1.00033
1.00019
1.00011
1.00007
1.00004
1.00002
1.00001
1.00001
1
1
1
1
1
1
1
1
1
1
1
1
1
1
1
1
1
1
1
1
0.999999
1
1
0.999999
0.999996
0.999996
0.999989
0.999978
0.999966
0.999943
0.999903
0.999889
0.999879
0.999926
1.00023
1.00091
1.00233
1.00525
1.01022
1.01757
1.02708
1.03588
1.03981
1.03708
1.0288
1.01675
1.0027
0.989193
0.978236
0.969641
0.963681
0.961116
0.958073
0.946407
0.919424
0.874641
0.814649
0.748876
0.687464
0.6346
0.594732
0.573812
0.573645
0.593741
0.63489
0.695094
0.765084
0.831961
0.886063