/*--------------------------------*- C++ -*----------------------------------*\
  =========                 |
  \\      /  F ield         | OpenFOAM: The Open Source CFD Toolbox
   \\    /   O peration     | Website:  https://openfoam.org
    \\  /    A nd           | Version:  6
     \\/     M anipulation  |
\*---------------------------------------------------------------------------*/
FoamFile
{
    version     2.0;
    format      ascii;
    class       volScalarField;
    location    "2.99";
    object      p;
}
// * * * * * * * * * * * * * * * * * * * * * * * * * * * * * * * * * * * * * //

dimensions      [1 -1 -2 0 0 0 0];

internalField   nonuniform List<scalar> 
5625
(
0.999996
0.999995
0.999994
0.999993
0.999992
0.999992
0.999991
0.99999
0.999989
0.999989
0.999989
0.999989
0.99999
0.999991
0.999992
0.999993
0.999995
0.999997
0.999999
1
1
1
1.00001
1.00001
1.00001
1.00001
1.00001
1.00001
1.00001
1.00001
1.00001
1.00001
1.00001
1.00001
1.00001
1.00001
1.00001
1.00001
1
1
1
1
1
1
1
1
1
1
1
1
1
1
1
1
1
1
1
1
1
1
1
1
1
1
1
1
1
1
1
1
1
1
1
1
1
0.999995
0.999994
0.999993
0.999991
0.99999
0.999989
0.999988
0.999987
0.999987
0.999986
0.999986
0.999987
0.999988
0.999988
0.99999
0.999992
0.999994
0.999996
0.999999
1
1
1.00001
1.00001
1.00001
1.00001
1.00001
1.00001
1.00002
1.00002
1.00002
1.00001
1.00001
1.00001
1.00001
1.00001
1.00001
1.00001
1.00001
1.00001
1.00001
1
1
1
1
1
1
1
1
1
1
1
1
1
1
1
1
1
1
1
1
1
1
1
1
1
1
1
1
1
1
1
1
1
1
1
0.999993
0.999992
0.99999
0.999989
0.999987
0.999986
0.999985
0.999983
0.999983
0.999982
0.999982
0.999983
0.999984
0.999986
0.999988
0.99999
0.999993
0.999996
0.999999
1
1.00001
1.00001
1.00001
1.00001
1.00002
1.00002
1.00002
1.00002
1.00002
1.00002
1.00002
1.00002
1.00002
1.00002
1.00001
1.00001
1.00001
1.00001
1.00001
1.00001
1.00001
1
1
1
1
1
1
1
1
1
1
1
1
1
1
1
1
1
1
1
1
1
1
1
1
1
1
1
1
1
1
1
1
1
1
0.999991
0.999989
0.999987
0.999985
0.999983
0.999982
0.99998
0.999979
0.999978
0.999978
0.999978
0.999979
0.99998
0.999983
0.999985
0.999989
0.999992
0.999996
1
1.00001
1.00001
1.00001
1.00002
1.00002
1.00002
1.00003
1.00003
1.00003
1.00003
1.00003
1.00003
1.00002
1.00002
1.00002
1.00002
1.00002
1.00001
1.00001
1.00001
1.00001
1.00001
1.00001
1
1
1
1
1
1
1
1
1
1
1
1
1
1
1
1
1
1
1
1
1
1
1
1
1
1
1
1
1
1
1
1
1
0.999989
0.999986
0.999984
0.999981
0.999979
0.999977
0.999975
0.999974
0.999973
0.999973
0.999974
0.999975
0.999977
0.99998
0.999984
0.999988
0.999993
0.999998
1
1.00001
1.00001
1.00002
1.00002
1.00003
1.00003
1.00003
1.00004
1.00004
1.00004
1.00004
1.00003
1.00003
1.00003
1.00003
1.00002
1.00002
1.00002
1.00002
1.00001
1.00001
1.00001
1.00001
1.00001
1
1
1
1
1
1
1
1
1
1
1
1
1
1
1
1
1
1
1
1
1
1
1
1
1
1
1
1
1
1
1
1
0.999986
0.999983
0.99998
0.999977
0.999974
0.999972
0.99997
0.999968
0.999967
0.999968
0.999969
0.999971
0.999974
0.999979
0.999984
0.999989
0.999996
1
1.00001
1.00002
1.00002
1.00003
1.00004
1.00004
1.00004
1.00005
1.00005
1.00005
1.00005
1.00005
1.00005
1.00004
1.00004
1.00004
1.00003
1.00003
1.00002
1.00002
1.00002
1.00001
1.00001
1.00001
1.00001
1.00001
1
1
1
1
1
1
1
1
1
1
1
1
1
1
1
1
1
1
1
1
1
1
1
1
1
1
1
1
1
1
1
0.999982
0.999979
0.999976
0.999972
0.999969
0.999966
0.999964
0.999963
0.999962
0.999963
0.999966
0.999969
0.999974
0.99998
0.999987
0.999995
1
1.00001
1.00002
1.00003
1.00004
1.00004
1.00005
1.00006
1.00006
1.00006
1.00006
1.00007
1.00006
1.00006
1.00006
1.00006
1.00005
1.00005
1.00004
1.00004
1.00003
1.00003
1.00002
1.00002
1.00002
1.00001
1.00001
1.00001
1.00001
1
1
1
1
1
1
1
1
1
1
1
1
1
1
1
1
1
1
1
1
1
1
1
1
1
1
1
1
1
1
0.999978
0.999974
0.99997
0.999966
0.999963
0.99996
0.999958
0.999957
0.999958
0.99996
0.999964
0.99997
0.999977
0.999985
0.999995
1.00001
1.00002
1.00003
1.00004
1.00005
1.00006
1.00007
1.00008
1.00008
1.00009
1.00009
1.00009
1.00009
1.00009
1.00008
1.00008
1.00007
1.00007
1.00006
1.00005
1.00005
1.00004
1.00003
1.00003
1.00002
1.00002
1.00002
1.00001
1.00001
1.00001
1
1
1
1
1
1
1
1
1
1
1
1
1
1
1
1
1
1
1
1
1
1
1
1
1
1
1
1
1
1
0.999974
0.999969
0.999965
0.999961
0.999957
0.999954
0.999954
0.999954
0.999956
0.99996
0.999967
0.999976
0.999986
0.999998
1.00001
1.00003
1.00004
1.00006
1.00007
1.00008
1.00009
1.0001
1.00011
1.00012
1.00012
1.00012
1.00012
1.00012
1.00012
1.00011
1.0001
1.00009
1.00009
1.00008
1.00007
1.00006
1.00005
1.00004
1.00004
1.00003
1.00002
1.00002
1.00001
1.00001
1.00001
1.00001
1
1
1
1
1
1
1
1
1
1
1
1
1
1
1
1
1
1
1
1
1
1
1
1
1
1
1
1
1
0.999969
0.999964
0.999959
0.999955
0.999952
0.999951
0.999951
0.999955
0.99996
0.999967
0.999978
0.999992
1.00001
1.00002
1.00004
1.00006
1.00008
1.0001
1.00012
1.00013
1.00015
1.00016
1.00017
1.00017
1.00017
1.00017
1.00017
1.00016
1.00016
1.00015
1.00014
1.00012
1.00011
1.0001
1.00009
1.00008
1.00007
1.00006
1.00005
1.00004
1.00003
1.00002
1.00002
1.00001
1.00001
1.00001
1
1
1
1
1
1
1
1
1
1
1
1
1
1
1
1
1
1
1
1
1
1
1
1
1
1
1
1
1
0.999965
0.99996
0.999955
0.999952
0.99995
0.999951
0.999954
0.999962
0.999972
0.999985
1
1.00002
1.00005
1.00007
1.0001
1.00012
1.00015
1.00017
1.0002
1.00021
1.00023
1.00024
1.00025
1.00025
1.00025
1.00025
1.00024
1.00023
1.00021
1.0002
1.00018
1.00017
1.00015
1.00013
1.00011
1.0001
1.00008
1.00007
1.00006
1.00005
1.00004
1.00003
1.00002
1.00002
1.00001
1.00001
1.00001
1
1
1
1
1
1
1
1
1
1
1
1
1
1
1
1
1
1
1
1
1
1
1
1
1
1
1
1
0.999961
0.999957
0.999953
0.999952
0.999953
0.999958
0.999966
0.999979
0.999997
1.00002
1.00005
1.00008
1.00011
1.00015
1.00018
1.00022
1.00025
1.00029
1.00031
1.00034
1.00035
1.00037
1.00037
1.00037
1.00036
1.00035
1.00034
1.00032
1.0003
1.00027
1.00025
1.00022
1.0002
1.00017
1.00015
1.00013
1.00011
1.00009
1.00007
1.00006
1.00005
1.00004
1.00003
1.00002
1.00001
1.00001
1.00001
1
1
1
1
1
0.999999
0.999999
0.999999
0.999999
0.999999
1
1
1
1
1
1
1
1
1
1
1
1
1
1
1
1
1
1
0.99996
0.999957
0.999956
0.999958
0.999964
0.999975
0.999992
1.00001
1.00004
1.00008
1.00012
1.00017
1.00022
1.00027
1.00032
1.00037
1.00041
1.00046
1.00049
1.00052
1.00054
1.00055
1.00055
1.00054
1.00053
1.00051
1.00048
1.00045
1.00041
1.00038
1.00034
1.0003
1.00026
1.00023
1.0002
1.00017
1.00014
1.00012
1.00009
1.00007
1.00006
1.00005
1.00003
1.00002
1.00002
1.00001
1.00001
1
1
1
1
0.999999
0.999999
0.999999
0.999999
0.999999
0.999999
0.999999
0.999999
1
1
1
1
1
1
1
1
1
1
1
1
1
1
1
1
0.999962
0.999962
0.999965
0.999973
0.999987
1.00001
1.00004
1.00008
1.00012
1.00018
1.00024
1.00031
1.00038
1.00045
1.00052
1.00059
1.00065
1.00071
1.00075
1.00079
1.00081
1.00082
1.00081
1.00079
1.00077
1.00073
1.00068
1.00063
1.00058
1.00052
1.00047
1.00041
1.00036
1.00031
1.00026
1.00022
1.00018
1.00015
1.00012
1.00009
1.00007
1.00006
1.00004
1.00003
1.00002
1.00001
1.00001
1
1
1
0.999999
0.999999
0.999998
0.999998
0.999998
0.999999
0.999999
0.999999
0.999999
0.999999
1
1
1
1
1
1
1
1
1
1
1
1
1
1
1
0.99997
0.999975
0.999985
1
1.00003
1.00007
1.00012
1.00018
1.00025
1.00033
1.00042
1.00052
1.00062
1.00073
1.00083
1.00092
1.00101
1.00108
1.00114
1.00117
1.0012
1.0012
1.00118
1.00115
1.0011
1.00104
1.00097
1.0009
1.00081
1.00073
1.00064
1.00056
1.00049
1.00041
1.00035
1.00029
1.00024
1.00019
1.00015
1.00012
1.00009
1.00007
1.00005
1.00004
1.00003
1.00002
1.00001
1.00001
1
1
0.999999
0.999998
0.999998
0.999998
0.999998
0.999998
0.999998
0.999999
0.999999
0.999999
0.999999
1
1
1
1
1
1
1
1
1
1
1
1
1
1
0.999987
1
1.00002
1.00006
1.0001
1.00016
1.00024
1.00033
1.00044
1.00056
1.00069
1.00084
1.00098
1.00113
1.00126
1.00139
1.00151
1.0016
1.00168
1.00172
1.00175
1.00174
1.00171
1.00166
1.00158
1.00149
1.00138
1.00126
1.00114
1.00102
1.00089
1.00078
1.00067
1.00056
1.00047
1.00039
1.00032
1.00025
1.0002
1.00016
1.00012
1.00009
1.00006
1.00005
1.00003
1.00002
1.00001
1.00001
1
0.999999
0.999997
0.999997
0.999997
0.999997
0.999997
0.999997
0.999998
0.999998
0.999999
0.999999
0.999999
0.999999
1
1
1
1
1
1
1
1
1
1
1
1
1
1.00002
1.00004
1.00008
1.00014
1.00021
1.00031
1.00043
1.00057
1.00072
1.0009
1.00109
1.00129
1.00149
1.00169
1.00188
1.00206
1.00221
1.00234
1.00243
1.00249
1.00251
1.00249
1.00244
1.00236
1.00224
1.00211
1.00195
1.00178
1.0016
1.00142
1.00124
1.00108
1.00092
1.00077
1.00064
1.00052
1.00042
1.00034
1.00027
1.0002
1.00015
1.00011
1.00008
1.00006
1.00004
1.00002
1.00001
1.00001
1
0.999998
0.999996
0.999995
0.999995
0.999995
0.999996
0.999996
0.999997
0.999998
0.999998
0.999999
0.999999
0.999999
0.999999
1
1
1
1
1
1
1
1
1
1
1
1
1.00007
1.00011
1.00018
1.00027
1.00039
1.00053
1.0007
1.0009
1.00113
1.00138
1.00165
1.00193
1.00221
1.00248
1.00274
1.00297
1.00318
1.00334
1.00346
1.00353
1.00355
1.00352
1.00344
1.00332
1.00315
1.00295
1.00273
1.00248
1.00223
1.00198
1.00173
1.00149
1.00126
1.00106
1.00087
1.00071
1.00057
1.00045
1.00035
1.00027
1.0002
1.00015
1.00011
1.00007
1.00005
1.00003
1.00002
1.00001
1
0.999996
0.999994
0.999993
0.999993
0.999994
0.999994
0.999995
0.999996
0.999997
0.999998
0.999998
0.999999
0.999999
0.999999
0.999999
1
1
1
1
1
1
1
1
1
1
1
1.00014
1.00022
1.00032
1.00046
1.00063
1.00085
1.0011
1.00138
1.00171
1.00206
1.00243
1.00281
1.00319
1.00355
1.0039
1.00421
1.00448
1.00469
1.00484
1.00493
1.00495
1.0049
1.00478
1.0046
1.00437
1.00409
1.00378
1.00344
1.00309
1.00273
1.00238
1.00205
1.00174
1.00145
1.0012
1.00097
1.00078
1.00061
1.00047
1.00036
1.00027
1.0002
1.00014
1.00009
1.00006
1.00004
1.00002
1.00001
1
0.999995
0.999992
0.999991
0.999991
0.999992
0.999993
0.999994
0.999995
0.999996
0.999997
0.999998
0.999998
0.999999
0.999999
0.999999
1
1
1
1
1
1
1
1
1
1
1
1.00026
1.00037
1.00053
1.00074
1.00099
1.00129
1.00165
1.00205
1.00249
1.00297
1.00347
1.00399
1.00449
1.00498
1.00544
1.00584
1.00619
1.00646
1.00665
1.00676
1.00678
1.0067
1.00654
1.0063
1.00598
1.0056
1.00518
1.00472
1.00424
1.00375
1.00327
1.00281
1.00238
1.00199
1.00163
1.00132
1.00105
1.00083
1.00064
1.00048
1.00036
1.00026
1.00018
1.00012
1.00008
1.00005
1.00002
1.00001
0.999999
0.999993
0.99999
0.999988
0.999988
0.999989
0.999991
0.999992
0.999993
0.999995
0.999996
0.999997
0.999998
0.999998
0.999999
0.999999
0.999999
1
1
1
1
1
1
1
1
1
1
1.00042
1.0006
1.00083
1.00112
1.00148
1.00191
1.0024
1.00295
1.00355
1.0042
1.00487
1.00554
1.00621
1.00685
1.00743
1.00795
1.00839
1.00874
1.00898
1.00911
1.00912
1.00902
1.0088
1.00848
1.00806
1.00756
1.007
1.00639
1.00575
1.00509
1.00445
1.00383
1.00324
1.00271
1.00223
1.0018
1.00143
1.00112
1.00086
1.00065
1.00048
1.00035
1.00024
1.00017
1.00011
1.00006
1.00003
1.00001
0.999999
0.999991
0.999987
0.999985
0.999985
0.999986
0.999988
0.99999
0.999991
0.999993
0.999995
0.999996
0.999997
0.999998
0.999998
0.999999
0.999999
0.999999
1
1
1
1
1
1
1
1
1
1.00065
1.00091
1.00125
1.00166
1.00216
1.00274
1.00341
1.00415
1.00495
1.0058
1.00667
1.00755
1.0084
1.00921
1.00996
1.01061
1.01116
1.01159
1.01188
1.01204
1.01205
1.01191
1.01164
1.01123
1.0107
1.01005
1.00933
1.00853
1.00769
1.00684
1.00599
1.00516
1.00438
1.00366
1.00302
1.00244
1.00194
1.00152
1.00117
1.00088
1.00065
1.00047
1.00033
1.00022
1.00014
1.00009
1.00005
1.00002
1
0.999989
0.999984
0.999981
0.999981
0.999982
0.999985
0.999987
0.999989
0.999991
0.999993
0.999995
0.999996
0.999997
0.999998
0.999999
0.999999
0.999999
1
1
1
1
1
1
1
1
1
1.00098
1.00134
1.00181
1.00238
1.00305
1.00384
1.00473
1.0057
1.00675
1.00785
1.00896
1.01007
1.01114
1.01215
1.01307
1.01387
1.01454
1.01505
1.01541
1.01559
1.0156
1.01544
1.0151
1.01459
1.01393
1.01314
1.01222
1.01122
1.01016
1.00906
1.00796
1.00688
1.00586
1.00491
1.00405
1.00329
1.00262
1.00205
1.00158
1.00119
1.00088
1.00064
1.00045
1.0003
1.0002
1.00012
1.00006
1.00003
1
0.999988
0.99998
0.999977
0.999977
0.999978
0.999981
0.999984
0.999986
0.999989
0.999991
0.999993
0.999995
0.999996
0.999997
0.999998
0.999999
0.999999
0.999999
1
1
1
1
1
1
1
1
1.00142
1.00192
1.00256
1.00333
1.00423
1.00527
1.00643
1.00769
1.00902
1.0104
1.0118
1.01316
1.01447
1.01569
1.01678
1.01773
1.01852
1.01912
1.01954
1.01975
1.01976
1.01956
1.01917
1.01857
1.01779
1.01684
1.01573
1.01451
1.01319
1.01182
1.01043
1.00906
1.00775
1.00652
1.00539
1.00439
1.00351
1.00276
1.00212
1.00161
1.00119
1.00086
1.0006
1.00041
1.00027
1.00016
1.00009
1.00004
1.00001
0.999989
0.999978
0.999973
0.999972
0.999973
0.999976
0.99998
0.999983
0.999986
0.999989
0.999992
0.999994
0.999995
0.999997
0.999998
0.999998
0.999999
0.999999
0.999999
1
1
1
1
1
1
1
1.002
1.00269
1.00354
1.00456
1.00574
1.00708
1.00856
1.01015
1.01182
1.01351
1.0152
1.01684
1.01838
1.0198
1.02106
1.02215
1.02303
1.02371
1.02417
1.02441
1.02442
1.02421
1.02377
1.0231
1.02221
1.02112
1.01984
1.0184
1.01683
1.01517
1.01346
1.01176
1.01011
1.00854
1.0071
1.0058
1.00465
1.00367
1.00284
1.00215
1.0016
1.00116
1.00082
1.00056
1.00037
1.00023
1.00013
1.00006
1.00002
0.999992
0.999976
0.999969
0.999967
0.999968
0.999971
0.999975
0.999979
0.999983
0.999987
0.99999
0.999992
0.999994
0.999996
0.999997
0.999998
0.999999
0.999999
0.999999
1
1
1
1
1
1
1
1.00276
1.00368
1.0048
1.00612
1.00764
1.00934
1.01119
1.01315
1.01516
1.01719
1.01917
1.02105
1.02281
1.02439
1.02578
1.02695
1.0279
1.02862
1.02911
1.02936
1.02937
1.02915
1.02869
1.02799
1.02705
1.02587
1.02445
1.02283
1.02103
1.01909
1.01707
1.01501
1.01299
1.01105
1.00923
1.00758
1.00611
1.00484
1.00376
1.00286
1.00213
1.00155
1.0011
1.00076
1.0005
1.00032
1.00019
1.0001
1.00004
0.999998
0.999976
0.999966
0.999962
0.999962
0.999966
0.99997
0.999975
0.99998
0.999984
0.999988
0.999991
0.999993
0.999995
0.999996
0.999997
0.999998
0.999999
0.999999
0.999999
1
1
1
1
1
1
1.00375
1.00495
1.00639
1.00807
1.00998
1.01209
1.01434
1.01668
1.01904
1.02137
1.0236
1.02569
1.02758
1.02925
1.03069
1.03188
1.03282
1.03353
1.034
1.03425
1.03427
1.03406
1.03363
1.03295
1.03202
1.03083
1.02937
1.02765
1.02569
1.02353
1.02122
1.01882
1.01641
1.01406
1.01183
1.00977
1.00793
1.00631
1.00492
1.00377
1.00282
1.00207
1.00148
1.00102
1.00069
1.00044
1.00026
1.00014
1.00006
1.00001
0.999979
0.999963
0.999957
0.999957
0.99996
0.999965
0.99997
0.999976
0.999981
0.999985
0.999989
0.999992
0.999994
0.999996
0.999997
0.999998
0.999999
0.999999
0.999999
1
1
1
1
1
1
1.00499
1.00653
1.00836
1.01046
1.0128
1.01534
1.018
1.02071
1.02338
1.02595
1.02834
1.03052
1.03243
1.03407
1.03544
1.03654
1.03738
1.038
1.03841
1.03861
1.03864
1.03847
1.03811
1.03753
1.03671
1.03563
1.03425
1.03257
1.03058
1.02831
1.0258
1.02312
1.02036
1.0176
1.01493
1.01243
1.01015
1.00812
1.00638
1.00491
1.0037
1.00272
1.00196
1.00137
1.00093
1.0006
1.00037
1.00021
1.0001
1.00003
0.999986
0.999963
0.999953
0.999951
0.999953
0.999959
0.999965
0.999971
0.999977
0.999982
0.999986
0.99999
0.999993
0.999995
0.999996
0.999997
0.999998
0.999999
0.999999
0.999999
1
1
1
1
1
1.00653
1.00847
1.01074
1.01331
1.01611
1.01908
1.02212
1.02513
1.02802
1.0307
1.03311
1.03521
1.03699
1.03843
1.03958
1.04045
1.04108
1.04151
1.04178
1.04192
1.04193
1.04183
1.04159
1.0412
1.04061
1.03978
1.03866
1.0372
1.03536
1.03316
1.03061
1.02777
1.02474
1.02161
1.01852
1.01555
1.0128
1.01033
1.00817
1.00632
1.00479
1.00355
1.00257
1.00181
1.00124
1.00081
1.00051
1.00029
1.00015
1.00006
0.999999
0.999966
0.99995
0.999945
0.999947
0.999952
0.999959
0.999966
0.999973
0.999979
0.999984
0.999988
0.999991
0.999994
0.999996
0.999997
0.999998
0.999999
0.999999
0.999999
1
1
1
1
1
1.00842
1.01081
1.01357
1.01662
1.01988
1.02323
1.02657
1.02976
1.0327
1.03531
1.03753
1.03936
1.04078
1.04185
1.04259
1.04308
1.04338
1.04354
1.04361
1.04363
1.04363
1.0436
1.04355
1.04342
1.04318
1.04275
1.04206
1.04103
1.03958
1.03768
1.03531
1.03251
1.02937
1.026
1.02254
1.01914
1.01591
1.01294
1.01031
1.00804
1.00614
1.00458
1.00334
1.00237
1.00164
1.00109
1.00069
1.00041
1.00022
1.0001
1.00002
0.999974
0.99995
0.999941
0.999941
0.999946
0.999953
0.999961
0.999968
0.999975
0.999981
0.999986
0.99999
0.999993
0.999995
0.999996
0.999997
0.999998
0.999999
0.999999
1
1
1
1
1
1.01067
1.01357
1.01683
1.02036
1.02401
1.02766
1.03113
1.03431
1.03708
1.03938
1.04118
1.04248
1.04335
1.04383
1.04402
1.044
1.04384
1.04364
1.04346
1.04333
1.0433
1.04336
1.04352
1.04372
1.04392
1.04403
1.04394
1.04355
1.04274
1.04141
1.0395
1.03701
1.03399
1.03056
1.02688
1.02311
1.01943
1.01597
1.01284
1.0101
1.00777
1.00584
1.00429
1.00307
1.00214
1.00144
1.00093
1.00057
1.00032
1.00015
1.00005
0.999987
0.999953
0.999939
0.999935
0.999939
0.999946
0.999955
0.999963
0.999971
0.999978
0.999983
0.999988
0.999991
0.999994
0.999996
0.999997
0.999998
0.999999
0.999999
0.999999
1
1
1
1
1.01332
1.01674
1.0205
1.02443
1.02837
1.03213
1.03553
1.03844
1.04078
1.04249
1.0436
1.04417
1.04427
1.04401
1.04351
1.04287
1.0422
1.04158
1.0411
1.04081
1.04073
1.04089
1.04127
1.04183
1.04252
1.04325
1.04389
1.04431
1.04436
1.04387
1.04273
1.04086
1.03826
1.03504
1.03133
1.02735
1.0233
1.01938
1.01575
1.0125
1.0097
1.00735
1.00544
1.00393
1.00276
1.00188
1.00123
1.00077
1.00045
1.00023
1.00009
1.00001
0.999961
0.999938
0.999931
0.999933
0.99994
0.999949
0.999958
0.999967
0.999974
0.999981
0.999986
0.99999
0.999993
0.999995
0.999996
0.999998
0.999998
0.999999
0.999999
1
1
1
1
1.01635
1.02029
1.02447
1.0287
1.03273
1.03636
1.03942
1.04177
1.04338
1.04425
1.04445
1.04408
1.04327
1.04217
1.0409
1.0396
1.03839
1.03735
1.03657
1.0361
1.03598
1.03622
1.03681
1.03773
1.03892
1.04028
1.04171
1.04304
1.04409
1.04465
1.04455
1.04361
1.04178
1.03908
1.03563
1.03165
1.02739
1.0231
1.019
1.01524
1.01194
1.00913
1.00681
1.00496
1.00351
1.00242
1.00161
1.00102
1.00061
1.00033
1.00015
1.00004
0.999975
0.999942
0.999929
0.999928
0.999934
0.999943
0.999953
0.999962
0.999971
0.999978
0.999983
0.999988
0.999991
0.999994
0.999996
0.999997
0.999998
0.999999
0.999999
1
1
1
1
1.01973
1.02413
1.02862
1.03294
1.03682
1.04003
1.04243
1.04393
1.04456
1.04437
1.04349
1.04208
1.0403
1.03831
1.03628
1.03434
1.0326
1.03116
1.0301
1.02946
1.02929
1.0296
1.03039
1.03163
1.03328
1.03525
1.03743
1.03967
1.04178
1.04352
1.04464
1.04491
1.04416
1.04233
1.03947
1.03579
1.03153
1.02702
1.02253
1.01829
1.01448
1.01118
1.00842
1.00618
1.00442
1.00307
1.00206
1.00133
1.00082
1.00046
1.00023
1.00008
0.999997
0.99995
0.999929
0.999924
0.999928
0.999937
0.999947
0.999957
0.999967
0.999975
0.999981
0.999986
0.99999
0.999993
0.999995
0.999997
0.999998
0.999999
0.999999
0.999999
1
1
1
1.0234
1.02813
1.03273
1.03689
1.04031
1.0428
1.04425
1.04465
1.04409
1.04271
1.04068
1.0382
1.03546
1.03264
1.0299
1.02738
1.02518
1.02339
1.02208
1.02131
1.02109
1.02146
1.02241
1.02392
1.02596
1.02845
1.03131
1.0344
1.03752
1.04044
1.04287
1.04451
1.04509
1.04445
1.04253
1.03946
1.0355
1.03097
1.02624
1.0216
1.01731
1.0135
1.01027
1.00761
1.00549
1.00385
1.00262
1.00172
1.00107
1.00063
1.00033
1.00014
1.00003
0.999963
0.999932
0.999922
0.999923
0.999931
0.999941
0.999952
0.999963
0.999971
0.999979
0.999984
0.999989
0.999992
0.999995
0.999996
0.999997
0.999998
0.999999
0.999999
1
1
1
1.02722
1.03211
1.03657
1.04026
1.04292
1.04439
1.04465
1.04378
1.04194
1.03933
1.03616
1.03267
1.02905
1.02549
1.02214
1.01912
1.01653
1.01446
1.01295
1.01206
1.01182
1.01223
1.01331
1.01504
1.01739
1.02032
1.02374
1.02755
1.03157
1.03558
1.03929
1.04234
1.04441
1.04518
1.04451
1.0424
1.03905
1.03478
1.02999
1.02508
1.02036
1.01608
1.01235
1.00924
1.00673
1.00477
1.00328
1.00217
1.00138
1.00083
1.00046
1.00022
1.00007
0.999984
0.99994
0.999922
0.99992
0.999926
0.999936
0.999947
0.999958
0.999968
0.999976
0.999982
0.999987
0.999991
0.999994
0.999996
0.999997
0.999998
0.999999
0.999999
1
1
1
1.03106
1.03586
1.03988
1.0428
1.0444
1.04462
1.04355
1.04133
1.0382
1.03441
1.0302
1.02581
1.02143
1.01724
1.01338
1.00996
1.00706
1.00476
1.00309
1.00211
1.00183
1.00228
1.00346
1.00537
1.00797
1.01125
1.01513
1.01953
1.0243
1.02926
1.03411
1.03853
1.04209
1.04442
1.04522
1.04436
1.04194
1.03822
1.03363
1.02861
1.02358
1.01885
1.01465
1.01108
1.00815
1.00583
1.00404
1.00272
1.00175
1.00108
1.00062
1.00031
1.00012
1.00001
0.999952
0.999925
0.999918
0.999922
0.999931
0.999943
0.999954
0.999964
0.999973
0.99998
0.999986
0.99999
0.999993
0.999995
0.999997
0.999998
0.999999
0.999999
0.999999
1
1
1.03471
1.03914
1.04242
1.04428
1.04461
1.04346
1.04099
1.03745
1.03311
1.02825
1.02312
1.01796
1.01295
1.00825
1.00398
1.00022
0.997061
0.994556
0.992753
0.991688
0.991385
0.991862
0.993127
0.995176
0.997995
1.00156
1.00581
1.01069
1.01609
1.02183
1.02767
1.03329
1.03828
1.04217
1.04456
1.04518
1.04396
1.0411
1.03697
1.03206
1.02686
1.02178
1.01714
1.0131
1.00973
1.00703
1.00493
1.00335
1.00219
1.00137
1.00081
1.00043
1.00019
1.00005
0.999971
0.999932
0.999918
0.999919
0.999927
0.999938
0.99995
0.999961
0.99997
0.999978
0.999984
0.999989
0.999992
0.999995
0.999996
0.999998
0.999998
0.999999
0.999999
1
1
1.03799
1.04175
1.04402
1.04461
1.04355
1.04097
1.03715
1.03237
1.02694
1.02115
1.01526
1.00946
1.00392
0.998783
0.994144
0.990088
0.986682
0.983984
0.982039
0.980888
0.980555
0.981062
0.982411
0.9846
0.987617
0.991436
0.99602
1.00131
1.00722
1.01361
1.02028
1.02695
1.0332
1.03858
1.04257
1.04478
1.04499
1.04325
1.03986
1.03529
1.0301
1.02479
1.01977
1.01528
1.01147
1.00837
1.00593
1.00407
1.0027
1.00171
1.00103
1.00058
1.00028
1.0001
0.999997
0.999943
0.999921
0.999917
0.999924
0.999934
0.999946
0.999958
0.999968
0.999976
0.999983
0.999988
0.999991
0.999994
0.999996
0.999997
0.999998
0.999999
0.999999
1
1
1.0407
1.04352
1.04456
1.04377
1.04128
1.03733
1.03225
1.02636
1.02
1.01343
1.00688
1.00053
0.994538
0.988994
0.983998
0.979625
0.975944
0.973019
0.970906
0.969653
0.96929
0.969834
0.971289
0.973644
0.976878
0.980965
0.985869
0.991539
0.997903
1.00485
1.01222
1.01977
1.02713
1.03385
1.03937
1.0432
1.04497
1.04456
1.04215
1.03817
1.03319
1.0278
1.02248
1.01759
1.01335
1.00984
1.00704
1.00488
1.00327
1.00211
1.0013
1.00075
1.00039
1.00016
1.00003
0.99996
0.999927
0.999918
0.999921
0.999931
0.999943
0.999955
0.999965
0.999974
0.999981
0.999986
0.999991
0.999994
0.999996
0.999997
0.999998
0.999999
0.999999
1
1
1.0427
1.04437
1.04406
1.04185
1.03796
1.03274
1.02654
1.01971
1.01254
1.0053
0.998189
0.99135
0.984899
0.978928
0.973519
0.968756
0.964725
0.961505
0.959175
0.957795
0.957403
0.958015
0.959626
0.962208
0.965725
0.970135
0.975395
0.981458
0.988262
0.995722
1.0037
1.012
1.02032
1.02821
1.03514
1.04054
1.0439
1.04496
1.04374
1.04058
1.03603
1.03071
1.02521
1.01999
1.01535
1.01143
1.00825
1.00578
1.00392
1.00256
1.0016
1.00094
1.00051
1.00024
1.00007
0.999982
0.999937
0.999921
0.999921
0.999929
0.99994
0.999952
0.999962
0.999972
0.999979
0.999985
0.99999
0.999993
0.999995
0.999997
0.999998
0.999999
0.999999
0.999999
1
1.04391
1.04429
1.04258
1.03898
1.03381
1.02745
1.02028
1.01262
1.00477
0.99695
0.989307
0.981963
0.975003
0.968509
0.962571
0.957289
0.952781
0.949163
0.946541
0.945001
0.944593
0.945329
0.947184
0.950106
0.954025
0.958871
0.96458
0.971096
0.978365
0.986322
0.994865
1.00383
1.01297
1.02188
1.03008
1.03693
1.04187
1.04447
1.04459
1.04244
1.03851
1.03345
1.0279
1.02243
1.01743
1.01311
1.00956
1.00676
1.00463
1.00306
1.00194
1.00117
1.00066
1.00033
1.00013
1.00001
0.999951
0.999927
0.999922
0.999927
0.999938
0.999949
0.99996
0.99997
0.999978
0.999984
0.999989
0.999992
0.999995
0.999997
0.999998
0.999998
0.999999
0.999999
1
1.0443
1.04334
1.04026
1.03536
1.02903
1.02167
1.01365
1.0053
0.996841
0.988463
0.980273
0.972348
0.964753
0.957573
0.950915
0.944921
0.939756
0.935591
0.932578
0.930837
0.930433
0.931374
0.93361
0.937043
0.941556
0.947024
0.953345
0.960437
0.968249
0.976732
0.985819
0.995393
1.00525
1.01507
1.02437
1.03256
1.039
1.04314
1.04469
1.0437
1.04058
1.03594
1.03048
1.02486
1.01956
1.01487
1.01096
1.00782
1.00541
1.00361
1.00232
1.00143
1.00082
1.00043
1.00019
1.00005
0.99997
0.999935
0.999925
0.999928
0.999937
0.999948
0.999959
0.999968
0.999977
0.999983
0.999988
0.999992
0.999994
0.999996
0.999998
0.999998
0.999999
0.999999
1
1.04393
1.04163
1.03725
1.03117
1.02382
1.01559
1.00685
0.997863
0.988835
0.979881
0.971058
0.962407
0.953977
0.945867
0.938223
0.93125
0.925184
0.920271
0.916731
0.914727
0.914349
0.915602
0.918401
0.92259
0.927971
0.934344
0.94153
0.949409
0.957911
0.967004
0.976658
0.98681
0.997317
1.00792
1.0182
1.02758
1.03541
1.04105
1.04406
1.04435
1.04218
1.03812
1.03289
1.02723
1.02169
1.01668
1.01241
1.00894
1.00624
1.00422
1.00274
1.00171
1.00101
1.00055
1.00026
1.00009
0.999993
0.999946
0.999929
0.999929
0.999936
0.999946
0.999957
0.999967
0.999975
0.999982
0.999987
0.999991
0.999994
0.999996
0.999997
0.999998
0.999999
0.999999
1
1.04286
1.03928
1.03371
1.02658
1.01833
1.00936
0.999971
0.990405
0.980793
0.971182
0.961577
0.95198
0.942435
0.933068
0.924086
0.915785
0.908496
0.902566
0.898306
0.895947
0.895613
0.897306
0.900899
0.906159
0.912782
0.920448
0.928871
0.937852
0.947286
0.957147
0.967445
0.978183
0.989291
1.00058
1.01171
1.02216
1.03126
1.03832
1.04278
1.04439
1.04328
1.03994
1.03509
1.02948
1.02379
1.01851
1.01391
1.01012
1.00713
1.00486
1.0032
1.00202
1.00121
1.00068
1.00034
1.00014
1.00002
0.999961
0.999936
0.999931
0.999936
0.999946
0.999956
0.999966
0.999975
0.999981
0.999987
0.999991
0.999994
0.999996
0.999997
0.999998
0.999999
0.999999
1
1.04123
1.03645
1.02981
1.02175
1.01273
1.00309
0.993116
0.98297
0.972709
0.962306
0.951703
0.940863
0.929835
0.918793
0.908032
0.897956
0.889033
0.881743
0.876513
0.873666
0.873378
0.875654
0.88032
0.887039
0.89537
0.904832
0.914986
0.925511
0.93623
0.947111
0.958204
0.969586
0.98128
0.993194
1.00507
1.01644
1.02668
1.03505
1.04092
1.04387
1.04391
1.0414
1.03703
1.0316
1.02583
1.02032
1.01543
1.01132
1.00805
1.00553
1.00368
1.00235
1.00143
1.00082
1.00043
1.00019
1.00005
0.99998
0.999946
0.999936
0.999938
0.999946
0.999956
0.999965
0.999974
0.999981
0.999986
0.99999
0.999993
0.999996
0.999997
0.999998
0.999999
0.999999
1
1.03914
1.03327
1.02567
1.01681
1.0071
0.996874
0.986335
0.975571
0.964553
0.953165
0.941279
0.928822
0.915864
0.902637
0.889552
0.877163
0.866108
0.857038
0.850534
0.847036
0.846787
0.849801
0.855848
0.864476
0.875066
0.88693
0.899421
0.912046
0.924522
0.936779
0.948905
0.961056
0.973368
0.985861
0.998384
1.01056
1.0218
1.03138
1.03857
1.04285
1.04406
1.04247
1.03869
1.03353
1.02778
1.0221
1.01694
1.01255
1.00899
1.00624
1.00418
1.0027
1.00167
1.00098
1.00053
1.00025
1.00009
1
0.999958
0.999942
0.999941
0.999947
0.999956
0.999965
0.999974
0.99998
0.999986
0.99999
0.999993
0.999995
0.999997
0.999998
0.999999
0.999999
0.999999
1.03671
1.02987
1.02142
1.01186
1.00155
0.990774
0.979659
0.968201
0.956271
0.943654
0.930142
0.915628
0.900207
0.884198
0.86816
0.852841
0.839091
0.827779
0.819672
0.815348
0.81513
0.819042
0.826799
0.837814
0.851262
0.866202
0.881724
0.897106
0.911909
0.925995
0.939473
0.952591
0.965605
0.978675
0.991778
1.00465
1.01677
1.02742
1.03584
1.0414
1.0438
1.04317
1.04007
1.03526
1.0296
1.02382
1.01844
1.01378
1.00995
1.00696
1.00471
1.00307
1.00193
1.00115
1.00064
1.00032
1.00013
1.00003
0.999972
0.99995
0.999945
0.999949
0.999957
0.999965
0.999973
0.99998
0.999986
0.99999
0.999993
0.999995
0.999997
0.999998
0.999999
0.999999
0.999999
1.03406
1.02635
1.01717
1.00699
0.996141
0.984829
0.973098
0.960839
0.947806
0.933673
0.918141
0.901072
0.882594
0.863145
0.843474
0.824571
0.807554
0.793545
0.783525
0.778217
0.778026
0.782994
0.792776
0.806643
0.823543
0.842246
0.861529
0.880381
0.898151
0.914594
0.929816
0.944156
0.958009
0.971693
0.985339
0.998811
1.01168
1.02329
1.03283
1.03959
1.04316
1.04353
1.04115
1.03678
1.03128
1.02545
1.01989
1.01499
1.01092
1.00769
1.00524
1.00345
1.00219
1.00133
1.00076
1.0004
1.00018
1.00005
0.999989
0.999959
0.99995
0.999952
0.999958
0.999966
0.999974
0.99998
0.999986
0.99999
0.999993
0.999995
0.999997
0.999998
0.999999
0.999999
0.999999
1.03129
1.0228
1.01298
1.00226
0.990917
0.979068
0.966658
0.953464
0.939111
0.923147
0.905174
0.885017
0.86286
0.839295
0.815313
0.792203
0.771402
0.754316
0.742136
0.735729
0.735575
0.741733
0.753809
0.770932
0.791812
0.814905
0.838639
0.861667
0.883069
0.902438
0.919849
0.935715
0.950585
0.964957
0.979136
0.993139
1.00666
1.01909
1.02963
1.03752
1.0422
1.04357
1.04196
1.03807
1.03279
1.02697
1.02128
1.01617
1.01187
1.00842
1.00578
1.00384
1.00246
1.00151
1.00088
1.00048
1.00023
1.00009
1.00001
0.999971
0.999957
0.999956
0.99996
0.999967
0.999974
0.999981
0.999986
0.99999
0.999993
0.999995
0.999997
0.999998
0.999999
0.999999
0.999999
1.02848
1.01932
1.00894
0.997735
0.985918
0.97351
0.960343
0.946065
0.930164
0.912047
0.891206
0.867435
0.840997
0.812685
0.783792
0.755964
0.730995
0.71058
0.696106
0.688551
0.688451
0.695889
0.710441
0.731108
0.756365
0.784345
0.813105
0.840931
0.866585
0.889447
0.90951
0.92724
0.943337
0.958495
0.973221
0.987707
1.00178
1.01492
1.02635
1.03526
1.041
1.04334
1.04251
1.03915
1.03415
1.02838
1.0226
1.01731
1.01279
1.00914
1.00632
1.00423
1.00273
1.0017
1.001
1.00056
1.00028
1.00012
1.00003
0.999983
0.999965
0.99996
0.999963
0.999969
0.999975
0.999981
0.999986
0.99999
0.999993
0.999995
0.999997
0.999998
0.999999
0.999999
0.999999
1.0257
1.01596
1.00509
0.993447
0.98117
0.968176
0.954162
0.93865
0.920978
0.900404
0.876305
0.84845
0.817211
0.783638
0.749387
0.716515
0.687188
0.663374
0.646603
0.637912
0.637877
0.646617
0.663707
0.688056
0.717918
0.751099
0.785279
0.818364
0.848775
0.875629
0.898784
0.918718
0.936268
0.952334
0.967639
0.982573
0.99712
1.01086
1.02307
1.03289
1.03962
1.04289
1.04283
1.04003
1.03533
1.02966
1.02382
1.01838
1.01368
1.00983
1.00684
1.00461
1.003
1.00188
1.00113
1.00064
1.00034
1.00015
1.00005
0.999998
0.999974
0.999966
0.999967
0.999971
0.999977
0.999982
0.999987
0.999991
0.999994
0.999996
0.999997
0.999998
0.999999
0.999999
0.999999
1.02302
1.01278
1.00148
0.989432
0.976702
0.963086
0.948145
0.931255
0.911615
0.888333
0.860664
0.828364
0.791953
0.752786
0.712948
0.674943
0.641306
0.614215
0.595272
0.585507
0.585516
0.595478
0.615022
0.643014
0.677517
0.716016
0.755806
0.794409
0.8299
0.861111
0.887722
0.910171
0.929397
0.946495
0.962423
0.977788
0.992743
1.00699
1.01986
1.03049
1.03811
1.04226
1.04296
1.04071
1.03634
1.03081
1.02494
1.01938
1.01451
1.0105
1.00735
1.00498
1.00327
1.00207
1.00126
1.00073
1.00039
1.00019
1.00008
1.00001
0.999984
0.999972
0.999971
0.999974
0.999979
0.999983
0.999988
0.999991
0.999994
0.999996
0.999997
0.999998
0.999999
0.999999
0.999999
1.0205
1.00983
0.998143
0.985716
0.972538
0.958273
0.942333
0.923952
0.902196