/*--------------------------------*- C++ -*----------------------------------*\
  =========                 |
  \\      /  F ield         | OpenFOAM: The Open Source CFD Toolbox
   \\    /   O peration     | Website:  https://openfoam.org
    \\  /    A nd           | Version:  6
     \\/     M anipulation  |
\*---------------------------------------------------------------------------*/
FoamFile
{
    version     2.0;
    format      ascii;
    class       volVectorField;
    location    "2.99";
    object      U;
}
// * * * * * * * * * * * * * * * * * * * * * * * * * * * * * * * * * * * * * //

dimensions      [0 1 -1 0 0 0 0];

internalField   nonuniform List<vector> 
5625
(
(0.894401 0.447197 0)
(0.894402 0.447196 0)
(0.894402 0.447195 0)
(0.894402 0.447195 0)
(0.894402 0.447194 0)
(0.894402 0.447193 0)
(0.894402 0.447192 0)
(0.894401 0.447191 0)
(0.894401 0.447191 0)
(0.894401 0.44719 0)
(0.8944 0.44719 0)
(0.8944 0.44719 0)
(0.894399 0.447191 0)
(0.894398 0.447192 0)
(0.894397 0.447192 0)
(0.894397 0.447194 0)
(0.894396 0.447195 0)
(0.894396 0.447197 0)
(0.894396 0.447199 0)
(0.894396 0.4472 0)
(0.894396 0.447202 0)
(0.894396 0.447204 0)
(0.894396 0.447206 0)
(0.894397 0.447207 0)
(0.894397 0.447208 0)
(0.894398 0.447209 0)
(0.894399 0.44721 0)
(0.894399 0.44721 0)
(0.8944 0.447211 0)
(0.894401 0.44721 0)
(0.894401 0.44721 0)
(0.894401 0.447209 0)
(0.894402 0.447209 0)
(0.894402 0.447208 0)
(0.894402 0.447207 0)
(0.894402 0.447206 0)
(0.894402 0.447205 0)
(0.894402 0.447204 0)
(0.894402 0.447204 0)
(0.894401 0.447203 0)
(0.894401 0.447202 0)
(0.894401 0.447202 0)
(0.894401 0.447201 0)
(0.894401 0.447201 0)
(0.894401 0.447201 0)
(0.8944 0.447201 0)
(0.8944 0.4472 0)
(0.8944 0.4472 0)
(0.8944 0.4472 0)
(0.8944 0.4472 0)
(0.8944 0.4472 0)
(0.8944 0.4472 0)
(0.8944 0.4472 0)
(0.8944 0.4472 0)
(0.8944 0.4472 0)
(0.8944 0.4472 0)
(0.8944 0.4472 0)
(0.8944 0.4472 0)
(0.8944 0.4472 0)
(0.8944 0.4472 0)
(0.8944 0.4472 0)
(0.8944 0.4472 0)
(0.8944 0.4472 0)
(0.8944 0.4472 0)
(0.8944 0.4472 0)
(0.8944 0.4472 0)
(0.8944 0.4472 0)
(0.8944 0.4472 0)
(0.8944 0.4472 0)
(0.8944 0.4472 0)
(0.8944 0.4472 0)
(0.8944 0.4472 0)
(0.8944 0.4472 0)
(0.8944 0.4472 0)
(0.8944 0.4472 0)
(0.894402 0.447196 0)
(0.894403 0.447195 0)
(0.894403 0.447194 0)
(0.894403 0.447193 0)
(0.894403 0.447192 0)
(0.894403 0.447191 0)
(0.894403 0.44719 0)
(0.894402 0.447189 0)
(0.894402 0.447188 0)
(0.894401 0.447188 0)
(0.8944 0.447187 0)
(0.894399 0.447188 0)
(0.894398 0.447188 0)
(0.894397 0.447189 0)
(0.894397 0.44719 0)
(0.894396 0.447192 0)
(0.894395 0.447194 0)
(0.894394 0.447196 0)
(0.894394 0.447199 0)
(0.894394 0.447201 0)
(0.894394 0.447204 0)
(0.894394 0.447206 0)
(0.894395 0.447208 0)
(0.894396 0.44721 0)
(0.894396 0.447211 0)
(0.894397 0.447213 0)
(0.894398 0.447213 0)
(0.894399 0.447214 0)
(0.8944 0.447214 0)
(0.894401 0.447214 0)
(0.894401 0.447213 0)
(0.894402 0.447212 0)
(0.894402 0.447212 0)
(0.894403 0.447211 0)
(0.894403 0.447209 0)
(0.894403 0.447208 0)
(0.894403 0.447207 0)
(0.894403 0.447206 0)
(0.894402 0.447205 0)
(0.894402 0.447204 0)
(0.894402 0.447203 0)
(0.894402 0.447202 0)
(0.894401 0.447202 0)
(0.894401 0.447201 0)
(0.894401 0.447201 0)
(0.894401 0.447201 0)
(0.8944 0.4472 0)
(0.8944 0.4472 0)
(0.8944 0.4472 0)
(0.8944 0.4472 0)
(0.8944 0.4472 0)
(0.8944 0.4472 0)
(0.8944 0.4472 0)
(0.8944 0.4472 0)
(0.8944 0.4472 0)
(0.8944 0.4472 0)
(0.8944 0.4472 0)
(0.8944 0.4472 0)
(0.8944 0.4472 0)
(0.8944 0.4472 0)
(0.8944 0.4472 0)
(0.8944 0.4472 0)
(0.8944 0.4472 0)
(0.8944 0.4472 0)
(0.8944 0.4472 0)
(0.8944 0.4472 0)
(0.8944 0.4472 0)
(0.8944 0.4472 0)
(0.8944 0.4472 0)
(0.8944 0.4472 0)
(0.8944 0.4472 0)
(0.8944 0.4472 0)
(0.8944 0.4472 0)
(0.8944 0.4472 0)
(0.8944 0.4472 0)
(0.894403 0.447195 0)
(0.894403 0.447193 0)
(0.894404 0.447192 0)
(0.894404 0.447191 0)
(0.894404 0.447189 0)
(0.894404 0.447188 0)
(0.894403 0.447187 0)
(0.894403 0.447185 0)
(0.894402 0.447185 0)
(0.894401 0.447184 0)
(0.8944 0.447184 0)
(0.894399 0.447184 0)
(0.894398 0.447185 0)
(0.894396 0.447186 0)
(0.894395 0.447188 0)
(0.894394 0.44719 0)
(0.894393 0.447193 0)
(0.894393 0.447196 0)
(0.894392 0.447199 0)
(0.894392 0.447202 0)
(0.894392 0.447205 0)
(0.894393 0.447209 0)
(0.894393 0.447211 0)
(0.894394 0.447214 0)
(0.894395 0.447216 0)
(0.894396 0.447217 0)
(0.894398 0.447218 0)
(0.894399 0.447219 0)
(0.8944 0.447219 0)
(0.894401 0.447218 0)
(0.894402 0.447218 0)
(0.894403 0.447217 0)
(0.894403 0.447215 0)
(0.894404 0.447214 0)
(0.894404 0.447212 0)
(0.894404 0.447211 0)
(0.894404 0.447209 0)
(0.894403 0.447208 0)
(0.894403 0.447206 0)
(0.894403 0.447205 0)
(0.894402 0.447204 0)
(0.894402 0.447203 0)
(0.894402 0.447203 0)
(0.894401 0.447202 0)
(0.894401 0.447201 0)
(0.894401 0.447201 0)
(0.894401 0.447201 0)
(0.8944 0.4472 0)
(0.8944 0.4472 0)
(0.8944 0.4472 0)
(0.8944 0.4472 0)
(0.8944 0.4472 0)
(0.8944 0.4472 0)
(0.8944 0.4472 0)
(0.8944 0.4472 0)
(0.8944 0.4472 0)
(0.8944 0.4472 0)
(0.8944 0.4472 0)
(0.8944 0.4472 0)
(0.8944 0.4472 0)
(0.8944 0.4472 0)
(0.8944 0.4472 0)
(0.8944 0.4472 0)
(0.8944 0.4472 0)
(0.8944 0.4472 0)
(0.8944 0.4472 0)
(0.8944 0.4472 0)
(0.8944 0.4472 0)
(0.8944 0.4472 0)
(0.8944 0.4472 0)
(0.8944 0.4472 0)
(0.8944 0.4472 0)
(0.8944 0.4472 0)
(0.8944 0.4472 0)
(0.8944 0.4472 0)
(0.894404 0.447193 0)
(0.894404 0.447192 0)
(0.894405 0.44719 0)
(0.894405 0.447188 0)
(0.894405 0.447186 0)
(0.894405 0.447184 0)
(0.894404 0.447183 0)
(0.894404 0.447181 0)
(0.894403 0.44718 0)
(0.894401 0.44718 0)
(0.8944 0.44718 0)
(0.894398 0.44718 0)
(0.894397 0.447181 0)
(0.894395 0.447183 0)
(0.894393 0.447186 0)
(0.894392 0.447189 0)
(0.894391 0.447192 0)
(0.89439 0.447196 0)
(0.894389 0.4472 0)
(0.894389 0.447204 0)
(0.894389 0.447208 0)
(0.89439 0.447212 0)
(0.894391 0.447216 0)
(0.894392 0.447219 0)
(0.894394 0.447222 0)
(0.894395 0.447223 0)
(0.894397 0.447225 0)
(0.894399 0.447225 0)
(0.8944 0.447225 0)
(0.894402 0.447224 0)
(0.894403 0.447223 0)
(0.894404 0.447222 0)
(0.894404 0.44722 0)
(0.894405 0.447218 0)
(0.894405 0.447216 0)
(0.894405 0.447214 0)
(0.894405 0.447212 0)
(0.894405 0.44721 0)
(0.894404 0.447208 0)
(0.894404 0.447207 0)
(0.894403 0.447205 0)
(0.894403 0.447204 0)
(0.894402 0.447203 0)
(0.894402 0.447202 0)
(0.894401 0.447202 0)
(0.894401 0.447201 0)
(0.894401 0.447201 0)
(0.894401 0.447201 0)
(0.8944 0.4472 0)
(0.8944 0.4472 0)
(0.8944 0.4472 0)
(0.8944 0.4472 0)
(0.8944 0.4472 0)
(0.8944 0.4472 0)
(0.8944 0.4472 0)
(0.8944 0.4472 0)
(0.8944 0.4472 0)
(0.8944 0.4472 0)
(0.8944 0.4472 0)
(0.8944 0.4472 0)
(0.8944 0.4472 0)
(0.8944 0.4472 0)
(0.8944 0.4472 0)
(0.8944 0.4472 0)
(0.8944 0.4472 0)
(0.8944 0.4472 0)
(0.8944 0.4472 0)
(0.8944 0.4472 0)
(0.8944 0.4472 0)
(0.8944 0.4472 0)
(0.8944 0.4472 0)
(0.8944 0.4472 0)
(0.8944 0.4472 0)
(0.8944 0.4472 0)
(0.8944 0.4472 0)
(0.894405 0.447191 0)
(0.894406 0.447189 0)
(0.894406 0.447187 0)
(0.894406 0.447185 0)
(0.894406 0.447183 0)
(0.894406 0.44718 0)
(0.894405 0.447178 0)
(0.894404 0.447177 0)
(0.894403 0.447176 0)
(0.894402 0.447175 0)
(0.8944 0.447175 0)
(0.894397 0.447176 0)
(0.894395 0.447178 0)
(0.894393 0.44718 0)
(0.894391 0.447184 0)
(0.894389 0.447188 0)
(0.894387 0.447192 0)
(0.894386 0.447197 0)
(0.894385 0.447203 0)
(0.894385 0.447208 0)
(0.894386 0.447213 0)
(0.894387 0.447218 0)
(0.894388 0.447223 0)
(0.894389 0.447226 0)
(0.894391 0.447229 0)
(0.894394 0.447231 0)
(0.894396 0.447233 0)
(0.894398 0.447233 0)
(0.8944 0.447233 0)
(0.894402 0.447232 0)
(0.894404 0.447231 0)
(0.894405 0.447229 0)
(0.894406 0.447226 0)
(0.894406 0.447224 0)
(0.894407 0.447221 0)
(0.894407 0.447218 0)
(0.894407 0.447216 0)
(0.894406 0.447213 0)
(0.894406 0.447211 0)
(0.894405 0.447209 0)
(0.894404 0.447207 0)
(0.894404 0.447205 0)
(0.894403 0.447204 0)
(0.894402 0.447203 0)
(0.894402 0.447202 0)
(0.894402 0.447202 0)
(0.894401 0.447201 0)
(0.894401 0.447201 0)
(0.894401 0.4472 0)
(0.8944 0.4472 0)
(0.8944 0.4472 0)
(0.8944 0.4472 0)
(0.8944 0.4472 0)
(0.8944 0.4472 0)
(0.8944 0.4472 0)
(0.8944 0.4472 0)
(0.8944 0.4472 0)
(0.8944 0.4472 0)
(0.8944 0.4472 0)
(0.8944 0.4472 0)
(0.8944 0.4472 0)
(0.8944 0.4472 0)
(0.8944 0.4472 0)
(0.8944 0.4472 0)
(0.8944 0.4472 0)
(0.8944 0.4472 0)
(0.8944 0.4472 0)
(0.8944 0.4472 0)
(0.8944 0.4472 0)
(0.8944 0.4472 0)
(0.8944 0.4472 0)
(0.8944 0.4472 0)
(0.8944 0.4472 0)
(0.8944 0.4472 0)
(0.8944 0.4472 0)
(0.894407 0.447189 0)
(0.894407 0.447187 0)
(0.894408 0.447184 0)
(0.894408 0.447181 0)
(0.894408 0.447178 0)
(0.894408 0.447176 0)
(0.894407 0.447173 0)
(0.894405 0.447171 0)
(0.894404 0.44717 0)
(0.894402 0.44717 0)
(0.894399 0.44717 0)
(0.894396 0.447172 0)
(0.894393 0.447174 0)
(0.89439 0.447178 0)
(0.894387 0.447183 0)
(0.894385 0.447188 0)
(0.894383 0.447194 0)
(0.894381 0.447201 0)
(0.89438 0.447207 0)
(0.89438 0.447214 0)
(0.894381 0.447221 0)
(0.894382 0.447227 0)
(0.894384 0.447233 0)
(0.894386 0.447237 0)
(0.894389 0.44724 0)
(0.894392 0.447243 0)
(0.894395 0.447244 0)
(0.894398 0.447245 0)
(0.8944 0.447244 0)
(0.894403 0.447243 0)
(0.894405 0.447241 0)
(0.894407 0.447238 0)
(0.894408 0.447234 0)
(0.894409 0.447231 0)
(0.894409 0.447227 0)
(0.894409 0.447224 0)
(0.894409 0.44722 0)
(0.894408 0.447217 0)
(0.894408 0.447214 0)
(0.894407 0.447211 0)
(0.894406 0.447209 0)
(0.894405 0.447207 0)
(0.894404 0.447205 0)
(0.894403 0.447204 0)
(0.894403 0.447203 0)
(0.894402 0.447202 0)
(0.894402 0.447201 0)
(0.894401 0.447201 0)
(0.894401 0.447201 0)
(0.894401 0.4472 0)
(0.8944 0.4472 0)
(0.8944 0.4472 0)
(0.8944 0.4472 0)
(0.8944 0.4472 0)
(0.8944 0.4472 0)
(0.8944 0.4472 0)
(0.8944 0.4472 0)
(0.8944 0.4472 0)
(0.8944 0.4472 0)
(0.8944 0.4472 0)
(0.8944 0.4472 0)
(0.8944 0.4472 0)
(0.8944 0.4472 0)
(0.8944 0.4472 0)
(0.8944 0.4472 0)
(0.8944 0.4472 0)
(0.8944 0.4472 0)
(0.8944 0.4472 0)
(0.8944 0.4472 0)
(0.8944 0.4472 0)
(0.8944 0.4472 0)
(0.8944 0.4472 0)
(0.8944 0.4472 0)
(0.8944 0.4472 0)
(0.8944 0.4472 0)
(0.894409 0.447186 0)
(0.89441 0.447183 0)
(0.89441 0.44718 0)
(0.894411 0.447177 0)
(0.89441 0.447173 0)
(0.89441 0.44717 0)
(0.894408 0.447168 0)
(0.894406 0.447166 0)
(0.894404 0.447165 0)
(0.894401 0.447165 0)
(0.894397 0.447166 0)
(0.894393 0.447169 0)
(0.894389 0.447172 0)
(0.894385 0.447178 0)
(0.894382 0.447184 0)
(0.894379 0.447191 0)
(0.894376 0.447199 0)
(0.894375 0.447208 0)
(0.894374 0.447216 0)
(0.894374 0.447225 0)
(0.894374 0.447233 0)
(0.894376 0.447241 0)
(0.894379 0.447247 0)
(0.894382 0.447252 0)
(0.894386 0.447256 0)
(0.89439 0.447259 0)
(0.894394 0.44726 0)
(0.894397 0.44726 0)
(0.894401 0.447259 0)
(0.894404 0.447256 0)
(0.894407 0.447253 0)
(0.894409 0.447249 0)
(0.894411 0.447245 0)
(0.894412 0.44724 0)
(0.894412 0.447235 0)
(0.894412 0.44723 0)
(0.894412 0.447226 0)
(0.894411 0.447222 0)
(0.89441 0.447218 0)
(0.894409 0.447214 0)
(0.894408 0.447211 0)
(0.894406 0.447209 0)
(0.894405 0.447207 0)
(0.894404 0.447205 0)
(0.894403 0.447203 0)
(0.894403 0.447202 0)
(0.894402 0.447202 0)
(0.894401 0.447201 0)
(0.894401 0.447201 0)
(0.894401 0.4472 0)
(0.8944 0.4472 0)
(0.8944 0.4472 0)
(0.8944 0.4472 0)
(0.8944 0.4472 0)
(0.8944 0.4472 0)
(0.8944 0.4472 0)
(0.8944 0.4472 0)
(0.8944 0.4472 0)
(0.8944 0.4472 0)
(0.8944 0.4472 0)
(0.8944 0.4472 0)
(0.8944 0.4472 0)
(0.8944 0.4472 0)
(0.8944 0.4472 0)
(0.8944 0.4472 0)
(0.8944 0.4472 0)
(0.8944 0.4472 0)
(0.8944 0.4472 0)
(0.8944 0.4472 0)
(0.8944 0.4472 0)
(0.8944 0.4472 0)
(0.8944 0.4472 0)
(0.8944 0.4472 0)
(0.8944 0.4472 0)
(0.8944 0.4472 0)
(0.894411 0.447184 0)
(0.894412 0.44718 0)
(0.894413 0.447176 0)
(0.894413 0.447172 0)
(0.894413 0.447168 0)
(0.894412 0.447165 0)
(0.89441 0.447162 0)
(0.894407 0.44716 0)
(0.894403 0.44716 0)
(0.894399 0.447161 0)
(0.894395 0.447163 0)
(0.89439 0.447167 0)
(0.894384 0.447173 0)
(0.894379 0.44718 0)
(0.894375 0.447189 0)
(0.894371 0.447199 0)
(0.894368 0.44721 0)
(0.894366 0.447221 0)
(0.894365 0.447232 0)
(0.894365 0.447243 0)
(0.894366 0.447252 0)
(0.894369 0.447261 0)
(0.894373 0.447269 0)
(0.894377 0.447275 0)
(0.894382 0.447279 0)
(0.894387 0.447281 0)
(0.894392 0.447282 0)
(0.894397 0.447281 0)
(0.894402 0.447279 0)
(0.894406 0.447275 0)
(0.894409 0.44727 0)
(0.894412 0.447264 0)
(0.894414 0.447258 0)
(0.894415 0.447252 0)
(0.894416 0.447245 0)
(0.894416 0.447239 0)
(0.894415 0.447233 0)
(0.894414 0.447227 0)
(0.894413 0.447222 0)
(0.894411 0.447218 0)
(0.89441 0.447214 0)
(0.894408 0.447211 0)
(0.894407 0.447208 0)
(0.894406 0.447206 0)
(0.894404 0.447204 0)
(0.894403 0.447203 0)
(0.894402 0.447202 0)
(0.894402 0.447201 0)
(0.894401 0.447201 0)
(0.894401 0.4472 0)
(0.894401 0.4472 0)
(0.8944 0.4472 0)
(0.8944 0.4472 0)
(0.8944 0.4472 0)
(0.8944 0.4472 0)
(0.8944 0.4472 0)
(0.8944 0.4472 0)
(0.8944 0.4472 0)
(0.8944 0.4472 0)
(0.8944 0.4472 0)
(0.8944 0.4472 0)
(0.8944 0.4472 0)
(0.8944 0.4472 0)
(0.8944 0.4472 0)
(0.8944 0.4472 0)
(0.8944 0.4472 0)
(0.8944 0.4472 0)
(0.8944 0.4472 0)
(0.8944 0.4472 0)
(0.8944 0.4472 0)
(0.8944 0.4472 0)
(0.8944 0.4472 0)
(0.8944 0.4472 0)
(0.8944 0.4472 0)
(0.8944 0.4472 0)
(0.894414 0.447181 0)
(0.894415 0.447176 0)
(0.894416 0.447172 0)
(0.894416 0.447167 0)
(0.894415 0.447163 0)
(0.894413 0.447159 0)
(0.894411 0.447157 0)
(0.894407 0.447156 0)
(0.894402 0.447157 0)
(0.894396 0.447159 0)
(0.89439 0.447163 0)
(0.894384 0.44717 0)
(0.894377 0.447179 0)
(0.89437 0.447189 0)
(0.894365 0.447201 0)
(0.89436 0.447215 0)
(0.894356 0.447229 0)
(0.894354 0.447243 0)
(0.894353 0.447257 0)
(0.894354 0.447271 0)
(0.894356 0.447283 0)
(0.89436 0.447293 0)
(0.894365 0.447302 0)
(0.894371 0.447308 0)
(0.894377 0.447312 0)
(0.894384 0.447313 0)
(0.894391 0.447313 0)
(0.894397 0.44731 0)
(0.894403 0.447306 0)
(0.894409 0.4473 0)
(0.894413 0.447293 0)
(0.894416 0.447285 0)
(0.894419 0.447276 0)
(0.89442 0.447267 0)
(0.894421 0.447259 0)
(0.894421 0.44725 0)
(0.89442 0.447242 0)
(0.894419 0.447235 0)
(0.894417 0.447228 0)
(0.894415 0.447222 0)
(0.894413 0.447217 0)
(0.894411 0.447213 0)
(0.894409 0.44721 0)
(0.894407 0.447207 0)
(0.894406 0.447205 0)
(0.894404 0.447203 0)
(0.894403 0.447202 0)
(0.894402 0.447201 0)
(0.894402 0.447201 0)
(0.894401 0.4472 0)
(0.894401 0.4472 0)
(0.8944 0.4472 0)
(0.8944 0.4472 0)
(0.8944 0.4472 0)
(0.8944 0.4472 0)
(0.8944 0.4472 0)
(0.8944 0.4472 0)
(0.8944 0.4472 0)
(0.8944 0.4472 0)
(0.8944 0.4472 0)
(0.8944 0.4472 0)
(0.8944 0.4472 0)
(0.8944 0.4472 0)
(0.8944 0.4472 0)
(0.8944 0.4472 0)
(0.8944 0.4472 0)
(0.8944 0.4472 0)
(0.8944 0.4472 0)
(0.8944 0.4472 0)
(0.8944 0.4472 0)
(0.8944 0.4472 0)
(0.8944 0.4472 0)
(0.8944 0.4472 0)
(0.8944 0.4472 0)
(0.8944 0.4472 0)
(0.894417 0.447177 0)
(0.894419 0.447172 0)
(0.894419 0.447167 0)
(0.894419 0.447163 0)
(0.894417 0.447159 0)
(0.894415 0.447155 0)
(0.894411 0.447154 0)
(0.894406 0.447155 0)
(0.894399 0.447157 0)
(0.894391 0.447162 0)
(0.894383 0.44717 0)
(0.894374 0.44718 0)
(0.894366 0.447193 0)
(0.894358 0.447208 0)
(0.89435 0.447225 0)
(0.894344 0.447244 0)
(0.89434 0.447262 0)
(0.894338 0.447281 0)
(0.894337 0.447299 0)
(0.894339 0.447315 0)
(0.894343 0.44733 0)
(0.894348 0.447342 0)
(0.894355 0.447351 0)
(0.894363 0.447357 0)
(0.894372 0.44736 0)
(0.894381 0.447359 0)
(0.89439 0.447356 0)
(0.894398 0.447351 0)
(0.894406 0.447343 0)
(0.894413 0.447334 0)
(0.894418 0.447323 0)
(0.894422 0.447311 0)
(0.894425 0.447299 0)
(0.894427 0.447287 0)
(0.894428 0.447275 0)
(0.894427 0.447264 0)
(0.894426 0.447254 0)
(0.894424 0.447244 0)
(0.894422 0.447235 0)
(0.894419 0.447228 0)
(0.894416 0.447222 0)
(0.894414 0.447216 0)
(0.894412 0.447212 0)
(0.894409 0.447209 0)
(0.894407 0.447206 0)
(0.894406 0.447204 0)
(0.894404 0.447202 0)
(0.894403 0.447201 0)
(0.894402 0.447201 0)
(0.894401 0.4472 0)
(0.894401 0.4472 0)
(0.894401 0.4472 0)
(0.8944 0.4472 0)
(0.8944 0.4472 0)
(0.8944 0.4472 0)
(0.8944 0.4472 0)
(0.8944 0.4472 0)
(0.8944 0.4472 0)
(0.8944 0.4472 0)
(0.8944 0.4472 0)
(0.8944 0.4472 0)
(0.8944 0.4472 0)
(0.8944 0.4472 0)
(0.8944 0.4472 0)
(0.8944 0.4472 0)
(0.8944 0.4472 0)
(0.8944 0.4472 0)
(0.8944 0.4472 0)
(0.8944 0.4472 0)
(0.8944 0.4472 0)
(0.8944 0.4472 0)
(0.8944 0.4472 0)
(0.8944 0.4472 0)
(0.8944 0.4472 0)
(0.8944 0.4472 0)
(0.894421 0.447174 0)
(0.894422 0.447169 0)
(0.894422 0.447164 0)
(0.894421 0.447159 0)
(0.894419 0.447156 0)
(0.894415 0.447154 0)
(0.894409 0.447154 0)
(0.894402 0.447157 0)
(0.894393 0.447164 0)
(0.894383 0.447173 0)
(0.894372 0.447185 0)
(0.89436 0.447201 0)
(0.894349 0.447221 0)
(0.894339 0.447242 0)
(0.89433 0.447266 0)
(0.894323 0.447291 0)
(0.894318 0.447317 0)
(0.894316 0.447341 0)
(0.894317 0.447364 0)
(0.89432 0.447384 0)
(0.894326 0.447402 0)
(0.894334 0.447415 0)
(0.894343 0.447424 0)
(0.894355 0.447429 0)
(0.894367 0.44743 0)
(0.894378 0.447426 0)
(0.89439 0.447419 0)
(0.894401 0.447409 0)
(0.894411 0.447396 0)
(0.894419 0.447381 0)
(0.894426 0.447365 0)
(0.894431 0.447348 0)
(0.894434 0.447331 0)
(0.894436 0.447314 0)
(0.894436 0.447298 0)
(0.894436 0.447282 0)
(0.894434 0.447269 0)
(0.894431 0.447256 0)
(0.894428 0.447245 0)
(0.894425 0.447235 0)
(0.894421 0.447227 0)
(0.894418 0.44722 0)
(0.894415 0.447215 0)
(0.894412 0.44721 0)
(0.894409 0.447207 0)
(0.894407 0.447204 0)
(0.894405 0.447203 0)
(0.894404 0.447201 0)
(0.894402 0.4472 0)
(0.894402 0.4472 0)
(0.894401 0.4472 0)
(0.894401 0.447199 0)
(0.8944 0.447199 0)
(0.8944 0.447199 0)
(0.8944 0.447199 0)
(0.8944 0.4472 0)
(0.8944 0.4472 0)
(0.8944 0.4472 0)
(0.8944 0.4472 0)
(0.8944 0.4472 0)
(0.8944 0.4472 0)
(0.8944 0.4472 0)
(0.8944 0.4472 0)
(0.8944 0.4472 0)
(0.8944 0.4472 0)
(0.8944 0.4472 0)
(0.8944 0.4472 0)
(0.8944 0.4472 0)
(0.8944 0.4472 0)
(0.8944 0.4472 0)
(0.8944 0.4472 0)
(0.8944 0.4472 0)
(0.8944 0.4472 0)
(0.8944 0.4472 0)
(0.8944 0.4472 0)
(0.894424 0.447172 0)
(0.894425 0.447167 0)
(0.894425 0.447162 0)
(0.894423 0.447158 0)
(0.894419 0.447157 0)
(0.894413 0.447157 0)
(0.894404 0.447161 0)
(0.894394 0.447168 0)
(0.894382 0.447181 0)
(0.894368 0.447197 0)
(0.894354 0.447217 0)
(0.894339 0.447241 0)
(0.894325 0.44727 0)
(0.894312 0.447302 0)
(0.894301 0.447335 0)
(0.894293 0.447369 0)
(0.894288 0.447403 0)
(0.894287 0.447435 0)
(0.894289 0.447464 0)
(0.894294 0.447489 0)
(0.894303 0.44751 0)
(0.894315 0.447524 0)
(0.894329 0.447532 0)
(0.894344 0.447535 0)
(0.894361 0.447531 0)
(0.894376 0.447522 0)
(0.894392 0.447508 0)
(0.894406 0.447491 0)
(0.894418 0.44747 0)
(0.894428 0.447447 0)
(0.894437 0.447422 0)
(0.894442 0.447398 0)
(0.894446 0.447373 0)
(0.894448 0.447349 0)
(0.894448 0.447327 0)
(0.894447 0.447306 0)
(0.894444 0.447288 0)
(0.894441 0.447271 0)
(0.894437 0.447256 0)
(0.894432 0.447244 0)
(0.894427 0.447233 0)
(0.894423 0.447225 0)
(0.894419 0.447218 0)
(0.894415 0.447212 0)
(0.894412 0.447208 0)
(0.894409 0.447205 0)
(0.894406 0.447203 0)
(0.894405 0.447201 0)
(0.894403 0.4472 0)
(0.894402 0.447199 0)
(0.894401 0.447199 0)
(0.894401 0.447199 0)
(0.8944 0.447199 0)
(0.8944 0.447199 0)
(0.8944 0.447199 0)
(0.8944 0.447199 0)
(0.8944 0.4472 0)
(0.8944 0.4472 0)
(0.8944 0.4472 0)
(0.8944 0.4472 0)
(0.8944 0.4472 0)
(0.8944 0.4472 0)
(0.8944 0.4472 0)
(0.8944 0.4472 0)
(0.8944 0.4472 0)
(0.8944 0.4472 0)
(0.8944 0.4472 0)
(0.8944 0.4472 0)
(0.8944 0.4472 0)
(0.8944 0.4472 0)
(0.8944 0.4472 0)
(0.8944 0.4472 0)
(0.8944 0.4472 0)
(0.8944 0.4472 0)
(0.8944 0.4472 0)
(0.894428 0.447171 0)
(0.894428 0.447167 0)
(0.894426 0.447164 0)
(0.894423 0.447162 0)
(0.894416 0.447163 0)
(0.894407 0.447168 0)
(0.894395 0.447177 0)
(0.89438 0.447192 0)
(0.894363 0.447213 0)
(0.894345 0.44724 0)
(0.894325 0.447272 0)
(0.894306 0.447309 0)
(0.894288 0.447351 0)
(0.894272 0.447397 0)
(0.894259 0.447444 0)
(0.89425 0.447491 0)
(0.894245 0.447537 0)
(0.894246 0.447579 0)
(0.894251 0.447616 0)
(0.89426 0.447647 0)
(0.894274 0.447671 0)
(0.894291 0.447686 0)
(0.894311 0.447692 0)
(0.894332 0.447689 0)
(0.894354 0.447678 0)
(0.894376 0.447661 0)
(0.894396 0.447636 0)
(0.894414 0.447607 0)
(0.89443 0.447574 0)
(0.894443 0.447539 0)
(0.894452 0.447503 0)
(0.894459 0.447466 0)
(0.894463 0.447431 0)
(0.894465 0.447398 0)
(0.894464 0.447366 0)
(0.894461 0.447338 0)
(0.894457 0.447313 0)
(0.894452 0.44729 0)
(0.894447 0.447271 0)
(0.894441 0.447255 0)
(0.894435 0.447241 0)
(0.894429 0.44723 0)
(0.894424 0.447221 0)
(0.894419 0.447214 0)
(0.894415 0.447209 0)
(0.894411 0.447206 0)
(0.894408 0.447203 0)
(0.894406 0.447201 0)
(0.894404 0.4472 0)
(0.894402 0.447199 0)
(0.894401 0.447199 0)
(0.894401 0.447199 0)
(0.8944 0.447199 0)
(0.8944 0.447199 0)
(0.8944 0.447199 0)
(0.8944 0.447199 0)
(0.8944 0.447199 0)
(0.8944 0.447199 0)
(0.8944 0.4472 0)
(0.8944 0.4472 0)
(0.8944 0.4472 0)
(0.8944 0.4472 0)
(0.8944 0.4472 0)
(0.8944 0.4472 0)
(0.8944 0.4472 0)
(0.8944 0.4472 0)
(0.8944 0.4472 0)
(0.8944 0.4472 0)
(0.8944 0.4472 0)
(0.8944 0.4472 0)
(0.8944 0.4472 0)
(0.8944 0.4472 0)
(0.8944 0.4472 0)
(0.8944 0.4472 0)
(0.8944 0.4472 0)
(0.89443 0.447173 0)
(0.894429 0.447171 0)
(0.894425 0.44717 0)
(0.894419 0.447172 0)
(0.894409 0.447179 0)
(0.894395 0.447191 0)
(0.894377 0.44721 0)
(0.894356 0.447236 0)
(0.894333 0.447271 0)
(0.894308 0.447313 0)
(0.894282 0.447362 0)
(0.894257 0.447417 0)
(0.894233 0.447479 0)
(0.894214 0.447544 0)
(0.894198 0.44761 0)
(0.894188 0.447675 0)
(0.894185 0.447737 0)
(0.894188 0.447793 0)
(0.894198 0.447841 0)
(0.894214 0.447879 0)
(0.894235 0.447906 0)
(0.89426 0.44792 0)
(0.894288 0.447922 0)
(0.894318 0.447912 0)
(0.894348 0.44789 0)
(0.894377 0.447859 0)
(0.894404 0.447819 0)
(0.894427 0.447773 0)
(0.894447 0.447722 0)
(0.894463 0.447669 0)
(0.894475 0.447615 0)
(0.894483 0.447562 0)
(0.894487 0.447511 0)
(0.894488 0.447464 0)
(0.894486 0.44742 0)
(0.894481 0.447381 0)
(0.894475 0.447346 0)
(0.894468 0.447316 0)
(0.89446 0.447291 0)
(0.894452 0.447269 0)
(0.894444 0.447252 0)
(0.894437 0.447237 0)
(0.89443 0.447226 0)
(0.894424 0.447217 0)
(0.894418 0.447211 0)
(0.894414 0.447206 0)
(0.89441 0.447203 0)
(0.894407 0.4472 0)
(0.894404 0.447199 0)
(0.894403 0.447198 0)
(0.894402 0.447198 0)
(0.894401 0.447198 0)
(0.8944 0.447198 0)
(0.8944 0.447198 0)
(0.8944 0.447199 0)
(0.8944 0.447199 0)
(0.8944 0.447199 0)
(0.8944 0.447199 0)
(0.8944 0.447199 0)
(0.8944 0.4472 0)
(0.8944 0.4472 0)
(0.8944 0.4472 0)
(0.8944 0.4472 0)
(0.8944 0.4472 0)
(0.8944 0.4472 0)
(0.8944 0.4472 0)
(0.8944 0.4472 0)
(0.8944 0.4472 0)
(0.8944 0.4472 0)
(0.8944 0.4472 0)
(0.8944 0.4472 0)
(0.8944 0.4472 0)
(0.8944 0.4472 0)
(0.8944 0.4472 0)
(0.8944 0.4472 0)
(0.89443 0.44718 0)
(0.894427 0.44718 0)
(0.89442 0.447184 0)
(0.894409 0.447193 0)
(0.894393 0.44721 0)
(0.894373 0.447233 0)
(0.894347 0.447266 0)
(0.894318 0.44731 0)
(0.894285 0.447364 0)
(0.89425 0.447428 0)
(0.894216 0.447502 0)
(0.894183 0.447584 0)
(0.894153 0.447673 0)
(0.894129 0.447765 0)
(0.894112 0.447858 0)
(0.894102 0.447948 0)
(0.8941 0.448032 0)
(0.894109 0.448106 0)
(0.894126 0.448168 0)
(0.894151 0.448214 0)
(0.894182 0.448244 0)
(0.894219 0.448257 0)
(0.894259 0.448252 0)
(0.894301 0.44823 0)
(0.894342 0.448192 0)
(0.894381 0.44814 0)
(0.894417 0.448077 0)
(0.894448 0.448007 0)
(0.894474 0.44793 0)
(0.894494 0.447851 0)
(0.894508 0.447772 0)
(0.894516 0.447695 0)
(0.89452 0.447622 0)
(0.894519 0.447555 0)
(0.894515 0.447494 0)
(0.894508 0.44744 0)
(0.894499 0.447392 0)
(0.894489 0.447351 0)
(0.894478 0.447317 0)
(0.894467 0.447288 0)
(0.894456 0.447265 0)
(0.894447 0.447246 0)
(0.894437 0.447232 0)
(0.894429 0.447221 0)
(0.894423 0.447212 0)
(0.894417 0.447206 0)
(0.894412 0.447202 0)
(0.894408 0.4472 0)
(0.894405 0.447198 0)
(0.894403 0.447197 0)
(0.894402 0.447197 0)
(0.894401 0.447197 0)
(0.8944 0.447197 0)
(0.8944 0.447198 0)
(0.894399 0.447198 0)
(0.894399 0.447198 0)
(0.894399 0.447199 0)
(0.894399 0.447199 0)
(0.8944 0.447199 0)
(0.8944 0.447199 0)
(0.8944 0.4472 0)
(0.8944 0.4472 0)
(0.8944 0.4472 0)
(0.8944 0.4472 0)
(0.8944 0.4472 0)
(0.8944 0.4472 0)
(0.8944 0.4472 0)
(0.8944 0.4472 0)
(0.8944 0.4472 0)
(0.8944 0.4472 0)
(0.8944 0.4472 0)
(0.8944 0.4472 0)
(0.8944 0.4472 0)
(0.8944 0.4472 0)
(0.8944 0.4472 0)
(0.894427 0.447193 0)
(0.89442 0.447199 0)
(0.894408 0.447211 0)
(0.89439 0.447231 0)
(0.894366 0.447261 0)
(0.894335 0.447302 0)
(0.894298 0.447356 0)
(0.894257 0.447425 0)
(0.894212 0.447507 0)
(0.894165 0.447603 0)
(0.894118 0.447713 0)
(0.894075 0.447832 0)
(0.894038 0.447958 0)
(0.894007 0.448088 0)
(0.893987 0.448217 0)
(0.893978 0.448341 0)
(0.893981 0.448454 0)
(0.893997 0.448552 0)
(0.894025 0.448632 0)
(0.894063 0.44869 0)
(0.89411 0.448725 0)
(0.894164 0.448734 0)
(0.894221 0.448718 0)
(0.89428 0.448678 0)
(0.894337 0.448617 0)
(0.89439 0.448536 0)
(0.894438 0.448441 0)
(0.894479 0.448335 0)
(0.894512 0.448222 0)
(0.894537 0.448107 0)
(0.894554 0.447992 0)
(0.894563 0.447881 0)
(0.894566 0.447777 0)
(0.894563 0.447682 0)
(0.894555 0.447596 0)
(0.894545 0.44752 0)
(0.894531 0.447454 0)
(0.894517 0.447398 0)
(0.894502 0.447352 0)
(0.894487 0.447313 0)
(0.894472 0.447283 0)
(0.894459 0.447258 0)
(0.894447 0.447239 0)
(0.894437 0.447225 0)
(0.894428 0.447214 0)
(0.894421 0.447207 0)
(0.894415 0.447202 0)
(0.89441 0.447199 0)
(0.894406 0.447197 0)
(0.894404 0.447196 0)
(0.894402 0.447196 0)
(0.8944 0.447196 0)
(0.8944 0.447196 0)
(0.894399 0.447197 0)
(0.894399 0.447197 0)
(0.894399 0.447198 0)
(0.894399 0.447198 0)
(0.894399 0.447199 0)
(0.894399 0.447199 0)
(0.894399 0.447199 0)
(0.8944 0.447199 0)
(0.8944 0.4472 0)
(0.8944 0.4472 0)
(0.8944 0.4472 0)
(0.8944 0.4472 0)
(0.8944 0.4472 0)
(0.8944 0.4472 0)
(0.8944 0.4472 0)
(0.8944 0.4472 0)
(0.8944 0.4472 0)
(0.8944 0.4472 0)
(0.8944 0.4472 0)
(0.8944 0.4472 0)
(0.8944 0.4472 0)
(0.8944 0.4472 0)
(0.894418 0.447215 0)
(0.894405 0.447231 0)
(0.894385 0.447255 0)
(0.894356 0.447291 0)
(0.89432 0.447342 0)
(0.894275 0.447409 0)
(0.894223 0.447494 0)
(0.894164 0.447598 0)
(0.894102 0.447721 0)
(0.894038 0.447863 0)
(0.893976 0.44802 0)
(0.893919 0.44819 0)
(0.893871 0.448368 0)
(0.893834 0.448549 0)
(0.893811 0.448727 0)
(0.893804 0.448895 0)
(0.893814 0.449047 0)
(0.893841 0.449177 0)
(0.893884 0.449281 0)
(0.893941 0.449354 0)
(0.89401 0.449393 0)
(0.894087 0.449396 0)
(0.894169 0.449365 0)
(0.894251 0.449301 0)
(0.894331 0.449207 0)
(0.894405 0.449087 0)
(0.89447 0.448946 0)
(0.894524 0.448791 0)
(0.894568 0.448627 0)
(0.894599 0.448461 0)
(0.894619 0.448297 0)
(0.894629 0.448139 0)
(0.89463 0.447992 0)
(0.894623 0.447857 0)
(0.894611 0.447736 0)
(0.894594 0.44763 0)
(0.894575 0.44754 0)
(0.894554 0.447463 0)
(0.894533 0.4474 0)
(0.894512 0.447348 0)
(0.894493 0.447307 0)
(0.894475 0.447274 0)
(0.89446 0.447249 0)
(0.894446 0.447231 0)
(0.894435 0.447217 0)
(0.894425 0.447208 0)
(0.894418 0.447202 0)
(0.894412 0.447198 0)
(0.894407 0.447195 0)
(0.894404 0.447194 0)
(0.894402 0.447194 0)
(0.8944 0.447194 0)
(0.894399 0.447195 0)
(0.894399 0.447196 0)
(0.894399 0.447196 0)
(0.894399 0.447197 0)
(0.894399 0.447198 0)
(0.894399 0.447198 0)
(0.894399 0.447199 0)
(0.894399 0.447199 0)
(0.894399 0.447199 0)
(0.8944 0.447199 0)
(0.8944 0.4472 0)
(0.8944 0.4472 0)
(0.8944 0.4472 0)
(0.8944 0.4472 0)
(0.8944 0.4472 0)
(0.8944 0.4472 0)
(0.8944 0.4472 0)
(0.8944 0.4472 0)
(0.8944 0.4472 0)
(0.8944 0.4472 0)
(0.8944 0.4472 0)
(0.8944 0.4472 0)
(0.8944 0.4472 0)
(0.894401 0.447251 0)
(0.894378 0.44728 0)
(0.894345 0.447323 0)
(0.894302 0.447384 0)
(0.894248 0.447464 0)
(0.894183 0.447568 0)
(0.894108 0.447696 0)
(0.894026 0.44785 0)
(0.89394 0.44803 0)
(0.893854 0.448233 0)
(0.893771 0.448456 0)
(0.893696 0.448694 0)
(0.893634 0.448941 0)
(0.893588 0.44919 0)
(0.893562 0.449432 0)
(0.893559 0.449659 0)
(0.893579 0.449863 0)
(0.893622 0.450035 0)
(0.893687 0.45017 0)
(0.89377 0.450261 0)
(0.89387 0.450306 0)
(0.89398 0.450302 0)
(0.894096 0.45025 0)
(0.894211 0.450153 0)
(0.894322 0.450015 0)
(0.894424 0.449841 0)
(0.894513 0.449639 0)
(0.894587 0.449418 0)
(0.894645 0.449185 0)
(0.894686 0.448949 0)
(0.89471 0.448717 0)
(0.894721 0.448495 0)
(0.894718 0.448288 0)
(0.894706 0.448099 0)
(0.894687 0.447931 0)
(0.894662 0.447783 0)
(0.894633 0.447658 0)
(0.894604 0.447552 0)
(0.894575 0.447465 0)
(0.894546 0.447395 0)
(0.89452 0.44734 0)
(0.894497 0.447297 0)
(0.894476 0.447264 0)
(0.894458 0.447239 0)
(0.894443 0.447222 0)
(0.894431 0.447209 0)
(0.894422 0.447201 0)
(0.894414 0.447196 0)
(0.894408 0.447193 0)
(0.894404 0.447192 0)
(0.894402 0.447192 0)
(0.8944 0.447192 0)
(0.894399 0.447193 0)
(0.894398 0.447194 0)
(0.894398 0.447195 0)
(0.894398 0.447196 0)
(0.894398 0.447197 0)
(0.894398 0.447198 0)
(0.894399 0.447198 0)
(0.894399 0.447199 0)
(0.894399 0.447199 0)
(0.894399 0.447199 0)
(0.8944 0.4472 0)
(0.8944 0.4472 0)
(0.8944 0.4472 0)
(0.8944 0.4472 0)
(0.8944 0.4472 0)
(0.8944 0.4472 0)
(0.8944 0.4472 0)
(0.8944 0.4472 0)
(0.8944 0.4472 0)
(0.8944 0.4472 0)
(0.8944 0.4472 0)
(0.8944 0.4472 0)
(0.8944 0.4472 0)
(0.894369 0.447306 0)
(0.894332 0.447356 0)
(0.894282 0.447426 0)
(0.894217 0.447521 0)
(0.894138 0.447643 0)
(0.894044 0.447798 0)
(0.893939 0.447985 0)
(0.893825 0.448208 0)
(0.893707 0.448463 0)
(0.89359 0.448749 0)
(0.893479 0.449059 0)
(0.89338 0.449387 0)
(0.8933 0.449725 0)
(0.893244 0.450062 0)
(0.893215 0.450388 0)
(0.893217 0.45069 0)
(0.89325 0.450961 0)
(0.893316 0.451188 0)
(0.893411 0.451362 0)
(0.893532 0.451478 0)
(0.893672 0.451531 0)
(0.893828 0.451517 0)
(0.89399 0.451439 0)
(0.894151 0.451299 0)
(0.894306 0.451103 0)
(0.894447 0.450859 0)
(0.89457 0.450577 0)
(0.894671 0.450268 0)
(0.894749 0.449943 0)
(0.894803 0.449614 0)
(0.894834 0.449291 0)
(0.894846 0.448981 0)
(0.89484 0.448693 0)
(0.89482 0.448431 0)
(0.89479 0.448197 0)
(0.894753 0.447994 0)
(0.894713 0.44782 0)
(0.894671 0.447675 0)
(0.89463 0.447556 0)
(0.894592 0.44746 0)
(0.894556 0.447385 0)
(0.894525 0.447327 0)
(0.894497 0.447284 0)
(0.894474 0.447251 0)
(0.894454 0.447228 0)
(0.894439 0.447212 0)
(0.894426 0.447201 0)
(0.894417 0.447195 0)
(0.89441 0.447191 0)
(0.894405 0.44719 0)
(0.894401 0.447189 0)
(0.894399 0.44719 0)
(0.894398 0.447191 0)
(0.894397 0.447192 0)
(0.894397 0.447194 0)
(0.894397 0.447195 0)
(0.894398 0.447196 0)
(0.894398 0.447197 0)
(0.894398 0.447198 0)
(0.894399 0.447198 0)
(0.894399 0.447199 0)
(0.894399 0.447199 0)
(0.894399 0.447199 0)
(0.8944 0.4472 0)
(0.8944 0.4472 0)
(0.8944 0.4472 0)