/*--------------------------------*- C++ -*----------------------------------*\
  =========                 |
  \\      /  F ield         | OpenFOAM: The Open Source CFD Toolbox
   \\    /   O peration     | Website:  https://openfoam.org
    \\  /    A nd           | Version:  6
     \\/     M anipulation  |
\*---------------------------------------------------------------------------*/
FoamFile
{
    version     2.0;
    format      ascii;
    class       volScalarField;
    location    "2.15";
    object      p;
}
// * * * * * * * * * * * * * * * * * * * * * * * * * * * * * * * * * * * * * //

dimensions      [1 -1 -2 0 0 0 0];

internalField   nonuniform List<scalar> 
24166
(
0.999265
1.007
1
1
1
0.999999
1
1
1.00522
1
0.999946
1.00056
1.00121
0.998044
1.00037
1.00001
1.00029
1.0001
1
1.00009
0.999964
0.999991
1
1
1.00417
1
0.999999
0.980943
1
1
0.993543
1
1
1
1
1.06153
1
1.03686
1
0.631474
0.999993
1
1
1
1.00002
1
1.00941
1.02244
1
1.03455
1
1.00001
1
1.00016
1
1.03229
1.04195
1
1
1.00001
0.682617
0.999962
1
1
1
1
1
1.13715
1.02183
1
1
1.00033
1
1
1
0.999995
0.999991
1.03305
1
1.00002
1.01286
1
1
1.02826
1.00005
1
0.999964
1
1
0.999997
1
1
0.999471
0.999999
0.999799
0.999977
1
1.00002
1.00002
1
1
1
0.99985
1
1
1
1
1.00002
1
1
1
1
1
1.10851
1.00719
0.999985
1
1
0.999984
1
1
1
1.00155
1
1.03648
1.00024
1
1
1
1
0.922198
0.992736
1.01336
1.02714
0.999996
1.00002
1
1.00051
1
1
1.02261
1
1.04237
1
0.971024
0.999997
1
1
0.894822
1
1
1
1
1.00001
1
1
1
1
1
0.999988
1.01231
1.01338
1
1
1
1
0.909443
1
1
1
1
1
1
0.998637
1
1.00012
1
1
0.999907
1.00346
1
1
1.05914
1
1
1
1
1
1
1
1
1.02459
1
0.998136
1
0.99998
1.00197
1
1.00058
1.00001
1
1
1
1.00553
1
1
1
1
1
0.881127
1.03723
1
1.00039
1.00005
1
0.999995
1
1
1.04036
1
1
0.999128
1
1
1.03544
1
1
1
1.00002
1
1.00085
1.00002
0.999865
1
0.99004
1
0.999806
1
1
1
1
1
1
1
1.00006
1
1.00004
1.00002
1.00018
1
0.999958
1
0.999994
1.04641
1
1
1
1.00131
1
1.00002
1
1
1
1
1
0.999998
0.999997
1
1
1
1.00008
0.915577
1
1.00217
1
0.999999
1
0.871762
0.999999
1
1.02178
1
0.861043
1
1
1
1
1
0.99979
1
0.930018
1
1
1
1.00024
0.887592
1
1
1.00094
1
1
1.00007
1.00103
1
1
1
1
1.00003
0.994322
1
0.994789
0.999991
1
0.749733
1.00082
1
0.999819
1
0.999991
1.00029
1
1
1.04001
1
1
1
1
1
1
1.04546
1
0.999999
1
1.00141
1
1.0045
1
1
1.00005
1.00634
1
1
1
1
1
1
1
1
1
1
1
1
1
1
1
1
1
1
0.938963
1.00783
1
1
1
0.995523
1
1
1.00531
1
1
1
1.00131
1
1
1
1
0.99984
1
1.00055
1
1
0.999999
1
1
0.999967
1.00332
1
1
1.001
1
0.977128
1
1
1.00151
1.01352
1.0266
1.00156
1.00001
1
1
1
1
1
1.0016
1.00005
1
1
1
0.997648
1
1
1.00128
1
1
0.999998
1
1.00279
1.00887
1
0.999998
1
1
1.01653
1
1
1
1
0.999226
1
1
0.997893
1.00015
1.03863
1
1
0.999996
1
1
1
1
1.00059
1.00005
1
0.955016
1
1
0.999978
1.06815
0.999999
1.03229
1.02252
1
1
1
0.995593
1.00493
1.00015
1.02975
1
1
0.999998
0.654637
1
1.00045
1.03761
1
1
0.999999
1
1.00003
1
1
1.00499
1
1
1
1.00273
1
1
1
1.00007
1
0.960185
1
1
0.975023
1
0.999707
1.00001
1
1
1
1
1
1
1.02946
1.02158
1
1.00014
1
1.01191
1
0.998788
1.04007
0.594494
1
0.999711
1.00001
1
1
0.999518
0.999999
1
1
0.999997
1.00097
1.00665
0.998009
1.00004
1
1
1
1
1.01237
1.02106
1
1
1
1
1
1.00203
1
1.00043
1
1
1
1
0.527044
1
1.00501
0.999999
1
1
1.01088
1
1.02165
0.999999
1.03708
1
1.00003
0.999953
0.984895
1
0.999863
1
1
1
1
0.983382
1
0.944849
0.575585
1
1
1.00274
1
1.0387
0.464244
0.99996
1
1
1
1.02345
0.999989
1
1.0012
1
1.00001
1
1.00001
1
0.999666
1
1
1
0.999995
1
1
0.998282
1.00643
1.04637
1
0.998703
1
1
0.793392
1
0.999998
1.06011
1
1
0.999081
1
1
1.00029
1
1.00336
1.00004
0.999998
1.00512
1
1.00051
1
0.999991
1
1.00176
1
1
1.04043
0.980761
1
0.985245
1
1.00004
1
1
1
1.00031
0.999999
1.03414
1
1
1.026
1
1.08082
1
1
0.970878
1
1
1.03122
1
1
1.0008
1.00003
1.03244
0.999999
0.999791
1.00002
0.999882
1
1
1
1
1
1.00007
1
1
1
1
0.999999
1
1.00001
1
1
1
0.994837
1.00181
1
1.00004
1
1
1.03964
1
1
1.00001
0.944958
1
1
1.00005
1
1
1
1
1
1
1
1
1
0.99994
1.00567
1.01204
1.00009
1
0.999996
1
1
1.00491
1
1.02951
1.01131
1
1
1
1
1.01475
1
1.00001
1.01981
1
1
1
1.00477
0.999999
1
1
1
0.99934
1.03252
1
1.0086
0.994325
1.07432
1
1
1.00017
1
1.04295
1
1.00005
1
1.00001
1
1.00058
1.01429
0.998542
1.00013
1.0002
1
1
1
1.00007
1
0.999969
1.00018
0.80349
1.01153
1
1
1
1
1
1
1
1
1.0378
1
1
1.00001
0.999774
1
1
1
1
1
1.03994
1
1
1
1
0.999913
1
1
1
0.999999
1
1.00002
1
1
1.06061
0.999995
1
1
1.00001
1
1
1
0.999983
1
1
1
1
1.03648
1
1
1
1
0.999997
1
1
1
1
0.839318
1.03405
1
1.03977
0.999993
1.01537
1
1
1
0.999999
1
1
1
1
1
0.951101
1.0003
1.00002
1
1
1.00001
1.00001
1
1
0.978374
1.00003
1
1
1
1
1.00032
1
1
0.999984
1
0.999998
0.963628
1
1.00005
0.995165
1.00133
1
0.978815
1
1.00001
1
1
1
1
1
1
0.999997
0.999334
1.00292
1
1.00356
0.999997
1
1
1
1.00049
1
1
1
0.998431
1
0.978159
1
1.00356
1.00003
1
1
0.999738
1.03979
1
0.999993
0.999999
1.00006
1
1
1
1.00007
1
0.999997
1
1
0.999989
1
0.993718
1
1
1.0266
1
1.00003
1.00065
1
1.00002
1
1
1.00002
1
1
0.999985
1
1
0.995959
0.917625
1
1.00047
1
1
1.00001
1.00001
1
1
1
1
1
1.03761
1
1
1
0.999303
1.01305
0.999845
0.999711
1
1.00002
1
1
1.00001
1
1.00001
0.989058
1.00023
0.970842
1
0.999064
0.999998
0.999992
1.03591
0.980947
1
1.00001
0.999999
1
1
1.00004
0.649494
1.00007
0.971757
1
1
0.998989
1.00155
1.01185
1
1
1
0.99711
1
1
1
1.02536
1.00002
1
0.99309
1
1
1
0.999999
1.00001
1
1
1
1
1
0.986826
0.999955
1.00017
1
1.03552
1
1
1
1.01413
1
0.999999
0.973974
0.999925
1.06161
1
1
1
1
1
1
1.00411
1
0.999639
1
1.00075
1.01914
1.00001
1
1
1
1
1
1.02057
1.00002
1.00002
1.00001
0.992075
1.02806
1.01932
1
1
1
0.999999
0.999485
1
1
0.999996
0.999999
1.00282
1.00004
1
1
1.0124
1
0.999987
1
1
1
1
1
1
1.04961
1.02382
1
1.00009
1.00983
1
1
1
1.01497
1
1
0.999999
1.00001
1
1.00001
0.999995
0.999985
0.999999
1
1.00099
1
1
0.999997
1
1
1.00004
0.984152
1
1.00626
1.01316
1
0.999979
1
0.984691
1
1.001
1
0.999997
1
0.637598
1.00008
0.995719
1
1
1
1.00007
1
1.00078
1
1
1
0.999764
1
1
1
1
1
1.00126
1
0.999999
1
1.03664
0.999989
0.995046
0.999977
1
1
1
1
1
1
1.00004
1.00068
1.00012
0.999998
1
0.9576
0.999534
1
1
1
1
0.996487
1
1
1
1
1
0.36196
1
0.439148
1
1.00001
1
0.99985
0.999932
0.999926
0.997376
1.0267
1.00001
1
1.01868
1
1.00777
1.00145
1
1
1.00606
1
0.999816
1.0282
0.999998
1
1
1
1
1
1.08672
1.00146
1
1
1.00017
1
1
1.0195
0.391652
1
1
1.00019
1
1.00002
0.960728
1.01495
1
1
0.999999
0.999985
0.999999
1
1.00001
1
1
1
1
1
1.00001
1.00021
1
0.999989
1.01658
1.00073
1
1
1.01317
1
1
1
1
0.999979
1
1
1
1.00842
1
1.03783
0.99897
0.999992
1
1.01936
1
0.999998
1.09008
1
1.00333
0.999987
1.00931
1
1
1
1
1
1.00001
1
0.83772
1
1.00245
1
1
1
1
1
1
1
1
1
1
1.00112
1.00015
1
1.10259
1
0.976619
0.999962
1
1
1
1
1
0.999994
1.00013
1.00002
1.0005
1.0436
1
0.999997
1
1.00001
1
1
1
1
1
0.928923
1.02457
0.483066
1
1
1.00113
1
0.525702
1
0.999446
1
1
0.99964
0.912526
0.999999
1
1
1.00008
1.00387
0.999998
1
1
1
1.00065
1
0.999999
0.999988
1.03397
1
1
1.02564
1.00001
1.0192
1.00005
1
0.999985
1
1
1
1.00001
1
1
1
1
1.0225
1
1
1
1
1.00978
1.04268
1
1
1
0.999999
1
0.999979
1
1.00003
0.979012
1.00002
0.999995
1
1
1.06053
1.00003
1.00003
1
0.613704
1.00082
1
1
0.999999
1
1
1
1
1
1
1
1.00494
1
1
0.999989
1
0.997349
1.00002
0.999958
1
1.01874
1
1
1
1
1
1
1.02136
1.00002
1
1
1
1.00001
0.999999
0.999988
1.00226
1.01051
1.00216
1
0.999975
1
1.00016
1
0.999986
0.999993
1
1
0.999989
1.0087
1.00917
1
1
1
1.05043
0.999999
0.431818
0.99973
1
1
1.00174
0.999208
1
1
1
1.00363
1.0315
1
0.999993
1.0006
0.999987
1
1.00001
1.02427
1
1
0.999977
1
1
0.999983
0.999999
1
1.00001
1
0.991152
1
1
1.00021
1.01847
0.999955
1.00545
0.999999
0.999993
1.0025
1.02635
1
0.999997
1.03093
0.934317
0.336843
1
1
1
1
1
0.999993
1
1
0.999826
1
1
1.02304
1
1
1
1
1
0.996495
1
1
1
1
1.00244
0.999993
1
1
1
1.00073
1
1.01762
1.00038
1
1
0.999998
1
0.999997
1
1
1.00038
0.353398
0.999978
1.00021
1
1
0.999999
1
1
1
1.06991
1
1
1
1
1.03453
0.999971
1
1
1.00002
1
0.999992
1
1.03692
0.993585
1
1
1
0.999769
0.939135
1
1
1
1.00219
1
1
1
1
1.03018
1
1.00545
0.99996
1
1.0371
1.00039
1
0.997553
1.00003
1.04336
1
1.03977
1.00011
1
0.999369
1
1
1
1
1
1.00031
1
1
0.99999
1
0.999961
1
1.00068
0.999952
1.02374
1
1.00039
0.980526
1.04983
1.00596
1.00001
0.999808
0.974097
1
0.999911
1.00005
0.999703
1
1
0.999916
1.0056
1
1.00081
1
1
1.0002
1
1
0.999507
1
1
1
1.00002
0.996126
1.00001
1.00001
1
1
0.999987
0.999999
1
1.01622
1
1
1.00004
0.999998
1.00003
1.00027
1
1
1
1
1.00032
1
1
1
1
1.00004
1.00242
1
1.00105
1
0.96789
1
1
1
1.00001
1
1
1.00002
0.999999
1
1
1.00028
1.02576
1
0.999998
0.999999
1
1
0.999999
1
1
0.999999
1
1.00287
1
0.999997
0.981787
1.05177
1
1
0.987943
0.999999
1
0.997535
1
0.999989
1
0.999991
0.999999
1.01206
1
0.993727
1.03413
0.99999
1
1
1
1
1
0.987
1
1.00036
1
1
1
0.999999
1
0.996826
0.996359
0.997332
0.999997
1
0.835509
1.02593
0.999997
1.00273
1
1
0.984787
1
0.999999
1
1
1
1
1
1
1
1
1
1
0.999997
1
1
1
1
0.999999
1
1.00178
0.999996
1
1
1
1.00167
1
0.999996
1
1.00002
1.00269
1.00005
1.05655
1
0.999817
1
1
0.999963
1.03258
0.999948
1.00008
0.999971
1
1.00004
1
1.11645
1
0.999999
1
1
1.02235
1
0.98752
1
1
1
1.01192
1
1.00001
0.995506
1
1
1
1
0.999999
1.03258
0.999988
1.00604
1.01152
0.999993
1.01166
1
1
1.00031
1
1
1
1
1.04586
1
1
1
1.01147
1.00001
1.01202
1.0002
1
1
1
1
1
0.998642
1
0.922171
1
1.00516
1.00004
1
1.00017
1.00017
1
1
0.999783
1
0.99979
1.00001
1
1.00005
1.00008
0.999993
1.00016
0.999999
1
1
1.00072
1
1
1
1.00756
1.0334
1.00001
1.00001
1.0373
1.0001
1.00004
1
1.01283
1
1
0.999938
1
1
1
1.01711
1
1
1
1
1
1
1
0.975433
1
1
1
0.999998
1.00123
1
1.02286
0.999986
1
0.999442
0.999994
0.999402
0.999988
0.999988
0.999994
1
1
1
1.00004
1.00001
0.99987
1.00058
1
1
1
1.01239
1
1
0.998602
1.00002
1
1
1
1.00079
0.983253
0.999998
1
1
1.00001
1
1
0.996359
0.994753
1
0.999995
0.999998
1.00015
1
1.19675
1
1.00001
1
1
1.05782
1.00638
1.00003
1.00342
0.979941
1.03666
1.0477
0.999998
1.00005
1.01254
1.01861
1.05984
1
1
1.01913
1
1
1.03775
1.00001
0.999996
1.01164
1
1.0349
1
1
0.999998
1.03207
1
1
1
1
0.999888
1.02581
1
1
1
0.999999
1.00334
1
0.999999
1
1
1.03035
1
1
1.00007
0.989831
1
1
1
1
1.06655
1
1
1.03249
1.00755
0.99967
1
1.00472
1.00202
1.00075
1.02196
0.997717
1
1
1
1
1
1
0.999996
1.00002
1
1
1
1
0.999999
0.999977
1.0279
1.00003
1
0.97104
1.00822
0.998753
1.00731
1
1
1
1.00009
1.00112
1.00452
1.04882
1
1
0.999994
0.999977
1.0151
1
1.00093
0.982347
1
0.525698
1
1
1
1
1.00038
1
1
1
0.747061
1.00083
1.0008
1
1
1
1
1
0.49206
1
1.0011
1
1
1
1.00001
1
1
1
1
1
1.00595
1.00394
1
1
1.02892
1
0.99863
1
1
1
1.00001
1
1
0.945001
1.01324
1.00053
0.999999
1
1
1
1
1.00708
1.00001
1.00375
1
1
1.00272
1
1
1.01426
1.01296
1.0092
1.03023
1
1
1
1
0.999997
1.00004
1.00226
1.00718
0.999988
1.00002
1
1.0021
0.968122
1
1
1
0.999913
1
1.00004
0.999999
1.00071
1.00852
0.999998
1.0015
1
1
1
1
1
1.0034
1
1
0.998525
1.00066
1
1.03185
0.999998
1.00001
0.999921
1
1.0452
1
1
1.03459
0.78514
1
1.04498
1.00993
1
1
1
1
1
1
1
1.00127
1
1
1.03635
0.95286
1.00035
1
1
0.999994
1
1
1.00363
0.999629
0.999914
0.882023
1
1
1.00556
1
1
1
1
1
1
1.00002
1
1
0.860856
1
1
0.99862
1
1.00001
1
0.999999
1
1
1
1
1
0.999998
1
1.00476
1
1
1.00671
0.997366
1
1
1.00001
1
1
1
1
1
1
1
1
1
1
1.00609
1
1
1
1.01083
1.00001
1.00001
1.00005
1
0.881664
1
1
1
0.999988
1.00039
0.999983
0.999934
1
1
1
0.996908
1
0.736387
1
1
1
0.999965
0.99924
1
1
1.04701
1
1.00002
1
1.05101
0.999516
1.00388
1
1
1.04113
1
1.00717
1
1
1
0.999958
1
0.999999
1.03973
1
1
1.00003
1
0.999971
1
1
1.00001
1
1.00002
1
0.999772
0.893069
0.993944
1.00139
1
0.999962
0.999996
1
1
1
0.998645
1.00006
1
1
1.00002
1
1.00056
1.00527
1.00001
1
1
1
1
1.03338
1.00001
0.989518
0.999777
1
0.999999
1.00159
1.00013
1
1
1
1
1
1
1
1
1
1
1.01059
1
0.999926
1.00886
1
0.999594
1
1
1.02484
1.12594
1.01175
0.999999
1
1
0.999999
0.999996
1
0.99999
1.00048
0.999973
1
1.00931
1
0.999986
0.999742
1
0.999774
0.949183
1.01887
1
1.00719
0.999996
1.00987
1
1
0.999946
1
0.999982
1
1.01146
1
0.999991
1.00043
0.882244
1
0.9703
1
0.999993
1.00004
1
1.00002
1
1
1
1
1
1
1
1
0.997444
1
1.00519
0.889041
0.949254
1
1
1.01248
0.973859
1
1
1.00053
1.0423
1.0097
0.999939
1
1
0.755909
0.99292
1
1
1
1
1
1
1
1.00156
0.999652
1.04803
0.932018
0.999997
0.960452
1
1.00082
1
1
1.04217
1
1
1
1.00524
0.999983
1
1
1
1
0.994797
0.999884
1
1
1
1.00034
0.974004
1
1.00001
1
1
1
1.0217
1
1
1.02541
0.999957
1
1
0.999216
1
1
0.999991
1
1
0.999795
1
1.01269
1
1
1
1
1
0.999998
1.00131
1
1.01651
1.04385
1.03737
1
1
1.0002
1.00317
1.00538
1
1.06276
1
0.999957
0.907107
1
0.867699
1
1
1
1
1
1.00313
1
1.01404
1
0.991884
1
0.999999
1
1
1
1
1
1
0.99981
1
0.999993
1
1.03914
1.00001
0.992377
1
1
0.999165
1
1
1
1.05514
1.02835
1.00001
1
1
1
0.999457
1
1
0.96112
1.00847
1
1.02198
1
1.00019
1.00045
1.00001
1
1
1.00362
0.999999
0.999984
1
1
1
1.00174
1
1
1
1
1
1
1
0.999925
1.01186
1
0.836608
0.999994
1
1.00006
1.00381
1.0137
1
0.989683
1
1
1
1
1
1.00211
1
1
0.999997
1.01418
1.00002
1
0.994282
1
1.00037
1
1
1.04737
1.04773
1
1
0.998627
1
0.99071
1
1
1.01451
1
1
0.965507
0.999938
1.00002
1
1
0.999999
1
1.05301
1
0.84672
1.00158
1
1.0005
1
0.999999
1
1
1.01167
1.00054
1
1
1
1
1.00001
1.00301
1
1
1
0.998991
0.995868
0.997436
1
1.0038
1
0.999566
1.00166
0.999999
1
1
1
0.985359
1
1.07834
1.0007
1
1
1
1
1
1
0.999991
1
0.999999
1
1
1
1
1
0.999999
1.0274
0.999968
1.04323
0.999958
1.00024
0.999892
1
0.999593
0.362062
0.999842
1
0.955089
1
1.00002
1.01075
1.01146
1
1
1.00001
0.999995
1
1
1
1.00026
1
1.04287
1.00002
1.00388
1
0.999986
0.999955
1
1
1
0.999997
1
1.0004
1.0047
1
1.00002
0.804827
1.00004
0.59006
1.00556
1.00044
1.00127
1
1.00046
1.00054
1
1.01857
0.999992
1
0.999989
1
1
1.00792
1.00294
1
1
1.03741
1
0.999997
1.00616
1.0126
1
0.99889
1
0.999999
1
1.02656
1
1
1
1
0.978518
0.999993
1
1.04538
1
1
0.76802
1
1.02131
0.999972
1.00005
1
1
1
1
0.999999
1
1
1
1
0.99997
0.999866
1
0.619777
1
1
0.998635
1
1.00001
1
1
0.997987
1
1.00001
1
1
1
1
1
1
0.999999
1
1
1
1
0.999999
1.0015
0.999608
1.00068
1
1.0048
1.00358
1.00002
1
1
1.00001
1.00877
1
1
1
1.01046
1
1
0.606181
1
1
1
1
1
1.00004
1
1
1
0.987031
1
0.999992
0.999161
1
1.00002
1.0361
1
1
0.992763
0.80493
1
0.999947
1
1
1
1.014
0.999958
1
1.00277
0.837418
0.506352
1
0.744545
0.999999
1
1
1
1
1
1.00071
0.999995
0.527966
0.999996
1.00012
0.999986
1
1
0.99995
1
1
1.00002
1
1.00035
0.999934
1
1
1
1
1
1
0.821946
1
0.999999
1
1
1.01195
1
1.00016
1
1
0.999982
1.00751
1.00323
1
1
1
1
1
1.00015
0.997648
1
1
1
1
1
1
1.00039
1
1
1
1.01439
1
1.06201
1
1
1
1.01445
1
1
0.999764
1
1.00008
1.00001
1
1
1
0.999992
1.00008
1
1
1
0.999999
1
0.461892
1
1.00088
1
1.00001
1.00888
0.999921
1.00918
1.05567
1.00533
1
1.06349
1
0.324764
1
1.00252
1
1
1
1
0.997851
1.00031
1.00146
1
1.04211
1.00641
1.00034
1
1.01346
1
1
1
0.99993
0.998712
0.999968
0.2878
1
1
1.0001
1.002
1.02589
1.00001
1
1
1.00057
1
1.00008
0.999933
0.999996
1
1
1
1
0.999644
0.999838
1.04337
0.416075
1
1
1
1
1.00227
1.00179
1.00031
0.999989
1
1
1.00071
1
0.999999
1
0.999554
1.01801
1.01011
1.00007
1
1.0001
1.00024
1.01613
1
0.951763
1
0.876651
1
0.999296
1
1.0001
1
1.06448
0.783138
1
1
1
1.00009
1.01083
1
1
1
1
1.01773
1
1
1.00005
1.003
1
1
1.00096
0.967074
1
1
0.664991
1
1.00002
1
1
1
1
1
0.999998
1
1.00004
1
1
1
1
1
1
1
1
0.999635
1
1.00001
1.00104
0.999998
1.00526
1
1
1
0.999994
1
1.01644
1
1
0.999992
1
1
1
1
1
1.04441
1
1
0.999998
0.383405
1
0.999835
1
1.04506
1
1.00001
1
0.747634
1
1
1.00081
1
0.999999
1.00775
0.998777
1.02472
0.440392
1
1
1
1.01738
1
1
1.00391
1
1
1
0.999999
1
1
1.00787
1
1
1
1
1.07923
0.999999
1
1
1.00366
1
1
1
1
1
1
1
1.00009
1
1
1
1
1
0.999992
0.999246
1
1
0.999999
1
1
1.00267
0.999995
1
1
1
1.00025
0.782906
1
0.999935
0.999995
1.00005
1
0.999946
1
1.00091
1.00375
0.999994
1
1.0961
1.03944
1
0.99654
1
1
0.461823
1
1
1.00007
1
1
1.00005
0.454833
1
1
1
1
1
0.999985
1
1
0.999554
1
0.999999
1
1
1
0.99864
1.00072
1
0.999999
1
0.999999
1
1
1
1
1
1
0.961978
1.00799
0.999997
1
1
0.992929
1
1
1
0.999996
1
1
0.999925
1
1.00291
1
1
1
1
1
1
1.00809
1.00024
1
1
1.01971
1
1
1
1.01801
1
1
1
1
1
1
1
0.999998
0.999954
0.54095
1
1
1
1
1.00004
1
1
1
1
1.00016
0.999978
1
1
1
1
1
0.827121
1
1
1
1
1
1
0.927808
1
0.995324
1
0.999998
1.02042
0.992486
1
0.999996
1
1.04179
1
1
1
1
1
1
1.00781
1
1.00059
0.999997
1
1
1
1.0015
1
1.03105
0.999992
1
1.03571
1
1
1.00047
1
1.00673
0.999999
1
1
1
1.00008
1
1
1
1
1.00257
1
1
1.04233
1
1
1.00277
0.852943
1.04587
1
1.00436
1
0.999989
1.00759
1.01106
1
0.999996
1.00046
1
1.00003
1
1
1
1
1
1.00247
1
1
1.00528
1
1.03134
1
1
1
1
1.11997
1
1
1
1.00005
1
1
1
0.756622
0.996649
1
1
1
1
1
0.999965
1
0.916426
0.665638
1.00092
1
1.00032
1
1.00004
1.0044
1
1
1.00736
1
1
0.999998
0.468841
1
0.999999
1.03164
0.998948
0.999984
0.986916
1.00275
0.999995
1
1.02442
1
1
1.00003
1.00002
1
0.999999
1
1.00002
1
1
1.00003
1
1
1.03667
1
1
1
1
0.982946
1
0.998945
1
0.999954
1
1
0.999996
1
0.999998
0.999997
0.999909
0.999983
1
1
0.460195
1
1
1
1
1
0.999999
1.00064
1
1
1
1
1
1.0025
1
1
1
1.02289
1
1
0.999982
1
1.0001
1.00005
1
0.9727
1
1
0.992569
1.00085
1
1
1
1
1
0.999998
0.541082
1.0069
1.00004
1.00051
1
1
1
1
0.999999
0.999111
0.999999
0.978462
1
1.00178
1
0.999994
1
1
1
1
1
1
1
0.999689
0.999991
1.0138
1.00356
1
0.989643
1.0001
1.0003
1
1
1.00004
0.999994
0.999993
1.03173
1
1
1
1.00345
1.04939
1
1
1
1
1
1
0.998482
0.999998
1
0.684572
1
1
0.999914
1
1.01055
1
0.999999
1
1
1
1.0002
1
1
1
1
1.00001
1
0.999994
1.00019
1.00001
0.999983
1
0.999993
0.999989
1
1
1
1
1
0.977222
1
1.00048
1
1
1.00147
1.00008
1
1
1
1.00061
1
1
1.0287
1
1.0022
1.0109
1
1
1
1.02586
1
1.00424
1.00164
1.00001
0.999991
1.02321
1.00022
1
1.0001
1
0.999913
1.00001
1
1.00244
0.999954
0.999944
0.578108
1
1.00007
1
1
1.00001
1
1.00001
1
1.00064
1.02574
1
1
1
1
1
1
1
1
1
1
1
1
1
1
1
0.999994
1
1
1
1.00004
1
1
1
0.547896
1
1
1
1
0.999826
1
1
1.00018
1.00191
1
1.00029
1
1
1
1
0.999999
1.0008
0.999999
1
1
0.999528
0.999999
1
1
1.1277
1
1
1
1.00003
1
1
1
1
0.999981
0.999896
1
1
1
1
1
1
0.998585
1
0.999998
1
1
1
0.648332
0.999991
0.999998
1
1
1
1.00008
0.998315
1
1
1.04534
1.00676
0.999994
1
1
1
1
1
1
1
1
0.999999
1
1
0.999998
1
1
1
1
1
1
1
1
1.00057
0.713553
1.02245
1
1
1.00056
1
0.754838
1
1
1
1
1
1
0.997807
1
0.999987
1
1.02796
1.00011
1.00003
1
1
0.999992
1
1.00003
0.999999
1
1.00013
1
1
0.999998
1.00169
1
1
1
0.999727
1
1
1
1
0.999996
0.999993
0.999676
1.00077
1
0.999496
0.999969
1.00002
0.999996
0.999984
1
1
1
0.999997
0.995613
0.999998
1
0.999907
1.00026
1
1
1
1.00598
1.01756
1
1
1
0.999994
1
1.00024
1
0.999996
1
1
1
1
1
1
0.958506
1
1
1
1.00003
1
1.0302
0.999992
1
0.980912
1
1
1
1
0.999995
1
1
1.00002
1
1
1.23921
1.00086
1
1
1.03238
1.0013
1
1
1
0.990102
0.989891
0.999996
1
0.999801
1
0.999995
1.00017
1
0.999922
0.999986
1
1.03207
1
1
1
1
0.997449
0.369596
1
0.999887
1.01975
1
1
1
1
1
0.804238
1.00043
1
1
1
1
0.98286
1
1
1.00047
1.00001
1
1
0.999965
1
1
1
1
1
1
1.0005
1
1.00005
0.855508
1.00307
1
1
0.985294
1
0.999848
1
0.992862
1
1
1.03663
1
1
1.00159
1
1
1.00029
1
1
0.998318
1.01391
1
1.0229
1
1
1
1
1.02335
1
1
1
1
1.00101
0.998817
1.0023
1
1
1.00007
1.00005
0.998842
1
1.0045
1
1
1
1
0.98336
1.00007
1
1
0.999999
1
1
1
1
1.05113
1
1.01483
1
1
1
1
1.00002
1
0.935162
0.996121
1
0.999995
1.01121
1
1
1
1
0.984158
1
1.10018
0.999999
1
1
1.00002
1
1
1
0.999953
1
1.00017
0.999999
1
1
1
1.0007
1.00012
1
1
1
1
0.999775
1
1
1.01837
0.993244
0.99434
1
0.993982
0.999641
1
1
1.05113
1
0.999929
1
1.00011
1.0413
1
1
1.00051
1.00874
1
1
1.00002
0.974933
1
0.992069
0.999972
1
1
1
0.999996
1
1
1.00002
1
1
1.00007
1
1
0.999997
1
1
0.636965
1
1.00002
1
1.00013
1.00009
1
1
1.00001
1
0.999999
1.00001
1.00002
1
1
0.822094
1
1
1
1
1
1
0.736277
1.03946
1.02351
1.00102
0.999998
1
1
1
0.999999
1
1.00002
1
1
1
1
1.00421
1
1.00182
1.00002
1
0.990905
0.999996
1.00135
1.00366
1.00956
1
0.999998
1.00051
1
1
1
1
1.00005
1
0.999997
1.05607
0.999914
1
1.00031
1
1.00316
1
1
1
1.00045
1
1
1
1
1.04808
1.00015
1
1
0.852188
1
0.999718
1
0.999998
1
1
1
1
1
1
1
1
1
0.999998
0.999994
1
1
1
1
1
1.00249
1
1.04192
1
1
1
1
1
1
0.999999
1
1
1
0.991404
1
1
1
1.00017
1.00001
1.00001
1.00123
1
1.00008
1.06924
1
1.03181
1.00066
1
1
1
1
1.00014
1
1
1.00589
1.0165
0.999966
1
1
1.00003
1
1.00024
1
1
0.959979
0.999979
0.733246
1.00002
1.00015
1
1
1.00008
0.999994
0.999997
1
1
1
1.00001
0.999816
0.999982
1.02289
1
1
1
1
1
1
1
1
0.999876
0.999998
1
1
1.0278
0.998994
0.999977
1.02243
1
1
0.999999
1
0.999168
1.00825
1.00001
1
1
1
1.00022
1
1
1.04988
1
1
0.969537
0.999829
1
1
1.01019
1
1
1
0.908933
0.999986
1
0.992175
1
1.00054
0.998506
0.961908
1.00007
1.01823
1
0.980622
0.999341
0.400991
1
1
1.00002
1
1.00001
1
1
1
0.999998
1
1
1.001
0.825075
0.999939
1
1.01321
1
1.00372
1.00713
0.999801
1
1.04233
1
1
1
1.01242
1.00003
1
0.998732
1
0.999999
1
1
1
1.00203
1
0.999983
1
1
1
0.746193
1
1
1
0.398294
1
1.00004
1
1
1
1
1
1
1
1
1.00037
0.999335
0.989605
1
0.999903
0.999998
1
1
1
0.997943
0.999911
1
0.810875
1
1.00005
1
1
1.0001
1.00152
1.0476
1.01525
0.999999
0.999991
1.00009
1.02539
0.999934
1
1
1
0.99998
1.02379
1
1
1
1
1
1.03071
1.0012
1
0.969318
1
1
0.998068
1.00439
1.02705
1
1.0003
1
1
1
1.0006
1
0.999999
1
1.05065
1
1
1
1
1.03864
1
0.98874
0.999999
1.00001
1.0004
1
0.999988
1.00967
1.00026
0.831704
1
1
1
1
1
1
1
1
1
0.968669
1
1
1
0.999999
1
1
1
1.00001
0.969193
1
1.01781
1
1
1.02992
1.00147
1.00019
1
1
1
0.462417
1
1.00952
1
1.00317
1
0.999999
1
1
1
1
1.00032
1
0.999984
1
1
1
1
1
1
1
1
1.02896
1
1.01425
1
1.00095
0.999997
1
1
1.03805
1
1
1
1
1.01674
0.99724
1
0.999405
0.999999
1.00044
1.09282
1
1
0.99901
1
1
1
1
1.02118
1
1
0.999999
1.00001
1.00166
1
1
0.999955
1
1
1.00039
0.999427
1
1
1
1
1.02381
1.03433
1
1
1.00083
1
1.03475
1
0.99967
1
1
1
1
1.11024
1.00228
1.02349
1
1
1
1
1
1
1
1
1
1.00812
1
1
1
1.04841
1.04591
0.989837
0.972187
0.999999
0.872295
1
1
1
0.999999
1
1.00001
0.9831
1
1.00407
1
1
1.07344
1.02935
1
1
1.0066
0.999532
1.04725
1
1.00071
0.323553
0.912523
1
1
0.999998
1
1.00932
1.07253
1.00393
1
1
1.02123
1
0.99999
0.952401
1
0.390373
1
1.0346
1
1.00002
0.491045
1
1
1
1.03048
1
0.550929
1
1.0766
1
0.999993
0.430457
1
1
1
1
0.999391
1
1.02836
0.999998
0.999998
0.997292
1.00176
0.999999
1
0.999999
1
1.02536
1
0.999837
0.999426
1.00005
1.00029
1.00249
0.999494
1
0.999291
1
1
1.0511
1
1.02709
1.00006
1
0.999971
0.999167
1.02761
1
0.99904
1
0.999737
1.00113
1
0.839946
1.02086
1
1.06068
1.03
1
1
1
1
1
1
0.999989
1
1
0.999376
1
1.00001
1
0.999957
1.00004
1.0114
1
1
1
1
1
0.731618
1.00002
1
0.999872
1
1
1
0.898681
1
1
0.998835
0.999818
1
0.999997
1.00019
1.00009
1
1.00012
1
1.03831
1
1
1
1
1
0.865196
0.996545
1
1
1.00011
1.06951
1.00072
1
1
1.00005
1
0.981243
1
1.0001
1
1
0.999992
1
1
1
1.00008
0.999997
1
0.999995
0.999999
0.932417
1.00443
1.00205
1
1
1.03383
1
1
1
1
0.601097
1
1
1
1
1.00001
1
0.528585
1
1
1
0.980451
1
1
1
1
1
0.827856
0.983287
1.11955
1
1.00087
0.997384
1
0.995884
1.01831
0.999283
1
1
1
1
1
1
1
1.00001
1.0028
1
0.993745
1
0.999995
1
0.999984
1
1.00103
1
0.999997
0.999998
0.999997
1.00035
0.999974
1
0.999998
1
1.00005
1.022
1.04719
1
1
1
1
0.877133
0.999998
1
1
1
1
0.999989
1.00538
1
1.01287
1
1
1
1
1
0.999937
0.999999
0.999998
1.0514
1
1.00067
1.00026
1
1
1
1
1
1
1
1
0.999984
1.03577
1
1
1.00016
1
0.871696
0.999999
1.00003
1
1
1
1
1
1.01266
1
1
0.998053
1
1
1
1
1
1
1
1
1
1.00536
0.999512
1.00005
1.0088
1
0.999989
0.999981
1
1
1.06854
0.981042
0.999826
0.999989
1
0.999988
1
1
1
1
1
0.787962
1.00035
0.999999
1
1.00028
1.03573
1
1.00041
1
1
1
1
1
1
1
1
0.734637
0.999585
0.999997
1
1
1
0.819646
1
0.99997
0.999998
1.00064
1
1
1
0.666487
1
1
1.02772
1
1.00011
1.00001
1
1
0.999683
1
1
0.999998
1
1
1.01263
0.999998
1
1
1.00027
1
1
1.00046
1
1
1.00033
0.646816
1.00001
1.00005
1
1
1
0.999999
1.00508
1
1
0.999946
1
1
0.999998
1
1
1
1
0.999659
1
1
1.00002
1
1
1
1.00001
1
1.00001
1
1
1
1.00001
1
1
1
1.00006
1
1.00001
0.999998
1
1.00004
0.996635
1.00029
1
1
1
1
1.00002
1
1
0.999679
1.02332
1
1.03051
1
1.0003
1.02021
0.999979
1
0.553565
1
1
1
1.00014
0.999987
0.856554
1
1
1
0.999954
1
1
1.00001
1
1.00061
1
1
1
1.00005
1
1.00005
1
1
0.999809
1.00002
1.04558
1.03257
1
1
0.667841
1
1
1
1
1.03599
0.999999
1
1
1.00006
1
0.999573
1.0123
1
1
1
1.08856
1.00738
0.999994
1
0.997394
1
0.999014
1.02157
1
1
0.999989
1
0.981311
1.00001
1
1.01074
1
1.00168
0.992798
1
1.0002
1.00109
0.999973
0.980134
1
1
1
1
1
1
1.0004
1.03536
1.00003
1.00258
1
1
1.00009
0.977657
1
1
1
1
1
0.999997
1.00001
1
1
1
0.99999
1
1
1
1
0.457445
1
1
1
0.999996
1
1
1
1
1
1.00417
1
1
1
1.00001
1
1
1
0.616763
1
1
1
1
1
1.00001
0.999627
1
0.999553
1
1
1.0005
0.999999
1
1
1.00087
1
0.999992
0.999997
1
1.02341
0.392852
1.00176
1.09707
1
1
1.00036
1.03692
0.999932
0.999998
1
1.00001
1.02992
1
1
1
1.00169
1
1
1.00001
1
1
1
1
1.00421
1
1.00003
1
1
0.761643
1
1.00004
1.00359
0.999997
1
1
1
1
1
1
1.03524
1
1
1
1
0.880879
1
1
0.999983
1
1
1
0.825676
1
1
1
1.00053
1.04464
0.999998
1
1
1
1
1.05072
0.972521
0.999999
1
1
1
1
1.00008
1
1.01548
1
0.999998
1.00028
0.999937
0.99999
1
1
1.00035
1
1
0.999995
1
1
1
1.00002
0.999993
1.00002
1
1
1
0.82453
1
1.00003
1.00116
1
1.01528
1.01832
1
1
1
1.00004
1
0.990766
1
0.999981
1
1.00029
1
1
1.00547
1
1.00234
1
0.992283
1.01527
1
1
1
1
1.00002
1
1.00004
1
1.00163
1.02145
1
1
0.855157
1
1
1
1
1.00001
1.04004
1.00102
1
1.01011
1
1
0.999005
1
1
1
0.98917
1
1
1
1
1
0.999009
1.00029
1
1
1.038
0.975903
1
0.999974
1.00012
1.00623
1
0.999997
0.999917
1
1.00001
1.00007
1
0.755704
0.999979
1
1
1
1.00012
1.00005
1
1
0.999897
1
1.00098
0.999768
1.00001
0.999999
1.00016
1.01377
1
1
0.850147
1
1
0.999261
1
1
1.00048
1
0.912134
0.999962
1.0215
1
0.329146
1.00173
1
1
0.833747
0.948431
0.999992
0.48992
0.863833
1
1.00049
1
0.984442
0.999976
1
1
1
0.985266
1
1.02112
1
0.999937
1
1
1.02175
1
1
1.00002
0.435102
1
1.00016
1.00374
1
1
1
0.999869
1
1.031
1
0.855611
1.01503
0.999987
0.999997
1
0.925593
1.00232
1
1
0.999907
1.00266
0.999999
1
0.999944
1.00034
1.03223
1
1.00002
1
0.993941
1
1.00024
1
1.01826
1
1.04159
0.999977
1
1.0001
1
0.999998
1.00125
1.01357
1
1.0296
1
1
1
1.00001
1
1
1
1
1.00035
1
0.999982
1
1
0.910248
1.00002
1
1.00002
1
1
1
0.935954
1
1
1
0.999999
1
1.00139
1.00002
1
1.00556
1
1.00056
1
1.00531
1.06049
0.298035
1
1
1
1
1
1.00009
1.04951
1
1.00051
0.999719
0.896899
1
0.999946
1
1
1
1.02334
1
0.99883
0.999998
1
1.00519
0.983538
1
1
0.996737
0.999976
1.00011
1.00157
1
0.999999
1
1
1.0255
0.999998
1
1
0.999999
1
1
1
1.00343
1
1.00001
0.695007
0.999999
1
0.999991
1
1
0.980529
1
0.999999
0.999999
1
0.999832
1
0.999986
1.04288
1
1
1
0.999717
1
1
1
1.0373
1.04994
1
1.05001
0.999983
1
1
0.99059
1.00169
1.06501
1.00001
0.999999
1
1
1
1
1
1
1
1
1.0211
1.00305
1.00019
1
0.997805
1.00695
1
1
0.999977
1
0.999978
1
1.00598
1.00001
1
0.999996
1.00001
1
1.00183
1
1
1
1
1
1
1.003
1
1
1
0.999561
0.999993
1
0.99999
1.09855
1
1
1
1
1
1.0274
1.00018
1
1
1
1
1
0.98882
1.00015
1
0.999989
1
0.999998
0.996491
1
1.00001
1
0.997796
1
0.999999
1
0.999803
1
1.00001
1.00152
1.00587
1
1
1.01432
1.00161
0.994738
1
1
1
1
1.00001
1
1.00001
1
1.00084
0.999
0.999976
1
1
1.00004
1
1
1
1
1.0002
1
1
1.00238
0.953695
1
1.01788
1.00099
1
1
1
1
0.996242
1
1
1
0.999998
1
1
1
0.999987
1
1
1
0.999983
1.00002
1
1
0.999999
1.0218
1
1.00032
0.996706
1
0.999998
1
1
1
1
1
0.725379
0.999652
1
0.999871
1.00001
1.00025
1.03122
1.00149
1.00005
1
1.00001
1
0.999976
1
1
1
1
1.00138
1.00074
1
1
1
1
1
1.02386
1
1
1
1
1.03036
0.999999
1
1
0.992303
1
0.995105
1.02737
1.05839
1
1.00078
1
1
1
0.451159
1
1
1.00001
1
1.01465
1
0.999905
1.00364
1
1
1
1.00001
0.999878
1.00043
1
1.01981
1
1
1
1
1
1
1.00003
0.999999
1
0.999996
1.02486
1
1
1
0.999953
1
1
1
1
1.00002
1.00067
1
1.00038
1
1.00116
1.03561
0.999984
1.03478
1.00107
0.518462
1
1.00008
0.999955
0.614063
1
1.00005
1
0.951787
1
0.999966
0.999733
1.00016
0.996755
1
1
1
1.0001
1.01743
1
1
1
1.00012
1
1
1
1
1
1
1.03718
1
1
1.0004
1
1
0.992781
1
1
0.999992
1
1
1.08075
1
1.00053
1.00006
1
1
1.05382
0.999998
1
1
1
1
1
0.602411
1
1
1.00013
1.01981
0.999998
1
1.00021
1.00001
1.00102
1.00018
1
1
1
1.01405
1
0.999998
1
0.985638
1.02603
0.999798
1
1
1
1
1
1
1.00005
1.00033
1
1
0.999999
1
0.999978
1.0413
1.00479
1
0.999981
1
0.999987
0.999994
1
1.00016
1
1.00064
1
1
1
0.999999
1
1
1.0003
1
1
0.999864
1.00027
1
1
0.999967
1
1
1
0.999961
1.01387
1.01898
1
1
1
1
1
1.00321
1.00053
1
0.999478
1
1
1
0.994533
0.999985
1
1.00006
1
1
1
1.04034
1
1.00075
1.02629
1.00843
1.00001
0.981434
0.468232
1.00353
1
1
1
1.01
0.948385
1
1.00044
1
1
1.00586
1
1
1.00747
1.00034
1
1
1.00356
1.00701
1.00799
0.999594
1
1.00097
0.999093
1
1
1
1
1
0.992848
1
1
0.999994
0.974279
1
1
1
1
0.999999
0.999986
1
1.00495
1.00004
1
1.00002
0.994437
1
1.00414
1.00015
1
1.00787
0.458361
1.05053
1
1
1
1
1
1
1.00746
0.999997
0.999981
1.00434
1
1.00125
1.01455
1
1.00015
0.999984
1.00052
1.02728
1
1
1.02972
1
1
1
1
1
1.00788
0.999997
1
0.999991
1.00022
1
1
1
1
1
1
1
1.01634
1
1
1
0.999995
1
0.99999
1
1
1
1
1
1
1
1.00001
1
0.999563
1
1.00733
1
1
1
1.00679
0.999926
1
1.01212
1
1.00005
1.00009
1
0.983778
1
1
0.999945
1
1
1.01668
0.992406
1.04617
0.728856
1
1
1
0.999988
1.00097
1
1.00256
0.999992
1
0.840279
0.660374
0.999991
1
1
1
0.999922
1
0.999758
1
1.00002
1
1
1
1.0167
1
1
1
1
1.00021
1
1
1
1
1
1
1.01394
1.03726
1
1
1
1.03277
1
1
1
1.00027
1.00194
1
1
1.03996
1.00001
1
1
0.999999
0.999992
1.00006
0.999995
1
1
1
1
1.00032
1
1
1
1
1
1
1.00012
1.03909
1
1.0017
1.01106
0.808695
1
1
1
1
0.999916
1
1
1.02389
1
1
0.998935
1
0.828691
0.999977
1
1
0.999994
1
1
1
1
0.995258
1
0.999999
1
1
1
1
0.994551
0.993537
0.999997
1
0.804225
0.999997
1
1
1.0366
0.434282
1
1
0.999991
1.00385
0.999998
1
1
0.996261
1
0.905767
1
0.999986
1
1
1.00041
1
0.999911
1.04558
1
1
0.999997
0.991116
1
1
1
1.02357
1
1
1
1.00178
1
0.999999
0.822
1
1
1
1.02633
1
1
1
1
1.01921
1
1.00245
1
1.00025
0.999995
1
1
0.9395
1
1.01746
1
1
1
1.00045
1
1
1
1
1
1.0137
1.00327
1
1.01061
1
0.66408
1
1
1
1.00019
1.02407
1
1
1
1.00179
1
1.00001
1
1.0662
1
1.02853
1
1.00009
1
1
1
1
1
1
0.999994
1
0.999997
1
1.03428
1
1
0.781983
1
0.999984
1.02543
0.999998
0.995658
0.274757
1
1
1.00232
1
1
1
0.999999
1
1
1.00061
1
1.00014
1.05645
1.00069
1
1
1
1
1
1.00001
0.999985
1
0.999999
1.00022
0.998293
1
1
1
0.338722
1
1
1
1
1
0.998843
1
1
1
1
1.00718
1
1
0.999991
0.759029
1
1.00035
0.999999
1
1
1
1.00001
0.842626
1.00458
1
1.04471
1
1
1
1.00001
0.999961
0.999969
1
1
1.01854
1
0.999996
1.00015
1