/*--------------------------------*- C++ -*----------------------------------*\
  =========                 |
  \\      /  F ield         | OpenFOAM: The Open Source CFD Toolbox
   \\    /   O peration     | Website:  https://openfoam.org
    \\  /    A nd           | Version:  6
     \\/     M anipulation  |
\*---------------------------------------------------------------------------*/
FoamFile
{
    version     2.0;
    format      ascii;
    class       volScalarField;
    location    "7.2e-05";
    object      p;
}
// * * * * * * * * * * * * * * * * * * * * * * * * * * * * * * * * * * * * * //

dimensions      [0 2 -2 0 0 0 0];

internalField   nonuniform List<scalar> 
2370
(
1.10916
1.77374
2.07667
0.837753
0.84944
0.948818
1.09548
1.00154
0.794604
0.7716
-0.264526
0.691365
-0.701357
0.969045
-0.36589
-0.416647
-0.231159
-0.67972
0.448435
0.856095
0.759465
-0.670748
1.41294
-0.590082
-0.436345
0.240917
1.14434
0.506682
-1.32977
-0.364236
-1.23615
1.59113
1.03575
0.420248
0.754309
1.08961
0.25463
0.590587
0.217678
0.510371
0.636893
0.276738
0.300227
0.199923
0.97972
0.347966
0.936577
0.568112
0.190677
2.10893
0.527025
0.926193
1.47195
0.265125
0.65378
1.17233
0.871971
0.756652
0.493905
0.274529
0.175779
1.27299
0.520957
0.873595
1.07945
0.81444
0.945731
0.239911
1.25455
0.231372
0.996029
0.818641
1.12379
1.26411
1.05216
0.581207
0.611907
0.576395
0.525493
1.36806
1.2974
0.932584
1.13015
2.02839
0.520011
0.643039
0.834516
1.16848
0.827235
0.72122
0.699418
1.22645
0.686789
1.22495
0.842483
0.462203
0.611402
0.743348
0.959137
0.56356
1.46338
0.671643
1.07518
0.798668
1.43942
1.04552
0.30973
0.874951
1.00627
1.00692
0.536322
0.61284
1.00775
0.544982
1.06644
0.512748
0.633104
0.702614
0.514274
1.07119
0.734813
0.449894
0.557831
1.16832
0.716468
0.161283
0.419678
0.50808
0.746275
0.585814
0.549219
1.38184
0.811482
0.527046
1.21309
1.70634
0.646641
0.886727
1.31354
0.695103
0.555548
0.59297
-0.19601
0.473877
0.766042
0.510072
0.709125
0.755788
0.570477
0.626966
0.12793
0.729543
0.792422
0.709635
0.882087
0.86528
2.6366
1.54946
1.08825
2.22538
3.63863
-0.0707646
0.426332
0.787864
0.627937
0.48991
0.372279
0.310782
0.66078
0.279799
0.274416
0.301347
0.382602
0.260002
0.191192
0.418689
1.63581
-0.78114
-1.06397
1.10775
0.86672
-0.465019
1.13566
-0.602558
0.66746
-0.563671
-0.814633
0.955992
0.407628
-0.0212085
-0.383198
-0.434712
0.560148
-0.504737
0.643468
0.613054
0.889258
-0.365185
-0.651918
2.03871
0.628953
0.782694
-0.68921
-0.609619
0.751778
0.740643
-0.702517
-0.826814
-0.460974
0.483402
1.03226
2.28781
0.506924
-0.878508
0.846548
3.37722
1.56971
2.34548
2.26686
3.13767
2.36596
3.32567
3.55398
1.79673
4.14704
2.82896
2.42594
2.43131
1.47185
3.35568
3.84051
5.28031
2.81856
5.52515
4.51654
3.05902
6.29519
5.95085
5.34615
4.32988
5.99058
3.00701
5.09457
5.30534
3.35211
3.9529
6.00853
3.69152
3.50959
2.67295
4.15151
3.83238
3.30114
4.66377
3.5632
2.33243
4.1715
4.6118
3.30132
4.41429
3.74593
3.53933
3.08189
5.84862
2.73945
3.63919
3.87051
4.58034
3.98422
3.39583
3.3853
3.44671
2.86076
4.06399
4.43423
3.07775
7.13736
5.61073
4.88122
8.58012
8.35412
6.95579
5.81027
2.24765
3.42262
5.72187
6.83315
6.25324
6.3029
7.47718
6.70308
5.71329
5.99303
9.39541
5.59703
5.83509
4.87856
4.93053
9.50104
6.39252
6.53501
7.55157
7.73276
6.54832
6.41053
3.24101
8.1441
3.36436
7.33768
2.15244
4.46707
5.08677
6.50096
6.12036
7.19843
6.28524
0.841529
6.99687
3.33868
3.11027
3.86524
3.82172
1.81225
3.1387
3.67427
4.19917
6.26221
3.53895
2.48597
1.7975
5.94158
5.68045
4.60737
4.00381
3.30546
6.01071
5.99675
5.27615
0.728746
2.63737
1.90747
5.40716
3.00062
5.11554
5.82093
3.20832
5.54687
2.67831
5.42286
4.00054
1.33085
5.64669
6.91633
4.38316
0.437273
0.778852
0.745837
3.63316
0.573888
4.34394
2.56911
3.34764
0.523312
5.90572
2.95986
6.59625
3.63748
1.91506
0.814358
4.46057
5.34272
0.34125
5.84998
3.12905
3.72998
2.12812
2.29647
0.46721
4.63708
5.406
5.92115
2.12141
4.14203
2.79466
3.79328
5.64595
4.13418
3.92065
2.2317
0.591795
0.688447
2.08032
3.16119
3.26548
3.58304
2.7147
5.5984
2.15308
0.586612
3.32301
0.187442
1.84182
5.06468
1.33966
4.08714
4.37679
3.93401
4.10218
4.46984
5.26277
4.59907
4.05418
2.48162
3.56323
5.27915
3.51431
0.395915
0.465706
0.905542
3.26746
0.317888
4.27793
4.81105
1.50003
0.702442
2.83149
1.17988
2.19592
3.39828
0.618895
4.51086
2.16726
2.19954
4.38419
0.981885
3.58429
2.88933
0.333582
4.01525
3.09188
0.369414
4.12767
5.09947
0.244668
4.0104
3.12517
5.15603
2.62581
0.880908
1.81563
0.357464
3.08581
0.28074
2.80665
5.36196
3.29782
4.27014
3.52802
4.15038
0.48912
0.620278
0.454031
6.76217
2.54678
0.363953
3.52437
2.06428
2.19421
3.38147
1.82614
2.52131
1.45923
2.38657
4.54999
3.22135
0.940029
0.966018
0.631958
5.38547
0.791673
0.363556
3.13476
3.25834
0.631168
2.80953
3.86951
2.39216
0.672658
3.41216
3.43471
4.4468
0.644768
1.07989
2.6702
3.50015
4.99514
2.07353
3.77197
0.717933
0.473482
2.65749
3.17788
2.99028
5.01624
4.69125
5.47536
2.85541
4.06716
4.05886
3.90902
3.3063
2.84936
2.94394
1.00013
1.93245
4.94589
4.96405
2.23679
0.375139
0.288197
0.840996
1.0242
1.02721
3.22623
0.500734
2.85663
4.03109
3.85395
2.85275
3.79085
1.48359
3.56401
3.84452
3.4487
0.508104
1.73883
3.69776
1.94749
1.56607
1.01668
2.70373
2.61026
0.845304
0.70174
3.90533
5.27744
0.454532
0.241077
0.329735
2.34541
0.538707
4.60249
3.36668
3.63812
0.911952
3.41085
0.244965
0.671119
2.02098
3.20873
0.401909
0.719823
0.774788
0.453752
2.39701
3.44154
3.32652
3.26428
3.92101
2.2274
0.596551
1.62658
3.10067
1.63159
3.71104
0.656741
4.19148
4.2684
1.85911
2.41579
0.5191
3.71455
2.47688
2.11838
3.0718
3.02428
2.55555
3.8933
0.611152
0.697246
0.554046
3.28226
3.12096
3.83073
3.59054
1.86731
1.9957
2.66396
2.4883
0.481058
0.634808
2.83753
2.45538
0.602224
1.68465
0.530081
2.41044
0.594445
2.03023
2.24735
3.10212
2.74471
0.87235
1.57188
1.97367
0.533978
4.72575
4.50288
5.26015
3.01437
2.96529
2.0173
5.7486
0.481191
2.69656
0.754466
2.96749
2.85509
3.47765
2.82864
0.914874
2.64386
0.308396
0.611424
3.03046
0.531671
4.41737
6.7568
4.13124
0.342692
0.558078
5.19411
5.66047
5.14767
3.29664
3.3676
4.13752
2.8639
4.87565
4.85531
3.21007
4.80616
2.63257
3.72515
4.45318
1.8878
2.68319
2.78386
3.28185
2.5376
4.29408
2.54309
4.46248
0.782728
6.26442
3.59046
4.59743
2.72962
2.5793
0.432688
0.651777
2.76686
4.38299
0.317974
4.47819
2.62025
4.36074
1.63232
1.86926
2.61963
4.50696
3.23557
4.029
2.35767
0.446634
2.90066
3.97689
2.98825
2.77644
0.413141
2.58443
2.10381
3.17463
3.00038
4.07216
3.77049
0.662883
0.77094
4.99212
4.96984
3.0733
4.43551
2.67757
5.43833
0.338321
0.868578
3.25268
4.39501
0.890886
4.56133
0.942279
3.0464
0.991177
2.98803
3.08095
3.02421
3.52664
2.42732
5.52797
2.30357
4.55394
3.62314
0.369228
3.23959
2.38552
0.558426
4.37666
2.97277
4.44716
0.556559
4.90449
3.06448
0.454327
0.742632
2.82744
4.20621
0.319266
3.90981
2.61296
4.47268
2.83729
1.53838
2.05231
1.93988
1.49714
2.29056
1.71078
2.50946
3.1276
4.7447
4.87933
2.80014
0.617598
2.71717
1.1454
4.67069
2.6487
2.4654
3.98634
2.03878
2.07762
3.84763
2.1841
4.1098
2.545
2.66253
0.447718
3.37534
3.43557
6.53925
7.29175
4.75706
0.726149
3.89879
0.6117
0.489078
4.4861
3.64441
3.7479
3.91339
0.499961
2.85743
2.54213
2.67127
0.812553
4.65613
0.506005
3.75353
3.38721
4.31492
1.86819
1.06841
2.56769
4.02615
1.86023
3.04876
2.65968
2.14584
0.98988
1.22027
5.86571
2.36576
4.13457
2.2755
2.87096
2.41798
4.08842
2.90629
2.9136
4.03349
3.0107
2.70084
3.27952
2.834
0.997964
4.58918
6.14195
2.58944
3.20344
2.72634
2.96664
2.75594
1.5753
2.35457
3.80849
4.24057
2.7779
2.14565
3.38869
2.62297
2.07023
0.645554
2.67696
1.34245
1.84535
3.70543
4.73606
2.82435
0.264658
0.457716
4.06127
3.02833
3.18312
1.93148
2.12625
3.0434
3.52772
3.51189
0.83067
3.62782
3.27756
4.00942
0.719999
4.055
1.95802
3.93616
2.38537
3.21804
0.858939
3.19457
0.783544
4.79694
0.890152
3.20729
4.74233
7.35873
2.83193
4.78914
4.05184
4.63926
0.491032
1.51183
0.276497
4.39778
1.97862
0.779397
2.82449
2.69862
4.31373
4.45184
2.76598
4.37748
3.99359
0.661353
3.02581
1.92987
5.10812
3.84182
5.55935
1.99853
2.933
5.5508
3.09824
3.05547
4.11392
5.07376
2.7994
3.41733
3.62055
3.47049
3.40817
0.357735
2.83289
4.48266
2.99717
4.85289
3.48575
4.48754
3.24753
2.3892
1.57036
5.69817
3.35898
6.50598
6.25616
5.41815
3.47647
3.47556
1.13514
2.19298
2.87966
3.9766
5.20392
3.12259
2.44978
0.372766
4.47472
5.75459
2.67894
0.479121
5.16232
2.15055
1.27748
0.839389
3.98366
3.43278
4.18974
0.549754
1.77333
2.2648
3.75791
3.37245
0.564074
3.49729
4.63329
3.56612
3.8071
4.48896
3.78599
6.60239
4.07652
2.34958
1.94261
1.77888
4.32209
2.22287
5.45705
4.25831
2.44931
2.98354
2.69875
3.37798
3.83259
6.37884
2.15028
2.06831
3.40281
3.40243
3.08197
2.86582
3.84009
3.66456
2.4618
0.915744
2.66312
1.9015
0.526738
0.655205
0.403236
3.33914
0.833102
4.56901
4.41314
4.13235
2.89577
5.20356
3.99882
3.34976
3.35403
3.81022
2.90889
2.63833
0.479325
5.63869
2.31778
0.486781
0.878197
7.35461
3.4236
0.654692
0.717703
2.12063
1.74095
3.01868
1.95331
4.73953
4.89072
0.333294
4.48016
3.14468
3.30507
4.52431
2.02425
2.91363
0.678278
3.73271
3.01956
3.02987
4.05531
2.27984
3.97328
5.05964
2.62968
1.57969
3.73486
1.67761
1.92424
0.730398
2.0196
6.80158
5.73005
2.50453
4.47279
2.88635
1.74778
3.32301
5.45879
2.71377
0.777563
1.6406
4.597
3.85979
3.25597
2.71829
3.31424
2.47271
2.31857
3.79927
5.71398
5.21206
1.03806
1.0492
4.13428
0.705711
3.76674
0.811215
4.87204
1.99397
1.04309
1.05676
4.76355
4.67231
2.64094
5.98277
3.56756
2.72603
2.57795
2.3731
2.13216
2.71085
3.78804
2.44398
6.00988
6.3546
2.53192
2.71259
2.46403
4.98645
2.39574
2.41954
0.791145
4.57057
3.55445
4.85033
3.51243
3.16008
0.916333
0.737505
2.32079
2.28219
0.784608
1.02334
3.89995
3.62888
5.41823
4.66825
1.12722
6.65678
1.652
3.22068
1.79572
3.95373
6.67326
3.14989
3.06482
3.16997
6.03577
4.655
3.30499
2.43645
3.2518
6.61156
0.725165
5.88463
2.78293
3.55054
1.9907
4.52455
4.78819
3.41582
2.95711
5.47275
6.58618
3.03696
4.32705
2.76252
1.9791
6.32674
4.4904
1.35058
4.3919
4.019
2.81797
1.46928
1.68516
2.26811
3.43541
4.12711
0.989171
2.16455
0.927056
2.34096
2.46484
2.48205
2.56545
2.91752
3.3887
4.22504
4.79958
3.32556
3.08055
2.22294
4.56465
0.503231
2.83888
2.48933
5.7874
5.56907
3.43512
4.9044
3.92388
0.687636
0.157426
4.97958
2.04166
3.88551
2.7192
3.16352
3.51767
5.9361
5.37245
2.98664
3.477
2.79465
3.6448
4.04973
1.78573
2.47167
4.59294
3.55252
5.80736
2.01891
5.27517
3.42387
0.860634
0.718206
3.10048
3.27003
4.36737
5.23175
1.54259
3.16057
6.28431
5.39775
3.53078
3.51928
0.600509
2.944
0.356747
2.7213
2.11196
2.80758
3.75785
5.35558
2.86033
2.96008
2.7691
1.02274
3.14255
4.55777
2.65784
2.90922
4.5611
2.4559
0.645172
2.58773
3.44355
0.853555
3.36695
6.7159
4.71292
4.7127
5.78011
3.06216
3.83024
3.67078
5.26608
2.33147
2.60312
2.88652
2.99338
3.21996
2.531
3.60511
5.66795
0.385639
5.96547
2.65306
3.54528
3.46653
3.37284
3.99916
2.0391
4.27922
4.57525
2.52915
0.331828
4.98154
2.42663
4.41714
3.83463
3.60843
3.4507
2.37886
4.34007
0.534744
2.5182
3.45216
2.99117
3.75813
3.38432
6.17702
3.19995
5.47924
1.53516
2.81944
1.53275
2.94826
4.62966
5.56502
3.43675
5.02287
2.25257
3.72645
2.81593
3.01245
1.78977
0.827745
4.72572
3.27192
1.75952
5.71218
0.885116
5.43805
2.78758
2.6791
8.31318
4.20441
4.94026
3.4625
2.94967
1.11113
0.809394
5.45666
5.50443
3.37424
2.88952
1.72381
3.38717
3.5786
3.19464
9.00092
8.42347
7.87927
7.87865
6.11951
6.00577
5.58021
7.43987
3.52218
2.33667
3.96532
3.19463
4.00356
2.89334
4.25496
6.03156
9.20169
2.4824
1.78889
2.52332
6.92741
3.26753
9.42168
8.98498
3.66882
8.39369
2.1432
0.379383
2.35698
1.50815
2.89541
0.418101
2.94193
9.93962
2.9338
5.03158
3.11687
5.52061
5.08446
3.14412
6.92792
4.32961
4.60641
7.02642
1.87495
6.95848
4.34225
5.89552
3.60545
2.85696
5.22152
5.50805
4.13242
4.79388
0.640601
2.84689
2.01488
1.98027
1.48845
4.93524
5.50444
2.75239
3.85894
5.20991
3.72556
4.83864
6.82391
6.98194
6.54268
4.14426
3.98378
1.23295
4.53411
1.92682
5.17204
5.00535
1.86105
2.35984
3.85424
5.48717
8.91464
0.459729
4.50897
4.87523
2.70728
8.45002
3.79893
3.15773
4.35901
3.19787
1.62736
1.80468
1.59897
2.69395
1.41888
6.13697
4.0562
2.15678
3.00242
1.915
2.41827
5.59873
5.1143
2.85901
4.59472
3.70142
2.25096
3.62004
2.32181
2.03826
0.600057
5.04989
4.48354
0.46004
5.3354
0.616407
3.57324
3.30041
2.02505
3.07449
2.58459
3.08735
4.5074
3.82642
3.56986
2.76941
5.42135
4.01679
2.5987
4.48203
2.89388
3.94069
1.52939
4.98639
3.25122
4.19382
5.78479
4.94574
3.02512
2.76926
5.95394
6.19751
2.28287
2.31822
2.90326
3.32318
4.07524
7.25312
3.82479
6.83621
3.44818
5.24925
6.43915
5.11768
9.23027
7.79489
6.73135
0.591084
0.75526
-0.537522
-0.357767
-0.617516
0.988659
-0.247022
0.242017
0.445389
0.923699
0.202199
-0.780393
0.233448
-0.54736
-0.419407
0.208894
0.17784
-0.300913
0.351801
0.806188
0.262722
0.683896
0.676624
1.11763
0.528114
-0.615904
-0.700934
0.528349
0.874583
0.514392
0.036717
-0.542864
1.0453
-0.759916
0.739937
-0.657905
0.202077
2.96615
1.53802
1.36849
2.17007
1.99181
7.06751
1.73061
2.3373
2.86506
1.88214
4.29474
2.83746
2.10169
1.9393
3.21082
2.6828
1.65546
5.53089
1.99249
3.42492
4.30394
1.8775
2.20019
3.14234
3.88166
4.17982
3.24846
2.65581
3.77357
3.7984
3.26136
1.80341
2.8298
2.82642
3.27823
4.11875
2.33785
2.8151
3.26558
2.4516
2.2428
4.13998
4.36324
2.3525
3.46647
2.41085
2.43087
3.59643
2.96341
2.92151
4.39437
1.81236
4.43824
1.44932
2.10188
3.71108
2.69617
5.18631
2.02073
2.46991
2.98947
2.05982
4.14622
2.87398
2.45904
2.55169
3.33343
3.21116
2.60045
3.69832
2.81496
3.52841
5.13052
6.47767
4.69666
3.3471
4.05059
3.74248
5.47559
5.29081
5.40602
2.13395
1.47829
1.51958
2.60026
3.03497
1.51195
2.40142
2.4811
2.26942
2.07945
2.07097
3.81595
4.04813
2.67036
1.85619
4.2297
2.83645
3.89556
2.76076
2.90796
4.76843
4.50956
2.09741
2.91133
3.06532
2.87366
2.29269
2.36762
2.6053
2.66609
2.04756
2.70226
2.40818
2.30672
1.73235
2.17058
2.61231
3.7664
2.93502
3.42162
2.33351
3.88057
3.09608
2.57464
2.61351
3.112
4.48823
4.94197
2.12435
2.82302
2.06858
3.82369
2.55266
3.70717
2.03971
2.51189
3.58566
2.77302
3.54256
2.39732
4.87676
5.83912
3.26953
3.27005
3.5005
5.08755
4.35957
2.72048
2.36082
3.33453
4.03199
3.66574
3.77443
3.04747
4.32743
4.31129
2.52131
2.23704
3.72793
2.5231
2.80188
2.36647
2.7738
4.5913
3.86899
3.81514
2.53841
5.24362
4.57256
3.07158
1.5524
4.65831
2.79626
2.55339
2.26703
3.64559
3.30887
4.23004
3.09604
5.04736
3.4989
4.06795
5.19516
2.04633
3.69722
3.46573
3.08305
2.61352
2.78856
2.31278
1.56463
2.53292
1.59588
2.83141
3.75997
2.5681
2.7953
5.41724
3.16947
5.52554
8.42407
3.5179
8.08114
3.98426
3.45597
4.85176
3.78547
2.46395
3.37491
2.25064
3.50937
4.49104
3.33214
4.69077
5.56177
5.93552
2.86213
3.25363
4.62248
2.68821
5.93531
5.47604
2.82331
3.02357
4.76706
2.53857
3.33933
2.80373
1.92821
2.41918
6.30706
2.46529
3.20644
3.41907
3.33948
2.68048
2.19531
4.27931
2.23748
2.11183
1.32928
2.54437
3.83134
3.26859
2.7636
1.76218
1.77685
1.32241
5.30344
2.84116
1.21358
3.16628
2.37944
4.49159
3.0907
1.75912
2.2967
2.48806
2.66509
3.1246
4.73103
3.77174
2.04302
2.58954
3.65156
1.57914
2.02408
3.41405
3.69131
1.9603
3.40492
1.45223
1.78734
2.33643
2.854
4.50154
4.17823
4.2396
2.3453
1.96751
1.63106
2.12851
2.9031
4.63228
3.50182
4.24688
1.83732
3.47024
3.74087
1.82828
5.0181
2.17102
3.16503
2.84547
4.82502
4.58417
2.94082
2.25133
2.91827
2.37749
2.35175
2.01099
4.77313
2.54946
2.92652
2.47676
3.26469
1.9492
4.3429
1.83377
3.01767
2.51581
1.83192
1.94713
4.42648
4.22646
1.59335
2.66897
3.00664
2.90973
3.9346
2.27198
1.97147
1.97057
2.18756
3.11956
1.69511
2.93818
4.43017
2.57348
1.96103
1.77295
3.7365
3.87676
5.56813
2.52369
3.09742
2.86387
4.17001
2.74204
3.4784
2.58456
2.68564
3.48306
3.6757
3.29028
1.54994
2.16741
3.92141
2.70045
3.2602
2.06811
2.43311
2.26177
2.22496
2.48006
1.88355
3.06731
1.61556
1.54564
2.34986
3.84194
2.92315
3.8515
2.73779
3.18923
2.62911
1.82712
1.26842
4.23673
4.80757
2.93056
4.78613
2.65983
4.73104
3.10497
4.63253
3.7435
1.04292
2.51505
2.85439
3.84501
3.45125
2.61564
3.53468
2.02082
2.36317
3.17277
1.70114
4.27281
2.22762
5.0817
2.82837
2.41336
3.16901
1.97777
7.17315
7.80819
3.13157
8.31071
4.00531
5.32167
4.74866
1.77292
4.40775
3.9723
1.63483
4.17594
2.43354
3.17758
2.95999
1.14046
2.41384
2.22707
2.20128
0.845267
3.52019
3.237
1.16232
3.04807
2.85952
3.39668
3.60239
1.29498
3.94586
3.72741
1.50099
3.73912
4.55255
5.29878
5.51103
2.21897
6.29449
5.75056
2.28874
5.6193
2.48634
3.53067
2.91832
1.22029
5.00848
3.68479
1.58392
4.27952
4.31664
4.80171
5.51905
1.95683
7.10309
7.25316
2.94638
7.07972
1.32698
1.80941
2.09652
5.28343
2.7305
2.17348
3.80618
2.25443
3.63774
2.6086
4.15327
3.28415
5.2172
2.86039
3.40508
0.490857
2.35185
3.03012
3.79192
0.51544
2.59966
3.17883
4.44421
0.574855
3.07766
2.72882
3.43048
0.492712
2.39451
0.772503
3.84685
4.3598
5.22059
0.566012
2.70447
3.08909
3.68036
0.522553
2.57706
2.9134
3.73062
2.58532
3.82721
0.846583
4.38434
4.904
6.01719
4.29491
5.01349
0.757985
3.67782
0.276457
2.58306
3.1265
3.93355
0.174535
2.07623
3.06442
3.69846
2.41977
3.89489
3.14801
3.2074
0.840516
2.35259
-0.503265
2.34031
2.70268
2.41218
0.751624
2.35507
0.802388
0.527149
1.78008
0.586248
1.96721
2.22537
2.16248
2.89918
1.55044
3.02047
1.54562
3.02082
3.3778
4.29012
1.33368
4.27536
1.42529
3.76504
4.80729
1.56467
2.79799
2.96729
2.31788
0.0153501
1.47798
0.589642
2.39658
3.03013
3.05315
4.2696
1.40786
4.51389
1.44835
4.72626
4.96248
2.19627
0.904667
2.90963
0.509979
2.64152
1.7365
2.72258
2.7519
2.82323
0.649463
1.97625
-0.533048
3.34501
3.96329
3.01299
1.33979
1.53742
5.82618
1.5873
6.29025
5.12418
4.4587
3.00915
2.70385
0.634541
2.38674
0.622028
2.1382
2.56488
2.32291
2.13966
0.656887
1.83169
0.126646
1.52047
0.43915
1.64524
0.443182
2.34622
1.98453
4.63885
4.22019
4.10376
1.25916
2.75214
-0.267673
2.60917
0.724699
2.47948
0.683638
3.11087
3.10166
4.09687
4.47488
3.36049
1.04645
3.56187
1.16052
3.60129
4.55024
3.585
1.03145
3.6997
1.24955
3.09014
1.39391
3.38571
4.28935
2.61631
2.06179
0.607019
2.34168
0.580129
2.08192
1.05789
3.49744
0.834649
2.7635
3.01508
2.38992
1.85475
0.732031
1.7824
0.421366
1.85859
1.34693
2.3481
0.790224
2.45344
0.681593
1.95043
2.90555
4.41471
4.23977
1.39629
4.44553
1.30412
3.89986
2.41615
2.93842
2.23746
0.633396
2.36007
0.784245
2.59433
1.07479
2.91889
3.41253
2.37928
0.649207
2.07441
0.628376
2.60289
2.37302
3.45348
3.24085
0.635419
2.41519
0.723054
2.50414
2.65946
0.777226
2.48137
0.661925
2.00364
2.29959
1.07282
3.1736
0.982909
3.83872
3.88416
3.2212
3.1158
1.02708
3.51635
1.08069
3.00223
4.06422
2.19494
2.32047
0.741328
2.31074
-0.209839
1.57416
1.84399
0.546411
2.01495
0.527028
1.74807
2.36389
2.37643
0.74775
2.59779
0.678592
2.19334
2.50582
5.34577
1.95382
4.0187
5.22656
3.85668
1.26891
4.57635
1.45454
3.86596
4.66317
1.95535
2.52858
0.378752
1.84445
-0.362873
1.23274
2.8688
0.877951
3.53189
0.98836
3.79173
3.89045
5.21856
5.49007
1.51766
4.54847
1.55878
4.82877
2.84107
0.754796
2.30413
0.599273
3.15636
3.29251
3.03353
3.70635
2.89962
1.21392
1.56362
4.18247
1.39181
4.32106
5.58903
3.75637
4.19466
4.49
2.96979
0.596179
2.79114
0.891649
3.13378
0.866685
2.59682
3.36582
4.02252
3.76771
4.4535
1.46584
2.80489
-0.226521
3.04093
3.41243
0.883044
2.88301
-0.143246
1.76658
1.95674
0.587241
1.84487
0.539852
2.35589
2.38137
3.47054
1.24373
3.72723
1.27321
2.95872
4.04272
3.13744
0.823235
3.24258
0.772882
2.42535
2.92606
1.93866
2.10149
0.65713
1.93843
-0.0367746
1.4619
0.616851
2.44111
0.664503
2.19267
2.57383
2.7724
3.55559
3.77035
3.90075
1.29052
2.75566
-0.18376
1.50855
0.475506
1.65448
0.452406
2.203
2.34148
1.5818
4.58113
1.75546
5.19675
5.92863
4.75676
4.8094
1.65251
4.22995
1.19793
3.43946
4.00094
3.17443
3.37546
0.653682
2.65113
-0.341045
1.45194
3.4824
3.51072
2.53236
0.639861
2.87976
0.756054
4.5861
3.80964
3.52723
1.05473
3.8227
1.06417
3.32978
2.9545
0.706881
2.54196
0.743743
2.27868
3.67288
3.93717
3.14466
0.900701
3.91007
1.07933
3.89257
4.03271
1.18681
3.52956
1.23714
4.20582
5.10972
5.11313
1.48814
4.14199
)
;

boundaryField
{
    emptyPatches_empt
    {
        type            empty;
    }
    top_cyc
    {
        type            freestreamPressure;
        freestreamValue uniform 3;
        supersonic      false;
        value           nonuniform List<scalar> 
40
(
4.0738
3.86064
4.91951
3.36068
2.98489
2.11576
3.86042
2.01811
2.06981
2.84099
3.84865
3.01098
2.06398
3.64824
2.92235
3.49178
3.41073
3.09228
3.6412
3.36297
3.07473
3.40715
4.5505
2.00233
3.19197
3.20385
4.14946
2.66768
3.30143
3.39118
2.92662
3.03047
3.17881
2.77823
3.5642
3.19055
2.71981
3.3709
2.94257
3.01531
)
;
    }
    bottom_cyc
    {
        type            freestreamPressure;
        freestreamValue uniform 3;
        supersonic      false;
        value           nonuniform List<scalar> 
40
(
4.74478
5.64148
6.46747
6.72871
3.99682
4.77296
1.54475
3.1069
1.43048
1.53264
3.52399
1.88009
1.47971
3.85005
5.51686
4.91134
4.06339
3.40707
5.89694
3.77407
1.59591
4.18813
3.78681
5.59152
1.86321
4.54658
3.89362
4.65457
6.23019
6.34798
3.87476
4.43502
6.74425
6.94294
4.21868
4.32986
5.96561
6.2434
4.9791
4.14534
)
;
    }
    inlet_cyc
    {
        type            cyclicAMI;
        value           nonuniform List<scalar> 
30
(
5.85153
5.21492
4.83838
5.72771
3.35827
3.55429
2.62715
3.03079
2.10703
2.52267
2.87266
4.62237
3.69685
2.06407
3.31291
4.10822
4.23453
4.268
5.33666
3.56002
4.12504
1.68668
4.11492
3.32562
1.93572
2.12771
4.18845
3.49161
3.61902
3.34248
)
;
    }
    outlet_cyc
    {
        type            cyclicAMI;
        value           nonuniform List<scalar> 
30
(
4.86787
5.69822
3.61902
3.70002
4.6192
3.52224
3.19151
3.62571
4.09928
3.82344
4.47993
1.84078
4.84521
2.87266
4.268
3.34248
3.58957
2.75199
5.85153
4.10822
5.21492
3.1731
3.56002
2.91373
2.18818
1.87525
2.12376
4.51838
2.52267
2.06407
)
;
    }
}


// ************************************************************************* //
