/*--------------------------------*- C++ -*----------------------------------*\
  =========                 |
  \\      /  F ield         | OpenFOAM: The Open Source CFD Toolbox
   \\    /   O peration     | Website:  https://openfoam.org
    \\  /    A nd           | Version:  6
     \\/     M anipulation  |
\*---------------------------------------------------------------------------*/
FoamFile
{
    version     2.0;
    format      ascii;
    class       volScalarField;
    location    "1.36";
    object      p;
}
// * * * * * * * * * * * * * * * * * * * * * * * * * * * * * * * * * * * * * //

dimensions      [1 -1 -2 0 0 0 0];

internalField   nonuniform List<scalar> 
10000
(
1
1
1
1
1
1
1
1
1
1
1
1
1
1
1
1
1
1
1
1
1
1
1
1
1
1
1
1
1
1
1
1
1
1
1
1
1
1
1
1
1
1
1
1
1
1
1
1
1
1
1
1
1
1
1
1
1
1
1
1
1
1
1
1
1
1
1
1
1
1
1
1
1
1
1
1
1
1
1
1
1
1
1
1
1
1
1
1
1
1
1
1
1
1
1
1
1
1
1
1
1
1
1
1
1
1
1
1
1
1
1
1
1
1
1
1
1
1
1
1
1
1
1
1
1
1
1
1
1
1
1
1
1
1
1
1
1
1
1
1
1
1
1
1
1
1
1
1
1
1
1
1
1
1
1
1
1
1
1
1
1
1
1
1
1
1
1
1
1
1
1
1
1
1
1
1
1
1
1
1
1
1
1
1
1
1
1
1
1
1
1
1
1
1
1
1
1
1
1
1
1
1
1
1
1
1
1
1
1
1
1
1
1
1
1
1
1
1
1
1
1
1
1
1
1
1
1
1
1
1
1
1
1
1
1
1
1
1
1
1
1
1
1
1
1
1
1
1
1
1
1
1
1
1
1
1
1
1
1
1
1
1
1
1
1
1
1
1
1
1
1
1
1
1
1
1
1
1
1
1
1
1
1
1
1
1
1
1
1
1
1
1
1
1
1
1
1
1
1
1
1
1
1
1
1
1
1
1
1
1
1
1
1
1
1
1
1
1
1
1
1
1
1
1
1
1
1
1
1
1
1
1
1
1
1
1
1
1
1
1
1
1
1
1
1
1
1
1
1
1
1
1
1
1
1
1
1
1
1
1
1
1
1
1
1
1
1
1
1
1
1
1
1
1
1
1
1
1
1
1
1
1
1
1
1
1
1
1
1
1
1
1
1
1
1
1
1
1
1
1
1
1
1
1
1
1
1
1
1
1
1
1
1
1
1
1
1
1
1
1
1
1
1
1
1
1
1
1
1
1
1
1
1
1
1
1
1
1
1
1
1
1
1
1
1
1
1
1
1
1
1
1
1
1
1
1
1
1
1
1
1
1
1
1
1
1
1
1
1
1
1
1
1
1
1
1
1
1
1
1
1
1
1
1
1
1
1
1
1
1
1
1
1
1
1
1
1
1
1
1
1
1
1
1
1
1
1
1
1
1
1
1
1
1
1
1
1
1
1
1
1
1
1
1
1
1
1
1
1
1
1
1
1
1
1
1
1
1
1
1
1
1
1
1
1
1
1
1
1
1
1
1
1
1
1
1
1
1
1
1
1
1
1
1
1
1
1
1
1
1
1
1
1
1
1
1
1
1
1
1
1
1
1
1
1
1
1
1
1
1
1
1
1
1
1
1
1
1
1
1
1
1
1
1
1
1
1
1
1
1
1
1
1
1
1
1
1
1
1
1
1
1
1
1
1
1
1
1
1
1
1
1
1
1
1
1
1
1
1
1
1
1
1
1
1
0.999999
1
0.999999
1
1
1
1
1
1
1
1
1
1
1
1
1
1
1
1
1
1
1
1
1
1
1
1
1
1
1
1
1
1
1
1
1
1
1
1
1
1
1
1
1
1
1
1
1
1
1
1
1
1
1
1
1
1
1
1
1
1
1
1
1
1
1
1
1
1
1
1
1
1
1
1
1
1
1
1
1
1
1
1
1
1
1
1
1
1
1
1
1
1
1
1
0.999999
0.999999
0.999999
0.999999
0.999999
0.999999
0.999999
0.999999
0.999999
0.999999
1
1
1
1
1
1
1
1
1
1
1
1
1
1
1
1
1
1
1
1
1
1
1
1
1
1
1
1
1
1
1
1
1
1
1
1
1
1
1
1
1
1
1
1
1
1
1
1
1
1
1
1
1
1
1
1
1
1
1
1
1
1
1
1
1
1
1
1
1
1
1
1
1
1
1
1
1
1
1
1
1
1
1
1
1
1
1
1
0.999999
0.999999
0.999999
0.999999
0.999999
0.999999
0.999999
0.999998
0.999999
0.999998
0.999999
0.999999
0.999999
1
1
1
1
1
1
1
1
1
1
1
1
1
1
1
1
1
1
1
1
1
1
1
1
1
1
1
1
1
1
1
1
1
1
1
1
1
1
1
1
1
1
1
1
1
1
1
1
1
1
1
1
1
1
1
1
1
1
1
1
1
1
1
1
1
1
1
1
1
1
1
1
1
1
1
1
1
1
1
1
1
1
1
1
1
1
0.999999
0.999999
0.999999
0.999998
0.999998
0.999998
0.999998
0.999998
0.999997
0.999998
0.999997
0.999998
0.999998
0.999998
0.999999
0.999999
1
1
1
1
1
1
1
1
1
1
1
1
1
1
1
1
1
1
1
1
1
1
1
1
1
1
1
1
1
1
1
1
1
1
1
1
1
1
1
1
1
1
1
1
1
1
1
1
1
1
1
1
1
1
1
1
1
1
1
1
1
1
1
1
1
1
1
1
1
1
1
1
1
1
1
1
1
1
1
1
1
1
1
1
0.999999
0.999998
0.999998
0.999997
0.999997
0.999996
0.999995
0.999995
0.999995
0.999996
0.999996
0.999996
0.999997
0.999998
0.999998
0.999999
1
1
1
1
1
1
1
1
1
1
1
1
1
1
1
1
1
1
1
1
1
1
1
1
1
1
1
1
1
1
1
1
1
1
1
1
1
1
1
1
1
1
1
1
1
1
1
1
1
1
1
1
1
1
1
1
1
1
1
1
1
1
1
1
1
1
1
1
1
1
1
1
1
1
1
1
1
1
1
1
1
1
1
0.999999
0.999998
0.999997
0.999996
0.999995
0.999994
0.999992
0.999992
0.999992
0.999992
0.999993
0.999993
0.999994
0.999994
0.999996
0.999997
0.999998
0.999999
0.999999
1
1
1
1
1
1
1
1
1
1
1
1
1
1
1
1
1
1
1
1
1
1
1
1
1
1
1
1
1
1
1
1
1
1
1
1
1
1
1
1
1
1
1
1
1
1
1
1
1
1
1
1
1
1
1
1
1
1
1
1
1
1
1
1
1
1
1
1
1
1
1
1
1
1
1
1
1
1
1
1
1
0.999999
0.999997
0.999995
0.999992
0.999991
0.999989
0.999987
0.999986
0.999987
0.999987
0.999988
0.999988
0.99999
0.999991
0.999993
0.999995
0.999996
0.999998
0.999999
1
1
1
1
1
1
1
1
1
1
1
0.999999
0.999999
1
1
1
1
1
1
1
1
1
1
1
1
1
1
1
1
1
1
1
1
1
1
1
1
1
1
1
1
1
1
1
1
1
1
1
1
1
1
1
1
1
1
1
1
1
1
1
1
1
1
1
1
1
1
1
1
1
1
1
1
1
1
1
1
1
1
1
1
0.999999
0.999996
0.999992
0.999989
0.999984
0.999982
0.999979
0.999978
0.999978
0.999978
0.99998
0.999982
0.999985
0.999987
0.99999
0.999992
0.999995
0.999997
0.999998
1
1
1
1
1
1
1
1
1
1
1
1
1
1
1
1
0.999999
0.999999
1
1
1
1
1
1
1
1
1
1
1
1
1
1
1
1
1
1
1
1
1
1
1
1
1
1
1
1
1
1
1
1
1
1
1
1
1
1
1
1
1
1
1
1
1
1
1
1
1
1
1
1
1
1
1
1
1.00001
1.00001
1.00001
1.00001
1.00001
1.00001
1
1
0.999994
0.999988
0.999983
0.999975
0.99997
0.999967
0.999965
0.999965
0.999966
0.999968
0.999971
0.999975
0.999979
0.999984
0.999987
0.999992
0.999994
0.999998
0.999999
1
1
1
1
1
1
1
1
1
1
1
1
0.999999
0.999999
1
1
0.999999
0.999999
0.999999
0.999999
1
1
1
1
1
1
1
1
1
1
1
1
1
1
1
1
1
1
1
1
1
1
1
1
1
1
1
1
1
1
1
1
1
1
1
1
1
1
1
1
1
1
1
1
1
1
1
1
1
1
1
1.00001
1.00001
1.00001
1.00001
1.00002
1.00002
1.00002
1.00002
1.00001
1
0.999993
0.999984
0.999972
0.999962
0.999954
0.999948
0.999945
0.999944
0.999946
0.999951
0.999955
0.999961
0.999968
0.999975
0.99998
0.999987
0.999991
0.999996
0.999998
1
1
1
1
1
1
1
1
1
1
1
1
1
1
0.999999
0.999999
1
0.999999
0.999999
0.999999
0.999999
1
1
1
1
1
1
1
1
1
1
1
1
1
1
1
1
1
1
1
1
1
1
1
1
1
1
1
1
1
1
1
1
1
1
1
1
1
1
1
1
1
1
1
1
1
1
1
1
1
1.00001
1.00001
1.00002
1.00002
1.00003
1.00003
1.00003
1.00003
1.00003
1.00002
1.00001
0.999993
0.999978
0.999959
0.999945
0.999931
0.999923
0.999917
0.999916
0.999918
0.999925
0.999932
0.999941
0.999951
0.999961
0.999971
0.999978
0.999986
0.999992
0.999997
1
1
1.00001
1.00001
1.00001
1.00001
1.00001
1.00001
1.00001
1
1
1
1
1
0.999999
0.999999
0.999999
1
0.999999
0.999999
0.999999
0.999999
1
1
1
1
1
1
1
1
1
1
1
1
1
1
1
1
1
1
1
1
1
1
1
1
1
1
1
1
1
1
1
1
1
1
1
1
1
1
1
1
1
1
1
1
1
1
1
1.00001
1.00001
1.00002
1.00003
1.00004
1.00005
1.00006
1.00006
1.00006
1.00005
1.00004
1.00002
0.999999
0.999972
0.999946
0.999923
0.999903
0.999889
0.99988
0.999878
0.999881
0.999889
0.9999
0.999913
0.999927
0.999941
0.999956
0.999967
0.999978
0.999987
0.999993
1
1
1.00001
1.00001
1.00001
1.00001
1.00001
1.00001
1.00001
1.00001
1.00001
1
1
1
1
0.999999
0.999998
0.999998
0.999998
0.999999
0.999999
0.999999
0.999999
0.999999
1
1
1
1
1
1
1
1
1
1
1
1
1
1
1
1
1
1
1
1
1
1
1
1
1
1
1
1
1
1
1
1
1
1
1
1
1
1
1
1
1
1
1
1
1.00001
1.00001
1.00002
1.00003
1.00005
1.00006
1.00008
1.00009
1.0001
1.0001
1.00009
1.00007
1.00005
1.00001
0.999972
0.999936
0.9999
0.999871
0.999849
0.999835
0.999831
0.999834
0.999844
0.999857
0.999875
0.999893
0.999913
0.999932
0.99995
0.999966
0.999979
0.999989
0.999998
1.00001
1.00001
1.00001
1.00002
1.00001
1.00002
1.00001
1.00001
1.00001
1.00001
1.00001
1
1
1
0.999999
0.999998
0.999997
0.999998
0.999998
0.999998
0.999999
0.999998
0.999998
0.999999
0.999999
1
1
1
1
1
1
1
1
1
1
1
1
1
1
1
1
1
1
1
1
1
1
1
1
1
1
1
1
1
1
1
1
1
1
1
1
1
1
1
1
1
1.00001
1.00001
1.00002
1.00004
1.00005
1.00008
1.0001
1.00013
1.00015
1.00016
1.00016
1.00015
1.00013
1.00009
1.00004
0.999988
0.999935
0.999884
0.999843
0.999811
0.99979
0.999779
0.999779
0.999788
0.999805
0.999826
0.99985
0.999876
0.999902
0.999924
0.99995
0.999964
0.999985
0.999994
1.00001
1.00001
1.00002
1.00002
1.00002
1.00002
1.00002
1.00002
1.00001
1.00001
1.00001
1.00001
1
1
0.999998
0.999997
0.999997
0.999996
0.999996
0.999997
0.999997
0.999998
0.999999
0.999999
0.999999
0.999999
1
1
1
1
1
1
1
1
1
1
1
1
1
1
1
1
1
1
1
1
1
1
1
1
1
1
1
1
1
1
1
1
1
1
1
1
1
1
1
1.00001
1.00001
1.00002
1.00003
1.00005
1.00008
1.00012
1.00016
1.00019
1.00023
1.00025
1.00025
1.00024
1.00021
1.00016
1.0001
1.00003
0.999959
0.999894
0.999836
0.99979
0.999756
0.999736
0.999728
0.999734
0.999749
0.999772
0.9998
0.999831
0.999863
0.999895
0.999924
0.999949
0.999972
0.99999
1.00001
1.00002
1.00002
1.00003
1.00003
1.00003
1.00003
1.00003
1.00003
1.00002
1.00001
1.00001
1.00001
1
0.999999
0.999996
0.999995
0.999995
0.999995
0.999994
0.999996
0.999997
0.999998
0.999998
0.999999
0.999999
0.999999
1
1
1
1
1
1
1
1
1
1
1
1
1
1
1
1
1
1
1
1
1
1
1
1
1
1
1
1
1
1
1
1
1
1
1
1
1
1
1.00001
1.00002
1.00003
1.00005
1.00008
1.00012
1.00017
1.00023
1.00028
1.00033
1.00036
1.00037
1.00036
1.00033
1.00027
1.0002
1.00012
1.00004
0.999955
0.999877
0.999813
0.999761
0.999725
0.999704
0.999698
0.999705
0.999725
0.999751
0.999784
0.999821
0.999861
0.999893
0.999932
0.999956
0.999988
1
1.00002
1.00004
1.00004
1.00005
1.00005
1.00005
1.00004
1.00004
1.00003
1.00003
1.00002
1.00001
1.00001
1
0.999997
0.999995
0.999992
0.999991
0.999993
0.999995
0.999995
0.999995
0.999997
0.999998
0.999999
1
1
1
1
1
1
1
1
1
1
1
1
1
1
1
1
1
1
1
1
1
1
1
1
1
1
1
1
1
1
1
1
1
1
1
1
1
1
1.00001
1.00001
1.00002
1.00004
1.00007
1.00011
1.00017
1.00023
1.00031
1.00038
1.00045
1.0005
1.00053
1.00053
1.0005
1.00045
1.00038
1.00029
1.0002
1.0001
1.00001
0.999925
0.999851
0.99979
0.999745
0.999719
0.999707
0.999711
0.999728
0.999755
0.999791
0.999828
0.999871
0.99991
0.999946
0.99998
1.00001
1.00003
1.00005
1.00006
1.00007
1.00007
1.00007
1.00007
1.00006
1.00005
1.00004
1.00003
1.00002
1.00001
1.00001
1
0.999992
0.999989
0.99999
0.99999
0.99999
0.999992
0.999995
0.999996
0.999997
0.999998
0.999999
0.999999
0.999999
1
1
1
1
1
1
1
1
1
1
1
1
1
1
1
1
1
1
1
1
1
1
1
1
1
1
1
1
1
1
1
1
1
1
1
1.00001
1.00002
1.00003
1.00005
1.00009
1.00015
1.00022
1.00031
1.00041
1.00051
1.0006
1.00068
1.00073
1.00075
1.00075
1.00072
1.00066
1.00058
1.00049
1.00039
1.00029
1.00019
1.00009
0.999994
0.999914
0.999851
0.999805
0.999778
0.999769
0.999776
0.999798
0.999827
0.999866
0.999905
0.999948
0.999982
1.00002
1.00005
1.00007
1.00009
1.0001
1.00011
1.00011
1.0001
1.00009
1.00008
1.00007
1.00005
1.00004
1.00003
1.00001
1
0.999993
0.999989
0.999985
0.999984
0.999986
0.999989
0.999991
0.999993
0.999995
0.999997
0.999998
0.999999
0.999999
1
1
1
1
1
1
1
1
1
1
1
1
1
1
1
1
1
1
1
1
1
1
1
1
1
1
1
1
1
1
1
1
1
1
1
1.00001
1.00002
1.00004
1.00007
1.00012
1.00018
1.00027
1.00038
1.00051
1.00064
1.00076
1.00088
1.00097
1.00103
1.00107
1.00108
1.00106
1.00103
1.00097
1.00089
1.00079
1.00068
1.00055
1.00042
1.0003
1.00018
1.00008
1
0.999945
0.99991
0.999896
0.9999
0.999919
0.999945
0.999981
1.00002
1.00005
1.00008
1.00011
1.00014
1.00015
1.00016
1.00016
1.00015
1.00014
1.00013
1.00011
1.00009
1.00007
1.00005
1.00002
1.00001
0.999996
0.999986
0.999983
0.999981
0.999981
0.999983
0.999986
0.99999
0.999993
0.999996
0.999998
0.999999
1
1
1
1
1
1
1
1
1
1
1
1
1
1
1
1
1
1
1
1
1
1
1
1
1
1
1
1
1
1
1
1
1
1
1
1.00001
1.00001
1.00002
1.00004
1.00008
1.00014
1.00021
1.00032
1.00045
1.00061
1.00077
1.00094
1.0011
1.00124
1.00137
1.00147
1.00156
1.00162
1.00166
1.00166
1.00164
1.00158
1.00148
1.00134
1.00118
1.001
1.00082
1.00065
1.00049
1.00036
1.00025
1.00017
1.00012
1.0001
1.00009
1.0001
1.00012
1.00014
1.00017
1.0002
1.00022
1.00024
1.00024
1.00024
1.00024
1.00022
1.0002
1.00017
1.00014
1.00011
1.00008
1.00005
1.00003
1
0.999991
0.999981
0.999975
0.999976
0.999979
0.999983
0.999987
0.999991
0.999994
0.999997
0.999998
0.999999
1
1
1
1
1
1
1
1
1
1
1
1
1
1
1
1
1
1
1
1
1
1
1
1
1
1
1
1
1
1
1
1
1
1
1.00001
1.00001
1.00002
1.00005
1.00009
1.00015
1.00024
1.00036
1.00051
1.00069
1.00089
1.00111
1.00132
1.00154
1.00175
1.00195
1.00215
1.00233
1.00249
1.00262
1.00269
1.00271
1.00266
1.00255
1.00237
1.00215
1.0019
1.00164
1.00138
1.00115
1.00093
1.00076
1.00062
1.00051
1.00044
1.00039
1.00037
1.00036
1.00037
1.00037
1.00038
1.00039
1.00039
1.00039
1.00037
1.00035
1.00032
1.00028
1.00024
1.00019
1.00014
1.0001
1.00005
1.00002
0.999997
0.999978
0.999972
0.99997
0.999971
0.999976
0.999982
0.999987
0.999991
0.999994
0.999997
0.999998
0.999999
1
1
1
1
1
1
1
1
1
1
1
1
1
1
1
1
1
1
1
1
1
1
1
1
1
1
1
1
1
1
1
1
1
1.00001
1.00001
1.00003
1.00005
1.00009
1.00016
1.00025
1.00038
1.00055
1.00075
1.00099
1.00126
1.00154
1.00185
1.00216
1.0025
1.00283
1.00318
1.00352
1.00382
1.00407
1.00423
1.00429
1.00424
1.00409
1.00385
1.00355
1.0032
1.00284
1.00248
1.00214
1.00183
1.00155
1.00132
1.00114
1.001
1.00088
1.00081
1.00076
1.00072
1.0007
1.00068
1.00066
1.00063
1.0006
1.00056
1.0005
1.00045
1.00038
1.00031
1.00024
1.00017
1.00011
1.00006
1.00001
0.999989
0.999973
0.999964
0.999965
0.999971
0.999976
0.999983
0.999989
0.999993
0.999996
0.999998
0.999999
1
1
1
1
1
1
1
1
1
1
1
1
1
1
1
1
1
1
1
1
1
1
1
1
1
1
1
1
1
1
1
1
1
1.00001
1.00001
1.00003
1.00005
1.00009
1.00015
1.00025
1.00038
1.00056
1.00079
1.00106
1.00137
1.00174
1.00213
1.00257
1.00306
1.00358
1.00414
1.00471
1.00525
1.00573
1.00611
1.00636
1.00645
1.00639
1.00619
1.00587
1.00547
1.00502
1.00454
1.00405
1.00358
1.00315
1.00276
1.00241
1.00212
1.00187
1.00168
1.00152
1.00139
1.00129
1.00121
1.00113
1.00106
1.00098
1.0009
1.00082
1.00072
1.00061
1.0005
1.00039
1.00029
1.0002
1.00011
1.00005
1.00001
0.999976
0.999964
0.999961
0.999962
0.99997
0.999979
0.999986
0.999991
0.999995
0.999997
0.999999
0.999999
1
1
1
1
1
1
1
1
1
1
1
1
1
1
1
1
1
1
1
1
1
1
1
1
1
1
1
1
1
1
1
1
1
1.00001
1.00002
1.00004
1.00008
1.00014
1.00023
1.00037
1.00055
1.00079
1.00109
1.00145
1.00188
1.00238
1.00295
1.00361
1.00434
1.00514
1.00598
1.00683
1.00762
1.00831
1.00883
1.00916
1.00927
1.00918
1.00892
1.00852
1.00802
1.00745
1.00685
1.00623
1.00563
1.00505
1.00452
1.00403
1.0036
1.00322
1.00289
1.00261
1.00237
1.00216
1.00198
1.00181
1.00165
1.00149
1.00133
1.00116
1.00099
1.00081
1.00065
1.00049
1.00034
1.00022
1.00012
1.00004
0.999995
0.999968
0.999955
0.999958
0.999966
0.999974
0.999982
0.999989
0.999993
0.999996
0.999998
0.999999
1
1
1
1
1
1
1
1
1
1
1
1
1
1
1
1
1
1
1
1
1
1
1
1
1
1
1
1
1
1
1
1
1
1.00001
1.00002
1.00004
1.00007
1.00012
1.00021
1.00033
1.00051
1.00075
1.00107
1.00147
1.00196
1.00256
1.00327
1.00409
1.00504
1.00611
1.00726
1.00846
1.00964
1.01071
1.01161
1.01226
1.01264
1.01276
1.01264
1.01232
1.01184
1.01125
1.01059
1.00988
1.00915
1.00842
1.0077
1.00701
1.00637
1.00576
1.00521
1.0047
1.00425
1.00383
1.00346
1.00311
1.00279
1.00248
1.00217
1.00188
1.00159
1.00131
1.00104
1.00078
1.00056
1.00037
1.00022
1.0001
1.00003
0.999979
0.99996
0.999956
0.99996
0.999969
0.999978
0.999986
0.999992
0.999996
0.999998
0.999999
1
1
1
1
1
1
1
1
1
1
1
1
1
1
1
1
1
1
1
1
1
1
1
1
1
1
1
1
1
1
1
1
1
1.00001
1.00001
1.00003
1.00005
1.0001
1.00017
1.00028
1.00045
1.00068
1.00101
1.00143
1.00197
1.00265
1.00348
1.00448
1.00564
1.00698
1.00846
1.01004
1.01164
1.01317
1.01452
1.01559
1.01634
1.01674
1.01683
1.01666
1.01629
1.01577
1.01514
1.01443
1.01367
1.01288
1.01207
1.01124
1.01042
1.00961
1.00881
1.00803
1.00729
1.00658
1.00591
1.00527
1.00468
1.0041
1.00356
1.00304
1.00254
1.00208
1.00164
1.00124
1.00089
1.0006
1.00037
1.0002
1.00007
1
0.999966
0.999952
0.999954
0.999964
0.999975
0.999984
0.99999
0.999995
0.999997
0.999999
1
1
1
1
1
1
1
1
1
1
1
1
1
1
1
1
1
1
1
1
1
1
1
1
1
1
1
1
1
1
1
1
1
1
1.00001
1.00002
1.00004
1.00007
1.00012
1.00022
1.00037
1.00058
1.0009
1.00133
1.00191
1.00265
1.00358
1.00472
1.00608
1.00767
1.00948
1.01144
1.0135
1.01552
1.01738
1.01894
1.0201
1.02084
1.02117
1.02118
1.02093
1.02051
1.01998
1.01938
1.01873
1.01804
1.01731
1.01653
1.0157
1.01482
1.01387
1.01288
1.01184
1.01079
1.00973
1.00869
1.00767
1.00669
1.00575
1.00485
1.00401
1.00324
1.00253
1.00191
1.00137
1.00093
1.00058
1.00031
1.00014
1.00003
0.999972
0.99995
0.99995
0.999958
0.99997
0.999981
0.999989
0.999994
0.999997
0.999999
0.999999
1
1
1
1
1
1
1
1
1
1
1
1
1
1
1
1
1
1
1
1
1
1
1
1
1
1
1
1
1
1
1
1
1
1
1.00001
1.00002
1.00004
1.00008
1.00015
1.00027
1.00047
1.00076
1.00118
1.00177
1.00255
1.00355
1.0048
1.00634
1.00816
1.01026
1.01259
1.01508
1.01761
1.02
1.02206
1.02365
1.02468
1.02519
1.02525
1.025
1.02458
1.02409
1.0236
1.02316
1.02276
1.02236
1.02194
1.02145
1.02083
1.02005
1.01909
1.01795
1.01664
1.01521
1.01369
1.01212
1.01056
1.00902
1.00755
1.00618
1.00493
1.00381
1.00284
1.00202
1.00136
1.00084
1.00047
1.00022
1.00006
0.999979
0.999946
0.999941
0.999951
0.999965
0.999977
0.999986
0.999992
0.999996
0.999998
0.999999
1
1
1
1
1
1
1
1
1
1
1
1
1
1
1
1
1
1
1
1
1
1
1
1
1
1
1
1
1
1
0.999999
0.999998
0.999998
1
1
1
1.00001
1.00004
1.00009
1.00019
1.00035
1.00061
1.001
1.00157
1.00235
1.00339
1.00473
1.00639
1.0084
1.01075
1.01342
1.01632
1.01931
1.0222
1.02474
1.02668
1.02788
1.02832
1.02812
1.02748
1.02664
1.02581
1.02517
1.02479
1.02469
1.02482
1.02512
1.02546
1.0257
1.02573
1.02542
1.02472
1.0236
1.02208
1.02023
1.01813
1.01587
1.01358
1.01133
1.0092
1.00725
1.00554
1.00407
1.00285
1.00189
1.00116
1.00064
1.00029
1.00009
0.999977
0.999932
0.999927
0.999939
0.999955
0.999971
0.999983
0.999991
0.999995
0.999998
0.999999
1
1
1
1
1
1
1
1
1
1
1
1
1
1
1
1
1
1
1
1
1
1
1
1
1
1
1
1
1
1
1
0.999999
0.999998
0.999997
0.999993
0.999994
0.999996
1.00001
1.00004
1.0001
1.00023
1.00045
1.00079
1.00132
1.00208
1.00312
1.0045
1.00625
1.0084
1.01096
1.0139
1.01715
1.02056
1.02388
1.02681
1.02898
1.0301
1.03006
1.02898
1.02715
1.02498
1.02289
1.02123
1.02023
1.01998
1.02049
1.02166
1.0233
1.02517
1.02697
1.02844
1.02933
1.02947
1.02877
1.02727
1.02505
1.02232
1.01927
1.01612
1.01305
1.01021
1.00771
1.00558
1.00385
1.0025
1.0015
1.00081
1.00036
1.00009
0.999959
0.999909
0.999904
0.99992
0.999944
0.999965
0.99998
0.999989
0.999994
0.999997
0.999999
1
1
1
1
1
1
1
1
1
1
1
1
1
1
1
1
1
1
1
1
1
1
1
1
1
1
1
1
1
1
1
1
0.999998
0.999994
0.999991
0.999986
0.999981
0.999983
0.999995
1.00003
1.00012
1.00029
1.00059
1.00105
1.00176
1.00276
1.00413
1.00592
1.00816
1.01088
1.01404
1.01758
1.02133
1.02501
1.02821
1.03042
1.03113
1.03002
1.02714
1.02286
1.0178
1.01273
1.00831
1.00508
1.00334
1.00327
1.00486
1.00788
1.01197
1.01667
1.0215
1.02589
1.02934
1.03143
1.03195
1.03091
1.02856
1.02526
1.02141
1.01742
1.01361
1.01018
1.00727
1.00493
1.00313
1.00183
1.00095
1.00039
1.00007
0.999921
0.99987
0.999873
0.999901
0.999932
0.999957
0.999974
0.999986
0.999993
0.999997
0.999999
0.999999
1
1
1
1
1
1
1
1
1
1
1
1
1
1
1
1
1
1
1
1
1
1
1
1
1
1
1
1
0.999999
0.999999
0.999998
0.999996
0.999994
0.99999
0.999981
0.999972
0.999966
0.999965
0.999983
1.00004
1.00016
1.00039
1.00078
1.00141
1.00234
1.00366
1.00544
1.00772
1.01054
1.01387
1.01764
1.02167
1.02561
1.02897
1.03102
1.03096
1.0281
1.02225
1.01379
1.00364
0.992992
0.983052
0.974862
0.969156
0.96644
0.966961
0.970569
0.976843
0.985247
0.995107
1.00551
1.01536
1.02353
1.02919
1.03197
1.032
1.0298
1.02608
1.02159
1.01697
1.01267
1.00896
1.00597
1.00371
1.00209
1.00102
1.00037
1.00001
0.999858
0.999818
0.999837
0.999877
0.999916
0.999948
0.99997
0.999985
0.999993
0.999997
0.999998
0.999999
1
1
1
1
1
1
1
1
1
1
1
1
1
1
1
1
1
1
1
1
1
1
1
1
1
1
1
1
1
1
0.999998
0.999997
0.999995
0.999989
0.999983
0.999972
0.999959
0.99995
0.999949
0.999975
1.00005
1.00022
1.00053
1.00106
1.00189
1.00312
1.00484
1.00711
1.00997
1.01342
1.01738
1.02163
1.02578
1.02919
1.03093
1.02979
1.02453
1.01449
0.999906
0.981974
0.962507
0.9435
0.926776
0.913763
0.905464
0.902492
0.904882
0.912279
0.924249
0.940207
0.959018
0.978851
0.997452
1.01276
1.02345
1.02919
1.03053
1.02856
1.02456
1.01966
1.01475
1.01038
1.00682
1.00413
1.00224
1.00101
1.00029
0.999923
0.999777
0.999758
0.999797
0.999851
0.999902
0.999941
0.999968
0.999983
0.999992
0.999996
0.999998
0.999999
1
1
1
1
1
1
1
1
1
1
1
1
1
1
1
1
1
1
1
1
1
1
1
1
1
1
1
1
1
1
1
0.999999
0.999996
0.999991
0.999985
0.999976
0.99996
0.999943
0.999933
0.999935
0.999973
1.00009
1.00031
1.00074
1.00144
1.00254
1.00415
1.00635
1.00921
1.01273
1.01683
1.02129
1.02562
1.02905
1.03039
1.02799
1.01989
1.00463
0.98208
0.953692
0.922121
0.890489
0.861744
0.83822
0.82143
0.812288
0.811062
0.817591
0.831821
0.853663
0.88219
0.914978
0.948322
0.978265
1.00176
1.01742
1.02552
1.02753
1.02542
1.0211
1.01607
1.01131
1.00734
1.00433
1.00224
1.00092
1.00017
0.999809
0.999692
0.9997
0.99976
0.999831
0.999892
0.999937
0.999966
0.999982
0.999991
0.999996
0.999998
0.999999
1
1
1
1
1
1
1
1
1
1
1
1
1
1
1
1
1
1
1
1
1
1
1
1
1
1
1
1
1
1
0.999999
0.999999
0.999997
0.999993
0.999986
0.999978
0.999964
0.999945
0.999926
0.999915
0.999924
0.999986
1.00014
1.00046
1.00103
1.00197
1.00342
1.00549
1.00829
1.01183
1.01604
1.02069
1.02524
1.02871
1.02968
1.02602
1.01496
0.993937
0.962132
0.921226
0.875008
0.828188
0.785172
0.749191
0.722104
0.704892
0.698003
0.701584
0.716146
0.742488
0.780424
0.827386
0.878261
0.926726
0.967263
0.996704
1.01464
1.0228
1.02401
1.02113
1.01649
1.01166
1.00748
1.00429
1.0021
1.00075
1.00002
0.999694
0.999614
0.999653
0.999736
0.99982
0.999888
0.999935
0.999965
0.999982
0.999992
0.999996
0.999999
0.999999
1
1
1
1
1
1
1
1
1
1
1
1
1
1
1
1
1
1
1
1
1
1
1
1
1
1
1
1
1
1
1
0.999999
0.999998
0.999996
0.999989
0.99998
0.99997
0.999953
0.999929
0.999912
0.999902
0.999921
1.00001
1.00023
1.00067
1.00143
1.00269
1.00458
1.00725
1.01075
1.01504
1.01987
1.02468
1.02832
1.02904
1.02433
1.01057
0.983889
0.942444
0.888075
0.826042
0.763139
0.705428
0.656845
0.619354
0.593792
0.580603
0.580216
0.593708
0.622872
0.668648
0.728925
0.797608
0.865979
0.925581
0.970877
1.00035
1.01587
1.02115
1.02017
1.01621
1.01151
1.00729
1.00406
1.00186
1.00055
0.999866
0.999598
0.999561
0.999629
0.999728
0.99982
0.99989
0.999938
0.999967
0.999984
0.999993
0.999997
0.999999
1
1
1
1
1
1
1
1
1
1
1
1
1
1
1
1
1
1
1
1
1
1
1
1
1
1
1
1
1
1
1
1
0.999998
0.999998
0.999997
0.999994
0.999987
0.999976
0.999962
0.99994
0.999918
0.999895
0.999891
0.999932
1.00006
1.00037
1.00096
1.002
1.00366
1.00612
1.00952
1.01383
1.01883
1.02396
1.02795
1.02869
1.02327
1.00739
0.975842
0.925427
0.85798
0.780507
0.702277
0.63105
0.571276
0.524877
0.492428
0.47409
0.470326
0.482602
0.513551
0.565341
0.636749
0.721276
0.808148
0.885927
0.946475
0.986971
1.00937
1.01834
1.01901
1.01565
1.0111
1.00691
1.00371
1.00159
1.00035
0.999751
0.999543
0.999544
0.999633
0.99974
0.999832
0.9999
0.999945
0.999972
0.999986
0.999994
0.999997
0.999999
1
1
1
1
1
1
1
1
1
1
1
1
1
1
1
1
1
1
1
1
1
1
1
1
1
1
1
1
1
1
1
1
0.999999
0.999999
0.999997
0.999994
0.999991
0.999982
0.99997
0.999953
0.999928
0.999902
0.99988
0.999888
0.999953
1.00015
1.00057
1.00138
1.00277
1.00497
1.00818
1.01243
1.01755
1.02303
1.02756
1.02869
1.02305
1.00586
0.970755
0.913001
0.834118
0.742904
0.651248
0.56859
0.499884
0.44696
0.41006
0.388832
0.383412
0.395415
0.428141
0.484845
0.565259
0.662761
0.76488
0.857501
0.930123
0.978851
1.00592
1.01702
1.01841
1.01517
1.0106
1.00644
1.00333
1.00132
1.0002
0.999689
0.999537
0.999567
0.999665
0.99977
0.999856
0.999916
0.999955
0.999977
0.999989
0.999995
0.999998
0.999999
1
1
1
1
1
1
1
1
1
1
1
1
1
1
1
1
1
1
1
1
1
1
1
1
1
1
1
1
1
1
1
1
1
1
0.999998
0.999996
0.999994
0.999988
0.999978
0.999965
0.999943
0.999917
0.999889
0.999873
0.999891
0.999996
1.00027
1.00086
1.00197
1.00385
1.00676
1.01087
1.01605
1.02184
1.02705
1.029
1.02376
1.00615
0.969082
0.906305
0.818633
0.716329
0.613733
0.521969
0.446661
0.389575
0.350536
0.328622
0.323444
0.336608
0.372007
0.433768
0.522193
0.630229
0.743746
0.84641
0.926101
0.978592
1.00688
1.0178
1.0186
1.01487
1.01009
1.00593
1.00294
1.0011
1.00011
0.999685
0.99958
0.999625
0.999719
0.999812
0.999885
0.999935
0.999966
0.999983
0.999992
0.999996
0.999998
0.999999
1
1
1
1
1
1
1
1
1
1
1
1
1
1
1
1
1
1
1
1
1
1
1
1
1
1
1
1
1
1
1
1
1
0.999999
0.999999
0.999999
0.999996
0.999992
0.999986
0.999974
0.999957
0.999934
0.999906
0.999879
0.999866
0.999906
1.00007
1.00046
1.00129
1.00281
1.00535
1.00918
1.01431
1.02035
1.02626
1.0294
1.0253
1.00826
0.970845
0.905665
0.812506
0.702402
0.591628
0.49297
0.412977
0.353489
0.313883
0.292742
0.289302
0.305185
0.344832
0.41293
0.509587
0.626445
0.747398
0.854501
0.935226
0.986193
1.01183
1.02022
1.01923
1.01456
1.00947
1.00536
1.00257
1.00092
1.00007
0.999733
0.999661
0.999706
0.999786
0.999861
0.999917
0.999954
0.999976
0.999988
0.999995
0.999998
0.999999
1
1
1
1
1
1
1
1
1
1
1
1
1
1
1
1
1
1
1
1
1
1
1
1
1
1
1
1
1
1
1
1
1
1
1
0.999999
0.999998
0.999997
0.999995
0.99999
0.999983
0.99997
0.999952
0.999924
0.999895
0.999868
0.999866
0.999937
1.00017
1.00074
1.0019
1.004
1.00743
1.01238
1.01855
1.02506
1.02959
1.02736
1.01199
0.97579
0.910763
0.815663
0.701427
0.585454
0.482027
0.398821
0.338054
0.298833
0.279395
0.278926
0.299266
0.345245
0.421516
0.526909
0.650668
0.774453
0.879659
0.95497
0.999221
1.01884
1.02295
1.01954
1.01387
1.0086
1.0047
1.00219
1.00078
1.00009
0.999818
0.999763
0.999798
0.999856
0.999909
0.999947
0.999972
0.999986
0.999993
0.999997
0.999999
1
1
1
1
1
1
1
1
1
1
1
1
1
1
1
1
1
1
1
1
1
1
1
1
1
1
1
1
1
1
1
1
1
1
1
1
1
0.999999
0.999999
0.999998
0.999994
0.999989
0.99998
0.999966
0.999945
0.999917
0.999886
0.999859
0.999873
0.999989
1.00034
1.00116
1.00279
1.00571
1.01028
1.01643
1.02341
1.02927
1.02944
1.01691
0.983496
0.920945
0.827271
0.712657
0.594697
0.488769
0.403747
0.342586
0.304553
0.287854
0.291873
0.318793
0.373407
0.459286
0.57272
0.699771
0.820278
0.916547
0.980304
1.0137
1.02522
1.02448
1.01882
1.01252
1.00743
1.00394
1.00182
1.00067
1.00013
0.999917
0.999869
0.999887
0.99992
0.999951
0.999972
0.999986
0.999993
0.999997
0.999999
1
1
1
1
1
1
1
1
1
1
1
1
1
1
1
1
1
1
1
1
1
1
1
1
1
1
1
1
1
1
1
1
1
1
1
1
1
1
1
0.999999
0.999999
0.999996
0.999993
0.999988
0.999979
0.999962
0.999939
0.999909
0.999876
0.999856
0.999891
1.00007
1.00059
1.00178
1.00411
1.00812
1.01402
1.02129
1.02827
1.03096
1.02227
0.993288
0.935418
0.84617
0.734722
0.618118
0.512286
0.427217
0.36688
0.331227
0.318824
0.329371
0.365195
0.430214
0.525497
0.643661
0.767704
0.877196
0.95751
1.00498
1.02539
1.02863
1.02374
1.01673
1.01051
1.006
1.00312
1.00145
1.00058
1.00017
1.00001
0.999961
0.999959
0.999971
0.999983
0.999991
0.999996
0.999998
1
1
1
1
1
1
1
1
1
1
1
1
1
1
1
1
1
1
1
1
1
1
1
1
1
1
1
1
1
1
1
1
1
1
1
1
1
1
1
1
1
0.999999
0.999999
0.999999
0.999997
0.999992
0.999985
0.999976
0.999958
0.999935
0.999903
0.999868
0.999857
0.999925
1.00021
1.001
1.00273
1.00604
1.01141
1.0187
1.02654
1.03153
1.02714
1.00408
0.953127
0.871095
0.766067
0.654173
0.551402
0.468676
0.411163
0.379815
0.373761
0.392949
0.439281
0.5146
0.6161
0.732356
0.844734
0.935122
0.994124
1.02331
1.03127
1.0279
1.02061
1.0135
1.00808
1.00448
1.00232
1.00112
1.0005
1.00021
1.00008
1.00003
1.00001
1
1
1
1
1
1
1
1
1
1
1
1
1
1
1
1
1
1
1
1
1
1
1
1
1
1
1
1
1
1
1
1
1
1
1
1
1
1
0.999999
1
1
1
1
1
1
1
0.999999
1
0.999999
0.999998
0.999995
0.999993
0.999985
0.999975
0.999956
0.999931
0.999898
0.999863
0.999864
0.999989
1.00045
1.00164
1.00418
1.00877
1.01571
1.02408
1.03099
1.03076
1.0145
0.972471
0.900422
0.805016
0.701232
0.604838
0.527503
0.475615
0.451048
0.453314
0.48228
0.53858
0.620801
0.721649
0.826705
0.918388
0.983687
1.01959
1.03203
1.03057
1.02349
1.01585
1.00977
1.00563
1.00307
1.00161
1.00082
1.00041
1.00021
1.00011
1.00006
1.00003
1.00002
1.00001
1.00001
1
1
1
1
1
1
1
1
1
1
1
1
1
1
1
1
1
1
1
1
1
1
1
1
1
1
1
1
1
1
1
1
1
1
1
1
1
1
1
1
1
1
1
1
0.999998
1
0.999999
0.999998
0.999996
0.999991
0.999986
0.999973
0.999956
0.999929
0.999893
0.99986
0.999884
1.00011
1.00085
1.00266
1.00632
1.01249
1.02092
1.02931
1.03275
1.02332
0.991438
0.931779
0.849183
0.757063
0.67069
0.602264
0.559065
0.543371
0.55472
0.592411
0.654926
0.736983
0.827655
0.912073
0.976787
1.01557
1.03108
1.03141
1.02488
1.01712
1.01072
1.00628
1.00352
1.00193
1.00104
1.00057
1.00032
1.00018
1.00011
1.00007
1.00004
1.00002
1.00001
1.00001
1
1
1
1
1
1
1
1
1
1
1
1
1
1
1
1
1
1
1
1
1
1
1
1
1
1
1
1
1
1
1
1
1
1
1
1
1
1
1
1
0.999999
1
0.999999
1
1
0.999998
1
0.999999
0.999998
0.999996
0.999991
0.999988
0.999974
0.999958
0.999927
0.99989
0.999858
0.999932
1.00033
1.00151
1.00423
1.00934
1.01723
1.02647
1.03295
1.02978
1.00821
0.962314
0.895106
0.817993
0.745251
0.689065
0.656764
0.650467
0.669532
0.712178
0.774156
0.846905
0.918224
0.976
1.01295
1.02918
1.03058
1.02468
1.01713
1.01076
1.00631
1.00356
1.00197
1.0011
1.00063
1.00037
1.00023
1.00014
1.00009
1.00006
1.00003
1.00002
1.00001
1.00001
1
1
1
1
1
1
1
1
1
1
1
1
1
1
1
1
1
1
1
1
1
1
1
1
1
1
1
1
1
1
1
0.999999
1
1
1
1
1
0.999999
1
0.999999
1
0.999999
1
0.999999
1
0.999999
1
1
0.999998
1
0.999993
0.999994
0.999988
0.999979
0.999961
0.999928
0.999879
0.999869
1.00003
1.00073
1.00261
1.00655
1.01337
1.02261
1.03126
1.03348
1.02149
0.98943
0.93881
0.878907
0.822345
0.780284
0.7592
0.760852
0.784255
0.826094
0.879659
0.935048
0.98187
1.01307
1.02738
1.02874
1.02327
1.01609
1.00999
1.00576
1.00319
1.00175
1.00098
1.00058
1.00036
1.00023
1.00015
1.0001
1.00006
1.00004
1.00002
1.00001
1.00001
1
1
1
1
1
1
1
1
1
1
1
1
1
1
1
1
1
1
1
1
1
1
1
1
1
1
1
1
1
1
1
1
1
1
1
0.999999
1
0.999999
1
0.999999
1
1
1
0.999999
1
1
0.999998
1
1
1
1
0.999998
0.999997
0.999995
0.999992
0.999985
0.999966
0.999926
0.999869
0.9999
1.00025
1.00145
1.0043
1.00978
1.01821
1.02784
1.03417
1.03044
1.01113
0.97666
0.934225
0.894198
0.865798
0.854302
0.861062
0.884372
0.919374
0.95832
0.992624
1.01596
1.02649
1.02671
1.02129
1.01448
1.00875
1.00486
1.00256
1.00134
1.00074
1.00044
1.00029
1.0002
1.00014
1.0001
1.00007
1.00004
1.00003
1.00002
1.00001
1.00001
1
1
1
1
1
1
1
1
1
1
1
1
1
1
1
1
1
1
1
1
1
1
1
1
1
1
1
1
1
1
1
1
1
1
0.999999
1
0.999999
1
0.999999
1
1
0.999999
1
1
1
0.999998
1
0.999997
1
0.999997
1
1
0.999998
0.999998
1
0.999997
0.999994
0.999965
0.999911
0.999868
0.999995
1.00068
1.00263
1.00676
1.01384
1.02325
1.03201
1.03465
1.02607
1.00584
0.979063
0.953582
0.936464
0.931815
0.940313
0.959274
0.983193
1.00538
1.02051
1.02657
1.02505
1.01935
1.01281
1.00745
1.00389
1.00188
1.00089
1.00046
1.00028
1.0002
1.00016
1.00012
1.00009
1.00006
1.00004
1.00003
1.00002
1.00001
1.00001
1
1
1
1
1
1
1
1
1
1
1
1
1
1
1
1
1
1
1
1
1
1
1
1
1
1
1
1
1
1
1
1
1
1
1
0.999999
1
1
0.999999
1
1
1
1
0.999998
1
1
1
0.999998
1
1
1
0.999999
1
0.999996
1
0.999999
1
1.00001
0.999994
0.999958
0.999884
0.999891
1.00023
1.00147
1.00444
1.01
1.01833
1.02778
1.03441
1.03381
1.02476
1.01036
0.996084
0.987107
0.986319
0.99344
1.00533
1.01729
1.02517
1.0271
1.02385
1.0178
1.01144
1.00637
1.00308
1.0013
1.0005
1.00021
1.00014
1.00013
1.00012
1.0001
1.00008
1.00006
1.00004
1.00003
1.00002
1.00001
1.00001
1
1
1
1
1
1
1
1
1
1
1
1
1
1
1
1
1
1
1
1
1
1
1
1
1
1
1
1
1
1
1
1
1
1
0.999999
1
1
1
1
1
1
0.999999
1
0.999998
1
0.999998
1
0.999998
1
1
0.999998
1
0.999998
1
0.999994
1
0.999995
1
1.00001
1.00001
0.999987
0.999927
0.999867
0.999997
1.00073
1.00277
1.00694
1.01375
1.0226
1.03089
1.03515
1.03367
1.02784
1.02122
1.01731
1.01772
1.02157
1.02617
1.02861
1.02738
1.02284
1.01661
1.01047
1.00566
1.00255
1.00092
1.00024
1.00004
1.00004
1.00007
1.00009
1.00009