/*--------------------------------*- C++ -*----------------------------------*\
  =========                 |
  \\      /  F ield         | OpenFOAM: The Open Source CFD Toolbox
   \\    /   O peration     | Website:  https://openfoam.org
    \\  /    A nd           | Version:  6
     \\/     M anipulation  |
\*---------------------------------------------------------------------------*/
FoamFile
{
    version     2.0;
    format      ascii;
    class       volScalarField;
    location    "3.02";
    object      epsilon;
}
// * * * * * * * * * * * * * * * * * * * * * * * * * * * * * * * * * * * * * //

dimensions      [0 2 -3 0 0 0 0];

internalField   nonuniform List<scalar> 
4214
(
0.208688
0.0742055
0.0303773
0.0161569
0.0117941
0.0109194
0.011849
0.0151721
0.0247277
0.0528893
0.144091
0.459302
1.5034
4.19002
8.51304
11.6459
9.60739
5.8578
4.02586
3.16889
2.43243
1.92216
1.63435
1.42256
1.21211
0.972683
0.720703
0.487751
0.300916
0.171334
0.0924528
0.0494619
0.028058
0.018104
0.0137855
0.0123483
0.0132174
0.0181863
0.0341852
0.0828877
0.233129
0.0266338
0.0155925
0.0116906
0.0104581
0.0103102
0.0108438
0.0124104
0.0164272
0.027569
0.0600256
0.165308
0.53488
1.78664
5.02653
10.021
13.1518
10.2209
6.00922
4.08963
3.32059
2.69144
2.23475
1.95778
1.73629
1.50766
1.23901
0.94105
0.652424
0.409944
0.235335
0.126236
0.0658843
0.0356246
0.0215063
0.0152393
0.0125342
0.0115306
0.0116394
0.0133216
0.0186723
0.0337729
0.0111693
0.010371
0.0101363
0.0101996
0.010533
0.0113259
0.0132205
0.0179113
0.0307696
0.0677266
0.187424
0.612692
2.08642
5.9043
11.5708
14.7641
11.0451
6.12101
4.01573
3.39003
2.92732
2.57177
2.3338
2.12077
1.86625
1.5612
1.21545
0.866268
0.557852
0.325212
0.174705
0.0895807
0.046448
0.0262972
0.0174059
0.0135303
0.0118641
0.0111523
0.0109539
0.0112036
0.0122119
0.0103934
0.0102968
0.010352
0.0105503
0.0109878
0.0119386
0.0141745
0.0196206
0.0343668
0.0760168
0.210208
0.690412
2.3889
6.76824
13.0748
16.4297
12.1992
6.49013
4.16778
3.60533
3.25848
2.98536
2.78867
2.5896
2.32452
1.97417
1.56909
1.14745
0.758685
0.451347
0.24448
0.124181
0.0622884
0.0332338
0.0205052
0.0150052
0.0126729
0.0116344
0.0111757
0.0109938
0.0110418
0.0105778
0.0106127
0.0107367
0.0109911
0.0115169
0.0126469
0.0152861
0.021593
0.0384082
0.0848383
0.232887
0.762571
2.66165
7.53019
14.4196
18.0803
13.7206
6.98635
4.38243
3.83637
3.60607
3.43992
3.31752
3.15257
2.87994
2.49276
2.01626
1.50872
1.02502
0.625158
0.343887
0.174551
0.0855284
0.0433122
0.0249075
0.0170074
0.0137305
0.0122897
0.0116482
0.011331
0.0111911
0.010954
0.0110297
0.0111875
0.0114911
0.0121204
0.0134687
0.0165922
0.0238845
0.042965
0.0941737
0.254793
0.823607
2.87038
8.11583
15.5125
19.601
15.7055
7.90731
4.70031
4.0924
3.97529
3.93773
3.9293
3.84176
3.5859
3.15075
2.59256
1.97687
1.37619
0.862054
0.484341
0.247743
0.119824
0.0581354
0.0312909
0.0197943
0.015132
0.0131109
0.0122411
0.0118117
0.0115949
0.0114062
0.0115047
0.0116917
0.0120529
0.012814
0.0144345
0.0181472
0.0265774
0.048156
0.104092
0.275489
0.86874
2.99524
8.44611
16.2404
20.9156
17.8607
9.77744
5.27455
4.36433
4.34253
4.46054
4.61537
4.66229
4.46895
4.00644
3.34663
2.59027
1.83918
1.18155
0.680249
0.353209
0.170431
0.0800706
0.0406779
0.0237453
0.0170322
0.0141437
0.0129512
0.0123829
0.0120985
0.0119197
0.0120331
0.0122534
0.0126892
0.0136235
0.0155883
0.0200297
0.0297911
0.0541708
0.114799
0.295006
0.895623
3.0181
8.47955
16.5197
21.9147
20.0244
12.2832
6.51961
4.74764
4.68911
4.97637
5.34003
5.57984
5.52319
5.08615
4.33383
3.40401
2.4556
1.6114
0.950579
0.503471
0.244786
0.112598
0.0546441
0.0294418
0.0196849
0.0154782
0.0138103
0.0130445
0.0126893
0.0124879
0.0126175
0.012883
0.0134204
0.0145878
0.0169944
0.0223556
0.0337043
0.061315
0.126711
0.314062
0.905549
2.94447
8.22549
16.3115
22.4892
22.0212
15.2123
8.34527
5.48665
5.02826
5.43774
6.04135
6.53949
6.70483
6.38678
5.59688
4.48438
3.28451
2.19224
1.32116
0.714814
0.35311
0.1607
0.0755957
0.0377521
0.0234851
0.0172539
0.0148766
0.0138068
0.0133537
0.0131154
0.013267
0.0135988
0.0142774
0.0157659
0.0187479
0.0253004
0.0385854
0.0700727
0.140548
0.334205
0.903519
2.79819
7.73038
15.6593
22.5026
23.6123
18.2285
10.7456
6.70346
5.524
5.80393
6.6382
7.45904
7.93662
7.86
7.13967
5.88807
4.39676
2.98104
1.82925
1.00877
0.509072
0.231205
0.107166
0.0499586
0.0290526
0.0196851
0.0162513
0.0146994
0.0140959
0.0138098
0.0139962
0.0144296
0.0153079
0.0172495
0.0209916
0.0291358
0.0448409
0.0812056
0.157451
0.358023
0.898184
2.61225
7.06073
14.6097
21.9124
24.5562
20.943
13.8361
8.56911
6.36476
6.20147
7.0616
8.22083
9.11924
9.40831
8.90838
7.63115
5.86588
4.04919
2.52862
1.41495
0.730973
0.33301
0.154733
0.0678949
0.0373612
0.0230906
0.0181039
0.0157804
0.0149365
0.0145869
0.0148294
0.0154218
0.0165849
0.0191854
0.0239439
0.0342921
0.0530872
0.0959107
0.179133
0.389286
0.899545
2.42582
6.31047
13.2491
20.7275
24.692
22.9869
16.9168
10.9005
7.64161
6.78424
7.43872
8.75482
10.1135
10.9113
10.7995
9.66226
7.72593
5.47827
3.48177
1.97492
1.04429
0.477136
0.226111
0.094056
0.0499366
0.0279285
0.020708
0.0171442
0.0159262
0.0154729
0.0158027
0.0166528
0.0182232
0.0218166
0.0279404
0.0414713
0.0642552
0.116076
0.208065
0.433248
0.918307
2.27758
5.57785
11.7189
19.0157
23.9614
24.0742
19.5323
13.3942
9.32434
7.6562
7.86107
9.18142
10.8512
12.228
12.6813
11.8694
9.93484
7.32142
4.77165
2.73718
1.48704
0.6767
0.332557
0.131587
0.0691637
0.0348281
0.0245037
0.0189257
0.0171525
0.0165095
0.0169704
0.0182573
0.0204026
0.0255615
0.0334958
0.0518527
0.0797351
0.144743
0.247677
0.497227
0.964733
2.20096
4.95405
10.2155
16.9691
22.4398
24.0771
21.2742
15.8925
11.2859
8.811
8.4188
9.55452
11.4428
13.2808
14.4053
14.1086
12.3755
9.55057
6.47785
3.74448
2.11371
0.946542
0.490512
0.183991
0.0987603
0.0445871
0.0302077
0.021308
0.0187604
0.0177673
0.0184154
0.0204891
0.0234011
0.0311741
0.0413774
0.0674925
0.101522
0.18693
0.302539
0.591935
1.04804
2.22369
4.50519
8.9295
14.8475
20.3278
23.0312
21.8861
17.6881
13.0925
10.1183
9.14906
9.9538
11.9419
14.1547
15.852
16.2219
14.8851
12.0491
8.61698
5.05078
2.99232
1.29872
0.724737
0.254339
0.144531
0.058071
0.0390211
0.024521
0.0210055
0.019386
0.0202641
0.0238599
0.0276132
0.0400933
0.0526298
0.092153
0.1322
0.251258
0.377997
0.734171
1.17488
2.37409
4.24359
8.00166
12.8914
17.9063
21.1029
21.241
18.3562
14.3545
11.3022
9.96293
10.4594
12.4362
14.887
17.032
18.0452
17.2694
14.6386
11.1434
6.61226
4.22497
1.74033
1.07317
0.343505
0.215617
0.0758511
0.0530106
0.0287865
0.0243717
0.0217031
0.0226727
0.0294836
0.0334528
0.0552582
0.068291
0.133108
0.174154
0.353459
0.478089
0.952843
1.34484
2.69453
4.12142
7.52285
11.184
15.4564
18.5894
19.4544
17.8758
14.8034
12.0536
10.6904
11.0333
12.9752
15.5005
17.8531
19.5166
19.2625
17.1034
13.9548
8.28157
5.93858
2.24247
1.59618
0.446514
0.326642
0.0972927
0.0758554
0.0341033
0.0298381
0.0216962
0.0200382
0.0185695
0.0173263
0.0162772
0.0153729
0.0145675
0.0138272
0.0131389
0.0125125
0.011957
0.0115138
0.0111981
0.0114138
0.0148468
0.0760025
0.713638
0.0211096
0.0194932
0.0182487
0.0172361
0.0163674
0.0155872
0.014861
0.0141714
0.0135211
0.0129257
0.012394
0.0119688
0.0116784
0.0119691
0.0156209
0.0784782
0.820082
0.0198898
0.0189649
0.0181106
0.0173222
0.0165856
0.0158855
0.0152095
0.0145553
0.0139346
0.0133659
0.0128602
0.0124523
0.0122001
0.0125905
0.0165336
0.0824488
0.895585
0.0199371
0.0190876
0.0183135
0.0175952
0.0169133
0.0162536
0.0156086
0.0149823
0.0143896
0.0138474
0.0133672
0.0129783
0.012769
0.0132143
0.01754
0.0862446
0.96626
0.0200351
0.0192986
0.0186084
0.0179473
0.0173045
0.0166727
0.0160521
0.0154523
0.0148886
0.0143737
0.0139195
0.0135546
0.0133925
0.0139109
0.0186447
0.090153
1.02874
0.020283
0.0196453
0.0190038
0.0183734
0.0177525
0.0171394
0.0165401
0.0159672
0.0154337
0.0149477
0.0145203
0.0141851
0.0140745
0.0146926
0.0198875
0.0943846
1.09186
0.0207899
0.0201096
0.0194712
0.0188539
0.0182474
0.0176507
0.0170741
0.0165302
0.016028
0.0155721
0.015174
0.0148745
0.0148221
0.0155719
0.0213164
0.0995203
1.15647
0.021128
0.0205653
0.0199719
0.0193765
0.0187858
0.0182083
0.0176581
0.0171458
0.0166758
0.0162507
0.0158847
0.0156261
0.0156423
0.0165578
0.0229699
0.105825
1.22541
0.0218101
0.0211563
0.0205426
0.0199492
0.0193714
0.0188164
0.0182969
0.0178186
0.017382
0.0169887
0.0166577
0.0164456
0.0165435
0.01766
0.0248848
0.113386
1.30062
0.0222168
0.0216957
0.0211286
0.0205592
0.020005
0.0194804
0.0189965
0.0185543
0.0181518
0.0177916
0.017499
0.01734
0.0175353
0.0188895
0.027079
0.121834
1.37993
0.0230165
0.0223819
0.0217884
0.0212259
0.0206971
0.0202083
0.0197636
0.0193587
0.0189915
0.018666
0.0184161
0.0183171
0.0186273
0.020262
0.0295774
0.130635
1.46154
0.0234938
0.0230044
0.0224648
0.0219403
0.0214523
0.0210072
0.0206048
0.0202385
0.0199076
0.0196188
0.019417
0.0193857
0.0198318
0.0217893
0.0323082
0.140222
1.54345
0.0243951
0.0237807
0.0232252
0.0227276
0.0222839
0.0218861
0.0215276
0.0212007
0.0209075
0.0206587
0.0205114
0.0205564
0.0211621
0.023488
0.0353496
0.150603
1.62317
0.0249535
0.0245005
0.0240195
0.0235833
0.0231975
0.0228517
0.0225384
0.0222523
0.0219995
0.0217951
0.0217097
0.0218419
0.0226332
0.0253776
0.0387338
0.161493
1.69971
0.0259497
0.025382
0.0249159
0.0245322
0.0242044
0.0239113
0.0236443
0.0234014
0.0231929
0.023039
0.0230239
0.0232564
0.0242625
0.02749
0.0424646
0.172532
1.76903
0.0266121
0.0262375
0.025875
0.0255715
0.0253087
0.0250707
0.0248526
0.024657
0.0244981
0.0244029
0.0244676
0.0248194
0.0260732
0.0298412
0.0465365
0.183504
1.82843
0.0277069
0.0272634
0.0269531
0.0267182
0.0265178
0.0263369
0.0261717
0.0260296
0.0259278
0.0259011
0.026056
0.0265499
0.0280835
0.0324469
0.0509379
0.194129
1.87567
0.0285202
0.028312
0.0281195
0.0279692
0.0278355
0.027717
0.0276118
0.0275317
0.0274965
0.0275494
0.0278069
0.0284653
0.0303092
0.0353236
0.0556802
0.20407
1.90585
0.0297307
0.0295274
0.0294064
0.0293334
0.0292693
0.0292208
0.0291852
0.0291781
0.0292209
0.0293667
0.0297415
0.0305831
0.0327673
0.0384877
0.060799
0.213532
1.91917
0.0307695
0.0308104
0.0307944
0.0308105
0.0308259
0.0308586
0.0309055
0.0309849
0.0311204
0.0313748
0.0318828
0.032928
0.0354797
0.041971
0.0663193
0.22243
1.91204
0.0321201
0.032236
0.0323026
0.0324111
0.032518
0.0326461
0.0327907
0.0329724
0.0332178
0.0335974
0.0342564
0.0355286
0.0384646
0.0457972
0.0722906
0.231039
1.88157
0.0335022
0.0337497
0.033928
0.0341447
0.0343606
0.0346006
0.0348615
0.0351648
0.0355408
0.0360664
0.036899
0.0384248
0.0417703
0.050017
0.0788519
0.240827
1.83162
0.0350212
0.0353874
0.0356898
0.0360281
0.0363728
0.0367442
0.0371435
0.037591
0.0381227
0.0388195
0.0398537
0.0416598
0.0454301
0.0546874
0.0861459
0.252604
1.76447
0.0366639
0.0371407
0.0375904
0.0380747
0.0385726
0.0391009
0.0396647
0.0402849
0.041
0.0418957
0.0431577
0.0452555
0.049447
0.0596218
0.0932226
0.260361
1.69307
0.0384035
0.0390449
0.0396568
0.0403077
0.0409841
0.0416992
0.0424597
0.0432866
0.0442204
0.0453481
0.0468667
0.0492656
0.0538534
0.0647592
0.0997583
0.265149
1.61931
0.0402878
0.0410878
0.0418953
0.0427476
0.0436363
0.0445743
0.0455706
0.0466467
0.0478434
0.0492483
0.0510625
0.0537832
0.0587431
0.0701796
0.105826
0.26725
1.54463
0.0422949
0.0433119
0.0443374
0.045422
0.0465613
0.0477663
0.0490472
0.0504259
0.0519433
0.0536858
0.0558516
0.0589344
0.0642605
0.0760617
0.111649
0.267899
1.47016
0.044471
0.0457078
0.0469968
0.0483596
0.0497976
0.0513232
0.052949
0.0546977
0.0566106
0.0587714
0.0613711
0.0648876
0.0706164
0.0827056
0.117817
0.267995
1.39674
0.0467995
0.0483212
0.0499075
0.0515953
0.0533886
0.0553005
0.0573463
0.0595505
0.0619554
0.0646423
0.0677928
0.0718584
0.0780821
0.0904438
0.124804
0.26805
1.3249
0.0493183
0.051148
0.053092
0.0551674
0.0573857
0.0597643
0.0623232
0.065091
0.0681129
0.0714694
0.0753321
0.080121
0.0870039
0.099727
0.133196
0.268834
1.255
0.0520278
0.0542358
0.0565888
0.0591208
0.0618478
0.0647921
0.0679806
0.071449
0.0752491
0.0794645
0.0842606
0.0900263
0.0978351
0.111154
0.143766
0.271215
1.18726
0.0549547
0.0575881
0.0604303
0.0635066
0.0668443
0.070476
0.0744397
0.0787828
0.0835694
0.0888943
0.0949243
0.102024
0.111169
0.125511
0.157578
0.276526
1.1219
0.0581119
0.0612533
0.0646612
0.0683828
0.0724554
0.0769251
0.0818466
0.087287
0.0933315
0.100098
0.10777
0.116706
0.127796
0.143856
0.176091
0.286662
1.05905
0.0615236
0.0652429
0.0693247
0.0738162
0.0787753
0.0842697
0.0903796
0.0972029
0.104861
0.113512
0.123383
0.134858
0.148781
0.167648
0.201287
0.304212
0.998824
0.0652024
0.0696064
0.0744739
0.079883
0.0859147
0.0926667
0.100258
0.108834
0.118574
0.129709
0.142547
0.157555
0.175604
0.198955
0.236048
0.333048
0.941281
0.0691733
0.0743625
0.0801637
0.0866713
0.0940045
0.102307
0.111754
0.122565
0.135013
0.149447
0.166325
0.186289
0.210374
0.240789
0.284704
0.379134
0.88645
0.0734478
0.0795619
0.0864587
0.0942818
0.1032
0.113422
0.125209
0.138893
0.154893
0.173754
0.196194
0.223192
0.256184
0.297687
0.354044
0.452308
0.834326
0.0780489
0.0852286
0.0934258
0.102829
0.113684
0.126295
0.141052
0.158458
0.179165
0.204039
0.234241
0.271365
0.317688
0.376732
0.455095
0.569727
0.784856
0.0829842
0.0914114
0.101139
0.112443
0.125671
0.14127
0.159822
0.182095
0.209112
0.242266
0.283476
0.335451
0.40211
0.489338
0.606402
0.763141
0.737934
0.0882687
0.0981353
0.109676
0.123271
0.139418
0.158774
0.182212
0.210913
0.246498
0.291237
0.348368
0.422628
0.521117
0.654806
0.840935
1.09462
0.693379
0.0944896
0.0991137
0.103872
0.108746
0.113709
0.118736
0.12379
0.128831
0.133817
0.138699
0.143428
0.147949
0.152207
0.156146
0.159712
0.16285
0.165514
0.167659
0.16925
0.170258
0.170649
0.170235
0.169191
0.167565
0.165383
0.162684
0.159509
0.155908
0.151934
0.147641
0.143088
0.138327
0.133415
0.128401
0.123333
0.118254
0.113204
0.108218
0.103324
0.0985474
0.0939057
0.106013
0.111153
0.116439
0.121838
0.127333
0.132886
0.138465
0.144019
0.149508
0.154873
0.160066
0.165022
0.169687
0.173996
0.177893
0.181318
0.184222
0.186558
0.188288
0.18938
0.189801
0.189358
0.188231
0.186467
0.184096
0.181157
0.177696
0.173764
0.169421
0.164723
0.159735
0.154511
0.149116
0.1436
0.13802
0.132418
0.126842
0.121325
0.115906
0.110605
0.105448
0.119669
0.125404
0.131285
0.137291
0.14339
0.149548
0.155721
0.161863
0.16792
0.173836
0.179552
0.185003
0.190125
0.194853
0.199122
0.202872
0.206047
0.208598
0.210483
0.21167
0.212123
0.211649
0.210429
0.20851
0.205926
0.202717
0.198933
0.19463
0.189869
0.184715
0.179233
0.173487
0.167543
0.161459
0.155293
0.149097
0.142918
0.136798
0.130774
0.124876
0.119127
0.136003
0.142418
0.148986
0.155684
0.162479
0.169328
0.176183
0.182993
0.189701
0.196243
0.202554
0.208566
0.214208
0.219408
0.224099
0.228215
0.231696
0.234489
0.23655
0.237844
0.238332
0.237823
0.236499
0.234406
0.231581
0.228068
0.223919
0.219195
0.213963
0.208291
0.202249
0.19591
0.189341
0.182609
0.175775
0.168899
0.16203
0.155217
0.148499
0.141913
0.135484
0.155728
0.162931
0.170292
0.177789
0.185384
0.193027
0.200665
0.208241
0.215692
0.222949
0.22994
0.236589
0.242821
0.248559
0.253728
0.258258
0.262084
0.265151
0.26741
0.268824
0.269353
0.268805
0.267362
0.265073
0.261977
0.25812
0.253558
0.248358
0.242591
0.23633
0.229652
0.222635
0.215353
0.20788
0.200282
0.192624
0.184963
0.17735
0.169832
0.162454
0.155236
0.179805
0.187928
0.196211
0.204633
0.213152
0.22171
0.23025
0.238706
0.247009
0.255084
0.26285
0.270227
0.277131
0.283479
0.28919
0.29419
0.298407
0.301783
0.304266
0.305816
0.306389
0.305798
0.304221
0.301711
0.298308
0.294062
0.289033
0.283292
0.276917
0.269986
0.262583
0.254792
0.246695
0.238371
0.229895
0.221337
0.212761
0.204225
0.195782
0.187482
0.179347
0.209554
0.218752
0.228111
0.237609
0.247198
0.256815
0.266394
0.275863
0.285146
0.294158
0.302812
0.311019
0.318689
0.325731
0.332058
0.337589
0.342249
0.345974
0.34871
0.350413
0.351037
0.350396
0.348669
0.345909
0.34216
0.337472
0.331914
0.325559
0.318492
0.310798
0.302568
0.293892
0.28486
0.275559
0.266071
0.256474
0.24684
0.237235
0.227717
0.218343
0.209133
0.246804
0.257266
0.267883
0.278636
0.28947
0.300313
0.311092
0.321728
0.332137
0.342224
0.351894
0.361048
0.369589
0.37742
0.384445
0.390578
0.39574
0.399859
0.402879
0.404754
0.405435
0.404739
0.402843
0.399801
0.39566
0.390474
0.384316
0.377266
0.369413
0.360849
0.351675
0.341987
0.331883
0.321458
0.310803
0.300006
0.289148
0.278299
0.267529
0.256898
0.246427
0.294153
0.306102
0.318192
0.33041
0.342692
0.354957
0.367122
0.379101
0.3908
0.402119
0.412947
0.42318
0.43271
0.441434
0.449248
0.456061
0.461785
0.466348
0.469687
0.471754
0.472498
0.471741
0.469655
0.466298
0.461716
0.45597
0.449135
0.441298
0.432556
0.423005
0.412756
0.401912
0.390581
0.378865
0.366868
0.354687
0.342409
0.330115
0.317882
0.305779
0.293823
0.355363
0.369058
0.382872
0.396796
0.410758
0.424667
0.438428
0.451946
0.465118
0.477836
0.489979
0.501432
0.512078
0.521806
0.530505
0.538077
0.54443
0.549486
0.55318
0.55546
0.556274
0.555449
0.553153
0.549444
0.544372
0.538
0.530408
0.52169
0.511947
0.501284
0.489819
0.477663
0.464934
0.451744
0.43821
0.424436
0.410518
0.396546
0.382609
0.368784
0.355083
0.436012
0.451749
0.467567
0.483465
0.499362
0.515153
0.530734
0.545998
0.560833
0.575124
0.588739
0.601553
0.61344
0.624281
0.633956
0.642363
0.649407
0.655004
0.659085
0.661597
0.662486
0.661588
0.659063
0.65497
0.64936
0.6423
0.633875
0.624184
0.613333
0.601433
0.588611
0.574985
0.560685
0.545832
0.530554
0.514963
0.499165
0.483262
0.467352
0.451524
0.435785
0.54461
0.562696
0.580813
0.598956
0.617038
0.634944
0.65256
0.669764
0.686434
0.702451
0.717671
0.731963
0.74519
0.757229
0.767951
0.77725
0.785028
0.791198
0.795688
0.798444
0.799411
0.798437
0.79567
0.791172
0.784992
0.777201
0.767887
0.757152
0.745109
0.731871
0.717575
0.702344
0.68632
0.669632
0.652418
0.634798
0.616887
0.5988
0.580646
0.562523
0.544435
0.694533
0.715242
0.735901
0.756508
0.776965
0.797151
0.816943
0.836205
0.854805
0.872623
0.889504
0.905315
0.91991
0.933165
0.944941
0.955134
0.963646
0.970383
0.975278
0.978272
0.979315
0.978267
0.975265
0.970365
0.963619
0.955099
0.944894
0.933107
0.919854
0.90525
0.889438
0.872547
0.854724
0.836105
0.816839
0.797047
0.776857
0.756395
0.735781
0.715119
0.694409
0.907569
0.931001
0.954253
0.97734
1.00016
1.02258
1.04447
1.0657
1.08612
1.10561
1.12401
1.1412
1.15701
1.17134
1.18403
1.195
1.20414
1.21136
1.21659
1.21978
1.22089
1.21978
1.21658
1.21135
1.20412
1.19498
1.184
1.1713
1.15698
1.14115
1.12397
1.10556
1.08607
1.06563
1.04441
1.02251
1.00009
0.977268
0.954176
0.930926
0.90749
1.22066
1.24642
1.27177
1.2968
1.32141
1.34548
1.36887
1.39146
1.41308
1.43363
1.45296
1.47095
1.48745
1.50235
1.51552
1.52687
1.5363
1.54374
1.54912
1.55239
1.55351
1.55239
1.54911
1.54373
1.53629
1.52686
1.51551
1.50233
1.48743
1.47093
1.45294
1.4336
1.41305
1.39141
1.36884
1.34545
1.32138
1.29676
1.27172
1.24639
1.22062
1.69944
1.72586
1.75137
1.77643
1.80092
1.82473
1.84774
1.86984
1.89089
1.9108
1.92945
1.94672
1.96251
1.97671
1.98923
1.99999
2.0089
2.01592
2.02097
2.02404
2.02509
2.02404
2.02097
2.01591
2.0089
1.99998
1.98923
1.9767
1.9625
1.94672
1.92944
1.91079
1.89088
1.86982
1.84773
1.82472
1.80091
1.77642
1.75136
1.72585
1.69943
2.46712
2.48918
2.50938
2.52907
2.54816
2.5666
2.58431
2.6012
2.61721
2.63225
2.64627
2.65919
2.67095
2.68148
2.69073
2.69866
2.7052
2.71034
2.71403
2.71627
2.71702
2.71627
2.71403
2.71034
2.7052
2.69865
2.69073
2.68148
2.67095
2.65919
2.64627
2.63225
2.6172
2.6012
2.5843
2.5666
2.54816
2.52906
2.50938
2.48918
2.46712
0.6273
0.0572837
0.0132188
0.0107345
0.0106356
0.0109417
0.0113599
0.0118611
0.0124228
0.0130465
0.0137323
0.0144877
0.0153283
0.0162807
0.0173773
0.0186424
0.0200736
0.707757
0.0617838
0.0141944
0.011323
0.0111378
0.0114113
0.0118098
0.0122966
0.0128446
0.0134538
0.0141215
0.0148484
0.015642
0.0165221
0.0175246
0.0186943
0.0200592
0.773103
0.0676426
0.0153152
0.0119781
0.0116904
0.0119199
0.0122967
0.0127664
0.0132996
0.0138942
0.0145462
0.0152505
0.0160059
0.0168232
0.0177293
0.0187778
0.0200464
0.841662
0.0742135
0.0165851
0.0127069
0.0122956
0.0124737
0.0128259
0.0132759
0.013792
0.0143706
0.0150073
0.0156946
0.0164235
0.0171933
0.0180128
0.0189033
0.0199058
0.913631
0.0815681
0.0180198
0.0135137
0.0129578
0.0130763
0.0134002
0.0138277
0.0143242
0.0148842
0.015504
0.0161766
0.0168901
0.0176357
0.0184118
0.0192201
0.0200715
0.991048
0.0897125
0.0196308
0.0144034
0.0136805
0.0137327
0.0140242
0.0144269
0.014901
0.0154386
0.016038
0.0166941
0.0173955
0.018129
0.0188873
0.0196641
0.0204234
1.07322
0.0985968
0.0214291
0.0153841
0.0144726
0.0144486
0.0147029
0.0150782
0.0155273
0.0160392
0.0166138
0.0172494
0.0179357
0.0186571
0.0194045
0.0201893
0.0210513
1.16051
0.10816
0.0234243
0.0164642
0.0153412
0.0152305
0.015442
0.0157873
0.016209
0.0166925
0.0172385
0.0178486
0.0185151
0.0192184
0.0199354
0.0206517
0.0213806
1.25141
0.118239
0.0256217
0.017662
0.0162951
0.0160856
0.0162481
0.0165603
0.0169525
0.0174055
0.0179189
0.0184976
0.0191401
0.019831
0.0205432
0.0212412
0.0218578
1.34428
0.128764
0.0280393
0.0189902
0.0173451
0.0170226
0.0171285
0.0174041
0.017765
0.018185
0.0186619
0.0192016
0.0198091
0.0204788
0.0211939
0.0219427
0.022741
1.43725
0.139632
0.0307064
0.0204661
0.0185039
0.0180509
0.0180921
0.0183257
0.0186529
0.0190381
0.0194751
0.0199701
0.0205317
0.0211601
0.0218369
0.0225292
0.0232261
1.53015
0.150845
0.0336645
0.0221066
0.0197846
0.0191789
0.0191468
0.0193328
0.0196229
0.0199708
0.0203663
0.0208136
0.0213248
0.0219092
0.0225582
0.0232236
0.0237933
1.62109
0.16228
0.0369154
0.0239208
0.0211984
0.0204173
0.0203023
0.0204329
0.0206818
0.0209901
0.0213423
0.0217388
0.0221924
0.0227213
0.0233409
0.0240473
0.0248164
1.70878
0.173723
0.0404927
0.0259303
0.0227621
0.0217778
0.0215679
0.0216346
0.0218373
0.022103
0.0224102
0.0227543
0.0231443
0.0235988
0.02414
0.02477
0.0254672
1.78896
0.184588
0.044401
0.0281475
0.0244888
0.0232731
0.0229549
0.0229484
0.023098
0.0233166
0.0235768
0.0238684
0.0241955
0.0245755
0.0250378
0.0255892
0.0261296
1.85626
0.19413
0.0486818
0.0305839
0.02639
0.0249161
0.0244748
0.0243853
0.0244734
0.024639
0.0248479
0.0250853
0.0253493
0.0256545
0.0260372
0.026555
0.0272381
1.90929
0.203154
0.0531412
0.033253
0.0284785
0.0267222
0.0261407
0.0259575
0.0259745
0.0260795
0.0262308
0.0264101
0.0266092
0.0268357
0.0271124
0.0274997
0.0280745
1.94365
0.211733
0.0578371
0.0361733
0.0307668
0.028708
0.0279679
0.0276794
0.0276146
0.0276494
0.0277349
0.0278503
0.0279821
0.0281334
0.0283127
0.028567
0.0288916
1.95953
0.220085
0.0628604
0.0393679
0.0332707
0.0308924
0.0299753
0.029568
0.0294085
0.029362
0.0293709
0.029413
0.0294706
0.029546
0.0296365
0.0298024
0.0300969
1.95278
0.228413
0.0682733
0.0428588
0.0360132
0.033298
0.0321837
0.031643
0.0313731
0.0312316
0.0311516
0.0311082
0.0310807
0.0310718
0.0310645
0.0311145
0.0312179
1.92024
0.23716
0.0741069
0.0466597
0.0390125
0.0359481
0.0346171
0.0339276
0.0335322
0.033279
0.0330945
0.0329509
0.0328248
0.0327207
0.032614
0.0325585
0.0324208
1.86718
0.247906
0.0805036
0.0508288
0.042327
0.0388831
0.0373111
0.0364526
0.0359118
0.035527
0.0352195
0.0349571
0.0347162
0.0345013
0.0342878
0.0341243
0.0338716
1.7992
0.259019
0.087563
0.0554153
0.0459965
0.0421461
0.0403084
0.0392548
0.0385452
0.0380049
0.0375511
0.0371477
0.0367727
0.0364273
0.0360878
0.0357855
0.0354281
1.72537
0.265863
0.0942505
0.0602166
0.0499842
0.045757
0.0436453
0.0423725
0.0414674
0.0407443
0.0401173
0.039548
0.0390153
0.0385152
0.0380264
0.0375788
0.0371076
1.64805
0.269581
0.100431
0.065229
0.0543576
0.0497775
0.0473821
0.045861
0.0447272
0.0437863
0.0429523
0.0421857
0.0414653
0.0407842
0.0401279
0.0395202
0.0388844
1.5692
0.270323
0.106173
0.0705391
0.0592167
0.0543037
0.0516021
0.0497928
0.048385
0.0471821
0.0460989
0.0450957
0.0441509
0.0432569
0.0424016
0.0415929
0.0407761
1.49041
0.269615
0.11169
0.0763232
0.064711
0.0594638
0.0564129
0.0542576
0.0525149
0.0509923
0.0496068
0.048319
0.0471073
0.0459622
0.0448694
0.043834
0.0428335
1.41285
0.268557
0.117621
0.0828992
0.0710543
0.0654273
0.0619518
0.0593665
0.0572073
0.05529
0.0535348
0.0519021
0.0503701
0.0489263
0.0475578
0.0462723
0.0450307
1.33728
0.26772
0.124457
0.0906171
0.0785213
0.0724104
0.0683906
0.0652563
0.0625721
0.0601635
0.0579534
0.0559015
0.0539834
0.0521839
0.0504905
0.0488978
0.0473702
1.26416
0.267817
0.132776
0.099901
0.0874526
0.0806859
0.0759436
0.0720974
0.0687441
0.0657192
0.0629465
0.0603826
0.0579989
0.0557759
0.0536957
0.0517448
0.0499119
1.19378
0.269729
0.143341
0.111352
0.0983002
0.0906031
0.0848815
0.0801008
0.0758888
0.0720868
0.068615
0.0654231
0.0624753
0.0597446
0.057207
0.0548518
0.0526521
1.12633
0.274913
0.157211
0.125749
0.111654
0.102609
0.0955484
0.0895323
0.0842114
0.0794244
0.0750802
0.0711153
0.0674818
0.0641415
0.0610633
0.0582222
0.0555755
1.06192
0.285163
0.175826
0.144143
0.128296
0.117291
0.108389
0.10073
0.0939688
0.0879268
0.0824885
0.0775682
0.0730989
0.0690257
0.0653028
0.0618871
0.0587507
1.00057
0.303007
0.201161
0.167982
0.149289
0.135436
0.123989
0.114131
0.105487
0.0978359
0.0910181
0.0849122
0.0794205
0.0744629
0.0699711
0.065893
0.0621836
0.942266
0.332201
0.236062
0.199325
0.176107
0.158113
0.14313
0.130306
0.119184
0.109454
0.100888
0.0933038
0.0865571
0.0805291
0.0751222
0.0702572
0.0658496
0.886957
0.378691
0.284843
0.241175
0.210855
0.186814
0.166874
0.150016
0.1356
0.123167
0.11237
0.102933
0.0946391
0.0873122
0.0808095
0.07501
0.0698222
0.834554
0.452184
0.354262
0.298063
0.256624
0.223672
0.196703
0.174289
0.15545
0.13947
0.125804
0.114032
0.103821
0.0949128
0.0870954
0.0802033
0.0741093
0.784941
0.569802
0.455339
0.37707
0.318077
0.271794
0.234703
0.204532
0.179686
0.159003
0.14162
0.126881
0.114286
0.103444
0.0940507
0.0858655
0.0786816
0.737956
0.763307
0.606627
0.489618
0.402432
0.335813
0.283876
0.242702
0.209583
0.182596
0.160352
0.141824
0.126245
0.113034
0.101744
0.0920243
0.0836069
0.693381
1.09477
0.841085
0.65499
0.521342
0.422897
0.348684
0.291597
0.246901
0.211356
0.18269
0.159283
0.139954
0.123829
0.110253
0.0987291
0.088888
0.0256302
0.0407388
0.0879277
0.226133
0.598088
1.53535
4.02057
9.62514
15.61
15.7371
12.2445
11.9932
16.0989
20.7842
19.2246
9.71233
2.70978
0.544011
0.118237
0.0395253
0.0292176
0.0511068
0.117217
0.304383
0.780975
1.86573
4.25389
8.91389
13.847
14.3103
11.9519
11.9438
16.1135
21.55
21.6529
11.8394
3.44629
0.696648
0.150766
0.0475145
0.0344411
0.0664096
0.159819
0.415281
1.03421
2.32851
4.75007
8.72189
12.6935
13.2269
11.6059
11.8031
16.1389
22.0656
23.6287
14.0775
4.34635
0.890199
0.193614
0.0584133
0.0422262
0.0892322
0.221899
0.572205
1.38629
2.97059
5.52414
8.92547
11.9774
12.3741
11.2515
11.6514
16.1427
22.4013
25.1217
16.3919
5.45981
1.13482
0.250263
0.073438
0.0540695
0.123537
0.31236
0.794357
1.88148
3.8645
6.59427
9.41472
11.5495
11.678
10.9179
11.4934
16.0809
22.5125
26.0675
18.5367
6.74344
1.44291
0.325685
0.0944061
0.0723782
0.175319
0.443936
1.10982
2.57654
5.08554
7.8972
10.0013
11.2509
11.0715
10.6011
11.315
15.9218
22.3327
26.4131
20.3855
8.14007
1.8331
0.427018
0.124082
0.101054
0.253633
0.63516
1.56032
3.55896
6.63978
9.1992
10.4274
10.9235
10.4916
10.199
11.0587
15.6288
21.8109
26.1321
21.7571
9.65192
2.33236
0.564752
0.166756
0.146428
0.372122
0.91411
2.20343
4.91037
8.33048
10.1279
10.4946
10.4764
9.90862
9.69715
10.7287
15.1694
20.8853
25.2226
22.4922
11.2285
2.97954
0.754741
0.229219
0.21879
0.551631
1.32281
3.13362
6.60583
9.70304
10.3925
10.1841
9.90773
9.341
9.18725
10.3737
14.5216
19.554
23.6672
22.4552
12.7844
3.82262
1.02131
0.322417
0.334938
0.825019
1.92198
4.47302
8.33
10.2628
10.0194
9.63259
9.28899
8.81505
8.76651
10.0613
13.6901
17.9153
21.5377
21.6685
14.1692
4.9177
1.40264
0.464376
0.522595
1.24315
2.81845
6.13474
9.4615
9.90869
9.31109
9.00029
8.68525
8.34885
8.45025
9.76222
12.6809
15.9795
18.9548
20.1175
15.1679
6.21939
1.95798
0.685492
0.828089
1.88668
4.15441
7.74215
9.52384
8.98176
8.5513
8.35417
8.12255
7.93904
8.17003
9.34322
11.5412
13.9173
16.08
17.8484
15.4871
7.78558
2.78527
1.03784
1.33005
2.91063
5.79675
8.55942
8.62587
7.97607
7.81107
7.72383
7.59869
7.5578
7.86202
8.81543
10.3555
11.9335
13.3907
15.1126
14.9244
9.45663
4.02832
1.6131
2.172
4.41424
7.26853
8.16339
7.36672
7.08975
7.10367
7.11457
7.10362
7.1663
7.4876
8.19973
9.19567
10.1371
10.9569
12.0929
13.3215
10.7988
5.74657
2.57779
3.595
6.25234
7.73079
6.85903
6.28344
6.31962
6.41836
6.49298
6.57659
6.73026
7.03096
7.52472
8.11222
8.59391
8.9342
9.46967
10.8159
11.0775
7.89179
4.23152
5.70808
7.52356
6.75032
5.56432
5.47774
5.61054
5.75939
5.89209
6.05156
6.24608
6.50358
6.82248
7.13022
7.32348
7.33747
7.38192
8.05402
9.72775
9.62424
6.79729
7.75273
7.07814
5.24008
4.74571
4.83269
4.99137
5.1658
5.34626
5.54429
5.7477
5.95194
6.1385
6.26165
6.24271
6.11202
5.95344
6.00673
7.22223
9.41041
9.59193
7.85116
5.31677
4.34126
4.26971
4.3833
4.54808
4.74002
4.95429
5.16588
5.35192
5.49725
5.58218
5.57017
5.44907
5.21699
4.92763
4.71008
4.84934
6.61353
9.76277
5.09438
4.31246
4.22442
4.29479
4.42206
4.59781
4.83654
5.08176
5.29914
5.45873
5.5436
5.55731
5.47094
5.26352
4.9326
4.49989
4.02388
3.59159
3.4983
4.35198
5.00614
5.76926
6.33838
6.86927
7.37675
7.90563
8.51861
9.10075
9.57506
9.91215
10.0915
10.0428
9.79432
9.331
8.64403
7.74653
6.64335
5.38607
4.1763
3.21945
2.73478
6.28435
12.4526
7.86769
3.72236
1.77169
0.94289
0.540593
0.329119
0.21106
0.141955
0.0999115
0.073473
0.0563601
0.0449943
0.0372681
0.0319042
0.0281059
0.0253609
0.0233362
2.55129
8.40838
9.39429
4.33652
1.83289
0.881118
0.464111
0.263458
0.159919
0.103579
0.0715884
0.0527542
0.0412995
0.0341209
0.0294916
0.0264193
0.0243165
0.0228264
0.0217262
0.0208777
2.32484
10.3861
6.73529
2.55083
1.03413
0.48348
0.250331
0.14197
0.0879591
0.0596256
0.0441293
0.0353302
0.0301493
0.0269828
0.0249661
0.0236191
0.0226666
0.0219485
0.0213676
0.0208682
1.88723
9.91237
4.33996
1.44833
0.586565
0.273049
0.143163
0.0841087
0.055508
0.0409878
0.0333024
0.0290576
0.0265988
0.0250922
0.0241043
0.0234028
0.0228582
0.0223996
0.0219823
0.0215841
1.4204
7.73492
2.65952
0.852967
0.345373
0.164049
0.0899074
0.0567442
0.0410766
0.0333512
0.0293645