/*--------------------------------*- C++ -*----------------------------------*\
  =========                 |
  \\      /  F ield         | OpenFOAM: The Open Source CFD Toolbox
   \\    /   O peration     | Website:  https://openfoam.org
    \\  /    A nd           | Version:  6
     \\/     M anipulation  |
\*---------------------------------------------------------------------------*/
FoamFile
{
    version     2.0;
    format      ascii;
    class       volScalarField;
    location    "3.02";
    object      k;
}
// * * * * * * * * * * * * * * * * * * * * * * * * * * * * * * * * * * * * * //

dimensions      [0 2 -2 0 0 0 0];

internalField   nonuniform List<scalar> 
4214
(
0.0274342
0.0201379
0.0180411
0.0177553
0.0181376
0.0188558
0.0199035
0.0214455
0.0237787
0.0273302
0.0326529
0.0403787
0.0511126
0.0653236
0.083431
0.106245
0.135356
0.170463
0.198442
0.185254
0.140629
0.104229
0.0805064
0.0682704
0.0601397
0.053141
0.0467179
0.0409554
0.0359866
0.0318548
0.0285225
0.0258986
0.0238661
0.0223029
0.0210937
0.020142
0.0194098
0.018951
0.0190916
0.0209662
0.0280499
0.0172007
0.0164588
0.0165791
0.0170512
0.0177218
0.0186054
0.0198319
0.0216375
0.0243775
0.0285454
0.0347771
0.0437971
0.0562991
0.0728415
0.0939815
0.120685
0.154681
0.193
0.215142
0.186619
0.140599
0.106032
0.0854966
0.074059
0.0651625
0.0569405
0.04935
0.0426355
0.0369408
0.0322788
0.0285711
0.0256887
0.0234846
0.0218133
0.0205418
0.0195558
0.0187621
0.0180995
0.0175663
0.0173212
0.0179654
0.0155173
0.0156641
0.0160742
0.0166495
0.0173917
0.0183807
0.0197845
0.0218777
0.0250651
0.0299095
0.0371413
0.0476015
0.0621189
0.0814358
0.106297
0.137891
0.177012
0.215638
0.227302
0.185632
0.140669
0.109522
0.092013
0.0806352
0.0704804
0.0607768
0.0518919
0.0441674
0.0377271
0.0325322
0.028452
0.0253157
0.0229442
0.021169
0.0198417
0.018837
0.0180529
0.0174095
0.0168529
0.0163737
0.0160856
0.0148968
0.0151864
0.0156321
0.016236
0.0170394
0.0181454
0.0197474
0.0221555
0.0258275
0.0314054
0.0397342
0.0518044
0.0686358
0.091236
0.120615
0.158141
0.202659
0.239718
0.238892
0.185737
0.143012
0.115918
0.100274
0.0879899
0.0760587
0.0646353
0.0543586
0.0455884
0.0383909
0.0326596
0.0282067
0.0248175
0.0222807
0.0204038
0.0190222
0.0180007
0.0172317
0.0166315
0.0161361
0.0157013
0.0153263
0.0143783
0.0146808
0.0151334
0.0157691
0.0166461
0.0178846
0.0197017
0.0224441
0.0266275
0.0329849
0.0424997
0.056356
0.0758456
0.102351
0.137291
0.181849
0.231115
0.262772
0.246947
0.185995
0.147453
0.124776
0.109839
0.0958814
0.081813
0.0685231
0.0567977
0.0469565
0.0389862
0.0327062
0.0278712
0.0242228
0.0215163
0.0195349
0.0180964
0.0170542
0.0162942
0.0157295
0.0152942
0.0149385
0.0146353
0.0138054
0.0141098
0.0145773
0.0152551
0.016215
0.0175939
0.0196331
0.0227174
0.0274255
0.0345958
0.0453797
0.0612132
0.0837652
0.114913
0.156707
0.209265
0.261827
0.284337
0.252807
0.187998
0.154979
0.136044
0.120559
0.104281
0.0878193
0.0725685
0.0593505
0.0484036
0.0396266
0.0327668
0.0275235
0.0235957
0.020705
0.0186088
0.0171061
0.0160366
0.0152777
0.0147374
0.0143473
0.0140569
0.0138347
0.0131716
0.0134883
0.0139795
0.0147036
0.0157472
0.0172648
0.019522
0.0229429
0.0281753
0.0361772
0.0483012
0.0663056
0.0923806
0.129125
0.179263
0.240456
0.2939
0.303697
0.257142
0.192358
0.165894
0.14944
0.132333
0.113285
0.0942769
0.0770079
0.0622499
0.0501382
0.0404878
0.0329845
0.0272783
0.0230273
0.019919
0.0176837
0.0160988
0.0149886
0.0142189
0.0136902
0.0133294
0.0130838
0.01292
0.0124996
0.0128364
0.013354
0.0141221
0.0152425
0.0168877
0.0193474
0.0230875
0.0288297
0.0376622
0.0511764
0.0715559
0.101704
0.145307
0.205375
0.275295
0.326561
0.321092
0.261504
0.199769
0.180177
0.16478
0.145262
0.123172
0.101546
0.0822216
0.0658577
0.0524806
0.0418403
0.0335794
0.0273103
0.0226543
0.019265
0.0168425
0.01514
0.0139628
0.0131622
0.0126278
0.0122791
0.0120583
0.0119281
0.0118088
0.0121576
0.0126837
0.0134725
0.0146479
0.0164081
0.0190728
0.0231446
0.0293886
0.0390258
0.0539743
0.0769703
0.11195
0.163965
0.235543
0.313859
0.359869
0.3376
0.267195
0.210799
0.197572
0.182059
0.159656
0.13442
0.110173
0.0887676
0.070704
0.0559052
0.0440872
0.0348803
0.0278792
0.0226777
0.0188965
0.0162026
0.01432
0.0130297
0.0121639
0.0115977
0.0112395
0.0110229
0.0109038
0.0110643
0.0114121
0.0119536
0.0127738
0.0140033
0.0158538
0.0186741
0.0230345
0.0298584
0.0405366
0.0570471
0.0829443
0.123739
0.185975
0.270683
0.356898
0.395209
0.355155
0.275544
0.225616
0.217848
0.201502
0.176061
0.147738
0.120925
0.0974188
0.0775318
0.0610897
0.047814
0.0373689
0.0293665
0.0233911
0.019036
0.015932
0.0137664
0.0122877
0.0113021
0.0106643
0.0102668
0.0100312
0.00990309
0.0103743
0.0107287
0.0112765
0.0121065
0.0133537
0.0152368
0.0181175
0.0225979
0.0296852
0.0410702
0.059616
0.0895935
0.137941
0.21219
0.310783
0.403717
0.432953
0.374997
0.287387
0.244045
0.240917
0.223574
0.195282
0.164099
0.134828
0.109196
0.0873358
0.0689659
0.0538488
0.0417395
0.0323263
0.025221
0.0200048
0.0162694
0.0136567
0.0118706
0.01068
0.00991011
0.00943124
0.00914735
0.00899021
0.00972574
0.0100929
0.0106426
0.0114671
0.0127036
0.0145705
0.0174291
0.0218912
0.0290158
0.0406776
0.0602585
0.0935831
0.148678
0.233699
0.344787
0.444658
0.468498
0.397434
0.303131
0.265903
0.266853
0.248952
0.21838
0.184768
0.153198
0.125399
0.101393
0.0807645
0.063329
0.0489804
0.0375679
0.0287978
0.0222769
0.017563
0.0142445
0.0119621
0.0104326
0.00943649
0.00881187
0.00843777
0.00822643
0.00911483
0.00949702
0.01005
0.0108648
0.0120756
0.0138932
0.0166653
0.0209898
0.0279336
0.0394755
0.0593582
0.0943177
0.154298
0.248171
0.371024
0.480518
0.50523
0.425582
0.324605
0.290379
0.295779
0.278462
0.246637
0.211303
0.177676
0.147634
0.121296
0.0980514
0.077765
0.060471
0.0462759
0.0350735
0.0265831
0.0203486
0.0159155
0.012835
0.0107529
0.00937867
0.00850347
0.00796838
0.00765941
0.00854911
0.00894629
0.00950531
0.0103127
0.011495
0.0132486
0.015896
0.0199975
0.026582
0.0376328
0.0570516
0.0921021
0.15407
0.254023
0.387529
0.510074
0.54391
0.462209
0.355386
0.317234
0.327765
0.312953
0.281434
0.245485
0.210229
0.177904
0.149007
0.122753
0.0990842
0.078073
0.0601612
0.0454951
0.0340895
0.0254973
0.0193079
0.0149341
0.0119552
0.00995297
0.00865514
0.00783568
0.00734735
0.00803846
0.00844965
0.00901733
0.00982267
0.0109829
0.0126755
0.0151892
0.0190285
0.0251412
0.0354168
0.0537059
0.0874293
0.148695
0.250704
0.39241
0.530825
0.583213
0.509023
0.396123
0.346941
0.362777
0.353044
0.323847
0.28898
0.252962
0.21876
0.186917
0.157165
0.12965
0.104147
0.081602
0.0621874
0.0466759
0.0344531
0.0255471
0.0190349
0.0146055
0.0115441
0.00955072
0.00823488
0.00741711
0.007594
0.00801733
0.00859508
0.00940419
0.0105526
0.0121996
0.0145954
0.0181789
0.0237808
0.0331114
0.0497333
0.0808178
0.138569
0.238186
0.382747
0.535974
0.615316
0.564103
0.450019
0.382952
0.400426
0.398242
0.373631
0.342307
0.307182
0.271585
0.237567
0.203842
0.172332
0.141373
0.11377
0.0879485
0.0673419
0.0494958
0.0367283
0.0265044
0.0198211
0.0148343
0.0117494
0.00956585
0.0082303
0.00723254
0.00766444
0.00825168
0.00906788
0.0102156
0.011838
0.0141522
0.0175253
0.0226649
0.0310293
0.0458142
0.073415
0.126012
0.219293
0.36383
0.531235
0.63986
0.619313
0.498702
0.429441
0.438464
0.444332
0.427572
0.403528
0.373081
0.337514
0.303665
0.264943
0.231175
0.191999
0.161269
0.1254
0.101049
0.0733994
0.0571021
0.0394412
0.030251
0.0208945
0.016446
0.0122451
0.0103181
0.00863919
0.0073201
0.00692092
0.00707305
0.00749051
0.00811537
0.00891548
0.00985118
0.0108599
0.0118727
0.0128264
0.0136748
0.0144047
0.0151343
0.0164737
0.0213749
0.0506584
0.00776761
0.00688065
0.0066987
0.0068415
0.00718349
0.00769996
0.00837813
0.00919558
0.0101085
0.0110576
0.0119815
0.0128392
0.0136472
0.0145972
0.0164916
0.0227597
0.050628
0.00706186
0.00659801
0.00652596
0.00665047
0.00692525
0.00734648
0.00791513
0.00862157
0.00943855
0.0103199
0.011213
0.0120848
0.0129793
0.0141541
0.0165593
0.0237783
0.050619
0.00669143
0.006418
0.00639215
0.00649397
0.00670964
0.00704739
0.0075175
0.00812176
0.00884645
0.00966104
0.0105261
0.0114216
0.012416
0.013824
0.0167137
0.0247342
0.0508748
0.00643349
0.00629755
0.00628985
0.00636773
0.00653258
0.00679884
0.00718263
0.00769392
0.00833108
0.00907935
0.00991808
0.010848
0.0119643
0.0136322
0.0170136
0.0258123
0.0514249
0.00629996
0.00621782
0.00621365
0.0062685
0.0063905
0.00659657
0.00690585
0.00733405
0.00788935
0.00857236
0.0093844
0.0103554
0.0116179
0.0135926
0.0175317
0.027209
0.0523277
0.00622272
0.00616752
0.00615964
0.00619386
0.00628077
0.00643748
0.00668394
0.00703928
0.00751935
0.00813865
0.00892146
0.00993315
0.0113571
0.0136873
0.0182701
0.0288415
0.0536541
0.00618587
0.00613934
0.00612505
0.00614188
0.00620092
0.00631832
0.00651333
0.00680653
0.00721922
0.00777742
0.00852673
0.00956976
0.0111518
0.0138634
0.0191685
0.0307603
0.0554609
0.00617248
0.00612893
0.00610788
0.00611095
0.0061487
0.00623581
0.00639005
0.00663208
0.00698638
0.00748737
0.00819805
0.00925468
0.0109673
0.0140449
0.0201285
0.0330119
0.05776
0.00617738
0.00613333
0.0061067
0.00609966
0.00612194
0.00618659
0.00630965
0.00651104
0.00681658
0.00726564
0.00793267
0.00897863
0.0107702
0.0141398
0.020969
0.0353485
0.0604865
0.00619553
0.00615107
0.00612046
0.0061067
0.0061185
0.00616734
0.00626751
0.0064378
0.00670406
0.00710752
0.0077272
0.00873682
0.0105382
0.0140631
0.0214617
0.0373455
0.0634817
0.0062257
0.00618088
0.0061483
0.00613084
0.00613633
0.00617483
0.00625906
0.00640655
0.00664233
0.00700695
0.00757841
0.00852984
0.0102729
0.0137945
0.0214412
0.0386136
0.066514
0.00626609
0.00622247
0.00618957
0.00617092
0.00617344
0.00620599
0.00627999
0.00641173
0.00662503
0.00695834
0.00748456
0.00836575
0.00999809
0.0133784
0.0209981
0.0390205
0.0693438
0.00631668
0.00627505
0.00624366
0.0062259
0.00622807
0.00625811
0.0063264
0.00644825
0.00664628
0.00695647
0.00744475
0.00825514
0.00974744
0.0128798
0.0202088
0.0386169
0.0717931
0.00637666
0.0063389
0.00631019
0.00629485
0.00629867
0.00632886
0.00639504
0.00651178
0.00670081
0.00699617
0.00745722
0.00820757
0.00955581
0.01237
0.019178
0.0371425
0.0737644
0.00644625
0.0064132
0.00638873
0.00637711
0.00638409
0.00641644
0.00648335
0.00659885
0.00678422
0.00707242
0.0075183
0.00822777
0.00945371
0.0119291
0.0179774
0.0343475
0.0752085
0.00652489
0.00649871
0.00647929
0.00647224
0.00648351
0.00651963
0.00658954
0.00670697
0.00689313
0.00718077
0.00762262
0.00831256
0.00945372
0.0116181
0.0167686
0.0317074
0.0760804
0.0066128
0.0065942
0.00658157
0.00658015
0.00659666
0.00663792
0.00671272
0.00683482
0.00702564
0.00731834
0.00776557
0.00845549
0.0095578
0.011504
0.0158548
0.0290066
0.0762851
0.00670955
0.00670106
0.00669616
0.0067012
0.00672384
0.00677146
0.00685289
0.00698225
0.00718143
0.00748441
0.00794502
0.00865031
0.00975388
0.0115886
0.0153142
0.0265448
0.0756896
0.00681536
0.0068176
0.00682271
0.00683585
0.00686592
0.00692111
0.00701093
0.00715013
0.00736141
0.00767992
0.00816118
0.00889342
0.0100251
0.0118353
0.0151867
0.0247218
0.074143
0.00693308
0.00694652
0.00696248
0.00698534
0.00702432
0.00708852
0.00718859
0.00734025
0.00756734
0.00790647
0.008415
0.00918281
0.0103564
0.0121907
0.0153886
0.0237975
0.0714738
0.00705168
0.00708484
0.00711469
0.00714949
0.00719887
0.00727305
0.00738404
0.00754885
0.00779259
0.00815339
0.00869025
0.00949445
0.0107103
0.0125759
0.0156945
0.0234143
0.0684983
0.00719943
0.00723843
0.00728174
0.00732957
0.00739062
0.00747557
0.00759755
0.00777482
0.00803386
0.00841419
0.00897618
0.00981206
0.0110638
0.0129546
0.0160018
0.0231083
0.0657418
0.00732848
0.00739908
0.00746179
0.00752598
0.00760097
0.00769794
0.00783107
0.00801977
0.00829168
0.00868759
0.00926907
0.0101292
0.0114085
0.0133185
0.0163029
0.022844
0.0632572
0.00751213
0.00758275
0.00766041
0.00774126
0.00783173
0.00794219
0.00808695
0.008286
0.00856782
0.00897414
0.00956761
0.0104425
0.0117395
0.0136641
0.0166035
0.0226647
0.0611231
0.00765447
0.00776856
0.00787222
0.00797449
0.00808344
0.00820955
0.00836706
0.00857602
0.0088651
0.00927643
0.00987351
0.0107523
0.0120559
0.0139911
0.0169105
0.0226163
0.0594347
0.00787852
0.00798819
0.0081077
0.00822979
0.00835821
0.00850163
0.00867336
0.00889261
0.00918736
0.00959925
0.010192
0.0110634
0.0123616
0.0143021
0.0172273
0.0227156
0.0582928
0.00804012
0.0082048
0.00835673
0.00850487
0.0086562
0.00881967
0.00900795
0.0092392
0.00953985
0.00995001
0.0105325
0.0113865
0.0126668
0.0146051
0.0175588
0.0229693
0.0577546
0.00830964
0.00846674
0.00863568
0.00880659
0.00898134
0.00916699
0.00937477
0.00962114
0.0099303
0.0103396
0.0109095
0.0117392
0.0129903
0.014916
0.0179126
0.0233766
0.0578444
0.00849639
0.00872044
0.00892851
0.00913067
0.00933376
0.00954604
0.00977834
0.0100455
0.0103692
0.0107829
0.011343
0.0121465
0.0133603
0.0152609
0.0183031
0.0239334
0.0585566
0.00881346
0.00902766
0.00925506
0.00948444
0.00971737
0.00996064
0.0102241
0.0105208
0.0108691
0.0112981
0.0118582
0.0126412
0.0138153
0.015678
0.018755
0.0246338
0.0598431
0.00902568
0.00931811
0.00959171
0.00985914
0.0101292
0.0104112
0.0107157
0.0110544
0.0114428
0.0119048
0.0124833
0.0132617
0.0144034
0.0162191
0.019307
0.0254732
0.0616158
0.00938079
0.00966236
0.00995875
0.01026
0.0105705
0.0108991
0.0112563
0.011653
0.0121021
0.0126224
0.0132477
0.0140495
0.0151795
0.0169489
0.0200148
0.0264546
0.0637598
0.00960999
0.00997799
0.0103272
0.0106753
0.0110361
0.011423
0.0118482
0.0123226
0.012858
0.0134694
0.0141808
0.0150478
0.0162036
0.0179438
0.0209557
0.0275986
0.0661482
0.00998188
0.0103415
0.0107189
0.0111106
0.0115278
0.0119849
0.012495
0.0130697
0.0137217
0.0144648
0.0153122
0.0163006
0.0175386
0.0192916
0.0222353
0.0289602
0.0686423
0.0102192
0.0106693
0.0111058
0.0115561
0.0120431
0.0125864
0.0132017
0.0139021
0.0147054
0.0156295
0.0166736
0.0178532
0.0192513
0.0210925
0.0239963
0.030656
0.0710737
0.010592
0.0110382
0.0115109
0.0120197
0.0125868
0.0132329
0.013975
0.0148284
0.0158228
0.0169887
0.0183017
0.0197555
0.0214145
0.0234636
0.0264295
0.0329068
0.0732269
0.0108344
0.011371
0.01191
0.012495
0.0131595
0.0139286
0.0148214
0.0158569
0.0170895
0.018577
0.0202431
0.0220675
0.0241163
0.026552
0.0297937
0.0360998
0.0748384
0.0112021
0.0117363
0.0123236
0.0129899
0.0137668
0.0146792
0.015747
0.016995
0.0185272
0.0204482
0.0225593
0.0248685
0.027479
0.0305606
0.0344531
0.0408723
0.0755995
0.0114402
0.0120643
0.0127324
0.0135012
0.0144106
0.0154883
0.0167569
0.0182496
0.0201739
0.0226899
0.0253306
0.0282703
0.0316895
0.0358047
0.0409589
0.0482647
0.0752616
0.0131117
0.0134253
0.0137372
0.0140466
0.0143524
0.0146531
0.0149471
0.0152323
0.0155065
0.0157676
0.016013
0.0162406
0.0164478
0.0166324
0.0167925
0.016926
0.0170317
0.0171093
0.0171606
0.0171948
0.0172676
0.0172972
0.0172034
0.0170566
0.016866
0.0166343
0.0163629
0.0160423
0.0157101
0.0153343
0.0149931
0.0145952
0.0142716
0.0138768
0.0135829
0.0132045
0.0129418
0.0125832
0.0123469
0.0120048
0.0117862
0.0138676
0.0142012
0.0145328
0.0148615
0.0151861
0.0155052
0.0158166
0.0161185
0.0164084
0.016684
0.0169429
0.0171826
0.0174006
0.0175948
0.017763
0.0179034
0.0180146
0.0180961
0.0181497
0.018184
0.0182549
0.0182818
0.0181867
0.0180394
0.0178491
0.0176181
0.0173477
0.0170275
0.0166818
0.0163087
0.015924
0.0155228
0.015134
0.0147378
0.0143715
0.0140003
0.0136667
0.0133247
0.0130205
0.0127016
0.012416
0.0147103
0.0150666
0.0154202
0.0157705
0.0161161
0.0164552
0.0167859
0.0171059
0.0174127
0.017704
0.0179772
0.0182298
0.0184594
0.0186636
0.0188404
0.018988
0.0191048
0.0191904
0.0192462
0.0192805
0.0193482
0.019371
0.0192739
0.0191254
0.0189344
0.0187034
0.0184336
0.018112
0.0177603
0.0173811
0.0169813
0.0165657
0.0161456
0.0157247
0.0153156
0.0149161
0.0145371
0.0141696
0.0138224
0.0134822
0.0131561
0.0156584
0.01604
0.0164182
0.0167922
0.0171606
0.0175217
0.0178731
0.0182126
0.0185377
0.0188458
0.0191343
0.0194006
0.0196424
0.0198573
0.0200432
0.0201982
0.020321
0.0204108
0.020469
0.0205031
0.0205666
0.0205843
0.0204845
0.020334
0.0201416
0.0199096
0.0196395
0.0193236
0.0189601
0.0185727
0.0181636
0.0177362
0.0172974
0.016854
0.0164144
0.0159833
0.0155665
0.0151639
0.0147773
0.0144022
0.0140374
0.0167348
0.0171441
0.017549
0.0179489
0.0183422
0.0187269
0.0191007
0.0194611
0.0198057
0.0201317
0.0204365
0.0207175
0.0209723
0.0211985
0.021394
0.021557
0.0216861
0.0217804
0.0218411
0.0218751
0.0219337
0.0219453
0.0218426
0.0216896
0.021495
0.0212612
0.0209899
0.0206824
0.0203034
0.0199079
0.0194895
0.0190512
0.0185983
0.0181371
0.0176745
0.0172164
0.0167682
0.0163322
0.0159097
0.0154987
0.0150963
0.0179682
0.0184073
0.0188411
0.0192688
0.0196886
0.0200985
0.0204962
0.0208789
0.0212442
0.0215893
0.0219114
0.0222081
0.0224767
0.022715
0.0229208
0.0230925
0.0232283
0.0233277
0.0233914
0.0234255
0.0234788
0.0234839
0.0233782
0.0232227
0.0230255
0.0227892
0.0225158
0.0222071
0.0218364
0.0214236
0.0209898
0.0205385
0.0200721
0.019595
0.0191132
0.0186324
0.0181578
0.0176929
0.0172393
0.0167961
0.0163604
0.0193953
0.0198659
0.0203301
0.0207871
0.0212351
0.0216717
0.0220944
0.0225008
0.0228879
0.0232532
0.0235938
0.023907
0.0241904
0.0244417
0.0246588
0.0248398
0.0249832
0.0250884
0.0251556
0.0251905
0.0252384
0.0252372
0.025129
0.0249713
0.0247717
0.0245329
0.024257
0.0239463
0.0236028
0.0231641
0.0227125
0.0222428
0.0217588
0.0212642
0.0207634
0.0202614
0.0197631
0.0192724
0.0187914
0.0183203
0.0178559
0.0210641
0.021567
0.0220625
0.0225499
0.0230269
0.0234911
0.0239401
0.0243709
0.024781
0.0251674
0.0255274
0.0258583
0.0261575
0.0264228
0.026652
0.0268434
0.0269955
0.0271074
0.0271793
0.0272159
0.0272591
0.027252
0.0271424
0.0269837
0.0267825
0.0265417
0.0262637
0.0259511
0.0256066
0.0252258
0.0247379
0.0242378
0.0237264
0.0232073
0.0226831
0.0221577
0.0216353
0.0211195
0.0206131
0.0201169
0.0196288
0.0230376
0.0235726
0.0240994
0.0246171
0.0251234
0.0256156
0.0260911
0.0265471
0.0269806
0.0273889
0.0277692
0.0281185
0.0284346
0.0287149
0.0289574
0.0291604
0.0293224
0.0294424
0.0295205
0.0295604
0.0295999
0.0295882
0.0294791
0.0293211
0.0291199
0.0288787
0.0286
0.0282866
0.0279418
0.0275688
0.0271694
0.0266799
0.0261237
0.0255579
0.0249947
0.0244359
0.023884
0.0233421
0.0228419
0.0224258
0.0221082
0.0254002
0.0259659
0.0265225
0.0270692
0.0276037
0.028123
0.0286246
0.0291053
0.0295623
0.0299926
0.0303934
0.0307619
0.0310955
0.0313918
0.0316489
0.0318649
0.0320383
0.0321682
0.0322543
0.0322995
0.0323373
0.032323
0.032217
0.0320623
0.0318639
0.0316248
0.0313478
0.031036
0.0306928
0.030322
0.0299273
0.0295129
0.0290828
0.0286071
0.0281027
0.0275968
0.0271148
0.0266778
0.0262724
0.0258638
0.0254352
0.0282673
0.02886
0.0294429
0.0300155
0.0305752
0.0311192
0.0316447
0.0321485
0.0326276
0.0330791
0.0334999
0.0338874
0.0342389
0.0345519
0.0348245
0.0350548
0.0352413
0.0353829
0.0354794
0.0355327
0.0355714
0.0355573
0.0354579
0.0353101
0.0351182
0.034885
0.0346133
0.0343065
0.033968
0.0336018
0.0332118
0.0328022
0.032377
0.0319398
0.0314936
0.0310402
0.0305801
0.0301124
0.0296356
0.0291483
0.0286485
0.0318005
0.0324131
0.0330158
0.033608
0.0341872
0.0347507
0.0352956
0.0358186
0.0363165
0.0367865
0.0372253
0.0376304
0.0379988
0.0383283
0.0386167
0.0388622
0.0390632
0.0392187
0.039328
0.0393926
0.0394354
0.0394253
0.039337
0.0392007
0.03902
0.0387973
0.0385357
0.0382382
0.0379082
0.0375494
0.0371657
0.0367607
0.0363378
0.0358999
0.0354484
0.0349834
0.0345042
0.03401
0.0335006
0.0329762
0.0324361
0.0362321
0.0368521
0.0374631
0.0380641
0.0386528
0.0392264
0.0397821
0.0403166
0.0408267
0.0413093
0.0417613
0.0421799
0.0425624
0.0429062
0.0432093
0.0434696
0.0436857
0.0438563
0.0439808
0.0440596
0.0441104
0.0441089
0.0440367
0.0439173
0.0437533
0.043547
0.0433009
0.0430178
0.0427007
0.0423527
0.041977
0.0415764
0.0411535
0.0407102
0.0402467
0.0397628
0.0392582
0.0387334
0.0381891
0.0376257
0.0370439
0.0419069
0.0425128
0.0431127
0.0437042
0.0442851
0.0448526
0.045404
0.045936
0.0464456
0.0469296
0.0473848
0.0478085
0.0481978
0.0485501
0.0488633
0.0491354
0.0493647
0.0495499
0.04969
0.0497852
0.0498473
0.0498591
0.0498083
0.0497115
0.0495705
0.0493871
0.0491633
0.0489011
0.0486029
0.0482709
0.0479074
0.0475143
0.0470934
0.0466456
0.0461712
0.0456702
0.0451435
0.044592
0.0440166
0.043418
0.0427988
0.049352
0.0499095
0.0504662
0.0510175
0.0515612
0.0520947
0.0526154
0.0531204
0.0536066
0.0540709
0.0545102
0.0549218
0.0553026
0.0556502
0.0559623
0.0562368
0.0564719
0.0566663
0.0568188
0.0569289
0.0570036
0.0570318
0.0570064
0.0569374
0.056826
0.0566733
0.0564803
0.0562485
0.0559792
0.0556739
0.0553337
0.0549598
0.0545533
0.0541147
0.0536443
0.0531428
0.0526112
0.0520503
0.0514614
0.0508457
0.0502086
0.0594025
0.059858
0.0603197
0.0607803
0.0612377
0.0616899
0.0621344
0.0625688
0.0629903
0.0633959
0.0637829
0.0641483
0.0644896
0.0648042
0.0650899
0.0653445
0.0655662
0.0657537
0.0659056
0.0660211
0.0661033
0.0661461
0.0661461
0.066108
0.0660323
0.0659193
0.0657696
0.0655835
0.0653617
0.0651047
0.064813
0.0644868
0.0641268
0.063733
0.0633057
0.0628454
0.0623528
0.0618285
0.0612736
0.0606899
0.0600864
0.0734294
0.0737045
0.0739918
0.0742813
0.0745721
0.0748632
0.0751529
0.0754394
0.0757207
0.0759945
0.0762586
0.0765108
0.0767488
0.0769708
0.0771746
0.0773588
0.0775218
0.0776624
0.0777795
0.0778723
0.0779414
0.0779845
0.0780003
0.0779902
0.077954
0.0778917
0.0778034
0.0776889
0.0775482
0.0773814
0.0771881
0.0769684
0.076722
0.0764487
0.0761483
0.0758208
0.0754663
0.0750849
0.074677
0.0742434
0.073797
0.0499166
0.0203019
0.0159737
0.0148166
0.0141965
0.0136121
0.012971
0.0122815
0.0115676
0.0108507
0.0101485
0.00947424
0.00883923
0.00825355
0.00772734
0.00727198
0.00690452
0.0498328
0.0216606
0.0160091
0.0143643
0.0135709
0.0129302
0.012278
0.0115954
0.0108984
0.0102066
0.009537
0.0089031
0.00831511
0.00778135
0.00730923
0.00690718
0.00658739
0.0496429
0.0226755
0.0160776
0.0139627
0.0129747
0.0122597
0.0115879
0.0109106
0.0102335
0.00957291
0.00894421
0.00835941
0.00782695
0.00735286
0.006942
0.00660007
0.00633457
0.0496438
0.023569
0.0162041
0.0136317
0.0124287
0.0116216
0.0109187
0.0102423
0.00958619
0.0089612
0.00837943
0.00785012
0.00737907
0.00696957
0.00662383
0.00634441
0.00613694
0.0498507
0.0245092
0.0164439
0.0134087
0.0119643
0.0110413
0.0102924
0.00961066
0.00897514
0.00838857
0.00785766
0.00738757
0.0069807
0.0066373
0.00635675
0.00613888
0.00598624
0.0503243
0.0257139
0.0168877
0.013345
0.0116173
0.0105474
0.00973385
0.00903846
0.00842126
0.00787369
0.00739486
0.0069846
0.00664131
0.00636205
0.00614344
0.0059829
0.00587966
0.0511615
0.0274011
0.0176315
0.0134863
0.0114137
0.0101591
0.00926107
0.00854339
0.00794172
0.00743223
0.00700442
0.00665176
0.00636827
0.00614789
0.00598482
0.00587423
0.00581383
0.0524657
0.0295518
0.0187076
0.0138398
0.0113515
0.00987689
0.00887937
0.00813437
0.00754672
0.00707396
0.00669441
0.0063947
0.0061646
0.00599529
0.00587908
0.00580977
0.00578424
0.0543059
0.0319641
0.0200276
0.0143429
0.0113881
0.00967711
0.00857906
0.00780967
0.0072379
0.00680101
0.00646597
0.006213
0.00602824
0.00590088
0.00582217
0.00578541
0.00578675
0.0566857
0.0347522
0.0214567
0.0148718
0.011445
0.00951782
0.00833971
0.00755936
0.00700948
0.00660851
0.00631384
0.00610071
0.00595282
0.00585831
0.00580819
0.00579576
0.00581736
0.0595147
0.0376737
0.0227386
0.0152594
0.0114334
0.00935606
0.00814081
0.00737188
0.00685253
0.00648779
0.00622906
0.00604891
0.00592996
0.00586022
0.00583108
0.00583636
0.0058731
0.0626058
0.0401797
0.0235209
0.0153388
0.0112874
0.00916869
0.00797336
0.00724088
0.00675974
0.00643028
0.00620256
0.00604882
0.00595186
0.00590021
0.00588603
0.00590412
0.00595176
0.0657247
0.0416642
0.0235065
0.015032
0.0110028
0.00896669
0.00784482
0.00716729
0.00672714
0.0064294
0.00622689
0.00609332
0.0060124
0.00597343
0.00596959
0.00599648
0.00605168
0.0686584
0.0417598
0.02275
0.0144263
0.0106494
0.00879102
0.00777328
0.00715547
0.00675223
0.00647986
0.00629611
0.00617684
0.00610687
0.00607635
0.00607936
0.00611204
0.00617222
0.0712548
0.0404779
0.0214415
0.0136882
0.0103268
0.00868796
0.00777461
0.00720724
0.00683143
0.00657647
0.00640507
0.00629497
0.00623191
0.00620671
0.00621396
0.00625022
0.00631221
0.0734194
0.0381669
0.0198869
0.0130109
0.0101225
0.00868688
0.00785386
0.00731952
0.00695977
0.00671453
0.00654992
0.00644488
0.00638565
0.00636333
0.00637256
0.00640969
0.00647003
0.0750645
0.0353448
0.0183624
0.012526
0.0100784
0.00879351
0.00800722
0.00748746
0.00713321
0.00689091
0.0067284
0.00662498
0.00656697
0.00654526
0.00655401
0.00658867
0.00664487
0.0760541
0.0322093
0.0171361
0.0123158
0.0102015
0.00899879
0.00822661
0.0077055
0.0073478
0.00710268
0.00693827
0.00683348
0.00677413
0.00675051
0.0067559
0.00678508
0.00683417
0.0761935
0.0290633
0.0163965
0.0123885
0.0104639
0.00928272
0.00850066
0.00796648
0.00759835
0.00734573
0.00717602
0.00706714
0.00700373
0.00697532
0.00697415
0.00699426
0.00703109
0.0752458
0.0265596
0.0161676
0.0126737
0.0108209
0.00962307
0.00881617
0.00826078
0.00787712
0.00761353
0.0074359
0.00732055
0.0072507
0.00721483
0.00720458
0.0072125
0.00723221
0.0730071
0.025172
0.0163051
0.0130778
0.0112283
0.00999644
0.00915663
0.00857574
0.00817395
0.00789768
0.00771063
0.0075872
0.00750923
0.00746428
0.00744365
0.00743982
0.00744368
0.070107
0.0246479
0.0166127
0.013505
0.0116324
0.0103627
0.00949032
0.00888658
0.00846983
0.00818369
0.0079891
0.00785849
0.00777253
0.00771824
0.00768697
0.00767204
0.00767071
0.0672992
0.024298
0.0169172
0.0138879
0.0119876
0.0106862
0.009791
0.0091748
0.00875222
0.00846313
0.00826562
0.00813047
0.00803774
0.00797443
0.00793196
0.00790342
0.0078911
0.0646882
0.0239875
0.0171843
0.0142027
0.0122753
0.0109544
0.0100526
0.00943893
0.00902216
0.00873794
0.00854206
0.0084046
0.00830592
0.00823383
0.00818064
0.00813897
0.00809668
0.0623974
0.0237109
0.0174026
0.0144405
0.0124934
0.0111723
0.0102842
0.00968921
0.00928898
0.00901566
0.00882407
0.00868491
0.00857982
0.00849824
0.00843438
0.00838407
0.00834286
0.0605344
0.0235365
0.0175798
0.0146117
0.0126597
0.0113613
0.0105067
0.00994339
0.00956654
0.00930665
0.00911943
0.00897743
0.00886428
0.00877105
0.00869331
0.00862902
0.00858615
0.0592328
0.0235044
0.0177333
0.014742
0.0128055
0.0115519
0.0107457
0.0102213
0.0098695
0.00962185
0.00943668
0.00928931
0.0091656
0.00905814
0.00896375
0.00888029
0.00879979
0.058546
0.0236131
0.0178826
0.0148655
0.012967
0.0117757
0.0110259
0.0105411
0.0102115
0.00997173
0.00978426
0.00962755
0.00948959
0.00936458
0.00925102
0.00915002
0.00906058
0.0584767
0.0238516
0.0180509
0.0150182
0.0131793
0.0120614
0.0113691
0.0109191
0.0106047
0.010366
0.0101701
0.00999864
0.00984168
0.00969455
0.00955644
0.00943037
0.00933255
0.0589892
0.0242116
0.0182645
0.0152362
0.0134753
0.0124349
0.0117944
0.0113697
0.0110604
0.0108134
0.0106009
0.0104078
0.0102261
0.0100517
0.00988396
0.00972445
0.00957422
0.0600176
0.02469
0.018554
0.0155572
0.0138877
0.012921
0.0123203
0.0119065
0.0115886
0.0113213
0.011082
0.0108586
0.0106448
0.0104373
0.0102357
0.0100422
0.0098616
0.0614776
0.0252906
0.0189587
0.0160245
0.0144512
0.0135451
0.0129648
0.0125423
0.0121982
0.0118955
0.0116167
0.0113526
0.0110981
0.0108507
0.0106092
0.0103757
0.0101679
0.0632736
0.0260286
0.0195318
0.0166896
0.0152044
0.014334
0.0137461
0.013289
0.0128967
0.0125405
0.0122072
0.0118901
0.0115852
0.0112901
0.0110031
0.0107229
0.0104495
0.0653064
0.0269401
0.0203478
0.0176153
0.0161908
0.0153165
0.0146826
0.0141583
0.0136912
0.0132599
0.0128549
0.0124708
0.0121045
0.0117534
0.0114152
0.011087
0.0107645
0.067469
0.028097
0.0215097
0.0188778
0.0174602
0.016524
0.0157938
0.0151622
0.0145887
0.0140575
0.0135611
0.0130948
0.012655
0.0122386
0.0118423
0.0114614
0.0110926
0.0696333
0.0296334
0.0231583
0.02057
0.0190707
0.0179924
0.0171027
0.0163151
0.015598
0.0149384
0.0143287
0.0137632
0.0132368
0.0127449
0.0122828
0.0118435
0.0114056
0.0716293
0.0317829
0.0254848
0.0228096
0.0210942
0.0197677
0.0186388
0.0176362
0.0167317
0.0159108
0.015163
0.0144792
0.0138516
0.0132729
0.0127365
0.0122338
0.0117323
0.0732384
0.0349379
0.0287537
0.0257548
0.0236294
0.0219135
0.0204442
0.0191537
0.0180088
0.0169875
0.0160724
0.0152485
0.0145029
0.0138247
0.013204
0.0126306
0.0120595
0.074191
0.0397378
0.0333488
0.0296357
0.026822
0.0245244
0.022581
0.0209089
0.0194568
0.0181869
0.0170692
0.016079
0.0151959
0.0144033
0.013687
0.0130343
0.0123952
0.0742605
0.0472471
0.0398724
0.0348164
0.0309001
0.0277448
0.0251422
0.0229621
0.021115
0.0195345
0.0181698
0.0169812
0.0159373
0.015013
0.0141881
0.013446
0.012745
0.00742034
0.00887925
0.0117009
0.0174379
0.0313548
0.076025
0.213409
0.464024
0.585864
0.509647
0.485961
0.469302
0.414495
0.339325
0.254199
0.172265
0.104718
0.0576192
0.0298481
0.0159055
0.00746116
0.00909363
0.0122063
0.018315
0.0327048
0.0766723
0.202258
0.434662
0.593841
0.548635
0.530031
0.545959
0.510573
0.435375
0.333975
0.230613
0.142369
0.0789177
0.0401486
0.0201512
0.00758894
0.00940512
0.0128479
0.0193632
0.0339341
0.0752995
0.187162
0.401889
0.595063
0.580931
0.570129
0.622298
0.615609
0.549289
0.434533
0.305331
0.191351
0.107072
0.0541484
0.0260524
0.00781085
0.00983655
0.0136691
0.0206735
0.0352837
0.0731857
0.170892
0.365798
0.583175
0.615806
0.601463
0.687405
0.723074
0.676716
0.555876
0.399113
0.253732
0.143251
0.0725296
0.0339831
0.00814784
0.0104361
0.0147679
0.0224532
0.03724
0.0716705
0.155661
0.327894
0.553551
0.645013
0.626574
0.724357
0.824652
0.810691
0.694205
0.513485
0.331282
0.189082
0.0959994
0.0443351
0.00863634
0.0112935
0.0163469
0.0251324
0.0407063
0.0725352
0.144275
0.291564
0.507418
0.645166
0.646098
0.725531
0.908527
0.944794
0.844822
0.646873
0.426415
0.245709
0.125207
0.0574355
0.00932848
0.0125567
0.0188002
0.0295834
0.0473285
0.0786513
0.139951
0.260273
0.444602
0.608043
0.644293
0.692245
0.953656
1.06874
1.00245
0.796465
0.53849
0.314207
0.160901
0.0735401
0.0102985
0.014461
0.0228251
0.0374381
0.0601665
0.095619
0.151503
0.25115
0.409202
0.56645
0.625628
0.672391
0.930689
1.16657
1.1585
0.958257
0.666472
0.394613
0.203131
0.0928299
0.0116559
0.0173559
0.029478
0.0512307
0.0866339
0.13191
0.186182
0.265444
0.391427
0.528376