# vtk DataFile Version 2.0
inlet_cyc
ASCII
DATASET POLYDATA
POINTS 202 float
-10 7.5 0 -10 7.35 0 -10 7.35 1 -10 7.5
1 -10 7.2 0 -10 7.2 1 -10 7.05 0
-10 7.05 1 -10 6.9 0 -10 6.9 1 -10
6.75 0 -10 6.75 1 -10 6.6 0 -10 6.6
1 -10 6.45 0 -10 6.45 1 -10 6.3 0
-10 6.3 1 -10 6.15 0 -10 6.15 1 -10
6 0 -10 6 1 -10 5.85 0 -10 5.85
1 -10 5.7 0 -10 5.7 1 -10 5.55 0
-10 5.55 1 -10 5.4 0 -10 5.4 1 -10
5.25 0 -10 5.25 1 -10 5.1 0 -10 5.1
1 -10 4.95 0 -10 4.95 1 -10 4.8 0
-10 4.8 1 -10 4.65 0 -10 4.65 1 -10
4.5 0 -10 4.5 1 -10 4.35 0 -10 4.35
1 -10 4.2 0 -10 4.2 1 -10 4.05 0
-10 4.05 1 -10 3.9 0 -10 3.9 1 -10
3.75 0 -10 3.75 1 -10 3.6 0 -10 3.6
1 -10 3.45 0 -10 3.45 1 -10 3.3 0
-10 3.3 1 -10 3.15 0 -10 3.15 1 -10
3 0 -10 3 1 -10 2.85 0 -10 2.85
1 -10 2.7 0 -10 2.7 1 -10 2.55 0
-10 2.55 1 -10 2.4 0 -10 2.4 1 -10
2.25 0 -10 2.25 1 -10 2.1 0 -10 2.1
1 -10 1.95 0 -10 1.95 1 -10 1.8 0
-10 1.8 1 -10 1.65 0 -10 1.65 1 -10
1.5 0 -10 1.5 1 -10 1.35 0 -10 1.35
1 -10 1.2 0 -10 1.2 1 -10 1.05 0
-10 1.05 1 -10 0.9 0 -10 0.9 1 -10
0.75 0 -10 0.75 1 -10 0.6 0 -10 0.6
1 -10 0.45 0 -10 0.45 1 -10 0.3 0
-10 0.3 1 -10 0.15 0 -10 0.15 1 -10
1.09246e-11 0 -10 1.09246e-11 1 -10 -0.15 0 -10 -0.15
1 -10 -0.3 0 -10 -0.3 1 -10 -0.45 0
-10 -0.45 1 -10 -0.6 0 -10 -0.6 1 -10
-0.75 0 -10 -0.75 1 -10 -0.9 0 -10 -0.9
1 -10 -1.05 0 -10 -1.05 1 -10 -1.2 0
-10 -1.2 1 -10 -1.35 0 -10 -1.35 1 -10
-1.5 0 -10 -1.5 1 -10 -1.65 0 -10 -1.65
1 -10 -1.8 0 -10 -1.8 1 -10 -1.95 0
-10 -1.95 1 -10 -2.1 0 -10 -2.1 1 -10
-2.25 0 -10 -2.25 1 -10 -2.4 0 -10 -2.4
1 -10 -2.55 0 -10 -2.55 1 -10 -2.7 0
-10 -2.7 1 -10 -2.85 0 -10 -2.85 1 -10
-3 0 -10 -3 1 -10 -3.15 0 -10 -3.15
1 -10 -3.3 0 -10 -3.3 1 -10 -3.45 0
-10 -3.45 1 -10 -3.6 0 -10 -3.6 1 -10
-3.75 0 -10 -3.75 1 -10 -3.9 0 -10 -3.9
1 -10 -4.05 0 -10 -4.05 1 -10 -4.2 0
-10 -4.2 1 -10 -4.35 0 -10 -4.35 1 -10
-4.5 0 -10 -4.5 1 -10 -4.65 0 -10 -4.65
1 -10 -4.8 0 -10 -4.8 1 -10 -4.95 0
-10 -4.95 1 -10 -5.1 0 -10 -5.1 1 -10
-5.25 0 -10 -5.25 1 -10 -5.4 0 -10 -5.4
1 -10 -5.55 0 -10 -5.55 1 -10 -5.7 0
-10 -5.7 1 -10 -5.85 0 -10 -5.85 1 -10
-6 0 -10 -6 1 -10 -6.15 0 -10 -6.15
1 -10 -6.3 0 -10 -6.3 1 -10 -6.45 0
-10 -6.45 1 -10 -6.6 0 -10 -6.6 1 -10
-6.75 0 -10 -6.75 1 -10 -6.9 0 -10 -6.9
1 -10 -7.05 0 -10 -7.05 1 -10 -7.2 0
-10 -7.2 1 -10 -7.35 0 -10 -7.35 1 -10
-7.5 0 -10 -7.5 1 
POLYGONS 100 500
4 0 1 2 3 4 1 4 5 2 4
4 6 7 5 4 6 8 9 7 4
8 10 11 9 4 10 12 13 11 4
12 14 15 13 4 14 16 17 15 4
16 18 19 17 4 18 20 21 19 4
20 22 23 21 4 22 24 25 23 4
24 26 27 25 4 26 28 29 27 4
28 30 31 29 4 30 32 33 31 4
32 34 35 33 4 34 36 37 35 4
36 38 39 37 4 38 40 41 39 4
40 42 43 41 4 42 44 45 43 4
44 46 47 45 4 46 48 49 47 4
48 50 51 49 4 50 52 53 51 4
52 54 55 53 4 54 56 57 55 4
56 58 59 57 4 58 60 61 59 4
60 62 63 61 4 62 64 65 63 4
64 66 67 65 4 66 68 69 67 4
68 70 71 69 4 70 72 73 71 4
72 74 75 73 4 74 76 77 75 4
76 78 79 77 4 78 80 81 79 4
80 82 83 81 4 82 84 85 83 4
84 86 87 85 4 86 88 89 87 4
88 90 91 89 4 90 92 93 91 4
92 94 95 93 4 94 96 97 95 4
96 98 99 97 4 98 100 101 99 4
100 102 103 101 4 102 104 105 103 4
104 106 107 105 4 106 108 109 107 4
108 110 111 109 4 110 112 113 111 4
112 114 115 113 4 114 116 117 115 4
116 118 119 117 4 118 120 121 119 4
120 122 123 121 4 122 124 125 123 4
124 126 127 125 4 126 128 129 127 4
128 130 131 129 4 130 132 133 131 4
132 134 135 133 4 134 136 137 135 4
136 138 139 137 4 138 140 141 139 4
140 142 143 141 4 142 144 145 143 4
144 146 147 145 4 146 148 149 147 4
148 150 151 149 4 150 152 153 151 4
152 154 155 153 4 154 156 157 155 4
156 158 159 157 4 158 160 161 159 4
160 162 163 161 4 162 164 165 163 4
164 166 167 165 4 166 168 169 167 4
168 170 171 169 4 170 172 173 171 4
172 174 175 173 4 174 176 177 175 4
176 178 179 177 4 178 180 181 179 4
180 182 183 181 4 182 184 185 183 4
184 186 187 185 4 186 188 189 187 4
188 190 191 189 4 190 192 193 191 4
192 194 195 193 4 194 196 197 195 4
196 198 199 197 4 198 200 201 199 
CELL_DATA 100
FIELD attributes 7
patchID 1 100 float
3 3 3 3 3 3 3 3 3 3 3
3 3 3 3 3 3 3 3 3 3
3 3 3 3 3 3 3 3 3 3
3 3 3 3 3 3 3 3 3 3
3 3 3 3 3 3 3 3 3 3
3 3 3 3 3 3 3 3 3 3
3 3 3 3 3 3 3 3 3 3
3 3 3 3 3 3 3 3 3 3
3 3 3 3 3 3 3 3 3 3
3 3 3 3 3 3 3 3 3 
mag(U) 1 100 float
0.999955 0.99995 0.999947 0.999946 0.999949 0.999958 0.999978 1.00001 1.00006 1.00015 1.00027
1.00042 1.00064 1.0009 1.00121 1.0016 1.00204 1.00254 1.00309 1.00368 1.0043
1.00494 1.00558 1.00622 1.00683 1.00742 1.00795 1.00844 1.00885 1.0092 1.00949
1.00969 1.00982 1.00988 1.00986 1.00977 1.00961 1.00938 1.00909 1.00873 1.00833
1.00788 1.00739 1.00687 1.00632 1.00576 1.00519 1.00462 1.00406 1.00352 1.00301
1.00253 1.0021 1.00171 1.00136 1.00107 1.00082 1.00061 1.00045 1.00031 1.00022
1.00014 1.00008 1.00004 1.00002 0.999997 0.999983 0.999976 0.999971 0.999969 0.999968
0.999966 0.999967 0.999967 0.999968 0.999968 0.999969 0.999969 0.999969 0.999969 0.99997
0.99997 0.99997 0.99997 0.99997 0.99997 0.99997 0.99997 0.99997 0.99997 0.99997
0.999969 0.999969 0.999969 0.999968 0.999967 0.999966 0.999964 0.999961 0.999958 
p 1 100 float
0.999977 0.999971 0.999967 0.999965 0.999969 0.999979 1.00001 1.00005 1.00012 1.00022 1.00037
1.00056 1.00081 1.00111 1.0015 1.00195 1.00247 1.00304 1.00368 1.00437 1.0051
1.00584 1.00659 1.00733 1.00806 1.00876 1.00941 1.01001 1.01055 1.01102 1.01141
1.01173 1.01198 1.01215 1.01223 1.01225 1.01218 1.01204 1.01183 1.01155 1.0112
1.0108 1.01033 1.00982 1.00926 1.00865 1.00802 1.00735 1.00668 1.00601 1.00533
1.00468 1.00406 1.00347 1.00293 1.00243 1.002 1.00162 1.00129 1.00102 1.0008
1.00062 1.00047 1.00035 1.00027 1.00019 1.00014 1.0001 1.00007 1.00004 1.00004
1.00002 1.00001 1.00001 1.00001 1 1 1 1 1 1
1 1 1 1 1 1 1 1 1 1
1 0.999999 0.999999 0.999997 0.999996 0.999994 0.999991 0.999987 0.999982 
T 1 100 float
1 1 1 1 1 1 1 1 1 1 1
1 1 1 1 1 1 1 1 1 1
1.00001 1.00001 1.00001 1.00001 1.00001 1.00001 1.00001 1.00001 1.00001 1.00001
1.00001 1.00001 1.00001 1.00001 1.00001 1.00001 1.00001 1.00001 1.00001 1.00001
1.00001 1.00001 1.00001 1.00001 1.00001 1.00001 1.00001 1.00001 1.00001 1
1 1 1 1 1 1 1 1 1 1
1 1 1 1 1 1 1 1 1 1
1 1 1 1 1 1 1 1 1 1
1 1 1 1 1 1 1 1 1 1
1 1 1 1 1 1 1 1 1 
e 1 100 float
1006.29 1006.29 1006.29 1006.29 1006.29 1006.29 1006.29 1006.29 1006.29 1006.29 1006.29
1006.29 1006.29 1006.29 1006.29 1006.29 1006.29 1006.29 1006.29 1006.29 1006.29
1006.29 1006.29 1006.29 1006.29 1006.29 1006.29 1006.29 1006.29 1006.29 1006.29
1006.29 1006.29 1006.29 1006.29 1006.29 1006.29 1006.29 1006.29 1006.29 1006.29
1006.29 1006.29 1006.29 1006.29 1006.29 1006.29 1006.29 1006.29 1006.29 1006.29
1006.29 1006.29 1006.29 1006.29 1006.29 1006.29 1006.29 1006.29 1006.29 1006.29
1006.29 1006.29 1006.29 1006.29 1006.29 1006.29 1006.29 1006.29 1006.29 1006.29
1006.29 1006.29 1006.29 1006.29 1006.29 1006.29 1006.29 1006.29 1006.29 1006.29
1006.29 1006.29 1006.29 1006.29 1006.29 1006.29 1006.29 1006.29 1006.29 1006.29
1006.29 1006.29 1006.29 1006.29 1006.29 1006.29 1006.29 1006.29 1006.29 
rho 1 100 float
1.39997 1.39997 1.39996 1.39996 1.39996 1.39998 1.40001 1.40007 1.40017 1.40032 1.40051
1.40078 1.40113 1.40157 1.4021 1.40272 1.40345 1.40427 1.40515 1.40612 1.40713
1.40817 1.40922 1.41027 1.41129 1.41226 1.41317 1.41401 1.41476 1.41542 1.41597
1.41642 1.41676 1.417 1.41712 1.41714 1.41704 1.41684 1.41656 1.41616 1.41568
1.41511 1.41446 1.41374 1.41296 1.4121 1.41122 1.4103 1.40936 1.4084 1.40746
1.40655 1.40568 1.40486 1.4041 1.40341 1.4028 1.40227 1.40182 1.40143 1.40111
1.40086 1.40066 1.4005 1.40037 1.40027 1.4002 1.40014 1.4001 1.40007 1.40005
1.40004 1.40003 1.40002 1.40001 1.40001 1.40001 1.40001 1.4 1.4 1.4
1.4 1.4 1.4 1.4 1.4 1.40001 1.40001 1.40001 1.40001 1.4
1.4 1.4 1.4 1.4 1.4 1.4 1.39999 1.39999 1.39998 
U 3 100 float
0.894395 0.447176 0 0.894392 0.447171 0 0.894392 0.447165 0 0.894393 0.447161
0 0.894397 0.447158 0 0.894406 0.447161 0 0.894424 0.447169 0
0.894453 0.447188 0 0.894499 0.447218 0 0.894569 0.447265 0 0.894667
0.447331 0 0.894801 0.447419 0 0.894978 0.447529 0 0.895204 0.447663
0 0.895485 0.447821 0 0.895823 0.447996 0 0.896222 0.448188 0
0.89668 0.448388 0 0.897194 0.44859 0 0.897757 0.448786 0 0.89836
0.448967 0 0.898996 0.449127 0 0.89965 0.449258 0 0.900312 0.449354
0 0.900969 0.449412 0 0.901609 0.449428 0 0.90222 0.449401 0
0.902794 0.44933 0 0.903319 0.449217 0 0.903789 0.449064 0 0.904198
0.448876 0 0.904539 0.448655 0 0.904809 0.448406 0 0.905006 0.448135
0 0.905127 0.447847 0 0.905173 0.447549 0 0.905141 0.447246 0
0.905034 0.446944 0 0.904854 0.446649 0 0.904603 0.446368 0 0.904283
0.446104 0 0.903899 0.445865 0 0.903457 0.445654 0 0.902962 0.445475
0 0.902422 0.445334 0 0.901845 0.44523 0 0.901239 0.445166 0
0.900616 0.445143 0 0.899985 0.445158 0 0.899357 0.44521 0 0.898745
0.445296 0 0.898157 0.445409 0 0.897603 0.445544 0 0.897091 0.445696
0 0.896626 0.445857 0 0.896214 0.446021 0 0.895855 0.446182 0
0.895549 0.446335 0 0.895293 0.446476 0 0.895084 0.446604 0 0.894916
0.446716 0 0.894783 0.446812 0 0.894681 0.446893 0 0.894602 0.446961
0 0.894544 0.447015 0 0.8945 0.44706 0 0.894468 0.447095 0
0.894445 0.447123 0 0.89443 0.447143 0 0.894418 0.44716 0 0.894412
0.447172 0 0.894406 0.447181 0 0.894403 0.447188 0 0.894401 0.447192
0 0.8944 0.447194 0 0.8944 0.447197 0 0.8944 0.447198 0
0.8944 0.447199 0 0.8944 0.4472 0 0.8944 0.4472 0 0.8944
0.4472 0 0.8944 0.4472 0 0.8944 0.4472 0 0.8944 0.4472
0 0.8944 0.4472 0 0.8944 0.4472 0 0.8944 0.4472 0
0.8944 0.4472 0 0.8944 0.4472 0 0.8944 0.4472 0 0.8944
0.4472 0 0.8944 0.447199 0 0.8944 0.447199 0 0.8944 0.447198
0 0.8944 0.447197 0 0.8944 0.447196 0 0.8944 0.447194 0
0.894399 0.44719 0 0.894397 0.447186 0 0.894396 0.447182 0 
POINT_DATA  202
FIELD attributes 6
mag(U) 1 202 float
0.999955 0.999952 0.999952 0.999955 0.999949 0.999949 0.999946 0.999946 0.999947 0.999947 0.999953
0.999953 0.999968 0.999968 0.999996 0.999996 1.00004 1.00004 1.00011 1.00011 1.00021
1.00021 1.00034 1.00034 1.00053 1.00053 1.00076 1.00076 1.00106 1.00106 1.00141
1.00141 1.00182 1.00182 1.00229 1.00229 1.00282 1.00282 1.00338 1.00338 1.00399
1.00399 1.00462 1.00462 1.00526 1.00526 1.0059 1.0059 1.00653 1.00653 1.00713
1.00713 1.00768 1.00768 1.00819 1.00819 1.00864 1.00864 1.00902 1.00902 1.00934
1.00934 1.00959 1.00959 1.00976 1.00976 1.00986 1.00986 1.00987 1.00987 1.00981
1.00981 1.00969 1.00969 1.0095 1.0095 1.00923 1.00923 1.00891 1.00891 1.00853
1.00853 1.00811 1.00811 1.00764 1.00764 1.00713 1.00713 1.0066 1.0066 1.00604
1.00604 1.00548 1.00548 1.0049 1.0049 1.00434 1.00434 1.00379 1.00379 1.00327
1.00327 1.00277 1.00277 1.00232 1.00232 1.0019 1.0019 1.00153 1.00153 1.00121
1.00121 1.00094 1.00094 1.00071 1.00071 1.00053 1.00053 1.00038 1.00038 1.00027
1.00027 1.00018 1.00018 1.00011 1.00011 1.00006 1.00006 1.00003 1.00003 1.00001
1.00001 0.99999 0.99999 0.999979 0.999979 0.999973 0.999973 0.99997 0.99997 0.999968
0.999968 0.999967 0.999967 0.999966 0.999966 0.999967 0.999967 0.999967 0.999967 0.999968
0.999968 0.999968 0.999968 0.999969 0.999969 0.999969 0.999969 0.999969 0.999969 0.99997
0.99997 0.99997 0.99997 0.99997 0.99997 0.99997 0.99997 0.99997 0.99997 0.99997
0.99997 0.99997 0.99997 0.99997 0.99997 0.99997 0.99997 0.99997 0.99997 0.99997
0.99997 0.99997 0.99997 0.999969 0.999969 0.999969 0.999969 0.999969 0.999969 0.999968
0.999968 0.999967 0.999967 0.999965 0.999965 0.999963 0.999963 0.99996 0.99996 0.999958
0.999958 
p 1 202 float
0.999977 0.999974 0.999974 0.999977 0.999969 0.999969 0.999966 0.999966 0.999967 0.999967 0.999974
0.999974 0.999992 0.999992 1.00003 1.00003 1.00008 1.00008 1.00017 1.00017 1.00029
1.00029 1.00046 1.00046 1.00068 1.00068 1.00096 1.00096 1.00131 1.00131 1.00172
1.00172 1.00221 1.00221 1.00276 1.00276 1.00336 1.00336 1.00402 1.00402 1.00473
1.00473 1.00547 1.00547 1.00621 1.00621 1.00696 1.00696 1.0077 1.0077 1.00841
1.00841 1.00909 1.00909 1.00971 1.00971 1.01028 1.01028 1.01078 1.01078 1.01121
1.01121 1.01157 1.01157 1.01186 1.01186 1.01206 1.01206 1.01219 1.01219 1.01224
1.01224 1.01221 1.01221 1.01211 1.01211 1.01193 1.01193 1.01169 1.01169 1.01138
1.01138 1.011 1.011 1.01057 1.01057 1.01008 1.01008 1.00954 1.00954 1.00895
1.00895 1.00833 1.00833 1.00768 1.00768 1.00702 1.00702 1.00634 1.00634 1.00567
1.00567 1.00501 1.00501 1.00437 1.00437 1.00376 1.00376 1.0032 1.0032 1.00268
1.00268 1.00222 1.00222 1.00181 1.00181 1.00145 1.00145 1.00116 1.00116 1.00091
1.00091 1.00071 1.00071 1.00054 1.00054 1.00041 1.00041 1.00031 1.00031 1.00023
1.00023 1.00016 1.00016 1.00012 1.00012 1.00008 1.00008 1.00006 1.00006 1.00004
1.00004 1.00003 1.00003 1.00002 1.00002 1.00001 1.00001 1.00001 1.00001 1
1 1 1 1 1 1 1 1 1 1
1 1 1 1 1 1 1 1 1 1
1 1 1 1 1 1 1 1 1 1
1 1 1 1 1 0.999999 0.999999 0.999998 0.999998 0.999997
0.999997 0.999995 0.999995 0.999992 0.999992 0.999989 0.999989 0.999984 0.999984 0.999982
0.999982 
T 1 202 float
1 1 1 1 1 1 1 1 1 1 1
1 1 1 1 1 1 1 1 1 1
1 1 1 1 1 1 1 1 1 1
1 1 1 1 1 1 1 1 1 1
1 1 1 1.00001 1.00001 1.00001 1.00001 1.00001 1.00001 1.00001
1.00001 1.00001 1.00001 1.00001 1.00001 1.00001 1.00001 1.00001 1.00001 1.00001
1.00001 1.00001 1.00001 1.00001 1.00001 1.00001 1.00001 1.00001 1.00001 1.00001
1.00001 1.00001 1.00001 1.00001 1.00001 1.00001 1.00001 1.00001 1.00001 1.00001
1.00001 1.00001 1.00001 1.00001 1.00001 1.00001 1.00001 1.00001 1.00001 1.00001
1.00001 1.00001 1.00001 1.00001 1.00001 1.00001 1.00001 1.00001 1.00001 1
1 1 1 1 1 1 1 1 1 1
1 1 1 1 1 1 1 1 1 1
1 1 1 1 1 1 1 1 1 1
1 1 1 1 1 1 1 1 1 1
1 1 1 1 1 1 1 1 1 1
1 1 1 1 1 1 1 1 1 1
1 1 1 1 1 1 1 1 1 1
1 1 1 1 1 1 1 1 1 1
1 1 1 1 1 1 1 1 1 1
1 1 1 1 1 1 1 1 1 1
1 
e 1 202 float
1006.29 1006.29 1006.29 1006.29 1006.29 1006.29 1006.29 1006.29 1006.29 1006.29 1006.29
1006.29 1006.29 1006.29 1006.29 1006.29 1006.29 1006.29 1006.29 1006.29 1006.29
1006.29 1006.29 1006.29 1006.29 1006.29 1006.29 1006.29 1006.29 1006.29 1006.29
1006.29 1006.29 1006.29 1006.29 1006.29 1006.29 1006.29 1006.29 1006.29 1006.29
1006.29 1006.29 1006.29 1006.29 1006.29 1006.29 1006.29 1006.29 1006.29 1006.29
1006.29 1006.29 1006.29 1006.29 1006.29 1006.29 1006.29 1006.29 1006.29 1006.29
1006.29 1006.29 1006.29 1006.29 1006.29 1006.29 1006.29 1006.29 1006.29 1006.29
1006.29 1006.29 1006.29 1006.29 1006.29 1006.29 1006.29 1006.29 1006.29 1006.29
1006.29 1006.29 1006.29 1006.29 1006.29 1006.29 1006.29 1006.29 1006.29 1006.29
1006.29 1006.29 1006.29 1006.29 1006.29 1006.29 1006.29 1006.29 1006.29 1006.29
1006.29 1006.29 1006.29 1006.29 1006.29 1006.29 1006.29 1006.29 1006.29 1006.29
1006.29 1006.29 1006.29 1006.29 1006.29 1006.29 1006.29 1006.29 1006.29 1006.29
1006.29 1006.29 1006.29 1006.29 1006.29 1006.29 1006.29 1006.29 1006.29 1006.29
1006.29 1006.29 1006.29 1006.29 1006.29 1006.29 1006.29 1006.29 1006.29 1006.29
1006.29 1006.29 1006.29 1006.29 1006.29 1006.29 1006.29 1006.29 1006.29 1006.29
1006.29 1006.29 1006.29 1006.29 1006.29 1006.29 1006.29 1006.29 1006.29 1006.29
1006.29 1006.29 1006.29 1006.29 1006.29 1006.29 1006.29 1006.29 1006.29 1006.29
1006.29 1006.29 1006.29 1006.29 1006.29 1006.29 1006.29 1006.29 1006.29 1006.29
1006.29 1006.29 1006.29 1006.29 1006.29 1006.29 1006.29 1006.29 1006.29 1006.29
1006.29 1006.29 1006.29 1006.29 1006.29 1006.29 1006.29 1006.29 1006.29 1006.29
1006.29 
rho 1 202 float
1.39997 1.39997 1.39997 1.39997 1.39996 1.39996 1.39996 1.39996 1.39996 1.39996 1.39997
1.39997 1.39999 1.39999 1.40004 1.40004 1.40012 1.40012 1.40024 1.40024 1.40041
1.40041 1.40065 1.40065 1.40096 1.40096 1.40135 1.40135 1.40183 1.40183 1.40241
1.40241 1.40309 1.40309 1.40386 1.40386 1.40471 1.40471 1.40564 1.40564 1.40663
1.40663 1.40765 1.40765 1.4087 1.4087 1.40975 1.40975 1.41078 1.41078 1.41177
1.41177 1.41271 1.41271 1.41359 1.41359 1.41438 1.41438 1.41509 1.41509 1.41569
1.41569 1.4162 1.4162 1.41659 1.41659 1.41688 1.41688 1.41706 1.41706 1.41713
1.41713 1.41709 1.41709 1.41694 1.41694 1.4167 1.4167 1.41636 1.41636 1.41592
1.41592 1.4154 1.4154 1.41479 1.41479 1.4141 1.4141 1.41335 1.41335 1.41253
1.41253 1.41166 1.41166 1.41076 1.41076 1.40982 1.40982 1.40888 1.40888 1.40794
1.40794 1.40701 1.40701 1.40612 1.40612 1.40527 1.40527 1.40448 1.40448 1.40376
1.40376 1.40311 1.40311 1.40253 1.40253 1.40204 1.40204 1.40162 1.40162 1.40127
1.40127 1.40099 1.40099 1.40076 1.40076 1.40058 1.40058 1.40043 1.40043 1.40032
1.40032 1.40024 1.40024 1.40017 1.40017 1.40012 1.40012 1.40009 1.40009 1.40006
1.40006 1.40004 1.40004 1.40003 1.40003 1.40002 1.40002 1.40001 1.40001 1.40001
1.40001 1.40001 1.40001 1.40001 1.40001 1.40001 1.40001 1.4 1.4 1.4
1.4 1.4 1.4 1.4 1.4 1.4 1.4 1.4 1.4 1.4
1.4 1.40001 1.40001 1.40001 1.40001 1.40001 1.40001 1.40001 1.40001 1.40001
1.40001 1.4 1.4 1.4 1.4 1.4 1.4 1.4 1.4 1.4
1.4 1.4 1.4 1.39999 1.39999 1.39999 1.39999 1.39998 1.39998 1.39998
1.39998 
U 3 202 float
0.894395 0.447176 0 0.894394 0.447174 0 0.894394 0.447174 0 0.894395 0.447176
0 0.894392 0.447168 0 0.894392 0.447168 0 0.894392 0.447163 0
0.894392 0.447163 0 0.894395 0.447159 0 0.894395 0.447159 0 0.894402
0.447159 0 0.894402 0.447159 0 0.894415 0.447165 0 0.894415 0.447165
0 0.894439 0.447178 0 0.894439 0.447178 0 0.894476 0.447203 0
0.894476 0.447203 0 0.894534 0.447241 0 0.894534 0.447241 0 0.894618
0.447298 0 0.894618 0.447298 0 0.894734 0.447375 0 0.894734 0.447375
0 0.894889 0.447474 0 0.894889 0.447474 0 0.895091 0.447596 0
0.895091 0.447596 0 0.895344 0.447742 0 0.895344 0.447742 0 0.895654
0.447908 0 0.895654 0.447908 0 0.896023 0.448092 0 0.896023 0.448092
0 0.896451 0.448288 0 0.896451 0.448288 0 0.896937 0.448489 0
0.896937 0.448489 0 0.897475 0.448688 0 0.897475 0.448688 0 0.898058
0.448877 0 0.898058 0.448877 0 0.898678 0.449047 0 0.898678 0.449047
0 0.899323 0.449192 0 0.899323 0.449192 0 0.899981 0.449306 0
0.899981 0.449306 0 0.90064 0.449383 0 0.90064 0.449383 0 0.901289
0.44942 0 0.901289 0.44942 0 0.901915 0.449414 0 0.901915 0.449414
0 0.902507 0.449365 0 0.902507 0.449365 0 0.903056 0.449273 0
0.903056 0.449273 0 0.903554 0.449141 0 0.903554 0.449141 0 0.903993
0.44897 0 0.903993 0.44897 0 0.904368 0.448765 0 0.904368 0.448765
0 0.904674 0.44853 0 0.904674 0.44853 0 0.904908 0.44827 0
0.904908 0.44827 0 0.905066 0.447991 0 0.905066 0.447991 0 0.90515
0.447699 0 0.90515 0.447699 0 0.905157 0.447398 0 0.905157 0.447398
0 0.905088 0.447095 0 0.905088 0.447095 0 0.904944 0.446797 0
0.904944 0.446797 0 0.904728 0.446508 0 0.904728 0.446508 0 0.904442
0.446236 0 0.904442 0.446236 0 0.904091 0.445985 0 0.904091 0.445985
0 0.903678 0.44576 0 0.903678 0.44576 0 0.90321 0.445565 0
0.90321 0.445565 0 0.902692 0.445404 0 0.902692 0.445404 0 0.902134
0.445282 0 0.902134 0.445282 0 0.901542 0.445198 0 0.901542 0.445198
0 0.900927 0.445154 0 0.900927 0.445154 0 0.9003 0.44515 0
0.9003 0.44515 0 0.899671 0.445184 0 0.899671 0.445184 0 0.899051
0.445253 0 0.899051 0.445253 0 0.898451 0.445352 0 0.898451 0.445352
0 0.89788 0.445477 0 0.89788 0.445477 0 0.897347 0.44562 0
0.897347 0.44562 0 0.896859 0.445776 0 0.896859 0.445776 0 0.89642
0.445939 0 0.89642 0.445939 0 0.896035 0.446101 0 0.896035 0.446101
0 0.895702 0.446258 0 0.895702 0.446258 0 0.895421 0.446406 0
0.895421 0.446406 0 0.895189 0.446541 0 0.895189 0.446541 0 0.895
0.44666 0 0.895 0.44666 0 0.89485 0.446764 0 0.89485 0.446764
0 0.894732 0.446853 0 0.894732 0.446853 0 0.894642 0.446927 0
0.894642 0.446927 0 0.894573 0.446988 0 0.894573 0.446988 0 0.894522
0.447037 0 0.894522 0.447037 0 0.894485 0.447077 0 0.894485 0.447077
0 0.894457 0.447109 0 0.894457 0.447109 0 0.894438 0.447133 0
0.894438 0.447133 0 0.894424 0.447152 0 0.894424 0.447152 0 0.894415
0.447166 0 0.894415 0.447166 0 0.894409 0.447176 0 0.894409 0.447176
0 0.894404 0.447184 0 0.894404 0.447184 0 0.894402 0.44719 0
0.894402 0.44719 0 0.894401 0.447193 0 0.894401 0.447193 0 0.8944
0.447196 0 0.8944 0.447196 0 0.8944 0.447197 0 0.8944 0.447197
0 0.8944 0.447199 0 0.8944 0.447199 0 0.8944 0.447199 0
0.8944 0.447199 0 0.8944 0.4472 0 0.8944 0.4472 0 0.8944
0.4472 0 0.8944 0.4472 0 0.8944 0.4472 0 0.8944 0.4472
0 0.8944 0.4472 0 0.8944 0.4472 0 0.8944 0.4472 0
0.8944 0.4472 0 0.8944 0.4472 0 0.8944 0.4472 0 0.8944
0.4472 0 0.8944 0.4472 0 0.8944 0.4472 0 0.8944 0.4472
0 0.8944 0.4472 0 0.8944 0.4472 0 0.8944 0.4472 0
0.8944 0.4472 0 0.8944 0.4472 0 0.8944 0.4472 0 0.8944
0.4472 0 0.8944 0.4472 0 0.8944 0.447199 0 0.8944 0.447199
0 0.8944 0.447199 0 0.8944 0.447199 0 0.8944 0.447199 0
0.8944 0.447199 0 0.8944 0.447197 0 0.8944 0.447197 0 0.8944
0.447196 0 0.8944 0.447196 0 0.8944 0.447194 0 0.8944 0.447194
0 0.894399 0.447192 0 0.894399 0.447192 0 0.894398 0.447188 0
0.894398 0.447188 0 0.894397 0.447184 0 0.894397 0.447184 0 0.894396
0.447182 0 0.894396 0.447182 0 
