/*--------------------------------*- C++ -*----------------------------------*\
  =========                 |
  \\      /  F ield         | OpenFOAM: The Open Source CFD Toolbox
   \\    /   O peration     | Website:  https://openfoam.org
    \\  /    A nd           | Version:  6
     \\/     M anipulation  |
\*---------------------------------------------------------------------------*/
FoamFile
{
    version     2.0;
    format      ascii;
    class       volScalarField;
    location    "3.43";
    object      p;
}
// * * * * * * * * * * * * * * * * * * * * * * * * * * * * * * * * * * * * * //

dimensions      [1 -1 -2 0 0 0 0];

internalField   nonuniform List<scalar> 
5625
(
0.99999
0.999988
0.999985
0.999982
0.999979
0.999976
0.999974
0.999972
0.99997
0.999968
0.999968
0.999968
0.99997
0.999973
0.999976
0.99998
0.999986
0.999992
0.999998
1.00001
1.00001
1.00002
1.00003
1.00003
1.00004
1.00004
1.00005
1.00005
1.00005
1.00006
1.00006
1.00006
1.00005
1.00005
1.00005
1.00005
1.00004
1.00004
1.00003
1.00003
1.00003
1.00002
1.00002
1.00002
1.00001
1.00001
1.00001
1.00001
1
1
1
1
1
1
1
1
1
1
1
1
1
1
1
1
1
1
1
1
1
1
1
1
1
1
1
0.999987
0.999985
0.999981
0.999978
0.999975
0.999972
0.999969
0.999966
0.999965
0.999964
0.999964
0.999965
0.999969
0.999973
0.999978
0.999984
0.999992
1
1.00001
1.00002
1.00003
1.00004
1.00005
1.00005
1.00006
1.00007
1.00007
1.00007
1.00008
1.00008
1.00008
1.00007
1.00007
1.00007
1.00006
1.00006
1.00005
1.00005
1.00004
1.00004
1.00003
1.00003
1.00002
1.00002
1.00002
1.00001
1.00001
1.00001
1.00001
1
1
1
1
1
1
1
1
1
1
1
1
1
1
1
1
1
1
1
1
1
1
1
1
1
1
0.999985
0.999981
0.999978
0.999974
0.99997
0.999967
0.999964
0.999962
0.99996
0.999961
0.999962
0.999965
0.99997
0.999977
0.999985
0.999995
1.00001
1.00002
1.00003
1.00004
1.00005
1.00006
1.00007
1.00008
1.00009
1.0001
1.0001
1.00011
1.00011
1.00011
1.0001
1.0001
1.0001
1.00009
1.00008
1.00008
1.00007
1.00006
1.00006
1.00005
1.00004
1.00004
1.00003
1.00002
1.00002
1.00002
1.00001
1.00001
1.00001
1.00001
1
1
1
1
1
1
1
1
1
1
1
1
1
1
1
1
1
1
1
1
1
1
1
1
1
0.999982
0.999978
0.999974
0.999969
0.999965
0.999962
0.99996
0.999958
0.999958
0.999961
0.999965
0.99997
0.999979
0.999989
1
1.00002
1.00003
1.00005
1.00006
1.00008
1.00009
1.00011
1.00012
1.00013
1.00014
1.00015
1.00015
1.00015
1.00015
1.00015
1.00014
1.00014
1.00013
1.00012
1.00011
1.0001
1.00009
1.00008
1.00007
1.00006
1.00005
1.00005
1.00004
1.00003
1.00003
1.00002
1.00002
1.00001
1.00001
1.00001
1
1
1
1
1
1
1
1
1
1
1
1
1
1
1
1
1
1
1
1
1
1
1
1
1
0.999979
0.999974
0.99997
0.999965
0.999961
0.999959
0.999957
0.999957
0.99996
0.999965
0.999973
0.999984
0.999997
1.00001
1.00003
1.00005
1.00007
1.0001
1.00012
1.00014
1.00016
1.00018
1.00019
1.0002
1.00021
1.00022
1.00022
1.00022
1.00022
1.00021
1.0002
1.00019
1.00018
1.00016
1.00015
1.00014
1.00012
1.00011
1.00009
1.00008
1.00007
1.00006
1.00005
1.00004
1.00003
1.00003
1.00002
1.00001
1.00001
1.00001
1.00001
1
1
1
1
1
1
1
1
1
1
1
1
1
1
1
1
1
1
1
1
1
1
1
1
0.999976
0.99997
0.999966
0.999962
0.999959
0.999958
0.999959
0.999962
0.999968
0.999979
0.999993
1.00001
1.00003
1.00006
1.00008
1.00011
1.00014
1.00017
1.0002
1.00023
1.00026
1.00028
1.0003
1.00031
1.00032
1.00032
1.00032
1.00032
1.00031
1.0003
1.00028
1.00026
1.00024
1.00022
1.0002
1.00018
1.00016
1.00014
1.00012
1.0001
1.00009
1.00007
1.00006
1.00005
1.00004
1.00003
1.00002
1.00002
1.00001
1.00001
1.00001
1
1
1
1
1
1
1
1
1
1
1
1
1
1
1
1
1
1
1
1
1
1
1
1
0.999973
0.999968
0.999964
0.999961
0.99996
0.999961
0.999967
0.999976
0.999988
1.00001
1.00003
1.00006
1.00009
1.00013
1.00017
1.00021
1.00025
1.0003
1.00034
1.00038
1.00041
1.00044
1.00046
1.00047
1.00048
1.00048
1.00048
1.00046
1.00044
1.00042
1.0004
1.00037
1.00034
1.0003
1.00027
1.00024
1.00021
1.00019
1.00016
1.00014
1.00011
1.0001
1.00008
1.00006
1.00005
1.00004
1.00003
1.00002
1.00002
1.00001
1.00001
1
1
1
1
1
1
0.999999
0.999999
0.999999
0.999999
1
1
1
1
1
1
1
1
1
1
1
1
1
1
0.999972
0.999968
0.999965
0.999965
0.999967
0.999973
0.999985
1
1.00003
1.00005
1.00009
1.00014
1.00019
1.00024
1.0003
1.00036
1.00042
1.00048
1.00054
1.00059
1.00063
1.00067
1.00069
1.00071
1.00072
1.00071
1.00069
1.00067
1.00064
1.0006
1.00056
1.00051
1.00047
1.00042
1.00037
1.00033
1.00029
1.00025
1.00021
1.00018
1.00015
1.00012
1.0001
1.00008
1.00006
1.00005
1.00004
1.00003
1.00002
1.00001
1.00001
1.00001
1
1
1
1
0.999999
0.999999
0.999999
0.999999
0.999999
0.999999
0.999999
1
1
1
1
1
1
1
1
1
1
1
1
0.999973
0.99997
0.999971
0.999974
0.999983
0.999997
1.00002
1.00005
1.00009
1.00014
1.00019
1.00026
1.00033
1.00041
1.0005
1.00059
1.00067
1.00076
1.00083
1.0009
1.00096
1.001
1.00103
1.00105
1.00105
1.00104
1.00101
1.00097
1.00092
1.00086
1.00079
1.00073
1.00066
1.00058
1.00052
1.00045
1.00039
1.00033
1.00028
1.00023
1.00019
1.00016
1.00013
1.0001
1.00008
1.00006
1.00005
1.00003
1.00002
1.00002
1.00001
1.00001
1
1
1
0.999999
0.999999
0.999999
0.999999
0.999999
0.999999
0.999999
0.999999
0.999999
1
1
1
1
1
1
1
1
1
1
1
0.999977
0.999978
0.999983
0.999994
1.00001
1.00004
1.00008
1.00012
1.00019
1.00026
1.00035
1.00045
1.00056
1.00067
1.00079
1.00092
1.00104
1.00115
1.00126
1.00135
1.00142
1.00148
1.00152
1.00153
1.00153
1.0015
1.00145
1.00139
1.00131
1.00122
1.00113
1.00102
1.00092
1.00082
1.00072
1.00062
1.00053
1.00045
1.00038
1.00031
1.00026
1.00021
1.00017
1.00013
1.0001
1.00008
1.00006
1.00004
1.00003
1.00002
1.00001
1.00001
1
1
0.999999
0.999999
0.999998
0.999998
0.999998
0.999998
0.999998
0.999999
0.999999
0.999999
0.999999
1
1
1
1
1
1
1
1
1
1
0.999987
0.999994
1.00001
1.00003
1.00006
1.00011
1.00017
1.00024
1.00034
1.00045
1.00058
1.00072
1.00088
1.00104
1.00121
1.00139
1.00155
1.00171
1.00185
1.00197
1.00207
1.00214
1.00219
1.0022
1.00219
1.00214
1.00207
1.00197
1.00186
1.00173
1.00159
1.00144
1.00129
1.00114
1.00099
1.00086
1.00073
1.00062
1.00051
1.00042
1.00034
1.00028
1.00022
1.00017
1.00013
1.0001
1.00007
1.00005
1.00004
1.00002
1.00002
1.00001
1
1
0.999999
0.999998
0.999997
0.999997
0.999997
0.999997
0.999998
0.999998
0.999999
0.999999
0.999999
0.999999
1
1
1
1
1
1
1
1
1
1.00001
1.00002
1.00005
1.00009
1.00014
1.00021
1.00031
1.00042
1.00056
1.00073
1.00091
1.00112
1.00134
1.00157
1.00181
1.00204
1.00227
1.00248
1.00267
1.00283
1.00296
1.00306
1.00311
1.00312
1.00309
1.00302
1.00292
1.00278
1.00261
1.00242
1.00222
1.00201
1.00179
1.00158
1.00138
1.00119
1.00101
1.00084
1.0007
1.00057
1.00046
1.00037
1.00029
1.00023
1.00017
1.00013
1.00009
1.00007
1.00005
1.00003
1.00002
1.00001
1
1
0.999998
0.999996
0.999996
0.999996
0.999996
0.999997
0.999997
0.999998
0.999998
0.999998
0.999999
0.999999
0.999999
1
1
1
1
1
1
1
1
1.00004
1.00007
1.00011
1.00017
1.00026
1.00037
1.00051
1.00068
1.00089
1.00112
1.00138
1.00167
1.00198
1.0023
1.00262
1.00294
1.00325
1.00353
1.00378
1.00399
1.00416
1.00428
1.00434
1.00435
1.00431
1.00421
1.00406
1.00386
1.00363
1.00337
1.00309
1.00279
1.00249
1.00219
1.00191
1.00164
1.00139
1.00116
1.00096
1.00078
1.00063
1.0005
1.00039
1.0003
1.00023
1.00017
1.00012
1.00009
1.00006
1.00004
1.00002
1.00001
1
1
0.999997
0.999995
0.999994
0.999994
0.999995
0.999995
0.999996
0.999997
0.999997
0.999998
0.999998
0.999999
0.999999
0.999999
1
1
1
1
1
1
1
1.00008
1.00013
1.0002
1.0003
1.00043
1.0006
1.0008
1.00105
1.00134
1.00167
1.00204
1.00243
1.00285
1.00328
1.00372
1.00414
1.00455
1.00492
1.00525
1.00553
1.00575
1.0059
1.00597
1.00598
1.00591
1.00577
1.00556
1.0053
1.00498
1.00463
1.00424
1.00384
1.00343
1.00302
1.00262
1.00225
1.00191
1.00159
1.00131
1.00106
1.00085
1.00067
1.00053
1.0004
1.0003
1.00022
1.00016
1.00011
1.00008
1.00005
1.00003
1.00001
1.00001
0.999999
0.999995
0.999993
0.999992
0.999993
0.999993
0.999994
0.999995
0.999996
0.999997
0.999997
0.999998
0.999998
0.999999
0.999999
0.999999
1
1
1
1
1
1
1.00015
1.00023
1.00034
1.00049
1.00068
1.00092
1.00122
1.00156
1.00197
1.00242
1.00292
1.00346
1.00402
1.00459
1.00517
1.00572
1.00625
1.00673
1.00716
1.00751
1.00779
1.00797
1.00807
1.00807
1.00797
1.00779
1.00752
1.00717
1.00675
1.00627
1.00576
1.00522
1.00467
1.00412
1.00358
1.00308
1.0026
1.00217
1.00179
1.00145
1.00116
1.00092
1.00071
1.00054
1.00041
1.0003
1.00022
1.00015
1.0001
1.00006
1.00004
1.00002
1.00001
0.999999
0.999994
0.999991
0.99999
0.99999
0.999991
0.999992
0.999993
0.999994
0.999996
0.999997
0.999997
0.999998
0.999999
0.999999
0.999999
0.999999
1
1
1
1
1
1.00026
1.00038
1.00054
1.00076
1.00103
1.00137
1.00178
1.00226
1.00281
1.00343
1.00409
1.0048
1.00554
1.00629
1.00704
1.00775
1.00843
1.00904
1.00957
1.01002
1.01036
1.01059
1.0107
1.0107
1.01058
1.01034
1.00999
1.00954
1.009
1.00839
1.00772
1.00701
1.00629
1.00556
1.00485
1.00417
1.00353
1.00295
1.00243
1.00198
1.00158
1.00125
1.00097
1.00074
1.00055
1.0004
1.00029
1.0002
1.00014
1.00009
1.00005
1.00003
1.00001
0.999998
0.999992
0.999989
0.999987
0.999988
0.999988
0.99999
0.999991
0.999993
0.999994
0.999996
0.999997
0.999997
0.999998
0.999999
0.999999
0.999999
1
1
1
1
1
1.00041
1.00059
1.00082
1.00113
1.00151
1.00199
1.00255
1.0032
1.00393
1.00475
1.00562
1.00655
1.0075
1.00846
1.0094
1.0103
1.01114
1.01189
1.01255
1.01309
1.01351
1.01379
1.01392
1.01391
1.01376
1.01346
1.01303
1.01248
1.0118
1.01104
1.01019
1.00929
1.00835
1.00741
1.00648
1.00559
1.00476
1.00398
1.00329
1.00267
1.00214
1.00169
1.00131
1.001
1.00075
1.00055
1.00039
1.00027
1.00018
1.00012
1.00007
1.00004
1.00001
0.999999
0.999991
0.999986
0.999984
0.999984
0.999985
0.999987
0.999989
0.999991
0.999993
0.999994
0.999996
0.999997
0.999998
0.999998
0.999999
0.999999
0.999999
1
1
1
1
1.00062
1.00087
1.0012
1.00163
1.00216
1.0028
1.00355
1.00442
1.00538
1.00644
1.00757
1.00875
1.00995
1.01114
1.0123
1.0134
1.01442
1.01533
1.01611
1.01675
1.01724
1.01756
1.01772
1.01771
1.01753
1.01718
1.01667
1.01601
1.0152
1.01426
1.01323
1.01211
1.01094
1.00975
1.00857
1.00742
1.00633
1.00532
1.0044
1.00359
1.00288
1.00228
1.00177
1.00135
1.00101
1.00074
1.00053
1.00037
1.00025
1.00016
1.0001
1.00005
1.00002
1
0.99999
0.999983
0.999981
0.999981
0.999982
0.999984
0.999986
0.999989
0.999991
0.999993
0.999995
0.999996
0.999997
0.999998
0.999998
0.999999
0.999999
0.999999
1
1
1
1.0009
1.00126
1.00172
1.0023
1.00301
1.00387
1.00486
1.00598
1.00723
1.00858
1.01
1.01146
1.01293
1.01438
1.01577
1.01707
1.01826
1.01931
1.02021
1.02094
1.02149
1.02186
1.02204
1.02203
1.02182
1.02143
1.02085
1.02009
1.01916
1.01807
1.01684
1.0155
1.01409
1.01262
1.01115
1.0097
1.00832
1.00702
1.00584
1.00478
1.00385
1.00305
1.00237
1.00181
1.00136
1.001
1.00072
1.0005
1.00034
1.00022
1.00014
1.00007
1.00003
1.00001
0.99999
0.999981
0.999977
0.999977
0.999978
0.99998
0.999983
0.999986
0.999989
0.999991
0.999993
0.999995
0.999996
0.999997
0.999998
0.999999
0.999999
0.999999
1
1
1
1.00128
1.00177
1.0024
1.00318
1.00412
1.00524
1.00652
1.00796
1.00953
1.0112
1.01294
1.01471
1.01646
1.01816
1.01976
1.02124
1.02257
1.02373
1.02472
1.0255
1.0261
1.02649
1.02668
1.02668
1.02647
1.02605
1.02543
1.02461
1.02359
1.02238
1.021
1.01946
1.0178
1.01606
1.01428
1.01251
1.01079
1.00916
1.00765
1.00629
1.00509
1.00404
1.00316
1.00243
1.00183
1.00135
1.00097
1.00069
1.00047
1.00031
1.00019
1.00011
1.00005
1.00002
0.999993
0.99998
0.999974
0.999972
0.999973
0.999976
0.999979
0.999983
0.999986
0.999989
0.999991
0.999994
0.999995
0.999997
0.999997
0.999998
0.999999
0.999999
0.999999
1
1
1.00178
1.00244
1.00328
1.0043
1.00553
1.00697
1.00859
1.01039
1.01232
1.01434
1.01642
1.01848
1.02049
1.0224
1.02417
1.02577
1.02718
1.0284
1.0294
1.0302
1.03079
1.03118
1.03137
1.03137
1.03117
1.03077
1.03016
1.02933
1.02829
1.02703
1.02555
1.02387
1.02202
1.02003
1.01796
1.01585
1.01377
1.01177
1.0099
1.00818
1.00665
1.00531
1.00417
1.00322
1.00243
1.0018
1.00131
1.00093
1.00064
1.00042
1.00027
1.00016
1.00008
1.00003
0.999999
0.999981
0.999971
0.999968
0.999969
0.999971
0.999975
0.999979
0.999983
0.999987
0.99999
0.999992
0.999994
0.999996
0.999997
0.999998
0.999998
0.999999
0.999999
1
1
1.00244
1.00331
1.0044
1.00573
1.0073
1.0091
1.01112
1.0133
1.01562
1.01799
1.02037
1.02269
1.0249
1.02694
1.02878
1.03041
1.0318
1.03297
1.03391
1.03464
1.03517
1.03551
1.03568
1.03568
1.03551
1.03517
1.03463
1.03389
1.03292
1.03171
1.03025
1.02854
1.02659
1.02443
1.02212
1.01971
1.01728
1.01489
1.01262
1.0105
1.00859
1.00691
1.00545
1.00422
1.00321
1.00239
1.00175
1.00124
1.00086
1.00058
1.00037
1.00022
1.00012
1.00005
1.00001
0.999983
0.99997
0.999964
0.999964
0.999966
0.99997
0.999975
0.99998
0.999984
0.999987
0.99999
0.999993
0.999995
0.999996
0.999997
0.999998
0.999999
0.999999
0.999999
1
1.00328
1.00442
1.00582
1.0075
1.00947
1.01169
1.01412
1.01671
1.01939
1.02208
1.0247
1.02718
1.02947
1.03151
1.03329
1.0348
1.03604
1.03703
1.03779
1.03836
1.03875
1.039
1.03912
1.03912
1.039
1.03876
1.03837
1.0378
1.03703
1.03602
1.03473
1.03314
1.03124
1.02906
1.02662
1.02399
1.02126
1.01851
1.01582
1.01328
1.01095
1.00886
1.00704
1.00549
1.0042
1.00315
1.00231
1.00165
1.00115
1.00078
1.00051
1.00031
1.00018
1.00008
1.00003
0.99999
0.99997
0.999961
0.999959
0.999961
0.999965
0.99997
0.999976
0.99998
0.999985
0.999988
0.999991
0.999994
0.999995
0.999997
0.999998
0.999998
0.999999
0.999999
1
1.00434
1.0058
1.00757
1.00967
1.01207
1.01473
1.01759
1.02057
1.02355
1.02646
1.02919
1.03168
1.03388
1.03574
1.03728
1.03849
1.03942
1.04009
1.04055
1.04086
1.04104
1.04113
1.04117
1.04117
1.04112
1.04102
1.04085
1.04056
1.04011
1.03945
1.03851
1.03724
1.03561
1.03359
1.03121
1.02852
1.0256
1.02255
1.0195
1.01653
1.01375
1.01121
1.00897
1.00704
1.00542
1.00409
1.00302
1.00218
1.00153
1.00105
1.00069
1.00043
1.00025
1.00013
1.00005
1
0.999973
0.999959
0.999955
0.999956
0.99996
0.999965
0.999971
0.999977
0.999982
0.999986
0.99999
0.999992
0.999994
0.999996
0.999997
0.999998
0.999999
0.999999
0.999999
1.00566
1.00749
1.00969
1.01224
1.01511
1.01823
1.02148
1.02475
1.02793
1.03089
1.03356
1.03585
1.03773
1.03921
1.0403
1.04103
1.04148
1.04169
1.04174
1.04169
1.04159
1.04149
1.04142
1.0414
1.04143
1.04151
1.0416
1.04167
1.04166
1.04149
1.04108
1.04035
1.03921
1.03761
1.03554
1.033
1.03008
1.02689
1.02355
1.0202
1.01698
1.01399
1.01129
1.00893
1.00692
1.00526
1.00391
1.00284
1.00202
1.00139
1.00093
1.00059
1.00035
1.00019
1.00009
1.00002
0.99998
0.99996
0.999951
0.999951
0.999954
0.99996
0.999966
0.999973
0.999978
0.999983
0.999988
0.999991
0.999993
0.999995
0.999997
0.999998
0.999998
0.999999
0.999999
1.00727
1.00953
1.01221
1.01525
1.01859
1.0221
1.02565
1.02908
1.03226
1.03507
1.03742
1.03927
1.04061
1.04147
1.04192
1.04201
1.04184
1.04149
1.04105
1.04058
1.04015
1.03982
1.03962
1.03957
1.03968
1.03995
1.04034
1.04082
1.04131
1.04174
1.04201
1.04199
1.04158
1.04066
1.03917
1.03708
1.03442
1.03128
1.02783
1.02421
1.02061
1.01716
1.01399
1.01117
1.00873
1.00668
1.005
1.00367
1.00262
1.00182
1.00123
1.0008
1.00049
1.00028
1.00014
1.00005
0.999993
0.999963
0.99995
0.999946
0.999949
0.999954
0.999961
0.999968
0.999975
0.99998
0.999985
0.999989
0.999992
0.999994
0.999996
0.999997
0.999998
0.999999
0.999999
1.0092
1.01195
1.01513
1.01866
1.02241
1.02622
1.02991
1.0333
1.03624
1.03862
1.04039
1.04154
1.04212
1.04218
1.04183
1.04117
1.0403
1.03933
1.03836
1.03745
1.03669
1.03612
1.03578
1.03569
1.03588
1.03632
1.03701
1.03789
1.0389
1.03998
1.04099
1.04182
1.04231
1.0423
1.04167
1.04031
1.03822
1.03544
1.03211
1.0284
1.02453
1.0207
1.01707
1.01376
1.01085
1.00838
1.00633
1.00467
1.00337
1.00237
1.00161
1.00106
1.00067
1.00039
1.00021
1.00009
1.00001
0.999971
0.99995
0.999943
0.999944
0.999949
0.999956
0.999964
0.999971
0.999977
0.999983
0.999987
0.999991
0.999993
0.999995
0.999997
0.999998
0.999998
0.999999
1.01148
1.01475
1.01843
1.02239
1.02645
1.03039
1.03399
1.03707
1.03948
1.04116
1.0421
1.04234
1.04198
1.04112
1.0399
1.03844
1.03686
1.03528
1.0338
1.03248
1.0314
1.03061
1.03014
1.03002
1.03026
1.03086
1.03179
1.03304
1.03454
1.03622
1.03797
1.03967
1.04114
1.0422
1.04264
1.04231
1.0411
1.039
1.03609
1.03254
1.0286
1.0245
1.02047
1.0167
1.01331
1.01037
1.0079
1.00588
1.00427
1.00303
1.00209
1.00139
1.00089
1.00054
1.0003
1.00014
1.00004
0.999984
0.999954
0.999941
0.999939
0.999943
0.999951
0.999959
0.999967
0.999974
0.99998
0.999985
0.999989
0.999992
0.999994
0.999996
0.999997
0.999998
0.999999
1.01412
1.0179
1.02204
1.02633
1.03052
1.03435
1.03758
1.04005
1.04166
1.04239
1.04229
1.04149
1.0401
1.03828
1.03619
1.03397
1.03174
1.02961
1.02768
1.02602
1.02468
1.0237
1.02313
1.02297
1.02325
1.02396
1.02509
1.02663
1.02852
1.03072
1.03314
1.03564
1.03807
1.04022
1.04186
1.04275
1.0427
1.04159
1.03944
1.03636
1.0326
1.02842
1.02411
1.01993
1.01607
1.01265
1.00973
1.00731
1.00536
1.00383
1.00267
1.0018
1.00117
1.00072
1.00042
1.00021
1.00008
1
0.999962
0.999942
0.999936
0.999939
0.999945
0.999954
0.999962
0.99997
0.999977
0.999983
0.999987
0.999991
0.999994
0.999995
0.999997
0.999998
0.999999
1.01709
1.02136
1.02586
1.0303
1.03438
1.0378
1.04037
1.04194
1.0425
1.0421
1.04086
1.03896
1.03656
1.03384
1.03096
1.02808
1.0253
1.02274
1.02046
1.01853
1.01699
1.01588
1.01522
1.01503
1.01533
1.01611
1.01738
1.01913
1.02132
1.02392
1.02685
1.03003
1.0333
1.03647
1.0393
1.04149
1.04277
1.04292
1.04184
1.03956
1.03628
1.03227
1.02786
1.02339
1.01911
1.01522
1.01182
1.00896
1.00663
1.00479
1.00336
1.0023
1.00151
1.00095
1.00057
1.00031
1.00014
1.00003
0.999975
0.999946
0.999935
0.999934
0.99994
0.999949
0.999958
0.999966
0.999974
0.99998
0.999985
0.99999
0.999993
0.999995
0.999996
0.999998
0.999998
1.02036
1.02503
1.02971
1.03406
1.03774
1.04046
1.04207
1.04252
1.04187
1.04026
1.03788
1.03492
1.0316
1.0281
1.02457
1.02117
1.01798
1.0151
1.01258
1.01047
1.00881
1.00761
1.0069
1.00669
1.00699
1.00781
1.00915
1.01102
1.0134
1.01626
1.01957
1.02325
1.02719
1.03122
1.03511
1.03855
1.04121
1.04278
1.04302
1.04185
1.03937
1.03582
1.03156
1.02695
1.02235
1.01803
1.01417
1.01085
1.00811
1.00591
1.00419
1.00289
1.00193
1.00124
1.00075
1.00042
1.00021
1.00007
0.999996
0.999954
0.999935
0.999932
0.999936
0.999944
0.999953
0.999962
0.999971
0.999978
0.999984
0.999988
0.999991
0.999994
0.999996
0.999997
0.999998
1.02384
1.02875
1.03339
1.03737
1.04033
1.04206
1.0425
1.04169
1.03979
1.037
1.03355
1.02967
1.02558
1.02145
1.01744
1.01366
1.0102
1.00712
1.00447
1.00226
1.00053
0.999291
0.998546
0.998311
0.998597
0.999417
1.00078
1.0027
1.00518
1.0082
1.01174
1.01576
1.02017
1.02486
1.02961
1.03414
1.03811
1.04112
1.04283
1.04302
1.04164
1.03886
1.035
1.03048
1.0257
1.02104
1.01674
1.01296
1.00978
1.00719
1.00515
1.00359
1.00242
1.00158
1.00098
1.00057
1.0003
1.00013
1.00002
0.999967
0.999939
0.99993
0.999932
0.999939
0.999949
0.999958
0.999967
0.999975
0.999981
0.999986
0.99999
0.999993
0.999995
0.999997
0.999998
1.02741
1.03235
1.03667
1.03997
1.04194
1.04248
1.04162
1.03952
1.03641
1.03254
1.02816
1.02353
1.01884
1.01427
1.00993
1.00593
1.00232
0.999147
0.996439
0.994206
0.992456
0.991197
0.990432
0.990172
0.99043
0.991222
0.992563
0.994474
0.996966
1.00004
1.0037
1.00792
1.01264
1.01778
1.02318
1.0286
1.03369
1.03806
1.04125
1.04293
1.04289
1.04117
1.03801
1.03381
1.02905
1.02416
1.01948
1.01527
1.01165
1.00865
1.00626
1.0044
1.00301
1.00198
1.00125
1.00075
1.00041
1.0002
1.00006
0.999986
0.999947
0.999931
0.99993
0.999935
0.999944
0.999954
0.999964
0.999972
0.999979
0.999985
0.999989
0.999992
0.999995
0.999996
0.999998
1.03091
1.03562
1.03933
1.04167
1.04245
1.04168
1.03951
1.03617
1.03197
1.02717
1.02206
1.01686
1.01175
1.00689
1.00236
0.998257
0.994602
0.991421
0.988722
0.986503
0.984764
0.983504
0.982725
0.982435
0.982649
0.983387
0.984669
0.986521
0.988969
0.99203
0.995714
1.00002
1.00491
1.01033
1.01618
1.02225
1.02826
1.0338
1.0384
1.04158
1.04302
1.04258
1.04039
1.03679
1.03226
1.0273
1.02235
1.01775
1.01369
1.01028
1.00751
1.00533
1.00368
1.00246
1.00158
1.00097
1.00055
1.00028
1.00011
1.00001
0.999959
0.999935
0.999929
0.999932
0.999941
0.999951
0.999961
0.999969
0.999977
0.999983
0.999988
0.999991
0.999994
0.999996
0.999997
1.03417
1.03837
1.04119
1.04236
1.04183
1.03973
1.03631
1.03188
1.02674
1.02121
1.01554
1.00994
1.00457
0.999561
0.994976
0.990862
0.987236
0.9841
0.981448
0.979268
0.977551
0.976296
0.975503
0.975179
0.975339
0.976005
0.977203
0.978963
0.981318
0.9843
0.987935
0.992235
0.997192
1.00277
1.0089
1.01543
1.02213
1.02863
1.03445
1.03907
1.04203
1.04302
1.04202
1.03926
1.03519
1.03035
1.02526
1.02034
1.01589
1.01205
1.00889
1.00638
1.00445
1.003
1.00196
1.00122
1.00072
1.00038
1.00017
1.00005
0.999976
0.999942
0.99993
0.99993
0.999937
0.999947
0.999957
0.999967
0.999975
0.999981
0.999987
0.99999
0.999993
0.999995
0.999997
1.037
1.04042
1.04214
1.04202
1.04016
1.0368
1.03226
1.02689
1.02101
1.01492
1.00886
1.00302
0.997529
0.992481
0.987923
0.983869
0.980319
0.977257
0.974666
0.972529
0.970836
0.969583
0.968773
0.968413
0.968519
0.969111
0.970214
0.971864
0.974097
0.976957
0.980484
0.984708
0.989642
0.995272
1.00155
1.00838
1.01557
1.02281
1.02965
1.03556
1.03998
1.04246
1.04281
1.04111
1.03773
1.03321
1.02813
1.023
1.0182
1.01396
1.01041
1.00754
1.00531
1.00363
1.00239
1.00152
1.00091
1.00051
1.00025
1.00009
0.999999
0.999952
0.999933
0.99993
0.999935
0.999944
0.999954
0.999964
0.999973
0.99998
0.999985
0.99999
0.999993
0.999995
0.999997
1.03928
1.04169
1.04216
1.04073
1.0376
1.0331
1.0276
1.02146
1.01501
1.00853
1.00223
0.996273
0.990769
0.98577
0.981297
0.977341
0.973882
0.970892
0.968351
0.966241
0.964554
0.963292
0.962462
0.962073
0.962139
0.962675
0.963703
0.965253
0.967361
0.970077
0.973454
0.977542
0.982376
0.987967
0.994294
1.00129
1.0088
1.01658
1.02425
1.03126
1.03702
1.04096
1.04273
1.04226
1.03978
1.03578
1.03088
1.02565
1.02057
1.01598
1.01204
1.00881
1.00627
1.00432
1.00288
1.00185
1.00114
1.00065
1.00034
1.00014
1.00003
0.999967
0.999939
0.999931
0.999933
0.999942
0.999951
0.999961
0.99997
0.999978
0.999984
0.999989
0.999992
0.999994
0.999996
1.04088
1.04213
1.04132
1.03861
1.03432
1.02883
1.02253
1.01579
1.00893
1.0022
0.995792
0.989832
0.984392
0.979495
0.975134
0.971277
0.967888
0.964935
0.962399
0.960269
0.958549
0.957252
0.956394
0.955988
0.956047
0.956578
0.957587
0.959088
0.96111
0.963699
0.966916
0.97083
0.975503
0.980973
0.987249
0.994291
1.00199
1.01016
1.01844
1.02636
1.0333
1.03862
1.04183
1.04268
1.04126
1.03797
1.03342
1.02823
1.02298
1.01807
1.01377
1.01018
1.00731
1.00509
1.00343
1.00224
1.00139
1.00082
1.00044
1.00021
1.00007
0.999986
0.999948
0.999934
0.999933
0.99994
0.999949
0.999959
0.999968
0.999976
0.999983
0.999988
0.999991
0.999994
0.999996
1.04176
1.04178
1.03971
1.03582
1.0305
1.02418
1.01725
1.01007
1.00294
0.996083
0.989663
0.983775
0.978447
0.973671
0.969408
0.96561
0.962228
0.959229
0.956605
0.954364
0.952531
0.951145
0.950237
0.949831
0.949936
0.950544
0.95164
0.953207
0.955248
0.95779
0.960892
0.964637
0.969114
0.974399
0.980536
0.987522
0.995289
1.00368
1.01242
1.02105
1.029
1.03557
1.04017
1.04238
1.04214
1.03972
1.03568
1.03068
1.02535
1.0202
1.01557
1.01163
1.00843
1.00593
1.00404
1.00266
1.00168
1.00101
1.00057
1.00028
1.00011
1.00001
0.99996
0.999939
0.999935
0.999939
0.999948
0.999957
0.999967
0.999975
0.999981
0.999987
0.999991
0.999993
0.999996
1.04195
1.04074
1.03747
1.03252
1.02633
1.01932
1.0119
1.00442
0.997139
0.990263
0.983911
0.978139
0.972937
0.96826
0.964038
0.960203
0.956701
0.953506
0.950629
0.948117
0.946034
0.944456
0.94345
0.943057
0.943282
0.944098
0.945448
0.947272
0.949524
0.952189
0.955305
0.958957
0.96326
0.96833
0.97426
0.981096
0.988814
0.997304
1.00633
1.01551
1.02428
1.03196
1.03785
1.04141
1.04241
1.041
1.03762
1.03294
1.02764
1.02232
1.01741
1.01314
1.00961
1.00682
1.0047
1.00313
1.00201
1.00123
1.00071
1.00037
1.00016
1.00004
0.999976
0.999946
0.999937
0.999939
0.999947
0.999956
0.999965
0.999973
0.99998
0.999986
0.99999
0.999993
0.999995
1.04149
1.0391
1.03475
1.02887
1.02194
1.01439
1.00662
0.998951
0.991624
0.984804
0.978568
0.972926
0.967823
0.963175
0.958874
0.954834
0.950998
0.947359
0.943967
0.940925
0.93837
0.93644
0.935253
0.93488
0.935325
0.936529
0.938381
0.940747
0.943505
0.946573
0.949942
0.953677
0.95791
0.962799
0.968497
0.975112
0.982679
0.991141
1.00032
1.00988
1.0193
1.02792
1.03498
1.03984
1.04212
1.04178
1.03919
1.03496
1.02981
1.02441
1.01926
1.01469
1.01085
1.00778
1.0054
1.00363
1.00236
1.00147
1.00086
1.00047
1.00022
1.00008
0.999996
0.999956
0.999941
0.99994
0.999946
0.999955
0.999964
0.999972
0.999979
0.999985
0.999989
0.999993
0.999995
1.04049
1.03699
1.03167
1.025
1.01747
1.00951
1.0015
0.993745
0.986451
0.979736
0.973634
0.968096
0.963018
0.958265
0.953689
0.949179
0.944681
0.940225
0.935928
0.931987
0.928642
0.926131
0.924647
0.924299
0.925092
0.926926
0.92961
0.93291
0.93659
0.940467
0.944449
0.948562
0.952934
0.957764
0.963268
0.969635
0.976975
0.985302
0.994498
1.00429
1.0142
1.02359
1.03169
1.03776
1.04129
1.04208
1.04037
1.03671
1.03182
1.02642
1.0211
1.01627
1.01213
1.00877
1.00615
1.00417
1.00274
1.00172
1.00103
1.00058
1.00029
1.00012
1.00002
0.999969
0.999948
0.999943
0.999947
0.999955
0.999963
0.999972
0.999979
0.999984
0.999989
0.999992
0.999995
1.03904
1.03453
1.02836
1.02103
1.01302
1.00476
0.996613
0.988853
0.981647
0.975063
0.969076
0.963575
0.958392
0.953324
0.948174
0.942808
0.93718
0.931388
0.925659
0.920331
0.915792
0.912414
0.91049
0.91018
0.911486
0.914252
0.918187
0.922918
0.928058
0.933277
0.938367
0.943275
0.948109
0.953098
0.958529
0.96468
0.97176
0.97987
0.988968
0.998845
1.00909
1.0191
1.02809
1.03527
1.03999
1.04192
1.04116
1.03817
1.03364
1.02833
1.0229
1.01784
1.01343
1.0098
1.00692
1.00474
1.00314
1.002
1.00122
1.0007
1.00037
1.00017
1.00005
0.999985
0.999956
0.999947
0.999948
0.999955
0.999963
0.999971
0.999978
0.999984
0.999988
0.999992
0.999994
1.03723
1.03183
1.02493
1.01705
1.00867
1.00021
0.99201
0.984306
0.977221
0.970762
0.964836
0.959254
0.953766
0.948081
0.941941
0.935187
0.927815
0.920027
0.912216
0.904915
0.898711
0.894143
0.891624
0.891374
0.893392
0.897451
0.903132
0.909887
0.917134
0.924351
0.931165
0.937411
0.943145
0.948614
0.954176
0.960213
0.96705
0.974898
0.983809
0.993653
1.00409
1.01455
1.02429
1.03245
1.0383
1.04136
1.04158
1.03932
1.03524
1.0301
1.02463
1.01939
1.01474
1.01084
1.00772
1.00533
1.00357
1.0023
1.00142
1.00083
1.00045
1.00022
1.00008
1
0.999966
0.999952
0.999951
0.999956
0.999963
0.999971
0.999978
0.999984
0.999988
0.999992
0.999994
1.03518
1.02899
1.02146
1.01314
1.00448
0.995908
0.987722
0.980119
0.973162
0.96679
0.960828
0.954992
0.948919
0.942213
0.934541
0.925735
0.915869
0.905307
0.894674
0.884752
0.876372
0.870271
0.866997
0.866841
0.869795
0.875552
0.883536
0.892984
0.903072
0.913036
0.922297
0.930532
0.937714
0.944083
0.950066
0.956159
0.962824
0.970404
0.979068
0.988783
0.999285
1.01007
1.0204
1.02941
1.03629
1.04044
1.04166
1.04018
1.03661
1.03172
1.02627
1.02091
1.01604
1.01189
1.00854
1.00594
1.00401
1.00261
1.00163
1.00098
1.00055
1.00028
1.00011
1.00002
0.999978
0.999959
0.999954
0.999957
0.999964
0.999971
0.999978
0.999983
0.999988
0.999991
0.999994
1.03295
1.02607
1.01803
1.00936
1.00052
0.991893
0.983768
0.976285
0.96944
0.963088
0.956951
0.950623
0.943604
0.935372
0.925515
0.913878
0.90067
0.886489
0.872248
0.859037
0.847967
0.839992
0.835812
0.835791
0.839918
0.847797
0.858671
0.871525
0.885239
0.898761
0.911257
0.922213
0.931476
0.939255
0.946029
0.952417
0.959036
0.966384
0.974772
0.984283
0.994744
1.00571
1.0165
1.02625
1.03405
1.03922
1.04142
1.04076
1.03775
1.03317
1.02781
1.02235
1.0173
1.01294
1.00936
1.00656
1.00446
1.00293
1.00186
1.00112
1.00064
1.00034
1.00015
1.00005
0.999992
0.999967
0.999958
0.999959
0.999965
0.999971
0.999978
0.999983
0.999988
0.999991
0.999994
1.03064
1.02317
1.0147
1.00576
0.996801
0.988184
0.98015
0.972787
0.966012
0.959579
0.953083
0.945972
0.937576
0.927224
0.914443
0.899136
0.881705
0.863045
0.844424
0.827289
0.81305
0.802899
0.797684
0.797842
0.803365
0.813771
0.828116
0.845091
0.863226
0.881124
0.897658
0.912088
0.924112
0.933874
0.94188
0.948867
0.955618
0.962812
0.970929
0.980186
0.990519
1.00157
1.01269
1.02303
1.03165
1.03777
1.04091
1.04107
1.03867
1.03445
1.02922
1.02373
1.01853
1.01396
1.01018
1.00719
1.00492
1.00326
1.00208
1.00128
1.00075
1.0004
1.0002
1.00007
1.00001
0.999976
0.999964
0.999963
0.999966
0.999972
0.999978
0.999984
0.999988
0.999991
0.999994
1.0283
1.02033
1.01151
1.00238
0.993361
0.984785
0.976858
0.9696
0.962831
0.956186
0.949111
0.940873
0.930612
0.917506
0.901037
0.881216
0.858703
0.834762
0.81107
0.789469
0.771692
0.759151
0.752813
0.753183
0.760268
0.773532
0.791853
0.813608
0.83692
0.859977
0.881313
0.899939
0.91539
0.92772
0.93744
0.945378
0.952487
0.959647
0.967528
0.976507
0.986646
0.997679
1.00902
1.01984
1.02917
1.03614
1.04018
1.04115
1.03938
1.03555
1.0305
1.02501
1.0197
1.01495
1.01097
1.0078
1.00537
1.00359
1.00231
1.00144
1.00085
1.00047
1.00024
1.0001
1.00003
0.999987
0.99997
0.999966
0.999969
0.999973
0.999979
0.999984
0.999988
0.999992
0.999994
1.02599
1.0176
1.00851
0.999245
0.990209
0.981699
0.973876
0.966689
0.959847
0.952836
0.944931
0.935196
0.922567
0.906074
0.885186
0.860075
0.831725
0.801831
0.772544
0.746124
0.724613
0.709589
0.702095
0.702682
0.711393
0.727689
0.750326
0.777379
0.806522
0.83545
0.862279
0.885744
0.905214
0.920655
0.932559
0.941824
0.949554
0.956834
0.964543
0.973245
0.983146
0.994086
1.00555
1.01673
1.02667
1.03441
1.03928
1.04102
1.03988
1.03648
1.03165
1.0262
1.0208
1.0159
1.01175
1.0084
1.00583
1.00391
1.00254
1.0016
1.00096
1.00054
1.00029
1.00013
1.00004
0.999999
0.999978
0.999971
0.999971
0.999975
0.99998
0.999985
0.999989
0.999992
0.999994
1.02377
1.01502
1.00571
0.996367
0.98735
0.978918
0.971184
0.964022
0.957013
0.949469
0.94047
0.92887
0.913394
0.892946
0.86701
0.835973
0.801207
0.764912
0.72976
0.698432
0.67321
0.655758
0.647125
0.647883
0.658144
0.677431
0.704464
0.737087
0.772523
0.8079
0.840818
0.869673
0.893658
0.912662
0.927164
0.93811
0.946733
0.954309
0.96194
0.970389
0.980027
0.990814
1.00232
1.01377
1.0242
1.03262
1.03825
1.04074
1.04022
1.03725
1.03266
1.02727
1.02182
1.0168
1.01249
1.00898
1.00626
1.00423
1.00277
1.00175
1.00107
1.00062
1.00033
1.00016
1.00006
1.00001
0.999986
0.999976
0.999975
0.999977
0.999981
0.999985
0.999989
0.999992
0.999995
1.02167
1.01263
1.00315
0.993755
0.984782
0.976429
0.968759