/*--------------------------------*- C++ -*----------------------------------*\
  =========                 |
  \\      /  F ield         | OpenFOAM: The Open Source CFD Toolbox
   \\    /   O peration     | Website:  https://openfoam.org
    \\  /    A nd           | Version:  6
     \\/     M anipulation  |
\*---------------------------------------------------------------------------*/
FoamFile
{
    version     2.0;
    format      ascii;
    class       volScalarField;
    location    "3.43";
    object      T;
}
// * * * * * * * * * * * * * * * * * * * * * * * * * * * * * * * * * * * * * //

dimensions      [0 0 0 1 0 0 0];

internalField   nonuniform List<scalar> 
5625
(
1
1
1
1
1
1
1
1
1
1
1
1
1
1
1
1
1
1
1
1
1
1
1
1
1
1
1
1
1
1
1
1
1
1
1
1
1
1
1
1
1
1
1
1
1
1
1
1
1
1
1
1
1
1
1
1
1
1
1
1
1
1
1
1
1
1
1
1
1
1
1
1
1
1
1
1
1
1
1
1
1
1
1
1
1
1
1
1
1
1
1
1
1
1
1
1
1
1
1
1
1
1
1
1
1
1
1
1
1
1
1
1
1
1
1
1
1
1
1
1
1
1
1
1
1
1
1
1
1
1
1
1
1
1
1
1
1
1
1
1
1
1
1
1
1
1
1
1
1
1
1
1
1
1
1
1
1
1
1
1
1
1
1
1
1
1
1
1
1
1
1
1
1
1
1
1
1
1
1
1
1
1
1
1
1
1
1
1
1
1
1
1
1
1
1
1
1
1
1
1
1
1
1
1
1
1
1
1
1
1
1
1
1
1
1
1
1
1
1
1
1
1
1
1
1
1
1
1
1
1
1
1
1
1
1
1
1
1
1
1
1
1
1
1
1
1
1
1
1
1
1
1
1
1
1
1
1
1
1
1
1
1
1
1
1
1
1
1
1
1
1
1
1
1
1
1
1
1
1
1
1
1
1
1
1
1
1
1
1
1
1
1
1
1
1
1
1
1
1
1
1
1
1
1
1
1
1
1
1
1
1
1
1
1
1
1
1
1
1
1
1
1
1
1
1
1
1
1
1
1
1
1
1
1
1
1
1
1
1
1
1
1
1
1
1
1
1
1
1
1
1
1
1
1
1
1
1
1
1
1
1
1
1
1
1
1
1
1
1
1
1
1
1
1
1
1
1
1
1
1
1
1
1
1
1
1
1
1
1
1
1
1
1
1
1
1
1
1
1
1
1
1
1
1
1
1
1
1
1
1
1
1
1
1
1
1
1
1
1
1
1
1
1
1
1
1
1
1
1
1
1
1
1
1
1
1
1
1
1
1
1
1
1
1
1
1
1
1
1
1
1
1
1
1
1
1
1
1
1
1
1
1
1
1
1
1
1
1
1
1
1
1
1
1
1
1
1
1
1
1
1
1
1
1
1
1
1
1
1
1
1
1
1
1
1
1
1
1
1
1
1
1
1
1
1
1
1
1
1
1
1
1
1
1
1
1
1
1
1
1
1
1
1
1
1
1
1
1
1
1
1
1
1
1
1
1
1
1
1
1
1
1
1
1
1
1
1
1
1
1
1
1
1
1
1
1
1
1
1
1
1
1
1
1
1
1
1
1
1
1
1
1
1
1
1
1
1
1
1
1
1
1
1
1
1
1
1
1
1
1
1
1
1
1
1
1
1
1
1
1
1
1
1
1
1
1
1
1
1
1
1
1
1
1
1
1
1
1
1
1
1
1
1
1
1
1
1
1
1
1
1
1
1
1
1
1
1
1
1
1
1
1
1
1
1
1
1
1
1
1
1
1
1
1
1
1
1
1
1
1
1
1
1
1
1
1
1
1
1
1
1
1
1
1
1
1
1
1
1
1
1
1
1
1
1
1
1
1
1
1
1
1
1
1
1
1
1
1
1
1
1
1
1
1
1
1
1
1
1
1
1
1
1
1
1
1
1
1
1
1
1
1
1
1
1
1
1
1
1
1
1
1
1
1
1
1
1
1
1
1
1
1
1
1
1
1
1
1
1
1
1
1
1
1
1
1
1
1
1
1
1
1
1
1
1
1
1
1
1
1
1
1
1
1
1
1
1
1
1
1
1
1
1
1
1
1
1
1
1
1
1
1
1
1
1
1
1
1
1
1
1
1
1
1
1
1
1
1
1
1
1
1
1
1
1
1
1
1
1
1
1
1
1
1
1
1
1
1
1
1
1
1
1
1
1
1
1
1
1
1
1
1
1
1
1
1
1
1
1
1
1
1
1
1
1
1
1
1
1
1
1
1
1
1
1
1
1
1
1
1
1
1
1
1
1
1
1
1
1
1
1
1
1
1
1
1
1
1
1
1
1
1
1
1
1
1
1
1
1
1
1
1
1
1
1
1
1
1
1
1
1
1
1
1
1
1
1
1
1
1
1
1
1
1
1
1
1
1
1
1
1
1
1
1
1
1
1
1
1
1
1
1
1
1
1
1
1
1
1
1
1
1
1
1
1
1
1
1
1
1
1
1
1
1
1
1
1
1
1
1
1
1
1
1
1
1
1
1
1
1
1
1
1
1
1
1
1
1
1
1
1
1
1
1
1
1
1
1
1
1
1
1
1
1
1
1
1
1
1
1
1
1
1
1
1
1
1
1
1
1
1
1
1
1
1
1
1
1
1
1
1
1
1
1
1
1
1
1
1
1
1
1
1
1
1
1
1
1
1
1
1
1
1
1
1
1
1
1
1
1
1
1
1
1
1
1
1
1
1.00001
1.00001
1.00001
1.00001
1.00001
1.00001
1.00001
1.00001
1.00001
1.00001
1
1
1
1
1
1
1
1
1
1
1
1
1
1
1
1
1
1
1
1
1
1
1
1
1
1
1
1
1
1
1
1
1
1
1
1
1
1
1
1
1
1
1
1
1
1
1
1
1
1
1
1
1
1
1
1
1
1
1
1
1
1
1.00001
1.00001
1.00001
1.00001
1.00001
1.00001
1.00001
1.00001
1.00001
1.00001
1.00001
1.00001
1.00001
1.00001
1.00001
1.00001
1
1
1
1
1
1
1
1
1
1
1
1
1
1
1
1
1
1
1
1
1
1
1
1
1
1
1
1
1
1
1
1
1
1
1
1
1
1
1
1
1
1
1
1
1
1
1
1
1
1
1
1
1
1
1
1
1.00001
1.00001
1.00001
1.00001
1.00001
1.00001
1.00001
1.00001
1.00001
1.00001
1.00001
1.00001
1.00001
1.00001
1.00001
1.00001
1.00001
1.00001
1.00001
1.00001
1.00001
1.00001
1
1
1
1
1
1
1
1
1
1
1
1
1
1
1
1
1
1
1
1
1
1
1
1
1
1
1
1
1
1
1
1
1
1
1
1
1
1
1
1
1
1
1
1
1
1
1
1
1
1
1
1.00001
1.00001
1.00001
1.00001
1.00001
1.00001
1.00001
1.00001
1.00001
1.00001
1.00001
1.00001
1.00001
1.00001
1.00001
1.00001
1.00001
1.00001
1.00001
1.00001
1.00001
1.00001
1.00001
1.00001
1.00001
1.00001
1
1
1
1
1
1
1
1
1
1
1
1
1
1
1
1
1
1
1
1
1
1
1
1
1
1
1
1
1
1
1
1
1
1
1
1
1
1
1
1
1
1
1
1
1
1
1
1.00001
1.00001
1.00001
1.00001
1.00001
1.00001
1.00001
1.00001
1.00001
1.00001
1.00001
1.00001
1.00002
1.00002
1.00002
1.00002
1.00002
1.00002
1.00001
1.00001
1.00001
1.00001
1.00001
1.00001
1.00001
1.00001
1.00001
1.00001
1.00001
1
1
1
1
1
1
1
1
1
1
1
1
1
1
1
1
1
1
1
1
1
1
1
1
1
1
1
1
1
1
1
1
1
1
1
1
1
1
1
1
1
1
1
1
1
1.00001
1.00001
1.00001
1.00001
1.00001
1.00001
1.00001
1.00001
1.00001
1.00002
1.00002
1.00002
1.00002
1.00002
1.00002
1.00002
1.00002
1.00002
1.00002
1.00002
1.00002
1.00002
1.00002
1.00001
1.00001
1.00001
1.00001
1.00001
1.00001
1.00001
1.00001
1.00001
1
1
1
1
1
1
1
1
1
1
1
1
1
1
1
1
1
1
1
1
1
1
1
1
1
1
1
1
1
1
1
1
1
1
1
1
1
1
1
1
1
1
1.00001
1.00001
1.00001
1.00001
1.00001
1.00001
1.00001
1.00002
1.00002
1.00002
1.00002
1.00002
1.00002
1.00002
1.00002
1.00002
1.00002
1.00002
1.00002
1.00002
1.00002
1.00002
1.00002
1.00002
1.00002
1.00002
1.00002
1.00001
1.00001
1.00001
1.00001
1.00001
1.00001
1.00001
1
1
1
1
1
1
1
1
1
1
1
1
1
1
1
1
1
1
1
1
1
1
1
1
1
1
1
1
1
1
1
1
1
1
1
1
1
1
1
1.00001
1.00001
1.00001
1.00001
1.00001
1.00001
1.00001
1.00002
1.00002
1.00002
1.00002
1.00002
1.00002
1.00002
1.00002
1.00002
1.00002
1.00002
1.00002
1.00002
1.00002
1.00002
1.00002
1.00002
1.00002
1.00002
1.00002
1.00002
1.00002
1.00002
1.00002
1.00001
1.00001
1.00001
1.00001
1.00001
1.00001
1
1
1
1
1
1
1
1
1
1
1
1
1
1
1
1
1
1
1
1
1
1
1
1
1
1
1
1
1
1
1
1
1
1
1
1
1
1.00001
1.00001
1.00001
1.00001
1.00001
1.00001
1.00002
1.00002
1.00002
1.00002
1.00002
1.00002
1.00002
1.00002
1.00003
1.00003
1.00003
1.00003
1.00003
1.00003
1.00003
1.00003
1.00003
1.00003
1.00003
1.00003
1.00002
1.00002
1.00002
1.00002
1.00002
1.00002
1.00002
1.00001
1.00001
1.00001
1.00001
1.00001
1.00001
1
1
1
1
1
1
1
1
1
1
1
1
1
1
1
1
1
1
1
1
1
1
1
1
1
1
1
1
1
1
1
1
1
1
1
1.00001
1.00001
1.00001
1.00001
1.00001
1.00001
1.00002
1.00002
1.00002
1.00002
1.00002
1.00002
1.00003
1.00003
1.00003
1.00003
1.00003
1.00003
1.00003
1.00003
1.00003
1.00003
1.00003
1.00003
1.00003
1.00003
1.00003
1.00003
1.00003
1.00003
1.00002
1.00002
1.00002
1.00002
1.00002
1.00002
1.00001
1.00001
1.00001
1.00001
1.00001
1
1
1
1
1
1
1
1
1
1
1
1
1
1
1
1
1
1
1
1
1
1
1
1
1
1
1
1
1
1
1
1
1
1.00001
1.00001
1.00001
1.00001
1.00001
1.00002
1.00002
1.00002
1.00002
1.00002
1.00002
1.00003
1.00003
1.00003
1.00003
1.00003
1.00003
1.00003
1.00003
1.00003
1.00003
1.00003
1.00003
1.00003
1.00003
1.00003
1.00003
1.00003
1.00003
1.00003
1.00003
1.00003
1.00003
1.00002
1.00002
1.00002
1.00002
1.00002
1.00001
1.00001
1.00001
1.00001
1.00001
1
1
1
1
1
1
1
1
1
1
1
1
1
1
1
1
1
1
1
1
1
1
1
1
1
1
1
1
1
1
1
1.00001
1.00001
1.00001
1.00001
1.00001
1.00002
1.00002
1.00002
1.00002
1.00002
1.00003
1.00003
1.00003
1.00003
1.00003
1.00003
1.00003
1.00003
1.00002
1.00002
1.00002
1.00002
1.00002
1.00002
1.00002
1.00002
1.00002
1.00003
1.00003
1.00003
1.00003
1.00003
1.00003
1.00003
1.00003
1.00003
1.00002
1.00002
1.00002
1.00002
1.00001
1.00001
1.00001
1.00001
1.00001
1
1
1
1
1
1
1
1
1
1
1
1
1
1
1
1
1
1
1
1
1
1
1
1
1
1
1
1
1
1
1.00001
1.00001
1.00001
1.00001
1.00002
1.00002
1.00002
1.00002
1.00003
1.00003
1.00003
1.00003
1.00003
1.00003
1.00003
1.00003
1.00002
1.00002
1.00002
1.00002
1.00002
1.00002
1.00002
1.00002
1.00002
1.00002
1.00002
1.00002
1.00002
1.00002
1.00003
1.00003
1.00003
1.00003
1.00003
1.00003
1.00003
1.00002
1.00002
1.00002
1.00002
1.00001
1.00001
1.00001
1.00001
1.00001
1
1
1
1
1
1
1
1
1
1
1
1
1
1
1
1
1
1
1
1
1
1
1
1
1
1
1
1
1
1.00001
1.00001
1.00001
1.00002
1.00002
1.00002
1.00002
1.00003
1.00003
1.00003
1.00003
1.00003
1.00003
1.00003
1.00002
1.00002
1.00002
1.00001
1.00001
1.00001
1.00001
1
1
1
1
1.00001
1.00001
1.00001
1.00001
1.00002
1.00002
1.00002
1.00003
1.00003
1.00003
1.00003
1.00003
1.00003
1.00002
1.00002
1.00002
1.00002
1.00001
1.00001
1.00001
1.00001
1.00001
1
1
1
1
1
1
1
1
1
1
1
1
1
1
1
1
1
1
1
1
1
1
1
1
1
1
1
1
1.00001
1.00001
1.00002
1.00002
1.00002
1.00002
1.00003
1.00003
1.00003
1.00003
1.00003
1.00003
1.00002
1.00002
1.00002
1.00001
1.00001
1
0.999996
0.999991
0.999987
0.999985
0.999983
0.999984
0.999985
0.999988
0.999992
0.999997
1
1.00001
1.00001
1.00002
1.00002
1.00002
1.00003
1.00003
1.00003
1.00003
1.00003
1.00003
1.00002
1.00002
1.00002
1.00001
1.00001
1.00001
1.00001
1.00001
1
1
1
1
1
1
1
1
1
1
1
1
1
1
1
1
1
1
1
1
1
1
1
1
1
1
1
1.00001
1.00002
1.00002
1.00002
1.00002
1.00003
1.00003
1.00003
1.00003
1.00003
1.00003
1.00002
1.00002
1.00001
1.00001
0.999998
0.999989
0.99998
0.999972
0.999965
0.999959
0.999954
0.999952
0.999953
0.999956
0.999961
0.999967
0.999975
0.999983
0.999991
0.999999
1.00001
1.00001
1.00002
1.00002
1.00003
1.00003
1.00003
1.00003
1.00003
1.00003
1.00002
1.00002
1.00002
1.00001
1.00001
1.00001
1.00001
1
1
1
1
1
1
1
1
1
1
1
1
1
1
1
1
1
1
1
1
1
1
1
1
1
1
1
1.00001
1.00002
1.00002
1.00002
1.00003
1.00003
1.00003
1.00003
1.00003
1.00003
1.00002
1.00002
1.00001
1
0.999989
0.999976
0.999963
0.999949
0.999936
0.999923
0.999913
0.999907
0.999904
0.999904
0.999909
0.999917
0.999928
0.99994
0.999953
0.999966
0.999978
0.999989
0.999999
1.00001
1.00001
1.00002
1.00002
1.00003
1.00003
1.00003
1.00003
1.00002
1.00002
1.00002
1.00002
1.00001
1.00001
1.00001
1.00001
1
1
1
1
1
1
1
1
1
1
1
1
1
1
1
1
1
1
1
1
1
1
1
1
1
1
1.00002
1.00002
1.00002
1.00003
1.00003
1.00003
1.00003
1.00003
1.00002
1.00002
1.00001
1.00001
0.999995
0.999981
0.999963
0.999944
0.999922
0.9999
0.999878
0.999859
0.999843
0.999831
0.999826
0.999828
0.999836
0.999849
0.999866
0.999886
0.999907
0.999927
0.999947
0.999965
0.99998
0.999993
1
1.00001
1.00002
1.00002
1.00003
1.00003
1.00003
1.00003
1.00002
1.00002
1.00002
1.00001
1.00001
1.00001
1.00001
1.00001
1
1
1
1
1
1
1
1
1
1
1
1
1
1
1
1
1
1
1
1
1
1
1
1
1
1.00002
1.00002
1.00003
1.00003
1.00003
1.00003
1.00003
1.00003
1.00002
1.00001
1
0.999991
0.999974
0.999952
0.999925
0.999894
0.99986
0.999824
0.999789
0.999758
0.999732
0.999714
0.999706
0.999708
0.99972
0.999741
0.999769
0.999801
0.999835
0.999868
0.999899
0.999927
0.999951
0.999971
0.999987
1
1.00001
1.00002
1.00002
1.00003
1.00003
1.00003
1.00003
1.00002
1.00002
1.00002
1.00001
1.00001
1.00001
1.00001
1
1
1
1
1
1
1
1
1
1
1
1
1
1
1
1
1
1
1
1
1
1
1
1
1
1.00002
1.00002
1.00003
1.00003
1.00003
1.00003
1.00003
1.00002
1.00001
1
0.99999
0.99997
0.999943
0.999909
0.999867
0.999818
0.999765
0.999708
0.999652
0.999602
0.999561
0.999532
0.999518
0.999522
0.999541
0.999575
0.999619
0.99967
0.999724
0.999777
0.999826
0.99987
0.999908
0.999939
0.999964
0.999983
0.999999
1.00001
1.00002
1.00002
1.00003
1.00003
1.00003
1.00003
1.00002
1.00002
1.00002
1.00001
1.00001
1.00001
1.00001
1
1
1
1
1
1
1
1
1
1
1
1
1
1
1
1
1
1
1
1
1
1
1
1
1.00002
1.00003
1.00003
1.00003
1.00003
1.00003
1.00002
1.00002
1.00001
0.999991
0.999969
0.999938
0.999897
0.999844
0.999779
0.999704
0.99962
0.999531
0.999444
0.999365
0.999299
0.999253
0.999232
0.999237
0.999267
0.99932
0.999389
0.999469
0.999554
0.999638
0.999715
0.999784
0.999843
0.999891
0.999929
0.999958
0.999981
0.999998
1.00001
1.00002
1.00002
1.00003
1.00003
1.00003
1.00002
1.00002
1.00002
1.00001
1.00001
1.00001
1.00001
1
1
1
1
1
1
1
1
1
1
1
1
1
1
1
1
1
1
1
1
1
1
1
1
1.00003
1.00003
1.00003
1.00003
1.00003
1.00002
1.00002
1.00001
0.999994
0.999972
0.999938
0.999892
0.999828
0.999747
0.999649
0.999533
0.999403
0.999267
0.999132
0.999008
0.998905
0.998834
0.9988
0.998807
0.998854
0.998935
0.999043
0.999168
0.999299
0.999429
0.999549
0.999656
0.999746
0.999819
0.999878
0.999922
0.999956
0.999981
0.999999
1.00001
1.00002
1.00003
1.00003
1.00003
1.00003
1.00002
1.00002
1.00002
1.00001
1.00001
1.00001
1.00001
1
1
1
1
1
1
1
1
1
1
1
1
1
1
1
1
1
1
1
1
1
1
1
1.00003
1.00003
1.00003
1.00003
1.00003
1.00002
1.00001
0.999999
0.999978
0.999944
0.999895
0.999824
0.999728
0.999606
0.999456
0.99928
0.999083
0.998876
0.998669
0.998479
0.998322
0.998212
0.998159
0.99817
0.998241
0.998366
0.998531
0.998722
0.998923
0.999121
0.999304
0.999466
0.999604
0.999715
0.999803
0.99987
0.99992
0.999957
0.999983
1
1.00001
1.00002
1.00003
1.00003
1.00003
1.00002
1.00002
1.00002
1.00001
1.00001
1.00001
1.00001
1
1
1
1
1
1
1
1
1
1
1
1
1
1
1
1
1
1
1
1
1
1
1
1.00003
1.00003
1.00003
1.00003
1.00002
1.00002
1.00001
0.999986
0.999955
0.999905
0.999831
0.999726
0.999584
0.999401
0.999177
0.998914
0.998619
0.998307
0.997997
0.99771
0.997473
0.997307
0.997228
0.997243
0.997351
0.997539
0.997788
0.998076
0.998378
0.998675
0.99895
0.999193
0.999398
0.999565
0.999696
0.999795
0.999869
0.999922
0.99996
0.999986
1
1.00002
1.00002
1.00003
1.00003
1.00003
1.00002
1.00002
1.00002
1.00001
1.00001
1.00001
1.00001
1
1
1
1
1
1
1
1
1
1
1
1
1
1
1
1
1
1
1
1
1
1
1.00003
1.00003
1.00003
1.00002
1.00002
1.00001
0.999996
0.999968
0.999923
0.99985
0.99974
0.999585
0.999377
0.999109
0.998779
0.998391
0.997957
0.997495
0.997035
0.996611
0.99626
0.996015
0.995899
0.995923
0.996083
0.996362
0.996731
0.997156
0.997603
0.998041
0.998447
0.998805
0.999107
0.999352
0.999544
0.99969
0.999797
0.999874
0.999928
0.999966
0.999992
1.00001
1.00002
1.00002
1.00003
1.00003
1.00002
1.00002
1.00002
1.00001
1.00001
1.00001
1.00001
1
1
1
1
1
1
1
1
1
1
1
1
1
1
1
1
1
1
1
1
1
1
1.00003
1.00003
1.00003
1.00002
1.00002
1
0.999983
0.999944
0.999878
0.999772
0.999612
0.999388
0.999086
0.998698
0.998221
0.997658
0.997027
0.996355
0.995686
0.99507
0.99456
0.994205
0.99404
0.994078
0.994313
0.994719
0.995256
0.995873
0.996522
0.997158
0.997746
0.998264
0.998701
0.999056
0.999333
0.999543
0.999698
0.999808
0.999885
0.999938
0.999974
0.999998
1.00001
1.00002
1.00003
1.00003
1.00003
1.00002
1.00002
1.00002
1.00001
1.00001
1.00001
1
1
1
1
1
1
1
1
1
1
1
1
1
1
1
1
1
1
1
1
1
1
1.00003
1.00003
1.00002
1.00002
1.00001
0.999996
0.999966
0.999911
0.999815
0.999663
0.999435
0.999115
0.998685
0.998133
0.997452
0.996648
0.995745
0.994783
0.993826
0.992947
0.992223
0.991721
0.991489
0.991549
0.991888
0.99247
0.993237
0.994118
0.995044
0.99595
0.996788
0.997526
0.998148
0.998652
0.999046
0.999344
0.999563
0.999719
0.999827
0.999901
0.999951
0.999984
1
1.00002
1.00002
1.00003
1.00003
1.00002
1.00002
1.00002
1.00001
1.00001
1.00001
1.00001
1
1
1
1
1
1
1
1
1
1
1
1
1
1
1
1
1
1
1
1
1
1.00003
1.00003
1.00002
1.00002
1.00001
0.999986
0.999945
0.999866
0.99973
0.999514
0.999194
0.998745
0.998143
0.997368
0.996412
0.995281
0.994009
0.992657
0.991313
0.990083
0.989073
0.988377
0.988059
0.988148
0.988628
0.989447
0.990523
0.99176
0.993058
0.994328
0.995503
0.996536
0.997407
0.998111
0.998662
0.999078
0.999383
0.9996
0.99975
0.999852
0.99992
0.999965
0.999993
1.00001
1.00002
1.00003
1.00003
1.00002
1.00002
1.00002
1.00001
1.00001
1.00001
1.00001
1
1
1
1
1
1
1
1
1
1
1
1
1
1
1
1
1
1
1
1
1
1.00003
1.00002
1.00002
1.00001
1
0.999974
0.999916
0.999805
0.999615
0.999315
0.998873
0.998253
0.997423
0.996354
0.995031
0.993465
0.991704
0.989837
0.987986
0.986297
0.984915
0.983964
0.983532
0.983657
0.984319
0.985449
0.986935
0.988642
0.990433
0.992186
0.993806
0.995231
0.99643
0.9974
0.998156
0.998728
0.999146
0.999443
0.999649
0.999788
0.999881
0.999941
0.999979
1
1.00002
1.00002
1.00003
1.00003
1.00002
1.00002
1.00002
1.00001
1.00001
1.00001
1
1
1
1
1
1
1
1
1
1
1
1
1
1
1
1
1
1
1
1
1
1.00003
1.00002
1.00002
1.00001
0.999995
0.999958
0.999878
0.999725
0.999463
0.999053
0.998452
0.997613
0.996486
0.995033
0.993232
0.9911
0.988707
0.986176
0.983676
0.981399
0.979535
0.978249
0.977661
0.977825
0.978718
0.980248
0.982263
0.984582
0.987017
0.989401
0.991602
0.993537
0.995164
0.996479
0.997503
0.998276
0.998841
0.999242
0.999519
0.999706
0.99983
0.99991
0.99996
0.999992
1.00001
1.00002
1.00002
1.00003
1.00002
1.00002
1.00002
1.00001
1.00001
1.00001
1.00001
1
1
1
1
1
1
1
1
1
1
1
1
1
1
1
1
1
1
1
1
1.00002
1.00002
1.00001
1.00001
0.999989
0.999939
0.999829
0.999621
0.999266
0.998717
0.997914
0.996795
0.995291
0.993346
0.990935
0.988084
0.984893
0.981529
0.978211
0.975187
0.972702
0.970976
0.970174
0.970375
0.971554
0.973589
0.976281
0.979383
0.982644
0.985837
0.988786
0.991376
0.993552
0.995308
0.996674
0.997703
0.998454
0.998987
0.999355
0.999603
0.999766
0.999871
0.999937
0.999978
1
1.00002
1.00002
1.00003
1.00002
1.00002
1.00002
1.00001
1.00001
1.00001
1.00001
1
1
1
1
1
1
1
1
1
1
1
1
1
1
1
1
1
1
1
1
1.00002
1.00002
1.00001
1
0.999981
0.999914
0.999766
0.999487
0.999018
0.998295
0.997242
0.995773
0.993796
0.991237
0.988065
0.984324
0.98015
0.97576
0.971427
0.96746
0.964179
0.96188
0.960792
0.961028
0.962562
0.965232
0.968772
0.972858
0.977155
0.981364
0.985253
0.988667
0.991533
0.993844
0.99564
0.99699
0.997974
0.998671
0.999152
0.999475
0.999687
0.999823
0.999909
0.999962
0.999993
1.00001
1.00002
1.00002
1.00002
1.00002
1.00002
1.00002
1.00001
1.00001
1.00001
1
1
1
1
1
1
1
1
1
1
1
1
1
1
1
1
1
1
1
1
1.00002
1.00001
1.00001
1
0.999972
0.999885
0.999689
0.999321
0.998712
0.997778
0.99642
0.994524
0.991968
0.988658
0.984561
0.979746
0.974391
0.968758
0.963178
0.958033
0.953746
0.950724
0.949281
0.94957
0.951551
0.955006
0.959587
0.964872
0.970432
0.97588
0.980916
0.98534
0.989054
0.992048
0.994372
0.996117
0.997388
0.998286
0.998904
0.999319
0.999591
0.999765
0.999874
0.999942
0.999982
1.00001
1.00002
1.00002
1.00002
1.00002
1.00002
1.00002
1.00001
1.00001
1.00001
1.00001
1
1
1
1
1
1
1
1
1
1
1
1
1
1
1
1
1
1
1
1.00002
1.00001
1.00001
1
0.999963
0.999849
0.999594
0.999121
0.998344
0.997158
0.995438
0.993031
0.989782
0.985577
0.980387
0.974312
0.967565
0.960447
0.95335
0.946762
0.941253
0.937374
0.93554
0.935931
0.938477
0.942885
0.948705
0.955406
0.962448
0.969352
0.97574
0.98136
0.986083
0.989893
0.992852
0.995072
0.996685
0.997825
0.998609
0.999134
0.999477
0.999697
0.999834
0.999918
0.999969
0.999998
1.00001
1.00002
1.00002
1.00002
1.00002
1.00002
1.00001
1.00001
1.00001
1.00001
1
1
1
1
1
1
1
1
1
1
1
1
1
1
1
1
1
1
1
1.00002
1.00001
1.00001
1
0.999953
0.999807
0.999482
0.998886
0.997914
0.996437
0.994294
0.991289
0.987232
0.98199
0.975546
0.968026
0.959665
0.950798
0.941898
0.933607
0.926694
0.921882
0.919671
0.920248
0.92349
0.929015
0.936263
0.944576
0.953299
0.961848
0.969765
0.976744
0.982623
0.987375
0.991071
0.993846
0.995863
0.997286
0.998263
0.998917
0.999344
0.999617
0.999787
0.999891
0.999954
0.99999
1.00001
1.00002
1.00002
1.00002
1.00002
1.00002
1.00001
1.00001
1.00001
1.00001
1
1
1
1
1
1
1
1
1
1
1
1
1
1
1
1
1
1
1
1.00001
1.00001
1.00001
1
0.999943
0.999759
0.999354
0.998617
0.997425
0.995618
0.992992
0.989307
0.984332
0.977925
0.970081
0.96094
0.950745
0.939867
0.928898
0.918701
0.910285
0.904533
0.901996
0.90284
0.906884
0.913662
0.922499
0.932603
0.94318
0.953532
0.963118
0.971579
0.978728
0.984525
0.989046
0.992448
0.994923
0.99667
0.997869
0.99867
0.999193
0.999526
0.999734
0.99986
0.999936
0.999981
1.00001
1.00002
1.00002
1.00002
1.00002
1.00002
1.00002
1.00001
1.00001
1.00001
1
1
1
1
1
1
1
1
1
1
1
1
1
1
1
1
1
1
1
1.00001
1
1.00001
1
0.999933
0.999708
0.999213
0.998322
0.996886
0.994713
0.991554
0.987113
0.981129
0.97345
0.964086
0.95317
0.94094
0.92782
0.914589
0.90239
0.892468
0.885808
0.882964
0.884077
0.888943
0.89705
0.907616
0.91969
0.932303
0.944611
0.955982
0.966014
0.974504
0.98141
0.986818
0.990901
0.993879
0.995984
0.997429
0.998395
0.999024
0.999425
0.999674
0.999826
0.999917
0.99997
1
1.00002
1.00002
1.00002
1.00002
1.00002
1.00002
1.00001
1.00001
1.00001
1
1
1
1
1
1
1
1
1
1
1
1
1
1
1
1
1
1
1
1.00001
1
1.00001
1.00001
0.999925
0.999655
0.999064
0.998006
0.996311
0.993746
0.990008
0.984757
0.977696
0.968674
0.957701
0.944891
0.93047
0.914963
0.8994
0.88522
0.873838
0.866257
0.863001
0.864239
0.869826
0.879261
0.891674
0.90592
0.920796
0.935255
0.948545
0.960224
0.970095
0.978137
0.984458
0.989249
0.992758
0.995244
0.996953
0.998096
0.998841
0.999315
0.99961
0.999789
0.999896
0.999959
0.999994
1.00001
1.00002
1.00002
1.00002
1.00002
1.00002
1.00001
1.00001
1.00001
1
1
1
1
1
1
1
1
1
1
1
1
1
1
1
1
1
1
1
1
0.999998
1.00001
1.00001
0.999919
0.999603
0.998913
0.997684
0.995718
0.992743
0.988404
0.982308
0.974138
0.963742
0.951118
0.936348
0.919664
0.901742
0.883907
0.867848
0.855036
0.846407
0.842485
0.843561
0.849652
0.860336
0.874669
0.89129
0.908696
0.925558
0.940948
0.954369
0.965652
0.97483
0.982056
0.987554
0.991597
0.994472
0.996455
0.997783
0.998649
0.9992
0.999542
0.999751
0.999874
0.999947
0.999987
1.00001
1.00002
1.00002
1.00002
1.00002
1.00002
1.00001
1.00001
1.00001
1.00001
1
1
1
1
1
1
1
1
1
1
1
1
1
1
1
1
1
1
0.999998
0.999993
1.00001
1.00002
0.999917
0.999558
0.998769
0.997369
0.995131
0.991744
0.986798
0.979855
0.970581
0.958825
0.944566
0.927846
0.908932
0.888702
0.868766
0.850961
0.836694
0.82681
0.82191
0.822508
0.828849
0.840626
0.85685
0.87595
0.896094
0.915603
0.933297
0.948581
0.961315
0.971615
0.979712
0.985887
0.990444
0.9937
0.995953
0.997466
0.998454
0.999083
0.999473
0.999711
0.999852
0.999934
0.999981
1.00001
1.00002
1.00002
1.00002
1.00002
1.00002
1.00001
1.00001
1.00001
1.00001
1
1
1
1
1
1
1
1
1
1
1
1
1
1
1
1
1
1
0.999993
0.999988
1.00001
1.00003
0.99992
0.999523
0.998643
0.997079
0.99458
0.990794
0.985259
0.977499
0.967171
0.954121
0.938304
0.919734
0.898742
0.876429
0.854634
0.835223
0.819471
0.808184
0.802126
0.80207
0.808465
0.821111
0.839016
0.860472
0.883354
0.905611
0.925742
0.942988
0.957207
0.968607
0.977527
0.984324
0.989355
0.992963
0.995469
0.997158
0.998263
0.998968
0.999406
0.999672
0.999831
0.999922
0.999974
1
1.00002
1.00002
1.00002
1.00002
1.00002
1.00001
1.00001
1.00001
1.00001
1
1
1
1
1
1
1
1
1
1
1
1
1
1
1
1
1
1
0.999989
0.999981
1.00001
1.00004
0.99993
0.999503
0.998544
0.996832
0.994094
0.98994
0.983861
0.975351
0.964058
0.949832
0.932604
0.912373
0.889566
0.865488
0.842122
0.821274
0.804107
0.791483
0.784365
0.783714
0.790077
0.803313
0.822489
0.845884
0.871194
0.896038
0.918558
0.937764
0.953457
0.965914
0.975589
0.982939
0.988382
0.992297
0.995028
0.996874
0.998086
0.998861
0.999343
0.999636
0.99981
0.999911
0.999968
0.999999
1.00001
1.00002
1.00002
1.00002
1.00002
1.00001
1.00001
1.00001
1.00001
1
1
1
1
1
1
1
1
1
1
1
1
1
1
1
1
1
1
0.999985
0.999974
1.00001
1.00004
0.999947
0.999504
0.998482
0.996646
0.993702
0.989229
0.982677
0.973515
0.96139
0.946155
0.927727
0.906113
0.881839
0.856376
0.831762
0.809719
0.791378
0.77773
0.769909
0.768922
0.775266
0.7888
0.808705
0.833387
0.860528
0.887513
0.912145
0.933153
0.950217
0.963641
0.97398
0.981794
0.987573
0.991738
0.994652
0.99663
0.997932
0.998767
0.999287
0.999604
0.999792
0.999901
0.999963
0.999997
1.00001
1.00002
1.00002
1.00002
1.00002
1.00001
1.00001
1.00001
1.00001
1
1
1
1
1
1
1
1
1
1
1
1
1
1
1
1
1
1
0.999982
0.999965
1
1.00005
0.999971
0.999526
0.998466
0.996537
0.993433
0.988706
0.981778
0.972093
0.959302
0.943267
0.923907
0.901252
0.875923
0.849494
0.823994
0.801081
0.781943
0.76773
0.759664
0.758668
0.765072
0.778666
0.798759
0.824
0.85221
0.880684
0.906946
0.929433
0.947655
0.961894
0.972772
0.980943
0.986969
0.991314
0.994362
0.996438
0.99781
0.998691
0.999242
0.999577
0.999777
0.999893
0.999959
0.999994
1.00001
1.00002
1.00002
1.00002
1.00002
1.00001
1.00001
1.00001
1.00001
1
1
1
1
1
1
1
1
1
1
1
1
1
1
1
1
1
1
0.999981
0.999954
0.999989
1.00005
0.999999
0.999573
0.998502
0.996519
0.993309
0.988408
0.981217
0.971166
0.957905
0.941312
0.921327
0.898019
0.872081
0.845128
0.819135
0.795739
0.776225
0.761881
0.753946
0.753208
0.75978
0.77331
0.793187
0.818337
0.84685
0.876072
0.903352
0.926868
0.945934
0.960768
0.972025
0.980427
0.986601
0.99105
0.994175
0.996311
0.997726
0.998638
0.99921
0.999559
0.999766
0.999887
0.999956
0.999993
1.00001
1.00002
1.00002
1.00002
1.00002
1.00001
1.00001
1.00001
1.00001
1
1
1
1
1
1
1
1
1
1
1
1
1
1
1
1
1
1
0.999983
0.999945
0.999972
1.00005
1.00003
0.999642
0.998592
0.996599
0.993343
0.988362
0.98104
0.970794
0.957278
0.94039
0.920106
0.896547
0.870458
0.84343
0.817362
0.793879
0.774364
0.760185
0.752577
0.752226
0.759054
0.772509
0.791958
0.816558
0.844725
0.873985
0.901633
0.925654
0.945181
0.960339
0.971781
0.980273
0.986487
0.990957
0.994102
0.996255
0.997687
0.998612
0.999193
0.999549
0.999761
0.999884
0.999954
0.999992
1.00001
1.00002
1.00002
1.00002
1.00002
1.00001
1.00001
1.00001
1.00001
1
1
1
1
1
1
1
1
1
1
1
1
1
1
1
1
1
1
0.999988
0.999937
0.999952
1.00004
1.00005
0.999727
0.998735
0.996781
0.993546
0.988578
0.981265
0.971012
0.95747
0.940556
0.9203
0.896884
0.871081
0.844413
0.818679
0.795488
0.776266
0.762408
0.755148
0.755151
0.762236
0.775647
0.794617
0.818422
0.845785
0.874492
0.9019
0.925894
0.945465
0.960646
0.972059
0.980487
0.98663
0.991041
0.994144
0.996273
0.997693
0.998613
0.999193
0.999548
0.99976
0.999883
0.999954
0.999992
1.00001
1.00002
1.00002
1.00002
1.00002
1.00001
1.00001
1.00001
1.00001
1
1
1
1
1
1
1
1
1
1
1
1
1
1
1
1
1
1
0.999998
0.999934
0.999928
1.00001
1.00007
0.999819
0.998922
0.997057
0.993911
0.989054
0.98189
0.97182
0.958484
0.941817
0.921901
0.89899
0.873865
0.847952
0.822935
0.800374
0.781684
0.768234
0.761253
0.761459
0.768686
0.782038
0.800542
0.82346
0.84974
0.877452
0.904106
0.927581
0.946789
0.961684
0.97285
0.98106
0.987023
0.991295
0.994301
0.996366
0.997746
0.998642
0.999208
0.999556
0.999764
0.999886
0.999955
0.999992
1.00001
1.00002
1.00002
1.00002
1.00002
1.00001
1.00001
1.00001
1.00001
1
1
1
1
1
1
1
1
1
1
1
1
1
1
1
1
1
1
1.00001
0.999937
0.999906
0.999977
1.00007
0.999908
0.99914
0.997418
0.994427
0.989771
0.982889
0.973187
0.960287
0.944131
0.924846
0.902754
0.878638
0.853816
0.829845
0.80821
0.790273
0.777335
0.77058
0.770812
0.777993
0.791185
0.809207
0.831192
0.856214
0.882604
0.908085
0.930614
0.949086
0.963405
0.974115
0.981962
0.987643
0.991705
0.994561
0.996525
0.997841
0.998698
0.99924
0.999574
0.999774
0.999891
0.999957
0.999993
1.00001
1.00002
1.00002
1.00002
1.00002
1.00001
1.00001
1.00001
1.00001
1
1
1
1
1
1
1
1
1
1
1
1
1
1
1
1
1
1
1.00003
0.99995
0.999889
0.999934
1.00004
0.999977
0.999369
0.997842
0.995073
0.9907
0.984216
0.975048
0.962803
0.947406
0.929018
0.908019
0.88518
0.861716
0.839053
0.818591
0.80163
0.789358
0.782855
0.782993
0.789935
0.802804
0.820244
0.841215
0.864828
0.889637
0.913601
0.934824
0.952236
0.965724
0.975791
0.983146
0.988456
0.992246
0.994911
0.996744
0.997974
0.998776
0.999285
0.999599
0.999788
0.999898
0.999961
0.999996
1.00001
1.00002
1.00002
1.00002
1.00002
1.00001
1.00001
1.00001
1.00001
1
1
1
1
1
1
1
1
1
1
1
1
1
1
1
1
1
1
1.00005
0.999972
0.999885
0.99989
0.999996
1.00001
0.999582
0.998299
0.995817
0.9918
0.985807
0.977312
0.965912
0.951502
0.934252
0.914577
0.893233
0.871334
0.850178
0.831086
0.815308
0.803884
0.797722
0.797727
0.804284
0.816639
0.833327
0.853135
0.875175
0.898186
0.920363
0.939988
0.956078
0.968525
0.977795
0.984553
0.989421
0.992892
0.99533
0.997009
0.998137
0.998873
0.999342
0.999631
0.999805
0.999908
0.999966
0.999998
1.00001
1.00002
1.00002
1.00002
1.00002
1.00001
1.00001
1.00001
1.00001
1
1
1
1
1
1
1
1
1
1
1
1
1
1
1
1
1
1
1.00006
1
0.999897
0.999854
0.999932
1.00001
0.999753
0.998749
0.996615
0.993022
0.987594
0.979872
0.969464
0.956233
0.940333
0.92218
0.902506
0.88233
0.862823
0.84525
0.830824
0.820407
0.814691
0.814582
0.820672
0.832341
0.848064
0.866518
0.886815
0.907846
0.928032
0.945846
0.960419
0.971669
0.98003
0.986115
0.990491
0.993609
0.995798
0.997306
0.99832
0.998984
0.999407
0.999668
0.999826
0.999919
0.999972
1
1.00002
1.00002
1.00002
1.00002
1.00002
1.00001
1.00001
1.00001
1.00001
1
1
1
1
1
1
1
1
1
1
1
1
1
1
1
1
1
1
1.00006
1.00003
0.999926
0.999838
0.999864
0.99996
0.999859
0.999147
0.997412
0.994307
0.989501
0.982616
0.973296
0.961386
0.946998
0.930527
0.912667
0.894332
0.876572
0.860618
0.847653
0.838343
0.833147
0.832975
0.838584
0.849443
0.863999
0.880896
0.899288
0.918203
0.936259
0.952124
0.965055
0.975009
0.982393
0.98776
0.991617
0.994364
0.996293
0.997622
0.998516
0.999103
0.999477
0.999709
0.999849
0.999931
0.999978
1
1.00002
1.00002
1.00002
1.00002
1.00002
1.00001
1.00001
1.00001
1.00001
1
1
1
1
1
1
1
1
1
1
1
1
1
1
1
1
1
1
1.00005
1.00005
0.999968
0.999849
0.99981
0.999882
0.999886
0.99945
0.998141
0.99558
0.991451
0.98544
0.977253
0.966737
0.953965
0.93929
0.923349
0.906935
0.890974
0.876693
0.865237
0.857056
0.852417
0.852254
0.857423
0.867399
0.880616
0.895777
0.912136
0.928847
0.9447
0.95855
0.969784
0.978402
0.984784
0.989421
0.992753
0.995125
0.996793
0.997942
0.998716
0.999224
0.999548
0.99975
0.999872
0.999944
0.999985
1.00001
1.00002
1.00002
1.00002
1.00002
1.00002
1.00001
1.00001
1.00001
1.00001
1
1
1
1
1
1
1
1
1
1
1
1
1
1
1
1
1
1
1.00003
1.00006
1.00001
0.999889
0.99979
0.9998
0.999843
0.999629
0.998736
0.996755
0.993349
0.988239
0.981193
0.972084
0.96096
0.948133
0.934171
0.91971
0.905569
0.892983
0.883023
0.875921
0.871839
0.871776
0.876577
0.885618
0.897355
0.910647
0.924898
0.93938
0.953029
0.964869
0.974418
0.981716
0.987113
0.991034
0.993856
0.995866
0.99728
0.998254
0.998911
0.999342
0.999618
0.99979
0.999895
0.999957
0.999992
1.00001
1.00002
1.00002
1.00002
1.00002
1.00002
1.00001
1.00001
1.00001
1.00001
1
1
1
1
1
1
1
1
1
1
1
1
1
1
1
1
1
1
1.00001
1.00005
1.00004
0.999945
0.999811
0.999744
0.999763
0.999684
0.999146
0.997734
0.99508
0.990898
0.984993
0.977262
0.967751
0.956762
0.944771
0.932243
0.919912
0.909017
0.900497
0.89438
0.890851
0.890987
0.895476
0.903513
0.91365
0.925001
0.937144
0.949443
0.960954
0.970859
0.978794
0.984838
0.989303
0.99255
0.994891
0.996562
0.997738
0.998549
0.999095
0.999455
0.999685
0.999829
0.999916
0.999968
0.999998
1.00001
1.00002
1.00002
1.00002
1.00002
1.00002
1.00001
1.00001
1.00001
1
1
1
1
1
1
1
1
1
1
1
1
1
1
1
1
1
1
1
0.999998
1.00003
1.00005
1
0.999868
0.99974
0.999691
0.99965
0.99936
0.998447
0.996525
0.993281
0.988513
0.982117
0.974156
0.964945
0.954854
0.944178
0.933619
0.924396
0.91722
0.911985
0.909024
0.909436
0.913598
0.920518
0.928969
0.938389
0.948511
0.958747
0.96825
0.976349
0.982791
0.987681
0.991296
0.993931
0.995835
0.997196
0.998155
0.998818
0.999264
0.999558
0.999746
0.999865
0.999937
0.99998
1
1.00002
1.00002
1.00002
1.00002
1.00002
1.00001
1.00001
1.00001
1.00001
1
1
1
1
1
1
1
1
1
1
1
1
1
1
1
1
1
1
1
0.999998
1.00001
1.00004
1.00003
0.999937
0.999791
0.99967
0.999592
0.999422
0.998874
0.997592
0.995245
0.991586
0.986477
0.980009
0.972498
0.964177
0.955232
0.946399
0.938793
0.932829
0.928386
0.926027
0.926721
0.930429
0.936094
0.942848
0.950457
0.95873
0.967081
0.974754
0.981221
0.986327
0.990194
0.993057
0.995152
0.99667
0.997758
0.998526
0.999056
0.999414
0.99965
0.999801
0.999896
0.999955
0.99999
1.00001
1.00002
1.00002
1.00002
1.00002
1.00002
1.00001