/*--------------------------------*- C++ -*----------------------------------*\
  =========                 |
  \\      /  F ield         | OpenFOAM: The Open Source CFD Toolbox
   \\    /   O peration     | Website:  https://openfoam.org
    \\  /    A nd           | Version:  6
     \\/     M anipulation  |
\*---------------------------------------------------------------------------*/
FoamFile
{
    version     2.0;
    format      ascii;
    class       surfaceScalarField;
    location    "3.2e-05";
    object      phi;
}
// * * * * * * * * * * * * * * * * * * * * * * * * * * * * * * * * * * * * * //

dimensions      [0 3 -1 0 0 0 0];

internalField   nonuniform List<scalar> 
4070
(
0.0993873
-0.0610959
0.0667697
-0.105061
-0.0712123
0.0629708
-0.0820541
0.0902956
-0.0924891
0.10072
-0.00823047
-0.0842068
0.114381
-0.0301747
-0.161095
0.093236
0.0678592
-0.000242222
-0.0705388
0.070781
-0.0974902
0.115051
-0.0175611
0.0730638
0.0301348
-0.103199
-0.0317597
0.104823
0.0644941
0.0362456
-0.10074
0.10594
-0.0414464
-0.0580646
-0.0349015
0.0929662
-0.211044
0.0499492
-0.0829728
0.113948
-0.0309748
-0.0287594
0.0285172
0.0638334
0.0380905
-0.101924
0.0266689
-0.110876
-0.145043
0.0475529
-0.08645
-0.0229448
0.109395
0.10096
-0.0045132
-0.0964467
-0.0317337
0.0955671
0.0475667
-0.105631
-0.0695462
0.100154
-0.0306079
-0.0134597
0.11442
-0.0571273
-0.0293227
0.0311094
-0.114082
-0.0812772
0.011731
0.0902357
-0.0204238
-0.0698119
0.0953404
-0.000195069
-0.0951453
-0.0500282
0.140264
0.0280442
0.0672962
0.085023
0.0252589
0.0025868
-0.112869
0.0753215
0.0265629
-0.00866718
-0.0932172
-0.000993699
0.0327967
-0.00375888
-0.0614143
-0.0296253
0.0910396
-0.105815
0.128055
-0.0222398
0.0311972
-0.0926115
-0.114146
0.027579
0.0865671
-0.0308292
-0.0833169
-0.0801222
-0.0123669
0.0613015
0.0265942
-0.0878957
-0.124893
0.0190779
0.0802667
0.010994
-0.0912607
-0.0208757
0.0821772
-0.0238167
0.104083
-0.043546
0.0732879
-0.0297419
-0.0691576
0.0256116
-0.0821571
-0.0107862
0.0929433
0.017879
-0.100036
-0.109437
0.131636
-0.0221986
0.0910047
-0.0114666
-0.0795381
0.060178
0.0248396
-0.0850176
0.0153615
0.0595401
-0.0749016
0.00864618
0.0823585
-0.0794441
-0.0299928
-0.0978561
-0.0159523
0.113808
-0.0681621
0.0879029
-0.0197408
-0.0778575
0.093219
0.0230337
-0.12089
-0.0272136
0.0873916
-0.0897988
0.0216367
-0.0710855
0.111328
-0.0402423
0.0748369
0.0319464
-0.106783
0.086601
-0.0886149
0.0020139
-0.123138
0.107022
0.0161165
-0.123451
0.0265923
0.0968584
-0.110713
-0.0124257
0.11273
-0.0224363
-0.090294
-0.0892869
0.0182013
0.0254812
0.0872491
-0.0711653
-0.0193504
0.0905156
0.0199798
-0.0911451
-0.0841945
-0.014625
0.0988195
0.0433085
-0.127503
-0.132228
0.0161196
0.116109
0.125733
-0.0943151
-0.0314177
-0.112386
0.0947377
0.0176488
-0.108779
-0.00360704
0.099039
0.0266938
-0.081192
0.121356
-0.0401636
-0.13126
0.0500684
0.0749501
-0.105364
0.0304137
0.106716
-0.0317662
-0.130552
0.138952
-0.00839957
-0.028837
0.103674
-0.0690886
0.114804
-0.0457152
0.0303352
0.0279065
-0.0582417
-0.041743
-0.0904854
-0.0818722
-0.00387868
0.0857509
-0.0357123
-0.0877383
-0.12073
0.0941679
0.026562
-0.0729308
-0.0425597
0.11549
-0.0759911
0.0979788
-0.0219876
0.1249
-0.0306373
-0.094263
0.081023
0.00557802
-0.0663253
-0.0178668
0.084192
-0.0922976
0.023209
-0.086436
-0.0342939
-0.0745744
-0.0315254
0.1061
0.126651
-0.0852795
-0.0413716
-0.117619
0.0982865
0.019333
0.123706
-0.0330568
-0.0906491
0.118514
-0.076596
-0.0419175
-0.11034
0.0343493
0.0820327
-0.100799
0.0187661
0.0773735
0.025798
-0.103172
0.0186977
0.0259451
-0.100519
0.0244944
-0.0974251
-0.0693771
0.10373
-0.0343533
0.074337
-0.102201
0.027864
0.0678549
-0.108225
0.0403702
-0.013988
0.0913615
0.0929229
0.0337283
-0.0855284
-0.0320911
0.0760313
-0.0959877
0.0199564
0.0665962
-0.0949522
0.028356
0.0266292
0.0970768
0.10317
-0.0271384
0.120569
-0.0208943
-0.0996751
0.0734384
-0.0954524
0.0220141
-0.0676699
-0.0077776
0.0754475
0.0937434
-0.0258885
0.0929906
0.0255229
0.00180867
-0.0836809
0.0830575
-0.0527222
0.00765154
0.0983271
-0.0239902
-0.122201
0.0950024
0.027199
-0.091129
-0.0310725
0.112902
-0.0690887
-0.0438133
0.0548919
0.0700084
-0.130101
0.115821
0.01428
0.125705
-0.0229075
-0.102797
0.0940797
-0.012047
-0.140314
0.0097615
0.12314
-0.0253456
-0.0977942
-0.111068
0.0416914
0.0362208
0.0843486
0.119317
-0.0458787
0.122558
-0.017393
-0.105165
0.0684454
0.0444566
-0.122
0.0212383
0.100761
0.019631
0.106073
-0.0919132
-0.0300863
0.0906679
-0.0240717
0.0285281
0.0940298
-0.0958178
-0.0342834
0.122783
-0.00990615
-0.112876
0.0250564
0.0980834
0.0632677
0.0910208
-0.154289
-0.127263
0.0244646
0.102798
-0.0788849
-0.0191479
0.0980328
0.021074
0.101709
-0.0171807
-0.110082
0.0282476
-0.107133
0.223632
-0.160364
-0.0210067
0.0283989
-0.00962114
0.0284065
0.133877
0.0566593
-0.0995152
0.20799
0.149519
-0.0389413
0.0377526
-0.0498546
0.0711919
-0.0213372
0.0200346
-0.022189
0.00215436
0.00864721
0.0298919
-0.0385391
-0.0602938
-0.165776
0.226069
0.0246647
0.100953
-0.125618
0.107839
0.0267286
-0.134568
0.0178045
-0.00162603
-0.0161785
-0.0300164
-0.100091
0.130108
0.0269526
-0.126469
0.0995161
-0.0507662
-0.139669
0.190435
0.100906
-0.042204
-0.0587023
0.0193474
0.101947
-0.121294
-0.0399505
-0.145447
0.185397
-0.128932
-0.0727274
0.20166
0.0941616
-0.117855
0.0236936
0.1054
-0.0112381
-0.144058
0.0955027
0.0485557
-0.106705
-0.0373535
0.0805977
-0.108268
0.0276706
0.10374
-0.0231419
0.028002
-0.0674932
0.0394912
-0.123846
0.0934934
0.0303523
-0.0943507
-0.029495
-0.0258964
0.0538984
0.167104
-0.019679
-0.147425
0.041651
0.125453
-0.083566
-0.0198382
0.103404
0.158092
0.0131052
-0.171197
-0.0934828
0.00991678
0.145918
-0.104704
-0.0412135
-0.180591
0.138968
0.0416226
-0.108589
-0.0720019
-0.097134
0.0312113
0.0659228
0.105994
0.0399238
-0.081912
-0.0533303
0.135242
0.079019
-0.160931
0.0259849
0.100835
-0.126819
-0.389736
0.179962
0.209774
-0.230394
0.186928
0.043466
0.0445218
-0.0975846
0.0530628
0.0347523
0.0302851
-0.0650374
-0.11672
-0.113674
-0.0114861
0.037471
-0.0251218
0.0984647
-0.0733429
0.00920902
-0.398945
0.102664
0.00568247
-0.108347
0.09351
-0.0208229
-0.0726871
0.140003
-0.105251
-0.0957436
0.037127
0.0586166
0.0385825
0.0640817
2.2121e-05
0.0934879
0.229829
-0.0960207
-0.133809
0.1918
0.0380293
0.0559915
0.104273
0.0315362
0.0202391
-0.101427
0.102426
0.0486832
0.0775106
-0.0202533
0.14189
-0.087893
-0.124148
0.0701509
-0.0941604
-0.193375
0.258776
0.117078
0.0315803
-0.121989
0.0289981
-0.072848
-0.0620597
0.10591
-0.101651
-0.0468682
0.16648
-0.0179604
0.0340578
-0.0852954
-0.0553101
0.106548
-0.0750266
-0.167851
0.207655
0.0352229
0.0397347
0.0682616
-0.00278419
-0.105212
0.0544893
-0.145719
0.00974654
0.0814831
0.050103
0.0448416
0.0167339
-0.111679
0.125214
-0.110714
-0.085712
-0.0245487
0.0400051
0.0975603
-0.113017
0.143311
0.0634843
0.0991366
0.119575
0.0366025
0.0625341
0.189049
-0.0647179
0.271818
-0.209419
0.0323393
0.17708
-0.0778171
0.244958
0.134394
-0.0315517
-0.160855
-0.0628749
-0.190817
-0.0782088
-0.222369
0.111573
-0.0518156
-0.0307593
-0.0549768
-0.134929
0.0882546
0.119503
-0.0513228
-0.034122
-0.0839729
0.161233
-0.0375253
0.0526756
-0.121035
-0.00666687
0.161714
0.0224766
-0.129701
-0.0646257
0.173709
-0.0589799
0.29599
-0.0288868
0.0596997
-0.117187
0.0329385
0.177997
-0.0849133
-0.0444005
0.0527691
-0.251376
-0.178767
0.0412461
0.0433601
0.214792
0.0125156
-0.110229
0.108515
-0.0972442
0.0818243
-0.06626
0.168731
0.0593506
-0.228082
0.218197
0.0894581
-0.307655
0.248484
-0.0533128
-0.195171
0.0222378
0.410586
-0.432824
0.194371
0.0715034
-0.265874
0.188593
0.0737529
-0.262346
0.198931
0.0236966
-0.222628
0.0886669
0.21193
-0.300597
0.040982
-0.0235797
-0.0174023
0.213858
0.0824857
-0.296344
0.152127
0.241353
-0.39348
0.199522
0.0678006
-0.267322
0.151783
0.271001
-0.422784
-0.0355363
0.0478075
-0.0122712
0.223606
0.104343
-0.327949
0.233431
0.0976539
-0.331085
0.171581
0.177875
-0.349456
0.293941
0.22326
-0.517201
0.154356
0.25199
-0.406346
0.0633937
-0.0589915
0.209456
0.176629
-0.190589
0.165744
0.241259
0.0740667
-0.16097
0.0614155
-0.0831511
0.190467
0.204774
-0.205464
-0.186088
0.300455
0.0534813
-0.0558703
0.220586
0.213041
0.073776
-0.286817
0.0858392
0.311327
-0.397166
0.103979
0.190621
-0.0235991
0.00157025
0.169099
0.0778149
-0.0653003
0.0615957
0.198075
0.222428
-0.199781
0.0488568
-0.256599
-0.0772933
0.280579
0.297329
-0.257387
-0.0177044
0.209299
-0.192287
0.0724461
0.190323
0.269062
-0.0487997
-0.0310716
-0.00487518
0.234878
0.0623305
-0.0671659
0.193428
0.208461
0.0613047
-0.196013
0.207991
0.0685218
-0.187846
0.0514625
-0.0575967
0.218065
0.157354
0.0817114
-0.215369
-0.0261367
0.19288
-0.0614625
0.0536328
0.207352
0.329868
0.0532271
-0.230968
0.173088
0.0824645
-0.19748
0.210719
0.069247
0.050988
0.213963
-0.041345
0.178689
0.267322
-0.446012
0.210723
0.111517
0.177387
0.239331
-0.416718
0.0127922
0.167066
0.114083
0.0526981
0.175832
-0.22853
-0.00799271
-0.25625
0.167921
0.0963213
0.0466732
0.238833
-0.0520757
-0.200872
0.195055
0.0736178
-0.0955213
0.122939
-0.0629542
0.132577
0.230566
-0.185268
0.201714
0.068574
-0.184449
-0.0725196
-0.108771
0.181291
0.210186
-0.131489
0.144563
0.0157106
0.265861
-0.281572
0.0171601
-0.137758
0.120597
0.148827
0.315709
-0.464536
0.0674927
0.197237
-0.0516882
0.213102
0.0699851
-0.283087
0.123791
0.294141
-0.417931
0.161102
0.278738
-0.43984
0.206132
0.0627744
-0.19513
0.0413164
0.111002
-0.159617
0.00729861
0.163564
0.0130652
-0.01461
0.261961
-0.247351
0.075672
0.217045
-0.292717
0.0337998
0.322261
-0.0447344
0.197674
-0.15973
-0.0222335
0.233959
-0.0503993
-0.183559
0.203569
-0.212244
0.200012
0.0568228
-0.181163
-0.247033
0.0228355
0.272005
-0.188905
0.203657
0.0895907
0.207605
0.0825891
-0.112807
-0.0662785
-0.113366
0.179644
-0.260873
0.252881
0.210538
0.0872679
-0.297806
-0.205292
0.222452
0.16153
0.0226573
-0.085572
0.0629147
0.199828
0.0930493
-0.195224
-0.0216912
0.225132
0.0624203
0.267543
0.123168
0.16958
-0.025425
0.0988006
0.142459
-0.049465
0.092461
0.196335
-0.149256
0.21265
0.450534
-0.379066
-0.0714672
-0.1621
0.266108
-0.0868483
0.124037
0.190015
-0.165226
0.193609
-0.186622
-0.0215974
0.00751908
-0.165401
0.157882
0.168551
-0.208712
0.0401613
0.30314
-0.0373174
-0.265823
0.0454319
0.201206
-0.0708058
-0.0683614
-0.113765
0.182127
0.171492
0.0302216
0.00217304
-0.258423
0.165096
0.0591086
-0.0478562
-0.176348
-0.0962302
-0.0628312
0.159061
-0.203549
-0.023108
0.0888994
0.145831
-0.200487
-0.0745717
0.186732
0.268867
-0.0711934
0.0926058
0.0724897
0.286761
-0.0192182
0.273066
-0.0838255
0.0727208
0.198198
-0.165132
0.0907251
-0.0592391
-0.137904
0.197143
0.283177
0.0397885
-0.161864
0.0607782
-0.0542012
0.206525
0.221658
-0.0669228
0.0530956
-0.146893
0.214385
0.0788466
0.243262
-0.322109
0.112613
-0.176492
-0.147412
0.145451
0.206866
-0.455619
-0.116291
0.571911
-0.143999
0.103782
-0.153892
0.0501096
-0.295001
0.146162
-0.194716
0.297146
0.192984
-0.180804
0.0666665
-0.114253
0.124235
-0.163874
-0.409255
0.125913
-0.130942
0.00502976
-0.025778
0.0793464
0.258143
-0.199034
0.041977
-0.058639
0.233707
-0.186774
-0.0853247
0.186085
0.0860137
-0.0458346
0.0324731
0.2239
-0.224562
0.0546268
0.169935
-0.102638
0.188466
0.0619765
-0.147805
-0.129517
0.0288443
0.100672
-0.0623138
0.161114
0.173549
-0.174714
0.110263
-0.130549
-0.340516
0.471064
-0.255029
-0.248529
0.196564
0.0519648
-0.0895651
0.258664
0.13745
0.0710111
-0.139276
-0.16162
0.268977
-0.21133
-0.0576471
-0.140825
-0.00426647
-0.0772101
-0.0998615
0.177072
-0.0638283
0.145711
-0.0818828
0.294309
-0.29055
-0.00375866
0.247176
-0.200262
0.0305776
0.169684
0.145369
0.210156
0.0748319
-0.284988
0.0558623
0.152445
-0.208307
0.111137
0.0733074
0.047005
0.151155
-0.19816
-0.144797
0.0755866
0.191752
-0.180071
0.0708372
0.124178
-0.195016
0.318457
0.0552153
0.350431
-0.0640594
-0.286372
-0.147885
0.201518
0.243555
-0.0499461
-0.0471698
-0.170408
0.217578
0.155618
0.0545671
-0.367484
0.264846
-0.176622
0.0178058
0.158816
0.113991
0.172747
-0.0347472
0.174076
0.0403096
0.322684
0.205383
-0.198484
0.0630857
0.0576361
0.24957
0.163231
0.0297536
-0.329524
0.340738
-0.0112143
0.225342
-0.310667
-0.186479
0.12173
0.104002
0.224187
-0.32819
0.300247
-0.221384
-0.0788629
0.0619486
0.216256
-0.0680486
0.0108563
0.13244
-0.228868
0.150639
0.0475591
0.245496
-0.20418
0.200076
0.129792
-0.132766
-0.00440832
0.137175
-0.0371624
0.105853
0.207158
-0.155049
-0.0521083
-0.0150889
0.304021
-0.0549732
0.141047
-0.117379
-0.0502787
0.167657
0.191138
0.0313137
-0.186854
0.0727096
0.114145
-0.0272233
0.248881
-0.174144
0.0490336
0.217716
-0.0493325
0.257315
-0.207983
-0.14025
-0.0226597
0.16291
0.195809
0.314306
-0.00850617
-0.0973806
0.368475
-0.271094
-0.241535
0.324787
-0.0832522
-0.172537
0.0693776
0.207162
0.385586
-0.13841
-0.200658
0.173435
0.247492
-0.262581
0.11076
-0.0579117
-0.0158829
0.186616
-0.170734
-0.10173
0.110603
-0.138389
-0.280759
0.237033
0.0437262
-0.23708
-0.0102714
-0.0187615
-0.239958
0.0779149
-0.18751
0.175727
-0.147787
0.198775
-0.0560916
-0.149112
0.205204
-0.340347
0.376674
-0.0363268
-0.140064
0.0328384
-0.194938
-0.0268133
-0.149808
-0.121616
-0.117661
-0.00396839
0.12163
0.169169
-0.0963289
-0.0728405
0.252536
-0.057536
-0.126399
-0.0615441
-0.188326
0.0619267
-0.241319
-0.00923218
-0.16818
-0.188221
0.168075
0.0804625
-0.0465978
0.190323
-0.409499
0.0803125
0.195435
-0.0324851
-0.210433
-0.0422176
0.225837
-0.0932426
0.0693468
0.241246
-0.0385635
0.0899431
0.182404
0.347144
0.083999
-0.207634
-0.0633979
0.276349
-0.00531772
0.153843
-0.0952238
0.10429
0.139417
0.00297868
-0.142396
0.208718
0.018761
-0.227479
0.0763028
0.0526408
-0.128944
-0.36232
-0.0725405
0.370426
-0.297885
-0.153308
0.233771
-0.0950469
0.167537
-0.152064
-0.0583691
0.218046
-0.23184
0.0503599
-0.0298498
-0.245307
-0.268846
0.210889
0.0579573
0.155552
0.043832
-0.199384
0.107246
-0.0520813
0.222491
-0.240466
0.0179759
-0.0372667
0.256802
-0.219535
-0.221877
-0.0355405
0.232045
-0.250807
-0.270819
0.00197306
-0.0683564
0.353767
-0.28541
0.256449
-0.0479496
0.167786
-0.138517
0.36868
0.27737
-0.00232808
-0.275042
-0.270839
0.249737
0.0499463
0.18799
-0.243271
-0.0068417
0.234173
-0.227331
-0.0722448
0.161914
-0.0896697
-0.147098
-0.0371923
0.18429
0.243543
0.353353
-0.117693
-0.235659
0.216706
0.127734
-0.19861
0.266615
-0.142232
-0.224588
0.145804
0.0787845
-0.0923187
-0.0799194
0.172238
0.266739
-0.0102895
-0.075235
-0.0482039
0.123439
0.208275
0.150483
-0.0438736
-0.106609
-0.0496652
0.293208
-0.241961
0.141154
0.100807
0.341726
-0.0861021
-0.255624
-0.0442094
0.157426
0.0768098
0.0341925
0.155755
0.0588538
-0.214608
0.241026
-0.0852713
0.138203
-0.233724
0.0929472
-0.211231
0.184712
0.0726032
-0.270928
0.115496
0.155432
0.262801
-0.0500324
-0.212768
-0.148238
0.197272
-0.252983
0.248946
0.00403718
-0.150336
-0.159488
0.12297
0.0448164
0.273099
-0.317916
0.243244
-0.0922186
-0.151026
-0.208316
0.0580687
0.150247
-0.114694
-0.0853525
0.124811
-0.0924777
0.065292
0.238075
0.221378
-0.0927524
-0.186273
0.150411
0.102076
0.141168
-0.183846
-0.0466642
0.347368
-0.237518
-0.10985
0.392174
-0.149261
-0.242914
0.0738329
0.125113
-0.198946
0.282522
0.0321128
-0.314635
-0.271698
0.0778341
0.193864
0.22241
0.0571539
0.0538539
-0.147538
0.0578456
0.253683
-0.201919
-0.0517642
-0.13715
0.343241
-0.12112
0.0366898
0.185029
-0.221718
-0.158055
0.0946568
0.230021
-0.325245
0.126221
-0.129383
0.00316193
0.208852
-0.0900639
-0.051661
-0.163146
0.214807
-0.107769
-0.254772
0.362542
0.127122
0.0852599
-0.0834088
0.0933704
0.227072
0.15093
0.036658
-0.187588
-0.258626
-0.0341388
0.292764
-0.0174672
0.251854
-0.237962
-0.0138918
0.172835
-0.217114
0.103132
0.0376123
-0.041893
-0.199494
-0.280005
0.0974271
0.182578
-0.209321
0.0549745
-0.0444663
0.198812
-0.144261
-0.0650598
0.189028
0.273931
-0.0324065
-0.241525
0.0585086
0.277189
-0.284726
0.00753719
-0.352852
0.202147
0.150705
-0.178673
-0.0822006
-0.0548534
-0.162292
-0.101183
-0.295982
0.24235
-0.175684
-0.14862
-0.0533471
0.201968
-0.289492
0.195921
-0.258817
-0.167304
-0.0457504
0.213054
-0.188825
0.237941
-0.143559
0.0361921
-0.211188
-0.0576717
-0.278446
0.214275
-0.225883
0.182243
0.0436398
0.0914049
0.133727
0.146816
0.0621241
0.141067
-0.0131703
0.249053
0.20759
0.0414627
-0.0783693
0.0585656
0.166607
-0.0255394
0.277412
0.0967844
-0.200086
0.0651566
-0.0641542
-0.141891
-0.0581947
-0.0486689
0.183763
-0.042676
0.210382
-0.167706
-0.183287
0.0548637
0.193123
-0.0646996
-0.209388
0.189819
-0.0286351
-0.233001
-0.0905764
0.21665
-0.253705
0.191133
0.227493
-0.158717
-0.0687762
0.0183911
-0.268239
0.249848
-0.28064
0.11081
-0.00345133
0.112377
0.125564
0.289732
-0.273331
-0.0164004
-0.325924
0.252413
0.185888
0.175743
-0.202445
0.108875
-0.200532
-0.067707
0.138581
-0.0546588
0.25082
-0.175094
-0.0467126
0.221807
-0.147232
0.202308
-0.0550759
-0.0696337
0.205305
-0.196216
-0.245191
0.0512167
0.193974
-0.245585
0.157687
0.226478
-0.216865
-0.173185
-0.0307985
-0.190216
0.0504161
-0.194677
0.147354
-0.18714
0.0397858
0.0731411
0.199163
-0.0699965
-0.204141
0.0643413
0.259918
0.192565
-0.126007
-0.0686697
-0.203928
0.148852
-0.205259
-0.0665582
0.0676764
-0.232382
-0.0132027
-0.0565733
0.242639
-0.0513741
-0.191265
0.1683
-0.0771231
-0.0911769
-0.0737473
-0.157096
0.123507
-0.0609727
-0.143759
0.11822
0.252718
0.0586475
-0.160661
-0.268816
-0.0399895
0.276191
-0.0367224
-0.239469
-0.189011
0.200114
-0.183776
0.102377
0.249699
-0.246351
0.0504885
-0.295074
0.333632
-0.038558
-0.166329
0.202186
-0.0554223
0.0537218
-0.200486
-0.15965
-0.0618089
0.0805643
-0.14616
-0.0561674
0.202327
0.43544
-0.155319
-0.280121
0.0560264
0.057012
-0.198903
-0.126516
-0.263195
0.0794187
-0.181195
0.0531611
-0.157541
0.187217
-0.192547
0.0683646
-0.210034
-0.212878
-0.0398278
-0.182541
-0.0651159
0.196166
0.166624
-0.208908
0.0324085
0.00878634
0.155102
-0.163889
-0.159355
0.232032
-0.129654
0.297592
-0.0804983
-0.217093
0.132269
0.180323
-0.229894
0.0495709
-0.20875
0.0621724
-0.0650102
0.211588
-0.10883
0.1384
-0.24013
0.267899
-0.199325
0.218591
-0.21325
0.22994
-0.0166904
0.0598402
-0.243128
0.159167
-0.168753
0.00958607
0.141458
0.140042
-0.198237
-0.0864039
-0.261056
-0.00565409
0.184509
0.15683
-0.178329
0.0214991
0.143447
-0.02285
0.126203
-0.303006
0.0487704
0.254187
-0.0561126
-0.198074
0.0424526
0.205431
-0.11602
-0.0894115
-0.0779129
0.186839
-0.152367
-0.0344722
0.195998
-0.187813
0.0308625
-0.0390471
0.00117577
-0.0953741
0.252204
-0.0445419
-0.141308
0.204649
-0.0633415
-0.158374
0.152288
0.00608631
0.0439555
-0.065341
0.208224
-0.149653
-0.258208
-0.199401
0.0104487
0.268804
0.205968
-0.0481007
-0.21678
0.380657
-0.275998
-0.104659
0.162802
0.0256638
0.332401
-0.238827
-0.0935738
-0.120758
0.182416
-0.0616582
-0.240207
0.173956
-0.0291239
0.246436
-0.194072
-0.0523644
-0.166396
-0.0329878
0.102578
0.143858
0.237185
-0.232893
-0.00429127
-0.203307
-0.0646935
0.268
-0.143946
0.19881
-0.223763
-0.0691416
-0.0769603
0.190659
-0.19996
0.201377
-0.243595
-0.14045
0.13358
-0.171458
-0.140262
-0.222846
0.0747972
0.239649
-0.157584
-0.0640703
0.240435
-0.114161
-0.126274
-0.156166
0.257379
-0.133818
-0.293258
0.427076
-0.226703
0.144663
0.140977
-0.00690229
0.2342
-0.0907524
-0.338409
0.035403
-0.0699411
0.193359
-0.198575
-0.235349
-0.135043
-0.0743447
0.055404
-0.265405
0.210001
-0.0569782
0.184542
-0.0574936
0.191147
-0.195007
0.0613533
-0.121629
-0.154894
0.175008
-0.12375
-0.022464
0.174843
0.0414852
-0.0771842
0.0463834
0.221124
-0.144818
0.008511
-0.166378
0.193608
0.0605785
0.0608662
0.179569
-0.235842
0.19295
0.0428925
-0.100508
0.423192
0.191524
-0.280786
0.297772
-0.0169855
-0.217984
0.22114
-0.160274
0.263617
0.0103142
-0.181121
0.246164
-0.0501659
0.144671
-0.202164
-0.00475607
0.130959
0.0700393
0.204016
-0.199223
0.107147
-0.0545093
0.195968
-0.163849
-0.0507591
-0.080615
0.0226427
-0.283698
-0.194567
-0.0485606
-0.220113
0.198627
0.115677
-0.183333
0.0676558
0.152775
-0.219357
0.0665817
-0.224151
0.542608
0.164722
-0.0233323
-0.252328
0.200625
0.0517027
-0.286549
0.0731536
0.213395
-0.0449184
-0.241631
0.0393352
0.112676
-0.152011
-0.265763
0.286636
-0.0208724
-0.0588576
-0.19347
-0.159785
-0.105978
-0.129853
0.108744
0.236185
-0.18309
-0.060036
0.189856
0.0663384
-0.196159
0.216138
0.0854853
-0.260126
0.174641
0.412775
-0.159894
-0.0131937
0.165481
0.211307
-0.135227
-0.279814
0.413393
0.147527
0.134306
-0.127378
0.0691298
0.147379
-0.207415
0.0715837
-0.12955
0.237535
0.0479866
0.149285
0.314795
-0.325236
0.0959258
-0.211792
-0.100635
0.169875
-0.0692399
0.303038
-0.0640715
0.280778
-0.120188
-0.247296
-0.263635
0.257981
-0.281714
0.112556
0.0965647
0.207456
0.180478
-0.105764
0.113654
-0.188368
0.195097
0.224282
-0.0724168
0.112861
0.231724
0.0893612
-0.247838
0.22086
-0.173369
-0.0474908
0.0216462
-0.0527822
0.190909
-0.0631749
-0.0937899
-0.287173
0.0156943
-0.261185
-0.00928137
0.216546
-0.0314063
0.198702
-0.256775
-0.310898
0.236324
-0.0519962
-0.183846
0.00203093
0.221562
0.154536
0.0965238
-0.25106
0.199992
-0.208498
-0.306792
0.261874
-0.00283516
0.259546
-0.0664229
0.188845
-0.250756
0.0619111
0.160838
-0.184234
0.0233965
0.190004
-0.173661
0.020315
0.259976
-0.115483
-0.144493
-0.262626
-0.0303817
0.158696
-0.18093
-0.315351
0.106601
0.211763
-0.149815
-0.0870126
-0.278878
-0.0261881
0.178963
0.159831
0.103844
0.240213
-0.0298402
-0.236547
-0.0656552
0.087633
0.214569
-0.0328103
-0.257739
0.185323
-0.138693
0.044903
-0.119398
-0.198199
0.0765309
0.241066
0.235826
0.00908193
-0.244908
-0.248948
-0.0265861
-0.0398925
-0.127593
-0.0907419
0.25158
0.168589
-0.0752188
-0.055302
-0.0318397
0.0826692
-0.0949404
0.257411
-0.176335
0.241759
-0.065424
0.189148
-0.00309327
-0.186055
0.0153198
0.153978
0.0264994
-0.14167
0.157364
0.258648
-0.201182
-0.057466
0.248569
-0.182593
-0.0459374
-0.243723
0.05505
0.188673
-0.0440427
0.0870797
-0.272361
0.229324
-0.0145227
-0.2292
-0.309785
0.192334
0.11745
-0.125525
-0.146388
0.0686061
-0.085039
0.197
-0.0402887
0.200617
0.0610682
-0.246674
0.0588476
0.187827
-0.231354
0.0410571
-0.0521214
-0.190855
-0.254934
0.0597145
0.195219
-0.0553209
0.0603294
-0.0984201
0.0854825
-0.170396
-0.247882
0.0346324
0.15967
0.0278153
-0.187485
-0.0916197
0.25129
-0.126353
0.221647
0.190182
-0.0148262
-0.25402
0.124198
0.255113
-0.198881
-0.056232
0.199635
0.0554778
0.245929
-0.0710861
0.22115
0.0388263
0.141839
-0.229815
-0.256884
0.212841
0.020269
-0.00982031
-0.227764
0.179663
0.0524327
-0.0321637
-0.258796
0.252187
0.00660864
-0.213048
-0.214204
0.169454
0.0447504
-0.0425509
-0.185213
0.197782
-0.146392
-0.0513907
-0.192364
0.0911004
0.101264
-0.260822
0.19158
-0.245787
0.204398
-0.197736
0.0574251
-0.182951
0.114465
-0.347465
0.14787
-0.167382
0.283317
-0.260482
-0.217229
0.0663222
-0.0593088
-0.169435
0.255614
-0.176775
-0.0788391
0.153031
-0.0677706
-0.327181
0.0508591
-0.203226
0.0463968
0.165367
-0.15483
0.392146
-0.237315
-0.0572713
0.183591
-0.190053
0.247206
0.00683409
-0.269415
-0.095292
-0.220059
-0.199523
0.0578527
0.0805413
0.125602
0.224304
-0.180348
-0.128607
0.165951
0.192217
-0.104714
-0.0699886
-0.214999
0.288576
-0.270579
0.0773098
0.156742
-0.234052
0.25769
-0.152571
-0.267397
0.219583
0.106661
0.315892
-0.294877
-0.0210159
-0.0664946
0.204011
-0.176556
0.189181
-0.0398961
-0.199883
-0.0550508
-0.137772
-0.31336
0.188591
-0.0208485
-0.244608
0.0768655
-0.0548916
0.246039
0.0225567
0.1742
0.22927
-0.335034
0.000637437
-0.241179
-0.0456864
0.235543
-0.0602431
-0.0776764
-0.330254
0.31656
0.148859
-0.206994
0.0581351
-0.209608
0.0569304
0.209841
-0.0614238
-0.0882462
0.247365
-0.159119
-0.207548
-0.00277088
-0.1924
0.0609258
-0.196153
-0.0529607
0.214016
-0.0666371
0.148412
-0.077514
-0.144132
0.206305
0.391839
-0.103263
0.230139
-0.278103
0.0479643
0.185761
-0.263054
-0.179225
0.0630755
-0.2423
-0.193824
-0.20204
0.263345
-0.105648
-0.170175
0.24799
0.00751093
-0.162664
-0.0597664
0.198356
0.0620354
-0.253577
0.0515372
-0.113307
0.105558
-0.152223
-0.205627
-0.110237
-0.200111
-0.0534659
0.0480662
0.211009
0.25344
-0.191252
-0.0621878
0.111684
-0.114455
-0.128674
0.219307
-0.0906329
0.17389
-0.120663
0.0596163
0.28149
-0.0652344
0.115601
0.160961
-0.0551934
-0.251965
0.0554392
0.196526
-0.19583
-0.056135
-0.235373
-0.0957119
-0.282727
0.178148
-0.264733
0.114397
-0.103637
0.23391
0.254838
-0.00747275
-0.15094
-0.0891157
-0.0196907
-0.108916
-0.253721
0.0563749
0.197346
-0.195353
-0.0583685
-0.0615524
-0.0794593
0.141012
-0.0738904
0.200561
0.252961
-0.0428013
-0.21016
-0.0313133
0.293726
0.20107
-0.269293
-0.075758
0.216933
-0.078915
-0.176218
-0.0839086
0.231476
-0.248166
-0.00600678
0.22713
-0.405797
0.277122
0.247319
-0.204426
0.0155425
-0.136294
-0.179391
0.0604097
0.264084
-0.236861
0.0783373
0.223729
-0.190596
-0.0883834
0.070997
-0.308231
0.300026
0.0147691
-0.0551613
-0.0168898
-0.309201
-0.0160343
-0.0434443
0.257407
0.150956
-0.0439271
0.240391
-0.0894351
-0.0612208
0.0619482
0.198908
0.198229
-0.246358
0.0945992
-0.417026
0.322427
0.0402817
-0.250864
0.220169
0.0263761
-0.298737
-0.252611
0.0469846
-0.263366
0.111005
0.208878
-0.150768
0.139551
0.0885276
-0.00377902
-0.0783868
0.154875
-0.241823
0.051226
-0.191065
-0.0599948
0.189413
-0.062576
0.340805
-0.0420132
-0.298792
0.227973
-0.197111
-0.0572689
0.0469156
0.0103533
-0.255584
0.189928
-0.0571212
0.205981
0.0430642
0.167127
-0.041602
-0.0800627
-0.257796
0.0595978
0.187656
-0.190081
0.0471571
-0.221764
0.276814
-0.160958
0.0307222
-0.278604
-0.157782
0.179837
-0.0822503
0.164743
0.0726099
0.018312
0.0734692
-0.162394
-0.172805
-0.284541
0.0491682
-0.11176
-0.178873
0.210281
-0.171885
0.0682062
0.00957773
0.215162
-0.254058
0.131635
0.122423
-0.311852
0.11667
-0.394487
-0.256322
0.28209
-0.0257678
-0.194549
-0.0547008
0.0500762
-0.140317
0.132599
-0.147685
0.187967
-0.266305
0.238187
0.0281171
0.163576
-0.0431403
-0.223164
-0.147502
-0.1507
0.0912079
0.066148
0.0525769
-0.252139
0.199562
0.247369
-0.086408
0.177213
-0.140518
0.144369
0.146839
-0.178608
-0.156775
0.392035
-0.134054
0.0269955
0.169754
0.142894
-0.0405089
-0.166243
-0.0610403
0.19727
-0.00665999
0.20975
-0.201858
-0.146836
0.110773
-0.172435
-0.196886
0.195642
0.00305553
-0.184537
0.0185772
0.16596
0.113157
0.144867
0.072503
0.142978
-0.225228
-0.0458874
0.214217
0.310269
0.121861
-0.179169
-0.251718
0.193162
0.0585559
-0.262242
0.0660832
0.24521
-0.191711
-0.0534984
-0.147049
-0.259297
-0.22229
0.218511
0.199095
-0.274853
0.225869
-0.205554
-0.045881
0.201999
0.141414
-0.107222
-0.0569976
0.190081
0.170367
-0.119262
-0.068297
-0.0719076
0.306999
-0.0239238
-0.237875
-0.10329
0.0986314
0.130879
-0.140401
0.23162
0.0974541
-0.044822
-0.0282534
-0.187686
0.0400014
-0.00497763
-0.12611
0.0892436
0.189662
0.269704
0.215117
0.0670226
0.0751558
0.0585166
0.107674
-0.0309643
-0.111677
0.0813552
0.18784
0.113755
-0.16647
0.25555
0.19464
0.0513994
-0.0182957
0.243061
0.198617
-0.198227
0.0570911
0.0560401
-0.257222
-0.0993336
-0.2357
0.244644
0.231583
0.0656704
0.046417
-0.0166445
0.0659225
0.181446
-0.0418146
0.0688334
-0.206118
-0.25557
0.234722
-0.212534
0.235091
-0.154111
0.269285
-0.259772
0.286711
-0.0189465
-0.178778
-0.00809776
-0.0075962
0.0495226
-0.189608
0.0688752
-0.139621
-0.161224
0.00212001
-0.284617
0.282497
0.255303
-0.212239
0.205945
-0.039364
0.152694
-0.255984
-0.10554
0.232425
0.151605
-0.1934
0.289001
-0.207338
0.204409
0.158534
0.0541158
-0.270252
-0.180167
0.210417
0.0398662
-0.0826485
-0.193946
0.195271
-0.103299
0.0133445
-0.185546
0.260722
-0.0728823
-0.101793
-0.470118
-0.365525
0.0545096
-0.202318
0.0920554
-0.257628
-0.251074
0.409499
0.0729323
-0.202206
0.0838347
0.0656844
-0.201074
-0.201967
0.237571
-0.189863
0.106473
0.037736
-0.128613
-0.103294
-0.0449865
0.270861
-0.348375
-0.107481
0.262356
0.159948
-0.278634
0.250322
0.171542
0.21492
-0.12895
-0.0687682
-0.381765
0.248573
0.211914
-0.255358
0.227679
0.24161
-0.00715267
-0.152557
0.159709
-0.349438
0.244724
-0.0355193
0.02716
-0.0671967
-0.260298
0.256524
-0.250757
0.0910131
0.214058
-0.118309
-0.0725582
0.212662
-0.243272
0.332997
0.222433
0.0616526
-0.217807
0.208731
0.181329
-0.20349
-0.0486486
0.126372
-0.00829113
-0.124669
0.213609
-0.205019
0.109647
0.114494
-0.165107
0.0459356
-0.0444851
-0.197717
0.308747
0.141692
0.0598261
0.10217
-0.0345216
0.0989812
-0.0087825
-0.0686071
0.208002
0.0936464
0.235135
0.152459
-0.2474
0.181973
-0.190013
-0.0717971
-0.112791
0.0638502
-0.0340088
-0.130349
-0.207589
0.0617713
0.258742
-0.13237
-0.00404003
-0.151595
-0.157343
0.102118
-0.224895
0.265652
-0.201802
-0.210119
0.244203
-0.350148
0.09113
-0.201198
-0.24383
-0.105608
-0.20256
-0.0581819
0.0594467
0.201295
0.0909856
-0.123397
-0.211784
-0.19557
-0.250683
0.0481233
0.185314
-0.0209946
-0.202877
-0.0526933
0.0664917
0.203765
-0.112635
-0.0756088
-0.265944
0.0537051
0.193709
-0.0156271
0.0295809
0.198042
-0.0212175
-0.190442
-0.0426814
-0.0121837
0.0681279
-0.0159822
0.0812985
0.177443
-0.0108885
0.183758
-0.21539
0.0625465
-0.173623
0.106616
0.27847
0.17894
-0.041977
0.226411
0.133357
0.175019
-0.0145659
0.0165161
0.0831027
-0.0592724
-0.0533066
0.336417
-0.0658976
0.221994
0.419212
0.0725288
-0.178604
-0.0667892
0.0983695
-0.126127
-0.0672472
0.131349
-0.0746893
-0.091911
-0.116918
-0.0577415
-0.066406
-0.0132197
-0.147545
0.153227
0.038794
0.0387166
-0.0918874
0.24998
0.10471
-0.125533
0.129672
0.0149709
-0.12356
-0.0546888
-0.0334532
-0.0636808
0.0439604
0.00665195
-0.123372
-0.00377975
-0.0919638
0.0241679
-0.128872
0.0348083
-0.0171226
0.0961417
-0.112314
0.0864179
0.0410619
-0.0365026
-0.163805
0.0180865
-0.0450635
0.0253844
-0.0767108
0.0939233
-0.0172125
-0.0919316
0.0369642
0.0684355
0.0342951
0.0694445
0.113732
0.0357335
0.00427163
0.102575
-0.00707271
0.0297274
-0.0602872
0.0284371
0.0869528
-0.0710144
-0.163364
0.102582
-0.105327
-0.0384687
-0.0547278
0.0541886
-0.0518295
0.0604037
0.0343212
0.0966126
-0.0754225
0.0487856
0.126359
-0.118689
0.106782
0.00129454
-0.19999
-0.11486
0.0245885
0.0724552
0.0224866
0.0933173
0.042208
0.0788733
-0.0804754
-0.127491
0.114417
-0.134077
0.131819
0.0881334
0.0799907
-0.0847049
0.0422683
0.0687227
0.0123612