/*--------------------------------*- C++ -*----------------------------------*\
  =========                 |
  \\      /  F ield         | OpenFOAM: The Open Source CFD Toolbox
   \\    /   O peration     | Website:  https://openfoam.org
    \\  /    A nd           | Version:  6
     \\/     M anipulation  |
\*---------------------------------------------------------------------------*/
FoamFile
{
    version     2.0;
    format      ascii;
    class       volScalarField;
    location    "3.17";
    object      p;
}
// * * * * * * * * * * * * * * * * * * * * * * * * * * * * * * * * * * * * * //

dimensions      [1 -1 -2 0 0 0 0];

internalField   nonuniform List<scalar> 
5625
(
1.03477
1.02773
1.01945
1.01046
1.0012
0.991963
0.982914
0.974066
0.965303
0.956382
0.946972
0.936759
0.925519
0.913195
0.900053
0.886664
0.873664
0.861716
0.851615
0.844135
0.839789
0.838845
0.841432
0.847404
0.856222
0.867181
0.879605
0.892774
0.905887
0.918321
0.929873
0.940639
0.950744
0.960271
0.969384
0.978427
0.98782
0.997824
1.0083
1.01866
1.02797
1.03522
1.03966
1.04102
1.03954
1.03589
1.03091
1.02545
1.02014
1.01541
1.01144
1.00829
1.00588
1.00409
1.00281
1.00192
1.0013
1.00088
1.0006
1.00041
1.00028
1.0002
1.00014
1.0001
1.00007
1.00005
1.00004
1.00003
1.00002
1.00001
1.00001
1.00001
1
1
1
1.03709
1.03086
1.02322
1.01473
1.00583
0.996889
0.988105
0.979573
0.971275
0.963073
0.954733
0.946021
0.936751
0.926848
0.91647
0.905978
0.895785
0.886398
0.878458
0.872563
0.869074
0.868202
0.870082
0.874591
0.881302
0.889703
0.899316
0.909591
0.919926
0.929913
0.939477
0.948715
0.957683
0.966394
0.974968
0.983702
0.992925
1.00275
1.01291
1.02268
1.03113
1.03731
1.04062
1.04094
1.03864
1.03447
1.02927
1.02381
1.01866
1.01416
1.01046
1.00754
1.00533
1.00371
1.00255
1.00174
1.00118
1.00081
1.00055
1.00038
1.00027
1.00019
1.00013
1.0001
1.00007
1.00005
1.00003
1.00002
1.00002
1.00001
1.00001
1.00001
1
1
1
1.03917
1.03384
1.02696
1.01905
1.01059
1.00198
0.993477
0.985224
0.977285
0.969597
0.962028
0.954429
0.946648
0.938587
0.930327
0.922079
0.914111
0.9068
0.900635
0.896028
0.893222
0.89241
0.893723
0.897053
0.902076
0.908455
0.915864
0.923884
0.932077
0.940203
0.948279
0.956377
0.964482
0.972567
0.980733
0.98923
0.998288
1.00789
1.01761
1.02666
1.03411
1.03911
1.04122
1.0405
1.03744
1.03283
1.02748
1.02209
1.01715
1.01291
1.00947
1.0068
1.00479
1.00333
1.00229
1.00156
1.00107
1.00073
1.00051
1.00035
1.00025
1.00018
1.00013
1.00009
1.00007
1.00005
1.00003
1.00002
1.00002
1.00001
1.00001
1.00001
1
1
1
1.04091
1.0366
1.03056
1.02334
1.01542
1.0072
0.998998
0.991018
0.983369
0.97606
0.969039
0.962228
0.955495
0.948753
0.942042
0.935483
0.929223
0.923527
0.918738
0.91512
0.912849
0.912108
0.913009
0.915439
0.919175
0.924028
0.929778
0.936106
0.942713
0.949494
0.956501
0.963768
0.971229
0.978839
0.986694
0.994996
1.00387
1.01315
1.0223
1.03048
1.03678
1.04051
1.04141
1.03968
1.03594
1.03098
1.02556
1.02031
1.01562
1.01167
1.00851
1.00608
1.00427
1.00296
1.00204
1.0014
1.00096
1.00066
1.00046
1.00032
1.00023
1.00017
1.00012
1.00009
1.00006
1.00004
1.00003
1.00002
1.00002
1.00001
1.00001
1
1
1
1
1.04221
1.03901
1.03394
1.02751
1.02022
1.01248
1.00464
0.996943
0.989554
0.982539
0.975908
0.969622
0.963589
0.957759
0.952155
0.94681
0.941787
0.937274
0.933505
0.930629
0.92878
0.928129
0.928745
0.930521
0.933325
0.937077
0.94163
0.946737
0.952221
0.95807
0.964344
0.971018
0.977999
0.985246
0.992853
1.00097
1.0096
1.01845
1.02687
1.03401
1.03904
1.04143
1.04112
1.03846
1.03413
1.02893
1.02354
1.01849
1.01408
1.01045
1.00758
1.00539
1.00378
1.00262
1.00181
1.00124
1.00086
1.0006
1.00042
1.0003
1.00021
1.00015
1.00011
1.00008
1.00006
1.00004
1.00003
1.00002
1.00002
1.00001
1.00001
1
1
1
1
1.04297
1.04097
1.03698
1.03145
1.02489
1.01773
1.01033
1.00297
0.995841
0.989073
0.982725
0.976791
0.971227
0.966019
0.961161
0.956625
0.952449
0.948777
0.945742
0.94341
0.94189
0.941328
0.941751
0.943071
0.945242
0.948245
0.951968
0.956235
0.960964
0.966199
0.971978
0.978229
0.984846
0.991804
0.999193
1.00709
1.01539
1.02365
1.03117
1.0371
1.04075
1.04178
1.04031
1.03682
1.03205
1.02672
1.02145
1.01666
1.01258
1.00927
1.00668
1.00474
1.00332
1.0023
1.00159
1.0011
1.00076
1.00053
1.00038
1.00027
1.0002
1.00014
1.0001
1.00008
1.00006
1.00004
1.00003
1.00002
1.00001
1.00001
1.00001
1
1
1
1
1.04311
1.04236
1.03954
1.03504
1.02934
1.02286
1.01598
1.00902
1.00219
0.995677
0.989566
0.983885
0.978634
0.973824
0.969432
0.965419
0.961821
0.958732
0.956191
0.954233
0.952969
0.952492
0.952786
0.95381
0.955583
0.958104
0.961278
0.964994
0.969246
0.974093
0.979532
0.985464
0.991788
0.998499
1.00567
1.01328
1.02111
1.02861
1.03502
1.0396
1.04181
1.04151
1.03897
1.03481
1.02972
1.02439
1.01933
1.01486
1.01112
1.00814
1.00584
1.00413
1.00289
1.002
1.00139
1.00096
1.00067
1.00047
1.00034
1.00024
1.00018
1.00013
1.0001
1.00007
1.00005
1.00004
1.00003
1.00002
1.00001
1.00001
1.00001
1
1
1
1
1.04255
1.04307
1.0415
1.03814
1.03341
1.02773
1.02149
1.01501
1.00856
1.00233
0.996448
0.990969
0.985943
0.981395
0.977291
0.973613
0.970399
0.967682
0.965456
0.963761
0.962691
0.96228
0.962495
0.963351
0.964899
0.967126
0.96995
0.973326
0.977295
0.981898
0.987087
0.992751
0.998817
1.00529
1.01219
1.01941
1.02659
1.03312
1.03826
1.04138
1.04213
1.04057
1.03713
1.03245
1.02721
1.02199
1.01721
1.0131
1.00973
1.00707
1.00506
1.00356
1.00249
1.00173
1.0012
1.00084
1.00059
1.00042
1.0003
1.00022
1.00016
1.00012
1.00009
1.00006
1.00005
1.00003
1.00002
1.00002
1.00001
1.00001
1.00001
1
1
1
1
1.04125
1.043
1.04273
1.0406
1.03696
1.03221
1.02672
1.02084
1.01485
1.00897
1.00333
0.998064
0.993241
0.988881
0.984961
0.981501
0.978535
0.976046
0.974018
0.972506
0.971572
0.971205
0.971391
0.972178
0.973613
0.975669
0.978282
0.981457
0.985255
0.989685
0.994662
1.00008
1.00589
1.01209
1.01863
1.02531
1.03165
1.037
1.04072
1.04231
1.04165
1.03898
1.03481
1.02981
1.02457
1.01958
1.01515
1.01142
1.00842
1.00609
1.00433
1.00305
1.00213
1.00148
1.00104
1.00073
1.00052
1.00037
1.00027
1.0002
1.00015
1.00011
1.00008
1.00006
1.00004
1.00003
1.00002
1.00002
1.00001
1.00001
1.00001
1
1
1
1
1.0392
1.04211
1.04312
1.04228
1.03984
1.03613
1.03152
1.02635
1.02093
1.01547
1.01017
1.00516
1.00054
0.996332
0.992559
0.989265
0.986457
0.984105
0.982217
0.980844
0.980003
0.979669
0.979861
0.980636
0.982018
0.983968
0.986454
0.989517
0.9932
0.997473
1.00224
1.00739
1.01291
1.01876
1.02482
1.03075
1.03603
1.04004
1.04222
1.04231
1.04037
1.03678
1.03211
1.02696
1.02187
1.0172
1.01317
1.00984
1.0072
1.00518
1.00368
1.00259
1.00181
1.00126
1.00089
1.00063
1.00045
1.00033
1.00024
1.00018
1.00013
1.0001
1.00007
1.00005
1.00004
1.00003
1.00002
1.00001
1.00001
1.00001
1
1
1
1
1
1.03647
1.04035
1.04259
1.04305
1.04188
1.03932
1.03571
1.03139
1.02664
1.02172
1.01684
1.01216
1.00777
1.00374
1.00014
0.99699
0.994293
0.992039
0.990263
0.988994
0.988213
0.987914
0.988138
0.988932
0.990281
0.992155
0.994565
0.997552
1.00112
1.00522
1.00973
1.01459
1.01976
1.02514
1.03053
1.0355
1.03952
1.04203
1.04267
1.04136
1.03834
1.03406
1.02911
1.02401
1.01919
1.01491
1.0113
1.00838
1.0061
1.00437
1.0031
1.00217
1.00152
1.00107
1.00075
1.00054
1.00039
1.00028
1.00021
1.00016
1.00012
1.00009
1.00007
1.00005
1.00004
1.00003
1.00002
1.00001
1.00001
1.00001
1
1
1
1
1
1.03315
1.03777
1.04109
1.04282
1.04294
1.04161
1.03912
1.03575
1.03181
1.02754
1.02319
1.01892
1.01483
1.01105
1.00765
1.00465
1.00206
0.999915
0.998245
0.997053
0.996321
0.996066
0.996334
0.997139
0.998456
1.00027
1.00262
1.00552
1.00895
1.01281
1.01703
1.02152
1.02623
1.03099
1.03549
1.03929
1.04188
1.04285
1.04202
1.0395
1.03564
1.03094
1.02593
1.02104
1.01659
1.01275
1.00958
1.00705
1.00511
1.00365
1.00258
1.00181
1.00127
1.0009
1.00064
1.00046
1.00034
1.00025
1.00019
1.00014
1.0001
1.00008
1.00006
1.00004
1.00003
1.00002
1.00002
1.00001
1.00001
1.00001
1
1
1
1
1
1.02943
1.03449
1.03865
1.04151
1.0429
1.04285
1.04155
1.03925
1.03623
1.03275
1.02903
1.02525
1.02158
1.01812
1.01496
1.01215
1.00971
1.0077
1.00614
1.00502
1.00433
1.00413
1.00444
1.00524
1.00652
1.00828
1.01055
1.01332
1.01654
1.02011
1.02395
1.02797
1.03207
1.036
1.03942
1.04187
1.04295
1.04243
1.04031
1.03683
1.03243
1.02757
1.0227
1.01815
1.01414
1.01076
1.00802
1.00586
1.00423
1.00301
1.00213
1.0015
1.00106
1.00075
1.00054
1.00039
1.00029
1.00022
1.00016
1.00012
1.00009
1.00007
1.00005
1.00004
1.00003
1.00002
1.00001
1.00001
1.00001
1
1
1
1
1
1
1.02553
1.03069
1.03538
1.03914
1.04168
1.04288
1.04283
1.04169
1.0397
1.03711
1.03414
1.03099
1.02782
1.02477
1.02192
1.01935
1.01713
1.01528
1.01383
1.01279
1.01219
1.01205
1.01237
1.01315
1.01437
1.01605
1.01821
1.02078
1.02371
1.0269
1.03025
1.03367
1.03697
1.03988
1.04202
1.04303
1.04264
1.0408
1.03765
1.03353
1.02888
1.02409
1.01952
1.01541
1.01187
1.00895
1.00662
1.00482
1.00346
1.00246
1.00174
1.00123
1.00087
1.00062
1.00045
1.00033
1.00025
1.00019
1.00014
1.00011
1.00008
1.00006
1.00005
1.00003
1.00003
1.00002
1.00001
1.00001
1.00001
1
1
1
1
1
1
1.02165
1.02663
1.03151
1.03585
1.03931
1.04164
1.0428
1.04286
1.04199
1.0404
1.0383
1.03588
1.03332
1.03077
1.02833
1.02608
1.02411
1.02247
1.02117
1.02025
1.01973
1.01963
1.01996
1.02069
1.02184
1.02341
1.02537
1.02767
1.03021
1.0329
1.03564
1.03828
1.04061
1.04232
1.0431
1.04269
1.041
1.0381
1.03425
1.02982
1.02517
1.02065
1.0165
1.01287
1.00982
1.00735
1.0054
1.00391
1.0028
1.00199
1.00141
1.001
1.00071
1.00051
1.00038
1.00028
1.00021
1.00016
1.00012
1.00009
1.00007
1.00005
1.00004
1.00003
1.00002
1.00002
1.00001
1.00001
1.00001
1
1
1
1
1
1
1.01799
1.02255
1.02731
1.03189
1.03594
1.03917
1.0414
1.04262
1.0429
1.04237
1.04123
1.03965
1.03781
1.03586
1.03391
1.03208
1.03043
1.02903
1.02792
1.02714
1.02672
1.02667
1.02698
1.02764
1.02868
1.03006
1.03175
1.03366
1.03571
1.03778
1.03977
1.04148
1.04269
1.04313
1.04258
1.04092
1.03819
1.03458
1.03037
1.02591
1.0215
1.01738
1.01372
1.01059
1.00801
1.00595
1.00435
1.00314
1.00224
1.00159
1.00113
1.0008
1.00058
1.00042
1.00031
1.00023
1.00018
1.00014
1.00011
1.00008
1.00006
1.00005
1.00004
1.00003
1.00002
1.00001
1.00001
1.00001
1
1
1
1
1
1
1
1.01468
1.01869
1.02307
1.02757
1.03186
1.03565
1.03872
1.04093
1.04228
1.04283
1.04269
1.04203
1.041
1.03974
1.03837
1.03702
1.03577
1.03468
1.0338
1.03319
1.03287
1.03284
1.03312
1.03369
1.03456
1.03569
1.037
1.03843
1.03986
1.0412
1.0423
1.04298
1.04302
1.04224
1.04054
1.03792
1.0345
1.03052
1.02627
1.02202
1.018
1.01436
1.01121
1.00858
1.00644
1.00475
1.00346
1.00249
1.00177
1.00126
1.0009
1.00064
1.00047
1.00034
1.00026
1.00019
1.00015
1.00012
1.00009
1.00007
1.00005
1.00004
1.00003
1.00002
1.00002
1.00001
1.00001
1.00001
1
1
1
1
1
1
1
1.01178
1.0152
1.01906
1.0232
1.02741
1.03141
1.03498
1.03793
1.04017
1.04168
1.04252
1.04279
1.04261
1.0421
1.04139
1.04059
1.03979
1.03905
1.03845
1.03803
1.03781
1.03781
1.03803
1.03847
1.03911
1.03989
1.04075
1.0416
1.04234
1.04285
1.04301
1.04265
1.04162
1.03982
1.03725
1.034
1.03026
1.02624
1.02219
1.01832
1.01478
1.01166
1.00902
1.00684
1.0051
1.00374
1.00271
1.00195
1.00139
1.00099
1.00071
1.00051
1.00037
1.00028
1.00021
1.00016
1.00013
1.0001
1.00008
1.00006
1.00005
1.00003
1.00003
1.00002
1.00001
1.00001
1.00001
1.00001
1
1
1
1
1
1
1
1.00931
1.01214
1.01542
1.01907
1.02294
1.02684
1.03056
1.03392
1.03676
1.03903
1.04071
1.04182
1.04246
1.04271
1.04269
1.04247
1.04215
1.04181
1.04151
1.04129
1.04118
1.04119
1.04134
1.0416
1.04195
1.04233
1.04267
1.04289
1.0429
1.0426
1.04187
1.04059
1.03869
1.03617
1.03308
1.02957
1.02581
1.02201
1.01833
1.01494
1.01192
1.00931
1.00714
1.00538
1.00398
1.00291
1.0021
1.0015
1.00107
1.00077
1.00055
1.0004
1.0003
1.00023
1.00017
1.00013
1.00011
1.00008
1.00006
1.00005
1.00004
1.00003
1.00002
1.00002
1.00001
1.00001
1.00001
1
1
1
1
1
1
1
1
1.00726
1.00955
1.01226
1.01535
1.01874
1.02231
1.02589
1.02932
1.03246
1.03519
1.03746
1.03924
1.04057
1.04151
1.04211
1.04247
1.04264
1.04269
1.04269
1.04267
1.04266
1.04268
1.04273
1.04279
1.04282
1.04278
1.0426
1.04222
1.04156
1.04053
1.03907
1.03711
1.03464
1.03173
1.02846
1.02499
1.02146
1.01803
1.01483
1.01195
1.00944
1.00731
1.00556
1.00416
1.00306
1.00223
1.0016
1.00115
1.00082
1.00059
1.00043
1.00031
1.00024
1.00018
1.00014
1.00011
1.00009
1.00007
1.00005
1.00004
1.00003
1.00002
1.00002
1.00001
1.00001
1.00001
1.00001
1
1
1
1
1
1
1
1
1.00559
1.00741
1.00959
1.01213
1.01499
1.01809
1.02132
1.02457
1.0277
1.03059
1.03317
1.03538
1.0372
1.03866
1.03978
1.04061
1.04121
1.04162
1.04189
1.04205
1.04214
1.04215
1.04209
1.04195
1.04168
1.04126
1.04063
1.03974
1.03854
1.03697
1.03502
1.03267
1.02995
1.02695
1.02378
1.02057
1.01742
1.01446
1.01176
1.00938
1.00734
1.00564
1.00426
1.00317
1.00232
1.00168
1.00121
1.00086
1.00062
1.00045
1.00033
1.00024
1.00019
1.00014
1.00011
1.00009
1.00007
1.00006
1.00005
1.00004
1.00003
1.00002
1.00002
1.00001
1.00001
1.00001
1
1
1
1
1
1
1
1
1
1.00424
1.00567
1.0074
1.00943
1.01177
1.01436
1.01715
1.02004
1.02293
1.02573
1.02835
1.03071
1.03279
1.03456
1.03602
1.0372
1.03811
1.03879
1.03928
1.03959
1.03974
1.03974
1.03959
1.03927
1.03877
1.03805
1.03708
1.03584
1.03429
1.03243
1.03024
1.02777
1.02508
1.02224
1.01935
1.01652
1.01383
1.01136
1.00915
1.00723
1.00562
1.00428
1.00321
1.00237
1.00173
1.00125
1.00089
1.00064
1.00046
1.00034
1.00025
1.00019
1.00015
1.00011
1.00009
1.00007
1.00006
1.00005
1.00004
1.00003
1.00002
1.00002
1.00001
1.00001
1.00001
1.00001
1
1
1
1
1
1
1
1
1
1.00319
1.00429
1.00563
1.00723
1.00909
1.0112
1.0135
1.01596
1.01849
1.02101
1.02346
1.02576
1.02787
1.02974
1.03135
1.0327
1.0338
1.03465
1.03527
1.03567
1.03586
1.03585
1.03564
1.03521
1.03455
1.03364
1.03249
1.03107
1.02938
1.02743
1.02525
1.02289
1.0204
1.01787
1.01537
1.01298
1.01076
1.00875
1.00699
1.00548
1.00422
1.00319
1.00238
1.00174
1.00127
1.00091
1.00065
1.00047
1.00034
1.00025
1.00019
1.00014
1.00011
1.00009
1.00007
1.00006
1.00005
1.00004
1.00003
1.00002
1.00002
1.00001
1.00001
1.00001
1.00001
1
1
1
1
1
1
1
1
1
1
1.00237
1.00321
1.00424
1.00547
1.00692
1.00858
1.01044
1.01245
1.01456
1.01673
1.01888
1.02097
1.02293
1.02472
1.02632
1.0277
1.02884
1.02975
1.03042
1.03086
1.03107
1.03105
1.0308
1.03031
1.02959
1.02863
1.02743
1.02599
1.02433
1.02247
1.02046
1.01834
1.01617
1.01401
1.01193
1.00998
1.0082
1.00661
1.00523
1.00407
1.00311
1.00233
1.00173
1.00126
1.00091
1.00065
1.00047
1.00034
1.00024
1.00018
1.00014
1.00011
1.00009
1.00007
1.00006
1.00005
1.00004
1.00003
1.00002
1.00002
1.00002
1.00001
1.00001
1.00001
1
1
1
1
1
1
1
1
1
1
1
1.00175
1.00238
1.00315
1.00409
1.00521
1.00649
1.00794
1.00954
1.01125
1.01303
1.01483
1.01662
1.01834
1.01994
1.0214
1.02269
1.02377
1.02465
1.02531
1.02574
1.02594
1.02592
1.02566
1.02517
1.02446
1.02353
1.02239
1.02105
1.01954
1.01788
1.01613
1.01432
1.01251
1.01075
1.00907
1.00752
1.00612
1.00489
1.00384
1.00296
1.00224
1.00167
1.00123
1.00089
1.00064
1.00045
1.00033
1.00024
1.00017
1.00013
1.0001
1.00008
1.00007
1.00005
1.00005
1.00004
1.00003
1.00003
1.00002
1.00002
1.00001
1.00001
1.00001
1.00001
1
1
1
1
1
1
1
1
1
1
1
1.00128
1.00175
1.00233
1.00303
1.00387
1.00485
1.00596
1.0072
1.00854
1.00996
1.01142
1.01288
1.01431
1.01567
1.01693
1.01805
1.01901
1.0198
1.02039
1.02078
1.02096
1.02094
1.0207
1.02025
1.0196
1.01876
1.01774
1.01657
1.01527
1.01387
1.01241
1.01093
1.00947
1.00806
1.00675
1.00555
1.00448
1.00355
1.00276
1.00211
1.00158
1.00117
1.00085
1.00061
1.00043
1.00031
1.00022
1.00016
1.00012
1.00009
1.00007
1.00006
1.00005
1.00004
1.00004
1.00003
1.00002
1.00002
1.00002
1.00001
1.00001
1.00001
1.00001
1
1
1
1
1
1
1
1
1
1
1
1
1.00094
1.00128
1.0017
1.00222
1.00285
1.00358
1.00442
1.00536
1.00639
1.00748
1.00863
1.00979
1.01094
1.01204
1.01308
1.01401
1.01482
1.01548
1.01598
1.01631
1.01647
1.01644
1.01622
1.01583
1.01528
1.01456
1.0137
1.01272
1.01164
1.0105
1.00933
1.00815
1.00701
1.00592
1.00492
1.00401
1.00321
1.00252
1.00194
1.00147
1.00109
1.00079
1.00057
1.0004
1.00029
1.0002
1.00015
1.00011
1.00008
1.00006
1.00005
1.00004
1.00004
1.00003
1.00003
1.00002
1.00002
1.00002
1.00001
1.00001
1.00001
1.00001
1
1
1
1
1
1
1
1
1
1
1
1
1
1.00068
1.00093
1.00124
1.00162
1.00208
1.00262
1.00324
1.00394
1.00472
1.00555
1.00642
1.00732
1.00821
1.00907
1.00989
1.01064
1.01128
1.01182
1.01222
1.01249
1.01261
1.01258
1.0124
1.01207
1.01161
1.01102
1.01032
1.00953
1.00868
1.00778
1.00686
1.00596
1.00508
1.00426
1.0035
1.00283
1.00224
1.00174
1.00133
1.00099
1.00073
1.00052
1.00037
1.00026
1.00018
1.00013
1.00009
1.00007
1.00005
1.00004
1.00004
1.00003
1.00003
1.00002
1.00002
1.00002
1.00002
1.00001
1.00001
1.00001
1.00001
1
1
1
1
1
1
1
1
1
1
1
1
1
1
1.0005
1.00067
1.0009
1.00118
1.00151
1.00191
1.00236
1.00287
1.00344
1.00406
1.00471
1.00539
1.00606
1.00672
1.00735
1.00792
1.00842
1.00884
1.00915
1.00936
1.00945
1.00942
1.00927
1.009
1.00863
1.00816
1.00761
1.00699
1.00633
1.00563
1.00494
1.00425
1.0036
1.00299
1.00244
1.00195
1.00153
1.00117
1.00088
1.00064
1.00046
1.00032
1.00022
1.00015
1.00011
1.00007
1.00005
1.00004
1.00003
1.00003
1.00003
1.00002
1.00002
1.00002
1.00002
1.00001
1.00001
1.00001
1.00001
1.00001
1
1
1
1
1
1
1
1
1
1
1
1
1
1
1
1.00036
1.00049
1.00066
1.00085
1.00109
1.00138
1.00171
1.00208
1.00249
1.00294
1.00342
1.00391
1.00441
1.00491
1.00537
1.0058
1.00617
1.00649
1.00672
1.00687
1.00693
1.0069
1.00678
1.00657
1.00628
1.00591
1.00549
1.00502
1.00451
1.00399
1.00347
1.00297
1.00249
1.00205
1.00165
1.0013
1.001
1.00076
1.00056
1.0004
1.00028
1.00019
1.00013
1.00008
1.00005
1.00004
1.00003
1.00002
1.00002
1.00002
1.00002
1.00002
1.00001
1.00001
1.00001
1.00001
1.00001
1.00001
1.00001
1
1
1
1
1
1
1
1
1
1
1
1
1
1
1
1
1.00027
1.00036
1.00048
1.00062
1.00079
1.00099
1.00123
1.0015
1.00179
1.00211
1.00246
1.00282
1.00318
1.00353
1.00387
1.00418
1.00446
1.00468
1.00485
1.00496
1.005
1.00496
1.00486
1.0047
1.00447
1.0042
1.00388
1.00352
1.00315
1.00276
1.00238
1.00202
1.00167
1.00136
1.00108
1.00084
1.00063
1.00046
1.00033
1.00023
1.00015
1.0001
1.00006
1.00003
1.00002
1.00001
1.00001
1.00001
1.00001
1.00001
1.00001
1.00001
1.00001
1.00001
1.00001
1.00001
1.00001
1.00001
1
1
1
1
1
1
1
1
1
1
1
1
1
1
1
1
1
1.0002
1.00027
1.00035
1.00045
1.00058
1.00072
1.00089
1.00107
1.00128
1.00151
1.00175
1.00201
1.00226
1.00252
1.00275
1.00297
1.00317
1.00333
1.00344
1.00351
1.00353
1.0035
1.00342
1.0033
1.00312
1.00291
1.00268
1.00242
1.00214
1.00186
1.00159
1.00133
1.00109
1.00087
1.00068
1.00051
1.00037
1.00026
1.00018
1.00011
1.00007
1.00004
1.00002
1
0.999999
0.999997
0.999998
1
1
1
1.00001
1.00001
1.00001
1.00001
1.00001
1.00001
1.00001
1
1
1
1
1
1
1
1
1
1
1
1
1
1
1
1
1
1
1.00015
1.0002
1.00026
1.00034
1.00042
1.00052
1.00064
1.00077
1.00092
1.00108
1.00124
1.00142
1.0016
1.00177
1.00194
1.00209
1.00222
1.00233
1.00241
1.00245
1.00246
1.00243
1.00236
1.00227
1.00214
1.00198
1.0018
1.00161
1.00142
1.00122
1.00103
1.00085
1.00068
1.00053
1.0004
1.00029
1.0002
1.00013
1.00008
1.00004
1.00001
0.999997
0.999989
0.999986
0.999986
0.999989
0.999992
0.999995
0.999998
1
1
1
1
1
1
1
1
1
1
1
1
1
1
1
1
1
1
1
1
1
1
1
1
1
1
1.00012
1.00016
1.0002
1.00025
1.00031
1.00038
1.00046
1.00055
1.00065
1.00076
1.00088
1.001
1.00112
1.00124
1.00135
1.00146
1.00154
1.00161
1.00166
1.00168
1.00168
1.00165
1.0016
1.00152
1.00143
1.00131
1.00119
1.00105
1.00091
1.00077
1.00064
1.00051
1.0004
1.0003
1.00021
1.00014
1.00009
1.00004
1.00001
0.999995
0.999982
0.999976
0.999975
0.999977
0.99998
0.999984
0.999988
0.999992
0.999996
0.999998
1
1
1
1
1
1
1
1
1
1
1
1
1
1
1
1
1
1
1
1
1
1
1
1
1
1.00009
1.00012
1.00015
1.00019
1.00023
1.00028
1.00034
1.0004
1.00047
1.00055
1.00062
1.0007
1.00079
1.00087
1.00094
1.001
1.00106
1.0011
1.00113
1.00114
1.00113
1.0011
1.00106
1.001
1.00093
1.00085
1.00075
1.00066
1.00056
1.00046
1.00037
1.00029
1.00021
1.00015
1.00009
1.00005
1.00002
0.999993
0.999977
0.999968
0.999964
0.999965
0.999968
0.999972
0.999977
0.999982
0.999987
0.999991
0.999995
0.999998
1
1
1
1
1
1
1
1
1
1
1
1
1
1
1
1
1
1
1
1
1
1
1
1
1
1.00007
1.00009
1.00012
1.00014
1.00018
1.00021
1.00025
1.00029
1.00034
1.00039
1.00045
1.0005
1.00055
1.0006
1.00065
1.00069
1.00072
1.00074
1.00076
1.00076
1.00075
1.00072
1.00069
1.00064
1.00059
1.00053
1.00046
1.00039
1.00033
1.00026
1.0002
1.00014
1.00009
1.00005
1.00002
0.999995
0.999977
0.999965
0.999958
0.999956
0.999958
0.999961
0.999966
0.999971
0.999977
0.999982
0.999987
0.99999
0.999993
0.999996
0.999998
1
1
1
1
1
1
1
1
1
1
1
1
1
1
1
1
1
1
1
1
1
1
1
1
1.00006
1.00007
1.00009
1.00012
1.00014
1.00016
1.00019
1.00022
1.00025
1.00028
1.00032
1.00036
1.00039
1.00042
1.00045
1.00047
1.00049
1.0005
1.0005
1.0005
1.00049
1.00047
1.00044
1.0004
1.00036
1.00032
1.00027
1.00022
1.00017
1.00013
1.00009
1.00005
1.00002
0.999997
0.999977
0.999964
0.999955
0.999951
0.99995
0.999952
0.999956
0.999961
0.999967
0.999973
0.999978
0.999983
0.999988
0.999992
0.999995
0.999997
0.999998
0.999999
1
1
1
1
1
1
1
1
1
1
1
1
1
1
1
1
1
1
1
1
1
1
1
1.00005
1.00006
1.00007
1.00008
1.00011
1.00012
1.00014
1.00016
1.00019
1.00021
1.00023
1.00025
1.00028
1.0003
1.00031
1.00032
1.00033
1.00034
1.00033
1.00033
1.00031
1.00029
1.00027
1.00024
1.00021
1.00018
1.00015
1.00011
1.00008
1.00005
1.00002
1
0.999981
0.999967
0.999956
0.99995
0.999946
0.999946
0.999948
0.999953
0.999958
0.999963
0.999969
0.999975
0.99998
0.999985
0.999989
0.999992
0.999995
0.999997
0.999998
0.999999
1
1
1
1
1
1
1
1
1
1
1
1
1
1
1
1
1
1
1
1
1
1
1
1.00004
1.00004
1.00006
1.00007
1.00008
1.0001
1.00011
1.00013
1.00014
1.00015
1.00017
1.00018
1.0002
1.00021
1.00022
1.00022
1.00022
1.00022
1.00022
1.00021
1.0002
1.00018
1.00016
1.00014
1.00012
1.00009
1.00007
1.00004
1.00002
1
0.999986
0.999971
0.99996
0.999952
0.999947
0.999946
0.999946
0.999949
0.999952
0.999957
0.999962
0.999968
0.999973
0.999978
0.999983
0.999987
0.999991
0.999993
0.999996
0.999997
0.999998
0.999999
1
1
1
1
1
1
1
1
1
1
1
1
1
1
1
1
1
1
1
1
1
1
1
1.00003
1.00004
1.00004
1.00005
1.00007
1.00007
1.00008
1.0001
1.00011
1.00012
1.00013
1.00014
1.00014
1.00015
1.00015
1.00016
1.00016
1.00015
1.00014
1.00014
1.00012
1.00011
1.00009
1.00008
1.00006
1.00004
1.00002
1.00001
0.999992
0.999978
0.999967
0.999959
0.999953
0.999949
0.999947
0.999947
0.999949
0.999952
0.999957
0.999962
0.999967
0.999972
0.999978
0.999982
0.999986
0.999989
0.999991
0.999994
0.999996
0.999997
0.999998
0.999999
0.999999
1
1
1
1
1
1
1
1
1
1
1
1
1
1
1
1
1
1
1
1
1
1
1.00002
1.00003
1.00004
1.00004
1.00005
1.00006
1.00007
1.00007
1.00008
1.00009
1.0001
1.0001
1.00011
1.00011
1.00011
1.00011
1.00011
1.0001
1.0001
1.00009
1.00008
1.00006
1.00005
1.00004
1.00003
1.00001
0.999998
0.999987
0.999976
0.999967
0.999959
0.999954
0.999952
0.999951
0.999951
0.999953
0.999956
0.999959
0.999963
0.999967
0.999972
0.999976
0.99998
0.999984
0.999988
0.999991
0.999993
0.999995
0.999997
0.999998
0.999998
0.999999
0.999999
1
1
1
1
1
1
1
1
1
1
1
1
1
1
1
1
1
1
1
1
1
1
1.00002
1.00002
1.00003
1.00003
1.00004
1.00005
1.00005
1.00006
1.00006
1.00007
1.00007
1.00008
1.00008
1.00008
1.00008
1.00008
1.00007
1.00007
1.00006
1.00006
1.00005
1.00004
1.00003
1.00002
1.00001
0.999996
0.999987
0.999979
0.999971
0.999965
0.999961
0.999958
0.999956
0.999955
0.999956
0.999958
0.999961
0.999964
0.999969
0.999973
0.999978
0.999981
0.999984
0.999987
0.99999
0.999992
0.999994
0.999996
0.999997
0.999998
0.999999
0.999999
1
1
1
1
1
1
1
1
1
1
1
1
1
1
1
1
1
1
1
1
1
1
1
1.00002
1.00002
1.00002
1.00003
1.00003
1.00004
1.00004
1.00004
1.00005
1.00005
1.00006
1.00006
1.00006
1.00006
1.00006
1.00006
1.00005
1.00005
1.00004
1.00004
1.00003
1.00002
1.00001
1
0.999996
0.999988
0.999981
0.999975
0.99997
0.999966
0.999963
0.999961
0.999961
0.999962
0.999964
0.999966
0.999969
0.999971
0.999974
0.999977
0.999981
0.999984
0.999987
0.99999
0.999992
0.999994
0.999996
0.999997
0.999998
0.999998
0.999999
0.999999
1
1
1
1
1
1
1
1
1
1
1
1
1
1
1
1
1
1
1
1
1
1
1
1.00001
1.00001
1.00002
1.00002
1.00002
1.00003
1.00003
1.00004
1.00004
1.00004
1.00004
1.00004
1.00004
1.00004
1.00004
1.00004
1.00004
1.00003
1.00003
1.00002
1.00002
1.00001
1
0.999998
0.999993
0.999987
0.999981
0.999976
0.999973
0.99997
0.999968
0.999967
0.999967
0.999968
0.999969
0.999971
0.999974
0.999977
0.99998
0.999983
0.999986
0.999988
0.99999
0.999992
0.999994
0.999995
0.999996
0.999997
0.999998
0.999999
0.999999
0.999999
1
1
1
1
1
1
1
1
1
1
1
1
1
1
1
1
1
1
1
1
1
1
1
1.00001
1.00001
1.00001
1.00002
1.00002
1.00002
1.00002
1.00003
1.00003
1.00003
1.00003
1.00003
1.00003
1.00003
1.00003
1.00003
1.00003
1.00002
1.00002
1.00002
1.00001
1.00001
1
0.999995
0.99999
0.999985
0.999982
0.999979
0.999977
0.999975
0.999973
0.999973
0.999974
0.999975
0.999976
0.999978
0.999979
0.999981
0.999983
0.999986
0.999988
0.99999
0.999992
0.999994
0.999995
0.999996
0.999997
0.999998
0.999999
0.999999
0.999999
0.999999
1
1
1
1
1
1
1
1
1
1
1
1
1
1
1
1
1
1
1
1
1
1
1
1.00001
1.00001
1.00001
1.00001
1.00002
1.00002
1.00002
1.00002
1.00002
1.00002
1.00002
1.00002
1.00003
1.00003
1.00002
1.00002
1.00002
1.00002
1.00002
1.00001
1.00001
1
1
0.999995
0.999991
0.999988
0.999985
0.999982
0.99998
0.999978
0.999978
0.999978
0.999978
0.999979
0.99998
0.999982
0.999984
0.999986
0.999988
0.999989
0.999991
0.999992
0.999994
0.999995
0.999996
0.999997
0.999997
0.999998
0.999998
0.999999
1
1
1
1
1
1
1
1
1
1
1
1
1
1
1
1
1
1
1
1
1
1
1
1
1
1
1.00001
1.00001
1.00001
1.00001
1.00001
1.00002
1.00002
1.00002
1.00002
1.00002
1.00002
1.00002
1.00002
1.00002
1.00002
1.00001
1.00001
1.00001
1.00001
1
1
0.999997
0.999994
0.999992
0.99999
0.999987
0.999985
0.999985
0.999984
0.999983
0.999983
0.999984
0.999985
0.999985
0.999986
0.999988
0.999989
0.99999
0.999992
0.999993
0.999994
0.999995
0.999996
0.999997
0.999998
0.999999
0.999999
0.999999
0.999999
0.999999
1
1
1
1
1
1
1
1
1
1
1
1
1
1
1
1
1
1
1
1
1
1
1
1
1.00001
1
1.00001
1.00001
1.00001
1.00001
1.00001
1.00001
1.00001
1.00001
1.00001
1.00001
1.00001
1.00001
1.00001
1.00001
1.00001
1.00001
1.00001
1
1
1
0.999998
0.999996
0.999994
0.999992
0.99999
0.999988
0.999987
0.999987
0.999987
0.999986
0.999986
0.999987
0.999989
0.99999
0.99999
0.999992
0.999993
0.999994
0.999995
0.999995
0.999996
0.999997
0.999998
0.999998
0.999999
0.999999
1
1
1
1
1
1
1
1
1
1
1
1
1
1
1
1
1
1
1
1
1
1
1
1
1
1
1
1
1
1
1.00001
1.00001
1.00001
1.00001
1.00001
1.00001
1.00001
1.00001
1.00001
1.00001
1.00001
1.00001
1.00001
1.00001
1.00001
1.00001
1
1
1
0.999998
0.999996
0.999994
0.999993
0.999992
0.999991
0.999991
0.99999
0.99999
0.99999
0.999991
0.999991
0.999991
0.999992
0.999993
0.999994
0.999994
0.999995
0.999996
0.999997
0.999997
0.999998
0.999998
0.999999
0.999999
0.999999
0.999999
1
1
1
1
1
1
1
1
1
1
1
1
1
1
1
1
1
1
1
1
1
1
1
1
1
1
1
1
1
1
1
1
1.00001
1.00001
1.00001
1.00001
1.00001
1.00001
1.00001
1.00001
1.00001
1.00001
1.00001
1
1
1
1
1
0.999999
0.999998
0.999996
0.999995
0.999994
0.999993
0.999993
0.999992
0.999992
0.999993
0.999993
0.999993
0.999994
0.999994
0.999995
0.999996
0.999996
0.999997
0.999997
0.999998
0.999998
0.999999
0.999999
0.999999
0.999999
1
1
1
1
1
1
1
1
1
1
1
1
1
1
1
1
1
1
1
1
1
1
1
1
1
1
1
1
1
1
1
1
1
1
1
1
1
1.00001
1.00001
1.00001
1.00001
1.00001
1.00001
1
1
1
1
1
1
0.999999
0.999998
0.999998
0.999997
0.999996
0.999995
0.999995
0.999995
0.999995
0.999995
0.999995
0.999995
0.999995
0.999995
0.999996
0.999996
0.999996
0.999997
0.999997
0.999998
0.999998
0.999999
0.999999
0.999999
0.999999
1
1
1
1
1
1
1
1
1
1
1
1
1
1
1
1
1
1
1
1
1
1
1
1
1
1
1
1
1
1
1
1
1
1
1
1
1
1
1
1
1
1
1
1
1
1
1
1
1
1
1
1
0.999998
0.999998
0.999997
0.999997
0.999997
0.999996
0.999996
0.999996
0.999996
0.999996
0.999997
0.999997
0.999997
0.999997
0.999997
0.999998
0.999998
0.999999
0.999999
0.999999
0.999999
0.999999
0.999999
1
1
1
1
1
1
1
1
1
1
1
1
1
1
1
1
1
1
1
1
1
1
1
1
1
1
1
1
1
1
1
1
1
1
1
1
1
1
1
1
1
1
1
1
1
1
1
1
1
1
1
0.999999
0.999999
0.999999
0.999998
0.999998
0.999997
0.999997
0.999997
0.999997
0.999997
0.999997
0.999997
0.999997
0.999997
0.999998
0.999998
0.999999
0.999999
0.999999
0.999999
0.999999
0.999999
1
1
1
1
1
1
1
1
1
1
1
1
1
1
1
1
1
1
1
1
1
1
1
1
1
1
1
1
1
1
1
1
1
1
1
1
1
1
1
1
1
1
1
1
1
1
1
1
1
1
1
1
1
1
0.999999
0.999999
0.999999
0.999998
0.999998
0.999998
0.999998
0.999998
0.999998
0.999998
0.999998
0.999999
0.999999
0.999999
0.999999
0.999999
0.999999
0.999999
0.999999
0.999999
1
1
1
1
1
1
1
1
1
1
1
1
1
1
1
1
1
1
1
1
1
1
1
1
1
1
1
1
1
1
1
1
1
1
1
1
1
1
1
1
1
1
1
1
1
1
1
1
1
1
1
1
1
1
1
0.999999
0.999999
0.999999
0.999999
0.999999
0.999999
0.999999
0.999999
0.999999
0.999998
0.999999
0.999999
0.999999
0.999999
0.999999
0.999999
0.999999
0.999999
1
1
1
1
1
1
1
1
1
1
1
1
1
1
1
1
1
1
1
1
1
1
1
1
1
1
1
1
1
1
1
1
1
1
1
1
1
1
1
1
1
1
1
1
1
1
1
1
1
1
1
1
1
1
1
1
1
1
0.999999
0.999999
0.999999
0.999999
0.999999
0.999999
0.999999
0.999999
0.999999
0.999999
0.999999
0.999999
0.999999
0.999999
0.999999
0.999999
1
1
1
1
1
1
1
1
1
1
1
1
1
1
1
1
1
1
1
1
1
1
1
1
1
1
1
1
1
1
1
1
1
1
1
1
1
1
1
1
1
1
1
1
1
1
1
1
1
1
1
1
1
1
1
1
1
1
1
0.999999
0.999999
0.999999
1
0.999999
0.999999
0.999999
0.999999
0.999999
0.999999
0.999999
0.999999
0.999999
1
1
1
1
1
1
1
1
1
1
1
1
1
1
1
1
1
1
1
1
1
1
1
1
1
1
1
1
1
1
1
1
1
1
1
1
1
1
1
1
1
1
1
1
1
1
1
1
1
1
1
1
1
1
1
1
1
1
1
1
1
1
1
0.999999
0.999999
0.999999
1
1
0.999999
0.999999
1
1
1
1
1
1
1
1
1
1
1
1
1
1
1
1
1
1
1
1
1
1
1
1
1
1
1
1
1
1
1
1
1
1
1
1
1
1
1
1
1
1
1
1
1
1
1
1
1
1
1
1
1
1
1
1
1
1
1
1
1
1
1
1
1
1
1
1
1
1
1
1
1
1
1
1
0.999999
0.999999
1
1
1
1
1
1
1
1
1
1
1
1
1
1
1
1
1
1
1
1
1
1
1
1
1
1
1
1
1
1
1
1
1
1
1
1
1
1
1
1
1
1
1
1
1
1
1
1
1
1
1
1
1
1
1
1
1
1
1
1
1
1
1
1
1
1
1
1
1
1
1
1
1
1
1
1
1
1
1
1
1
1
1
1
1
1
1
1
1
1
1
1
1
1
1
1
1
1
1
1
1
1
1
1
1
1
1
1
1
1
1
1
1
1
1
1
1
1
1
1
1
1
1
1
1
1
1
1
1
1
1
1
1
1
1
1
1
1
1
1
1
1
1
1
1
1
1
1
1
1
1
1
1
1
1
1
1
1
1
1
1
1
1
1
1
1
1
1
1
1
1
1
1
1
1
1
1
1
1
1
1
1
1
1
1
1
1
1
1
1
1
1
1
1
1
1
1
1
1
1
1
1
1
1
1
1
1
1
1
1
1
1
1
1
1
1
1
1
1
1
1
1
1
1
1
1
1
1
1
1
1
1
1
1
1
1
1
1
1
1
1
1
1
1
1
1
1
1
1
1
1
1
1
1
1
1
1
1
1
1
1
1
1
1
1
1
1
1
1
1
1
1
1
1
1
1
1
1
1
1
0.999999
1
1
1
1
1
1
1
1
1
1
1
1
1
1
1
1
1
1
1
1
1
1
1
1
1
1
1
1
1
1
1
1
1
1
1
1
1
1
1
1
1
1
1
1
1
1
1
1
1
1
1
1
1
1
1
1
1
1
1
1
1
1
1
0.999999
0.999999
1
0.999999
1
1
1
1
1
0.999999
1
1
1
1
1
1
1
1
1
1
1
1
1
1
1
1
1
1
1
1
1
1
1
1
1
1
1
1
1
1
1
1
1
1
1
1
1
1
1
1
1
1
1
1
1
1
1
1
1
1
1
1
1
1
1
1
1
1
1
1
1
1
1
0.999999
1
1
0.999999
0.999999