/*--------------------------------*- C++ -*----------------------------------*\
  =========                 |
  \\      /  F ield         | OpenFOAM: The Open Source CFD Toolbox
   \\    /   O peration     | Website:  https://openfoam.org
    \\  /    A nd           | Version:  6
     \\/     M anipulation  |
\*---------------------------------------------------------------------------*/
FoamFile
{
    version     2.0;
    format      ascii;
    class       volScalarField;
    location    "5";
    object      p;
}
// * * * * * * * * * * * * * * * * * * * * * * * * * * * * * * * * * * * * * //

dimensions      [1 -1 -2 0 0 0 0];

internalField   nonuniform List<scalar> 
22500
(
0.999987
0.999988
0.99999
0.999991
0.999993
0.999994
0.999995
0.999997
0.999997
0.999998
0.999999
0.999999
0.999999
1
0.999999
1
1
1
1
1
1
1
1
1
1
1
1
1
1
1
1
1
1
1
1
1
1
1
1
1
1
1
1
1
1
1
1
1
1
1
1
1
1
1
1
1
1
1
1
1
1
1.00001
1.00001
1.00001
1.00001
1.00002
1.00002
1.00002
1.00003
1.00003
1.00004
1.00004
1.00005
1.00007
1.0001
1.00014
1.00021
1.0003
1.00044
1.00063
1.00089
1.00123
1.00167
1.00223
1.00291
1.00373
1.0047
1.00581
1.00707
1.00845
1.00994
1.01152
1.01315
1.0148
1.01645
1.01806
1.01961
1.02106
1.0224
1.02362
1.02471
1.02566
1.02647
1.02714
1.02768
1.02809
1.02838
1.02855
1.0286
1.02853
1.02835
1.02804
1.0276
1.02703
1.02632
1.02546
1.02446
1.0233
1.02201
1.02059
1.01906
1.01745
1.01578
1.0141
1.01243
1.01082
1.0093
1.00788
1.00659
1.00544
1.00443
1.00355
1.00281
1.0022
1.00169
1.00128
1.00096
1.0007
1.00051
1.00036
1.00024
1.00016
1.0001
1.00006
1.00003
1.00001
1
0.999992
0.999989
0.999987
0.999985
0.999986
0.999987
0.999989
0.999991
0.999993
0.999994
0.999995
0.999997
0.999997
0.999998
0.999998
0.999999
0.999999
0.999999
1
1
1
1
1
1
1
1
1
1
1
1
1
1
1
1
1
1
1
1
1
1
1
1
1
1
1
1
1
1
1
1
0.999999
1
1
1
1
1
1
1
1
1
1
1
1
1.00001
1.00001
1.00001
1.00001
1.00002
1.00002
1.00002
1.00003
1.00003
1.00004
1.00005
1.00006
1.00008
1.0001
1.00014
1.00021
1.0003
1.00044
1.00063
1.00089
1.00125
1.00171
1.0023
1.00304
1.00393
1.005
1.00623
1.00764
1.0092
1.01089
1.01268
1.01454
1.01643
1.01831
1.02014
1.02189
1.02352
1.02501
1.02636
1.02755
1.02858
1.02945
1.03018
1.03077
1.03123
1.03157
1.03181
1.03195
1.03199
1.03194
1.0318
1.03155
1.0312
1.03072
1.0301
1.02934
1.02842
1.02732
1.02606
1.02462
1.02302
1.02128
1.01944
1.01754
1.01561
1.0137
1.01187
1.01013
1.00853
1.00708
1.00579
1.00468
1.00372
1.00292
1.00226
1.00172
1.00129
1.00095
1.00069
1.00049
1.00034
1.00022
1.00014
1.00009
1.00005
1.00002
1
0.999993
0.999988
0.999985
0.999983
0.999983
0.999985
0.999987
0.999989
0.999991
0.999993
0.999995
0.999996
0.999997
0.999998
0.999998
0.999999
0.999999
0.999999
1
1
1
1
1
1
1
1
1
1
1
1
1
1
1
1
1
1
1
1
1
1
1
1
1
1
1
1
1
1
1
1
1
0.999999
1
1
1
1
1
1
1
1
1
1
1.00001
1.00001
1.00001
1.00001
1.00002
1.00002
1.00002
1.00003
1.00004
1.00004
1.00005
1.00006
1.00008
1.0001
1.00014
1.0002
1.00029
1.00043
1.00062
1.00088
1.00124
1.00172
1.00234
1.00312
1.00408
1.00523
1.00659
1.00814
1.00987
1.01176
1.01377
1.01586
1.01799
1.02009
1.02212
1.02405
1.02582
1.02743
1.02886
1.03009
1.03113
1.03199
1.03268
1.03323
1.03366
1.03397
1.03419
1.03434
1.03443
1.03445
1.03443
1.03434
1.0342
1.03397
1.03366
1.03323
1.03266
1.03194
1.03102
1.02991
1.02859
1.02705
1.02531
1.0234
1.02135
1.01921
1.01704
1.01489
1.01283
1.01089
1.0091
1.0075
1.00609
1.00487
1.00384
1.00298
1.00228
1.00172
1.00127
1.00093
1.00066
1.00046
1.00031
1.0002
1.00012
1.00007
1.00003
1.00001
0.999996
0.999987
0.999984
0.99998
0.99998
0.999982
0.999984
0.999987
0.999989
0.999991
0.999993
0.999995
0.999996
0.999997
0.999998
0.999998
0.999999
0.999999
0.999999
1
1
1
1
1
1
1
1
1
1
1
1
1
1
1
1
1
1
1
1
1
1
1
1
1
1
1
1
1
1
1
1
1
1
1
1
1
1
1
1
1
1
1
1.00001
1.00001
1.00001
1.00002
1.00002
1.00002
1.00003
1.00004
1.00004
1.00005
1.00006
1.00008
1.0001
1.00014
1.0002
1.00028
1.00041
1.0006
1.00086
1.00122
1.0017
1.00234
1.00315
1.00416
1.0054
1.00686
1.00854
1.01045
1.01253
1.01476
1.01708
1.01943
1.02174
1.02396
1.02604
1.02792
1.02959
1.03103
1.03223
1.0332
1.03395
1.03452
1.03494
1.03521
1.03539
1.03549
1.03555
1.03557
1.03557
1.03557
1.03557
1.03557
1.03555
1.0355
1.03541
1.03525
1.03498
1.03457
1.03398
1.03318
1.03213
1.03082
1.02925
1.02741
1.02535
1.02311
1.02075
1.01835
1.01597
1.01368
1.01154
1.00958
1.00784
1.00631
1.00501
1.00391
1.00301
1.00228
1.0017
1.00124
1.00089
1.00062
1.00042
1.00028
1.00018
1.0001
1.00005
1.00002
1
0.999988
0.999982
0.999978
0.999978
0.999979
0.999981
0.999984
0.999987
0.99999
0.999992
0.999994
0.999995
0.999996
0.999997
0.999998
0.999999
0.999999
0.999999
1
1
1
1
1
1
1
1
1
1
1
1
1
1
1
1
1
1
1
1
1
1
1
1
1
1
1
1
1
1
1
1
0.999999
1
1
1
1
1
1
1
1
1.00001
1.00001
1.00001
1.00001
1.00002
1.00002
1.00002
1.00003
1.00004
1.00004
1.00005
1.00006
1.00008
1.0001
1.00014
1.00019
1.00027
1.00039
1.00057
1.00082
1.00118
1.00166
1.0023
1.00313
1.00419
1.00548
1.00703
1.00885
1.01091
1.01318
1.01562
1.01816
1.02072
1.02324
1.02562
1.02782
1.02977
1.03144
1.03283
1.03392
1.03473
1.03529
1.03564
1.03581
1.03583
1.03577
1.03563
1.03547
1.03532
1.03518
1.03509
1.03505
1.03507
1.03515
1.03528
1.03544
1.03562
1.03578
1.03588
1.03588
1.03574
1.0354
1.03481
1.03392
1.03271
1.03116
1.02927
1.0271
1.02469
1.02213
1.0195
1.0169
1.0144
1.01207
1.00995
1.00808
1.00645
1.00507
1.00392
1.00299
1.00224
1.00165
1.00119
1.00084
1.00058
1.00038
1.00025
1.00015
1.00008
1.00004
1.00001
0.999991
0.999982
0.999977
0.999975
0.999976
0.999978
0.999981
0.999984
0.999987
0.99999
0.999992
0.999994
0.999995
0.999997
0.999998
0.999998
0.999999
0.999999
1
1
1
1
1
0.999999
1
1
1
1
1
1
1
1
1
1
1
1
1
1
1
1
1
1
1
1
1
1
1
1
1
1
1
1
1
1
1
1
1
1
1
1.00001
1.00001
1.00001
1.00001
1.00002
1.00002
1.00003
1.00004
1.00004
1.00005
1.00007
1.00008
1.0001
1.00013
1.00018
1.00026
1.00037
1.00053
1.00077
1.00112
1.00159
1.00223
1.00307
1.00414
1.00548
1.00711
1.00903
1.01124
1.01369
1.01633
1.01908
1.02185
1.02455
1.02708
1.02937
1.03134
1.03297
1.03424
1.03515
1.03572
1.036
1.03603
1.03586
1.03555
1.03513
1.03467
1.0342
1.03376
1.03337
1.03307
1.03287
1.03279
1.03283
1.03298
1.03326
1.03363
1.03408
1.03458
1.03509
1.03557
1.03596
1.03619
1.0362
1.03591
1.03527
1.03423
1.03275
1.03087
1.02861
1.02606
1.02331
1.02047
1.01766
1.01496
1.01246
1.0102
1.00821
1.0065
1.00507
1.00388
1.00293
1.00217
1.00157
1.00112
1.00078
1.00052
1.00034
1.00021
1.00012
1.00006
1.00002
0.999997
0.999984
0.999977
0.999973
0.999973
0.999975
0.999978
0.999982
0.999985
0.999988
0.999991
0.999993
0.999995
0.999996
0.999997
0.999998
0.999999
0.999999
0.999999
0.999999
1
1
1
1
1
1
1
1
1
1
1
1
1
1
1
1
1
1
1
1
1
1
1
1
1
1
1
1
1
1
1
1
1
1
1
1
1
1
1.00001
1.00001
1.00001
1.00001
1.00002
1.00002
1.00003
1.00004
1.00004
1.00005
1.00007
1.00008
1.0001
1.00013
1.00017
1.00024
1.00034
1.00049
1.00072
1.00104
1.0015
1.00212
1.00295
1.00403
1.0054
1.00708
1.00909
1.01142
1.01404
1.01687
1.01982
1.0228
1.02567
1.02833
1.03067
1.03264
1.03417
1.03527
1.03594
1.03621
1.03614
1.03578
1.0352
1.03447
1.03364
1.03277
1.03191
1.0311
1.03038
1.02978
1.02932
1.02902
1.02889
1.02893
1.02916
1.02955
1.03011
1.03082
1.03164
1.03255
1.0335
1.03444
1.03529
1.03599
1.03643
1.03653
1.0362
1.03538
1.03404
1.03219
1.02987
1.02719
1.02427
1.02124
1.01823
1.01535
1.0127
1.01032
1.00824
1.00647
1.00499
1.00379
1.00282
1.00206
1.00148
1.00104
1.00071
1.00047
1.00029
1.00018
1.00009
1.00004
1.00001
0.999987
0.999979
0.999972
0.99997
0.999972
0.999975
0.999978
0.999982
0.999986
0.999989
0.999992
0.999993
0.999995
0.999997
0.999997
0.999999
0.999998
0.999999
1
0.999999
1
1
1
1
1
1
1
1
1
1
1
1
1
1
1
1
1
1
1
1
1
1
1
1
1
1
1
1
1
1
1
1
1
1
1
1
1
1.00001
1.00001
1.00001
1.00002
1.00002
1.00003
1.00003
1.00004
1.00005
1.00006
1.00008
1.0001
1.00012
1.00016
1.00022
1.00032
1.00045
1.00066
1.00096
1.00139
1.00199
1.0028
1.00386
1.00523
1.00695
1.00902
1.01146
1.01421
1.01722
1.02037
1.02354
1.02657
1.02935
1.03174
1.03367
1.03508
1.03596
1.03634
1.03626
1.03579
1.03499
1.03396
1.03277
1.03148
1.03017
1.02888
1.02766
1.02656
1.02561
1.02482
1.02423
1.02384
1.02366
1.0237
1.02397
1.02446
1.02516
1.02607
1.02716
1.0284
1.02977
1.03121
1.03266
1.03404
1.03525
1.03619
1.03673
1.03677
1.03622
1.03504
1.03324
1.03088
1.02808
1.025
1.02178
1.0186
1.01556
1.01278
1.0103
1.00815
1.00634
1.00485
1.00364
1.00268
1.00194
1.00137
1.00094
1.00063
1.00041
1.00025
1.00014
1.00007
1.00002
0.999994
0.999983
0.999972
0.999968
0.999969
0.999971
0.999975
0.999979
0.999983
0.999987
0.99999
0.999992
0.999994
0.999996
0.999997
0.999998
0.999999
0.999999
0.999999
1
1
1
1
0.999999
1
0.999999
1
1
1
1
1
1
1
1
1
1
1
1
1
1
1
1
1
1
1
1
1
1
1
1
1
1
1
1
1
1
1.00001
1.00001
1.00001
1.00001
1.00002
1.00002
1.00003
1.00004
1.00005
1.00006
1.00008
1.00009
1.00012
1.00016
1.00021
1.00029
1.00041
1.0006
1.00087
1.00127
1.00183
1.00261
1.00364
1.005
1.00671
1.00882
1.01133
1.01421
1.01737
1.02071
1.02406
1.02726
1.03015
1.03258
1.03446
1.03572
1.03637
1.03643
1.03597
1.03507
1.03382
1.03232
1.03065
1.02889
1.02712
1.02539
1.02376
1.02227
1.02094
1.01981
1.01889
1.01819
1.01773
1.01752
1.01756
1.01785
1.01839
1.01919
1.02023
1.0215
1.023
1.02468
1.02652
1.02847
1.03045
1.03238
1.03415
1.03561
1.03663
1.03706
1.03679
1.03578
1.03403
1.03163
1.02872
1.02548
1.0221
1.01875
1.01559
1.0127
1.01015
1.00796
1.00613
1.00464
1.00345
1.00251
1.00179
1.00125
1.00084
1.00055
1.00035
1.0002
1.00011
1.00004
1.00001
0.999991
0.999974
0.999967
0.999966
0.999968
0.999972
0.999976
0.99998
0.999985
0.999988
0.999991
0.999993
0.999995
0.999996
0.999997
0.999998
0.999999
0.999999
0.999999
1
1
1
1
1
1
1
1
0.999999
1
1
1
1
1
1
1
1
1
1
1
1
0.999999
1
1
1
1
1
1
1
1
1
1
1
1
1
1
1.00001
1.00001
1.00001
1.00002
1.00002
1.00003
1.00004
1.00005
1.00006
1.00007
1.00009
1.00011
1.00015
1.00019
1.00026
1.00037
1.00054
1.00078
1.00115
1.00166
1.00239
1.00338
1.00469
1.00639
1.0085
1.01105
1.01402
1.01732
1.02083
1.02436
1.02773
1.03073
1.03321
1.03504
1.03616
1.03656
1.0363
1.03545
1.03412
1.03241
1.03044
1.0283
1.02608
1.02387
1.02173
1.0197
1.01783
1.01614
1.01467
1.01342
1.01242
1.01166
1.01116
1.01092
1.01095
1.01125
1.01181
1.01265
1.01376
1.01514
1.01678
1.01867
1.02078
1.02308
1.02552
1.02803
1.03051
1.03283
1.03483
1.03633
1.03715
1.03716
1.03631
1.0346
1.03214
1.02911
1.02571
1.02218
1.01869
1.01542
1.01246
1.00987
1.00767
1.00585
1.00438
1.00322
1.00231
1.00163
1.00111
1.00074
1.00047
1.00028
1.00016
1.00007
1.00002
1
0.999979
0.999968
0.999964
0.999965
0.999968
0.999973
0.999977
0.999982
0.999986
0.999989
0.999992
0.999994
0.999996
0.999997
0.999998
0.999998
0.999999
0.999999
0.999999
1
1
1
1
1
1
1
1
1
1
1
1
1
1
1
1
1
1
1
1
1
1
1
1
1
1
1
1
1
1
1
1
1
1
1.00001
1.00001
1.00001
1.00002
1.00002
1.00003
1.00003
1.00004
1.00006
1.00007
1.00009
1.00011
1.00014
1.00018
1.00024
1.00033
1.00048
1.0007
1.00102
1.00149
1.00216
1.00309
1.00434
1.00598
1.00806
1.01062
1.01364
1.01705
1.02072
1.02443
1.02797
1.03111
1.03365
1.03544
1.03643
1.03661
1.03603
1.03481
1.03306
1.03091
1.02849
1.0259
1.02326
1.02064
1.0181
1.01571
1.01349
1.01148
1.0097
1.00816
1.00686
1.00583
1.00505
1.00453
1.00428
1.0043
1.00458
1.00515
1.00599
1.00711
1.00852
1.01021
1.01219
1.01443
1.01693
1.01966
1.02258
1.0256
1.02861
1.03148
1.03399
1.03594
1.03713
1.03739
1.03665
1.03495
1.03241
1.02924
1.0257
1.02202
1.01842
1.01507
1.01207
1.00947
1.00729
1.0055
1.00407
1.00295
1.0021
1.00145
1.00098
1.00063
1.00039
1.00023
1.00012
1.00005
1.00002
0.999988
0.99997
0.999963
0.999962
0.999965
0.999969
0.999974
0.999979
0.999983
0.999988
0.99999
0.999993
0.999995
0.999996
0.999998
0.999998
0.999999
0.999999
0.999999
0.999999
1
1
1
1
1
1
1
1
1
1
1
1
1
1
1
1
1
1
1
1
1
1
1
1
1
1
1
1
1
1
1
1
1
1.00001
1.00001
1.00001
1.00002
1.00002
1.00003
1.00004
1.00005
1.00006
1.00008
1.0001
1.00013
1.00016
1.00022
1.0003
1.00042
1.00061
1.00089
1.00131
1.00192
1.00277
1.00394
1.0055
1.00753
1.01006
1.01309
1.01658
1.02037
1.02426
1.02799
1.03128
1.03391
1.0357
1.03659
1.03656
1.0357
1.03413
1.03199
1.02943
1.02659
1.0236
1.02057
1.01757
1.01469
1.01197
1.00945
1.00715
1.0051
1.00329
1.00175
1.00046
0.999438
0.998669
0.998158
0.997904
0.99791
0.998177
0.998712
0.999522
1.00061
1.00199
1.00366
1.00564
1.00791
1.01048
1.01334
1.01647
1.01982
1.02331
1.02684
1.03021
1.03321
1.03558
1.03707
1.03752
1.03685
1.0351
1.03245
1.02913
1.02543
1.02163
1.01795
1.01455
1.01155
1.00897
1.00683
1.0051
1.00373
1.00267
1.00187
1.00127
1.00084
1.00053
1.00032
1.00017
1.00008
1.00005
1
0.999976
0.999964
0.999961
0.999962
0.999966
0.999971
0.999977
0.999981
0.999985
0.999989
0.999992
0.999994
0.999996
0.999997
0.999998
0.999999
0.999999
1
1
1
1
1
1
1
1
1
0.999999
1
1
1
1
1
1
1
1
1
1
1
1
1
1
1
1
1
1
1
1
1
1
1
1
1.00001
1.00001
1.00001
1.00001
1.00002
1.00003
1.00004
1.00005
1.00006
1.00007
1.00009
1.00012
1.00015
1.0002
1.00027
1.00037
1.00053
1.00078
1.00114
1.00168
1.00245
1.00353
1.00499
1.00691
1.00937
1.01238
1.0159
1.0198
1.02385
1.02777
1.03124
1.034
1.03584
1.03667
1.03649
1.03539
1.03351
1.03102
1.02809
1.02487
1.02151
1.01812
1.01479
1.0116
1.00859
1.0058
1.00325
1.00097
0.998949
0.997195
0.995704
0.99447
0.993488
0.992753
0.992262
0.992012
0.992005
0.992243
0.992734
0.993485
0.994508
0.995814
0.997415
0.999322
1.00154
1.00408
1.00694
1.01012
1.01361
1.01737
1.02131
1.02531
1.02916
1.03259
1.0353
1.03704
1.0376
1.03691
1.03506
1.03225
1.02877
1.02493
1.02102
1.01728
1.01388
1.0109
1.00838
1.00632
1.00466
1.00337
1.00238
1.00164
1.00109
1.00071
1.00043
1.00025
1.00013
1.00008
1.00002
0.999985
0.999967
0.99996
0.999959
0.999963
0.999968
0.999973
0.999979
0.999983
0.999987
0.99999
0.999993
0.999995
0.999996
0.999997
0.999998
0.999999
0.999999
0.999999
1
1
1
1
1
0.999999
1
1
1
1
1
1
1
1
1
1
1
1
1
1
1
1
1
1
1
1
1
1
1
1
1
1
1.00001
1.00001
1.00001
1.00002
1.00002
1.00003
1.00004
1.00005
1.00007
1.00009
1.00011
1.00014
1.00018
1.00024
1.00032
1.00046
1.00067
1.00098
1.00145
1.00214
1.0031
1.00444
1.00625
1.00859
1.01152
1.01502
1.01899
1.02318
1.0273
1.03099
1.03393
1.03587
1.0367
1.03642
1.03513
1.033
1.0302
1.02695
1.0234
1.0197
1.016
1.01237
1.00889
1.00563
1.0026
0.999847
0.997368
0.995167
0.993243
0.991587
0.990191
0.989042
0.988129
0.987445
0.986983
0.986741
0.986718
0.986918
0.987349
0.988021
0.988949
0.990148
0.991635
0.993425
0.995534
0.997973
1.00075
1.00387
1.00735
1.01118
1.01531
1.01968
1.02412
1.02839
1.03219
1.03518
1.03706
1.03763
1.03685
1.03483
1.03182
1.02816
1.02418
1.0202
1.01645
1.01307
1.01016
1.00773
1.00576
1.0042
1.00299
1.00208
1.00141
1.00092
1.00058
1.00034
1.00018
1.00013
1.00005
0.999998
0.999972
0.999961
0.999958
0.99996
0.999964
0.99997
0.999976
0.999981
0.999985
0.999989
0.999992
0.999994
0.999996
0.999997
0.999998
0.999998
0.999999
0.999999
1
1
1
1
1
1
1
1
1
1
1
1
1
1
1
1
1
1
1
1
1
1
1
1
1
1
1
1
1
1
1
1.00001
1.00001
1.00001
1.00001
1.00002
1.00003
1.00004
1.00005
1.00006
1.00008
1.0001
1.00012
1.00016
1.00021
1.00028
1.0004
1.00057
1.00084
1.00124
1.00183
1.00269
1.0039
1.00555
1.00774
1.01055
1.01398
1.01796
1.02227
1.02658
1.03051
1.03368
1.03579
1.03669
1.03639
1.03498
1.03265
1.02961
1.02607
1.02222
1.01823
1.01424
1.01034
1.00661
1.00311
0.999883
0.996939
0.994293
0.991945
0.989888
0.988109
0.986594
0.985325
0.984287
0.983464
0.982845
0.982419
0.982184
0.982139
0.982289
0.982643
0.983214
0.98402
0.98508
0.986416
0.988051
0.990004
0.992292
0.994928
0.997924
1.00129
1.00505
1.0092
1.01371
1.01848
1.02333
1.02797
1.03206
1.03522
1.03714
1.03761
1.03664
1.03439
1.03116
1.02731
1.02322
1.01919
1.01546
1.01216
1.00934
1.00702
1.00517
1.00372
1.00261
1.00179
1.00119
1.00076
1.00046
1.00026
1.00019
1.00008
1.00002
0.999981
0.999964
0.999957
0.999958
0.999962
0.999967
0.999973
0.999979
0.999983
0.999988
0.99999
0.999993
0.999995
0.999996
0.999998
0.999998
0.999999
0.999999
1
1
1
1
1
1
1
1
1
1
1
1
1
1
1
1
1
1
1
1
1
1
1
1
1
1
1
1
1
1
1
1.00001
1.00001
1.00001
1.00002
1.00002
1.00003
1.00004
1.00005
1.00007
1.00009
1.00011
1.00014
1.00019
1.00025
1.00034
1.00048
1.00071
1.00104
1.00155
1.00229
1.00336
1.00485
1.00686
1.00949
1.0128
1.01673
1.02111
1.0256
1.02979
1.03323
1.03558
1.03665
1.0364
1.03495
1.03249
1.02925
1.02548
1.02138
1.01713
1.01287
1.00872
1.00476
1.00105
0.997625
0.994514
0.991725
0.989256
0.987097
0.985233
0.983642
0.982303
0.981193
0.98029
0.979574
0.97903
0.978647
0.978418
0.978345
0.978433
0.978691
0.979137
0.979791
0.980677
0.981826
0.983264
0.985019
0.987112
0.989562
0.992384
0.995591
0.999204
1.00325
1.00772
1.0126
1.01775
1.02297
1.02793
1.03221
1.03543
1.03726
1.03753
1.03628
1.03373
1.03025
1.02623
1.02205
1.01802
1.01435
1.01115
1.00847
1.00629
1.00457
1.00324
1.00224
1.00151
1.00098
1.00061
1.00036
1.00026
1.00013
1.00004
0.999995
0.999969
0.999958
0.999956
0.999959
0.999964
0.99997
0.999976
0.999981
0.999986
0.99999
0.999992
0.999995
0.999996
0.999997
0.999998
0.999999
0.999999
1
1
1
1
1
1
1
1
1
1
1
1
1
1
1
1
1
1
1
1
1
1
1
1
1
1
1
1
1
1
1
1.00001
1.00001
1.00001
1.00002
1.00003
1.00004
1.00005
1.00006
1.00008
1.0001
1.00013
1.00016
1.00022
1.00029
1.00041
1.00059
1.00087
1.00129
1.00193
1.00285
1.00416
1.00597
1.0084
1.01152
1.01533
1.01971
1.02435
1.02879
1.03257
1.03524
1.03655
1.03645
1.03504
1.03252
1.02916
1.02521
1.02089
1.0164
1.01191
1.00752
1.00334
0.99942
0.995814
0.992546
0.989627
0.987057
0.984823
0.982906
0.981281
0.979921
0.978794
0.977872
0.977128
0.976537
0.976082
0.975747
0.975526
0.975418
0.97543
0.975574
0.97587
0.97634
0.977016
0.977932
0.979126
0.980632
0.982483
0.984701
0.987305
0.990308
0.993728
0.997591
1.00193
1.00674
1.01199
1.01752
1.02306
1.02825
1.03263
1.03578
1.03738
1.03733
1.03571
1.03284
1.0291
1.02493
1.0207
1.01672
1.01315
1.0101
1.00757
1.00555
1.00398
1.00278
1.00189
1.00125
1.00079
1.00048
1.00036
1.00019
1.00008
1.00001
0.999978
0.999961
0.999956
0.999957
0.999961
0.999968
0.999974
0.999979
0.999984
0.999988
0.999991
0.999994
0.999995
0.999997
0.999998
0.999998
0.999999
0.999999
1
1
1
1
1
1
1
1
1
1
1
1
1
1
1
1
1
1
1
1
1
1
1
1
1
1
1
1
1
1
1.00001
1.00001
1.00002
1.00002
1.00003
1.00004
1.00005
1.00007
1.00009
1.00011
1.00015
1.00019
1.00025
1.00035
1.00049
1.00072
1.00107
1.0016
1.00238
1.00352
1.00511
1.0073
1.01018
1.01381
1.01811
1.02282
1.02752
1.03164
1.03471
1.03637
1.03652
1.03525
1.03276
1.02933
1.02525
1.02076
1.01607
1.01135
1.00674
1.00233
0.998213
0.994426
0.991005
0.987965
0.985305
0.983014
0.981072
0.97945
0.978113
0.977024
0.976147
0.975445
0.974886
0.974441
0.974088
0.97381
0.9736
0.973453
0.973378
0.97339
0.97351
0.973765
0.97419
0.974827
0.975722
0.97692
0.978465
0.980392
0.982724
0.985479
0.988668
0.992313
0.996445
1.0011
1.00627
1.01189
1.01778
1.0236
1.02893
1.03327
1.03621
1.03746
1.03697
1.03493
1.03169
1.02771
1.02343
1.01921
1.01531
1.01189
1.00901
1.00667
1.00483
1.00341
1.00234
1.00157
1.00101
1.00062
1.00047
1.00026
1.00012
1.00004
0.999991
0.999966
0.999957
0.999956
0.999959
0.999965
0.999971
0.999977
0.999982
0.999987
0.99999
0.999993
0.999995
0.999996
0.999998
0.999998
0.999999
0.999999
1
1
1
1
1
1
1
1
1
1
1
1
1
1
1
1
1
1
0.999999
1
0.999999
1
1
1
1
1
1
1
1
1.00001
1.00001
1.00001
1.00002
1.00002
1.00003
1.00005
1.00006
1.00008
1.0001
1.00013
1.00017
1.00022
1.00029
1.00041
1.00059
1.00088
1.00131
1.00196
1.00292
1.0043
1.00623
1.00883
1.0122
1.01634
1.02105
1.02594
1.03043
1.03394
1.03605
1.03657
1.03554
1.03317
1.02976
1.02561
1.02098
1.01611
1.01119
1.00636
1.00174
0.997411
0.99344
0.989861
0.986696
0.983952
0.981618
0.97967
0.978078
0.976804
0.975804
0.975032
0.974443
0.973995
0.973649
0.973372
0.973137
0.972927
0.972731
0.972546
0.972378
0.972244
0.972166
0.972177
0.972315
0.972626
0.973164
0.973988
0.975155
0.976715
0.978704
0.981147
0.984055
0.987442
0.991333
0.995763
1.00076
1.00632
1.01232
1.01853
1.02456
1.02991
1.03407
1.03664
1.0374
1.03639
1.03388
1.03029
1.02611
1.02176
1.01759
1.01384
1.0106
1.00793
1.00579
1.00413
1.00287
1.00194
1.00127
1.0008
1.00061
1.00035
1.00018
1.00007
1.00001
0.999974
0.999959
0.999955
0.999957
0.999962
0.999969
0.999975
0.99998
0.999985
0.999989
0.999992
0.999994
0.999996
0.999997
0.999998
0.999999
0.999999
0.999999
1
1
1
1
1
1
1
0.999999
1
1
1
1
1
1
1
1
1
1
1
1
1
1
1
1
1
1
1
1
1.00001
1.00001
1.00001
1.00002
1.00003
1.00004
1.00005
1.00007
1.00009
1.00011
1.00014
1.00019
1.00025
1.00034
1.00049
1.00071
1.00106
1.00159
1.00239
1.00356
1.00523
1.00752
1.01058
1.01447
1.01907
1.02406
1.02889
1.03289
1.03553
1.03653
1.03586
1.03372
1.03041
1.02626
1.02154
1.01653
1.01142
1.00638
1.00154
0.997001
0.992832
0.989087
0.985791
0.982957
0.980579
0.978637
0.977096
0.975915
0.975045
0.974432
0.974021
0.973759
0.973594
0.973486
0.973396
0.973295
0.973163
0.972987
0.972767
0.972505
0.972218
0.97193
0.971676
0.971498
0.971444
0.971577
0.971963
0.972675
0.973781
0.975339
0.977385
0.97994
0.983014
0.986619
0.990786
0.995552
1.00094
1.0069
1.01328
1.01975
1.02588
1.03111
1.03494
1.03699
1.03715
1.03555
1.03256
1.02864
1.0243
1.01995
1.0159
1.01233
1.00932
1.00687
1.00495
1.00347
1.00237
1.00157
1.001
1.00078
1.00045
1.00024
1.00011
1.00003
0.999986
0.999964
0.999956
0.999956
0.99996
0.999966
0.999973
0.999979
0.999983
0.999988
0.999991
0.999994
0.999995
0.999997
0.999998
0.999999
0.999999
0.999999
0.999999
1
1
1
1
1
1
1
1
1
1
1
1
1
1
1
1
1
1
1
1
1
1
1
1
1
1
1.00001
1.00001
1.00001
1.00002
1.00002
1.00003
1.00004
1.00006
1.00007
1.0001
1.00012
1.00016
1.00021
1.00029
1.0004
1.00058
1.00085
1.00128
1.00193
1.0029
1.00431
1.00629
1.00901
1.01255
1.01694
1.02192
1.027
1.03149
1.03474
1.03633
1.03615
1.03436
1.03126
1.02717
1.02243
1.01731
1.01204
1.00679
1.00174
0.996973
0.992594
0.988663
0.98522
0.982284
0.979854
0.977914
0.976433
0.975364
0.974654
0.974241
0.97406
0.974047
0.97414
0.974282
0.974425
0.974532
0.974573
0.974524
0.974375
0.974123
0.973772
0.973336
0.972838
0.972312
0.971804
0.971364
0.971057
0.970957
0.971149
0.97172
0.97275
0.974299
0.976406
0.979085
0.982344
0.986199
0.990683
0.995828
1.00164
1.00801
1.01473
1.0214
1.0275
1.03245
1.03576
1.03716
1.03662
1.0344
1.03095
1.02676
1.02234
1.01806
1.01418
1.01084
1.00807
1.00587
1.00416
1.00287
1.00193
1.00125
1.00097
1.00058
1.00033
1.00016
1.00006
1
0.999972
0.999959
0.999956
0.999959
0.999964
0.999971
0.999977
0.999982
0.999987
0.99999
0.999993
0.999995
0.999996
0.999998
0.999998
0.999999
0.999999
0.999999
1
1
1
1
1
1
1
1
1
1
1
1
1
1
1
1
1
1
1
1
1
1
1
1
1
1
1.00001
1.00001
1.00001
1.00002
1.00002
1.00003
1.00005
1.00006
1.00008
1.00011
1.00014
1.00018
1.00024
1.00033
1.00047
1.00068
1.00102
1.00154
1.00233
1.00349
1.00517
1.00752
1.01068
1.01473
1.01957
1.02479
1.02971
1.03361
1.03589
1.03634
1.03502
1.03223
1.02831
1.02361
1.01843
1.01302
1.00759
1.00231
0.997321
0.992717
0.98858
0.984964
0.981901
0.9794
0.977448
0.976019
0.975068
0.974534
0.974349
0.974436
0.97472
0.975125
0.975583
0.976032
0.976424
0.97672
0.976893
0.976924
0.976801
0.976522
0.976091
0.975521
0.974831
0.97405
0.973222
0.972399
0.971645
0.971038
0.970669
0.970642
0.971059
0.972011
0.973562
0.975744
0.97857
0.982047
0.986194
0.991044
0.996617
1.00287
1.00966
1.01667
1.02341
1.02931
1.03379
1.03643
1.03705
1.03576
1.03293
1.02906
1.02469
1.02026
1.01612
1.01246
1.00938
1.00688
1.00493
1.00343
1.00233
1.00153
1.00119
1.00073
1.00042
1.00022
1.0001
1.00002
0.999982
0.999963
0.999957
0.999958
0.999963
0.999969
0.999975
0.99998
0.999985
0.999989
0.999992
0.999994
0.999996
0.999997
0.999998
0.999999
0.999999
0.999999
1
1
1
1
1
1
1
1
1
1
1
1
1
1
0.999999
1
1
1
0.999999
1
1
1
1
1
1
1
1.00001
1.00001
1.00001
1.00002
1.00003
1.00004
1.00005
1.00007
1.00009
1.00012
1.00015
1.0002
1.00027
1.00038
1.00054
1.0008
1.00121
1.00184
1.00279
1.00417
1.00616
1.0089
1.01254
1.01709
1.02228
1.02753
1.03205
1.03511
1.03631
1.03562
1.03327
1.02963
1.02505
1.01987
1.01437
1.00877
1.00328
0.998045
0.993196
0.98883
0.985014
0.981792
0.979186
0.977196
0.975798
0.97495
0.974591
0.974644
0.975022
0.975633
0.976388
0.977201
0.978001
0.978728
0.979335
0.979787
0.980064
0.980154
0.98005
0.97975
0.979256
0.978578
0.97773
0.976736
0.97563
0.974459
0.973287
0.972187
0.971256
0.970604
0.970354
0.970627
0.971519
0.973095
0.975384
0.978394
0.982135
0.98663
0.991903
0.997946
1.00467
1.01183
1.01901
1.02567
1.03118
1.03501
1.03682
1.03657
1.03452
1.03113
1.02693
1.02246
1.01811
1.01417
1.01078
1.00799
1.00577
1.00407
1.00279
1.00185
1.00144
1.0009
1.00053
1.00029
1.00014
1.00005
0.999996
0.999969
0.999959
0.999958
0.999961
0.999967
0.999973
0.999979
0.999984
0.999988
0.999991
0.999994
0.999995
0.999997
0.999998
0.999998
0.999999
0.999999
0.999999
1
1
1
1
1
1
1
1
1
1
1
1
1
1
1
1
1
1
1
1
1
1
1
1
1
1.00001
1.00001
1.00001
1.00002
1.00003
1.00004
1.00006
1.00007
1.0001
1.00013
1.00017
1.00022
1.00031
1.00043
1.00063
1.00095
1.00144
1.00219
1.00331
1.00495
1.00728
1.01045
1.01458
1.01957
1.02497
1.03003
1.03389
1.03596
1.03604
1.03429
1.03105
1.02669
1.02159
1.01604
1.01031
1.00462
0.999148
0.994042
0.989417
0.985366
0.981947
0.979195
0.977124
0.975721
0.974947
0.974742
0.975024
0.975694
0.976645
0.977767
0.978958
0.980129
0.981208
0.982143
0.982895
0.983444
0.983777
0.983893
0.983792
0.983474
0.98294
0.982195
0.981245
0.980104
0.978793
0.977349
0.975825
0.974292
0.97284
0.971583
0.970656
0.970205
0.970363
0.971233
0.972876
0.975318
0.978566
0.982634
0.987541
0.993294
0.99984
1.00701
1.01446
1.02169
1.02806
1.03297
1.03596
1.03682
1.03567
1.03289
1.02902
1.0246
1.02013
1.01595
1.01227
1.00919
1.0067
1.00476
1.0033
1.00222
1.00173
1.0011
1.00066
1.00038
1.00019
1.00008
1.00001
0.999978
0.999963
0.999959
0.999961
0.999966
0.999972
0.999978
0.999983
0.999987
0.999991
0.999993
0.999995
0.999997
0.999998
0.999999
0.999999
1
1
1
1
1
1
1
1
1
1
1
1
1
1
1
1
1
1
1
1
0.999999
1
1
1
1
1
1
1.00001
1.00001
1.00002
1.00002
1.00003
1.00005
1.00006
1.00008
1.00011
1.00014
1.00018
1.00025
1.00035
1.0005
1.00074
1.00111
1.0017
1.00259
1.00392
1.00584
1.00853
1.01216
1.01677
1.0221
1.02753
1.03215
1.03516
1.03616
1.03517
1.03248
1.02848
1.02354
1.01802
1.0122
1.00634
1.00063
0.995255
0.990352
0.986029
0.982368
0.979421
0.977217
0.975755
0.975009
0.97492
0.975403
0.976349
0.977632
0.97912
0.98069
0.982233
0.983662
0.984913
0.985946
0.986745
0.987306
0.987632
0.987732
0.987615
0.987288
0.986748
0.985991
0.985011
0.983809
0.982392
0.980781
0.979012
0.977145
0.97526
0.973467
0.971905
0.970735
0.970126
0.970222
0.971127
0.972898
0.975556
0.979113
0.983581
0.98897
0.995254
1.00231
1.00987
1.01749
1.02456
1.03043
1.03452
1.03651
1.03635
1.03431
1.03089
1.02665
1.02214
1.01777
1.01383
1.01046
1.00771
1.00553
1.00386
1.00262
1.00204
1.00131
1.00081
1.00047
1.00025
1.00011
1.00003
0.999989
0.999968
0.99996
0.999961
0.999965
0.99997
0.999976
0.999982
0.999986
0.99999
0.999993
0.999995
0.999996
0.999998
0.999998
0.999999
0.999999
1
0.999999
1
1
1
1
1
1
1
1
1
1
1
1
1
1
1
1
1
1
1
1
1
1
1
1.00001
1.00001
1.00001
1.00002
1.00003
1.00004
1.00005
1.00007
1.00009
1.00011
1.00015
1.0002
1.00028
1.00039
1.00057
1.00085
1.0013
1.00199
1.00304
1.0046
1.00683
1.00992
1.01402
1.01906
1.02461
1.02984
1.03381
1.03586
1.0358
1.03382
1.03031
1.02567
1.02026
1.01442
1.00841
1.00249
0.996847
0.991646
0.98702
0.98307
0.979872
0.977472
0.975888
0.975105
0.975075
0.975713
0.976899
0.978491
0.980333
0.982271
0.984171
0.985927
0.987466
0.988743
0.989742
0.990471
0.990948
0.991197
0.991241
0.991096
0.990772
0.990266
0.989563
0.988642
0.987485
0.986079
0.984427
0.982547
0.980478
0.978287
0.976071
0.973963
0.972134
0.970775
0.970073
0.970178
0.971192
0.973166
0.976123
0.980073
0.985024
0.990964
0.997809
1.00535
1.01319
1.02079
1.02747
1.03258
1.03567
1.03654
1.03534
1.03249
1.02855
1.02409
1.0196
1.01544
1.0118
1.00878
1.00635
1.00448
1.00307
1.00239
1.00156
1.00098
1.00058
1.00032
1.00016
1.00006
1
0.999975
0.999963
0.999962
0.999964
0.999969
0.999975
0.999981
0.999985
0.999989
0.999992
0.999994
0.999996
0.999997
0.999998
0.999999
0.999999
1
0.999999
1
1
1
1
1
1
1
1
1
1
1
1
1
1
1
1
1
1
1
1
1
1
1
1.00001
1.00001
1.00001
1.00002
1.00003
1.00004
1.00005
1.00007
1.00009
1.00012
1.00016
1.00022
1.00031
1.00044
1.00065
1.00099
1.00152
1.00233
1.00356
1.00536
1.00793
1.01144
1.016
1.0214
1.027
1.03182
1.03498
1.03601
1.03494
1.0321
1.02788
1.0227
1.01692
1.01084
1.00473
0.998828
0.993317
0.988358
0.984078
0.980572
0.977908
0.976125
0.975229
0.975183
0.975909
0.977283
0.979145
0.98131
0.983596
0.985836
0.987897
0.989686
0.991157
0.992296
0.993119
0.993658
0.993958
0.994067
0.99402
0.993841
0.993544
0.993121
0.992547
0.991785
0.990791
0.989528
0.987974
0.986127
0.984008
0.981661
0.979167
0.976643
0.974259
0.972218
0.97074
0.970026
0.970228
0.971441
0.973712
0.977063
0.981501
0.987021
0.993565
1.00097
1.0089
1.01686
1.0242
1.03022
1.03436
1.03627
1.03598
1.0338
1.03026
1.02595
1.02141
1.01707
1.01319
1.0099
1.00724
1.00515
1.00356
1.00278
1.00183
1.00116
1.0007
1.0004
1.00021
1.00009
1.00002
0.999984
0.999967
0.999963
0.999964
0.999969
0.999974
0.99998
0.999984
0.999988
0.999992
0.999994
0.999996
0.999997
0.999998
0.999999
0.999999
1
1
1
1
1
1
1
1
1
1
1
1
1
1
1
1
1
1
1
0.999999
1
1
1
1
1
1.00001
1.00001
1.00002
1.00002
1.00003
1.00004
1.00006
1.00008
1.0001
1.00013
1.00018
1.00024
1.00034
1.0005
1.00075
1.00114
1.00176
1.00271
1.00413
1.0062
1.00913
1.01308
1.01807
1.02371
1.02917
1.0334
1.03565
1.03568
1.0337
1.03009
1.02527
1.01965
1.01357
1.00733
1.00119
0.995379
0.990071
0.985422
0.981552
0.978555
0.976494
0.975395
0.975243
0.975973
0.977463
0.979539
0.98199
0.984598
0.987157
0.989502
0.991518
0.993142
0.99436
0.995198
0.995704
0.995942
0.995981
0.995888
0.995718
0.995505
0.995262
0.994978
0.994617
0.994122
0.993421
0.992446
0.991143
0.989485
0.987472
0.98513
0.982517
0.979733
0.976931
0.974317
0.972134
0.970624
0.969995
0.970396
0.971912
0.974587
0.978438
0.983464
0.989626
0.996793
1.0047
1.01288
1.02073
1.02753
1.03262
1.03557
1.03622
1.0348
1.03175
1.02768
1.02317
1.01871
1.01462
1.01108
1.00817
1.00586
1.00409
1.00319
1.00212
1.00136
1.00084
1.00049
1.00027
1.00012
1.00004
0.999996
0.999973
0.999965
0.999965
0.999968
0.999973
0.999979
0.999984
0.999987
0.999991
0.999993
0.999995
0.999997
0.999998
0.999999
0.999999
0.999999
1
1
0.999999
1
1
1
1
1
1
1
1
1
1
1
1
1
1
1
1
1
1
1
1
1
1.00001
1.00001
1.00002
1.00002
1.00003
1.00005
1.00006
1.00008
1.00011
1.00014
1.00019
1.00027
1.00038