/*--------------------------------*- C++ -*----------------------------------*\
  =========                 |
  \\      /  F ield         | OpenFOAM: The Open Source CFD Toolbox
   \\    /   O peration     | Website:  https://openfoam.org
    \\  /    A nd           | Version:  6
     \\/     M anipulation  |
\*---------------------------------------------------------------------------*/
FoamFile
{
    version     2.0;
    format      ascii;
    class       volScalarField;
    location    "2.68";
    object      p;
}
// * * * * * * * * * * * * * * * * * * * * * * * * * * * * * * * * * * * * * //

dimensions      [1 -1 -2 0 0 0 0];

internalField   nonuniform List<scalar> 
5625
(
0.999999
0.999998
0.999998
0.999997
0.999997
0.999997
0.999997
0.999997
0.999997
0.999996
0.999997
0.999997
0.999997
0.999998
0.999998
0.999999
0.999999
1
1
1
1
1
1
1
1
1
1
1
1
1
1
1
1
1
1
1
1
1
1
1
1
1
1
1
1
1
1
1
1
1
1
1
1
1
1
1
1
1
1
1
1
1
1
1
1
1
1
1
1
1
1
1
1
1
1
0.999998
0.999997
0.999997
0.999997
0.999996
0.999996
0.999995
0.999995
0.999995
0.999995
0.999995
0.999996
0.999996
0.999997
0.999997
0.999998
0.999999
1
1
1
1
1
1
1
1
1
1.00001
1
1
1
1
1
1
1
1
1
1
1
1
1
1
1
1
1
1
1
1
1
1
1
1
1
1
1
1
1
1
1
1
1
1
1
1
1
1
1
1
1
1
1
1
1
1
1
1
0.999997
0.999996
0.999996
0.999995
0.999995
0.999994
0.999994
0.999994
0.999993
0.999994
0.999994
0.999994
0.999995
0.999996
0.999997
0.999998
0.999999
1
1
1
1
1
1.00001
1.00001
1.00001
1.00001
1.00001
1.00001
1.00001
1.00001
1.00001
1.00001
1
1
1
1
1
1
1
1
1
1
1
1
1
1
1
1
1
1
1
1
1
1
1
1
1
1
1
1
1
1
1
1
1
1
1
1
1
1
1
1
1
1
1
0.999996
0.999995
0.999994
0.999994
0.999993
0.999992
0.999992
0.999992
0.999991
0.999992
0.999992
0.999992
0.999993
0.999995
0.999996
0.999997
0.999999
1
1
1
1
1.00001
1.00001
1.00001
1.00001
1.00001
1.00001
1.00001
1.00001
1.00001
1.00001
1.00001
1.00001
1.00001
1
1
1
1
1
1
1
1
1
1
1
1
1
1
1
1
1
1
1
1
1
1
1
1
1
1
1
1
1
1
1
1
1
1
1
1
1
1
1
1
1
0.999995
0.999993
0.999993
0.999992
0.999991
0.99999
0.999989
0.999989
0.999989
0.999989
0.999989
0.99999
0.999991
0.999993
0.999994
0.999996
0.999999
1
1
1
1.00001
1.00001
1.00001
1.00001
1.00001
1.00001
1.00001
1.00001
1.00001
1.00001
1.00001
1.00001
1.00001
1.00001
1.00001
1.00001
1
1
1
1
1
1
1
1
1
1
1
1
1
1
1
1
1
1
1
1
1
1
1
1
1
1
1
1
1
1
1
1
1
1
1
1
1
1
1
0.999993
0.999991
0.99999
0.999989
0.999988
0.999987
0.999986
0.999985
0.999985
0.999986
0.999986
0.999987
0.999989
0.999991
0.999993
0.999996
0.999998
1
1
1.00001
1.00001
1.00001
1.00001
1.00001
1.00002
1.00002
1.00002
1.00002
1.00002
1.00001
1.00001
1.00001
1.00001
1.00001
1.00001
1.00001
1.00001
1
1
1
1
1
1
1
1
1
1
1
1
1
1
1
1
1
1
1
1
1
1
1
1
1
1
1
1
1
1
1
1
1
1
1
1
1
1
0.99999
0.999989
0.999987
0.999986
0.999984
0.999983
0.999982
0.999981
0.999981
0.999981
0.999983
0.999984
0.999986
0.999989
0.999992
0.999995
0.999999
1
1.00001
1.00001
1.00001
1.00002
1.00002
1.00002
1.00002
1.00002
1.00002
1.00002
1.00002
1.00002
1.00002
1.00002
1.00001
1.00001
1.00001
1.00001
1.00001
1.00001
1
1
1
1
1
1
1
1
1
1
1
1
1
1
1
1
1
1
1
1
1
1
1
1
1
1
1
1
1
1
1
1
1
1
1
1
1
0.999988
0.999985
0.999983
0.999981
0.99998
0.999978
0.999977
0.999977
0.999976
0.999977
0.999978
0.999981
0.999984
0.999987
0.999991
0.999995
1
1
1.00001
1.00001
1.00002
1.00002
1.00002
1.00003
1.00003
1.00003
1.00003
1.00003
1.00003
1.00003
1.00002
1.00002
1.00002
1.00002
1.00001
1.00001
1.00001
1.00001
1.00001
1
1
1
1
1
1
1
1
1
1
1
1
1
1
1
1
1
1
1
1
1
1
1
1
1
1
1
1
1
1
1
1
1
1
1
1
0.999984
0.999982
0.999979
0.999976
0.999974
0.999972
0.999971
0.999971
0.999971
0.999972
0.999974
0.999977
0.999981
0.999986
0.999991
0.999997
1
1.00001
1.00001
1.00002
1.00003
1.00003
1.00003
1.00004
1.00004
1.00004
1.00004
1.00004
1.00004
1.00003
1.00003
1.00003
1.00002
1.00002
1.00002
1.00002
1.00001
1.00001
1.00001
1.00001
1
1
1
1
1
1
1
1
1
1
1
1
1
1
1
1
1
1
1
1
1
1
1
1
1
1
1
1
1
1
1
1
1
1
1
0.99998
0.999977
0.999974
0.999971
0.999968
0.999966
0.999965
0.999965
0.999966
0.999967
0.99997
0.999975
0.99998
0.999987
0.999993
1
1.00001
1.00002
1.00002
1.00003
1.00004
1.00004
1.00005
1.00005
1.00005
1.00005
1.00005
1.00005
1.00005
1.00004
1.00004
1.00004
1.00003
1.00003
1.00002
1.00002
1.00002
1.00001
1.00001
1.00001
1.00001
1
1
1
1
1
1
1
1
1
1
1
1
1
1
1
1
1
1
1
1
1
1
1
1
1
1
1
1
1
1
1
1
1
1
0.999976
0.999972
0.999968
0.999964
0.999962
0.99996
0.999959
0.999959
0.999961
0.999964
0.999968
0.999975
0.999982
0.99999
0.999999
1.00001
1.00002
1.00003
1.00004
1.00005
1.00005
1.00006
1.00006
1.00007
1.00007
1.00007
1.00007
1.00006
1.00006
1.00006
1.00005
1.00005
1.00004
1.00004
1.00003
1.00003
1.00002
1.00002
1.00001
1.00001
1.00001
1.00001
1
1
1
1
1
1
1
1
1
1
1
1
1
1
1
1
1
1
1
1
1
1
1
1
1
1
1
1
1
1
1
1
1
0.99997
0.999966
0.999961
0.999957
0.999955
0.999953
0.999953
0.999954
0.999958
0.999963
0.99997
0.999978
0.999989
1
1.00001
1.00002
1.00004
1.00005
1.00006
1.00007
1.00008
1.00008
1.00009
1.00009
1.00009
1.00009
1.00009
1.00008
1.00008
1.00007
1.00007
1.00006
1.00005
1.00005
1.00004
1.00003
1.00003
1.00002
1.00002
1.00001
1.00001
1.00001
1.00001
1
1
1
1
1
1
1
1
1
1
1
1
1
1
1
1
1
1
1
1
1
1
1
1
1
1
1
1
1
1
1
1
0.999964
0.999959
0.999955
0.999951
0.999949
0.999949
0.99995
0.999953
0.999959
0.999967
0.999977
0.99999
1
1.00002
1.00003
1.00005
1.00007
1.00008
1.00009
1.0001
1.00011
1.00012
1.00012
1.00013
1.00013
1.00012
1.00012
1.00011
1.0001
1.0001
1.00009
1.00008
1.00007
1.00006
1.00005
1.00004
1.00003
1.00003
1.00002
1.00002
1.00001
1.00001
1.00001
1
1
1
1
1
1
1
1
1
1
1
1
1
1
1
1
1
1
1
1
1
1
1
1
1
1
1
1
1
1
1
1
0.999959
0.999953
0.999949
0.999946
0.999945
0.999947
0.99995
0.999957
0.999967
0.99998
0.999995
1.00001
1.00003
1.00005
1.00007
1.00009
1.00011
1.00013
1.00015
1.00016
1.00017
1.00018
1.00018
1.00018
1.00017
1.00017
1.00016
1.00015
1.00014
1.00013
1.00011
1.0001
1.00009
1.00007
1.00006
1.00005
1.00004
1.00003
1.00003
1.00002
1.00001
1.00001
1.00001
1
1
1
1
1
1
1
1
1
1
1
1
1
1
1
1
1
1
1
1
1
1
1
1
1
1
1
1
1
1
1
1
0.999954
0.999949
0.999946
0.999944
0.999945
0.999951
0.999959
0.999971
0.999987
1.00001
1.00003
1.00006
1.00008
1.00011
1.00014
1.00017
1.00019
1.00021
1.00023
1.00024
1.00025
1.00026
1.00026
1.00025
1.00024
1.00023
1.00022
1.0002
1.00018
1.00017
1.00015
1.00013
1.00011
1.0001
1.00008
1.00007
1.00005
1.00004
1.00003
1.00002
1.00002
1.00001
1.00001
1.00001
1
1
1
1
1
0.999999
0.999999
0.999999
0.999999
1
1
1
1
1
1
1
1
1
1
1
1
1
1
1
1
1
1
1
1
1
1
0.999951
0.999948
0.999946
0.999948
0.999954
0.999964
0.99998
1
1.00003
1.00006
1.00009
1.00013
1.00017
1.00021
1.00024
1.00028
1.00031
1.00033
1.00035
1.00037
1.00037
1.00037
1.00037
1.00036
1.00034
1.00032
1.0003
1.00027
1.00025
1.00022
1.00019
1.00017
1.00014
1.00012
1.0001
1.00008
1.00007
1.00005
1.00004
1.00003
1.00002
1.00002
1.00001
1.00001
1
1
1
1
0.999999
0.999999
0.999999
0.999999
0.999999
0.999999
0.999999
1
1
1
1
1
1
1
1
1
1
1
1
1
1
1
1
1
1
1
1
0.999951
0.999951
0.999954
0.999961
0.999974
0.999994
1.00002
1.00005
1.0001
1.00014
1.00019
1.00024
1.0003
1.00035
1.0004
1.00045
1.00049
1.00052
1.00054
1.00055
1.00056
1.00055
1.00053
1.00051
1.00048
1.00045
1.00041
1.00037
1.00034
1.0003
1.00026
1.00022
1.00019
1.00016
1.00013
1.00011
1.00008
1.00007
1.00005
1.00004
1.00003
1.00002
1.00001
1.00001
1
1
1
0.999999
0.999999
0.999999
0.999998
0.999999
0.999999
0.999999
0.999999
0.999999
1
1
1
1
1
1
1
1
1
1
1
1
1
1
1
1
1
1
1
0.999958
0.999962
0.999972
0.999989
1.00001
1.00005
1.00009
1.00015
1.00021
1.00028
1.00035
1.00042
1.0005
1.00057
1.00064
1.0007
1.00075
1.00079
1.00081
1.00082
1.00082
1.0008
1.00077
1.00073
1.00069
1.00063
1.00058
1.00052
1.00046
1.0004
1.00035
1.00029
1.00025
1.00021
1.00017
1.00013
1.00011
1.00008
1.00006
1.00005
1.00003
1.00002
1.00001
1.00001
1
1
1
0.999999
0.999998
0.999998
0.999998
0.999998
0.999998
0.999999
0.999999
0.999999
0.999999
1
1
1
1
1
1
1
1
1
1
1
1
1
1
1
1
1
1
0.999974
0.999987
1.00001
1.00004
1.00008
1.00014
1.00021
1.00029
1.00038
1.00048
1.00059
1.0007
1.0008
1.0009
1.001
1.00107
1.00114
1.00118
1.00121
1.00121
1.0012
1.00116
1.00111
1.00105
1.00097
1.00089
1.00081
1.00072
1.00063
1.00055
1.00047
1.00039
1.00033
1.00027
1.00022
1.00017
1.00014
1.0001
1.00008
1.00006
1.00004
1.00003
1.00002
1.00001
1
1
0.999999
0.999997
0.999997
0.999997
0.999997
0.999997
0.999998
0.999998
0.999998
0.999999
0.999999
0.999999
1
1
1
1
1
1
1
1
1
1
1
1
1
1
1
1
1
1
1.00003
1.00007
1.00013
1.0002
1.00028
1.00039
1.00051
1.00064
1.00079
1.00094
1.00109
1.00124
1.00138
1.0015
1.00161
1.00169
1.00174
1.00176
1.00176
1.00173
1.00167
1.00159
1.00149
1.00138
1.00126
1.00113
1.001
1.00087
1.00075
1.00064
1.00053
1.00044
1.00036
1.00029
1.00023
1.00018
1.00013
1.0001
1.00007
1.00005
1.00003
1.00002
1.00001
1
1
0.999997
0.999996
0.999995
0.999995
0.999996
0.999996
0.999997
0.999997
0.999998
0.999998
0.999999
0.999999
0.999999
1
1
1
1
1
1
1
1
1
1
1
1
1
1
1
1
1.00006
1.0001
1.00017
1.00026
1.00037
1.0005
1.00066
1.00084
1.00103
1.00124
1.00145
1.00166
1.00186
1.00205
1.00222
1.00235
1.00245
1.00252
1.00254
1.00253
1.00247
1.00238
1.00226
1.00211
1.00195
1.00177
1.00158
1.00139
1.00121
1.00103
1.00087
1.00073
1.0006
1.00048
1.00038
1.0003
1.00023
1.00017
1.00013
1.00009
1.00006
1.00004
1.00002
1.00001
1
0.999999
0.999996
0.999994
0.999994
0.999994
0.999994
0.999995
0.999996
0.999997
0.999997
0.999998
0.999998
0.999999
0.999999
0.999999
1
1
1
1
1
1
1
1
1
1
1
1
1
1
1
1.00014
1.00022
1.00032
1.00046
1.00062
1.00082
1.00105
1.0013
1.00158
1.00187
1.00216
1.00245
1.00273
1.00298
1.0032
1.00338
1.00351
1.00358
1.00361
1.00358
1.00349
1.00336
1.00318
1.00296
1.00272
1.00247
1.0022
1.00193
1.00167
1.00143
1.0012
1.00099
1.00081
1.00065
1.00051
1.0004
1.0003
1.00023
1.00016
1.00012
1.00008
1.00005
1.00003
1.00001
1
0.999998
0.999994
0.999992
0.999991
0.999992
0.999992
0.999993
0.999994
0.999995
0.999996
0.999997
0.999998
0.999998
0.999999
0.999999
0.999999
1
1
1
1
1
1
1
1
1
1
1
1
1
1
1.00027
1.00039
1.00055
1.00075
1.00099
1.00128
1.0016
1.00196
1.00234
1.00274
1.00314
1.00353
1.0039
1.00424
1.00452
1.00476
1.00492
1.00502
1.00504
1.00498
1.00486
1.00466
1.00441
1.00411
1.00378
1.00342
1.00304
1.00267
1.00231
1.00196
1.00164
1.00136
1.0011
1.00088
1.00069
1.00053
1.0004
1.0003
1.00021
1.00015
1.0001
1.00006
1.00004
1.00002
1
0.999996
0.999992
0.999989
0.999989
0.999989
0.99999
0.999991
0.999993
0.999994
0.999995
0.999996
0.999997
0.999998
0.999999
0.999999
0.999999
1
1
1
1
1
1
1
1
1
1
1
1
1
1
1.00045
1.00064
1.00087
1.00116
1.00151
1.00191
1.00236
1.00285
1.00337
1.00391
1.00445
1.00497
1.00546
1.0059
1.00628
1.00657
1.00678
1.0069
1.00691
1.00683
1.00665
1.00639
1.00605
1.00564
1.00518
1.00468
1.00417
1.00366
1.00316
1.00269
1.00225
1.00185
1.0015
1.00119
1.00094
1.00072
1.00054
1.0004
1.00029
1.0002
1.00013
1.00008
1.00005
1.00002
1.00001
0.999995
0.999989
0.999986
0.999985
0.999986
0.999987
0.999989
0.999991
0.999992
0.999994
0.999995
0.999996
0.999997
0.999998
0.999999
0.999999
0.999999
1
1
1
1
1
1
1
1
1
1
1
1
1
1.00071
1.00099
1.00132
1.00174
1.00222
1.00277
1.00339
1.00405
1.00475
1.00547
1.00618
1.00686
1.00749
1.00806
1.00853
1.00891
1.00917
1.00931
1.00932
1.00921
1.00897
1.00862
1.00816
1.00762
1.00701
1.00635
1.00566
1.00497
1.0043
1.00366
1.00306
1.00252
1.00204
1.00162
1.00127
1.00097
1.00073
1.00054
1.00038
1.00027
1.00018
1.00011
1.00006
1.00003
1.00001
0.999993
0.999986
0.999982
0.999981
0.999982
0.999983
0.999986
0.999988
0.99999
0.999992
0.999994
0.999996
0.999997
0.999998
0.999998
0.999999
0.999999
0.999999
1
1
1
1
1
1
1
1
1
1
1
1
1.00108
1.00147
1.00194
1.00251
1.00317
1.00392
1.00475
1.00563
1.00655
1.00748
1.00839
1.00926
1.01006
1.01078
1.01137
1.01184
1.01216
1.01233
1.01234
1.01219
1.01188
1.01143
1.01084
1.01014
1.00934
1.00849
1.00759
1.00668
1.00579
1.00493
1.00413
1.00341
1.00276
1.0022
1.00171
1.00131
1.00099
1.00072
1.00052
1.00036
1.00024
1.00015
1.00009
1.00004
1.00001
0.999993
0.999983
0.999977
0.999976
0.999977
0.999979
0.999982
0.999985
0.999988
0.99999
0.999992
0.999994
0.999996
0.999997
0.999998
0.999998
0.999999
0.999999
1
1
1
1
1
1
1
1
1
1
1
1
1.00158
1.00212
1.00277
1.00354
1.00443
1.00543
1.00651
1.00765
1.00883
1.01001
1.01116
1.01225
1.01324
1.01412
1.01484
1.01541
1.0158
1.016
1.016
1.01581
1.01543
1.01487
1.01414
1.01326
1.01227
1.01118
1.01003
1.00886
1.0077
1.00658
1.00553
1.00456
1.0037
1.00295
1.00231
1.00177
1.00133
1.00098
1.0007
1.00048
1.00032
1.0002
1.00012
1.00006
1.00002
0.999995
0.99998
0.999973
0.999971
0.999971
0.999974
0.999977
0.999981
0.999985
0.999988
0.999991
0.999993
0.999995
0.999996
0.999997
0.999998
0.999999
0.999999
0.999999
1
1
1
1
1
1
1
1
1
1
1
1.00225
1.00298
1.00386
1.00488
1.00605
1.00734
1.00873
1.01018
1.01166
1.01312
1.01453
1.01585
1.01704
1.01809
1.01895
1.01961
1.02006
1.02029
1.0203
1.02007
1.01962
1.01896
1.01809
1.01703
1.01581
1.01447
1.01305
1.01157
1.0101
1.00867
1.00731
1.00606
1.00493
1.00394
1.00309
1.00238
1.00179
1.00131
1.00094
1.00066
1.00044
1.00028
1.00017
1.00009
1.00003
0.999999
0.999979
0.999969
0.999965
0.999966
0.999968
0.999972
0.999977
0.999981
0.999985
0.999988
0.999991
0.999993
0.999995
0.999997
0.999998
0.999998
0.999999
0.999999
0.999999
1
1
1
1
1
1
1
1
1
1
1.00313
1.0041
1.00526
1.0066
1.0081
1.00974
1.01147
1.01327
1.01507
1.01683
1.01851
1.02005
1.02144
1.02263
1.02361
1.02435
1.02486
1.02512
1.02512
1.02488
1.02437
1.02362
1.02263
1.02141
1.01999
1.01839
1.01668
1.01488
1.01306
1.01126
1.00955
1.00795
1.0065
1.00521
1.0041
1.00316
1.00239
1.00176
1.00127
1.00089
1.0006
1.00039
1.00023
1.00013
1.00005
1.00001
0.999981
0.999966
0.99996
0.999959
0.999962
0.999967
0.999972
0.999977
0.999982
0.999986
0.999989
0.999992
0.999994
0.999996
0.999997
0.999998
0.999999
0.999999
0.999999
1
1
1
1
1
1
1
1
1
1
1.00426
1.00553
1.00703
1.00873
1.01062
1.01265
1.01477
1.01693
1.01906
1.02111
1.02302
1.02476
1.02629
1.02759
1.02865
1.02944
1.02998
1.03025
1.03027
1.03001
1.02948
1.02869
1.02762
1.02628
1.0247
1.02289
1.0209
1.01878
1.01659
1.01441
1.01229
1.01029
1.00845
1.00681
1.00538
1.00417
1.00316
1.00234
1.00169
1.00119
1.00081
1.00053
1.00032
1.00018
1.00008
1.00002
0.999985
0.999964
0.999955
0.999953
0.999955
0.99996
0.999966
0.999972
0.999978
0.999983
0.999987
0.99999
0.999993
0.999995
0.999996
0.999998
0.999998
0.999999
0.999999
1
1
1
1
1
1
1
1
1
1
1.00568
1.00732
1.00921
1.01134
1.01366
1.01611
1.01863
1.02113
1.02356
1.02584
1.02793
1.02978
1.03138
1.03271
1.03376
1.03455
1.03508
1.03535
1.03536
1.03513
1.03462
1.03384
1.03278
1.03142
1.02975
1.02781
1.02562
1.02322
1.02069
1.01811
1.01557
1.01312
1.01085
1.0088
1.00699
1.00544
1.00415
1.00309
1.00225
1.00159
1.00109
1.00072
1.00045
1.00026
1.00013
1.00005
0.999994
0.999965
0.999951
0.999947
0.999948
0.999953
0.99996
0.999967
0.999974
0.99998
0.999984
0.999988
0.999992
0.999994
0.999996
0.999997
0.999998
0.999999
0.999999
0.999999
1
1
1
1
1
1
1
1
1
1.00745
1.00951
1.01186
1.01445
1.01722
1.02009
1.02296
1.02576
1.0284
1.03081
1.03295
1.0348
1.03633
1.03757
1.03853
1.03923
1.03968
1.03992
1.03994
1.03974
1.03932
1.03865
1.0377
1.03644
1.03484
1.0329
1.03063
1.02806
1.02527
1.02234
1.01937
1.01647
1.01373
1.01121
1.00897
1.00702
1.00538
1.00403
1.00295
1.0021
1.00145
1.00097
1.00061
1.00036
1.00019
1.00008
1.00001
0.999969
0.999948
0.999941
0.999941
0.999946
0.999953
0.999961
0.999969
0.999976
0.999981
0.999986
0.99999
0.999993
0.999995
0.999996
0.999998
0.999998
0.999999
0.999999
1
1
1
1
1
1
1
1
1
1.00961
1.01214
1.01498
1.01805
1.02126
1.0245
1.02765
1.03062
1.03332
1.0357
1.03772
1.03938
1.0407
1.04169
1.04242
1.04292
1.04324
1.0434
1.04341
1.04329
1.04302
1.04256
1.04186
1.04086
1.03952
1.03778
1.03562
1.03305
1.03014
1.02696
1.02365
1.02031
1.01708
1.01407
1.01134
1.00894
1.0069
1.0052
1.00383
1.00275
1.00191
1.00129
1.00083
1.0005
1.00028
1.00013
1.00004
0.999979
0.999949
0.999937
0.999935
0.999939
0.999946
0.999955
0.999963
0.999971
0.999978
0.999983
0.999988
0.999991
0.999994
0.999996
0.999997
0.999998
0.999999
0.999999
0.999999
1
1
1
1
1
1
1
1
1.01218
1.01522
1.01857
1.0221
1.02568
1.02918
1.03246
1.03542
1.03798
1.0401
1.04178
1.04304
1.04394
1.04453
1.04488
1.04508
1.04517
1.04521
1.04521
1.0452
1.04513
1.04498
1.04467
1.04413
1.04324
1.04194
1.04015
1.03783
1.03502
1.03178
1.02825
1.02456
1.02089
1.01737
1.01413
1.01123
1.00873
1.00663
1.00492
1.00355
1.0025
1.0017
1.00111
1.00069
1.0004
1.0002
1.00007
0.999996
0.999954
0.999934
0.999929
0.999932
0.999939
0.999948
0.999958
0.999967
0.999974
0.999981
0.999986
0.99999
0.999993
0.999995
0.999997
0.999998
0.999998
0.999999
0.999999
1
1
1
1
1
1
1
1
1.01517
1.01874
1.02256
1.02647
1.0303
1.03388
1.03707
1.03978
1.04194
1.04355
1.04464
1.04527
1.04555
1.04556
1.04541
1.0452
1.045
1.04488
1.04487
1.04497
1.04517
1.04541
1.04562
1.04568
1.04548
1.04487
1.04372
1.04196
1.03953
1.0365
1.03296
1.02908
1.02506
1.02108
1.01732
1.0139
1.0109
1.00834
1.00623
1.00454
1.00322
1.00221
1.00146
1.00092
1.00055
1.00029
1.00012
1.00002
0.999964
0.999934
0.999924
0.999925
0.999932
0.999941
0.999952
0.999962
0.99997
0.999977
0.999983
0.999988
0.999991
0.999994
0.999996
0.999997
0.999998
0.999999
0.999999
1
1
1
1
1
1
1
1
1.01856
1.02263
1.02685
1.031
1.03487
1.03829
1.04112
1.04327
1.04475
1.04557
1.04583
1.04564
1.04512
1.04443
1.04367
1.04298
1.04244
1.04213
1.04208
1.04232
1.04281
1.0435
1.04432
1.04512
1.04577
1.04607
1.04585
1.04494
1.04324
1.04073
1.03748
1.03364
1.02944
1.02511
1.02088
1.01694
1.01341
1.01035
1.0078
1.00573
1.00409
1.00284
1.0019
1.00122
1.00074
1.00041
1.0002
1.00006
0.999981
0.999939
0.999922
0.999919
0.999925
0.999934
0.999946
0.999956
0.999966
0.999974
0.999981
0.999986
0.99999
0.999993
0.999995
0.999997
0.999998
0.999999
0.999999
0.999999
1
1
1
1
1
1
1
1.0223
1.02679
1.03125
1.03542
1.03908
1.04203
1.04419
1.0455
1.04601
1.04581
1.04504
1.04386
1.04244
1.04095
1.03953
1.03833
1.03742
1.03691
1.03683
1.03719
1.03798
1.03915
1.04061
1.04222
1.04382
1.0452
1.04612
1.04635
1.04571
1.04407
1.04145
1.03796
1.03382
1.02932
1.02473
1.02031
1.01625
1.01267
1.00963
1.00713
1.00514
1.0036
1.00244
1.00159
1.00098
1.00057
1.00029
1.00011
1.00001
0.999949
0.999922
0.999915
0.999918
0.999928
0.999939
0.999951
0.999962
0.999971
0.999978
0.999984
0.999989
0.999992
0.999995
0.999996
0.999998
0.999998
0.999999
0.999999
1
1
1
1
1
1
1
1.02629
1.03105
1.03553
1.03946
1.04258
1.04475
1.04592
1.04611
1.04543
1.04403
1.04211
1.03986
1.03749
1.03517
1.03308
1.03136
1.0301
1.02938
1.02926
1.02975
1.03084
1.03248
1.03457
1.037
1.03958
1.04211
1.04431
1.04588
1.04657
1.04614
1.04451
1.04172
1.03796
1.03351
1.02872
1.02392
1.01937
1.01527
1.01172
1.00876
1.00637
1.00451
1.00309
1.00204
1.00128
1.00076
1.00041
1.00018
1.00004
0.999966
0.999927
0.999913
0.999913
0.999921
0.999933
0.999945
0.999957
0.999967
0.999975
0.999982
0.999987
0.999991
0.999994
0.999996
0.999997
0.999998
0.999999
0.999999
1
1
1
1
1
1
1
1.03038
1.03519
1.03942
1.04278
1.04504
1.04613
1.04606
1.04492
1.0429
1.04021
1.03708
1.03374
1.03041
1.0273
1.02456
1.02233
1.02073
1.01984
1.01969
1.02031
1.02168
1.02375
1.02646
1.02966
1.03321
1.03688
1.04039
1.04341
1.0456
1.04665
1.04633
1.0446
1.04155
1.03747
1.03271
1.02768
1.02273
1.01813
1.01407
1.01062
1.0078
1.00556
1.00385
1.00257
1.00165
1.001
1.00056
1.00027
1.00009
0.999991
0.999937
0.999914
0.99991
0.999916
0.999927
0.99994
0.999952
0.999963
0.999972
0.99998
0.999985
0.99999
0.999993
0.999995
0.999997
0.999998
0.999999
0.999999
0.999999
1
1
1
1
1
1
1.03438
1.03897
1.04264
1.0451
1.04622
1.04597
1.04447
1.04189
1.03846
1.03445
1.03013
1.02573
1.02149
1.01761
1.01425
1.01156
1.00964
1.00858
1.00841
1.00915
1.0108
1.0133
1.01658
1.02053
1.02498
1.02974
1.03452
1.03899
1.04276
1.04544
1.04669
1.04632
1.04434
1.04094
1.0365
1.03144
1.02622
1.0212
1.01664
1.01269
1.00941
1.00678
1.00474
1.0032
1.00208
1.00129
1.00075
1.00039
1.00016
1.00003
0.999952
0.999918
0.999908
0.999911
0.999922
0.999935
0.999948
0.999959
0.999969
0.999977
0.999984
0.999989
0.999992
0.999995
0.999996
0.999998
0.999998
0.999999
0.999999
1
1
1
1
1
1
1.03808
1.04215
1.04493
1.04622
1.04595
1.04421
1.04118
1.03711
1.03229
1.027
1.02152
1.01611
1.011
1.00638
1.00242
0.999274
0.997044
0.995814
0.99563
0.996511
0.998438
1.00137
1.00521
1.00987
1.01519
1.02097
1.02695
1.03281
1.03815
1.04251
1.04548
1.04672
1.0461
1.04372
1.03988
1.03505
1.02973
1.02439
1.01939
1.01495
1.0112
1.00815
1.00575
1.00393
1.00259
1.00163
1.00097
1.00053
1.00024
1.00007
0.999974
0.999927
0.999909
0.999909
0.999917
0.99993
0.999943
0.999956
0.999966
0.999975
0.999982
0.999987
0.999991
0.999994
0.999996
0.999997
0.999998
0.999999
0.999999
1
1
1
1
1
1
1.04125
1.04449
1.04612
1.046
1.0442
1.04089
1.03632
1.03079
1.02462
1.01811
1.01153
1.00513
0.999146
0.993778
0.989203
0.985572
0.98301
0.981607
0.981413
0.982446
0.984684
0.988068
0.992511
0.997895
1.00407
1.01084
1.01797
1.02514
1.03197
1.038
1.04273
1.04572
1.04669
1.0456
1.04267
1.03834
1.03314
1.02763
1.02227
1.01738
1.01316
1.00967
1.00689
1.00476
1.00317
1.00203
1.00123
1.00069
1.00034
1.00013
1.00001
0.99994
0.999913
0.999907
0.999914
0.999926
0.999939
0.999952
0.999963
0.999973
0.99998
0.999986
0.99999
0.999993
0.999996
0.999997
0.999998
0.999999
0.999999
1
1
1
1
1
1
1.04371
1.04586
1.04611
1.04446
1.04107
1.03618
1.03011
1.02319
1.01572
1.00802
1.00034
0.992936
0.986034
0.979847
0.974577
0.970395
0.967449
0.965845
0.965647
0.966864
0.969466
0.973379
0.978493
0.98467
0.991745
0.999526
1.00778
1.01622
1.02447
1.03209
1.03855
1.04335
1.04605
1.04649
1.04474
1.04116
1.03631
1.03081
1.0252
1.01993
1.01526
1.01132
1.00815
1.00568
1.00383
1.00248
1.00153
1.00089
1.00047
1.0002
1.00004
0.99996
0.999921
0.999909
0.999912
0.999922
0.999936
0.999949
0.999961
0.99997
0.999979
0.999985
0.999989
0.999993
0.999995
0.999997
0.999998
0.999999
0.999999
0.999999
1
1
1
1
1
1.04533
1.04617
1.04491
1.04168
1.0367
1.03029
1.02278
1.01452
1.0058
0.996896
0.988069
0.979566
0.971622
0.96448
0.958376
0.953526
0.950113
0.948269
0.94807
0.949527
0.952586
0.957146
0.963061
0.970158
0.978245
0.987113
0.996529
1.00622
1.01585
1.02499
1.03313
1.03972
1.04422
1.04633
1.04597
1.0434
1.03914
1.03383
1.02811
1.02253
1.01746
1.01309
1.00952
1.0067
1.00457
1.003
1.00188
1.00112
1.00061
1.00029
1.00009
0.999986
0.999933
0.999913
0.999912
0.99992
0.999933
0.999946
0.999958
0.999968
0.999977
0.999984
0.999989
0.999992
0.999995
0.999996
0.999998
0.999998
0.999999
0.999999
1
1
1
1
1
1.04604
1.04544
1.04263
1.03781
1.0313
1.02344
1.01456
1.00499
0.994991
0.984822
0.974719
0.964939
0.955749
0.947442
0.940309
0.934628
0.930637
0.928504
0.928321
0.930095
0.933746
0.939127
0.946037
0.954247
0.963519
0.973615
0.98429
0.995282
1.00628
1.0169
1.02665
1.03498
1.04129
1.04514
1.04633
1.04497
1.04151
1.0366
1.03093
1.02515
1.01972
1.01496
1.01098
1.00781
1.00537
1.00357
1.00227
1.00137
1.00077
1.00039
1.00015
1.00002
0.999949
0.99992
0.999913
0.999919
0.999931
0.999944
0.999956
0.999967
0.999975
0.999982
0.999988
0.999992
0.999994
0.999996
0.999997
0.999998
0.999999
0.999999
1
1
1
1
1
1.04585
1.04375
1.03939
1.03305
1.02509
1.01584
1.00563
0.994729
0.983375
0.971789
0.960198
0.948886
0.938168
0.928414
0.919999
0.913288
0.908583
0.906103
0.905964
0.90816
0.912581
0.919015
0.927184
0.936777
0.947483
0.959012
0.971099
0.983486
0.995894
1.00798
1.01929
1.02929
1.03737
1.043
1.04583
1.04584
1.04338
1.03904
1.03358
1.02771
1.02201
1.01688
1.01252
1.00899
1.00624
1.00419
1.0027
1.00166
1.00096
1.00051
1.00022
1.00006
0.999971
0.99993
0.999917
0.99992
0.99993
0.999942
0.999954
0.999965
0.999974
0.999981
0.999987
0.999991
0.999994
0.999996
0.999997
0.999998
0.999999
0.999999
1
1
1
1
1
1.04481
1.04122
1.03536
1.02759
1.01824
1.00766
0.996108
0.983812
0.970954
0.957724
0.944357
0.931174
0.918574
0.907032
0.897035
0.889053
0.883474
0.88058
0.880513
0.883261
0.888669
0.896448
0.906214
0.917542
0.930013
0.943258
0.956974
0.970902
0.984793
0.998352
1.01119
1.02281
1.03261
1.04
1.04451
1.04601
1.04469
1.0411
1.036
1.03016
1.02428
1.01883
1.01411
1.01022
1.00717
1.00486
1.00317
1.00198
1.00117
1.00064
1.00031
1.00011
0.999997
0.999943
0.999923
0.999921
0.999929
0.999941
0.999953
0.999964
0.999973
0.999981
0.999986
0.999991
0.999994
0.999996
0.999997
0.999998
0.999999
0.999999
1
1
1
1
1
1.04305
1.03801
1.03074
1.0216
1.01093
0.999024
0.986089
0.972269
0.957693
0.942521
0.927011
0.911552
0.896659
0.882936
0.871011
0.861481
0.85484
0.851442
0.851468
0.854907
0.861553
0.871021
0.882795
0.896292
0.910947
0.926278
0.941915
0.957589
0.973082
0.988162
1.00252
1.0157
1.02716
1.03625
1.04246
1.04549
1.04543
1.04274
1.03814
1.03247
1.02648
1.02078
1.01573
1.0115
1.00814
1.00556
1.00367
1.00232
1.0014
1.00079
1.0004
1.00016
1.00003
0.999961
0.999932
0.999925
0.99993
0.999941
0.999952
0.999963
0.999972
0.99998
0.999986
0.99999
0.999993
0.999996
0.999997
0.999998
0.999999
0.999999
1
1
1
1
1
1.04069
1.03427
1.02567
1.01524
1.00329
0.990043
0.975628
0.960104
0.943535
0.926062
0.907987
0.889796
0.872151
0.855815
0.84158
0.830189
0.822265
0.818251
0.818378
0.822644
0.830791
0.842331
0.856577
0.872753
0.890096
0.907968
0.925898
0.943587
0.960851
0.97753
0.9934
1.00811
1.02115
1.0319
1.03977
1.04436
1.04564
1.04394
1.03997
1.03457
1.02859
1.02269
1.01735
1.01281
1.00914
1.0063
1.0042
1.00269
1.00164
1.00095
1.0005
1.00022
1.00007
0.999982
0.999943
0.999931
0.999933
0.999942
0.999952
0.999963
0.999972
0.99998
0.999985
0.99999
0.999993
0.999995
0.999997
0.999998
0.999999
0.999999
1
1
1
1
1
1.03785
1.03014
1.0203
1.00865
0.99543
0.98079
0.964763
0.947311
0.928431
0.908258
0.88716
0.865751
0.844869
0.825463
0.808513
0.794935
0.785489
0.780728
0.78095
0.786165
0.796075
0.810071
0.827281
0.846687
0.867282
0.888214
0.908878
0.928919
0.948176
0.966571
0.983988
1.00018
1.01474
1.02706
1.03654
1.04268
1.04533
1.04472
1.04148
1.03646
1.03056
1.02454
1.01895
1.01411
1.01015
1.00706
1.00475
1.00307
1.0019
1.00112
1.00061
1.00029
1.00011
1.00001
0.999957
0.999939
0.999937
0.999943
0.999953
0.999963
0.999972
0.999979
0.999985
0.99999
0.999993
0.999995
0.999997
0.999998
0.999999
0.999999
1
1
1
1
1
1.03469
1.02578
1.01477
1.00193
0.987438
0.97133
0.953531
0.933902
0.912372
0.889084
0.864495
0.839381
0.814777
0.791851
0.771797
0.755717
0.744528
0.738899
0.739199
0.745465
0.757364
0.774168
0.794804
0.817984
0.842405
0.866951
0.890831
0.913605
0.935122
0.955385
0.974404
0.99207
1.00807
1.02188
1.03289
1.04055
1.04457
1.0451
1.04266
1.03811
1.03237
1.02629
1.0205
1.0154
1.01117
1.00783
1.00531
1.00347
1.00218
1.0013
1.00073
1.00037
1.00015
1.00003
0.999973
0.999948
0.999942
0.999946
0.999954
0.999964
0.999972
0.99998
0.999985
0.99999
0.999993
0.999995
0.999997
0.999998
0.999999
0.999999
0.999999
1
1
1
1
1.03131
1.0213
1.00919
0.995198
0.979396
0.961725
0.941986
0.919925
0.895411
0.868609
0.840084
0.810807
0.782042
0.755202
0.731716
0.712892
0.699801
0.693217
0.69358
0.700961
0.715007
0.734891
0.759331
0.786755
0.815525
0.844215
0.871794
0.897697
0.921761
0.94407
0.964768
0.983898
1.00128
1.0165
1.02895
1.03805
1.04343
1.0451
1.04353
1.03951
1.03401
1.02793
1.02199
1.01666
1.01218
1.0086
1.00587
1.00387
1.00245
1.00149
1.00085
1.00045
1.0002
1.00007
0.999992
0.999959
0.999949
0.99995
0.999957
0.999965
0.999973
0.99998
0.999986
0.99999
0.999993
0.999995
0.999997
0.999998
0.999999
0.999999
0.999999
1
1
1
1
1.02783
1.0168
1.00366
0.988526
0.971385
0.952054
0.93021
0.905485
0.877687
0.847015
0.814176
0.780357
0.747083
0.716047
0.688934
0.667246
0.652192
0.644624
0.645037
0.653546
0.6698
0.692896
0.721375
0.753372
0.786902
0.820183
0.851895
0.881299
0.908194
0.932731
0.955194
0.975794
0.994509
1.01103
1.02483
1.0353
1.04198
1.04479
1.0441
1.04067
1.03546
1.02944
1.02339
1.01786
1.01315
1.00936
1.00643
1.00427
1.00274
1.00168
1.00098
1.00053
1.00026
1.0001
1.00001
0.999972
0.999957
0.999955
0.999959
0.999967
0.999974
0.999981
0.999986
0.99999
0.999993
0.999995
0.999997
0.999998
0.999999
0.999999
0.999999
1
1
1
1
1.02435
1.01239
0.998262
0.982007
0.96349
0.942412
0.918324
0.89075
0.859436
0.824634
0.787203
0.748584
0.710603
0.675259
0.644493
0.619984
0.603024
0.5945
0.594946
0.604532
0.62294
0.649223
0.681779
0.718483
0.757006
0.795187
0.831369
0.864589
0.894563
0.921494
0.945802
0.967877
0.987871
1.00562
1.02065
1.03238
1.0403
1.04422
1.04442
1.0416
1.03673
1.03081
1.02469
1.019
1.01409
1.01009
1.00698
1.00467
1.00302
1.00187
1.00111
1.00062
1.00031
1.00013
1.00004
0.999987
0.999966
0.999961
0.999963
0.999969
0.999975
0.999981
0.999987
0.999991
0.999993
0.999996
0.999997
0.999998
0.999999
0.999999
1
1
1
1
1
1.02096
1.00814
0.993083
0.975724
0.955806
0.932919
0.906498
0.875957
0.841
0.801926
0.759774
0.716268
0.673571
0.634005
0.599757
0.572628
0.553923
0.544516
0.544965
0.555508
0.575898
0.605184
0.641658
0.682984
0.726514
0.769714
0.810561
0.847814
0.881056
0.910509
0.936722
0.960267
0.981483
1.00036
1.01652
1.02941
1.03847
1.04344
1.04451
1.04231
1.03781
1.03203
1.02588
1.02006
1.01497
1.01078
1.00751
1.00506
1.00329
1.00206
1.00124
1.0007
1.00037
1.00017
1.00006
1
0.999976
0.999968
0.999968
0.999972
0.999978
0.999983
0.999987
0.999991
0.999994
0.999996
0.999997
0.999998
0.999999
0.999999
1
1
1
1
1
1.01774
1.00412
0.9882
0.969765
0.948446
0.923723
0.894935
0.861412
0.822808
0.779481
0.73266
0.684375
0.637154
0.593648
0.556258
0.526837
0.506624
0.496433
0.496837
0.508167
0.530266
0.562224
0.602282
0.647935
0.696266
0.744392
0.789918
0.831288
0.8679
0.899948
0.928093
0.953086
0.975458
0.995361
1.01254
1.02647
1.03658
1.04253
1.04442
1.04284
1.03871
1.03309
1.02695
1.02103
1.01578
1.01143
1.008
1.00542
1.00355
1.00224
1.00136
1.00079
1.00043
1.00021
1.00009
1.00002
0.999988
0.999975
0.999973
0.999975
0.99998
0.999984
0.999989
0.999992
0.999994
0.999996
0.999997
0.999998
0.999999
0.999999
1
1
1
1
1
1.01475
1.00042
0.983686
0.964225
0.941535
0.914996
0.883884
0.847463
0.805357
0.757974
0.706732
0.653979
0.602614
0.555613
0.515541
0.484226
0.46278
0.45192
0.452237
0.464152
0.487615
0.521796
0.564945
0.614457
0.66719
0.719949
0.769979
0.815392
0.855359
0.890004
0.920062
0.946451
0.969898
0.990727
1.00881
1.02365
1.0347
1.04153
1.0442
1.0432
1.03945
1.03401
1.0279
1.0219
1.01652
1.01203
1.00846
1.00576
1.0038
1.00242
1.00148
1.00087
1.00048
1.00025
1.00011
1.00004
1
0.999983
0.999979
0.999979
0.999983
0.999986
0.99999
0.999993
0.999995
0.999997