/*--------------------------------*- C++ -*----------------------------------*\
  =========                 |
  \\      /  F ield         | OpenFOAM: The Open Source CFD Toolbox
   \\    /   O peration     | Website:  https://openfoam.org
    \\  /    A nd           | Version:  6
     \\/     M anipulation  |
\*---------------------------------------------------------------------------*/
FoamFile
{
    version     2.0;
    format      ascii;
    class       surfaceVectorField;
    location    "1.28";
    object      Uf;
}
// * * * * * * * * * * * * * * * * * * * * * * * * * * * * * * * * * * * * * //

dimensions      [0 1 -1 0 0 0 0];

internalField   nonuniform List<vector> 
1540
(
(20.3269 2.58185 0)
(-10.5048 2.19376 0)
(21.4494 2.02948 0)
(18.2097 -0.0739664 0)
(20.5648 2.37364 0)
(8.94159 0.0582837 0)
(23.1048 1.48095 0)
(10.3542 -0.167366 0)
(23.3324 1.93617 0)
(6.71491 -0.0150015 0)
(23.0564 1.73605 0)
(10.8728 0.0181951 0)
(21.12 1.76844 0)
(20.269 0.127591 0)
(24.7404 1.56626 0)
(19.3746 -0.238553 0)
(24.3808 1.68567 0)
(5.36532 0.0236904 0)
(22.0851 1.97231 0)
(8.79104 0.151275 0)
(22.6432 0.406889 0)
(9.38232 -0.0348745 0)
(21.4806 1.65827 0)
(0.263937 0.0726631 0)
(8.72166 0.68426 0)
(28.8746 0.797431 0)
(2.14646 0.520222 0)
(3.86782 0.41095 0)
(-8.55623 0.229307 0)
(18.0543 0.668918 0)
(-18.4998 -1.08156 0)
(-3.72129 0.621475 0)
(-1.50367 -1.33705 0)
(-6.64538 -1.06226 0)
(8.83023 -0.0405856 0)
(9.67389 -0.645868 0)
(2.2855 -0.436158 0)
(-9.63704 0.409046 0)
(12.8186 0.142844 0)
(-7.83013 -1.65567 0)
(-10.0375 2.61912 0)
(4.65312 -1.86816 0)
(-4.39062 -0.896533 0)
(-6.36148 -1.82191 0)
(4.04337 0.784074 0)
(-3.81976 -1.43939 0)
(4.84386 -0.334848 0)
(-2.09346 -3.0369 0)
(0.239988 -0.128757 0)
(6.22433 -2.15805 0)
(7.43829 -0.52989 0)
(12.8252 -1.61477 0)
(14.1323 -0.30737 0)
(6.90107 -0.977223 0)
(17.4364 0.151819 0)
(-11.943 -1.20323 0)
(-1.13316 1.2654 0)
(-10.4162 -0.981548 0)
(10.883 0.0506733 0)
(-7.7978 -0.16869 0)
(-5.15318 -0.198524 0)
(6.46117 -0.79524 0)
(-0.532207 -0.81852 0)
(22.5764 0.943026 0)
(15.9011 -0.209773 0)
(21.5421 0.240776 0)
(-3.5208 0.475593 0)
(21.2654 0.741327 0)
(21.0228 0.68621 0)
(9.58539 -0.0758494 0)
(10.786 1.35148 0)
(6.92224 -0.213682 0)
(0.501726 -0.895812 0)
(-7.83474 1.18012 0)
(12.7731 0.276443 0)
(-8.14212 1.42686 0)
(-9.49199 0.428257 0)
(5.869 -0.366039 0)
(-1.55694 3.66539 0)
(-9.49158 2.63112 0)
(-4.28142 0.744756 0)
(-7.94383 -0.717007 0)
(8.27159 0.931515 0)
(-14.3512 -0.0430914 0)
(12.5145 1.35799 0)
(9.81021 -0.614428 0)
(13.4931 3.32299 0)
(-13.9494 -0.193244 0)
(13.8469 0.988967 0)
(13.0116 -0.5532 0)
(11.5664 0.582389 0)
(-6.60487 -0.157104 0)
(16.4734 1.10816 0)
(19.3159 -0.171512 0)
(20.6605 2.08211 0)
(-5.37021 0.989488 0)
(9.68894 0.595234 0)
(25.5647 0.773636 0)
(7.12881 -0.686276 0)
(9.82957 -0.0385144 0)
(8.89128 -0.0783027 0)
(-5.26771 -0.928671 0)
(-10.8455 -0.770652 0)
(4.53912 1.02377 0)
(-2.33188 0.80412 0)
(6.11197 -0.0565051 0)
(10.3437 0.444634 0)
(5.02462 -0.106014 0)
(2.85953 0.592342 0)
(13.3894 1.81924 0)
(8.04688 -0.568471 0)
(0.839355 -1.22002 0)
(11.6672 -1.62951 0)
(2.99268 0.0501712 0)
(-3.48268 -2.03801 0)
(0.243312 1.37513 0)
(3.0889 -0.583706 0)
(-11.9368 -1.10042 0)
(-9.8098 3.32708 0)
(-17.431 -0.839145 0)
(-3.00159 -0.354971 0)
(-18.342 -1.3969 0)
(-7.60447 0.016934 0)
(-13.9426 -3.93322 0)
(0.132266 -0.904318 0)
(-12.8005 -4.66883 0)
(-11.3434 -0.268507 0)
(-7.13067 -0.483303 0)
(1.75421 -0.9268 0)
(-5.89994 0.119202 0)
(-7.47414 -0.238204 0)
(4.60226 0.20421 0)
(6.79727 -0.863536 0)
(-1.88611 -0.115116 0)
(-1.16162 1.41703 0)
(21.2336 0.233951 0)
(14.0025 -0.749798 0)
(1.4359 -0.390086 0)
(19.5525 1.19884 0)
(-9.23615 -0.693788 0)
(-6.15752 -0.261665 0)
(20.5634 0.812702 0)
(21.3676 -0.838701 0)
(16.6331 -0.193041 0)
(6.10766 0.189136 0)
(7.4859 2.1279 0)
(-2.7476 0.465688 0)
(12.0089 -0.109363 0)
(13.9993 1.53655 0)
(-1.87021 -1.06677 0)
(8.68083 -0.352575 0)
(-8.7238 2.15954 0)
(0.76444 0.478521 0)
(-0.359411 2.22565 0)
(3.20441 0.852352 0)
(13.231 -0.606169 0)
(2.67315 3.84298 0)
(-9.99434 3.06034 0)
(6.61431 0.305601 0)
(-1.6478 -0.614668 0)
(5.56194 0.763202 0)
(-6.69654 0.0862761 0)
(5.76876 3.89981 0)
(-0.719179 -0.917945 0)
(4.06363 3.10057 0)
(-10.4737 -0.156153 0)
(2.84144 -1.59245 0)
(0.480268 -0.846261 0)
(-1.29278 -1.22102 0)
(-11.638 0.0342114 0)
(8.25677 0.707975 0)
(2.69982 -1.49279 0)
(12.1825 1.23993 0)
(-7.62347 1.15835 0)
(8.09805 0.686556 0)
(12.3604 -0.480658 0)
(15.4102 1.26541 0)
(13.1026 0.741835 0)
(23.9428 0.307021 0)
(12.7693 -0.794954 0)
(6.49058 -0.531982 0)
(8.90569 0.252062 0)
(-10.7167 0.0642543 0)
(-15.4506 1.26459 0)
(2.90472 -0.154748 0)
(-7.40181 -0.385652 0)
(11.4324 1.32217 0)
(16.8959 1.00357 0)
(13.6868 2.31114 0)
(13.0268 -0.493479 0)
(12.6986 0.940884 0)
(11.1146 0.540286 0)
(10.0838 -1.27884 0)
(3.63793 1.01578 0)
(9.32266 0.0240662 0)
(-10.6233 -1.72622 0)
(-9.88718 3.66976 0)
(-15.8665 -1.55329 0)
(2.94176 -0.269178 0)
(-17.4903 -2.03518 0)
(-8.53436 0.193276 0)
(-14.7558 -4.54889 0)
(-0.729118 -1.09814 0)
(-13.5925 -2.59246 0)
(-0.514812 -0.232805 0)
(-12.1229 1.87656 0)
(-0.358612 -0.943097 0)
(-12.2514 0.0484214 0)
(-0.506974 0.042676 0)
(-8.44773 -1.43121 0)
(2.43769 -1.74342 0)
(-9.40216 -1.67603 0)
(-3.53893 1.22124 0)
(13.8966 -1.8425 0)
(8.35471 -2.01589 0)
(13.8858 -0.934601 0)
(8.39228 0.742508 0)
(-2.99698 -0.719377 0)
(-1.25728 0.260224 0)
(-13.7109 1.11976 0)
(-1.54893 0.921678 0)
(-10.6602 0.587565 0)
(-1.09133 1.07392 0)
(5.54256 0.479569 0)
(-3.94217 -1.39832 0)
(19.3548 0.0764985 0)
(8.46014 0.140304 0)
(12.9042 -2.54176 0)
(21.1462 -0.0903113 0)
(1.76802 0.0123265 0)
(0.0501292 1.23629 0)
(-3.64597 2.31649 0)
(2.53289 1.35415 0)
(4.78432 -0.203807 0)
(7.00306 5.35612 0)
(-11.6561 3.1177 0)
(8.8347 1.72054 0)
(4.82112 -0.389871 0)
(5.381 0.300218 0)
(-5.0754 0.420851 0)
(14.0566 2.24158 0)
(3.72043 -1.6698 0)
(12.6069 1.04251 0)
(3.06404 -0.137286 0)
(13.5473 -3.30911 0)
(0.473433 -1.00506 0)
(10.7329 -2.24826 0)
(1.90637 0.228125 0)
(10.7739 1.50389 0)
(1.19857 -1.74612 0)
(12.4908 1.75528 0)
(-0.19248 1.1081 0)
(-0.692231 1.829 0)
(11.6932 -1.14721 0)
(-1.94311 1.7789 0)
(-1.65179 0.820689 0)
(-0.570549 0.985146 0)
(5.17743 0.174442 0)
(9.85745 0.557605 0)
(-8.03864 0.269926 0)
(6.9155 -1.78294 0)
(14.5356 1.2578 0)
(-3.14988 -1.59507 0)
(-8.79452 -0.769236 0)
(11.5241 -0.524276 0)
(0.806774 -0.776822 0)
(10.9224 2.90073 0)
(3.50874 -0.0527013 0)
(0.438545 2.35321 0)
(1.26548 1.89154 0)
(3.88836 -1.26588 0)
(-0.370794 1.13854 0)
(9.42275 0.0392161 0)
(-10.6383 -2.07259 0)
(-11.2498 3.7281 0)
(-10.7441 -1.2289 0)
(0.619298 -0.3829 0)
(-9.22699 -1.00774 0)
(-2.75683 0.320882 0)
(-7.36997 -3.08242 0)
(3.20107 -1.79217 0)
(-9.28408 -1.35893 0)
(-3.47407 -0.0111609 0)
(-8.09133 2.36323 0)
(0.832403 -1.08365 0)
(-11.0173 0.514304 0)
(-2.9357 0.420923 0)
(-6.40769 -2.67336 0)
(0.0521971 -2.04986 0)
(-3.05912 -2.6625 0)
(5.04854 0.887452 0)
(6.87549 -3.60592 0)
(12.5644 -1.80183 0)
(10.9397 -1.02728 0)
(-4.92318 0.566677 0)
(-2.90751 0.844046 0)
(0.105229 1.0399 0)
(-4.23229 2.19124 0)
(-9.07913 0.352722 0)
(0.220114 4.05086 0)
(12.8979 0.979521 0)
(-7.90137 1.14908 0)
(-9.86081 -0.261642 0)
(-4.42135 0.261694 0)
(8.39245 -0.994324 0)
(-5.03045 -0.55803 0)
(-8.50514 -0.0146318 0)
(0.616299 1.07174 0)
(-1.65419 1.53861 0)
(-2.42643 2.90744 0)
(-2.54716 1.32871 0)
(7.7852 -0.112436 0)
(2.94761 5.01126 0)
(-11.4413 3.44328 0)
(6.48941 1.38109 0)
(2.88451 -0.616281 0)
(7.76778 -0.246556 0)
(-4.19456 0.236643 0)
(6.34463 0.521186 0)
(2.41381 -1.69839 0)
(6.33535 -0.286174 0)
(-5.32586 -0.0105524 0)
(9.18547 -2.18229 0)
(2.34298 -1.27145 0)
(5.32564 -2.01455 0)
(3.54936 0.675257 0)
(14.3512 1.757 0)
(4.20802 -2.64459 0)
(18.9671 2.75848 0)
(7.51165 0.583294 0)
(-3.03173 3.67159 0)
(20.6531 -0.352247 0)
(-11.7101 3.14293 0)
(-14.8195 1.10907 0)
(-6.83711 -0.0133382 0)
(1.64842 0.735341 0)
(6.93675 -1.20519 0)
(-5.51146 -0.508146 0)
(4.89061 -4.25143 0)
(10.5976 1.1074 0)
(3.08522 -3.28908 0)
(-14.724 -0.148805 0)
(7.97661 -0.862132 0)
(5.0719 -1.30004 0)
(-5.01369 2.62179 0)
(-1.85966 0.797263 0)
(-4.64627 1.36346 0)
(-11.3946 1.51565 0)
(-0.337003 -2.0648 0)
(-0.598488 1.05938 0)
(6.81441 -0.133498 0)
(-8.79763 -1.91064 0)
(-10.8845 3.93239 0)
(-10.0299 -1.87992 0)
(1.56925 -0.535079 0)
(-11.1719 -1.16507 0)
(-2.21507 0.31189 0)
(-10.2692 -1.72138 0)
(2.07097 -1.75787 0)
(-9.52252 -1.02368 0)
(-2.30927 -0.0597544 0)
(-0.458969 0.418207 0)
(-1.17509 -1.86868 0)
(0.133004 0.0601816 0)
(8.22413 0.636247 0)
(0.0770808 -4.13976 0)
(2.57161 -2.6409 0)
(7.04063 -2.38429 0)
(13.5146 0.124438 0)
(6.88409 -2.4096 0)
(13.1106 -0.341927 0)
(1.13131 -2.66207 0)
(-6.9154 1.46863 0)
(1.16608 0.0607713 0)
(2.52475 0.73317 0)
(-2.73618 2.46048 0)
(-7.91646 -0.264257 0)
(-6.93202 4.98158 0)
(1.44358 1.36964 0)
(-15.3106 1.48886 0)
(-12.3542 0.374856 0)
(-1.64841 -0.509955 0)
(-0.396659 -2.15392 0)
(-8.50929 -0.74149 0)
(-8.75996 1.22607 0)
(-7.47227 1.78784 0)
(-16.3406 1.45084 0)
(-1.65973 2.83129 0)
(2.07056 0.696098 0)
(2.06628 -0.237232 0)
(2.01426 4.51818 0)
(-10.6943 3.70907 0)
(7.01533 1.22532 0)
(4.79775 -0.864617 0)
(9.76593 -0.269803 0)
(-3.93085 0.130641 0)
(8.79021 -0.45776 0)
(2.13777 -1.69358 0)
(6.17932 -1.07391 0)
(-2.19005 0.112284 0)
(9.56505 -0.783647 0)
(-0.0705602 -2.09178 0)
(8.95523 -2.24723 0)
(8.96335 0.676427 0)
(18.6934 2.21443 0)
(6.49732 -3.28259 0)
(17.0918 2.20419 0)
(17.7364 0.229972 0)
(-2.91629 2.03721 0)
(11.3593 0.976485 0)
(-3.39994 5.50718 0)
(-7.19199 1.49885 0)
(-8.19604 0.271726 0)
(-3.84827 1.03293 0)
(-4.26051 -2.20646 0)
(-13.9244 -0.51023 0)
(-2.22796 -2.84837 0)
(-7.24383 1.24261 0)
(0.715405 -3.22546 0)
(-10.2972 0.190896 0)
(-5.36947 -0.281369 0)
(-3.84381 -1.77362 0)
(-16.7773 3.69364 0)
(-13.336 1.93906 0)
(-7.08754 -0.347881 0)
(-16.1852 0.845229 0)
(-2.55677 -2.17943 0)
(-0.981405 0.412924 0)
(-1.38784 -0.397029 0)
(-5.48209 -1.53348 0)
(-10.1422 3.97971 0)
(-8.67585 -1.90865 0)
(6.25671 -0.654168 0)
(-12.5367 -0.894357 0)
(-7.87252 0.385043 0)
(-10.2533 -0.478719 0)
(1.60561 -1.84404 0)
(-7.93674 -0.738741 0)
(1.25522 -0.0403667 0)
(0.505592 -1.442 0)
(-1.21162 -2.64807 0)
(5.55913 -0.314314 0)
(10.927 0.343427 0)
(7.62842 -5.73046 0)
(5.47446 -3.41894 0)
(10.3058 -1.30778 0)
(13.1999 0.0535456 0)
(5.41343 1.69101 0)
(11.9336 1.29887 0)
(-6.13985 -2.70381 0)
(-4.49745 2.22094 0)
(-10.3611 -0.00709785 0)
(-5.18007 1.29676 0)
(-17.5876 2.93079 0)
(-16.2107 -0.0585713 0)
(-13.8195 4.58391 0)
(-10.4493 1.0071 0)
(-16.3077 2.62518 0)
(-6.99326 0.346411 0)
(-10.4537 0.95937 0)
(-3.31639 -2.13949 0)
(-12.463 -1.42483 0)
(-14.3665 2.06464 0)
(-10.8581 1.47763 0)
(-7.72383 0.744927 0)
(-8.07882 1.97847 0)
(-3.69837 0.239217 0)
(-1.46383 -0.901955 0)
(3.95596 5.10303 0)
(-10.4903 3.62844 0)
(4.26956 1.94298 0)
(6.66325 -0.674832 0)
(5.54031 -0.958066 0)
(-6.29144 0.301307 0)
(11.5823 -2.0551 0)
(4.79966 -2.24217 0)
(8.74396 -2.05796 0)
(4.46426 0.146662 0)
(9.79021 0.0652403 0)
(-0.789177 -2.71701 0)
(10.3282 -2.57025 0)
(14.4921 0.307973 0)
(13.2886 1.38794 0)
(5.74344 -3.61401 0)
(12.7897 1.70039 0)
(9.44812 0.0864218 0)
(0.948877 0.88188 0)
(11.232 2.0791 0)
(-2.57346 5.68894 0)
(-3.60042 2.44108 0)
(-11.453 2.04733 0)
(-8.74761 1.85174 0)
(-9.45741 -1.48979 0)
(-10.3445 -0.1833 0)
(-2.20692 -4.12177 0)
(-10.7246 0.553944 0)
(4.80396 -5.23805 0)
(-6.21522 -0.0917684 0)
(-5.96555 -1.26405 0)
(-3.24509 -1.4664 0)
(-8.86478 4.64203 0)
(-14.9468 2.24584 0)
(-1.96985 0.0780201 0)
(1.44408 0.313994 0)
(-5.47931 -2.3579 0)
(-5.62521 0.458558 0)
(1.16343 -1.24441 0)
(-5.45871 -1.94815 0)
(-10.0468 3.89754 0)
(-6.89003 -2.66303 0)
(6.51246 -0.580516 0)
(-7.59328 -1.17435 0)
(-4.15662 0.347644 0)
(-3.96994 0.036488 0)
(3.72722 -2.48092 0)
(-4.04551 -0.684183 0)
(-1.13849 0.151639 0)
(3.90451 -3.08096 0)
(-0.270822 -3.24087 0)
(9.82686 -0.730153 0)
(16.3496 -0.0822767 0)
(4.07217 -3.75124 0)
(2.84408 -3.23481 0)
(5.96394 1.08122 0)
(8.81068 -0.0382354 0)
(5.95291 3.86703 0)
(9.91835 2.07983 0)
(-9.22694 -0.787369 0)
(-3.35581 3.38982 0)
(-7.55054 -1.25947 0)
(-6.53823 1.74696 0)
(-11.8715 1.07695 0)
(-9.01885 0.0867601 0)
(-13.4301 5.5489 0)
(-9.95809 0.651358 0)
(-15.5086 4.16053 0)
(-2.05417 0.0381339 0)
(-10.8054 1.86638 0)
(-11.2244 -1.76035 0)
(-3.57195 -1.76145 0)
(-17.7357 1.79375 0)
(-3.5716 0.957506 0)
(4.73129 0.313972 0)
(-6.81591 1.46338 0)
(-6.01117 0.661327 0)
(2.6139 -1.67041 0)
(4.20859 4.99858 0)
(-10.5337 3.52962 0)
(6.1527 2.77887 0)
(7.79403 -0.70862 0)
(6.78577 -0.649346 0)
(-2.82787 0.305926 0)
(4.62946 -2.33723 0)
(3.61994 -2.33884 0)
(4.03095 -2.4762 0)
(-1.76028 0.191075 0)
(11.7956 -0.123942 0)
(1.06796 -3.75251 0)
(9.46116 -2.58169 0)
(11.4323 0.0715456 0)
(9.78313 -0.250641 0)
(2.14887 -3.25603 0)
(10.8678 0.719321 0)
(8.92502 -0.109708 0)
(0.0739192 1.51036 0)
(9.19949 2.79108 0)
(-0.402115 5.36542 0)
(-1.47046 3.41958 0)
(-7.6365 3.8208 0)
(-6.83653 2.19912 0)
(-7.39804 0.705635 0)
(-5.75403 0.0718546 0)
(2.40033 -4.84522 0)
(-8.2342 0.0389592 0)
(1.08056 -5.56865 0)
(0.960496 0.12062 0)
(-16.7605 -1.51083 0)
(-2.89579 -0.645282 0)
(-8.30565 3.41284 0)
(-14.2051 1.26532 0)
(1.26255 0.0249615 0)
(1.90842 -0.28404 0)
(-3.31404 -2.24581 0)
(-4.86124 0.947363 0)
(3.45164 -1.87753 0)
(-4.65943 -1.87616 0)
(-10.1475 3.74606 0)
(-4.57846 -3.13632 0)
(7.08627 -0.713956 0)
(-6.20337 -1.29114 0)
(-2.53929 0.412995 0)
(-5.01035 0.00387519 0)
(3.13339 -2.41745 0)
(-2.98224 -1.40727 0)
(-0.692221 0.0574322 0)
(-0.0653163 -3.76928 0)
(1.10752 -3.94471 0)
(4.49579 -0.66587 0)
(6.52453 -0.229006 0)
(3.48303 -2.93819 0)
(1.70956 -3.18929 0)
(5.37338 1.72041 0)
(5.00782 -0.234271 0)
(7.20361 4.5911 0)
(7.52577 2.67048 0)
(-7.7924 0.713365 0)
(0.105538 4.35683 0)
(-4.39795 -1.96286 0)
(-3.71099 1.98696 0)
(-6.93973 -1.12764 0)
(-4.96345 0.230714 0)
(-8.64272 4.40333 0)
(-5.12977 0.145396 0)
(-4.47293 4.03707 0)
(-2.41396 -0.139991 0)
(1.22117 2.33665 0)
(-4.07662 -1.00116 0)
(-2.34474 -1.77692 0)
(-15.5229 1.48819 0)
(-5.25513 0.0528735 0)
(3.27748 -0.10214 0)
(-4.03823 0.804059 0)
(-6.70158 0.871308 0)
(4.61044 -2.12992 0)
(3.88727 4.50785 0)
(-10.5297 3.39931 0)
(5.52643 2.74145 0)
(7.95318 -0.821966 0)
(6.8035 -0.668632 0)
(-0.00848134 0.328843 0)
(4.95951 -2.05632 0)
(3.28469 -2.29594 0)
(5.35986 -2.12741 0)
(2.13735 0.0310485 0)
(6.69701 -0.319327 0)
(0.562912 -4.03282 0)
(4.2928 -2.7348 0)
(4.3763 -0.070588 0)
(5.38139 -0.606027 0)
(0.620081 -3.26102 0)
(5.30668 0.812363 0)
(5.05116 -0.22935 0)
(-0.0493229 2.40684 0)
(5.21549 3.02341 0)
(4.18954 5.26565 0)
(1.76534 4.0919 0)
(-3.60225 4.17215 0)
(-2.01641 2.47395 0)
(-3.56626 1.64312 0)
(-3.03108 0.228463 0)
(2.07725 -3.66677 0)
(-5.1816 -0.207323 0)
(-3.29406 -3.8504 0)
(-2.56746 0.195717 0)
(-19.642 -2.06474 0)
(-3.56241 0.020579 0)
(-7.70298 2.17723 0)
(-3.90679 0.742004 0)
(0.565977 1.12402 0)
(-0.0755106 -0.61895 0)
(-3.3189 -1.77114 0)
(-5.55384 1.11411 0)
(4.72965 -2.33735 0)
(-4.14563 -1.536 0)
(-10.1697 3.58189 0)
(-1.57142 -2.93747 0)
(6.05494 -0.99159 0)
(-3.25764 -1.19129 0)
(0.028631 0.439951 0)
(-2.35524 -0.234385 0)
(2.58542 -2.3554 0)
(-0.498724 -1.86242 0)
(3.77032 -0.0912874 0)
(-2.91041 -3.91408 0)
(1.10639 -3.87391 0)
(1.39793 -0.689583 0)
(0.800784 -0.354484 0)
(2.2849 -2.6534 0)
(1.18923 -3.31946 0)
(3.20704 2.02704 0)
(3.75335 -0.290115 0)
(6.47567 4.65552 0)
(2.78791 2.80803 0)
(-4.515 1.52792 0)
(3.21929 4.77882 0)
(-0.72187 -1.22227 0)
(-0.592143 2.23688 0)
(-5.0484 -1.52659 0)
(-2.70313 0.49887 0)
(-8.96138 2.85602 0)
(-2.7583 0.0372385 0)
(-3.57709 2.50249 0)
(-8.13317 -0.140801 0)
(12.3676 2.67243 0)
(4.84599 -0.975964 0)
(6.40004 -1.06868 0)
(-5.2371 1.11498 0)
(-7.65037 -0.928782 0)
(2.50973 0.259201 0)
(-2.31891 0.368877 0)
(-8.11393 0.780896 0)
(5.6397 -2.48229 0)
(2.26443 3.69021 0)
(-10.0157 3.34208 0)
(3.74431 1.9744 0)
(6.99298 -1.0891 0)
(6.33301 -0.889767 0)
(0.160279 0.269371 0)
(5.73196 -1.97886 0)
(3.31279 -2.3158 0)
(7.68506 -1.8039 0)
(2.18882 -0.219987 0)
(3.56907 -0.129847 0)
(-1.18244 -3.60269 0)
(1.38097 -2.88767 0)
(-0.903592 -0.210306 0)
(4.45144 -0.951303 0)
(-1.45915 -3.52179 0)
(1.69165 0.702661 0)
(4.66307 -0.108264 0)
(-1.10566 3.01178 0)
(0.703064 2.99236 0)
(7.00703 5.39781 0)
(3.26503 4.27177 0)
(-1.81142 3.62824 0)
(1.34899 2.78804 0)
(-0.82112 2.01499 0)
(-1.4177 0.436974 0)
(-1.29857 -2.11316 0)
(-3.3776 0.0670792 0)
(0.0977058 -2.31629 0)
(-9.19109 -0.228068 0)
(-13.4533 -1.78102 0)
(1.02807 -0.129026 0)
(-5.52042 1.14309 0)
(4.81302 0.619171 0)
(0.0391698 1.47714 0)
(-2.42279 -0.0882736 0)
(-4.55332 -1.69542 0)
(-6.81609 1.06793 0)
(4.86089 -2.76687 0)
(-3.20861 -1.07955 0)
(-9.57577 3.46291 0)
(-0.180357 -2.44182 0)
(6.48652 -1.28865 0)
(-2.23858 -0.975949 0)
(-0.98591 0.404992 0)
(-3.36068 -0.611019 0)
(2.80669 -2.24186 0)
(-4.2392 -2.07456 0)
(0.948938 -0.162101 0)
(-6.90946 -3.77721 0)
(-0.381632 -3.42673 0)
(-2.95661 -1.03418 0)
(-1.66779 -0.470778 0)
(0.294485 -2.74212 0)
(0.65447 -3.73601 0)
(2.20483 1.99111 0)
(2.09633 -0.234146 0)
(4.38076 4.06495 0)
(-0.524693 2.84898 0)
(-2.57267 1.68376 0)
(3.3462 4.70636 0)
(2.49517 0.00618926 0)
(0.824006 2.4713 0)
(-4.35192 -1.53059 0)
(-0.833697 0.864917 0)
(-10.8269 1.19346 0)
(-1.87303 0.471766 0)
(-7.96683 0.904344 0)
(-11.4705 -0.406822 0)
(18.1915 1.35745 0)
(5.58482 -1.76392 0)
(11.4699 1.4756 0)
(3.83677 1.03927 0)
(-11.5167 0.833768 0)
(-3.17573 1.34839 0)
(-1.50577 -0.448813 0)
(-10.0687 0.442246 0)
(5.96025 -2.86098 0)
(2.08744 2.96296 0)
(-9.34038 3.23477 0)
(2.32704 1.21817 0)
(7.16633 -1.30443 0)
(4.81324 -1.07259 0)
(-3.029 0.241165 0)
(3.80264 -1.81338 0)
(3.58308 -2.17526 0)
(7.43377 -1.6088 0)
(-1.55502 -0.401372 0)
(3.44846 -0.116142 0)
(-2.71779 -3.16412 0)
(2.88193 -3.0237 0)
(-3.85867 -0.43345 0)
(3.75244 -1.23366 0)
(-2.52304 -3.79337 0)
(-1.92293 0.709309 0)
(0.897519 0.139823 0)
(-2.27927 3.56784 0)
(-0.761666 2.87246 0)
(6.50671 5.54966 0)
(2.22662 4.15724 0)
(-1.71838 2.97532 0)
(1.02291 2.98537 0)
(1.32956 2.93409 0)
(0.759571 0.674419 0)
(-2.33185 -0.438497 0)
(-1.85438 0.700604 0)
(2.70277 -2.29968 0)
(-9.6295 -0.721484 0)
(-10.084 -0.813418 0)
(3.97948 -0.964752 0)
(-7.35966 -0.940952 0)
(6.78809 0.869001 0)
(-4.31738 -0.481322 0)
(-0.623307 1.15825 0)
(-6.324 -1.28783 0)
(-10.8787 0.56766 0)
(4.82857 -3.25623 0)
(-2.36175 -0.750615 0)
(-8.83528 3.2998 0)
(-1.35559 -2.18206 0)
(7.48503 -1.37073 0)
(-3.42 -0.87135 0)
(-2.10653 0.377195 0)
(-5.1757 -0.723953 0)
(3.43802 -2.05957 0)
(-8.93472 -1.80541 0)
(-0.865842 -0.15368 0)
(-11.4623 -3.32814 0)
(-3.08731 -2.99757 0)
(-8.30171 -1.33908 0)
(-1.87913 -0.64172 0)
(-4.31227 -2.64735 0)
(-1.43619 -4.05625 0)
(0.961384 2.06264 0)
(-2.84521 -0.20768 0)
(3.04694 3.31252 0)
(-1.58518 2.73504 0)
(-3.55428 1.53907 0)
(0.609321 4.56982 0)
(4.31789 1.00705 0)
(-0.54155 2.49336 0)
(-2.69942 -1.65253 0)
(2.03798 1.113 0)
(-9.20184 -0.294541 0)
(1.32319 1.107 0)
(-7.60797 -0.0626992 0)
(-9.01881 -0.8211 0)
(19.7106 -0.50424 0)
(7.5228 -2.67216 0)
(16.1023 3.90655 0)
(5.20947 1.09452 0)
(-9.29378 2.87051 0)
(-3.01848 2.7455 0)
(-3.11467 -2.19896 0)
(-10.501 0.181466 0)
(5.92383 -3.4509 0)
(2.80977 2.71131 0)
(-8.84025 3.02405 0)
(3.76993 1.45964 0)
(6.73359 -1.434 0)
(5.69725 -0.753414 0)
(-2.98613 0.250194 0)
(4.19801 -1.60605 0)
(4.44678 -1.96078 0)
(7.95958 -1.67431 0)
(-0.393265 -0.401546 0)
(4.92017 -0.704091 0)
(-4.42768 -2.79729 0)
(6.05912 -3.29733 0)
(-3.58469 -0.716773 0)
(0.914414 -1.38015 0)
(-3.13805 -3.71725 0)
(-6.3156 0.602607 0)
(-5.51714 0.268731 0)
(-4.66421 3.93061 0)
(-1.46991 2.62622 0)
(3.21178 5.56585 0)
(-1.07937 4.07757 0)
(-1.89734 2.3901 0)
(-0.388261 2.81268 0)
(5.94531 3.99311 0)
(3.29376 0.622833 0)
(1.12231 1.1647 0)
(-1.23869 1.40844 0)
(6.85933 -2.85876 0)
(-5.391 -1.17966 0)
(-7.70685 -0.151152 0)
(7.17121 -1.76177 0)
(-12.704 -0.366247 0)
(0.0874401 1.40684 0)
(-5.30978 -0.186707 0)
(-6.77332 2.28337 0)
(-4.64946 -0.74197 0)
(-5.68516 0.140196 0)
(5.39306 -3.74149 0)
(-3.12892 -1.05675 0)
(-8.36723 3.13963 0)
(-3.02772 -3.15524 0)
(6.71577 -1.44067 0)
(-3.0952 -1.46395 0)
(1.96713 0.254639 0)
(-3.87305 -0.854695 0)
(4.98323 -1.90953 0)
(-9.62983 -1.21052 0)
(1.43609 -0.0222126 0)
(-14.5139 -2.22836 0)
(-5.75603 -2.47546 0)
(-11.7408 -1.13609 0)
(0.636309 -0.8995 0)
(-8.83277 -2.30144 0)
(-3.80179 -3.90887 0)
(-1.45048 2.31055 0)
(-8.73548 -0.217718 0)
(1.53139 2.87261 0)
(-3.38142 2.42974 0)
(-5.21092 1.36968 0)
(-3.47228 4.49896 0)
(5.85153 1.41534 0)
(-1.77325 2.12128 0)
(-3.94558 -1.90275 0)
(3.80452 1.23515 0)
(-8.29192 -1.7974 0)
(4.20305 1.68009 0)
(-4.42973 -0.816592 0)
(-2.39338 -1.42105 0)
(14.467 -1.09791 0)
(6.12206 -2.94282 0)
(6.79689 3.79791 0)
(4.8071 1.88621 0)
(-7.77216 2.45073 0)
(-3.95762 3.19393 0)
(1.3835 -3.31802 0)
(0.182973 -0.432033 0)
(6.75798 -3.65502 0)
(3.21933 2.40221 0)
(-8.68826 2.8369 0)
(8.86182 2.30321 0)
(6.9711 -1.81247 0)
(11.3 0.522095 0)
(-1.56523 0.0939742 0)
(6.5528 -0.856304 0)
(4.93328 -1.59671 0)
(8.57632 -1.70473 0)
(3.05849 -0.155552 0)
(7.85287 -1.87283 0)
(-5.58091 -2.42779 0)
(9.54259 -3.56961 0)
(-0.240257 -1.01084 0)
(-3.06178 -1.24925 0)
(-3.28948 -3.07832 0)
(-11.3655 0.0283434 0)
(-11.2022 0.329443 0)
(-8.89722 3.74376 0)
(-3.00845 2.2671 0)
(-0.799392 5.18888 0)
(-4.30251 3.99285 0)
(-2.46801 1.92021 0)
(-0.596659 2.22557 0)
(11.9689 4.74543 0)
(0.99353 0.332841 0)
(9.45019 2.65228 0)
(2.03482 1.83751 0)
(8.75257 -2.95298 0)
(-0.940154 -1.37745 0)
(-3.82296 0.380677 0)
(-1.48299 -2.15685 0)
(-5.49338 1.61195 0)
(0.243744 1.99062 0)
(4.01145 0.812383 0)
(-3.24046 2.59988 0)
(2.52114 -0.277027 0)
(4.45673 -0.338889 0)
(6.97506 -3.49745 0)
(-3.1698 -0.993023 0)
(-8.2887 2.95518 0)
(-6.39744 -4.20681 0)
(6.96201 -1.59979 0)
(-6.49358 -2.75864 0)
(-0.565782 0.100307 0)
(-2.31241 -1.14968 0)
(3.65635 -1.87223 0)
(-7.73702 -0.308758 0)
(2.72697 0.201893 0)
(-15.2269 -0.726224 0)
(-6.85917 -1.93425 0)
(-12.1316 -0.689707 0)
(4.76882 -1.21481 0)
(-10.8677 -2.01657 0)
(-5.67875 -3.1616 0)
(-3.54703 2.75653 0)
(-11.5496 -0.152945 0)
(1.14066 2.92129 0)
(-5.56396 1.95821 0)
(-5.12996 1.22803 0)
(-5.83149 4.38476 0)
(4.61255 0.708777 0)
(-0.231807 1.61667 0)
(-8.88746 -2.37791 0)
(-0.422787 1.17659 0)
(-9.1361 -2.6056 0)
(3.90749 1.85305 0)
(-10.531 -1.28943 0)
(3.43637 -1.29027 0)
(2.33184 -0.926128 0)
(-5.99996 -2.96077 0)
(2.86422 2.60943 0)
(3.49775 1.95734 0)
(-2.4038 0.838662 0)
(-0.238888 2.92913 0)
(5.69247 -4.09781 0)
(7.79622 -0.844906 0)
(8.70901 -3.14167 0)
(3.76095 1.73654 0)
(-8.57909 2.61676 0)
(9.62571 2.71475 0)
(9.03835 -1.98624 0)
(11.1447 1.74586 0)
(1.98704 0.00021642 0)
(4.98341 -0.381871 0)
(2.04739 -1.46624 0)
(6.96606 -1.97414 0)
(2.07571 0.0712456 0)
(11.6443 -3.04844 0)
(-4.30828 -2.24251 0)
(12.1032 -3.25225 0)
(4.49709 -1.24505 0)
(-5.86032 -0.025567 0)
(-3.91254 -1.97791 0)
(-14.2782 -0.474719 0)
(-11.0489 0.401739 0)
(-12.9436 2.93062 0)
(-4.53708 1.87027 0)
(-2.38677 4.50222 0)
(-5.222 3.72496 0)
(-2.90167 2.15224 0)
(3.19276 1.64885 0)
(12.467 5.30062 0)
(-8.11412 0.216048 0)
(15.5399 3.6525 0)
(1.52586 1.66099 0)
(8.71507 -1.96695 0)
(0.247506 -0.863714 0)
(-5.07026 0.505459 0)
(-8.50633 -2.09919 0)
(0.728619 2.74476 0)
(0.102115 1.59491 0)
(10.5448 1.80824 0)
(-3.1332 2.31562 0)
(7.74762 0.753114 0)
(11.4717 -0.670085 0)
(8.37486 -2.65744 0)
(-1.13755 -0.587228 0)
(-8.07445 2.60112 0)
(-1.95379 -4.44557 0)
(7.78551 -1.93246 0)
(-5.47286 -3.55652 0)
(0.46049 0.232099 0)
(-4.58644 -1.01526 0)
(1.7662 -1.52465 0)
(-5.80301 0.382717 0)
(-1.3445 0.151407 0)
(-13.0564 -0.0639467 0)
(-4.56652 -1.76456 0)
(-10.5276 -0.58751 0)
(3.22088 -1.41169 0)
(-8.61611 -2.80769 0)
(-7.64648 -2.10386 0)
(-1.87316 2.23352 0)
(-6.45739 -0.0425804 0)
(2.79466 3.02058 0)
(-5.9669 1.56269 0)
(-1.65788 1.31348 0)
(-5.50522 4.00325 0)
(1.00207 -0.292278 0)
(5.72767 1.48261 0)
(-18.9679 -3.31709 0)
(-9.79642 1.46417 0)
(-14.8469 -2.95682 0)
(-3.93148 1.40343 0)
(-16.1021 -1.71126 0)
(1.77744 -0.78527 0)
(-3.64838 -1.23807 0)
(-16.714 -2.87755 0)
(-3.24967 0.953266 0)
(3.28448 1.56999 0)
(-1.64613 -0.495154 0)
(-0.307231 2.2154 0)
(8.95479 -4.48175 0)
(11.5438 -1.33264 0)
(11.2483 -2.09777 0)
(3.14646 0.994032 0)
(-7.99687 2.30319 0)
(6.91872 2.34604 0)
(8.99921 -2.18103 0)
(9.46711 2.28474 0)
(3.96898 0.0641747 0)
(1.07943 -0.275883 0)
(-2.03624 -0.971953 0)
(3.28003 -2.37554 0)
(-4.22208 0.00639929 0)
(10.0324 -3.44977 0)
(-3.3844 -2.20949 0)
(7.22925 -2.5447 0)
(5.38291 -1.22699 0)
(-5.06749 1.66651 0)
(-7.50851 -1.29358 0)
(-10.9019 -0.155791 0)
(-3.05823 0.341869 0)
(-14.673 2.26315 0)
(-8.28199 1.81119 0)
(-0.809473 3.64689 0)
(-4.51983 3.13678 0)
(-1.27754 2.48443 0)
(9.67727 1.51186 0)
(5.16775 5.13769 0)
(-8.84635 1.06133 0)
(11.438 3.47568 0)
(-2.00194 1.01154 0)
(2.26923 -1.0221 0)
(0.775296 -0.212221 0)
(-10.1696 0.37376 0)
(-10.5721 -2.10012 0)
(6.87511 3.02141 0)
(8.93912 0.504701 0)
(13.42 1.32473 0)
(-1.3582 1.80635 0)
(10.3306 1.45507 0)
(13.0572 -1.13955 0)
(10.0774 -1.4521 0)
(0.152667 -0.815626 0)
(-7.44878 2.20254 0)
(3.18655 -4.04254 0)
(8.21601 -2.38094 0)
(-5.60123 -2.89431 0)
(1.6975 0.643232 0)
(-11.5449 -0.767885 0)
(1.91243 -0.5803 0)
(-7.62153 0.200005 0)
(-3.07065 -0.25213 0)
(-9.69989 0.22123 0)
(-4.66802 -2.07254 0)
(-8.13083 -0.28162 0)
(5.26985 -1.33038 0)
(-5.09682 -3.28278 0)
(-10.1298 -1.4935 0)
(-0.637479 1.83731 0)
(-3.7468 0.048025 0)
(1.30676 2.56223 0)
(-8.17902 1.68308 0)
(2.92722 1.46814 0)
(-3.86755 3.0355 0)
(6.06254 0.896389 0)
(4.88271 1.31591 0)
(-16.1052 -1.54569 0)
(-9.79171 2.44681 0)
(-14.1128 -2.1081 0)
(-11.4738 0.887019 0)
(-10.7489 -2.18722 0)
(-0.312176 -0.422467 0)
(7.94197 -2.0281 0)
(-5.11413 -3.2683 0)
(1.89575 -0.0660381 0)
(8.51789 0.88259 0)
(-1.06847 -0.831528 0)
(1.91153 1.99161 0)
(7.61409 -3.59175 0)
(12.3702 -1.68222 0)
(20.1355 -0.976222 0)
(2.97846 0.713112 0)
(-7.2954 1.91568 0)
(4.30708 1.75962 0)
(7.6904 -2.46849 0)
(11.2554 2.55919 0)
(-1.32847 0.185383 0)
(5.85827 0.424937 0)
(0.198198 -0.224666 0)
(2.91917 -2.29754 0)
(0.445508 -0.0584639 0)
(8.83573 -3.85732 0)
(-4.42093 -2.4624 0)
(4.38064 -2.16115 0)
(-0.791115 -1.03682 0)
(-8.19112 1.67197 0)
(-11.4528 -0.665096 0)
(-11.602 -0.579513 0)
(-7.22025 0.272777 0)
(-14.002 2.33852 0)
(-10.3818 1.84123 0)
(-4.65941 2.67066 0)
(-2.72915 2.45159 0)
(-7.65975 2.16977 0)
(-1.51937 1.50343 0)
(-5.08733 3.23861 0)
(-7.49344 2.28604 0)
(0.866579 1.22959 0)
(1.21091 0.514899 0)
(6.68675 -1.56553 0)
(3.47146 -0.786227 0)
(-5.2696 -0.521857 0)
(2.80475 -2.52103 0)
(10.0465 1.98334 0)
(-7.48351 -0.0746667 0)
(15.7789 1.2977 0)
(9.26958 1.63334 0)
(18.5769 -1.45553 0)
(15.8195 -1.85709 0)
(6.93058 0.184835 0)
(-0.0884962 -1.4597 0)
(-6.51145 1.83091 0)
(0.0285146 -3.69043 0)
(5.82676 -2.4762 0)
(-10.4034 -2.37207 0)
(-3.20185 0.872779 0)
(-9.73445 -1.34271 0)
(-1.82434 -0.268745 0)
(-4.09842 -0.371227 0)
(-0.267312 -0.429845 0)
(-15.2982 0.337977 0)
(-2.48743 -1.72441 0)
(-15.6566 -0.330768 0)
(-15.1857 -1.01321 0)
(-9.84263 -1.97279 0)
(-18.0216 -1.04819 0)
(-6.30771 3.07181 0)
(-8.4796 0.0398461 0)
(0.0666134 1.58814 0)
(-12.3969 1.4212 0)
(-2.54432 1.20622 0)
(-0.382827 2.61477 0)
(2.25955 1.95584 0)
(-5.61347 1.20319 0)
(-1.05534 0.886888 0)
(-8.92127 2.49322 0)
(2.86976 -0.410381 0)
(10.4498 0.26958 0)
(0.946052 -1.23644 0)
(0.00287128 -0.665995 0)
(-0.0636938 -1.68159 0)
(1.29797 -2.45792 0)
(-6.33337 0.179755 0)
(-11.0978 0.317188 0)
(9.30418 -0.360185 0)
(19.504 0.655991 0)
(-2.23955 3.06597 0)
(-6.00891 -1.13561 0)
(8.73163 0.0448631 0)
(2.07489 1.25518 0)
(-6.08666 1.6036 0)
(0.897627 1.74172 0)
(3.44275 -2.39862 0)
(7.10183 2.72994 0)
(-11.1613 0.46396 0)
(3.3645 1.41228 0)
(3.843 -0.0224775 0)
(4.03254 -1.24036 0)
(-4.3859 -0.473866 0)
(-3.6594 -2.31856 0)
(-4.81434 -1.21756 0)
(-16.7046 -1.41225 0)
(-6.86919 -0.153616 0)
(-16.0457 0.42659 0)
(-12.849 -1.0916 0)
(-14.8083 -1.70267 0)
(-16.1259 -0.0416916 0)
(-13.8278 2.67934 0)
(-15.7948 1.35659 0)
(-5.85731 3.04402 0)
(-1.94922 2.11662 0)
(-13.6235 2.31156 0)
(-23.8648 1.68858 0)
(2.84303 1.21976 0)
(1.21487 1.46405 0)
(7.26295 -0.150144 0)
(12.4576 -0.00666531 0)
(1.93124 -1.53764 0)
(2.1066 -0.332762 0)
(-9.93016 -1.2128 0)
(4.4233 -1.71658 0)
(16.8701 0.680928 0)
(5.29539 -1.35783 0)
(4.65632 -0.69996 0)
(15.1864 1.41935 0)
(-3.64767 -5.26536 0)
(6.68937 -0.616611 0)
(2.89008 -0.183116 0)
(-1.74315 -2.32483 0)
(-5.2648 1.62786 0)
(-10.1151 -3.55444 0)
(3.8581 -1.84697 0)
(-13.1527 -2.59853 0)
(-8.9588 0.66412 0)
(-7.6904 -2.97395 0)
(1.60354 -0.382407 0)
(-10.7683 -1.47082 0)
(-0.610343 -0.271052 0)
(-9.29014 -0.33207 0)
(-2.79125 -1.31496 0)
(-2.51665 0.31559 0)
(-2.78709 -0.59995 0)
(-12.1381 -1.51309 0)
(-15.6524 -0.457609 0)
(-17.4236 2.59728 0)
(-19.2289 0.306593 0)
(-4.91011 1.21663 0)
(-16.9947 0.532032 0)
(-21.6849 0.452629 0)
(-7.30389 3.16504 0)
(-5.85505 0.660448 0)
(-14.6379 0.699217 0)
(11.0632 1.49071 0)
(-0.668237 0.40666 0)
(7.16708 -0.0170771 0)
(17.7979 0.236843 0)
(6.39875 -1.4022 0)
(-1.32643 -0.284741 0)
(19.7704 -1.5187 0)
(10.367 -2.55231 0)
(5.411 -0.641115 0)
(5.87422 -0.460365 0)
(18.2358 0.544271 0)
(1.59078 0.6178 0)
(2.92744 3.88469 0)
(8.96731 0.340163 0)
(3.67065 -0.000151237 0)
(3.67984 2.38069 0)
(-5.15971 1.29479 0)
(3.45802 2.76017 0)
(1.26704 -1.83235 0)
(6.76355 3.73411 0)
(-10.1305 0.446304 0)
(5.31989 3.54815 0)
(-0.368642 -0.287277 0)
(9.50496 0.945219 0)
(-3.17727 -0.546823 0)
(2.50761 -0.354224 0)
(-4.29975 -0.853873 0)
(-15.2877 -1.5572 0)
(-4.58928 0.572645 0)
(-22.3629 1.91282 0)
(-19.7494 0.00860637 0)
(-18.8588 -0.5971 0)
(0.265176 0.0756944 0)
(-20.1691 1.68132 0)
(-18.4769 0.618377 0)
(-2.80967 3.32771 0)
(-0.260678 2.08008 0)
(-4.77465 0.900958 0)
(-6.05676 0.822032 0)
(6.60221 -1.60649 0)
(1.21828 -0.304397 0)
(8.88179 -0.0757743 0)
(15.0535 0.0943682 0)
(4.3448 -0.72736 0)
(9.00643 -0.00117863 0)
(-3.31161 -1.85664 0)
(9.6322 -2.07378 0)
(4.06782 -0.161691 0)
(0.229422 -0.921579 0)
(-6.69788 0.919114 0)
(9.03634 1.29066 0)
(-0.486324 -3.32078 0)
(-1.23088 -0.0480595 0)
(8.44938 -0.0305464 0)
(-3.53902 -3.28976 0)
(-3.86437 1.43739 0)
(-14.0332 -4.50987 0)
(1.84639 -1.14085 0)
(-16.3732 -4.17291 0)