/*--------------------------------*- C++ -*----------------------------------*\
  =========                 |
  \\      /  F ield         | OpenFOAM: The Open Source CFD Toolbox
   \\    /   O peration     | Website:  https://openfoam.org
    \\  /    A nd           | Version:  6
     \\/     M anipulation  |
\*---------------------------------------------------------------------------*/
FoamFile
{
    version     2.0;
    format      ascii;
    class       volVectorField;
    location    "3.26";
    object      U;
}
// * * * * * * * * * * * * * * * * * * * * * * * * * * * * * * * * * * * * * //

dimensions      [0 1 -1 0 0 0 0];

internalField   nonuniform List<vector> 
4214
(
(12.3459 0.14532 -2.56421e-19)
(12.7524 -0.334584 2.23483e-19)
(12.7933 -0.921356 0)
(12.755 -1.47268 0)
(12.6839 -2.07813 -2.51211e-19)
(12.5444 -2.80025 1.18311e-19)
(12.0106 -3.53824 -1.57029e-20)
(10.8752 -4.0801 -8.20457e-20)
(9.48935 -4.51127 -1.40972e-19)
(8.27142 -5.0273 2.92092e-19)
(7.3094 -5.60979 1.53982e-20)
(6.46474 -6.10563 -1.22496e-19)
(5.62341 -6.4312 0)
(4.80776 -6.64335 8.11977e-20)
(4.13376 -6.82789 4.45334e-20)
(3.72402 -7.00718 3.66261e-21)
(3.64436 -7.16829 0)
(3.96989 -7.26618 0)
(4.66897 -7.29272 3.52653e-19)
(5.70185 -7.20027 -4.2492e-19)
(6.99294 -6.91941 0)
(8.43296 -6.50208 -5.93531e-19)
(9.82343 -5.97482 1.23357e-19)
(11.0389 -5.37574 0)
(11.9675 -4.71138 0)
(12.5559 -3.99325 0)
(12.7965 -3.25812 1.564e-19)
(12.7951 -2.56336 -8.46747e-21)
(12.6504 -1.99646 -1.70027e-19)
(12.5176 -1.58958 3.31278e-20)
(12.4057 -1.28097 -1.38427e-20)
(12.2973 -1.03761 -8.37124e-21)
(12.1945 -0.840782 -1.32995e-20)
(12.1043 -0.681213 -1.78952e-21)
(12.0303 -0.54983 0)
(11.9722 -0.43981 1.62014e-22)
(11.9313 -0.342679 -1.63688e-22)
(11.9068 -0.254038 0)
(11.8846 -0.189223 0)
(11.7853 -0.134886 2.23257e-21)
(11.359 -0.0671136 1.30557e-19)
(12.1344 -0.310416 -1.75938e-18)
(12.2048 -0.670406 -1.73902e-18)
(12.1699 -1.12279 7.0702e-19)
(12.1382 -1.56522 -3.56737e-19)
(12.0648 -2.06514 5.45225e-19)
(11.9222 -2.65827 5.66564e-19)
(11.5356 -3.30395 0)
(10.6272 -3.79779 1.03314e-19)
(9.34699 -4.12972 0)
(8.11497 -4.51278 0)
(7.14641 -5.02195 2.20762e-20)
(6.36454 -5.54898 8.78098e-20)
(5.59255 -5.96649 0)
(4.78139 -6.27346 1.10118e-19)
(4.06248 -6.55176 -4.37087e-20)
(3.60789 -6.81775 -3.54678e-21)
(3.50048 -7.04199 0)
(3.85656 -7.15755 0)
(4.66582 -7.1206 -3.42856e-19)
(5.8939 -6.84143 4.14233e-19)
(7.40626 -6.36964 0)
(9.03408 -5.85857 4.53425e-19)
(10.5689 -5.28605 1.96519e-18)
(11.9121 -4.7497 -4.93456e-19)
(12.954 -4.21557 0)
(13.6066 -3.63524 -5.60806e-19)
(13.8672 -2.99095 -4.85017e-19)
(13.7602 -2.32061 1.34712e-19)
(13.4005 -1.72553 -5.92712e-20)
(13.0808 -1.31042 -4.81443e-20)
(12.8462 -1.03077 -3.23177e-20)
(12.6577 -0.824052 0)
(12.4956 -0.664159 -2.74445e-20)
(12.3594 -0.540331 1.28043e-20)
(12.2504 -0.442299 0)
(12.1655 -0.362214 0)
(12.1004 -0.295346 0)
(12.0523 -0.240371 0)
(12.0241 -0.20932 -1.72229e-19)
(12.0054 -0.174354 2.49177e-19)
(11.941 -0.0512821 -5.43628e-20)
(11.8441 -0.410745 3.85046e-18)
(11.943 -0.753328 -2.48241e-19)
(11.9589 -1.14178 -1.99485e-18)
(11.9315 -1.54115 9.80964e-19)
(11.8513 -1.99787 -1.93299e-18)
(11.703 -2.53533 -6.15088e-19)
(11.3475 -3.13011 1.04383e-19)
(10.5352 -3.60077 -1.05853e-19)
(9.32111 -3.87722 0)
(8.06682 -4.14758 4.92644e-19)
(7.04139 -4.55467 -4.80091e-20)
(6.24153 -5.04989 -5.93516e-19)
(5.49426 -5.49448 0)
(4.70556 -5.83114 0)
(3.98316 -6.11082 -2.91192e-19)
(3.5103 -6.3483 -4.60147e-20)
(3.40376 -6.51221 1.45625e-19)
(3.80451 -6.50648 9.75959e-19)
(4.69794 -6.24539 4.62556e-18)
(6.0215 -5.76793 -4.37169e-19)
(7.59545 -5.21504 0)
(9.23014 -4.61225 0)
(10.7718 -4.01837 -6.25476e-19)
(12.1105 -3.56334 -3.84677e-18)
(13.1726 -3.19984 0)
(13.9025 -2.84547 1.47149e-18)
(14.2214 -2.40738 8.48125e-19)
(14.1515 -1.89873 1.32243e-19)
(13.7093 -1.40485 0)
(13.292 -1.03139 -2.47418e-20)
(12.9872 -0.796756 7.38333e-21)
(12.7637 -0.633474 8.67925e-20)
(12.5808 -0.510537 0)
(12.4312 -0.417169 2.04779e-20)
(12.3122 -0.344804 4.23058e-20)
(12.2196 -0.285361 3.48031e-20)
(12.1496 -0.236476 -4.78992e-20)
(12.0975 -0.196882 0)
(12.0572 -0.165155 -3.64591e-20)
(12.0226 -0.140746 1.91825e-20)
(12.0044 -0.102863 5.85904e-19)
(11.6017 -0.543667 1.62571e-18)
(11.6689 -0.822242 7.81236e-20)
(11.6659 -1.15216 1.5687e-18)
(11.6336 -1.50544 1.52882e-18)
(11.5496 -1.91059 2.20702e-18)
(11.4015 -2.38567 -2.26012e-18)
(11.105 -2.92833 1.20081e-18)
(10.4255 -3.38623 0)
(9.31141 -3.63125 0)
(8.05341 -3.79993 0)
(6.96161 -4.07854 -6.52584e-19)
(6.11332 -4.48845 9.91139e-19)
(5.37148 -4.91836 0)
(4.60839 -5.26486 -4.22651e-19)
(3.88346 -5.5212 4.05065e-19)
(3.41749 -5.68601 2.41966e-19)
(3.31734 -5.72205 1.13853e-18)
(3.80196 -5.51975 -1.03919e-18)
(4.78956 -5.03701 -3.44515e-18)
(6.19787 -4.38312 -2.83083e-19)
(7.8317 -3.69397 0)
(9.45979 -3.00506 5.93129e-19)
(10.9716 -2.40068 -5.6188e-19)
(12.2359 -2.03126 3.80805e-18)
(13.2548 -1.84444 2.23616e-18)
(14.0311 -1.75271 -1.94589e-18)
(14.4116 -1.57875 0)
(14.4334 -1.27366 0)
(14.0096 -0.947903 0)
(13.5044 -0.672636 0)
(13.1311 -0.504066 0)
(12.8727 -0.398631 0)
(12.6709 -0.323102 -7.46027e-20)
(12.5107 -0.268423 1.60877e-19)
(12.3841 -0.226381 -3.10926e-20)
(12.2859 -0.19161 -4.92946e-20)
(12.2121 -0.163611 2.06338e-19)
(12.1573 -0.140771 1.68911e-19)
(12.1114 -0.119559 -2.7787e-19)
(12.0727 -0.103189 -1.40703e-19)
(12.0529 -0.0842914 5.67376e-19)
(11.386 -0.593013 4.17062e-18)
(11.4454 -0.835497 -2.00418e-18)
(11.4433 -1.12458 -5.61348e-19)
(11.4066 -1.44011 -1.58198e-18)
(11.3195 -1.80336 0)
(11.1662 -2.22512 2.38141e-18)
(10.8961 -2.71416 -1.42101e-18)
(10.321 -3.15859 1.71778e-19)
(9.317 -3.39174 -3.76085e-19)
(8.07855 -3.47672 3.67509e-19)
(6.92172 -3.61375 1.08076e-19)
(5.99496 -3.88771 4.73369e-19)
(5.22874 -4.24282 0)
(4.48928 -4.55619 0)
(3.78046 -4.74527 2.20066e-19)
(3.35052 -4.78399 -1.65043e-19)
(3.26413 -4.64052 -1.66455e-18)
(3.83677 -4.21436 5.47927e-19)
(4.89667 -3.51613 -1.64042e-19)
(6.35415 -2.6887 -3.28175e-19)
(7.99374 -1.8743 -1.85522e-19)
(9.57364 -1.14739 -1.47139e-19)
(10.9864 -0.583369 -2.07454e-19)
(12.1152 -0.327342 4.90459e-19)
(13.0395 -0.325903 -1.92289e-18)
(13.8249 -0.490316 -7.92986e-19)
(14.3969 -0.621317 2.89932e-19)
(14.4886 -0.566148 -1.30257e-19)
(14.1163 -0.42275 0)
(13.579 -0.280606 0)
(13.1666 -0.196606 -4.37988e-19)
(12.8921 -0.155009 0)
(12.6891 -0.130748 0)
(12.5309 -0.115684 1.80886e-19)
(12.4063 -0.10304 6.01108e-20)
(12.3103 -0.0919993 2.74524e-20)
(12.238 -0.0831385 -2.01944e-19)
(12.185 -0.0750356 1.42406e-19)
(12.1429 -0.0653341 -3.49455e-19)
(12.1077 -0.0617019 5.41113e-19)
(12.0835 -0.0581378 8.45717e-20)
(11.2004 -0.615643 1.47503e-18)
(11.2492 -0.823062 -1.34498e-18)
(11.2409 -1.07434 6.8695e-19)
(11.1967 -1.35773 -4.02359e-18)
(11.1046 -1.68418 -2.51664e-18)
(10.9463 -2.05839 -2.0993e-19)
(10.6922 -2.49225 1.67761e-18)
(10.2046 -2.91567 1.7157e-18)
(9.32018 -3.15019 0)
(8.13205 -3.17597 -4.34915e-19)
(6.93077 -3.17485 5.29674e-19)
(5.91631 -3.27695 -1.64729e-18)
(5.09628 -3.48631 2.53592e-20)
(4.36208 -3.70211 1.86722e-18)
(3.68937 -3.78511 0)
(3.32429 -3.66734 -1.0224e-19)
(3.2749 -3.31967 9.7015e-20)
(3.92962 -2.65468 2.95875e-19)
(5.04489 -1.76568 -2.7848e-19)
(6.51117 -0.791406 0)
(8.09535 0.0946792 0)
(9.60541 0.797641 0)
(10.8869 1.23964 0)
(11.8681 1.32053 0)
(12.6744 1.12781 4.50477e-19)
(13.4268 0.758909 -4.37424e-19)
(14.0974 0.373203 0)
(14.3968 0.156128 2.10744e-19)
(14.0554 0.0959832 -4.05312e-19)
(13.5445 0.10809 1.19361e-19)
(13.1192 0.101843 1.03465e-18)
(12.8485 0.0772638 -1.29135e-19)
(12.658 0.0507025 -6.87975e-19)
(12.5108 0.0290527 1.70987e-19)
(12.3956 0.0145818 -1.09448e-19)
(12.3076 0.00407439 -1.64936e-19)
(12.241 -0.0035201 2.00641e-19)
(12.1927 -0.00858013 -2.28265e-19)
(12.157 -0.010888 2.21896e-19)
(12.1278 -0.0158767 2.65862e-19)
(12.1019 -0.0190152 -4.43535e-19)
(11.0438 -0.605775 3.13525e-18)
(11.078 -0.789116 0)
(11.065 -1.00811 0)
(11.0145 -1.26292 2.68739e-18)
(10.9169 -1.55631 3.55627e-18)
(10.7531 -1.88832 0)
(10.5019 -2.26645 -1.65968e-18)
(10.0758 -2.65627 -1.59174e-18)
(9.30927 -2.89636 -1.11236e-19)
(8.20215 -2.88988 -2.37589e-19)
(6.99076 -2.76885 4.50737e-19)
(5.90195 -2.6872 0)
(5.00968 -2.69153 0)
(4.25676 -2.72755 1.71004e-18)
(3.63078 -2.66453 2.08421e-18)
(3.34785 -2.37471 -9.18875e-20)
(3.38969 -1.81066 8.74828e-20)
(4.10454 -0.904965 -2.9521e-19)
(5.22023 0.129956 2.78117e-19)
(6.64204 1.19325 0)
(8.11977 2.06571 0)
(9.52757 2.64668 0)
(10.6611 2.88612 -2.13524e-19)
(11.4867 2.75429 5.08987e-18)
(12.168 2.36519 -2.75771e-18)
(12.8697 1.82036 -1.66196e-19)
(13.5963 1.25451 0)
(14.0227 0.83769 -5.34907e-20)
(13.8387 0.58526 5.23241e-19)
(13.3973 0.461821 -1.38701e-19)
(12.9903 0.367035 -6.72113e-19)
(12.746 0.276661 7.89562e-19)
(12.5786 0.206035 5.76334e-19)
(12.4512 0.15334 -2.7726e-19)
(12.3519 0.115737 -3.01395e-19)
(12.2765 0.0876041 -1.31696e-19)
(12.2192 0.066939 7.40675e-20)
(12.1781 0.0514435 -2.33558e-19)
(12.1501 0.039511 7.49916e-19)
(12.1279 0.0282793 -4.54516e-19)
(12.105 0.0225277 4.42046e-19)
(10.9198 -0.577 -5.08935e-18)
(10.9309 -0.739097 0)
(10.9088 -0.93148 0)
(10.8508 -1.15988 0)
(10.7474 -1.4225 4.55037e-19)
(10.5785 -1.71572 -9.08281e-19)
(10.3247 -2.03968 4.27453e-18)
(9.93653 -2.3823 -1.23672e-19)
(9.27681 -2.62123 1.1357e-18)
(8.27613 -2.6071 5.55696e-20)
(7.09597 -2.3955 6.40006e-20)
(5.96534 -2.14187 1.19573e-19)
(5.00732 -1.91785 -2.32805e-19)
(4.22812 -1.70626 -3.0679e-18)
(3.6565 -1.43636 -4.17662e-18)
(3.43077 -0.96639 0)
(3.58737 -0.195399 1.53838e-18)
(4.3025 0.912233 -7.82967e-20)
(5.37486 2.03611 0)
(6.72482 3.09064 1.03494e-17)
(8.07731 3.85815 0)
(9.3391 4.22535 8.06471e-18)
(10.3062 4.22049 -5.91255e-18)
(10.9821 3.86494 -4.90654e-18)
(11.5588 3.29448 3.04296e-18)
(12.2192 2.60904 3.93092e-19)
(13.0049 1.92276 0)
(13.5655 1.38796 1.35695e-18)
(13.5042 1.00438 -1.79268e-18)
(13.156 0.751221 1.86801e-18)
(12.8032 0.576308 2.48372e-20)
(12.6007 0.429289 -7.46351e-19)
(12.4642 0.32548 -2.98419e-21)
(12.363 0.248169 7.26844e-19)
(12.2841 0.192765 8.33124e-19)
(12.2247 0.1515 3.11058e-19)
(12.1793 0.121239 -1.54333e-19)
(12.1469 0.0984116 -4.25229e-19)
(12.1265 0.0805357 2.90342e-19)
(12.1123 0.0659463 1.76876e-20)
(12.0969 0.0557969 6.79419e-20)
(10.8203 -0.531174 3.632e-18)
(10.809 -0.675227 -3.68016e-18)
(10.7732 -0.847599 0)
(10.7052 -1.05123 0)
(10.5943 -1.28347 0)
(10.4201 -1.53896 4.842e-19)
(10.1624 -1.81215 -2.64973e-19)
(9.79425 -2.09785 0)
(9.22183 -2.31932 -9.83607e-19)
(8.34256 -2.31344 0)
(7.23526 -2.04777 -5.25444e-19)
(6.1069 -1.65248 0)
(5.11436 -1.21893 -1.90524e-18)
(4.32383 -0.753688 2.10809e-20)
(3.7887 -0.221093 2.06966e-18)
(3.59827 0.467101 0)
(3.81451 1.42595 -1.42079e-18)
(4.48978 2.62366 8.44585e-21)
(5.52552 3.73982 7.98168e-18)
(6.7762 4.70183 -1.88054e-17)
(7.99221 5.29024 0)
(9.07106 5.38621 -7.89755e-18)
(9.87588 5.14463 5.71247e-18)
(10.4229 4.60064 0)
(10.9195 3.89447 -5.62804e-19)
(11.5496 3.12101 -1.03956e-18)
(12.3792 2.37421 0)
(13.0568 1.77151 -3.35075e-18)
(13.0936 1.30861 1.73914e-18)
(12.8589 0.953661 -1.85868e-18)
(12.5796 0.716862 0)
(12.4271 0.530466 0)
(12.3283 0.403862 0)
(12.258 0.309042 -9.33588e-19)
(12.2028 0.241642 -1.07562e-18)
(12.1614 0.191647 -5.03752e-19)
(12.1293 0.1551 3.36795e-19)
(12.1057 0.127737 -1.47812e-19)
(12.0918 0.106211 3.13455e-19)
(12.085 0.0887937 -1.83235e-20)
(12.0777 0.0762165 -3.74012e-20)
(10.7352 -0.473575 -3.63435e-18)
(10.7082 -0.602691 -4.43251e-20)
(10.6572 -0.756343 0)
(10.5764 -0.935763 3.74701e-18)
(10.4555 -1.13759 9.59338e-19)
(10.2756 -1.3559 -9.22482e-19)
(10.0155 -1.58171 -3.79806e-18)
(9.65756 -1.80693 2.03761e-18)
(9.14906 -1.9906 1.04807e-18)
(8.39265 -1.99496 0)
(7.39552 -1.71399 5.10814e-19)
(6.31958 -1.22162 4.96623e-19)
(5.33627 -0.623555 1.3715e-18)
(4.55247 0.0510187 0)
(4.02789 0.825907 0)
(3.85694 1.74285 7.95453e-19)
(4.08704 2.84047 0)
(4.73821 4.0281 0)
(5.7205 5.05276 -7.76412e-18)
(6.82952 5.87268 8.48045e-18)
(7.89392 6.2108 0)
(8.77905 6.05896 3.45652e-20)
(9.43196 5.63873 2.61994e-18)
(9.86818 4.97166 -9.01329e-19)
(10.3022 4.19322 1.13079e-18)
(10.9103 3.3823 -1.03376e-18)
(11.7683 2.62686 -2.26807e-18)
(12.5395 1.99506 1.8984e-18)
(12.6581 1.48998 3.05007e-19)
(12.5431 1.06524 2.41267e-18)
(12.3377 0.79149 0)
(12.2421 0.580151 0)
(12.1869 0.440063 0)
(12.1503 0.335036 0)
(12.1199 0.261412 -2.03291e-20)
(12.0964 0.207505 0)
(12.077 0.168585 9.88915e-19)
(12.0612 0.13965 -5.12948e-20)
(12.0519 0.116634 -4.48957e-20)
(12.0494 0.0980197 1.15931e-19)
(12.0476 0.0844061 1.58453e-19)
(10.6605 -0.407077 0)
(10.6208 -0.521313 3.53276e-18)
(10.557 -0.655392 1.82336e-18)
(10.4636 -0.810771 -8.9763e-18)
(10.3314 -0.982397 5.59843e-18)
(10.1451 -1.1636 -1.82343e-18)
(9.88442 -1.34447 -3.90564e-18)
(9.53382 -1.51118 -1.96179e-18)
(9.06846 -1.6406 -1.01353e-18)
(8.42196 -1.64218 -2.65298e-19)
(7.5611 -1.37828 1.05004e-18)
(6.58688 -0.844302 -1.01529e-18)
(5.65956 -0.136573 0)
(4.90093 0.689001 0)
(4.39051 1.63238 0)
(4.22853 2.70013 -1.73955e-18)
(4.45796 3.85927 -9.32472e-19)
(5.07539 4.98145 7.84376e-20)
(5.9574 5.87395 -4.80921e-18)
(6.89915 6.50065 0)
(7.80158 6.55357 0)
(8.51346 6.29361 6.30277e-18)
(9.02186 5.77321 -2.75968e-18)
(9.35555 5.04718 9.63727e-19)
(9.73826 4.25092 1.09624e-18)
(10.3294 3.4386 1.68906e-18)
(11.1978 2.7123 2.36669e-18)
(12.0488 2.0719 -3.7602e-19)
(12.2349 1.55512 1.85802e-20)
(12.2267 1.0939 -2.60313e-18)
(12.0958 0.80655 9.20903e-19)
(12.0627 0.58012 -7.16994e-20)
(12.0535 0.435865 -5.29049e-19)
(12.0494 0.328742 0)
(12.0411 0.255743 -3.02247e-21)
(12.0335 0.202763 -2.96595e-20)
(12.0254 0.165094 -1.07994e-18)
(12.017 0.13685 0)
(12.0112 0.114376 -6.21603e-19)
(12.0105 0.0964379 1.11155e-18)
(12.0116 0.0829323 -1.425e-18)
(10.5947 -0.329292 6.40812e-20)
(10.5425 -0.428386 1.26347e-19)
(10.4678 -0.542851 -1.58675e-18)
(10.3643 -0.673169 5.20571e-18)
(10.2227 -0.814105 -3.49982e-18)
(10.0305 -0.958641 0)
(9.77093 -1.09603 1.77392e-18)
(9.42892 -1.20886 3.86546e-18)
(8.9931 -1.27825 0)
(8.43431 -1.25583 2.57641e-19)
(7.71521 -1.02249 -1.03624e-18)
(6.8789 -0.502023 1.98051e-18)
(6.04825 0.250872 -3.64052e-18)
(5.34694 1.16287 1.49773e-18)
(4.87225 2.19543 -6.45568e-19)
(4.72207 3.31842 3.13217e-18)
(4.93661 4.45822 8.48593e-19)
(5.48542 5.47999 2.22397e-18)
(6.22576 6.23081 8.40191e-18)
(6.98562 6.66041 -1.3205e-19)
(7.71095 6.59186 0)
(8.28167 6.23345 -6.37604e-18)
(8.65988 5.66529 3.55705e-22)
(8.89783 4.92161 1.25239e-18)
(9.2395 4.13816 -1.69583e-18)
(9.81628 3.33948 0)
(10.6771 2.66192 4.56548e-19)
(11.6096 2.02234 -4.5507e-19)
(11.8378 1.51974 3.59705e-18)
(11.9252 1.04955 0)
(11.8721 0.765902 0)
(11.9005 0.535306 2.92574e-18)
(11.9341 0.39825 1.97421e-18)
(11.9587 0.297117 3.64336e-19)
(11.9689 0.23094 -5.29606e-20)
(11.9759 0.182085 7.54044e-19)
(11.9783 0.148171 6.63173e-19)
(11.9776 0.121824 -5.97492e-20)
(11.9752 0.101318 -1.27439e-18)
(11.9744 0.0855032 1.85893e-18)
(11.9759 0.0730269 -9.82957e-19)
(10.5393 -0.236983 3.06253e-18)
(10.4738 -0.320886 0)
(10.3892 -0.414894 0)
(10.2773 -0.519921 -6.50632e-18)
(10.1292 -0.630024 0)
(9.93382 -0.738077 -3.60816e-18)
(9.67824 -0.833156 -1.23785e-19)
(9.35077 -0.896786 -1.95357e-18)
(8.94153 -0.911595 3.93406e-18)
(8.44658 -0.848326 -1.46593e-18)
(7.85046 -0.633227 0)
(7.16349 -0.159261 0)
(6.45726 0.571144 9.56489e-19)
(5.84751 1.49523 3.81625e-18)
(5.43651 2.54276 0)
(5.30496 3.64803 -2.16851e-18)
(5.48906 4.71442 0)
(5.9356 5.6165 -3.5701e-18)
(6.51533 6.23091 -3.48905e-18)
(7.09842 6.55499 0)
(7.64181 6.41759 -2.20071e-18)
(8.07014 5.98522 0)
(8.33906 5.42487 -6.39603e-20)
(8.49091 4.68309 -3.40269e-18)
(8.80265 3.92087 -3.63094e-18)
(9.36516 3.12721 0)
(10.2068 2.50011 4.75454e-18)
(11.2212 1.86659 5.58848e-18)
(11.4753 1.40291 -7.32842e-19)
(11.6573 0.938145 2.66628e-18)
(11.6767 0.675536 1.20458e-19)
(11.7588 0.454227 1.80668e-18)
(11.8287 0.334965 -3.2408e-18)
(11.8812 0.245207 1.79353e-18)
(11.908 0.190847 0)
(11.9295 0.148493 0)
(11.9413 0.121014 -6.36548e-19)
(11.9478 0.0984238 6.62922e-19)
(11.9482 0.0820078 0)
(11.9463 0.0695031 0)
(11.9456 0.058881 -2.62875e-20)
(10.4981 -0.126543 0)
(10.4189 -0.194804 -2.93217e-18)
(10.3242 -0.267806 2.88021e-18)
(10.2044 -0.346886 -1.00053e-19)
(10.0515 -0.426541 6.26216e-18)
(9.85647 -0.499738 3.42043e-18)
(9.60793 -0.55635 7.12734e-18)
(9.2997 -0.576772 -1.58986e-18)
(8.91984 -0.542922 -3.65382e-18)
(8.47691 -0.433515 1.46993e-18)
(7.97691 -0.21008 2.06198e-20)
(7.43097 0.221187 -1.88372e-18)
(6.85947 0.885876 -1.62001e-18)
(6.3644 1.74851 -1.38388e-18)
(6.03402 2.74184 -2.13743e-18)
(5.9296 3.78065 0)
(6.06757 4.74352 7.13623e-19)
(6.38905 5.51971 1.45431e-18)
(6.80401 6.01748 -1.88948e-18)
(7.22498 6.21137 1.64608e-19)
(7.59757 6.07493 2.1902e-18)
(7.8836 5.67181 1.64128e-20)
(8.04718 5.15257 1.59628e-18)
(8.1142 4.39897 2.2412e-18)
(8.40115 3.64939 8.433e-18)
(8.95786 2.829 0)
(9.78328 2.24948 -1.04182e-17)
(10.8766 1.61882 -9.83291e-18)
(11.1649 1.21667 -8.36459e-18)
(11.4347 0.768171 -3.53148e-18)
(11.5105 0.544917 1.36319e-18)
(11.6379 0.344213 -2.73816e-18)
(11.7394 0.25166 -1.92356e-19)
(11.8222 0.175841 -2.82132e-18)
(11.8641 0.138425 1.45556e-18)
(11.8989 0.10543 0)
(11.9171 0.0880939 5.74562e-19)
(11.929 0.0718457 0)
(11.9318 0.0614529 0)
(11.929 0.0531339 -4.98378e-19)
(11.9251 0.0452218 -5.33817e-19)
(10.4769 0.00580076 -5.1419e-18)
(10.3842 -0.0441838 1.04714e-17)
(10.2807 -0.095834 -5.31965e-18)
(10.1524 -0.149191 5.76114e-18)
(9.99708 -0.202797 -6.01536e-18)
(9.80415 -0.243994 -5.54346e-20)
(9.56468 -0.264564 3.31057e-18)
(9.27804 -0.247265 -3.3238e-18)
(8.92743 -0.168814 -3.63168e-18)
(8.53987 -0.0252033 3.57595e-18)
(8.11065 0.229498 0)
(7.68632 0.64418 0)
(7.23583 1.2488 0)
(6.86214 2.00862 1.22896e-18)
(6.61345 2.89752 8.11607e-20)
(6.5297 3.8323 8.23043e-19)
(6.61458 4.67519 -1.63784e-18)
(6.81287 5.34049 0)
(7.06906 5.74259 1.68315e-18)
(7.33178 5.90341 -1.42679e-18)
(7.55314 5.77326 -4.41534e-21)
(7.70262 5.42169 6.465e-19)
(7.74975 4.92081 -1.63829e-18)
(7.71875 4.10915 -4.09772e-18)
(7.96889 3.34554 -1.09971e-17)
(8.57583 2.44763 0)
(9.40719 1.92553 1.18581e-17)
(10.6085 1.29472 -2.50456e-19)
(10.9171 0.969666 4.38931e-18)
(11.2581 0.553834 0)
(11.3762 0.38544 1.37435e-18)
(11.5459 0.210822 -2.50214e-18)
(11.6764 0.15407 1.13098e-18)
(11.7903 0.0938703 1.5426e-18)
(11.8424 0.0778768 -1.49114e-18)
(11.8875 0.0583562 -1.67513e-18)
(11.9082 0.0536273 3.89393e-20)
(11.9228 0.0460519 6.20451e-19)
(11.9266 0.0432595 0)
(11.924 0.0402721 9.99436e-20)
(11.9186 0.0363885 -6.21422e-19)
(10.4851 0.160095 -2.41014e-18)
(10.3837 0.132022 9.4307e-18)
(10.2748 0.092863 -2.40815e-18)
(10.1421 0.0647518 -8.01491e-18)
(9.98293 0.0341058 5.53798e-18)
(9.79907 0.0240212 1.46268e-19)
(9.56165 0.0416176 4.47105e-20)
(9.30567 0.0885919 -1.39215e-18)
(8.97635 0.218608 -8.22796e-18)
(8.65634 0.377266 6.76526e-18)
(8.26937 0.68296 -6.7805e-18)
(7.94351 1.07995 4.1515e-18)
(7.56759 1.65891 0)
(7.28565 2.3044 -3.71136e-18)
(7.09531 3.0851 1.97824e-18)
(7.02367 3.89603 4.76287e-19)
(7.07358 4.61343 -1.44919e-19)
(7.1776 5.20327 0)
(7.31538 5.55217 1.04374e-18)
(7.42176 5.74 1.46912e-18)
(7.4933 5.6298 -1.08341e-20)
(7.49144 5.31947 -6.61927e-19)
(7.39163 4.76351 -2.79958e-18)
(7.2388 3.83896 3.75165e-18)
(7.44268 3.00699 6.36293e-18)
(8.21625 1.9545 1.74413e-18)
(9.07798 1.52334 -1.3246e-17)
(10.3963 0.90999 4.16401e-18)
(10.7305 0.678249 -4.41709e-18)
(11.134 0.30676 0)
(11.2907 0.206017 -2.7001e-18)
(11.5002 0.0593284 -2.18372e-18)
(11.646 0.0458346 7.80079e-19)
(11.7895 0.00984974 -7.80655e-19)
(11.8451 0.0155878 0)
(11.8982 0.0139183 5.56562e-19)
(11.9171 0.0211715 -4.86435e-19)
(11.9312 0.0252088 1.34588e-19)
(11.9335 0.0293537 0)
(11.9318 0.0326226 4.12816e-19)
(11.926 0.0330715 0)
(10.5235 0.313259 -2.01559e-18)
(10.4343 0.314656 6.30518e-18)
(10.2941 0.284225 -4.36299e-18)
(10.1906 0.286485 -2.54354e-18)
(9.99867 0.28818 -2.16604e-19)
(9.85772 0.303277 5.25997e-18)
(9.59176 0.375784 -2.67e-18)
(9.39805 0.435319 -3.06145e-18)
(9.06886 0.630694 2.97381e-18)
(8.83656 0.775168 3.06861e-18)
(8.47123 1.1545 3.10789e-18)
(8.22715 1.49366 -3.87207e-18)
(7.88873 2.08638 2.63606e-18)
(7.65675 2.6166 1.06227e-18)
(7.48496 3.31565 0)
(7.40972 3.99091 -1.77166e-18)
(7.43779 4.61393 2.58231e-18)
(7.47293 5.17544 1.64752e-19)
(7.5043 5.5133 -1.12831e-18)
(7.4603 5.78434 -2.25542e-20)
(7.37571 5.6654 3.56398e-20)
(7.20139 5.38664 -1.67672e-19)
(6.94199 4.6919 3.53958e-18)
(6.64966 3.6072 -9.06582e-19)
(6.91039 2.6689 8.82785e-18)
(7.89488 1.32584 0)
(8.77015 1.02467 6.91283e-18)
(10.2456 0.458727 3.35718e-18)
(10.5729 0.330399 7.18951e-18)
(11.0755 0.0276129 3.43648e-18)
(11.245 -0.00433373 2.78184e-18)
(11.5045 -0.0972923 -4.73139e-19)
(11.6315 -0.0784128 -2.19821e-18)
(11.813 -0.0725906 0)
(11.8624 -0.0523726 0)
(11.9286 -0.0234797 4.97989e-19)
(11.9413 -0.0103412 -5.06365e-19)
(11.9543 0.0129242 6.75956e-19)
(11.955 0.01975 -4.36169e-19)
(11.9496 0.0337092 8.85932e-19)
(11.9446 0.0361981 -6.00983e-19)
(11.9305 0.0435116 -6.90107e-19)
(11.9193 0.0300948 1.85408e-20)
(11.9155 0.0264491 1.48693e-18)
(11.9248 0.0298299 0)
(11.9471 0.0410299 -6.82833e-19)
(11.9765 0.0548525 1.4091e-18)
(12.0083 0.0670956 3.72961e-20)
(12.0392 0.0734759 -1.5243e-18)
(12.0648 0.0710134 7.2852e-19)
(12.0808 0.0580372 2.11715e-18)
(12.0854 0.0386368 -2.5239e-20)
(12.0819 0.0141385 -1.28024e-18)
(12.0711 -0.0112564 0)
(12.0514 -0.0297061 -1.93104e-18)
(11.9976 -0.0331772 -7.5809e-19)
(11.7278 0.0723417 1.1231e-19)
(10.6055 -0.0542777 -3.03578e-19)
(11.9206 0.0461828 5.52514e-19)
(11.9096 0.0327313 8.03697e-19)
(11.9086 0.0247072 -7.68057e-20)
(11.9178 0.0246343 -6.5554e-19)
(11.9369 0.0320726 2.00249e-18)
(11.9611 0.0433179 -1.45912e-18)
(11.9876 0.0549145 7.71322e-19)
(12.0153 0.0634788 -8.40875e-19)
(12.0426 0.0655205 -8.3286e-19)
(12.0663 0.0600073 -2.39985e-18)
(12.0824 0.047487 2.3328e-18)
(12.0879 0.0298231 7.10283e-19)
(12.0876 0.0058474 -7.62685e-19)
(12.0804 -0.0179088 -1.38046e-18)
(12.0335 -0.0457031 1.16402e-18)
(11.77 -0.0198964 0)
(10.5707 -0.0905842 0)
(11.9011 0.0540179 -5.43093e-19)
(11.8992 0.0354053 0)
(11.9022 0.0238933 -2.18682e-18)
(11.9113 0.0193083 0)
(11.9276 0.0222153 -7.72614e-19)
(11.9486 0.0299547 9.07693e-19)
(11.9724 0.0399059 -1.73466e-18)
(11.9981 0.049251 -8.7119e-19)
(12.0246 0.0549365 9.17934e-19)
(12.05 0.0547448 -9.0352e-19)
(12.0714 0.0474016 8.83867e-19)
(12.0855 0.0351016 -8.51471e-19)
(12.0883 0.0182708 8.15989e-19)
(12.0823 0.00208089 1.51388e-18)
(12.0322 -0.0158396 -2.06728e-18)
(11.7276 -0.00470785 -6.83883e-19)
(10.496 -0.0596478 0)
(11.8896 0.0568781 9.9748e-19)
(11.8884 0.0390738 4.54317e-20)
(11.8941 0.0252114 2.11035e-18)
(11.9027 0.0167605 -3.78079e-19)
(11.9164 0.0158513 1.16314e-18)
(11.935 0.0202498 0)
(11.9575 0.0275848 9.74332e-19)
(11.9827 0.0360741 1.01597e-18)
(12.0091 0.0433586 1.02358e-18)
(12.0354 0.0468153 -1.01034e-18)
(12.0591 0.0450802 0)
(12.0775 0.037809 2.98101e-18)
(12.0864 0.0251376 -9.70703e-19)
(12.0796 0.0101048 0)
(12.0206 -0.00777658 0)
(11.6712 -0.00349602 1.61026e-18)
(10.4225 -0.0416648 -7.95635e-19)
(11.8712 0.0641922 2.73753e-20)
(11.8762 0.0445514 9.89369e-19)
(11.8842 0.0275928 -1.33723e-18)
(11.8926 0.0156847 7.45268e-19)
(11.9044 0.0114002 -5.78225e-20)
(11.9215 0.0125336 0)
(11.9431 0.0171024 0)
(11.9679 0.0236345 -5.49881e-19)
(11.9944 0.0305069 5.46955e-19)
(12.021 0.0361298 0)
(12.0452 0.0384139 0)
(12.0644 0.035704 -2.27358e-18)
(12.0768 0.0290145 1.12704e-18)
(12.0687 0.0189316 -1.09982e-18)
(11.9892 0.00662681 5.32044e-19)
(11.5841 0.00701371 -5.17362e-19)
(10.3441 -0.0184377 9.49833e-19)
(11.859 0.0692871 0)
(11.8628 0.0507807 -6.37073e-19)
(11.8713 0.0318037 0)
(11.8805 0.0171722 -1.67047e-18)
(11.8919 0.00964205 -1.63456e-18)
(11.9078 0.00730379 -2.47977e-19)
(11.9283 0.00913344 -1.07492e-18)
(11.9524 0.0132785 5.36648e-19)
(11.9786 0.0187981 5.97486e-19)
(12.005 0.0244929 -1.2171e-18)
(12.029 0.0285757 1.88416e-18)
(12.0475 0.0299673 2.60877e-20)
(12.058 0.0274868 1.89048e-18)
(12.0466 0.0214386 -6.38934e-19)
(11.9355 0.0154189 6.24111e-19)
(11.4795 0.0141556 3.06954e-19)
(10.2621 0.00390536 8.96813e-19)
(11.842 0.0785078 -1.45105e-19)
(11.8483 0.0578869 9.28771e-21)
(11.8561 0.0377255 2.15144e-19)
(11.8663 0.0207563 4.26199e-20)
(11.8783 0.0100469 7.94097e-19)
(11.8936 0.00467501 -1.07362e-18)
(11.9129 0.00342333 1.22548e-18)
(11.9357 0.00517793 -3.98271e-19)
(11.961 0.00883235 -3.4885e-19)
(11.9866 0.0134377 2.06862e-18)
(12.0093 0.0177701 -2.81492e-18)
(12.0256 0.0212287 6.99665e-19)
(12.0307 0.0222077 -1.45875e-18)
(12.0127 0.0205441 0)
(11.8642 0.0189843 -3.593e-19)
(11.3716 0.0177118 1.40302e-18)
(10.1798 0.0225211 -1.76398e-18)
(11.8283 0.0861515 1.42734e-20)
(11.8324 0.0663072 -8.6934e-20)
(11.8393 0.0450615 -1.19906e-19)
(11.8494 0.0269979 1.00669e-18)
(11.8625 0.0137151 -8.65173e-21)
(11.8779 0.00505961 1.34749e-18)
(11.8962 0.000613891 1.61802e-19)
(11.9177 -0.000180931 -1.53747e-18)
(11.9417 0.000742662 3.5666e-19)
(11.9659 0.00377304 -3.5646e-19)
(11.9867 0.00765973 1.49388e-18)
(11.9997 0.0116865 0)
(11.999 0.0144862 -3.92503e-19)
(11.971 0.0157077 3.87438e-19)
(11.7926 0.0178983 3.7024e-19)
(11.277 0.0173017 -1.1819e-18)
(10.1028 0.0345549 0)
(11.8117 0.0970973 0)
(11.8156 0.0759391 -1.00112e-18)
(11.8214 0.0542735 6.24144e-20)
(11.8306 0.0357136 3.57706e-20)
(11.8435 0.0208052 -3.62086e-20)
(11.8591 0.00980253 1.25262e-18)
(11.8772 0.00228055 -8.48052e-20)
(11.8977 -0.00228805 8.52981e-20)
(11.9204 -0.00350148 0)
(11.9433 -0.00264373 -7.39737e-19)
(11.9626 -0.000346286 -1.00284e-18)
(11.973 0.00267977 4.00942e-19)
(11.9679 0.00604488 5.93602e-19)
(11.9307 0.00933303 -8.07317e-19)
(11.7331 0.0141835 -1.67717e-18)
(11.2031 0.0160717 8.6626e-19)
(10.0389 0.042578 0)
(11.7965 0.107522 -5.62411e-20)
(11.7982 0.086917 0)
(11.8027 0.0654156 0)
(11.8107 0.0466248 1.23022e-18)
(11.8222 0.0311643 1.33741e-18)
(11.837 0.0181768 -2.75405e-18)
(11.8544 0.0084337 0)
(11.8742 0.00146677 -4.64301e-20)
(11.8962 -0.00309123 -7.50567e-19)
(11.9185 -0.00527377 8.45813e-19)
(11.9373 -0.00474396 2.54012e-20)
(11.9467 -0.00321327 -2.53056e-20)
(11.9399 -0.000220774 -8.59658e-19)
(11.8984 0.00365175 8.73957e-19)
(11.6909 0.00828471 8.85282e-19)
(11.1566 0.0115756 8.45632e-19)
(9.99872 0.0430295 0)
(11.779 0.121211 2.2137e-21)
(11.7802 0.0993009 -2.22771e-21)
(11.7835 0.0781315 0)
(11.7901 0.0593114 -1.30421e-18)
(11.7999 0.0432042 -2.04675e-18)
(11.8129 0.0293622 1.59292e-18)
(11.8285 0.0183013 5.49741e-19)
(11.847 0.00932284 0)
(11.8679 0.00258324 7.76736e-19)
(11.89 -0.0018929 0)
(11.9094 -0.0046566 2.03375e-19)
(11.9198 -0.00479241 -2.03154e-19)
(11.9133 -0.00351734 0)
(11.8742 -0.00146619 1.33209e-20)
(11.6686 0.00100061 -1.31871e-20)
(11.1405 0.00702745 -8.57056e-19)
(9.99055 0.0348323 -2.70808e-20)
(11.7618 0.135084 -7.8555e-20)
(11.7616 0.113041 -6.58645e-19)
(11.7637 0.0920888 8.1405e-20)
(11.7689 0.0729538 0)
(11.7771 0.056276 1.42121e-18)
(11.7881 0.0417539 0)
(11.8015 0.029674 -7.43955e-19)
(11.8177 0.0195851 0)
(11.8366 0.0114775 -7.69221e-19)
(11.8577 0.00512162 0)
(11.8777 0.000679963 3.99763e-19)
(11.8898 -0.00157598 3.98356e-19)
(11.8849 -0.0019755 0)
(11.85 -0.00213725 8.06735e-19)
(11.6637 -0.000508606 -9.12575e-19)
(11.1527 0.00707307 1.02428e-19)
(10.017 0.0240732 0)
(11.7429 0.151892 0)
(11.7421 0.128187 1.56526e-18)
(11.7433 0.107075 -1.73693e-19)
(11.7472 0.0874069 -1.10155e-18)
(11.7538 0.0700356 -3.6521e-19)
(11.7628 0.0546951 7.50022e-19)
(11.7741 0.041607 0)
(11.7877 0.0306083 3.80123e-19)
(11.804 0.0213709 2.56815e-21)
(11.823 0.0136658 3.79956e-19)
(11.8425 0.0079301 0)
(11.8563 0.004166 -7.78205e-19)
(11.8539 0.00173166 1.1566e-18)
(11.8223 1.53899e-05 -4.01768e-19)
(11.6686 0.000674463 7.83716e-19)
(11.1857 0.00745516 -3.80788e-19)
(10.075 0.0133121 0)
(11.7232 0.168449 0)
(11.7215 0.144418 -7.28271e-19)
(11.7216 0.123298 0)
(11.7242 0.103207 -3.60309e-20)
(11.7291 0.0852004 -7.78795e-19)
(11.7364 0.068984 -7.47367e-19)
(11.7457 0.0547519 -7.69658e-19)
(11.757 0.0425 -7.62357e-19)
(11.7707 0.0319709 -6.99364e-21)
(11.7871 0.0229273 -1.48398e-18)
(11.8053 0.0154271 -7.3963e-19)
(11.8205 0.00973943 -3.67013e-19)
(11.8221 0.00527609 -7.34614e-19)
(11.7963 0.00184553 -3.68384e-19)
(11.674 0.00164387 1.78938e-19)
(11.229 0.00467671 1.825e-19)
(10.1538 0.00183273 -3.45002e-19)
(11.7017 0.188478 6.18336e-19)
(11.6991 0.163061 0)
(11.6981 0.141627 -8.2766e-19)
(11.6991 0.121232 1.59213e-18)
(11.7024 0.102641 3.61792e-19)
(11.7078 0.0853996 1.18925e-18)
(11.7152 0.0695431 -1.28123e-20)
(11.7245 0.0552719 7.40422e-19)
(11.7358 0.0431527 7.27725e-19)
(11.7496 0.0328757 1.43784e-18)
(11.7661 0.0236668 -3.75198e-21)
(11.7822 0.0159292 3.38627e-19)
(11.7889 0.00928094 -3.33656e-19)
(11.7704 0.00298939 -3.32472e-19)
(11.6755 -0.000588101 3.29397e-19)
(11.2738 -0.00266284 -1.61239e-19)
(10.2438 -0.0096169 4.74817e-19)
(11.6784 0.208019 -8.52809e-19)
(11.6745 0.183314 4.61666e-19)
(11.6721 0.162079 4.18241e-19)
(11.6716 0.141434 -4.11833e-19)
(11.6731 0.12219 1.68309e-18)
(11.6765 0.103951 -1.20863e-18)
(11.6819 0.0866381 0)
(11.689 0.0703783 0)
(11.6978 0.056337 0)
(11.7089 0.044208 0)
(11.7232 0.0328815 3.3056e-19)
(11.7392 0.0232211 -3.48435e-19)
(11.7497 0.0143211 -1.31549e-18)
(11.7377 0.00471483 9.64198e-19)
(11.6688 6.96476e-05 -3.02714e-19)
(11.3126 -0.00817717 2.94316e-19)
(10.3341 -0.0138836 0)
(11.6521 0.232572 -4.87152e-19)
(11.647 0.206915 4.76056e-20)
(11.6434 0.184926 -9.48985e-19)
(11.6412 0.163769 9.08703e-19)
(11.6407 0.143858 4.69865e-19)
(11.6421 0.124795 -8.61795e-19)
(11.6451 0.106478 -4.44818e-19)
(11.6497 0.0888937 0)
(11.6557 0.0726737 -4.16335e-19)
(11.6639 0.0579849 7.49004e-19)
(11.6751 0.0449244 -3.80399e-19)
(11.6894 0.0337251 6.8693e-19)
(11.7022 0.0211857 -3.48963e-19)
(11.6979 0.00923295 -3.27038e-19)
(11.6457 0.00763032 -3.05265e-19)
(11.342 -0.0144091 0)
(10.4162 -0.0144862 0)
(11.6236 0.255215 2.85301e-19)
(11.6169 0.231061 5.61764e-19)
(11.6115 0.20928 -1.00562e-18)
(11.6073 0.187932 0)
(11.6047 0.167532 0)
(11.6036 0.147876 0)
(11.6041 0.12897 6.64798e-19)
(11.606 0.1106 0)