/*--------------------------------*- C++ -*----------------------------------*\
  =========                 |
  \\      /  F ield         | OpenFOAM: The Open Source CFD Toolbox
   \\    /   O peration     | Website:  https://openfoam.org
    \\  /    A nd           | Version:  6
     \\/     M anipulation  |
\*---------------------------------------------------------------------------*/
FoamFile
{
    version     2.0;
    format      ascii;
    class       volScalarField;
    location    "2.08";
    object      p;
}
// * * * * * * * * * * * * * * * * * * * * * * * * * * * * * * * * * * * * * //

dimensions      [1 -1 -2 0 0 0 0];

internalField   nonuniform List<scalar> 
5625
(
1.00939
0.98607
0.956887
0.922143
0.882598
0.839529
0.79469
0.750119
0.707983
0.670402
0.639201
0.615605
0.600166
0.59305
0.59432
0.603965
0.621816
0.647493
0.680351
0.719279
0.762488
0.807599
0.852139
0.894092
0.932138
0.965464
0.993446
1.0155
1.03121
1.0406
1.04425
1.04329
1.03917
1.03332
1.02694
1.02088
1.01561
1.01131
1.00799
1.00552
1.00375
1.00251
1.00167
1.00111
1.00074
1.00049
1.00033
1.00023
1.00016
1.00011
1.00008
1.00005
1.00004
1.00003
1.00002
1.00001
1.00001
1.00001
1
1
1
1
1
1
1
1
1
1
1
1
1
1
1
1
1
1.01737
0.997278
0.971879
0.941438
0.906582
0.86839
0.828382
0.788375
0.750353
0.716273
0.687802
0.666088
0.651747
0.645079
0.646232
0.655202
0.671768
0.695464
0.725543
0.760852
0.799681
0.839892
0.879355
0.916402
0.949936
0.979221
1.00361
1.02249
1.03546
1.0426
1.04455
1.04246
1.03771
1.03164
1.02532
1.01946
1.01446
1.01044
1.00735
1.00507
1.00345
1.00232
1.00155
1.00103
1.0007
1.00047
1.00032
1.00022
1.00016
1.00011
1.00008
1.00006
1.00004
1.00003
1.00002
1.00001
1.00001
1.00001
1
1
1
1
1
1
1
1
1
1
1
1
1
1
1
1
1
1.02478
1.00788
0.986201
0.96
0.929813
0.896548
0.861487
0.826223
0.792522
0.762124
0.736526
0.716815
0.703677
0.697514
0.698521
0.706685
0.721751
0.743203
0.770244
0.801717
0.836027
0.871291
0.905725
0.937962
0.967081
0.992386
1.0132
1.02891
1.03915
1.04407
1.04439
1.04125
1.03597
1.02976
1.02356
1.01797
1.01327
1.00954
1.0067
1.00462
1.00314
1.00212
1.00142
1.00096
1.00065
1.00045
1.00031
1.00022
1.00015
1.00011
1.00008
1.00006
1.00004
1.00003
1.00002
1.00001
1.00001
1.00001
1
1
1
1
1
1
1
1
1
1
1
1
1
1
1
1
1
1.03142
1.0176
0.999498
0.977377
0.95171
0.923252
0.893087
0.862578
0.833241
0.806585
0.783938
0.766343
0.754524
0.748928
0.749773
0.757042
0.770457
0.789485
0.813329
0.840879
0.870675
0.901094
0.930673
0.958303
0.983186
1.00464
1.02195
1.03453
1.0421
1.04489
1.04369
1.03963
1.03394
1.0277
1.0217
1.01642
1.01205
1.00863
1.00605
1.00417
1.00284
1.00192
1.0013
1.00088
1.00061
1.00042
1.00029
1.00021
1.00015
1.00011
1.00008
1.00005
1.00004
1.00003
1.00002
1.00001
1.00001
1.00001
1
1
1
1
1
1
1
1
1
1
1
1
1
1
1
1
1
1.0371
1.02622
1.0115
0.993212
0.971795
0.947895
0.922423
0.896505
0.871417
0.848446
0.828776
0.813381
0.802964
0.797978
0.798657
0.804989
0.816687
0.833218
0.853831
0.877499
0.902926
0.928736
0.953742
0.977044
0.997923
1.01568
1.02962
1.03917
1.04417
1.04498
1.04243
1.03761
1.03166
1.02549
1.01977
1.01483
1.01083
1.00772
1.0054
1.00372
1.00254
1.00173
1.00118
1.00081
1.00056
1.00039
1.00028
1.0002
1.00014
1.0001
1.00007
1.00005
1.00004
1.00003
1.00002
1.00001
1.00001
1.00001
1
1
1
1
1
1
1
1
1
1
1
1
1
1
1
1
1
1.04165
1.03354
1.02198
1.00725
0.98975
0.970057
0.948934
0.927311
0.906241
0.886815
0.870067
0.856875
0.847881
0.843528
0.844058
0.849459
0.859447
0.873522
0.890993
0.910945
0.93226
0.953795
0.974589
0.993886
1.01101
1.02527
1.03597
1.04264
1.04526
1.0443
1.0406
1.03523
1.02916
1.02318
1.0178
1.01326
1.00962
1.00684
1.00477
1.00329
1.00225
1.00154
1.00106
1.00073
1.00051
1.00036
1.00026
1.00019
1.00014
1.0001
1.00007
1.00005
1.00004
1.00003
1.00002
1.00001
1.00001
1.00001
1
1
1
1
1
1
1
1
1
1
1
1
1
1
1
1
1
1.04494
1.03942
1.03079
1.01931
1.00538
0.989491
0.972306
0.954595
0.937227
0.921115
0.907142
0.896066
0.888465
0.884754
0.88516
0.889669
0.898018
0.909765
0.924298
0.940806
0.958347
0.975995
0.992969
1.0086
1.02224
1.03319
1.04083
1.04484
1.04532
1.04283
1.03825
1.03252
1.0265
1.02081
1.01583
1.0117
1.00845
1.00599
1.00418
1.00288
1.00198
1.00136
1.00094
1.00066
1.00047
1.00033
1.00024
1.00018
1.00013
1.00009
1.00007
1.00005
1.00003
1.00002
1.00002
1.00001
1.00001
1
1
1
1
1
1
1
1
1
1
1
1
1
1
1
1
1
1
1.0469
1.04375
1.03781
1.02929
1.01856
1.00608
0.992409
0.978194
0.96416
0.951061
0.939632
0.930521
0.924239
0.921155
0.921467
0.925153
0.931991
0.941602
0.953455
0.966856
0.981015
0.995188
1.00873
1.02102
1.03142
1.03928
1.04409
1.04569
1.04433
1.04064
1.03544
1.02958
1.02375
1.01844
1.0139
1.01021
1.00734
1.00519
1.00362
1.0025
1.00173
1.00119
1.00083
1.00059
1.00042
1.0003
1.00022
1.00016
1.00012
1.00009
1.00006
1.00005
1.00003
1.00002
1.00002
1.00001
1.00001
1
1
1
1
1
1
1
1
1
1
1
1
1
1
1
1
1
1
1.04747
1.04647
1.04295
1.03712
1.02927
1.01981
1.00924
0.998109
0.987017
0.976593
0.967446
0.960112
0.955033
0.952535
0.952775
0.955725
0.961209
0.968915
0.978388
0.989036
1.00021
1.01131
1.02176
1.031
1.03841
1.04343
1.04571
1.04523
1.04238
1.0378
1.03227
1.02648
1.02098
1.01612
1.01205
1.0088
1.0063
1.00444
1.0031
1.00215
1.00149
1.00104
1.00073
1.00052
1.00038
1.00028
1.0002
1.00015
1.00011
1.00008
1.00006
1.00004
1.00003
1.00002
1.00001
1.00001
1.00001
1
1
1
1
1
1
1
1
1
1
1
1
1
1
1
1
1
1
1.04669
1.04754
1.0462
1.04276
1.03748
1.03071
1.02287
1.01443
1.00591
0.997822
0.990673
0.984908
0.980907
0.978938
0.97912
0.98143
0.98573
0.991771
0.999158
1.00739
1.01595
1.02431
1.03199
1.03845
1.04314
1.04562
1.04571
1.04355
1.03959
1.03447
1.02886
1.02332
1.01825
1.01389
1.01031
1.00749
1.00534
1.00376
1.00263
1.00183
1.00127
1.0009
1.00064
1.00046
1.00034
1.00025
1.00018
1.00014
1.0001
1.00008
1.00006
1.00004
1.00003
1.00002
1.00001
1.00001
1.00001
1
1
1
1
1
1
1
1
1
1
1
1
1
1
1
1
1
1
1.04462
1.04701
1.04755
1.04623
1.04323
1.03882
1.03338
1.02729
1.021
1.01495
1.00953
1.00514
1.00207
1.00055
1.00068
1.00245
1.00573
1.01033
1.0159
1.02202
1.02827
1.03421
1.0394
1.04335
1.04561
1.04591
1.04422
1.0408
1.03614
1.03081
1.02535
1.0202
1.01564
1.0118
1.0087
1.00629
1.00447
1.00315
1.0022
1.00154
1.00108
1.00077
1.00055
1.0004
1.0003
1.00022
1.00017
1.00012
1.00009
1.00007
1.00005
1.00004
1.00003
1.00002
1.00001
1.00001
1.00001
1
1
1
1
1
1
1
1
1
1
1
1
1
1
1
1
1
1
1.04146
1.04501
1.04707
1.04756
1.04655
1.04422
1.04087
1.03684
1.03249
1.02818
1.02427
1.02105
1.01879
1.01766
1.01774
1.01903
1.02145
1.02479
1.02876
1.03304
1.03725
1.04104
1.044
1.04574
1.04594
1.04448
1.04147
1.03724
1.03225
1.02698
1.02187
1.01722
1.01319
1.00987
1.00724
1.00521
1.0037
1.00261
1.00183
1.00129
1.00091
1.00065
1.00048
1.00035
1.00026
1.0002
1.00015
1.00011
1.00008
1.00006
1.00005
1.00003
1.00002
1.00002
1.00001
1.00001
1
1
1
1
1
1
1
1
1
1
1
1
1
1
1
1
1
1
1
1.03746
1.04176
1.04496
1.0469
1.04754
1.047
1.04546
1.04322
1.04054
1.03774
1.03511
1.03291
1.03133
1.03053
1.03056
1.03145
1.03309
1.03532
1.0379
1.04056
1.04299
1.04489
1.04593
1.04582
1.04439
1.04164
1.03777
1.03314
1.02814
1.02317
1.01853
1.01443
1.01096
1.00814
1.00594
1.00426
1.00303
1.00213
1.0015
1.00106
1.00076
1.00055
1.00041
1.0003
1.00023
1.00017
1.00013
1.0001
1.00008
1.00006
1.00004
1.00003
1.00002
1.00001
1.00001
1.00001
1
1
1
1
1
1
1
1
1
1
1
1
1
1
1
1
1
1
1
1.03294
1.03758
1.04151
1.04449
1.04642
1.04733
1.04732
1.04657
1.04533
1.04383
1.04229
1.04094
1.03995
1.03941
1.03941
1.03992
1.04089
1.04215
1.04351
1.04477
1.04568
1.04599
1.04546
1.04391
1.04131
1.03774
1.03346
1.02878
1.02403
1.0195
1.01542
1.01189
1.00896
1.00662
1.00481
1.00344
1.00244
1.00172
1.00122
1.00087
1.00063
1.00046
1.00034
1.00026
1.0002
1.00015
1.00012
1.00009
1.00007
1.00005
1.00004
1.00003
1.00002
1.00001
1.00001
1.00001
1
1
1
1
1
1
1
1
1
1
1
1
1
1
1
1
1
1
1
1.02823
1.03285
1.03709
1.0407
1.04353
1.04551
1.04669
1.04717
1.0471
1.04667
1.04606
1.04543
1.04491
1.04459
1.04453
1.04472
1.0451
1.04553
1.04587
1.04597
1.04563
1.04469
1.04299
1.04046
1.03714
1.0332
1.02886
1.02441
1.02009
1.01611
1.0126
1.00963
1.00721
1.0053
1.00383
1.00274
1.00194
1.00138
1.00098
1.00071
1.00052
1.00038
1.00029
1.00022
1.00017
1.00013
1.0001
1.00008
1.00006
1.00004
1.00003
1.00002
1.00002
1.00001
1.00001
1.00001
1
1
1
1
1
1
1
1
1
1
1
1
1
1
1
1
1
1
1
1.02362
1.02795
1.03215
1.036
1.03932
1.04199
1.044
1.04539
1.04623
1.04664
1.04676
1.04669
1.04656
1.04642
1.04631
1.04622
1.04609
1.04585
1.04539
1.0446
1.04334
1.04151
1.03905
1.03596
1.03236
1.02839
1.02428
1.02024
1.01645
1.01305
1.01012
1.00767
1.00571
1.00417
1.00301
1.00215
1.00153
1.00109
1.00078
1.00057
1.00042
1.00032
1.00024
1.00019
1.00015
1.00011
1.00009
1.00007
1.00005
1.00004
1.00003
1.00002
1.00001
1.00001
1.00001
1
1
1
1
1
1
1
1
1
1
1
1
1
1
1
1
1
1
1
1
1.01933
1.02321
1.02711
1.03086
1.03431
1.03731
1.0398
1.04176
1.04322
1.04423
1.04488
1.04524
1.04539
1.04538
1.04522
1.04491
1.04442
1.04369
1.04265
1.04124
1.03939
1.03705
1.03421
1.03095
1.02738
1.02365
1.01995
1.01642
1.0132
1.01038
1.00798
1.00601
1.00445
1.00324
1.00233
1.00166
1.00119
1.00085
1.00062
1.00046
1.00034
1.00026
1.0002
1.00016
1.00012
1.0001
1.00008
1.00006
1.00004
1.00003
1.00002
1.00002
1.00001
1.00001
1.00001
1
1
1
1
1
1
1
1
1
1
1
1
1
1
1
1
1
1
1
1
1.01552
1.01883
1.02229
1.02573
1.02902
1.03204
1.03469
1.03692
1.03871
1.04009
1.04107
1.04171
1.04205
1.04212
1.04192
1.04147
1.04074
1.0397
1.03833
1.03658
1.03444
1.0319
1.02901
1.02585
1.02254
1.01922
1.01602
1.01305
1.01039
1.0081
1.00618
1.00462
1.0034
1.00247
1.00177
1.00127
1.00091
1.00066
1.00048
1.00036
1.00027
1.00021
1.00017
1.00013
1.00011
1.00008
1.00006
1.00005
1.00004
1.00003
1.00002
1.00001
1.00001
1.00001
1
1
1
1
1
1
1
1
1
1
1
1
1
1
1
1
1
1
1
1
1
1.01224
1.01499
1.01791
1.02091
1.02387
1.02668
1.02925
1.0315
1.03339
1.0349
1.03605
1.03683
1.03727
1.03738
1.03718
1.03665
1.03581
1.03463
1.03312
1.03126
1.02908
1.0266
1.02388
1.02101
1.01811
1.01527
1.01259
1.01016
1.00802
1.0062
1.00469
1.00349
1.00256
1.00185
1.00133
1.00095
1.00068
1.0005
1.00037
1.00028
1.00022
1.00017
1.00014
1.00011
1.00009
1.00007
1.00005
1.00004
1.00003
1.00002
1.00002
1.00001
1.00001
1.00001
1
1
1
1
1
1
1
1
1
1
1
1
1
1
1
1
1
1
1
1
1
1.00949
1.01171
1.01411
1.01663
1.01916
1.02163
1.02394
1.02603
1.02784
1.02934
1.03049
1.03131
1.03178
1.03191
1.03171
1.03117
1.03031
1.02913
1.02763
1.02585
1.0238
1.02153
1.01912
1.01665
1.0142
1.01185
1.00969
1.00775
1.00606
1.00465
1.0035
1.00258
1.00188
1.00136
1.00097
1.0007
1.00051
1.00037
1.00028
1.00022
1.00017
1.00014
1.00011
1.00009
1.00007
1.00006
1.00005
1.00004
1.00003
1.00002
1.00001
1.00001
1.00001
1.00001
1
1
1
1
1
1
1
1
1
1
1
1
1
1
1
1
1
1
1
1
1
1.00726
1.00901
1.01093
1.01297
1.01505
1.01712
1.0191
1.02093
1.02255
1.0239
1.02498
1.02574
1.02619
1.02632
1.02613
1.02563
1.02482
1.02372
1.02235
1.02074
1.01893
1.01697
1.01493
1.01288
1.01088
1.009
1.00729
1.00578
1.00449
1.00341
1.00255
1.00187
1.00136
1.00097
1.0007
1.0005
1.00037
1.00028
1.00021
1.00017
1.00014
1.00011
1.00009
1.00007
1.00006
1.00005
1.00004
1.00003
1.00002
1.00002
1.00001
1.00001
1.00001
1
1
1
1
1
1
1
1
1
1
1
1
1
1
1
1
1
1
1
1
1
1
1.00548
1.00683
1.00833
1.00993
1.0116
1.01327
1.0149
1.01643
1.01779
1.01896
1.01988
1.02055
1.02095
1.02107
1.02089
1.02044
1.01973
1.01876
1.01758
1.0162
1.01467
1.01305
1.01138
1.00973
1.00815
1.00669
1.00537
1.00422
1.00325
1.00245
1.00181
1.00132
1.00095
1.00068
1.00049
1.00035
1.00026
1.0002
1.00016
1.00013
1.0001
1.00009
1.00007
1.00006
1.00005
1.00004
1.00003
1.00002
1.00002
1.00001
1.00001
1.00001
1.00001
1
1
1
1
1
1
1
1
1
1
1
1
1
1
1
1
1
1
1
1
1
1
1.00409
1.00511
1.00626
1.0075
1.00879
1.01011
1.0114
1.01262
1.01372
1.01467
1.01544
1.016
1.01632
1.01641
1.01626
1.01588
1.01527
1.01446
1.01347
1.01233
1.01109
1.00979
1.00848
1.00719
1.00597
1.00485
1.00386
1.003
1.00229
1.00171
1.00125
1.0009
1.00065
1.00046
1.00033
1.00024
1.00018
1.00014
1.00012
1.0001
1.00008
1.00007
1.00006
1.00005
1.00004
1.00003
1.00003
1.00002
1.00001
1.00001
1.00001
1.00001
1
1
1
1
1
1
1
1
1
1
1
1
1
1
1
1
1
1
1
1
1
1
1
1.00302
1.00379
1.00465
1.00558
1.00656
1.00757
1.00857
1.00951
1.01038
1.01112
1.01173
1.01216
1.01242
1.01248
1.01235
1.01203
1.01153
1.01087
1.01007
1.00917
1.00819
1.00718
1.00616
1.00518
1.00426
1.00343
1.0027
1.00208
1.00157
1.00116
1.00084
1.0006
1.00042
1.0003
1.00022
1.00016
1.00012
1.0001
1.00008
1.00007
1.00006
1.00005
1.00004
1.00004
1.00003
1.00003
1.00002
1.00002
1.00001
1.00001
1.00001
1
1
1
1
1
1
1
1
1
1
1
1
1
1
1
1
1
1
1
1
1
1
1
1
1.00222
1.00278
1.00342
1.00411
1.00484
1.00559
1.00633
1.00705
1.0077
1.00827
1.00873
1.00906
1.00925
1.00929
1.00917
1.00891
1.00851
1.00798
1.00736
1.00666
1.00591
1.00514
1.00437
1.00364
1.00297
1.00236
1.00184
1.00139
1.00103
1.00075
1.00053
1.00037
1.00026
1.00018
1.00013
1.0001
1.00008
1.00007
1.00006
1.00005
1.00005
1.00004
1.00003
1.00003
1.00002
1.00002
1.00002
1.00001
1.00001
1.00001
1.00001
1
1
1
1
1
1
1
1
1
1
1
1
1
1
1
1
1
1
1
1
1
1
1
1
1.00162
1.00203
1.00249
1.00299
1.00353
1.00408
1.00463
1.00515
1.00563
1.00605
1.00638
1.00662
1.00675
1.00677
1.00667
1.00646
1.00614
1.00573
1.00525
1.00472
1.00416
1.00358
1.00302
1.00249
1.002
1.00157
1.0012
1.0009
1.00065
1.00046
1.00032
1.00022
1.00015
1.0001
1.00007
1.00006
1.00005
1.00004
1.00004
1.00004
1.00003
1.00003
1.00003
1.00002
1.00002
1.00002
1.00001
1.00001
1.00001
1.00001
1
1
1
1
1
1
1
1
1
1
1
1
1
1
1
1
1
1
1
1
1
1
1
1
1
1.00118
1.00148
1.00181
1.00217
1.00255
1.00294
1.00333
1.00371
1.00405
1.00435
1.00459
1.00475
1.00484
1.00484
1.00475
1.00458
1.00433
1.00402
1.00366
1.00326
1.00285
1.00243
1.00202
1.00164
1.0013
1.001
1.00075
1.00054
1.00038
1.00026
1.00017
1.00011
1.00007
1.00005
1.00003
1.00003
1.00003
1.00003
1.00003
1.00003
1.00002
1.00002
1.00002
1.00002
1.00001
1.00001
1.00001
1.00001
1.00001
1
1
1
1
1
1
1
1
1
1
1
1
1
1
1
1
1
1
1
1
1
1
1
1
1
1
1.00086
1.00107
1.00131
1.00156
1.00183
1.00211
1.00238
1.00264
1.00289
1.00309
1.00325
1.00336
1.0034
1.00339
1.00331
1.00318
1.00299
1.00276
1.00249
1.0022
1.00189
1.00159
1.00131
1.00104
1.00081
1.0006
1.00043
1.0003
1.0002
1.00012
1.00007
1.00004
1.00002
1.00001
1.00001
1.00001
1.00001
1.00001
1.00002
1.00002
1.00002
1.00002
1.00001
1.00001
1.00001
1.00001
1.00001
1.00001
1
1
1
1
1
1
1
1
1
1
1
1
1
1
1
1
1
1
1
1
1
1
1
1
1
1
1
1.00063
1.00078
1.00095
1.00112
1.00131
1.0015
1.00169
1.00187
1.00203
1.00216
1.00227
1.00234
1.00236
1.00233
1.00227
1.00216
1.00201
1.00184
1.00164
1.00143
1.00122
1.001
1.00081
1.00062
1.00047
1.00033
1.00022
1.00014
1.00008
1.00003
1.00001
0.999994
0.999988
0.999988
0.999992
0.999997
1
1.00001
1.00001
1.00001
1.00001
1.00001
1.00001
1.00001
1.00001
1.00001
1.00001
1
1
1
1
1
1
1
1
1
1
1
1
1
1
1
1
1
1
1
1
1
1
1
1
1
1
1
1
1.00047
1.00057
1.00068
1.00081
1.00094
1.00106
1.00119
1.00131
1.00142
1.0015
1.00156
1.0016
1.0016
1.00158
1.00152
1.00144
1.00133
1.0012
1.00105
1.0009
1.00075
1.0006
1.00046
1.00034
1.00024
1.00015
1.00009
1.00004
1
0.999982
0.999971
0.999968
0.99997
0.999975
0.999981
0.999988
0.999995
1
1
1.00001
1.00001
1.00001
1.00001
1.00001
1.00001
1.00001
1
1
1
1
1
1
1
1
1
1
1
1
1
1
1
1
1
1
1
1
1
1
1
1
1
1
1
1
1
1.00035
1.00042
1.0005
1.00059
1.00067
1.00076
1.00084
1.00092
1.00098
1.00103
1.00107
1.00108
1.00108
1.00105
1.001
1.00093
1.00085
1.00075
1.00065
1.00054
1.00043
1.00033
1.00024
1.00016
1.00009
1.00004
1
0.999974
0.999957
0.99995
0.99995
0.999954
0.999961
0.99997
0.999978
0.999985
0.999992
0.999997
1
1
1
1.00001
1.00001
1.00001
1
1
1
1
1
1
1
1
1
1
1
1
1
1
1
1
1
1
1
1
1
1
1
1
1
1
1
1
1
1
1
1.00027
1.00031
1.00037
1.00043
1.00049
1.00054
1.00059
1.00064
1.00068
1.00071
1.00072
1.00073
1.00071
1.00068
1.00064
1.00059
1.00052
1.00045
1.00038
1.0003
1.00023
1.00016
1.0001
1.00005
1
0.999975
0.999955
0.999943
0.999938
0.999938
0.999942
0.999949
0.999958
0.999967
0.999976
0.999983
0.999989
0.999995
0.999999
1
1
1
1
1
1
1
1
1
1
1
1
1
1
1
1
1
1
1
1
1
1
1
1
1
1
1
1
1
1
1
1
1
1
1
1
1.0002
1.00024
1.00027
1.00031
1.00035
1.00039
1.00042
1.00045
1.00047
1.00048
1.00049
1.00048
1.00047
1.00044
1.0004
1.00036
1.00031
1.00026
1.0002
1.00015
1.0001
1.00005
1.00001
0.999983
0.999957
0.999941
0.999931
0.999927
0.999928
0.999934
0.999941
0.99995
0.99996
0.999969
0.999977
0.999984
0.99999
0.999994
0.999997
0.999999
1
1
1
1
1
1
1
1
1
1
1
1
1
1
1
1
1
1
1
1
1
1
1
1
1
1
1
1
1
1
1
1
1
1
1
1.00015
1.00018
1.00021
1.00023
1.00026
1.00028
1.0003
1.00032
1.00033
1.00033
1.00033
1.00032
1.0003
1.00028
1.00025
1.00021
1.00017
1.00014
1.00009
1.00006
1.00002
0.999991
0.999966
0.999947
0.999934
0.999927
0.999924
0.999925
0.99993
0.999937
0.999945
0.999954
0.999962
0.999971
0.999978
0.999984
0.99999
0.999994
0.999997
0.999999
1
1
1
1
1
1
1
1
1
1
1
1
1
1
1
1
1
1
1
1
1
1
1
1
1
1
1
1
1
1
1
1
1
1
1
1.00012
1.00014
1.00016
1.00018
1.00019
1.00021
1.00022
1.00023
1.00023
1.00023
1.00022
1.00021
1.00019
1.00017
1.00015
1.00012
1.00009
1.00006
1.00003
1
0.99998
0.99996
0.999945
0.999933
0.999926
0.999924
0.999924
0.999928
0.999934
0.999942
0.99995
0.999959
0.999967
0.999974
0.99998
0.999986
0.999991
0.999994
0.999997
0.999998
1
1
1
1
1
1
1
1
1
1
1
1
1
1
1
1
1
1
1
1
1
1
1
1
1
1
1
1
1
1
1
1
1
1
1
1.00009
1.00011
1.00012
1.00013
1.00014
1.00015
1.00016
1.00016
1.00016
1.00016
1.00015
1.00014
1.00012
1.00011
1.00009
1.00006
1.00004
1.00002
0.999996
0.999977
0.99996
0.999947
0.999937
0.999931
0.999927
0.999928
0.999931
0.999936
0.999942
0.999949
0.999956
0.999964
0.999971
0.999978
0.999983
0.999988
0.999991
0.999994
0.999997
0.999999
1
1
1
1
1
1
1
1
1
1
1
1
1
1
1
1
1
1
1
1
1
1
1
1
1
1
1
1
1
1
1
1
1
1
1
1.00007
1.00008
1.00009
1.0001
1.00011
1.00012
1.00012
1.00012
1.00012
1.00011
1.0001
1.00009
1.00008
1.00006
1.00005
1.00003
1.00001
0.999995
0.999979
0.999964
0.999954
0.999945
0.999937
0.999934
0.999934
0.999935
0.999939
0.999944
0.999951
0.999958
0.999964
0.99997
0.999976
0.999981
0.999986
0.99999
0.999993
0.999995
0.999997
0.999998
0.999999
0.999999
1
1
1
1
1
1
1
1
1
1
1
1
1
1
1
1
1
1
1
1
1
1
1
1
1
1
1
1
1
1
1
1
1
1.00006
1.00006
1.00007
1.00008
1.00008
1.00009
1.00009
1.00009
1.00009
1.00008
1.00007
1.00006
1.00005
1.00004
1.00002
1.00001
0.999997
0.999984
0.999972
0.999962
0.999954
0.999948
0.999945
0.999943
0.999943
0.999946
0.999949
0.999953
0.999959
0.999964
0.99997
0.999976
0.99998
0.999985
0.999989
0.999991
0.999994
0.999996
0.999997
0.999999
0.999999
0.999999
1
1
1
1
1
1
1
1
1
1
1
1
1
1
1
1
1
1
1
1
1
1
1
1
1
1
1
1
1
1
1
1
1
1.00004
1.00005
1.00006
1.00006
1.00006
1.00007
1.00007
1.00006
1.00006
1.00006
1.00005
1.00004
1.00003
1.00002
1.00001
1
0.99999
0.999981
0.999972
0.999964
0.999958
0.999954
0.999952
0.999952
0.999952
0.999954
0.999957
0.999962
0.999967
0.999971
0.999975
0.99998
0.999984
0.999988
0.99999
0.999993
0.999995
0.999996
0.999998
0.999999
0.999999
1
1
1
1
1
1
1
1
1
1
1
1
1
1
1
1
1
1
1
1
1
1
1
1
1
1
1
1
1
1
1
1
1
1
1.00003
1.00004
1.00004
1.00005
1.00005
1.00005
1.00005
1.00005
1.00005
1.00004
1.00004
1.00003
1.00002
1.00001
1.00001
0.999996
0.999989
0.999981
0.999974
0.999968
0.999964
0.999961
0.99996
0.99996
0.999962
0.999964
0.999966
0.99997
0.999973
0.999977
0.999981
0.999984
0.999987
0.99999
0.999992
0.999994
0.999996
0.999997
0.999998
0.999999
0.999999
0.999999
1
1
1
1
1
1
1
1
1
1
1
1
1
1
1
1
1
1
1
1
1
1
1
1
1
1
1
1
1
1
1
1
1
1.00003
1.00003
1.00003
1.00004
1.00004
1.00004
1.00004
1.00004
1.00003
1.00003
1.00003
1.00002
1.00001
1.00001
1
0.999995
0.999989
0.999983
0.999978
0.999974
0.99997
0.999969
0.999968
0.999968
0.999969
0.99997
0.999973
0.999976
0.999979
0.999982
0.999985
0.999988
0.99999
0.999992
0.999994
0.999996
0.999997
0.999998
0.999999
0.999999
1
1
1
1
1
1
1
1
1
1
1
1
1
1
1
1
1
1
1
1
1
1
1
1
1
1
1
1
1
1
1
1
1
1
1
1.00002
1.00002
1.00003
1.00003
1.00003
1.00003
1.00003
1.00003
1.00003
1.00002
1.00002
1.00002
1.00001
1
0.999999
0.999995
0.999989
0.999985
0.999981
0.999979
0.999976
0.999975
0.999975
0.999975
0.999976
0.999978
0.999979
0.999981
0.999983
0.999986
0.999988
0.99999
0.999992
0.999994
0.999995
0.999996
0.999997
0.999998
0.999999
0.999999
0.999999
1
1
1
1
1
1
1
1
1
1
1
1
1
1
1
1
1
1
1
1
1
1
1
1
1
1
1
1
1
1
1
1
1
1
1.00002
1.00002
1.00002
1.00002
1.00002
1.00002
1.00002
1.00002
1.00002
1.00002
1.00001
1.00001
1.00001
1
0.999999
0.999995
0.999992
0.999989
0.999985
0.999983
0.999982
0.999981
0.999981
0.999981
0.999981
0.999982
0.999984
0.999986
0.999988
0.99999
0.999991
0.999993
0.999994
0.999995
0.999996
0.999997
0.999998
0.999998
0.999999
0.999999
0.999999
1
1
1
1
1
1
1
1
1
1
1
1
1
1
1
1
1
1
1
1
1
1
1
1
1
1
1
1
1
1
1
1
1
1
1.00001
1.00001
1.00001
1.00001
1.00002
1.00002
1.00002
1.00002
1.00001
1.00001
1.00001
1.00001
1
1
0.999999
0.999995
0.999993
0.999991
0.999988
0.999987
0.999986
0.999985
0.999985
0.999985
0.999986
0.999987
0.999988
0.999989
0.99999
0.999992
0.999993
0.999995
0.999996
0.999997
0.999997
0.999998
0.999998
0.999999
0.999999
1
1
1
1
1
1
1
1
1
1
1
1
1
1
1
1
1
1
1
1
1
1
1
1
1
1
1
1
1
1
1
1
1
1
1
1
1.00001
1.00001
1.00001
1.00001
1.00001
1.00001
1.00001
1.00001
1.00001
1.00001
1.00001
1.00001
1
1
0.999999
0.999997
0.999994
0.999993
0.999992
0.99999
0.999989
0.999988
0.999989
0.999989
0.999989
0.99999
0.999991
0.999992
0.999993
0.999994
0.999995
0.999996
0.999997
0.999997
0.999998
0.999998
0.999999
0.999999
1
1
1
1
1
1
1
1
1
1
1
1
1
1
1
1
1
1
1
1
1
1
1
1
1
1
1
1
1
1
1
1
1
1
1
1
1
1.00001
1.00001
1.00001
1.00001
1.00001
1.00001
1.00001
1.00001
1.00001
1.00001
1.00001
1
1
1
0.999999
0.999998
0.999996
0.999995
0.999994
0.999993
0.999992
0.999992
0.999992
0.999992
0.999993
0.999993
0.999993
0.999994
0.999995
0.999995
0.999996
0.999997
0.999997
0.999998
0.999999
0.999999
0.999999
0.999999
1
1
1
1
1
1
1
1
1
1
1
1
1
1
1
1
1
1
1
1
1
1
1
1
1
1
1
1
1
1
1
1
1
1
1
1
1
1
1
1.00001
1.00001
1.00001
1.00001
1.00001
1.00001
1.00001
1
1
1
1
1
0.999999
0.999998
0.999997
0.999996
0.999995
0.999994
0.999995
0.999994
0.999994
0.999994
0.999995
0.999995
0.999995
0.999995
0.999996
0.999997
0.999997
0.999998
0.999998
0.999999
0.999999
0.999999
0.999999
1
1
1
1
1
1
1
1
1
1
1
1
1
1
1
1
1
1
1
1
1
1
1
1
1
1
1
1
1
1
1
1
1
1
1
1
1
1
1
1
1
1
1
1
1
1
1
1
1
1
1
1
0.999999
0.999999
0.999998
0.999997
0.999997
0.999997
0.999996
0.999996
0.999996
0.999996
0.999996
0.999996
0.999996
0.999997
0.999997
0.999998
0.999998
0.999998
0.999999
0.999999
0.999999
0.999999
1
1
1
1
1
1
1
1
1
1
1
1
1
1
1
1
1
1
1
1
1
1
1
1
1
1
1
1
1
1
1
1
1
1
1
1
1
1
1
1
1
1
1
1
1
1
1
1
1
1
1
1
1
1
0.999999
0.999998
0.999998
0.999998
0.999997
0.999997
0.999997
0.999997
0.999997
0.999997
0.999997
0.999998
0.999998
0.999998
0.999998
0.999999
0.999999
0.999999
0.999999
0.999999
1
1
1
1
1
1
1
1
1
1
1
1
1
1
1
1
1
1
1
1
1
1
1
1
1
1
1
1
1
1
1
1
1
1
1
1
1
1
1
1
1
1
1
1
1
1
1
1
1
1
1
1
1
1
1
0.999999
0.999999
0.999998
0.999998
0.999998
0.999998
0.999998
0.999997
0.999998
0.999998
0.999998
0.999998
0.999998
0.999999
0.999999
0.999999
0.999999
0.999999
1
1
1
1
1
1
1
1
1
1
1
1
1
1
1
1
1
1
1
1
1
1
1
1
1
1
1
1
1
1
1
1
1
1
1
1
1
1
1
1
1
1
1
1
1
1
1
1
1
1
1
1
1
1
1
1
1
0.999999
0.999999
0.999999
0.999999
0.999999
0.999998
0.999998
0.999998
0.999999
0.999999
0.999999
0.999999
0.999999
0.999999
0.999999
0.999999
0.999999
0.999999
0.999999
1
1
1
1
1
1
1
1
1
1
1
1
1
1
1
1
1
1
1
1
1
1
1
1
1
1
1
1
1
1
1
1
1
1
1
1
1
1
1
1
1
1
1
1
1
1
1
1
1
1
1
1
1
1
1
1
0.999999
1
0.999999
0.999999
0.999999
0.999999
1
0.999999
0.999999
0.999999
0.999999
0.999999
1
1
0.999999
0.999999
1
1
1
1
1
1
1
1
1
1
1
1
1
1
1
1
1
1
1
1
1
1
1
1
1
1
1
1
1
1
1
1
1
1
1
1
1
1
1
1
1
1
1
1
1
1
1
1
1
1
1
1
1
1
1
1
1
1
1
1
1
0.999999
0.999999
0.999999
1
0.999999
0.999999
0.999999
1
1
0.999999
0.999999
0.999999
0.999999
0.999999
1
1
1
1
1
1
1
1
1
1
1
1
1
1
1
1
1
1
1
1
1
1
1
1
1
1
1
1
1
1
1
1
1
1
1
1
1
1
1
1
1
1
1
1
1
1
1
1
1
1
1
1
1
1
1
1
1
1
1
1
0.999999
0.999999
0.999999
1
0.999999
0.999999
0.999999
1
0.999999
0.999999
1
0.999999
0.999999
1
1
1
1
1
1
1
1
1
1
1
1
1
1
1
1
1
1
1
1
1
1
1
1
1
1
1
1
1
1
1
1
1
1
1
1
1
1
1
1
1
1
1
1
1
1
1
1
1
1
1
1
1
1
1
1
1
1
1
1
1
1
1
1
1
0.999999
1
1
1
1
1
1
1
1
1
1
1
1
1
1
1
1
1
1
1
1
1
1
1
1
1
1
1
1
1
1
1
1
1
1
1
1
1
1
1
1
1
1
1
1
1
1
1
1
1
1
1
1
1
1
1
1
1
1
1
1
1
1
1
1
1
1
1
1
1
1
1
1
1
1
1
1
1
1
1
1
1
1
1
1
1
1
1
1
1
1
1
1
1
1
1
1
1
1
1
1
1
1
1
1
1
1
1
1
1
1
1
1
1
1
1
1
1
1
1
1
1
1
1
1
1
1
1
1
1
1
1
1
1
1
1
1
1
1
1
1
1
1
1
1
1
1
1
1
1
1
1
1
1
1
1
1
1
1
1
1
1
1
1
1
1
1
1
1
1
1
1
1
1
1
1
1
1
1
1
1
1
1
1
1
1
1
1
1
1
1
1
1
1
1
1
1
1
1
1
1
1
1
1
1
1
1
1
1
1
1
1
1
1
1
1
1
1
1
1
1
1
1
1
1
1
1
1
1
0.999999
1
1
1
1
1
1
1
1
1
1
1
1
1
1
1
1
1
1
1
1
1
1
1
1
1
1
1
1
1
1
1
1
1
1
1
1
1
1
1
1
1
1
1
1
1
1
1
1
1
1
1
1
1
1
1
1
1
1
1
1
1
1
1
1
1
1
1
1
1
1
1
1
1
1
1
1
1
1
1
1
1
1
1
1
1
1
1
1
1
1
1
1
1
1
1
1
1
1
1
1
1
1
1
1
1
1
1
1
1
1
1
1
1
1
1
1
1
1
1
1
1
1
1
1
1
1
1
1
1
1
1
1
1
1
1
1
1
1
1
1
1
1
1
1
1
1
1
1
1
1
1
1
1
1
1
1
1
1
1
1
1
1
1
1
1
1
1
1
1
1
1
1
1
1
1
1
1
1
1
1
1
1
1
1
1
1
1
1
1
1
1
1
1
1
1
1
1
1
1
1
1
1
1
1
1
1
1
1
1
1
1
1
1
1
1
1
1
1
1
1
1
1
1
1
1
1
1
1
1
1
1
1
1
1
1
1
1
1
1
1
1
1
1
1
1
1
1
1
1
1
1
1
1
1
1
1
1
1
1
1
1
1
1
1
1
1
1
1
1
1
1
1
1
1
1
1
1
1
1
1
1
1
1
1
1
1
1
1
1
1
1
1
1
1
1
1
1
1
1
1
1
1
1
1
1
1
1
1
1
1
1
1
1
1
1
1
1
1
1
1
1
1
1
1
1
1
1
1
1
1
1
1
1
1
1
1
1
1
1
1
1
1
1
1
1
1
1
1
1
1
1
1
1
1
1
1
1
1
1
1
1
1
1
1
1
1
1
1
1
1
1
1
1
1
1
1
1
1
1
1
1
1
1
1
1
1
1
1
1
1
1
1
1
1
1
1
1
1
1
1
1
1
1
1
1
1
1
1
1
1
1
1
1
1
1
1
1
1
1
1
1
1
1
1
1
1
1
1
1
1
1
1
1
1
1
1
1
1
1
1
1
1
1
1
1
1
1
1
1
1
1
1
1
1
1
1
1
1
1
1
1
1
1
1
1
1
1
1
1
1
1
1
1
1
1
1
1
1
1
1
1
1
1
1
1
1
1
1
1
1
1
1
1
1
1
1
1
1
1
1
1
1
1
1
1
1
1
1
1
1
1
1
1
1
1
1
1
1
1
1
1
1
1
1
1
1
1
1
1
1
1
1
1
1
1
1
1
1
1
1
1
1
1
1
1
1
1
1
1
1
1
1
1
1
1
1
1
1
1
1
1
1
1
1
1
1
1
1
1
1
1
1
1
1
1
1
1
1
1
1
1
1
1
1
1
1
1
1
1
1
1
1
1
1
1
1
1
1
1
1
1
1
1
1
1
1
1
1
1
1
1
1
1
1
1
1
1
1
1
1
1
1
1
1
1
1
1
1
1
1
1
1
1
1
1
1
1
1
1
1
1
1
1
1
1
1
1
1
1
1
1
1
1
1
1
1
1
1
1
1
1
1
1
1
1
1
1
1
1
1
1
1
1
1
1
1
1
1
1
1
1
1
1
1
1
1
1
1
1
1
1
1
1
1
1
1
1
1
1
1
1
1
1
1
1
1
1
1
1
1
1
1
1
1
1
1
1
1
1
1
1
1
1
1
1
1
1
1
1
1
1
1
1
1
1
1
1
1
1
1
1
1
1
1
1
1
1
1
1
1
1
1
1
1
1
1
1
1
1
1
1
1
1
1
1
1
1
1
1
1
1
1
1
1
1
1
1
1
1
1
1
1
1
1
1
1
1
1
1
1
1
1
1
1
1
1
1
1
1
1
1
1
1
1
1
1
1
1
1
1
1
1
1
1
1
1
1
1
1
1
1
1
1
1
1
1
1
1
1
1
1
1
1
1
1
1
1
1
1
1
1
1
1
1
1
1
1
1
1
1
1
1
1
1
1
1
1
1
1
1
1
1
1
1
1
1
1
1
1
1
1
1
1
1
1
1
1
1
1
1
1
1
1
1
1
1
1
1
1
1
1
1
1
1
1
1
1
1
1
1
1
1
1
1
1
1
1
1
1
1
1
1
1
1
1
1
1
1
1
1
1
1
1
1
1
1
1
1
1
1
1
1
1
1
1
1
1
1
1
1
1
1
1
1
1
1
1
1
1
1
1
1
1
1
1
1
1
1
1
1
1
1
1
1
1
1
1
1
1
1
1
1
1
1
1
1
1
1
1
1
1
1
1
1
1
1
1
1
1
1
1
1
1
1
1
1
1
1
1
1
1
1
1
1
1
1
1
1
1
1
1
1
1
1
1
1
1
1
1
1
1
1
1
1
1
1
1
1
1
1
1
1
1
1
1
1
1
1
1
1
1
1
1
1
1
1
1
1
1
1
1
1
1
1
1
1
1
1
1
1
1
1
1
1
1
1
1
1
1
1
1
1
1
1
1
1
1
1
1
1
1
1
1
1
1
1
1
1
1
1
1
1
1
1
1
1
1
1
1
1
1
1
1
1
1
1
1
1
1
1
1
1
1
1
1
1
1
1
1
1
1
1
1
1
1
1
1
1
1
1
1
1
1
1
1
1
1
1
1
1
1
1
1
1
1
1
1
1
1
1
1
1
1
1
1
1
1
1
1
1
1
1
1
1
1
1
1
1
1
1
1
1
1
1
1
1
1
1
1
1
1
1
1
1
1
1
1
1
1
1
1
1
1
1
1
1
1
1
1
1
1
1
1
1
1
1
1
1
1
1
1
1
1
1
1
1
1
1
1
1
1
1
1
1
1
1
1
1
1
1
1
1
1
1
1
1
1
1
1
1
1
1
1
1
1
1
1
1
1
1
1
1
1
1
1
1
1
1
1
1
1
1
1
1
1
1
1
1
1
1
1
1
1
1
1
1
1
1
1
1
1
1
1
1
1
1
1
1
1
1
1
1
1
1
1
1
1
1
1
1
1
1
1
1
1
1
1
1
1
1
1
1
1
1
1
1
1
1
1
1
1
1
1
1
1
1
)
;

boundaryField
{
    emptyPatches_empt
    {
        type            empty;
    }
    top_cyc
    {
        type            cyclic;
    }
    bottom_cyc
    {
        type            cyclic;
    }
    inlet_cyc
    {
        type            cyclic;
    }
    outlet_cyc
    {
        type            cyclic;
    }
    procBoundary1to0
    {
        type            processor;
        value           nonuniform List<scalar> 
75
(
1.02688
1.03212
1.03684
1.04086
1.044
1.04616
1.04723
1.04718
1.046
1.04377
1.04061
1.03673
1.03241
1.02792
1.0235
1.01938
1.01567
1.01245
1.00974
1.00751
1.00571
1.00429
1.0032
1.00236
1.00173
1.00127
1.00093
1.00068
1.0005
1.00038
1.00028
1.00022
1.00016
1.00013
1.0001
1.00008
1.00006
1.00005
1.00004
1.00003
1.00002
1.00002
1.00001
1.00001
1.00001
1
1
1
1
1
1
1
1
1
1
1
1
1
1
1
1
1
1
1
1
1
1
1
1
1
1
1
1
1
1
)
;
    }
    procBoundary1to0throughoutlet_cyc
    {
        type            processorCyclic;
        value           nonuniform List<scalar> 
75
(
1
1
1
1
1
1
1
1
1
1
1
1
1
1
1
1
1
1
1
1
1
1
1
1
1
1
1
1
1
1
1
1
1
1
1
1
1
1
1
1
1
1
1
1
1
1
1
1
1
1
1
1
1
1
1
1
1
1
1
1
1
1
1
1
1
1
1
1
1
1
1
1
1
1
1
)
;
    }
    procBoundary1to3
    {
        type            processor;
        value           nonuniform List<scalar> 
75
(
1.00112
0.974568
0.941624
0.902644
0.858543
0.810796
0.761384
0.71257
0.666664
0.625891
0.592177
0.566829
0.55037
0.542832
0.544163
0.554326
0.573213
0.600564
0.63586
0.678081
0.725402
0.775234
0.824753
0.871576
0.914122
0.951477
0.983018
1.00819
1.0266
1.0382
1.04356
1.04378
1.04034
1.03478
1.02841
1.02219
1.01669
1.01215
1.0086
1.00595
1.00403
1.0027
1.00178
1.00117
1.00077
1.00051
1.00034
1.00023
1.00016
1.00011
1.00008
1.00005
1.00004
1.00003
1.00002
1.00001
1.00001
1.00001
1
1
1
1
1
1
1
1
1
1
1
1
1
1
1
1
1
)
;
    }
    procBoundary1to3throughbottom_cyc
    {
        type            processorCyclic;
        value           nonuniform List<scalar> 
75
(
1
1
1
1
1
1
1
1
1
1
1
1
1
1
1
1
1
1
1
1
1
1
1
1
1
1
1
1
1
1
1
1
1
1
1
1
1
1
1
1
1
1
1
1
1
1
1
1
1
1
1
1
1
1
1
1
1
1
1
1
1
1
1
1
1
1
1
1
1
1
1
1
1
1
1
)
;
    }
}


// ************************************************************************* //
