/*--------------------------------*- C++ -*----------------------------------*\
  =========                 |
  \\      /  F ield         | OpenFOAM: The Open Source CFD Toolbox
   \\    /   O peration     | Website:  https://openfoam.org
    \\  /    A nd           | Version:  6
     \\/     M anipulation  |
\*---------------------------------------------------------------------------*/
FoamFile
{
    version     2.0;
    format      ascii;
    class       volScalarField;
    location    "1.74";
    object      p;
}
// * * * * * * * * * * * * * * * * * * * * * * * * * * * * * * * * * * * * * //

dimensions      [1 -1 -2 0 0 0 0];

internalField   nonuniform List<scalar> 
5625
(
1
1
1
1
1
1
1
1
1
1
1
1
1
1
1
1
1
1
1
1
1
1
1
1
1
1
1
1
1
1
1
1
1
1
1
1
1
1
1
1
1
1
1
1
1
1
1
1
1
1
1
1
1
1
1
1
1
1
1
1
1
1
1
1
1
1
1
1
1
1
1
1
1
1
1
1
1
1
1
1
1
1
1
1
1
1
1
1
1
1
1
1
1
1
1
1
1
1
1
1
1
1
1
1
1
1
1
1
1
1
1
1
1
1
1
1
1
1
1
1
1
1
1
1
1
1
1
1
1
1
1
1
1
1
1
1
1
1
1
1
1
1
1
1
1
1
1
1
1
1
1
1
1
1
1
1
1
1
1
1
1
1
1
1
1
1
1
1
1
1
1
1
1
1
1
1
1
1
1
1
1
1
1
1
1
1
1
1
1
1
1
1
1
1
1
1
1
1
1
1
1
1
1
1
1
1
1
1
1
1
1
1
1
1
1
1
1
1
1
1
1
1
1
1
1
1
1
1
1
1
1
1
1
1
1
1
1
1
1
1
1
1
1
1
1
1
1
1
1
1
1
1
1
1
1
1
1
1
1
1
1
1
1
1
1
1
1
1
1
1
1
1
1
1
1
1
1
1
1
1
1
1
1
1
1
1
1
1
1
1
1
1
1
1
1
1
1
1
1
1
1
1
1
1
1
1
1
1
1
1
1
1
1
1
1
1
1
1
1
1
1
1
1
1
1
1
1
1
1
1
1
1
1
1
1
1
1
1
1
1
1
1
1
1
1
1
1
1
1
1
1
1
1
1
1
1
1
1
1
1
1
1
1
1
1
1
1
1
1
1
1
1
1
1
1
1
1
1
1
1
1
1
1
1
1
1
1
1
1
1
1
1
1
1
1
1
1
1
1
1
1
1
1
1
1
1
1
1
1
1
1
1
1
1
1
1
1
1
1
1
1
1
1
1
1
1
1
1
1
1
1
1
1
1
1
1
1
1
1
1
1
1
1
1
1
1
1
1
1
1
1
1
1
0.999999
0.999999
1
1
1
1
1
1
1
1
1
1
1
1
1
1
1
1
1
1
1
1
1
1
1
1
1
1
1
1
1
1
1
1
1
1
1
1
1
1
1
1
1
1
1
1
1
1
1
1
1
1
1
1
1
1
1
1
1
1
1
1
1
1
1
1
1
1
1
1
1
1
0.999999
0.999999
1
0.999999
0.999999
0.999999
0.999999
1
1
1
1
1
1
1
1
1
1
1
1
1
1
1
1
1
1
1
1
1
1
1
1
1
1
1
1
1
1
1
1
1
1
1
1
1
1
1
1
1
1
1
1
1
1
1
1
1
1
1
1
1
1
1
1
1
1
1
1
1
1
1
1
1
1
1
1
0.999999
0.999999
0.999999
0.999999
0.999999
0.999999
0.999999
0.999999
0.999999
1
1
1
1
1
1
1
1
1
1
1
1
1
1
1
1
1
1
1
1
1
1
1
1
1
1
1
1
1
1
1
1
1
1
1
1
1
1
1
1
1
1
1
1
1
1
1
1
1
1
1
1
1
1
1
1
1
1
1
1
1
1
1
1
1
1
0.999999
0.999999
0.999999
0.999999
0.999999
0.999999
0.999999
0.999999
0.999999
0.999999
1
1
1
1
1
1
1
1
1
1
1
1
1
1
1
1
1
1
1
1
1
1
1
1
1
1
1
1
1
1
1
1
1
1
1
1
1
1
1
1
1
1
1
1
1
1
1
1
1
1
1
1
1
1
1
1
1
1
1
1
1
1
1
1
1
0.999999
0.999998
0.999998
0.999998
0.999998
0.999998
0.999998
0.999999
0.999999
0.999999
1
1
1
1
1
1
1
1
1
1
1
1
1
1
1
1
1
1
1
1
1
1
1
1
1
1
1
1
1
1
1
1
1
1
1
1
1
1
1
1
1
1
1
1
1
1
1
1
1
1
1
1
1
1
1
1
1
1
1
1
1
1
1
1
1
0.999998
0.999997
0.999997
0.999997
0.999997
0.999997
0.999998
0.999998
0.999998
0.999999
0.999999
1
1
1
1
1
1
1
1
1
1
1
1
1
1
1
1
1
1
1
1
1
1
1
1
1
1
1
1
1
1
1
1
1
1
1
1
1
1
1
1
1
1
1
1
1
1
1
1
1
1
1
1
1
1
1
1
1
1
1
1
1
1
1
1
0.999997
0.999997
0.999996
0.999996
0.999996
0.999997
0.999997
0.999997
0.999998
0.999999
0.999999
1
1
1
1
1
1
1
1
1
1
1
1
1
1
1
1
1
1
1
1
1
1
1
1
1
1
1
1
1
1
1
1
1
1
1
1
1
1
1
1
1
1
1
1
1
1
1
1
1
1
1
1
1
1
1
1
1
1
1
1
1
1
1
1
0.999995
0.999995
0.999995
0.999995
0.999995
0.999995
0.999996
0.999996
0.999997
0.999998
0.999999
1
1
1
1
1
1
1
1.00001
1.00001
1.00001
1.00001
1
1
1
1
1
1
1
1
1
1
1
1
1
1
1
1
1
1
1
1
1
1
1
1
1
1
1
1
1
1
1
1
1
1
1
1
1
1
1
1
1
1
1
1
1
1
1
1
1
1
1
1
1
0.999994
0.999993
0.999993
0.999993
0.999993
0.999993
0.999994
0.999995
0.999996
0.999997
0.999999
1
1
1
1
1.00001
1.00001
1.00001
1.00001
1.00001
1.00001
1.00001
1.00001
1.00001
1.00001
1
1
1
1
1
1
1
1
1
1
1
1
1
1
1
1
1
1
1
1
1
1
1
1
1
1
1
1
1
1
1
1
1
1
1
1
1
1
1
1
1
1
1
1
1
1
1
1
1
1
0.999991
0.999991
0.99999
0.99999
0.999991
0.999991
0.999992
0.999993
0.999995
0.999996
0.999998
1
1
1
1.00001
1.00001
1.00001
1.00001
1.00001
1.00001
1.00001
1.00001
1.00001
1.00001
1.00001
1.00001
1.00001
1
1
1
1
1
1
1
1
1
1
1
1
1
1
1
1
1
1
1
1
1
1
1
1
1
1
1
1
1
1
1
1
1
1
1
1
1
1
1
1
1
1
1
1
1
1
1
1
0.999988
0.999987
0.999987
0.999987
0.999988
0.999988
0.999989
0.999991
0.999993
0.999996
0.999998
1
1
1.00001
1.00001
1.00001
1.00001
1.00001
1.00001
1.00001
1.00001
1.00001
1.00001
1.00001
1.00001
1.00001
1.00001
1.00001
1
1
1
1
1
1
1
1
1
1
1
1
1
1
1
1
1
1
1
1
1
1
1
1
1
1
1
1
1
1
1
1
1
1
1
1
1
1
1
1
1
1
1
1
1
1
1
0.999984
0.999983
0.999983
0.999982
0.999983
0.999984
0.999986
0.999988
0.999991
0.999994
0.999998
1
1.00001
1.00001
1.00001
1.00001
1.00002
1.00002
1.00002
1.00002
1.00002
1.00002
1.00002
1.00001
1.00001
1.00001
1.00001
1.00001
1.00001
1.00001
1
1
1
1
1
1
1
1
1
1
1
1
1
1
1
1
1
1
1
1
1
1
1
1
1
1
1
1
1
1
1
1
1
1
1
1
1
1
1
1
1
1
1
1
1
0.999979
0.999978
0.999977
0.999977
0.999978
0.999979
0.999982
0.999985
0.999988
0.999993
0.999998
1
1.00001
1.00001
1.00002
1.00002
1.00002
1.00002
1.00002
1.00002
1.00002
1.00002
1.00002
1.00002
1.00002
1.00002
1.00001
1.00001
1.00001
1.00001
1.00001
1
1
1
1
1
1
1
1
1
1
1
1
1
1
1
1
1
1
1
1
1
1
1
1
1
1
1
1
1
1
1
1
1
1
1
1
1
1
1
1
1
1
1
1
0.999973
0.999972
0.999971
0.999971
0.999972
0.999974
0.999977
0.999981
0.999986
0.999992
0.999999
1
1.00001
1.00002
1.00002
1.00003
1.00003
1.00003
1.00003
1.00003
1.00003
1.00003
1.00003
1.00003
1.00002
1.00002
1.00002
1.00001
1.00001
1.00001
1.00001
1.00001
1
1
1
1
1
1
1
1
1
1
1
1
1
1
1
1
1
1
1
1
1
1
1
1
1
1
1
1
1
1
1
1
1
1
1
1
1
1
1
1
1
1
1
0.999966
0.999964
0.999963
0.999963
0.999965
0.999968
0.999972
0.999978
0.999984
0.999992
1
1.00001
1.00002
1.00002
1.00003
1.00004
1.00004
1.00004
1.00004
1.00004
1.00004
1.00004
1.00004
1.00003
1.00003
1.00003
1.00002
1.00002
1.00001
1.00001
1.00001
1.00001
1
1
1
1
1
1
1
1
1
1
1
1
1
1
1
1
1
1
1
1
1
1
1
1
1
1
1
1
1
1
1
1
1
1
1
1
1
1
1
1
1
1
1
0.999957
0.999956
0.999955
0.999955
0.999957
0.999962
0.999967
0.999975
0.999984
0.999993
1
1.00001
1.00002
1.00003
1.00004
1.00005
1.00005
1.00006
1.00006
1.00006
1.00006
1.00005
1.00005
1.00004
1.00004
1.00003
1.00003
1.00002
1.00002
1.00001
1.00001
1.00001
1.00001
1
1
1
1
1
1
1
1
1
1
1
1
1
1
1
1
1
1
1
1
1
1
1
1
1
1
1
1
1
1
1
1
1
1
1
1
1
1
1
1
1
1
0.999948
0.999946
0.999946
0.999947
0.99995
0.999956
0.999964
0.999975
0.999986
0.999998
1.00001
1.00003
1.00004
1.00005
1.00006
1.00007
1.00007
1.00008
1.00008
1.00008
1.00007
1.00007
1.00006
1.00006
1.00005
1.00004
1.00004
1.00003
1.00002
1.00002
1.00001
1.00001
1.00001
1.00001
1
1
1
1
1
1
1
1
1
1
1
1
1
1
1
1
1
1
1
1
1
1
1
1
1
1
1
1
1
1
1
1
1
1
1
1
1
1
1
1
1
0.999938
0.999936
0.999936
0.999939
0.999944
0.999953
0.999964
0.999978
0.999992
1.00001
1.00003
1.00004
1.00006
1.00007
1.00008
1.00009
1.0001
1.0001
1.0001
1.0001
1.0001
1.00009
1.00008
1.00007
1.00006
1.00005
1.00005
1.00004
1.00003
1.00002
1.00002
1.00001
1.00001
1.00001
1
1
1
1
1
1
1
1
1
1
1
1
1
1
1
1
1
1
1
1
1
1
1
1
1
1
1
1
1
1
1
1
1
1
1
1
1
1
1
1
1
0.999928
0.999927
0.999929
0.999934
0.999942
0.999955
0.999971
0.999988
1.00001
1.00003
1.00005
1.00007
1.00009
1.00011
1.00012
1.00013
1.00014
1.00014
1.00014
1.00013
1.00013
1.00012
1.00011
1.00009
1.00008
1.00007
1.00006
1.00005
1.00004
1.00003
1.00002
1.00002
1.00001
1.00001
1
1
1
1
1
0.999999
0.999999
0.999999
0.999999
0.999999
1
1
1
1
1
1
1
1
1
1
1
1
1
1
1
1
1
1
1
1
1
1
1
1
1
1
1
1
1
1
1
0.99992
0.999921
0.999926
0.999935
0.999949
0.999967
0.999988
1.00001
1.00004
1.00007
1.00009
1.00012
1.00014
1.00016
1.00018
1.00019
1.00019
1.00019
1.00019
1.00018
1.00017
1.00015
1.00014
1.00012
1.00011
1.00009
1.00007
1.00006
1.00005
1.00004
1.00003
1.00002
1.00001
1.00001
1.00001
1
1
1
0.999999
0.999999
0.999999
0.999999
0.999999
0.999999
0.999999
1
1
1
1
1
1
1
1
1
1
1
1
1
1
1
1
1
1
1
1
1
1
1
1
1
1
1
1
1
1
0.999917
0.999922
0.999932
0.999947
0.999968
0.999994
1.00002
1.00006
1.00009
1.00013
1.00016
1.00019
1.00022
1.00024
1.00026
1.00027
1.00027
1.00026
1.00025
1.00024
1.00022
1.0002
1.00018
1.00016
1.00014
1.00011
1.00009
1.00007
1.00006
1.00004
1.00003
1.00002
1.00002
1.00001
1.00001
1
1
0.999999
0.999999
0.999999
0.999999
0.999999
0.999999
0.999999
0.999999
0.999999
1
1
1
1
1
1
1
1
1
1
1
1
1
1
1
1
1
1
1
1
1
1
1
1
1
1
1
1
1
0.999923
0.999934
0.999952
0.999977
1.00001
1.00005
1.00009
1.00014
1.00018
1.00023
1.00027
1.00031
1.00034
1.00036
1.00038
1.00038
1.00038
1.00037
1.00035
1.00033
1.0003
1.00027
1.00024
1.0002
1.00017
1.00014
1.00012
1.00009
1.00007
1.00005
1.00004
1.00003
1.00002
1.00001
1.00001
1
1
0.999998
0.999998
0.999998
0.999998
0.999998
0.999998
0.999999
0.999999
0.999999
0.999999
1
1
1
1
1
1
1
1
1
1
1
1
1
1
1
1
1
1
1
1
1
1
1
1
1
1
1
1
0.999943
0.999965
0.999996
1.00004
1.00009
1.00014
1.0002
1.00027
1.00033
1.00039
1.00044
1.00049
1.00052
1.00055
1.00056
1.00056
1.00054
1.00052
1.00049
1.00045
1.0004
1.00036
1.00031
1.00027
1.00022
1.00018
1.00015
1.00012
1.00009
1.00007
1.00005
1.00003
1.00002
1.00001
1.00001
1
0.999999
0.999997
0.999996
0.999996
0.999997
0.999997
0.999998
0.999998
0.999998
0.999999
0.999999
0.999999
1
1
1
1
1
1
1
1
1
1
1
1
1
1
1
1
1
1
1
1
1
1
1
1
1
1
1
0.999987
1.00003
1.00008
1.00014
1.00021
1.00029
1.00038
1.00047
1.00055
1.00063
1.0007
1.00076
1.00079
1.00081
1.00082
1.0008
1.00077
1.00073
1.00068
1.00062
1.00055
1.00048
1.00042
1.00035
1.00029
1.00024
1.00019
1.00015
1.00011
1.00008
1.00006
1.00004
1.00002
1.00001
1
1
0.999997
0.999995
0.999995
0.999995
0.999995
0.999996
0.999996
0.999997
0.999998
0.999998
0.999999
0.999999
0.999999
1
1
1
1
1
1
1
1
1
1
1
1
1
1
1
1
1
1
1
1
1
1
1
1
1
1
1.00007
1.00013
1.00021
1.00031
1.00042
1.00053
1.00066
1.00078
1.00089
1.001
1.00108
1.00115
1.00119
1.0012
1.00119
1.00116
1.00111
1.00104
1.00095
1.00086
1.00076
1.00066
1.00056
1.00047
1.00038
1.00031
1.00024
1.00019
1.00014
1.0001
1.00007
1.00005
1.00003
1.00001
1
0.999998
0.999995
0.999993
0.999993
0.999993
0.999993
0.999994
0.999995
0.999996
0.999997
0.999998
0.999998
0.999999
0.999999
0.999999
1
1
1
1
1
1
1
1
1
1
1
1
1
1
1
1
1
1
1
1
1
1
1
1
1
1.0002
1.0003
1.00043
1.00057
1.00073
1.0009
1.00107
1.00124
1.00139
1.00153
1.00163
1.00171
1.00175
1.00176
1.00173
1.00167
1.00158
1.00146
1.00133
1.00119
1.00104
1.0009
1.00076
1.00063
1.00051
1.00041
1.00032
1.00024
1.00018
1.00013
1.00009
1.00005
1.00003
1.00001
1
0.999996
0.999992
0.99999
0.99999
0.99999
0.999991
0.999992
0.999994
0.999995
0.999996
0.999997
0.999998
0.999998
0.999999
0.999999
0.999999
1
1
1
1
1
1
1
1
1
1
1
1
1
1
1
1
1
1
1
1
1
1
1
1
1.0004
1.00056
1.00075
1.00096
1.00119
1.00143
1.00167
1.00189
1.0021
1.00228
1.00242
1.00251
1.00255
1.00254
1.00248
1.00238
1.00224
1.00206
1.00186
1.00165
1.00144
1.00123
1.00103
1.00085
1.00068
1.00054
1.00041
1.00031
1.00023
1.00016
1.00011
1.00007
1.00004
1.00002
1
0.999993
0.999988
0.999986
0.999986
0.999987
0.999988
0.99999
0.999992
0.999994
0.999995
0.999996
0.999997
0.999998
0.999999
0.999999
0.999999
1
1
1
1
1
1
1
1
1
1
1
1
1
1
1
1
1
1
1
1
1
1
1
1
1.00071
1.00095
1.00122
1.00153
1.00185
1.00218
1.00251
1.00282
1.00309
1.00333
1.0035
1.00361
1.00365
1.00362
1.00352
1.00336
1.00314
1.00288
1.0026
1.00229
1.00199
1.00169
1.00141
1.00115
1.00092
1.00072
1.00055
1.00041
1.00029
1.0002
1.00014
1.00008
1.00004
1.00002
1
0.999989
0.999983
0.999981
0.999981
0.999982
0.999985
0.999987
0.999989
0.999992
0.999994
0.999995
0.999996
0.999997
0.999998
0.999999
0.999999
0.999999
1
1
1
1
1
1
1
1
1
1
1
1
1
1
1
1
1
1
1
1
1
1
1
1.00116
1.0015
1.00189
1.00232
1.00277
1.00323
1.00367
1.00408
1.00445
1.00475
1.00497
1.0051
1.00513
1.00507
1.00492
1.00468
1.00437
1.004
1.00359
1.00316
1.00273
1.00231
1.00192
1.00156
1.00124
1.00097
1.00073
1.00054
1.00039
1.00027
1.00017
1.00011
1.00006
1.00002
0.999999
0.999985
0.999978
0.999975
0.999975
0.999977
0.99998
0.999983
0.999986
0.999989
0.999992
0.999994
0.999995
0.999997
0.999998
0.999998
0.999999
0.999999
1
1
1
1
1
1
1
1
1
1
1
1
1
1
1
1
1
1
1
1
1
1
1
1.00179
1.00228
1.00282
1.00341
1.00402
1.00464
1.00523
1.00577
1.00625
1.00663
1.00691
1.00706
1.00709
1.00699
1.00676
1.00643
1.00599
1.00548
1.00492
1.00433
1.00373
1.00315
1.00261
1.00212
1.00168
1.0013
1.00098
1.00072
1.00052
1.00035
1.00023
1.00014
1.00007
1.00003
0.999999
0.999981
0.999972
0.999968
0.999968
0.999971
0.999975
0.999978
0.999983
0.999986
0.99999
0.999992
0.999994
0.999996
0.999997
0.999998
0.999999
0.999999
0.999999
1
1
1
1
1
1
1
1
1
1
1
1
1
1
1
1
1
1
1
1
1
1
1.00265
1.00333
1.00407
1.00487
1.00569
1.0065
1.00727
1.00797
1.00858
1.00907
1.00941
1.00959
1.00961
1.00946
1.00915
1.00869
1.00811
1.00742
1.00666
1.00586
1.00505
1.00427
1.00353
1.00286
1.00226
1.00175
1.00132
1.00097
1.00069
1.00047
1.0003
1.00018
1.0001
1.00004
1
0.999977
0.999965
0.99996
0.999961
0.999964
0.999968
0.999973
0.999979
0.999983
0.999987
0.99999
0.999993
0.999995
0.999996
0.999997
0.999998
0.999999
0.999999
0.999999
1
1
1
1
1
1
1
1
1
1
1
1
1
1
1
1
1
1
1
1
1
1.0038
1.00472
1.00572
1.00677
1.00783
1.00888
1.00987
1.01076
1.01152
1.01212
1.01254
1.01276
1.01277
1.01257
1.01216
1.01156
1.01079
1.00989
1.00889
1.00783
1.00677
1.00572
1.00474
1.00384
1.00304
1.00235
1.00177
1.0013
1.00092
1.00063
1.00041
1.00025
1.00013
1.00005
1
0.999974
0.999958
0.999951
0.999952
0.999955
0.999961
0.999967
0.999973
0.999979
0.999984
0.999988
0.999991
0.999994
0.999995
0.999997
0.999998
0.999999
0.999999
0.999999
1
1
1
1
1
1
1
1
1
1
1
1
1
1
1
1
1
1
1
1
1
1.00531
1.00652
1.00782
1.00918
1.01054
1.01186
1.01309
1.01418
1.01511
1.01584
1.01634
1.0166
1.01659
1.01633
1.01582
1.01507
1.0141
1.01296
1.01168
1.01033
1.00894
1.00758
1.00629
1.00511
1.00405
1.00314
1.00237
1.00174
1.00123
1.00084
1.00055
1.00034
1.00018
1.00008
1.00001
0.999973
0.999951
0.999942
0.999942
0.999946
0.999953
0.99996
0.999967
0.999974
0.99998
0.999985
0.999989
0.999992
0.999995
0.999996
0.999997
0.999998
0.999999
0.999999
0.999999
1
1
1
1
1
1
1
1
1
1
1
1
1
1
1
1
1
1
1
1
1.00723
1.00879
1.01045
1.01215
1.01384
1.01545
1.01693
1.01824
1.01933
1.02018
1.02076
1.02106
1.02105
1.02075
1.02014
1.01924
1.01807
1.01667
1.0151
1.0134
1.01165
1.00992
1.00826
1.00672
1.00535
1.00415
1.00314
1.00231
1.00165
1.00113
1.00074
1.00046
1.00026
1.00012
1.00003
0.999976
0.999946
0.999933
0.999931
0.999935
0.999943
0.999952
0.999961
0.999969
0.999976
0.999982
0.999987
0.999991
0.999993
0.999995
0.999997
0.999998
0.999999
0.999999
0.999999
1
1
1
1
1
1
1
1
1
1
1
1
1
1
1
1
1
1
1
1
1.00962
1.01159
1.01365
1.01572
1.01773
1.01963
1.02135
1.02284
1.02408
1.02503
1.02567
1.026
1.026
1.02567
1.02499
1.02397
1.02263
1.021
1.01912
1.01707
1.01493
1.01277
1.01069
1.00874
1.00698
1.00544
1.00413
1.00305
1.00218
1.00151
1.001
1.00062
1.00036
1.00018
1.00006
0.999984
0.999944
0.999925
0.999921
0.999925
0.999933
0.999943
0.999954
0.999963
0.999972
0.999979
0.999984
0.999989
0.999992
0.999995
0.999996
0.999998
0.999998
0.999999
0.999999
1
1
1
1
1
1
1
1
1
1
1
1
1
1
1
1
1
1
1
1
1.01251
1.01493
1.0174
1.01983
1.02216
1.02429
1.02618
1.02779
1.0291
1.03009
1.03076
1.03112
1.03114
1.03081
1.03012
1.02906
1.02762
1.02581
1.02369
1.02131
1.01877
1.01617
1.01362
1.0112
1.00899
1.00704
1.00537
1.00398
1.00286
1.00199
1.00133
1.00084
1.00049
1.00025
1.0001
1
0.999946
0.999919
0.999911
0.999913
0.999922
0.999934
0.999946
0.999957
0.999967
0.999975
0.999982
0.999987
0.999991
0.999994
0.999996
0.999997
0.999998
0.999999
0.999999
0.999999
1
1
1
1
1
1
1
1
1
1
1
1
1
1
1
1
1
1
1
1.01592
1.01878
1.02164
1.02439
1.02692
1.02918
1.03112
1.03272
1.03398
1.03492
1.03555
1.0359
1.03596
1.0357
1.0351
1.03412
1.03271
1.03087
1.02861
1.026
1.02312
1.0201
1.01706
1.01413
1.01142
1.00899
1.0069
1.00515
1.00373
1.00261
1.00176
1.00113
1.00067
1.00036
1.00016
1.00003
0.999954
0.999916
0.999902
0.999902
0.999911
0.999923
0.999937
0.99995
0.999961
0.999971
0.999978
0.999984
0.999989
0.999992
0.999995
0.999997
0.999998
0.999999
0.999999
0.999999
1
1
1
1
1
1
1
1
1
1
1
1
1
1
1
1
1
1
1
1.01981
1.02308
1.02623
1.02916
1.03174
1.03393
1.0357
1.03708
1.0381
1.03884
1.03933
1.03963
1.03974
1.03965
1.03928
1.03856
1.03741
1.03576
1.03358
1.0309
1.02781
1.02445
1.02096
1.01753
1.01428
1.01133
1.00875
1.00657
1.00479
1.00338
1.00229
1.00149
1.00091
1.00051
1.00024
1.00007
0.999969
0.999916
0.999894
0.999891
0.999899
0.999912
0.999928
0.999942
0.999955
0.999966
0.999975
0.999982
0.999987
0.999991
0.999994
0.999996
0.999997
0.999998
0.999999
0.999999
1
1
1
1
1
1
1
1
1
1
1
1
1
1
1
1
1
1
1
1.02407
1.02764
1.03093
1.0338
1.03616
1.03798
1.03928
1.04014
1.04066
1.04097
1.04118
1.04137
1.04156
1.04173
1.04179
1.0416
1.04101
1.03987
1.03809
1.03564
1.03259
1.02905
1.02523
1.02133
1.01755
1.01404
1.01093
1.00827
1.00607
1.00432
1.00296
1.00194
1.00121
1.00069
1.00035
1.00013
0.999995
0.999923
0.999891
0.999882
0.999889
0.999902
0.999918
0.999934
0.999949
0.999961
0.999971
0.999979
0.999985
0.99999
0.999993
0.999995
0.999997
0.999998
0.999999
0.999999
1
1
1
1
1
1
1
1
1
1
1
1
1
1
1
1
1
1
1
1.02854
1.0322
1.03535
1.03784
1.03959
1.04063
1.04103
1.04097
1.04065
1.04027
1.04001
1.04001
1.04032
1.04089
1.04161
1.04227
1.04263
1.04245
1.04151
1.03971
1.03704
1.03362
1.02967
1.02543
1.02117
1.01712
1.01345
1.01026
1.0076
1.00544
1.00377
1.0025
1.00158
1.00093
1.00049
1.00021
1.00004
0.999939
0.999892
0.999876
0.999879
0.999892
0.999909
0.999926
0.999942
0.999956
0.999967
0.999976
0.999983
0.999988
0.999992
0.999995
0.999997
0.999998
0.999999
0.999999
0.999999
1
1
1
1
1
1
1
1
1
1
1
1
1
1
1
1
1
1
1.03296
1.03641
1.03903
1.04067
1.04131
1.04103
1.04003
1.03858
1.037
1.03561
1.03468
1.0344
1.03485
1.03598
1.03764
1.03953
1.04131
1.04261
1.04307
1.04245
1.04066
1.03778
1.034
1.02965
1.02504
1.02051
1.01628
1.01254
1.00937
1.00677
1.00473
1.00318
1.00204
1.00123
1.00068
1.00032
1.00009
0.999963
0.999898
0.999872
0.999871
0.999883
0.9999
0.999918
0.999936
0.999951
0.999963
0.999973
0.999981
0.999987
0.999991
0.999994
0.999996
0.999997
0.999998
0.999999
0.999999
1
1
1
1
1
1
1
1
1
1
1
1
1
1
1
1
1
1
1.03698
1.0398
1.04138
1.0416
1.04052
1.0383
1.0353
1.03193
1.02865
1.0259
1.02407
1.02342
1.02405
1.02592
1.0288
1.03235
1.03606
1.03943
1.04192
1.04315
1.04286
1.04104
1.03789
1.03373
1.029
1.0241
1.01938
1.01509
1.01138
1.0083
1.00586
1.00398
1.00258
1.00159
1.0009
1.00045
1.00017
1
0.999912
0.999874
0.999866
0.999875
0.999891
0.999911
0.999929
0.999946
0.99996
0.999971
0.999979
0.999985
0.99999
0.999993
0.999996
0.999997
0.999998
0.999999
0.999999
1
1
1
1
1
1
1
1
1
1
1
1
1
1
1
1
1
1
1.0402
1.04186
1.04179
1.03993
1.03642
1.03159
1.02596
1.0201
1.01466
1.01022
1.00728
1.00616
1.00702
1.00979
1.0142
1.01981
1.026
1.03206
1.03729
1.04106
1.04298
1.04288
1.0409
1.03739
1.03283
1.02777
1.02265
1.01785
1.01361
1.01003
1.00714
1.0049
1.00323
1.00202
1.00118
1.00062
1.00026
1.00005
0.999934
0.99988
0.999864
0.999868
0.999884
0.999904
0.999923
0.999941
0.999956
0.999968
0.999977
0.999984
0.999989
0.999993
0.999995
0.999997
0.999998
0.999999
0.999999
0.999999
1
1
1
1
1
1
1
1
1
1
1
1
1
1
1
1
1
1.04218
1.04206
1.03965
1.03497
1.0283
1.02017
1.01126
1.00237
0.994336
0.987887
0.983634
0.981979
0.983107
0.986946
0.993182
1.00126
1.01044
1.01981
1.02847
1.03555
1.04043
1.04277
1.04261
1.04026
1.03629
1.03133
1.02599
1.02077
1.01602
1.01194
1.00859
1.00595
1.00397
1.00252
1.0015
1.00082
1.00038
1.00012
0.999966
0.999892
0.999865
0.999865
0.999878
0.999898
0.999918
0.999936
0.999952
0.999965
0.999975
0.999982
0.999988
0.999992
0.999995
0.999997
0.999998
0.999999
0.999999
0.999999
1
1
1
1
1
1
1
1
1
1
1
1
1
1
1
1
1
1.04248
1.03992
1.03444
1.02619
1.01564
1.00351
0.990729
0.978324
0.967305
0.958568
0.952834
0.950578
0.952016
0.957072
0.965385
0.976305
0.988944
1.00222
1.01497
1.02609
1.0347
1.04025
1.04259
1.04202
1.03911
1.0346
1.02927
1.02376
1.01857
1.01399
1.01017
1.00713
1.0048
1.00309
1.00188
1.00106
1.00053
1.0002
1.00001
0.999912
0.999871
0.999864
0.999874
0.999893
0.999913
0.999932
0.999949
0.999963
0.999973
0.999981
0.999987
0.999991
0.999994
0.999996
0.999998
0.999998
0.999999
0.999999
1
1
1
1
1
1
1
1
1
1
1
1
1
1
1
1
1
1.04073
1.03503
1.02576
1.01323
0.99811
0.981373
0.964202
0.947855
0.933537
0.922295
0.914945
0.912035
0.913808
0.92019
0.930783
0.944853
0.961369
0.979059
0.996518
1.01237
1.02545
1.03494
1.04051
1.04234
1.04102
1.03738
1.03234
1.02672
1.02119
1.01616
1.01187
1.00841
1.00573
1.00374
1.00231
1.00134
1.0007
1.0003
1.00007
0.99994
0.999883
0.999867
0.999873
0.999889
0.999909
0.999929
0.999946
0.99996
0.999971
0.99998
0.999986
0.999991
0.999994
0.999996
0.999998
0.999998
0.999999
0.999999
1
1
1
1
1
1
1
1
1
1
1
1
1
1
1
1
1
1.03666
1.02716
1.01343
0.99596
0.975671
0.953812
0.931834
0.911232
0.893387
0.879487
0.870427
0.866814
0.868925
0.876692
0.889698
0.907138
0.927855
0.950387
0.973081
0.994273
1.01248
1.02662
1.03611
1.04099
1.04181
1.03948
1.03505
1.02955
1.0238
1.01839
1.01367
1.00978
1.00673
1.00444
1.0028
1.00166
1.0009
1.00042
1.00013
0.999976
0.9999
0.999873
0.999874
0.999888
0.999907
0.999926
0.999944
0.999958
0.99997
0.999979
0.999985
0.99999
0.999994
0.999996
0.999997
0.999998
0.999999
0.999999
1
1
1
1
1
1
1
1
1
1
1
1
1
1
1
1
1
1.03014
1.01624
0.997454
0.974493
0.948554
0.921188
0.89412
0.869072
0.847586
0.830954
0.820133
0.815779
0.818199
0.827351
0.842813
0.863737
0.888858
0.916531
0.944866
0.971897
0.99582
1.01522
1.02927
1.03781
1.04131
1.04074
1.03728
1.03213
1.02633
1.02063
1.01551
1.01122
1.0078
1.00521
1.00332
1.00201
1.00112
1.00056
1.00022
1.00002
0.999924
0.999884
0.999878
0.999889
0.999906
0.999925
0.999942
0.999957
0.999969
0.999978
0.999985
0.99999
0.999993
0.999996
0.999997
0.999998
0.999999
0.999999
1
1
1
1
1
1
1
1
1
1
1
1
1
1
1
1
1
1.02119
1.00238
0.978058
0.949185
0.917262
0.884157
0.851872
0.822335
0.797216
0.777871
0.765296
0.760177
0.762853
0.773327
0.791192
0.815587
0.845163
0.878125
0.912346
0.94557
0.975653
1.00084
1.01999
1.03274
1.03944
1.04106
1.03892
1.03439
1.0287
1.02282
1.01737
1.0127
1.00892
1.00602
1.00389
1.00239
1.00137
1.00071
1.00031
1.00008
0.999954
0.9999
0.999885
0.999891
0.999906
0.999924
0.999941
0.999956
0.999968
0.999977
0.999984
0.999989
0.999993
0.999996
0.999997
0.999998
0.999999
0.999999
1
1
1
1
1
1
1
1
1
1
1
1
1
1
1
1
1
1.00997
0.985872
0.955672
0.92062
0.882541
0.843645
0.806191
0.77228
0.743669
0.721735
0.707481
0.701601
0.704474
0.716151
0.736271
0.763984
0.797902
0.836109
0.876272
0.915855
0.952374
0.983715
1.00841
1.02582
1.03617
1.0404
1.0399
1.03625
1.03087
1.02492
1.01921
1.01419
1.01007
1.00686
1.00448
1.00279
1.00164
1.00088
1.00041
1.00014
0.999991
0.999921
0.999896
0.999897
0.999909
0.999925
0.999942
0.999956
0.999968
0.999977
0.999984
0.999989
0.999993
0.999996
0.999997
0.999998
0.999999
0.999999
1
1
1
1
1
1
1
1
1
1
1
1
1
1
1
1
1
0.996796
0.967167
0.930902
0.88957
0.845356
0.800795
0.758398
0.720391
0.688565
0.664272
0.648489
0.641899
0.644913
0.657636
0.679776
0.710528
0.748502
0.791709
0.837654
0.883547
0.926581
0.964273
0.9948
1.01722
1.03158
1.03875
1.04021
1.03766
1.03277
1.02688
1.02098
1.01566
1.01122
1.00772
1.0051
1.00321
1.00192
1.00107
1.00053
1.00021
1.00003
0.999946
0.999911
0.999905
0.999913
0.999928
0.999943
0.999957
0.999969
0.999978
0.999984
0.999989
0.999993
0.999995
0.999997
0.999998
0.999999
0.999999
1
1
1
1
1
1
1
1
1
1
1
1
1
1
1
1
1
0.982107
0.946848
0.9045
0.856973
0.806821
0.756906
0.709957
0.668275
0.633633
0.607313
0.590227
0.583026
0.586142
0.599734
0.623589
0.656986
0.698576
0.746352
0.797706
0.849639
0.899046
0.943083
0.979554
1.0072
1.02581
1.03619
1.03985
1.03862
1.03437
1.02866
1.02265
1.01709
1.01236
1.00858
1.00572
1.00365
1.00221
1.00126
1.00065
1.00029
1.00008
0.999974
0.999928
0.999915
0.99992
0.999932
0.999945
0.999958
0.999969
0.999978
0.999985
0.99999
0.999993
0.999995
0.999997
0.999998
0.999999
0.999999
1
1
1
1
1
1
1
1
1
1
1
1
1
1
1
1
1
0.966424
0.925601
0.877324
0.82386
0.768144
0.713344
0.662368
0.617545
0.580579
0.552637
0.534531
0.52686
0.530058
0.544329
0.569552
0.605112
0.649763
0.701529
0.757746
0.815252
0.870678
0.920846
0.963187
0.996088
1.01909
1.03285
1.03888
1.03914
1.03567
1.03025
1.02421
1.01845
1.01346
1.00942
1.00634
1.00408
1.00251
1.00146
1.00078
1.00037
1.00013
1.00001
0.999949
0.999929
0.999928
0.999937
0.999949
0.999961
0.999971
0.999979
0.999985
0.99999
0.999993
0.999996
0.999997
0.999998
0.999999
0.999999
1
1
1
1
1
1
1
1
1
1
1
1
1
1
1
1
1
0.950332
0.90417
0.850285
0.791308
0.730546
0.671446
0.617055
0.569694
0.53094
0.501818
0.483007
0.47503
0.478297
0.49305
0.519265
0.55647
0.603561
0.658651
0.719065
0.781529
0.842451
0.898349
0.946297
0.984331
1.0117
1.0289
1.0374
1.03926
1.03668
1.03162
1.02562
1.01972
1.0145
1.01023
1.00694
1.00451
1.00281
1.00166
1.00092
1.00046
1.00019
1.00004
0.999973
0.999944
0.999938
0.999943
0.999953
0.999964
0.999973
0.99998
0.999986
0.99999
0.999994
0.999996
0.999997
0.999998
0.999999
0.999999
1
1
1
1
1
1
1
1
1
1
1
1
1
1
1
1
1
0.934444
0.88332
0.824305
0.76037
0.695184
0.63244
0.575284
0.525989
0.485982
0.456111
0.436901
0.428777
0.432098
0.447133
0.473964
0.512293
0.561201
0.618927
0.682827
0.74955
0.815325
0.876401
0.929531
0.972405
1.00398
1.02456
1.03554
1.03904
1.03741
1.03278
1.02687
1.02087
1.01547
1.01099
1.00751
1.00492
1.0031
1.00186
1.00105
1.00055
1.00025
1.00008
0.999999
0.999962
0.99995
0.999951
0.999959
0.999967
0.999975
0.999982
0.999987
0.999991
0.999994
0.999996
0.999998
0.999998
0.999999
0.999999
1
1
1
1
1
1
1
1
1
1
1
1
1
1
1
1
1
0.919367
0.863794
0.800251
0.732022
0.663094
0.597382
0.53809
0.487421
0.446636
0.416391
0.397047
0.388902
0.39225
0.407374
0.434472
0.473445
0.523588
0.583302
0.649996
0.72026
0.790182
0.855784
0.913537
0.960821
0.996304
1.02008
1.03345
1.03857
1.0379
1.03373
1.02796
1.0219
1.01635
1.01169
1.00804
1.00531
1.00337
1.00205
1.00118
1.00064
1.00031
1.00012
1.00003
0.999981
0.999964
0.999961
0.999965
0.999972
0.999978
0.999984
0.999989
0.999993
0.999995
0.999997
0.999998
0.999999
0.999999
0.999999
1
1
1
1
1
1
1
1
1
1
1
1
1
1
1
1
1
0.905669
0.846274
0.778906
0.707117
0.635152
0.567117
0.506254
0.454683
0.4135
0.383169
0.363883
0.355803
0.359139
0.374181
0.401248
0.440451
0.49133
0.55246
0.621313
0.694433
0.76778
0.8372
0.898927
0.95007
0.989036
1.01571
1.03129
1.03794
1.03819
1.0345
1.02889
1.0228
1.01712
1.01232
1.00851
1.00566
1.00363
1.00223
1.00131
1.00072
1.00037
1.00017
1.00006
1
0.999978
0.999971
0.999973
0.999977
0.999982
0.999987
0.99999
0.999993
0.999996
0.999997
0.999998
0.999999
0.999999
0.999999
1
1
1
1
1
1
1
1
1
1
1
1
1
1
1
1
1
0.893849
0.831345
0.760921
0.686341
0.612047
0.542278
0.480319
0.4282
0.386882
0.356652
0.337539
0.329564
0.332848
0.34768
0.374488
0.413601
0.464807
0.526873
0.597331
0.672674
0.748749
0.821254
0.886242
0.940609
0.982535
1.01171
1.02924
1.03725
1.03835
1.0351
1.02964
1.02355
1.01778
1.01285
1.00893
1.00598
1.00385
1.00239
1.00142
1.00081
1.00043
1.00021
1.00009
1.00002
0.999994
0.999983
0.99998
0.999983
0.999986
0.99999
0.999992
0.999995
0.999996
0.999998
0.999999
0.999999
0.999999
1
1
1
1
1
1
1
1
1
1
1
1
1
1
1
1
1
1
0.884322
0.819473
0.746805
0.670218
0.594276
0.523305
0.460618
0.408193
0.366883
0.336833
0.317935
0.31007
0.313277
0.327828
0.35424
0.393041
0.444265
0.506873
0.578458
0.65545
0.733584
0.808439
0.875941
0.93283
0.977115
1.00832
1.02745
1.0366
1.03841
1.03554
1.03024
1.02415
1.01832
1.0133
1.00928
1.00624
1.00405
1.00253
1.00153
1.00088
1.00049
1.00025
1.00012
1.00005
1.00001
0.999994
0.999989
0.999989
0.99999
0.999992
0.999994
0.999996
0.999997
0.999998
0.999999
0.999999
1
1
1
1
1
1
1
1
1
1
1
1
1
1
1
1
1
1
1
0.877407
0.810993
0.736903
0.659084
0.582145
0.510451
0.447328
0.394742
0.353479
0.323602
0.304892
0.297123
0.300247
0.31451
0.340484
0.378855
0.429882
0.492711
0.564996
0.643104
0.722657
0.799135
0.868384
0.927055
0.973037
1.00574
1.02606
1.03607
1.03844
1.03586
1.03068
1.0246
1.01872
1.01363
1.00954
1.00645
1.00421
1.00265
1.00162
1.00095
1.00054
1.00029
1.00015
1.00007
1.00003
1.00001
0.999998
0.999995
0.999995
0.999996
0.999997
0.999998
0.999998
0.999999
0.999999
1
1
1
1
1
1
1
1
1
1
1
1
1
1
1
1
1
1
1
1
0.873324
0.806114
0.731401
0.653105
0.575792
0.503814
0.440499
0.38783
0.346588
0.316815
0.298227
0.290526
0.29359
0.307615
0.333193
0.371114
0.421812
0.484597
0.557187
0.635893
0.716233
0.79361
0.863834
0.923519
0.970499
1.00411
1.02518
1.03574
1.03845
1.03607
1.03096
1.02489
1.01899
1.01386
1.00973
1.0066
1.00433
1.00275
1.00169
1.00101
1.00058
1.00033
1.00018
1.00009
1.00004
1.00002
1.00001
1
1
0.999999
0.999999
0.999999
0.999999
0.999999
1
1
1
1
1
1
1
1
1
1
1
1
1
1
1
1
1
1
1
1
1
0.872207
0.80493
0.730343
0.652283
0.57519
0.503347
0.440069
0.38738
0.346116
0.31635
0.297805
0.290147
0.293194
0.307081
0.332367
0.369887
0.420189
0.48271
0.555224
0.634001
0.714483
0.792022
0.862437
0.922359
0.969624
1.00353
1.02487
1.03563
1.03849
1.03618
1.0311
1.02503
1.01911
1.01397
1.00983
1.00668
1.0044
1.00281
1.00175
1.00106
1.00062
1.00036
1.0002
1.00011
1.00006
1.00003
1.00002
1.00001
1
1
1
1
1
1
1
1
1
1
1
1
1
1
1
1
1
1
1
1
1
1
1
1
1
1
1
0.874094
0.807449
0.73367
0.656491
0.580182
0.508888
0.445887
0.393263
0.351949
0.322117
0.303552
0.29593
0.299027
0.312897
0.338032
0.375243
0.425123
0.48718
0.55923
0.637531
0.717479
0.794428
0.86424
0.923622
0.970451
1.00404
1.02516
1.03578
1.03855
1.03619
1.03108
1.02501
1.0191
1.01397
1.00984
1.0067
1.00443
1.00285
1.00179
1.00109
1.00066
1.00039
1.00023
1.00013
1.00008
1.00004
1.00003
1.00001
1.00001
1.00001
1
1
1
1
1
1
1
1
1
1
1
1
1
1
1
1
1
1
1
1
1
1
1
1
1
0.878942
0.8136
0.741255
0.66553
0.590514
0.520173
0.457724
0.405302
0.363969
0.334053
0.315451
0.307888
0.31111
0.325087
0.350209
0.38721
0.436649
0.498043
0.56923
0.646476
0.72519
0.800774
0.869188
0.927252
0.972938
1.00561
1.02603
1.03617
1.03863
1.03609
1.03091
1.02482
1.01894
1.01385
1.00976
1.00666
1.00442
1.00286
1.0018
1.00112
1.00068
1.00041
1.00025
1.00015
1.00009
1.00005
1.00003
1.00002
1.00001
1.00001
1.00001
1
1
1
1
1
1
1
1
1
1
1
1
1
1
1
1
1
1
1
1
1
1
1
1
0.886601
0.823234
0.752913
0.679168
0.605906
0.536909
0.475312
0.42329
0.382059
0.352119
0.333524
0.326077
0.329503
0.343682
0.368892
0.405746
0.454699
0.515213
0.585111
0.660693
0.737445
0.810882
0.877112
0.933107
0.97697
1.00814
1.02742
1.03675
1.03869
1.03588
1.03058
1.02447
1.01863
1.01361
1.00959
1.00656
1.00436
1.00283
1.0018
1.00113
1.0007
1.00043
1.00026
1.00016
1.0001
1.00006
1.00004
1.00003
1.00002
1.00001
1.00001
1
1
1
1
1
1
1
1
1
1
1
1
1
1
1
1
1
1
1
1
1
1
1
1
0.896812
0.836107
0.768415
0.697157
0.626081
0.558813
0.498398
0.447043
0.406108
0.376295
0.357825
0.350579
0.354269
0.3687
0.394027
0.43072
0.47908
0.538441
0.606592
0.679881
0.753931
0.824445