/*--------------------------------*- C++ -*----------------------------------*\
  =========                 |
  \\      /  F ield         | OpenFOAM: The Open Source CFD Toolbox
   \\    /   O peration     | Website:  https://openfoam.org
    \\  /    A nd           | Version:  6
     \\/     M anipulation  |
\*---------------------------------------------------------------------------*/
FoamFile
{
    version     2.0;
    format      ascii;
    class       volScalarField;
    location    "3.55";
    object      nut;
}
// * * * * * * * * * * * * * * * * * * * * * * * * * * * * * * * * * * * * * //

dimensions      [0 2 -1 0 0 0 0];

internalField   nonuniform List<scalar> 
4214
(
0.00270923
0.00234205
0.00257296
0.00296994
0.00319743
0.00320249
0.00312004
0.00309674
0.00326643
0.00379771
0.00496711
0.00724577
0.0113099
0.0177465
0.0265305
0.0349511
0.0369678
0.0321474
0.0264715
0.0218573
0.0180808
0.0148389
0.0123535
0.0105283
0.00910184
0.0078364
0.00659813
0.00538055
0.00430304
0.00345754
0.00288038
0.00255735
0.00246424
0.00255293
0.00273995
0.00290731
0.00291904
0.00268464
0.00232919
0.00221746
0.0027499
0.00205598
0.00237446
0.00277475
0.00303914
0.00309778
0.0030342
0.00296639
0.00300486
0.00327176
0.00394794
0.00534273
0.00797059
0.0125256
0.0195276
0.028729
0.0367131
0.0373894
0.0323849
0.0268976
0.0225866
0.0189832
0.0158551
0.0135701
0.0120107
0.0108452
0.0097621
0.00851753
0.00706634
0.00561846
0.00434276
0.00335889
0.00267644
0.00229228
0.00216435
0.00223218
0.00240136
0.00254695
0.00254653
0.00234603
0.00206473
0.0019273
0.00224453
0.00257152
0.00283586
0.00294795
0.00292908
0.00286169
0.00283604
0.00294744
0.00332143
0.00415997
0.00580945
0.00882494
0.0139008
0.0214469
0.0309071
0.0381173
0.0378425
0.0328064
0.0275438
0.0235499
0.0201713
0.0172474
0.0152578
0.0140942
0.0133642
0.0126533
0.0115438
0.00990891
0.00804868
0.00619702
0.00462986
0.00341346
0.0025883
0.00211242
0.00192649
0.0019569
0.00210161
0.00223267
0.00223971
0.00210394
0.00192879
0.00235137
0.00260024
0.0027549
0.00279157
0.00275357
0.00270957
0.002736
0.00292637
0.00341801
0.00443909
0.00637445
0.00981299
0.0154244
0.0235037
0.033017
0.0391917
0.0384917
0.0335637
0.028533
0.0248792
0.021789
0.0191508
0.017554
0.0169103
0.016771
0.0166188
0.0158084
0.0141096
0.0118712
0.00933055
0.00698881
0.00502132
0.0035557
0.00257325
0.00200101
0.00175353
0.00174397
0.00186279
0.0019785
0.00198995
0.00189153
0.002359
0.00253251
0.00261887
0.00262454
0.00259287
0.00258273
0.00266639
0.00294256
0.0035651
0.00479177
0.00704479
0.0109315
0.0170791
0.0256187
0.0347034
0.0401741
0.0393559
0.0346323
0.0298604
0.026568
0.0238657
0.0216213
0.0205046
0.0204904
0.0211053
0.02167
0.0212889
0.0197092
0.0172147
0.013959
0.01068
0.00774505
0.00540697
0.00370442
0.0025805
0.00192538
0.00162568
0.00157773
0.00167147
0.00177281
0.00177333
0.00229548
0.00241743
0.00246828
0.00246646
0.00245253
0.00248137
0.00262694
0.00299747
0.00376652
0.00522215
0.00782343
0.0121627
0.0188395
0.0274442
0.0360487
0.0412136
0.0404871
0.0360818
0.0316065
0.0286932
0.0264806
0.0247254
0.0241542
0.0248882
0.026358
0.0278087
0.0279508
0.0266467
0.0240611
0.020152
0.015904
0.0118087
0.00832826
0.00564653
0.00375831
0.00254293
0.00184389
0.00151902
0.00144954
0.00151918
0.00159538
0.00219594
0.00228668
0.00232107
0.00232312
0.00233257
0.00240464
0.00261795
0.00309283
0.00402585
0.00572961
0.00869845
0.0134898
0.0203548
0.0288904
0.0372765
0.0423406
0.0419253
0.0379672
0.0338025
0.0312837
0.0296612
0.0284693
0.028485
0.0300557
0.0324178
0.0348174
0.0356809
0.0347563
0.0322789
0.0279621
0.0226974
0.0172601
0.0124035
0.00848955
0.00560628
0.00365051
0.00242743
0.00173821
0.00142043
0.00134663
0.00139799
0.00208472
0.00215563
0.00218313
0.00219515
0.00223243
0.00235245
0.00264062
0.00322928
0.00434228
0.00631469
0.00957364
0.0145988
0.0215958
0.030058
0.0383159
0.0435429
0.043695
0.0403104
0.0364721
0.0343031
0.0333972
0.0327794
0.033445
0.0359208
0.0392307
0.0424762
0.0441709
0.0438877
0.0416835
0.0371078
0.0309155
0.024043
0.0175903
0.0122066
0.00810811
0.00523528
0.00336228
0.00222711
0.00160461
0.00132552
0.00126224
0.00197302
0.00202945
0.00205569
0.00208248
0.00215235
0.0023253
0.00269641
0.00340821
0.0046798
0.00684116
0.0103128
0.0154959
0.0225154
0.0308707
0.0390853
0.0447418
0.0457738
0.0431249
0.0396324
0.0376847
0.0375264
0.0375701
0.0389957
0.0420174
0.0458897
0.0498651
0.0526257
0.0533208
0.0516892
0.0471396
0.0401396
0.0318715
0.0236742
0.0166168
0.011117
0.00718285
0.00456168
0.00292087
0.00196062
0.00145278
0.00123694
0.00186406
0.00190935
0.00193933
0.00198587
0.00209385
0.00232438
0.00277131
0.0035818
0.0049798
0.00728051
0.010868
0.0160821
0.0230005
0.0311803
0.0394107
0.0456776
0.0480051
0.0463771
0.0433109
0.0413562
0.0418173
0.0425301
0.0443176
0.047368
0.0513667
0.0557881
0.0595898
0.0616472
0.0611228
0.057124
0.0496823
0.0400995
0.0301788
0.0213511
0.0143423
0.00926544
0.00585106
0.00368912
0.0023935
0.00166658
0.00130228
0.00175796
0.00179618
0.00183562
0.00190701
0.00205354
0.00233563
0.00284834
0.00373546
0.00521261
0.00757185
0.0111556
0.0162532
0.0229222
0.030812
0.0390223
0.0460033
0.0499207
0.0498269
0.0474645
0.0453459
0.0459122
0.0468675
0.0485195
0.0511508
0.0547446
0.059174
0.0637814
0.0673867
0.0685548
0.0657239
0.0584139
0.0478755
0.0363648
0.0258248
0.0173381
0.0111523
0.00698732
0.00435361
0.00277259
0.00187166
0.00139499
0.00165473
0.00169184
0.00174525
0.00184309
0.00202741
0.00235419
0.00291515
0.00384384
0.00533867
0.00765847
0.0111004
0.0159161
0.0221767
0.0296276
0.0376176
0.04507
0.0506852
0.0528011
0.0516991
0.0493764
0.049418
0.0499296
0.0509623
0.0527211
0.0555608
0.0597367
0.0649397
0.070014
0.073152
0.0718982
0.0652164
0.0540856
0.0412766
0.0292763
0.0195436
0.0124524
0.00770606
0.00473454
0.00297165
0.00197561
0.00144591
0.00155495
0.0015971
0.00166852
0.00179303
0.00201121
0.0023704
0.00295639
0.00388364
0.00532629
0.00749996
0.0106554
0.0150039
0.0206304
0.0273872
0.0348426
0.0422604
0.0486197
0.0530907
0.0542829
0.0523709
0.0515552
0.0511809
0.0512331
0.0521274
0.0543029
0.0582351
0.0638301
0.0701533
0.0751499
0.0754545
0.0695455
0.0580419
0.0442275
0.0310936
0.0204937
0.0128536
0.00781809
0.004722
0.00292449
0.0019328
0.0014182
0.00146201
0.00151318
0.00160458
0.00175271
0.00199883
0.00237405
0.00295956
0.00383938
0.00516186
0.00708879
0.00981934
0.0135185
0.0182751
0.0240182
0.0304861
0.0372072
0.043541
0.0488156
0.0527894
0.0520428
0.0509766
0.050005
0.0494549
0.0498884
0.0517364
0.055687
0.0616897
0.069044
0.0755594
0.0769568
0.0716156
0.0595416
0.0449528
0.0310296
0.0200414
0.0122811
0.00730802
0.00433196
0.00265746
0.00176587
0.00132509
0.00137759
0.00143832
0.00155137
0.0017163
0.0019857
0.00235736
0.00292158
0.00371113
0.00486208
0.00646433
0.00867745
0.0116021
0.0153212
0.0198027
0.0249002
0.0303662
0.0358642
0.0410931
0.0463006
0.047089
0.0465652
0.0459053
0.045625
0.0463346
0.0484141
0.0528399
0.0593813
0.0677584
0.0754015
0.0770601
0.0718881
0.0586799
0.0436536
0.029191
0.0183787
0.0109101
0.00634736
0.00369847
0.00227325
0.00154636
0.00121334
0.00130186
0.00136866
0.00150888
0.00167715
0.00197497
0.00231856
0.00285967
0.00352272
0.0044886
0.00572812
0.00741203
0.00954534
0.0122263
0.0154212
0.0191035
0.0231758
0.0275314
0.0321626
0.0370324
0.0389746
0.0394824
0.0399419
0.0405137
0.0421216
0.0447824
0.0503083
0.0573754
0.0671028
0.0752028
0.0760864
0.0708363
0.0553814
0.0408176
0.0258176
0.0160067
0.00905844
0.00522563
0.00299839
0.00189628
0.00134807
0.00112765
0.00123761
0.0012965
0.0014866
0.00162518
0.00198941
0.0022591
0.0028279
0.00332096
0.00416688
0.00503869
0.00629793
0.00773639
0.00956581
0.0117039
0.0142016
0.0171599
0.0206477
0.0252981
0.0285047
0.0313704
0.032484
0.0340322
0.0354195
0.0381759
0.0414238
0.0489285
0.0558784
0.0681434
0.0747881
0.0740305
0.0688757
0.049274
0.0375462
0.021009
0.0137299
0.00693683
0.00427743
0.00234039
0.001628
0.001206
0.00108703
0.00105393
0.00105868
0.00108663
0.00113342
0.0011793
0.00119991
0.00118766
0.00116244
0.00116195
0.00121864
0.00133886
0.00150856
0.00167632
0.00178235
0.00184216
0.00213969
0.00470368
0.00105936
0.00105115
0.00105342
0.00106685
0.00108501
0.00109769
0.00110155
0.0011067
0.00113207
0.00119339
0.00129298
0.00141488
0.00152685
0.00159904
0.00167111
0.00199693
0.00465313
0.00106092
0.00105364
0.00105004
0.00105137
0.00105687
0.00106398
0.00107244
0.00108754
0.00111852
0.00117308
0.00125142
0.00133873
0.00141252
0.00145974
0.0015338
0.00188359
0.00459856
0.00106003
0.00105406
0.00105039
0.00104927
0.00105096
0.0010556
0.00106435
0.00108048
0.00110891
0.00115372
0.00121391
0.00127675
0.0013233
0.00135119
0.00141847
0.00177481
0.00456877
0.00105311
0.00105001
0.00104788
0.00104722
0.0010485
0.00105244
0.00106043
0.00107483
0.00109872
0.00113446
0.00118041
0.00122587
0.0012544
0.00126767
0.00132234
0.00167807
0.00454648
0.00104983
0.00104639
0.0010444
0.00104388
0.00104507
0.00104859
0.00105559
0.00106784
0.00108748
0.00111596
0.00115135
0.00118435
0.00120032
0.00120175
0.00124215
0.00159359
0.00450767
0.00104519
0.00104242
0.00104058
0.00103995
0.00104083
0.00104376
0.00104968
0.00105998
0.00107626
0.00109937
0.00112722
0.00115123
0.00115811
0.00115001
0.00117672
0.00151705
0.00442696
0.0010437
0.00104036
0.001038
0.0010368
0.00103702
0.00103914
0.00104397
0.00105266
0.00106646
0.00108584
0.00110853
0.0011262
0.00112673
0.00111186
0.00112605
0.00144387
0.00429266
0.00104182
0.00103856
0.00103599
0.00103436
0.00103399
0.00103538
0.00103932
0.00104685
0.00105904
0.00107615
0.00109572
0.00110988
0.00110772
0.00108921
0.00109125
0.00137337
0.00411062
0.00104164
0.00103819
0.00103534
0.00103329
0.0010324
0.00103321
0.00103652
0.00104337
0.00105478
0.00107095
0.0010897
0.00110441
0.00110419
0.00108464
0.00107432
0.00131287
0.00390592
0.00104194
0.00103852
0.00103554
0.00103325
0.00103207
0.00103261
0.00103572
0.00104252
0.00105414
0.00107118
0.00109235
0.00111184
0.00111752
0.00109915
0.00107702
0.00127176
0.00370786
0.00104254
0.00103943
0.00103672
0.00103467
0.00103373
0.00103458
0.00103815
0.00104563
0.00105831
0.00107721
0.0011019
0.00112764
0.00114192
0.00112876
0.00109852
0.00125602
0.00353623
0.00104463
0.00104159
0.00103901
0.00103721
0.00103669
0.00103814
0.00104249
0.00105097
0.001065
0.00108605
0.00111456
0.00114723
0.00117224
0.00116877
0.00113586
0.00126564
0.0033956
0.00104574
0.00104332
0.00104134
0.00104023
0.00104054
0.00104296
0.00104845
0.00105828
0.00107403
0.00109751
0.00112992
0.00116933
0.00120536
0.00121422
0.00118406
0.00129648
0.00328019
0.00104904
0.0010466
0.00104497
0.00104451
0.0010457
0.00104924
0.00105608
0.0010675
0.00108526
0.00111138
0.00114756
0.00119293
0.00123861
0.00125989
0.00123677
0.00134332
0.00318084
0.00105084
0.00104945
0.00104882
0.00104945
0.00105184
0.00105674
0.00106512
0.00107839
0.00109838
0.00112729
0.00116699
0.00121717
0.00127006
0.00130126
0.00128785
0.00140143
0.00308894
0.00105507
0.0010538
0.00105384
0.00105544
0.00105903
0.00106533
0.00107539
0.00109067
0.00111306
0.00114472
0.00118751
0.00124115
0.00129821
0.00133527
0.0013329
0.00146647
0.00299851
0.00105777
0.00105796
0.00105925
0.00106206
0.00106696
0.00107476
0.0010866
0.00110399
0.00112878
0.001163
0.00120826
0.00126384
0.00132197
0.00136092
0.00137093
0.00153526
0.00290522
0.00106272
0.00106327
0.00106541
0.00106928
0.00107546
0.0010848
0.00109845
0.00111791
0.00114493
0.00118134
0.00122826
0.0012842
0.00134086
0.00137976
0.00140551
0.00160722
0.00280719
0.00106651
0.00106857
0.0010718
0.00107681
0.00108429
0.00109514
0.00111054
0.00113191
0.00116087
0.00119892
0.00124658
0.00130157
0.00135555
0.00139574
0.00144332
0.00168142
0.0027045
0.00107183
0.00107437
0.00107844
0.00108448
0.00109319
0.00110547
0.00112245
0.00114547
0.00117594
0.00121496
0.00126252
0.00131589
0.00136809
0.00141452
0.00149023
0.00175246
0.00259664
0.00107676
0.00108015
0.00108509
0.00109213
0.001102
0.00111556
0.00113391
0.00115824
0.00118974
0.00122916
0.00127618
0.00132836
0.00138187
0.00144097
0.00154627
0.00181289
0.00249139
0.00108174
0.00108574
0.00109138
0.00109922
0.00110996
0.00112445
0.00114372
0.00116889
0.00120101
0.00124081
0.0012883
0.00134248
0.00140358
0.00148214
0.00161648
0.00188304
0.00241269
0.00108641
0.00109088
0.00109704
0.00110543
0.00111674
0.00113181
0.00115162
0.00117728
0.00120993
0.00125062
0.00130021
0.0013598
0.00143326
0.00153426
0.00169434
0.00195688
0.00236131
0.00109075
0.00109554
0.00110201
0.0011107
0.00112229
0.00113759
0.00115762
0.00118356
0.0012168
0.001259
0.00131224
0.00137978
0.00146834
0.00159221
0.00177475
0.00203251
0.00233733
0.00109475
0.00109971
0.00110631
0.00111507
0.00112665
0.00114188
0.00116183
0.00118786
0.00122175
0.00126592
0.00132381
0.00140072
0.00150541
0.00165173
0.00185521
0.00211103
0.00234099
0.00109851
0.00110351
0.00111004
0.00111865
0.00112997
0.00114485
0.00116444
0.00119033
0.00122476
0.00127097
0.00133377
0.00142029
0.00154096
0.00170914
0.00193413
0.00219441
0.00237268
0.00110214
0.00110705
0.0011134
0.00112167
0.00113249
0.00114674
0.00116567
0.00119109
0.00122569
0.00127353
0.00134069
0.00143603
0.00157163
0.00176102
0.00200956
0.00228312
0.00243302
0.00110601
0.00111072
0.00111672
0.00112448
0.00113459
0.0011479
0.00116576
0.00119022
0.00122437
0.00127298
0.00134318
0.00144555
0.00159409
0.0018038
0.00207896
0.00237729
0.00252293
0.00111123
0.00111605
0.00112176
0.00112865
0.00113739
0.00114898
0.00116492
0.00118744
0.00122002
0.00126804
0.00133967
0.00144665
0.00160502
0.00183327
0.00213829
0.00247492
0.00264352
0.00111671
0.0011212
0.00112627
0.00113238
0.00114005
0.00115016
0.0011641
0.00118413
0.0012139
0.00125914
0.00132888
0.00143666
0.00160131
0.00184465
0.00218179
0.00257206
0.00279603
0.00112169
0.00112614
0.00113104
0.00113664
0.00114339
0.00115204
0.00116387
0.00118102
0.00120703
0.00124766
0.00131227
0.00141562
0.00157968
0.0018329
0.00220168
0.00266154
0.00298143
0.00112683
0.00113147
0.00113636
0.00114163
0.00114762
0.00115495
0.00116472
0.0011788
0.00120041
0.00123494
0.0012914
0.00138491
0.00154003
0.00179365
0.00218837
0.00273208
0.00320013
0.00113223
0.00113723
0.00114228
0.00114743
0.00115289
0.00115914
0.00116705
0.00117818
0.00119519
0.00122271
0.00126885
0.0013479
0.00148535
0.00172495
0.00213164
0.00276692
0.00345167
0.00113793
0.00114343
0.00114881
0.00115404
0.00115924
0.00116473
0.00117117
0.00117974
0.00119246
0.00121293
0.00124772
0.00130915
0.00142105
0.00163003
0.0020242
0.00274323
0.00373462
0.0011439
0.00115002
0.00115591
0.00116144
0.00116663
0.00117172
0.00117716
0.00118379
0.001193
0.00120728
0.00123129
0.0012744
0.00135627
0.00152023
0.0018687
0.00263407
0.00404673
0.00115013
0.00115698
0.0011635
0.00116949
0.00117493
0.00117995
0.00118488
0.0011903
0.00119707
0.00120672
0.00122213
0.00124934
0.00130216
0.00141498
0.00168651
0.00242099
0.0043853
0.00115658
0.00116423
0.00117147
0.00117805
0.00118389
0.00118908
0.0011939
0.00119873
0.00120413
0.001211
0.00122095
0.00123737
0.00126823
0.00133584
0.00151721
0.00212147
0.00474778
0.00116321
0.00117167
0.00117965
0.00118683
0.00119309
0.00119853
0.00120337
0.00120795
0.00121268
0.00121824
0.0012258
0.00123749
0.00125767
0.00129664
0.00140156
0.00180797
0.00513226
0.00116992
0.00117913
0.00118774
0.00119536
0.00120186
0.00120729
0.0012119
0.00121603
0.00122024
0.00122549
0.00123332
0.00124598
0.00126753
0.00129916
0.00136157
0.00157375
0.00553769
0.00119226
0.00120673
0.00122094
0.00123399
0.00124551
0.00125537
0.00126353
0.00126997
0.00127469
0.00127773
0.00127918
0.00127916
0.00127786
0.00127553
0.00127243
0.00126888
0.00126518
0.00126167
0.00125875
0.00125678
0.00125482
0.00125467
0.00125537
0.00125712
0.00125951
0.00126195
0.00126388
0.00126484
0.00126445
0.00126244
0.00125869
0.00125319
0.00124614
0.00123776
0.00122848
0.0012187
0.00120895
0.00119963
0.00119102
0.00118318
0.00117615
0.0012168
0.00123373
0.00124949
0.0012634
0.00127537
0.00128544
0.00129362
0.0012999
0.00130427
0.00130675
0.00130744
0.00130647
0.00130404
0.00130037
0.00129575
0.00129048
0.00128487
0.00127928
0.00127408
0.00126969
0.00126446
0.00126136
0.00126041
0.00126099
0.00126268
0.00126493
0.00126712
0.00126871
0.00126925
0.00126838
0.0012659
0.00126166
0.00125575
0.0012483
0.00123966
0.00123021
0.00122051
0.00121102
0.00120204
0.00119369
0.00118601
0.00124204
0.0012613
0.00127824
0.00129279
0.00130518
0.00131554
0.00132384
0.00133004
0.00133412
0.00133612
0.00133611
0.00133426
0.00133074
0.0013258
0.0013197
0.00131275
0.00130527
0.00129762
0.0012902
0.00128341
0.00127506
0.00126896
0.00126611
0.00126518
0.00126581
0.00126749
0.0012696
0.00127155
0.00127282
0.001273
0.00127176
0.00126889
0.00126432
0.00125808
0.00125038
0.00124157
0.00123215
0.00122262
0.00121332
0.00120434
0.00119573
0.00126724
0.00128837
0.00130613
0.00132127
0.00133422
0.00134501
0.00135355
0.00135978
0.00136367
0.00136526
0.00136464
0.00136198
0.00135746
0.00135133
0.00134385
0.00133532
0.00132607
0.00131647
0.00130693
0.00129786
0.00128666
0.00127765
0.00127271
0.00126997
0.00126916
0.00126985
0.00127147
0.00127341
0.0012751
0.00127607
0.00127592
0.00127435
0.00127119
0.00126634
0.00125986
0.00125197
0.00124308
0.00123371
0.00122421
0.00121462
0.00120489
0.0012916
0.00131394
0.00133236
0.00134827
0.00136198
0.00137336
0.00138228
0.00138864
0.00139243
0.0013937
0.00139258
0.00138921
0.0013838
0.00137658
0.00136785
0.00135788
0.00134702
0.00133564
0.00132417
0.001313
0.00129929
0.00128757
0.00128043
0.00127566
0.00127308
0.00127236
0.00127301
0.00127447
0.00127616
0.00127753
0.00127816
0.00127767
0.00127579
0.00127232
0.00126719
0.00126044
0.00125234
0.00124335
0.00123388
0.00122393
0.00121318
0.00131438
0.00133733
0.00135655
0.00137349
0.00138814
0.00140026
0.00140965
0.00141624
0.00142003
0.0014211
0.00141957
0.0014156
0.00140942
0.00140128
0.00139143
0.00138021
0.00136794
0.00135501
0.00134183
0.00132881
0.00131298
0.00129884
0.00128952
0.00128258
0.00127797
0.00127546
0.00127468
0.00127514
0.00127628
0.00127757
0.00127851
0.00127869
0.00127777
0.00127548
0.00127163
0.00126612
0.001259
0.0012506
0.00124137
0.00123146
0.00122026
0.00133507
0.00135837
0.00137867
0.00139684
0.00141255
0.00142549
0.00143545
0.00144236
0.00144625
0.00144721
0.00144539
0.00144096
0.00143416
0.00142524
0.00141449
0.00140221
0.00138876
0.00137452
0.0013599
0.00134529
0.00132778
0.00131159
0.00130018
0.00129108
0.00128429
0.00127971
0.00127708
0.00127602
0.00127605
0.00127666
0.00127734
0.00127765
0.00127721
0.0012757
0.00127285
0.00126847
0.00126244
0.00125481
0.00124597
0.00123638
0.00122561
0.0013535
0.00137728
0.00139891
0.00141838
0.00143518
0.00144898
0.00145956
0.00146687
0.00147095
0.00147192
0.00146994
0.00146521
0.00145795
0.00144845
0.00143699
0.00142389
0.00140951
0.00139423
0.00137844
0.00136253
0.00134376
0.00132596
0.00131266
0.00130149
0.00129253
0.00128575
0.001281
0.001278
0.00127639
0.00127571
0.0012755
0.00127531
0.00127476
0.00127348
0.0012712
0.00126766
0.00126265
0.00125598
0.00124771
0.00123838
0.00122859
0.00136988
0.00139453
0.00141758
0.0014383
0.00145616
0.0014708
0.00148202
0.00148978
0.00149414
0.00149523
0.00149324
0.00148836
0.00148084
0.00147096
0.00145902
0.00144536
0.00143031
0.00141425
0.00139759
0.00138067
0.00136107
0.00134211
0.00132719
0.00131417
0.00130317
0.00129423
0.00128728
0.00128214
0.00127852
0.00127608
0.00127443
0.00127316
0.00127189
0.00127028
0.00126805
0.00126496
0.00126078
0.00125523
0.00124796
0.00123892
0.00122939
0.00138483
0.00141074
0.0014351
0.00145693
0.00147573
0.00149114
0.00150297
0.0015112
0.0015159
0.00151722
0.00151536
0.00151052
0.00150295
0.00149293
0.00148077
0.0014668
0.00145136
0.00143482
0.00141758
0.00139997
0.00137993
0.00136027
0.00134408
0.0013295
0.00131672
0.00130582
0.0012968
0.00128953
0.00128383
0.00127943
0.00127604
0.00127331
0.00127093
0.00126859
0.00126603
0.00126307
0.00125952
0.00125517
0.00124957
0.00124177
0.00123136
0.0014005
0.00142688
0.00145197
0.00147477
0.0014943
0.00151032
0.00152267
0.00153133
0.0015364
0.00153804
0.00153645
0.00153184
0.00152444
0.00151455
0.00150245
0.00148847
0.00147294
0.00145624
0.00143873
0.00142076
0.00140068
0.00138078
0.00136369
0.00134795
0.00133376
0.00132123
0.00131041
0.00130126
0.00129365
0.00128741
0.00128232
0.00127812
0.00127456
0.0012714
0.00126844
0.00126552
0.00126253
0.00125939
0.00125588
0.00125105
0.00124158
0.00141739
0.00144418
0.00146952
0.00149243
0.00151239
0.00152881
0.00154149
0.00155048
0.00155589
0.0015579
0.00155671
0.0015525
0.00154553
0.00153604
0.00152432
0.00151066
0.0014954
0.00147889
0.00146149
0.00144352
0.00142381
0.00140411
0.00138658
0.00137014
0.00135498
0.00134126
0.00132908
0.00131844
0.0013093
0.00130154
0.00129504
0.00128962
0.00128511
0.00128133
0.00127814
0.00127543
0.00127312
0.00127119
0.00126965
0.00126837
0.00126506
0.00143681
0.00146348
0.00148865
0.00151132
0.00153094
0.00154716
0.00155987
0.00156902
0.00157469
0.00157706
0.00157634
0.00157273
0.00156642
0.00155764
0.00154665
0.00153372
0.00151914
0.00150326
0.00148641
0.00146891
0.00145
0.00143099
0.00141355
0.00139693
0.00138136
0.00136701
0.00135401
0.00134242
0.00133225
0.00132347
0.00131601
0.00130978
0.00130469
0.00130062
0.0012975
0.00129526
0.00129385
0.00129328
0.00129361
0.00129491
0.00129759
0.00146061
0.00148631
0.00151054
0.00153225
0.00155099
0.00156649
0.00157865
0.0015875
0.00159317
0.00159584
0.00159564
0.00159274
0.00158734
0.00157961
0.00156975
0.001558
0.00154463
0.00152993
0.0015142
0.00149777
0.00148021
0.00146247
0.00144574
0.00142961
0.00141431
0.00140002
0.00138689
0.00137502
0.00136448
0.00135529
0.00134746
0.00134096
0.00133577
0.00133185
0.00132916
0.00132769
0.00132743
0.00132842
0.00133074
0.00133464
0.00133994
0.00149145
0.00151489
0.00153701
0.00155671
0.00157364
0.00158763
0.00159862
0.00160669
0.00161199
0.00161467
0.00161491
0.00161283
0.00160855
0.0016022
0.00159394
0.00158395
0.00157243
0.00155962
0.00154579
0.00153121
0.00151575
0.00150005
0.00148489
0.00147012
0.00145596
0.00144261
0.00143022
0.00141893
0.00140884
0.00140003
0.00139254
0.00138643
0.0013817
0.00137839
0.0013765
0.00137606
0.0013771
0.00137975
0.00138389
0.00138947
0.00139704
0.00153335
0.00155245
0.00157068
0.00158678
0.00160053
0.00161185
0.00162075
0.00162733
0.00163174
0.00163411
0.0016346
0.00163331
0.00163033
0.00162574
0.00161962
0.00161206
0.00160322
0.00159325
0.00158236
0.00157076
0.00155848
0.00154593
0.00153356
0.00152139
0.00150962
0.00149843
0.00148799
0.00147842
0.00146986
0.00146241
0.00145615
0.00145116
0.00144751
0.00144523
0.0014444
0.00144505
0.00144719
0.00145081
0.00145586
0.00146232
0.00147105
0.00159249
0.00160395
0.00161543
0.00162547
0.00163397
0.00164092
0.00164638
0.00165043
0.00165319
0.00165475
0.00165521
0.00165465
0.00165311
0.00165062
0.00164721
0.00164292
0.00163782
0.00163197
0.00162549
0.0016185
0.00161104
0.00160335
0.00159564
0.00158799
0.00158052
0.00157338
0.00156667
0.00156052
0.00155502
0.00155028
0.00154638
0.00154338
0.00154136
0.00154036
0.00154042
0.00154156
0.00154379
0.00154708
0.00155139
0.00155666
0.00156414
0.0044188
0.0020283
0.00199024
0.00209179
0.00214545
0.00212597
0.00205539
0.00196152
0.00186149
0.00176268
0.00166729
0.00157576
0.00148846
0.00140586
0.00132855
0.001257
0.00119083
0.0043523
0.00192703
0.0018177
0.00187244
0.00191577
0.00191449
0.00187221
0.0018057
0.0017289
0.0016496
0.00157132
0.00149553
0.00142311
0.00135409
0.00128928
0.00122973
0.00117616
0.00429991
0.00186665
0.00168033
0.00169096
0.00171901
0.00172589
0.00170327
0.00165928
0.00160415
0.00154464
0.00148429
0.00142481
0.00136713
0.00131181
0.00125991
0.00121215
0.00116866
0.00428269
0.00182787
0.00157326
0.00154549
0.00155654
0.0015642
0.00155229
0.00152259
0.00148226
0.00143706
0.00139031
0.0013438
0.00129877
0.00125578
0.00121642
0.00118221
0.00115511
0.00429494
0.00180384
0.0014888
0.0014314
0.00142794
0.00143315
0.00142645
0.00140533
0.00137458
0.00133925
0.00130273
0.00126708
0.00123379
0.00120334
0.00117719
0.00115697
0.00114417
0.0043286
0.00179507
0.00141944
0.00134301
0.00133027
0.001333
0.00132935
0.00131476
0.00129239
0.00126645
0.0012399
0.00121455
0.00119158
0.00117163
0.00115569
0.00114502
0.00114016
0.004359
0.00179433
0.00135962
0.00127473
0.00125872
0.00125975
0.00125657
0.0012445
0.00122617
0.00120542
0.00118495
0.0011663
0.00115026
0.00113742
0.00112774
0.00112186
0.00111993
0.00434815
0.00178479
0.00130642
0.00122324
0.00120986
0.00121124
0.00120797
0.00119668
0.00118038
0.0011628
0.00114648
0.00113277
0.00112224
0.00111509
0.00111134
0.0011108
0.00111339
0.004266
0.001752
0.00125985
0.00118766
0.00118131
0.00118462
0.00118109
0.00116974
0.00115473
0.00113981
0.00112708
0.00111731
0.00111061
0.00110693
0.00110623
0.00110826
0.00111265
0.00410874
0.00169188
0.00122192
0.00116819
0.00117056
0.00117507
0.00116934
0.00115538
0.0011386
0.00112309
0.00111083
0.00110235
0.00109743
0.00109544
0.00109572
0.00109779
0.00110118
0.0039045
0.00161616
0.00119742
0.00116607
0.00117571
0.00117879
0.00116907
0.00115198
0.00113361
0.0011176
0.00110543
0.00109734
0.00109296
0.00109162
0.00109258
0.00109516
0.00109878
0.00369691
0.00154489
0.00119095
0.00118137
0.00119413
0.0011917
0.00117555
0.00115424
0.00113385
0.00111711
0.00110469
0.00109638
0.00109174
0.00109015
0.00109103
0.00109378
0.00109788
0.00351861
0.00149474
0.00120403
0.00121154
0.00122173
0.00120976
0.0011853
0.00115899
0.00113622
0.00111854
0.00110568
0.0010969
0.00109149
0.00108878
0.00108814
0.00108898
0.00109074
0.00337782
0.0014731
0.0012343
0.00125183
0.00125397
0.00122989
0.00119646
0.00116504
0.00113984
0.00112124
0.00110818
0.00109925
0.00109341
0.00108993
0.00108833
0.00108827
0.00108933
0.00326493
0.00147848
0.001276
0.00129609
0.00128654
0.00124979
0.00120774
0.00117134
0.00114353
0.00112376
0.00111034
0.00110136
0.00109533
0.00109125
0.00108869
0.00108765
0.00108831
0.00316648
0.00150569
0.00132227
0.00133815
0.00131605
0.00126792
0.0012183
0.00117725
0.00114668
0.00112541
0.00111141
0.00110249
0.00109672
0.00109264
0.00108933
0.00108656
0.0010846
0.00307177
0.00154835
0.00136709
0.0013731
0.00134034
0.00128351
0.00122783
0.00118266
0.00114929
0.00112617
0.00111108
0.00110184
0.00109638
0.00109298
0.00109024
0.00108734
0.00108442
0.00297502
0.00160112
0.00140737
0.00139826
0.00135805
0.00129576
0.00123576
0.00118726
0.00115135
0.00112633
0.00110986
0.00109973
0.00109402
0.00109105
0.00108926
0.00108718
0.00108421
0.00287333
0.00165922
0.001442
0.00141401
0.00136878
0.00130409
0.00124165
0.0011908
0.00115283
0.00112609
0.00110824
0.00109703
0.00109065
0.00108756
0.00108641
0.00108547
0.0010824
0.00276593
0.00172318
0.00147677
0.00142387
0.00137329
0.00130821
0.00124512
0.00119307
0.00115369
0.00112558
0.00110649
0.00109422
0.00108697
0.00108331
0.00108211
0.00108237
0.00108157
0.00265466
0.00178943
0.00151915
0.00143433
0.00137427
0.0013087
0.00124608
0.00119387
0.00115382
0.00112479
0.00110472
0.00109155
0.00108349
0.00107918
0.00107747
0.00107786
0.00107894
0.00254481
0.00184866
0.00157076
0.00145228
0.00137664
0.00130788
0.00124547
0.00119362
0.00115346
0.00112392
0.00110315
0.00108923
0.00108048
0.00107555
0.00107339
0.00107348
0.00107444
0.00246085
0.00192261
0.00163883
0.00148664
0.00138839
0.00131006
0.00124456
0.00119189
0.00115151
0.0011218
0.00110075
0.00108647
0.00107732
0.00107201
0.00106954
0.00106919
0.00107009
0.0024043
0.0019979
0.0017155
0.0015337
0.00140995
0.00131726
0.00124521
0.00118996
0.00114873
0.00111881
0.00109773
0.0010834
0.00107414
0.00106868
0.00106601
0.00106543
0.00106634
0.00237515
0.00206866
0.00179355
0.00158737
0.00143841
0.00132903
0.00124808
0.00118873
0.00114594
0.00111562
0.00109457
0.00108038
0.00107123
0.00106582
0.00106315
0.00106258
0.00106338
0.00237353
0.00214454
0.0018713
0.00164251
0.00146966
0.00134335
0.00125262
0.00118846
0.00114369
0.00111281
0.00109182
0.00107785
0.00106891
0.00106362
0.00106097
0.00106037
0.00106101
0.00239955
0.00222087
0.00194507
0.00169439
0.00149943
0.00135741
0.00125753
0.00118881
0.00114219
0.00111086
0.00109001
0.00107636
0.0010677
0.00106256
0.00105995
0.00105914
0.00105973
0.00245389
0.00230368
0.00201395
0.00173921
0.00152376
0.00136834
0.00126116
0.00118912
0.0011414
0.00111005
0.00108958
0.00107636
0.00106803
0.00106307
0.00106047
0.00105958
0.00105999
0.00253743
0.00239075
0.00207468
0.00177309
0.00153919
0.00137368
0.0012621
0.00118879
0.00114126
0.00111062
0.0010909
0.00107826
0.00107027
0.00106538
0.00106263
0.00106151
0.00106145
0.00265129
0.00247957
0.00212282
0.00179177
0.00154264
0.0013716
0.00125945
0.00118755
0.00114186
0.00111286
0.00109435
0.00108247
0.00107482
0.00106995
0.00106701
0.00106541
0.00106484
0.00279676
0.00256689
0.00215315
0.0017914
0.00153216
0.00136142
0.00125321
0.00118566
0.00114359
0.00111717
0.00110033
0.00108938
0.00108223
0.0010774
0.00107405
0.00107175
0.00107029
0.00297493
0.00264482
0.00215833
0.00176848
0.00150715
0.00134382
0.00124436
0.00118406
0.00114717
0.00112412
0.00110933
0.00109953
0.00109257
0.00108733
0.0010832
0.00107991
0.00107727
0.00318658
0.00270244
0.00213027
0.0017212
0.00146914
0.00132112
0.00123494
0.00118423
0.00115362
0.00113442
0.00112183
0.00111278
0.00110572
0.00109979
0.00109458
0.00108993
0.00108584
0.0034319
0.00272352
0.00206183
0.00165137
0.00142259
0.00129736
0.00122785
0.00118804
0.00116409
0.00114877
0.00113787
0.00112923
0.00112171
0.00111475
0.00110815
0.00110188
0.00109604
0.00371052
0.00268705
0.00195133
0.00156661
0.00137514
0.00127793
0.00122643
0.00119744
0.00117962
0.00116739
0.0011576
0.00114884
0.00114041
0.00113205
0.00112371
0.00111552
0.00110765
0.00402141
0.00257101
0.00180828
0.00148079
0.00133638
0.00126838
0.00123366
0.00121385
0.00120076
0.0011904
0.00118089
0.00117138
0.00116157
0.00115141
0.00114101
0.00113059
0.00112043
0.004363
0.00236547
0.00165655
0.00141102
0.00131514
0.00127281
0.00125116
0.00123769
0.00122727
0.00121747
0.00120733
0.00119648
0.00118484
0.00117254
0.00115978
0.00114686
0.00113415
0.00473307
0.00209407
0.00152915
0.00137184
0.00131665
0.00129247
0.00127866
0.00126824
0.00125844
0.00124796
0.00123641
0.00122369
0.00120986
0.0011951
0.00117971
0.00116406
0.00114858
0.00512869
0.00182106