/*--------------------------------*- C++ -*----------------------------------*\
  =========                 |
  \\      /  F ield         | OpenFOAM: The Open Source CFD Toolbox
   \\    /   O peration     | Website:  https://openfoam.org
    \\  /    A nd           | Version:  6
     \\/     M anipulation  |
\*---------------------------------------------------------------------------*/
FoamFile
{
    version     2.0;
    format      ascii;
    class       volVectorField;
    location    "3.26";
    object      U;
}
// * * * * * * * * * * * * * * * * * * * * * * * * * * * * * * * * * * * * * //

dimensions      [0 1 -1 0 0 0 0];

internalField   nonuniform List<vector> 
10000
(
(0.8944 0.4472 0)
(0.8944 0.4472 0)
(0.8944 0.4472 0)
(0.8944 0.4472 0)
(0.8944 0.4472 0)
(0.8944 0.4472 0)
(0.8944 0.4472 0)
(0.8944 0.4472 0)
(0.8944 0.4472 0)
(0.8944 0.4472 0)
(0.8944 0.4472 0)
(0.8944 0.4472 0)
(0.8944 0.4472 0)
(0.8944 0.4472 0)
(0.8944 0.4472 0)
(0.8944 0.4472 0)
(0.8944 0.4472 0)
(0.8944 0.4472 0)
(0.8944 0.4472 0)
(0.8944 0.4472 0)
(0.8944 0.4472 0)
(0.8944 0.4472 0)
(0.8944 0.4472 0)
(0.8944 0.4472 0)
(0.8944 0.4472 0)
(0.8944 0.4472 0)
(0.8944 0.4472 0)
(0.8944 0.4472 0)
(0.8944 0.4472 0)
(0.8944 0.4472 0)
(0.8944 0.4472 0)
(0.8944 0.4472 0)
(0.8944 0.4472 0)
(0.8944 0.4472 0)
(0.8944 0.4472 0)
(0.8944 0.4472 0)
(0.8944 0.4472 0)
(0.8944 0.4472 0)
(0.8944 0.4472 0)
(0.8944 0.4472 0)
(0.8944 0.4472 0)
(0.8944 0.4472 0)
(0.8944 0.4472 0)
(0.8944 0.4472 0)
(0.894401 0.4472 0)
(0.894401 0.447199 0)
(0.894402 0.447198 0)
(0.894404 0.447197 0)
(0.894406 0.447194 0)
(0.894408 0.447191 0)
(0.89441 0.447186 0)
(0.894412 0.44718 0)
(0.894413 0.447173 0)
(0.894414 0.447166 0)
(0.894413 0.447159 0)
(0.894411 0.447153 0)
(0.894408 0.447149 0)
(0.894402 0.447147 0)
(0.894396 0.447149 0)
(0.894389 0.447154 0)
(0.894382 0.447163 0)
(0.894376 0.447176 0)
(0.894372 0.44719 0)
(0.89437 0.447207 0)
(0.89437 0.447223 0)
(0.894372 0.447238 0)
(0.894377 0.447251 0)
(0.894383 0.447261 0)
(0.89439 0.447267 0)
(0.894397 0.44727 0)
(0.894403 0.447269 0)
(0.894408 0.447265 0)
(0.894411 0.447259 0)
(0.894414 0.447251 0)
(0.894414 0.447243 0)
(0.894414 0.447235 0)
(0.894413 0.447227 0)
(0.894411 0.44722 0)
(0.894409 0.447215 0)
(0.894407 0.44721 0)
(0.894405 0.447207 0)
(0.894404 0.447204 0)
(0.894403 0.447203 0)
(0.894402 0.447201 0)
(0.894401 0.447201 0)
(0.894401 0.4472 0)
(0.8944 0.4472 0)
(0.8944 0.4472 0)
(0.8944 0.4472 0)
(0.8944 0.4472 0)
(0.8944 0.4472 0)
(0.8944 0.4472 0)
(0.8944 0.4472 0)
(0.8944 0.4472 0)
(0.8944 0.4472 0)
(0.8944 0.4472 0)
(0.8944 0.4472 0)
(0.8944 0.4472 0)
(0.8944 0.4472 0)
(0.8944 0.4472 0)
(0.8944 0.4472 0)
(0.8944 0.4472 0)
(0.8944 0.4472 0)
(0.8944 0.4472 0)
(0.8944 0.4472 0)
(0.8944 0.4472 0)
(0.8944 0.4472 0)
(0.8944 0.4472 0)
(0.8944 0.4472 0)
(0.8944 0.4472 0)
(0.8944 0.4472 0)
(0.8944 0.4472 0)
(0.8944 0.4472 0)
(0.8944 0.4472 0)
(0.8944 0.4472 0)
(0.8944 0.4472 0)
(0.8944 0.4472 0)
(0.8944 0.4472 0)
(0.8944 0.4472 0)
(0.8944 0.4472 0)
(0.8944 0.4472 0)
(0.8944 0.4472 0)
(0.8944 0.4472 0)
(0.8944 0.4472 0)
(0.8944 0.4472 0)
(0.8944 0.4472 0)
(0.8944 0.4472 0)
(0.8944 0.4472 0)
(0.8944 0.4472 0)
(0.8944 0.4472 0)
(0.8944 0.4472 0)
(0.8944 0.4472 0)
(0.8944 0.4472 0)
(0.8944 0.4472 0)
(0.8944 0.4472 0)
(0.8944 0.4472 0)
(0.8944 0.4472 0)
(0.8944 0.4472 0)
(0.8944 0.4472 0)
(0.8944 0.4472 0)
(0.8944 0.4472 0)
(0.8944 0.4472 0)
(0.8944 0.4472 0)
(0.8944 0.4472 0)
(0.894401 0.4472 0)
(0.894402 0.447199 0)
(0.894404 0.447198 0)
(0.894406 0.447195 0)
(0.894408 0.447192 0)
(0.894411 0.447187 0)
(0.894415 0.44718 0)
(0.894417 0.447172 0)
(0.89442 0.447163 0)
(0.89442 0.447153 0)
(0.894419 0.447144 0)
(0.894415 0.447137 0)
(0.89441 0.447132 0)
(0.894402 0.447131 0)
(0.894392 0.447135 0)
(0.894382 0.447144 0)
(0.894372 0.447158 0)
(0.894364 0.447176 0)
(0.894358 0.447198 0)
(0.894355 0.44722 0)
(0.894356 0.447243 0)
(0.89436 0.447264 0)
(0.894367 0.447281 0)
(0.894376 0.447294 0)
(0.894386 0.447301 0)
(0.894396 0.447304 0)
(0.894405 0.447301 0)
(0.894412 0.447295 0)
(0.894418 0.447285 0)
(0.894421 0.447274 0)
(0.894422 0.447262 0)
(0.894421 0.44725 0)
(0.894419 0.447239 0)
(0.894416 0.447229 0)
(0.894413 0.447221 0)
(0.894411 0.447214 0)
(0.894408 0.44721 0)
(0.894406 0.447206 0)
(0.894404 0.447204 0)
(0.894402 0.447202 0)
(0.894402 0.447201 0)
(0.894401 0.4472 0)
(0.8944 0.4472 0)
(0.8944 0.4472 0)
(0.8944 0.4472 0)
(0.8944 0.4472 0)
(0.8944 0.4472 0)
(0.8944 0.4472 0)
(0.8944 0.4472 0)
(0.8944 0.4472 0)
(0.8944 0.4472 0)
(0.8944 0.4472 0)
(0.8944 0.4472 0)
(0.8944 0.4472 0)
(0.8944 0.4472 0)
(0.8944 0.4472 0)
(0.8944 0.4472 0)
(0.8944 0.4472 0)
(0.8944 0.4472 0)
(0.8944 0.4472 0)
(0.8944 0.4472 0)
(0.8944 0.4472 0)
(0.8944 0.4472 0)
(0.8944 0.4472 0)
(0.8944 0.4472 0)
(0.8944 0.4472 0)
(0.8944 0.4472 0)
(0.8944 0.4472 0)
(0.8944 0.4472 0)
(0.8944 0.4472 0)
(0.8944 0.4472 0)
(0.8944 0.4472 0)
(0.8944 0.4472 0)
(0.8944 0.4472 0)
(0.8944 0.4472 0)
(0.8944 0.4472 0)
(0.8944 0.4472 0)
(0.8944 0.4472 0)
(0.8944 0.4472 0)
(0.8944 0.4472 0)
(0.8944 0.4472 0)
(0.8944 0.4472 0)
(0.8944 0.4472 0)
(0.8944 0.4472 0)
(0.8944 0.4472 0)
(0.8944 0.4472 0)
(0.8944 0.4472 0)
(0.8944 0.4472 0)
(0.8944 0.4472 0)
(0.8944 0.4472 0)
(0.8944 0.4472 0)
(0.8944 0.4472 0)
(0.8944 0.4472 0)
(0.8944 0.4472 0)
(0.8944 0.4472 0)
(0.8944 0.4472 0)
(0.8944 0.447201 0)
(0.8944 0.4472 0)
(0.8944 0.447201 0)
(0.894401 0.447201 0)
(0.894401 0.4472 0)
(0.894403 0.447199 0)
(0.894405 0.447197 0)
(0.894408 0.447194 0)
(0.894412 0.447189 0)
(0.894416 0.447182 0)
(0.894421 0.447173 0)
(0.894425 0.447163 0)
(0.894427 0.447151 0)
(0.894428 0.447138 0)
(0.894426 0.447127 0)
(0.89442 0.447118 0)
(0.894411 0.447114 0)
(0.894399 0.447115 0)
(0.894385 0.447124 0)
(0.894371 0.447139 0)
(0.894357 0.44716 0)
(0.894345 0.447187 0)
(0.894337 0.447218 0)
(0.894334 0.44725 0)
(0.894336 0.44728 0)
(0.894343 0.447308 0)
(0.894353 0.44733 0)
(0.894367 0.447345 0)
(0.894382 0.447353 0)
(0.894396 0.447354 0)
(0.894409 0.447349 0)
(0.894419 0.447338 0)
(0.894427 0.447323 0)
(0.894431 0.447306 0)
(0.894432 0.447288 0)
(0.894431 0.44727 0)
(0.894428 0.447255 0)
(0.894424 0.447241 0)
(0.89442 0.447229 0)
(0.894415 0.44722 0)
(0.894412 0.447213 0)
(0.894408 0.447208 0)
(0.894406 0.447205 0)
(0.894404 0.447202 0)
(0.894402 0.447201 0)
(0.894401 0.4472 0)
(0.894401 0.4472 0)
(0.8944 0.4472 0)
(0.8944 0.4472 0)
(0.8944 0.4472 0)
(0.8944 0.4472 0)
(0.8944 0.4472 0)
(0.8944 0.4472 0)
(0.8944 0.4472 0)
(0.8944 0.4472 0)
(0.8944 0.4472 0)
(0.8944 0.4472 0)
(0.8944 0.4472 0)
(0.8944 0.4472 0)
(0.8944 0.4472 0)
(0.8944 0.4472 0)
(0.8944 0.4472 0)
(0.8944 0.4472 0)
(0.8944 0.4472 0)
(0.8944 0.4472 0)
(0.8944 0.4472 0)
(0.8944 0.4472 0)
(0.8944 0.4472 0)
(0.8944 0.4472 0)
(0.8944 0.4472 0)
(0.8944 0.4472 0)
(0.8944 0.4472 0)
(0.8944 0.4472 0)
(0.8944 0.4472 0)
(0.8944 0.4472 0)
(0.8944 0.4472 0)
(0.8944 0.4472 0)
(0.8944 0.4472 0)
(0.8944 0.4472 0)
(0.8944 0.4472 0)
(0.8944 0.4472 0)
(0.8944 0.4472 0)
(0.8944 0.4472 0)
(0.8944 0.4472 0)
(0.8944 0.4472 0)
(0.8944 0.4472 0)
(0.8944 0.4472 0)
(0.8944 0.4472 0)
(0.8944 0.4472 0)
(0.8944 0.4472 0)
(0.8944 0.4472 0)
(0.8944 0.4472 0)
(0.8944 0.4472 0)
(0.8944 0.4472 0)
(0.8944 0.4472 0)
(0.8944 0.4472 0)
(0.8944 0.4472 0)
(0.8944 0.4472 0)
(0.8944 0.4472 0)
(0.8944 0.447201 0)
(0.8944 0.447201 0)
(0.8944 0.447201 0)
(0.8944 0.447201 0)
(0.894401 0.447201 0)
(0.894402 0.447201 0)
(0.894404 0.447199 0)
(0.894408 0.447197 0)
(0.894412 0.447193 0)
(0.894417 0.447186 0)
(0.894423 0.447177 0)
(0.894429 0.447166 0)
(0.894434 0.447152 0)
(0.894438 0.447137 0)
(0.894438 0.447122 0)
(0.894434 0.447109 0)
(0.894425 0.447101 0)
(0.894411 0.447099 0)
(0.894393 0.447106 0)
(0.894373 0.447121 0)
(0.894352 0.447146 0)
(0.894334 0.44718 0)
(0.894318 0.44722 0)
(0.894308 0.447263 0)
(0.894305 0.447307 0)
(0.89431 0.447348 0)
(0.89432 0.447383 0)
(0.894336 0.44741 0)
(0.894356 0.447427 0)
(0.894377 0.447434 0)
(0.894398 0.447431 0)
(0.894416 0.447419 0)
(0.894431 0.4474 0)
(0.894441 0.447377 0)
(0.894446 0.447351 0)
(0.894448 0.447324 0)
(0.894446 0.447299 0)
(0.894441 0.447276 0)
(0.894435 0.447256 0)
(0.894429 0.44724 0)
(0.894423 0.447227 0)
(0.894417 0.447217 0)
(0.894412 0.447211 0)
(0.894408 0.447206 0)
(0.894405 0.447203 0)
(0.894403 0.447201 0)
(0.894402 0.4472 0)
(0.894401 0.4472 0)
(0.8944 0.4472 0)
(0.8944 0.4472 0)
(0.8944 0.4472 0)
(0.8944 0.4472 0)
(0.8944 0.4472 0)
(0.8944 0.4472 0)
(0.8944 0.4472 0)
(0.8944 0.4472 0)
(0.8944 0.4472 0)
(0.8944 0.4472 0)
(0.8944 0.4472 0)
(0.8944 0.4472 0)
(0.8944 0.4472 0)
(0.8944 0.4472 0)
(0.8944 0.4472 0)
(0.8944 0.4472 0)
(0.8944 0.4472 0)
(0.8944 0.4472 0)
(0.8944 0.4472 0)
(0.8944 0.4472 0)
(0.8944 0.4472 0)
(0.8944 0.4472 0)
(0.8944 0.4472 0)
(0.8944 0.4472 0)
(0.8944 0.4472 0)
(0.8944 0.4472 0)
(0.8944 0.4472 0)
(0.8944 0.4472 0)
(0.8944 0.4472 0)
(0.8944 0.4472 0)
(0.8944 0.4472 0)
(0.8944 0.4472 0)
(0.8944 0.4472 0)
(0.8944 0.4472 0)
(0.8944 0.4472 0)
(0.8944 0.4472 0)
(0.8944 0.4472 0)
(0.8944 0.4472 0)
(0.8944 0.4472 0)
(0.8944 0.4472 0)
(0.8944 0.4472 0)
(0.8944 0.4472 0)
(0.8944 0.4472 0)
(0.8944 0.4472 0)
(0.8944 0.4472 0)
(0.8944 0.4472 0)
(0.8944 0.4472 0)
(0.8944 0.4472 0)
(0.8944 0.4472 0)
(0.8944 0.4472 0)
(0.8944 0.4472 0)
(0.8944 0.447201 0)
(0.894399 0.447201 0)
(0.8944 0.447201 0)
(0.8944 0.447201 0)
(0.8944 0.447202 0)
(0.894401 0.447202 0)
(0.894403 0.447202 0)
(0.894406 0.4472 0)
(0.89441 0.447197 0)
(0.894416 0.447192 0)
(0.894424 0.447183 0)
(0.894432 0.447172 0)
(0.89444 0.447157 0)
(0.894446 0.44714 0)
(0.89445 0.447123 0)
(0.894448 0.447106 0)
(0.894441 0.447094 0)
(0.894427 0.447089 0)
(0.894406 0.447094 0)
(0.894381 0.447111 0)
(0.894352 0.447141 0)
(0.894323 0.447182 0)
(0.894298 0.447234 0)
(0.894278 0.447293 0)
(0.894267 0.447355 0)
(0.894265 0.447414 0)
(0.894274 0.447468 0)
(0.894291 0.447511 0)
(0.894316 0.447542 0)
(0.894345 0.447558 0)
(0.894375 0.447559 0)
(0.894404 0.447547 0)
(0.894429 0.447523 0)
(0.894449 0.447491 0)
(0.894462 0.447454 0)
(0.894469 0.447414 0)
(0.89447 0.447375 0)
(0.894467 0.447338 0)
(0.89446 0.447305 0)
(0.894451 0.447276 0)
(0.894441 0.447254 0)
(0.894432 0.447236 0)
(0.894424 0.447223 0)
(0.894417 0.447213 0)
(0.894411 0.447207 0)
(0.894407 0.447203 0)
(0.894404 0.447201 0)
(0.894402 0.4472 0)
(0.894401 0.447199 0)
(0.8944 0.447199 0)
(0.8944 0.447199 0)
(0.8944 0.447199 0)
(0.8944 0.4472 0)
(0.8944 0.4472 0)
(0.8944 0.4472 0)
(0.8944 0.4472 0)
(0.8944 0.4472 0)
(0.8944 0.4472 0)
(0.8944 0.4472 0)
(0.8944 0.4472 0)
(0.8944 0.4472 0)
(0.8944 0.4472 0)
(0.8944 0.4472 0)
(0.8944 0.4472 0)
(0.8944 0.4472 0)
(0.8944 0.4472 0)
(0.8944 0.4472 0)
(0.8944 0.4472 0)
(0.8944 0.4472 0)
(0.8944 0.4472 0)
(0.8944 0.4472 0)
(0.8944 0.4472 0)
(0.8944 0.4472 0)
(0.8944 0.4472 0)
(0.8944 0.4472 0)
(0.8944 0.4472 0)
(0.8944 0.4472 0)
(0.8944 0.4472 0)
(0.8944 0.4472 0)
(0.8944 0.4472 0)
(0.8944 0.4472 0)
(0.8944 0.4472 0)
(0.8944 0.4472 0)
(0.8944 0.4472 0)
(0.8944 0.4472 0)
(0.8944 0.4472 0)
(0.8944 0.4472 0)
(0.8944 0.4472 0)
(0.8944 0.4472 0)
(0.8944 0.4472 0)
(0.8944 0.4472 0)
(0.8944 0.4472 0)
(0.8944 0.4472 0)
(0.8944 0.4472 0)
(0.8944 0.4472 0)
(0.8944 0.4472 0)
(0.8944 0.4472 0)
(0.8944 0.4472 0)
(0.8944 0.4472 0)
(0.8944 0.4472 0)
(0.894399 0.447201 0)
(0.894399 0.447201 0)
(0.894399 0.447202 0)
(0.894399 0.447203 0)
(0.8944 0.447203 0)
(0.894401 0.447204 0)
(0.894404 0.447203 0)
(0.894408 0.447202 0)
(0.894414 0.447198 0)
(0.894422 0.447191 0)
(0.894432 0.447181 0)
(0.894443 0.447167 0)
(0.894453 0.447149 0)
(0.89446 0.44713 0)
(0.894463 0.447112 0)
(0.894458 0.447097 0)
(0.894445 0.447089 0)
(0.894422 0.447094 0)
(0.894391 0.447113 0)
(0.894354 0.447149 0)
(0.894314 0.447202 0)
(0.894275 0.44727 0)
(0.894242 0.447351 0)
(0.894218 0.447437 0)
(0.894207 0.447524 0)
(0.89421 0.447605 0)
(0.894226 0.447674 0)
(0.894254 0.447726 0)
(0.894292 0.447757 0)
(0.894334 0.447766 0)
(0.894378 0.447754 0)
(0.894418 0.447724 0)
(0.894452 0.44768 0)
(0.894478 0.447626 0)
(0.894495 0.447566 0)
(0.894503 0.447504 0)
(0.894503 0.447445 0)
(0.894497 0.447391 0)
(0.894486 0.447344 0)
(0.894473 0.447304 0)
(0.894459 0.447272 0)
(0.894446 0.447247 0)
(0.894434 0.447229 0)
(0.894424 0.447217 0)
(0.894416 0.447208 0)
(0.89441 0.447203 0)
(0.894406 0.4472 0)
(0.894403 0.447199 0)
(0.894401 0.447198 0)
(0.8944 0.447198 0)
(0.8944 0.447199 0)
(0.8944 0.447199 0)
(0.8944 0.447199 0)
(0.8944 0.447199 0)
(0.8944 0.4472 0)
(0.8944 0.4472 0)
(0.8944 0.4472 0)
(0.8944 0.4472 0)
(0.8944 0.4472 0)
(0.8944 0.4472 0)
(0.8944 0.4472 0)
(0.8944 0.4472 0)
(0.8944 0.4472 0)
(0.8944 0.4472 0)
(0.8944 0.4472 0)
(0.8944 0.4472 0)
(0.8944 0.4472 0)
(0.8944 0.4472 0)
(0.8944 0.4472 0)
(0.8944 0.4472 0)
(0.8944 0.4472 0)
(0.8944 0.4472 0)
(0.8944 0.4472 0)
(0.8944 0.4472 0)
(0.8944 0.4472 0)
(0.8944 0.4472 0)
(0.8944 0.4472 0)
(0.8944 0.4472 0)
(0.8944 0.4472 0)
(0.8944 0.4472 0)
(0.8944 0.4472 0)
(0.8944 0.4472 0)
(0.8944 0.4472 0)
(0.8944 0.4472 0)
(0.8944 0.4472 0)
(0.8944 0.4472 0)
(0.8944 0.4472 0)
(0.8944 0.4472 0)
(0.8944 0.4472 0)
(0.8944 0.4472 0)
(0.8944 0.4472 0)
(0.8944 0.4472 0)
(0.8944 0.4472 0)
(0.8944 0.4472 0)
(0.8944 0.4472 0)
(0.8944 0.4472 0)
(0.8944 0.4472 0)
(0.8944 0.4472 0)
(0.8944 0.447201 0)
(0.894399 0.447201 0)
(0.894399 0.447201 0)
(0.894399 0.447202 0)
(0.894399 0.447203 0)
(0.894398 0.447204 0)
(0.894399 0.447206 0)
(0.894401 0.447206 0)
(0.894404 0.447206 0)
(0.89441 0.447204 0)
(0.894418 0.4472 0)
(0.894429 0.447193 0)
(0.894442 0.44718 0)
(0.894455 0.447164 0)
(0.894467 0.447145 0)
(0.894474 0.447126 0)
(0.894474 0.44711 0)
(0.894463 0.447101 0)
(0.89444 0.447106 0)
(0.894404 0.44713 0)
(0.894358 0.447176 0)
(0.894305 0.447245 0)
(0.89425 0.447337 0)
(0.894198 0.447448 0)
(0.894156 0.447572 0)
(0.894129 0.4477 0)
(0.894121 0.447823 0)
(0.894132 0.447932 0)
(0.894162 0.448019 0)
(0.894209 0.448077 0)
(0.894266 0.448103 0)
(0.894329 0.448097 0)
(0.894391 0.44806 0)
(0.894447 0.447999 0)
(0.894493 0.447919 0)
(0.894526 0.447827 0)
(0.894547 0.44773 0)
(0.894555 0.447635 0)
(0.894552 0.447546 0)
(0.894541 0.447466 0)
(0.894524 0.447397 0)
(0.894504 0.447341 0)
(0.894483 0.447296 0)
(0.894464 0.447262 0)
(0.894447 0.447237 0)
(0.894432 0.44722 0)
(0.894421 0.447209 0)
(0.894413 0.447202 0)
(0.894407 0.447199 0)
(0.894404 0.447197 0)
(0.894401 0.447197 0)
(0.8944 0.447197 0)
(0.8944 0.447198 0)
(0.894399 0.447198 0)
(0.894399 0.447199 0)
(0.8944 0.447199 0)
(0.8944 0.447199 0)
(0.8944 0.4472 0)
(0.8944 0.4472 0)
(0.8944 0.4472 0)
(0.8944 0.4472 0)
(0.8944 0.4472 0)
(0.8944 0.4472 0)
(0.8944 0.4472 0)
(0.8944 0.4472 0)
(0.8944 0.4472 0)
(0.8944 0.4472 0)
(0.8944 0.4472 0)
(0.8944 0.4472 0)
(0.8944 0.4472 0)
(0.8944 0.4472 0)
(0.8944 0.4472 0)
(0.8944 0.4472 0)
(0.8944 0.4472 0)
(0.8944 0.4472 0)
(0.8944 0.4472 0)
(0.8944 0.4472 0)
(0.8944 0.4472 0)
(0.8944 0.4472 0)
(0.8944 0.4472 0)
(0.8944 0.4472 0)
(0.8944 0.4472 0)
(0.8944 0.4472 0)
(0.8944 0.4472 0)
(0.8944 0.4472 0)
(0.8944 0.4472 0)
(0.8944 0.4472 0)
(0.8944 0.4472 0)
(0.8944 0.4472 0)
(0.8944 0.4472 0)
(0.8944 0.4472 0)
(0.8944 0.4472 0)
(0.8944 0.4472 0)
(0.8944 0.4472 0)
(0.8944 0.4472 0)
(0.8944 0.4472 0)
(0.8944 0.4472 0)
(0.8944 0.4472 0)
(0.8944 0.4472 0)
(0.8944 0.4472 0)
(0.894399 0.447201 0)
(0.894399 0.447201 0)
(0.894399 0.447202 0)
(0.894398 0.447203 0)
(0.894398 0.447205 0)
(0.894397 0.447206 0)
(0.894398 0.447208 0)
(0.8944 0.44721 0)
(0.894405 0.447211 0)
(0.894412 0.447209 0)
(0.894423 0.447205 0)
(0.894437 0.447196 0)
(0.894453 0.447183 0)
(0.894469 0.447167 0)
(0.894481 0.447148 0)
(0.894486 0.447133 0)
(0.894478 0.447126 0)
(0.894456 0.447134 0)
(0.894417 0.447165 0)
(0.894361 0.447225 0)
(0.894293 0.447316 0)
(0.894217 0.447441 0)
(0.894141 0.447595 0)
(0.894074 0.447772 0)
(0.894023 0.447962 0)
(0.893995 0.44815 0)
(0.893995 0.448324 0)
(0.894023 0.448471 0)
(0.894077 0.44858 0)
(0.894152 0.448642 0)
(0.894241 0.448654 0)
(0.894334 0.448617 0)
(0.894422 0.448536 0)
(0.8945 0.448421 0)
(0.894561 0.448282 0)
(0.894604 0.44813 0)
(0.894627 0.447976 0)
(0.894633 0.447827 0)
(0.894624 0.447692 0)
(0.894604 0.447573 0)
(0.894577 0.447472 0)
(0.894547 0.447391 0)
(0.894517 0.447328 0)
(0.894489 0.447281 0)
(0.894464 0.447247 0)
(0.894444 0.447224 0)
(0.894429 0.447209 0)
(0.894417 0.447201 0)
(0.894409 0.447196 0)
(0.894404 0.447195 0)
(0.894401 0.447195 0)
(0.8944 0.447195 0)
(0.894399 0.447196 0)
(0.894399 0.447197 0)
(0.894399 0.447198 0)
(0.894399 0.447199 0)
(0.894399 0.447199 0)
(0.8944 0.447199 0)
(0.8944 0.4472 0)
(0.8944 0.4472 0)
(0.8944 0.4472 0)
(0.8944 0.4472 0)
(0.8944 0.4472 0)
(0.8944 0.4472 0)
(0.8944 0.4472 0)
(0.8944 0.4472 0)
(0.8944 0.4472 0)
(0.8944 0.4472 0)
(0.8944 0.4472 0)
(0.8944 0.4472 0)
(0.8944 0.4472 0)
(0.8944 0.4472 0)
(0.8944 0.4472 0)
(0.8944 0.4472 0)
(0.8944 0.4472 0)
(0.8944 0.4472 0)
(0.8944 0.4472 0)
(0.8944 0.4472 0)
(0.8944 0.4472 0)
(0.8944 0.4472 0)
(0.8944 0.4472 0)
(0.8944 0.4472 0)
(0.8944 0.4472 0)
(0.8944 0.4472 0)
(0.8944 0.4472 0)
(0.8944 0.4472 0)
(0.8944 0.4472 0)
(0.8944 0.4472 0)
(0.8944 0.4472 0)
(0.8944 0.4472 0)
(0.8944 0.4472 0)
(0.8944 0.4472 0)
(0.8944 0.4472 0)
(0.8944 0.4472 0)
(0.8944 0.4472 0)
(0.8944 0.4472 0)
(0.8944 0.4472 0)
(0.8944 0.4472 0)
(0.8944 0.4472 0)
(0.894399 0.447201 0)
(0.894399 0.447201 0)
(0.894398 0.447202 0)
(0.894398 0.447203 0)
(0.894397 0.447205 0)
(0.894396 0.447207 0)
(0.894396 0.44721 0)
(0.894396 0.447213 0)
(0.894399 0.447216 0)
(0.894405 0.447217 0)
(0.894414 0.447217 0)
(0.894428 0.447213 0)
(0.894445 0.447204 0)
(0.894464 0.447192 0)
(0.894481 0.447178 0)
(0.89449 0.447166 0)
(0.894488 0.447162 0)
(0.894468 0.447176 0)
(0.894426 0.447217 0)
(0.89436 0.447295 0)
(0.894274 0.447416 0)
(0.894172 0.447584 0)
(0.894065 0.447796 0)
(0.893961 0.448047 0)
(0.893875 0.448323 0)
(0.893815 0.448608 0)
(0.893792 0.448883 0)
(0.893808 0.449129 0)
(0.893866 0.449327 0)
(0.893959 0.449461 0)
(0.89408 0.449523 0)
(0.894216 0.449508 0)
(0.894354 0.44942 0)
(0.894483 0.449269 0)
(0.894591 0.449068 0)
(0.894673 0.448835 0)
(0.894726 0.448589 0)
(0.894751 0.448344 0)
(0.894751 0.448113 0)
(0.89473 0.447906 0)
(0.894696 0.447728 0)
(0.894654 0.44758 0)
(0.894609 0.447463 0)
(0.894564 0.447373 0)
(0.894523 0.447306 0)
(0.894488 0.447259 0)
(0.89446 0.447228 0)
(0.894438 0.447209 0)
(0.894423 0.447198 0)
(0.894412 0.447193 0)
(0.894405 0.447191 0)
(0.894401 0.447191 0)
(0.894399 0.447193 0)
(0.894398 0.447194 0)
(0.894398 0.447196 0)
(0.894398 0.447197 0)
(0.894399 0.447198 0)
(0.894399 0.447199 0)
(0.894399 0.447199 0)
(0.8944 0.4472 0)
(0.8944 0.4472 0)
(0.8944 0.4472 0)
(0.8944 0.4472 0)
(0.8944 0.4472 0)
(0.8944 0.4472 0)
(0.8944 0.4472 0)
(0.8944 0.4472 0)
(0.8944 0.4472 0)
(0.8944 0.4472 0)
(0.8944 0.4472 0)
(0.8944 0.4472 0)
(0.8944 0.4472 0)
(0.8944 0.4472 0)
(0.8944 0.4472 0)
(0.8944 0.4472 0)
(0.8944 0.4472 0)
(0.8944 0.4472 0)
(0.8944 0.4472 0)
(0.8944 0.4472 0)
(0.8944 0.4472 0)
(0.8944 0.4472 0)
(0.8944 0.4472 0)
(0.8944 0.4472 0)
(0.8944 0.4472 0)
(0.8944 0.4472 0)
(0.8944 0.4472 0)
(0.8944 0.4472 0)
(0.8944 0.4472 0)
(0.8944 0.4472 0)
(0.8944 0.4472 0)
(0.8944 0.4472 0)
(0.8944 0.4472 0)
(0.8944 0.4472 0)
(0.8944 0.4472 0)
(0.8944 0.4472 0)
(0.8944 0.4472 0)
(0.8944 0.4472 0)
(0.8944 0.4472 0)
(0.8944 0.4472 0)
(0.8944 0.447201 0)
(0.894399 0.447201 0)
(0.894398 0.447201 0)
(0.894398 0.447203 0)
(0.894396 0.447204 0)
(0.894395 0.447207 0)
(0.894393 0.44721 0)
(0.894393 0.447214 0)
(0.894394 0.447219 0)
(0.894397 0.447224 0)
(0.894404 0.447227 0)
(0.894416 0.447228 0)
(0.894432 0.447226 0)
(0.894452 0.447219 0)
(0.894472 0.447211 0)
(0.894487 0.447205 0)
(0.894489 0.447207 0)
(0.894472 0.447229 0)
(0.894428 0.447282 0)
(0.894353 0.447381 0)
(0.894246 0.447538 0)
(0.894113 0.447759 0)
(0.893963 0.448046 0)
(0.893811 0.448393 0)
(0.893672 0.448786 0)
(0.893562 0.449206 0)
(0.893495 0.449628 0)
(0.893483 0.450025 0)
(0.893531 0.450369 0)
(0.893636 0.450634 0)
(0.89379 0.450802 0)
(0.893981 0.450858 0)
(0.89419 0.4508 0)
(0.894397 0.450633 0)
(0.894585 0.450373 0)
(0.894739 0.450042 0)
(0.89485 0.449668 0)
(0.894916 0.449277 0)
(0.894941 0.448894 0)
(0.894929 0.448539 0)
(0.894889 0.448224 0)
(0.894832 0.447957 0)
(0.894765 0.447738 0)
(0.894696 0.447566 0)
(0.89463 0.447437 0)
(0.894571 0.447342 0)
(0.894521 0.447277 0)
(0.894481 0.447234 0)
(0.894451 0.447208 0)
(0.894429 0.447194 0)
(0.894415 0.447188 0)
(0.894405 0.447186 0)
(0.8944 0.447187 0)
(0.894398 0.447189 0)
(0.894397 0.447191 0)
(0.894397 0.447194 0)
(0.894397 0.447195 0)
(0.894398 0.447197 0)
(0.894399 0.447198 0)
(0.894399 0.447199 0)
(0.894399 0.447199 0)
(0.8944 0.4472 0)
(0.8944 0.4472 0)
(0.8944 0.4472 0)
(0.8944 0.4472 0)
(0.8944 0.4472 0)
(0.8944 0.4472 0)
(0.8944 0.4472 0)
(0.8944 0.4472 0)
(0.8944 0.4472 0)
(0.8944 0.4472 0)
(0.8944 0.4472 0)
(0.8944 0.4472 0)
(0.8944 0.4472 0)
(0.8944 0.4472 0)
(0.8944 0.4472 0)
(0.8944 0.4472 0)
(0.8944 0.4472 0)
(0.8944 0.4472 0)
(0.8944 0.4472 0)
(0.8944 0.4472 0)
(0.8944 0.4472 0)
(0.8944 0.4472 0)
(0.8944 0.4472 0)
(0.8944 0.4472 0)
(0.8944 0.4472 0)
(0.8944 0.4472 0)
(0.8944 0.4472 0)
(0.8944 0.4472 0)
(0.8944 0.4472 0)
(0.8944 0.4472 0)
(0.8944 0.4472 0)
(0.8944 0.4472 0)
(0.8944 0.4472 0)
(0.8944 0.4472 0)
(0.8944 0.4472 0)
(0.8944 0.4472 0)
(0.8944 0.4472 0)
(0.8944 0.4472 0)
(0.894399 0.4472 0)
(0.894399 0.447201 0)
(0.894399 0.447201 0)
(0.894398 0.447202 0)
(0.894396 0.447204 0)
(0.894394 0.447206 0)
(0.894393 0.44721 0)
(0.89439 0.447214 0)
(0.894389 0.44722 0)
(0.894389 0.447228 0)
(0.894393 0.447234 0)
(0.894401 0.447241 0)
(0.894416 0.447245 0)
(0.894434 0.447246 0)
(0.894455 0.447245 0)
(0.894473 0.447246 0)
(0.894481 0.447256 0)
(0.894467 0.447287 0)
(0.894422 0.447355 0)
(0.894337 0.447477 0)
(0.894208 0.447672 0)
(0.894038 0.447953 0)
(0.893836 0.448327 0)
(0.893617 0.448792 0)
(0.893403 0.449334 0)
(0.893216 0.449931 0)
(0.893078 0.450552 0)
(0.893007 0.451163 0)
(0.893017 0.451724 0)
(0.893113 0.452198 0)
(0.893292 0.452553 0)
(0.893539 0.452762 0)
(0.893835 0.452809 0)
(0.894153 0.452689 0)
(0.894464 0.45241 0)
(0.894741 0.451996 0)
(0.894963 0.451479 0)
(0.895119 0.450899 0)
(0.895204 0.450297 0)
(0.895226 0.449711 0)
(0.895195 0.449171 0)
(0.895125 0.448696 0)
(0.895031 0.448296 0)
(0.894927 0.447972 0)
(0.894821 0.44772 0)
(0.894723 0.447531 0)
(0.894638 0.447396 0)
(0.894566 0.447304 0)
(0.89451 0.447244 0)
(0.894468 0.447208 0)
(0.894438 0.447189 0)
(0.894418 0.44718 0)
(0.894406 0.447179 0)
(0.894399 0.44718 0)
(0.894396 0.447184 0)
(0.894395 0.447187 0)
(0.894395 0.447191 0)
(0.894396 0.447193 0)
(0.894397 0.447196 0)
(0.894398 0.447197 0)
(0.894398 0.447198 0)
(0.894399 0.447199 0)
(0.894399 0.447199 0)
(0.8944 0.4472 0)
(0.8944 0.4472 0)
(0.8944 0.4472 0)
(0.8944 0.4472 0)
(0.8944 0.4472 0)
(0.8944 0.4472 0)
(0.8944 0.4472 0)
(0.8944 0.4472 0)
(0.8944 0.4472 0)
(0.8944 0.4472 0)
(0.8944 0.4472 0)
(0.8944 0.4472 0)
(0.8944 0.4472 0)
(0.8944 0.4472 0)
(0.8944 0.4472 0)
(0.8944 0.4472 0)
(0.8944 0.4472 0)
(0.8944 0.4472 0)
(0.8944 0.4472 0)
(0.8944 0.4472 0)
(0.8944 0.4472 0)
(0.8944 0.4472 0)
(0.8944 0.4472 0)
(0.8944 0.4472 0)
(0.8944 0.4472 0)
(0.8944 0.4472 0)
(0.8944 0.4472 0)
(0.8944 0.4472 0)
(0.8944 0.4472 0)
(0.8944 0.4472 0)
(0.8944 0.4472 0)
(0.8944 0.4472 0)
(0.8944 0.4472 0)
(0.8944 0.4472 0)
(0.8944 0.4472 0)
(0.8944 0.4472 0)
(0.8944 0.4472 0)
(0.894399 0.4472 0)
(0.894399 0.447201 0)
(0.894398 0.447202 0)
(0.894396 0.447203 0)
(0.894395 0.447205 0)
(0.894392 0.447209 0)
(0.894389 0.447213 0)
(0.894385 0.44722 0)
(0.894383 0.447229 0)
(0.894383 0.447239 0)
(0.894387 0.447249 0)
(0.894396 0.44726 0)
(0.894412 0.447268 0)
(0.894431 0.447276 0)
(0.894451 0.447287 0)
(0.894461 0.447306 0)
(0.894451 0.447346 0)
(0.894406 0.447427 0)
(0.894313 0.447571 0)
(0.894161 0.447804 0)
(0.893948 0.448148 0)
(0.893683 0.448617 0)
(0.893381 0.449216 0)
(0.893067 0.449933 0)
(0.892768 0.450745 0)
(0.892518 0.451617 0)
(0.892345 0.452505 0)
(0.892273 0.453361 0)
(0.892318 0.454134 0)
(0.892486 0.454776 0)
(0.89277 0.455247 0)
(0.893151 0.455511 0)
(0.893599 0.455548 0)
(0.894077 0.455349 0)
(0.894543 0.454927 0)
(0.894955 0.454308 0)
(0.895283 0.453539 0)
(0.895507 0.452676 0)
(0.895625 0.45178 0)
(0.895645 0.450906 0)
(0.895586 0.450099 0)
(0.895471 0.449391 0)
(0.895323 0.448797 0)
(0.895161 0.448318 0)
(0.895003 0.447948 0)
(0.894857 0.447673 0)
(0.894732 0.447478 0)
(0.89463 0.447345 0)
(0.89455 0.44726 0)
(0.89449 0.44721 0)
(0.894449 0.447183 0)
(0.894422 0.447171 0)
(0.894405 0.447169 0)
(0.894396 0.447172 0)
(0.894392 0.447177 0)
(0.894392 0.447182 0)
(0.894392 0.447187 0)
(0.894394 0.447191 0)
(0.894395 0.447194 0)
(0.894397 0.447196 0)
(0.894398 0.447197 0)
(0.894398 0.447198 0)
(0.894399 0.447199 0)
(0.894399 0.447199 0)
(0.8944 0.4472 0)
(0.8944 0.4472 0)
(0.8944 0.4472 0)
(0.8944 0.4472 0)
(0.8944 0.4472 0)
(0.8944 0.4472 0)
(0.8944 0.4472 0)
(0.8944 0.4472 0)
(0.8944 0.4472 0)
(0.8944 0.4472 0)
(0.8944 0.4472 0)
(0.8944 0.4472 0)
(0.8944 0.4472 0)
(0.8944 0.4472 0)
(0.8944 0.4472 0)
(0.8944 0.4472 0)
(0.8944 0.4472 0)
(0.8944 0.4472 0)
(0.8944 0.4472 0)
(0.8944 0.4472 0)
(0.8944 0.4472 0)
(0.8944 0.4472 0)
(0.8944 0.4472 0)
(0.8944 0.4472 0)
(0.8944 0.4472 0)
(0.8944 0.4472 0)
(0.8944 0.4472 0)
(0.8944 0.4472 0)
(0.8944 0.4472 0)
(0.8944 0.4472 0)
(0.8944 0.4472 0)
(0.8944 0.4472 0)
(0.8944 0.4472 0)
(0.8944 0.4472 0)
(0.8944 0.4472 0)
(0.894399 0.4472 0)
(0.894399 0.447201 0)
(0.894398 0.447201 0)
(0.894397 0.447202 0)
(0.894395 0.447204 0)
(0.894392 0.447207 0)
(0.894389 0.447212 0)
(0.894383 0.447219 0)
(0.894379 0.447228 0)
(0.894375 0.44724 0)
(0.894374 0.447254 0)
(0.894378 0.447269 0)
(0.894387 0.447285 0)
(0.894402 0.447302 0)
(0.894419 0.447321 0)
(0.894431 0.44735 0)
(0.894423 0.4474 0)
(0.894381 0.447493 0)
(0.894281 0.447655 0)
(0.894108 0.44792 0)
(0.893852 0.448321 0)
(0.893515 0.448885 0)
(0.893112 0.449624 0)
(0.892669 0.450534 0)
(0.892222 0.45159 0)
(0.891812 0.452755 0)
(0.891479 0.453977 0)
(0.891261 0.455196 0)
(0.891189 0.456351 0)
(0.891282 0.45738 0)
(0.891545 0.458225 0)
(0.891971 0.458837 0)
(0.892535 0.459175 0)
(0.893197 0.45921 0)
(0.893903 0.458929 0)
(0.894594 0.458341 0)
(0.89521 0.457477 0)
(0.895701 0.456392 0)
(0.896038 0.455164 0)
(0.896214 0.453876 0)
(0.896241 0.45261 0)
(0.896148 0.451435 0)
(0.89597 0.4504 0)
(0.895744 0.449529 0)
(0.8955 0.448828 0)
(0.895264 0.448287 0)
(0.895049 0.447886 0)
(0.894867 0.447603 0)
(0.894719 0.447411 0)
(0.894606 0.447289 0)
(0.894522 0.447216 0)
(0.894465 0.447178 0)
(0.894427 0.447161 0)
(0.894405 0.447158 0)
(0.894393 0.447161 0)
(0.894388 0.447168 0)
(0.894387 0.447175 0)
(0.894388 0.447182 0)
(0.894391 0.447187 0)
(0.894393 0.447191 0)
(0.894395 0.447194 0)
(0.894397 0.447196 0)
(0.894398 0.447198 0)
(0.894399 0.447199 0)
(0.894399 0.447199 0)
(0.8944 0.4472 0)
(0.8944 0.4472 0)
(0.8944 0.4472 0)
(0.8944 0.4472 0)
(0.8944 0.4472 0)
(0.8944 0.4472 0)
(0.8944 0.4472 0)
(0.8944 0.4472 0)
(0.8944 0.4472 0)
(0.8944 0.4472 0)
(0.8944 0.4472 0)
(0.8944 0.4472 0)
(0.8944 0.4472 0)
(0.8944 0.4472 0)
(0.8944 0.4472 0)
(0.8944 0.4472 0)
(0.8944 0.4472 0)
(0.8944 0.4472 0)
(0.8944 0.4472 0)
(0.8944 0.4472 0)
(0.8944 0.4472 0)
(0.8944 0.4472 0)
(0.8944 0.4472 0)
(0.8944 0.4472 0)
(0.8944 0.4472 0)
(0.8944 0.4472 0)
(0.8944 0.4472 0)
(0.8944 0.4472 0)
(0.8944 0.4472 0)
(0.8944 0.4472 0)
(0.8944 0.4472 0)
(0.8944 0.4472 0)
(0.8944 0.4472 0)
(0.8944 0.4472 0)
(0.8944 0.4472 0)
(0.894399 0.447201 0)
(0.894398 0.447201 0)
(0.894398 0.447202 0)
(0.894396 0.447203 0)
(0.894393 0.447206 0)
(0.894389 0.44721 0)
(0.894384 0.447216 0)
(0.894376 0.447225 0)
(0.89437 0.447238 0)
(0.894364 0.447254 0)
(0.894361 0.447273 0)
(0.894363 0.447294 0)
(0.894372 0.447319 0)
(0.894383 0.447347 0)
(0.894394 0.447385 0)
(0.894387 0.447444 0)
(0.894346 0.447545 0)
(0.894244 0.44772 0)
(0.894055 0.448008 0)
(0.893758 0.448454 0)
(0.893347 0.4491 0)
(0.89283 0.449973 0)
(0.892233 0.451077 0)
(0.891599 0.452392 0)
(0.890976 0.453876 0)
(0.890418 0.45547 0)
(0.889977 0.457101 0)
(0.889698 0.458695 0)
(0.889619 0.460181 0)
(0.889765 0.461491 0)
(0.890144 0.462561 0)
(0.890747 0.463338 0)
(0.891545 0.463774 0)
(0.892489 0.463832 0)
(0.893509 0.463488 0)
(0.894522 0.462741 0)
(0.89544 0.461617 0)
(0.896187 0.460177 0)
(0.896711 0.458514 0)
(0.896996 0.45674 0)
(0.897055 0.454971 0)
(0.89693 0.45331 0)
(0.896674 0.451832 0)
(0.896343 0.45058 0)
(0.895985 0.449567 0)
(0.895637 0.448784 0)
(0.895325 0.448204 0)
(0.89506 0.447793 0)
(0.894848 0.447516 0)
(0.894686 0.447338 0)
(0.894568 0.447233 0)
(0.894487 0.447176 0)
(0.894435 0.447151 0)
(0.894404 0.447145 0)
(0.894388 0.447149 0)
(0.894382 0.447157 0)
(0.894381 0.447167 0)
(0.894383 0.447175 0)
(0.894386 0.447183 0)
(0.89439 0.447188 0)
(0.894393 0.447192 0)
(0.894395 0.447195 0)
(0.894397 0.447197 0)
(0.894398 0.447198 0)
(0.894399 0.447199 0)
(0.894399 0.447199 0)
(0.8944 0.4472 0)
(0.8944 0.4472 0)
(0.8944 0.4472 0)
(0.8944 0.4472 0)
(0.8944 0.4472 0)
(0.8944 0.4472 0)
(0.8944 0.4472 0)
(0.8944 0.4472 0)
(0.8944 0.4472 0)
(0.8944 0.4472 0)
(0.8944 0.4472 0)
(0.8944 0.4472 0)
(0.8944 0.4472 0)
(0.8944 0.4472 0)
(0.8944 0.4472 0)
(0.8944 0.4472 0)
(0.8944 0.4472 0)
(0.8944 0.4472 0)
(0.8944 0.4472 0)
(0.8944 0.4472 0)
(0.8944 0.4472 0)
(0.8944 0.4472 0)
(0.8944 0.4472 0)
(0.8944 0.4472 0)
(0.8944 0.4472 0)
(0.8944 0.4472 0)
(0.8944 0.4472 0)
(0.8944 0.4472 0)
(0.8944 0.4472 0)
(0.8944 0.4472 0)
(0.8944 0.4472 0)
(0.8944 0.4472 0)
(0.8944 0.4472 0)
(0.894399 0.4472 0)
(0.894399 0.447201 0)
(0.894398 0.447201 0)
(0.894397 0.447202 0)
(0.894394 0.447204 0)
(0.89439 0.447207 0)
(0.894384 0.447213 0)
(0.894377 0.447221 0)
(0.894368 0.447234 0)
(0.894358 0.44725 0)
(0.894349 0.447271 0)
(0.894343 0.447297 0)
(0.894343 0.447327 0)
(0.894347 0.447363 0)
(0.894351 0.447409 0)
(0.894344 0.447475 0)
(0.894304 0.447581 0)
(0.894204 0.44776 0)
(0.894005 0.448059 0)
(0.893677 0.448532 0)
(0.893196 0.449238 0)
(0.892561 0.450222 0)
(0.891793 0.451505 0)
(0.890937 0.453074 0)
(0.890051 0.454883 0)
(0.889203 0.456861 0)
(0.888456 0.458921 0)
(0.887872 0.460976 0)
(0.887504 0.462941 0)
(0.887396 0.464743 0)