/*--------------------------------*- C++ -*----------------------------------*\
  =========                 |
  \\      /  F ield         | OpenFOAM: The Open Source CFD Toolbox
   \\    /   O peration     | Website:  https://openfoam.org
    \\  /    A nd           | Version:  6
     \\/     M anipulation  |
\*---------------------------------------------------------------------------*/
FoamFile
{
    version     2.0;
    format      ascii;
    class       volScalarField;
    location    "3.28";
    object      k;
}
// * * * * * * * * * * * * * * * * * * * * * * * * * * * * * * * * * * * * * //

dimensions      [0 2 -2 0 0 0 0];

internalField   nonuniform List<scalar> 
4214
(
0.102249
0.0444169
0.0245745
0.0178944
0.0157842
0.0152863
0.0154758
0.0162813
0.0183428
0.0236948
0.0388729
0.0915917
0.332479
1.30025
3.57099
6.33893
7.60015
6.46499
4.40154
3.16711
2.74368
2.83379
3.15407
3.47015
3.62275
3.49232
3.02864
2.35988
1.60957
0.936452
0.455655
0.189515
0.0745863
0.0339575
0.021331
0.0176769
0.0172743
0.0193867
0.026926
0.0494314
0.114514
0.0249239
0.018486
0.016132
0.015359
0.0152113
0.0153671
0.0158089
0.0167867
0.0190755
0.0247217
0.0397905
0.087842
0.292816
1.12911
3.23815
6.0626
7.80433
7.35786
5.52304
3.9385
3.24094
3.1763
3.43846
3.80963
4.08005
4.07743
3.68272
2.96001
2.07709
1.24262
0.619635
0.259153
0.0986103
0.0412894
0.0235534
0.0181842
0.0166325
0.016321
0.0169672
0.0193671
0.0259742
0.0163651
0.0155637
0.0152985
0.0152885
0.015427
0.0157115
0.0162575
0.017389
0.0199457
0.0259694
0.0410509
0.0846283
0.252585
0.93174
2.7718
5.5386
7.66385
7.85337
6.30931
4.51593
3.58175
3.43196
3.74443
4.23314
4.66012
4.80445
4.48664
3.71248
2.67408
1.6401
0.837165
0.35442
0.132096
0.0514589
0.0266784
0.0192085
0.0170147
0.0162315
0.0159783
0.0160753
0.0167039
0.0155887
0.0154475
0.0154658
0.0155813
0.0157882
0.0161361
0.0167828
0.0181019
0.0210045
0.0275477
0.0429083
0.0829025
0.218257
0.743343
2.25896
4.82604
7.23258
8.10522
7.15233
5.34824
4.17363
3.7947
4.02548
4.59095
5.20026
5.54072
5.38177
4.61465
3.42384
2.15606
1.12534
0.483482
0.17841
0.0654839
0.0309563
0.0205911
0.0176491
0.0165971
0.0161681
0.0159708
0.0159608
0.0156485
0.0156864
0.0157893
0.0159525
0.0162031
0.0166168
0.0173908
0.0189561
0.022322
0.0295958
0.0456403
0.0832808
0.192629
0.58218
1.75696
3.99597
6.51195
7.9927
7.78042
6.32867
4.9346
4.25896
4.31725
4.86491
5.62088
6.22484
6.31279
5.64786
4.3448
2.81218
1.50337
0.655395
0.241542
0.0846146
0.0367613
0.022378
0.0184387
0.0170668
0.0165294
0.016243
0.0160843
0.0159501
0.0160422
0.016179
0.0163722
0.0166673
0.0171639
0.0181088
0.020007
0.024009
0.0323283
0.049663
0.0865718
0.177762
0.461145
1.31966
3.14431
5.56631
7.47775
8.00696
7.14753
5.74812
4.84217
4.66173
5.11991
5.94414
6.7887
7.19953
6.76114
5.43391
3.63503
1.99361
0.881986
0.326274
0.110379
0.0446074
0.0246877
0.0194123
0.0176091
0.0169556
0.0166205
0.0164214
0.0163361
0.0164532
0.016612
0.0168349
0.0171869
0.0177959
0.0189781
0.0213364
0.02623
0.0360525
0.0555344
0.0936668
0.174538
0.384428
0.98587
2.37292
4.51662
6.62493
7.7669
7.59376
6.49379
5.49333
5.07801
5.38143
6.21495
7.23055
7.97258
7.88553
6.65415
4.63783
2.6117
1.17758
0.438139
0.144474
0.0551228
0.0276629
0.0206224
0.0182257
0.0174219
0.0170375
0.0168235
0.0167752
0.0169061
0.0170861
0.0173463
0.0177774
0.0185442
0.0200648
0.0230713
0.0292368
0.0412255
0.0640509
0.105738
0.183541
0.349567
0.768219
1.76225
3.50977
5.5732
7.11524
7.5799
7.01703
6.10131
5.53792
5.6646
6.45205
7.58966
8.60964
8.93384
7.93863
5.79921
3.38154
1.55431
0.582895
0.188593
0.0690306
0.0314614
0.0221413
0.0189325
0.0179269
0.0174749
0.0172495
0.0172539
0.0173989
0.0176057
0.0179177
0.0184641
0.019458
0.0214734
0.025409
0.0334193
0.0485364
0.0763854
0.124473
0.205872
0.351487
0.657367
1.34881
2.6736
4.49804
6.19808
7.14508
7.13515
6.50251
5.96046
5.95777
6.6696
7.88706
9.14223
9.84054
9.21533
7.06365
4.29326
2.02081
0.765846
0.244131
0.0871026
0.0362356
0.0240592
0.0197536
0.0184794
0.0179281
0.0176842
0.0177756
0.0179363
0.0181808
0.0185684
0.0192892
0.020616
0.0233729
0.0286585
0.0393892
0.0590287
0.0942786
0.152336
0.243723
0.386491
0.63321
1.12367
2.07994
3.56059
5.20127
6.42627
6.88266
6.64704
6.2534
6.22078
6.872
8.14116
9.59466
10.6031
10.4072
8.36246
5.30773
2.57338
0.992471
0.311648
0.11008
0.0421015
0.026482
0.0207189
0.0190965
0.0184003
0.0181235
0.0183422
0.0185253
0.0188278
0.0193293
0.020322
0.0221438
0.0260395
0.0333046
0.0481137
0.0742817
0.120317
0.192884
0.300812
0.453686
0.677843
1.05197
1.73589
2.8644
4.29742
5.60291
6.37821
6.53132
6.374
6.41018
7.05198
8.37187
9.9985
11.269
11.4325
9.6195
6.36088
3.1856
1.25853
0.390565
0.138574
0.0490957
0.029527
0.0218606
0.0198026
0.0189007
0.0185727
0.0189594
0.0191775
0.0195759
0.0202513
0.0216812
0.0242438
0.0299326
0.0401024
0.0611239
0.0966443
0.158304
0.251109
0.382752
0.555749
0.780505
1.09569
1.60426
2.43908
3.6033
4.83845
5.77632
6.21642
6.31879
6.4982
7.198
8.59456
10.3839
11.8804
12.2834
10.7488
7.36689
3.80889
1.55544
0.477756
0.172956
0.0571225
0.0333187
0.0232107
0.0206321
0.0194423
0.0190429
0.0196415
0.0199147
0.0204776
0.0214191
0.0235749
0.0272382
0.0358204
0.0502004
0.080832
0.129482
0.213711
0.333674
0.497251
0.69898
0.938129
1.22981
1.63585
2.25891
3.17024
4.24954
5.20915
5.82944
6.15252
6.50346
7.31644
8.8276
10.7789
12.4592
13.0234
11.6576
8.23679
4.37425
1.86393
0.56687
0.213268
0.0659122
0.0379934
0.024796
0.021633
0.0200423
0.0195496
0.0204163
0.0207733
0.0216305
0.0229711
0.0263743
0.0316259
0.045007
0.0652745
0.111028
0.177333
0.294237
0.448883
0.654334
0.892778
1.1554
1.44281
1.79342
2.28596
2.98112
3.86509
4.76392
5.4676
5.95179
6.47279
7.43864
9.10085
11.2124
13.0274
13.6602
12.3052
8.89895
4.80529
2.15866
0.647947
0.25932
0.0749809
0.0437171
0.0266312
0.0228753
0.0207218
0.0201157
0.021332
0.0218119
0.0232233
0.0251228
0.0307561
0.0381302
0.0597419
0.0876031
0.157784
0.245941
0.411235
0.606969
0.868597
1.15153
1.44552
1.73933
2.05352
2.43043
2.96002
3.67254
4.47204
5.19338
5.7871
6.46985
7.61599
9.45286
11.7071
13.5893
14.1718
12.6605
9.31386
5.03469
2.42173
0.708147
0.311208
0.0835964
0.0507388
0.0287074
0.0244673
0.0215037
0.0207764
0.0224829
0.0231147
0.0256382
0.028173
0.0379855
0.0476562
0.0839703
0.119783
0.231002
0.341437
0.582333
0.819557
1.16276
1.49434
1.82976
2.1322
2.41132
2.70044
3.09753
3.65243
4.3356
5.03962
5.72384
6.55399
7.89825
9.91256
12.2487
14.1249
14.4938
12.679
9.48277
5.01176
2.65881
0.734181
0.370455
0.0907258
0.0595147
0.0309615
0.0265945
0.0224044
0.0215945
0.0240957
0.0247765
0.0296722
0.0324035
0.0504993
0.0609277
0.124796
0.163583
0.347654
0.467793
0.837455
1.09685
1.57457
1.93871
2.3324
2.63104
2.87206
3.06878
3.37
3.76797
4.33405
5.0041
5.74536
6.73397
8.25346
10.4938
12.7215
14.5773
14.4643
12.303
9.49225
4.67571
2.91984
0.710716
0.441771
0.0947353
0.0709723
0.0331831
0.0296128
0.0234075
0.0226967
0.0215124
0.0208963
0.0203267
0.0198037
0.0193188
0.0188605
0.0184179
0.017981
0.0175426
0.0171031
0.0166756
0.0162902
0.0160264
0.0162138
0.01838
0.0432317
0.301483
0.0214579
0.0208625
0.0203385
0.0198639
0.0194216
0.0189987
0.0185854
0.0181742
0.0177609
0.0173489
0.0169509
0.0165954
0.01637
0.0166125
0.0188952
0.0434076
0.311513
0.0213704
0.0208769
0.0204205
0.0199919
0.0195822
0.019184
0.0187912
0.0183992
0.018007
0.0176196
0.0172488
0.0169245
0.0167431
0.0170575
0.0195265
0.044193
0.313806
0.0214629
0.0210147
0.0205876
0.0201806
0.0197882
0.0194048
0.0190261
0.0186496
0.0182763
0.0179117
0.0175672
0.0172754
0.0171434
0.0175478
0.0202531
0.0452913
0.314948
0.021649
0.0212074
0.0207975
0.0204062
0.0200267
0.0196545
0.0192874
0.018925
0.0185696
0.0182267
0.0179079
0.0176508
0.0175745
0.0180903
0.0210972
0.0467821
0.316059
0.0218044
0.0214218
0.0210385
0.0206621
0.0202929
0.01993
0.0195736
0.0192252
0.0188874
0.0185655
0.0182727
0.0180527
0.0180397
0.0186897
0.0220636
0.0486094
0.318026
0.0221093
0.0216981
0.021315
0.0209453
0.0205839
0.02023
0.0198851
0.0195512
0.0192312
0.0189302
0.0186643
0.0184847
0.0185439
0.0193513
0.0231389
0.0507441
0.320637
0.0223024
0.0219596
0.0216042
0.0212486
0.0208973
0.0205543
0.0202227
0.0199048
0.0196032
0.0193235
0.019086
0.0189506
0.0190926
0.0200807
0.0243347
0.0532334
0.3238
0.0226756
0.0222886
0.0219272
0.0215765
0.0212346
0.0209043
0.0205883
0.0202881
0.0200058
0.0197483
0.0195415
0.0194552
0.0196918
0.0208852
0.0256688
0.0560943
0.327398
0.0229005
0.0225891
0.0222568
0.0219222
0.0215952
0.0212817
0.0209843
0.0207034
0.0204415
0.0202075
0.0200346
0.0200032
0.0203475
0.0217734
0.0271521
0.0593015
0.331193
0.0233251
0.0229606
0.0226208
0.0222945
0.0219834
0.0216897
0.021413
0.0211528
0.0209126
0.0207042
0.0205693
0.0205987
0.0210658
0.0227519
0.028789
0.0628102
0.335073
0.0235829
0.0232995
0.0229922
0.0226888
0.0224008
0.0221307
0.0218768
0.0216385
0.0214215
0.0212411
0.021149
0.0212462
0.0218523
0.0238255
0.0305762
0.0665398
0.338896
0.0240518
0.0237107
0.0234014
0.0231159
0.0228527
0.0226078
0.0223778
0.0221625
0.0219704
0.0218211
0.0217769
0.0219497
0.022711
0.0249969
0.0325015
0.0703928
0.342521
0.0243467
0.0240934
0.0238255
0.0235732
0.0233403
0.0231228
0.0229178
0.0227269
0.0225618
0.0224474
0.0224562
0.0227147
0.0236474
0.0262663
0.0345517
0.0742737
0.345805
0.0248548
0.0245498
0.0242938
0.0240702
0.0238673
0.0236776
0.0234984
0.0233336
0.0231983
0.0231229
0.0231899
0.0235449
0.0246637
0.0276303
0.0367085
0.0781024
0.348607
0.0251967
0.024992
0.0247881
0.0246043
0.024434
0.024273
0.0241212
0.0239852
0.0238827
0.0238506
0.0239807
0.0244422
0.0257575
0.0290825
0.0389477
0.0817897
0.350668
0.0257426
0.0255085
0.0253307
0.0251813
0.0250422
0.0249108
0.0247883
0.0246841
0.0246182
0.0246333
0.0248311
0.0254066
0.0269258
0.0306168
0.0412464
0.0852882
0.351966
0.0261507
0.0260316
0.0259072
0.0257982
0.025692
0.0255925
0.0255021
0.0254329
0.0254074
0.0254738
0.0257437
0.0264361
0.0281645
0.0322256
0.0435869
0.0885734
0.35228
0.0267364
0.0266222
0.0265294
0.0264573
0.026385
0.0263203
0.0262654
0.0262347
0.0262528
0.0263748
0.0267205
0.0275323
0.0294686
0.0339015
0.045971
0.0916956
0.351731
0.0272427
0.0272362
0.0271884
0.0271576
0.0271225
0.0270967
0.0270814
0.0270933
0.0271589
0.0273397
0.0277625
0.0286957
0.0308335
0.0356368
0.0483886
0.0946509
0.349946
0.0278749
0.0279011
0.0278906
0.0279014
0.0279079
0.0279251
0.0279541
0.0280128
0.0281305
0.0283728
0.0288738
0.0299252
0.0322536
0.0374184
0.0508307
0.0975089
0.346583
0.0285205
0.0285951
0.0286333
0.0286901
0.028744
0.0288091
0.0288878
0.0289984
0.0291728
0.0294799
0.0300605
0.0312287
0.0337384
0.0392594
0.0533455
0.1006
0.342023
0.0292064
0.0293301
0.0294213
0.0295277
0.0296346
0.0297531
0.0298875
0.0300558
0.0302919
0.0306671
0.0313287
0.0326093
0.0352834
0.0411414
0.0558893
0.103486
0.337077
0.0299337
0.0301026
0.0302534
0.0304174
0.0305839
0.0307625
0.0309587
0.0311904
0.0314917
0.0319351
0.0326718
0.034044
0.0368414
0.0429613
0.0582266
0.106037
0.332498
0.0306901
0.0309234
0.0311374
0.0313646
0.0315974
0.0318438
0.0321096
0.0324118
0.0327838
0.0332972
0.0341039
0.0355481
0.0384293
0.0447226
0.0603541
0.108249
0.328346
0.0314933
0.031786
0.0320727
0.0323733
0.0326817
0.0330052
0.0333501
0.0337321
0.0341828
0.0347708
0.0356453
0.0371451
0.040069
0.0464384
0.0622626
0.110075
0.324645
0.0323309
0.0327036
0.0330685
0.0334498
0.0338438
0.0342557
0.0346915
0.0351654
0.0357065
0.0363783
0.0373234
0.0388681
0.041798
0.0481466
0.0639649
0.111574
0.321397
0.0332205
0.0336688
0.034125
0.0346
0.0350918
0.0356055
0.0361467
0.036728
0.0373755
0.0381462
0.0391718
0.040761
0.0436724
0.0499256
0.0655795
0.11285
0.318577
0.0341498
0.0346961
0.0352509
0.0358307
0.0364343
0.0370656
0.0377299
0.0384382
0.0392132
0.040105
0.0412309
0.0428766
0.0457603
0.051855
0.0671847
0.113939
0.316131
0.0351338
0.0357784
0.0364483
0.0371489
0.037881
0.0386487
0.0394574
0.0403169
0.0412465
0.0422893
0.043547
0.045275
0.0481393
0.0540274
0.0688801
0.114885
0.313987
0.0361649
0.0369299
0.0377256
0.0385627
0.0394424
0.0403688
0.0413474
0.0423874
0.0435057
0.0447385
0.0461721
0.0480267
0.0509048
0.0565711
0.0707996
0.115755
0.312074
0.0372505
0.038145
0.0390867
0.0400806
0.0411303
0.0422413
0.0434201
0.0446761
0.0460249
0.0474973
0.049165
0.0512127
0.0541671
0.059637
0.0731287
0.116671
0.310327
0.0383916
0.0394368
0.0405399
0.0417119
0.0429576
0.0442839
0.0456988
0.0472135
0.0488439
0.0506178
0.052595
0.0549271
0.0580566
0.0634103
0.0761176
0.117852
0.308689
0.0395922
0.0408015
0.0420907
0.0434668
0.0449387
0.046516
0.0482103
0.0500354
0.0520099
0.0541619
0.0565441
0.0592805
0.0627311
0.0681153
0.0800815
0.119607
0.307107
0.0408523
0.0422506
0.0437472
0.0453564
0.0470896
0.0489605
0.0509855
0.0531838
0.0555797
0.0582057
0.0611137
0.0644098
0.0683826
0.0740289
0.0854183
0.122376
0.305538
0.0421757
0.0437819
0.0455164
0.0473929
0.0494287
0.0516437
0.0540614
0.0567098
0.0596228
0.0628435
0.0664317
0.0704889
0.0752525
0.0815081
0.0926578
0.12682
0.303941
0.0435617
0.0454052
0.0474071
0.0495898
0.0519769
0.0545965
0.0574826
0.060676
0.0642264
0.0681956
0.0726639
0.0777472
0.0836625
0.0910257
0.10252
0.133917
0.302283
0.0450131
0.0471193
0.0494269
0.0519616
0.0547575
0.0578546
0.0613018
0.065159
0.0694999
0.074417
0.0800285
0.0864928
0.0940522
0.10323
0.116027
0.145188
0.300529
0.0465279
0.0489319
0.0515841
0.0545235
0.0577961
0.0614588
0.0655817
0.0702524
0.0755813
0.0817092
0.088818
0.0971495
0.107041
0.119047
0.134671
0.163041
0.29864
0.0481065
0.0508413
0.0538866
0.0572922
0.0611225
0.0654577
0.0703988
0.0760743
0.0826496
0.0903411
0.0994358
0.110322
0.12354
0.139879
0.160744
0.191567
0.29656
0.0498256
0.0511548
0.0524949
0.0538405
0.0551844
0.0565194
0.0578364
0.0591269
0.0603815
0.0615905
0.0627438
0.0638309
0.0648418
0.0657662
0.0665944
0.0673176
0.0679274
0.0684169
0.0687795
0.069011
0.0691032
0.069012
0.0687808
0.0684183
0.0679289
0.0673187
0.0665946
0.0657648
0.0648386
0.0638252
0.0627351
0.061578
0.0603647
0.0591048
0.0578085
0.0564848
0.0551429
0.0537914
0.0524373
0.0510869
0.0497462
0.0529191
0.054326
0.0557431
0.0571623
0.0585792
0.0599835
0.0613685
0.0627231
0.0640395
0.0653058
0.0665132
0.0676497
0.0687058
0.0696703
0.070534
0.0712871
0.0719216
0.0724301
0.0728064
0.0730455
0.07314
0.0730468
0.0728083
0.0724327
0.0719247
0.0712901
0.0705367
0.069672
0.0687063
0.0676483
0.0665095
0.065299
0.064029
0.0627082
0.0613486
0.0599578
0.0585473
0.0571237
0.0556967
0.0542707
0.0528542
0.0563946
0.0578853
0.059383
0.0608822
0.0623758
0.0638552
0.0653116
0.0667354
0.0681165
0.0694445
0.0707086
0.0718979
0.0730015
0.0740087
0.0749095
0.0756944
0.0763549
0.0768836
0.0772741
0.0775214
0.0776181
0.0775229
0.0772766
0.0768872
0.0763594
0.0756993
0.0749144
0.0740132
0.0730052
0.0719004
0.0707093
0.0694428
0.0681118
0.066727
0.065299
0.0638377
0.0623527
0.0608532
0.0593471
0.0578421
0.0563439
0.0603247
0.0619034
0.0634875
0.0650716
0.0666476
0.0682066
0.0697395
0.0712363
0.0726866
0.0740795
0.075404
0.0766488
0.0778028
0.078855
0.079795
0.0806133
0.0813012
0.0818511
0.0822565
0.0825124
0.0826113
0.0825141
0.0822595
0.0818555
0.0813068
0.0806198
0.0798019
0.0788619
0.0778095
0.0766548
0.0754087
0.0740824
0.072687
0.0712338
0.0697333
0.0681962
0.0666324
0.0650511
0.0634617
0.0618719
0.0602869
0.0647977
0.0664707
0.0681467
0.0698213
0.071485
0.0731287
0.0747428
0.076317
0.0778405
0.0793021
0.0806903
0.0819937
0.0832007
0.0843001
0.0852813
0.0861345
0.086851
0.087423
0.087844
0.0881089
0.0882101
0.0881106
0.0878474
0.0874281
0.0868576
0.0861422
0.0852897
0.084309
0.0832098
0.0820025
0.0806984
0.0793089
0.0778454
0.0763195
0.0747422
0.0731245
0.0714765
0.0698085
0.0681302
0.0664498
0.0647717
0.0699269
0.0717007
0.0734747
0.0752451
0.077002
0.0787355
0.0804355
0.0820914
0.0836922
0.085226
0.086681
0.0880456
0.089308
0.0904567
0.0914807
0.0923704
0.0931166
0.0937115
0.0941485
0.0944226
0.0945261
0.0944244
0.0941522
0.0937169
0.0931237
0.0923789
0.0914904
0.0904671
0.089319
0.0880567
0.0866917
0.0852357
0.0837006
0.0820979
0.0804393
0.0787362
0.0769994
0.0752393
0.0734664
0.0716891
0.0699112
0.0758575
0.0777389
0.079617
0.0814886
0.0833438
0.0851718
0.0869622
0.0887038
0.0903852
0.0919943
0.093519
0.0949471
0.0962668
0.0974663
0.0985346
0.0994616
0.100238
0.100857
0.10131
0.101593
0.101699
0.101595
0.101314
0.100862
0.100246
0.0994706
0.098545
0.0974777
0.096279
0.0949598
0.0935315
0.0920063
0.0903962
0.0887131
0.0869693
0.0851765
0.0833461
0.0814889
0.0796156
0.0777351
0.0758506
0.0827786
0.0847741
0.0867618
0.0887398
0.0906977
0.0926242
0.0945084
0.096339
0.0981038
0.0997905
0.101386
0.10288
0.104258
0.105509
0.106622
0.107587
0.108394
0.109036
0.109506
0.109798
0.109907
0.1098
0.109509
0.109042
0.108402
0.107596
0.106633
0.105521
0.104271
0.102893
0.1014
0.0998036
0.0981161
0.09635
0.0945179
0.092632
0.090704
0.0887449
0.0867658
0.0847763
0.0827787
0.0909399
0.0930546
0.0951566
0.0972449
0.0993086
0.101336
0.103316
0.105237
0.107086
0.108851
0.110519
0.112077
0.113513
0.114816
0.115973
0.116975
0.117812
0.118477
0.118963
0.119264
0.119375
0.119266
0.118966
0.118482
0.117819
0.116984
0.115983
0.114827
0.113526
0.112091
0.110533
0.108865
0.107099
0.105249
0.103327
0.101346
0.0993177
0.0972532
0.0951644
0.0930613
0.0909449
0.100677
0.102913
0.105132
0.107332
0.109502
0.11163
0.113705
0.115715
0.117647
0.119489
0.121226
0.122846
0.124338
0.125689
0.126888
0.127925
0.12879
0.129476
0.129976
0.130286
0.130398
0.130287
0.129979
0.129481
0.128797
0.127933
0.126898
0.1257
0.12435
0.122859
0.121239
0.119501
0.11766
0.115727
0.113717
0.111641
0.109512
0.107342
0.105142
0.102923
0.100685
0.112448
0.114805
0.117137
0.119445
0.121717
0.123942
0.126107
0.128199
0.130208
0.132119
0.133918
0.135595
0.137136
0.138529
0.139764
0.140831
0.14172
0.142424
0.142936
0.143252
0.143365
0.143253
0.142938
0.142428
0.141726
0.140838
0.139773
0.138539
0.137147
0.135606
0.13393
0.13213
0.130219
0.12821
0.126118
0.123953
0.121728
0.119455
0.117147
0.114815
0.112458
0.126897
0.129361
0.131797
0.134201
0.136563
0.13887
0.141111
0.143272
0.145342
0.147308
0.149157
0.150877
0.152454
0.153878
0.155138
0.156225
0.15713
0.157845
0.158365
0.158684
0.158797
0.158685
0.158367
0.157849
0.157135
0.156231
0.155146
0.153887
0.152463
0.150886
0.149166
0.147318
0.145352
0.143281
0.14112
0.13888
0.136573
0.134211
0.131806
0.129371
0.126906
0.144943
0.147487
0.15
0.152473
0.154897
0.157259
0.159547
0.161748
0.163853
0.165847
0.167719
0.169456
0.171047
0.172481
0.173748
0.174839
0.175746
0.176462
0.17698
0.177298
0.17741
0.177299
0.176982
0.176464
0.17575
0.174844
0.173754
0.172488
0.171054
0.169463
0.167726
0.165854
0.16386
0.161756
0.159555
0.157267
0.154905
0.152481
0.150008
0.147496
0.144951
0.167943
0.170511
0.173046
0.175534
0.177964
0.180326
0.182608
0.184798
0.186886
0.188859
0.190707
0.192419
0.193984
0.195391
0.196633
0.1977
0.198585
0.199283
0.199787
0.200095
0.200202
0.200096
0.199788
0.199284
0.198588
0.197703
0.196636
0.195396
0.193988
0.192424
0.190712
0.188864
0.18689
0.184803
0.182614
0.180332
0.17797
0.175539
0.173051
0.170516
0.167948
0.197961
0.200442
0.202893
0.20529
0.207624
0.209885
0.212062
0.214145
0.216124
0.217991
0.219733
0.221344
0.222812
0.22413
0.225291
0.226286
0.227111
0.22776
0.228228
0.228513
0.228611
0.228513
0.228228
0.227761
0.227113
0.226288
0.225293
0.224133
0.222814
0.221346
0.219736
0.217993
0.216127
0.214148
0.212066
0.209888
0.207627
0.205294
0.202896
0.200445
0.197964
0.238255
0.240439
0.242601
0.244709
0.246752
0.248723
0.250614
0.252417
0.254124
0.255728
0.257222
0.258597
0.259849
0.26097
0.261954
0.262797
0.263493
0.26404
0.264434
0.264673
0.264754
0.264673
0.264434
0.264041
0.263494
0.262797
0.261955
0.260971
0.25985
0.258598
0.257223
0.255729
0.254125
0.252418
0.250616
0.248724
0.246753
0.24471
0.242602
0.240439
0.238256
0.294192
0.295677
0.297157
0.29859
0.299973
0.3013
0.302568
0.303772
0.304907
0.30597
0.306955
0.30786
0.308681
0.309413
0.310055
0.310603
0.311055
0.311409
0.311664
0.311818
0.31187
0.311818
0.311664
0.31141
0.311055
0.310603
0.310055
0.309413
0.308681
0.30786
0.306956
0.30597
0.304908
0.303772
0.302569
0.301301
0.299973
0.29859
0.297157
0.295677
0.294193
0.271125
0.0420801
0.0183238
0.0160389
0.015708
0.0159068
0.0162515
0.0166792
0.0171502
0.0176671
0.0182264
0.0188276
0.0194787
0.0201987
0.0210061
0.0219051
0.022874
0.286071
0.0445292
0.0192035
0.0165746
0.0161239
0.0162715
0.0165877
0.0169945
0.0174458
0.0179404
0.0184722
0.0190374
0.0196396
0.0202953
0.0210286
0.0218656
0.0228161
0.296008
0.0473977
0.0201582
0.0171478
0.0165662
0.0166547
0.0169409
0.0173243
0.0177544
0.0182252
0.0187306
0.0192654
0.0198276
0.0204234
0.0210723
0.0218132
0.0227089
0.30526
0.0503031
0.0211779
0.0177578
0.0170348
0.0170588
0.0173133
0.0176722
0.0180801
0.0185271
0.0190083
0.0195179
0.0200479
0.0205955
0.0211636
0.0217598
0.0223984
0.31348
0.0531883
0.0222576
0.0184043
0.0175323
0.0174866
0.0177072
0.0180404
0.0184255
0.0188493
0.0193082
0.0197957
0.0203004
0.0208157
0.0213429
0.0218844
0.0224412
0.321088
0.0560145
0.0233914
0.0190861
0.0180614
0.0179409
0.0181247
0.018431
0.0187936
0.019195
0.019631
0.0200955
0.0205773
0.0210666
0.0215632
0.0220711
0.0225789
0.327988
0.0587538
0.0245797
0.0198087
0.0186256
0.0184252
0.018569
0.0188476
0.019188
0.0195666
0.0199776
0.0204167
0.020875
0.0213416
0.0218123
0.0222949
0.0228066
0.334055
0.061393
0.025827
0.020585
0.0192306
0.0189443
0.019044
0.0192936
0.0196104
0.0199647
0.0203492
0.0207616
0.0211953
0.0216386
0.0220807
0.0225168
0.0229513
0.339217
0.0639652
0.027138
0.0214256
0.0198823
0.0195028
0.0195531
0.0197707
0.0200615
0.0203902
0.0207474
0.0211322
0.0215416
0.0219656
0.0223916
0.0228066
0.0231785
0.343897
0.0666217
0.0285563
0.0223381
0.0205847
0.0201026
0.0200988
0.0202802
0.0205429
0.020845
0.0211743
0.0215294
0.021911
0.0223134
0.0227283
0.0231538
0.0235955
0.348288
0.0694587
0.0300906
0.023324
0.0213438
0.0207467
0.0206829
0.0208241
0.0210569
0.0213314
0.0216323
0.0219564
0.0223058
0.0226776
0.0230626
0.0234487
0.0238298
0.352376
0.0724608
0.03175
0.0243886
0.0221634
0.0214375
0.021308
0.0214048
0.0216055
0.0218512
0.0221232
0.0224163
0.0227331
0.0230746
0.0234363
0.0237993
0.0241088
0.356123
0.0755566
0.0335451
0.0255326
0.0230454
0.0221779
0.0219764
0.0220243
0.0221905
0.0224058
0.0226482
0.0229097
0.0231923
0.0235007
0.0238408
0.0242146
0.024609
0.359207
0.0785535
0.0354763
0.0267566
0.0239925
0.0229699
0.0226898
0.0226845
0.0228135
0.022997
0.0232092
0.0234386
0.023685
0.0239524
0.0242487
0.024577
0.0249267
0.361401
0.0811931
0.0375409
0.028057
0.0250032
0.0238145
0.0234498
0.0233877
0.0234763
0.0236264
0.0238077
0.0240057
0.0242173
0.0244454
0.0247008
0.0249852
0.0252491
0.362705
0.0839078
0.0395772
0.029429
0.0260762
0.0247139
0.024258
0.0241355
0.0241809
0.0242957
0.024445
0.0246113
0.0247887
0.0249795
0.0251976
0.0254644
0.0257852
0.363298
0.0866872
0.0416721
0.0308693
0.027206
0.025669
0.0251164
0.0249306
0.0249296
0.025007
0.0251223
0.0252559
0.0253985
0.0255503
0.0257191
0.0259255
0.0261886
0.362743
0.089463
0.0438194
0.0323764
0.0283912
0.0266813
0.0260273
0.0257755
0.0257256
0.025763
0.0258422
0.0259419
0.0260495
0.0261641
0.0262879
0.0264369
0.0265782
0.361308
0.0923622
0.0460171
0.0339466
0.0296364
0.0277521
0.0269936
0.026674
0.0265718
0.0265667
0.0266069
0.0266703
0.0267415
0.0268203
0.0269035
0.0270189
0.0271474
0.358686
0.0953826
0.0482666
0.0355742
0.0309394
0.028883
0.0280185
0.0276303
0.0274723
0.0274215
0.0274194
0.0274428
0.0274743
0.0275145
0.0275517
0.0276176
0.0276663
0.354559
0.0985334
0.0505634
0.0372509
0.0322967
0.0300764
0.0291062
0.0286484
0.0284329
0.0283322
0.0282843
0.0282638
0.028252
0.0282508
0.0282431
0.0282636
0.0282127
0.349372
0.101678
0.0529169
0.0389841
0.033722
0.0313408
0.0302648
0.0297361
0.0294598
0.0293049
0.0292065
0.0291368
0.0290773
0.0290302
0.028978
0.0289533
0.0288571
0.343247
0.104568
0.0553261
0.0407774
0.0352048
0.0326829
0.031504
0.0309019
0.0305612
0.0303467
0.0301919
0.0300668
0.0299547
0.0298551
0.0297525
0.0296674
0.029536
0.33755
0.106887
0.057638
0.0425679
0.0367306
0.0340963
0.0328269
0.0321515
0.0317439
0.031465
0.0312476
0.0310613
0.0308903
0.030731
0.0305705
0.0304262
0.0302574
0.332377
0.108648
0.0597388
0.0443159
0.0382995
0.0355847
0.0342419
0.033496
0.0330187
0.0326691
0.0323816
0.0321263
0.0318883
0.0316627
0.0314412
0.0312373
0.031005
0.327774
0.110072
0.0616241
0.0460329
0.0399329
0.0371722
0.0357698
0.0349535
0.0344005
0.0339716
0.0336044
0.0332704
0.0329554
0.0326549
0.0323623
0.0320837
0.0317861
0.323751
0.111254
0.0633175
0.0477601
0.0416665
0.0388911
0.037437
0.0365458
0.0359068
0.0353866
0.0349275
0.034503
0.0341006
0.0337152
0.0333406
0.0329804
0.0326226
0.320284
0.112311
0.0649485
0.0495755
0.0435545
0.0407842
0.0392766
0.0382994
0.0375583
0.0369305
0.0363637
0.0358341
0.0353306
0.0348482
0.0343823
0.0339386
0.0334973
0.317313
0.113307
0.0666017
0.0515494
0.0456623
0.0429025
0.0413279
0.0402439
0.0393784
0.0386218
0.0379277
0.0372753
0.0366546
0.0360608
0.0354909
0.0349449
0.0344082
0.314761
0.114209
0.0683629
0.0537723
0.0480642
0.0453045
0.0436361
0.0424137
0.0413939
0.0404811
0.0396357
0.0388393
0.0380828
0.0373617
0.0366718
0.0360107
0.0353756
0.312546
0.115107
0.0703591
0.0563691
0.0508523
0.0480588
0.0462521
0.0448477
0.0436347
0.0425322
0.041506
0.04054
0.0396255
0.0387574
0.0379312
0.0371475
0.0363978
0.310587
0.116112
0.0727776
0.059487
0.0541344
0.0512451
0.0492345
0.0475904
0.0461353
0.0448015
0.0435592
0.0423933
0.0412947
0.0402572
0.0392761
0.0383481
0.0374609
0.30881
0.117428
0.0758656
0.0633078
0.0580389
0.0549566
0.0526523
0.0506943
0.048936
0.0473199
0.0458187
0.0444169
0.0431036
0.041871
0.0407119
0.039619
0.0385886
0.307147
0.119316
0.0799154
0.0680498
0.0627222
0.0593038
0.0565881
0.0542218
0.052084
0.0501231
0.0483114
0.0466305
0.0450666
0.0436084
0.0422457
0.0409718
0.0397796
0.305536
0.122216
0.0853224
0.0739891
0.0683766
0.0644248
0.061144
0.0582495
0.0556365
0.0532537
0.0510686
0.0490573
0.0472001
0.0454809
0.0438858
0.0424038
0.0410178
0.303925
0.126766
0.0926105
0.0814829
0.0752447
0.0704944
0.0664489
0.0628723
0.0596636
0.0567631
0.0541278
0.0517236
0.0495225
0.047501
0.0456391
0.0439184
0.0423261
0.302266
0.133921
0.102498
0.0910059
0.0836502
0.0777435
0.0726694
0.0682111
0.0642528
0.0607142
0.0575334
0.0546606
0.0520549
0.0496821
0.0475136
0.0455264
0.0437029
0.300518
0.145212
0.116013
0.103211
0.0940355
0.0864817
0.0800246
0.0744215
0.069514
0.0651839
0.0613386
0.0579041
0.0548206
0.0520389
0.0495187
0.0472275
0.0451324
0.298635
0.163061
0.134658
0.119028
0.107022
0.0971341
0.0888077
0.0817054
0.0755856
0.0702661
0.0656061
0.0614951
0.0578454
0.0545865
0.0516615
0.0490226
0.0466334
0.296559
0.191572
0.160732
0.139863
0.123524
0.110307
0.0994235
0.0903329
0.0826474
0.0760796
0.0704132
0.0654826
0.0611593
0.057342
0.0539502
0.0509197
0.0482029
0.0267625
0.0376012
0.0771091
0.216284
0.619122
1.43423
2.47949
3.22349
3.5042
3.96134
5.07069
7.14038
11.3707
14.9048
11.3863
3.98241
0.611179
0.0926491
0.034758
0.0243639
0.0291787
0.0447341
0.100042
0.290976
0.8339
1.90676
3.20914
3.95654
4.01961
4.20844
5.23949
7.4809
12.025
14.9134
11.0405
3.84725
0.612478
0.100696
0.0380571
0.0255811
0.0325804
0.0548294
0.131879
0.393153
1.12373
2.52702
4.06125
4.70639
4.53959
4.5563
5.60445
7.99576
12.479
14.6387
10.5554
3.66438
0.608971
0.110466
0.0422773
0.0271426
0.0374291
0.0691092
0.17586
0.532855
1.51254
3.30522
4.96045
5.38903
5.01701
4.98022
6.05577
8.52879
12.6776
14.1079
9.90539
3.43133
0.604318
0.122917
0.047808
0.0291951
0.0444161
0.0892898
0.236553
0.723542
2.03582
4.19722
5.78884
5.93672
5.4639
5.43296
6.52944
8.97207
12.5784
13.3327
9.12359
3.17114
0.604335
0.139486
0.0552448
0.0319681
0.0545491
0.117748
0.320556
0.98312
2.6995
5.10925
6.46398
6.36354
5.8758
5.86396
6.95847
9.23713
12.175
12.3514
8.27197
2.91998
0.616983
0.162216
0.0654934
0.0358215
0.0693077
0.15782
0.437172
1.34067
3.48558
5.9291
6.94167
6.7031
6.24308
6.25383
7.2802
9.27282
11.5009
11.236
7.42979
2.71588
0.651209
0.193998
0.079942
0.0413327
0.090859
0.21428
0.599291
1.82481
4.31466
6.56395
7.22654
6.96229
6.54925
6.56596
7.45224
9.06845
10.6142
10.0791
6.67778
2.59402
0.71725
0.238948
0.100715
0.0494397
0.122409
0.294452
0.827125
2.42306
5.07451
6.96007
7.35966
7.1288
6.77242
6.77106
7.46806
8.69015
9.687
8.98546
6.08532
2.58024
0.827388
0.303129
0.131077
0.0616762
0.168758
0.40879
1.15237
3.10617
5.64996
7.10256
7.3716
7.191
6.89396
6.85709
7.34269
8.18818
8.7239
8.02897
5.69203
2.70422
0.998544
0.395714
0.176038
0.0805686
0.237367
0.574137
1.57889
3.7729
5.98092
7.02312
7.26311
7.14021
6.89904
6.83181
7.12239
7.65317
7.8638
7.25184
5.49009
2.97937
1.25307
0.530842
0.243333
0.110335
0.340109
0.819259
2.10479
4.29504
6.0255
6.79365
7.03622
6.97621
6.79499
6.71018
6.84322
7.1263
7.12831
6.63356
5.40423
3.39163
1.62657
0.730549
0.345377
0.158103
0.496453
1.16494
2.65447
4.55681
5.84977
6.45633
6.70147
6.70407
6.58894
6.50499
6.52198
6.61758
6.51519
6.10901
5.30959
3.85743
2.14217
1.03104
0.501931
0.236265
0.741229
1.61561
3.1003
4.54315
5.51413
6.03027
6.27748
6.32778
6.28688
6.23045
6.20142
6.17138
6.01059
5.65061
5.10006
4.20011
2.7496
1.46881
0.746689
0.366642
1.10253
2.10044
3.33124
4.36195
5.08911
5.53556
5.78066
5.87719
5.89948
5.88043
5.84091
5.76246
5.57991
5.25054
4.79238
4.22406
3.2689
2.04208
1.13417
0.588432
1.57315
2.45074
3.30951
4.06528
4.61489
4.98986
5.22317
5.36315
5.43642
5.45768
5.43287
5.34901
5.17305
4.87659
4.46786
3.99619
3.41246
2.58935
1.69085
0.980024
1.9837
2.54605
3.15572
3.6825
4.09379
4.40221
4.62493
4.79383
4.90694
4.9645
4.96353
4.89356
4.73623
4.47187
4.11242
3.69275
3.22553
2.77496
2.26258
1.62134
2.10211
2.44464
2.83636
3.20125
3.50972
3.76366
3.98337
4.16647
4.3029
4.38506
4.40551
4.35448
4.21937
3.99342
3.68674
3.31949
2.93109
2.57201
2.42471
2.30668
1.86204
2.06015
2.31703
2.57543
2.81321
3.02718
3.2242
3.39178
3.5199
3.60562
3.64128
3.6045
3.49706
3.32057
3.08274
2.79471
2.48901
2.21693
2.03632
2.19271
0.972775
1.08285
1.20483
1.32275
1.44235
1.57429
1.6953
1.79808
1.87879
1.93374
1.96198
1.94808
1.89651
1.80915
1.68837
1.53601
1.35717
1.16374
0.975441
0.823924
0.731039
2.64928