/*--------------------------------*- C++ -*----------------------------------*\
  =========                 |
  \\      /  F ield         | OpenFOAM: The Open Source CFD Toolbox
   \\    /   O peration     | Website:  https://openfoam.org
    \\  /    A nd           | Version:  6
     \\/     M anipulation  |
\*---------------------------------------------------------------------------*/
FoamFile
{
    version     2.0;
    format      ascii;
    class       volScalarField;
    location    "3.15";
    object      k;
}
// * * * * * * * * * * * * * * * * * * * * * * * * * * * * * * * * * * * * * //

dimensions      [0 2 -2 0 0 0 0];

internalField   nonuniform List<scalar> 
4214
(
0.0270261
0.0188658
0.016355
0.0159174
0.0162379
0.0169135
0.0179203
0.0194346
0.0217963
0.0255291
0.0313902
0.0403625
0.0535286
0.0720113
0.0970024
0.129909
0.170849
0.210802
0.213028
0.168634
0.129019
0.102119
0.0854569
0.0732392
0.0623587
0.0526203
0.0442487
0.0373268
0.0317898
0.0274894
0.0242394
0.0218382
0.020092
0.0188274
0.0178977
0.0172038
0.0166935
0.0164365
0.0168413
0.0192756
0.0275285
0.0167073
0.0152225
0.0149833
0.015252
0.0157755
0.0165166
0.0175654
0.0191298
0.021561
0.0254012
0.0314447
0.0407843
0.0547567
0.0748678
0.10282
0.140286
0.187145
0.228514
0.220877
0.169022
0.131786
0.107741
0.0915713
0.0777028
0.0649448
0.0537027
0.0442795
0.0366755
0.0307279
0.0262107
0.0228732
0.0204655
0.0187595
0.017562
0.0167181
0.0161084
0.0156488
0.0153054
0.0151428
0.015481
0.0172719
0.0145165
0.0142483
0.0144138
0.0147946
0.0153433
0.0160965
0.0171662
0.0187642
0.0212448
0.025166
0.0313712
0.0410732
0.0558639
0.077722
0.108973
0.152037
0.20482
0.245009
0.226431
0.169264
0.136014
0.114829
0.0979994
0.0819932
0.0672403
0.0545208
0.0440922
0.0358423
0.0295124
0.0247988
0.0213886
0.0189845
0.0173256
0.016198
0.0154358
0.0149154
0.014549
0.0142839
0.0141132
0.014124
0.0146405
0.0136605
0.0136998
0.0139519
0.0143454
0.0148907
0.0156452
0.0167261
0.018345
0.0208589
0.0248416
0.0311887
0.0412417
0.0568776
0.0806237
0.115587
0.164979
0.224233
0.262823
0.232931
0.172324
0.143404
0.123681
0.104913
0.0863471
0.0695616
0.0554152
0.044013
0.0351174
0.028387
0.0234529
0.0199469
0.0175277
0.0159016
0.0148333
0.0141443
0.013705
0.0134263
0.0132523
0.0131581
0.0131666
0.0134179
0.0130771
0.0132156
0.013487
0.0138745
0.0144099
0.0151593
0.016242
0.0178691
0.0203995
0.0244225
0.0308852
0.0412647
0.0577566
0.0835367
0.122671
0.17921
0.24504
0.28036
0.238803
0.177601
0.153101
0.133641
0.112214
0.0910078
0.072301
0.0568011
0.0444154
0.0348086
0.0275897
0.0223493
0.018676
0.0161871
0.0145546
0.0135175
0.0128808
0.0125056
0.0122985
0.0122018
0.0121853
0.0122498
0.0124653
0.0125533
0.0127303
0.0130047
0.0133823
0.0139047
0.014643
0.015718
0.0173405
0.0198715
0.023915
0.0304677
0.0411493
0.0585097
0.0864768
0.130293
0.194796
0.267389
0.298309
0.245464
0.185164
0.165211
0.144768
0.120274
0.0965358
0.0760902
0.0592946
0.0458414
0.0353542
0.0274542
0.0217309
0.0177491
0.0150868
0.0133755
0.0123203
0.0117013
0.0113641
0.0112066
0.0111665
0.0112099
0.0113279
0.0115588
0.0120388
0.0122328
0.0125048
0.012871
0.0133773
0.014098
0.0151556
0.0167611
0.0192778
0.0233231
0.0299425
0.0409007
0.0591494
0.089479
0.138503
0.211767
0.291324
0.316792
0.253561
0.195311
0.17958
0.157278
0.129664
0.103681
0.0817414
0.0636849
0.0489836
0.0373086
0.0283917
0.0218872
0.0173623
0.0143588
0.0124559
0.011308
0.0106566
0.0103212
0.0101845
0.0101751
0.0102538
0.0104057
0.0106508
0.0115189
0.0117186
0.0119843
0.012336
0.0128213
0.0135163
0.0145462
0.0161239
0.0186152
0.0226491
0.0293175
0.0405339
0.0596923
0.0925716
0.147262
0.229994
0.316985
0.336483
0.264201
0.208355
0.196279
0.171713
0.141231
0.113399
0.0902476
0.0709431
0.0547103
0.0413761
0.0309235
0.0231769
0.0177516
0.0141542
0.0118934
0.0105475
0.00979701
0.00941854
0.0092684
0.00926002
0.00934562
0.0095042
0.00974367
0.0109718
0.0111432
0.0113711
0.0116842
0.012136
0.0128056
0.0138184
0.015383
0.01786
0.0218868
0.0285982
0.0400588
0.0601305
0.0956568
0.156264
0.248933
0.344285
0.358434
0.278202
0.224395
0.215565
0.1889
0.156065
0.126822
0.102738
0.0821793
0.0640542
0.0484317
0.0357171
0.026064
0.0192154
0.0146548
0.0117964
0.0101048
0.0091668
0.00869046
0.00848978
0.00845286
0.00851815
0.00865672
0.00886621
0.0103754
0.0105187
0.0107278
0.0110214
0.011445
0.0120788
0.0130543
0.0145804
0.017022
0.0210245
0.027749
0.0394031
0.0603088
0.0983218
0.164604
0.26723
0.372398
0.383611
0.29646
0.243612
0.237936
0.209953
0.175496
0.145237
0.120439
0.0985878
0.078187
0.0595316
0.0436243
0.0311664
0.022161
0.0161053
0.0123037
0.0100548
0.00880787
0.00816383
0.00787136
0.00777841
0.00780192
0.00790093
0.00806312
0.00984079
0.00998843
0.0101903
0.0104681
0.0108657
0.0114562
0.0123602
0.0137956
0.0161236
0.0199837
0.0265847
0.0382748
0.0597305
0.0996254
0.170626
0.282435
0.399191
0.412246
0.319625
0.266367
0.264113
0.236226
0.201111
0.1702
0.144718
0.121404
0.098358
0.0758793
0.0557007
0.0393041
0.0271587
0.0188589
0.0136191
0.0105035
0.00877359
0.0078645
0.00742881
0.00725129
0.00721635
0.0072641
0.00736994
0.00930195
0.00945986
0.00966211
0.00993043
0.0103071
0.0108617
0.0117083
0.0130403
0.0152119
0.0188476
0.0251427
0.0365149
0.0578735
0.0984997
0.172556
0.291799
0.421864
0.443876
0.347659
0.293445
0.294785
0.26913
0.234753
0.203842
0.177266
0.151947
0.125819
0.0987413
0.0731614
0.051511
0.0349961
0.0234286
0.0160592
0.0116201
0.00915207
0.00783211
0.00718026
0.00688096
0.00677104
0.0067608
0.00680969
0.00876167
0.00893137
0.00913788
0.00940186
0.00976279
0.010286
0.011078
0.0123178
0.0143189
0.0176837
0.0235469
0.0342858
0.0548553
0.0948849
0.169851
0.294275
0.438655
0.478648
0.38166
0.324424
0.330235
0.309735
0.277875
0.247455
0.219905
0.191792
0.161865
0.129385
0.0972924
0.0689669
0.0467017
0.0305261
0.0201115
0.013676
0.0101003
0.00814031
0.00716175
0.00668179
0.00647302
0.00639685
0.00639149
0.00822749
0.00840831
0.00862063
0.00888373
0.00923396
0.00973169
0.0104752
0.0116277
0.0134724
0.0165418
0.0218971
0.0317607
0.0509217
0.089016
0.162473
0.28843
0.446252
0.513946
0.421699
0.359379
0.370103
0.35836
0.330915
0.302466
0.273533
0.242816
0.208048
0.169127
0.129421
0.0928315
0.0635145
0.041042
0.0265028
0.0170814
0.011894
0.00892207
0.00744843
0.00668416
0.0063351
0.00617451
0.00611412
0.00771024
0.00789988
0.00811769
0.00838171
0.00872534
0.00920402
0.0099075
0.0109831
0.0126829
0.0154696
0.0202913
0.0291428
0.0464447
0.0814432
0.151052
0.274556
0.440957
0.543059
0.473666
0.401386
0.413254
0.414199
0.392925
0.369664
0.341333
0.307129
0.266243
0.21931
0.171026
0.124014
0.086837
0.0558827
0.0362769
0.0223844
0.0150064
0.0103953
0.00819404
0.00695072
0.00639268
0.00610287
0.00597764
0.00722266
0.00741757
0.0076392
0.00790455
0.00824439
0.00870977
0.00938224
0.010394
0.011966
0.014499
0.0187942
0.0265858
0.0419155
0.0731844
0.13818
0.254629
0.422177
0.557085
0.536015
0.455638
0.453624
0.47182
0.459599
0.446192
0.422349
0.385642
0.338281
0.280734
0.224006
0.162831
0.118395
0.0755275
0.0509266
0.030122
0.0202513
0.0128518
0.00971234
0.00759047
0.00673939
0.00621362
0.00600314
0.00678021
0.00697512
0.00719778
0.00746374
0.00780184
0.00825871
0.00890949
0.00987197
0.0113411
0.0136563
0.0175054
0.0244919
0.0400383
0.0684234
0.133579
0.235089
0.391449
0.546407
0.574086
0.493505
0.476713
0.512987
0.521578
0.525961
0.511928
0.476617
0.425612
0.352419
0.291333
0.208046
0.161044
0.0990604
0.0728001
0.0402069
0.0291205
0.016435
0.0126803
0.00870362
0.00761067
0.00654351
0.00625441
0.00600178
0.0058828
0.00591902
0.0060998
0.00642606
0.006901
0.00752864
0.00829561
0.00917133
0.0101145
0.0110739
0.012035
0.0130501
0.0143114
0.0165059
0.0229089
0.0509393
0.00592245
0.00584144
0.00589102
0.00605656
0.00634413
0.00676889
0.00733693
0.00804304
0.00887035
0.00979443
0.0107866
0.0118464
0.0130539
0.0146913
0.0176423
0.0253724
0.0526681
0.00586449
0.00582374
0.00587815
0.00602655
0.00628594
0.00667258
0.00719755
0.00786609
0.00867681
0.00962279
0.010701
0.011935
0.0134438
0.0155897
0.0194224
0.0287534
0.0535439
0.0058494
0.00582274
0.00587494
0.00601009
0.00624781
0.00660616
0.00710193
0.00775121
0.00856931
0.00957378
0.0107913
0.0122805
0.0142016
0.0169815
0.0218252
0.0327126
0.0545932
0.00584764
0.00583194
0.00588065
0.00600538
0.00622613
0.00656355
0.00704084
0.00768561
0.00853149
0.00962263
0.0110215
0.0128319
0.0152641
0.018801
0.0247061
0.0365455
0.056043
0.00585959
0.00584893
0.00589428
0.00601026
0.00621698
0.00653781
0.00700243
0.0076498
0.00853286
0.00972403
0.0113261
0.0134966
0.0165077
0.0208993
0.027928
0.0406936
0.0578765
0.00588121
0.00587242
0.00591466
0.00602267
0.00621654
0.00652186
0.00697386
0.00762228
0.00853803
0.00982195
0.011619
0.0141469
0.0177582
0.0230796
0.0314095
0.0455903
0.060067
0.0059098
0.00590171
0.00594078
0.00604081
0.00622157
0.00650979
0.00694443
0.00758339
0.00851278
0.00985936
0.0118086
0.0146396
0.0188057
0.0250772
0.0349034
0.0510573
0.0625866
0.00594412
0.00593639
0.00597191
0.00606348
0.00622994
0.00649785
0.00690738
0.00752061
0.00843345
0.00979217
0.0118178
0.0148471
0.0194303
0.0265427
0.0378915
0.0563132
0.0653923
0.00598395
0.00597616
0.00600771
0.00609017
0.00624095
0.00648511
0.00686138
0.0074314
0.0082937
0.00960417
0.011607
0.0146864
0.019473
0.0271437
0.0397455
0.060251
0.0683927
0.00602922
0.00602106
0.00604822
0.0061211
0.00625526
0.00647327
0.00681022
0.00732305
0.00810552
0.00931147
0.0111916
0.0141547
0.0188885
0.0266838
0.0400017
0.0619842
0.0714258
0.00607996
0.00607123
0.00609384
0.00615704
0.00627445
0.00646566
0.00676086
0.00720936
0.00789411
0.00895597
0.0106342
0.0133359
0.0177666
0.0252253
0.0385635
0.0613153
0.0742825
0.00613642
0.00612716
0.00614523
0.00619907
0.00630041
0.006466
0.00672085
0.0071055
0.00768866
0.00859021
0.0100222
0.0123632
0.0162971
0.0231205
0.0356741
0.0585484
0.0767603
0.00619877
0.00618926
0.00620319
0.00624837
0.006335
0.0064774
0.00669611
0.00702349
0.00751361
0.00826187
0.00944279
0.0113837
0.0147095
0.0206485
0.0317633
0.0541354
0.0787126
0.0062674
0.00625834
0.00626869
0.00630617
0.00637978
0.00650201
0.00669005
0.00696982
0.00738308
0.00800207
0.00896079
0.0105212
0.0132152
0.0181588
0.0278404
0.0485982
0.0800551
0.00634249
0.00633485
0.0063427
0.00637375
0.0064362
0.0065413
0.00670397
0.00694593
0.00730023
0.00782122
0.00860711
0.0098528
0.0119761
0.0159282
0.0240198
0.0427085
0.0807238
0.00642435
0.0064197
0.00642633
0.0064524
0.00650568
0.00659649
0.00673839
0.00695061
0.00726117
0.00771331
0.00837993
0.00940049
0.0110818
0.0141889
0.0208393
0.0377277
0.080629
0.00651296
0.00651293
0.00652036
0.00654342
0.00658971
0.00666899
0.00679396
0.0069825
0.00726017
0.00766475
0.00825531
0.00913491
0.0105195
0.0129744
0.0182829
0.0326294
0.0796332
0.00660838
0.00661512
0.00662558
0.00664799
0.00668975
0.00676027
0.00687175
0.0070413
0.00729328
0.0076633
0.00820484
0.00900264
0.0102129
0.012219
0.0163771
0.0285646
0.0776829
0.0067105
0.00672581
0.00674212
0.00676677
0.00680693
0.00687174
0.0069731
0.00712767
0.00735916
0.00770234
0.0082092
0.00895835
0.0100783
0.0118317
0.0151642
0.025154
0.0748063
0.0068194
0.00684555
0.00687011
0.00690019
0.00694207
0.00700443
0.00709895
0.00724202
0.00745695
0.00777809
0.00825718
0.00897187
0.0100425
0.0116696
0.0144846
0.0225143
0.0711812
0.00693548
0.00697381
0.00700947
0.00704825
0.00709553
0.0071592
0.0072505
0.00738549
0.00758719
0.00788961
0.00834446
0.00902979
0.0100653
0.0116293
0.0141655
0.0207134
0.0671477
0.00705922
0.00711175
0.0071606
0.00721099
0.00726727
0.0073362
0.00742823
0.00755879
0.00775032
0.00803649
0.00846879
0.00912588
0.0101287
0.0116517
0.0140492
0.0196602
0.0631544
0.00719167
0.00725907
0.00732355
0.00738831
0.00745694
0.00753501
0.00763185
0.00776183
0.00794649
0.00821853
0.00862844
0.0092551
0.0102215
0.0117068
0.0140286
0.0190854
0.0596521
0.00733329
0.00741803
0.00749954
0.00758079
0.00766458
0.00775535
0.007861
0.00799419
0.00817496
0.00843425
0.0088213
0.00941473
0.0103401
0.0117858
0.0140603
0.0187655
0.0569119
0.00748543
0.0075883
0.00768896
0.00778903
0.00789048
0.0079967
0.00811464
0.00825547
0.00843696
0.0086876
0.00905405
0.00961346
0.0104936
0.0118951
0.0141393
0.0186444
0.0549394
0.0076486
0.00777184
0.00789304
0.00801309
0.00813437
0.00825965
0.00839428
0.00854781
0.00873578
0.00898364
0.00933433
0.00986179
0.0106943
0.0120456
0.0142663
0.0186883
0.0537238
0.00781917
0.00796625
0.00810961
0.0082528
0.00839718
0.00854501
0.0087009
0.00887298
0.00907464
0.00932795
0.00967107
0.0101727
0.0109589
0.0122543
0.0144501
0.0188803
0.0532281
0.00800553
0.00817191
0.0083395
0.00850803
0.00867838
0.00885263
0.00903498
0.00923261
0.00945692
0.00972657
0.0100743
0.0105614
0.011308
0.012545
0.014708
0.0192102
0.0534013
0.00818344
0.00838335
0.00857944
0.00877646
0.00897624
0.00918137
0.00939627
0.00962774
0.00988574
0.0101857
0.0105545
0.0110444
0.0117653
0.0129471
0.0150659
0.0196746
0.0541854
0.00838819
0.00860571
0.00882909
0.00905635
0.00928885
0.00952979
0.00978426
0.0100593
0.0103641
0.0107116
0.0111228
0.0116392
0.0123566
0.013495
0.0155584
0.0202781
0.0555084
0.00856631
0.00882607
0.00908313
0.00934445
0.0096139
0.00989647
0.0101987
0.0105286
0.0108955
0.011311
0.0117906
0.0123641
0.0131091
0.0142266
0.0162286
0.0210343
0.0572952
0.00878093
0.00905659
0.00934361
0.00964032
0.00995062
0.0102813
0.0106408
0.0110385
0.0114851
0.0119924
0.0125712
0.0132386
0.0140514
0.0151829
0.0171291
0.0219704
0.0594661
0.00895589
0.00927976
0.00960504
0.00994181
0.0102985
0.0106852
0.0111131
0.0115935
0.0121399
0.0127672
0.0134813
0.0142856
0.0152148
0.0164092
0.0183243
0.0231354
0.0619331
0.00917498
0.0095147
0.0098726
0.0102508
0.0106592
0.011111
0.01162
0.0122001
0.01287
0.0136513
0.0145431
0.015533
0.0166354
0.0179582
0.0198958
0.0246146
0.0645855
0.00934953
0.00974103
0.0101409
0.0105665
0.0110345
0.0115624
0.0121674
0.0128665
0.0136889
0.0146669
0.0157861
0.0170164
0.0183581
0.0198955
0.0219512
0.0265522
0.0672717
0.00957617
0.00998153
0.0104166
0.0108924
0.011428
0.0120446
0.0127623
0.0136033
0.0146155
0.0158461
0.0172502
0.0187818
0.0204424
0.0223098
0.0246405
0.0291844
0.0697844
0.00975465
0.0102129
0.0106944
0.0112289
0.0118433
0.0125632
0.0134124
0.0144242
0.0156783
0.0172342
0.018986
0.0208885
0.0229717
0.025331
0.0281822
0.0328909
0.0718624
0.00999304
0.0104597
0.0109821
0.0115813
0.0122858
0.0131248
0.014127
0.0153512
0.0169214
0.0188915
0.0210528
0.0234128
0.0260674
0.0291579
0.0329058
0.0382783
0.0732073
0.0101734
0.010696
0.0112755
0.0119516
0.01276
0.0137349
0.0149199
0.0164228
0.0184104
0.0208871
0.0235139
0.0264589
0.0299153
0.0341035
0.0393312
0.0463163
0.0735738
0.0145596
0.0150182
0.0154751
0.0159241
0.0163588
0.0167718
0.0171561
0.0175042
0.0178097
0.0180663
0.0182691
0.0184145
0.0185003
0.0185259
0.0184922
0.0184016
0.018258
0.0180667
0.0178342
0.0175677
0.0172568
0.016892
0.0165291
0.016148
0.015755
0.0153498
0.0149485
0.0145105
0.0141527
0.013716
0.0133885
0.012964
0.0126649
0.0122658
0.0119969
0.0116345
0.0113971
0.0110784
0.010872
0.0105976
0.0104187
0.0155298
0.0160318
0.0165306
0.0170192
0.0174903
0.0179359
0.0183478
0.0187182
0.0190398
0.0193061
0.0195121
0.019654
0.01973
0.0197398
0.0196848
0.0195683
0.019395
0.0191711
0.0189038
0.0186009
0.0182497
0.017847
0.0174512
0.0170404
0.0166196
0.0161929
0.0157463
0.0153109
0.0148948
0.0144738
0.0140793
0.0136757
0.0133079
0.0129326
0.0125992
0.0122619
0.0119677
0.0116737
0.0114197
0.0111683
0.0109504
0.0165835
0.0171353
0.017682
0.0182162
0.0187292
0.0192122
0.0196562
0.0200526
0.0203934
0.0206717
0.0208822
0.0210213
0.0210873
0.0210804
0.0210028
0.0208587
0.0206535
0.0203944
0.0200896
0.0197475
0.0193531
0.0189095
0.0184781
0.0180345
0.0175838
0.0171303
0.0166473
0.0161892
0.015747
0.0153133
0.0148917
0.0144771
0.0140794
0.0136926
0.0133286
0.0129803
0.0126585
0.0123554
0.0120788
0.0118206
0.0115849
0.0177315
0.0183398
0.0189414
0.0195275
0.0200886
0.0206148
0.021096
0.0215228
0.0218864
0.0221795
0.0223965
0.0225338
0.02259
0.0225661
0.0224649
0.0222914
0.0220524
0.0217559
0.021411
0.021027
0.0205867
0.0200994
0.0196298
0.0191506
0.0186672
0.0181846
0.017673
0.0171809
0.0167121
0.0162583
0.0158179
0.0153892
0.014974
0.0145728
0.0141895
0.0138252
0.0134836
0.0131645
0.0128697
0.0125972
0.0123459
0.0189885
0.0196608
0.0203244
0.0209696
0.0215855
0.0221612
0.0226854
0.0231475
0.0235382
0.0238493
0.0240752
0.0242122
0.0242595
0.0242185
0.024093
0.0238891
0.0236145
0.0232786
0.0228915
0.0224633
0.0219747
0.0214415
0.020931
0.0204135
0.019895
0.0193808
0.0188744
0.0183211
0.0178113
0.0173311
0.0168721
0.0164296
0.0160023
0.0155901
0.015195
0.0148186
0.0144635
0.014131
0.013822
0.0135359
0.0132708
0.0203754
0.0211191
0.0218523
0.0225639
0.0232418
0.0238737
0.0244469
0.02495
0.0253722
0.0257053
0.025943
0.0260818
0.0261213
0.0260637
0.0259137
0.0256787
0.0253675
0.0249907
0.0245597
0.0240854
0.0235468
0.022966
0.0224123
0.0218544
0.0212986
0.0207506
0.0202144
0.0196492
0.0190856
0.01857
0.0180858
0.017626
0.0171867
0.0167661
0.0163641
0.0159815
0.0156198
0.0152804
0.0149641
0.0146704
0.0143976
0.0219212
0.0227436
0.0235536
0.0243389
0.025086
0.0257809
0.0264096
0.0269592
0.0274181
0.0277772
0.02803
0.0281732
0.0282067
0.0281335
0.0279596
0.0276933
0.0273452
0.0269268
0.0264509
0.0259293
0.0253399
0.0247105
0.024112
0.0235121
0.0229175
0.022334
0.0217666
0.0212184
0.020616
0.0200289
0.019505
0.0190201
0.0185649
0.0181348
0.0177276
0.0173427
0.0169802
0.0166408
0.0163256
0.0160504
0.015825
0.0236658
0.0245734
0.025467
0.0263329
0.0271559
0.0279204
0.0286107
0.0292124
0.029713
0.0301025
0.030374
0.0305244
0.0305542
0.0304672
0.0302705
0.0299739
0.0295893
0.0291296
0.0286088
0.0280399
0.0274001
0.0267223
0.0260785
0.0254359
0.0248015
0.0241819
0.0235824
0.023007
0.0224585
0.0218699
0.0212556
0.0206975
0.0202044
0.0197548
0.0193382
0.018953
0.0186043
0.0183004
0.0180512
0.0178531
0.0177061
0.0256642
0.0266623
0.0276451
0.0285973
0.0295021
0.0303417
0.031099
0.031758
0.0323048
0.0327288
0.0330227
0.0331835
0.0332122
0.0331138
0.0328966
0.0325716
0.0321521
0.0316528
0.0310886
0.0304739
0.0297855
0.0290612
0.0283729
0.0276881
0.0270144
0.0263592
0.0257281
0.0251256
0.0245553
0.0240199
0.0235021
0.0229657
0.0224261
0.0219236
0.0214836
0.0211137
0.0208121
0.0205757
0.0204025
0.02029
0.0202295
0.0279927
0.0290845
0.03016
0.0312024
0.0321928
0.0331115
0.0339397
0.0346595
0.0352561
0.0357179
0.0360374
0.0362117
0.0362427
0.036136
0.0359014
0.0355513
0.0351005
0.0345648
0.0339608
0.0333036
0.0325709
0.0318041
0.031074
0.0303494
0.0296388
0.0289497
0.0282886
0.0276606
0.0270698
0.0265194
0.0260119
0.0255488
0.0251313
0.0247535
0.0244113
0.0241091
0.0238541
0.0236497
0.0234931
0.0233754
0.0232809
0.0307585
0.031944
0.0331123
0.0342452
0.0353218
0.0363204
0.0372202
0.0380021
0.0386498
0.0391512
0.0394985
0.0396892
0.0397257
0.0396148
0.0393673
0.0389972
0.0385205
0.0379544
0.0373166
0.0366232
0.0358536
0.0350514
0.034285
0.0335257
0.0327824
0.0320634
0.0313756
0.0307249
0.0301157
0.0295517
0.0290358
0.0285698
0.0281547
0.0277908
0.0274773
0.0272121
0.0269918
0.0268113
0.0266643
0.0265435
0.0264389
0.0341152
0.0353884
0.0366442
0.0378622
0.0390198
0.0400936
0.041061
0.0419016
0.0425981
0.043138
0.0435134
0.0437221
0.0437674
0.0436569
0.0434028
0.0430201
0.0425259
0.0419386
0.0412768
0.0405575
0.0397626
0.0389364
0.0381432
0.0373579
0.0365898
0.0358478
0.0351392
0.0344703
0.033846
0.0332705
0.0327464
0.0322758
0.0318595
0.0314973
0.0311877
0.0309276
0.0307128
0.0305376
0.030396
0.0302813
0.0301846
0.038288
0.0396334
0.0409612
0.0422492
0.043473
0.0446081
0.0456304
0.0465188
0.0472555
0.0478276
0.0482277
0.0484541
0.0485107
0.0484062
0.0481536
0.0477687
0.0472695
0.0466751
0.0460044
0.0452751
0.0444727
0.04364
0.0428357
0.0420388
0.0412591
0.0405056
0.0397863
0.0391075
0.0384745
0.0378914
0.0373612
0.0368857
0.0364658
0.0361008
0.0357892
0.0355279
0.0353128
0.0351389
0.035001
0.0348932
0.0348075
0.0436171
0.0450015
0.0463685
0.047694
0.0489528
0.0501194
0.0511697
0.0520823
0.0528396
0.0534292
0.0538444
0.0540842
0.0541531
0.0540607
0.0538202
0.053448
0.0529621
0.0523814
0.0517249
0.0510101
0.0502269
0.0494146
0.0486238
0.0478387
0.0470692
0.0463244
0.0456121
0.0449389
0.0443099
0.0437295
0.0432006
0.0427254
0.0423046
0.041938
0.0416245
0.0413617
0.0411462
0.0409742
0.0408412
0.0407421
0.0406703
0.0506322
0.0519907
0.0533329
0.0546331
0.0558662
0.0570076
0.058034
0.0589254
0.0596655
0.0602433
0.0606532
0.0608951
0.0609742
0.0609001
0.0606858
0.0603471
0.059901
0.0593655
0.0587581
0.0580953
0.0573719
0.0566212
0.0558835
0.0551485
0.0544259
0.0537243
0.053051
0.0524123
0.0518133
0.0512582
0.0507502
0.0502914
0.0498834
0.0495264
0.0492201
0.0489631
0.0487533
0.0485876
0.0484626
0.0483739
0.0483181
0.060189
0.0613983
0.0625941
0.0637503
0.0648446
0.0658554
0.0667628
0.0675497
0.0682033
0.0687148
0.0690803
0.0693009
0.0693817
0.0693315
0.0691619
0.0688864
0.0685196
0.0680764
0.0675716
0.067019
0.066418
0.0657935
0.0651724
0.0645511
0.0639375
0.063339
0.0627618
0.0622114
0.0616922
0.0612082
0.0607624
0.0603573
0.0599946
0.0596754
0.0594
0.0591681
0.0589787
0.0588301
0.0587197
0.0586442
0.0586048
0.0737261
0.0745523
0.0753716
0.0761614
0.0769065
0.0775928
0.0782072
0.0787391
0.0791805
0.0795267
0.079776
0.0799298
0.0799919
0.0799688
0.0798681
0.0796986
0.07947
0.0791916
0.0788727
0.0785222
0.0781422
0.0777461
0.0773471
0.0769457
0.0765471
0.076156
0.0757765
0.0754121
0.0750659
0.0747407
0.0744388
0.0741621
0.0739123
0.0736904
0.0734974
0.0733336
0.0731989
0.0730927
0.0730136
0.0729597
0.0729378
0.0498365
0.0212225
0.0158146
0.0140936
0.0131954
0.0125417
0.0119617
0.011407
0.010858
0.010306
0.00974802
0.00918554
0.00862398
0.0080722
0.00754209
0.00704743
0.00660524
0.0513989
0.023226
0.016743
0.0143576
0.0131251
0.0122972
0.0116311
0.011033
0.0104627
0.00990229
0.0093452
0.00879219
0.00824898
0.00772467
0.00723075
0.00677989
0.00638644
0.0519227
0.0258047
0.0182109
0.0150551
0.0133776
0.0122957
0.0114805
0.0107913
0.0101644
0.00956989
0.00899588
0.00844082
0.00790912
0.00740863
0.00694915
0.00654114
0.00619517
0.0523277
0.0290492
0.0202093
0.0162097
0.0140048
0.0125852
0.011548
0.0107088
0.0099803
0.00931958
0.00870725
0.00813698
0.00760944
0.00712892
0.00670172
0.00633455
0.00603482
0.0530064
0.0332405
0.0228521
0.0178729
0.0150344
0.0131813
0.0118407
0.0107876
0.00990986
0.00915031
0.00847913
0.00788188
0.00735234
0.00688869
0.00649174
0.00616333
0.00590669
0.0540368
0.038069
0.0261663
0.0200486
0.0164428
0.0140496
0.0123221
0.010994
0.00992611
0.00904248
0.0082988
0.0076684
0.00713478
0.00668749
0.00632023
0.00602915
0.00581203
0.0554534
0.0423883
0.029745
0.0225579
0.0181004
0.0150791
0.0128996
0.0112554
0.00997584
0.00896008
0.00814375
0.00748369
0.00695015
0.00652231
0.00618582
0.00593081
0.00575057
0.0572639
0.047306
0.0335183
0.0251593
0.019781
0.0160843
0.0134308
0.0114692
0.00998959
0.00885898
0.0079878
0.00731331
0.00679099
0.00638931
0.00608628
0.00586673
0.00572104
0.0594771
0.0530655
0.0374366
0.0276061
0.0212151
0.0168428
0.0137545
0.0115281
0.00990072
0.00870077
0.00781052
0.00714717
0.00665248
0.0062859
0.00601977
0.00583561
0.00572163
0.0620851
0.0589596
0.0409386
0.0294569
0.0220757
0.0171334
0.0137332
0.0113535
0.00966932
0.00846828
0.00760641
0.00698458
0.00653495
0.00621186
0.00598518
0.00583545
0.00575049
0.065032
0.0636908
0.0431532
0.030182
0.0220655
0.0168051
0.0133023
0.0109286
0.00930121
0.00817511
0.00738889
0.0068354
0.00644417
0.00616964
0.00598287
0.00586561
0.00580718
0.0681876
0.0658569
0.043321
0.0294377
0.0210767
0.0158643
0.0125134
0.0103152
0.00885158
0.00786311
0.00718585
0.00671603
0.00638845
0.00616262
0.00601351
0.00592582
0.0058906
0.07136
0.0648356
0.0412387
0.0272897
0.0192873
0.0145005
0.0115293
0.00963747
0.00840585
0.00758579
0.00702784
0.00664213
0.00637469
0.00619294
0.00607709
0.00601494
0.00599955
0.0743286
0.0610727
0.0373503
0.0241972
0.0171037
0.0130175
0.0105602
0.00902948
0.00804266
0.00738512
0.00693492
0.00662203
0.00640554
0.00626098
0.00617317
0.00613246
0.00613347
0.0768721
0.0555969
0.0324755
0.0209101
0.0149832
0.0116995
0.00977213
0.00857911
0.00780315
0.00727744
0.00691183
0.00665581
0.00647978
0.00636542
0.00630064
0.00627756
0.00629089
0.0787802
0.0492941
0.0275451
0.0179364
0.0132405
0.0107177
0.00924231
0.00831196
0.00768961
0.0072572
0.00695207
0.00673833
0.00659373
0.00650352
0.00645713
0.0064476
0.00646934
0.0798387
0.0427394
0.0233118
0.0155997
0.0120231
0.0101114
0.00895923
0.00820193
0.00767782
0.00730681
0.00704431
0.00686258
0.00674287
0.00667185
0.00663951
0.00663902
0.00666469
0.0798439
0.0362989
0.0199252
0.0140039
0.0113134
0.00981432
0.00885689
0.00820013
0.00773632
0.00740741
0.00717733
0.00702145
0.00692202
0.00686605
0.00684366
0.00684824
0.00687286
0.0786612
0.0309446
0.0175686
0.0130911
0.0109872
0.00971729
0.00886199
0.00826302
0.00784051
0.00754485
0.00734225
0.00720845
0.0071256
0.00708078
0.00706436
0.00707025
0.00709066
0.0762811
0.0267909
0.0161442
0.0126633
0.0108807
0.00971989
0.00892023
0.00836228
0.00797518
0.00771018
0.00753287
0.00741842
0.00734882
0.0073113
0.00729709
0.0073004
0.00731464
0.0728889
0.0237927
0.0153392
0.0124935
0.0108641
0.00975865
0.0090016
0.0084835
0.00813301
0.00789907
0.00774591
0.00764831
0.00758863
0.00755501
0.00753993
0.0075386
0.00754417
0.0688842
0.0217728
0.0149651
0.0124377
0.0108731
0.00981061
0.00909946
0.00862649
0.0083156
0.0081129
0.00798183
0.00789775
0.00784434
0.00781125
0.00779242
0.00778438
0.00777909
0.064788
0.0205822
0.0147965
0.0124076
0.0108844
0.00987391
0.00921899
0.00879768
0.00852824
0.00835523
0.00824284
0.00816825
0.00811719
0.00808106
0.00805525
0.00803698
0.00802027
0.0611067
0.0199193
0.0146996
0.0123759
0.0109033
0.00996177
0.00937356
0.00900756
0.00877829
0.00863111
0.00853271
0.00846308
0.0084103
0.00836754
0.00833159
0.00830115
0.00827101
0.058189
0.0195201
0.0146263
0.0123493
0.0109473
0.0100913
0.0095778
0.00926699
0.00907337
0.00894614
0.00885609
0.00878634
0.00872736
0.00867405
0.00862457
0.00857868
0.00853018
0.0560518
0.0193032
0.014586
0.0123577
0.0110473
0.0102861
0.00984649
0.009585
0.00941993
0.00930574
0.00921749
0.00914197
0.00907192
0.00900384
0.00893627
0.00886876
0.0087981
0.0546729
0.0192329
0.0145959
0.0124331
0.0112295
0.0105652
0.0101928
0.00997076
0.00982416
0.00971413
0.00962067
0.00953317
0.00944672
0.00935887
0.00926864
0.00917687
0.00908125
0.0540005
0.0192949
0.0146785
0.0126023
0.0115159
0.0109431
0.0106262
0.0104307
0.0102909
0.0101751
0.0100678
0.00996152
0.00985256
0.0097398
0.00962307
0.00950334
0.00937579
0.0539712
0.0194847
0.0148596
0.0128922
0.0119248
0.0114314
0.011154
0.0109699
0.0108237
0.0106909
0.0105605
0.0104277
0.0102897
0.0101466
0.00999837
0.00984454
0.00967925
0.0545187
0.0198058
0.0151683
0.0133284
0.012473
0.0120407
0.0117831
0.0115928
0.0114256
0.0112636
0.0110999
0.0109321
0.0107583
0.0105788
0.0103937
0.0102025
0.00999618
0.0555758
0.0202703
0.0156387
0.013938
0.0131778
0.0127818
0.0125206
0.0123043
0.0120998
0.0118955
0.0116877
0.0114759
0.0112586
0.0110362
0.0108093
0.0105765
0.0103232
0.0570792
0.0209006
0.0163124
0.014751
0.014058
0.0136669
0.0133748
0.0131106
0.0128514
0.0125906
0.0123271
0.0120614
0.0117926
0.01152
0.0112449
0.0109635
0.0106588
0.0589704
0.0217356
0.0172417
0.0158024
0.0151361
0.0147113
0.0143573
0.0140208
0.0136877
0.013355
0.0130231
0.0126929
0.0123633
0.0120324
0.0117015
0.0113652
0.0110081
0.0611875
0.0228392
0.0184933
0.017135
0.0164406
0.0159358
0.015484
0.015048
0.0146195
0.0141977
0.0137832
0.0133765
0.0129757
0.012577
0.0121816
0.0117834
0.0113733
0.0636507
0.0243131
0.0201535
0.0188045
0.0180097
0.017369
0.0167779
0.0162106
0.0156619
0.0151309
0.0146171
0.01412
0.0136357
0.0131581
0.0126883
0.0122202
0.0117565
0.0662377
0.0263167
0.0223383
0.0208861
0.0198969
0.0190515
0.0182703
0.0175331
0.016834
0.0161695
0.0155365
0.0149322
0.0143501
0.0137805
0.013225
0.0126815
0.0121632
0.0687677
0.0290978
0.0252098
0.0234865
0.0221785
0.0210397
0.0200035
0.0190474
0.0181597
0.0173313
0.0165546
0.0158228
0.0151257
0.0144491
0.0137973
0.0131742
0.0125944
0.071008
0.0330436
0.0290034
0.0267607
0.0249634
0.0234113
0.0220333
0.0207934
0.0196676
0.0186368
0.0176857
0.016802
0.0159693
0.0151693
0.0144119
0.0137039
0.01305
0.072695
0.0387666
0.0340723
0.0309391
0.0284071
0.0262727
0.0244326
0.0228213
0.021392
0.0201092
0.0189456
0.01788
0.0168878
0.0159485
0.0150774
0.0142736
0.0135306
0.0736121
0.0472566
0.0409727
0.0363731
0.0327362
0.0297713
0.0272978
0.0251941
0.0233741
0.0217752
0.0203512
0.0190676
0.0178893
0.016798
0.0158007
0.0148832
0.0140345
0.00665071
0.00717137
0.00801485
0.00976797
0.0140956
0.0278506
0.076746
0.219981
0.462614
0.510919
0.544112
0.608366
0.576303
0.42979
0.254076
0.121789
0.0498738
0.0200075
0.00990631
0.00694032
0.00646942
0.00701015
0.0079286
0.00983149
0.0144122
0.0280443
0.0716557
0.195357
0.427325
0.523666
0.559224
0.688148
0.698671
0.529673
0.312144
0.149726
0.0610944
0.0238282
0.0110576
0.00726686
0.00633891
0.00689474
0.00789251
0.00994245
0.0146791
0.0276137
0.0653159
0.169736
0.38677
0.538559
0.573462
0.744183
0.82616
0.643239
0.380209
0.18228
0.0741304
0.0283174
0.0124379
0.00766688
0.00626677
0.00684073
0.00792445
0.0101304
0.0149919
0.0271031
0.0594536
0.145736
0.338057
0.530396
0.576221
0.755817
0.955232
0.771598
0.459155
0.219845
0.0890039
0.0334701
0.0140478
0.00814375
0.00625873
0.00686127
0.00804407
0.010434
0.0154936
0.0272087
0.0560565
0.12718
0.287382
0.493724
0.56175
0.72317
1.07216
0.911924
0.549898
0.262336
0.105743
0.0392509
0.0158764
0.00870047
0.00632045
0.00697094
0.00828263
0.0109321
0.0165288
0.0292976
0.0582971
0.119412
0.244273
0.433521
0.528492
0.683144
1.15871
1.06102
0.652034
0.310211
0.124258
0.04559
0.0178944
0.00933154
0.00646037
0.00719195
0.00869959
0.0118405
0.0190134
0.0360257
0.0706681
0.128341
0.222184
0.371669
0.486316
0.634519
1.20407
1.21238
0.763952
0.363372
0.144409
0.0523813
0.0200576
0.0100266
0.00669164
0.00755728
0.00940005
0.0136995
0.0248904
0.0511604
0.0972671
0.157626
0.233119
0.345509
0.458709
0.612227
1.21895
1.35686
0.883809
0.42141
0.165981
0.0594848
0.0223083
0.0107694