/*--------------------------------*- C++ -*----------------------------------*\
  =========                 |
  \\      /  F ield         | OpenFOAM: The Open Source CFD Toolbox
   \\    /   O peration     | Website:  https://openfoam.org
    \\  /    A nd           | Version:  6
     \\/     M anipulation  |
\*---------------------------------------------------------------------------*/
FoamFile
{
    version     2.0;
    format      ascii;
    class       surfaceScalarField;
    location    "2.29";
    object      meshPhi;
}
// * * * * * * * * * * * * * * * * * * * * * * * * * * * * * * * * * * * * * //

dimensions      [0 3 -1 0 0 0 0];

internalField   nonuniform List<scalar> 
19800
(
-0.00121509
-0.000829714
-0.00256802
-0.00248672
-0.00405093
-0.00413643
-0.00565379
-0.005774
-0.00736452
-0.00739454
-0.00916912
-0.00899313
-0.0110519
-0.0105648
-0.0129955
-0.0121047
-0.0149814
-0.0136077
-0.0169898
-0.0150689
-0.0190004
-0.0164831
-0.0209921
-0.0178454
-0.0229436
-0.0191507
-0.0248336
-0.0203939
-0.0266415
-0.02157
-0.0283468
-0.0226741
-0.0299304
-0.0237012
-0.0313741
-0.0246466
-0.0326613
-0.0255058
-0.0337771
-0.0262741
-0.0347085
-0.0269473
-0.0354445
-0.0275214
-0.0359766
-0.0279926
-0.0362983
-0.0283576
-0.036406
-0.0286131
-0.0362983
-0.0287566
-0.0359766
-0.0287858
-0.0354445
-0.0286988
-0.0347085
-0.0284944
-0.0337771
-0.0281717
-0.0326613
-0.0277307
-0.0313741
-0.0271716
-0.0299304
-0.0264954
-0.0283468
-0.0257037
-0.0266415
-0.0247988
-0.0248336
-0.0237834
-0.0229436
-0.0226611
-0.0209921
-0.0214359
-0.0190004
-0.0201126
-0.0169898
-0.0186966
-0.0149814
-0.0171936
-0.0129955
-0.0156103
-0.0110519
-0.0139535
-0.00916912
-0.0122307
-0.00736452
-0.0104498
-0.00565379
-0.00861902
-0.00405093
-0.006747
-0.00256802
-0.0048426
-0.00121509
-0.00291492
6.90988e-14
-0.000973204
0.0010716
0.000973204
0.00199632
0.00291492
0.00277306
0.0048426
0.00340292
0.006747
0.00388917
0.00861902
0.00423712
0.0104498
0.00445402
0.0122307
0.00454886
0.0139535
0.0045322
0.0156103
0.00441593
0.0171936
0.00421308
0.0186966
0.00393754
0.0201126
0.0036038
0.0214359
0.00322668
0.0226611
0.00282108
0.0237834
0.00240168
0.0247988
0.0019827
0.0257037
0.00157763
0.0264954
0.00119901
0.0271716
0.000858166
0.0277307
0.000565065
0.0281717
0.000328102
0.0284944
0.000153963
0.0286988
4.7511e-05
0.0287858
1.1697e-05
0.0287566
4.7511e-05
0.0286131
0.000153963
0.0283576
0.000328102
0.0279926
0.000565065
0.0275214
0.000858166
0.0269473
0.00119901
0.0262741
0.00157763
0.0255058
0.0019827
0.0246466
0.00240168
0.0237012
0.00282108
0.0226741
0.00322668
0.02157
0.0036038
0.0203939
0.00393754
0.0191507
0.00421308
0.0178454
0.00441593
0.0164831
0.0045322
0.0150689
0.00454886
0.0136077
0.00445402
0.0121047
0.00423712
0.0105648
0.00388917
0.00899313
0.00340292
0.00739454
0.00277306
0.005774
0.00199632
0.00413643
0.0010716
0.00248672
0.000829714
-0.00363962
-0.00151351
-0.00769055
-0.00453794
-0.0121293
-0.00755455
-0.0169257
-0.010558
-0.0220439
-0.0135427
-0.027442
-0.0165027
-0.033073
-0.019432
-0.0388852
-0.0223238
-0.0448232
-0.025171
-0.0508282
-0.0279661
-0.0568389
-0.0307009
-0.0627926
-0.0333666
-0.0686258
-0.0359541
-0.0742751
-0.0384535
-0.0796784
-0.0408545
-0.0847751
-0.0431464
-0.0895077
-0.0453181
-0.0938223
-0.0473582
-0.097669
-0.0492548
-0.101003
-0.0509964
-0.103787
-0.0525709
-0.105986
-0.0539669
-0.107576
-0.0551728
-0.108537
-0.0561776
-0.108859
-0.0569707
-0.108537
-0.0575424
-0.107576
-0.0578836
-0.105986
-0.0579863
-0.103787
-0.0578435
-0.101003
-0.0574496
-0.097669
-0.0568
-0.0938223
-0.055892
-0.0895077
-0.0547241
-0.0847751
-0.0532968
-0.0796784
-0.0516119
-0.0742751
-0.0496733
-0.0686258
-0.0474865
-0.0627926
-0.0450589
-0.0568389
-0.0423996
-0.0508282
-0.0395197
-0.0448232
-0.0364316
-0.0388852
-0.0331497
-0.033073
-0.0296897
-0.027442
-0.0260691
-0.0220439
-0.0223064
-0.0169257
-0.0184213
-0.0121293
-0.0144346
-0.00769055
-0.0103681
-0.00363962
-0.00624402
2.04215e-13
-0.00208521
0.00321141
0.00208521
0.00598448
0.00624402
0.0083158
0.0103681
0.0102086
0.0144346
0.0116727
0.0184213
0.0127238
0.0223064
0.0133835
0.0260691
0.0136786
0.0296897
0.0136405
0.0331497
0.0133047
0.0364316
0.01271
0.0395197
0.0118979
0.0423996
0.0109115
0.0450589
0.00979504
0.0474865
0.00859292
0.0496733
0.00734894
0.0516119
0.0061055
0.0532968
0.00490283
0.0547241
0.00377829
0.055892
0.00276573
0.0568
0.00189482
0.0574496
0.00119062
0.0578435
0.000673066
0.0579863
0.000356661
0.0578836
0.000250209
0.0575424
0.000356661
0.0569707
0.000673066
0.0561776
0.00119062
0.0551728
0.00189482
0.0539669
0.00276573
0.0525709
0.00377829
0.0509964
0.00490283
0.0492548
0.0061055
0.0473582
0.00734894
0.0453181
0.00859292
0.0431464
0.00979504
0.0408545
0.0109115
0.0384535
0.0118979
0.0359541
0.01271
0.0333666
0.0133047
0.0307009
0.0136405
0.0279661
0.0136786
0.025171
0.0133835
0.0223238
0.0127238
0.019432
0.0116727
0.0165027
0.0102086
0.0135427
0.0083158
0.010558
0.00598448
0.00755455
0.00321141
0.00453794
0.00151351
-0.00604726
-0.00205123
-0.0127726
-0.00615314
-0.0201372
-0.0102533
-0.0280912
-0.0143502
-0.036575
-0.0184417
-0.0455196
-0.0225249
-0.0548472
-0.0265958
-0.0644725
-0.0306495
-0.0743038
-0.0346796
-0.084244
-0.0386783
-0.0941921
-0.0426362
-0.104044
-0.0465423
-0.113696
-0.0503842
-0.123042
-0.0541475
-0.131981
-0.0578165
-0.140411
-0.0613739
-0.148239
-0.0648009
-0.155374
-0.0680776
-0.161736
-0.0711829
-0.16725
-0.0740951
-0.171853
-0.0767915
-0.17549
-0.0792494
-0.178119
-0.0814457
-0.179709
-0.0833577
-0.180241
-0.0849633
-0.179709
-0.0862412
-0.178119
-0.0871712
-0.17549
-0.0877345
-0.171853
-0.0879145
-0.16725
-0.0876963
-0.161736
-0.0870675
-0.155374
-0.0860184
-0.148239
-0.0845421
-0.140411
-0.0826348
-0.131981
-0.080296
-0.123042
-0.0775284
-0.113696
-0.0743383
-0.104044
-0.0707355
-0.0941921
-0.0667331
-0.084244
-0.0623481
-0.0743038
-0.0576004
-0.0644725
-0.0525136
-0.0548472
-0.0471141
-0.0455196
-0.0414313
-0.036575
-0.0354972
-0.0280912
-0.0293464
-0.0201372
-0.0230154
-0.0127726
-0.0165422
-0.00604726
-0.00996659
3.32908e-13
-0.00332909
0.00534108
0.00332909
0.0099591
0.00996659
0.0138483
0.0165422
0.0170138
0.0230154
0.0194715
0.0293464
0.0212473
0.0354972
0.0223766
0.0414313
0.0229033
0.0471141
0.0228793
0.0525136
0.0223628
0.0576004
0.0214177
0.0623481
0.0201122
0.0667331
0.0185174
0.0707355
0.016706
0.0743383
0.0147511
0.0775284
0.012725
0.080296
0.0106973
0.0826348
0.00873437
0.0845421
0.00689776
0.0860184
0.00524316
0.0870675
0.00381949
0.0876963
0.00266799
0.0879145
0.00182153
0.0877345
0.00130397
0.0871712
0.00112983
0.0862412
0.00130397
0.0849633
0.00182153
0.0833577
0.00266799
0.0814457
0.00381949
0.0792494
0.00524316
0.0767915
0.00689776
0.0740951
0.00873437
0.0711829
0.0106973
0.0680776
0.012725
0.0648009
0.0147511
0.0613739
0.016706
0.0578165
0.0185174
0.0541475
0.0201122
0.0503842
0.0214177
0.0465423
0.0223628
0.0426362
0.0228793
0.0386783
0.0229033
0.0346796
0.0223766
0.0306495
0.0212473
0.0265958
0.0194715
0.0225249
0.0170138
0.0184417
0.0138483
0.0143502
0.0099591
0.0102533
0.00534108
0.00615314
0.00205123
-0.00842685
-0.00244491
-0.0177877
-0.00733839
-0.0280284
-0.0122426
-0.0390803
-0.017164
-0.0508607
-0.0221079
-0.063274
-0.0270781
-0.076213
-0.0320766
-0.0895596
-0.0371029
-0.103187
-0.0421542
-0.116962
-0.0472249
-0.130743
-0.0523063
-0.144389
-0.0573866
-0.157755
-0.0624506
-0.170695
-0.06748
-0.183069
-0.0724534
-0.194738
-0.0773462
-0.205572
-0.0821307
-0.215447
-0.0867768
-0.22425
-0.091252
-0.231879
-0.0955214
-0.238247
-0.099549
-0.243279
-0.103297
-0.246916
-0.106728
-0.249116
-0.109803
-0.249852
-0.112485
-0.249116
-0.114736
-0.246916
-0.11652
-0.243279
-0.117806
-0.238247
-0.11856
-0.231879
-0.118757
-0.22425
-0.118371
-0.215447
-0.117383
-0.205572
-0.115778
-0.194738
-0.113544
-0.183069
-0.110676
-0.170695
-0.107174
-0.157755
-0.103045
-0.144389
-0.0982978
-0.130743
-0.0929511
-0.116962
-0.0870273
-0.103187
-0.0805548
-0.0895596
-0.0735674
-0.076213
-0.0661039
-0.063274
-0.0582081
-0.0508607
-0.049928
-0.0390803
-0.0413158
-0.0280284
-0.032427
-0.0177877
-0.02332
-0.00842685
-0.0140555
4.54705e-13
-0.00469578
0.00745385
0.00469578
0.013911
0.0140555
0.0193633
0.02332
0.0238173
0.032427
0.0272945
0.0413158
0.0298304
0.049928
0.0314733
0.0582081
0.0322834
0.0661039
0.0323318
0.0735674
0.0316985
0.0805548
0.0304711
0.0870273
0.0287434
0.0929511
0.0266128
0.0982978
0.0241796
0.103045
0.0215442
0.107174
0.0188056
0.110676
0.01606
0.113544
0.0133984
0.115778
0.0109054
0.117383
0.00865769
0.118371
0.0067225
0.118757
0.00515657
0.11856
0.00400507
0.117806
0.00330087
0.11652
0.0030639
0.114736
0.00330087
0.112485
0.00400507
0.109803
0.00515657
0.106728
0.0067225
0.103297
0.00865769
0.099549
0.0109054
0.0955214
0.0133984
0.091252
0.01606
0.0867768
0.0188056
0.0821307
0.0215442
0.0773462
0.0241796
0.0724534
0.0266128
0.06748
0.0287434
0.0624506
0.0304711
0.0573866
0.0316985
0.0523063
0.0323318
0.0472249
0.0322834
0.0421542
0.0314733
0.0371029
0.0298304
0.0320766
0.0272945
0.0270781
0.0238173
0.0221079
0.0193633
0.017164
0.013911
0.0122426
0.00745385
0.00733839
0.00244491
-0.0107674
-0.00269876
-0.0227096
-0.00810618
-0.0357578
-0.0135429
-0.0498249
-0.0190273
-0.0648063
-0.024576
-0.080581
-0.030203
-0.0970134
-0.0359193
-0.113955
-0.0417325
-0.131244
-0.0476457
-0.148713
-0.0536575
-0.166186
-0.0597619
-0.183481
-0.0659473
-0.200416
-0.0721972
-0.216808
-0.0784893
-0.23248
-0.0847963
-0.247256
-0.0910856
-0.260973
-0.0973196
-0.273474
-0.103456
-0.284617
-0.109449
-0.294274
-0.115249
-0.302333
-0.120803
-0.308701
-0.126055
-0.313303
-0.130949
-0.316086
-0.135427
-0.317018
-0.139432
-0.316086
-0.142907
-0.313303
-0.145798
-0.308701
-0.148052
-0.302333
-0.149621
-0.294274
-0.15046
-0.284617
-0.15053
-0.273474
-0.149797
-0.260973
-0.148234
-0.247256
-0.145822
-0.23248
-0.142547
-0.216808
-0.138406
-0.200416
-0.133401
-0.183481
-0.127545
-0.166186
-0.120859
-0.148713
-0.113371
-0.131244
-0.105119
-0.113955
-0.0961477
-0.0970134
-0.0865102
-0.080581
-0.0762665
-0.0648063
-0.0654833
-0.0498249
-0.0542331
-0.0357578
-0.0425935
-0.0227096
-0.0306465
-0.0107674
-0.0184774
5.69197e-13
-0.00617411
0.00954296
0.00617411
0.017831
0.0184774
0.0248531
0.0306465
0.030617
0.0425935
0.0351492
0.0542331
0.0384935
0.0654833
0.0407103
0.0762665
0.0418748
0.0865102
0.0420757
0.0961477
0.0414132
0.105119
0.0399971
0.113371
0.0379448
0.120859
0.0353786
0.127545
0.032424
0.133401
0.0292071
0.138406
0.0258522
0.142547
0.0224797
0.145822
0.019204
0.148234
0.0161313
0.149797
0.0133577
0.15053
0.0109678
0.15046
0.00903257
0.149621
0.00760891
0.148052
0.006738
0.145798
0.0064449
0.142907
0.006738
0.139432
0.00760891
0.135427
0.00903257
0.130949
0.0109678
0.126055
0.0133577
0.120803
0.0161313
0.115249
0.019204
0.109449
0.0224797
0.103456
0.0258522
0.0973196
0.0292071
0.0910856
0.032424
0.0847963
0.0353786
0.0784893
0.0379448
0.0721972
0.0399971
0.0659473
0.0414132
0.0597619
0.0420757
0.0536575
0.0418748
0.0476457
0.0407103
0.0417325
0.0384935
0.0359193
0.0351492
0.030203
0.030617
0.024576
0.0248531
0.0190273
0.017831
0.0135429
0.00954296
0.00810618
0.00269876
-0.0130583
-0.00281902
-0.0275131
-0.00847509
-0.0432816
-0.0141847
-0.0602593
-0.0199819
-0.0783208
-0.0258979
-0.0973212
-0.0319605
-0.117098
-0.038193
-0.137474
-0.0446133
-0.158256
-0.0512332
-0.179244
-0.0580579
-0.200226
-0.0650851
-0.220988
-0.0723053
-0.24131
-0.0797009
-0.260976
-0.0872462
-0.279771
-0.094908
-0.29749
-0.102645
-0.313934
-0.110409
-0.328919
-0.118143
-0.342273
-0.125788
-0.353846
-0.133274
-0.363503
-0.140531
-0.371132
-0.147481
-0.376647
-0.154047
-0.379981
-0.160149
-0.381097
-0.165706
-0.379981
-0.170638
-0.376647
-0.174867
-0.371132
-0.17832
-0.363503
-0.180925
-0.353846
-0.182618
-0.342273
-0.183342
-0.328919
-0.183046
-0.313934
-0.181689
-0.29749
-0.17924
-0.279771
-0.175676
-0.260976
-0.170987
-0.24131
-0.165174
-0.220988
-0.158248
-0.200226
-0.150233
-0.179244
-0.141164
-0.158256
-0.131089
-0.137474
-0.120064
-0.117098
-0.108159
-0.0973212
-0.0954512
-0.0783208
-0.0820282
-0.0602593
-0.0679854
-0.0432816
-0.0534255
-0.0275131
-0.038457
-0.0130583
-0.0231933
6.76077e-13
-0.00775102
0.0116016
0.00775102
0.0217095
0.0231933
0.0303092
0.038457
0.0374095
0.0534255
0.0430405
0.0679854
0.0472536
0.0820282
0.0501195
0.0954512
0.051727
0.108159
0.0521806
0.120064
0.0515988
0.131089
0.0501113
0.141164
0.0478568
0.150233
0.0449804
0.158248
0.0416306
0.165174
0.0379566
0.170987
0.0341057
0.175676
0.0302207
0.17924
0.0264371
0.181689
0.0228808
0.183046
0.0196659
0.183342
0.0168923
0.182618
0.0146446
0.180925
0.01299
0.17832
0.0119774
0.174867
0.0116366
0.170638
0.0119774
0.165706
0.01299
0.160149
0.0146446
0.154047
0.0168923
0.147481
0.0196659
0.140531
0.0228808
0.133274
0.0264371
0.125788
0.0302207
0.118143
0.0341057
0.110409
0.0379566
0.102645
0.0416306
0.094908
0.0449804
0.0872462
0.0478568
0.0797009
0.0501113
0.0723053
0.0515988
0.0650851
0.0521806
0.0580579
0.051727
0.0512332
0.0501195
0.0446133
0.0472536
0.038193
0.0430405
0.0319605
0.0374095
0.0258979
0.0303092
0.0199819
0.0217095
0.0141847
0.0116016
0.00847509
0.00281902
-0.015289
-0.00281382
-0.0321737
-0.00846936
-0.050558
-0.0142079
-0.0703209
-0.0200823
-0.0913176
-0.026142
-0.113381
-0.0324313
-0.136325
-0.0389887
-0.159943
-0.045845
-0.184017
-0.053023
-0.208313
-0.0605361
-0.232589
-0.0683879
-0.256599
-0.0765715
-0.280091
-0.0850692
-0.302816
-0.0938524
-0.324529
-0.102882
-0.344992
-0.112106
-0.363979
-0.121466
-0.381277
-0.130891
-0.396691
-0.140302
-0.410046
-0.149612
-0.421189
-0.158728
-0.429992
-0.16755
-0.436353
-0.175975
-0.4402
-0.183898
-0.441487
-0.191212
-0.4402
-0.19781
-0.436353
-0.203588
-0.429992
-0.208446
-0.421189
-0.21229
-0.410046
-0.215031
-0.396691
-0.216591
-0.381277
-0.2169
-0.363979
-0.2159
-0.344992
-0.213546
-0.324529
-0.209805
-0.302816
-0.204657
-0.280091
-0.198101
-0.256599
-0.190146
-0.232589
-0.18082
-0.208313
-0.170164
-0.184017
-0.158234
-0.159943
-0.145103
-0.136325
-0.130854
-0.113381
-0.115587
-0.0913176
-0.09941
-0.0703209
-0.0824451
-0.050558
-0.064822
-0.0321737
-0.0466785
-0.015289
-0.0281589
7.74985e-13
-0.00941167
0.0136231
0.00941167
0.0255365
0.0281589
0.0357225
0.0466785
0.0441894
0.064822
0.0509705
0.0824451
0.0561231
0.09941
0.0597269
0.115587
0.061882
0.130854
0.0627067
0.145103
0.0623354
0.158234
0.0609151
0.170164
0.0586036
0.18082
0.0555655
0.190146
0.0519696
0.198101
0.0479858
0.204657
0.0437817
0.209805
0.0395198
0.213546
0.0353542
0.2159
0.0314283
0.2169
0.0278721
0.216591
0.0247993
0.215031
0.0223064
0.21229
0.0204697
0.208446
0.0193452
0.203588
0.0189666
0.19781
0.0193452
0.191212
0.0204697
0.183898
0.0223064
0.175975
0.0247993
0.16755
0.0278721
0.158728
0.0314283
0.149612
0.0353542
0.140302
0.0395198
0.130891
0.0437817
0.121466
0.0479858
0.112106
0.0519696
0.102882
0.0555655
0.0938524
0.0586036
0.0850692
0.0609151
0.0765715
0.0623354
0.0683879
0.0627067
0.0605361
0.061882
0.053023
0.0597269
0.045845
0.0561231
0.0389887
0.0509705
0.0324313
0.0441894
0.026142
0.0357225
0.0200823
0.0255365
0.0142079
0.0136231
0.00846936
0.00281382
-0.0174495
-0.00269303
-0.036668
-0.00811841
-0.057547
-0.0136608
-0.0799504
-0.019395
-0.103716
-0.0253913
-0.128655
-0.0317135
-0.154561
-0.0384174
-0.181202
-0.0455496
-0.208334
-0.0531453
-0.235696
-0.0612282
-0.263019
-0.069809
-0.290027
-0.0788845
-0.316439
-0.0884377
-0.341979
-0.0984372
-0.366371
-0.108837
-0.389352
-0.119578
-0.410669
-0.130586
-0.430086
-0.141776
-0.447383
-0.15305
-0.462368
-0.1643
-0.474869
-0.175408
-0.484744
-0.186249
-0.491879
-0.196695
-0.496194
-0.20661
-0.497638
-0.215858
-0.496194
-0.224305
-0.491879
-0.231817
-0.484744
-0.238264
-0.474869
-0.243526
-0.462368
-0.247487
-0.447383
-0.250046
-0.430086
-0.251111
-0.410669
-0.250606
-0.389352
-0.248468
-0.366371
-0.244652
-0.341979
-0.239132
-0.316439
-0.231897
-0.290027
-0.222958
-0.263019
-0.212345
-0.235696
-0.200104
-0.208334
-0.186302
-0.181202
-0.171027
-0.154561
-0.154379
-0.128655
-0.136479
-0.103716
-0.11746
-0.0799504
-0.0974711
-0.057547
-0.0766711
-0.036668
-0.05523
-0.0174495
-0.0333251
8.65644e-13
-0.0111397
0.0156007
0.0111397
0.0293021
0.0333251
0.0410825
0.05523
0.0509494
0.0766711
0.0589378
0.0974711
0.0651097
0.11746
0.0695514
0.136479
0.0723725
0.154379
0.0737026
0.171027
0.073689
0.186302
0.0724935
0.200104
0.0702896
0.212345
0.0672586
0.222958
0.0635866
0.231897
0.0594606
0.239132
0.0550657
0.244652
0.050581
0.248468
0.0461768
0.250606
0.0420112
0.251111
0.0382277
0.250046
0.034952
0.247487
0.0322904
0.243526
0.0303274
0.238264
0.0291248
0.231817
0.0287197
0.224305
0.0291248
0.215858
0.0303274
0.20661
0.0322904
0.196695
0.034952
0.186249
0.0382277
0.175408
0.0420112
0.1643
0.0461768
0.15305
0.050581
0.141776
0.0550657
0.130586
0.0594606
0.119578
0.0635866
0.108837
0.0672586
0.0984372
0.0702896
0.0884377
0.0724935
0.0788845
0.073689
0.069809
0.0737026
0.0612282
0.0723725
0.0531453
0.0695514
0.0455496
0.0651097
0.0384174
0.0589378
0.0317135
0.0509494
0.0253913
0.0410825
0.019395
0.0293021
0.0136608
0.0156007
0.00811841
0.00269303
-0.0195302
-0.00246806
-0.0409741
-0.00745623
-0.0642117
-0.0125993
-0.0890929
-0.0179967
-0.115439
-0.023742
-0.143046
-0.0299207
-0.171684
-0.0366085
-0.201102
-0.043869
-0.231033
-0.0517523
-0.261192
-0.0602935
-0.291285
-0.0695115
-0.321011
-0.0794081
-0.350066
-0.0899674
-0.378146
-0.101155
-0.404953
-0.11292
-0.4302
-0.125193
-0.45361
-0.137886
-0.474927
-0.150896
-0.493914
-0.164108
-0.510358
-0.177389
-0.524074
-0.190596
-0.534908
-0.203579
-0.542736
-0.216178
-0.547468
-0.228227
-0.549052
-0.23956
-0.547468
-0.250009
-0.542736
-0.25941
-0.534908
-0.267602
-0.524074
-0.274435
-0.510358
-0.279765
-0.493914
-0.283464
-0.474927
-0.285418
-0.45361
-0.285528
-0.4302
-0.283715
-0.404953
-0.27992
-0.378146
-0.274106
-0.350066
-0.266257
-0.321011
-0.256381
-0.291285
-0.244509
-0.261192
-0.230697
-0.231033
-0.215021
-0.201102
-0.197581
-0.171684
-0.1785
-0.143046
-0.157919
-0.115439
-0.135997
-0.0890929
-0.112911
-0.0642117
-0.0888521
-0.0409741
-0.0640239
-0.0195302
-0.038639
9.47816e-13
-0.0129172
0.0175277
0.0129172
0.0329955
0.038639
0.0463777
0.0640239
0.0576798
0.0888521
0.0669373
0.112911
0.0742149
0.135997
0.079604
0.157919
0.0832208
0.1785
0.0852035
0.197581
0.0857095
0.215021
0.0849122
0.230697
0.0829973
0.244509
0.0801595
0.256381
0.0765984
0.266257
0.0725152
0.274106
0.0681087
0.27992
0.0635716
0.283715
0.0590869
0.285528
0.0548249
0.285418
0.0509399
0.283464
0.0475675
0.279765
0.0448218
0.274435
0.0427942
0.267602
0.0415507
0.25941
0.0411317
0.250009
0.0415507
0.23956
0.0427942
0.228227
0.0448218
0.216178
0.0475675
0.203579
0.0509399
0.190596
0.0548249
0.177389
0.0590869
0.164108
0.0635716
0.150896
0.0681087
0.137886
0.0725152
0.125193
0.0765984
0.11292
0.0801595
0.101155
0.0829973
0.0899674
0.0849122
0.0794081
0.0857095
0.0695115
0.0852035
0.0602935
0.0832208
0.0517523
0.079604
0.043869
0.0742149
0.0366085
0.0669373
0.0299207
0.0576798
0.023742
0.0463777
0.0179967
0.0329955
0.0125993
0.0175277
0.00745623
0.00246806
-0.021522
-0.00215164
-0.0450713
-0.00652077
-0.0705174
-0.011086
-0.0976981
-0.0159733
-0.126421
-0.0213017
-0.156465
-0.0271804
-0.187585
-0.0337064
-0.219512
-0.0409624
-0.251958
-0.0490146
-0.284619
-0.0579108
-0.317181
-0.0676791
-0.349321
-0.0783271
-0.380715
-0.0898406
-0.411038
-0.102183
-0.439971
-0.115297
-0.467208
-0.129103
-0.492455
-0.1435
-0.515436
-0.158368
-0.535899
-0.173569
-0.553618
-0.188948
-0.568394
-0.204336
-0.580064
-0.219552
-0.588494
-0.234405
-0.593591
-0.248699
-0.595296
-0.262234
-0.593591
-0.274808
-0.588494
-0.286223
-0.580064
-0.296286
-0.568394
-0.304815
-0.553618
-0.311636
-0.535899
-0.316593
-0.515436
-0.319546
-0.492455
-0.320375
-0.467208
-0.318982
-0.439971
-0.315293
-0.411038
-0.309258
-0.380715
-0.300856
-0.349321
-0.290092
-0.317181
-0.277
-0.284619
-0.26164
-0.251958
-0.2441
-0.219512
-0.224497
-0.187585
-0.20297
-0.156465
-0.179684
-0.126421
-0.154826
-0.0976981
-0.128602
-0.0705174
-0.101236
-0.0450713
-0.0729672
-0.021522
-0.0440442
1.02139e-12
-0.0147256
0.0193973
0.0147256
0.0366059
0.0440442
0.0515953
0.0729672
0.0643682
0.101236
0.0749594
0.128602
0.0834343
0.154826
0.0898869
0.179684
0.0944376
0.20297
0.0972303
0.224497
0.0984293
0.2441
0.0982159
0.26164
0.0967846
0.277
0.0943397
0.290092
0.0910907
0.300856
0.0872491
0.309258
0.0830236
0.315293
0.0786171
0.318982
0.0742222
0.320375
0.0700181
0.319546
0.0661673
0.316593
0.0628123
0.311636
0.0600738
0.304815
0.0580476
0.296286
0.0568037
0.286223
0.0563843
0.274808
0.0568037
0.262234
0.0580476
0.248699
0.0600738
0.234405
0.0628123
0.219552
0.0661673
0.204336
0.0700181
0.188948
0.0742222
0.173569
0.0786171
0.158368
0.0830236
0.1435
0.0872491
0.129103
0.0910907
0.115297
0.0943397
0.102183
0.0967846
0.0898406
0.0982159
0.0783271
0.0984293
0.0676791
0.0972303
0.0579108
0.0944376
0.0490146
0.0898869
0.0409624
0.0834343
0.0337064
0.0749594
0.0271804
0.0643682
0.0213017
0.0515953
0.0159733
0.0366059
0.011086
0.0193973
0.00652077
0.00215164
-0.0234164
-0.00175757
-0.0489406
-0.00535321
-0.076433
-0.00918861
-0.105721
-0.013418
-0.136599
-0.0181872
-0.168835
-0.0236307
-0.202169
-0.0298684
-0.236316
-0.0370032
-0.270973
-0.0451184
-0.305822
-0.0542755
-0.34053
-0.064513
-0.37476
-0.0758444
-0.408168
-0.0882579
-0.440416
-0.101715
-0.471168
-0.116153
-0.500102
-0.13148
-0.526909
-0.147583
-0.551302
-0.164324
-0.573015
-0.181543
-0.591811
-0.19906
-0.607482
-0.216679
-0.619856
-0.234189
-0.628794
-0.251367
-0.634197
-0.267984
-0.636005
-0.283804
-0.634197
-0.298591
-0.628794
-0.312113
-0.619856
-0.324141
-0.607482
-0.334461
-0.591811
-0.342867
-0.573015
-0.349175
-0.551302
-0.353217
-0.526909
-0.35485
-0.500102
-0.353956
-0.471168
-0.350445
-0.440416
-0.344257
-0.408168
-0.335361
-0.37476
-0.323761
-0.34053
-0.30949
-0.305822
-0.292617
-0.270973
-0.27324
-0.236316
-0.251491
-0.202169
-0.227529
-0.168835
-0.201543
-0.136599
-0.173746
-0.105721
-0.144376
-0.076433
-0.11369
-0.0489406
-0.081963
-0.0234164
-0.049482
1.08642e-12
-0.0165449
0.0212029
0.0165449
0.0401218
0.049482
0.0567211
0.081963
0.0709997
0.11369
0.0829899
0.144376
0.0927561
0.173746
0.100393
0.201543
0.106021
0.227529
0.109788
0.251491
0.111861
0.27324
0.112426
0.292617
0.111683
0.30949
0.109841
0.323761
0.107115
0.335361
0.103724
0.344257
0.0998822
0.350445
0.095799
0.353956
0.0916731
0.35485
0.0876893
0.353217
0.0840153
0.349175
0.0807984
0.342867
0.0781629
0.334461
0.0762081
0.324141
0.0750059
0.312113
0.0746003
0.298591
0.0750059
0.283804
0.0762081
0.267984
0.0781629
0.251367
0.0807984
0.234189
0.0840153
0.216679
0.0876893
0.19906
0.0916731
0.181543
0.095799
0.164324
0.0998822
0.147583
0.103724
0.13148
0.107115
0.116153
0.109841
0.101715
0.111683
0.0882579
0.112426
0.0758444
0.111861
0.064513
0.109788
0.0542755
0.106021
0.0451184
0.100393
0.0370032
0.0927561
0.0298684
0.0829899
0.0236307
0.0709997
0.0181872
0.0567211
0.013418
0.0401218
0.00918861
0.0212029
0.00535321
0.00175757
-0.0252052
-0.0013005
-0.0525646
-0.00399721
-0.0819305
-0.00697902
-0.113121
-0.0104295
-0.145922
-0.0145225
-0.180089
-0.0194187
-0.215352
-0.0252617
-0.251417
-0.0321756
-0.287967
-0.0402616
-0.324672
-0.0495959
-0.361188
-0.0602274
-0.397164
-0.0721765
-0.432247
-0.085434
-0.466085
-0.09996
-0.498333
-0.115685
-0.528656
-0.132508
-0.556736
-0.150301
-0.582275
-0.168909
-0.605
-0.188149
-0.624666
-0.207817
-0.641059
-0.227688
-0.653999
-0.247521
-0.663346
-0.267061
-0.668995
-0.286043
-0.670885
-0.304198
-0.668995
-0.321252
-0.663346
-0.336938
-0.653999
-0.350993
-0.641059
-0.363167
-0.624666
-0.373224
-0.605
-0.380947
-0.582275
-0.386144
-0.556736
-0.388646
-0.528656
-0.388315
-0.498333
-0.385045
-0.466085
-0.378762
-0.432247
-0.369428
-0.397164
-0.357044
-0.361188
-0.341645
-0.324672
-0.323304
-0.287967
-0.302133
-0.251417
-0.278275
-0.215352
-0.251913
-0.180089
-0.223257
-0.145922
-0.192549
-0.113121
-0.160058
-0.0819305
-0.126075
-0.0525646
-0.0909112
-0.0252052
-0.0548919
1.14254e-12
-0.018355
0.022938
0.018355
0.0435316
0.0548919
0.0617397
0.0909112
0.0775562
0.126075
0.0910098
0.160058
0.102162
0.192549
0.111104
0.223257
0.117957
0.251913
0.122866
0.278275
0.125999
0.302133
0.127542
0.323304
0.127696
0.341645
0.126672
0.357044
0.124687
0.369428
0.121962
0.378762
0.118713
0.385045
0.115152
0.388315
0.11148
0.388646
0.107884
0.386144
0.104534
0.380947
0.101579
0.373224
0.099146
0.363167
0.0973346
0.350993
0.0962182
0.336938
0.095841
0.321252
0.0962182
0.304198
0.0973346
0.286043
0.099146
0.267061
0.101579
0.247521
0.104534
0.227688
0.107884
0.207817
0.11148
0.188149
0.115152
0.168909
0.118713
0.150301
0.121962
0.132508
0.124687
0.115685
0.126672
0.09996
0.127696
0.085434
0.127542
0.0721765
0.125999
0.0602274
0.122866
0.0495959
0.117957
0.0402616
0.111104
0.0321756
0.102162
0.0252617
0.0910098
0.0194187
0.0775562
0.0145225
0.0617397
0.0104295
0.0435316
0.00697902
0.022938
0.00399721
0.0013005
-0.0268811
-0.000795638
-0.0559278
-0.00249811
-0.0869852
-0.00453193
-0.119864
-0.00711057
-0.154343
-0.0104365
-0.190172
-0.0146969
-0.22707
-0.02006
-0.264736
-0.0266713
-0.302848
-0.0346505
-0.341065
-0.0440887
-0.379038
-0.055046
-0.416408
-0.0675497
-0.452814
-0.0815934
-0.487897
-0.097136
-0.521306
-0.114102
-0.552699
-0.132381
-0.581754
-0.151831
-0.608167
-0.172277
-0.631659
-0.193517
-0.651981
-0.21532
-0.668916
-0.237435
-0.682281
-0.259587
-0.691933
-0.281491
-0.697766
-0.302847
-0.699718
-0.323348
-0.697766
-0.342688
-0.691933
-0.360561
-0.682281
-0.37667
-0.668916
-0.390729
-0.651981
-0.402472
-0.631659
-0.41165
-0.608167
-0.418043
-0.581754
-0.421458
-0.552699
-0.421737
-0.521306
-0.418756
-0.487897
-0.41243
-0.452814
-0.402712
-0.416408
-0.389598
-0.379038
-0.373125
-0.341065
-0.353374
-0.302848
-0.330464
-0.264736
-0.304557
-0.22707
-0.275852
-0.190172
-0.244585
-0.154343
-0.211026
-0.119864
-0.175473
-0.0869852
-0.138252
-0.0559278
-0.0997105
-0.0268811
-0.0602124
1.18994e-12
-0.0201354
0.0245959
0.0201354
0.046823
0.0602124
0.0666339
0.0997105
0.084017
0.138252
0.0989952
0.175473
0.111625
0.211026
0.121993
0.244585
0.130215
0.275852
0.136434
0.304557
0.140813
0.330464
0.143535
0.353374
0.144798
0.373125
0.14481
0.389598
0.143786
0.402712
0.141943
0.41243
0.139498
0.418756
0.13666
0.421737
0.133629
0.421458
0.130591
0.418043
0.127715
0.41165
0.125149
0.402472
0.123018
0.390729
0.121423
0.37667
0.120437
0.360561
0.120103
0.342688
0.120437
0.323348
0.121423
0.302847
0.123018
0.281491
0.125149
0.259587
0.127715
0.237435
0.130591
0.21532
0.133629
0.193517
0.13666
0.172277
0.139498
0.151831
0.141943
0.132381
0.143786
0.114102
0.14481
0.097136
0.144798
0.0815934
0.143535
0.0675497
0.140813
0.055046
0.136434
0.0440887
0.130215
0.0346505
0.121993
0.0266713
0.111625
0.02006
0.0989952
0.0146969
0.084017
0.0104365
0.0666339
0.00711057
0.046823
0.00453193
0.0245959
0.00249811
0.000795638
-0.0284374
-0.000258479
-0.0590164
-0.000902157
-0.0915763
-0.00192348
-0.125923
-0.00356588
-0.161829
-0.00606041
-0.199039
-0.00962111
-0.23727
-0.0144406
-0.276216
-0.0206861
-0.315549
-0.0284959
-0.354929
-0.0379759
-0.394
-0.0491976
-0.432403
-0.0621956
-0.469773
-0.0769666
-0.505749
-0.0934681
-0.539979
-0.111619
-0.572119
-0.1313
-0.601845
-0.152355
-0.628853
-0.17459
-0.652862
-0.197783
-0.673624
-0.221678
-0.690918
-0.245995
-0.704564
-0.270432
-0.714417
-0.294667
-0.72037
-0.318368
-0.722362
-0.341194
-0.72037
-0.362801
-0.714417
-0.382848
-0.704564
-0.401003
-0.690918
-0.416947
-0.673624
-0.43038
-0.652862
-0.441023
-0.628853
-0.44863
-0.601845
-0.452983
-0.572119
-0.453902
-0.539979
-0.451247
-0.505749
-0.44492
-0.469773
-0.434866
-0.432403
-0.421078
-0.394
-0.403594
-0.354929
-0.382498
-0.315549
-0.357923
-0.276216
-0.330043
-0.23727
-0.299078
-0.199039
-0.265287
-0.161829
-0.228966
-0.125923
-0.190445
-0.0915763
-0.150082
-0.0590164
-0.10826
-0.0284374
-0.0653823
1.22876e-12
-0.0218654
0.0261702
0.0218654
0.0499834
0.0653823
0.0713855
0.10826
0.090358
0.150082
0.106917
0.190445
0.121112
0.228966
0.133022
0.265287
0.142756
0.299078
0.150448
0.330043
0.156256
0.357923
0.160355
0.382498
0.162934
0.403594
0.164197
0.421078
0.164351
0.434866
0.163607
0.44492
0.162176
0.451247
0.160261
0.453902
0.158057
0.452983
0.155746
0.44863
0.153491
0.441023
0.151439
0.43038
0.149711
0.416947
0.148406
0.401003
0.147594
0.382848
0.147318
0.362801
0.147594
0.341194
0.148406
0.318368
0.149711
0.294667
0.151439
0.270432
0.153491
0.245995
0.155746
0.221678
0.158057
0.197783
0.160261
0.17459
0.162176
0.152355
0.163607
0.1313
0.164351
0.111619
0.164197
0.0934681
0.162934
0.0769666
0.160355
0.0621956
0.156256
0.0491976
0.150448
0.0379759
0.142756
0.0284959
0.133022
0.0206861
0.121112
0.0144406
0.106917
0.00962111
0.090358
0.00606041
0.0713855
0.00356588
0.0499834
0.00192348
0.0261702
0.000902157
0.000258479
-0.0298681
0.000295449
-0.0618187
0.000744355
-0.0956866
0.000770064
-0.131274
9.96702e-05
-0.168351
-0.00152606
-0.20666
-0.00434751
-0.245918
-0.00858143
-0.285816
-0.0144164
-0.32603
-0.022009
-0.366217
-0.03148
-0.406026
-0.0429122
-0.445098
-0.0563473
-0.483071
-0.0717852
-0.519587
-0.0891825
-0.554295
-0.108453
-0.586857
-0.129468
-0.616951
-0.152057
-0.644274
-0.176012
-0.66855
-0.201086
-0.689533
-0.227002
-0.707005
-0.253451
-0.720787
-0.280102
-0.730735
-0.306602
-0.736745
-0.332586
-0.738756
-0.357677
-0.736745
-0.381497
-0.730735
-0.403671
-0.720787
-0.423832
-0.707005
-0.441627
-0.689533
-0.456724
-0.66855
-0.468816
-0.644274
-0.477629
-0.616951
-0.482922
-0.586857
-0.484495
-0.554295
-0.48219
-0.519587
-0.475897
-0.483071
-0.465554
-0.445098
-0.451148
-0.406026
-0.432718
-0.366217
-0.410356
-0.32603
-0.384202
-0.285816
-0.354447
-0.245918
-0.321327
-0.20666
-0.285125
-0.168351
-0.246162
-0.131274
-0.204799
-0.0956866
-0.161425
-0.0618187
-0.116459
-0.0298681
-0.0703411
1.25895e-12
-0.0235249
0.0276547
0.0235249
0.0529999
0.0703411
0.0759747
0.116459
0.0965528
0.161425
0.114742
0.204799
0.130581
0.246162
0.144142
0.285125
0.155522
0.321327
0.164845
0.354447
0.172257
0.384202
0.177922
0.410356
0.182021
0.432718
0.184743
0.451148
0.186286
0.465554
0.186851
0.475897
0.186638
0.48219
0.18584
0.484495
0.184645
0.482922
0.183225
0.477629
0.181737
0.468816