/*--------------------------------*- C++ -*----------------------------------*\
  =========                 |
  \\      /  F ield         | OpenFOAM: The Open Source CFD Toolbox
   \\    /   O peration     | Website:  https://openfoam.org
    \\  /    A nd           | Version:  6
     \\/     M anipulation  |
\*---------------------------------------------------------------------------*/
FoamFile
{
    version     2.0;
    format      ascii;
    class       volScalarField;
    location    "2.93";
    object      p;
}
// * * * * * * * * * * * * * * * * * * * * * * * * * * * * * * * * * * * * * //

dimensions      [1 -1 -2 0 0 0 0];

internalField   nonuniform List<scalar> 
10000
(
1
1
1
1
1
1
1
1
1
1
1
1
1
1
1
1
1
1
1
1
1
1
1
1
1
1
1
1
1
1
1
1
1
1
1
1
1
1
1
1
1
1
1
1
1
0.999999
0.999998
0.999997
0.999995
0.999993
0.999991
0.999988
0.999985
0.999982
0.999979
0.999977
0.999976
0.999977
0.999979
0.999983
0.999988
0.999994
1
1.00001
1.00001
1.00002
1.00002
1.00002
1.00002
1.00002
1.00002
1.00002
1.00002
1.00001
1.00001
1.00001
1.00001
1
1
1
1
1
1
1
1
1
1
1
1
1
1
1
1
1
1
1
1
1
1
1
1
1
1
1
1
1
1
1
1
1
1
1
1
1
1
1
1
1
1
1
1
1
1
1
1
1
1
1
1
1
1
1
1
1
1
1
1
1
1
1
1
1
1
1
0.999999
0.999998
0.999997
0.999995
0.999993
0.99999
0.999986
0.999982
0.999977
0.999973
0.999969
0.999967
0.999966
0.999967
0.999971
0.999976
0.999983
0.999992
1
1.00001
1.00002
1.00003
1.00003
1.00004
1.00004
1.00004
1.00003
1.00003
1.00003
1.00002
1.00002
1.00001
1.00001
1.00001
1.00001
1
1
1
1
1
1
1
1
1
1
1
1
1
1
1
1
1
1
1
1
1
1
1
1
1
1
1
1
1
1
1
1
1
1
1
1
1
1
1
1
1
1
1
1
1
1
1
1
1
1
1
1
1
1
1
1
1
1
1
1
1
1
1
1
0.999999
0.999999
0.999998
0.999996
0.999993
0.99999
0.999985
0.999979
0.999973
0.999967
0.999961
0.999956
0.999953
0.999952
0.999955
0.99996
0.999968
0.999979
0.999993
1.00001
1.00002
1.00003
1.00004
1.00005
1.00006
1.00006
1.00006
1.00005
1.00005
1.00004
1.00003
1.00003
1.00002
1.00002
1.00001
1.00001
1
1
1
1
1
1
1
1
1
1
1
1
1
1
1
1
1
1
1
1
1
1
1
1
1
1
1
1
1
1
1
1
1
1
1
1
1
1
1
1
1
1
1
1
1
1
1
1
1
1
1
1
1
1
1
1
1
1
1
1
1
1
1
1
1
0.999999
0.999997
0.999994
0.99999
0.999985
0.999978
0.99997
0.999962
0.999953
0.999945
0.999939
0.999935
0.999935
0.99994
0.999949
0.999962
0.999978
0.999996
1.00002
1.00003
1.00005
1.00007
1.00008
1.00008
1.00008
1.00008
1.00008
1.00007
1.00006
1.00005
1.00004
1.00003
1.00002
1.00002
1.00001
1.00001
1
1
1
1
1
1
1
1
1
1
1
1
1
1
1
1
1
1
1
1
1
1
1
1
1
1
1
1
1
1
1
1
1
1
1
1
1
1
1
1
1
1
1
1
1
1
1
1
1
1
1
1
1
1
1
1
1
1
1
1
1
1
1
0.999999
0.999998
0.999995
0.999992
0.999986
0.999979
0.99997
0.999959
0.999947
0.999936
0.999926
0.999918
0.999915
0.999917
0.999925
0.99994
0.999959
0.999983
1.00001
1.00004
1.00006
1.00008
1.0001
1.00012
1.00012
1.00012
1.00012
1.00011
1.0001
1.00008
1.00007
1.00006
1.00004
1.00003
1.00002
1.00002
1.00001
1.00001
1
1
1
1
1
1
1
1
1
1
1
1
1
1
1
1
1
1
1
1
1
1
1
1
1
1
1
1
1
1
1
1
1
1
1
1
1
1
1
1
1
1
1
1
1
1
1
1
1
1
1
1
1
1
1
1
1
1
1
1
1
1
1
0.999998
0.999994
0.999989
0.999981
0.999972
0.999959
0.999945
0.99993
0.999915
0.999903
0.999896
0.999895
0.999901
0.999916
0.999939
0.999968
1
1.00004
1.00008
1.00011
1.00014
1.00016
1.00018
1.00018
1.00018
1.00017
1.00016
1.00014
1.00012
1.0001
1.00008
1.00006
1.00004
1.00003
1.00002
1.00001
1.00001
1
1
1
1
1
1
1
1
1
1
1
1
1
1
1
1
1
1
1
1
1
1
1
1
1
1
1
1
1
1
1
1
1
1
1
1
1
1
1
1
1
1
1
1
1
1
1
1
1
1
1
1
1
1
1
1
1
1
1
1
1
1
1
0.999997
0.999993
0.999986
0.999975
0.999962
0.999946
0.999928
0.999909
0.999893
0.999881
0.999876
0.999881
0.999896
0.999922
0.999959
1
1.00005
1.0001
1.00015
1.0002
1.00023
1.00026
1.00027
1.00028
1.00027
1.00025
1.00023
1.0002
1.00017
1.00014
1.00011
1.00008
1.00006
1.00004
1.00003
1.00002
1.00001
1.00001
1
1
1
1
0.999999
1
1
1
1
1
1
1
1
1
1
1
1
1
1
1
1
1
1
1
1
1
1
1
1
1
1
1
1
1
1
1
1
1
1
1
1
1
1
1
1
1
1
1
1
1
1
1
1
1
1
1
1
1
1
1
1
1
0.999997
0.999992
0.999983
0.999969
0.999952
0.999932
0.99991
0.999889
0.999873
0.999864
0.999867
0.999884
0.999915
0.999961
1.00002
1.00009
1.00016
1.00023
1.00029
1.00035
1.00039
1.00041
1.00042
1.00042
1.0004
1.00037
1.00033
1.00028
1.00024
1.00019
1.00015
1.00012
1.00008
1.00006
1.00004
1.00002
1.00001
1.00001
1
1
0.999999
0.999999
0.999999
0.999999
0.999999
1
1
1
1
1
1
1
1
1
1
1
1
1
1
1
1
1
1
1
1
1
1
1
1
1
1
1
1
1
1
1
1
1
1
1
1
1
1
1
1
1
1
1
1
1
1
1
1
1
1
1
1
1
1
1
0.999998
0.999991
0.999979
0.999962
0.999942
0.999918
0.999894
0.999874
0.999862
0.999864
0.999883
0.999923
0.999982
1.00006
1.00015
1.00026
1.00036
1.00046
1.00054
1.00061
1.00065
1.00067
1.00066
1.00064
1.0006
1.00054
1.00047
1.00041
1.00034
1.00027
1.00021
1.00016
1.00011
1.00008
1.00005
1.00003
1.00002
1.00001
1
1
0.999998
0.999998
0.999998
0.999999
0.999999
0.999999
0.999999
1
1
1
1
1
1
1
1
1
1
1
1
1
1
1
1
1
1
1
1
1
1
1
1
1
1
1
1
1
1
1
1
1
1
1
1
1
1
1
1
1
1
1
1
1
1
1
1
1
1.00001
1.00001
1.00001
1.00001
1
0.999991
0.999977
0.999957
0.999933
0.999908
0.999885
0.999871
0.999873
0.999897
0.999948
1.00003
1.00014
1.00027
1.00042
1.00057
1.00072
1.00085
1.00096
1.00103
1.00107
1.00108
1.00105
1.00098
1.0009
1.0008
1.00069
1.00058
1.00048
1.00038
1.00029
1.00021
1.00015
1.0001
1.00007
1.00004
1.00002
1.00001
1
0.999998
0.999997
0.999996
0.999997
0.999998
0.999998
0.999999
0.999999
0.999999
1
1
1
1
1
1
1
1
1
1
1
1
1
1
1
1
1
1
1
1
1
1
1
1
1
1
1
1
1
1
1
1
1
1
1
1
1
1
1
1
1
1
1
1
1
1
1
1.00001
1.00001
1.00001
1.00001
1.00001
1
0.999994
0.999977
0.999955
0.999931
0.999907
0.999893
0.999897
0.999928
0.999994
1.0001
1.00025
1.00044
1.00065
1.00088
1.00111
1.00133
1.00151
1.00165
1.00173
1.00176
1.00173
1.00165
1.00152
1.00137
1.0012
1.00102
1.00085
1.00068
1.00053
1.0004
1.00029
1.00021
1.00014
1.00009
1.00005
1.00002
1.00001
1
0.999995
0.999994
0.999994
0.999995
0.999996
0.999997
0.999998
0.999999
0.999999
1
1
1
1
1
1
1
1
1
1
1
1
1
1
1
1
1
1
1
1
1
1
1
1
1
1
1
1
1
1
1
1
1
1
1
1
1
1
1
1
1
1
1
1
1
1
1.00001
1.00001
1.00001
1.00002
1.00002
1.00002
1.00001
1
0.999983
0.99996
0.999939
0.999926
0.999933
0.999972
1.00006
1.0002
1.0004
1.00066
1.00097
1.00131
1.00167
1.00201
1.00231
1.00256
1.00274
1.00283
1.00283
1.00274
1.00258
1.00236
1.00209
1.00181
1.00152
1.00124
1.00098
1.00076
1.00057
1.00041
1.00028
1.00018
1.00011
1.00006
1.00003
1.00001
0.999997
0.999991
0.99999
0.99999
0.999992
0.999994
0.999995
0.999997
0.999998
0.999999
0.999999
1
1
1
1
1
1
1
1
1
1
1
1
1
1
1
1
1
1
1
1
1
1
1
1
1
1
1
1
1
1
1
1
1
1
1
1
1
1
1
1
1
1
1
1
1.00001
1.00001
1.00002
1.00002
1.00003
1.00003
1.00003
1.00002
1.00001
0.999996
0.999978
0.999969
0.99998
1.00003
1.00013
1.00031
1.00057
1.00092
1.00135
1.00185
1.00238
1.00291
1.00341
1.00384
1.00418
1.0044
1.00449
1.00444
1.00427
1.00399
1.00361
1.00318
1.00272
1.00226
1.00183
1.00144
1.00109
1.00081
1.00057
1.00039
1.00025
1.00015
1.00008
1.00003
1.00001
0.999992
0.999985
0.999984
0.999985
0.999988
0.999991
0.999993
0.999995
0.999997
0.999998
0.999999
0.999999
1
1
1
1
1
1
1
1
1
1
1
1
1
1
1
1
1
1
1
1
1
1
1
1
1
1
1
1
1
1
1
1
1
1
1
1
1
1
1
1
1
1
1.00001
1.00001
1.00001
1.00002
1.00003
1.00004
1.00004
1.00005
1.00004
1.00003
1.00002
1.00002
1.00003
1.00009
1.00021
1.00043
1.00076
1.00121
1.00179
1.00247
1.00322
1.00401
1.00479
1.0055
1.0061
1.00655
1.00683
1.00691
1.0068
1.00651
1.00605
1.00547
1.0048
1.00409
1.00338
1.00271
1.00211
1.00159
1.00116
1.00082
1.00055
1.00035
1.0002
1.00011
1.00004
1
0.999985
0.999977
0.999975
0.999978
0.999982
0.999986
0.99999
0.999993
0.999995
0.999997
0.999998
0.999999
0.999999
1
1
1
1
1
1
1
1
1
1
1
1
1
1
1
1
1
1
1
1
1
1
1
1
1
1
1
1
1
1
1
1
1
1
1
1
1
1
1
1
1.00001
1.00001
1.00001
1.00002
1.00003
1.00004
1.00005
1.00006
1.00007
1.00007
1.00007
1.00007
1.00009
1.00015
1.00029
1.00054
1.00093
1.00149
1.00222
1.00312
1.00416
1.00527
1.00641
1.0075
1.00847
1.00928
1.00987
1.01022
1.0103
1.01011
1.00966
1.00898
1.00812
1.00712
1.00606
1.00501
1.00401
1.00311
1.00233
1.00169
1.00118
1.00079
1.00049
1.00029
1.00015
1.00006
1
0.999977
0.999966
0.999964
0.999968
0.999974
0.99998
0.999986
0.99999
0.999993
0.999996
0.999997
0.999998
0.999999
1
1
1
1
1
1
1
1
1
1
1
1
1
1
1
1
1
1
1
1
1
1
1
1
1
1
1
1
1
1
1
1
1
1
1
1
1
1
1
1
1.00001
1.00001
1.00002
1.00003
1.00004
1.00006
1.00007
1.00009
1.0001
1.00011
1.00012
1.00015
1.00022
1.00036
1.00063
1.00107
1.00172
1.00262
1.00376
1.0051
1.00661
1.00819
1.00975
1.01122
1.01251
1.01355
1.0143
1.01471
1.01478
1.0145
1.01388
1.01295
1.01175
1.01035
1.00884
1.00732
1.00587
1.00455
1.00341
1.00247
1.00171
1.00114
1.00072
1.00042
1.00021
1.00008
1.00001
0.999969
0.999952
0.99995
0.999955
0.999964
0.999972
0.99998
0.999986
0.999991
0.999994
0.999996
0.999998
0.999999
0.999999
1
1
1
1
1
1
1
1
1
1
1
1
1
1
1
1
1
1
1
1
1
1
1
1
1
1
1
1
1
1
1
1
1
1
1
1
1
1
1.00001
1.00001
1.00002
1.00003
1.00004
1.00006
1.00008
1.0001
1.00012
1.00014
1.00017
1.0002
1.00027
1.00042
1.00069
1.00116
1.00189
1.00293
1.0043
1.00598
1.00791
1.00999
1.01212
1.01418
1.01606
1.01766
1.01893
1.01982
1.0203
1.02036
1.01999
1.01921
1.01803
1.01647
1.01463
1.0126
1.0105
1.00846
1.00659
1.00495
1.00359
1.0025
1.00166
1.00105
1.00061
1.00032
1.00013
1.00002
0.999962
0.999938
0.999933
0.99994
0.99995
0.999962
0.999972
0.999981
0.999987
0.999992
0.999995
0.999997
0.999998
0.999999
0.999999
1
1
1
1
1
1
1
1
1
1
1
1
1
1
1
1
1
1
1
1
1
1
1
1
1
1
1
1
1
1
1
1
1
1
1
1
1
1.00001
1.00001
1.00002
1.00004
1.00006
1.00008
1.00011
1.00014
1.00017
1.0002
1.00025
1.00032
1.00046
1.00073
1.00121
1.00197
1.00312
1.00468
1.00668
1.00905
1.01168
1.01443
1.01715
1.01969
1.02193
1.02379
1.02521
1.02617
1.02667
1.02672
1.02631
1.02543
1.02407
1.02224
1.01998
1.01741
1.01467
1.01194
1.00938
1.0071
1.00517
1.00362
1.00242
1.00153
1.00091
1.00048
1.00021
1.00005
0.999962
0.999924
0.999915
0.999921
0.999935
0.999949
0.999963
0.999974
0.999983
0.999989
0.999993
0.999996
0.999997
0.999999
0.999999
1
1
1
1
1
1
1
1
1
1
1
1
1
1
1
1
1
1
1
1
1
1
1
1
1
1
1
1
1
1
1
1
1
1
1
1
1.00001
1.00001
1.00002
1.00003
1.00005
1.00007
1.0001
1.00014
1.00018
1.00023
1.00028
1.00036
1.0005
1.00075
1.0012
1.00197
1.00316
1.00487
1.00713
1.00992
1.01309
1.01649
1.01991
1.02315
1.02604
1.02848
1.03041
1.03181
1.03272
1.03317
1.03319
1.03279
1.03195
1.0306
1.02869
1.0262
1.0232
1.01986
1.0164
1.01304
1.00998
1.00734
1.00518
1.00349
1.00224
1.00134
1.00073
1.00034
1.0001
0.999974
0.999914
0.999896
0.9999
0.999916
0.999934
0.999951
0.999966
0.999977
0.999985
0.999991
0.999994
0.999997
0.999998
0.999999
0.999999
1
1
1
1
1
1
1
1
1
1
1
1
1
1
1
1
1
1
1
1
1
1
1
1
1
1
1
1
1
1
1
1
1
1
1
1.00001
1.00001
1.00002
1.00004
1.00006
1.00009
1.00013
1.00018
1.00023
1.0003
1.00038
1.00051
1.00074
1.00116
1.00188
1.00306
1.00483
1.00728
1.01041
1.0141
1.01814
1.02227
1.0262
1.02973
1.03268
1.03499
1.03666
1.03777
1.03841
1.03867
1.03864
1.03834
1.03774
1.0367
1.03506
1.03271
1.0296
1.02587
1.02177
1.01761
1.01368
1.01019
1.00728
1.00497
1.00322
1.00196
1.0011
1.00054
1.0002
1.00001
0.999912
0.999879
0.999879
0.999895
0.999917
0.999938
0.999956
0.99997
0.99998
0.999988
0.999992
0.999996
0.999997
0.999999
0.999999
1
1
1
1
1
1
1
1
1
1
1
1
1
1
1
1
1
1
1
1
1
1
1
1
1
1
1
1
1
1
1
1
1
1
1.00001
1.00001
1.00002
1.00003
1.00005
1.00008
1.00012
1.00017
1.00023
1.0003
1.00039
1.00051
1.00072
1.00109
1.00174
1.00284
1.00457
1.00709
1.01046
1.01459
1.01923
1.02405
1.02867
1.03278
1.03615
1.03867
1.04037
1.04134
1.04178
1.04187
1.04179
1.04166
1.04155
1.04141
1.04105
1.04019
1.03853
1.03587
1.03222
1.0278
1.02299
1.0182
1.01379
1.01
1.00692
1.00456
1.00283
1.00163
1.00084
1.00035
1.00007
0.999925
0.999867
0.999858
0.999873
0.999897
0.999923
0.999945
0.999962
0.999975
0.999984
0.99999
0.999994
0.999997
0.999998
0.999999
0.999999
1
1
1
1
1
1
1
1
1
1
1
1
1
1
1
1
1
1
1
1
1
1
1
1
1
1
1
1
1
1
1
1
1
1.00001
1.00001
1.00002
1.00004
1.00007
1.0001
1.00015
1.00021
1.00029
1.00038
1.0005
1.00069
1.001
1.00156
1.00254
1.00415
1.00661
1.01006
1.01449
1.01965
1.02512
1.03042
1.03509
1.03879
1.04137
1.04283
1.04332
1.0431
1.04248
1.04175
1.04115
1.04087
1.04101
1.04153
1.04222
1.04268
1.0424
1.04094
1.03808
1.03392
1.02885
1.0234
1.01811
1.01337
1.00942
1.00631
1.00399
1.00236
1.00127
1.00058
1.00018
0.999961
0.999866
0.999841
0.999851
0.999876
0.999905
0.999932
0.999953
0.999969
0.99998
0.999988
0.999993
0.999996
0.999998
0.999999
0.999999
1
1
1
1
1
1
1
1
1
1
1
1
1
1
1
1
1
1
1
1
1
1
1
1
1
1
1
1
1
1
1
1
1
1.00001
1.00002
1.00003
1.00005
1.00008
1.00012
1.00018
1.00026
1.00035
1.00047
1.00064
1.00091
1.00137
1.0022
1.00361
1.00588
1.00924
1.01379
1.01933
1.0254
1.03136
1.0366
1.04062
1.04317
1.04421
1.04393
1.04266
1.04082
1.03883
1.03707
1.03584
1.03537
1.03578
1.03708
1.03906
1.04127
1.04301
1.04356
1.04238
1.03931
1.03463
1.02896
1.023
1.01736
1.01247
1.00851
1.00549
1.00333
1.00185
1.00091
1.00034
1.00003
0.999882
0.99983
0.999831
0.999856
0.999887
0.999918
0.999943
0.999962
0.999976
0.999985
0.999991
0.999995
0.999997
0.999998
0.999999
1
1
1
1
1
1
1
1
1
1
1
1
1
1
1
1
1
1
1
1
1
1
1
1
1
1
1
1
1
1
1
1
1.00001
1.00001
1.00002
1.00004
1.00006
1.0001
1.00015
1.00022
1.00031
1.00043
1.00058
1.00081
1.00119
1.00186
1.00304
1.00502
1.00811
1.01254
1.01825
1.0248
1.03143
1.03729
1.04169
1.04424
1.04483
1.04364
1.04109
1.03767
1.03396
1.03047
1.02762
1.02574
1.02504
1.02571
1.02779
1.03113
1.03528
1.03945
1.04268
1.04404
1.043
1.03959
1.03436
1.02815
1.02182
1.01603
1.01117
1.00736
1.00457
1.00263
1.00136
1.00058
1.00014
0.999921
0.999832
0.999816
0.999836
0.999869
0.999903
0.999932
0.999954
0.99997
0.999982
0.999989
0.999994
0.999996
0.999998
0.999999
0.999999
1
1
1
1
1
1
1
1
1
1
1
1
1
1
1
1
1
1
1
1
1
1
1
1
1
1
1
1
1
1
1
1.00001
1.00001
1.00002
1.00004
1.00007
1.00012
1.00018
1.00026
1.00037
1.00051
1.00071
1.00101
1.00154
1.00248
1.00412
1.0068
1.01088
1.01649
1.02332
1.03056
1.03713
1.04208
1.04478
1.04503
1.043
1.03912
1.03401
1.02834
1.02277
1.01784
1.01398
1.01149
1.01059
1.01148
1.01424
1.01883
1.02485
1.03154
1.03777
1.0423
1.04415
1.04293
1.03897
1.03314
1.02649
1.01997
1.01424
1.00959
1.00609
1.00361
1.00195
1.00091
1.00031
0.99999
0.99985
0.99981
0.99982
0.999852
0.999888
0.99992
0.999946
0.999965
0.999978
0.999987
0.999992
0.999996
0.999998
0.999999
0.999999
1
1
1
1
1
1
1
1
1
1
1
1
1
1
1
1
1
1
1
1
1
1
1
1
1
1
1
1
1
1
1
1.00001
1.00002
1.00003
1.00005
1.00009
1.00014
1.00021
1.0003
1.00043
1.0006
1.00085
1.00127
1.00199
1.00327
1.00547
1.00901
1.0142
1.021
1.02869
1.03606
1.04177
1.04491
1.04512
1.04248
1.03745
1.03073
1.0231
1.01532
1.00807
1.00189
0.997171
0.994186
0.993132
0.994199
0.997547
1.00319
1.01086
1.01985
1.02903
1.03696
1.04225
1.04401
1.04218
1.03746
1.03103
1.0241
1.01762
1.01215
1.00789
1.0048
1.00269
1.00134
1.00054
1.0001
0.999889
0.999814
0.99981
0.999837
0.999874
0.999909
0.999938
0.999959
0.999974
0.999984
0.999991
0.999995
0.999997
0.999998
0.999999
1
1
1
1
1
1
1
1
1
1
1
1
1
1
1
1
1
1
1
1
1
1
1
1
1
1
1
1
1
1
1
1.00001
1.00002
1.00003
1.00006
1.0001
1.00016
1.00024
1.00035
1.0005
1.0007
1.00103
1.00157
1.00254
1.00424
1.00713
1.01165
1.01802
1.02585
1.03395
1.04068
1.04466
1.04523
1.0424
1.03659
1.02854
1.01913
1.00923
0.999609
0.990913
0.983659
0.978208
0.974797
0.973612
0.974861
0.978739
0.985316
0.994397
1.00539
1.01723
1.02842
1.0373
1.04253
1.04353
1.04067
1.03508
1.02816
1.02117
1.01496
1.00994
1.0062
1.00359
1.00188
1.00083
1.00025
0.999954
0.999833
0.999808
0.999827
0.999862
0.999899
0.99993
0.999954
0.999971
0.999982
0.999989
0.999994
0.999997
0.999998
0.999999
0.999999
1
1
1
1
1
1
1
1
1
1
1
1
1
1
1
1
1
1
1
1
1
1
1
1
1
1
1
1
1
1.00001
1.00001
1.00002
1.00004
1.00007
1.00011
1.00018
1.00027
1.00039
1.00056
1.00081
1.00122
1.00193
1.0032
1.00541
1.0091
1.01469
1.02219
1.03073
1.03857
1.04383
1.04533
1.04285
1.03679
1.02787
1.01704
1.00526
0.993386
0.982118
0.972073
0.963758
0.957539
0.953661
0.952338
0.953807
0.958283
0.965842
0.976299
0.989111
1.0033
1.01744
1.02976
1.03859
1.04285
1.04245
1.03831
1.03189
1.0247
1.0179
1.01219
1.00778
1.00463
1.00252
1.00121
1.00045
1.00005
0.99987
0.999815
0.999821
0.999853
0.999889
0.999922
0.999948
0.999967
0.99998
0.999988
0.999993
0.999996
0.999998
0.999999
0.999999
1
1
1
1
1
1
1
1
1
1
1
1
1
1
1
1
1
1
1
1
1
1
1
1
1
1
1
1
1
1.00001
1.00001
1.00002
1.00004
1.00008
1.00012
1.0002
1.0003
1.00044
1.00064
1.00094
1.00145
1.00236
1.00398
1.00679
1.01136
1.01805
1.0265
1.03524
1.04208
1.04515
1.04371
1.03803
1.02885
1.01713
1.00389
0.990034
0.976305
0.963331
0.951726
0.94206
0.934785
0.930242
0.928734
0.930544
0.935872
0.944714
0.956792
0.971518
0.987963
1.00479
1.02028
1.03259
1.04025
1.04271
1.04052
1.03506
1.02803
1.02087
1.01455
1.00951
1.0058
1.00327
1.00165
1.00069
1.00017
0.999926
0.999834
0.999823
0.999848
0.999883
0.999916
0.999943
0.999964
0.999977
0.999987
0.999992
0.999996
0.999998
0.999999
0.999999
1
1
1
1
1
1
1
1
1
1
1
1
1
1
1
1
1
1
1
1
1
1
1
1
1
1
1
1
1
1.00001
1.00001
1.00003
1.00005
1.00008
1.00014
1.00021
1.00032
1.00048
1.00071
1.00107
1.0017
1.00285
1.00488
1.00835
1.01387
1.0216
1.03068
1.03902
1.04417
1.04458
1.04006
1.0313
1.01933
1.0052
0.989861
0.974032
0.958266
0.943131
0.92933
0.917635
0.908731
0.903173
0.901438
0.903874
0.910575
0.921317
0.935585
0.952639
0.971521
0.990988
1.00944
1.02502
1.03603
1.04152
1.04162
1.03755
1.03102
1.02373
1.01694
1.01132
1.00707
1.0041
1.00217
1.00099
1.00033
1
0.999867
0.999833
0.999848
0.999879
0.999912
0.99994
0.999961
0.999976
0.999985
0.999992
0.999995
0.999997
0.999999
0.999999
1
1
1
1
1
1
1
1
1
1
1
1
1
1
1
1
1
1
1
1
1
1
1
1
1
1
1
1
1
1.00001
1.00002
1.00003
1.00005
1.00009
1.00014
1.00023
1.00034
1.00051
1.00078
1.00121
1.00198
1.0034
1.00589
1.01008
1.01655
1.02518
1.03446
1.04177
1.04474
1.04234
1.03487
1.02336
1.00899
0.992788
0.975481
0.957467
0.939058
0.920822
0.903721
0.888932
0.877553
0.870514
0.86858
0.87218
0.88116
0.894822
0.912196
0.932267
0.954013
0.976281
0.997633
1.01632
1.03056
1.03909
1.04168
1.03927
1.03355
1.02639
1.01929
1.01317
1.00841
1.005
1.00273
1.00133
1.00052
1.0001
0.999914
0.999853
0.999853
0.999879
0.99991
0.999937
0.999959
0.999974
0.999984
0.999991
0.999995
0.999997
0.999999
0.999999
1
1
1
1
1
1
1
1
1
1
1
1
1
1
1
1
1
1
1
1
1
1
1
1
1
1
1
1
1
1.00001
1.00002
1.00003
1.00005
1.00009
1.00015
1.00024
1.00036
1.00054
1.00085
1.00136
1.00228
1.004
1.00701
1.01192
1.0193
1.0286
1.03761
1.04341
1.04397
1.03884
1.02872
1.01482
0.998402
0.98035
0.960976
0.940212
0.918105
0.895347
0.873397
0.854094
0.839151
0.830048
0.828019
0.833635
0.846296
0.864427
0.886242
0.910289
0.935483
0.960832
0.985132
1.00682
1.02414
1.03565
1.04081
1.04026
1.03559
1.02877
1.02151
1.015
1.00977
1.00595
1.00335
1.0017
1.00074
1.00022
0.999975
0.999881
0.999865
0.999883
0.99991
0.999937
0.999958
0.999973
0.999984
0.99999
0.999995
0.999997
0.999998
0.999999
1
1
1
1
1
1
1
1
1
1
1
1
1
1
1
1
1
1
1
1
1
1
1
1
1
1
1
1
1
1.00001
1.00002
1.00003
1.00006
1.0001
1.00015
1.00025
1.00037
1.00056
1.00092
1.00151
1.00259
1.00464
1.00819
1.01383
1.02199
1.03168
1.04002
1.04399
1.04214
1.03456
1.02214
1.00619
0.987991
0.968143
0.946362
0.921952
0.894696
0.865589
0.836882
0.811343
0.791493
0.779561
0.777531
0.786287
0.804559
0.829336
0.85746
0.886776
0.916155
0.944908
0.972214
0.996809
1.01707
1.03145
1.03916
1.04057
1.03712
1.03082
1.02356
1.01675
1.01112
1.0069
1.00398
1.00211
1.00098
1.00036
1.00005
0.99992
0.999884
0.999891
0.999914
0.999938
0.999958
0.999973
0.999984
0.99999
0.999994
0.999997
0.999998
0.999999
1
1
1
1
1
1
1
1
1
1
1
1
1
1
1
1
1
1
1
1
1
1
1
1
1
1
1
1
1
1.00001
1.00002
1.00003
1.00006
1.0001
1.00015
1.00025
1.00038
1.00057
1.00098
1.00168
1.00292
1.0053
1.00941
1.01573
1.02451
1.03431
1.0417
1.04372
1.0396
1.02991
1.01556
0.997843
0.978003
0.956272
0.931569
0.902398
0.868286
0.830752
0.793151
0.759437
0.733128
0.717433
0.715411
0.728518
0.75466
0.788757
0.825574
0.861847
0.896358
0.928902
0.959255
0.986625
1.00963
1.02672
1.03691
1.0403
1.03818
1.03252
1.0254
1.01839
1.01242
1.00785
1.00463
1.00252
1.00124
1.00051
1.00013
0.999967
0.999909
0.999904
0.99992
0.999941
0.99996
0.999974
0.999984
0.99999
0.999994
0.999997
0.999998
0.999999
1
1
1
1
1
1
1
1
1
1
1
1
1
1
1
1
1
1
1
1
1
1
1
1
1
1
1
1
1
1.00001
1.00002
1.00003
1.00005
1.0001
1.00014
1.00024
1.00039
1.00058
1.00102
1.00184
1.00324
1.00594
1.01062
1.01757
1.02676
1.03644
1.04276
1.04286
1.03668
1.02524
1.00931
0.990016
0.96857
0.944783
0.916589
0.881511
0.838815
0.790768
0.742151
0.698405
0.664267
0.644031
0.641978
0.660372
0.696352
0.742378
0.790441
0.835601
0.87639
0.913208
0.946662
0.976636
1.00213
1.02171
1.03423
1.03956
1.03879
1.03389
1.02699
1.01987
1.01364
1.00876
1.00526
1.00294
1.0015
1.00067
1.00023
1.00002
0.99994
0.999921
0.999929
0.999946
0.999962
0.999975
0.999985
0.999991
0.999995
0.999997
0.999998
0.999999
1
1
1
1
1
1
1
1
1
1
1
1
1
1
1
1
1
1
0.999999
1
0.999999
1
1
1
1
1
1
1
1
1.00001
1.00002
1.00003
1.00005
1.00009
1.00013
1.00022
1.00039
1.00058
1.00104
1.002
1.00357
1.00655
1.01177
1.01929
1.02869
1.03808
1.04334
1.04166
1.03363
1.02078
1.00362
0.982887
0.959776
0.93373
0.901586
0.859693
0.807005
0.746732
0.685476
0.630615
0.588234
0.563404
0.561324
0.585144
0.631701
0.691239
0.752551
0.808356
0.856557
0.898166
0.934796
0.967196
0.994909
1.01669
1.03132
1.03848
1.03905
1.03492
1.02833
1.02118
1.01474
1.0096
1.00586
1.00334
1.00176
1.00083
1.00033
1.00008
0.999976
0.999943
0.999942
0.999953
0.999966
0.999978
0.999986
0.999991
0.999995
0.999997
0.999999
0.999999
1
1
1
1
1
1
1
1
1
1
1
1
1
1
1
1
1
1
1
1
1
1
1
1
1
1
1
1
1
1.00001
1.00002
1.00003
1.00004
1.00008
1.00013
1.00019
1.00037
1.00059
1.00104
1.00213
1.0039
1.00709
1.01279
1.02083
1.0303
1.03925
1.04359
1.04035
1.03068
1.01671
0.998641
0.976603
0.951708
0.923221
0.886949
0.837894
0.774558
0.701254
0.626937
0.561422
0.511893
0.483396
0.481293
0.509485
0.565403
0.638147
0.713431
0.780958
0.837383
0.88415
0.923967
0.958595
0.988227
1.0119
1.02839
1.03719
1.03901
1.03567
1.02942
1.02229
1.0157
1.01036
1.00641
1.00372
1.00201
1.001
1.00043
1.00015
1.00002
0.999967
0.999957
0.999962
0.999972
0.999981
0.999988
0.999993
0.999996
0.999998
0.999999
0.999999
1
1
1
1
1
1
1
1
1
1
1
1
1
1
1
1
1
1
1
1
1
1
1
1
1
1
1
1
1
1
1.00001
1.00002
1.00003
1.00007
1.00012
1.00016
1.00034
1.00059
1.00103
1.00221
1.0042
1.00755
1.01364
1.02217
1.03161
1.04003
1.0436
1.03914
1.02801
1.01311
0.994477
0.971324
0.944514
0.913448
0.873239
0.817518
0.744089
0.658402
0.572276
0.498173
0.443733
0.413087
0.410823
0.441321
0.503591
0.58717
0.675476
0.754772
0.819682
0.871667
0.914514
0.95109
0.982314
1.00755
1.0256
1.03583
1.03878
1.03616
1.03026
1.02321
1.01652
1.01101
1.0069
1.00407
1.00225
1.00116
1.00054
1.00021
1.00006
0.999995
0.999974
0.999973
0.999978
0.999985
0.99999
0.999994
0.999996
0.999998
0.999999
1
1
1
1
1
1
1
1
1
1
1
1
1
1
1
1
1
1
1
1
1
1
1
1
1
1
1
1
1
1
1
1.00001
1.00002
1.00002
1.00005
1.0001
1.00013
1.00029
1.00058
1.00101
1.00223
1.00445
1.00796
1.01426
1.02324
1.03268
1.0405
1.04346
1.03819
1.0258
1.01003
0.991134
0.967215
0.938459
0.904693
0.86105
0.800086
0.718596
0.622867
0.527655
0.447745
0.390748
0.359377
0.356732
0.387292
0.452173
0.542783
0.641544
0.731436
0.804389
0.861289
0.906802
0.94493
0.977364
1.00381
1.02312
1.03452
1.03843
1.03645
1.03088
1.02391
1.01717
1.01154
1.0073
1.00436
1.00246
1.0013
1.00064
1.00028
1.0001
1.00002
0.999993
0.999985
0.999986
0.999989
0.999993
0.999995
0.999997
0.999998
0.999999
1
1
1
1
1
1
1
1
1
1
1
1
1
1
1
1
1
1
1
1
1
1
1
1
1
0.999999
1
1
1
1
1
1.00001
1.00001
1.00002
1.00003
1.00008
1.0001
1.00023
1.00055
1.00099
1.0022
1.00461
1.00829
1.01466
1.02398
1.03354
1.04077
1.04318
1.03754
1.02424
1.00753
0.988549
0.964389
0.933937
0.897395
0.850878
0.786697
0.700451
0.598503
0.497725
0.414537
0.356609
0.325457
0.322428
0.351513
0.415736
0.509173
0.614661
0.712735
0.792447
0.853524
0.901142
0.94033
0.973544
1.00082
1.02106
1.03337
1.03803
1.03658
1.03128
1.02441
1.01765
1.01195
1.00762
1.0046
1.00264
1.00143
1.00073
1.00035
1.00015
1.00005
1.00001
0.999998
0.999994
0.999994
0.999996
0.999997
0.999998
0.999999
0.999999
1
1
1
1
1
1
1
1
1
1
1
1
1
1
1
1
1
1
1
1
1
1
1
1
1
1
1
1
1
1
1
1
1.00001
1.00001
1.00001
1.00005
1.00008
1.00016
1.00049
1.00098
1.00213
1.00464
1.00854
1.01487
1.02434
1.03417
1.04099
1.04285
1.03717
1.02345
1.00579
0.986622
0.962811
0.931372
0.892224
0.84319
0.777679
0.690429
0.586912
0.484359
0.399889
0.341783
0.311308
0.30825
0.335371
0.396799
0.489371
0.597475
0.70042
0.784772
0.848788
0.897733
0.937422
0.970968
0.998702
1.01953
1.03247
1.03766
1.03658
1.0315
1.02471
1.01795
1.01222
1.00785
1.00478
1.00278
1.00154
1.00081
1.00041
1.00019
1.00008
1.00003
1.00001
1
0.999999
0.999999
0.999999
0.999999
1
1
1
1
1
1
1
1
1
1
1
1
1
1
1
1
1
1
1
1
1
1
1
1
1
1
1
1
1
1
0.999999
1
0.999999
0.999999
1
0.999999
0.999998
1.00002
1.00005
1.00011
1.0004
1.00094
1.00204
1.00455
1.00864
1.01494
1.02435
1.03448
1.04123
1.04257
1.03697
1.02344
1.00504
0.985364
0.962243
0.930971
0.890015
0.838732
0.772923
0.687608
0.586862
0.486248
0.402342
0.344452
0.314776
0.312182
0.337657
0.395335
0.484373
0.591399
0.69568
0.782064
0.847384
0.896679
0.936248
0.969682
0.997505
1.0186
1.03186
1.03735
1.03648
1.03153
1.02481
1.01808
1.01235
1.00797
1.0049
1.00287
1.00162
1.00088
1.00046
1.00023
1.00011
1.00005
1.00002
1.00001
1
1
1
1
1
1
1
1
1
1
1
1
1
1
1
1
1
1
1
1
1
1
1
1
1
1
1
1
1
1
1
1
1
1
0.999999
1
0.999998
0.999996
0.999994
0.999989
0.999983
0.999983
1.00001
1.00006
1.0003
1.00086
1.00195
1.00435
1.00855
1.01487
1.02406
1.0344
1.04146
1.04251
1.03693
1.02402
1.00545
0.985027
0.962431
0.932461
0.891349
0.838659
0.772839
0.690686
0.595401
0.499723
0.41847
0.361698
0.333052
0.331284
0.355676
0.409466
0.493349
0.596408
0.698817
0.784574
0.849407
0.897979
0.936792
0.969689
0.997258
1.0183
1.0316
1.03714
1.03631
1.0314
1.02471
1.01802
1.01233
1.00799
1.00494
1.00293
1.00168
1.00093
1.0005
1.00027
1.00014
1.00007
1.00004
1.00002
1.00001
1.00001
1
1
1
1
1
1
1
1
1
1
1
1
1
1
1
1
1
1
1
1
1
1
1
1
1
1
1
1
1
1
1
1
0.999999
0.999998
0.999997
0.999992
0.999989
0.999977
0.999968
0.999956
0.999963
1.00001
1.00021
1.00074
1.00183
1.0041
1.00824
1.01461
1.02356
1.03392
1.04154
1.04278
1.03715
1.02494
1.00693
0.986008
0.963439
0.935217
0.895957
0.843864
0.778729
0.699789
0.610578
0.521454
0.445057
0.391259
0.364498
0.363775
0.387365
0.437346
0.51509
0.611925
0.709615
0.792184
0.854731
0.901514
0.938973
0.970954
0.997958
1.01864
1.03168
1.03703
1.03607
1.0311
1.02443
1.01779
1.01218
1.00791
1.00491
1.00294
1.00171
1.00097
1.00054
1.0003
1.00016
1.00009
1.00005
1.00003
1.00002
1.00001
1
1
1
1
1
1
1
1
1
1
1
1
1
1
1
1
1
1
1
1
1
1
1
1
1
1
1
1
1
1
0.999999
1
0.999999
0.999998
0.999995
0.999989
0.999984
0.999968
0.999951
0.999935
0.999918
0.99996
1.00013
1.00059
1.00166
1.00381
1.00776
1.01408
1.02288
1.03313
1.0413
1.04325
1.03786
1.02615
1.00912
0.988467
0.965767
0.938906
0.902751
0.853916
0.791582
0.716441
0.633134
0.551202
0.481632
0.43295
0.409103
0.409384
0.431963
0.478029
0.548849
0.637463
0.727738
0.804621
0.863111
0.907089
0.942667
0.973416
0.999579
1.01961
1.03212
1.03702
1.03576
1.03064
1.02395
1.01739
1.01189
1.00773
1.00482
1.00291
1.00171
1.00099
1.00056
1.00032
1.00018
1.0001
1.00006
1.00003
1.00002
1.00001
1.00001
1
1
1
1
1
1
1
1
1
1
1
1
1
1
1
1
1
1
1
1
1
1
1
1
1
1
1
1
1
1
0.999999
0.999999
0.999997
0.999994
0.999986
0.999979
0.999961
0.999935
0.999913
0.999885
0.999899
1.00005
1.00045
1.00143
1.00348
1.00719
1.01328
1.02195
1.03211
1.0407
1.04368
1.03907
1.02782
1.01169
0.992045
0.969805
0.943921
0.910878
0.867091
0.810378
0.741102
0.664643
0.591017
0.529995
0.487597
0.466639
0.4672
0.488122
0.52994
0.593167
0.671884
0.752353
0.821293
0.874147
0.914448
0.947725
0.976994
1.00208
1.02119
1.03285
1.03707
1.03534
1.03
1.02328
1.01682
1.01147
1.00745
1.00466
1.00283
1.00168
1.00099
1.00058
1.00034
1.0002
1.00012
1.00007
1.00004
1.00002
1.00001
1.00001
1
1
1
1
1
1
1
1
1
1
1
1
1
1
1
1
1
1
1
1
1
1
1
0.999999
1
1
1
1
0.999999
1
0.999999
0.999998
0.999996
0.999994
0.999985
0.999974
0.999956
0.999924
0.999892
0.999859
0.999845
0.999965
1.00032
1.00117
1.00307
1.00655
1.01228
1.0207
1.03085
1.03983
1.04386
1.04055
1.03015
1.01472
0.99623
0.975253
0.950731
0.920488
0.881974
0.83251
0.771488
0.70429
0.641221
0.589907
0.553376
0.534175
0.53399
0.552555
0.589678
0.644806
0.712585
0.781653
0.841067
0.887193
0.923255
0.953981
0.981599
1.00538
1.02329
1.03384
1.03714
1.0348
1.02917
1.02243
1.0161
1.01093
1.00709
1.00445
1.00272
1.00164
1.00098
1.00058
1.00035
1.00021
1.00013
1.00008
1.00005
1.00003
1.00002
1.00001
1
1
1
1
1
1
1
1
1
1
1
1
1
1
1
1
1
1
1
1
1
1
1
0.999999
1
1
1
1
0.999999
1
0.999999
0.999998
0.999996
0.999993
0.999984
0.999971
0.999952
0.999916
0.999876
0.999834
0.999804
0.999879
1.00019
1.00093
1.00261
1.00582
1.01116
1.01916
1.02924
1.03868
1.04376
1.04197
1.03297
1.01845
1.00091
0.981449
0.959008
0.931863
0.898277
0.856035
0.804431
0.748793
0.698005
0.656027
0.624107
0.606017
0.60496
0.620938
0.652931
0.699593
0.75609
0.81322
0.862492
0.901473
0.933138
0.961264
0.987133
1.00941
1.02583
1.03498
1.03715
1.03409
1.02813
1.02139
1.01522
1.01028
1.00666
1.00419
1.00258
1.00157
1.00095
1.00058
1.00035
1.00022
1.00013
1.00008
1.00005
1.00003
1.00002
1.00001
1.00001
1
1
1
1
1
1
1
1
1
1
1
1
1
1
1
1
1
1
1
1
1
1
1
1
1
1
1
1
0.999999
1
0.999998
0.999996
0.999992
0.999983
0.999969
0.999948
0.999911
0.999864
0.999813
0.999772
0.999808
1.00005
1.00069
1.00214
1.00502
1.00994
1.01742
1.02723
1.03713
1.04337
1.04319
1.03593
1.0228
1.00631
0.988131
0.967946
0.944305
0.915618
0.880313
0.838348
0.794743
0.755234
0.720706
0.692817
0.676632
0.675529
0.68901
0.715535
0.753588
0.799062
0.844659
0.884136
0.916259
0.943769
0.969417
0.993479
1.01403
1.02867
1.03615
1.03702
1.03315
1.02688
1.02016
1.01421
1.00954
1.00617
1.00389
1.00241
1.00148
1.00091
1.00056
1.00035
1.00022
1.00014
1.00008
1.00005
1.00003
1.00002
1.00001
1.00001
1
1
1
1
1
1
1
1
1
1
1
1
1
1
1
1
1
1
1
1
1
1
1
1
1
1
1
0.999999
1
0.999999
0.999998
0.999996
0.999992
0.999982
0.999969
0.999945
0.999908
0.999858
0.9998
0.999744
0.999757
0.999927
1.00046
1.0017
1.00419
1.00861
1.01553
1.02491
1.03507
1.04253
1.04414
1.03878
1.02742
1.01235
0.995423
0.977169
0.956717
0.93288
0.904628
0.872106
0.838852
0.807717
0.779141
0.75589
0.74278
0.742147
0.752989
0.773872
0.803622
0.838916
0.874099
0.90486
0.930986
0.954897
0.978299
1.0005
1.01907
1.03162
1.0372
1.03663
1.03194
1.02539
1.01876
1.01309
1.00873
1.00563
1.00355
1.00222
1.00138
1.00086
1.00054
1.00034
1.00022