/*--------------------------------*- C++ -*----------------------------------*\
  =========                 |
  \\      /  F ield         | OpenFOAM: The Open Source CFD Toolbox
   \\    /   O peration     | Website:  https://openfoam.org
    \\  /    A nd           | Version:  6
     \\/     M anipulation  |
\*---------------------------------------------------------------------------*/
FoamFile
{
    version     2.0;
    format      ascii;
    class       volScalarField;
    location    "3.51";
    object      rho;
}
// * * * * * * * * * * * * * * * * * * * * * * * * * * * * * * * * * * * * * //

dimensions      [1 -3 0 0 0 0 0];

internalField   nonuniform List<scalar> 
22500
(
1.40001
1.40001
1.40001
1.40001
1.40001
1.40001
1.40001
1.40001
1.40001
1.40001
1.40001
1.40001
1.40001
1.4
1.40001
1.40001
1.40001
1.40001
1.4
1.40001
1.40001
1.4
1.40001
1.4
1.40001
1.40001
1.4
1.40001
1.40001
1.4
1.40001
1.4
1.40001
1.40001
1.40001
1.4
1.40001
1.40001
1.4
1.40001
1.40001
1.4
1.40001
1.40001
1.4
1.4
1.40001
1.4
1.4
1.40001
1.40001
1.40001
1.4
1.40001
1.40001
1.4
1.4
1.40001
1.40001
1.4
1.40001
1.40001
1.40001
1.40001
1.4
1.4
1.4
1.4
1.4
1.4
1.4
1.4
1.4
1.4
1.39999
1.39999
1.39999
1.39998
1.39998
1.39997
1.39997
1.39996
1.39996
1.39996
1.39996
1.39996
1.39996
1.39996
1.39997
1.39997
1.39998
1.39999
1.4
1.40001
1.40003
1.40004
1.40005
1.40006
1.40008
1.40009
1.40009
1.4001
1.40011
1.40011
1.40011
1.40011
1.40011
1.40011
1.4001
1.4001
1.40009
1.40009
1.40008
1.40007
1.40006
1.40006
1.40005
1.40004
1.40004
1.40003
1.40003
1.40002
1.40002
1.40001
1.40001
1.40001
1.40001
1.40001
1.40001
1.40001
1.40001
1.40001
1.40001
1.40001
1.4
1.4
1.4
1.4
1.4
1.40001
1.40001
1.40001
1.40001
1.40001
1.40001
1.40001
1.40001
1.40001
1.40001
1.40001
1.40001
1.40001
1.40001
1.40001
1.40001
1.40001
1.40001
1.40001
1.40001
1.40001
1.40001
1.40001
1.4
1.40001
1.4
1.40001
1.4
1.40001
1.40001
1.4
1.40001
1.4
1.40001
1.40001
1.4
1.40001
1.40001
1.4
1.40001
1.40001
1.4
1.40001
1.4
1.40001
1.40001
1.40001
1.4
1.40001
1.40001
1.4
1.40001
1.40001
1.4
1.40001
1.40001
1.4
1.40001
1.4
1.40001
1.4
1.4
1.40001
1.40001
1.4
1.40001
1.40001
1.40001
1.40001
1.40001
1.40001
1.40001
1.4
1.40001
1.40001
1.40001
1.40001
1.4
1.4
1.4
1.4
1.4
1.4
1.4
1.39999
1.39999
1.39999
1.39998
1.39998
1.39997
1.39997
1.39996
1.39996
1.39995
1.39995
1.39995
1.39995
1.39996
1.39996
1.39997
1.39998
1.39999
1.40001
1.40002
1.40004
1.40006
1.40007
1.40009
1.4001
1.40012
1.40013
1.40014
1.40015
1.40015
1.40015
1.40015
1.40015
1.40015
1.40014
1.40014
1.40013
1.40012
1.40011
1.4001
1.40009
1.40008
1.40007
1.40006
1.40005
1.40004
1.40004
1.40003
1.40003
1.40002
1.40002
1.40001
1.40001
1.40001
1.40001
1.40001
1.40001
1.40001
1.40001
1.40001
1.4
1.4
1.4
1.4
1.4
1.4
1.4
1.4
1.4
1.4
1.40001
1.40001
1.40001
1.40001
1.40001
1.40001
1.40001
1.40001
1.40001
1.40001
1.40001
1.40001
1.40001
1.40001
1.40001
1.40001
1.40001
1.40001
1.40001
1.40001
1.40001
1.40001
1.4
1.40001
1.4
1.40001
1.4
1.40001
1.40001
1.40001
1.40001
1.40001
1.4
1.40001
1.4
1.40001
1.4
1.40001
1.4
1.40001
1.4
1.40001
1.4
1.4
1.40001
1.4
1.40001
1.40001
1.4
1.40001
1.4
1.4
1.40001
1.40001
1.4
1.4
1.40001
1.4
1.40001
1.40001
1.40001
1.4
1.4
1.40001
1.40001
1.4
1.40001
1.40001
1.4
1.40001
1.40001
1.40001
1.40001
1.4
1.4
1.4
1.4
1.4
1.4
1.39999
1.39999
1.39999
1.39998
1.39998
1.39997
1.39996
1.39996
1.39995
1.39995
1.39995
1.39995
1.39995
1.39995
1.39996
1.39997
1.39999
1.4
1.40002
1.40004
1.40006
1.40009
1.40011
1.40013
1.40015
1.40017
1.40018
1.4002
1.40021
1.40021
1.40022
1.40022
1.40022
1.40021
1.4002
1.40019
1.40018
1.40017
1.40016
1.40014
1.40013
1.40011
1.4001
1.40009
1.40008
1.40006
1.40005
1.40005
1.40004
1.40003
1.40003
1.40002
1.40002
1.40001
1.40001
1.40001
1.40001
1.40001
1.40001
1.40001
1.40001
1.4
1.4
1.4
1.4
1.4
1.4
1.4
1.4
1.4
1.40001
1.40001
1.40001
1.40001
1.40001
1.40001
1.40001
1.40001
1.40001
1.40001
1.40001
1.40001
1.40001
1.40001
1.40001
1.40001
1.40001
1.40001
1.40001
1.40001
1.40001
1.40001
1.4
1.40001
1.4
1.40001
1.40001
1.4
1.40001
1.4
1.40001
1.40001
1.4
1.40001
1.40001
1.4
1.40001
1.40001
1.4
1.40001
1.4
1.4
1.40001
1.40001
1.4
1.40001
1.4
1.4
1.40001
1.4
1.4
1.40001
1.40001
1.4
1.40001
1.40001
1.4
1.40001
1.4
1.40001
1.4
1.4
1.40001
1.40001
1.4
1.40001
1.40001
1.40001
1.40001
1.40001
1.40001
1.40001
1.40001
1.40001
1.4
1.4
1.4
1.4
1.4
1.4
1.39999
1.39999
1.39998
1.39998
1.39997
1.39997
1.39996
1.39995
1.39995
1.39995
1.39995
1.39995
1.39996
1.39997
1.39998
1.4
1.40002
1.40004
1.40007
1.4001
1.40013
1.40016
1.40019
1.40022
1.40024
1.40027
1.40029
1.4003
1.40031
1.40032
1.40032
1.40031
1.4003
1.40029
1.40028
1.40026
1.40025
1.40023
1.40021
1.40019
1.40017
1.40015
1.40013
1.40011
1.4001
1.40008
1.40007
1.40006
1.40005
1.40004
1.40003
1.40002
1.40002
1.40001
1.40001
1.40001
1.40001
1.40001
1.40001
1.40001
1.4
1.4
1.4
1.4
1.4
1.4
1.4
1.4
1.4
1.4
1.4
1.4
1.4
1.40001
1.40001
1.40001
1.40001
1.40001
1.40001
1.40001
1.40001
1.40001
1.40001
1.40001
1.40001
1.40001
1.40001
1.40001
1.40001
1.40001
1.40001
1.40001
1.40001
1.4
1.40001
1.4
1.40001
1.4
1.40001
1.40001
1.4
1.40001
1.40001
1.4
1.40001
1.4
1.40001
1.40001
1.40001
1.4
1.40001
1.4
1.40001
1.40001
1.4
1.40001
1.40001
1.40001
1.4
1.40001
1.4
1.4
1.40001
1.40001
1.4
1.40001
1.4
1.40001
1.40001
1.4
1.40001
1.4
1.40001
1.40001
1.40001
1.40001
1.4
1.40001
1.40001
1.40001
1.40001
1.40001
1.40001
1.40001
1.4
1.4
1.4
1.4
1.4
1.39999
1.39999
1.39999
1.39998
1.39997
1.39997
1.39996
1.39996
1.39995
1.39995
1.39995
1.39995
1.39996
1.39997
1.39999
1.40001
1.40004
1.40007
1.40011
1.40015
1.40019
1.40024
1.40028
1.40032
1.40036
1.40039
1.40042
1.40044
1.40045
1.40046
1.40046
1.40046
1.40045
1.40043
1.40041
1.40039
1.40036
1.40033
1.4003
1.40028
1.40025
1.40022
1.40019
1.40017
1.40014
1.40012
1.4001
1.40008
1.40007
1.40006
1.40005
1.40004
1.40003
1.40002
1.40002
1.40001
1.40001
1.40001
1.40001
1.40001
1.40001
1.4
1.4
1.4
1.4
1.4
1.4
1.4
1.4
1.4
1.4
1.4
1.4
1.4
1.40001
1.40001
1.40001
1.40001
1.40001
1.40001
1.40001
1.40001
1.40001
1.40001
1.40001
1.40001
1.40001
1.40001
1.40001
1.40001
1.40001
1.40001
1.40001
1.40001
1.40001
1.40001
1.40001
1.40001
1.40001
1.4
1.40001
1.4
1.40001
1.40001
1.4
1.40001
1.40001
1.4
1.40001
1.4
1.40001
1.40001
1.40001
1.4
1.40001
1.4
1.40001
1.40001
1.4
1.40001
1.4
1.40001
1.4
1.40001
1.40001
1.4
1.40001
1.4
1.40001
1.40001
1.40001
1.4
1.40001
1.40001
1.40001
1.40001
1.40001
1.40001
1.40001
1.40001
1.40001
1.40001
1.40001
1.40001
1.40001
1.40001
1.4
1.4
1.4
1.4
1.39999
1.39999
1.39998
1.39998
1.39997
1.39996
1.39996
1.39995
1.39995
1.39995
1.39996
1.39997
1.39998
1.40001
1.40004
1.40007
1.40012
1.40017
1.40022
1.40028
1.40034
1.4004
1.40046
1.40052
1.40057
1.40061
1.40064
1.40067
1.40068
1.40069
1.40068
1.40067
1.40065
1.40062
1.40058
1.40054
1.4005
1.40046
1.40041
1.40037
1.40033
1.40029
1.40025
1.40022
1.40018
1.40016
1.40013
1.40011
1.40009
1.40007
1.40006
1.40004
1.40003
1.40003
1.40002
1.40001
1.40001
1.40001
1.40001
1.40001
1.4
1.4
1.4
1.4
1.4
1.4
1.4
1.4
1.4
1.4
1.4
1.4
1.4
1.4
1.4
1.40001
1.40001
1.40001
1.40001
1.40001
1.40001
1.40001
1.40001
1.40001
1.40001
1.40001
1.40001
1.40001
1.40001
1.40001
1.40001
1.4
1.40001
1.40001
1.4
1.40001
1.4
1.40001
1.40001
1.4
1.40001
1.4
1.40001
1.40001
1.4
1.40001
1.40001
1.40001
1.40001
1.40001
1.4
1.40001
1.4
1.4
1.40001
1.40001
1.4
1.40001
1.4
1.4
1.40001
1.4
1.4
1.40001
1.40001
1.4
1.4
1.40001
1.4
1.40001
1.4
1.40001
1.4
1.40001
1.40001
1.40001
1.40001
1.40001
1.40001
1.40001
1.40001
1.40001
1.40001
1.40001
1.40001
1.40001
1.40001
1.4
1.4
1.4
1.39999
1.39999
1.39998
1.39997
1.39997
1.39996
1.39996
1.39996
1.39996
1.39997
1.39998
1.4
1.40003
1.40007
1.40012
1.40018
1.40024
1.40032
1.4004
1.40048
1.40057
1.40065
1.40073
1.40081
1.40088
1.40093
1.40097
1.401
1.40102
1.40102
1.401
1.40097
1.40093
1.40089
1.40083
1.40077
1.4007
1.40064
1.40057
1.40051
1.40044
1.40039
1.40033
1.40028
1.40024
1.4002
1.40017
1.40013
1.40011
1.40009
1.40007
1.40005
1.40004
1.40003
1.40002
1.40002
1.40001
1.40001
1.40001
1.40001
1.4
1.4
1.4
1.4
1.4
1.4
1.4
1.4
1.4
1.4
1.4
1.4
1.4
1.4
1.4
1.4
1.40001
1.40001
1.40001
1.40001
1.40001
1.40001
1.40001
1.40001
1.40001
1.40001
1.40001
1.40001
1.40001
1.40001
1.40001
1.40001
1.40001
1.40001
1.4
1.40001
1.40001
1.4
1.40001
1.4
1.40001
1.4
1.4
1.40001
1.4
1.40001
1.40001
1.4
1.40001
1.4
1.40001
1.4
1.40001
1.40001
1.4
1.40001
1.4
1.40001
1.4
1.40001
1.4
1.40001
1.4
1.4
1.40001
1.4
1.4
1.40001
1.40001
1.4
1.4
1.40001
1.40001
1.40001
1.40001
1.40001
1.40001
1.40001
1.40001
1.40001
1.40001
1.40001
1.40001
1.40001
1.40001
1.40001
1.40001
1.4
1.4
1.4
1.39999
1.39999
1.39998
1.39997
1.39997
1.39997
1.39996
1.39997
1.39998
1.39999
1.40002
1.40006
1.40011
1.40017
1.40025
1.40034
1.40044
1.40055
1.40066
1.40078
1.40091
1.40103
1.40114
1.40124
1.40133
1.4014
1.40145
1.40148
1.40149
1.40148
1.40145
1.40141
1.40134
1.40127
1.40118
1.40108
1.40099
1.40089
1.40079
1.40069
1.4006
1.40052
1.40044
1.40037
1.40031
1.40026
1.40021
1.40017
1.40014
1.40011
1.40008
1.40006
1.40005
1.40004
1.40003
1.40002
1.40001
1.40001
1.40001
1.4
1.4
1.4
1.4
1.4
1.4
1.4
1.4
1.4
1.4
1.4
1.4
1.4
1.4
1.4
1.4
1.4
1.40001
1.40001
1.40001
1.40001
1.40001
1.40001
1.40001
1.40001
1.40001
1.40001
1.40001
1.40001
1.40001
1.4
1.40001
1.4
1.40001
1.40001
1.40001
1.40001
1.40001
1.4
1.40001
1.4
1.40001
1.40001
1.4
1.40001
1.40001
1.4
1.40001
1.4
1.40001
1.40001
1.40001
1.40001
1.4
1.40001
1.4
1.40001
1.4
1.40001
1.4
1.40001
1.40001
1.4
1.40001
1.4
1.40001
1.40001
1.4
1.40001
1.40001
1.4
1.40001
1.40001
1.4
1.40001
1.40001
1.40001
1.40001
1.40001
1.40001
1.40001
1.40001
1.40001
1.40001
1.40001
1.40001
1.40001
1.40001
1.40001
1.4
1.4
1.39999
1.39999
1.39998
1.39998
1.39997
1.39997
1.39998
1.39999
1.40001
1.40005
1.40009
1.40016
1.40024
1.40033
1.40045
1.40058
1.40073
1.40089
1.40105
1.40123
1.4014
1.40156
1.40171
1.40185
1.40197
1.40206
1.40213
1.40216
1.40217
1.40215
1.40209
1.40202
1.40192
1.4018
1.40167
1.40153
1.40139
1.40124
1.4011
1.40096
1.40083
1.40071
1.4006
1.4005
1.40042
1.40034
1.40028
1.40022
1.40018
1.40014
1.40011
1.40008
1.40006
1.40004
1.40003
1.40002
1.40001
1.40001
1.40001
1.4
1.4
1.4
1.4
1.4
1.4
1.4
1.4
1.4
1.4
1.4
1.4
1.4
1.4
1.4
1.4
1.4
1.4
1.40001
1.40001
1.40001
1.40001
1.40001
1.40001
1.40001
1.40001
1.40001
1.40001
1.40001
1.40001
1.40001
1.40001
1.40001
1.40001
1.40001
1.40001
1.40001
1.40001
1.4
1.40001
1.4
1.40001
1.40001
1.4
1.40001
1.40001
1.4
1.40001
1.40001
1.4
1.40001
1.40001
1.4
1.40001
1.40001
1.4
1.40001
1.40001
1.40001
1.40001
1.4
1.40001
1.4
1.40001
1.4
1.40001
1.40001
1.4
1.40001
1.40001
1.4
1.4
1.40001
1.40001
1.40001
1.40001
1.40001
1.40001
1.40001
1.40001
1.40001
1.40001
1.40001
1.40001
1.40001
1.40001
1.40001
1.40001
1.40001
1.4
1.4
1.4
1.39999
1.39999
1.39998
1.39999
1.39999
1.40001
1.40003
1.40007
1.40013
1.40021
1.40031
1.40043
1.40058
1.40075
1.40094
1.40115
1.40138
1.40162
1.40186
1.40209
1.40232
1.40253
1.40271
1.40287
1.40299
1.40307
1.40311
1.40311
1.40307
1.40298
1.40287
1.40272
1.40255
1.40236
1.40215
1.40194
1.40173
1.40153
1.40133
1.40114
1.40097
1.40082
1.40068
1.40056
1.40045
1.40036
1.40029
1.40023
1.40017
1.40013
1.4001
1.40007
1.40005
1.40004
1.40002
1.40002
1.40001
1.40001
1.4
1.4
1.4
1.4
1.4
1.4
1.4
1.4
1.4
1.4
1.4
1.4
1.4
1.4
1.4
1.4
1.4
1.4
1.4
1.40001
1.40001
1.40001
1.40001
1.40001
1.40001
1.40001
1.40001
1.40001
1.40001
1.40001
1.4
1.40001
1.40001
1.40001
1.40001
1.40001
1.4
1.40001
1.4
1.40001
1.40001
1.4
1.40001
1.4
1.4
1.40001
1.4
1.40001
1.40001
1.40001
1.4
1.40001
1.40001
1.4
1.40001
1.40001
1.4
1.40001
1.4
1.4
1.40001
1.40001
1.4
1.40001
1.4
1.40001
1.40001
1.4
1.4
1.40001
1.4
1.40001
1.40001
1.40001
1.40001
1.40001
1.40001
1.40001
1.40001
1.40001
1.40001
1.40001
1.40001
1.40001
1.40001
1.40001
1.40001
1.40001
1.40001
1.40001
1.4
1.4
1.4
1.4
1.4
1.40001
1.40003
1.40006
1.4001
1.40017
1.40026
1.40039
1.40054
1.40072
1.40094
1.40118
1.40146
1.40176
1.40208
1.40241
1.40274
1.40306
1.40337
1.40365
1.4039
1.4041
1.40426
1.40436
1.4044
1.40439
1.40432
1.4042
1.40403
1.40382
1.40357
1.4033
1.40301
1.40271
1.40241
1.40212
1.40184
1.40158
1.40133
1.40112
1.40092
1.40075
1.40061
1.40049
1.40038
1.4003
1.40023
1.40017
1.40013
1.40009
1.40006
1.40004
1.40003
1.40002
1.40001
1.4
1.4
1.4
1.4
1.4
1.4
1.4
1.4
1.4
1.4
1.4
1.4
1.4
1.4
1.4
1.4
1.4
1.4
1.4
1.4
1.40001
1.40001
1.40001
1.40001
1.40001
1.40001
1.40001
1.40001
1.40001
1.40001
1.40001
1.40001
1.40001
1.40001
1.40001
1.40001
1.40001
1.4
1.40001
1.4
1.40001
1.40001
1.4
1.40001
1.40001
1.4
1.40001
1.40001
1.4
1.40001
1.4
1.4
1.40001
1.40001
1.4
1.40001
1.40001
1.4
1.40001
1.40001
1.4
1.40001
1.40001
1.40001
1.40001
1.4
1.40001
1.40001
1.4
1.40001
1.40001
1.40001
1.40001
1.40001
1.40001
1.40001
1.40001
1.40001
1.40001
1.40001
1.40001
1.40001
1.40001
1.40001
1.40002
1.40002
1.40002
1.40002
1.40002
1.40001
1.40001
1.40001
1.40001
1.40001
1.40001
1.40002
1.40005
1.40008
1.40013
1.40021
1.40032
1.40046
1.40065
1.40087
1.40114
1.40145
1.4018
1.40219
1.40261
1.40305
1.4035
1.40395
1.40438
1.4048
1.40517
1.40549
1.40576
1.40596
1.40609
1.40614
1.40611
1.40601
1.40584
1.4056
1.40531
1.40496
1.40458
1.40418
1.40376
1.40334
1.40293
1.40254
1.40217
1.40183
1.40153
1.40126
1.40102
1.40082
1.40065
1.40051
1.40039
1.4003
1.40022
1.40016
1.40012
1.40008
1.40005
1.40003
1.40002
1.40001
1.4
1.4
1.4
1.4
1.4
1.4
1.4
1.4
1.4
1.4
1.4
1.4
1.4
1.4
1.4
1.4
1.4
1.4
1.4
1.4
1.4
1.40001
1.40001
1.40001
1.40001
1.40001
1.40001
1.40001
1.40001
1.40001
1.40001
1.40001
1.40001
1.40001
1.40001
1.4
1.40001
1.4
1.40001
1.40001
1.4
1.40001
1.4
1.40001
1.40001
1.4
1.40001
1.40001
1.4
1.40001
1.40001
1.4
1.40001
1.40001
1.4
1.4
1.40001
1.4
1.4
1.40001
1.4
1.40001
1.4
1.40001
1.40001
1.4
1.40001
1.40001
1.4
1.40001
1.40001
1.40001
1.40001
1.40001
1.40001
1.40001
1.40001
1.40001
1.40001
1.40001
1.40001
1.40001
1.40001
1.40002
1.40002
1.40002
1.40002
1.40002
1.40002
1.40002
1.40002
1.40002
1.40002
1.40003
1.40004
1.40006
1.4001
1.40016
1.40025
1.40038
1.40054
1.40076
1.40102
1.40134
1.40173
1.40216
1.40265
1.40319
1.40376
1.40436
1.40497
1.40557
1.40615
1.40669
1.40718
1.40761
1.40795
1.40821
1.40837
1.40842
1.40838
1.40824
1.408
1.40768
1.40727
1.40681
1.40629
1.40574
1.40517
1.4046
1.40403
1.40349
1.40298
1.40252
1.4021
1.40172
1.40139
1.40112
1.40088
1.40068
1.40052
1.40039
1.40029
1.40021
1.40015
1.4001
1.40007
1.40004
1.40002
1.40001
1.4
1.4
1.4
1.39999
1.4
1.4
1.4
1.4
1.4
1.4
1.4
1.4
1.4
1.4
1.4
1.4
1.4
1.4
1.4
1.4
1.4
1.4
1.40001
1.40001
1.40001
1.40001
1.40001
1.40001
1.40001
1.40001
1.40001
1.40001
1.40001
1.40001
1.40001
1.40001
1.40001
1.4
1.40001
1.40001
1.4
1.40001
1.4
1.40001
1.40001
1.40001
1.4
1.40001
1.4
1.40001
1.40001
1.4
1.4
1.40001
1.4
1.4
1.40001
1.40001
1.4
1.40001
1.40001
1.40001
1.4
1.40001
1.40001
1.4
1.40001
1.40001
1.40001
1.40001
1.40001
1.40001
1.40001
1.40001
1.40001
1.40001
1.40001
1.40001
1.40001
1.40001
1.40001
1.40002
1.40002
1.40002
1.40002
1.40002
1.40003
1.40003
1.40003
1.40003
1.40003
1.40003
1.40004
1.40006
1.40008
1.40012
1.40019
1.40029
1.40043
1.40061
1.40086
1.40117
1.40155
1.40201
1.40254
1.40314
1.40381
1.40454
1.40531
1.40611
1.40691
1.4077
1.40846
1.40916
1.40979
1.41034
1.41077
1.4111
1.41129
1.41136
1.4113
1.41111
1.41079
1.41036
1.40983
1.40921
1.40853
1.40779
1.40703
1.40626
1.4055
1.40477
1.40408
1.40344
1.40286
1.40235
1.4019
1.40152
1.40119
1.40092
1.40071
1.40053
1.40039
1.40028
1.4002
1.40013
1.40009
1.40005
1.40003
1.40001
1.4
1.4
1.39999
1.39999
1.39999
1.39999
1.39999
1.4
1.4
1.4
1.4
1.4
1.4
1.4
1.4
1.4
1.4
1.4
1.4
1.4
1.4
1.4
1.40001
1.4
1.40001
1.4
1.40001
1.40001
1.40001
1.40001
1.40001
1.40001
1.40001
1.40001
1.40001
1.4
1.40001
1.4
1.40001
1.40001
1.4
1.40001
1.40001
1.4
1.40001
1.40001
1.4
1.40001
1.4
1.4
1.40001
1.4
1.4
1.40001
1.40001
1.4
1.40001
1.40001
1.4
1.4
1.40001
1.4
1.4
1.4
1.40001
1.40001
1.4
1.40001
1.40001
1.40001
1.40001
1.40001
1.40001
1.40001
1.40001
1.40001
1.40001
1.40001
1.40001
1.40001
1.40002
1.40002
1.40002
1.40002
1.40003
1.40003
1.40003
1.40004
1.40004
1.40004
1.40005
1.40006
1.40007
1.4001
1.40015
1.40022
1.40032
1.40047
1.40068
1.40095
1.4013
1.40174
1.40228
1.40291
1.40364
1.40446
1.40536
1.40633
1.40734
1.40838
1.40943
1.41044
1.41141
1.41231
1.4131
1.41378
1.41433
1.41473
1.41497
1.41505
1.41497
1.41472
1.41432
1.41377
1.41308
1.41229
1.4114
1.41045
1.40945
1.40843
1.40743
1.40645
1.40553
1.40467
1.40389
1.40319
1.40258
1.40206
1.40162
1.40125
1.40095
1.40071
1.40052
1.40037
1.40026
1.40018
1.40011
1.40007
1.40004
1.40002
1.4
1.39999
1.39999
1.39999
1.39999
1.39999
1.39999
1.39999
1.4
1.4
1.4
1.4
1.4
1.4
1.4
1.4
1.4
1.4
1.4
1.4
1.4
1.4
1.40001
1.4
1.40001
1.4
1.40001
1.40001
1.40001
1.40001
1.4
1.40001
1.40001
1.40001
1.40001
1.4
1.40001
1.40001
1.40001
1.40001
1.4
1.40001
1.40001
1.40001
1.40001
1.40001
1.4
1.40001
1.40001
1.4
1.40001
1.40001
1.4
1.40001
1.40001
1.40001
1.4
1.40001
1.4
1.4
1.40001
1.4
1.4
1.4
1.40001
1.40001
1.4
1.40001
1.40001
1.40001
1.40001
1.40001
1.40001
1.40001
1.40001
1.40001
1.40001
1.40001
1.40001
1.40002
1.40002
1.40002
1.40003
1.40003
1.40003
1.40004
1.40004
1.40005
1.40005
1.40006
1.40007
1.40009
1.40012
1.40016
1.40024
1.40035
1.40051
1.40073
1.40103
1.40142
1.40192
1.40253
1.40326
1.40412
1.4051
1.40619
1.40738
1.40864
1.40995
1.41129
1.41261
1.41389
1.4151
1.4162
1.41719
1.41802
1.41868
1.41917
1.41946
1.41955
1.41944
1.41914
1.41864
1.41796
1.41712
1.41613
1.41501
1.4138
1.41252
1.41122
1.40991
1.40863
1.40742
1.40628
1.40524
1.40431
1.4035
1.40279
1.40219
1.4017
1.40129
1.40096
1.40071
1.40051
1.40035
1.40024
1.40015
1.40009
1.40005
1.40002
1.4
1.39999
1.39999
1.39998
1.39998
1.39999
1.39999
1.39999
1.39999
1.4
1.4
1.4
1.4
1.4
1.4
1.4
1.4
1.4
1.4
1.4
1.4
1.4
1.4
1.4
1.40001
1.4
1.40001
1.40001
1.4
1.40001
1.4
1.40001
1.40001
1.4
1.40001
1.4
1.40001
1.40001
1.40001
1.40001
1.40001
1.40001
1.40001
1.40001
1.4
1.40001
1.4
1.40001
1.40001
1.4
1.40001
1.40001
1.40001
1.4
1.40001
1.4
1.40001
1.40001
1.40001
1.4
1.40001
1.40001
1.4
1.40001
1.4
1.40001
1.4
1.40001
1.40001
1.40001
1.40001
1.40001
1.40001
1.40001
1.40001
1.40001
1.40001
1.40001
1.40002
1.40002
1.40002
1.40003
1.40003
1.40004
1.40004
1.40005
1.40005
1.40006
1.40007
1.40008
1.4001
1.40013
1.40018
1.40025
1.40037
1.40053
1.40077
1.40109
1.40151
1.40206
1.40274
1.40358
1.40456
1.40571
1.407
1.40842
1.40996
1.41157
1.41323
1.41489
1.41653
1.4181
1.41957
1.4209
1.42207
1.42306
1.42384
1.42441
1.42475
1.42486
1.42473
1.42437
1.42379
1.42298
1.42197
1.42077
1.41941
1.41793
1.41634
1.4147
1.41305
1.41142
1.40985
1.40837
1.40701
1.40578
1.4047
1.40376
1.40296
1.40229
1.40174
1.4013
1.40095
1.40068
1.40048
1.40032
1.40021
1.40013
1.40007
1.40003
1.4
1.39999
1.39998
1.39998
1.39998
1.39998
1.39998
1.39999
1.39999
1.39999
1.4
1.4
1.4
1.4
1.4
1.4
1.4
1.4
1.4
1.4
1.4
1.4
1.4
1.4
1.40001
1.40001
1.40001
1.40001
1.4
1.40001
1.4
1.40001
1.40001
1.4
1.40001
1.4
1.40001
1.40001
1.4
1.40001
1.4
1.40001
1.4
1.40001
1.4
1.40001
1.4
1.40001
1.40001
1.40001
1.4
1.40001
1.4
1.40001
1.40001
1.4
1.40001
1.4
1.40001
1.40001
1.4
1.40001
1.4
1.40001
1.40001
1.4
1.40001
1.40001
1.40001
1.40001
1.40001
1.40001
1.40001
1.40001
1.40001
1.40001
1.40001
1.40001
1.40002
1.40002
1.40003
1.40003
1.40004
1.40004
1.40005
1.40006
1.40007
1.40008
1.40009
1.40011
1.40014
1.40019
1.40027
1.40038
1.40055
1.40079
1.40112
1.40157
1.40216
1.40291
1.40384
1.40495
1.40626
1.40775
1.40942
1.41124
1.41318
1.41519
1.41723
1.41926
1.42123
1.42309
1.42481
1.42636
1.42771
1.42883
1.42972
1.43036
1.43074
1.43086
1.43073
1.43033
1.42967
1.42876
1.4276
1.42622
1.42463
1.42286
1.42096
1.41896
1.41692
1.41488
1.4129
1.41102
1.40926
1.40767
1.40625
1.40502
1.40396
1.40308
1.40235
1.40176
1.40129
1.40093
1.40065
1.40044
1.40028
1.40017
1.4001
1.40004
1.40001
1.39999
1.39998
1.39997
1.39997
1.39998
1.39998
1.39998
1.39999
1.39999
1.39999
1.4
1.4
1.4
1.4
1.4
1.4
1.4
1.4
1.4
1.4
1.4
1.4
1.4
1.40001
1.40001
1.4
1.40001
1.4
1.40001
1.4
1.40001
1.40001
1.4
1.40001
1.40001
1.40001
1.40001
1.4
1.40001
1.4
1.40001
1.40001
1.40001
1.4
1.40001
1.40001
1.4
1.40001
1.4
1.40001
1.4
1.40001
1.4
1.40001
1.4
1.40001
1.4
1.40001
1.40001
1.4
1.40001
1.4
1.40001
1.4
1.4
1.40001
1.40001
1.40001
1.40001
1.40001
1.40001
1.40001
1.40001
1.40001
1.40001
1.40001
1.40002
1.40002
1.40003
1.40003
1.40004
1.40004
1.40005
1.40006
1.40007
1.40008
1.4001
1.40012
1.40015
1.4002
1.40027
1.40038
1.40055
1.40079
1.40113
1.4016
1.40222
1.40303
1.40403
1.40526
1.40673
1.40842
1.41034
1.41246
1.41473
1.41711
1.41955
1.422
1.42439
1.42667
1.4288
1.43074
1.43245
1.43393
1.43514
1.4361
1.43678
1.43719
1.43732
1.43718
1.43676
1.43607
1.43509
1.43385
1.43233
1.43055
1.42855
1.42635
1.424
1.42156
1.41909
1.41666
1.41431
1.4121
1.41007
1.40825
1.40664
1.40526
1.4041
1.40314
1.40236
1.40174
1.40125
1.40088
1.4006
1.40039
1.40024
1.40014
1.40007
1.40002
1.39999
1.39998
1.39997
1.39997
1.39997
1.39997
1.39998
1.39998
1.39999
1.39999
1.39999
1.4
1.4
1.4
1.4
1.4
1.4
1.4
1.4
1.4
1.4
1.4
1.4
1.4
1.40001
1.4
1.40001
1.4
1.40001
1.40001
1.40001
1.40001
1.4
1.40001
1.40001
1.4
1.40001
1.4
1.40001
1.4
1.40001
1.4
1.40001
1.40001
1.40001
1.40001
1.4
1.40001
1.40001
1.4
1.40001
1.40001
1.4
1.40001
1.4
1.4
1.40001
1.4
1.40001
1.4
1.4
1.40001
1.40001
1.4
1.4
1.40001
1.40001
1.40001
1.40001
1.40001
1.40001
1.40001
1.40001
1.40001
1.40001
1.40002
1.40002
1.40002
1.40003
1.40004
1.40004
1.40005
1.40006
1.40008
1.40009
1.40011
1.40013
1.40016
1.40021
1.40027
1.40038
1.40054
1.40078
1.40112
1.4016
1.40224
1.40308
1.40415
1.40548
1.40708
1.40897
1.41113
1.41354
1.41615
1.41892
1.42177
1.42465
1.42747
1.43017
1.43271
1.43503
1.4371
1.4389
1.44041
1.44165
1.4426
1.44327
1.44367
1.44381
1.44368
1.44328
1.4426
1.44164
1.44038
1.43882
1.43696
1.43481
1.4324
1.42976
1.42696
1.42407
1.42115
1.4183
1.41558
1.41305
1.41075
1.4087
1.40693
1.40542
1.40417
1.40314
1.40233
1.40168
1.40119
1.40081
1.40054
1.40034
1.4002
1.4001
1.40004
1.4
1.39998
1.39997
1.39996
1.39996
1.39997
1.39997
1.39998
1.39998
1.39999
1.39999
1.39999
1.4
1.4
1.4
1.4
1.4
1.4
1.4
1.4
1.4
1.4
1.4
1.4
1.40001
1.4
1.40001
1.4
1.40001
1.40001
1.4
1.40001
1.4
1.40001
1.40001
1.4
1.40001
1.4
1.40001
1.40001
1.40001
1.40001
1.40001
1.40001
1.4
1.40001
1.4
1.40001
1.40001
1.4
1.40001
1.40001
1.4
1.40001
1.40001
1.4
1.40001
1.4
1.4
1.40001
1.4
1.40001
1.4
1.40001
1.4
1.40001
1.40001
1.40001
1.40001
1.40001
1.40001
1.40001
1.40001
1.40001
1.40001
1.40002
1.40002
1.40003
1.40003
1.40004
1.40005
1.40006
1.40008
1.40009
1.40011
1.40013
1.40016
1.40021
1.40027
1.40038
1.40053
1.40076
1.40109
1.40156
1.40221
1.40307
1.40418
1.40559
1.40732
1.40938
1.41176
1.41446
1.41741
1.42055
1.42382
1.42712
1.43038
1.4335
1.43642
1.43908
1.44145
1.44351
1.44526
1.44669
1.44782
1.44868
1.44927
1.44962
1.44975
1.44964
1.4493
1.44871
1.44786
1.44672
1.44526
1.44347
1.44133
1.43884
1.43604
1.43298
1.42973
1.42638
1.42302
1.41976
1.41667
1.41382
1.41126
1.40902
1.4071
1.40548
1.40416
1.40309
1.40225
1.4016
1.4011
1.40074
1.40047
1.40028
1.40015
1.40007
1.40001
1.39998
1.39996
1.39996
1.39996
1.39996
1.39997
1.39997
1.39998
1.39998
1.39999
1.39999
1.4
1.4
1.4
1.4
1.4
1.4
1.4
1.4
1.4
1.4
1.4
1.4
1.40001
1.4
1.40001
1.4
1.40001
1.40001
1.4
1.40001
1.40001
1.4
1.40001
1.4
1.40001
1.4
1.40001
1.40001
1.4
1.40001
1.4
1.40001
1.4
1.40001
1.4
1.4
1.40001
1.4
1.40001
1.40001
1.4
1.40001
1.40001
1.4
1.40001
1.40001
1.4
1.40001
1.40001
1.4
1.40001
1.40001
1.4
1.40001
1.40001
1.40001
1.40001
1.40001
1.40001
1.40001
1.40001
1.40001
1.40002
1.40002
1.40003
1.40003
1.40004
1.40005
1.40006
1.40008
1.40009
1.40011
1.40013
1.40017
1.40021
1.40027
1.40037
1.40051
1.40073
1.40104
1.4015
1.40213
1.403
1.40414
1.40559
1.40741
1.40961
1.4122
1.41516
1.41843
1.42195
1.42563
1.42936
1.43303
1.43654
1.43981
1.44276
1.44537
1.4476
1.44945
1.45096
1.45214
1.45303
1.45367
1.4541
1.45435
1.45443
1.45436
1.45412
1.45371
1.45309
1.45221
1.45104
1.44951
1.44759
1.44526
1.4425
1.43936
1.4359
1.43222
1.42842
1.42462
1.42096
1.41752
1.41438
1.4116
1.40918
1.40713
1.40544
1.40406
1.40297
1.40213
1.40148
1.401
1.40065
1.40039
1.40022
1.40011
1.40003
1.39999
1.39996
1.39995
1.39995
1.39995
1.39996
1.39997
1.39997
1.39998
1.39999
1.39999
1.39999
1.4
1.4
1.4
1.4
1.4
1.4
1.4
1.4
1.4
1.4
1.4
1.40001
1.4
1.40001
1.40001
1.4
1.40001
1.4
1.40001
1.40001
1.40001
1.40001
1.40001
1.40001
1.4
1.40001
1.4
1.40001
1.40001
1.4
1.40001
1.4
1.40001
1.40001
1.4
1.40001
1.4
1.40001
1.40001
1.40001
1.4
1.40001
1.4
1.4
1.40001
1.4
1.40001
1.4
1.40001
1.4
1.40001
1.40001
1.40001
1.40001
1.40001
1.40001
1.40001
1.40001
1.40001
1.40001
1.40001
1.40002
1.40002
1.40003
1.40004
1.40005
1.40006
1.40007
1.40009
1.40011
1.40013
1.40016
1.40021
1.40026
1.40035
1.40048
1.40068
1.40098
1.40141
1.40202
1.40287
1.40401
1.40549
1.40736
1.40967
1.41243
1.41562
1.41919
1.42306
1.42714
1.43127
1.43535
1.43922
1.4428
1.44598
1.44873
1.45102
1.45286
1.45429
1.45534
1.45608
1.45658
1.45689
1.45706
1.45714
1.45716
1.45713
1.45704
1.45687
1.45659
1.45613
1.45543
1.4544
1.45296
1.45106
1.44864
1.4457
1.44227
1.43844
1.43434
1.43011
1.42591
1.42187
1.41811
1.41471
1.41173
1.40918
1.40704
1.40529
1.4039
1.40281
1.40197
1.40134
1.40088
1.40055
1.40032
1.40016
1.40006
1.4
1.39997
1.39995
1.39994
1.39995
1.39995
1.39996
1.39997
1.39997
1.39998
1.39999
1.39999
1.4
1.4
1.4
1.4
1.4
1.4
1.4
1.4
1.4
1.4
1.4
1.40001
1.4
1.40001
1.40001
1.4
1.40001
1.4
1.40001
1.40001
1.4
1.40001
1.40001
1.40001
1.40001
1.4
1.40001
1.4
1.40001
1.4
1.40001
1.40001
1.4
1.40001
1.4
1.40001
1.4
1.40001
1.4
1.40001
1.40001
1.4
1.40001
1.4
1.40001
1.4
1.40001
1.40001
1.4
1.40001
1.40001
1.40001
1.40001
1.40001
1.40001
1.40001
1.40001
1.40001
1.40001
1.40001
1.40002
1.40002
1.40003
1.40003
1.40004
1.40006
1.40007
1.40009
1.40011
1.40013
1.40016
1.4002
1.40025
1.40033
1.40046
1.40063
1.40091
1.40131
1.40189
1.4027
1.4038
1.40528
1.40717
1.40955
1.41243
1.41581
1.41964
1.42385
1.42829
1.43283
1.43728
1.4415
1.44533
1.44869
1.4515
1.45374
1.45543
1.45661
1.45736
1.45776
1.4579
1.45786
1.45773
1.45756
1.45743
1.45735
1.45736
1.45744
1.45758
1.45773
1.45781
1.45775
1.45743
1.45675
1.45558
1.45382
1.45142
1.44836
1.44469
1.44053
1.43604
1.43141
1.42682
1.42244
1.4184
1.41479
1.41166
1.40901
1.40682
1.40506
1.40367
1.40259
1.40178
1.40118
1.40075
1.40045
1.40024
1.40011
1.40002
1.39997
1.39995
1.39994
1.39994
1.39994
1.39995
1.39996
1.39997
1.39998
1.39998
1.39999
1.39999
1.4
1.4
1.4
1.4
1.4
1.4
1.4
1.4
1.4
1.4
1.4
1.40001
1.4
1.40001
1.4
1.40001
1.4
1.40001
1.4
1.40001
1.40001
1.40001
1.40001
1.4
1.40001
1.40001
1.4
1.40001
1.40001
1.4
1.40001
1.4
1.40001
1.4
1.40001
1.40001
1.40001
1.4
1.40001
1.4
1.4
1.40001
1.4
1.4
1.40001
1.40001
1.4
1.40001
1.40001
1.4
1.40001
1.40001
1.40001
1.40001
1.40001
1.40001
1.40001
1.40001
1.40002
1.40002
1.40002
1.40003
1.40004
1.40005
1.40007
1.40008
1.4001
1.40013
1.40016
1.40019
1.40024
1.40032
1.40042
1.40058
1.40083
1.40119
1.40172
1.40249
1.40354
1.40497
1.40685
1.40924
1.4122
1.41572
1.41977
1.42427
1.42906
1.43397
1.43879
1.44333
1.4474
1.45087
1.45367
1.45576
1.45718
1.45798
1.45827
1.45814
1.45773
1.45713
1.45647
1.45582
1.45528
1.45489
1.4547
1.45474
1.455
1.45546
1.45608
1.45678
1.45747
1.45803
1.45831
1.45815
1.45739
1.4559
1.4536
1.45048
1.4466
1.44213
1.43728
1.43227
1.42733
1.42265
1.41839
1.41462
1.41138
1.40868
1.40649
1.40474
1.40338
1.40234
1.40158
1.40102
1.40062
1.40035
1.40017
1.40006
1.39999
1.39995
1.39994
1.39993
1.39994
1.39994
1.39995
1.39996
1.39997
1.39998
1.39999
1.39999
1.39999
1.4
1.4
1.4
1.4
1.4
1.4
1.4
1.4
1.4
1.4
1.40001
1.4
1.40001
1.4
1.40001
1.40001
1.40001
1.40001
1.40001
1.4
1.40001
1.4
1.40001
1.4
1.40001
1.4
1.40001
1.40001
1.4
1.40001
1.4
1.40001
1.40001
1.40001
1.40001
1.4
1.40001
1.4
1.40001
1.4
1.40001
1.4
1.4
1.40001
1.4
1.40001
1.4
1.40001
1.4
1.40001
1.40001
1.40001
1.40001
1.40001
1.40001
1.40001
1.40001
1.40002
1.40002
1.40003
1.40004
1.40005
1.40006
1.40008
1.4001
1.40012
1.40015
1.40018
1.40023
1.4003
1.40039
1.40053
1.40075
1.40107
1.40155
1.40225
1.40324
1.4046
1.40642
1.40878
1.41175
1.41535
1.41957
1.42431
1.42942
1.43468
1.43986
1.4447
1.44899
1.45255
1.45529
1.45717
1.45823
1.45854
1.45824
1.45745
1.45633
1.45501
1.45363
1.4523
1.45113
1.45019
1.44955
1.44924
1.4493
1.44972
1.45049
1.45156
1.45288
1.45436
1.45585
1.45721
1.45825
1.45876
1.45852
1.45738
1.45523
1.45206
1.44799
1.44322
1.43802
1.43266
1.42742
1.4225
1.41807
1.4142
1.41092
1.40822
1.40605
1.40435
1.40305
1.40207
1.40136
1.40085
1.4005
1.40026
1.40011
1.40001
1.39996
1.39994
1.39993
1.39993
1.39994
1.39995
1.39996
1.39997
1.39998
1.39998
1.39999
1.39999
1.4
1.4
1.4
1.4
1.4
1.4
1.4
1.4
1.4
1.4
1.40001
1.4
1.40001
1.4
1.40001
1.40001
1.40001
1.4
1.40001
1.40001
1.40001
1.40001
1.40001
1.4
1.40001
1.4
1.40001
1.40001
1.4
1.40001
1.4
1.40001
1.40001
1.40001
1.40001
1.40001
1.4
1.40001
1.4
1.40001
1.40001
1.4
1.40001
1.4
1.4
1.40001
1.4
1.4
1.40001
1.40001
1.40001
1.40001
1.40001
1.40001
1.40001
1.40001
1.40001
1.40002
1.40002
1.40003
1.40004
1.40005
1.40007
1.40009
1.40011
1.40014
1.40017
1.40022
1.40028
1.40036
1.40048
1.40067
1.40095
1.40138
1.40201
1.40291
1.40417
1.40589
1.40818
1.4111
1.41472
1.41903
1.42395
1.42934
1.43494
1.44046
1.44561
1.45012
1.45377
1.45643
1.45807
1.45871
1.45848
1.45751
1.45597
1.45404
1.45189
1.44968
1.44754
1.44559
1.44393
1.44263
1.44175
1.44132
1.44139
1.44194
1.44297
1.44445
1.44632
1.44852
1.45091
1.45335
1.45565
1.45755
1.4588
1.45914
1.45836
1.45636
1.45314
1.44886
1.44379
1.43825
1.43259
1.42709
1.422
1.41746
1.41355
1.41029
1.40763
1.40553
1.40391
1.40269
1.40178
1.40114
1.40068
1.40038
1.40018
1.40005
1.39998
1.39994
1.39993
1.39992
1.39993
1.39994
1.39995
1.39996
1.39997
1.39998
1.39999
1.39999
1.39999
1.4
1.4
1.4
1.4
1.4
1.4
1.4
1.4
1.4
1.4
1.4
1.4
1.40001
1.4
1.40001
1.40001
1.4
1.40001
1.4
1.40001
1.4
1.40001
1.4
1.40001
1.40001
1.4
1.4
1.40001
1.4
1.40001
1.40001
1.4
1.40001
1.40001
1.4
1.40001
1.4
1.4
1.40001
1.40001
1.4
1.4
1.40001
1.4
1.40001
1.40001
1.4
1.40001
1.40001
1.40001
1.40001
1.40001
1.40001
1.40001
1.40001
1.40002
1.40002
1.40003
1.40004
1.40005
1.40006
1.40008
1.4001
1.40013
1.40016
1.4002
1.40025
1.40033
1.40044
1.40059
1.40084
1.40121
1.40176
1.40256
1.40371
1.40531
1.40747
1.41029
1.41385