/*--------------------------------*- C++ -*----------------------------------*\
  =========                 |
  \\      /  F ield         | OpenFOAM: The Open Source CFD Toolbox
   \\    /   O peration     | Website:  https://openfoam.org
    \\  /    A nd           | Version:  6
     \\/     M anipulation  |
\*---------------------------------------------------------------------------*/
FoamFile
{
    version     2.0;
    format      ascii;
    class       volScalarField;
    location    "2.87";
    object      k;
}
// * * * * * * * * * * * * * * * * * * * * * * * * * * * * * * * * * * * * * //

dimensions      [0 2 -2 0 0 0 0];

internalField   nonuniform List<scalar> 
4214
(
0.0278163
0.0215488
0.0198617
0.0196945
0.0200762
0.0207365
0.0216732
0.0230205
0.025006
0.0279358
0.0321778
0.0381231
0.0461403
0.056561
0.0697762
0.0864515
0.107797
0.135574
0.168107
0.184499
0.155859
0.118759
0.0844734
0.0642862
0.0539601
0.0478415
0.0433284
0.0395223
0.0361397
0.0331393
0.0305299
0.0283134
0.0264684
0.0249521
0.0237095
0.0226864
0.021862
0.0212896
0.0212399
0.0226632
0.0286253
0.0181572
0.018088
0.0185193
0.0191194
0.0198369
0.0207512
0.0220254
0.0238971
0.026682
0.0307683
0.0365867
0.0445391
0.0549285
0.0679625
0.0839571
0.103747
0.128733
0.159978
0.191121
0.195512
0.157473
0.119965
0.0867527
0.0680429
0.0582309
0.0519989
0.0470871
0.0427518
0.0388203
0.0352938
0.0322067
0.0295743
0.02738
0.0255801
0.0241128
0.022907
0.0218894
0.0209908
0.0201652
0.0194484
0.0191176
0.0170859
0.0175808
0.0182023
0.0189062
0.0197688
0.0209529
0.0226954
0.0253139
0.0292105
0.0348573
0.0427389
0.0532366
0.066543
0.0827477
0.102198
0.125863
0.155058
0.187923
0.211784
0.200754
0.158945
0.120661
0.0895154
0.0726202
0.0633506
0.0569349
0.0515142
0.0465517
0.0419737
0.0378315
0.0341857
0.0310639
0.0284544
0.0263138
0.0245781
0.0231717
0.0220133
0.0210208
0.0201171
0.0192348
0.0183297
0.0167313
0.017249
0.017912
0.018721
0.0198074
0.0214003
0.0238151
0.0274613
0.0328405
0.040517
0.0510236
0.0646945
0.0815869
0.101678
0.125406
0.15387
0.187114
0.218601
0.230467
0.203934
0.160854
0.122122
0.0936997
0.0785153
0.0695884
0.0628111
0.0567292
0.0510094
0.0456709
0.0408128
0.0365197
0.0328293
0.0297328
0.0271861
0.0251229
0.0234639
0.0221241
0.0210182
0.0200655
0.0191906
0.0183205
0.0162555
0.0168074
0.017565
0.018565
0.0199997
0.022175
0.0254996
0.0304936
0.0377752
0.0480192
0.0618092
0.0794241
0.100779
0.125783
0.155026
0.188997
0.224425
0.248546
0.243279
0.204546
0.162071
0.124548
0.099477
0.0858582
0.0770555
0.0697189
0.0628109
0.0561912
0.0499689
0.0442876
0.0392519
0.0349063
0.031243
0.0282169
0.0257587
0.0237851
0.0222066
0.020934
0.0198841
0.0189822
0.0181611
0.0156392
0.0162894
0.0172119
0.0184979
0.020413
0.0233517
0.0278329
0.0345111
0.044156
0.0575943
0.0754796
0.0980539
0.125071
0.156521
0.19269
0.231698
0.264486
0.27385
0.250139
0.204684
0.163303
0.128832
0.107291
0.0948905
0.0859033
0.0777698
0.0698496
0.0621759
0.0549392
0.0483219
0.0424425
0.0373489
0.0330328
0.0294475
0.0265213
0.0241671
0.0222905
0.020796
0.019595
0.0186102
0.0177799
0.0149613
0.0157545
0.0168992
0.0185572
0.021074
0.0249433
0.0308165
0.039522
0.052047
0.0694364
0.0924606
0.121307
0.155796
0.195801
0.239751
0.280559
0.302637
0.291291
0.251766
0.205347
0.165543
0.135661
0.117411
0.105769
0.0962467
0.0870594
0.0779303
0.0690431
0.0606589
0.0529894
0.04616
0.0402187
0.035156
0.0309238
0.0274491
0.0246422
0.022404
0.0206323
0.0192302
0.0181131
0.0172163
0.0142787
0.015238
0.0166475
0.0187438
0.0219549
0.0268878
0.03436
0.045435
0.0614124
0.0836228
0.113069
0.150133
0.194861
0.245591
0.295961
0.33121
0.33342
0.300559
0.251373
0.206276
0.170178
0.145573
0.130012
0.11861
0.108185
0.0976823
0.0871441
0.076885
0.0672207
0.0583796
0.0504883
0.0435926
0.037681
0.0327051
0.0285921
0.025252
0.0225825
0.0204753
0.0188239
0.0175331
0.016529
0.0136171
0.0147522
0.0164488
0.0190166
0.0229695
0.0290466
0.0382769
0.0520401
0.0720255
0.100069
0.137785
0.186161
0.244462
0.306822
0.358125
0.377324
0.354121
0.304019
0.250731
0.208712
0.178427
0.158856
0.145204
0.133513
0.121822
0.109748
0.0976057
0.0858194
0.0747416
0.064606
0.055535
0.0475697
0.0406972
0.0348698
0.0300174
0.0260524
0.0228723
0.020364
0.0184112
0.016906
0.0157609
0.0129869
0.0142947
0.0162744
0.0193031
0.0239875
0.03123
0.0423255
0.0590445
0.0836722
0.118891
0.167488
0.231052
0.306921
0.380927
0.424647
0.416505
0.366725
0.304806
0.251011
0.214406
0.19091
0.175582
0.163078
0.150597
0.1373
0.123411
0.109479
0.0960124
0.0833842
0.071825
0.0614477
0.0522879
0.0443305
0.0375308
0.0318242
0.0271285
0.0233449
0.0203573
0.0180408
0.0162731
0.0149499
0.0123947
0.0138581
0.0160893
0.0195303
0.0248782
0.0331923
0.0460907
0.0659707
0.0962079
0.141149
0.205751
0.292433
0.389432
0.463666
0.483438
0.444663
0.373896
0.305023
0.253577
0.224329
0.2076
0.1957
0.183718
0.170012
0.154829
0.138913
0.123017
0.107715
0.0933912
0.0802684
0.0684471
0.0579545
0.0487743
0.0408652
0.0341717
0.028621
0.0241218
0.0205581
0.0177976
0.015702
0.0141478
0.0118487
0.0134457
0.0158879
0.0196311
0.0254101
0.0344114
0.0486031
0.0711898
0.107177
0.163625
0.247796
0.357623
0.467573
0.535039
0.53091
0.466083
0.379303
0.306292
0.259468
0.238557
0.228142
0.219119
0.207186
0.191974
0.174727
0.156626
0.13861
0.121318
0.105141
0.0903006
0.0768823
0.0649023
0.0543433
0.0451666
0.0373307
0.0307745
0.0254208
0.0211565
0.0178445
0.0153279
0.0134615
0.0114048
0.0131396
0.0157493
0.0196617
0.0256015
0.0348088
0.0495539
0.0738703
0.114676
0.182104
0.285164
0.416829
0.539171
0.600567
0.575781
0.48864
0.387724
0.311121
0.269281
0.256568
0.25214
0.245624
0.233592
0.216808
0.197454
0.177098
0.156847
0.137423
0.11923
0.102503
0.0873194
0.0736784
0.0615655
0.050936
0.0417716
0.0340219
0.0276351
0.0225029
0.0184912
0.0154199
0.0131194
0.0111334
0.0130328
0.0158167
0.0198349
0.0257422
0.0347212
0.0492017
0.0738617
0.117422
0.192849
0.311429
0.46314
0.600606
0.662386
0.624079
0.518802
0.403866
0.321899
0.282954
0.277593
0.278837
0.274899
0.263078
0.24494
0.223643
0.201106
0.178583
0.156933
0.136577
0.11779
0.10067
0.0851758
0.0713228
0.0590233
0.0483108
0.0391223
0.031464
0.0252226
0.0202962
0.0164721
0.0135691
0.0110554
0.0131767
0.0162182
0.0204045
0.0262647
0.0347963
0.0483719
0.0718961
0.115293
0.193851
0.321663
0.48927
0.645596
0.719054
0.679408
0.562157
0.432295
0.340621
0.300452
0.300524
0.307184
0.306462
0.295738
0.276861
0.254061
0.229682
0.204983
0.181144
0.158556
0.13756
0.118376
0.100819
0.0850687
0.0708405
0.0583462
0.0473814
0.0381341
0.030399
0.0242293
0.0193169
0.0155643
0.0111362
0.0135315
0.0169703
0.0215274
0.0275444
0.035746
0.048147
0.0694097
0.109443
0.185542
0.314506
0.492174
0.667421
0.764023
0.73989
0.621457
0.47814
0.37027
0.322203
0.323568
0.336448
0.339427
0.331326
0.313044
0.289461
0.264133
0.237554
0.211833
0.187186
0.16386
0.142716
0.122785
0.105185
0.0886278
0.0742576
0.0609665
0.0498175
0.039872
0.0320033
0.0252939
0.0203386
0.0113442
0.0140073
0.017992
0.0231715
0.0297241
0.0379998
0.0497437
0.068682
0.104607
0.173274
0.298482
0.474833
0.669473
0.788835
0.793788
0.687863
0.537144
0.415446
0.350033
0.34808
0.366539
0.372402
0.368327
0.353901
0.330056
0.306057
0.278114
0.251161
0.225513
0.199255
0.177503
0.153943
0.135839
0.115453
0.100344
0.0830105
0.0706652
0.056454
0.0470591
0.0363073
0.0300945
0.0229924
0.01619
0.0126237
0.0113772
0.0114392
0.0121244
0.013031
0.0139841
0.0149069
0.0157575
0.0164933
0.0170544
0.0173581
0.0173899
0.0174534
0.0203102
0.0494691
0.0192745
0.0136628
0.0110291
0.0101459
0.0102658
0.0109111
0.0117835
0.0127343
0.0136834
0.0145821
0.0153878
0.0160441
0.0164731
0.01665
0.0168907
0.0201804
0.048992
0.0146551
0.0114954
0.00977919
0.00919577
0.00933127
0.0098909
0.0106741
0.0115681
0.0124977
0.0134081
0.0142538
0.0149815
0.0155192
0.0158356
0.0162503
0.0197863
0.0485149
0.0125343
0.010006
0.00883821
0.0084681
0.00859865
0.00905685
0.00972129
0.010517
0.0113845
0.0122705
0.0131256
0.0138982
0.0145235
0.0149679
0.0155543
0.0193042
0.0482419
0.00988534
0.00874872
0.00810999
0.00791073
0.00803144
0.00839114
0.00892724
0.00959972
0.0103716
0.0112008
0.0120394
0.0128351
0.0135277
0.0140866
0.014832
0.0187755
0.0481548
0.00889878
0.00799311
0.00759215
0.0074903
0.0075952
0.00786805
0.00828217
0.00882398
0.00947951
0.0102257
0.0110252
0.0118267
0.0125714
0.0132338
0.0141411
0.0183153
0.0482719
0.00767244
0.00736932
0.00720012
0.00716993
0.00725919
0.00746057
0.00776889
0.00818739
0.00872108
0.00936766
0.0101075
0.0108985
0.0116851
0.0124493
0.0135449
0.0180544
0.0486623
0.00730453
0.00704614
0.00694184
0.00693498
0.00700387
0.00714716
0.00736871
0.0076803
0.00809936
0.00864083
0.0093046
0.0100658
0.010883
0.0117572
0.0131033
0.0181513
0.0494448
0.00685171
0.00678488
0.00675145
0.00676002
0.00681075
0.00690848
0.00706206
0.00728714
0.00760751
0.00804876
0.00862681
0.00933798
0.0101677
0.01116
0.0128448
0.0187478
0.050752
0.00673748
0.00666554
0.00663664
0.00663924
0.00666983
0.00673124
0.00683293
0.00699153
0.00723259
0.00758599
0.00807774
0.00872378
0.00954336
0.0106483
0.0127542
0.0199043
0.0526721
0.00660313
0.0065761
0.00655923
0.0065566
0.00657022
0.00660409
0.00666798
0.0067783
0.00695968
0.00724202
0.00765622
0.0082333
0.0090247
0.0102187
0.0127735
0.0215178
0.0551873
0.00658151
0.00654668
0.00652324
0.0065102
0.00650826
0.00652141
0.00655894
0.00663645
0.00677607
0.00700567
0.00735806
0.00787456
0.00863186
0.00988216
0.0128262
0.0233058
0.0581398
0.00656565
0.00653653
0.00651115
0.00649092
0.00647817
0.00647793
0.00649935
0.00655691
0.00667022
0.00686487
0.00717443
0.00764735
0.00837764
0.00965597
0.0128615
0.0249047
0.0612501
0.00658476
0.00655412
0.00652432
0.00649819
0.00647871
0.00647165
0.00648572
0.00653354
0.00663287
0.00680775
0.00709277
0.00754183
0.00826045
0.00955761
0.0129031
0.026145
0.0642027
0.00662371
0.00658902
0.00655664
0.00652803
0.0065068
0.00649908
0.00651303
0.00655968
0.00665502
0.00682301
0.00709943
0.007543
0.00826884
0.00959242
0.012988
0.0269997
0.0667599
0.00666775
0.00663892
0.00660771
0.00658035
0.00656182
0.00655849
0.00657785
0.00663005
0.00673028
0.00690223
0.00718444
0.00764043
0.00839419
0.0097644
0.0131979
0.0274556
0.068825
0.00674341
0.00670822
0.00667773
0.00665423
0.00664232
0.00664765
0.00667697
0.00674023
0.00685305
0.0070404
0.00734282
0.00782973
0.00863556
0.0100868
0.0135937
0.0273489
0.0703774
0.00680805
0.00678675
0.00676419
0.00674929
0.0067478
0.00676529
0.00680858
0.0068881
0.00702075
0.00723376
0.00757177
0.00811194
0.00900075
0.0105774
0.0141563
0.0269183
0.0713998
0.00691681
0.00688906
0.00687169
0.00686647
0.00687777
0.00691057
0.00697176
0.00707298
0.00723327
0.00748313
0.00787263
0.00848799
0.00948951
0.0112321
0.0149231
0.0265607
0.0718509
0.00700204
0.00699741
0.00699489
0.00700427
0.00703176
0.00708323
0.00716671
0.0072959
0.00749275
0.00779212
0.00825079
0.00896498
0.0101089
0.0120474
0.0158677
0.0265486
0.0719897
0.00714569
0.0071349
0.00714135
0.00716487
0.00721047
0.00728406
0.00739488
0.00755929
0.00780299
0.00816612
0.00871307
0.00955014
0.010863
0.013017
0.016995
0.0271075
0.0719681
0.00725343
0.00727537
0.00730274
0.00734609
0.00741386
0.00751403
0.00765829
0.00786635
0.00816834
0.00861036
0.0092645
0.0102458
0.0117463
0.0141221
0.0182767
0.0281907
0.0719374
0.0074361
0.00745098
0.00748978
0.00755149
0.00764358
0.00777487
0.00795921
0.00821987
0.00859182
0.00912713
0.00990466
0.0110453
0.0127408
0.0153275
0.0196419
0.0295231
0.0719538
0.00756922
0.00762635
0.00769127
0.00777847
0.00789989
0.00806754
0.00829871
0.00862056
0.00907271
0.00971253
0.0106238
0.0119293
0.0138136
0.0165833
0.0210038
0.0307939
0.0720023
0.00779696
0.00784472
0.00792265
0.00803253
0.00818494
0.00839293
0.00867633
0.00906577
0.0096049
0.010355
0.0114024
0.0128679
0.0149232
0.0178393
0.0222995
0.031824
0.0720578
0.00795923
0.00806011
0.00817028
0.00831079
0.00849838
0.00875003
0.00908896
0.00954902
0.0101769
0.0110364
0.012214
0.0138258
0.0160287
0.0190584
0.0235135
0.0326582
0.0721416
0.00823953
0.0083294
0.00845435
0.00862051
0.00884242
0.0091378
0.0095318
0.0100606
0.0107729
0.0117335
0.0130279
0.0147668
0.0170934
0.0202142
0.0246531
0.033425
0.0723205
0.00843643
0.00859282
0.008757
0.00895737
0.00921564
0.00955338
0.00999841
0.0105888
0.0113745
0.0124209
0.013812
0.0156545
0.0180827
0.0212828
0.0257189
0.0341736
0.0726622
0.00877487
0.00891877
0.00909984
0.00932751
0.00961878
0.00999441
0.0104827
0.0111226
0.011965
0.0130752
0.0145371
0.0164564
0.0189653
0.022242
0.0267083
0.0349153
0.0732047
0.00900774
0.00922971
0.00945622
0.00972062
0.0100463
0.010456
0.0109786
0.0116534
0.0125314
0.013679
0.0151815
0.0171477
0.0197157
0.0230716
0.0276189
0.0356815
0.0739856
0.00940178
0.00960553
0.0098486
0.0101405
0.0104963
0.0109347
0.0114824
0.0121768
0.0130687
0.0142253
0.0157355
0.0177152
0.0203165
0.0237498
0.0284348
0.0365224
0.0750076
0.00966974
0.00995853
0.0102502
0.0105798
0.0109674
0.0114318
0.0119972
0.0126988
0.0135854
0.0147249
0.0162103
0.0181675
0.0207682
0.024262
0.0291271
0.037452
0.0761984
0.0101203
0.0103863
0.0106957
0.0110548
0.0114724
0.0119609
0.0125404
0.0132417
0.0141104
0.0152135
0.0166469
0.0185458
0.0211032
0.024617
0.0296633
0.0383921
0.0773965
0.010434
0.0107957
0.011162
0.0115672
0.0120242
0.0125437
0.0131423
0.0138463
0.0146966
0.015757
0.0171237
0.0189371
0.0214057
0.0248747
0.0300444
0.0392515
0.0784272
0.0109511
0.0112893
0.0116844
0.0121354
0.0126413
0.0132057
0.0138398
0.0145642
0.0154141
0.0164473
0.0177563
0.0194788
0.0218261
0.0251759
0.0303531
0.0399833
0.0791545
0.0113114
0.0117626
0.0122344
0.0127569
0.0133338
0.013968
0.0146675
0.0154483
0.0163388
0.0173897
0.0186852
0.0203508
0.0225826
0.0257615
0.0308
0.0406489
0.079486
0.0118806
0.0123158
0.0128398
0.0134414
0.0141106
0.0148455
0.015652
0.0165431
0.0175407
0.018686
0.0200535
0.0217496
0.0239381
0.0269667
0.031755
0.041493
0.07935
0.0122633
0.0128327
0.0134627
0.0141752
0.0149679
0.0158426
0.0168081
0.0178792
0.0190729
0.0204173
0.0219787
0.0238465
0.0261497
0.0291726
0.0337396
0.0430198
0.0786914
0.0128359
0.0134078
0.0141228
0.0149589
0.0159032
0.0169582
0.0181386
0.0194686
0.0209669
0.0226297
0.0245264
0.0267503
0.0294153
0.0327387
0.0373695
0.0460496
0.0774778
0.0132144
0.0139359
0.0147909
0.0157863
0.0169163
0.0181909
0.0196358
0.0212967
0.0232288
0.0253356
0.0277179
0.0305136
0.0338661
0.0379988
0.043269
0.0514647
0.0761267
0.0114838
0.0117746
0.0120677
0.0123587
0.0126453
0.0129273
0.0132057
0.0134823
0.0137586
0.014036
0.0143151
0.0145967
0.0148808
0.0151679
0.0154572
0.0157482
0.0160393
0.0163286
0.0166153
0.0169066
0.0173294
0.0177307
0.0179426
0.0180886
0.0181683
0.0181793
0.0181231
0.0180061
0.0178361
0.0176216
0.0173664
0.017088
0.0168043
0.0164819
0.0161802
0.0157954
0.0154729
0.0150073
0.0146661
0.0141266
0.0137606
0.0120618
0.0123694
0.0126761
0.012978
0.0132736
0.013564
0.0138514
0.0141384
0.0144271
0.014719
0.0150152
0.015316
0.015622
0.0159333
0.0162499
0.0165706
0.0168941
0.0172182
0.0175415
0.0178702
0.0183277
0.0187653
0.0190196
0.0192109
0.0193367
0.0193919
0.0193748
0.0192888
0.0191402
0.0189365
0.018679
0.0183828
0.018058
0.0177048
0.0173302
0.0169197
0.0164961
0.0160211
0.0155493
0.0150173
0.0145124
0.012724
0.0130489
0.0133682
0.013679
0.0139819
0.0142796
0.0145756
0.0148733
0.0151752
0.0154828
0.0157973
0.0161192
0.016449
0.0167869
0.0171328
0.0174858
0.0178442
0.0182058
0.0185685
0.0189372
0.0194302
0.0199043
0.0202028
0.0204414
0.020616
0.0207191
0.0207464
0.020698
0.0205775
0.0203912
0.0201411
0.0198314
0.0194845
0.0191023
0.0186865
0.018236
0.0177537
0.0172332
0.0166843
0.0160985
0.0155006
0.0134947
0.0138361
0.0141653
0.014482
0.0147897
0.0150933
0.0153975
0.0157061
0.0160217
0.0163461
0.0166803
0.0170249
0.0173802
0.0177466
0.0181241
0.0185116
0.0189075
0.0193091
0.019714
0.0201254
0.020655
0.021166
0.0215108
0.0217985
0.0220237
0.0221775
0.022253
0.0222473
0.0221612
0.0219984
0.0217647
0.0214432
0.0210757
0.0206636
0.0202105
0.0197181
0.0191872
0.018617
0.0180076
0.0173577
0.0166755
0.0144051
0.0147598
0.0150937
0.0154119
0.0157214
0.0160293
0.0163409
0.0166604
0.0169903
0.0173322
0.0176871
0.0180556
0.0184381
0.0188349
0.0192459
0.0196703
0.0201059
0.0205502
0.0209998
0.0214566
0.022024
0.0225731
0.0229664
0.0233051
0.0235827
0.0237889
0.0239152
0.0239558
0.0239086
0.0237746
0.023558
0.0232404
0.0228505
0.0224053
0.021911
0.0213714
0.020789
0.0201646
0.0194972
0.0187825
0.0180179
0.0154949
0.0158555
0.0161863
0.0165002
0.0168081
0.0171182
0.0174364
0.0177664
0.0181106
0.0184703
0.0188466
0.01924
0.019651
0.0200797
0.0205261
0.0209894
0.0214672
0.0219565
0.0224536
0.0229584
0.0235654
0.0241541
0.0245984
0.0249904
0.025322
0.025582
0.0257605
0.0258494
0.0258438
0.0257423
0.0255464
0.025255
0.024837
0.0243559
0.0238151
0.0232211
0.0225794
0.0218934
0.0211635
0.0203838
0.0195399
0.016813
0.0171662
0.0174837
0.0177868
0.0180892
0.0183993
0.0187226
0.0190621
0.0194199
0.0197972
0.0201951
0.0206141
0.0210545
0.0215165
0.0220001
0.0225042
0.0230263
0.0235631
0.0241101
0.0246659
0.0253144
0.025945
0.0264432
0.0268908
0.0272783
0.0275933
0.0278247
0.0279625
0.0279998
0.0279324
0.0277595
0.0274834
0.0270849
0.0265591
0.0259653
0.0253092
0.0245992
0.0238421
0.0230418
0.0221946
0.0212779
0.0184181
0.0187452
0.0190374
0.0193231
0.0196158
0.0199231
0.0202491
0.0205963
0.0209663
0.0213603
0.0217794
0.022224
0.0226945
0.0231909
0.023713
0.0242597
0.0248282
0.0254148
0.0260144
0.026624
0.0273163
0.0279914
0.0285464
0.0290522
0.0294975
0.0298688
0.0301534
0.0303401
0.0304198
0.0303865
0.0302369
0.0299718
0.029595
0.0290855
0.0284348
0.0277087
0.0269217
0.0260842
0.0252044
0.0242848
0.0233084
0.0203801
0.0206597
0.0209155
0.021177
0.0214553
0.0217556
0.0220808
0.0224326
0.0228124
0.0232214
0.0236605
0.0241303
0.0246309
0.0251625
0.0257243
0.0263151
0.0269318
0.0275702
0.0282247
0.0288907
0.0296293
0.0303517
0.0309663
0.0315326
0.0320373
0.0324657
0.0328037
0.0330386
0.0331596
0.0331589
0.0330316
0.0327768
0.0323967
0.0318972
0.0312825
0.0305375
0.0296953
0.0287868
0.0278351
0.0268536
0.0258393
0.0227848
0.0229993
0.0232096
0.0234401
0.0236975
0.0239849
0.0243039
0.0246558
0.0250418
0.0254629
0.02592
0.0264138
0.0269441
0.0275108
0.0281129
0.0287488
0.0294151
0.0301069
0.030818
0.0315423
0.0323294
0.0331012
0.0337776
0.0344058
0.0349709
0.0354566
0.0358474
0.036129
0.0362894
0.0363189
0.0362116
0.0359648
0.0355797
0.0350609
0.0344163
0.0336558
0.0327913
0.0318338
0.0307959
0.0296929
0.0285439
0.0257471
0.0258884
0.0260464
0.0262372
0.0264647
0.0267306
0.027036
0.0273817
0.0277686
0.0281977
0.0286697
0.0291851
0.0297435
0.0303443
0.0309864
0.0316674
0.0323834
0.0331291
0.0338973
0.0346806
0.0355168
0.0363389
0.0370772
0.037767
0.0383915
0.038933
0.0393745
0.0397003
0.0398969
0.0399535
0.0398625
0.0396204
0.0392269
0.0386855
0.038002
0.0371842
0.0362434
0.0351927
0.0340515
0.0328451
0.0316023
0.0294364
0.0295029
0.0296007
0.0297409
0.0299266
0.0301597
0.0304416
0.0307726
0.0311535
0.0315846
0.0320666
0.0325994
0.0331826
0.0338149
0.0344944
0.0352184
0.0359824
0.0367799
0.0376032
0.0384431
0.0393265
0.0401963
0.0409934
0.0417407
0.0424201
0.0430126
0.0434999
0.0438649
0.0440928
0.0441714
0.0440923
0.0438502
0.043444
0.0428756
0.0421477
0.0412663
0.040246
0.0391066
0.0378752
0.0365804
0.0352504
0.0341048
0.0340917
0.0341188
0.0341951
0.0343254
0.0345123
0.0347584
0.0350638
0.0354288
0.0358535
0.0363376
0.036881
0.0374824
0.03814
0.0388512
0.0396122
0.0404178
0.0412605
0.0421315
0.0430203
0.043943
0.044852
0.0456978
0.0464923
0.047216
0.047849
0.0483719
0.0487667
0.0490175
0.049111
0.0490377
0.0487911
0.0483689
0.0477719
0.046999
0.0460581
0.0449709
0.0437624
0.04246
0.0410897
0.0396792
0.0401181
0.0400137
0.0399579
0.0399575
0.0400186
0.0401453
0.0403413
0.0406073
0.0409434
0.0413489
0.041823
0.0423648
0.0429722
0.0436427
0.0443724
0.0451565
0.0459887
0.0468605
0.0477619
0.048681
0.0496243
0.0505525
0.0514256
0.0522454
0.0529919
0.0536449
0.0541847
0.0545929
0.0548531
0.0549516
0.0548779
0.0546249
0.0541895
0.0535709
0.0527665
0.0517902
0.0506672
0.0494206
0.048074
0.0466516
0.0451844
0.0480094
0.0478061
0.04766
0.0475745
0.0475565
0.0476108
0.047742
0.0479522
0.0482418
0.0486094
0.0490532
0.0495717
0.0501618
0.0508197
0.0515406
0.052318
0.0531446
0.0540108
0.0549054
0.0558157
0.0567401
0.0576469
0.0585049
0.0593082
0.0600377
0.0606738
0.061198
0.0615926
0.061842
0.061933
0.0618553
0.0616017
0.0611682
0.0605538
0.0597567
0.0587958
0.0576911
0.0564606
0.0551251
0.0537082
0.0522424
0.0585887
0.0583059
0.0580827
0.0579202
0.0578252
0.0578035
0.0578598
0.0579972
0.0582171
0.0585177
0.0588968
0.0593516
0.0598783
0.0604719
0.0611264
0.0618345
0.0625876
0.0633755
0.064187
0.0650091
0.0658354
0.0666416
0.0674046
0.0681149
0.0687562
0.0693119
0.0697664
0.0701051
0.070315
0.0703851
0.0703067
0.0700734
0.0696811
0.0691285
0.0684171
0.0675619
0.0665746
0.0654689
0.0642616
0.0629722
0.0616316
0.0731379
0.0728657
0.0726394
0.0724579
0.0723283
0.0722566
0.0722467
0.0723019
0.0724237
0.0726113
0.0728626
0.0731745
0.0735429
0.0739624
0.0744275
0.0749314
0.0754664
0.0760241
0.0765951
0.0771696
0.0777409
0.0782935
0.0788131
0.0792927
0.0797214
0.0800892
0.0803864
0.0806045
0.0807357
0.0807736
0.0807125
0.0805476
0.0802762
0.0798975
0.0794132
0.0788294
0.0781511
0.0773856
0.0765421
0.0756312
0.0746767
0.0487459
0.0197733
0.016849
0.0164064
0.0159668
0.0153113
0.0145285
0.0137149
0.0129187
0.0121623
0.0114579
0.0108209
0.0102786
0.00986743
0.00961403
0.00951588
0.00958562
0.0482436
0.0195925
0.016287
0.0157295
0.0152176
0.0145272
0.0137174
0.012878
0.0120568
0.0112775
0.0105552
0.00990465
0.00934626
0.00890516
0.0086024
0.00845599
0.00852204
0.047723
0.019187
0.0156784
0.0150096
0.014443
0.0137255
0.0129071
0.012066
0.0112491
0.0104812
0.00977672
0.00914666
0.00860425
0.0081643
0.00783766
0.0076339
0.0075862
0.0473976
0.0187127
0.0150299
0.0142604
0.013644
0.0129058
0.0120883
0.0112614
0.0104703
0.00973879
0.00907762
0.00849304
0.00799155
0.00757973
0.00726058
0.00703734
0.00693252
0.0472404
0.0182429
0.0143645
0.013488
0.0128203
0.0120627
0.0112528
0.0104552
0.00971036
0.00903676
0.00843967
0.00792051
0.00748132
0.00712556
0.0068584
0.00669204
0.00665947
0.0472531
0.0178565
0.0137161
0.0127121
0.0119839
0.0112076
0.0104133
0.00965916
0.00897749
0.00837846
0.00786079
0.00742058
0.0070559
0.00676715
0.00655756
0.00643522
0.00641837
0.0474839
0.0176667
0.0131392
0.0119668
0.0111609
0.0103652
0.00959588
0.0088984
0.00829304
0.00777987
0.0073507
0.00699661
0.00671175
0.00649353
0.00634164
0.00625818
0.00624469
0.0480346
0.0178152
0.0127085
0.0112979
0.0103901
0.00957416
0.00883867
0.00820738
0.00768536
0.00726273
0.00692443
0.00665715
0.00645203
0.0063045
0.00621266
0.00617697
0.0062022
0.0490447
0.0184717
0.0125012
0.010752
0.0097168
0.00888108
0.00818519
0.00762321
0.00718358
0.00684702
0.00659275
0.00640345
0.00626738
0.0061777
0.00613061
0.00612565
0.00616843
0.0506532
0.0197808
0.0125585
0.0103565
0.00917782
0.00832686
0.00767307
0.00717657
0.00681001
0.00654646
0.00636122
0.00623442
0.00615222
0.00610602
0.00609099
0.00610583
0.00615065
0.0529267
0.021742
0.0128452
0.0101023
0.0087841
0.00792785
0.00731634
0.00687688
0.00656882
0.00636041
0.00622541
0.0061433
0.00609953
0.00608466
0.00609351
0.00612474
0.00617783
0.0557696
0.0241525
0.0132453
0.00995159
0.0085211
0.00767079
0.00709864
0.00670493
0.00643951
0.0062681
0.00616478
0.00611003
0.00608976
0.0060946
0.00611947
0.00616341
0.00622545
0.0589156
0.0265834
0.0135999
0.00987162
0.00837223
0.00753402
0.00699367
0.00663336
0.0063968
0.00624849
0.00616349
0.00612377
0.00611638
0.00613258
0.00616692
0.006218
0.0062896
0.0620473
0.0284654
0.0138189
0.00986095
0.00833484
0.00750615
0.0069853
0.00664514
0.0064252
0.00628908
0.00621247
0.00617872
0.00617624
0.00619716
0.00623553
0.0062869
0.00634982
0.0649142
0.0296113
0.0139408
0.00994541
0.00841256
0.00758093
0.00706404
0.00672998
0.00651481
0.00638102
0.00630453
0.00626957
0.00626572
0.00628617
0.00632527
0.00637826
0.0064347
0.0673717
0.0300887
0.0140812
0.0101633
0.00860968
0.00775389
0.00722342
0.00688098
0.00665914
0.00651875
0.00643531
0.00639334
0.00638279
0.00639741
0.00643302
0.0064873
0.0065626
0.0693752
0.0300146
0.0143654
0.010543
0.00893151
0.00802482
0.0074606
0.00709457
0.00685485
0.00669947
0.0066026
0.0065482
0.00652636
0.00653077
0.00655667
0.0065995
0.00665818
0.0709005
0.0295627
0.0148778
0.0111004
0.00938746
0.00839989
0.00777942
0.00737305
0.00710229
0.00692204
0.00680477
0.0067332
0.00669676
0.00668879
0.00670423
0.00673647
0.00677011
0.071859
0.0290312
0.0157192
0.0118512
0.00998636
0.00888386
0.00818166
0.0077161
0.00740098
0.00718642
0.00704189
0.00694817
0.0068932
0.00686954
0.00687254
0.00689982
0.00695108
0.0724397
0.0286923
0.0167846
0.0127652
0.0107217
0.00947731
0.00867004
0.00812678
0.00775335
0.00749423
0.00731503
0.00719367
0.00711573
0.00707164
0.00705466
0.00706049
0.00709074
0.0727271
0.0288485
0.0179577
0.0138214
0.0115865
0.0101795
0.00924615
0.00860705
0.00816098
0.00784645
0.00762455
0.00746966
0.00736443
0.0072971
0.00725899
0.00724157
0.0072293
0.0728979
0.0296962
0.0192397
0.01499
0.0125624
0.0109802
0.00990409
0.00915339
0.00862135
0.00824083
0.00796797
0.00777305
0.00763549
0.00754137
0.0074816
0.00745098
0.00744788
0.0729555
0.0310024
0.0206026
0.0162286
0.0136169
0.0118567
0.0106282
0.0097544
0.00912567
0.00867
0.00833866
0.00809767
0.00792295
0.00779758
0.00770979
0.00765244
0.0076287
0.0729626
0.0324006
0.0219589
0.017482
0.0147043
0.0127724
0.0113901
0.0103883
0.00965675
0.00912009
0.00872535
0.00843456
0.00822019
0.00806246
0.00794692
0.00786118
0.00778865
0.0729557
0.0334649
0.0232214
0.0186905
0.0157705
0.0136811
0.012152
0.0110245
0.0101904
0.00957219
0.0091135
0.00877266
0.00851875
0.00832941
0.00818909
0.00808756
0.00801941
0.0728485
0.034103
0.0243458
0.0198099
0.0167687
0.0145376
0.012874
0.0116303
0.0107008
0.010007
0.00948928
0.00910237
0.00881188
0.00859243
0.00842596
0.00830109
0.00822007
0.0728367
0.0346429
0.0253524
0.0208126
0.0176611
0.0153039
0.0135225
0.0121782
0.0111675
0.0104101
0.0098432
0.00941787
0.00909644
0.00885078
0.00866051
0.00851069
0.00838667
0.0730237
0.0351886
0.026255
0.0216797
0.0184202
0.0159527
0.0140744
0.0126514
0.0115794
0.0107751
0.0101719
0.0097175
0.00937146
0.00910372
0.00889341
0.00872785
0.00860397
0.0734588
0.0357627
0.0270514
0.0223948
0.0190276
0.0164691
0.0145207
0.0130457
0.011936
0.0111033
0.0104775
0.0100033
0.00963837
0.00935152
0.00912113
0.00893493
0.00880142
0.0741463
0.0363676
0.0277269
0.0229428
0.0194742
0.0168514
0.0148648
0.013368
0.0122449
0.0114022
0.0107661
0.0102798
0.00990041
0.00959668
0.00934681
0.00913701
0.00896392
0.0750319
0.036981
0.0282567
0.0233109
0.0197595
0.0171082
0.0151205
0.0136329
0.0125197
0.0116827
0.011046
0.0105528
0.0101613
0.00984141
0.00957264
0.00934309
0.00915795
0.0760018
0.0375622
0.0286119
0.0234941
0.0198953
0.01726
0.0153104
0.0138617
0.0127784
0.0119587
0.0113272
0.0108291
0.0104253
0.0100882
0.00979892
0.00954642
0.00934401
0.0768991
0.0380595
0.028775
0.0235085
0.0199148
0.0173443
0.0154696
0.014084
0.0130439
0.0122471
0.0116214
0.0111165
0.0106976
0.0103406
0.0100287
0.00975058
0.00950677
0.077568
0.0384288
0.0287656
0.0234131
0.0198873
0.0174253
0.0156515
0.0143409
0.0133463
0.0125689
0.0119428
0.0114244
0.0109846
0.0106033
0.0102663
0.0099628
0.00969166
0.077902
0.0386719
0.0286747
0.0233337
0.0199345
0.0176044
0.0159332
0.0146881
0.0137241
0.0129497
0.0123082
0.0117643
0.0112949
0.0108833
0.0105168
0.0101853
0.00988666
0.0778508
0.0388856
0.0287085
0.0234893
0.020243
0.0180244
0.0164176
0.0151963
0.0142244
0.0134206
0.0127388
0.0121516
0.0116402
0.0111899
0.010788
0.0104238
0.0100895
0.0773957
0.0393288
0.0292214
0.0241913
0.021053
0.01886
0.0172264
0.0159477
0.0149016
0.0140184
0.0132606
0.0126057
0.012036
0.0115352
0.011089
0.0106853
0.0103164
0.076544
0.0405029
0.0307218
0.0258137
0.0226244
0.0202909
0.0184832
0.0170263
0.0158133
0.014784
0.0139044
0.0131505
0.0125002
0.0119325
0.011429
0.0109751
0.010571
0.0753292
0.0432063
0.0338455
0.0287418
0.0251913
0.0224652
0.0202871
0.0185018
0.0170118
0.0157582
0.0147017
0.0138089
0.0130486
0.0123921
0.0118143
0.0113004
0.0108534
0.0741839
0.048417
0.0392476
0.0333753
0.0289483
0.0254786
0.0226947
0.0204165
0.0185325
0.01697
0.0156733
0.0145935
0.0136871
0.0129163
0.0122451
0.0116662
0.0111591
0.0141021
0.0242113
0.0395603
0.0677977
0.157136
0.408186
0.719184
0.739011
0.52747
0.388884
0.403667
0.400426
0.357073
0.300222
0.244639
0.195187
0.152236
0.114541
0.081182
0.0527105
0.0155703
0.0277376
0.0452171
0.0737582
0.159299
0.394675
0.698826
0.764603
0.592495
0.434199
0.437084
0.450009
0.416169
0.361251
0.303785
0.250144
0.200461
0.155432
0.113579
0.0753888
0.0175869
0.0320235
0.0522245
0.080327
0.158573
0.373405
0.671254
0.786841
0.656737
0.492034
0.468819
0.501226
0.482573
0.434269
0.378331
0.322028
0.266605
0.212434
0.159364
0.108261
0.020376
0.0379651
0.0618154
0.0899891
0.159784
0.35009
0.634787
0.79557
0.712888
0.561241
0.504058
0.550387
0.553463
0.518229
0.469436
0.415285
0.355932
0.291376
0.223407
0.154899
0.0241881
0.0467175
0.0759481
0.105373
0.16409
0.32915
0.592272
0.784453
0.769753
0.638858
0.55412
0.59406
0.623963
0.609802
0.574524
0.528388
0.470212
0.397515
0.311767
0.220052
0.0294367
0.0600296
0.0980752
0.129936
0.180207
0.314792
0.548189
0.753852
0.800421
0.710938
0.615188
0.625141
0.687162
0.701821
0.687206
0.654341
0.603351
0.52967
0.429083
0.308645
0.0367873
0.0808615
0.134171
0.170014
0.209229
0.317573
0.510689
0.710016
0.801975
0.759198
0.677868
0.658205
0.729096
0.781726
0.7976
0.784411
0.745111
0.677294
0.57129
0.425181
0.0472755
0.112407
0.189872
0.231156
0.253429
0.327933
0.484667
0.665405
0.780097
0.787929
0.732487
0.694
0.733044
0.830858
0.890355
0.908114
0.88685
0.829068
0.724975
0.56418
0.0624744
0.156501
0.26489
0.310207
0.310313
0.348672
0.465383
0.622243
0.747577
0.790388
0.765912
0.728459
0.738287
0.83081
0.945221
1.0094
1.02024
0.979591
0.88026
0.712107
0.0843517
0.21426
0.352481
0.396725
0.372294
0.377798
0.458676
0.589149
0.711069
0.776839
0.780972
0.755008
0.749398
0.806691
0.948229