/*--------------------------------*- C++ -*----------------------------------*\
  =========                 |
  \\      /  F ield         | OpenFOAM: The Open Source CFD Toolbox
   \\    /   O peration     | Website:  https://openfoam.org
    \\  /    A nd           | Version:  6
     \\/     M anipulation  |
\*---------------------------------------------------------------------------*/
FoamFile
{
    version     2.0;
    format      ascii;
    class       volScalarField;
    location    "2.87";
    object      nut;
}
// * * * * * * * * * * * * * * * * * * * * * * * * * * * * * * * * * * * * * //

dimensions      [0 2 -1 0 0 0 0];

internalField   nonuniform List<scalar> 
4214
(
0.0038611
0.0043119
0.00539342
0.00646737
0.007136
0.00729894
0.00708069
0.00669885
0.00635513
0.00619235
0.00629841
0.00672489
0.00750262
0.00865297
0.0102038
0.0122163
0.0148304
0.0183074
0.0226686
0.0260961
0.0245527
0.0190135
0.0138089
0.0108541
0.00938885
0.00857998
0.00805191
0.00767683
0.0074212
0.00728612
0.00727789
0.00739576
0.00762144
0.00790736
0.00816206
0.00823944
0.00795301
0.00714738
0.00587019
0.0045536
0.00393158
0.00402243
0.00524563
0.00624905
0.00684081
0.00699309
0.00680103
0.00644267
0.00610401
0.00592937
0.00601303
0.0064133
0.00716518
0.0082862
0.00978145
0.011668
0.0140179
0.0169922
0.0208107
0.0250991
0.0274199
0.0243743
0.0186332
0.0137549
0.0110793
0.00970548
0.00887551
0.00827544
0.00780371
0.00744256
0.00719905
0.00708411
0.00710334
0.00725058
0.00750049
0.00779778
0.00804624
0.00810528
0.00780743
0.00701021
0.00570039
0.00414207
0.00520092
0.00605087
0.00653609
0.00666159
0.0064883
0.00615286
0.005822
0.00563845
0.00570177
0.00607741
0.00680994
0.00792494
0.00942539
0.011301
0.0135645
0.0162954
0.0196589
0.023657
0.0273665
0.0281347
0.0239754
0.0181984
0.0137573
0.0113891
0.0101068
0.00924992
0.00856977
0.007996
0.00752447
0.00716776
0.00693975
0.0068495
0.00689781
0.00707282
0.00734237
0.00764448
0.00788046
0.00791845
0.00761148
0.00683348
0.00554364
0.00583115
0.00618529
0.0062868
0.00614396
0.00584122
0.00552286
0.00533016
0.00536858
0.00571111
0.00641245
0.00751404
0.0090338
0.0109575
0.0132563
0.0159412
0.0191006
0.0228164
0.0267367
0.0294369
0.0284423
0.0234726
0.0178425
0.0139121
0.0118332
0.0106169
0.00971558
0.00894309
0.00825934
0.00767184
0.00719759
0.0068523
0.00664647
0.00658435
0.00666177
0.00686124
0.00714401
0.00744228
0.0076573
0.00766777
0.00734664
0.00658409
0.00580538
0.00585094
0.00574755
0.00549828
0.00520557
0.00500663
0.00501483
0.00531187
0.00596199
0.00702255
0.00853728
0.0105153
0.0129205
0.0157043
0.0188788
0.0224896
0.0263901
0.0297497
0.0309452
0.0282276
0.0228523
0.017615
0.0142445
0.0124231
0.0112421
0.010276
0.00939804
0.00859553
0.0078859
0.0072897
0.0068235
0.00649799
0.00631851
0.00628484
0.00638841
0.00660634
0.00689372
0.00717822
0.00736285
0.00733776
0.00699654
0.00538068
0.00528506
0.00510688
0.00486493
0.00467138
0.00464709
0.00488511
0.00545989
0.00644206
0.00790139
0.00988587
0.0123929
0.0153566
0.0187154
0.0224489
0.0264386
0.0301416
0.0323486
0.0317836
0.0276682
0.0222508
0.0176173
0.0147983
0.0131762
0.0119906
0.0109352
0.00993737
0.00900671
0.00816851
0.007446
0.0068558
0.00640782
0.00610713
0.00595501
0.00594784
0.00607312
0.0063026
0.00658495
0.00684308
0.00698143
0.00690335
0.00479705
0.00465889
0.00448676
0.00432096
0.00427117
0.0044419
0.00491843
0.00578298
0.00712494
0.00903348
0.011561
0.0146847
0.0183186
0.0223712
0.0266774
0.0307752
0.0336814
0.0342286
0.0318959
0.0269837
0.0218161
0.0179215
0.0155917
0.0140975
0.0128646
0.0116946
0.0105622
0.00949403
0.00852107
0.0076681
0.00695092
0.00637821
0.00595406
0.00567972
0.00555387
0.00557024
0.00571227
0.00594531
0.00620974
0.0064215
0.00648719
0.00419726
0.00406795
0.00394771
0.00389037
0.00399635
0.0043607
0.00507393
0.00623801
0.00797139
0.0103861
0.0135427
0.0174082
0.0218806
0.0267288
0.0314534
0.0351221
0.0365715
0.0353008
0.0314989
0.0263138
0.0217051
0.0185724
0.0166262
0.0151845
0.0138625
0.0125541
0.0112733
0.0100591
0.00894584
0.00795831
0.00711111
0.00641149
0.00586224
0.00546392
0.00521572
0.00511457
0.00515145
0.00530458
0.00553034
0.00575712
0.00589266
0.00364748
0.00355294
0.00350452
0.00356096
0.00381399
0.00435837
0.0053001
0.0067703
0.0089221
0.0119057
0.0158121
0.0206151
0.0261088
0.03174
0.0364578
0.0389986
0.0385716
0.0356527
0.0308677
0.025858
0.0220303
0.019578
0.017891
0.0164319
0.0149819
0.0135146
0.0120736
0.0107058
0.00944683
0.00832059
0.00734001
0.00651096
0.005835
0.00531164
0.00493967
0.0047171
0.00463907
0.00469289
0.00484923
0.0050515
0.005213
0.00317028
0.00312001
0.0031443
0.00330258
0.00368134
0.004384
0.00554038
0.00731732
0.00991754
0.013552
0.0183703
0.0243331
0.0310381
0.0373769
0.0415491
0.0422115
0.039784
0.0355368
0.0302641
0.025811
0.022829
0.0209141
0.01937
0.0178342
0.0162238
0.0145812
0.0129702
0.0114419
0.0100319
0.00876238
0.00764453
0.00668294
0.00587803
0.00522838
0.00473196
0.00438658
0.00418897
0.00413178
0.00419714
0.00434541
0.0045037
0.00276409
0.00275579
0.00283881
0.00307437
0.00355101
0.00438123
0.005722
0.00779447
0.0108901
0.0153317
0.0213724
0.0289267
0.0369241
0.0431482
0.0457544
0.0444075
0.0403491
0.035223
0.029927
0.0262592
0.0240662
0.0225399
0.02105
0.0193883
0.0175962
0.0157673
0.0139786
0.0122835
0.0107166
0.00929823
0.00803821
0.00693983
0.00600265
0.00522443
0.00460246
0.00413369
0.00381471
0.00364013
0.0035994
0.00366886
0.00379786
0.00241209
0.00243464
0.00256467
0.00285689
0.00339345
0.00429459
0.00574707
0.00803876
0.0115843
0.0168796
0.0242555
0.0332276
0.0418993
0.0476795
0.0488714
0.0458695
0.0405961
0.0349496
0.0300041
0.0271927
0.0256618
0.0244208
0.0229152
0.0211001
0.0191178
0.0170986
0.0151272
0.0132597
0.0115292
0.00995538
0.00854672
0.00730554
0.00623095
0.00532005
0.00456991
0.00397649
0.00353552
0.00324089
0.00308468
0.00305381
0.00312231
0.00211219
0.00216505
0.0023288
0.00265023
0.00320475
0.00411443
0.00558954
0.00798057
0.0118341
0.0178306
0.0263479
0.0365642
0.0459118
0.0513824
0.0514638
0.0471654
0.040966
0.0350364
0.0305603
0.0285177
0.0275557
0.0265121
0.0249594
0.0229894
0.0208233
0.0186184
0.0164635
0.0144197
0.0125187
0.0107815
0.0092161
0.00782382
0.00660427
0.00555361
0.00466991
0.00394804
0.00338359
0.00296812
0.00269292
0.00254685
0.0025192
0.00187382
0.0019521
0.00213887
0.00247074
0.00301222
0.00387718
0.00528586
0.00763375
0.0115875
0.0179944
0.0273395
0.0386055
0.0487621
0.0543693
0.053881
0.0487032
0.0417985
0.0356873
0.0315727
0.0301297
0.0296598
0.028772
0.0271882
0.0250906
0.0227646
0.0203919
0.01806
0.0158406
0.013764
0.0118548
0.0101233
0.00856873
0.00719439
0.00599267
0.00496616
0.00410675
0.00341336
0.0028738
0.00247943
0.00221385
0.00206744
0.00169343
0.00179723
0.00200502
0.00234191
0.00285855
0.00364957
0.00492586
0.00709287
0.0108932
0.0173214
0.0270311
0.0390582
0.050203
0.0565764
0.0562826
0.0507566
0.0433205
0.0369731
0.032972
0.0319646
0.0318485
0.0311649
0.0296116
0.0274499
0.0250078
0.0225074
0.0200155
0.0176328
0.0153823
0.0132949
0.0113919
0.00966047
0.00812201
0.00675098
0.00556877
0.00455194
0.00371614
0.00303692
0.00251759
0.00212856
0.00186357
0.0015655
0.00169356
0.00192559
0.00227464
0.00277543
0.00349588
0.00461451
0.00650737
0.00990917
0.0159402
0.0254758
0.0378973
0.0500122
0.0577208
0.0585408
0.0533856
0.0456942
0.0389423
0.0348132
0.0338492
0.0340633
0.0336196
0.0322182
0.030118
0.0276183
0.0250755
0.0224558
0.0199452
0.0175451
0.0152754
0.0132167
0.0112819
0.00958677
0.00800932
0.00666725
0.00544753
0.00445246
0.00358414
0.00292067
0.00237249
0.00198947
0.00147891
0.00162494
0.00188557
0.00226067
0.00277066
0.00345182
0.00444882
0.00606633
0.0090128
0.0143288
0.0233189
0.0354315
0.0484262
0.0573959
0.0599296
0.0559967
0.0485232
0.0416943
0.0370408
0.0358909
0.0362746
0.0360568
0.0348961
0.0331498
0.0306163
0.0282257
0.0255253
0.022948
0.0205014
0.0179995
0.0159171
0.0136623
0.0119394
0.0100088
0.00861215
0.00702694
0.00593937
0.00470573
0.00392515
0.00304769
0.00256373
0.00202545
0.00169112
0.00169982
0.00203266
0.00259259
0.00323301
0.00389728
0.0045731
0.00524108
0.00585666
0.0063353
0.00653497
0.00625578
0.00533592
0.00391525
0.00288191
0.00499308
0.00176074
0.00151497
0.00158246
0.00189629
0.00236735
0.0028918
0.0034434
0.00402144
0.00461256
0.00518021
0.00565197
0.00589968
0.00573047
0.00495928
0.00367919
0.00277717
0.00501672
0.00145695
0.00138806
0.00150687
0.00178598
0.00215986
0.00257067
0.00301485
0.0034981
0.00401086
0.00452337
0.00497601
0.00525911
0.00519405
0.00458066
0.00345613
0.00266607
0.00500728
0.00133775
0.00132401
0.0014633
0.00169635
0.00197821
0.00228825
0.00263556
0.00302881
0.00346204
0.00391227
0.0043321
0.00463189
0.00465421
0.00419466
0.00323334
0.00255211
0.00497424
0.00123113
0.00129936
0.00143983
0.00162109
0.00182418
0.00205122
0.00231521
0.00262582
0.00298102
0.00336484
0.00374132
0.00403934
0.00412652
0.00380762
0.00301235
0.00243758
0.00491705
0.00121284
0.00129859
0.00142033
0.0015527
0.00169419
0.00185689
0.00205265
0.00229094
0.00257334
0.00289089
0.00321812
0.00349984
0.00362774
0.00342649
0.00279334
0.00232968
0.0048379
0.00123503
0.00131186
0.0013987
0.00148798
0.00158426
0.00169912
0.00184139
0.00201945
0.00223766
0.00249322
0.00276989
0.003026
0.00317407
0.00306323
0.00257994
0.00223595
0.004742
0.00123925
0.00130368
0.00136486
0.00142498
0.00149081
0.00157141
0.00167328
0.00180351
0.00196812
0.00216894
0.00239729
0.00262291
0.0027763
0.00273076
0.00237972
0.00216625
0.00463674
0.00125499
0.00129097
0.00132739
0.00136638
0.00141146
0.0014678
0.00154002
0.00163389
0.00175601
0.00191091
0.00209548
0.00228906
0.00243808
0.00243907
0.00220246
0.00213038
0.00452911
0.00123768
0.00126129
0.00128566
0.00131245
0.00134402
0.00138344
0.0014344
0.00150159
0.00159141
0.00170952
0.00185635
0.00201897
0.00215803
0.00219238
0.00205525
0.00213382
0.00442265
0.00121438
0.00123036
0.00124649
0.00126482
0.00128684
0.00131434
0.00135026
0.00139849
0.00146472
0.00155466
0.00167068
0.00180572
0.00193254
0.00199068
0.00193879
0.00217089
0.00431559
0.0011926
0.00120069
0.00121108
0.00122355
0.00123875
0.00125789
0.00128334
0.00131849
0.00136814
0.00143748
0.00152986
0.00164223
0.00175696
0.00183132
0.00184828
0.00222292
0.00420146
0.00116376
0.00117181
0.00117936
0.00118791
0.00119835
0.00121184
0.0012303
0.0012568
0.00129532
0.00135043
0.0014258
0.00152101
0.00162511
0.0017094
0.00177749
0.00226584
0.004072
0.00114624
0.00114863
0.00115268
0.00115804
0.00116514
0.00117496
0.00118911
0.00121013
0.00124153
0.00128725
0.00135105
0.00143401
0.00152945
0.00161884
0.0017229
0.00228765
0.00392143
0.00112282
0.00112626
0.00112915
0.00113276
0.00113793
0.0011457
0.0011575
0.00117546
0.00120257
0.00124249
0.00129879
0.00137331
0.00146192
0.00155322
0.0016806
0.00228507
0.00374927
0.00110972
0.00110916
0.00111007
0.00111234
0.00111642
0.0011232
0.00113392
0.00115047
0.00117543
0.00121201
0.00126376
0.00133261
0.00141585
0.00150705
0.00164979
0.00225544
0.00356016
0.00109209
0.00109289
0.00109374
0.00109575
0.00109964
0.00110628
0.00111686
0.00113314
0.00115746
0.00119274
0.00124208
0.0013073
0.00138662
0.0014773
0.00162993
0.00218845
0.00336028
0.00108277
0.00108107
0.00108121
0.00108315
0.00108726
0.00109427
0.00110535
0.00112215
0.00114687
0.0011822
0.00123088
0.00129448
0.00137177
0.00146276
0.00161504
0.00209238
0.00315498
0.00107032
0.00107028
0.00107117
0.00107371
0.00107849
0.00108636
0.00109847
0.00111646
0.00114245
0.00117893
0.00122834
0.0012921
0.00136963
0.00146275
0.00160861
0.00198049
0.00294746
0.00106432
0.00106313
0.00106421
0.0010674
0.00107307
0.0010821
0.00109567
0.00111543
0.00114347
0.00118214
0.00123368
0.00129948
0.00137957
0.00147601
0.00161161
0.00187909
0.00274726
0.00105657
0.00105714
0.00105937
0.00106359
0.00107047
0.00108102
0.00109651
0.00111866
0.00114956
0.00119151
0.0012467
0.0013165
0.00140105
0.00150069
0.00162331
0.0018045
0.00255998
0.00105347
0.00105392
0.00105689
0.00106218
0.00107047
0.00108287
0.00110074
0.00112591
0.00116055
0.00120699
0.00126734
0.0013428
0.00143275
0.00153401
0.00164099
0.00175562
0.00238964
0.0010499
0.00105193
0.00105616
0.00106278
0.00107277
0.00108739
0.00110816
0.00113705
0.00117634
0.00122839
0.00129516
0.00137726
0.00147232
0.00157232
0.00166003
0.00171899
0.00223806
0.00104922
0.00105185
0.00105714
0.00106523
0.00107718
0.00109437
0.00111852
0.00115177
0.00119648
0.001255
0.00132889
0.00141771
0.00151653
0.00161181
0.00167648
0.00168251
0.00210604
0.0010493
0.00105313
0.00105966
0.00106934
0.00108343
0.00110348
0.00113138
0.00116942
0.00122002
0.00128536
0.00136641
0.00146128
0.00156211
0.00164998
0.00168959
0.00164334
0.00199477
0.00105058
0.00105554
0.00106338
0.00107477
0.00109115
0.0011142
0.00114599
0.00118893
0.00124543
0.0013174
0.00140512
0.00150513
0.00160675
0.00168648
0.00170251
0.00160856
0.00190665
0.00105394
0.00105957
0.00106847
0.0010814
0.00109992
0.00112583
0.00116131
0.00120881
0.00127071
0.00134866
0.00144227
0.00154679
0.00164926
0.00172266
0.00172015
0.00158813
0.00184522
0.00105689
0.00106406
0.00107426
0.0010887
0.00110912
0.00113745
0.00117599
0.00122723
0.00129353
0.00137638
0.00147503
0.00158398
0.00168885
0.00176019
0.00174706
0.00158873
0.00181463
0.00106325
0.00107042
0.00108118
0.00109653
0.00111821
0.00114815
0.00118866
0.0012423
0.00131147
0.00139775
0.00150048
0.00161418
0.00172421
0.0017999
0.00178675
0.0016153
0.00181934
0.0010676
0.00107648
0.00108818
0.00110423
0.00112649
0.00115699
0.00119802
0.00125223
0.00132223
0.00140994
0.00151537
0.00163406
0.00175249
0.00184036
0.00184046
0.0016723
0.00186463
0.00107643
0.00108446
0.0010959
0.00111176
0.00113363
0.00116336
0.00120318
0.00125576
0.00132398
0.00141041
0.00151627
0.00163914
0.00176832
0.0018763
0.00190527
0.00176278
0.00195616
0.00108186
0.0010915
0.0011033
0.00111879
0.00113953
0.00116728
0.00120414
0.00125272
0.00131618
0.00139784
0.00150047
0.00162453
0.00176409
0.00189788
0.00197233
0.0018856
0.00209925
0.00109279
0.00110092
0.00111182
0.00112619
0.00114504
0.00116976
0.00120215
0.00124463
0.00130038
0.00137329
0.00146765
0.00158712
0.001732
0.00189151
0.00202509
0.00203148
0.00229817
0.00109959
0.00110954
0.00112069
0.00113426
0.00115119
0.00117251
0.00119967
0.00123472
0.00128057
0.0013412
0.00142181
0.00152872
0.00166859
0.00184432
0.00204011
0.00217938
0.00255631
0.00111292
0.00112114
0.00113149
0.00114413
0.0011593
0.0011775
0.00119962
0.00122715
0.00126242
0.00130891
0.00137175
0.0014585
0.00158027
0.00175292
0.00199403
0.00229218
0.00287603
0.00112125
0.00113194
0.00114322
0.00115591
0.0011702
0.00118628
0.00120453
0.00122582
0.00125166
0.00128462
0.00132896
0.00139174
0.00148515
0.00163231
0.00188052
0.00232108
0.00325815
0.00113651
0.00114577
0.00115713
0.00117018
0.00118448
0.00119973
0.0012159
0.0012332
0.00125232
0.00127478
0.00130359
0.00134422
0.00140692
0.00151437
0.0017264
0.00223188
0.00370099
0.0011457
0.0011583
0.00117175
0.00118643
0.00120194
0.00121789
0.00123394
0.00124986
0.00126562
0.00128197
0.00130073
0.00132544
0.00136306
0.00143071
0.0015819
0.00204454
0.00419981
0.0011612
0.00117318
0.00118797
0.00120466
0.00122233
0.00124031
0.00125807
0.001275
0.00129036
0.00130447
0.0013186
0.00133505
0.00135767
0.00139624
0.0014879
0.00183311
0.00474542
0.00117059
0.00118645
0.00120448
0.00122441
0.00124535
0.00126657
0.00128749
0.00130729
0.00132428
0.00133809
0.0013508
0.00136493
0.00138264
0.00140777
0.00145647
0.00164449
0.00534157
0.00116759
0.00117108
0.00117457
0.00117785
0.00118075
0.00118323
0.00118534
0.0011872
0.00118901
0.00119096
0.00119324
0.00119602
0.00119944
0.00120361
0.00120861
0.00121452
0.00122134
0.00122907
0.00123769
0.0012474
0.00126199
0.00127605
0.00128416
0.00129052
0.00129515
0.00129797
0.00129894
0.00129815
0.00129567
0.00129163
0.001286
0.00127891
0.00127116
0.00126181
0.00125312
0.00124168
0.00123256
0.00121902
0.00120988
0.00119476
0.0011855
0.00116046
0.00116433
0.00116822
0.00117186
0.00117506
0.00117783
0.00118025
0.00118252
0.00118485
0.00118744
0.00119049
0.00119415
0.00119856
0.00120383
0.00121003
0.00121721
0.00122537
0.0012345
0.00124456
0.00125573
0.00127189
0.00128761
0.00129744
0.00130563
0.00131216
0.00131687
0.00131968
0.00132059
0.00131966
0.00131697
0.00131243
0.00130592
0.00129787
0.00128846
0.00127819
0.00126668
0.00125497
0.00124171
0.00122902
0.0012146
0.00120158
0.00115386
0.00115824
0.0011626
0.00116661
0.00117011
0.00117317
0.00117595
0.00117867
0.00118158
0.00118488
0.00118876
0.00119335
0.0011988
0.00120518
0.00121257
0.001221
0.00123046
0.00124091
0.0012523
0.00126478
0.00128219
0.00129918
0.0013105
0.00132032
0.00132857
0.00133506
0.00133966
0.0013423
0.00134299
0.00134177
0.00133858
0.00133301
0.00132553
0.00131638
0.00130586
0.0012941
0.00128139
0.00126757
0.00125314
0.00123779
0.0012225
0.00114846
0.00115345
0.0011583
0.00116263
0.00116639
0.00116973
0.00117288
0.0011761
0.00117964
0.00118369
0.00118843
0.00119397
0.00120044
0.00120792
0.00121646
0.00122606
0.00123673
0.00124839
0.00126098
0.0012746
0.00129292
0.00131082
0.00132339
0.00133459
0.00134433
0.00135241
0.00135864
0.00136292
0.0013652
0.00136547
0.00136374
0.00135935
0.00135271
0.00134408
0.00133378
0.00132203
0.00130904
0.00129485
0.00127958
0.00126324
0.00124628
0.00114508
0.00115075
0.001156
0.00116054
0.00116446
0.00116803
0.00117155
0.00117529
0.00117947
0.00118428
0.00118987
0.00119634
0.0012038
0.00121231
0.00122191
0.0012326
0.00124434
0.00125708
0.0012707
0.00128527
0.00130419
0.00132266
0.00133622
0.00134853
0.00135949
0.00136888
0.00137651
0.00138224
0.00138597
0.00138766
0.00138726
0.00138434
0.00137872
0.00137082
0.00136095
0.0013494
0.00133641
0.0013221
0.00130648
0.0012895
0.00127127
0.00114475
0.00115102
0.00115643
0.00116096
0.00116492
0.00116867
0.00117253
0.00117676
0.00118156
0.0011871
0.00119348
0.00120082
0.00120918
0.00121862
0.00122916
0.00124079
0.00125347
0.00126711
0.00128159
0.00129691
0.00131612
0.00133485
0.00134914
0.00136229
0.00137417
0.00138458
0.00139331
0.00140021
0.00140516
0.00140807
0.00140887
0.00140744
0.00140299
0.00139601
0.00138676
0.00137558
0.00136275
0.00134847
0.00133279
0.00131556
0.00129652
0.00114865
0.00115514
0.00116031
0.00116457
0.00116841
0.00117225
0.00117639
0.00118106
0.00118642
0.00119259
0.00119967
0.00120776
0.0012169
0.00122714
0.00123848
0.00125089
0.00126433
0.00127868
0.00129381
0.00130967
0.0013289
0.00134762
0.00136241
0.00137612
0.00138863
0.00139972
0.00140922
0.00141696
0.0014228
0.00142665
0.0014284
0.00142798
0.00142504
0.00141911
0.00141068
0.00140005
0.00138754
0.00137342
0.00135784
0.00134066
0.00132133
0.00115792
0.0011639
0.00116833
0.00117204
0.00117563
0.00117946
0.00118378
0.00118878
0.00119456
0.00120123
0.00120888
0.00121757
0.00122733
0.00123819
0.00125016
0.00126317
0.00127717
0.00129203
0.0013076
0.00132378
0.00134279
0.00136125
0.0013763
0.00139031
0.00140316
0.00141462
0.00142454
0.00143275
0.00143913
0.00144356
0.00144593
0.00144616
0.00144417
0.00143961
0.00143218
0.0014223
0.0014103
0.00139648
0.00138106
0.00136407
0.00134488
0.0011734
0.00117793
0.00118116
0.00118411
0.0011873
0.00119099
0.00119535
0.00120051
0.00120655
0.00121356
0.00122158
0.00123068
0.00124088
0.00125218
0.00126457
0.00127798
0.00129232
0.00130747
0.00132325
0.00133954
0.0013581
0.00137609
0.00139115
0.00140522
0.00141811
0.00142964
0.00143965
0.00144798
0.00145452
0.00145916
0.00146179
0.00146232
0.00146066
0.00145675
0.00145049
0.00144163
0.00143037
0.00141699
0.00140169
0.00138453
0.00136518
0.00119545
0.00119778
0.00119953
0.00120157
0.00120421
0.00120759
0.0012118
0.00121692
0.00122301
0.00123014
0.00123834
0.00124764
0.00125806
0.00126958
0.00128217
0.00129575
0.00131021
0.00132541
0.00134117
0.00135732
0.00137522
0.00139255
0.00140739
0.00142124
0.00143391
0.00144522
0.001455
0.00146313
0.00146949
0.001474
0.00147655
0.00147706
0.00147544
0.00147161
0.0014655
0.00145707
0.00144629
0.00143308
0.0014174
0.00139924
0.00137882
0.00122408
0.00122404
0.00122428
0.0012253
0.0012272
0.00123005
0.00123389
0.00123874
0.00124466
0.00125167
0.00125981
0.00126909
0.0012795
0.001291
0.00130355
0.00131705
0.00133137
0.00134637
0.00136185
0.00137761
0.00139466
0.00141111
0.00142548
0.00143885
0.00145104
0.00146185
0.00147113
0.00147878
0.00148469
0.00148879
0.001491
0.00149125
0.00148945
0.00148551
0.00147936
0.00147089
0.00145996
0.00144644
0.00143029
0.00141172
0.00139126
0.00125946
0.00125746
0.00125632
0.00125621
0.0012572
0.00125929
0.00126251
0.00126686
0.00127236
0.00127903
0.00128686
0.00129586
0.001306
0.00131723
0.00132947
0.00134261
0.00135653
0.00137104
0.00138595
0.00140105
0.00141701
0.00143237
0.001446
0.00145862
0.00147005
0.00148011
0.00148867
0.00149561
0.00150088
0.00150439
0.0015061
0.00150595
0.00150385
0.00149973
0.00149346
0.00148487
0.0014738
0.00146017
0.00144414
0.001426
0.00140628
0.00130228
0.00129883
0.00129649
0.00129525
0.00129519
0.00129634
0.00129875
0.00130238
0.00130724
0.00131332
0.0013206
0.00132906
0.00133865
0.00134931
0.00136094
0.00137342
0.0013866
0.0014003
0.00141432
0.00142843
0.00144304
0.00145706
0.00146964
0.00148123
0.00149164
0.00150072
0.00150834
0.00151444
0.00151892
0.00152176
0.00152291
0.00152232
0.00151992
0.00151563
0.00150926
0.00150063
0.00148968
0.0014765
0.00146124
0.00144408
0.00142551
0.00135353
0.00134899
0.00134571
0.00134347
0.0013424
0.00134256
0.00134403
0.00134678
0.00135081
0.00135607
0.00136253
0.00137017
0.00137891
0.00138866
0.00139933
0.00141077
0.00142283
0.00143533
0.00144806
0.0014608
0.00147374
0.00148611
0.00149729
0.00150752
0.00151664
0.00152452
0.00153105
0.00153617
0.00153982
0.00154196
0.00154256
0.00154158
0.00153897
0.00153463
0.00152833
0.00151997
0.00150965
0.00149743
0.00148336
0.00146751
0.00145049
0.00141428
0.00140904
0.00140522
0.00140234
0.0014005
0.00139981
0.00140036
0.00140215
0.0014052
0.00140943
0.00141483
0.00142132
0.00142884
0.00143728
0.00144654
0.00145648
0.00146693
0.00147772
0.00148865
0.00149953
0.00151039
0.00152072
0.0015301
0.00153861
0.00154614
0.00155258
0.00155784
0.00156188
0.00156466
0.00156613
0.00156628
0.00156506
0.00156242
0.00155827
0.00155239
0.00154483
0.00153566
0.00152486
0.00151241
0.00149836
0.00148354
0.00148626
0.00148099
0.00147726
0.00147427
0.00147213
0.00147093
0.00147075
0.00147165
0.00147363
0.00147666
0.00148069
0.00148566
0.00149149
0.00149809
0.00150535
0.00151313
0.0015213
0.0015297
0.00153815
0.00154651
0.00155473
0.0015625
0.00156955
0.00157591
0.00158149
0.0015862
0.00159001
0.00159286
0.00159474
0.00159561
0.00159545
0.00159422
0.00159187
0.00158833
0.00158346
0.00157734
0.00156994
0.00156122
0.00155117
0.00153982
0.00152823
0.0015726
0.00156836
0.0015657
0.00156347
0.00156176
0.00156064
0.00156017
0.00156039
0.00156132
0.00156296
0.00156526
0.00156818
0.00157166
0.00157562
0.00157998
0.00158465
0.00158954
0.00159454
0.00159954
0.00160444
0.0016092
0.00161366
0.00161769
0.00162131
0.00162444
0.00162706
0.00162915
0.00163068
0.00163163
0.00163199
0.00163175
0.00163087
0.00162931
0.00162703
0.00162398
0.00162019
0.00161559
0.00161017
0.00160391
0.00159682
0.00159022
0.00498645
0.0029674
0.00401907
0.0051737
0.00562378
0.005451
0.00495941
0.00437295
0.00380174
0.00328972
0.00284679
0.00246807
0.0021467
0.00188033
0.00167016
0.00151548
0.00141044
0.005004
0.00282227
0.00373888
0.00477964
0.00516562
0.00500185
0.00456695
0.00405451
0.00355486
0.00310195
0.00270419
0.00235957
0.00206423
0.00181659
0.00161714
0.00146558
0.00135905
0.00498768
0.00267432
0.00346059
0.00438041
0.00470672
0.00455114
0.00416645
0.00371717
0.00327939
0.00288136
0.00253015
0.00222466
0.00196229
0.0017415
0.00156211
0.00142361
0.00132318
0.00494777
0.00252489
0.00318267
0.00398025
0.00424764
0.00409834
0.00375706
0.00336317
0.00298104
0.00263459
0.00232961
0.00206524
0.00183928
0.0016503
0.00149772
0.001381
0.00129828
0.00488337
0.00238241
0.00291179
0.00358286
0.0037909
0.00364611
0.00334343
0.00300049
0.00267099
0.00237459
0.00211557
0.00189287
0.00170429
0.00154816
0.00142332
0.00132866
0.00126291
0.00479599
0.00225599
0.00265524
0.00319763
0.0033465
0.00320504
0.00293802
0.00264336
0.0023648
0.00211751
0.00190406
0.0017227
0.00157102
0.00144705
0.00134932
0.00127639
0.00122639
0.00469014
0.00215574
0.00242169
0.00283816
0.00292994
0.00279092
0.00255743
0.00230877
0.0020792
0.00187934
0.00170986
0.00156815
0.00145145
0.00135761
0.00128493
0.00123174
0.00119557
0.00457297
0.00209085
0.00222221
0.00252029
0.00255925
0.00242194
0.00221929
0.00201321
0.00182896
0.00167296
0.00154382
0.00143815
0.00135285
0.00128562
0.00123466
0.0011983
0.00117521
0.00445257
0.00206951
0.00206484
0.00225569
0.00224924
0.00211386
0.00193843
0.00176961
0.00162467
0.00150625
0.00141128
0.00133558
0.00127572
0.00122928
0.00119442
0.00116976
0.00115453
0.00433542
0.00209677
0.00195104
0.00204757
0.00200591
0.00187435
0.00172245
0.00158437
0.00147096
0.001382
0.00131335
0.00126041
0.00121957
0.00118836
0.00116511
0.00114862
0.00113739
0.00422317
0.00216805
0.00187437
0.00188931
0.00182354
0.00169891
0.00156759
0.00145395
0.00136424
0.00129655
0.00124641
0.00120923
0.0011815
0.00116083
0.00114571
0.00113536
0.00112923
0.00411062
0.00226597
0.00182252
0.0017689
0.00168838
0.00157328
0.00146006
0.00136553
0.0012929
0.00123959
0.00120135
0.00117403
0.00115442
0.0011403
0.00113035
0.00112393
0.00112107
0.0039884
0.00235992
0.0017813
0.00167595
0.00158758
0.00148306
0.00138537
0.00130573
0.00124555
0.00120214
0.00117172
0.00115071
0.00113627
0.00112645
0.00111992
0.00111583
0.00111355
0.00384904
0.00241471
0.00174261
0.00160429
0.00151351
0.00141948
0.00133463
0.00126641
0.00121532
0.00117876
0.00115346
0.00113638
0.00112509
0.00111794
0.00111369
0.00111155
0.00111084
0.00369046
0.00242029
0.00170568
0.00155017
0.00146105
0.00137674
0.00130217
0.0012425
0.00119779
0.00116574
0.00114352
0.00112861
0.00111891
0.00111302
0.00110987
0.0011087
0.00110907
0.00351527
0.0023815
0.0016728
0.00151184
0.0014262
0.00135014
0.00128364
0.0012302
0.00118985
0.0011606
0.00114009
0.00112619
0.00111708
0.00111149
0.00110851
0.00110743
0.00110776
0.00332883
0.00230471
0.00164708
0.00148858
0.00140617
0.0013363
0.00127575
0.00122666
0.00118911
0.00116145
0.00114164
0.00112783
0.00111853
0.00111258
0.00110925
0.00110792
0.00110807
0.00313623
0.00219781
0.00162991
0.00147984
0.00139923
0.00133325
0.00127663
0.00123027
0.00119409
0.00116681
0.00114679
0.0011324
0.00112236
0.00111563
0.00111155
0.00110962
0.00110925
0.00294032
0.00207067
0.00162445
0.00148536
0.00140495
0.00134013
0.00128507
0.00123961
0.00120348
0.00117565
0.00115469
0.00113921
0.00112803
0.00112022
0.00111515
0.00111245
0.00111178
0.00274838
0.00194436
0.00162993
0.00150323
0.00142225
0.00135626
0.00130046
0.00125413
0.00121676
0.00118739
0.00116478
0.00114769
0.00113503
0.0011259
0.00111961
0.00111581
0.00111432
0.00256592
0.0018416
0.0016387
0.00153037
0.00144967
0.00138108
0.00132259
0.00127362
0.00123361
0.00120164
0.00117661
0.00115739
0.00114294
0.00113234
0.00112483
0.00111982
0.00111688
0.00239807
0.00177275
0.00165025
0.00156352
0.00148505
0.00141348
0.00135084
0.00129764
0.00125359
0.00121793
0.00118969
0.00116783
0.00115131
0.00113915
0.00113048
0.00112461
0.00112123
0.00224628
0.00172761
0.00166405
0.00159979
0.0015258
0.00145165
0.00138399
0.00132525
0.00127591
0.00123555
0.00120339
0.00117843
0.00115961
0.0011458
0.00113592
0.00112909
0.00112508
0.002113
0.00169264
0.00167818
0.00163703
0.00156926
0.00149311
0.00141997
0.00135475
0.00129913
0.00125331
0.00121674
0.00118847
0.0011673
0.0011519
0.00114101
0.00113333
0.00112801
0.00200048
0.00165698
0.00169273
0.00167439
0.00161322
0.00153513
0.00145608
0.00138371
0.00132125
0.00126963
0.00122856
0.00119706
0.00117372
0.00115701
0.00114545
0.00113758
0.00113235
0.00190985
0.001624
0.00171061
0.00171257
0.00165631
0.00157519
0.00148943
0.00140945
0.00134003
0.00128281
0.00123765
0.00120339
0.00117833
0.00116069
0.00114875
0.00114087
0.00113602
0.00184647
0.00160905
0.00173677
0.00175276
0.00169736
0.0016108
0.0015172
0.0014294
0.00135345
0.00129142
0.00124307
0.00120689
0.00118086
0.00116285
0.00115095
0.00114329
0.00113826
0.00181485
0.00161909
0.00177442
0.0017951
0.00173457
0.00163931
0.00153673
0.0014414
0.00136
0.00129453
0.00124431
0.00120736
0.00118122
0.00116353
0.0011522
0.00114533
0.00114124
0.00181953
0.00165715
0.00182406
0.00183772
0.00176491
0.00165769
0.00154562
0.00144387
0.00135884
0.00129179
0.00124134
0.00120491
0.00117962
0.00116289
0.00115252
0.0011466
0.00114375
0.00186532
0.00172418
0.00188316
0.00187626
0.00178401
0.00166258
0.00154181
0.00143584
0.00134968
0.00128335
0.00123449
0.0011999
0.0011764
0.00116126
0.00115222
0.00114737
0.00114513
0.00195709
0.00181891
0.00194592
0.00190369
0.00178616
0.00165042
0.00152363
0.00141691
0.00133283
0.00126976
0.00122433
0.00119286
0.00117201
0.00115899
0.00115162
0.00114811
0.00114705
0.00209947
0.00193732
0.00200235
0.00191037
0.00176488
0.001618
0.00149017
0.00138739
0.0013091
0.00125191
0.00121166
0.00118442
0.00116688
0.00115639
0.00115088
0.00114875
0.00114898
0.00229645
0.00207024
0.00203744
0.00188497
0.00171449
0.00156375
0.001442
0.0013487
0.00127997
0.00123104
0.00119739
0.00117522
0.00116145
0.00115372
0.00115019
0.00114945
0.00115046
0.0025511
0.00219858
0.00203135
0.00181793
0.0016333
0.00148968
0.00138221
0.0013037
0.00124765
0.00120869
0.00118256
0.00116588
0.00115609
0.00115118
0.00114966
0.00115035
0.00115238
0.0028656
0.00228881
0.00196464
0.00170786
0.00152765
0.00140337
0.00131707
0.00125685
0.00121508
0.00118671
0.00116821
0.001157
0.00115107
0.0011489
0.00114931
0.00115139
0.0011545
0.00324086
0.00229687
0.00183369
0.00157024
0.00141469
0.00131815
0.00125562
0.00121386
0.00118566
0.001167
0.0011554
0.00114908
0.00114664
0.00114696
0.00114916
0.00115253
0.00115655
0.00367588
0.00219195
0.00166548
0.0014365
0.0013179
0.00124963
0.00120767
0.0011806
0.00116277
0.00115145
0.00114512
0.00114265
0.00114304
0.00114546
0.00114922
0.00115377
0.00115867
0.00416746
0.00199471
0.00151019
0.00133924
0.00125685
0.00120985
0.00118067
0.00116164
0.00114918
0.00114173
0.00113841
0.00113833
0.00114065
0.0011446
0.00114959
0.00115512
0.00116074
0.00470904