# vtk DataFile Version 2.0
bottom_cyc
ASCII
DATASET POLYDATA
POINTS 202 float
-10 -7.5 0 -9.8 -7.5 0 -9.8 -7.5 1 -10 -7.5
1 -9.6 -7.5 0 -9.6 -7.5 1 -9.4 -7.5 0
-9.4 -7.5 1 -9.2 -7.5 0 -9.2 -7.5 1 -9
-7.5 0 -9 -7.5 1 -8.8 -7.5 0 -8.8 -7.5
1 -8.6 -7.5 0 -8.6 -7.5 1 -8.4 -7.5 0
-8.4 -7.5 1 -8.2 -7.5 0 -8.2 -7.5 1 -8
-7.5 0 -8 -7.5 1 -7.8 -7.5 0 -7.8 -7.5
1 -7.6 -7.5 0 -7.6 -7.5 1 -7.4 -7.5 0
-7.4 -7.5 1 -7.2 -7.5 0 -7.2 -7.5 1 -7
-7.5 0 -7 -7.5 1 -6.8 -7.5 0 -6.8 -7.5
1 -6.6 -7.5 0 -6.6 -7.5 1 -6.4 -7.5 0
-6.4 -7.5 1 -6.2 -7.5 0 -6.2 -7.5 1 -6
-7.5 0 -6 -7.5 1 -5.8 -7.5 0 -5.8 -7.5
1 -5.6 -7.5 0 -5.6 -7.5 1 -5.4 -7.5 0
-5.4 -7.5 1 -5.2 -7.5 0 -5.2 -7.5 1 -5
-7.5 0 -5 -7.5 1 -4.8 -7.5 0 -4.8 -7.5
1 -4.6 -7.5 0 -4.6 -7.5 1 -4.4 -7.5 0
-4.4 -7.5 1 -4.2 -7.5 0 -4.2 -7.5 1 -4
-7.5 0 -4 -7.5 1 -3.8 -7.5 0 -3.8 -7.5
1 -3.6 -7.5 0 -3.6 -7.5 1 -3.4 -7.5 0
-3.4 -7.5 1 -3.2 -7.5 0 -3.2 -7.5 1 -3
-7.5 0 -3 -7.5 1 -2.8 -7.5 0 -2.8 -7.5
1 -2.6 -7.5 0 -2.6 -7.5 1 -2.4 -7.5 0
-2.4 -7.5 1 -2.2 -7.5 0 -2.2 -7.5 1 -2
-7.5 0 -2 -7.5 1 -1.8 -7.5 0 -1.8 -7.5
1 -1.6 -7.5 0 -1.6 -7.5 1 -1.4 -7.5 0
-1.4 -7.5 1 -1.2 -7.5 0 -1.2 -7.5 1 -1
-7.5 0 -1 -7.5 1 -0.8 -7.5 0 -0.8 -7.5
1 -0.6 -7.5 0 -0.6 -7.5 1 -0.4 -7.5 0
-0.4 -7.5 1 -0.2 -7.5 0 -0.2 -7.5 1 -1.23261e-11
-7.5 0 -1.23261e-11 -7.5 1 0.2 -7.5 0 0.2 -7.5
1 0.4 -7.5 0 0.4 -7.5 1 0.6 -7.5 0
0.6 -7.5 1 0.8 -7.5 0 0.8 -7.5 1 1
-7.5 0 1 -7.5 1 1.2 -7.5 0 1.2 -7.5
1 1.4 -7.5 0 1.4 -7.5 1 1.6 -7.5 0
1.6 -7.5 1 1.8 -7.5 0 1.8 -7.5 1 2
-7.5 0 2 -7.5 1 2.2 -7.5 0 2.2 -7.5
1 2.4 -7.5 0 2.4 -7.5 1 2.6 -7.5 0
2.6 -7.5 1 2.8 -7.5 0 2.8 -7.5 1 3
-7.5 0 3 -7.5 1 3.2 -7.5 0 3.2 -7.5
1 3.4 -7.5 0 3.4 -7.5 1 3.6 -7.5 0
3.6 -7.5 1 3.8 -7.5 0 3.8 -7.5 1 4
-7.5 0 4 -7.5 1 4.2 -7.5 0 4.2 -7.5
1 4.4 -7.5 0 4.4 -7.5 1 4.6 -7.5 0
4.6 -7.5 1 4.8 -7.5 0 4.8 -7.5 1 5
-7.5 0 5 -7.5 1 5.2 -7.5 0 5.2 -7.5
1 5.4 -7.5 0 5.4 -7.5 1 5.6 -7.5 0
5.6 -7.5 1 5.8 -7.5 0 5.8 -7.5 1 6
-7.5 0 6 -7.5 1 6.2 -7.5 0 6.2 -7.5
1 6.4 -7.5 0 6.4 -7.5 1 6.6 -7.5 0
6.6 -7.5 1 6.8 -7.5 0 6.8 -7.5 1 7
-7.5 0 7 -7.5 1 7.2 -7.5 0 7.2 -7.5
1 7.4 -7.5 0 7.4 -7.5 1 7.6 -7.5 0
7.6 -7.5 1 7.8 -7.5 0 7.8 -7.5 1 8
-7.5 0 8 -7.5 1 8.2 -7.5 0 8.2 -7.5
1 8.4 -7.5 0 8.4 -7.5 1 8.6 -7.5 0
8.6 -7.5 1 8.8 -7.5 0 8.8 -7.5 1 9
-7.5 0 9 -7.5 1 9.2 -7.5 0 9.2 -7.5
1 9.4 -7.5 0 9.4 -7.5 1 9.6 -7.5 0
9.6 -7.5 1 9.8 -7.5 0 9.8 -7.5 1 10
-7.5 0 10 -7.5 1 
POLYGONS 100 500
4 0 1 2 3 4 1 4 5 2 4
4 6 7 5 4 6 8 9 7 4
8 10 11 9 4 10 12 13 11 4
12 14 15 13 4 14 16 17 15 4
16 18 19 17 4 18 20 21 19 4
20 22 23 21 4 22 24 25 23 4
24 26 27 25 4 26 28 29 27 4
28 30 31 29 4 30 32 33 31 4
32 34 35 33 4 34 36 37 35 4
36 38 39 37 4 38 40 41 39 4
40 42 43 41 4 42 44 45 43 4
44 46 47 45 4 46 48 49 47 4
48 50 51 49 4 50 52 53 51 4
52 54 55 53 4 54 56 57 55 4
56 58 59 57 4 58 60 61 59 4
60 62 63 61 4 62 64 65 63 4
64 66 67 65 4 66 68 69 67 4
68 70 71 69 4 70 72 73 71 4
72 74 75 73 4 74 76 77 75 4
76 78 79 77 4 78 80 81 79 4
80 82 83 81 4 82 84 85 83 4
84 86 87 85 4 86 88 89 87 4
88 90 91 89 4 90 92 93 91 4
92 94 95 93 4 94 96 97 95 4
96 98 99 97 4 98 100 101 99 4
100 102 103 101 4 102 104 105 103 4
104 106 107 105 4 106 108 109 107 4
108 110 111 109 4 110 112 113 111 4
112 114 115 113 4 114 116 117 115 4
116 118 119 117 4 118 120 121 119 4
120 122 123 121 4 122 124 125 123 4
124 126 127 125 4 126 128 129 127 4
128 130 131 129 4 130 132 133 131 4
132 134 135 133 4 134 136 137 135 4
136 138 139 137 4 138 140 141 139 4
140 142 143 141 4 142 144 145 143 4
144 146 147 145 4 146 148 149 147 4
148 150 151 149 4 150 152 153 151 4
152 154 155 153 4 154 156 157 155 4
156 158 159 157 4 158 160 161 159 4
160 162 163 161 4 162 164 165 163 4
164 166 167 165 4 166 168 169 167 4
168 170 171 169 4 170 172 173 171 4
172 174 175 173 4 174 176 177 175 4
176 178 179 177 4 178 180 181 179 4
180 182 183 181 4 182 184 185 183 4
184 186 187 185 4 186 188 189 187 4
188 190 191 189 4 190 192 193 191 4
192 194 195 193 4 194 196 197 195 4
196 198 199 197 4 198 200 201 199 
CELL_DATA 100
FIELD attributes 7
patchID 1 100 float
2 2 2 2 2 2 2 2 2 2 2
2 2 2 2 2 2 2 2 2 2
2 2 2 2 2 2 2 2 2 2
2 2 2 2 2 2 2 2 2 2
2 2 2 2 2 2 2 2 2 2
2 2 2 2 2 2 2 2 2 2
2 2 2 2 2 2 2 2 2 2
2 2 2 2 2 2 2 2 2 2
2 2 2 2 2 2 2 2 2 2
2 2 2 2 2 2 2 2 2 
mag(U) 1 100 float
0.999967 0.999968 0.999968 0.999969 0.999969 0.99997 0.99997 0.99997 0.99997 0.99997 0.99997
0.99997 0.99997 0.99997 0.99997 0.99997 0.99997 0.99997 0.99997 0.99997 0.99997
0.99997 0.99997 0.99997 0.99997 0.99997 0.99997 0.99997 0.99997 0.99997 0.99997
0.99997 0.99997 0.99997 0.99997 0.99997 0.99997 0.999969 0.999969 0.999969 0.999969
0.999969 0.999969 0.999969 0.99997 0.999974 0.999978 0.999985 0.999994 1 1.00002
1.00002 1.00003 1.00002 1.00001 1.00001 0.999997 0.999999 1.00002 1.00006 1.00015
1.00028 1.00046 1.00068 1.00095 1.00125 1.00157 1.00191 1.00224 1.00253 1.00279
1.003 1.00314 1.0032 1.00318 1.00308 1.00291 1.00267 1.00239 1.00208 1.00178
1.00147 1.00119 1.00094 1.00072 1.00054 1.00039 1.00027 1.00017 1.00011 1.00005
1.00002 0.999996 0.999981 0.999972 0.999967 0.999965 0.999964 0.999965 0.999965 
p 1 100 float
0.999996 0.999997 0.999998 0.999999 0.999999 1 1 1 1 1 1
1 1 1 1 1 1 1 1 1 1
1 1 1 1 1 1 1 1 1 1
1 1 1 1 1 1 1 1 1 1.00001
1.00001 1.00001 1.00002 1.00002 1.00002 1.00002 1.00002 1.00002 1 1
1.00001 1.00004 1.0001 1.00022 1.0004 1.00066 1.00101 1.00147 1.00202 1.00266
1.00334 1.00406 1.00479 1.00548 1.00612 1.00668 1.00712 1.00743 1.00761 1.00766
1.00756 1.00732 1.00696 1.00647 1.00592 1.00529 1.00463 1.00397 1.00332 1.00273
1.00218 1.00171 1.00131 1.00099 1.00072 1.00051 1.00036 1.00023 1.00014 1.00008
1.00004 1.00002 1.00001 0.999997 0.999993 0.999992 0.999992 0.999994 0.999995 
T 1 100 float
1 1 1 1 1 1 1 1 1 1 1
1 1 1 1 1 1 1 1 1 1
1 1 1 1 1 1 1 1 1 1
1 1 1 1 1 1 1 1 1 1
1 1 1 1 1 1 1 1 1 1
1 1 1 1 1 1 1 1 1 1
1 1 1 1 1.00001 1.00001 1.00001 1.00001 1.00001 1.00001
1.00001 1.00001 1.00001 1.00001 1 1 1 1 1 1
1 1 1 1 1 1 1 1 1 1
1 1 1 1 1 1 1 1 1 
e 1 100 float
1006.29 1006.29 1006.29 1006.29 1006.29 1006.29 1006.29 1006.29 1006.29 1006.29 1006.29
1006.29 1006.29 1006.29 1006.29 1006.29 1006.29 1006.29 1006.29 1006.29 1006.29
1006.29 1006.29 1006.29 1006.29 1006.29 1006.29 1006.29 1006.29 1006.29 1006.29
1006.29 1006.29 1006.29 1006.29 1006.29 1006.29 1006.29 1006.29 1006.29 1006.29
1006.29 1006.29 1006.29 1006.29 1006.29 1006.29 1006.29 1006.29 1006.29 1006.29
1006.29 1006.29 1006.29 1006.29 1006.29 1006.29 1006.29 1006.29 1006.29 1006.29
1006.29 1006.29 1006.29 1006.29 1006.29 1006.29 1006.29 1006.29 1006.29 1006.29
1006.29 1006.29 1006.29 1006.29 1006.29 1006.29 1006.29 1006.29 1006.29 1006.29
1006.29 1006.29 1006.29 1006.29 1006.29 1006.29 1006.29 1006.29 1006.29 1006.29
1006.29 1006.29 1006.29 1006.29 1006.29 1006.29 1006.29 1006.29 1006.29 
rho 1 100 float
1.4 1.4 1.4 1.4 1.4 1.4 1.4 1.4 1.4 1.4 1.40001
1.4 1.4 1.4 1.4 1.4 1.4 1.40001 1.4 1.4 1.40001
1.4 1.4 1.4 1.4 1.40001 1.4 1.4 1.4 1.40001 1.4
1.4 1.40001 1.4 1.40001 1.40001 1.40001 1.40001 1.40001 1.40001 1.40001
1.40001 1.40002 1.40003 1.40003 1.40004 1.40004 1.40003 1.40002 1.40001 1.4
1.40001 1.40006 1.40014 1.4003 1.40056 1.40093 1.40143 1.40207 1.40284 1.40372
1.40468 1.40568 1.4067 1.40768 1.40857 1.40934 1.40996 1.41041 1.41067 1.41071
1.41058 1.41024 1.40973 1.40907 1.40828 1.40741 1.40648 1.40555 1.40465 1.40382
1.40306 1.40241 1.40184 1.40138 1.40102 1.40072 1.4005 1.40033 1.40022 1.40013
1.40007 1.40004 1.40001 1.4 1.39999 1.39999 1.39999 1.39999 1.4 
U 3 100 float
0.894399 0.447197 0 0.894399 0.447198 0 0.894399 0.447199 0 0.8944 0.447199
0 0.8944 0.447199 0 0.8944 0.4472 0 0.8944 0.4472 0
0.8944 0.4472 0 0.8944 0.4472 0 0.8944 0.4472 0 0.8944
0.4472 0 0.8944 0.4472 0 0.8944 0.4472 0 0.8944 0.4472
0 0.8944 0.4472 0 0.8944 0.4472 0 0.8944 0.4472 0
0.8944 0.4472 0 0.8944 0.4472 0 0.8944 0.4472 0 0.8944
0.4472 0 0.8944 0.4472 0 0.8944 0.4472 0 0.8944 0.4472
0 0.8944 0.4472 0 0.8944 0.4472 0 0.8944 0.4472 0
0.8944 0.4472 0 0.8944 0.4472 0 0.8944 0.4472 0 0.8944
0.4472 0 0.8944 0.4472 0 0.8944 0.4472 0 0.8944 0.4472
0 0.8944 0.4472 0 0.8944 0.4472 0 0.8944 0.4472 0
0.894399 0.447201 0 0.894399 0.447201 0 0.894399 0.447202 0 0.894397
0.447203 0 0.894396 0.447205 0 0.894395 0.447208 0 0.894394 0.447211
0 0.894394 0.447215 0 0.894395 0.447218 0 0.894399 0.447221 0
0.894405 0.447223 0 0.894415 0.447224 0 0.894425 0.447224 0 0.894435
0.447225 0 0.89444 0.447232 0 0.894434 0.44725 0 0.894411 0.447292
0 0.894365 0.447369 0 0.894291 0.447497 0 0.894185 0.44769 0
0.894053 0.44796 0 0.893898 0.448312 0 0.893732 0.44875 0 0.893568
0.449266 0 0.893421 0.449846 0 0.893305 0.450469 0 0.893233 0.451109
0 0.893214 0.451739 0 0.893253 0.452329 0 0.893351 0.452854 0
0.893505 0.453288 0 0.893705 0.453612 0 0.893941 0.453811 0 0.894199
0.453878 0 0.894464 0.453809 0 0.89472 0.453607 0 0.894952 0.453283
0 0.895148 0.452852 0 0.895296 0.452336 0 0.895391 0.451762 0
0.895433 0.451158 0 0.895428 0.450554 0 0.895379 0.449973 0 0.895302
0.449439 0 0.895203 0.448963 0 0.895093 0.448554 0 0.894982 0.448213
0 0.894875 0.447937 0 0.894777 0.44772 0 0.894691 0.447554 0
0.894618 0.447432 0 0.894558 0.447343 0 0.894511 0.447282 0 0.894474
0.447242 0 0.894447 0.447217 0 0.894428 0.447202 0 0.894415 0.447194
0 0.894406 0.447191 0 0.894402 0.44719 0 0.8944 0.447192 0
0.894398 0.447193 0 0.894397 0.447194 0 0.894397 0.447196 0 
POINT_DATA  202
FIELD attributes 6
mag(U) 1 202 float
0.999967 0.999967 0.999967 0.999967 0.999968 0.999968 0.999968 0.999968 0.999969 0.999969 0.999969
0.999969 0.99997 0.99997 0.99997 0.99997 0.99997 0.99997 0.99997 0.99997 0.99997
0.99997 0.99997 0.99997 0.99997 0.99997 0.99997 0.99997 0.99997 0.99997 0.99997
0.99997 0.99997 0.99997 0.99997 0.99997 0.99997 0.99997 0.99997 0.99997 0.99997
0.99997 0.99997 0.99997 0.99997 0.99997 0.99997 0.99997 0.99997 0.99997 0.99997
0.99997 0.99997 0.99997 0.99997 0.99997 0.99997 0.99997 0.99997 0.99997 0.99997
0.99997 0.99997 0.99997 0.99997 0.99997 0.99997 0.99997 0.99997 0.99997 0.99997
0.99997 0.99997 0.99997 0.999969 0.999969 0.999969 0.999969 0.999969 0.999969 0.999969
0.999969 0.999969 0.999969 0.999969 0.999969 0.999969 0.999969 0.999969 0.999969 0.999972
0.999972 0.999976 0.999976 0.999982 0.999982 0.999989 0.999989 0.999999 0.999999 1.00001
1.00001 1.00002 1.00002 1.00002 1.00002 1.00002 1.00002 1.00002 1.00002 1.00001
1.00001 1 1 0.999998 0.999998 1.00001 1.00001 1.00004 1.00004 1.00011
1.00011 1.00022 1.00022 1.00037 1.00037 1.00057 1.00057 1.00082 1.00082 1.0011
1.0011 1.00141 1.00141 1.00174 1.00174 1.00207 1.00207 1.00239 1.00239 1.00267
1.00267 1.0029 1.0029 1.00307 1.00307 1.00317 1.00317 1.00319 1.00319 1.00313
1.00313 1.00299 1.00299 1.00279 1.00279 1.00253 1.00253 1.00224 1.00224 1.00193
1.00193 1.00162 1.00162 1.00134 1.00134 1.00107 1.00107 1.00083 1.00083 1.00063
1.00063 1.00046 1.00046 1.00033 1.00033 1.00022 1.00022 1.00014 1.00014 1.00008
1.00008 1.00004 1.00004 1.00001 1.00001 0.999988 0.999988 0.999976 0.999976 0.999969
0.999969 0.999966 0.999966 0.999965 0.999965 0.999965 0.999965 0.999965 0.999965 0.999965
0.999965 
p 1 202 float
0.999996 0.999997 0.999997 0.999996 0.999998 0.999998 0.999999 0.999999 0.999999 0.999999 0.999999
0.999999 1 1 1 1 1 1 1 1 1
1 1 1 1 1 1 1 1 1 1
1 1 1 1 1 1 1 1 1 1
1 1 1 1 1 1 1 1 1 1
1 1 1 1 1 1 1 1 1 1
1 1 1 1 1 1 1 1 1 1
1 1 1 1 1 1 1 1 1 1
1 1.00001 1.00001 1.00001 1.00001 1.00001 1.00001 1.00002 1.00002 1.00002
1.00002 1.00002 1.00002 1.00002 1.00002 1.00002 1.00002 1.00001 1.00001 1
1 1.00001 1.00001 1.00002 1.00002 1.00007 1.00007 1.00016 1.00016 1.00031
1.00031 1.00053 1.00053 1.00084 1.00084 1.00125 1.00125 1.00175 1.00175 1.00234
1.00234 1.003 1.003 1.0037 1.0037 1.00443 1.00443 1.00514 1.00514 1.0058
1.0058 1.0064 1.0064 1.00689 1.00689 1.00727 1.00727 1.00752 1.00752 1.00764
1.00764 1.00761 1.00761 1.00743 1.00743 1.00714 1.00714 1.00672 1.00672 1.00619
1.00619 1.0056 1.0056 1.00496 1.00496 1.0043 1.0043 1.00364 1.00364 1.00302
1.00302 1.00245 1.00245 1.00195 1.00195 1.00152 1.00152 1.00115 1.00115 1.00085
1.00085 1.00062 1.00062 1.00043 1.00043 1.00029 1.00029 1.00019 1.00019 1.00012
1.00012 1.00006 1.00006 1.00003 1.00003 1.00002 1.00002 1 1 0.999995
0.999995 0.999992 0.999992 0.999992 0.999992 0.999993 0.999993 0.999994 0.999994 0.999995
0.999995 
T 1 202 float
1 1 1 1 1 1 1 1 1 1 1
1 1 1 1 1 1 1 1 1 1
1 1 1 1 1 1 1 1 1 1
1 1 1 1 1 1 1 1 1 1
1 1 1 1 1 1 1 1 1 1
1 1 1 1 1 1 1 1 1 1
1 1 1 1 1 1 1 1 1 1
1 1 1 1 1 1 1 1 1 1
1 1 1 1 1 1 1 1 1 1
1 1 1 1 1 1 1 1 1 1
1 1 1 1 1 1 1 1 1 1
1 1 1 1 1 1 1 1 1 1
1 1 1 1 1 1 1 1 1 1
1 1.00001 1.00001 1.00001 1.00001 1.00001 1.00001 1.00001 1.00001 1.00001
1.00001 1.00001 1.00001 1.00001 1.00001 1.00001 1.00001 1.00001 1.00001 1
1 1 1 1 1 1 1 1 1 1
1 1 1 1 1 1 1 1 1 1
1 1 1 1 1 1 1 1 1 1
1 1 1 1 1 1 1 1 1 1
1 1 1 1 1 1 1 1 1 1
1 
e 1 202 float
1006.29 1006.29 1006.29 1006.29 1006.29 1006.29 1006.29 1006.29 1006.29 1006.29 1006.29
1006.29 1006.29 1006.29 1006.29 1006.29 1006.29 1006.29 1006.29 1006.29 1006.29
1006.29 1006.29 1006.29 1006.29 1006.29 1006.29 1006.29 1006.29 1006.29 1006.29
1006.29 1006.29 1006.29 1006.29 1006.29 1006.29 1006.29 1006.29 1006.29 1006.29
1006.29 1006.29 1006.29 1006.29 1006.29 1006.29 1006.29 1006.29 1006.29 1006.29
1006.29 1006.29 1006.29 1006.29 1006.29 1006.29 1006.29 1006.29 1006.29 1006.29
1006.29 1006.29 1006.29 1006.29 1006.29 1006.29 1006.29 1006.29 1006.29 1006.29
1006.29 1006.29 1006.29 1006.29 1006.29 1006.29 1006.29 1006.29 1006.29 1006.29
1006.29 1006.29 1006.29 1006.29 1006.29 1006.29 1006.29 1006.29 1006.29 1006.29
1006.29 1006.29 1006.29 1006.29 1006.29 1006.29 1006.29 1006.29 1006.29 1006.29
1006.29 1006.29 1006.29 1006.29 1006.29 1006.29 1006.29 1006.29 1006.29 1006.29
1006.29 1006.29 1006.29 1006.29 1006.29 1006.29 1006.29 1006.29 1006.29 1006.29
1006.29 1006.29 1006.29 1006.29 1006.29 1006.29 1006.29 1006.29 1006.29 1006.29
1006.29 1006.29 1006.29 1006.29 1006.29 1006.29 1006.29 1006.29 1006.29 1006.29
1006.29 1006.29 1006.29 1006.29 1006.29 1006.29 1006.29 1006.29 1006.29 1006.29
1006.29 1006.29 1006.29 1006.29 1006.29 1006.29 1006.29 1006.29 1006.29 1006.29
1006.29 1006.29 1006.29 1006.29 1006.29 1006.29 1006.29 1006.29 1006.29 1006.29
1006.29 1006.29 1006.29 1006.29 1006.29 1006.29 1006.29 1006.29 1006.29 1006.29
1006.29 1006.29 1006.29 1006.29 1006.29 1006.29 1006.29 1006.29 1006.29 1006.29
1006.29 1006.29 1006.29 1006.29 1006.29 1006.29 1006.29 1006.29 1006.29 1006.29
1006.29 
rho 1 202 float
1.4 1.4 1.4 1.4 1.4 1.4 1.4 1.4 1.4 1.4 1.4
1.4 1.4 1.4 1.4 1.4 1.4 1.4 1.4 1.4 1.4
1.4 1.40001 1.40001 1.4 1.4 1.4 1.4 1.4 1.4 1.4
1.4 1.4 1.4 1.40001 1.40001 1.40001 1.40001 1.4 1.4 1.40001
1.40001 1.40001 1.40001 1.4 1.4 1.4 1.4 1.4 1.4 1.40001
1.40001 1.40001 1.40001 1.4 1.4 1.4 1.4 1.40001 1.40001 1.4
1.4 1.4 1.4 1.40001 1.40001 1.4 1.4 1.4 1.4 1.40001
1.40001 1.40001 1.40001 1.40001 1.40001 1.40001 1.40001 1.40001 1.40001 1.40001
1.40001 1.40001 1.40001 1.40002 1.40002 1.40002 1.40002 1.40003 1.40003 1.40003
1.40003 1.40004 1.40004 1.40003 1.40003 1.40002 1.40002 1.40001 1.40001 1.40001
1.40001 1.40001 1.40001 1.40004 1.40004 1.4001 1.4001 1.40022 1.40022 1.40043
1.40043 1.40074 1.40074 1.40118 1.40118 1.40174 1.40174 1.40245 1.40245 1.40328
1.40328 1.40419 1.40419 1.40518 1.40518 1.40619 1.40619 1.40719 1.40719 1.40812
1.40812 1.40895 1.40895 1.40965 1.40965 1.41018 1.41018 1.41054 1.41054 1.41069
1.41069 1.41065 1.41065 1.41041 1.41041 1.40998 1.40998 1.4094 1.4094 1.40867
1.40867 1.40784 1.40784 1.40694 1.40694 1.40602 1.40602 1.4051 1.4051 1.40423
1.40423 1.40344 1.40344 1.40273 1.40273 1.40213 1.40213 1.40162 1.40162 1.4012
1.4012 1.40087 1.40087 1.40061 1.40061 1.40042 1.40042 1.40027 1.40027 1.40017
1.40017 1.4001 1.4001 1.40005 1.40005 1.40002 1.40002 1.4 1.4 1.4
1.4 1.39999 1.39999 1.39999 1.39999 1.39999 1.39999 1.4 1.4 1.4
1.4 
U 3 202 float
0.894399 0.447197 0 0.894399 0.447198 0 0.894399 0.447198 0 0.894399 0.447197
0 0.894399 0.447198 0 0.894399 0.447198 0 0.894399 0.447199 0
0.894399 0.447199 0 0.8944 0.447199 0 0.8944 0.447199 0 0.8944
0.4472 0 0.8944 0.4472 0 0.8944 0.4472 0 0.8944 0.4472
0 0.8944 0.4472 0 0.8944 0.4472 0 0.8944 0.4472 0
0.8944 0.4472 0 0.8944 0.4472 0 0.8944 0.4472 0 0.8944
0.4472 0 0.8944 0.4472 0 0.8944 0.4472 0 0.8944 0.4472
0 0.8944 0.4472 0 0.8944 0.4472 0 0.8944 0.4472 0
0.8944 0.4472 0 0.8944 0.4472 0 0.8944 0.4472 0 0.8944
0.4472 0 0.8944 0.4472 0 0.8944 0.4472 0 0.8944 0.4472
0 0.8944 0.4472 0 0.8944 0.4472 0 0.8944 0.4472 0
0.8944 0.4472 0 0.8944 0.4472 0 0.8944 0.4472 0 0.8944
0.4472 0 0.8944 0.4472 0 0.8944 0.4472 0 0.8944 0.4472
0 0.8944 0.4472 0 0.8944 0.4472 0 0.8944 0.4472 0
0.8944 0.4472 0 0.8944 0.4472 0 0.8944 0.4472 0 0.8944
0.4472 0 0.8944 0.4472 0 0.8944 0.4472 0 0.8944 0.4472
0 0.8944 0.4472 0 0.8944 0.4472 0 0.8944 0.4472 0
0.8944 0.4472 0 0.8944 0.4472 0 0.8944 0.4472 0 0.8944
0.4472 0 0.8944 0.4472 0 0.8944 0.4472 0 0.8944 0.4472
0 0.8944 0.4472 0 0.8944 0.4472 0 0.8944 0.4472 0
0.8944 0.4472 0 0.8944 0.4472 0 0.8944 0.4472 0 0.8944
0.4472 0 0.8944 0.4472 0 0.8944 0.4472 0 0.8944 0.4472
0 0.8944 0.4472 0 0.8944 0.4472 0 0.894399 0.447201 0
0.894399 0.447201 0 0.894399 0.447201 0 0.894399 0.447201 0 0.894398
0.447203 0 0.894398 0.447203 0 0.894397 0.447204 0 0.894397 0.447204
0 0.894395 0.447206 0 0.894395 0.447206 0 0.894395 0.447209 0
0.894395 0.447209 0 0.894394 0.447213 0 0.894394 0.447213 0 0.894395
0.447216 0 0.894395 0.447216 0 0.894397 0.447219 0 0.894397 0.447219
0 0.894402 0.447222 0 0.894402 0.447222 0 0.89441 0.447224 0
0.89441 0.447224 0 0.89442 0.447224 0 0.89442 0.447224 0 0.89443
0.447224 0 0.89443 0.447224 0 0.894437 0.447228 0 0.894437 0.447228
0 0.894437 0.447241 0 0.894437 0.447241 0 0.894422 0.447271 0
0.894422 0.447271 0 0.894388 0.447331 0 0.894388 0.447331 0 0.894328
0.447433 0 0.894328 0.447433 0 0.894238 0.447594 0 0.894238 0.447594
0 0.894119 0.447825 0 0.894119 0.447825 0 0.893975 0.448136 0
0.893975 0.448136 0 0.893815 0.448532 0 0.893815 0.448532 0 0.89365
0.449008 0 0.89365 0.449008 0 0.893494 0.449556 0 0.893494 0.449556
0 0.893363 0.450157 0 0.893363 0.450157 0 0.893269 0.450789 0
0.893269 0.450789 0 0.893223 0.451424 0 0.893223 0.451424 0 0.893233
0.452034 0 0.893233 0.452034 0 0.893302 0.452592 0 0.893302 0.452592
0 0.893428 0.453071 0 0.893428 0.453071 0 0.893605 0.45345 0
0.893605 0.45345 0 0.893823 0.453712 0 0.893823 0.453712 0 0.89407
0.453845 0 0.89407 0.453845 0 0.894332 0.453844 0 0.894332 0.453844
0 0.894593 0.453708 0 0.894593 0.453708 0 0.894836 0.453445 0
0.894836 0.453445 0 0.89505 0.453068 0 0.89505 0.453068 0 0.895222
0.452594 0 0.895222 0.452594 0 0.895343 0.452049 0 0.895343 0.452049
0 0.895412 0.451461 0 0.895412 0.451461 0 0.895431 0.450856 0
0.895431 0.450856 0 0.895404 0.450264 0 0.895404 0.450264 0 0.895341
0.449706 0 0.895341 0.449706 0 0.895252 0.449201 0 0.895252 0.449201
0 0.895148 0.448758 0 0.895148 0.448758 0 0.895037 0.448383 0
0.895037 0.448383 0 0.894929 0.448074 0 0.894929 0.448074 0 0.894826
0.447828 0 0.894826 0.447828 0 0.894734 0.447637 0 0.894734 0.447637
0 0.894655 0.447493 0 0.894655 0.447493 0 0.894588 0.447387 0
0.894588 0.447387 0 0.894534 0.447313 0 0.894534 0.447313 0 0.894492
0.447262 0 0.894492 0.447262 0 0.89446 0.447229 0 0.89446 0.447229
0 0.894437 0.447209 0 0.894437 0.447209 0 0.894422 0.447198 0
0.894422 0.447198 0 0.894411 0.447193 0 0.894411 0.447193 0 0.894404
0.447191 0 0.894404 0.447191 0 0.894401 0.447191 0 0.894401 0.447191
0 0.894399 0.447192 0 0.894399 0.447192 0 0.894398 0.447194 0
0.894398 0.447194 0 0.894397 0.447195 0 0.894397 0.447195 0 0.894397
0.447196 0 0.894397 0.447196 0 
