/*--------------------------------*- C++ -*----------------------------------*\
  =========                 |
  \\      /  F ield         | OpenFOAM: The Open Source CFD Toolbox
   \\    /   O peration     | Website:  https://openfoam.org
    \\  /    A nd           | Version:  6
     \\/     M anipulation  |
\*---------------------------------------------------------------------------*/
FoamFile
{
    version     2.0;
    format      ascii;
    class       volScalarField;
    location    "2.65";
    object      p;
}
// * * * * * * * * * * * * * * * * * * * * * * * * * * * * * * * * * * * * * //

dimensions      [1 -1 -2 0 0 0 0];

internalField   nonuniform List<scalar> 
10000
(
1
1
1
1
1
1
1
1
1
1
1
1
1
1
1
1
1
1
1
1
1
1
1
1
1
1
1
1
1
1
1
1
1
1
1
1
1
1
1
1
1
1
1
1
1
1
0.999999
0.999999
0.999998
0.999998
0.999997
0.999997
0.999996
0.999996
0.999996
0.999996
0.999997
0.999998
0.999999
1
1
1
1
1
1
1
1
1
1
1
0.999999
0.999999
0.999998
0.999998
0.999998
0.999998
0.999999
0.999999
0.999999
0.999999
1
1
1
1
1
1
1
1
1
1
1
1
1
1
1
1
1
1
1
1
1
1
1
1
1
1
1
1
1
1
1
1
1
1
1
1
1
1
1
1
1
1
1
1
1
1
1
1
1
1
1
1
1
1
1
1
1
1
1
1
1
1
1
1
1
0.999999
0.999999
0.999999
0.999998
0.999997
0.999996
0.999995
0.999994
0.999993
0.999993
0.999994
0.999995
0.999997
1
1
1.00001
1.00001
1.00001
1.00001
1.00001
1.00001
1.00001
1
1
1
0.999999
0.999997
0.999997
0.999997
0.999997
0.999997
0.999998
0.999998
0.999999
0.999999
0.999999
0.999999
1
1
1
1
1
1
1
1
1
1
1
1
1
1
1
1
1
1
1
1
1
1
1
1
1
1
1
1
1
1
1
1
1
1
1
1
1
1
1
1
1
1
1
1
1
1
1
1
1
1
1
1
1
1
1
1
1
1
1
1
1
1
1
0.999999
0.999999
0.999998
0.999997
0.999995
0.999993
0.999991
0.99999
0.999989
0.999989
0.99999
0.999992
0.999996
1
1.00001
1.00001
1.00001
1.00002
1.00002
1.00002
1.00002
1.00001
1.00001
1
1
0.999998
0.999996
0.999995
0.999994
0.999995
0.999995
0.999996
0.999997
0.999998
0.999998
0.999999
0.999999
1
1
1
1
1
1
1
1
1
1
1
1
1
1
1
1
1
1
1
1
1
1
1
1
1
1
1
1
1
1
1
1
1
1
1
1
1
1
1
1
1
1
1
1
1
1
1
1
1
1
1
1
1
1
1
1
1
1
1
1
1
1
1
0.999999
0.999999
0.999997
0.999995
0.999993
0.99999
0.999987
0.999984
0.999983
0.999982
0.999984
0.999989
0.999995
1
1.00001
1.00002
1.00003
1.00003
1.00003
1.00003
1.00003
1.00002
1.00002
1.00001
1
0.999997
0.999994
0.999992
0.999991
0.999992
0.999993
0.999994
0.999995
0.999996
0.999997
0.999998
0.999999
0.999999
1
1
1
1
1
1
1
1
1
1
1
1
1
1
1
1
1
1
1
1
1
1
1
1
1
1
1
1
1
1
1
1
1
1
1
1
1
1
1
1
1
1
1
1
1
1
1
1
1
1
1
1
1
1
1
1
1
1
1
1
1
1
0.999999
0.999998
0.999996
0.999994
0.99999
0.999985
0.99998
0.999976
0.999973
0.999973
0.999976
0.999984
0.999995
1.00001
1.00003
1.00004
1.00005
1.00006
1.00006
1.00006
1.00005
1.00004
1.00003
1.00002
1.00001
0.999997
0.999991
0.999988
0.999987
0.999988
0.999989
0.999991
0.999993
0.999995
0.999996
0.999998
0.999998
0.999999
0.999999
1
1
1
1
1
1
1
1
1
1
1
1
1
1
1
1
1
1
1
1
1
1
1
1
1
1
1
1
1
1
1
1
1
1
1
1
1
1
1
1
1
1
1
1
1
1
1
1
1
1
1
1
1
1
1
1
1
1
1
1
1
0.999999
0.999998
0.999995
0.999991
0.999986
0.999979
0.999971
0.999965
0.99996
0.99996
0.999966
0.99998
1
1.00003
1.00005
1.00008
1.0001
1.00011
1.00012
1.00011
1.0001
1.00008
1.00005
1.00003
1.00001
0.999999
0.999988
0.999983
0.999982
0.999983
0.999985
0.999988
0.999991
0.999993
0.999995
0.999997
0.999998
0.999999
0.999999
1
1
1
1
1
1
1
1
1
1
1
1
1
1
1
1
1
1
1
1
1
1
1
1
1
1
1
1
1
1
1
1
1
1
1
1
1
1
1
1
1
1
1
1
1
1
1
1
1
1
1
1
1
1
1
1
1
1
1
1
1
0.999999
0.999998
0.999994
0.999988
0.99998
0.99997
0.99996
0.99995
0.999944
0.999945
0.999957
0.999981
1.00002
1.00006
1.00011
1.00015
1.00019
1.00021
1.00021
1.0002
1.00018
1.00014
1.0001
1.00006
1.00003
1
0.999987
0.999978
0.999974
0.999976
0.999979
0.999984
0.999988
0.999991
0.999994
0.999996
0.999997
0.999998
0.999999
0.999999
1
1
1
1
1
1
1
1
1
1
1
1
1
1
1
1
1
1
1
1
1
1
1
1
1
1
1
1
1
1
1
1
1
1
1
1
1
1
1
1
1
1
1
1
1
1
1
1
1
1
1
1
1
1
1
1
1
1
1
1
0.999999
0.999997
0.999993
0.999985
0.999974
0.999959
0.999944
0.999931
0.999925
0.999931
0.999956
0.999999
1.00006
1.00014
1.00022
1.00029
1.00034
1.00037
1.00038
1.00035
1.0003
1.00024
1.00018
1.00011
1.00006
1.00002
0.99999
0.999974
0.999967
0.999967
0.999971
0.999977
0.999984
0.999988
0.999992
0.999995
0.999997
0.999998
0.999999
0.999999
1
1
1
1
1
1
1
1
1
1
1
1
1
1
1
1
1
1
1
1
1
1
1
1
1
1
1
1
1
1
1
1
1
1
0.999999
1
0.999999
1
1
1
1
1
1
1
1
1
1
1
1
1
1
1
1
1
1
1
1
1
1
1
1
0.999997
0.999991
0.999981
0.999965
0.999946
0.999927
0.999912
0.999911
0.999931
0.99998
1.00006
1.00017
1.0003
1.00043
1.00054
1.00062
1.00066
1.00065
1.0006
1.00051
1.00041
1.0003
1.00019
1.00011
1.00004
0.999998
0.999973
0.999962
0.999959
0.999963
0.99997
0.999977
0.999984
0.99999
0.999993
0.999996
0.999998
0.999999
0.999999
1
1
1
1
1
1
1
1
1
1
1
1
1
1
1
1
1
1
1
1
1
1
1
1
1
1
1
1
1
1
1
1
0.999999
1
0.999999
1
1
1
1
1
1
1
1
1
1
1
1
1
1
1
1
1
1
1
1
1
1
1
1
1
1
0.999998
0.99999
0.999976
0.999956
0.999932
0.99991
0.999901
0.999917
0.999969
1.00007
1.00022
1.00041
1.00062
1.00082
1.00099
1.0011
1.00113
1.00109
1.00098
1.00083
1.00066
1.00048
1.00032
1.00018
1.00008
1.00001
0.999971
0.999956
0.999953
0.999957
0.999964
0.999972
0.99998
0.999986
0.999991
0.999995
0.999997
0.999998
0.999999
0.999999
1
1
1
1
1
1
1
1
1
1
1
1
1
1
1
1
1
1
1
1
1
1
1
1
1
1
0.999999
1
1
0.999999
1
0.999999
1
1
1
1
1
1
1
1
1
1
1
1
1
1
1
1
1
1
1
1
1
1
1
1
1
1
1
1
1
0.99999
0.999972
0.999946
0.99992
0.999904
0.999914
0.999971
1.00009
1.00029
1.00056
1.00089
1.00123
1.00155
1.00178
1.00191
1.00191
1.00179
1.00158
1.00132
1.00103
1.00074
1.00049
1.00029
1.00014
1.00003
0.999971
0.999946
0.999942
0.999948
0.999958
0.999968
0.999976
0.999983
0.999988
0.999993
0.999996
0.999998
0.999999
0.999999
1
1
1
1
1
1
1
1
1
1
1
1
1
1
1
1
1
1
1
1
1
1
1
1
1
1
1
1
0.999999
1
1
1
0.999999
1
1
0.999999
1
0.999999
1
1
1
1
1
1
1
1
1
1
1
1
1
1
1
1
1
1
1
1
1.00001
1.00001
1
0.999991
0.999968
0.999939
0.999916
0.999922
0.999982
1.00013
1.00038
1.00076
1.00124
1.00178
1.00233
1.0028
1.00312
1.00324
1.00315
1.00288
1.00248
1.00202
1.00155
1.00111
1.00073
1.00043
1.00022
1.00007
0.99998
0.999938
0.999927
0.999935
0.999949
0.999963
0.999974
0.999982
0.999987
0.999991
0.999994
0.999997
0.999998
0.999999
1
1
1
1
1
1
1
1
1
1
1
1
1
1
1
1
1
1
1
1
1
1
1
1
1
0.999999
1
1
0.999998
1
0.999997
1
0.999998
1
1
0.999999
1
1
0.999999
1
0.999999
1
1
1
1
0.999999
1
1
1
1
1
1
1
1
1
1
1
1.00001
1.00001
1.00001
1.00001
0.999993
0.999967
0.999939
0.999934
0.999993
1.00016
1.00047
1.00097
1.00164
1.00246
1.00335
1.00421
1.00489
1.00529
1.00535
1.00507
1.00452
1.00381
1.00304
1.00229
1.00162
1.00106
1.00062
1.00031
1.00011
0.999995
0.999935
0.999915
0.999921
0.999935
0.999953
0.999968
0.99998
0.999987
0.999991
0.999994
0.999996
0.999997
0.999999
0.999999
1
1
1
1
1
1
1
1
1
1
1
1
1
1
1
1
1
1
1
1
1
1
1
0.999999
1
1
0.999998
1
1
0.999999
1
1
0.999999
1
1
0.999999
1
0.999999
1
1
0.999999
1
1
1
1
1
1
1
1
1
1
0.999999
1
1
1
1
1.00001
1.00001
1.00002
1.00002
1
0.999972
0.999955
0.999996
1.00016
1.00053
1.00114
1.00203
1.00318
1.00452
1.00592
1.0072
1.00817
1.00865
1.00858
1.00797
1.00697
1.00575
1.00449
1.00331
1.0023
1.00149
1.00087
1.00043
1.00016
1
0.999929
0.999905
0.999908
0.999924
0.999941
0.99996
0.999974
0.999984
0.99999
0.999994
0.999995
0.999997
0.999998
0.999999
1
1
1
1
1
1
1
1
1
1
1
1
1
1
1
1
1
1
1
1
1
1
1
0.999998
1
0.999997
1
1
0.999995
1.00001
0.999996
1
0.999996
1
1
1
1
1
0.999998
1
0.999999
1
1
0.999999
1
1
1
1
0.999999
1
1
1
1
1
1
1.00001
1.00001
1.00002
1.00003
1.00003
1.00001
0.999987
1
1.00014
1.0005
1.0012
1.0023
1.00381
1.00566
1.00773
1.00982
1.01167
1.013
1.01357
1.01327
1.01217
1.01049
1.0085
1.00652
1.00472
1.00322
1.00206
1.00119
1.00059
1.00021
1.00001
0.999916
0.999882
0.999887
0.99991
0.999933
0.999952
0.999967
0.999979
0.999988
0.999992
0.999995
0.999997
0.999998
0.999999
0.999999
1
1
1
1
1
1
1
1
1
1
1
1
1
1
1
0.999999
1
1
1
0.999998
1
0.999997
1
1
0.999995
1.00001
0.999996
1
1
0.999999
0.999998
1
0.999997
1
0.999999
1
1
0.999999
1
1
0.999999
1
1
0.999999
1
1
1
1
1
1
0.999999
1
1
1
1.00001
1.00002
1.00003
1.00005
1.00005
1.00003
1.00002
1.0001
1.00041
1.00111
1.00235
1.00419
1.00657
1.00936
1.01238
1.01534
1.01787
1.01961
1.02027
1.0197
1.01797
1.01537
1.01234
1.00933
1.00666
1.00447
1.0028
1.0016
1.0008
1.00029
1.00003
0.999903
0.999856
0.999862
0.999886
0.999921
0.999942
0.999962
0.999974
0.999984
0.999989
0.999995
0.999996
0.999998
0.999999
0.999999
1
1
1
1
1
1
1
1
1
1
1
1
1
1
0.999999
1
1
1
0.999998
1
0.999999
0.999997
1.00001
0.999994
1
1
0.999995
1
0.999993
1.00001
0.999996
1
0.999992
1.00001
1
0.999999
0.999999
1
0.999998
1
1
0.999999
1
1
1
0.999999
1
1
1
1
0.999999
1
1
1.00001
1.00001
1.00003
1.00005
1.00007
1.00007
1.00006
1.00009
1.00029
1.00088
1.00212
1.00417
1.00702
1.01054
1.0145
1.0186
1.02247
1.02569
1.02785
1.02862
1.02783
1.02547
1.02183
1.01749
1.01312
1.00927
1.00616
1.00381
1.00216
1.00107
1.0004
1.00004
0.999887
0.99984
0.999839
0.999862
0.999899
0.999931
0.999954
0.99997
0.999979
0.999987
0.999993
0.999995
0.999997
0.999998
0.999999
0.999999
1
1
1
1
1
1
1
1
1
1
1
1
1
0.999999
1
0.999998
1
0.999999
1
0.999992
1.00001
0.999998
0.999995
1.00001
0.999991
1
1
1.00001
0.999997
0.999999
0.999997
1.00001
0.999998
0.999999
0.999997
1
0.999998
0.999999
1
1
1
1
1
0.999999
1
0.999999
1
1
0.999999
1
1
1
1.00001
1.00002
1.00004
1.00007
1.00009
1.0001
1.00011
1.0002
1.00061
1.00167
1.0037
1.00685
1.01101
1.01587
1.02105
1.02615
1.03075
1.03444
1.03689
1.03785
1.03706
1.03435
1.02982
1.0241
1.01811
1.01273
1.0084
1.00517
1.00292
1.00146
1.00057
1.00008
0.999865
0.999812
0.999813
0.999845
0.999877
0.999919
0.999944
0.999965
0.999974
0.999987
0.999989
0.999994
0.999997
0.999998
0.999999
0.999999
1
1
1
1
1
1
1
1
1
1
1
1
0.999998
1
0.999999
1
0.999999
1
0.999994
1
1
0.999994
1.00001
0.999998
0.99999
1.00001
0.999996
1
0.999988
1.00002
0.999994
1.00001
0.999988
1.00001
1
0.999996
1
1
0.999998
1
1
0.999998
1
1
0.999999
1
1
0.999998
0.999998
1
1
1
1.00001
1.00002
1.00005
1.00009
1.00013
1.00015
1.00018
1.00039
1.00113
1.00288
1.00601
1.01059
1.01625
1.02243
1.02859
1.03424
1.03899
1.04259
1.045
1.04623
1.04594
1.04358
1.0388
1.032
1.02435
1.01716
1.01129
1.00695
1.00393
1.00199
1.00083
1.00017
0.999867
0.999771
0.999779
0.999816
0.999858
0.999898
0.999935
0.999955
0.999976
0.999982
0.999987
0.999994
0.999995
0.999997
0.999998
0.999999
0.999999
1
1
1
1
1
1
1
1
1
0.999999
1
0.999999
1
0.999995
1
0.999998
1
0.999996
1.00001
0.999991
1.00001
1
0.999987
1.00002
0.999996
0.999992
0.999998
1.00001
0.999998
0.99999
0.999998
1.00001
0.999998
0.999998
0.999994
1.00001
0.999996
0.999998
1
0.999997
0.999999
1
0.999999
0.999997
1
1
1
1
0.999999
1
1.00001
1.00001
1.00003
1.00007
1.00013
1.00017
1.00021
1.00029
1.0007
1.00194
1.00466
1.00924
1.01547
1.0226
1.02975
1.0362
1.04144
1.04524
1.04777
1.04961
1.05121
1.0522
1.05137
1.04757
1.04061
1.03167
1.0226
1.01493
1.0092
1.00523
1.00267
1.00115
1.00033
0.999914
0.999759
0.999748
0.999779
0.999835
0.999877
0.999919
0.999946
0.999971
0.999974
0.99999
0.999991
0.999994
0.999996
0.999998
0.999999
0.999999
1
1
1
1
1
1
1
1
0.999999
1
0.999997
1
0.999996
1
1
0.999999
0.999999
1
0.999993
1
1
0.999992
1.00001
1.00001
0.999981
1.00002
0.999999
1
0.999977
1.00002
1
1
0.999984
1.00001
1.00001
0.999994
0.999997
1
1
0.999999
1
0.999997
1
1
0.999997
0.999999
1
1
1
1
1.00001
1.00002
1.00005
1.0001
1.00017
1.00023
1.00028
1.00045
1.00116
1.00314
1.00716
1.01348
1.0214
1.02961
1.0369
1.04243
1.04577
1.04705
1.04722
1.04783
1.04998
1.05315
1.05539
1.05435
1.04882
1.03954
1.02889
1.0193
1.01197
1.00687
1.00355
1.00158
1.00052
0.999992
0.999777
0.999723
0.999764
0.999813
0.999865
0.999897
0.999939
0.999951
0.999978
0.999986
0.999987
0.999994
0.999996
0.999997
0.999998
0.999999
0.999999
1
1
1
1
1
1
1
0.999999
1
1
1
0.999996
1.00001
0.999991
1.00001
0.999998
0.999998
1
1.00001
0.999991
1
1.00001
0.999986
1.00001
0.999996
0.999998
0.999994
1.00001
1
0.999989
0.999993
1.00001
1
0.999997
0.999989
1.00001
1
0.999996
1
1
0.999998
1
1
1
0.999997
1
0.999999
1
1
1.00001
1.00003
1.00006
1.00013
1.00022
1.0003
1.00038
1.0007
1.00186
1.00484
1.01051
1.01873
1.02804
1.03647
1.04255
1.04548
1.04505
1.04204
1.03857
1.03748
1.04045
1.04674
1.05355
1.05721
1.05511
1.04711
1.0357
1.0243
1.01521
1.00885
1.00469
1.00216
1.00076
1.00009
0.999793
0.999718
0.999748
0.999797
0.999848
0.999891
0.999923
0.999949
0.999977
0.999971
0.99999
0.999993
0.999995
0.999996
0.999998
0.999999
0.999999
1
1
1
1
1
1
0.999999
1
0.999999
1
0.999994
1.00001
0.999993
1
1.00001
0.99999
1
1.00001
0.99999
0.999998
1.00001
0.999998
0.999995
0.999999
0.999997
1.00001
0.999991
1.00001
0.999983
1.00001
1
1.00001
0.999982
1
1.00001
0.999998
0.999994
0.999999
1
0.999999
1
0.999997
0.999999
1
0.999999
0.999998
1
1
1
1.00001
1.00004
1.00008
1.00017
1.00028
1.00037
1.00051
1.00105
1.00285
1.00717
1.01477
1.0248
1.03475
1.04204
1.0452
1.04363
1.03753
1.02872
1.02088
1.01811
1.02238
1.03252
1.04492
1.05481
1.05807
1.05326
1.04242
1.02975
1.01887
1.01109
1.00602
1.00287
1.00111
1.00023
0.999845
0.999729
0.999718
0.999772
0.999825
0.999886
0.999913
0.999958
0.99995
0.999977
0.99999
0.999988
0.999993
0.999996
0.999998
0.999998
0.999999
0.999999
1
1
1
1
1
1
1
0.999998
0.999998
1
1
0.999991
1.00001
0.999987
1
1.00001
0.999988
0.999998
1.00001
1.00001
0.999982
1
1
1.00002
0.99998
1
1
1.00001
0.999998
0.999994
0.999993
1.00001
1
1
0.999986
1.00001
1
0.999999
0.999994
1
1
1
0.999997
1
1
1
1
1.00001
1.00002
1.00005
1.00011
1.00022
1.00035
1.00046
1.00068
1.00155
1.00424
1.01021
1.0199
1.03126
1.04059
1.04504
1.0435
1.03568
1.02245
1.00709
0.995045
0.991315
0.997572
1.01195
1.03029
1.04707
1.05697
1.05702
1.04831
1.03535
1.02292
1.0136
1.00748
1.00371
1.00154
1.00041
0.999934
0.999739
0.999712
0.999745
0.999815
0.999864
0.999916
0.999929
0.999953
0.999987
0.999974
0.999988
0.999994
0.999996
0.999996
0.999998
0.999999
0.999999
1
1
1
1
0.999999
1
0.999998
1
0.999996
1.00001
0.99999
1.00001
0.999997
0.99999
1.00002
0.999987
0.999995
1.00001
0.999999
0.999986
1
1.00001
1.00001
0.999974
1.00001
1.00001
1
0.99999
0.999992
1.00001
1
1.00001
0.999982
1.00001
1.00001
1
0.999996
0.999995
1.00001
0.999996
0.999997
1
0.999998
1
1
0.999998
1
1.00001
1.00002
1.00006
1.00015
1.00028
1.00042
1.00057
1.00092
1.00226
1.00611
1.01404
1.02571
1.03744
1.04451
1.04439
1.03663
1.02131
1.00024
0.97856
0.96337
0.959919
0.968899
0.987679
1.01177
1.03517
1.05199
1.05796
1.05279
1.04066
1.02723
1.0164
1.00914
1.00468
1.00204
1.00066
1.00001
0.999769
0.999717
0.999748
0.999802
0.999845
0.999893
0.999916
0.999976
0.999957
0.999976
0.999993
0.99999
0.999993
0.999997
0.999998
0.999998
0.999999
1
0.999999
1
1
1
1
0.999999
1
1
0.999996
1
1.00001
0.999984
1.00002
0.999996
0.999986
1.00002
0.99999
0.999997
0.999995
1.00002
0.999986
0.999992
1
1.00002
0.999986
0.99999
1.00001
1
1.00001
0.999988
0.999996
1.00001
1
1
0.999981
1.00001
1
1
1
0.999995
1
1
0.999997
0.999997
1
1.00001
1.00001
1.00003
1.00008
1.00019
1.00034
1.00051
1.00069
1.00124
1.00323
1.00855
1.01864
1.0318
1.04249
1.04555
1.03946
1.02449
1.00105
0.972192
0.945146
0.928257
0.926302
0.938632
0.96201
0.991534
1.02082
1.04401
1.05616
1.05553
1.04532
1.0316
1.01949
1.01102
1.00574
1.00265
1.00096
1.00014
0.99982
0.999726
0.999754
0.999778
0.999842
0.999873
0.999941
0.999936
0.999954
0.999993
0.999979
0.999988
0.999995
0.999996
0.999996
0.999998
0.999999
0.999999
0.999999
1
0.999999
1
0.999999
1
0.999997
1
0.999994
1.00001
0.999988
1.00001
1.00001
0.999984
1.00002
0.999999
0.999986
1.00001
1.00001
0.999991
0.999996
1
1.00002
0.999968
1.00002
0.99999
1.00002
0.999983
1
1
0.999998
1.00002
0.999977
1
1.00001
1
0.999999
0.999982
1.00001
1.00001
0.999995
0.999996
1
1
1
1
1.00001
1.00005
1.00011
1.00024
1.00042
1.0006
1.00085
1.00169
1.00455
1.01164
1.02388
1.0376
1.04555
1.04309
1.0302
1.00762
0.975937
0.939744
0.908321
0.890814
0.891102
0.907298
0.935738
0.970703
1.0052
1.03396
1.05204
1.05645
1.0491
1.03584
1.02281
1.01313
1.00696
1.00335
1.00132
1.00033
0.999887
0.999757
0.999726
0.999779
0.99983
0.999884
0.999913
0.999922
0.999985
0.999963
0.999976
0.999994
0.999993
0.999993
0.999997
0.999998
0.999998
0.999999
0.999999
1
1
1
1
1
1
0.999996
1
0.999998
0.999996
1.00001
0.999986
1.00001
1.00001
0.99998
1.00002
0.999991
1.00001
0.999985
1.00002
0.999989
0.999997
1
1
1.00001
0.999981
1.00002
0.999978
1.00002
0.999983
1
0.999998
0.999999
1.00002
0.999973
1.00001
1.00001
0.999983
0.999997
1
1
1
0.999999
1
1.00001
1.00002
1.00006
1.00014
1.0003
1.00049
1.00069
1.00104
1.0023
1.00629
1.0154
1.02948
1.04241
1.04596
1.03701
1.01711
0.986855
0.946949
0.903699
0.868256
0.850415
0.853253
0.873919
0.908297
0.94913
0.988523
1.02227
1.04587
1.05555
1.05182
1.0398
1.02627
1.0155
1.00839
1.00414
1.00176
1.00055
0.999996
0.99978
0.999731
0.999782
0.999817
0.999877
0.999887
0.999959
0.999945
0.999957
0.999995
0.999985
0.999988
0.999994
0.999997
0.999997
0.999998
0.999999
0.999999
1
1
1
1
0.999998
1
0.999998
1
0.999992
1.00001
0.999992
1
1.00001
0.999991
1
1.00001
0.999986
1.00001
1
0.999993
1.00001
0.999986
1.00003
0.99996
1.00004
0.999971
1.00002
0.999986
1
1.00001
0.99998
1.00003
0.999978
0.999998
1.00001
0.999988
1.00002
0.999997
0.999979
1.00001
1.00001
0.999993
0.999995
1
1.00001
1.00003
1.00007
1.00018
1.00035
1.00056
1.00079
1.0013
1.00313
1.00852
1.0198
1.03502
1.04559
1.04341
1.0277
1.00097
0.963006
0.914629
0.863927
0.823941
0.805511
0.811216
0.837287
0.87882
0.926212
0.970548
1.00887
1.03764
1.05276
1.05332
1.04333
1.02983
1.01814
1.01004
1.0051
1.00232
1.00082
1.00012
0.999825
0.999778
0.999771
0.999823
0.999846
0.999909
0.999926
0.999933
0.99999
0.999973
0.999977
0.999992
0.999995
0.999995
0.999997
0.999998
0.999999
0.999999
0.999999
1
1
0.999999
1
1
1
0.999997
1
1
0.999995
1.00001
0.999994
0.999999
1.00001
0.999985
1.00001
0.999988
1.00001
0.999981
1.00002
0.999985
1
1.00001
0.999983
1.00003
0.999964
1.00004
0.999959
1.00003
0.999985
1
1.00001
0.99998
1.00003
0.999981
0.999984
1.00003
1.00001
0.999989
0.999991
1
1.00001
1
1.00001
1.00003
1.0001
1.00022
1.00041
1.00064
1.00091
1.00166
1.00424
1.0113
1.02469
1.04
1.04666
1.03804
1.01583
0.982554
0.936605
0.878991
0.819683
0.774153
0.754982
0.764196
0.796929
0.846941
0.901691
0.95124
0.993833
1.02733
1.0479
1.05335
1.04626
1.03343
1.02101
1.01193
1.00629
1.00298
1.00116
1.00028
0.999932
0.999802
0.999781
0.999804
0.99985
0.999902
0.999906
0.999969
0.999958
0.999963
0.99999
0.99999
0.999991
0.999994
0.999997
0.999998
0.999998
0.999999
0.999999
1
0.999999
1
1
0.999998
1
0.999997
1
0.999994
1.00001
0.999995
1
1
1
0.999996
1.00001
0.999991
1
1
0.999987
1.00002
0.999974
1.00004
0.999955
1.00005
0.999967
1.00001
1
0.999985
1.00002
0.999969
1.00003
0.999993
0.999989
1.00002
0.999981
0.999992
1.00001
1
1
1.00001
0.999999
1
1.00002
1.00005
1.00012
1.00027
1.00047
1.00071
1.00106
1.00214
1.00569
1.01466
1.02982
1.04391
1.04547
1.03034
1.0022
0.962511
0.907931
0.839807
0.770396
0.718551
0.698837
0.712226
0.752812
0.812527
0.87561
0.930935
0.977605
1.01524
1.04093
1.05163
1.04835
1.0369
1.02412
1.01416
1.00765
1.00376
1.00162
1.00054
1.00004
0.999829
0.99979
0.99981
0.999868
0.999873
0.999927
0.999941
0.999947
0.999984
0.999982
0.999984
0.999991
0.999995
0.999996
0.999997
0.999998
0.999999
0.999999
1
0.999999
1
0.999999
1
0.999998
1
0.999999
1
1
0.999998
1
0.999999
0.999997
1.00001
0.999989
1.00001
0.999986
1.00002
0.999982
1.00002
0.999983
1
1.00002
0.999968
1.00004
0.999956
1.00005
0.99996
1.00002
1
0.999986
1.00002
0.999984
1.00001
1.00001
0.999985
0.999996
1.00001
1
0.999993
0.999997
1.00001
1.00002
1.00006
1.00015
1.00031
1.00052
1.00078
1.00127
1.00281
1.00754
1.01854
1.03483
1.04639
1.04219
1.02101
0.987539
0.941332
0.877205
0.797131
0.716472
0.658113
0.637843
0.655408
0.704531
0.774962
0.847676
0.9099
0.960779
1.00196
1.0321
1.04807
1.0493
1.04005
1.02747
1.0167
1.00925
1.00475
1.00221
1.00084
1.00017
0.999907
0.99983
0.999839
0.999834
0.999877
0.999921
0.999931
0.999967
0.999969
0.999975
0.999986
0.999991
0.999994
0.999995
0.999997
0.999998
0.999999
0.999999
0.999999
1
0.999999
1
1
1
1
0.999998
1
0.999997
1
0.999998
1
0.999998
1
0.999997
1.00001
0.999994
1
1.00001
0.999982
1.00002
0.999972
1.00003
0.999959
1.00004
0.999976
0.999999
1.00002
0.999973
1.00003
0.999984
1
1
0.999989
1.00001
1
1
0.999999
0.999991
1
1.00001
1.00001
1.00002
1.00008
1.00018
1.00035
1.00057
1.00088
1.00156
1.00371
1.00984
1.02283
1.03935
1.0473
1.03725
1.01074
0.972451
0.919473
0.844881
0.751834
0.659624
0.594766
0.573054
0.593892
0.651532
0.733258
0.817138
0.887921
0.943638
0.988062
1.02193
1.04279
1.04887
1.04269
1.03092
1.01952
1.0112
1.00597
1.00289
1.00121
1.00039
1.00003
0.999879
0.999821
0.999842
0.999899
0.999909
0.999936
0.999951
0.999964
0.999979
0.999984
0.99999
0.999992
0.999995
0.999997
0.999998
0.999998
0.999999
0.999999
1
0.999999
1
0.999999
1
0.999998
1
0.999998
1
0.999999
1
0.999999
1
0.999997
1.00001
0.999991
1.00001
0.999989
1.00001
0.999987
1.00002
0.999987
1
1.00002
0.999969
1.00004
0.999962
1.00003
0.999981
1
1.00001
0.999995
1.00001
0.999992
1
1
0.999995
1
1.00001
1
1
1.00001
1.00004
1.0001
1.0002
1.00038
1.00061
1.001
1.00198
1.00487
1.0126
1.0273
1.04306
1.04673
1.03125
1.00019
0.957461
0.897504
0.811951
0.70584
0.602611
0.531068
0.506412
0.529165
0.594441
0.687228
0.783496
0.864497
0.926028
0.973805
1.01094
1.03604
1.04694
1.04454
1.03428
1.02265
1.01349
1.00742
1.00376
1.00173
1.00068
1.00015
0.999922
0.999861
0.999886
0.999882
0.999901
0.99993
0.999951
0.999966
0.999974
0.999984
0.999988
0.999991
0.999995
0.999996
0.999997
0.999998
0.999999
0.999999
0.999999
1
1
0.999999
0.999999
1
1
0.999999
1
1
1
0.999999
1
1
0.999999
1
1
0.999997
1
1.00001
0.999983
1.00002
0.999975
1.00003
0.999971
1.00002
0.999992
0.99999
1.00002
0.999984
1.00001
0.999995
1.00001
1
0.999997
1.00001
0.999993
0.999996
1
1
1
1.00002
1.00005
1.00011
1.00022
1.0004
1.00067
1.00119
1.00255
1.00635
1.01575
1.03168
1.04577
1.045
1.02476
0.989882
0.943058
0.87623
0.780057
0.661912
0.548822
0.470522
0.441855
0.465149
0.536054
0.638434
0.74719
0.839374
0.90771
0.959246
0.999406
1.02815
1.04359
1.04535
1.03737
1.02604
1.01612
1.00918
1.00488
1.00238
1.00101
1.00033
1.00003
0.99993
0.999878
0.99988
0.999908
0.999934
0.999947
0.99996
0.999976
0.999981
0.999987
0.999992
0.999994
0.999996
0.999997
0.999998
0.999999
0.999999
0.999999
1
0.999999
1
0.999999
1
0.999999
1
0.999998
1
0.999997
1
0.999997
1
0.999997
1
0.999994
1.00001
0.999994
1.00001
0.999992
1.00001
0.999995
0.999995
1.00002
0.999977
1.00002
0.999981
1.00001
0.999995
1.00001
0.999996
0.999994
1.00001
0.999997
1
1
0.999998
0.999997
1
1.00001
1.00001
1.00004
1.00011
1.00023
1.00042
1.00075
1.00148
1.00332
1.00816
1.01918
1.03569
1.04744
1.04249
1.01831
0.98026
0.929741
0.856709
0.751313
0.623205
0.502041
0.41779
0.385205
0.407696
0.481077
0.589976
0.709453
0.812743
0.888744
0.944439
0.987444
1.01941
1.03898
1.04499
1.03995
1.02954
1.01913
1.0113
1.00623
1.00318
1.00148
1.00059
1.00017
0.999972
0.999905
0.999903
0.999914
0.999927
0.999944
0.999965
0.999971
0.99998
0.999988
0.999991
0.999993
0.999996
0.999997
0.999998
0.999999
0.999999
0.999999
1
1
1
1
1
1
0.999999
1
0.999999
1
0.999999
1
0.999998
1
0.999998
1
1
1
0.999998
1.00001
0.999988
1.00002
0.999983
1.00001
0.99999
1
1
0.999999
1
0.999992
1.00001
0.999994
0.999996
1
0.999998
1
1
0.999999
1
1.00001
1.00002
1.00005
1.00012
1.00023
1.00043
1.00087
1.00189
1.00429
1.01025
1.02271
1.0391
1.04817
1.03961
1.01235
0.971677
0.918021
0.840112
0.727912
0.592787
0.466106
0.377828
0.342344
0.362695
0.434717
0.545493
0.671922
0.785106
0.869338
0.929511
0.975185
1.01
1.03325
1.04346
1.04179
1.03294
1.02245
1.01379
1.00787
1.00422
1.0021
1.00094
1.00034
1.00007
0.999959
0.999918
0.99992
0.999928
0.999952
0.999959
0.99997
0.999982
0.999986
0.99999
0.999993
0.999995
0.999997
0.999998
0.999999
0.999999
0.999999
1
1
1
1
1
1
0.999999
1
0.999998
1
0.999996
1
0.999996
1
0.999998
1
0.999998
1
0.999998
1
0.999997
1
1
0.999994
1.00001
0.999993
1.00001
0.999994
1.00001
0.999989
1
1.00001
0.999994
1
1
0.999997
0.999999
1
0.999999
1.00001
1.00002
1.00004
1.00012
1.00024
1.00047
1.00107
1.00245
1.00549
1.01258
1.02613
1.04178
1.04811
1.03669
1.00722
0.964455
0.908364
0.827453
0.711671
0.573143
0.444038
0.354085
0.316802
0.333726
0.400656
0.507989
0.63644
0.757187
0.849568
0.914537
0.962834
1.00011
1.02655
1.04074
1.04273
1.03604
1.02597
1.01669
1.00989
1.0055
1.00287
1.00138
1.00059
1.0002
1.00002
0.999955
0.999931
0.999942
0.999948
0.99996
0.999973
0.999979
0.999985
0.99999
0.999993
0.999995
0.999997
0.999998
0.999999
0.999999
0.999999
1
1
1
1
1
0.999999
1
0.999999
1
0.999998
1
0.999998
1
0.999999
1
1
0.999999
1
0.999999
0.999999
1
0.999994
1.00001
0.999994
1
0.999998
1
0.999994
1
1.00001
0.999986
1
1.00001
0.999998
1
0.999997
1
1
0.999996
1
1.00001
1.00003
1.00011
1.00025
1.00052
1.00133
1.00317
1.00688
1.01499
1.02924
1.04371
1.04746
1.03395
1.00318
0.958892
0.901132
0.819316
0.703573
0.56556
0.436991
0.347025
0.308202
0.320509
0.379642
0.47906
0.604676
0.729809
0.829443
0.899485
0.950479
0.9899
1.01908
1.03689
1.04266
1.03865
1.02955
1.01994
1.0123
1.0071
1.00386
1.00197
1.00093
1.00038
1.00012
1
0.999959
0.999951
0.999952
0.999965
0.999971
0.999979
0.999986
0.99999
0.999993
0.999995
0.999997
0.999998
0.999999
0.999999
0.999999
1
1
1
1
1
1
1
1
1
0.999999
1
0.999998
1
0.999998
1
0.999999
1
1
0.999999
1
1
0.999999
1
1
0.999999
1
1
1
0.999992
1.00001
1
0.999995
1
0.999998
1
1
0.999998
1
0.999989
0.999997
1.00001
1.00001
1.00009
1.00028
1.00062
1.00167
1.00404
1.00844
1.01736
1.03187
1.04495
1.0464
1.03151
1.00036
0.955284
0.896571
0.815711
0.703453
0.569639
0.443835
0.354219
0.313038
0.319856
0.370075
0.458933
0.577737
0.70371
0.809084
0.884288
0.938071
0.979459
1.01101
1.03203
1.04149
1.04055
1.033
1.02347
1.01511
1.00905
1.00512
1.00273
1.00136
1.00063
1.00025
1.00007
0.999998
0.999965
0.999965
0.999966
0.999974
0.999981
0.999986
0.99999
0.999993
0.999995
0.999997
0.999998
0.999999
0.999999
0.999999
1
1
1
1
1
1
1
1
0.999999
1
0.999999
1
0.999998
1
0.999999
1
1
0.999999
1
1
1
1
0.999998
1
0.999999
1
0.999998
1
0.999997
0.999997
1.00001
0.999998
1
0.999997
1
1
0.999992
1
0.999984
0.999982
1.00001
0.999981
1.00007
1.00035
1.00077
1.00205
1.00504
1.01014
1.01955
1.03391
1.04564
1.04514
1.02936
0.998738
0.953871
0.894908
0.816216
0.710017
0.583375
0.461902
0.372293
0.327671
0.328668
0.370071
0.44732
0.556296
0.67955
0.788744
0.868878
0.925546
0.968774
1.00243
1.02629
1.03923
1.04156
1.03609
1.02712
1.0183
1.0114
1.00668
1.00372
1.00195
1.00096
1.00044
1.00017
1.00005
0.999996
0.999976
0.999974
0.999978
0.999983
0.999987
0.999991
0.999994
0.999996
0.999997
0.999998
0.999999
0.999999
1
1
1
1
1
1
1
1
1
1
1
1
1
1
1
0.999999
1
1
1
1
0.999999
1
0.999999
1
0.999999
1
1
0.999998
0.999999
1
0.999996
1
1
1
0.999998
0.999999
1
0.999986
1
0.999981
0.999953
1.00002
0.999976
1.00003
1.00044
1.001
1.00247
1.00607
1.01191
1.0215
1.03531
1.04589
1.04393
1.02754
0.998095
0.954701
0.89643
0.820428
0.721486
0.603983
0.488314
0.39898
0.35065
0.345913
0.378926
0.444294
0.541115
0.658116
0.768769
0.853245
0.912892
0.957836
0.993343
1.01975
1.03594
1.04161
1.03863
1.03074
1.02178
1.01414
1.00859
1.00494
1.00271
1.00141
1.00069
1.00031
1.00012
1.00003
0.999997
0.999986
0.999984
0.999986
0.999989
0.999992
0.999995
0.999996
0.999998
0.999998
0.999999
0.999999
1
1
1
1
1
1
1
1
1
1
1
1
1
1
1
1
0.999999
1
1
1
1
1
0.999999
1
1
0.999999
1
1
0.999998
1
1
0.999998
0.999999
1
0.999999
0.999996
1.00001
0.999978
0.999995
0.999992
0.999919
1.00001
1
0.999987
1.00052
1.00131
1.00294
1.00705
1.01365
1.02324
1.03611
1.04575
1.04299
1.02622
0.998126
0.957445
0.901347
0.828405
0.736632
0.629043
0.520765
0.433188
0.382017
0.371869
0.396839
0.450423
0.53334
0.640514
0.74965
0.837468
0.900118
0.946692
0.983755
1.01244
1.03166
1.04064
1.04045
1.03413
1.02544
1.01725
1.01088
1.00648
1.00367
1.00199
1.00103
1.0005
1.00023
1.00009
1.00003
1
0.999993
0.999991
0.999993
0.999994
0.999996
0.999997
0.999998
0.999999
0.999999
1
1
1
1
1
1
1
1
1
1
1
1
1
1
1
1
0.999999
1
0.999999
1
1
0.999999
1
1
1
1
0.999999
1
1
0.999999
0.999999
1
1
0.999997
1
1
0.999992
1.00001
0.99998
0.999978
0.999999
0.999905
0.99997
1.00005
0.999988
1.00055
1.00164
1.0035
1.00792
1.0152
1.02481
1.0365
1.04523
1.04243
1.02572
0.99875
0.961399
0.90934
0.840526
0.755416
0.657364
0.55755
0.473725
0.421282
0.406299
0.423656
0.466079
0.534296
0.628329
0.732246
0.821756
0.887246
0.935403
0.973746
1.00438
1.02639
1.03862
1.04141
1.03709
1.02913
1.02066
1.01355
1.00835
1.00489
1.00274
1.00147
1.00075
1.00037
1.00017
1.00007
1.00003
1.00001
1
0.999997
0.999997
0.999998
0.999999
0.999999
0.999999
1
1
1
1
1
1
1
1
1
1
1
1
1
1
1
1
1
1
1
1
1
0.999999
1
0.999999
1
1
1
0.999999
1
1
1
0.999999
1
1
0.999998
0.999999
1
0.999991
1
0.999984
0.999962
0.999992
0.999919
0.999927
1.00006
1.00006
1.00056
1.0019
1.00413
1.00871
1.01639
1.02615
1.03675
1.04443
1.04207
1.02629
1.00032
0.965995
0.919297
0.856557
0.778461
0.689182
0.59792
0.519301
0.467167
0.44803
0.458229
0.490641
0.544776
0.623446
0.718008
0.806583
0.874381
0.924065
0.963416
0.995625
1.02013
1.03551
1.04142
1.03946
1.03266
1.02426
1.01656
1.01057
1.00639
1.00368
1.00204
1.00108
1.00055
1.00027
1.00013
1.00006
1.00002
1.00001
1
1
1
1
1
1
1
1
1
1
1
1
1
1
1
1
1
1
1
1
1
1
1
1
1
1
1
1
1
1
1
0.999999
1
1
0.999999
1
1
1
0.999999
1
0.999999
0.999999
1
0.999992
0.999994
0.999983
0.999961
0.99997
0.999933
0.999917
1.00003
1.00014
1.00062
1.00205
1.00469
1.0095
1.01724
1.02709
1.03703
1.04365
1.04174
1.02775
1.00334
0.971394
0.929984
0.874939
0.80546
0.725111
0.642157
0.569427
0.51876
0.495936
0.499042
0.522454
0.564253
0.627294
0.708912
0.792883
0.861747
0.912856
0.952944
0.9863
1.01294
1.03129
1.0404
1.04109
1.03587
1.02792
1.01985
1.01312
1.00818
1.00485
1.00276
1.00151
1.0008
1.00041
1.00021
1.0001
1.00005
1.00002
1.00001
1.00001
1
1
1
1
1
1
1
1
1
1
1
1
1
1
1
1
1
1
1
1
1
0.999999
1
1
1
1
1
1
0.999999
1
0.999999
1
1
1
1
0.999999
1
1
1
0.999998
0.999998
0.999992
0.999991
0.999979
0.999963
0.999957
0.999931
0.999931
0.999992
1.00018
1.00073
1.00214
1.00504
1.01017
1.01785
1.02758
1.03725
1.0432
1.04153
1.02963
1.00776
0.978231
0.941182
0.893803
0.834242
0.764095
0.690027
0.623698
0.575208
0.549083
0.544984
0.559693
0.590864
0.639842
0.706853
0.782251
0.849814
0.901952
0.942582
0.976616
1.00492
1.02596