/*--------------------------------*- C++ -*----------------------------------*\
  =========                 |
  \\      /  F ield         | OpenFOAM: The Open Source CFD Toolbox
   \\    /   O peration     | Website:  https://openfoam.org
    \\  /    A nd           | Version:  6
     \\/     M anipulation  |
\*---------------------------------------------------------------------------*/
FoamFile
{
    version     2.0;
    format      ascii;
    class       volVectorField;
    location    "3.4";
    object      U;
}
// * * * * * * * * * * * * * * * * * * * * * * * * * * * * * * * * * * * * * //

dimensions      [0 1 -1 0 0 0 0];

internalField   nonuniform List<vector> 
10000
(
(0.8944 0.4472 0)
(0.8944 0.4472 0)
(0.8944 0.4472 0)
(0.8944 0.4472 0)
(0.8944 0.4472 0)
(0.8944 0.4472 0)
(0.8944 0.4472 0)
(0.8944 0.4472 0)
(0.8944 0.4472 0)
(0.8944 0.4472 0)
(0.8944 0.4472 0)
(0.8944 0.4472 0)
(0.8944 0.4472 0)
(0.8944 0.4472 0)
(0.8944 0.4472 0)
(0.8944 0.4472 0)
(0.8944 0.4472 0)
(0.8944 0.4472 0)
(0.8944 0.4472 0)
(0.8944 0.4472 0)
(0.8944 0.4472 0)
(0.8944 0.4472 0)
(0.8944 0.4472 0)
(0.8944 0.4472 0)
(0.8944 0.4472 0)
(0.8944 0.4472 0)
(0.8944 0.4472 0)
(0.8944 0.4472 0)
(0.8944 0.4472 0)
(0.8944 0.4472 0)
(0.8944 0.4472 0)
(0.8944 0.4472 0)
(0.8944 0.4472 0)
(0.8944 0.4472 0)
(0.8944 0.4472 0)
(0.8944 0.4472 0)
(0.8944 0.4472 0)
(0.8944 0.4472 0)
(0.8944 0.4472 0)
(0.8944 0.4472 0)
(0.8944 0.4472 0)
(0.8944 0.4472 0)
(0.8944 0.4472 0)
(0.8944 0.4472 0)
(0.894401 0.4472 0)
(0.894402 0.4472 0)
(0.894403 0.447198 0)
(0.894405 0.447196 0)
(0.894407 0.447193 0)
(0.894411 0.447189 0)
(0.894414 0.447182 0)
(0.894417 0.447175 0)
(0.894419 0.447166 0)
(0.894421 0.447156 0)
(0.89442 0.447147 0)
(0.894418 0.447139 0)
(0.894413 0.447133 0)
(0.894406 0.447131 0)
(0.894396 0.447133 0)
(0.894386 0.44714 0)
(0.894376 0.447152 0)
(0.894367 0.447169 0)
(0.894359 0.44719 0)
(0.894354 0.447213 0)
(0.894353 0.447236 0)
(0.894356 0.447258 0)
(0.894361 0.447278 0)
(0.894369 0.447294 0)
(0.894379 0.447304 0)
(0.89439 0.44731 0)
(0.8944 0.44731 0)
(0.894408 0.447306 0)
(0.894415 0.447298 0)
(0.89442 0.447287 0)
(0.894422 0.447275 0)
(0.894423 0.447262 0)
(0.894422 0.44725 0)
(0.89442 0.447238 0)
(0.894417 0.447229 0)
(0.894414 0.447221 0)
(0.89441 0.447214 0)
(0.894408 0.447209 0)
(0.894406 0.447206 0)
(0.894404 0.447203 0)
(0.894402 0.447202 0)
(0.894401 0.447201 0)
(0.894401 0.4472 0)
(0.8944 0.4472 0)
(0.8944 0.4472 0)
(0.8944 0.4472 0)
(0.8944 0.4472 0)
(0.8944 0.4472 0)
(0.8944 0.4472 0)
(0.8944 0.4472 0)
(0.8944 0.4472 0)
(0.8944 0.4472 0)
(0.8944 0.4472 0)
(0.8944 0.4472 0)
(0.8944 0.4472 0)
(0.8944 0.4472 0)
(0.8944 0.4472 0)
(0.8944 0.4472 0)
(0.8944 0.4472 0)
(0.8944 0.4472 0)
(0.8944 0.4472 0)
(0.8944 0.4472 0)
(0.8944 0.4472 0)
(0.8944 0.4472 0)
(0.8944 0.4472 0)
(0.8944 0.4472 0)
(0.8944 0.4472 0)
(0.8944 0.4472 0)
(0.8944 0.4472 0)
(0.8944 0.4472 0)
(0.8944 0.4472 0)
(0.8944 0.4472 0)
(0.8944 0.4472 0)
(0.8944 0.4472 0)
(0.8944 0.4472 0)
(0.8944 0.4472 0)
(0.8944 0.4472 0)
(0.8944 0.4472 0)
(0.8944 0.4472 0)
(0.8944 0.4472 0)
(0.8944 0.4472 0)
(0.8944 0.4472 0)
(0.8944 0.4472 0)
(0.8944 0.4472 0)
(0.8944 0.4472 0)
(0.8944 0.4472 0)
(0.8944 0.4472 0)
(0.8944 0.4472 0)
(0.8944 0.4472 0)
(0.8944 0.4472 0)
(0.8944 0.4472 0)
(0.8944 0.4472 0)
(0.8944 0.4472 0)
(0.8944 0.4472 0)
(0.8944 0.4472 0)
(0.8944 0.4472 0)
(0.8944 0.4472 0)
(0.8944 0.447201 0)
(0.8944 0.447201 0)
(0.894401 0.447201 0)
(0.894401 0.4472 0)
(0.894403 0.4472 0)
(0.894405 0.447198 0)
(0.894407 0.447195 0)
(0.894411 0.447191 0)
(0.894415 0.447185 0)
(0.89442 0.447177 0)
(0.894424 0.447166 0)
(0.894427 0.447155 0)
(0.894429 0.447143 0)
(0.894428 0.447131 0)
(0.894423 0.447122 0)
(0.894416 0.447116 0)
(0.894405 0.447116 0)
(0.894391 0.447122 0)
(0.894377 0.447135 0)
(0.894362 0.447154 0)
(0.894349 0.44718 0)
(0.894339 0.44721 0)
(0.894334 0.447242 0)
(0.894333 0.447274 0)
(0.894337 0.447304 0)
(0.894346 0.44733 0)
(0.894358 0.447349 0)
(0.894372 0.447361 0)
(0.894387 0.447366 0)
(0.894402 0.447364 0)
(0.894414 0.447355 0)
(0.894424 0.447342 0)
(0.89443 0.447325 0)
(0.894433 0.447307 0)
(0.894434 0.447288 0)
(0.894432 0.44727 0)
(0.894429 0.447254 0)
(0.894425 0.44724 0)
(0.89442 0.447229 0)
(0.894415 0.44722 0)
(0.894411 0.447213 0)
(0.894408 0.447208 0)
(0.894406 0.447205 0)
(0.894404 0.447202 0)
(0.894402 0.447201 0)
(0.894401 0.4472 0)
(0.894401 0.4472 0)
(0.8944 0.4472 0)
(0.8944 0.4472 0)
(0.8944 0.4472 0)
(0.8944 0.4472 0)
(0.8944 0.4472 0)
(0.8944 0.4472 0)
(0.8944 0.4472 0)
(0.8944 0.4472 0)
(0.8944 0.4472 0)
(0.8944 0.4472 0)
(0.8944 0.4472 0)
(0.8944 0.4472 0)
(0.8944 0.4472 0)
(0.8944 0.4472 0)
(0.8944 0.4472 0)
(0.8944 0.4472 0)
(0.8944 0.4472 0)
(0.8944 0.4472 0)
(0.8944 0.4472 0)
(0.8944 0.4472 0)
(0.8944 0.4472 0)
(0.8944 0.4472 0)
(0.8944 0.4472 0)
(0.8944 0.4472 0)
(0.8944 0.4472 0)
(0.8944 0.4472 0)
(0.8944 0.4472 0)
(0.8944 0.4472 0)
(0.8944 0.4472 0)
(0.8944 0.4472 0)
(0.8944 0.4472 0)
(0.8944 0.4472 0)
(0.8944 0.4472 0)
(0.8944 0.4472 0)
(0.8944 0.4472 0)
(0.8944 0.4472 0)
(0.8944 0.4472 0)
(0.8944 0.4472 0)
(0.8944 0.4472 0)
(0.8944 0.4472 0)
(0.8944 0.4472 0)
(0.8944 0.4472 0)
(0.8944 0.4472 0)
(0.8944 0.4472 0)
(0.8944 0.4472 0)
(0.8944 0.4472 0)
(0.8944 0.4472 0)
(0.8944 0.4472 0)
(0.8944 0.4472 0)
(0.8944 0.4472 0)
(0.8944 0.4472 0)
(0.8944 0.4472 0)
(0.8944 0.447201 0)
(0.8944 0.447201 0)
(0.8944 0.447201 0)
(0.894401 0.447201 0)
(0.894402 0.447201 0)
(0.894404 0.4472 0)
(0.894406 0.447198 0)
(0.89441 0.447194 0)
(0.894415 0.447189 0)
(0.894421 0.447181 0)
(0.894428 0.44717 0)
(0.894433 0.447157 0)
(0.894437 0.447143 0)
(0.894438 0.447128 0)
(0.894436 0.447115 0)
(0.894429 0.447106 0)
(0.894417 0.447102 0)
(0.894401 0.447107 0)
(0.894381 0.44712 0)
(0.894361 0.447143 0)
(0.894341 0.447175 0)
(0.894323 0.447214 0)
(0.894311 0.447257 0)
(0.894305 0.447302 0)
(0.894305 0.447346 0)
(0.894313 0.447385 0)
(0.894326 0.447416 0)
(0.894344 0.447438 0)
(0.894365 0.44745 0)
(0.894387 0.447451 0)
(0.894407 0.447443 0)
(0.894424 0.447427 0)
(0.894437 0.447405 0)
(0.894446 0.447379 0)
(0.89445 0.447352 0)
(0.89445 0.447324 0)
(0.894447 0.447298 0)
(0.894442 0.447275 0)
(0.894436 0.447255 0)
(0.894429 0.447239 0)
(0.894422 0.447226 0)
(0.894417 0.447217 0)
(0.894412 0.44721 0)
(0.894408 0.447206 0)
(0.894405 0.447203 0)
(0.894403 0.447201 0)
(0.894402 0.4472 0)
(0.894401 0.4472 0)
(0.8944 0.4472 0)
(0.8944 0.4472 0)
(0.8944 0.4472 0)
(0.8944 0.4472 0)
(0.8944 0.4472 0)
(0.8944 0.4472 0)
(0.8944 0.4472 0)
(0.8944 0.4472 0)
(0.8944 0.4472 0)
(0.8944 0.4472 0)
(0.8944 0.4472 0)
(0.8944 0.4472 0)
(0.8944 0.4472 0)
(0.8944 0.4472 0)
(0.8944 0.4472 0)
(0.8944 0.4472 0)
(0.8944 0.4472 0)
(0.8944 0.4472 0)
(0.8944 0.4472 0)
(0.8944 0.4472 0)
(0.8944 0.4472 0)
(0.8944 0.4472 0)
(0.8944 0.4472 0)
(0.8944 0.4472 0)
(0.8944 0.4472 0)
(0.8944 0.4472 0)
(0.8944 0.4472 0)
(0.8944 0.4472 0)
(0.8944 0.4472 0)
(0.8944 0.4472 0)
(0.8944 0.4472 0)
(0.8944 0.4472 0)
(0.8944 0.4472 0)
(0.8944 0.4472 0)
(0.8944 0.4472 0)
(0.8944 0.4472 0)
(0.8944 0.4472 0)
(0.8944 0.4472 0)
(0.8944 0.4472 0)
(0.8944 0.4472 0)
(0.8944 0.4472 0)
(0.8944 0.4472 0)
(0.8944 0.4472 0)
(0.8944 0.4472 0)
(0.8944 0.4472 0)
(0.8944 0.4472 0)
(0.8944 0.4472 0)
(0.8944 0.4472 0)
(0.8944 0.4472 0)
(0.8944 0.4472 0)
(0.8944 0.4472 0)
(0.894399 0.447201 0)
(0.8944 0.447201 0)
(0.8944 0.447201 0)
(0.8944 0.447202 0)
(0.894401 0.447202 0)
(0.894402 0.447202 0)
(0.894405 0.447201 0)
(0.894409 0.447198 0)
(0.894414 0.447194 0)
(0.894421 0.447186 0)
(0.894429 0.447176 0)
(0.894437 0.447163 0)
(0.894444 0.447147 0)
(0.894449 0.44713 0)
(0.894449 0.447114 0)
(0.894444 0.447102 0)
(0.894432 0.447096 0)
(0.894414 0.447099 0)
(0.89439 0.447114 0)
(0.894363 0.447141 0)
(0.894334 0.44718 0)
(0.894307 0.447231 0)
(0.894285 0.44729 0)
(0.89427 0.447353 0)
(0.894264 0.447416 0)
(0.894268 0.447474 0)
(0.894281 0.447524 0)
(0.894302 0.447561 0)
(0.894329 0.447583 0)
(0.894359 0.447591 0)
(0.89439 0.447584 0)
(0.894418 0.447564 0)
(0.894441 0.447535 0)
(0.894458 0.447498 0)
(0.894469 0.447457 0)
(0.894474 0.447415 0)
(0.894474 0.447374 0)
(0.894469 0.447336 0)
(0.894461 0.447303 0)
(0.894451 0.447275 0)
(0.894441 0.447253 0)
(0.894432 0.447235 0)
(0.894424 0.447222 0)
(0.894417 0.447213 0)
(0.894411 0.447207 0)
(0.894407 0.447203 0)
(0.894404 0.447201 0)
(0.894402 0.4472 0)
(0.894401 0.447199 0)
(0.8944 0.447199 0)
(0.8944 0.447199 0)
(0.8944 0.447199 0)
(0.8944 0.4472 0)
(0.8944 0.4472 0)
(0.8944 0.4472 0)
(0.8944 0.4472 0)
(0.8944 0.4472 0)
(0.8944 0.4472 0)
(0.8944 0.4472 0)
(0.8944 0.4472 0)
(0.8944 0.4472 0)
(0.8944 0.4472 0)
(0.8944 0.4472 0)
(0.8944 0.4472 0)
(0.8944 0.4472 0)
(0.8944 0.4472 0)
(0.8944 0.4472 0)
(0.8944 0.4472 0)
(0.8944 0.4472 0)
(0.8944 0.4472 0)
(0.8944 0.4472 0)
(0.8944 0.4472 0)
(0.8944 0.4472 0)
(0.8944 0.4472 0)
(0.8944 0.4472 0)
(0.8944 0.4472 0)
(0.8944 0.4472 0)
(0.8944 0.4472 0)
(0.8944 0.4472 0)
(0.8944 0.4472 0)
(0.8944 0.4472 0)
(0.8944 0.4472 0)
(0.8944 0.4472 0)
(0.8944 0.4472 0)
(0.8944 0.4472 0)
(0.8944 0.4472 0)
(0.8944 0.4472 0)
(0.8944 0.4472 0)
(0.8944 0.4472 0)
(0.8944 0.4472 0)
(0.8944 0.4472 0)
(0.8944 0.4472 0)
(0.8944 0.4472 0)
(0.8944 0.4472 0)
(0.8944 0.4472 0)
(0.8944 0.4472 0)
(0.8944 0.4472 0)
(0.8944 0.4472 0)
(0.8944 0.4472 0)
(0.894399 0.447201 0)
(0.894399 0.447201 0)
(0.894399 0.447202 0)
(0.894399 0.447202 0)
(0.894399 0.447203 0)
(0.894401 0.447204 0)
(0.894403 0.447204 0)
(0.894406 0.447202 0)
(0.894411 0.447199 0)
(0.894419 0.447194 0)
(0.894429 0.447185 0)
(0.894439 0.447173 0)
(0.894449 0.447157 0)
(0.894458 0.447139 0)
(0.894461 0.447121 0)
(0.894459 0.447107 0)
(0.894449 0.447099 0)
(0.89443 0.447102 0)
(0.894402 0.447119 0)
(0.894367 0.447153 0)
(0.894328 0.447204 0)
(0.894289 0.447271 0)
(0.894253 0.447352 0)
(0.894226 0.447441 0)
(0.89421 0.447532 0)
(0.894206 0.44762 0)
(0.894217 0.447697 0)
(0.894241 0.447757 0)
(0.894274 0.447798 0)
(0.894315 0.447817 0)
(0.894359 0.447814 0)
(0.894401 0.44779 0)
(0.894439 0.447749 0)
(0.89447 0.447696 0)
(0.894493 0.447635 0)
(0.894506 0.44757 0)
(0.894511 0.447505 0)
(0.894508 0.447444 0)
(0.8945 0.447389 0)
(0.894488 0.447341 0)
(0.894473 0.447302 0)
(0.894459 0.44727 0)
(0.894445 0.447246 0)
(0.894433 0.447228 0)
(0.894423 0.447216 0)
(0.894415 0.447208 0)
(0.89441 0.447203 0)
(0.894406 0.4472 0)
(0.894403 0.447199 0)
(0.894401 0.447198 0)
(0.8944 0.447198 0)
(0.8944 0.447199 0)
(0.8944 0.447199 0)
(0.8944 0.447199 0)
(0.8944 0.447199 0)
(0.8944 0.4472 0)
(0.8944 0.4472 0)
(0.8944 0.4472 0)
(0.8944 0.4472 0)
(0.8944 0.4472 0)
(0.8944 0.4472 0)
(0.8944 0.4472 0)
(0.8944 0.4472 0)
(0.8944 0.4472 0)
(0.8944 0.4472 0)
(0.8944 0.4472 0)
(0.8944 0.4472 0)
(0.8944 0.4472 0)
(0.8944 0.4472 0)
(0.8944 0.4472 0)
(0.8944 0.4472 0)
(0.8944 0.4472 0)
(0.8944 0.4472 0)
(0.8944 0.4472 0)
(0.8944 0.4472 0)
(0.8944 0.4472 0)
(0.8944 0.4472 0)
(0.8944 0.4472 0)
(0.8944 0.4472 0)
(0.8944 0.4472 0)
(0.8944 0.4472 0)
(0.8944 0.4472 0)
(0.8944 0.4472 0)
(0.8944 0.4472 0)
(0.8944 0.4472 0)
(0.8944 0.4472 0)
(0.8944 0.4472 0)
(0.8944 0.4472 0)
(0.8944 0.4472 0)
(0.8944 0.4472 0)
(0.8944 0.4472 0)
(0.8944 0.4472 0)
(0.8944 0.4472 0)
(0.8944 0.4472 0)
(0.8944 0.4472 0)
(0.8944 0.4472 0)
(0.8944 0.4472 0)
(0.8944 0.4472 0)
(0.8944 0.4472 0)
(0.894399 0.447201 0)
(0.894399 0.447201 0)
(0.894399 0.447202 0)
(0.894399 0.447203 0)
(0.894398 0.447204 0)
(0.894399 0.447205 0)
(0.8944 0.447206 0)
(0.894403 0.447207 0)
(0.894408 0.447205 0)
(0.894415 0.447202 0)
(0.894425 0.447196 0)
(0.894437 0.447185 0)
(0.89445 0.447171 0)
(0.894463 0.447154 0)
(0.894471 0.447136 0)
(0.894473 0.447121 0)
(0.894465 0.447113 0)
(0.894446 0.447117 0)
(0.894414 0.447139 0)
(0.894372 0.447183 0)
(0.894322 0.44725 0)
(0.894267 0.447342 0)
(0.894214 0.447454 0)
(0.894169 0.447581 0)
(0.894137 0.447715 0)
(0.894122 0.447847 0)
(0.894126 0.447968 0)
(0.89415 0.448069 0)
(0.89419 0.448143 0)
(0.894244 0.448184 0)
(0.894305 0.448191 0)
(0.894368 0.448165 0)
(0.894428 0.448111 0)
(0.89448 0.448034 0)
(0.89452 0.447941 0)
(0.894548 0.447839 0)
(0.894563 0.447736 0)
(0.894566 0.447636 0)
(0.894559 0.447544 0)
(0.894544 0.447463 0)
(0.894525 0.447394 0)
(0.894504 0.447338 0)
(0.894483 0.447294 0)
(0.894463 0.44726 0)
(0.894446 0.447236 0)
(0.894432 0.447219 0)
(0.894421 0.447209 0)
(0.894413 0.447202 0)
(0.894407 0.447199 0)
(0.894404 0.447197 0)
(0.894401 0.447197 0)
(0.8944 0.447197 0)
(0.8944 0.447198 0)
(0.894399 0.447198 0)
(0.894399 0.447199 0)
(0.8944 0.447199 0)
(0.8944 0.447199 0)
(0.8944 0.4472 0)
(0.8944 0.4472 0)
(0.8944 0.4472 0)
(0.8944 0.4472 0)
(0.8944 0.4472 0)
(0.8944 0.4472 0)
(0.8944 0.4472 0)
(0.8944 0.4472 0)
(0.8944 0.4472 0)
(0.8944 0.4472 0)
(0.8944 0.4472 0)
(0.8944 0.4472 0)
(0.8944 0.4472 0)
(0.8944 0.4472 0)
(0.8944 0.4472 0)
(0.8944 0.4472 0)
(0.8944 0.4472 0)
(0.8944 0.4472 0)
(0.8944 0.4472 0)
(0.8944 0.4472 0)
(0.8944 0.4472 0)
(0.8944 0.4472 0)
(0.8944 0.4472 0)
(0.8944 0.4472 0)
(0.8944 0.4472 0)
(0.8944 0.4472 0)
(0.8944 0.4472 0)
(0.8944 0.4472 0)
(0.8944 0.4472 0)
(0.8944 0.4472 0)
(0.8944 0.4472 0)
(0.8944 0.4472 0)
(0.8944 0.4472 0)
(0.8944 0.4472 0)
(0.8944 0.4472 0)
(0.8944 0.4472 0)
(0.8944 0.4472 0)
(0.8944 0.4472 0)
(0.8944 0.4472 0)
(0.8944 0.4472 0)
(0.8944 0.4472 0)
(0.8944 0.4472 0)
(0.894399 0.447201 0)
(0.894399 0.447201 0)
(0.894399 0.447202 0)
(0.894398 0.447203 0)
(0.894398 0.447204 0)
(0.894397 0.447206 0)
(0.894398 0.447208 0)
(0.8944 0.44721 0)
(0.894403 0.447211 0)
(0.89441 0.44721 0)
(0.894419 0.447207 0)
(0.894432 0.447199 0)
(0.894447 0.447189 0)
(0.894462 0.447174 0)
(0.894475 0.447158 0)
(0.894482 0.447144 0)
(0.894478 0.447138 0)
(0.89446 0.447146 0)
(0.894426 0.447175 0)
(0.894375 0.447233 0)
(0.894311 0.447322 0)
(0.894238 0.447446 0)
(0.894163 0.447602 0)
(0.894094 0.447784 0)
(0.894038 0.447981 0)
(0.894003 0.448182 0)
(0.893994 0.448374 0)
(0.894013 0.448541 0)
(0.894058 0.448673 0)
(0.894127 0.44876 0)
(0.894212 0.448795 0)
(0.894304 0.448779 0)
(0.894397 0.448714 0)
(0.894481 0.448607 0)
(0.894551 0.44847 0)
(0.894603 0.448312 0)
(0.894636 0.448147 0)
(0.894651 0.447983 0)
(0.894649 0.447829 0)
(0.894634 0.447689 0)
(0.894609 0.447569 0)
(0.89458 0.447469 0)
(0.894548 0.447388 0)
(0.894516 0.447325 0)
(0.894488 0.447279 0)
(0.894463 0.447246 0)
(0.894443 0.447223 0)
(0.894428 0.447209 0)
(0.894417 0.447201 0)
(0.894409 0.447197 0)
(0.894404 0.447195 0)
(0.894401 0.447195 0)
(0.8944 0.447195 0)
(0.894399 0.447196 0)
(0.894399 0.447197 0)
(0.894399 0.447198 0)
(0.894399 0.447199 0)
(0.894399 0.447199 0)
(0.8944 0.447199 0)
(0.8944 0.4472 0)
(0.8944 0.4472 0)
(0.8944 0.4472 0)
(0.8944 0.4472 0)
(0.8944 0.4472 0)
(0.8944 0.4472 0)
(0.8944 0.4472 0)
(0.8944 0.4472 0)
(0.8944 0.4472 0)
(0.8944 0.4472 0)
(0.8944 0.4472 0)
(0.8944 0.4472 0)
(0.8944 0.4472 0)
(0.8944 0.4472 0)
(0.8944 0.4472 0)
(0.8944 0.4472 0)
(0.8944 0.4472 0)
(0.8944 0.4472 0)
(0.8944 0.4472 0)
(0.8944 0.4472 0)
(0.8944 0.4472 0)
(0.8944 0.4472 0)
(0.8944 0.4472 0)
(0.8944 0.4472 0)
(0.8944 0.4472 0)
(0.8944 0.4472 0)
(0.8944 0.4472 0)
(0.8944 0.4472 0)
(0.8944 0.4472 0)
(0.8944 0.4472 0)
(0.8944 0.4472 0)
(0.8944 0.4472 0)
(0.8944 0.4472 0)
(0.8944 0.4472 0)
(0.8944 0.4472 0)
(0.8944 0.4472 0)
(0.8944 0.4472 0)
(0.8944 0.4472 0)
(0.8944 0.4472 0)
(0.8944 0.4472 0)
(0.8944 0.447201 0)
(0.894399 0.447201 0)
(0.894399 0.447202 0)
(0.894398 0.447202 0)
(0.894397 0.447204 0)
(0.894396 0.447206 0)
(0.894396 0.447209 0)
(0.894396 0.447212 0)
(0.894398 0.447215 0)
(0.894403 0.447217 0)
(0.894411 0.447217 0)
(0.894423 0.447214 0)
(0.894439 0.447208 0)
(0.894456 0.447198 0)
(0.894473 0.447186 0)
(0.894484 0.447175 0)
(0.894485 0.447172 0)
(0.894469 0.447186 0)
(0.894433 0.447225 0)
(0.894374 0.4473 0)
(0.894294 0.447419 0)
(0.894198 0.447585 0)
(0.894093 0.447799 0)
(0.89399 0.448054 0)
(0.8939 0.448341 0)
(0.893834 0.448642 0)
(0.8938 0.44894 0)
(0.893805 0.449214 0)
(0.89385 0.449445 0)
(0.893933 0.449618 0)
(0.894046 0.449718 0)
(0.894179 0.449739 0)
(0.894319 0.449683 0)
(0.894455 0.449554 0)
(0.894574 0.449365 0)
(0.89467 0.449133 0)
(0.894738 0.448875 0)
(0.894776 0.44861 0)
(0.894787 0.448352 0)
(0.894775 0.448114 0)
(0.894746 0.447903 0)
(0.894705 0.447723 0)
(0.894658 0.447575 0)
(0.894609 0.447459 0)
(0.894563 0.44737 0)
(0.894522 0.447304 0)
(0.894487 0.447258 0)
(0.894459 0.447228 0)
(0.894438 0.447209 0)
(0.894422 0.447198 0)
(0.894412 0.447193 0)
(0.894405 0.447191 0)
(0.894401 0.447192 0)
(0.894399 0.447193 0)
(0.894398 0.447194 0)
(0.894398 0.447196 0)
(0.894398 0.447197 0)
(0.894399 0.447198 0)
(0.894399 0.447199 0)
(0.894399 0.447199 0)
(0.8944 0.4472 0)
(0.8944 0.4472 0)
(0.8944 0.4472 0)
(0.8944 0.4472 0)
(0.8944 0.4472 0)
(0.8944 0.4472 0)
(0.8944 0.4472 0)
(0.8944 0.4472 0)
(0.8944 0.4472 0)
(0.8944 0.4472 0)
(0.8944 0.4472 0)
(0.8944 0.4472 0)
(0.8944 0.4472 0)
(0.8944 0.4472 0)
(0.8944 0.4472 0)
(0.8944 0.4472 0)
(0.8944 0.4472 0)
(0.8944 0.4472 0)
(0.8944 0.4472 0)
(0.8944 0.4472 0)
(0.8944 0.4472 0)
(0.8944 0.4472 0)
(0.8944 0.4472 0)
(0.8944 0.4472 0)
(0.8944 0.4472 0)
(0.8944 0.4472 0)
(0.8944 0.4472 0)
(0.8944 0.4472 0)
(0.8944 0.4472 0)
(0.8944 0.4472 0)
(0.8944 0.4472 0)
(0.8944 0.4472 0)
(0.8944 0.4472 0)
(0.8944 0.4472 0)
(0.8944 0.4472 0)
(0.8944 0.4472 0)
(0.8944 0.4472 0)
(0.8944 0.4472 0)
(0.8944 0.4472 0)
(0.894399 0.4472 0)
(0.894399 0.447201 0)
(0.894399 0.447201 0)
(0.894398 0.447202 0)
(0.894397 0.447204 0)
(0.894395 0.447206 0)
(0.894394 0.447209 0)
(0.894393 0.447213 0)
(0.894393 0.447218 0)
(0.894396 0.447222 0)
(0.894402 0.447226 0)
(0.894412 0.447228 0)
(0.894426 0.447227 0)
(0.894444 0.447222 0)
(0.894463 0.447216 0)
(0.894479 0.447211 0)
(0.894483 0.447214 0)
(0.894471 0.447234 0)
(0.894433 0.447286 0)
(0.894366 0.447381 0)
(0.894269 0.447533 0)
(0.894144 0.44775 0)
(0.894 0.448036 0)
(0.893851 0.448387 0)
(0.893711 0.448791 0)
(0.893596 0.449229 0)
(0.89352 0.449678 0)
(0.893494 0.450111 0)
(0.893525 0.450499 0)
(0.893614 0.450817 0)
(0.893755 0.451041 0)
(0.893937 0.451157 0)
(0.894143 0.451155 0)
(0.894356 0.451036 0)
(0.894556 0.450811 0)
(0.894728 0.4505 0)
(0.894861 0.450126 0)
(0.894949 0.449718 0)
(0.894992 0.449303 0)
(0.894995 0.448904 0)
(0.894966 0.448539 0)
(0.894912 0.448219 0)
(0.894845 0.44795 0)
(0.894771 0.447732 0)
(0.894698 0.447561 0)
(0.89463 0.447433 0)
(0.89457 0.44734 0)
(0.89452 0.447276 0)
(0.89448 0.447234 0)
(0.89445 0.447209 0)
(0.894429 0.447195 0)
(0.894414 0.447188 0)
(0.894405 0.447186 0)
(0.8944 0.447187 0)
(0.894398 0.447189 0)
(0.894397 0.447191 0)
(0.894397 0.447194 0)
(0.894397 0.447196 0)
(0.894398 0.447197 0)
(0.894399 0.447198 0)
(0.894399 0.447199 0)
(0.894399 0.447199 0)
(0.8944 0.4472 0)
(0.8944 0.4472 0)
(0.8944 0.4472 0)
(0.8944 0.4472 0)
(0.8944 0.4472 0)
(0.8944 0.4472 0)
(0.8944 0.4472 0)
(0.8944 0.4472 0)
(0.8944 0.4472 0)
(0.8944 0.4472 0)
(0.8944 0.4472 0)
(0.8944 0.4472 0)
(0.8944 0.4472 0)
(0.8944 0.4472 0)
(0.8944 0.4472 0)
(0.8944 0.4472 0)
(0.8944 0.4472 0)
(0.8944 0.4472 0)
(0.8944 0.4472 0)
(0.8944 0.4472 0)
(0.8944 0.4472 0)
(0.8944 0.4472 0)
(0.8944 0.4472 0)
(0.8944 0.4472 0)
(0.8944 0.4472 0)
(0.8944 0.4472 0)
(0.8944 0.4472 0)
(0.8944 0.4472 0)
(0.8944 0.4472 0)
(0.8944 0.4472 0)
(0.8944 0.4472 0)
(0.8944 0.4472 0)
(0.8944 0.4472 0)
(0.8944 0.4472 0)
(0.8944 0.4472 0)
(0.8944 0.4472 0)
(0.8944 0.4472 0)
(0.8944 0.4472 0)
(0.894399 0.4472 0)
(0.894399 0.447201 0)
(0.894398 0.447202 0)
(0.894397 0.447203 0)
(0.894395 0.447205 0)
(0.894393 0.447209 0)
(0.894391 0.447213 0)
(0.894389 0.447218 0)
(0.894389 0.447225 0)
(0.894392 0.447232 0)
(0.894399 0.447239 0)
(0.89441 0.447243 0)
(0.894427 0.447246 0)
(0.894447 0.447246 0)
(0.894464 0.447248 0)
(0.894473 0.447258 0)
(0.894464 0.447287 0)
(0.894426 0.447351 0)
(0.894351 0.447467 0)
(0.894233 0.447654 0)
(0.894075 0.447928 0)
(0.893884 0.448297 0)
(0.893674 0.448762 0)
(0.893463 0.449312 0)
(0.893275 0.449926 0)
(0.893129 0.450576 0)
(0.893045 0.451227 0)
(0.893037 0.451842 0)
(0.893112 0.452382 0)
(0.893268 0.452812 0)
(0.893497 0.453104 0)
(0.89378 0.453237 0)
(0.894095 0.453201 0)
(0.894415 0.452997 0)
(0.894712 0.45264 0)
(0.894963 0.452156 0)
(0.895152 0.451581 0)
(0.89527 0.450957 0)
(0.89532 0.450325 0)
(0.895309 0.449719 0)
(0.895251 0.449167 0)
(0.895161 0.448687 0)
(0.895052 0.448286 0)
(0.894937 0.447963 0)
(0.894825 0.447713 0)
(0.894724 0.447527 0)
(0.894637 0.447394 0)
(0.894565 0.447303 0)
(0.894509 0.447244 0)
(0.894467 0.447209 0)
(0.894437 0.44719 0)
(0.894418 0.447181 0)
(0.894406 0.447179 0)
(0.894399 0.447181 0)
(0.894396 0.447184 0)
(0.894395 0.447188 0)
(0.894395 0.447191 0)
(0.894396 0.447193 0)
(0.894397 0.447196 0)
(0.894398 0.447197 0)
(0.894398 0.447198 0)
(0.894399 0.447199 0)
(0.894399 0.447199 0)
(0.8944 0.4472 0)
(0.8944 0.4472 0)
(0.8944 0.4472 0)
(0.8944 0.4472 0)
(0.8944 0.4472 0)
(0.8944 0.4472 0)
(0.8944 0.4472 0)
(0.8944 0.4472 0)
(0.8944 0.4472 0)
(0.8944 0.4472 0)
(0.8944 0.4472 0)
(0.8944 0.4472 0)
(0.8944 0.4472 0)
(0.8944 0.4472 0)
(0.8944 0.4472 0)
(0.8944 0.4472 0)
(0.8944 0.4472 0)
(0.8944 0.4472 0)
(0.8944 0.4472 0)
(0.8944 0.4472 0)
(0.8944 0.4472 0)
(0.8944 0.4472 0)
(0.8944 0.4472 0)
(0.8944 0.4472 0)
(0.8944 0.4472 0)
(0.8944 0.4472 0)
(0.8944 0.4472 0)
(0.8944 0.4472 0)
(0.8944 0.4472 0)
(0.8944 0.4472 0)
(0.8944 0.4472 0)
(0.8944 0.4472 0)
(0.8944 0.4472 0)
(0.8944 0.4472 0)
(0.8944 0.4472 0)
(0.8944 0.4472 0)
(0.894399 0.4472 0)
(0.894399 0.447201 0)
(0.894398 0.447202 0)
(0.894397 0.447203 0)
(0.894395 0.447204 0)
(0.894393 0.447208 0)
(0.89439 0.447212 0)
(0.894386 0.447218 0)
(0.894384 0.447226 0)
(0.894383 0.447236 0)
(0.894386 0.447246 0)
(0.894393 0.447256 0)
(0.894407 0.447265 0)
(0.894423 0.447274 0)
(0.894442 0.447284 0)
(0.894453 0.447302 0)
(0.894447 0.44734 0)
(0.894409 0.447415 0)
(0.894328 0.44755 0)
(0.894191 0.447771 0)
(0.893995 0.448102 0)
(0.893747 0.448559 0)
(0.893459 0.449151 0)
(0.893155 0.449869 0)
(0.892863 0.450695 0)
(0.892612 0.451593 0)
(0.89243 0.452523 0)
(0.892342 0.453436 0)
(0.892364 0.454281 0)
(0.892504 0.455012 0)
(0.892757 0.455583 0)
(0.89311 0.45596 0)
(0.893539 0.456118 0)
(0.89401 0.456041 0)
(0.894486 0.45573 0)
(0.894927 0.455204 0)
(0.895297 0.454495 0)
(0.895571 0.453653 0)
(0.895739 0.452735 0)
(0.895801 0.451801 0)
(0.895772 0.450904 0)
(0.895672 0.450086 0)
(0.895526 0.449374 0)
(0.895355 0.448781 0)
(0.895178 0.448306 0)
(0.89501 0.44794 0)
(0.89486 0.447669 0)
(0.894732 0.447476 0)
(0.894629 0.447345 0)
(0.894549 0.447262 0)
(0.89449 0.447211 0)
(0.894449 0.447185 0)
(0.894422 0.447173 0)
(0.894406 0.447171 0)
(0.894397 0.447173 0)
(0.894393 0.447177 0)
(0.894392 0.447182 0)
(0.894392 0.447187 0)
(0.894394 0.447191 0)
(0.894395 0.447194 0)
(0.894397 0.447196 0)
(0.894398 0.447197 0)
(0.894398 0.447198 0)
(0.894399 0.447199 0)
(0.894399 0.447199 0)
(0.8944 0.4472 0)
(0.8944 0.4472 0)
(0.8944 0.4472 0)
(0.8944 0.4472 0)
(0.8944 0.4472 0)
(0.8944 0.4472 0)
(0.8944 0.4472 0)
(0.8944 0.4472 0)
(0.8944 0.4472 0)
(0.8944 0.4472 0)
(0.8944 0.4472 0)
(0.8944 0.4472 0)
(0.8944 0.4472 0)
(0.8944 0.4472 0)
(0.8944 0.4472 0)
(0.8944 0.4472 0)
(0.8944 0.4472 0)
(0.8944 0.4472 0)
(0.8944 0.4472 0)
(0.8944 0.4472 0)
(0.8944 0.4472 0)
(0.8944 0.4472 0)
(0.8944 0.4472 0)
(0.8944 0.4472 0)
(0.8944 0.4472 0)
(0.8944 0.4472 0)
(0.8944 0.4472 0)
(0.8944 0.4472 0)
(0.8944 0.4472 0)
(0.8944 0.4472 0)
(0.8944 0.4472 0)
(0.8944 0.4472 0)
(0.8944 0.4472 0)
(0.8944 0.4472 0)
(0.8944 0.4472 0)
(0.894399 0.4472 0)
(0.894398 0.447201 0)
(0.894398 0.447202 0)
(0.894395 0.447204 0)
(0.894393 0.447206 0)
(0.89439 0.447211 0)
(0.894385 0.447216 0)
(0.89438 0.447225 0)
(0.894377 0.447236 0)
(0.894374 0.447249 0)
(0.894377 0.447264 0)
(0.894384 0.44728 0)
(0.894397 0.447296 0)
(0.894412 0.447314 0)
(0.894424 0.447341 0)
(0.89442 0.447388 0)
(0.894385 0.447472 0)
(0.894298 0.447622 0)
(0.894143 0.44787 0)
(0.89391 0.448251 0)
(0.893597 0.448794 0)
(0.893217 0.449515 0)
(0.892796 0.450416 0)
(0.892366 0.451477 0)
(0.891966 0.452663 0)
(0.891637 0.453922 0)
(0.891414 0.455197 0)
(0.891325 0.456424 0)
(0.891391 0.457543 0)
(0.891618 0.458496 0)
(0.892001 0.459234 0)
(0.892522 0.459714 0)
(0.893147 0.459907 0)
(0.893835 0.459792 0)
(0.894531 0.459367 0)
(0.89518 0.458648 0)
(0.895729 0.457671 0)
(0.896139 0.456498 0)
(0.896389 0.455204 0)
(0.896481 0.453874 0)
(0.896434 0.452586 0)
(0.896279 0.451402 0)
(0.896055 0.450367 0)
(0.895795 0.449502 0)
(0.895528 0.448808 0)
(0.895277 0.448275 0)
(0.895055 0.447881 0)
(0.894869 0.447601 0)
(0.89472 0.447412 0)
(0.894606 0.447291 0)
(0.894523 0.447219 0)
(0.894465 0.447181 0)
(0.894428 0.447164 0)
(0.894406 0.44716 0)
(0.894394 0.447163 0)
(0.894389 0.447169 0)
(0.894388 0.447176 0)
(0.894389 0.447182 0)
(0.894391 0.447187 0)
(0.894393 0.447191 0)
(0.894395 0.447194 0)
(0.894397 0.447196 0)
(0.894398 0.447198 0)
(0.894399 0.447199 0)
(0.894399 0.447199 0)
(0.894399 0.4472 0)
(0.8944 0.4472 0)
(0.8944 0.4472 0)
(0.8944 0.4472 0)
(0.8944 0.4472 0)
(0.8944 0.4472 0)
(0.8944 0.4472 0)
(0.8944 0.4472 0)
(0.8944 0.4472 0)
(0.8944 0.4472 0)
(0.8944 0.4472 0)
(0.8944 0.4472 0)
(0.8944 0.4472 0)
(0.8944 0.4472 0)
(0.8944 0.4472 0)
(0.8944 0.4472 0)
(0.8944 0.4472 0)
(0.8944 0.4472 0)
(0.8944 0.4472 0)
(0.8944 0.4472 0)
(0.8944 0.4472 0)
(0.8944 0.4472 0)
(0.8944 0.4472 0)
(0.8944 0.4472 0)
(0.8944 0.4472 0)
(0.8944 0.4472 0)
(0.8944 0.4472 0)
(0.8944 0.4472 0)
(0.8944 0.4472 0)
(0.8944 0.4472 0)
(0.8944 0.4472 0)
(0.8944 0.4472 0)
(0.8944 0.4472 0)
(0.8944 0.4472 0)
(0.894399 0.4472 0)
(0.894399 0.447201 0)
(0.894398 0.447201 0)
(0.894397 0.447203 0)
(0.894394 0.447205 0)
(0.89439 0.447209 0)
(0.894385 0.447214 0)
(0.894378 0.447222 0)
(0.894372 0.447234 0)
(0.894366 0.447249 0)
(0.894362 0.447266 0)
(0.894363 0.447287 0)
(0.894369 0.44731 0)
(0.894379 0.447337 0)
(0.894389 0.447372 0)
(0.894385 0.447425 0)
(0.894351 0.447517 0)
(0.894263 0.447676 0)
(0.894096 0.447942 0)
(0.893828 0.44836 0)
(0.89345 0.448974 0)
(0.892968 0.449816 0)
(0.892406 0.450898 0)
(0.891804 0.452206 0)
(0.891211 0.453701 0)
(0.890676 0.455324 0)
(0.890252 0.457005 0)
(0.889979 0.458667 0)
(0.889891 0.460236 0)
(0.89001 0.461644 0)
(0.890344 0.462832 0)
(0.890886 0.463746 0)
(0.891615 0.464344 0)
(0.892493 0.464591 0)
(0.893464 0.46446 0)
(0.894461 0.463939 0)
(0.895406 0.463033 0)
(0.896221 0.461777 0)
(0.896844 0.460235 0)
(0.897238 0.458502 0)
(0.897397 0.456686 0)
(0.897346 0.454899 0)
(0.89713 0.453237 0)
(0.896804 0.451768 0)
(0.896422 0.450531 0)
(0.89603 0.449534 0)
(0.895661 0.448765 0)
(0.895336 0.448195 0)
(0.895065 0.447791 0)
(0.89485 0.447518 0)
(0.894687 0.447343 0)
(0.89457 0.447238 0)
(0.894489 0.447181 0)
(0.894437 0.447155 0)
(0.894406 0.447148 0)
(0.89439 0.447151 0)
(0.894383 0.447158 0)
(0.894382 0.447167 0)
(0.894384 0.447176 0)
(0.894387 0.447183 0)
(0.89439 0.447188 0)
(0.894393 0.447192 0)
(0.894395 0.447195 0)
(0.894397 0.447197 0)
(0.894398 0.447198 0)
(0.894399 0.447199 0)
(0.894399 0.447199 0)
(0.8944 0.4472 0)
(0.8944 0.4472 0)
(0.8944 0.4472 0)
(0.8944 0.4472 0)
(0.8944 0.4472 0)
(0.8944 0.4472 0)
(0.8944 0.4472 0)
(0.8944 0.4472 0)
(0.8944 0.4472 0)
(0.8944 0.4472 0)
(0.8944 0.4472 0)
(0.8944 0.4472 0)
(0.8944 0.4472 0)
(0.8944 0.4472 0)
(0.8944 0.4472 0)
(0.8944 0.4472 0)
(0.8944 0.4472 0)
(0.8944 0.4472 0)
(0.8944 0.4472 0)
(0.8944 0.4472 0)
(0.8944 0.4472 0)
(0.8944 0.4472 0)
(0.8944 0.4472 0)
(0.8944 0.4472 0)
(0.8944 0.4472 0)
(0.8944 0.4472 0)
(0.8944 0.4472 0)
(0.8944 0.4472 0)
(0.8944 0.4472 0)
(0.8944 0.4472 0)
(0.8944 0.4472 0)
(0.8944 0.4472 0)
(0.894399 0.4472 0)
(0.894399 0.447201 0)
(0.894398 0.447201 0)
(0.894397 0.447202 0)
(0.894395 0.447204 0)
(0.894391 0.447207 0)
(0.894386 0.447212 0)
(0.894379 0.447219 0)
(0.89437 0.44723 0)
(0.894361 0.447245 0)
(0.894352 0.447264 0)
(0.894346 0.447288 0)
(0.894344 0.447316 0)
(0.894347 0.447349 0)
(0.89435 0.447391 0)
(0.894345 0.447452 0)
(0.894313 0.447547 0)
(0.894226 0.447709 0)
(0.894052 0.44798 0)
(0.893759 0.448417 0)
(0.893321 0.44908 0)
(0.892735 0.450018 0)
(0.892019 0.451262 0)
(0.891216 0.452808 0)
(0.890383 0.454615 0)
(0.889586 0.456615 0)
(0.88889 0.458721 0)
(0.888351 0.460838 0)
(0.888017 0.462877 0)
(0.887922 0.46476 0)
(0.888091 0.466424 0)
(0.888535 0.467817 0)
(0.88925 0.468893 0)
(0.890214 0.469615 0)
(0.89139 0.469944 0)
(0.892714 0.469846 0)
(0.894104 0.469289 0)
(0.895456 0.46826 0)
(0.89666 0.466773 0)
(0.897616 0.464884 0)
(0.898256 0.462693 0)
(0.898557 0.460336 0)
(0.898544 0.457962 0)
(0.898276 0.45571 0)
(0.897833 0.453688 0)
(0.897296 0.451963 0)
(0.896736 0.450559 0)
(0.896205 0.449467 0)
(0.895737 0.448654 0)
(0.895347 0.448075 0)
(0.895038 0.447681 0)
(0.894805 0.447427 0)
(0.894638 0.447274 0)
(0.894524 0.447189 0)
(0.894451 0.447149 0)
(0.894408 0.447136 0)
(0.894385 0.447137 0)
(0.894376 0.447146 0)
(0.894375 0.447158 0)
(0.894377 0.447168 0)
(0.894382 0.447177 0)
(0.894386 0.447184 0)
(0.89439 0.44719 0)
(0.894393 0.447193 0)
(0.894395 0.447196 0)
(0.894397 0.447198 0)
(0.894398 0.447199 0)
(0.894399 0.447199 0)
(0.894399 0.4472 0)
(0.8944 0.4472 0)
(0.8944 0.4472 0)
(0.8944 0.4472 0)
(0.8944 0.4472 0)
(0.8944 0.4472 0)
(0.8944 0.4472 0)
(0.8944 0.4472 0)
(0.8944 0.4472 0)
(0.8944 0.4472 0)
(0.8944 0.4472 0)
(0.8944 0.4472 0)
(0.8944 0.4472 0)
(0.8944 0.4472 0)
(0.8944 0.4472 0)
(0.8944 0.4472 0)
(0.8944 0.4472 0)
(0.8944 0.4472 0)
(0.8944 0.4472 0)
(0.8944 0.4472 0)
(0.8944 0.4472 0)
(0.8944 0.4472 0)
(0.8944 0.4472 0)
(0.8944 0.4472 0)
(0.8944 0.4472 0)
(0.8944 0.4472 0)
(0.8944 0.4472 0)
(0.8944 0.4472 0)
(0.8944 0.4472 0)
(0.8944 0.4472 0)
(0.8944 0.4472 0)
(0.894399 0.4472 0)
(0.894399 0.4472 0)
(0.894399 0.447201 0)
(0.894398 0.447201 0)
(0.894396 0.447203 0)
(0.894393 0.447205 0)
(0.894388 0.447209 0)
(0.894381 0.447215 0)
(0.894371 0.447225 0)
(0.89436 0.447239 0)
(0.894347 0.447258 0)
(0.894334 0.447283 0)
(0.894324 0.447314 0)
(0.894316 0.447352 0)
(0.894312 0.447399 0)
(0.894302 0.447464 0)
(0.89427 0.447561 0)
(0.894187 0.447719 0)
(0.894016 0.447984 0)
(0.893709 0.448419 0)
(0.893227 0.4491 0)
(0.892546 0.450097 0)
(0.891673 0.451466 0)
(0.89065 0.453218 0)
(0.889541 0.455317 0)