/*--------------------------------*- C++ -*----------------------------------*\
  =========                 |
  \\      /  F ield         | OpenFOAM: The Open Source CFD Toolbox
   \\    /   O peration     | Website:  https://openfoam.org
    \\  /    A nd           | Version:  6
     \\/     M anipulation  |
\*---------------------------------------------------------------------------*/
FoamFile
{
    version     2.0;
    format      ascii;
    class       volScalarField;
    location    "1.02";
    object      p;
}
// * * * * * * * * * * * * * * * * * * * * * * * * * * * * * * * * * * * * * //

dimensions      [1 -1 -2 0 0 0 0];

internalField   nonuniform List<scalar> 
5835
(
2.5739
1
2.37367
1.10552
1
1
1
1.00094
1
1
1
2.12568
1
1
2.22714
1
4.88493
4.81006
1
1
5.03037
1
5.18793
2.07555
1
1
2.33594
1
1.25326
1
1.0313
1
1
1.00357
1.00514
1
1
1
1.00035
1.00044
1
1.00005
1
1.00005
1
1.00001
1
1.00001
1
1
1
1
1
1
1
1
1
1
1
1
1.18137
1
1.26511
1
1
1.00001
1
1
1.00232
1.00268
1.0004
1.00032
1
1
1
1
1.02821
1.03081
1.00003
1
1
1.00003
1
2.47651
2.60164
1
1
1
1.00103
1.11347
1
1
1
1.00019
1.00015
1
1
1
1.18846
1.00002
1
1.00025
1
1
2.04661
1
1
2.07153
1
1.00002
1
1
1.19281
1
1
1
1
1
1
1.87362
1.85332
1
1
1
1
1
1
1
1
1.00001
1.00001
1
1
1.00037
1
1
4.54207
1
4.66205
1
1
1
4.58827
4.50298
4.63032
4.65993
2.74261
2.73714
1
1
2.64796
1
1
1
2.72976
1.61177
1.12607
1
1.01954
1.62683
1
1
1
1
1.12891
1
1
1.12249
1
1
1.01605
1.00288
1.0027
1
1
1.00206
1
1.12186
1.01981
1.1187
1
1
1.00001
1.00001
1
1.00227
1
1.00001
1.00001
1
1
1
1
1.00001
1.00001
1
1
1
1
1
4.44114
4.58653
1
1
1
1
1
1.00001
1
1
1.00033
1
1.00034
1
1.00035
1
1
1
1
1
1
1
1
1.00033
1
1.00215
1.00033
4.66197
1
1
1.00032
1
1
1
1
1
2.5863
1
2.6344
1.00005
1
1.00005
1.00005
1.002
1
1.00004
1
1.00005
1.00005
1
1.10275
1
1
1
1
1
1
1.5764
1
1
1
2.59853
2.68082
1
2.74141
1
1
1
2.47112
2.60139
1
1
1
1
1
1.00305
1
1
1
1
1
1
2.52768
1
1
1
1
1
1
1
4.86762
2.53328
1
2.46153
1
1
1
1
1
4.62134
1
4.63893
4.57847
4.57032
2.55996
4.66037
1
4.68914
1
2.71104
4.94589
2.74731
4.56986
2.67023
1
1
1.00166
2.76558
1.00003
1
1
1.01712
1
2.61772
1
2.68556
1.00212
1.00029
4.63745
1.00033
1
1.4795
1
1.01329
1
1.01721
1.00003
1
1.00004
1
1
4.49852
1.43561
4.70331
1
1.0017
1
1.00028
1
1.00027
1.5698
1
1
1.01083
1.01621
1
1.08053
1
1.58254
1.00034
1.12451
1
1.00003
1.00171
1.59485
1
1
1
1
1.00028
1.01402
1
1
1
1.11808
1.00112
1
1
1
1
1
1
1
1
1
1
1
1
1
1
1
1
1
1
1
1
1
1
1
1
1
1
1
1
1.00016
1.00209
1
1.00139
1.13286
1.00002
1.00013
1
1
1
1
1
1.15114
1
1
1
1
1.00003
1
1.08615
1
1
1
1
1.13101
1
1
1.48437
1.00158
1
1.10083
1
1
1.00126
1
1.46896
1.51682
1
1
1.53069
1.01138
1
1
1.0013
1.00819
1
1.48777
1
1.08367
1
1.00942
1
1
1.00113
1.00022
1.0073
1.00057
1
1.53185
1
1.0007
1.00018
1
1
1.50769
1
1
1.06527
1
1.46021
1
1.06578
1.00019
1.3539
1
1.00003
1
1.05285
1
1.00015
1
1.00015
1
1.00007
1.00003
1
1
1.00002
1
1
1
1.00001
1.00007
1
1
1
1.25975
1.00001
1
1
1.908
1
1
1
1.94228
1
1
1.00001
1
1.22489
1
1
4.50968
1
1
4.5612
4.44955
4.39668
1
1
1
1
2.60501
2.76195
1
1
1
2.67981
4.35208
1
4.52119
1
1
1
2.53874
1
1.64805
1
4.46598
1
2.63368
1.12553
1.02134
1.00001
1.00001
1.02082
1
1.1228
1.00001
1.11817
1
1
1
1
1
1
1
1.00314
4.5562
1
1.12095
1
1
1.00323
1
1.00209
1
1
1.00231
1
1
1
4.37798
1
1
1
1.00278
1
1
1
1.11096
1
1.00035
1.00035
1
1.00005
1.00036
1
1.00035
1.00005
1
1.00031
1.00004
1.00004
1
1
1.0165
1
1
1
1.57105
1
1
1.00001
1
1.00005
1
2.59576
1.13251
2.58166
1
2.66235
1.00032
1
1
4.46884
1
2.54292
1
1
2.52196
1
4.56346
1
2.54124
2.7792
1
1
4.61855
4.50043
2.69188
1
1
1
1
2.72056
4.57951
1
2.57571
1
1
1
1
4.62779
4.52731
1
2.79185
1
4.56423
1
1
1
4.49949
1.14971
4.53424
1
1.00029
1
1.44529
1.43618
1
1
1.00172
1
1.09349
1.5677
1.01004
1
1.60887
1
1
1
1
1
1
1
1
1
1
1
1.00107
1
1
1
1
1
1.11144
1.01343
1
1
1.00003
1.00004
1
1
1
1
1
1.00149
1
1
1.11014
1.13102
1.00195
1
1
1.01214
1.00004
1
1.00026
1.00027
1
1
1
1
1.01379
1
1
1
1
1
1.00167
1
1.50103
1
1
1
1.12298
1.0928
1.5431
1
1.00164
1
1.4763
1.502
1.09415
1
1
1.53877
1
1
1.5105
1
1
1
1.0088
1.00857
1
1.47146
1
1
1.00723
1.0002
1
1.00068
1.0007
1
1.40316
1.00021
1.07125
1
1
1.00002
1
1
1.06243
1
1.00001
1
1.03911
1
1.00015
1.00015
1
1
1
1
1.00001
1.00001
1
1
1.00001
1.00001
1
1
1
1
1.00055
1
1
1
1
1.00056
1.00033
1.00288
1.0015
1
1
1
1
1
1.39263
1.00256
1.00171
1.00248
1.00165
1
1
1.02239
1.01248
1
1
1
1
1
1.01134
1
1
1.02084
1.01133
1
1
1
1
2.56681
2.79941
2.82569
2.48499
1
1
1
1
1
1
1
1
1
1
1
1
1
1
1
1
1
1
1
1
1
1
1.00019
1
1.00009
1.49025
1.00015
1
1.68314
1.00009
1
1
1.73713
1
1
1
1.002
1.00116
1.39039
1
1
1.00192
1.00099
1
1
1.61466
1
1.00047
1
1
1
1.47696
1.45906
1
1
1
1
1.1695
1
2.91286
1
2.81259
1
1.00165
1
1
1
1
1
1
1
1.44133
1.60554
1
1
1.55504
1
1.49485
1
1.47518
1
1
4.4446
4.52528
1
1
1
4.4229
4.53508
4.52747
1
4.45357
1
1
1
4.82958
4.50308
1
4.46194
4.44188
1
1
1
4.61363
1
1
4.4833
1
4.56162
1
1
1
4.68743
4.46336
4.46553
1
1
1
4.45106
4.73725
4.52698
4.32222
4.66571
1
1
4.4476
1
1
4.48889
4.48452
4.44251
1
4.51209
1
1.23477
1
1
1
1
1.00001
1
1
1
1
1.43668
1.55369
1
1
1.5161
1
1
4.17347
1
1
4.1683
1
1.94624
1
1
1
1.00009
1
1.00099
1.0066
1.00001
1
1.02261
1.0017
1.07206
1
1
1.00021
1
1.1642
1
1
1
1
1
1.00001
1
1.00003
1.00004
1.00034
1
1.46617
1.00309
1
1
1
2.61957
4.2684
1
1
1.94151
4.1825
1
2.71427
1.94909
1
1
1
1.00998
1.0011
1
1.00013
1.00002
1
1
1
1
1
1
1.03669
1
1.91001
1
1
1
1
1
1.94832
1.99589
1
1.01258
1
1
1.00873
1.01476
1
1
1.00152
1.00021
1
1.01251
1.02584
1
1.00007
1
1.00148
1.00032
1
1
1.01329
1.00339
1.02428
1
1.00156
1
1.00039
1
1.01695
1
1.00369
1.03227
1
1
1.0196
1
1.00453
1.03129
1
1.00025
1.00188
1
1
1
1
1
1.00029
1
1
1
1.00396
1.02598
1.0026
1
1
1.00062
1
1.04737
1
1.01798
1.00035
1.00314
1
1.00038
1
1.00043
1.14692
1
1
1
1.13478
1
1.00002
1
1
1
1.00326
1.00082
1
1.25758
1.0259
1.00002
1.00003
1
1
1
1.00003
1.00007
1
1
1.11461
1.00003
1
1.00005
1
1.00649
1
1
1.0046
1
1
1.00361
1.02953
1.04183
1
1.00006
1
1.15785
1
1.28503
1
1
1.00499
1
1.00004
1.00346
1
1
1.00082
1
1.00011
1
1.26809
1
1.00362
1.00571
1
1
1.0053
1
1.17239
1.02762
1.00094
1
1
1.00047
1
1
1.14891
1
1.03767
1.00005
1
1.00067
1.00052
1
1.00741
1
1.00006
1
1.30257
1
1.20047
1
1.00076
1
1.00054
1.00053
1
1
1
1
1.00079
1
1
1.19697
1.21639
1
1.00055
1.31403
1.06843
1
1
1.00682
1
1
1.05928
1
1.00102
1.00448
1
1
1
1.3447
1
1.06271
1
1.00495
1.00102
1
1
1.00048
1
1.25743
1
1.00092
1.00009
1
1
1.00011
1
1.00597
1
1.00041
1
1.04187
1.23589
1
1
1
1
1
1.00013
1
1.00068
1.0503
1.3607
1.00543
1
1
1.00005
1
1
1.00013
1
1.31294
1
1.00075
1
1.00012
1.00007
1
1.00006
1.63351
1.02529
1
1
1.00562
1.68748
1.59242
1
1.78939
1
1.80443
1
1.78268
1.25064
1.70889
1
1
1.00007
1
1.00006
1
1
1.00671
1
1.0021
1.85666
1.239
1.19182
1
1
1.16325
2.92336
3.90037
1
1
1
1
1
1
1
1
1
2.24385
4.8749
1
1
1
3.33038
3.16875
1
1
4.18603
1.01895
1
1
2.05926
1
1
2.90884
3.25587
4.23757
1
4.815
3.99035
1
4.19905
1
3.73916
4.10611
3.13961
3.80225
3.34514
1
2.32056
2.1217
3.31914
1.0009
3.38538
3.20178
4.07019
1
1
1
1
1
3.9425
3.39864
1
1
1
2.02058
3.05451
1
1
2.24839
1.83852
1
3.31739
1
1
1
3.89259
1.93088
1.02534
1
1.94611
1
1.898
1
1.7786
1
1
1.05098
1.69631
1
1
3.22596
1
1.11421
1
1
1
1.00051
1.00501
1
1
1.00199
4.10201
1
1
1.00064
3.90453
1
1
1
1.01375
1
1
2.20843
1
1
1.00005
1
1.00024
1.00147
1
1.0351
1.87303
3.24646
1
2.19564
3.33323
1.00004
1
1
1.8836
3.88411
4.08217
1
1.00018
1
1
1
1.00001
3.28579
1
1
1.00001
1
1.00001
1.00001
1
1.00003
3.86893
1
1
1
1.75231
1
1.00016
3.2194
1.19719
2.21373
1
1
1.00003
3.27942
4.0476
1.00001
1
1
1
1
1.87694
1.00001
1
1
1.76768
1
1
2.15252
1
1
1
1
1
1
1
1
1
1
1
1
1
1
1
1
1
1
1
1
1
1
1
1
1
1
1
1
1
1
1
1
1
1
1.00001
1
1
1.00001
1
1
1
1
1
1
1
1
1
1
1
1
1
1
1
1
1
4.14901
1
1.0001
1.82456
1
1
2.04437
1
1
1
1.1929
1
1
2.13552
1.85031
1
2.21319
1
1
1.00716
1
1.00051
1
1.27073
1.00063
1
1.00476
1
1
1
1
1.00107
1
1.00394
1.00001
1.00123
1
1
1.00009
1.00878
1
1
1
1.00001
1
1.00057
1.00066
1
1
1
2.28483
1
1
1
1
1.00385
1.00002
1
1
4.1354
1
1.00011
1
1.00568
1
1.00013
1
3.31737
1
1
1.00001
1
1
1.21425
1.03593
1
1.23687
1
1
1.00008
4.79843
1
1
3.94817
1.00009
1.34633
1
1.0007
1
1
1.00017
1.04931
1
1.00548
1
1
1.00018
1
1
1
1.00358
1.03758
1
1
1.06398
1
1.02805
1
1
1.00008
1
1
1.06732
1.00326
1
1.00011
1
1.00018
1.00002
1
1
1.03153
1.00002
1
1
1.00002
1.00001
1
1
1
1.00001
1
1
1.00008
1
1
1.00001
1.22231
1
1.00001
1
1
1.18324
1
1.2114
1
1.30183
1
1
1.00001
1
1
1
1.22202
1
1
1
1
1
1
1
1
1
1.21907
1.3082
1
1
1
1
1
1
1
1
1
2.30263
1
4.09811
1
1
1
1.20941
1
1.37471
1.00001
1
1
1
3.29212
1
1
1
1.2233
1
1
1
1
1
1
1
1
1
1
1.00002
1
5.04595
1
4.02568
1
1
1
1
1
1
1.00001
1
1
1
1
1.00002
1.00001
1
1.00002
1
1
1.00002
1.00001
1
1.00001
1
1.00002
1.00002
1.00001
1
1
2.11994
1
4.7932
1
3.94513
1
1
1
2.0232
1
4.18984
1
3.30507
1
2.21904
3.29491
2.34758
1.9302
1
1
3.91422
1
1
4.25352
1
1
4.12714
1
3.33106
4.18545
1
1
1
3.87114
1
3.34155
1
4.80172
1
3.9552
1
1.14373
1
1
1
1
1.00001
1
1.0003
1.03487
1
1
1
1
1
2.0549
2.01466
1
1
4.45989
4.8952
1
1
4.65565
4.81987
1
1
5.00268
4.72565
1
4.95532
5.11013
1
1
1
5.14111
4.97931
1
5.47795
1
5.07225
1
1
4.87753
5.40023
5.0019
1
1
5.22436
4.91244
1
4.9699
1
5.00796
1
1
4.96489
4.8365
1
1
5.21872
1
1
4.93999
4.99277
1
1
5.01561
5.01643
1
1
5.20385
5.18168
1
5.03681
5.01635
1
1
5.16385
1
5.0539
5.07619
1
1
5.31713
1
5.03141
1
5.1122
5.03611
1
1
5.05542
1.31904
1
1
1.30392
1
1
1
1
1.05053
1
1
2.04961
2.20497
1
1
1.00041
1
4.65623
1
1
4.65034
1
4.67203
4.65881
1
4.42006
1
4.61481
1
4.85054
1
1
1
4.68218
5.03292
4.73791
4.97394
1
1
1
1
4.72429
1
1
1
1
1
1
4.65158
4.65476
4.62289
4.76669
4.57461
4.45305
1
1
4.95949
1
4.64738
4.63248
4.88128
1
1
4.714
1
4.65861
1
4.68685
4.68844
1
1.02964
1
1.00027
1
1
1
1
1.90192
1.83063
1
1
1.00048
1
1.03401
1
1
1
2.08463
2.128
4.42038
1
1
1
4.78176
1
4.49693
4.57636
1
1.00009
1
1.00113
1
1.00925
1
1.00437
1.00002
1
1.00048
1
1.00003
1
1.07145
1
1.05411
1
1
1
1
1
1
1
1
1.00001
1.00001
1.00008
1
1.0007
1.00735
1
1.09465
1
1
4.01465
1.6217
2.98848
2.99255
1
1
1.68947
3.8145
1.73591
1
1
1.11143
1
1.61342
1
1.01329
1
1.00103
1.00016
1.00002
1
1
1
1
1
1
1
1
1.00547
1
1.01073
1.00068
1
1.00007
1
1
1.00093
1
1.0133
1.00007
1
1
1.01186
1
1.00175
1.00016
1
1.00012
1
1
1.01354
1
1.00162
1.01219
1.00156
1.00027
1
1
1
1.01691
1
1
1.01569
1.00223
1.00174
1
1
1.00021
1.00016
1
1.02588
1
1.00234
1.02198
1
1.00194
1
1
1.02304
1
1.00035
1.00237
1.02148
1
1
1
1
1.00202
1.00032
1
1.00028
1
1.03199
1.00307
1
1.02765
1
1.00265
1.00044
1
1
1
1.00256
1
1.02049
1
1.00309
1
1.00043
1
1.00035
1
1.02661
1
1.0211
1.02985
1.00292
1
1.02334
1.00276
1
1
1.00055
1.00385
1
1.00046
1
1.00067
1.00051
1.05226
1
1
1.12293
1.00002
1.00002
1
1
1
1
1.00003
1
1.05727
1
1.00001
1.00004
1
1.1827
1.03022
1
1.00003
1
1.17418
1.02436
1
1.16235
1
1.0217
1.00003
1
1.12446
1
1.00005
1
1.00003
1
1
1.00417
1
1
1.00392
1.00005
1
1.00004
1
1
1.04613
1
1.00005
1.00005
1
1
1.00398
1
1.00418
1
1
1.1516
1.03499
1.00006
1
1.21104
1.00049
1
1.00005
1
1
1.18965
1.00416
1
1.0303
1
1.00418
1
1.00051
1
1.2199
1
1.00041
1.03725
1
1.00535
1
1.00423
1
1
1.17039
1
1.00395
1.00498
1
1
1.00055
1.17923
1.00041
1
1.03004
1
1
1.00385
1.00371
1
1.00069
1.02925
1.00006
1
1
1.00049
1.03169
1
1
1.00006
1.03548
1
1.00344
1
1.00076
1.00059
1.00008
1.00412
1
1
1.00007
1.00044
1
1.21455
1.00053
1.00476
1
1
1.21663
1
1.17865
1
1.00071
1
1.00062
1
1.18387
1.00059
1
1.0006
1
1.25063
1
1
1.23918
1.19659
1
1.26052
1
1.21579
1
1
1.25248
1.04562
1
1
1.25781
1.20801
1
1.0378
1
1.00625
1
1.00059
1.00543
1
1
1.21973
1.04298
1
1
1.00049
1
1
1.00497
1.00483
1
1.00062
1
1
1.0005
1
1
1.00007
1.03836
1
1.0302
1.0058
1.32936
1
1.00075
1
1
1.03437
1.32256
1
1.00444
1
1
1
1.28431
1
1
1
1.00056
1.29527
1
1
1
1.00065
1.00609
1.00008
1
1
1.00007
1.00008
1
1.00054
1
1.03673
1
1
1.00008
1
1.0286
1
1.03106
1
1
1.00009
1.00345
1.00006
1
1.0046
1.00069
1
1.00007
1
1
1.00274
1
1.00052
1
1
1.02683
1
1.00006
1
1
1.00006
1.2548
1
1
1.03488
1.00006
1.02482
1
1
1.00258
1
1
1.00067
1
1
1.00215
1.21595
1
1
1.00007
1.00007
1
1.00006
1
1
1.00608
1
1.0007
1
1
1
1.18466
1
1
1.00007
1.00007
1.00503
1
1.01883
1.00086
1
1.17666
1
1
1.06018
1
1.00005
1.00004
1
1
1.01673
1.00453
1
1
1.00008
1.00074
1
1.15176
1
1
1.00024
1
1.00204
1.10306
1
1.00004
1
1
1.0054
1
1.00004
1.00893
1
3.66498
1
1
1
1.64929
3.11293
3.34315
3.39343
1
1
3.14825
3.21331
1
1
2.12465
1
3.99495
3.44322
1
1
1
1
1
3.43474
1
1
1
2.06377
3.47207
1
1
3.38829
1
1
3.97336
3.33623
3.9165
1
3.25869
3.54728
1.93261
3.79838
3.50672
3.58334
3.31035
2.10046
1
3.51929
2.27506
3.71624
1
1
1.89826
4.02598
3.98644
1
1
1
3.51369
1.72898
1
1.00007
1
1
1
1
3.4086
4.011
1
1
2.04882
2.22682
3.11622
3.23545
1.00024
3.28264
3.75996
1
1
1
2.13959
1
1
1
1
2.12224
1
1.03687
1.10433
1
1
1.00086
1
1.01109
1.68259
1
1.88847
1
1.96018
2.08835
1
1
1.00016
1
1.00078
3.35619
1
3.58616
1
1.00004
1
1.98081
1
1
3.67504
4.09498
1
1
1
1.00003
1.00015
2.0443
1.98609
1.00001
1
1
2.10124
2.07332
1
1.00002
1
1
1
1
1
1
1
1
1
1
1
1
1
1
1.00001
1
1
1
1
1
1
1
1
1
1
1
1
1
1
1
1.00001
1
1
1
1
1
1
1
1
1
1
1
1
1
1
1.00001
1.00001
1
1.00001
1
1
1
1
1
1
1
1
1
1
1
1
1
1
1
1
1
1
1
1
1
1
1
1
1
1
1
1
1
1
1
1
1
3.34401
1
3.38123
1
1.00001
1
1.00001
1
1.00007
3.84292
1
1
3.88231
1.00001
1.00001
1
1
1
1.00009
1
3.63303
1
3.35235
1.00001
1.00001
1
1
1
1
1
3.17372
4.07637
1
1
3.45449
3.58535
1
1.00008
1
1
1
3.64456
4.06217
1.90034
1.88484
1.35926
1
4.09037
3.87519
1
1
1.75076
1.94761
1
1.75014
1.77107
1
1
1.70237
1
1.59402
1
1.95214
1.9246
1.27252
1
2.03126
2.23586
1
1
1
1.23205
1
1
2.00629
2.17888
1.00001
1.00001
1.00008
1
1
2.2236
2.05526
1
1
1
1
1.00001
1.00001
1
1
1
1
1
1
1.00012
1
1
1
1.22972
1
1
1.00051
1.24602
1.95234
2.04291
1.00084
1
1
1.21214
1.00001
1.00001
1
1.93033
1
1
1
1.94106
1
1
1.95288
1.94947
1.89718
1.95337
1
1
1.21687
1
1.00063
1
1
1
1
1
1.00501
1
1
1
1
1
1
1
1
1
1
1.00078
1
1
1.00435
1.00001
1.00001
1
1
1
1.00368
1.00064
1.00075
1
1.00001
1.00001
1
1
1.00001
1.00001
1
1
1.00064
1
1
1.00453
1
1.00389
1
2.21451
1
2.12625
1
1
1.00569
1
3.81867
4.02745
1
1
1
3.45355
3.56553
1
1
1.00461
1
1.00078
1
1
1.00113
1
1
1.00009
1
1
1
1
1.00009
1.00011
1.00083
1
1
1
1.001
1
1.00013
1
1
1
1.00679
1
1
1.00812
1
1
1.00009
1
1.00011
1
1.00465
1.00555
1.00009
1
1.04116
1
1
1
1.00011
1
1.04051
1.00422
1.04487
1
1.05546
1
1
1
1.03604
1.00017
1.04212
1
1.00008
1
1
1.04046
1
1
1.00017
1.0001
1.00013
1.03473
1
1
1.00001
1
1
1
1.00001
1
1.00001
1.00001
1.00001
1
1
1
1
1
1
1
1
1
1
1
1
1
1.00001
1.00001
1
1
1
1
1
1
1
1
1.00001
1.00001
1
1
1
1
1
1
1.00001
1
1
1.00001
1
1
1
1
1.00001
1.00001
1
1
1
1
1
1
1
1.24943
1
1.00001
1
1
1
2.33481
1
2.13118
1
3.40796
1
1
4.04472
3.94534
1
1.28527
1
1
1
1
1
1
1
1
1
1
1.24403
1
1
1
1
1
1
1
1
1
1
1
1
1
1
1.23219
1
1
1
1
1
1
1
1
1.00001
1
1
1.30201
1
1
1
1
1
1.27899
1
1.27637
1.28421
1
1.19407
1
1.00001
1.00001
1
1
1.24968
1
1.25947
1.00001
1.00001
1
1
1.22489
1.00001
1.00001
1.00001
1.00001
1
1
1
1
1.24436
1.00001
1.00002
1
1
1.20946
1.00001
1.00001
1
1
1
1
1.00002
1.00002
1
1
1
1
1
1
1
1
4.08613
4.03107
3.5841
1
3.58611
1
1
2.2017
2.25073
1
1
2.48517
1
2.13199
2.07248
1
1
4.1299
3.63098
3.41598
1
1
3.94663
4.01505
1
3.65951
1
4.13555
1
1
4.02194
1
3.66444
1
3.54163
1
1
1
1.03561
1.00031
1
1
1
1
1.96079
1.96583
1
1.00056
1
1.03319
1
1
1
2.19026
2.13983
1.03745
1
1.00034
1
1
1
1
1.97651
1.9441
1
1
1.00027
1
1.02548
1
1
1
1
1
2.17821
2.0241
1
1.038
1
1.00049
1
1
1
1
2.0527
2.13566
1
1
1
1.00021
1.00031
1
1
1
1
1.03369
1.02356
1
1
1
1
1
1
1.96953
2.01024
1.87015
1.88262
1
1
4.95085
1
4.96609
1
1
1
1
1
1
1
2.86255
1.00147
2.75985
1.15956
1.07213
2.21391
1.00064
1
1
1
1
1
1
1
1
2.28478
4.03026
4.15757
4.61129
4.99421
4.31181
4.77275
4.11274
3.97902
4.99539
4.63967
4.77723
4.31376
1
1
1
1
1
1
1
1
1
1
1
1
1
1
1
1
2.60787
1
1
1
1
1
1
1.02927
1.01626
1.01601
1.00971
1.00581
1
1
1
1
1
1
1
1
1
1
1
1.00514
1.01077
1
1
1
1
1
1.01337
1.02709
1.00883
1.01505
1.00768
1.01097
1
1
1
1
1
1
1.28282
1.39371
1.21409
1
1
1
1
1
1
1
1
1
1
1
1
1.07655
1.15981
1.05003
1.0864
1.02719
1
1
1
1
1
1.00208
1.00376
1.00107
1.00194
1.00079
1.00455
1.00254
1
1
1
1
1
1
1
1
1
1
1
1
1
1
1
1
1.0039
1.00355
1.00276
1
1
1
1
1
1
1
1
1.08358
1.16891
1.04552
1.08321
1.0488
1.07036
1
1
1
1
1.00001
1
1
1
1
1
1.00001
1.00001
1
1.00001
1.00001
1
1
1
1
1
1
1
1
1
1
1
1
1.00218
1.0039
1.00119
1.00216
1.00099
1.00139
1
1
1
1
1
1
1
1
1
1
1
1
2.59436
2.31711
3.41251
3.07268
3.49169
3.40185
1
1
1
1
1
1
2.74358
3.39646
2.10946
2.636
2.40199
3.15604
1
1
1
1
1
1.00001
1.00001
1
1
1.00001
1
1
1
1
1
1
1
1
1
1
1
1
1
1
1
1
1
1
1
1
1
1
1
1
1
1
1
1
1
1
1
1
1
1.00001
1
1
1
1
1.00034
1.00022
1.00077
1.00059
1.00081
1.00074
1
1
1
1
1
1
1
1
1
1
1
1
1
1
1
1
4.381
3.73897
4.09395
4.08318
1.00012
1.00018
1.00028
1.00038
1
1
1
1
1
1.00004
1.00004
1.00009
1.00008
1.00011
1.00001
1.00001
1.00001
1.00001
1.00001
1
1
1
1
1
1
1
1
1
1
1
1
1
1
1
1
1
1
1
1
1
1
1
1.00005
1.00004
1.00011
1.00009
1.00013
1.00011
1
1
1
1
1
1
1.01243
1.00855
1.00701
1.00509
1
1
1
1
1
1
1
1
1
1
1
1
1
1
1
1
1
1
1.00003
1.00008
1.00001
1.00003
1.00001
1.00001
1.6849
1.26356
1.39247
1.0002
1.00043
1.00011
1.00021
1.00008
1
1
1
1
1
1
1
1
1.04143
1.02129
1.01354
1.00615
1.03062
1.01161
1.03646
1.01404
1
1
1
1
1
1
1.08926
1.18082
1.06884
1.11151
1.04223
1.00003
1.00001
1.00008
1.00004
1.00006
1.00002
1
1
1
1
1
1
1.15794
1.06647
1.07267
1.03877
1.21005
1.10688
1.16763
1.07412
1.00193
1.00131
1.00405
1.00319
1.0036
1.00365
1
1
1.00092
1.00185
1.00261
1.00539
1.00176
1.00428
1.00165
1.00413
1
1
1
1
1
1
1
1
1.03536
1.01689
1.0476
1.0232
1.01528
1.00888
1.03381
1.01388
1
1
1
1
1
1
1.00132
1.00344
1.0007
1.00163
1.0022
1.0045
1.00149
1.00373
2.71077
2.17955
2.94091
2.33266
2.87503
2.34365
2.77597
2.23704
1
1
1
1
1
1
1
1
1
1
1
1
1
1.00001
1
1
1
1
1
1.09897
1.19201
1.05966
1.10081
1.05745
1.08199
1
1
1
1
1
1
1
1
1
1
1
1
1
1
1
1
1
1
1
1
2.53382
2.26622
3.34948
2.99282
3.42726
3.35545
3.83707
3.88666
4.99446
4.62427
4.65233
4.27349
3.93301
3.94908
4.98337
4.62084
4.68115
4.29581
4.61157
3.60731
4.30194
3.91694
4.86126
4.01568
1
1
1
1
1
1
3.28095
2.55512
2.31662
1.99457
2.90861
2.20512
1
1
1
1
1
1
1
1
1
1
1
1
1
1
1
1
1
1
1
1
1
1
1
3.39352
2.72538
2.47284
2.11797
3.03055
2.35486
3.78032
4.62166
3.71558
4.41476
1
1
1
1
1
1
2.48081
3.08561
2.05025
2.33452
2.02251
2.25363
1
1
1
1
1
1
4.40256
4.10845
5.24797
4.99654
4.9339
4.5159
2.34743
2.93782
2.09441
2.45435
1.84541
1
1
1
1
1
1
4.07461
3.94602
4.9485
4.55812
4.64883
4.23586
3.85692
4.96554
4.3584
5.15352
4.28459
4.98086
2.24091
2.8004
1.80114
2.07764
1.68471
1.83631
1.0129
1.00863
1.02899
1.02244
1.03378
1.03042
1
1
1
1
1
1
1
1
1
1
1
1
1
4.59406
4.31934
3.81279
4.8978
4.31221
1
1
1.03129
1.01953
1.01782
3.87223
3.89941
5.00225
4.62994
4.67486
4.2846
1
1
1
1
1
1
1
1
3.98245
3.90563
4.88262
4.57495
4.65252
4.26628
1.00068
1.00145
1.00179
1.00387
1.00117
1.0029
1
1
1
1
1
1.0745
1.14418
1.01198
1.01016
1.02544
1.02223
1.03388
1.0309
1
1
1
1
1
1
1
1
1
1
1
1
1
1
1
1
1
1
1
1
1
1
1
1
1
1
1
1
1
1
1
1.01446
1.00995
1.03155
1.0252
1.03115
1.02939
1.00669
1.01345
1.00252
1.00535
1.00199
1.00226
1
1
1
1
1
1
1
1
1
1
1
1
1
1
1
1
1.00002
1.00005
1.00001
1.00002
1.00001
1.00001
1.00019
1.00009
1.0005
1.00028
1.0004
1.00017
1.10079
1.07244
1.48996
1.00165
1.00135
1.00348
1.00295
1.00449
1
1
1
1
1
1
1.00002
1.00004
1.00005
1.00009
1.00003
1.00007
1
1
1
1
1.01287
1.00462
1.01474
1.02776
1
1
1
1
1
1
1
1.00001
1
1
1
1
1
1
1
1
1
1
1.00001
1.00001
1.00001
1.00001
1
1
1
1.00001
1
1
1
1
1
1
1
1
1
1.00001
1.00001
1.00001
1.00001
1
1
1
1
1
1
1
1
1.00001
1.00001
1.00001
1.00001
1
1
1
1
1.00687
1.01487
1.01197
1.02891
1
1
1
1
1
1
1
1
1
1
1
1
1.38442
1.63861
1
1
1
1
1.00006
1.00006
1.00004
1
1
1
1
1
1
1
1
1
1
1
1
1
1
1
1
1.00232
1.00179
1.0046
1.00371
1.00475
1.00415
1.00001
1.00001
1.00002
1.00003
1.00001
1.00002
1.00001
1.00002
1.00004
1.00006
1.00002
1.00005
1.00001
1.00002
1.00003
1.00005
1.00002
1.00004
1.00022
1.00011
1.00045
1.00021
1
1
1
1
1
1
1
1
1.16828
1.09791
1
1
1
1
1
1
1.00002
1.00001
1.00005
1.00002
1.00021
1.00024
1.00003
1.00002
1.00007
1.00005
1.00005
1.00004
1
1
1
1
1
1
1.00023
1.0001
1.00064
1.00035
1.00047
1.0002
1.17844
1.1166
1.19494
1.11091
1.09556
1.05391
1.00952
1.02031
1.00368
1.00844
1.00319
1.00453
1.08516
1.06579
1
1
1
1
1
1
1.00003
1.00001
1.00006
1.00002
1
1
1
1
1
1
1
1.41257
1.70892
1.22455
1.33675
1.20912
1.28809
1
1
1
1
1
1
1.58752
1.7982
1.45528
1.61564
1.4619
1.60994
1.60344
1.79725
1
1
1
1
1
1.0177
1.00578
1.00786
1.00333
1.02436
1.01196
1.01916
1.00756
1.13872
1.0696
1.05679
1.02994
1.03846
1.02464
1
1
1
1
1
1
1
1
1
1
1
1.39781
1.70301
1.21524
1.3473
1.20233
1.2684
1
1
1
1
1
1
1
1
1
1
1
1.00251
1.0013
1.00092
1.00047
1.00183
1.00082
1
1
1
1
1
1.00338
1.00857
1.01239
1.02395
1.00698
1.01891
1
1
1
1
1
1
1.00426
1.00859
1.00171
1.00361
1.00157
1.00163
1
1
1
1
1
1
1.00105
1.00197
1.00066
1.00149
1
1
1
1
1
1
1
1
1
1
1
1
1.00068
1.00147
1.00037
1.00061
1.00033
1.00051
1
1
1
1
1.00001
1.00002
1.00002
1.00005
1
1
1
1
1
1
1
1
1
1
1.17164
1.09551
1.18448
1.09135
1
1
1
1
1.12984
1.07578
1.067
1.03956
1.04455
1.02516
1
1
1
1
1
1
1.00003
1.00005
1.00001
1.00002
1.00002
1.00004
1
1
1.32675
1.62823
1.23317
1.38032
1.17925
1
1
1
1
1
1.32778
1.59877
1.20029
1.33667
1.13443
1
1
1
1
1
1
1
1
1
1
1
1
1
1
1
1
1.06784
1.05141
1.13927
1.11818
1.1452
1
1
1
1
1
1
1.05839
1.03293
1.11558
1.08178
1.093
1.09176
1.32606
1.58068
1.17483
1.30309
1.15762
1.24567
1.00006
1.00017
1.00005
1.00015
1
1
1
1
1.00019
1.00013
1
1
1
1
1
1
1
1
1
1
1
1.00002
1.00001
1.00005
1.00003
1.00004
1.00002
1
1
1
1
1
1
1.0002
1.00017
1
1
1
1
1
1
1.00002
1.00001
1.00004
1.00003
1.00005
1.00005
1.00001
1.00002
1
1.00001
1
1
1.08357
1.03863
1.04384
1.03282
1
1
1
1
1
1
1
1
1.00048
1.00035
1.00095
1.00046
1
1
1
1
1
1
1
1
1
1
1
1
1
1
1
1
1
1
2.12527
1.99272
2.33765
2.08985
2.32841
2.01593
2.07976
1.9178
1
1
1
1
1
1
1
1
1
1
1
1
1
1
1
1
1
1
1.00014
4.36414
4.58854
4.73536
4.99863
1
1
1
1
5.25991
4.97412
4.88439
4.56849
1
1
1
1
1.0173
1.03388
1.01004
1.02149
1.00519
1
1
1
1
1
1.44557
1.77242
1.28235
1.38937
1
1
1
1
1
1
1
1
1
1
1
1
1
1
1
1
1
1
1
1
1.0313
1.0389
1.23956
1.2731
1
1
1
1
1
1
1
1
1
1
1
1
1
1
1
1
1
1
1
1
1
1.00059
1.00037
1.00047
1.00035
1.0004
1
1
1
1
1
1
1
1.01798
1.02113
1.02397
1.02235
3.31897
3.83013
3.34315
4.1664
1.65937
1.76851
1.91932
2.05933
1
1
1
1
1
4.14758
3.83098
1
1
1
1
1
1
1
1
1
1.00001
1
1.00231
1.0017
1.00119
1.00076
1.91806
1.93283
1.94971
1
1
1
1
1.00001
1.00001
1.00001
1.00001
3.17969
3.35564
3.34886
1
1
1
1
1
1
1
1
1
1
1
1.05048
1.04507
1
1
1
1
1
1
2.10746
2.11783
2.12999
2.09706
1.00063
1
1
1
1.00022
1.00047
1
1
1
1
2.37776
2.48305
3.06267
3.33922
3.34784
3.34682
1.30399
1.49361
1.51686
1.89134
1
1
1
1
1
1
1
1.00001
1
1
1
1
1
1
1
1
1
1
1.01211
1.00655
1.02602
1.01238
1.00022
1.00039
1.00014
1.00022
1.00012
1.00016
1.97303
1.82869
1.556
1.44867
2.14777
2.76135
1.97166
2.32014
1.96342
2.26832
1
1
1
1
1
1
1
1
1
1
1.00004
1.00003
1.00008
1.00007
1.00007
1.00006
1
1
1
1
1.01873
1.01446
1.03821
1.0325
1.03783
1.03388
1
1
1
1
1
1
1
1
1.00002
1.00004
1.00006
1.00007
1.00007
1.00008
1
1
1
1
1
1
1
1
1
1
1
1
1
1
1
1.3589
1.66141
1.2431
1.39112
1.24046
1.32365
1.07761
1.05591
1.15427
1.13055
1.15534
1.14214
1
1
1
1
1
1
1
1
1
1
1
1
1
1
1
2.20328
2.38475
2.24701
2.44557
1.4396
1.84816
1.31633
1.47825
1.6052
2.02612
1.46775
1.89339
1.0019
1.00127
1.00095
1.00084
1
1
1
1
1.00001
1
1
1
1.00001
1
1
1
1
1
1
1
1
1
1
1
1
1.00001
1
1.00001
1
1
1
1
1
1
1
1
1.02794
1.04156
1.0354
1.05823
1
1
1
1
1.20265
1.15687
1.20181
1.17277
1.17986
1.32715
1.27836
1.27665
1.3204
1.34956
1.45371
1.4541
1.7592
1.75349
1.00008
1.00008
1.00016
1.0002
1.00037
1.00032
1.00035
1.04587
1.03543
1.06896
1.04561
1.00018
1.00011
1.00012
1.00008
1.18984
1.14448
1.17258
1.14586
1
1
1
1
1
1
1
1
1
1
1
1
1
1
1
1
1
1
1
1
1.00039
1.00032
1.00035
1.00032
1.00009
1.00016
1.00003
1.00007
1.00006
1.00014
1.00018
1.00032
1.00012
1.00022
1.00011
1.00005
1.00009
1.00004
1.01599
1.02441
1.01321
1.02288
1
1
1
1
1
1
1
1
1.00036
1.00034
1.00054
1.00055
1
1
5.25891
5.17391
1
1
1
1
1
1
1
1
1
1
1
1
1
1
1
1
1
1
1
1
1
1
1
1
1
1
1
1.00001
1.00008
1.00048
1.00545
1.04702
1.37125
2.61215
5.32489
5.82065
5.27747
5.28649
5.35998
5.28956
5.24228
5.36949
5.36527
5.34019
5.29265
5.08017
5.17131
5.31767
5.2501
5.71441
5.87621
2.48809
1.27443
1.03614
1.00429
1.00048
1.00004
1.00001
1
1
1
1
1
1
1
1
1
1
2.72039
1.36854
1.04811
1.00624
1.00078
1.00008
1.00001
1
1
1
1
1
1
1
1
1
1
3.22122
1.46391
1.06135
1.00794
1.001
1.00012
1.00002
1
1
1
1
1
1
1
1
1
1
2.96329
1.57651
1.09168
1.01043
1.00106
1.00015
1.00002
1
1
1
1
1
1
1
1
1
1
2.78877
1.49741
1.07357
1.00844
1.0013
1.00021
1.00002
1
1
1
1
1
1
1
1
1
1
2.82015
1.51691
1.08903
1.01137
1.0015
1.00019
1.00003
1
1
1
1
1
1
1
1
1
1
2.8862
1.44499
1.09212
1.01282
1.00181
1.0002
1.00002
1
1
1
1
1
1
1
1
1
1
3.10774
1.44277
1.08692
1.01242
1.00165
1.00021
1.00003
1
1
1
1
1
1
1
1
1
1
2.95687
1.51122
1.08772
1.01144
1.00176
1.00023
1.00003
1
1
1
1
1
1
1
1
1
1
3.24118
1.51674
1.08748
1.01003
1.00164
1.00026
1.00004
1
1
1
1
1
1
1
1
1
1
2.98619
1.55325
1.11455
1.01744
1.00137
1.00024
1.00004
1
1
1
1
1
1
1
1
1
1
2.9206
1.62251
1.08372
1.01539
1.00175
1.00026
1.00004
1.00001
1
1
1
1
1
1
1
1
1
2.97931
1.62142
1.09643
1.01932
1.00289
1.00035
1.00005
1.00001
1
1
1
1
1
1
1
1
1
3.17095
1.56346
1.10159
1.01548
1.00196
1.00034
1.00004
1
1
1
1
1
1
1
1
1
1
2.97773
1.49665
1.13453
1.01792
1.00201
1.00027
1.00003
1
1
1
1
1
1
1
1
1
1
3.00697
1.48527
1.12628
1.01487
1.00192
1.00023
1.00003
1
1
1
1
1
1
1
1
1
1
2.9784
1.50176
1.08819
1.01412
1.0018
1.00021
1.00002
1
1
1
1
1
1
1
1
1
1
2.98953
1.50471
1.08603
1.0102
1.00094
1.00013
1.00002
1
1
1
1
1
1
1
1
1
1
1
5.10881
2.10923
1.22085
1.02884
1.00255
1.00038
1.00003
1.00001
1
1
1
1
1
1
1
1
1
1
1
1
1
1
1
1
1
1
1
1
1
1
1
1
1
1
1
1
1
1
5.14124
1
1
1
1
1
1
1
1
1
1
1.00001
1.00005
1.00038
1.00421
1.03669
1.29876
2.18347
5.71946
5.62551
6.26167
6.3107
6.30648
6.40453
6.29184
6.35638
6.26488
6.21057
6.19595
6.20906
6.31889
6.19444
6.18327
6.2697
6.19098
6.24302
6.2212
5.40514
1
1
4.8312
2.7565
1.2872
1.03045
1.00385
1.00038
1.00005
1.00001
1
1
1
1
1
1
1
1
1
1
1
1
1
1
1
1
1
1
1
1
1
1
1
1
1
1
1
1
1
1
1
1
1
1
1
1
1
1.00001
1.00007
1.00074
1.00542
1.04763
1.33502
2.58736
5.23966
5.44039
5.25323
5.00778
5.27877
5.37835
5.27823
5.2154
5.15495
5.08832
5.07069
5.33398
5.19303
5.11472
5.09949
5.27332
5.03376
1
1
1
1
1
1
1
1
1
1
1.00001
1.00009
1.00066
1.00523
1.05613
1.48078
2.50613
1
1
1
1
1
1
1
1
1
1
1.00002
1.00011
1.00084
1.00771
1.07041
1.35457
2.85368
1
1
1
1
1
1
1
1
1
1
1.00002
1.00017
1.00105
1.00835
1.07263
1.5284
2.84131
1
1
1
1
1
1
1
1
1
1
1.00002
1.0002
1.00124
1.01098
1.07885
1.4235
2.80842
1
1
1
1
1
1
1
1
1
1
1.00003
1.00017
1.00139
1.00789
1.07542
1.47515
3.01759
1
1
1
1
1
1
1
1
1
1
1.00003
1.00019
1.00137
1.01331
1.09174
1.59549
2.67632
1
1
1
1
1
1
1
1
1
1
1.00002
1.00022
1.00154
1.01127
1.09771
1.60881
2.69135
1
1
1
1
1
1
1
1
1
1
1.00003
1.00021
1.00155
1.01124
1.08793
1.42889
2.83903
1
1
1
1
1
1
1
1
1
1
1.00003
1.00025
1.00185
1.01403
1.0911
1.52699
2.96263
1
1
1
1
1
1
1
1
1
1
1.00003
1.00029
1.00203
1.01158
1.11127
1.48241
3.02199
1
1
1
1
1
1
1
1
1
1.00001
1.00003
1.00024
1.00179
1.01147
1.10673
1.7357
3.44196
1
1
1
1
1
1
1
1
1
1
1.00005
1.0003
1.0024
1.01675
1.11866
1.56437
2.95206
1
1
1
1
1
1
1
1
1
1
1.00003
1.0003
1.00239
1.01922
1.09352
1.58281
2.89895
1
1
1
1
1
1
1
1
1
1
1.00003
1.00025
1.00213
1.01546
1.12533
1.68925
2.84861
1
1
1
1
1
1
1
1
1
1
1.00003
1.00024
1.00197
1.01597
1.09674
1.59917
3.22024
1
1
1
1
1
1
1
1
1
1
1.00002
1.00019
1.00205
1.0124
1.10405
1.68543
2.82223
1
1
1
1
1
1
1
1
1
1
1.00002
1.00011
1.00104
1.00935
1.09179
1.50673
2.79704
)
;

boundaryField
{
    sides
    {
        type            fixedValue;
        value           uniform 1;
    }
    top
    {
        type            fixedValue;
        value           uniform 1;
    }
    outlet
    {
        type            fixedValue;
        value           uniform 1;
    }
    bottom
    {
        type            fixedValue;
        value           uniform 1;
    }
    inlet
    {
        type            fixedValue;
        value           uniform 10;
    }
}


// ************************************************************************* //
