/*--------------------------------*- C++ -*----------------------------------*\
  =========                 |
  \\      /  F ield         | OpenFOAM: The Open Source CFD Toolbox
   \\    /   O peration     | Website:  https://openfoam.org
    \\  /    A nd           | Version:  6
     \\/     M anipulation  |
\*---------------------------------------------------------------------------*/
FoamFile
{
    version     2.0;
    format      ascii;
    class       volScalarField;
    location    "3.86";
    object      p;
}
// * * * * * * * * * * * * * * * * * * * * * * * * * * * * * * * * * * * * * //

dimensions      [1 -1 -2 0 0 0 0];

internalField   nonuniform List<scalar> 
22500
(
1
1
1
1
1
1
1
1
1
1
1
1
1
1
1
1
1
1
1
1
1
1
1
1
1
1
1
1
1
1
1
1
1
1
1
1
1
1
1
1
1
1
1
1
1
1
1
1
1
1
1
1
1
1
1
1
1
1
1
1
1
1
1
1
1
1
1
1
1
0.999999
0.999997
0.999996
0.999994
0.999991
0.999987
0.999984
0.99998
0.999976
0.999972
0.999968
0.999965
0.999964
0.999965
0.999968
0.999974
0.999984
0.999997
1.00001
1.00004
1.00006
1.00009
1.00012
1.00015
1.00019
1.00023
1.00026
1.00029
1.00032
1.00035
1.00037
1.00039
1.0004
1.0004
1.0004
1.0004
1.00039
1.00037
1.00035
1.00033
1.00031
1.00029
1.00026
1.00024
1.00021
1.00019
1.00017
1.00014
1.00012
1.00011
1.00009
1.00007
1.00006
1.00005
1.00004
1.00003
1.00002
1.00002
1.00001
1.00001
1.00001
1
1
1
1
1
1
1
1
1
1
1
1
1
1
1
1
1
1
1
1
1
1
1
1
1
1
1
1
1
1
1
1
1
1
1
1
1
1
1
1
1
1
1
1
1
1
1
1
1
1
1
1
1
1
1
1
1
1
1
1
1
1
1
1
1
1
1
1
1
1
1
1
1
1
1
1
1
1
1
1
1
1
1
1
1
1
1
1
1
0.999999
0.999997
0.999995
0.999993
0.99999
0.999986
0.999982
0.999978
0.999974
0.99997
0.999968
0.999967
0.999968
0.999972
0.999981
0.999994
1.00001
1.00003
1.00006
1.0001
1.00013
1.00018
1.00022
1.00027
1.00032
1.00037
1.00042
1.00046
1.0005
1.00054
1.00056
1.00058
1.0006
1.0006
1.00059
1.00058
1.00056
1.00054
1.00051
1.00047
1.00044
1.0004
1.00036
1.00032
1.00029
1.00025
1.00022
1.00019
1.00016
1.00014
1.00012
1.0001
1.00008
1.00006
1.00005
1.00004
1.00003
1.00002
1.00002
1.00001
1.00001
1.00001
1
1
1
1
1
1
0.999999
0.999999
0.999999
1
1
1
1
1
1
1
1
1
1
1
1
1
1
1
1
1
1
1
1
1
1
1
1
1
1
1
1
1
1
1
1
1
1
1
1
1
1
1
1
1
1
1
1
1
1
1
1
1
1
1
1
1
1
1
1
1
1
1
1
1
1
1
1
1
1
1
1
1
1
1
1
1
1
1
1
1
1
1
0.999999
0.999997
0.999995
0.999992
0.999989
0.999985
0.999981
0.999977
0.999973
0.999971
0.99997
0.999973
0.999979
0.99999
1.00001
1.00003
1.00006
1.00009
1.00014
1.00019
1.00025
1.00031
1.00038
1.00045
1.00052
1.00059
1.00066
1.00072
1.00077
1.00081
1.00085
1.00087
1.00088
1.00088
1.00087
1.00084
1.00081
1.00077
1.00072
1.00067
1.00062
1.00056
1.0005
1.00045
1.0004
1.00035
1.0003
1.00026
1.00022
1.00018
1.00015
1.00012
1.0001
1.00008
1.00006
1.00005
1.00004
1.00003
1.00002
1.00002
1.00001
1.00001
1
1
1
1
1
0.999999
0.999999
0.999999
0.999999
0.999999
0.999999
1
1
1
1
1
1
1
1
1
1
1
1
1
1
1
1
1
1
1
1
1
1
1
1
1
1
1
1
1
1
1
1
1
1
1
1
1
1
1
1
1
1
1
1
1
1
1
1
1
1
1
1
1
1
1
1
1
1
1
1
1
1
1
1
1
1
1
1
1
1
1
1
1
1
1
1
1
1
0.999998
0.999995
0.999992
0.999989
0.999985
0.999981
0.999977
0.999976
0.999976
0.99998
0.999987
1
1.00002
1.00005
1.00009
1.00013
1.00019
1.00026
1.00033
1.00042
1.00051
1.00061
1.00071
1.00081
1.00091
1.001
1.00108
1.00115
1.00121
1.00125
1.00128
1.00129
1.00128
1.00126
1.00122
1.00117
1.0011
1.00103
1.00095
1.00087
1.00079
1.0007
1.00062
1.00055
1.00047
1.00041
1.00034
1.00029
1.00024
1.0002
1.00016
1.00013
1.0001
1.00008
1.00006
1.00005
1.00004
1.00003
1.00002
1.00001
1.00001
1
1
1
1
0.999999
0.999999
0.999999
0.999999
0.999999
0.999999
0.999999
0.999999
1
1
1
1
1
1
1
1
1
1
1
1
1
1
1
1
1
1
1
1
1
1
1
1
1
1
1
1
1
1
1
1
1
1
1
1
1
1
1
1
1
1
1
1
1
1
1
1
1
1
1
1
1
1
1
1
1
1
1
1
1
1
1
1
1
1
1
1
1
1
1
1
1
1
1
1
1
0.999998
0.999996
0.999992
0.999989
0.999986
0.999983
0.999981
0.999983
0.999988
0.999997
1.00001
1.00004
1.00007
1.00012
1.00018
1.00025
1.00034
1.00044
1.00055
1.00067
1.00081
1.00094
1.00108
1.00122
1.00135
1.00148
1.00159
1.00168
1.00176
1.00181
1.00184
1.00185
1.00184
1.0018
1.00174
1.00166
1.00157
1.00146
1.00135
1.00123
1.00111
1.00099
1.00087
1.00076
1.00065
1.00056
1.00047
1.00039
1.00032
1.00026
1.00021
1.00017
1.00014
1.00011
1.00008
1.00006
1.00004
1.00003
1.00002
1.00001
1.00001
1.00001
1
1
0.999999
0.999999
0.999998
0.999998
0.999998
0.999998
0.999999
0.999999
0.999999
0.999999
1
1
1
1
1
1
1
1
1
1
1
1
1
1
1
1
1
1
1
1
1
1
1
1
1
1
1
1
1
1
1
1
1
1
1
1
1
1
1
1
1
1
1
1
1
1
1
1
1
1
1
1
1
1
1
1
1
1
1
1
1
1
1
1
1
1
1
1
1
1
1
1
1
1
1
1
0.999999
0.999997
0.999994
0.999991
0.999989
0.999989
0.99999
0.999996
1.00001
1.00003
1.00006
1.0001
1.00016
1.00023
1.00032
1.00043
1.00055
1.0007
1.00086
1.00104
1.00122
1.00142
1.00161
1.0018
1.00198
1.00215
1.0023
1.00242
1.00252
1.00259
1.00263
1.00263
1.0026
1.00254
1.00246
1.00234
1.00221
1.00206
1.00189
1.00172
1.00155
1.00138
1.00121
1.00105
1.0009
1.00076
1.00064
1.00053
1.00044
1.00036
1.00029
1.00023
1.00018
1.00014
1.0001
1.00008
1.00006
1.00004
1.00003
1.00002
1.00001
1.00001
1
1
0.999999
0.999998
0.999998
0.999997
0.999998
0.999998
0.999998
0.999999
0.999999
0.999999
0.999999
0.999999
1
1
1
1
1
1
1
1
1
1
1
1
1
1
1
1
1
1
1
1
1
1
1
1
1
1
1
1
1
1
1
1
1
1
1
1
1
1
1
1
1
1
1
1
1
1
1
1
1
1
1
1
1
1
1
1
1
1
1
1
1
1
1
1
1
1
1
1
1.00001
1.00001
1.00001
1.00001
1
1
1
0.999999
0.999997
0.999996
0.999996
0.999999
1.00001
1.00002
1.00004
1.00008
1.00013
1.00019
1.00028
1.00039
1.00052
1.00068
1.00087
1.00107
1.0013
1.00155
1.00181
1.00207
1.00234
1.00259
1.00284
1.00306
1.00326
1.00342
1.00355
1.00364
1.00368
1.00368
1.00364
1.00355
1.00343
1.00327
1.00308
1.00287
1.00264
1.0024
1.00215
1.00191
1.00168
1.00145
1.00124
1.00105
1.00088
1.00073
1.0006
1.00048
1.00038
1.0003
1.00024
1.00018
1.00014
1.0001
1.00007
1.00005
1.00003
1.00002
1.00001
1.00001
1
0.999999
0.999998
0.999997
0.999997
0.999997
0.999997
0.999997
0.999998
0.999998
0.999998
0.999999
0.999999
0.999999
1
1
1
1
1
1
1
1
1
1
1
1
1
1
1
1
1
1
1
1
1
1
1
1
1
1
1
1
1
1
1
1
1
1
1
1
1
1
1
1
1
1
1
1
1
1
1
1
1
1
1
1
1
1
1
1
1
1
1
1
1
1
1
1
1
1
1
1.00001
1.00001
1.00001
1.00001
1.00001
1.00001
1.00001
1.00001
1
1
1
1.00001
1.00002
1.00003
1.00006
1.0001
1.00015
1.00023
1.00033
1.00046
1.00063
1.00082
1.00105
1.00131
1.0016
1.00191
1.00225
1.0026
1.00296
1.00332
1.00366
1.00399
1.00428
1.00454
1.00476
1.00492
1.00503
1.00508
1.00508
1.00501
1.0049
1.00472
1.00451
1.00425
1.00396
1.00364
1.00331
1.00298
1.00264
1.00231
1.002
1.00171
1.00145
1.00121
1.001
1.00081
1.00065
1.00052
1.00041
1.00032
1.00024
1.00018
1.00013
1.00009
1.00007
1.00004
1.00003
1.00002
1.00001
1
0.999999
0.999997
0.999996
0.999995
0.999995
0.999996
0.999996
0.999997
0.999997
0.999998
0.999998
0.999999
0.999999
0.999999
1
1
1
1
1
1
1
1
1
1
1
1
1
1
1
1
1
1
1
1
1
1
1
1
1
1
1
1
1
1
1
1
1
1
1
1
1
1
1
1
1
1
1
1
1
1
1
1
1
1
1
1
1
1
1
1
1
1
1
1
1
1
1
1
1.00001
1.00001
1.00001
1.00001
1.00001
1.00001
1.00001
1.00001
1.00001
1.00001
1.00001
1.00001
1.00002
1.00003
1.00004
1.00007
1.00012
1.00018
1.00027
1.00038
1.00054
1.00073
1.00096
1.00123
1.00155
1.00191
1.00231
1.00274
1.0032
1.00367
1.00415
1.00462
1.00507
1.0055
1.00588
1.00621
1.00649
1.0067
1.00684
1.0069
1.00689
1.0068
1.00664
1.00641
1.00612
1.00578
1.00539
1.00497
1.00452
1.00407
1.00362
1.00317
1.00275
1.00235
1.00199
1.00166
1.00137
1.00111
1.00089
1.00071
1.00055
1.00043
1.00032
1.00024
1.00018
1.00013
1.00009
1.00006
1.00004
1.00002
1.00001
1
0.999998
0.999995
0.999994
0.999994
0.999994
0.999994
0.999995
0.999996
0.999997
0.999997
0.999998
0.999998
0.999999
0.999999
0.999999
1
1
1
1
1
1
1
1
1
1
1
1
1
1
1
1
1
1
1
1
1
1
1
1
1
1
1
1
1
1
1
1
1
1
1
1
1
1
1
1
1
1
1
1
1
1
1
1
1
1
1
1
1
1
1
1
1
1
1
1
1
1
1.00001
1.00001
1.00001
1.00001
1.00001
1.00001
1.00001
1.00001
1.00002
1.00002
1.00002
1.00002
1.00003
1.00004
1.00006
1.00009
1.00013
1.0002
1.0003
1.00043
1.0006
1.00082
1.00109
1.00142
1.0018
1.00224
1.00273
1.00327
1.00385
1.00445
1.00508
1.0057
1.00631
1.00689
1.00744
1.00793
1.00835
1.0087
1.00896
1.00913
1.00921
1.00919
1.00907
1.00887
1.00857
1.00819
1.00775
1.00724
1.00669
1.00611
1.00551
1.0049
1.00431
1.00374
1.00321
1.00271
1.00226
1.00186
1.00151
1.00121
1.00096
1.00075
1.00058
1.00044
1.00032
1.00024
1.00017
1.00012
1.00008
1.00005
1.00003
1.00001
1
0.999997
0.999994
0.999992
0.999992
0.999992
0.999993
0.999994
0.999995
0.999996
0.999996
0.999997
0.999998
0.999998
0.999999
0.999999
0.999999
1
1
1
1
1
1
1
1
1
1
1
1
1
1
1
1
1
1
1
1
1
1
1
1
1
1
1
1
1
1
1
1
1
1
1
1
1
1
1
1
1
1
1
1
1
1
1
1
1
1
1
1
1
1
1
1
1
1
1
1
1.00001
1.00001
1.00001
1.00001
1.00001
1.00001
1.00002
1.00002
1.00002
1.00002
1.00002
1.00003
1.00003
1.00005
1.00007
1.0001
1.00015
1.00022
1.00033
1.00047
1.00066
1.00091
1.00122
1.0016
1.00205
1.00257
1.00316
1.00382
1.00453
1.00529
1.00608
1.00688
1.00768
1.00846
1.00919
1.00987
1.01048
1.011
1.01143
1.01175
1.01196
1.01206
1.01203
1.01189
1.01163
1.01126
1.01078
1.01022
1.00958
1.00888
1.00813
1.00735
1.00657
1.00579
1.00504
1.00433
1.00367
1.00307
1.00253
1.00206
1.00165
1.00131
1.00102
1.00078
1.00059
1.00044
1.00032
1.00023
1.00016
1.0001
1.00006
1.00004
1.00002
1.00001
0.999997
0.999993
0.99999
0.999989
0.99999
0.999991
0.999992
0.999993
0.999994
0.999995
0.999996
0.999997
0.999998
0.999998
0.999999
0.999999
0.999999
0.999999
1
1
1
1
1
1
1
1
1
1
1
1
1
1
1
1
1
1
1
1
1
1
1
1
1
1
1
1
1
1
1
1
1
1
1
1
1
1
1
1
1
1
1
1
1
1
1
1
1
1
1
1
1
1
1
1
1
1.00001
1.00001
1.00001
1.00001
1.00001
1.00002
1.00002
1.00002
1.00002
1.00003
1.00003
1.00004
1.00004
1.00006
1.00008
1.00011
1.00016
1.00024
1.00035
1.0005
1.00071
1.00098
1.00133
1.00176
1.00228
1.00288
1.00358
1.00437
1.00523
1.00616
1.00714
1.00814
1.00915
1.01015
1.01111
1.01202
1.01285
1.01358
1.01421
1.01472
1.01511
1.01536
1.01546
1.01543
1.01526
1.01495
1.01451
1.01394
1.01325
1.01246
1.01159
1.01066
1.00968
1.00868
1.00769
1.00671
1.00579
1.00492
1.00413
1.00341
1.00278
1.00223
1.00177
1.00138
1.00106
1.0008
1.00059
1.00043
1.00031
1.00021
1.00014
1.00009
1.00005
1.00003
1.00001
0.999998
0.999991
0.999988
0.999987
0.999987
0.999988
0.99999
0.999991
0.999993
0.999994
0.999995
0.999996
0.999997
0.999998
0.999999
0.999999
0.999999
0.999999
1
1
1
1
1
1
1
1
1
1
1
1
1
1
1
1
1
1
1
1
1
1
1
1
1
1
1
1
1
1
1
1
1
1
1
1
1
1
1
1
1
1
1
1
1
1
1
1
1
1
1
1
1
1
1
1
1
1.00001
1.00001
1.00001
1.00001
1.00002
1.00002
1.00002
1.00003
1.00003
1.00004
1.00004
1.00005
1.00006
1.00008
1.00012
1.00017
1.00025
1.00036
1.00053
1.00075
1.00104
1.00142
1.0019
1.00248
1.00317
1.00398
1.0049
1.00592
1.00703
1.00821
1.00944
1.01069
1.01194
1.01315
1.01431
1.01539
1.01637
1.01723
1.01796
1.01855
1.01899
1.01927
1.0194
1.01936
1.01917
1.01881
1.0183
1.01764
1.01684
1.01591
1.01487
1.01374
1.01254
1.0113
1.01006
1.00883
1.00764
1.00653
1.00549
1.00456
1.00373
1.003
1.00238
1.00186
1.00143
1.00108
1.0008
1.00059
1.00042
1.00029
1.00019
1.00012
1.00007
1.00004
1.00001
0.999999
0.99999
0.999986
0.999984
0.999984
0.999985
0.999987
0.999989
0.999991
0.999993
0.999994
0.999996
0.999997
0.999998
0.999998
0.999999
0.999999
0.999999
0.999999
1
1
1
1
1
1
1
1
1
1
1
1
1
1
1
1
1
1
1
1
1
1
1
1
1
1
1
1
1
1
1
1
1
1
1
1
1
1
1
1
1
1
1
1
1
1
1
1
1
1
1
1
1
1
1.00001
1.00001
1.00001
1.00001
1.00001
1.00002
1.00002
1.00003
1.00003
1.00004
1.00004
1.00005
1.00006
1.00007
1.00009
1.00013
1.00018
1.00026
1.00037
1.00054
1.00077
1.00108
1.00149
1.002
1.00265
1.00342
1.00434
1.0054
1.00658
1.00788
1.00928
1.01075
1.01225
1.01376
1.01525
1.01668
1.01803
1.01926
1.02037
1.02134
1.02215
1.0228
1.02328
1.02359
1.02373
1.02369
1.02348
1.0231
1.02254
1.02181
1.02092
1.01987
1.01868
1.01736
1.01595
1.01447
1.01295
1.01144
1.00996
1.00855
1.00723
1.00603
1.00495
1.004
1.00319
1.0025
1.00193
1.00146
1.00109
1.00079
1.00057
1.00039
1.00026
1.00017
1.0001
1.00005
1.00002
1
0.99999
0.999984
0.999981
0.999981
0.999982
0.999984
0.999986
0.999989
0.999991
0.999993
0.999994
0.999996
0.999997
0.999998
0.999998
0.999999
0.999999
0.999999
1
1
1
1
1
1
1
1
1
1
1
1
1
1
1
1
1
1
1
1
1
1
1
1
1
1
1
1
1
1
1
1
1
1
1
1
1
1
1
1
1
1
1
1
1
1
1
1
1
1
1
1
1
1
1.00001
1.00001
1.00001
1.00001
1.00002
1.00002
1.00003
1.00003
1.00004
1.00004
1.00005
1.00006
1.00008
1.0001
1.00013
1.00018
1.00026
1.00037
1.00054
1.00077
1.0011
1.00152
1.00207
1.00277
1.00362
1.00464
1.00583
1.00718
1.00868
1.0103
1.01201
1.01379
1.01558
1.01735
1.01906
1.02068
1.02218
1.02353
1.02472
1.02575
1.02659
1.02726
1.02776
1.02808
1.02822
1.02819
1.02798
1.02759
1.02703
1.02628
1.02534
1.02422
1.02293
1.02147
1.01987
1.01817
1.01639
1.01458
1.01278
1.01104
1.0094
1.00787
1.0065
1.00528
1.00422
1.00332
1.00257
1.00196
1.00146
1.00107
1.00077
1.00054
1.00036
1.00024
1.00014
1.00008
1.00004
1.00001
0.999992
0.999982
0.999978
0.999977
0.999978
0.999981
0.999983
0.999986
0.999989
0.999991
0.999993
0.999995
0.999996
0.999997
0.999998
0.999999
0.999999
0.999999
0.999999
1
1
1
1
1
1
1
1
1
1
1
1
1
1
1
1
1
1
1
1
1
1
1
1
1
1
1
1
1
1
1
1
1
1
1
1
1
1
1
1
1
1
1
1
1
1
1
1
1
1
1
1
1
1.00001
1.00001
1.00001
1.00002
1.00002
1.00003
1.00003
1.00004
1.00005
1.00006
1.00007
1.00008
1.0001
1.00013
1.00018
1.00026
1.00037
1.00053
1.00077
1.00109
1.00153
1.00211
1.00284
1.00376
1.00487
1.00618
1.00769
1.00938
1.01123
1.0132
1.01525
1.01733
1.01939
1.02138
1.02326
1.025
1.02658
1.02797
1.02917
1.03018
1.03099
1.03163
1.03209
1.03238
1.03252
1.03249
1.03231
1.03196
1.03144
1.03073
1.02983
1.02873
1.02741
1.0259
1.02419
1.02232
1.02031
1.01823
1.01612
1.01404
1.01203
1.01015
1.00843
1.00689
1.00554
1.00438
1.0034
1.0026
1.00195
1.00144
1.00103
1.00073
1.0005
1.00033
1.0002
1.00012
1.00006
1.00002
0.999996
0.999982
0.999976
0.999974
0.999974
0.999977
0.99998
0.999983
0.999986
0.999989
0.999992
0.999994
0.999995
0.999996
0.999997
0.999998
0.999998
0.999999
0.999999
0.999999
1
1
1
1
1
1
1
1
1
1
1
1
1
1
1
1
1
1
1
1
1
1
1
1
1
1
1
1
1
1
1
1
1
1
1
1
1
1
1
1
1
1
1
1
1
1
1
1
1
1
1
1.00001
1.00001
1.00001
1.00002
1.00002
1.00003
1.00003
1.00004
1.00005
1.00006
1.00007
1.00008
1.0001
1.00013
1.00018
1.00025
1.00036
1.00051
1.00074
1.00106
1.00151
1.0021
1.00286
1.00383
1.00502
1.00644
1.0081
1.00998
1.01205
1.01427
1.01659
1.01896
1.0213
1.02356
1.02569
1.02765
1.02941
1.03094
1.03226
1.03335
1.03424
1.03494
1.03547
1.03584
1.03607
1.03618
1.03616
1.03602
1.03575
1.03533
1.03475
1.03399
1.03302
1.03181
1.03036
1.02867
1.02674
1.02461
1.02232
1.01994
1.01753
1.01516
1.0129
1.01079
1.00887
1.00718
1.00571
1.00446
1.00343
1.00259
1.00191
1.00139
1.00098
1.00067
1.00045
1.00028
1.00017
1.00009
1.00004
1
0.999984
0.999974
0.99997
0.99997
0.999972
0.999976
0.99998
0.999983
0.999987
0.99999
0.999992
0.999994
0.999996
0.999997
0.999998
0.999998
0.999999
0.999999
0.999999
1
1
1
1
1
1
1
1
1
1
1
1
1
1
1
1
1
1
1
1
1
1
1
1
1
1
1
1
1
1
1
1
1
1
1
1
1
1
1
1
1
1
1
1
1
1
1
1
1
1
1.00001
1.00001
1.00001
1.00001
1.00002
1.00002
1.00003
1.00004
1.00005
1.00006
1.00007
1.00009
1.00011
1.00014
1.00018
1.00024
1.00034
1.00049
1.00071
1.00102
1.00146
1.00205
1.00283
1.00383
1.00508
1.00659
1.00838
1.01043
1.01272
1.01518
1.01778
1.02042
1.02303
1.02555
1.0279
1.03004
1.03192
1.03354
1.03489
1.03599
1.03684
1.03749
1.03797
1.0383
1.03852
1.03865
1.0387
1.03869
1.03861
1.03846
1.03822
1.03786
1.03734
1.03663
1.03569
1.03448
1.03297
1.03116
1.02905
1.02669
1.02413
1.02146
1.01876
1.01612
1.0136
1.01128
1.00919
1.00736
1.00579
1.00447
1.00339
1.00252
1.00184
1.00131
1.00091
1.00061
1.00039
1.00024
1.00013
1.00006
1.00002
0.999989
0.999974
0.999967
0.999966
0.999968
0.999972
0.999976
0.99998
0.999984
0.999987
0.99999
0.999993
0.999995
0.999996
0.999997
0.999998
0.999998
0.999999
0.999999
0.999999
1
1
1
1
1
1
1
1
1
1
1
1
1
1
1
1
1
1
1
1
1
1
1
1
1
1
1
1
1
1
1
1
1
1
1
1
1
1
1
1
1
1
1
1
1
1
1
1
1
1.00001
1.00001
1.00001
1.00002
1.00002
1.00003
1.00004
1.00005
1.00006
1.00007
1.00009
1.00011
1.00013
1.00017
1.00023
1.00032
1.00046
1.00067
1.00096
1.00138
1.00196
1.00274
1.00375
1.00504
1.00663
1.00852
1.01073
1.01321
1.01591
1.01876
1.02167
1.02455
1.0273
1.02985
1.03212
1.03408
1.0357
1.037
1.03799
1.0387
1.03918
1.03947
1.03962
1.03968
1.03968
1.03966
1.03964
1.03963
1.03964
1.03964
1.03963
1.03956
1.0394
1.03909
1.03857
1.03777
1.03666
1.03517
1.0333
1.03106
1.0285
1.0257
1.02275
1.01977
1.01687
1.01412
1.0116
1.00936
1.00742
1.00577
1.0044
1.0033
1.00242
1.00173
1.00121
1.00082
1.00054
1.00033
1.00019
1.0001
1.00004
0.999997
0.999976
0.999966
0.999962
0.999963
0.999967
0.999971
0.999976
0.999981
0.999985
0.999988
0.999991
0.999994
0.999995
0.999997
0.999997
0.999998
0.999999
0.999999
0.999999
1
1
1
1
1
1
1
1
1
1
1
1
1
1
1
1
1
1
1
1
1
1
1
1
1
1
1
1
1
0.999999
1
1
1
1
1
1
1
1
1
1
1
1
1
1
1
1
1
1
1.00001
1.00001
1.00001
1.00002
1.00002
1.00003
1.00004
1.00005
1.00006
1.00007
1.00008
1.0001
1.00013
1.00017
1.00022
1.0003
1.00043
1.00062
1.00089
1.00129
1.00185
1.0026
1.00361
1.00491
1.00654
1.00852
1.01085
1.0135
1.01642
1.01952
1.02269
1.02582
1.02879
1.0315
1.03387
1.03584
1.0374
1.03856
1.03934
1.0398
1.03998
1.03996
1.03979
1.03955
1.03927
1.03902
1.03882
1.03871
1.03869
1.03877
1.03895
1.0392
1.03948
1.03974
1.03993
1.03997
1.03977
1.03925
1.03833
1.03694
1.03507
1.03274
1.03001
1.02698
1.02377
1.02053
1.01738
1.01443
1.01175
1.00938
1.00735
1.00565
1.00426
1.00315
1.00227
1.0016
1.0011
1.00073
1.00046
1.00028
1.00015
1.00006
1.00001
0.999981
0.999965
0.999959
0.999959
0.999962
0.999967
0.999972
0.999977
0.999982
0.999986
0.99999
0.999992
0.999994
0.999996
0.999997
0.999998
0.999998
0.999999
0.999999
1
1
1
1
1
1
1
1
1
1
1
1
1
1
1
1
1
1
1
1
1
1
1
1
1
1
1
1
1
0.999999
1
1
1
1
1
1
1
1
1
1
1
1
1
1
1
1
1
1
1.00001
1.00001
1.00001
1.00002
1.00003
1.00003
1.00004
1.00005
1.00007
1.00008
1.0001
1.00013
1.00016
1.00021
1.00028
1.00039
1.00056
1.00081
1.00118
1.0017
1.00243
1.00341
1.0047
1.00634
1.00837
1.01079
1.01359
1.0167
1.02002
1.02344
1.02681
1.02999
1.03284
1.03527
1.03722
1.03867
1.03961
1.0401
1.04021
1.03999
1.03954
1.03894
1.03826
1.03758
1.03694
1.03642
1.03603
1.03581
1.03578
1.03594
1.03628
1.03679
1.03743
1.03815
1.03889
1.03957
1.04008
1.04032
1.04017
1.03952
1.0383
1.03648
1.03408
1.03119
1.02794
1.0245
1.02102
1.01765
1.01452
1.01171
1.00925
1.00717
1.00545
1.00405
1.00295
1.0021
1.00145
1.00098
1.00063
1.00038
1.00022
1.0001
1.00003
0.999991
0.999968
0.999957
0.999955
0.999957
0.999962
0.999968
0.999974
0.999979
0.999984
0.999988
0.999991
0.999993
0.999995
0.999996
0.999997
0.999998
0.999999
0.999999
1
1
1
1
1
1
1
1
1
1
1
1
1
1
1
1
1
1
1
1
1
1
1
1
1
1
1
1
1
1
1
1
1
1
1
1
1
1
1
1
1
1
1
1
1
1
1
1.00001
1.00001
1.00001
1.00002
1.00002
1.00003
1.00004
1.00005
1.00006
1.00008
1.0001
1.00012
1.00015
1.0002
1.00026
1.00036
1.00051
1.00073
1.00107
1.00155
1.00223
1.00316
1.00441
1.00604
1.00807
1.01055
1.01345
1.01672
1.02026
1.02392
1.02752
1.03089
1.03388
1.03636
1.03826
1.03954
1.04022
1.04036
1.04004
1.03935
1.0384
1.03727
1.03607
1.03488
1.03377
1.03279
1.032
1.03143
1.03111
1.03105
1.03127
1.03176
1.0325
1.03347
1.03463
1.0359
1.03723
1.03849
1.03958
1.04034
1.04063
1.04031
1.03929
1.03753
1.03507
1.03203
1.02858
1.02491
1.02121
1.01767
1.0144
1.01149
1.00898
1.00687
1.00515
1.00378
1.00271
1.0019
1.00129
1.00084
1.00053
1.00031
1.00016
1.00007
1.00001
0.999974
0.999957
0.999952
0.999953
0.999957
0.999963
0.99997
0.999976
0.999981
0.999985
0.999989
0.999992
0.999994
0.999995
0.999997
0.999998
0.999999
0.999999
0.999999
1
1
1
1
1
1
1
1
1
1
1
1
1
1
1
1
1
1
1
1
1
1
1
1
1
1
1
1
1
1
1
1
1
1
1
1
1
1
1
1
1
1
1
1
1
1
1.00001
1.00001
1.00001
1.00002
1.00003
1.00003
1.00004
1.00006
1.00007
1.00009
1.00011
1.00014
1.00018
1.00024
1.00033
1.00046
1.00065
1.00095
1.00138
1.00201
1.00288
1.00407
1.00564
1.00765
1.01014
1.0131
1.0165
1.02022
1.02409
1.02792
1.0315
1.03463
1.03716
1.03899
1.0401
1.04049
1.04025
1.03947
1.03826
1.03676
1.03506
1.03329
1.03154
1.02988
1.02839
1.02711
1.0261
1.02537
1.02496
1.02488
1.02514
1.02574
1.02667
1.02791
1.02942
1.03116
1.03307
1.03504
1.03696
1.03868
1.04001
1.04077
1.0408
1.03997
1.03827
1.03574
1.03254
1.02888
1.025
1.02112
1.01742
1.01405
1.01109
1.00857
1.00648
1.00479
1.00347
1.00245
1.00168
1.00112
1.00071
1.00043
1.00024
1.00011
1.00003
0.999985
0.99996
0.99995
0.999949
0.999953
0.999958
0.999965
0.999972
0.999978
0.999983
0.999987
0.999991
0.999993
0.999994
0.999996
0.999997
0.999998
0.999999
0.999999
1
1
1
1
1
1
1
1
1
1
1
1
1
1
1
1
1
1
1
1
1
1
1
1
1
1
1
1
1
1
1
1
1
1
1
1
1
1
1
1
1
1
1
1
1
1.00001
1.00001
1.00001
1.00002
1.00002
1.00003
1.00004
1.00005
1.00007
1.00008
1.0001
1.00013
1.00017
1.00022
1.00029
1.00041
1.00058
1.00083
1.00122
1.00178
1.00258
1.00368
1.00517
1.00711
1.00957
1.01255
1.01602
1.01989
1.02396
1.02802
1.03181
1.0351
1.03769
1.03948
1.04042
1.04053
1.0399
1.03865
1.03692
1.03485
1.03257
1.03022
1.02789
1.02567
1.02364
1.02185
1.02035
1.01916
1.01832
1.01784
1.01774
1.01802
1.01869
1.01974
1.02117
1.02295
1.02504
1.02741
1.02997
1.03262
1.03522
1.03759
1.03949
1.04072
1.04107
1.04041
1.03872
1.03609
1.03271
1.02885
1.02477
1.02073
1.01693
1.01351
1.01054
1.00804
1.006
1.00438
1.00312
1.00216
1.00145
1.00094
1.00058
1.00033
1.00017
1.00006
1
0.999967
0.999951
0.999946
0.999948
0.999954
0.999961
0.999968
0.999975
0.99998
0.999985
0.999989
0.999992
0.999993
0.999995
0.999997
0.999998
0.999999
0.999999
0.999999
1
1
1
1
1
1
1
1
1
1
1
1
1
1
1
1
1
1
1
1
1
1
1
1
1
1
1
1
1
1
1
1
1
1
1
1
1
1
1
1
1
1
1
1
1.00001
1.00001
1.00001
1.00002
1.00003
1.00003
1.00005
1.00006
1.00008
1.0001
1.00012
1.00016
1.0002
1.00026
1.00036
1.0005
1.00072
1.00106
1.00155
1.00226
1.00327
1.00465
1.00649
1.00886
1.01181
1.01531
1.01927
1.02352
1.0278
1.03182
1.03529
1.038
1.03978
1.04058
1.04043
1.03944
1.03774
1.0355
1.03288
1.03004
1.02712
1.02422
1.02146
1.0189
1.01661
1.01462
1.01297
1.01167
1.01076
1.01024
1.01011
1.0104
1.0111
1.01222
1.01376
1.0157
1.01803
1.02071
1.0237
1.02692
1.03025
1.03352
1.03651
1.03897
1.04061
1.04122
1.04066
1.03892
1.03613
1.03255
1.02848
1.02423
1.02007
1.01621
1.01279
1.00985
1.00742
1.00546
1.00393
1.00275
1.00187
1.00123
1.00077
1.00046
1.00025
1.00011
1.00003
0.999978
0.999954
0.999945
0.999945
0.999949
0.999956
0.999964
0.999971
0.999978
0.999983
0.999987
0.999991
0.999992
0.999995
0.999996
0.999997
0.999998
0.999999
0.999999
1
1
1
1
1
1
1
1
1
1
1
1
1
1
1
1
1
1
1
1
1
1
1
1
1
1
1
1
1
1
1
1
1
1
1
1
1
1
1
1
1
1
1
1
1.00001
1.00001
1.00002
1.00002
1.00003
1.00004
1.00005
1.00007
1.00009
1.00011
1.00014
1.00018
1.00024
1.00032
1.00044
1.00062
1.00091
1.00133
1.00195
1.00285
1.00411
1.00581
1.00806
1.01091
1.01437
1.01838
1.02276
1.02725
1.03152
1.03522
1.03808
1.03991
1.04064
1.04029
1.03899
1.03688
1.03417
1.03104
1.02766
1.0242
1.02078
1.0175
1.01445
1.01167
1.00923
1.00713
1.00541
1.00407
1.00312
1.00257
1.00243
1.00271
1.00341
1.00454
1.00611
1.00812
1.01057
1.01343
1.01669
1.02029
1.02415
1.02814
1.03205
1.03563
1.03856
1.04054
1.04131
1.04074
1.03886
1.03587
1.03206
1.02778
1.02339
1.01916
1.01529
1.01191
1.00906
1.00673
1.00488
1.00345
1.00237
1.00158
1.00101
1.00062
1.00035
1.00017
1.00006
0.999995
0.99996
0.999945
0.999942
0.999945
0.999952
0.99996
0.999968
0.999975
0.999981
0.999986
0.999989
0.999991
0.999994
0.999996
0.999997
0.999998
0.999999
0.999999
1
1
1
1
1
1
1
1
1
1
1
1
1
1
1
1
1
1
1
1
1
1
1
1
1
1
1
1
1
1
1
1
1
1
1
1
1
1
1
1
1
1
1
1.00001
1.00001
1.00001
1.00002
1.00002
1.00003
1.00005
1.00006
1.00008
1.0001
1.00013
1.00016
1.00021
1.00028
1.00038
1.00053
1.00077
1.00113
1.00166
1.00244
1.00356
1.00511
1.00719
1.00989
1.01325
1.01724
1.02171
1.02638
1.0309
1.03487
1.03796
1.03992
1.04065
1.04018
1.03863
1.03618
1.03305
1.02945
1.02559
1.02162
1.01771
1.01395
1.01044
1.00723
1.00437
1.00187
0.999754
0.998024
0.996684
0.995734
0.995177
0.995019
0.995268
0.995936
0.997035
0.998581
1.00058
1.00305
1.00598
1.00937
1.01318
1.01737
1.02184
1.02645
1.03096
1.03505
1.03837
1.04055
1.04135
1.04066
1.03856
1.03529
1.03124
1.02677
1.02228
1.01802
1.0142
1.01092
1.00819
1.006
1.00428
1.00298
1.00201
1.00131
1.00081
1.00047
1.00025
1.00011
1.00002
0.999971
0.999948
0.99994
0.999942
0.999948
0.999956
0.999964
0.999971
0.999978
0.999984
0.999988
0.99999
0.999993
0.999995
0.999997
0.999998
0.999999
0.999999
0.999999
1
1
1
1
1
1
1
1
1
1
1
1
1
1
1
1
1
1
1
1
1
1
1
1
1
1
1
1
1
1
1
1
1
1
1
1
1
1
1
1
1
1
1.00001
1.00001
1.00001
1.00002
1.00003
1.00004
1.00005
1.00007
1.00009
1.00011
1.00014
1.00019
1.00024
1.00033
1.00045
1.00065
1.00094
1.00139
1.00206
1.00303
1.00441
1.00629
1.00879
1.01199
1.01588
1.02036
1.02517
1.02994
1.03422
1.0376
1.03979
1.04063
1.04013
1.03842
1.03571
1.03223
1.02822
1.02392
1.0195
1.01513
1.01093
1.007
1.00339
1.00015
0.997291
0.99483
0.992762
0.99108
0.989777
0.988848
0.988293
0.988113
0.988319
0.988924
0.98995
0.991416
0.993344
0.995753
0.998654
1.00205
1.00594
1.01029
1.01505
1.02012
1.02531
1.03035
1.03485
1.03842
1.04067
1.04135
1.0404
1.03798
1.0344
1.03009
1.02547
1.02092
1.0167
1.01298
1.00984
1.00727
1.00524
1.00368
1.00251
1.00166
1.00105
1.00063
1.00035
1.00016
1.00005
0.999988
0.999954
0.999941
0.999939
0.999944
0.999952
0.99996
0.999968
0.999975
0.999982
0.999986
0.999989
0.999992
0.999994
0.999996
0.999997
0.999998
0.999999
0.999999
1
1
1
1
1
1
1
1
1
1
1
1
1
1
1
1
1
1
1
1
1
1
1
1
1
1
1
1
1
1
1
1
1
1
1
1
1
1
1
1
1
1.00001
1.00001
1.00001
1.00002
1.00002
1.00003
1.00004
1.00006
1.00007
1.0001
1.00013
1.00016
1.00021
1.00028
1.00038
1.00054
1.00078
1.00115
1.00171
1.00254
1.00373
1.0054
1.00766
1.01063
1.01435
1.01876
1.02364
1.02864
1.03325
1.037
1.0395
1.04056
1.04015
1.0384
1.03551
1.03176
1.02741
1.02271
1.01788
1.01309
1.00849
1.00416
1.00018
0.9966
0.993426
0.990666
0.988313
0.986349
0.984757
0.983522
0.982631
0.982081
0.981874
0.982019
0.982535
0.983446
0.984783
0.986576
0.988856
0.991647
0.994966
0.99882
1.0032
1.00809
1.01342
1.01906
1.02478
1.03026
1.03506
1.03872
1.04086
1.04126
1.03993
1.0371
1.03318
1.02864
1.02391
1.01936
1.01524
1.01168
1.00872
1.00635
1.0045
1.0031
1.00207
1.00133
1.00082
1.00047
1.00024
1.0001
1.00001
0.999965
0.999944
0.999938
0.999941
0.999948
0.999956
0.999965
0.999973
0.999979
0.999985
0.999988
0.999991
0.999994
0.999996
0.999997
0.999998
0.999999
0.999999
1
1
1
1
1
1
1
1
1
1
1
1
1
1
1
1
1
1
1
1
1
1
1
1
1
1
1
1
1
1
1
1
1
1
1
1
1
1
1
1
1
1.00001
1.00001
1.00001
1.00002
1.00003
1.00003
1.00005
1.00006
1.00008
1.00011
1.00014
1.00018
1.00024
1.00033
1.00045
1.00065
1.00094
1.0014
1.00209
1.0031
1.00454
1.00655
1.00924
1.01271
1.01695
1.02182
1.02698
1.03192
1.03609
1.03903
1.04043
1.04024
1.03856
1.03561
1.03168
1.02706
1.02203
1.01682
1.01164
1.00665
1.00195
0.997625
0.993725
0.990266
0.987249
0.984658
0.98247
0.980656
0.979188
0.978043
0.977204
0.976662
0.97642
0.976489
0.976889
0.977649
0.978809
0.98041
0.982494
0.985101
0.988261
0.991993
0.996305
1.00119
1.00662
1.0125
1.01869
1.02489
1.0307
1.03564
1.03921
1.04105
1.04101
1.03918
1.0359
1.03164
1.0269
1.02212
1.01764
1.01368
1.01032
1.00759
1.00543
1.00378
1.00256
1.00167
1.00104
1.00061
1.00033
1.00015
1.00004
0.99998
0.99995
0.999939
0.999939
0.999945
0.999953
0.999962
0.99997
0.999977
0.999983
0.999986
0.99999
0.999993
0.999995
0.999997
0.999998
0.999999
0.999999
0.999999
1
1
1
1
1
1
1
1
1
1
1
1
1
1
1
1
1
1
1
1
1
1
1
1
1
1
1
1
1
1
1
1
1
1
1
1
1
1
1
1
1.00001
1.00001
1.00001
1.00002
1.00003
1.00004
1.00005
1.00007
1.00009
1.00012
1.00016
1.00021
1.00027
1.00038
1.00053
1.00077
1.00113
1.00169
1.00253
1.00375
1.00549
1.00787
1.01102
1.01501
1.01975
1.02498
1.03021
1.03484
1.03829
1.04017
1.04035
1.03888
1.03599
1.03198
1.02717
1.02186
1.01633
1.01079
1.00542
1.00036
0.995706
0.991501
0.987776
0.984531
0.981743
0.979382
0.977409
0.975783
0.974468
0.973433
0.972657
0.972128
0.971846
0.971826
0.972089
0.972669
0.973608
0.974962
0.976785
0.979133
0.982051
0.985576
0.989728
0.994514
0.99992
1.0059
1.01234
1.01903
1.02562
1.03163
1.03652
1.03981
1.04116
1.04052
1.03811
1.03436
1.02978
1.02491
1.02015
1.01582
1.01207
1.00897
1.00648
1.00456
1.00312
1.00206
1.00131
1.00079
1.00044
1.00022
1.00008
1
0.999959
0.999942
0.999938
0.999942
0.99995
0.999959
0.999967
0.999975
0.999981
0.999985
0.999989
0.999992
0.999995
0.999996
0.999997
0.999998
0.999999
0.999999
1
1
1
1
1
1
1
1
1
1
1
1
1
1
1
1
1
1
1
1
1
1
1
1
1
1
1
1
1
1
1
1
1
1
1
1
1
1
1
1.00001
1.00001
1.00001
1.00002
1.00002
1.00003
1.00004
1.00006
1.00008
1.0001
1.00013
1.00017
1.00023
1.00031
1.00043
1.00062
1.00091
1.00136
1.00204
1.00304
1.00451
1.00656
1.00936
1.01301
1.01751
1.02268
1.02811
1.03318
1.03721
1.0397
1.04039
1.0393
1.03661
1.03264
1.02774
1.02223
1.01641
1.01053
1.00481
0.9994
0.994405
0.9899
0.985916
0.982454
0.979496
0.977
0.97492
0.973203
0.971799
0.97066
0.969752
0.96905
0.968541
0.968223
0.968109
0.968222
0.9686
0.96929
0.970351
0.971851
0.973864
0.976456
0.979682
0.983581
0.988172
0.993456
0.999406
1.00595
1.01294
1.02008
1.02694
1.03297
1.0376
1.04038
1.04106
1.03971
1.03667
1.03246
1.02764
1.02272
1.01807
1.01395
1.01047
1.00765
1.00543
1.00375
1.00251
1.00162
1.001
1.00058
1.0003
1.00013
1.00003
0.999973
0.999947
0.999939
0.99994
0.999947
0.999956
0.999965
0.999973
0.999979
0.999983
0.999988
0.999992
0.999994
0.999996
0.999997
0.999998
0.999999
0.999999
1
1
1
1
1
1
1
1
1
1
1
1
1
1
1
1
1
1
1
1
1
1
1
1
1
1
1
1
1
1
1
1
1
1
1
1
1
1
1
1
1.00001
1.00001
1.00002
1.00002
1.00003
1.00005
1.00006
1.00008
1.00011
1.00015
1.00019
1.00026
1.00035
1.0005
1.00072
1.00107
1.00161
1.00243
1.00363
1.00537
1.00779
1.01103
1.01518
1.02016
1.02565
1.03108
1.03572
1.03892
1.04029
1.03973
1.03741
1.03362
1.02873
1.0231
1.01705
1.01088
1.00481
0.999047
0.993711
0.988893
0.984641
0.980964
0.977843
0.975235
0.973084
0.971326
0.969895
0.968733
0.967787
0.967016
0.966396
0.965914
0.965567
0.965365
0.965332
0.965505
0.965932
0.966674
0.967808
0.96942
0.971602
0.974435
0.977979
0.982274
0.987334
0.993149
0.999672
1.00679
1.01428
1.02177
1.02874
1.03458
1.03872
1.04078
1.04063
1.0385
1.03485
1.03024
1.02526
1.02039
1.01593
1.01209
1.00892
1.0064
1.00446
1.00302
1.00197
1.00124
1.00073
1.0004
1.00019
1.00006
0.999991
0.999955
0.999941
0.99994
0.999945
0.999953
0.999962
0.99997
0.999978
0.999982
0.999987
0.999991
0.999993
0.999996
0.999997
0.999998
0.999999
0.999999
1
1
1
1
1
1
1
1
1
1
1
1
1
1
1
1
1
1
1
1
1
1
1
1
1
1
1
1
1
1
1
1
1
1
1
1
1
1
1
1.00001
1.00001
1.00001
1.00002
1.00003
1.00004
1.00005
1.00007
1.00009
1.00012
1.00016
1.00021
1.00029
1.0004
1.00057
1.00084
1.00126
1.00191
1.00288
1.0043
1.00634
1.00915
1.01286
1.0175