/*--------------------------------*- C++ -*----------------------------------*\
  =========                 |
  \\      /  F ield         | OpenFOAM: The Open Source CFD Toolbox
   \\    /   O peration     | Website:  https://openfoam.org
    \\  /    A nd           | Version:  6
     \\/     M anipulation  |
\*---------------------------------------------------------------------------*/
FoamFile
{
    version     2.0;
    format      ascii;
    class       volScalarField;
    location    "3.5";
    object      p;
}
// * * * * * * * * * * * * * * * * * * * * * * * * * * * * * * * * * * * * * //

dimensions      [0 2 -2 0 0 0 0];

internalField   nonuniform List<scalar> 
4214
(
-0.23636
-0.218078
-0.145974
-0.0872914
-0.069431
-0.0560578
-0.040207
-0.0273094
-0.017379
-0.00712094
0.00210011
0.0188465
0.0448229
0.104315
0.104383
0.148417
0.207649
0.189369
0.134708
0.0868378
0.0318639
-0.0587224
-0.15283
-0.215241
-0.246592
-0.254663
-0.251334
-0.240162
-0.230524
-0.225081
-0.224927
-0.225911
-0.22581
-0.226638
-0.229893
-0.233491
-0.234675
-0.247745
-0.29562
-0.334966
-0.296379
-0.0914022
-0.153699
-0.146127
-0.0933909
-0.0697432
-0.0558786
-0.0376667
-0.0230591
-0.0107985
0.00430057
0.0256699
0.0659536
0.117527
0.198645
0.0607237
0.0770363
0.228799
0.262823
0.199219
0.0908131
-0.0525443
-0.247462
-0.447755
-0.598246
-0.684684
-0.716725
-0.721217
-0.680008
-0.613191
-0.537544
-0.469471
-0.408948
-0.355172
-0.314621
-0.288171
-0.270828
-0.251705
-0.250493
-0.273734
-0.231157
-0.116971
-0.221552
-0.252528
-0.219138
-0.149541
-0.110985
-0.0863654
-0.0612407
-0.033254
-0.00939762
0.0192415
0.0601493
0.127016
0.210166
0.31223
0.170832
0.236752
0.412818
0.414959
0.293188
0.112662
-0.121616
-0.451378
-0.807209
-1.10374
-1.31309
-1.44423
-1.47783
-1.41043
-1.28335
-1.13253
-0.98821
-0.857417
-0.742749
-0.651664
-0.583023
-0.53549
-0.50231
-0.491979
-0.501413
-0.454479
-0.33747
-0.277854
-0.284433
-0.254609
-0.185823
-0.138267
-0.102836
-0.0675293
-0.0321575
0.00161611
0.0437817
0.104856
0.195535
0.30498
0.375393
0.267903
0.380603
0.554707
0.521579
0.327745
0.0742352
-0.273844
-0.757188
-1.29155
-1.76876
-2.11579
-2.36339
-2.42982
-2.32482
-2.10106
-1.83375
-1.57461
-1.34428
-1.15115
-0.994825
-0.868466
-0.773498
-0.708708
-0.672354
-0.660357
-0.608992
-0.53153
-0.329887
-0.331468
-0.288914
-0.216812
-0.161674
-0.116101
-0.0697335
-0.0274662
0.0177919
0.0753443
0.15724
0.270307
0.40004
0.424812
0.392425
0.547016
0.693781
0.60822
0.338802
-0.0146601
-0.502175
-1.17668
-1.94286
-2.68138
-3.25308
-3.6101
-3.68322
-3.53084
-3.16877
-2.727
-2.29905
-1.93
-1.62858
-1.39161
-1.20705
-1.06227
-0.949505
-0.877254
-0.834163
-0.789049
-0.746287
-0.377957
-0.367344
-0.3134
-0.239449
-0.177992
-0.123713
-0.0697747
-0.0156313
0.0415142
0.115151
0.215485
0.348787
0.490068
0.470475
0.524486
0.711855
0.814054
0.66672
0.317787
-0.160189
-0.817731
-1.71582
-2.74136
-3.7079
-4.59487
-5.3086
-5.36057
-5.06103
-4.50399
-3.83162
-3.17987
-2.61481
-2.16187
-1.81545
-1.555
-1.35774
-1.20601
-1.0901
-1.00901
-0.953549
-0.920389
-0.426362
-0.400174
-0.334796
-0.258317
-0.190259
-0.127968
-0.0676936
-0.00172742
0.0708233
0.162308
0.279748
0.42904
0.571488
0.564149
0.669782
0.866423
0.914453
0.703261
0.258347
-0.360641
-1.21839
-2.36114
-3.69461
-5.01692
-6.21983
-7.07861
-7.08059
-6.74831
-6.04164
-5.12792
-4.23848
-3.41582
-2.72892
-2.23577
-1.88417
-1.62969
-1.44213
-1.30027
-1.1939
-1.11337
-1.07589
-0.475172
-0.430159
-0.354282
-0.274629
-0.199561
-0.129422
-0.0588886
0.0174297
0.105435
0.212846
0.346564
0.50975
0.644901
0.691047
0.823503
1.00007
0.985667
0.721855
0.170548
-0.602327
-1.66777
-3.08493
-4.71204
-6.34603
-7.7724
-8.75327
-8.74746
-8.38095
-7.50857
-6.32135
-5.08547
-4.0691
-3.14772
-2.52044
-2.10635
-1.81819
-1.61235
-1.45911
-1.34352
-1.25194
-1.1937
-0.521765
-0.45997
-0.374149
-0.289924
-0.207061
-0.127919
-0.0466348
0.042267
0.144702
0.266853
0.415775
0.584008
0.722818
0.812146
0.961585
1.10272
1.04559
0.724501
0.0749586
-0.858081
-2.11651
-3.75171
-5.63811
-7.47877
-8.99389
-9.97954
-9.98397
-9.56057
-8.44501
-6.94991
-5.41919
-4.16213
-3.22054
-2.57238
-2.12997
-1.83388
-1.63707
-1.50116
-1.4041
-1.32444
-1.27494
-0.565121
-0.490216
-0.395639
-0.305228
-0.213794
-0.123431
-0.0308217
0.0706804
0.186271
0.321853
0.482027
0.65127
0.797433
0.921334
1.07603
1.17551
1.08786
0.715294
-0.0220718
-1.08873
-2.48366
-4.23873
-6.24792
-8.1952
-9.72039
-10.5478
-10.5527
-9.973
-8.75748
-7.12776
-5.52184
-4.11708
-3.16629
-2.46142
-2.00647
-1.73095
-1.55937
-1.44727
-1.3734
-1.31505
-1.29084
-0.607993
-0.52246
-0.420858
-0.322689
-0.221814
-0.118831
-0.0141753
0.0987876
0.225727
0.372437
0.538749
0.707438
0.86327
1.0186
1.1649
1.21589
1.09952
0.67828
-0.122273
-1.26277
-2.72126
-4.50634
-6.49318
-8.30469
-9.64743
-10.3571
-10.3492
-9.57963
-8.29487
-6.66276
-5.10341
-3.72577
-2.7148
-2.06838
-1.68057
-1.4707
-1.36248
-1.30589
-1.27799
-1.25564
-1.25371
-0.658491
-0.561298
-0.451605
-0.345376
-0.234603
-0.119173
0.000589216
0.126322
0.264536
0.420453
0.590572
0.763093
0.934285
1.09949
1.21426
1.22622
1.0634
0.6001
-0.212211
-1.37883
-2.86897
-4.6132
-6.46984
-8.1164
-9.2168
-9.65413
-9.35322
-8.32698
-6.96202
-5.39735
-3.93057
-2.75466
-1.93092
-1.4429
-1.20011
-1.10404
-1.08752
-1.10375
-1.13076
-1.15132
-1.18454
-0.718456
-0.60773
-0.489715
-0.373721
-0.254163
-0.127457
0.00745173
0.150232
0.301888
0.466274
0.639839
0.815379
0.986629
1.13078
1.20732
1.19402
0.982842
0.511407
-0.295612
-1.47536
-2.97694
-4.66033
-6.37147
-7.75898
-8.49844
-8.60242
-7.84215
-6.56455
-5.1614
-3.67911
-2.43554
-1.53984
-0.975824
-0.72002
-0.689656
-0.73047
-0.819279
-0.915896
-0.998876
-1.06083
-1.11749
-0.784883
-0.658931
-0.532629
-0.40476
-0.278384
-0.143476
-0.00308589
0.146184
0.302828
0.470568
0.642002
0.811593
0.969862
1.09206
1.14888
1.09243
0.844846
0.361395
-0.454526
-1.63941
-3.10689
-4.73568
-6.27675
-7.34946
-7.75117
-7.39463
-6.23739
-4.65864
-3.20462
-1.71375
-0.788518
-0.24414
-0.0295596
-0.092042
-0.238092
-0.436845
-0.634781
-0.804765
-0.934454
-1.03083
-1.10136
-0.879339
-0.731164
-0.599728
-0.452506
-0.322439
-0.175639
-0.0396408
0.110976
0.263279
0.432398
0.597785
0.757066
0.891281
0.985691
1.01588
0.89438
0.591816
0.0485697
-0.809353
-2.01718
-3.4253
-4.96894
-6.25692
-7.05532
-7.05874
-6.19712
-4.70218
-2.86779
-1.36183
0.247511
0.63693
0.86009
0.691438
0.37191
0.00730803
-0.316894
-0.58833
-0.802424
-0.972293
-1.09244
-1.17377
-1.06419
-0.882545
-0.774097
-0.585722
-0.469608
-0.287326
-0.15984
0.0196217
0.16663
0.346872
0.501676
0.64184
0.747018
0.807357
0.811023
0.622362
0.258492
-0.319154
-1.21872
-2.48758
-3.97274
-5.48735
-6.49262
-7.13982
-6.38379
-5.14139
-3.03469
-1.21261
0.378662
1.94735
1.49505
1.67399
0.906991
0.526456
0.0262358
-0.360497
-0.756675
-0.985176
-1.19893
-1.30743
-1.39154
-1.35551
-1.14756
-1.07746
-0.841293
-0.738704
-0.51226
-0.381631
-0.150769
0.00793641
0.207063
0.335142
0.445664
0.514887
0.537119
0.477029
0.224358
-0.216123
-0.678922
-1.54318
-2.78916
-4.29974
-6.05083
-6.83465
-7.49464
-6.24823
-4.73876
-1.83801
0.104935
1.79232
3.23699
1.94431
2.16481
0.785041
0.491741
-0.250105
-0.665347
-1.12748
-1.35894
-1.62331
-1.68627
-1.77402
-1.7672
-1.4533
-1.2356
-1.12997
-1.10973
-1.13322
-1.17646
-1.20228
-1.19626
-1.15627
-1.0734
-0.989013
-0.888507
-0.76739
-0.641082
-0.540561
-0.48079
-1.75527
-1.50634
-1.316
-1.20133
-1.1627
-1.16935
-1.19194
-1.2107
-1.21082
-1.18708
-1.14241
-1.0813
-0.995557
-0.886672
-0.757235
-0.673616
-0.551811
-1.72802
-1.53256
-1.38218
-1.26795
-1.21006
-1.19735
-1.20536
-1.21731
-1.22094
-1.21225
-1.17989
-1.12992
-1.08195
-1.0144
-0.907954
-0.822193
-0.675497
-1.69222
-1.52829
-1.40815
-1.30478
-1.23666
-1.20677
-1.20263
-1.20599
-1.20864
-1.20542
-1.19102
-1.16815
-1.14189
-1.10209
-1.03038
-0.950051
-0.803014
-1.64552
-1.51313
-1.40973
-1.32333
-1.25687
-1.21753
-1.20143
-1.19966
-1.20054
-1.20124
-1.19969
-1.19026
-1.17464
-1.15662
-1.12137
-1.05979
-0.938235
-1.59426
-1.48837
-1.40322
-1.32898
-1.27247
-1.23238
-1.20888
-1.19954
-1.19816
-1.19901
-1.1994
-1.19794
-1.1922
-1.18305
-1.17024
-1.13609
-1.06029
-1.54203
-1.46024
-1.38853
-1.32456
-1.27404
-1.23831
-1.21446
-1.20111
-1.19664
-1.1965
-1.19711
-1.19808
-1.19916
-1.19649
-1.19324
-1.17857
-1.14439
-1.48778
-1.42324
-1.36705
-1.31299
-1.26936
-1.23725
-1.21461
-1.20075
-1.19474
-1.19363
-1.19445
-1.19602
-1.19967
-1.20123
-1.20143
-1.20056
-1.19422
-1.4347
-1.38456
-1.33983
-1.29494
-1.25864
-1.23107
-1.2109
-1.19799
-1.19165
-1.18986
-1.19044
-1.19172
-1.19624
-1.20114
-1.20414
-1.20857
-1.21361
-1.38485
-1.34317
-1.30798
-1.27208
-1.24248
-1.21975
-1.20297
-1.1919
-1.18596
-1.18423
-1.18431
-1.18554
-1.19039
-1.19611
-1.20196
-1.20955
-1.22103
-1.33397
-1.30094
-1.27284
-1.24594
-1.22239
-1.20401
-1.19054
-1.18184
-1.17741
-1.17565
-1.1754
-1.17649
-1.18091
-1.18693
-1.19518
-1.20265
-1.22103
-1.28436
-1.25404
-1.23255
-1.2129
-1.19642
-1.18341
-1.1738
-1.16761
-1.16429
-1.16293
-1.16277
-1.16402
-1.16808
-1.17399
-1.18324
-1.18965
-1.21232
-1.23482
-1.2115
-1.19333
-1.17794
-1.16563
-1.15634
-1.14998
-1.14632
-1.14465
-1.14427
-1.1446
-1.14671
-1.15102
-1.15692
-1.16643
-1.17333
-1.19826
-1.17969
-1.15718
-1.1443
-1.13378
-1.12569
-1.12021
-1.11713
-1.1159
-1.11584
-1.1167
-1.11913
-1.12274
-1.12809
-1.13442
-1.14458
-1.1524
-1.17876
-1.12746
-1.10909
-1.09563
-1.08574
-1.07889
-1.07502
-1.07373
-1.07386
-1.07534
-1.07843
-1.08301
-1.08888
-1.096
-1.10354
-1.11502
-1.12365
-1.15177
-1.06696
-1.04867
-1.03813
-1.0295
-1.02299
-1.0191
-1.01778
-1.0182
-1.02115
-1.02576
-1.03193
-1.04004
-1.04906
-1.05985
-1.07314
-1.08258
-1.11382
-1.00823
-0.992272
-0.978658
-0.968101
-0.960153
-0.954537
-0.951242
-0.950094
-0.951977
-0.956431
-0.962754
-0.971429
-0.980909
-0.994926
-1.00739
-1.02259
-1.05486
-0.943386
-0.925693
-0.91191
-0.899777
-0.889853
-0.882065
-0.876289
-0.872496
-0.87066
-0.871102
-0.875254
-0.881777
-0.888981
-0.901399
-0.9095
-0.930988
-0.952267
-0.869868
-0.853038
-0.835726
-0.820465
-0.807579
-0.796741
-0.78783
-0.780774
-0.775534
-0.772092
-0.770398
-0.770099
-0.773377
-0.781187
-0.783691
-0.802144
-0.799907
-0.796242
-0.769201
-0.74684
-0.726138
-0.707538
-0.691033
-0.676622
-0.664341
-0.654259
-0.645486
-0.638166
-0.632116
-0.628086
-0.62547
-0.621327
-0.629379
-0.61926
-0.712187
-0.682482
-0.65316
-0.625177
-0.599044
-0.574857
-0.552566
-0.531974
-0.512861
-0.495082
-0.477956
-0.461217
-0.446257
-0.430713
-0.413375
-0.413409
-0.380739
-0.637217
-0.592792
-0.553793
-0.516957
-0.481946
-0.448258
-0.415143
-0.382849
-0.351891
-0.322104
-0.291358
-0.261707
-0.235352
-0.202665
-0.171805
-0.159806
-0.0948111
-0.543066
-0.496216
-0.448477
-0.401059
-0.354565
-0.309069
-0.263887
-0.219012
-0.175252
-0.130785
-0.0842349
-0.0411414
0.0010742
0.0562581
0.102321
0.131161
0.232334
-0.464653
-0.399117
-0.33804
-0.278209
-0.219508
-0.160908
-0.101735
-0.0428306
0.0158407
0.0776627
0.141725
0.201821
0.267139
0.347109
0.408647
0.458304
0.588662
-0.36532
-0.296185
-0.223321
-0.150703
-0.0781691
-0.00417293
0.0716578
0.147911
0.225593
0.307435
0.390366
0.469321
0.554458
0.653782
0.728733
0.796608
0.948304
-0.285805
-0.195128
-0.106538
-0.0190887
0.0695051
0.160179
0.252412
0.34518
0.439511
0.538111
0.637435
0.732945
0.83545
0.948582
1.03439
1.11521
1.27631
-0.186282
-0.0911598
0.0107543
0.113621
0.217589
0.324065
0.432292
0.540575
0.650314
0.764034
0.877163
0.986279
1.10282
1.2243
1.31546
1.40515
1.56685
-0.109034
0.00945621
0.127026
0.245313
0.364621
0.486454
0.609783
0.732171
0.855032
0.981147
1.1057
1.22543
1.35127
1.47683
1.5697
1.66295
1.81936
-0.0138022
0.110055
0.241037
0.375123
0.509377
0.645367
0.782543
0.917527
1.05086
1.18652
1.32046
1.44842
1.57934
1.70485
1.7962
1.88913
2.03592
0.058993
0.207754
0.353493
0.503141
0.651783
0.800769
0.950253
1.09636
1.23766
1.38019
1.52152
1.65508
1.78746
1.90933
1.99612
2.08592
2.22048
0.14922
0.304529
0.464991
0.629931
0.793241
0.954638
1.11467
1.27054
1.41832
1.5637
1.70885
1.84595
1.97653
2.09182
2.17117
2.25491
2.37693
0.220707
0.401504
0.577475
0.75743
0.934683
1.10787
1.27651
1.4397
1.59292
1.7385
1.88286
2.0208
2.14693
2.25312
2.32438
2.39867
2.50746
0.311607
0.499049
0.691536
0.886224
1.0766
1.26039
1.43597
1.60312
1.75926
1.90436
2.04482
2.17927
2.29842
2.39402
2.45721
2.52105
2.61523
0.386617
0.600692
0.808753
1.0181
1.22008
1.41237
1.59309
1.76162
1.91715
2.05993
2.19496
2.32222
2.43178
2.5159
2.57037
2.62427
2.7039
0.48703
0.706596
0.930962
1.15457
1.36587
1.56407
1.74733
1.91505
2.06707
2.20489
2.33289
2.4506
2.54806
2.61957
2.66567
2.71028
2.77591
0.573606
0.821449
1.0613
1.29696
1.51498
1.71612
1.89865
2.06276
2.20889
2.33937
2.45846
2.56482
2.64824
2.70655
2.74506
2.7814
2.83345
0.695551
0.944295
1.2003
1.44409
1.66688
1.86675
2.04587
2.20381
2.34199
2.46315
2.57125
2.66431
2.73251
2.77822
2.80993
2.83919
2.87923
0.805667
1.08336
1.3531
1.60102
1.82472
2.02151
2.1924
2.33974
2.46649
2.57563
2.67059
2.74884
2.80193
2.83687
2.86251
2.88466
2.91443
0.964784
1.23162
1.51094
1.75737
1.97648
2.16465
2.32325
2.45914
2.57573
2.6747
2.75776
2.82137
2.86162
2.88738
2.90646
2.92242
2.94219
1.11399
1.41283
1.6954
1.93746
2.1485
2.32476
2.47046
2.5928
2.69467
2.77697
2.84004
2.88334
2.90875
2.92583
2.93854
2.9499
2.9647
3.37092
3.43268
3.49115
3.53782
3.59271
3.63711
3.68697
3.7294
3.77741
3.82108
3.87058
3.92026
3.97517
4.03274
4.09372
4.15739
4.21635
4.28382
4.34354
4.41726
4.47812
4.55922
4.60713
4.68101
4.68224
4.71292
4.67176
4.62963
4.51986
4.38956
4.20419
3.94367
3.69169
3.32666
3.04221
2.63506
2.36342
2.00477
1.78015
1.50253
1.32659
3.34664
3.41247
3.46691
3.51541
3.56221
3.60787
3.65146
3.69452
3.73755
3.78225
3.82784
3.87568
3.92579
3.97898
4.03511
4.09348
4.15067
4.20847
4.26568
4.32758
4.38597
4.44923
4.49777
4.54753
4.56091
4.56675
4.5391
4.48474
4.39082
4.26473
4.0904
3.87313
3.62785
3.3493
3.0568
2.76395
2.47699
2.21621
1.98107
1.7727
1.58129
3.33155
3.39581
3.44767
3.49315
3.53779
3.58132
3.62308
3.66446
3.70628
3.74876
3.79192
3.83664
3.88333
3.93253
3.98436
4.03868
4.0928
4.14527
4.19756
4.25102
4.30342
4.35501
4.39794
4.43338
4.4459
4.4409
4.4125
4.35666
4.26726
4.14854
3.98945
3.79904
3.58103
3.34371
3.09468
2.84642
2.60662
2.38792
2.18971
2.00911
1.84122
3.32086
3.38151
3.42998
3.47394
3.51713
3.5586
3.59894
3.63924
3.67956
3.72022
3.76161
3.80416
3.84822
3.89418
3.9422
3.99218
4.04309
4.09123
4.13797
4.18442
4.22969
4.27221
4.30754
4.33262
4.34043
4.32964
4.2989
4.24212
4.15735
4.04503
3.90106
3.73096
3.53937
3.33331
3.12046
2.90897
2.70963
2.52665
2.36069
2.20665
2.06194
3.3111
3.36895
3.41434
3.45716
3.49851
3.53848
3.57792
3.61709
3.65622
3.69565
3.73563
3.77642
3.81829
3.86155
3.90634
3.95248
3.99969
4.04446
4.08617
4.12641
4.16481
4.19939
4.22665
4.2437
4.24559
4.23059
4.19646
4.1386
4.05803
3.95278
3.82201
3.67007
3.50172
3.32339
3.14251
2.96574
2.79886
2.64592
2.50715
2.37748
2.2545
3.30162
3.35665
3.39946
3.44105
3.48122
3.52027
3.5589
3.59729
3.63568
3.67426
3.71321
3.75269
3.79286
3.8339
3.87596
3.91878
3.9621
4.00389
4.0412
4.07587
4.10777
4.13485
4.15475
4.16542
4.16108
4.14176
4.10413
4.04576
3.96971
3.87166
3.75259
3.61636
3.46805
3.31387
3.16042
3.01261
2.87186
2.74277
2.62601
2.51782
2.41487
3.29128
3.34306
3.3841
3.42523
3.46447
3.50297
3.54118
3.57922
3.61725
3.65537
3.69365
3.73218
3.77103
3.8103
3.85008
3.89012
3.92989
3.9686
4.0022
4.03184
4.05753
4.07801
4.09189
4.09566
4.08583
4.0617
4.02097
3.96413
3.89154
3.80078
3.69275
3.57019
3.43947
3.30626
3.1755
3.0493
2.92861
2.81798
2.7191
2.63029
2.54668
3.28254
3.33015
3.36923
3.40942
3.44778
3.48584
3.52382
3.56178
3.59981
3.63787
3.67593
3.714
3.75212
3.79021
3.82821
3.86592
3.90267
3.93792
3.96838
3.99335
4.01357
4.02882
4.03655
4.03318
4.01813
3.98977
3.94736
3.89303
3.82358
3.73917
3.64101
3.53202
3.4172
3.30141
3.187
3.07588
2.97179
2.87741
2.79445
2.72322
2.65804
3.27565
3.31904
3.35592
3.39431
3.43147
3.46881
3.50646
3.54446
3.58277
3.62121
3.65962
3.69785
3.73561
3.77269
3.80923
3.845
3.87926
3.91135
3.93895
3.95977
3.97582
3.98602
3.98641
3.97754
3.95777
3.92643
3.88456
3.83106
3.76463
3.68586
3.59647
3.49952
3.39885
3.29718
3.19575
3.09835
3.00812
2.92705
2.85702
2.79982
2.75018
3.27089
3.31006
3.34442
3.38063
3.41647
3.45285
3.49002
3.52794
3.56647
3.60539
3.64427
3.6825
3.71988
3.7563
3.79195
3.82653
3.859
3.88843
3.91342
3.93098
3.94336
3.94707
3.94225
3.92851
3.90518
3.87261
3.83049
3.77756
3.71382
3.64022
3.55865
3.47183
3.38231
3.2915
3.20141
3.11546
3.03663
2.96648
2.907
2.86041
2.82268
3.26911
3.30324
3.33461
3.36842
3.4029
3.43834
3.47488
3.51235
3.55067
3.5896
3.62862
3.66712
3.70541
3.74234
3.77748
3.81106
3.84198
3.86907
3.89166
3.90666
3.91416
3.91308
3.90389
3.88652
3.86107
3.82695
3.78373
3.73128
3.67007
3.60123
3.52655
3.44805
3.36719
3.28489
3.20424
3.12755
3.05728
2.99569
2.94459
2.90563
2.87552
3.26886
3.29852
3.32662
3.35742
3.39005
3.42431
3.46014
3.49725
3.53558
3.57468
3.61489
3.65514
3.69423
3.73175
3.76663
3.79864
3.82789
3.85302
3.87348
3.8857
3.88868
3.88427
3.87201
3.8523
3.82439
3.78834
3.74413
3.69207
3.63294
3.56796
3.49868
3.42643
3.35202
3.27658
3.20312
3.13382
3.07054
3.01588
2.97126
2.93751
2.91061
3.26984
3.29488
3.31986
3.34764
3.37831
3.41125
3.44654
3.48378
3.52264
3.56291
3.60337
3.6439
3.68352
3.72155
3.75689
3.78811
3.81598
3.83977
3.85851
3.86731
3.86787
3.86132
3.84671
3.82449
3.79459
3.75714
3.71239
3.66082
3.6033
3.54096
3.47504
3.40652
3.3361
3.26571
3.19827
3.13562
3.07921
3.03013
2.99003
2.95906
2.932
3.2717
3.2919
3.31385
3.33874
3.36763
3.39956
3.43454
3.47189
3.51082
3.55091
3.59137
3.63212
3.67242
3.71132
3.74756
3.77963
3.80646
3.829
3.84611
3.8526
3.85194
3.84332
3.8268
3.80273
3.7713
3.73283
3.68778
3.63675
3.58053
3.52002
3.45608
3.38979
3.32241
3.25698
3.19502
3.13782
3.08653
3.0416
3.00378
2.97292
2.94531
3.27529
3.2903
3.30909
3.33004
3.35597
3.38631
3.42006
3.45683
3.49572
3.53572
3.57732
3.6194
3.66097
3.70127
3.73889
3.77213
3.79977
3.82074
3.83637
3.84248
3.84035
3.83005
3.81182
3.78604
3.75301
3.71321
3.66723
3.61585
3.55991
3.50033
3.43797
3.37413
3.31086
3.24985
3.19219
3.13912
3.09144
3.04939
3.01284
2.98121
2.95436
3.28355
3.29134
3.30497
3.32261
3.3448
3.37199
3.40384
3.44001
3.47967
3.52159
3.56455
3.60779
3.65071
3.69238
3.73135
3.76575
3.7943
3.81607
3.83071
3.83669
3.83347
3.82169
3.80165
3.77377
3.73856
3.69661
3.64865
3.59559
3.53843
3.47833
3.41665
3.35456
3.29352
3.23523
3.18109
3.13178
3.08764
3.04865
3.01478
2.98578
2.96317
3.29827
3.29329
3.30138
3.31693
3.33786
3.36389
3.39503
3.43072
3.47027
3.51251
3.55592
3.59994
3.6436
3.68605
3.72586
3.76172
3.79161
3.81428
3.82901
3.83459
3.83108
3.81829
3.79679
3.76707
3.72977
3.68568
3.6357
3.58081
3.52217
3.461
3.39881
3.33739
3.27853
3.22317
3.1719
3.1252
3.08324
3.04635
3.01521
2.99113
2.97681
-0.358646
-0.385382
-0.420588
-0.490531
-0.537242
-0.576399
-0.605862
-0.635081
-0.667808
-0.702191
-0.740042
-0.79615
-0.870382
-0.940375
-1.02785
-1.19567
-1.45333
-0.40917
-0.499259
-0.525331
-0.578251
-0.616297
-0.656484
-0.694417
-0.73485
-0.778826
-0.823467
-0.871461
-0.937634
-1.01823
-1.08535
-1.20259
-1.51988
-1.93844
-0.522995
-0.625989
-0.650264
-0.699196
-0.739537
-0.782002
-0.823086
-0.867456
-0.916203
-0.967208
-1.02487
-1.10255
-1.19754
-1.29713
-1.46208
-1.75079
-2.08597
-0.654174
-0.754034
-0.782939
-0.831477
-0.873838
-0.918803
-0.964094
-1.01421
-1.06959
-1.12685
-1.1914
-1.27563
-1.37265
-1.47614
-1.59047
-1.70808
-1.93197
-0.808773
-0.902794
-0.933776
-0.983116
-1.02602
-1.07122
-1.11686
-1.16752
-1.22391
-1.28175
-1.34968
-1.44427
-1.54032
-1.61542
-1.77499
-2.06722
-2.35686
-0.984034
-1.0741
-1.10564
-1.15371
-1.19573
-1.24044
-1.28672
-1.33848
-1.39733
-1.46103
-1.53447
-1.63667
-1.75317
-1.85553
-2.02571
-2.32679
-2.6318
-1.17814
-1.25989
-1.29124
-1.33545
-1.37664
-1.421
-1.46858
-1.52228
-1.58161
-1.64844
-1.72851
-1.82212
-1.92418
-2.01927
-2.11214
-2.25635
-2.49156
-1.38109
-1.44632
-1.47464
-1.51184
-1.54824
-1.58691
-1.6286
-1.67733
-1.73194
-1.78798
-1.8593
-1.95303
-2.03787
-2.11438
-2.24344
-2.42881
-2.61445
-1.57926
-1.62889
-1.65619
-1.68993
-1.72513
-1.76346
-1.80619
-1.85642
-1.91589
-1.98201
-2.05915
-2.14918
-2.23344
-2.30969
-2.44235
-2.65428
-2.84157
-1.75932
-1.79364
-1.81943
-1.84875
-1.88098
-1.91684
-1.95909
-2.00769
-2.0608
-2.11922
-2.18373
-2.25575
-2.33346
-2.40609
-2.47766
-2.5892
-2.72455
-1.91671
-1.93556
-1.95734
-1.97952
-2.00657
-2.03744
-2.07301
-2.11226
-2.15492
-2.2014
-2.25105
-2.30168
-2.35273
-2.40516
-2.45793
-2.51648
-2.59176
-2.04456
-2.05067
-2.07185
-2.09404
-2.12102
-2.15154
-2.18537
-2.22186
-2.26072
-2.30159
-2.34503
-2.38924
-2.43017
-2.46872
-2.51804
-2.59314
-2.67278
-2.12588
-2.12563
-2.14038
-2.15617
-2.17423
-2.19366
-2.21419
-2.23535
-2.25742
-2.28144
-2.30737
-2.33285
-2.35654
-2.37925
-2.41023
-2.46941
-2.54072
-2.1475
-2.14417
-2.14917
-2.15511
-2.16286
-2.17198
-2.18157
-2.19179
-2.20271
-2.21411
-2.22569
-2.23664
-2.24498
-2.24801
-2.24426
-2.24856
-2.27537
-2.10348
-2.09325
-2.09427
-2.09608
-2.09858
-2.1027
-2.1077
-2.11411
-2.12125
-2.12915
-2.13804
-2.14769
-2.15746
-2.16809
-2.18356
-2.20849
-2.24438
-1.99053
-1.97825
-1.97083
-1.97191
-1.97079
-1.9719
-1.97297
-1.97449
-1.97597
-1.97754
-1.97944
-1.98181
-1.98425
-1.9863
-1.99241
-2.01609
-2.05142
-1.81165
-1.80955
-1.7978
-1.79978
-1.79444
-1.79245
-1.78927
-1.7859
-1.78342
-1.78165
-1.77952
-1.77674
-1.77579
-1.77456
-1.76229
-1.74591
-1.75015
-1.56962
-1.57424
-1.56234
-1.56457
-1.55942
-1.55712
-1.55637
-1.55668
-1.55785
-1.55994
-1.56309
-1.56761
-1.57368
-1.58088
-1.5895
-1.60305
-1.63007
-1.27595
-1.28349
-1.27168
-1.27446
-1.2756
-1.27727
-1.27991
-1.28308
-1.28688
-1.29141
-1.29671
-1.30286
-1.30991
-1.31765
-1.32717
-1.34355
-1.36509
-0.947251
-0.957165
-0.949371
-0.953476
-0.957819
-0.962582
-0.968887
-0.976145
-0.984384
-0.993728
-1.00409
-1.01531
-1.02704
-1.03879
-1.04948
-1.05678
-1.05751
-0.578421
-0.595886
-0.593651
-0.600832
-0.609053
-0.617233
-0.627441
-0.639035
-0.651971
-0.666639
-0.683274
-0.702215
-0.723986
-0.749126
-0.778373
-0.81093
-0.855118
-0.194961
-0.221747
-0.220495
-0.23036
-0.244909
-0.255982
-0.27
-0.286186
-0.303101
-0.321477
-0.34128
-0.362173
-0.384334
-0.408334
-0.435963
-0.471565
-0.523233
0.191793
0.156129
0.156519
0.146919
0.12683
0.111803
0.0942221
0.0723829
0.0492751
0.0239529
-0.0043014
-0.03473
-0.0668365
-0.0994556
-0.130104
-0.154819
-0.165755
0.578225
0.535472
0.532479
0.523406
0.499249
0.48062
0.461164
0.436062
0.409132
0.380016
0.346687
0.308976
0.265991
0.216452
0.158244
0.0913952
0.0183825
0.949283
0.900733
0.893836
0.885075
0.85779
0.835459
0.814158
0.786583
0.756758
0.725757
0.691521
0.654211
0.613972
0.570296
0.518836
0.459148
0.371208
1.29725
1.24493
1.23488
1.22593
1.19654
1.17104
1.14786
1.11791
1.08447
1.04941
1.01041
0.967177
0.920773
0.872713
0.823895
0.785954
0.738063
1.61821
1.56365
1.54996
1.54045
1.51029
1.48319
1.4595
1.42932
1.39524
1.35958
1.3197
1.27409
1.22236
1.16222
1.0914
1.00504
0.90944
1.90533
1.84899
1.83276
1.82408
1.79365
1.76546
1.74184
1.71217
1.67838
1.64359
1.60563
1.56341
1.51742
1.46697
1.40908
1.33573
1.23324
2.16045
2.10398
2.08561
2.07677
2.04701
2.01865
1.99545
1.96679
1.93368
1.89925
1.86136
1.81866
1.77145
1.72183
1.66793
1.6272
1.55892
2.38264
2.32715
2.30762
2.29823
2.26978
2.24251
2.22057
2.1941
2.16353
2.13176
2.09676
2.05653
2.01027
1.95618
1.88934
1.80588
1.69934
2.57311
2.51918
2.49914
2.48929
2.46253
2.43698
2.41675
2.39293
2.3656
2.33737
2.30667
2.27181
2.23284
2.18804
2.13706
2.06764
1.97812
2.73486
2.68291
2.66261
2.65199
2.6271
2.60377
2.58556
2.56472
2.54116
2.51692
2.49044
2.46004
2.42455
2.38417
2.33784
2.29953
2.23847
2.87063
2.8208
2.8006
2.78907
2.76584
2.74485
2.72876
2.71103
2.69163
2.67206
2.65077
2.62548
2.59406
2.557
2.5082
2.45101
2.34001
2.9828
2.93602
2.91609
2.90353
2.88168
2.86289
2.84877
2.83391
2.81849
2.80359
2.78751
2.76742
2.74239
2.71318
2.67968
2.6332
2.57267
3.07309
3.03021
3.01135
2.99824
2.97781
2.96093
2.94852
2.93616
2.92422
2.9136
2.9023
2.88765
2.86941
2.84854
2.82442
2.80329
2.76716
3.14502
3.10739
3.08924
3.07567
3.05693
3.04169
3.0307
3.02055
3.01156
3.00455
2.99758
2.98851
2.97675
2.96321
2.94142
2.91813
2.83132
3.20055
3.16912
3.15184
3.13808
3.1211
3.1073
3.09758
3.08958
3.08332
3.07945
3.07643
3.07255
3.06704
3.05987
3.0483
3.03181
2.99977
3.24007
3.21499
3.20112
3.18903
3.17428
3.16173
3.15294
3.14676
3.14297
3.14204
3.14262
3.14324
3.1432
3.14225
3.14027
3.1392
3.14148
3.26879
3.25149
3.24034
3.23112
3.21996
3.20949
3.20173
3.19684
3.19511
3.19678
3.19998
3.2041
3.20826
3.21214
3.21384
3.21658
3.18178
3.29136
3.27563
3.26613
3.26013
3.25389
3.24775
3.24303
3.24057
3.24128
3.24453
3.24984
3.25672
3.26408
3.27179
3.278
3.28475
3.27788
-1.41672
-1.05788
-0.67282
-0.288842
-0.010678
0.128997
0.0937074
-0.440594
-1.71946
-4.05412
-6.79409
-6.9087
-3.04788
1.13918
3.59433
2.04078
0.127887
-1.17319
-1.78911
-1.97462
-1.63427
-1.26609
-0.864227
-0.533548
-0.353017
-0.302444
-0.512949
-1.23274
-2.59813
-5.09176
-7.7022
-7.29282
-3.19294
1.5274
3.96696
2.08705
-0.174345
-1.51884
-2.10895
-2.23546
-1.89741
-1.53537
-1.146
-0.914626
-0.819298
-0.889773
-1.30566
-2.24365
-3.88755
-6.51618
-8.83746
-7.91568
-3.45556
1.67981
4.0431
1.89975
-0.593333
-1.94545
-2.47749
-2.54989
-2.23357
-1.90645
-1.58084
-1.46072
-1.45152
-1.69006
-2.34781
-3.54698
-5.58002
-8.3289
-10.2295
-8.67433
-3.85848
1.53428
3.75022
1.33794
-1.1634
-2.44909
-2.89662
-2.91881
-2.66501
-2.40999
-2.19067
-2.16498
-2.30303
-2.7431
-3.7017
-5.26859
-7.61031
-10.4341
-11.7263
-9.53144
-4.39462
1.12067
3.04309
0.499662
-1.89907
-3.04595
-3.3811
-3.33756
-3.21859
-3.09156
-2.98927
-3.10231
-3.41673
-4.12252
-5.46876
-7.52243
-10.1585
-12.8095
-13.1778
-10.3768
-5.0433
0.394844
1.91757
-0.629439
-2.83654
-3.74633
-3.95005
-3.81055
-3.93485
-3.97897
-4.01295
-4.30365
-4.84131
-5.94929
-7.79602
-10.2255
-13.0408
-15.2039
-14.5757
-11.1478
-5.75936
-0.686812
0.364711
-2.0822
-3.97549
-4.5572
-4.60944
-4.34942
-4.87011
-5.07259
-5.2951
-5.82017
-6.74519
-8.43922
-10.7875
-13.4444
-15.9714
-17.1403
-15.7223
-11.8344
-6.5731
-2.35204
-1.62122
-3.90681
-5.29288
-5.54694
-5.37183
-4.96449
-6.02901
-6.47046
-6.97092
-7.89653
-9.4869
-11.7343
-14.2037
-16.7301
-18.7135
-18.5683
-16.5945
-12.4032
-7.57727
-4.49787
-4.01661
-6.12189
-6.86727
-6.85198
-6.27986
-5.66507
-7.48699
-8.30179
-9.2561
-10.8088
-12.9396
-15.1895
-17.5652
-19.7257
-20.5317
-19.5415
-17.0674
-12.7826
-8.83826
-6.94655
-6.83054
-8.70028
-8.86696
-8.53144
-7.37915
-6.46429
-9.38253
-10.6105
-12.1319
-14.0174
-16.1707
-18.4433
-20.3715
-21.5786
-21.3362
-19.9516
-16.9338
-13.0699
-10.4545
-9.61543
-10.0628
-11.6456
-11.3612
-10.2827
-8.70664
-7.39803
-11.5948
-13.2006
-15.0633
-17.0248
-19.0064
-20.7286
-21.7862
-22.0809
-21.3127
-19.201
-16.0823
-13.4611
-12.2759
-12.4234
-13.5687
-14.9145
-14.198
-12.1179
-10.3403
-8.4982
-13.8416
-15.5875
-17.4505
-19.124
-20.4114
-21.1936
-21.454
-21.1706
-19.8705
-17.5997
-15.3491
-14.0562
-14.0085
-15.2475
-17.0065
-18.1745
-17.1438
-14.4999
-11.9848
-9.74992
-15.4074
-16.8938
-18.2839
-19.2627
-19.8352
-20.0405
-19.8696
-19.2079
-17.8601
-16.168
-15.0401
-14.8151
-15.7939
-17.7322
-19.7399
-20.772
-19.6923
-17.0559
-13.7144
-11.2083
-16.0821
-16.6382
-17.3564
-17.7345
-17.8818
-17.7742
-17.3935
-16.7535
-15.8576
-15.0254
-14.9213
-15.6667
-17.2604
-19.3392
-21.2156
-22.095
-21.2341
-19.1665
-16.0542
-12.7906
-14.4548
-14.5921
-14.9309
-15.1131
-15.165
-15.076
-14.8493
-14.5265
-14.1897
-14.2496
-14.7461
-15.8941
-17.6579
-19.5815
-21.2419
-21.9831
-21.3386
-19.9298
-18.0534
-15.2068
-11.2978
-11.654
-12.1427
-12.4874
-12.6918
-12.7836
-12.8036
-12.8568
-13.0728
-13.5183
-14.3477
-15.5958
-17.248
-18.9642
-20.2614
-20.8053
-20.3946
-19.3144
-18.2466
-17.1087
-8.93664
-9.69363
-10.4159
-10.8773
-11.1754
-11.3839
-11.5811
-11.8347
-12.2164
-12.8399
-13.7429
-14.9442
-16.3825
-17.7172
-18.718
-19.1897
-18.9545
-18.2317
-17.4696
-16.9538
-8.92654
-9.67516
-10.1834
-10.4608
-10.645
-10.7811
-10.9459
-11.1917
-11.5876
-12.1919
-13.0271
-14.0806
-15.2522
-16.3307
-17.1775
-17.6729
-17.5792
-17.1659
-16.4968
-15.9794
-10.0578
-9.9729
-9.93538
-9.87862
-9.88623
-9.95358
-10.1269
-10.4558
-10.9017
-11.501
-12.2872
-13.2099
-14.1681
-15.0318
-15.7068
-16.1543
-16.2258
-16.1004
-15.8903
-15.8217
-16.1875
-14.8095
-14.7442
-14.6474
-13.1594
-11.3921
-10.1767
-9.07626
-7.97777
-6.95959
-6.07136
-5.31217
-4.65873
-4.09441
-3.60705
-3.18483
-2.8181
-2.50117
-2.22912
-1.99816
-17.0162
-14.8149
-14.5809
-14.2473
-12.5637
-10.9108
-9.59672
-8.41659
-7.3217
-6.36217
-5.5522
-4.86981
-4.28667
-3.78412
-3.35057
-2.9763
-2.6527
-2.37319
-2.13139
-1.92318
-17.9432
-14.9446
-14.6082
-13.5904
-11.8826
-10.3177
-8.97057
-7.80848
-6.78148
-5.88673
-5.12654
-4.48447
-3.9384
-3.47213
-3.07423
-2.73471
-2.44395
-2.19358
-1.97801
-1.79475
-18.8592
-15.5986
-14.9512
-13.1256
-11.3702
-9.80953
-8.44241
-7.28513
-6.2863
-5.42762
-4.70567
-4.10296
-3.59642
-3.16843
-2.80548
-2.49617
-2.2321
-2.00962
-1.81977
-1.66064
-19.6934
-16.6495
-15.1137
-12.6329
-10.945
-9.35629
-7.9716
-6.82724
-5.85664
-5.03473
-4.34958
-3.78033
-3.30365
-2.90184
-2.56025
-2.2741
-2.03569
-1.83636
-1.668
-1.52973
-20.3811
-17.5589
-15.0061
-12.2907
-10.6141
-8.9601
-7.57437
-6.44471
-5.49509
-4.70107
-4.04256
-3.49572
-3.03704
-2.65319
-2.33634
-2.07379
-1.8563
-1.67571
-1.52554
-1.40413
-20.817
-17.738
-14.8096
-11.9258
-10.2493
-8.54115
-7.19688
-6.09197
-5.16604
-4.39727
-3.75993
-3.2314
-2.79555
-2.43554
-2.13912
-1.89459
-1.69288
-1.52637
-1.39038
-1.28055
-20.9071
-17.2272
-14.5841
-11.5264
-9.89594
-8.13308
-6.83301
-5.75266
-4.85552
-4.11598
-3.50536
-3.00131
-2.58648
-2.24491
-1.96383
-1.73226
-1.54155
-1.38489
-1.25818
-1.15448
-20.7953
-16.4648
-14.367
-11.097
-9.54773
-7.76228
-6.51009
-5.45423
-4.58828
-3.87598
-3.28884
-2.80465
-2.40596
-2.07766
-1.80703
-1.58359
-1.39917
-1.24738
-1.12356
-1.02374
-20.6904
-15.7378
-14.1454
-10.6774
-9.21409
-7.43063
-6.22591
-5.19722
-4.36345
-3.6761
-3.10875
-2.63948
-2.25163
-1.93133
-1.66628
-1.44647
-1.26374
-1.11112
-0.984976
-0.885587
-20.7143