/*--------------------------------*- C++ -*----------------------------------*\
  =========                 |
  \\      /  F ield         | OpenFOAM: The Open Source CFD Toolbox
   \\    /   O peration     | Website:  https://openfoam.org
    \\  /    A nd           | Version:  6
     \\/     M anipulation  |
\*---------------------------------------------------------------------------*/
FoamFile
{
    version     2.0;
    format      ascii;
    class       volScalarField;
    location    "2.05";
    object      rho;
}
// * * * * * * * * * * * * * * * * * * * * * * * * * * * * * * * * * * * * * //

dimensions      [1 -3 0 0 0 0 0];

internalField   nonuniform List<scalar> 
5625
(
1.4
1.4
1.4
1.4
1.4
1.4
1.4
1.4
1.4
1.4
1.4
1.4
1.4
1.4
1.40001
1.40001
1.40001
1.40001
1.40001
1.40001
1.40001
1.40001
1.40001
1.40001
1.40001
1.40001
1.40001
1.40001
1.40001
1.40001
1.40001
1.40001
1.40001
1.40001
1.40001
1.40001
1.4
1.40001
1.40001
1.40001
1.40001
1.40001
1.40001
1.40001
1.40001
1.40001
1.40001
1.40001
1.40001
1.40001
1.40001
1.40001
1.40001
1.40001
1.40001
1.40001
1.40001
1.40001
1.40001
1.40001
1.40001
1.40001
1.40001
1.40001
1.40001
1.40001
1.40001
1.40001
1.40001
1.40001
1.40001
1.40001
1.40001
1.40001
1.40001
1.4
1.4
1.4
1.4
1.4
1.4
1.4
1.4
1.4
1.4
1.4
1.4
1.4
1.40001
1.40001
1.40001
1.40001
1.40001
1.40001
1.40001
1.40001
1.40001
1.40001
1.40001
1.40001
1.40001
1.40001
1.40001
1.40001
1.40001
1.40001
1.40001
1.40001
1.40001
1.40001
1.40001
1.4
1.4
1.4
1.4
1.4
1.40001
1.40001
1.40001
1.40001
1.40001
1.40001
1.40001
1.40001
1.40001
1.40001
1.40001
1.40001
1.40001
1.40001
1.40001
1.40001
1.40001
1.40001
1.40001
1.40001
1.40001
1.40001
1.40001
1.40001
1.40001
1.40001
1.40001
1.40001
1.40001
1.40001
1.40001
1.40001
1.40001
1.40001
1.4
1.4
1.4
1.4
1.4
1.4
1.4
1.4
1.4
1.4
1.4
1.4
1.4
1.40001
1.40001
1.40001
1.40001
1.40001
1.40001
1.40001
1.40001
1.40001
1.40001
1.40001
1.40001
1.40001
1.40001
1.40001
1.40001
1.40001
1.40001
1.40001
1.40001
1.40001
1.40001
1.40001
1.40001
1.40001
1.40001
1.4
1.4
1.40001
1.40001
1.40001
1.40001
1.40001
1.40001
1.40001
1.40001
1.40001
1.40001
1.40001
1.40001
1.40001
1.40001
1.40001
1.40001
1.40001
1.40001
1.40001
1.40001
1.40001
1.40001
1.40001
1.40001
1.40001
1.40001
1.40001
1.40001
1.40001
1.40001
1.40001
1.40001
1.40001
1.40001
1.4
1.4
1.4
1.4
1.4
1.4
1.4
1.4
1.4
1.4
1.4
1.4
1.4
1.40001
1.40001
1.40001
1.40001
1.40001
1.40001
1.40001
1.40001
1.40001
1.40001
1.40001
1.40001
1.40001
1.40001
1.40001
1.40001
1.40001
1.40001
1.40001
1.40001
1.40001
1.40001
1.40001
1.40001
1.40001
1.40001
1.40001
1.4
1.4
1.4
1.40001
1.40001
1.40001
1.40001
1.40001
1.40001
1.40001
1.40001
1.40001
1.40001
1.40001
1.40001
1.40001
1.40001
1.40001
1.40001
1.40001
1.40001
1.40001
1.40001
1.40001
1.40001
1.40001
1.40001
1.40001
1.40001
1.40001
1.40001
1.40001
1.40001
1.40001
1.40001
1.4
1.4
1.4
1.4
1.4
1.4
1.4
1.4
1.4
1.4
1.4
1.4
1.4
1.40001
1.40001
1.40001
1.40001
1.40001
1.40001
1.40001
1.40001
1.40001
1.40001
1.40001
1.40001
1.40001
1.40001
1.40001
1.40001
1.40001
1.40001
1.40001
1.40001
1.40001
1.40001
1.40001
1.40001
1.40001
1.40001
1.40001
1.40001
1.40001
1.4
1.40001
1.40001
1.40001
1.40001
1.40001
1.40001
1.40001
1.40001
1.40001
1.40001
1.40001
1.40001
1.40001
1.40001
1.40001
1.40001
1.40001
1.40001
1.40001
1.40001
1.40001
1.40001
1.40001
1.40001
1.40001
1.40001
1.40001
1.40001
1.40001
1.40001
1.40001
1.40001
1.4
1.4
1.4
1.4
1.4
1.4
1.4
1.4
1.4
1.4
1.4
1.4
1.4
1.40001
1.40001
1.40001
1.40001
1.40001
1.40001
1.40001
1.40001
1.40001
1.40001
1.40001
1.40001
1.40001
1.40001
1.40001
1.40001
1.40001
1.40001
1.40001
1.40001
1.40001
1.40001
1.40001
1.40001
1.40001
1.40001
1.40001
1.40001
1.40001
1.40001
1.40001
1.40001
1.40001
1.40001
1.40001
1.40001
1.40001
1.40001
1.40001
1.40001
1.40001
1.40001
1.40001
1.40001
1.40001
1.40001
1.40001
1.40001
1.40001
1.40001
1.40001
1.40001
1.40001
1.40001
1.40001
1.40001
1.40001
1.40001
1.40001
1.40001
1.40001
1.40001
1.4
1.4
1.4
1.4
1.4
1.4
1.4
1.4
1.4
1.4
1.4
1.4
1.4
1.40001
1.40001
1.40001
1.40001
1.40001
1.40001
1.40001
1.40001
1.40001
1.40001
1.40001
1.40001
1.40001
1.40001
1.40001
1.40001
1.40001
1.40001
1.40001
1.40001
1.40001
1.40001
1.40001
1.40001
1.40001
1.40001
1.40001
1.40001
1.40001
1.40001
1.40001
1.40001
1.40001
1.40001
1.40001
1.40001
1.40001
1.40001
1.40001
1.40001
1.40001
1.40001
1.40001
1.40001
1.40001
1.40001
1.40001
1.40001
1.40001
1.40001
1.40001
1.40001
1.40001
1.40001
1.40001
1.40001
1.40001
1.40001
1.40001
1.40001
1.40001
1.40001
1.4
1.4
1.4
1.4
1.4
1.4
1.4
1.4
1.4
1.4
1.4
1.4
1.4
1.40001
1.40001
1.40001
1.40001
1.40001
1.40001
1.40001
1.40001
1.40001
1.40001
1.40001
1.40001
1.40001
1.40001
1.40001
1.40001
1.40001
1.40001
1.40001
1.40001
1.40001
1.40001
1.40001
1.40001
1.40001
1.40001
1.40001
1.40001
1.40001
1.40001
1.40001
1.40001
1.40001
1.40001
1.40001
1.40001
1.40001
1.40001
1.40001
1.40001
1.40001
1.40001
1.40001
1.40001
1.40001
1.40001
1.40001
1.40001
1.40001
1.40001
1.40001
1.40001
1.40001
1.40001
1.40001
1.40001
1.40001
1.40001
1.40001
1.40001
1.40001
1.40001
1.4
1.4
1.4
1.4
1.4
1.4
1.4
1.4
1.4
1.4
1.4
1.4
1.4
1.40001
1.40001
1.40001
1.40001
1.40001
1.40001
1.40001
1.40001
1.40001
1.40001
1.40001
1.40001
1.40001
1.40001
1.40001
1.40001
1.40001
1.40001
1.40001
1.40001
1.40001
1.40001
1.40001
1.40001
1.40001
1.40001
1.40001
1.40001
1.40001
1.40001
1.40001
1.40001
1.40001
1.40001
1.40001
1.40001
1.40001
1.40001
1.40001
1.40001
1.40001
1.40001
1.40001
1.40001
1.40001
1.40001
1.40001
1.40001
1.40001
1.40001
1.40001
1.40001
1.40001
1.40001
1.40001
1.40001
1.40001
1.40001
1.40001
1.40001
1.40001
1.40001
1.4
1.4
1.4
1.4
1.4
1.4
1.4
1.4
1.4
1.4
1.4
1.4
1.4
1.40001
1.40001
1.40001
1.40001
1.40001
1.40001
1.40001
1.40001
1.40001
1.40001
1.40001
1.40001
1.40001
1.40001
1.40001
1.40001
1.40001
1.40001
1.40001
1.40001
1.40001
1.40001
1.40001
1.40001
1.40001
1.40001
1.40001
1.40001
1.40001
1.40001
1.40001
1.40001
1.40001
1.40001
1.40001
1.40001
1.40001
1.40001
1.40001
1.40001
1.40001
1.40001
1.40001
1.40001
1.40001
1.40001
1.40001
1.40001
1.40001
1.40001
1.40001
1.40001
1.40001
1.40001
1.40001
1.40001
1.40001
1.40001
1.40001
1.40001
1.40001
1.40001
1.4
1.4
1.4
1.4
1.4
1.4
1.4
1.4
1.4
1.4
1.4
1.4
1.4
1.40001
1.40001
1.40001
1.40001
1.40001
1.40001
1.40001
1.40001
1.40001
1.40001
1.40001
1.40001
1.40001
1.40001
1.40001
1.40001
1.40001
1.40001
1.40001
1.40001
1.40001
1.40001
1.40001
1.40001
1.40001
1.40001
1.40001
1.40001
1.40001
1.40001
1.40001
1.40001
1.40001
1.40001
1.40001
1.40001
1.40001
1.40001
1.40001
1.40001
1.40001
1.40001
1.40001
1.40001
1.40001
1.40001
1.40001
1.40001
1.40001
1.40001
1.40001
1.40001
1.40001
1.40001
1.40001
1.40001
1.40001
1.40001
1.40001
1.40001
1.40001
1.40001
1.39999
1.39999
1.39999
1.39999
1.39999
1.39999
1.39999
1.39999
1.39999
1.4
1.4
1.4
1.4
1.40001
1.40001
1.40001
1.40001
1.40001
1.40002
1.40002
1.40002
1.40002
1.40002
1.40002
1.40002
1.40002
1.40002
1.40001
1.40001
1.40001
1.40001
1.40001
1.40001
1.40001
1.40001
1.40001
1.40001
1.40001
1.40001
1.40001
1.40001
1.40001
1.40001
1.40001
1.40001
1.40001
1.40001
1.40001
1.40001
1.40001
1.40001
1.40001
1.40001
1.40001
1.40001
1.40001
1.40001
1.40001
1.40001
1.40001
1.40001
1.40001
1.40001
1.40001
1.40001
1.40001
1.40001
1.40001
1.40001
1.40001
1.40001
1.40001
1.40001
1.40001
1.40001
1.39999
1.39999
1.39999
1.39999
1.39999
1.39999
1.39999
1.39999
1.39999
1.39999
1.4
1.4
1.4
1.40001
1.40001
1.40001
1.40002
1.40002
1.40002
1.40002
1.40002
1.40002
1.40002
1.40002
1.40002
1.40002
1.40002
1.40002
1.40002
1.40001
1.40001
1.40001
1.40001
1.40001
1.40001
1.40001
1.40001
1.40001
1.40001
1.40001
1.40001
1.40001
1.40001
1.40001
1.40001
1.40001
1.40001
1.40001
1.40001
1.40001
1.40001
1.40001
1.40001
1.40001
1.40001
1.40001
1.40001
1.40001
1.40001
1.40001
1.40001
1.40001
1.40001
1.40001
1.40001
1.40001
1.40001
1.40001
1.40001
1.40001
1.40001
1.40001
1.40001
1.40001
1.40001
1.39999
1.39999
1.39998
1.39998
1.39998
1.39998
1.39998
1.39999
1.39999
1.39999
1.39999
1.4
1.4
1.40001
1.40001
1.40002
1.40002
1.40002
1.40003
1.40003
1.40003
1.40003
1.40003
1.40003
1.40003
1.40003
1.40002
1.40002
1.40002
1.40002
1.40001
1.40001
1.40001
1.40001
1.40001
1.40001
1.40001
1.40001
1.40001
1.40001
1.40001
1.40001
1.40001
1.40001
1.40001
1.40001
1.40001
1.40001
1.40001
1.40001
1.40001
1.40001
1.40001
1.40001
1.40001
1.40001
1.40001
1.40001
1.40001
1.40001
1.40001
1.40001
1.40001
1.40001
1.40001
1.40001
1.40001
1.40001
1.40001
1.40001
1.40001
1.40001
1.40001
1.40001
1.40001
1.39998
1.39998
1.39998
1.39998
1.39998
1.39998
1.39998
1.39998
1.39998
1.39999
1.39999
1.4
1.4
1.40001
1.40001
1.40002
1.40002
1.40003
1.40003
1.40004
1.40004
1.40004
1.40004
1.40004
1.40003
1.40003
1.40003
1.40003
1.40002
1.40002
1.40002
1.40002
1.40001
1.40001
1.40001
1.40001
1.40001
1.40001
1.40001
1.40001
1.40001
1.40001
1.40001
1.4
1.40001
1.40001
1.40001
1.40001
1.40001
1.40001
1.40001
1.40001
1.40001
1.40001
1.40001
1.40001
1.40001
1.40001
1.40001
1.40001
1.40001
1.40001
1.40001
1.40001
1.40001
1.40001
1.40001
1.40001
1.40001
1.40001
1.40001
1.40001
1.40001
1.40001
1.40001
1.39998
1.39997
1.39997
1.39997
1.39997
1.39997
1.39997
1.39997
1.39998
1.39998
1.39999
1.4
1.4
1.40001
1.40002
1.40003
1.40003
1.40004
1.40004
1.40005
1.40005
1.40005
1.40005
1.40005
1.40004
1.40004
1.40004
1.40003
1.40003
1.40003
1.40002
1.40002
1.40002
1.40001
1.40001
1.40001
1.40001
1.40001
1.40001
1.40001
1.40001
1.40001
1.40001
1.4
1.4
1.4
1.40001
1.40001
1.40001
1.40001
1.40001
1.40001
1.40001
1.40001
1.40001
1.40001
1.40001
1.40001
1.40001
1.40001
1.40001
1.40001
1.40001
1.40001
1.40001
1.40001
1.40001
1.40001
1.40001
1.40001
1.40001
1.40001
1.40001
1.40001
1.40001
1.39997
1.39996
1.39996
1.39996
1.39996
1.39996
1.39996
1.39997
1.39997
1.39998
1.39999
1.4
1.40001
1.40002
1.40003
1.40004
1.40004
1.40005
1.40006
1.40006
1.40006
1.40006
1.40006
1.40006
1.40006
1.40005
1.40005
1.40004
1.40004
1.40003
1.40003
1.40002
1.40002
1.40002
1.40001
1.40001
1.40001
1.40001
1.40001
1.40001
1.40001
1.40001
1.40001
1.4
1.4
1.4
1.4
1.4
1.4
1.4
1.40001
1.40001
1.40001
1.40001
1.40001
1.40001
1.40001
1.40001
1.40001
1.40001
1.40001
1.40001
1.40001
1.40001
1.40001
1.40001
1.40001
1.40001
1.40001
1.40001
1.40001
1.40001
1.40001
1.40001
1.40001
1.39996
1.39995
1.39995
1.39995
1.39995
1.39995
1.39995
1.39996
1.39997
1.39998
1.39999
1.4
1.40001
1.40003
1.40004
1.40005
1.40006
1.40007
1.40007
1.40008
1.40008
1.40008
1.40008
1.40008
1.40007
1.40007
1.40006
1.40005
1.40005
1.40004
1.40003
1.40003
1.40002
1.40002
1.40002
1.40001
1.40001
1.40001
1.40001
1.40001
1.40001
1.40001
1.40001
1.4
1.4
1.4
1.4
1.4
1.4
1.4
1.4
1.4
1.40001
1.40001
1.40001
1.40001
1.40001
1.40001
1.40001
1.40001
1.40001
1.40001
1.40001
1.40001
1.40001
1.40001
1.40001
1.40001
1.40001
1.40001
1.40001
1.40001
1.40001
1.40001
1.40001
1.39995
1.39994
1.39994
1.39994
1.39994
1.39994
1.39994
1.39995
1.39996
1.39998
1.39999
1.40001
1.40002
1.40004
1.40006
1.40007
1.40008
1.40009
1.4001
1.4001
1.40011
1.40011
1.4001
1.4001
1.40009
1.40008
1.40008
1.40007
1.40006
1.40005
1.40004
1.40003
1.40003
1.40002
1.40002
1.40001
1.40001
1.40001
1.40001
1.40001
1.40001
1.40001
1.40001
1.4
1.4
1.4
1.4
1.4
1.4
1.4
1.4
1.4
1.4
1.40001
1.40001
1.40001
1.40001
1.40001
1.40001
1.40001
1.40001
1.40001
1.40001
1.40001
1.40001
1.40001
1.40001
1.40001
1.40001
1.40001
1.40001
1.40001
1.40001
1.40001
1.40001
1.39993
1.39993
1.39993
1.39992
1.39993
1.39993
1.39994
1.39995
1.39997
1.39999
1.4
1.40002
1.40005
1.40007
1.40009
1.4001
1.40012
1.40013
1.40014
1.40014
1.40014
1.40014
1.40013
1.40013
1.40012
1.40011
1.4001
1.40008
1.40007
1.40006
1.40005
1.40004
1.40003
1.40003
1.40002
1.40002
1.40001
1.40001
1.40001
1.40001
1.40001
1.40001
1.4
1.4
1.4
1.4
1.4
1.4
1.4
1.4
1.4
1.4
1.4
1.4
1.40001
1.40001
1.40001
1.40001
1.40001
1.40001
1.40001
1.40001
1.40001
1.40001
1.40001
1.40001
1.40001
1.40001
1.40001
1.40001
1.40001
1.40001
1.40001
1.40001
1.40001
1.39992
1.39992
1.39991
1.39992
1.39992
1.39993
1.39994
1.39996
1.39998
1.4
1.40003
1.40006
1.40008
1.40011
1.40013
1.40015
1.40017
1.40018
1.40019
1.40019
1.40019
1.40018
1.40018
1.40016
1.40015
1.40014
1.40012
1.40011
1.40009
1.40008
1.40006
1.40005
1.40004
1.40003
1.40002
1.40002
1.40001
1.40001
1.40001
1.40001
1.40001
1.4
1.4
1.4
1.4
1.4
1.4
1.4
1.4
1.4
1.4
1.4
1.4
1.4
1.40001
1.40001
1.40001
1.40001
1.40001
1.40001
1.40001
1.40001
1.40001
1.40001
1.40001
1.40001
1.40001
1.40001
1.40001
1.40001
1.40001
1.40001
1.40001
1.40001
1.40001
1.39991
1.39991
1.39991
1.39991
1.39992
1.39994
1.39996
1.39998
1.40001
1.40004
1.40008
1.40011
1.40014
1.40017
1.4002
1.40022
1.40024
1.40025
1.40026
1.40026
1.40026
1.40025
1.40023
1.40022
1.4002
1.40018
1.40015
1.40013
1.40011
1.40009
1.40008
1.40006
1.40005
1.40004
1.40003
1.40002
1.40002
1.40001
1.40001
1.40001
1.40001
1.4
1.4
1.4
1.4
1.4
1.4
1.4
1.4
1.4
1.4
1.4
1.4
1.4
1.4
1.40001
1.40001
1.40001
1.40001
1.40001
1.40001
1.40001
1.40001
1.40001
1.40001
1.40001
1.40001
1.40001
1.40001
1.40001
1.40001
1.40001
1.40001
1.40001
1.40001
1.39991
1.3999
1.39991
1.39992
1.39994
1.39996
1.39999
1.40003
1.40007
1.40011
1.40016
1.4002
1.40024
1.40028
1.40031
1.40034
1.40035
1.40036
1.40037
1.40036
1.40035
1.40033
1.40031
1.40028
1.40026
1.40023
1.4002
1.40017
1.40014
1.40012
1.4001
1.40008
1.40006
1.40005
1.40003
1.40003
1.40002
1.40001
1.40001
1.40001
1.40001
1.4
1.4
1.4
1.4
1.4
1.4
1.4
1.4
1.4
1.4
1.4
1.4
1.4
1.4
1.4
1.40001
1.40001
1.40001
1.40001
1.40001
1.40001
1.40001
1.40001
1.40001
1.40001
1.40001
1.40001
1.40001
1.40001
1.40001
1.40001
1.40001
1.40001
1.40001
1.39991
1.39991
1.39992
1.39994
1.39997
1.40001
1.40006
1.40011
1.40017
1.40023
1.40029
1.40034
1.4004
1.40044
1.40048
1.40051
1.40052
1.40052
1.40052
1.4005
1.40048
1.40045
1.40041
1.40038
1.40034
1.40029
1.40025
1.40022
1.40018
1.40015
1.40012
1.40009
1.40007
1.40005
1.40004
1.40003
1.40002
1.40001
1.40001
1.40001
1.4
1.4
1.4
1.4
1.4
1.4
1.4
1.4
1.4
1.4
1.4
1.4
1.4
1.4
1.4
1.4
1.40001
1.40001
1.40001
1.40001
1.40001
1.40001
1.40001
1.40001
1.40001
1.40001
1.40001
1.40001
1.40001
1.40001
1.40001
1.40001
1.40001
1.40001
1.40001
1.39992
1.39994
1.39996
1.4
1.40005
1.40011
1.40017
1.40025
1.40033
1.40041
1.40049
1.40057
1.40063
1.40069
1.40073
1.40076
1.40077
1.40076
1.40074
1.40071
1.40067
1.40062
1.40056
1.40051
1.40045
1.40039
1.40033
1.40028
1.40023
1.40019
1.40015
1.40012
1.40009
1.40006
1.40005
1.40003
1.40002
1.40001
1.40001
1.40001
1.4
1.4
1.4
1.4
1.4
1.4
1.4
1.4
1.4
1.4
1.4
1.4
1.4
1.4
1.4
1.4
1.4
1.40001
1.40001
1.40001
1.40001
1.40001
1.40001
1.40001
1.40001
1.40001
1.40001
1.40001
1.40001
1.40001
1.40001
1.40001
1.40001
1.40001
1.40001
1.39996
1.39999
1.40003
1.4001
1.40017
1.40026
1.40036
1.40048
1.40059
1.4007
1.40081
1.40091
1.40099
1.40106
1.4011
1.40113
1.40113
1.4011
1.40106
1.40101
1.40094
1.40086
1.40077
1.40069
1.4006
1.40051
1.40043
1.40036
1.40029
1.40024
1.40019
1.40014
1.40011
1.40008
1.40005
1.40004
1.40002
1.40001
1.40001
1.4
1.4
1.4
1.4
1.4
1.4
1.4
1.4
1.4
1.4
1.4
1.4
1.4
1.4
1.4
1.4
1.4
1.4
1.40001
1.40001
1.40001
1.40001
1.40001
1.40001
1.40001
1.40001
1.40001
1.40001
1.40001
1.40001
1.40001
1.40001
1.40001
1.40001
1.40001
1.40001
1.40002
1.40008
1.40016
1.40026
1.40038
1.40052
1.40066
1.40082
1.40098
1.40114
1.40129
1.40142
1.40152
1.4016
1.40165
1.40166
1.40164
1.4016
1.40152
1.40143
1.40132
1.4012
1.40107
1.40094
1.40081
1.40069
1.40057
1.40047
1.40038
1.4003
1.40023
1.40018
1.40013
1.40009
1.40007
1.40004
1.40003
1.40001
1.40001
1.4
1.4
1.4
1.4
1.4
1.4
1.4
1.4
1.4
1.4
1.4
1.4
1.4
1.4
1.4
1.4
1.4
1.4
1.4
1.40001
1.40001
1.40001
1.40001
1.40001
1.40001
1.40001
1.40001
1.40001
1.40001
1.40001
1.40001
1.40001
1.40001
1.40001
1.40001
1.40001
1.40014
1.40024
1.40037
1.40052
1.4007
1.4009
1.40112
1.40134
1.40157
1.40178
1.40198
1.40215
1.40228
1.40237
1.40242
1.40242
1.40238
1.4023
1.40218
1.40203
1.40185
1.40167
1.40148
1.40129
1.4011
1.40093
1.40077
1.40062
1.4005
1.40039
1.4003
1.40022
1.40016
1.40011
1.40008
1.40005
1.40003
1.40001
1.4
1.4
1.4
1.39999
1.39999
1.39999
1.4
1.4
1.4
1.4
1.4
1.4
1.4
1.4
1.4
1.4
1.4
1.4
1.4
1.4
1.40001
1.40001
1.40001
1.40001
1.40001
1.40001
1.40001
1.40001
1.40001
1.40001
1.40001
1.40001
1.40001
1.40001
1.40001
1.40001
1.40001
1.40033
1.40049
1.40068
1.40091
1.40118
1.40147
1.40178
1.4021
1.40241
1.4027
1.40297
1.40319
1.40336
1.40347
1.40351
1.40349
1.40341
1.40328
1.40309
1.40286
1.4026
1.40233
1.40205
1.40177
1.40151
1.40126
1.40103
1.40083
1.40066
1.40051
1.40039
1.40029
1.40021
1.40014
1.40009
1.40006
1.40003
1.40001
1.4
1.39999
1.39999
1.39999
1.39999
1.39999
1.39999
1.4
1.4
1.4
1.4
1.4
1.4
1.4
1.4
1.4
1.4
1.4
1.4
1.4
1.4
1.40001
1.40001
1.40001
1.40001
1.40001
1.40001
1.40001
1.40001
1.40001
1.40001
1.40001
1.40001
1.40001
1.40001
1.40001
1.40001
1.40061
1.40086
1.40115
1.40149
1.40187
1.40229
1.40272
1.40316
1.40359
1.40399
1.40434
1.40463
1.40484
1.40497
1.40502
1.40497
1.40483
1.40462
1.40434
1.40401
1.40363
1.40324
1.40284
1.40244
1.40207
1.40172
1.4014
1.40112
1.40088
1.40068
1.40051
1.40037
1.40027
1.40018
1.40012
1.40007
1.40004
1.40001
1.4
1.39999
1.39999
1.39999
1.39999
1.39999
1.39999
1.39999
1.39999
1.4
1.4
1.4
1.4
1.4
1.4
1.4
1.4
1.4
1.4
1.4
1.4
1.40001
1.40001
1.40001
1.40001
1.40001
1.40001
1.40001
1.40001
1.40001
1.40001
1.40001
1.40001
1.40001
1.40001
1.40001
1.40001
1.40104
1.40139
1.40182
1.40231
1.40285
1.40343
1.40403
1.40463
1.40521
1.40574
1.40621
1.40658
1.40685
1.40701
1.40705
1.40696
1.40675
1.40644
1.40604
1.40557
1.40504
1.40448
1.40391
1.40336
1.40283
1.40234
1.4019
1.40152
1.40119
1.40091
1.40068
1.40049
1.40035
1.40023
1.40015
1.40009
1.40004
1.40001
1.4
1.39998
1.39998
1.39998
1.39998
1.39998
1.39999
1.39999
1.39999
1.39999
1.4
1.4
1.4
1.4
1.4
1.4
1.4
1.4
1.4
1.4
1.4
1.4
1.40001
1.40001
1.40001
1.40001
1.40001
1.40001
1.40001
1.40001
1.40001
1.40001
1.40001
1.40001
1.40001
1.40001
1.40001
1.40163
1.40215
1.40276
1.40345
1.4042
1.40499
1.40581
1.40662
1.40739
1.40809
1.40869
1.40918
1.40952
1.4097
1.40973
1.40959
1.4093
1.40886
1.4083
1.40764
1.40691
1.40614
1.40536
1.40459
1.40386
1.40319
1.40258
1.40205
1.4016
1.40122
1.4009
1.40065
1.40046
1.40031
1.40019
1.40011
1.40005
1.40002
1.39999
1.39998
1.39997
1.39997
1.39997
1.39998
1.39998
1.39998
1.39999
1.39999
1.4
1.4
1.4
1.4
1.4
1.4
1.4
1.4
1.4
1.4
1.4
1.4
1.40001
1.40001
1.40001
1.40001
1.40001
1.40001
1.40001
1.40001
1.40001
1.40001
1.40001
1.40001
1.40001
1.40001
1.40001
1.40247
1.4032
1.40404
1.40499
1.40601
1.40708
1.40817
1.40923
1.41024
1.41114
1.41192
1.41253
1.41296
1.41318
1.41319
1.41299
1.41259
1.412
1.41124
1.41036
1.40937
1.40833
1.40727
1.40623
1.40524
1.40433
1.4035
1.40278
1.40215
1.40164
1.40121
1.40087
1.40061
1.40041
1.40026
1.40015
1.40007
1.40002
1.39999
1.39997
1.39996
1.39996
1.39996
1.39997
1.39997
1.39998
1.39998
1.39999
1.39999
1.4
1.4
1.4
1.4
1.4
1.4
1.4
1.4
1.4
1.4
1.4
1.4
1.40001
1.40001
1.40001
1.40001
1.40001
1.40001
1.40001
1.40001
1.40001
1.40001
1.40001
1.40001
1.40001
1.40001
1.4036
1.40461
1.40576
1.40703
1.40839
1.4098
1.41121
1.41259
1.41387
1.41502
1.416
1.41676
1.41729
1.41755
1.41755
1.41728
1.41675
1.41598
1.41499
1.41383
1.41254
1.41117
1.40976
1.40838
1.40705
1.40582
1.40471
1.40374
1.4029
1.4022
1.40163
1.40117
1.40081
1.40054
1.40034
1.4002
1.4001
1.40003
1.39999
1.39997
1.39995
1.39995
1.39995
1.39996
1.39997
1.39997
1.39998
1.39998
1.39999
1.39999
1.4
1.4
1.4
1.4
1.4
1.4
1.4
1.4
1.4
1.4
1.4
1.40001
1.40001
1.40001
1.40001
1.40001
1.40001
1.40001
1.40001
1.40001
1.40001
1.40001
1.40001
1.40001
1.40001
1.4051
1.40646
1.40799
1.40966
1.41143
1.41325
1.41505
1.41678
1.41839
1.41981
1.42101
1.42194
1.42257
1.42289
1.42287
1.42253
1.42186
1.42089
1.41964
1.41817
1.41652
1.41475
1.41294
1.41113
1.40939
1.40777
1.4063
1.405
1.40388
1.40295
1.40218
1.40157
1.40109
1.40073
1.40046
1.40027
1.40014
1.40005
1.39999
1.39996
1.39995
1.39994
1.39994
1.39995
1.39996
1.39996
1.39997
1.39998
1.39999
1.39999
1.39999
1.4
1.4
1.4
1.4
1.4
1.4
1.4
1.4
1.4
1.4
1.4
1.40001
1.40001
1.40001
1.40001
1.40001
1.40001
1.40001
1.40001
1.40001
1.40001
1.40001
1.40001
1.40001
1.40705
1.40884
1.41084
1.41299
1.41524
1.41752
1.41976
1.42188
1.42383
1.42554
1.42697
1.42806
1.42881
1.42917
1.42915
1.42874
1.42793
1.42676
1.42525
1.42344
1.42139
1.41919
1.41689
1.41459
1.41235
1.41026
1.40834
1.40664
1.40517
1.40393
1.40291
1.4021
1.40147
1.40099
1.40063
1.40037
1.4002
1.40008
1.4
1.39996
1.39994
1.39993
1.39993
1.39994
1.39995
1.39996
1.39997
1.39997
1.39998
1.39999
1.39999
1.4
1.4
1.4
1.4
1.4
1.4
1.4
1.4
1.4
1.4
1.4
1.40001
1.40001
1.40001
1.40001
1.40001
1.40001
1.40001
1.40001
1.40001
1.40001
1.40001
1.40001
1.40001
1.40953
1.41185
1.41439
1.41709
1.41988
1.42266
1.42535
1.42787
1.43016
1.43214
1.43377
1.43502
1.43586
1.43627
1.43625
1.43578
1.43487
1.43352
1.43176
1.42963
1.42719
1.42451
1.4217
1.41883
1.41603
1.41336
1.41091
1.40871
1.40681
1.40519
1.40386
1.4028
1.40196
1.40133
1.40086
1.40052
1.40028
1.40012
1.40002
1.39996
1.39993
1.39992
1.39992
1.39993
1.39994
1.39995
1.39996
1.39997
1.39998
1.39998
1.39999
1.39999
1.4
1.4
1.4
1.4
1.4
1.4
1.4
1.4
1.4
1.4
1.4
1.40001
1.40001
1.40001
1.40001
1.40001
1.40001
1.40001
1.40001
1.40001
1.40001
1.40001
1.40001
1.41262
1.41554
1.41869
1.422
1.42535
1.42864
1.43176
1.43464
1.4372
1.43939
1.44117
1.44252
1.44342
1.44387
1.44386
1.44337
1.4424
1.44094
1.43901
1.43662
1.43383
1.43071
1.42736
1.42391
1.42047
1.41716
1.41408
1.41131
1.40887
1.4068
1.40508
1.4037
1.40261
1.40178
1.40116
1.40071
1.4004
1.40019
1.40005
1.39997
1.39993
1.39991
1.39991
1.39991
1.39992
1.39994
1.39995
1.39996
1.39997
1.39998
1.39999
1.39999
1.4
1.4
1.4
1.4
1.4
1.4
1.4
1.4
1.4
1.4
1.4
1.40001
1.40001
1.40001
1.40001
1.40001
1.40001
1.40001
1.40001
1.40001
1.40001
1.40001
1.40001
1.41637
1.41996
1.42378
1.4277
1.43159
1.43533
1.4388
1.44193
1.44464
1.44691
1.44873
1.45008
1.45098
1.45144
1.45144
1.45099
1.45005
1.4486
1.44663
1.44412
1.44109
1.43763
1.43382
1.42979
1.4257
1.42171
1.41793
1.41448
1.41142
1.4088
1.40661
1.40483
1.40343
1.40236
1.40155
1.40097
1.40056
1.40028
1.4001
1.39999
1.39993
1.3999
1.39989
1.3999
1.39991
1.39992
1.39994
1.39995
1.39997
1.39998
1.39998
1.39999
1.39999
1.4
1.4
1.4
1.4
1.4
1.4
1.4
1.4
1.4
1.4
1.40001
1.40001
1.40001
1.40001
1.40001
1.40001
1.40001
1.40001
1.40001
1.40001
1.40001
1.40001
1.42082
1.42512
1.42959
1.43408
1.43842
1.44247
1.44612
1.4493
1.45196
1.45411
1.45578
1.45699
1.45779
1.4582
1.45824
1.45789
1.45712
1.45585
1.45404
1.45163
1.4486
1.44498
1.44085
1.43636
1.43167
1.42698
1.42246
1.41827
1.41451
1.41125
1.4085
1.40626
1.40447
1.40309
1.40206
1.4013
1.40077
1.4004
1.40017
1.40002
1.39994
1.3999
1.39988
1.39988
1.3999
1.39991
1.39993
1.39994
1.39996
1.39997
1.39998
1.39999
1.39999
1.4
1.4
1.4
1.4
1.4
1.4
1.4
1.4
1.4
1.4
1.40001
1.40001
1.40001
1.40001
1.40001
1.40001
1.40001
1.40001
1.40001
1.40001
1.40001
1.40001
1.42595
1.43095
1.43601
1.44094
1.44553
1.44966
1.4532
1.45613
1.45844
1.4602
1.46147
1.46234
1.4629
1.46321
1.4633
1.46314
1.46269
1.46184
1.46047
1.45848
1.45576
1.4523
1.44813
1.44337
1.43822
1.43291
1.42766
1.42269
1.41817
1.41418
1.41079
1.408
1.40576
1.40401
1.4027
1.40173
1.40105
1.40057
1.40026
1.40007
1.39995
1.3999
1.39987
1.39987
1.39988
1.3999
1.39992
1.39994
1.39995
1.39996
1.39998
1.39998
1.39999
1.39999
1.4
1.4
1.4
1.4
1.4
1.4
1.4
1.4
1.4
1.4
1.40001
1.40001
1.40001
1.40001
1.40001
1.40001
1.40001
1.40001
1.40001
1.40001
1.40001
1.43169
1.4373
1.44279
1.44791
1.45247
1.45631
1.45936
1.46165
1.46323
1.46423
1.4648
1.46511
1.46527
1.4654
1.46554
1.46568
1.46573
1.46555
1.46497
1.46379
1.46182
1.45894
1.45512
1.45044
1.44509
1.43932
1.43344
1.42772
1.42239
1.41763
1.41352
1.41009
1.40732
1.40515
1.40349
1.40227
1.4014
1.40079
1.40039
1.40014
1.39999
1.3999
1.39987
1.39986
1.39987
1.39989
1.39991
1.39993
1.39994
1.39996
1.39997
1.39998
1.39999
1.39999
1.4
1.4
1.4
1.4
1.4
1.4
1.4
1.4
1.4
1.4
1.40001
1.40001
1.40001
1.40001
1.40001
1.40001
1.40001
1.40001
1.40001
1.40001
1.40001
1.43789
1.44392
1.44957
1.45454
1.45863
1.46172
1.46381
1.46498
1.46538
1.46523
1.46478
1.46425
1.46385
1.46372
1.46393
1.46445
1.4652
1.46598
1.46656
1.46663
1.4659
1.46413
1.46118
1.45704
1.45187
1.44595
1.43962
1.43324
1.42714
1.42157
1.41669
1.41256
1.40918
1.40651
1.40446
1.40294
1.40184
1.40108
1.40056
1.40023
1.40003
1.39992
1.39987
1.39985
1.39986
1.39987
1.3999
1.39992
1.39994
1.39995
1.39997
1.39998
1.39998
1.39999
1.4
1.4
1.4
1.4
1.4
1.4
1.4
1.4
1.4
1.4
1.40001
1.40001
1.40001
1.40001
1.40001
1.40001
1.40001
1.40001
1.40001
1.40001
1.40001
1.4443
1.45047
1.45588
1.46023
1.46334
1.46514
1.46571
1.46523
1.46398
1.46228
1.46047
1.45887
1.45775
1.45728
1.45756
1.45858
1.46021
1.46223
1.46432
1.46609
1.46713
1.46705
1.46556
1.46255
1.45808
1.45242
1.44594
1.43911
1.43233
1.42598
1.42029
1.41541
1.41136
1.40813
1.40563
1.40375
1.40239
1.40143
1.40078
1.40036
1.4001
1.39995
1.39988
1.39985
1.39985
1.39986
1.39988
1.39991
1.39993
1.39995
1.39996
1.39997
1.39998
1.39999
1.39999
1.4
1.4
1.4
1.4
1.4
1.4
1.4
1.4
1.4
1.40001
1.40001
1.40001
1.40001
1.40001
1.40001
1.40001
1.40001
1.40001
1.40001
1.40001
1.45061
1.45651
1.4612
1.46437
1.4659
1.46582
1.4643
1.46166
1.45829
1.45466
1.45119
1.4483
1.44631
1.44545
1.44582
1.44742
1.4501
1.45361
1.45754
1.46143
1.46474
1.46693
1.46754
1.4663
1.46315
1.45827
1.45208
1.44508
1.43782
1.43077
1.42429
1.41862
1.41386
1.41001
1.40699
1.40471
1.40304
1.40186
1.40105
1.40052
1.40019
1.39999
1.39989
1.39985
1.39984
1.39985
1.39987
1.3999
1.39992
1.39994
1.39996
1.39997
1.39998
1.39999
1.39999
1.4
1.4
1.4
1.4
1.4
1.4
1.4
1.4
1.4
1.4
1.40001
1.40001
1.40001
1.40001
1.40001
1.40001
1.40001
1.40001
1.40001
1.40001
1.45642
1.46156
1.46495
1.46634
1.46568
1.46311
1.45896
1.45367
1.44778
1.44187
1.43649
1.43212
1.42915
1.42786
1.42835
1.43062
1.43452
1.43972
1.44579
1.45216
1.45819
1.46317
1.46649
1.46767
1.46649
1.46303
1.45763
1.45087
1.44339
1.43581
1.42862
1.42218
1.41667
1.41214
1.40857
1.40583
1.40382
1.40237
1.40138
1.40072
1.4003
1.40006
1.39992
1.39986
1.39984
1.39985
1.39986
1.39989
1.39991
1.39993
1.39995
1.39997
1.39998
1.39999
1.39999
1.4
1.4
1.4
1.4
1.4
1.4
1.4
1.4
1.4
1.4
1.40001
1.40001
1.40001
1.40001
1.40001
1.40001
1.40001
1.40001
1.40001
1.40001
1.46131
1.46512
1.46662
1.46561
1.46217
1.45658
1.44929
1.44092
1.43215
1.42368
1.41616
1.41016
1.40613
1.40436
1.405
1.40804
1.41328
1.42039
1.42886
1.43804
1.44716
1.4554
1.46197
1.46618
1.46762
1.46621
1.4622
1.45616
1.44883
1.44095
1.43318
1.42601
1.41976
1.41453
1.41035
1.40712
1.40472
1.40298
1.40177
1.40097
1.40045
1.40013
1.39996
1.39987
1.39984
1.39984
1.39986
1.39988
1.3999
1.39993
1.39995
1.39996
1.39997
1.39998
1.39999
1.4
1.4
1.4
1.4
1.4
1.4
1.4
1.4
1.4
1.4
1.40001
1.40001
1.40001
1.40001
1.40001
1.40001
1.40001
1.40001
1.40001
1.40001
1.46487
1.46679
1.46579
1.46183
1.45508
1.44597
1.43513
1.42331
1.41134
1.40004
1.39018
1.38239
1.37721
1.37494
1.37576
1.37965
1.38639
1.39561
1.40672
1.41899
1.43155
1.44345
1.45372
1.4615
1.46616
1.46742
1.4654
1.46062
1.45386
1.44599
1.43783
1.43005
1.42308
1.41715
1.41234
1.40857
1.40574
1.40368
1.40224
1.40126
1.40062
1.40024
1.40001
1.3999
1.39985
1.39984
1.39985
1.39987
1.3999
1.39992
1.39994
1.39996
1.39997
1.39998
1.39999
1.39999
1.4
1.4
1.4
1.4
1.4
1.4
1.4
1.4
1.4
1.40001
1.40001
1.40001
1.40001
1.40001
1.40001
1.40001
1.40001
1.40001
1.40001
1.46677
1.46623
1.46223
1.4548
1.44429
1.43126
1.41648
1.40088
1.38541
1.37104
1.35862
1.3489
1.34245
1.33964
1.34067
1.34549
1.35389
1.36541
1.37942
1.39508
1.41141
1.42732
1.44169
1.4535
1.46189
1.46639
1.46694
1.46397
1.45824
1.45074
1.44244
1.43419
1.42657
1.41996
1.4145
1.41018
1.40689
1.40447
1.40276
1.4016
1.40084
1.40036
1.40008
1.39993
1.39986
1.39984
1.39985
1.39987
1.39989
1.39992
1.39994
1.39996
1.39997
1.39998
1.39999
1.39999
1.4
1.4
1.4
1.4
1.4
1.4
1.4
1.4
1.4
1.40001
1.40001
1.40001
1.40001
1.40001
1.40001
1.40001
1.40001
1.40001
1.40001
1.46676
1.4633
1.45583
1.44454
1.42987
1.41256
1.39351
1.3738
1.35454
1.33683
1.32163
1.3098
1.30196
1.29855
1.29978
1.30563
1.31583
1.32989
1.34707
1.36642
1.38684
1.40711
1.42595
1.44217
1.45474
1.46297
1.46662
1.46597
1.46176
1.45501
1.44686
1.43832
1.43016
1.42291
1.41681
1.41192
1.40815
1.40536
1.40336
1.40199
1.40108
1.40051
1.40016
1.39997
1.39988
1.39985
1.39985
1.39987
1.39989
1.39991
1.39993
1.39995
1.39997
1.39998
1.39999
1.39999
1.4
1.4
1.4
1.4
1.4
1.4
1.4
1.4
1.4
1.40001
1.40001
1.40001
1.40001
1.40001
1.40001
1.40001
1.40001
1.40001
1.40001
1.46475
1.45796
1.44667
1.43117
1.41203
1.3901
1.36646
1.34232
1.31897
1.29763
1.27942
1.26527
1.25591
1.25182
1.25326
1.26021
1.27238
1.2892
1.30983
1.3332
1.35805
1.38301
1.40666
1.42765
1.44477
1.45714
1.46434
1.46648
1.46423
1.45863
1.45094
1.44233
1.43377
1.42595
1.41924
1.41377
1.40951
1.40632
1.40402
1.40242
1.40136
1.40068
1.40026
1.40003
1.39991
1.39986
1.39985
1.39987
1.39989
1.39991
1.39993
1.39995
1.39997
1.39998
1.39999
1.39999
1.4
1.4
1.4
1.4
1.4
1.4
1.4
1.4
1.4
1.4
1.40001
1.40001
1.40001
1.40001
1.40001
1.40001
1.40001
1.40001
1.40001
1.46075
1.45033
1.43495
1.41497
1.39107
1.36422
1.33566
1.30678
1.27902
1.25378
1.2323
1.21565
1.20462
1.1998
1.20145
1.20957
1.22385
1.24365
1.26801
1.29571
1.32531
1.35529
1.38406
1.41012
1.43211
1.44897
1.4601
1.46544
1.46556
1.46149
1.45456
1.44612
1.43732
1.42902
1.42174
1.41571
1.41095
1.40735
1.40474
1.40291
1.40167
1.40087
1.40038
1.4001
1.39995
1.39988
1.39986
1.39987
1.39989
1.39991
1.39993
1.39995
1.39996
1.39998
1.39998
1.39999
1.4
1.4
1.4
1.4
1.4
1.4
1.4
1.4
1.4
1.4
1.40001
1.40001
1.40001
1.40001
1.40001
1.40001
1.40001
1.40001
1.40001
1.4549
1.44064
1.42096
1.39628
1.36736
1.33532
1.30154
1.2676
1.23515
1.20575
1.1808
1.16147
1.14868
1.14305
1.14491
1.15427
1.1708
1.19378
1.22212
1.25442
1.28907
1.32434
1.3585
1.38989
1.41701
1.43863
1.45399
1.46287
1.4657
1.4635
1.45763
1.44959
1.44072
1.43205
1.42427
1.41771
1.41246
1.40845
1.4055
1.40342
1.40201
1.40109
1.40051
1.40018
1.39999
1.3999
1.39987
1.39987
1.39989
1.39991
1.39993
1.39995
1.39996
1.39997
1.39998
1.39999
1.4
1.4
1.4
1.4
1.4
1.4
1.4
1.4
1.4
1.4
1.40001
1.40001
1.40001
1.40001
1.40001
1.40001
1.40001
1.40001
1.40001
1.44742
1.42918
1.40505
1.3755
1.34136
1.30387
1.2646
1.22536
1.18798
1.15422
1.12565
1.10355
1.08893