/*--------------------------------*- C++ -*----------------------------------*\
  =========                 |
  \\      /  F ield         | OpenFOAM: The Open Source CFD Toolbox
   \\    /   O peration     | Website:  https://openfoam.org
    \\  /    A nd           | Version:  6
     \\/     M anipulation  |
\*---------------------------------------------------------------------------*/
FoamFile
{
    version     2.0;
    format      ascii;
    class       surfaceScalarField;
    location    "1.12";
    object      meshPhi;
}
// * * * * * * * * * * * * * * * * * * * * * * * * * * * * * * * * * * * * * //

dimensions      [0 3 -1 0 0 0 0];

internalField   nonuniform List<scalar> 
19800
(
0.00173673
0.00271752
0.0034808
0.00814192
0.00522506
0.0135344
0.00696222
0.018874
0.00868485
0.0241396
0.0103854
0.0293106
0.0120564
0.0343669
0.0136902
0.0392885
0.0152792
0.0440561
0.0168161
0.048651
0.0182935
0.0530552
0.0197043
0.0572513
0.0210415
0.0612228
0.0222986
0.064954
0.0234693
0.0684302
0.0245476
0.0716376
0.0255281
0.0745636
0.0264056
0.0771964
0.0271757
0.0795257
0.0278343
0.0815422
0.028378
0.0832376
0.0288038
0.0846053
0.0291097
0.0856397
0.0292938
0.0863365
0.0293553
0.0866928
0.0292938
0.0867071
0.0291097
0.0863791
0.0288038
0.0857099
0.028378
0.0847021
0.0278343
0.0833594
0.0271757
0.081687
0.0264056
0.0796914
0.0255281
0.0773803
0.0245476
0.0747627
0.0234693
0.0718489
0.0222986
0.0686503
0.0210415
0.0651794
0.0197043
0.06145
0.0182935
0.0574768
0.0168161
0.0532753
0.0152792
0.0488623
0.0136902
0.0442552
0.0120564
0.0394723
0.0103854
0.0345325
0.00868485
0.0294555
0.00696222
0.0242613
0.00522506
0.0189707
0.0034808
0.0136047
0.00173673
0.00818451
-1.04529e-13
0.00273179
-0.00172246
-0.00273179
-0.00342394
-0.00818451
-0.00509797
-0.0136047
-0.00673836
-0.0189707
-0.00833921
-0.0242613
-0.00989492
-0.0294555
-0.0114002
-0.0345325
-0.0128501
-0.0394723
-0.01424
-0.0442552
-0.0155656
-0.0488623
-0.0168228
-0.0532753
-0.0180081
-0.0574768
-0.0191181
-0.06145
-0.0201497
-0.0651794
-0.0211003
-0.0686503
-0.0219673
-0.0718489
-0.0227486
-0.0747627
-0.0234422
-0.0773803
-0.0240466
-0.0796914
-0.0245604
-0.081687
-0.0249823
-0.0833594
-0.0253114
-0.0847021
-0.025547
-0.0857099
-0.0256885
-0.0863791
-0.0257357
-0.0867071
-0.0256885
-0.0866928
-0.025547
-0.0863365
-0.0253114
-0.0856397
-0.0249823
-0.0846053
-0.0245604
-0.0832376
-0.0240466
-0.0815422
-0.0234422
-0.0795257
-0.0227486
-0.0771964
-0.0219673
-0.0745636
-0.0211003
-0.0716376
-0.0201497
-0.0684302
-0.0191181
-0.064954
-0.0180081
-0.0612228
-0.0168228
-0.0572513
-0.0155656
-0.0530552
-0.01424
-0.048651
-0.0128501
-0.0440561
-0.0114002
-0.0392885
-0.00989492
-0.0343669
-0.00833921
-0.0293106
-0.00673836
-0.0241396
-0.00509797
-0.018874
-0.00342394
-0.0135344
-0.00172246
-0.00814192
-0.00271752
0.00520326
0.00541013
0.0104283
0.0162094
0.0156538
0.0269457
0.0208579
0.0375772
0.0260182
0.0480628
0.0311124
0.0583616
0.0361177
0.0684334
0.0410115
0.0782391
0.0457712
0.0877403
0.0503746
0.0968999
0.0547996
0.105682
0.059025
0.114052
0.0630301
0.121978
0.0667952
0.129427
0.0703013
0.136371
0.0735307
0.142782
0.076467
0.148635
0.0790951
0.153905
0.0814013
0.158573
0.0833737
0.162618
0.0850018
0.166026
0.0862772
0.168781
0.087193
0.170872
0.0877445
0.17229
0.0879286
0.173029
0.0877445
0.173086
0.087193
0.17246
0.0862772
0.171151
0.0850018
0.169166
0.0833737
0.166511
0.0814013
0.163196
0.0790951
0.159233
0.076467
0.154638
0.0735307
0.149428
0.0703013
0.143624
0.0667952
0.137248
0.0630301
0.130326
0.059025
0.122883
0.0547996
0.114951
0.0503746
0.106559
0.0457712
0.0977419
0.0410115
0.0885338
0.0361177
0.0789716
0.0311124
0.0690935
0.0260182
0.0589388
0.0208579
0.048548
0.0156538
0.0379628
0.0104283
0.0272255
0.00520326
0.0163791
-3.08927e-13
0.00546699
-0.00516067
-0.00546699
-0.0102586
-0.0163791
-0.0152745
-0.0272255
-0.0201898
-0.0379628
-0.0249868
-0.048548
-0.0296486
-0.0589388
-0.0341595
-0.0690935
-0.0385046
-0.0789716
-0.04267
-0.0885338
-0.0466427
-0.0977419
-0.0504108
-0.106559
-0.0539633
-0.114951
-0.0572902
-0.122883
-0.0603824
-0.130326
-0.0632315
-0.137248
-0.0658304
-0.143624
-0.0681723
-0.149428
-0.0702517
-0.154638
-0.0720635
-0.159233
-0.0736036
-0.163196
-0.0748683
-0.166511
-0.0758549
-0.169166
-0.0765611
-0.171151
-0.0769855
-0.17246
-0.077127
-0.173086
-0.0769855
-0.173029
-0.0765611
-0.17229
-0.0758549
-0.170872
-0.0748683
-0.168781
-0.0736036
-0.166026
-0.0720635
-0.162618
-0.0702517
-0.158573
-0.0681723
-0.153905
-0.0658304
-0.148635
-0.0632315
-0.142782
-0.0603824
-0.136371
-0.0572902
-0.129427
-0.0539633
-0.121978
-0.0504108
-0.114052
-0.0466427
-0.105682
-0.04267
-0.0968999
-0.0385046
-0.0877403
-0.0341595
-0.0782391
-0.0296486
-0.0684334
-0.0249868
-0.0583616
-0.0201898
-0.0480628
-0.0152745
-0.0375772
-0.0102586
-0.0269457
-0.00516067
-0.0162094
-0.00541013
0.008649
0.00806745
0.0173337
0.0241713
0.0260185
0.0401819
0.0346672
0.0560377
0.0432428
0.0716775
0.0517079
0.0870407
0.0600249
0.102068
0.0681562
0.116701
0.0760643
0.130884
0.0837121
0.14456
0.0910635
0.157677
0.0980829
0.170183
0.104736
0.18203
0.11099
0.19317
0.116814
0.20356
0.122178
0.213157
0.127055
0.221925
0.13142
0.229827
0.13525
0.236833
0.138526
0.242912
0.14123
0.24804
0.143348
0.252195
0.144869
0.255361
0.145785
0.257522
0.146091
0.258669
0.145785
0.258796
0.144869
0.257901
0.143348
0.255986
0.14123
0.253057
0.138526
0.249124
0.13525
0.244202
0.13142
0.238308
0.127055
0.231465
0.122178
0.223699
0.116814
0.215039
0.11099
0.20552
0.104736
0.195178
0.0980829
0.184054
0.0910635
0.172191
0.0837121
0.159638
0.0760643
0.146442
0.0681562
0.132657
0.0600249
0.118339
0.0517079
0.103544
0.0432428
0.0883309
0.0346672
0.072762
0.0260185
0.0568995
0.0173337
0.0408074
0.008649
0.0245505
-5.03608e-13
0.00819454
-0.00857877
-0.00819454
-0.0170539
-0.0245505
-0.0253931
-0.0408074
-0.0335655
-0.0568995
-0.0415418
-0.072762
-0.049294
-0.0883309
-0.0567956
-0.103544
-0.064022
-0.118339
-0.0709499
-0.132657
-0.0775578
-0.146442
-0.0838258
-0.159638
-0.0897355
-0.172191
-0.0952702
-0.184054
-0.100415
-0.195178
-0.105155
-0.20552
-0.109479
-0.215039
-0.113376
-0.223699
-0.116836
-0.231465
-0.119851
-0.238308
-0.122414
-0.244202
-0.124519
-0.249124
-0.126161
-0.253057
-0.127336
-0.255986
-0.128042
-0.257901
-0.128278
-0.258796
-0.128042
-0.258669
-0.127336
-0.257522
-0.126161
-0.255361
-0.124519
-0.252195
-0.122414
-0.24804
-0.119851
-0.242912
-0.116836
-0.236833
-0.113376
-0.229827
-0.109479
-0.221925
-0.105155
-0.213157
-0.100415
-0.20356
-0.0952702
-0.19317
-0.0897355
-0.18203
-0.0838258
-0.170183
-0.0775578
-0.157677
-0.0709499
-0.14456
-0.064022
-0.130884
-0.0567956
-0.116701
-0.049294
-0.102068
-0.0415418
-0.0870407
-0.0335655
-0.0716775
-0.0253931
-0.0560377
-0.0170539
-0.0401819
-0.00857877
-0.0241713
-0.00806745
0.0120602
0.0106794
0.024169
0.0319974
0.0362769
0.0531931
0.0483333
0.0741854
0.0602867
0.0948939
0.0720851
0.115239
0.0836762
0.135143
0.0950075
0.154529
0.106027
0.173322
0.116683
0.19145
0.126925
0.208841
0.136704
0.225429
0.145973
0.241148
0.154685
0.255936
0.162797
0.269736
0.170268
0.282491
0.177061
0.294151
0.18314
0.304668
0.188475
0.314
0.193037
0.322109
0.196803
0.328959
0.199752
0.334523
0.20187
0.338775
0.203146
0.341697
0.203572
0.343274
0.203146
0.343498
0.20187
0.342365
0.199752
0.339877
0.196803
0.336041
0.193037
0.33087
0.188475
0.324381
0.18314
0.316599
0.177061
0.307553
0.170268
0.297275
0.162797
0.285806
0.154685
0.273189
0.145973
0.259474
0.136704
0.244713
0.126925
0.228966
0.116683
0.212294
0.106027
0.194764
0.0950075
0.176446
0.0836762
0.157413
0.0720851
0.137742
0.0602867
0.117512
0.0483333
0.0968042
0.0362769
0.0757034
0.024169
0.0542948
0.0120602
0.0326655
-6.87858e-13
0.0109033
-0.0119634
-0.0109033
-0.0237834
-0.0326655
-0.0354151
-0.0542948
-0.0468153
-0.0757034
-0.057943
-0.0968042
-0.068759
-0.117512
-0.0792266
-0.137742
-0.0893111
-0.157413
-0.09898
-0.176446
-0.108203
-0.194764
-0.116953
-0.212294
-0.125203
-0.228966
-0.13293
-0.244713
-0.140113
-0.259474
-0.146733
-0.273189
-0.152771
-0.285806
-0.158213
-0.297275
-0.163046
-0.307553
-0.167257
-0.316599
-0.170837
-0.324381
-0.173777
-0.33087
-0.17607
-0.336041
-0.177712
-0.339877
-0.178699
-0.342365
-0.179028
-0.343498
-0.178699
-0.343274
-0.177712
-0.341697
-0.17607
-0.338775
-0.173777
-0.334523
-0.170837
-0.328959
-0.167257
-0.322109
-0.163046
-0.314
-0.158213
-0.304668
-0.152771
-0.294151
-0.146733
-0.282491
-0.140113
-0.269736
-0.13293
-0.255936
-0.125203
-0.241148
-0.116953
-0.225429
-0.108203
-0.208841
-0.09898
-0.19145
-0.0893111
-0.173322
-0.0792266
-0.154529
-0.068759
-0.135143
-0.057943
-0.115239
-0.0468153
-0.0948939
-0.0354151
-0.0741854
-0.0237834
-0.0531931
-0.0119634
-0.0319974
-0.0106794
0.0154232
0.0132363
0.0309066
0.0396587
0.0463869
0.0659307
0.0617996
0.0919525
0.0770788
0.117625
0.0921582
0.142851
0.106971
0.167534
0.12145
0.19158
0.135529
0.214896
0.149143
0.237392
0.162227
0.258981
0.174718
0.27958
0.186556
0.299108
0.197683
0.317488
0.208042
0.334648
0.217583
0.350518
0.226257
0.365035
0.234019
0.37814
0.24083
0.389779
0.246654
0.399903
0.251462
0.40847
0.255228
0.415443
0.257932
0.420789
0.25956
0.424485
0.260104
0.426512
0.25956
0.426858
0.257932
0.425517
0.255228
0.42249
0.251462
0.417786
0.246654
0.41142
0.24083
0.403412
0.234019
0.393792
0.226257
0.382593
0.217583
0.369859
0.208042
0.355636
0.197683
0.339979
0.186556
0.32295
0.174718
0.304613
0.162227
0.285042
0.149143
0.264313
0.135529
0.24251
0.12145
0.219719
0.106971
0.196033
0.0921582
0.171547
0.0770788
0.14636
0.0617996
0.120575
0.0463869
0.0942962
0.0309066
0.0676317
0.0154232
0.0406901
-8.61056e-13
0.0135819
-0.0153014
-0.0135819
-0.0304214
-0.0406901
-0.0453024
-0.0676317
-0.0598893
-0.0942962
-0.0741293
-0.120575
-0.0879724
-0.14636
-0.101371
-0.171547
-0.114281
-0.196033
-0.126661
-0.219719
-0.138472
-0.24251
-0.149677
-0.264313
-0.160244
-0.285042
-0.170143
-0.304613
-0.179345
-0.32295
-0.187826
-0.339979
-0.195563
-0.355636
-0.202538
-0.369859
-0.208731
-0.382593
-0.214128
-0.393792
-0.218716
-0.403412
-0.222485
-0.41142
-0.225425
-0.417786
-0.227529
-0.42249
-0.228794
-0.425517
-0.229216
-0.426858
-0.228794
-0.426512
-0.227529
-0.424485
-0.225425
-0.420789
-0.222485
-0.415443
-0.218716
-0.40847
-0.214128
-0.399903
-0.208731
-0.389779
-0.202538
-0.37814
-0.195563
-0.365035
-0.187826
-0.350518
-0.179345
-0.334648
-0.170143
-0.317488
-0.160244
-0.299108
-0.149677
-0.27958
-0.138472
-0.258981
-0.126661
-0.237392
-0.114281
-0.214896
-0.101371
-0.19158
-0.0879724
-0.167534
-0.0741293
-0.142851
-0.0598893
-0.117625
-0.0453024
-0.0919525
-0.0304214
-0.0659307
-0.0153014
-0.0396587
-0.0132363
0.0187246
0.0157287
0.0375194
0.0471269
0.0563075
0.0783478
0.0750107
0.109274
0.0935493
0.139788
0.111843
0.169776
0.12981
0.199122
0.147371
0.227717
0.164445
0.25545
0.180952
0.282216
0.196814
0.307911
0.211957
0.332435
0.226306
0.355693
0.239792
0.377594
0.252347
0.39805
0.263909
0.41698
0.274419
0.434308
0.283824
0.449962
0.292077
0.463877
0.299133
0.475996
0.304958
0.486265
0.30952
0.49464
0.312796
0.501082
0.314768
0.505561
0.315427
0.508054
0.314768
0.508545
0.312796
0.507025
0.30952
0.503496
0.304958
0.497966
0.299133
0.490451
0.292077
0.480975
0.283824
0.469572
0.274419
0.456282
0.263909
0.441153
0.252347
0.424244
0.239792
0.405617
0.226306
0.385344
0.211957
0.363505
0.196814
0.340185
0.180952
0.315477
0.164445
0.289479
0.147371
0.262296
0.12981
0.234037
0.111843
0.204817
0.0935493
0.174755
0.0750107
0.143974
0.0563075
0.1126
0.0375194
0.0807618
0.0187246
0.0485907
-1.02274e-12
0.0162192
-0.0185798
-0.0162192
-0.0369422
-0.0485907
-0.0550174
-0.0807618
-0.0727382
-0.1126
-0.0900405
-0.143974
-0.106863
-0.174755
-0.123149
-0.204817
-0.138843
-0.234037
-0.153895
-0.262296
-0.168257
-0.289479
-0.181885
-0.315477
-0.194739
-0.340185
-0.206781
-0.363505
-0.217977
-0.385344
-0.228297
-0.405617
-0.237714
-0.424244
-0.246203
-0.441153
-0.253741
-0.456282
-0.260312
-0.469572
-0.265898
-0.480975
-0.270486
-0.490451
-0.274066
-0.497966
-0.276629
-0.503496
-0.278169
-0.507025
-0.278682
-0.508545
-0.278169
-0.508054
-0.276629
-0.505561
-0.274066
-0.501082
-0.270486
-0.49464
-0.265898
-0.486265
-0.260312
-0.475996
-0.253741
-0.463877
-0.246203
-0.449962
-0.237714
-0.434308
-0.228297
-0.41698
-0.217977
-0.39805
-0.206781
-0.377594
-0.194739
-0.355693
-0.181885
-0.332435
-0.168257
-0.307911
-0.153895
-0.282216
-0.138843
-0.25545
-0.123149
-0.227717
-0.106863
-0.199122
-0.0900405
-0.169776
-0.0727382
-0.139788
-0.0550174
-0.109274
-0.0369422
-0.0783478
-0.0185798
-0.0471269
-0.0157287
0.0219513
0.0181477
0.0439807
0.0543752
0.0659983
0.0903998
0.0879124
0.126087
0.10963
0.161302
0.131057
0.195914
0.152098
0.229793
0.17266
0.262809
0.192648
0.294838
0.211971
0.325758
0.230537
0.35545
0.248258
0.383798
0.265048
0.410694
0.280826
0.43603
0.295514
0.459707
0.309038
0.481629
0.321332
0.501708
0.332332
0.519861
0.341983
0.536013
0.350235
0.550094
0.357046
0.562043
0.362381
0.571808
0.366211
0.579342
0.368517
0.584609
0.369288
0.58758
0.368517
0.588236
0.366211
0.586567
0.362381
0.582571
0.357046
0.576257
0.350235
0.567643
0.341983
0.556755
0.332332
0.543631
0.321332
0.528316
0.309038
0.510866
0.295514
0.491346
0.280826
0.469829
0.265048
0.446398
0.248258
0.421144
0.230537
0.394166
0.211971
0.365572
0.192648
0.335475
0.17266
0.303996
0.152098
0.271264
0.131057
0.237411
0.10963
0.202576
0.0879124
0.166902
0.0659983
0.130536
0.0439807
0.0936291
0.0219513
0.0563334
-1.17236e-12
0.0188038
-0.0217856
-0.0188038
-0.0433206
-0.0563334
-0.0645229
-0.0936291
-0.0853135
-0.130536
-0.105617
-0.166902
-0.125362
-0.202576
-0.14448
-0.237411
-0.162907
-0.271264
-0.180584
-0.303996
-0.197453
-0.335475
-0.213463
-0.365572
-0.228566
-0.394166
-0.242718
-0.421144
-0.255878
-0.446398
-0.26801
-0.469829
-0.279082
-0.491346
-0.289063
-0.510866
-0.297929
-0.528316
-0.305656
-0.543631
-0.312227
-0.556755
-0.317624
-0.567643
-0.321835
-0.576257
-0.32485
-0.582571
-0.326662
-0.586567
-0.327266
-0.588236
-0.326662
-0.58758
-0.32485
-0.584609
-0.321835
-0.579342
-0.317624
-0.571808
-0.312227
-0.562043
-0.305656
-0.550094
-0.297929
-0.536013
-0.289063
-0.519861
-0.279082
-0.501708
-0.26801
-0.481629
-0.255878
-0.459707
-0.242718
-0.43603
-0.228566
-0.410694
-0.213463
-0.383798
-0.197453
-0.35545
-0.180584
-0.325758
-0.162907
-0.294838
-0.14448
-0.262809
-0.125362
-0.229793
-0.105617
-0.195914
-0.0853135
-0.161302
-0.0645229
-0.126087
-0.0433206
-0.0903998
-0.0217856
-0.0543752
-0.0181477
0.0250904
0.0204846
0.0502645
0.061378
0.0754199
0.102044
0.100452
0.142332
0.125254
0.182091
0.149719
0.221175
0.17374
0.259435
0.19721
0.29673
0.220021
0.332918
0.242068
0.367861
0.263248
0.401426
0.283462
0.433483
0.302611
0.463908
0.320604
0.492581
0.337351
0.519389
0.352771
0.544223
0.366785
0.566983
0.379325
0.587575
0.390325
0.605912
0.39973
0.621915
0.407493
0.635515
0.413572
0.646649
0.417937
0.655264
0.420565
0.661318
0.421443
0.664776
0.420565
0.665616
0.417937
0.663825
0.413572
0.659398
0.407493
0.652345
0.39973
0.642683
0.390325
0.630443
0.379325
0.615665
0.366785
0.598399
0.352771
0.578707
0.337351
0.556662
0.320604
0.532347
0.302611
0.505854
0.283462
0.477286
0.263248
0.446756
0.242068
0.414384
0.220021
0.3803
0.19721
0.344642
0.17374
0.307554
0.149719
0.269188
0.125254
0.229702
0.100452
0.18926
0.0754199
0.148028
0.0502645
0.106178
0.0250904
0.0638849
-1.30951e-12
0.0213247
-0.0249065
-0.0213247
-0.049532
-0.0638849
-0.0737824
-0.106178
-0.0975675
-0.148028
-0.120801
-0.18926
-0.1434
-0.229702
-0.165286
-0.269188
-0.186386
-0.307554
-0.206631
-0.344642
-0.225956
-0.3803
-0.2443
-0.414384
-0.261608
-0.446756
-0.277829
-0.477286
-0.292917
-0.505854
-0.306828
-0.532347
-0.319525
-0.556662
-0.330973
-0.578707
-0.341143
-0.598399
-0.350009
-0.615665
-0.357548
-0.630443
-0.363741
-0.642683
-0.368574
-0.652345
-0.372034
-0.659398
-0.374113
-0.663825
-0.374807
-0.665616
-0.374113
-0.664776
-0.372034
-0.661318
-0.368574
-0.655264
-0.363741
-0.646649
-0.357548
-0.635515
-0.350009
-0.621915
-0.341143
-0.605912
-0.330973
-0.587575
-0.319525
-0.566983
-0.306828
-0.544223
-0.292917
-0.519389
-0.277829
-0.492581
-0.261608
-0.463908
-0.2443
-0.433483
-0.225956
-0.401426
-0.206631
-0.367861
-0.186386
-0.332918
-0.165286
-0.29673
-0.1434
-0.259435
-0.120801
-0.221175
-0.0975675
-0.182091
-0.0737824
-0.142332
-0.049532
-0.102044
-0.0249065
-0.061378
-0.0204846
0.0281294
0.0227314
0.0563457
0.0681107
0.0845341
0.113239
0.112578
0.157952
0.140357
0.202082
0.167754
0.245467
0.194647
0.287946
0.220917
0.32936
0.246445
0.369553
0.271114
0.408374
0.294809
0.445674
0.317418
0.481309
0.338834
0.515143
0.358953
0.547041
0.377677
0.576877
0.394915
0.604531
0.41058
0.629891
0.424594
0.65285
0.436888
0.673312
0.447398
0.691188
0.456072
0.706399
0.462865
0.718874
0.467742
0.728554
0.470678
0.735389
0.471659
0.73934
0.470678
0.740379
0.467742
0.73849
0.462865
0.733669
0.456072
0.725921
0.447398
0.715267
0.436888
0.701738
0.424594
0.685377
0.41058
0.66624
0.394915
0.644394
0.377677
0.61992
0.358953
0.592908
0.338834
0.563461
0.317418
0.531693
0.294809
0.497729
0.271114
0.461704
0.246445
0.423762
0.220917
0.384057
0.194647
0.34275
0.167754
0.300011
0.140357
0.256017
0.112578
0.21095
0.0845341
0.164998
0.0563457
0.118354
0.0281294
0.0712119
-1.43381e-12
0.0237706
-0.0279302
-0.0237706
-0.0555522
-0.0712119
-0.0827604
-0.118354
-0.109453
-0.164998
-0.135534
-0.21095
-0.160909
-0.256017
-0.18549
-0.300011
-0.209194
-0.34275
-0.231942
-0.384057
-0.253662
-0.423762
-0.274285
-0.461704
-0.293747
-0.497729
-0.311991
-0.531693
-0.328963
-0.563461
-0.344615
-0.592908
-0.358903
-0.61992
-0.371789
-0.644394
-0.383238
-0.66624
-0.393219
-0.685377
-0.401707
-0.701738
-0.408682
-0.715267
-0.414124
-0.725921
-0.418021
-0.733669
-0.420363
-0.73849
-0.421144
-0.740379
-0.420363
-0.73934
-0.418021
-0.735389
-0.414124
-0.728554
-0.408682
-0.718874
-0.401707
-0.706399
-0.393219
-0.691188
-0.383238
-0.673312
-0.371789
-0.65285
-0.358903
-0.629891
-0.344615
-0.604531
-0.328963
-0.576877
-0.311991
-0.547041
-0.293747
-0.515143
-0.274285
-0.481309
-0.253662
-0.445674
-0.231942
-0.408374
-0.209194
-0.369553
-0.18549
-0.32936
-0.160909
-0.287946
-0.135534
-0.245467
-0.109453
-0.202082
-0.0827604
-0.157952
-0.0555522
-0.113239
-0.0279302
-0.0681107
-0.0227314
0.0310561
0.0248804
0.0621997
0.0745503
0.0933042
0.123948
0.124241
0.172893
0.154879
0.221206
0.185086
0.268709
0.214732
0.315226
0.243684
0.360586
0.271812
0.404617
0.298987
0.447155
0.325085
0.488038
0.349982
0.527108
0.373561
0.564215
0.395708
0.599213
0.416317
0.631963
0.435287
0.662334
0.452525
0.690199
0.467944
0.715444
0.481469
0.737961
0.493031
0.757651
0.502571
0.774426
0.510043
0.788208
0.515407
0.798929
0.518636
0.806534
0.519715
0.810977
0.518636
0.812228
0.515407
0.810266
0.510043
0.805083
0.502571
0.796688
0.493031
0.785097
0.481469
0.770346
0.467944
0.752479
0.452525
0.731556
0.435287
0.707652
0.416317
0.680851
0.395708
0.651254
0.373561
0.618972
0.349982
0.584131
0.325085
0.546867
0.298987
0.507328
0.271812
0.465672
0.243684
0.42207
0.214732
0.376698
0.185086
0.329744
0.154879
0.281404
0.124241
0.231877
0.0933042
0.181373
0.0621997
0.130102
0.0310561
0.0782822
-1.54512e-12
0.0261309
-0.0308448
-0.0261309
-0.0613578
-0.0782822
-0.0914223
-0.130102
-0.120926
-0.181373
-0.14976
-0.231877
-0.177823
-0.281404
-0.205015
-0.329744
-0.231245
-0.376698
-0.256424
-0.42207
-0.28047
-0.465672
-0.303308
-0.507328
-0.324866
-0.546867
-0.34508
-0.584131
-0.363888
-0.618972
-0.381238
-0.651254
-0.397079
-0.680851
-0.411367
-0.707652
-0.424064
-0.731556
-0.435135
-0.752479
-0.444552
-0.770346
-0.452289
-0.785097
-0.458328
-0.796688
-0.462652
-0.805083
-0.465251
-0.810266
-0.466118
-0.812228
-0.465251
-0.810977
-0.462652
-0.806534
-0.458328
-0.798929
-0.452289
-0.788208
-0.444552
-0.774426
-0.435135
-0.757651
-0.424064
-0.737961
-0.411367
-0.715444
-0.397079
-0.690199
-0.381238
-0.662334
-0.363888
-0.631963
-0.34508
-0.599213
-0.324866
-0.564215
-0.303308
-0.527108
-0.28047
-0.488038
-0.256424
-0.447155
-0.231245
-0.404617
-0.205015
-0.360586
-0.177823
-0.315226
-0.14976
-0.268709
-0.120926
-0.221206
-0.0914223
-0.172893
-0.0613578
-0.123948
-0.0308448
-0.0745503
-0.0248804
0.0338591
0.0269243
0.0678034
0.0806753
0.101695
0.134134
0.135394
0.187106
0.168758
0.239398
0.201645
0.29082
0.233911
0.341183
0.265415
0.3903
0.296015
0.437988
0.325571
0.484069
0.353949
0.528369
0.381016
0.570718
0.406645
0.610951
0.430714
0.648912
0.453107
0.68445
0.473716
0.71742
0.49244
0.747688
0.509188
0.775126
0.523875
0.799617
0.53643
0.821054
0.54679
0.839338
0.554902
0.854384
0.560726
0.866117
0.564232
0.874475
0.565403
0.879408
0.564232
0.880878
0.560726
0.878864
0.554902
0.873355
0.54679
0.864357
0.53643
0.851888
0.523875
0.835983
0.509188
0.816691
0.49244
0.794075
0.473716
0.768212
0.453107
0.739197
0.430714
0.707136
0.406645
0.672149
0.381016
0.634373
0.353949
0.593955
0.325571
0.551055
0.296015
0.505846
0.265415
0.458513
0.233911
0.409248
0.201645
0.358256
0.168758
0.30575
0.135394
0.251948
0.101695
0.197078
0.0678034
0.141372
0.0338591
0.085064
-1.64348e-12
0.0283949
-0.0336389
-0.0283949
-0.0669263
-0.085064
-0.0997346
-0.141372
-0.131941
-0.197078
-0.163426
-0.251948
-0.194079
-0.30575
-0.223789
-0.358256
-0.252457
-0.409248
-0.279984
-0.458513
-0.306281
-0.505846
-0.331263
-0.551055
-0.354852
-0.593955
-0.376975
-0.634373
-0.397566
-0.672149
-0.416563
-0.707136
-0.433913
-0.739197
-0.449565
-0.768212
-0.463476
-0.794075
-0.475608
-0.816691
-0.485928
-0.835983
-0.494409
-0.851888
-0.501029
-0.864357
-0.505769
-0.873355
-0.508618
-0.878864
-0.509569
-0.880878
-0.508618
-0.879408
-0.505769
-0.874475
-0.501029
-0.866117
-0.494409
-0.854384
-0.485928
-0.839338
-0.475608
-0.821054
-0.463476
-0.799617
-0.449565
-0.775126
-0.433913
-0.747688
-0.416563
-0.71742
-0.397566
-0.68445
-0.376975
-0.648912
-0.354852
-0.610951
-0.331263
-0.570718
-0.306281
-0.528369
-0.279984
-0.484069
-0.252457
-0.437988
-0.223789
-0.3903
-0.194079
-0.341183
-0.163426
-0.29082
-0.131941
-0.239398
-0.0997346
-0.187106
-0.0669263
-0.134134
-0.0336389
-0.0806753
-0.0269243
0.0365271
0.0288563
0.0731342
0.0864652
0.109673
0.143763
0.145992
0.200542
0.18194
0.256598
0.217363
0.311727
0.252108
0.365728
0.286022
0.418401
0.318954
0.469553
0.350756
0.518991
0.381282
0.56653
0.410392
0.611987
0.437949
0.655188
0.463824
0.695962
0.487892
0.734149
0.51004
0.769593
0.530159
0.802148
0.548151
0.831677
0.563929
0.858053
0.577415
0.881159
0.588541
0.90089
0.597253
0.917151
0.603507
0.92986
0.607272
0.938948
0.608529
0.944362
0.607272
0.946058
0.603507
0.94401
0.597253
0.938207
0.588541
0.928652
0.577415
0.915364
0.563929
0.898378
0.548151
0.877744
0.530159
0.853531
0.51004
0.825819
0.487892
0.794708
0.463824
0.760313
0.437949
0.722762
0.410392
0.6822
0.381282
0.638787
0.350756
0.592694
0.318954
0.544107
0.286022
0.493224
0.252108
0.440255
0.217363
0.385419
0.18194
0.328946
0.145992
0.271072
0.109673
0.212044
0.0731342
0.15211
0.0365271
0.0915268
-1.72839e-12
0.0305525
-0.0363016
-0.0305525
-0.0722358
-0.0915268
-0.107665
-0.15211
-0.142455
-0.212044
-0.176479
-0.271072
-0.209613
-0.328946
-0.24174
-0.385419
-0.272749
-0.440255
-0.302534
-0.493224
-0.330997
-0.544107
-0.358045
-0.592694
-0.383592
-0.638787
-0.407558
-0.6822
-0.42987
-0.722762
-0.450461
-0.760313
-0.469269
-0.794708
-0.486242
-0.825819
-0.501329
-0.853531
-0.514489
-0.877744
-0.525686
-0.898378
-0.534888
-0.915364
-0.542071
-0.928652
-0.547215
-0.938207
-0.550307
-0.94401
-0.551339
-0.946058
-0.550307
-0.944362
-0.547215
-0.938948
-0.542071
-0.92986
-0.534888
-0.917151
-0.525686
-0.90089
-0.514489
-0.881159
-0.501329
-0.858053
-0.486242
-0.831677
-0.469269
-0.802148
-0.450461
-0.769593
-0.42987
-0.734149
-0.407558
-0.695962
-0.383592
-0.655188
-0.358045
-0.611987
-0.330997
-0.56653
-0.302534
-0.518991
-0.272749
-0.469553
-0.24174
-0.418401
-0.209613
-0.365728
-0.176479
-0.311727
-0.142455
-0.256598
-0.107665
-0.200542
-0.0722358
-0.143763
-0.0363016
-0.0864652
-0.0288563
0.0390496
0.0306703
0.0781711
0.0919012
0.117206
0.152803
0.155994
0.213158
0.194372
0.272749
0.232178
0.331361
0.269248
0.38878
0.305422
0.444797
0.340538
0.499205
0.37444
0.551802
0.406973
0.602389
0.43799
0.650774
0.467345
0.696771
0.494902
0.740199
0.520531
0.780885
0.54411
0.818665
0.565525
0.853383
0.584675
0.884891
0.601465
0.913053
0.615814
0.937744
0.627652
0.95885
0.636921
0.976269
0.643574
0.989912
0.647579
0.999704
0.648916
1.00558
0.647579
1.00751
0.643574
1.00544
0.636921
0.999378
0.627652
0.989311
0.615814
0.975264
0.601465
0.95727
0.584675
0.935383
0.565525
0.909673
0.54411
0.880226
0.520531
0.847146
0.494902
0.810555
0.467345
0.770589
0.43799
0.727403
0.406973
0.681165
0.37444
0.632059
0.340538
0.580283
0.305422
0.526048
0.269248
0.469579
0.232178
0.41111
0.194372
0.350886
0.155994
0.289163
0.117206
0.226201
0.0781711
0.162269
0.0390496
0.0976411
-1.80009e-12
0.0325937
-0.0388224
-0.0325937
-0.0772656
-0.0976411
-0.115182
-0.162269
-0.152428
-0.226201
-0.188867
-0.289163
-0.224366
-0.350886
-0.258798
-0.41111
-0.292043
-0.469579
-0.323988
-0.526048
-0.354524
-0.580283
-0.383552
-0.632059
-0.410977
-0.681165
-0.436713
-0.727403
-0.460679
-0.770589
-0.482802
-0.810555
-0.503015
-0.847146
-0.521259
-0.880226
-0.53748
-0.909673
-0.551632
-0.935383
-0.563674
-0.95727
-0.573572
-0.975264
-0.5813
-0.989311
-0.586834
-0.999378
-0.590161
-1.00544
-0.591271
-1.00751
-0.590161
-1.00558
-0.586834
-0.999704
-0.5813
-0.989912
-0.573572
-0.976269
-0.563674
-0.95885
-0.551632
-0.937744
-0.53748
-0.913053
-0.521259
-0.884891
-0.503015
-0.853383
-0.482802
-0.818665
-0.460679
-0.780885
-0.436713
-0.740199
-0.410977
-0.696771
-0.383552
-0.650774
-0.354524
-0.602389
-0.323988
-0.551802
-0.292043
-0.499205
-0.258798
-0.444797
-0.224366
-0.38878
-0.188867
-0.331361
-0.152428
-0.272749
-0.115182
-0.213158
-0.0772656
-0.152803
-0.0388224
-0.0919012
-0.0306703
0.0414167
0.0323603
0.0828942
0.0969658
0.124265
0.161227
0.165358
0.224914
0.206004
0.287799
0.24603
0.349657
0.285264
0.410264
0.323537
0.4694
0.36068
0.526847
0.396528
0.582391
0.43092
0.635826
0.463699
0.686947
0.494715
0.735558
0.523825
0.781468
0.550892
0.824495
0.575789
0.864464
0.598399
0.901209
0.618612
0.934575
0.636333
0.964417
0.651475
0.990599
0.663967
1.013
0.673746
1.03151
0.680765
1.04604
0.684991
1.0565
0.686401
1.06284
0.684991
1.06498
0.680765
1.06292
0.673746
1.05662
0.663967
1.04609
0.651475
1.03134
0.636333
1.01241
0.618612
0.989364
0.598399
0.962262
0.575789
0.931199
0.550892
0.896284
0.523825
0.857643
0.494715
0.815421
0.463699
0.769781
0.43092
0.7209
0.396528
0.668974
0.36068
0.614211
0.323537
0.556837
0.285264
0.497087
0.24603
0.435212
0.206004
0.371472
0.165358
0.306137
0.124265
0.239485
0.0828942
0.171802
0.0414167
0.103379
-1.85881e-12
0.0345092
-0.0411912
-0.0345092
-0.0819958
-0.103379
-0.122257
-0.171802
-0.161821
-0.239485
-0.200543
-0.306137
-0.238279
-0.371472
-0.274896
-0.435212
-0.310264
-0.497087
-0.34426
-0.556837
-0.376769
-0.614211
-0.407683
-0.668974
-0.436899
-0.7209
-0.464325
-0.769781
-0.489872
-0.815421
-0.513461
-0.857643
-0.535019
-0.896284
-0.554481
-0.931199
-0.57179
-0.962262
-0.586893
-0.989364
-0.599746
-1.01241
-0.610313
-1.03134
-0.618563
-1.04609
-0.624473
-1.05662
-0.628026
-1.06292
-0.629211
-1.06498
-0.628026
-1.06284
-0.624473
-1.0565
-0.618563
-1.04604
-0.610313
-1.03151
-0.599746
-1.013
-0.586893
-0.990599
-0.57179
-0.964417
-0.554481
-0.934575
-0.535019
-0.901209
-0.513461
-0.864464
-0.489872
-0.824495
-0.464325
-0.781468
-0.436899
-0.735558
-0.407683
-0.686947
-0.376769
-0.635826
-0.34426
-0.582391
-0.310264
-0.526847
-0.274896
-0.4694
-0.238279
-0.410264
-0.200543
-0.349657
-0.161821
-0.287799
-0.122257
-0.224914
-0.0819958
-0.161227
-0.0411912
-0.0969658
-0.0323603
0.043619
0.033921
0.0872847
0.101643
0.130821
0.169006
0.174049
0.235771
0.216791
0.3017
0.258865
0.366558
0.300093
0.430111
0.340297
0.49213
0.379302
0.552387
0.416935
0.61066
0.453028
0.666729
0.48742
0.720384
0.519954
0.771417
0.55048
0.819628
0.578858
0.864827
0.604955
0.906828
0.62865
0.945457
0.649831
0.980551
0.668397
1.01196
0.68426
1.03953
0.697343
1.06314
0.707586
1.08268
0.714937
1.09804
0.719362
1.10913
0.720839
1.11589
0.719362
1.11826
0.714937
1.1162
0.707586
1.1097
0.697343
1.09874
0.68426
1.08336
0.668397
1.06358
0.649831
1.03946
0.62865
1.01107
0.604955
0.978519
0.578858
0.941907
0.55048
0.90137
0.519954
0.85706
0.48742
0.809146
0.453028
0.757816
0.416935
0.703273
0.379302
0.645739
0.340297
0.585449
0.300093
0.522654
0.258865
0.457615
0.216791
0.390607
0.174049
0.321916
0.130821
0.251835
0.0872847
0.180665
0.043619
0.108713
-1.90448e-12
0.03629
-0.0433989
-0.03629
-0.0864077
-0.108713
-0.128861
-0.180665
-0.170596
-0.251835
-0.211459
-0.321916
-0.251299
-0.390607
-0.289971
-0.457615
-0.327339
-0.522654
-0.363271
-0.585449
-0.397645
-0.645739
-0.430342
-0.703273
-0.461256
-0.757816
-0.490284
-0.809146
-0.517332
-0.85706
-0.542314
-0.90137
-0.565152
-0.941907
-0.585775
-0.978519
-0.604119
-1.01107
-0.620129
-1.03946
-0.633757
-1.06358
-0.644963
-1.08336
-0.653712
-1.09874
-0.65998
-1.1097
-0.663748
-1.1162
-0.665006
-1.11826
-0.663748
-1.11589
-0.65998
-1.10913
-0.653712
-1.09804
-0.644963
-1.08268
-0.633757
-1.06314
-0.620129
-1.03953
-0.604119
-1.01196
-0.585775
-0.980551
-0.565152
-0.945457
-0.542314
-0.906828
-0.517332
-0.864827
-0.490284
-0.819628
-0.461256
-0.771417
-0.430342
-0.720384
-0.397645
-0.666729
-0.363271
-0.61066
-0.327339
-0.552387
-0.289971
-0.49213
-0.251299
-0.430111
-0.211459
-0.366558
-0.170596
-0.3017
-0.128861
-0.235771
-0.0864077
-0.169006
-0.0433989
-0.101643
-0.033921
0.0456479
0.0353476
0.0913257
0.105918
0.136849
0.176117
0.182033
0.245695
0.22669
0.314408
0.270634
0.382009
0.313678
0.448258
0.355637
0.512915
0.396332
0.575744
0.435582
0.636514
0.473215
0.694998
0.509063
0.750974
0.542965
0.804227
0.574766
0.85455
0.604323
0.901741
0.631499
0.945609
0.656168
0.98597
0.678215
1.02265
0.697538
1.0555
0.714045
1.08435
0.727658
1.10908
0.738315
1.12957
0.745962
1.1457
0.750566
1.15738
0.752103
1.16454
0.750566
1.16712
0.745962
1.16508
0.738315
1.1584
0.727658
1.14707
0.714045
1.1311