/*--------------------------------*- C++ -*----------------------------------*\
  =========                 |
  \\      /  F ield         | OpenFOAM: The Open Source CFD Toolbox
   \\    /   O peration     | Website:  https://openfoam.org
    \\  /    A nd           | Version:  6
     \\/     M anipulation  |
\*---------------------------------------------------------------------------*/
FoamFile
{
    version     2.0;
    format      ascii;
    class       surfaceScalarField;
    location    "1.15";
    object      meshPhi;
}
// * * * * * * * * * * * * * * * * * * * * * * * * * * * * * * * * * * * * * //

dimensions      [0 3 -1 0 0 0 0];

internalField   nonuniform List<scalar> 
11670
(
-0.13441
-0.0882763
0.0111038
0.216947
-0.0534368
0.022568
-0.0278278
0.044789
-0.331285
-0.0665418
0.0222895
0.356148
-0.394408
-0.239619
0.0412084
0.610507
-0.153956
-0.0673415
0.0150922
0.237715
0.00491033
0.00692153
0.00091859
-0.00104749
0.401832
0.0895567
-0.0528264
-0.426219
-0.194137
-0.0600396
0.0207493
0.199503
0.318167
-0.164407
0.176766
-0.318597
-0.237559
0.119998
-0.16145
0.259413
0.57527
0.304321
-0.0591874
-0.825272
-0.00172848
-0.00592136
0.00624331
-0.0087197
0.00932078
-0.0065168
0.0136658
-0.00656037
-0.000859829
0.00526648
-0.00647695
0.0145009
-0.00775557
0.00722675
-0.0183975
0.00666649
-0.00281979
0.00398944
0.00780959
-0.00321595
-0.00361839
0.00226726
-0.00593484
0.00260266
-0.000189008
-0.00244297
0.00261934
-0.00364509
-0.00141505
0.00557113
0.0109563
-0.00688104
-0.000597624
0.0038179
-0.00254917
0.00375673
-0.00383157
0.00295484
-0.00760207
0.00280941
9.64008e-05
0.00301001
-0.002256
0.00225915
0.000399906
-0.00282891
0.0024455
-0.00355632
-0.00859182
0.00240383
-0.010441
0.00667239
0.00528218
-0.00413866
0.00863512
-0.0031931
-0.0107832
0.0140916
-0.00653942
0.021711
0.00671455
-0.00758774
0.00688925
-0.0213516
0.000734315
0.00866204
0.0157344
-0.010301
-0.00757475
0.00141499
0.0106449
-0.0168468
0.0190151
-0.0176229
-0.0106357
0.0340707
-0.0093462
0.00167896
0.0132499
-0.0210959
0.000740346
0.0108461
0.0193227
-0.0128133
0.0236502
-0.0217989
-0.0132297
0.0421199
-0.00284869
-0.00967234
-0.0208171
0.0139371
-0.0207149
0.0188512
0.01439
-0.0458761
-0.0180478
0.0199148
-0.0143867
0.0459858
0.0189195
-0.0064394
0.0207189
-0.0139338
-0.0101479
0.0138202
0.0306777
-0.0140736
-0.0147386
0.00460468
-0.02066
0.013787
0.0155394
-0.0204876
0.0159886
-0.0504395
0.0100739
-0.00276352
0.0192716
-0.0121034
0.00699736
-0.00794339
-0.033117
0.0117169
0.0247129
-0.0190731
-0.0115025
0.0375089
-0.0153515
0.00217816
0.0109731
-0.0148776
-0.00105842
0.0062855
-0.00836633
0.0166416
0.000557963
-0.00424023
-0.0180753
0.00846761
0.0134272
-0.00945414
0.020081
-0.00847408
-0.0127001
0.00709592
0.00835994
-0.0183411
0.00375614
-0.000920784
0.00747458
-0.00469436
-0.00575716
0.000974748
0.0042461
-0.00523779
0.0091828
-0.00701664
-0.0044613
0.0146293
0.00313504
-0.00352034
-0.0137208
0.00453391
-0.000338642
8.24585e-05
2.06408e-05
-0.000493563
-0.000305541
0.000368175
0.00108245
2.53984e-05
-2.80981e-14
2.80981e-14
0
0
0.00802279
0.000461308
-0.00406466
0.00347414
-0.00664061
-0.000201189
-0.00502143
0.00415947
0.00624806
-0.00652136
0.0166931
-0.00546035
-0.00259197
0.00408337
0.00474953
-0.0136071
0.000752133
0.00830847
0.0149294
-0.0102746
-0.0127758
0.00268079
0.00951901
-0.0137496
0.0187527
-0.017362
-0.0106085
0.0343581
0.0110287
-0.0134563
-0.0369666
0.0118277
0.00726667
-0.00190322
0.0141392
-0.00888002
0.0184581
-0.0141885
-0.00843915
0.0280182
0.00976332
-0.00899549
-0.0314955
0.00915167
-0.0119776
0.00199802
0.0085051
-0.010759
0.011884
-0.00354021
-0.0144191
0.0229571
-0.0194548
0.00284164
0.0138185
-0.01812
0.014634
-0.0134089
-0.0499787
0.0148691
0.0129051
-0.0145038
0.0139909
-0.0453627
-0.0163422
0.00424345
-0.0200556
0.0135505
0.00161708
0.014599
-0.0134439
0.0177489
0.0250355
-0.0261152
0.0487018
-0.0144659
0.000760462
0.0106269
0.0188453
-0.0127976
0.02363
-0.0219078
-0.0132136
0.0424733
-0.00354475
-0.0115738
0.0126915
-0.0164184
-0.0187976
0.0199306
-0.0463199
0.0136563
-0.0165375
-0.00110261
-0.0129467
0.0107243
0.0140616
-0.00186007
0.0131976
-0.00967937
0.0224952
-0.0175939
-0.0152671
0.0422241
-0.006079
0.00992424
0.0122456
-0.0350829
-0.0145824
0.019383
-0.0685893
0.140188
-0.142149
-0.345605
0.047098
-0.0566939
-0.120473
-0.147904
0.164372
0.394139
0.0388077
-0.0463445
-0.126487
0.00138568
0.00803194
0.00334107
0.0998101
-0.0952436
-0.223374
0.17407
-0.178666
-0.374624
0.140328
-0.083293
0.270277
-0.0587638
0.0666971
-0.260035
-0.254514
0.243302
0.577749
-0.237033
0.154443
0.576483
-0.493698
-0.0119453
-0.040411
0.203772
-0.151193
-1.00299e-05
-0.00278646
-0.00109822
0.00168681
0.0122418
0.0289906
-0.0756235
0.0268451
-0.0183826
0.120749
0.0429541
-0.15493
0.0347352
-0.240333
-0.0504433
0.246071
0.0223883
0.0738831
-0.0987493
0.0133268
0.0372482
-0.231473
-0.0244406
0.216555
-0.122873
0.576483
-0.464918
-0.00305446
0.0123497
0.0138401
-0.0293222
-0.000557129
-0.0111179
0.00490675
-0.000207977
-0.0104508
-0.0375045
0.0763123
-0.0209816
-0.00941301
-0.00941035
0.0107788
0.0220129
-0.0156361
0.00104702
-0.00780417
-0.0538617
-0.00982713
0.0607119
-0.0266883
0.0172389
0.000517091
0.148393
-4.81943e-05
-0.115968
0.0758216
-0.161076
0.0578315
0.00101713
-0.00376734
0.00057713
-0.10955
0.194599
-0.0604111
-0.112886
0.191313
-0.0435802
0.0500187
0.0122226
-0.0574615
-0.0293096
0.0993778
0.0709016
-0.158887
0.0438457
0.0757617
-0.166834
-0.000160006
0.0223379
-0.000434057
-0.0402958
-0.0586166
-0.000391077
0.0402958
0.0477997
-0.109231
-0.114584
0.196041
-0.0888164
-0.11521
0.271852
0.0119212
-0.0324541
0.0498095
-0.0314754
-0.0265984
-0.0327504
0.0690712
0.149108
-0.441229
-0.335884
0.617477
-0.195651
-0.314132
0.648362
0.105168
0.167633
0.255071
-0.548413
0.308231
0.251654
-0.475256
-0.0501049
0.0998989
0.0998425
-0.168259
0.0660503
0.0985484
-0.233326
0.0673192
0.0907177
0.174067
-0.310439
0.274665
0.172544
-0.358225
2.3187e-05
-0.0139624
-5.28717e-05
0.00976304
0.00560717
-4.99564e-05
-0.00976304
0.0141906
-0.29094
0.0846259
-0.0286844
0.0307276
-0.0674901
-0.111386
-0.0196127
0.071807
0.0869409
-0.0700837
0.0233658
-0.0247459
0.0611403
-0.0880084
-0.0133167
0.0514285
0.0685842
0.0928289
0.0124852
-0.052604
-0.0700653
0.057737
-0.0195667
0.019806
-0.0487147
-0.0567169
-0.00689736
0.0306727
0.0422412
0.0229981
-0.0103059
0.00857479
-0.0218891
-0.026456
0.0121084
-0.0108428
0.0259988
0.0568344
0.00654645
-0.0308185
-0.0411345
-0.122241
0.0324801
-0.0359714
0.0998897
0.142537
0.0213192
-0.0778055
-0.117063
-0.289523
-0.0982304
0.137553
0.240936
0.389352
-0.195948
0.0974691
-0.308119
-0.274189
0.14119
-0.0676479
0.206757
0.172848
0.0609058
-0.0922226
-0.144546
-0.377127
0.155228
-0.0539044
0.259685
0.349072
0.128399
-0.171172
-0.282175
-0.327325
0.197244
-0.0934583
0.248759
-0.173686
-0.025172
0.0788296
0.115007
-0.0842753
0.0490378
-0.021243
0.07075
0.520444
-0.362264
0.0221356
-0.193059
0.503475
-0.229458
-0.0377691
-0.235138
-0.768442
0.359336
-0.206462
0.591544
0.601957
-0.281773
0.101293
-0.389096
-0.44427
0.263147
-0.0826156
0.266545
-0.222038
0.563697
0.0688905
-0.401819
-0.376444
0.182198
-0.0249565
0.212775
-0.340285
0.137062
-0.0702038
0.23211
0.326793
-0.0206126
-0.732836
0.431929
0.813847
-0.416912
0.238527
-0.640642
-0.51306
0.196907
-0.0531762
0.3542
0.567402
0.16299
-0.301002
-0.453479
-0.432491
0.0175807
0.220371
0.202121
0.554464
-0.318403
0.0654113
-0.313769
0.165512
0.0604478
-0.107782
-0.16661
-0.15484
0.13941
-0.06771
0.123043
0.498094
-0.0342485
-0.325527
-0.124596
0.585632
-0.293111
0.192962
-0.440196
-0.540323
0.246193
0.0407957
0.242516
-0.536898
0.21653
-0.120917
0.403488
0.233303
-0.000972676
-0.101154
-0.114247
-0.334372
0.124675
-0.0672576
0.234112
-0.666213
-0.208552
0.352744
0.520885
-0.538169
0.272007
0.00944437
0.262958
-0.407043
0.215607
-0.0907753
0.307771
0.051774
-0.167644
0.396119
-0.301188
0.120307
0.0201265
-0.0806679
-0.0831486
0.119244
-0.0422457
0.0399551
-0.0848581
-0.0468552
-0.0183948
0.0387716
0.0454538
0.415128
0.118298
-0.209283
-0.365513
-0.363038
-0.140257
0.23894
0.303966
0.161703
0.0554298
-0.100599
-0.16246
0.122554
-0.0640933
-0.00815512
-0.0322326
-0.0942073
0.00583126
0.0786567
0.0248474
0.0086677
-0.0313696
0.0181378
-1.77004e-14
0.000343817
-0.00235857
8.58153e-15
0.00231503
-0.000300283
1.94351e-14
-9.42285e-15
-0.00235936
-0.0344332
0.0203746
-0.0809891
0.0437988
0.229399
-0.164114
-0.188047
-0.0270895
0.101954
0.13688
3.01185e-13
-0.00873709
-0.00373774
-9.42964e-14
6.67661e-14
-0.0017706
-0.00344837
2.45358e-14
-0.0166113
0.000145617
-0.00313055
0.00915935
-0.0461607
0.0180991
-0.00422064
0.0220444
-0.0174026
9.57323e-05
0.00647458
0.00973891
0.0166113
9.03427e-05
-0.00668272
-0.00915853
0.0174037
0.00016422
0.0038255
-0.00973891
-0.000108602
0.00401575
0.00868475
1.389e-05
-5.82288e-07
-0.00646259
-0.0107502
4.8705e-06
5.53518e-06
-0.0153482
-0.00854475
-4.28943e-07
0.0152599
0.00846822
2.04987e-05
-9.61002e-05
-0.29793
0.103823
-0.0548212
0.218013
0.219372
-0.0673387
0.00110606
-0.130448
0.0414366
-0.142235
0.269335
-0.199599
-0.677658
-0.113867
0.275148
0.483192
0.414994
-0.0258042
-0.263152
-0.108732
-0.092942
0.0359055
0.0052849
0.0516356
0.491876
0.166211
-0.239806
-0.370219
0.11563
0.024307
-0.0609572
-0.0787096
0.211186
-0.0092102
-0.0897301
-0.0953464
-0.293807
-0.0609626
0.106489
0.205629
-0.000180072
0.0111059
0.0184544
1.75842e-05
2.4241e-05
0.021593
0.0140397
-0.000160804
-0.00355612
0.00220231
-0.0144469
-0.00378338
0.241298
-0.132467
0.0508152
-0.181268
0.051973
-0.0825704
0.189109
-0.144759
-0.222962
0.117152
-0.0382571
0.163143
-0.224884
-0.0779
0.0985202
0.187136
-0.362587
0.267855
0.0207214
0.0950696
-0.28109
0.10591
0.544917
-0.403949
0.0976482
0.00905912
-0.0167227
-0.0484865
-0.309536
0.204227
-0.115089
0.259581
-0.140497
0.0454435
-0.00706239
0.0789358
-0.106786
-0.0216661
0.0766708
0.0827829
0.12205
-0.0385473
0.0490867
-0.0975203
-0.10991
0.0724445
0.004766
0.0498407
0.139931
-0.0896914
0.0486418
-0.140901
-0.0572861
0.172845
-0.508989
0.364135
0.208553
0.0761508
-0.0926701
-0.1683
-0.245512
0.142656
-0.0652001
0.197889
0.361055
0.0886258
-0.153928
-0.269683
-0.392972
-0.0793935
0.150722
0.296005
0.194122
-0.0774935
-0.349518
0.261177
-0.211761
0.0882782
0.439694
-0.348971
0.348882
0.10436
-0.263756
-0.376407
-0.0628136
0.138195
0.263191
0.127688
-0.22835
0.460609
-0.328115
0.221673
0.0693556
-0.0886952
-0.161664
0.110802
-0.0276116
0.0120642
-0.057858
0.404243
-0.178132
0.0416161
-0.294249
-0.226408
0.144303
0.187939
0.269318
-0.133385
0.0445125
-0.212018
-0.450351
0.249467
-0.101509
0.33312
-0.0888024
0.0682109
-0.0384309
0.0881867
-0.072639
0.00356846
0.0374583
0.0877317
-0.0183009
0.000434609
-0.0429122
-0.552152
0.304205
-0.145046
0.419353
-0.0750633
0.0164631
-0.00673988
0.0378401
-0.731394
0.394661
-0.221345
0.56589
-0.0617708
0.0141359
0.00214479
0.0284486
0.565599
0.1438
-0.261097
-0.425887
-0.0827899
-0.00919063
0.0114695
0.0420934
0.0657236
-0.0169393
-0.0128587
-0.00580096
-0.733987
0.382555
-0.220219
0.568489
0.848855
0.259943
-0.428855
-0.674076
-0.378676
0.0909138
0.0379818
0.231985
0.260615
-0.115911
-0.014084
-0.117817
-0.248378
0.00889746
0.142087
0.112282
0.287804
0.038008
-0.165784
-0.178303
0.266511
-0.0946361
-0.00227551
-0.147275
-0.242003
0.102032
0.0105193
0.114467
0.114955
0.0239004
-0.286125
0.13872
0.292038
-0.020811
-0.141003
-0.141587
-0.160027
0.108879
0.370774
-0.293832
-0.327904
-0.0679424
0.170758
0.24826
0.0197612
0.0109765
-2.80019e-12
8.43132e-13
8.69499e-13
0.00855847
0.0175625
-3.63847e-13
-0.194289
0.0634296
0.0219955
0.0984341
0.14242
-0.00699433
-0.076017
-0.0724045
0.852275
0.250629
-0.432461
-0.677111
-0.632029
0.0205954
0.252552
0.364404
0.132508
0.020082
-0.0749218
-0.106774
-0.139733
0.0360166
-0.0428816
0.116396
0.221658
0.0584102
-0.0870401
-0.168081
0.137932
-0.0557058
-0.251233
0.199474
0.215191
-0.124371
-0.0137119
-0.0565535
0.168474
-0.0126086
-0.114593
-0.0420988
0.130334
-0.0784754
0.0464921
-0.108564
-0.100151
-0.0135148
0.19635
-0.0951955
-0.0453408
0.00930189
0.00247905
0.0290743
0.0183454
0.0738109
-0.200439
0.0971776
-0.204781
0.0151307
0.0986725
0.0903056
-0.143586
0.032681
-0.0248966
0.108012
-0.108892
0.0764275
0.0110062
0.0271893
0.0149054
-0.0734463
0.1304
-0.0989022
-0.0890644
-0.0113348
0.0593746
0.056084
0.111035
-0.0854276
-0.0132577
-0.0284768
-0.178435
0.00975528
0.141799
0.0470574
-0.170652
0.0207454
0.0869559
0.0440122
0.0125965
0.00933498
-0.0837002
0.052449
-0.290197
0.16431
-0.0563556
0.17387
-0.26484
0.0130393
0.120403
0.152731
0.13458
-0.00159149
-0.0790748
-0.0750433
0.255788
-0.131069
-0.0176408
-0.112753
-0.0177054
0.0748376
-0.108917
0.0806664
0.0911468
-0.024894
0.0324007
-0.0697868
0.110948
0.0127179
-0.0606106
-0.08553
0.0321616
-0.0322284
-0.143363
0.112994
0.0946275
-0.0314742
0.0347102
-0.0745943
-0.0938336
-0.012022
0.0318263
0.0548339
-0.117906
-0.0216935
0.0774178
0.0929618
0.0324889
0.000948772
-0.022783
-0.0138444
0.12035
-0.0333859
0.0314802
-0.0887705
-0.0799472
-0.0175181
0.0541283
0.0682099
-0.318399
-0.0814866
0.125616
0.235802
-0.105073
0.0140054
0.00692237
0.0661223
0.27401
-0.151288
0.0714155
-0.230877
-0.0363007
0.0071665
-0.00457237
0.0209222
-0.22742
-0.0515977
0.121848
0.157173
0.0682353
-0.0154374
0.0117021
-0.0430464
0.115099
-0.0455337
0.0130717
-0.0736467
-0.534507
0.0373777
0.210086
0.29915
0.278705
0.0700203
-0.158959
-0.180384
-0.0397228
0.0676202
-0.112186
0.104637
0.149126
-0.0113513
-0.0629695
-0.104741
0.100679
0.0407983
-0.0635692
-0.10174
-0.167636
-0.0581516
0.120636
0.145171
0.0210127
0.0877595
-0.0810284
0.173209
-0.0623392
-0.119805
-0.171134
0.0531216
0.121599
-0.020968
-0.0799242
0.0691418
0.486342
-0.176845
-0.0279038
-0.266731
-0.140269
-0.0680305
0.104248
0.140811
-0.0864301
-0.0134782
0.0632515
0.0539761
0.148533
-0.304873
0.636162
-0.467116
-0.653529
-0.188984
0.323983
0.504664
0.223283
-0.123874
0.0675306
-0.206306
-0.651225
0.306698
-0.0949902
0.424929
0.376065
-0.158097
0.0750514
-0.255059
-0.529634
0.274269
-0.0879356
0.319505
-0.0468394
0.544235
-0.118846
-0.354662
0.21665
-0.0907194
0.0351057
-0.151234
-0.201764
0.0906268
-0.0424573
0.141082
-0.269821
-0.0982969
0.140873
0.237091
-0.05668
0.0107377
-0.0143581
0.0411138
0.0264878
0.00709961
-0.0188537
-0.0262633
-0.0230117
-0.00685323
0.019106
0.0215837
-0.16644
-0.0191159
0.0442403
0.112236
0.0580568
-0.0125878
0.0193606
-0.0422487
0.148036
0.0316477
-0.0597392
-0.0937075
-0.174753
0.381966
-0.756952
0.553886
-0.230225
0.175589
-0.0529605
0.134673
-0.359396
-0.0875177
0.180178
0.28572
-0.267505
0.0878986
0.00199763
0.158725
0.292984
-0.140903
0.0750041
-0.200733
0.277916
-0.0159769
-0.137438
-0.140314
-0.278683
0.165201
-0.0743131
0.222608
-0.386222
0.244216
-0.141984
0.326221
0.281829
0.0728915
-0.15992
-0.237434
-0.682281
-0.149536
0.415276
0.427986
0.799045
-0.360155
0.123231
-0.576965
-0.206598
-0.0229553
0.057535
0.138711
0.757753
-0.381224
0.205293
-0.60042
-0.343171
-0.0787223
0.127389
0.253397
-0.666082
0.323675
-0.133534
0.491644
0.452146
-0.217888
-0.376184
0.171725
0.0149784
-0.222859
0.0569397
0.353459
-0.171222
0.0846024
-0.265499
0.838119
-0.38914
0.160237
-0.609407
0.493277
-0.270403
0.06778
-0.309316
0.31036
0.0504227
-0.182048
-0.178136
0.362469
-0.039669
-0.233918
-0.095214
-0.640834
0.343404
-0.204107
0.522084
-0.492899
-0.0837701
0.226847
0.336566
-0.230591
0.0992015
0.504603
-0.359578
-0.498609
0.20345
-0.0991295
0.349901
0.115867
-0.22465
0.495753
-0.347705
0.431611
0.148629
-0.22056
-0.318397
-0.527363
-0.101065
0.32854
0.322911
0.611171
-0.317399
0.159873
-0.482803
-0.200185
0.00294735
0.0447296
0.125032
0.48343
-0.16909
-0.023028
-0.30883
0.10482
0.0128685
-0.054171
-0.0816196
-0.162958
0.0470575
-0.018755
0.111176
-0.0879669
-0.0246409
0.0544647
0.061505
-1.47952e-12
-0.0127039
-0.00719554
5.07894e-13
0.00378987
0.0095779
0.00538514
-0.00125091
0.0221845
-0.142181
0.216716
-0.115796
0.000948656
0.00132701
-0.00763359
9.23049e-13
-0.00438257
-0.00721552
-2.07342e-12
-0.259071
-0.0378562
0.0902088
0.191172
-0.0026663
0.00563478
0.0121812
-0.0031706
0.000963625
0.00451708
3.5381e-05
0.000477621
-7.34166e-06
-0.0172755
-0.00956747
6.03402e-07
-0.126396
0.0253878
0.277087
-0.195244
0.165872
-0.1208
-0.013884
-0.0415269
0.20288
-0.0920212
0.0593583
-0.136672
-0.088532
0.0610543
-0.0141797
0.0642948
0.154678
-0.0152691
-0.0665539
-0.0917602
-0.13268
0.0157205
0.0792395
0.0332172
-0.185702
0.00800239
0.0732438
0.123788
0.147921
-0.00223165
-0.0649622
-0.0724311
8.21639e-07
-0.00817012
-0.01372
-6.51436e-06
-8.28472e-13
-0.00573471
-0.00234611
6.22643e-13
0.0735359
0.0128318
-0.0194845
-0.0473627
0.0561532
3.25469e-05
-0.0340236
-0.0200185
-0.0653267
0.00457047
0.0113594
0.0367539
-0.0508344
8.95688e-05
0.0210007
0.0282459
-0.238327
-0.114965
0.171952
0.212628
0.288975
-0.138612
-0.132439
-0.0424558
0.606143
-0.214238
-0.0211156
-0.380018
0.336469
-0.0203261
-0.213844
-0.0864856
-0.476853
0.194843
-0.0507158
0.30355
-0.650325
-0.137309
0.509997
-0.0168115
-0.0920324
0.132566
-0.0331885
-0.158381
0.0387905
0.00934782
0.0916771
0.199059
0.0265293
-0.0733104
-0.128188
0.797397
0.245774
-0.386289
-0.636155
-0.414832
0.273571
0.0334294
0.108896
0.450122
-0.0427531
-0.291406
-0.114922
-0.0364716
-0.216599
0.593792
-0.326011
-0.786889
-0.207733
0.34837
0.614048
0.779569
0.0685225
-0.378958
-0.463513
-0.257865
0.0254827
0.169917
0.0653945
0.42665
-0.226494
0.131227
-0.307179
0.134137
-0.0874903
0.0449983
-0.131899
0.128039
0.0157963
-0.195705
0.0489959
0.26852
-0.0802067
-0.0152719
-0.168435
-0.414032
0.306046
0.0235691
0.105877
-0.347315
0.0620822
0.591223
-0.334185
-0.413096
0.237423
-0.0670364
0.255195
-0.473696
0.327021
0.0343217
0.120955
0.32069
-0.216255
-0.0270948
-0.0814591
0.267424
-0.0010612
-0.0951792
-0.144766
-0.355428
-0.0763118
0.126737
0.255929
0.108988
-0.0685939
0.034634
-0.108325
-0.131202
0.0889193
-0.0468047
0.12228
-0.585682
0.0560973
0.374767
0.152297
0.633799
-0.0219039
-0.244455
-0.362732
-0.0322498
-0.305514
0.475341
-0.121436
0.292952
0.0379252
-0.238135
-0.67943
0.408669
-0.051205
0.309053
0.574715
-0.375634
-0.0598022
-0.149443
-0.285184
-0.0606064
0.09383
0.208391
0.24293
0.0529444
-0.0944094
-0.169131
-0.485862
0.272037
-0.149438
0.391917
0.151697
-0.46878
0.356513
-0.525399
0.0264079
0.157375
0.317133
0.57223
0.192989
-0.273017
-0.460413
-0.112732
0.272979
-0.660238
0.475882
0.70766
0.225228
-0.36327
-0.538486
0.19361
-0.345475
0.788171
-0.613244
-0.818532
-0.0965975
0.308551
0.588833
-0.444087
-0.0976475
0.183924
0.321912
0.648171
0.139761
-0.288334
-0.46992
-0.51939
0.298883
-0.15656
0.398331
0.451188
-0.224168
-0.0182529
-0.219525
-0.644675
0.234762
0.0121763
0.406722
0.222537
0.0364386
-0.077604
-0.149414
0.52668
-0.235228
0.0933107
-0.410913
-0.483613
0.297414
-0.177428
0.393905
-0.610901
0.295506
-0.137063
0.473175
-0.290392
0.0785591
0.693019
-0.50091
0.0570186
0.329387
-0.530845
0.135945
0.298041
-0.160744
0.0922321
-0.271642
-0.200481
0.00697841
0.0394459
0.126551
0.279189
-0.13306
-0.506084
0.39194
0.577313
0.197867
-0.291765
-0.462506
-0.254186
0.113617
-0.00210428
0.170988
0.248849
-0.169407
0.0388795
-0.145947
0.520494
-0.346163
-0.0562193
-0.133297
-0.290825
0.602153
-0.433319
-0.377188
0.160408
0.747419
-0.528584
-0.489921
0.246807
-0.13231
0.372589
-0.56284
-0.0998964
0.427435
0.386997
-0.198997
0.0962231
-0.267696
0.463638
-0.303576
-0.0479586
-0.118351
-0.687541
-0.152203
0.333708
0.512894
0.340486
0.111287
-0.18395
-0.277011
0.473881
-0.243005
0.127961
-0.327753
-0.401549
0.172681
-0.088302
0.290239
-0.485353
0.214521
0.0237699
0.235177
-0.13825
0.0380625
0.00399527
0.0799426
-0.212285
-0.0813319
0.141019
0.176501
-0.0571109
0.183853
-0.516891
0.364216
0.412717
0.10105
-0.177789
-0.308303
0.271246
0.0877987
-0.147172
-0.247512
-0.261851
-0.102459
0.181552
0.217785
-0.284325
0.114203
0.0151883
0.137783
-0.388065
0.263563
-0.0952271
0.245692
0.370092
-0.144683
-0.0284282
-0.221527
0.144108
0.00782873
-0.0555847
-0.073593
0.0029868
0.040199
-0.137584
0.0764479
-0.205787
0.0520948
0.48414
-0.357254
0.227557
-0.111346
-0.429075
0.344948
0.195242
-0.0112188
-0.114407
-0.0488278
-0.289054
-0.069889
0.110059
0.209239
-0.277869
0.125614
-0.00304088
0.181288
0.140751
0.0235329
-0.0454513
-0.0900606
-0.13231
0.109424
0.00872115
0.0330784
0.189061
-0.111393
0.0580088
-0.171948
-0.0462476
0.402994
0.00262917
-0.0231529
0.0730115
-0.104852
-0.0635461
0.388487
0.111471
-0.703743
0.519649
0.0920404
-0.0780469
0.091215
-0.561965
-0.0180085
0.109207
-0.0633842
0.0724272
0.00583147
-0.00826067
0.0103892
-0.101932
-0.0156625
0.00888014
0.0254737
-0.125013
0.0169441
-0.0142262
0.1311
-0.148653
0.350871
-0.052946
0.00339399
-0.00524844
-0.196315
0.221564
0.143486
-0.0321423
0.123856
-0.172533
0.15936
-0.0798721
0.0440551
-0.128165
-0.0176651
0.0594156
0.0633314
-0.0293385
0.0399947
-0.0761412
-0.0795079
0.033175
0.108647
0.0128591
-0.0432148
-0.051143
0.0181472
-0.0220111
0.0504393
-0.0112344
0.0384358
0.0408132
-0.0189109
0.0254408
-0.0519553
0.0980996
-0.0489
-0.113992
0.229987
-0.186086
0.334351
-0.224744
0.110381
-0.281765
0.165011
-0.169415
-0.295515
-0.154034
0.187407
-0.294387
-0.0684179
0.0464104
-0.157591
-0.0302337
0.0746194
0.123208
-0.161788
0.205873
0.324921
0.00632679
-0.00774697
0.0190376
-0.00646704
0.00862785
-0.0206951
0.0247578
-0.0980813
-0.106608
0.10436
-0.0479773
0.119654
-0.0274564
0.022374
-0.05892
-0.103449
0.197157
0.295993
0.0631196
-0.206609
-0.276186
0.22395
-0.224526
-0.383009
0.272921
-0.226249
-0.482449
-0.135985
0.29966
0.42223
0.00454541
-0.014957
-0.0149478
-0.00378498
0.0132693
0.0125228
-0.0443976
0.030745
-0.0479674
-0.387186
0.441552
-0.710709
0.570516
-0.318449
-0.765435
0.0580494
-0.0426283
-0.0817705
0.0849516
-0.0615862
0.136387
0.448876
-0.460673
0.661649
-0.318971
0.260659
0.582354
-0.395932
0.303767
0.603683
0.0217156
-0.0171134
-0.0288406
0.248188
-0.249844
-0.410677
0.43824
-0.435964
-0.793127
-0.175875
0.220292
-0.438814
-0.0104159
-0.00625762
-1.44373e-13
0.00989623
0.00952277
-0.00116497
-0.00543086
-0.00958835
4.18614e-07
-0.0203114
-0.0165724
0.000310773
0.487332
-0.480878
0.838114
0.404221
-0.389077
0.626604
0.0446673
-0.050436
0.107274
0.32888
-0.282756
-0.633649
0.268032
-0.282826
-0.340249
0.0194027
0.0182146
-0.00259878
-0.022793
-0.0268546
-0.00031596
0.394051
-0.579085
0.725944
0.554079
-0.347731
-0.790578
-0.184411
0.132597
0.329484
-0.0973051
0.165857
0.30284
-0.157323
0.0817837
-0.298743
-0.170232
0.232457
-0.368836
-0.148187
0.11171
-0.265295
0.0270643
-0.0408109
-0.0911964
-0.125941
0.08995
-0.208491
-0.00603956
0.00770302
-0.0125238
0.00680897
-0.00872517
0.0149478
0.118836
-0.0523771
0.163823
0.471453
-0.47912
0.837605
0.564378
-0.410079
-0.766105
0.0856055
-0.166457
0.290646
0.0821739
-0.092856
-0.188629
0.0194349
0.0119662
-1.74287e-05
0.0874887
-0.110796
0.172672
0.1322
-0.0583751
0.176434
0.211474
-0.198396
-0.337243
0.309496
-0.286679
0.524942
-0.372165
0.35053
-0.704592
-0.257409
0.30024
-0.435047
0.209537
-0.168287
-0.287272
0.125544
-0.153213
-0.312867
0.151306
-0.165902
0.279313
-0.213649
0.242742
0.382315
-0.421501
0.393671
0.748176
-0.30371
0.270971
-0.606487
0.144717
-0.0836386
0.200323
0.0826682
-0.113334
-0.160007
0.0926589
-0.085406
0.216943
-0.0594822
0.0606337
0.0928079
0.0893605
-0.0703491
-0.107099
-0.051966
0.0619296
0.0958796
0.207426
-0.265603
0.504614
-0.0429343
0.0285764
-0.0982237
-0.4266
0.230367
0.6865
0.0477465
-0.027094
0.0679588
-0.142747
0.0830151
-0.278745
0.163687
-0.143312
0.246934
0.0136843
0.0211915
-7.68957e-13
0.0389014
-0.0371253
-0.0545416
0.092495
-0.103987
-0.202575
-0.175354
0.25419
-0.359624
0.447426
-0.467653
0.814909
-0.158124
0.268409
-0.307564
0.100643
-0.0419804
-0.113754
-0.230909
0.207771
0.342738
0.101321
-0.0626563
-0.0781271
-0.040967
0.0491948
0.0808374
0.0595552
-0.0765761
0.0937086
-0.00440419
0.0145905
0.0207045
0.00392106
-0.0136682
-0.0190343
-0.177473
0.17932
0.298465
-0.101787
0.0561785
0.153095
-0.0950108
0.105258
-0.22615
0.114311
-0.0802618
0.181702
-0.0431246
0.0364585
0.105554
0.103795
-0.0515627
-0.118794
-0.0504968
0.043935
0.104505
0.0742216
-0.0923555
-0.1879
0.122556
-0.170703
-0.311119
-0.213563
0.110576
0.268858
0.12025
-0.0953673
-0.162788
-0.0289084
0.0522082
-0.0852177
-0.0267525
0.0631706
0.0866856
0.108762
-0.133254
0.247058
-0.0278059
0.0128596
0.0425262
-0.144058
0.180345
-0.243775
0.18186
-0.155758
-0.335826
0.126559
-0.22508
0.335
-0.128215
0.157121
-0.253036
0.0342139
-0.0624612
0.102115
-0.0287358
0.0150916
-0.037104
-0.0462142
0.071707
0.0916771
-0.0297854
0.0426252
-0.0607728
0.075704
-0.0416621
0.104421
0.0645554
-0.0714787
-0.0886262
0.0807589
-0.105148
0.157562
0.0290784
-0.0688428
-0.100899
-0.0282406
0.016128
-0.0494563
-0.0183288
0.0574493
0.0576019
-0.17398
0.169844
0.303789
-0.103204
0.0277534
-0.102756
0.101586
-0.0474353
0.120683
-0.0868785
0.0250805
-0.118907
-0.031642
0.0444752
0.05953
-0.24457
0.394942
0.661984
0.0829014
-0.0344083
-0.0866842
0.420973
-0.4438
-0.799323
0.052631
-0.0249948
0.0665193
-0.0366148
0.0215346
-0.070884
-0.0670712
0.0608633
-0.0781241
0.420125
-0.300494
0.664382
-0.0927594
0.0465019
-0.161157
-0.0608257
0.09191
0.146253
-0.142151
0.126625
0.23068
-0.0227989
0.0381091
0.0595591
0.0695979
-0.0598892
0.151824
-0.109866
0.11641
-0.179879
0.149145
-0.130837
-0.295273
-0.175228
0.100267
0.31144
0.109088
-0.082116
0.199273
-0.221913
0.244036
-0.341845
-0.148598
0.192795
-0.439367
0.130402
-0.155734
-0.198322
-0.0583519
0.0383133
0.0976486
-0.00730321
-0.00427282
-6.67065e-13
0.0148274
0.00996614
-0.00324164
-0.0157425
-0.0141731
6.65052e-06
0.0602125
-0.0296086
0.07277
0.00344663
0.0088716
0.00128928
-0.0136242
-0.00806974
1.33906e-12
-0.0141104
-0.0172702
-0.000920056
-0.00701309
-0.0125686
-5.91047e-07
0.0182242
0.00913709
0.00264163
0.0728859
-0.116752
-0.199496
0.0393838
-0.0418468
-0.0569642
-0.131831
0.101837
0.206298
-0.00501021
-0.0080406
7.27978e-13
-0.0467239
0.0412643
-0.0776732
-0.050451
0.0276126
0.0830714
-0.281264
0.21816
0.451629
-0.213902
0.168497
-0.499408
0.237784
-0.286201
0.527994
-0.087962
0.140661
-0.269046
-0.0716263
0.105044
0.193995
-0.131517
0.0713484
-0.197999
0.265247
-0.129338
-0.428195
-0.0812402
0.117794
0.195817
-0.126832
0.0753675
-0.153786
-0.215877
0.200087
0.384474
-0.290008
0.29164
-0.483812
-0.32931
0.341093
-0.536808
0.315786
-0.348049
-0.577716
-0.359635
0.214827
-0.573982
-0.125172
0.23967
0.463672
-0.277389
0.143712
-0.553873
-0.436257
0.358934
0.654394
0.276257
-0.415764
-0.590947
0.254479
-0.179206
0.372945
0.202607
-0.168165
0.391292
-0.183575
0.179006
0.356768
-0.152969
0.114959
-0.255339
-0.0970706
0.148432
0.264076
-0.17252
0.102419
-0.26494
0.354707
-0.273051
-0.662179
0.151778
-0.330224
0.488362
-0.292108
0.23632
-0.606979
0.497103
-0.421911
-0.741093
0.444446
-0.352304
-0.743857
-0.51903
0.514688
0.766093
0.163907
-0.151233
0.337647
0.2369
-0.222014
-0.525471
-0.0457744
0.0237016
-0.0986419
-0.0301725
0.0455549
-0.12182
-0.297318
0.292559
-0.586638
0.402923
-0.546172
0.782071
-0.128346
0.1563
0.25897
-0.0604225
0.109264
0.205522
-0.12712
0.0601864
-0.26138
0.146981
-0.188909
-0.366846
-0.271691
0.216929
0.385424
0.416838
-0.264863
-0.507058
-0.222653
0.2185
-0.442668
-0.327712
0.373438
-0.625685
-0.430737
0.415393
0.845246
-0.46998
0.21604
0.665001
0.168486
-0.252087
-0.411902
0.303827
-0.174478
0.470099
-0.335638
0.385638
-0.673002
-0.249934
0.484875
-0.68617
0.400405
-0.370325
-0.732744
-0.323832
0.360324
0.561791
-0.453981
0.455671
0.739715
-0.196649
0.250254
0.395004
-0.281756
0.310365
-0.514834
0.186814
-0.294324
-0.475704
0.32901
-0.207241
0.557804
-0.304409
0.277001
-0.535921
-0.125963
0.217192
0.401741
-0.199024
0.11078
-0.386973
0.319829
-0.269715
-0.48238
-0.188945
0.174521
0.335932
0.2345
-0.260491
0.430956
0.177162
-0.205755
0.318187
-0.111436
0.139259
0.21332
-0.228762
0.430477
-0.72421
-0.138436
0.15066
-0.206205
-0.112122
0.111196
-0.259503
-0.110556
0.105191
0.196189
-0.106295
0.0755104
-0.150432
-0.0973994
0.147353
-0.226491
-0.476414
0.225413
0.732071
0.257236
-0.403933
0.59231
0.383039
-0.398416
-0.652389
0.159012
-0.173387
0.261062
0.117673
-0.153817
-0.295462
0.240481
-0.171428
-0.284731
0.305429
-0.321923
0.527601
0.265364
-0.212825
-0.487746
0.099323
-0.0789517
-0.108379
-0.0786895
0.0835603
0.135895
0.12462
-0.116569
0.192954
0.110312
-0.0812385
0.194385
-0.131059
0.0991799
-0.185318
-0.279121
0.154812
0.437473
-0.137452
0.232282
-0.42967
0.292356
-0.221278
-0.391209
0.13347
-0.181891
0.262996
-0.963571
-0.298916
0.728188
-0.232714
-0.206406
-0.175705
0.371646
-0.00231508
0.268006
-0.195213
-0.177425
-0.917671
0.20331
0.394206
-0.750474
-0.429925
-0.123978
0.352135
0.0441003
0.144484
5.42594e-14
-0.0133844
0.00340571
0.0133844
-0.023363
5.39755e-15
-3.22921e-14
0.00556629
-2.23906e-15
-0.0212024
1.08587
-0.59301
-0.00839006
-0.0774924
-0.246735
0.232039
0.0974183
-0.177929
0.0127236
0.0658958
-0.126735
-0.112328
-0.0604471
0.903144
-0.053468
0.287783
-0.932434
1.00971
-0.600815
-0.0667561
-0.0320495
0.231801
-0.0742131
-0.135687
0.225361
-0.736661
0.123207
0.187022
0.22356
-0.607586
-0.638392
0.425504
0.286071
-0.371912
0.870874
-1.00796
-0.155845
-0.310596
0.18107
0.00738801
-0.0461093
0.467501
-1.059
0.0952412
-1.02958
0.975081
0.56025
0.400589
-0.937241
-0.08322
-0.509765
-0.275562
-0.665496
0.512007
-0.817972
0.124174
0.367861
0.0745868
0.0524284
-0.234534
0.244006
-0.236706
0.127404
-0.15067
0.480987
-0.110499
-0.279584
0.591188
-0.51382
-0.263348
0.357334
0.308513
0.0550644
0.162015
-0.909763
0.418989
-1.05309
1.10781
-0.633576
0.645524
0.338879
-0.760017
-0.453115
-0.090861
-0.773429
1.04342
-0.267403
0.0934881
-0.52284
0.585732
-0.312867
0.0318817
0.227451
-0.476547
0.0298633
0.277596
0.606706
-0.413178
-0.286682
0.136036
0.252096
-0.289791
-0.160749
-0.205104
-0.0546771
0.113361
-0.0204404
0.0488505
0.095983
-0.173931
-0.155217
0.656216
-0.325308
0.159494
-0.301832
0.0178523
0.180398
-0.418553
0.448258
0.0295746
0.181601
-0.173139
-0.0708474
-0.0542958
-0.254273
0.143121
0.125207
0.108724
0.490125
-0.466773
-0.352603
0.0951081
0.130958