/*--------------------------------*- C++ -*----------------------------------*\
  =========                 |
  \\      /  F ield         | OpenFOAM: The Open Source CFD Toolbox
   \\    /   O peration     | Website:  https://openfoam.org
    \\  /    A nd           | Version:  6
     \\/     M anipulation  |
\*---------------------------------------------------------------------------*/
FoamFile
{
    version     2.0;
    format      ascii;
    class       volScalarField;
    location    "1.5";
    object      rho;
}
// * * * * * * * * * * * * * * * * * * * * * * * * * * * * * * * * * * * * * //

dimensions      [1 -3 0 0 0 0 0];

internalField   nonuniform List<scalar> 
5835
(
4.02775e-05
1.1857e-05
4.20507e-05
2.04572e-05
1.1857e-05
1.1857e-05
1.1857e-05
1.19055e-05
1.1857e-05
1.1857e-05
1.1857e-05
2.81717e-05
1.1857e-05
1.1857e-05
2.90267e-05
1.1857e-05
6.03787e-05
5.87767e-05
1.1857e-05
1.1857e-05
6.10273e-05
1.1857e-05
6.40727e-05
2.89608e-05
1.1857e-05
1.1857e-05
3.20278e-05
1.1857e-05
1.55173e-05
1.1857e-05
1.24059e-05
1.1857e-05
1.1857e-05
1.19275e-05
1.19839e-05
1.1857e-05
1.1857e-05
1.1857e-05
1.18679e-05
1.18659e-05
1.1857e-05
1.1858e-05
1.1857e-05
1.1858e-05
1.1857e-05
1.1857e-05
1.1857e-05
1.18572e-05
1.1857e-05
1.1857e-05
1.1857e-05
1.1857e-05
1.1857e-05
1.1857e-05
1.1857e-05
1.1857e-05
1.1857e-05
1.1857e-05
1.1857e-05
1.1857e-05
1.59835e-05
1.1857e-05
1.70128e-05
1.1857e-05
1.1857e-05
1.18573e-05
1.18572e-05
1.1857e-05
1.19546e-05
1.19686e-05
1.18736e-05
1.18717e-05
1.1857e-05
1.1857e-05
1.1857e-05
1.1857e-05
1.26723e-05
1.28125e-05
1.1859e-05
1.1857e-05
1.1857e-05
1.18593e-05
1.1857e-05
4.38171e-05
3.85258e-05
1.1857e-05
1.1857e-05
1.1857e-05
1.19198e-05
1.99881e-05
1.1857e-05
1.1857e-05
1.1857e-05
1.18575e-05
1.18574e-05
1.1857e-05
1.1857e-05
1.1857e-05
2.30345e-05
1.18579e-05
1.1857e-05
1.18576e-05
1.1857e-05
1.1857e-05
2.29803e-05
1.1857e-05
1.1857e-05
2.4407e-05
1.1857e-05
1.18583e-05
1.1857e-05
1.1857e-05
2.26095e-05
1.1857e-05
1.1857e-05
1.1857e-05
1.1857e-05
1.1857e-05
1.1857e-05
2.217e-05
2.11067e-05
1.1857e-05
1.1857e-05
1.1857e-05
1.1857e-05
1.1857e-05
1.1857e-05
1.1857e-05
1.1857e-05
1.18575e-05
1.18575e-05
1.1857e-05
1.1857e-05
1.1858e-05
1.1857e-05
1.1857e-05
5.63439e-05
1.1857e-05
5.79514e-05
1.1857e-05
1.1857e-05
1.1857e-05
5.68717e-05
5.61844e-05
5.71931e-05
5.70668e-05
4.55576e-05
4.50748e-05
1.1857e-05
1.1857e-05
4.61679e-05
1.1857e-05
1.1857e-05
1.1857e-05
3.90138e-05
3.69455e-05
2.36974e-05
1.1857e-05
1.44261e-05
3.40501e-05
1.1857e-05
1.1857e-05
1.1857e-05
1.1857e-05
2.621e-05
1.1857e-05
1.1857e-05
2.14631e-05
1.1857e-05
1.1857e-05
1.25256e-05
1.2688e-05
1.23165e-05
1.1857e-05
1.1857e-05
1.20358e-05
1.1857e-05
2.47409e-05
1.65375e-05
1.80308e-05
1.1857e-05
1.1857e-05
1.18572e-05
1.18572e-05
1.1857e-05
1.21104e-05
1.1857e-05
1.18572e-05
1.18572e-05
1.1857e-05
1.1857e-05
1.1857e-05
1.1857e-05
1.18572e-05
1.18573e-05
1.1857e-05
1.1857e-05
1.1857e-05
1.1857e-05
1.1857e-05
5.42432e-05
5.5251e-05
1.1857e-05
1.1857e-05
1.1857e-05
1.1857e-05
1.1857e-05
1.18571e-05
1.1857e-05
1.1857e-05
1.19316e-05
1.1857e-05
1.19075e-05
1.1857e-05
1.18802e-05
1.1857e-05
1.1857e-05
1.1857e-05
1.1857e-05
1.1857e-05
1.1857e-05
1.1857e-05
1.18571e-05
1.19169e-05
1.1857e-05
1.19351e-05
1.18908e-05
5.76745e-05
1.1857e-05
1.1857e-05
1.18725e-05
1.1857e-05
1.1857e-05
1.1857e-05
1.1857e-05
1.1857e-05
4.50166e-05
1.1857e-05
4.57689e-05
1.18617e-05
1.1857e-05
1.18632e-05
1.18599e-05
1.18927e-05
1.1857e-05
1.18601e-05
1.1857e-05
1.18633e-05
1.1859e-05
1.1857e-05
1.43933e-05
1.1857e-05
1.1857e-05
1.1857e-05
1.1857e-05
1.1857e-05
1.1857e-05
1.98724e-05
1.1857e-05
1.1857e-05
1.1857e-05
2.35846e-05
2.49204e-05
1.1857e-05
2.55279e-05
1.1857e-05
1.1857e-05
1.1857e-05
2.25756e-05
2.38793e-05
1.1857e-05
1.1857e-05
1.1857e-05
1.1857e-05
1.1857e-05
1.30732e-05
1.1857e-05
1.1857e-05
1.1857e-05
1.1857e-05
1.1857e-05
1.1857e-05
2.89465e-05
1.1857e-05
1.1857e-05
1.1857e-05
1.1857e-05
1.1857e-05
1.1857e-05
1.1857e-05
5.44315e-05
3.70173e-05
1.1857e-05
3.80389e-05
1.1857e-05
1.1857e-05
1.1857e-05
1.1857e-05
1.1857e-05
5.10133e-05
1.1857e-05
5.7818e-05
5.55359e-05
5.08339e-05
3.55609e-05
5.12159e-05
1.1857e-05
5.15786e-05
1.1857e-05
4.478e-05
6.1886e-05
4.26923e-05
5.62893e-05
2.83949e-05
1.1857e-05
1.1857e-05
1.18614e-05
2.67363e-05
1.18576e-05
1.1857e-05
1.1857e-05
1.20784e-05
1.1857e-05
2.88912e-05
1.1857e-05
3.14153e-05
1.18635e-05
1.18617e-05
5.20239e-05
1.19653e-05
1.1857e-05
2.36513e-05
1.1857e-05
1.19471e-05
1.1857e-05
1.19115e-05
1.18575e-05
1.1857e-05
1.18574e-05
1.1857e-05
1.1857e-05
5.35873e-05
2.10736e-05
5.471e-05
1.1857e-05
1.18591e-05
1.1857e-05
1.18589e-05
1.1857e-05
1.18595e-05
2.91464e-05
1.1857e-05
1.1857e-05
1.2511e-05
1.18776e-05
1.1857e-05
1.45215e-05
1.1857e-05
2.79332e-05
1.19605e-05
1.96578e-05
1.1857e-05
1.18573e-05
1.18586e-05
3.43712e-05
1.1857e-05
1.1857e-05
1.1857e-05
1.1857e-05
1.18584e-05
1.32822e-05
1.1857e-05
1.1857e-05
1.1857e-05
2.18368e-05
1.19085e-05
1.1857e-05
1.1857e-05
1.1857e-05
1.1857e-05
1.1857e-05
1.1857e-05
1.1857e-05
1.1857e-05
1.1857e-05
1.1857e-05
1.1857e-05
1.1857e-05
1.1857e-05
1.1857e-05
1.1857e-05
1.1857e-05
1.1857e-05
1.1857e-05
1.1857e-05
1.1857e-05
1.1857e-05
1.1857e-05
1.1857e-05
1.1857e-05
1.1857e-05
1.1857e-05
1.1857e-05
1.1857e-05
1.18682e-05
1.24586e-05
1.1857e-05
1.20442e-05
2.15167e-05
1.18575e-05
1.18622e-05
1.1857e-05
1.1857e-05
1.1857e-05
1.1857e-05
1.1857e-05
2.53219e-05
1.1857e-05
1.1857e-05
1.1857e-05
1.1857e-05
1.18583e-05
1.1857e-05
1.21571e-05
1.1857e-05
1.1857e-05
1.1857e-05
1.1857e-05
1.28583e-05
1.1857e-05
1.1857e-05
1.75776e-05
1.18586e-05
1.1857e-05
1.21019e-05
1.1857e-05
1.1857e-05
1.18583e-05
1.1857e-05
1.61873e-05
1.42701e-05
1.1857e-05
1.1857e-05
1.40867e-05
1.18797e-05
1.1857e-05
1.1857e-05
1.18585e-05
1.18973e-05
1.1857e-05
1.37571e-05
1.1857e-05
1.19855e-05
1.1857e-05
1.18919e-05
1.1857e-05
1.1857e-05
1.18588e-05
1.18573e-05
1.19326e-05
1.18681e-05
1.1857e-05
1.41088e-05
1.1857e-05
1.18659e-05
1.18573e-05
1.1857e-05
1.1857e-05
1.45254e-05
1.1857e-05
1.1857e-05
1.20081e-05
1.1857e-05
1.49727e-05
1.1857e-05
1.22324e-05
1.18574e-05
1.64478e-05
1.1857e-05
1.18571e-05
1.1857e-05
1.23782e-05
1.1857e-05
1.18581e-05
1.1857e-05
1.18579e-05
1.1857e-05
1.18593e-05
1.18571e-05
1.1857e-05
1.1857e-05
1.18572e-05
1.1857e-05
1.1857e-05
1.1857e-05
1.18573e-05
1.18573e-05
1.1857e-05
1.1857e-05
1.1857e-05
2.60202e-05
1.18576e-05
1.1857e-05
1.1857e-05
2.0911e-05
1.1857e-05
1.1857e-05
1.1857e-05
2.33027e-05
1.1857e-05
1.1857e-05
1.18574e-05
1.1857e-05
2.26927e-05
1.1857e-05
1.1857e-05
5.5913e-05
1.1857e-05
1.1857e-05
5.67616e-05
5.49435e-05
5.48523e-05
1.1857e-05
1.1857e-05
1.1857e-05
1.1857e-05
4.44563e-05
4.5215e-05
1.1857e-05
1.1857e-05
1.1857e-05
4.60071e-05
5.36321e-05
1.1857e-05
5.51338e-05
1.1857e-05
1.1857e-05
1.1857e-05
4.4485e-05
1.1857e-05
3.32078e-05
1.1857e-05
5.4703e-05
1.1857e-05
3.61385e-05
2.38445e-05
1.65804e-05
1.18572e-05
1.18572e-05
1.49416e-05
1.1857e-05
2.33261e-05
1.18572e-05
2.03531e-05
1.1857e-05
1.1857e-05
1.1857e-05
1.1857e-05
1.1857e-05
1.1857e-05
1.1857e-05
1.2469e-05
5.51582e-05
1.1857e-05
1.71085e-05
1.1857e-05
1.1857e-05
1.28042e-05
1.1857e-05
1.20607e-05
1.1857e-05
1.1857e-05
1.20644e-05
1.1857e-05
1.1857e-05
1.18571e-05
5.26766e-05
1.1857e-05
1.1857e-05
1.1857e-05
1.29556e-05
1.1857e-05
1.1857e-05
1.1857e-05
1.49676e-05
1.1857e-05
1.1917e-05
1.19147e-05
1.1857e-05
1.1863e-05
1.18852e-05
1.1857e-05
1.18847e-05
1.18623e-05
1.1857e-05
1.19498e-05
1.186e-05
1.18599e-05
1.1857e-05
1.1857e-05
1.23287e-05
1.1857e-05
1.1857e-05
1.1857e-05
3.67247e-05
1.1857e-05
1.1857e-05
1.18571e-05
1.1857e-05
1.18587e-05
1.1857e-05
2.3777e-05
2.68562e-05
2.40516e-05
1.1857e-05
2.47409e-05
1.1871e-05
1.1857e-05
1.1857e-05
5.33525e-05
1.1857e-05
2.30399e-05
1.1857e-05
1.1857e-05
2.6774e-05
1.1857e-05
5.08391e-05
1.1857e-05
3.92095e-05
4.75077e-05
1.1857e-05
1.1857e-05
5.30379e-05
5.1231e-05
4.06782e-05
1.1857e-05
1.1857e-05
1.1857e-05
1.1857e-05
2.80193e-05
5.643e-05
1.1857e-05
3.06592e-05
1.1857e-05
1.1857e-05
1.1857e-05
1.1857e-05
5.685e-05
5.56848e-05
1.1857e-05
2.73476e-05
1.1857e-05
5.08277e-05
1.1857e-05
1.1857e-05
1.1857e-05
5.1704e-05
2.64282e-05
5.25283e-05
1.1857e-05
1.18627e-05
1.1857e-05
2.1898e-05
2.1705e-05
1.1857e-05
1.1857e-05
1.18782e-05
1.1857e-05
1.53591e-05
2.82076e-05
1.23077e-05
1.1857e-05
3.04195e-05
1.1857e-05
1.1857e-05
1.1857e-05
1.1857e-05
1.1857e-05
1.1857e-05
1.1857e-05
1.1857e-05
1.1857e-05
1.1857e-05
1.1857e-05
1.19169e-05
1.1857e-05
1.1857e-05
1.1857e-05
1.1857e-05
1.1857e-05
1.82822e-05
1.35979e-05
1.1857e-05
1.1857e-05
1.18575e-05
1.18575e-05
1.1857e-05
1.1857e-05
1.1857e-05
1.1857e-05
1.1857e-05
1.20835e-05
1.1857e-05
1.1857e-05
2.09413e-05
2.18357e-05
1.23565e-05
1.1857e-05
1.1857e-05
1.19171e-05
1.18573e-05
1.1857e-05
1.18589e-05
1.18591e-05
1.1857e-05
1.1857e-05
1.1857e-05
1.1857e-05
1.18748e-05
1.1857e-05
1.1857e-05
1.1857e-05
1.1857e-05
1.1857e-05
1.18587e-05
1.1857e-05
1.60694e-05
1.1857e-05
1.1857e-05
1.1857e-05
1.26581e-05
1.21974e-05
1.45448e-05
1.1857e-05
1.18585e-05
1.1857e-05
1.36663e-05
1.38173e-05
1.20069e-05
1.1857e-05
1.1857e-05
1.42247e-05
1.1857e-05
1.1857e-05
1.43101e-05
1.1857e-05
1.1857e-05
1.1857e-05
1.18958e-05
1.18899e-05
1.1857e-05
1.55429e-05
1.1857e-05
1.1857e-05
1.19579e-05
1.18574e-05
1.1857e-05
1.18675e-05
1.18681e-05
1.1857e-05
1.64981e-05
1.18574e-05
1.20366e-05
1.1857e-05
1.1857e-05
1.18572e-05
1.1857e-05
1.1857e-05
1.21328e-05
1.1857e-05
1.18574e-05
1.1857e-05
1.24337e-05
1.1857e-05
1.1858e-05
1.1858e-05
1.1857e-05
1.1857e-05
1.1857e-05
1.1857e-05
1.18574e-05
1.18572e-05
1.1857e-05
1.1857e-05
1.18574e-05
1.18572e-05
1.1857e-05
1.1857e-05
1.1857e-05
1.1857e-05
1.19881e-05
1.1857e-05
1.1857e-05
1.1857e-05
1.1857e-05
1.20083e-05
1.19292e-05
1.19556e-05
1.19225e-05
1.1857e-05
1.1857e-05
1.1857e-05
1.1857e-05
1.1857e-05
1.73172e-05
1.18632e-05
1.18617e-05
1.18649e-05
1.18617e-05
1.1857e-05
1.1857e-05
1.21628e-05
1.20309e-05
1.1857e-05
1.1857e-05
1.1857e-05
1.1857e-05
1.1857e-05
1.1882e-05
1.1857e-05
1.1857e-05
1.19133e-05
1.18864e-05
1.1857e-05
1.1857e-05
1.1857e-05
1.1857e-05
3.75192e-05
3.79316e-05
3.92392e-05
3.55182e-05
1.1857e-05
1.1857e-05
1.1857e-05
1.1857e-05
1.1857e-05
1.1857e-05
1.18571e-05
1.1857e-05
1.1857e-05
1.1857e-05
1.1857e-05
1.1857e-05
1.1857e-05
1.1857e-05
1.1857e-05
1.1857e-05
1.18571e-05
1.1857e-05
1.1857e-05
1.1857e-05
1.1857e-05
1.1857e-05
1.18697e-05
1.1857e-05
1.18618e-05
3.11869e-05
1.18644e-05
1.1857e-05
2.06528e-05
1.18607e-05
1.1857e-05
1.1857e-05
3.53601e-05
1.1857e-05
1.1857e-05
1.1857e-05
1.18589e-05
1.18583e-05
1.68964e-05
1.1857e-05
1.1857e-05
1.1859e-05
1.18581e-05
1.1857e-05
1.1857e-05
1.92936e-05
1.1857e-05
1.18581e-05
1.1857e-05
1.1857e-05
1.1857e-05
3.29248e-05
2.1958e-05
1.1857e-05
1.1857e-05
1.1857e-05
1.1857e-05
2.13985e-05
1.1857e-05
4.05704e-05
1.1857e-05
4.57041e-05
1.1857e-05
1.19988e-05
1.1857e-05
1.1857e-05
1.1857e-05
1.1857e-05
1.1857e-05
1.1857e-05
1.1857e-05
3.15427e-05
3.43594e-05
1.1857e-05
1.1857e-05
2.21564e-05
1.1857e-05
3.23574e-05
1.1857e-05
2.04912e-05
1.1857e-05
1.1857e-05
5.37814e-05
5.60635e-05
1.1857e-05
1.1857e-05
1.1857e-05
5.09494e-05
5.76994e-05
5.84664e-05
1.1857e-05
4.86458e-05
1.1857e-05
1.1857e-05
1.1857e-05
6.11098e-05
4.42204e-05
1.1857e-05
5.57153e-05
4.26101e-05
1.1857e-05
1.1857e-05
1.1857e-05
5.84793e-05
1.1857e-05
1.1857e-05
5.70804e-05
1.1857e-05
4.5766e-05
1.1857e-05
1.1857e-05
1.1857e-05
4.92696e-05
4.26579e-05
5.26445e-05
1.1857e-05
1.1857e-05
1.1857e-05
4.31246e-05
5.98406e-05
5.82518e-05
4.71393e-05
4.60611e-05
1.1857e-05
1.1857e-05
5.34963e-05
1.1857e-05
1.1857e-05
4.27274e-05
4.33847e-05
5.04542e-05
1.1857e-05
4.8319e-05
1.1857e-05
2.6051e-05
1.1857e-05
1.1857e-05
1.1857e-05
1.1857e-05
1.18577e-05
1.1857e-05
1.1857e-05
1.1857e-05
1.1857e-05
3.12771e-05
3.57695e-05
1.1857e-05
1.1857e-05
2.25119e-05
1.1857e-05
1.1857e-05
4.98567e-05
1.1857e-05
1.1857e-05
4.88757e-05
1.1857e-05
2.31145e-05
1.1857e-05
1.1857e-05
1.1857e-05
1.18615e-05
1.1857e-05
1.1889e-05
1.20612e-05
1.18576e-05
1.1857e-05
1.2448e-05
1.19261e-05
1.34919e-05
1.1857e-05
1.1857e-05
1.18667e-05
1.1857e-05
1.52234e-05
1.1857e-05
1.1857e-05
1.18571e-05
1.1857e-05
1.1857e-05
1.18571e-05
1.1857e-05
1.18584e-05
1.1858e-05
1.18683e-05
1.1857e-05
1.93441e-05
1.19593e-05
1.1857e-05
1.1857e-05
1.1857e-05
3.33416e-05
5.36742e-05
1.1857e-05
1.1857e-05
2.66601e-05
5.11182e-05
1.1857e-05
3.49639e-05
2.57695e-05
1.1857e-05
1.1857e-05
1.1857e-05
1.21058e-05
1.18895e-05
1.18572e-05
1.18611e-05
1.18573e-05
1.1857e-05
1.1857e-05
1.1857e-05
1.1857e-05
1.1857e-05
1.1857e-05
1.36469e-05
1.1857e-05
2.26355e-05
1.1857e-05
1.1857e-05
1.1857e-05
1.1857e-05
1.1857e-05
2.58489e-05
3.89438e-05
1.1857e-05
1.21172e-05
1.1857e-05
1.1857e-05
1.21031e-05
1.20981e-05
1.1857e-05
1.1857e-05
1.1897e-05
1.1863e-05
1.1857e-05
1.20376e-05
1.20679e-05
1.1857e-05
1.18609e-05
1.1857e-05
1.18819e-05
1.18627e-05
1.1857e-05
1.1857e-05
1.19528e-05
1.18847e-05
1.19429e-05
1.1857e-05
1.18724e-05
1.1857e-05
1.18617e-05
1.1857e-05
1.19267e-05
1.1857e-05
1.18724e-05
1.1963e-05
1.1857e-05
1.1857e-05
1.19101e-05
1.1857e-05
1.187e-05
1.1923e-05
1.1857e-05
1.18586e-05
1.18629e-05
1.1857e-05
1.1857e-05
1.1857e-05
1.1857e-05
1.1857e-05
1.18582e-05
1.1857e-05
1.1857e-05
1.1857e-05
1.18625e-05
1.18925e-05
1.18605e-05
1.1857e-05
1.1857e-05
1.1858e-05
1.1857e-05
1.19178e-05
1.1857e-05
1.18716e-05
1.18576e-05
1.18597e-05
1.1857e-05
1.18576e-05
1.1857e-05
1.18576e-05
1.44094e-05
1.1857e-05
1.1857e-05
1.1857e-05
1.28688e-05
1.1857e-05
1.18579e-05
1.1857e-05
1.1857e-05
1.1857e-05
1.18601e-05
1.18579e-05
1.1857e-05
1.31282e-05
1.18833e-05
1.18577e-05
1.18576e-05
1.1857e-05
1.1857e-05
1.1857e-05
1.18577e-05
1.18576e-05
1.1857e-05
1.1857e-05
1.20335e-05
1.18574e-05
1.1857e-05
1.18573e-05
1.1857e-05
1.18649e-05
1.1857e-05
1.1857e-05
1.18622e-05
1.1857e-05
1.1857e-05
1.18606e-05
1.18823e-05
1.19805e-05
1.1857e-05
1.18572e-05
1.1857e-05
1.20507e-05
1.1857e-05
1.26489e-05
1.1857e-05
1.1857e-05
1.18667e-05
1.1857e-05
1.18572e-05
1.18629e-05
1.1857e-05
1.1857e-05
1.18581e-05
1.1857e-05
1.18573e-05
1.1857e-05
1.23998e-05
1.1857e-05
1.1872e-05
1.18766e-05
1.1857e-05
1.1857e-05
1.18806e-05
1.1857e-05
1.21082e-05
1.21172e-05
1.18594e-05
1.1857e-05
1.1857e-05
1.18585e-05
1.1857e-05
1.1857e-05
1.21187e-05
1.1857e-05
1.22533e-05
1.18572e-05
1.1857e-05
1.18597e-05
1.18597e-05
1.1857e-05
1.19345e-05
1.1857e-05
1.18572e-05
1.1857e-05
1.28362e-05
1.1857e-05
1.2522e-05
1.1857e-05
1.18668e-05
1.1857e-05
1.1864e-05
1.1861e-05
1.1857e-05
1.1857e-05
1.1857e-05
1.1857e-05
1.18669e-05
1.1857e-05
1.1857e-05
1.3726e-05
1.333e-05
1.1857e-05
1.18679e-05
1.52087e-05
2.04918e-05
1.1857e-05
1.1857e-05
1.40614e-05
1.1857e-05
1.1857e-05
1.88817e-05
1.1857e-05
1.2184e-05
1.32131e-05
1.1857e-05
1.1857e-05
1.1857e-05
2.95947e-05
1.1857e-05
1.80226e-05
1.1857e-05
1.19832e-05
1.18877e-05
1.1857e-05
1.1857e-05
1.20055e-05
1.1857e-05
2.74823e-05
1.1857e-05
1.2087e-05
1.18573e-05
1.1857e-05
1.1857e-05
1.18581e-05
1.1857e-05
1.31555e-05
1.1857e-05
1.18668e-05
1.1857e-05
1.57919e-05
2.58007e-05
1.1857e-05
1.1857e-05
1.1857e-05
1.1857e-05
1.1857e-05
1.1858e-05
1.1857e-05
1.20253e-05
1.30448e-05
2.55462e-05
1.27628e-05
1.1857e-05
1.1857e-05
1.18576e-05
1.1857e-05
1.1857e-05
1.18589e-05
1.1857e-05
2.21332e-05
1.1857e-05
1.19794e-05
1.1857e-05
1.18819e-05
1.18575e-05
1.1857e-05
1.18581e-05
2.09086e-05
1.37245e-05
1.1857e-05
1.1857e-05
1.24372e-05
1.99586e-05
1.75319e-05
1.1857e-05
1.85146e-05
1.1857e-05
1.73272e-05
1.1857e-05
1.62457e-05
1.906e-05
1.57482e-05
1.1857e-05
1.1857e-05
1.18649e-05
1.1857e-05
1.18579e-05
1.1857e-05
1.1857e-05
1.46407e-05
1.1857e-05
1.21043e-05
1.63197e-05
2.94921e-05
1.64194e-05
1.1857e-05
1.1857e-05
1.7488e-05
3.63826e-05
4.88981e-05
1.1857e-05
1.1857e-05
1.1857e-05
1.1857e-05
1.1857e-05
1.1857e-05
1.1857e-05
1.1857e-05
1.1857e-05
2.09699e-05
5.72225e-05
1.1857e-05
1.1857e-05
1.1857e-05
3.32825e-05
3.72148e-05
1.1857e-05
1.1857e-05
4.65599e-05
1.28654e-05
1.1857e-05
1.1857e-05
3.23325e-05
1.1857e-05
1.1857e-05
3.07105e-05
4.5644e-05
5.56025e-05
1.1857e-05
4.87092e-05
4.53624e-05
1.1857e-05
5.44701e-05
1.1857e-05
4.69372e-05
5.21048e-05
3.48298e-05
4.80309e-05
4.70533e-05
1.1857e-05
3.8929e-05
2.37519e-05
4.75691e-05
1.22364e-05
3.35197e-05
3.35842e-05
4.51876e-05
1.1857e-05
1.1857e-05
1.1857e-05
1.1857e-05
1.1857e-05
5.07403e-05
5.20705e-05
1.1857e-05
1.1857e-05
1.1857e-05
2.81159e-05
3.95373e-05
1.1857e-05
1.1857e-05
3.66677e-05
1.60918e-05
1.1857e-05
4.82899e-05
1.1857e-05
1.1857e-05
1.1857e-05
4.39795e-05
3.82843e-05
1.27078e-05
1.1857e-05
3.42155e-05
1.1857e-05
3.02641e-05
1.1857e-05
2.6746e-05
1.1857e-05
1.1857e-05
2.06379e-05
2.33678e-05
1.1857e-05
1.1857e-05
3.17685e-05
1.1857e-05
1.46019e-05
1.1857e-05
1.1857e-05
1.1857e-05
1.18797e-05
1.3731e-05
1.1857e-05
1.1857e-05
1.19923e-05
4.44852e-05
1.1857e-05
1.1857e-05
1.20839e-05
4.41627e-05
1.1857e-05
1.1857e-05
1.1857e-05
1.22786e-05
1.1857e-05
1.1857e-05
2.01296e-05
1.1857e-05
1.1857e-05
1.18611e-05
1.1857e-05
1.18669e-05
1.19139e-05
1.1857e-05
1.30197e-05
1.62772e-05
3.13297e-05
1.1857e-05
1.97205e-05
3.31087e-05
1.18587e-05
1.1857e-05
1.1857e-05
1.67503e-05
4.50216e-05
4.50406e-05
1.1857e-05
1.1864e-05
1.1857e-05
1.1857e-05
1.1857e-05
1.18571e-05
3.32431e-05
1.1857e-05
1.1857e-05
1.18571e-05
1.1857e-05
1.18571e-05
1.18571e-05
1.1857e-05
1.18582e-05
4.59726e-05
1.1857e-05
1.1857e-05
1.1857e-05
1.63002e-05
1.1857e-05
1.1898e-05
3.14423e-05
2.80049e-05
2.02479e-05
1.1857e-05
1.1857e-05
1.18576e-05
3.76161e-05
4.62585e-05
1.18578e-05
1.1857e-05
1.1857e-05
1.1857e-05
1.1857e-05
1.70093e-05
1.18574e-05
1.1857e-05
1.1857e-05
1.78798e-05
1.1857e-05
1.1857e-05
1.99661e-05
1.1857e-05
1.1857e-05
1.1857e-05
1.1857e-05
1.1857e-05
1.1857e-05
1.1857e-05
1.1857e-05
1.1857e-05
1.18571e-05
1.1857e-05
1.1857e-05
1.1857e-05
1.1857e-05
1.1857e-05
1.1857e-05
1.1857e-05
1.1857e-05
1.1857e-05
1.1857e-05
1.1857e-05
1.1857e-05
1.1857e-05
1.1857e-05
1.1857e-05
1.1857e-05
1.1857e-05
1.1857e-05
1.1857e-05
1.1857e-05
1.1857e-05
1.1857e-05
1.1857e-05
1.1857e-05
1.18571e-05
1.1857e-05
1.1857e-05
1.18571e-05
1.1857e-05
1.1857e-05
1.1857e-05
1.1857e-05
1.1857e-05
1.1857e-05
1.1857e-05
1.1857e-05
1.1857e-05
1.1857e-05
1.1857e-05
1.1857e-05
1.1857e-05
1.18571e-05
1.1857e-05
1.1857e-05
1.1857e-05
4.9394e-05
1.1857e-05
1.18601e-05
2.06597e-05
1.1857e-05
1.1857e-05
2.18208e-05
1.1857e-05
1.1857e-05
1.1857e-05
1.54814e-05
1.1857e-05
1.1857e-05
2.06127e-05
1.97847e-05
1.1857e-05
2.3069e-05
1.1857e-05
1.1857e-05
1.23303e-05
1.1857e-05
1.18816e-05
1.1857e-05
1.67581e-05
1.19081e-05
1.1857e-05
1.37253e-05
1.1857e-05
1.1857e-05
1.1857e-05
1.1857e-05
1.19531e-05
1.1857e-05
1.22515e-05
1.1857e-05
1.20317e-05
1.1857e-05
1.1857e-05
1.18607e-05
1.30263e-05
1.1857e-05
1.1857e-05
1.1857e-05
1.18571e-05
1.1857e-05
1.19352e-05
1.19806e-05
1.1857e-05
1.1857e-05
1.1857e-05
4.13235e-05
1.1857e-05
1.1857e-05
1.1857e-05
1.1857e-05
1.24343e-05
1.18584e-05
1.1857e-05
1.1857e-05
5.27416e-05
1.1857e-05
1.18647e-05
1.1857e-05
1.29744e-05
1.1857e-05
1.18865e-05
1.1857e-05
4.96844e-05
1.1857e-05
1.1857e-05
1.18574e-05
1.1857e-05
1.1857e-05
1.72922e-05
1.67153e-05
1.1857e-05
3.08639e-05
1.1857e-05
1.1857e-05
1.1863e-05
5.35436e-05
1.1857e-05
1.1857e-05
4.79784e-05
1.18618e-05
3.23653e-05
1.1857e-05
1.20241e-05
1.1857e-05
1.1857e-05
1.1877e-05
1.95772e-05
1.1857e-05
1.34879e-05
1.1857e-05
1.1857e-05
1.18706e-05
1.1857e-05
1.1857e-05
1.1857e-05
1.28821e-05
1.93208e-05
1.1857e-05
1.1857e-05
2.21732e-05
1.1857e-05
1.66275e-05
1.1857e-05
1.1857e-05
1.18642e-05
1.1857e-05
1.1857e-05
2.11444e-05
1.33218e-05
1.1857e-05
1.18736e-05
1.1857e-05
1.18845e-05
1.18573e-05
1.1857e-05
1.1857e-05
1.91099e-05
1.18573e-05
1.1857e-05
1.1857e-05
1.18572e-05
1.18572e-05
1.1857e-05
1.1857e-05
1.1857e-05
1.18571e-05
1.1857e-05
1.1857e-05
1.18677e-05
1.1857e-05
1.1857e-05
1.18571e-05
2.01286e-05
1.1857e-05
1.18571e-05
1.1857e-05
1.1857e-05
1.74731e-05
1.1857e-05
2.44849e-05
1.1857e-05
2.09152e-05
1.1857e-05
1.1857e-05
1.18571e-05
1.1857e-05
1.1857e-05
1.1857e-05
2.21734e-05
1.1857e-05
1.18571e-05
1.1857e-05
1.1857e-05
1.1857e-05
1.1857e-05
1.1857e-05
1.1857e-05
1.1857e-05
2.81078e-05
3.19497e-05
1.1857e-05
1.1857e-05
1.1857e-05
1.1857e-05
1.1857e-05
1.1857e-05
1.1857e-05
1.1857e-05
1.1857e-05
3.07872e-05
1.1857e-05
5.0215e-05
1.1857e-05
1.1857e-05
1.1857e-05
2.75755e-05
1.1857e-05
3.05542e-05
1.18573e-05
1.18571e-05
1.1857e-05
1.1857e-05
4.9566e-05
1.1857e-05
1.1857e-05
1.1857e-05
2.95427e-05
1.1857e-05
1.1857e-05
1.1857e-05
1.1857e-05
1.1857e-05
1.1857e-05
1.1857e-05
1.1857e-05
1.1857e-05
1.1857e-05
1.1858e-05
1.1857e-05
5.75089e-05
1.1857e-05
5.15566e-05
1.1857e-05
1.1857e-05
1.18571e-05
1.1857e-05
1.1857e-05
1.1857e-05
1.18575e-05
1.18571e-05
1.1857e-05
1.1857e-05
1.1857e-05
1.18589e-05
1.18573e-05
1.1857e-05
1.1858e-05
1.1857e-05
1.1857e-05
1.18579e-05
1.18576e-05
1.1857e-05
1.1857e-05
1.1857e-05
1.18584e-05
1.18593e-05
1.18576e-05
1.1857e-05
1.1857e-05
2.95479e-05
1.1857e-05
5.57743e-05
1.1857e-05
4.94858e-05
1.1857e-05
1.1857e-05
1.1857e-05
3.67758e-05
1.1857e-05
5.26594e-05
1.1857e-05
4.98221e-05
1.1857e-05
4.11549e-05
4.95048e-05
4.05912e-05
3.26123e-05
1.1857e-05
1.1857e-05
5.0805e-05
1.1857e-05
1.1857e-05
5.6478e-05
1.1857e-05
1.1857e-05
5.19201e-05
1.1857e-05
4.77829e-05
5.26412e-05
1.1857e-05
1.1857e-05
1.1857e-05
4.93384e-05
1.1857e-05
4.52457e-05
1.1857e-05
5.71811e-05
1.1857e-05
5.02739e-05
1.1857e-05
2.16143e-05
1.1857e-05
1.1857e-05
1.1857e-05
1.1857e-05
1.18574e-05
1.1857e-05
1.18835e-05
1.57532e-05
1.1857e-05
1.1857e-05
1.1857e-05
1.1857e-05
1.1857e-05
3.92772e-05
3.11075e-05
1.1857e-05
1.1857e-05
4.74153e-05
5.22314e-05
1.1857e-05
1.1857e-05
5.43432e-05
5.98352e-05
1.1857e-05
1.1857e-05
4.57134e-05
5.51774e-05
1.1857e-05
4.47116e-05
6.53114e-05
1.1857e-05
1.1857e-05
1.1857e-05
7.04028e-05
6.54939e-05
1.1857e-05
7.15464e-05
1.1857e-05
6.71738e-05
1.1857e-05
1.1857e-05
4.57004e-05
5.12297e-05
5.07302e-05
1.1857e-05
1.1857e-05
5.27432e-05
4.24973e-05
1.1857e-05
4.43459e-05
1.1857e-05
4.5348e-05
1.1857e-05
1.1857e-05
4.49104e-05
4.48971e-05
1.1857e-05
1.1857e-05
4.808e-05
1.1857e-05
1.1857e-05
4.81174e-05
4.87896e-05
1.1857e-05
1.1857e-05
5.27855e-05
5.1963e-05
1.1857e-05
1.1857e-05
7.06174e-05
7.13374e-05
1.1857e-05
5.57053e-05
5.70326e-05
1.1857e-05
1.1857e-05
7.05623e-05
1.1857e-05
6.8174e-05
6.76091e-05
1.1857e-05
1.1857e-05
7.3199e-05
1.1857e-05
6.45929e-05
1.1857e-05
6.42895e-05
6.1379e-05
1.1857e-05
1.1857e-05
5.99748e-05
3.03998e-05
1.1857e-05
1.1857e-05
2.98635e-05
1.1857e-05
1.1857e-05
1.1857e-05
1.1857e-05
1.78448e-05
1.1857e-05
1.1857e-05
3.94313e-05
3.50598e-05
1.1857e-05
1.1857e-05
1.18763e-05
1.1857e-05
5.28981e-05
1.1857e-05
1.1857e-05
4.8921e-05
1.1857e-05
5.6307e-05
5.86227e-05
1.1857e-05
3.91218e-05
1.1857e-05
4.0748e-05
1.1857e-05
6.13874e-05
1.1857e-05
1.1857e-05
1.1857e-05
6.13723e-05
6.27889e-05
4.84313e-05
4.73428e-05
1.1857e-05
1.1857e-05
1.1857e-05
1.1857e-05
4.91579e-05
1.1857e-05
1.1857e-05
1.1857e-05
1.1857e-05
1.1857e-05
1.1857e-05
5.8577e-05
4.07562e-05
3.98822e-05
6.08241e-05
4.12485e-05
5.11308e-05
1.1857e-05
1.1857e-05
6.1901e-05
1.1857e-05
3.96296e-05
6.17925e-05
4.46158e-05
1.1857e-05
1.1857e-05
5.81819e-05
1.1857e-05
4.61988e-05
1.1857e-05
5.46016e-05
5.07703e-05
1.1857e-05
1.50237e-05
1.1857e-05
1.18763e-05
1.1857e-05
1.1857e-05
1.1857e-05
1.1857e-05
3.92426e-05
2.78989e-05
1.1857e-05
1.1857e-05
1.1938e-05
1.1857e-05
1.3807e-05
1.1857e-05
1.1857e-05
1.1857e-05
2.81359e-05
4.14092e-05
5.11368e-05
1.1857e-05
1.1857e-05
1.1857e-05
5.53666e-05
1.1857e-05
5.26613e-05
5.36965e-05
1.1857e-05
1.1862e-05
1.1857e-05
1.18939e-05
1.1857e-05
1.21189e-05
1.1857e-05
1.2092e-05
1.18578e-05
1.1857e-05
1.18828e-05
1.1857e-05
1.18602e-05
1.1857e-05
1.36842e-05
1.1857e-05
1.35855e-05
1.1857e-05
1.1857e-05
1.18571e-05
1.1857e-05
1.1857e-05
1.1857e-05
1.1857e-05
1.1857e-05
1.18572e-05
1.1857e-05
1.18604e-05
1.1857e-05
1.1895e-05
1.20008e-05
1.1857e-05
1.39221e-05
1.1857e-05
1.1857e-05
5.29673e-05
2.31633e-05
3.75902e-05
3.75145e-05
1.1857e-05
1.1857e-05
2.29536e-05
4.81438e-05
2.27022e-05
1.1857e-05
1.1857e-05
1.40989e-05
1.1857e-05
2.14322e-05
1.1857e-05
1.21616e-05
1.1857e-05
1.18904e-05
1.18616e-05
1.18573e-05
1.1857e-05
1.1857e-05
1.1857e-05
1.1857e-05
1.1857e-05
1.1857e-05
1.18571e-05
1.1857e-05
1.20103e-05
1.1857e-05
1.21462e-05
1.18864e-05
1.1857e-05
1.18614e-05
1.1857e-05
1.1857e-05
1.18904e-05
1.1857e-05
1.21678e-05
1.18617e-05
1.1857e-05
1.1857e-05
1.21309e-05
1.1857e-05
1.19002e-05
1.18618e-05
1.1857e-05
1.18613e-05
1.1857e-05
1.1857e-05
1.20179e-05
1.1857e-05
1.18774e-05
1.19859e-05
1.18747e-05
1.18612e-05
1.1857e-05
1.1857e-05
1.1857e-05
1.19698e-05
1.1857e-05
1.1857e-05
1.19442e-05
1.18729e-05
1.18709e-05
1.1857e-05
1.1857e-05
1.18597e-05
1.18588e-05
1.1857e-05
1.19448e-05
1.1857e-05
1.18667e-05
1.19244e-05
1.1857e-05
1.18647e-05
1.1857e-05
1.1857e-05
1.19167e-05
1.1857e-05
1.18585e-05
1.18631e-05
1.19067e-05
1.1857e-05
1.1857e-05
1.1857e-05
1.1857e-05
1.18622e-05
1.18582e-05
1.1857e-05
1.18581e-05
1.1857e-05
1.1909e-05
1.1862e-05
1.1857e-05
1.18955e-05
1.1857e-05
1.18612e-05
1.1858e-05
1.1857e-05
1.1857e-05
1.1857e-05
1.18604e-05
1.1857e-05
1.18795e-05
1.1857e-05
1.18608e-05
1.1857e-05
1.18578e-05
1.1857e-05
1.18577e-05
1.1857e-05
1.18846e-05
1.1857e-05
1.18745e-05
1.1886e-05
1.18598e-05
1.1857e-05
1.18775e-05
1.18596e-05
1.1857e-05
1.1857e-05
1.18577e-05
1.18605e-05
1.1857e-05
1.18577e-05
1.1857e-05
1.18579e-05
1.18577e-05
1.35169e-05
1.1857e-05
1.1857e-05
1.39807e-05
1.18577e-05
1.18579e-05
1.1857e-05
1.1857e-05
1.1857e-05
1.1857e-05
1.18576e-05
1.1857e-05
1.34519e-05
1.1857e-05
1.18574e-05
1.18574e-05
1.1857e-05
1.2675e-05
1.18848e-05
1.1857e-05
1.1858e-05
1.1857e-05
1.24125e-05
1.18717e-05
1.1857e-05
1.33197e-05
1.1857e-05
1.18723e-05
1.18577e-05
1.1857e-05
1.26409e-05
1.1857e-05
1.18573e-05
1.1857e-05
1.18575e-05
1.1857e-05
1.1857e-05
1.1861e-05
1.1857e-05
1.1857e-05
1.18611e-05
1.18572e-05
1.1857e-05
1.18573e-05
1.1857e-05
1.1857e-05
1.19343e-05
1.1857e-05
1.18572e-05
1.18573e-05
1.1857e-05
1.1857e-05
1.18615e-05
1.1857e-05
1.18614e-05
1.1857e-05
1.1857e-05
1.21507e-05
1.19177e-05
1.18573e-05
1.1857e-05
1.23834e-05
1.18578e-05
1.1857e-05
1.18572e-05
1.1857e-05
1.1857e-05
1.21127e-05
1.18636e-05
1.1857e-05
1.19693e-05
1.1857e-05
1.18636e-05
1.1857e-05
1.1858e-05
1.1857e-05
1.21775e-05
1.1857e-05
1.18578e-05
1.20019e-05
1.1857e-05
1.18687e-05
1.1857e-05
1.1865e-05
1.1857e-05
1.1857e-05
1.20731e-05
1.1857e-05
1.18725e-05
1.18742e-05
1.1857e-05
1.1857e-05
1.18584e-05
1.20722e-05
1.18581e-05
1.1857e-05
1.21075e-05
1.1857e-05
1.1857e-05
1.18746e-05
1.18732e-05
1.1857e-05
1.18595e-05
1.2123e-05
1.18572e-05
1.1857e-05
1.1857e-05
1.18588e-05
1.22087e-05
1.1857e-05
1.1857e-05
1.18572e-05
1.22719e-05
1.1857e-05
1.1883e-05
1.1857e-05
1.18599e-05
1.18598e-05
1.18572e-05
1.18928e-05
1.1857e-05
1.1857e-05
1.18572e-05
1.18596e-05
1.1857e-05
1.2221e-05
1.18599e-05
1.19285e-05
1.1857e-05
1.1857e-05
1.22944e-05
1.1857e-05
1.21101e-05
1.1857e-05
1.18661e-05
1.1857e-05
1.18644e-05
1.1857e-05
1.21573e-05
1.18659e-05
1.1857e-05
1.18656e-05
1.1857e-05
1.29043e-05
1.1857e-05
1.1857e-05
1.26501e-05
1.24843e-05
1.1857e-05
1.32768e-05
1.1857e-05
1.31646e-05
1.1857e-05
1.1857e-05
1.43874e-05
1.97855e-05
1.1857e-05
1.1857e-05
1.49079e-05
1.36964e-05
1.1857e-05
1.87944e-05
1.1857e-05
1.39164e-05
1.1857e-05
1.20369e-05
1.35246e-05
1.1857e-05
1.1857e-05
1.4186e-05
1.95331e-05
1.1857e-05
1.1857e-05
1.20188e-05
1.1857e-05
1.1857e-05
1.35436e-05
1.33409e-05
1.1857e-05
1.20516e-05
1.1857e-05
1.1857e-05
1.19998e-05
1.1857e-05
1.1857e-05
1.18572e-05
1.77241e-05
1.1857e-05
1.66205e-05
1.3249e-05
3.08386e-05
1.1857e-05
1.20273e-05
1.1857e-05
1.1857e-05
1.66651e-05
2.77954e-05
1.1857e-05
1.28753e-05
1.1857e-05
1.1857e-05
1.1857e-05
2.95659e-05
1.1857e-05
1.1857e-05
1.1857e-05
1.19766e-05
2.75943e-05
1.1857e-05
1.1857e-05
1.1857e-05
1.1873e-05
1.19925e-05
1.18698e-05
1.1857e-05
1.1857e-05
1.18574e-05
1.18693e-05
1.1857e-05
1.18693e-05
1.1857e-05
1.52015e-05
1.1857e-05
1.1857e-05
1.18664e-05
1.1857e-05
1.25924e-05
1.1857e-05
1.45611e-05
1.1857e-05
1.1857e-05
1.18698e-05
1.23931e-05
1.18576e-05
1.1857e-05
1.19902e-05
1.18877e-05
1.1857e-05
1.18574e-05
1.1857e-05
1.1857e-05
1.22642e-05
1.1857e-05
1.1877e-05
1.1857e-05
1.1857e-05
1.25782e-05
1.1857e-05
1.18577e-05
1.1857e-05
1.1857e-05
1.18574e-05
2.25841e-05
1.1857e-05
1.1857e-05
1.28746e-05
1.18627e-05
1.35598e-05
1.1857e-05
1.1857e-05
1.21436e-05
1.1857e-05
1.1857e-05
1.21342e-05
1.1857e-05
1.1857e-05
1.20688e-05
2.0437e-05
1.1857e-05
1.1857e-05
1.18577e-05
1.18581e-05
1.1857e-05
1.18612e-05
1.1857e-05
1.1857e-05
1.43291e-05
1.1857e-05
1.21246e-05
1.1857e-05
1.1857e-05
1.1857e-05
1.95541e-05
1.1857e-05
1.1857e-05
1.18578e-05
1.18584e-05
1.38942e-05
1.1857e-05
1.27872e-05
1.21618e-05
1.1857e-05
1.70725e-05
1.1857e-05
1.1857e-05
2.13637e-05
1.1857e-05
1.18593e-05
1.18595e-05
1.1857e-05
1.1857e-05
1.25122e-05
1.3949e-05
1.1857e-05
1.1857e-05
1.18583e-05
1.21095e-05
1.1857e-05
1.5981e-05
1.1857e-05
1.1857e-05
1.18683e-05
1.1857e-05
1.19534e-05
1.46195e-05
1.1857e-05
1.1859e-05
1.1857e-05
1.1857e-05
1.39229e-05
1.1857e-05
1.1859e-05
1.21584e-05
1.1857e-05
4.68947e-05
1.1857e-05
1.1857e-05
1.1857e-05
2.2911e-05
3.85027e-05
3.54185e-05
3.53004e-05
1.1857e-05
1.1857e-05
3.82187e-05
3.95933e-05
1.1857e-05
1.1857e-05
1.9563e-05
1.1857e-05
4.42565e-05
3.84448e-05
1.1857e-05
1.1857e-05
1.1857e-05
1.1857e-05
1.1857e-05
3.51112e-05
1.1857e-05
1.1857e-05
1.1857e-05
1.8539e-05
4.75637e-05
1.1857e-05
1.1857e-05
3.48776e-05
1.1857e-05
1.1857e-05
5.20015e-05
4.44293e-05
5.36738e-05
1.1857e-05
3.71427e-05
4.65282e-05
2.22622e-05
4.13673e-05
5.1643e-05
4.97508e-05
3.70668e-05
3.15883e-05
1.1857e-05
4.50441e-05
3.63974e-05
4.29896e-05
1.1857e-05
1.1857e-05
2.09023e-05
5.2955e-05
4.32177e-05
1.1857e-05
1.1857e-05
1.1857e-05
5.01709e-05
2.40817e-05
1.1857e-05
1.18586e-05
1.1857e-05
1.1857e-05
1.1857e-05
1.1857e-05
4.75257e-05
5.41422e-05
1.1857e-05
1.1857e-05
2.98276e-05
3.96306e-05
3.96422e-05
4.17897e-05
1.18672e-05
4.3015e-05