/*--------------------------------*- C++ -*----------------------------------*\
  =========                 |
  \\      /  F ield         | OpenFOAM: The Open Source CFD Toolbox
   \\    /   O peration     | Website:  https://openfoam.org
    \\  /    A nd           | Version:  6
     \\/     M anipulation  |
\*---------------------------------------------------------------------------*/
FoamFile
{
    version     2.0;
    format      ascii;
    class       surfaceScalarField;
    location    "4.7";
    object      meshPhi;
}
// * * * * * * * * * * * * * * * * * * * * * * * * * * * * * * * * * * * * * //

dimensions      [0 3 -1 0 0 0 0];

internalField   nonuniform List<scalar> 
8193
(
0.00219245
-0.00227181
-0.000764375
0.00359071
-0.00426637
0.00489756
-0.00602403
0.0060552
-0.00751795
0.00701406
-0.0087325
0.00773632
-0.00966222
0.00819807
-0.0103103
0.00839032
-0.0106872
0.00831869
-0.0108083
0.00800222
-0.0106932
0.00747123
-0.0103633
0.00676482
-0.00984161
0.00592798
-0.00915082
0.00500874
-0.00831335
0.00405541
-0.0073506
0.00311413
-0.00628282
0.00222685
-0.00512907
0.0014296
-0.00390727
0.000751262
-0.0026344
0.000212685
-0.00132671
-0.000173801
-1.01293e-14
-0.000404571
0.00133009
-0.000484568
0.00264783
-0.000426855
0.00393705
-0.000251858
0.00518092
1.37202e-05
0.00636165
0.000338336
0.00746027
0.000687387
0.0084565
0.00102533
0.00932866
0.0013181
0.0100538
0.00153568
0.0106078
0.00165476
0.0109659
0.00166124
0.0111037
0.00155231
0.0109977
0.00133797
0.0106268
0.00104157
0.00997373
0.000699306
0.00902688
0.000358417
0.00778197
7.40798e-05
0.00624376
-9.49373e-05
0.00442763
0.00236064
-9.16337e-05
0.00857824
-0.00705435
-0.00415005
0.0127681
-0.0107988
0.0165547
-0.013981
0.0197933
-0.0165636
0.022368
-0.0185362
0.0241991
-0.0199118
0.0252461
-0.0207215
0.0255082
-0.02101
0.0250225
-0.0208305
0.0238589
-0.0202402
0.0221146
-0.0192969
0.0199064
-0.0180556
0.0173639
-0.0165671
0.0146216
-0.0148766
0.0118122
-0.0130229
0.00906103
-0.0110394
0.0064806
-0.0089535
0.00416697
-0.00678843
0.00219674
-0.00456357
0.000625159
-0.0022957
-0.000514984
-8.82326e-21
-0.00121368
0.00230892
-0.0014833
0.004616
-0.00135747
0.00690476
-0.000889303
0.00915624
-0.00014875
0.011348
0.000780771
0.0134532
0.00180666
0.0154395
0.00283226
0.0172685
0.00376275
0.0188953
0.00451158
0.0202683
0.00500719
0.0213301
0.00519957
0.0220186
0.0050661
0.0222691
0.00461605
0.0220178
0.00389321
0.0212053
0.00297603
0.0197815
0.00197478
0.0177108
0.00102561
0.0149771
0.000281477
0.0115892
0.00758447
-9.96682e-05
0.018825
-0.0142422
-0.0115247
0.0254836
-0.0192966
0.0312786
-0.02342
0.0360293
-0.0265861
0.0396052
-0.0288108
0.0419318
-0.0301453
0.0429921
-0.0306664
0.0428248
-0.0304684
0.0415192
-0.0296539
0.039207
-0.0283268
0.0360537
-0.0265857
0.0322474
-0.0245204
0.0279894
-0.0222081
0.0234832
-0.0197129
0.0189266
-0.0170852
0.014503
-0.0143631
0.0103759
-0.0115734
0.00668369
-0.0087338
0.0035361
-0.00585507
0.00101216
-0.00294289
-0.000841149
8.82326e-21
-0.00200905
0.00297182
-0.00250837
0.0059699
-0.00238607
0.00898876
-0.00171687
0.0120182
-0.000599981
0.0150412
0.000845222
0.0180321
0.00248468
0.0209545
0.00417621
0.0237593
0.00577722
0.0263836
0.0071532
0.02875
0.00818681
0.0307668
0.00878699
0.0323298
0.00889743
0.0333255
0.00850367
0.0336358
0.00763814
0.0331444
0.00638223
0.0317453
0.00486488
0.0293513
0.00325729
0.0259038
0.0017636
0.0213821
0.0158111
0.000607771
0.0329686
-0.0234054
-0.0232509
0.0415101
-0.0291982
0.0486495
-0.0336995
0.0542201
-0.0369126
0.0581211
-0.0388958
0.0603202
-0.0397507
0.060852
-0.0396091
0.0598135
-0.0386205
0.0573553
-0.0369401
0.0536725
-0.0347185
0.0489922
-0.0320939
0.0435624
-0.0291863
0.0376396
-0.0260947
0.0314783
-0.0228957
0.0253211
-0.0196442
0.0193906
-0.0163756
0.013883
-0.013108
0.00896324
-0.00984604
0.00476162
-0.00658357
0.00137167
-0.00330738
-0.00115078
1.76465e-20
-0.00278764
0.0033573
-0.00355773
0.00678179
-0.00351514
0.0102864
-0.00274667
0.0138772
-0.00136845
0.0175497
0.000478634
0.0212864
0.00263462
0.0250534
0.00492742
0.0287972
0.00718098
0.0324424
0.00922448
0.0358902
0.0109023
0.0390182
0.0120842
0.0416816
0.0126753
0.0437178
0.0126245
0.044952
0.0119318
0.0452062
0.0106521
0.0443101
0.00889651
0.042114
0.00682868
0.0385025
0.00465827
0.0334075
0.0268214
0.00262966
0.0506725
-0.0338311
-0.0392771
0.0603099
-0.0397422
0.0680062
-0.0440552
0.0736487
-0.0468155
0.0771984
-0.0481312
0.0786883
-0.0481583
0.0782195
-0.047084
0.0759533
-0.0451112
0.0721013
-0.0424431
0.0669145
-0.0392716
0.0606705
-0.0357674
0.0536612
-0.0320743
0.0461814
-0.0283054
0.0385174
-0.0245429
0.0309384
-0.0208394
0.0236885
-0.017221
0.016981
-0.0136914
0.010994
-0.0102364
0.00586759
-0.00682833
0.00170205
-0.0034302
-0.00144241
-7.56576e-15
-0.00354565
0.00350573
-0.0046265
0.00712831
-0.00474111
0.0109034
-0.00398048
0.0148572
-0.00246717
0.0190028
-0.000351112
0.0233355
0.0021958
0.027829
0.00498623
0.0324309
0.00782513
0.0370592
0.0105186
0.0415996
0.0128836
0.0459047
0.0147579
0.0497954
0.0160105
0.0530647
0.0165505
0.0554856
0.0163351
0.0568207
0.0153752
0.0568365
0.0137385
0.0553185
0.0115487
0.0520886
0.00898186
0.0470229
0.040067
0.00625838
0.0712226
-0.0446105
-0.0590867
0.0810574
-0.0500566
0.0884837
-0.0536848
0.0934683
-0.055586
0.0960502
-0.0559177
0.0963369
-0.0548865
0.0944976
-0.0527289
0.0907539
-0.0496926
0.0853696
-0.0460204
0.0786388
-0.0419358
0.0708741
-0.0376334
0.0623947
-0.0332717
0.0535156
-0.0289703
0.044538
-0.0248103
0.0357411
-0.020836
0.0273754
-0.0170598
0.0196581
-0.0134669
0.0127694
-0.0100211
0.00685033
-0.00667069
0.00200204
-0.00335306
-0.00171465
1.00497e-17
-0.00427859
0.00345811
-0.00570715
0.00708804
-0.00605463
0.0109496
-0.00540991
0.0150912
-0.00389365
0.0195452
-0.00165445
0.0243229
0.00113569
0.0294089
0.00428716
0.0347563
0.00759947
0.0402815
0.010869
0.0458611
0.0138979
0.0513297
0.0165027
0.0564815
0.0185242
0.0610739
0.0198358
0.0648356
0.0203515
0.0674785
0.0200322
0.0687124
0.0188897
0.0682635
0.0169882
0.0658943
0.0144432
0.0614235
0.0547459
0.0114176
0.0935667
-0.0547545
-0.0817084
0.102693
-0.0592636
0.109073
-0.0618362
0.112759
-0.0626049
0.11387
-0.06177
0.112584
-0.0595794
0.109131
-0.0563079
0.103779
-0.0522371
0.0968311
-0.0476375
0.0886078
-0.0427539
0.0794399
-0.0377945
0.0696572
-0.0329244
0.0595787
-0.0282627
0.0495052
-0.0238833
0.0397119
-0.0198184
0.0304437
-0.0160632
0.0219108
-0.0125826
0.0142871
-0.00931759
0.00770808
-0.00619178
0.00227071
-0.00311723
-0.00196621
1.12761e-17
-0.00498141
0.00325497
-0.0067898
0.00673921
-0.00744094
0.0105361
-0.00701702
0.014716
-0.00563033
0.0193311
-0.00342024
0.0244091
-0.000549294
0.0299478
0.00280135
0.0359084
0.00643752
0.0422101
0.0101584
0.0487256
0.0137637
0.0552787
0.0170613
0.0616449
0.0198749
0.0675555
0.0220519
0.0727059
0.0234701
0.0767678
0.0240439
0.0794057
0.0237285
0.080297
0.0225227
0.0791531
0.0204699
0.0757426
0.0699118
0.0176564
0.116396
-0.0633227
-0.105786
0.124008
-0.0665838
0.128694
-0.0678884
0.13059
-0.0674025
0.129883
-0.065358
0.126806
-0.062032
0.121634
-0.0577253
0.114668
-0.0527407
0.106229
-0.0473651
0.0966486
-0.0418538
0.0862605
-0.0364198
0.0753888
-0.0312273
0.0643432
-0.0263891
0.0534111
-0.0219683
0.042853
-0.0179816
0.0328986
-0.0144064
0.0237438
-0.0111866
0.0155495
-0.00824119
0.00844087
-0.00547031
0.00250752
-0.00276244
-0.00219589
1.24055e-17
-0.00564862
0.0029353
-0.00786254
0.00615754
-0.00888062
0.00977167
-0.00877516
0.0138683
-0.00764571
0.0185178
-0.00561663
0.0237645
-0.00283411
0.0296192
0.00053744
0.0360529
0.0043196
0.0429901
0.00832486
0.0503041
0.0123621
0.0578137
0.0162422
0.0652834
0.0197847
0.0724278
0.0228232
0.0789192
0.0252111
0.0844015
0.0268269
0.0885066
0.0275778
0.0908756
0.0274028
0.0911814
0.0262751
0.0891531
0.0845975
0.0242017
0.138263
-0.0695432
-0.129702
0.143741
-0.0714272
0.146286
-0.071417
0.146092
-0.0697011
0.143398
-0.0665313
0.138474
-0.0622016
0.13162
-0.0570262
0.123149
-0.0513179
0.113386
-0.0453693
0.102658
-0.0394373
0.0912857
-0.0337324
0.0795754
-0.0284122
0.0678162
-0.0235793
0.0562732
-0.0192833
0.0451843
-0.0155249
0.0347575
-0.0122632
0.0251689
-0.00942284
0.0165626
-0.00690218
0.0090504
-0.00458068
0.00271225
-0.00232599
-0.0024026
-2.75272e-15
-0.00627447
0.00253565
-0.0089119
0.00541441
-0.0103503
0.00875975
-0.0106502
0.0126797
-0.00989574
0.0172611
-0.00819282
0.0225623
-0.00566664
0.0286068
-0.00245924
0.0353755
0.00127352
0.0427998
0.00536541
0.0507561
0.00964371
0.0590628
0.0139333
0.0674798
0.0180608
0.0757125
0.0218591
0.0834205
0.025171
0.0902305
0.0278531
0.0957541
0.029779
0.0996092
0.0308418
0.101443
0.0309565
0.100959
0.0979339
0.0300617
0.157714
-0.0729071
-0.151741
0.160696
-0.073457
0.160884
-0.0722332
0.158515
-0.069436
0.153853
-0.0653263
0.147185
-0.0602042
0.138815
-0.0543869
0.129054
-0.0481876
0.118215
-0.0418961
0.106606
-0.0357644
0.0945224
-0.0299949
0.0822462
-0.024735
0.0700374
-0.0200747
0.0581325
-0.0160492
0.0467419
-0.0126437
0.036048
-0.00980047
0.0262044
-0.00742666
0.0173361
-0.00540298
0.00953989
-0.00359133
0.00288498
-0.001842
-0.00258544
5.07146e-15
-0.0068531
0.00208936
-0.00992328
0.00457522
-0.0118234
0.00759604
-0.0126017
0.011274
-0.0123259
0.0157091
-0.0110814
0.0209718
-0.00897026
0.0270964
-0.00610906
0.0340725
-0.00262698
0.0418388
0.00133634
0.0502765
0.0056332
0.0592063
0.0101103
0.068388
0.0146115
0.0775244
0.01898
0.0862696
0.0230611
0.0942429
0.0267045
0.101046
0.0297664
0.106285
0.0321115
0.109595
0.0336153
0.110661
0.109247
0.0341659
0.173433
-0.0732237
-0.170267
0.173839
-0.0726205
0.171707
-0.0703957
0.167288
-0.0667534
0.160852
-0.061955
0.152684
-0.056298
0.143077
-0.0500951
0.132324
-0.0436525
0.120715
-0.0372519
0.108529
-0.0311351
0.0960312
-0.0254934
0.083471
-0.0204619
0.0710759
-0.0161174
0.0590507
-0.0124812
0.0475759
-0.00952397
0.036807
-0.00717336
0.0268741
-0.00532199
0.0178826
-0.00383607
0.00991381
-0.00256342
0.00302611
-0.00134075
-0.00274362
4.99604e-15
-0.00737875
0.00162596
-0.0108815
0.00369815
-0.0132716
0.00636626
-0.014585
0.00976314
-0.0148732
0.0139986
-0.0142012
0.0191525
-0.0126474
0.0252672
-0.010302
0.03234
-0.00726585
0.0403157
-0.00364952
0.0490808
0.000427999
0.0584599
0.00484039
0.0682156
0.00945521
0.0780522
0.0141349
0.0876245
0.018738
0.0965509
0.02312
0.104432
0.0271349
0.110871
0.0306364
0.115498
0.0334795
0.117995
0.118118
0.0355233
0.184371
-0.0706297
-0.183902
0.182399
-0.0691411
0.178212
-0.0661923
0.172055
-0.0619855
0.164187
-0.0567763
0.154878
-0.0508541
0.144395
-0.0445216
0.133006
-0.0380738
0.120969
-0.03178
0.108531
-0.0258697
0.0959214
-0.0205212
0.0833553
-0.0158568
0.0710262
-0.0119403
0.0591067
-0.00878052
0.0477479
-0.00633566
0.0370786
-0.00452127
0.0272062
-0.00321839
0.0182171
-0.00228214
0.0101778
-0.00154983
0.00313631
-0.00084824
-0.00287658
-4.41163e-21
-0.00784592
0.00117075
-0.0117712
0.00283317
-0.0146651
0.0051446
-0.0165524
0.00824501
-0.0174689
0.0122509
-0.0174609
0.0172482
-0.016584
0.0232853
-0.0149028
0.0303646
-0.0124905
0.0384359
-0.00942851
0.0473905
-0.00580617
0.0570573
-0.00172073
0.0672032
0.00272264
0.0775366
0.00741078
0.0877166
0.0122225
0.097366
0.0170287
0.106089
0.0216927
0.113494
0.0260713
0.119213
0.0300161
0.122931
0.124402
0.0333758
0.189848
-0.065552
-0.191675
0.185933
-0.0634769
0.180142
-0.0600966
0.172703
-0.0556074
0.163853
-0.0502557
0.153835
-0.0443194
0.142889
-0.0380878
0.131249
-0.031842
0.11914
-0.0258373
0.106773
-0.0202893
0.0943446
-0.0153632
0.0820342
-0.0111685
0.070003
-0.00775771
0.0583933
-0.00512833
0.0473283
-0.00322861
0.0369125
-0.00196472
0.0272321
-0.0012091
0.0183564
-0.000808998
0.0103383
-0.000594525
0.00321648
-0.000385944
-0.00298393
-1.98597e-15
-0.00824954
0.000744481
-0.0125775
0.00202146
-0.0159744
0.00399256
-0.018455
0.00680169
-0.0200414
0.0105689
-0.0207627
0.0153835
-0.020654
0.021297
-0.019757
0.028315
-0.0181191
0.0363906
-0.0157944
0.0454186
-0.012844
0.0552321
-0.00933656
0.0656026
-0.00534959
0.0762441
-0.000970027
0.086822
0.00370469
0.0969665
0.00856598
0.10629
0.013494
0.114408
0.0183578
0.120961
0.0230173
0.125639
0.128202
0.0273248
0.189617
-0.0586333
-0.193122
0.184359
-0.0562511
0.17754
-0.0527042
0.169362
-0.048181
0.160038
-0.0429164
0.14978
-0.0371747
0.138797
-0.0312301
0.127291
-0.0253485
0.115454
-0.0197704
0.103465
-0.0146972
0.0914856
-0.0102814
0.0796657
-0.00662075
0.0681364
-0.00375743
0.0570129
-0.00167998
0.0463938
-0.000328774
0.0363621
0.000396832
0.0269856
0.000630238
0.0183186
0.000529191
0.0104026
0.0002678
0.00326774
2.93455e-05
-0.00306548
1.83573e-15
-0.00858517
0.000363297
-0.0132866
0.00129506
-0.017171
0.00295835
-0.0202447
0.00549816
-0.0225182
0.00903536
-0.0240059
0.0136601
-0.0247254
0.0194245
-0.0246981
0.0263354
-0.0239492
0.0343473
-0.0225087
0.0433572
-0.0204124
0.0532015
-0.017703
0.0636563
-0.0144321
0.0744415
-0.0106616
0.08523
-0.00646483
0.0956606
-0.00192855
0.105356
0.00284707
0.113941
0.00774832
0.121068
0.0126491
0.126436
0.12981
0.0174135
0.18388
-0.0506312
-0.188326
0.177961
-0.0481654
0.170739
-0.0446598
0.162393
-0.0402932
0.153108
-0.0352877
0.143069
-0.0298924
0.132458
-0.0243658
0.121445
-0.0189581
0.110193
-0.0138946
0.0988505
-0.00936295
0.0875537
-0.0055033
0.0764235
-0.002403
0.0655661
-9.52442e-05
0.0550737
0.00143863
0.0450242
0.00226409
0.0354826
0.00248632
0.0265016
0.00224221
0.0181228
0.00169204
0.0103783
0.00101168
0.00329141
0.000385457
-0.0031213
3.39447e-15
-0.00884911
3.87558e-05
-0.0138857
0.000676984
-0.0182281
0.0020768
-0.0218757
0.00438191
-0.0248293
0.00771174
-0.0270913
0.0121549
-0.0286649
0.0177623
-0.0295547
0.0245398
-0.0297675
0.0324419
-0.029313
0.0413664
-0.0282055
0.051152
-0.0264657
0.0615787
-0.0241227
0.0723723
-0.0212159
0.0832132
-0.0177972
0.0937498
-0.0139325
0.103615
-0.00970252
0.112447
-0.00520327
0.119908
-0.000544648
0.125708
0.12962
0.00415154
0.173258
-0.0423094
-0.177902
0.16735
-0.0399101
0.160327
-0.036583
0.152348
-0.0324956
0.143575
-0.0278561
0.134169
-0.0228978
0.124287
-0.0178631
0.114075
-0.0129859
0.103671
-0.00847658
0.0931992
-0.00450936
0.0827724
-0.00121281
0.0724893
0.00133524
0.0624358
0.00310917
0.0526856
0.00413339
0.0433
0.00447748
0.0343296
0.00424936
0.025815
0.00358747
0.0177881
0.00265267
0.0102734
0.00162059
0.00328897
0.000674664
-0.00315166
-8.1196e-18
-0.0090386
-0.000221975
-0.0143642
0.000181519
-0.0191221
0.00136973
-0.023306
0.00348321
-0.0269093
0.00663805
-0.0299246
0.0109196
-0.0323437
0.0163757
-0.0341581
0.0230096
-0.0353594
0.0307743
-0.0359413
0.0395673
-0.0359008
0.0492285
-0.0352405
0.0595411
-0.0339709
0.0702361
-0.0321127
0.0810015
-0.0296993
0.0914951
-0.0267786
0.101361
-0.0234138
0.110249
-0.0196844
0.117834
-0.0156845
0.123836
0.128038
-0.0115216
0.158718
-0.162906
0.153401
0.147089
0.139926
0.132055
0.123617
0.114749
0.105579
0.0962241
0.0867894
0.0773693
0.0680455
0.0588883
0.0499568
0.0412999
0.0329572
0.0249602
0.0173336
0.010096
0.00326203
-0.00315708
-0.00915185
-0.0147135
-0.0198327
-0.024499
-0.0286997
-0.03242
-0.0356428
-0.0383491
-0.0405192
-0.0421339
-0.0431766
-0.0436356
-0.0435062
-0.0427941
-0.041517
-0.039707
-0.0374122
-0.0346963
-0.0316388
-0.0283321
-0.132791
-0.0256832
-0.130464
-0.0111437
-0.124324
0.00249896
-0.114995
0.0142292
-0.103324
0.0232762
-0.090266
0.0291853
-0.0767576
0.0318505
-0.0636046
0.0315047
-0.0514035
0.0286713
-0.040505
0.0240809
-0.031026
0.0185676
-0.0229065
0.0129552
-0.0159986
0.0079498
-0.0101712
0.00405062
-0.00540924
0.00149194
-0.00188713
0.000221503
-8.1089e-05
-0.133132
-0.0230848
-0.131085
-0.010644
-0.125568
0.00111218
-0.117099
0.0113792
-0.106387
0.0195288
-0.094236
0.025162
-0.0814545
0.0281367
-0.068762
0.0285677
-0.0567232
0.026799
-0.0457097
0.0233527
-0.0358979
0.01886
-0.0273
0.0139823
-0.019824
0.00933193
-0.0133517
0.005401
-0.00781953
0.00250634
-0.00329033
0.000756959
4.72458e-05
-0.131512
-0.0205104
-0.129828
-0.00998047
-0.125007
4.48159e-05
-0.117474
0.00893268
-0.107808
0.0161749
-0.0966787
0.0214268
-0.0847718
0.0245308
-0.0727176
0.0255203
-0.061036
0.0246066
-0.0501001
0.0221487
-0.0401243
0.0186088
-0.0311782
0.0145003
-0.023224
0.0103311
-0.0161704
0.00654983
-0.00993541
0.00349926
-0.00450834
0.00138233
0.000243526
-0.128022
-0.0179497
-0.126748
-0.00913533
-0.122662
-0.000678596
-0.1161
0.00692667
-0.107531
0.0132728
-0.0975005
0.0180671
-0.0865801
0.0211504
-0.0753119
0.0225037
-0.0641626
0.0222431
-0.0534906
0.0206032
-0.0435295
0.0179103
-0.0343911
0.0145486
-0.0260847
0.0109223
-0.0185531
0.00741619
-0.0117172
0.0043599
-0.00552543
0.00199718
0.00046426
-0.122828
-0.0154084
-0.12198
-0.00811354
-0.118632
-0.00106073
-0.113045
0.00536784
-0.105585
0.0108483
-0.0966905
0.015136
-0.0868305
0.01808
-0.0764614
0.0196303
-0.0659917
0.0198374
-0.0557533
0.0188441
-0.0459838
0.0168704
-0.0368215
0.0141927
-0.028314
0.0111195
-0.0204389
0.00796397
-0.0131335
0.00501823
-0.00633136
0.00252847
0.000674971
-0.116159
-0.0129062
-0.115727
-0.0069395
-0.113091
-0.00112775
-0.108446
0.004236
-0.102073
0.00889713
-0.0943172
0.0126544
-0.0855537
0.0153711
-0.0761597
0.0169817
-0.0664844
0.0174939
-0.0568253
0.0169851
-0.0474114
0.015595
-0.0383944
0.0135135
-0.0298496
0.0109656
-0.021786
0.00819398
-0.0141645
0.00544103
-0.006922
0.00293049
0.000851338
-0.10829
-0.0104733
-0.108241
-0.00565259
-0.106266
-0.000924291
-0.102505
0.00348913
-0.0971681
0.00738975
-0.0905188
0.0106147
-0.0828524
0.0130447
-0.074473
0.0146094
-0.0656721
0.0152904
-0.0567084
0.0151209
-0.0477933
0.0141821
-0.0390806
0.0125969
-0.0306631
0.0105214
-0.0225755
0.00813448
-0.0148037
0.00562546
-0.00729958
0.00318224
0.000978998
-0.0995188
-0.00814665
-0.099804
-0.00430224
-0.0984217
-0.000507963
-0.0954663
0.0030691
-0.0910897
0.00627698
-0.0854883
0.00898611
-0.0788882
0.0110954
-0.0715292
0.0125369
-0.063648
0.0132784
-0.0554636
0.0133246
-0.0471639
0.0127159
-0.0388961
0.0115258
-0.0307613
0.00985624
-0.0228126
0.00783151
-0.0150589
0.00559132
-0.00747244
0.0032828
0.00105236
-0.0901507
-0.00596612
-0.0907099
-0.00294296
-0.089839
5.62891e-05
-0.0875972
0.00290764
-0.0840888
0.00549597
-0.0794553
0.00771994
-0.0738652
0.00949638
-0.0675023
0.0107637
-0.0605543
0.0114843
-0.0532008
0.0116463
-0.0456035
0.0112633
-0.0378969
0.0103738
-0.0301822
0.00903904
-0.0225243
0.00733987
-0.0149506
0.00537295
-0.00745437
0.00324601
0.00107277
-0.0804764
-0.0039709
-0.0812443
-0.00162996
-0.0807983
0.000701225
-0.0791701
0.00293186
-0.0764271
0.00497602
-0.072667
0.0067559
-0.068011
0.00820482
-0.0625959
0.00926974
-0.0565661
0.00991328
-0.0500651
0.0101151
-0.043227
0.0098726
-0.0361701
0.00920099
-0.0289902
0.00813259
-0.0217568
0.00671555
-0.0145106
0.00501184
-0.00726353
0.00309486
0.00104642
-0.0707583
-0.00219694
-0.071669
-0.000415671
-0.0715605
0.00136145
-0.0704442
0.00306895
-0.0683594
0.00464375
-0.0653698
0.00602729
-0.0615587
0.00716753
-0.0570247
0.00802071
-0.0518754
0.00855286
-0.0462216
0.00874094
-0.0401714
0.0085737
-0.0338246
0.00805208
-0.0272677
0.0071892
-0.0205696
0.00601002
-0.0137788
0.00455051
-0.00692113
0.00285652
0.000982318
-0.0612185
-0.000675287
-0.0622093
0.000652596
-0.0623542
0.00197639
-0.0616508
0.00324972
-0.0601177
0.00442718
-0.0577929
0.00546568
-0.0547307
0.00632573
-0.0509989
0.00697263
-0.0466748
0.00737749
-0.0418412
0.0075182
-0.0365823
0.00738007
-0.0309796
0.00695636
-0.0251076
0.00624857
-0.0190306
0.00526645
-0.0127996
0.00402786
-0.00645001
0.00255835
0.000890498
-0.0520321
0.000568481
-0.0530456
0.00153382
-0.0533663
0.00249202
-0.052983
0.00341095
-0.0519
0.00425872
-0.0501365
0.00500443
-0.0477252
0.00561907
-0.0447101
0.00607619
-0.0411444
0.00635265
-0.0370876
0.00642926
-0.0326031
0.00629126
-0.0277548
0.00592885
-0.0226047
0.00533742
-0.0172097
0.00451781
-0.0116193
0.00347639
-0.00587326
0.00222498
0.000780663
-0.0433245
0.00151383
-0.0443098
0.00219327
-0.044737
0.00286136
-0.0445895
0.00349645
-0.0438626
0.0040768
-0.0425628
0.00458104
-0.0407069
0.00498861
-0.0383216
0.00528028
-0.0354412
0.00543855
-0.0321069
0.00544807
-0.0283643
0.005296
-0.024262
0.0049724
-0.0198493
0.0044704
-0.0151744
0.00378652
-0.0102822
0.00292073
-0.00521292
0.0018766
0.00066127
-0.0351718
0.00214403
-0.0360855
0.00260165
-0.0365586
0.00304396
-0.0365727
0.00345698
-0.0361177
0.00382652
-0.0351921
0.00413841
-0.0338022
0.00437884
-0.0319622
0.00453456
-0.0296927
0.00459318
-0.0270206
0.00454341
-0.0239775
0.00437526
-0.0205985
0.00408032
-0.0169216
0.0036519
-0.0129855
0.00308522
-0.00882896
0.00237753
-0.00448903
0.00152826
0.000539046
-0.0276057
0.00244434
-0.0284111
0.00273339
-0.0288786
0.0030046
-0.02899
0.00324943
-0.0287333
0.0034592
-0.0281025
0.00362512
-0.0270975
0.00373856
-0.0257242
0.00379106
-0.0239937
0.00377458
-0.0219223
0.00368155
-0.0195308
0.00350509
-0.0168436
0.00323906
-0.0138883
0.00287822
-0.0106948
0.00241832
-0.00729436
0.00185623
-0.00371892
0.00118997
0.000418849
-0.0206192
0.00239982
-0.0212857
0.00256471
-0.0217041
0.00271142
-0.0218586
0.00283526
-0.0217373
0.0029314
-0.0213326
0.00299499
-0.0206413
0.00302115
-0.0196642
0.00300514
-0.0184064
0.00294232
-0.0168768
0.00282832
-0.0150883
0.00265902
-0.0130567
0.00243066
-0.0108012
0.00213991
-0.00834331
0.00178388
-0.0057068
0.00136026
-0.00291693
0.000867268
0.000303781
-0.0141743
0.00199314
-0.0146762
0.00207137
-0.0150096
0.00213397
-0.0151619
0.00217876
-0.0151234
0.00220355
-0.0148871
0.00220611
-0.0144487
0.00218423
-0.013807
0.00213574
-0.0129635
0.00205853
-0.0119224
0.00195057
-0.0106908
0.00180997
-0.00927847
0.00163496
-0.00769736
0.00142395
-0.00596182
0.00117555
-0.00408816
0.000888584
-0.0020944
0.00056211
0.00019546
-0.00821051
0.0012025
-0.0085259
0.00122672
-0.00874411
0.00124121
-0.00885718
0.00124532
-0.00885863
0.00123842
-0.00874349
0.00121987
-0.00850842
0.00118905
-0.00815172
0.00114538
-0.00767337
0.00108828
-0.00707501
0.00101723
-0.00635996
0.000931724
-0.00553315
0.000831323
-0.00460108
0.000715634
-0.00357173
0.000584323
-0.00245448
0.000437122
-0.00125998
0.000273833
9.4334e-05
-0.00265246
2.30761e-18
-0.00276203
1.82999e-18
-0.00284015
1.96132e-18
-0.00288401
1.90856e-18
-0.00289131
1.48555e-18
-0.00286021
1.41389e-18
-0.00278942
1.34552e-18
-0.00267816
1.00848e-18
-0.00252621
7.01625e-19
-0.00233391
5.00537e-19
-0.00210215
2.82909e-19
-0.00183236
2.84362e-19
-0.00152653
3.53426e-19
-0.00118716
2.47729e-19
-0.000817234
1.26495e-19
-0.00042022
5.07056e-20
1.01467e-20
0.00258193
-0.00164941
0.00269574
-0.00164468
0.00277862
-0.00162594
0.00282769
-0.00159339
0.00284052
-0.00154729
0.00281519
-0.00148795
0.00275027
-0.00141573
0.00264488
-0.00133103
0.00249868
-0.00123431
0.00231188
-0.00112603
0.00208527
-0.00100669
0.00182016
-0.000876831
0.00151842
-0.000736975
0.00118243
-0.000587673
0.000815058
-0.000429473
0.000419657
-0.000262921
-8.8551e-05
0.00757429
-0.0037883
0.0079279
-0.00374865
0.00818921
-0.00367627
0.00834934
-0.00357245
0.00840081
-0.00343868
0.0083377
-0.00327659
0.00815563
-0.00308794
0.00785188
-0.00287462
0.00742537
-0.00263857
0.00687669
-0.00238181
0.00620809
-0.00210637
0.00542344
-0.0018143
0.00452817
-0.00150761
0.00352922
-0.00118827
0.00243493
-0.000858173
0.00125493
-0.000519115
-0.000172769
0.012399
-0.00646626
0.013008
-0.0063582
0.013462
-0.00619349
0.013746
-0.0059756
0.0138475
-0.0057084
0.0137567
-0.005396
0.0134666
-0.00504276
0.0129727
-0.00465321
0.0122738
-0.00423197
0.0113713
-0.00378368
0.0102691
-0.00331295
0.00897403
-0.00282429
0.00749521
-0.00232202
0.00584406
-0.00181027
0.00403405
-0.00129284
0.00208044
-0.000773213
-0.000254475
0.0171168
-0.0097386
0.0179957
-0.00952314
0.0186535
-0.00922145
0.0190691
-0.0088406
0.0192252
-0.0083882
0.0191086
-0.00787232
0.0187102
-0.0073013
0.0180252
-0.00668366
0.0170529
-0.00602793
0.0157963
-0.00534254
0.0142623
-0.00463564
0.0124611
-0.003915
0.0104062
-0.00318789
0.00811352
-0.00246094
0.00560136
-0.00174004
0.00288977
-0.00103029
-0.000335863
0.0217689
-0.0136641
0.0229309
-0.0132945
0.0238002
-0.0128031
0.0243496
-0.0122023
0.0245578
-0.0115052
0.0244092
-0.0107257
0.0238941
-0.00987785
0.0230085
-0.00897565
0.0217539
-0.00803294
0.0201366
-0.00706301
0.0181678
-0.00607843
0.0158623
-0.00509077
0.0132386
-0.00411044
0.0103175
-0.00314646
0.00712155
-0.00220636
0.00367448
-0.00129602
-0.000419556
0.0263714
-0.0183021
0.0278277
-0.0177217
0.0289121
-0.0169775
0.0295919
-0.0160895
0.0298428
-0.0150791
0.0296484
-0.0139679
0.0290002
-0.0127777
0.0278973
-0.01153
0.0263454
-0.0102452
0.0243565
-0.00894257
0.0219478
-0.00763964
0.0191403
-0.00635193
0.0159582
-0.00509259
0.0124273
-0.00387222
0.00857389
-0.00269864
0.0044236
-0.00157679
-0.000508649
0.0309103
-0.0237086
0.0326693
-0.0228486
0.0339679
-0.021776
0.0347687
-0.020522
0.0350461
-0.0191189
0.0347848
-0.0175991
0.0339805
-0.0159949
0.0326378
-0.0143367
0.03077
-0.0126534
0.0283971
-0.0109708
0.0255445
-0.00931168
0.0222411
-0.00769491
0.0185177
-0.00613526
0.0144049
-0.00464309
0.00993172
-0.00322419
0.00512331
-0.0018798
-0.000606682
0.0353376
-0.0299328
0.0374045
-0.0287098
0.0389113
-0.0272188
0.0398178
-0.0255064
0.0400986
-0.0236198
0.0397433
-0.0216058
0.0387544
-0.0195097
0.0371461
-0.0173736
0.0349425
-0.0152357
0.0321749
-0.013129
0.0288793
-0.011081
0.0250941
-0.00911246
0.0208572
-0.00723758
0.0162035
-0.00546355
0.0111626
-0.00379071
0.00575695
-0.00221279
-0.000717455
0.0395691
-0.0370121
0.0419451
-0.0353263
0.0436493
-0.033311
0.04464
-0.0310332
0.0448958
-0.0285603
0.0444142
-0.0259578
0.0432091
-0.0232874
0.0413088
-0.0206049
0.0387518
-0.0179592
0.0355843
-0.0153901
0.0318555
-0.0129282
0.0276143
-0.0105938
0.0229059
-0.00839696
0.0177681
-0.00633746
0.0122292
-0.00440567
0.00630543
-0.00258327
-0.000844605
0.0434839
-0.0449685
0.0461664
-0.0427022
0.0480524
-0.040039
0.0491013
-0.0370736
0.0492993
-0.0338996
0.0486563
-0.0306066
0.0472032
-0.0272765
0.0449867
-0.0239811
0.042065
-0.02078
0.038502
-0.0177189
0.0343625
-0.0148287
0.0297067
-0.012125
0.0245861
-0.00960877
0.0190397
-0.00726709
0.0130912
-0.00507489
0.00674786
-0.00299703
-0.000990868
0.0469268
-0.0538048
0.0499101
-0.0508212
0.051959
-0.0473683
0.053037
-0.0435774
0.0531422
-0.0395765
0.0523032
-0.035485
0.050573
-0.0314093
0.048023
-0.0274389
0.0447352
-0.0236439
0.0407949
-0.0200729
0.0362836
-0.0167526
0.0312729
-0.0136883
0.0258187
-0.0108652
0.0199582
-0.00825122
0.0137076
-0.00580011
0.00706258
-0.00345584
-0.00115697
0.0497145
-0.0635021
0.0529912
-0.0596448
0.0551824
-0.0552419
0.0562597
-0.0504728
0.0562386
-0.0455091
0.0551725
-0.0405073
0.0531437
-0.0356026
0.0502537
-0.0309033
0.046613
-0.0264879
0.0423309
-0.0224034
0.0375062
-0.0186658
0.03222
-0.015262
0.0265301
-0.0121535
0.020468
-0.00928209
0.0140398
-0.00657534
0.00722839
-0.00395422
-0.00134017
0.0516447
-0.0740178
0.0552077
-0.0691114
0.0575221
-0.0635805
0.0585718
-0.0576663
0.058396
-0.051596
0.0570802
-0.0455714
0.0547428
-0.0397602
0.0515218
-0.0342894
0.0475599
-0.0292422
0.0429919
-0.0246568
0.037933
-0.0205292
0.0324707
-0.0168182
0.02666
-0.0134526
0.0205235
-0.010341
0.0140546
-0.00738203
0.00722593
-0.00447533
-0.0015325
0.0525086
-0.0852854
0.0563541
-0.079137
0.0587777
-0.0722836
0.0597799
-0.0650458
0.0594308
-0.0577199
0.0578557
-0.0505619
0.0552166
-0.0437758
0.0516932
-0.0375058
0.0474638
-0.0318325
0.0426883
-0.0267755
0.037495
-0.0222986
0.031973
-0.0183207
0.0261696
-0.0147286
0.0200942
-0.0113927
0.013728
-0.00818323
0.00703904
-0.00498645
-0.00171895
0.0521069
-0.0972152
0.0562377
-0.0896172
0.0587656
-0.081233
0.0597123
-0.0724837
0.059186
-0.0637508
0.05736
-0.0553547
0.0544471
-0.0475383
0.0506737
-0.0404581
0.0462545
-0.0341827
0.0413721
-0.0286986
0.0361629
-0.0239229
0.0307105
-0.0197211
0.0250481
-0.0159294
0.0191695
-0.0123785
0.0130472
-0.00891726
0.00665603
-0.00543429
-0.00187571
0.0502668
-0.109696
0.0546961
-0.100431
0.0573367
-0.0902973
0.0582364
-0.0798422
0.0575487
-0.0695523
0.0555029
-0.0598224
0.0523694
-0.0509357
0.0484243
-0.0430532
0.0439178
-0.0362169
0.0390502
-0.0303624
0.0339573
-0.0253419
0.0287088
-0.020954
0.0233177
-0.0169783
0.0177617
-0.0132098
0.0120126
-0.00949147
0.00607063
-0.00574106
-0.00196893
0.0468599
-0.1226
0.0516143
-0.111445
0.0543938
-0.0993367
0.0552759
-0.0869798
0.0544666
-0.0749875
0.0522587
-0.0638406
0.0489855
-0.053861
0.0449741
-0.0452028
0.0405064
-0.0378615
0.0357915
-0.0316992
0.0309542
-0.0264829
0.0260397
-0.0219315
0.0210357
-0.0177666
0.0159067
-0.0137605
0.0106383
-0.00977725
0.00528256
-0.00580196
-0.00195433
0.041819
-0.135783
0.0469413
-0.122518
0.0499067
-0.10821
0.050825
-0.093757
0.0499607
-0.0799254
0.0476772
-0.0672932
0.0443741
-0.056217
0.0404281
-0.0468267
0.0361452
-0.0390459
0.0317314
-0.0326358
0.0272864
-0.0272564
0.0228205
-0.0225369
0.0182923
-0.0181476
0.0136623
-0.0138624
0.00895131
-0.00960713
0.00429765
-0.00548511
-0.00177797
0.0351512
-0.149088
0.0407015
-0.133506
0.0439225
-0.11678
0.0449572
-0.100043
0.0441335
-0.0842475
0.0418901
-0.0700784
0.0386947
-0.0579204
0.0349688
-0.0478553
0.0310309
-0.0397026
0.027068
-0.0330911
0.0231387
-0.0275515
0.0192077
-0.0226194
0.0152056
-0.0179312
0.0111036
-0.0133021
0.00698891
-0.00877538
0.00312746
-0.00463467
-0.00137857
0.0269471
-0.162352
0.033002
-0.14427
0.0365714
-0.124918
0.037829
-0.105723
0.0371694
-0.0878526
0.0351096
-0.0721135
0.032184
-0.0589051
0.0288502
-0.0482308
0.0254236
-0.0397666
0.0220525
-0.0329727
0.0187367
-0.0272315
0.0153865
-0.0219891
0.0119109
-0.0168812
0.00831609
-0.0118218
0.00479515
-0.00704283
0.00178858
-0.00307789
-0.000691527
-0.029951
0.0832609
0.0288858
-0.0309006
0.0922803
-0.0317453
0.101188
-0.0324867
0.109655
-0.0331157
0.11733
-0.0336129
0.12386
-0.0339489
0.128911
-0.0340859
0.132189
-0.0339794
0.133451
-0.0335804
0.132523
-0.0328373
0.129306
-0.031698
0.12378
-0.030112
0.116005
-0.0280315
0.106114
-0.0254129
0.0943044
-0.0222177
0.0808323
-0.0184134
0.0659972
-0.0139743
0.0501327
-0.00888214
0.0335963
-0.00312691
0.0167597
0.0032922
5.45997e-15
0.0103657
-0.016307
0.0180727
-0.0317942
0.0263796
-0.0461103
0.0352385
-0.0589265
0.0445867
-0.0699449
0.0543453
-0.0789073
0.0644191
-0.0856045
0.0746966
-0.0898863
0.0850512
-0.0916706