/*--------------------------------*- C++ -*----------------------------------*\
  =========                 |
  \\      /  F ield         | OpenFOAM: The Open Source CFD Toolbox
   \\    /   O peration     | Website:  https://openfoam.org
    \\  /    A nd           | Version:  6
     \\/     M anipulation  |
\*---------------------------------------------------------------------------*/
FoamFile
{
    version     2.0;
    format      ascii;
    class       surfaceVectorField;
    location    "1.66";
    object      rhoUf;
}
// * * * * * * * * * * * * * * * * * * * * * * * * * * * * * * * * * * * * * //

dimensions      [1 -2 -1 0 0 0 0];

internalField   nonuniform List<vector> 
11670
(
(-0.00196236 0.000204511 0.00143723)
(-0.00236409 5.15744e-05 0.000398156)
(-0.00302287 -0.000266666 0.00120207)
(-0.00195792 0.00102745 0.00230373)
(-1.47843e-16 3.85159e-17 2.65629e-17)
(-4.14602e-16 9.26025e-17 5.3833e-17)
(-1.85664e-16 5.35805e-17 -8.28722e-18)
(-1.58272e-16 1.90581e-17 7.25806e-17)
(-0.00274395 -0.000266863 -0.00197242)
(-0.00304541 -0.000224872 -0.00102571)
(-0.00382551 -0.000405703 -0.00162708)
(-0.00248608 6.529e-05 -0.00254668)
(-0.000447335 -4.51446e-05 0.000282013)
(-0.0005042 -6.62689e-05 0.000127649)
(-0.000697745 -0.000109154 0.00027099)
(-0.000487974 2.53783e-05 0.000418484)
(-2.53649e-16 3.37805e-17 -1.54458e-16)
(-2.78312e-16 2.89493e-17 -1.11027e-16)
(-4.65382e-16 9.46855e-17 -1.58334e-16)
(-3.33331e-16 1.25302e-16 -2.75188e-16)
(-1.64955e-10 -2.84081e-11 -1.17369e-10)
(-1.49256e-10 -2.78623e-11 -6.54356e-11)
(-2.68214e-10 -4.63221e-11 -1.06209e-10)
(-1.46656e-10 -3.19799e-11 -1.08197e-10)
(-1.92937e-14 -4.30219e-15 7.27084e-15)
(-4.85894e-14 -8.57652e-15 1.13148e-14)
(-1.8494e-14 -4.51095e-15 1.46827e-15)
(-1.95388e-14 -4.00011e-15 1.15487e-14)
(-3.0185e-06 -4.55419e-07 3.16618e-06)
(-2.67769e-06 -9.78468e-08 1.91647e-06)
(-4.6264e-06 -9.90749e-07 2.35253e-06)
(-2.2335e-06 -2.80724e-07 2.27538e-06)
(-1.29751e-11 3.89104e-12 5.49768e-12)
(-1.32578e-11 4.18485e-12 2.33758e-12)
(-2.2464e-11 7.79905e-12 3.49238e-12)
(-1.15135e-11 3.70501e-12 5.02316e-12)
(-1.21347e-13 2.90076e-14 -2.58504e-17)
(-1.07988e-13 -1.78883e-14 -8.77997e-14)
(-1.68085e-13 4.36232e-14 1.95175e-14)
(-1.82304e-13 -7.41033e-14 7.58986e-14)
(-1.23865e-15 4.04754e-18 7.7056e-16)
(-1.15749e-15 -1.32539e-16 3.35137e-16)
(-1.92922e-15 1.48843e-16 7.09512e-16)
(-1.19572e-15 5.42818e-17 7.63277e-16)
(-0.00105671 -0.000485397 0.000100631)
(-0.000226648 -0.000445391 -7.44723e-05)
(-5.88241e-05 -0.000417667 0.000197543)
(-8.94016e-05 -0.000472909 0.000263798)
(-4.18339e-17 4.31435e-17 -2.24078e-17)
(-2.83684e-18 -7.504e-18 -1.04085e-17)
(-1.18017e-17 3.49234e-18 -2.61628e-17)
(-7.84179e-18 3.04954e-18 -1.42759e-17)
(-1.19859e-17 -8.85634e-19 1.48403e-17)
(-4.2186e-17 5.20024e-17 2.14557e-17)
(-9.28186e-18 2.78305e-18 1.99478e-17)
(-1.38204e-17 9.41278e-18 2.29667e-17)
(-0.000711875 -0.000387479 -0.000333954)
(-0.00146949 -0.000617866 -0.000393101)
(-0.000519448 -0.00058617 -0.00065989)
(-0.000360683 -0.000384915 -0.000604987)
(-3.53188e-18 1.28509e-18 -1.807e-18)
(-1.00721e-17 6.79873e-18 -5.02906e-18)
(-4.02443e-18 3.01708e-18 -4.22644e-18)
(-3.19512e-18 2.67559e-18 -2.91971e-18)
(-0.00250168 0.00113276 -0.00191005)
(-0.00105146 0.00163214 -0.000117559)
(2.08663e-05 0.00291405 -0.00214391)
(2.10266e-05 0.00241215 -0.00303323)
(-0.00274501 -0.00134608 0.00131514)
(-0.00111436 -0.00163438 7.33168e-06)
(7.03335e-05 -0.00254144 0.00228707)
(4.87071e-05 -0.00249284 0.00145487)
(-1.12452e-17 -1.39901e-17 -6.42259e-18)
(-5.47696e-18 -4.39306e-18 -5.68901e-18)
(-1.20604e-18 -3.13913e-18 -8.7533e-18)
(-1.13793e-18 -3.79971e-18 -6.50439e-18)
(-1.47359e-18 4.97486e-19 1.98333e-18)
(-6.81634e-18 6.32183e-18 8.76352e-19)
(-1.5124e-18 1.39439e-18 2.10127e-18)
(-1.75692e-18 8.53125e-19 2.45784e-18)
(-0.00217173 -0.00116031 -0.000142037)
(-0.00387596 -0.000919804 -0.000773565)
(-0.00138424 -0.00219426 -0.00174924)
(-0.00107679 -0.00162568 -0.00275566)
(-2.66228e-18 -2.88981e-18 1.55095e-18)
(-9.62928e-20 -8.82083e-19 8.04498e-19)
(-8.82619e-20 -1.33698e-18 6.83319e-19)
(-9.92354e-20 -7.34464e-19 1.27291e-18)
(-0.00148594 0.000824055 -0.000674659)
(-0.00325622 0.00100469 -0.000132568)
(-0.000270917 0.0024329 0.00142246)
(-0.000377152 0.00247849 0.000403131)
(-0.00100012 0.000600288 -0.000320202)
(-0.000290006 0.000440259 8.87017e-05)
(-0.000135596 0.000623134 -0.000318939)
(-0.000124451 0.000615705 -0.000341802)
(-1.68965e-18 -8.70015e-19 -6.75804e-19)
(-3.43632e-18 -4.05322e-18 -6.13365e-19)
(-1.93256e-18 -1.25287e-18 -1.71265e-18)
(-1.52082e-18 -1.70952e-18 -5.33129e-19)
(-1.37562e-17 -1.79482e-17 5.69958e-18)
(-6.68423e-18 -7.96428e-19 4.26351e-18)
(-5.057e-18 -6.10666e-18 4.09341e-18)
(-6.89385e-18 -5.40496e-18 8.1943e-18)
(-0.000747558 0.000461025 0.000207679)
(-0.00150601 0.00079685 8.97683e-05)
(-0.00042827 0.000515557 0.000501347)
(-0.000590251 0.000711529 0.000477027)
(-8.15664e-17 2.30544e-17 -3.04406e-17)
(-1.94859e-16 2.60196e-16 -2.2734e-16)
(-4.46126e-17 4.04573e-17 -1.50306e-16)
(-2.82662e-17 1.51313e-17 -9.08791e-17)
(-5.84007e-05 -6.13894e-05 3.08639e-05)
(-0.000472675 -0.000184118 3.82003e-05)
(-5.15584e-05 -7.90541e-05 8.88498e-05)
(-6.13705e-05 -7.78475e-05 0.000118996)
(-3.58259e-16 2.63755e-16 4.36234e-17)
(-5.54458e-17 -1.19285e-17 2.10084e-16)
(-7.52916e-17 4.37094e-17 1.61199e-16)
(-1.43806e-16 1.08145e-16 2.19308e-16)
(-6.06883e-06 -5.01721e-06 -5.13908e-06)
(-7.29256e-05 -2.79112e-05 1.27574e-05)
(-7.75387e-06 -5.67835e-06 6.83475e-06)
(-9.6453e-06 -6.21261e-06 1.49135e-05)
(-4.83073e-16 -6.28573e-16 -6.19308e-16)
(-3.84059e-15 3.62044e-15 -2.6223e-15)
(-1.53183e-16 -4.38834e-16 -1.24272e-15)
(6.60471e-17 -4.10099e-16 -7.76025e-16)
(-6.63343e-15 1.94245e-15 1.90097e-15)
(-8.77565e-17 -1.06736e-15 1.53629e-15)
(-6.45067e-16 -1.63128e-16 1.47692e-15)
(-1.42812e-15 4.38384e-18 2.45541e-15)
(-7.25067e-06 -3.87743e-06 5.04789e-07)
(2.40587e-07 -5.00828e-07 -1.54151e-06)
(-3.70314e-07 -6.95459e-07 -2.38291e-06)
(1.10607e-07 -6.84068e-07 -1.52257e-06)
(-3.49289e-06 -9.85338e-07 5.46621e-07)
(-8.6657e-06 -5.36718e-06 4.94161e-06)
(-1.84497e-06 -1.67785e-06 1.25286e-06)
(-2.87224e-06 -1.95205e-06 2.94133e-06)
(-1.44326e-14 2.44499e-16 1.79551e-14)
(-5.18918e-14 9.46969e-15 9.27542e-15)
(-4.67911e-15 -2.32783e-15 1.92566e-14)
(-1.09197e-14 4.6182e-15 2.68409e-14)
(-3.62144e-14 1.15583e-14 -1.85735e-14)
(3.8928e-15 3.45589e-15 -3.65623e-15)
(3.09187e-16 1.47129e-15 -1.87835e-14)
(2.22644e-15 1.28432e-15 -9.59368e-15)
(-2.19389e-14 5.11055e-15 -7.2223e-14)
(-2.01328e-13 1.4986e-13 -9.78879e-14)
(-2.04359e-14 4.28097e-14 -1.64246e-13)
(-6.91603e-15 7.69601e-15 -1.08704e-13)
(-2.6545e-07 -1.71292e-07 -1.62225e-07)
(-5.98273e-07 -4.81537e-07 -6.7242e-07)
(-8.81359e-08 -2.4108e-07 -2.65461e-07)
(-6.28409e-08 -2.88296e-07 -7.86429e-08)
(-1.24686e-06 -5.23745e-07 -4.83904e-07)
(-1.95566e-07 3.0384e-09 2.07354e-07)
(-2.19836e-07 -2.33478e-09 2.37032e-07)
(-4.27158e-07 -1.20748e-07 1.93025e-07)
(-1.62197e-12 1.03648e-12 -8.95053e-13)
(-4.30689e-13 2.83033e-13 -5.47797e-13)
(2.03998e-13 1.55576e-13 -1.00253e-12)
(2.13228e-13 1.0055e-13 -6.54478e-13)
(-1.61174e-07 -5.13668e-08 -3.02687e-09)
(-2.60199e-08 5.36534e-10 -4.38036e-08)
(-4.63893e-08 -1.98148e-08 -5.56319e-08)
(-3.07438e-08 -9.36266e-09 -4.23342e-08)
(-2.13984e-12 1.0421e-12 5.82277e-13)
(-2.70983e-13 -1.3129e-13 6.994e-13)
(-2.72661e-13 -2.74435e-14 5.98246e-13)
(-5.32273e-13 1.67978e-13 9.34293e-13)
(-2.80528e-08 -1.25209e-08 1.19895e-08)
(-1.09378e-07 -5.66555e-08 5.37424e-08)
(-5.07948e-09 -2.18315e-08 1.0819e-08)
(-6.96271e-09 -1.65209e-08 3.32633e-08)
(-2.69634e-12 1.42959e-12 3.8566e-12)
(-1.13255e-11 6.23605e-12 3.14121e-12)
(-1.07325e-12 7.36081e-13 4.29858e-12)
(-1.82863e-12 1.69246e-12 5.57034e-12)
(-1.1034e-08 -7.59651e-09 1.26699e-09)
(3.23942e-10 8.68076e-10 -6.20851e-09)
(-7.09483e-10 -1.07255e-09 -5.93184e-09)
(-3.02239e-11 -8.65676e-10 -4.69472e-09)
(-1.10263e-11 5.92367e-12 -4.82341e-12)
(-4.15893e-13 7.89088e-13 -2.45111e-12)
(-1.43038e-12 1.11146e-12 -5.70374e-12)
(-7.87281e-13 8.95564e-13 -3.23395e-12)
(-4.55677e-09 -1.6907e-09 -1.54354e-09)
(-6.00493e-09 -9.45431e-09 8.74721e-09)
(-2.54139e-09 -2.71444e-09 -3.50379e-10)
(-3.57983e-09 -2.8948e-09 2.25377e-09)
(-2.40452e-12 -1.49476e-12 -2.69736e-12)
(-8.47772e-12 -3.74084e-12 -2.64529e-12)
(5.23511e-13 -1.83092e-12 -3.36931e-12)
(3.99957e-13 -2.13096e-12 -2.40408e-12)
(-1.386e-09 1.30176e-09 5.53242e-10)
(-1.261e-10 2.79632e-10 6.75114e-11)
(-1.55106e-10 3.82917e-10 2.75147e-10)
(-1.70089e-10 2.47932e-10 6.3031e-10)
(-2.36474e-12 -4.37493e-13 1.47721e-12)
(-1.06805e-11 -5.56416e-12 1.62089e-12)
(-2.30965e-12 -2.13449e-12 1.49878e-12)
(-3.07436e-12 -1.99058e-12 3.24228e-12)
(-9.29297e-10 5.3918e-10 -6.37059e-10)
(-1.7537e-09 1.64766e-09 -3.80436e-10)
(-8.01845e-10 6.53857e-10 -7.91041e-10)
(-5.65254e-10 4.98367e-10 -6.50444e-10)
(-5.03232e-11 -1.85325e-11 6.58726e-12)
(-1.2632e-10 -1.25695e-10 1.0043e-10)
(-2.00193e-11 -5.53332e-11 6.03193e-12)
(-2.09426e-11 -3.24893e-11 3.20145e-11)
(-1.98239e-10 -1.10911e-10 1.84581e-11)
(-4.94982e-11 1.7034e-11 -5.4089e-11)
(-7.17468e-11 -3.11544e-11 -6.68664e-11)
(-4.97898e-11 -2.32194e-11 -4.92675e-11)
(-2.67172e-10 2.84833e-10 1.38678e-10)
(-3.4755e-11 1.73383e-11 1.39944e-11)
(-4.26003e-11 5.74473e-11 8.93589e-11)
(-5.14938e-11 5.00724e-11 1.28309e-10)
(-3.85324e-11 3.26742e-11 1.91243e-11)
(-3.91427e-12 8.27652e-12 4.0134e-12)
(2.68485e-12 3.97867e-12 2.70155e-12)
(1.6988e-12 -1.1611e-12 1.91854e-11)
(-1.11987e-10 -1.7024e-10 1.74756e-11)
(-6.51574e-10 -5.42549e-10 -3.00484e-10)
(-1.9618e-11 -2.12835e-11 -2.60712e-10)
(-2.06805e-12 -5.1645e-11 -3.14561e-11)
(-5.7963e-11 5.43033e-11 -1.89393e-11)
(-1.47365e-11 7.75008e-12 -2.16385e-11)
(-2.67747e-11 2.12976e-11 -3.5206e-11)
(-1.65126e-11 1.11339e-11 -2.42239e-11)
(-1.57653e-10 -1.45906e-10 4.38424e-10)
(-6.63659e-10 -6.87406e-10 1.9435e-10)
(-1.8865e-10 -1.89197e-10 4.25199e-10)
(-2.79018e-10 -3.47663e-10 5.15107e-10)
(-4.56348e-17 -6.58818e-17 -2.81154e-17)
(-8.74908e-18 -9.97243e-19 -8.95271e-18)
(-1.5709e-17 -1.51179e-17 -3.59329e-17)
(-1.31354e-17 -2.30248e-17 -2.08135e-17)
(-0.000220494 0.000174072 4.63507e-05)
(-5.13022e-05 7.6663e-05 1.20904e-05)
(-3.37189e-05 0.000112064 5.33807e-05)
(-3.07567e-05 9.51974e-05 7.05391e-05)
(-3.37284e-17 -2.27461e-17 3.0979e-17)
(-4.54694e-17 -7.15414e-17 2.65239e-17)
(-2.02733e-17 -2.7052e-17 2.47182e-17)
(-2.91929e-17 -2.83988e-17 3.73807e-17)
(-0.000173946 9.99042e-05 -7.01397e-05)
(-0.000352427 0.000241457 -6.83487e-05)
(-0.000152805 0.00011859 -0.00012283)
(-0.000116603 0.000110656 -9.7323e-05)
(-2.36259e-13 -7.71757e-14 -2.77334e-13)
(-4.58855e-13 -5.76107e-13 -3.05547e-13)
(-6.31416e-14 -1.34875e-13 -3.61399e-13)
(-5.85566e-14 -1.71276e-13 -2.62029e-13)
(-2.73101e-13 1.39535e-13 2.39929e-13)
(-5.90581e-13 -8.0386e-13 2.32604e-13)
(-2.12084e-13 -2.54387e-13 1.94968e-13)
(-2.76702e-13 -1.83036e-13 3.53722e-13)
(-7.66707e-09 5.35997e-09 -2.68168e-09)
(-1.1991e-08 1.2586e-08 -6.91147e-09)
(-6.18532e-09 6.24292e-09 -5.75897e-09)
(-4.65563e-09 5.81266e-09 -3.61281e-09)
(-1.02958e-08 1.00874e-08 5.19556e-10)
(-1.58245e-09 2.30456e-09 1.65016e-09)
(-1.36166e-09 4.11634e-09 2.25773e-09)
(-1.64063e-09 3.27149e-09 4.10456e-09)
(-1.56567e-16 -1.12422e-16 2.53837e-16)
(-2.00009e-16 -6.86594e-16 3.49574e-16)
(-1.14183e-16 -3.01997e-16 4.24973e-16)
(-1.4609e-16 -3.29355e-16 5.7266e-16)
(-4.21228e-06 3.49556e-06 1.10788e-06)
(-1.07547e-06 1.62603e-06 -1.60345e-07)
(-1.00769e-06 2.23058e-06 7.47072e-07)
(-1.00205e-06 1.86706e-06 1.25921e-06)
(-2.95372e-06 2.04352e-06 -1.69622e-06)
(-5.61963e-06 4.13254e-06 -4.84364e-07)
(-2.66437e-06 2.4365e-06 -1.91984e-06)
(-2.08859e-06 2.25176e-06 -1.69808e-06)
(-4.0368e-07 2.61055e-07 1.7406e-07)
(-6.49171e-07 6.09071e-07 2.59383e-07)
(-2.60568e-07 3.02092e-07 2.17233e-07)
(-3.22823e-07 2.8986e-07 2.82197e-07)
(-6.13678e-07 5.92406e-07 -5.84753e-08)
(-1.28921e-07 1.91643e-07 -9.37182e-08)
(-1.15338e-07 2.59648e-07 -2.42044e-07)
(-1.06439e-07 2.95048e-07 -1.55648e-07)
(-4.36123e-15 -5.81972e-15 2.54569e-15)
(-6.78767e-16 1.03476e-16 7.96752e-16)
(-1.07266e-15 -2.51447e-15 1.70416e-15)
(-1.20602e-15 -1.18721e-15 3.29994e-15)
(-2.75254e-15 -1.97705e-15 -3.08716e-15)
(-4.56324e-15 -5.70362e-15 -2.80517e-15)
(-2.25544e-15 -2.0041e-15 -3.48808e-15)
(-1.66019e-15 -2.23986e-15 -2.3094e-15)
(-1.97378e-16 -2.24828e-16 -1.14665e-16)
(-2.40706e-17 -8.75846e-18 -5.24387e-17)
(-5.57108e-17 -6.11083e-17 -1.59411e-16)
(-4.81693e-17 -9.31755e-17 -9.58874e-17)
(-1.33211e-16 -1.23211e-16 1.39019e-16)
(-2.17779e-16 -2.83384e-16 1.33898e-16)
(-8.39951e-17 -1.32823e-16 1.12183e-16)
(-1.19326e-16 -1.39545e-16 1.80312e-16)
(-1.65556e-05 1.20206e-05 5.25788e-06)
(-2.59836e-05 3.23486e-05 1.03638e-05)
(-7.78113e-06 1.92662e-05 4.20578e-06)
(-7.49361e-06 1.36607e-05 7.2843e-06)
(-4.63643e-05 3.46735e-05 -8.42019e-06)
(-2.07845e-05 1.06472e-05 -5.43945e-06)
(-1.9184e-05 1.77127e-05 -1.56522e-05)
(-1.48639e-05 1.69518e-05 -1.24836e-05)
(-6.64933e-08 6.64363e-08 -2.62062e-08)
(-2.43711e-08 2.08835e-08 -1.57584e-08)
(-1.11911e-08 2.095e-08 -2.97861e-08)
(-1.30099e-08 3.25612e-08 -1.60519e-08)
(-8.74105e-15 -1.10511e-14 -1.98243e-14)
(-2.79696e-14 -3.6625e-14 -2.78605e-14)
(1.14437e-15 -5.15947e-15 -2.16587e-14)
(7.87342e-16 -1.56866e-14 -1.23945e-14)
(-1.91532e-14 -1.30404e-15 1.36979e-14)
(-4.14053e-14 -5.06995e-14 8.84529e-15)
(-1.94584e-14 -2.26386e-14 1.49401e-14)
(-2.91416e-14 -2.47086e-14 3.07281e-14)
(-7.23398e-08 7.45745e-08 1.4267e-08)
(-3.53905e-08 1.88948e-08 1.39579e-08)
(-3.07152e-08 3.41181e-08 2.29099e-08)
(-3.81434e-08 3.79828e-08 2.85e-08)
(-1.31475e-16 4.78107e-17 1.53581e-17)
(-4.51075e-16 -7.8114e-17 4.43501e-17)
(-1.14964e-16 3.18832e-17 6.40481e-17)
(-0.00330223 -0.000396975 -0.00130572)
(-0.00250015 -0.000392729 -0.00101637)
(-0.00271433 -0.000715372 -0.00186919)
(-0.00239728 -7.66595e-05 0.00103266)
(-0.00174835 -3.56585e-05 0.00052567)
(-0.00169468 -0.000174059 0.00134998)
(-1.58372e-14 -3.32265e-15 -3.10015e-16)
(-3.28263e-14 5.27206e-15 1.6946e-14)
(-1.50525e-14 -2.95347e-15 7.56362e-15)
(-3.71971e-16 9.09121e-17 -1.31718e-16)
(-1.44673e-16 5.95138e-17 -4.10886e-17)
(-1.96276e-16 5.49042e-17 -1.36557e-16)
(-2.77967e-10 2.12964e-11 -1.22416e-10)
(-1.0755e-10 1.25734e-11 -5.57236e-11)
(-1.48286e-10 -6.83754e-13 -1.20488e-10)
(-6.6251e-06 -1.0975e-06 1.87797e-06)
(-2.46954e-06 -3.05486e-07 2.01725e-06)
(-3.24669e-06 -6.50291e-07 2.8253e-06)
(-0.000555381 -7.18765e-05 0.00020965)
(-0.000320856 -1.92993e-05 0.000123625)
(-0.000350159 -4.02074e-05 0.000246645)
(-2.33544e-11 6.81993e-12 5.82132e-12)
(-1.202e-11 2.56031e-12 3.06618e-12)
(-1.17777e-11 2.9635e-12 6.33464e-12)
(-1.94306e-13 6.90183e-14 4.56932e-14)
(-7.31657e-14 -2.06746e-15 3.55257e-14)
(-1.05474e-13 2.03758e-14 4.18199e-14)
(-1.7037e-15 2.56953e-16 5.85195e-16)
(-8.41096e-16 2.24641e-17 3.92233e-16)
(-1.0372e-15 9.02418e-17 7.1603e-16)
(-6.93421e-08 7.98122e-09 -1.08514e-08)
(-3.85071e-08 4.64055e-09 -8.7715e-09)
(-4.03959e-08 1.93925e-09 -2.10879e-08)
(-3.78295e-08 3.52982e-09 -2.30732e-08)
(-4.63657e-08 2.84974e-10 1.26311e-08)
(-6.26044e-08 4.56638e-09 1.2262e-09)
(-4.40494e-08 1.536e-09 7.11941e-09)
(-4.10654e-08 1.83734e-09 1.05781e-08)
(-4.85804e-10 -1.14061e-10 -1.73789e-11)
(-4.51657e-10 -8.99937e-11 -9.75251e-11)
(-5.3229e-10 -1.26733e-10 -1.01165e-10)
(-5.13603e-10 -1.18263e-10 -1.05898e-10)
(-1.41787e-16 -3.3902e-17 2.59729e-17)
(-9.78738e-17 -2.62757e-17 4.73115e-17)
(-1.15323e-16 -4.06746e-17 5.18604e-17)
(-1.12093e-16 -3.98926e-17 5.01242e-17)
(-1.97404e-16 5.54762e-18 6.97464e-18)
(-1.83903e-16 -2.4149e-17 6.45818e-17)
(-2.08168e-16 -3.30038e-17 6.25469e-17)
(-1.80515e-16 -5.24864e-18 5.29205e-17)
(-0.000692081 9.06123e-06 -7.13609e-05)
(-0.000708231 -2.15299e-05 -0.000228844)
(-0.000902133 -2.22966e-05 -0.00024702)
(-0.000652125 -1.95306e-06 -0.000216735)
(-1.11334e-07 -2.76442e-08 -1.95808e-09)
(-1.18455e-07 -3.53207e-08 3.08403e-08)
(-8.84546e-08 -3.85868e-08 2.39822e-08)
(-7.40445e-08 -3.38768e-08 2.02233e-08)
(-4.30586e-17 -6.91127e-18 -4.27403e-18)
(-4.88605e-17 -4.16027e-18 -1.27764e-17)
(-4.2119e-17 -2.94684e-18 -8.41458e-18)
(-3.67165e-17 -3.02247e-18 -1.40663e-17)
(-7.45485e-08 5.46554e-09 1.84482e-08)
(-4.43234e-08 5.00308e-09 1.81625e-08)
(-4.15026e-08 2.80963e-09 2.13513e-08)
(-1.77705e-09 1.72227e-10 -5.28104e-11)
(-1.65721e-09 1.1748e-10 -2.9994e-10)
(-1.83188e-09 1.75743e-10 -2.75688e-10)
(-1.72947e-09 1.57827e-10 -3.59568e-10)
(-8.7167e-12 -3.55914e-12 -2.07111e-12)
(-7.77381e-12 -4.09201e-12 -3.52488e-12)
(-7.27691e-12 -3.83345e-12 -3.70668e-12)
(-6.79139e-12 -3.35808e-12 -3.01396e-12)
(-0.00097296 -5.2281e-05 -3.08659e-05)
(-0.000960322 -0.000114075 -0.000125167)
(-0.000830443 -0.000103223 -6.88941e-05)
(-0.000845631 -9.1646e-05 -0.000101804)
(-8.87043e-12 -2.85837e-12 -2.02031e-15)
(-1.11142e-11 -3.87295e-12 -1.05075e-12)
(-1.09404e-11 -3.67078e-12 -1.46278e-12)
(-5.02474e-09 -7.23787e-10 -9.31244e-10)
(-4.75485e-09 -7.25475e-10 -1.31604e-09)
(-5.65966e-09 -7.93193e-10 -1.40775e-09)
(-6.32193e-09 -7.59709e-10 -1.56717e-09)
(-0.00117144 -2.78037e-05 9.65491e-05)
(-0.00109353 9.38958e-06 1.05893e-05)
(-0.000971717 -6.94041e-06 5.36116e-05)
(-1.85603e-09 2.43209e-10 1.48584e-10)
(-1.77669e-09 1.97733e-10 2.06881e-10)
(-1.74376e-09 2.39667e-10 2.03747e-10)
(-1.53604e-07 -1.92082e-08 -4.20215e-08)
(-1.15525e-07 -1.63936e-08 -2.63276e-08)
(-9.79783e-08 -1.34789e-08 -1.72098e-08)
(-1.82886e-16 2.47369e-17 -4.71336e-17)
(-2.19139e-16 3.44369e-17 -4.30776e-17)
(-2.09436e-16 3.06147e-17 -4.15218e-17)
(-4.12895e-10 -1.0832e-10 7.89917e-11)
(-5.00536e-10 -1.43291e-10 6.96965e-11)
(-4.9276e-10 -1.27556e-10 6.4926e-11)
(-0.000558317 3.85656e-05 8.03343e-05)
(-0.000677021 5.38685e-05 6.32625e-05)
(-0.000740397 2.31609e-05 0.000105586)
(-4.64882e-17 -1.03051e-17 6.87012e-18)
(-4.15439e-17 -8.75938e-18 3.23986e-19)
(-3.72299e-17 -9.33367e-18 6.2753e-18)
(-1.57098e-16 -2.89361e-17 -1.09085e-17)
(-1.88699e-16 -4.26163e-17 -2.16673e-18)
(-1.79739e-16 -2.94851e-17 -1.2979e-18)
(-1.98475e-09 2.41397e-10 -6.53945e-11)
(-2.1033e-09 2.42053e-10 -3.13393e-10)
(-1.71993e-09 1.77338e-10 -4.31245e-10)
(-1.96723e-09 2.10817e-10 -5.00703e-10)
(-2.0139e-09 2.93071e-10 1.53956e-10)
(-1.76703e-09 2.38493e-10 3.11608e-10)
(-1.94493e-09 2.95916e-10 3.40057e-10)
(-1.18063e-11 -6.87544e-12 -4.66382e-12)
(-7.71963e-12 -5.64095e-12 -3.40087e-12)
(-7.32193e-12 -5.42549e-12 -3.73057e-12)
(-7.41427e-12 -6.92122e-12 -3.14481e-12)
(-1.54175e-11 -6.32729e-12 -3.84455e-12)
(-1.33646e-11 -6.06284e-12 -4.43823e-12)
(-1.53879e-11 -8.646e-12 -5.8369e-12)
(-0.000860413 -4.20642e-05 -2.56773e-05)
(-0.0010343 -1.12962e-05 -6.38518e-05)
(-0.00075558 4.62055e-05 0.000116147)
(-0.000854149 1.84785e-05 1.80945e-05)
(-0.000770655 -9.62283e-05 1.55259e-05)
(-0.000727944 -7.55715e-05 -0.000151337)
(-0.000727591 -7.26693e-05 -4.68685e-05)
(-3.75334e-09 -6.48022e-10 2.72127e-10)
(-2.89225e-09 -2.48e-10 1.38443e-09)
(-3.41124e-09 -4.2235e-10 8.97802e-10)
(-4.41935e-09 -4.14926e-10 7.06066e-10)
(-4.43589e-09 -9.48203e-10 -3.10606e-11)
(-3.31165e-09 -7.30073e-10 -9.07533e-10)
(-3.67182e-09 -8.17404e-10 -3.88225e-10)
(-2.90389e-17 -5.02528e-18 -5.97269e-18)
(-3.29311e-17 -2.28436e-18 -5.57835e-18)
(-2.35297e-17 -1.16707e-18 -1.57333e-17)
(-2.66606e-17 -1.92087e-18 -1.02066e-17)
(-3.52145e-17 -7.5384e-18 -4.62944e-18)
(-2.63232e-17 -7.78892e-18 5.27748e-18)
(-2.95572e-17 -8.10912e-18 -6.29137e-19)
(-2.24246e-16 3.70346e-17 1.18694e-19)
(-2.5704e-16 5.80096e-17 -2.89232e-17)
(-2.24345e-16 4.93079e-17 -2.63862e-17)
(-2.42343e-16 6.53742e-17 -3.22882e-17)
(-2.35547e-16 -2.36713e-17 3.97215e-17)
(-1.66623e-16 1.20616e-17 2.62892e-17)
(-1.95928e-16 8.64864e-18 2.84002e-18)
(-1.92435e-16 -5.62438e-17 2.82344e-17)
(-2.50943e-16 -5.32721e-17 1.25551e-17)
(-2.14872e-16 -4.23622e-17 5.09981e-18)
(-2.43187e-16 -5.52149e-17 -4.56235e-18)
(-1.31945e-16 -5.49118e-17 5.05173e-17)
(-1.18549e-16 -5.56732e-17 4.28975e-17)
(-1.30418e-16 -5.58087e-17 3.67982e-17)
(-5.0822e-08 -1.95211e-08 3.28504e-09)
(-6.07057e-08 -3.19496e-08 1.06304e-08)
(-2.54753e-08 -2.64598e-08 2.36557e-08)
(-3.91346e-08 -2.32315e-08 1.14081e-08)
(-7.26849e-08 -1.97778e-08 -8.03069e-09)
(-4.23763e-08 -5.32506e-09 -1.27975e-08)
(-5.21377e-08 -1.04143e-08 -6.85689e-09)
(-6.63108e-10 -2.04489e-10 -5.0719e-11)
(-6.5535e-10 -2.17557e-10 -1.08556e-10)
(-5.84602e-10 -2.28665e-10 -1.24994e-10)
(-6.51157e-10 -3.21832e-10 -1.46156e-10)
(-6.2297e-10 -1.61376e-10 5.04356e-11)
(-5.74014e-10 -1.28676e-10 3.44e-11)
(-6.1849e-10 -1.43332e-10 6.16074e-11)
(-8.61882e-08 9.10765e-09 -2.77236e-09)
(-8.56361e-08 8.74552e-09 -1.13588e-08)
(-2.6362e-17 -7.02309e-19 9.50343e-18)
(-1.59806e-17 4.70156e-19 2.98687e-18)
(-6.17385e-17 1.84754e-17 1.33093e-17)
(-2.36775e-17 3.48241e-18 1.11157e-17)
(-1.49368e-17 1.40881e-17 -6.59744e-18)
(-8.7399e-18 4.34025e-18 1.48278e-18)
(-5.74647e-17 2.5435e-17 3.17484e-18)
(-1.60397e-17 1.02362e-17 -5.98934e-18)
(-0.00289864 4.86248e-05 -0.00154944)
(-0.00382328 0.00056545 -0.00112769)
(-0.00330398 -0.000266974 -0.000306638)
(-0.00236429 0.00105206 -0.00165808)
(-2.08174e-17 -8.06369e-18 -1.96582e-17)
(-1.10835e-17 -2.57186e-18 -1.2169e-17)
(-5.75247e-17 3.77739e-18 -6.8666e-18)
(-1.76646e-17 -4.93872e-18 -2.10948e-17)
(-0.00339941 0.000265708 0.0012373)
(-0.00384967 -7.87154e-05 0.000786709)
(-0.00333501 1.11278e-05 0.000772943)
(-0.00318504 -0.000681827 0.00151638)
(-1.9749e-17 3.19827e-18 6.10125e-18)
(-1.20537e-17 3.18673e-18 -1.87163e-18)
(-5.34068e-17 8.85378e-18 1.17327e-17)
(-1.79935e-17 3.57914e-18 9.77333e-18)
(-2.08034e-17 1.04998e-17 -1.39674e-17)
(-1.27367e-17 1.85212e-18 -4.15863e-18)
(-4.49364e-17 1.2629e-17 -5.75692e-18)
(-1.84061e-17 5.89336e-18 -1.23525e-17)
(-1.63436e-17 -2.9959e-18 4.71061e-18)
(-1.15034e-17 -1.36989e-19 1.31608e-18)
(-4.01976e-17 7.1053e-18 1.75638e-18)
(-1.59521e-17 -5.99935e-19 6.49764e-18)
(-0.00207128 0.000339366 -0.00126458)
(-0.00368469 0.00062182 -0.000901433)
(-0.00235161 -9.02017e-05 -0.000346213)
(-0.0018841 0.00121834 -0.00152154)
(-0.00257057 -9.06965e-05 0.00106932)
(-0.00374611 -0.000171284 0.000878972)
(-0.00246389 -1.01715e-06 0.000710781)
(-0.0023862 -0.000707229 0.00145674)
(-0.00356378 -0.000572058 0.00184649)
(-0.00343999 0.000150196 0.00129506)
(-0.00357187 -0.00051277 0.000462927)
(-0.00247172 0.00043376 0.00192945)
(-0.0037893 -0.000194428 -0.00164929)
(-0.00400913 -0.000227082 -0.000984779)
(-0.00358127 -0.000309005 -0.00111919)
(-0.00400412 -0.00109947 -0.00194507)
(-0.00281677 -0.000918335 0.000886709)
(-0.00265623 -0.000800011 2.50784e-05)
(-0.00313509 -0.000498371 0.000292926)
(-0.00206595 -0.000234693 0.00103151)
(-0.00273973 7.54099e-05 -0.0012753)
(-0.00251847 -0.00020553 -0.000881883)
(-0.00307852 5.45523e-06 -0.000833123)
(-0.00241692 -0.000498554 -0.00144185)
(-1.14293e-15 -7.39711e-17 -7.45127e-16)
(-1.51379e-15 -4.61025e-17 -3.98611e-16)
(-6.77514e-16 -7.50035e-17 -1.84913e-16)
(-8.09793e-16 -1.1216e-16 -5.49732e-16)
(-4.11259e-16 -2.07487e-16 3.32641e-16)
(-1.20697e-15 -4.8404e-17 1.54479e-16)
(-4.12166e-16 -6.28626e-17 2.11258e-16)
(-4.17708e-16 -1.12803e-16 3.11954e-16)
(-0.00283895 -1.02429e-05 0.00103539)
(-0.00367604 -0.000383317 0.000582693)
(-0.00287661 -0.000293129 0.000372)
(-0.00224719 0.000177115 0.00113653)
(-1.06132e-15 -9.19417e-18 -5.22261e-16)
(-2.82117e-15 -1.28034e-17 -3.65171e-16)
(-6.93697e-16 1.42951e-16 5.71952e-17)
(-9.85378e-16 6.88007e-17 -5.43239e-16)
(-9.30353e-16 4.65142e-16 1.05028e-15)
(-2.68144e-15 1.18472e-16 4.2534e-16)
(-6.20493e-16 2.46053e-16 7.06054e-16)
(-8.30086e-16 2.66481e-16 9.09978e-16)
(-3.72103e-16 -2.53475e-16 -1.41847e-18)
(-2.2775e-16 -1.30695e-16 6.45438e-18)
(-4.21796e-16 -2.91599e-16 -9.73993e-17)
(-2.52708e-16 -2.00207e-16 -5.76373e-17)
(-0.00216089 -0.000235463 -0.000709746)
(-0.00300449 -0.000545566 -0.000409587)
(-0.00208692 -0.000354253 -0.000322365)
(-0.00188645 9.88874e-05 -0.000891858)
(-0.00106869 0.000176145 -2.96652e-05)
(-0.000753487 4.82121e-05 6.28026e-05)
(-0.00144821 1.38998e-05 0.000151062)
(-0.000640751 7.7029e-05 0.000219756)
(-0.000503001 -5.34282e-05 -0.000159976)
(-0.000343048 -1.23129e-05 -0.000126274)
(-0.000665387 -5.4723e-05 -0.000232679)
(-0.000366441 -3.66367e-05 -0.00018115)
(-3.22904e-12 -3.81567e-13 -1.21571e-12)
(-3.9611e-12 -7.09792e-13 -7.93972e-13)
(-2.1864e-12 -3.28643e-13 -3.45169e-13)
(-2.31248e-12 -4.35448e-13 -1.10473e-12)
(-0.000134561 -1.20466e-05 -5.18763e-05)
(-0.000101822 -1.11719e-05 -1.84508e-05)
(-0.000166763 -1.70282e-05 -3.46403e-05)
(-9.6862e-05 -9.90041e-06 -5.08808e-05)
(-0.00146699 -0.000435562 0.000379781)
(-0.00191071 -0.000513832 0.000219044)
(-0.00144076 -0.000433247 0.000110236)
(-0.00107951 -0.000244702 0.000503993)
(-1.47195e-14 2.95226e-15 -8.059e-15)
(-1.97807e-14 6.01823e-15 -1.23763e-14)
(-3.06284e-14 7.14834e-15 5.11316e-15)
(-1.65269e-14 4.92182e-15 -1.21423e-14)
(-1.25873e-14 -4.53702e-15 -1.20301e-15)
(-1.92528e-14 -9.17695e-15 3.93587e-15)
(-5.15594e-15 -1.72883e-15 -3.75429e-16)
(-8.52304e-15 -4.50206e-15 1.9311e-15)
(-5.86744e-13 3.59045e-14 2.71526e-13)
(-6.1531e-13 -1.30836e-13 2.07761e-13)
(-3.61424e-13 -3.57412e-14 6.5269e-14)
(-3.71454e-13 -3.93929e-14 1.94669e-13)
(-8.86982e-13 1.82718e-13 -4.27726e-14)
(-3.09103e-13 5.50096e-14 -5.75525e-14)
(-3.85219e-13 1.09591e-13 -9.74722e-14)
(-3.39713e-13 7.12858e-14 -1.50881e-13)
(-0.000919369 2.61482e-05 -0.000272401)
(-0.000791782 -3.93728e-05 -0.000125928)
(-0.00125445 -0.000121557 -5.16622e-05)
(-0.000736501 -6.15724e-05 -0.00032267)
(-2.25848e-13 -3.11681e-14 7.76763e-15)
(-2.546e-13 -1.01007e-14 2.84417e-14)
(-1.33677e-13 -3.88746e-14 1.99557e-14)
(-1.52595e-13 -3.11811e-14 3.33253e-14)
(-1.53924e-12 -6.38885e-15 7.14475e-13)
(-3.23711e-12 -3.82941e-13 2.3115e-13)
(-1.41693e-12 -5.32612e-15 4.45649e-13)
(-1.33358e-12 -3.13213e-14 8.03162e-13)
(-0.000367237 -2.64459e-05 -8.98701e-05)
(-0.000284948 -3.91422e-06 -6.25541e-05)
(-0.00060889 -7.50734e-05 -0.000164409)
(-0.000284778 -1.86989e-05 -0.000148365)
(-2.15565e-13 5.22737e-15 3.26608e-15)
(-1.65006e-13 1.13259e-14 4.56186e-14)
(-4.03554e-13 -2.12513e-14 1.62523e-14)
(-1.41722e-13 8.48069e-15 4.37855e-14)
(-1.67822e-13 -1.33109e-14 -9.32934e-14)
(-4.89486e-13 -1.16941e-13 4.49876e-14)
(-1.87439e-13 -2.72771e-14 -8.05798e-14)
(-1.84934e-13 -3.26587e-14 -1.06925e-13)
(-3.2557e-05 -7.46518e-06 1.83856e-05)
(-7.29562e-05 -1.87374e-05 1.1458e-05)
(-3.47612e-05 -8.89299e-06 9.76642e-06)
(-2.83004e-05 -6.11218e-06 2.1526e-05)
(-2.11398e-05 -4.42264e-07 4.61905e-06)
(-2.72489e-05 -1.97911e-06 9.69303e-06)
(-9.62253e-06 1.86904e-06 -1.15073e-06)
(-1.03955e-05 1.04344e-06 6.71067e-06)
(-2.53837e-05 -2.40104e-06 -1.28446e-05)
(-1.696e-05 -2.10684e-06 -5.0099e-06)
(-3.18301e-05 -1.51533e-06 -6.17674e-06)
(-1.79524e-05 -1.38492e-06 -1.02893e-05)
(-1.05655e-11 -2.4574e-13 -3.19143e-12)
(-1.25956e-11 1.45426e-13 -4.60289e-12)
(-5.80102e-12 -1.04882e-12 -1.81947e-12)
(-7.62016e-12 -7.04544e-13 -4.12598e-12)
(-9.47439e-12 6.82236e-13 3.45498e-12)
(-1.12291e-11 -6.44705e-13 2.50052e-12)
(-6.6257e-12 1.46709e-13 1.07641e-12)
(-6.64311e-12 -2.67e-14 3.03356e-12)
(-7.27321e-06 -1.76981e-06 -3.55622e-06)
(-1.16411e-05 -1.68257e-06 -2.98628e-06)
(-5.88134e-06 -1.00475e-06 -1.52873e-06)
(-5.06264e-06 -7.81278e-07 -3.35867e-06)
(-3.84564e-12 -1.0056e-14 5.90019e-13)
(-4.05084e-12 -5.74239e-13 7.99614e-13)
(-2.50077e-12 -2.65834e-13 1.66262e-13)
(-2.63188e-12 -2.64762e-13 7.25681e-13)
(-0.000782563 -0.000109489 0.000334174)
(-0.000753984 -0.000147506 0.000134247)
(-0.00118009 -0.000198177 0.000258994)
(-0.000626235 -7.86033e-05 0.000354988)
(-0.00014352 -3.44912e-05 -7.62578e-05)
(-0.0002152 -3.00273e-05 -9.58238e-05)
(-0.000136021 -4.3138e-05 -2.92256e-05)
(-0.000107079 -2.95564e-05 -8.25573e-05)
(-0.000339234 -6.28031e-05 -0.000203529)
(-0.00057698 -0.000126684 -0.000103271)
(-0.000347952 -6.98637e-05 -0.000106846)
(-0.000291033 -4.42557e-05 -0.000219058)
(-2.08186e-13 8.35238e-15 -1.52969e-14)
(-7.91955e-14 -1.83371e-14 -1.13689e-14)
(-7.51903e-14 -7.06869e-15 -3.29184e-14)
(-7.66641e-14 -7.08132e-15 -4.5408e-14)
(-2.47031e-15 -4.18927e-16 -8.00688e-16)
(-6.59204e-15 -4.93498e-16 3.09667e-16)
(-2.38895e-15 -8.62976e-17 -7.4893e-16)
(-2.26607e-15 -2.51783e-16 -1.11782e-15)
(-1.29754e-08 -1.5965e-09 -8.14283e-09)
(-9.46801e-09 -5.61325e-10 -4.03155e-09)
(-2.2576e-08 -2.39514e-09 -2.83397e-09)
(-1.01173e-08 -7.12791e-10 -7.01017e-09)
(-1.14255e-08 -1.33531e-09 3.47216e-09)
(-9.12487e-09 -1.65733e-09 1.04336e-09)
(-2.05038e-08 -2.92115e-09 3.48079e-09)
(-9.23454e-09 -1.40376e-09 4.45799e-09)
(-5.29047e-12 1.00682e-13 -2.72171e-12)
(-1.01783e-11 -5.42468e-13 -7.15451e-13)
(-4.84955e-12 2.83596e-13 -1.46038e-12)
(-4.75326e-12 5.50387e-14 -2.75439e-12)
(-1.283e-05 -3.12312e-06 5.94328e-06)
(-1.20692e-05 -3.92702e-06 3.04868e-06)
(-2.63103e-05 -3.21555e-06 2.96271e-06)
(-1.13161e-05 -2.54316e-06 6.53049e-06)
(-9.40339e-13 -1.56938e-13 -4.59473e-13)
(-3.01709e-12 -4.73507e-13 2.4946e-13)
(-1.16269e-12 -1.98201e-13 -2.52997e-13)
(-1.03936e-12 -2.028e-13 -5.45178e-13)
(-1.16981e-08 -3.07383e-09 8.14918e-10)
(-4.13119e-09 7.52103e-11 -2.56325e-09)
(-1.42742e-08 -4.82327e-09 7.6926e-09)
(-5.12233e-09 -1.17033e-09 1.52975e-09)
(-7.46325e-09 -9.85651e-11 2.33341e-09)
(-3.2792e-09 1.113e-09 -2.2125e-09)
(-1.28143e-08 -2.86415e-09 7.51853e-09)
(-4.03454e-09 -7.2238e-11 3.18304e-09)
(-1.64445e-10 -2.87705e-11 3.85336e-11)
(-1.69418e-10 -3.13023e-11 8.09147e-11)
(-1.68397e-10 -3.25561e-11 1.07688e-10)
(-1.0124e-09 -1.1367e-10 -3.82854e-10)
(-6.18662e-10 -1.9351e-10 -2.59371e-10)
(-1.42936e-09 -3.20464e-11 -4.70725e-10)
(-7.42469e-10 -1.08079e-10 -4.75966e-10)
(-4.38634e-10 -1.42105e-10 -1.39968e-10)
(-1.33997e-09 2.92033e-11 -3.8082e-10)
(-6.58779e-10 -3.25365e-11 -2.2608e-10)
(-5.20086e-10 -1.64368e-11 -3.07355e-10)
(-2.26565e-10 -2.65812e-11 -3.6694e-11)
(-2.95774e-10 -1.99869e-11 -6.54811e-11)
(-2.5326e-10 -2.89808e-11 -9.24926e-11)
(-4.23057e-09 -6.26466e-09 -3.32036e-09)
(-2.36216e-08 -1.22165e-08 6.17137e-10)