/*--------------------------------*- C++ -*----------------------------------*\
  =========                 |
  \\      /  F ield         | OpenFOAM: The Open Source CFD Toolbox
   \\    /   O peration     | Website:  https://openfoam.org
    \\  /    A nd           | Version:  6
     \\/     M anipulation  |
\*---------------------------------------------------------------------------*/
FoamFile
{
    version     2.0;
    format      ascii;
    class       surfaceScalarField;
    location    "2.6";
    object      meshPhi;
}
// * * * * * * * * * * * * * * * * * * * * * * * * * * * * * * * * * * * * * //

dimensions      [0 3 -1 0 0 0 0];

internalField   nonuniform List<scalar> 
8193
(
0.00379851
-0.00136007
-0.00131936
0.00624417
-0.00252042
0.0085496
-0.00350122
0.0106143
-0.00428719
0.0123514
-0.00487443
0.0136934
-0.00526873
0.014596
-0.0054835
0.0150393
-0.0055375
0.0150281
-0.00545263
0.0145891
-0.0052519
0.0137681
-0.00495778
0.0126257
-0.0045909
0.0112324
-0.00416926
0.00966438
-0.00370773
0.00799862
-0.00321795
0.00630923
-0.00270848
0.004664
-0.00218513
0.00312174
-0.00165144
0.00173027
-0.00110913
0.000525134
-0.000558727
-0.000471137
-5.01134e-18
-0.00124921
0.000567461
-0.00181256
0.00114377
-0.00217665
0.00172822
-0.00236753
0.0023188
-0.00241992
0.00291167
-0.00237485
0.00350065
-0.00227662
0.00407673
-0.00216936
0.00462769
-0.0020932
0.00513781
-0.00208014
0.0055878
-0.00214999
0.00595505
-0.0023067
0.00621419
-0.00253529
0.00633808
-0.00280008
0.00629925
-0.00304434
0.00607173
-0.00319198
0.00563329
-0.00315128
0.00496778
-0.0028209
0.00406764
-0.00209786
0.00293611
0.00158904
-0.00088723
0.0147901
-0.00460199
-0.00712471
0.0221089
-0.00688197
0.0287938
-0.00865991
0.0345904
-0.00992184
0.0392925
-0.0106854
0.0427533
-0.0109937
0.044891
-0.0109082
0.04569
-0.0105014
0.0451973
-0.0098499
0.0435151
-0.00902824
0.0407912
-0.00810411
0.0372072
-0.00713502
0.0329663
-0.00616625
0.0282816
-0.00523011
0.0233648
-0.00434623
0.0184168
-0.00352269
0.0136193
-0.00275755
0.00912912
-0.00204078
0.00507309
-0.00135622
0.0015455
-0.000683519
-0.00139353
9.78003e-18
-0.0037182
0.00071759
-0.00543597
0.00149137
-0.00658544
0.00234065
-0.00723291
0.00328018
-0.0074678
0.00431835
-0.00739681
0.00545531
-0.00713676
0.00668116
-0.00680611
0.00797416
-0.00651558
0.00929944
-0.00635792
0.0106082
-0.0063976
0.0118377
-0.00666105
0.0129125
-0.00712834
0.0137471
-0.00772735
0.0142498
-0.00833127
0.0143281
-0.0087606
0.0138954
-0.00879
0.012879
-0.00816052
0.0112277
-0.00659703
0.00891946
0.00596852
-0.0038301
0.0323308
-0.00979758
-0.0196996
0.0439765
-0.0128577
0.0542463
-0.015011
0.0628164
-0.0162721
0.0694466
-0.0167081
0.073989
-0.0164268
0.0763915
-0.0155631
0.0766947
-0.014265
0.0750234
-0.012682
0.0715741
-0.0109536
0.0666002
-0.00920151
0.0603947
-0.00752429
0.0532734
-0.00599434
0.0455589
-0.00465735
0.0375659
-0.00353362
0.0295886
-0.00262072
0.0218906
-0.00189688
0.0146975
-0.00132498
0.00819086
-0.000856404
0.00250567
-0.00043488
-0.00227173
0
-0.00610327
0.000509464
-0.00899757
0.0011524
-0.0110068
0.0019822
-0.0122225
0.00304351
-0.012769
0.00436876
-0.0127967
0.00597456
-0.0124719
0.00785796
-0.0119666
0.00999289
-0.0114456
0.0123272
-0.0110534
0.0147804
-0.0108999
0.0172434
-0.011047
0.0195799
-0.0114967
0.0216301
-0.012181
0.0232174
-0.0129572
0.0241579
-0.0136069
0.0242724
-0.0138422
0.0234001
-0.0133177
0.0214136
-0.0116497
0.0182335
0.0138418
-0.00844175
0.0564483
-0.0165549
-0.0396076
0.0714443
-0.0198427
0.0841886
-0.0218107
0.0943713
-0.0225271
0.101792
-0.0221301
0.106363
-0.0208092
0.10811
-0.018785
0.107161
-0.0162901
0.103735
-0.0135508
0.0981259
-0.0107726
0.090684
-0.00812941
0.0817953
-0.00575636
0.0718628
-0.0037466
0.0612889
-0.00215145
0.0504595
-0.000983079
0.0397307
-0.000219128
0.0294188
0.000191661
0.0197922
0.000323309
0.0110663
0.000266528
0.00340076
0.000122981
-0.00310153
-3.44659e-22
-0.00839399
5.71456e-06
-0.012484
0.000244418
-0.0154296
0.000811961
-0.0173341
0.00179095
-0.0183402
0.0032456
-0.0186213
0.00521623
-0.0183721
0.00771353
-0.0177968
0.010713
-0.0170957
0.0141498
-0.0164509
0.0179155
-0.0160106
0.0218561
-0.0158744
0.0257733
-0.0160787
0.0294298
-0.0165854
0.0325579
-0.0172736
0.0348722
-0.0179368
0.0360869
-0.0182854
0.0359353
-0.0179563
0.0341917
-0.0165292
0.0306933
0.0253607
-0.0135494
0.0865598
-0.0240737
-0.0667318
0.1036
-0.0269425
0.117506
-0.0281379
0.128049
-0.0277982
0.135121
-0.0261427
0.138737
-0.023447
0.139022
-0.020018
0.136205
-0.0161686
0.130599
-0.012196
0.122585
-0.00836365
0.112593
-0.00488829
0.101075
-0.00193195
0.0884962
0.00040099
0.0753075
0.00206276
0.0619365
0.00305777
0.0487732
0.00343597
0.0361605
0.00328497
0.0243876
0.00272168
0.0136859
0.00188418
0.00422665
0.000924152
-0.00387906
1.04511e-14
-0.0105793
-0.000729455
-0.0158786
-0.0011109
-0.0198343
-0.00100243
-0.0225511
-0.000279741
-0.0241754
0.00115715
-0.0248866
0.00337667
-0.0248885
0.00640803
-0.0243977
0.0102336
-0.0236307
0.0147819
-0.0227905
0.0199223
-0.0220511
0.0254624
-0.021543
0.0311484
-0.0213386
0.036671
-0.0214401
0.0416752
-0.0217702
0.0457769
-0.0221671
0.048583
-0.0223841
0.049717
-0.0220956
0.0488463
-0.0209092
0.0457105
0.0401483
-0.0183829
0.121463
-0.031272
-0.100194
0.139057
-0.0331056
0.152748
-0.0330207
0.162428
-0.0312299
0.168113
-0.0280317
0.169932
-0.0237814
0.168118
-0.0188617
0.162993
-0.0136538
0.154952
-0.00851212
0.144444
-0.00374432
0.13195
0.000403073
0.117969
0.00375292
0.102992
0.00620005
0.0874964
0.00770889
0.0719227
0.00830741
0.0566704
0.00807845
0.0420877
0.00714981
0.0284667
0.00568381
0.01604
0.0038674
0.00498003
0.00190295
-0.00460075
9.89964e-15
-0.0126478
-0.00163217
-0.0191615
-0.00279156
-0.0241938
-0.00329043
-0.0278427
-0.00296263
-0.0302465
-0.00167159
-0.0315771
0.000680882
-0.0320309
0.00414524
-0.0318193
0.00871478
-0.0311573
0.0143169
-0.0302513
0.0208059
-0.0292858
0.0279595
-0.0284098
0.0354784
-0.0277241
0.0429921
-0.0272702
0.0500702
-0.0270205
0.0562407
-0.0268732
0.0610135
-0.0266498
0.0639097
-0.0260984
0.0644938
-0.0249011
0.0624069
0.0573987
-0.022686
0.159404
-0.0369595
-0.138373
0.176051
-0.0372804
0.188229
-0.0355692
0.195969
-0.0321063
0.199413
-0.0272577
0.1988
-0.021444
0.194456
-0.015107
0.186781
-0.00867844
0.176227
-0.00255318
0.163286
0.00293278
0.148467
0.00751712
0.132282
0.0110195
0.11523
0.0133432
0.0977838
0.0144719
0.0803777
0.014462
0.0634003
0.0134319
0.0471879
0.0115505
0.0320212
0.0090251
0.0181229
0.00608996
0.00565841
0.00299568
-0.00526342
1.10291e-20
-0.0145877
-0.00264062
-0.0223103
-0.00467881
-0.0284743
-0.00588404
-0.0331648
-0.00605087
-0.0365043
-0.00500799
-0.0386459
-0.00262818
-0.0397662
0.0011609
-0.0400571
0.00636583
-0.0397166
0.0129171
-0.0389384
0.0206607
-0.0379013
0.0293532
-0.036758
0.038661
-0.0356247
0.0481659
-0.034572
0.0573773
-0.0336167
0.0657517
-0.0327167
0.0727185
-0.0317692
0.0777124
-0.0306108
0.0802084
-0.0290228
0.0797594
0.0760315
-0.0267384
0.198208
-0.0400304
-0.179018
0.212565
-0.0385724
0.222148
-0.0350977
0.227116
-0.0299399
0.227718
-0.0235163
0.224284
-0.0162933
0.217211
-0.00875258
0.206947
-0.00135781
0.193976
0.00547344
0.178805
0.0113921
0.161945
0.0161329
0.143898
0.0195223
0.125148
0.0214796
0.106143
0.0220123
0.0872943
0.0212074
0.0689634
0.0192192
0.0514625
0.0162562
0.0350504
0.0125679
0.0199321
0.00843185
0.00626006
0.00414228
-0.00586426
1.10291e-20
-0.0163873
-0.00369669
-0.0253005
-0.00666033
-0.0326358
-0.00862268
-0.0384621
-0.00934359
-0.0428799
-0.00862073
-0.0460165
-0.00630054
-0.0480198
-0.00229001
-0.0490515
0.00343125
-0.0492802
0.0107995
-0.0488736
0.0196576
-0.0479902
0.0297488
-0.0467712
0.0407159
-0.0453329
0.0521065
-0.0437603
0.0633857
-0.042101
0.0739568
-0.0403618
0.0831882
-0.0385073
0.0904481
-0.0364601
0.0951416
-0.0341038
0.0967508
0.094872
-0.0312872
0.235472
-0.0396435
-0.219453
0.246506
-0.0363794
0.252731
-0.0312196
0.254406
-0.0245345
0.251862
-0.0167732
0.245487
-0.00842931
0.235716
-5.31392e-06
0.223019
0.00802065
0.207884
0.0152237
0.190808
0.021255
0.172281
0.0258564
0.152777
0.0288689
0.132743
0.0302323
0.112593
0.0299804
0.0926963
0.0282307
0.0733812
0.0251716
0.0549261
0.0210478
0.0375612
0.0161462
0.0214686
0.0107822
0.00678401
0.00528769
-0.0064009
-4.21556e-15
-0.0180354
-0.00474725
-0.0281063
-0.00863307
-0.0366341
-0.0113578
-0.0436692
-0.0126522
-0.0492875
-0.0122882
-0.0535861
-0.0100899
-0.0566784
-0.00594636
-0.0586893
0.000175564
-0.0597497
0.00821898
-0.0599911
0.0180268
-0.0595401
0.0293351
-0.0585133
0.0417721
-0.0570124
0.0548631
-0.0551205
0.0680439
-0.0528989
0.0806814
-0.0503861
0.092103
-0.047597
0.101631
-0.0445239
0.108621
-0.041139
0.112505
0.112828
-0.037397
0.268785
-0.0353606
-0.256839
0.275874
-0.030484
0.278365
-0.0239041
0.276579
-0.0160116
0.27089
-0.0072705
0.261714
0.00181545
0.249494
0.0107387
0.234694
0.0190212
0.217781
0.026243
0.199222
0.0320651
0.179469
0.0362441
0.158951
0.03864
0.138069
0.0392156
0.117189
0.0380307
0.0966355
0.0352317
0.076694
0.0310373
0.0576051
0.0257236
0.0395671
0.0196095
0.0227363
0.0130418
0.00723003
0.00638297
-0.00687145
1.82641e-17
-0.019521
-0.00574535
-0.0307015
-0.0105056
-0.040422
-0.0139564
-0.0487139
-0.015806
-0.0556277
-0.0158062
-0.0612289
-0.0137638
-0.0655943
-0.00955367
-0.0688084
-0.00313229
-0.0709598
0.00544974
-0.0721378
0.0160371
-0.0724295
0.0283628
-0.0719167
0.042047
-0.0706745
0.0566024
-0.0687698
0.0714476
-0.066261
0.0859285
-0.0631988
0.0993477
-0.0596272
0.111
-0.0555858
0.120213
-0.0511117
0.126388
0.129036
-0.0462415
0.295959
-0.0272227
-0.288469
0.298947
-0.0210929
0.297731
-0.0134868
0.29266
-0.00480197
0.284118
0.00449583
0.272516
0.013906
0.258281
0.022928
0.241846
0.0310942
0.223643
0.0379984
0.204091
0.043318
0.183592
0.0468288
0.162522
0.0484116
0.141228
0.0480524
0.120025
0.0458356
0.0991883
0.0419327
0.0789581
0.0365884
0.059536
0.030105
0.0410872
0.0228266
0.0237421
0.0151249
0.00759858
0.00738626
-0.00727448
-3.76244e-15
-0.0208342
-0.00665104
-0.0330601
-0.0121999
-0.0439504
-0.0163043
-0.0535189
-0.0186567
-0.0617911
-0.0189945
-0.0688017
-0.0171126
-0.0745912
-0.0128761
-0.0792038
-0.00623423
-0.0826846
0.00276697
-0.0850787
0.013974
-0.0864295
0.0271192
-0.0867786
0.041819
-0.0861662
0.0575805
-0.0846323
0.0738142
-0.0822185
0.0898567
-0.0789709
0.105
-0.0749424
0.118526
-0.0701963
0.129751
-0.0648082
0.138059
0.142949
-0.0588678
0.31524
-0.0157543
-0.312055
0.314421
-0.0088169
0.309905
-0.000634228
0.302033
0.00839878
0.291173
0.0178242
0.277708
0.0271536
0.262031
0.0359017
0.244529
0.0436183
0.225586
0.0499162
0.205565
0.0544931
0.184813
0.0571453
0.16365
0.0577753
0.142367
0.0563905
0.121225
0.0530969
0.100452
0.0480872
0.0802436
0.0416273
0.0607637
0.0340394
0.0421458
0.0256873
0.0244949
0.0169608
0.00789077
0.0082633
-0.00760909
-3.56413e-15
-0.0219661
-0.00743195
-0.0351571
-0.0136526
-0.0471709
-0.0183085
-0.0580049
-0.021082
-0.0676622
-0.0217022
-0.0761489
-0.0199571
-0.0834717
-0.0157069
-0.0896367
-0.00889708
-0.0946478
0.000428584
-0.0985065
0.0121174
-0.101213
0.0259015
-0.102766
0.0413965
-0.103169
0.0581079
-0.102428
0.0754451
-0.100558
0.0927433
-0.0975882
0.109294
-0.0935654
0.124378
-0.0885563
0.13731
-0.0826517
0.147475
0.154366
-0.0759674
0.325475
-0.00189353
-0.325969
0.321532
0.00540417
0.314428
0.0137319
0.304476
0.0227037
0.292011
0.0318757
0.277375
0.0407775
0.260914
0.0489441
0.242965
0.0559469
0.223856
0.0614205
0.203895
0.0650844
0.183371
0.066756
0.16255
0.0663578
0.141668
0.0639167
0.120937
0.0595566
0.10054
0.0534875
0.0806311
0.045991
0.06134
0.0374043
0.0427709
0.0281047
0.0250059
0.0184944
0.00810832
0.00898786
-0.0078749
-6.2635e-15
-0.0229093
-0.00806363
-0.0369696
-0.0148161
-0.0500366
-0.0198982
-0.0620936
-0.0229879
-0.073124
-0.0238114
-0.0831089
-0.0221549
-0.0920252
-0.0178774
-0.0998448
-0.0109247
-0.106534
-0.00134101
-0.112056
0.0107201
-0.116369
0.0249902
-0.119433
0.0410852
-0.121212
0.0585116
-0.121677
0.0766816
-0.120815
0.0949346
-0.118631
0.112568
-0.115152
0.12887
-0.110438
0.143162
-0.104577
0.154836
0.16339
-0.0976898
0.326218
0.0131354
-0.329409
0.320108
0.0204184
0.311332
0.0285399
0.300168
0.037127
0.286911
0.0457544
0.271855
0.053973
0.255298
0.0613413
0.237525
0.0674544
0.21881
0.0719703
0.19941
0.0746302
0.17956
0.0752722
0.159473
0.0738371
0.13934
0.0703682
0.119328
0.0650045
0.0995773
0.0579688
0.0802091
0.0495543
0.0613215
0.040108
0.0429937
0.0300156
0.0252881
0.0196868
0.00825348
0.00954175
-0.00807212
6.4331e-15
-0.023658
-0.0085296
-0.0384773
-0.0156581
-0.0525041
-0.0210255
-0.0657101
-0.0243104
-0.0780621
-0.0252402
-0.0895203
-0.0236037
-0.100036
-0.0192631
-0.109553
-0.0121675
-0.118005
-0.00236451
-0.12532
0.00998969
-0.131423
0.024625
-0.136237
0.0411575
-0.139692
0.0590963
-0.141726
0.0778582
-0.142296
0.0967904
-0.14138
0.1152
-0.138986
0.132387
-0.135155
0.147687
-0.129964
0.160502
0.170342
-0.123527
0.317761
0.0279894
-0.322472
0.310572
0.0350049
0.301126
0.0426889
0.289666
0.0506856
0.276443
0.0585908
0.26171
0.0659798
0.245717
0.072436
0.228704
0.0775798
0.210897
0.0810929
0.192504
0.0827382
0.173716
0.0823731
0.154702
0.0799552
0.135612
0.075542
0.116574
0.0692839
0.0976971
0.0614134
0.0790706
0.0522312
0.0607679
0.0420903
0.0428475
0.0313807
0.0253556
0.0205148
0.00832902
0.00991463
-0.00820148
0
-0.0242082
-0.00882111
-0.0396632
-0.0161618
-0.054535
-0.0216655
-0.0687858
-0.0250149
-0.0823692
-0.025943
-0.0952281
-0.0242445
-0.107294
-0.0197882
-0.118485
-0.0125294
-0.128711
-0.00252188
-0.137872
0.0100737
-0.145862
0.0249844
-0.152575
0.0418259
-0.157911
0.0601098
-0.16178
0.0792591
-0.164112
0.09863
-0.16486
0.117542
-0.164011
0.13531
-0.161585
0.151284
-0.157643
0.164882
0.175626
-0.152287
0.301079
0.0413855
-0.30612
0.293888
0.0480206
0.284742
0.0551695
0.273847
0.0624962
0.261422
0.0696204
0.247682
0.0761434
0.232838
0.0816755
0.21709
0.0858628
0.200625
0.0884111
0.183612
0.0891048
0.166204
0.0878194
0.148535
0.0845278
0.130721
0.0792995
0.112861
0.0722942
0.0950349
0.0637511
0.0773104
0.0539753
0.0597404
0.0433224
0.042367
0.0321834
0.0252236
0.0209705
0.00833816
0.0101037
-0.00826431
5.79304e-15
-0.0245582
-0.00893674
-0.0405145
-0.016325
-0.0560971
-0.0218146
-0.0712608
-0.0250958
-0.0859485
-0.02591
-0.10009
-0.0240609
-0.113599
-0.0194265
-0.126377
-0.0119712
-0.138313
-0.00175671
-0.149283
0.0110497
-0.159159
0.026171
-0.167811
0.0432216
-0.175114
0.0617153
-0.180955
0.0810809
-0.185239
0.100685
-0.1879
0.119858
-0.188901
0.137934
-0.188244
0.154276
-0.185973
0.16832
0.179602
-0.18217
0.277715
-0.282041
0.271457
0.263435
0.253832
0.242838
0.230638
0.217411
0.203327
0.188539
0.173189
0.157398
0.141273
0.124905
0.108369
0.0917251
0.0750228
0.0583001
0.0415872
0.0249082
0.0082845
-0.0082625
-0.0247084
-0.0410228
-0.0571658
-0.073086
-0.0887178
-0.10398
-0.118774
-0.132988
-0.146492
-0.159146
-0.170804
-0.181315
-0.190536
-0.198332
-0.20459
-0.20922
-0.212168
-0.213415
-0.21298
-0.210928
-0.207438
-0.192924
-0.21245
-0.168128
-0.210809
-0.142277
-0.203101
-0.117163
-0.19034
-0.0942501
-0.173791
-0.0745597
-0.154786
-0.0586038
-0.134555
-0.046392
-0.114103
-0.0374985
-0.0941535
-0.031182
-0.0751604
-0.0265413
-0.057392
-0.0226844
-0.0410583
-0.0188894
-0.0264604
-0.0147347
-0.0141276
-0.0101817
-0.00490977
-0.00559879
-0.00172279
-0.21209
-0.174852
-0.216961
-0.153724
-0.215745
-0.131594
-0.208921
-0.10988
-0.197319
-0.0897648
-0.181998
-0.072113
-0.164092
-0.057416
-0.144686
-0.0457869
-0.124704
-0.0369956
-0.104854
-0.0305433
-0.0856226
-0.0257645
-0.0673146
-0.0219439
-0.0501432
-0.0184357
-0.0343402
-0.0147688
-0.0202712
-0.0107267
-0.00853124
-0.00639211
-0.00215068
-0.213311
-0.156918
-0.218155
-0.139128
-0.217475
-0.120387
-0.211643
-0.101806
-0.201326
-0.0843344
-0.187387
-0.0686941
-0.170779
-0.0553395
-0.152434
-0.0444438
-0.133183
-0.0359159
-0.113696
-0.0294431
-0.0944642
-0.0245555
-0.0758182
-0.0207045
-0.0579809
-0.0173464
-0.0411459
-0.0140236
-0.0255678
-0.0104323
-0.0116478
-0.00647211
-0.0022701
-0.211172
-0.139324
-0.21606
-0.124525
-0.215973
-0.10883
-0.211189
-0.0931027
-0.202224
-0.0780969
-0.18977
-0.064409
-0.174606
-0.0524453
-0.157518
-0.0424075
-0.139234
-0.0342977
-0.120368
-0.0279411
-0.101395
-0.0230244
-0.0826556
-0.019146
-0.064382
-0.015873
-0.0467499
-0.0127992
-0.0299434
-0.00959886
-0.0142252
-0.00607185
-0.00217405
-0.205879
-0.122268
-0.210841
-0.110108
-0.211359
-0.0971154
-0.207626
-0.0839556
-0.200028
-0.0712207
-0.189104
-0.0593966
-0.175476
-0.0488369
-0.159794
-0.0397491
-0.142675
-0.0321933
-0.124667
-0.0260923
-0.106212
-0.0212534
-0.0876466
-0.0173984
-0.0692061
-0.0142006
-0.0510589
-0.0113245
-0.0333483
-0.00846529
-0.0162449
-0.00538534
-0.00194337
-0.197758
-0.105934
-0.202786
-0.0960689
-0.203879
-0.0854442
-0.201154
-0.0745661
-0.194888
-0.0638951
-0.185487
-0.0538213
-0.173434
-0.0446448
-0.159251
-0.036564
-0.143452
-0.0296705
-0.126506
-0.0239526
-0.108814
-0.0193064
-0.0906921
-0.0155524
-0.0723735
-0.0124581
-0.0540228
-0.00976382
-0.0357617
-0.00720993
-0.0177048
-0.00456366
-0.00164348
-0.187221
-0.0904895
-0.192279
-0.0825927
-0.193881
-0.0740157
-0.192084
-0.06514
-0.187073
-0.0563195
-0.17914
-0.0478626
-0.168651
-0.0400185
-0.156011
-0.0329666
-0.141635
-0.0268115
-0.125915
-0.0215821
-0.1092
-0.0172366
-0.0917779
-0.0136706
-0.0738705
-0.01073
-0.0556383
-0.0082267
-0.0371928
-0.00595617
-0.0186184
-0.00371588
-0.00132337
-0.174734
-0.0760798
-0.179766
-0.0698468
-0.181788
-0.0630179
-0.180809
-0.0558774
-0.176942
-0.0486934
-0.170386
-0.0417063
-0.161404
-0.0351179
-0.150303
-0.0290843
-0.137405
-0.0237101
-0.123029
-0.0190466
-0.107467
-0.0150922
-0.0909718
-0.011797
-0.0737482
-0.00906808
-0.055949
-0.00677936
-0.0376805
-0.00478147
-0.0190135
-0.00291376
-0.00101652
-0.160788
-0.0628211
-0.165723
-0.0579751
-0.16806
-0.0526196
-0.167773
-0.0469633
-0.164916
-0.0412067
-0.159614
-0.0355337
-0.152048
-0.0301047
-0.142439
-0.0250505
-0.131029
-0.0204678
-0.118066
-0.0164168
-0.10379
-0.0129202
-0.0884124
-0.00996451
-0.0721152
-0.0075022
-0.0550402
-0.00545666
-0.0372896
-0.00372768
-0.0189299
-0.00219843
-0.000743066
-0.145862
-0.0507996
-0.150623
-0.047094
-0.153165
-0.0429639
-0.153433
-0.0385605
-0.151439
-0.0340312
-0.147251
-0.0295144
-0.140983
-0.0251344
-0.132785
-0.0209976
-0.122832
-0.0171883
-0.111311
-0.0137669
-0.0984063
-0.0107682
-0.0842933
-0.0082011
-0.0691258
-0.00604915
-0.0530311
-0.0042727
-0.0361061
-0.00281143
-0.0184166
-0.00158805
-0.000512619
-0.130398
-0.0400701
-0.134912
-0.037289
-0.137547
-0.0341647
-0.138233
-0.0308047
-0.136951
-0.0273155
-0.133725
-0.023799
-0.12862
-0.0203497
-0.121729
-0.0170511
-0.11317
-0.0139734
-0.103078
-0.0111718
-0.0915903
-0.00868473
-0.078844
-0.00653288
-0.0649653
-0.0047193
-0.0500643
-0.00322968
-0.0342303
-0.0020334
-0.0175286
-0.0010852
-0.000327302
-0.114781
-0.0306579
-0.118979
-0.0286159
-0.121603
-0.0263058
-0.122576
-0.0238025
-0.121857
-0.0211813
-0.119442
-0.0185158
-0.115356
-0.0158756
-0.109651
-0.0133243
-0.1024
-0.0109182
-0.0936936
-0.00870392
-0.0836295
-0.00671815
-0.07231
-0.00498608
-0.0598346
-0.00352107
-0.0462949
-0.00232448
-0.0317702
-0.00138582
-0.0163236
-0.000683242
-0.0001845
-0.0993232
-0.0225621
-0.103145
-0.0211025
-0.105665
-0.0194419
-0.106804
-0.0176315
-0.10651
-0.015723
-0.104759
-0.0137682
-0.101549
-0.0118168
-0.0969015
-0.00991575
-0.0908566
-0.00810779
-0.0834689
-0.00643054
-0.0748041
-0.00491551
-0.0649345
-0.00358739
-0.0539351
-0.00246344
-0.0418791
-0.00155313
-0.028834
-0.000857935
-0.0148586
-0.000371359
-7.9158e-05
-0.0842581
-0.0157611
-0.0876543
-0.0147532
-0.0899892
-0.0136025
-0.0911871
-0.0123429
-0.0911922
-0.011009
-0.0899682
-0.00963559
-0.0874977
-0.00825718
-0.0837805
-0.00690684
-0.0788321
-0.00561563
-0.0726818
-0.00441194
-0.0653693
-0.00332085
-0.0569429
-0.00236356
-0.0474562
-0.00155698
-0.036965
-0.000913256
-0.0255247
-0.000439603
-0.0131875
-0.000138067
-5.48537e-06
-0.0697375
-0.010219
-0.0726684
-0.00955502
-0.0747513
-0.00879706
-0.0759171
-0.00796637
-0.0761111
-0.00708507
-0.0752928
-0.00617573
-0.0734357
-0.0052609
-0.070527
-0.00436271
-0.0665662
-0.00350243
-0.0615645
-0.00270006
-0.0555429
-0.00197399
-0.048531
-0.00134056
-0.0405648
-0.000813804
-0.031685
-0.000405146
-0.021935
-0.000123149
-0.011359
2.66615e-05
4.19343e-05
-0.0558374
-0.00589243
-0.0582731
-0.00548437
-0.0600497
-0.00502106
-0.0611077
-0.00451511
-0.0613975
-0.00397972
-0.0608796
-0.0034285
-0.0595249
-0.0028752
-0.0573142
-0.00233354
-0.0542381
-0.00181693
-0.0502966
-0.00133828
-0.0454979
-0.000909782
-0.039858
-0.000542671
-0.0333997
-0.000247058
-0.0261509
-3.17384e-05
-0.0181442
9.59737e-05
-0.00941483
0.000130383
6.75369e-05
-0.042566
-0.00273794
-0.0444843
-0.00251367
-0.0459122
-0.00226291
-0.0468014
-0.00199239
-0.0471107
-0.00170915
-0.0468056
-0.00142054
-0.0458588
-0.00113401
-0.0442502
-0.000857115
-0.041967
-0.000597305
-0.0390033
-0.000361881
-0.03536
-0.000157862
-0.0310441
8.11627e-06
-0.0260687
0.000129907
-0.0204519
0.000201946
-0.0142166
0.000219347
-0.0073894
0.000177981
7.45583e-05
-0.0298746
-0.000718365
-0.0312591
-0.000618136
-0.0323056
-0.000510214
-0.0329786
-0.000397512
-0.0332472
-0.000283105
-0.0330849
-0.000170183
-0.0324696
-6.20196e-05
-0.0313843
3.80743e-05
-0.0298168
0.000126791
-0.0277597
0.000200869
-0.0252106
0.000257136
-0.0221716
0.000292555
-0.0186492
0.000304261
-0.0146544
0.000289606
-0.0102019
0.0002462
-0.00530995
0.000171943
6.50669e-05
-0.0176701
0.000191373
-0.0185084
0.000218569
-0.019149
0.00024462
-0.0195703
0.000268757
-0.0197532
0.000290183
-0.0196808
0.000308073
-0.019339
0.000321587
-0.0187165
0.000329881
-0.0178046
0.000332113
-0.0165976
0.000327457
-0.0150928
0.000315111
-0.0132901
0.000294304
-0.0111925
0.000264314
-0.00880526
0.00022447
-0.0061367
0.000174167
-0.00319734
0.000112869
4.01274e-05
-0.0058286
1.20903e-18
-0.00611035
9.58788e-19
-0.00632721
1.0276e-18
-0.00647189
9.99954e-19
-0.00653787
7.78326e-19
-0.00651939
7.40782e-19
-0.00641155
7.04962e-19
-0.00621035
5.28374e-19
-0.00591267
3.67603e-19
-0.00551639
2.62247e-19
-0.0050203
1.48225e-19
-0.00442418
1.48986e-19
-0.00372873
1.85171e-19
-0.00293561
1.29793e-19
-0.00204737
6.62747e-20
-0.00106742
2.65662e-20
5.31615e-21
0.00579165
-0.00130283
0.00607561
-0.00128585
0.00629497
-0.00125757
0.00644238
-0.00121853
0.00651126
-0.00116933
0.0064958
-0.00111064
0.00639104
-0.00104314
0.00619291
-0.00096759
0.00589825
-0.000884765
0.00550485
-0.000795462
0.00501146
-0.000700487
0.00441779
-0.000600651
0.00372448
-0.000496753
0.00293313
-0.000389575
0.00204623
-0.00027987
0.00106712
-0.000168353
-5.56917e-05
0.0173368
-0.00374744
0.0181951
-0.00366743
0.0188583
-0.00355438
0.0193043
-0.00341075
0.0195133
-0.00323924
0.0194682
-0.00304274
0.0191542
-0.00282428
0.0185594
-0.00258701
0.0176746
-0.00233417
0.0164937
-0.002069
0.0150133
-0.00179476
0.0132327
-0.00151462
0.0111543
-0.00123168
0.00878299
-0.000948875
0.00612646
-0.000668981
0.00319469
-0.000394544
-0.00012786
0.0289444
-0.00738316
0.0303851
-0.00718866
0.0314947
-0.00692847
0.0322368
-0.00660867
0.0325788
-0.00623582
0.0324926
-0.00581683
0.031955
-0.00535895
0.0309471
-0.00486956
0.0294554
-0.00435614
0.027471
-0.00382612
0.0249897
-0.00328676
0.0220121
-0.00274512
0.0185433
-0.00220784
0.0145927
-0.00168114
0.0101736
-0.00117069
0.00530263
-0.000681518
-0.00021793
0.040731
-0.0122755
0.0427606
-0.0119059
0.0443139
-0.0114267
0.0453399
-0.0108495
0.0457945
-0.0101869
0.0456403
-0.00945237
0.044847
-0.00865932
0.0433915
-0.00782157
0.0412579
-0.00695277
0.0384372
-0.00606629
0.0349272
-0.00517497
0.0307321
-0.00429091
0.0258617
-0.00342528
0.0203315
-0.00258813
0.0141614
-0.00178822
0.00737516
-0.00103288
-0.00032788
0.0527793
-0.0185013
0.0554019
-0.0178835
0.057389
-0.0170998
0.0586765
-0.0161707
0.0592098
-0.0151178
0.0589446
-0.0139635
0.0578465
-0.0127304
0.0558914
-0.0114411
0.0530646
-0.0101176
0.049361
-0.00878103
0.0447837
-0.007451
0.0393439
-0.00614558
0.0330593
-0.00488074
0.0259533
-0.00367012
0.0180536
-0.00252479
0.00939155
-0.00145307
-0.000460307
0.0651266
-0.0261432
0.0683419
-0.0251872
0.070745
-0.0239967
0.0722596
-0.0226046
0.0728235
-0.0210453
0.0723883
-0.0193539
0.0709198
-0.0175655
0.0683972
-0.0157143
0.0648124
-0.0138328
0.0601687
-0.0119516
0.0544795
-0.0100982
0.047767
-0.00829673
0.04006
-0.00656733
0.0313925
-0.00492591
0.0218014
-0.00338377
0.0113247
-0.0019474
-0.000618443
0.0777539
-0.0352816
0.0815555
-0.0338772
0.0843469
-0.0321567
0.0860417
-0.0301707
0.0865729
-0.0279713
0.0858931
-0.0256109
0.0839735
-0.023141
0.0808026
-0.0206107
0.0763847
-0.0180656
0.0707381
-0.015547
0.0638919
-0.0130904
0.0558841
-0.0107253
0.0467585
-0.00847433
0.0365618
-0.00635281
0.025341
-0.00436858
0.0131406
-0.00252198
-0.000806031
0.0905765
-0.0459868
0.0949505
-0.0439998
0.0980917
-0.0416021
0.0999061
-0.0388687
0.100327
-0.035876
0.0993133
-0.0326994
0.0968486
-0.0294116
0.0929385
-0.0260801
0.0876073
-0.0227659
0.080895
-0.0195217
0.0728531
-0.0163905
0.0635405
-0.013405
0.0530196
-0.0105869
0.0413519
-0.00794627
0.0285947
-0.00548221
0.0147976
-0.00318299
-0.00102696
0.103438
-0.0583109
0.108362
-0.0555798
0.111803
-0.0523307
0.113663
-0.0486719
0.113882
-0.0447121
0.112433
-0.040557
0.10932
-0.036306
0.104574
-0.0320489
0.0982493
-0.0278639
0.0904155
-0.0238149
0.0811529
-0.0199503
0.0705468
-0.0163021
0.058681
-0.0128854
0.0456335
-0.00969891
0.0314713
-0.00672582
0.0162478
-0.00393528
-0.00128448
0.116108
-0.0722795
0.12155
-0.068613
0.12523
-0.064309
0.127051
-0.0595206
0.126965
-0.0543993
0.124969
-0.0490897
0.121098
-0.0437242
0.115421
-0.0384187
0.10803
-0.0332694
0.0990334
-0.02835
0.0885469
-0.02371
0.0766865
-0.0193744
0.0635603
-0.0153444
0.0492628
-0.0115986
0.0338701
-0.00809618
0.0174378
-0.00477978
-0.00158002
0.128284
-0.0878853
0.134206
-0.08306
0.138055
-0.0774668
0.139741
-0.0713183
0.13924
-0.0648216
0.136582
-0.0581701
0.131846
-0.0515365
0.12515
-0.045066
0.116633
-0.0388725
0.106454
-0.0330354
0.0947684
-0.0275987
0.0817275
-0.0225714
0.0674641
-0.0179307
0.0520888
-0.0136253
0.0356854
-0.00958159
0.0183113
-0.00570974
-0.00191129
0.139602
-0.105082
0.145961
-0.0988425
0.149902
-0.0916948
0.151354
-0.0839297
0.150325
-0.0758258
0.146892
-0.0676374
0.141192
-0.0595845
0.133402
-0.051844
0.123724
-0.0445449
0.112371
-0.0377656
0.0995473
-0.0315341
0.0854381
-0.0258319
0.0702017
-0.0205997
0.0539629
-0.0157457
0.0368124
-0.011156
0.0188115
-0.00670546
-0.00227004
0.149652
-0.123782
0.156401
-0.115841
0.160359
-0.106843
0.161479
-0.0971813
0.159813
-0.087224
0.155502
-0.0773003
0.148754
-0.0676847
0.13982
-0.0585862
0.128976
-0.0501435
0.116494
-0.042423
0.10263
-0.035423
0.0876052
-0.0290821
0.0715995
-0.0232907
0.0547497
-0.0179066
0.0371544
-0.0127712
0.0188844
-0.00772792
-0.00263923
0.157995
-0.143855
0.165094
-0.133895
0.169001
-0.122725
0.169699
-0.110865
0.167301
-0.0987978
0.162027
-0.0869422
0.154172
-0.0756338
0.144076
-0.0651117
0.132095
-0.0555141
0.11857
-0.0468801
0.103805
-0.03916
0.088054
-0.0322313
0.0715162
-0.0259201
0.0543383
-0.0200259
0.0366293
-0.0143481
0.0184819
-0.00871159
-0.00299014
0.164199
-0.165129
0.171618
-0.15281
0.175416
-0.13912
0.17562
-0.124744
0.172418
-0.110306
0.166124
-0.0963289
0.157136
-0.0832164
0.145898
-0.0712313
0.132853
-0.0604961
0.11841
-0.0510014
0.102921
-0.0426262
0.0866662
-0.0351669
0.0698578
-0.0283724
0.0526519
-0.0219825
0.0351764
-0.0157665
0.0175655
-0.00955728
-0.00327976
0.167862
-0.187393
0.175589
-0.172358
0.179245
-0.155784
0.17891
-0.138564
0.174861
-0.121492
0.167525
-0.105218
0.157421
-0.0902134
0.145104
-0.0767548
0.13111
-0.0649267
0.115916
-0.0546436
0.0999113
-0.0456855
0.0833961
-0.037747
0.0665884
-0.030491
0.0496563
-0.0236057
0.0327611
-0.016856
0.0161083
-0.0101262
-0.00344888
0.168648
-0.210406
0.176695
-0.192288
0.180206
-0.172456
0.179321
-0.152058
0.174422
-0.132097
0.166067
-0.113368
0.154909
-0.0964114
0.141623
-0.0814978
0.12684
-0.0686449
0.111095
-0.0576557
0.0948064
-0.0481805
0.07828
-0.0397922
0.0617366
-0.0320677
0.0453633
-0.0246648
0.0293781
-0.0173883
0.0140979
-0.0102362
-0.00342163
0.166318
-0.233898
0.174728
-0.212338
0.178127
-0.188872
0.176723
-0.164964
0.171018
-0.141872
0.161714
-0.120553
0.149613
-0.101612
0.135516
-0.0852883
0.120142
-0.0714937
0.104072
-0.0598774
0.087738
-0.0499263
0.0714394
-0.0410774
0.055397
-0.0328331
0.0398318
-0.0248615
0.0250522
-0.0170733
0.0115374
-0.00966252
-0.00310697
0.160755
-0.257579
0.169606
-0.232237
0.172968
-0.204771
0.171123
-0.177034
0.164703
-0.150585
0.154572
-0.126567
0.141689
-0.105638
0.12698
-0.0879712
0.111243
-0.0733217
0.0950872
-0.0611362
0.0789377
-0.0507045
0.0630748
-0.041323
0.0477234
-0.0324492
0.0331623
-0.0238263
0.019836
-0.0155611
0.00844591
-0.0081431
-0.00240258
0.151983
-0.281145
0.161387
-0.251721
0.164832
-0.219911
0.162672
-0.188042
0.15568
-0.158035
0.144893
-0.131237
0.131432
-0.108342
0.116346
-0.0894117
0.100492
-0.0739822
0.0844857
-0.0612427
0.0687216
-0.0502566
0.053452
-0.0401888
0.0389166
-0.0305064
0.0254885
-0.0211209
0.0138059
-0.0124501
0.00485814
-0.00539048
-0.00120153
-0.21025
0.107176
0.211823
-0.207275
0.117279
-0.203002
0.127352
-0.197542
0.136973
-0.191001
0.145688
-0.183482
0.153034
-0.175077
0.158575
-0.165869
0.161925
-0.155927
0.162772
-0.145311
0.1609
-0.134066
0.156202
-0.12223
0.148681
-0.109828
0.138449
-0.0968814
0.125725
-0.0834014
0.110814
-0.069396
0.0940995
-0.05487
0.0760207
-0.0398271
0.0570597
-0.0242722
0.0377236
-0.0082137
0.0185311
0.0083333
2.70874e-17
0.0253444
-0.0173642
0.0427828
-0.0330781
0.0605959
-0.0466908
0.0787128
-0.0577942
0.0970415
-0.0660342
0.115467
-0.071124
0.133851
-0.0728571
0.152031
-0.0711209
0.169823
-0.0659094
0.187024
-0.0573331
0.203416
-0.0456246
0.218773
-0.0311389
0.23287
-0.0143465
0.245488
0.00418117
0.256427
0.0237939
0.265511
0.0437912
0.272601
0.0634564
0.277596
0.0820932
0.280445
0.0990616
0.113812
-0.234115
0.096942
0.236569
-0.230069
0.107523
-0.224558
0.118192
-0.217715
0.128508
-0.209674
0.13799
-0.200563
0.146153
-0.190503
0.152535
-0.179607
0.156726
-0.167973
0.158394
-0.155687
0.157304
-0.142824