/*--------------------------------*- C++ -*----------------------------------*\
  =========                 |
  \\      /  F ield         | OpenFOAM: The Open Source CFD Toolbox
   \\    /   O peration     | Website:  https://openfoam.org
    \\  /    A nd           | Version:  6
     \\/     M anipulation  |
\*---------------------------------------------------------------------------*/
FoamFile
{
    version     2.0;
    format      ascii;
    class       volScalarField;
    location    "1.14";
    object      p;
}
// * * * * * * * * * * * * * * * * * * * * * * * * * * * * * * * * * * * * * //

dimensions      [1 -1 -2 0 0 0 0];

internalField   nonuniform List<scalar> 
5835
(
2.78882
1
2.79999
1.22791
1
1
1
1.00155
1
1
1
2.23148
1
1
2.29404
1
5.01424
4.96681
1
1
5.17519
1
5.31451
2.21367
1
1
2.45733
1
1.25036
1
1.02791
1
1
1.00487
1.00454
1
1
1
1.00032
1.00053
1
1.00005
1
1.00005
1
1.00001
1
1.00001
1
1
1
1
1
1
1
1
1
1
1
1
1.27493
1
1.31436
1
1
1.00001
1.00001
1
1.00478
1.00443
1.00058
1.00068
1
1
1
1
1.03289
1.04686
1.00007
1
1
1.00007
1
2.9278
2.7865
1
1
1
1.00171
1.23625
1
1
1
1.00009
1.00007
1
1
1
1.39093
1.00003
1
1.00011
1
1
1.93195
1
1
1.98299
1
1.00003
1
1
1.378
1
1
1
1
1
1
1.78873
1.75018
1
1
1
1
1
1
1
1
1.00002
1.00002
1
1
1.00017
1
1
4.53365
1
4.71424
1
1
1
4.57597
4.51847
4.75679
4.85015
3.09807
3.19803
1
1
3.11607
1
1
1
2.82762
2.11525
1.30972
1
1.04888
1.98024
1
1
1
1
1.36396
1
1
1.26955
1
1
1.02352
1.00981
1.00738
1
1
1.00377
1
1.31846
1.07052
1.20303
1
1
1.00001
1.00001
1
1.00463
1
1.00001
1.00001
1
1
1
1
1.00001
1.00001
1
1
1
1
1
4.40315
4.51713
1
1
1
1
1
1.00001
1
1
1.00099
1
1.00082
1
1.00053
1
1
1
1
1
1
1
1
1.00091
1
1.00262
1.00062
4.83304
1
1
1.00042
1
1
1
1
1
3.05356
1
3.19383
1.00009
1
1.00012
1.00007
1.00191
1
1.00007
1
1.00012
1.00006
1
1.11534
1
1
1
1
1
1
1.56815
1
1
1
2.3251
2.3699
1
2.45315
1
1
1
2.20341
2.31312
1
1
1
1
1
1.01256
1
1
1
1
1
1
2.52067
1
1
1
1
1
1
1
4.80942
2.76229
1
2.77539
1
1
1
1
1
4.45043
1
4.89417
4.78217
4.50568
2.75128
4.57653
1
4.53151
1
3.1611
5.1643
3.13522
4.77335
2.56193
1
1
1.00081
2.54293
1.00003
1
1
1.01455
1
2.44996
1
2.58977
1.0011
1.00025
4.49657
1.0012
1
1.63552
1
1.00886
1
1.00913
1.00003
1
1.00003
1
1
4.41495
1.55251
4.57623
1
1.00057
1
1.00017
1
1.00018
1.87575
1
1
1.01686
1.00604
1
1.11039
1
1.85109
1.0012
1.24452
1
1.00002
1.00051
2.04473
1
1
1
1
1.00016
1.02793
1
1
1
1.28064
1.00149
1
1
1
1
1
1
1
1
1
1
1
1
1
1
1
1
1
1
1
1
1.00001
1
1
1
1
1
1
1
1.00027
1.00679
1
1.00274
1.29884
1.00002
1.00019
1
1
1
1
1
1.39116
1
1
1
1
1.00004
1
1.04796
1
1
1
1
1.09786
1
1
1.43991
1.00051
1
1.04772
1
1
1.00037
1
1.39362
1.33473
1
1
1.33284
1.00414
1
1
1.00041
1.00447
1
1.29326
1
1.03367
1
1.00435
1
1
1.00038
1.00008
1.00524
1.00061
1
1.33072
1
1.00058
1.00007
1
1
1.34106
1
1
1.02957
1
1.33909
1
1.04105
1.00008
1.36951
1
1.00002
1
1.04052
1
1.0001
1
1.00008
1
1.00009
1.00002
1
1
1.00002
1
1
1
1.00002
1.00004
1
1
1
1.51758
1.00002
1
1
1.78108
1
1
1
1.87833
1
1
1.00002
1
1.41637
1
1
4.56717
1
1
4.64432
4.4298
4.42312
1
1
1
1
3.03156
3.05102
1
1
1
3.17126
4.33327
1
4.63226
1
1
1
2.98132
1
1.9758
1
4.42789
1
2.67935
1.31427
1.07402
1.00001
1.00001
1.05728
1
1.30699
1.00001
1.25522
1
1
1
1
1
1
1
1.00956
4.74
1
1.19043
1
1
1.0114
1
1.00408
1
1
1.00431
1
1
1
4.30944
1
1
1
1.01125
1
1
1
1.1343
1
1.00094
1.0009
1
1.00011
1.0006
1
1.00059
1.0001
1
1.0011
1.00007
1.00007
1
1
1.02096
1
1
1
2.07925
1
1
1.00001
1
1.00006
1
2.30501
1.38849
2.28827
1
2.37465
1.00042
1
1
4.39173
1
2.28553
1
1
2.32615
1
4.46598
1
2.83726
3.26523
1
1
4.57811
4.46878
3.02904
1
1
1
1
2.556
4.83198
1
2.61438
1
1
1
1
4.81225
4.70787
1
2.58297
1
4.45238
1
1
1
4.36686
1.40615
4.41806
1
1.00027
1
1.58029
1.56181
1
1
1.00138
1
1.13163
1.84798
1.01331
1
1.93556
1
1
1
1
1
1
1
1
1
1
1
1.0015
1
1
1
1
1
1.2058
1.03116
1
1
1.00003
1.00003
1
1
1
1
1
1.00325
1
1
1.26084
1.30364
1.00573
1
1
1.00735
1.00003
1
1.00017
1.00017
1
1
1
1
1.00523
1
1
1
1
1
1.00054
1
1.41167
1
1
1
1.08799
1.05332
1.3602
1
1.00049
1
1.2834
1.30388
1.03854
1
1
1.33889
1
1
1.32939
1
1
1
1.00441
1.00415
1
1.36886
1
1
1.00594
1.00008
1
1.00062
1.00064
1
1.37949
1.00008
1.03213
1
1
1.00001
1
1
1.03486
1
1.00002
1
1.03961
1
1.00009
1.00009
1
1
1
1
1.00001
1.00001
1
1
1.00001
1.00001
1
1
1
1
1.00172
1
1
1
1
1.00186
1.001
1.00328
1.00203
1
1
1
1
1
1.37487
1.00121
1.00086
1.00129
1.00083
1
1
1.01927
1.01153
1
1
1
1
1
1.00533
1
1
1.01005
1.00563
1
1
1
1
2.80746
2.96068
3.03053
2.70346
1
1
1
1
1
1
1
1
1
1
1
1
1
1
1
1
1
1
1
1
1
1
1.00034
1
1.00013
1.86303
1.00024
1
1.63299
1.00012
1
1
2.23646
1
1
1
1.00059
1.00035
1.37005
1
1
1.00059
1.00031
1
1
1.53685
1
1.0002
1
1
1
1.83936
1.53171
1
1
1
1
1.31706
1
3.06121
1
3.24409
1
1.00322
1
1
1
1
1
1
1
1.7343
1.98137
1
1
1.60081
1
1.84923
1
1.51646
1
1
4.4465
4.5768
1
1
1
4.34506
4.73547
4.71603
1
4.29936
1
1
1
5.05299
4.24395
1
4.51599
4.13777
1
1
1
4.82156
1
1
4.69548
1
4.36482
1
1
1
4.58752
4.20036
4.57005
1
1
1
4.17771
4.94988
4.74371
4.29729
4.45463
1
1
4.44655
1
1
4.15497
4.18073
4.34956
1
4.33106
1
1.49031
1
1
1
1
1.00002
1
1
1
1
1.73592
1.9584
1
1
1.56937
1
1
4.27348
1
1
4.20965
1
1.85937
1
1
1
1.00019
1
1.0015
1.01079
1.00002
1
1.02984
1.00296
1.09815
1
1
1.00032
1
1.19888
1
1
1
1
1
1.00001
1
1.00005
1.00006
1.00041
1
1.54824
1.00366
1
1
1
2.70575
4.39153
1
1
2.04413
4.29315
1
2.82005
2.04088
1
1
1
1.01337
1.00137
1.00001
1.00016
1.00002
1
1
1
1
1
1
1.05885
1
1.80889
1
1
1
1
1
1.98586
2.45213
1
1.01615
1
1
1.01221
1.0142
1
1
1.0018
1.00025
1
1.01056
1.0142
1
1.00016
1
1.0014
1.00025
1
1
1.0088
1.0019
1.01023
1
1.0012
1
1.00024
1
1.00854
1
1.00152
1.01369
1
1
1.00852
1
1.00164
1.01106
1
1.00015
1.00086
1
1
1
1
1
1.00015
1
1
1
1.00123
1.0086
1.00082
1
1
1.00021
1
1.01672
1
1.00516
1.00013
1.00093
1
1.00013
1
1.00015
1.15987
1
1
1
1.09628
1
1.00004
1
1
1
1.00099
1.00027
1
1.1494
1.00865
1.00003
1.00003
1
1
1
1.00003
1.00004
1
1
1.04265
1.00003
1
1.00003
1
1.00238
1
1
1.00145
1
1
1.00112
1.01157
1.0216
1
1.00003
1
1.06288
1
1.14462
1
1
1.00203
1
1.00003
1.00134
1
1
1.00029
1
1.00005
1
1.12546
1
1.00191
1.00299
1
1
1.00304
1
1.07195
1.02079
1.00043
1
1
1.00024
1
1
1.06571
1
1.03053
1.00003
1
1.00035
1.00028
1
1.00581
1
1.00003
1
1.16777
1
1.10857
1
1.00058
1
1.00041
1.00033
1
1
1
1
1.00057
1
1
1.15365
1.15642
1
1.00051
1.27412
1.18933
1
1
1.02595
1
1
1.14967
1
1.00341
1.01635
1
1
1
1.69237
1
1.13645
1
1.00538
1.00116
1
1
1.0016
1
1.56954
1
1.00258
1.00005
1
1
1.00008
1
1.01663
1
1.00042
1
1.08627
1.49709
1
1
1
1
1
1.00009
1
1.00179
1.05615
1.57953
1.01256
1
1
1.00004
1
1
1.0001
1
1.44609
1
1.00157
1
1.00033
1.00005
1
1.00005
1.70455
1.04683
1
1
1.00946
1.65535
1.52568
1
1.64711
1
1.62083
1
1.55151
1.32278
1.5055
1
1
1.00016
1
1.00005
1
1
1.02929
1
1.00484
1.58727
1.60178
1.2382
1
1
1.22893
3.06197
4.07453
1
1
1
1
1
1
1
1
1
1.99415
4.94602
1
1
1
3.08253
3.18674
1
1
4.14056
1.03093
1
1
2.28455
1
1
2.76765
3.55046
4.4931
1
4.58753
3.93951
1
4.44014
1
3.89986
4.36682
3.10225
3.97887
3.6398
1
2.69168
2.03165
3.68048
1.00355
3.14182
3.05424
4.009
1
1
1
1
1
4.17759
3.89441
1
1
1
2.18416
3.24985
1
1
2.551
1.56946
1
3.70394
1
1
1
3.82939
2.44121
1.03353
1
2.3063
1
2.14483
1
1.94977
1
1
1.17085
1.81125
1
1
2.965
1
1.1558
1
1
1
1.00069
1.02071
1
1
1.00345
3.98046
1
1
1.00238
3.8031
1
1
1
1.0211
1
1
1.93359
1
1
1.00009
1
1.00041
1.00225
1
1.04729
1.59509
2.97681
1
1.91586
3.03614
1.00006
1
1
1.63149
3.76996
3.93212
1
1.00027
1
1
1
1.00001
3.02913
1
1
1.00001
1
1.00001
1.00001
1
1.00006
3.78806
1
1
1
1.53524
1
1.00051
2.94574
1.48663
1.93772
1
1
1.00004
3.14263
3.93132
1.00002
1
1
1
1
1.63976
1.00002
1
1
1.62568
1
1.00001
1.88924
1
1
1
1
1
1
1
1
1
1
1
1
1
1
1
1
1
1
1
1
1
1
1
1
1
1
1
1
1
1
1
1
1
1
1.00001
1
1
1.00001
1
1
1
1
1
1
1
1
1
1
1
1
1
1
1
1
1
4.07174
1
1.00011
1.72069
1
1
1.88999
1
1
1
1.1948
1
1
1.90707
1.73248
1
2.06126
1
1
1.01209
1
1.00067
1
1.2846
1.00105
1
1.01938
1
1
1
1
1.00201
1
1.00759
1.00001
1.00293
1
1
1.00012
1.02177
1
1
1
1.00001
1
1.00123
1.00178
1
1
1
2.79639
1
1
1
1
1.00906
1.00004
1
1
4.35428
1
1.00017
1
1.01752
1
1.0004
1
3.70573
1
1
1.00002
1
1
1.256
1.09785
1
1.6105
1
1
1.00013
4.68942
1
1
3.8989
1.00012
1.77546
1
1.00215
1
1
1.00035
1.14817
1
1.01983
1
1
1.00031
1
1
1
1.01235
1.12845
1
1
1.205
1
1.08703
1
1
1.00014
1
1
1.19928
1.01334
1
1.00026
1
1.00046
1.00002
1
1
1.11415
1.00002
1
1
1.00001
1.00002
1
1
1
1.00001
1
1
1.00022
1
1
1.00001
1.33648
1
1.00001
1
1
1.24117
1
1.4303
1
1.39805
1
1
1.00001
1
1
1
1.37718
1
1
1
1
1
1
1
1
1
1.50913
1.68675
1
1
1
1
1
1
1
1
1
2.35344
1
4.07332
1
1
1
1.45545
1
1.71309
1.00001
1
1
1
3.69168
1
1
1
1.53625
1
1
1
1
1
1
1
1
1
1
1.00003
1
5.10933
1
4.22518
1
1
1
1
1
1
1.00001
1
1
1
1
1.00005
1.00001
1
1.00003
1
1
1.00003
1.00002
1
1.00001
1
1.00004
1.00005
1.00002
1
1
2.19494
1
4.74043
1
3.95199
1
1
1
2.40799
1
4.39218
1
3.7333
1
2.69361
3.66448
2.77831
2.18276
1
1
4.0639
1
1
4.42168
1
1
4.18614
1
3.65711
4.22668
1
1
1
3.95529
1
3.44601
1
4.79242
1
4.00527
1
1.33675
1
1
1
1
1.00001
1
1.00047
1.08318
1
1
1
1
1
2.51609
2.15749
1
1
4.38242
4.81442
1
1
4.71935
4.95392
1
1
4.58201
4.80134
1
4.5788
5.32557
1
1
1
5.48392
5.2679
1
5.786
1
5.36147
1
1
4.53929
5.07039
4.81398
1
1
5.00272
4.44374
1
4.52506
1
4.57424
1
1
4.49059
4.43963
1
1
4.80979
1
1
4.60256
4.65648
1
1
4.78207
4.75934
1
1
5.51279
5.50406
1
4.88651
4.91407
1
1
5.46712
1
5.35409
5.31454
1
1
5.60859
1
5.14991
1
5.20412
5.06588
1
1
5.02708
1.63711
1
1
1.61697
1
1
1
1
1.13256
1
1
2.53521
2.43351
1
1
1.00063
1
4.57541
1
1
4.45503
1
4.70142
4.79739
1
4.0318
1
4.1967
1
5.10967
1
1
1
4.88609
5.25447
4.61484
4.6979
1
1
1
1
4.643
1
1
1
1
1
1
4.83014
4.29992
4.17832
5.00534
4.24008
4.50187
1
1
5.1315
1
4.24089
4.79644
4.52731
1
1
4.75143
1
4.409
1
4.63414
4.54003
1
1.06574
1
1.00051
1
1
1
1
2.39382
1.94661
1
1
1.00111
1
1.05828
1
1
1
2.13117
2.61292
4.43336
1
1
1
4.79787
1
4.56896
4.64319
1
1.00023
1
1.00196
1
1.01536
1
1
1.00003
1
1.00026
1
1
1
1.12182
1
1.06495
1
1
1
1
1
1
1
1
1
1.00001
1.00009
1
1.00115
1.01249
1
1.12525
1
1
4.15166
1.69208
3.05946
3.06354
1
1
1.80456
3.88882
1.82876
1
1
1.1517
1
1.71943
1
1.01872
1
1.00167
1.00022
1.00003
1
1
1
1
1
1
1
1
1.0068
1
1.01584
1.00129
1
1.00016
1
1
1.00166
1
1.01574
1.00021
1
1
1.01452
1
1.00196
1.0002
1
1.00018
1
1
1.00809
1
1.00108
1.0094
1.00134
1.00017
1
1
1
1.00788
1
1
1.0092
1.0012
1.0012
1
1
1.00015
1.00013
1
1.01021
1
1.00091
1.00983
1
1.00097
1
1
1.00843
1
1.00017
1.00084
1.0089
1
1
1
1
1.00083
1.00015
1
1.00015
1
1.00969
1.00095
1
1.00904
1
1.00086
1.00017
1
1
1
1.00077
1
1.00637
1
1.00096
1
1.00016
1
1.00014
1
1.00786
1
1.00589
1.0092
1.00084
1
1.00694
1.00081
1
1
1.00017
1.00115
1
1.00016
1
1.00023
1.00018
1.08941
1
1
1.12663
1.00003
1.00003
1
1
1
1
1.00003
1
1.10005
1
1.00002
1.00003
1
1.09288
1.00969
1
1.00004
1
1.08117
1.00735
1
1.12237
1
1.00626
1.00003
1
1.08475
1
1.00003
1
1.00003
1
1
1.00129
1
1
1.00123
1.00003
1
1.00003
1
1
1.02009
1
1.00003
1.00004
1
1
1.00132
1
1.00134
1
1
1.06264
1.01516
1.00003
1
1.09648
1.00018
1
1.00003
1
1
1.07459
1.00153
1
1.0164
1
1.00155
1
1.00021
1
1.09156
1
1.00017
1.0216
1
1.00235
1
1.00174
1
1
1.06671
1
1.00203
1.00251
1
1
1.00024
1.07206
1.00019
1
1.02188
1
1
1.00209
1.00193
1
1.00038
1.02262
1.00003
1
1
1.00027
1.02495
1
1
1.00003
1.02918
1
1.00219
1
1.0004
1.00032
1.00004
1.00287
1
1
1.00003
1.00023
1
1.0947
1.00029
1.00429
1
1
1.10161
1
1.07479
1
1.00054
1
1.00044
1
1.08209
1.00046
1
1.00048
1
1.14594
1
1
1.13008
1.10381
1
1.17829
1
1.14776
1
1
1.20684
1.14784
1
1
1.22814
1.16008
1
1.12987
1
1.02346
1
1.00194
1.0201
1
1
1.17841
1.13582
1
1
1.00164
1
1
1.01851
1.01773
1
1.00181
1
1
1.0015
1
1
1.00004
1.10465
1
1.0901
1.0168
1.71065
1
1.00191
1
1
1.08047
1.64686
1
1.01194
1
1
1
1.63351
1
1
1
1.0014
1.63085
1
1
1
1.00065
1.00632
1.00022
1
1
1.00004
1.00022
1
1.00053
1
1.07131
1
1
1.00019
1
1.0306
1
1.06266
1
1
1.00021
1.00668
1.00004
1
1.00518
1.00093
1
1.00004
1
1
1.00684
1
1.00063
1
1
1.02903
1
1.00005
1
1
1.00004
1.40448
1
1
1.04248
1.00012
1.0457
1
1
1.00492
1
1
1.00259
1
1
1.00464
1.33547
1
1
1.00006
1.00006
1
1.00012
1
1
1.02586
1
1.00268
1
1
1
1.2985
1
1
1.00006
1.00006
1.02144
1
1.02562
1.00319
1
1.22734
1
1
1.19649
1
1.00007
1.00007
1
1
1.02602
1.02037
1
1
1.00007
1.00263
1
1.20305
1
1
1.00039
1
1.00331
1.14311
1
1.00005
1
1
1.02261
1
1.00007
1.01597
1
3.84941
1
1
1
1.77636
3.23497
3.20689
3.22234
1
1
3.24928
3.34573
1
1
1.85307
1
3.91712
3.40346
1
1
1
1
1
3.23637
1
1
1
1.80614
3.73997
1
1
3.21124
1
1
4.22422
3.55301
4.26128
1
3.271
3.74067
1.86392
3.70007
3.95266
3.91125
3.28104
2.3187
1
3.71099
2.57502
3.74423
1
1
1.78873
4.26584
3.88193
1
1
1
3.9299
1.87852
1
1.00007
1
1
1
1
3.70393
4.39173
1
1
2.23913
2.67553
3.27635
3.42409
1.00034
3.48334
3.98235
1
1
1
2.54452
1
1
1
1
2.67827
1
1.13639
1.14904
1
1
1.00155
1
1.01718
1.78963
1
2.03596
1
2.20188
2.38028
1
1
1.00023
1
1.00141
3.19505
1
3.34408
1
1.00006
1
2.39785
1
1
3.56774
3.95103
1
1
1
1.00004
1.00023
2.52622
2.5312
1.00002
1
1
1.80716
1.79284
1
1.00003
1
1
1
1
1
1
1
1
1
1
1
1
1
1
1.00001
1
1
1
1
1
1
1
1
1
1
1
1
1
1
1
1.00001
1
1
1
1
1
1
1
1
1
1
1
1
1
1
1.00001
1.00001
1
1.00001
1
1
1
1
1
1
1
1
1
1
1
1
1
1
1
1
1
1
1
1
1
1
1
1
1
1
1
1
1
1
1
1
1
3.09758
1
3.12858
1
1.00001
1
1.00001
1
1.00015
3.64717
1
1
3.70272
1.00001
1.00001
1
1
1
1.00021
1
3.45691
1
3.13342
1.00002
1.00001
1
1
1
1
1
3.00518
3.93563
1
1
3.33507
3.48422
1
1.00022
1
1
1
3.52141
3.93658
1.64471
1.63528
1.87743
1
4.01328
3.78201
1
1
1.58101
1.75819
1
1.68931
1.68329
1
1
1.7486
1
1.69926
1
1.66956
1.64929
1.6906
1
1.78896
1.95012
1
1
1
1.60795
1
1
1.78887
1.94276
1.00001
1.00001
1.00008
1
1
2.04424
1.91674
1
1
1
1
1
1.00001
1.00001
1
1
1
1
1
1.00015
1
1
1
1.22242
1
1
1.00062
1.26483
1.70302
1.76612
1.00139
1
1
1.21048
1.00001
1.00001
1
1.69774
1
1
1
1.70465
1
1
1.79814
1.79385
1.78388
1.8488
1
1
1.22467
1
1.00094
1
1
1
1
1
1.0077
1
1
1
1
1
1
1
1
1
1
1.00157
1
1
1.00805
1.00002
1.00002
1
1
1
1.00637
1.0012
1.00196
1
1.00003
1.00002
1
1
1.00001
1.00001
1
1
1.00155
1
1
1.0109
1
1.00853
1
2.79047
1
2.70717
1
1
1.01564
1
4.13224
4.28396
1
1
1
3.80615
3.89204
1
1
1.012
1
1.00232
1
1
1.00377
1
1
1.00011
1
1
1
1
1.00012
1.00015
1.0026
1
1
1
1.00355
1
1.0002
1
1
1
1.02204
1
1
1.03128
1
1
1.00015
1
1.0002
1
1.01629
1.02136
1.00017
1
1.12158
1
1
1
1.00023
1
1.11774
1.01728
1.15908
1
1.17024
1
1
1
1.12997
1.00043
1.131
1
1.00019
1
1
1.15695
1
1
1.00046
1.00027
1.00039
1.1303
1
1
1.00001
1
1
1
1.00001
1
1.00001
1.00001
1.00001
1
1
1
1
1
1
1
1
1
1
1
1
1
1.00001
1.00001
1
1
1
1
1
1
1
1
1.00001
1.00001
1
1
1
1
1
1
1.00001
1
1
1.00001
1
1
1
1
1.00001
1.00001
1
1
1
1
1
1
1
1.32199
1
1.00001
1
1
1
2.41032
1
2.16575
1
3.37313
1
1
4.04222
3.91354
1
1.40048
1
1
1
1
1
1
1
1
1
1
1.31012
1
1
1
1
1
1
1
1
1
1
1
1
1
1
1.31561
1
1
1
1
1
1
1
1
1.00001
1
1
1.69405
1
1
1
1
1
1.45244
1
1.63522
1.60341
1
1.36202
1
1.00001
1.00001
1
1
1.56822
1
1.60705
1.00001
1.00001
1
1
1.48258
1.00002
1.00002
1.00002
1.00002
1
1
1
1
1.58508
1.00002
1.00003
1
1
1.47554
1.00001
1.00002
1
1
1
1
1.00004
1.00003
1
1
1
1
1
1
1
1
4.35906
4.36249
3.96438
1
3.98378
1
1
2.70461
2.696
1
1
2.81175
1
2.44149
2.35916
1
1
4.31912
3.7554
3.62056
1
1
4.04745
4.14571
1
3.96033
1
4.22252
1
1
4.06968
1
3.77771
1
3.60936
1
1
1
1.08927
1.00054
1
1
1
1
2.43481
2.109
1
1.0013
1
1.06045
1
1
1
2.25575
2.62339
1.08765
1
1.00057
1
1
1
1
2.46075
2.07483
1
1
1.00045
1
1.05822
1
1
1
1
1
2.73169
2.16483
1
1.07567
1
1.00096
1
1
1
1
2.1337
2.59877
1
1
1
1.00039
1.00062
1
1
1
1
1.07065
1.0554
1
1
1
1
1
1
2.50719
2.48511
1.9988
1.99279
1
1
4.91842
1
4.95359
1
1
1
1
1
1
1
3.0542
1.00241
3.15476
1.32768
1.17091
2.68054
1.00084
1
1
1
1
1
1
1
1
2.48497
4.16393
4.28998
4.71099
5.10863
4.42074
4.87283
4.20525
4.06589
5.0378
4.704
4.87369
4.41028
1
1
1
1
1
1
1
1
1
1
1
1
1
1
1
1
2.83836
1
1
1
1
1
1
1.09719
1.05636
1.05518
1.03498
1.02069
1
1
1
1
1
1
1
1
1
1
1
1.02105
1.04068
1
1
1
1
1
1.0358
1.07601
1.02563
1.04276
1.02529
1.03744
1
1
1
1
1
1
1.46789
1.64087
1.41299
1
1
1
1
1
1
1
1
1
1
1
1
1.12661
1.23461
1.08967
1.13722
1.04981
1
1
1
1
1
1.00849
1.01523
1.0041
1.00768
1.00281
1.01424
1.00752
1
1
1
1
1
1
1
1
1
1
1
1
1
1
1
1
1.0058
1.00569
1.00348
1
1
1
1
1
1
1
1
1.09944
1.21011
1.05914
1.10535
1.07579
1.11079
1
1
1
1
1.00001
1
1
1
1
1
1.00001
1.00001
1
1.00001
1.00001
1
1
1
1
1
1
1
1
1
1
1
1
1.00781
1.01446
1.00415
1.0077
1.00369
1.0055
1
1
1
1
1
1
1
1
1
1
1
1
2.64766
2.37565
3.44344
3.10138
3.47154
3.37329
1
1
1
1
1
1
2.68169
3.33927
2.06821
2.57684
2.372
3.1145
1
1
1
1
1
1.00002
1.00001
1.00001
1
1.00001
1.00001
1
1
1
1
1
1
1
1
1
1
1
1
1
1
1
1
1
1
1
1
1
1
1
1
1
1
1
1
1
1
1
1
1.00001
1
1
1
1
1.00122
1.00075
1.00281
1.00211
1.00291
1.00263
1
1
1
1
1
1
1
1
1
1
1
1
1
1
1
1
4.5356
4.01058
4.33441
4.29062
1.00031
1.00058
1.00089
1.00127
1
1
1
1
1
1.00011
1.00009
1.0002
1.0002
1.00028
1.00001
1.00001
1.00001
1.00001
1.00001
1
1
1
1
1
1
1
1
1
1
1
1
1
1
1
1
1
1
1
1
1
1
1
1.0001
1.00008
1.00023
1.0002
1.00029
1.00027
1
1
1
1
1
1
1.01184
1.00963
1.00741
1.0057
1
1
1
1
1
1
1
1
1
1
1
1
1
1
1
1
1
1
1.00004
1.00009
1.00001
1.00003
1.00001
1.00001
2.22772
1.65521
1.84173
1.00018
1.00041
1.00011
1.0002
1.00008
1
1
1
1
1
1
1
1
1.14392
1.07669
1.05074
1.02508
1.10493
1.04304
1.12543
1.05304
1
1
1
1
1
1
1.24287
1.45711
1.21163
1.31434
1.15755
1.00003
1.00001
1.00008
1.00004
1.00007
1.00002
1
1
1
1
1
1
1.13847
1.05843
1.06335
1.03413
1.20058
1.10165
1.16248
1.07094
1.00179
1.00108
1.00385
1.0028
1.00284
1.0029
1
1
1.00348
1.0073
1.01015
1.02065
1.0067
1.01603
1.00642
1.01613
1
1
1
1
1
1
1
1
1.12394
1.06257
1.16322
1.08416
1.05635
1.03543
1.11858
1.05283
1
1
1
1
1
1
1.00084
1.00226
1.00043
1.001
1.00134
1.00275
1.00088
1.00216
2.43744
1.96161
2.70449
2.11709
2.69141
2.14899
2.57843
2.07727
1
1
1
1
1
1
1
1
1
1
1
1
1
1.00001
1.00001
1.00001
1
1
1
1.30221
1.50623
1.21422
1.3091
1.1939
1.25865
1
1
1
1
1
1
1
1
1
1
1
1
1
1
1
1
1
1
1
1
2.35604
2.09388
3.17322
2.79523
3.23269
3.12166
3.76355
3.81676
4.67763
4.37783
4.39499
4.08947
3.87858
3.86866
4.51504
4.3166
4.42131
4.09605
4.67914
3.64317
4.3306
3.94181
4.75945
4.05623
1
1
1
1
1
1
3.06146
2.31482
2.0888
1.74688
2.66557
1.96118
1
1
1
1
1
1
1
1
1
1
1
1
1
1
1
1
1
1
1
1
1
1
1
3.75489
3.27975
3.05183
2.6617
3.51472
2.88308
3.98558
4.90241
3.90085
4.6081
1
1
1
1
1
1
2.92714
3.48936
2.46399
2.76165
2.45524
2.78208
1
1
1
1
1
1
4.64175
4.30223
5.34014
5.07823
5.05714
4.62228
2.18862
2.75453
1.876
2.24171
1.65268
1
1
1
1
1
1
4.28921
4.12912
5.00476
4.65346
4.75893
4.35118
3.98195
4.99307
4.50345
5.17505
4.46828
4.99848
2.29597
2.84584
1.81057
2.10997
1.73676
1.93105
1.00844
1.00526
1.01861
1.01395
1.02001
1.01788
1
1
1
1
1
1
1
1
1
1
1
1
1
4.42949
4.19372
3.6988
4.6514
4.18951
1
1
1.01335
1.00882
1.00805
3.82944
3.83493
4.73852
4.43642
4.51959
4.14637
1
1
1
1
1
1
1
1
3.84838
3.7877
4.62126
4.36751
4.43849
4.09727
1.00025
1.00052
1.00061
1.00136
1.00042
1.00107
1
1
1
1
1
1.10921
1.21134
1.00424
1.00376
1.00966
1.00878
1.01447
1.01352
1
1
1
1
1
1
1
1
1
1
1
1
1
1
1
1
1
1
1
1
1
1
1
1
1
1
1
1
1
1
1
1.03012
1.02248
1.07035
1.05768
1.07971
1.07408
1.00994
1.01903
1.00321
1.00661
1.0033
1.00378
1
1
1
1
1
1
1
1
1
1
1
1
1
1
1
1
1.00002
1.00004
1.00001
1.00001
1.00001
1.00001
1.00011
1.00006
1.00029
1.00017
1.00022
1.0001
1.19786
1.1357
1.83557
1.00375
1.00301
1.00879
1.00709
1.01259
1
1
1
1
1
1
1.00003
1.00009
1.00013
1.00025
1.00008
1.00019
1
1
1
1
1.00388
1.00135
1.00444
1.00877
1
1
1
1
1
1
1
1.00001
1
1.00001
1
1
1
1
1
1
1.00001
1
1.00001
1.00001
1.00001
1.00001
1
1
1
1.00001
1
1
1
1
1
1
1
1
1
1.00001
1.00001
1.00001
1.00001
1
1
1
1
1
1
1
1
1.00001
1.00002
1.00001
1.00001
1
1
1
1
1.02172
1.04504
1.0346
1.0817
1
1
1
1
1
1
1
1
1
1
1
1
1.73078
2.09702
1
1
1
1
1.00004
1.00004
1.00002
1
1
1
1
1
1
1
1
1
1
1
1
1
1
1
1
1.00747
1.00525
1.01441
1.0108
1.01422
1.0117
1.00001
1.00001
1.00002
1.00005
1.00001
1.00003
1.00001
1.00002
1.00002
1.00004
1.00002
1.00003
1.00002
1.00004
1.00005
1.0001
1.00003
1.00008
1.00059
1.00025
1.00124
1.00054
1
1
1
1
1
1
1
1
1.11752
1.07096
1
1
1
1
1
1
1.00005
1.00002
1.00011
1.00004
1.00008
1.00009
1.00007
1.00005
1.00016
1.00011
1.00011
1.00009
1
1
1
1
1
1
1.00078
1.00028
1.00222
1.00124
1.0016
1.00067
1.08209
1.05099
1.09633
1.05017
1.04455
1.02204
1.0029
1.00629
1.00101
1.00251
1.00091
1.00135
1.04568
1.03706
1
1
1
1
1
1
1.00006
1.00002
1.00013
1.00005
1
1
1
1
1
1
1
1.33678
1.59558
1.16115
1.26023
1.14298
1.19999
1
1
1
1
1
1
1.41424
1.59512
1.31957
1.44624
1.33445
1.4514
1.4516
1.63658
1
1
1
1
1
1.0056
1.00179
1.00247
1.00097
1.00755
1.00373
1.00586
1.00231
1.05902
1.02766
1.02197
1.00916
1.01353
1.00693
1
1
1
1
1
1
1
1
1
1
1
1.25457
1.49875
1.10907
1.21773
1.10606
1.1589
1
1
1
1
1
1
1
1
1
1
1
1.00091
1.00048
1.00034
1.00019
1.0007
1.00031
1
1
1
1
1
1.00105
1.00305
1.00426
1.00852
1.00225
1.00648
1
1
1
1
1
1
1.00372
1.00819
1.00158
1.00326
1.0017
1.00225
1
1
1
1
1
1
1.00057
1.00107
1.00037
1.00084
1
1
1
1
1
1
1
1
1
1
1
1
1.00033
1.00071
1.00021
1.00032
1.00016
1.0002
1
1
1
1
1.00001
1.00001
1.00001
1.00003
1
1
1
1
1
1
1
1
1
1
1.06949
1.03706
1.07739
1.03688
1
1
1
1
1.05253
1.02972
1.02551
1.01332
1.01597
1.00785
1
1
1
1
1
1
1.00002
1.00003
1.00001
1.00001
1.00001
1.00002
1
1
1.20229
1.42722
1.10952
1.22506
1.0659
1
1
1
1
1
1.25697
1.4976
1.1295
1.25079
1.08558
1
1
1
1
1
1
1
1
1
1
1
1
1
1
1
1
1.03877
1.0255
1.08038
1.06484
1.07904
1
1
1
1
1
1
1.0541
1.03436
1.10643
1.08127
1.11327
1.1138
1.3212
1.54227
1.15249
1.27598
1.10532
1.17249
1.00003
1.00009
1.00003
1.00007
1
1
1
1
1.00009
1.00006
1
1
1
1
1
1
1
1
1
1
1
1.00001
1.00001
1.00003
1.00002
1.00003
1.00001
1
1
1
1
1
1
1.00016
1.00013
1
1
1
1
1
1
1.00001
1.00001
1.00003
1.00002
1.00003
1.00003
1.00001
1.00002
1.00001
1.00001
1
1.00001
1.15832
1.07767
1.0992
1.07143
1
1
1
1
1
1
1
1
1.00092
1.00074
1.00175
1.00086
1
1
1
1
1
1
1
1
1
1
1
1
1
1
1
1
1
1
2.64259
2.46436
2.78506
2.52064
2.44296
2.10559
2.21518
2.01763
1
1
1
1
1
1
1
1
1
1
1
1
1
1
1
1
1
1
1.00032
4.50213
4.74516
4.86223
5.15046
1
1
1
1
5.03927
4.85034
4.76801
4.50469
1
1
1
1
1.03104
1.05944
1.01794
1.03751
1.00978
1
1
1
1
1
1.48876
1.83738
1.33143
1.43814
1
1
1
1
1
1
1
1
1
1
1
1
1
1
1
1
1
1
1
1
1.03617
1.04996
1.268
1.32199
1
1
1
1
1
1
1
1
1
1
1
1
1
1
1
1
1
1
1
1
1
1.00157
1.00014
1.00017
1.00013
1.00015
1
1
1
1
1
1
1
1.01699
1.01937
1.02459
1.02163
3.44653
3.95703
3.38617
4.17818
2.05908
2.19734
2.33836
2.52334
1
1
1
1
1
4.00772
3.66922
1
1
1
1
1.00001
1
1
1
1
1.00001
1.00001
1.00325
1.00219
1.00182
1.00092
2.4551
2.43575
2.47962
1
1
1
1
1.00001
1.00001
1.00001
1.00001
3.40841
3.54392
3.53011
1
1
1
1
1
1
1
1
1
1
1
1.0757
1.0724
1
1
1
1
1
1
2.12945
2.16859
2.55862
2.53903
1.00159
1
1
1
1.0001
1.0002
1
1
1
1
2.60413
2.64622
3.2508
3.48818
3.52761
3.48744
1.5558
1.77163
1.77436
2.20097
1
1
1
1
1
1
1
1.00001
1
1
1
1
1
1
1
1
1
1
1.01457
1.00744
1.03301
1.01563
1.00028
1.00048
1.00017
1.00028
1.00014
1.00017
2.51749
2.35966
2.00342
1.88445
2.03704
2.61445
1.8238
2.16313
1.7825
2.05864
1
1
1
1
1
1
1
1
1
1
1.0001
1.00007
1.00021
1.00016
1.00016
1.00015
1
1
1
1
1.05458
1.04442
1.11365
1.0996
1.1247
1.1139
1
1
1.00001
1
1
1
1
1
1.00001
1.00002
1.00003
1.00004
1.00004
1.00004
1
1
1
1
1
1
1
1
1
1
1
1
1
1
1
1.22594
1.45334
1.11889
1.22878
1.1098
1.17069
1.03577
1.02426
1.07335
1.06171
1.07906
1.07264
1
1
1
1
1
1
1
1
1
1
1
1
1
1
1
2.50239
2.7204
2.577
2.72125
1.58384
2.0287
1.46178
1.62541
1.78904
2.25056
1.64328
2.10651
1.00598
1.00385
1.00328
1.00271
1
1
1
1
1.00001
1
1
1
1.00001
1
1
1
1
1
1
1
1
1
1
1.00001
1.00001
1.00002
1.00001
1.00001
1
1
1
1
1
1
1
1
1.04976
1.07732
1.05208
1.08669
1
1
1
1
1.34468
1.25838
1.35823
1.30178
1.4064
1.60335
1.48967
1.57314
1.56586
1.63538
1.85182
1.86326
2.22991
2.2437
1.00004
1.00004
1.00007
1.00009
1.00015
1.00079
1.00092
1.02725
1.02236
1.04823
1.03198
1.00007
1.00005
1.00006
1.00004
1.11877
1.09017
1.10067
1.08517
1
1
1
1
1
1
1
1
1
1
1
1
1
1
1
1
1
1
1
1
1.00016
1.00013
1.00015
1.00014
1.00009
1.00016
1.00004
1.00008
1.00007
1.00014
1.00041
1.00072
1.00025
1.00047
1.00024
1.00009
1.00021
1.00008
1.0328
1.05364
1.02495
1.04342
1
1
1
1
1
1
1
1
1.00081
1.00076
1.00131
1.00129
1
1
5.53499
5.37511
1
1
1
1
1
1
1
1
1
1
1
1
1
1
1
1
1
1
1
1
1
1
1
1
1
1
1
1.00001
1.00011
1.00073
1.00838
1.06031
1.46923
2.91225
5.58819
6.16359
5.62855
5.52631
5.59885
5.42828
5.23046
5.33359
5.23445
5.1337
5.02169
4.8484
4.9113
5.07265
5.10881
5.6377
5.87795
2.68852
1.33356
1.0481
1.00587
1.00063
1.00007
1.00001
1
1
1
1
1
1
1
1
1
1
2.69529
1.31103
1.03352
1.00399
1.00053
1.00006
1.00001
1
1
1
1
1
1
1
1
1
1
2.98697
1.32584
1.02981
1.00346
1.00042
1.00006
1.00001
1
1
1
1
1
1
1
1
1
1
2.69124
1.35361
1.03928
1.00343
1.00034
1.00006
1.00001
1
1
1
1
1
1
1
1
1
1
2.45203
1.29857
1.0283
1.00255
1.00041
1.00008
1.00001
1
1
1
1
1
1
1
1
1
1
2.47617
1.32666
1.03739
1.00402
1.00047
1.00008
1.00002
1
1
1
1
1
1
1
1
1
1
2.55844
1.29151
1.04418
1.00573
1.00077
1.0001
1.00002
1
1
1
1
1
1
1
1
1
1
2.80746
1.34029
1.05437
1.00706
1.00091
1.00013
1.00002
1
1
1
1
1
1
1
1
1
1
2.79159
1.43982
1.0696
1.009
1.00135
1.00018
1.00002
1
1
1
1
1
1
1
1
1
1
3.21792
1.53163
1.08947
1.0105
1.00185
1.00029
1.00004
1
1
1
1
1
1
1
1
1
1
3.14355
1.67834
1.16621
1.02736
1.00215
1.00034
1.00005
1
1
1
1
1
1
1
1
1
1
3.21035
1.87383
1.16748
1.03401
1.00413
1.00056
1.00007
1.00001
1
1
1
1
1
1
1
1
1
3.42717
2.07569
1.23977
1.06156
1.00965
1.00104
1.00012
1.00001
1
1
1
1
1
1
1
1
1
3.81941
2.11504
1.29316
1.05673
1.00759
1.00116
1.0001
1.00001
1
1
1
1
1
1
1
1
1
3.618
1.92764
1.42871
1.06589
1.00845
1.00093
1.00008
1.00001
1
1
1
1
1
1
1
1
1
3.64231
1.93577
1.3315
1.05248
1.00673
1.00073
1.00006
1
1
1
1
1
1
1
1
1
1
3.50753
1.83032
1.22165
1.03736
1.00472
1.00047
1.00004
1
1
1
1
1
1
1
1
1
1
3.35193
1.75207
1.14263
1.01909
1.00186
1.00022
1.00003
1
1
1
1
1
1
1
1
1
1
1
5.20265
2.27516
1.31917
1.05123
1.00533
1.00076
1.00009
1.00001
1
1
1
1
1
1
1
1
1
1
1
1
1
1
1
1
1
1
1
1
1
1
1
1
1
1
1
1
1
1
5.20701
1
1
1
1
1
1
1
1
1
1
1.00001
1.00006
1.00053
1.00561
1.04373
1.32241
2.26978
5.6946
5.44827
6.37082
6.52142
6.56284
6.66865
6.55229
6.57318
6.37261
6.20813
6.07039
5.96162
5.973
5.77039
5.71387
5.79264
5.76384
5.87128
5.97158
5.58214
1
1
5.10241
2.96699
1.35497
1.03755
1.00465
1.00056
1.00008
1.00001
1
1
1
1
1
1
1
1
1
1
1
1
1
1
1
1
1
1
1
1
1
1
1
1
1
1
1
1
1
1
1
1
1
1
1
1
1
1.00001
1.0001
1.0011
1.00766
1.07041
1.44296
2.87312
5.47108
5.84301
5.60571
5.25371
5.5118
5.49319
5.28063
5.14961
5.00859
4.89924
4.82882
5.07429
4.90925
4.86656
4.96647
5.17189
5.0767
1
1
1
1
1
1
1
1
1
1
1.00001
1.00007
1.00044
1.00353
1.04084
1.40436
2.4809
1
1
1
1
1
1
1
1
1
1
1.00001
1.00006
1.00035
1.00319
1.035
1.24585
2.6321
1
1
1
1
1
1
1
1
1
1
1.00001
1.00007
1.00034
1.00271
1.028
1.33035
2.54838
1
1
1
1
1
1
1
1
1
1
1.00001
1.00007
1.00038
1.00343
1.03075
1.24611
2.50411
1
1
1
1
1
1
1
1
1
1
1.00002
1.00007
1.00047
1.0022
1.0329
1.28956
2.66449
1
1
1
1
1
1
1
1
1
1
1.00002
1.0001
1.0006
1.0056
1.04632
1.40348
2.3763
1
1
1
1
1
1
1
1
1
1
1.00002
1.00013
1.00084
1.00634
1.06459
1.45742
2.47016
1
1
1
1
1
1
1
1
1
1
1.00003
1.00016
1.00113
1.00883
1.06953
1.36862
2.67059
1
1
1
1
1
1
1
1
1
1
1.00004
1.00027
1.00212
1.01497
1.09439
1.54738
2.96515
1
1
1
1
1
1
1
1
1
1.00001
1.00005
1.00045
1.00326
1.01973
1.1543
1.59022
3.18364
1
1
1
1
1
1
1
1
1
1.00001
1.00006
1.00053
1.0042
1.02699
1.20487
2.14001
3.76009
1
1
1
1
1
1
1
1
1
1.00001
1.00012
1.0009
1.00792
1.05212
1.29935
1.96402
3.43371
1
1
1
1
1
1
1
1
1
1.00001
1.00007
1.00104
1.00945
1.07309
1.27116
2.0292
3.5081
1
1
1
1
1
1
1
1
1
1.00001
1.00008
1.00093
1.00848
1.06128
1.35626
2.41
3.43867
1
1
1
1
1
1
1
1
1
1.00001
1.00007
1.00073
1.00745
1.05363
1.25369
2.17166
3.96363
1
1
1
1
1
1
1
1
1
1
1.00004
1.00046
1.00534
1.03278
1.23743
2.22338
3.33162
1
1
1
1
1
1
1
1
1
1
1.00003
1.00022
1.00216
1.01715
1.15898
1.75048
3.07344
)
;

boundaryField
{
    sides
    {
        type            fixedValue;
        value           uniform 1;
    }
    top
    {
        type            fixedValue;
        value           uniform 1;
    }
    outlet
    {
        type            fixedValue;
        value           uniform 1;
    }
    bottom
    {
        type            fixedValue;
        value           uniform 1;
    }
    inlet
    {
        type            fixedValue;
        value           uniform 10;
    }
}


// ************************************************************************* //
