/*--------------------------------*- C++ -*----------------------------------*\
  =========                 |
  \\      /  F ield         | OpenFOAM: The Open Source CFD Toolbox
   \\    /   O peration     | Website:  https://openfoam.org
    \\  /    A nd           | Version:  6
     \\/     M anipulation  |
\*---------------------------------------------------------------------------*/
FoamFile
{
    version     2.0;
    format      ascii;
    class       volScalarField;
    location    "3.18";
    object      epsilon;
}
// * * * * * * * * * * * * * * * * * * * * * * * * * * * * * * * * * * * * * //

dimensions      [0 2 -3 0 0 0 0];

internalField   nonuniform List<scalar> 
4214
(
0.202798
0.0721666
0.0295478
0.0157271
0.0114471
0.0104377
0.0108543
0.0126437
0.0173251
0.0299087
0.0692776
0.226536
0.976842
3.75914
9.28606
13.5744
11.3191
6.21974
3.84274
3.03096
2.77422
2.81218
2.97122
3.07035
2.94736
2.63513
2.15899
1.59093
1.02703
0.577016
0.28401
0.127312
0.0562001
0.027518
0.0168612
0.0133481
0.0135971
0.0185219
0.0351362
0.0860745
0.241898
0.0260303
0.0152764
0.0114881
0.0102697
0.0100459
0.0103515
0.0112746
0.0134346
0.0186643
0.0321892
0.072936
0.230308
0.976854
3.78199
9.54681
14.4534
13.151
7.54357
4.50461
3.5265
3.23621
3.277
3.46448
3.61156
3.57178
3.27989
2.74706
2.07884
1.38902
0.802019
0.400434
0.178403
0.0760934
0.0347854
0.0194561
0.0138241
0.0119089
0.011651
0.0130335
0.0177659
0.0310989
0.0111278
0.0103033
0.0100401
0.0100526
0.0102724
0.010787
0.0119112
0.0143943
0.0202093
0.0346759
0.0762958
0.228766
0.936497
3.6461
9.44874
14.9943
14.7743
9.19187
4.96952
3.75771
3.58751
3.75858
4.07142
4.33645
4.37905
4.08791
3.49411
2.70041
1.85075
1.10054
0.561846
0.251338
0.104749
0.0451673
0.0232903
0.0152858
0.0124109
0.0113004
0.0109546
0.0110979
0.0119302
0.0103673
0.0102454
0.0102687
0.0104097
0.0107165
0.0113427
0.0126703
0.0155296
0.0220229
0.0375138
0.0797808
0.224426
0.869932
3.36877
9.00906
15.0761
16.1935
11.4334
6.26025
4.28309
3.99215
4.25533
4.7173
5.15235
5.34021
5.11834
4.4697
3.52052
2.46496
1.50357
0.78614
0.355488
0.14622
0.0600838
0.028735
0.0173713
0.0133933
0.0118319
0.0112145
0.0109702
0.0109711
0.0105542
0.0105706
0.0106645
0.0108578
0.0112353
0.0119905
0.0135711
0.0168934
0.024203
0.0408717
0.0837133
0.218518
0.782895
2.98057
8.25161
14.6475
17.2107
13.826
8.17451
5.18031
4.41603
4.67774
5.3159
5.98197
6.39774
6.34239
5.70168
4.59125
3.27664
2.04119
1.09233
0.501911
0.205774
0.0814451
0.0364369
0.0201959
0.0146813
0.0125403
0.0117054
0.0113281
0.0111684
0.01094
0.0110016
0.0111311
0.0113698
0.011832
0.0127527
0.0146594
0.0185674
0.0268986
0.045024
0.0887101
0.213418
0.690639
2.53253
7.24107
13.7208
17.6025
15.9873
10.7792
6.67371
5.06549
5.05706
5.78866
6.73631
7.47188
7.69908
7.19337
5.97339
4.3556
2.76506
1.50851
0.705325
0.290627
0.111962
0.0474054
0.0240582
0.0163767
0.0134171
0.0123073
0.0118117
0.0115838
0.011407
0.011496
0.011657
0.01195
0.012525
0.0136662
0.0160045
0.0206731
0.0303303
0.0503695
0.0955899
0.211686
0.606717
2.08132
6.08622
12.3206
17.2304
17.5197
13.4885
8.67961
6.1332
5.55653
6.16563
7.30456
8.45446
9.08831
8.89201
7.69029
5.77475
3.73834
2.07427
0.984374
0.410119
0.15523
0.063057
0.0293659
0.0186395
0.0145035
0.013016
0.0123719
0.012087
0.0119424
0.0120512
0.0122484
0.0126141
0.0133457
0.0147873
0.0177111
0.023392
0.0348285
0.0574864
0.105448
0.21595
0.542647
1.67963
4.90761
10.5654
16.0936
18.1348
15.7821
11.1357
7.7311
6.34132
6.58349
7.7426
9.20845
10.3944
10.6859
9.70499
7.58883
5.03391
2.84388
1.36401
0.576164
0.215837
0.0853667
0.0366729
0.0217054
0.0158717
0.0138559
0.0130025
0.0126541
0.0125401
0.0126709
0.0129181
0.0133868
0.0143428
0.0162019
0.0199402
0.0270003
0.0408961
0.0672263
0.11977
0.228921
0.505987
1.36648
3.84147
8.66988
14.3162
17.7215
17.1939
13.602
9.7409
7.51604
7.15543
8.15069
9.80294
11.4771
12.4337
11.9189
9.79319
6.73195
3.87134
1.87889
0.803991
0.299322
0.117001
0.0466956
0.0259084
0.0176238
0.0148717
0.0137102
0.0132729
0.0132068
0.0133666
0.0136883
0.014308
0.0155939
0.0180436
0.0229444
0.0319229
0.04931
0.0808628
0.140675
0.253765
0.501072
1.15998
2.99309
6.87368
12.158
16.3891
17.4942
15.3388
11.6676
8.97195
7.95455
8.59692
10.308
12.3587
13.9859
14.1946
12.3061
8.85959
5.23389
2.56917
1.11335
0.411982
0.16146
0.0603096
0.0317138
0.0198972
0.0161344
0.0145152
0.0139435
0.0139518
0.0141562
0.0145952
0.0154408
0.0172253
0.0205222
0.0271292
0.0388215
0.0612883
0.100311
0.171242
0.294628
0.531156
1.06025
2.40789
5.37512
9.94584
14.4252
16.7373
16.0749
13.2849
10.4921
8.9524
9.1366
10.761
13.1072
15.3199
16.3568
15.0004
11.3638
6.98465
3.47366
1.52751
0.560502
0.223223
0.0785016
0.0397576
0.0228669
0.0177496
0.0154527
0.0146803
0.0147927
0.0150688
0.0156993
0.0168872
0.019447
0.0239714
0.0331596
0.0487337
0.07877
0.12846
0.216012
0.357218
0.600387
1.05842
2.07933
4.28473
7.98364
12.2151
15.2064
15.8007
14.1379
11.6822
9.95953
9.75214
11.1963
13.7473
16.4855
18.2917
17.7264
14.1362
9.10365
4.62804
2.08173
0.750675
0.307873
0.102244
0.0508964
0.0267418
0.0198686
0.0165718
0.015514
0.015761
0.0161514
0.0171065
0.0188127
0.0226179
0.0289231
0.0421531
0.0632842
0.104878
0.169621
0.281721
0.449489
0.715266
1.14663
1.97129
3.61536
6.47217
10.1328
13.2977
14.7542
14.1729
12.3504
10.764
10.3519
11.6167
14.3028
17.5185
19.9947
20.307
17.0153
11.516
6.01394
2.79744
0.987779
0.422375
0.132282
0.0662741
0.0317502
0.0227113
0.0179363
0.016494
0.0169136
0.0174816
0.0190115
0.0214879
0.0273742
0.0362199
0.0560345
0.0849712
0.1447
0.230022
0.378305
0.582097
0.886391
1.32167
2.04367
3.31432
5.48001
8.44695
11.4046
13.2959
13.554
12.4938
11.2343
10.8345
11.998
14.7977
18.4497
21.5319
22.5748
19.8181
14.0819
7.55892
3.69603
1.26932
0.575653
0.168797
0.0874341
0.0381064
0.0266067
0.0196249
0.0176971
0.0183539
0.0191851
0.0217882
0.0253437
0.0348869
0.0471496
0.0781986
0.117437
0.20658
0.318083
0.520467
0.768393
1.12977
1.58796
2.27175
3.30895
4.97244
7.28496
9.81722
11.7716
12.5392
12.1284
11.3199
11.1165
12.3291
15.2717
19.316
22.9179
24.5034
22.3422
16.6309
9.12056
4.78387
1.58124
0.779493
0.210922
0.116532
0.0459307
0.0320657
0.0217222
0.0192526
0.0202902
0.0214551
0.0261989
0.0310093
0.0474128
0.0635107
0.114851
0.165444
0.304514
0.443745
0.730511
1.02307
1.46955
1.95601
2.64781
3.5358
4.86643
6.64099
8.62554
10.3825
11.371
11.4405
11.1034
11.1933
12.6135
15.7645
20.1382
24.1767
26.0931
24.3829
19.0094
10.493
6.07155
1.88958
1.05021
0.25582
0.156769
0.0550827
0.0399337
0.0242838
0.0213978
0.0232115
0.0245292
0.0338942
0.0391808
0.0695325
0.0871931
0.177753
0.233549
0.463007
0.615401
1.04612
1.35884
1.94905
2.43755
3.18816
3.9346
5.06112
6.28245
7.77273
9.2078
10.1801
10.5896
10.6512
11.067
12.7801
16.2848
20.7999
25.3286
27.1006
25.8148
21.104
11.3902
7.62393
2.12927
1.41256
0.296816
0.213351
0.0647688
0.0517476
0.0272213
0.0246107
0.0198786
0.0187026
0.0176248
0.0166689
0.0158227
0.015063
0.0143654
0.0137086
0.0130814
0.012489
0.0119476
0.0114876
0.0111515
0.0112618
0.0141549
0.0678006
0.727293
0.0195959
0.0184444
0.0174947
0.0166783
0.0159498
0.0152786
0.0146437
0.0140315
0.0134398
0.0128796
0.0123666
0.0119292
0.0116208
0.0117934
0.0148377
0.0695656
0.815983
0.0190637
0.0182614
0.0175266
0.0168442
0.0162007
0.0155846
0.014987
0.0144037
0.0138393
0.0133068
0.0128207
0.0124068
0.0121345
0.0123626
0.0156905
0.0726269
0.876688
0.019204
0.0184785
0.0177993
0.0171599
0.0165492
0.0159584
0.0153817
0.0148194
0.0142793
0.0137733
0.0133141
0.0129266
0.0126952
0.0129925
0.0166561
0.0760935
0.932344
0.0195014
0.0188002
0.0181572
0.0175469
0.0169573
0.0163825
0.0158211
0.0152776
0.0147612
0.0142817
0.0138497
0.0134925
0.0133074
0.0136976
0.0177715
0.0802069
0.985226
0.0197852
0.0191863
0.0185847
0.0179941
0.0174165
0.0168522
0.0163042
0.01578
0.015288
0.0148351
0.0144312
0.0141078
0.0139758
0.0144857
0.0190692
0.0853383
1.04331
0.0203621
0.0196941
0.0190804
0.0184921
0.0179204
0.0173655
0.0168327
0.0163299
0.0158635
0.0154377
0.0150632
0.0147769
0.0147075
0.0153665
0.020583
0.0915962
1.10712
0.0207202
0.0201724
0.0196
0.0190276
0.0184661
0.0179241
0.0174103
0.016932
0.0164926
0.0160946
0.015751
0.0155061
0.0155102
0.0163498
0.0223401
0.0987456
1.1776
0.0214347
0.0207857
0.0201872
0.0196119
0.0190585
0.0185331
0.0180429
0.0175921
0.017181
0.0168116
0.0165012
0.0163027
0.0163929
0.0174471
0.024319
0.106647
1.25338
0.0218563
0.0213421
0.0207879
0.0202328
0.0196987
0.0191979
0.0187369
0.0183164
0.0179351
0.0175954
0.0173212
0.017175
0.0173663
0.0186732
0.0265409
0.115617
1.33284
0.0226755
0.0220429
0.0214605
0.02091
0.0203974
0.0199271
0.0194998
0.0191119
0.0187617
0.0184534
0.0182195
0.0181325
0.0184433
0.0200465
0.0290586
0.125637
1.4152
0.0231663
0.022681
0.0221509
0.0216352
0.0211595
0.0207284
0.0203389
0.0199856
0.0196681
0.0193936
0.0192056
0.0191859
0.019638
0.0215856
0.031899
0.136564
1.49905
0.0240823
0.0234696
0.0229232
0.022433
0.0219984
0.0216109
0.0212618
0.0209447
0.0206619
0.0204249
0.0202896
0.020347
0.0209654
0.0233092
0.0350762
0.148131
1.58194
0.024655
0.0242054
0.0237317
0.0233001
0.0229203
0.0225818
0.0222752
0.0219963
0.0217514
0.0215571
0.0214826
0.021629
0.0224412
0.0252372
0.0385935
0.160003
1.66181
0.0256647
0.0250984
0.0246398
0.0242604
0.0239365
0.0236484
0.0233861
0.0231483
0.0229459
0.0228013
0.0227969
0.0230487
0.0240867
0.0273956
0.0424506
0.171802
1.73494
0.0263435
0.0259702
0.0256133
0.0253124
0.0250513
0.0248164
0.0246014
0.0244097
0.024256
0.0241699
0.0242459
0.0246236
0.0259197
0.0297943
0.0466385
0.183243
1.79766
0.0274517
0.0270073
0.0267031
0.0264716
0.026272
0.0260927
0.0259297
0.0257909
0.025694
0.0256768
0.0258447
0.0263712
0.0279554
0.0324517
0.0511555
0.194055
1.84803
0.0282835
0.0280728
0.0278837
0.0277356
0.0276021
0.0274843
0.0273812
0.0273045
0.0272744
0.0273377
0.0276105
0.0283079
0.0302096
0.035386
0.05601
0.204087
1.88149
0.0295052
0.0293007
0.0291836
0.0291128
0.0290486
0.0290003
0.028967
0.028964
0.0290136
0.0291713
0.0295645
0.0304488
0.0327013
0.0386153
0.0612446
0.213597
1.89815
0.0305655
0.0306013
0.0305869
0.0306042
0.0306196
0.0306529
0.0307024
0.0307859
0.0309291
0.0311966
0.0317268
0.0328232
0.0354519
0.0421669
0.0668934
0.222655
1.89385
0.0319263
0.0320394
0.0321098
0.03222
0.0323278
0.0324568
0.0326046
0.032791
0.0330451
0.0334393
0.0341244
0.0354515
0.0384747
0.046059
0.0730024
0.231816
1.86555
0.0333346
0.0335711
0.0337516
0.0339695
0.0341877
0.0344292
0.0346938
0.0350025
0.0353884
0.0359301
0.036792
0.0383758
0.0418202
0.0503481
0.0797309
0.24275
1.81706
0.0348678
0.0352236
0.0355287
0.0358686
0.0362167
0.0365913
0.0369952
0.0374496
0.0379922
0.0387069
0.0397734
0.0416401
0.0455271
0.0550874
0.0872013
0.253687
1.75392
0.0365212
0.0369943
0.0374462
0.0379324
0.0384339
0.0389663
0.0395354
0.0401632
0.0408897
0.0418033
0.0430971
0.0452523
0.0495572
0.0600024
0.0941443
0.261395
1.68588
0.0382751
0.0389123
0.039528
0.0401826
0.0408632
0.0415832
0.0423496
0.0431846
0.0441299
0.0452753
0.046824
0.0492758
0.0539684
0.0651097
0.100562
0.266323
1.61472
0.0401716
0.0409723
0.041783
0.0426396
0.0435331
0.0444767
0.0454796
0.0465643
0.0477725
0.0491943
0.0510361
0.0538041
0.0588562
0.070494
0.106517
0.26845
1.54196
0.0421926
0.043211
0.0442412
0.045331
0.0464759
0.0476871
0.0489752
0.0503628
0.0518917
0.0536501
0.0558405
0.0589645
0.0643683
0.0763299
0.112232
0.269047
1.46884
0.0443824
0.0456233
0.0469169
0.0482856
0.0497297
0.0512621
0.0528956
0.0546537
0.0565779
0.0587534
0.0613745
0.0649257
0.0707172
0.082927
0.118287
0.268951
1.39632
0.0467243
0.0482512
0.0498435
0.0515378
0.0533379
0.0552572
0.0573112
0.0595251
0.0619411
0.0646417
0.0678107
0.0719049
0.078178
0.0906308
0.125169
0.268806
1.32503
0.0492591
0.0510937
0.0530439
0.0551262
0.0573518
0.0597383
0.0623058
0.0650839
0.0681168
0.0714858
0.0753647
0.0801766
0.0870963
0.0998829
0.133469
0.269344
1.25541
0.0519829
0.054196
0.0565562
0.0590957
0.0618305
0.064783
0.0679806
0.0714594
0.0752705
0.0794979
0.0843084
0.0900924
0.0979277
0.111288
0.143968
0.271532
1.18778
0.0549241
0.0575634
0.0604129
0.0634972
0.0668431
0.0704835
0.0744564
0.0788099
0.0836078
0.0889443
0.0949873
0.102102
0.111266
0.12563
0.157725
0.276683
1.12241
0.0580952
0.0612429
0.0646588
0.0683887
0.07247
0.0769487
0.0818796
0.0873301
0.0933856
0.100164
0.107848
0.116796
0.127899
0.143969
0.176196
0.286698
1.05948
0.0615208
0.0652469
0.0693367
0.0738369
0.0788051
0.0843087
0.0904283
0.0972615
0.10493
0.113592
0.123475
0.134961
0.148893
0.167762
0.201374
0.30419
0.999152
0.065213
0.0696241
0.0744999
0.079918
0.0859588
0.0927204
0.100321
0.108907
0.118657
0.129802
0.142651
0.157669
0.175725
0.199074
0.236131
0.332995
0.941507
0.069197
0.0743935
0.0802031
0.0867197
0.0940621
0.102374
0.111831
0.122651
0.135109
0.149552
0.16644
0.186412
0.210503
0.240914
0.284796
0.379105
0.886591
0.073484
0.0796054
0.0865106
0.0943427
0.10327
0.113501
0.125298
0.13899
0.154999
0.173869
0.196316
0.223321
0.256317
0.297818
0.354151
0.452331
0.834404
0.078097
0.0852838
0.0934892
0.102902
0.113765
0.126384
0.14115
0.158564
0.179279
0.20416
0.234367
0.271496
0.317822
0.376863
0.455212
0.569799
0.784892
0.0830431
0.0914771
0.101212
0.112525
0.12576
0.141367
0.159926
0.182205
0.209228
0.242386
0.283599
0.335576
0.402235
0.48946
0.606517
0.763246
0.737947
0.0883374
0.0982099
0.109758
0.123359
0.139512
0.158874
0.182317
0.211022
0.246608
0.291347
0.348476
0.422732
0.521215
0.654897
0.841021
1.09472
0.693381
0.0944042
0.0990244
0.103779
0.108651
0.113615
0.118643
0.123698
0.128741
0.13373
0.138617
0.143351
0.147878
0.152144
0.156091
0.159666
0.162814
0.165488
0.167645
0.169246
0.170265
0.170665
0.17026
0.169226
0.167611
0.165439
0.162749
0.159583
0.155989
0.152022
0.147736
0.143186
0.138429
0.133519
0.128505
0.123437
0.118356
0.113303
0.108314
0.103416
0.0986324
0.0939827
0.105921
0.111058
0.11634
0.121737
0.127233
0.132787
0.138367
0.143924
0.149416
0.154786
0.159985
0.164948
0.16962
0.173938
0.177844
0.181279
0.184195
0.186542
0.188283
0.189387
0.189815
0.189382
0.188266
0.186513
0.184152
0.181222
0.177771
0.173847
0.169512
0.16482
0.159836
0.154616
0.149224
0.143708
0.138128
0.132524
0.126946
0.121426
0.116002
0.110694
0.10553
0.11957
0.125302
0.131182
0.137185
0.143286
0.149444
0.155618
0.161762
0.167824
0.173745
0.179467
0.184925
0.190056
0.194792
0.199071
0.202831
0.206017
0.20858
0.210477
0.211676
0.212137
0.211672
0.210463
0.208556
0.205982
0.202783
0.199008
0.194713
0.189961
0.184813
0.179336
0.173594
0.167652
0.16157
0.155404
0.149206
0.143025
0.136901
0.130873
0.124969
0.119214
0.135897
0.14231
0.148877
0.155576
0.162371
0.16922
0.176077
0.18289
0.189601
0.196149
0.202466
0.208486
0.214136
0.219346
0.224046
0.228173
0.231665
0.23447
0.236543
0.237849
0.238345
0.237846
0.236532
0.234451
0.231637
0.228133
0.223994
0.219279
0.214055
0.20839
0.202354
0.196018
0.189452
0.182721
0.175888
0.169009
0.162138
0.155321
0.1486
0.142011
0.135577
0.155615
0.162817
0.170179
0.177678
0.185274
0.192918
0.200557
0.208136
0.215591
0.222853
0.22985
0.236507
0.242748
0.248495
0.253673
0.258214
0.262052
0.265131
0.267402
0.268828
0.269365
0.268826
0.267394
0.265117
0.262031
0.258184
0.253632
0.248441
0.242682
0.236428
0.229756
0.222743
0.215464
0.207992
0.200394
0.192734
0.18507
0.177454
0.169936
0.162555
0.155334
0.179689
0.187811
0.196095
0.204521
0.213041
0.221601
0.230142
0.238601
0.246908
0.254987
0.26276
0.270144
0.277057
0.283415
0.289136
0.294146
0.298375
0.301763
0.304257
0.305819
0.3064
0.305818
0.304252
0.301754
0.298361
0.294124
0.289105
0.283374
0.277007
0.270083
0.262686
0.254899
0.246805
0.238482
0.230005
0.221445
0.212867
0.204329
0.195888
0.187586
0.179447
0.209436
0.218634
0.227994
0.237496
0.247089
0.256707
0.266288
0.27576
0.285047
0.294063
0.302723
0.310937
0.318615
0.325667
0.332003
0.337545
0.342217
0.345954
0.348701
0.350415
0.351047
0.350415
0.348699
0.34595
0.34221
0.337532
0.331984
0.325639
0.31858
0.310892
0.302668
0.293996
0.284966
0.275666
0.266177
0.256579
0.246945
0.237338
0.227823
0.218448
0.209235
0.246688
0.25715
0.267768
0.278525
0.289363
0.300208
0.31099
0.32163
0.332042
0.342133
0.351807
0.360968
0.369517
0.377357
0.384392
0.390536
0.395708
0.399839
0.402869
0.404755
0.405443
0.404756
0.40287
0.399839
0.395707
0.390531
0.384382
0.377341
0.369497
0.36094
0.35177
0.342085
0.331983
0.321558
0.310904
0.300108
0.289249
0.2784
0.267632
0.257001
0.246527
0.294041
0.30599
0.318082
0.330304
0.34259
0.354857
0.367026
0.379009
0.390712
0.402034
0.412865
0.423104
0.432641
0.441374
0.449198
0.45602
0.461755
0.466329
0.469678
0.471754
0.472505
0.471757
0.469681
0.466333
0.461759
0.456022
0.449197
0.441369
0.432634
0.42309
0.412844
0.402003
0.390672
0.378958
0.366962
0.354782
0.342505
0.330211
0.317981
0.305878
0.29392
0.355258
0.368954
0.38277
0.396698
0.410663
0.424574
0.438339
0.451861
0.465038
0.47776
0.489905
0.501362
0.512014
0.52175
0.530458
0.538039
0.544402
0.549469
0.553171
0.55546
0.55628
0.555463
0.553176
0.549475
0.54441
0.538047
0.530464
0.521754
0.512018
0.50136
0.489898
0.477744
0.465015
0.451828
0.438296
0.424523
0.410606
0.396635
0.3827
0.368876
0.355173
0.435919
0.451655
0.467476
0.483378
0.499277
0.51507
0.530655
0.545923
0.560763
0.575058
0.588676
0.601493
0.613383
0.62423
0.633913
0.64233
0.649382
0.654988
0.659077
0.661596
0.662491
0.661599
0.659082
0.654997
0.649393
0.642341
0.633925
0.624241
0.613395
0.601499
0.588678
0.575054
0.560755
0.545905
0.53063
0.515041
0.499244
0.483341
0.467434
0.451607
0.435866
0.544531
0.562617
0.580736
0.598883
0.616966
0.634874
0.652493
0.6697
0.686375
0.702397
0.717619
0.731914
0.745143
0.757184
0.767914
0.777221
0.785007
0.791184
0.795681
0.798442
0.799414
0.798446
0.795687
0.791193
0.785019
0.777235
0.767929
0.757201
0.74516
0.731924
0.717628
0.702402
0.686378
0.669693
0.652482
0.634864
0.616954
0.598866
0.580715
0.562593
0.544503
0.694472
0.71518
0.73584
0.75645
0.776909
0.797096
0.816889
0.836154
0.85476
0.872581
0.889465
0.905279
0.919876
0.933127
0.944911
0.955112
0.963629
0.970373
0.975271
0.978271
0.979318
0.978274
0.975277
0.970381
0.96364
0.955126
0.944927
0.933146
0.919892
0.905289
0.889477
0.872591
0.854768
0.836153
0.816889
0.797099
0.77691
0.756448
0.735835
0.715173
0.694462
0.907527
0.930959
0.95421
0.9773
1.00012
1.02254
1.04443
1.06566
1.08609
1.10558
1.12398
1.14117
1.15699
1.17131
1.18401
1.19499
1.20413
1.21135
1.21659
1.21978
1.22089
1.21978
1.21659
1.21136
1.20414
1.195
1.18403
1.17133
1.157
1.14118
1.124
1.10559
1.0861
1.06566
1.04444
1.02255
1.00012
0.977305
0.954214
0.930962
0.907527
1.22064
1.2464
1.27174
1.29678
1.32139
1.34546
1.36885
1.39143
1.41306
1.43361
1.45295
1.47093
1.48744
1.50233
1.51551
1.52686
1.5363
1.54373
1.54911
1.55239
1.55351
1.55239
1.54912
1.54374
1.5363
1.52687
1.51552
1.50234
1.48745
1.47094
1.45296
1.43362
1.41307
1.39143
1.36886
1.34547
1.3214
1.29678
1.27175
1.24641
1.22064
1.69944
1.72585
1.75136
1.77642
1.80091
1.82472
1.84773
1.86982
1.89088
1.91079
1.92944
1.94671
1.96251
1.9767
1.98923
1.99998
2.0089
2.01591
2.02097
2.02404
2.02509
2.02404
2.02097
2.01592
2.0089
1.99999
1.98923
1.97671
1.9625
1.94672
1.92944
1.9108
1.89089
1.86983
1.84774
1.82472
1.80092
1.77643
1.75137
1.72585
1.69944
2.46712
2.48918
2.50938
2.52906
2.54816
2.5666
2.5843
2.6012
2.6172
2.63225
2.64627
2.65919
2.67095
2.68148
2.69073
2.69865
2.7052
2.71034
2.71403
2.71627
2.71702
2.71627
2.71403
2.71034
2.7052
2.69866
2.69073
2.68148
2.67095
2.65919
2.64627
2.63225
2.6172
2.6012
2.58431
2.5666
2.54816
2.52906
2.50938
2.48918
2.46712
0.607648
0.056051
0.0132172
0.010743
0.010629
0.0109377
0.0113639
0.0118825
0.0124682
0.0131264
0.0138573
0.0146666
0.0155716
0.016608
0.0178223
0.0192509
0.0208873
0.68982
0.0617524
0.0142964
0.0113698
0.0111556
0.0114267
0.0118317
0.0123349
0.0129056
0.0135474
0.0142568
0.015032
0.015879
0.0168267
0.0179266
0.0192418
0.0208206
0.760859
0.0687226
0.0155203
0.0120621
0.0117309
0.0119539
0.0123356
0.0128196
0.0133729
0.0139966
0.0146848
0.0154305
0.0162311
0.0171
0.0180752
0.0192304
0.0206881
0.836292
0.0763612
0.0168879
0.0128203
0.0123547
0.0125239
0.0128794
0.0133415
0.0138752
0.0144784
0.0151461
0.0158687
0.0166363
0.0174462
0.018307
0.0192388
0.0202818
0.915487
0.0846217
0.0184055
0.0136495
0.0130315
0.0131402
0.0134663
0.0139044
0.0144161
0.0149963
0.0156423
0.0163465
0.0170944
0.0178739
0.0186827
0.0195241
0.0204093
0.998975
0.0934129
0.0200761
0.0145547
0.0137678
0.0138078
0.0141009
0.0145129
0.0150001
0.0155547
0.0161769
0.0168616
0.0175934
0.0183544
0.0191363
0.0199381
0.0207315
1.08638
0.102636
0.0219041
0.0155392
0.0145697
0.0145325
0.0147885
0.0151722
0.015633
0.0161604
0.0167558
0.0174163
0.0181282
0.0188715
0.0196352
0.0204318
0.0213005
1.17731
0.112175
0.0238936
0.01662
0.0154444
0.0153215
0.0155353
0.0158885
0.0163218
0.0168202
0.0173847
0.0180155
0.0187023
0.0194228
0.0201529
0.0208786
0.0216122
1.2702
0.121906
0.026053
0.0178121
0.0164026
0.016183
0.0163487
0.0166692
0.017073
0.0175397
0.0180687
0.0186642
0.0193232
0.0200279
0.02075
0.021455
0.0220766
1.36288
0.131829
0.0284067
0.0191332
0.0174558
0.0171264
0.0172367
0.0175206
0.0178923
0.0183242
0.0188137
0.0193673
0.0199891
0.0206708
0.0213938
0.022147
0.022944
1.45633
0.142164
0.0310199
0.0206003
0.0186152
0.0181588
0.018207
0.0184488
0.0187854
0.0191804
0.0196282
0.0201348
0.0207087
0.021347
0.0220297
0.0227248
0.0234203
1.54963
0.152969
0.0339078
0.0222228
0.0198937
0.0192902
0.0192673
0.0194607
0.0197592
0.0201154
0.0205198
0.0209768
0.0214982
0.0220911
0.0227448
0.023412
0.0239794
1.64144
0.164089
0.0371009
0.02402
0.0213053
0.0205305
0.0204264
0.0205643
0.0208209
0.021136
0.0214953
0.0218994
0.0223616
0.0228981
0.0235223
0.0242306
0.0249956
1.72897
0.175046
0.0406177
0.0260049
0.0228635
0.0218907
0.0216944
0.0217682
0.0219781
0.0222491
0.0225617
0.0229114
0.0233079
0.0237686
0.024314
0.0249458
0.025639
1.80688
0.185052
0.0444749
0.028192
0.0245804
0.0233824
0.0230813
0.023082
0.0232385
0.0234616
0.0237257
0.0240213
0.0243529
0.0247375
0.0252036
0.0257571
0.0262934
1.87183
0.193823
0.0486455
0.0305935
0.0264677
0.0250185
0.0245981
0.0245164
0.0246114
0.0247809
0.0249929
0.025233
0.0255
0.0258086
0.0261957
0.0267171
0.0273952
1.92285
0.202662
0.0529428
0.0332219
0.0285365
0.0268145
0.0262576
0.0260835
0.0261075
0.0262162
0.0263704
0.0265516
0.0267523
0.0269807
0.0272614
0.0276532
0.0282231
1.95502
0.210921
0.0575451
0.0360999
0.0307981
0.028787
0.0280752
0.0277976
0.0277402
0.0277791
0.0278673
0.0279844
0.0281171
0.028269
0.0284514
0.0287108
0.0290294
1.96879
0.21913
0.0624761
0.0392497
0.0332746
0.0309551
0.0300698
0.0296758
0.0295243
0.0294824
0.0294943
0.0295385
0.0295973
0.0296735
0.0297661
0.0299375
0.0302256
1.96021
0.227454
0.0677998
0.0426935
0.0359898
0.0333414
0.0322627
0.0317383
0.0314781
0.0313418
0.0312647
0.0312237
0.0311975
0.0311897
0.0311833
0.031237
0.0313327
1.92668
0.236372
0.0735601
0.0464513
0.0389653
0.035972
0.0346792
0.0340083
0.0336239
0.033377
0.0331959
0.033055
0.0329307
0.0328285
0.0327223
0.0326691
0.0325225
1.87298
0.247292
0.079883
0.0505769
0.0422615
0.0388869
0.037355
0.0365171
0.0359887
0.0356113
0.0353078
0.0350485
0.03481
0.0345977
0.0343852
0.0342249
0.0339627
1.80274
0.258279
0.0868361
0.0551215
0.0459014
0.0421294
0.0403334
0.0393021
0.0386053
0.0380731
0.0376248
0.0372252
0.0368533
0.036511
0.0361733
0.0358738
0.0355107
1.72713
0.264912
0.0935938
0.059933
0.0498779
0.0457267
0.0436545
0.0424037
0.0415117
0.0407971
0.0401761
0.0396113
0.0390824
0.0385856
0.0380992
0.0376537
0.0371811
1.64851
0.26866
0.0998628
0.064964
0.0542455
0.0497352
0.0473761
0.0458761
0.0447553
0.0438233
0.0429958
0.0422344
0.0415185
0.0408414
0.0401887
0.039584
0.0389475
1.56879
0.269269
0.105682
0.0702977
0.0591032
0.0542508
0.0515817
0.049792
0.0483969
0.047203
0.0461269
0.0451295
0.0441899
0.0433005
0.0424495
0.0416451
0.0408294
1.48948
0.268807
0.111291
0.0761116
0.0645985
0.0594012
0.0563784
0.0542409
0.0525103
0.050997
0.0496191
0.0483379
0.0471321
0.0459923
0.0449046
0.0438735
0.0428768
1.41166
0.267848
0.117304
0.0827196
0.0709431
0.0653551
0.0619033
0.0593338
0.0571862
0.0552785
0.0535314
0.051906
0.0503807
0.048943
0.0475804
0.0463002
0.0450637
1.33602
0.267251
0.124216
0.0904592
0.0784097
0.0723282
0.068328
0.0652078
0.0625347
0.0601359
0.0579346
0.0558906
0.0539799
0.0521871
0.0505004
0.0489136
0.0473932
1.26296
0.26749
0.132596
0.0997586
0.0873385
0.080593
0.0758666
0.072033
0.0686906
0.0656758
0.0629127
0.0603573
0.0579815
0.0557659
0.0536929
0.0517486
0.0499211
1.19274
0.269587
0.143207
0.11122
0.0981812
0.0904983
0.0847898
0.0800208
0.0758197
0.0720282
0.0685665
0.0653836
0.0624443
0.0597217
0.0571919
0.0548437
0.0526501
1.12548
0.274905
0.157109
0.125621
0.111527
0.102492
0.0954421
0.0894372
0.0841273
0.0793514
0.0750175
0.071062
0.0674375
0.0641059
0.061036
0.0582027
0.0555636
1.06127
0.285259
0.17575
0.144014
0.12816
0.117161
0.108269
0.100621
0.0938708
0.08784
0.0824121
0.0775016
0.0730418
0.0689779
0.0652638
0.0618566
0.0587276
1.00011
0.303128
0.201086
0.167847
0.149142
0.135294
0.123857
0.114008
0.105377
0.0977361
0.0909287
0.0848329
0.0793512
0.0744033
0.0699209
0.0658516
0.0621497
0.941965
0.332311
0.235977
0.19918
0.175951
0.157961
0.142986
0.130173
0.119062
0.109343
0.100786
0.0932127
0.0864763
0.0804583
0.0750613
0.0702055
0.065807
0.886778
0.378748
0.284738
0.241021
0.210692
0.186655
0.166723
0.149874
0.135468
0.123045
0.112258
0.102831
0.0945479
0.0872312
0.0807386
0.0749489
0.06977
0.834459
0.452169
0.354137
0.297903
0.256459
0.22351
0.196548
0.174141
0.155311
0.13934
0.125684
0.113921
0.103721
0.0948226
0.0870156
0.0801332
0.0740475
0.784898
0.569721
0.455202
0.376912
0.317916
0.271633
0.234547
0.204381
0.179542
0.158868
0.141493
0.126764
0.114178
0.103346
0.093963
0.0857875
0.0786134
0.737942
0.763186
0.606493
0.489474
0.402284
0.335663
0.283727
0.242556
0.209441
0.18246
0.160222
0.141702
0.126132
0.112931
0.10165
0.09194
0.0835314
0.693378
1.09466
0.840986
0.654884
0.521227
0.422776
0.348557
0.291467
0.246771
0.211226
0.182564
0.159162
0.13984
0.123723
0.110156
0.09864
0.0888055
0.0284132
0.0497295
0.117885
0.320518
0.829244
1.7739
3.03006
4.42113
6.16172
8.23365
9.53562
11.0477
17.2704
26.6361
26.572
11.511
2.18277
0.319617
0.0725929
0.0299466
0.0333591
0.0647274
0.162428
0.445356
1.13254
2.36901
3.89299
5.20097
6.40406
7.77785
8.99408
10.8453
17.5614
27.4408
27.8494
12.6255
2.49017
0.375839
0.0870164
0.0340392
0.0406643
0.0868986
0.226759
0.620457
1.55367
3.18733
5.05163
6.25953
6.93538
7.70534
8.78232
10.7765
18.0338
28.2812
28.7038
13.5987
2.80837
0.442341
0.105653
0.0395002
0.0516178
0.119764
0.319213
0.865732
2.13976
4.30404
6.48027
7.37919
7.4904
7.74375
8.71633
10.7748
18.6182
28.9495
29.0441
14.3862
3.13855
0.522292
0.130184
0.0469391
0.0682631
0.168557
0.451509
1.21083
2.95148
5.76339
7.98663
8.31907
7.90503
7.75752
8.68552
10.9179
19.2839
28.9765
28.8234
14.9396
3.48044
0.621694
0.163173
0.057309
0.0938031
0.240932
0.64065
1.69735
4.08409
7.46065
9.23721
8.89405
8.12307
7.77563
8.68848
11.2787
19.5794
28.2817
28.0536
15.2621
3.84387
0.748323
0.208529
0.0721264
0.133292
0.348153
0.912506
2.38
5.56599
9.07906
9.95145
9.07877
8.2151
7.80581
8.7425
11.689
19.3831
26.8779
26.7916
15.3708
4.24485
0.914574
0.272304
0.0938625
0.194692
0.506969
1.30381
3.35731
7.29555
10.2055
10.0661
9.06239
8.2292
7.8543
8.84253
11.9529
18.6447
24.8834
25.1225
15.3116
4.71076
1.13976
0.363976
0.126616
0.290566
0.742767
1.86871
4.71181
8.91925
10.5705
9.80156
8.94072
8.19527
7.91245
8.92672
11.9265
17.422
22.5049
23.1499
15.172
5.28297
1.45353
0.498505
0.177287
0.440958
1.09616
2.69993
6.34041
9.96572
10.2336
9.40271
8.7326
8.12171
7.96233
8.91889
11.5542
15.8311
19.8609
20.9559
15.007
6.04453
1.90128
0.6999
0.257644
0.678344
1.62849
3.9227
7.94475
10.0917
9.50681
8.92488
8.43801
7.97887
7.89677
8.75142
10.8834
14.0428
17.1584
18.5905
14.8085
7.07094
2.55388
1.00725
0.388001
1.05755
2.44818
5.45826
8.95116
9.38135
8.68777
8.37157
8.04947
7.73674
7.74919
8.4326
10.0121
12.2115
14.4662
16.0001
14.451
8.37631
3.52025
1.48403
0.60441
1.67058
3.71291
7.04062
8.8872
8.23953
7.86407
7.74733
7.57736
7.40906
7.47673
7.99055
9.06354
10.4964
12.0166
13.4224
13.6774
9.80824
4.89817
2.23897
0.972118
2.68769
5.36361
7.95768
7.83772
7.1118
7.04718
7.06737
7.0199
6.97413
7.08061
7.45118
8.12541
8.98417
9.8983
10.9314
12.1081
10.8673
6.76603
3.4648
1.61077
4.27784
7.00843
7.62818
6.4335
6.14978
6.24528
6.33516
6.38092
6.43855
6.57402
6.83893
7.23916
7.70442
8.16304
8.69723
9.71243
10.6942
8.73029
5.34842
2.7543
6.3592
7.59395
6.20797
5.29217
5.33337
5.47235
5.59998
5.70923
5.83876
5.99382
6.1898
6.41873
6.63895
6.80941
6.95084
7.4057
8.84749
9.66301
7.79811
4.82607
7.77922
6.47397
4.80983
4.51937
4.62804
4.77174
4.92124
5.07833
5.24422
5.40467
5.55439
5.6808
5.76251
5.74999
5.68338
5.65281
6.24696
8.1843
9.48164
8.07809
7.02299
4.69553
4.01885
4.00091
4.0989
4.24335
4.41366
4.60159
4.77911
4.92942
5.03926
5.09546
5.07516
4.97256
4.78931
4.57983
4.47997
5.37421
8.01453
10.4524
4.40888
3.87726
3.82369
3.88617
4.00331
4.17369
4.39374
4.61121
4.79936
4.93502
5.00239
5.01047
4.93122
4.7531
4.46689
4.07728
3.66223
3.42403
4.17052
6.98736
4.65787
5.28387
5.745
6.18402
6.62064
7.11598
7.68772
8.20783
8.62281
8.91851
9.08869
9.06403
8.87502
8.49297
7.86625
7.05785
6.09409
4.99578
3.89644
3.01838
2.60191
10.6409
11.4664
5.4902
2.2431
1.06364
0.555873
0.314373
0.190656
0.123364
0.0849821
0.0621512
0.0480396
0.0389948
0.0329915
0.0288759
0.0259674
0.0238525
0.0222702
0.0210527
2.23633
11.5358
7.72118
2.95934
1.20733
0.565918
0.293667
0.166586
0.102789
0.0689038
0.050046
0.0390934
0.0324631
0.0282836
0.0255416
0.0236693
0.0223374
0.0213487
0.0205815
0.0199582
1.84336
11.4357
5.18745
1.72073
0.691739
0.320223
0.167071
0.0972556
0.0630323
0.045312
0.0356899
0.0302138
0.0269407
0.0248804
0.0235101
0.0225441
0.0218204
0.021244
0.0207576
0.0203236
1.41774
9.28092
3.20744
1.01386
0.405328
0.190252
0.102897
0.0635885
0.0446706
0.0350861
0.0299764
0.0270912
0.025352
0.0242252
0.0234372
0.0228413
0.0223552
0.0219315
0.021542
0.0211649
1.0443
6.64048
1.93798
0.61179
0.248557
0.122134
0.0704894
0.047322
0.0363502
0.0308953
0.0280136