/*--------------------------------*- C++ -*----------------------------------*\
  =========                 |
  \\      /  F ield         | OpenFOAM: The Open Source CFD Toolbox
   \\    /   O peration     | Website:  https://openfoam.org
    \\  /    A nd           | Version:  6
     \\/     M anipulation  |
\*---------------------------------------------------------------------------*/
FoamFile
{
    version     2.0;
    format      ascii;
    class       surfaceVectorField;
    location    "3.18";
    object      Uf;
}
// * * * * * * * * * * * * * * * * * * * * * * * * * * * * * * * * * * * * * //

dimensions      [0 1 -1 0 0 0 0];

internalField   nonuniform List<vector> 
8193
(
(4.97991 -0.0752407 5.23389e-20)
(5.04168 -0.0864271 5.1021e-20)
(4.70022 -0.110173 -7.76188e-19)
(5.11201 -0.0501071 0)
(5.1506 -0.0511339 -1.28682e-20)
(5.16369 -0.0259935 2.77828e-21)
(5.18134 -0.0319129 3.0503e-20)
(5.19545 -0.00359919 5.25602e-21)
(5.20207 -0.0176923 -4.00591e-20)
(5.22651 0.0192833 4.86937e-20)
(5.22938 0.00151676 1.14915e-20)
(5.25898 0.0433259 -2.44315e-21)
(5.25973 0.0244073 -1.1726e-20)
(5.29289 0.0678076 5.16851e-22)
(5.29063 0.0481956 1.29421e-21)
(5.3303 0.0922285 -8.75619e-22)
(5.32321 0.0714791 6.41728e-21)
(5.37546 0.116566 2.60984e-22)
(5.36099 0.0937476 0)
(5.43351 0.141792 -1.24632e-21)
(5.40945 0.115286 2.59246e-22)
(5.50743 0.169613 -2.63778e-22)
(5.47394 0.136676 -4.42879e-22)
(5.59147 0.203081 3.52873e-24)
(5.557 0.15876 1.77023e-22)
(5.65712 0.2419 3.55216e-24)
(5.64688 0.186253 2.04615e-21)
(5.66384 0.277066 -6.40799e-22)
(5.69622 0.2158 0)
(5.55378 0.291426 8.02779e-21)
(5.66437 0.239079 -1.51612e-20)
(5.21644 0.233049 1.69843e-21)
(5.45549 0.227226 1.74119e-21)
(4.64243 0.0223406 -2.28988e-20)
(4.89995 0.0922636 -2.36192e-20)
(4.04991 -0.326392 -2.1649e-21)
(4.15281 -0.230664 9.03613e-22)
(3.76465 -0.663283 -1.73215e-21)
(3.61239 -0.644552 -6.74796e-20)
(3.88458 -0.859778 -7.79628e-21)
(3.62886 -0.909801 1.42202e-19)
(4.17218 -0.950327 -6.30718e-21)
(3.97743 -1.02808 -2.01988e-22)
(4.41259 -0.971061 4.92648e-22)
(4.31062 -1.06306 5.14014e-20)
(4.56101 -0.953884 4.75365e-21)
(4.52967 -1.04865 9.62033e-21)
(4.63927 -0.925051 -3.52378e-21)
(4.64056 -1.02155 -2.87635e-20)
(4.68853 -0.892854 -4.771e-21)
(4.69658 -0.990329 4.97003e-21)
(4.74143 -0.856711 3.38911e-21)
(4.74696 -0.954828 3.36145e-21)
(4.81032 -0.813082 0)
(4.81657 -0.910532 0)
(4.8905 -0.759671 -1.66817e-21)
(4.90475 -0.854174 0)
(4.97049 -0.697286 3.28561e-21)
(4.9972 -0.786681 2.67151e-20)
(5.04057 -0.628671 6.90481e-21)
(5.0801 -0.711399 4.96154e-21)
(5.09611 -0.556965 -7.28997e-21)
(5.1461 -0.631879 -4.85893e-21)
(5.13682 -0.484818 3.533e-21)
(5.19406 -0.551182 -2.39679e-21)
(5.1645 -0.414075 1.60674e-21)
(5.22629 -0.471687 1.89866e-20)
(5.18111 -0.345679 3.73515e-22)
(5.24584 -0.395042 -2.7013e-21)
(5.18884 -0.279655 1.01512e-20)
(5.25541 -0.321966 -5.94369e-21)
(5.19005 -0.215821 -1.00855e-19)
(5.25769 -0.252653 5.28237e-21)
(5.18598 -0.15348 -1.38576e-19)
(5.25527 -0.1878 1.31689e-21)
(5.17388 -0.090612 -1.20968e-20)
(5.25102 -0.129182 1.32364e-20)
(5.13536 -0.02599 1.40221e-21)
(5.24464 -0.075563 3.36967e-21)
(5.00661 0.0326146 1.38955e-21)
(5.21703 -0.0143211 -4.79025e-20)
(5.10264 0.058611 0)
(4.71111 0.0923669 0)
(5.1628 -0.0330955 -1.25565e-20)
(5.12314 -0.0505422 8.90216e-20)
(5.07472 -0.0779909 6.30294e-20)
(5.18663 -0.0277147 1.75147e-20)
(5.16306 -0.0352165 -8.16248e-20)
(5.20402 -0.0215252 -5.05517e-20)
(5.19058 -0.0259133 5.59965e-20)
(5.22804 -0.00800287 -1.96336e-21)
(5.21622 -0.0160891 2.58129e-20)
(5.25653 0.0103124 -1.97287e-22)
(5.24503 -4.87495e-05 2.34411e-20)
(5.2861 0.0311994 -8.50678e-21)
(5.2746 0.0200829 -1.74444e-20)
(5.31638 0.0527663 2.00952e-21)
(5.30368 0.0413624 -1.4058e-21)
(5.34998 0.0734882 9.52749e-22)
(5.33392 0.0620592 -7.65225e-21)
(5.39155 0.0926624 0)
(5.36908 0.0811168 0)
(5.4466 0.109984 -1.78638e-22)
(5.4146 0.0979008 -1.08347e-21)
(5.5196 0.12544 2.00826e-21)
(5.47592 0.111754 -6.40459e-22)
(5.6074 0.140604 1.7527e-22)
(5.55709 0.122061 6.4894e-22)
(5.67916 0.159527 -3.54669e-24)
(5.65024 0.131665 -3.06145e-22)
(5.68859 0.177629 -1.25482e-21)
(5.70513 0.144763 -1.11728e-21)
(5.56205 0.173031 -1.27559e-21)
(5.67345 0.1553 -4.33755e-21)
(5.14884 0.0884762 1.00987e-22)
(5.44329 0.123777 -4.04923e-22)
(4.44292 -0.162401 1.51342e-21)
(4.81279 -0.0328683 3.23982e-20)
(3.76457 -0.54859 -4.41424e-21)
(3.97873 -0.379907 5.80459e-20)
(3.52348 -0.895214 2.7471e-20)
(3.431 -0.80472 6.68433e-20)
(3.75246 -1.07321 2.23177e-20)
(3.52673 -1.06512 6.50463e-20)
(4.13028 -1.13866 3.67902e-21)
(3.94272 -1.17289 0)
(4.42946 -1.13824 1.06774e-20)
(4.32135 -1.1954 -3.47646e-21)
(4.60312 -1.11573 -6.49206e-21)
(4.55689 -1.18622 7.29785e-21)
(4.68851 -1.08688 2.39516e-21)
(4.67223 -1.16549 -8.67175e-21)
(4.74447 -1.05217 9.75245e-21)
(4.73323 -1.13487 9.18873e-21)
(4.81038 -1.00743 0)
(4.79381 -1.09363 -1.97344e-20)
(4.89707 -0.949455 0)
(4.87753 -1.03893 -3.73676e-20)
(4.99457 -0.878859 1.68354e-21)
(4.9792 -0.969686 -4.62789e-21)
(5.08726 -0.798776 1.68847e-21)
(5.08149 -0.888635 1.80308e-20)
(5.16427 -0.713159 0)
(5.16985 -0.800117 -1.60574e-20)
(5.22186 -0.625556 0)
(5.23776 -0.707957 0)
(5.26124 -0.538674 7.87886e-22)
(5.28516 -0.615247 0)
(5.28562 -0.454544 -1.91813e-21)
(5.31514 -0.524382 9.7793e-21)
(5.29839 -0.374607 -6.1001e-22)
(5.33127 -0.437096 -1.95764e-20)
(5.30244 -0.299824 -1.1371e-20)
(5.33661 -0.354535 4.71754e-21)
(5.3004 -0.231144 -4.44364e-21)
(5.33369 -0.277637 -1.40933e-20)
(5.29504 -0.169496 2.48148e-21)
(5.32483 -0.208209 0)
(5.28768 -0.115636 5.8543e-21)
(5.313 -0.149124 8.67607e-21)
(5.27668 -0.06997 5.3585e-21)
(5.29893 -0.0994882 1.62638e-20)
(5.25236 -0.0239435 1.97106e-21)
(5.27667 -0.0476826 -4.25756e-20)
(5.23892 0.00779329 -1.98683e-20)
(5.16582 0.0648443 2.33973e-19)
(5.15127 -0.0341336 9.89373e-20)
(5.14632 -0.0435977 2.62282e-19)
(5.12925 -0.0479092 3.27429e-19)
(5.17744 -0.0317731 -5.22716e-23)
(5.17333 -0.0380774 1.33654e-20)
(5.20727 -0.0240701 -8.64752e-21)
(5.2046 -0.02666 3.84093e-20)
(5.23724 -0.00863834 -4.61828e-21)
(5.23365 -0.0136014 -2.33775e-20)
(5.26644 0.0103102 9.94322e-22)
(5.26187 0.00252515 -9.35937e-21)
(5.29485 0.0304266 9.17692e-21)
(5.28947 0.0212092 2.43215e-20)
(5.32347 0.0505872 -1.09311e-20)
(5.31636 0.0408099 1.14322e-21)
(5.35495 0.069558 -8.56207e-21)
(5.34412 0.0597169 5.31516e-21)
(5.39381 0.0861535 -1.07766e-21)
(5.37636 0.0764918 1.63933e-21)
(5.44543 0.0992756 -1.55064e-21)
(5.41831 0.089788 -5.30558e-22)
(5.51486 0.107818 2.86723e-21)
(5.47539 0.0980194 -9.45227e-23)
(5.60172 0.111914 1.50352e-22)
(5.55276 0.0994242 5.89784e-22)
(5.6782 0.116501 -1.42425e-21)
(5.64725 0.0939864 -5.21445e-22)
(5.69191 0.123407 -4.79157e-23)
(5.70883 0.0918341 -6.54343e-21)
(5.55672 0.106174 9.15981e-21)
(5.67621 0.0896056 1.11123e-21)
(5.10634 0.00599012 1.07649e-21)
(5.42243 0.0415888 2.68496e-21)
(4.34008 -0.253766 1.49723e-20)
(4.71986 -0.127208 1.51479e-21)
(3.62717 -0.638752 -1.01423e-20)
(3.80473 -0.477337 -2.1982e-20)
(3.41458 -0.982932 -4.23045e-20)
(3.25179 -0.898649 -6.09788e-21)
(3.70299 -1.16115 -3.67646e-20)
(3.42645 -1.15998 9.17491e-21)
(4.12635 -1.22718 -7.1472e-21)
(3.9096 -1.26723 -1.92855e-21)
(4.4467 -1.24044 -5.96346e-21)
(4.32573 -1.30473 1.20288e-20)
(4.62662 -1.23411 3.62101e-21)
(4.57685 -1.31981 9.4495e-21)
(4.71817 -1.21259 -2.75235e-21)
(4.70324 -1.31179 4.21865e-20)
(4.78397 -1.17595 -2.93034e-20)
(4.77607 -1.28145 1.58401e-21)
(4.8629 -1.1236 -5.6857e-20)
(4.85095 -1.23252 -3.56339e-22)
(4.96263 -1.05574 -6.52134e-20)
(4.95018 -1.16682 -5.96622e-21)
(5.07021 -0.975184 1.1666e-20)
(5.0651 -1.08608 2.71771e-20)
(5.16916 -0.885701 2.87024e-20)
(5.17678 -0.994163 5.85762e-20)
(5.24912 -0.791118 -1.59407e-20)
(5.27066 -0.895495 -6.90646e-20)
(5.30723 -0.69475 0)
(5.34098 -0.793847 2.33544e-20)
(5.34543 -0.59919 8.99911e-21)
(5.38864 -0.692291 4.18659e-21)
(5.3673 -0.506344 2.91487e-21)
(5.41738 -0.593073 4.4323e-21)
(5.37628 -0.417684 2.60107e-21)
(5.43109 -0.497702 9.57938e-21)
(5.37522 -0.334391 -4.9908e-21)
(5.43297 -0.407234 8.41625e-21)
(5.36638 -0.257683 -6.38459e-21)
(5.42538 -0.322696 -6.42275e-21)
(5.35172 -0.188943 -1.58482e-21)
(5.41025 -0.24615 0)
(5.33303 -0.130372 -5.11948e-21)
(5.38935 -0.180084 -1.56741e-21)
(5.31173 -0.0839143 -7.21287e-20)
(5.36342 -0.123073 -5.06261e-20)
(5.29033 -0.0458222 5.23107e-19)
(5.33276 -0.0679947 -2.96288e-20)
(5.30719 -0.0261566 -2.00846e-20)
(5.27227 0.00184727 -6.05445e-19)
(5.16938 -0.0346566 1.72409e-19)
(5.15996 -0.0388533 2.16398e-20)
(5.14266 -0.0369892 4.4457e-19)
(5.19893 -0.0280479 5.03154e-20)
(5.18913 -0.0333656 -3.09922e-20)
(5.22828 -0.0176741 3.2292e-20)
(5.2214 -0.0199667 4.67722e-20)
(5.25657 -0.00318849 -1.78835e-20)
(5.25075 -0.00622709 -1.7492e-20)
(5.28373 0.0138657 1.37139e-20)
(5.27782 0.00896343 5.25283e-20)
(5.3099 0.0319857 1.63426e-20)
(5.3035 0.0259633 2.66107e-21)
(5.33601 0.0500146 1.22509e-20)
(5.32824 0.043645 -1.19457e-21)
(5.36456 0.0665627 1.04782e-20)
(5.35347 0.0604649 -6.79175e-21)
(5.39985 0.079945 8.17654e-22)
(5.3825 0.0747085 1.24681e-20)
(5.4471 0.0881617 -1.72356e-22)
(5.42025 0.0843528 -8.34993e-22)
(5.51185 0.0889545 -1.38602e-21)
(5.47194 0.0868033 1.18601e-21)
(5.59653 0.0807595 3.0356e-21)
(5.54342 0.0793443 7.04959e-22)
(5.67625 0.0681811 5.78751e-21)
(5.63659 0.0590584 -1.12764e-22)
(5.69231 0.0596912 -1.85193e-21)
(5.70542 0.038348 1.99909e-21)
(5.54415 0.0266778 3.0907e-21)
(5.67117 0.0187792 -2.1239e-21)
(5.04381 -0.088436 3.1558e-21)
(5.39305 -0.0459043 3.46566e-22)
(4.19718 -0.355786 -1.78074e-20)
(4.621 -0.222332 0)
(3.4395 -0.739542 -1.8137e-20)
(3.6294 -0.566893 4.25516e-20)
(3.26703 -1.08083 2.12886e-20)
(3.07388 -0.981302 5.77443e-20)
(3.63242 -1.26197 1.792e-20)
(3.32599 -1.24446 7.28672e-20)
(4.10827 -1.34087 8.04259e-21)
(3.8713 -1.36318 -1.93609e-21)
(4.45533 -1.38057 1.88137e-20)
(4.31812 -1.43673 3.37217e-21)
(4.65199 -1.395 4.61857e-20)
(4.5897 -1.48623 -2.00782e-20)
(4.75922 -1.37977 4.65637e-20)
(4.73747 -1.49326 -5.84398e-20)
(4.84089 -1.33779 2.0036e-20)
(4.83013 -1.46032 2.12531e-20)
(4.93612 -1.27392 2.95001e-20)
(4.92316 -1.39879 -7.30062e-21)
(5.05071 -1.19278 4.15706e-20)
(5.03836 -1.31702 1.06611e-19)
(5.16979 -1.09939 6.30655e-20)
(5.16546 -1.22031 2.07535e-20)
(5.27637 -0.998144 8.65914e-21)
(5.28538 -1.11406 2.77412e-20)
(5.36047 -0.893045 -4.54419e-20)
(5.38388 -1.00296 -1.026e-19)
(5.42017 -0.787374 3.82509e-20)
(5.4561 -0.890966 2.24792e-20)
(5.45823 -0.683463 -1.68857e-22)
(5.50397 -0.781094 -2.99155e-20)
(5.47872 -0.582918 1.08283e-20)
(5.53183 -0.675221 2.85425e-20)
(5.48522 -0.486897 8.82602e-21)
(5.54383 -0.574302 -2.42196e-20)
(5.48051 -0.396483 0)
(5.54305 -0.478776 0)
(5.46654 -0.312747 0)
(5.53166 -0.389096 0)
(5.44477 -0.237109 0)
(5.51105 -0.306968 7.85495e-21)
(5.41649 -0.171267 -4.78135e-20)
(5.48244 -0.234652 0)
(5.38405 -0.116267 9.27367e-20)
(5.44691 -0.170313 -1.05968e-19)
(5.35275 -0.0705879 4.09893e-20)
(5.40696 -0.106946 1.02342e-19)
(5.37294 -0.0597758 -1.48501e-19)
(5.33404 -0.0300806 -2.1548e-19)
(5.18273 -0.0304544 -1.63431e-19)
(5.17522 -0.0309233 5.25809e-20)
(5.15365 -0.032238 -1.18346e-19)
(5.21408 -0.0218894 -8.70517e-20)
(5.20871 -0.0251488 -6.84813e-20)
(5.2442 -0.00982182 -2.34286e-20)
(5.241 -0.0106064 -2.91248e-20)
(5.27193 0.00472742 5.14452e-20)
(5.26901 0.00388023 -1.10947e-19)
(5.29765 0.0209411 3.89925e-20)
(5.29425 0.018805 -8.3975e-21)
(5.32188 0.0377508 -1.7194e-20)
(5.31773 0.0347292 -1.32776e-20)
(5.34567 0.0540391 -2.01372e-20)
(5.34005 0.0507974 -4.68006e-21)
(5.3713 0.0684188 -5.03729e-21)
(5.3625 0.0656519 1.72524e-21)
(5.40267 0.0789 1.08382e-20)
(5.38796 0.0774993 1.22926e-20)
(5.44466 0.0826813 1.14945e-21)
(5.42081 0.0837776 -3.00161e-22)
(5.50299 0.0765336 3.36009e-21)
(5.46605 0.0809472 1.54653e-21)
(5.58263 0.0574745 -7.42607e-22)
(5.52978 0.0655653 -2.88411e-22)
(5.66526 0.0278526 1.50921e-21)
(5.61803 0.0322143 1.09231e-21)
(5.68453 -0.000272122 -6.95659e-21)
(5.69221 -0.00856421 3.50715e-21)
(5.52275 -0.0508211 6.08889e-21)
(5.65648 -0.0501953 -1.69204e-21)
(4.97749 -0.177698 -1.99357e-21)
(5.35452 -0.131168 7.88612e-21)
(4.06172 -0.441803 6.7334e-20)
(4.51845 -0.307749 -2.87017e-21)
(3.26639 -0.81227 1.26087e-19)
(3.45596 -0.633986 -5.34589e-20)
(3.12889 -1.14881 1.09568e-19)
(2.896 -1.03556 -7.16654e-21)
(3.56024 -1.34224 5.18471e-20)
(3.21801 -1.30335 6.09636e-21)
(4.07846 -1.45505 -4.44623e-21)
(3.81431 -1.45177 0)
(4.45069 -1.53839 -2.16915e-20)
(4.28796 -1.58204 -1.06412e-20)
(4.67345 -1.58134 -1.03012e-19)
(4.59114 -1.67624 -6.73495e-20)
(4.80678 -1.57262 -6.73089e-20)
(4.77551 -1.70105 -1.03691e-20)
(4.91085 -1.52085 -5.62641e-21)
(4.89874 -1.66199 -8.45372e-20)
(5.02419 -1.43884 6.96223e-20)
(5.01459 -1.58056 -1.30624e-19)
(5.15242 -1.33818 8.54491e-20)
(5.14531 -1.47434 1.02525e-19)
(5.2808 -1.22704 -1.27657e-20)
(5.28207 -1.35402 0)
(5.39282 -1.11106 -3.79127e-20)
(5.40729 -1.22787 -1.22122e-19)
(5.47945 -0.994308 -3.20567e-20)
(5.50799 -1.10121 4.66397e-20)
(5.53979 -0.879737 -2.45058e-20)
(5.58041 -0.977912 -1.09207e-21)
(5.57738 -0.769378 -5.02457e-21)
(5.62726 -0.860532 -5.0631e-20)
(5.59674 -0.664241 -7.00474e-21)
(5.65369 -0.750327 3.90528e-20)
(5.60151 -0.564705 -3.24748e-20)
(5.66428 -0.647413 -7.07685e-21)
(5.59416 -0.471049 0)
(5.66199 -0.551221 5.0148e-20)
(5.57626 -0.383733 7.94882e-21)
(5.64863 -0.46111 0)
(5.54885 -0.303386 7.69288e-21)
(5.62532 -0.377709 -8.23384e-22)
(5.51303 -0.231043 -5.92517e-20)
(5.59269 -0.302634 -7.29005e-20)
(5.47114 -0.167622 7.59843e-20)
(5.55152 -0.233375 -6.50071e-20)
(5.43001 -0.113298 -9.22405e-20)
(5.50359 -0.162941 1.36085e-19)
(5.46193 -0.106787 -1.365e-19)
(5.40485 -0.0640809 -8.50493e-19)
(5.20225 -0.0187055 1.33131e-19)
(5.19657 -0.0171012 2.16198e-19)
(5.16932 -0.0221471 1.51913e-19)
(5.23548 -0.0102918 -8.05062e-20)
(5.23139 -0.0111606 -8.92452e-20)
(5.26482 0.00217568 -1.22218e-19)
(5.26319 0.00389161 3.38792e-20)
(5.29043 0.0168713 -1.63999e-19)
(5.28919 0.0186155 1.21087e-20)
(5.31368 0.0324124 -5.46799e-20)
(5.31178 0.0330292 -1.30275e-19)
(5.33536 0.0479196 0)
(5.33253 0.0478942 7.0587e-21)
(5.35636 0.0624517 1.54537e-20)
(5.35203 0.0624424 -6.92574e-21)
(5.37861 0.0746395 1.87827e-20)
(5.37133 0.0753582 -4.48442e-21)
(5.40544 0.0822572 2.95533e-21)
(5.39279 0.0848263 2.81599e-21)
(5.4413 0.0818886 7.17945e-22)
(5.42009 0.0879142 6.4253e-21)
(5.49182 0.069343 -2.5435e-21)
(5.4578 0.0803173 1.32877e-21)
(5.56385 0.0406176 1.52216e-21)
(5.51221 0.0575932 -6.16826e-22)
(5.64408 -0.00535949 6.75835e-21)
(5.59179 0.0126949 4.39852e-21)
(5.66448 -0.0560996 -4.89075e-21)
(5.66715 -0.0480979 -6.15999e-22)
(5.49136 -0.12595 -3.39356e-21)
(5.62999 -0.114795 1.59058e-20)
(4.90421 -0.260938 7.20599e-21)
(5.30665 -0.211693 -2.94197e-21)
(3.92341 -0.511916 -1.35961e-19)
(4.41461 -0.38054 -2.91137e-21)
(3.09042 -0.859717 -1.72207e-19)
(3.28694 -0.67654 3.17341e-20)
(2.98236 -1.19125 -1.09363e-19)
(2.71651 -1.05967 -6.16557e-20)
(3.46862 -1.40975 -4.95776e-20)
(3.09403 -1.33669 1.96882e-21)
(4.02156 -1.57452 4.42482e-21)
(3.72761 -1.5338 0)
(4.42594 -1.71537 -4.5367e-20)
(4.22668 -1.73602 -2.25069e-20)
(4.69097 -1.79222 -6.45182e-21)
(4.57772 -1.88278 2.01373e-20)
(4.8653 -1.78898 -4.88303e-20)
(4.81796 -1.92877 4.76445e-20)
(5.0005 -1.72071 -2.08409e-19)
(4.98607 -1.88049 1.81079e-19)
(5.13424 -1.61103 -8.39958e-20)
(5.131 -1.771 3.06002e-20)
(5.2741 -1.48112 2.99041e-20)
(5.27635 -1.62965 -1.06517e-19)
(5.40807 -1.34456 -1.09257e-19)
(5.41814 -1.47537 1.48294e-19)
(5.52201 -1.209 -1.66259e-20)
(5.54324 -1.32201 -1.16974e-21)
(5.60843 -1.0779 9.8664e-20)
(5.64193 -1.17573 9.78455e-20)
(5.66722 -0.95378 -1.10689e-20)
(5.71106 -1.0393 -3.86568e-21)
(5.70278 -0.838096 -2.47281e-21)
(5.75405 -0.914291 -8.84944e-21)
(5.72034 -0.731097 3.84286e-20)
(5.77696 -0.8011 -3.36823e-20)
(5.72383 -0.632163 7.47042e-20)
(5.78498 -0.698859 2.41989e-20)
(5.7155 -0.540267 4.89979e-20)
(5.7814 -0.60571 9.84598e-21)
(5.69656 -0.454755 -8.20512e-21)
(5.76757 -0.519805 0)
(5.6678 -0.375202 -8.19571e-20)
(5.74439 -0.440645 -8.00573e-21)
(5.62969 -0.301352 -9.9857e-20)
(5.71242 -0.368433 -7.22022e-20)
(5.58366 -0.233476 1.35693e-19)
(5.67154 -0.299222 -2.09611e-20)
(5.53663 -0.171186 8.24831e-20)
(5.62295 -0.226846 1.50021e-19)
(5.57898 -0.165513 -2.73501e-19)
(5.50642 -0.112032 -1.40836e-20)
(5.22665 -0.00225839 8.46126e-20)
(5.224 0.00220533 -5.38627e-21)
(5.19294 -0.00731784 2.35288e-19)
(5.2594 0.00659756 -9.6386e-21)
(5.25818 0.00847541 -1.65328e-19)
(5.28693 0.0189815 1.72388e-19)
(5.28829 0.0236538 9.70522e-20)
(5.30988 0.033379 4.61569e-20)
(5.31156 0.0381177 1.19558e-19)
(5.33015 0.0482464 -7.04887e-20)
(5.33086 0.0517469 2.57427e-20)
(5.34882 0.0625802 1.14985e-21)
(5.34828 0.0655517 -8.6459e-20)
(5.36664 0.0754799 -2.72419e-20)
(5.36445 0.0787371 -2.50272e-22)
(5.38511 0.0855763 -2.00114e-20)
(5.38012 0.089849 -3.23821e-21)
(5.40688 0.0904847 7.14018e-21)
(5.39706 0.0970254 1.97864e-21)
(5.43579 0.0863367 7.12801e-21)
(5.4181 0.0971489 6.73036e-21)
(5.4772 0.0680388 8.89162e-22)
(5.4472 0.085343 -1.43949e-21)
(5.53884 0.0303602 2.00538e-21)
(5.49065 0.0559488 2.89893e-22)
(5.61354 -0.0309125 7.73531e-22)
(5.55789 0.000834075 6.90762e-23)
(5.63262 -0.104455 1.66156e-20)
(5.6294 -0.0788216 -1.08232e-21)
(5.4485 -0.194528 4.05656e-21)
(5.58979 -0.170947 1.78471e-21)
(4.82605 -0.333798 -1.19551e-20)
(5.24909 -0.28285 -1.19296e-20)
(3.78835 -0.561445 1.47974e-19)
(4.31208 -0.436615 -1.22201e-21)
(2.91703 -0.876985 1.49885e-19)
(3.12502 -0.690806 7.43795e-20)
(2.826 -1.20316 4.88832e-20)
(2.53342 -1.04788 8.04464e-20)
(3.34977 -1.45782 5.17718e-20)
(2.94594 -1.33925 -3.70194e-20)
(3.92941 -1.69119 -2.6816e-20)
(3.59972 -1.60079 0)
(4.37543 -1.89823 1.96047e-20)
(4.12668 -1.88315 2.20647e-20)
(4.70198 -2.01507 4.68848e-20)
(4.54301 -2.08914 4.61824e-20)
(4.93602 -2.01846 2.47486e-19)
(4.86166 -2.16207 2.41837e-21)
(5.11409 -1.92825 3.70649e-19)
(5.09381 -2.10584 7.58144e-20)
(5.2715 -1.78132 6.43805e-21)
(5.27727 -1.96349 -2.92003e-19)
(5.41955 -1.61138 2.33712e-20)
(5.43717 -1.77672 -1.25623e-19)
(5.55281 -1.44089 2.4954e-19)
(5.57748 -1.57777 -9.46177e-21)
(5.6628 -1.27961 1.02827e-19)
(5.69509 -1.38932 -7.36446e-20)
(5.74414 -1.13072 4.04855e-21)
(5.78527 -1.21867 7.43004e-21)
(5.79735 -0.995566 2.38573e-21)
(5.84591 -1.0667 -3.31508e-21)
(5.8276 -0.874534 -4.16429e-20)
(5.88081 -0.933155 -9.07737e-21)
(5.841 -0.766897 -4.70037e-20)
(5.89667 -0.817018 -3.17067e-20)
(5.84192 -0.670741 -4.21386e-20)
(5.89971 -0.716199 0)
(5.8327 -0.584105 -4.06582e-20)
(5.89325 -0.627676 1.23734e-20)
(5.81451 -0.504908 0)
(5.87892 -0.548557 -5.45753e-20)
(5.78793 -0.431312 0)
(5.85765 -0.477281 5.14425e-20)
(5.75282 -0.362056 -1.3714e-20)
(5.82963 -0.412373 -5.30056e-20)
(5.70995 -0.296499 6.35748e-20)
(5.7939 -0.348807 1.03832e-20)
(5.66545 -0.233349 -3.50649e-19)
(5.75162 -0.281521 8.65781e-20)
(5.71329 -0.222276 -2.66725e-19)
(5.63706 -0.17031 -5.68894e-19)
(5.25661 0.0212304 -8.80923e-20)
(5.25834 0.0285066 -1.41346e-19)
(5.225 0.0149267 -5.20902e-20)
(5.28714 0.0298017 -1.07677e-19)
(5.28931 0.0345271 -1.8034e-19)
(5.31195 0.0412954 5.57116e-20)
(5.3163 0.0491868 5.50307e-20)
(5.33167 0.0548623 9.44727e-20)
(5.33624 0.0628671 -6.15271e-20)
(5.34839 0.0689053 4.4045e-21)
(5.35174 0.0754179 4.86059e-20)
(5.36345 0.0821025 -8.9427e-20)
(5.36522 0.0880824 6.69694e-20)
(5.37751 0.0934341 2.33425e-20)
(5.37744 0.0999785 -6.3892e-20)
(5.3916 0.101514 1.92142e-20)
(5.38889 0.109388 1.61098e-20)
(5.40764 0.103851 4.33101e-21)
(5.40067 0.114368 -2.35541e-20)
(5.42866 0.0962669 -6.56956e-22)
(5.41471 0.111767 -5.43605e-21)
(5.4595 0.0729643 -1.90696e-21)
(5.43413 0.0963236 2.23001e-21)
(5.5082 0.0272349 -2.10762e-21)
(5.46486 0.0613445 2.68437e-22)
(5.5724 -0.0474966 -1.95376e-21)
(5.51654 -0.00245207 7.60166e-22)
(5.58664 -0.143131 -1.40708e-20)
(5.57828 -0.0987062 2.19283e-22)
(5.39363 -0.252226 -1.44633e-20)
(5.53488 -0.214435 -1.59925e-20)
(4.74405 -0.391881 -1.21775e-21)
(5.18163 -0.339751 1.51316e-21)
(3.65876 -0.586255 -8.82028e-20)
(4.2138 -0.472486 -9.48684e-20)
(2.74502 -0.858181 1.58458e-21)
(2.97423 -0.673623 3.62831e-20)
(2.6516 -1.18004 3.17041e-20)
(2.34375 -0.994546 2.67875e-21)
(3.19313 -1.47859 -5.20616e-20)
(2.76692 -1.30417 -5.13677e-20)
(3.79312 -1.78936 2.73587e-20)
(3.42214 -1.63837 1.60783e-22)
(4.29092 -2.06768 2.79455e-20)
(3.98005 -2.00135 2.8117e-20)
(4.6997 -2.23139 1.90113e-21)
(4.47723 -2.27158 -1.31802e-21)
(5.01668 -2.24692 -1.40987e-19)
(4.89755 -2.37912 2.40166e-21)
(5.25443 -2.13523 -5.54936e-19)
(5.21779 -2.32517 -6.73861e-19)
(5.44099 -1.94565 -4.12454e-19)
(5.45469 -2.15227 -5.07958e-19)
(5.59387 -1.72777 -1.51275e-19)
(5.63162 -1.91377 -1.33361e-21)
(5.71895 -1.51415 -3.2178e-19)
(5.76562 -1.66219 -1.46516e-19)
(5.8169 -1.32032 -1.72672e-19)
(5.86665 -1.43104 -4.17057e-19)
(5.88635 -1.14958 0)
(5.93944 -1.23063 -2.1764e-19)
(5.92865 -1.00136 -1.55756e-20)
(5.98458 -1.06045 6.13736e-20)
(5.94923 -0.873879 1.03577e-21)
(6.00621 -0.917149 1.09696e-19)
(5.95473 -0.764886 1.52329e-20)
(6.01091 -0.797183 4.98767e-20)
(5.95025 -0.671768 5.4032e-20)
(6.00506 -0.697017 -3.49454e-20)
(5.93856 -0.591232 -7.68792e-21)
(5.99284 -0.612636 5.25948e-20)
(5.92101 -0.520038 -6.8279e-22)
(5.97623 -0.540363 1.63906e-20)
(5.89799 -0.45536 3.32959e-21)
(5.95617 -0.477546 1.7168e-19)
(5.86903 -0.395008 -2.60402e-20)
(5.93261 -0.421289 -1.75966e-19)
(5.83445 -0.337185 3.61697e-20)
(5.90447 -0.366509 -1.52404e-19)
(5.79913 -0.280044 2.57115e-20)
(5.8726 -0.309709 1.31663e-19)
(5.84494 -0.259371 -3.35696e-20)
(5.77803 -0.221592 1.79558e-19)
(5.29239 0.0512347 -6.07849e-20)
(5.29919 0.0614856 -8.39655e-20)
(5.2653 0.0443408 5.16954e-19)
(5.31873 0.0590795 -6.76827e-20)
(5.3248 0.0671596 -1.34431e-19)
(5.33966 0.0692511 -6.0852e-20)
(5.34725 0.0807634 -1.29756e-19)
(5.35553 0.0816073 -1.32877e-19)
(5.3632 0.0930755 4.83606e-20)
(5.36816 0.0946212 1.05595e-19)
(5.37444 0.104246 -1.03075e-19)
(5.37894 0.106652 9.16253e-20)
(5.38336 0.115652 1.14662e-19)
(5.38853 0.116471 -7.33497e-20)
(5.39096 0.126258 -2.16282e-20)
(5.39755 0.122629 -2.43656e-20)
(5.3975 0.134065 -1.65343e-20)
(5.40715 0.122577 -3.04936e-20)
(5.40343 0.137034 -2.52629e-20)
(5.41941 0.112052 -1.00151e-21)
(5.40973 0.132055 -5.7067e-21)
(5.43816 0.0846486 4.30646e-21)
(5.41842 0.113713 4.03806e-21)
(5.47163 0.0324129 3.70041e-21)
(5.43476 0.0745465 9.01975e-22)
(5.52103 -0.0534273 3.00198e-21)
(5.46788 0.00433684 -2.11567e-22)
(5.52633 -0.168432 -1.55053e-21)
(5.51386 -0.104776 -1.73449e-20)
(5.32602 -0.294433 4.07516e-21)
(5.46463 -0.240498 -9.39166e-21)
(4.65985 -0.430928 -9.17611e-20)
(5.10417 -0.377266 9.15843e-21)
(3.53904 -0.583256 2.12915e-20)
(4.12281 -0.485379 -9.67947e-21)
(2.57695 -0.798745 3.04308e-20)
(2.83985 -0.622678 -1.3096e-19)
(2.45635 -1.1121 -8.32499e-20)
(2.14726 -0.894387 -8.44079e-20)
(2.99242 -1.46071 6.55164e-22)
(2.54995 -1.22139 -4.84429e-20)
(3.60545 -1.84719 9.89753e-22)
(3.19045 -1.62631 -4.63135e-22)
(4.16275 -2.19727 1.05772e-21)
(3.77923 -2.06372 5.87307e-19)
(4.67147 -2.41442 -8.13036e-22)
(4.36772 -2.40041 -4.90446e-19)
(5.09597 -2.45347 -5.28213e-19)
(4.90883 -2.54897 6.33258e-19)
(5.41621 -2.33086 -6.50699e-19)
(5.34399 -2.51845 -6.08454e-19)
(5.64319 -2.10163 -1.2304e-19)
(5.6566 -2.32644 4.65157e-19)
(5.80125 -1.83235 0)
(5.8596 -2.03705 -3.46669e-20)
(5.91167 -1.56863 -2.5257e-19)
(5.98713 -1.73173 -2.85808e-20)
(5.98786 -1.33538 -4.66458e-19)
(6.06324 -1.45253 2.23704e-19)
(6.03666 -1.13832 -1.5291e-19)
(6.10785 -1.21705 -4.22581e-19)
(6.06137 -0.974629 1.83824e-19)
(6.12863 -1.02579 1.3527e-20)
(6.0671 -0.839322 1.56781e-19)
(6.13085 -0.871792 1.94595e-19)
(6.06035 -0.728177 -2.44948e-21)
(6.11961 -0.74751 3.39234e-20)
(6.04673 -0.636872 -3.39623e-20)
(6.10111 -0.647028 2.02695e-19)
(6.02957 -0.561139 7.10266e-20)
(6.07979 -0.565451 -5.10692e-21)
(6.01037 -0.496943 1.91782e-19)
(6.05799 -0.498437 -2.70228e-19)
(5.98948 -0.440861 -2.71677e-21)
(6.03655 -0.442429 2.59099e-19)
(5.96645 -0.390079 -2.9975e-19)
(6.01536 -0.393597 2.51261e-21)
(5.94135 -0.342175 8.73048e-23)
(5.99358 -0.347594 -3.74409e-19)
(5.91749 -0.295094 6.80946e-20)
(5.97174 -0.302963 5.28273e-20)
(5.95469 -0.264684 1.18624e-19)
(5.90521 -0.247317 -2.20855e-19)
(5.33364 0.0874854 -6.66811e-20)
(5.34568 0.100641 0)
(5.31301 0.0805968 -1.88695e-19)
(5.35412 0.0944264 -2.44451e-19)
(5.36439 0.106082 7.24952e-20)
(5.37009 0.103261 -1.49234e-20)
(5.38106 0.118171 -2.01417e-19)
(5.38142 0.114086 3.3776e-20)
(5.3921 0.128702 2.24716e-19)
(5.38938 0.125646 -9.54897e-20)
(5.3985 0.138288 -6.07889e-20)
(5.39526 0.136295 1.094e-20)
(5.40236 0.148297 -9.16404e-20)
(5.39972 0.144605 3.3498e-20)
(5.40474 0.157563 4.84891e-20)
(5.403 0.148989 -1.71504e-20)
(5.40571 0.163899 -1.71769e-20)
(5.40546 0.1469 0)
(5.40511 0.165152 0)
(5.408 0.134072 0)
(5.40295 0.158276 1.04385e-20)
(5.41324 0.103734 6.25268e-22)
(5.3999 0.137954 -3.50085e-21)
(5.42894 0.04708 -1.20404e-21)
(5.40042 0.096329 3.33577e-21)
(5.45925 -0.0461841 -2.11405e-20)
(5.41264 0.0227727 -7.78824e-21)
(5.4517 -0.176117 -2.55239e-20)
(5.43701 -0.0939037 -1.17303e-21)
(5.24565 -0.316122 1.34632e-20)
(5.37891 -0.244225 2.52657e-20)
(4.57477 -0.446705 1.0039e-19)
(5.01664 -0.390406 2.08963e-20)
(3.43287 -0.55094 -1.51587e-19)
(4.04148 -0.472542 8.10084e-20)
(2.41784 -0.698005 -2.49485e-19)
(2.72756 -0.53769 -1.23507e-19)
(2.24156 -0.99171 -4.87069e-20)
(1.94778 -0.744257 0)
(2.74499 -1.38612 -5.02173e-20)
(2.29279 -1.07768 8.27477e-20)
(3.36164 -1.83892 5.82668e-19)
(2.90303 -1.54137 1.74509e-21)
(3.98193 -2.25603 1.0611e-19)
(3.51783 -2.04132 1.17651e-20)
(4.60229 -2.52965 1.41895e-19)
(4.20192 -2.44446 -6.39949e-20)
(5.153 -2.60744 4.59162e-19)
(4.87392 -2.63983 9.09011e-19)
(5.58082 -2.49548 3.72664e-19)
(5.44583 -2.65203 5.56696e-19)
(5.8699 -2.24036 5.0519e-19)
(5.86441 -2.46252 1.48982e-18)
(6.04234 -1.92308 -8.11408e-20)
(6.11304 -2.13324 -1.21044e-19)
(6.13593 -1.6081 3.99565e-19)
(6.24086 -1.78315 5.78444e-20)
(6.18134 -1.33098 2.24823e-19)
(6.28871 -1.45734 4.35467e-19)
(6.19865 -1.10268 -2.53879e-19)
(6.29556 -1.18331 9.30587e-19)
(6.19712 -0.921905 2.63415e-20)
(6.28023 -0.968549 4.25122e-19)
(6.18236 -0.778929 6.80564e-20)
(6.25524 -0.803846 -1.30952e-19)
(6.15935 -0.665396 2.3916e-19)
(6.22375 -0.676149 7.60322e-21)
(6.13315 -0.574867 2.22413e-19)
(6.1897 -0.575683 -1.8611e-20)
(6.10724 -0.502247 -3.54141e-19)
(6.15651 -0.496261 -1.62444e-19)
(6.08318 -0.442977 -1.89675e-19)
(6.12665 -0.433083 -1.74673e-19)
(6.06127 -0.393322 2.62544e-19)
(6.10075 -0.381917 -8.71837e-21)
(6.04127 -0.350238 -9.44399e-20)
(6.07856 -0.338663 2.01667e-19)
(6.02327 -0.311111 -2.24188e-19)
(6.05967 -0.300147 9.28541e-20)
(6.00869 -0.273799 1.06832e-19)
(6.04462 -0.266234 -2.20199e-19)
(6.03496 -0.238154 -1.30479e-19)
(6.00234 -0.237287 -2.38143e-19)
(5.37916 0.129244 1.41698e-19)
(5.39619 0.144747 -1.69656e-19)
(5.36642 0.122622 -4.59691e-19)
(5.39259 0.135218 1.47235e-19)
(5.40689 0.150083 1.48471e-19)
(5.40269 0.142692 4.70617e-20)
(5.41688 0.160444 -2.2445e-19)
(5.40877 0.151819 9.28008e-20)
(5.42218 0.169135 2.43998e-19)
(5.41151 0.161689 -5.43543e-20)
(5.42323 0.177133 1.12792e-19)
(5.412 0.170848 -5.14513e-20)
(5.42167 0.185705 -1.56905e-19)
(5.41077 0.177747 0)
(5.41839 0.193643 9.19491e-20)
(5.40768 0.180642 0)
(5.41323 0.198715 -3.35641e-20)
(5.40224 0.176984 1.04447e-20)
(5.40545 0.198695 6.44015e-20)
(5.39411 0.16259 7.28517e-21)
(5.39409 0.1906 1.71998e-20)
(5.38458 0.130809 2.64858e-21)
(5.37855 0.169418 -2.09368e-20)
(5.38044 0.0723508 -1.18991e-21)
(5.36217 0.127415 1.12569e-20)
(5.38808 -0.0237452 1.30275e-20)
(5.35202 0.0539773 -1.98023e-20)
(5.36357 -0.162145 5.06161e-20)
(5.34975 -0.0638876 1.74633e-20)
(5.1524 -0.312612 4.69518e-20)
(5.27808 -0.221271 4.21388e-20)
(4.48954 -0.435207 5.2608e-20)
(4.91935 -0.37515 1.33379e-20)
(3.34394 -0.488551 1.18134e-19)
(3.97128 -0.431038 -3.17039e-20)
(2.27319 -0.557023 1.33078e-19)
(2.64304 -0.420181 1.51077e-19)
(2.00985 -0.808428 4.86137e-20)
(1.75643 -0.544336 0)
(2.45066 -1.23622 5.39239e-20)
(1.99731 -0.86016 3.23807e-20)
(3.05847 -1.73822 -5.82312e-19)
(2.56194 -1.36049 6.07609e-21)
(3.73836 -2.21498 -1.21291e-19)
(3.18968 -1.90504 -5.88985e-19)
(4.47593 -2.54641 6.80825e-19)
(3.96571 -2.36906 -4.02761e-19)
(5.16677 -2.67227 8.85226e-19)
(4.77715 -2.63469 -5.80249e-19)
(5.72479 -2.59132 1.53918e-18)
(5.49877 -2.70474 5.95292e-19)
(6.10271 -2.33363 8.54796e-19)
(6.04564 -2.51845 1.3635e-19)
(6.30845 -1.98536 -9.67647e-21)
(6.36876 -2.17565 9.34737e-19)
(6.39127 -1.62809 8.47112e-20)
(6.5138 -1.80004 8.47284e-20)
(6.40134 -1.30818 1.14465e-18)
(6.54069 -1.44034 0)
(6.37574 -1.04735 1.59194e-18)
(6.50477 -1.13097 7.28905e-19)
(6.3372 -0.849355 2.50028e-19)
(6.44121 -0.892465 -1.57258e-19)
(6.29553 -0.699945 -1.94373e-19)
(6.37973 -0.718188 -2.01529e-19)
(6.25297 -0.585579 -2.47975e-19)
(6.32331 -0.589616 2.38939e-19)
(6.21192 -0.496457 -4.07001e-19)
(6.27202 -0.491573 1.3139e-19)
(6.17484 -0.42657 1.34247e-20)
(6.22544 -0.415309 2.88253e-20)
(6.14313 -0.37112 6.63773e-21)
(6.18559 -0.356042 3.31721e-19)
(6.11695 -0.32631 -6.00123e-20)
(6.15265 -0.309014 -3.10466e-19)
(6.09615 -0.289087 3.89211e-19)
(6.12629 -0.270558 2.32196e-19)
(6.08061 -0.256982 1.05061e-19)
(6.10626 -0.238442 -3.41894e-19)
(6.07002 -0.228324 -4.51896e-19)
(6.09265 -0.212674 5.54848e-19)
(6.08423 -0.191392 -7.01208e-19)
(6.06494 -0.2025 1.07028e-18)
(5.42713 0.175095 -1.7768e-19)
(5.44821 0.191555 6.64077e-22)
(5.42301 0.168613 4.95988e-20)
(5.43276 0.180382 -1.47318e-19)
(5.45045 0.197085 3.09065e-19)
(5.4363 0.186584 -3.14169e-20)
(5.4532 0.205991 -6.94435e-21)
(5.43654 0.194062 2.46198e-19)
(5.45233 0.213188 1.27888e-19)
(5.43367 0.202243 1.8431e-20)
(5.44774 0.219856 7.82981e-21)
(5.4284 0.209932 -1.74419e-20)
(5.44059 0.227126 -7.13944e-21)
(5.42103 0.215595 6.20358e-20)
(5.43141 0.233879 -9.28602e-20)
(5.41101 0.217406 3.12013e-20)
(5.41972 0.238012 -3.501e-20)
(5.39708 0.212823 7.42581e-20)
(5.40422 0.237318 3.65922e-20)
(5.37775 0.197854 -1.48788e-20)