/*--------------------------------*- C++ -*----------------------------------*\
  =========                 |
  \\      /  F ield         | OpenFOAM: The Open Source CFD Toolbox
   \\    /   O peration     | Website:  https://openfoam.org
    \\  /    A nd           | Version:  6
     \\/     M anipulation  |
\*---------------------------------------------------------------------------*/
FoamFile
{
    version     2.0;
    format      ascii;
    class       volScalarField;
    location    "2.48";
    object      rho;
}
// * * * * * * * * * * * * * * * * * * * * * * * * * * * * * * * * * * * * * //

dimensions      [1 -3 0 0 0 0 0];

internalField   nonuniform List<scalar> 
5625
(
1.44159
1.42561
1.40625
1.38381
1.35855
1.33064
1.30027
1.26771
1.2335
1.19858
1.16431
1.13222
1.10381
1.08042
1.06293
1.05169
1.0471
1.04977
1.05993
1.07711
1.10029
1.12835
1.16021
1.19467
1.23031
1.26552
1.29889
1.32966
1.35778
1.3835
1.40685
1.4273
1.44386
1.45551
1.46164
1.46243
1.45877
1.45205
1.44376
1.43518
1.42721
1.42035
1.41479
1.41049
1.40729
1.40499
1.40337
1.40226
1.40152
1.40102
1.40069
1.40047
1.40033
1.40023
1.40016
1.40012
1.40008
1.40006
1.40004
1.40003
1.40002
1.40002
1.40001
1.40001
1.40001
1.40001
1.40001
1.40001
1.40001
1.40001
1.40001
1.40001
1.40001
1.40001
1.40001
1.44707
1.43304
1.41577
1.39565
1.37297
1.34798
1.32092
1.29212
1.26208
1.23164
1.20188
1.17395
1.14909
1.12854
1.11307
1.10309
1.09909
1.10158
1.11061
1.12562
1.14575
1.17008
1.19772
1.22769
1.25877
1.28959
1.31897
1.34631
1.37161
1.39496
1.41617
1.43452
1.44892
1.45843
1.46262
1.46183
1.45708
1.44977
1.44132
1.43289
1.42523
1.41876
1.41357
1.4096
1.40666
1.40455
1.40308
1.40208
1.4014
1.40095
1.40065
1.40045
1.40032
1.40022
1.40016
1.40012
1.40008
1.40006
1.40004
1.40003
1.40002
1.40002
1.40001
1.40001
1.40001
1.40001
1.40001
1.40001
1.40001
1.40001
1.40001
1.40001
1.40001
1.40001
1.40001
1.45215
1.44012
1.42497
1.40713
1.38698
1.36482
1.34093
1.31565
1.28948
1.26313
1.23742
1.21325
1.19174
1.17391
1.16041
1.15168
1.14827
1.15053
1.15833
1.17117
1.18837
1.20921
1.23299
1.25886
1.28579
1.3126
1.33833
1.36255
1.38521
1.40627
1.4253
1.44143
1.45356
1.46084
1.46304
1.46071
1.45496
1.44717
1.43867
1.43046
1.42318
1.41713
1.41234
1.4087
1.40603
1.40412
1.4028
1.4019
1.40129
1.40088
1.40061
1.40043
1.4003
1.40022
1.40016
1.40011
1.40008
1.40006
1.40004
1.40003
1.40002
1.40002
1.40001
1.40001
1.40001
1.40001
1.40001
1.40001
1.40001
1.40001
1.40001
1.40001
1.40001
1.40001
1.40001
1.45667
1.44671
1.43366
1.41806
1.40034
1.38085
1.35992
1.33791
1.31527
1.29259
1.27048
1.24975
1.23135
1.21604
1.20436
1.19683
1.19393
1.19586
1.20241
1.21317
1.22767
1.24537
1.2657
1.28792
1.31114
1.33436
1.35683
1.37821
1.39842
1.41723
1.43404
1.44784
1.45756
1.46255
1.4628
1.45901
1.4524
1.44427
1.43584
1.42794
1.4211
1.41549
1.41111
1.40781
1.40541
1.4037
1.40252
1.40172
1.40117
1.40081
1.40057
1.4004
1.40029
1.40021
1.40015
1.40011
1.40008
1.40006
1.40004
1.40003
1.40002
1.40002
1.40001
1.40001
1.40001
1.40001
1.40001
1.40001
1.40001
1.40001
1.40001
1.40001
1.40001
1.40001
1.40001
1.46044
1.45261
1.4417
1.42829
1.41288
1.39589
1.37768
1.35863
1.33914
1.31969
1.3008
1.28319
1.26756
1.25449
1.24447
1.23802
1.23553
1.23705
1.2424
1.2513
1.26344
1.27841
1.29572
1.31475
1.3347
1.35476
1.37434
1.39317
1.41107
1.42766
1.44215
1.45349
1.46073
1.46342
1.4618
1.45672
1.44941
1.44111
1.43286
1.42537
1.419
1.41387
1.4099
1.40695
1.40481
1.4033
1.40225
1.40154
1.40106
1.40074
1.40052
1.40037
1.40027
1.4002
1.40014
1.40011
1.40008
1.40006
1.40004
1.40003
1.40002
1.40002
1.40001
1.40001
1.40001
1.40001
1.40001
1.40001
1.40001
1.40001
1.40001
1.40001
1.40001
1.40001
1.40001
1.46326
1.45762
1.4489
1.43767
1.42448
1.4098
1.39406
1.37764
1.36093
1.34431
1.32827
1.31337
1.30013
1.28901
1.28049
1.27502
1.27282
1.27391
1.27819
1.28554
1.2957
1.30835
1.32307
1.33934
1.35646
1.37375
1.39077
1.40727
1.42298
1.43732
1.44939
1.45817
1.46289
1.46335
1.46001
1.45384
1.44603
1.43773
1.4298
1.42278
1.41694
1.41229
1.40874
1.40612
1.40424
1.40291
1.402
1.40138
1.40096
1.40067
1.40048
1.40035
1.40025
1.40019
1.40014
1.4001
1.40007
1.40005
1.40004
1.40003
1.40002
1.40002
1.40001
1.40001
1.40001
1.40001
1.40001
1.40001
1.40001
1.40001
1.40001
1.40001
1.40001
1.40001
1.40001
1.46497
1.46155
1.45505
1.44601
1.43499
1.4225
1.40901
1.39493
1.38063
1.36648
1.35288
1.34029
1.32908
1.31967
1.31247
1.30781
1.30583
1.30655
1.30999
1.31608
1.32462
1.33533
1.34786
1.36176
1.37642
1.3913
1.40605
1.42038
1.43392
1.44593
1.45548
1.46163
1.46387
1.46225
1.45741
1.4504
1.44234
1.4342
1.4267
1.42023
1.41493
1.41078
1.40764
1.40534
1.4037
1.40255
1.40176
1.40122
1.40086
1.40061
1.40044
1.40032
1.40024
1.40017
1.40013
1.40009
1.40007
1.40005
1.40004
1.40003
1.40002
1.40002
1.40001
1.40001
1.40001
1.40001
1.40001
1.40001
1.40001
1.40001
1.40001
1.40001
1.40001
1.40001
1.40001
1.46544
1.46422
1.45997
1.45313
1.44425
1.43388
1.42249
1.41052
1.39834
1.38631
1.37479
1.36413
1.35465
1.3467
1.34063
1.33665
1.33484
1.33533
1.33815
1.34326
1.35046
1.35955
1.37024
1.38209
1.39461
1.40737
1.42005
1.43231
1.44364
1.45322
1.46015
1.46369
1.46357
1.4601
1.45407
1.4465
1.4384
1.4306
1.42363
1.41775
1.41301
1.40935
1.40661
1.40462
1.4032
1.40222
1.40154
1.40108
1.40076
1.40055
1.4004
1.40029
1.40022
1.40016
1.40012
1.40009
1.40007
1.40005
1.40004
1.40003
1.40002
1.40001
1.40001
1.40001
1.40001
1.40001
1.40001
1.40001
1.40001
1.40001
1.40001
1.40001
1.40001
1.40001
1.40001
1.46458
1.46545
1.46343
1.45882
1.4521
1.44381
1.43443
1.4244
1.41412
1.40394
1.39421
1.38519
1.37717
1.37048
1.36535
1.36193
1.36033
1.36069
1.36308
1.36739
1.3735
1.38123
1.39033
1.40041
1.41105
1.42189
1.43261
1.44281
1.45185
1.45891
1.46319
1.46422
1.46197
1.45697
1.45007
1.44224
1.43434
1.42702
1.42065
1.41539
1.41121
1.40803
1.40566
1.40395
1.40275
1.40191
1.40134
1.40094
1.40068
1.40049
1.40036
1.40027
1.4002
1.40015
1.40011
1.40008
1.40006
1.40005
1.40003
1.40002
1.40002
1.40001
1.40001
1.40001
1.40001
1.40001
1.40001
1.40001
1.40001
1.40001
1.40001
1.40001
1.40001
1.40001
1.40001
1.46235
1.46515
1.46528
1.46288
1.45833
1.45211
1.44469
1.43652
1.42801
1.4195
1.41132
1.40372
1.39699
1.39136
1.38701
1.38409
1.38274
1.38307
1.38511
1.38877
1.39395
1.40052
1.40824
1.41674
1.42567
1.43471
1.4435
1.45158
1.45824
1.46273
1.46444
1.46315
1.45911
1.45296
1.44556
1.43775
1.43025
1.42353
1.41781
1.41317
1.40955
1.40681
1.4048
1.40335
1.40234
1.40163
1.40115
1.40082
1.40059
1.40044
1.40032
1.40024
1.40018
1.40014
1.4001
1.40008
1.40006
1.40004
1.40003
1.40002
1.40002
1.40001
1.40001
1.40001
1.40001
1.40001
1.40001
1.40001
1.40001
1.40001
1.40001
1.40001
1.40001
1.40001
1.40001
1.45882
1.46329
1.4654
1.46514
1.46274
1.45859
1.45312
1.44677
1.43995
1.43301
1.42624
1.41993
1.41431
1.40961
1.40596
1.40352
1.40242
1.40276
1.40449
1.40759
1.41198
1.41753
1.42398
1.43103
1.43834
1.44561
1.45245
1.45831
1.46253
1.4645
1.46383
1.46057
1.45515
1.44827
1.44071
1.4332
1.42625
1.42019
1.41516
1.41114
1.40804
1.40572
1.40402
1.40282
1.40197
1.40139
1.40099
1.40071
1.40052
1.40039
1.40029
1.40022
1.40016
1.40012
1.40009
1.40007
1.40005
1.40004
1.40003
1.40002
1.40002
1.40001
1.40001
1.40001
1.40001
1.40001
1.40001
1.40001
1.40001
1.40001
1.40001
1.40001
1.40001
1.40001
1.40001
1.45415
1.45991
1.46375
1.46547
1.46514
1.46304
1.45953
1.45499
1.44983
1.4444
1.43899
1.43387
1.42929
1.42542
1.42242
1.42043
1.41957
1.41989
1.42137
1.42397
1.42764
1.43224
1.43749
1.44312
1.44883
1.45431
1.45912
1.46272
1.46453
1.46414
1.46144
1.45664
1.45031
1.44311
1.43572
1.42871
1.42243
1.41709
1.41273
1.4093
1.40668
1.40474
1.40334
1.40234
1.40165
1.40117
1.40084
1.40061
1.40045
1.40034
1.40026
1.40019
1.40015
1.40011
1.40008
1.40006
1.40005
1.40004
1.40003
1.40002
1.40001
1.40001
1.40001
1.40001
1.40001
1.40001
1.40001
1.40001
1.40001
1.40001
1.40001
1.40001
1.40001
1.40001
1.40001
1.44861
1.4552
1.46039
1.46383
1.46541
1.46528
1.46369
1.46097
1.45748
1.45354
1.44945
1.4455
1.4419
1.43882
1.43644
1.43488
1.43423
1.43452
1.43574
1.43787
1.44085
1.44449
1.44855
1.45276
1.45686
1.4605
1.46325
1.46461
1.46419
1.46178
1.45747
1.45165
1.44487
1.43773
1.43078
1.42441
1.41887
1.41425
1.41055
1.40767
1.40549
1.40389
1.40274
1.40193
1.40137
1.40098
1.40071
1.40052
1.40039
1.4003
1.40023
1.40017
1.40013
1.4001
1.40008
1.40006
1.40004
1.40003
1.40002
1.40002
1.40001
1.40001
1.40001
1.40001
1.40001
1.40001
1.40001
1.40001
1.40001
1.40001
1.40001
1.40001
1.40001
1.40001
1.40001
1.44256
1.44949
1.45556
1.46032
1.46354
1.46521
1.46544
1.46449
1.46264
1.4602
1.45745
1.45465
1.45201
1.44971
1.44792
1.44676
1.44628
1.44652
1.44749
1.44916
1.4514
1.45405
1.45689
1.45968
1.46213
1.46392
1.46465
1.46397
1.46164
1.45767
1.45229
1.44594
1.43913
1.43237
1.42604
1.42042
1.41563
1.41172
1.40862
1.40624
1.40446
1.40316
1.40223
1.40158
1.40113
1.40081
1.4006
1.40045
1.40034
1.40026
1.4002
1.40015
1.40012
1.40009
1.40007
1.40005
1.40004
1.40003
1.40002
1.40002
1.40001
1.40001
1.40001
1.40001
1.40001
1.40001
1.40001
1.40001
1.40001
1.40001
1.40001
1.40001
1.40001
1.40001
1.40001
1.43637
1.4432
1.44963
1.45524
1.45969
1.46285
1.4647
1.4654
1.46514
1.46416
1.46272
1.46106
1.45938
1.45785
1.45664
1.45584
1.45551
1.45569
1.45638
1.45752
1.459
1.46064
1.46225
1.4636
1.46444
1.46447
1.4634
1.461
1.45723
1.45222
1.4463
1.43989
1.4334
1.42723
1.42164
1.4168
1.41275
1.40949
1.40694
1.40501
1.40357
1.40253
1.4018
1.40128
1.40092
1.40067
1.4005
1.40038
1.40029
1.40022
1.40017
1.40013
1.4001
1.40008
1.40006
1.40005
1.40003
1.40003
1.40002
1.40002
1.40001
1.40001
1.40001
1.40001
1.40001
1.40001
1.40001
1.40001
1.40001
1.40001
1.40001
1.40001
1.40001
1.40001
1.40001
1.4304
1.43676
1.4431
1.44903
1.45423
1.45846
1.46162
1.46372
1.46488
1.46526
1.46507
1.4645
1.46375
1.46298
1.46231
1.46185
1.46164
1.46173
1.46211
1.46271
1.4634
1.46404
1.46445
1.46445
1.46381
1.46231
1.45978
1.45612
1.45144
1.44594
1.43995
1.43383
1.42792
1.42247
1.41767
1.41359
1.41024
1.40758
1.40552
1.40397
1.40283
1.40201
1.40143
1.40103
1.40075
1.40055
1.40042
1.40032
1.40025
1.40019
1.40015
1.40012
1.40009
1.40007
1.40005
1.40004
1.40003
1.40002
1.40002
1.40001
1.40001
1.40001
1.40001
1.40001
1.40001
1.40001
1.40001
1.40001
1.40001
1.40001
1.40001
1.40001
1.40001
1.40001
1.40001
1.42489
1.43056
1.43645
1.44227
1.44771
1.45253
1.45656
1.45971
1.46201
1.46355
1.46446
1.4649
1.465
1.46491
1.46474
1.46458
1.46448
1.46447
1.46452
1.46457
1.4645
1.46421
1.46356
1.46238
1.46053
1.45786
1.45432
1.44993
1.44485
1.43932
1.43363
1.42806
1.42287
1.41821
1.41418
1.41082
1.4081
1.40596
1.40432
1.4031
1.40221
1.40158
1.40113
1.40082
1.4006
1.40045
1.40034
1.40027
1.40021
1.40016
1.40013
1.4001
1.40008
1.40006
1.40005
1.40004
1.40003
1.40002
1.40002
1.40001
1.40001
1.40001
1.40001
1.40001
1.40001
1.40001
1.40001
1.40001
1.40001
1.40001
1.40001
1.40001
1.40001
1.40001
1.40001
1.42001
1.42486
1.43008
1.43545
1.44073
1.44567
1.4501
1.45388
1.45696
1.45936
1.46114
1.46239
1.46322
1.46371
1.46397
1.46407
1.46405
1.46392
1.46366
1.46321
1.4625
1.46144
1.45993
1.45787
1.45516
1.45176
1.44768
1.44303
1.438
1.43279
1.42765
1.42279
1.41837
1.41448
1.41118
1.40847
1.4063
1.40461
1.40333
1.40239
1.40171
1.40122
1.40088
1.40065
1.40048
1.40037
1.40028
1.40022
1.40018
1.40014
1.40011
1.40009
1.40007
1.40005
1.40004
1.40003
1.40002
1.40002
1.40001
1.40001
1.40001
1.40001
1.40001
1.40001
1.40001
1.40001
1.40001
1.40001
1.40001
1.40001
1.40001
1.40001
1.40001
1.40001
1.40001
1.41582
1.41985
1.42429
1.42901
1.43382
1.43852
1.44294
1.44693
1.45041
1.45331
1.45565
1.45747
1.45882
1.45976
1.46035
1.46064
1.46067
1.46044
1.45993
1.4591
1.45791
1.4563
1.45422
1.4516
1.44843
1.44472
1.44054
1.43603
1.43135
1.4267
1.42224
1.41813
1.41447
1.41131
1.40867
1.40652
1.40482
1.40351
1.40253
1.40181
1.4013
1.40093
1.40068
1.40051
1.40038
1.4003
1.40023
1.40018
1.40015
1.40012
1.40009
1.40007
1.40006
1.40005
1.40004
1.40003
1.40002
1.40002
1.40001
1.40001
1.40001
1.40001
1.40001
1.40001
1.40001
1.40001
1.40001
1.40001
1.40001
1.40001
1.40001
1.40001
1.40001
1.40001
1.40001
1.41231
1.41558
1.41925
1.42323
1.4274
1.43161
1.43572
1.43958
1.44308
1.44615
1.44875
1.45086
1.45252
1.45373
1.45453
1.45495
1.45501
1.4547
1.45403
1.45296
1.45148
1.44957
1.44721
1.44437
1.44109
1.43743
1.43347
1.42936
1.42524
1.42125
1.41752
1.41414
1.41119
1.40867
1.4066
1.40493
1.40362
1.40263
1.40189
1.40136
1.40097
1.40071
1.40052
1.40039
1.4003
1.40024
1.40019
1.40015
1.40012
1.4001
1.40008
1.40006
1.40005
1.40004
1.40003
1.40002
1.40002
1.40001
1.40001
1.40001
1.40001
1.40001
1.40001
1.40001
1.40001
1.40001
1.40001
1.40001
1.40001
1.40001
1.40001
1.40001
1.40001
1.40001
1.40001
1.40945
1.41204
1.41499
1.41825
1.42173
1.42533
1.42893
1.43242
1.43569
1.43864
1.44123
1.4434
1.44515
1.44647
1.44736
1.44784
1.44791
1.44757
1.44682
1.44566
1.44408
1.44209
1.43969
1.43692
1.4338
1.43043
1.42691
1.42334
1.41985
1.41655
1.41351
1.41082
1.40848
1.40652
1.40493
1.40366
1.40267
1.40193
1.40139
1.401
1.40072
1.40053
1.40039
1.4003
1.40024
1.40019
1.40015
1.40013
1.4001
1.40008
1.40007
1.40005
1.40004
1.40003
1.40003
1.40002
1.40002
1.40001
1.40001
1.40001
1.40001
1.40001
1.40001
1.40001
1.40001
1.40001
1.40001
1.40001
1.40001
1.40001
1.40001
1.40001
1.40001
1.40001
1.40001
1.40716
1.40918
1.41149
1.41409
1.4169
1.41987
1.4229
1.42589
1.42876
1.43142
1.43379
1.43584
1.43752
1.43881
1.43969
1.44017
1.44024
1.4399
1.43915
1.43801
1.43649
1.43459
1.43235
1.42981
1.42703
1.4241
1.4211
1.41813
1.41527
1.41261
1.41021
1.4081
1.40631
1.40481
1.40361
1.40266
1.40193
1.40139
1.401
1.40072
1.40052
1.40039
1.4003
1.40023
1.40018
1.40015
1.40012
1.4001
1.40008
1.40007
1.40006
1.40005
1.40004
1.40003
1.40002
1.40002
1.40001
1.40001
1.40001
1.40001
1.40001
1.40001
1.40001
1.40001
1.40001
1.40001
1.40001
1.40001
1.40001
1.40001
1.40001
1.40001
1.40001
1.40001
1.40001
1.40537
1.40691
1.4087
1.41072
1.41293
1.41531
1.41775
1.42022
1.42262
1.42489
1.42695
1.42875
1.43025
1.43142
1.43222
1.43266
1.43272
1.43241
1.43172
1.43067
1.42929
1.42759
1.42562
1.42343
1.42107
1.41862
1.41616
1.41377
1.4115
1.40942
1.40756
1.40595
1.40459
1.40347
1.40258
1.40189
1.40137
1.40098
1.4007
1.40051
1.40037
1.40028
1.40022
1.40017
1.40014
1.40012
1.4001
1.40008
1.40007
1.40006
1.40005
1.40004
1.40003
1.40002
1.40002
1.40002
1.40001
1.40001
1.40001
1.40001
1.40001
1.40001
1.40001
1.40001
1.40001
1.40001
1.40001
1.40001
1.40001
1.40001
1.40001
1.40001
1.40001
1.40001
1.40001
1.40399
1.40515
1.4065
1.40804
1.40975
1.41159
1.41352
1.41548
1.41742
1.41928
1.42098
1.42249
1.42376
1.42475
1.42544
1.42581
1.42586
1.42558
1.42498
1.42407
1.42288
1.42143
1.41978
1.41796
1.41603
1.41406
1.4121
1.41022
1.40847
1.40687
1.40547
1.40427
1.40326
1.40245
1.4018
1.40131
1.40094
1.40067
1.40048
1.40035
1.40026
1.4002
1.40016
1.40013
1.40011
1.40009
1.40008
1.40007
1.40006
1.40005
1.40004
1.40003
1.40003
1.40002
1.40002
1.40001
1.40001
1.40001
1.40001
1.40001
1.40001
1.40001
1.40001
1.40001
1.40001
1.40001
1.40001
1.40001
1.40001
1.40001
1.40001
1.40001
1.40001
1.40001
1.40001
1.40294
1.40379
1.40481
1.40597
1.40726
1.40866
1.41014
1.41166
1.41317
1.41463
1.41599
1.4172
1.41823
1.41903
1.41959
1.41989
1.41992
1.41968
1.41917
1.41842
1.41743
1.41625
1.4149
1.41344
1.41192
1.41038
1.40886
1.40743
1.4061
1.40491
1.40387
1.40298
1.40226
1.40167
1.40122
1.40087
1.40062
1.40044
1.40032
1.40023
1.40018
1.40014
1.40011
1.4001
1.40008
1.40007
1.40006
1.40005
1.40005
1.40004
1.40003
1.40003
1.40002
1.40002
1.40001
1.40001
1.40001
1.40001
1.40001
1.40001
1.40001
1.40001
1.40001
1.40001
1.40001
1.40001
1.40001
1.40001
1.40001
1.40001
1.40001
1.40001
1.40001
1.40001
1.40001
1.40215
1.40279
1.40353
1.40438
1.40534
1.40639
1.4075
1.40865
1.4098
1.41092
1.41197
1.4129
1.4137
1.41432
1.41476
1.41499
1.415
1.41479
1.41438
1.41376
1.41297
1.41203
1.41098
1.40984
1.40866
1.40748
1.40634
1.40527
1.40428
1.40341
1.40266
1.40203
1.40151
1.40111
1.40079
1.40056
1.40039
1.40028
1.4002
1.40015
1.40011
1.40009
1.40008
1.40007
1.40006
1.40005
1.40005
1.40004
1.40004
1.40003
1.40003
1.40002
1.40002
1.40001
1.40001
1.40001
1.40001
1.40001
1.40001
1.40001
1.40001
1.40001
1.40001
1.40001
1.40001
1.40001
1.40001
1.40001
1.40001
1.40001
1.40001
1.40001
1.40001
1.40001
1.40001
1.40157
1.40203
1.40258
1.4032
1.4039
1.40466
1.40548
1.40633
1.40719
1.40802
1.4088
1.40951
1.41011
1.41058
1.4109
1.41106
1.41106
1.41089
1.41055
1.41006
1.40944
1.40871
1.4079
1.40704
1.40615
1.40527
1.40442
1.40364
1.40293
1.4023
1.40177
1.40133
1.40097
1.40069
1.40049
1.40034
1.40023
1.40016
1.40012
1.40009
1.40007
1.40006
1.40006
1.40005
1.40005
1.40004
1.40004
1.40003
1.40003
1.40003
1.40002
1.40002
1.40002
1.40001
1.40001
1.40001
1.40001
1.40001
1.40001
1.40001
1.40001
1.40001
1.40001
1.40001
1.40001
1.40001
1.40001
1.40001
1.40001
1.40001
1.40001
1.40001
1.40001
1.40001
1.40001
1.40115
1.40148
1.40187
1.40232
1.40283
1.40338
1.40397
1.40458
1.4052
1.40581
1.40639
1.4069
1.40733
1.40767
1.4079
1.40801
1.40799
1.40784
1.40758
1.4072
1.40673
1.40617
1.40556
1.40491
1.40426
1.40362
1.403
1.40244
1.40193
1.4015
1.40113
1.40083
1.40059
1.40041
1.40028
1.40018
1.40012
1.40008
1.40006
1.40005
1.40004
1.40004
1.40004
1.40004
1.40003
1.40003
1.40003
1.40003
1.40002
1.40002
1.40002
1.40002
1.40001
1.40001
1.40001
1.40001
1.40001
1.40001
1.40001
1.40001
1.40001
1.40001
1.40001
1.40001
1.40001
1.40001
1.40001
1.40001
1.40001
1.40001
1.40001
1.40001
1.40001
1.40001
1.40001
1.40084
1.40108
1.40136
1.40168
1.40204
1.40243
1.40285
1.40329
1.40373
1.40416
1.40457
1.40493
1.40524
1.40547
1.40563
1.40569
1.40566
1.40554
1.40533
1.40504
1.40468
1.40427
1.40382
1.40334
1.40287
1.40241
1.40197
1.40158
1.40123
1.40093
1.40068
1.40048
1.40033
1.40021
1.40013
1.40008
1.40005
1.40003
1.40002
1.40002
1.40002
1.40002
1.40002
1.40003
1.40003
1.40002
1.40002
1.40002
1.40002
1.40002
1.40001
1.40001
1.40001
1.40001
1.40001
1.40001
1.40001
1.40001
1.40001
1.40001
1.40001
1.40001
1.40001
1.40001
1.40001
1.40001
1.40001
1.40001
1.40001
1.40001
1.40001
1.40001
1.40001
1.40001
1.40001
1.40062
1.40079
1.40099
1.40121
1.40147
1.40174
1.40204
1.40234
1.40266
1.40295
1.40323
1.40348
1.40369
1.40385
1.40394
1.40398
1.40394
1.40384
1.40368
1.40345
1.40319
1.40288
1.40255
1.40221
1.40187
1.40155
1.40124
1.40097
1.40073
1.40054
1.40037
1.40025
1.40015
1.40009
1.40004
1.40002
1.4
1.4
1.4
1.4
1.40001
1.40001
1.40001
1.40002
1.40002
1.40002
1.40002
1.40002
1.40002
1.40001
1.40001
1.40001
1.40001
1.40001
1.40001
1.40001
1.40001
1.40001
1.40001
1.40001
1.40001
1.40001
1.40001
1.40001
1.40001
1.40001
1.40001
1.40001
1.40001
1.40001
1.40001
1.40001
1.40001
1.40001
1.40001
1.40047
1.40059
1.40073
1.40088
1.40106
1.40125
1.40146
1.40166
1.40187
1.40208
1.40227
1.40243
1.40257
1.40267
1.40272
1.40273
1.40269
1.40261
1.40248
1.40231
1.40211
1.40189
1.40165
1.40141
1.40117
1.40095
1.40074
1.40056
1.4004
1.40027
1.40017
1.40009
1.40004
1.40001
1.39999
1.39998
1.39997
1.39998
1.39998
1.39999
1.4
1.4
1.40001
1.40001
1.40001
1.40001
1.40001
1.40001
1.40001
1.40001
1.40001
1.40001
1.40001
1.40001
1.40001
1.40001
1.40001
1.40001
1.40001
1.40001
1.40001
1.40001
1.40001
1.40001
1.40001
1.40001
1.40001
1.40001
1.40001
1.40001
1.40001
1.40001
1.40001
1.40001
1.40001
1.40036
1.40044
1.40053
1.40065
1.40077
1.4009
1.40104
1.40118
1.40132
1.40146
1.40158
1.40169
1.40177
1.40183
1.40185
1.40185
1.40181
1.40174
1.40164
1.40151
1.40136
1.4012
1.40103
1.40086
1.4007
1.40054
1.40041
1.40029
1.40019
1.40011
1.40004
1.4
1.39997
1.39996
1.39995
1.39996
1.39996
1.39997
1.39998
1.39999
1.39999
1.4
1.4
1.40001
1.40001
1.40001
1.40001
1.40001
1.40001
1.40001
1.40001
1.40001
1.40001
1.40001
1.40001
1.40001
1.40001
1.40001
1.40001
1.40001
1.40001
1.40001
1.4
1.4
1.40001
1.40001
1.40001
1.40001
1.40001
1.40001
1.40001
1.40001
1.40001
1.40001
1.40001
1.40027
1.40034
1.40041
1.40048
1.40056
1.40066
1.40075
1.40084
1.40093
1.40102
1.4011
1.40116
1.40121
1.40124
1.40125
1.40123
1.40119
1.40113
1.40105
1.40096
1.40085
1.40073
1.40061
1.4005
1.40038
1.40028
1.40019
1.40011
1.40005
1.40001
1.39997
1.39995
1.39994
1.39993
1.39994
1.39995
1.39995
1.39996
1.39997
1.39998
1.39999
1.4
1.4
1.40001
1.40001
1.40001
1.40001
1.40001
1.40001
1.40001
1.40001
1.40001
1.40001
1.40001
1.40001
1.40001
1.40001
1.40001
1.40001
1.40001
1.40001
1.40001
1.40001
1.40001
1.40001
1.40001
1.40001
1.40001
1.40001
1.40001
1.40001
1.40001
1.40001
1.40001
1.40001
1.40021
1.40025
1.40031
1.40036
1.40042
1.40048
1.40054
1.4006
1.40066
1.40072
1.40076
1.4008
1.40082
1.40083
1.40083
1.40081
1.40077
1.40072
1.40066
1.40059
1.40051
1.40042
1.40034
1.40026
1.40018
1.40012
1.40006
1.40001
1.39997
1.39995
1.39993
1.39992
1.39992
1.39993
1.39994
1.39994
1.39996
1.39997
1.39997
1.39998
1.39999
1.4
1.4
1.4
1.40001
1.40001
1.40001
1.40001
1.40001
1.40001
1.40001
1.40001
1.40001
1.40001
1.40001
1.40001
1.40001
1.40001
1.40001
1.40001
1.4
1.4
1.4
1.4
1.40001
1.40001
1.40001
1.40001
1.40001
1.40001
1.40001
1.40001
1.40001
1.40001
1.40001
1.40017
1.4002
1.40023
1.40027
1.40032
1.40036
1.4004
1.40044
1.40047
1.4005
1.40053
1.40055
1.40056
1.40056
1.40055
1.40053
1.40049
1.40045
1.4004
1.40035
1.40029
1.40023
1.40017
1.40011
1.40006
1.40002
1.39998
1.39995
1.39993
1.39992
1.39991
1.39991
1.39992
1.39993
1.39994
1.39995
1.39996
1.39997
1.39998
1.39999
1.39999
1.4
1.4
1.4
1.4
1.40001
1.40001
1.40001
1.40001
1.40001
1.40001
1.40001
1.40001
1.40001
1.40001
1.40001
1.40001
1.40001
1.40001
1.40001
1.40001
1.40001
1.40001
1.40001
1.40001
1.40001
1.40001
1.40001
1.40001
1.40001
1.40001
1.40001
1.40001
1.40001
1.40001
1.40013
1.40015
1.40019
1.40021
1.40024
1.40027
1.4003
1.40032
1.40034
1.40036
1.40037
1.40038
1.40038
1.40037
1.40036
1.40034
1.40031
1.40027
1.40024
1.40019
1.40015
1.40011
1.40006
1.40003
1.39999
1.39996
1.39994
1.39992
1.39991
1.39991
1.39991
1.39992
1.39992
1.39993
1.39994
1.39995
1.39996
1.39997
1.39998
1.39999
1.39999
1.4
1.4
1.4
1.4
1.40001
1.40001
1.40001
1.40001
1.40001
1.40001
1.40001
1.40001
1.40001
1.40001
1.40001
1.40001
1.40001
1.40001
1.40001
1.40001
1.4
1.4
1.40001
1.40001
1.40001
1.40001
1.40001
1.40001
1.40001
1.40001
1.40001
1.40001
1.40001
1.40001
1.40011
1.40012
1.40014
1.40017
1.40018
1.4002
1.40022
1.40024
1.40025
1.40026
1.40027
1.40027
1.40026
1.40025
1.40024
1.40022
1.40019
1.40016
1.40013
1.4001
1.40007
1.40003
1.4
1.39998
1.39996
1.39994
1.39993
1.39992
1.39991
1.39991
1.39992
1.39992
1.39993
1.39994
1.39995
1.39996
1.39997
1.39998
1.39998
1.39999
1.39999
1.4
1.4
1.4
1.4
1.4
1.40001
1.40001
1.40001
1.40001
1.40001
1.40001
1.40001
1.40001
1.40001
1.40001
1.40001
1.4
1.40001
1.40001
1.40001
1.40001
1.40001
1.40001
1.40001
1.40001
1.40001
1.40001
1.40001
1.40001
1.40001
1.40001
1.40001
1.40001
1.40001
1.40008
1.4001
1.40011
1.40013
1.40014
1.40015
1.40017
1.40018
1.40019
1.40019
1.40019
1.40019
1.40018
1.40017
1.40015
1.40014
1.40012
1.40009
1.40007
1.40005
1.40002
1.39999
1.39998
1.39996
1.39994
1.39993
1.39992
1.39992
1.39992
1.39992
1.39993
1.39993
1.39994
1.39995
1.39996
1.39997
1.39997
1.39998
1.39999
1.39999
1.4
1.4
1.4
1.4
1.4
1.4
1.4
1.40001
1.40001
1.40001
1.40001
1.40001
1.40001
1.40001
1.40001
1.40001
1.40001
1.40001
1.40001
1.40001
1.40001
1.40001
1.40001
1.40001
1.40001
1.40001
1.40001
1.40001
1.40001
1.40001
1.40001
1.40001
1.40001
1.40001
1.40001
1.40007
1.40008
1.40009
1.4001
1.40011
1.40012
1.40013
1.40013
1.40014
1.40014
1.40014
1.40013
1.40013
1.40012
1.40011
1.40009
1.40007
1.40005
1.40003
1.40001
1.4
1.39998
1.39996
1.39995
1.39994
1.39993
1.39993
1.39993
1.39993
1.39993
1.39994
1.39994
1.39995
1.39996
1.39997
1.39997
1.39998
1.39998
1.39999
1.39999
1.4
1.4
1.4
1.4
1.4
1.4
1.4
1.4
1.4
1.40001
1.40001
1.40001
1.40001
1.40001
1.40001
1.4
1.4
1.4
1.40001
1.40001
1.40001
1.40001
1.40001
1.40001
1.40001
1.40001
1.40001
1.40001
1.40001
1.40001
1.40001
1.40001
1.40001
1.40001
1.40001
1.40005
1.40006
1.40007
1.40008
1.40009
1.40009
1.4001
1.4001
1.40011
1.40011
1.4001
1.4001
1.40009
1.40008
1.40007
1.40006
1.40004
1.40003
1.40001
1.4
1.39998
1.39997
1.39996
1.39995
1.39994
1.39994
1.39994
1.39994
1.39994
1.39994
1.39995
1.39995
1.39996
1.39997
1.39997
1.39998
1.39998
1.39999
1.39999
1.4
1.4
1.4
1.4
1.4
1.4
1.4
1.4
1.40001
1.40001
1.40001
1.40001
1.40001
1.40001
1.40001
1.40001
1.40001
1.40001
1.40001
1.40001
1.40001
1.40001
1.40001
1.40001
1.40001
1.40001
1.40001
1.40001
1.40001
1.40001
1.40001
1.40001
1.40001
1.40001
1.40001
1.40001
1.40004
1.40005
1.40005
1.40006
1.40007
1.40007
1.40008
1.40008
1.40008
1.40008
1.40008
1.40007
1.40007
1.40006
1.40005
1.40004
1.40003
1.40001
1.4
1.39999
1.39998
1.39997
1.39996
1.39996
1.39995
1.39995
1.39995
1.39995
1.39995
1.39995
1.39996
1.39996
1.39997
1.39997
1.39998
1.39998
1.39999
1.39999
1.4
1.4
1.4
1.4
1.4
1.4
1.4
1.4
1.40001
1.40001
1.40001
1.40001
1.40001
1.40001
1.40001
1.40001
1.40001
1.40001
1.40001
1.40001
1.40001
1.40001
1.40001
1.40001
1.40001
1.40001
1.40001
1.40001
1.40001
1.40001
1.40001
1.40001
1.40001
1.40001
1.40001
1.40001
1.40001
1.40003
1.40004
1.40005
1.40005
1.40005
1.40006
1.40006
1.40006
1.40006
1.40006
1.40006
1.40006
1.40005
1.40004
1.40004
1.40003
1.40002
1.40001
1.4
1.39999
1.39998
1.39997
1.39997
1.39996
1.39996
1.39996
1.39996
1.39996
1.39996
1.39997
1.39997
1.39997
1.39998
1.39998
1.39999
1.39999
1.39999
1.39999
1.4
1.4
1.4
1.4
1.4
1.4
1.4
1.4
1.4
1.40001
1.40001
1.40001
1.40001
1.40001
1.4
1.4
1.4
1.40001
1.40001
1.40001
1.40001
1.40001
1.40001
1.40001
1.40001
1.40001
1.40001
1.40001
1.40001
1.40001
1.40001
1.40001
1.40001
1.40001
1.40001
1.40001
1.40001
1.40003
1.40003
1.40003
1.40004
1.40004
1.40004
1.40005
1.40005
1.40005
1.40005
1.40004
1.40004
1.40004
1.40003
1.40003
1.40002
1.40001
1.4
1.4
1.39999
1.39998
1.39998
1.39997
1.39997
1.39997
1.39997
1.39997
1.39997
1.39997
1.39997
1.39998
1.39998
1.39998
1.39999
1.39999
1.39999
1.39999
1.4
1.4
1.4
1.4
1.4
1.4
1.4
1.4
1.4
1.4
1.4
1.4
1.4
1.40001
1.40001
1.40001
1.40001
1.40001
1.40001
1.40001
1.40001
1.40001
1.40001
1.40001
1.40001
1.40001
1.40001
1.40001
1.40001
1.40001
1.40001
1.40001
1.40001
1.40001
1.40001
1.40001
1.40001
1.40001
1.40002
1.40003
1.40003
1.40003
1.40003
1.40004
1.40004
1.40004
1.40004
1.40004
1.40004
1.40003
1.40003
1.40003
1.40002
1.40001
1.40001
1.4
1.4
1.39999
1.39999
1.39998
1.39998
1.39998
1.39998
1.39998
1.39998
1.39998
1.39998
1.39998
1.39998
1.39999
1.39999
1.39999
1.39999
1.4
1.4
1.4
1.4
1.4
1.4
1.4
1.4
1.4
1.4
1.4
1.4
1.40001
1.40001
1.4
1.4
1.4
1.4
1.4
1.4
1.40001
1.40001
1.40001
1.40001
1.40001
1.40001
1.40001
1.40001
1.40001
1.40001
1.40001
1.40001
1.40001
1.40001
1.40001
1.40001
1.40001
1.40001
1.40001
1.40001
1.40002
1.40002
1.40002
1.40003
1.40003
1.40003
1.40003
1.40003
1.40003
1.40003
1.40003
1.40003
1.40002
1.40002
1.40001
1.40001
1.40001
1.4
1.4
1.39999
1.39999
1.39999
1.39999
1.39998
1.39998
1.39998
1.39998
1.39998
1.39998
1.39999
1.39999
1.39999
1.39999
1.39999
1.4
1.4
1.4
1.4
1.4
1.4
1.4
1.4
1.4
1.4
1.4
1.4
1.4
1.4
1.40001
1.40001
1.40001
1.40001
1.40001
1.40001
1.40001
1.40001
1.40001
1.40001
1.40001
1.40001
1.40001
1.40001
1.40001
1.40001
1.40001
1.40001
1.40001
1.40001
1.40001
1.40001
1.40001
1.40001
1.40001
1.40001
1.40001
1.40002
1.40002
1.40002
1.40002
1.40002
1.40002
1.40002
1.40002
1.40002
1.40002
1.40002
1.40002
1.40002
1.40002
1.40001
1.40001
1.40001
1.4
1.4
1.4
1.39999
1.39999
1.39999
1.39999
1.39999
1.39999
1.39999
1.39999
1.39999
1.39999
1.39999
1.39999
1.4
1.4
1.4
1.4
1.4
1.4
1.4
1.4
1.4
1.4
1.4
1.4
1.4
1.40001
1.40001
1.4
1.4
1.4
1.4
1.40001
1.40001
1.40001
1.40001
1.40001
1.40001
1.40001
1.40001
1.40001
1.40001
1.40001
1.40001
1.40001
1.40001
1.40001
1.40001
1.40001
1.40001
1.40001
1.40001
1.40001
1.40001
1.40001
1.40001
1.40001
1.40001
1.40002
1.40002
1.40002
1.40002
1.40002
1.40002
1.40002
1.40002
1.40002
1.40002
1.40001
1.40001
1.40001
1.40001
1.40001
1.4
1.4
1.4
1.4
1.39999
1.39999
1.39999
1.39999
1.39999
1.39999
1.39999
1.39999
1.39999
1.4
1.4
1.4
1.4
1.4
1.4
1.4
1.4
1.4
1.4
1.4
1.4
1.4
1.4
1.4
1.4
1.40001
1.40001
1.40001
1.4
1.4
1.4
1.40001
1.40001
1.40001
1.40001
1.40001
1.4
1.4
1.4
1.40001
1.40001
1.40001
1.40001
1.40001
1.40001
1.40001
1.40001
1.40001
1.40001
1.40001
1.40001
1.40001
1.40001
1.40001
1.40001
1.40001
1.40001
1.40001
1.40001
1.40001
1.40002
1.40001
1.40002
1.40001
1.40001
1.40001
1.40001
1.40001
1.40001
1.40001
1.40001
1.4
1.4
1.4
1.4
1.4
1.4
1.4
1.4
1.4
1.4
1.4
1.4
1.4
1.4
1.4
1.4
1.4
1.4
1.4
1.4
1.4
1.4
1.4
1.4
1.4
1.4
1.40001
1.40001
1.40001
1.4
1.4
1.4
1.40001
1.40001
1.40001
1.40001
1.4
1.40001
1.40001
1.40001
1.40001
1.40001
1.40001
1.40001
1.40001
1.4
1.4
1.4
1.40001
1.40001
1.40001
1.40001
1.40001
1.40001
1.40001
1.40001
1.40001
1.40001
1.40001
1.40001
1.40001
1.40001
1.40001
1.40001
1.40001
1.40001
1.40001
1.40001
1.40001
1.40001
1.40001
1.40001
1.40001
1.40001
1.40001
1.4
1.4
1.4
1.4
1.4
1.4
1.4
1.4
1.4
1.4
1.4
1.4
1.4
1.4
1.4
1.4
1.4
1.4
1.4
1.4
1.4
1.4
1.4
1.4
1.4
1.4
1.4
1.4
1.40001
1.40001
1.4
1.4
1.4
1.4
1.40001
1.40001
1.40001
1.40001
1.40001
1.4
1.4
1.4
1.40001
1.40001
1.40001
1.40001
1.40001
1.40001
1.40001
1.40001
1.40001
1.40001
1.40001
1.40001
1.40001
1.40001
1.40001
1.40001
1.40001
1.40001
1.40001
1.40001
1.40001
1.40001
1.40001
1.40001
1.40001
1.40001
1.40001
1.40001
1.40001
1.40001
1.40001
1.40001
1.40001
1.4
1.4
1.4
1.4
1.4
1.4
1.4
1.4
1.4
1.4
1.4
1.4
1.4
1.4
1.4
1.4
1.4
1.4
1.4
1.4
1.4
1.4
1.4
1.4
1.4
1.4
1.40001
1.4
1.4
1.4
1.4
1.40001
1.40001
1.40001
1.4
1.4
1.40001
1.40001
1.40001
1.40001
1.40001
1.40001
1.40001
1.40001
1.4
1.4
1.4
1.40001
1.40001
1.40001
1.40001
1.40001
1.40001
1.40001
1.40001
1.40001
1.40001
1.40001
1.40001
1.40001
1.40001
1.40001
1.40001
1.40001
1.40001
1.40001
1.40001
1.40001
1.40001
1.40001
1.40001
1.40001
1.40001
1.40001
1.4
1.4
1.4
1.4
1.4
1.4
1.4
1.4
1.4
1.4
1.4
1.4
1.4
1.4
1.4
1.4
1.4
1.4
1.4
1.4
1.4
1.4
1.4
1.4
1.4
1.4
1.4
1.4
1.4
1.4
1.40001
1.40001
1.40001
1.40001
1.40001
1.40001
1.40001
1.40001
1.4
1.4
1.4
1.4
1.40001
1.40001
1.40001
1.40001
1.40001
1.40001
1.40001
1.40001
1.40001
1.40001
1.40001
1.40001
1.40001
1.40001
1.40001
1.40001
1.40001
1.40001
1.40001
1.40001
1.40001
1.40001
1.40001
1.40001
1.40001
1.40001
1.40001
1.40001
1.40001
1.40001
1.40001
1.40001
1.40001
1.40001
1.4
1.4
1.4
1.4
1.4
1.4
1.4
1.4
1.4
1.4
1.4