/*--------------------------------*- C++ -*----------------------------------*\
  =========                 |
  \\      /  F ield         | OpenFOAM: The Open Source CFD Toolbox
   \\    /   O peration     | Website:  https://openfoam.org
    \\  /    A nd           | Version:  6
     \\/     M anipulation  |
\*---------------------------------------------------------------------------*/
FoamFile
{
    version     2.0;
    format      ascii;
    class       surfaceScalarField;
    location    "3.32";
    object      meshPhi;
}
// * * * * * * * * * * * * * * * * * * * * * * * * * * * * * * * * * * * * * //

dimensions      [0 3 -1 0 0 0 0];

internalField   nonuniform List<scalar> 
8193
(
0.0019284
-0.00158444
-0.000805916
0.00262732
-0.00305033
0.00297538
-0.00443143
0.00305256
-0.00570578
0.00293892
-0.00685047
0.00270864
-0.00784284
0.00242537
-0.00866176
0.00213935
-0.00928884
0.00188591
-0.00970952
0.0016855
-0.0099139
0.00154471
-0.00989731
0.0014583
-0.00966042
0.00141161
-0.00920928
0.00138338
-0.00855493
0.00134855
-0.00771291
0.00128093
-0.00670266
0.00115562
-0.00554686
0.000951043
-0.00427079
0.000650645
-0.00290167
0.00024421
-0.00146819
-0.000271231
1.10392e-14
-0.000890847
0.00147271
-0.00160182
0.00291959
-0.00238353
0.00431051
-0.00320816
0.00561602
-0.0040417
0.00680778
-0.00484537
0.00785917
-0.00557758
0.00874584
-0.00619623
0.00944646
-0.00666148
0.00994337
-0.00693868
0.0102233
-0.00700153
0.0102777
-0.00683498
0.0101035
-0.00643783
0.00970304
-0.00582459
0.00908381
-0.00502636
0.0082583
-0.0040904
0.00724308
-0.00307831
0.00605789
-0.00206268
0.00472448
-0.00112221
0.00326539
0.00170291
-0.000335711
0.00629231
-0.00367233
-0.00360235
0.00789956
-0.00597039
0.00863284
-0.00825448
0.00870924
-0.01048
0.00833765
-0.0125908
0.0077055
-0.0145243
0.00696912
-0.0162153
0.00624802
-0.0176018
0.00562278
-0.0186286
0.00513606
-0.0192512
0.00479625
-0.0194377
0.00458285
-0.0191708
0.00445302
-0.0184479
0.00434867
-0.0172807
0.00420339
-0.015694
0.00394909
-0.0137244
0.00352181
-0.0114182
0.00286672
-0.0088299
0.00194219
-0.00602006
0.00072297
-0.00305396
-0.000797597
0
-0.00260616
0.00307159
-0.00466883
0.00608999
-0.00693154
0.00898505
-0.0093213
0.0116886
-0.0117485
0.0141361
-0.0141103
0.0162678
-0.0162951
0.0180314
-0.0181883
0.0193833
-0.0196789
0.0202906
-0.0206668
0.0207332
-0.0210709
0.0207047
-0.0208369
0.0202131
-0.0199441
0.019281
-0.0184117
0.0179442
-0.0163015
0.0162494
-0.0137193
0.0142516
-0.0108119
0.0120099
-0.00776092
0.00958297
-0.00477278
0.00702452
0.00437933
-0.00206535
0.0116099
-0.0054088
-0.00828449
0.0134755
-0.00819254
0.014195
-0.0111534
0.0140789
-0.0142112
0.0134148
-0.0172612
0.0124528
-0.0201826
0.0113951
-0.0228484
0.0103906
-0.0251351
0.0095343
-0.0269302
0.00886987
-0.0281397
0.00839587
-0.0286924
0.00807351
-0.0285431
0.00783584
-0.0276733
0.00759728
-0.0260905
0.00726294
-0.0238265
0.00673724
-0.0209343
0.00593154
-0.0174853
0.00477061
-0.0135656
0.00319792
-0.00927297
0.00117972
-0.00471367
-0.00129196
0
-0.00419744
0.00475225
-0.00748849
0.00942611
-0.0110886
0.0139057
-0.0148946
0.0180786
-0.0187789
0.0218387
-0.0225942
0.0250894
-0.0261788
0.0277464
-0.029364
0.029742
-0.0319827
0.031028
-0.0338791
0.0315787
-0.0349198
0.0313938
-0.0350043
0.030499
-0.0340757
0.0289455
-0.032129
0.0268086
-0.0292185
0.0241824
-0.0254603
0.0211747
-0.0210319
0.017899
-0.0161668
0.0144659
-0.0111443
0.0109738
0.00750118
-0.00627498
0.0173208
-0.00626142
-0.0139861
0.0190673
-0.00943389
0.0195963
-0.0130432
0.0192609
-0.0169589
0.0183782
-0.0210135
0.0172165
-0.0250159
0.0159861
-0.0287665
0.0148365
-0.032071
0.0138564
-0.0347526
0.0130791
-0.0366621
0.0124893
-0.0376846
0.0120324
-0.037744
0.011625
-0.036804
0.0111652
-0.0348669
0.0105427
-0.0319712
0.00964793
-0.0281867
0.00838067
-0.0236106
0.00665648
-0.0183616
0.00441261
-0.0125761
0.00161232
-0.00640294
-0.00175177
-1.76465e-20
-0.00565555
0.00646952
-0.0100423
0.0128405
-0.0148226
0.018949
-0.0198757
0.0246363
-0.0250522
0.0297525
-0.0301779
0.0341613
-0.0350598
0.0377446
-0.0394936
0.0404082
-0.0432728
0.0420866
-0.0461995
0.0427477
-0.0480963
0.0423963
-0.0488183
0.0410762
-0.0482655
0.0388691
-0.0463935
0.0358922
-0.0432227
0.0322917
-0.038844
0.0282343
-0.0334207
0.0238959
-0.0271859
0.0194488
-0.0204356
0.0150477
0.0108173
-0.0135158
0.0231258
-0.00602243
-0.0200963
0.0246223
-0.00966732
0.0249629
-0.0140241
0.0244965
-0.0189014
0.0235292
-0.0240615
0.0223135
-0.0292384
0.0210425
-0.0341573
0.0198479
-0.0385526
0.0188025
-0.0421837
0.0179252
-0.0448473
0.0171891
-0.0463867
0.0165303
-0.0466965
0.0158584
-0.0457239
0.0150669
-0.0434674
0.0140421
-0.0399726
0.0126732
-0.0353267
0.010859
-0.0296523
0.00851534
-0.0231007
0.00558036
-0.0158457
0.00201873
-0.00807798
-0.00217493
0
-0.00697372
0.00817871
-0.0123172
0.0162457
-0.0181111
0.0239902
-0.0242279
0.0312071
-0.0305096
0.037703
-0.0367706
0.0433015
-0.0428035
0.0478499
-0.0483858
0.0512259
-0.0532888
0.0533447
-0.0572879
0.0541649
-0.060174
0.0536937
-0.061766
0.0519891
-0.0619233
0.04916
-0.0605573
0.0453621
-0.0576419
0.0407912
-0.0532206
0.0356715
-0.0474118
0.0302416
-0.0404087
0.024738
-0.0324755
0.0193773
0.0143389
-0.0239395
0.0290147
-0.00475923
-0.0263395
0.0303166
-0.00905825
0.0305865
-0.0143152
0.0301338
-0.0202745
0.0292255
-0.0266284
0.0280779
-0.0330391
0.026853
-0.0391615
0.0256578
-0.0446647
0.0245469
-0.0492502
0.0235278
-0.0526672
0.0225678
-0.0547221
0.0216025
-0.0552845
0.0205449
-0.0542887
0.0192943
-0.0517311
0.0177451
-0.0476655
0.0157948
-0.0421961
0.0133505
-0.0354697
0.0103357
-0.0276683
0.00669475
-0.0190009
0.00239704
-0.00969682
-0.00255977
1.17185e-14
-0.00814747
0.00983691
-0.0143058
0.0195575
-0.0209416
0.0289066
-0.0279298
0.0376361
-0.0351142
0.0455108
-0.0423108
0.0523158
-0.0493122
0.0578641
-0.0558933
0.0620052
-0.0618192
0.0646333
-0.0668542
0.065695
-0.0707722
0.0651954
-0.0733682
0.0632018
-0.0744699
0.0598434
-0.0739489
0.0553078
-0.0717311
0.0498326
-0.0678052
0.0436922
-0.0622285
0.0371821
-0.0551301
0.0305984
-0.0467099
0.0242179
0.0182764
-0.0372351
0.0352477
-0.00272686
-0.032794
0.0365157
-0.00788036
0.036876
-0.0141799
0.0365785
-0.0213098
0.0358369
-0.0288996
0.0348236
-0.0365486
0.0336663
-0.0438516
0.0324483
-0.0504224
0.0312105
-0.0559147
0.0299552
-0.0600383
0.0286525
-0.0625702
0.0272467
-0.0633606
0.0256635
-0.0623341
0.0238177
-0.0594873
0.0216203
-0.0548823
0.018985
-0.0486394
0.0158341
-0.0409278
0.0121039
-0.0319565
0.00774895
-0.0219661
0.00274553
-0.0112204
-0.0029051
1.17671e-14
-0.00917453
0.0114041
-0.0160056
0.0226962
-0.0233113
0.0335816
-0.030975
0.0437731
-0.038851
0.0529977
-0.046767
0.0610048
-0.054527
0.0675752
-0.0619164
0.072531
-0.068708
0.0757446
-0.0746697
0.0771486
-0.0795733
0.0767422
-0.083204
0.0745958
-0.0853707
0.070852
-0.0859161
0.065721
-0.0847258
0.0594721
-0.081737
0.0524197
-0.0769444
0.0449051
-0.0704048
0.0372748
-0.0622388
0.0298578
0.0229416
-0.0526298
0.0422924
-0.000261466
-0.0398485
0.0437058
-0.00642569
0.0442925
-0.0138544
0.044237
-0.0221817
0.0436989
-0.030986
0.0428087
-0.0398164
0.0416647
-0.0482203
0.0403333
-0.0557688
0.0388491
-0.0620786
0.0372183
-0.0668296
0.0354222
-0.0697765
0.0334219
-0.0707555
0.0311641
-0.0696851
0.0285862
-0.0665631
0.0256222
-0.0614599
0.0222075
-0.0545098
0.0182842
-0.0459012
0.0138046
-0.0358666
0.00873588
-0.024673
0.00306262
-0.0126135
-0.00321014
3.5293e-20
-0.0100547
0.0128441
-0.0174191
0.0255895
-0.0252258
0.0379077
-0.0333712
0.0494776
-0.0417261
0.0599931
-0.0501369
0.0691722
-0.0584278
0.0767668
-0.0664046
0.0825732
-0.0738593
0.0864431
-0.0805758
0.0882935
-0.0863371
0.0881147
-0.0909329
0.0859756
-0.0941678
0.0820247
-0.0958697
0.0764859
-0.0958974
0.0696497
-0.094148
0.0618585
-0.090563
0.0534868
-0.0851326
0.0449193
-0.077899
0.0365254
0.0286348
-0.0689574
0.0507263
0.00232475
-0.0481025
0.0524058
-0.00492444
0.0532741
-0.0134901
0.0534567
-0.0229688
0.053067
-0.0329013
0.0522026
-0.0428007
0.0509422
-0.0521803
0.0493444
-0.0605806
0.0474469
-0.067592
0.0452679
-0.0728733
0.0428073
-0.0761637
0.0400502
-0.0772897
0.0369695
-0.0761662
0.0335303
-0.0727927
0.0296934
-0.0672467
0.0254192
-0.0596742
0.0206715
-0.0502789
0.015421
-0.0393121
0.00964839
-0.0270622
0.00334694
-0.0138459
-0.00347454
-3.5293e-20
-0.0107898
0.0141255
-0.0185534
0.0281741
-0.0266991
0.0417895
-0.0351393
0.0546225
-0.0437649
0.0663397
-0.0524456
0.0766323
-0.0610318
0.0852272
-0.0693564
0.0918983
-0.0772386
0.0964779
-0.0844883
0.0988675
-0.0909106
0.0990471
-0.0963121
0.09708
-0.100507
0.0931148
-0.103323
0.0873815
-0.104607
0.0801819
-0.104234
0.0718748
-0.102107
0.0628561
-0.0981644
0.0535352
-0.0923843
0.0443095
0.0355389
-0.0847842
0.0611168
0.00482814
-0.0582268
0.0630695
-0.00348704
0.0641605
-0.0131176
0.0644696
-0.0236354
0.0640772
-0.0345573
0.0630601
-0.045373
0.0614886
-0.0555741
0.059423
-0.0646814
0.0569127
-0.0722685
0.0539943
-0.0779803
0.0506922
-0.0815459
0.0470193
-0.0827855
0.0429784
-0.0816116
0.0385643
-0.0780253
0.0337663
-0.0721094
0.0285709
-0.0640182
0.0229644
-0.0539671
0.0169358
-0.0422212
0.0104795
-0.0290848
0.00359736
-0.0148924
-0.00369833
0
-0.0113833
0.0152223
-0.0194191
0.030397
-0.0277519
0.0451459
-0.0363115
0.0590982
-0.0450102
0.0718983
-0.0537437
0.0832162
-0.0623911
0.0927585
-0.0708168
0.10028
-0.0788723
0.105596
-0.0863995
0.108595
-0.0932338
0.109244
-0.0992081
0.1076
-0.104157
0.103807
-0.107922
0.0980948
-0.110355
0.0907691
-0.111321
0.0821953
-0.110707
0.0727798
-0.108418
0.0629452
-0.104389
0.0531047
0.0436368
-0.0985782
0.0738973
0.0072036
-0.0708047
0.0759922
-0.00207719
0.0771249
-0.0126371
0.0773457
-0.0240349
0.0767159
-0.0357747
0.075304
-0.047334
0.0731813
-0.0581929
0.0704184
-0.0678617
0.0670819
-0.0759042
0.0632317
-0.0819572
0.0589195
-0.0857435
0.0541876
-0.0870793
0.0490695
-0.0858751
0.0435898
-0.0821328
0.0377661
-0.0759379
0.0316099
-0.0674502
0.0251295
-0.0568921
0.0183313
-0.0445381
0.0112224
-0.0307032
0.00381296
-0.0157341
-0.00388192
-5.811e-15
-0.0118401
0.0161144
-0.0200304
0.0322165
-0.0284113
0.0479125
-0.0369297
0.0628151
-0.0455199
0.0765527
-0.0541035
0.0887791
-0.0625892
0.0991851
-0.070874
0.107511
-0.0788439
0.113558
-0.0863761
0.117201
-0.0933404
0.118399
-0.0996023
0.117199
-0.105025
0.113739
-0.109474
0.108244
-0.112816
0.101018
-0.114925
0.0924244
-0.115685
0.0828726
-0.114991
0.0727886
-0.112753
0.0625921
0.0526698
-0.108897
0.0892547
0.00957256
-0.0861782
0.091232
-0.000519012
0.0921225
-0.011836
0.0919615
-0.0239327
0.0908035
-0.0363098
0.0887181
-0.0484412
0.0857854
-0.0598035
0.0820912
-0.0699026
0.0777227
-0.0782984
0.0727647
-0.0846238
0.0672965
-0.0885977
0.0613896
-0.0900333
0.0551064
-0.0888392
0.0484998
-0.0850163
0.0416132
-0.0786507
0.0344818
-0.0699041
0.0271334
-0.0590023
0.0195902
-0.0462245
0.011871
-0.0318917
0.0039931
-0.0163577
-0.00402607
5.76469e-15
-0.0121665
0.0167878
-0.020404
0.0336032
-0.0287088
0.050042
-0.0370438
0.0657062
-0.045364
0.0802128
-0.0536156
0.0932044
-0.061736
0.104361
-0.0696536
0.113411
-0.0772884
0.120146
-0.084553
0.124432
-0.0913532
0.126218
-0.0975894
0.125541
-0.103158
0.122533
-0.107953
0.117411
-0.111866
0.110472
-0.114791
0.102077
-0.116621
0.0926276
-0.117257
0.0825482
-0.116603
0.0722566
0.0621409
-0.114573
0.107046
0.0121893
-0.104323
0.108557
0.0014643
0.10886
-0.0104287
0.107986
-0.0230465
0.105991
-0.0358924
0.102952
-0.0484433
0.098962
-0.0601773
0.0941238
-0.0706016
0.0885463
-0.0792756
0.0823381
-0.0858306
0.0756044
-0.0899838
0.0684433
-0.0915456
0.0609433
-0.0904218
0.0531823
-0.0866111
0.0452267
-0.0801976
0.037132
-0.0713417
0.0289432
-0.0602693
0.0206963
-0.0472601
0.01242
-0.032637
0.00413742
-0.0167566
-0.00413183
-5.94067e-15
-0.0123699
0.0172348
-0.0205591
0.0345401
-0.0286798
0.0515059
-0.0367095
0.0677279
-0.0446218
0.0828168
-0.0523851
0.0964081
-0.0599627
0.108175
-0.0673118
0.117838
-0.0743841
0.125183
-0.0811254
0.130068
-0.0874758
0.132433
-0.0933702
0.132309
-0.0987385
0.129819
-0.103506
0.125172
-0.107593
0.118657
-0.110917
0.110623
-0.113392
0.101466
-0.114932
0.091601
-0.11545
0.0814393
0.0713644
-0.114865
0.126755
0.0153737
-0.124775
0.127428
0.00418781
0.126795
-0.00811434
0.12489
-0.0210965
0.121775
-0.0342693
0.117537
-0.0471166
0.112284
-0.0591224
0.106136
-0.0697978
0.0992208
-0.0787046
0.0916688
-0.0854745
0.0836075
-0.0898232
0.0751579
-0.0915584
0.0664308
-0.0905827
0.0575252
-0.0868905
0.0485268
-0.0805619
0.0395081
-0.0717536
0.0305283
-0.060688
0.0216348
-0.0476424
0.0128647
-0.0329379
0.00424584
-0.0169301
-0.00420054
-2.64486e-16
-0.0124586
0.0174538
-0.0205158
0.0350223
-0.0283617
0.0522936
-0.0359862
0.0688612
-0.0433786
0.084333
-0.0505266
0.0983414
-0.0574156
0.110556
-0.0640282
0.120694
-0.0703436
0.128536
-0.076337
0.133935
-0.0819796
0.136826
-0.0872375
0.137234
-0.0920717
0.135271
-0.0964375
0.13114
-0.100284
0.125117
-0.103555
0.117542
-0.106186
0.108798
-0.108111
0.0992889
-0.10926
0.0894151
0.0795519
-0.10956
0.147501
0.0194232
-0.146612
0.147014
0.00792971
0.145157
-0.00463983
0.141968
-0.0178589
0.13752
-0.0312483
0.131911
-0.0443017
0.125261
-0.0565113
0.117705
-0.0673943
0.109388
-0.0765163
0.100459
-0.0835104
0.0910642
-0.0880913
0.0813421
-0.0900639
0.0714222
-0.0893262
0.0614205
-0.0858673
0.0514382
-0.0797613
0.0415613
-0.0711588
0.0318607
-0.0602766
0.022393
-0.0473863
0.0132016
-0.0328048
0.00431859
-0.0168834
-0.0042338
0
-0.0124412
0.0174491
-0.0202956
0.0350569
-0.0277936
0.0524127
-0.0349352
0.0691109
-0.0417228
0.0847596
-0.0481599
0.0989914
-0.0542501
0.111475
-0.0599971
0.121927
-0.0654028
0.130126
-0.0704673
0.135921
-0.0751879
0.139243
-0.0795576
0.140111
-0.0835643
0.138631
-0.0871901
0.134994
-0.0904097
0.129466
-0.0931903
0.122374
-0.0954915
0.114087
-0.0972654
0.104995
-0.0984586
0.0954856
0.0859212
-0.0990146
0.168091
0.0245234
-0.168512
0.166249
0.012857
0.162999
0.000139137
0.158392
-0.0132147
0.152507
-0.0267372
0.145454
-0.039933
0.137365
-0.052304
0.128389
-0.0633746
0.118684
-0.0727151
0.108413
-0.0799601
0.097738
-0.0848235
0.0868124
-0.0871068
0.0757793
-0.0867028
0.0647682
-0.0835938
0.0538925
-0.0778467
0.0432487
-0.069604
0.0329169
-0.0590747
0.0229606
-0.046523
0.0134287
-0.0322586
0.00435621
-0.0166268
-0.00423342
-5.09773e-15
-0.012327
0.0172306
-0.0199198
0.034662
-0.027014
0.0518875
-0.0336176
0.0685045
-0.039743
0.0841242
-0.0454059
0.0983812
-0.0506247
0.110946
-0.0554192
0.121536
-0.0598099
0.12993
-0.0638167
0.135975
-0.0674578
0.1396
-0.0707479
0.140818
-0.0736973
0.139727
-0.0763101
0.136509
-0.0785825
0.131419
-0.0805026
0.124768
-0.0820492
0.116911
-0.0831925
0.108222
-0.0838952
0.0990715
0.0898091
-0.0841144
0.187122
-0.188869
0.183915
0.179275
0.173264
0.165974
0.157526
0.148065
0.13775
0.126753
0.115248
0.103409
0.0914009
0.0793782
0.0674806
0.055831
0.0445343
0.0336776
0.0233302
0.0135449
0.00435956
-0.00420137
-0.0121253
-0.0194098
-0.026061
-0.0320928
-0.0375248
-0.0423823
-0.0466944
-0.0504936
-0.0538144
-0.0566919
-0.0591605
-0.0612523
-0.0629949
-0.0644102
-0.0655122
-0.0663063
-0.0667879
-0.0669433
-0.0667499
-0.0661786
-0.0882729
-0.0597485
-0.0930482
-0.0753175
-0.097647
-0.0884145
-0.101382
-0.0979858
-0.103481
-0.103295
-0.103217
-0.103998
-0.100047
-0.100176
-0.0937193
-0.0923154
-0.0843489
-0.0812505
-0.0724295
-0.0680589
-0.0587925
-0.0539387
-0.0445106
-0.0400721
-0.0307608
-0.0274973
-0.0186709
-0.0170004
-0.00917012
-0.0090435
-0.00287077
-0.00373401
-0.000840243
-0.0793513
-0.0531021
-0.0841894
-0.0664861
-0.0889527
-0.0778906
-0.0930424
-0.0864782
-0.0957836
-0.0916407
-0.0965277
-0.0930557
-0.0947578
-0.0907143
-0.0901801
-0.0849168
-0.082787
-0.076237
-0.0728826
-0.0654595
-0.0610651
-0.0534965
-0.0481669
-0.0412942
-0.0351616
-0.0297378
-0.0230481
-0.0195663
-0.0127304
-0.0113051
-0.00490892
-0.00522563
-0.00133262
-0.0709399
-0.0464411
-0.0757171
-0.0578328
-0.0804899
-0.0676666
-0.0847434
-0.0752808
-0.0878949
-0.0801765
-0.0893728
-0.0820598
-0.0886974
-0.0808652
-0.0855548
-0.076758
-0.0798518
-0.0701163
-0.0717453
-0.061493
-0.0616412
-0.0515629
-0.0501616
-0.0410602
-0.0380839
-0.030711
-0.0262594
-0.0211691
-0.0155206
-0.01296
-0.00658978
-0.0064393
-0.00176866
-0.0631812
-0.0399376
-0.0677972
-0.0495341
-0.0724535
-0.0579265
-0.0767123
-0.0645953
-0.0800767
-0.0691346
-0.0820489
-0.0712829
-0.082193
-0.0709426
-0.0801929
-0.0681856
-0.075899
-0.0632458
-0.0693585
-0.0564976
-0.0608233
-0.0484242
-0.0507361
-0.0395766
-0.0396943
-0.0305286
-0.0283954
-0.02183
-0.0175701
-0.0139637
-0.00791033
-0.00730883
-0.00211443
-0.0561511
-0.0337304
-0.0605303
-0.041728
-0.0649736
-0.0488127
-0.0691135
-0.0545797
-0.0725302
-0.0587016
-0.0747957
-0.0609511
-0.0755207
-0.0612161
-0.0744002
-0.0595069
-0.0712517
-0.0559546
-0.0660437
-0.0508
-0.0589088
-0.0443753
-0.0501417
-0.0370797
-0.0401804
-0.0293491
-0.029573
-0.0216251
-0.0189317
-0.0143232
-0.00888061
-0.00780391
-0.00234834
-0.049865
-0.0279255
-0.0539554
-0.0345151
-0.0581182
-0.0404271
-0.0620476
-0.0453485
-0.0653927
-0.049018
-0.0677895
-0.051242
-0.068896
-0.0519065
-0.068427
-0.0509839
-0.0661852
-0.0485346
-0.0620858
-0.0447024
-0.0561723
-0.0397046
-0.048621
-0.0338182
-0.0397342
-0.0273612
-0.0299218
-0.0206722
-0.0196731
-0.0140891
-0.00952087
-0.00792756
-0.00246144
-0.0442881
-0.0225978
-0.0480589
-0.0279615
-0.051899
-0.032834
-0.0555562
-0.0369757
-0.0587399
-0.0401803
-0.0611437
-0.0422861
-0.0624712
-0.0431852
-0.0624626
-0.0428296
-0.0609188
-0.0412336
-0.0577222
-0.0384729
-0.0528526
-0.0346804
-0.0463947
-0.0300383
-0.0385392
-0.0247678
-0.0295744
-0.0191166
-0.0198708
-0.0133449
-0.00985865
-0.00771087
-0.00245637
-0.0393485
-0.0177948
-0.0427862
-0.0221029
-0.0462826
-0.0260649
-0.0496317
-0.0294992
-0.0525942
-0.0322448
-0.0549147
-0.0341695
-0.0563396
-0.0351763
-0.056637
-0.0352087
-0.055615
-0.034253
-0.0531392
-0.0323397
-0.049146
-0.0295416
-0.0436527
-0.0259705
-0.0367612
-0.0217717
-0.0286572
-0.0171168
-0.0196032
-0.0121955
-0.00992609
-0.00720585
-0.00234528
-0.0349511
-0.0135405
-0.0380554
-0.01695
-0.041204
-0.020124
-0.0442292
-0.0229265
-0.0469357
-0.0252338
-0.049112
-0.0269397
-0.0505435
-0.0279607
-0.0510268
-0.0282395
-0.0503833
-0.0277477
-0.0484729
-0.0264875
-0.0452056
-0.0244912
-0.0405509
-0.0218205
-0.0345433
-0.0185637
-0.0272856
-0.0148323
-0.018947
-0.0107561
-0.0097576
-0.00647776
-0.00214711
-0.0309912
-0.00984087
-0.0337709
-0.012494
-0.0365792
-0.0149944
-0.0392802
-0.0172415
-0.0417152
-0.0191416
-0.0437103
-0.0206114
-0.0450858
-0.0215814
-0.0456656
-0.0219987
-0.0452879
-0.021829
-0.0438151
-0.0210583
-0.0411434
-0.0196937
-0.0372109
-0.0177629
-0.0320037
-0.0153138
-0.0255602
-0.0124128
-0.017973
-0.00914213
-0.00938791
-0.00559765
-0.00188482
-0.0273664
-0.00668813
-0.0298356
-0.00871227
-0.0323184
-0.010644
-0.0347051
-0.0124103
-0.0368672
-0.0139415
-0.0386627
-0.0151737
-0.0399419
-0.016051
-0.0405548
-0.0165276
-0.0403576
-0.0165691
-0.0392208
-0.0161541
-0.0370363
-0.0152752
-0.0337236
-0.0139389
-0.0292362
-0.012166
-0.0235658
-0.00999118
-0.0167453
-0.00746159
-0.00885056
-0.00463598
-0.00158275
-0.0239857
-0.00406569
-0.0261607
-0.00557319
-0.0283364
-0.00703127
-0.0304245
-0.00838788
-0.0323214
-0.00959237
-0.0339117
-0.010597
-0.0350718
-0.0113584
-0.0356751
-0.0118389
-0.0355965
-0.0120075
-0.0347178
-0.0118413
-0.032933
-0.0113259
-0.0301537
-0.010456
-0.0263134
-0.00923585
-0.0213721
-0.00767928
-0.0153193
-0.00580928
-0.00817678
-0.00365771
-0.00126446
-0.0207758
-0.00195203
-0.0226723
-0.00304108
-0.0245598
-0.00411023
-0.0263674
-0.00512337
-0.0280118
-0.00604471
-0.0293996
-0.0068397
-0.0304299
-0.00747591
-0.0309969
-0.00792391
-0.0309935
-0.00815802
-0.0303148
-0.00815706
-0.0288618
-0.00790493
-0.0265454
-0.00739108
-0.0232894
-0.00661091
-0.0190348
-0.00556598
-0.0137423
-0.00426407
-0.00739477
-0.00271917
-0.000951193
-0.0176837
-0.000324372
-0.0193155
-0.00108001
-0.0209322
-0.00183505
-0.0224768
-0.00256532
-0.0238829
-0.00324645
-0.0250755
-0.00385444
-0.0259729
-0.00436612
-0.0264879
-0.00475977
-0.0265304
-0.00501553
-0.0260098
-0.0051159
-0.0248371
-0.00504617
-0.0229276
-0.00479477
-0.0202038
-0.00435358
-0.0165977
-0.00371818
-0.0120534
-0.00288801
-0.00652925
-0.00186647
-0.00066096
-0.0146782
0.000838323
-0.0160561
0.000342837
-0.017416
-0.00016363
-0.0187127
-0.000665697
-0.0198937
-0.00114763
-0.0208996
-0.00159362
-0.0216649
-0.00198811
-0.0221191
-0.00231608
-0.0221882
-0.00256332
-0.0217958
-0.00271674
-0.0208647
-0.00276463
-0.0193188
-0.00269687
-0.017085
-0.00250521
-0.0140944
-0.0021834
-0.0102845
-0.00172739
-0.00560125
-0.00113544
-0.000408202
-0.0117482
0.00155276
-0.0128792
0.00125432
-0.0139923
0.000939212
-0.0150524
0.000616481
-0.0160187
0.000295518
-0.016845
-1.40982e-05
-0.0174801
-0.000302752
-0.0178684
-0.000560951
-0.0179507
-0.000779484
-0.0176647
-0.000949573
-0.0169464
-0.00106303
-0.0157309
-0.00111239
-0.0139533
-0.00109107
-0.0115503
-0.00099345
-0.00846091
-0.000815044
-0.00462818
-0.000552544
-0.000203929
-0.00890054
0.00182915
-0.00978772
0.00167309
-0.0106596
0.00149926
-0.0114897
0.00131231
-0.0122475
0.00111716
-0.0128984
0.000918889
-0.0134038
0.000722695
-0.0137216
0.000533801
-0.0138065
0.000357388
-0.0136103
0.000198517
-0.0130826
6.20536e-05
-0.0121712
-4.74054e-05
-0.010823
-0.000125602
-0.00898434
-0.000168686
-0.00660204
-0.000173277
-0.00362399
-0.000136527
-5.61677e-05
-0.00615701
0.00166944
-0.00679945
0.00160772
-0.00743074
0.00153085
-0.00803237
0.0014407
-0.00858297
0.00133925
-0.00905832
0.00122859
-0.00943146
0.00111091
-0.00967277
0.000988429
-0.00975014
0.000863425
-0.00962919
0.000738156
-0.00927354
0.000614847
-0.00864504
0.000495666
-0.0077042
0.000382685
-0.00641047
0.000277857
-0.00472269
0.000182987
-0.00259956
9.97039e-05
2.944e-05
-0.00355165
0.00106589
-0.00394442
0.00105521
-0.0043309
0.00103535
-0.00470001
0.00100665
-0.00503902
0.000969508
-0.00533349
0.000924358
-0.00556738
0.000871677
-0.00572298
0.000811969
-0.00578104
0.000745768
-0.00572086
0.000673623
-0.00552036
0.000596095
-0.00515623
0.00051375
-0.00460407
0.000427151
-0.0038386
0.000336853
-0.00283382
0.000243394
-0.00156321
0.000147289
4.90262e-05
-0.00112802
2.12321e-18
-0.0012621
1.68376e-18
-0.00139438
1.8046e-18
-0.00152114
1.75605e-18
-0.0016381
1.36685e-18
-0.00174043
1.30091e-18
-0.00182272
1.23801e-18
-0.00187905
9.27897e-19
-0.00190295
6.45561e-19
-0.00188745
4.60541e-19
-0.00182509
2.60303e-19
-0.00170799
2.6164e-19
-0.00152785
3.25185e-19
-0.00127602
2.27934e-19
-0.000943579
1.16387e-19
-0.000521349
4.66539e-20
9.33589e-21
0.00106313
-0.00155814
0.0012011
-0.00158674
0.00133777
-0.00160269
0.00146932
-0.00160523
0.00159138
-0.0015936
0.001699
-0.00156709
0.0017867
-0.00152497
0.00184842
-0.00146656
0.00187761
-0.00139123
0.00186718
-0.00129837
0.00180956
-0.00118743
0.00169677
-0.00105791
0.00152039
-0.000909386
0.00127167
-0.000741494
0.000941577
-0.000553956
0.000520832
-0.000346575
-0.000119245
0.00296626
-0.00365003
0.00339421
-0.00374726
0.00382035
-0.00381511
0.00423274
-0.00385095
0.00461778
-0.00385213
0.00496013
-0.003816
0.00524278
-0.00373999
0.0054471
-0.00362158
0.00555286
-0.00345835
0.00553839
-0.00324805
0.00538063
-0.00298856
0.00505528
-0.00267798
0.00453699
-0.00231463
0.00379949
-0.00189708
0.00281583
-0.00142419
0.00155856
-0.000895124
-0.000309365
0.00452352
-0.00632849
0.00526448
-0.00653683
0.00600683
-0.0066941
0.00672965
-0.00679452
0.00740907
-0.00683227
0.0080183
-0.00680161
0.00852775
-0.00669687
0.00890512
-0.0065126
0.00911561
-0.00624364
0.00912211
-0.00588515
0.0088855
-0.00543272
0.00836493
-0.00488245
0.0075182
-0.004231
0.00630212
-0.00347564
0.00467291
-0.00261438
0.00258671
-0.00164592
-0.000569816
0.00567801
-0.0096567
0.00676063
-0.0100228
0.00785276
-0.0103099
0.00892314
-0.0105075
0.00993618
-0.0106052
0.0108521
-0.0105928
0.0116271
-0.0104605
0.0122137
-0.0101987
0.0125612
-0.00979872
0.0126161
-0.00925259
0.0123226
-0.00855327
0.0116233
-0.0076948
0.0104596
-0.00667245
0.00877292
-0.00548282
0.00650503
-0.00412395
0.00359899
-0.0025954
-0.000898335
0.00637779
-0.0137066
0.00783694
-0.0142832
0.00931975
-0.0147444
0.0107829
-0.0150737
0.0121769
-0.0152543
0.0134469
-0.01527
0.0145327
-0.0151056
0.0153698
-0.0147467
0.0158898
-0.0141805
0.0160216
-0.0133957
0.0156923
-0.012383
0.014828
-0.0111351
0.0133555
-0.00964729
0.0112031
-0.00791713
0.0083019
-0.00594501
0.00458729
-0.00373404
-0.00129021
0.00658095
-0.0185569
0.00845816
-0.0194037
0.0103804
-0.0200886
0.0122897
-0.0205863
0.0141202
-0.0208717
0.0157989
-0.0209212
0.0172466
-0.0207128
0.018379
-0.0202268
0.0191083
-0.019446
0.0193445
-0.0183566
0.0189972
-0.0169482
0.0179771
-0.0152142
0.0161985
-0.0131524
0.0135807
-0.0107649
0.0100498
-0.00805836
0.00554106
-0.00504391
-0.0017374
0.00626143
-0.0242893
0.00860523
-0.0254752
0.0110236
-0.0264391
0.0134407
-0.0271439
0.0157708
-0.0275543
0.0179191
-0.0276371
0.0197839
-0.0273628
0.0212583
-0.0267057
0.0222325
-0.0256454
0.0225964
-0.0241668
0.0222425
-0.0222611
0.0210681
-0.0199262
0.0189786
-0.0171669
0.0158898
-0.0139949
0.0117309
-0.0104292
0.00644679
-0.00649595
-0.00222768
0.00541522
-0.0309854
0.00828102
-0.0325893
0.0112598
-0.0338936
0.0142541
-0.0348462
0.0171534
-0.0353982
0.0198369
-0.0355054
0.0221759
-0.0351295
0.0240373
-0.0342397
0.0252872
-0.0328138
0.0257946
-0.0308387
0.0254356
-0.0283118
0.0240973
-0.0252408
0.0216815
-0.0216444
0.018109
-0.0175519
0.0133221
-0.0130031
0.00728776
-0.00804761
-0.00274393
0.00406631
-0.0387213
0.00751573
-0.0408333
0.0111261
-0.0425459
0.014773
-0.0437875
0.0183158
-0.0444924
0.021602
-0.044603
0.0244709
-0.0440724
0.0267593
-0.0428659
0.0283066
-0.0409626
0.0289609
-0.038357
0.0285839
-0.035059
0.0270574
-0.0310949
0.0242877
-0.0265068
0.0202105
-0.021352
0.0147945
-0.0157021
0.00804375
-0.00964109
-0.00326369
0.00227137
-0.0475625
0.00637077
-0.0502844
0.0106888
-0.0524793
0.0150677
-0.0540503
0.0193301
-0.0549109
0.0232847
-0.0549884
0.0267335
-0.0542275
0.0294787
-0.0525925
0.0313311
-0.0500696
0.0321181
-0.0466682
0.0316916
-0.0424212
0.0299348
-0.0373848
0.0267689
-0.0316376
0.0221581
-0.0252781
0.0161127
-0.0184229
0.00869114
-0.0112028
-0.00375931
0.000122336
-0.0575566
0.00494049
-0.0610025
0.0100443
-0.0637591
0.0152352
-0.0656972
0.0202908
-0.0667047
0.0249736
-0.0666923
0.0290413
-0.0655977
0.0322572
-0.0633894
0.0344023
-0.060069
0.0352856
-0.0556721
0.0347548
-0.0502685
0.032705
-0.0439599
0.0290856
-0.0368775
0.0239053
-0.0291776
0.0172342
-0.0210363
0.00920302
-0.0126441
-0.00419867
-0.00225401
-0.068727
0.00335064
-0.0730233
0.00931668
-0.0764253
0.0153957
-0.0787627
0.0213109
-0.0798928
0.0267695
-0.0797081
0.0314779
-0.078143
0.0351565
-0.0751778
0.037556
-0.0708418
0.0384715
-0.0652128
0.0377554
-0.0584157
0.0353277
-0.0506178
0.031183
-0.0420228
0.0253937
-0.032863
0.0181089
-0.0233899
0.00954968
-0.0138646
-0.00454663
-0.00470014
-0.0810648
0.00175328
-0.0863496
0.00865123
-0.0904836
0.0156852
-0.0932445
0.0225129
-0.0944527
0.0287766
-0.0939826
0.0341236
-0.0917707
0.0382283
-0.0878212
0.0408124
-0.0822078
0.041664
-0.0750722
0.0406528
-0.0666181
0.0377407
-0.0571029
0.0329877
-0.0468262
0.0265511
-0.0361158
0.0186792
-0.025313
0.00969927
-0.0147566
-0.00476719
-0.0070357
-0.0945212
0.000317912
-0.100944
0.00820487
-0.105897
0.0162449
-0.109094
0.0240181
-0.110312
0.0310905
-0.109407
0.0370437
-0.106327
0.041503
-0.101117
0.0441654
-0.0939195
0.0448224
-0.0849662
0.0433772
-0.0745703
0.0398551
-0.0631087
0.0344047
-0.0510022
0.0272913
-0.0386938
0.018881
-0.0266247
0.00961893
-0.0152119
-0.00482635
-0.00906913
-0.109
-0.000780767
-0.116719
0.00813324
-0.122579
0.017208
-0.12621
0.0259324
-0.12734
0.0337854
-0.125809
0.040275
-0.121591
0.0449775
-0.114794
0.0475718
-0.105658
0.0478674
-0.0945437
0.0458227
-0.081909
0.0415511
-0.0682836
0.0353164
-0.0542366
0.0275144
-0.0403421
0.0186452
-0.0271452
0.00927616
-0.0151304
-0.00469521
-0.0106121
-0.124353
-0.00137757
-0.133535
0.00857584
-0.140384
0.0186848
-0.144431
0.0283327
-0.145341
0.0368992
-0.142949
0.0438132
-0.137269
0.0486034
-0.128504
0.0509417
-0.117035
0.0506752
-0.103391
0.0478433
-0.0882203
0.0426772
-0.0722424
0.0355833
-0.0561998
0.0271097
-0.0408078
0.0179004
-0.0267082
0.00864072
-0.0144287
-0.0043532
-0.0114956
-0.140373
-0.0013326
-0.15119
0.0096407
-0.159107
0.0207481
-0.163529
0.0312523
-0.164054
0.0404221
-0.160514
0.0476024
-0.152993
0.0522792
-0.14183
0.054133
-0.127593
0.0530737
-0.111038
0.0492527
-0.0930515
0.0430521
-0.0745809
0.0350487
-0.0565636
0.0259605
-0.0398565
0.0165775
-0.0251756
0.00768687
-0.0130495
-0.00379089
-0.0115862
-0.156795
-0.000546353
-0.16942
0.0113904
-0.178477
0.0234203
-0.183213
0.0346703
-0.183148
0.0442868
-0.178123
0.0515277
-0.168328
0.0558455
-0.154287
0.0569499
-0.13682
0.0548443
-0.116974
0.0498292
-0.0959278
0.0424717
-0.0748953
0.0335463
-0.0550216
0.0239517
-0.0372904
0.0146151
-0.0224507
0.00639592
-0.0109689
-0.00301199
-0.0107999
-0.173293
0.00102759
-0.187903
0.013831
-0.198162
0.026665
-0.203127
0.0385049
-0.202227
0.0483645
-0.19533
0.0554148
-0.182773
0.0590871
-0.165334
0.0591477
-0.144161
0.0557305
-0.120663
0.0493254
-0.0963726
0.0407212
-0.0728042
0.0309122
-0.0513102
0.0209796
-0.0329665
0.0119662
-0.0184904
0.00475907
-0.00820215
-0.00203405
-0.00911325
-0.18949
0.00337411
-0.206255
0.0169062
-0.217771
0.0303826
-0.222858
0.0426126
-0.220839
0.0524678
-0.211633
0.0590346
-0.19578
0.0617418
-0.174391
0.0604449
-0.149033
0.0554515
-0.121563
0.0474852
-0.0939309
0.0375915
-0.0679724
0.0269998
-0.0452301
0.0169641
-0.0268125
0.00860511
-0.0133143
0.00278009
-0.00480559
-0.00088767
-0.068644
0.14006
0.0655573
-0.0712031
0.134485
-0.0731475
0.126902
-0.0744093
0.117577
-0.0749406
0.106847
-0.0747138
0.0950976
-0.0737207
0.0827424
-0.0719694
0.0702002
-0.0694821
0.057872
-0.066291
0.0461228
-0.0624354
0.0352661
-0.0579578
0.0255541
-0.0529013
0.0171721
-0.0473073
0.0102375
-0.0412134
0.00480252
-0.034653
0.00085951
-0.0276539
-0.00165186
-0.0202393
-0.00283685
-0.012428
-0.00283787
-0.00423523
-0.00182711
0.0043257
1.29194e-15
0.0132422
0.00243085
0.0225006
0.00524128
0.0320848
0.00820138