/*--------------------------------*- C++ -*----------------------------------*\
  =========                 |
  \\      /  F ield         | OpenFOAM: The Open Source CFD Toolbox
   \\    /   O peration     | Website:  https://openfoam.org
    \\  /    A nd           | Version:  6
     \\/     M anipulation  |
\*---------------------------------------------------------------------------*/
FoamFile
{
    version     2.0;
    format      ascii;
    class       volScalarField;
    location    "4.25";
    object      rho;
}
// * * * * * * * * * * * * * * * * * * * * * * * * * * * * * * * * * * * * * //

dimensions      [1 -3 0 0 0 0 0];

internalField   nonuniform List<scalar> 
5625
(
1.45023
1.44422
1.43622
1.42696
1.41704
1.40699
1.39727
1.38821
1.38012
1.37328
1.36788
1.36401
1.36173
1.36102
1.36179
1.36377
1.36645
1.36929
1.37205
1.3744
1.37578
1.37598
1.37534
1.37417
1.37259
1.37077
1.36905
1.36782
1.36735
1.36756
1.36805
1.36862
1.36939
1.37034
1.37103
1.37099
1.37013
1.36859
1.36649
1.36395
1.36134
1.35927
1.35833
1.35877
1.36053
1.36347
1.36759
1.3731
1.38027
1.38929
1.40001
1.41185
1.42383
1.43473
1.44333
1.44873
1.45058
1.44911
1.44502
1.43925
1.43276
1.42633
1.42047
1.41547
1.41141
1.40824
1.40585
1.40409
1.40284
1.40195
1.40134
1.40093
1.40064
1.40045
1.40032
1.45187
1.44693
1.43978
1.43113
1.42161
1.41179
1.4021
1.39291
1.38453
1.37724
1.3712
1.36656
1.36343
1.36182
1.36165
1.36265
1.36451
1.36705
1.36999
1.37272
1.37476
1.3762
1.37719
1.37757
1.37726
1.37659
1.37588
1.37527
1.37479
1.37439
1.37393
1.37346
1.37313
1.3728
1.37207
1.37073
1.36889
1.36675
1.36439
1.36195
1.35981
1.35852
1.35849
1.35982
1.36238
1.36604
1.37084
1.37701
1.38481
1.39433
1.40531
1.41707
1.42856
1.43856
1.44595
1.45002
1.45059
1.44809
1.4433
1.43718
1.43064
1.42436
1.41877
1.41408
1.41032
1.40742
1.40525
1.40367
1.40254
1.40176
1.40121
1.40084
1.40058
1.40041
1.40029
1.45309
1.44934
1.44316
1.43524
1.42625
1.41674
1.40719
1.39794
1.38935
1.38169
1.37511
1.3698
1.36587
1.36337
1.36219
1.36219
1.36325
1.36522
1.36769
1.37015
1.37246
1.37466
1.37645
1.37751
1.37801
1.37826
1.37824
1.37791
1.37736
1.37664
1.37573
1.37474
1.37377
1.37261
1.37101
1.36899
1.36678
1.36455
1.36235
1.36034
1.35891
1.35852
1.35943
1.36162
1.36493
1.36926
1.3747
1.3815
1.38986
1.39979
1.41091
1.42242
1.43322
1.44214
1.44819
1.45085
1.45016
1.44669
1.4413
1.43494
1.42843
1.42236
1.41708
1.41272
1.40927
1.40664
1.40469
1.40327
1.40227
1.40157
1.40109
1.40075
1.40053
1.40037
1.40027
1.45378
1.45135
1.44628
1.43923
1.43087
1.42179
1.41246
1.40326
1.39456
1.3866
1.37959
1.37369
1.36903
1.36566
1.36353
1.36262
1.36285
1.36399
1.36566
1.36764
1.36988
1.37213
1.37396
1.37532
1.37641
1.37718
1.37742
1.37719
1.3767
1.37593
1.37487
1.37367
1.37235
1.37075
1.36877
1.36659
1.36447
1.36251
1.36076
1.3594
1.35883
1.35938
1.36121
1.3642
1.36819
1.37313
1.37917
1.38654
1.3954
1.40563
1.41672
1.42778
1.4377
1.44536
1.44995
1.45117
1.44926
1.44491
1.43904
1.43254
1.42615
1.42036
1.41542
1.4114
1.40827
1.4059
1.40415
1.4029
1.40201
1.40139
1.40097
1.40068
1.40048
1.40034
1.40025
1.45388
1.45285
1.44901
1.44297
1.43539
1.42685
1.41785
1.40882
1.40009
1.39194
1.38458
1.37818
1.3729
1.36877
1.36581
1.36401
1.36331
1.36349
1.36432
1.36571
1.36751
1.36934
1.37095
1.37241
1.37368
1.37449
1.37475
1.37467
1.37431
1.37358
1.37252
1.37128
1.36985
1.36813
1.36618
1.36424
1.36251
1.36105
1.35992
1.35936
1.35969
1.36118
1.36385
1.36755
1.37215
1.37766
1.38424
1.39213
1.40138
1.41176
1.42263
1.43303
1.44184
1.44808
1.45114
1.45092
1.44787
1.44277
1.43655
1.43003
1.42384
1.41837
1.4138
1.41014
1.40732
1.4052
1.40365
1.40255
1.40177
1.40123
1.40086
1.40061
1.40043
1.40031
1.40022
1.45328
1.45373
1.45126
1.44637
1.43971
1.43184
1.4233
1.41454
1.4059
1.39766
1.39004
1.38327
1.37748
1.37269
1.36895
1.36632
1.36471
1.36397
1.36398
1.36466
1.36577
1.367
1.36827
1.36955
1.37061
1.37124
1.37153
1.37158
1.37129
1.3706
1.36962
1.36849
1.36714
1.36556
1.36391
1.36244
1.36128
1.36046
1.36006
1.36033
1.36157
1.36393
1.36735
1.37167
1.3768
1.38281
1.38989
1.39821
1.40773
1.41808
1.42851
1.43801
1.44552
1.4502
1.45167
1.45007
1.446
1.4403
1.43387
1.42744
1.42153
1.41643
1.41225
1.40894
1.40642
1.40455
1.40319
1.40223
1.40155
1.40108
1.40076
1.40054
1.40039
1.40028
1.4002
1.45192
1.45389
1.45288
1.44929
1.4437
1.43666
1.42871
1.42034
1.4119
1.40368
1.39594
1.38891
1.38267
1.37731
1.37293
1.36958
1.36716
1.36557
1.36477
1.36466
1.36497
1.36555
1.36636
1.36724
1.36793
1.36836
1.36864
1.3687
1.3684
1.36776
1.36695
1.36601
1.36489
1.36363
1.36246
1.36159
1.36107
1.36092
1.36128
1.36239
1.36449
1.36762
1.37167
1.37651
1.3821
1.38855
1.39606
1.40471
1.41435
1.42447
1.43422
1.44257
1.44857
1.4516
1.45149
1.44861
1.44367
1.43755
1.43105
1.42482
1.41926
1.41456
1.41077
1.40782
1.40559
1.40395
1.40277
1.40193
1.40135
1.40095
1.40067
1.40048
1.40035
1.40025
1.40019
1.44977
1.45322
1.45377
1.45161
1.44722
1.44116
1.43397
1.42613
1.41799
1.40993
1.4022
1.39499
1.3884
1.38262
1.37775
1.37377
1.37059
1.36823
1.36668
1.36579
1.36535
1.3653
1.36556
1.36592
1.36621
1.36644
1.3666
1.36655
1.36621
1.36569
1.36509
1.36439
1.36357
1.36275
1.36215
1.3619
1.36201
1.36254
1.36364
1.36555
1.36841
1.37219
1.37677
1.38203
1.38801
1.39484
1.4027
1.41155
1.42112
1.43075
1.43955
1.44652
1.45086
1.45218
1.45057
1.44656
1.44094
1.43456
1.42815
1.42221
1.41705
1.41278
1.40939
1.40678
1.40483
1.40341
1.40239
1.40167
1.40117
1.40083
1.40059
1.40042
1.40031
1.40023
1.40017
1.44686
1.45167
1.45379
1.45317
1.45015
1.44523
1.43894
1.43176
1.4241
1.41631
1.40869
1.40141
1.39466
1.3886
1.3833
1.37873
1.37493
1.37196
1.36975
1.36813
1.367
1.36635
1.36604
1.36587
1.36577
1.36576
1.36572
1.36553
1.36519
1.36481
1.36441
1.36396
1.36348
1.36315
1.36312
1.36346
1.36418
1.36535
1.36716
1.36978
1.37328
1.37758
1.38256
1.38816
1.39447
1.40162
1.40971
1.4186
1.42786
1.43673
1.4443
1.44968
1.45226
1.4519
1.44891
1.44397
1.43788
1.43142
1.42522
1.41966
1.41494
1.41111
1.40811
1.40583
1.40414
1.40292
1.40205
1.40143
1.40101
1.40072
1.40051
1.40037
1.40027
1.4002
1.40015
1.44324
1.44922
1.45285
1.45383
1.45231
1.44869
1.44347
1.43712
1.43008
1.42272
1.41532
1.40812
1.40133
1.39508
1.38943
1.38444
1.38021
1.37673
1.3739
1.37161
1.36991
1.36871
1.36784
1.36719
1.36674
1.36645
1.36619
1.36587
1.36556
1.36531
1.3651
1.36489
1.36477
1.36491
1.36542
1.3663
1.36756
1.36932
1.37176
1.37499
1.379
1.38369
1.38897
1.39485
1.40141
1.40879
1.41697
1.42568
1.43436
1.44218
1.44826
1.45188
1.45266
1.45072
1.44655
1.4409
1.43456
1.4282
1.42232
1.41721
1.41296
1.40956
1.40694
1.40497
1.40352
1.40248
1.40174
1.40123
1.40087
1.40062
1.40045
1.40033
1.40024
1.40018
1.40014
1.43906
1.44591
1.45091
1.45348
1.45355
1.45138
1.44738
1.44203
1.43578
1.42899
1.42197
1.41499
1.40827
1.40195
1.3961
1.39086
1.38629
1.38235
1.37898
1.3762
1.37403
1.37232
1.37096
1.3699
1.36913
1.36857
1.36808
1.36767
1.3674
1.36726
1.3672
1.36723
1.36747
1.36805
1.36901
1.37035
1.37209
1.37438
1.37736
1.38107
1.38546
1.39043
1.39593
1.402
1.40875
1.41623
1.42431
1.43258
1.44037
1.44684
1.45122
1.45298
1.45203
1.44868
1.44358
1.43747
1.43109
1.42498
1.41952
1.41489
1.41112
1.40815
1.40588
1.4042
1.40297
1.40209
1.40147
1.40104
1.40074
1.40053
1.40039
1.40029
1.40021
1.40016
1.40012
1.4345
1.44186
1.44796
1.45203
1.45373
1.45311
1.45051
1.44634
1.44103
1.43497
1.42848
1.42188
1.41536
1.40909
1.4032
1.39782
1.39299
1.38869
1.38496
1.38183
1.37924
1.37708
1.37531
1.37393
1.37288
1.37205
1.37139
1.37092
1.37068
1.3706
1.37067
1.37094
1.37153
1.37248
1.37381
1.37552
1.37769
1.38042
1.38383
1.38789
1.39254
1.39769
1.40332
1.40951
1.41634
1.42376
1.43151
1.43904
1.44562
1.45047
1.45299
1.4529
1.45036
1.44586
1.44009
1.43379
1.42756
1.42184
1.41687
1.41274
1.40944
1.40688
1.40494
1.40352
1.40249
1.40175
1.40124
1.40088
1.40063
1.40046
1.40034
1.40025
1.40019
1.40014
1.40011
1.4298
1.43724
1.4441
1.44945
1.45272
1.45374
1.45266
1.44982
1.44563
1.44046
1.43469
1.42861
1.42243
1.41636
1.41057
1.40516
1.40019
1.39569
1.39173
1.38832
1.38537
1.38286
1.3808
1.37916
1.37785
1.3768
1.37602
1.37552
1.37529
1.37526
1.37545
1.37594
1.37681
1.37806
1.37968
1.3817
1.38421
1.38731
1.39103
1.39532
1.40011
1.40533
1.41103
1.41726
1.42403
1.43117
1.43828
1.44474
1.4498
1.45284
1.45345
1.45163
1.44774
1.44238
1.43625
1.42999
1.42408
1.41883
1.41439
1.41077
1.40793
1.40574
1.40411
1.40292
1.40207
1.40146
1.40104
1.40074
1.40054
1.40039
1.40029
1.40022
1.40017
1.40013
1.4001
1.42523
1.43234
1.43949
1.4458
1.45047
1.4531
1.45364
1.45229
1.44938
1.44529
1.44039
1.43498
1.42931
1.4236
1.41803
1.41272
1.40774
1.40318
1.39909
1.39546
1.39229
1.38956
1.38728
1.38542
1.3839
1.38269
1.38184
1.38131
1.38106
1.38108
1.3814
1.38208
1.38316
1.38463
1.38647
1.38874
1.39153
1.39488
1.39879
1.40319
1.40801
1.41324
1.41892
1.42506
1.43158
1.43816
1.4443
1.44935
1.45266
1.45377
1.45255
1.44922
1.4443
1.43841
1.4322
1.42619
1.42074
1.41603
1.41213
1.40901
1.40659
1.40475
1.40339
1.40241
1.4017
1.40121
1.40086
1.40062
1.40045
1.40034
1.40025
1.40019
1.40014
1.40011
1.40009
1.42097
1.42745
1.43445
1.44125
1.44701
1.45112
1.45328
1.45352
1.45206
1.44923
1.44537
1.44079
1.43579
1.4306
1.42539
1.4203
1.41545
1.41095
1.40684
1.40311
1.39982
1.39697
1.39455
1.39252
1.39085
1.38956
1.38865
1.38808
1.38783
1.3879
1.38833
1.38916
1.39038
1.39199
1.394
1.39647
1.39944
1.40295
1.40694
1.41134
1.41611
1.42126
1.42681
1.43268
1.43867
1.44437
1.4492
1.45256
1.45396
1.45319
1.45035
1.44584
1.44024
1.43415
1.42811
1.42252
1.4176
1.41346
1.4101
1.40745
1.40542
1.40389
1.40278
1.40197
1.4014
1.401
1.40071
1.40052
1.40038
1.40029
1.40022
1.40016
1.40013
1.4001
1.40008
1.41714
1.42282
1.42932
1.43611
1.44252
1.4478
1.45147
1.45332
1.45343
1.45202
1.44937
1.44582
1.44166
1.43712
1.43241
1.4277
1.42314
1.41881
1.41478
1.41107
1.40776
1.40487
1.40237
1.40025
1.39851
1.39718
1.39624
1.39564
1.39539
1.3955
1.39603
1.39696
1.39827
1.39998
1.4021
1.40469
1.40777
1.41132
1.41528
1.41958
1.42422
1.42918
1.43443
1.43979
1.44493
1.44939
1.45261
1.4541
1.45361
1.45114
1.44701
1.4417
1.43578
1.42979
1.42412
1.41906
1.41473
1.41116
1.4083
1.40609
1.40441
1.40316
1.40225
1.4016
1.40114
1.40081
1.40059
1.40043
1.40032
1.40024
1.40019
1.40014
1.40011
1.40009
1.40007
1.41381
1.41864
1.4244
1.43079
1.43732
1.44333
1.44821
1.45158
1.45328
1.4534
1.45215
1.4498
1.44664
1.44294
1.4389
1.43472
1.43056
1.42651
1.42268
1.41913
1.41591
1.41304
1.41053
1.4084
1.40667
1.40533
1.40436
1.40376
1.40352
1.40369
1.40428
1.40526
1.40663
1.40838
1.41057
1.41321
1.41629
1.41978
1.4236
1.42772
1.43211
1.43672
1.44142
1.44596
1.44992
1.45283
1.45424
1.45386
1.45164
1.44781
1.44277
1.43706
1.43116
1.4255
1.42035
1.41589
1.41215
1.40913
1.40675
1.40492
1.40355
1.40254
1.40181
1.40129
1.40092
1.40066
1.40048
1.40036
1.40027
1.40021
1.40016
1.40012
1.4001
1.40007
1.40006
1.411
1.41499
1.41991
1.42562
1.43184
1.43806
1.44371
1.44829
1.45147
1.45315
1.4534
1.45243
1.45047
1.44777
1.44457
1.44108
1.43745
1.43383
1.43033
1.42703
1.42399
1.42124
1.41882
1.41675
1.41506
1.41374
1.41279
1.41221
1.41201
1.41222
1.41283
1.41383
1.4152
1.41698
1.41917
1.42178
1.42477
1.42808
1.43167
1.43548
1.43945
1.44349
1.44736
1.45074
1.45321
1.45438
1.45395
1.45186
1.44824
1.44346
1.43796
1.43221
1.4266
1.42144
1.4169
1.41305
1.40989
1.40737
1.40542
1.40393
1.40283
1.40202
1.40144
1.40103
1.40074
1.40054
1.4004
1.4003
1.40023
1.40017
1.40014
1.40011
1.40008
1.40006
1.40005
1.40864
1.4119
1.41598
1.42088
1.42647
1.43245
1.43835
1.44369
1.44804
1.45114
1.4529
1.4534
1.45279
1.45128
1.4491
1.44646
1.44355
1.4405
1.43746
1.43452
1.43176
1.42923
1.42697
1.42504
1.42344
1.42219
1.42128
1.42075
1.4206
1.42084
1.42145
1.42243
1.42378
1.42552
1.42764
1.43012
1.43291
1.43594
1.43915
1.44249
1.44584
1.44901
1.45174
1.45367
1.45447
1.45387
1.45178
1.44831
1.44374
1.43845
1.43288
1.42739
1.42228
1.41772
1.41381
1.41056
1.40794
1.40588
1.4043
1.40311
1.40223
1.40159
1.40114
1.40082
1.40059
1.40043
1.40032
1.40025
1.40019
1.40015
1.40011
1.40009
1.40007
1.40006
1.40004
1.40671
1.40933
1.41264
1.41671
1.42153
1.42694
1.43262
1.4382
1.44326
1.44746
1.45056
1.45249
1.45329
1.45311
1.45212
1.45051
1.44847
1.44616
1.44372
1.44127
1.43891
1.4367
1.43471
1.43297
1.43152
1.43038
1.42956
1.4291
1.42899
1.42924
1.42984
1.43078
1.43206
1.4337
1.43566
1.43789
1.44035
1.44296
1.44564
1.44828
1.45073
1.45277
1.4541
1.45445
1.45358
1.4514
1.448
1.4436
1.43853
1.43316
1.42784
1.42282
1.41831
1.4144
1.41111
1.40843
1.40629
1.40463
1.40337
1.40243
1.40174
1.40125
1.40089
1.40064
1.40047
1.40035
1.40026
1.4002
1.40016
1.40012
1.4001
1.40008
1.40006
1.40005
1.40004
1.40516
1.40722
1.40987
1.41319
1.41719
1.42184
1.42699
1.43237
1.43763
1.44245
1.44653
1.44967
1.45181
1.45297
1.45326
1.45282
1.45181
1.45039
1.44872
1.44691
1.44507
1.44329
1.44165
1.44019
1.43896
1.43799
1.4373
1.43692
1.43685
1.43709
1.43764
1.4385
1.43966
1.44111
1.4428
1.44467
1.44665
1.44866
1.4506
1.45232
1.45365
1.45435
1.45418
1.45298
1.45067
1.44729
1.44303
1.43818
1.43304
1.42792
1.42307
1.41866
1.41479
1.41151
1.40881
1.40663
1.40492
1.40361
1.40261
1.40188
1.40135
1.40096
1.4007
1.40051
1.40037
1.40028
1.40021
1.40017
1.40013
1.4001
1.40008
1.40007
1.40005
1.40004
1.40003
1.40392
1.40552
1.40762
1.41026
1.41351
1.41738
1.42181
1.42667
1.43171
1.43665
1.44123
1.4452
1.44841
1.45076
1.45229
1.45305
1.45317
1.45277
1.45199
1.45096
1.44979
1.44856
1.44736
1.44627
1.44532
1.44457
1.44405
1.44376
1.44373
1.44396
1.44443
1.44516
1.44611
1.44726
1.44855
1.44991
1.45126
1.45251
1.45352
1.45415
1.45422
1.45354
1.45199
1.44951
1.44613
1.44201
1.43738
1.43249
1.42762
1.42298
1.41873
1.41498
1.41175
1.40907
1.40688
1.40515
1.4038
1.40277
1.402
1.40144
1.40103
1.40074
1.40054
1.40039
1.40029
1.40022
1.40017
1.40014
1.40011
1.40009
1.40007
1.40006
1.40004
1.40004
1.40003
1.40294
1.40419
1.40581
1.40788
1.41047
1.41361
1.41728
1.42144
1.42596
1.43065
1.43527
1.43961
1.44347
1.4467
1.44925
1.45111
1.45232
1.45297
1.45315
1.45297
1.45255
1.45198
1.45133
1.45068
1.4501
1.44962
1.44928
1.44911
1.44912
1.44931
1.44967
1.4502
1.45086
1.45161
1.45238
1.45311
1.45369
1.45404
1.45403
1.45352
1.45238
1.45051
1.44787
1.4445
1.44053
1.43614
1.43154
1.42695
1.42257
1.41853
1.41493
1.41181
1.40919
1.40703
1.4053
1.40394
1.40289
1.4021
1.40151
1.40109
1.40078
1.40056
1.40041
1.40031
1.40023
1.40018
1.40014
1.40011
1.40009
1.40007
1.40006
1.40005
1.40004
1.40003
1.40002
1.40218
1.40313
1.40438
1.40599
1.40801
1.41049
1.41347
1.41691
1.42076
1.42492
1.42923
1.43351
1.43758
1.44129
1.44451
1.44718
1.4493
1.45088
1.45198
1.45266
1.45302
1.45314
1.4531
1.45295
1.45277
1.4526
1.45249
1.45244
1.45247
1.45259
1.4528
1.45307
1.45337
1.45365
1.45383
1.45385
1.45362
1.45307
1.45207
1.45055
1.44843
1.44569
1.44238
1.43859
1.43446
1.43018
1.42592
1.42183
1.41805
1.41465
1.41169
1.40916
1.40707
1.40537
1.40402
1.40297
1.40217
1.40157
1.40113
1.40081
1.40058
1.40042
1.40031
1.40024
1.40018
1.40014
1.40011
1.40009
1.40007
1.40006
1.40005
1.40004
1.40003
1.40003
1.40002
1.4016
1.40232
1.40327
1.4045
1.40606
1.408
1.41034
1.4131
1.41627
1.41979
1.42357
1.42749
1.4314
1.43517
1.43867
1.44181
1.44452
1.44679
1.44862
1.45004
1.45111
1.45188
1.45241
1.45277
1.453
1.45314
1.45324
1.45331
1.45337
1.45342
1.45345
1.45343
1.45333
1.45311
1.4527
1.45205
1.45109
1.44975
1.44796
1.44571
1.44296
1.43977
1.4362
1.43238
1.42845
1.42454
1.42079
1.41731
1.41415
1.41138
1.40899
1.40699
1.40535
1.40404
1.403
1.40221
1.4016
1.40116
1.40083
1.4006
1.40043
1.40032
1.40024
1.40018
1.40014
1.40011
1.40009
1.40007
1.40006
1.40005
1.40004
1.40003
1.40003
1.40002
1.40002
1.40116
1.4017
1.40242
1.40335
1.40454
1.40602
1.40784
1.41001
1.41254
1.41541
1.41857
1.42196
1.42547
1.42899
1.43241
1.43565
1.43861
1.44125
1.44354
1.44548
1.44708
1.44837
1.44938
1.45017
1.45076
1.45118
1.45147
1.45164
1.45171
1.45168
1.45153
1.45124
1.45079
1.45013
1.44922
1.44803
1.4465
1.44462
1.44234
1.43969
1.43669
1.43341
1.42994
1.42639
1.42288
1.41949
1.41633
1.41345
1.41089
1.40868
1.4068
1.40525
1.40399
1.40299
1.40221
1.40161
1.40117
1.40084
1.4006
1.40043
1.40032
1.40024
1.40018
1.40014
1.40011
1.40009
1.40007
1.40006
1.40005
1.40004
1.40003
1.40003
1.40002
1.40002
1.40002
1.40084
1.40124
1.40177
1.40246
1.40336
1.40449
1.40587
1.40755
1.40953
1.4118
1.41436
1.41716
1.42014
1.42323
1.42633
1.42938
1.43229
1.435
1.43746
1.43964
1.44153
1.44315
1.44448
1.44556
1.4464
1.44704
1.44747
1.44772
1.44779
1.44768
1.44739
1.44689
1.44616
1.44519
1.44395
1.44241
1.44057
1.43842
1.43596
1.43324
1.4303
1.42722
1.42408
1.42096
1.41796
1.41514
1.41256
1.41025
1.40823
1.40651
1.40506
1.40387
1.40292
1.40217
1.40159
1.40116
1.40083
1.4006
1.40043
1.40031
1.40023
1.40017
1.40013
1.40011
1.40009
1.40007
1.40006
1.40005
1.40004
1.40003
1.40003
1.40002
1.40002
1.40002
1.40001
1.4006
1.40089
1.40129
1.40181
1.40247
1.40331
1.40436
1.40563
1.40714
1.40891
1.41092
1.41316
1.41559
1.41817
1.42083
1.42352
1.42616
1.42869
1.43108
1.43326
1.43522
1.43694
1.43842
1.43964
1.44062
1.44136
1.44188
1.44217
1.44224
1.44207
1.44168
1.44105
1.44018
1.43905
1.43765
1.43599
1.43406
1.43189
1.42951
1.42695
1.42428
1.42157
1.41888
1.41627
1.41381
1.41153
1.40948
1.40767
1.40611
1.40479
1.40369
1.40281
1.4021
1.40155
1.40113
1.40081
1.40058
1.40042
1.4003
1.40022
1.40016
1.40012
1.4001
1.40008
1.40007
1.40006
1.40005
1.40004
1.40003
1.40003
1.40002
1.40002
1.40002
1.40001
1.40001
1.40044
1.40065
1.40093
1.40131
1.4018
1.40243
1.4032
1.40416
1.4053
1.40664
1.40819
1.40994
1.41186
1.41393
1.41612
1.41836
1.42062
1.42285
1.42499
1.427
1.42885
1.4305
1.43195
1.43318
1.43418
1.43495
1.43547
1.43577
1.43582
1.43564
1.43522
1.43455
1.43363
1.43248
1.43109
1.42947
1.42764
1.42564
1.42349
1.42125
1.41896
1.41668
1.41447
1.41236
1.4104
1.40861
1.40702
1.40564
1.40445
1.40346
1.40265
1.40199
1.40148
1.40108
1.40078
1.40056
1.4004
1.40028
1.40021
1.40015
1.40012
1.40009
1.40007
1.40006
1.40005
1.40004
1.40004
1.40003
1.40003
1.40002
1.40002
1.40002
1.40001
1.40001
1.40001
1.40031
1.40046
1.40067
1.40095
1.40131
1.40176
1.40234
1.40304
1.40389
1.4049
1.40607
1.4074
1.40889
1.4105
1.41224
1.41404
1.41589
1.41774
1.41956
1.4213
1.42292
1.42441
1.42572
1.42685
1.42778
1.4285
1.429
1.42927
1.42931
1.42912
1.42871
1.42807
1.42721
1.42613
1.42485
1.42339
1.42178
1.42005
1.41822
1.41634
1.41446
1.41262
1.41086
1.4092
1.40768
1.40631
1.4051
1.40406
1.40318
1.40245
1.40185
1.40138
1.40101
1.40073
1.40053
1.40037
1.40027
1.40019
1.40014
1.4001
1.40008
1.40006
1.40005
1.40005
1.40004
1.40003
1.40003
1.40003
1.40002
1.40002
1.40002
1.40001
1.40001
1.40001
1.40001
1.40023
1.40034
1.40049
1.40069
1.40095
1.40128
1.40169
1.40221
1.40284
1.40358
1.40445
1.40545
1.40657
1.40781
1.40914
1.41055
1.41202
1.4135
1.41497
1.4164
1.41775
1.419
1.42013
1.42111
1.42191
1.42253
1.42297
1.42321
1.42324
1.42307
1.42269
1.42212
1.42136
1.42042
1.41932
1.41808
1.41673
1.41529
1.4138
1.41229
1.4108
1.40935
1.40799
1.40671
1.40556
1.40453
1.40363
1.40287
1.40222
1.40169
1.40127
1.40093
1.40068
1.40048
1.40034
1.40024
1.40017
1.40012
1.40009
1.40007
1.40005
1.40005
1.40004
1.40003
1.40003
1.40003
1.40002
1.40002
1.40002
1.40002
1.40001
1.40001
1.40001
1.40001
1.40001
1.40017
1.40025
1.40035
1.4005
1.40068
1.40093
1.40123
1.4016
1.40205
1.4026
1.40324
1.40397
1.4048
1.40573
1.40674
1.40781
1.40893
1.41009
1.41124
1.41237
1.41346
1.41446
1.41538
1.41618
1.41685
1.41736
1.41772
1.41791
1.41793
1.41778
1.41746
1.41698
1.41634
1.41556
1.41465
1.41364
1.41255
1.4114
1.41023
1.40905
1.4079
1.40679
1.40576
1.4048
1.40394
1.40319
1.40253
1.40197
1.40151
1.40114
1.40084
1.40061
1.40043
1.4003
1.40021
1.40015
1.4001
1.40007
1.40005
1.40004
1.40004
1.40003
1.40003
1.40003
1.40002
1.40002
1.40002
1.40002
1.40002
1.40001
1.40001
1.40001
1.40001
1.40001
1.40001
1.40012
1.40018
1.40026
1.40036
1.4005
1.40067
1.40089
1.40116
1.40148
1.40187
1.40234
1.40287
1.40348
1.40416
1.40491
1.40571
1.40655
1.40742
1.4083
1.40917
1.41001
1.4108
1.41151
1.41214
1.41266
1.41308
1.41336
1.41351
1.41352
1.41339
1.41313
1.41273
1.41222
1.41159
1.41087
1.41007
1.40922
1.40833
1.40743
1.40653
1.40566
1.40483
1.40406
1.40336
1.40273
1.40219
1.40172
1.40132
1.401
1.40074
1.40053
1.40038
1.40026
1.40018
1.40012
1.40008
1.40006
1.40004
1.40003
1.40003
1.40002
1.40002
1.40002
1.40002
1.40002
1.40002
1.40002
1.40001
1.40001
1.40001
1.40001
1.40001
1.40001
1.40001
1.40001
1.40009
1.40014
1.4002
1.40027
1.40037
1.40049
1.40064
1.40083
1.40107
1.40135
1.40168
1.40206
1.40251
1.403
1.40354
1.40413
1.40475
1.40539
1.40605
1.4067
1.40732
1.40792
1.40847
1.40895
1.40934
1.40965
1.40987
1.40998
1.40998
1.40987
1.40966
1.40935
1.40894
1.40846
1.4079
1.40729
1.40663
1.40596
1.40528
1.40461
1.40397
1.40336
1.4028
1.40229
1.40184
1.40146
1.40113
1.40085
1.40063
1.40046
1.40032
1.40022
1.40015
1.4001
1.40006
1.40004
1.40003
1.40002
1.40002
1.40001
1.40001
1.40001
1.40001
1.40001
1.40001
1.40001
1.40001
1.40001
1.40001
1.40001
1.40001
1.40001
1.40001
1.40001
1.40001
1.40008
1.40011
1.40015
1.4002
1.40027
1.40036
1.40047
1.40061
1.40077
1.40097
1.40121
1.40148
1.40179
1.40214
1.40253
1.40295
1.4034
1.40387
1.40435
1.40482
1.40529
1.40572
1.40613
1.40648
1.40678
1.407
1.40716
1.40723
1.40723
1.40714
1.40697
1.40673
1.40642
1.40605
1.40562
1.40516
1.40468
1.40418
1.40368
1.40319
1.40272
1.40228
1.40188
1.40152
1.40121
1.40094
1.40071
1.40053
1.40038
1.40026
1.40018
1.40011
1.40007
1.40004
1.40002
1.40001
1.40001
1.4
1.40001
1.40001
1.40001
1.40001
1.40001
1.40001
1.40001
1.40001
1.40001
1.40001
1.40001
1.40001
1.40001
1.40001
1.40001
1.40001
1.40001
1.40006
1.40008
1.40012
1.40016
1.4002
1.40027
1.40035
1.40044
1.40056
1.4007
1.40087
1.40106
1.40128
1.40153
1.4018
1.4021
1.40242
1.40275
1.40309
1.40343
1.40377
1.40408
1.40437
1.40462
1.40484
1.405
1.40511
1.40516
1.40514
1.40507
1.40494
1.40476
1.40452
1.40424
1.40393
1.40358
1.40323
1.40286
1.4025
1.40215
1.40182
1.4015
1.40122
1.40098
1.40076
1.40058
1.40043
1.4003
1.40021
1.40013
1.40008
1.40004
1.40002
1.40001
1.4
1.4
1.4
1.4
1.4
1.4
1.4
1.40001
1.40001
1.40001
1.40001
1.40001
1.40001
1.40001
1.40001
1.40001
1.40001
1.40001
1.40001
1.40001
1.40001
1.40005
1.40007
1.40009
1.40012
1.40016
1.40021
1.40026
1.40033
1.40041
1.40051
1.40062
1.40076
1.40092
1.40109
1.40128
1.40149
1.40171
1.40195
1.40218
1.40242
1.40265
1.40288
1.40308
1.40325
1.4034
1.40351
1.40358
1.40361
1.4036
1.40354
1.40344
1.4033
1.40312
1.40292
1.40268
1.40244
1.40218
1.40192
1.40166
1.40141
1.40117
1.40096
1.40076
1.40059
1.40045
1.40033
1.40023
1.40015
1.4001
1.40005
1.40002
1.4
1.39999
1.39999
1.39998
1.39999
1.39999
1.39999
1.4
1.4
1.4
1.4
1.40001
1.40001
1.40001
1.40001
1.40001
1.40001
1.40001
1.40001
1.40001
1.40001
1.40001
1.40001
1.40001
1.40004
1.40005
1.40007
1.4001
1.40012
1.40015
1.4002
1.40025
1.40031
1.40038
1.40046
1.40055
1.40066
1.40078
1.40091
1.40105
1.4012
1.40137
1.40153
1.4017
1.40185
1.402
1.40214
1.40226
1.40236
1.40243
1.40248
1.40249
1.40248
1.40243
1.40235
1.40224
1.40211
1.40196
1.40179
1.40161
1.40143
1.40124
1.40106
1.40089
1.40073
1.40058
1.40045
1.40034
1.40025
1.40017
1.4001
1.40006
1.40002
1.4
1.39999
1.39998
1.39997
1.39998
1.39998
1.39998
1.39999
1.39999
1.39999
1.4
1.4
1.4
1.4
1.40001
1.40001
1.40001
1.40001
1.40001
1.40001
1.40001
1.40001
1.40001
1.40001
1.40001
1.40001
1.40004
1.40005
1.40006
1.40008
1.4001
1.40012
1.40015
1.40019
1.40023
1.40028
1.40034
1.4004
1.40048
1.40056
1.40065
1.40075
1.40085
1.40096
1.40107
1.40118
1.40129
1.40139
1.40148
1.40156
1.40162
1.40167
1.40169
1.40169
1.40168
1.40164
1.40158
1.4015
1.4014
1.40129
1.40117
1.40104
1.40091
1.40078
1.40066
1.40054
1.40043
1.40033
1.40025
1.40017
1.40011
1.40006
1.40003
1.4
1.39998
1.39997
1.39997
1.39997
1.39997
1.39997
1.39997
1.39998
1.39999
1.39999
1.39999
1.4
1.4
1.4
1.4
1.40001
1.40001
1.40001
1.40001
1.40001
1.40001
1.40001
1.40001
1.40001
1.40001
1.40001
1.40001
1.40002
1.40004
1.40005
1.40006
1.40008
1.4001
1.40012
1.40015
1.40018
1.40021
1.40025
1.4003
1.40035
1.40041
1.40046
1.40053
1.4006
1.40068
1.40075
1.40082
1.40089
1.40095
1.40102
1.40106
1.4011
1.40112
1.40114
1.40113
1.40112
1.40108
1.40103
1.40097
1.40091
1.40083
1.40074
1.40065
1.40056
1.40047
1.40038
1.4003
1.40023
1.40017
1.40011
1.40007
1.40003
1.4
1.39998
1.39997
1.39996
1.39996
1.39996
1.39996
1.39997
1.39997
1.39998
1.39998
1.39999
1.39999
1.39999
1.4
1.4
1.4
1.4
1.4
1.40001
1.40001
1.40001
1.40001
1.40001
1.40001
1.40001
1.40001
1.40001
1.40001
1.40001
1.40003
1.40003
1.40004
1.40005
1.40006
1.40008
1.4001
1.40012
1.40014
1.40017
1.40019
1.40022
1.40026
1.4003
1.40034
1.40038
1.40043
1.40047
1.40053
1.40057
1.40062
1.40065
1.40069
1.40072
1.40074
1.40076
1.40076
1.40075
1.40073
1.4007
1.40067
1.40062
1.40057
1.40051
1.40045
1.40039
1.40033
1.40026
1.4002
1.40015
1.40011
1.40007
1.40003
1.4
1.39998
1.39997
1.39996
1.39995
1.39995
1.39995
1.39996
1.39996
1.39997
1.39997
1.39998
1.39998
1.39999
1.39999
1.4
1.4
1.4
1.4
1.4
1.4
1.4
1.40001
1.40001
1.40001
1.40001
1.40001
1.40001
1.40001
1.40001
1.40001
1.40001
1.40002
1.40003
1.40004
1.40004
1.40005
1.40006
1.40008
1.40009
1.40011
1.40013
1.40015
1.40018
1.4002
1.40022
1.40025
1.40028
1.40031
1.40034
1.40037
1.4004
1.40043
1.40045
1.40047
1.40049
1.40049
1.4005
1.4005
1.40049
1.40047
1.40045
1.40042
1.40039
1.40035
1.4003
1.40026
1.40022
1.40017
1.40013
1.40009
1.40006
1.40003
1.4
1.39998
1.39997
1.39996
1.39995
1.39995
1.39995
1.39995
1.39995
1.39996
1.39996
1.39997
1.39998
1.39998
1.39999
1.39999
1.39999
1.4
1.4
1.4
1.4
1.4
1.4
1.4
1.40001
1.40001
1.40001
1.40001
1.40001
1.40001
1.40001
1.40001
1.4
1.40001
1.40002
1.40003
1.40003
1.40003
1.40005
1.40005
1.40006
1.40007
1.40009
1.4001
1.40011
1.40013
1.40015
1.40017
1.40019
1.4002
1.40023
1.40025
1.40027
1.40028
1.4003
1.40031
1.40032
1.40033
1.40033
1.40033
1.40032
1.40031
1.4003
1.40028
1.40026
1.40023
1.4002
1.40017
1.40014
1.40011
1.40008
1.40005
1.40003
1.40001
1.39999
1.39997
1.39996
1.39995
1.39995
1.39995
1.39995
1.39995
1.39995
1.39996
1.39996
1.39997
1.39997
1.39998
1.39998
1.39999
1.39999
1.39999
1.4
1.4
1.4
1.4
1.4
1.4
1.4
1.40001
1.40001
1.40001
1.40001
1.40001
1.40001
1.40001
1.40001
1.40001
1.40001
1.40001
1.40002
1.40003
1.40003
1.40003
1.40004
1.40006
1.40006
1.40007
1.40008
1.40009
1.40011
1.40011
1.40013
1.40014
1.40016
1.40017
1.40018
1.40019
1.4002
1.40021
1.40022
1.40022
1.40022
1.40022
1.40022
1.40021
1.4002
1.40019
1.40017
1.40015
1.40013
1.40011
1.40009
1.40007
1.40005
1.40002
1.40001
1.39999
1.39998
1.39997
1.39996
1.39995
1.39995
1.39995
1.39995
1.39995
1.39995
1.39996
1.39996
1.39997
1.39997
1.39998
1.39998
1.39999
1.39999
1.4
1.4
1.4
1.4
1.4
1.4
1.4
1.4
1.4
1.4
1.4
1.4
1.40001
1.40001
1.40001
1.40001
1.4
1.4
1.4
1.40002
1.40001
1.40002
1.40003
1.40003
1.40003
1.40004
1.40005
1.40006
1.40006
1.40007
1.40008
1.40009
1.4001
1.40011
1.40012
1.40013
1.40013
1.40014
1.40015
1.40015
1.40016
1.40016
1.40015
1.40015
1.40014
1.40014
1.40013
1.40012
1.4001
1.40009
1.40007
1.40006
1.40004
1.40002
1.40001
1.4
1.39998
1.39997
1.39996
1.39996
1.39995
1.39995
1.39995
1.39995
1.39995
1.39996
1.39996
1.39997
1.39997
1.39997
1.39998
1.39998
1.39999
1.39999
1.39999
1.4
1.4
1.4
1.4
1.4
1.4
1.4
1.4
1.40001
1.40001
1.40001
1.4
1.4
1.4
1.4
1.40001
1.40001
1.40001
1.40001
1.40001
1.40002
1.40002
1.40001
1.40002
1.40003
1.40004
1.40004
1.40004
1.40005
1.40006
1.40006
1.40007
1.40008
1.40009
1.40009
1.4001
1.4001
1.40011
1.40011
1.40011
1.40011
1.40011
1.40011
1.4001
1.4001
1.40009
1.40008
1.40007
1.40006
1.40005
1.40004
1.40003
1.40001
1.4
1.39999
1.39998
1.39997
1.39997
1.39996
1.39996
1.39996
1.39995
1.39996
1.39996
1.39996
1.39996
1.39997
1.39997
1.39998
1.39998
1.39998
1.39999
1.39999
1.39999
1.4
1.4
1.4
1.4
1.4
1.4
1.4
1.4
1.4
1.4
1.4
1.40001
1.40001
1.40001
1.40001
1.40001
1.4
1.4
1.4
1.4
1.40001
1.40001
1.40002
1.40002
1.40002
1.40002
1.40003
1.40004
1.40004
1.40004
1.40004
1.40005
1.40006
1.40006
1.40007
1.40007
1.40007
1.40008
1.40008
1.40008
1.40008
1.40008
1.40008
1.40008
1.40007
1.40007
1.40006
1.40005
1.40004
1.40003
1.40003
1.40002
1.40001
1.4
1.39999
1.39998
1.39998
1.39997
1.39997
1.39996
1.39996
1.39996
1.39996
1.39996
1.39996
1.39997
1.39997
1.39997
1.39998
1.39998
1.39998
1.39999
1.39999
1.39999
1.4
1.4
1.4
1.4
1.4
1.4
1.4
1.4
1.4
1.4
1.4
1.4
1.4
1.4
1.40001
1.40001
1.40001
1.40001
1.40001
1.40001
1.40001
1.40001
1.40001
1.40001
1.40001
1.40002
1.40002
1.40002
1.40002
1.40003
1.40004
1.40004
1.40004
1.40005
1.40005
1.40005
1.40006
1.40006
1.40006
1.40006
1.40006
1.40006
1.40006
1.40006
1.40005
1.40005
1.40004
1.40004
1.40004
1.40003
1.40002
1.40001
1.40001
1.4
1.39999
1.39998
1.39998
1.39998
1.39997
1.39997
1.39997
1.39997
1.39997
1.39997
1.39997
1.39997
1.39997
1.39998
1.39998
1.39998
1.39999
1.39999
1.39999
1.39999
1.4
1.4
1.4
1.4
1.4
1.4
1.4
1.4
1.4
1.4
1.4
1.4
1.4
1.4
1.4
1.4
1.4
1.4
1.4
1.40001
1.4
1.40001
1.40001
1.40001
1.40001
1.40001
1.40001
1.40002
1.40002
1.40002
1.40002
1.40003
1.40003
1.40003
1.40004
1.40004
1.40004
1.40004
1.40005
1.40005
1.40005
1.40005
1.40005
1.40004
1.40004
1.40004
1.40004
1.40003
1.40003
1.40002
1.40002
1.40001
1.40001
1.4
1.39999
1.39999
1.39999
1.39998
1.39998
1.39998
1.39997
1.39997
1.39997
1.39997
1.39997
1.39998
1.39998
1.39998
1.39998
1.39999
1.39999
1.39999
1.39999
1.39999
1.4
1.4
1.4
1.4
1.4
1.4
1.4
1.4
1.4
1.4
1.4
1.4
1.4
1.40001
1.40001
1.40001
1.40001
1.40001
1.4
1.40001
1.4
1.40001
1.4
1.40001
1.40001
1.40001
1.40001
1.40001
1.40001
1.40001
1.40002
1.40002
1.40002
1.40002
1.40003
1.40003
1.40003
1.40003
1.40003
1.40004
1.40004
1.40004
1.40004
1.40004
1.40004
1.40003
1.40003
1.40003
1.40003
1.40002
1.40002
1.40001
1.40001
1.4
1.4
1.39999
1.39999
1.39999
1.39998
1.39998
1.39998
1.39998
1.39998
1.39998
1.39998
1.39998
1.39998
1.39999
1.39999
1.39999
1.39999
1.39999
1.39999
1.39999
1.4
1.4
1.4
1.4
1.4
1.4
1.4
1.4
1.4
1.4
1.4
1.4
1.4
1.4
1.4
1.4
1.4
1.4
1.40001
1.40001
1.40001
1.40001
1.40001
1.40001
1.40001
1.40001
1.40001
1.40001
1.40001
1.40001
1.40001
1.40001
1.40001
1.40002
1.40002
1.40002
1.40002
1.40002
1.40003
1.40003
1.40003
1.40003
1.40003
1.40003
1.40003
1.40003
1.40003
1.40002
1.40002
1.40002
1.40001
1.40001
1.40001
1.4
1.4
1.4
1.4
1.39999
1.39999
1.39999
1.39999