/*--------------------------------*- C++ -*----------------------------------*\
  =========                 |
  \\      /  F ield         | OpenFOAM: The Open Source CFD Toolbox
   \\    /   O peration     | Website:  https://openfoam.org
    \\  /    A nd           | Version:  6
     \\/     M anipulation  |
\*---------------------------------------------------------------------------*/
FoamFile
{
    version     2.0;
    format      ascii;
    class       volScalarField;
    location    "1.75";
    object      nut;
}
// * * * * * * * * * * * * * * * * * * * * * * * * * * * * * * * * * * * * * //

dimensions      [0 2 -1 0 0 0 0];

internalField   nonuniform List<scalar> 
4214
(
0.00502207
0.00642984
0.00839735
0.0101091
0.0112186
0.0117754
0.0119517
0.0118978
0.0117155
0.011472
0.011214
0.0109751
0.0107795
0.0106449
0.0105871
0.0106258
0.0108009
0.01119
0.0119454
0.0132182
0.0147288
0.0142663
0.0125915
0.0112417
0.0105428
0.0103621
0.0105189
0.0108631
0.011277
0.01168
0.0120208
0.0122763
0.0124438
0.0125235
0.0124917
0.0122604
0.0116434
0.0104166
0.00856281
0.00652311
0.00509267
0.00684736
0.00900536
0.0105482
0.0114644
0.0119015
0.0120172
0.0119291
0.0117218
0.011454
0.0111699
0.0109034
0.0106798
0.0105167
0.0104272
0.010425
0.010533
0.0107997
0.0113138
0.0122392
0.0137197
0.0154783
0.0151525
0.0132988
0.0116427
0.0106546
0.010229
0.010208
0.0104495
0.0108327
0.0112672
0.0116825
0.0120322
0.0122946
0.0124672
0.0125532
0.0125345
0.0123364
0.0118105
0.010785
0.00918658
0.00708345
0.00948463
0.0108657
0.0116476
0.012004
0.0120745
0.0119577
0.0117245
0.0114297
0.0111172
0.0108219
0.01057
0.0103794
0.0102618
0.0102266
0.0102866
0.0104686
0.01083
0.0114688
0.0125576
0.0142304
0.016226
0.0161154
0.014146
0.0121905
0.0108983
0.0101962
0.0099517
0.0100344
0.0103294
0.0107452
0.0112035
0.0116398
0.0120087
0.012287
0.0124711
0.0125643
0.0125521
0.0123712
0.0119115
0.0110719
0.00977552
0.0111898
0.0118364
0.0121119
0.0121374
0.0119897
0.0117277
0.0114019
0.0110573
0.0107305
0.0104491
0.0102315
0.0100886
0.0100269
0.0100528
0.01018
0.0104395
0.0108961
0.0116529
0.0128874
0.0147328
0.0169405
0.0171177
0.0151246
0.0128987
0.0112986
0.010301
0.00979864
0.0096748
0.0098239
0.0101595
0.0106053
0.0110919
0.0115578
0.0119553
0.0122576
0.0124592
0.0125637
0.0125606
0.0124061
0.0120441
0.011436
0.012038
0.0122311
0.0122086
0.0120279
0.0117335
0.0113724
0.0109904
0.0106283
0.0103155
0.0100711
0.00990491
0.00982122
0.00982241
0.00991375
0.0101107
0.0104486
0.0109978
0.0118631
0.0132259
0.0152205
0.0176133
0.0181351
0.0162274
0.0137847
0.0118797
0.0105755
0.0097925
0.00942703
0.00938221
0.00957793
0.00994486
0.0104184
0.0109358
0.0114365
0.0118695
0.0122035
0.0124297
0.0125513
0.0125651
0.0124561
0.0122197
0.0123644
0.0122934
0.0120763
0.0117468
0.0113448
0.0109202
0.0105172
0.0101701
0.00989829
0.00971072
0.00960903
0.00959232
0.00966065
0.00981971
0.0100875
0.0105029
0.0111399
0.0121029
0.0135761
0.0157023
0.018246
0.0191399
0.0174283
0.0148495
0.0126587
0.011042
0.00996549
0.00933748
0.00906709
0.00907804
0.00930646
0.00969586
0.0101919
0.0107381
0.0112751
0.0117489
0.0121227
0.0123821
0.012529
0.0125704
0.0125175
0.0124025
0.0121448
0.0117729
0.0113256
0.0108505
0.0104013
0.0100151
0.00971489
0.00950741
0.00939198
0.00936359
0.00941809
0.00955526
0.00978252
0.0101207
0.0106113
0.0113303
0.0123801
0.0139467
0.0161902
0.0188476
0.0201124
0.0186888
0.016076
0.0136365
0.0117097
0.0103328
0.0094323
0.00892082
0.00872171
0.00877214
0.0090199
0.00941935
0.00992717
0.0104942
0.0110652
0.0115847
0.0120083
0.0123129
0.0124963
0.0125677
0.0122489
0.0118275
0.011322
0.01079
0.0102845
0.00985497
0.00952347
0.00929797
0.00917276
0.00913945
0.00918894
0.00931612
0.00952203
0.00981678
0.0102237
0.0107861
0.0115807
0.012708
0.0143529
0.0167013
0.0194476
0.0210475
0.0199676
0.0174277
0.0147968
0.0125718
0.0108924
0.0097165
0.00896052
0.00854375
0.00839954
0.00847368
0.00872307
0.00911455
0.00961601
0.0101911
0.0107925
0.0113643
0.0118521
0.0122169
0.0124342
0.0119259
0.0113554
0.0107465
0.0101772
0.00969314
0.0093286
0.00908479
0.00895484
0.00892335
0.00897733
0.00910628
0.00930592
0.00957946
0.00994029
0.0104135
0.0110439
0.0119067
0.0131043
0.0148148
0.0172564
0.020071
0.0219668
0.0212371
0.0188588
0.0161049
0.013605
0.0116269
0.0101773
0.00918142
0.00855212
0.00821546
0.00810932
0.0081861
0.00841375
0.0087713
0.00924509
0.00981459
0.0104449
0.0110799
0.0116488
0.0120659
0.0114369
0.0107496
0.0100881
0.00954173
0.00913255
0.00887146
0.00873961
0.00871813
0.00878649
0.00892957
0.00913803
0.00940957
0.0097493
0.0101747
0.0107109
0.0114056
0.0123282
0.0135906
0.0153566
0.0178782
0.0207399
0.0229012
0.0225003
0.0203274
0.0175163
0.014771
0.012506
0.0107887
0.00956295
0.00873506
0.00822202
0.00794895
0.00785824
0.00791075
0.00808692
0.00838669
0.00881384
0.00937008
0.010032
0.0107428
0.0113768
0.0108019
0.0100562
0.00940967
0.0089479
0.00865911
0.00852832
0.0085239
0.00861727
0.00878856
0.00902104
0.00930876
0.00965191
0.0100567
0.0105457
0.0111412
0.0118969
0.01287
0.0141906
0.0160046
0.0185915
0.0214829
0.0238631
0.023801
0.0217991
0.0189932
0.0160309
0.0134921
0.0115142
0.0100742
0.00906891
0.00840649
0.00799489
0.00776357
0.00765971
0.00765852
0.00776287
0.00798746
0.00836317
0.00890368
0.00960494
0.0103673
0.0100748
0.00934558
0.00878486
0.00845774
0.00832179
0.0083354
0.00846751
0.00867764
0.00895463
0.00927699
0.00964512
0.010061
0.0105302
0.0110835
0.011734
0.0125486
0.0135616
0.0149304
0.016785
0.0194209
0.0223284
0.0248989
0.0251472
0.0232577
0.0204894
0.0173225
0.0145392
0.0123163
0.0106777
0.00952499
0.00875052
0.00824164
0.00791467
0.00769457
0.00755026
0.00747841
0.00749545
0.00764797
0.00796848
0.00850688
0.00922534
0.0093357
0.00869628
0.00828205
0.00811993
0.00815751
0.00831853
0.00859437
0.00892076
0.00930891
0.00972295
0.0101754
0.0106677
0.0112014
0.0118231
0.0125234
0.0133975
0.0144381
0.0158441
0.0177218
0.0203937
0.0233043
0.0260547
0.0265535
0.0247023
0.0219618
0.0185855
0.0155922
0.0131437
0.0113421
0.0100774
0.00923906
0.00868691
0.0083247
0.00804302
0.00780884
0.00759844
0.00743382
0.0073652
0.00743357
0.00772721
0.00825037
0.00866649
0.0081749
0.00795264
0.00796447
0.00819038
0.00849273
0.00892374
0.00936358
0.00987434
0.0103836
0.0109289
0.0115053
0.0121053
0.0128053
0.0135489
0.0144869
0.0155374
0.0169761
0.0188332
0.0215415
0.0244414
0.0273796
0.0280418
0.0261163
0.02338
0.0197543
0.0166075
0.0139529
0.0120367
0.0107107
0.00987156
0.00934798
0.00901935
0.008739
0.00847552
0.0081642
0.00785192
0.00756451
0.00738209
0.00740481
0.00765723
0.0081308
0.00782399
0.00782779
0.00800212
0.0084346
0.0088615
0.00947002
0.0100158
0.0106731
0.0112801
0.0119348
0.0126083
0.0132791
0.0140768
0.0148549
0.0158704
0.016907
0.0183811
0.0201431
0.0229006
0.0257525
0.0289287
0.0296323
0.0274554
0.0247206
0.0207581
0.017567
0.0147183
0.0127693
0.0114519
0.0106714
0.0102662
0.0100328
0.00982881
0.00957808
0.00919801
0.00876222
0.00822346
0.00780642
0.00752929
0.00749498
0.00776911
0.00765886
0.00792435
0.00822416
0.00889989
0.00941261
0.0102464
0.0108725
0.0117259
0.0124248
0.0132214
0.0140085
0.0147581
0.01569
0.0164836
0.0176123
0.0185948
0.0201263
0.0217084
0.0245458
0.0272335
0.03075
0.0313033
0.0286348
0.0259362
0.0215101
0.0184688
0.0154555
0.0136159
0.0123578
0.0116942
0.0114979
0.011385
0.0113456
0.011107
0.0106671
0.0101158
0.00924754
0.00865005
0.00798965
0.00770783
0.00761155
0.00766159
0.00826272
0.00859051
0.0096065
0.0100995
0.0112773
0.011893
0.0130615
0.0137984
0.0148186
0.0157231
0.0165613
0.0176995
0.0184447
0.0197881
0.0205995
0.0222801
0.0235096
0.0266037
0.0288236
0.0329381
0.0329737
0.0294554
0.0269787
0.0217701
0.0191953
0.0158694
0.014494
0.0133225
0.0130691
0.0130315
0.0131889
0.0132032
0.0130106
0.0124239
0.0117743
0.0104557
0.00983161
0.00860991
0.00821048
0.00807435
0.00785129
0.00784125
0.00816712
0.0088581
0.00982903
0.0108676
0.0117273
0.0122766
0.0125371
0.0125805
0.0124057
0.0118346
0.0104482
0.00784849
0.00471767
0.00521695
0.00816142
0.00819794
0.00839324
0.00883799
0.00954086
0.010407
0.0112626
0.011937
0.0123578
0.0125508
0.0125615
0.012363
0.0117636
0.0103531
0.00774614
0.00458968
0.00531542
0.00884545
0.00900182
0.00924712
0.00968619
0.0103047
0.0110043
0.0116503
0.0121371
0.0124326
0.0125582
0.012534
0.0123097
0.0116798
0.0102359
0.00761691
0.00445432
0.00536795
0.00905493
0.00953705
0.0099693
0.010438
0.0109632
0.0114942
0.0119519
0.012282
0.0124751
0.0125451
0.0124904
0.0122395
0.0115729
0.0100853
0.00744941
0.00430019
0.00538838
0.00950275
0.0100537
0.0105164
0.0109576
0.0113882
0.0117847
0.0121089
0.0123359
0.0124639
0.0124988
0.0124215
0.0121438
0.0114352
0.00989689
0.0072472
0.00413486
0.00537967
0.00940352
0.010052
0.0106087
0.0110826
0.0114877
0.0118268
0.0120924
0.0122783
0.0123845
0.0124079
0.0123189
0.0120163
0.0112634
0.00967648
0.00702501
0.0039681
0.00534411
0.00912465
0.00977424
0.0103538
0.0108585
0.0112847
0.0116334
0.0119064
0.0121047
0.0122266
0.0122624
0.0121736
0.0118519
0.01106
0.00943903
0.00680578
0.00381315
0.00528451
0.00880226
0.00937442
0.00992945
0.0104406
0.0108906
0.0112725
0.0115842
0.0118237
0.0119849
0.0120509
0.0119745
0.0116451
0.0108326
0.00920766
0.00661555
0.00368282
0.00520194
0.00814931
0.00872943
0.00929311
0.00982947
0.0103212
0.0107556
0.011125
0.0114233
0.0116395
0.0117492
0.0117005
0.0113838
0.0105843
0.00899817
0.00646963
0.00358324
0.00509561
0.00777958
0.00824681
0.00873796
0.00923203
0.00970993
0.0101562
0.0105581
0.0109023
0.0111702
0.0113295
0.0113225
0.0110447
0.0102991
0.00879707
0.00635614
0.00350915
0.00496355
0.0070917
0.00757235
0.00804733
0.00852085
0.00898874
0.00944173
0.00986748
0.0102492
0.0105632
0.0107728
0.0108186
0.0106006
0.00993949
0.00855736
0.0062356
0.00344483
0.00480573
0.00673947
0.00710651
0.00750565
0.00792334
0.0083494
0.00877393
0.00918471
0.00956483
0.00989016
0.0101237
0.0102077
0.0100455
0.00947335
0.00822794
0.00606157
0.0033714
0.00462292
0.00611751
0.00650382
0.00688978
0.00728304
0.00768343
0.00808547
0.00847888
0.00884753
0.00916868
0.00940777
0.00951145
0.00938919
0.0088933
0.00778401
0.00580338
0.00327653
0.00441682
0.00579887
0.00607445
0.00638543
0.00672144
0.00707435
0.00743484
0.00779083
0.00812713
0.00842317
0.00864794
0.00875293
0.00865412
0.00821828
0.00723337
0.00545483
0.00315697
0.00419034
0.00525693
0.00555264
0.00585024
0.0061582
0.0064761
0.00679771
0.00711323
0.00741023
0.00767202
0.00787246
0.00796697
0.00787819
0.00748639
0.00660806
0.00503181
0.00302014
0.00394797
0.00497487
0.00517228
0.0054046
0.00566017
0.00592934
0.0062024
0.00646966
0.00672077
0.00694212
0.00711114
0.00718702
0.00709784
0.00673713
0.00594863
0.00456935
0.00287932
0.00369323
0.00451325
0.00473239
0.00495307
0.00518019
0.00541078
0.00563929
0.00585995
0.00606611
0.00624697
0.00638223
0.00643475
0.00633952
0.00600162
0.00529227
0.00410608
0.00274801
0.0034297
0.00426423
0.00440298
0.00457122
0.00475264
0.00493702
0.00511825
0.00529238
0.00545466
0.00559562
0.00569626
0.00572232
0.00561736
0.00529881
0.00466515
0.00367643
0.00262847
0.00316047
0.00388007
0.00404038
0.00419663
0.00434885
0.00449499
0.00463438
0.00476638
0.00488783
0.0049901
0.00505555
0.00505333
0.00493558
0.00463658
0.00408484
0.00329086
0.00251751
0.00289045
0.00365881
0.00375681
0.0038709
0.00398367
0.00409009
0.00418999
0.00428305
0.00436595
0.00443018
0.00445969
0.00442815
0.00429796
0.0040225
0.00356285
0.00295968
0.00243381
0.00262533
0.00334457
0.00345831
0.00355655
0.00364121
0.00371549
0.00378204
0.00384083
0.00388834
0.00391656
0.00391177
0.0038537
0.00371666
0.00347416
0.00311579
0.00269693
0.0024006
0.00237249
0.00314443
0.00320879
0.00327259
0.00332684
0.00337247
0.00341056
0.00343993
0.00345676
0.00345419
0.00342196
0.00334696
0.00321551
0.00301861
0.00276608
0.00251421
0.00237959
0.00213738
0.00288675
0.00295499
0.00300119
0.00303425
0.0030585
0.00307468
0.00308111
0.00307472
0.00305089
0.00300382
0.00292759
0.00281849
0.0026793
0.00252734
0.00240708
0.00236272
0.00192238
0.00270099
0.00272912
0.002751
0.00276594
0.00277436
0.00277523
0.00276675
0.00274732
0.00271518
0.00266888
0.00260826
0.00253574
0.00245814
0.00239035
0.00235935
0.0023672
0.00173282
0.00248737
0.00250949
0.00251794
0.0025214
0.00252025
0.00251308
0.00249897
0.00247794
0.00245068
0.00241894
0.00238564
0.0023547
0.00233189
0.00232622
0.00235327
0.00239773
0.00157377
0.00231819
0.00231243
0.00230732
0.00230261
0.00229682
0.00228843
0.00227747
0.00226489
0.00225257
0.00224348
0.00224055
0.00224646
0.00226379
0.00229653
0.0023547
0.00241739
0.00144779
0.00214796
0.00213446
0.00212094
0.00211111
0.00210428
0.00209981
0.00209826
0.00210059
0.00210845
0.00212365
0.00214734
0.00217933
0.00221809
0.00226293
0.00231986
0.00236688
0.00135647
0.00200852
0.00198181
0.00196156
0.00194842
0.00194252
0.00194442
0.00195488
0.00197433
0.00200289
0.00203988
0.00208337
0.0021294
0.00217195
0.00220498
0.00222823
0.00221878
0.001301
0.00188635
0.00185379
0.00182934
0.00181455
0.00181059
0.00181905
0.00184085
0.00187586
0.00192242
0.00197699
0.00203408
0.00208593
0.00212234
0.00213175
0.00210572
0.00202107
0.00128387
0.00178413
0.00174804
0.00172149
0.00170666
0.0017054
0.00171969
0.00175057
0.0017975
0.00185774
0.00192573
0.00199327
0.00204963
0.00208148
0.00207338
0.00200848
0.00186157
0.00130894
0.00169739
0.00165961
0.00163261
0.00161878
0.00162052
0.00163985
0.0016776
0.00173294
0.00180271
0.001881
0.0019587
0.00202406
0.00206218
0.00205351
0.0019738
0.00179359
0.00138175
0.00162336
0.00158432
0.00155707
0.00154416
0.00154812
0.00157089
0.00161325
0.00167426
0.00175092
0.00183786
0.00192703
0.0020072
0.00206331
0.0020739
0.00200791
0.00182789
0.00150926
0.00155956
0.00151945
0.00149165
0.00147877
0.0014833
0.0015071
0.00155097
0.00161425
0.0016947
0.00178825
0.0018887
0.0019871
0.00207032
0.00211771
0.00209476
0.00195139
0.00169886
0.00150442
0.00146318
0.00143434
0.00142033
0.00142347
0.00144542
0.00148697
0.00154788
0.00162689
0.00172169
0.00182871
0.00194243
0.00205427
0.00214922
0.00219602
0.00213339
0.00195746
0.00145677
0.00141441
0.00138408
0.0013679
0.00136776
0.00138495
0.00142003
0.00147293
0.00154312
0.00162982
0.00173221
0.00184922
0.00197975
0.00212097
0.0022569
0.00232921
0.00229111
0.00141583
0.00137247
0.00134051
0.00132156
0.00131686
0.00132706
0.00135218
0.00139187
0.00144574
0.00151382
0.00159713
0.00169889
0.0018267
0.00199479
0.00221798
0.00247872
0.00270403
0.00138112
0.00133709
0.00130375
0.00128206
0.00127253
0.00127502
0.00128882
0.0013129
0.00134647
0.00138952
0.00144384
0.00151506
0.00161668
0.00177609
0.00204317
0.00249974
0.00319783
0.00135242
0.00130825
0.00127407
0.00125036
0.00123693
0.0012329
0.00123689
0.00124734
0.00126298
0.00128354
0.00131078
0.00135071
0.00141711
0.00153739
0.00177474
0.00232282
0.00377204
0.00132981
0.00128613
0.00125171
0.00122684
0.00121098
0.00120284
0.00120074
0.00120296
0.00120821
0.00121621
0.00122877
0.00125129
0.00129335
0.00137111
0.00153279
0.00199367
0.00442487
0.00131284
0.00127113
0.0012375
0.00121223
0.00119491
0.00118442
0.00117928
0.00117818
0.0011804
0.00118658
0.00119941
0.00122283
0.00125909
0.00131167
0.00140444
0.00167105
0.00515317
0.00118945
0.0012021
0.00121537
0.00122858
0.00124122
0.00125272
0.0012629
0.00127159
0.00127881
0.00128458
0.00128893
0.00129193
0.0012936
0.00129401
0.00129318
0.00129114
0.00128784
0.00128329
0.0012775
0.00127062
0.00125873
0.00124732
0.00124054
0.00123528
0.00123143
0.00122888
0.0012274
0.00122674
0.00122665
0.00122685
0.00122721
0.00122761
0.00122819
0.00122931
0.00123167
0.00123623
0.00124389
0.00125493
0.00126865
0.00128353
0.00129814
0.0012105
0.00122554
0.00124092
0.00125577
0.00126943
0.00128153
0.00129195
0.00130069
0.00130779
0.00131325
0.0013171
0.00131937
0.00132008
0.00131927
0.00131696
0.00131316
0.00130787
0.00130109
0.00129295
0.00128365
0.001269
0.00125496
0.00124608
0.00123886
0.00123324
0.0012291
0.00122626
0.00122444
0.00122337
0.00122272
0.00122228
0.00122179
0.00122122
0.00122069
0.00122069
0.00122199
0.00122555
0.00123194
0.00124082
0.0012509
0.00126067
0.00123227
0.0012498
0.0012672
0.00128335
0.00129773
0.0013102
0.0013208
0.00132956
0.00133653
0.00134168
0.00134502
0.00134653
0.00134623
0.00134417
0.00134035
0.00133481
0.00132755
0.00131867
0.00130834
0.00129685
0.00127986
0.0012635
0.00125258
0.0012434
0.00123593
0.00123011
0.00122578
0.00122269
0.00122054
0.00121902
0.00121782
0.00121664
0.00121526
0.00121363
0.00121194
0.00121075
0.00121093
0.00121328
0.00121799
0.00122419
0.00123047
0.00125427
0.0012743
0.00129336
0.00131039
0.00132521
0.00133796
0.00134874
0.00135757
0.00136444
0.00136929
0.0013721
0.00137285
0.00137154
0.00136823
0.00136294
0.00135572
0.00134665
0.00133586
0.00132359
0.00131019
0.00129131
0.001273
0.00126016
0.00124907
0.00123976
0.0012322
0.00122628
0.00122178
0.00121844
0.00121594
0.00121395
0.00121214
0.00121019
0.00120787
0.00120512
0.00120221
0.00119977
0.00119875
0.00119985
0.00120296
0.00120707
0.00127612
0.00129844
0.00131861
0.00133611
0.00135124
0.00136428
0.00137529
0.00138423
0.00139102
0.00139559
0.00139788
0.00139787
0.00139559
0.00139109
0.00138444
0.00137572
0.00136504
0.00135261
0.00133871
0.0013237
0.00130338
0.00128353
0.00126895
0.00125607
0.00124497
0.00123567
0.00122811
0.00122212
0.00121746
0.00121385
0.00121098
0.0012085
0.00120605
0.00120332
0.00120002
0.00119612
0.00119193
0.00118826
0.00118621
0.00118664
0.00118957
0.0012976
0.00132169
0.00134236
0.00136008
0.00137551
0.00138888
0.00140017
0.00140923
0.00141594
0.00142021
0.001422
0.00142129
0.00141812
0.00141257
0.00140474
0.00139474
0.00138274
0.00136898
0.00135377
0.00133747
0.00131615
0.00129516
0.00127907
0.00126457
0.00125181
0.00124085
0.00123166
0.00122413
0.00121807
0.00121325
0.00120937
0.00120612
0.00120316
0.00120012
0.00119662
0.00119237
0.00118731
0.00118186
0.00117714
0.00117486
0.00117678
0.00131866
0.00134364
0.00136431
0.0013822
0.00139798
0.0014117
0.00142322
0.00143237
0.00143897
0.00144297
0.0014443
0.00144299
0.00143908
0.00143267
0.00142389
0.0014129
0.00139989
0.00138512
0.00136892
0.00135165
0.00132974
0.00130801
0.00129067
0.0012748
0.00126056
0.00124806
0.00123734
0.0012283
0.00122083
0.00121473
0.00120976
0.00120564
0.00120207
0.00119872
0.00119519
0.00119105
0.00118594
0.00117976
0.00117313
0.00116791
0.00116776
0.00133915
0.00136398
0.00138452
0.00140266
0.00141879
0.0014328
0.00144448
0.00145364
0.00146012
0.00146386
0.00146483
0.00146304
0.00145858
0.00145156
0.00144212
0.00143044
0.00141674
0.00140129
0.00138442
0.00136648
0.00134434
0.00132224
0.00130395
0.00128696
0.00127149
0.00125766
0.00124555
0.00123514
0.00122633
0.00121897
0.00121289
0.00120784
0.00120359
0.00119986
0.0011963
0.00119251
0.00118798
0.0011822
0.00117497
0.00116724
0.00116303
0.00135847
0.00138259
0.00140329
0.00142181
0.00143824
0.00145242
0.00146413
0.00147323
0.00147956
0.00148309
0.0014838
0.00148171
0.00147692
0.00146955
0.00145974
0.00144769
0.00143363
0.00141781
0.00140057
0.00138225
0.00136021
0.00133808
0.00131916
0.00130136
0.00128492
0.00127003
0.00125677
0.00124516
0.00123517
0.00122668
0.00121956
0.00121363
0.00120869
0.00120453
0.0012009
0.00119749
0.00119386
0.00118937
0.00118322
0.00117485
0.00116588
0.00137577
0.0013996
0.00142103
0.00144007
0.0014567
0.00147091
0.00148254
0.00149149
0.00149767
0.00150104
0.0015016
0.0014994
0.00149451
0.00148705
0.00147718
0.00146507
0.00145094
0.00143507
0.00141775
0.00139935
0.00137772
0.00135587
0.00133664
0.00131835
0.00130127
0.0012856
0.00127148
0.00125895
0.001248
0.00123859
0.00123062
0.00122394
0.00121841
0.00121388
0.00121017
0.00120708
0.00120434
0.00120149
0.00119772
0.00119162
0.00118121
0.0013919
0.00141582
0.00143817
0.00145785
0.00147466
0.00148877
0.00150022
0.00150896
0.00151497
0.00151824
0.00151876
0.00151661
0.00151184
0.00150456
0.0014949
0.00148302
0.00146914
0.00145351
0.00143643
0.00141824
0.00139731
0.00137606
0.00135686
0.00133843
0.00132106
0.00130496
0.0012903
0.00127716
0.00126558
0.00125552
0.00124695
0.00123976
0.00123386
0.00122912
0.00122543
0.00122267
0.00122068
0.0012193
0.00121809
0.00121613
0.00121038
0.00140985
0.00143313
0.00145551
0.00147562
0.00149267
0.00150661
0.00151779
0.00152628
0.00153211
0.0015353
0.00153588
0.00153391
0.00152945
0.00152257
0.00151339
0.00150205
0.00148873
0.00147367
0.00145716
0.00143952
0.00141959
0.00139926
0.00138046
0.00136228
0.001345
0.00132887
0.00131405
0.00130067
0.00128879
0.00127844
0.00126959
0.0012622
0.00125621
0.00125153
0.00124808
0.00124578
0.00124457
0.0012444
0.00124521
0.00124691
0.00124828
0.00143116
0.00145357
0.00147485
0.00149436
0.00151139
0.00152519
0.001536
0.00154416
0.00154977
0.00155291
0.00155361
0.00155193
0.00154793
0.00154166
0.00153321
0.0015227
0.00151028
0.00149615
0.00148059
0.0014639
0.00144532
0.00142629
0.00140832
0.00139082
0.00137408
0.00135835
0.00134382
0.00133063
0.00131887
0.00130861
0.00129987
0.00129263
0.00128687
0.00128256
0.00127963
0.00127805
0.00127779
0.00127889
0.0012814
0.00128543
0.00129078
0.00145704
0.00147817
0.00149814
0.00151605
0.001532
0.00154538
0.00155574
0.00156342
0.00156874
0.00157178
0.00157261
0.00157131
0.0015679
0.00156244
0.00155498
0.00154561
0.00153446
0.0015217
0.00150756
0.00149231
0.00147552
0.00145824
0.00144164
0.00142536
0.0014097
0.00139491
0.00138118
0.00136867
0.00135752
0.00134781
0.00133959
0.0013329
0.00132774
0.0013241
0.00132196
0.00132132
0.00132224
0.00132474
0.00132887
0.00133441
0.0013414
0.00148986
0.00150874
0.00152668
0.00154267
0.00155653
0.00156846
0.00157806
0.00158502
0.00158983
0.00159267
0.00159362
0.00159273
0.00159003
0.00158557
0.00157938
0.00157152
0.00156209
0.00155122
0.00153909
0.00152594
0.00151154
0.00149666
0.00148211
0.00146777
0.00145389
0.00144071
0.00142844
0.00141725
0.00140728
0.00139865
0.00139144
0.0013857
0.00138148
0.00137878
0.00137763
0.00137804
0.00138017
0.00138388
0.00138906
0.00139543
0.0014036
0.00153324
0.00154837
0.00156301
0.00157595
0.00158712
0.00159649
0.00160432
0.0016101
0.00161407
0.00161648
0.00161742
0.00161693
0.00161506
0.00161181
0.00160722
0.00160133
0.00159419
0.00158589
0.00157656
0.00156637
0.00155523
0.00154366
0.00153217
0.00152075
0.00150964
0.00149904
0.00148914
0.00148011
0.00147209
0.00146521
0.00145956
0.00145522
0.00145224
0.00145065
0.00145049
0.00145182
0.00145468
0.0014588
0.00146414
0.00147054
0.00147885
0.00159297
0.00160194
0.00161111
0.00161917
0.00162607
0.00163183
0.00163651
0.00164019
0.00164268
0.00164424
0.00164493
0.00164478
0.00164381
0.00164204
0.00163948
0.00163614
0.00163204
0.00162724
0.00162179
0.00161579
0.00160923
0.00160234
0.0015954
0.00158844
0.00158161
0.00157506
0.00156892
0.00156332
0.00155838
0.00155419
0.00155083
0.00154836
0.00154684
0.0015463
0.00154678
0.00154828
0.00155072
0.00155401
0.00155808
0.0015628
0.00156931
0.00521471
0.00444602
0.00737448
0.00998359
0.011529
0.0122499
0.0125249
0.0125627
0.0124252
0.0121096
0.0116059
0.01094
0.0101871
0.00944561
0.008798
0.00828942
0.00792081
0.00531506
0.00432695
0.00729242
0.00990279
0.0114608
0.0122035
0.0125035
0.0125704
0.0124796
0.0122372
0.0118267
0.0112462
0.0105326
0.00976145
0.00902497
0.00840467
0.00795048
0.00536622
0.00422055
0.00720768
0.00980989
0.0113771
0.0121437
0.0124662
0.0125607
0.0125169
0.0123557
0.0120672
0.0116362
0.0110616
0.0103664
0.00959932
0.00882845
0.00813493
0.00538221
0.0041167
0.00711047
0.00970022
0.0112798
0.0120661
0.0124056
0.0125198
0.0125121
0.0124203
0.0122515
0.0120025
0.011669
0.0112487
0.0107421
0.0101528
0.00948977
0.00536583
0.00402054
0.00700834
0.0095858
0.0111696
0.0119656
0.0123111
0.0124294
0.0124307
0.0123589
0.0122235
0.012017
0.0117245
0.0113312
0.0108337
0.0102484
0.00959752
0.00531982
0.00393305
0.0069119
0.00947051
0.0110453
0.0118375
0.0121756
0.0122826
0.0122735
0.0121978
0.0120702
0.0118861
0.0116307
0.0112826
0.0108228
0.0102519
0.00959112
0.00524803
0.00385532
0.0068229
0.00935245
0.0109024
0.0116759
0.0119931
0.0120752
0.0120406
0.0119452
0.0118105
0.0116398
0.0114271
0.0111603
0.0108217
0.0103938
0.00986204
0.00515254
0.00378608
0.00673633
0.00922196
0.0107301
0.011471
0.0117558
0.0118017
0.0117296
0.0116011
0.0114433
0.0112649
0.0110642
0.0108344
0.0105644
0.0102373
0.00982893
0.00503433
0.00372171
0.0066404
0.0090613
0.0105103
0.0112075
0.011451
0.0114508
0.0113278
0.011149
0.0109473
0.0107354
0.0105149
0.0102832
0.0100382
0.00978149
0.00952399
0.00489413
0.00365637
0.00651709
0.00884764
0.0102229
0.0108724
0.0110768
0.0110332
0.01086
0.0106297
0.010381
0.0101294
0.00987616
0.00961358
0.00932956
0.00900976
0.00863766
0.00473263
0.00358406
0.00634685
0.00855869
0.00984792
0.0104513
0.0106282
0.0105573
0.0103537
0.0100929
0.00982082
0.00956079
0.00931968
0.00909393
0.00887318
0.00864047
0.00836751
0.00455059
0.00349905
0.00611314
0.00817794
0.00936924
0.00992526
0.0100815
0.00999496
0.0097717
0.00948331
0.00917958
0.00888971
0.00862816
0.00839975
0.00820673
0.00805605
0.00796867
0.00434978
0.00339747
0.00580604
0.00770112
0.00878736
0.00929639
0.00944106
0.0093572
0.00913796
0.0088456
0.00852701
0.00821267
0.00791795
0.00764532
0.00738746
0.00713093
0.00686093
0.00413241
0.00328212
0.00542874
0.00714023
0.00811975
0.00858184
0.00871999
0.00865347
0.00846229
0.00819841
0.00790228
0.0076057
0.0073305
0.00708751
0.00687548
0.00668034
0.0064715
0.00390055
0.00316283
0.00500087
0.00652105
0.00739601
0.00780926
0.00793661
0.0078858
0.00772531
0.0074963
0.00722921
0.00695071
0.00668498
0.00645276
0.00626981
0.00614907
0.00610844
0.00365701
0.00304959
0.00455014
0.00587592
0.00665162
0.00701737
0.00713034
0.00709125
0.00696126
0.00677336
0.00654746
0.0062998
0.00604686
0.00580451
0.00558418
0.00538851
0.00521193
0.00340416
0.00294738
0.00410873
0.00523509
0.00591685
0.00623899
0.00633652
0.00630429
0.00619883
0.00605008
0.0058735
0.005679
0.00547688
0.00528015
0.00510189
0.0049473
0.00480005
0.00314385
0.00284231
0.00369967
0.00462174
0.00521213
0.00549481
0.00557996
0.00555221
0.00546348
0.00534221
0.00520228
0.00505041
0.00489218
0.00473704
0.00460154
0.00451007
0.00449455
0.00287921
0.00271855
0.00332903
0.00405156
0.00454821
0.00479552
0.00487381
0.00485369
0.00478115
0.00468272
0.00457175
0.00445363
0.00433
0.00420209
0.00407368
0.00395342
0.00385612
0.00261729
0.00259755
0.00300815
0.00353837
0.00393455
0.00414676
0.00422251
0.0042146
0.00416093
0.00408526
0.00400074
0.00391373
0.00382667
0.00374008
0.00365395
0.00356821
0.00347712
0.00236764
0.00254507
0.00275444
0.00310074
0.00338911
0.00356061
0.00363269
0.00363817
0.00360467
0.00355148
0.0034904
0.00342786
0.00336718
0.00331042
0.00326042
0.00322502
0.00322923
0.00213483
0.00253449
0.00258359
0.00276254
0.00294009
0.0030604
0.00311969
0.00313259
0.00311559
0.0030822
0.00304166
0.00299942
0.00295823
0.00291925
0.00288202
0.0028436
0.0028076
0.00191994
0.00248947
0.00248185
0.00253571
0.00261178
0.00267146
0.00270363
0.00271088
0.00270034
0.00267937
0.00265379
0.00262742
0.00260231
0.00257956
0.00255903
0.00253597
0.00249555
0.00172972
0.00244744
0.00242195
0.00240318
0.00240213
0.00240252
0.00239703
0.00238458
0.00236703
0.00234723
0.00232772
0.00231028
0.00229577
0.00228451
0.00227683
0.00227402
0.00228807
0.00157009
0.00244707
0.00239059
0.00232842
0.0022792
0.00223457
0.00219236
0.00215309
0.00211813
0.00208862
0.00206529
0.00204834
0.00203755
0.00203215
0.00203157
0.00203559
0.00204477
0.0014442
0.00245258
0.00236017
0.00227427
0.00220264
0.00213291
0.0020644
0.00200052
0.00194475
0.0018993
0.00186487
0.00184114
0.0018272
0.0018218
0.00182337
0.00183088
0.00183966
0.00135391
0.00238678
0.00228669
0.00220857
0.00214141
0.00206668
0.00198513
0.00190385
0.0018297
0.00176724
0.00171856
0.00168386
0.00166219
0.00165206
0.0016516
0.00165884
0.00167355
0.00130069
0.00220659
0.00215549
0.00212327
0.00208298
0.00201777
0.00193359
0.0018423
0.00175446
0.00167733
0.00161479
0.00156811
0.00153674
0.00151915
0.00151348
0.00151738
0.00152931
0.0012856
0.00196794
0.00200751
0.00204116
0.00203406
0.00198174
0.00189864
0.00180157
0.00170415
0.00161573
0.00154165
0.00148411
0.00144314
0.0014173
0.00140459
0.00140275
0.00140972
0.00131104
0.00177046
0.00191137
0.00199634
0.00200828
0.0019607
0.00187586
0.0017736
0.00166901
0.00157234
0.00148956
0.00142336
0.00137404
0.00134036
0.00132036
0.00131165
0.00131304
0.00138265
0.00170248
0.00190512
0.00200271
0.00200923
0.00195322
0.00186077
0.00175206
0.0016417
0.00153939
0.00145089
0.0013787
0.00132313
0.00128326
0.00125768
0.00124464
0.00124268
0.0015078
0.00177254
0.00197165
0.00204454
0.00202508
0.00194964
0.00184484
0.00172905
0.00161475
0.00150988
0.00141897
0.00134421
0.00128621
0.00124429
0.00121685
0.0012019
0.00119737
0.00169465
0.00192329
0.0020768
0.0020969
0.0020362
0.00193464
0.00181629
0.00169544
0.00158075
0.00147746
0.00138877
0.00131634
0.00126027
0.00121932
0.00119169
0.00117535
0.00116871
0.00195137
0.0021191
0.00218399
0.00212668
0.00201582
0.00188847
0.00176127
0.00164163
0.00153295
0.00143748
0.00135686
0.00129155
0.00124081
0.00120315
0.00117689
0.00116029
0.00115205
0.00228509
0.00232461
0.00224609
0.00209414
0.00193704
0.00179511
0.0016712
0.00156333
0.00146959
0.00138939
0.00132256
0.00126839
0.00122572
0.00119324
0.00116964
0.00115364
0.00114407
0.00270061
0.00248111
0.00220799
0.0019716
0.00179317
0.00165894
0.00155451
0.00146981
0.00139909
0.00133966
0.00129002
0.00124905
0.00121574
0.00118926
0.00116872
0.00115341
0.00114286
0.00319985
0.00250507
0.00204387
0.0017777
0.00161817
0.00151434
0.0014407
0.0013842
0.00133829
0.00129964
0.00126644
0.00123776
0.00121294
0.00119163
0.0011736
0.00115866
0.00114686
0.00378196
0.00233714
0.00180608
0.00158453
0.00147305
0.00140748
0.00136338
0.00133039
0.00130359
0.00128015
0.00125856
0.00123818
0.00121884
0.00120063
0.00118371
0.00116832
0.0011548
0.00444329
0.00202877
0.00159903
0.00146049
0.00139803
0.00136238
0.00133776
0.00131817
0.00130096
0.00128446
0.0012678
0.0012507
0.00123323
0.00121561
0.00119815
0.00118123
0.00116532
0.00517762
0.0017238
0.0014905
0.00142465
0.00139263
0.00137129
0.00135432
0.00133868
0.00132316
0.00130715
0.00129032
0.0012726
0.00125411
0.00123503
0.00121565
0.00119632
0.00117757