/*--------------------------------*- C++ -*----------------------------------*\
  =========                 |
  \\      /  F ield         | OpenFOAM: The Open Source CFD Toolbox
   \\    /   O peration     | Website:  https://openfoam.org
    \\  /    A nd           | Version:  6
     \\/     M anipulation  |
\*---------------------------------------------------------------------------*/
FoamFile
{
    version     2.0;
    format      ascii;
    class       surfaceVectorField;
    location    "1.75";
    object      Uf;
}
// * * * * * * * * * * * * * * * * * * * * * * * * * * * * * * * * * * * * * //

dimensions      [0 1 -1 0 0 0 0];

internalField   nonuniform List<vector> 
8193
(
(4.97817 -0.00889433 5.75367e-21)
(5.02047 -0.0157566 0)
(4.89765 -0.0452919 0)
(5.00423 0.0204725 5.54638e-21)
(5.03282 0.0203895 -1.11232e-19)
(5.00994 0.0498048 -4.08462e-21)
(5.02878 0.0508814 -1.44651e-20)
(5.01543 0.0764357 -3.92991e-21)
(5.02798 0.0766801 3.6881e-20)
(5.02584 0.101343 1.73382e-21)
(5.03604 0.101753 1.87619e-20)
(5.03928 0.124874 1.67091e-21)
(5.0494 0.126171 -1.40564e-20)
(5.04827 0.145922 6.46462e-22)
(5.05838 0.148724 -1.44525e-20)
(5.05039 0.165132 5.10157e-21)
(5.05897 0.168716 -6.54122e-21)
(5.04542 0.181603 1.0168e-19)
(5.05217 0.185822 1.727e-20)
(5.03419 0.194457 2.18012e-20)
(5.03892 0.199489 -1.12265e-20)
(5.01804 0.202587 2.57601e-22)
(5.021 0.20895 -2.17932e-21)
(4.99773 0.204589 3.22947e-20)
(4.99921 0.213148 1.73689e-21)
(4.97305 0.198209 6.34743e-20)
(4.97256 0.210363 -5.54221e-22)
(4.94461 0.180725 -9.21849e-21)
(4.94081 0.198304 5.03777e-23)
(4.91673 0.150518 -1.56563e-19)
(4.90714 0.1754 -6.2694e-21)
(4.89916 0.108235 2.03537e-19)
(4.87947 0.141737 1.00332e-20)
(4.90682 0.0573723 -1.45444e-20)
(4.87206 0.100114 2.21937e-20)
(4.95232 0.00453636 -7.29533e-20)
(4.89931 0.0512075 2.24849e-20)
(5.03192 -0.0408926 1.50759e-21)
(4.97009 0.0032453 -4.22003e-22)
(5.11554 -0.0681466 3.94488e-21)
(5.06674 -0.0430676 1.07712e-20)
(5.1571 -0.0801215 -1.04345e-22)
(5.14631 -0.0650671 -2.77709e-21)
(5.14039 -0.0959093 -1.54006e-21)
(5.15133 -0.0958756 -3.5419e-21)
(5.08394 -0.105863 -3.08086e-21)
(5.12187 -0.12466 0)
(5.01873 -0.111761 6.9299e-20)
(5.05763 -0.132576 6.40864e-21)
(4.9797 -0.12229 8.09159e-21)
(4.99226 -0.137401 -1.08432e-20)
(4.97206 -0.135983 -1.72338e-19)
(4.96159 -0.147015 2.79253e-20)
(4.98301 -0.149107 -1.07031e-20)
(4.95949 -0.158838 3.10345e-20)
(4.99941 -0.159229 5.43682e-20)
(4.97594 -0.169182 -2.92095e-21)
(5.01261 -0.163937 4.24773e-20)
(4.99649 -0.176388 -6.54958e-21)
(5.02283 -0.162884 1.09537e-21)
(5.01435 -0.17895 9.00475e-21)
(5.03162 -0.156481 -1.01399e-20)
(5.02953 -0.176399 -1.10314e-22)
(5.03887 -0.145388 9.14977e-20)
(5.04319 -0.168529 -9.43706e-21)
(5.0426 -0.130663 9.81478e-21)
(5.05493 -0.156183 1.55284e-20)
(5.03971 -0.113561 -2.1191e-20)
(5.06244 -0.140347 0)
(5.02705 -0.0945931 4.01987e-19)
(5.06259 -0.121284 9.07689e-21)
(5.00731 -0.0729702 2.16993e-20)
(5.05016 -0.0991082 -8.61245e-21)
(4.98963 -0.0496784 4.71353e-22)
(5.02875 -0.0752045 3.33768e-20)
(4.97868 -0.0250751 -3.5552e-20)
(5.01084 -0.0517858 -3.94244e-20)
(4.97012 0.00170665 5.83591e-19)
(5.00334 -0.0273211 -1.64804e-20)
(4.94307 0.0270971 3.6171e-20)
(5.00077 0.00391218 3.05035e-21)
(4.98512 0.0354955 5.92042e-20)
(4.86634 0.0604488 3.97572e-21)
(5.06037 0.0321034 -5.66539e-21)
(5.05817 0.0220223 2.20848e-20)
(5.05875 -0.0105755 0)
(5.04637 0.0585928 -1.99716e-20)
(5.04556 0.0532585 8.08408e-20)
(5.0404 0.0836806 -2.71312e-20)
(5.04349 0.0800553 -2.08875e-20)
(5.04631 0.108094 -1.24457e-19)
(5.04837 0.104104 -5.45737e-20)
(5.05798 0.131909 2.50706e-20)
(5.05863 0.12853 4.64752e-20)
(5.06605 0.154424 8.2921e-20)
(5.0677 0.152002 4.53416e-21)
(5.06612 0.17449 -1.29142e-20)
(5.06907 0.172895 -1.4267e-20)
(5.05883 0.191616 8.55667e-21)
(5.06266 0.190763 8.61489e-21)
(5.04465 0.2052 4.9159e-20)
(5.04944 0.205357 -7.6505e-21)
(5.0255 0.214714 -8.1873e-21)
(5.03138 0.216332 -9.78783e-21)
(5.00249 0.219444 3.80209e-21)
(5.00959 0.22318 2.27806e-21)
(4.9749 0.218045 -2.42464e-20)
(4.98344 0.224947 3.12154e-22)
(4.94217 0.208673 -3.92284e-20)
(4.9518 0.220098 -1.00562e-20)
(4.90652 0.189994 2.9937e-21)
(4.91578 0.207087 1.08773e-20)
(4.87466 0.162416 -3.18685e-21)
(4.88061 0.185989 0)
(4.85803 0.128108 -8.72775e-22)
(4.85526 0.158693 7.24145e-21)
(4.87043 0.0884408 4.7184e-21)
(4.85197 0.127866 -4.02567e-21)
(4.92148 0.0445978 -9.29673e-22)
(4.88165 0.0902966 2.33775e-21)
(5.0069 -0.0020035 -1.37255e-20)
(4.94979 0.0479853 1.16001e-20)
(5.09734 -0.0428632 1.27747e-20)
(5.04345 -0.00325301 -1.21297e-20)
(5.13987 -0.0794067 4.29362e-22)
(5.11922 -0.0415287 1.55312e-21)
(5.13097 -0.122724 2.17826e-21)
(5.11858 -0.0937126 1.94185e-20)
(5.0931 -0.1475 9.24962e-21)
(5.10874 -0.142016 -1.36711e-20)
(5.03044 -0.152809 -3.95688e-21)
(5.06833 -0.160272 -1.10381e-21)
(4.97649 -0.156116 1.27017e-19)
(5.00579 -0.164067 8.84078e-21)
(4.9535 -0.164444 1.08315e-19)
(4.96288 -0.168633 2.01501e-20)
(4.95633 -0.174513 1.81949e-20)
(4.94964 -0.1771 -2.62167e-20)
(4.97519 -0.184197 -8.10051e-21)
(4.9586 -0.186555 0)
(4.99797 -0.19034 3.76126e-20)
(4.97957 -0.195046 -2.93253e-21)
(5.01832 -0.192112 7.81123e-21)
(5.00217 -0.200077 6.27952e-22)
(5.03618 -0.188781 5.92127e-22)
(5.02347 -0.200706 1.20835e-20)
(5.05296 -0.180298 9.39206e-22)
(5.04283 -0.196323 -8.78543e-21)
(5.06755 -0.167717 2.30425e-22)
(5.05999 -0.186849 3.0228e-20)
(5.07735 -0.151651 3.04453e-20)
(5.07408 -0.172916 -3.14896e-20)
(5.07853 -0.132124 -1.26904e-19)
(5.08346 -0.155195 3.06378e-20)
(5.06638 -0.109885 1.06565e-20)
(5.0826 -0.133954 -3.02411e-20)
(5.04576 -0.0864034 -2.34903e-19)
(5.06769 -0.110098 4.62346e-20)
(5.02948 -0.0618916 -3.8869e-20)
(5.04723 -0.0860854 -3.56952e-20)
(5.02518 -0.0360412 -3.82029e-21)
(5.03243 -0.0605603 6.65968e-21)
(5.0293 -0.00955145 5.61846e-20)
(5.02464 -0.0259753 4.90098e-20)
(5.02638 0.0056265 2.30253e-20)
(5.02346 0.0288731 1.17166e-18)
(5.05926 0.0538264 -5.14625e-19)
(5.07072 0.047788 -7.97342e-20)
(5.08126 0.021444 3.38552e-19)
(5.0494 0.0783989 9.7196e-20)
(5.05816 0.0745177 4.13204e-20)
(5.05423 0.102477 -2.88178e-20)
(5.06439 0.100987 1.38526e-20)
(5.06448 0.127748 -1.19186e-19)
(5.07261 0.126118 7.06473e-21)
(5.07286 0.151641 3.17612e-20)
(5.07959 0.150327 1.15202e-22)
(5.07414 0.172738 4.45232e-21)
(5.08112 0.172422 2.51585e-20)
(5.06766 0.190988 8.09863e-21)
(5.07478 0.191501 6.32039e-21)
(5.05427 0.205946 5.1567e-20)
(5.06147 0.207386 3.58213e-20)
(5.03596 0.217409 -1.71774e-20)
(5.04315 0.219978 -2.05941e-22)
(5.01387 0.225038 6.25601e-21)
(5.02109 0.22907 -5.2301e-22)
(4.98753 0.228152 2.85333e-21)
(4.99518 0.234312 2.88058e-22)
(4.95598 0.22557 -7.78157e-21)
(4.96429 0.234963 -5.64941e-21)
(4.92003 0.216161 -8.22955e-20)
(4.92825 0.229978 1.98999e-22)
(4.88376 0.199783 7.85703e-21)
(4.88986 0.218732 7.90228e-21)
(4.85473 0.178066 2.30829e-20)
(4.85581 0.202462 -1.3151e-20)
(4.84263 0.153143 1.64842e-19)
(4.83463 0.183658 2.30357e-20)
(4.8575 0.124134 -6.38303e-21)
(4.83499 0.163817 -2.0591e-20)
(4.90553 0.0878394 1.46422e-20)
(4.86354 0.136155 1.61349e-20)
(4.98389 0.0427933 -3.93726e-21)
(4.92432 0.0986394 -2.70798e-20)
(5.0652 -0.00493747 -2.36234e-20)
(5.00937 0.0449142 2.41558e-20)
(5.0994 -0.0550861 2.0072e-20)
(5.07701 -0.00476138 3.13219e-21)
(5.09736 -0.112593 3.96563e-21)
(5.06822 -0.0685962 2.4242e-20)
(5.08429 -0.153331 -2.94126e-20)
(5.07447 -0.131022 -6.31103e-20)
(5.04221 -0.167315 -7.54004e-22)
(5.06589 -0.164797 2.60678e-20)
(4.98936 -0.17235 -2.24017e-20)
(5.0175 -0.176151 -2.52368e-20)
(4.95575 -0.178606 -8.50922e-20)
(4.96973 -0.181602 1.4921e-20)
(4.94857 -0.186993 -4.39163e-20)
(4.94514 -0.189355 -2.95025e-20)
(4.96089 -0.196394 5.03809e-21)
(4.94405 -0.199234 0)
(4.98273 -0.20403 -1.8744e-21)
(4.96123 -0.209124 1.93884e-21)
(5.006 -0.208281 1.80652e-20)
(4.98574 -0.216973 -1.57866e-21)
(5.02768 -0.208166 5.63037e-21)
(5.01202 -0.221071 -1.20928e-20)
(5.04791 -0.202869 2.89283e-20)
(5.03747 -0.220255 -1.96527e-23)
(5.06688 -0.192142 -5.97178e-21)
(5.06095 -0.213843 2.97272e-20)
(5.08298 -0.177175 -3.16669e-20)
(5.08113 -0.202198 -4.70553e-21)
(5.09241 -0.159243 2.33519e-22)
(5.09781 -0.186342 0)
(5.09095 -0.138851 -1.27957e-21)
(5.10666 -0.166919 -5.46302e-22)
(5.07697 -0.115097 3.45565e-21)
(5.10353 -0.144153 -1.53113e-21)
(5.0575 -0.0889137 1.04989e-20)
(5.08868 -0.119619 -1.66362e-21)
(5.04473 -0.0620408 7.98359e-20)
(5.06903 -0.0915236 -1.04855e-20)
(5.04569 -0.0348412 -9.8782e-19)
(5.05156 -0.0528568 -1.81593e-20)
(5.05387 -0.0210042 1.20347e-19)
(5.05638 -0.00016154 7.10847e-19)
(5.07247 0.0760925 -1.15255e-19)
(5.0836 0.0727684 -6.0076e-20)
(5.08434 0.0519693 -2.30768e-19)
(5.07396 0.101631 -1.71408e-20)
(5.07996 0.0991685 -1.612e-19)
(5.08005 0.127031 -3.28205e-21)
(5.0883 0.126442 0)
(5.08649 0.15183 -3.13615e-20)
(5.09518 0.151486 5.56626e-20)
(5.08763 0.174297 -8.89356e-20)
(5.09571 0.17437 -4.55127e-20)
(5.0809 0.193657 -4.0322e-20)
(5.08876 0.194597 -4.29003e-20)
(5.06718 0.20983 -2.82345e-20)
(5.07493 0.211629 2.05259e-20)
(5.04836 0.222712 3.86242e-21)
(5.05589 0.225387 1.9722e-20)
(5.02572 0.232187 1.64384e-20)
(5.03315 0.235912 3.92333e-20)
(4.99925 0.238085 -4.18968e-20)
(5.00706 0.2432 7.91958e-21)
(4.96807 0.239961 -9.74908e-21)
(4.97686 0.247178 -5.34817e-21)
(4.93199 0.237164 -6.27435e-20)
(4.94173 0.247528 -6.42709e-21)
(4.89325 0.229294 8.04836e-21)
(4.9028 0.243859 8.20009e-21)
(4.85741 0.217145 -1.32576e-20)
(4.86459 0.236295 -1.46298e-20)
(4.83198 0.202939 -1.31078e-20)
(4.83437 0.226641 5.29905e-21)
(4.82393 0.188168 -1.17785e-20)
(4.81856 0.217226 4.29262e-20)
(4.839 0.16966 -6.36764e-20)
(4.82105 0.208119 -6.38951e-20)
(4.88081 0.140469 -2.16294e-20)
(4.84408 0.189621 4.45866e-20)
(4.94896 0.0963081 1.74009e-21)
(4.89187 0.156611 -1.69653e-20)
(5.02054 0.0415913 4.10371e-20)
(4.9624 0.10025 1.43268e-20)
(5.04608 -0.0189457 3.88449e-21)
(5.01931 0.0414031 8.29106e-21)
(5.04566 -0.0869278 -4.24082e-20)
(5.00068 -0.030644 6.96306e-20)
(5.05669 -0.14275 -7.51151e-21)
(5.01587 -0.103257 -1.61738e-20)
(5.04145 -0.171392 -1.26065e-20)
(5.04006 -0.153593 6.53365e-20)
(4.99757 -0.182917 -3.76908e-20)
(5.01893 -0.176495 -2.6994e-20)
(4.95897 -0.190743 1.02952e-20)
(4.97633 -0.188004 1.02956e-19)
(4.94069 -0.200361 1.05694e-20)
(4.94372 -0.198507 5.56002e-20)
(4.94415 -0.211187 -5.29485e-21)
(4.93197 -0.211169 -1.80359e-20)
(4.96346 -0.221428 -1.21817e-22)
(4.94128 -0.224146 7.30393e-20)
(4.98954 -0.229266 7.59287e-21)
(4.96387 -0.235945 -1.51871e-20)
(5.01677 -0.233138 1.1364e-20)
(4.99316 -0.244604 1.43339e-20)
(5.04275 -0.231606 7.03737e-22)
(5.02488 -0.2483 1.52052e-21)
(5.06731 -0.22432 5.05708e-21)
(5.0552 -0.24602 -3.6653e-20)
(5.08995 -0.211574 5.14711e-21)
(5.08213 -0.237599 9.12626e-21)
(5.10848 -0.194795 -2.3426e-22)
(5.1054 -0.223862 0)
(5.11824 -0.174597 -2.37614e-22)
(5.1235 -0.205856 -9.01306e-20)
(5.11529 -0.151439 -1.83723e-21)
(5.13197 -0.184136 -1.6003e-20)
(5.10094 -0.125368 -1.39623e-20)
(5.12764 -0.159919 9.48038e-20)
(5.08462 -0.0965805 -1.07434e-19)
(5.11131 -0.13103 -8.93249e-21)
(5.077 -0.0653978 1.08493e-18)
(5.08916 -0.0892992 -9.68301e-20)
(5.08537 -0.052047 8.04986e-20)
(5.07934 -0.0326882 7.52358e-20)
(5.09218 0.100624 1.34754e-19)
(5.10405 0.0989099 2.56417e-19)
(5.09486 0.0758175 2.17582e-19)
(5.09668 0.126955 -1.37885e-19)
(5.10567 0.126168 8.93206e-20)
(5.1019 0.152615 1.94013e-20)
(5.11306 0.153778 -4.48966e-20)
(5.10239 0.176402 -7.30064e-22)
(5.11398 0.17802 1.52578e-19)
(5.09528 0.197221 -4.37962e-20)
(5.10581 0.199243 -8.02772e-22)
(5.08091 0.214641 -5.15745e-20)
(5.0905 0.217398 -6.96252e-20)
(5.06124 0.228662 -1.62637e-21)
(5.07017 0.232215 -1.41108e-20)
(5.03792 0.23942 2.41694e-20)
(5.04633 0.243777 8.67239e-21)
(5.01128 0.24703 2.02744e-20)
(5.01954 0.252318 1.78712e-20)
(4.98071 0.251595 6.18132e-20)
(4.98949 0.258132 1.34187e-20)
(4.9456 0.253137 -5.62557e-21)
(4.95546 0.261565 -2.73931e-20)
(4.90684 0.251598 -2.61752e-21)
(4.9174 0.262852 -1.52292e-20)
(4.86812 0.247194 -1.49481e-20)
(4.87788 0.262181 2.19654e-20)
(4.83573 0.241112 1.85272e-20)
(4.84253 0.260026 3.55429e-21)
(4.81577 0.235397 7.55646e-20)
(4.81792 0.25803 3.27931e-21)
(4.81112 0.23049 1.35781e-19)
(4.80712 0.257679 7.32919e-20)
(4.82278 0.221378 -3.29978e-20)
(4.8089 0.25775 -6.10321e-20)
(4.85268 0.19852 5.24078e-20)
(4.82162 0.246823 3.08041e-21)
(4.90416 0.155522 -1.23024e-21)
(4.85106 0.218024 2.36823e-20)
(4.9611 0.095763 -1.77767e-20)
(4.90193 0.160202 -1.431e-20)
(4.9754 0.0276443 7.9735e-20)
(4.94613 0.0946552 -1.36819e-20)
(4.97234 -0.0475512 8.80977e-20)
(4.91687 0.0167648 -5.73162e-21)
(5.00052 -0.115258 3.27695e-20)
(4.93342 -0.0622607 -3.00476e-20)
(5.01833 -0.158969 3.84431e-20)
(4.98447 -0.126411 7.92523e-20)
(4.99786 -0.180733 1.16104e-19)
(4.99877 -0.163269 -1.52849e-19)
(4.961 -0.194905 1.46739e-19)
(4.97361 -0.185648 -3.30996e-20)
(4.93477 -0.20897 2.77601e-20)
(4.93982 -0.202893 -2.09589e-21)
(4.92859 -0.223568 6.4458e-20)
(4.91978 -0.220796 -5.30978e-20)
(4.94109 -0.238038 5.50122e-20)
(4.91998 -0.238976 5.33168e-20)
(4.96593 -0.250626 -2.62094e-20)
(4.93741 -0.256205 -4.13207e-20)
(4.99671 -0.25973 -1.5839e-21)
(4.96652 -0.270644 -3.60458e-20)
(5.0286 -0.263104 -3.50913e-20)
(5.00359 -0.279851 8.38785e-20)
(5.05944 -0.259989 4.4395e-21)
(5.04147 -0.282503 -3.59663e-20)
(5.08814 -0.250139 3.83091e-20)
(5.07683 -0.277973 -7.45418e-20)
(5.11394 -0.235125 -8.89845e-20)
(5.10702 -0.266974 0)
(5.13381 -0.215861 -1.05427e-19)
(5.13313 -0.250403 -8.94947e-20)
(5.14323 -0.192986 6.19003e-20)
(5.15231 -0.229297 -1.38729e-19)
(5.13933 -0.166881 1.04983e-19)
(5.1605 -0.205274 3.52437e-19)
(5.12623 -0.137055 6.7458e-21)
(5.15405 -0.176806 1.60018e-19)
(5.11511 -0.102431 -1.65036e-20)
(5.13439 -0.134622 2.41532e-22)
(5.1256 -0.0908615 -2.49677e-19)
(5.11266 -0.0657073 -1.50133e-20)
(5.1179 0.129233 4.56931e-20)
(5.13176 0.129015 7.49682e-20)
(5.11372 0.104463 5.80745e-19)
(5.12227 0.155549 1.51693e-19)
(5.13338 0.156979 1.17256e-19)
(5.12153 0.180735 1.07969e-19)
(5.13477 0.18404 -4.45595e-20)
(5.11308 0.202971 9.38424e-20)
(5.12648 0.206727 -2.46057e-22)
(5.09737 0.221691 -5.80364e-20)
(5.1093 0.225839 -1.66553e-19)
(5.07627 0.236821 -1.79034e-21)
(5.08674 0.241668 7.47872e-20)
(5.05161 0.248555 -6.12366e-21)
(5.06104 0.254136 -2.35083e-20)
(5.02414 0.257213 0)
(5.03296 0.263478 1.88252e-20)
(4.99357 0.263202 1.08473e-20)
(5.00237 0.270178 0)
(4.95932 0.267045 6.58193e-20)
(4.96887 0.274945 8.79541e-21)
(4.92149 0.269307 -9.31558e-20)
(4.93223 0.278647 -2.36241e-20)
(4.88213 0.270463 -6.71418e-20)
(4.89338 0.282058 -1.04711e-20)
(4.84588 0.271001 5.83473e-20)
(4.85593 0.285687 1.16904e-20)
(4.81865 0.271856 -1.08239e-20)
(4.82555 0.289879 8.99908e-20)
(4.80396 0.274312 -1.42339e-20)
(4.80698 0.295509 -6.21521e-20)
(4.80027 0.277677 3.02948e-20)
(4.79933 0.30284 -4.94805e-20)
(4.80445 0.275901 -3.06359e-20)
(4.79683 0.309728 9.15255e-20)
(4.81771 0.258238 -3.08157e-20)
(4.7949 0.304417 -7.41386e-20)
(4.84791 0.216778 1.07636e-20)
(4.80139 0.279629 0)
(4.8871 0.153589 4.33354e-21)
(4.82803 0.221307 2.54163e-20)
(4.88942 0.079453 -1.02018e-19)
(4.8574 0.150876 -1.9752e-20)
(4.87971 -0.000758648 -1.1979e-19)
(4.81814 0.0679949 -8.12161e-20)
(4.919 -0.0775079 5.1155e-20)
(4.82886 -0.0148289 5.81941e-20)
(4.96675 -0.133596 -9.45634e-20)
(4.8994 -0.0893179 -6.13782e-20)
(4.97573 -0.16828 -2.78855e-19)
(4.94919 -0.139382 -4.55429e-20)
(4.95268 -0.192558 -1.79833e-19)
(4.95091 -0.175672 -4.08801e-20)
(4.92507 -0.214278 -8.60049e-20)
(4.92606 -0.203606 9.75492e-20)
(4.91109 -0.235629 -6.66316e-20)
(4.90285 -0.22951 -2.15801e-19)
(4.91582 -0.256437 -3.73441e-20)
(4.89545 -0.255332 7.99842e-20)
(4.93682 -0.275394 -4.15238e-20)
(4.90624 -0.280069 1.47604e-20)
(4.96887 -0.29061 1.36493e-20)
(4.93279 -0.301802 -6.60208e-21)
(5.00629 -0.299918 3.1097e-20)
(4.97293 -0.317714 3.02253e-20)
(5.04448 -0.301596 -5.8949e-21)
(5.01866 -0.32611 0)
(5.08096 -0.295532 -6.04391e-21)
(5.06337 -0.326103 -7.80273e-20)
(5.11444 -0.282583 0)
(5.10245 -0.318268 7.36683e-20)
(5.14326 -0.264135 -1.21304e-19)
(5.13687 -0.303248 1.45363e-20)
(5.16427 -0.241303 1.03233e-19)
(5.16545 -0.282317 -1.30888e-19)
(5.17341 -0.214698 4.7581e-19)
(5.18571 -0.2577 2.54591e-19)
(5.16984 -0.184456 -4.61238e-19)
(5.19196 -0.229069 1.57005e-19)
(5.16034 -0.148712 -2.20206e-18)
(5.1817 -0.187463 5.6135e-21)
(5.17257 -0.1389 1.06289e-19)
(5.15465 -0.109623 -2.43503e-19)
(5.14705 0.161958 -5.37357e-20)
(5.16229 0.163894 -5.98809e-20)
(5.14332 0.136844 -1.00916e-19)
(5.14474 0.187837 -5.01658e-20)
(5.15791 0.1916 -5.19258e-20)
(5.13456 0.211581 -4.98754e-21)
(5.15004 0.217125 -4.92202e-20)
(5.11696 0.231677 -7.39036e-20)
(5.13201 0.237673 9.65934e-20)
(5.09383 0.247949 -4.44658e-20)
(5.10679 0.25445 -8.24245e-20)
(5.06716 0.26064 -2.81843e-21)
(5.07823 0.267864 1.58995e-20)
(5.03809 0.270071 5.4644e-21)
(5.04792 0.277924 -2.894e-20)
(5.00674 0.276724 1.80896e-20)
(5.01597 0.285064 3.01738e-20)
(4.97284 0.281424 1.98307e-21)
(4.98218 0.290145 2.01464e-21)
(4.93624 0.285231 3.11483e-21)
(4.94646 0.294392 3.87074e-20)
(4.89785 0.289206 4.02183e-21)
(4.90924 0.299165 -3.74861e-20)
(4.86053 0.294134 -8.41333e-21)
(4.87224 0.305585 2.75233e-21)
(4.82896 0.300378 2.34629e-20)
(4.83926 0.314181 -1.03887e-20)
(4.80751 0.308155 1.64803e-19)
(4.81483 0.32479 6.92939e-20)
(4.79656 0.317585 5.01736e-20)
(4.80106 0.337205 1.02999e-19)
(4.79066 0.32702 -6.31366e-21)
(4.79343 0.350289 -1.86707e-19)
(4.78344 0.330268 1.28639e-19)
(4.7829 0.361376 6.28485e-20)
(4.77589 0.316643 -4.35663e-20)
(4.76289 0.359614 -4.31821e-20)
(4.78048 0.276979 1.44071e-20)
(4.74277 0.338516 1.84831e-19)
(4.7986 0.211466 3.48594e-20)
(4.74106 0.280218 1.38801e-19)
(4.78836 0.132356 7.46709e-21)
(4.75322 0.206314 1.38159e-21)
(4.76978 0.0479661 8.64297e-20)
(4.70515 0.118779 1.15585e-19)
(4.81211 -0.035156 8.13535e-21)
(4.7058 0.0328551 4.9198e-20)
(4.88485 -0.102006 -1.12765e-20)
(4.78613 -0.0487882 -8.41147e-21)
(4.92655 -0.149261 1.68556e-19)
(4.86728 -0.110352 8.73625e-20)
(4.92528 -0.185631 2.19837e-19)
(4.90083 -0.161136 7.76085e-20)
(4.90456 -0.217898 -4.39432e-20)
(4.89426 -0.202779 1.3876e-19)
(4.88765 -0.248472 -7.12907e-20)
(4.87537 -0.239103 -3.48814e-19)
(4.88582 -0.278005 1.36556e-19)
(4.86409 -0.274671 -1.82191e-20)
(4.90164 -0.305389 5.50796e-20)
(4.86897 -0.309264 2.28023e-19)
(4.93286 -0.328334 2.60942e-20)
(4.89197 -0.340363 -1.10068e-19)
(4.97465 -0.34483 0)
(4.93291 -0.364774 -5.54827e-20)
(5.02067 -0.352185 -7.02819e-20)
(4.98618 -0.379944 5.48605e-20)
(5.06642 -0.350183 -1.68856e-20)
(5.0412 -0.385168 7.40266e-20)
(5.1092 -0.339654 8.81714e-20)
(5.09095 -0.380882 -1.01565e-19)
(5.14721 -0.321872 5.87577e-21)
(5.13553 -0.367394 -2.54504e-19)
(5.17853 -0.298423 -8.93289e-21)
(5.17379 -0.346191 1.77565e-19)
(5.20025 -0.270778 2.7536e-21)
(5.20451 -0.319875 0)
(5.20935 -0.239391 1.24424e-20)
(5.22352 -0.289397 3.89042e-19)
(5.20808 -0.202936 3.84585e-19)
(5.22586 -0.247564 -7.76665e-19)
(5.22174 -0.194769 7.69682e-19)
(5.20486 -0.162299 4.34692e-19)
(5.17279 0.198974 -5.76396e-20)
(5.18921 0.203216 1.29388e-19)
(5.17652 0.174677 -5.68779e-20)
(5.16061 0.223365 -5.10301e-20)
(5.17574 0.229435 1.22393e-19)
(5.14075 0.24499 9.0232e-20)
(5.15804 0.252876 -1.60424e-19)
(5.11507 0.262679 7.78207e-20)
(5.13123 0.271164 -9.48947e-20)
(5.0857 0.276452 -1.77187e-20)
(5.09916 0.285574 8.34925e-20)
(5.05417 0.286689 -1.22907e-20)
(5.06549 0.296497 3.19526e-20)
(5.02107 0.293799 7.51018e-21)
(5.03104 0.304094 -1.74287e-20)
(4.98651 0.298619 -1.78331e-20)
(4.99588 0.309128 6.15542e-22)
(4.95056 0.302477 3.67603e-20)
(4.96015 0.31294 1.56802e-20)
(4.91369 0.306923 8.2846e-20)
(4.92424 0.31722 -2.00888e-20)
(4.87736 0.313349 -3.95929e-20)
(4.88902 0.323659 1.70462e-20)
(4.84447 0.322543 1.15263e-20)
(4.85639 0.333464 0)
(4.81874 0.33449 4.82016e-20)
(4.82944 0.346964 1.12431e-20)
(4.80218 0.348475 1.61807e-19)
(4.81052 0.363302 2.05897e-20)
(4.79203 0.363272 1.7321e-19)
(4.79877 0.381193 1.24206e-19)
(4.78012 0.376366 -1.37129e-19)
(4.78706 0.397978 -1.53467e-19)
(4.75814 0.3822 -4.95717e-20)
(4.76488 0.410906 -1.35763e-19)
(4.72671 0.371168 1.82856e-19)
(4.72458 0.410447 2.44693e-19)
(4.70213 0.333136 3.49035e-19)
(4.67534 0.392157 -1.30533e-19)
(4.69601 0.265884 1.24329e-19)
(4.64158 0.333923 1.76659e-19)
(4.67261 0.182607 1.25646e-19)
(4.6342 0.257575 1.27445e-20)
(4.64449 0.09389 2.58532e-20)
(4.57784 0.165532 -6.94592e-20)
(4.68377 0.00553921 1.77478e-19)
(4.56706 0.075944 3.49534e-19)
(4.77331 -0.0700136 8.68866e-20)
(4.64891 -0.0109601 -8.05741e-21)
(4.84589 -0.128951 0)
(4.75363 -0.0818817 -2.78505e-19)
(4.87181 -0.177689 0)
(4.81953 -0.146273 -1.53467e-19)
(4.86607 -0.222345 -1.67604e-19)
(4.83763 -0.203545 2.9464e-19)
(4.85272 -0.264122 -2.91367e-19)
(4.83127 -0.252052 -5.87753e-20)
(4.84765 -0.304608 7.63482e-20)
(4.82136 -0.299123 -1.16998e-19)
(4.85906 -0.342738 4.68197e-20)
(4.82282 -0.346023 1.49732e-19)
(4.88878 -0.375538 -1.99303e-19)
(4.84289 -0.389 -6.46326e-21)
(4.93405 -0.400864 4.78615e-21)
(4.88339 -0.424254 -8.42748e-20)
(4.98803 -0.415047 6.3068e-20)
(4.94399 -0.447443 6.00413e-20)
(5.04474 -0.417869 -4.82936e-20)
(5.00969 -0.459068 -1.09477e-21)
(5.09915 -0.409894 -1.92741e-19)
(5.07214 -0.458845 2.75684e-19)
(5.14806 -0.39245 -2.16119e-20)
(5.12966 -0.446657 -1.57628e-19)
(5.18977 -0.367547 1.49015e-19)
(5.1796 -0.424531 1.4546e-19)
(5.22258 -0.337308 3.8134e-19)
(5.221 -0.395364 0)
(5.24399 -0.303332 -7.88079e-19)
(5.25131 -0.360812 8.85254e-19)
(5.25375 -0.265021 1.55413e-18)
(5.26635 -0.316349 -1.23481e-18)
(5.26922 -0.258484 9.11477e-19)
(5.25815 -0.222935 1.09309e-18)
(5.19121 0.239174 -6.48889e-20)
(5.20906 0.245906 1.8752e-19)
(5.20522 0.216524 2.12469e-19)
(5.16924 0.261687 1.76297e-20)
(5.18642 0.270005 3.41236e-19)
(5.14084 0.281063 -1.08712e-19)
(5.15962 0.291424 -1.18893e-19)
(5.10818 0.296331 1.29918e-20)
(5.12507 0.307606 -4.97308e-20)
(5.07332 0.307633 5.69107e-20)
(5.0871 0.31956 -2.07108e-20)
(5.03739 0.315329 2.46832e-20)
(5.04882 0.327857 3.23698e-20)
(5.00096 0.320151 -3.91052e-21)
(5.01093 0.332966 1.87124e-20)
(4.96451 0.323417 -3.45182e-20)
(4.97388 0.336142 -2.77435e-20)
(4.92854 0.326904 -3.98959e-20)
(4.93823 0.339155 1.39261e-20)
(4.89393 0.332475 -8.98785e-20)
(4.90464 0.34398 -1.46494e-20)
(4.8622 0.341622 5.69368e-20)
(4.87402 0.352399 2.14639e-20)
(4.83546 0.354921 0)
(4.84763 0.365442 0)
(4.81552 0.371884 -3.93051e-20)
(4.82703 0.383194 -2.39337e-20)
(4.80159 0.390915 -3.70322e-20)
(4.8118 0.404048 -3.84094e-20)
(4.78844 0.409554 -6.69046e-20)
(4.79819 0.425974 0)
(4.76654 0.424415 -2.28756e-19)
(4.77772 0.444613 1.75307e-20)
(4.72702 0.430492 8.10527e-20)
(4.74015 0.457491 -2.3576e-20)
(4.66984 0.420089 -1.03816e-19)
(4.67831 0.455956 2.21871e-19)
(4.6134 0.382983 -3.20854e-19)
(4.59899 0.438733 1.15483e-19)
(4.58009 0.314089 4.20376e-20)
(4.53003 0.380126 -2.20563e-19)
(4.54236 0.227197 -1.60536e-19)
(4.50112 0.302079 1.23828e-20)
(4.5047 0.133613 1.80804e-19)
(4.43589 0.205448 8.14583e-20)
(4.53748 0.0399907 3.14142e-19)
(4.41392 0.111288 2.55905e-19)
(4.63587 -0.043056 -1.3677e-19)
(4.49215 0.0194376 -3.31562e-19)
(4.73382 -0.112627 -4.25266e-19)
(4.61172 -0.0593363 -3.76245e-19)
(4.7889 -0.174085 3.96923e-20)
(4.70581 -0.136439 -1.46683e-19)
(4.80444 -0.231095 3.94665e-19)
(4.75309 -0.20948 -8.10157e-20)
(4.80103 -0.28522 1.0478e-19)
(4.76594 -0.271357 2.60903e-19)
(4.79701 -0.338724 -3.98873e-20)
(4.76294 -0.332108 0)
(4.80623 -0.390188 1.26967e-19)
(4.76453 -0.394223 5.88703e-20)
(4.83532 -0.43559 1.73368e-19)
(4.78355 -0.452161 -7.62095e-20)
(4.88397 -0.4712 2.79717e-20)
(4.82522 -0.500837 -1.83713e-20)
(4.94669 -0.493756 1.91789e-20)
(4.89236 -0.533932 2.40631e-19)
(5.01621 -0.502503 3.71911e-20)
(4.96878 -0.553068 -2.86179e-19)
(5.08477 -0.497154 2.54151e-20)
(5.04657 -0.556811 -1.27367e-20)
(5.14733 -0.479594 0)
(5.1201 -0.545278 5.41049e-20)
(5.20121 -0.452288 0)
(5.18485 -0.52117 2.63214e-19)
(5.24503 -0.41796 4.9036e-19)
(5.23906 -0.487628 -5.37954e-19)
(5.27714 -0.379051 -3.65868e-19)
(5.28114 -0.446585 2.05264e-19)
(5.29743 -0.33673 5.65857e-20)
(5.30732 -0.396395 1.0447e-19)
(5.3158 -0.331429 5.15142e-19)
(5.31129 -0.291806 7.65367e-19)
(5.20218 0.282293 1.26039e-19)
(5.22189 0.291756 3.10637e-19)
(5.22592 0.261767 -5.39505e-20)
(5.1718 0.302839 1.11959e-19)
(5.19129 0.313584 -4.59208e-21)
(5.13586 0.320094 -5.70938e-20)
(5.15599 0.333293 8.88498e-20)
(5.09688 0.333052 -8.19214e-20)
(5.11433 0.347352 5.29299e-20)
(5.05692 0.341715 -5.22385e-20)
(5.07086 0.356603 1.3691e-20)
(5.01732 0.346826 1.84301e-21)
(5.02879 0.362098 1.34493e-21)
(4.97894 0.349618 4.49229e-21)
(4.98889 0.364851 2.77025e-22)
(4.94257 0.351757 2.55118e-21)
(4.95194 0.366594 4.81182e-20)
(4.90903 0.35533 3.65783e-20)
(4.91885 0.369355 -5.0485e-20)
(4.87909 0.362255 4.95508e-20)
(4.89004 0.375174 3.17662e-20)
(4.85368 0.37386 -3.75362e-20)
(4.86592 0.385679 -4.00864e-20)
(4.83347 0.39046 -2.52235e-20)
(4.84648 0.401459 -2.40578e-20)
(4.8178 0.411125 -2.33433e-20)
(4.83113 0.422476 -1.70925e-20)
(4.80307 0.433593 0)
(4.81656 0.446284 2.22317e-19)
(4.7825 0.454451 8.55617e-20)
(4.79669 0.470774 -1.54175e-19)
(4.74662 0.469536 1.63626e-19)
(4.76281 0.489708 2.92543e-20)
(4.68749 0.474204 9.93288e-20)
(4.70627 0.501242 1.5445e-19)
(4.60418 0.462588 4.36631e-19)
(4.622 0.49651 -1.5231e-19)
(4.51451 0.425113 2.78294e-19)
(4.51297 0.477351 1.39207e-19)
(4.45163 0.354209 -2.75263e-19)
(4.40638 0.417346 1.18009e-19)
(4.39786 0.263878 2.63169e-19)
(4.35444 0.338224 0)
(4.35035 0.164592 1.70651e-19)
(4.27871 0.236202 3.97767e-19)
(4.37545 0.0649395 -8.51819e-20)
(4.24646 0.136688 1.61567e-19)
(4.4768 -0.0254663 -1.06596e-19)
(4.31906 0.0390596 -9.51013e-20)
(4.59317 -0.105064 -1.49157e-19)
(4.44621 -0.0472359 3.16401e-19)
(4.676 -0.178499 -3.2444e-19)
(4.56295 -0.13709 2.5885e-19)
(4.71688 -0.247758 -1.92269e-19)
(4.64044 -0.225386 -5.6222e-19)
(4.72887 -0.315573 1.60138e-19)
(4.67647 -0.30181 3.69537e-19)
(4.73077 -0.384831 7.5213e-20)
(4.68541 -0.380244 0)
(4.74132 -0.452923 -1.76931e-19)
(4.69153 -0.461635 2.87982e-19)
(4.77202 -0.514319 -2.59352e-19)
(4.71304 -0.538969 -3.65246e-19)
(4.82558 -0.562482 -3.66173e-20)
(4.7602 -0.60415 1.13903e-19)
(4.89841 -0.59461 -1.08487e-20)
(4.83469 -0.649197 9.36243e-20)
(4.982 -0.609196 -4.93659e-20)
(4.92312 -0.675812 -1.28561e-20)
(5.06695 -0.605953 1.50954e-20)
(5.01801 -0.681994 4.52836e-19)
(5.14614 -0.587238 3.09183e-19)
(5.10993 -0.669034 -7.18214e-19)
(5.21505 -0.556077 -2.4619e-19)
(5.19261 -0.640394 5.28267e-19)
(5.27145 -0.515725 -8.03658e-19)
(5.26295 -0.599679 -1.51585e-19)
(5.31432 -0.46993 8.42904e-19)
(5.31804 -0.549258 -6.85727e-19)
(5.34412 -0.421544 5.53365e-19)
(5.35421 -0.489823 5.91006e-19)
(5.36743 -0.415081 7.8092e-19)
(5.36646 -0.370935 -1.05626e-18)
(5.20766 0.328791 1.25691e-19)
(5.22933 0.341436 5.68005e-20)
(5.23959 0.310826 7.9579e-20)
(5.16973 0.347353 -5.04379e-20)
(5.19186 0.361148 1.1425e-19)
(5.12655 0.36266 5.37303e-20)
(5.14804 0.379133 -1.13991e-19)
(5.08139 0.373045 7.13099e-20)
(5.09923 0.390727 -4.3342e-21)
(5.03711 0.378789 4.97046e-21)
(5.05099 0.396793 7.34051e-20)
(4.99543 0.381381 -4.61292e-21)
(5.00683 0.399409 -1.18744e-20)
(4.95734 0.38263 4.67783e-20)
(4.96726 0.400171 1.32123e-20)
(4.92369 0.384433 -9.83982e-22)
(4.93307 0.401135 4.63547e-20)
(4.895 0.38876 -4.9303e-20)
(4.90488 0.404353 -5.16751e-20)
(4.87143 0.397347 -4.58396e-21)
(4.88258 0.411615 7.29887e-20)
(4.85277 0.411061 -2.89931e-20)
(4.86542 0.42429 -7.92337e-20)
(4.83775 0.429907 2.91528e-21)
(4.8519 0.442143 -1.70981e-20)
(4.82319 0.452563 2.57423e-19)
(4.83902 0.465271 2.54483e-20)
(4.80307 0.476343 2.2123e-19)
(4.82099 0.490201 2.07517e-19)
(4.77006 0.497278 -2.42617e-19)
(4.79025 0.515512 -2.67403e-19)
(4.716 0.510573 1.69014e-20)
(4.73857 0.533204 -2.19262e-19)
(4.63529 0.512037 -6.40219e-20)
(4.66021 0.542331 -4.67459e-20)
(4.52667 0.496356 -4.81066e-19)
(4.55176 0.532748 -1.39892e-20)
(4.40434 0.457274 -7.55974e-20)
(4.41584 0.508696 -4.81135e-19)
(4.31062 0.384801 3.86774e-19)
(4.2711 0.4458 5.82623e-19)
(4.23898 0.291036 1.20452e-19)
(4.19424 0.365273 2.50939e-20)
(4.18067 0.184674 4.98109e-19)
(4.10515 0.255675 2.57039e-19)
(4.19808 0.0774717 3.85909e-19)
(4.06367 0.150044 -2.00719e-19)
(4.29926 -0.0213432 1.32322e-19)
(4.13126 0.0448717 7.39259e-19)
(4.42822 -0.110964 6.60305e-19)
(4.26197 -0.0497064 3.96076e-19)
(4.53577 -0.196137 3.35701e-19)
(4.3967 -0.154197 7.57707e-20)
(4.6034 -0.277741 -3.1872e-20)
(4.5029 -0.257186 -2.27112e-19)
(4.63509 -0.361444 2.15924e-19)
(4.5628 -0.351648 -3.19479e-19)
(4.64895 -0.450831 2.03299e-19)
(4.58696 -0.455526 2.21274e-19)
(4.66637 -0.540428 -5.80944e-20)
(4.60263 -0.561921 2.02038e-19)
(4.70294 -0.622717 -6.91996e-20)
(4.63251 -0.665249 1.01108e-19)
(4.76466 -0.687191 4.94175e-20)
(4.69213 -0.750011 5.82928e-20)
(4.84875 -0.72892 -6.36055e-20)
(4.78118 -0.807707 -8.27168e-20)
(4.94731 -0.747964 3.01279e-19)
(4.88465 -0.841543 2.04685e-20)
(5.04992 -0.744399 -2.50042e-19)
(4.99807 -0.846743 1.96044e-19)
(5.14754 -0.721385 -3.87917e-19)
(5.1097 -0.827734 -8.57528e-21)
(5.23388 -0.682781 6.30502e-19)
(5.21183 -0.788774 -1.11045e-19)
(5.30562 -0.633254 -6.98781e-20)
(5.29937 -0.735734 2.19652e-19)
(5.36108 -0.577709 -3.3981e-19)
(5.36801 -0.671023 -3.77133e-19)
(5.40014 -0.520166 8.13429e-19)
(5.41421 -0.597289 1.20738e-19)
(5.43277 -0.508881 7.56688e-19)
(5.42964 -0.46007 6.62731e-19)
(5.20968 0.379595 2.2088e-19)
(5.23366 0.396104 9.92846e-20)
(5.24847 0.364317 2.18492e-19)
(5.16415 0.396203 5.89145e-20)
(5.18935 0.413983 -1.13003e-20)
(5.11319 0.409151 -6.24823e-20)
(5.13585 0.42976 -6.22329e-20)
(5.06238 0.416408 8.54044e-21)
(5.08028 0.438225 -4.63796e-20)
(5.01555 0.418988 -3.63374e-21)
(5.0291 0.440655 -1.0991e-20)
(4.97434 0.419304 6.91634e-21)
(4.98563 0.440538 -2.55289e-20)
(4.93935 0.419546 1.41138e-20)
(4.9493 0.4399 1.49985e-20)
(4.91109 0.421797 0)
(4.92072 0.440826 2.2543e-20)
(4.88933 0.427702 8.09332e-20)
(4.89943 0.445283 0)
(4.87297 0.438558 2.48584e-21)
(4.88425 0.454454 7.45236e-20)