/*--------------------------------*- C++ -*----------------------------------*\
  =========                 |
  \\      /  F ield         | OpenFOAM: The Open Source CFD Toolbox
   \\    /   O peration     | Website:  https://openfoam.org
    \\  /    A nd           | Version:  6
     \\/     M anipulation  |
\*---------------------------------------------------------------------------*/
FoamFile
{
    version     2.0;
    format      ascii;
    class       volScalarField;
    location    "4.91";
    object      p;
}
// * * * * * * * * * * * * * * * * * * * * * * * * * * * * * * * * * * * * * //

dimensions      [1 -1 -2 0 0 0 0];

internalField   nonuniform List<scalar> 
5625
(
1.03554
1.0327
1.02828
1.02278
1.01662
1.01016
1.0037
0.997509
0.991767
0.986649
0.982322
0.978918
0.97656
0.975314
0.975154
0.976069
0.978011
0.980705
0.983773
0.986985
0.990128
0.992843
0.994882
0.996322
0.997257
0.997594
0.997389
0.996941
0.996373
0.995638
0.994896
0.994385
0.994092
0.993961
0.994115
0.994591
0.995177
0.995696
0.996152
0.996484
0.996418
0.995686
0.994247
0.99221
0.989647
0.986593
0.983213
0.979881
0.977064
0.975118
0.974171
0.974164
0.974985
0.976601
0.979106
0.982682
0.987502
0.993607
1.00082
1.00872
1.01662
1.02373
1.02928
1.03273
1.03388
1.03288
1.03018
1.0264
1.02214
1.01789
1.014
1.01066
1.00792
1.00577
1.00413
1.03611
1.03405
1.03026
1.02523
1.0194
1.01315
1.00679
1.00057
0.9947
0.989379
0.984748
0.980917
0.978021
0.976144
0.975304
0.975519
0.976724
0.978711
0.981285
0.984283
0.987384
0.990196
0.992598
0.994661
0.996287
0.997323
0.997901
0.998218
0.998245
0.998005
0.997739
0.997565
0.997391
0.99724
0.997244
0.997353
0.997376
0.997256
0.997031
0.996585
0.99566
0.994118
0.992038
0.989559
0.986748
0.983665
0.980513
0.97766
0.975498
0.97427
0.974011
0.974619
0.975987
0.978114
0.981119
0.985186
0.990455
0.996912
1.00431
1.01215
1.01972
1.02623
1.03099
1.03356
1.03387
1.03218
1.02902
1.025
1.02069
1.01654
1.01283
1.00969
1.00716
1.00518
1.0037
1.03634
1.03514
1.03207
1.0276
1.02217
1.01618
1.00997
1.00379
0.997854
0.992357
0.987458
0.983278
0.979917
0.977449
0.975966
0.975503
0.975952
0.977179
0.979142
0.981695
0.984479
0.987207
0.989835
0.992271
0.994267
0.995758
0.996908
0.997761
0.998248
0.998484
0.998648
0.998707
0.99859
0.998417
0.998284
0.998064
0.99763
0.997019
0.996258
0.99519
0.993625
0.991556
0.989138
0.986507
0.983714
0.98084
0.978112
0.975874
0.974435
0.973938
0.974344
0.975531
0.977414
0.980028
0.983513
0.988046
0.993726
1.00047
1.00797
1.01564
1.02275
1.02855
1.03243
1.03409
1.03356
1.03124
1.02768
1.02349
1.0192
1.01518
1.01166
1.00874
1.00642
1.00463
1.00329
1.0362
1.03592
1.03365
1.02982
1.02487
1.01923
1.01323
1.00714
1.00119
0.995578
0.99046
0.98597
0.982201
0.979239
0.977173
0.976018
0.975711
0.976242
0.977584
0.979521
0.981768
0.98422
0.986809
0.98927
0.991371
0.993165
0.994724
0.995935
0.996763
0.997362
0.997791
0.997959
0.997891
0.997733
0.997486
0.997004
0.996244
0.995294
0.994144
0.99264
0.990686
0.988382
0.98591
0.983377
0.98082
0.978342
0.976183
0.974646
0.973954
0.974165
0.975191
0.97691
0.979272
0.982345
0.986287
0.991255
0.997297
1.00426
1.01174
1.01912
1.02565
1.03062
1.03355
1.03427
1.03295
1.03005
1.02617
1.02189
1.01766
1.01382
1.01052
1.00783
1.00572
1.00411
1.00291
1.03562
1.03631
1.03493
1.03183
1.02746
1.02224
1.01651
1.01057
1.00467
0.999011
0.99374
0.988984
0.984858
0.981477
0.978897
0.9771
0.97611
0.975987
0.97664
0.977838
0.979464
0.981506
0.983784
0.986004
0.98807
0.990025
0.991759
0.993116
0.994147
0.994972
0.99554
0.995777
0.995779
0.995638
0.995276
0.994594
0.99364
0.992492
0.991101
0.989357
0.987269
0.984999
0.98271
0.98047
0.978314
0.976364
0.974862
0.974059
0.9741
0.974969
0.976555
0.978756
0.981559
0.985067
0.98944
0.994803
1.00114
1.00822
1.01556
1.02251
1.02832
1.03237
1.0343
1.03408
1.03202
1.02863
1.02452
1.02021
1.01611
1.01247
1.00942
1.00696
1.00506
1.00362
1.00256
1.03457
1.03626
1.03584
1.03357
1.02986
1.02515
1.01978
1.01407
1.00828
1.00262
0.997251
0.992295
0.987895
0.984153
0.981093
0.978737
0.977167
0.976398
0.976299
0.976763
0.977809
0.979357
0.981137
0.982962
0.984833
0.986681
0.988313
0.989661
0.99081
0.991748
0.992355
0.992634
0.992695
0.992546
0.992083
0.99129
0.990267
0.989059
0.98759
0.98581
0.983817
0.98179
0.97985
0.978033
0.976382
0.975042
0.974238
0.974163
0.974887
0.976348
0.978432
0.981064
0.984273
0.988187
0.992957
0.998665
1.00522
1.0123
1.01936
1.02572
1.03067
1.03371
1.03462
1.0335
1.03078
1.027
1.02274
1.01848
1.01456
1.01117
1.00836
1.00614
1.00444
1.00316
1.00223
1.03303
1.03571
1.0363
1.03494
1.03201
1.02789
1.02297
1.01756
1.01196
1.00637
1.00096
0.995879
0.991277
0.987218
0.983735
0.980915
0.978836
0.977446
0.976661
0.976502
0.976964
0.977868
0.979018
0.980382
0.981931
0.983483
0.984878
0.98613
0.987259
0.988141
0.988691
0.988981
0.989074
0.9889
0.988387
0.987596
0.986625
0.985468
0.984059
0.982422
0.980704
0.979066
0.977577
0.976255
0.975165
0.974467
0.974358
0.97497
0.97631
0.97829
0.980805
0.983819
0.987401
0.991692
0.99682
1.00281
1.00947
1.01642
1.02304
1.02865
1.03263
1.0346
1.03448
1.03254
1.02925
1.02518
1.02088
1.01674
1.01304
1.00991
1.00736
1.00538
1.00386
1.00275
1.00193
1.03102
1.03461
1.03624
1.03589
1.03382
1.0304
1.02601
1.02101
1.01567
1.01021
1.00483
0.999707
0.994949
0.99062
0.986812
0.983632
0.98109
0.979127
0.977754
0.977027
0.976858
0.97708
0.977637
0.978538
0.979658
0.980798
0.981889
0.98295
0.9839
0.984611
0.985072
0.985357
0.985448
0.985246
0.984741
0.984029
0.983175
0.982144
0.980907
0.979548
0.978225
0.97705
0.976056
0.975259
0.974748
0.974688
0.975238
0.97647
0.978345
0.980762
0.983646
0.987002
0.990928
0.995562
1.00099
1.00717
1.01383
1.02047
1.02648
1.0312
1.0341
1.03497
1.03388
1.0312
1.02746
1.02322
1.01896
1.01501
1.01157
1.00871
1.00643
1.00467
1.00334
1.00237
1.00167
1.02858
1.03295
1.0356
1.0363
1.0352
1.03258
1.02884
1.02433
1.01933
1.01409
1.00882
1.00372
0.998861
0.99435
0.990316
0.986825
0.983851
0.9814
0.979543
0.978284
0.977509
0.977137
0.97718
0.977582
0.978171
0.978838
0.979587
0.980374
0.981064
0.981578
0.981945
0.982185
0.982221
0.981994
0.981551
0.980976
0.980282
0.979433
0.978449
0.977449
0.976567
0.975873
0.975375
0.975105
0.975167
0.975714
0.976862
0.978631
0.980952
0.983734
0.986932
0.990592
0.994829
0.999766
1.00543
1.01169
1.01818
1.02435
1.02957
1.03325
1.03502
1.03479
1.0328
1.02951
1.02546
1.02117
1.01703
1.01332
1.01016
1.00759
1.00556
1.00402
1.00287
1.00203
1.00143
1.02579
1.03075
1.03434
1.03612
1.03605
1.03435
1.03136
1.02744
1.02287
1.01794
1.01288
1.00784
1.00296
0.998376
0.994177
0.990402
0.987071
0.984259
0.982013
0.980262
0.978936
0.978049
0.977599
0.977468
0.977532
0.977772
0.978177
0.978637
0.979028
0.979331
0.979578
0.979725
0.979688
0.979461
0.979118
0.978703
0.978189
0.977556
0.976876
0.976273
0.975843
0.97561
0.975581
0.97581
0.976413
0.977516
0.979188
0.981406
0.98409
0.987166
0.990631
0.994561
0.999076
1.00426
1.01007
1.01626
1.0224
1.02791
1.03217
1.03471
1.03531
1.03405
1.03129
1.02753
1.0233
1.01906
1.01513
1.01169
1.00884
1.00655
1.00477
1.00343
1.00244
1.00172
1.00121
1.02277
1.02808
1.03245
1.03526
1.03627
1.03559
1.03347
1.03024
1.02622
1.0217
1.01692
1.01204
1.00722
1.00262
0.998309
0.994331
0.99076
0.987674
0.985061
0.982859
0.98108
0.979762
0.978849
0.978225
0.977845
0.977708
0.977747
0.977841
0.977936
0.978047
0.97816
0.978193
0.978091
0.97789
0.977653
0.977384
0.977046
0.976655
0.9763
0.976091
0.976078
0.976266
0.976669
0.977361
0.978457
0.98005
0.982159
0.984735
0.9877
0.991014
0.994708
0.998878
1.00363
1.00898
1.0148
1.02076
1.02636
1.031
1.03416
1.0355
1.03495
1.03277
1.02939
1.02531
1.02104
1.01695
1.01328
1.01016
1.00761
1.0056
1.00406
1.00291
1.00206
1.00146
1.00103
1.01968
1.02505
1.02998
1.03371
1.03581
1.0362
1.03505
1.03264
1.02928
1.02527
1.02085
1.01622
1.01156
1.00701
1.00266
0.998572
0.99485
0.991528
0.988588
0.986041
0.983931
0.982248
0.980909
0.979855
0.979089
0.978588
0.978262
0.978025
0.97787
0.977801
0.977759
0.97767
0.977526
0.977373
0.977234
0.977087
0.976919
0.976773
0.976741
0.976893
0.97725
0.97781
0.978604
0.979715
0.981244
0.983244
0.985701
0.98855
0.99173
0.995234
0.999125
1.0035
1.00842
1.01383
1.01951
1.02504
1.02988
1.03348
1.03543
1.03555
1.03396
1.031
1.02716
1.02294
1.01874
1.01488
1.01152
1.00873
1.00649
1.00474
1.00342
1.00244
1.00173
1.00122
1.00086
1.01667
1.02182
1.02702
1.03147
1.03459
1.03609
1.03599
1.03451
1.03193
1.02854
1.02459
1.02031
1.0159
1.01148
1.00716
1.00306
0.999243
0.995743
0.992576
0.989794
0.987415
0.98539
0.983671
0.982271
0.981191
0.980364
0.979708
0.979193
0.978828
0.978579
0.978374
0.978176
0.978008
0.977905
0.977852
0.977816
0.97781
0.977903
0.978167
0.978636
0.979306
0.980185
0.981323
0.982805
0.9847
0.987026
0.989742
0.992785
0.996122
0.999779
1.00383
1.00836
1.01336
1.0187
1.02404
1.02891
1.03279
1.03521
1.0359
1.03486
1.03235
1.0288
1.02469
1.02047
1.01647
1.01291
1.00988
1.00742
1.00547
1.00398
1.00286
1.00204
1.00144
1.00102
1.00072
1.01387
1.01858
1.02372
1.02863
1.0326
1.03517
1.03618
1.03573
1.03404
1.03138
1.02802
1.02421
1.02013
1.01592
1.01174
1.0077
1.00386
1.00027
0.996966
0.994006
0.99139
0.989088
0.9871
0.985442
0.984084
0.982959
0.982027
0.981293
0.980742
0.980318
0.97997
0.979697
0.979524
0.979454
0.979459
0.979523
0.97968
0.979993
0.980511
0.981238
0.982168
0.98332
0.984757
0.98655
0.988738
0.991304
0.994198
0.997372
1.00082
1.0046
1.00878
1.01338
1.01834
1.02341
1.02819
1.03218
1.03492
1.03606
1.03552
1.03346
1.03023
1.02629
1.02209
1.018
1.01427
1.01105
1.00838
1.00624
1.00457
1.00331
1.00237
1.00168
1.00119
1.00085
1.0006
1.01136
1.01549
1.0203
1.02532
1.0299
1.03342
1.03553
1.03618
1.03548
1.03368
1.03103
1.02778
1.02413
1.02025
1.01631
1.0124
1.00861
1.005
1.00165
0.998578
0.995797
0.993308
0.991129
0.989258
0.987655
0.986286
0.985146
0.984234
0.983517
0.982944
0.982487
0.982162
0.981981
0.981929
0.981979
0.982138
0.98245
0.982957
0.983677
0.984606
0.985744
0.987128
0.988816
0.990857
0.993259
0.995986
0.998988
1.00224
1.00577
1.00963
1.01386
1.01844
1.02318
1.02776
1.03174
1.03465
1.03612
1.03599
1.03433
1.03142
1.02768
1.02356
1.01943
1.01559
1.0122
1.00935
1.00702
1.00519
1.00378
1.00273
1.00195
1.00138
1.00098
1.0007
1.0005
1.00919
1.0127
1.01699
1.0218
1.02662
1.03085
1.03397
1.03573
1.03612
1.03529
1.03348
1.03091
1.0278
1.02436
1.02073
1.01704
1.01339
1.00986
1.00653
1.00342
1.00054
0.997939
0.995627
0.993592
0.991806
0.990264
0.988973
0.987916
0.987052
0.986352
0.985817
0.985461
0.985275
0.985234
0.985324
0.98557
0.986011
0.986672
0.987549
0.988633
0.989941
0.991515
0.993402
0.995625
0.998163
1.00098
1.00403
1.00732
1.01089
1.01478
1.01898
1.02336
1.02767
1.03151
1.03446
1.03614
1.03631
1.03499
1.03238
1.02886
1.02485
1.02073
1.01682
1.0133
1.01029
1.0078
1.00582
1.00427
1.0031
1.00222
1.00159
1.00113
1.0008
1.00057
1.00041
1.00735
1.01026
1.01393
1.01829
1.02302
1.02761
1.03152
1.03432
1.03582
1.03606
1.0352
1.03344
1.031
1.02809
1.02488
1.02152
1.01811
1.01474
1.01149
1.00841
1.00552
1.00288
1.00048
0.998339
0.996438
0.994787
0.993386
0.992208
0.991229
0.990444
0.989862
0.989483
0.989284
0.989246
0.989375
0.989701
0.990249
0.991021
0.992009
0.993212
0.994655
0.996377
0.998406
1.00074
1.00334
1.00618
1.00924
1.01254
1.0161
1.01993
1.02394
1.02792
1.03154
1.03441
1.03616
1.03653
1.03547
1.03313
1.02983
1.02595
1.02187
1.01793
1.01432
1.01119
1.00856
1.00644
1.00477
1.00348
1.00251
1.0018
1.00128
1.00091
1.00065
1.00047
1.00034
1.00582
1.00819
1.01125
1.01502
1.01937
1.02396
1.02831
1.03193
1.03449
1.03584
1.03603
1.0352
1.03356
1.03132
1.02864
1.02569
1.02261
1.01948
1.01641
1.01343
1.01062
1.008
1.00558
1.00339
1.00143
0.999717
0.998241
0.996985
0.995937
0.995102
0.994487
0.994082
0.993869
0.993841
0.994013
0.994406
0.995028
0.995874
0.996937
0.998227
0.999772
1.0016
1.00371
1.00609
1.0087
1.01151
1.01454
1.01778
1.02125
1.02488
1.0285
1.03183
1.03453
1.03623
1.03668
1.0358
1.03367
1.03056
1.02683
1.02283
1.01889
1.01524
1.01201
1.00928
1.00704
1.00525
1.00386
1.0028
1.00202
1.00144
1.00103
1.00073
1.00053
1.00038
1.00028
1.00455
1.00646
1.00896
1.01212
1.01592
1.0202
1.02462
1.02873
1.03212
1.03451
1.03579
1.03601
1.0353
1.03385
1.03183
1.02942
1.02676
1.02398
1.02116
1.01837
1.0157
1.01316
1.01079
1.00862
1.00666
1.00493
1.00342
1.00211
1.00103
1.00018
0.999552
0.99913
0.998909
0.998894
0.999102
0.999545
1.00022
1.00111
1.00222
1.00357
1.00518
1.00705
1.00919
1.01155
1.01411
1.01686
1.01979
1.02291
1.02615
1.02938
1.03237
1.0348
1.03636
1.03679
1.03599
1.03401
1.03107
1.02748
1.02358
1.01968
1.01601
1.01274
1.00992
1.00759
1.00571
1.00423
1.00309
1.00224
1.00161
1.00115
1.00082
1.00059
1.00042
1.00031
1.00023
1.00352
1.00504
1.00706
1.00963
1.01283
1.0166
1.02077
1.02499
1.02888
1.0321
1.0344
1.03569
1.036
1.03547
1.03425
1.03251
1.0304
1.02806
1.02559
1.02309
1.02062
1.01823
1.01598
1.01389
1.01199
1.01028
1.00877
1.00748
1.0064
1.00555
1.00491
1.00448
1.00427
1.00427
1.00451
1.00498
1.00568
1.00659
1.00773
1.00911
1.01074
1.01261
1.01471
1.017
1.01946
1.02208
1.02484
1.02769
1.03051
1.0331
1.0352
1.03653
1.03685
1.03605
1.03416
1.03134
1.02789
1.0241
1.02027
1.01663
1.01334
1.01048
1.00808
1.00612
1.00457
1.00337
1.00245
1.00177
1.00127
1.00091
1.00065
1.00047
1.00034
1.00025
1.00019
1.00269
1.00389
1.00549
1.00756
1.01018
1.01337
1.01706
1.02106
1.02509
1.02879
1.03188
1.03414
1.03549
1.03597
1.03567
1.03474
1.03331
1.03153
1.02953
1.0274
1.02523
1.02309
1.02102
1.01907
1.01727
1.01563
1.01418
1.01293
1.01188
1.01105
1.01042
1.01001
1.00981
1.00984
1.0101
1.01058
1.01128
1.01219
1.01334
1.01471
1.01632
1.01813
1.02013
1.02229
1.02458
1.02697
1.02942
1.03181
1.03397
1.03569
1.03672
1.03685
1.03597
1.0341
1.03138
1.02805
1.02438
1.02064
1.01706
1.01379
1.01092
1.00849
1.00648
1.00488
1.00362
1.00265
1.00192
1.00138
1.00099
1.00071
1.00051
1.00037
1.00027
1.0002
1.00015
1.00203
1.00297
1.00422
1.00587
1.00797
1.01058
1.01371
1.01727
1.0211
1.02492
1.02845
1.03143
1.0337
1.03518
1.03586
1.03584
1.03523
1.03415
1.03274
1.03111
1.02934
1.02752
1.02572
1.02397
1.02234
1.02083
1.01949
1.01831
1.01733
1.01654
1.01595
1.01556
1.01539
1.01544
1.01571
1.01619
1.01687
1.01777
1.01888
1.02021
1.02173
1.02343
1.02526
1.0272
1.02921
1.03124
1.03318
1.03489
1.03619
1.03687
1.03675
1.03573
1.03384
1.03117
1.02795
1.0244
1.02078
1.01729
1.01408
1.01123
1.0088
1.00677
1.00513
1.00383
1.00283
1.00206
1.00149
1.00107
1.00077
1.00055
1.0004
1.00029
1.00021
1.00016
1.00012
1.00152
1.00224
1.00321
1.0045
1.00616
1.00826
1.01083
1.01385
1.01725
1.02087
1.02449
1.02786
1.03077
1.03307
1.03468
1.0356
1.03589
1.03563
1.03494
1.03392
1.03268
1.0313
1.02985
1.02841
1.02701
1.0257
1.0245
1.02346
1.02257
1.02185
1.02132
1.02098
1.02084
1.0209
1.02116
1.02162
1.02228
1.02313
1.02418
1.02539
1.02676
1.02826
1.02983
1.03144
1.03303
1.0345
1.03574
1.03659
1.03688
1.03647
1.03528
1.03333
1.0307
1.02758
1.02417
1.02068
1.01731
1.01419
1.0114
1.009
1.00698
1.00533
1.00401
1.00297
1.00218
1.00158
1.00114
1.00082
1.00059
1.00042
1.00031
1.00023
1.00017
1.00013
1.0001
1.00112
1.00167
1.00242
1.00342
1.00471
1.00636
1.00842
1.0109
1.01378
1.01699
1.0204
1.02381
1.02703
1.02987
1.0322
1.03396
1.03512
1.03572
1.03583
1.03554
1.03493
1.0341
1.03312
1.03207
1.031
1.02996
1.02898
1.02811
1.02737
1.02676
1.02631
1.02603
1.02592
1.026
1.02624
1.02666
1.02726
1.02802
1.02893
1.02997
1.0311
1.03229
1.03348
1.03462
1.03562
1.03638
1.03678
1.03667
1.03596
1.03458
1.03255
1.02995
1.02693
1.02367
1.02034
1.01711
1.01411
1.01142
1.00908
1.00709
1.00546
1.00413
1.00309
1.00228
1.00166
1.0012
1.00086
1.00062
1.00045
1.00032
1.00024
1.00018
1.00013
1.0001
1.00008
1.00082
1.00123
1.0018
1.00257
1.00357
1.00485
1.00646
1.00845
1.01081
1.01352
1.01652
1.0197
1.02289
1.02594
1.0287
1.03106
1.03294
1.03433
1.03523
1.0357
1.03581
1.03561
1.03519
1.03463
1.03398
1.03329
1.0326
1.03197
1.03141
1.03095
1.03061
1.0304
1.03034
1.03041
1.03063
1.03099
1.03148
1.03209
1.03279
1.03356
1.03436
1.03513
1.03582
1.03636
1.03665
1.03661
1.03613
1.03513
1.03357
1.03147
1.02891
1.026
1.0229
1.01975
1.0167
1.01385
1.01128
1.00903
1.00711
1.0055
1.0042
1.00316
1.00235
1.00172
1.00125
1.0009
1.00065
1.00047
1.00034
1.00024
1.00018
1.00014
1.0001
1.00008
1.00006
1.00058
1.0009
1.00133
1.0019
1.00267
1.00366
1.00491
1.00646
1.00834
1.01056
1.01308
1.01585
1.01878
1.02175
1.02462
1.02727
1.02962
1.03159
1.03316
1.03432
1.03512
1.03558
1.03578
1.03576
1.03558
1.03531
1.03499
1.03465
1.03432
1.03405
1.03385
1.03373
1.0337
1.03377
1.03394
1.0342
1.03454
1.03494
1.03537
1.03579
1.03616
1.03643
1.03653
1.03641
1.03597
1.03516
1.03391
1.03221
1.03008
1.02757
1.0248
1.02188
1.01893
1.01608
1.01341
1.01099
1.00885
1.00702
1.00547
1.00421
1.00319
1.00238
1.00176
1.00128
1.00093
1.00067
1.00048
1.00035
1.00025
1.00018
1.00014
1.0001
1.00008
1.00006
1.00005
1.00041
1.00065
1.00097
1.0014
1.00197
1.00273
1.00369
1.00488
1.00635
1.00811
1.01016
1.01247
1.015
1.01768
1.0204
1.02307
1.02559
1.02788
1.02988
1.03156
1.03292
1.03397
1.03474
1.03526
1.03559
1.03576
1.03582
1.03581
1.03576
1.0357
1.03565
1.03563
1.03565
1.0357
1.03579
1.03592
1.03607
1.03621
1.03631
1.03633
1.03624
1.03598
1.0355
1.03475
1.03368
1.03226
1.03047
1.02835
1.02594
1.02333
1.02061
1.01789
1.01526
1.01279
1.01055
1.00855
1.00683
1.00536
1.00415
1.00317
1.00238
1.00177
1.0013
1.00094
1.00068
1.00049
1.00035
1.00025
1.00018
1.00014
1.0001
1.00008
1.00006
1.00005
1.00004
1.00029
1.00046
1.0007
1.00102
1.00145
1.00201
1.00274
1.00365
1.00478
1.00615
1.00777
1.00963
1.01172
1.014
1.01641
1.01888
1.02132
1.02366
1.02584
1.02781
1.02953
1.031
1.03221
1.03319
1.03395
1.03453
1.03496
1.03527
1.03549
1.03565
1.03575
1.03582
1.03588
1.03592
1.03593
1.03591
1.03584
1.03571
1.03547
1.03511
1.03459
1.03386
1.03289
1.03167
1.03015
1.02836
1.0263
1.02404
1.02162
1.01914
1.01667
1.01427
1.01203
1.00997
1.00814
1.00654
1.00518
1.00404
1.0031
1.00235
1.00175
1.00129
1.00094
1.00068
1.00049
1.00035
1.00025
1.00018
1.00013
1.0001
1.00008
1.00006
1.00005
1.00004
1.00003
1.0002
1.00033
1.0005
1.00074
1.00106
1.00147
1.00202
1.00271
1.00356
1.00461
1.00586
1.00732
1.009
1.01086
1.01288
1.01502
1.01722
1.01941
1.02154
1.02356
1.02542
1.0271
1.02858
1.02985
1.03093
1.03182
1.03254
1.03312
1.03357
1.0339
1.03415
1.0343
1.03438
1.03439
1.03432
1.03417
1.03391
1.03354
1.03302
1.03235
1.03149
1.03043
1.02915
1.02764
1.02591
1.02399
1.02191
1.01972
1.0175
1.01528
1.01315
1.01114
1.00929
1.00763
1.00617
1.00492
1.00386
1.00299
1.00228
1.00171
1.00127
1.00093
1.00067
1.00048
1.00035
1.00025
1.00018
1.00013
1.0001
1.00007
1.00006
1.00005
1.00004
1.00003
1.00002
1.00014
1.00023
1.00036
1.00053
1.00076
1.00107
1.00147
1.00198
1.00263
1.00342
1.00437
1.00549
1.0068
1.00828
1.00991
1.01168
1.01354
1.01546
1.01739
1.01928
1.02109
1.02278
1.02434
1.02574
1.02697
1.02804
1.02895
1.0297
1.03029
1.03076
1.03109
1.03131
1.03141
1.0314
1.03126
1.03099
1.03059
1.03005
1.02936
1.02849
1.02744
1.0262
1.02479
1.0232
1.02147
1.01961
1.01768
1.01573
1.01379
1.01191
1.01014
1.00851
1.00704
1.00573
1.0046
1.00363
1.00283
1.00217
1.00164
1.00122
1.0009
1.00065
1.00047
1.00034
1.00024
1.00017
1.00012
1.00009
1.00007
1.00005
1.00004
1.00003
1.00003
1.00002
1.00002
1.0001
1.00016
1.00025
1.00038
1.00055
1.00077
1.00107
1.00145
1.00192
1.00251
1.00322
1.00408
1.00507
1.00621
1.0075
1.00891
1.01043
1.01202
1.01366
1.01532
1.01694
1.01851
1.02
1.02137
1.02262
1.02373
1.02469
1.02551
1.02618
1.02671
1.02709
1.02733
1.02743
1.0274
1.02722
1.0269
1.02643
1.0258
1.02501
1.02407
1.02297
1.02172
1.02033
1.01883
1.01723
1.01557
1.01389
1.01223
1.01062
1.00909
1.00767
1.00638
1.00523
1.00423
1.00336
1.00264
1.00204
1.00155
1.00116
1.00086
1.00062
1.00045
1.00032
1.00023
1.00016
1.00012
1.00008
1.00006
1.00005
1.00004
1.00003
1.00003
1.00002
1.00002
1.00002
1.00007
1.00012
1.00018
1.00027
1.00039
1.00056
1.00077
1.00105
1.00139
1.00183
1.00236
1.00299
1.00374
1.00461
1.00559
1.00669
1.00788
1.00916
1.0105
1.01187
1.01325
1.01461
1.01593
1.01717
1.01833
1.01937
1.0203
1.02109
1.02176
1.02229
1.02267
1.02291
1.02301
1.02296
1.02277
1.02243
1.02195
1.02131
1.02054
1.01962
1.01858
1.01742
1.01616
1.01483
1.01345
1.01205
1.01065
1.0093
1.00801
1.0068
1.00569
1.0047
1.00382
1.00306
1.00241
1.00187
1.00143
1.00108
1.0008
1.00059
1.00042
1.0003
1.00021
1.00015
1.00011
1.00008
1.00006
1.00004
1.00003
1.00003
1.00002
1.00002
1.00002
1.00001
1.00001
1.00005
1.00008
1.00013
1.0002
1.00028
1.0004
1.00055
1.00075
1.00101
1.00132
1.00171
1.00218
1.00273
1.00338
1.00412
1.00495
1.00587
1.00686
1.00792
1.00902
1.01013
1.01126
1.01236
1.01342
1.01442
1.01534
1.01616
1.01688
1.01748
1.01797
1.01832
1.01854
1.01863
1.01858
1.01839
1.01807
1.01761
1.01703
1.01632
1.0155
1.01458
1.01358
1.01251
1.01139
1.01025
1.00911
1.008
1.00693
1.00592
1.00499
1.00414
1.00339
1.00274
1.00217
1.0017
1.00131
1.00099
1.00073
1.00054
1.00039
1.00028
1.00019
1.00013
1.00009
1.00007
1.00005
1.00004
1.00003
1.00002
1.00002
1.00002
1.00001
1.00001
1.00001
1.00001
1.00004
1.00006
1.00009
1.00014
1.00021
1.00029
1.0004
1.00054
1.00073
1.00095
1.00123
1.00157
1.00198
1.00246
1.003
1.00362
1.00432
1.00507
1.00588
1.00673
1.00761
1.0085
1.00938
1.01025
1.01107
1.01183
1.01252
1.01314
1.01365
1.01406
1.01437
1.01455
1.01463
1.01458
1.01441
1.01413
1.01373
1.01322
1.01262
1.01193
1.01116
1.01032
1.00945
1.00855
1.00764
1.00675
1.00588
1.00506
1.00429
1.00359
1.00296
1.0024
1.00192
1.00151
1.00117
1.00089
1.00066
1.00048
1.00035
1.00025
1.00017
1.00012
1.00008
1.00006
1.00004
1.00003
1.00002
1.00002
1.00001
1.00001
1.00001
1.00001
1.00001
1.00001
1.00001
1.00003
1.00005
1.00007
1.0001
1.00015
1.00021
1.00029
1.00039
1.00052
1.00068
1.00089
1.00113
1.00142
1.00177
1.00217
1.00263
1.00314
1.0037
1.00431
1.00495
1.00562
1.00631
1.00699
1.00767
1.00832
1.00893
1.00948
1.00998
1.0104
1.01074
1.01098
1.01114
1.01119
1.01115
1.011
1.01077
1.01043
1.01002
1.00952
1.00896
1.00834
1.00768
1.00699
1.00629
1.00558
1.0049
1.00424
1.00362
1.00305
1.00253
1.00207
1.00166
1.00131
1.00102
1.00078
1.00058
1.00043
1.00031
1.00022
1.00015
1.0001
1.00007
1.00004
1.00003
1.00002
1.00001
1.00001
1.00001
1.00001
1.00001
1.00001
1.00001
1.00001
1.00001
1
1.00002
1.00003
1.00005
1.00008
1.00011
1.00015
1.00021
1.00028
1.00038
1.00049
1.00064
1.00081
1.00102
1.00127
1.00156
1.00189
1.00226
1.00267
1.00312
1.00359
1.00409
1.00461
1.00513
1.00564
1.00614
1.00661
1.00705
1.00743
1.00775
1.00802
1.00821
1.00833
1.00837
1.00833
1.00821
1.00802
1.00775
1.00742
1.00703
1.00659
1.00611
1.00559
1.00507
1.00453
1.004
1.00349
1.003
1.00254
1.00212
1.00174
1.00141
1.00112
1.00087
1.00067
1.0005
1.00037
1.00026
1.00018
1.00012
1.00008
1.00005
1.00003
1.00002
1.00001
1.00001
1.00001
1
1
1
1
1
1
1
1
1
1.00002
1.00003
1.00004
1.00006
1.00008
1.00012
1.00016
1.00021
1.00027
1.00036
1.00046
1.00058
1.00073
1.00091
1.00111
1.00135
1.00162
1.00191
1.00224
1.00258
1.00295
1.00333
1.00371
1.00409
1.00447
1.00482
1.00514
1.00543
1.00568
1.00588
1.00602
1.00611
1.00614
1.00611
1.00601
1.00586
1.00565
1.00539
1.00509
1.00475
1.00438
1.004
1.0036
1.0032
1.00281
1.00243
1.00207
1.00174
1.00144
1.00117
1.00093
1.00073
1.00056
1.00042
1.00031
1.00022
1.00015
1.0001
1.00006
1.00004
1.00002
1.00001
1
1
0.999999
1
1
1
1
1
1
1
1
1
1
1.00001
1.00002
1.00003
1.00004
1.00007
1.00009
1.00012
1.00015
1.0002
1.00026
1.00033
1.00042
1.00052
1.00065
1.0008
1.00096
1.00115
1.00136
1.00159
1.00184
1.0021
1.00237
1.00265
1.00293
1.0032
1.00346
1.0037
1.00391
1.00409
1.00424
1.00434
1.0044
1.00442
1.00439
1.00432
1.0042
1.00404
1.00384
1.00361
1.00336
1.00308
1.0028
1.00251
1.00221
1.00193
1.00165
1.0014
1.00116
1.00095
1.00076
1.0006
1.00046
1.00034
1.00025
1.00017
1.00012
1.00007
1.00004
1.00002
1.00001
1
0.999996
0.999994
0.999995
0.999995
0.999997
0.999998
0.999999
1
1
1
1
1
1
1
1.00001
1.00002
1.00003
1.00004
1.00005
1.00007
1.00009
1.00012
1.00015
1.00019
1.00024
1.00031
1.00038
1.00046
1.00057
1.00068
1.00082
1.00096
1.00113
1.0013
1.00149
1.00168
1.00188
1.00207
1.00227
1.00245
1.00262
1.00278
1.0029
1.00301
1.00308
1.00312
1.00313
1.0031
1.00304
1.00295
1.00283
1.00269
1.00252
1.00233
1.00213
1.00192
1.00171
1.0015
1.00129
1.0011
1.00092
1.00075
1.0006
1.00048
1.00036
1.00027
1.0002
1.00013
1.00009
1.00005
1.00003
1.00001
0.999998
0.999992
0.999989
0.999988
0.999989
0.99999
0.999993
0.999995
0.999997
0.999998
0.999999
1
1
1
1
1
1
1.00001
1.00001
1.00002
1.00003
1.00004
1.00005
1.00007
1.00009
1.00012
1.00015
1.00018
1.00022
1.00028
1.00034
1.00041
1.00049
1.00058
1.00068
1.0008
1.00092
1.00104
1.00118
1.00132
1.00146
1.00159
1.00172
1.00184
1.00194
1.00203
1.0021
1.00215
1.00218
1.00218
1.00216
1.00211
1.00204
1.00195
1.00184
1.00172
1.00158
1.00144
1.00129
1.00113
1.00098
1.00084
1.00071
1.00058
1.00047
1.00037
1.00028
1.00021
1.00015
1.0001
1.00006
1.00003
1.00001
0.999996
0.999988
0.999983
0.999982
0.999983
0.999984
0.999987
0.999989
0.999992
0.999994
0.999996
0.999998
0.999999
1
1
1
1
1
1
1.00001
1.00001
1.00002
1.00002
1.00003
1.00004
1.00006
1.00007
1.00009
1.00011
1.00014
1.00017
1.0002
1.00025
1.0003
1.00035
1.00041
1.00048
1.00056
1.00065
1.00073
1.00082
1.00092
1.00101
1.00111
1.00119
1.00127
1.00134
1.0014
1.00145
1.00148
1.0015
1.00149
1.00148
1.00144
1.00139
1.00132
1.00124
1.00115
1.00105
1.00094
1.00084
1.00073
1.00063
1.00053
1.00043
1.00035
1.00027
1.00021
1.00015
1.0001
1.00006
1.00003
1.00001
0.999997
0.999987
0.999981
0.999978
0.999977
0.999978
0.99998
0.999983
0.999986
0.999989
0.999991
0.999994
0.999996
0.999997
0.999999
0.999999
1
1
1
1
1
1.00001
1.00001
1.00001
1.00002
1.00003
1.00003
1.00004
1.00006
1.00007
1.00009
1.0001
1.00013
1.00015
1.00018
1.00021
1.00026
1.0003
1.00034
1.0004
1.00045
1.00052
1.00058
1.00064
1.0007
1.00076
1.00082
1.00088
1.00092
1.00096
1.00099
1.00101
1.00101
1.00101
1.00099
1.00096
1.00092
1.00087
1.00082
1.00075
1.00068
1.0006
1.00053
1.00046
1.00038
1.00032
1.00025
1.0002
1.00015
1.0001
1.00007
1.00004
1.00002
0.999999
0.999986
0.999978
0.999973
0.999972
0.999972
0.999974
0.999977
0.99998
0.999983
0.999987
0.99999
0.999992
0.999994
0.999996
0.999997
0.999998
0.999999
1
1
1
1
1
1
1.00001
1.00002
1.00002
1.00002
1.00003
1.00003
1.00004
1.00005
1.00007
1.00008
1.0001
1.00012
1.00014
1.00016
1.00018
1.00022
1.00025
1.00029
1.00032
1.00036
1.0004
1.00045
1.00049
1.00052
1.00056
1.0006
1.00063
1.00065
1.00067
1.00068
1.00068
1.00067
1.00065
1.00063
1.0006
1.00056
1.00052
1.00048
1.00043
1.00037
1.00032
1.00027
1.00022
1.00018
1.00014
1.0001
1.00007
1.00004
1.00002
0.999999
0.999986
0.999977
0.999972
0.999969
0.999969
0.999969
0.999972
0.999975
0.999978
0.999982
0.999985
0.999987
0.99999
0.999993
0.999995
0.999996
0.999997
0.999998
0.999999
1
1
1
1
1
1.00001
1
1.00001
1.00001
1.00002
1.00002
1.00003
1.00004
1.00004
1.00005
1.00006
1.00008
1.00009
1.0001
1.00012
1.00014
1.00016
1.00018
1.00021
1.00023
1.00026
1.00028
1.00031
1.00034
1.00036
1.00039
1.0004
1.00042
1.00043
1.00044
1.00045
1.00045
1.00044
1.00043
1.00041
1.00038
1.00036
1.00032
1.00029
1.00026
1.00022
1.00019
1.00015
1.00012
1.00009
1.00006
1.00004
1.00002
1
0.999987
0.999978
0.999971
0.999968
0.999966
0.999966
0.999968
0.99997
0.999973
0.999976
0.99998
0.999984
0.999987
0.99999
0.999992
0.999994
0.999996
0.999997
0.999998
0.999998
0.999999
0.999999
0.999999
1
1
1
1.00001
1.00001
1.00001
1.00001
1.00001
1.00002
1.00002
1.00003
1.00003
1.00004
1.00005
1.00006
1.00007
1.00008
1.00009
1.00011
1.00012
1.00013
1.00015
1.00016
1.00018
1.0002
1.00022
1.00023
1.00025
1.00026
1.00028
1.00029
1.00029
1.00029
1.00029
1.00029
1.00028
1.00027
1.00026
1.00024
1.00022
1.0002
1.00017
1.00015
1.00012
1.0001
1.00007
1.00005
1.00003
1.00001
1
0.999988
0.99998
0.999973
0.999968
0.999966
0.999965
0.999965
0.999967
0.99997
0.999973
0.999977
0.99998
0.999982
0.999985
0.999988
0.999991
0.999993
0.999995
0.999996
0.999997
0.999998
0.999999
0.999999
1
1
1
1
1
1
1.00001
1.00001
1.00001
1.00001
1.00001
1.00002
1.00002
1.00003
1.00003
1.00004
1.00005
1.00005
1.00006
1.00007
1.00008
1.00009
1.0001
1.00011
1.00012
1.00013
1.00014
1.00015
1.00017
1.00017
1.00018
1.00018
1.00019
1.00019
1.00019
1.00019
1.00019
1.00018
1.00017
1.00016
1.00014
1.00013
1.00011
1.0001
1.00008
1.00006
1.00004
1.00003
1.00001
1
0.999991
0.999982
0.999974
0.999969
0.999966
0.999965
0.999965
0.999966
0.999968
0.99997
0.999973
0.999976
0.999979
0.999982
0.999986
0.999988
0.99999
0.999992
0.999994
0.999996
0.999997
0.999998
0.999998
0.999998
0.999999
0.999999
1
1
1
1
1
1
1.00001
1.00001
1.00001
1.00001
1.00002
1.00002
1.00002
1.00003
1.00003
1.00004
1.00004
1.00005
1.00006
1.00006
1.00007
1.00007
1.00008
1.00009
1.0001
1.0001
1.00011
1.00011
1.00012
1.00012
1.00013
1.00013
1.00013
1.00013
1.00012
1.00012
1.00011
1.0001
1.00009
1.00008
1.00007
1.00006
1.00005
1.00003
1.00002
1.00001
1
0.999993
0.999984
0.999978
0.999974
0.99997
0.999968
0.999966
0.999966
0.999967
0.999968
0.999971
0.999974
0.999977
0.99998
0.999983
0.999985
0.999988
0.99999
0.999992
0.999994
0.999995
0.999996
0.999997
0.999998
0.999999
0.999999
0.999999
1
1
1
1
1
1
1
1
1.00001
1.00001
1.00001
1.00001
1.00001
1.00002
1.00002
1.00002
1.00003
1.00003
1.00004
1.00004
1.00005
1.00005
1.00006
1.00006
1.00006
1.00007
1.00008
1.00008
1.00008
1.00008
1.00008
1.00009
1.00009
1.00009
1.00008
1.00008
1.00007
1.00007
1.00006
1.00006
1.00005
1.00004
1.00003
1.00002
1.00001
1
0.999996
0.99999
0.999984
0.999979
0.999975
0.999972
0.99997
0.999969
0.99997
0.999971
0.999972
0.999975
0.999976
0.999978
0.99998
0.999983
0.999986
0.999988
0.99999
0.999992
0.999993
0.999995
0.999997
0.999998
0.999998
0.999998
0.999999
0.999999
1
1
1
1
1
1
1
1.00001
1
1
1
1.00001
1.00001
1.00001
1.00001
1.00002
1.00002
1.00002
1.00002
1.00003
1.00003
1.00003
1.00004
1.00004
1.00005
1.00005
1.00005
1.00005
1.00006
1.00006
1.00006
1.00006
1.00006
1.00006
1.00006
1.00006
1.00005
1.00005
1.00004
1.00004
1.00003
1.00003
1.00002
1.00001
1.00001
1
0.999994
0.999989
0.999984
0.999981
0.999978
0.999976
0.999975
0.999974
0.999973
0.999974
0.999975
0.999976
0.999978
0.999981
0.999984
0.999986
0.999988
0.999989
0.999991
0.999993
0.999994
0.999995
0.999996
0.999997
0.999997
0.999998
0.999999
0.999999