/*--------------------------------*- C++ -*----------------------------------*\
  =========                 |
  \\      /  F ield         | OpenFOAM: The Open Source CFD Toolbox
   \\    /   O peration     | Website:  https://openfoam.org
    \\  /    A nd           | Version:  6
     \\/     M anipulation  |
\*---------------------------------------------------------------------------*/
FoamFile
{
    version     2.0;
    format      ascii;
    class       volScalarField;
    location    "4.68";
    object      T;
}
// * * * * * * * * * * * * * * * * * * * * * * * * * * * * * * * * * * * * * //

dimensions      [0 0 0 1 0 0 0];

internalField   nonuniform List<scalar> 
5625
(
1
1
1
1
1
1
1
1
1
1
1
1
1
1
1
1
1
1
1
1.00001
1.00001
1.00001
1.00001
1.00001
1.00001
1.00001
1.00001
1.00001
1.00001
1.00001
1.00001
1.00001
1.00001
1.00001
1.00001
1.00001
1.00001
1.00001
1.00001
1.00001
1.00001
1.00001
1.00001
1
1
1
1
1
1
1
1
1
1
1
1
1
1
1
1
1
1
1
1
1
1
1
1
1
1
1
1
1
1
1
1
1
1
1
1
1
1
1
1
1
1
1
1
1
1
1
1
1
1.00001
1.00001
1.00001
1.00001
1.00001
1.00001
1.00001
1.00001
1.00001
1.00001
1.00001
1.00001
1.00001
1.00001
1.00001
1.00001
1.00001
1.00001
1.00001
1.00001
1.00001
1.00001
1.00001
1.00001
1.00001
1.00001
1.00001
1.00001
1
1
1
1
1
1
1
1
1
1
1
1
1
1
1
1
1
1
1
1
1
1
1
1
1
1
1
1
1
1
1
1
1
1
1
1
1
1
1
1
1
1
1
1
1
1.00001
1.00001
1.00001
1.00001
1.00001
1.00001
1.00001
1.00001
1.00001
1.00001
1.00001
1.00001
1.00001
1.00001
1.00001
1.00001
1.00001
1.00001
1.00001
1.00001
1.00001
1.00001
1.00001
1.00001
1.00001
1.00001
1.00001
1.00001
1.00001
1.00001
1.00001
1.00001
1
1
1
1
1
1
1
1
1
1
1
1
1
1
1
1
1
1
1
1
1
1
1
1
1
1
1
1
1
1
1
1
1
1
1
1
1
1
1
1
1
1.00001
1.00001
1.00001
1.00001
1.00001
1.00001
1.00001
1.00001
1.00001
1.00001
1.00001
1.00002
1.00002
1.00002
1.00002
1.00002
1.00002
1.00002
1.00002
1.00002
1.00002
1.00002
1.00002
1.00002
1.00002
1.00001
1.00001
1.00001
1.00001
1.00001
1.00001
1.00001
1.00001
1.00001
1.00001
1.00001
1
1
1
1
1
1
1
1
1
1
1
1
1
1
1
1
1
1
1
1
1
1
1
1
1
1
1
1
1
1
1
1
1
1
1
1
1
1
1.00001
1.00001
1.00001
1.00001
1.00001
1.00001
1.00001
1.00001
1.00001
1.00002
1.00002
1.00002
1.00002
1.00002
1.00002
1.00002
1.00002
1.00002
1.00002
1.00002
1.00002
1.00002
1.00002
1.00002
1.00002
1.00002
1.00002
1.00002
1.00002
1.00002
1.00001
1.00001
1.00001
1.00001
1.00001
1.00001
1.00001
1.00001
1
1
1
1
1
1
1
1
1
1
1
1
1
1
1
1
1
1
1
1
1
1
1
1
1
1
1
1
1
1
1
1
1
1
1
1
1.00001
1.00001
1.00001
1.00001
1.00001
1.00001
1.00001
1.00002
1.00002
1.00002
1.00002
1.00002
1.00002
1.00002
1.00002
1.00002
1.00002
1.00002
1.00002
1.00002
1.00002
1.00002
1.00002
1.00002
1.00002
1.00002
1.00002
1.00002
1.00002
1.00002
1.00002
1.00002
1.00002
1.00001
1.00001
1.00001
1.00001
1.00001
1.00001
1.00001
1.00001
1
1
1
1
1
1
1
1
1
1
1
1
1
1
1
1
1
1
1
1
1
1
1
1
1
1
1
1
1
1
1
1
1.00001
1.00001
1.00001
1.00001
1.00001
1.00001
1.00001
1.00002
1.00002
1.00002
1.00002
1.00002
1.00002
1.00002
1.00002
1.00002
1.00002
1.00002
1.00002
1.00002
1.00002
1.00002
1.00002
1.00002
1.00002
1.00002
1.00002
1.00002
1.00002
1.00002
1.00002
1.00002
1.00002
1.00002
1.00002
1.00002
1.00002
1.00001
1.00001
1.00001
1.00001
1.00001
1.00001
1.00001
1
1
1
1
1
1
1
1
1
1
1
1
1
1
1
1
1
1
1
1
1
1
1
1
1
1
1
1
1
1
1.00001
1.00001
1.00001
1.00001
1.00001
1.00001
1.00001
1.00002
1.00002
1.00002
1.00002
1.00002
1.00002
1.00002
1.00002
1.00002
1.00002
1.00003
1.00003
1.00003
1.00003
1.00003
1.00003
1.00003
1.00003
1.00003
1.00003
1.00003
1.00003
1.00003
1.00002
1.00002
1.00002
1.00002
1.00002
1.00002
1.00002
1.00002
1.00002
1.00002
1.00001
1.00001
1.00001
1.00001
1.00001
1.00001
1
1
1
1
1
1
1
1
1
1
1
1
1
1
1
1
1
1
1
1
1
1
1
1
1
1
1
1
1.00001
1.00001
1.00001
1.00001
1.00001
1.00001
1.00002
1.00002
1.00002
1.00002
1.00002
1.00002
1.00002
1.00002
1.00003
1.00003
1.00003
1.00003
1.00003
1.00003
1.00003
1.00003
1.00003
1.00003
1.00003
1.00003
1.00003
1.00003
1.00003
1.00003
1.00003
1.00003
1.00003
1.00003
1.00002
1.00002
1.00002
1.00002
1.00002
1.00002
1.00002
1.00002
1.00001
1.00001
1.00001
1.00001
1.00001
1.00001
1
1
1
1
1
1
1
1
1
1
1
1
1
1
1
1
1
1
1
1
1
1
1
1
1
1
1.00001
1.00001
1.00001
1.00001
1.00001
1.00001
1.00002
1.00002
1.00002
1.00002
1.00002
1.00002
1.00002
1.00003
1.00003
1.00003
1.00003
1.00003
1.00003
1.00003
1.00002
1.00002
1.00002
1.00002
1.00002
1.00002
1.00002
1.00002
1.00002
1.00002
1.00002
1.00003
1.00003
1.00003
1.00003
1.00003
1.00003
1.00003
1.00002
1.00002
1.00002
1.00002
1.00002
1.00002
1.00001
1.00001
1.00001
1.00001
1.00001
1.00001
1
1
1
1
1
1
1
1
1
1
1
1
1
1
1
1
1
1
1
1
1
1
1
1
1.00001
1.00001
1.00001
1.00001
1.00001
1.00002
1.00002
1.00002
1.00002
1.00002
1.00002
1.00002
1.00003
1.00003
1.00003
1.00003
1.00003
1.00003
1.00002
1.00002
1.00002
1.00002
1.00002
1.00002
1.00002
1.00002
1.00002
1.00002
1.00002
1.00002
1.00002
1.00002
1.00002
1.00002
1.00002
1.00003
1.00003
1.00003
1.00003
1.00003
1.00003
1.00002
1.00002
1.00002
1.00002
1.00002
1.00002
1.00001
1.00001
1.00001
1.00001
1.00001
1
1
1
1
1
1
1
1
1
1
1
1
1
1
1
1
1
1
1
1
1
1
1.00001
1.00001
1.00001
1.00001
1.00001
1.00002
1.00002
1.00002
1.00002
1.00002
1.00002
1.00003
1.00003
1.00003
1.00003
1.00003
1.00002
1.00002
1.00002
1.00002
1.00002
1.00002
1.00002
1.00002
1.00002
1.00002
1.00002
1.00002
1.00002
1.00002
1.00002
1.00002
1.00002
1.00002
1.00002
1.00002
1.00002
1.00002
1.00003
1.00003
1.00003
1.00003
1.00003
1.00003
1.00002
1.00002
1.00002
1.00002
1.00002
1.00001
1.00001
1.00001
1.00001
1.00001
1
1
1
1
1
1
1
1
1
1
1
1
1
1
1
1
1
1
1
1
1.00001
1.00001
1.00001
1.00001
1.00001
1.00002
1.00002
1.00002
1.00002
1.00002
1.00003
1.00003
1.00003
1.00003
1.00003
1.00002
1.00002
1.00002
1.00002
1.00002
1.00002
1.00002
1.00002
1.00002
1.00001
1.00001
1.00001
1.00001
1.00001
1.00001
1.00001
1.00001
1.00001
1.00002
1.00002
1.00002
1.00002
1.00002
1.00002
1.00002
1.00002
1.00003
1.00003
1.00003
1.00003
1.00003
1.00002
1.00002
1.00002
1.00002
1.00002
1.00001
1.00001
1.00001
1.00001
1.00001
1
1
1
1
1
1
1
1
1
1
1
1
1
1
1
1
1
1
1
1.00001
1.00001
1.00001
1.00001
1.00002
1.00002
1.00002
1.00002
1.00002
1.00003
1.00003
1.00003
1.00003
1.00003
1.00002
1.00002
1.00002
1.00002
1.00002
1.00002
1.00002
1.00001
1.00001
1.00001
1.00001
1.00001
1.00001
1.00001
1.00001
1.00001
1.00001
1.00001
1.00001
1.00001
1.00001
1.00001
1.00001
1.00002
1.00002
1.00002
1.00002
1.00002
1.00002
1.00003
1.00003
1.00003
1.00003
1.00002
1.00002
1.00002
1.00002
1.00002
1.00001
1.00001
1.00001
1.00001
1.00001
1
1
1
1
1
1
1
1
1
1
1
1
1
1
1
1
1
1.00001
1.00001
1.00001
1.00001
1.00002
1.00002
1.00002
1.00002
1.00002
1.00003
1.00003
1.00003
1.00003
1.00002
1.00002
1.00002
1.00002
1.00002
1.00002
1.00001
1.00001
1.00001
1.00001
1.00001
1.00001
1.00001
1
1
1
1
1
1
1
1.00001
1.00001
1.00001
1.00001
1.00001
1.00001
1.00001
1.00002
1.00002
1.00002
1.00002
1.00002
1.00003
1.00003
1.00003
1.00003
1.00003
1.00002
1.00002
1.00002
1.00002
1.00001
1.00001
1.00001
1.00001
1.00001
1
1
1
1
1
1
1
1
1
1
1
1
1
1
1
1.00001
1.00001
1.00001
1.00001
1.00002
1.00002
1.00002
1.00002
1.00002
1.00003
1.00003
1.00003
1.00003
1.00002
1.00002
1.00002
1.00002
1.00002
1.00001
1.00001
1.00001
1.00001
1.00001
1
1
1
1
1
0.999999
0.999999
0.999999
0.999999
0.999999
0.999999
1
1
1
1
1.00001
1.00001
1.00001
1.00001
1.00001
1.00002
1.00002
1.00002
1.00002
1.00003
1.00003
1.00003
1.00003
1.00003
1.00002
1.00002
1.00002
1.00002
1.00001
1.00001
1.00001
1.00001
1
1
1
1
1
1
1
1
1
1
1
1
1
1
1.00001
1.00001
1.00001
1.00001
1.00001
1.00002
1.00002
1.00002
1.00002
1.00003
1.00003
1.00003
1.00002
1.00002
1.00002
1.00002
1.00002
1.00001
1.00001
1.00001
1.00001
1.00001
1
1
1
0.999998
0.999997
0.999996
0.999995
0.999994
0.999994
0.999994
0.999994
0.999994
0.999995
0.999995
0.999996
0.999998
0.999999
1
1
1
1.00001
1.00001
1.00001
1.00001
1.00002
1.00002
1.00002
1.00003
1.00003
1.00003
1.00003
1.00003
1.00002
1.00002
1.00002
1.00001
1.00001
1.00001
1.00001
1.00001
1
1
1
1
1
1
1
1
1
1
1
1
1
1.00001
1.00001
1.00001
1.00001
1.00002
1.00002
1.00002
1.00002
1.00003
1.00003
1.00003
1.00002
1.00002
1.00002
1.00002
1.00002
1.00001
1.00001
1.00001
1.00001
1
1
0.999999
0.999997
0.999995
0.999994
0.999992
0.999991
0.99999
0.99999
0.999989
0.999989
0.999989
0.99999
0.99999
0.999991
0.999992
0.999993
0.999994
0.999996
0.999998
1
1
1
1.00001
1.00001
1.00001
1.00002
1.00002
1.00002
1.00003
1.00003
1.00003
1.00003
1.00002
1.00002
1.00002
1.00002
1.00001
1.00001
1.00001
1.00001
1.00001
1
1
1
1
1
1
1
1
1
1
1
1
1.00001
1.00001
1.00001
1.00002
1.00002
1.00002
1.00002
1.00003
1.00003
1.00003
1.00002
1.00002
1.00002
1.00002
1.00002
1.00001
1.00001
1.00001
1
1
0.999999
0.999996
0.999994
0.999992
0.99999
0.999989
0.999988
0.999986
0.999986
0.999985
0.999984
0.999984
0.999984
0.999985
0.999985
0.999986
0.999987
0.999988
0.99999
0.999991
0.999993
0.999995
0.999998
1
1
1.00001
1.00001
1.00001
1.00002
1.00002
1.00002
1.00003
1.00003
1.00003
1.00003
1.00002
1.00002
1.00002
1.00002
1.00001
1.00001
1.00001
1.00001
1
1
1
1
1
1
1
1
1
1
1
1
1.00001
1.00001
1.00002
1.00002
1.00002
1.00002
1.00003
1.00003
1.00003
1.00002
1.00002
1.00002
1.00002
1.00001
1.00001
1.00001
1.00001
1
0.999999
0.999997
0.999994
0.999992
0.99999
0.999988
0.999986
0.999984
0.999983
0.999981
0.99998
0.99998
0.999979
0.999979
0.999979
0.99998
0.99998
0.999981
0.999982
0.999984
0.999985
0.999987
0.999989
0.999991
0.999993
0.999996
0.999999
1
1.00001
1.00001
1.00001
1.00002
1.00002
1.00002
1.00003
1.00003
1.00003
1.00003
1.00002
1.00002
1.00002
1.00002
1.00001
1.00001
1.00001
1.00001
1
1
1
1
1
1
1
1
1
1
1
1.00001
1.00001
1.00002
1.00002
1.00002
1.00003
1.00003
1.00003
1.00002
1.00002
1.00002
1.00002
1.00001
1.00001
1.00001
1
1
0.999998
0.999995
0.999993
0.99999
0.999988
0.999985
0.999983
0.999981
0.999979
0.999977
0.999975
0.999974
0.999973
0.999973
0.999973
0.999973
0.999974
0.999974
0.999976
0.999977
0.999979
0.999981
0.999982
0.999984
0.999987
0.999989
0.999992
0.999994
0.999997
1
1
1.00001
1.00001
1.00002
1.00002
1.00002
1.00003
1.00003
1.00003
1.00003
1.00002
1.00002
1.00002
1.00001
1.00001
1.00001
1.00001
1.00001
1
1
1
1
1
1
1
1
1
1
1.00001
1.00002
1.00002
1.00002
1.00003
1.00003
1.00003
1.00003
1.00002
1.00002
1.00002
1.00001
1.00001
1.00001
1
1
0.999997
0.999994
0.999992
0.999989
0.999986
0.999984
0.999981
0.999978
0.999975
0.999973
0.99997
0.999968
0.999966
0.999965
0.999964
0.999964
0.999964
0.999965
0.999967
0.999969
0.999971
0.999973
0.999975
0.999977
0.99998
0.999982
0.999985
0.999987
0.99999
0.999993
0.999997
1
1
1.00001
1.00001
1.00002
1.00002
1.00002
1.00003
1.00003
1.00003
1.00002
1.00002
1.00002
1.00002
1.00001
1.00001
1.00001
1.00001
1
1
1
1
1
1
1
1
1
1
1.00002
1.00002
1.00002
1.00002
1.00003
1.00003
1.00003
1.00002
1.00002
1.00002
1.00001
1.00001
1.00001
1
1
0.999997
0.999994
0.999991
0.999988
0.999985
0.999982
0.999979
0.999975
0.999972
0.999968
0.999964
0.99996
0.999957
0.999954
0.999952
0.999951
0.999951
0.999952
0.999953
0.999956
0.999959
0.999962
0.999965
0.999968
0.999971
0.999974
0.999977
0.99998
0.999983
0.999986
0.999989
0.999993
0.999996
1
1
1.00001
1.00001
1.00002
1.00002
1.00002
1.00003
1.00003
1.00003
1.00002
1.00002
1.00002
1.00001
1.00001
1.00001
1.00001
1.00001
1
1
1
1
1
1
1
1
1
1.00002
1.00002
1.00002
1.00003
1.00003
1.00003
1.00002
1.00002
1.00002
1.00001
1.00001
1.00001
1
1
0.999997
0.999993
0.99999
0.999987
0.999984
0.999981
0.999977
0.999973
0.999968
0.999963
0.999957
0.999951
0.999945
0.999939
0.999935
0.999932
0.99993
0.99993
0.999932
0.999935
0.999939
0.999944
0.999949
0.999954
0.999959
0.999964
0.999968
0.999971
0.999975
0.999978
0.999982
0.999985
0.999988
0.999992
0.999996
1
1.00001
1.00001
1.00001
1.00002
1.00002
1.00003
1.00003
1.00003
1.00002
1.00002
1.00002
1.00002
1.00001
1.00001
1.00001
1.00001
1
1
1
1
1
1
1
1
1
1.00002
1.00002
1.00002
1.00003
1.00003
1.00002
1.00002
1.00002
1.00002
1.00001
1.00001
1
1
0.999997
0.999993
0.99999
0.999987
0.999984
0.999981
0.999976
0.999971
0.999965
0.999958
0.99995
0.99994
0.999931
0.999921
0.999912
0.999905
0.9999
0.999897
0.999897
0.9999
0.999905
0.999912
0.99992
0.999929
0.999937
0.999945
0.999952
0.999959
0.999964
0.999969
0.999973
0.999977
0.999981
0.999984
0.999988
0.999992
0.999996
1
1.00001
1.00001
1.00002
1.00002
1.00002
1.00003
1.00003
1.00003
1.00002
1.00002
1.00002
1.00002
1.00001
1.00001
1.00001
1.00001
1
1
1
1
1
1
1
1
1.00002
1.00002
1.00003
1.00003
1.00002
1.00002
1.00002
1.00002
1.00001
1.00001
1
1
0.999997
0.999994
0.99999
0.999987
0.999984
0.999981
0.999976
0.999971
0.999964
0.999954
0.999943
0.99993
0.999915
0.999899
0.999883
0.999868
0.999856
0.999847
0.999843
0.999843
0.999848
0.999856
0.999868
0.999882
0.999896
0.99991
0.999923
0.999935
0.999945
0.999954
0.999961
0.999966
0.999971
0.999976
0.99998
0.999984
0.999988
0.999993
0.999997
1
1.00001
1.00001
1.00002
1.00002
1.00002
1.00003
1.00003
1.00003
1.00002
1.00002
1.00002
1.00001
1.00001
1.00001
1.00001
1
1
1
1
1
1
1
1
1.00002
1.00003
1.00003
1.00003
1.00002
1.00002
1.00002
1.00001
1.00001
1.00001
1
0.999998
0.999994
0.999991
0.999988
0.999984
0.999981
0.999977
0.999971
0.999963
0.999952
0.999938
0.999919
0.999898
0.999874
0.999848
0.999822
0.999797
0.999777
0.999762
0.999755
0.999755
0.999763
0.999777
0.999796
0.999819
0.999843
0.999867
0.999889
0.999908
0.999925
0.999938
0.999949
0.999958
0.999965
0.99997
0.999975
0.99998
0.999984
0.999989
0.999993
0.999998
1
1.00001
1.00001
1.00002
1.00002
1.00003
1.00003
1.00003
1.00002
1.00002
1.00002
1.00002
1.00001
1.00001
1.00001
1.00001
1
1
1
1
1
1
1
1.00002
1.00003
1.00003
1.00002
1.00002
1.00002
1.00002
1.00001
1.00001
1
0.999999
0.999995
0.999991
0.999988
0.999985
0.999982
0.999978
0.999972
0.999964
0.999952
0.999935
0.999912
0.999883
0.999848
0.999809
0.999767
0.999724
0.999684
0.999651
0.999626
0.999614
0.999614
0.999626
0.99965
0.999682
0.999719
0.999758
0.999797
0.999833
0.999865
0.999892
0.999914
0.999932
0.999945
0.999955
0.999963
0.99997
0.999975
0.99998
0.999985
0.99999
0.999995
1
1.00001
1.00001
1.00002
1.00002
1.00002
1.00003
1.00003
1.00002
1.00002
1.00002
1.00002
1.00001
1.00001
1.00001
1.00001
1
1
1
1
1
1
1
1.00003
1.00003
1.00003
1.00002
1.00002
1.00002
1.00001
1.00001
1
1
0.999996
0.999992
0.999989
0.999986
0.999983
0.99998
0.999974
0.999966
0.999953
0.999934
0.999907
0.999871
0.999825
0.99977
0.999707
0.999639
0.999571
0.999506
0.999452
0.999413
0.999392
0.999392
0.999411
0.999449
0.9995
0.99956
0.999624
0.999688
0.999746
0.999798
0.999842
0.999877
0.999905
0.999926
0.999942
0.999954
0.999963
0.99997
0.999976
0.999981
0.999986
0.999991
0.999997
1
1.00001
1.00001
1.00002
1.00002
1.00003
1.00003
1.00003
1.00002
1.00002
1.00002
1.00001
1.00001
1.00001
1.00001
1
1
1
1
1
1
1
1.00003
1.00003
1.00002
1.00002
1.00002
1.00001
1.00001
1.00001
1
0.999997
0.999993
0.99999
0.999987
0.999985
0.999982
0.999977
0.99997
0.999958
0.999938
0.999908
0.999866
0.999809
0.999737
0.99965
0.99955
0.999443
0.999334
0.999232
0.999145
0.999082
0.999049
0.999048
0.999079
0.999138
0.999219
0.999315
0.999417
0.999517
0.999611
0.999694
0.999764
0.999821
0.999865
0.999898
0.999923
0.99994
0.999953
0.999963
0.99997
0.999976
0.999982
0.999987
0.999993
0.999999
1
1.00001
1.00002
1.00002
1.00002
1.00003
1.00003
1.00002
1.00002
1.00002
1.00002
1.00001
1.00001
1.00001
1.00001
1
1
1
1
1
1
1.00003
1.00002
1.00002
1.00002
1.00002
1.00001
1.00001
1
0.999999
0.999995
0.999991
0.999988
0.999985
0.999983
0.99998
0.999975
0.999964
0.999944
0.999913
0.999867
0.999802
0.999714
0.999602
0.999467
0.999312
0.999144
0.998974
0.998815
0.998679
0.998581
0.998528
0.998526
0.998574
0.998666
0.998793
0.998942
0.999101
0.999259
0.999406
0.999536
0.999645
0.999734
0.999803
0.999856
0.999894
0.999921
0.99994
0.999954
0.999964
0.999971
0.999978
0.999984
0.99999
0.999995
1
1.00001
1.00001
1.00002
1.00002
1.00003
1.00003
1.00003
1.00002
1.00002
1.00002
1.00001
1.00001
1.00001
1.00001
1
1
1
1
1
1
1.00003
1.00002
1.00002
1.00002
1.00001
1.00001
1.00001
1
0.999996
0.999992
0.999989
0.999986
0.999985
0.999982
0.999979
0.999971
0.999954
0.999925
0.999877
0.999806
0.999706
0.999571
0.9994
0.999193
0.998956
0.998699
0.998439
0.998194
0.997986
0.997835
0.997754
0.99775
0.997824
0.997965
0.998159
0.998388
0.998632
0.998874
0.999099
0.999299
0.999468
0.999605
0.999712
0.999792
0.999851
0.999893
0.999921
0.999941
0.999955
0.999965
0.999973
0.99998
0.999986
0.999992
0.999998
1
1.00001
1.00002
1.00002
1.00002
1.00003
1.00003
1.00002
1.00002
1.00002
1.00002
1.00001
1.00001
1.00001
1.00001
1
1
1
1
1
1.00003
1.00002
1.00002
1.00002
1.00001
1.00001
1
0.999999
0.999994
0.99999
0.999987
0.999985
0.999984
0.999982
0.999977
0.999965
0.99994
0.999895
0.999823
0.999715
0.999564
0.999361
0.999104
0.998793
0.998435
0.998048
0.997655
0.997287
0.996975
0.996748
0.996627
0.996622
0.996733
0.996945
0.997236
0.99758
0.997948
0.998312
0.998652
0.998954
0.999209
0.999416
0.999578
0.9997
0.999788
0.999851
0.999895
0.999924
0.999944
0.999958
0.999968
0.999975
0.999982
0.999989
0.999995
1
1.00001
1.00001
1.00002
1.00002
1.00003
1.00003
1.00002
1.00002
1.00002
1.00002
1.00001
1.00001
1.00001
1.00001
1
1
1
1
1
1.00002
1.00002
1.00002
1.00002
1.00001
1.00001
1
0.999996
0.999992
0.999988
0.999986
0.999985
0.999984
0.999982
0.999975
0.999956
0.999918
0.99985
0.999742
0.999583
0.999358
0.999059
0.998678
0.998216
0.997686
0.997112
0.996532
0.99599
0.995532
0.9952
0.995023
0.995017
0.99518
0.995492
0.995921
0.996428
0.99697
0.997509
0.998013
0.99846
0.998838
0.999146
0.999386
0.999567
0.999699
0.999792
0.999857
0.9999
0.999929
0.999948
0.999961
0.999971
0.999978
0.999985
0.999992
0.999999
1.00001
1.00001
1.00002
1.00002
1.00002
1.00003
1.00003
1.00002
1.00002
1.00002
1.00001
1.00001
1.00001
1.00001
1
1
1
1
1
1.00002
1.00002
1.00002
1.00001
1.00001
1
0.999999
0.999994
0.99999
0.999986
0.999985
0.999984
0.999985
0.999983
0.999972
0.999943
0.999885
0.999785
0.999627
0.999394
0.999067
0.998631
0.998075
0.997402
0.99663
0.995798
0.994959
0.994177
0.99352
0.993044
0.992791
0.992783
0.993016
0.993465
0.994083
0.994815
0.9956
0.996382
0.997115
0.997765
0.998317
0.998766
0.999116
0.99938
0.999573
0.99971
0.999803
0.999866
0.999907
0.999934
0.999952
0.999965
0.999974
0.999982
0.999989
0.999996
1
1.00001
1.00002
1.00002
1.00002
1.00003
1.00003
1.00002
1.00002
1.00002
1.00002
1.00001
1.00001
1.00001
1
1
1
1
1
1.00002
1.00002
1.00002
1.00001
1.00001
1
0.999997
0.999992
0.999988
0.999985
0.999984
0.999985
0.999987
0.999983
0.999966
0.999923
0.999838
0.999692
0.999465
0.99913
0.998662
0.998036
0.997239
0.996275
0.995174
0.993991
0.992804
0.991703
0.990778
0.990108
0.989751
0.989737
0.990063
0.990692
0.991565
0.992602
0.993717
0.994831
0.995877
0.996808
0.997598
0.998241
0.998744
0.999123
0.9994
0.999596
0.99973
0.99982
0.999879
0.999917
0.999941
0.999957
0.999969
0.999978
0.999985
0.999993
1
1.00001
1.00001
1.00002
1.00002
1.00002
1.00003
1.00002
1.00002
1.00002
1.00002
1.00001
1.00001
1.00001
1.00001
1
1
1
1
1.00002
1.00002
1.00001
1.00001
1
1
0.999995
0.99999
0.999986
0.999983
0.999984
0.999987
0.99999
0.999984
0.999958
0.999893
0.99977
0.999563
0.999241
0.99877
0.99811
0.997227
0.996104
0.994751
0.993212
0.991567
0.989923
0.988401
0.987122
0.986192
0.985692
0.985664
0.986106
0.986972
0.988179
0.989619
0.991175
0.992733
0.994201
0.99551
0.996624
0.99753
0.99824
0.998775
0.999165
0.999442
0.999631
0.999758
0.99984
0.999893
0.999927
0.999948
0.999963
0.999973
0.999982
0.99999
0.999997
1
1.00001
1.00002
1.00002
1.00002
1.00003
1.00002
1.00002
1.00002
1.00002
1.00001
1.00001
1.00001
1.00001
1
1
1
1
1.00002
1.00002
1.00001
1.00001
1
0.999998
0.999993
0.999988
0.999984
0.999982
0.999984
0.99999
0.999994
0.999985
0.999945
0.999852
0.999677
0.999388
0.998942
0.998288
0.997372
0.996149
0.994597
0.992735
0.99063
0.988391
0.986158
0.98409
0.982345
0.98107
0.980374
0.980319
0.980907
0.982076
0.983716
0.985681
0.98781
0.989951
0.991974
0.993784
0.995326
0.996584
0.997569
0.998312
0.998854
0.999237
0.9995
0.999675
0.999789
0.999862
0.999908
0.999937
0.999956
0.999968
0.999978
0.999987
0.999994
1
1.00001
1.00002
1.00002
1.00002
1.00003
1.00002
1.00002
1.00002
1.00002
1.00001
1.00001
1.00001
1.00001
1
1
1
1
1.00002
1.00002
1.00001
1.00001
1
0.999997
0.999992
0.999987
0.999982
0.999981
0.999986
0.999995
1
0.999984
0.999925
0.999794
0.999552
0.999156
0.998548
0.997657
0.996409
0.994745
0.992642
0.990136
0.987318
0.984328
0.981345
0.978573
0.976224
0.974495
0.973543
0.973452
0.974223
0.975779
0.97797
0.980602
0.983462
0.986346
0.98908
0.991534
0.993633
0.995347
0.996692
0.997707
0.998447
0.99897
0.999329
0.999568
0.999723
0.999822
0.999884
0.999923
0.999947
0.999963
0.999974
0.999983
0.999992
0.999999
1.00001
1.00001
1.00002
1.00002
1.00002
1.00003
1.00002
1.00002
1.00002
1.00002
1.00001
1.00001
1.00001
1
1
1
1
1.00002
1.00001
1.00001
1
1
0.999996
0.99999
0.999984
0.99998
0.99998
0.999988
1
1.00001
0.999982
0.999898
0.999716
0.999389
0.998858
0.998044
0.99685
0.995178
0.992958
0.990171
0.986869
0.98317
0.979245
0.975315
0.971648
0.968531
0.966236
0.964971
0.964845
0.965859
0.967903
0.97078
0.974238
0.978
0.981802
0.985418
0.988676
0.991473
0.993766
0.995569
0.996932
0.997926
0.998629
0.99911
0.999431
0.999639
0.999772
0.999854
0.999905
0.999936
0.999956
0.99997
0.99998
0.999989
0.999997
1
1.00001
1.00002
1.00002
1.00002
1.00003
1.00002
1.00002
1.00002
1.00002
1.00001
1.00001
1.00001
1.00001
1
1
1
1.00002
1.00001
1.00001
1
0.999999
0.999995
0.999989
0.999982
0.999977
0.999979
0.999992
1.00001
1.00001
0.999978
0.99986
0.999614
0.999182
0.998484
0.997413
0.99584
0.993643
0.990742
0.987128
0.982867
0.978095
0.973015
0.967908
0.963134
0.959086
0.956124
0.954511
0.954376
0.955708
0.958358
0.962073
0.966526
0.971367
0.976263
0.980931
0.985154
0.988795
0.991796
0.994165
0.995961
0.997273
0.998201
0.998836
0.99926
0.999535
0.999709
0.999817
0.999883
0.999923
0.999948
0.999965
0.999977
0.999986
0.999995
1
1.00001
1.00002
1.00002
1.00002
1.00002
1.00002
1.00002
1.00002
1.00002
1.00001
1.00001
1.00001
1.00001
1
1
1
1.00002
1.00001
1.00001
1
0.999998
0.999994
0.999988
0.999979
0.999974
0.999979
0.999997
1.00002
1.00002
0.999971
0.999811
0.999488
0.998928
0.998027
0.996641
0.994606
0.991777
0.98807
0.983481
0.978082
0.972018
0.965532
0.959001
0.952919
0.947808
0.944112
0.942139
0.94203
0.94376
0.947142
0.951853
0.957481
0.963583
0.969748
0.975627
0.980962
0.985585
0.989416
0.992457
0.994774
0.996473
0.997676
0.9985
0.99905
0.999406
0.999632
0.999772
0.999857
0.999908
0.999939
0.999959
0.999973
0.999983
0.999992
1
1.00001
1.00001
1.00002
1.00002
1.00002
1.00002
1.00002
1.00002
1.00002
1.00001
1.00001
1.00001
1.00001
1
1
1
1.00002
1.00001
1
1
0.999997
0.999994
0.999987
0.999976
0.99997
0.999979
1
1.00003
1.00004
0.99996
0.999749
0.999335
0.998624
0.997481
0.995719
0.993138
0.989573
0.984938
0.979225
0.972494
0.964894
0.956743
0.948566
0.941026
0.934765
0.930284
0.927916
0.927828
0.930006
0.934237
0.940122
0.947133
0.954707
0.962329
0.96958
0.976159
0.981877
0.986641
0.990448
0.993367
0.995519
0.997047
0.998098
0.998798
0.999252
0.99954
0.999717
0.999825
0.99989
0.999929
0.999953
0.999969
0.99998
0.99999
0.999999
1.00001
1.00001
1.00002
1.00002
1.00002
1.00002
1.00002
1.00002
1.00002
1.00001
1.00001
1.00001
1.00001
1
1
1
1.00002
1.00001
1
0.999999
0.999997
0.999994
0.999986
0.999973
0.999966
0.999979
1.00001
1.00005
1.00005
0.999945
0.999675
0.999156
0.998272
0.996847
0.994648
0.99144
0.987046
0.981371
0.974384
0.966114
0.956733
0.94669
0.936714
0.927631
0.920143
0.914761
0.911857
0.911682
0.914293
0.919477
0.926744
0.935411
0.94474
0.954066
0.962879
0.97084
0.977752
0.983528
0.988171
0.991757
0.994417
0.996317
0.997628
0.998504
0.999072
0.999432
0.999654
0.999789
0.999869
0.999917
0.999946
0.999964
0.999977
0.999988
0.999997
1
1.00001
1.00002
1.00002
1.00002
1.00002
1.00002
1.00002
1.00002
1.00002
1.00001
1.00001
1.00001
1
1
1
1.00001
1.00001
1
0.999997
0.999998
0.999995
0.999984
0.999969
0.999962
0.99998
1.00003
1.00007
1.00006
0.999927
0.999591
0.998956
0.997877
0.996131
0.993439
0.989536
0.984235
0.977423
0.969015
0.959003
0.947631
0.935551
0.92371
0.913018
0.904141
0.897577
0.893815
0.89331
0.896277
0.902519
0.911425
0.9221
0.933563
0.944939
0.955582
0.965101
0.973313
0.980164
0.985688
0.989981
0.993189
0.995497
0.997097
0.998169
0.998867
0.999309
0.999582
0.999747
0.999845
0.999904
0.999938
0.99996
0.999974
0.999985
0.999995
1
1.00001
1.00002
1.00002
1.00002
1.00002
1.00002
1.00002
1.00002
1.00002
1.00001
1.00001
1.00001
1.00001
1
1
1.00001
1.00001
0.999999
0.999996
0.999999
0.999997
0.999983
0.999963
0.999956
0.99998
1.00004
1.00009
1.00008
0.999907
0.999499
0.99874
0.997447
0.995347
0.992116
0.987469
0.981209
0.973178
0.963217
0.951294
0.937799
0.923639
0.909918
0.897489
0.886887
0.878657
0.873579
0.872456
0.875708
0.883134
0.893952
0.907009
0.92103
0.93487
0.947687
0.959006
0.968656
0.97665
0.983083
0.9881
0.991874
0.994608
0.996515
0.997801
0.99864
0.999173
0.999502
0.999701
0.999819
0.999889
0.99993
0.999955
0.999971
0.999983
0.999993
1
1.00001
1.00002
1.00002
1.00002
1.00002
1.00002
1.00002
1.00002
1.00002
1.00001
1.00001
1.00001
1.00001
1
1
1.00001
1
0.999997
0.999996
1
0.999999
0.999982
0.999957
0.999948
0.999981
1.00005
1.00012
1.00009
0.999887
0.999405
0.998516
0.996996
0.994517
0.990717
0.985303
0.978058
0.968751
0.957133
0.943199
0.927556
0.911361
0.895738
0.881317
0.868498
0.85806
0.851284
0.849405
0.852988
0.861733
0.87465
0.890334
0.907225
0.923882
0.939213
0.952602
0.963863
0.973079
0.980446
0.986186
0.990521
0.993682
0.995904
0.99741
0.998398
0.999026
0.999416
0.999651
0.999791
0.999873
0.999921
0.999949
0.999968
0.999981
0.999991
1
1.00001
1.00001
1.00002
1.00002
1.00002
1.00002
1.00002
1.00002
1.00002
1.00001
1.00001
1.00001
1.00001
1
1
1.00001
1
0.999994
0.999995
1
1
0.999981
0.999951
0.99994
0.999981
1.00007
1.00015
1.00011
0.99987
0.999315
0.998295
0.99654
0.993669
0.989294
0.983118
0.974891
0.964285
0.950963
0.93501
0.9173
0.899164
0.881565
0.864821
0.849334
0.836385
0.827902
0.825456
0.829564
0.839706
0.854686
0.872936
0.892704
0.912291
0.930328
0.94599
0.959017
0.969541
0.977864
0.984315
0.98919
0.992761
0.995288
0.997012
0.998148
0.998875
0.999326
0.999599
0.999762
0.999856
0.999911
0.999944
0.999965
0.999979
0.99999
0.999999
1.00001
1.00001
1.00002
1.00002
1.00002
1.00002
1.00002
1.00002
1.00002
1.00001
1.00001
1.00001
1.00001
1
1
1.00001
1
0.999991
0.999994
1
1
0.999981
0.999944
0.99993
0.999979
1.00008
1.00018
1.00014
0.99986
0.999238
0.998091
0.996101
0.992842
0.987909
0.981005
0.971833
0.959947
0.944949
0.927073
0.907462
0.887497
0.867834
0.848524
0.830238
0.814986
0.805283
0.802764
0.807642
0.819093
0.8358
0.856184
0.878455
0.900744
0.921416
0.939388
0.954253
0.966134
0.975423
0.982561
0.98794
0.991888
0.994696
0.996624
0.997903
0.998725
0.999237
0.999547
0.999732
0.99984
0.999902
0.999939
0.999962
0.999977
0.999988
0.999998
1.00001
1.00001
1.00002
1.00002
1.00002
1.00002
1.00002
1.00002
1.00002
1.00001
1.00001
1.00001
1.00001
1
1
1.00001
0.999999
0.999988
0.999992
1.00001
1.00001
0.999983
0.999936
0.999918
0.999974
1.0001
1.00021
1.00016
0.99986
0.999179
0.997916
0.995705
0.992078
0.986627
0.979059
0.969014
0.955925
0.939364
0.919755
0.89847
0.876809
0.855079
0.833245
0.812516
0.79567
0.785541
0.783488
0.78925
0.801714
0.81957
0.841404
0.865531
0.89002
0.913004
0.933124
0.949767
0.962981
0.973208
0.980993
0.986826
0.991106
0.994159
0.996267
0.997674
0.998583
0.999151
0.999498
0.999704
0.999824
0.999893
0.999934
0.999959
0.999975
0.999987
0.999997
1.00001
1.00001
1.00002
1.00002
1.00002
1.00002
1.00002
1.00002
1.00002
1.00001
1.00001
1.00001
1.00001
1
1
1.00001
0.999998
0.999985
0.99999
1.00001
1.00002
0.999985
0.99993
0.999904
0.999966
1.00011
1.00024
1.0002
0.999874
0.999147
0.997786
0.995377
0.99142
0.985515
0.977375
0.966569
0.952413
0.934483
0.913408
0.890718
0.867552
0.843935
0.819981
0.797564
0.780036
0.770194
0.768904
0.775421
0.788457
0.806835
0.829407
0.854691
0.880768
0.905599
0.927554
0.945785
0.960224
0.971314
0.979678
0.9859
0.990453
0.993705
0.995961
0.997475
0.998457
0.999075
0.999453
0.999678
0.999809
0.999885
0.999929
0.999956
0.999973
0.999986
0.999996
1
1.00001
1.00002
1.00002
1.00002
1.00002
1.00002
1.00002
1.00002
1.00001
1.00001
1.00001
1.00001
1
1
1.00002
0.999998
0.999982
0.999987
1.00001
1.00002
0.999991
0.999925
0.999889
0.999953
1.00012
1.00027
1.00024
0.999904
0.999148
0.997714
0.995142
0.990909
0.984632
0.976034
0.964617
0.949592
0.930562
0.908344
0.884556
0.860162
0.835053
0.809661
0.786438
0.768971
0.759755
0.759155
0.766104
0.779282
0.797697
0.820466
0.846325
0.873417
0.899587
0.922982
0.942523
0.958001
0.969827
0.978673
0.985204
0.989961
0.993359
0.995722
0.997315
0.998355
0.999012
0.999415
0.999656
0.999797
0.999879
0.999926
0.999954
0.999972
0.999985
0.999995
1
1.00001
1.00002
1.00002
1.00002
1.00002
1.00002
1.00002
1.00002
1.00001
1.00001
1.00001
1.00001
1
1
1.00002
0.999999
0.999979
0.999982
1.00001
1.00003
0.999999
0.999924
0.999873
0.999934
1.00012
1.00029
1.00028
0.999952
0.999187
0.99771
0.995023
0.990582
0.984031
0.975108
0.96326
0.947615
0.92781
0.904809
0.880265
0.855012
0.828967
0.802915
0.779634
0.762615
0.753955
0.753695
0.76068
0.77369
0.791893
0.814573
0.840612
0.868238
0.895255
0.919652
0.940162
0.956433
0.968821
0.978026
0.984769
0.989655
0.993138
0.995564
0.997206
0.998282
0.998966
0.999387
0.999639
0.999788
0.999873
0.999923
0.999952
0.999971
0.999984
0.999995
1
1.00001
1.00002
1.00002
1.00002
1.00002
1.00002
1.00002
1.00002
1.00001
1.00001
1.00001
1.00001
1
1
1.00002
1
0.999977
0.999977
1.00001
1.00004
1.00001
0.999927
0.999857
0.999909
1.0001
1.00031
1.00033
1.00002
0.999266
0.997782
0.995036
0.990468
0.983748
0.974645
0.96257
0.946591
0.926374
0.90297
0.878035
0.852352
0.825981
0.799978
0.777148
0.76066
0.752266
0.751898
0.758547
0.771196
0.789121
0.811623
0.837619
0.865402
0.892804
0.91775
0.938843
0.955612
0.968354
0.977767
0.984616
0.989548
0.993053
0.995496
0.997153
0.998244
0.998939
0.99937
0.999629
0.999782
0.99987
0.999921
0.999951
0.99997
0.999984
0.999994
1
1.00001
1.00002
1.00002
1.00002
1.00002
1.00002
1.00002
1.00002
1.00001
1.00001
1.00001
1.00001
1
1
1.00002
1
0.999975
0.99997
1
1.00004
1.00003
0.999937
0.999845
0.999878
1.00008
1.00032
1.00037
1.0001
0.999382
0.997933
0.995193
0.990584
0.983805
0.974669