/*--------------------------------*- C++ -*----------------------------------*\
  =========                 |
  \\      /  F ield         | OpenFOAM: The Open Source CFD Toolbox
   \\    /   O peration     | Website:  https://openfoam.org
    \\  /    A nd           | Version:  6
     \\/     M anipulation  |
\*---------------------------------------------------------------------------*/
FoamFile
{
    version     2.0;
    format      ascii;
    class       volScalarField;
    location    "3.65";
    object      rho;
}
// * * * * * * * * * * * * * * * * * * * * * * * * * * * * * * * * * * * * * //

dimensions      [1 -3 0 0 0 0 0];

internalField   nonuniform List<scalar> 
5625
(
1.44978
1.44178
1.43199
1.42117
1.40995
1.39889
1.38843
1.37891
1.37059
1.36363
1.35798
1.35349
1.34994
1.34693
1.34391
1.3405
1.33664
1.3323
1.32722
1.32149
1.31585
1.31088
1.30666
1.30355
1.3023
1.30316
1.30574
1.30949
1.31392
1.31863
1.32341
1.32814
1.3326
1.33653
1.33998
1.34339
1.34728
1.35196
1.35743
1.36372
1.37105
1.37977
1.39016
1.40215
1.41512
1.428
1.4394
1.44801
1.45296
1.45398
1.4515
1.44641
1.4398
1.43268
1.42585
1.41979
1.41474
1.41071
1.40763
1.40535
1.4037
1.40254
1.40173
1.40118
1.40081
1.40056
1.40039
1.40028
1.4002
1.40014
1.4001
1.40008
1.40005
1.40004
1.40003
1.45225
1.44533
1.43637
1.42613
1.41529
1.40442
1.39395
1.38425
1.37561
1.36819
1.36205
1.35719
1.35343
1.35041
1.34775
1.34523
1.34271
1.3399
1.33656
1.33296
1.32952
1.32626
1.32329
1.32117
1.32037
1.32072
1.32191
1.32376
1.3261
1.32874
1.33162
1.33467
1.33772
1.34059
1.34343
1.34669
1.35073
1.35569
1.3615
1.36818
1.37595
1.38512
1.39588
1.40799
1.42073
1.43292
1.44323
1.45046
1.45395
1.45366
1.45017
1.44445
1.43758
1.43049
1.42388
1.41814
1.41342
1.4097
1.40689
1.40482
1.40333
1.40229
1.40157
1.40108
1.40074
1.40052
1.40036
1.40026
1.40019
1.40013
1.4001
1.40007
1.40005
1.40004
1.40003
1.45435
1.44864
1.44065
1.43114
1.42079
1.41019
1.39981
1.39002
1.38113
1.37333
1.36674
1.36139
1.35718
1.35387
1.35126
1.34918
1.34734
1.34537
1.34323
1.34111
1.33902
1.33684
1.33483
1.33347
1.33281
1.3326
1.33277
1.33343
1.33451
1.33591
1.33765
1.33972
1.34195
1.34429
1.34696
1.35034
1.35469
1.36001
1.36618
1.37325
1.38144
1.39102
1.40204
1.41414
1.42645
1.43776
1.44677
1.4525
1.45447
1.45288
1.44846
1.44221
1.43519
1.42822
1.42189
1.41649
1.41212
1.40873
1.40617
1.40431
1.40298
1.40205
1.40141
1.40097
1.40068
1.40047
1.40034
1.40024
1.40017
1.40013
1.40009
1.40007
1.40005
1.40004
1.40003
1.45595
1.45159
1.44472
1.43608
1.42636
1.41616
1.40596
1.39618
1.38713
1.37903
1.37202
1.36616
1.36143
1.35773
1.35492
1.3528
1.35106
1.34947
1.34804
1.34673
1.34534
1.34385
1.34257
1.34164
1.34091
1.34028
1.33995
1.34003
1.34046
1.34122
1.34238
1.34395
1.34583
1.34803
1.35083
1.35453
1.35927
1.36496
1.3715
1.37894
1.38752
1.39743
1.40859
1.42049
1.43215
1.44235
1.4499
1.454
1.45444
1.45161
1.44637
1.43972
1.43265
1.42588
1.41989
1.41487
1.41086
1.40778
1.40549
1.40383
1.40265
1.40183
1.40126
1.40087
1.40061
1.40043
1.40031
1.40022
1.40016
1.40012
1.40009
1.40007
1.40005
1.40004
1.40003
1.45695
1.45405
1.44845
1.44084
1.43189
1.42222
1.41233
1.40268
1.39356
1.38523
1.37785
1.37156
1.36637
1.36219
1.35894
1.35647
1.35455
1.35303
1.35183
1.35079
1.34971
1.34866
1.34777
1.34697
1.34615
1.34541
1.34497
1.34486
1.34503
1.34554
1.3465
1.34794
1.34977
1.35212
1.35524
1.35937
1.36453
1.37058
1.37745
1.38523
1.39414
1.40428
1.41542
1.42691
1.43768
1.44654
1.45246
1.45488
1.45381
1.44985
1.44392
1.43701
1.43001
1.42352
1.4179
1.41329
1.40965
1.40689
1.40485
1.40337
1.40234
1.40162
1.40112
1.40078
1.40055
1.40039
1.40028
1.40021
1.40015
1.40011
1.40008
1.40006
1.40005
1.40003
1.40003
1.45723
1.45589
1.4517
1.44527
1.43726
1.42827
1.41884
1.40942
1.40035
1.39189
1.38427
1.37762
1.37196
1.36727
1.36352
1.36062
1.35838
1.35665
1.35533
1.35423
1.35323
1.35235
1.3516
1.35081
1.35
1.34935
1.34901
1.34889
1.34902
1.34955
1.35059
1.35212
1.35413
1.3568
1.36036
1.36494
1.37048
1.37685
1.38401
1.39208
1.40125
1.41148
1.4224
1.43323
1.44285
1.45017
1.45433
1.45504
1.45255
1.4476
1.44114
1.43413
1.4273
1.42117
1.41597
1.41177
1.4085
1.40604
1.40424
1.40296
1.40205
1.40142
1.40099
1.4007
1.4005
1.40036
1.40026
1.40019
1.40014
1.4001
1.40008
1.40006
1.40004
1.40003
1.40002
1.45668
1.45698
1.45433
1.44925
1.44233
1.43418
1.42535
1.41631
1.40741
1.39897
1.39122
1.38426
1.37818
1.37305
1.36887
1.36549
1.36279
1.3607
1.35909
1.35779
1.35669
1.3558
1.35501
1.35422
1.35351
1.35305
1.35283
1.3528
1.35306
1.35378
1.35505
1.35682
1.35914
1.36222
1.36624
1.37125
1.37712
1.38374
1.39114
1.39944
1.40874
1.41889
1.42936
1.43925
1.44748
1.45305
1.45538
1.45442
1.45064
1.44489
1.43809
1.43112
1.42458
1.41886
1.41411
1.41033
1.40742
1.40526
1.40369
1.40257
1.40179
1.40124
1.40087
1.40062
1.40044
1.40032
1.40024
1.40017
1.40013
1.4001
1.40007
1.40005
1.40004
1.40003
1.40002
1.45525
1.45719
1.45619
1.45259
1.44693
1.4398
1.43174
1.42323
1.41466
1.40636
1.39857
1.39142
1.38506
1.37959
1.37497
1.37109
1.36793
1.36546
1.36351
1.36191
1.36063
1.3596
1.35872
1.35794
1.35737
1.35706
1.35696
1.35709
1.35759
1.3586
1.36015
1.36223
1.36493
1.36845
1.3729
1.37826
1.38438
1.3912
1.39877
1.4072
1.4165
1.42635
1.43609
1.44475
1.45133
1.45503
1.45552
1.453
1.44813
1.44178
1.43484
1.42804
1.42188
1.41662
1.41234
1.40898
1.40642
1.40454
1.40318
1.40222
1.40155
1.40108
1.40077
1.40055
1.4004
1.40029
1.40021
1.40016
1.40012
1.40009
1.40007
1.40005
1.40004
1.40003
1.40002
1.45291
1.45642
1.45711
1.45513
1.45089
1.44495
1.43783
1.43002
1.42193
1.41392
1.40622
1.39903
1.39253
1.38678
1.38176
1.37748
1.37396
1.37111
1.36876
1.36684
1.36533
1.36414
1.36316
1.3624
1.36192
1.36172
1.36175
1.36208
1.36288
1.36421
1.36606
1.36847
1.37156
1.37549
1.3803
1.38591
1.3922
1.39914
1.4068
1.41524
1.42434
1.43363
1.44233
1.44949
1.45423
1.45598
1.4547
1.45081
1.44507
1.43835
1.43145
1.42497
1.41926
1.4145
1.41068
1.40773
1.40551
1.40389
1.40272
1.4019
1.40133
1.40094
1.40067
1.40048
1.40035
1.40026
1.40019
1.40014
1.40011
1.40008
1.40006
1.40005
1.40003
1.40003
1.40002
1.44969
1.45462
1.45698
1.4567
1.45403
1.44944
1.44344
1.43651
1.42908
1.4215
1.41405
1.40697
1.40043
1.3945
1.38923
1.38468
1.38084
1.37761
1.3749
1.37271
1.371
1.36963
1.36854
1.36778
1.36737
1.36725
1.36741
1.36798
1.36907
1.3707
1.37284
1.37556
1.379
1.38328
1.38835
1.3941
1.40046
1.40744
1.41509
1.42338
1.43203
1.44046
1.44782
1.45322
1.45597
1.4558
1.45291
1.44789
1.44155
1.4347
1.42802
1.42196
1.41676
1.41251
1.40915
1.40659
1.40468
1.4033
1.40231
1.40162
1.40114
1.40081
1.40058
1.40042
1.40031
1.40023
1.40017
1.40013
1.4001
1.40007
1.40006
1.40004
1.40003
1.40002
1.40002
1.44568
1.45178
1.4557
1.45714
1.45615
1.45307
1.44836
1.44249
1.4359
1.42893
1.4219
1.41508
1.40863
1.40266
1.39728
1.39255
1.38845
1.38492
1.38196
1.37956
1.37763
1.37609
1.37492
1.37416
1.37378
1.37373
1.37405
1.37485
1.37619
1.37805
1.38044
1.38345
1.38719
1.3917
1.3969
1.40271
1.40905
1.41596
1.42346
1.43138
1.4393
1.44653
1.45225
1.4557
1.45645
1.45448
1.45022
1.44436
1.4377
1.43094
1.42462
1.41907
1.41441
1.41067
1.40776
1.40557
1.40395
1.40278
1.40195
1.40137
1.40097
1.4007
1.4005
1.40037
1.40027
1.40021
1.40016
1.40012
1.40009
1.40007
1.40005
1.40004
1.40003
1.40002
1.40002
1.44105
1.44797
1.45325
1.45633
1.45706
1.45563
1.45238
1.44775
1.44215
1.43598
1.42956
1.42315
1.41693
1.41108
1.40573
1.40092
1.39666
1.39296
1.38985
1.38728
1.38516
1.38348
1.38227
1.3815
1.38114
1.38116
1.38163
1.38263
1.38416
1.38619
1.38878
1.39202
1.39596
1.4006
1.40583
1.41157
1.4178
1.42453
1.43167
1.43894
1.4458
1.45152
1.45535
1.45677
1.45559
1.45206
1.44674
1.44036
1.43365
1.42718
1.42134
1.41635
1.41225
1.40901
1.40652
1.40466
1.4033
1.40232
1.40163
1.40116
1.40082
1.40059
1.40043
1.40032
1.40024
1.40018
1.40014
1.40011
1.40008
1.40006
1.40005
1.40003
1.40003
1.40002
1.40002
1.43605
1.44337
1.44966
1.45421
1.45663
1.45691
1.45526
1.45204
1.44763
1.44244
1.43678
1.43094
1.42514
1.41958
1.41438
1.40961
1.40532
1.40157
1.39837
1.39567
1.39344
1.39171
1.39047
1.38969
1.38933
1.38942
1.39003
1.39117
1.39282
1.39499
1.39772
1.40111
1.40515
1.40979
1.41492
1.4205
1.4265
1.43287
1.43941
1.44572
1.45118
1.4551
1.45691
1.45633
1.45344
1.44866
1.44264
1.43607
1.42955
1.42352
1.41825
1.41384
1.41029
1.40752
1.40541
1.40386
1.40273
1.40192
1.40136
1.40097
1.4007
1.40051
1.40037
1.40028
1.40021
1.40016
1.40012
1.40009
1.40007
1.40005
1.40004
1.40003
1.40002
1.40002
1.40001
1.43097
1.43823
1.44511
1.45081
1.45477
1.45675
1.45679
1.45511
1.45207
1.44803
1.44332
1.43823
1.43302
1.42789
1.42298
1.41839
1.41422
1.41052
1.4073
1.40456
1.40231
1.40057
1.39932
1.39852
1.39819
1.39836
1.39906
1.40029
1.40201
1.40425
1.40708
1.41052
1.41453
1.41905
1.42397
1.42926
1.43486
1.44064
1.44628
1.45128
1.45505
1.45701
1.45681
1.45441
1.45013
1.44448
1.43813
1.43165
1.42552
1.42004
1.41538
1.41156
1.40853
1.4062
1.40445
1.40317
1.40224
1.40158
1.40112
1.40081
1.40058
1.40043
1.40032
1.40024
1.40018
1.40014
1.40011
1.40008
1.40006
1.40005
1.40004
1.40003
1.40002
1.40002
1.40001
1.42605
1.4329
1.43988
1.4463
1.4515
1.45503
1.45675
1.45672
1.4552
1.45248
1.44889
1.44474
1.44028
1.43574
1.43126
1.42701
1.42308
1.41954
1.41641
1.41372
1.41152
1.40981
1.40857
1.4078
1.40751
1.40774
1.40849
1.40974
1.41149
1.41377
1.4166
1.41999
1.42386
1.42812
1.43271
1.43755
1.44254
1.44744
1.45185
1.45525
1.45712
1.45708
1.45503
1.45115
1.44588
1.43978
1.43342
1.42727
1.42168
1.41683
1.41279
1.40954
1.407
1.40506
1.40362
1.40257
1.40182
1.40129
1.40093
1.40067
1.40049
1.40036
1.40027
1.40021
1.40016
1.40012
1.4001
1.40007
1.40006
1.40004
1.40003
1.40003
1.40002
1.40002
1.40001
1.4215
1.42768
1.43435
1.44099
1.44698
1.45178
1.45503
1.45665
1.45673
1.45549
1.4532
1.45016
1.44663
1.44283
1.43897
1.43519
1.43162
1.42834
1.42541
1.42288
1.42079
1.41915
1.41796
1.41723
1.41701
1.41729
1.41805
1.41929
1.42102
1.42326
1.42601
1.42922
1.43281
1.43669
1.44078
1.44498
1.4491
1.4528
1.45568
1.45727
1.45721
1.45533
1.45176
1.44681
1.44099
1.4348
1.42872
1.42309
1.41813
1.41393
1.4105
1.40777
1.40567
1.40409
1.40292
1.40207
1.40147
1.40105
1.40076
1.40055
1.40041
1.40031
1.40023
1.40018
1.40014
1.40011
1.40008
1.40006
1.40005
1.40004
1.40003
1.40002
1.40002
1.40001
1.40001
1.41746
1.42282
1.42888
1.4353
1.44157
1.44718
1.45167
1.45479
1.45645
1.45677
1.45592
1.45415
1.45171
1.44884
1.44575
1.44259
1.43951
1.43662
1.434
1.43172
1.42981
1.42829
1.4272
1.42656
1.42639
1.42669
1.42744
1.42863
1.43029
1.43241
1.43496
1.43786
1.44103
1.44437
1.44777
1.45107
1.45402
1.45627
1.45743
1.45717
1.45533
1.45195
1.44728
1.44173
1.43576
1.42982
1.42423
1.41922
1.41493
1.41136
1.4085
1.40625
1.40454
1.40326
1.40233
1.40166
1.40118
1.40085
1.40061
1.40045
1.40034
1.40026
1.4002
1.40015
1.40012
1.40009
1.40007
1.40006
1.40004
1.40003
1.40003
1.40002
1.40002
1.40001
1.40001
1.41397
1.41847
1.42376
1.42962
1.43573
1.44164
1.44692
1.4512
1.45427
1.45608
1.45672
1.45635
1.45516
1.45338
1.45121
1.44883
1.44639
1.44402
1.44182
1.43987
1.43822
1.43689
1.43595
1.43541
1.4353
1.43559
1.43629
1.4374
1.43892
1.44081
1.44303
1.44548
1.44806
1.45067
1.45316
1.45532
1.45687
1.4575
1.45693
1.455
1.45171
1.44726
1.44198
1.43627
1.43051
1.42503
1.42007
1.41574
1.4121
1.40914
1.40679
1.40497
1.40359
1.40258
1.40184
1.40131
1.40094
1.40068
1.4005
1.40037
1.40028
1.40022
1.40017
1.40013
1.4001
1.40008
1.40006
1.40005
1.40004
1.40003
1.40002
1.40002
1.40001
1.40001
1.40001
1.41102
1.41473
1.41918
1.4243
1.42989
1.43565
1.44121
1.44619
1.45032
1.45343
1.45546
1.45647
1.45661
1.45603
1.45493
1.45347
1.45182
1.4501
1.44843
1.4469
1.44558
1.44452
1.44377
1.44336
1.44329
1.44356
1.44417
1.44513
1.44642
1.44797
1.44971
1.45155
1.45338
1.45507
1.45644
1.45728
1.45734
1.45639
1.45428
1.45102
1.44675
1.44173
1.43628
1.43077
1.42547
1.42061
1.41633
1.41268
1.40967
1.40725
1.40535
1.4039
1.40281
1.40201
1.40144
1.40103
1.40074
1.40054
1.4004
1.4003
1.40023
1.40018
1.40014
1.40011
1.40009
1.40007
1.40005
1.40004
1.40003
1.40003
1.40002
1.40002
1.40001
1.40001
1.40001
1.40858
1.41158
1.41523
1.41954
1.42443
1.4297
1.43508
1.44028
1.44501
1.44902
1.45217
1.45443
1.45584
1.45649
1.45652
1.45608
1.45532
1.45437
1.45334
1.45233
1.45143
1.45069
1.45016
1.44987
1.44984
1.45008
1.45057
1.45131
1.45225
1.45334
1.45448
1.45557
1.4565
1.45713
1.45728
1.45677
1.45542
1.45312
1.44985
1.44572
1.44095
1.43581
1.43058
1.42552
1.42084
1.41666
1.41307
1.41006
1.40761
1.40566
1.40416
1.40302
1.40217
1.40155
1.40111
1.4008
1.40058
1.40043
1.40032
1.40025
1.40019
1.40015
1.40012
1.40009
1.40007
1.40006
1.40005
1.40004
1.40003
1.40002
1.40002
1.40001
1.40001
1.40001
1.40001
1.4066
1.40898
1.41192
1.41546
1.41955
1.42414
1.42904
1.43404
1.43889
1.44334
1.44722
1.45042
1.45288
1.45464
1.45576
1.45635
1.45652
1.45639
1.45606
1.45565
1.45522
1.45484
1.45456
1.45442
1.45443
1.45459
1.45491
1.45536
1.45588
1.45641
1.45685
1.45711
1.45707
1.45662
1.4556
1.45389
1.4514
1.44813
1.44417
1.43966
1.43484
1.42994
1.42517
1.42073
1.41672
1.41324
1.41028
1.40785
1.4059
1.40437
1.40319
1.40231
1.40166
1.40119
1.40085
1.40062
1.40045
1.40034
1.40026
1.4002
1.40016
1.40012
1.4001
1.40008
1.40006
1.40005
1.40004
1.40003
1.40003
1.40002
1.40002
1.40001
1.40001
1.40001
1.40001
1.40502
1.40688
1.4092
1.41203
1.41538
1.41922
1.42347
1.42797
1.43255
1.43702
1.44119
1.44491
1.4481
1.45069
1.45272
1.45421
1.45524
1.45591
1.45629
1.45648
1.45654
1.45654
1.45652
1.45652
1.45656
1.45664
1.45675
1.45686
1.4569
1.45683
1.45656
1.456
1.45507
1.45365
1.45167
1.44907
1.44585
1.44207
1.43786
1.43339
1.42885
1.42443
1.42027
1.4165
1.41318
1.41034
1.40796
1.40603
1.4045
1.40331
1.40241
1.40174
1.40125
1.40089
1.40065
1.40047
1.40035
1.40026
1.4002
1.40016
1.40013
1.4001
1.40008
1.40007
1.40005
1.40004
1.40003
1.40003
1.40002
1.40002
1.40001
1.40001
1.40001
1.40001
1.40001
1.40378
1.40521
1.40702
1.40925
1.41192
1.41504
1.41857
1.42243
1.42651
1.43066
1.43473
1.43857
1.44208
1.44516
1.44778
1.44995
1.45167
1.45301
1.45401
1.45473
1.45525
1.4556
1.45583
1.45596
1.45601
1.45599
1.45589
1.45565
1.45525
1.45463
1.45372
1.45248
1.45082
1.44871
1.44609
1.44299
1.43945
1.43557
1.43149
1.42736
1.42332
1.4195
1.416
1.41289
1.4102
1.40793
1.40607
1.40457
1.40339
1.40248
1.40179
1.40129
1.40093
1.40067
1.40048
1.40036
1.40027
1.40021
1.40016
1.40013
1.4001
1.40008
1.40007
1.40006
1.40005
1.40004
1.40003
1.40002
1.40002
1.40002
1.40001
1.40001
1.40001
1.40001
1.40001
1.40281
1.4039
1.40529
1.40702
1.40911
1.41158
1.41444
1.41762
1.42108
1.42472
1.42842
1.43205
1.43553
1.43874
1.44163
1.44416
1.44631
1.44811
1.44955
1.45069
1.45156
1.45219
1.45262
1.45286
1.45292
1.4528
1.4525
1.45198
1.45122
1.45017
1.44881
1.44709
1.44498
1.44248
1.43959
1.43635
1.43285
1.4292
1.4255
1.42187
1.41842
1.41524
1.41239
1.40989
1.40776
1.40599
1.40454
1.4034
1.4025
1.40182
1.40131
1.40094
1.40068
1.40049
1.40036
1.40027
1.4002
1.40016
1.40013
1.4001
1.40008
1.40007
1.40006
1.40005
1.40004
1.40003
1.40002
1.40002
1.40002
1.40001
1.40001
1.40001
1.40001
1.40001
1.40001
1.40208
1.40289
1.40394
1.40527
1.40688
1.4088
1.41105
1.41361
1.41643
1.41947
1.42265
1.42588
1.42907
1.43213
1.43499
1.43759
1.4399
1.4419
1.44359
1.44497
1.44606
1.44687
1.44743
1.44773
1.44779
1.4476
1.44716
1.44645
1.44546
1.44416
1.44254
1.44059
1.43831
1.43572
1.43286
1.42978
1.42658
1.42333
1.42014
1.41709
1.41426
1.41169
1.40941
1.40745
1.4058
1.40444
1.40334
1.40248
1.40182
1.40132
1.40095
1.40068
1.40049
1.40036
1.40026
1.4002
1.40016
1.40012
1.4001
1.40008
1.40007
1.40006
1.40005
1.40004
1.40003
1.40003
1.40002
1.40002
1.40001
1.40001
1.40001
1.40001
1.40001
1.40001
1.40001
1.40151
1.40213
1.40292
1.40391
1.40513
1.40661
1.40834
1.41034
1.41259
1.41505
1.41766
1.42039
1.42315
1.42587
1.42848
1.43093
1.43317
1.43517
1.4369
1.43835
1.43952
1.4404
1.441
1.44133
1.44139
1.44116
1.44065
1.43985
1.43876
1.43738
1.43571
1.43375
1.43153
1.42908
1.42646
1.42372
1.42095
1.4182
1.41556
1.41308
1.41081
1.40878
1.40702
1.40551
1.40425
1.40323
1.40242
1.40178
1.40129
1.40093
1.40067
1.40048
1.40035
1.40025
1.40019
1.40015
1.40012
1.4001
1.40008
1.40007
1.40006
1.40005
1.40004
1.40003
1.40003
1.40002
1.40002
1.40002
1.40001
1.40001
1.40001
1.40001
1.40001
1.40001
1.40001
1.4011
1.40155
1.40214
1.40288
1.4038
1.40491
1.40622
1.40776
1.4095
1.41143
1.41352
1.41573
1.41801
1.42031
1.42256
1.42472
1.42673
1.42857
1.43018
1.43156
1.43269
1.43356
1.43416
1.43447
1.43451
1.43427
1.43376
1.43297
1.4319
1.43057
1.42899
1.42718
1.42517
1.42301
1.42074
1.41843
1.41612
1.41389
1.41177
1.40981
1.40804
1.40648
1.40513
1.404
1.40306
1.4023
1.4017
1.40124
1.4009
1.40064
1.40046
1.40033
1.40024
1.40018
1.40014
1.40011
1.40009
1.40007
1.40006
1.40005
1.40004
1.40004
1.40003
1.40003
1.40002
1.40002
1.40002
1.40001
1.40001
1.40001
1.40001
1.40001
1.40001
1.40001
1.40001
1.4008
1.40113
1.40156
1.4021
1.40278
1.40361
1.4046
1.40575
1.40708
1.40856
1.41019
1.41192
1.41374
1.4156
1.41746
1.41926
1.42097
1.42255
1.42397
1.4252
1.42621
1.42699
1.42752
1.42781
1.42784
1.42761
1.42713
1.42641
1.42544
1.42425
1.42285
1.42128
1.41956
1.41775
1.41587
1.41399
1.41214
1.41037
1.40872
1.40721
1.40586
1.40468
1.40368
1.40284
1.40215
1.4016
1.40118
1.40085
1.40061
1.40043
1.40031
1.40022
1.40016
1.40012
1.4001
1.40008
1.40006
1.40006
1.40005
1.40004
1.40004
1.40003
1.40003
1.40002
1.40002
1.40002
1.40001
1.40001
1.40001
1.40001
1.40001
1.40001
1.40001
1.40001
1.40001
1.40058
1.40082
1.40113
1.40153
1.40203
1.40263
1.40336
1.40422
1.40521
1.40633
1.40757
1.4089
1.41031
1.41177
1.41324
1.41469
1.41608
1.41738
1.41856
1.41959
1.42044
1.4211
1.42156
1.4218
1.42182
1.42162
1.4212
1.42056
1.41973
1.41872
1.41755
1.41625
1.41484
1.41337
1.41188
1.4104
1.40896
1.40759
1.40633
1.40519
1.40418
1.40331
1.40258
1.40197
1.40147
1.40108
1.40079
1.40056
1.4004
1.40028
1.4002
1.40014
1.40011
1.40008
1.40007
1.40006
1.40005
1.40004
1.40004
1.40003
1.40003
1.40003
1.40002
1.40002
1.40002
1.40001
1.40001
1.40001
1.40001
1.40001
1.40001
1.40001
1.40001
1.40001
1.40001
1.40042
1.4006
1.40082
1.40111
1.40147
1.40191
1.40245
1.40308
1.4038
1.40463
1.40555
1.40655
1.40762
1.40874
1.40987
1.411
1.41209
1.41312
1.41406
1.41488
1.41557
1.41611
1.41647
1.41666
1.41667
1.4165
1.41615
1.41563
1.41494
1.41412
1.41317
1.41213
1.41101
1.40986
1.4087
1.40756
1.40647
1.40544
1.4045
1.40366
1.40292
1.40229
1.40176
1.40132
1.40098
1.40071
1.40051
1.40036
1.40025
1.40017
1.40012
1.40009
1.40007
1.40005
1.40004
1.40004
1.40004
1.40003
1.40003
1.40003
1.40002
1.40002
1.40002
1.40002
1.40001
1.40001
1.40001
1.40001
1.40001
1.40001
1.40001
1.40001
1.40001
1.40001
1.40001
1.40031
1.40044
1.4006
1.40081
1.40107
1.40139
1.40177
1.40223
1.40276
1.40336
1.40404
1.40477
1.40557
1.4064
1.40725
1.4081
1.40894
1.40973
1.41045
1.41109
1.41162
1.41203
1.41232
1.41246
1.41246
1.41232
1.41203
1.41161
1.41106
1.41041
1.40967
1.40886
1.408
1.40712
1.40624
1.40538
1.40457
1.40381
1.40312
1.40251
1.40198
1.40153
1.40116
1.40086
1.40062
1.40044
1.40031
1.40021
1.40014
1.4001
1.40007
1.40005
1.40004
1.40003
1.40003
1.40003
1.40003
1.40002
1.40002
1.40002
1.40002
1.40002
1.40001
1.40001
1.40001
1.40001
1.40001
1.40001
1.40001
1.40001
1.40001
1.40001
1.40001
1.40001
1.40001
1.40023
1.40032
1.40044
1.40059
1.40077
1.401
1.40128
1.4016
1.40199
1.40242
1.40291
1.40344
1.40402
1.40463
1.40526
1.40589
1.4065
1.40709
1.40764
1.40811
1.40851
1.40882
1.40903
1.40914
1.40913
1.40901
1.40878
1.40845
1.40802
1.40752
1.40695
1.40634
1.40569
1.40503
1.40438
1.40375
1.40315
1.4026
1.40211
1.40168
1.4013
1.40099
1.40073
1.40053
1.40038
1.40026
1.40017
1.40011
1.40007
1.40005
1.40003
1.40002
1.40002
1.40002
1.40002
1.40002
1.40002
1.40002
1.40002
1.40002
1.40002
1.40001
1.40001
1.40001
1.40001
1.40001
1.40001
1.40001
1.40001
1.40001
1.40001
1.40001
1.40001
1.40001
1.40001
1.40018
1.40024
1.40033
1.40044
1.40057
1.40073
1.40092
1.40116
1.40143
1.40173
1.40208
1.40247
1.40288
1.40332
1.40377
1.40423
1.40468
1.4051
1.40549
1.40584
1.40613
1.40636
1.40651
1.40658
1.40656
1.40646
1.40628
1.40603
1.4057
1.40532
1.4049
1.40444
1.40396
1.40347
1.403
1.40254
1.40212
1.40173
1.40138
1.40108
1.40082
1.40061
1.40044
1.40031
1.40021
1.40013
1.40008
1.40005
1.40003
1.40001
1.40001
1.40001
1.40001
1.40001
1.40001
1.40001
1.40001
1.40001
1.40001
1.40001
1.40001
1.40001
1.40001
1.40001
1.40001
1.40001
1.40001
1.40001
1.40001
1.40001
1.40001
1.40001
1.40001
1.40001
1.40001
1.40013
1.40019
1.40025
1.40032
1.40042
1.40053
1.40067
1.40084
1.40103
1.40125
1.40149
1.40176
1.40205
1.40236
1.40268
1.403
1.40332
1.40363
1.4039
1.40415
1.40435
1.40451
1.40461
1.40465
1.40463
1.40455
1.40441
1.40422
1.40397
1.40369
1.40337
1.40304
1.40269
1.40234
1.402
1.40168
1.40138
1.40111
1.40087
1.40066
1.40049
1.40035
1.40024
1.40016
1.40009
1.40005
1.40002
1.40001
1.4
1.4
1.4
1.4
1.4
1.4
1.40001
1.40001
1.40001
1.40001
1.40001
1.40001
1.40001
1.40001
1.40001
1.40001
1.40001
1.40001
1.40001
1.40001
1.40001
1.40001
1.40001
1.40001
1.40001
1.40001
1.40001
1.40011
1.40014
1.40019
1.40025
1.40031
1.4004
1.40049
1.40061
1.40074
1.40089
1.40107
1.40125
1.40145
1.40167
1.40189
1.40212
1.40234
1.40254
1.40274
1.40291
1.40305
1.40315
1.40321
1.40324
1.40321
1.40315
1.40304
1.40289
1.40271
1.4025
1.40227
1.40203
1.40178
1.40153
1.40129
1.40107
1.40086
1.40067
1.40051
1.40038
1.40026
1.40018
1.40011
1.40006
1.40002
1.4
1.39999
1.39998
1.39998
1.39998
1.39999
1.39999
1.4
1.4
1.4
1.40001
1.40001
1.40001
1.40001
1.40001
1.40001
1.40001
1.40001
1.40001
1.40001
1.40001
1.40001
1.40001
1.40001
1.40001
1.40001
1.40001
1.40001
1.40001
1.40001
1.40009
1.40012
1.40015
1.40019
1.40024
1.4003
1.40037
1.40045
1.40054
1.40064
1.40076
1.4009
1.40103
1.40118
1.40133
1.40148
1.40163
1.40178
1.4019
1.40201
1.40211
1.40217
1.40221
1.40221
1.40219
1.40214
1.40205
1.40194
1.40181
1.40165
1.40149
1.40132
1.40114
1.40097
1.4008
1.40065
1.40051
1.40038
1.40028
1.40019
1.40012
1.40007
1.40002
1.4
1.39998
1.39997
1.39997
1.39997
1.39997
1.39998
1.39998
1.39999
1.39999
1.4
1.4
1.4
1.40001
1.40001
1.40001
1.40001
1.40001
1.40001
1.40001
1.40001
1.40001
1.40001
1.40001
1.40001
1.40001
1.40001
1.40001
1.40001
1.40001
1.40001
1.40001
1.40007
1.40009
1.40012
1.40015
1.40018
1.40023
1.40028
1.40033
1.4004
1.40047
1.40055
1.40064
1.40074
1.40084
1.40094
1.40103
1.40113
1.40123
1.40131
1.40138
1.40144
1.40148
1.4015
1.40149
1.40147
1.40142
1.40136
1.40128
1.40118
1.40107
1.40095
1.40083
1.4007
1.40058
1.40047
1.40037
1.40027
1.40019
1.40012
1.40007
1.40003
1.4
1.39998
1.39997
1.39996
1.39996
1.39996
1.39996
1.39997
1.39998
1.39998
1.39999
1.39999
1.4
1.4
1.4
1.40001
1.40001
1.40001
1.40001
1.40001
1.40001
1.40001
1.40001
1.40001
1.40001
1.40001
1.40001
1.40001
1.40001
1.40001
1.40001
1.4
1.40001
1.40001
1.40006
1.40007
1.40009
1.40012
1.40014
1.40018
1.40021
1.40025
1.4003
1.40035
1.40041
1.40046
1.40052
1.40059
1.40066
1.40073
1.40079
1.40085
1.4009
1.40094
1.40098
1.401
1.401
1.40099
1.40097
1.40093
1.40088
1.40082
1.40074
1.40066
1.40058
1.4005
1.40041
1.40033
1.40025
1.40019
1.40013
1.40008
1.40003
1.4
1.39998
1.39996
1.39995
1.39995
1.39995
1.39995
1.39996
1.39997
1.39997
1.39998
1.39998
1.39999
1.39999
1.4
1.4
1.4
1.4
1.40001
1.40001
1.40001
1.40001
1.40001
1.40001
1.40001
1.40001
1.40001
1.40001
1.40001
1.40001
1.40001
1.40001
1.40001
1.40001
1.40001
1.40001
1.40005
1.40006
1.40007
1.4001
1.40012
1.40014
1.40016
1.4002
1.40023
1.40026
1.4003
1.40034
1.40038
1.40042
1.40047
1.40051
1.40055
1.40059
1.40062
1.40064
1.40066
1.40066
1.40066
1.40065
1.40063
1.4006
1.40056
1.40051
1.40046
1.4004
1.40034
1.40028
1.40022
1.40017
1.40012
1.40007
1.40003
1.4
1.39998
1.39996
1.39995
1.39994
1.39994
1.39994
1.39995
1.39995
1.39996
1.39997
1.39997
1.39998
1.39999
1.39999
1.4
1.4
1.4
1.4
1.4
1.40001
1.40001
1.40001
1.40001
1.40001
1.40001
1.40001
1.40001
1.40001
1.40001
1.40001
1.40001
1.40001
1.4
1.40001
1.4
1.40001
1.40001
1.40004
1.40005
1.40006
1.40007
1.40009
1.40011
1.40013
1.40015
1.40017
1.4002
1.40022
1.40025
1.40028
1.40031
1.40034
1.40036
1.40038
1.40041
1.40042
1.40044
1.40044
1.40044
1.40043
1.40042
1.4004
1.40038
1.40034
1.40031
1.40027
1.40023
1.40018
1.40014
1.4001
1.40007
1.40003
1.40001
1.39998
1.39996
1.39995
1.39994
1.39994
1.39994
1.39994
1.39995
1.39995
1.39996
1.39996
1.39997
1.39998
1.39998
1.39999
1.39999
1.4
1.4
1.4
1.4
1.4
1.4
1.4
1.40001
1.40001
1.40001
1.40001
1.40001
1.40001
1.40001
1.40001
1.40001
1.40001
1.40001
1.40001
1.40001
1.40001
1.40001
1.40001
1.40003
1.40004
1.40005
1.40007
1.40007
1.40008
1.4001
1.40012
1.40013
1.40015
1.40017
1.40019
1.40021
1.40022
1.40024
1.40026
1.40027
1.40028
1.40029
1.4003
1.4003
1.40029
1.40028
1.40027
1.40025
1.40023
1.4002
1.40018
1.40015
1.40012
1.40009
1.40006
1.40003
1.40001
1.39999
1.39997
1.39996
1.39995
1.39994
1.39994
1.39994
1.39994
1.39994
1.39995
1.39996
1.39996
1.39997
1.39998
1.39998
1.39999
1.39999
1.39999
1.4
1.4
1.4
1.4
1.4
1.4
1.4
1.4
1.4
1.40001
1.40001
1.40001
1.40001
1.40001
1.40001
1.40001
1.40001
1.4
1.4
1.4
1.4
1.40001
1.40001
1.40003
1.40004
1.40004
1.40005
1.40006
1.40007
1.40008
1.40009
1.40011
1.40012
1.40013
1.40014
1.40016
1.40017
1.40018
1.40019
1.4002
1.4002
1.4002
1.4002
1.4002
1.40019
1.40019
1.40017
1.40016
1.40014
1.40012
1.4001
1.40007
1.40005
1.40003
1.40001
1.39999
1.39998
1.39996
1.39995
1.39995
1.39994
1.39994
1.39994
1.39994
1.39995
1.39995
1.39996
1.39996
1.39997
1.39997
1.39998
1.39999
1.39999
1.39999
1.4
1.4
1.4
1.4
1.4
1.4
1.4
1.4
1.40001
1.40001
1.40001
1.40001
1.4
1.4
1.4
1.40001
1.40001
1.40001
1.40001
1.40001
1.40001
1.40001
1.40001
1.40001
1.40002
1.40003
1.40004
1.40004
1.40004
1.40006
1.40007
1.40008
1.40008
1.40009
1.4001
1.40011
1.40012
1.40013
1.40014
1.40014
1.40014
1.40014
1.40014
1.40014
1.40014
1.40013
1.40012
1.40011
1.4001
1.40008
1.40007
1.40005
1.40003
1.40002
1.4
1.39999
1.39997
1.39996
1.39996
1.39995
1.39995
1.39994
1.39994
1.39995
1.39995
1.39995
1.39996
1.39996
1.39997
1.39998
1.39998
1.39998
1.39999
1.39999
1.39999
1.4
1.4
1.4
1.4
1.4
1.4
1.4
1.4
1.4
1.40001
1.40001
1.40001
1.40001
1.40001
1.40001
1.40001
1.4
1.4
1.4
1.4
1.4
1.40001
1.40001
1.40001
1.40002
1.40002
1.40003
1.40003
1.40004
1.40004
1.40005
1.40006
1.40007
1.40007
1.40008
1.40009
1.40009
1.4001
1.4001
1.40011
1.40011
1.40011
1.4001
1.4001
1.4001
1.40009
1.40008
1.40007
1.40006
1.40005
1.40003
1.40002
1.40001
1.4
1.39999
1.39998
1.39997
1.39996
1.39995
1.39995
1.39995
1.39995
1.39995
1.39995
1.39996
1.39996
1.39997
1.39997
1.39998
1.39998
1.39998
1.39999
1.39999
1.39999
1.4
1.4
1.4
1.4
1.4
1.4
1.4
1.4
1.4
1.4
1.4
1.4
1.40001
1.40001
1.40001
1.40001
1.40001
1.40001
1.40001
1.40001
1.40001
1.40001
1.40001
1.40001
1.4
1.40002
1.40002
1.40002
1.40003
1.40003
1.40004
1.40004
1.40005
1.40005
1.40006
1.40006
1.40007
1.40007
1.40008
1.40008
1.40008
1.40008
1.40008
1.40008
1.40007
1.40006
1.40006
1.40005
1.40005
1.40004
1.40003
1.40002
1.40001
1.4
1.39999
1.39998
1.39997
1.39997
1.39996
1.39996
1.39996
1.39996
1.39996
1.39996
1.39996
1.39997
1.39997
1.39997
1.39998
1.39998
1.39998
1.39999
1.39999
1.39999
1.4
1.4
1.4
1.4
1.4
1.4
1.4
1.4
1.4
1.4
1.40001
1.40001
1.4
1.4
1.4
1.4
1.4
1.40001
1.40001
1.40001
1.40001
1.40001
1.40001
1.40001
1.40001
1.40001
1.40001
1.40001
1.40002
1.40002
1.40003
1.40003
1.40003
1.40004
1.40004
1.40005
1.40005
1.40005
1.40006
1.40006
1.40006
1.40006
1.40006
1.40006
1.40006
1.40005
1.40005
1.40004
1.40004
1.40003
1.40002
1.40002
1.40001
1.4
1.39999
1.39998
1.39998
1.39997
1.39997
1.39997
1.39997
1.39996
1.39997
1.39997
1.39997
1.39997
1.39997
1.39997
1.39998
1.39998
1.39999
1.39999
1.39999
1.39999
1.4
1.4
1.4
1.4
1.4
1.4
1.4
1.4
1.4
1.4
1.4
1.4
1.40001
1.40001
1.40001
1.40001
1.40001
1.40001
1.4
1.4
1.4
1.40001
1.40001
1.40001
1.40001
1.40001
1.4
1.40001
1.40001
1.40002
1.40002
1.40002
1.40002
1.40003
1.40003
1.40003
1.40004
1.40004
1.40004
1.40004
1.40005
1.40005
1.40005
1.40005
1.40005
1.40004
1.40004
1.40004
1.40003
1.40003
1.40002
1.40001
1.40001
1.4
1.4
1.39999
1.39999
1.39998
1.39998
1.39997
1.39997
1.39997
1.39997
1.39997
1.39997
1.39998
1.39998
1.39998
1.39998
1.39999
1.39999
1.39999
1.39999
1.39999
1.4
1.4
1.4
1.4
1.4
1.4
1.4
1.4
1.4
1.4
1.4
1.4
1.4
1.4
1.4
1.4
1.4
1.40001
1.40001
1.40001
1.40001
1.40001
1.40001
1.40001
1.40001
1.40001
1.40001
1.40001
1.40001
1.40001
1.40001
1.40001
1.40002
1.40002
1.40002
1.40002
1.40003
1.40003
1.40003
1.40003
1.40004
1.40004
1.40004
1.40004
1.40004
1.40004
1.40003
1.40003
1.40003
1.40002
1.40002
1.40002
1.40001
1.4
1.4
1.4
1.39999
1.39999
1.39998
1.39998
1.39998
1.39998
1.39998
1.39998
1.39998
1.39998
1.39998
1.39998
1.39998
1.39999
1.39999
1.39999
1.39999
1.4
1.4
1.4
1.4
1.4
1.4
1.4
1.4
1.4
1.4
1.4
1.4
1.4
1.4
1.40001
1.40001
1.40001
1.40001
1.4
1.4
1.4
1.4
1.4
1.40001
1.40001
1.40001
1.40001
1.40001
1.40001
1.4
1.40001
1.40001
1.40001
1.40001
1.40001
1.40002
1.40002
1.40002
1.40002
1.40002
1.40002
1.40003
1.40003
1.40003
1.40003
1.40003
1.40003
1.40003
1.40003
1.40003
1.40002
1.40002
1.40001
1.40001
1.40001
1.4
1.4
1.4
1.39999
1.39999
1.39999
1.39998
1.39998
1.39998
1.39998
1.39998
1.39998
1.39999
1.39999
1.39999
1.39999
1.39999
1.39999
1.39999
1.4
1.4
1.4
1.4
1.4
1.4
1.4
1.4
1.4
1.4
1.4
1.4
1.4
1.4
1.4
1.40001
1.40001
1.40001
1.40001
1.40001
1.40001
1.40001
1.40001
1.40001
1.40001
1.40001
1.40001
1.40001
1.40001
1.40001
1.40001
1.40001
1.40001
1.40001
1.40001
1.40001
1.40001
1.40001
1.40002
1.40002
1.40002
1.40002
1.40002
1.40002
1.40002
1.40002
1.40002
1.40002
1.40002
1.40002
1.40002
1.40002
1.40002
1.40001
1.40001
1.40001
1.4
1.4
1.4
1.4
1.39999
1.39999
1.39999
1.39999
1.39999
1.39999
1.39999
1.39999
1.39999
1.39999
1.39999
1.39999
1.39999
1.4
1.4
1.4
1.4
1.4
1.4
1.4
1.4
1.4
1.4
1.4
1.4
1.4
1.4
1.40001
1.40001
1.4
1.4
1.4
1.4
1.4
1.4
1.4
1.40001
1.40001
1.40001
1.40001
1.40001
1.40001
1.40001
1.40001
1.40001
1.40001
1.40001
1.40001
1.40001
1.40001
1.40001
1.40001
1.40001
1.40001
1.40001
1.40002
1.40002
1.40002
1.40002
1.40002
1.40002
1.40002
1.40002
1.40002
1.40002
1.40002
1.40001
1.40001
1.40001
1.40001
1.40001
1.4
1.4
1.4
1.4
1.4
1.39999
1.39999
1.39999
1.39999
1.39999
1.39999
1.39999
1.39999
1.4
1.4
1.4
1.4
1.4
1.4
1.4
1.4
1.4
1.4
1.4
1.4
1.4
1.4
1.4
1.4
1.4
1.4
1.4
1.40001
1.40001
1.40001
1.40001
1.40001
1.4
1.40001
1.40001