/*--------------------------------*- C++ -*----------------------------------*\
  =========                 |
  \\      /  F ield         | OpenFOAM: The Open Source CFD Toolbox
   \\    /   O peration     | Website:  https://openfoam.org
    \\  /    A nd           | Version:  6
     \\/     M anipulation  |
\*---------------------------------------------------------------------------*/
FoamFile
{
    version     2.0;
    format      ascii;
    class       volScalarField;
    location    "1.2";
    object      epsilon;
}
// * * * * * * * * * * * * * * * * * * * * * * * * * * * * * * * * * * * * * //

dimensions      [0 2 -3 0 0 0 0];

internalField   nonuniform List<scalar> 
4214
(
0.136196
0.0514899
0.0214391
0.0116098
0.00891211
0.0086237
0.00929022
0.0106246
0.0127795
0.0159181
0.0202435
0.0260273
0.033621
0.0435191
0.0564581
0.0735977
0.0970155
0.13068
0.183985
0.281677
0.436495
0.537354
0.38262
0.211731
0.117395
0.0698051
0.0445293
0.0299422
0.0211371
0.0157381
0.0124335
0.0104095
0.00917235
0.00843796
0.00803673
0.0079577
0.0085182
0.0110627
0.019962
0.0478377
0.128596
0.0367718
0.0188513
0.011553
0.00893572
0.00828263
0.00849701
0.00925298
0.0105687
0.0126309
0.0156749
0.0199307
0.0257142
0.0334488
0.0437489
0.0575795
0.0765345
0.103445
0.143293
0.20645
0.319244
0.485602
0.587103
0.405152
0.217625
0.118565
0.0700267
0.0444187
0.0297009
0.0209122
0.0155966
0.0123826
0.01044
0.0092631
0.00855051
0.0081376
0.00795394
0.0080546
0.00878038
0.0111856
0.0179853
0.0353922
0.0189695
0.0122268
0.00930858
0.00826063
0.00810696
0.00845296
0.00922183
0.0105067
0.012495
0.0154495
0.0196497
0.02545
0.0333575
0.0441321
0.0590377
0.0802743
0.111642
0.159134
0.235191
0.366014
0.543273
0.637467
0.424282
0.222482
0.120371
0.070936
0.0448133
0.0298174
0.0209428
0.0156334
0.0124623
0.0105605
0.00941262
0.00871683
0.00830315
0.00808413
0.00805027
0.00832136
0.0092942
0.0119616
0.0184674
0.0133874
0.010011
0.00853154
0.00802993
0.00805484
0.00844225
0.00920162
0.010453
0.0123935
0.0152819
0.0194402
0.0252864
0.0334223
0.0447905
0.0610558
0.0851331
0.122168
0.179873
0.272225
0.424172
0.611094
0.689135
0.442135
0.227774
0.123302
0.0727354
0.045834
0.0303717
0.0212692
0.0158618
0.0126664
0.0107695
0.00963489
0.00894892
0.00853603
0.00830138
0.00821231
0.0083139
0.00878731
0.0100883
0.0132303
0.0109699
0.00905265
0.00820572
0.0079456
0.00804687
0.00844637
0.0091914
0.0104144
0.0123193
0.0151773
0.0193387
0.0252757
0.0337045
0.0458019
0.0637951
0.0916625
0.136382
0.207489
0.320292
0.495727
0.688475
0.738516
0.457673
0.234691
0.127815
0.0754589
0.0474781
0.031345
0.021881
0.0162834
0.0130052
0.0110772
0.00993551
0.00924829
0.00883163
0.00858494
0.0084652
0.00848488
0.00873314
0.00943559
0.0111117
0.00981863
0.00861348
0.00807645
0.0079334
0.00806875
0.00846899
0.00920106
0.0104049
0.0122914
0.0151457
0.019349
0.0254367
0.0342738
0.0473525
0.067704
0.100776
0.155927
0.244704
0.383016
0.583139
0.775142
0.786739
0.474274
0.243558
0.133734
0.0792217
0.0498708
0.032832
0.0228443
0.01694
0.0135046
0.0114986
0.0103234
0.00961996
0.00919247
0.00893308
0.00879258
0.00876703
0.0089006
0.00930945
0.0102752
0.00923441
0.00841564
0.0080454
0.00796432
0.0081158
0.00851444
0.00923964
0.0104384
0.01233
0.0152165
0.0195156
0.0258414
0.0352629
0.0497049
0.0733744
0.113706
0.183048
0.295209
0.465006
0.688751
0.869353
0.836445
0.492229
0.254423
0.141494
0.0843094
0.0532134
0.0349667
0.024251
0.0178888
0.0141991
0.0120519
0.0108067
0.0100663
0.00961765
0.00934164
0.00918322
0.00912826
0.00919641
0.00944624
0.0100329
0.0089429
0.00834927
0.00807629
0.00803099
0.00819168
0.00859151
0.00932021
0.0105332
0.0124615
0.0154283
0.0198992
0.026589
0.0368631
0.0532475
0.0816805
0.132182
0.220747
0.363597
0.571233
0.814251
0.967885
0.88413
0.512138
0.26814
0.151653
0.0910949
0.0577805
0.0379373
0.0262346
0.0192141
0.0151407
0.0127641
0.0113987
0.0105924
0.0101082
0.00980881
0.00963139
0.00955323
0.0095793
0.00973672
0.0101104
0.00881873
0.00836673
0.00815551
0.00813401
0.00830367
0.00871207
0.00946003
0.0107144
0.0127226
0.015835
0.0205834
0.0278201
0.0393607
0.0585549
0.0938944
0.15856
0.272885
0.455292
0.706529
0.960186
1.06692
0.929854
0.535457
0.285698
0.164925
0.100075
0.0639548
0.0420125
0.0289925
0.0210434
0.0164104
0.0136794
0.0121223
0.0112076
0.0106678
0.0103351
0.0101347
0.0100337
0.0100274
0.0101262
0.0103756
0.00880574
0.00844953
0.00828175
0.00828026
0.00846395
0.00889412
0.00968498
0.0110189
0.013166
0.016513
0.0216914
0.0297438
0.0431925
0.0664698
0.111826
0.195934
0.344224
0.576618
0.875627
1.12573
1.16362
0.975528
0.56373
0.308297
0.182238
0.111916
0.072283
0.0475826
0.032821
0.0235723
0.0181388
0.0148701
0.0130176
0.0119298
0.0113049
0.0109241
0.0106952
0.010569
0.0105325
0.0105877
0.0107605
0.0088817
0.00859454
0.00846179
0.00848271
0.00869177
0.00916535
0.0100348
0.0115027
0.0138713
0.017575
0.0234088
0.0326734
0.0490265
0.0781963
0.137976
0.248169
0.440451
0.734991
1.08385
1.30562
1.25668
1.023
0.598584
0.337396
0.204845
0.127531
0.0835533
0.0552196
0.0381712
0.0271025
0.020536
0.0164555
0.0141538
0.0127893
0.0120334
0.0115806
0.0113166
0.0111628
0.011097
0.0111136
0.0112302
0.00904265
0.00880909
0.0087106
0.00876372
0.00901923
0.00957117
0.0105727
0.012251
0.0149567
0.0191856
0.0260208
0.0370788
0.0578742
0.0953861
0.175692
0.319855
0.568165
0.938991
1.33532
1.48936
1.34926
1.07473
0.64239
0.374771
0.23443
0.148182
0.0989163
0.0657661
0.0457352
0.0320998
0.0239434
0.0186307
0.0156521
0.0138385
0.0128777
0.0123097
0.0120005
0.0118181
0.0117275
0.0117103
0.0117783
0.00929636
0.00911106
0.00905516
0.00916177
0.0094998
0.0101836
0.0113945
0.0133856
0.0165935
0.0215823
0.0299725
0.0436508
0.0712383
0.120171
0.229306
0.416265
0.734379
1.19762
1.62828
1.67954
1.44541
1.13391
0.699325
0.422618
0.273289
0.175602
0.120054
0.0804633
0.056586
0.0392844
0.0289206
0.0217152
0.0177287
0.0151719
0.0138884
0.0131209
0.0127464
0.0125301
0.0124257
0.0123878
0.01242
0.00966331
0.00953319
0.00954171
0.00973877
0.0102145
0.0111034
0.0126314
0.0150661
0.0190331
0.0251086
0.0359753
0.053367
0.0912952
0.155093
0.304245
0.542958
0.947187
1.5182
1.95537
1.8801
1.55837
1.20528
0.773607
0.483609
0.324571
0.212131
0.149431
0.101132
0.0724018
0.0497631
0.0363969
0.026229
0.0207779
0.016963
0.0151774
0.0140439
0.0135638
0.0132892
0.0131823
0.0131436
0.0131672
0.0101872
0.0101308
0.0102378
0.0105753
0.011266
0.0124493
0.0144591
0.0175012
0.022688
0.0302753
0.0451914
0.0675105
0.121115
0.202838
0.407307
0.704965
1.21544
1.90855
2.30038
2.06465
1.70171
1.29549
0.870922
0.560871
0.392623
0.260863
0.190645
0.130392
0.0958263
0.0652092
0.047942
0.0330019
0.0255303
0.0195202
0.0169905
0.0151543
0.014502
0.0140957
0.0139876
0.0139603
0.0140073
0.0109453
0.0109916
0.0112508
0.0117866
0.0128253
0.0143926
0.0172202
0.02103
0.0283646
0.0378159
0.0595281
0.0875276
0.164969
0.265673
0.547385
0.906212
1.5503
2.37026
2.63314
2.23942
1.86609
1.41101
0.99968
0.657843
0.48358
0.325633
0.248942
0.171831
0.131069
0.088053
0.0662734
0.0433022
0.0333704
0.0233574
0.0198609
0.0166073
0.0157078
0.0149814
0.0148605
0.0148286
0.0149202
0.0120958
0.0122844
0.0128595
0.0136067
0.015416
0.0172975
0.0218382
0.0261772
0.0376868
0.0484812
0.0821152
0.114536
0.228979
0.344508
0.736613
1.14859
1.96633
2.88869
2.90942
2.43233
2.05003
1.55282
1.17192
0.777405
0.606452
0.410558
0.332002
0.22989
0.18497
0.121525
0.0962896
0.0588743
0.0470429
0.0292222
0.0249698
0.018657
0.0175589
0.0160261
0.0158884
0.0157725
0.015897
0.0161458
0.0150713
0.0141065
0.0132548
0.0125363
0.0119531
0.0114794
0.0111075
0.010884
0.0108962
0.0112945
0.0123753
0.0147613
0.0200716
0.0327131
0.0767061
0.348174
0.0163932
0.01535
0.0144288
0.013645
0.013004
0.0124959
0.0121025
0.0118462
0.0118097
0.0121271
0.0130151
0.0148927
0.0186029
0.0262752
0.0436576
0.102335
0.456482
0.0167646
0.0156931
0.0148223
0.014108
0.0135379
0.0131033
0.0128002
0.0126857
0.0128934
0.0136275
0.0152091
0.0182084
0.0237633
0.0346603
0.0586632
0.137925
0.592476
0.0170839
0.0160872
0.0152897
0.0146473
0.0141445
0.0137823
0.0135786
0.0136327
0.0141434
0.0154187
0.0179192
0.0224287
0.0304812
0.0457599
0.0789525
0.186157
0.767086
0.0175286
0.0165589
0.0158356
0.0152634
0.0148266
0.0145356
0.0144407
0.0146851
0.0155502
0.0174725
0.0211053
0.0275326
0.0388444
0.0600143
0.105934
0.251119
0.985555
0.0179555
0.0170985
0.0164551
0.0159526
0.0155807
0.0153642
0.0153835
0.0158299
0.0170765
0.0197105
0.0246322
0.0333425
0.0487231
0.0776068
0.14088
0.336998
1.24827
0.0185069
0.0177144
0.0171423
0.0167081
0.0164049
0.0162637
0.0163905
0.0170287
0.0186421
0.0219994
0.0282922
0.0395445
0.0596895
0.0981509
0.184184
0.446468
1.5446
0.0190815
0.0183956
0.0178968
0.0175254
0.0172849
0.0172159
0.0174383
0.0182255
0.0201214
0.0240691
0.0315802
0.0453224
0.0705912
0.120299
0.234881
0.577494
1.85158
0.0197629
0.0191549
0.0187056
0.0183872
0.0182091
0.0182093
0.018508
0.0193882
0.0214329
0.0257117
0.0340283
0.0496792
0.0793666
0.139557
0.283579
0.710266
2.14483
0.020517
0.0199715
0.0195588
0.0192874
0.0191676
0.0192322
0.0195906
0.0205087
0.0225569
0.0268421
0.035353
0.0518502
0.0841826
0.15173
0.318212
0.816348
2.38264
0.0213482
0.0208371
0.0204561
0.0202227
0.0201528
0.0202744
0.020681
0.0216014
0.0235454
0.0275544
0.0356317
0.0517032
0.0841644
0.153896
0.328131
0.867588
2.52634
0.0222325
0.0217539
0.0213987
0.0211941
0.0211612
0.0213288
0.0217759
0.0226881
0.0244872
0.0280761
0.0352923
0.0499014
0.0801392
0.146656
0.313378
0.852871
2.55614
0.0231693
0.0227243
0.0223913
0.0222063
0.022195
0.0223931
0.0228705
0.0237785
0.0254547
0.0286338
0.0348846
0.0475741
0.0742569
0.13395
0.285381
0.778752
2.47964
0.0241603
0.0237518
0.0234395
0.0232659
0.0232629
0.0234715
0.0239616
0.0248642
0.0264589
0.0293417
0.0348104
0.045749
0.0688655
0.121351
0.255729
0.673885
2.32718
0.0252047
0.0248385
0.0245493
0.024384
0.0243782
0.0245784
0.025055
0.0259318
0.0274571
0.0301407
0.0350973
0.0448507
0.0654424
0.112733
0.235443
0.623977
2.13724
0.0263009
0.0259857
0.0257263
0.0255715
0.0255583
0.0257354
0.0261742
0.0269921
0.028415
0.0309029
0.0354581
0.044392
0.0633519
0.107392
0.22247
0.580031
1.93803
0.0274475
0.0271924
0.0269734
0.0268379
0.0268203
0.0269695
0.0273557
0.0280837
0.0293575
0.031582
0.0356566
0.0437102
0.0610802
0.102135
0.209623
0.534822
1.74819
0.0286393
0.0284556
0.0282906
0.0281881
0.0281794
0.0283095
0.0286396
0.0292661
0.0303612
0.0322619
0.0357244
0.0425971
0.057721
0.094637
0.194258
0.498033
1.57847
0.0298751
0.0297724
0.0296755
0.0296229
0.0296413
0.0297706
0.0300631
0.0306007
0.0315211
0.0330909
0.035896
0.041405
0.0536417
0.0846762
0.17364
0.459653
1.43094
0.0311483
0.0311379
0.0311245
0.0311406
0.0312083
0.0313617
0.0316445
0.0321241
0.0329101
0.034204
0.0364313
0.0406485
0.0498807
0.0738899
0.147767
0.406932
1.30168
0.0324571
0.0325488
0.0326334
0.032738
0.03288
0.0330874
0.0333953
0.0338577
0.0345619
0.035661
0.0374575
0.0406659
0.0473401
0.0644762
0.120044
0.339438
1.18435
0.0337949
0.0340007
0.034198
0.0344116
0.0346546
0.0349491
0.0353218
0.0358155
0.0364991
0.0374919
0.0390172
0.0415579
0.0464351
0.058175
0.0972326
0.268846
1.07437
0.035157
0.0354894
0.0358153
0.0361587
0.0365301
0.0369468
0.0374279
0.0380061
0.0387348
0.039709
0.0411039
0.0432707
0.0470911
0.0553775
0.08221
0.207234
0.970769
0.0365379
0.0370072
0.0374776
0.037973
0.0385021
0.0390784
0.0397145
0.0404336
0.0412766
0.0423187
0.0437013
0.0457001
0.0489613
0.0552642
0.0738089
0.166082
0.875443
0.0379311
0.0385506
0.0391812
0.0398502
0.0405672
0.0413426
0.0421832
0.0431044
0.0441353
0.0453337
0.0468149
0.0488036
0.0518173
0.0570866
0.0707563
0.1404
0.79144
0.0393322
0.0401109
0.0409185
0.0417852
0.0427229
0.0437402
0.0448393
0.0460285
0.0473272
0.0487784
0.0504743
0.0526002
0.0555923
0.0604039
0.0714327
0.126209
0.721209
0.0407354
0.0416872
0.042688
0.0437765
0.0449704
0.0462768
0.0476936
0.0492237
0.0508784
0.0526887
0.0547266
0.0571451
0.0603182
0.0650482
0.0747677
0.119688
0.665328
0.0421396
0.0432727
0.0444852
0.0458239
0.0473149
0.0489639
0.0507655
0.0527183
0.0548279
0.0571164
0.0596397
0.0625236
0.0660881
0.0710406
0.0802715
0.118775
0.622607
0.0435414
0.0448708
0.0463135
0.0479328
0.0497678
0.0518215
0.0540847
0.0565538
0.0592316
0.0621349
0.0653082
0.0688562
0.0730512
0.078534
0.0878329
0.122507
0.591026
0.0449443
0.0464791
0.0481747
0.0501118
0.0523477
0.0548787
0.057693
0.0607873
0.0641658
0.0678448
0.0718628
0.076311
0.0814242
0.0877762
0.0976434
0.130354
0.568475
0.0463472
0.0481055
0.0500787
0.0523765
0.0550816
0.058176
0.0616461
0.0654938
0.0697308
0.0743793
0.0794797
0.0851198
0.0915111
0.0991741
0.110158
0.142319
0.553151
0.0477588
0.0497519
0.0520349
0.0547479
0.0580063
0.0617659
0.0660152
0.0707692
0.076056
0.081913
0.088395
0.0955995
0.103738
0.1133
0.126116
0.158977
0.543707
0.0491772
0.0514311
0.0540608
0.0572563
0.0611701
0.0657141
0.0708882
0.0767335
0.0833064
0.0906739
0.0989229
0.108185
0.118702
0.130971
0.146632
0.181366
0.539412
0.0506174
0.0531483
0.0561757
0.0599416
0.0646334
0.0701003
0.0763729
0.0835365
0.0916935
0.100961
0.111487
0.123473
0.13724
0.153347
0.173351
0.211641
0.539428
0.0520749
0.0549242
0.0584107
0.0628581
0.0684701
0.0750194
0.0826004
0.0913667
0.10149
0.113172
0.126663
0.142286
0.160526
0.182157
0.20877
0.253291
0.543142
0.0535778
0.0567723
0.0608057
0.0660769
0.0727676
0.0805839
0.089733
0.100465
0.113057
0.127843
0.145226
0.165779
0.190312
0.219969
0.256696
0.311957
0.550141
0.0551247
0.0587341
0.0634222
0.0696865
0.0776261
0.0869295
0.0979761
0.111147
0.126879
0.145681
0.168277
0.19566
0.229175
0.270719
0.323162
0.396986
0.560186
0.0567675
0.0608488
0.0663415
0.0737909
0.0831596
0.0942245
0.107597
0.123835
0.14358
0.167698
0.19742
0.23442
0.281038
0.340614
0.418068
0.524458
0.573193
0.0585304
0.0632096
0.0696775
0.0785081
0.0895049
0.102693
0.118956
0.139082
0.16406
0.195353
0.23498
0.285823
0.35205
0.439793
0.558312
0.723043
0.589145
0.0605089
0.0659236
0.0735815
0.0839832
0.096856
0.112661
0.132565
0.157679
0.189639
0.230769
0.284465
0.355753
0.452214
0.585536
0.774288
1.04794
0.607986
0.137575
0.147282
0.157179
0.167088
0.176811
0.186112
0.194749
0.202468
0.209031
0.214221
0.217868
0.219855
0.22013
0.218705
0.21566
0.211138
0.205322
0.198424
0.190646
0.182088
0.171318
0.160715
0.151857
0.143401
0.135339
0.127655
0.120431
0.113644
0.107347
0.101504
0.0961382
0.0911811
0.0866121
0.0823844
0.0785791
0.0751624
0.0721392
0.0694315
0.0669993
0.0647943
0.0627776
0.157075
0.168322
0.179774
0.19122
0.202415
0.213079
0.222918
0.231633
0.238942
0.244597
0.248407
0.250248
0.250076
0.247924
0.243912
0.238223
0.23109
0.222772
0.21352
0.203459
0.191039
0.178862
0.168702
0.159069
0.149902
0.141231
0.133091
0.125499
0.118464
0.111981
0.10604
0.100616
0.095658
0.0910879
0.086879
0.0830363
0.0795917
0.0765172
0.0737937
0.0713518
0.069168
0.179119
0.19221
0.20553
0.218824
0.231793
0.244103
0.255397
0.265322
0.273542
0.279773
0.283798
0.285486
0.284805
0.281819
0.276689
0.269652
0.260999
0.251047
0.240102
0.228324
0.214051
0.200086
0.188452
0.177462
0.167045
0.157236
0.148065
0.13955
0.131691
0.124482
0.117901
0.11192
0.106506
0.101612
0.0971754
0.0931395
0.0894744
0.0861704
0.0832201
0.0805967
0.0782713
0.204064
0.219359
0.234919
0.250434
0.265544
0.279842
0.292902
0.304299
0.313639
0.320588
0.324902
0.326445
0.325198
0.321263
0.314854
0.306272
0.295876
0.284052
0.271169
0.257434
0.241077
0.225099
0.211783
0.199239
0.187394
0.176284
0.165938
0.156369
0.147577
0.139544
0.132244
0.12564
0.119696
0.114369
0.109617
0.105393
0.101645
0.0983175
0.095367
0.0927507
0.0904422
0.232411
0.250333
0.26857
0.286749
0.304432
0.32113
0.336328
0.349518
0.360231
0.36808
0.372787
0.374208
0.372347
0.367347
0.359488
0.349146
0.336762
0.322805
0.307713
0.291753
0.273054
0.254814
0.239576
0.225253
0.211772
0.199172
0.187481
0.176711
0.166854
0.157886
0.149773
0.142475
0.135948
0.130145
0.125016
0.120511
0.116579
0.113168
0.110228
0.107705
0.105553
0.264877
0.285916
0.307337
0.328694
0.349457
0.369037
0.386814
0.402178
0.414575
0.423549
0.428784
0.430131
0.427615
0.421437
0.41195
0.399621
0.384987
0.368608
0.35101
0.332527
0.311201
0.290423
0.27299
0.256627
0.24127
0.226959
0.213727
0.201579
0.190503
0.180469
0.171437
0.163363
0.156194
0.149876
0.144352
0.139565
0.135456
0.131965
0.129036
0.126611
0.124626
0.302497
0.32721
0.352397
0.377524
0.401954
0.424975
0.445844
0.463831
0.478277
0.488648
0.494583
0.495927
0.492735
0.485271
0.473977
0.459425
0.44226
0.423152
0.402724
0.381391
0.357128
0.333506
0.313566
0.294866
0.277353
0.261077
0.24607
0.232337
0.21986
0.208606
0.198531
0.189581
0.181696
0.174814
0.168871
0.163798
0.159529
0.155997
0.153137
0.150882
0.149145
0.346774
0.375796
0.405409
0.434978
0.463738
0.490837
0.515383
0.536506
0.553424
0.565513
0.572361
0.573804
0.569934
0.561089
0.547814
0.5308
0.510818
0.488658
0.465056
0.440521
0.412986
0.386189
0.363391
0.342014
0.322026
0.303487
0.286432
0.270869
0.256778
0.244122
0.232849
0.222899
0.214204
0.206693
0.20029
0.194919
0.190505
0.186973
0.184243
0.182237
0.180839
0.399915
0.433961
0.46874
0.503499
0.537328
0.569209
0.598082
0.622911
0.642776
0.656948
0.664957
0.666634
0.662113
0.651815
0.636403
0.616701
0.59362
0.568087
0.540959
0.512855
0.481702
0.451378
0.425334
0.400902
0.378075
0.35693
0.337514
0.319836
0.303878
0.289599
0.276941
0.265837
0.256211
0.247983
0.241067
0.23538
0.230837
0.22735
0.224825
0.223171
0.222245
0.465208
0.50507
0.545825
0.586587
0.626279
0.663697
0.697586
0.726728
0.750046
0.766695
0.776147
0.778225
0.773114
0.761329
0.743662
0.721082
0.694653
0.665448
0.634461
0.60243
0.567321
0.533118
0.50342
0.475522
0.449456
0.425325
0.403191
0.383072
0.36495
0.348785
0.334517
0.322072
0.311367
0.302314
0.294824
0.288802
0.284154
0.280777
0.278567
0.277419
0.277159
0.547639
0.594167
0.641751
0.689356
0.735717
0.779423
0.819009
0.853058
0.880323
0.899845
0.911031
0.913706
0.90811
0.894864
0.874893
0.849322
0.819374
0.786274
0.751157
0.714897
0.675552
0.637159
0.603407
0.571628
0.541913
0.514394
0.489157
0.466233
0.445616
0.427267
0.411127
0.397125
0.385171
0.375176
0.367046
0.36068
0.35597
0.352806
0.351073
0.350656
0.35135
0.654947
0.70899
0.764221
0.819446
0.873192
0.923831
0.969678
1.00912
1.04073
1.06345
1.07664
1.08012
1.0742
1.05961
1.03741
1.00888
0.9754
0.938342
0.898984
0.858334
0.814618
0.771849
0.733728
0.697723
0.663989
0.632707
0.603994
0.577904
0.554447
0.533602
0.515319
0.499529
0.486153
0.475099
0.466275
0.459574
0.454884
0.45209
0.45107
0.451697
0.453737
0.799518
0.861756
0.925229
0.988576
1.05012
1.108
1.16034
1.20535
1.24146
1.26752
1.28285
1.28732
1.28131
1.26564
1.24151
1.21032
1.1736
1.13284
1.08945
1.04457
0.996665
0.949625
0.907062
0.866688
0.828742
0.793465
0.761013
0.731483
0.704918
0.68132
0.660662
0.642895
0.627952
0.615754
0.606216
0.599236
0.594703
0.592502
0.592512
0.594593
0.598476
1.00189
1.07243
1.14406
1.21529
1.28425
1.3489
1.40721
1.45727
1.49744
1.52654
1.54392
1.54948
1.54368
1.52744
1.50203
1.46897
1.42985
1.38627
1.33969
1.29137
1.24012
1.18954
1.14302
1.09865
1.05676
1.01765
0.981556
0.948619
0.918934
0.892546
0.869467
0.849682
0.833155
0.81983
0.809652
0.802525
0.798354
0.797038
0.798458
0.802464
0.80873
1.29762
1.37498
1.45295
1.53001
1.60418
1.67335
1.73545
1.7886
1.8312
1.86216
1.8809
1.88741
1.88223
1.8663
1.84094
1.80766
1.76803
1.72364
1.67597
1.62629
1.57383
1.52174
1.47298
1.42612
1.38162
1.33985
1.30111
1.2656
1.2335
1.2049
1.17987
1.15847
1.14069
1.12654
1.11601
1.10901
1.10549
1.10537
1.10855
1.11486
1.12386
1.7515
1.83011
1.90826
1.9848
2.05782
2.12538
2.18559
2.23684
2.27781
2.30761
2.32588
2.3327
2.32863
2.31458
2.29175
2.26146
2.22515
2.18419
2.13991
2.09348
2.04459
1.99567
1.94897
1.90372
1.86041
1.81946
1.78121
1.74595
1.7139
1.68525
1.66012
1.63865
1.6209
1.60694
1.59681
1.5905
1.58799
1.58925
1.59416
1.6026
1.61375
2.48884
2.55255
2.614
2.67337
2.72928
2.7804
2.82551
2.86357
2.89383
2.91584
2.92946
2.93486
2.93251
2.92307
2.90734
2.88625
2.86073
2.83171
2.80008
2.76664
2.73146
2.69593
2.66128
2.62736
2.59458
2.56329
2.53381
2.50642
2.48134
2.45878
2.43891
2.42191
2.4079
2.39699
2.38928
2.38482
2.38364
2.38573
2.39102
2.39938
2.40907
0.36347
0.0779596
0.0329312
0.0201723
0.0147643
0.0121731
0.0108018
0.0100463
0.0096267
0.00941558
0.00935367
0.00941753
0.0095986
0.009903
0.0103625
0.0110443
0.0120897
0.474947
0.103864
0.0437398
0.026266
0.0186261
0.0147848
0.0126509
0.011405
0.01066
0.0102311
0.0100232
0.00998683
0.0100985
0.0103511
0.0107604
0.0113754
0.0122737
0.612683
0.140543
0.0585396
0.0345377
0.0238545
0.0182894
0.0150934
0.0131559
0.0119514
0.0112198
0.0108127
0.0106437
0.0106678
0.0108596
0.0112171
0.0117701
0.0125563
0.786361
0.191198
0.0786469
0.0455094
0.0306806
0.0227858
0.0181541
0.0152875
0.0134911
0.0123617
0.0116951
0.011367
0.0112912
0.0114168
0.0117225
0.0122192
0.0129302
0.998869
0.259319
0.105658
0.059676
0.0392151
0.0282366
0.0217718
0.0177584
0.0151925
0.0135796
0.0126223
0.0121242
0.0119479
0.0120084
0.0122652
0.0127131
0.0133585
1.24826
0.34929
0.141166
0.077328
0.0493455
0.0345448
0.0257809
0.0203283
0.0168959
0.0147754
0.013535
0.0128829
0.0126202
0.0126256
0.0128409
0.0132473
0.0138403
1.52234
0.462935
0.185955
0.0985893
0.0608496
0.0410904
0.029638
0.0226793
0.0184103
0.0158442
0.0143794
0.0136191
0.0132993
0.0132682
0.0134554
0.0138369
0.014408
1.79898
0.59748
0.239289
0.121442
0.0719146
0.046837
0.0327545
0.024471
0.0195577
0.0167045
0.0151276
0.0143274
0.0139894
0.0139452
0.0141211
0.0144939
0.0150282
2.05491
0.732962
0.29068
0.141182
0.0803771
0.0506605
0.0345649
0.025448
0.020246
0.0173423
0.0157951
0.0150301
0.0147125
0.014677
0.0148554
0.0152213
0.0157169
2.25244
0.840881
0.327312
0.152526
0.0840874
0.0516934
0.0347777
0.0255683
0.0205295
0.0178344
0.0164485
0.0157772
0.0155073
0.0154951
0.0156785
0.0160335
0.0165084
2.3586
0.891741
0.336944
0.15254
0.0821431
0.0498219
0.0335632
0.0250662
0.0206193
0.0183347
0.0171876
0.0166344
0.0164169
0.0164251
0.0166077
0.016945
0.0173852
2.35924
0.867244
0.314427
0.141022
0.0752667
0.0458526
0.0315734
0.0244218
0.0208268
0.0190234
0.0181072
0.0176502
0.0174675
0.0174799
0.0176484
0.017959
0.0183712
2.26554
0.764752
0.268099
0.122083
0.0659394
0.0413269
0.0297831
0.0241979
0.0214387
0.0200199
0.0192536
0.0188411
0.0186595
0.0186547
0.0188005
0.0190856
0.01949
2.10892
0.59552
0.222948
0.103469
0.0576441
0.0380075
0.0290404
0.0247412
0.0225446
0.0213235
0.020601
0.0201795
0.0199756
0.0199484
0.0200765
0.0203451
0.0207369
1.92774
0.518921
0.192337
0.0907829
0.0527001
0.0367738
0.0295548
0.0259788
0.0240091
0.0228185
0.0220711
0.0216211
0.0213988
0.0213622
0.021487
0.0217475
0.0221218
1.74646
0.494764
0.179719
0.0853357
0.0512692
0.037311
0.0308926
0.027547
0.0255954
0.0243744
0.0236034
0.0231485
0.0229329
0.022908
0.0230376
0.0232954
0.0236391
1.57822
0.463441
0.172368
0.0834118
0.0515215
0.0384617
0.032346
0.0290738
0.0271405
0.0259423
0.0252044
0.024791
0.0246135
0.0246135
0.024746
0.024979
0.0252829
1.43014
0.427943
0.162887
0.0807527
0.0512581
0.0391663
0.0334791
0.0304313
0.0286497
0.0275716
0.0269358
0.0265995
0.0264715
0.0264932
0.026615
0.0268079
0.0270321
1.30396
0.394388
0.149123
0.0753411
0.0496298
0.0392457
0.0343716
0.0317679
0.0302627
0.0293734
0.02887
0.0286179
0.0285313
0.028553
0.0286379
0.0287631
0.0288872
1.19527
0.351939
0.130075
0.0678947
0.0473919
0.0392473
0.0353961
0.0333295
0.0321454
0.031461
0.0310799
0.030887
0.0308078
0.0307947
0.0308082
0.0308327
0.0308382
1.09702
0.297019
0.108225
0.0606072
0.045727
0.0397716
0.0368888
0.0353224
0.0344259
0.0339057
0.0336029
0.0334237
0.0333089
0.033222
0.0331305
0.0330301
0.0328872
1.00409
0.238011
0.0892315
0.0556882
0.0454477
0.0411784
0.039041
0.0378602
0.0371709
0.0367457
0.0364584
0.0362372
0.0360381
0.035836
0.0356046
0.0353493
0.0350339
0.915261
0.187951
0.0770046
0.0538376
0.0467073
0.0435502
0.04192
0.0409916
0.0404114
0.0399994
0.0396585
0.039337
0.0390046
0.0386449
0.0382355
0.0377867
0.0372849
0.83254
0.153692
0.0707462
0.0545944
0.0493286
0.0468582
0.0455393
0.0447366
0.0441662
0.0436856
0.043223
0.0427448
0.0422319
0.0416735
0.0410508
0.0403859
0.0396704
0.759185
0.132982
0.0692492
0.0573178
0.0531387
0.0510825
0.0499193
0.0491249
0.0484679
0.047838
0.0471865
0.0464944
0.0457512
0.0449501
0.0440762
0.0431643
0.0421986
0.697682
0.122254
0.0711572
0.0616513
0.0581027
0.0562622
0.0551146
0.0542143
0.0533742
0.0525139
0.0516038
0.0506368
0.0496089
0.0485144
0.0473406
0.0461258
0.0448837
0.648663
0.118077
0.0756123
0.067506
0.0642946
0.062495
0.0612232
0.0600986
0.0589748
0.0577973
0.0565521
0.0552413
0.0538652
0.0524164
0.0508873
0.0493381
0.0478085
0.611143
0.118791
0.0822948
0.0749871
0.071874
0.0699378
0.0683902
0.0669121
0.0653925
0.0637986
0.062129
0.0603923
0.0585914
0.0567171
0.054776
0.0528549
0.050974
0.583399
0.123786
0.0912664
0.0843473
0.0810903
0.0788152
0.0768177
0.0748354
0.0727873
0.0706581
0.0684556
0.0661923
0.0638723
0.0614874
0.059066
0.0566999
0.054402
0.56363
0.13283
0.10288
0.0959753
0.092297
0.0894356
0.0867752
0.084103
0.0813619
0.0785493
0.0756784
0.0727635
0.0698098
0.0668149
0.0638314
0.0609516
0.0582154
0.550306
0.146212
0.117765
0.110447
0.105979
0.102212
0.0986141
0.0950131
0.0913681
0.0876828
0.0839719
0.0802491
0.0765219
0.0728012
0.0691628
0.0656997
0.0624214
0.542217
0.164788
0.136874
0.128561
0.122794
0.11769
0.112789
0.107943
0.103117
0.098314
0.0935438
0.0888175
0.0841485
0.0795663
0.0751595
0.0709953
0.0670455
0.538765
0.189977
0.161593
0.151424
0.143636
0.136596
0.129888
0.123369
0.116994
0.110752
0.104641
0.0986692
0.0928575
0.0872513
0.0819293
0.0769189
0.0722117
0.539585
0.224036
0.193917
0.180596
0.169728
0.159894
0.150674
0.141894
0.133474
0.12537
0.11756
0.110045
0.102849
0.0960173
0.0895919
0.0835718
0.0779351
0.544344
0.270886
0.236776
0.218292
0.202772
0.188889
0.176149
0.16429
0.153151
0.142627
0.132661
0.123236
0.11436
0.106041
0.0982733
0.0910257
0.0842472
0.55293
0.336743
0.294653
0.267722
0.24516
0.225362
0.207644
0.191552
0.176771
0.16309
0.150388
0.138596
0.127658
0.117514
0.108101
0.0993564
0.0912498
0.565375
0.431792
0.374495
0.333761
0.300272
0.271802
0.246953
0.224981
0.205285
0.187473
0.171296
0.156547
0.143047
0.130639
0.119204
0.108658
0.0989541
0.581827
0.573324
0.487501
0.423879
0.373184
0.331635
0.296528
0.266297
0.239922
0.216696
0.196071
0.177577
0.160851
0.145626
0.13172
0.119009
0.107404
0.602436
0.791736
0.652422
0.54993
0.47156
0.409813
0.359755
0.317804
0.282307
0.251939
0.225535
0.202228
0.181421
0.1627
0.145785
0.13048
0.116646
0.627208
1.14516
0.902189
0.731445
0.607303
0.513836
0.441222
0.382664
0.334645
0.294694
0.260644
0.231103
0.205135
0.182095
0.161538
0.143146
0.126694
0.0143325
0.0163526
0.0213384
0.0328105
0.0620578
0.148385
0.437565
1.43023
3.44503
2.72416
1.72615
0.919445
0.519053
0.309049
0.168993
0.0814274
0.0378016
0.0215457
0.0173374
0.0168876
0.0163995
0.0191846
0.0255305
0.0404836
0.0799453
0.194128
0.557323
1.79372
4.24883
3.03009
2.01673
1.1196
0.674092
0.426284
0.241169
0.116198
0.0509772
0.0255995
0.018593
0.0175484
0.0184178
0.022099
0.030425
0.0510885
0.106537
0.259182
0.710878
2.23575
5.23155
3.57152
2.41922
1.37811
0.879013
0.589716
0.347426
0.169651
0.0719672
0.0321642
0.0204567
0.0183391
0.0203945
0.0252816
0.0368888
0.067349
0.148137
0.353915
0.909339
2.76586
6.42151
4.21745
2.95292
1.71044
1.14525
0.810904
0.500559
0.251143
0.105493
0.0429955
0.0234046
0.0193574
0.0225065
0.0292611
0.0467285
0.0942817
0.21521
0.493352
1.16671
3.37304
7.78662
5.20334
3.65721
2.15613
1.48839
1.10126
0.714922
0.373435
0.158884
0.0610481
0.0282854
0.0207622
0.025008
0.0350456
0.0634791
0.140841
0.324051
0.696916
1.49929
4.02849
9.24068
6.58854
4.59706
2.77701
1.93309
1.47603
1.00446
0.552438
0.243096
0.0912605
0.036636
0.0228504
0.0283485
0.0447989
0.0940994
0.222329
0.497448
0.985713
1.92386
4.71429
10.6603
8.10851
5.86355
3.59802
2.52165
1.95433
1.38247
0.805984
0.373643
0.141764
0.0512531
0.0262074
0.0336197
0.0633694
0.151808
0.362598
0.761864
1.38093
2.45045
5.39815
11.9694
9.70553
7.88725
4.63994
3.25456
2.56543
1.86822
1.15252
0.570915
0.225578
0.0772207
0.0320182
0.0435139
0.100916
0.259643
0.593519
1.1413
1.91265
3.12174
6.19094
12.9297
10.9401
9.81741
5.93421
4.25246
3.374
2.49834
1.61398
0.859755
0.362673
0.123715
0.0427068
0.064307
0.177165
0.452812
0.949344
1.65672
2.61172
3.98862
7.06909
13.3352
11.4549
11.2778
7.45484
5.53006
4.44535
3.31203
2.22407
1.26989
0.581974
0.207012
0.0632625
0.110292
0.327422
0.776428
1.46193
2.33784
3.50692
5.01007
8.10632
13.5539
11.3033
12.029
9.27021
6.9363
5.74055
4.3791
3.02929
1.84154
0.923458
0.355063
0.10398
0.212669
0.607254
1.28105
2.17747
3.26332
4.62812
6.46934
9.91945
13.8267
10.7851
11.8658
10.9809
8.314
7.03797
5.67201
4.08201
2.63215
1.44189
0.613525
0.185916
0.432831
1.09313
2.03787
3.1804
4.52891
6.25863
8.54403
11.9703
14.1734
10.1566
11.2419
11.6521
9.75178
8.10601
6.9499
5.44483
3.72523
2.21574
1.05357
0.350959
0.878865
1.89881
3.16364
4.58704
6.12532
8.11947
10.9795
13.7956
14.4333
9.69933
10.5264
11.531
10.9806
8.99601
7.85869
6.91179
5.24986
3.37946
1.78708
0.679129
1.73431
3.2162
4.83573
6.30141
7.59266
9.69708
13.2233
15.1036
14.6252
9.71046
10.0211
11.1151
11.2996
9.83835
8.2761
7.95876
7.0917
5.1399
3.0168
1.32176
3.35304
5.35047
6.87547
7.5769
8.41304
10.8806
14.1294
15.2917
14.6632
10.1548
9.84304
10.6594
10.8889
10.1568
8.57873
8.20047
8.62856
7.57263
5.0945
2.58867
6.33535
7.97227
8.19225
7.87963
8.81751
11.4286
13.5531
14.7733
14.6396
11.1443
10.4854
10.6686
10.5122
9.91796
8.80869
7.95893
9.02835
9.98615
8.38345
5.15705
9.96245
9.31489
8.14964
7.82046
9.16118
10.9533
12.791
14.2952
14.8884
12.989
12.1225
11.5651
10.7729
9.77374
8.78709
7.97542
8.39685
10.8359
11.9996
10.0732
8.80977
8.15325
7.6991
8.19642
9.29533
10.8808
12.7668
14.662
16.0292
15.5936
14.7097
13.522
12.0996
10.6783
9.4936
8.73051
8.36067
9.49834
13.3694
14.7228
4.63914
7.74707
9.67338
11.4973
13.4732
15.9598
18.4857
20.7151
22.2515
22.4228
21.4764
20.1654
18.4234
16.309
14.4358
12.8639
11.2999
9.50422
7.3886
5.88227
4.45538
17.3804
6.61106
2.06336
0.751182
0.29897
0.13179
0.0686938
0.0438734
0.0332636