/*--------------------------------*- C++ -*----------------------------------*\
  =========                 |
  \\      /  F ield         | OpenFOAM: The Open Source CFD Toolbox
   \\    /   O peration     | Website:  https://openfoam.org
    \\  /    A nd           | Version:  6
     \\/     M anipulation  |
\*---------------------------------------------------------------------------*/
FoamFile
{
    version     2.0;
    format      ascii;
    class       surfaceScalarField;
    location    "1.2";
    object      phi;
}
// * * * * * * * * * * * * * * * * * * * * * * * * * * * * * * * * * * * * * //

dimensions      [0 3 -1 0 0 0 0];

internalField   nonuniform List<scalar> 
8193
(
0.145066
-0.336139
-0.169854
0.118106
-0.33765
0.092165
-0.337474
0.0683792
-0.337921
0.0471419
-0.339572
0.0284893
-0.342336
0.0124628
-0.345847
-0.000846756
-0.349664
-0.0113433
-0.353355
-0.0189757
-0.356676
-0.023804
-0.359541
-0.0259806
-0.361952
-0.0257157
-0.363934
-0.0232635
-0.36559
-0.0189321
-0.367187
-0.0130207
-0.369338
-0.00578756
-0.372468
0.00240129
-0.375904
0.0106529
-0.37698
0.0166123
-0.369819
0.0179235
-0.347377
0.0176147
-0.341538
0.0189915
-0.365289
0.0199175
-0.372793
0.0207194
-0.368864
0.0216994
-0.367743
0.022193
-0.369112
0.0216051
-0.370695
0.0196127
-0.371806
0.0159332
-0.372333
0.0102884
-0.372203
0.00243658
-0.371203
-0.00776672
-0.369085
-0.0203298
-0.365732
-0.03517
-0.361316
-0.0522162
-0.356295
-0.0715193
-0.351257
-0.0930676
-0.346545
-0.116593
-0.342293
-0.141209
-0.33769
-0.331137
-0.16411
0.130528
-0.303763
-0.157054
0.104297
-0.303306
0.0807293
-0.303812
0.0599937
-0.305412
0.0418829
-0.308329
0.0262289
-0.312519
0.0129594
-0.317717
0.0020642
-0.32354
-0.00643487
-0.329578
-0.0125507
-0.335538
-0.0163507
-0.341264
-0.0179496
-0.346685
-0.0175148
-0.351753
-0.0152346
-0.356522
-0.0113499
-0.361179
-0.00610232
-0.366307
0.000319268
-0.372355
0.00763605
-0.37853
0.0146316
-0.381199
0.0184509
-0.372816
0.0168611
-0.34693
0.0144649
-0.342229
0.0143975
-0.370203
0.013321
-0.378513
0.0126115
-0.376654
0.0124102
-0.377605
0.0119416
-0.380099
0.0106642
-0.382065
0.00832967
-0.383082
0.00465493
-0.382977
-0.000621575
-0.381674
-0.00770472
-0.378992
-0.0167027
-0.374764
-0.0276131
-0.368972
-0.0403684
-0.36184
-0.0549264
-0.353805
-0.0713762
-0.345326
-0.0898463
-0.336722
-0.110508
-0.328104
-0.132958
-0.319268
-0.310593
-0.154854
0.112883
-0.270756
-0.137469
0.0904865
-0.270648
0.0707133
-0.272213
0.0535213
-0.275121
0.038671
-0.279408
0.0259753
-0.285085
0.0153174
-0.291953
0.00663374
-0.299676
-0.000103569
-0.307869
-0.00493135
-0.316214
-0.00791395
-0.324507
-0.00914142
-0.332634
-0.0087352
-0.340491
-0.00682868
-0.348094
-0.00359751
-0.355563
0.00079588
-0.363471
0.00622955
-0.372278
0.0124275
-0.381012
0.0179253
-0.384825
0.0192201
-0.374106
0.0148077
-0.344375
0.0109408
-0.342052
0.00927704
-0.374003
0.00653364
-0.382924
0.00449174
-0.383346
0.00302389
-0.38631
0.00143958
-0.389961
-0.000624058
-0.392529
-0.00343601
-0.39366
-0.00725796
-0.393163
-0.0123052
-0.390986
-0.0187398
-0.386982
-0.0266408
-0.381051
-0.0360098
-0.373238
-0.0468105
-0.363801
-0.0590234
-0.353158
-0.0726798
-0.341723
-0.087855
-0.329783
-0.104626
-0.317472
-0.122764
-0.304919
-0.292852
-0.141728
0.0986747
-0.238989
-0.119824
0.0801188
-0.240064
0.063966
-0.242884
0.0500507
-0.247151
0.038163
-0.252859
0.0281003
-0.260027
0.0197108
-0.268499
0.012896
-0.277984
0.00759841
-0.288124
0.00377118
-0.298598
0.00135954
-0.309176
0.000298344
-0.319711
0.000521649
-0.330079
0.00193611
-0.340247
0.00444534
-0.350309
0.00795568
-0.360817
0.0124647
-0.372299
0.0175281
-0.383318
0.0213678
-0.387669
0.019696
-0.373208
0.0120969
-0.339304
0.00700517
-0.341203
0.0034187
-0.376312
-0.00104717
-0.385918
-0.00457027
-0.388735
-0.00743753
-0.393672
-0.010239
-0.398545
-0.0131964
-0.401929
-0.0166315
-0.403343
-0.0207453
-0.402698
-0.025721
-0.399937
-0.0316913
-0.394946
-0.0387197
-0.387678
-0.0468123
-0.378227
-0.055955
-0.366863
-0.0661505
-0.353987
-0.0774246
-0.339997
-0.0897926
-0.325206
-0.103209
-0.309825
-0.117537
-0.294106
-0.278751
-0.132699
0.087681
-0.209603
-0.10469
0.0729502
-0.211968
0.0602307
-0.216047
0.0493595
-0.221651
0.0401413
-0.22874
0.0323793
-0.237327
0.0259152
-0.247289
0.0206376
-0.25837
0.0164775
-0.270244
0.0133874
-0.282593
0.0113249
-0.295177
0.0102516
-0.307837
0.0101379
-0.320436
0.010946
-0.332914
0.0126409
-0.345347
0.0152216
-0.358302
0.0188232
-0.372423
0.0225579
-0.385229
0.0244648
-0.389422
0.0194869
-0.369741
0.00858698
-0.331555
0.00234665
-0.339707
-0.00317465
-0.377062
-0.00922559
-0.387577
-0.0142685
-0.392731
-0.0186538
-0.399522
-0.0227064
-0.405768
-0.0266883
-0.410086
-0.0308803
-0.411954
-0.0354295
-0.411397
-0.0404999
-0.40832
-0.0462042
-0.402646
-0.0525974
-0.394371
-0.0596894
-0.383624
-0.0674759
-0.370686
-0.0759594
-0.35595
-0.0851452
-0.33982
-0.0950157
-0.322642
-0.105483
-0.30472
-0.116396
-0.286396
-0.268346
-0.127662
0.0806306
-0.182793
-0.0937871
0.069354
-0.186444
0.0596971
-0.191754
0.0514854
-0.198621
0.0445419
-0.206999
0.0386878
-0.216896
0.0337732
-0.228208
0.0296884
-0.240712
0.0263636
-0.254106
0.0237561
-0.268089
0.0218372
-0.282419
0.0205914
-0.296932
0.0200181
-0.311492
0.0201291
-0.326033
0.0209382
-0.340617
0.0225684
-0.3559
0.0251572
-0.372525
0.0273141
-0.386465
0.0269603
-0.389716
0.0183953
-0.363379
0.00455081
-0.321435
-0.0031355
-0.337217
-0.0104305
-0.376365
-0.0179385
-0.38798
-0.0245853
-0.395199
-0.0304946
-0.403804
-0.0358795
-0.411502
-0.0409982
-0.416844
-0.0460519
-0.419347
-0.0511759
-0.41908
-0.0565186
-0.415921
-0.0621822
-0.409822
-0.0682198
-0.400816
-0.0746423
-0.389066
-0.0814424
-0.374867
-0.0886088
-0.358619
-0.0961192
-0.340741
-0.103921
-0.321625
-0.111916
-0.30164
-0.119965
-0.281194
-0.260975
-0.127952
0.077581
-0.158697
-0.087257
0.069335
-0.163537
0.0622865
-0.169975
0.056284
-0.177987
0.0511805
-0.187533
0.046824
-0.198608
0.0430822
-0.211121
0.0398556
-0.224872
0.0370796
-0.239584
0.0347191
-0.254974
0.0327578
-0.270804
0.031199
-0.286918
0.0300599
-0.303178
0.0294025
-0.319549
0.0292797
-0.336068
0.0299447
-0.353578
0.0312908
-0.372346
0.0317786
-0.386896
0.0286931
-0.388036
0.0160396
-0.35357
-9.38188e-05
-0.309547
-0.00916745
-0.333736
-0.0181152
-0.374286
-0.0271054
-0.387048
-0.0353792
-0.396067
-0.0428068
-0.406477
-0.0495971
-0.41563
-0.0559266
-0.422089
-0.0619373
-0.425389
-0.0677704
-0.425581
-0.0735646
-0.42253
-0.0794183
-0.416213
-0.0853867
-0.406698
-0.0914801
-0.394184
-0.0976822
-0.37899
-0.103959
-0.361535
-0.110253
-0.34227
-0.116474
-0.321632
-0.122504
-0.300039
-0.128199
-0.277948
-0.256039
-0.133458
0.0786177
-0.137227
-0.0854212
0.0728265
-0.143136
0.0678505
-0.150584
0.0635623
-0.159615
0.0598446
-0.170196
0.0565743
-0.182311
0.0536398
-0.195876
0.0509536
-0.210705
0.0484592
-0.226546
0.0461296
-0.243132
0.0439597
-0.260238
0.0419653
-0.277717
0.0401731
-0.295428
0.0386924
-0.313408
0.0376306
-0.33168
0.0373072
-0.351285
0.0372599
-0.371696
0.0359256
-0.386325
0.0294179
-0.38364
0.0122503
-0.339836
-0.00540215
-0.296608
-0.0155331
-0.329542
-0.0262025
-0.370707
-0.0366753
-0.384731
-0.0465135
-0.39535
-0.0554786
-0.40748
-0.0637111
-0.418076
-0.0712964
-0.425741
-0.0783413
-0.42997
-0.0850026
-0.430749
-0.0914184
-0.427947
-0.0976847
-0.421571
-0.10386
-0.411717
-0.109952
-0.398626
-0.115936
-0.382649
-0.121756
-0.364239
-0.127326
-0.343884
-0.132517
-0.322079
-0.137175
-0.299286
-0.14115
-0.275982
-0.252819
-0.144352
0.0835689
-0.118207
-0.0881823
0.0796158
-0.125072
0.0761496
-0.133407
0.073072
-0.143332
0.0702932
-0.154819
0.0677153
-0.167842
0.0652442
-0.182314
0.0628045
-0.198063
0.0603477
-0.214855
0.0578549
-0.232445
0.0553298
-0.250621
0.0527944
-0.269245
0.0502769
-0.288173
0.0479345
-0.307559
0.0459387
-0.32743
0.0445782
-0.348935
0.0430012
-0.370394
0.039518
-0.384372
0.0288957
-0.375784
0.00718397
-0.322092
-0.0111444
-0.283405
-0.0223274
-0.324586
-0.0347265
-0.365566
-0.0465989
-0.381066
-0.057895
-0.393111
-0.0683646
-0.406805
-0.0780705
-0.418773
-0.0869292
-0.427749
-0.0950705
-0.433
-0.102662
-0.434458
-0.109854
-0.431997
-0.116738
-0.425672
-0.123374
-0.415599
-0.129762
-0.402076
-0.13587
-0.385483
-0.141629
-0.366315
-0.146937
-0.345099
-0.151643
-0.322394
-0.15556
-0.298717
-0.158507
-0.274565
-0.250545
-0.160374
0.0921725
-0.101432
-0.0952836
0.0894161
-0.109118
0.0868995
-0.118238
0.0845454
-0.128947
0.0822823
-0.141224
0.0800294
-0.155029
0.0777058
-0.170273
0.0752452
-0.186792
0.0726075
-0.204374
0.0697802
-0.222793
0.0667723
-0.241852
0.0636052
-0.261418
0.0603113
-0.281348
0.0570837
-0.30195
0.0541272
-0.323254
0.0516094
-0.346361
0.0480976
-0.367985
0.0418875
-0.380407
0.0266362
-0.363894
0.000930819
-0.300831
-0.0172571
-0.270699
-0.0295896
-0.318717
-0.043666
-0.358867
-0.0568112
-0.376131
-0.0694643
-0.389409
-0.0813716
-0.40448
-0.0925148
-0.417724
-0.10266
-0.428072
-0.111953
-0.434398
-0.120564
-0.436598
-0.128675
-0.434519
-0.136364
-0.428311
-0.143699
-0.418092
-0.150653
-0.40425
-0.157192
-0.38717
-0.163239
-0.367398
-0.168686
-0.345494
-0.173397
-0.322065
-0.177153
-0.297724
-0.17975
-0.272982
-0.248401
-0.181054
0.104056
-0.0866572
-0.106346
0.101891
-0.0950396
0.099798
-0.104859
0.0977143
-0.116262
0.0955769
-0.129224
0.0933136
-0.143696
0.0908512
-0.159585
0.0881312
-0.176739
0.085121
-0.194965
0.0818117
-0.214056
0.0782117
-0.233828
0.0743301
-0.254139
0.070232
-0.274899
0.0661173
-0.296542
0.0621291
-0.319032
0.058228
-0.343284
0.052425
-0.364052
0.0423664
-0.373245
0.0221999
-0.347625
-0.00589613
-0.277597
-0.023461
-0.258916
-0.0373068
-0.311518
-0.0529849
-0.350636
-0.0672627
-0.370024
-0.0811426
-0.384334
-0.0944184
-0.400542
-0.106918
-0.414979
-0.118353
-0.426682
-0.128855
-0.434088
-0.138569
-0.437069
-0.147741
-0.435359
-0.156413
-0.429301
-0.164669
-0.418966
-0.172452
-0.404877
-0.179721
-0.387406
-0.186382
-0.367152
-0.192325
-0.3447
-0.197407
-0.320707
-0.201496
-0.295791
-0.204343
-0.270603
-0.245664
-0.205773
0.118813
-0.0736229
-0.120921
0.116693
-0.0826052
0.114548
-0.0930539
0.112325
-0.105071
0.10996
-0.118626
0.107383
-0.13366
0.104527
-0.150079
0.10134
-0.167747
0.0977942
-0.18649
0.0938798
-0.206115
0.0895959
-0.226441
0.0849277
-0.247308
0.0799847
-0.268743
0.0749686
-0.291268
0.0698373
-0.314597
0.064016
-0.339105
0.0556627
-0.358274
0.0410339
-0.362104
0.0164348
-0.327397
-0.0125931
-0.253789
-0.0295125
-0.248022
-0.0454392
-0.30237
-0.0626575
-0.340887
-0.0779886
-0.36278
-0.0929429
-0.378002
-0.10742
-0.395126
-0.121195
-0.410596
-0.13391
-0.423569
-0.145693
-0.431982
-0.156599
-0.43577
-0.166984
-0.434356
-0.176818
-0.428457
-0.186249
-0.417962
-0.195163
-0.403655
-0.203504
-0.385842
-0.211142
-0.36521
-0.21795
-0.342343
-0.22382
-0.317894
-0.228604
-0.292541
-0.232133
-0.266978
-0.24175
-0.234241
0.13603
-0.0620725
-0.138523
0.13348
-0.0715941
0.130866
-0.0826051
0.128138
-0.0951642
0.125228
-0.109226
0.12207
-0.124728
0.1186
-0.141582
0.114773
-0.159666
0.110563
-0.17882
0.10594
-0.198847
0.100891
-0.219576
0.0953722
-0.240812
0.0895234
-0.262765
0.0834677
-0.28593
0.0770125
-0.309703
0.0691724
-0.33366
0.0575136
-0.349828
0.0386088
-0.34721
0.0110651
-0.304635
-0.0187128
-0.229529
-0.0358432
-0.237105
-0.0539562
-0.291116
-0.0726857
-0.329604
-0.0890226
-0.354409
-0.104905
-0.370526
-0.120412
-0.388376
-0.135336
-0.404677
-0.149294
-0.418751
-0.162431
-0.427996
-0.174634
-0.432589
-0.186398
-0.43134
-0.197606
-0.425569
-0.208482
-0.414815
-0.218847
-0.400265
-0.228642
-0.382104
-0.237692
-0.361138
-0.245864
-0.337923
-0.253002
-0.313144
-0.258965
-0.287484
-0.263651
-0.261617
-0.236136
-0.26694
0.155284
-0.0517417
-0.158661
0.151888
-0.061773
0.148449
-0.073296
0.1449
-0.086326
0.141184
-0.100828
0.137222
-0.116717
0.132971
-0.133939
0.12837
-0.15235
0.123391
-0.171823
0.11796
-0.192109
0.112064
-0.213097
0.10562
-0.234519
0.0988051
-0.256836
0.0915011
-0.280248
0.0834159
-0.30397
0.0735651
-0.326883
0.0583706
-0.338414
0.0358588
-0.329165
0.00621382
-0.280117
-0.023869
-0.205203
-0.0423821
-0.224939
-0.0627758
-0.277613
-0.083083
-0.316678
-0.100404
-0.344895
-0.117174
-0.361915
-0.133511
-0.380466
-0.14943
-0.397359
-0.164523
-0.412324
-0.179086
-0.422048
-0.192665
-0.427444
-0.206004
-0.426117
-0.218774
-0.420451
-0.231364
-0.40926
-0.243479
-0.394416
-0.255146
-0.37578
-0.26609
-0.354467
-0.276183
-0.330891
-0.285194
-0.305856
-0.293012
-0.279943
-0.299534
-0.253838
-0.228118
-0.304698
0.175957
-0.0424902
-0.180511
0.171446
-0.052985
0.166944
-0.0649649
0.162362
-0.0783895
0.157652
-0.0932643
0.152741
-0.109477
0.147576
-0.126993
0.142096
-0.145656
0.13622
-0.165318
0.129882
-0.185743
0.123024
-0.206823
0.115583
-0.22828
0.107734
-0.250812
0.0991776
-0.27414
0.0891822
-0.297042
0.0774598
-0.318838
0.0583595
-0.323587
0.032976
-0.308634
0.00169442
-0.254244
-0.0284026
-0.181041
-0.0489284
-0.210839
-0.0717645
-0.261652
-0.0937933
-0.301922
-0.112311
-0.333991
-0.130021
-0.352089
-0.146853
-0.371712
-0.163738
-0.388654
-0.179619
-0.404627
-0.19573
-0.414012
-0.210598
-0.420422
-0.225737
-0.418466
-0.240177
-0.413004
-0.254769
-0.401023
-0.268843
-0.385914
-0.282746
-0.366522
-0.295924
-0.34487
-0.308435
-0.320764
-0.319907
-0.295456
-0.330307
-0.269202
-0.339451
-0.242861
-0.216843
-0.347345
0.197503
-0.0341361
-0.203482
0.191809
-0.0452005
0.185975
-0.0573569
0.180324
-0.0713106
0.174392
-0.0862787
0.168513
-0.102946
0.162223
-0.120476
0.15583
-0.139484
0.14884
-0.159016
0.141583
-0.179657
0.13359
-0.200495
0.125159
-0.222018
0.116164
-0.244497
0.106395
-0.267562
0.0947289
-0.289074
0.081602
-0.309912
0.0584279
-0.305106
0.0304171
-0.285792
-0.00208451
-0.227368
-0.0333089
-0.155872
-0.0562172
-0.194385
-0.080559
-0.244124
-0.105224
-0.284386
-0.124785
-0.321818
-0.143801
-0.340658
-0.160645
-0.362575
-0.178721
-0.378326
-0.194694
-0.396348
-0.212442
-0.403801
-0.228318
-0.411811
-0.245624
-0.40803
-0.261569
-0.403405
-0.278498
-0.389782
-0.294476
-0.374832
-0.310827
-0.354138
-0.326345
-0.332262
-0.341564
-0.307275
-0.3558
-0.281661
-0.369235
-0.254827
-0.381527
-0.228175
-0.201703
-0.392769
0.2183
-0.225561
0.21169
0.204596
0.197978
0.19085
0.183939
0.176524
0.169084
0.161035
0.152727
0.143692
0.134114
0.123947
0.112841
0.0999285
0.0853082
0.0600536
0.0303206
-0.00420142
-0.0372977
-0.0651108
-0.0903659
-0.11704
-0.1384
-0.158436
-0.175881
-0.194423
-0.210595
-0.229406
-0.246131
-0.265368
-0.282695
-0.301866
-0.319646
-0.338442
-0.356129
-0.374119
-0.390955
-0.407546
-0.422873
-0.437637
0.137009
-0.408597
0.118422
-0.369079
0.104265
-0.328594
0.0937669
-0.290099
0.0861938
-0.255737
0.0809206
-0.22578
0.0775808
-0.199651
0.0757658
-0.176824
0.0748409
-0.157356
0.0739296
-0.141625
0.0720834
-0.130029
0.0684607
-0.122935
0.0622434
-0.120199
0.0530848
-0.122406
0.0398579
-0.12745
0.02413
-0.138133
-0.139029
0.112691
-0.38078
0.0956786
-0.346062
0.0828717
-0.310193
0.0735747
-0.275609
0.066962
-0.244317
0.0624183
-0.216791
0.0596035
-0.192727
0.0582301
-0.171645
0.0578079
-0.153398
0.0576332
-0.138149
0.0568963
-0.126187
0.054751
-0.117844
0.050493
-0.11312
0.0434271
-0.112613
0.0329543
-0.114313
0.018704
-0.121259
-0.117723
0.0900097
-0.353789
0.0742745
-0.323672
0.0625444
-0.292129
0.0541521
-0.261197
0.048295
-0.232744
0.0443874
-0.207454
0.0420458
-0.185222
0.0410738
-0.165751
0.0410898
-0.148707
0.0415388
-0.134077
0.0417534
-0.122037
0.0409558
-0.112808
0.0385009
-0.106522
0.0336102
-0.103646
0.0258575
-0.102526
0.0145802
-0.105965
-0.0991252
0.0690685
-0.328155
0.0544981
-0.302035
0.0436482
-0.27445
0.0360183
-0.246973
0.0308223
-0.221179
0.0274832
-0.197961
0.0255988
-0.177383
0.0249727
-0.159352
0.0253523
-0.143475
0.0263194
-0.12957
0.027338
-0.117695
0.0277444
-0.107942
0.0269461
-0.100515
0.0241276
-0.0956577
0.0189545
-0.0921979
0.0107104
-0.0925599
-0.0832275
0.0501368
-0.303527
0.0365408
-0.281175
0.0264166
-0.257226
0.0193962
-0.233014
0.014771
-0.209772
0.0119321
-0.188489
0.0105122
-0.169468
0.0102179
-0.152687
0.0109121
-0.137907
0.0123039
-0.12479
0.0139738
-0.113264
0.015404
-0.103323
0.0160731
-0.0951652
0.0151946
-0.0887691
0.012475
-0.0834565
0.00713582
-0.081167
-0.0699875
0.0331728
-0.280364
0.0205033
-0.261232
0.0110299
-0.240578
0.00448349
-0.219391
0.000345187
-0.198653
-0.00203486
-0.179218
-0.00305354
-0.161641
-0.00299754
-0.146007
-0.00201885
-0.13221
-0.000278947
-0.119901
0.00191035
-0.108856
0.00418124
-0.0990116
0.00609448
-0.0904939
0.00696385
-0.0830338
0.00651848
-0.0763683
0.00385645
-0.0718061
-0.0593587
0.0183067
-0.258298
0.00642717
-0.24223
-0.00247983
-0.224591
-0.00860692
-0.206228
-0.0123823
-0.187884
-0.0143234
-0.170322
-0.0149633
-0.15408
-0.0145632
-0.139513
-0.0133088
-0.126588
-0.0112891
-0.115051
-0.00868959
-0.104582
-0.00576018
-0.0950498
-0.0028329
-0.0864984
-0.000431551
-0.078466
0.00115378
-0.0709226
0.000923612
-0.0644673
-0.0512331
0.00535427
-0.237774
-0.00575637
-0.224275
-0.0141547
-0.209345
-0.0199189
-0.193615
-0.0233924
-0.177559
-0.0250035
-0.161856
-0.025209
-0.147012
-0.0244558
-0.133391
-0.0228874
-0.121263
-0.0206249
-0.110395
-0.0177217
-0.100531
-0.014303
-0.0914694
-0.010601
-0.0831448
-0.00695396
-0.0749889
-0.00364693
-0.067024
-0.001686
-0.0591277
-0.0455097
-0.00567835
-0.218429
-0.0161258
-0.207358
-0.0240669
-0.194895
-0.0295418
-0.181592
-0.0327645
-0.167752
-0.0341094
-0.153888
-0.0339911
-0.140467
-0.0327664
-0.12791
-0.0308274
-0.116449
-0.0282326
-0.106183
-0.0250668
-0.0968314
-0.0213145
-0.088289
-0.0171062
-0.0803447
-0.0125147
-0.0724866
-0.00785125
-0.064498
-0.00399572
-0.0556868
-0.0420904
-0.0150524
-0.200722
-0.0248116
-0.191572
-0.0323326
-0.181278
-0.0375655
-0.170198
-0.0406268
-0.158464
-0.0417701
-0.146455
-0.0413645
-0.134518
-0.0397982
-0.123055
-0.0373674
-0.11239
-0.0343447
-0.102644
-0.0307746
-0.0937632
-0.0266821
-0.0856613
-0.0221087
-0.0781093
-0.0169163
-0.0707749
-0.0112644
-0.0631419
-0.0058701
-0.0539609
-0.0407183
-0.0228714
-0.184273
-0.0319768
-0.176921
-0.0390916
-0.16853
-0.0441138
-0.159457
-0.0470794
-0.149696
-0.0481307
-0.139519
-0.0475327
-0.12915
-0.0456396
-0.118901
-0.0428195
-0.10908
-0.0393123
-0.099938
-0.0352206
-0.091555
-0.0306735
-0.0838186
-0.0256923
-0.0766069
-0.0201336
-0.0697512
-0.0138112
-0.0627774
-0.00719074
-0.0537836
-0.0409933
-0.0294711
-0.169529
-0.0378339
-0.16351
-0.0444968
-0.156718
-0.04931
-0.149397
-0.0522157
-0.14145
-0.0532699
-0.133032
-0.0526224
-0.124275
-0.0505287
-0.115383
-0.0473183
-0.10659
-0.0433313
-0.0981362
-0.0387877
-0.0902208
-0.0337213
-0.0829172
-0.028204
-0.0760644
-0.0222381
-0.0695626
-0.0155578
-0.0632055
-0.008125
-0.0548622
-0.0426579
-0.0349896
-0.156074
-0.0426146
-0.151329
-0.0487575
-0.145913
-0.0533097
-0.14008
-0.0561524
-0.133744
-0.0572581
-0.126968
-0.056678
-0.119804
-0.0545529
-0.112368
-0.0511229
-0.104794
-0.0466904
-0.0972568
-0.041565
-0.0899505
-0.035987
-0.0830164
-0.0299878
-0.0765019
-0.0235308
-0.0703751
-0.0166224
-0.0643856
-0.00870244
-0.056969
-0.0454603
-0.0397794
-0.144363
-0.0465267
-0.140498
-0.0520636
-0.136186
-0.0562513
-0.131601
-0.0589689
-0.126639
-0.0601323
-0.121325
-0.0597071
-0.115663
-0.0577337
-0.109692
-0.0543279
-0.103471
-0.0496892
-0.097092
-0.0440953
-0.0906693
-0.0378338
-0.0843339
-0.0311315
-0.0781939
-0.024128
-0.0723044
-0.0169374
-0.0664397
-0.0089488
-0.0597606
-0.0491522
-0.043975
-0.133942
-0.0498547
-0.130974
-0.0546689
-0.127627
-0.0583464
-0.124084
-0.0607836
-0.120273
-0.0618953
-0.116203
-0.0615994
-0.111872
-0.0598594
-0.107276
-0.0566852
-0.102424
-0.0521592
-0.0973384
-0.0464401
-0.0920556
-0.0397805
-0.0866127
-0.0324752
-0.0810756
-0.0248193
-0.0754986
-0.0170251
-0.0697386
-0.00894436
-0.0633166
-0.0535464
-0.047973
-0.125231
-0.0528175
-0.122885
-0.0568042
-0.120304
-0.0598456
-0.117623
-0.0618484
-0.114776
-0.0627237
-0.111766
-0.0624095
-0.108565
-0.0608363
-0.105176
-0.0579446
-0.101599
-0.0537198
-0.09781
-0.0482031
-0.0937908
-0.0415173
-0.0894962
-0.0338925
-0.0848849
-0.0256791
-0.0798905
-0.0172719
-0.0743256
-0.008809
-0.0679677
-0.0585587
-0.0517633
-0.11779
-0.0556476
-0.116111
-0.0587417
-0.114244
-0.0610294
-0.112302
-0.0624452
-0.110269
-0.0629173
-0.108154
-0.0623843
-0.105921
-0.0607778
-0.103577
-0.0580538
-0.101099
-0.0541458
-0.0984862
-0.0490089
-0.0956977
-0.0426195
-0.0926674
-0.0350729
-0.0892353
-0.0266275
-0.0851715
-0.0177126
-0.0801178
-0.00872614
-0.0738831
-0.064275
-0.0558541
-0.11193
-0.0586276
-0.110758
-0.0607356
-0.109497
-0.0621446
-0.108208
-0.0628223
-0.10687
-0.0627337
-0.105498
-0.0618138
-0.104084
-0.0600049
-0.102629
-0.0572538
-0.101106
-0.0535017
-0.0995182
-0.0486815
-0.0978347
-0.0427381
-0.0959769
-0.0355924
-0.0938088
-0.0272843
-0.0909819
-0.0181084
-0.0868825
-0.00863122
-0.0810483
-0.0707058
-0.0599766
-0.107217
-0.0617891
-0.106633
-0.0629558
-0.105981
-0.0634756
-0.105315
-0.0633346
-0.104629
-0.0625205
-0.103934
-0.0610156
-0.103229
-0.0588009
-0.102516
-0.0558309
-0.101796
-0.0520628
-0.101067
-0.047432
-0.100323
-0.0418696
-0.0994876
-0.0352171
-0.0985152
-0.027339
-0.0970342
-0.0182982
-0.0942326
-0.00875089
-0.0890547
-0.0780801
-0.0646523
-0.103952
-0.0653778
-0.103823
-0.0655578
-0.103706
-0.0651714
-0.103611
-0.0642032
-0.103526
-0.0626438
-0.103458
-0.0604857
-0.103405
-0.057723
-0.103365
-0.0543499
-0.103341
-0.0503579
-0.103334
-0.045729
-0.103345
-0.0403764
-0.103369
-0.0341985
-0.103374
-0.0269684
-0.103115
-0.018418
-0.101819
-0.00912706
-0.0975833
-0.0866629
-0.0692925
-0.101648
-0.0691243
-0.102102
-0.0684029
-0.102556
-0.0671449
-0.103033
-0.0653576
-0.103532
-0.0630464
-0.10406
-0.0602143
-0.104617
-0.0568653
-0.105204
-0.0530059
-0.105817
-0.0486455
-0.106457
-0.0437924
-0.107126
-0.0384391
-0.107833
-0.0325438
-0.108581
-0.0259032
-0.109285
-0.0179443
-0.109544
-0.00925924
-0.106289
-0.0962137
-0.0743756
-0.100769
-0.0731115
-0.101645
-0.0714004
-0.102597
-0.0692296
-0.103605
-0.0665982
-0.104656
-0.063514
-0.105749
-0.0599874
-0.106881
-0.0560306
-0.10805
-0.0516559
-0.109253
-0.0468765
-0.11049
-0.0417147
-0.111753
-0.0361961
-0.113049
-0.0303363
-0.114388
-0.0240884
-0.115749
-0.0170765
-0.117059
-0.00913852
-0.115033
-0.106479
-0.0792033
-0.100728
-0.0770648
-0.102211
-0.0744579
-0.103721
-0.0714202
-0.105271
-0.0679738
-0.106863
-0.06414
-0.108499
-0.0599386
-0.110175
-0.055389
-0.111891
-0.0505167
-0.113638
-0.0453544
-0.115405
-0.0399292
-0.117192
-0.0342712
-0.119001
-0.0284014
-0.120851
-0.0223669
-0.122694
-0.0160524
-0.124617
-0.0087525
-0.123926
-0.117188
-0.0842407
-0.102098
-0.0810344
-0.103982
-0.0774745
-0.105976
-0.0735592
-0.108037
-0.0693031
-0.11015
-0.0647309
-0.112304
-0.059869
-0.114496
-0.0547554
-0.116712
-0.0494246
-0.118946
-0.043905
-0.121192
-0.0382308
-0.123444
-0.0324416
-0.125695
-0.0265775
-0.127966
-0.020733
-0.130151
-0.0146715
-0.132666
-0.0079827
-0.132991
-0.127946
-0.0886819
-0.104178
-0.0846288
-0.10673
-0.080188
-0.109292
-0.0754227
-0.111882
-0.0703733
-0.114509
-0.0650778
-0.117164
-0.059581
-0.119835
-0.0539207
-0.122515
-0.0481352
-0.125194
-0.0422658
-0.127865
-0.0363542
-0.130517
-0.0304468
-0.133139
-0.0245794
-0.135758
-0.0188301
-0.138224
-0.0130688
-0.141162
-0.00706254
-0.14215
-0.138584
-0.0929396
-0.107734
-0.0878249
-0.110671
-0.0824548
-0.113722
-0.0768385
-0.116819
-0.0710088
-0.119945
-0.0650129
-0.123077
-0.0588966
-0.126202
-0.0527076
-0.129308
-0.0464947
-0.132385
-0.0403071
-0.135421
-0.0341927
-0.138404
-0.0282015
-0.141318
-0.0223722
-0.144201
-0.0167745
-0.146868
-0.0113758
-0.150041
-0.00607391
-0.151367
-0.149006
-0.0962259
-0.111866
-0.0902893
-0.115573
-0.0840572
-0.119213
-0.0776223
-0.122835
-0.0710421
-0.126454
-0.0643779
-0.130041
-0.0576806
-0.133591
-0.0510081
-0.137083
-0.0444172
-0.140503
-0.0379642
-0.143839
-0.0317032
-0.147077
-0.0256886
-0.150197
-0.0199702
-0.153239
-0.0146092
-0.156
-0.00964519
-0.159224
-0.00500545
-0.160663
-0.159091
-0.0989096
-0.117581
-0.0919506
-0.121646
-0.0848507
-0.125791
-0.0776323
-0.129921
-0.0703485
-0.13402
-0.0630635
-0.138044
-0.0558422
-0.141983
-0.0487479
-0.145815
-0.0418442
-0.149523
-0.0351933
-0.153088
-0.0288563
-0.156497
-0.0228951
-0.159722
-0.0173709
-0.1628
-0.0123366
-0.165532
-0.00789202
-0.168609
-0.00389721
-0.170019
-0.168744
-0.100318
-0.123692
-0.0925932
-0.12865
-0.0846968
-0.133406
-0.0767479
-0.138055
-0.0688218
-0.142619
-0.0609875
-0.147056
-0.0533159
-0.15135
-0.0458761
-0.155475
-0.0387363
-0.159409
-0.0319642
-0.16313
-0.0256272
-0.166617
-0.0197918
-0.169841
-0.0145346
-0.172819
-0.00990958
-0.175371
-0.00605636
-0.178097
-0.00278853
-0.179305
-0.17789
-0.100763
-0.131491
-0.0921245
-0.13675
-0.0834874
-0.142032
-0.0748865
-0.147195
-0.0664006
-0.152211
-0.0581022
-0.157039
-0.0500664
-0.161653
-0.0423667
-0.166023
-0.0350753
-0.170122
-0.0282646
-0.17392
-0.0220087
-0.177387
-0.0163823
-0.180486
-0.011473
-0.183216
-0.00732905
-0.185428
-0.00412504
-0.187589
-0.00166935
-0.188367
-0.186423
-0.0997708
-0.139416
-0.09048
-0.145707
-0.0811834
-0.151618
-0.0720173
-0.157293
-0.0630642
-0.162749
-0.0543979
-0.167946
-0.0460924
-0.172851
-0.0382237
-0.177421
-0.0308675
-0.181622
-0.0241018
-0.185412
-0.0180079
-0.18875
-0.0126688
-0.19159
-0.0081801
-0.193907
-0.00460187
-0.195584
-0.00210625
-0.196966
-0.000532613
-0.19705
-0.19421
-0.0975851
-0.149101
-0.0875831
-0.1556
-0.0777536
-0.162071
-0.0681473
-0.168267
-0.0588391
-0.174172
-0.0499102
-0.179727
-0.0414344
-0.184898
-0.0334888
-0.189627
-0.0261533
-0.193866
-0.0195124
-0.19756
-0.0136555
-0.200651
-0.00867401
-0.203081
-0.00467011
-0.204807
-0.00171381
-0.205735
2.49413e-05
-0.206105
0.000638272
-0.205167
-0.201074
-0.0940023
-0.1585
-0.0835399
-0.166201
-0.0732682
-0.173334
-0.0633406
-0.180043
-0.0537998
-0.186408
-0.0447197
-0.192327
-0.0361746
-0.19775
-0.028243
-0.202603
-0.02101
-0.206818
-0.0145672
-0.210321
-0.0090118
-0.213037
-0.00444364
-0.214895
-0.000973784
-0.215832
0.00130807
-0.215765
0.00222921
-0.214847
0.00182267
-0.212529
-0.206838
-0.089198
-0.169683
-0.0783311
-0.177477
-0.0678209
-0.18524
-0.0577141
-0.192525
-0.0480632
-0.199389
-0.0389417
-0.205692
-0.0304244
-0.211366
-0.0225924
-0.216314
-0.0155367
-0.220443
-0.00935611
-0.223656
-0.00415496
-0.22586
-4.35664e-05
-0.226967
0.00285488
-0.226892
0.00442471
-0.225553
0.00447865
-0.223025
0.00300884
-0.218938
-0.211311
-0.0832999
-0.18
-0.0722411
-0.189234
-0.0615906
-0.197726
-0.0514243
-0.205641
-0.0417804
-0.213054
-0.0327199
-0.21978
-0.0243173
-0.225717
-0.0166585
-0.230737
-0.00984103
-0.234715
-0.00397036
-0.237534
0.000839535
-0.239076
0.00446036
-0.239228
0.00674824
-0.237881
0.0075632
-0.234953
0.00671405
-0.230465
0.00416437
-0.224203
-0.214314
-0.0764156
-0.192041
-0.0653461
-0.201311
-0.0547601
-0.21062
-0.0446751
-0.219297
-0.035148
-0.227348
-0.026239
-0.234559
-0.0180245
-0.240785
-0.0105961
-0.24586
-0.00405771
-0.249627
0.00147672
-0.251939
0.00587559
-0.252648
0.00898484
-0.251608
0.0106334
-0.248687
0.0106525
-0.243804
0.00886344
-0.236972
0.00524375
-0.22814
-0.215699
-0.0689925
-0.202566
-0.0580409
-0.213592
-0.047595
-0.22388
-0.0377116
-0.233419
-0.0284073
-0.242221
-0.0197328
-0.250004
-0.0117694
-0.256561
-0.0046141
-0.261685
0.00162347
-0.265182
0.00681309
-0.266864
0.0107928
-0.26654
0.0133733
-0.264027
0.0143595
-0.259186
0.0135745
-0.251956
0.0108481
-0.242369
0.00619753
-0.230577
-0.215351
-0.0609884
-0.214637
-0.0504277
-0.225814
-0.0403449
-0.237311
-0.0307838
-0.24793
-0.0217966
-0.257631
-0.0134311
-0.266097
-0.00577149
-0.273046
0.00108347
-0.278226
0.00701137
-0.281391
0.0118531
-0.282299
0.0154048
-0.280702
0.0174371
-0.276386
0.0177321
-0.269229
0.0161233
-0.259233
0.0125241
-0.246528
0.00695245
-0.2314
-0.213225
-0.0532013
-0.224568
-0.0429391
-0.238072
-0.0332343
-0.250921
-0.0240275
-0.262838
-0.0153965
-0.273591
-0.00738833
-0.282844
-7.43486e-05
-0.290247
0.00645543
-0.295491
0.0120728
-0.298265
0.0165654
-0.298224
0.0196666
-0.295056
0.0211187
-0.28856
0.0206956
-0.278656
0.0182503
-0.265448
0.0137719
-0.249237
0.00744127
-0.230539
-0.209342
-0.0452362
-0.235692
-0.0354549
-0.25018
-0.0262329
-0.264624
-0.0174901
-0.278069
-0.00926524
-0.290099
-0.00160957
-0.300301
0.00540438
-0.308254
0.0116642
-0.313566
0.0169839
-0.315823
0.021105
-0.31459
0.0237286
-0.309511
0.0245493
-0.30039
0.023355
-0.287263
0.0200657
-0.270408
0.0147752
-0.250344
0.00776645
-0.227841
-0.20363
-0.372479
-0.256663
0.392077
-0.352242
-0.255616
-0.331525
-0.253096
-0.310373
-0.24911
-0.289017
-0.243863
-0.267487
-0.237478
-0.24598
-0.230164
-0.224568
-0.222086
-0.203383
-0.213436
-0.182533
-0.204371
-0.162088
-0.195045
-0.142159
-0.185578
-0.122794
-0.176067
-0.104059
-0.166581
-0.0860285
-0.157175
-0.0686558
-0.1479
-0.0520914
-0.138745
-0.0361471
-0.129766
-0.0210689
-0.120923
-0.00652067
-0.112264
0.00713649
-0.103782
0.0203927
-0.0955135
0.0327728
-0.087499
0.0448806
-0.079741
0.0561491
-0.0723324
0.0673031
-0.0652188
0.0776671
-0.0586365
0.0881753
-0.052449
0.0979886
-0.0469843
0.108191
-0.0420749
0.117846
-0.0381086
0.128092
-0.0350231
0.138039
-0.033044
0.148685
-0.0320798
0.159393
-0.0323705
0.17077
-0.0337605
0.182713
-0.0366063
0.194879
-0.0406934
0.208231
-0.04622
0.221063
-0.0527405
-0.060383
-0.398579
-0.281575
0.419593
-0.376945
-0.279644
-0.354802
-0.27618
-0.332248
-0.271223
-0.309426
-0.264955
-0.286456
-0.257539
-0.263473
-0.249179
-0.240601
-0.240063
-0.21796
-0.230387
-0.195661
-0.220324
-0.173804
-0.210032
-0.15248
-0.199638
-0.131767
-0.189243
-0.111722
-0.178933
-0.0923861
-0.168763
-0.0738056
-0.158773
-0.0559835
-0.148982
-0.0389486
-0.139412
-0.0226826
-0.13006
-0.00717608
-0.120956
0.00759251
-0.112096
0.0216697
-0.103535
0.0350745
-0.0952786
0.0478759
-0.0873733
0.0600815
-0.0798451
0.0718284
-0.0727644
0.0831034
-0.0662125
0.0940976
-0.060253
0.104783
-0.0549903
0.115393
-0.0505154
0.125932
-0.0469819
0.136572
-0.0444936
0.147326
-0.0431103
0.158382
-0.042914
0.169737
-0.0439525
0.181654
-0.0463298
0.194097
-0.0501021
0.207211
-0.0552357
0.220892
-0.0616751
0.235257
-0.069195
-0.077681
-0.420726
-0.306665
0.442435
-0.398294
-0.303909
-0.375262
-0.299553
-0.351744
-0.293669
-0.327882
-0.286432
-0.30381
-0.278032
-0.279671