/*--------------------------------*- C++ -*----------------------------------*\
  =========                 |
  \\      /  F ield         | OpenFOAM: The Open Source CFD Toolbox
   \\    /   O peration     | Website:  https://openfoam.org
    \\  /    A nd           | Version:  6
     \\/     M anipulation  |
\*---------------------------------------------------------------------------*/
FoamFile
{
    version     2.0;
    format      ascii;
    class       surfaceVectorField;
    location    "1.89";
    object      Uf;
}
// * * * * * * * * * * * * * * * * * * * * * * * * * * * * * * * * * * * * * //

dimensions      [0 1 -1 0 0 0 0];

internalField   nonuniform List<vector> 
1540
(
(-128.771 64.0015 0)
(-364.524 4.99295 0)
(169.19 -105.591 0)
(42.5596 -29.1292 0)
(202.209 -68.2548 0)
(105.64 -3.22801 0)
(191.945 -66.1912 0)
(75.8058 1.00342 0)
(193.849 -63.5137 0)
(176.326 -0.186134 0)
(195.425 -59.4438 0)
(88.356 -0.154139 0)
(198.83 -54.9477 0)
(35.4863 -0.3328 0)
(200.451 -47.512 0)
(98.2978 -0.15849 0)
(203.153 -45.8483 0)
(28.7555 -0.264209 0)
(201.177 -41.7526 0)
(138.729 0.193235 0)
(197.641 -41.1583 0)
(91.572 0.220968 0)
(198.643 -32.6417 0)
(52.6519 -0.0625738 0)
(198.128 -27.9941 0)
(56.455 0.0321313 0)
(202.891 -29.856 0)
(131.485 -0.297651 0)
(195.742 -28.1181 0)
(96.1529 0.446836 0)
(204.476 -22.1007 0)
(107.826 -0.545865 0)
(204.887 -22.7734 0)
(106.153 -0.0256999 0)
(214.921 -18.7478 0)
(-1.49074 -0.627111 0)
(195.647 -17.5211 0)
(66.0918 1.20464 0)
(194.971 12.2279 0)
(-107.84 -23.7683 0)
(-177.209 15.7304 0)
(-102.122 59.9403 0)
(12.6168 -29.6882 0)
(46.4382 38.3975 0)
(0.0965194 -17.7515 0)
(47.1984 46.6397 0)
(-33.5892 0.929141 0)
(55.3923 38.7537 0)
(40.2699 -0.987253 0)
(-66.9266 43.8312 0)
(-14.9281 11.8039 0)
(-60.8133 36.8164 0)
(-128.692 -0.93047 0)
(-74.5254 28.9347 0)
(-16.2352 1.18203 0)
(-33.6442 24.6726 0)
(-139.338 -4.26084 0)
(34.9669 21.6295 0)
(7.48073 -6.51428 0)
(-55.5225 28.8557 0)
(-41.1807 5.87656 0)
(-88.248 16.0354 0)
(-101.035 1.98278 0)
(-10.7891 11.3337 0)
(-65.3237 -4.80904 0)
(19.265 15.8258 0)
(12.6323 -2.17601 0)
(9.17156 19.3706 0)
(-13.0078 1.07769 0)
(9.30795 14.2306 0)
(27.7863 -0.554374 0)
(-99.0544 17.8972 0)
(29.1779 6.74695 0)
(-126.836 10.5937 0)
(-154.105 1.10924 0)
(31.2962 8.92979 0)
(-111.755 -8.67862 0)
(169.171 14.184 0)
(9.20939 -22.2052 0)
(-148.155 15.0249 0)
(40.5701 -98.3403 0)
(22.3044 -32.754 0)
(-8.63871 -33.3158 0)
(3.77808 -12.9408 0)
(-55.861 -20.3201 0)
(-31.3131 5.54571 0)
(-50.5331 3.50189 0)
(21.8336 -1.50821 0)
(-69.7977 -13.6658 0)
(-32.3584 13.6873 0)
(-80.945 -19.592 0)
(-74.3258 0.159276 0)
(-81.8657 -15.029 0)
(-30.8512 1.27205 0)
(-96.111 -18.3527 0)
(-91.4606 -2.86821 0)
(-63.7107 -5.64559 0)
(-59.0944 -9.68177 0)
(-88.5795 -5.88419 0)
(-83.52 7.43086 0)
(-75.9246 -6.49829 0)
(-64.4043 1.19185 0)
(-43.6456 -5.74871 0)
(-71.2296 -6.82648 0)
(-27.365 -1.23422 0)
(-9.65525 -3.19354 0)
(8.88718 -10.5251 0)
(-39.6762 -1.18807 0)
(46.5711 1.47652 0)
(41.1154 -2.90961 0)
(-24.2716 -1.45035 0)
(21.9458 11.1746 0)
(-113.894 -15.3841 0)
(12.2301 6.71066 0)
(-7.13196 -0.616079 0)
(-123.833 -15.3513 0)
(155.534 13.7382 0)
(-78.6202 5.37068 0)
(-112.573 22.9057 0)
(-78.0317 45.7944 0)
(9.5971 -32.8116 0)
(35.3218 8.56856 0)
(5.19361 -24.0224 0)
(41.6609 8.15458 0)
(-22.4327 4.92603 0)
(18.7783 -1.60821 0)
(8.44653 0.728739 0)
(-27.3441 15.4536 0)
(-21.5052 18.1963 0)
(-26.1855 11.7097 0)
(-51.2226 0.045977 0)
(-38.3754 8.26903 0)
(-31.7433 2.46375 0)
(-55.7329 1.8693 0)
(-75.953 -1.17132 0)
(-76.3437 -3.37665 0)
(-52.1007 -7.66682 0)
(-61.9002 8.97308 0)
(-104.398 6.52813 0)
(-56.6759 -0.164156 0)
(-15.9121 0.865342 0)
(-38.5138 -3.63352 0)
(-84.2251 -7.96161 0)
(-27.3212 -4.91093 0)
(10.9338 -3.89306 0)
(-3.50271 3.85366 0)
(-28.1215 -2.67671 0)
(15.0526 1.64956 0)
(16.5789 -4.06931 0)
(59.9341 15.1476 0)
(-8.04097 8.36953 0)
(24.715 9.92517 0)
(47.3731 8.91186 0)
(6.65075 8.59209 0)
(-77.3438 -14.2222 0)
(158.949 14.1539 0)
(22.5835 -14.6708 0)
(-98.921 20.8927 0)
(40.2831 -95.2423 0)
(16.6928 -34.5419 0)
(-11.4635 -14.3511 0)
(0.162142 -18.9636 0)
(-55.5476 8.55412 0)
(-12.0613 9.2358 0)
(-51.1957 21.7653 0)
(2.53154 0.30319 0)
(-37.5742 9.10865 0)
(-16.5545 16.8646 0)
(-57.9147 -0.13367 0)
(-60.3052 2.03447 0)
(-66.6308 -1.89938 0)
(-46.3764 3.31586 0)
(-74.5882 -5.03398 0)
(-83.2093 -0.393409 0)
(-71.3435 -0.39014 0)
(-62.6135 -7.98402 0)
(-61.1639 -0.976706 0)
(-100.893 5.89191 0)
(-40.2773 -7.30247 0)
(9.39265 -0.440055 0)
(-35.7899 -8.1996 0)
(-58.5682 -8.24207 0)
(4.91443 -1.86168 0)
(-17.4869 -6.43708 0)
(-4.29197 -9.362 0)
(-7.47503 -2.10131 0)
(-8.14759 2.39156 0)
(-7.08171 -3.82832 0)
(-18.2036 -1.56327 0)
(-36.8133 8.99803 0)
(-35.0671 -18.2612 0)
(46.5758 9.96583 0)
(44.9423 -10.231 0)
(-32.9431 -19.2228 0)
(137.668 16.9628 0)
(-61.2179 4.68407 0)
(-80.0645 27.0722 0)
(-69.8411 35.5485 0)
(9.85919 -33.6989 0)
(31.5789 -2.13749 0)
(10.9307 -28.8785 0)
(46.6988 -2.22714 0)
(10.3272 7.75768 0)
(21.952 -3.10714 0)
(19.0739 2.7224 0)
(-34.4553 8.91419 0)
(-13.4843 22.3791 0)
(-47.7729 1.25916 0)
(-51.7541 3.33641 0)
(-60.3018 0.929603 0)
(-42.7726 4.5407 0)
(-73.8124 -6.01465 0)
(-80.7131 0.927394 0)
(-86.171 -4.19463 0)
(-59.7249 -6.77582 0)
(-32.7649 5.05293 0)
(-103.613 2.55402 0)
(-6.07426 -2.21094 0)
(36.0737 -2.10821 0)
(-40.985 -6.60279 0)
(-35.5723 -6.06015 0)
(-33.7504 -7.10882 0)
(-24.2689 -6.88923 0)
(-8.24002 2.71762 0)
(-24.5216 -3.6957 0)
(-37.6186 5.03029 0)
(-10.4018 -1.99214 0)
(31.1991 23.7112 0)
(-74.4799 4.69693 0)
(64.3877 10.1446 0)
(24.0036 7.89155 0)
(35.397 7.1794 0)
(-60.7316 -17.4109 0)
(117.692 19.1751 0)
(30.5285 -14.0806 0)
(-70.3633 24.2825 0)
(51.5416 -92.7112 0)
(16.0377 -35.7532 0)
(13.5577 -12.8915 0)
(5.15543 -25.1652 0)
(-14.6207 12.5101 0)
(24.2334 10.5125 0)
(-30.2932 23.9571 0)
(6.83244 4.2545 0)
(-26.4392 15.4139 0)
(-13.6096 22.0023 0)
(-46.0968 8.01402 0)
(-47.3615 5.25815 0)
(-59.6358 6.4804 0)
(-51.14 5.8643 0)
(-69.9265 0.42163 0)
(-74.3431 1.93342 0)
(-69.9577 -2.33092 0)
(-62.039 -6.77276 0)
(-36.3399 -3.02223 0)
(-92.0265 0.452911 0)
(8.65367 -4.41132 0)
(19.3342 -4.9203 0)
(-19.2152 -5.67149 0)
(-33.5615 -4.31835 0)
(-17.4391 -3.42549 0)
(-13.7018 -7.00023 0)
(-26.936 -7.34785 0)
(-23.34 -3.10214 0)
(-47.6266 -2.37842 0)
(-39.4619 -0.698968 0)
(-79.0053 -11.2072 0)
(-75.7648 6.65809 0)
(-87.7799 -18.2178 0)
(-0.232691 8.43997 0)
(0.525471 -6.88508 0)
(-70.106 -22.93 0)
(108.956 19.2079 0)
(-47.675 4.15423 0)
(-57.727 29.1381 0)
(-64.726 26.2669 0)
(11.833 -34.0863 0)
(34.3434 -7.38055 0)
(14.1818 -34.8504 0)
(47.4449 2.69909 0)
(32.5954 9.23168 0)
(13.4006 6.0742 0)
(17.8162 7.58268 0)
(-31.0258 13.8005 0)
(-11.1082 26.3455 0)
(-51.81 3.2943 0)
(-42.0805 7.29004 0)
(-62.1243 0.914253 0)
(-46.4235 6.87264 0)
(-69.7352 -4.41732 0)
(-64.9145 2.67746 0)
(-80.2439 -4.22912 0)
(-56.1392 -5.7454 0)
(-36.3779 -0.879517 0)
(-82.5456 -2.28871 0)
(-21.998 -5.47198 0)
(6.40294 -5.81904 0)
(-28.2895 -6.40624 0)
(-33.3328 -3.92513 0)
(-21.4891 -6.53486 0)
(-13.7387 -7.42525 0)
(-37.5957 3.04813 0)
(-26.1963 -2.09547 0)
(-66.519 8.12107 0)
(-35.202 1.10876 0)
(5.10648 25.7318 0)
(-89.7064 2.1815 0)
(29.9527 1.74299 0)
(5.75771 6.88709 0)
(18.9438 3.81574 0)
(-67.5538 -22.2419 0)
(98.4083 20.3919 0)
(36.2773 -10.4776 0)
(-50.2043 25.7863 0)
(61.1308 -90.3218 0)
(17.1449 -36.516 0)
(25.5915 -14.3857 0)
(10.8117 -31.376 0)
(4.73833 13.1148 0)
(32.9279 11.2703 0)
(-13.8832 25.0431 0)
(11.3103 9.40311 0)
(-19.1669 18.2207 0)
(-9.55792 26.862 0)
(-35.9647 9.5392 0)
(-32.6844 8.93221 0)
(-45.2611 7.86044 0)
(-45.3388 7.78148 0)
(-54.8111 0.22132 0)
(-59.6202 3.61108 0)
(-55.8542 -5.47205 0)
(-50.8364 -5.64341 0)
(-38.5655 -7.16459 0)
(-64.7884 -3.36927 0)
(-4.82067 -4.07616 0)
(2.03395 -7.92809 0)
(-18.9465 -4.50475 0)
(-30.7835 -3.04226 0)
(-20.4208 -3.68375 0)
(-8.63696 -7.33311 0)
(-27.3752 -4.05132 0)
(-36.8847 -1.66081 0)
(-55.001 -3.38293 0)
(-53.0537 2.83538 0)
(-87.4956 -15.6767 0)
(-87.0326 4.21242 0)
(-80.298 -16.3233 0)
(5.15646 6.43725 0)
(-5.92798 -6.08392 0)
(-76.1359 -26.8901 0)
(92.2191 20.0214 0)
(-36.525 1.23445 0)
(-40.7407 29.5519 0)
(-59.4205 17.507 0)
(13.9921 -34.2777 0)
(27.3937 -9.70733 0)
(17.2757 -39.8631 0)
(41.9784 8.09772 0)
(31.2315 9.84454 0)
(9.82543 13.0877 0)
(11.1993 12.5464 0)
(-20.5627 18.5315 0)
(-5.94116 29.8328 0)
(-41.2122 8.58618 0)
(-27.3056 10.9509 0)
(-55.7266 4.47566 0)
(-46.8963 9.20043 0)
(-59.128 -1.42774 0)
(-53.9025 3.94359 0)
(-60.0328 -4.48184 0)
(-49.8149 -5.55493 0)
(-22.6431 -5.05951 0)
(-57.3229 -5.70613 0)
(-24.0812 -6.56065 0)
(4.36503 -7.8382 0)
(-20.5957 -6.008 0)
(-25.3082 -3.26011 0)
(-27.6163 -3.27921 0)
(-8.27556 -6.89431 0)
(-65.5456 7.91111 0)
(-27.15 0.709788 0)
(-80.5775 9.23108 0)
(-58.5455 3.77489 0)
(5.45269 25.1196 0)
(-81.3874 -1.16447 0)
(20.5572 -3.89698 0)
(19.3385 5.49322 0)
(5.08073 -0.11749 0)
(-69.6951 -25.9228 0)
(85.3239 20.339 0)
(40.7856 -7.33843 0)
(-35.0594 25.7594 0)
(67.5943 -87.1417 0)
(17.871 -36.8986 0)
(26.6177 -16.9569 0)
(15.2584 -35.8571 0)
(3.97296 13.4225 0)
(23.7231 12.0583 0)
(-9.34209 27.753 0)
(2.68208 13.8481 0)
(-10.4549 21.8719 0)
(-3.77419 29.9416 0)
(-32.0885 10.5384 0)
(-21.8006 13.0659 0)
(-41.0653 7.8995 0)
(-44.4911 10.078 0)
(-48.1437 -0.745701 0)
(-50.6645 4.63558 0)
(-48.6069 -6.19839 0)
(-43.8785 -5.50964 0)
(-28.7998 -8.06826 0)
(-50.2962 -6.94407 0)
(2.71093 -5.22212 0)
(-3.26882 -9.80762 0)
(-12.9525 -4.0361 0)
(-19.1433 -2.28114 0)
(-14.4417 -5.62859 0)
(-3.81932 -6.80123 0)
(-18.6394 -8.4808 0)
(-15.3951 0.972158 0)
(-55.7051 -6.67275 0)
(-37.8607 6.0915 0)
(-68.7048 -20.0295 0)
(-81.6203 -0.351981 0)
(-59.8893 -17.5962 0)
(27.4478 4.94227 0)
(-5.70165 -5.80773 0)
(-67.4749 -29.3095 0)
(79.8377 19.9826 0)
(-28.1788 -2.32523 0)
(-27.1036 28.709 0)
(-55.0896 10.0847 0)
(14.8883 -34.2677 0)
(14.8774 -10.1813 0)
(19.3185 -42.6972 0)
(27.0564 13.0831 0)
(19.4621 10.8677 0)
(3.98472 17.0747 0)
(-2.3826 16.1036 0)
(-13.0884 21.1836 0)
(-1.36133 31.6107 0)
(-33.2299 13.4032 0)
(-20.3926 15.0349 0)
(-50.0805 7.31881 0)
(-44.7455 11.7254 0)
(-49.9869 -0.0755979 0)
(-48.3644 4.62642 0)
(-47.1948 -6.88109 0)
(-37.9245 -5.78258 0)
(-23.3669 -8.88839 0)
(-42.8188 -8.43332 0)
(-25.7449 -6.10306 0)
(-6.50498 -9.65899 0)
(-9.83842 -5.32574 0)
(-19.7158 -3.27529 0)
(-13.0602 0.488983 0)
(-1.68395 -6.59987 0)
(-31.1449 18.6402 0)
(-16.1536 2.10247 0)
(-59.5433 11.6827 0)
(-39.6598 7.8664 0)
(11.3506 24.4933 0)
(-70.927 -4.78285 0)
(31.2927 -4.25673 0)
(31.3197 3.69589 0)
(2.36325 -2.99902 0)
(-59.5459 -27.5014 0)
(74.3892 20.1303 0)
(44.5941 -4.75298 0)
(-23.4561 24.5442 0)
(70.8841 -83.1017 0)
(16.8687 -36.8379 0)
(24.085 -18.7222 0)
(17.927 -38.1221 0)
(-4.7275 13.1705 0)
(7.67145 13.6845 0)
(-11.487 29.9201 0)
(-11.2166 16.7643 0)
(-6.76123 25.715 0)
(-1.45179 31.1487 0)
(-30.8764 12.7485 0)
(-19.5136 17.3924 0)
(-39.0258 8.64611 0)
(-41.5189 12.5221 0)
(-39.9457 -1.06172 0)
(-45.2158 4.71635 0)
(-35.3966 -5.99889 0)
(-32.6848 -6.22731 0)
(-24.6506 -9.30177 0)
(-37.1036 -9.10495 0)
(-1.2837 -7.59198 0)
(-8.60265 -11.1194 0)
(-11.1646 -4.31979 0)
(-15.4661 -2.65774 0)
(-10.8319 -3.16083 0)
(2.15722 -6.62065 0)
(-21.4803 -9.36859 0)
(-9.00668 2.768 0)
(-47.1998 -7.55947 0)
(-27.7452 9.47387 0)
(-55.4733 -25.1646 0)
(-72.7632 -4.26575 0)
(-47.7092 -22.4274 0)
(44.035 3.21065 0)
(-2.86039 -4.88795 0)
(-55.5138 -30.3045 0)
(69.2528 19.9516 0)
(-23.3207 -5.84484 0)
(-15.3099 27.0189 0)
(-52.6824 4.58648 0)
(13.3498 -33.9674 0)
(-0.241218 -8.51291 0)
(19.9745 -43.2488 0)
(7.05246 17.7182 0)
(3.46862 12.9715 0)
(-4.62433 18.3622 0)
(-18.0687 17.9059 0)
(-12.3841 22.3654 0)
(-1.52085 31.9073 0)
(-29.052 17.5744 0)
(-22.0954 19.0219 0)
(-43.6357 8.74818 0)
(-37.9207 13.9478 0)
(-41.7703 -0.572661 0)
(-45.1629 4.53398 0)
(-36.2987 -9.33852 0)
(-26.8115 -6.76221 0)
(-19.7408 -10.6965 0)
(-34.8496 -10.1398 0)
(-23.6789 -5.47441 0)
(-8.80658 -10.8733 0)
(-1.61829 -5.33814 0)
(-16.7906 -4.03652 0)
(-1.66914 -2.434 0)
(4.7828 -6.61747 0)
(-11.8905 22.1969 0)
(-6.16044 3.40685 0)
(-49.4484 11.233 0)
(-25.7766 11.8212 0)
(20.4465 23.15 0)
(-62.9379 -8.63417 0)
(48.6268 -1.66137 0)
(37.9967 1.44939 0)
(1.75837 -4.63674 0)
(-52.1343 -27.3752 0)
(64.8851 20.0615 0)
(48.6135 -2.80787 0)
(-14.5565 22.4611 0)
(70.9538 -78.455 0)
(12.7909 -36.1515 0)
(20.8061 -18.9876 0)
(18.5395 -38.3463 0)
(-15.8204 13.0794 0)
(-10.6049 16.5521 0)
(-18.0601 31.4152 0)
(-23.6937 18.1248 0)
(-9.48975 29.1059 0)
(-5.9825 31.0695 0)
(-29.7521 15.0363 0)
(-21.4365 21.0028 0)
(-35.4417 9.71791 0)
(-34.955 14.504 0)
(-34.069 -1.4759 0)
(-42.9316 4.39976 0)
(-26.4303 -6.39595 0)
(-20.8074 -7.50898 0)
(-22.5528 -10.672 0)
(-32.3816 -10.3822 0)
(-2.877 -9.81162 0)
(-7.54465 -12.103 0)
(-9.76858 -4.5985 0)
(-20.3728 -3.6058 0)
(-5.04372 0.865178 0)
(8.23017 -6.91277 0)
(-16.4586 -7.5562 0)
(-2.47582 4.12028 0)
(-35.4502 -7.10031 0)
(-13.8175 13.0082 0)
(-53.1668 -29.0395 0)
(-62.6962 -7.52688 0)
(-49.5601 -26.3648 0)
(34.3248 1.22399 0)
(-3.50369 -3.66571 0)
(-48.7256 -30.2537 0)
(60.5912 19.8425 0)
(-23.5018 -9.02741 0)
(-4.45154 24.9535 0)
(-53.3291 0.989581 0)
(7.92705 -33.2355 0)
(-16.3284 -5.26466 0)
(19.421 -41.9635 0)
(-13.0641 21.4309 0)
(-12.7332 16.233 0)
(-14.4604 17.5648 0)
(-32.5352 18.2613 0)
(-16.1882 22.3381 0)
(-6.16245 31.2384 0)
(-25.3545 20.702 0)
(-25.2614 21.8989 0)
(-38.4006 8.99392 0)
(-30.1057 15.7794 0)
(-33.6893 -1.95847 0)
(-43.1921 3.93917 0)
(-27.0473 -11.1338 0)
(-13.0596 -8.1583 0)
(-15.9555 -11.4164 0)
(-30.2017 -11.0754 0)
(-25.9482 -5.77589 0)
(-5.96191 -11.4785 0)
(-1.76337 -6.87367 0)
(-16.4588 -5.11735 0)
(5.52255 -5.29231 0)
(9.86959 -7.36813 0)
(4.10876 25.2366 0)
(-2.07431 4.20865 0)
(-37.374 12.0913 0)
(-16.118 15.6009 0)
(14.1163 21.2793 0)
(-57.8687 -10.745 0)
(50.6349 -0.938186 0)
(24.6971 -1.05841 0)
(1.19437 -5.56063 0)
(-46.7839 -27.1637 0)
(56.8658 19.9171 0)
(53.6351 -1.04598 0)
(-8.21471 19.9048 0)
(68.066 -73.4965 0)
(3.9062 -34.6463 0)
(19.1125 -18.1281 0)
(17.5653 -37.1778 0)
(-27.2182 13.7916 0)
(-28.8371 20.7624 0)
(-26.8091 32.42 0)
(-32.1801 18.2212 0)
(-13.5402 31.3971 0)
(-13.7213 29.9412 0)
(-28.5697 16.7645 0)
(-22.5153 23.3682 0)
(-30.8808 10.8123 0)
(-27.7857 16.0054 0)
(-26.674 -2.05082 0)
(-40.9452 3.52789 0)
(-15.3481 -7.36832 0)
(-6.28498 -9.26553 0)
(-18.6849 -11.4383 0)
(-27.3479 -10.8669 0)
(2.63519 -10.6621 0)
(-3.49159 -12.811 0)
(-4.18081 -4.6514 0)
(-18.8251 -4.69135 0)
(-2.94172 3.71646 0)
(12.5471 -7.44558 0)
(-18.084 -5.70681 0)
(0.924013 5.15504 0)
(-33.077 -6.91741 0)
(-8.88434 16.538 0)
(-59.4998 -31.3537 0)
(-55.3081 -9.0936 0)
(-56.1324 -28.6036 0)
(13.0078 -1.26886 0)
(-5.04652 -3.03029 0)
(-44.0821 -30.3565 0)
(52.9618 19.6017 0)
(-31.4806 -11.6944 0)
(4.49724 23.1772 0)
(-58.2466 -0.751476 0)
(-3.22965 -32.0296 0)
(-34.3616 -0.359057 0)
(18.6424 -39.5128 0)
(-29.4237 24.085 0)
(-30.4859 20.2797 0)
(-21.549 15.1425 0)
(-45.5151 17.4514 0)
(-20.9132 21.344 0)
(-10.851 29.879 0)
(-20.1942 22.6632 0)
(-25.0796 23.2979 0)
(-33.6864 8.69986 0)
(-24.6652 17.3244 0)
(-24.9171 -3.84021 0)
(-40.4416 2.67057 0)
(-16.6842 -12.3739 0)
(0.00796717 -10.0704 0)
(-10.4917 -12.0107 0)
(-23.5122 -11.2539 0)
(-25.8423 -7.25185 0)
(-2.92375 -11.8516 0)
(-1.44549 -8.5694 0)
(-17.7765 -6.21615 0)
(11.4952 -7.91128 0)
(14.2853 -8.25437 0)
(14.3691 27.1429 0)
(-3.32555 4.97543 0)
(-27.6987 14.3738 0)
(-13.134 19.1672 0)
(4.43037 19.4653 0)
(-51.2836 -11.1017 0)
(41.7125 -1.9136 0)
(3.60781 -3.59898 0)
(0.157853 -6.28179 0)
(-41.3029 -27.7594 0)
(49.4523 19.6116 0)
(59.1808 0.796176 0)
(-4.88485 17.5864 0)
(62.7161 -68.8514 0)
(-11.3184 -32.3753 0)
(18.4928 -17.0523 0)
(15.1618 -35.1895 0)
(-42.8047 15.5226 0)
(-49.0233 26.2722 0)
(-37.088 33.0015 0)
(-34.4843 16.8925 0)
(-13.2314 32.3583 0)
(-17.3414 27.5468 0)
(-27.8178 18.0918 0)
(-23.1547 24.7239 0)
(-26.9963 11.2861 0)
(-22.6443 17.2441 0)
(-20.2716 -3.35126 0)
(-38.3446 2.01313 0)
(-4.8427 -8.72763 0)
(4.62618 -11.5787 0)
(-14.0975 -11.2051 0)
(-20.2405 -10.6755 0)
(4.26032 -10.2145 0)
(-0.524353 -12.9989 0)
(-1.40228 -4.84514 0)
(-19.4186 -5.86224 0)
(-5.40682 7.14781 0)
(15.9536 -8.00408 0)
(-26.3825 -1.90018 0)
(-0.43976 6.28641 0)
(-33.4614 -6.35677 0)
(-9.29299 19.6096 0)
(-63.7623 -33.0774 0)
(-43.6603 -9.20786 0)
(-64.2213 -31.0563 0)
(-1.92888 -3.57029 0)
(-5.62373 -3.50529 0)
(-37.2184 -31.4217 0)
(45.4712 19.2601 0)
(-49.3435 -13.103 0)
(7.05926 22.6051 0)
(-69.2503 0.0613585 0)
(-21.4434 -30.4291 0)
(-56.1105 6.8966 0)
(18.2256 -36.474 0)
(-37.5745 25.2135 0)
(-53.331 24.4601 0)
(-16.9894 10.8126 0)
(-44.1146 14.88 0)
(-25.3206 19.6054 0)
(-16.8888 28.3612 0)
(-16.1135 23.4358 0)
(-22.2265 23.8238 0)
(-28.953 8.20446 0)
(-22.3403 18.4993 0)
(-18.9391 -6.05121 0)
(-36.1141 1.03414 0)
(-8.71794 -13.4205 0)
(6.90118 -12.578 0)
(-4.59673 -12.3912 0)
(-15.5374 -10.933 0)
(-25.0627 -9.48195 0)
(-0.522482 -11.7198 0)
(-1.49614 -10.0799 0)
(-18.6385 -7.33515 0)
(16.2022 -11.7011 0)
(17.072 -9.11022 0)
(21.1932 25.8054 0)
(-6.31625 5.97448 0)
(-16.3116 16.4907 0)
(-12.5379 21.9537 0)
(8.44149 19.0426 0)
(-36.4573 -10.7549 0)
(37.9913 -2.52822 0)
(-4.26008 -5.41714 0)
(0.366256 -6.86143 0)
(-32.5498 -29.0702 0)
(42.1577 19.283 0)
(60.723 2.3973 0)
(-3.79665 16.8635 0)
(56.0521 -66.2886 0)
(-31.7065 -29.9725 0)
(17.4145 -17.6448 0)
(8.18165 -32.6968 0)
(-57.3558 17.2805 0)
(-61.9948 31.7698 0)
(-46.0874 32.7281 0)
(-24.4725 13.7784 0)
(-11.8768 32.7523 0)
(-20.1869 25.0167 0)
(-26.3344 19.599 0)
(-22.8671 25.2372 0)
(-23.2919 11.1242 0)
(-21.4145 18.2018 0)
(-17.0905 -5.55066 0)
(-29.204 0.427845 0)
(1.3823 -10.7562 0)
(7.94176 -14.3839 0)
(-9.14239 -10.2467 0)
(-15.4755 -10.2753 0)
(5.06262 -8.45815 0)
(2.09277 -12.6076 0)
(0.415406 -5.21943 0)
(-20.8467 -7.0447 0)
(-9.96528 10.8512 0)
(18.0429 -8.46143 0)
(-35.5495 3.79203 0)
(-3.62714 7.57349 0)
(-29.5177 -4.89331 0)
(-12.1928 21.5767 0)
(-58.6799 -34.1197 0)
(-26.1815 -8.93229 0)
(-62.3972 -33.6406 0)
(-8.19163 -5.18481 0)
(-4.16996 -4.84766 0)
(-26.4153 -32.7094 0)
(37.2871 19.0224 0)
(-71.5131 -11.5113 0)
(-0.83381 24.0496 0)
(-89.1762 4.01784 0)
(-43.0224 -28.2457 0)
(-74.3716 15.127 0)
(5.67781 -34.1441 0)
(-27.4402 24.1905 0)
(-76.4947 27.1817 0)
(-0.357075 6.55473 0)
(-18.7568 11.1307 0)
(-29.1837 17.8491 0)
(-24.5956 27.8349 0)
(-15.5867 22.6195 0)
(-18.3755 23.9079 0)
(-18.2492 7.07944 0)
(-22.3697 18.4621 0)
(-13.9886 -9.14328 0)
(-15.3608 0.0112795 0)
(-7.70225 -14.9025 0)
(7.53958 -14.9985 0)
(-1.63999 -12.6582 0)
(-13.9644 -10.6542 0)
(-24.6452 -12.6841 0)
(2.63149 -11.1698 0)
(-2.81844 -11.6707 0)
(-18.3259 -8.40887 0)
(20.0682 -13.1366 0)
(17.3549 -9.89184 0)
(24.1313 24.1227 0)
(-6.9844 7.31956 0)
(-5.65172 16.7308 0)
(-11.105 23.4381 0)
(15.4819 19.1078 0)
(-16.9378 -10.2531 0)
(39.1692 -2.35467 0)
(-8.4564 -6.66526 0)
(1.75919 -6.77598 0)
(-20.168 -30.3712 0)
(34.6187 19.1323 0)
(51.6771 2.45702 0)
(-2.33663 19.1923 0)
(42.2532 -68.838 0)
(-51.3048 -27.3245 0)
(0.715557 -21.7317 0)
(-27.0718 -30.0833 0)
(-66.8378 18.2772 0)
(-64.5752 33.7859 0)
(-44.2854 30.5872 0)
(-2.69084 8.92586 0)
(-12.0287 33.0031 0)
(-28.144 24.6814 0)
(-22.3556 20.9397 0)
(-18.8099 24.9175 0)
(-5.87353 7.18932 0)
(-21.376 16.8508 0)
(-8.2698 -10.3011 0)
(2.33786 0.245476 0)
(1.85989 -12.7227 0)
(8.10128 -15.9888 0)
(-6.85513 -9.13657 0)
(-17.1613 -10.1095 0)
(8.09193 -4.95321 0)
(6.94421 -12.104 0)
(2.16665 -4.97334 0)
(-18.537 -8.03854 0)
(-13.251 10.6839 0)
(18.2019 -8.92823 0)
(-38.4686 6.72137 0)
(-11.5183 8.89565 0)
(-18.9498 -2.4556 0)
(-13.8977 22.2182 0)
(-49.8734 -35.2479 0)
(-9.20965 -8.32041 0)
(-56.6578 -37.0511 0)
(-7.50668 -6.24123 0)
(-0.454633 -6.72522 0)
(-13.5936 -33.8839 0)
(27.9679 19.1039 0)
(-82.3178 -6.08471 0)
(-9.63845 27.4346 0)
(-130.594 15.6173 0)
(-51.8498 -22.6049 0)
(-94.2785 25.5562 0)
(-56.9887 -33.6336 0)
(-0.969 19.2417 0)
(-79.0274 24.6638 0)
(13.35 6.3055 0)
(10.8067 7.52597 0)
(-33.3997 18.1832 0)
(-29.5674 29.2517 0)
(-14.5357 19.5428 0)
(-13.1211 23.0733 0)
(4.71535 12.3793 0)
(-25.6537 14.9688 0)
(-0.494137 -2.90479 0)
(19.3171 0.754694 0)
(-9.5472 -13.8983 0)
(6.90784 -15.1037 0)
(-0.404188 -13.0844 0)
(-15.226 -10.6809 0)
(-20.594 -17.5306 0)
(9.20368 -10.8421 0)
(-2.2684 -13.9534 0)
(-12.303 -9.18389 0)
(17.3283 -10.2279 0)
(16.1807 -10.153 0)
(15.9907 24.7303 0)
(-12.676 8.97926 0)
(-0.384199 14.8348 0)
(-8.53479 23.2416 0)
(24.3799 19.7725 0)
(-1.19397 -9.86816 0)
(45.9971 -0.508435 0)
(-2.07091 -7.5923 0)
(1.94484 -5.68593 0)
(-7.83238 -31.1307 0)
(26.742 19.2255 0)
(43.7629 -0.212607 0)
(-2.91943 23.3511 0)
(10.716 -80.6242 0)
(-64.2952 -19.3741 0)
(-43.4434 -34.5965 0)
(-91.7814 -28.3389 0)
(-68.4273 17.3666 0)
(-83.4922 27.1063 0)
(-31.4115 26.9905 0)
(59.5488 3.9072 0)
(-8.12908 31.8512 0)
(-34.4491 26.9756 0)
(-20.2026 20.2369 0)
(-11.5923 24.2536 0)
(6.16513 7.81705 0)
(-27.497 12.3911 0)
(7.02275 -6.84123 0)
(25.2933 0.670812 0)
(2.04733 -12.8813 0)
(10.4577 -14.6173 0)
(-2.66062 -8.53908 0)
(-17.0339 -10.3867 0)
(16.4706 0.0355147 0)
(17.3187 -12.0378 0)
(6.31187 -3.15704 0)
(-8.27843 -8.54897 0)
(-15.4655 8.09127 0)
(18.4979 -8.79194 0)
(-35.1718 6.85111 0)
(-22.4885 10.2109 0)
(-4.94585 0.333244 0)
(-11.1872 21.3525 0)
(-36.9688 -36.1547 0)
(3.49273 -7.86672 0)
(-45.5688 -40.7291 0)
(2.01723 -7.0548 0)
(4.31722 -8.69564 0)
(-2.31198 -34.2485 0)
(18.0019 19.4953 0)
(-90.2121 14.4859 0)
(-14.9363 32.3651 0)
(-176.323 40.538 0)
(-14.076 -10.9558 0)
(-135.209 35.8923 0)
(-33.0224 -32.3583 0)
(44.8507 10.5999 0)
(-22.1682 9.50336 0)
(56.777 6.21813 0)
(21.8503 2.74123 0)
(-37.1395 23.0835 0)
(-25.1068 36.157 0)
(-14.0978 15.9339 0)
(-9.31958 22.001 0)
(0.70039 5.81078 0)
(-37.7356 10.9444 0)
(16.2877 -6.95091 0)
(23.3353 -0.853051 0)
(-6.37896 -12.208 0)
(12.8694 -12.4014 0)
(5.80721 -13.6316 0)
(-9.74137 -11.1483 0)
(-8.64155 -23.3047 0)
(21.3718 -11.1347 0)
(4.04425 -16.5594 0)
(1.97132 -9.34184 0)
(10.6944 -5.24582 0)
(18.2943 -9.20757 0)
(2.66924 25.7689 0)
(-9.79729 10.7125 0)
(2.20592 11.0031 0)
(-7.14532 21.3815 0)
(33.2208 19.3236 0)
(10.6682 -9.80515 0)
(55.0052 1.54318 0)
(20.1223 -8.41632 0)
(-0.916842 -3.6392 0)
(1.49321 -30.7534 0)
(18.2386 19.438 0)
(77.4128 4.9261 0)
(-34.0311 24.9919 0)
(123.935 -80.0108 0)
(-15.9938 -15.5039 0)
(73.7316 -51.9802 0)
(-47.3791 -27.4503 0)
(-43.8073 8.16578 0)
(3.75002 20.9942 0)
(-59.0256 25.4798 0)
(-81.0419 4.22894 0)
(2.73021 28.9001 0)
(-24.0247 30.1197 0)
(-27.2651 16.815 0)
(-11.1129 24.9334 0)
(-13.663 0.663229 0)
(-25.7894 9.61462 0)
(14.4158 -8.83319 0)
(19.0966 -3.59809 0)
(10.9955 -12.1924 0)
(23.8865 -12.067 0)
(8.59825 -9.31082 0)
(-5.28637 -10.9985 0)
(30.5705 5.21059 0)
(31.7838 -12.508 0)
(16.318 0.275496 0)
(6.89745 -8.45105 0)
(-2.3169 4.87554 0)
(21.0426 -8.04289 0)
(-19.1648 5.11406 0)
(-34.7195 11.7655 0)
(6.99895 3.05406 0)
(-4.82839 19.7463 0)
(-12.3033 -35.1172 0)
(9.48176 -8.59876 0)
(-23.6573 -42.5043 0)
(24.8826 -7.7067 0)
(8.7181 -10.0409 0)
(5.65856 -32.7769 0)
(8.29233 19.9829 0)
(-114.384 13.3038 0)
(-54.4919 36.3691 0)
(-188.769 28.1877 0)
(30.3309 -8.23186 0)
(-125.427 24.9672 0)
(-146.008 -33.6427 0)
(-34.2394 12.1465 0)
(7.25982 12.0795 0)
(-42.6924 20.2787 0)
(-122.02 5.05528 0)
(-38.1566 30.261 0)
(-19.8992 29.6763 0)
(-2.68811 15.9402 0)
(-0.806312 21.4659 0)
(5.24559 4.76158 0)
(-6.38918 8.83901 0)
(24.9649 -7.02848 0)
(25.8364 -5.52589 0)
(10.8774 -11.1041 0)
(29.8808 -10.6898 0)
(20.5839 -12.7866 0)
(7.60115 -11.6051 0)
(6.41686 -27.729 0)
(35.0205 -11.6226 0)
(11.6773 -18.7896 0)
(16.9034 -8.77983 0)
(-10.7545 0.537318 0)
(19.0723 -6.6409 0)
(-20.6827 27.4607 0)
(-11.4996 12.386 0)
(3.67539 5.93564 0)
(-4.34698 18.2239 0)
(37.2916 15.8361 0)
(10.2476 -10.6998 0)
(63.274 3.22887 0)
(50.0223 -9.33059 0)
(-6.27181 -0.570623 0)
(6.6932 -28.4302 0)
(8.91504 19.5909 0)
(104.321 5.76617 0)
(-59.8193 26.3653 0)
(70.504 -55.2775 0)
(58.3702 -4.9259 0)
(-20.6635 -28.1889 0)
(-74.8904 -24.73 0)
(-83.0507 5.40257 0)
(-34.4544 18.1786 0)
(-96.0792 8.36462 0)
(-131.899 6.32892 0)
(18.2352 18.7244 0)
(11.1676 18.5007 0)
(3.05169 16.1952 0)
(-1.74972 22.9503 0)
(10.839 -0.755983 0)
(14.2944 8.07772 0)
(27.6104 -9.28309 0)
(32.7778 -7.1655 0)
(28.7364 -10.9095 0)
(42.7044 -10.7999 0)
(24.6926 -12.7177 0)
(14.1558 -11.3524 0)
(43.4964 7.64275 0)
(43.6671 -12.7978 0)
(24.3398 4.78633 0)
(17.432 -7.58254 0)
(19.4408 3.9457 0)
(10.8946 -6.33471 0)
(3.96593 3.16093 0)
(-29.4142 13.3532 0)
(8.36213 3.81394 0)
(-1.09183 17.9491 0)
(14.1336 -32.2742 0)
(8.35559 -11.0605 0)
(2.16851 -41.2752 0)
(50.2436 -8.58277 0)
(10.6559 -10.1455 0)
(7.64564 -28.9607 0)
(-0.637695 20.2569 0)
(-88.5116 16.4922 0)
(-57.5375 35.2131 0)
(-93.1382 6.93896 0)
(9.97136 -4.47362 0)
(-95.8039 10.1051 0)
(-72.9247 -24.4694 0)
(-84.4728 18.3814 0)
(-47.2228 17.0709 0)
(-24.7856 21.3597 0)
(-47.6895 0.493716 0)
(-5.78648 28.4219 0)
(0.261682 16.6433 0)
(16.4039 14.5114 0)
(8.61354 20.7809 0)
(32.5302 1.99555 0)
(18.977 6.5012 0)
(44.9905 -8.04637 0)
(45.8293 -8.38365 0)
(31.9866 -11.2864 0)
(46.3925 -9.52858 0)
(35.669 -8.61414 0)
(25.5248 -11.5825 0)
(15.2051 -25.5176 0)
(45.4599 -11.5188 0)
(3.98034 -17.8727 0)
(27.1919 -6.881 0)
(-36.1571 3.54973 0)
(8.76532 -3.82612 0)
(-35.8681 27.1343 0)
(-25.0128 13.3351 0)
(4.83465 1.69234 0)
(6.05863 15.4052 0)
(36.5951 9.00191 0)
(7.52185 -13.0455 0)
(63.9284 3.3849 0)
(66.9942 -10.2911 0)
(-14.5855 2.9986 0)
(4.33988 -24.0536 0)
(-0.939378 19.3453 0)
(62.8175 14.6406 0)
(-50.6894 29.2668 0)
(19.0344 -21.5285 0)
(80.575 -0.193337 0)
(-32.2803 -8.64095 0)
(32.5422 -19.4528 0)
(-9.72708 -0.280925 0)
(-14.2437 14.8661 0)
(-25.9397 -9.54541 0)
(-17.9981 2.07853 0)
(20.3253 4.87718 0)
(0.433847 12.1204 0)
(17.4765 11.9273 0)
(11.3313 21.0594 0)
(28.1109 -5.05653 0)
(31.1437 5.46157 0)
(44.6844 -10.9978 0)
(51.8458 -10.0039 0)
(42.2085 -9.33053 0)
(53.0721 -9.28652 0)
(37.8859 -17.4494 0)
(30.9817 -11.3124 0)
(54.8943 1.93893 0)
(51.6914 -12.5818 0)
(31.5507 3.58834 0)
(12.7501 -5.42202 0)
(22.2856 5.55512 0)
(-8.6409 -3.24705 0)
(15.3064 3.27724 0)
(-20.766 13.7713 0)
(14.2463 1.28429 0)
(7.91914 15.4715 0)
(31.5364 -28.8537 0)
(15.1778 -14.1261 0)
(14.8842 -36.9379 0)
(47.9932 -9.25034 0)
(7.12186 -8.95256 0)
(-2.5893 -23.5684 0)
(-9.37432 19.7904 0)
(-3.93165 8.71513 0)
(-36.9114 29.846 0)
(75.942 -10.4625 0)
(67.016 -8.00193 0)
(41.5094 4.63454 0)
(34.343 -16.0867 0)
(-17.7526 18.8145 0)
(-63.7375 20.6597 0)
(0.284241 23.606 0)
(50.0855 0.314984 0)
(-0.967104 28.8626 0)
(-27.3497 12.2427 0)
(30.09 15.4117 0)
(37.5711 18.0232 0)
(51.1489 2.0106 0)
(39.6354 3.40282 0)
(57.829 -6.72014 0)
(59.2735 -10.657 0)
(44.6098 -10.4746 0)
(47.2763 -7.99419 0)
(47.2501 -4.11078 0)
(41.4962 -11.4774 0)
(6.55967 -13.1147 0)
(43.5666 -10.0387 0)
(-28.3805 -4.78307 0)
(-3.07618 -3.23826 0)
(-48.4541 7.14815 0)
(13.3683 -1.99244 0)
(-29.9027 23.6846 0)
(-27.3157 12.6118 0)
(13.965 -1.09492 0)
(18.4916 12.7297 0)
(26.0565 1.84037 0)
(19.5048 -14.8819 0)
(37.9739 3.45041 0)
(27.4924 -9.99517 0)
(-30.0559 5.92634 0)
(-10.2011 -19.3166 0)
(-10.5864 17.9119 0)
(68.6275 20.784 0)
(-45.3752 23.3316 0)
(3.58368 -3.40637 0)
(66.605 -1.64316 0)
(-80.7242 -6.27059 0)
(-85.0008 -7.84462 0)
(11.0895 4.22887 0)
(-69.3008 11.6839 0)
(10.0043 -3.83123 0)
(90.5365 0.420834 0)
(20.2432 1.52487 0)
(-29.5824 11.2417 0)
(50.5725 5.9893 0)
(45.1996 15.0582 0)
(44.8612 -9.70519 0)
(46.4845 3.96117 0)
(46.5188 -13.6436 0)
(66.427 -10.819 0)
(43.2652 -9.30245 0)
(52.7051 -7.6761 0)
(40.2189 -18.7736 0)
(47.224 -11.287 0)
(30.4582 -6.93561 0)
(35.5496 -9.42864 0)
(37.3001 -9.25049 0)
(11.1827 -3.66588 0)
(38.5072 1.62956 0)
(8.30577 -2.06789 0)
(19.4182 4.25027 0)
(-21.9217 13.8049 0)
(28.7217 -0.927998 0)
(41.9417 12.1482 0)
(16.0719 -23.7632 0)
(26.1659 -14.0912 0)
(-12.9395 -32.304 0)
(-6.09425 -8.18196 0)
(-2.35935 -7.93561 0)
(-16.7427 -19.9778 0)
(-19.2794 17.7645 0)
(-8.76596 3.44714 0)
(-31.4917 24.3834 0)
(-46.1502 -7.20291 0)
(0.802188 2.01156 0)
(-83.1762 10.9295 0)
(28.8133 -4.22491 0)
(14.9079 4.73848 0)
(-13.8512 2.0951 0)
(40.12 11.1185 0)
(110.844 -2.04399 0)
(5.02307 23.6821 0)
(-7.73683 14.6728 0)
(43.0647 13.194 0)
(49.1376 11.3391 0)
(65.6463 3.12524 0)
(70.5896 1.75355 0)
(70.5243 -3.733 0)
(73.722 -11.2959 0)
(55.6801 -7.51248 0)
(28.9614 -6.2249 0)
(44.9842 -0.820156 0)
(50.0567 -10.6185 0)
(12.052 -1.37361 0)
(24.4317 -7.37037 0)
(-22.0802 10.1158 0)
(1.41864 -1.53261 0)
(-44.9499 11.0884 0)
(-19.5331 -0.638529 0)
(-1.1816 18.8128 0)
(-15.2078 11.0694 0)
(44.0542 -0.466276 0)
(47.2057 9.32102 0)
(-0.521628 0.533187 0)
(40.5694 -11.3053 0)
(-1.85607 4.18481 0)
(-5.44245 -8.09856 0)
(-45.875 5.64626 0)
(-13.9216 -17.2267 0)
(-20.2897 14.8973 0)
(17.7149 15.1706 0)
(-34.385 22.8463 0)
(49.7845 0.850375 0)
(64.8721 -1.12363 0)
(90.4607 -8.63856 0)
(78.6249 -8.20151 0)
(85.1551 -5.36417 0)
(8.80592 2.61386 0)
(55.4163 -1.09406 0)
(33.8899 0.86322 0)
(45.392 2.76944 0)
(19.8598 15.6528 0)
(77.4211 0.400783 0)
(51.9062 8.20791 0)
(77.1939 -10.3578 0)
(80.1019 1.77576 0)
(30.3186 -13.7002 0)
(71.0561 -6.71329 0)
(16.0056 -10.8644 0)
(43.4994 -4.82562 0)
(32.1313 -19.1049 0)
(58.649 -11.6264 0)
(7.14986 -11.6046 0)
(31.3184 -5.80903 0)
(-2.45865 -17.013 0)
(-3.73208 -0.932074 0)
(21.3455 -1.76492 0)
(-19.4 -2.12629 0)
(31.0952 3.38518 0)
(-17.8842 10.46 0)
(48.6965 -1.89362 0)
(68.591 8.22094 0)
(31.5587 -19.0657 0)
(54.1313 -10.2342 0)
(-10.0587 -29.7201 0)
(39.9958 -5.49747 0)
(-0.978878 -7.38371 0)
(-13.1028 -17.7941 0)
(-29.0495 14.8361 0)
(53.8338 9.86063 0)
(-38.0619 17.7782 0)
(67.6132 -6.01598 0)
(107.072 -2.47073 0)
(-11.7015 -0.254004 0)
(67.6148 -0.447595 0)
(-38.4467 5.48292 0)
(8.83904 5.22856 0)
(-10.0856 16.6629 0)
(22.918 -1.90947 0)
(36.0312 19.2889 0)
(38.2804 11.1443 0)
(54.5654 8.74675 0)
(41.6855 6.39596 0)
(73.0526 3.0987 0)
(87.1621 -0.031573 0)
(82.0445 2.8615 0)
(87.039 -7.59235 0)
(80.149 -0.250768 0)
(68.526 -4.64031 0)
(60.5183 4.77093 0)
(58.0851 -10.3994 0)
(12.0686 7.61674 0)
(7.63152 -2.78092 0)
(-26.0334 15.0257 0)
(6.97549 1.4493 0)
(-48.0019 9.88401 0)
(-17.3769 -0.75325 0)
(17.1571 14.3516 0)
(-8.83405 6.38756 0)
(79.1516 1.13867 0)
(61.8274 4.34628 0)