/*--------------------------------*- C++ -*----------------------------------*\
  =========                 |
  \\      /  F ield         | OpenFOAM: The Open Source CFD Toolbox
   \\    /   O peration     | Website:  https://openfoam.org
    \\  /    A nd           | Version:  6
     \\/     M anipulation  |
\*---------------------------------------------------------------------------*/
FoamFile
{
    version     2.0;
    format      ascii;
    class       surfaceScalarField;
    location    "1.72";
    object      meshPhi;
}
// * * * * * * * * * * * * * * * * * * * * * * * * * * * * * * * * * * * * * //

dimensions      [0 3 -1 0 0 0 0];

internalField   nonuniform List<scalar> 
11670
(
0.0149199
0.0373
-0.0239711
-0.0240819
0.0211398
-0.0230445
0.0225425
-0.0177187
-0.0327002
0.0854208
-0.0733888
0.0351544
0.0672553
0.0738993
-0.0385442
-0.104105
0.0947616
0.0304285
0.00430999
-0.146316
-0.00242305
-0.00494679
-0.000907357
0.00051689
-0.279155
-0.0730308
0.0464881
0.296097
0.0701028
0.100711
-0.0888839
-0.0720408
-0.0479866
0.0373892
-0.0383914
0.0480514
0.10881
-0.133249
0.14678
-0.11882
-0.159402
-0.234015
0.167471
0.228675
-0.00238467
0.00482824
-0.00199429
0.00278532
-0.00350688
0.00261121
-0.00436525
0.00209557
0.000476578
-0.00188419
0.00206892
-0.00463198
0.00695455
-0.00678563
0.00587668
-0.00212946
0.00194764
-0.00232125
-0.0024946
0.00102726
0.00220879
-0.0017772
0.00189575
-0.000831363
-0.000764266
0.00160499
-0.000836692
0.00116434
0.000680736
-0.00200831
-0.00349975
0.002198
0.000868227
-0.00189687
0.000814276
-0.0012
0.00308093
-0.00280087
0.00242831
-0.000897404
0.00045174
-0.00144401
0.00072063
-0.000721636
-0.00113466
0.00191055
-0.000781161
0.00113599
0.00572452
-0.0037479
0.00333515
-0.00213135
-0.00269704
0.00233177
-0.0027583
0.00101997
0.0042852
-0.00534201
0.00208887
-0.00693511
-0.0085631
0.00884202
-0.00220062
0.00682029
-0.00100808
-0.00199338
-0.005026
0.00329042
0.00689752
-0.00492993
-0.00340027
0.00538135
-0.00465861
0.00421392
0.00339736
-0.0108831
0.00939754
-0.0069484
-0.00423239
0.00673863
-0.00205126
-0.00164979
-0.00617221
0.00409292
-0.00354204
0.00295068
0.00422594
-0.0134543
-0.00781036
0.0118099
0.00664956
-0.00445189
0.0274072
-0.0268119
-0.00459657
0.0146541
0.000242923
-0.000839298
0.00459551
-0.0146892
-0.00375668
-0.000229811
-0.00661821
0.00445086
0.000835631
-0.00200866
-0.00979931
0.00449551
0.0125035
-0.00926643
0.00659939
-0.00440396
-0.0317636
0.0333442
-0.00510722
0.0161118
-0.00218881
-0.000146321
-0.00615588
0.00386616
-0.0131276
0.0134298
0.0105785
-0.00374271
-0.004455
0.00265349
0.00367422
-0.0119814
0.0115861
-0.00737816
-0.00350512
0.00475232
0.00037684
-0.00204652
0.00267244
-0.00531578
-0.00523066
0.00640688
0.00577377
-0.00270479
-0.00389031
0.00262122
-0.00641445
0.00270686
0.00994036
-0.00815023
-0.0026704
0.00585865
-0.00158832
0.000682628
-0.00238759
0.00149951
0.00330561
-0.00177798
-0.00135633
0.0016731
-0.0042884
0.00359647
0.00142507
-0.00467301
-0.00395061
0.00407368
0.00438281
-0.00144826
0.000172791
-9.09584e-05
-6.59324e-06
0.000157658
0.000250816
-0.000270823
-0.000345764
-8.11298e-06
1.76037e-14
-1.76037e-14
0
0
-0.00319217
0.000482111
0.00129837
-0.00110974
0.00420029
-0.00201483
0.00160399
-0.00132865
-0.00307165
0.00315895
-0.00533223
0.00174419
0.00298122
-0.00345761
-0.00151713
0.00434648
-0.000756429
-0.00213778
-0.00476887
0.003282
0.00960875
-0.00638412
-0.00304064
0.00439202
-0.00432258
0.00387836
0.00338866
-0.010975
-0.0182867
0.0190622
0.0118082
-0.00377809
-0.00221437
0.000501137
-0.00451645
0.00283653
-0.0055589
0.00419509
0.0026957
-0.0089498
-0.0134806
0.0132354
0.0100605
-0.0029233
0.00807755
-0.00488979
-0.00271677
0.00343673
-0.00183797
-0.000827265
0.00460588
-0.00733313
0.0158181
-0.0105114
-0.00441403
0.00578804
-0.0261263
0.025735
0.0159646
-0.00474959
-0.0244593
0.0249699
-0.0044691
0.0144901
0.0134269
-0.00956224
0.00640633
-0.00432843
-0.00290541
-0.00227447
0.00429435
-0.00566949
-0.00286697
0.00321185
-0.0155567
0.00462081
-0.00185527
-0.00178217
-0.00601971
0.00408792
-0.00335812
0.00280801
0.00422078
-0.0135672
-0.00705948
0.0118888
-0.00405401
0.00524449
0.024974
-0.0253359
0.0147959
-0.00436221
0.0136874
-0.00805265
0.00413553
-0.00342564
-0.00321849
-0.000679015
-0.00421567
0.00309186
-0.00401648
0.00245087
0.00487673
-0.0134876
0.0106419
-0.0118702
-0.00391159
0.0112065
0.0215659
-0.0255109
0.0271343
-0.0533771
0.0678162
-0.0341137
-0.0155798
0.0194575
0.0133729
0.118914
-0.132057
-0.27381
-0.016081
0.0224495
0.0778541
-0.000887798
-0.00539728
-0.00164868
-0.117258
0.113845
0.0806606
-0.0382048
0.0394542
0.0638817
-0.0354112
0.0277427
-0.0407638
0.0973768
-0.105379
0.119105
0.191498
-0.187268
-0.160089
0.0653589
-0.0559153
-0.0414896
0.0355316
0.0460435
0.0153963
-0.0510693
-0.00910671
3.44912e-06
0.00199274
-0.000443424
-0.000853697
-0.00466157
-0.0463037
0.0384136
0.0159019
-0.0049877
-0.112379
0.0497459
0.0718734
-0.0101147
0.232195
-0.0829506
-0.134811
-0.0121365
-0.0245169
0.0501637
-0.0188952
0.00211967
0.0842164
-0.0476729
-0.0357879
0.0574954
-0.0414896
0.0334602
-0.00103174
-0.00808274
0.00724275
0.00615414
-5.43066e-05
0.0093569
0.000455524
-0.00745641
0.00485996
0.0121755
-0.0323414
0.0120665
0.0110216
-0.000865494
-0.00774793
-0.0059456
0.000469778
0.00485415
0.00124607
0.0210295
0.00632593
-0.0257619
0.00750598
0.00849356
-0.0129289
-0.0651677
-0.0114707
0.0595196
-0.140462
0.081644
0.0578917
-0.00142556
0.00199672
0.000116899
0.178616
-0.11359
-0.0707902
0.0944528
-0.0389945
-0.0505047
-0.0430308
0.0130663
0.0286097
-0.00577284
-0.0493059
-0.0541891
0.121435
-0.0632111
-0.0579036
0.127509
2.14882e-05
-0.0476335
0.000570742
0.0529849
0.0584358
0.000514228
-0.0529849
-0.0205625
0.0383033
0.0363998
-0.0622765
0.0210621
0.0365987
-0.0863593
-0.00172811
0.019564
-0.0300262
0.0151282
0.0231047
0.0197427
-0.0416376
0.0132321
0.148721
0.1811
-0.332928
0.203566
0.169372
-0.34958
-0.0101609
-0.347744
-0.318299
0.684355
-0.28104
-0.314034
0.593064
0.0151882
-0.0882425
-0.117645
0.19826
-0.13606
-0.11612
0.274928
-0.043896
-0.0293299
-0.0786039
0.140186
-0.139389
-0.0779161
0.161765
-7.93581e-06
0.0095163
4.43624e-05
-0.00819176
-0.00688064
4.19163e-05
0.00819176
0.0335108
0.0481546
-0.0613623
0.0220123
-0.0246745
0.0489371
0.0929156
0.0147834
-0.0564125
-0.0725243
0.00608346
-0.0121018
0.0207911
-0.00530714
0.063815
0.0109736
-0.0403684
-0.0497304
0.00293505
-0.0107835
0.0242145
-0.00221532
-0.0331898
0.0148529
-0.0181055
0.0280034
0.0326034
0.00619163
-0.0235253
-0.0242821
-0.00931458
0.00759528
-0.00884238
0.00886542
0.00625849
-0.00651034
0.00823341
-0.00615031
-0.00493337
-0.0052276
0.0148081
0.00357058
-0.0135009
-0.0173753
0.0389631
0.0110323
0.0206678
-0.0207898
0.039841
-0.016974
0.00119368
0.0666481
-0.055483
-0.000993359
0.0262097
0.0804301
-0.0687579
-0.0207415
0.185932
-0.132662
0.0751958
-0.140205
-0.0943689
-0.0733671
0.0841532
0.078917
-0.0253868
-0.0591324
0.0806548
0.0174811
-0.270021
-0.105882
0.137796
0.218274
0.267568
-0.1572
0.0731209
-0.203345
0.0948262
0.0347311
-0.0700432
-0.0627896
0.0206823
-0.0175051
0.011387
-0.0173631
0.00448917
0.100745
-0.0934423
-0.00166526
-0.0681542
0.0617104
-0.0239956
0.0318301
0.275831
-0.347772
0.290781
-0.212334
-0.173427
0.0631255
-0.0113139
0.112101
0.0325155
-0.0686338
0.060241
-0.019508
0.182253
-0.373322
-0.084381
0.266114
0.222611
-0.174947
0.0746981
-0.125825
0.115661
-0.166924
0.142814
-0.0788928
-0.234892
0.0679963
0.392559
-0.231372
-0.0974561
0.200221
-0.171617
0.0767153
0.244912
-0.194188
0.120278
-0.169079
-0.199232
-0.248446
0.295309
0.159231
0.0737492
0.0111218
-0.0510829
-0.0344661
-0.264676
0.266469
-0.15084
0.149779
-0.0540375
-0.12006
0.134962
0.0543962
0.0483703
-0.0232732
0.000766109
-0.038437
-0.218512
0.0144731
0.143343
0.0546597
-0.24293
0.0730292
-0.0299322
0.182601
0.110971
-0.134764
0.0783505
-0.0498077
0.122094
-0.23195
0.216009
-0.0917556
-0.088828
0.012562
0.0267349
0.0434984
0.0867779
-0.145642
0.134815
-0.0607579
0.0901836
0.143638
-0.157895
-0.0705109
0.150955
-0.0983696
0.0196186
-0.0737592
0.0904115
-0.0458731
0.0180623
-0.0683614
-0.12487
0.169507
-0.166572
0.126653
-0.0454633
-0.050294
0.0705822
0.0314215
-0.0672362
0.0216044
-0.019169
0.0478476
0.0188096
0.00973835
-0.0184299
-0.018247
-0.107736
-0.207135
0.234899
0.0948598
0.138223
0.0181021
-0.0548368
-0.115732
-0.0482772
-0.107407
0.122434
0.0485033
-0.0866682
0.0409596
0.0120934
0.0227945
0.0531191
-0.00467559
-0.0425234
-0.0140103
-0.00636948
0.0125931
-0.00728125
-1.42652e-19
0.000402327
0.00103856
9.51013e-20
-0.00125164
-0.000189249
-7.78775e-15
3.77565e-15
0.0044662
0.00826108
-0.00488819
0.0538078
-0.0187614
-0.186048
0.133101
0.132984
0.012385
-0.0629908
-0.0967993
-4.69802e-14
0.00467011
0.00425151
3.86477e-14
2.42306e-14
0.00166872
0.00206373
-1.79312e-14
0.00392959
-0.000102526
0.00356848
-0.00216675
0.0182614
-0.0128761
0.00521887
-0.00872088
0.00704831
-9.26225e-05
-0.00475146
-0.0039444
-0.00392959
-6.62181e-05
0.00344975
0.00216656
-0.00704876
-9.33664e-05
-0.00261478
0.0039444
6.28319e-05
-0.00317994
-0.00589272
-8.03611e-06
4.87559e-08
0.00597603
0.00633196
-4.07814e-07
2.00046e-07
0.00842048
0.00866308
-1.55024e-08
-0.0109608
-0.00599338
-1.49877e-05
7.02639e-05
-0.0379996
-0.0512024
0.0825454
0.0278065
-0.188417
0.0482946
0.0123815
0.112041
-0.0610857
0.0752402
0.0253649
-0.0187975
0.0487712
0.206509
-0.203624
-0.0347754
-0.246024
0.0301076
0.142296
0.0644603
0.0524057
-0.03068
0.00391093
-0.0291149
-0.26406
-0.0334188
0.077294
0.198749
-0.0651987
-0.0276032
0.0450327
0.0443807
-0.0967303
0.0147507
0.0314939
0.0436719
0.0551825
0.114903
-0.114443
-0.038621
0.000151622
-0.0074984
-0.0136644
-1.48061e-05
-2.16521e-05
-0.0161419
-0.00936176
0.00014363
-0.000412126
0.00764585
0.00702515
-0.000438464
0.0227245
0.0577585
-0.0449953
-0.0170711
-0.0488583
0.0674106
-0.133735
0.102371
0.180828
-0.0972152
0.0325915
-0.132313
-0.00407544
0.0617832
-0.0452065
0.00339136
0.194652
-0.117913
-0.0353404
-0.0510374
0.224998
-0.192059
-0.064709
0.047969
-0.0332462
0.000528381
0.00245021
0.0165082
0.141778
-0.0606386
0.0217476
-0.118897
-0.0203719
-0.012041
0.0376167
0.0114456
0.092636
0.0141373
-0.0568449
-0.0718135
-0.107957
0.0285935
-0.031833
0.0862593
0.0402868
-0.0198237
-0.00818767
-0.0182687
-0.0382221
0.101216
-0.0867495
0.038487
0.124705
-0.103517
-0.0154004
0.0110176
-0.169142
-0.0588741
0.0730459
0.136496
0.210869
-0.112033
0.0484626
-0.169966
-0.295141
-0.0570531
0.11328
0.22045
-0.0387892
0.104897
-0.0771071
0.0292179
-0.137371
0.0471162
0.280522
-0.20962
0.122282
-0.107664
0.038778
-0.0307768
-0.222941
-0.0318134
0.168544
0.0130766
0.122477
-0.107086
-0.00914338
-0.0693076
0.14979
-0.35096
0.250006
-0.115668
-0.018674
0.0316857
0.0843553
-0.0330804
0.00381896
0.000525507
0.0172738
-0.0140436
0.11501
-0.0970006
0.0102224
0.118138
-0.0594595
-0.0980652
-0.0354531
0.10905
-0.0869291
0.0279101
0.325732
-0.154332
0.0506633
-0.24094
0.0344267
-0.0224897
0.0112746
-0.0341881
0.0198414
0.00919925
-0.0102317
-0.0250351
0.00254703
0.00223884
0.0122454
0.377536
-0.202739
0.0944117
-0.286734
0.0283661
-0.0182066
0.0115134
-0.0142996
0.264239
-0.226522
0.163155
-0.204445
0.0176269
-0.0112926
0.0075809
-0.00811809
-0.392925
-0.101881
0.183177
0.295866
0.0217111
0.0157311
-0.0125655
-0.0110387
-0.0165355
-0.000365435
0.00388236
0.00270665
0.145957
-0.205781
0.177111
-0.113047
-0.30768
-0.202611
0.262848
0.244329
-0.037378
-0.050345
0.0769378
0.0228986
-0.213037
0.0878939
0.019955
0.0963087
0.19213
-0.0173311
-0.0971926
-0.0868547
-0.00118659
-0.0509171
0.0619524
0.000735131
-0.206157
0.0588197
0.0196298
0.113923
0.0921401
-0.0862787
0.0418281
-0.0435821
-0.0241396
0.0440002
-0.0252342
0.0122342
0.0288263
-0.041727
0.034752
-0.0139757
0.121926
-0.0794288
-0.297582
0.235829
0.268042
0.0456874
-0.127499
-0.202938
-0.0148385
-0.00714417
1.29313e-12
-1.14223e-12
-7.55719e-13
-0.00531926
-0.0133617
4.71798e-13
0.000801038
-0.0224136
0.0278785
-0.000405836
-0.0158091
-0.0252926
0.0394497
0.00803715
-0.166666
-0.209374
0.249482
0.132412
0.284086
0.0368368
-0.160915
-0.163793
0.0192136
-0.0197533
0.036952
-0.0154822
-0.0186448
-0.0191967
0.0441885
0.0155308
-0.190381
-0.036864
0.0651353
0.144364
-0.0999375
0.0350829
0.211715
-0.168097
-0.157408
0.0796068
0.0243141
0.0413677
-0.00902054
-0.0147493
0.0257506
0.00225409
-0.0615005
0.0708398
-0.061465
0.0512281
0.0246834
-0.0280172
0.0228497
-0.0110781
0.00718401
-0.00562747
0.00714902
-0.00460666
0.0367833
-0.0154996
-0.025565
0.0123946
0.0109645
0.0195838
-0.0223046
-0.00483521
-0.0208198
-0.0158316
0.0404772
0.0156616
0.0191005
-0.0210024
0.00693978
-0.00476921
-0.0190289
0.0342835
0.014402
-0.0109232
0.0700082
0.0085428
-0.0458243
-0.0440843
-0.0194764
0.0462123
-0.0245081
0.00499505
0.109829
-0.0148939
-0.0765781
-0.0289643
0.00913715
0.0414387
-0.0382606
-0.00235653
-0.00746513
0.0139001
0.00193054
-0.00120973
-0.0105588
-0.0368667
0.049857
0.00632624
0.193725
-0.0239974
-0.0705725
-0.11172
0.0179571
-0.0165876
0.024385
-0.0100131
0.00930683
0.0263412
-0.0255321
-0.00410251
0.0108714
-0.0544458
0.0908566
-0.0672902
-0.0716451
0.0167183
-0.0190616
0.0548553
0.00847048
-0.015566
0.0288564
-0.00652991
-0.0167366
0.0416805
-0.0191291
0.015077
-0.0743811
0.0241324
-0.0260627
0.0586341
0.0164591
0.0198784
-0.0183492
-0.00961829
0.102282
0.0156743
-0.0603389
-0.0806436
-0.0051477
-0.0017678
0.00834679
0.00219356
-0.106453
0.0247657
-0.017647
0.0785198
0.0522698
0.0111429
-0.0347943
-0.0445958
-0.0115849
0.114533
-0.0894611
0.00857966
-0.00802192
-0.0093865
0.0246626
0.0050482
-0.0146712
0.115932
-0.0938457
0.0123618
0.00575165
-0.0038041
0.00842363
-0.003315
0.139979
0.0622132
-0.113785
-0.0967414
-0.0446125
0.0098661
-0.00710423
0.0281439
-0.0201892
0.0148686
-0.00736333
0.0129182
0.12155
0.00325576
-0.0592341
-0.0680285
-0.203867
-0.0677449
0.129924
0.131947
0.0135728
-0.0203521
0.028374
-0.0264647
-0.046585
-0.0547689
0.0783211
0.0327199
-0.0390311
-0.059067
0.0643658
0.0394424
0.054731
-0.00219988
-0.0180875
-0.0473965
-0.0325781
-0.0215374
0.0198855
-0.094566
0.0275634
0.0654094
0.0189965
-0.0395705
-0.0134979
0.00804714
0.0316184
-0.0273528
-0.110597
0.0415956
0.00500834
0.0606563
0.0383144
0.010537
-0.0207742
-0.0384626
0.0626705
0.00900565
-0.0443019
-0.0391381
-0.133338
0.225743
-0.387894
0.28482
0.0380389
0.169277
-0.166308
-0.0293741
-0.0464004
0.127606
-0.108343
0.0428724
0.285689
-0.29433
0.19675
-0.186414
-0.127822
0.0266972
0.00183611
0.086693
0.152591
-0.206628
0.154246
-0.0920512
-0.0136921
-0.130692
0.0393032
0.0974988
-0.0285199
0.0248119
-0.0154359
0.0199085
0.105279
-0.0925497
0.0599844
-0.0736156
0.0355194
0.0438196
-0.0459805
-0.0312107
0.00491997
-0.00717921
0.0174561
-0.00356879
-0.006266
-0.007247
0.0130981
0.0062129
0.00932007
0.00469594
-0.0107376
-0.00874172
0.0345878
0.0425059
-0.0423152
-0.0233236
-0.0333736
0.0076446
-0.0122018
0.0242864
-0.0645495
-0.00551058
0.0189438
0.0408602
0.12641
-0.166572
0.155462
-0.113756
0.0893196
-0.0490037
0.00213845
-0.0522487
0.0675013
0.0250513
-0.0419426
-0.0536637
0.122526
-0.101119
0.0548319
-0.0727017
-0.0550279
0.026945
-0.0145257
0.0377014
-0.0311936
-0.0561514
0.0788716
0.015749
0.0929053
-0.0295327
-0.000583681
-0.0742113
0.210299
-0.0964002
0.0438751
-0.177628
-0.0861151
-0.159532
0.18709
0.07255
0.244904
0.079164
-0.174777
-0.153625
-0.22413
0.2747
-0.206718
0.161837
0.0521962
0.0570282
-0.0622289
-0.0350446
-0.03884
0.210217
-0.18792
0.0307756
0.0385179
0.132605
-0.124159
-0.0284416
0.411871
-0.226395
0.106996
-0.304007
-0.0879542
0.206629
0.0731776
-0.0347775
-0.0174756
0.0620466
-0.0158527
-0.0122793
0.0535217
-0.0435172
0.00922357
-0.163897
0.184022
-0.136239
0.119172
-0.0202488
0.113497
-0.0958252
0.0126972
-0.198325
-0.0680911
0.147859
0.113832
-0.194588
-0.0453729
0.187956
0.0511149
0.227838
-0.138142
0.0884801
-0.185618
0.264609
0.138358
-0.222941
-0.180683
0.0544226
-0.0366871
-0.0599217
0.0427
0.146219
-0.235416
0.206736
-0.10261
-0.00590809
0.0439085
-0.171465
0.12026
-0.272384
-0.0445737
0.0951254
0.200936
0.127822
0.0227077
-0.077887
-0.078267
-0.0920761
0.259843
-0.226659
0.0727368
0.0722868
0.0438035
-0.0628974
-0.0451493
0.0284622
0.0928329
-0.090622
-0.0181825
-0.0172812
-0.0235417
0.0363142
0.0134563
0.00563529
-0.028281
0.0397101
-0.0038446
0.0145027
0.014415
-0.017073
-0.0101401
-1.4363e-13
0.00716864
0.00706286
1.01075e-13
-0.00249649
-0.00663366
-0.00406179
0.00082401
-0.0360443
0.0421384
0.0132773
-0.00709439
7.7219e-05
0.00474213
-0.000621361
1.0908e-13
0.00392592
0.00436868
-9.76275e-14
-0.0158723
0.0513183
-0.0340318
0.0117124
0.00175636
-0.0043507
-0.00854727
0.00208856
-0.000475509
-0.00317025
-0.00098976
-0.000235686
-5.97598e-07
0.00928535
0.00991732
4.91158e-08
0.0460943
-0.0404693
0.0322453
-0.022721
0.0101623
0.0253668
-0.0238708
-0.00254419
-0.155248
0.0582206
-0.0278886
0.104584
0.0428258
-0.0300156
0.00723652
-0.0311015
-0.00534896
-0.0299597
0.042711
0.00317319
0.00458825
0.0217922
-0.0195296
-0.00114869
0.142103
-0.0141556
-0.0452057
-0.094725
-0.113193
-0.00169653
0.052216
0.0554258
-1.57778e-08
0.00777374
0.00788473
1.25095e-07
8.43909e-14
0.00315437
0.00262478
-7.18249e-14
-0.0355717
-0.00636884
0.00952437
0.0229108
-0.00925773
-0.00344068
0.0112439
0.00330037
0.0107701
0.00986641
-0.00813126
-0.00605945
0.0245902
0.00284466
-0.015059
-0.0136634
0.0545568
0.0241366
-0.0372969
-0.0486739
-0.269594
0.243474
0.0834459
-0.0523367
-0.259577
0.199498
-0.101597
0.16274
-0.0815533
0.00857494
0.0480639
0.0209624
0.19018
-0.207856
0.146186
-0.121063
0.0979748
0.227372
-0.0768337
-0.0233046
0.0697442
-0.0604238
0.0151274
0.0654423
-0.044633
0.0216095
-0.0378806
-0.0455678
-0.00344929
0.0138591
0.0293442
-0.288085
-0.116384
0.166888
0.229831
0.245929
-0.207096
0.0217645
-0.0645579
-0.26685
-0.0261917
0.220854
0.0681305
0.020329
0.113731
-0.314434
0.172634
0.0983542
0.273309
-0.278746
-0.0767505
-0.155021
-0.0840198
0.147827
0.0921717
0.0205251
0.0229473
-0.0355986
-0.00520516
-0.0643483
0.0482759
-0.0327708
0.0463294
-0.0382772
0.101306
-0.0869466
0.0376388
-0.102761
0.0145082
0.114206
-0.028592
-0.0213732
0.0222557
-0.0122055
0.0134068
0.19764
-0.120134
-0.0360729
-0.0505407
0.232035
-0.175984
-0.100817
0.0569858
0.314757
-0.182701
0.0526318
-0.194445
0.292909
-0.223682
-0.00126794
-0.0747924
0.000670895
0.0439111
-0.0381443
-0.000170415
-0.112455
0.0192733
0.0222877
0.0608758
0.078947
0.142816
-0.146441
-0.0568465
-0.0285814
0.0729422
-0.0607236
0.0284076
0.0495807
-0.0243481
0.0089581
-0.0462091
0.114532
0.0648524
-0.147024
-0.0297822
-0.284881
-0.0412971
0.159611
0.163042
0.0252929
0.149925
-0.245975
0.0628398
-0.0461199
-0.0916675
0.03749
0.0813599
-0.172689
0.136114
-0.0370083
-0.114285
0.184251
-0.0947038
0.0297175
0.044897
0.104294
-0.0979595
-0.0328074
-0.11956
-0.0072005
0.0298125
0.0832389
0.321774
-0.159478
0.0802159
-0.259556
-0.131348
0.0343094
-0.0260927
0.00863216
0.128002
-0.117917
-0.00521041
-0.397531
-0.109601
0.167609
0.319852
0.209127
-0.267807
0.234736
-0.169192
-0.200845
-0.0598945
0.0990329
0.152831
-0.0887093
0.156349
-0.351405
0.273414
0.162769
0.179758
-0.217314
-0.117092
0.153596
0.182933
-0.214386
-0.111339
-0.277575
-0.0310692
0.0955493
0.201241
0.360823
-0.219075
0.119096
-0.276722
0.00389179
0.0752287
-0.0698744
-0.00189355
0.345334
-0.158998
0.0251539
-0.21787
-0.0679981
0.00164164
0.0107631
0.0456548
-0.182162
0.237326
-0.189519
0.142122
0.141821
-0.0755366
0.0402553
-0.115514
0.261615
-0.121851
0.0541214
-0.202635
0.21979
-0.170169
-0.14898
0.107682
0.0880339
-0.101508
0.0272094
-0.00696812
-0.0993588
0.193444
-0.171581
0.090558
0.0558161
0.0411579
-0.0522887
-0.0352333
-0.0816057
0.0240438
0.201838
-0.156315
-0.39474
-0.159224
0.221153
0.31624
0.0917866
-0.0188325
-0.0209591
-0.0617439
-0.0692824
0.132099
-0.0939253
0.0406333
-0.0302955
0.136293
-0.104931
0.00775858
0.105117
0.000135976
-9.78505e-05
0.142424
-0.110628
-0.0934208
0.0660682
0.309182
-0.247547
0.16565
-0.235136
0.0231043
0.0864507
-0.017546
-0.043437
0.0488195
-0.034292
0.0300465
-0.231765
0.230385
-0.0583468
0.0591615
0.103582
0.0911848
-0.11547
-0.0772701
-0.185396
-0.150949
0.182736
0.150833
-0.0921823
0.0458653
-0.0235642
0.0637565
0.180944
-0.201541
0.156691
-0.130786
0.0282501
-0.0918941
0.0841594
-0.0136886
0.0602825
-0.04297
0.0208971
-0.0348581
0.0441148
0.0240561
-0.0359256
-0.0366785
0.121941
-0.0986007
-0.0254755
0.0179508
-0.309076
-0.0473464
0.108678
0.230882
-0.105234
-0.155798
0.174445
0.0960264
0.0661555
0.0137469
-0.0341699
-0.0550225
0.0428824
-0.0721032
0.0573472
-0.0207807
0.193913
-0.106039
0.0235267
-0.12277
-0.0558181
0.132629
-0.0996293
0.0334111
-0.0595448
0.00493974
0.0156367
0.0304083
0.0234692
-0.0307091
0.0314952
-0.0175001
0.12305
-0.107944
0.00101284
-0.000747387
-0.128981
0.0526162
0.294423
-0.236697
-0.113935
0.0191913
0.0560631
0.0284939
0.0230077
0.109085
-0.0963704
-0.0166546
0.162153
-0.0527304
-0.0163703
-0.105792
-0.0641547
-0.00476291
0.0158903
0.0410499
0.0603071
-0.0429892
-0.0101572
-0.0150772
-0.0358899
0.103942
-0.0853439
0.0326414
-0.141787
0.0395895
-0.000665742
0.0118676
-0.0314917
-0.0562003
-0.0321779
-0.188024
0.025435
0.314169
-0.412269
-0.0478351
0.0576943
0.021545
0.0864961
-0.00614179
-0.0210193
0.0291982
-0.0500875
0.000494894
-0.0345423
0.00101577
0.0644254
0.000548507
0.0196146
-0.0118283
0.0484669
0.00455531
-0.0503003
-0.0228441
-0.232422
-0.201801
0.0384659
-0.00138532
-0.00274559
0.0912681
0.131987
-0.325672
0.00483836
-0.0716253
0.00837191
0.164621
0.0597311
-0.0274824
-0.0141551
0.014218
-0.0460624
-0.0459216
0.0228777
-0.0323933
0.05521
0.0467038
-0.0228032
0.00343519
-0.00993017
0.0222925
0.00443935
-0.00953063
0.0186458
-0.00437826
0.00981145
-0.0292003
-0.0234613
0.0146011
-0.0225287
0.0298662
-0.0742941
0.037162
0.0950898
-0.200746
0.162497
-0.258634
0.0853592
-0.0747873
-0.0189674
-0.0731258
0.0902954
0.00121838
0.146641
-0.178649
0.199628
0.0704647
-0.0659604
0.086039
0.0463662
-0.0773725
-0.0672671
0.0983006
-0.0754801
0.0218725
-0.00344664
0.00590467
-0.00450358
0.00485335
-0.00826621
0.00838182
-0.0263398
0.0498051
-0.015458
-0.0758278
0.0345817
-0.105837
0.0269859
-0.0283995
0.023309
0.0743203
-0.148591
-0.241957
-0.094298
0.102696
-0.0272615
-0.241157
0.230961
0.226493
-0.0941903
0.0988217
0.0353097
0.1101
-0.225473
-0.293325
-0.00323465
0.00804758
0.00353608
0.00354924
-0.00968079
-0.00507194
0.0158665
-0.0116121
0.0117719
0.178321
-0.179603
0.0962069
-0.222048
0.15192
0.214703
-0.029852
0.0219378
0.0461066
-0.0437114
0.0316729
-0.0769025
-0.122038
0.125371
-0.190625
0.383057
-0.365149
-0.204483
0.160696
-0.143051
-0.0817192
-0.0104347
0.00808442
0.0115778
-0.0739918
0.0758351
0.0700295
-0.437757
0.434404
0.284692
0.27383
-0.290807
0.14915
0.00613625
0.0057878
-8.60419e-15
-0.00698735
-0.0066052
0.000673993
0.00519659
0.00554446
-3.50511e-08
0.0131324
0.0130298
1.12316e-05
-0.392344
0.388027
-0.303787
-0.116595
0.111693
-0.259926
-0.0247233
0.0594314
0.0155546
-0.373092
0.370869
0.144096
-0.0466219
0.0492396
0.0755754
-0.0138792
-0.0132587
0.0021882
0.0186651
0.014228
-3.66173e-05
-0.174635
0.255759
-0.318468
-0.475216
0.443153
0.162368
0.0332177
-0.012404
-0.125448
0.180332
-0.193867
-0.0785946
0.181764
-0.158292
0.0775313
0.0173038
-0.0396005
0.140431
0.112785
-0.0810687
0.216863
-0.0461047
0.0479877
0.0344627
0.0695009
-0.0499766
-0.00377836
0.00347551
-0.00531723
0.00507233
-0.00488595
0.00889934
-0.00353608
-0.0963903
0.0424874
-0.132865
-0.377451
0.387094
-0.163797
-0.338355
0.266646
0.34435
-0.0662785
0.0869926
0.027372
-0.0671853
0.0756989
0.152983
-0.0145672
-0.0078929
1.55673e-05
-0.0103037
0.0162968
-0.0492736
-0.100209
0.0405012
-0.151539
-0.0705981
0.0665349
0.181046
-0.103691
0.0957455
-0.281811
0.355068
-0.33083
0.0507097
0.134217
-0.157119
0.314663
-0.047222
0.0319291
0.131581
-0.160448
0.175735
0.0587622
-0.0283531
0.0380635
-0.127935
0.0902918
-0.101898
-0.244305
0.334326
-0.310992
-0.0383491
0.200314
-0.181012
0.37502
-0.0560593
0.0267909
-0.104527
-0.0258698
0.0441804
0.0834904
-0.105831
0.119531
-0.0285585
0.0925215
-0.0937001
-0.0303006
-0.00777696
0.00164689
0.0334565
0.0798595
-0.0809864
-0.0286254
-0.164871
0.188956
0.0297094
0.0534551
-0.0464845
0.0268298
0.236695
-0.215094
0.00592152
-0.0561397
0.0448185
-0.0256813
0.104804
-0.0787876
-0.0355527
-0.113277
0.103269
-0.212091
-0.00912225
-0.0158241
1.21833e-12
-0.0115834
0.0113884
0.0211446
-0.0652708
0.079073
0.173991
0.115343
-0.173384
0.293971
-0.306297
0.321289
-0.0975833
0.0881211
-0.165771
0.237913
-0.0702005
0.0283145
0.0986804
0.143354
-0.117558
-0.265122
-0.0202355
0.00725618
0.0286369
0.0643617
-0.0627242
-0.0220807
-0.0962684
0.102391
-0.0292734
0.00292071
-0.00833631
-0.00838563
-0.00388717
0.00940999
0.00450279
0.121747
-0.117922
-0.243977
0.0848741
-0.0665912
-0.016994
0.104935
-0.0891128
0.0251034
-0.0485131
0.032431
-0.0992027
0.0483
-0.0205371
0.0153052
-0.0768111
0.0383825
0.103053
0.0530636
-0.02203
0.0139441
-0.075413
0.0930253
0.0100607
-0.108065
0.132004
-0.01132
0.081323
-0.062774
-0.0143954
-0.0546142
0.0429601
0.100198
0.0225405
-0.0406591
0.0669846
0.0208258
-0.0492344
-0.0681384
-0.109693
0.135201
-0.0132282
0.0168206
-0.00817483
-0.00673805
0.0809399
-0.0692253
0.0130524
-0.0868239
0.109714
-0.012219
-0.0873552
0.105363
0.012189
0.127965
-0.156549
0.155747
-0.0230446
0.0484579
0.00779608
0.0182248
-0.00914978
0.00587892
0.0502329
-0.0691749
-0.0432597
0.0188316
-0.0265328
0.0397335
-0.0490816
0.0277213
-0.0820788
-0.0254666
0.0297286
0.0155457
-0.0333538
0.0417665
-0.0276377
-0.0223982
0.0458161
-0.00770327
0.0247037
-0.0124126
0.00783609
0.0114038
-0.0363549
-0.0376603
0.158852
-0.163218
-0.222216
0.0488916
-0.0255235
-0.0137108
-0.0717997
0.0333271
-0.106747
0.0475187
-0.0248202
-0.0172414
0.038037
-0.0471404
-0.0230785
0.141973
-0.196793
-0.239163
-0.0530729
0.021547
0.0628547
-0.362434
0.380627
0.0999082
-0.0326989
0.0155779
-0.0382383
0.0330167
-0.0163959
0.00615292
0.0109491
-0.00986548
0.0213396
-0.196412
0.175845
-0.132115
0.0970365
-0.0797416
0.0334899
0.100017
-0.0978448
-0.0303927
0.036736
-0.0273216
-0.100586
0.0400133
-0.0406719
-0.015619
-0.00626692
0.00297437
-0.0453279
0.0111431
-0.0120777
0.0697868
-0.197645
0.200593
0.0745993
0.171241
-0.148428
-0.0349564
-0.160166
0.153155
-0.0608895
0.0680527
-0.0742094
0.186135
0.207404
-0.194246
0.0493151
-0.0110016
0.0197592
0.0661152
0.0754564
-0.0666451
-0.027865
0.00437622
0.0039026
5.33797e-14
-0.0104103
-0.0069367
0.00213536
0.0106785
0.0114434
5.41341e-07
-0.0299235
0.0148943
-0.0352012
-0.00266649
-0.00588894
-0.000636207
0.0078108
0.00770455
1.34719e-13
0.0113672
0.0117768
-7.48909e-05
0.00694879
0.00705584
1.13498e-08
-0.0127063
-0.00642433
-0.00174012
-0.135138
0.147973
0.0720381
-0.0198432
0.0208109
0.0275554
0.110009
-0.090615
-0.157864
0.00442996
0.00490358
-1.47773e-13
0.0266444
-0.0202285
0.0128056
0.0242647
-0.0158555
-0.0136956
0.319166
-0.293887
-0.0878536
0.290766
-0.275388
0.146453
-0.0987045
0.134188
-0.333209
0.110579
-0.147658
0.140386
0.0296261
-0.0313656
-0.0255376
0.0401668
-0.0292367
0.0260647
-0.299511
0.242357
0.163031
0.0137014
-0.02242
-0.0448257
0.024459
-0.0130057
0.035204
0.0427181
-0.0391599
-0.0931888
0.0566975
-0.0574736
0.117266
0.393378
-0.405355
0.214091
-0.104887
0.116426
0.205397
0.182404
-0.130571
0.207369
0.228452
-0.235716
-0.0698547
0.275992
-0.244695
0.0834439
0.452157
-0.42669
-0.280241
-0.1651
0.195986
0.117513
-0.0638455
0.054338
-0.0562483
-0.0277294
0.0163922
-0.132997
0.076381
-0.0670779
-0.0123943
0.169139
-0.159035
0.116954
0.0219803
-0.0313664
-0.0495984
0.0372893
-0.0237835
0.0497607
-0.423426
0.402819
0.190778
-0.105319
0.121149
0.00102167
0.166823
-0.153129
0.0353294
-0.464597
0.42482
0.325114
-0.188542
0.155202
0.267006
0.491032
-0.48662
-0.214887
-0.208432
0.193347
-0.181263
-0.30249
0.282443
0.282095
0.049782
-0.040268
0.0258682
0.0551162
-0.0570597
0.0347626
0.201274
-0.196391
0.114719
-0.336835
0.396906
-0.351527
0.0368099
-0.0477881
-0.127454
0.117549
-0.114816
-0.0323558
0.140313
-0.118171
0.0411496
-0.203553
0.221288
0.081483
0.0614772
-0.0359148
-0.162075
-0.131754
0.0624391
0.242047
0.110541
-0.103791
0.293167
0.318887
-0.289525
0.0102798
0.289621
-0.280949
-0.165291
0.272763
-0.248013
0.00573608
-0.112489
0.171009
0.286151
-0.203094
0.114007
-0.326581
0.223662
-0.252639
0.360508
0.205038
-0.354108
0.424292
-0.285426
0.293698
0.0877442
0.282915
-0.314527
-0.384127
0.164664
-0.164822
-0.209943
0.121373
-0.15754
-0.295811
0.284026
-0.313304
0.324905
-0.0616247
0.108173
0.203717
-0.11742
0.0659218
-0.238876
0.139608
-0.125871
0.0219993
0.215826
-0.248961
-0.13895
0.226669
-0.197597
0.133842
-0.0584393
0.0434044
0.14146
0.214823
-0.219508
-0.182916
-0.0774768
0.0857085
-0.048371
-0.0153751
0.0237717
-0.0972245
0.170693
-0.181254
-0.0711151
0.292657
-0.284874
0.0421529
0.0142964
-0.0176722
0.0744608
0.169694
-0.165525
0.0722485
0.164809
-0.159529
-0.0546212
0.0251467
-0.0184392
0.0312611
0.131412
-0.162514
0.0987592
0.32136
-0.286228
-0.0426104
-0.341184
0.404335
-0.296086
-0.132933
0.13907
0.0982859
-0.0571885
0.0704502
-0.152345
-0.1249
0.145323
0.0235177
-0.097162
0.0627745
0.166157
-0.074021
0.0779335
-0.102632
-0.322364
0.289398
0.219786
-0.0324937
0.0248302
0.0493993
0.0946914
-0.0846496
-0.0257974
-0.0394414
0.0379752
-0.0879488
-0.157847
0.140892
-0.075415
0.0182125
-0.0108997
0.0468198
0.265638
-0.231071
-0.0659806
0.219686
-0.219909
0.0648036
-0.0771825
0.0465844
0.195484
-0.0181488
0.0407019
-0.108669
0.459965
0.311666
-0.52513
0.355171
-0.156936
0.101469
-0.262823
0.0322964
-0.18953
0.123138
0.125473
0.438054
0.0633773
-0.188176
0.590945
0.205227
0.0714849
-0.227787
-0.0423317
-0.102177
1.28347e-14
0.00315114
0.00398529
-0.00315114
0.0102876
-3.26469e-14
-3.14608e-14
0.00244011
-7.41153e-15
0.00874239
-0.643744
0.287251
0.0741033
0.0668198
0.139122
-0.16232
-0.0549297
0.100326
0.00759241
-0.0655938
0.0913144
0.0633365
-0.00293865
-0.481121
-0.0190168
-0.170609
0.493296
-0.598596
0.356186
0.00909604
0.0250551
-0.0789211
0.0252673
0.0330758
-0.0767287
0.025592
-0.170622
0.184519
-0.188878
0.227117
0.0221781