/*--------------------------------*- C++ -*----------------------------------*\
  =========                 |
  \\      /  F ield         | OpenFOAM: The Open Source CFD Toolbox
   \\    /   O peration     | Website:  https://openfoam.org
    \\  /    A nd           | Version:  6
     \\/     M anipulation  |
\*---------------------------------------------------------------------------*/
FoamFile
{
    version     2.0;
    format      ascii;
    class       volScalarField;
    location    "2.71";
    object      rho;
}
// * * * * * * * * * * * * * * * * * * * * * * * * * * * * * * * * * * * * * //

dimensions      [1 -3 0 0 0 0 0];

internalField   nonuniform List<scalar> 
10000
(
1.40001
1.40001
1.40001
1.40001
1.40001
1.40001
1.40001
1.40001
1.40001
1.40001
1.40001
1.40001
1.40001
1.40001
1.4
1.40001
1.40001
1.40001
1.40001
1.4
1.40001
1.4
1.40001
1.40001
1.40001
1.40001
1.4
1.40001
1.40001
1.4
1.40001
1.4
1.40001
1.4
1.40001
1.40001
1.40001
1.40001
1.40001
1.40001
1.40001
1.40001
1.40001
1.4
1.4
1.4
1.4
1.4
1.4
1.4
1.4
1.4
1.4
1.4
1.4
1.4
1.4
1.4
1.4
1.40001
1.40001
1.40001
1.40001
1.40001
1.40001
1.40001
1.40001
1.40001
1.40001
1.40001
1.4
1.4
1.4
1.4
1.4
1.4
1.4
1.4
1.4
1.4
1.4
1.4
1.4
1.4
1.4
1.4
1.4
1.40001
1.40001
1.40001
1.40001
1.40001
1.40001
1.40001
1.40001
1.40001
1.40001
1.40001
1.40001
1.40001
1.40001
1.40001
1.40001
1.40001
1.40001
1.40001
1.40001
1.40001
1.40001
1.40001
1.40001
1.40001
1.40001
1.40001
1.4
1.40001
1.4
1.40001
1.4
1.40001
1.4
1.40001
1.4
1.40001
1.4
1.40001
1.40001
1.4
1.40001
1.4
1.40001
1.4
1.40001
1.40001
1.4
1.40001
1.4
1.40001
1.4
1.40001
1.4
1.40001
1.4
1.4
1.4
1.4
1.4
1.4
1.4
1.4
1.4
1.4
1.39999
1.39999
1.39999
1.39999
1.4
1.4
1.4
1.40001
1.40001
1.40002
1.40002
1.40002
1.40002
1.40002
1.40002
1.40002
1.40001
1.40001
1.4
1.4
1.4
1.4
1.4
1.4
1.4
1.4
1.4
1.4
1.4
1.4
1.4
1.4
1.4
1.4
1.4
1.4
1.4
1.4
1.40001
1.40001
1.40001
1.40001
1.40001
1.40001
1.40001
1.40001
1.40001
1.40001
1.40001
1.40001
1.40001
1.40001
1.40001
1.40001
1.40001
1.40001
1.40001
1.40001
1.40001
1.40001
1.4
1.40001
1.40001
1.40001
1.40001
1.40001
1.4
1.40001
1.4
1.40001
1.4
1.40001
1.4
1.40001
1.40001
1.4
1.40001
1.4
1.40001
1.4
1.40001
1.40001
1.40001
1.40001
1.40001
1.40001
1.40001
1.4
1.40001
1.4
1.40001
1.4
1.4
1.4
1.4
1.4
1.4
1.4
1.39999
1.39999
1.39999
1.39999
1.39998
1.39999
1.39999
1.4
1.4
1.40001
1.40002
1.40003
1.40004
1.40004
1.40004
1.40004
1.40003
1.40003
1.40002
1.40001
1.40001
1.4
1.4
1.4
1.4
1.4
1.4
1.4
1.4
1.4
1.4
1.4
1.4
1.4
1.4
1.4
1.4
1.4
1.40001
1.40001
1.40001
1.40001
1.40001
1.40001
1.40001
1.40001
1.40001
1.40001
1.40001
1.40001
1.40001
1.40001
1.40001
1.40001
1.40001
1.40001
1.40001
1.40001
1.40001
1.40001
1.4
1.40001
1.4
1.40001
1.4
1.40001
1.4
1.40001
1.4
1.40001
1.4
1.40001
1.4
1.40001
1.40001
1.40001
1.40001
1.4
1.40001
1.4
1.40001
1.40001
1.4
1.40001
1.4
1.40001
1.4
1.40001
1.4
1.40001
1.40001
1.40001
1.4
1.4
1.4
1.4
1.4
1.4
1.4
1.39999
1.39999
1.39998
1.39998
1.39997
1.39997
1.39998
1.39998
1.39999
1.40001
1.40002
1.40004
1.40006
1.40007
1.40008
1.40008
1.40007
1.40006
1.40005
1.40003
1.40002
1.40001
1.4
1.39999
1.39999
1.39999
1.39999
1.39999
1.39999
1.4
1.4
1.4
1.4
1.4
1.4
1.4
1.4
1.4
1.4
1.4
1.4
1.40001
1.40001
1.40001
1.40001
1.40001
1.40001
1.40001
1.40001
1.40001
1.40001
1.40001
1.40001
1.40001
1.40001
1.40001
1.40001
1.40001
1.40001
1.40001
1.40001
1.4
1.40001
1.4
1.40001
1.40001
1.40001
1.40001
1.40001
1.40001
1.40001
1.4
1.40001
1.40001
1.4
1.40001
1.4
1.40001
1.4
1.40001
1.4
1.40001
1.40001
1.4
1.40001
1.4
1.40001
1.4
1.40001
1.40001
1.4
1.40001
1.4
1.40001
1.4
1.40001
1.4
1.4
1.4
1.4
1.39999
1.39998
1.39997
1.39997
1.39996
1.39996
1.39996
1.39997
1.39999
1.40002
1.40005
1.40008
1.40011
1.40013
1.40014
1.40014
1.40013
1.40011
1.40009
1.40006
1.40004
1.40002
1.4
1.39999
1.39998
1.39998
1.39998
1.39999
1.39999
1.39999
1.4
1.4
1.4
1.4
1.4
1.4
1.4
1.4
1.4
1.4
1.40001
1.40001
1.40001
1.40001
1.40001
1.40001
1.40001
1.40001
1.40001
1.40001
1.40001
1.40001
1.40001
1.40001
1.40001
1.40001
1.40001
1.40001
1.40001
1.40001
1.40001
1.40001
1.40001
1.40001
1.40001
1.40001
1.40001
1.4
1.40001
1.4
1.40001
1.4
1.40001
1.40001
1.4
1.40001
1.4
1.40001
1.4
1.40001
1.40001
1.4
1.40001
1.4
1.40001
1.4
1.40001
1.4
1.40001
1.40001
1.4
1.40001
1.40001
1.4
1.40001
1.40001
1.4
1.4
1.4
1.39999
1.39998
1.39997
1.39996
1.39995
1.39994
1.39994
1.39994
1.39997
1.4
1.40005
1.4001
1.40016
1.40021
1.40024
1.40027
1.40027
1.40025
1.40021
1.40017
1.40012
1.40008
1.40004
1.40001
1.39999
1.39998
1.39997
1.39997
1.39998
1.39998
1.39999
1.39999
1.4
1.4
1.4
1.4
1.4
1.4
1.4
1.4
1.4
1.4
1.4
1.40001
1.40001
1.40001
1.40001
1.40001
1.40001
1.40001
1.40001
1.40001
1.40001
1.40001
1.40001
1.40001
1.40001
1.40001
1.40001
1.40001
1.40001
1.40001
1.40001
1.4
1.40001
1.4
1.40001
1.4
1.40001
1.4
1.40001
1.4
1.40001
1.4
1.40001
1.4
1.40001
1.4
1.40001
1.4
1.4
1.40001
1.4
1.40001
1.40001
1.40001
1.40001
1.40001
1.4
1.40001
1.40001
1.4
1.40001
1.40001
1.40001
1.40001
1.40001
1.4
1.4
1.4
1.39999
1.39998
1.39996
1.39994
1.39992
1.39991
1.39991
1.39993
1.39997
1.40004
1.40012
1.40022
1.40031
1.4004
1.40046
1.40049
1.40049
1.40045
1.40039
1.40031
1.40023
1.40015
1.40008
1.40003
1.39999
1.39997
1.39996
1.39996
1.39997
1.39998
1.39998
1.39999
1.39999
1.4
1.4
1.4
1.4
1.4
1.4
1.4
1.4
1.4
1.40001
1.40001
1.40001
1.40001
1.40001
1.40001
1.40001
1.40001
1.40001
1.40001
1.40001
1.40001
1.40001
1.40001
1.40001
1.40001
1.40001
1.40001
1.40001
1.4
1.40001
1.4
1.40001
1.4
1.40001
1.4
1.40001
1.4
1.40001
1.4
1.40001
1.4
1.40001
1.4
1.40001
1.40001
1.4
1.40001
1.4
1.40001
1.40001
1.4
1.4
1.40001
1.4
1.40001
1.4
1.40001
1.40001
1.4
1.40001
1.40001
1.40001
1.40001
1.40001
1.4
1.4
1.39999
1.39998
1.39997
1.39994
1.39992
1.3999
1.39989
1.3999
1.39994
1.40002
1.40014
1.40029
1.40046
1.40062
1.40076
1.40085
1.40089
1.40087
1.4008
1.40068
1.40055
1.40041
1.40027
1.40016
1.40007
1.40001
1.39997
1.39996
1.39995
1.39995
1.39996
1.39997
1.39998
1.39999
1.4
1.4
1.4
1.4
1.4
1.4
1.4
1.4
1.4
1.4
1.4
1.40001
1.40001
1.40001
1.40001
1.40001
1.40001
1.40001
1.40001
1.40001
1.40001
1.40001
1.40001
1.40001
1.40001
1.40001
1.40001
1.40001
1.4
1.40001
1.4
1.40001
1.4
1.40001
1.4
1.40001
1.4
1.40001
1.4
1.40001
1.4
1.40001
1.4
1.40001
1.4
1.40001
1.40001
1.4
1.40001
1.40001
1.40001
1.4
1.40001
1.40001
1.4
1.40001
1.40001
1.4
1.40001
1.40001
1.40001
1.40001
1.40001
1.40001
1.4
1.4
1.39999
1.39998
1.39995
1.39992
1.3999
1.39988
1.39988
1.39993
1.40002
1.40018
1.40041
1.40067
1.40095
1.40122
1.40143
1.40155
1.40158
1.40151
1.40137
1.40116
1.40093
1.40069
1.40047
1.40028
1.40014
1.40004
1.39998
1.39995
1.39994
1.39994
1.39995
1.39996
1.39997
1.39998
1.39999
1.4
1.4
1.4
1.4
1.4
1.4
1.4
1.4
1.4
1.40001
1.40001
1.40001
1.40001
1.40001
1.40001
1.40001
1.40001
1.40001
1.40001
1.40001
1.40001
1.40001
1.40001
1.4
1.40001
1.4
1.40001
1.4
1.40001
1.4
1.40001
1.4
1.40001
1.4
1.40001
1.4
1.40001
1.4
1.40001
1.4
1.40001
1.40001
1.4
1.40001
1.4
1.40001
1.4
1.40001
1.40001
1.4
1.4
1.40001
1.4
1.40001
1.4
1.40001
1.40001
1.4
1.40001
1.40001
1.40001
1.40001
1.40001
1.40001
1.4
1.39999
1.39997
1.39994
1.39991
1.39988
1.39988
1.39992
1.40004
1.40025
1.40056
1.40097
1.40143
1.40191
1.40232
1.40263
1.40277
1.40275
1.40258
1.40229
1.40192
1.40152
1.40112
1.40077
1.40048
1.40025
1.40009
1.39999
1.39994
1.39993
1.39993
1.39994
1.39995
1.39997
1.39998
1.39999
1.39999
1.4
1.4
1.4
1.4
1.4
1.4
1.4
1.4
1.4
1.40001
1.40001
1.40001
1.40001
1.40001
1.40001
1.40001
1.40001
1.40001
1.40001
1.40001
1.40001
1.40001
1.40001
1.40001
1.40001
1.40001
1.40001
1.4
1.40001
1.4
1.4
1.40001
1.4
1.40001
1.4
1.40001
1.4
1.40001
1.40001
1.4
1.40001
1.4
1.40001
1.4
1.40001
1.40001
1.4
1.40001
1.4
1.4
1.40001
1.40001
1.4
1.40001
1.40001
1.40001
1.40001
1.40001
1.40001
1.40001
1.40001
1.40001
1.40001
1.40001
1.39999
1.39997
1.39993
1.39989
1.39988
1.39993
1.40007
1.40034
1.40077
1.40135
1.40208
1.40288
1.40365
1.40428
1.4047
1.40483
1.40468
1.40428
1.40372
1.40307
1.40239
1.40176
1.4012
1.40075
1.40041
1.40017
1.40002
1.39994
1.39991
1.39991
1.39993
1.39995
1.39996
1.39997
1.39998
1.39999
1.4
1.4
1.4
1.4
1.4
1.4
1.4
1.4
1.4
1.40001
1.40001
1.40001
1.40001
1.40001
1.40001
1.40001
1.40001
1.40001
1.40001
1.40001
1.40001
1.40001
1.40001
1.4
1.40001
1.4
1.40001
1.4
1.40001
1.4
1.40001
1.40001
1.4
1.40001
1.4
1.40001
1.40001
1.4
1.40001
1.40001
1.4
1.40001
1.4
1.40001
1.4
1.40001
1.4
1.4
1.40001
1.4
1.40001
1.40001
1.40001
1.40001
1.40001
1.4
1.40001
1.40001
1.40001
1.40001
1.40001
1.40001
1.40002
1.40001
1.39999
1.39996
1.39992
1.3999
1.39994
1.40009
1.40042
1.40098
1.40179
1.40285
1.4041
1.40541
1.40663
1.40758
1.40812
1.40817
1.40774
1.40694
1.40591
1.40478
1.40368
1.40267
1.4018
1.40112
1.40062
1.40028
1.40007
1.39995
1.3999
1.39989
1.39991
1.39993
1.39995
1.39997
1.39998
1.39999
1.39999
1.4
1.4
1.4
1.4
1.4
1.4
1.4
1.4
1.40001
1.40001
1.40001
1.40001
1.40001
1.40001
1.40001
1.40001
1.40001
1.40001
1.40001
1.4
1.40001
1.4
1.40001
1.4
1.4
1.40001
1.40001
1.4
1.40001
1.40001
1.4
1.40001
1.4
1.40001
1.4
1.4
1.40001
1.4
1.40001
1.4
1.40001
1.40001
1.4
1.40001
1.4
1.40001
1.4
1.40001
1.40001
1.4
1.40001
1.4
1.4
1.40001
1.4
1.40001
1.40001
1.40001
1.40001
1.40001
1.40002
1.40002
1.40002
1.4
1.39996
1.39993
1.39995
1.40009
1.40046
1.40114
1.4022
1.40365
1.40545
1.40749
1.40957
1.41143
1.4128
1.41347
1.41333
1.41245
1.41098
1.40918
1.40729
1.40551
1.40394
1.40265
1.40163
1.4009
1.40042
1.40012
1.39996
1.39989
1.39987
1.39988
1.39991
1.39993
1.39996
1.39997
1.39999
1.39999
1.4
1.4
1.4
1.4
1.4
1.4
1.4
1.4
1.40001
1.40001
1.40001
1.40001
1.40001
1.40001
1.40001
1.40001
1.4
1.40001
1.4
1.40001
1.4
1.4
1.40001
1.4
1.40001
1.4
1.40001
1.4
1.40001
1.4
1.4
1.40001
1.4
1.40001
1.4
1.40001
1.40001
1.4
1.40001
1.40001
1.4
1.40001
1.4
1.40001
1.4
1.4
1.40001
1.4
1.40001
1.40001
1.40001
1.40001
1.40001
1.4
1.4
1.40001
1.40001
1.40001
1.40001
1.40002
1.40003
1.40003
1.40003
1.40001
1.39998
1.39997
1.40007
1.40042
1.40117
1.40244
1.4043
1.40673
1.40962
1.41278
1.41589
1.41858
1.42048
1.4213
1.42089
1.41933
1.41687
1.41393
1.41091
1.4081
1.40571
1.4038
1.40234
1.40128
1.40059
1.40018
1.39996
1.39986
1.39984
1.39986
1.39989
1.39992
1.39994
1.39997
1.39998
1.39999
1.4
1.4
1.4
1.4
1.4
1.4
1.4
1.4
1.4
1.40001
1.40001
1.40001
1.40001
1.40001
1.40001
1.40001
1.40001
1.40001
1.4
1.40001
1.4
1.40001
1.4
1.40001
1.4
1.40001
1.4
1.40001
1.4
1.4
1.40001
1.4
1.40001
1.4
1.40001
1.4
1.4
1.40001
1.40001
1.40001
1.4
1.40001
1.40001
1.4
1.40001
1.4
1.4
1.40001
1.4
1.4
1.4
1.4
1.40001
1.40001
1.4
1.4
1.40001
1.40001
1.40001
1.40002
1.40004
1.40005
1.40005
1.40003
1.4
1.40005
1.40032
1.40104
1.40242
1.40462
1.40766
1.41145
1.41579
1.42034
1.42469
1.42834
1.43084
1.43185
1.43115
1.42879
1.42507
1.42058
1.41598
1.41174
1.40817
1.40536
1.40327
1.4018
1.40083
1.40027
1.39997
1.39984
1.3998
1.39982
1.39986
1.3999
1.39993
1.39996
1.39997
1.39998
1.39999
1.4
1.4
1.4
1.4
1.4
1.4
1.4
1.4
1.40001
1.40001
1.40001
1.40001
1.40001
1.40001
1.40001
1.40001
1.4
1.40001
1.4
1.40001
1.40001
1.4
1.40001
1.4
1.40001
1.4
1.40001
1.39999
1.40001
1.4
1.4
1.40001
1.4
1.40001
1.4
1.40001
1.40001
1.4
1.4
1.40001
1.4
1.40001
1.4
1.4
1.40001
1.4
1.4
1.4
1.40001
1.4
1.4
1.40001
1.40001
1.40001
1.40001
1.40001
1.40001
1.40002
1.40003
1.40005
1.40007
1.40007
1.40006
1.40006
1.40022
1.4008
1.40211
1.40446
1.408
1.41265
1.41815
1.42416
1.43022
1.43577
1.44029
1.44334
1.44461
1.44378
1.44075
1.43576
1.42947
1.42283
1.41671
1.41154
1.40749
1.40454
1.4025
1.40117
1.40039
1.39999
1.39982
1.39977
1.39978
1.39982
1.39987
1.39992
1.39994
1.39996
1.39998
1.39999
1.4
1.4
1.4
1.4
1.4
1.4
1.4
1.4
1.4
1.40001
1.40001
1.40001
1.40001
1.4
1.40001
1.4
1.40001
1.40001
1.4
1.40001
1.4
1.40001
1.40001
1.40001
1.4
1.40001
1.4
1.4
1.40002
1.39999
1.40002
1.39999
1.40001
1.4
1.40002
1.4
1.4
1.4
1.40001
1.4
1.4
1.40001
1.40001
1.4
1.40001
1.4
1.4
1.40001
1.4
1.40001
1.40001
1.4
1.40001
1.4
1.40001
1.40001
1.40001
1.40002
1.40004
1.40007
1.4001
1.40011
1.4001
1.40017
1.40053
1.4016
1.40383
1.40759
1.4129
1.4195
1.42688
1.43449
1.44172
1.44797
1.45285
1.45618
1.45781
1.45734
1.45427
1.44848
1.44053
1.43165
1.42318
1.41599
1.41036
1.40627
1.40348
1.40167
1.40059
1.40004
1.3998
1.39974
1.39974
1.39979
1.39984
1.3999
1.39993
1.39996
1.39997
1.39998
1.39999
1.4
1.4
1.4
1.4
1.4
1.4
1.4
1.4
1.40001
1.40001
1.40001
1.40001
1.4
1.40001
1.4
1.40001
1.4
1.40001
1.4
1.4
1.40001
1.40001
1.4
1.40001
1.40001
1.39999
1.40003
1.39999
1.4
1.40001
1.4
1.40002
1.4
1.40001
1.4
1.40002
1.4
1.4
1.4
1.40001
1.4
1.40001
1.40001
1.4
1.40001
1.40001
1.4
1.4
1.40001
1.4
1.40001
1.40001
1.40001
1.40001
1.40001
1.40002
1.40003
1.40006
1.4001
1.40014
1.40016
1.40018
1.40035
1.40106
1.40288
1.40644
1.41207
1.41953
1.42818
1.4372
1.44577
1.45316
1.45892
1.46308
1.46611
1.46823
1.46895
1.46714
1.46183
1.45309
1.44224
1.43123
1.42162
1.41405
1.40852
1.40476
1.40237
1.40092
1.40014
1.39979
1.3997
1.39971
1.39975
1.39981
1.39987
1.39991
1.39995
1.39997
1.39998
1.39999
1.4
1.4
1.4
1.4
1.4
1.4
1.4
1.4
1.40001
1.4
1.40001
1.4
1.40001
1.40001
1.40001
1.4
1.4
1.40001
1.4
1.40001
1.40001
1.4
1.40001
1.40001
1.4
1.40002
1.40001
1.39998
1.40003
1.4
1.40002
1.39999
1.40001
1.4
1.40002
1.39999
1.40001
1.4
1.40001
1.4
1.4
1.40001
1.4
1.40001
1.4
1.4
1.4
1.40001
1.4
1.4
1.4
1.4
1.40001
1.40001
1.40001
1.40002
1.40004
1.40008
1.40013
1.40019
1.40022
1.40029
1.40066
1.4019
1.40483
1.41019
1.4181
1.42785
1.43821
1.44796
1.45607
1.4618
1.46512
1.46697
1.46888
1.47167
1.47471
1.47602
1.47334
1.46562
1.45385
1.44059
1.42839
1.41856
1.41132
1.40637
1.40324
1.40138
1.40034
1.39985
1.39967
1.39967
1.39971
1.39978
1.39984
1.3999
1.39993
1.39996
1.39998
1.39999
1.39999
1.4
1.4
1.4
1.4
1.4
1.4
1.4
1.4
1.40001
1.40001
1.4
1.40001
1.4
1.40001
1.4
1.40001
1.4
1.40001
1.40001
1.4
1.4
1.40001
1.4
1.40001
1.40001
1.39998
1.40003
1.40001
1.39999
1.40001
1.4
1.40002
1.39999
1.40001
1.4
1.40002
1.4
1.4
1.40001
1.40001
1.4
1.40001
1.4
1.4
1.40001
1.4
1.4
1.40001
1.40001
1.4
1.4
1.40001
1.40001
1.40001
1.40002
1.40005
1.40011
1.40018
1.40025
1.40031
1.40046
1.40113
1.40317
1.40765
1.41529
1.42572
1.4374
1.44847
1.4573
1.46273
1.46425
1.46272
1.46053
1.46058
1.46433
1.47092
1.4774
1.47997
1.47587
1.46514
1.45062
1.43602
1.42381
1.41468
1.40835
1.4043
1.40191
1.40061
1.39995
1.39969
1.39964
1.39969
1.39975
1.39982
1.39987
1.39991
1.39995
1.39997
1.39998
1.39999
1.4
1.4
1.4
1.4
1.4
1.4
1.4
1.4
1.40001
1.4
1.40001
1.40001
1.4
1.4
1.40001
1.40001
1.4
1.40001
1.4
1.4
1.40001
1.4
1.40001
1.4
1.4
1.40001
1.40003
1.39997
1.40002
1.4
1.40002
1.39999
1.40001
1.40001
1.40002
1.39999
1.40001
1.4
1.40002
1.4
1.4
1.40001
1.4
1.40001
1.40001
1.4
1.4
1.40001
1.40001
1.40001
1.40001
1.4
1.40001
1.40002
1.40003
1.40007
1.40014
1.40024
1.40033
1.40042
1.40071
1.40186
1.40503
1.41153
1.42183
1.43461
1.44727
1.45729
1.46285
1.46285
1.4574
1.44882
1.44145
1.43949
1.44468
1.45584
1.46912
1.47925
1.48156
1.47445
1.46036
1.44406
1.42955
1.41845
1.41068
1.40561
1.40258
1.40092
1.40007
1.39973
1.39963
1.39967
1.39972
1.3998
1.39985
1.39991
1.39994
1.39996
1.39998
1.39999
1.4
1.4
1.4
1.4
1.4
1.4
1.4
1.4
1.40001
1.4
1.40001
1.4
1.40001
1.4
1.40001
1.39999
1.40001
1.4
1.4
1.40001
1.4
1.40001
1.4
1.4
1.40001
1.40002
1.39998
1.40001
1.40001
1.4
1.40001
1.39999
1.40003
1.39999
1.40001
1.4
1.40002
1.4
1.39999
1.40001
1.40001
1.40001
1.4
1.40001
1.4
1.40001
1.40001
1.4
1.4
1.40001
1.40001
1.40001
1.40001
1.40002
1.40004
1.4001
1.40019
1.40031
1.40042
1.40056
1.40108
1.40292
1.40763
1.41665
1.42972
1.4441
1.45601
1.46265
1.46229
1.45415
1.43954
1.42283
1.41044
1.40726
1.41466
1.43094
1.45167
1.47057
1.4813
1.48027
1.46874
1.45197
1.43551
1.42246
1.41321
1.40711
1.4034
1.4013
1.40026
1.39978
1.39964
1.39963
1.39971
1.39977
1.39984
1.3999
1.39992
1.39995
1.39997
1.39999
1.39999
1.4
1.4
1.4
1.4
1.4
1.4
1.40001
1.4
1.40001
1.4
1.4
1.40001
1.40001
1.4
1.40001
1.40001
1.39999
1.40002
1.4
1.40001
1.40001
1.4
1.40002
1.4
1.4
1.39999
1.40003
1.39999
1.40003
1.39998
1.40002
1.4
1.40001
1.4
1.40002
1.39999
1.40001
1.4
1.40002
1.4
1.4
1.40001
1.40001
1.4
1.4
1.40001
1.40001
1.4
1.4
1.40001
1.40001
1.40001
1.40002
1.40006
1.40013
1.40025
1.40039
1.40053
1.40076
1.40162
1.40443
1.41115
1.42304
1.43854
1.45305
1.46195
1.46269
1.454
1.43579
1.41112
1.38693
1.37122
1.36844
1.37893
1.40046
1.42818
1.45555
1.47527
1.48183
1.47487
1.45918
1.44152
1.4266
1.41583
1.40871
1.40428
1.40178
1.40048
1.39988
1.39966
1.39962
1.39968
1.39975
1.39984
1.39987
1.39992
1.39995
1.39997
1.39998
1.39999
1.4
1.4
1.4
1.4
1.4
1.4
1.4
1.4
1.40001
1.4
1.40001
1.4
1.40001
1.4
1.40002
1.39999
1.40002
1.4
1.4
1.40002
1.39999
1.40001
1.4
1.4
1.39999
1.40001
1.40001
1.40001
1.39998
1.40001
1.40003
1.39999
1.40001
1.4
1.40001
1.4
1.40001
1.4
1.4
1.4
1.40001
1.40001
1.4
1.40001
1.4
1.4
1.40001
1.4
1.4
1.40001
1.4
1.40001
1.40004
1.40008
1.40017
1.40032
1.40049
1.40066
1.40102
1.40239
1.40652
1.41571
1.43059
1.44755
1.46007
1.46349
1.45624
1.43764
1.40865
1.37467
1.34516
1.32873
1.32812
1.34243
1.36912
1.40276
1.43715
1.46501
1.47949
1.47831
1.46516
1.44727
1.43085
1.41861
1.41039
1.40526
1.40231
1.40072
1.4
1.39969
1.39966
1.39966
1.39975
1.39979
1.39986
1.39992
1.39994
1.39996
1.39998
1.39999
1.39999
1.4
1.4
1.4
1.4
1.4
1.4
1.40001
1.4
1.40001
1.4
1.4
1.4
1.40001
1.4
1.4
1.40002
1.39998
1.40002
1.4
1.4
1.40001
1.39999
1.40001
1.39999
1.40003
1.39999
1.4
1.4
1.40003
1.39999
1.4
1.40001
1.40001
1.40001
1.40001
1.4
1.40001
1.4
1.40002
1.4
1.4
1.4
1.40001
1.40002
1.4
1.4
1.40001
1.40001
1.4
1.40001
1.40002
1.40004
1.4001
1.40022
1.4004
1.4006
1.40082
1.40138
1.40346
1.40932
1.42138
1.43894
1.45568
1.46376
1.45963
1.44313
1.41414
1.3749
1.33351
1.30144
1.28655
1.28916
1.30781
1.33967
1.37829
1.41798
1.45237
1.47416
1.47923
1.46965
1.4525
1.43514
1.4215
1.41218
1.40633
1.40287
1.40103
1.40011
1.39977
1.39966
1.39968
1.39972
1.39978
1.39988
1.39989
1.39992
1.39996
1.39998
1.39998
1.39999
1.4
1.4
1.4
1.4
1.4
1.4
1.40001
1.4
1.40001
1.4
1.40001
1.4
1.40001
1.39999
1.40002
1.39999
1.40001
1.40001
1.39999
1.40002
1.39999
1.40001
1.4
1.40002
1.39999
1.4
1.40001
1.40003
1.39998
1.40001
1.40001
1.40001
1.40001
1.39999
1.40001
1.4
1.40002
1.4
1.4
1.40001
1.40001
1.40002
1.39998
1.4
1.40001
1.40001
1.4
1.4
1.40001
1.40002
1.40002
1.40005
1.40014
1.40028
1.40049
1.40072
1.40101
1.40188
1.40494
1.41296
1.42811
1.44743
1.46172
1.46307
1.45019
1.42421
1.38523
1.33702
1.29024
1.25758
1.24524
1.25124
1.27469
1.31213
1.35526
1.39902
1.43849
1.4666
1.47795
1.47266
1.4571
1.43932
1.42447
1.4141
1.40746
1.40354
1.40139
1.40031
1.39984
1.39966
1.39968
1.39971
1.39982
1.39983
1.39987
1.39994
1.39996
1.39997
1.39998
1.39999
1.39999
1.4
1.4
1.4
1.4
1.4
1.4
1.40001
1.4
1.40001
1.4
1.40001
1.39999
1.40001
1.4
1.4
1.40002
1.39998
1.40002
1.40001
1.39999
1.40002
1.39999
1.40002
1.39998
1.40003
1.4
1.4
1.40001
1.40001
1.40002
1.39999
1.40002
1.39998
1.40002
1.40001
1.4
1.40001
1.39999
1.40003
1.39999
1.4
1.40002
1.4
1.4
1.4
1.4
1.40001
1.40001
1.40001
1.40002
1.40008
1.40018
1.40035
1.4006
1.40085
1.40124
1.40257
1.40693
1.41752
1.43566
1.45519
1.4646
1.45763
1.43583
1.40089
1.35272
1.29664
1.24551
1.2128
1.20282
1.21209
1.24123
1.28506
1.33269
1.37996
1.42349
1.45709
1.47458
1.47414
1.46097
1.44335
1.4276
1.41614
1.40872
1.40428
1.40178
1.40054
1.39991
1.39973
1.39967
1.39974
1.39977
1.39981
1.39991
1.39992
1.39994
1.39996
1.39998
1.39999
1.39999
1.4
1.4
1.4
1.4
1.4
1.4
1.4
1.4
1.40001
1.4
1.4
1.4
1.40001
1.39999
1.40002
1.39999
1.40001
1.40002
1.39999
1.40002
1.39999
1.40001
1.39999
1.40002
1.39999
1.40001
1.4
1.40002
1.39999
1.40002
1.4
1.4
1.40002
1.39999
1.40003
1.39997
1.40003
1.40001
1.39998
1.40001
1.39999
1.40002
1.40002
1.39999
1.4
1.40002
1.40001
1.40001
1.40001
1.40004
1.40011
1.40023
1.40044
1.40071
1.40099
1.40155
1.40352
1.40953
1.42304
1.44356
1.46124
1.46366
1.4478
1.41774
1.37463
1.31781
1.25404
1.19813
1.16485
1.15682
1.16979
1.20613
1.25743
1.30995
1.36041
1.40723
1.44564
1.46909
1.47404
1.46405
1.44721
1.43081
1.41837
1.41016
1.40509
1.40226
1.40074
1.40007
1.3998
1.39971
1.39973
1.39974
1.39987
1.39988
1.3999
1.39995
1.39997
1.39998
1.39999
1.39999
1.4
1.4
1.4
1.4
1.4
1.4
1.4
1.40001
1.4
1.40001
1.4
1.40001
1.39999
1.40001
1.4
1.4
1.40002
1.39999
1.40001
1.40002
1.39999
1.40003
1.39998
1.40002
1.39999
1.40002
1.4
1.39999
1.40003
1.39997
1.40004
1.39997
1.40005
1.39997
1.40002
1.40002
1.39999
1.40003
1.39998
1.40002
1.40002
1.39997
1.39999
1.40003
1.40002
1.4
1.4
1.40001
1.40003
1.40006
1.40013
1.40029
1.40053
1.40082
1.40115
1.40197
1.4048
1.41285
1.42942
1.45118
1.46474
1.45881
1.43449
1.39723
1.34651
1.28086
1.20825
1.1462
1.11179
1.10567
1.1235
1.1689
1.22893
1.28718
1.3408
1.39013
1.43245
1.46149
1.47224
1.46623
1.45079
1.43411
1.42081
1.41173
1.40609
1.40281
1.40106
1.40026
1.39984
1.39975
1.39971
1.39981
1.39983
1.39984
1.39992
1.39994
1.39996
1.39997
1.39998
1.39999
1.4
1.4
1.4
1.4
1.4
1.4
1.4
1.40001
1.4
1.40001
1.40001
1.40001
1.4
1.40002
1.39999
1.40002
1.4
1.4
1.40001
1.4
1.40001
1.4
1.40001
1.39999
1.40002
1.39998
1.40003
1.39999
1.40002
1.39999
1.40002
1.40001
1.39997
1.40004
1.39997
1.40004
1.39997
1.40001
1.40003
1.39998
1.40003
1.40001
1.39999
1.4
1.4
1.4
1.40001
1.40001
1.40002
1.40007
1.40017
1.40036
1.40062
1.40093
1.40135
1.40254
1.4065
1.41696
1.43642
1.45778
1.46523
1.45057
1.41886
1.3754
1.31709
1.2415
1.15805
1.08849
1.05268
1.04839
1.07239
1.12855
1.19887
1.26441
1.32178
1.37314
1.41824
1.45204
1.46869
1.4673
1.45402
1.43754
1.42345
1.41347
1.40719
1.40347
1.40149
1.4004
1.39996
1.39978
1.39977
1.39979
1.39979
1.39989
1.39991
1.39993
1.39996
1.39997
1.39998
1.39999
1.4
1.4
1.4
1.4
1.4
1.4
1.40001
1.4
1.40001
1.4
1.40001
1.4
1.40001
1.4
1.40001
1.40001
1.4
1.40001
1.40001
1.4
1.40002
1.39999
1.40002
1.39999
1.40002
1.4
1.40001
1.40001
1.39998
1.40006
1.39994
1.40006
1.39996
1.40004
1.39999
1.39999
1.40004
1.39997
1.40002
1.4
1.39999
1.40003
1.40001
1.4
1.40001
1.40001
1.40001
1.40001
1.40004
1.4001
1.40021
1.40042
1.40071
1.40104
1.4016
1.40332
1.4087
1.42188
1.44362
1.46269
1.46269
1.43981
1.40203
1.35301
1.28658
1.19927
1.10294
1.02504
0.986987
0.983648
1.01481
1.08298
1.16549
1.24081
1.30335
1.35684
1.40387
1.44142
1.46352
1.46714
1.45684
1.44102
1.42629
1.41548
1.40846
1.40428
1.40189
1.40066
1.4001
1.39986
1.39981
1.39975
1.39984
1.39988
1.39989
1.39993
1.39995
1.39997
1.39998
1.39999
1.39999
1.4
1.4
1.4
1.4
1.4
1.4
1.40001
1.40001
1.4
1.4
1.40001
1.40001
1.4
1.40001
1.4
1.40001
1.4
1.4
1.40001
1.4
1.40001
1.4
1.40001
1.39999
1.40003
1.39997
1.40004
1.39998
1.40002
1.4
1.40001
1.40003
1.39996
1.40005
1.39997
1.40002
1.40001
1.39999
1.40002
1.39999
1.4
1.4
1.40001
1.40002
1.4
1.4
1.40002
1.40005
1.40012
1.40026
1.4005
1.40079
1.40117
1.40194
1.40438
1.4115
1.42751
1.45051
1.46549
1.45754
1.42752
1.3849
1.33059
1.25511
1.15429
1.04378
0.956787
0.914144
0.910358
0.949472
1.03042
1.12721
1.21521
1.28481
1.34114
1.38991
1.4303
1.45703
1.46582
1.45909
1.44441
1.4294
1.41778
1.40997
1.40517
1.40242
1.401
1.40026
1.39996
1.39979
1.39982
1.39986
1.39986
1.3999
1.39993
1.39995
1.39997
1.39998
1.39999
1.39999
1.4
1.4
1.4
1.4
1.4
1.4
1.40001
1.4
1.40001
1.4
1.40001
1.4
1.40001
1.4
1.40001
1.40001
1.4
1.4
1.40001
1.4
1.40001
1.39999
1.40002
1.39999
1.40001
1.40001
1.4
1.40002
1.39997
1.40007
1.39994
1.40006
1.39998
1.40001
1.40002
1.39999
1.40001
1.4
1.40002
1.40001
1.4
1.40001
1.4
1.39999
1.40001
1.40002
1.40003
1.40005
1.40014
1.40031
1.40055
1.40087
1.40133
1.40243
1.40579
1.41494
1.43365
1.45655
1.46609
1.45049
1.41466
1.36814
1.30857
1.22316
1.10778
0.982738
0.885249
0.834951
0.830138
0.877828
0.971706
1.08437
1.18714
1.26551
1.3257
1.37646
1.41905
1.44958
1.46335
1.46057
1.44771
1.43273
1.42031
1.41168
1.40625
1.40312
1.40136
1.40047
1.40002
1.39989
1.39988
1.39983
1.39987
1.39991
1.39993
1.39995
1.39996
1.39998
1.39999
1.39999
1.4
1.4
1.4
1.4
1.4
1.4
1.4
1.4
1.40001
1.40001
1.4
1.40001
1.40001
1.4
1.40001
1.4
1.40001
1.40001
1.4
1.40001
1.4
1.40001
1.4
1.40001
1.4
1.40003
1.39997
1.40003
1.39999
1.40002
1.4
1.39999
1.40004
1.39997
1.40003
1.4
1.4
1.39999
1.40001
1.40002
1.4
1.40001
1.40001
1.4
1.40001
1.40002
1.40003
1.40008
1.40018
1.40035
1.4006
1.40095
1.40155
1.4031
1.4076
1.419
1.43995
1.46132
1.46475
1.44236
1.40198
1.35225
1.28744
1.19184
1.06209
0.922892
0.813413
0.753898
0.748873
0.804999
0.910992
1.03933
1.15718
1.24548
1.31046
1.36339
1.40786
1.44156
1.45979
1.46123
1.45083
1.43623
1.42315
1.4137
1.40758
1.40388
1.40181
1.40072
1.4002
1.4
1.39985
1.39985
1.39989
1.3999
1.39992
1.39995
1.39997
1.39998
1.39998
1.39999
1.4
1.4
1.4
1.4
1.4
1.4
1.4
1.40001
1.4
1.40001
1.4
1.40001
1.4
1.40001
1.40001
1.4
1.40001
1.4
1.40001
1.40001
1.4
1.40001
1.4
1.40001
1.4
1.4
1.40001
1.39999
1.40003
1.39997
1.40005
1.39996
1.40003
1.4
1.4
1.4
1.40002
1.40001
1.39998
1.40002
1.40001
1.39999
1.40001
1.40002
1.40001
1.40001
1.40004
1.4001
1.4002
1.40038
1.40065
1.40105
1.40187
1.40403
1.40987
1.42361
1.44601
1.46461
1.46192
1.43392
1.39004
1.3376
1.26789
1.16288
1.02035
0.868215
0.746924
0.679499
0.675571
0.738638
0.854192
0.995096
1.12635
1.22521
1.29559
1.35067
1.39682
1.43317
1.45534
1.46106
1.45355
1.43986
1.42635
1.41601
1.40909
1.40484
1.40239
1.40106
1.4004
1.40003
1.39991
1.39991
1.39989
1.3999
1.39993
1.39995
1.39996
1.39998
1.39998
1.39999
1.39999
1.4
1.4
1.4
1.4
1.4
1.4
1.4
1.4
1.4
1.40001
1.4
1.40001
1.4
1.40001
1.4
1.40001
1.4
1.40001
1.4
1.40001
1.4
1.40001
1.4
1.40001
1.4
1.40002
1.39999
1.40002
1.4
1.4
1.40002
1.39999
1.40002
1.4
1.40001
1.39999
1.40002
1.40001
1.4
1.40001
1.4
1.4
1.40001
1.40001
1.40002
1.40004
1.4001
1.40022
1.40041
1.40069
1.40119
1.40235
1.40525
1.41259
1.42855
1.45144
1.4664
1.45817
1.42582
1.37927
1.32453
1.25077
1.13836
0.98594
0.823601
0.693413
0.621492
0.619396
0.686542
0.806784
0.954422
1.09581
1.20503
1.28117
1.3384
1.38601
1.42449
1.45017
1.46003
1.45574
1.44349
1.42983
1.41864
1.41091
1.40602
1.40309
1.40146
1.40059
1.40018
1.40001
1.39991
1.39989
1.39992
1.39994
1.39995
1.39996
1.39998
1.39998
1.39999
1.39999
1.4
1.4
1.4
1.4
1.4
1.4
1.4
1.40001
1.4
1.4
1.4
1.4
1.40001
1.4
1.40001
1.4
1.40001
1.4
1.40001
1.4
1.40001
1.40001
1.4
1.40001
1.40001
1.4
1.40001
1.39999
1.40002
1.39998
1.40002
1.39999
1.40001
1.4
1.40002
1.4
1.39999
1.40002
1.4
1.4
1.40001
1.40001
1.4
1.40001
1.40003
1.40005
1.4001
1.40022
1.40042
1.40073
1.40141
1.40301
1.40677
1.4157
1.43357
1.45596
1.46689
1.45401
1.41855
1.36999
1.31334
1.2369
1.12019
0.962048
0.793994
0.659628
0.586802
0.586215
0.653487
0.772009
0.919648
1.06687
1.18495
1.26702
1.32666
1.37549
1.41563
1.44435
1.45813
1.45735
1.44697
1.43355
1.42169
1.41306
1.40739
1.40394
1.40197
1.4009
1.40035
1.40007
1.39996
1.39994
1.39993
1.39993
1.39995
1.39997
1.39997
1.39998
1.39999
1.39999
1.4
1.4
1.4
1.4
1.4
1.4
1.4
1.4
1.40001
1.4
1.40001
1.4
1.40001
1.4
1.40001
1.4
1.40001
1.4
1.40001
1.4
1.40001
1.4
1.40001
1.4
1.40001
1.4
1.40001
1.4
1.40001
1.40001
1.4
1.40001
1.40001
1.4
1.39999
1.40003
1.4
1.39999
1.40001
1.4
1.4
1.40001
1.4
1.40001
1.40002
1.40005
1.4001
1.40023
1.40043
1.40081
1.40174
1.4039
1.4086
1.41908
1.43834
1.45942
1.46632
1.44983
1.41245
1.36246
1.30428
1.2268
1.10956
0.9509
0.78253
0.648375
0.57656
0.575781
0.638967
0.750037
0.892085
1.04057
1.16506
1.25293
1.31523
1.36518
1.40672
1.43794
1.4554
1.45827
1.45021
1.43744
1.42509
1.41554
1.40906
1.40501
1.40261
1.40126
1.40055
1.40019
1.40004
1.39996
1.39994
1.39995
1.39996
1.39996
1.39998
1.39998
1.39999
1.39999
1.4
1.4
1.4
1.4
1.4
1.4
1.4
1.4
1.4
1.40001
1.4
1.40001
1.4
1.40001
1.4
1.40001
1.4
1.40001
1.4
1.40001
1.40001
1.4
1.40001
1.4
1.4
1.40001
1.4
1.40001
1.4
1.40001
1.4
1.40001
1.4
1.40002
1.39999
1.4
1.40002
1.4
1.4
1.40001
1.4
1.40001
1.40001
1.4
1.40002
1.40004
1.40008
1.40022
1.40046
1.40093
1.40218
1.40503
1.41069
1.42252
1.44259
1.46184
1.46499
1.44587
1.4077
1.35695
1.29757
1.22051
1.10655
0.952821
0.789033
0.657523
0.586038
0.582381
0.638496
0.738815
0.871493
1.01725
1.14562
1.23884
1.30388
1.35495
1.39773
1.43107
1.45184
1.45839
1.45307
1.44139
1.42879
1.41842
1.41106
1.40629
1.40339
1.40174
1.40082
1.40034
1.40011
1.4
1.39997
1.39996
1.39996
1.39997
1.39998
1.39999
1.39999
1.4
1.4
1.4
1.4
1.4
1.4
1.4
1.4
1.4
1.4
1.4
1.40001
1.40001
1.4
1.40001
1.4
1.40001
1.4
1.40001
1.4
1.40001
1.4
1.40001
1.40001
1.4
1.40001
1.4
1.4
1.40001
1.4
1.4
1.40001
1.40001
1.4
1.40001
1.40001
1.39999
1.40001
1.40001
1.4
1.40001
1.4
1.4
1.40001
1.39999
1.40001
1.40004
1.40006
1.40021
1.40053
1.40111
1.40273
1.40636
1.413
1.42582
1.44609
1.46337
1.46324
1.44223
1.40431
1.3537
1.29346
1.21766
1.10992
0.965727
0.810073
0.681793
0.608567
0.599857
0.6478
0.736255
0.857064
0.996772
1.12671
1.22463
1.29253
1.34464
1.38848
1.42375
1.44751
1.45764
1.45537
1.44526
1.43277
1.42168
1.4134
1.40785
1.40438
1.40232
1.40115
1.40054
1.40021
1.40007
1.4
1.39997
1.39997
1.39998
1.39998
1.39999
1.39999
1.4
1.4
1.4
1.4
1.4
1.4
1.4
1.4
1.4
1.4
1.4
1.40001
1.4
1.40001
1.4
1.40001
1.4
1.40001
1.4
1.40001
1.4
1.40001
1.40001
1.4
1.40001
1.40001
1.4
1.40001
1.4
1.40001
1.4
1.4
1.40001
1.40001
1.39999
1.40001
1.40001
1.4
1.40001
1.4
1.40001
1.40001
1.4
1.40001
1.39998
1.39999
1.40003
1.40002
1.40018
1.40065
1.40137
1.40333
1.40783
1.41545
1.42881
1.44869
1.46418
1.46143
1.43895
1.40202
1.35277
1.29235
1.21793
1.11764
0.985744
0.840592
0.715993
0.64012
0.62575
0.665433
0.741815
0.848845
0.979363
1.10839
1.21011
1.28109
1.33425
1.3789
1.41589
1.44242
1.45603
1.45699
1.44889
1.43693
1.42532
1.41614
1.40972
1.40558
1.40304
1.4016
1.40078
1.40035
1.40014
1.40004
1.4
1.39998
1.39998
1.39999
1.39999
1.39999
1.4
1.4
1.4
1.4
1.4
1.4
1.4
1.4
1.4
1.40001
1.4
1.40001
1.4
1.4
1.40001
1.4
1.40001
1.4
1.40001
1.40001
1.4
1.40001
1.4
1.4
1.40001
1.4
1.40001
1.4
1.40001
1.4
1.40001
1.4
1.4
1.40001
1.4
1.4
1.40001
1.4
1.40001
1.4
1.4
1.40001
1.39999
1.40001
1.39998
1.39995
1.40004
1.40001
1.40012
1.40079
1.40175
1.40398
1.40932
1.41794
1.43143
1.45035
1.46441
1.45994
1.43624
1.40046
1.35383
1.2946
1.22153
1.12813
1.00905
0.875984
0.75685
0.679819
0.660367
0.691745
0.756021
0.847864
0.965958
1.09098
1.19521
1.26938
1.32375
1.36898
1.40739
1.43651
1.45351
1.45784
1.45215
1.44113
1.42928
1.41927
1.41193
1.40703
1.40396
1.40214
1.4011
1.40054
1.40024
1.4001
1.40003
1.4
1.39999
1.39999
1.39999