/*--------------------------------*- C++ -*----------------------------------*\
  =========                 |
  \\      /  F ield         | OpenFOAM: The Open Source CFD Toolbox
   \\    /   O peration     | Website:  https://openfoam.org
    \\  /    A nd           | Version:  6
     \\/     M anipulation  |
\*---------------------------------------------------------------------------*/
FoamFile
{
    version     2.0;
    format      ascii;
    class       surfaceScalarField;
    location    "1.38";
    object      phi;
}
// * * * * * * * * * * * * * * * * * * * * * * * * * * * * * * * * * * * * * //

dimensions      [1 0 -1 0 0 0 0];

internalField   nonuniform List<scalar> 
11670
(
1.34033e-05
7.57128e-06
-6.74016e-05
4.67904e-05
-9.05359e-07
9.84732e-08
-2.2423e-07
7.50369e-07
3.21489e-05
1.18376e-05
-5.62544e-05
1.23052e-05
-4.40708e-06
3.18867e-06
-6.44718e-06
8.12225e-06
-3.66706e-06
2.36936e-06
-4.30083e-06
5.73495e-06
1.15842e-07
-6.8078e-08
-4.21707e-08
-3.30179e-08
9.44816e-06
-2.05826e-06
2.30804e-06
-9.72191e-06
-3.13597e-06
-3.97882e-07
-1.78007e-07
3.16218e-06
3.55555e-06
9.11818e-07
-5.63537e-07
-3.47535e-06
-4.37756e-06
1.10527e-06
-1.85419e-06
4.69937e-06
8.01155e-06
-1.56012e-06
5.14134e-06
-1.15889e-05
-2.93407e-06
-5.21218e-07
-3.8563e-07
3.69603e-06
9.86569e-09
1.51808e-08
2.24172e-07
-1.03616e-07
1.33436e-07
-8.49933e-08
-1.15394e-07
2.49683e-07
-1.01988e-06
-4.06317e-06
4.86646e-06
1.4166e-08
3.40895e-08
-1.88309e-08
9.86016e-08
-2.91649e-08
-7.3976e-05
1.9479e-05
2.10515e-06
5.22116e-05
-7.63164e-05
5.57124e-06
3.41463e-05
3.64728e-05
5.8745e-08
5.19041e-09
6.05e-08
-3.73051e-09
4.5037e-08
1.36512e-09
-4.37898e-08
6.24261e-08
2.77032e-05
-0.000135826
8.04882e-05
2.7376e-05
3.62322e-08
9.32108e-09
-2.34797e-08
2.40014e-08
5.34376e-06
-0.000112407
4.69167e-05
5.99949e-05
-3.20953e-06
-2.52926e-07
2.26926e-06
1.0428e-06
-2.76255e-09
2.07605e-08
1.25062e-07
-4.59782e-08
1.47654e-07
-1.14878e-07
-1.17949e-07
3.56739e-07
-5.16458e-07
-5.24116e-06
2.1642e-06
3.34257e-06
1.96346e-07
-4.28001e-08
1.75973e-07
-1.11656e-07
-5.59586e-08
-9.40965e-08
1.376e-07
-1.70093e-07
-2.37499e-07
9.73485e-08
-2.64975e-07
9.07109e-07
-1.06882e-07
-1.45104e-08
1.96561e-07
-3.03301e-07
2.51468e-07
-8.96944e-08
2.54293e-07
-1.50133e-07
-2.28863e-07
2.61834e-07
-1.92623e-07
6.11859e-07
-7.71191e-08
-1.13378e-07
-2.86614e-07
1.94013e-07
-2.28251e-07
2.00298e-07
2.27482e-07
-6.90054e-07
3.91263e-07
-3.98892e-07
-2.25521e-07
7.24906e-07
8.71266e-09
1.60407e-07
2.82621e-07
-1.68783e-07
1.52769e-07
-7.53354e-08
4.15377e-07
-1.81789e-07
-1.89906e-07
3.21693e-08
-2.92238e-07
1.99997e-07
9.67521e-08
-1.86121e-07
2.31287e-07
-7.21076e-07
-2.65301e-09
1.26924e-07
5.32332e-08
3.4903e-08
1.55354e-08
-4.52784e-08
-4.60989e-07
1.62174e-07
-3.05538e-07
3.91702e-07
-2.14719e-07
5.93551e-07
-1.97191e-07
-1.16562e-08
1.7405e-07
-2.16303e-07
1.65914e-07
-9.42966e-08
-1.29854e-07
2.56667e-07
-6.52903e-08
5.3752e-09
-2.65752e-07
1.30062e-07
-5.12356e-09
5.30978e-08
3.0869e-07
-1.25547e-07
-1.34043e-07
4.35351e-08
1.57625e-07
-2.96552e-07
9.10865e-09
3.6304e-08
2.86975e-08
8.14038e-09
-5.04116e-08
-2.3193e-08
6.2275e-08
-7.23412e-08
-5.8838e-08
9.09461e-08
-8.23498e-08
2.31456e-07
-2.43714e-08
1.2613e-08
-1.9304e-07
6.41236e-08
-3.01618e-09
-2.35742e-09
-2.56203e-09
-2.78462e-09
3.49394e-09
-8.21533e-09
2.44566e-08
-1.66539e-10
2.51128e-10
4.80915e-10
-9.54921e-11
7.41236e-10
3.18443e-08
8.82236e-08
-4.23356e-08
4.0868e-08
-4.83301e-08
-5.074e-08
-5.34372e-08
4.11367e-08
-5.38178e-08
6.33197e-08
2.3719e-07
-8.19601e-08
7.19272e-09
4.49488e-09
7.59162e-08
-1.95897e-07
1.80283e-07
-5.10815e-08
1.9843e-07
-1.26053e-07
-2.16756e-07
-1.40175e-08
1.77421e-07
-1.57334e-07
-1.56828e-07
1.78227e-07
-1.496e-07
4.9785e-07
2.15142e-08
-1.10717e-07
-5.35274e-07
2.17632e-07
1.21964e-08
7.90384e-08
6.56303e-09
5.7809e-08
-1.99808e-07
2.29287e-07
-1.82207e-07
5.03264e-07
1.38699e-08
-1.16499e-08
-4.55832e-07
1.36259e-07
-1.27823e-07
-2.66179e-08
1.28787e-07
-1.54166e-07
-5.39411e-08
1.91059e-07
-1.66821e-07
2.77745e-07
-2.61069e-07
5.00604e-09
2.05413e-07
-2.56853e-07
1.15139e-07
-1.19414e-07
-7.16422e-07
2.22152e-07
9.38173e-08
-1.26925e-07
1.99929e-07
-6.51569e-07
-2.105e-07
2.27323e-08
-2.84731e-07
1.99054e-07
3.16549e-07
-8.56121e-08
-1.70898e-07
2.4171e-07
-2.70205e-07
2.76115e-07
6.8186e-07
-1.99958e-07
2.51338e-07
-8.37147e-08
2.62248e-07
-1.73537e-07
-2.39349e-07
2.70525e-07
-1.80616e-07
6.05166e-07
-1.01475e-07
-1.27257e-07
1.76762e-07
-2.234e-07
-1.91323e-07
2.02678e-07
-6.95351e-07
2.20293e-07
-1.88728e-07
-6.95322e-08
-1.80119e-07
1.464e-07
1.46817e-08
1.46722e-07
7.42873e-08
1.33229e-08
-3.72304e-07
2.96349e-07
-3.44253e-07
9.79453e-07
-3.5307e-08
8.0411e-08
1.89084e-07
-5.13553e-07
1.11683e-07
-6.46654e-08
-1.16761e-06
-6.2441e-05
1.28864e-05
8.18089e-05
-3.27593e-05
1.48623e-06
4.4955e-05
-4.1944e-07
3.98319e-07
9.64052e-06
-1.0688e-06
7.14971e-07
-3.227e-06
-1.78766e-10
-1.3648e-08
9.59146e-08
1.04743e-06
-8.54143e-07
-3.73191e-06
-2.03115e-06
1.62094e-06
-3.64395e-06
-8.54691e-07
1.61427e-06
3.15457e-06
1.27728e-07
-1.36397e-08
-4.82557e-06
-4.95424e-07
2.24914e-07
8.43951e-06
2.575e-07
-8.1664e-07
5.22833e-06
-4.49095e-06
2.2672e-06
3.07139e-07
-1.38114e-07
-2.36694e-06
7.40692e-11
-9.92002e-09
-3.74662e-08
1.45003e-08
1.1404e-07
-9.70816e-08
-5.98365e-07
5.1695e-07
-2.37269e-07
6.85607e-07
7.87563e-07
-1.31873e-06
3.62831e-07
-5.11114e-07
-1.75552e-06
1.80564e-06
2.86448e-07
-1.39652e-06
-7.89468e-07
2.09411e-06
3.47916e-07
1.00126e-06
-1.7673e-06
4.96087e-07
1.43777e-06
5.19348e-06
-4.17547e-06
-2.37909e-08
-4.246e-08
1.32781e-07
-4.32286e-08
-1.25369e-08
-1.11455e-07
8.14313e-08
-5.64282e-08
-1.45528e-07
1.2573e-07
6.47989e-07
-5.59607e-07
-7.33227e-08
-1.57423e-07
1.11607e-07
1.39302e-07
-2.57074e-07
2.24591e-07
-8.74599e-08
-1.12691e-06
2.07644e-07
8.44962e-07
-1.90408e-08
1.6033e-07
-1.41288e-07
-6.20998e-07
1.91427e-06
-9.48972e-07
-5.07683e-08
-1.27843e-06
1.01705e-06
-1.66602e-08
-2.97768e-08
1.43653e-08
4.21833e-07
1.13729e-06
-1.29576e-06
1.97406e-06
3.14412e-07
-1.87365e-06
2.26415e-07
2.89039e-07
-4.65423e-07
-1.93763e-07
-1.14972e-07
-2.90757e-07
6.58363e-07
-4.92861e-07
-2.98687e-07
6.53488e-07
-5.9852e-10
-4.16112e-08
1.15241e-08
-2.41537e-07
-4.88689e-07
-9.45863e-10
2.17046e-07
6.98374e-07
-1.16614e-06
1.69812e-06
-1.01646e-06
2.13292e-06
9.43746e-07
-2.16551e-06
1.3636e-07
2.303e-07
-3.35154e-07
5.69557e-08
4.77435e-07
2.35014e-07
-4.89929e-07
8.53609e-07
1.55271e-06
2.67722e-06
-4.90348e-06
3.65924e-06
2.47276e-06
-5.09818e-06
1.38811e-06
-3.28794e-07
1.14205e-06
-2.42504e-06
2.13263e-06
1.08991e-06
-2.05812e-06
-5.75278e-07
5.91512e-07
3.12563e-07
-5.22985e-07
-3.41201e-07
3.21362e-07
-7.49752e-07
1.47259e-06
-2.7099e-06
-1.61644e-06
3.06313e-06
-2.05324e-07
-1.70965e-06
3.47112e-06
2.6015e-09
-3.87075e-08
-3.1727e-09
-2.24309e-08
-9.06934e-08
-1.36936e-10
3.16957e-08
2.24297e-06
-1.61226e-06
2.17096e-06
-1.43691e-08
-4.74626e-07
-1.84547e-06
-2.98261e-06
2.52266e-07
1.80943e-07
2.34481e-06
1.58298e-06
-0.000203713
7.06196e-05
0.00013201
-2.16109e-06
1.50194e-07
9.68984e-08
1.72623e-06
-8.03626e-05
-0.000176928
9.69923e-05
0.000161035
1.23116e-06
-2.82344e-08
-2.95965e-07
-1.0428e-06
-1.17812e-06
6.98493e-08
5.26021e-08
8.93303e-07
4.06393e-07
-1.00593e-08
-1.12159e-07
-3.87428e-07
-2.08181e-05
-0.000190403
7.60762e-05
0.000135439
-2.36591e-05
-0.00016754
6.90653e-05
0.000122596
5.52484e-05
-0.000189186
6.84082e-05
6.62029e-05
-0.000123524
-0.00015217
9.26025e-05
0.000184011
-1.46111e-05
1.86741e-05
-7.99572e-05
7.61607e-05
-4.56354e-05
3.48091e-05
-8.22587e-05
9.34228e-05
-6.15212e-06
5.57719e-07
4.75738e-07
4.72213e-06
3.66684e-06
-3.67005e-07
-2.92562e-07
-3.33507e-06
-1.88033e-05
-5.82378e-05
1.80748e-05
5.90827e-05
8.57177e-06
-1.5428e-06
-3.84001e-07
-6.89463e-06
-8.94499e-06
3.40928e-07
1.15144e-06
7.41428e-06
-3.52624e-06
2.56906e-07
5.90236e-07
2.36181e-06
-1.8038e-05
-2.94603e-05
4.92731e-06
4.28875e-05
-1.14655e-06
2.78421e-06
-1.03443e-05
8.72845e-06
4.92201e-06
-5.01953e-07
-2.34229e-06
-1.98304e-06
-1.19331e-05
1.76075e-06
4.58152e-07
9.34968e-06
8.16274e-06
2.21414e-06
-4.63324e-06
-5.22806e-06
-1.04845e-05
-1.0149e-05
6.0333e-06
1.48543e-05
-1.12462e-06
1.24823e-05
-2.70451e-06
-8.85228e-06
-7.82435e-06
1.63595e-06
1.41168e-06
4.49903e-06
-5.20243e-06
1.39131e-06
-4.05971e-07
3.58282e-06
1.76093e-06
4.02277e-06
-1.41058e-05
8.31198e-06
6.81389e-06
2.49793e-06
-5.84984e-06
-3.27247e-06
-9.50803e-06
1.89719e-06
6.6538e-07
6.57787e-06
8.98383e-06
-2.78465e-07
-1.6531e-06
-7.45243e-06
-5.60013e-06
2.92229e-06
-2.80451e-07
3.15073e-06
1.01727e-05
-3.31924e-06
-1.51729e-06
-5.67524e-06
2.48899e-06
4.06702e-07
-1.08843e-06
-2.53212e-06
-2.21067e-06
-7.01276e-07
1.77473e-06
1.788e-06
9.40004e-06
-5.02954e-06
-1.84336e-06
-2.40763e-06
9.57162e-06
2.4022e-06
-4.18191e-06
-7.26512e-06
-6.61047e-06
1.79248e-06
1.7537e-06
2.98021e-06
-6.80257e-06
1.57735e-06
-3.29391e-07
5.11339e-06
3.77586e-06
-1.60945e-06
-8.41007e-08
-1.86452e-06
-4.53154e-06
1.18885e-06
-4.07044e-07
3.1939e-06
-8.27353e-06
3.44279e-06
-3.55517e-06
8.59265e-06
-7.47493e-06
6.36858e-07
3.23631e-06
3.71526e-06
-5.3579e-06
-2.30217e-06
3.34035e-06
4.81484e-06
-3.97387e-07
-1.65615e-06
6.76119e-06
-5.11392e-06
1.95783e-06
-1.80625e-07
-8.48992e-07
-1.33272e-06
2.37052e-06
1.26173e-07
-6.7712e-07
-1.68001e-06
-8.35783e-07
3.38149e-07
-1.3247e-07
8.57096e-07
5.62876e-06
4.20335e-07
-1.5839e-06
-4.99268e-06
-6.3545e-06
3.24788e-06
-2.15565e-06
6.08013e-06
2.31788e-06
3.50414e-07
-9.99472e-07
-2.31621e-06
3.28645e-06
-6.78155e-07
-1.69944e-06
-8.2262e-07
-2.25792e-06
9.76168e-07
6.40461e-07
7.01163e-07
5.06087e-08
-4.96807e-07
2.77219e-07
-3.96299e-10
2.23715e-08
-1.2339e-08
2.28051e-10
1.64349e-08
-2.61712e-08
-3.38222e-09
3.23364e-09
4.47169e-08
-4.30223e-07
2.48867e-07
-2.62243e-07
-1.43449e-06
5.79788e-06
-4.1309e-06
-4.74385e-06
9.8601e-07
2.62605e-07
3.50291e-06
-4.80857e-09
7.61509e-09
5.1016e-08
7.32693e-09
3.07141e-09
2.1871e-08
-1.485e-09
2.10804e-09
-2.11004e-07
-1.27711e-09
3.30494e-08
1.19607e-07
-7.67969e-07
1.55204e-07
1.10406e-08
3.82598e-07
-2.91167e-07
-1.32387e-09
4.47823e-09
1.68428e-07
-1.34975e-05
-0.000179291
5.31546e-05
0.000139937
-4.63137e-05
-0.000190591
6.3741e-05
0.000173361
-3.18805e-08
-7.69277e-08
1.00791e-08
3.67207e-08
-6.56892e-09
6.51381e-08
1.9496e-08
6.32091e-09
-2.48796e-09
3.85265e-08
7.71638e-08
3.91998e-09
2.38273e-08
-1.28973e-07
-7.41654e-08
6.41321e-08
-1.40181e-06
-1.56071e-07
6.2532e-07
1.03676e-06
5.75092e-06
-3.24734e-08
-2.43603e-06
-3.37118e-06
-4.52723e-07
1.58534e-07
1.45716e-06
-1.08483e-06
-6.23803e-06
6.84607e-07
9.05147e-07
4.47152e-06
9.87392e-06
-4.9733e-06
-2.19678e-06
-2.51188e-06
-1.95167e-06
2.19488e-07
4.54496e-07
1.10158e-06
9.58064e-06
-3.52586e-06
1.63209e-06
-7.28311e-06
2.45165e-06
-2.10333e-07
-7.0422e-07
-1.69705e-06
3.98554e-06
-1.62884e-06
-3.39921e-07
-1.83858e-06
-3.48185e-06
-2.34988e-07
8.00765e-07
2.45753e-06
-9.27011e-08
-1.57879e-07
3.03418e-08
7.54686e-08
-9.855e-09
1.17001e-08
-1.86629e-07
1.63213e-08
-1.41082e-08
9.53125e-08
2.75755e-08
-2.18916e-08
1.33008e-06
5.74309e-07
-6.13518e-07
-1.03909e-06
-9.17946e-07
-3.83091e-07
4.42642e-06
-3.34114e-06
-5.88287e-06
5.58914e-07
7.32349e-07
4.41521e-06
-1.613e-06
9.32695e-07
-4.25329e-07
1.37019e-06
-8.27098e-06
1.53943e-06
4.40346e-06
2.49002e-06
-1.17026e-06
-4.9248e-07
5.69317e-06
-4.27304e-06
1.44943e-06
-3.05962e-07
1.20296e-07
-5.87553e-07
-5.63968e-06
-1.37981e-06
2.69718e-06
4.94668e-06
8.45415e-05
-0.000152835
4.61715e-05
2.27023e-05
-3.09535e-06
2.81186e-07
1.40962e-07
2.53703e-06
3.44496e-06
-3.93146e-08
-7.55528e-07
-2.8153e-06
-1.85046e-06
1.23978e-07
1.08707e-06
8.65587e-07
1.94183e-06
-7.24861e-07
1.81651e-07
-1.9523e-06
5.99433e-07
3.41205e-07
-3.52986e-06
2.52725e-06
5.54028e-06
-1.01929e-06
-1.78777e-07
-4.53466e-06
-6.74346e-06
2.24427e-07
8.22271e-07
5.52353e-06
9.62861e-06
-1.97383e-06
-4.49037e-07
-7.32728e-06
-3.47639e-06
1.87603e-05
-6.56601e-05
5.03342e-05
4.59484e-07
1.68707e-06
-9.00437e-06
6.76307e-06
3.3251e-05
-6.5685e-05
-4.82922e-05
8.06892e-05
7.41493e-06
-2.28116e-06
-5.54537e-06
-3.16872e-06
2.58021e-07
4.88396e-07
2.2248e-06
-2.81185e-06
-1.5985e-07
1.17968e-05
-8.87304e-06
4.30861e-06
-1.31636e-06
5.55428e-07
-3.21331e-06
1.49886e-06
2.2876e-07
-3.66131e-07
-7.88061e-07
3.40656e-06
-5.56787e-07
-4.74254e-07
-2.48246e-06
-4.85666e-06
-7.0514e-07
4.68841e-06
2.82529e-06
-6.20027e-07
-2.31739e-07
-2.21563e-06
-1.05117e-05
1.7956e-07
2.48846e-06
8.04089e-06
-1.4819e-06
-3.96601e-07
8.08049e-07
1.51175e-06
-9.66907e-07
1.17333e-07
4.84127e-07
1.07356e-06
1.44451e-07
-3.48954e-07
-4.42537e-07
-1.28379e-05
-1.67693e-09
3.13524e-06
9.63842e-06
-1.21334e-06
1.21995e-07
-1.09666e-08
6.27859e-07
-1.18516e-05
-7.68304e-07
3.07368e-06
9.77884e-06
-8.42965e-07
1.54496e-07
7.24416e-08
3.8255e-07
1.32973e-05
-2.99929e-06
-1.83698e-07
-1.0215e-05
-1.10347e-06
-2.21365e-08
7.448e-08
5.63738e-07
2.21735e-07
7.04696e-07
-3.87472e-07
-1.26765e-07
-8.98392e-06
-9.2761e-07
2.84403e-06
7.30095e-06
1.31976e-05
-3.27481e-06
5.66404e-07
-1.04666e-05
-2.0375e-06
-1.64449e-07
1.00495e-06
1.2537e-06
5.00044e-06
-1.40487e-06
-2.26378e-06
-1.36879e-06
-8.13921e-06
1.92729e-06
1.57003e-06
4.64259e-06
2.21404e-06
-2.19685e-07
-6.58049e-07
-1.36998e-06
5.82906e-06
-1.38257e-06
-2.84105e-06
-1.59981e-06
-3.91009e-06
1.25193e-06
5.44964e-07
1.86842e-06
7.3452e-08
8.34541e-07
-1.59103e-06
7.7005e-07
1.5743e-06
-5.76702e-07
-1.95219e-07
-7.58922e-07
-4.96612e-06
-2.07985e-06
6.47508e-06
4.11653e-07
-1.10576e-05
-1.89818e-06
-2.5387e-07
1.31117e-05
3.85292e-08
-2.45802e-07
3.99491e-08
1.67726e-08
-2.94854e-08
-1.8739e-07
5.23506e-08
3.6334e-08
-1.51115e-06
2.93773e-07
4.22696e-07
7.66555e-07
1.44797e-06
-3.33605e-07
-4.58894e-07
-7.36113e-07
1.01336e-05
-2.83431e-06
8.49524e-07
-8.06311e-06
-1.11279e-05
4.46178e-06
1.78225e-07
6.54096e-06
5.73694e-07
-1.56193e-07
1.9349e-07
-4.62717e-07
-6.43243e-07
-1.13752e-07
3.74374e-07
5.44465e-07
6.12553e-06
-1.23904e-06
-2.3707e-07
-4.76877e-06
2.55475e-07
1.00203e-06
-6.73044e-06
5.36448e-06
6.27365e-06
-1.33411e-06
-2.99022e-06
-1.57651e-06
1.5624e-06
-8.61886e-07
-1.07703e-07
-3.95063e-07
2.35711e-07
-9.42664e-06
-2.14811e-07
9.01049e-06
-1.36443e-07
-3.30599e-07
9.7757e-07
-4.7453e-07
-4.99903e-07
-3.68569e-08
2.87978e-07
3.31857e-07
5.04106e-07
4.45855e-08
-9.35581e-07
4.56246e-07
-1.82396e-06
1.0822e-06
8.60427e-08
8.0751e-07
-6.28225e-07
-6.74025e-08
3.29593e-07
4.83093e-07
-1.3979e-06
1.60201e-07
1.05246e-06
3.72981e-07
-1.49793e-07
8.97024e-08
6.60948e-07
-4.98479e-07
-2.88552e-05
-0.000132984
1.97129e-05
0.000141971
-6.80832e-07
1.40433e-07
-4.46312e-06
4.74097e-06
-4.39058e-06
2.05054e-06
1.07792e-06
1.35479e-06
-7.90606e-06
3.48215e-06
-1.14148e-05
1.56463e-05
-4.70974e-08
3.72755e-07
-6.67316e-07
4.25469e-07
-1.94648e-06
-1.72613e-09
9.492e-07
1.18125e-06
-6.86109e-06
2.71301e-06
8.86615e-08
4.08558e-06
6.12424e-07
-2.09089e-07
7.47445e-08
-3.43273e-07
1.75923e-06
-6.96766e-08
-7.83811e-07
-7.81272e-07
-0.000184408
7.1033e-06
-6.68435e-05
0.00024409
2.37185e-06
-9.12414e-09
-6.14841e-07
-1.8138e-06
-0.000115276
-0.000104931
6.08784e-05
0.000159696
-0.000154046
7.27776e-05
9.66614e-05
-1.48699e-05
-8.13607e-05
-0.000195391
1.44835e-05
0.000262042
-1.7544e-05
3.75691e-07
2.38862e-06
1.44991e-05
-4.1756e-05
-0.000218385
1.60919e-05
0.000243784
3.62052e-07
-5.07159e-08
-7.57967e-08
-1.53471e-07
-0.000111605
-0.000187536
2.02378e-05
0.000278904
-1.88193e-06
2.1366e-07
-8.07334e-08
1.74958e-06
-3.65625e-06
1.08141e-05
-4.47178e-05
3.72462e-05
4.35699e-05
-9.88211e-05
2.61269e-05
2.94292e-05
-3.80175e-05
2.03724e-05
-5.04482e-05
6.76774e-05
-4.61592e-05
-0.000113097
2.93377e-05
0.000129808
-1.02817e-05
-6.11449e-06
3.24768e-07
1.56505e-05
1.53646e-06
8.64932e-09
-6.04584e-07
-9.64676e-07
1.30512e-06
1.71196e-07
-3.65181e-07
-8.25375e-07
-6.90838e-06
4.30933e-06
-1.01148e-06
3.85853e-06
3.77066e-06
-6.78316e-07
-2.4613e-06
-8.21727e-07
8.97407e-07
-4.05485e-07
-1.49075e-06
1.40307e-06
2.19053e-06
-4.14768e-07
-6.68081e-07
-1.54293e-06
1.69857e-06
-8.92239e-09
-3.51295e-07
-1.78508e-06
-2.7085e-06
1.90783e-06
-1.0138e-06
2.50075e-06
-1.11324e-07
1.16179e-06
-1.0681e-06
-6.29075e-06
-6.09204e-06
1.27366e-05
-1.72181e-06
2.29276e-07
1.22601e-06
-6.61912e-06
-7.0666e-06
1.28578e-05
6.44591e-06
1.04341e-06
-3.56659e-06
-3.55574e-06
-1.88404e-06
1.54834e-06
-9.19301e-07
1.94163e-06
-6.45867e-05
-0.000162513
1.73476e-05
0.000209695
-2.82853e-06
-8.02791e-07
1.37045e-05
-1.02167e-05
-5.86579e-06
2.30286e-06
-9.31426e-07
4.7261e-06
1.92187e-06
-2.38848e-07
-2.8502e-06
7.08024e-07
-1.13573e-05
1.64359e-06
1.86772e-06
7.49207e-06
5.625e-06
1.22241e-06
-2.45068e-06
-3.86281e-06
-7.45033e-06
2.77885e-06
-1.71051e-07
4.52003e-06
9.89202e-06
-7.28086e-06
-2.37338e-06
1.15682e-07
2.26617e-06
5.23124e-07
-8.32084e-07
-1.6204e-06
-3.86203e-06
5.8396e-07
1.154e-07
2.74354e-06
-2.87336e-06
1.65317e-06
-9.50223e-07
2.61044e-06
-5.46227e-07
-7.46724e-09
1.40561e-07
4.03484e-07
3.47215e-07
-5.67132e-08
-7.67691e-09
-3.47709e-07
-1.73117e-05
-0.000210219
2.99086e-05
0.000197834
-2.65e-06
5.26525e-08
1.22386e-07
2.14701e-06
-9.55306e-05
-0.000226534
6.19525e-05
0.000260286
2.4812e-06
-6.00187e-07
-6.67369e-08
-1.522e-06
3.58726e-06
-9.70327e-07
-9.18621e-06
6.80129e-06
-3.99136e-06
1.79081e-07
1.61614e-06
2.55162e-06
-4.28849e-06
2.38005e-06
-1.13209e-06
3.53576e-06
-4.80363e-06
7.85262e-07
7.38207e-07
2.88695e-06
3.45542e-06
1.21687e-06
-1.65777e-06
-2.45361e-06
1.61364e-07
-1.75345e-06
-4.01209e-07
1.83162e-06
-4.23086e-06
-1.12948e-06
2.4987e-06
3.56482e-06
-7.73677e-06
-1.49261e-06
2.68163e-06
7.08737e-06
4.10852e-06
2.95264e-07
-1.53492e-06
-3.47991e-06
-1.06096e-05
2.60277e-06
1.46704e-06
6.83277e-06
1.10886e-05
-1.06018e-06
-2.09819e-06
-8.10417e-06
-2.78587e-06
-8.63405e-08
5.65176e-07
1.88105e-06
6.60731e-06
1.01209e-06
-2.17251e-06
-5.30997e-06
-4.30814e-06
3.74877e-07
-2.63326e-06
6.16049e-06
-1.4235e-05
7.28752e-07
2.86444e-06
1.07855e-05
5.32232e-06
-1.22532e-06
-4.01995e-06
9.81192e-08
2.76922e-06
-3.46375e-06
9.30255e-07
2.95355e-06
1.13173e-06
-1.44488e-06
-2.25587e-06
1.00554e-05
6.54616e-07
-3.1914e-06
-7.37397e-06
-1.88958e-06
1.03247e-06
-5.61792e-06
6.33216e-06
7.05332e-06
-8.15289e-07
-2.36359e-06
-4.09084e-06
7.79044e-06
-2.70049e-06
-3.13586e-06
-2.14162e-06
-9.88409e-06
-1.69501e-06
3.77729e-06
8.24681e-06
-9.82853e-06
4.97896e-07
2.14361e-06
6.74654e-06
1.47056e-06
-2.48534e-06
5.10963e-06
-3.65355e-06
-7.10795e-06
1.84726e-06
-3.8545e-07
5.02939e-06
-3.23729e-06
1.57857e-06
7.4378e-06
-5.23535e-06
9.48857e-06
-2.9488e-06
1.15886e-06
-7.47789e-06
-6.97303e-06
3.78506e-06
-6.99021e-07
4.38174e-06
6.27228e-06
-4.3543e-07
-2.344e-06
-3.72449e-06
-3.18215e-06
3.01815e-07
4.32538e-07
2.00749e-06
3.05158e-06
4.32333e-07
-1.42254e-06
-1.97777e-06
1.18518e-06
-1.93604e-07
-1.83006e-07
-9.17904e-07
-1.37474e-06
1.10387e-07
2.64435e-07
9.3804e-07
-9.6904e-07
4.05345e-07
7.94834e-08
6.72954e-07
-2.38045e-09
2.67953e-08
6.72873e-08
5.82674e-09
7.01036e-08
2.21154e-08
-1.7442e-07
1.08535e-08
-2.60804e-07
-3.34747e-07
1.33483e-06
-7.13674e-07
2.85268e-09
6.29296e-08
-4.043e-08
-2.04496e-09
3.98808e-08
1.07347e-08
8.32059e-09
-1.60996e-06
7.92666e-07
-2.06014e-07
1.19901e-06
-1.71513e-08
-6.11858e-08
1.18435e-07
-1.23071e-07
1.90405e-08
5.99811e-10
-8.64148e-08
8.32048e-09
-1.53133e-09
4.49256e-08
8.68344e-08
1.39934e-09
2.77115e-07
-5.19394e-07
1.35992e-06
-9.52442e-07
1.09483e-06
-8.33692e-08
-5.93115e-07
-2.7847e-07
5.08172e-06
-4.37519e-07
-1.27325e-06
-3.35385e-06
-1.69531e-06
-1.47187e-07
7.05737e-07
1.28617e-06
1.29502e-06
-4.49456e-07
-1.32907e-07
-7.65872e-07
-1.18748e-06
9.16803e-07
1.16466e-07
2.99077e-07
-4.82702e-06
1.60611e-06
-5.8559e-08
3.27546e-06
3.45552e-06
-1.25838e-06
-7.36307e-07
-1.56854e-06
-2.22772e-09
7.20709e-08
2.84149e-08
9.13163e-09
-2.70561e-09
1.58741e-09
3.74815e-08
3.24602e-09
1.35262e-06
-3.77035e-07
6.85306e-09
-8.57847e-07
6.60565e-07
-2.1544e-07
-4.4665e-08
-2.43774e-07
-7.45916e-07
2.39442e-07
2.18022e-08
4.1807e-07
-9.85639e-07
1.23817e-07
1.93309e-07
5.58615e-07
-3.04842e-06
2.2817e-06
-1.36909e-06
2.76617e-06
3.31569e-06
-1.64852e-07
-2.01524e-06
-1.63866e-06
1.03857e-05
-9.96918e-07
-3.05781e-06
-6.5633e-06
4.68684e-06
-2.93247e-06
-1.8449e-07
-1.28297e-06
-7.88457e-06
1.95316e-06
3.73436e-07
5.03476e-06
-7.51233e-06
8.43473e-08
6.56765e-06
-9.79495e-07
-1.14855e-06
2.5889e-06
-6.89197e-07
-2.72273e-06
3.85718e-07
4.0723e-07
1.58725e-06
2.57176e-06
-9.28377e-07
4.53872e-07
-1.65056e-06
1.27579e-05
-3.99989e-06
1.94174e-06
-1.04532e-05
-9.7277e-06
3.52105e-06
3.32543e-06
2.70854e-06
1.08236e-05
-4.10768e-06
-3.7743e-06
-2.73683e-06
-5.20296e-06
1.16895e-07
1.17741e-05
-6.62455e-06
-8.91593e-06
1.47024e-06
-1.46525e-06
8.68627e-06
9.431e-06
-4.26355e-06
7.56198e-07
-5.70579e-06
-2.56754e-06
2.03703e-06
1.19312e-07
6.32873e-07
4.62831e-06
1.88693e-06
-2.50027e-06
-3.40207e-06
1.90516e-06
-8.10832e-07
2.32133e-07
-1.87676e-06
1.68706e-06
1.25938e-06
-4.26555e-06
1.10025e-06
2.56049e-06
5.6129e-07
-1.25657e-06
-1.619e-06
-8.26079e-06
1.34875e-06
4.85727e-06
2.25802e-06
-2.4303e-06
-7.50855e-07
6.67957e-06
-3.75357e-06
-1.05258e-05
2.86901e-06
9.70651e-07
6.58341e-06
-1.09915e-05
3.51974e-06
4.42102e-06
2.97292e-06
2.50466e-06
-9.89838e-08
-1.58e-06
-6.41225e-07
4.41621e-06
-2.37213e-06
6.41233e-07
-2.37589e-06
-4.45699e-06
-4.32805e-07
1.08682e-06
3.23954e-06
1.47549e-06
-4.80144e-07
3.96369e-08
-1.45511e-06
-2.49573e-06
-5.72718e-07
8.99423e-07
2.58986e-06
-7.44732e-06
3.75472e-06
1.69669e-06
2.04475e-06
1.13533e-05
-4.54884e-06
-2.31885e-07
-6.60714e-06
-5.13938e-06
-2.10974e-06
9.96827e-06
-2.62051e-06
3.26293e-06
-1.80346e-07
-2.65362e-06
-6.96571e-06
1.74778e-06
2.03036e-06
3.19914e-06
7.36058e-06
-2.49763e-06
-2.9872e-06
-1.93899e-06
-3.19422e-06
-1.41882e-07
5.66989e-07
2.35216e-06
4.35419e-06
-1.44292e-06
3.42196e-07
-2.94508e-06
-1.08886e-05
-5.00981e-07
2.53724e-06
9.06621e-06
7.23147e-07
-4.31768e-06
3.29156e-06
-4.17331e-06
1.33904e-06
2.37174e-07
2.51896e-06
1.36406e-05
-2.9204e-06
5.38763e-07
-1.12664e-05
4.26026e-07
2.04518e-06
-1.02444e-05
7.37671e-06
9.79729e-06
-4.62456e-06
2.9211e-06
-7.58409e-06
-4.0923e-06
1.05807e-06
1.38091e-05
-1.05841e-05
-9.99386e-06
1.40232e-06
1.22303e-06
7.22865e-06
-6.87444e-06
-4.3536e-07
1.72458e-06
5.02461e-06
1.14018e-05
-3.89704e-06
1.34544e-06
-8.53375e-06
-1.26452e-05
2.03566e-07
2.00322e-06
1.05034e-05
3.29748e-06
-4.60109e-07
-1.20878e-06
-1.59314e-06
-1.26344e-05
-6.04225e-08
4.6197e-06
8.16878e-06
3.0991e-06
-1.1643e-06
6.13171e-07
-2.06507e-06
8.18683e-06
-1.95207e-06
-2.4259e-07
-6.40779e-06
-7.12427e-06
-2.44692e-06
3.89962e-06
6.36866e-06
-1.08084e-05
-1.0157e-06
3.33983e-06
8.83673e-06
-1.53108e-06
-1.06127e-06
8.56028e-06
-6.15864e-06
2.72588e-06
9.00781e-07
-4.79862e-06
1.24796e-06
4.51854e-06
-1.54774e-06
4.91588e-07
-4.10225e-06
-2.76673e-06
2.82363e-07
3.66744e-07
1.74646e-06
-1.45863e-06
3.81263e-06
-8.40399e-06
6.43303e-06
1.30074e-05
-2.45259e-06
-3.95051e-07
-1.03473e-05
-4.18209e-06
-1.14159e-06
2.82033e-06
3.01125e-06
3.52148e-06
-1.93045e-06
1.24949e-07
-2.08834e-06
4.79682e-06
-1.52738e-06
-2.02789e-06
-1.26085e-06
1.00017e-06
4.60831e-06
-3.38334e-06
1.49629e-06
-3.30351e-06
7.93251e-06
-5.84398e-06
-1.05933e-05
1.2635e-06
5.35423e-07
8.31856e-06
-4.82598e-06
2.35852e-06
3.73779e-06
3.85638e-06
1.49177e-06
-2.08615e-06
-2.70121e-06
8.74001e-06
-3.58548e-06
-3.19519e-06
-2.18101e-06
-7.46163e-06
3.60931e-06
-1.37651e-06
5.61041e-06
7.0093e-06
-4.05136e-07
-1.09237e-06
-5.93664e-06
5.53125e-06
2.09301e-06
-3.07926e-06
-3.90006e-06
-7.15208e-06
1.51362e-06
-1.48321e-07
5.22629e-06
-4.33718e-06
8.63773e-07
1.32982e-06
2.11907e-06
-2.52966e-06
3.21811e-07
3.46047e-07
1.53171e-06
-2.73931e-06
1.9044e-06
-1.08056e-06
2.51439e-06
7.86284e-07
1.83703e-07
-3.33546e-06
2.35743e-06
1.0085e-05
-2.36095e-06
-5.17969e-08
-7.66672e-06
4.49198e-06
2.99358e-07
-1.24427e-06
-4.17093e-06
-3.69627e-06
2.66021e-06
-1.63565e-06
3.45257e-06
-3.12702e-06
9.31089e-07
5.13175e-07
1.52313e-06
-7.2979e-06
7.72956e-07
2.02923e-06
4.87371e-06
4.07065e-06
-8.7341e-07
-9.71033e-07
-2.4512e-06
2.42063e-06
-9.75103e-07
2.63327e-08
-1.20209e-06
1.68496e-07
3.87422e-07
-1.72868e-06
9.59436e-07
-3.9083e-07
-6.16557e-07
3.6325e-06
-2.68238e-06
-2.84235e-07
2.16841e-06
-1.00406e-05
8.34951e-06
4.49044e-06
-2.40587e-06
-7.91113e-07
-1.1634e-06
-2.7085e-06
2.06521e-08
4.48862e-07
1.98955e-06
-5.92097e-06
-6.3581e-07
2.76017e-06
4.01258e-06
2.46859e-06
-7.91861e-07
1.35288e-07
-1.52739e-06
-2.8725e-06
5.30335e-07
1.66363e-06
8.61758e-07
2.23718e-06
-5.20745e-07
-2.18884e-08
-2.04194e-06
-6.59145e-06
5.82912e-06
4.03766e-08
-1.77981e-07
6.29609e-07
-1.7563e-06
-9.29679e-07
3.59814e-06
1.95541e-06
-4.25527e-06
3.45354e-07
9.07548e-07
-4.21804e-06
1.3919e-06
-1.41572e-06
-1.396e-07
2.23499e-07
-1.1497e-07
3.22404e-06
1.11779e-07
-4.72241e-07
1.77337e-07
-1.15168e-06
-2.70495e-07
9.69132e-07
7.808e-07
-1.53186e-06
1.10417e-07
-5.69752e-07
1.31798e-06
-3.12545e-06
3.92137e-06
-1.96894e-06
4.39605e-08
-2.40035e-07
-1.21282e-06
3.92398e-06
-1.82811e-06
-4.01171e-07
1.0743e-06
-9.52531e-07
5.07378e-06
0.000113731
-0.000302054
0.000244706
2.68148e-07
1.65662e-07
1.54723e-06
-9.398e-08
-5.01195e-07
-1.77597e-06
0.000141824
-0.000298707
7.76674e-05
-0.000280339
0.000111809
0.000170656
-0.000265466
8.87608e-05
0.00015353
1.27792e-07
8.15611e-08
8.56449e-07
-3.72256e-08
-2.67483e-07
-1.05683e-06
-2.54265e-07
7.45619e-08
-3.11069e-06
-6.66215e-07
2.38848e-07
8.55413e-06
3.28922e-05
-0.000107688
5.61896e-05
-0.000107081
2.16859e-05
7.13383e-05
1.76191e-07
-1.03307e-07
-6.73197e-06
-2.09213e-07
-6.65754e-07
-3.04682e-06
5.9916e-07
1.69371e-07
2.53938e-06
3.43706e-05
-0.000123714
4.39375e-05
-0.000280147
7.16846e-05
0.000195253
-8.60185e-09
-7.85082e-08
-3.41632e-07
-0.000202279
0.000133023
0.000154766
-5.74695e-07
2.64364e-07
3.46474e-06
-1.0965e-07
-5.57866e-08
-9.67088e-07
1.45548e-06
2.75899e-07
7.72378e-06
-0.000103945
2.96484e-05
7.08386e-05
7.5819e-07
-1.03339e-06
-8.03269e-06
-2.40306e-05
9.31306e-06
4.77339e-06
2.79812e-06
4.48361e-07
9.88515e-06
-0.000285564
0.000100874
0.000164195
3.74941e-08
3.00311e-08
2.14799e-07
3.39516e-06
-3.75462e-05
1.65878e-05
5.54376e-06
-7.98734e-06
-5.3292e-06
-2.81791e-06
6.37135e-06
-1.05883e-05
-6.61606e-07
1.5166e-07
-1.63719e-06
-7.26942e-07
5.41775e-07
2.7171e-06
-5.69768e-06
4.93445e-06
9.69932e-06
-1.87403e-06
1.04478e-06
9.11035e-06
4.44167e-06
-6.59252e-06
7.48515e-06
-2.04002e-07
7.8062e-08
-4.27978e-07
-4.52158e-06
3.71361e-06
-4.28129e-06
5.50318e-08
1.48054e-07
-1.24738e-05
-1.12335e-06
1.79612e-06
-6.70978e-06
1.29794e-08
6.22e-08
-5.84009e-11
-5.13063e-08
-3.26491e-08
-3.05224e-08
4.92135e-08
1.60309e-08
3.54999e-09
7.37476e-08
9.83027e-08
5.34548e-09
-1.84376e-06
1.56782e-06
1.33192e-05
-5.76324e-06
4.56635e-06
1.13949e-05
-0.000259678
0.000102425
3.48461e-05
1.5589e-06
-7.32283e-07
-8.19772e-06
-3.81607e-06
3.43338e-06
-3.99071e-06
-1.1221e-07
-4.12127e-08
-1.08779e-07
1.42122e-07
7.73928e-08
-2.01467e-09
-6.45309e-06
3.05331e-06
1.31637e-05
1.49601e-06
1.2847e-06
-9.71201e-06
1.8413e-06
-2.84645e-06
5.35214e-06
-4.80817e-07
1.44812e-06
4.09748e-06
-1.43106e-06
3.78982e-07
-3.99414e-06
3.28921e-06
-2.5052e-06
-5.8613e-06
-3.6486e-07
-1.66463e-06
-6.83951e-06
1.09578e-08
-2.82998e-07
-1.45848e-06
9.85727e-07
-7.01567e-07
-1.51235e-06
-0.000278905
5.01899e-05
0.00021158
2.21143e-09
7.43405e-08
1.93784e-07
3.63028e-07
7.23105e-07
4.24261e-06
-1.65604e-06
1.62779e-06
1.00997e-05
-7.89865e-07
3.49289e-06
-1.37803e-05
-7.53659e-07
7.97067e-07
1.58071e-06
-9.44484e-07
-2.59789e-07
-4.86265e-06
-5.81714e-09
-1.67613e-07
3.98498e-09
-1.78887e-06
1.12332e-06
2.71828e-06
2.58266e-07
9.24834e-07
4.77971e-06
-2.99297e-06
1.67541e-06
-6.65572e-06
-3.62393e-06
3.39123e-06
1.02453e-05
3.86986e-07
-2.93973e-07
-6.5168e-06
2.4071e-06
-2.50165e-06
-1.03237e-05
-2.35796e-06
2.56598e-06
-5.06569e-06
6.96186e-07
-9.70881e-07
-3.69867e-06
-2.54025e-06
1.96747e-06
5.12617e-06
2.33347e-06
-3.39571e-06
8.74841e-06
1.50214e-06
-1.44738e-06
6.59073e-06
1.85876e-06
-2.92367e-06
-1.29845e-05
-6.21086e-07
1.34827e-06
3.89571e-06
-1.48143e-06
3.67995e-07
-3.06097e-06
2.24876e-07
-4.3561e-08
2.28641e-06
-5.4035e-07
5.69207e-07
1.3905e-06
-1.18992e-06
1.57652e-06
-1.43386e-06
-4.54906e-07
6.21418e-07
1.363e-06
-9.80643e-07
1.00897e-06
3.14807e-06
-3.31126e-07
1.64245e-07
-1.32864e-06
9.2193e-06
-2.40888e-05
1.37639e-05
3.25103e-07
-2.67668e-08
1.11099e-06
6.5821e-07
-5.81507e-07
-1.30614e-06
-1.21951e-06
-1.68099e-07
6.9271e-06
-1.74941e-07
2.45391e-09
-8.07903e-09
-4.55401e-07
2.92223e-07
-8.03472e-07
-1.23288e-06
-1.83291e-07
-5.44038e-06
-7.49766e-06
-2.14573e-06
-1.51942e-06
-8.25102e-06
3.29229e-06
1.18587e-05
-2.70911e-06
-4.53568e-07
-4.97302e-06
-2.87739e-07
1.81156e-07
-3.18303e-06
-3.51971e-06
-1.71124e-06
1.1056e-05
-9.85684e-07
1.34382e-06
-1.127e-06
-2.42369e-07
3.78757e-07
1.13272e-06
5.33307e-07
-8.09978e-07
1.41314e-06
-0.000270513
8.00806e-05
0.000144332
-3.31644e-08
-5.49258e-09
-2.41944e-07
-4.292e-06
-3.90021e-07
9.58641e-06
-3.03042e-07
-2.33795e-08
1.55453e-06
-1.18365e-08
2.86126e-07
-2.27645e-06
-2.27823e-06
-1.48052e-05
1.11111e-05
3.84572e-07
-1.11877e-07
4.56333e-07
-2.80481e-05
-0.000260784
0.000246894
4.94421e-07
-1.38294e-07
4.76457e-07
-5.03176e-05
1.42166e-05
2.77875e-05
-7.74986e-05
2.45004e-05
4.90121e-05
1.41391e-06
-1.66834e-06
2.38894e-06
-1.90209e-06
6.37073e-07
-2.93666e-06
-0.000214124
4.42149e-05
0.000140753
-0.000258914
1.57926e-05
0.000161508
-8.24935e-05
2.06943e-05
2.31601e-05
1.89175e-07
-1.10738e-07
4.82985e-07
2.08288e-06
-1.17161e-06
-2.13429e-06
-1.26882e-06
2.06683e-06
-2.27979e-06
-1.59914e-06
1.53039e-06
2.27273e-06
-1.17863e-05
-1.2354e-06
2.20873e-06
-0.000239041
8.96219e-05
3.46729e-05
2.30165e-07
-9.37733e-08
-4.16601e-07
-1.36539e-05
1.09852e-06
1.23003e-05
-3.34733e-08
-5.20505e-07
-1.33883e-06
-7.44498e-07
1.57284e-07
2.83023e-06
-6.84202e-07
7.51361e-07