/*--------------------------------*- C++ -*----------------------------------*\
  =========                 |
  \\      /  F ield         | OpenFOAM: The Open Source CFD Toolbox
   \\    /   O peration     | Website:  https://openfoam.org
    \\  /    A nd           | Version:  6
     \\/     M anipulation  |
\*---------------------------------------------------------------------------*/
FoamFile
{
    version     2.0;
    format      ascii;
    class       volVectorField;
    location    "1.81";
    object      U;
}
// * * * * * * * * * * * * * * * * * * * * * * * * * * * * * * * * * * * * * //

dimensions      [0 1 -1 0 0 0 0];

internalField   nonuniform List<vector> 
24166
(
(0.895553 0.445382 0)
(0.888472 0.448696 0)
(0.8944 0.4472 0)
(0.8944 0.4472 0)
(0.8944 0.4472 0)
(0.8944 0.4472 0)
(0.8944 0.4472 0)
(0.8944 0.4472 0)
(0.892604 0.448995 0)
(0.8944 0.4472 0)
(0.894381 0.447187 0)
(0.893941 0.448531 0)
(0.894547 0.449629 0)
(0.89107 0.446588 0)
(0.8946 0.44734 0)
(0.894393 0.447199 0)
(0.894692 0.447373 0)
(0.894379 0.447148 0)
(0.8944 0.4472 0)
(0.894401 0.447222 0)
(0.894428 0.447196 0)
(0.894404 0.447201 0)
(0.8944 0.4472 0)
(0.8944 0.4472 0)
(0.892651 0.448833 0)
(0.8944 0.4472 0)
(0.894401 0.4472 0)
(0.896835 0.456678 0)
(0.894399 0.4472 0)
(0.8944 0.4472 0)
(0.897145 0.440436 0)
(0.8944 0.4472 0)
(0.8944 0.4472 0)
(0.8944 0.4472 0)
(0.8944 0.4472 0)
(0.93293 0.351509 0)
(0.8944 0.4472 0)
(0.945461 0.351101 0)
(0.8944 0.4472 0)
(1.46585 0.0208917 0)
(0.894372 0.447201 0)
(0.8944 0.4472 0)
(0.8944 0.4472 0)
(0.8944 0.4472 0)
(0.89438 0.44719 0)
(0.8944 0.4472 0)
(0.885691 0.44716 0)
(0.869249 0.418791 0)
(0.8944 0.4472 0)
(0.844584 0.411541 0)
(0.8944 0.4472 0)
(0.894078 0.447002 0)
(0.8944 0.4472 0)
(0.894252 0.447184 0)
(0.894402 0.447201 0)
(0.874857 0.464888 0)
(0.866524 0.401806 0)
(0.8944 0.4472 0)
(0.8944 0.4472 0)
(0.894394 0.447202 0)
(1.61118 0.0907741 0)
(0.894561 0.447275 0)
(0.8944 0.4472 0)
(0.8944 0.4472 0)
(0.8944 0.4472 0)
(0.8944 0.4472 0)
(0.8944 0.4472 0)
(0.891689 0.442393 0)
(0.87954 0.42349 0)
(0.8944 0.4472 0)
(0.894401 0.447201 0)
(0.894375 0.447196 0)
(0.8944 0.4472 0)
(0.8944 0.4472 0)
(0.8944 0.4472 0)
(0.894401 0.4472 0)
(0.894402 0.447203 0)
(0.843704 0.415202 0)
(0.8944 0.4472 0)
(0.894341 0.447194 0)
(0.874045 0.621391 0)
(0.8944 0.4472 0)
(0.8944 0.4472 0)
(0.803446 0.54992 0)
(0.89441 0.447192 0)
(0.8944 0.4472 0)
(0.894269 0.447212 0)
(0.8944 0.4472 0)
(0.8944 0.4472 0)
(0.894402 0.447202 0)
(0.8944 0.4472 0)
(0.8944 0.4472 0)
(0.894421 0.446849 0)
(0.894404 0.447197 0)
(0.894271 0.447092 0)
(0.894289 0.447061 0)
(0.8944 0.4472 0)
(0.894665 0.447251 0)
(0.89441 0.447201 0)
(0.8944 0.447204 0)
(0.8944 0.4472 0)
(0.8944 0.4472 0)
(0.894342 0.447027 0)
(0.8944 0.4472 0)
(0.8944 0.4472 0)
(0.8944 0.4472 0)
(0.8944 0.4472 0)
(0.894398 0.447193 0)
(0.8944 0.4472 0)
(0.894405 0.447204 0)
(0.8944 0.4472 0)
(0.8944 0.4472 0)
(0.8944 0.4472 0)
(1.19927 0.0800791 0)
(1.16101 0.113997 0)
(0.894393 0.447188 0)
(0.8944 0.4472 0)
(0.8944 0.4472 0)
(0.894469 0.447224 0)
(0.8944 0.4472 0)
(0.8944 0.4472 0)
(0.8944 0.4472 0)
(0.893573 0.449655 0)
(0.8944 0.4472 0)
(0.908642 0.48076 0)
(0.894361 0.447545 0)
(0.8944 0.4472 0)
(0.8944 0.4472 0)
(0.8944 0.4472 0)
(0.8944 0.4472 0)
(0.648985 0.74699 0)
(0.892482 0.444928 0)
(0.902499 0.459393 0)
(0.892302 0.466492 0)
(0.8944 0.4472 0)
(0.894398 0.447196 0)
(0.8944 0.4472 0)
(0.864197 0.650235 0)
(0.8944 0.4472 0)
(0.8944 0.447196 0)
(0.875023 0.463958 0)
(0.8944 0.4472 0)
(0.818781 0.529324 0)
(0.8944 0.4472 0)
(0.887657 0.449094 0)
(0.8944 0.4472 0)
(0.8944 0.4472 0)
(0.894402 0.447203 0)
(0.626379 0.761005 0)
(0.8944 0.4472 0)
(0.8944 0.4472 0)
(0.8944 0.4472 0)
(0.8944 0.4472 0)
(0.894402 0.447205 0)
(0.8944 0.447199 0)
(0.8944 0.4472 0)
(0.8944 0.4472 0)
(0.8944 0.4472 0)
(0.8944 0.4472 0)
(0.894397 0.447204 0)
(0.910999 0.460764 0)
(0.911816 0.442623 0)
(0.8944 0.4472 0)
(0.8944 0.4472 0)
(0.8944 0.4472 0)
(0.8944 0.4472 0)
(0.44403 0.0737262 0)
(0.8944 0.4472 0)
(0.8944 0.4472 0)
(0.8944 0.4472 0)
(0.8944 0.4472 0)
(0.8944 0.4472 0)
(0.8944 0.4472 0)
(0.894404 0.447383 0)
(0.8944 0.4472 0)
(0.893169 0.446518 0)
(0.8944 0.4472 0)
(0.8944 0.4472 0)
(0.894388 0.447159 0)
(0.866081 0.431829 0)
(0.8944 0.4472 0)
(0.8944 0.4472 0)
(0.985901 0.51787 0)
(0.8944 0.4472 0)
(0.8944 0.4472 0)
(0.8944 0.4472 0)
(0.8944 0.4472 0)
(0.8944 0.4472 0)
(0.8944 0.4472 0)
(0.8944 0.4472 0)
(0.8944 0.447201 0)
(0.892262 0.460357 0)
(0.8944 0.447199 0)
(0.894816 0.447561 0)
(0.8944 0.4472 0)
(0.894416 0.447208 0)
(0.897569 0.448156 0)
(0.8944 0.4472 0)
(0.894265 0.447338 0)
(0.894398 0.447196 0)
(0.8944 0.4472 0)
(0.8944 0.4472 0)
(0.8944 0.4472 0)
(0.892232 0.441452 0)
(0.8944 0.4472 0)
(0.8944 0.4472 0)
(0.8944 0.4472 0)
(0.8944 0.4472 0)
(0.8944 0.4472 0)
(0.855227 0.427327 0)
(0.897992 0.471372 0)
(0.8944 0.4472 0)
(0.892511 0.446705 0)
(0.894375 0.447211 0)
(0.8944 0.4472 0)
(0.894402 0.447199 0)
(0.8944 0.4472 0)
(0.8944 0.4472 0)
(1.08741 0.376106 0)
(0.8944 0.4472 0)
(0.8944 0.4472 0)
(0.89524 0.446553 0)
(0.8944 0.4472 0)
(0.8944 0.4472 0)
(0.905802 0.482863 0)
(0.8944 0.4472 0)
(0.8944 0.4472 0)
(0.8944 0.4472 0)
(0.894335 0.447166 0)
(0.8944 0.4472 0)
(0.896694 0.446038 0)
(0.894287 0.44722 0)
(0.894413 0.447289 0)
(0.8944 0.4472 0)
(0.97864 0.346813 0)
(0.8944 0.4472 0)
(0.894493 0.447213 0)
(0.8944 0.4472 0)
(0.8944 0.4472 0)
(0.8944 0.4472 0)
(0.8944 0.4472 0)
(0.8944 0.4472 0)
(0.8944 0.4472 0)
(0.8944 0.4472 0)
(0.894447 0.447165 0)
(0.8944 0.4472 0)
(0.894481 0.447249 0)
(0.894352 0.44724 0)
(0.894269 0.446984 0)
(0.8944 0.4472 0)
(0.894532 0.447156 0)
(0.8944 0.447199 0)
(0.8944 0.447205 0)
(0.997785 0.52802 0)
(0.8944 0.4472 0)
(0.8944 0.4472 0)
(0.8944 0.4472 0)
(0.894069 0.448605 0)
(0.8944 0.4472 0)
(0.894391 0.447189 0)
(0.8944 0.4472 0)
(0.8944 0.4472 0)
(0.8944 0.4472 0)
(0.894225 0.447306 0)
(0.8944 0.4472 0)
(0.894401 0.447201 0)
(0.894399 0.447201 0)
(0.8944 0.4472 0)
(0.8944 0.4472 0)
(0.8944 0.4472 0)
(0.894214 0.447193 0)
(0.967536 -0.224807 0)
(0.8944 0.4472 0)
(0.895481 0.446999 0)
(0.8944 0.4472 0)
(0.8944 0.4472 0)
(0.8944 0.4472 0)
(0.939823 0.475576 0)
(0.894395 0.447203 0)
(0.8944 0.4472 0)
(0.888573 0.45909 0)
(0.8944 0.4472 0)
(0.703154 -0.202943 0)
(0.8944 0.4472 0)
(0.8944 0.4472 0)
(0.8944 0.4472 0)
(0.8944 0.4472 0)
(0.8944 0.4472 0)
(0.894469 0.44735 0)
(0.8944 0.4472 0)
(1.01402 0.786401 0)
(0.8944 0.4472 0)
(0.8944 0.4472 0)
(0.8944 0.4472 0)
(0.89439 0.447039 0)
(1.55343 0.168923 0)
(0.8944 0.4472 0)
(0.8944 0.4472 0)
(0.894822 0.446474 0)
(0.8944 0.4472 0)
(0.8944 0.4472 0)
(0.894303 0.447199 0)
(0.894188 0.447139 0)
(0.8944 0.4472 0)
(0.8944 0.4472 0)
(0.8944 0.4472 0)
(0.8944 0.4472 0)
(0.894336 0.447199 0)
(0.892402 0.446721 0)
(0.8944 0.4472 0)
(0.880443 0.446797 0)
(0.894399 0.447202 0)
(0.8944 0.4472 0)
(0.766721 -0.292566 0)
(0.893209 0.446169 0)
(0.8944 0.4472 0)
(0.894348 0.447103 0)
(0.8944 0.4472 0)
(0.894391 0.447176 0)
(0.894417 0.447448 0)
(0.8944 0.4472 0)
(0.8944 0.4472 0)
(0.831403 0.459351 0)
(0.8944 0.4472 0)
(0.8944 0.4472 0)
(0.894399 0.447198 0)
(0.8944 0.4472 0)
(0.8944 0.4472 0)
(0.8944 0.4472 0)
(1.11821 0.368325 0)
(0.8944 0.4472 0)
(0.894401 0.447219 0)
(0.8944 0.4472 0)
(0.894203 0.447828 0)
(0.8944 0.4472 0)
(0.888815 0.443304 0)
(0.8944 0.4472 0)
(0.8944 0.4472 0)
(0.894381 0.44723 0)
(0.895421 0.450943 0)
(0.8944 0.4472 0)
(0.8944 0.4472 0)
(0.8944 0.4472 0)
(0.8944 0.4472 0)
(0.8944 0.4472 0)
(0.8944 0.4472 0)
(0.8944 0.4472 0)
(0.8944 0.4472 0)
(0.8944 0.4472 0)
(0.8944 0.4472 0)
(0.8944 0.4472 0)
(0.8944 0.4472 0)
(0.8944 0.4472 0)
(0.8944 0.4472 0)
(0.8944 0.4472 0)
(0.8944 0.4472 0)
(0.8944 0.4472 0)
(0.8944 0.4472 0)
(0.468049 0.137269 0)
(0.906497 0.449675 0)
(0.8944 0.4472 0)
(0.8944 0.4472 0)
(0.8944 0.4472 0)
(0.888562 0.442156 0)
(0.8944 0.4472 0)
(0.8944 0.4472 0)
(0.895069 0.446584 0)
(0.8944 0.4472 0)
(0.8944 0.4472 0)
(0.8944 0.4472 0)
(0.894209 0.448079 0)
(0.8944 0.4472 0)
(0.8944 0.4472 0)
(0.8944 0.4472 0)
(0.8944 0.4472 0)
(0.894614 0.447133 0)
(0.8944 0.4472 0)
(0.894616 0.447122 0)
(0.8944 0.4472 0)
(0.8944 0.4472 0)
(0.8944 0.447201 0)
(0.8944 0.4472 0)
(0.8944 0.4472 0)
(0.894207 0.447233 0)
(0.893237 0.448254 0)
(0.8944 0.4472 0)
(0.8944 0.4472 0)
(0.894868 0.446982 0)
(0.8944 0.4472 0)
(1.02336 0.751903 0)
(0.8944 0.4472 0)
(0.8944 0.4472 0)
(0.893928 0.447779 0)
(0.905942 0.458332 0)
(0.846417 0.137761 0)
(0.897348 0.446071 0)
(0.894399 0.447204 0)
(0.8944 0.4472 0)
(0.8944 0.4472 0)
(0.8944 0.4472 0)
(0.8944 0.4472 0)
(0.8944 0.4472 0)
(0.893982 0.447605 0)
(0.89518 0.447126 0)
(0.8944 0.4472 0)
(0.8944 0.4472 0)
(0.8944 0.4472 0)
(0.893022 0.446831 0)
(0.8944 0.4472 0)
(0.8944 0.4472 0)
(0.895787 0.446807 0)
(0.8944 0.4472 0)
(0.8944 0.4472 0)
(0.8944 0.4472 0)
(0.8944 0.4472 0)
(0.893412 0.447199 0)
(0.889746 0.438185 0)
(0.8944 0.4472 0)
(0.894395 0.447201 0)
(0.8944 0.4472 0)
(0.8944 0.4472 0)
(0.831231 0.410081 0)
(0.8944 0.4472 0)
(0.8944 0.4472 0)
(0.8944 0.447199 0)
(0.8944 0.4472 0)
(0.895421 0.447792 0)
(0.8944 0.4472 0)
(0.8944 0.4472 0)
(0.894454 0.446195 0)
(0.894332 0.447205 0)
(0.908086 0.510633 0)
(0.8944 0.4472 0)
(0.8944 0.447201 0)
(0.894401 0.447201 0)
(0.8944 0.4472 0)
(0.8944 0.4472 0)
(0.8944 0.4472 0)
(0.8944 0.4472 0)
(0.89387 0.446234 0)
(0.894394 0.447213 0)
(0.8944 0.4472 0)
(0.485981 0.179544 0)
(0.8944 0.4472 0)
(0.8944 0.4472 0)
(0.894408 0.447218 0)
(0.964756 0.311907 0)
(0.8944 0.4472 0)
(0.748862 0.370302 0)
(1.08953 0.45425 0)
(0.8944 0.4472 0)
(0.8944 0.4472 0)
(0.8944 0.4472 0)
(0.893738 0.448115 0)
(0.893899 0.44925 0)
(0.894229 0.447191 0)
(0.905671 0.448371 0)
(0.8944 0.4472 0)
(0.8944 0.4472 0)
(0.8944 0.4472 0)
(0.22885 0.703242 0)
(0.8944 0.4472 0)
(0.893899 0.447787 0)
(0.846349 0.262249 0)
(0.8944 0.4472 0)
(0.8944 0.4472 0)
(0.8944 0.4472 0)
(0.8944 0.4472 0)
(0.8944 0.447217 0)
(0.894401 0.4472 0)
(0.894398 0.447203 0)
(0.894018 0.44969 0)
(0.8944 0.4472 0)
(0.8944 0.4472 0)
(0.8944 0.4472 0)
(0.894006 0.448536 0)
(0.8944 0.4472 0)
(0.8944 0.4472 0)
(0.8944 0.4472 0)
(0.894357 0.447224 0)
(0.8944 0.4472 0)
(0.966628 0.306143 0)
(0.8944 0.4472 0)
(0.8944 0.4472 0)
(0.525223 0.204182 0)
(0.8944 0.4472 0)
(0.894831 0.447053 0)
(0.8944 0.447202 0)
(0.8944 0.4472 0)
(0.8944 0.4472 0)
(0.8944 0.4472 0)
(0.8944 0.4472 0)
(0.8944 0.4472 0)
(0.8944 0.4472 0)
(0.894402 0.427599 0)
(0.811991 0.403845 0)
(0.8944 0.4472 0)
(0.894366 0.447203 0)
(0.8944 0.4472 0)
(0.89841 0.450367 0)
(0.8944 0.4472 0)
(0.895008 0.44786 0)
(0.794458 0.367044 0)
(0.209491 0.68096 0)
(0.8944 0.4472 0)
(0.894282 0.447052 0)
(0.894391 0.447199 0)
(0.8944 0.4472 0)
(0.8944 0.4472 0)
(0.895122 0.447447 0)
(0.894399 0.4472 0)
(0.8944 0.4472 0)
(0.8944 0.4472 0)
(0.8944 0.4472 0)
(0.894917 0.445635 0)
(0.900022 0.451481 0)
(0.898635 0.454105 0)
(0.894386 0.447218 0)
(0.8944 0.4472 0)
(0.8944 0.4472 0)
(0.8944 0.4472 0)
(0.8944 0.4472 0)
(0.911575 0.4526 0)
(0.965326 0.459124 0)
(0.8944 0.4472 0)
(0.8944 0.4472 0)
(0.8944 0.4472 0)
(0.8944 0.4472 0)
(0.8944 0.4472 0)
(1.00902 0.646045 0)
(0.8944 0.4472 0)
(0.894609 0.447409 0)
(0.8944 0.4472 0)
(0.894399 0.447202 0)
(0.8944 0.447199 0)
(0.8944 0.4472 0)
(0.224671 0.851398 0)
(0.894399 0.447202 0)
(0.893631 0.446199 0)
(0.8944 0.4472 0)
(0.8944 0.4472 0)
(0.8944 0.4472 0)
(0.885501 0.442775 0)
(0.8944 0.4472 0)
(0.915303 0.442228 0)
(0.894399 0.447202 0)
(0.971092 0.352281 0)
(0.8944 0.4472 0)
(0.894392 0.447228 0)
(0.89423 0.447361 0)
(0.889836 0.422957 0)
(0.8944 0.4472 0)
(0.894284 0.447162 0)
(0.8944 0.4472 0)
(0.8944 0.4472 0)
(0.8944 0.4472 0)
(0.8944 0.4472 0)
(0.863576 0.432832 0)
(0.8944 0.4472 0)
(1.11169 -0.146173 0)
(0.505416 1.03805 0)
(0.8944 0.4472 0)
(0.8944 0.4472 0)
(0.892947 0.446231 0)
(0.8944 0.4472 0)
(0.843027 0.46093 0)
(0.941561 1.18384 0)
(0.89439 0.447219 0)
(0.8944 0.4472 0)
(0.8944 0.4472 0)
(0.8944 0.4472 0)
(0.893288 0.463127 0)
(0.894399 0.447202 0)
(0.8944 0.4472 0)
(0.893719 0.447326 0)
(0.8944 0.4472 0)
(0.894401 0.447222 0)
(0.8944 0.4472 0)
(0.8944 0.447198 0)
(0.8944 0.4472 0)
(0.894491 0.445843 0)
(0.8944 0.4472 0)
(0.8944 0.4472 0)
(0.8944 0.4472 0)
(0.8944 0.447203 0)
(0.8944 0.4472 0)
(0.8944 0.4472 0)
(0.88658 0.43774 0)
(0.886187 0.442497 0)
(0.889448 0.236376 0)
(0.8944 0.4472 0)
(0.894314 0.447211 0)
(0.8944 0.4472 0)
(0.8944 0.4472 0)
(0.736878 -0.247457 0)
(0.8944 0.4472 0)
(0.8944 0.447198 0)
(0.867758 0.252646 0)
(0.8944 0.4472 0)
(0.8944 0.4472 0)
(0.901979 0.447581 0)
(0.8944 0.4472 0)
(0.8944 0.4472 0)
(0.894701 0.447461 0)
(0.8944 0.4472 0)
(0.901283 0.430719 0)
(0.89439 0.447213 0)
(0.894398 0.447204 0)
(0.892579 0.44326 0)
(0.8944 0.4472 0)
(0.893729 0.447762 0)
(0.8944 0.4472 0)
(0.894403 0.447209 0)
(0.8944 0.4472 0)
(0.893629 0.445778 0)
(0.8944 0.4472 0)
(0.8944 0.4472 0)
(1.05863 0.432032 0)
(0.940916 0.469542 0)
(0.8944 0.4472 0)
(0.90196 0.446722 0)
(0.8944 0.4472 0)
(0.895619 0.446707 0)
(0.8944 0.4472 0)
(0.8944 0.4472 0)
(0.8944 0.4472 0)
(0.893977 0.447443 0)
(0.8944 0.4472 0)
(0.968874 0.453219 0)
(0.8944 0.4472 0)
(0.8944 0.4472 0)
(0.880409 0.463635 0)
(0.8944 0.4472 0)
(0.90132 0.436163 0)
(0.8944 0.4472 0)
(0.8944 0.447201 0)
(1.07913 0.163172 0)
(0.8944 0.4472 0)
(0.8944 0.4472 0)
(0.899518 0.474526 0)
(0.894399 0.4472 0)
(0.8944 0.4472 0)
(0.894053 0.447923 0)
(0.894201 0.447081 0)
(1.14189 0.543318 0)
(0.8944 0.4472 0)
(0.894373 0.447234 0)
(0.894351 0.447207 0)
(0.89448 0.447222 0)
(0.8944 0.447201 0)
(0.8944 0.4472 0)
(0.8944 0.4472 0)
(0.8944 0.4472 0)
(0.8944 0.4472 0)
(0.894393 0.44724 0)
(0.8944 0.4472 0)
(0.8944 0.4472 0)
(0.8944 0.4472 0)
(0.8944 0.4472 0)
(0.894399 0.447199 0)
(0.8944 0.4472 0)
(0.894675 0.447402 0)
(0.8944 0.4472 0)
(0.8944 0.4472 0)
(0.8944 0.4472 0)
(0.886997 0.444324 0)
(0.911556 0.456358 0)
(0.8944 0.4472 0)
(0.894381 0.447189 0)
(0.8944 0.4472 0)
(0.8944 0.4472 0)
(1.29142 0.354135 0)
(0.8944 0.4472 0)
(0.8944 0.4472 0)
(0.8944 0.4472 0)
(0.700911 -0.215011 0)
(0.8944 0.4472 0)
(0.8944 0.4472 0)
(0.894394 0.447219 0)
(0.8944 0.4472 0)
(0.8944 0.4472 0)
(0.8944 0.4472 0)
(0.8944 0.4472 0)
(0.8944 0.4472 0)
(0.8944 0.4472 0)
(0.8944 0.4472 0)
(0.8944 0.4472 0)
(0.8944 0.4472 0)
(0.894442 0.447215 0)
(0.898368 0.445825 0)
(0.884046 0.449934 0)
(0.894381 0.447218 0)
(0.8944 0.4472 0)
(0.894399 0.4472 0)
(0.8944 0.4472 0)
(0.8944 0.4472 0)
(0.89465 0.445483 0)
(0.894398 0.447203 0)
(0.869413 0.42917 0)
(1.15288 0.527449 0)
(0.8944 0.4472 0)
(0.8944 0.4472 0)
(0.8944 0.4472 0)
(0.8944 0.4472 0)
(0.887279 0.442571 0)
(0.8944 0.4472 0)
(0.894374 0.447226 0)
(1.01833 0.629964 0)
(0.8944 0.4472 0)
(0.8944 0.4472 0)
(0.8944 0.4472 0)
(0.8934 0.448775 0)
(0.8944 0.4472 0)
(0.8944 0.4472 0)
(0.8944 0.4472 0)
(0.8944 0.4472 0)
(0.896716 0.446835 0)
(0.985453 0.62718 0)
(0.8944 0.4472 0)
(0.909523 0.446754 0)
(0.893423 0.445241 0)
(0.87783 0.32445 0)
(0.894399 0.4472 0)
(0.8944 0.4472 0)
(0.89465 0.447163 0)
(0.8944 0.4472 0)
(0.819231 0.44955 0)
(0.8944 0.4472 0)
(0.894384 0.447201 0)
(0.8944 0.4472 0)
(0.894399 0.447203 0)
(0.8944 0.4472 0)
(0.895154 0.447192 0)
(0.877062 0.442694 0)
(0.920956 0.457673 0)
(0.894373 0.447225 0)
(0.894484 0.447221 0)
(0.8944 0.4472 0)
(0.8944 0.4472 0)
(0.8944 0.4472 0)
(0.894382 0.44722 0)
(0.8944 0.4472 0)
(0.894401 0.447203 0)
(0.894398 0.44729 0)
(0.408454 -0.0946759 0)
(0.87573 0.444402 0)
(0.8944 0.4472 0)
(0.8944 0.4472 0)
(0.8944 0.4472 0)
(0.8944 0.4472 0)
(0.8944 0.4472 0)
(0.8944 0.4472 0)
(0.8944 0.4472 0)
(0.8944 0.4472 0)
(0.89505 0.488646 0)
(0.8944 0.4472 0)
(0.8944 0.4472 0)
(0.894402 0.4472 0)
(0.885545 0.445886 0)
(0.8944 0.4472 0)
(0.8944 0.4472 0)
(0.8944 0.4472 0)
(0.8944 0.4472 0)
(0.8944 0.4472 0)
(0.910269 0.525152 0)
(0.8944 0.4472 0)
(0.8944 0.4472 0)
(0.8944 0.4472 0)
(0.8944 0.447201 0)
(0.893426 0.447102 0)
(0.8944 0.4472 0)
(0.8944 0.4472 0)
(0.8944 0.4472 0)
(0.8944 0.447201 0)
(0.8944 0.4472 0)
(0.894395 0.447206 0)
(0.8944 0.4472 0)
(0.8944 0.4472 0)
(0.880063 0.440575 0)
(0.8944 0.447203 0)
(0.8944 0.4472 0)
(0.8944 0.4472 0)
(0.894399 0.447202 0)
(0.8944 0.4472 0)
(0.8944 0.4472 0)
(0.8944 0.4472 0)
(0.894409 0.447202 0)
(0.8944 0.4472 0)
(0.8944 0.4472 0)
(0.8944 0.4472 0)
(0.8944 0.4472 0)
(0.727236 0.498847 0)
(0.8944 0.4472 0)
(0.8944 0.4472 0)
(0.8944 0.4472 0)
(0.8944 0.4472 0)
(0.894397 0.447198 0)
(0.8944 0.4472 0)
(0.8944 0.4472 0)
(0.8944 0.4472 0)
(0.8944 0.4472 0)
(0.437533 -0.0808084 0)
(0.878955 0.464487 0)
(0.8944 0.4472 0)
(0.762338 0.411259 0)
(0.894401 0.447201 0)
(0.885243 0.454472 0)
(0.8944 0.4472 0)
(0.8944 0.4472 0)
(0.8944 0.4472 0)
(0.8944 0.447201 0)
(0.8944 0.4472 0)
(0.8944 0.4472 0)
(0.8944 0.4472 0)
(0.8944 0.4472 0)
(0.8944 0.4472 0)
(1.07009 -0.0127036 0)
(0.894371 0.447146 0)
(0.894395 0.447202 0)
(0.8944 0.4472 0)
(0.8944 0.4472 0)
(0.894414 0.447195 0)
(0.894393 0.447198 0)
(0.8944 0.4472 0)
(0.8944 0.4472 0)
(0.514079 0.543806 0)
(0.894391 0.4472 0)
(0.8944 0.4472 0)
(0.8944 0.4472 0)
(0.8944 0.4472 0)
(0.8944 0.4472 0)
(0.8941 0.447131 0)
(0.8944 0.4472 0)
(0.8944 0.4472 0)
(0.894406 0.447206 0)
(0.8944 0.4472 0)
(0.894394 0.447204 0)
(0.553482 0.548487 0)
(0.8944 0.4472 0)
(0.89426 0.447182 0)
(0.895913 0.448563 0)
(0.891194 0.44598 0)
(0.8944 0.4472 0)
(0.891147 0.4501 0)
(0.8944 0.4472 0)
(0.894399 0.447205 0)
(0.8944 0.4472 0)
(0.8944 0.4472 0)
(0.8944 0.4472 0)
(0.8944 0.4472 0)
(0.8944 0.4472 0)
(0.8944 0.4472 0)
(0.8944 0.4472 0)
(0.894878 0.44721 0)
(0.870849 0.449241 0)
(0.8944 0.4472 0)
(0.891827 0.445861 0)
(0.894404 0.447202 0)
(0.8944 0.4472 0)
(0.8944 0.4472 0)
(0.8944 0.4472 0)
(0.894518 0.447135 0)
(0.8944 0.4472 0)
(0.8944 0.4472 0)
(0.8944 0.4472 0)
(0.894808 0.448718 0)
(0.8944 0.4472 0)
(0.894686 0.323885 0)
(0.8944 0.4472 0)
(0.897033 0.446545 0)
(0.89439 0.447216 0)
(0.8944 0.4472 0)
(0.8944 0.4472 0)
(0.894361 0.447379 0)
(0.84813 0.449448 0)
(0.8944 0.4472 0)
(0.894399 0.447205 0)
(0.8944 0.4472 0)
(0.895057 0.447662 0)
(0.8944 0.4472 0)
(0.8944 0.4472 0)
(0.8944 0.4472 0)
(0.89438 0.447243 0)
(0.8944 0.4472 0)
(0.8944 0.447199 0)
(0.8944 0.4472 0)
(0.8944 0.4472 0)
(0.894399 0.447199 0)
(0.8944 0.4472 0)
(0.897221 0.439978 0)
(0.8944 0.4472 0)
(0.8944 0.4472 0)
(0.896245 0.463401 0)
(0.8944 0.4472 0)
(0.894301 0.447277 0)
(0.895603 0.44742 0)
(0.8944 0.4472 0)
(0.894401 0.447198 0)
(0.8944 0.4472 0)
(0.8944 0.4472 0)
(0.894392 0.447212 0)
(0.8944 0.4472 0)
(0.8944 0.4472 0)
(0.894393 0.447217 0)
(0.8944 0.4472 0)
(0.8944 0.4472 0)
(0.900335 0.440657 0)
(0.389874 0.163541 0)
(0.8944 0.4472 0)
(0.896901 0.447598 0)
(0.8944 0.4472 0)
(0.8944 0.4472 0)
(0.894399 0.447203 0)
(0.8944 0.447197 0)
(0.8944 0.4472 0)
(0.894402 0.4472 0)
(0.8944 0.4472 0)
(0.8944 0.4472 0)
(0.894395 0.447196 0)
(0.841181 0.555033 0)
(0.8944 0.4472 0)
(0.8944 0.4472 0)
(0.894401 0.447193 0)
(0.895565 0.448 0)
(1.10853 0.543544 0)
(0.89447 0.447173 0)
(0.894184 0.447333 0)
(0.894399 0.447202 0)
(0.894392 0.447209 0)
(0.894401 0.4472 0)
(0.8944 0.4472 0)
(0.894399 0.4472 0)
(0.8944 0.4472 0)
(0.894398 0.447207 0)
(0.900308 0.430793 0)
(0.894215 0.446904 0)
(0.954879 0.268316 0)
(0.8944 0.4472 0)
(0.892462 0.44646 0)
(0.894399 0.447198 0)
(0.894397 0.447201 0)
(1.12005 0.552941 0)
(0.90938 0.34853 0)
(0.8944 0.4472 0)
(0.894399 0.447191 0)
(0.894399 0.4472 0)
(0.8944 0.4472 0)
(0.8944 0.4472 0)
(0.894375 0.44719 0)
(0.176295 0.562098 0)
(0.893536 0.446915 0)
(0.884574 0.383803 0)
(0.8944 0.4472 0)
(0.8944 0.4472 0)
(0.894861 0.447984 0)
(0.895143 0.446955 0)
(0.887201 0.452121 0)
(0.8944 0.4472 0)
(0.8944 0.4472 0)
(0.8944 0.4472 0)
(0.899296 0.442018 0)
(0.8944 0.4472 0)
(0.8944 0.4472 0)
(0.8944 0.4472 0)
(0.848018 0.414942 0)
(0.894389 0.447202 0)
(0.8944 0.4472 0)
(0.903992 0.437982 0)
(0.8944 0.4472 0)
(0.8944 0.4472 0)
(0.8944 0.4472 0)
(0.8944 0.4472 0)
(0.894401 0.447199 0)
(0.8944 0.4472 0)
(0.8944 0.4472 0)
(0.8944 0.4472 0)
(0.8944 0.4472 0)
(0.894401 0.447203 0)
(0.898631 0.448554 0)
(0.894395 0.447237 0)
(0.894242 0.447221 0)
(0.8944 0.4472 0)
(0.825251 0.5615 0)
(0.8944 0.4472 0)
(0.8944 0.4472 0)
(0.8944 0.4472 0)
(1.125 0.176566 0)
(0.8944 0.4472 0)
(0.894401 0.4472 0)
(0.892276 0.688994 0)
(0.894426 0.447186 0)
(0.951069 0.341129 0)
(0.8944 0.4472 0)
(0.8944 0.4472 0)
(0.8944 0.4472 0)
(0.8944 0.4472 0)
(0.8944 0.4472 0)
(0.8944 0.4472 0)
(0.895015 0.449897 0)
(0.894399 0.447199 0)
(0.896034 0.449635 0)
(0.8944 0.4472 0)
(0.894237 0.447369 0)
(0.943763 0.461924 0)
(0.894409 0.447234 0)
(0.8944 0.4472 0)
(0.8944 0.4472 0)
(0.8944 0.4472 0)
(0.8944 0.4472 0)
(0.8944 0.4472 0)
(0.863526 0.402693 0)
(0.894412 0.447195 0)
(0.894376 0.447135 0)
(0.894426 0.447172 0)
(0.897237 0.457866 0)
(0.903104 0.467713 0)
(0.92162 0.447971 0)
(0.8944 0.4472 0)
(0.8944 0.4472 0)
(0.8944 0.4472 0)
(0.8944 0.4472 0)
(0.893425 0.446867 0)
(0.8944 0.4472 0)
(0.8944 0.4472 0)
(0.894398 0.447205 0)
(0.894399 0.4472 0)
(0.892367 0.444296 0)
(0.894361 0.447204 0)
(0.8944 0.4472 0)
(0.894401 0.4472 0)
(1.1081 0.353413 0)
(0.8944 0.4472 0)
(0.894408 0.447199 0)
(0.894399 0.4472 0)
(0.8944 0.4472 0)
(0.8944 0.4472 0)
(0.8944 0.4472 0)
(0.8944 0.4472 0)
(0.8944 0.4472 0)
(0.895792 0.491914 0)
(0.869729 0.346117 0)
(0.8944 0.4472 0)
(0.894398 0.447141 0)
(0.889973 0.438118 0)
(0.8944 0.4472 0)
(0.894398 0.447199 0)
(0.8944 0.4472 0)
(0.894645 0.456999 0)
(0.8944 0.4472 0)
(0.8944 0.4472 0)
(0.8944 0.4472 0)
(0.894393 0.447208 0)
(0.8944 0.4472 0)
(0.8944 0.447202 0)
(0.8944 0.447198 0)
(0.894399 0.447217 0)
(0.8944 0.4472 0)
(0.8944 0.4472 0)
(0.894412 0.447597 0)
(0.8944 0.4472 0)
(0.8944 0.4472 0)
(0.8944 0.4472 0)
(0.8944 0.4472 0)
(0.894399 0.447201 0)
(0.894502 0.447377 0)
(0.901072 0.433512 0)
(0.8944 0.4472 0)
(0.892596 0.449378 0)
(0.83182 0.439483 0)
(0.8944 0.4472 0)
(0.894396 0.447198 0)
(0.8944 0.447201 0)
(0.909075 0.455808 0)
(0.8944 0.4472 0)
(0.894158 0.44741 0)
(0.8944 0.4472 0)
(0.894401 0.4472 0)
(0.8944 0.4472 0)
(1.30419 0.115031 0)
(0.894398 0.447203 0)
(0.928172 0.442084 0)
(0.8944 0.4472 0)
(0.8944 0.4472 0)
(0.8944 0.4472 0)
(0.894546 0.447259 0)
(0.8944 0.4472 0)
(0.894564 0.447678 0)
(0.8944 0.4472 0)
(0.8944 0.4472 0)
(0.8944 0.4472 0)
(0.894415 0.447196 0)
(0.8944 0.4472 0)
(0.894399 0.4472 0)
(0.8944 0.4472 0)
(0.8944 0.4472 0)
(0.8944 0.4472 0)
(0.893934 0.446885 0)
(0.8944 0.4472 0)
(0.8944 0.447201 0)
(0.8944 0.4472 0)
(0.805837 0.0938198 0)
(0.894413 0.44722 0)
(0.901192 0.448527 0)
(0.894496 0.447235 0)
(0.8944 0.4472 0)
(0.894392 0.447195 0)
(0.894403 0.447198 0)
(0.8944 0.4472 0)
(0.894403 0.447204 0)
(0.8944 0.4472 0)
(0.894424 0.447114 0)
(0.892823 0.446961 0)
(0.894297 0.447175 0)
(0.8944 0.4472 0)
(0.894369 0.447179 0)
(0.944453 0.386179 0)
(0.900078 0.446018 0)
(0.8944 0.4472 0)
(0.8944 0.4472 0)
(0.8944 0.4472 0)
(0.8944 0.4472 0)
(0.893677 0.445369 0)
(0.8944 0.4472 0)
(0.8944 0.447198 0)
(0.8944 0.4472 0)
(0.8944 0.4472 0)
(0.8944 0.4472 0)
(0.549388 0.990373 0)
(0.8944 0.4472 0)
(0.546746 1.01189 0)
(0.8944 0.4472 0)
(0.894399 0.447201 0)
(0.8944 0.4472 0)
(0.894069 0.447244 0)
(0.894426 0.447195 0)
(0.89439 0.447221 0)
(0.895851 0.446834 0)
(0.944259 0.462637 0)
(0.894413 0.447256 0)
(0.8944 0.4472 0)
(0.892684 0.460263 0)
(0.8944 0.4472 0)
(0.901333 0.443861 0)
(0.895306 0.448377 0)
(0.8944 0.4472 0)
(0.8944 0.4472 0)
(0.897127 0.445139 0)
(0.8944 0.4472 0)
(0.893975 0.446685 0)
(0.856375 0.444541 0)
(0.8944 0.4472 0)
(0.894386 0.447161 0)
(0.8944 0.4472 0)
(0.8944 0.4472 0)
(0.8944 0.4472 0)
(0.8944 0.4472 0)
(0.835746 0.291717 0)
(0.895427 0.449373 0)
(0.8944 0.4472 0)
(0.8944 0.4472 0)
(0.898252 0.442715 0)
(0.8944 0.4472 0)
(0.8944 0.4472 0)
(0.886082 0.438016 0)
(1.17479 0.55765 0)
(0.8944 0.4472 0)
(0.8944 0.4472 0)
(0.894178 0.447183 0)
(0.8944 0.4472 0)
(0.894399 0.447201 0)
(0.789358 0.69158 0)
(0.868534 0.448243 0)
(0.8944 0.4472 0)
(0.8944 0.4472 0)
(0.8944 0.4472 0)
(0.8944 0.447205 0)
(0.8944 0.4472 0)
(0.8944 0.4472 0)
(0.8944 0.447201 0)
(0.89439 0.447198 0)
(0.8944 0.4472 0)
(0.8944 0.4472 0)
(0.8944 0.4472 0)
(0.894399 0.447202 0)
(0.894388 0.447215 0)
(0.894301 0.447334 0)
(0.8944 0.4472 0)
(0.894399 0.447202 0)
(0.877224 0.447908 0)
(0.894655 0.447798 0)
(0.8944 0.4472 0)
(0.8944 0.4472 0)
(0.907165 0.464623 0)
(0.8944 0.4472 0)
(0.8944 0.4472 0)
(0.8944 0.4472 0)
(0.8944 0.4472 0)
(0.894409 0.447197 0)
(0.8944 0.4472 0)
(0.8944 0.4472 0)
(0.8944 0.4472 0)
(0.895472 0.452214 0)
(0.8944 0.4472 0)
(0.944533 0.472115 0)
(0.89449 0.4472 0)
(0.894398 0.447208 0)
(0.8944 0.4472 0)
(0.895056 0.458128 0)
(0.8944 0.4472 0)
(0.8944 0.4472 0)
(1.054 0.238811 0)
(0.8944 0.4472 0)
(0.893794 0.448533 0)
(0.8944 0.447201 0)
(0.898804 0.451663 0)
(0.8944 0.4472 0)
(0.894398 0.447199 0)
(0.8944 0.4472 0)
(0.8944 0.447201 0)
(0.8944 0.4472 0)
(0.894393 0.447193 0)
(0.8944 0.4472 0)
(1.52874 0.168829 0)
(0.8944 0.4472 0)
(0.896044 0.449029 0)
(0.8944 0.4472 0)
(0.8944 0.4472 0)
(0.8944 0.4472 0)
(0.8944 0.4472 0)
(0.8944 0.4472 0)
(0.8944 0.4472 0)
(0.8944 0.4472 0)
(0.8944 0.4472 0)
(0.8944 0.4472 0)
(0.8944 0.4472 0)
(0.894458 0.447752 0)
(0.894399 0.447288 0)
(0.8944 0.4472 0)
(0.874071 0.42454 0)
(0.8944 0.4472 0)
(0.900823 0.727484 0)
(0.894398 0.44714 0)
(0.8944 0.4472 0)
(0.8944 0.447201 0)
(0.8944 0.4472 0)
(0.8944 0.4472 0)
(0.8944 0.4472 0)
(0.894431 0.447234 0)
(0.895249 0.446794 0)
(0.894398 0.447198 0)
(0.893421 0.447057 0)
(0.789083 0.400005 0)
(0.8944 0.4472 0)
(0.8944 0.4472 0)
(0.8944 0.4472 0)
(0.894402 0.447198 0)
(0.8944 0.4472 0)
(0.8944 0.4472 0)
(0.8944 0.4472 0)
(0.8944 0.4472 0)
(0.8944 0.4472 0)
(0.810833 0.391728 0)
(0.891721 0.460562 0)
(1.34725 0.59294 0)
(0.8944 0.4472 0)
(0.8944 0.4472 0)
(0.894126 0.447706 0)
(0.8944 0.4472 0)
(1.35153 0.468957 0)
(0.8944 0.4472 0)
(0.894514 0.446909 0)
(0.8944 0.4472 0)
(0.8944 0.4472 0)
(0.894285 0.447149 0)
(1.53532 0.234148 0)
(0.8944 0.4472 0)
(0.8944 0.4472 0)
(0.8944 0.4472 0)
(0.894371 0.447153 0)
(0.894163 0.444265 0)
(0.8944 0.447202 0)
(0.8944 0.4472 0)
(0.8944 0.4472 0)
(0.8944 0.4472 0)
(0.894042 0.447927 0)
(0.8944 0.4472 0)
(0.8944 0.4472 0)
(0.894398 0.447211 0)
(0.933925 0.450381 0)
(0.8944 0.4472 0)
(0.8944 0.4472 0)
(0.935881 0.431214 0)
(0.894401 0.4472 0)
(0.90869 0.456495 0)
(0.894413 0.447189 0)
(0.8944 0.4472 0)
(0.894417 0.447205 0)
(0.8944 0.4472 0)
(0.8944 0.4472 0)
(0.8944 0.4472 0)
(0.894431 0.447202 0)
(0.8944 0.4472 0)
(0.8944 0.4472 0)
(0.8944 0.4472 0)
(0.8944 0.4472 0)
(0.892161 0.465139 0)
(0.8944 0.4472 0)
(0.8944 0.447201 0)
(0.8944 0.4472 0)
(0.8944 0.4472 0)
(0.887631 0.451232 0)
(0.964318 0.273249 0)
(0.8944 0.4472 0)
(0.8944 0.4472 0)
(0.8944 0.4472 0)
(0.8944 0.4472 0)
(0.8944 0.4472 0)
(0.894399 0.447211 0)
(0.8944 0.4472 0)
(0.894413 0.447225 0)
(0.881003 0.408267 0)
(0.894404 0.44719 0)
(0.894399 0.447203 0)
(0.8944 0.4472 0)
(0.8944 0.4472 0)
(0.933098 0.479806 0)
(0.894409 0.447136 0)
(0.894394 0.447211 0)
(0.8944 0.4472 0)
(0.180726 0.587496 0)
(0.894215 0.44759 0)
(0.8944 0.4472 0)
(0.8944 0.4472 0)
(0.8944 0.447201 0)
(0.8944 0.4472 0)
(0.8944 0.4472 0)
(0.8944 0.4472 0)
(0.894399 0.447202 0)
(0.8944 0.4472 0)
(0.8944 0.4472 0)
(0.8944 0.4472 0)
(1.19727 0.41868 0)
(0.8944 0.447201 0)
(0.8944 0.4472 0)
(0.894398 0.447198 0)
(0.8944 0.4472 0)
(0.897743 0.44351 0)
(0.894396 0.447207 0)
(0.894384 0.447235 0)
(0.894399 0.4472 0)
(0.862951 0.44501 0)
(0.8944 0.4472 0)
(0.8944 0.4472 0)
(0.8944 0.4472 0)
(0.8944 0.4472 0)
(0.894398 0.447199 0)
(0.8944 0.4472 0)
(0.863316 0.446093 0)
(0.894398 0.447225 0)
(0.8944 0.4472 0)
(0.8944 0.4472 0)
(0.8944 0.4472 0)
(0.8944 0.447201 0)
(0.8944 0.4472 0)
(0.894425 0.447195 0)
(0.89498 0.448367 0)
(0.892414 0.452389 0)
(0.8828 0.446344 0)
(0.8944 0.4472 0)
(0.894397 0.447195 0)
(0.8944 0.4472 0)
(0.894403 0.447314 0)
(0.8944 0.4472 0)
(0.894399 0.447202 0)
(0.894411 0.447203 0)
(0.8944 0.4472 0)
(0.8944 0.4472 0)
(0.894399 0.447207 0)
(0.904416 0.370925 0)
(0.897453 0.651825 0)
(0.8944 0.4472 0)
(0.8944 0.4472 0)
(0.8944 0.4472 0)
(0.947756 0.508888 0)
(0.894401 0.4472 0)
(1.26509 0.590309 0)
(0.894398 0.447061 0)
(0.8944 0.4472 0)
(0.8944 0.4472 0)
(0.896647 0.448338 0)
(0.895494 0.447143 0)
(0.8944 0.4472 0)
(0.894401 0.447201 0)
(0.8944 0.4472 0)
(0.896391 0.449424 0)
(0.843189 0.376225 0)
(0.8944 0.4472 0)
(0.894413 0.447198 0)
(0.895365 0.447246 0)
(0.894423 0.447236 0)
(0.8944 0.4472 0)
(0.894432 0.447212 0)
(0.874303 0.437597 0)
(0.8944 0.4472 0)
(0.8944 0.4472 0)
(0.89437 0.447185 0)
(0.8944 0.4472 0)
(0.8944 0.4472 0)
(0.8944 0.44721 0)
(0.8944 0.4472 0)
(0.8944 0.4472 0)
(0.894399 0.447199 0)
(0.8944 0.4472 0)
(0.888124 0.45682 0)
(0.8944 0.4472 0)
(0.8944 0.4472 0)
(0.894076 0.447028 0)
(0.874637 0.44258 0)
(0.894375 0.447149 0)
(0.899806 0.450631 0)
(0.8944 0.4472 0)
(0.894401 0.447201 0)
(0.891393 0.446794 0)
(0.90887 0.398636 0)
(0.894397 0.447197 0)
(0.8944 0.4472 0)
(0.94159 0.472691 0)
(1.31596 0.057447 0)
(0.603694 0.934607 0)
(0.8944 0.4472 0)
(0.8944 0.4472 0)
(0.8944 0.4472 0)
(0.8944 0.4472 0)
(0.8944 0.4472 0)
(0.894399 0.447202 0)
(0.8944 0.4472 0)
(0.8944 0.4472 0)
(0.894425 0.447318 0)
(0.8944 0.4472 0)
(0.8944 0.4472 0)
(0.801101 0.533513 0)
(0.8944 0.4472 0)
(0.894403 0.447202 0)
(0.8944 0.4472 0)
(0.8944 0.4472 0)
(0.8944 0.4472 0)
(0.895872 0.44757 0)
(0.8944 0.4472 0)
(0.8944 0.4472 0)
(0.894401 0.4472 0)
(0.8944 0.4472 0)
(0.895293 0.44868 0)
(0.894399 0.447197 0)
(0.8944 0.4472 0)
(0.8944 0.4472 0)
(0.894401 0.447201 0)
(0.893229 0.447982 0)
(0.8944 0.4472 0)
(0.875665 0.427143 0)
(0.894591 0.44698 0)
(0.8944 0.4472 0)
(0.8944 0.4472 0)
(0.894399 0.447199 0)
(0.894398 0.447202 0)
(0.8944 0.4472 0)
(0.8944 0.4472 0)
(0.8944 0.4472 0)
(0.894239 0.447343 0)
(0.712703 1.00939 0)
(0.894397 0.447198 0)
(0.89439 0.447336 0)
(0.8944 0.4472 0)
(0.8944 0.4472 0)
(0.8944 0.447199 0)
(0.8944 0.4472 0)
(0.8944 0.4472 0)
(0.8944 0.4472 0)
(0.880841 0.432484 0)
(0.8944 0.4472 0)
(0.8944 0.4472 0)
(0.8944 0.4472 0)
(0.8944 0.4472 0)
(0.88079 0.501338 0)
(0.89439 0.446918 0)
(0.8944 0.4472 0)
(0.8944 0.4472 0)
(0.894396 0.447204 0)
(0.8944 0.4472 0)
(0.894399 0.447205 0)
(0.8944 0.4472 0)
(0.869503 0.467936 0)