/*--------------------------------*- C++ -*----------------------------------*\
  =========                 |
  \\      /  F ield         | OpenFOAM: The Open Source CFD Toolbox
   \\    /   O peration     | Website:  https://openfoam.org
    \\  /    A nd           | Version:  6
     \\/     M anipulation  |
\*---------------------------------------------------------------------------*/
FoamFile
{
    version     2.0;
    format      ascii;
    class       volScalarField;
    location    "6.7e-05";
    object      p;
}
// * * * * * * * * * * * * * * * * * * * * * * * * * * * * * * * * * * * * * //

dimensions      [0 2 -2 0 0 0 0];

internalField   nonuniform List<scalar> 
2370
(
1.1108
1.7751
2.08107
0.83641
0.848771
0.948932
1.09552
1.0017
0.794631
0.771473
-0.265394
0.691238
-0.703854
0.969075
-0.367725
-0.416876
-0.233877
-0.682085
0.448655
0.856334
0.759614
-0.67109
1.41331
-0.591262
-0.436954
0.239592
1.14468
0.506823
-1.34725
-0.365171
-1.23591
1.59174
1.03651
0.420936
0.754237
1.08973
0.25451
0.590706
0.217471
0.509104
0.636689
0.2756
0.299692
0.199108
0.979857
0.347737
0.936901
0.568073
0.190263
2.11034
0.527326
0.925831
1.47257
0.263924
0.652552
1.17285
0.871902
0.756662
0.493724
0.273641
0.174913
1.27219
0.520871
0.873389
1.08025
0.814591
0.945905
0.239548
1.2544
0.231029
0.99661
0.819223
1.12534
1.2662
1.05228
0.581239
0.612163
0.576517
0.525386
1.36956
1.2986
0.932728
1.13057
2.02957
0.519828
0.643195
0.833265
1.16871
0.826955
0.721025
0.700195
1.22684
0.686843
1.22524
0.841959
0.46028
0.611691
0.744136
0.959437
0.563567
1.46503
0.671671
1.07459
0.798939
1.44022
1.04576
0.307289
0.875218
1.00652
1.00712
0.536307
0.612337
1.00776
0.544874
1.06759
0.512745
0.63272
0.702723
0.514207
1.07138
0.734559
0.450118
0.557407
1.16817
0.716137
0.158619
0.419849
0.507995
0.746209
0.585624
0.549011
1.38233
0.811366
0.526995
1.21351
1.70699
0.646423
0.886585
1.31394
0.694956
0.554805
0.59276
-0.19726
0.473668
0.766102
0.509555
0.708403
0.755802
0.570626
0.626894
0.127787
0.730053
0.792407
0.709923
0.882926
0.865558
2.62087
1.5502
1.08903
2.21492
3.63111
-0.0823286
0.425022
0.786371
0.627674
0.489938
0.371226
0.310083
0.658508
0.279676
0.274219
0.300644
0.381702
0.259417
0.190913
0.418614
1.63631
-0.782273
-1.06516
1.10758
0.866934
-0.465597
1.13511
-0.603238
0.667232
-0.565906
-0.817452
0.955836
0.407014
-0.0210648
-0.384165
-0.436086
0.559753
-0.506181
0.64374
0.612984
0.88945
-0.366502
-0.653587
2.03952
0.62808
0.783405
-0.6915
-0.612015
0.752193
0.738297
-0.705841
-0.829928
-0.461779
0.482743
1.03341
2.28944
0.50653
-0.877049
0.827539
3.36332
1.57242
2.3478
2.26507
3.14261
2.36549
3.32703
3.55791
1.79835
4.16454
2.83243
2.42915
2.43463
1.47139
3.35452
3.85249
5.29583
2.82337
5.53921
4.52137
3.06084
6.30232
5.95796
5.35148
4.33421
5.99693
3.00889
5.09756
5.31428
3.35553
3.95927
6.04209
3.69282
3.51585
2.67303
4.14953
3.83784
3.30343
4.67438
3.56274
2.33495
4.17828
4.61567
3.30333
4.4249
3.74789
3.54127
3.08276
5.86262
2.73998
3.64518
3.87329
4.58657
3.98766
3.39827
3.39083
3.44944
2.86196
4.06716
4.43952
3.07988
7.14655
5.61742
4.8863
8.59182
8.36585
6.9739
5.81581
2.24917
3.42548
5.72867
6.86797
6.25904
6.30873
7.51447
6.72569
5.71841
6.00881
9.42879
5.60077
5.83897
4.88093
4.9334
9.53585
6.4097
6.54223
7.57077
7.74598
6.55558
6.4186
3.24428
8.16399
3.36887
7.35263
2.15299
4.47234
5.0913
6.50818
6.1373
7.20973
6.29496
0.840271
7.01071
3.34223
3.11417
3.86882
3.82561
1.81319
3.14116
3.67774
4.20383
6.28028
3.54304
2.48852
1.79862
5.95026
5.68938
4.61909
4.00534
3.3088
6.02788
6.00366
5.28608
0.72823
2.63979
1.90851
5.41552
3.00406
5.11875
5.82917
3.21185
5.55583
2.68074
5.4333
4.00453
1.32452
5.65777
6.92877
4.38972
0.436127
0.778536
0.744741
3.63446
0.573434
4.35028
2.5708
3.35228
0.522505
5.91791
2.96057
6.61004
3.64347
1.91708
0.81324
4.46734
5.35064
0.340545
5.85906
3.13106
3.73545
2.12972
2.29758
0.466902
4.64776
5.41288
5.92855
2.1173
4.14557
2.79914
3.7998
5.6562
4.13836
3.927
2.23534
0.59032
0.686219
2.08274
3.16433
3.26853
3.58662
2.71831
5.60589
2.15506
0.585845
3.32912
0.185609
1.83727
5.09292
1.33512
4.09057
4.39753
3.94532
4.10487
4.47389
5.27666
4.60354
4.05697
2.48487
3.5654
5.29275
3.51629
0.3957
0.464727
0.903785
3.27254
0.317458
4.28852
4.8187
1.50094
0.702241
2.84054
1.17818
2.19787
3.40148
0.618414
4.51799
2.16903
2.20155
4.38844
0.979918
3.58711
2.89418
0.33091
4.02349
3.09394
0.368384
4.13345
5.10481
0.243456
4.01806
3.12733
5.16389
2.62817
0.880028
1.81665
0.357225
3.08881
0.279245
2.81035
5.37165
3.30289
4.28163
3.53066
4.1573
0.486103
0.619931
0.452921
6.78246
2.54756
0.363733
3.52957
2.06669
2.19694
3.38611
1.82778
2.52389
1.44957
2.38879
4.55862
3.22587
0.940279
0.965133
0.631342
5.39305
0.792456
0.362611
3.13984
3.26196
0.628425
2.81344
3.87524
2.39509
0.672635
3.41516
3.43957
4.45166
0.644594
1.07917
2.67301
3.5059
5.0039
2.07447
3.77824
0.716917
0.473076
2.6605
3.18489
2.99677
5.02744
4.70145
5.48325
2.86006
4.07109
4.06356
3.91338
3.30938
2.85391
2.94873
0.99825
1.93449
4.95403
4.97101
2.23743
0.374294
0.287384
0.839605
1.01994
1.02607
3.22986
0.500682
2.85991
4.03858
3.85925
2.85623
3.79777
1.48497
3.5694
3.85006
3.45376
0.50763
1.74038
3.70281
1.94891
1.56774
1.01605
2.70619
2.61279
0.843172
0.70119
3.91122
5.28467
0.453474
0.240789
0.329594
2.34713
0.538624
4.60392
3.37058
3.64099
0.911172
3.41623
0.243689
0.669974
2.02323
3.21377
0.401562
0.718252
0.77465
0.453272
2.39929
3.44762
3.33159
3.26909
3.93148
2.2292
0.596164
1.6279
3.10398
1.6332
3.71693
0.655158
4.20254
4.27285
1.86191
2.4179
0.519252
3.72091
2.47921
2.12044
3.07483
3.02814
2.55785
3.89542
0.610166
0.695854
0.55403
3.28605
3.12414
3.83595
3.59484
1.86816
1.99674
2.66627
2.49127
0.481497
0.633325
2.84014
2.45653
0.597645
1.68616
0.529213
2.41369
0.593451
2.03197
2.24963
3.10579
2.74886
0.871665
1.57233
1.97461
0.533666
4.73367
4.50993
5.26899
3.01864
2.96736
2.01881
5.7585
0.480165
2.70072
0.754599
2.97023
2.85795
3.48011
2.83174
0.913545
2.64651
0.308062
0.608485
3.03267
0.531484
4.43485
6.7829
4.13607
0.342027
0.557258
5.19536
5.6739
5.15861
3.30379
3.37435
4.14429
2.86809
4.88574
4.861
3.21343
4.81038
2.63609
3.72851
4.46148
1.88921
2.68577
2.7856
3.28578
2.54253
4.30192
2.54658
4.48096
0.778089
6.29035
3.59785
4.60127
2.7352
2.58066
0.432
0.651431
2.76862
4.38607
0.317518
4.48226
2.62181
4.36895
1.63287
1.87051
2.62161
4.51028
3.23819
4.03379
2.35864
0.446049
2.90285
3.9809
2.99132
2.77857
0.412701
2.58683
2.10499
3.17755
3.00639
4.0767
3.7782
0.660925
0.770769
5.00222
4.981
3.07634
4.43957
2.67995
5.44723
0.337178
0.866296
3.25954
4.39812
0.891036
4.56589
0.941329
3.04845
0.991745
2.98996
3.08409
3.03104
3.53282
2.42876
5.53712
2.30463
4.55888
3.62981
0.367797
3.24241
2.3868
0.557556
4.38005
2.97786
4.45244
0.556265
4.91498
3.06958
0.453725
0.741498
2.83129
4.21337
0.317194
3.92047
2.61734
4.47949
2.84162
1.53992
2.05498
1.94086
1.49808
2.29383
1.71214
2.51136
3.13099
4.75056
4.88472
2.80378
0.615786
2.72328
1.14349
4.67647
2.65098
2.46751
3.99163
2.0415
2.08014
3.85333
2.18556
4.1145
2.54824
2.66438
0.447097
3.37873
3.44056
6.54095
7.30278
4.75808
0.726446
3.90381
0.611493
0.488397
4.49139
3.64975
3.75307
3.91877
0.500002
2.86125
2.54413
2.67288
0.812024
4.66014
0.505789
3.75678
3.39158
4.31994
1.86904
1.06786
2.56982
4.03007
1.86133
3.0531
2.66486
2.14827
0.989357
1.22007
5.87482
2.36852
4.14018
2.27719
2.87287
2.42085
4.09282
2.91107
2.91713
4.03627
3.01343
2.7052
3.28319
2.83663
0.997296
4.594
6.15142
2.59333
3.20638
2.72857
2.97257
2.75912
1.57083
2.35732
3.81381
4.24678
2.78238
2.14801
3.39173
2.62673
2.07193
0.645127
2.68017
1.34323
1.84703
3.71138
4.73934
2.82603
0.264036
0.457346
4.06798
3.03286
3.1873
1.93009
2.12825
3.04543
3.5353
3.51971
0.830462
3.63273
3.27999
4.01506
0.717001
4.06236
1.95933
3.941
2.38761
3.2228
0.856972
3.19809
0.782025
4.8038
0.889838
3.20795
4.75264
7.35928
2.83521
4.79957
4.05892
4.64585
0.490646
1.51048
0.275287
4.40615
1.97894
0.778091
2.82716
2.70295
4.31926
4.464
2.76892
4.38926
3.99637
0.660214
3.03123
1.93136
5.11462
3.84847
5.56655
1.99919
2.93406
5.56064
3.1022
3.05847
4.11729
5.08137
2.8027
3.42214
3.62535
3.47819
3.4158
0.356868
2.83567
4.4867
3.00053
4.86225
3.49285
4.49112
3.25208
2.39176
1.57198
5.70698
3.36305
6.5185
6.27311
5.42574
3.48116
3.4796
1.13579
2.19399
2.88197
3.9825
5.2103
3.12667
2.45071
0.372699
4.4826
5.76265
2.68184
0.478229
5.16927
2.1515
1.27853
0.836949
3.98907
3.42943
4.19871
0.549316
1.77542
2.26803
3.76155
3.37843
0.563988
3.50401
4.63929
3.57295
3.8158
4.49601
3.79128
6.61363
4.08051
2.3525
1.94408
1.78028
4.32649
2.22324
5.4627
4.26513
2.45263
2.98662
2.70139
3.38224
3.83842
6.38853
2.15155
2.06938
3.40655
3.40933
3.08683
2.86987
3.8438
3.66479
2.46209
0.914775
2.66585
1.90292
0.52685
0.654656
0.403029
3.34775
0.831625
4.57366
4.41907
4.13667
2.90007
5.21078
4.00493
3.35807
3.35721
3.81333
2.91213
2.63747
0.477272
5.64649
2.3208
0.487565
0.877537
7.36484
3.43003
0.650687
0.71734
2.12381
1.7422
3.02019
1.9551
4.74472
4.89777
0.332657
4.49491
3.1498
3.3077
4.52877
2.025
2.9158
0.677534
3.73585
3.02193
3.03297
4.06219
2.28025
3.97838
5.06456
2.6317
1.5805
3.74002
1.67894
1.92615
0.731707
2.02108
6.81165
5.74289
2.50848
4.47766
2.88796
1.74953
3.32899
5.46698
2.71508
0.776923
1.63446
4.60342
3.86463
3.2567
2.72157
3.31789
2.4763
2.32052
3.81238
5.73422
5.22952
1.03644
1.04325
4.13757
0.704803
3.76939
0.809032
4.88942
1.99128
1.04283
1.05625
4.77813
4.67576
2.64156
5.99137
3.57086
2.72881
2.57835
2.37244
2.13414
2.71117
3.79615
2.44855
6.02569
6.37823
2.53228
2.71094
2.46667
4.99279
2.39463
2.41793
0.790633
4.57531
3.56014
4.85586
3.51865
3.16407
0.915689
0.736372
2.32109
2.28254
0.786011
1.02232
3.90494
3.63313
5.4256
4.67317
1.12651
6.677
1.65388
3.22558
1.79729
3.95912
6.7004
3.15368
3.06687
3.17414
6.04392
4.66025
3.30774
2.4377
3.25553
6.62148
0.724789
5.8979
2.78504
3.55323
1.99198
4.53042
4.79383
3.4198
2.95871
5.48399
6.60399
3.03709
4.33473
2.76419
1.98102
6.33587
4.49374
1.35068
4.39948
4.03104
2.8198
1.47031
1.68587
2.27052
3.4403
4.12863
0.9886
2.1664
0.927581
2.34463
2.46597
2.48595
2.56916
2.91984
3.39307
4.23088
4.8048
3.33343
3.08466
2.2259
4.5694
0.502763
2.84183
2.49122
5.8004
5.58282
3.43364
4.90898
3.9299
0.687021
0.157076
4.98772
2.04319
3.89114
2.72163
3.16865
3.52262
5.94163
5.38335
2.99181
3.4837
2.79871
3.6519
4.05628
1.78643
2.47527
4.598
3.55679
5.81934
2.01977
5.28598
3.42828
0.859476
0.716414
3.10578
3.27399
4.37219
5.24955
1.54297
3.16314
6.29098
5.40746
3.53146
3.52367
0.599689
2.9451
0.353981
2.7255
2.11414
2.80898
3.76263
5.36261
2.856
2.96293
2.76515
1.02249
3.14999
4.56308
2.66084
2.91183
4.56629
2.45969
0.642405
2.58949
3.44789
0.852908
3.37071
6.72588
4.72208
4.71381
5.78894
3.07021
3.83393
3.67583
5.27716
2.33404
2.60478
2.88962
2.99852
3.22836
2.53228
3.60835
5.68297
0.384974
5.97516
2.65484
3.54998
3.4673
3.3789
4.00452
2.0411
4.28685
4.59426
2.53167
0.331441
4.98866
2.42989
4.42278
3.84011
3.61526
3.45026
2.38126
4.34391
0.534712
2.52048
3.45656
2.9939
3.75168
3.3885
6.18889
3.20058
5.48614
1.53649
2.82341
1.53365
2.95005
4.64326
5.57274
3.44133
5.02895
2.25457
3.72556
2.81233
3.01886
1.79098
0.827217
4.73148
3.27571
1.76204
5.72299
0.884455
5.44541
2.79036
2.6834
8.34131
4.21145
4.95085
3.46207
2.95351
1.1104
0.810696
5.46641
5.50261
3.37493
2.8921
1.72487
3.39187
3.57914
3.20641
9.03507
8.45654
7.90893
7.90711
6.1252
6.01095
5.59485
7.46616
3.52267
2.33848
3.96619
3.19823
4.00326
2.89561
4.25627
6.04633
9.24184
2.48529
1.79037
2.53035
6.93895
3.27163
9.45157
9.00674
3.67307
8.40621
2.1455
0.379301
2.35955
1.50886
2.89939
0.417224
2.94329
9.97932
2.93783
5.04188
3.12198
5.52758
5.0914
3.15252
6.93696
4.33681
4.61506
7.03526
1.87508
6.96846
4.34693
5.90304
3.61018
2.8599
5.22825
5.51923
4.12636
4.80565
0.639574
2.84867
2.01595
1.98157
1.48924
4.94105
5.52262
2.75388
3.86476
5.21647
3.73233
4.84498
6.83503
6.99134
6.54938
4.1496
3.98983
1.23195
4.54177
1.92677
5.1699
5.01303
1.86126
2.36191
3.85992
5.49749
8.93888
0.459723
4.51411
4.88482
2.71123
8.47492
3.79332
3.16059
4.3629
3.20119
1.6298
1.80561
1.60046
2.69589
1.41966
6.15483
4.06801
2.16019
3.00773
1.91492
2.42133
5.61051
5.12337
2.85983
4.60267
3.70421
2.25053
3.62524
2.32199
2.03583
0.599465
5.05401
4.49197
0.459869
5.34293
0.615138
3.57533
3.30407
2.02761
3.0784
2.58648
3.09067
4.51371
3.82948
3.57583
2.76671
5.42803
4.02188
2.60157
4.49849
2.89984
3.93543
1.53053
4.99835
3.25346
4.19845
5.79236
4.95316
3.02718
2.77203
5.96615
6.21731
2.28005
2.31976
2.90735
3.32622
4.07872
7.26243
3.82747
6.84526
3.45032
5.25679
6.4457
5.1275
9.25839
7.81886
6.7608
0.590187
0.754414
-0.546645
-0.360633
-0.619466
0.987771
-0.246722
0.240469
0.444818
0.921292
0.200382
-0.781815
0.232362
-0.548371
-0.420508
0.20747
0.176883
-0.302023
0.350969
0.805887
0.261742
0.682529
0.676394
1.11443
0.528818
-0.617085
-0.70318
0.528949
0.873388
0.513907
0.0350646
-0.544202
1.04427
-0.760613
0.73963
-0.65935
0.201173
2.972
1.53961
1.36942
2.17312
1.99558
7.04525
1.73181
2.33991
2.86786
1.88305
4.30032
2.8407
2.10389
1.94076
3.21477
2.68409
1.65666
5.54391
1.99435
3.42809
4.30839
1.87871
2.20184
3.14755
3.88542
4.18866
3.25273
2.65915
3.77773
3.80223
3.26782
1.80425
2.83337
2.82911
3.28509
4.12402
2.33979
2.81796
3.2675
2.45298
2.2435
4.14388
4.36624
2.35472
3.47011
2.41419
2.43323
3.59934
2.96658
2.92399
4.4016
1.81369
4.44334
1.45052
2.10382
3.71575
2.69956
5.20425
2.02247
2.47214
2.99391
2.06087
4.15372
2.87526
2.46111
2.55385
3.33663
3.21444
2.60266
3.70199
2.81873
3.53545
5.14013
6.49074
4.70178
3.35106
4.05527
3.74634
5.4826
5.29708
5.41199
2.13334
1.47982
1.52068
2.60769
3.03663
1.51199
2.40471
2.48492
2.27243
2.08042
2.07121
3.81726
4.04994
2.67211
1.85614
4.23699
2.8363
3.90123
2.76413
2.92584
4.78625
4.52813
2.10044
2.91469
3.06865
2.87675
2.29609
2.36948
2.60817
2.66616
2.0509
2.70618
2.41121
2.30674
1.73236
2.17115
2.61749
3.77311
2.93512
3.42646
2.33326
3.8824
3.09591
2.57022
2.6167
3.11603
4.49129
4.94757
2.12541
2.82601
2.07009
3.82736
2.55507
3.71486
2.04122
2.51462
3.58914
2.77646
3.54673
2.39938
4.88244
5.84826
3.27339
3.27316
3.50326
5.09628
4.37079
2.72379
2.36248
3.34074
4.03918
3.66939
3.78122
3.04958
4.33298
4.31675
2.52343
2.23809
3.73248
2.52568
2.80535
2.36856
2.77794
4.5979
3.87334
3.82188
2.54077
5.25191
4.57751
3.07451
1.55339
4.67708
2.79726
2.55617
2.26902
3.65122
3.31558
4.23479
3.10476
5.05519
3.50257
4.07334
5.19955
2.04824
3.70413
3.46888
3.08405
2.6171
2.79098
2.31112
1.54626
2.53616
1.59695
2.83483
3.76526
2.57057
2.79647
5.43379
3.17425
5.53686
8.43962
3.51835
8.09536
3.99164
3.46177
4.86117
3.79056
2.46608
3.37966
2.25181
3.51128
4.49658
3.33415
4.69603
5.56534
5.93982
2.86756
3.25655
4.59501
2.68826
5.94483
5.49093
2.82812
3.02884
4.77244
2.53896
3.34631
2.80871
1.92851
2.42256
6.31895
2.46873
3.21103
3.42343
3.34441
2.68329
2.1976
4.28803
2.23883
2.114
1.32984
2.54716
3.83577
3.27214
2.76529
1.76402
1.80478
1.32258
5.30759
2.84256
1.23931
3.16887
2.3801
4.49422
3.09321
1.76048
2.30003
2.49189
2.66895
3.12718
4.74116
3.77455
2.04502
2.59288
3.65559
1.5801
2.02577
3.41693
3.6955
1.9622
3.40837
1.45337
1.78867
2.33827
2.85594
4.50745
4.18308
4.2486
2.34738
1.96886
1.63241
2.13028
2.90648
4.63749
3.50511
4.25064
1.83772
3.47424
3.74518
1.82972
5.02275
2.17309
3.16685
2.84834
4.83152
4.59476
2.94327
2.2519
2.92181
2.37957
2.35416
2.01327
4.77765
2.55086
2.92987
2.47985
3.27308
1.95194
4.35824
1.83473
3.01996
2.51966
1.83275
1.94874
4.43173
4.23165
1.59392
2.67116
3.01047
2.91182
3.93873
2.27377
1.97304
1.97235
2.18959
3.1233
1.69464
2.94223
4.43352
2.57716
1.96261
1.77421
3.74032
3.88069
5.57738
2.5276
3.10075
2.86589
4.18123
2.74514
3.47901
2.58595
2.68871
3.487
3.67926
3.2976
1.55126
2.16885
3.92507
2.70248
3.26585
2.06976
2.43497
2.26324
2.22676
2.48214
1.88435
3.07008
1.61641
1.54678
2.35246
3.84782
2.92676
3.85583
2.74074
3.19395
2.63247
1.82875
1.26932
4.24097
4.81341
2.93574
4.79173
2.66269
4.73732
3.10761
4.62275
3.75107
1.04358
2.51862
2.8589
3.85149
3.4542
2.61811
3.53793
2.02194
2.36592
3.17553
1.70182
4.28417
2.22991
5.08726
2.82987
2.41422
3.17261
1.97812
7.20686
7.84699
3.14006
8.35194
4.01058
5.33081
4.75622
1.77437
4.41567
3.97691
1.63547
4.18091
2.43561
3.181
2.9628
1.141
2.41625
2.2289
2.20321
0.845766
3.52138
3.23807
1.1626
3.04927
2.86188
3.40002
3.60594
1.2953
3.94975
3.73135
1.5018
3.74243
4.55728
5.30559
5.51734
2.22066
6.30049
5.75786
2.29039
5.62568
2.49571
3.54241
2.92771
1.22091
5.01403
3.68812
1.5844
4.2836
4.32067
4.807
5.52532
1.95734
7.1151
7.2686
2.94748
7.08991
1.33544
1.81546
2.109
5.29063
2.75026
2.17596
3.81196
2.25491
3.63832
2.61379
4.16236
3.29116
5.22944
2.86439
3.41145
0.490248
2.35484
3.03389
3.79838
0.514467
2.60226
3.18462
4.45457
0.573767
3.08273
2.72781
3.42988
0.492002
2.39373
0.771381
3.85154
4.36587
5.22966
0.565388
2.70721
3.09254
3.68596
0.521411
2.5751
2.91308
3.73326
2.58368
3.82766
0.843041
4.40069
4.92043
6.0515
4.29734
5.01681
0.757578
3.67941
0.276446
2.58135
3.12007
3.92934
0.172217
2.07537
3.06859
3.7066
2.42081
3.90189
3.15197
3.21124
0.840416
2.35546
-0.504666
2.34249
2.70543
2.41448
0.751818
2.35743
0.802679
0.526935
1.78082
0.585997
1.96838
2.22711
2.16405
2.89776
1.5527
3.02886
1.54774
3.02426
3.38416
4.29873
1.33465
4.28324
1.42628
3.77147
4.8152
1.56593
2.80299
2.97188
2.32135
0.0142044
1.47908
0.589343
2.3998
3.03489
3.0579
4.27495
1.40857
4.51901
1.449
4.73195
4.96797
2.19839
0.905452
2.91487
0.509918
2.64582
1.739
2.72045
2.75001
2.82067
0.648285
1.97554
-0.536693
3.34991
3.96963
3.01735
1.34141
1.53775
5.83382
1.58736
6.30065
5.13044
4.4623
3.01329
2.70706
0.634468
2.38913
0.622
2.13995
2.56677
2.32431
2.14016
0.656376
1.83198
0.125219
1.52094
0.438532
1.64589
0.442451
2.34804
1.98586
4.64656
4.22708
4.10931
1.25912
2.75543
-0.269999
2.6113
0.724723
2.48173
0.683421
3.11515
3.10604
4.10225
4.48125
3.36388
1.04619
3.56561
1.16073
3.60942
4.5614
3.59123
1.03127
3.70629
1.2498
3.09323
1.39482
3.38915
4.29486
2.61899
2.06346
0.60676
2.34359
0.579933
2.08339
1.05857
3.50231
0.834864
2.76686
3.01894
2.39252
1.85608
0.73222
1.78371
0.421478
1.85992
1.34778
2.3506
0.790527
2.45632
0.68166
1.9521
2.90927
4.42003
4.24432
1.39667
4.45027
1.30467
3.90397
2.41833
2.94127
2.23935
0.633498
2.36199
0.784556
2.59635
1.07536
2.92183
3.41699
2.38206
0.649393
2.07649
0.628667
2.60599
2.37504
3.45676
3.24415
0.635162
2.41679
0.722749
2.50552
2.66135
0.777271
2.48293
0.661804
2.00493
2.30114
1.07309
3.17619
0.983054
3.84276
3.88938
3.22418
3.11923
1.02773
3.51985
1.08117
3.00513
4.06955
2.19683
2.32253
0.741879
2.31308
-0.210514
1.57536
1.84449
0.546329
2.01579
0.526833
1.74869
2.36524
2.37842
0.747872
2.60061
0.678639
2.19499
2.50814
5.35153
1.95484
4.02133
5.23095
3.86028
1.2694
4.58104
1.45498
3.86949
4.66802
1.95608
2.52975
0.378548
1.84495
-0.363567
1.23321
2.87235
0.879152
3.53844
0.989797
3.79888
3.89738
5.22585
5.49651
1.51793
4.5527
1.55989
4.83363
2.84173
0.754875
2.30485
0.59918
3.15774
3.29436
3.0358
3.70938
2.90184
1.21448
1.56497
4.18703
1.39252
4.3256
5.59561
3.75991
4.20492
4.50151
2.97443
0.596153
2.795
0.891968
3.13805
0.866686
2.60007
3.37167
4.02837
3.77304
4.4601
1.46668
2.80868
-0.228002
3.04107
3.41281
0.88294
2.88321
-0.143573
1.76693
1.95841
0.587387
1.84624
0.539814
2.358
2.3837
3.47423
1.24414
3.73062
1.2733
2.96063
4.04672
3.14164
0.824067
3.24677
0.77374
2.42841
2.93018
1.94
2.10341
0.657135
1.93958
-0.0375095
1.46267
0.61672
2.44372
0.664473
2.19473
2.5765
2.77559
3.55951
3.77635
3.90476
1.28978
2.75778
-0.186926
1.50932
0.475376
1.65527
0.45245
2.20419
2.34231
1.58164
4.58771
1.75638
5.20582
5.93853
4.76395
4.81521
1.65359
4.23624
1.19875
3.44338
4.00633
3.17557
3.37735
0.653555
2.65219
-0.341689
1.45261
3.48554
3.51346
2.53401
0.639825
2.88201
0.756044
4.59611
3.81614
3.53292
1.05547
3.82855
1.06505
3.33427
2.95843
0.707313
2.54519
0.744284
2.28143
3.67775
3.94237
3.14775
0.900289
3.915
1.07888
3.8995
4.03929
1.18824
3.53643
1.23888
4.21888
5.14403
5.12809
1.49639
4.16371
)
;

boundaryField
{
    emptyPatches_empt
    {
        type            empty;
    }
    top_cyc
    {
        type            freestreamPressure;
        freestreamValue uniform 3;
        supersonic      false;
        value           nonuniform List<scalar> 
40
(
4.0764
3.86261
4.92375
3.36123
2.98516
2.11567
3.8629
2.01748
2.06974
2.84126
3.85138
3.01178
2.06376
3.64975
2.92297
3.49287
3.41247
3.09336
3.64157
3.36395
3.07497
3.40839
4.55416
2.00222
3.19222
3.20404
4.15158
2.66777
3.30192
3.39186
2.92698
3.03084
3.17896
2.77847
3.56521
3.19099
2.71999
3.37186
2.94281
3.01537
)
;
    }
    bottom_cyc
    {
        type            freestreamPressure;
        freestreamValue uniform 3;
        supersonic      false;
        value           nonuniform List<scalar> 
40
(
4.75449
5.65356
6.47716
6.74312
4.00332
4.77982
1.54335
3.10893
1.43025
1.53094
3.52824
1.87767
1.47784
3.86054
5.53434
4.92098
4.06594
3.41115
5.90438
3.77795
1.59406
4.19266
3.79466
5.59837
1.85974
4.55361
3.90109
4.66116
6.24728
6.36327
3.87774
4.43789
6.75496
6.95395
4.22177
4.33341
5.98953
6.26857
4.98271
4.14901
)
;
    }
    inlet_cyc
    {
        type            cyclicAMI;
        value           nonuniform List<scalar> 
30
(
5.87566
5.23212
4.84347
5.73395
3.36291
3.56878
2.62979
3.03068
2.10942
2.52466
2.87691
4.63238
3.70498
2.06534
3.31644
4.11225
4.23835
4.27529
5.34044
3.56598
4.1428
1.68812
4.12367
3.32979
1.95479
2.14678
4.19705
3.49618
3.62556
3.34877
)
;
    }
    outlet_cyc
    {
        type            cyclicAMI;
        value           nonuniform List<scalar> 
30
(
4.87303
5.70439
3.62556
3.70804
4.62932
3.52418
3.19559
3.63037
4.10407
3.83126
4.48946
1.84216
4.84694
2.87691
4.27529
3.34877
3.59286
2.75491
5.87566
4.11225
5.23212
3.18969
3.56598
2.9174
2.20786
1.89371
2.12615
4.53404
2.52466
2.06534
)
;
    }
}


// ************************************************************************* //
