/*--------------------------------*- C++ -*----------------------------------*\
  =========                 |
  \\      /  F ield         | OpenFOAM: The Open Source CFD Toolbox
   \\    /   O peration     | Website:  https://openfoam.org
    \\  /    A nd           | Version:  6
     \\/     M anipulation  |
\*---------------------------------------------------------------------------*/
FoamFile
{
    version     2.0;
    format      ascii;
    class       volScalarField;
    location    "1.22";
    object      rho;
}
// * * * * * * * * * * * * * * * * * * * * * * * * * * * * * * * * * * * * * //

dimensions      [1 -3 0 0 0 0 0];

internalField   nonuniform List<scalar> 
5625
(
1.13209
1.0447
0.959249
0.881026
0.814168
0.761527
0.724886
0.705258
0.702997
0.717891
0.74935
0.796663
0.858883
0.93424
1.01934
1.10883
1.19594
1.27384
1.33728
1.38371
1.4135
1.42925
1.43468
1.43356
1.42901
1.42324
1.41759
1.41274
1.4089
1.40604
1.40401
1.40263
1.4017
1.40111
1.40072
1.40048
1.40032
1.40022
1.40015
1.4001
1.40007
1.40005
1.40004
1.40003
1.40002
1.40001
1.40001
1.40001
1.40001
1.40001
1.40001
1.40001
1.40001
1.40001
1.40001
1.40001
1.40001
1.40001
1.40001
1.40001
1.40001
1.40001
1.40001
1.40001
1.40001
1.40001
1.40001
1.40001
1.40001
1.40001
1.40001
1.40001
1.40001
1.40001
1.40001
1.16986
1.08929
1.00961
0.935911
0.872356
0.821986
0.786868
0.76819
0.766408
0.781257
0.812
0.857721
0.917191
0.988364
1.06772
1.15004
1.22908
1.29873
1.35452
1.3945
1.41938
1.43176
1.43514
1.43296
1.42799
1.42219
1.41669
1.41205
1.40841
1.40573
1.40382
1.40252
1.40166
1.40109
1.40072
1.40048
1.40033
1.40023
1.40016
1.40011
1.40008
1.40006
1.40004
1.40003
1.40002
1.40002
1.40001
1.40001
1.40001
1.40001
1.40001
1.40001
1.40001
1.40001
1.40001
1.40001
1.4
1.40001
1.40001
1.40001
1.40001
1.40001
1.40001
1.40001
1.40001
1.40001
1.40001
1.40001
1.40001
1.40001
1.40001
1.40001
1.40001
1.40001
1.40001
1.20968
1.13683
1.06388
0.995663
0.936305
0.888981
0.855935
0.838517
0.837225
0.851747
0.881257
0.924675
0.980534
1.04656
1.11917
1.19337
1.26347
1.32417
1.37179
1.40503
1.42485
1.43384
1.4352
1.43202
1.42672
1.42095
1.41566
1.41126
1.40786
1.40536
1.4036
1.40239
1.40159
1.40106
1.40071
1.40049
1.40034
1.40024
1.40017
1.40012
1.40008
1.40006
1.40004
1.40003
1.40002
1.40002
1.40001
1.40001
1.40001
1.40001
1.40001
1.40001
1.40001
1.40001
1.40001
1.40001
1.40001
1.40001
1.40001
1.40001
1.40001
1.40001
1.40001
1.40001
1.40001
1.40001
1.40001
1.40001
1.40001
1.40001
1.40001
1.40001
1.40001
1.40001
1.40001
1.25009
1.18575
1.1204
1.05859
1.00429
0.960765
0.930331
0.914428
0.913564
0.927416
0.955113
0.995467
1.04683
1.10678
1.17173
1.23702
1.29757
1.34892
1.38819
1.41466
1.42952
1.43525
1.43476
1.43072
1.4252
1.41954
1.41451
1.4104
1.40726
1.40496
1.40335
1.40224
1.40151
1.40102
1.4007
1.40048
1.40034
1.40024
1.40017
1.40012
1.40009
1.40006
1.40004
1.40003
1.40002
1.40002
1.40001
1.40001
1.40001
1.40001
1.40001
1.40001
1.40001
1.40001
1.40001
1.40001
1.4
1.40001
1.40001
1.40001
1.40001
1.40001
1.40001
1.40001
1.40001
1.40001
1.40001
1.40001
1.40001
1.40001
1.40001
1.40001
1.40001
1.40001
1.40001
1.28952
1.23425
1.17723
1.1226
1.07417
1.03509
1.00772
0.993503
0.992951
1.00576
1.03108
1.06764
1.1137
1.16676
1.22334
1.27919
1.32989
1.37183
1.40291
1.42287
1.43308
1.43586
1.43377
1.42906
1.42345
1.41799
1.41327
1.40948
1.40662
1.40453
1.40308
1.40208
1.40141
1.40097
1.40067
1.40047
1.40033
1.40024
1.40017
1.40012
1.40009
1.40006
1.40004
1.40003
1.40002
1.40002
1.40001
1.40001
1.40001
1.40001
1.40001
1.40001
1.40001
1.40001
1.40001
1.40001
1.40001
1.40001
1.40001
1.40001
1.40001
1.40001
1.40001
1.40001
1.40001
1.40001
1.40001
1.40001
1.40001
1.40001
1.40001
1.40001
1.40001
1.40001
1.40001
1.32639
1.28045
1.23222
1.18535
1.14336
1.10924
1.08526
1.07282
1.07245
1.08388
1.10632
1.13849
1.17861
1.22419
1.27196
1.31815
1.35909
1.39193
1.41527
1.42927
1.43534
1.4356
1.43222
1.42707
1.4215
1.41634
1.41198
1.40854
1.40595
1.40409
1.4028
1.40191
1.40131
1.40091
1.40064
1.40045
1.40033
1.40024
1.40017
1.40012
1.40009
1.40006
1.40004
1.40003
1.40002
1.40002
1.40001
1.40001
1.40001
1.40001
1.40001
1.40001
1.40001
1.40001
1.40001
1.40001
1.4
1.40001
1.40001
1.40001
1.40001
1.40001
1.40001
1.40001
1.40001
1.40001
1.40001
1.40001
1.40001
1.40001
1.40001
1.40001
1.40001
1.40001
1.40001
1.35925
1.32257
1.28322
1.24437
1.20914
1.18026
1.15985
1.14922
1.14891
1.15873
1.17792
1.20528
1.23905
1.27687
1.31576
1.35249
1.3841
1.40849
1.42485
1.43363
1.43622
1.43446
1.43016
1.42481
1.41942
1.41462
1.41066
1.40758
1.40529
1.40365
1.40251
1.40173
1.4012
1.40084
1.4006
1.40043
1.40031
1.40023
1.40017
1.40012
1.40009
1.40006
1.40004
1.40003
1.40002
1.40002
1.40001
1.40001
1.40001
1.40001
1.40001
1.40001
1.40001
1.40001
1.40001
1.40001
1.40001
1.40001
1.40001
1.40001
1.40001
1.40001
1.40001
1.40001
1.40001
1.40001
1.40001
1.40001
1.40001
1.40001
1.40001
1.40001
1.40001
1.40001
1.40001
1.38697
1.35905
1.32831
1.29738
1.26891
1.24532
1.22849
1.21965
1.21932
1.22739
1.24319
1.26557
1.29289
1.32299
1.3533
1.38113
1.40422
1.42113
1.4315
1.43595
1.43578
1.43254
1.42768
1.42234
1.41727
1.41289
1.40935
1.40664
1.40464
1.40322
1.40223
1.40155
1.40109
1.40078
1.40056
1.40041
1.4003
1.40022
1.40016
1.40012
1.40008
1.40006
1.40004
1.40003
1.40002
1.40002
1.40001
1.40001
1.40001
1.40001
1.40001
1.40001
1.40001
1.40001
1.40001
1.40001
1.4
1.4
1.40001
1.40001
1.40001
1.40001
1.40001
1.40001
1.40001
1.40001
1.40001
1.40001
1.40001
1.40001
1.40001
1.40001
1.40001
1.40001
1.40001
1.40884
1.38884
1.36607
1.34257
1.32055
1.30205
1.28868
1.28156
1.28118
1.28748
1.2999
1.31739
1.33849
1.36129
1.38367
1.40353
1.4192
1.42979
1.43528
1.43636
1.43417
1.42998
1.42489
1.41976
1.4151
1.41119
1.40809
1.40574
1.40402
1.4028
1.40196
1.40138
1.40098
1.40071
1.40052
1.40038
1.40028
1.40021
1.40015
1.40011
1.40008
1.40006
1.40004
1.40003
1.40002
1.40002
1.40001
1.40001
1.40001
1.40001
1.40001
1.40001
1.40001
1.40001
1.40001
1.40001
1.40001
1.40001
1.40001
1.40001
1.40001
1.40001
1.40001
1.40001
1.40001
1.40001
1.40001
1.40001
1.40001
1.40001
1.40001
1.40001
1.40001
1.40001
1.40001
1.42467
1.41149
1.3957
1.37886
1.3627
1.34885
1.3387
1.33318
1.33275
1.33738
1.3466
1.35954
1.37492
1.39117
1.40659
1.41964
1.42919
1.43474
1.43649
1.43514
1.43163
1.42695
1.42193
1.41716
1.41299
1.40956
1.40689
1.40489
1.40343
1.40241
1.4017
1.40121
1.40087
1.40064
1.40047
1.40035
1.40026
1.40019
1.40014
1.4001
1.40008
1.40006
1.40004
1.40003
1.40002
1.40002
1.40001
1.40001
1.40001
1.40001
1.40001
1.40001
1.40001
1.40001
1.40001
1.40001
1.4
1.40001
1.40001
1.40001
1.40001
1.40001
1.40001
1.40001
1.40001
1.40001
1.40001
1.40001
1.40001
1.40001
1.40001
1.40001
1.40001
1.40001
1.40001
1.43476
1.4271
1.41713
1.40595
1.39484
1.38508
1.37776
1.37366
1.37318
1.37633
1.38272
1.39163
1.40203
1.4127
1.42236
1.42992
1.43469
1.43649
1.4356
1.43267
1.42844
1.42366
1.41893
1.41462
1.41097
1.40804
1.40578
1.4041
1.4029
1.40205
1.40146
1.40105
1.40077
1.40057
1.40043
1.40032
1.40024
1.40018
1.40013
1.4001
1.40007
1.40005
1.40004
1.40003
1.40002
1.40001
1.40001
1.40001
1.40001
1.40001
1.40001
1.40001
1.40001
1.40001
1.40001
1.40001
1.40001
1.40001
1.40001
1.40001
1.40001
1.40001
1.40001
1.40001
1.40001
1.40001
1.40001
1.40001
1.40001
1.40001
1.40001
1.40001
1.40001
1.40001
1.40001
1.43982
1.43636
1.43096
1.42431
1.41734
1.41096
1.40602
1.40314
1.40263
1.40453
1.40854
1.41409
1.42042
1.42661
1.43177
1.43518
1.43649
1.4357
1.43314
1.42933
1.42487
1.42029
1.416
1.41223
1.40911
1.40664
1.40477
1.40339
1.40241
1.40172
1.40124
1.40091
1.40067
1.4005
1.40038
1.40029
1.40022
1.40016
1.40012
1.40009
1.40007
1.40005
1.40003
1.40003
1.40002
1.40001
1.40001
1.40001
1.40001
1.40001
1.40001
1.40001
1.40001
1.40001
1.40001
1.4
1.4
1.40001
1.40001
1.40001
1.40001
1.40001
1.40001
1.40001
1.40001
1.40001
1.40001
1.40001
1.40001
1.40001
1.40001
1.40001
1.40001
1.40001
1.40001
1.44086
1.44037
1.43829
1.43505
1.43125
1.42753
1.42449
1.42258
1.42206
1.42297
1.4251
1.42805
1.43125
1.43408
1.43595
1.43647
1.43548
1.4331
1.42964
1.42553
1.4212
1.41701
1.41324
1.41003
1.40743
1.4054
1.40388
1.40277
1.40198
1.40143
1.40104
1.40077
1.40058
1.40044
1.40034
1.40026
1.4002
1.40015
1.40011
1.40008
1.40006
1.40004
1.40003
1.40002
1.40002
1.40001
1.40001
1.40001
1.40001
1.40001
1.40001
1.40001
1.40001
1.40001
1.40001
1.40001
1.40001
1.40001
1.40001
1.40001
1.40001
1.40001
1.40001
1.40001
1.40001
1.40001
1.40001
1.40001
1.40001
1.40001
1.40001
1.40001
1.40001
1.40001
1.40001
1.43897
1.44036
1.44052
1.43966
1.43813
1.43635
1.43472
1.43355
1.43306
1.43325
1.43401
1.43506
1.43603
1.43653
1.43622
1.4349
1.43257
1.42937
1.4256
1.42157
1.41761
1.41394
1.41074
1.40807
1.40594
1.40431
1.4031
1.40222
1.4016
1.40117
1.40087
1.40065
1.4005
1.40038
1.4003
1.40023
1.40017
1.40013
1.4001
1.40007
1.40005
1.40004
1.40003
1.40002
1.40002
1.40001
1.40001
1.40001
1.40001
1.40001
1.40001
1.40001
1.40001
1.40001
1.40001
1.40001
1.40001
1.40001
1.40001
1.40001
1.40001
1.40001
1.40001
1.40001
1.40001
1.40001
1.40001
1.40001
1.40001
1.40001
1.40001
1.40001
1.40001
1.40001
1.40001
1.43523
1.43763
1.43912
1.43976
1.43973
1.43926
1.4386
1.43797
1.4375
1.43722
1.43707
1.43686
1.43639
1.43543
1.43382
1.4315
1.42854
1.4251
1.42142
1.41774
1.41427
1.41117
1.40852
1.40636
1.40467
1.40338
1.40244
1.40176
1.40128
1.40095
1.40071
1.40054
1.40042
1.40033
1.40026
1.4002
1.40015
1.40012
1.40009
1.40007
1.40005
1.40004
1.40003
1.40002
1.40001
1.40001
1.40001
1.40001
1.40001
1.40001
1.40001
1.40001
1.40001
1.40001
1.40001
1.40001
1.40001
1.40001
1.40001
1.40001
1.40001
1.40001
1.40001
1.40001
1.40001
1.40001
1.40001
1.40001
1.40001
1.40001
1.40001
1.40001
1.40001
1.40001
1.40001
1.43051
1.43331
1.43545
1.43691
1.43775
1.43807
1.43803
1.43775
1.43732
1.43677
1.43607
1.43513
1.43383
1.43209
1.42985
1.42714
1.42405
1.42075
1.41741
1.41421
1.41129
1.40874
1.40662
1.40491
1.40359
1.4026
1.40188
1.40137
1.40101
1.40076
1.40058
1.40045
1.40035
1.40028
1.40022
1.40017
1.40013
1.4001
1.40008
1.40006
1.40004
1.40003
1.40002
1.40002
1.40001
1.40001
1.40001
1.40001
1.40001
1.40001
1.40001
1.40001
1.40001
1.40001
1.40001
1.40001
1.40001
1.40001
1.40001
1.40001
1.40001
1.40001
1.40001
1.40001
1.40001
1.40001
1.40001
1.40001
1.40001
1.40001
1.40001
1.40001
1.40001
1.40001
1.40001
1.42553
1.4283
1.43062
1.43241
1.43365
1.43439
1.43469
1.43462
1.43423
1.43356
1.43259
1.4313
1.42964
1.42759
1.42519
1.42248
1.41959
1.41663
1.41376
1.41108
1.40871
1.40668
1.40502
1.40371
1.4027
1.40196
1.40143
1.40105
1.40078
1.4006
1.40047
1.40037
1.40029
1.40024
1.40019
1.40015
1.40011
1.40009
1.40007
1.40005
1.40004
1.40003
1.40002
1.40002
1.40001
1.40001
1.40001
1.40001
1.40001
1.40001
1.40001
1.40001
1.40001
1.40001
1.40001
1.40001
1.40001
1.40001
1.40001
1.40001
1.40001
1.40001
1.40001
1.40001
1.40001
1.40001
1.40001
1.40001
1.40001
1.40001
1.40001
1.40001
1.40001
1.40001
1.40001
1.42074
1.42326
1.42546
1.42725
1.4286
1.42949
1.42994
1.42997
1.42963
1.42894
1.42789
1.4265
1.42478
1.42275
1.42046
1.41799
1.41545
1.41295
1.41058
1.40842
1.40655
1.40498
1.40371
1.40273
1.40198
1.40144
1.40106
1.40079
1.4006
1.40047
1.40037
1.4003
1.40024
1.4002
1.40016
1.40013
1.4001
1.40008
1.40006
1.40004
1.40003
1.40003
1.40002
1.40001
1.40001
1.40001
1.40001
1.40001
1.40001
1.40001
1.40001
1.40001
1.40001
1.40001
1.40001
1.40001
1.40001
1.40001
1.40001
1.40001
1.40001
1.40001
1.40001
1.40001
1.40001
1.40001
1.40001
1.40001
1.40001
1.40001
1.40001
1.40001
1.40001
1.40001
1.40001
1.41645
1.41859
1.42052
1.42214
1.4234
1.42427
1.42474
1.42482
1.42451
1.42385
1.42285
1.42153
1.41992
1.41808
1.41606
1.41395
1.41183
1.40979
1.4079
1.40623
1.40479
1.40361
1.40267
1.40195
1.40142
1.40104
1.40077
1.40058
1.40045
1.40036
1.40029
1.40024
1.4002
1.40016
1.40013
1.40011
1.40008
1.40007
1.40005
1.40004
1.40003
1.40002
1.40002
1.40001
1.40001
1.40001
1.40001
1.40001
1.40001
1.40001
1.40001
1.40001
1.40001
1.40001
1.40001
1.40001
1.40001
1.40001
1.40001
1.40001
1.40001
1.40001
1.40001
1.40001
1.40001
1.40001
1.40001
1.40001
1.40001
1.40001
1.40001
1.40001
1.40001
1.40001
1.40001
1.41275
1.41451
1.4161
1.41747
1.41856
1.41932
1.41973
1.41981
1.41954
1.41894
1.41804
1.41688
1.41548
1.41391
1.41222
1.41049
1.4088
1.4072
1.40574
1.40447
1.4034
1.40253
1.40186
1.40135
1.40098
1.40072
1.40054
1.40042
1.40033
1.40027
1.40023
1.40019
1.40016
1.40013
1.40011
1.40009
1.40007
1.40006
1.40004
1.40003
1.40003
1.40002
1.40001
1.40001
1.40001
1.40001
1.40001
1.40001
1.40001
1.40001
1.40001
1.40001
1.40001
1.40001
1.40001
1.40001
1.40001
1.40001
1.40001
1.40001
1.40001
1.40001
1.40001
1.40001
1.40001
1.40001
1.40001
1.40001
1.40001
1.40001
1.40001
1.40001
1.40001
1.40001
1.40001
1.40972
1.41109
1.41235
1.41345
1.41432
1.41494
1.41527
1.41532
1.41508
1.41456
1.4138
1.41281
1.41166
1.41037
1.40902
1.40766
1.40634
1.40512
1.40403
1.4031
1.40233
1.40171
1.40124
1.4009
1.40065
1.40048
1.40037
1.40029
1.40024
1.4002
1.40017
1.40015
1.40013
1.40011
1.40009
1.40007
1.40006
1.40005
1.40004
1.40003
1.40002
1.40002
1.40001
1.40001
1.40001
1.40001
1.40001
1.40001
1.40001
1.40001
1.40001
1.40001
1.40001
1.40001
1.40001
1.40001
1.40001
1.40001
1.40001
1.40001
1.40001
1.40001
1.40001
1.40001
1.40001
1.40001
1.40001
1.40001
1.40001
1.40001
1.40001
1.40001
1.40001
1.40001
1.40001
1.40728
1.40833
1.40929
1.41012
1.4108
1.41127
1.41152
1.41153
1.41131
1.41088
1.41025
1.40945
1.40851
1.4075
1.40646
1.40542
1.40443
1.40352
1.40273
1.40207
1.40152
1.4011
1.40079
1.40056
1.40041
1.40031
1.40024
1.4002
1.40017
1.40015
1.40013
1.40012
1.4001
1.40009
1.40007
1.40006
1.40005
1.40004
1.40003
1.40002
1.40002
1.40001
1.40001
1.40001
1.40001
1.40001
1.40001
1.40001
1.40001
1.40001
1.40001
1.40001
1.40001
1.40001
1.40001
1.40001
1.40001
1.40001
1.40001
1.40001
1.40001
1.40001
1.40001
1.40001
1.40001
1.40001
1.40001
1.40001
1.40001
1.40001
1.40001
1.40001
1.40001
1.40001
1.40001
1.40539
1.40616
1.40687
1.40749
1.40798
1.40831
1.40848
1.40847
1.40827
1.40791
1.4074
1.40677
1.40604
1.40527
1.40447
1.4037
1.40298
1.40232
1.40177
1.40131
1.40094
1.40066
1.40046
1.40033
1.40024
1.40018
1.40015
1.40013
1.40012
1.40011
1.4001
1.40009
1.40008
1.40007
1.40006
1.40005
1.40004
1.40003
1.40003
1.40002
1.40002
1.40001
1.40001
1.40001
1.40001
1.40001
1.40001
1.40001
1.40001
1.40001
1.40001
1.40001
1.4
1.4
1.40001
1.40001
1.40001
1.40001
1.40001
1.40001
1.40001
1.40001
1.40001
1.40001
1.40001
1.40001
1.40001
1.40001
1.40001
1.40001
1.40001
1.40001
1.40001
1.40001
1.40001
1.40394
1.4045
1.40501
1.40544
1.40579
1.40602
1.40611
1.40607
1.4059
1.4056
1.40519
1.40471
1.40416
1.40357
1.40299
1.40243
1.40191
1.40146
1.40108
1.40077
1.40053
1.40036
1.40024
1.40016
1.40012
1.40009
1.40008
1.40008
1.40008
1.40007
1.40007
1.40007
1.40006
1.40005
1.40005
1.40004
1.40003
1.40003
1.40002
1.40002
1.40001
1.40001
1.40001
1.40001
1.40001
1.40001
1.40001
1.40001
1.40001
1.40001
1.40001
1.40001
1.40001
1.40001
1.40001
1.40001
1.40001
1.40001
1.40001
1.40001
1.40001
1.40001
1.40001
1.40001
1.40001
1.40001
1.40001
1.40001
1.40001
1.40001
1.40001
1.40001
1.40001
1.40001
1.40001
1.40287
1.40325
1.40361
1.40391
1.40413
1.40427
1.40432
1.40427
1.40411
1.40387
1.40356
1.40318
1.40276
1.40234
1.40191
1.40152
1.40115
1.40085
1.40059
1.40039
1.40025
1.40015
1.40009
1.40005
1.40004
1.40003
1.40004
1.40004
1.40005
1.40005
1.40005
1.40005
1.40005
1.40004
1.40004
1.40003
1.40003
1.40002
1.40002
1.40001
1.40001
1.40001
1.40001
1.40001
1.40001
1.40001
1.40001
1.40001
1.40001
1.40001
1.40001
1.4
1.4
1.40001
1.40001
1.40001
1.40001
1.40001
1.40001
1.40001
1.40001
1.40001
1.40001
1.40001
1.40001
1.40001
1.40001
1.40001
1.40001
1.40001
1.40001
1.40001
1.40001
1.40001
1.40001
1.40207
1.40234
1.40258
1.40277
1.40292
1.40299
1.403
1.40293
1.4028
1.40261
1.40236
1.40208
1.40177
1.40146
1.40116
1.40088
1.40064
1.40043
1.40027
1.40015
1.40007
1.40001
1.39999
1.39998
1.39998
1.39999
1.40001
1.40002
1.40003
1.40003
1.40004
1.40004
1.40004
1.40003
1.40003
1.40003
1.40002
1.40002
1.40001
1.40001
1.40001
1.40001
1.40001
1.40001
1.40001
1.40001
1.40001
1.40001
1.40001
1.40001
1.40001
1.40001
1.40001
1.40001
1.40001
1.40001
1.40001
1.40001
1.40001
1.40001
1.40001
1.40001
1.40001
1.40001
1.40001
1.40001
1.40001
1.40001
1.40001
1.40001
1.40001
1.40001
1.40001
1.40001
1.40001
1.4015
1.40167
1.40183
1.40195
1.40203
1.40207
1.40205
1.40198
1.40187
1.40171
1.40152
1.4013
1.40108
1.40086
1.40065
1.40046
1.40029
1.40016
1.40007
1.4
1.39996
1.39994
1.39993
1.39994
1.39996
1.39997
1.39999
1.4
1.40001
1.40002
1.40003
1.40003
1.40003
1.40003
1.40002
1.40002
1.40002
1.40001
1.40001
1.40001
1.40001
1.40001
1.40001
1.40001
1.40001
1.40001
1.40001
1.40001
1.40001
1.40001
1.40001
1.4
1.40001
1.40001
1.40001
1.40001
1.40001
1.40001
1.40001
1.40001
1.40001
1.40001
1.40001
1.40001
1.40001
1.40001
1.40001
1.40001
1.40001
1.40001
1.40001
1.40001
1.40001
1.40001
1.40001
1.40109
1.4012
1.40129
1.40137
1.40141
1.40141
1.40138
1.40132
1.40122
1.40109
1.40094
1.40078
1.40062
1.40046
1.40031
1.40019
1.40008
1.4
1.39995
1.39991
1.3999
1.39989
1.3999
1.39992
1.39994
1.39996
1.39998
1.39999
1.4
1.40001
1.40002
1.40002
1.40002
1.40002
1.40002
1.40002
1.40001
1.40001
1.40001
1.40001
1.40001
1.40001
1.40001
1.40001
1.40001
1.40001
1.4
1.40001
1.40001
1.40001
1.40001
1.40001
1.40001
1.40001
1.40001
1.40001
1.40001
1.40001
1.40001
1.40001
1.40001
1.40001
1.40001
1.40001
1.40001
1.40001
1.40001
1.40001
1.40001
1.40001
1.40001
1.40001
1.40001
1.40001
1.40001
1.40079
1.40086
1.40092
1.40096
1.40097
1.40096
1.40092
1.40086
1.40078
1.40067
1.40056
1.40044
1.40032
1.40021
1.40011
1.40002
1.39996
1.39991
1.39988
1.39987
1.39987
1.39988
1.39989
1.39991
1.39993
1.39995
1.39997
1.39999
1.4
1.40001
1.40001
1.40001
1.40002
1.40002
1.40001
1.40001
1.40001
1.40001
1.40001
1.40001
1.40001
1.40001
1.40001
1.40001
1.40001
1.40001
1.40001
1.40001
1.40001
1.40001
1.40001
1.40001
1.40001
1.40001
1.40001
1.40001
1.40001
1.40001
1.40001
1.40001
1.40001
1.40001
1.40001
1.40001
1.40001
1.40001
1.40001
1.40001
1.40001
1.40001
1.40001
1.40001
1.40001
1.40001
1.40001
1.40058
1.40062
1.40066
1.40067
1.40067
1.40065
1.40061
1.40055
1.40048
1.4004
1.40031
1.40022
1.40014
1.40006
1.39999
1.39993
1.39989
1.39987
1.39985
1.39985
1.39986
1.39988
1.39989
1.39992
1.39994
1.39996
1.39997
1.39998
1.39999
1.4
1.40001
1.40001
1.40001
1.40001
1.40001
1.40001
1.40001
1.40001
1.40001
1.40001
1.40001
1.40001
1.40001
1.40001
1.40001
1.40001
1.40001
1.40001
1.40001
1.40001
1.40001
1.40001
1.40001
1.40001
1.40001
1.40001
1.40001
1.40001
1.40001
1.40001
1.40001
1.40001
1.40001
1.40001
1.40001
1.40001
1.40001
1.40001
1.40001
1.40001
1.40001
1.40001
1.40001
1.40001
1.40001
1.40043
1.40045
1.40047
1.40047
1.40046
1.40044
1.4004
1.40035
1.40029
1.40023
1.40016
1.40009
1.40003
1.39997
1.39992
1.39989
1.39987
1.39985
1.39985
1.39986
1.39987
1.39989
1.3999
1.39992
1.39994
1.39996
1.39997
1.39998
1.39999
1.4
1.4
1.40001
1.40001
1.40001
1.40001
1.40001
1.40001
1.40001
1.40001
1.40001
1.40001
1.40001
1.40001
1.40001
1.40001
1.40001
1.40001
1.40001
1.40001
1.40001
1.40001
1.40001
1.40001
1.40001
1.40001
1.40001
1.40001
1.40001
1.40001
1.40001
1.40001
1.40001
1.40001
1.40001
1.40001
1.40001
1.40001
1.40001
1.40001
1.40001
1.40001
1.40001
1.40001
1.40001
1.40001
1.40032
1.40034
1.40034
1.40034
1.40033
1.4003
1.40026
1.40022
1.40018
1.40012
1.40007
1.40002
1.39997
1.39993
1.3999
1.39988
1.39986
1.39986
1.39986
1.39987
1.39988
1.3999
1.39991
1.39993
1.39995
1.39996
1.39998
1.39999
1.39999
1.4
1.4
1.40001
1.40001
1.40001
1.40001
1.40001
1.40001
1.40001
1.40001
1.40001
1.40001
1.40001
1.40001
1.40001
1.40001
1.40001
1.40001
1.40001
1.40001
1.40001
1.40001
1.40001
1.40001
1.40001
1.40001
1.40001
1.40001
1.40001
1.40001
1.40001
1.40001
1.40001
1.40001
1.40001
1.40001
1.40001
1.40001
1.40001
1.40001
1.40001
1.40001
1.40001
1.40001
1.40001
1.40001
1.40024
1.40025
1.40025
1.40024
1.40023
1.40021
1.40018
1.40014
1.4001
1.40006
1.40002
1.39998
1.39995
1.39992
1.39989
1.39988
1.39987
1.39987
1.39988
1.39989
1.3999
1.39991
1.39993
1.39994
1.39996
1.39997
1.39998
1.39999
1.39999
1.4
1.4
1.4
1.40001
1.40001
1.40001
1.40001
1.40001
1.40001
1.40001
1.40001
1.40001
1.40001
1.40001
1.40001
1.40001
1.40001
1.40001
1.40001
1.40001
1.40001
1.40001
1.40001
1.40001
1.40001
1.40001
1.40001
1.40001
1.40001
1.40001
1.40001
1.40001
1.40001
1.40001
1.40001
1.40001
1.40001
1.40001
1.40001
1.40001
1.40001
1.40001
1.40001
1.40001
1.40001
1.40001
1.40018
1.40018
1.40018
1.40018
1.40016
1.40014
1.40012
1.40009
1.40006
1.40003
1.39999
1.39996
1.39994
1.39992
1.3999
1.39989
1.39989
1.39989
1.39989
1.3999
1.39991
1.39993
1.39994
1.39995
1.39996
1.39997
1.39998
1.39999
1.39999
1.4
1.4
1.4
1.40001
1.40001
1.40001
1.40001
1.40001
1.40001
1.40001
1.40001
1.40001
1.40001
1.40001
1.40001
1.40001
1.40001
1.40001
1.40001
1.40001
1.40001
1.40001
1.40001
1.40001
1.40001
1.40001
1.40001
1.40001
1.40001
1.40001
1.40001
1.40001
1.40001
1.40001
1.40001
1.40001
1.40001
1.40001
1.40001
1.40001
1.40001
1.40001
1.40001
1.40001
1.40001
1.40001
1.40014
1.40014
1.40014
1.40013
1.40012
1.4001
1.40008
1.40006
1.40003
1.40001
1.39998
1.39996
1.39994
1.39993
1.39992
1.39991
1.3999
1.39991
1.39991
1.39992
1.39993
1.39994
1.39995
1.39996
1.39997
1.39998
1.39999
1.39999
1.4
1.4
1.4
1.4
1.4
1.40001
1.40001
1.40001
1.40001
1.40001
1.40001
1.40001
1.40001
1.40001
1.40001
1.40001
1.40001
1.40001
1.40001
1.40001
1.40001
1.40001
1.40001
1.40001
1.40001
1.40001
1.40001
1.40001
1.40001
1.40001
1.40001
1.40001
1.40001
1.40001
1.40001
1.40001
1.40001
1.40001
1.40001
1.40001
1.40001
1.40001
1.40001
1.40001
1.40001
1.40001
1.40001
1.40011
1.40011
1.4001
1.4001
1.40009
1.40007
1.40006
1.40004
1.40002
1.4
1.39998
1.39996
1.39995
1.39994
1.39993
1.39992
1.39992
1.39993
1.39993
1.39994
1.39994
1.39995
1.39996
1.39997
1.39998
1.39998
1.39999
1.39999
1.4
1.4
1.4
1.4
1.4
1.4
1.4
1.4
1.4
1.40001
1.40001
1.40001
1.40001
1.40001
1.40001
1.40001
1.40001
1.40001
1.40001
1.4
1.4
1.4
1.4
1.4
1.40001
1.40001
1.40001
1.40001
1.40001
1.40001
1.40001
1.40001
1.40001
1.40001
1.40001
1.40001
1.40001
1.40001
1.40001
1.40001
1.40001
1.40001
1.40001
1.40001
1.40001
1.40001
1.40001
1.40008
1.40008
1.40008
1.40007
1.40007
1.40005
1.40004
1.40003
1.40001
1.39999
1.39998
1.39997
1.39996
1.39995
1.39994
1.39994
1.39994
1.39994
1.39995
1.39995
1.39996
1.39996
1.39997
1.39998
1.39998
1.39999
1.39999
1.4
1.4
1.4
1.4
1.4
1.4
1.4
1.40001
1.40001
1.40001
1.40001
1.40001
1.40001
1.40001
1.40001
1.40001
1.40001
1.40001
1.40001
1.40001
1.40001
1.40001
1.40001
1.40001
1.40001
1.40001
1.40001
1.40001
1.40001
1.40001
1.40001
1.40001
1.40001
1.40001
1.40001
1.40001
1.40001
1.40001
1.40001
1.40001
1.40001
1.40001
1.40001
1.40001
1.40001
1.40001
1.40001
1.40001
1.40006
1.40006
1.40006
1.40005
1.40005
1.40004
1.40003
1.40002
1.40001
1.39999
1.39998
1.39997
1.39997
1.39996
1.39996
1.39995
1.39995
1.39996
1.39996
1.39996
1.39997
1.39997
1.39998
1.39998
1.39999
1.39999
1.4
1.4
1.4
1.4
1.4
1.4
1.4
1.4
1.40001
1.40001
1.40001
1.40001
1.40001
1.40001
1.40001
1.40001
1.40001
1.40001
1.40001
1.4
1.4
1.4
1.4
1.4
1.4
1.40001
1.40001
1.40001
1.40001
1.40001
1.40001
1.40001
1.40001
1.40001
1.40001
1.40001
1.40001
1.40001
1.40001
1.40001
1.40001
1.40001
1.40001
1.40001
1.40001
1.40001
1.40001
1.40001
1.40001
1.40005
1.40005
1.40005
1.40004
1.40004
1.40003
1.40002
1.40001
1.40001
1.4
1.39999
1.39998
1.39997
1.39997
1.39997
1.39996
1.39996
1.39997
1.39997
1.39997
1.39998
1.39998
1.39998
1.39999
1.39999
1.39999
1.4
1.4
1.4
1.4
1.4
1.4
1.4
1.4
1.4
1.4
1.40001
1.40001
1.40001
1.40001
1.40001
1.4
1.4
1.4
1.40001
1.40001
1.40001
1.40001
1.40001
1.40001
1.40001
1.40001
1.40001
1.40001
1.40001
1.40001
1.40001
1.40001
1.40001
1.40001
1.40001
1.40001
1.40001
1.40001
1.40001
1.40001
1.40001
1.40001
1.40001
1.40001
1.40001
1.40001
1.40001
1.40001
1.40001
1.40004
1.40004
1.40004
1.40003
1.40003
1.40002
1.40002
1.40001
1.4
1.4
1.39999
1.39999
1.39998
1.39998
1.39998
1.39997
1.39997
1.39998
1.39998
1.39998
1.39998
1.39999
1.39999
1.39999
1.39999
1.4
1.4
1.4
1.4
1.4
1.4
1.4
1.4
1.4
1.40001
1.40001
1.4
1.4
1.4
1.4
1.40001
1.40001
1.40001
1.40001
1.40001
1.4
1.4
1.4
1.4
1.4
1.40001
1.40001
1.40001
1.40001
1.40001
1.40001
1.40001
1.40001
1.40001
1.40001
1.40001
1.40001
1.40001
1.40001
1.40001
1.40001
1.40001
1.40001
1.40001
1.40001
1.40001
1.40001
1.40001
1.40001
1.40001
1.40003
1.40003
1.40003
1.40003
1.40002
1.40002
1.40001
1.40001
1.4
1.4
1.39999
1.39999
1.39999
1.39998
1.39998
1.39998
1.39998
1.39998
1.39998
1.39999
1.39999
1.39999
1.39999
1.4
1.4
1.4
1.4
1.4
1.4
1.4
1.4
1.4
1.4
1.40001
1.40001
1.4
1.4
1.4
1.40001
1.40001
1.40001
1.4
1.40001
1.40001
1.40001
1.40001
1.40001
1.40001
1.40001
1.40001
1.40001
1.40001
1.40001
1.40001
1.40001
1.40001
1.40001
1.40001
1.40001
1.40001
1.40001
1.40001
1.40001
1.40001
1.40001
1.40001
1.40001
1.40001
1.40001
1.40001
1.40001
1.40001
1.40001
1.40001
1.40001
1.40002
1.40002
1.40002
1.40002
1.40002
1.40001
1.40001
1.40001
1.4
1.4
1.4
1.39999
1.39999
1.39999
1.39999
1.39999
1.39999
1.39999
1.39999
1.39999
1.39999
1.39999
1.4
1.4
1.4
1.4
1.4
1.4
1.4
1.4
1.4
1.4
1.4
1.4
1.4
1.40001
1.40001
1.40001
1.40001
1.40001
1.40001
1.40001
1.40001
1.40001
1.4
1.4
1.4
1.4
1.40001
1.40001
1.40001
1.40001
1.40001
1.40001
1.40001
1.40001
1.40001
1.40001
1.40001
1.40001
1.40001
1.40001
1.40001
1.40001
1.40001
1.40001
1.40001
1.40001
1.40001
1.40001
1.40001
1.40001
1.40001
1.40001
1.40001
1.40002
1.40002
1.40002
1.40002
1.40001
1.40001
1.40001
1.40001
1.4
1.4
1.4
1.4
1.4
1.39999
1.39999
1.39999
1.39999
1.39999
1.39999
1.4
1.4
1.4
1.4
1.4
1.4
1.4
1.4
1.4
1.4
1.4
1.4
1.4
1.4
1.40001
1.40001
1.40001
1.40001
1.40001
1.40001
1.40001
1.40001
1.40001
1.40001
1.40001
1.40001
1.40001
1.40001
1.40001
1.40001
1.40001
1.40001
1.40001
1.40001
1.40001
1.40001
1.40001
1.40001
1.40001
1.40001
1.40001
1.40001
1.40001
1.40001
1.40001
1.40001
1.40001
1.40001
1.40001
1.40001
1.40001
1.40001
1.40001
1.40001
1.40001
1.40001
1.40001
1.40001
1.40001
1.40001
1.40001
1.40001
1.40001
1.40001
1.4
1.4
1.4
1.4
1.4
1.4
1.4
1.4
1.4
1.4
1.4
1.4
1.4
1.4
1.4
1.4
1.4
1.4
1.4
1.4
1.4
1.4
1.4
1.4
1.40001
1.40001
1.40001
1.40001
1.40001
1.4
1.4
1.4
1.4
1.40001
1.40001
1.40001
1.4
1.40001
1.40001
1.40001
1.40001
1.40001
1.40001
1.40001
1.40001
1.40001
1.40001
1.40001
1.40001
1.40001
1.40001
1.40001
1.40001
1.40001
1.40001
1.40001
1.40001
1.40001
1.40001
1.40001
1.40001
1.40001
1.40001
1.40001
1.40001
1.40001
1.40001
1.40001
1.40001
1.40001
1.40001
1.40001
1.40001
1.40001
1.40001
1.4
1.4
1.4
1.4
1.4
1.4
1.4
1.4
1.4
1.4
1.4
1.4
1.4
1.4
1.4
1.4
1.4
1.4
1.4
1.4
1.4
1.4
1.4
1.4
1.40001
1.4
1.4
1.4
1.4
1.40001
1.40001
1.40001
1.40001
1.40001
1.40001
1.40001
1.40001
1.40001
1.40001
1.40001
1.40001
1.40001
1.40001
1.40001
1.40001
1.40001
1.40001
1.40001
1.40001
1.40001
1.40001
1.40001
1.40001
1.40001
1.40001
1.40001
1.40001
1.40001
1.40001
1.40001
1.40001
1.40001
1.40001
1.40001
1.40001
1.40001
1.40001
1.40001
1.40001
1.40001
1.40001
1.40001
1.40001
1.40001
1.40001
1.4
1.4
1.4
1.4
1.4
1.4
1.4
1.4
1.4
1.4
1.4
1.4
1.4
1.4
1.4
1.4
1.4
1.4
1.4
1.4
1.4
1.4
1.4
1.40001
1.40001
1.40001
1.4
1.4
1.4
1.40001
1.40001
1.40001
1.40001
1.40001
1.40001
1.40001
1.40001
1.40001
1.40001
1.40001
1.40001
1.40001
1.40001
1.40001
1.40001
1.40001
1.40001
1.40001
1.40001
1.40001
1.40001
1.40001
1.40001
1.40001
1.40001
1.40001
1.40001
1.40001
1.40001
1.40001
1.40001
1.40001
1.40001
1.40001
1.40001
1.40001
1.40001
1.40001
1.40001
1.40001
1.40001
1.40001
1.40001
1.40001
1.4
1.4
1.4
1.4
1.4
1.4
1.4
1.4
1.4
1.4
1.4
1.4
1.4
1.4
1.4
1.4
1.4
1.4
1.4
1.4
1.4
1.4
1.4
1.4
1.40001
1.4
1.4
1.4
1.4
1.4
1.4
1.4
1.40001
1.40001
1.40001
1.40001
1.40001
1.40001
1.40001
1.40001
1.40001
1.40001
1.40001
1.40001
1.40001
1.40001
1.40001
1.40001
1.40001
1.40001
1.40001
1.40001
1.40001
1.40001
1.40001
1.40001
1.40001
1.40001
1.40001
1.40001
1.40001
1.40001
1.40001
1.40001
1.40001
1.40001
1.40001
1.40001
1.40001
1.40001
1.40001
1.40001
1.40001
1.40001
1.40001
1.40001
1.40001
1.4
1.4
1.4
1.4
1.4
1.4
1.4
1.4
1.4
1.4
1.4
1.4
1.4
1.4
1.4
1.4
1.4
1.4
1.4
1.4
1.40001
1.40001
1.40001
1.4
1.4
1.4
1.40001
1.40001
1.40001
1.40001
1.40001
1.40001
1.40001
1.40001
1.40001
1.40001
1.40001
1.40001
1.40001
1.40001
1.40001
1.40001
1.40001
1.40001
1.40001
1.40001
1.40001
1.40001
1.40001
1.40001
1.40001
1.40001
1.40001
1.40001
1.40001
1.40001
1.40001
1.40001
1.40001
1.40001
1.40001
1.40001
1.40001
1.40001
1.40001
1.40001
1.40001
1.40001
1.40001
1.40001
1.40001
1.40001
1.40001
1.40001
1.4
1.4
1.4
1.4
1.4
1.4
1.4
1.4
1.4
1.4
1.4
1.4
1.4
1.4
1.4
1.4
1.4
1.4
1.4
1.4
1.40001
1.40001
1.40001
1.4
1.4
1.4
1.4
1.4
1.40001
1.40001
1.40001
1.40001
1.40001
1.40001
1.40001
1.40001
1.40001
1.40001
1.40001
1.40001
1.40001
1.40001
1.40001
1.40001
1.40001
1.40001
1.40001
1.40001
1.40001
1.40001
1.40001
1.40001
1.40001
1.40001
1.40001
1.40001
1.40001
1.40001
1.40001
1.40001
1.40001
1.40001
1.40001
1.40001
1.40001
1.40001
1.40001
1.40001
1.40001
1.40001
1.40001
1.40001
1.40001
1.4
1.40001
1.40001
1.4
1.4
1.4
1.4
1.4
1.4
1.4
1.4
1.4
1.4
1.4
1.4
1.4
1.4
1.4
1.4
1.4
1.40001
1.40001
1.40001
1.40001
1.4
1.4
1.4
1.40001
1.40001
1.40001
1.40001
1.40001
1.40001
1.40001
1.40001
1.40001
1.40001
1.40001
1.40001
1.40001
1.40001
1.40001
1.40001
1.40001
1.40001
1.40001
1.40001
1.40001
1.40001
1.40001
1.40001
1.40001
1.40001
1.40001
1.40001
1.40001
1.40001
1.40001
1.40001
1.40001
1.40001
1.40001
1.40001
1.40001
1.40001
1.40001
1.40001
1.40001
1.40001
1.40001
1.40001
1.4
1.40001
1.40001
1.40001
1.40001
1.4
1.40001
1.4
1.4
1.4
1.4
1.40001
1.4
1.4
1.4
1.4
1.4
1.4
1.4
1.4
1.4
1.4
1.4
1.4
1.40001
1.40001
1.4
1.4
1.4
1.4
1.40001
1.40001
1.40001
1.40001
1.40001
1.40001
1.40001
1.40001
1.40001
1.40001
1.40001
1.40001
1.40001
1.40001
1.40001
1.40001
1.40001
1.40001
1.40001
1.40001
1.40001
1.40001
1.40001
1.40001
1.40001
1.40001
1.40001
1.40001
1.40001
1.40001
1.40001
1.40001
1.40001
1.40001
1.40001
1.40001
1.40001
1.40001
1.40001
1.40001
1.40001
1.40001
1.40001
1.40001
1.40001
1.40001
1.40001
1.4
1.40001
1.40001
1.40001
1.40001
1.40001
1.4
1.4
1.4
1.4
1.4
1.4
1.4
1.4
1.40001
1.4
1.4
1.4
1.4
1.40001
1.40001
1.40001
1.40001
1.4
1.4
1.4
1.4
1.4
1.40001
1.40001
1.40001
1.40001
1.40001
1.40001
1.40001
1.40001