/*--------------------------------*- C++ -*----------------------------------*\
  =========                 |
  \\      /  F ield         | OpenFOAM: The Open Source CFD Toolbox
   \\    /   O peration     | Website:  https://openfoam.org
    \\  /    A nd           | Version:  6
     \\/     M anipulation  |
\*---------------------------------------------------------------------------*/
FoamFile
{
    version     2.0;
    format      ascii;
    class       volScalarField;
    location    "2.77";
    object      rho;
}
// * * * * * * * * * * * * * * * * * * * * * * * * * * * * * * * * * * * * * //

dimensions      [1 -3 0 0 0 0 0];

internalField   nonuniform List<scalar> 
10000
(
1.40001
1.40001
1.40001
1.40001
1.40001
1.40001
1.40001
1.40001
1.40001
1.40001
1.40001
1.40001
1.4
1.40001
1.4
1.40001
1.4
1.40001
1.4
1.40001
1.4
1.40001
1.40001
1.4
1.40001
1.4
1.40001
1.4
1.40001
1.4
1.40001
1.4
1.40001
1.40001
1.40001
1.40001
1.40001
1.40001
1.40001
1.40001
1.4
1.40001
1.40001
1.4
1.4
1.4
1.4
1.4
1.4
1.4
1.4
1.4
1.4
1.4
1.4
1.4
1.4
1.4
1.4
1.40001
1.40001
1.40001
1.40001
1.40002
1.40002
1.40002
1.40001
1.40001
1.40001
1.40001
1.40001
1.4
1.4
1.4
1.4
1.4
1.4
1.4
1.4
1.4
1.4
1.4
1.4
1.4
1.4
1.4
1.4
1.40001
1.40001
1.40001
1.40001
1.40001
1.40001
1.40001
1.40001
1.40001
1.40001
1.40001
1.40001
1.40001
1.40001
1.40001
1.40001
1.40001
1.40001
1.40001
1.40001
1.40001
1.40001
1.40001
1.40001
1.40001
1.4
1.40001
1.4
1.40001
1.4
1.40001
1.4
1.40001
1.4
1.40001
1.4
1.40001
1.4
1.40001
1.40001
1.4
1.40001
1.4
1.40001
1.4
1.40001
1.40001
1.4
1.40001
1.4
1.40001
1.4
1.40001
1.40001
1.4
1.4
1.4
1.4
1.4
1.4
1.4
1.4
1.4
1.4
1.39999
1.39999
1.39999
1.39999
1.39999
1.39999
1.4
1.4
1.40001
1.40001
1.40002
1.40002
1.40003
1.40003
1.40003
1.40003
1.40002
1.40002
1.40001
1.40001
1.4
1.4
1.4
1.4
1.4
1.4
1.4
1.4
1.4
1.4
1.4
1.4
1.4
1.4
1.4
1.4
1.4
1.4
1.4
1.40001
1.40001
1.40001
1.40001
1.40001
1.40001
1.40001
1.40001
1.40001
1.40001
1.40001
1.40001
1.40001
1.40001
1.40001
1.40001
1.40001
1.40001
1.40001
1.40001
1.4
1.40001
1.4
1.40001
1.4
1.40001
1.40001
1.40001
1.40001
1.40001
1.40001
1.40001
1.40001
1.40001
1.40001
1.4
1.40001
1.4
1.40001
1.4
1.40001
1.4
1.40001
1.40001
1.4
1.40001
1.40001
1.40001
1.40001
1.4
1.40001
1.4
1.40001
1.4
1.4
1.4
1.4
1.4
1.4
1.4
1.39999
1.39999
1.39998
1.39998
1.39998
1.39998
1.39998
1.39999
1.4
1.40001
1.40002
1.40004
1.40004
1.40005
1.40005
1.40005
1.40005
1.40004
1.40003
1.40002
1.40001
1.4
1.4
1.4
1.39999
1.39999
1.39999
1.4
1.4
1.4
1.4
1.4
1.4
1.4
1.4
1.4
1.4
1.4
1.4
1.40001
1.40001
1.40001
1.40001
1.40001
1.40001
1.40001
1.40001
1.40001
1.40001
1.40001
1.40001
1.40001
1.40001
1.40001
1.40001
1.40001
1.40001
1.40001
1.40001
1.40001
1.40001
1.40001
1.4
1.40001
1.4
1.40001
1.4
1.40001
1.4
1.40001
1.4
1.40001
1.40001
1.4
1.40001
1.4
1.40001
1.4
1.40001
1.4
1.40001
1.40001
1.4
1.40001
1.4
1.40001
1.4
1.40001
1.4
1.4
1.40001
1.40001
1.4
1.4
1.4
1.4
1.4
1.4
1.4
1.39999
1.39999
1.39998
1.39997
1.39997
1.39997
1.39997
1.39997
1.39999
1.4
1.40002
1.40004
1.40007
1.40008
1.4001
1.4001
1.4001
1.40009
1.40007
1.40006
1.40004
1.40002
1.40001
1.4
1.39999
1.39999
1.39999
1.39999
1.39999
1.39999
1.4
1.4
1.4
1.4
1.4
1.4
1.4
1.4
1.4
1.4
1.4
1.4
1.40001
1.40001
1.40001
1.40001
1.40001
1.40001
1.40001
1.40001
1.40001
1.40001
1.40001
1.40001
1.40001
1.40001
1.40001
1.40001
1.40001
1.40001
1.40001
1.4
1.40001
1.40001
1.40001
1.40001
1.4
1.40001
1.4
1.40001
1.40001
1.40001
1.4
1.40001
1.4
1.40001
1.4
1.40001
1.4
1.40001
1.4
1.40001
1.40001
1.4
1.40001
1.4
1.40001
1.4
1.40001
1.40001
1.4
1.40001
1.40001
1.40001
1.4
1.40001
1.4
1.4
1.4
1.39999
1.39999
1.39998
1.39997
1.39996
1.39995
1.39995
1.39995
1.39996
1.39998
1.40001
1.40005
1.40009
1.40013
1.40016
1.40018
1.40019
1.40019
1.40017
1.40014
1.40011
1.40008
1.40005
1.40002
1.4
1.39999
1.39998
1.39998
1.39998
1.39999
1.39999
1.39999
1.4
1.4
1.4
1.4
1.4
1.4
1.4
1.4
1.4
1.4
1.40001
1.40001
1.40001
1.40001
1.40001
1.40001
1.40001
1.40001
1.40001
1.40001
1.40001
1.40001
1.40001
1.40001
1.40001
1.40001
1.40001
1.40001
1.40001
1.40001
1.40001
1.4
1.40001
1.4
1.40001
1.40001
1.4
1.40001
1.4
1.40001
1.40001
1.4
1.40001
1.4
1.40001
1.4
1.40001
1.4
1.40001
1.40001
1.4
1.40001
1.4
1.40001
1.4
1.40001
1.4
1.40001
1.40001
1.4
1.40001
1.40001
1.40001
1.40001
1.40001
1.4
1.4
1.4
1.39999
1.39998
1.39997
1.39995
1.39994
1.39993
1.39992
1.39993
1.39995
1.39999
1.40005
1.40011
1.40018
1.40025
1.40031
1.40035
1.40036
1.40035
1.40032
1.40027
1.40021
1.40015
1.4001
1.40005
1.40001
1.39999
1.39998
1.39997
1.39997
1.39998
1.39998
1.39999
1.39999
1.4
1.4
1.4
1.4
1.4
1.4
1.4
1.4
1.4
1.4
1.4
1.40001
1.40001
1.40001
1.40001
1.40001
1.40001
1.40001
1.40001
1.40001
1.40001
1.40001
1.40001
1.40001
1.40001
1.40001
1.40001
1.40001
1.40001
1.40001
1.4
1.40001
1.4
1.40001
1.4
1.40001
1.4
1.40001
1.4
1.40001
1.4
1.40001
1.4
1.40001
1.4
1.40001
1.40001
1.4
1.40001
1.4
1.4
1.40001
1.40001
1.40001
1.40001
1.4
1.40001
1.40001
1.4
1.40001
1.40001
1.40001
1.40001
1.40001
1.4
1.4
1.4
1.39999
1.39997
1.39996
1.39994
1.39992
1.3999
1.3999
1.39992
1.39997
1.40004
1.40014
1.40026
1.40038
1.4005
1.40059
1.40065
1.40067
1.40064
1.40058
1.4005
1.4004
1.40029
1.40019
1.40011
1.40005
1.4
1.39997
1.39996
1.39996
1.39996
1.39997
1.39998
1.39999
1.39999
1.4
1.4
1.4
1.4
1.4
1.4
1.4
1.4
1.4
1.40001
1.40001
1.40001
1.40001
1.40001
1.40001
1.40001
1.40001
1.40001
1.40001
1.40001
1.40001
1.40001
1.40001
1.40001
1.40001
1.40001
1.40001
1.4
1.40001
1.4
1.40001
1.4
1.40001
1.4
1.40001
1.4
1.40001
1.4
1.40001
1.4
1.40001
1.4
1.4
1.40001
1.4
1.40001
1.4
1.40001
1.40001
1.4
1.4
1.40001
1.4
1.40001
1.4
1.40001
1.40001
1.4
1.40001
1.40001
1.40001
1.40001
1.40001
1.4
1.4
1.39999
1.39998
1.39996
1.39994
1.39991
1.39989
1.39988
1.3999
1.39995
1.40005
1.40019
1.40037
1.40058
1.40079
1.40098
1.40112
1.4012
1.40121
1.40115
1.40104
1.40088
1.4007
1.40052
1.40035
1.40021
1.4001
1.40003
1.39998
1.39996
1.39995
1.39995
1.39996
1.39997
1.39998
1.39999
1.39999
1.4
1.4
1.4
1.4
1.4
1.4
1.4
1.4
1.4
1.4
1.40001
1.40001
1.40001
1.40001
1.40001
1.40001
1.40001
1.40001
1.40001
1.40001
1.40001
1.40001
1.40001
1.40001
1.40001
1.40001
1.40001
1.40001
1.4
1.40001
1.4
1.40001
1.4
1.40001
1.4
1.40001
1.4
1.40001
1.4
1.40001
1.4
1.40001
1.4
1.40001
1.4
1.40001
1.4
1.40001
1.40001
1.4
1.40001
1.40001
1.4
1.40001
1.40001
1.4
1.40001
1.40001
1.40001
1.40001
1.40001
1.40001
1.40001
1.4
1.39999
1.39998
1.39995
1.39992
1.39989
1.39988
1.39989
1.39995
1.40007
1.40027
1.40054
1.40087
1.40123
1.40159
1.40189
1.4021
1.40219
1.40216
1.40202
1.40179
1.40151
1.4012
1.4009
1.40062
1.40039
1.4002
1.40008
1.4
1.39996
1.39994
1.39994
1.39995
1.39996
1.39997
1.39998
1.39999
1.39999
1.4
1.4
1.4
1.4
1.4
1.4
1.4
1.4
1.40001
1.40001
1.40001
1.40001
1.40001
1.40001
1.40001
1.40001
1.40001
1.40001
1.40001
1.40001
1.40001
1.4
1.40001
1.4
1.40001
1.4
1.40001
1.4
1.40001
1.40001
1.40001
1.4
1.40001
1.4
1.40001
1.4
1.40001
1.4
1.40001
1.4
1.40001
1.40001
1.4
1.40001
1.4
1.40001
1.40001
1.40001
1.4
1.40001
1.40001
1.40001
1.4
1.40001
1.4
1.40001
1.40001
1.40001
1.40001
1.40001
1.40001
1.40001
1.4
1.39999
1.39997
1.39994
1.39991
1.39988
1.39989
1.39996
1.40012
1.40038
1.40077
1.40128
1.40187
1.4025
1.40308
1.40354
1.40383
1.4039
1.40376
1.40345
1.40302
1.40251
1.40198
1.40147
1.40103
1.40066
1.40037
1.40016
1.40003
1.39996
1.39993
1.39993
1.39994
1.39995
1.39996
1.39997
1.39998
1.39999
1.4
1.4
1.4
1.4
1.4
1.4
1.4
1.4
1.4
1.40001
1.40001
1.40001
1.40001
1.40001
1.40001
1.40001
1.40001
1.40001
1.40001
1.40001
1.40001
1.40001
1.40001
1.40001
1.40001
1.40001
1.4
1.40001
1.4
1.40001
1.4
1.40001
1.40001
1.4
1.40001
1.4
1.40001
1.40001
1.4
1.4
1.40001
1.40001
1.4
1.40001
1.40001
1.4
1.40001
1.4
1.40001
1.40001
1.40001
1.4
1.40001
1.40001
1.40001
1.40001
1.40001
1.40001
1.40001
1.40001
1.40001
1.40001
1.40001
1.39999
1.39997
1.39993
1.3999
1.3999
1.39998
1.40017
1.40052
1.40105
1.40179
1.4027
1.40373
1.40478
1.40571
1.40641
1.40677
1.40676
1.4064
1.40576
1.40494
1.40405
1.40316
1.40233
1.40162
1.40104
1.40061
1.4003
1.40009
1.39997
1.39992
1.39991
1.39992
1.39993
1.39995
1.39997
1.39998
1.39999
1.39999
1.4
1.4
1.4
1.4
1.4
1.4
1.4
1.4
1.40001
1.40001
1.40001
1.40001
1.40001
1.40001
1.40001
1.40001
1.40001
1.40001
1.40001
1.40001
1.40001
1.4
1.40001
1.4
1.40001
1.4
1.40001
1.4
1.40001
1.4
1.40001
1.4
1.40001
1.4
1.40001
1.4
1.40001
1.4
1.4
1.40001
1.4
1.40001
1.4
1.40001
1.4
1.40001
1.40001
1.4
1.40001
1.40001
1.40001
1.40001
1.40001
1.4
1.40001
1.40001
1.40001
1.40001
1.40001
1.40002
1.40002
1.40001
1.4
1.39997
1.39993
1.39992
1.39999
1.4002
1.40062
1.40133
1.40234
1.40366
1.40523
1.40694
1.40861
1.41005
1.41107
1.41152
1.41133
1.41057
1.40937
1.40791
1.40638
1.40491
1.4036
1.40248
1.40159
1.40093
1.40048
1.40018
1.4
1.39992
1.39989
1.39989
1.39991
1.39994
1.39996
1.39997
1.39998
1.39999
1.4
1.4
1.4
1.4
1.4
1.4
1.4
1.4
1.40001
1.40001
1.40001
1.40001
1.40001
1.40001
1.40001
1.40001
1.40001
1.40001
1.4
1.40001
1.4
1.40001
1.4
1.40001
1.40001
1.40001
1.4
1.40001
1.4
1.40001
1.4
1.4
1.40001
1.4
1.40001
1.40001
1.4
1.40001
1.4
1.40001
1.40001
1.4
1.40001
1.40001
1.40001
1.4
1.40001
1.40001
1.4
1.4
1.40001
1.40001
1.40001
1.4
1.40001
1.40001
1.40001
1.40001
1.40002
1.40002
1.40003
1.40002
1.4
1.39997
1.39995
1.39999
1.40019
1.40066
1.40151
1.40281
1.40459
1.40681
1.40935
1.41202
1.41458
1.41671
1.41815
1.41869
1.41824
1.41687
1.41481
1.41237
1.40985
1.40747
1.40541
1.40371
1.40237
1.40139
1.40071
1.40029
1.40004
1.39992
1.39987
1.39987
1.39989
1.39992
1.39994
1.39996
1.39998
1.39999
1.39999
1.4
1.4
1.4
1.4
1.4
1.4
1.4
1.40001
1.40001
1.40001
1.40001
1.40001
1.40001
1.40001
1.4
1.40001
1.4
1.40001
1.40001
1.4
1.40001
1.4
1.40001
1.4
1.40001
1.4
1.40001
1.4
1.40001
1.4
1.40001
1.4
1.4
1.40001
1.40001
1.4
1.40001
1.40001
1.4
1.40001
1.4
1.40001
1.4
1.40001
1.40001
1.4
1.40001
1.4
1.40001
1.4
1.40001
1.4
1.4
1.40001
1.40001
1.40001
1.40001
1.40002
1.40003
1.40004
1.40004
1.40002
1.39999
1.4
1.40015
1.40059
1.40151
1.40305
1.40529
1.40821
1.41169
1.41553
1.41945
1.42309
1.42605
1.42801
1.42868
1.42794
1.42584
1.42263
1.41881
1.41486
1.41116
1.408
1.40544
1.40347
1.40203
1.40105
1.40044
1.40009
1.39991
1.39985
1.39984
1.39987
1.3999
1.39993
1.39995
1.39997
1.39998
1.39999
1.4
1.4
1.4
1.4
1.4
1.4
1.4
1.4
1.40001
1.40001
1.40001
1.40001
1.40001
1.40001
1.40001
1.40001
1.4
1.40001
1.4
1.40001
1.4
1.40001
1.4
1.4
1.40001
1.40001
1.4
1.40001
1.40001
1.4
1.40001
1.4
1.40001
1.4
1.4
1.40001
1.40001
1.40001
1.4
1.40001
1.40001
1.4
1.40001
1.4
1.40001
1.40001
1.4
1.4
1.40001
1.4
1.40001
1.4
1.4
1.40001
1.40001
1.40001
1.40002
1.40003
1.40004
1.40006
1.40006
1.40004
1.40003
1.40011
1.40046
1.40133
1.40297
1.40557
1.40915
1.41359
1.41866
1.42404
1.42931
1.43403
1.43779
1.44028
1.44121
1.44033
1.43757
1.43314
1.42763
1.42182
1.41635
1.41163
1.40785
1.40499
1.40293
1.40153
1.40066
1.40017
1.39992
1.39982
1.3998
1.39983
1.39987
1.39991
1.39994
1.39996
1.39998
1.39999
1.39999
1.4
1.4
1.4
1.4
1.4
1.4
1.4
1.4
1.40001
1.40001
1.40001
1.40001
1.40001
1.40001
1.4
1.40001
1.4
1.40001
1.40001
1.4
1.40001
1.4
1.40001
1.4
1.40001
1.4
1.40001
1.39999
1.40001
1.40001
1.4
1.4
1.4
1.40001
1.40001
1.4
1.40001
1.40001
1.4
1.40001
1.4
1.40001
1.40001
1.4
1.40001
1.4
1.40001
1.4
1.4
1.40001
1.40001
1.40001
1.40001
1.40001
1.40001
1.40002
1.40004
1.40006
1.40008
1.40009
1.40008
1.4001
1.40033
1.40102
1.40256
1.4053
1.40938
1.4147
1.42098
1.42777
1.4346
1.44093
1.44632
1.4505
1.45337
1.45472
1.45415
1.45128
1.44604
1.43891
1.43098
1.42329
1.41657
1.41116
1.40709
1.40419
1.40222
1.40099
1.40029
1.39995
1.3998
1.39976
1.39979
1.39984
1.39988
1.39992
1.39995
1.39997
1.39998
1.39999
1.4
1.4
1.4
1.4
1.4
1.4
1.4
1.4
1.40001
1.40001
1.40001
1.40001
1.4
1.40001
1.4
1.40001
1.4
1.40001
1.4
1.40001
1.4
1.40001
1.40001
1.4
1.4
1.40001
1.4
1.4
1.40002
1.39999
1.40001
1.4
1.40002
1.39999
1.4
1.40001
1.40001
1.4
1.4
1.40001
1.4
1.4
1.40001
1.4
1.4
1.40001
1.4
1.40001
1.40001
1.4
1.40001
1.4
1.40001
1.40001
1.40002
1.40003
1.40005
1.40008
1.40011
1.40013
1.40014
1.40024
1.4007
1.40195
1.40451
1.40877
1.41477
1.42214
1.43027
1.43849
1.44611
1.45255
1.45754
1.46127
1.46408
1.46607
1.46665
1.46486
1.45994
1.45199
1.44216
1.43205
1.42296
1.41552
1.40988
1.40589
1.40319
1.40148
1.40049
1.4
1.39979
1.39974
1.39975
1.3998
1.39985
1.3999
1.39994
1.39996
1.39998
1.39999
1.39999
1.4
1.4
1.4
1.4
1.4
1.4
1.4
1.40001
1.4
1.40001
1.4
1.40001
1.4
1.40001
1.4
1.40001
1.4
1.4
1.40001
1.4
1.40001
1.4
1.4
1.4
1.40002
1.39999
1.40002
1.39999
1.40001
1.40001
1.4
1.4
1.4
1.40001
1.40001
1.4
1.40001
1.40001
1.4
1.40001
1.40001
1.4
1.40001
1.40001
1.4
1.4
1.40001
1.40001
1.40001
1.40001
1.40001
1.40001
1.40001
1.40002
1.40004
1.40007
1.40012
1.40016
1.40018
1.40023
1.40047
1.40132
1.40341
1.40741
1.41367
1.42189
1.43128
1.4408
1.44948
1.45646
1.46124
1.46406
1.46594
1.46807
1.4709
1.47374
1.47482
1.47226
1.46521
1.45452
1.44232
1.43072
1.42095
1.41343
1.40806
1.40447
1.40218
1.40083
1.40011
1.3998
1.3997
1.39971
1.39976
1.39982
1.39988
1.39992
1.39995
1.39997
1.39998
1.39999
1.4
1.4
1.4
1.4
1.4
1.4
1.4
1.4
1.40001
1.40001
1.4
1.40001
1.4
1.40001
1.4
1.40001
1.4
1.40001
1.4
1.40001
1.4
1.4
1.40001
1.40001
1.39999
1.4
1.40002
1.39999
1.40003
1.39998
1.40001
1.4
1.40002
1.39999
1.40001
1.4
1.40002
1.4
1.4
1.40001
1.40001
1.4
1.40001
1.4
1.4
1.40001
1.4
1.40001
1.4
1.40001
1.40001
1.40001
1.40002
1.40003
1.40005
1.4001
1.40016
1.40021
1.40025
1.40036
1.40083
1.40228
1.40558
1.4115
1.42014
1.4306
1.44145
1.4512
1.45857
1.46266
1.46333
1.46179
1.46033
1.46112
1.46507
1.47129
1.47723
1.47962
1.47605
1.46649
1.45327
1.43947
1.42732
1.41772
1.41074
1.40604
1.40306
1.4013
1.40031
1.39986
1.39969
1.39968
1.39972
1.39979
1.39985
1.3999
1.39994
1.39996
1.39998
1.39999
1.39999
1.4
1.4
1.4
1.4
1.4
1.4
1.4
1.40001
1.4
1.40001
1.4
1.40001
1.4
1.40001
1.4
1.4
1.40001
1.4
1.40001
1.40001
1.40001
1.4
1.4
1.4
1.40003
1.39998
1.40001
1.39999
1.40001
1.40002
1.4
1.4
1.4
1.40001
1.40001
1.4
1.40001
1.40001
1.40001
1.4
1.4
1.4
1.40001
1.4
1.4
1.40001
1.4
1.4
1.4
1.40001
1.40001
1.40002
1.40003
1.40007
1.40013
1.40021
1.40028
1.40035
1.40057
1.4014
1.40373
1.40868
1.41698
1.42813
1.44032
1.45139
1.45945
1.46307
1.46151
1.45547
1.44767
1.44193
1.44119
1.44662
1.4571
1.46944
1.4791
1.48185
1.47607
1.46365
1.44854
1.43425
1.42257
1.4139
1.40791
1.40412
1.40185
1.4006
1.39996
1.39972
1.39966
1.39969
1.39976
1.39982
1.39987
1.39992
1.39995
1.39997
1.39998
1.39999
1.4
1.4
1.4
1.4
1.4
1.4
1.4
1.40001
1.4
1.40001
1.4
1.40001
1.4
1.40001
1.4
1.40002
1.4
1.4
1.40001
1.40001
1.4
1.4
1.40002
1.40001
1.4
1.39999
1.40003
1.39999
1.40003
1.39998
1.40001
1.4
1.40002
1.39999
1.40001
1.4
1.40002
1.4
1.4
1.40001
1.40001
1.4
1.4
1.4
1.4
1.40001
1.40001
1.40001
1.40001
1.40001
1.40001
1.40002
1.40004
1.4001
1.40017
1.40027
1.40037
1.40048
1.40088
1.40225
1.4058
1.41289
1.4239
1.43726
1.44998
1.45931
1.46325
1.46042
1.45063
1.43599
1.42123
1.41148
1.40987
1.41732
1.43245
1.45172
1.4698
1.48094
1.48149
1.47214
1.45712
1.44128
1.42769
1.41734
1.41009
1.40537
1.40251
1.40093
1.40011
1.39977
1.39966
1.39968
1.39974
1.3998
1.39986
1.39991
1.39994
1.39996
1.39998
1.39999
1.4
1.4
1.4
1.4
1.4
1.4
1.40001
1.4
1.40001
1.4
1.40001
1.4
1.40001
1.4
1.40001
1.4
1.4
1.40001
1.4
1.4
1.4
1.40002
1.40001
1.39999
1.39999
1.40003
1.4
1.40001
1.39999
1.4
1.40002
1.4
1.4
1.4
1.40001
1.40001
1.39999
1.40001
1.40001
1.40001
1.4
1.40001
1.40001
1.40001
1.4
1.4
1.4
1.40001
1.40001
1.40001
1.40002
1.40003
1.40006
1.40013
1.40023
1.40035
1.40047
1.40066
1.40133
1.40348
1.40868
1.41837
1.43209
1.4467
1.45806
1.46329
1.46064
1.44904
1.42936
1.40577
1.38512
1.37304
1.37194
1.38215
1.40184
1.42742
1.45353
1.4735
1.48196
1.47774
1.46448
1.44801
1.43283
1.42088
1.4124
1.40675
1.40331
1.40132
1.40031
1.39982
1.39966
1.39966
1.39971
1.39979
1.39985
1.39989
1.39993
1.39996
1.39997
1.39999
1.39999
1.4
1.4
1.4
1.4
1.4
1.4
1.4
1.40001
1.4
1.40001
1.40001
1.40001
1.4
1.40002
1.39999
1.40002
1.4
1.4
1.4
1.40002
1.40001
1.39998
1.40001
1.40001
1.40002
1.39998
1.40001
1.39999
1.40005
1.39998
1.4
1.4
1.40002
1.4
1.40001
1.4
1.40002
1.4
1.4
1.40001
1.40001
1.4
1.4
1.40001
1.4
1.4
1.4
1.40001
1.40001
1.40002
1.40004
1.40009
1.40017
1.4003
1.40044
1.4006
1.4009
1.40198
1.40521
1.41252
1.42512
1.44106
1.45525
1.46292
1.46177
1.45059
1.4289
1.39914
1.36802
1.34405
1.33205
1.33298
1.34671
1.37068
1.40126
1.43379
1.46152
1.47799
1.48006
1.47009
1.45409
1.43782
1.42447
1.41472
1.40822
1.40415
1.40179
1.40054
1.39992
1.39971
1.39964
1.3997
1.39976
1.39982
1.39988
1.39992
1.39995
1.39997
1.39998
1.39999
1.4
1.4
1.4
1.4
1.40001
1.4
1.40001
1.4
1.40001
1.4
1.40001
1.39999
1.40002
1.39999
1.40001
1.40001
1.39999
1.40001
1.40001
1.40001
1.39998
1.40002
1.40001
1.40001
1.39998
1.40001
1.40001
1.40003
1.39999
1.39998
1.40002
1.40001
1.40001
1.39999
1.40001
1.40001
1.4
1.4
1.40001
1.40001
1.4
1.40001
1.4
1.40001
1.40001
1.4
1.4
1.40001
1.40001
1.40002
1.40005
1.40011
1.40022
1.40037
1.40055
1.40075
1.40123
1.4029
1.40757
1.41745
1.43297
1.44995
1.46149
1.46318
1.454
1.43333
1.40145
1.36288
1.32682
1.30246
1.29241
1.29634
1.31418
1.3423
1.37674
1.41371
1.44742
1.47092
1.47947
1.47373
1.45921
1.44255
1.42803
1.41713
1.40974
1.40503
1.4023
1.40076
1.40007
1.39975
1.39968
1.39969
1.39973
1.3998
1.39987
1.39991
1.39994
1.39996
1.39998
1.39999
1.39999
1.4
1.4
1.4
1.4
1.4
1.40001
1.4
1.40001
1.4
1.4
1.40001
1.40001
1.39999
1.40002
1.39998
1.40002
1.4
1.40001
1.39999
1.40001
1.40002
1.39998
1.40002
1.39998
1.40003
1.4
1.40001
1.39997
1.40003
1.40001
1.4
1.4
1.40001
1.40001
1.40001
1.4
1.40002
1.4
1.4
1.40001
1.40002
1.40001
1.39999
1.40001
1.40001
1.40001
1.40001
1.40001
1.40003
1.40007
1.40014
1.40028
1.40047
1.40067
1.40093
1.40168
1.40418
1.41069
1.4235
1.44146
1.45764
1.46414
1.45817
1.44028
1.41019
1.36902
1.3236
1.28512
1.26224
1.25458
1.26177
1.28428
1.31678
1.35455
1.39464
1.43262
1.46192
1.47659
1.4755
1.4633
1.44684
1.43148
1.41961
1.41129
1.40602
1.40283
1.40108
1.4002
1.39981
1.39971
1.39967
1.39973
1.39981
1.39986
1.39989
1.39993
1.39996
1.39998
1.39999
1.39999
1.4
1.4
1.4
1.4
1.40001
1.4
1.40001
1.4
1.40001
1.4
1.40002
1.39999
1.40002
1.39999
1.40001
1.40001
1.39999
1.40001
1.4
1.40002
1.39998
1.40002
1.4
1.40002
1.4
1.4
1.4
1.40002
1.40001
1.39999
1.40001
1.4
1.40002
1.39999
1.40002
1.4
1.40001
1.40001
1.4
1.4
1.39999
1.40001
1.40001
1.4
1.40001
1.4
1.40001
1.40003
1.40004
1.40008
1.40019
1.40035
1.40057
1.4008
1.40117
1.40231
1.40591
1.4147
1.43056
1.44987
1.46293
1.46238
1.44807
1.42175
1.38296
1.33378
1.28304
1.24342
1.22215
1.21615
1.22677
1.25486
1.29233
1.33351
1.3762
1.41736
1.45142
1.47176
1.47561
1.46632
1.45064
1.43483
1.42203
1.41294
1.40704
1.40344
1.40146
1.40035
1.3999
1.39969
1.39969
1.39976
1.39979
1.39983
1.39989
1.39993
1.39995
1.39997
1.39998
1.39999
1.4
1.4
1.4
1.4
1.4
1.4
1.40001
1.4
1.40001
1.40001
1.4
1.40001
1.40001
1.39999
1.40002
1.39999
1.40001
1.4
1.40001
1.4
1.4
1.40003
1.39998
1.40003
1.39998
1.40003
1.39999
1.40001
1.4
1.4
1.40002
1.39999
1.40002
1.4
1.4
1.40001
1.4
1.40003
1.39999
1.40001
1.40001
1.39999
1.4
1.4
1.4
1.40001
1.40001
1.40002
1.40004
1.40012
1.40024
1.40043
1.40068
1.40095
1.40147
1.40318
1.40821
1.41966
1.43832
1.45725
1.46489
1.45613
1.4338
1.39991
1.35329
1.29685
1.24102
1.19992
1.17927
1.17424
1.18926
1.22431
1.26769
1.31266
1.35772
1.40142
1.43945
1.46505
1.47406
1.46824
1.45399
1.43803
1.42451
1.41468
1.40808
1.40413
1.40178
1.40058
1.39999
1.39976
1.39974
1.39972
1.39976
1.39984
1.39989
1.39992
1.39995
1.39996
1.39998
1.39999
1.4
1.4
1.4
1.4
1.4
1.40001
1.4
1.40001
1.4
1.40001
1.4
1.40002
1.39999
1.40002
1.39999
1.40001
1.40001
1.4
1.40001
1.4
1.40002
1.39998
1.40002
1.39999
1.40002
1.39999
1.40001
1.40001
1.40001
1.4
1.4
1.40003
1.39998
1.40002
1.39998
1.40004
1.39999
1.39998
1.40002
1.4
1.40002
1.40001
1.39999
1.40001
1.40001
1.40001
1.40001
1.40002
1.40007
1.40016
1.4003
1.40053
1.4008
1.40112
1.40188
1.40435
1.41117
1.42556
1.44625
1.46266
1.46304
1.44598
1.41663
1.3761
1.3221
1.25803
1.19589
1.15215
1.1311
1.12724
1.14849
1.19219
1.24285
1.29226
1.33951
1.38506
1.42619
1.45659
1.4709
1.46908
1.45675
1.44107
1.42706
1.41644
1.40931
1.40481
1.40219
1.40084
1.40012
1.39986
1.39971
1.39972
1.39979
1.39984
1.39988
1.39991
1.39994
1.39996
1.39998
1.39999
1.39999
1.4
1.4
1.4
1.4
1.4
1.40001
1.40001
1.4
1.4
1.40001
1.4
1.40001
1.40001
1.4
1.40002
1.4
1.40001
1.40001
1.4
1.40001
1.39999
1.40003
1.39998
1.40002
1.39999
1.40002
1.4
1.39999
1.40003
1.39999
1.40003
1.39997
1.40003
1.40001
1.39999
1.40003
1.39998
1.40002
1.40001
1.39998
1.40001
1.40003
1.40001
1.4
1.40001
1.40002
1.40004
1.40009
1.40019
1.40037
1.40063
1.40092
1.40132
1.40243
1.4059
1.41489
1.43225
1.45364
1.46537
1.45755
1.43296
1.39783
1.35126
1.28952
1.2162
1.14576
1.09838
1.07613
1.07434
1.1037
1.15772
1.21748
1.27265
1.32243
1.36919
1.41234
1.44678
1.46623
1.46877
1.45892
1.44399
1.42957
1.41835
1.4106
1.4056
1.40274
1.40108
1.40029
1.39989
1.39975
1.39978
1.39979
1.39982
1.39986
1.39991
1.39994
1.39996
1.39997
1.39998
1.39999
1.4
1.4
1.4
1.4
1.4
1.40001
1.4
1.40001
1.4
1.40001
1.4
1.40002
1.39999
1.40002
1.39999
1.40001
1.40001
1.4
1.40001
1.4
1.40002
1.39999
1.40001
1.39999
1.40003
1.39999
1.40001
1.40001
1.40001
1.4
1.39998
1.40005
1.39997
1.40004
1.39996
1.40003
1.40003
1.39998
1.40002
1.4
1.4
1.4
1.4
1.40001
1.40002
1.40002
1.40004
1.40011
1.40024
1.40045
1.40072
1.40105
1.40158
1.40318
1.40793
1.41942
1.4394
1.45975
1.46505
1.44905
1.41823
1.37838
1.32584
1.25513
1.17018
1.08981
1.03781
1.01312
1.01421
1.05285
1.11867
1.18998
1.25309
1.30656
1.35452
1.39882
1.43626
1.46026
1.46734
1.46053
1.4467
1.43217
1.42036
1.41192
1.40657
1.40326
1.40141
1.40046
1.39998
1.39986
1.39978
1.39977
1.39982
1.39988
1.39992
1.39994
1.39995
1.39997
1.39998
1.39999
1.4
1.4
1.4
1.4
1.4
1.4
1.4
1.40001
1.40001
1.4
1.40001
1.4
1.40001
1.4
1.4
1.40001
1.4
1.4
1.40001
1.4
1.40001
1.39999
1.40003
1.39999
1.40001
1.4
1.40001
1.40002
1.39996
1.40005
1.39998
1.40003
1.39998
1.4
1.40003
1.39997
1.40002
1.4
1.4
1.40002
1.40001
1.4
1.4
1.40001
1.40001
1.40003
1.40007
1.40015
1.40029
1.40052
1.40082
1.40118
1.40193
1.40419
1.41051
1.4247
1.44655
1.46399
1.46187
1.43847
1.40281
1.35893
1.29995
1.21847
1.11978
1.02849
0.96989
0.940866
0.945426
0.993837
1.07284
1.15855
1.23223
1.29104
1.34093
1.38618
1.42565
1.45342
1.46498
1.4615
1.44917
1.43483
1.42246
1.41349
1.40753
1.40386
1.40181
1.40065
1.40015
1.39988
1.39977
1.3998
1.39985
1.39988
1.3999
1.39993
1.39995
1.39997
1.39998
1.39999
1.39999
1.4
1.4
1.4
1.4
1.4
1.40001
1.4
1.40001
1.4
1.40001
1.4
1.40002
1.39999
1.40002
1.4
1.40001
1.4
1.40001
1.40001
1.4
1.40001
1.4
1.40001
1.39999
1.40003
1.39998
1.40001
1.40001
1.40001
1.40001
1.39997
1.40005
1.39997
1.40002
1.40001
1.39999
1.40001
1.4
1.4
1.4
1.40002
1.40002
1.4
1.40001
1.40004
1.40009
1.40018
1.40035
1.4006
1.40091
1.40135
1.40241
1.40552
1.41371
1.43062
1.45315
1.46605
1.45636
1.42679
1.38746
1.33989
1.27369
1.17977
1.06618
0.963063
0.894657
0.860033
0.868878
0.927275
1.02076
1.12303
1.20944
1.27516
1.328
1.37446
1.41532
1.44615
1.46182
1.46181
1.45141
1.43747
1.42477
1.41517
1.40862
1.40461
1.40221
1.40095
1.40027
1.39991
1.39985
1.39985
1.39984
1.39986
1.3999
1.39993
1.39996
1.39997
1.39998
1.39999
1.39999
1.4
1.4
1.4
1.4
1.40001
1.4
1.40001
1.4
1.40001
1.4
1.40001
1.4
1.40001
1.40001
1.4
1.40001
1.4
1.4
1.40001
1.4
1.40002
1.39999
1.40002
1.4
1.4
1.40001
1.39999
1.40004
1.39995
1.40005
1.39997
1.40002
1.40001
1.39999
1.40002
1.40002
1.4
1.4
1.40001
1.4
1.39999
1.4
1.40001
1.40003
1.40004
1.40009
1.40021
1.4004
1.40066
1.40101
1.40158
1.40306
1.40725
1.41753
1.43687
1.45869
1.46597
1.44928
1.41485
1.37274
1.32156
1.24744
1.14026
1.01177
0.895522
0.814781
0.775334
0.789393
0.857875
0.966174
1.08524
1.18528
1.25906
1.31559
1.36344
1.40545
1.43869
1.45794
1.46153
1.45339
1.44013
1.42719
1.41697
1.40994
1.40541
1.40274
1.40123
1.40038
1.40008
1.39992
1.39984
1.39984
1.39988
1.39991
1.39993
1.39995
1.39997
1.39998
1.39999
1.39999
1.4
1.4
1.4
1.4
1.4
1.4
1.40001
1.40001
1.4
1.4
1.40001
1.4
1.40001
1.4
1.40001
1.4
1.4
1.40001
1.4
1.40001
1.4
1.40001
1.4
1.40001
1.39999
1.40003
1.39999
1.40001
1.4
1.4
1.40002
1.39998
1.40003
1.40001
1.39999
1.4
1.40003
1.4
1.4
1.40002
1.4
1.4
1.40002
1.40003
1.40005
1.40012
1.40025
1.40044
1.40072
1.40112
1.4019
1.40395
1.4094
1.42193
1.4431
1.46281
1.46409
1.44143
1.4033
1.35898
1.30425
1.22211
1.10219
0.959655
0.82962
0.737105
0.695367
0.71506
0.793055
0.91413
1.0476
1.16091
1.24331
1.30375
1.35308
1.39611
1.4312
1.45356
1.46068
1.45505
1.44282
1.42976
1.41904
1.41135
1.40635
1.40333
1.40154
1.40067
1.40019
1.39993
1.39988
1.39988
1.39989
1.3999
1.39993
1.39995
1.39997
1.39998
1.39999
1.39999
1.4
1.4
1.4
1.4
1.4
1.40001
1.4
1.40001
1.4
1.40001
1.4
1.40001
1.40001
1.4
1.40001
1.4
1.40001
1.4
1.40001
1.40001
1.4
1.40001
1.4
1.40001
1.40001
1.4
1.40002
1.39999
1.40004
1.39996
1.40004
1.4
1.4
1.40001
1.40003
1.39998
1.39999
1.40002
1.4
1.4
1.40001
1.40001
1.40001
1.40002
1.40007
1.40015
1.40028
1.40048
1.40078
1.40127
1.40235
1.40512
1.41201
1.42677
1.44889
1.4654
1.46092
1.43349
1.39261
1.34644
1.28842
1.19911
1.06831
0.91357
0.771552
0.671175
0.629892
0.654872
0.74015
0.869073
1.01234
1.1372
1.2282
1.29262
1.34344
1.38728
1.42382
1.44889
1.45928
1.45634
1.44545
1.4325
1.42126
1.41296
1.40745
1.40398
1.40201
1.4009
1.40028
1.40005
1.39994
1.39988
1.39989
1.39991
1.39993
1.39995
1.39997
1.39998
1.39999
1.39999
1.4
1.4
1.4
1.4
1.4
1.4
1.4
1.4
1.40001
1.4
1.4
1.40001
1.4
1.40001
1.40001
1.4
1.40001
1.4
1.40001
1.4
1.40001
1.4
1.4
1.4
1.40001
1.39999
1.40002
1.4
1.40001
1.40001
1.39999
1.40001
1.40001
1.4
1.4
1.40003
1.39999
1.4
1.40001
1.4
1.4
1.40001
1.40001
1.40003
1.40007
1.40015
1.40029
1.40051
1.40084
1.40148
1.40298
1.4066
1.41504
1.43181
1.45388
1.46652
1.457
1.42604
1.38313
1.33531
1.27458
1.18001
1.04136
0.877823
0.728416
0.625342
0.586452
0.615526
0.703797
0.834126
0.981598
1.11485
1.21361
1.28213
1.3345
1.37895
1.41659
1.44395
1.45739
1.45724
1.44794
1.43533
1.4237
1.41482
1.40867
1.4048
1.40249
1.40116
1.4005
1.40014
1.39996
1.39992
1.39992
1.39992
1.39994
1.39995
1.39997
1.39998
1.39999
1.39999
1.4
1.4
1.4
1.4
1.4
1.4
1.40001
1.4
1.40001
1.4
1.40001
1.4
1.4
1.40001
1.4
1.40001
1.4
1.40001
1.4
1.40001
1.4
1.40001
1.4
1.40001
1.4
1.40001
1.39999
1.40002
1.39999
1.40002
1.4
1.40001
1.4
1.40002
1.39998
1.40001
1.40002
1.4
1.40001
1.40001
1.4
1.4
1.40002
1.40004
1.40008
1.40015
1.4003
1.40053
1.40092
1.4018
1.40383
1.40838
1.41837
1.43674
1.45787
1.46641
1.45278
1.41947
1.37511
1.32577
1.26323
1.16602
1.02365
0.856351
0.705161
0.60339
0.567434
0.598203
0.684319
0.810425
0.95695
1.09456
1.19955
1.27209
1.32603
1.37107
1.40954
1.43876
1.45507
1.45772
1.45026
1.43828
1.42639
1.41683
1.4101
1.40574
1.40306
1.40153
1.40068
1.40023
1.40005
1.39996
1.39992
1.39993
1.39994
1.39996
1.39997
1.39998
1.39999
1.39999
1.4
1.4
1.4
1.4
1.4
1.4
1.4
1.40001
1.4
1.40001
1.4
1.40001
1.4
1.40001
1.4
1.40001
1.4
1.40001
1.4
1.40001
1.4
1.40001
1.40001
1.4
1.40001
1.40001
1.4
1.40001
1.40001
1.4
1.40001
1.40001
1.39999
1.40001
1.40002
1.39999
1.4
1.40001
1.4
1.40001
1.40001
1.40001
1.40001
1.40004
1.40007
1.40015
1.4003
1.40056
1.40105
1.40224
1.4049
1.41044
1.42185
1.44128
1.46079
1.46538
1.44858
1.41403
1.36882
1.31806
1.25458
1.15772
1.01646
0.851066
0.702482
0.603466
0.569022
0.598325
0.678362
0.796621
0.938308
1.07675
1.18627
1.26238
1.31781
1.3635
1.40264
1.43342
1.45231
1.45777
1.45238
1.44126
1.42923
1.41911
1.41175
1.40681
1.40374
1.40194
1.40092
1.4004
1.40012
1.39999
1.39996
1.39995
1.39995
1.39996
1.39997
1.39998
1.39999
1.39999
1.4
1.4
1.4
1.4
1.4
1.4
1.4
1.4
1.40001
1.4
1.40001
1.4
1.40001
1.4
1.40001
1.4
1.40001
1.4
1.40001
1.4
1.4
1.40001
1.4
1.4
1.40001
1.4
1.40001
1.4
1.40001
1.40001
1.4
1.4
1.40002
1.39999
1.40001
1.40002
1.4
1.4
1.4
1.4
1.40001
1.40001
1.40001
1.40003
1.40006
1.40013
1.4003
1.40062
1.40124
1.40279
1.40619
1.41271
1.42527
1.44515
1.46273
1.46376
1.44458
1.40976
1.36444
1.31246
1.24865
1.15476
1.01938
0.860781
0.717096
0.619842
0.584303
0.60974
0.681945
0.790291
0.924436
1.0612
1.17378
1.25303
1.30977
1.35598
1.39578
1.42792
1.4491
1.45735
1.4542
1.44418
1.43225
1.42164
1.41359
1.40807
1.40456
1.40244
1.40123
1.40056
1.40021
1.40006
1.39999
1.39996
1.39996
1.39997
1.39997
1.39998
1.39999
1.39999
1.4
1.4
1.4
1.4
1.4
1.4
1.4
1.4
1.4
1.4
1.40001
1.4
1.40001
1.4
1.40001
1.4
1.40001
1.4
1.40001
1.4
1.40001
1.4
1.4
1.40001
1.4
1.40001
1.4
1.40001
1.4
1.40001
1.40001
1.4
1.40001
1.40001
1.39999
1.40001
1.40001
1.4
1.40001
1.4
1.4
1.40001
1.39999
1.40002
1.40006
1.4001
1.40029
1.40073
1.4015
1.40342
1.40764
1.41512
1.42844
1.44818
1.46386
1.46192
1.44088
1.40653
1.36209
1.30936
1.24542
1.15604
1.03014
0.881668
0.743815
0.646885
0.608592
0.629254
0.693219
0.7903
0.914639
1.04752
1.16176
1.24396
1.30194
1.34843
1.3888
1.4222
1.44549
1.4564
1.45565
1.44704
1.4354
1.42439
1.41568
1.40953
1.4055
1.40302
1.40158
1.40076
1.40034
1.40012
1.40002
1.39999
1.39997
1.39997
1.39998
1.39999
1.39999
1.4
1.4
1.4
1.4
1.4
1.4
1.4
1.4
1.4
1.4
1.40001
1.4
1.40001
1.4
1.40001
1.4
1.40001
1.4
1.40001
1.4
1.40001
1.40001
1.4
1.40001
1.40001
1.4
1.40001
1.4
1.40001
1.4
1.4
1.40001
1.4
1.4
1.40002
1.4
1.4
1.40001
1.4
1.40001
1.4
1.39999
1.40001
1.39998
1.39999
1.40006
1.40007
1.40026
1.40088
1.40186
1.4041
1.40915
1.41759
1.43122
1.45026
1.46433
1.46024
1.43767
1.40404
1.36155
1.30915
1.24515
1.16043
1.04545
0.908949
0.777977
0.681782
0.641011
0.656749
0.712314
0.797156
0.9094
1.03582
1.15006
1.23489
1.29426
1.34091
1.38161
1.41614
1.44145
1.45496
1.45669
1.44972
1.43864
1.42736
1.41802
1.41118
1.4066
1.40373
1.402
1.40102
1.40048
1.4002
1.40007
1.40001
1.39999
1.39998
1.39999
1.39999
1.39999
1.4
1.4
1.4
1.4
1.4
1.4
1.4
1.4
1.40001
1.4
1.40001
1.40001
1.4
1.40001
1.4
1.40001
1.4
1.40001
1.4
1.4
1.40001
1.4
1.40001
1.40001
1.4
1.40001
1.4
1.40001
1.4
1.40001
1.4
1.4
1.40001
1.4
1.4
1.40001
1.4
1.40001
1.4
1.4
1.40001
1.39998
1.40001
1.39998
1.39994
1.40006
1.40008
1.40021
1.40103
1.40232
1.40482
1.41058
1.41998
1.43362
1.45144
1.46422
1.45904
1.4353
1.40209
1.36223
1.31187
1.24851
1.16765
1.06293
0.938925
0.816609
0.723613
0.681726
0.692376
0.739285
0.811492
0.909675
1.02672
1.13888
1.22565