/*--------------------------------*- C++ -*----------------------------------*\
  =========                 |
  \\      /  F ield         | OpenFOAM: The Open Source CFD Toolbox
   \\    /   O peration     | Website:  https://openfoam.org
    \\  /    A nd           | Version:  6
     \\/     M anipulation  |
\*---------------------------------------------------------------------------*/
FoamFile
{
    version     2.0;
    format      ascii;
    class       volScalarField;
    location    "3.58";
    object      mag(U);
}
// * * * * * * * * * * * * * * * * * * * * * * * * * * * * * * * * * * * * * //

dimensions      [0 1 -1 0 0 0 0];

internalField   nonuniform List<scalar> 
10000
(
0.99997
0.99997
0.99997
0.99997
0.99997
0.99997
0.99997
0.99997
0.99997
0.99997
0.99997
0.99997
0.99997
0.99997
0.99997
0.99997
0.99997
0.99997
0.99997
0.99997
0.99997
0.99997
0.99997
0.99997
0.99997
0.99997
0.99997
0.99997
0.99997
0.99997
0.99997
0.99997
0.99997
0.99997
0.99997
0.99997
0.99997
0.99997
0.99997
0.99997
0.99997
0.99997
0.99997
0.99997
0.999971
0.999971
0.999973
0.999974
0.999975
0.999977
0.999978
0.999978
0.999976
0.999973
0.999968
0.99996
0.99995
0.999941
0.999931
0.999922
0.999917
0.999915
0.999918
0.999926
0.999939
0.999956
0.999975
0.999997
1.00002
1.00004
1.00005
1.00006
1.00007
1.00007
1.00007
1.00006
1.00005
1.00004
1.00003
1.00002
1.00001
0.999997
0.999989
0.999983
0.999979
0.999975
0.999973
0.999971
0.99997
0.99997
0.99997
0.99997
0.99997
0.99997
0.99997
0.99997
0.99997
0.99997
0.99997
0.99997
0.99997
0.99997
0.99997
0.99997
0.99997
0.99997
0.99997
0.99997
0.99997
0.99997
0.99997
0.99997
0.99997
0.99997
0.99997
0.99997
0.99997
0.99997
0.99997
0.99997
0.99997
0.99997
0.99997
0.99997
0.99997
0.99997
0.99997
0.99997
0.99997
0.99997
0.99997
0.99997
0.99997
0.99997
0.99997
0.99997
0.99997
0.99997
0.99997
0.99997
0.99997
0.99997
0.99997
0.99997
0.999971
0.999973
0.999975
0.999976
0.999979
0.999981
0.999982
0.999983
0.999981
0.999976
0.999969
0.999959
0.999948
0.999936
0.999924
0.999915
0.99991
0.99991
0.999918
0.999931
0.999951
0.999975
1
1.00003
1.00006
1.00008
1.0001
1.00012
1.00012
1.00012
1.00011
1.0001
1.00009
1.00007
1.00005
1.00004
1.00002
1.00001
0.999996
0.999987
0.999982
0.999977
0.999974
0.999971
0.99997
0.999969
0.999969
0.99997
0.99997
0.99997
0.99997
0.99997
0.99997
0.99997
0.99997
0.99997
0.99997
0.99997
0.99997
0.99997
0.99997
0.99997
0.99997
0.99997
0.99997
0.99997
0.99997
0.99997
0.99997
0.99997
0.99997
0.99997
0.99997
0.99997
0.99997
0.99997
0.99997
0.99997
0.99997
0.99997
0.99997
0.99997
0.99997
0.99997
0.99997
0.99997
0.99997
0.99997
0.99997
0.99997
0.99997
0.99997
0.99997
0.99997
0.99997
0.999969
0.999969
0.99997
0.99997
0.999971
0.999973
0.999974
0.999976
0.999979
0.999983
0.999986
0.999988
0.999989
0.999986
0.999981
0.999972
0.999961
0.999947
0.999933
0.999921
0.999912
0.99991
0.999917
0.999932
0.999955
0.999985
1.00002
1.00006
1.0001
1.00014
1.00016
1.00019
1.0002
1.0002
1.0002
1.00018
1.00016
1.00014
1.00011
1.00009
1.00006
1.00004
1.00002
1.00001
0.999995
0.999985
0.999979
0.999975
0.999972
0.99997
0.99997
0.999969
0.999969
0.999969
0.99997
0.99997
0.99997
0.99997
0.99997
0.99997
0.99997
0.99997
0.99997
0.99997
0.99997
0.99997
0.99997
0.99997
0.99997
0.99997
0.99997
0.99997
0.99997
0.99997
0.99997
0.99997
0.99997
0.99997
0.99997
0.99997
0.99997
0.99997
0.99997
0.99997
0.99997
0.99997
0.99997
0.99997
0.99997
0.99997
0.99997
0.99997
0.99997
0.99997
0.99997
0.99997
0.99997
0.99997
0.99997
0.999969
0.999969
0.99997
0.99997
0.99997
0.999971
0.999974
0.999976
0.999979
0.999983
0.999989
0.999993
0.999996
0.999997
0.999995
0.999989
0.999978
0.999964
0.999948
0.999934
0.999924
0.99992
0.999925
0.999942
0.999971
1.00001
1.00006
1.00011
1.00017
1.00022
1.00027
1.0003
1.00032
1.00033
1.00033
1.00031
1.00028
1.00025
1.00021
1.00017
1.00014
1.0001
1.00007
1.00004
1.00002
1
0.999991
0.999982
0.999976
0.999973
0.99997
0.99997
0.999969
0.999969
0.999969
0.999969
0.99997
0.99997
0.99997
0.99997
0.99997
0.99997
0.99997
0.99997
0.99997
0.99997
0.99997
0.99997
0.99997
0.99997
0.99997
0.99997
0.99997
0.99997
0.99997
0.99997
0.99997
0.99997
0.99997
0.99997
0.99997
0.99997
0.99997
0.99997
0.99997
0.99997
0.99997
0.99997
0.99997
0.99997
0.99997
0.99997
0.99997
0.99997
0.99997
0.99997
0.99997
0.99997
0.99997
0.999969
0.999969
0.99997
0.99997
0.99997
0.99997
0.999971
0.999975
0.999978
0.999983
0.999989
0.999996
1
1.00001
1.00001
1.00001
0.999998
0.999986
0.99997
0.999955
0.999943
0.999937
0.999944
0.999965
1
1.00005
1.00012
1.0002
1.00028
1.00035
1.00043
1.00048
1.00052
1.00054
1.00054
1.00052
1.00049
1.00044
1.00038
1.00032
1.00026
1.0002
1.00015
1.00011
1.00007
1.00004
1.00001
0.999997
0.999985
0.999977
0.999973
0.99997
0.999968
0.999968
0.999968
0.999968
0.999968
0.999969
0.99997
0.99997
0.99997
0.99997
0.99997
0.99997
0.99997
0.99997
0.99997
0.99997
0.99997
0.99997
0.99997
0.99997
0.99997
0.99997
0.99997
0.99997
0.99997
0.99997
0.99997
0.99997
0.99997
0.99997
0.99997
0.99997
0.99997
0.99997
0.99997
0.99997
0.99997
0.99997
0.99997
0.99997
0.99997
0.99997
0.99997
0.99997
0.99997
0.99997
0.99997
0.999969
0.999969
0.99997
0.999969
0.99997
0.99997
0.99997
0.999972
0.999976
0.999981
0.999988
0.999997
1.00001
1.00001
1.00002
1.00002
1.00002
1.00001
0.999995
0.999979
0.999966
0.999962
0.999969
0.999995
1.00004
1.00011
1.0002
1.00031
1.00043
1.00055
1.00066
1.00076
1.00083
1.00088
1.00089
1.00087
1.00082
1.00076
1.00067
1.00058
1.00048
1.00039
1.0003
1.00023
1.00016
1.00011
1.00006
1.00003
1.00001
0.999989
0.999979
0.999973
0.999969
0.999967
0.999967
0.999967
0.999968
0.999968
0.999968
0.999968
0.99997
0.99997
0.99997
0.99997
0.99997
0.99997
0.99997
0.99997
0.99997
0.99997
0.99997
0.99997
0.99997
0.99997
0.99997
0.99997
0.99997
0.99997
0.99997
0.99997
0.99997
0.99997
0.99997
0.99997
0.99997
0.99997
0.99997
0.99997
0.99997
0.99997
0.99997
0.99997
0.99997
0.99997
0.99997
0.99997
0.99997
0.99997
0.99997
0.99997
0.999969
0.999968
0.999969
0.999969
0.999969
0.999969
0.99997
0.999973
0.999978
0.999985
0.999994
1.00001
1.00002
1.00003
1.00003
1.00004
1.00003
1.00002
1.00001
0.999992
0.999986
0.999995
1.00003
1.00009
1.00018
1.0003
1.00045
1.00062
1.0008
1.00098
1.00115
1.00128
1.00138
1.00143
1.00143
1.00138
1.00129
1.00117
1.00103
1.00087
1.00072
1.00058
1.00045
1.00033
1.00023
1.00016
1.0001
1.00005
1.00002
0.999994
0.99998
0.999972
0.999967
0.999965
0.999965
0.999966
0.999966
0.999966
0.999968
0.999968
0.999968
0.99997
0.99997
0.99997
0.99997
0.99997
0.99997
0.99997
0.99997
0.99997
0.99997
0.99997
0.99997
0.99997
0.99997
0.99997
0.99997
0.99997
0.99997
0.99997
0.99997
0.99997
0.99997
0.99997
0.99997
0.99997
0.99997
0.99997
0.99997
0.99997
0.99997
0.99997
0.99997
0.99997
0.99997
0.99997
0.99997
0.99997
0.999969
0.999969
0.999969
0.999969
0.999968
0.999968
0.999968
0.999968
0.99997
0.999975
0.99998
0.999989
1
1.00002
1.00003
1.00004
1.00005
1.00005
1.00004
1.00003
1.00001
1.00001
1.00001
1.00005
1.00012
1.00023
1.00039
1.00059
1.00083
1.00109
1.00137
1.00163
1.00187
1.00207
1.0022
1.00226
1.00224
1.00214
1.00199
1.00179
1.00156
1.00132
1.00108
1.00086
1.00066
1.00049
1.00034
1.00023
1.00014
1.00008
1.00003
1
0.999982
0.99997
0.999964
0.999962
0.999962
0.999963
0.999965
0.999966
0.999966
0.999968
0.999968
0.999968
0.99997
0.99997
0.99997
0.99997
0.99997
0.99997
0.99997
0.99997
0.99997
0.99997
0.99997
0.99997
0.99997
0.99997
0.99997
0.99997
0.99997
0.99997
0.99997
0.99997
0.99997
0.99997
0.99997
0.99997
0.99997
0.99997
0.99997
0.99997
0.99997
0.99997
0.99997
0.99997
0.99997
0.99997
0.99997
0.99997
0.999969
0.999969
0.999969
0.999968
0.999967
0.999967
0.999967
0.999968
0.99997
0.999974
0.999982
0.999994
1.00001
1.00003
1.00004
1.00006
1.00006
1.00006
1.00005
1.00003
1.00002
1.00002
1.00005
1.00012
1.00025
1.00044
1.00069
1.001
1.00137
1.00176
1.00216
1.00255
1.0029
1.00318
1.00337
1.00345
1.00341
1.00326
1.00302
1.0027
1.00234
1.00197
1.0016
1.00127
1.00097
1.00071
1.0005
1.00034
1.00021
1.00012
1.00005
1.00001
0.999983
0.999968
0.99996
0.999958
0.999958
0.999959
0.999962
0.999964
0.999965
0.999967
0.999968
0.999968
0.999969
0.99997
0.99997
0.99997
0.99997
0.99997
0.99997
0.99997
0.99997
0.99997
0.99997
0.99997
0.99997
0.99997
0.99997
0.99997
0.99997
0.99997
0.99997
0.99997
0.99997
0.99997
0.99997
0.99997
0.99997
0.99997
0.99997
0.99997
0.99997
0.99997
0.99997
0.99997
0.99997
0.99997
0.99997
0.99997
0.999969
0.999969
0.999968
0.999967
0.999966
0.999966
0.999965
0.999966
0.999968
0.999975
0.999984
0.999999
1.00002
1.00004
1.00005
1.00007
1.00007
1.00006
1.00004
1.00001
0.999999
1.00002
1.00008
1.00021
1.00042
1.00072
1.0011
1.00156
1.00208
1.00264
1.00322
1.00377
1.00427
1.00467
1.00495
1.00508
1.00504
1.00483
1.00448
1.00402
1.00348
1.00292
1.00237
1.00187
1.00142
1.00104
1.00073
1.00049
1.00031
1.00018
1.00008
1.00002
0.999986
0.999965
0.999956
0.999952
0.999953
0.999956
0.999958
0.999961
0.999964
0.999966
0.999967
0.999968
0.999968
0.99997
0.99997
0.99997
0.99997
0.99997
0.99997
0.99997
0.99997
0.99997
0.99997
0.99997
0.99997
0.99997
0.99997
0.99997
0.99997
0.99997
0.99997
0.99997
0.99997
0.99997
0.99997
0.99997
0.99997
0.99997
0.99997
0.99997
0.99997
0.99997
0.99997
0.99997
0.99997
0.99997
0.99997
0.999969
0.999968
0.999969
0.999967
0.999966
0.999965
0.999963
0.999962
0.999963
0.999966
0.999974
0.999984
1
1.00002
1.00004
1.00006
1.00007
1.00005
1.00003
0.999992
0.999958
0.999947
0.999986
1.0001
1.00031
1.00062
1.00106
1.0016
1.00224
1.00295
1.00372
1.0045
1.00526
1.00596
1.00654
1.00697
1.00719
1.00718
1.00693
1.00647
1.00583
1.00508
1.00427
1.00348
1.00273
1.00208
1.00152
1.00107
1.00072
1.00045
1.00026
1.00013
1.00004
0.999992
0.999962
0.999949
0.999945
0.999945
0.999949
0.999953
0.999958
0.999961
0.999964
0.999966
0.999967
0.999968
0.999968
0.999969
0.99997
0.99997
0.99997
0.99997
0.99997
0.99997
0.99997
0.99997
0.99997
0.99997
0.99997
0.99997
0.99997
0.99997
0.99997
0.99997
0.99997
0.99997
0.99997
0.99997
0.99997
0.99997
0.99997
0.99997
0.99997
0.99997
0.99997
0.99997
0.99997
0.99997
0.99997
0.99997
0.999969
0.999968
0.999968
0.999966
0.999964
0.999963
0.99996
0.999959
0.999959
0.999962
0.999971
0.999984
1
1.00002
1.00004
1.00005
1.00004
1.00001
0.999958
0.999896
0.999845
0.999837
0.999905
1.00008
1.00038
1.00083
1.00141
1.00213
1.00296
1.00388
1.00487
1.00589
1.00689
1.00784
1.00867
1.00931
1.00972
1.00982
1.0096
1.00906
1.00825
1.00724
1.00614
1.00502
1.00396
1.00301
1.00221
1.00156
1.00105
1.00067
1.00039
1.0002
1.00008
1
0.999962
0.999941
0.999935
0.999936
0.999941
0.999947
0.999953
0.999957
0.999962
0.999964
0.999966
0.999967
0.999968
0.999968
0.99997
0.99997
0.99997
0.99997
0.99997
0.99997
0.99997
0.99997
0.99997
0.99997
0.99997
0.99997
0.99997
0.99997
0.99997
0.99997
0.99997
0.99997
0.99997
0.99997
0.99997
0.99997
0.99997
0.99997
0.99997
0.99997
0.99997
0.99997
0.99997
0.99997
0.999969
0.999969
0.999969
0.999968
0.999967
0.999965
0.999963
0.99996
0.999956
0.999954
0.999954
0.999957
0.999965
0.99998
0.999999
1.00002
1.00003
1.00002
0.999987
0.999917
0.999821
0.999717
0.99964
0.999633
0.999737
0.999982
1.00039
1.00097
1.0017
1.00257
1.00357
1.00468
1.00586
1.00711
1.00837
1.00961
1.01075
1.01173
1.01244
1.01279
1.01272
1.0122
1.01128
1.01004
1.0086
1.0071
1.00564
1.00432
1.00318
1.00225
1.00153
1.00098
1.00058
1.00031
1.00013
1.00003
0.999964
0.999934
0.999924
0.999925
0.999931
0.999939
0.999947
0.999953
0.999959
0.999962
0.999965
0.999967
0.999968
0.999968
0.999969
0.99997
0.99997
0.99997
0.99997
0.99997
0.99997
0.99997
0.99997
0.99997
0.99997
0.99997
0.99997
0.99997
0.99997
0.99997
0.99997
0.99997
0.99997
0.99997
0.99997
0.99997
0.99997
0.99997
0.99997
0.99997
0.99997
0.99997
0.99997
0.99997
0.999969
0.999969
0.999968
0.999967
0.999966
0.999963
0.99996
0.999956
0.999951
0.999948
0.999945
0.999948
0.999956
0.999971
0.999987
0.999998
0.999992
0.999955
0.999873
0.999744
0.999581
0.999417
0.999302
0.999292
0.999431
0.999747
1.00025
1.00092
1.00175
1.00271
1.00378
1.00497
1.00628
1.00769
1.00919
1.01074
1.01227
1.0137
1.01489
1.0157
1.016
1.01571
1.01483
1.01345
1.01171
1.00979
1.00787
1.00608
1.00452
1.00322
1.0022
1.00142
1.00086
1.00048
1.00022
1.00006
0.999975
0.99993
0.999913
0.999912
0.99992
0.999929
0.999939
0.999948
0.999954
0.999959
0.999963
0.999966
0.999967
0.999967
0.999968
0.999969
0.99997
0.99997
0.99997
0.99997
0.99997
0.99997
0.99997
0.99997
0.99997
0.99997
0.99997
0.99997
0.99997
0.99997
0.99997
0.99997
0.99997
0.99997
0.99997
0.99997
0.99997
0.99997
0.99997
0.99997
0.99997
0.99997
0.99997
0.999969
0.999969
0.999969
0.999968
0.999966
0.999964
0.999961
0.999956
0.999949
0.999943
0.999938
0.999934
0.999936
0.999942
0.999952
0.999961
0.999956
0.999918
0.99983
0.999674
0.999453
0.999194
0.998946
0.998781
0.998761
0.998924
0.999284
0.999822
1.0005
1.00129
1.00218
1.00315
1.00425
1.00551
1.00696
1.00862
1.01047
1.01246
1.01446
1.01634
1.01788
1.01888
1.01914
1.0186
1.01731
1.0154
1.01312
1.01071
1.00839
1.0063
1.00454
1.00313
1.00205
1.00126
1.00072
1.00035
1.00013
0.999997
0.99993
0.999903
0.999898
0.999906
0.999918
0.99993
0.999941
0.999949
0.999956
0.999961
0.999965
0.999966
0.999967
0.999968
0.999969
0.99997
0.99997
0.99997
0.99997
0.99997
0.99997
0.99997
0.99997
0.99997
0.99997
0.99997
0.99997
0.99997
0.99997
0.99997
0.99997
0.99997
0.99997
0.99997
0.99997
0.99997
0.99997
0.99997
0.99997
0.99997
0.99997
0.99997
0.999969
0.999969
0.999968
0.999967
0.999965
0.999962
0.999958
0.999951
0.999943
0.999934
0.999926
0.99992
0.999918
0.99992
0.999922
0.999917
0.99988
0.999791
0.999619
0.999353
0.999
0.998608
0.998253
0.998021
0.997974
0.998133
0.998471
0.998927
0.99944
0.999967
1.0005
1.00109
1.00182
1.00279
1.00409
1.00579
1.0079
1.01037
1.01308
1.01587
1.01846
1.02054
1.0218
1.02205
1.02122
1.01944
1.01698
1.01415
1.01127
1.00859
1.00627
1.00437
1.0029
1.00182
1.00106
1.00055
1.00023
1.00004
0.99994
0.999896
0.999885
0.99989
0.999904
0.99992
0.999932
0.999944
0.999952
0.999958
0.999962
0.999965
0.999966
0.999967
0.999968
0.99997
0.99997
0.99997
0.99997
0.99997
0.99997
0.99997
0.99997
0.99997
0.99997
0.99997
0.99997
0.99997
0.99997
0.99997
0.99997
0.99997
0.99997
0.99997
0.99997
0.99997
0.99997
0.99997
0.99997
0.99997
0.99997
0.99997
0.999969
0.999968
0.999968
0.999966
0.999964
0.999959
0.999953
0.999944
0.999934
0.999922
0.999909
0.9999
0.999893
0.999887
0.999877
0.999842
0.999756
0.999583
0.999289
0.998863
0.99833
0.997768
0.997284
0.99697
0.99687
0.996956
0.997139
0.997309
0.997372
0.997291
0.9971
0.996911
0.9969
0.997263
0.998175
0.999754
1.00205
1.00502
1.00857
1.01247
1.01642
1.02
1.02278
1.02438
1.02457
1.0234
1.02109
1.01805
1.0147
1.01141
1.00846
1.00599
1.00404
1.00258
1.00153
1.00083
1.00038
1.00011
0.999963
0.999895
0.999873
0.999875
0.99989
0.999907
0.999923
0.999937
0.999948
0.999955
0.99996
0.999964
0.999965
0.999967
0.999968
0.999969
0.99997
0.99997
0.99997
0.99997
0.99997
0.99997
0.99997
0.99997
0.99997
0.99997
0.99997
0.99997
0.99997
0.99997
0.99997
0.99997
0.99997
0.99997
0.99997
0.99997
0.99997
0.99997
0.99997
0.99997
0.99997
0.999969
0.999969
0.999968
0.999967
0.999965
0.999962
0.999956
0.999948
0.999936
0.999923
0.999907
0.99989
0.999874
0.99986
0.999841
0.999805
0.999726
0.999562
0.999265
0.998797
0.998152
0.997387
0.996623
0.995994
0.995582
0.995376
0.995266
0.995083
0.994656
0.993873
0.992724
0.991319
0.989874
0.988686
0.988079
0.98833
0.98963
0.992056
0.995576
1.00006
1.00527
1.01085
1.01633
1.02114
1.02469
1.02657
1.02663
1.02502
1.02214
1.01853
1.01472
1.01113
1.00802
1.0055
1.00357
1.00218
1.00122
1.0006
1.00022
1.00001
0.999904
0.999865
0.999861
0.999874
0.999894
0.999913
0.999929
0.999942
0.999952
0.999958
0.999962
0.999964
0.999966
0.999967
0.999969
0.99997
0.99997
0.99997
0.99997
0.99997
0.99997
0.99997
0.99997
0.99997
0.99997
0.99997
0.99997
0.99997
0.99997
0.99997
0.99997
0.99997
0.99997
0.99997
0.99997
0.99997
0.99997
0.99997
0.99997
0.99997
0.999969
0.999969
0.999968
0.999967
0.999963
0.99996
0.999952
0.999941
0.999927
0.999909
0.999888
0.999865
0.999841
0.999814
0.999775
0.999701
0.999553
0.999275
0.998801
0.998093
0.997165
0.996123
0.99514
0.994363
0.993825
0.993419
0.992921
0.992064
0.990622
0.988487
0.985712
0.982516
0.979264
0.976418
0.974455
0.973785
0.974678
0.977232
0.98139
0.986971
0.99369
1.00116
1.00884
1.01609
1.02216
1.02639
1.0284
1.02815
1.02599
1.02251
1.01839
1.01423
1.01046
1.0073
1.00484
1.00301
1.00174
1.0009
1.00038
1.00008
0.999929
0.999864
0.999849
0.999859
0.999879
0.999902
0.99992
0.999936
0.999948
0.999956
0.999961
0.999963
0.999966
0.999967
0.999969
0.999969
0.99997
0.99997
0.99997
0.99997
0.99997
0.99997
0.99997
0.99997
0.99997
0.99997
0.99997
0.99997
0.99997
0.99997
0.99997
0.99997
0.99997
0.99997
0.99997
0.99997
0.99997
0.99997
0.99997
0.99997
0.99997
0.999968
0.999967
0.999966
0.999962
0.999957
0.999947
0.999934
0.999915
0.999892
0.999865
0.999834
0.999799
0.999755
0.999685
0.999553
0.999306
0.998864
0.99815
0.997128
0.995855
0.994509
0.993312
0.992393
0.991684
0.990929
0.989766
0.98783
0.984855
0.980768
0.975716
0.970075
0.964407
0.959381
0.955676
0.953859
0.954287
0.957062
0.962063
0.969009
0.977517
0.987126
0.997271
1.00725
1.01623
1.02338
1.02801
1.02985
1.02907
1.02625
1.02217
1.01764
1.01327
1.00946
1.00639
1.00407
1.00242
1.00131
1.00061
1.0002
0.999977
0.999875
0.999842
0.999846
0.999865
0.999889
0.999911
0.999929
0.999943
0.999953
0.999958
0.999962
0.999965
0.999967
0.999968
0.999969
0.99997
0.99997
0.99997
0.99997
0.99997
0.99997
0.99997
0.99997
0.99997
0.99997
0.99997
0.99997
0.99997
0.99997
0.99997
0.99997
0.99997
0.99997
0.99997
0.99997
0.99997
0.99997
0.99997
0.999969
0.999969
0.999969
0.999966
0.999965
0.99996
0.999953
0.999942
0.999925
0.999902
0.999873
0.999838
0.999797
0.999747
0.999677
0.999561
0.999349
0.998961
0.998297
0.997267
0.995854
0.994192
0.992546
0.991172
0.990118
0.989153
0.987833
0.985646
0.982135
0.97702
0.970286
0.96222
0.953399
0.944636
0.936875
0.931047
0.927915
0.927924
0.931156
0.93737
0.946111
0.956825
0.968921
0.981782
0.994701
1.00683
1.01722
1.02499
1.02956
1.03085
1.02931
1.02577
1.02116
1.01635
1.01192
1.00823
1.00536
1.00327
1.00184
1.00092
1.00036
1.00005
0.999902
0.999844
0.999836
0.999852
0.999877
0.999902
0.999922
0.999938
0.999949
0.999956
0.99996
0.999964
0.999966
0.999967
0.999969
0.99997
0.99997
0.99997
0.99997
0.99997
0.99997
0.99997
0.99997
0.99997
0.99997
0.99997
0.99997
0.99997
0.99997
0.99997
0.99997
0.99997
0.99997
0.99997
0.99997
0.99997
0.99997
0.99997
0.99997
0.999969
0.999968
0.999966
0.999964
0.999958
0.999949
0.999935
0.999914
0.999887
0.999851
0.999806
0.999753
0.999683
0.999577
0.999398
0.999074
0.998497
0.99754
0.99611
0.994242
0.992178
0.990281
0.988789
0.987593
0.986236
0.984065
0.980413
0.974748
0.966796
0.956631
0.944714
0.931881
0.919267
0.90817
0.899858
0.895329
0.895119
0.899237
0.907242
0.918412
0.931925
0.946993
0.962897
0.978932
0.994305
1.00807
1.01924
1.02698
1.03093
1.03129
1.02882
1.02455
1.01954
1.01462
1.01032
1.00687
1.0043
1.0025
1.00131
1.00058
1.00016
0.999948
0.999856
0.999832
0.999843
0.999866
0.999892
0.999915
0.999932
0.999945
0.999954
0.999959
0.999963
0.999966
0.999967
0.999969
0.999969
0.99997
0.99997
0.99997
0.99997
0.99997
0.99997
0.99997
0.99997
0.99997
0.99997
0.99997
0.99997
0.99997
0.99997
0.99997
0.99997
0.99997
0.99997
0.99997
0.99997
0.99997
0.99997
0.99997
0.999969
0.999967
0.999966
0.999962
0.999954
0.999945
0.999928
0.999903
0.99987
0.999827
0.999771
0.999701
0.999605
0.999451
0.999185
0.998711
0.997886
0.996557
0.994647
0.992286
0.98986
0.987805
0.98626
0.984882
0.98294
0.979558
0.973923
0.965444
0.953869
0.939389
0.922677
0.904893
0.887585
0.872525
0.861418
0.855553
0.855543
0.861236
0.871865
0.886312
0.903388
0.922033
0.941383
0.960729
0.979369
0.996471
1.01105
1.02216
1.02913
1.0319
1.03103
1.02756
1.02267
1.01744
1.01261
1.00859
1.00551
1.00329
1.0018
1.00087
1.00031
1.00002
0.999882
0.999836
0.999837
0.999857
0.999884
0.999907
0.999927
0.999942
0.999953
0.999957
0.999962
0.999966
0.999967
0.999969
0.999969
0.99997
0.99997
0.99997
0.99997
0.99997
0.99997
0.99997
0.99997
0.99997
0.99997
0.99997
0.99997
0.99997
0.99997
0.99997
0.99997
0.99997
0.99997
0.99997
0.99997
0.99997
0.99997
0.999969
0.999969
0.999967
0.999964
0.99996
0.999952
0.99994
0.999921
0.99989
0.999852
0.9998
0.99973
0.999641
0.999512
0.999294
0.998913
0.998247
0.997108
0.995325
0.992868
0.990021
0.987328
0.985238
0.983694
0.982043
0.979259
0.974238
0.966036
0.95401
0.937949
0.918174
0.895618
0.871836
0.848924
0.829279
0.81518
0.808279
0.809213
0.817526
0.831923
0.850708
0.872217
0.895075
0.91827
0.941093
0.962965
0.983234
1.00105
1.01544
1.02555
1.03104
1.0322
1.02996
1.02556
1.02025
1.01502
1.01047
1.00687
1.00421
1.00239
1.00122
1.00051
1.00012
0.999925
0.999849
0.999836
0.999851
0.999876
0.999901
0.999922
0.999938
0.999949
0.999956
0.999962
0.999965
0.999966
0.999969
0.999969
0.99997
0.99997
0.99997
0.99997
0.99997
0.99997
0.99997
0.99997
0.99997
0.99997
0.99997
0.99997
0.99997
0.99997
0.99997
0.99997
0.99997
0.99997
0.99997
0.99997
0.99997
0.99997
0.999969
0.999969
0.999966
0.999964
0.999959
0.999949
0.999934
0.999912
0.999876
0.999831
0.999772
0.999685
0.999571
0.9994
0.999102
0.998574
0.997663
0.996142
0.993825
0.990789
0.987521
0.984708
0.982714
0.981186
0.979115
0.975171
0.968034
0.956627
0.940272
0.918803
0.892691
0.86316
0.83226
0.802801
0.77802
0.760959
0.753701
0.756805
0.769261
0.78894
0.813324
0.840149
0.867728
0.894981
0.921276
0.946207
0.969344
0.990044
1.00742
1.02056
1.02884
1.03229
1.03161
1.02803
1.02291
1.01745
1.01245
1.00835
1.00525
1.00307
1.00164
1.00075
1.00025
0.999989
0.999875
0.999842
0.999849
0.999871
0.999896
0.999918
0.999935
0.999948
0.999954
0.999961
0.999965
0.999966
0.999968
0.999969
0.99997
0.99997
0.99997
0.99997
0.99997
0.99997
0.99997
0.99997
0.99997
0.99997
0.99997
0.99997
0.99997
0.99997
0.99997
0.99997
0.99997
0.99997
0.99997
0.99997
0.99997
0.99997
0.999969
0.999968
0.999966
0.999962
0.999958
0.999945
0.999928
0.999905
0.999862
0.99981
0.999741
0.999637
0.99949
0.999269
0.99887
0.998158
0.996949
0.994977
0.992066
0.988461
0.984895
0.98214
0.98035
0.978802
0.976114
0.970653
0.960884
0.945619
0.924148
0.896352
0.862844
0.825179
0.78602
0.749109
0.718811
0.699179
0.692793
0.699954
0.718697
0.745615
0.777033
0.809957
0.842462
0.873579
0.902944
0.93044
0.955913
0.978961
0.998852
1.01466
1.02559
1.03139
1.03249
1.03001
1.02533
1.01981
1.01448
1.00992
1.00639
1.00384
1.00212
1.00104
1.00041
1.00007
0.999914
0.999857
0.999852
0.999869
0.999892
0.999915
0.999932
0.999945
0.999954
0.99996
0.999964
0.999966
0.999968
0.999969
0.999969
0.99997
0.99997
0.99997
0.99997
0.99997
0.99997
0.99997
0.99997
0.99997
0.99997
0.99997
0.99997
0.99997
0.99997
0.99997
0.99997
0.99997
0.99997
0.99997
0.99997
0.999969
0.999969
0.999968
0.999966
0.99996
0.999956
0.999943
0.999922
0.999898
0.999849
0.999786
0.99971
0.999587
0.9994
0.999116
0.998598
0.997661
0.996095
0.993612
0.99008
0.985967
0.982272
0.979751
0.978233
0.976576
0.973035
0.965682
0.952779
0.933039
0.905731
0.870764
0.828878
0.781986
0.733496
0.688349
0.652407
0.631072
0.62751
0.641445
0.669354
0.705934
0.745945
0.785551
0.822729
0.856918
0.888328
0.91736
0.944238
0.968821
0.990534
1.00847
1.02171
1.02973
1.03268
1.03146
1.02743
1.02203
1.01648
1.01154
1.00759
1.00467
1.00266
1.00138
1.00061
1.00018
0.999967
0.99988
0.99986
0.99987
0.999891
0.999912
0.99993
0.999944
0.999952
0.999959
0.999964
0.999966
0.999968
0.999969
0.999969
0.99997
0.99997
0.99997
0.99997
0.99997
0.99997
0.99997
0.99997
0.99997
0.99997
0.99997
0.99997
0.99997
0.99997
0.99997
0.99997
0.99997
0.99997
0.99997
0.99997
0.99997
0.999969
0.999968
0.999966
0.999959
0.999955
0.999941
0.999915
0.99989
0.999838
0.999762
0.999678
0.999536
0.999298
0.998938
0.998284
0.997083
0.995103
0.992064
0.987922
0.983412
0.979769
0.977634
0.976411
0.974521
0.969876
0.960281
0.943807
0.919087
0.885375
0.84258
0.791536
0.734535
0.675855
0.621885
0.580426
0.558738
0.560747
0.585085
0.625749
0.674771
0.724965
0.771586
0.812706
0.848522
0.880232
0.909086
0.935877
0.960774
0.983336
1.00266
1.01769
1.02762
1.03233
1.03243
1.02918
1.02406
1.0184
1.01316
1.00882
1.00555
1.00325
1.00175
1.00083
1.00031
1.00003
0.999914
0.999875
0.999876
0.999891
0.999912
0.999929
0.999943
0.999953
0.999959
0.999963
0.999966
0.999968
0.999969
0.999969
0.99997
0.99997
0.99997
0.99997
0.99997
0.99997
0.99997
0.99997
0.99997
0.99997
0.99997
0.99997
0.99997
0.99997
0.99997
0.99997
0.99997
0.99997
0.99997
0.99997
0.99997
0.999968
0.999967
0.999966
0.999959
0.999952
0.99994
0.999908
0.999882
0.99983
0.999738
0.999646
0.999488
0.999189
0.998735
0.997932
0.996428
0.993976
0.990365
0.985674
0.980901
0.977475
0.975839
0.974903
0.972636
0.966658
0.954541
0.934195
0.90419
0.863766
0.812814
0.752238
0.684703
0.61536
0.552181
0.505373
0.48494
0.495965
0.535084
0.592463
0.656732
0.71857
0.77236
0.816413
0.851984
0.881676
0.908002
0.932613
0.956116
0.978204
0.99792
1.01402
1.02542
1.03164
1.03301
1.03061
1.02587
1.02021
1.01473
1.01007
1.00646
1.00388
1.00215
1.00108
1.00045
1.00012
0.999958
0.999897
0.999886
0.999895
0.999913
0.999929
0.999942
0.999952
0.999958
0.999963
0.999966
0.999968
0.999969
0.999969
0.99997
0.99997
0.99997
0.99997
0.99997
0.99997
0.99997
0.99997
0.99997
0.99997
0.99997
0.99997
0.99997
0.99997
0.99997
0.99997
0.99997
0.99997
0.99997
0.999969
0.99997
0.999969
0.999966
0.999966
0.999958
0.999949
0.999941
0.999903
0.999874
0.999827
0.999717
0.999611
0.999443
0.999075
0.998507
0.997542
0.995709
0.992734
0.988555
0.983421
0.978527
0.975443
0.974383
0.973707
0.97093
0.963441
0.948659
0.924348
0.889032
0.841969
0.783055
0.713262
0.635557
0.55574
0.483081
0.430622
0.412742
0.43652
0.49492
0.572581
0.6544
0.729089
0.790235
0.836382
0.869935
0.895179
0.916311
0.936225
0.956195
0.976123
0.994966
1.01123
1.02348
1.03086
1.03334
1.03175
1.02745
1.02188
1.01624
1.01129
1.00737
1.00452
1.00258
1.00135
1.00061
1.00021
1.00001
0.999924
0.999899
0.999903
0.999916
0.999931
0.999943
0.999953
0.999959
0.999963
0.999966
0.999968
0.999969
0.999969
0.99997
0.99997
0.99997
0.99997
0.99997
0.99997
0.99997
0.99997
0.99997
0.99997
0.99997
0.99997
0.99997
0.99997
0.99997
0.99997
0.99997
0.99997
0.99997
0.999969
0.99997
0.999969
0.999966
0.999967
0.999958
0.999946
0.999942
0.9999
0.999862
0.999827
0.999704
0.99957
0.999401
0.998966
0.998252
0.997117
0.994948
0.991406
0.986691
0.98125
0.976359
0.97369
0.973251
0.972822
0.969435
0.96035
0.942935
0.914843
0.874561
0.821441
0.755499
0.677851
0.591603
0.502555
0.420292
0.360738
0.345379
0.384954
0.466073
0.566286
0.667093
0.755594
0.82458
0.872621
0.903079
0.921962
0.935446
0.948086
0.962178
0.97801
0.994488
1.00982
1.02217
1.03022
1.03356
1.03269
1.02882
1.02338
1.01764
1.01245
1.00827
1.00516
1.00301
1.00163
1.00079
1.00032
1.00007
0.999959
0.999918
0.999913
0.999921
0.999933
0.999944
0.999954
0.99996
0.999963
0.999966
0.999968
0.999969
0.999969
0.99997
0.99997
0.99997
0.99997
0.99997
0.99997
0.99997
0.99997
0.99997
0.99997
0.99997
0.99997
0.99997
0.99997
0.99997
0.99997
0.99997
0.99997
0.99997
0.99997
0.99997
0.999969
0.999966
0.999966
0.999961
0.999941
0.999944
0.999904
0.99985
0.99983
0.999702
0.999527
0.999359
0.998869
0.997979
0.996662
0.994165
0.990041
0.98482
0.979215
0.974446
0.972206
0.972405
0.972244
0.96822
0.957565
0.93777
0.906412
0.861943
0.803962
0.732883
0.650137
0.5587
0.463341
0.372237
0.302929
0.287051
0.342803
0.447608
0.570953
0.691406
0.794543
0.872208
0.922702
0.949984
0.96155
0.965635
0.968804
0.974781
0.984533
0.997044
1.01024
1.02182
1.02997
1.03382
1.03351
1.03002
1.02473
1.01892
1.01355
1.00912
1.00578
1.00345
1.00191
1.00097
1.00043
1.00014
0.999999
0.999941
0.999925
0.999928
0.999937
0.999946
0.999956
0.999961
0.999964
0.999966
0.999968
0.999969
0.999969
0.99997
0.99997
0.99997
0.99997
0.99997
0.99997
0.99997
0.99997
0.99997
0.99997
0.99997
0.99997
0.99997
0.99997
0.99997
0.99997
0.99997
0.99997
0.99997
0.999969
0.99997
0.99997
0.999965
0.999965
0.999963
0.999939
0.999942
0.999912
0.999839
0.999829
0.999713
0.999487
0.99931
0.99879
0.997705
0.996174
0.993386
0.988693
0.982994
0.977352
0.972808
0.970976
0.971795
0.971968
0.967382
0.955321
0.933625
0.899869
0.852466
0.791487
0.718204
0.634624
0.543224
0.446729
0.350199
0.269412
0.245371
0.311808
0.437664
0.583135
0.723337
0.84178
0.929021
0.982908
1.0077
1.01198
1.00586
0.998062
0.994095
0.99597
1.00296
1.01278
1.02268
1.03031
1.03425
1.03427
1.03108
1.02591
1.02007
1.01455
1.00992
1.00638
1.00387
1.0022
1.00116
1.00055
1.00021
1.00004
0.999968
0.999941
0.999937
0.999942
0.999949
0.999958
0.999962
0.999965
0.999966
0.999968
0.999969
0.999969
0.99997
0.99997
0.99997
0.99997
0.99997
0.99997
0.99997
0.99997
0.99997
0.99997
0.99997
0.99997
0.99997
0.99997
0.99997
0.99997
0.99997
0.99997
0.99997
0.999969
0.999969
0.99997
0.999966
0.999963
0.999966
0.99994
0.999937
0.999926
0.999835
0.999822
0.99974
0.999458
0.99925
0.99873
0.997453
0.995668
0.992624
0.987427
0.981258
0.975659
0.971453
0.969991
0.971361
0.97198
0.967046
0.953885
0.93096
0.896009
0.84738
0.785876
0.714182
0.635113
0.550174
0.459397
0.364055
0.275077
0.234397
0.297493
0.436564
0.601
0.760268
0.894362
0.99175
1.04969
1.07276
1.07041
1.05414
1.03469
1.01956
1.01213
1.01225
1.01757
1.0249
1.03135
1.03497
1.03506
1.03203
1.02695
1.02108
1.01544
1.01064
1.00692
1.00426
1.00247
1.00134
1.00067
1.00029
1.00009
0.999998
0.999959
0.999948
0.999949
0.999953
0.999961
0.999963
0.999966
0.999967
0.999968
0.999969
0.999969
0.99997
0.99997
0.99997
0.99997
0.99997
0.99997
0.99997
0.99997
0.99997
0.99997
0.99997
0.99997
0.99997
0.99997
0.99997
0.99997
0.99997
0.99997
0.99997
0.99997
0.999968
0.99997
0.999966
0.999961
0.999968
0.999944
0.999931
0.99994
0.999842
0.999808
0.99977
0.999457
0.999178
0.99868
0.99725
0.99516
0.991884
0.986293
0.979665
0.974113
0.970359
0.969254
0.971051
0.972236
0.967328
0.953526
0.930171
0.89548
0.847719
0.78855
0.722557
0.653397
0.580979
0.50222
0.414793
0.32519
0.269416
0.3128
0.45015
0.626135
0.801846
0.951219
1.05877
1.12065
1.1422
1.13375
1.10787
1.07684
1.05003
1.03239
1.02463
1.02449
1.02849
1.03316
1.03602
1.03591
1.03289
1.02785
1.02195
1.0162
1.01126
1.00741
1.00461
1.00272
1.00151
1.00078
1.00036