/*--------------------------------*- C++ -*----------------------------------*\
  =========                 |
  \\      /  F ield         | OpenFOAM: The Open Source CFD Toolbox
   \\    /   O peration     | Website:  https://openfoam.org
    \\  /    A nd           | Version:  6
     \\/     M anipulation  |
\*---------------------------------------------------------------------------*/
FoamFile
{
    version     2.0;
    format      ascii;
    class       surfaceVectorField;
    location    "1.97";
    object      rhoUf;
}
// * * * * * * * * * * * * * * * * * * * * * * * * * * * * * * * * * * * * * //

dimensions      [1 -2 -1 0 0 0 0];

internalField   nonuniform List<vector> 
11670
(
(-0.00143 6.8367e-05 0.000915319)
(-0.00149407 0.000196101 0.000200462)
(-0.00224131 -7.33345e-05 0.000877981)
(-0.00141496 0.000535535 0.00122575)
(-5.73557e-17 2.74452e-18 1.91784e-17)
(-1.26747e-16 7.06793e-18 2.3716e-17)
(-6.27365e-17 6.20456e-19 8.49834e-18)
(-5.70526e-17 -1.8493e-18 2.93031e-17)
(-0.00147929 -0.00023388 -0.00112124)
(-0.00149383 -0.000160945 -0.000468145)
(-0.00231772 -0.000298978 -0.00105053)
(-0.00136122 1.83197e-05 -0.00133293)
(-8.60781e-05 -1.03014e-05 5.24992e-05)
(-8.56279e-05 -1.11241e-05 2.4804e-05)
(-0.000135385 -1.73851e-05 4.80492e-05)
(-8.34506e-05 -4.07731e-06 5.73505e-05)
(-2.99068e-17 1.9834e-18 -1.71012e-17)
(-3.36799e-17 4.0548e-18 -1.08922e-17)
(-5.17458e-17 6.48568e-18 -1.57051e-17)
(-3.38159e-17 8.24617e-18 -2.51829e-17)
(-1.6237e-10 -3.89354e-11 -1.12667e-10)
(-1.53611e-10 -3.68136e-11 -6.39472e-11)
(-2.52671e-10 -6.85765e-11 -9.03182e-11)
(-1.40955e-10 -3.93115e-11 -1.00238e-10)
(-6.87749e-16 -4.10758e-17 2.61607e-16)
(-1.40452e-15 1.78136e-17 3.21854e-16)
(-7.11492e-16 -6.94816e-17 1.15233e-16)
(-6.66279e-16 -2.70253e-17 3.54456e-16)
(-7.68208e-07 -2.34282e-07 5.1656e-07)
(-7.49879e-07 -2.15448e-07 2.66009e-07)
(-1.18185e-06 -3.81198e-07 4.02627e-07)
(-6.52086e-07 -2.12212e-07 4.36006e-07)
(-1.04513e-12 3.11834e-13 4.10509e-13)
(-1.06554e-12 2.84401e-13 1.388e-13)
(-1.81239e-12 4.81456e-13 3.22746e-13)
(-9.95711e-13 3.20689e-13 4.50199e-13)
(-8.95449e-13 1.65881e-13 5.45202e-13)
(-8.64447e-13 1.47023e-13 2.05269e-13)
(-1.40421e-12 2.61472e-13 4.5978e-13)
(-8.62154e-13 5.30332e-14 5.5385e-13)
(-8.40981e-15 -1.54756e-15 5.96532e-15)
(-7.7413e-15 -1.78938e-15 3.09099e-15)
(-1.32181e-14 -2.56374e-15 4.72664e-15)
(-7.7273e-15 -1.27292e-15 5.46229e-15)
(-0.000930809 -0.000524567 0.00016808)
(-0.000153594 -0.000316166 -5.40581e-06)
(-4.75793e-05 -0.000298048 0.000198237)
(-6.78413e-05 -0.000325259 0.000318155)
(-1.04348e-17 1.0505e-17 -5.20359e-18)
(-1.98106e-18 -5.11193e-19 -1.23294e-18)
(-3.54225e-18 1.80678e-18 -5.25008e-18)
(-2.72563e-18 2.06032e-18 -2.63972e-18)
(-3.93688e-18 6.49542e-19 4.87126e-18)
(-1.02633e-17 1.22743e-17 3.52288e-18)
(-3.1092e-18 2.18422e-18 4.69664e-18)
(-4.1153e-18 2.85432e-18 4.84617e-18)
(-0.00056876 -0.000340966 -0.000329026)
(-0.00131371 -0.000660367 -0.000356365)
(-0.000428734 -0.000456432 -0.000599858)
(-0.00029923 -0.000298895 -0.000487259)
(-6.58202e-19 2.33599e-19 -2.85857e-19)
(-2.43376e-18 1.95244e-18 -7.55909e-19)
(-7.5103e-19 6.02089e-19 -1.10717e-18)
(-5.86811e-19 9.65713e-19 -2.61921e-19)
(-0.00272912 0.0013645 -0.00180993)
(-0.0012384 0.00148381 -0.00010879)
(-0.000289444 0.00282437 -0.00214945)
(-0.000223326 0.00219428 -0.0027166)
(-0.00284744 -0.0013009 0.0013306)
(-0.00113055 -0.00160078 3.43672e-05)
(-3.31602e-05 -0.00236975 0.00216637)
(-4.10523e-05 -0.0024116 0.00146468)
(-2.77074e-18 -2.86818e-18 -1.37597e-18)
(-1.12395e-18 -8.58521e-19 -1.21656e-18)
(-2.0941e-20 -2.37377e-19 -2.0886e-18)
(-4.89435e-20 -2.47151e-19 -1.64786e-18)
(-4.72967e-20 3.65086e-19 8.80846e-19)
(-1.69595e-18 1.88009e-18 5.4906e-19)
(-1.85746e-19 3.98782e-19 7.98719e-19)
(-2.36255e-19 4.20286e-19 4.18317e-19)
(-0.00223648 -0.00124095 -0.000176515)
(-0.00402388 -0.000865881 -0.000796439)
(-0.00148299 -0.00212175 -0.00176523)
(-0.00117154 -0.00147603 -0.00256772)
(-2.78631e-19 -4.26575e-19 -1.26553e-20)
(2.89238e-19 -5.63433e-20 4.85323e-20)
(1.80781e-19 -3.02126e-19 1.04123e-19)
(1.57127e-19 -1.69187e-19 3.32306e-19)
(-0.00171744 0.000733429 -0.000541484)
(-0.00337465 0.00118585 -3.63574e-05)
(-0.000448494 0.00210224 0.00128506)
(-0.000600278 0.0023031 0.000497308)
(-0.000990173 0.000478488 -0.000259613)
(-0.000187934 0.000293656 4.31198e-05)
(-0.000133294 0.000413125 -0.000319181)
(-0.000102056 0.000379023 -0.000242407)
(4.48245e-20 -2.87188e-20 -4.6611e-19)
(-5.7154e-19 -4.67762e-19 -5.61241e-19)
(-1.41192e-19 -3.14631e-19 -4.02133e-19)
(-9.41719e-20 -2.35689e-19 -4.4486e-19)
(-3.74363e-18 -3.84393e-18 1.53324e-18)
(-1.07981e-18 -2.84159e-19 1.21338e-18)
(-9.56371e-19 -7.91521e-19 8.11819e-19)
(-1.42942e-18 -1.12553e-18 1.29984e-18)
(-0.00063325 0.000358358 0.000200405)
(-0.00148081 0.000678118 0.000138439)
(-0.000348308 0.00036565 0.000347533)
(-0.000518697 0.000553314 0.000458269)
(-2.8384e-17 1.79337e-17 -8.75159e-18)
(-5.91541e-17 6.73376e-17 -4.78499e-17)
(-1.31783e-17 1.89594e-17 -2.86542e-17)
(-1.12099e-17 2.15763e-17 -1.67534e-17)
(-4.33561e-05 -1.93674e-05 2.50323e-05)
(-0.000305235 -0.000215528 6.25777e-05)
(-4.08324e-05 -5.96291e-05 7.89019e-05)
(-4.70065e-05 -5.45978e-05 0.000103091)
(-1.07028e-16 7.42272e-17 7.90519e-18)
(-2.4121e-17 3.05085e-18 4.35158e-17)
(-2.58227e-17 2.12541e-17 3.42027e-17)
(-3.91872e-17 3.0595e-17 5.05114e-17)
(-3.99402e-06 -1.60657e-06 9.94915e-07)
(-3.66574e-05 -2.69485e-05 1.15421e-05)
(-5.12435e-06 -6.73572e-06 8.85016e-06)
(-5.98881e-06 -6.19814e-06 1.27988e-05)
(-3.54209e-16 6.48307e-17 -1.53556e-16)
(-5.42189e-16 8.45669e-16 -4.23137e-16)
(-1.57326e-16 1.10131e-16 -2.29713e-16)
(-1.37743e-16 1.70658e-16 -1.52652e-16)
(-1.46303e-15 9.44504e-16 3.35434e-16)
(-2.98139e-16 -1.36755e-16 3.03199e-16)
(-3.07667e-16 2.08285e-16 3.05997e-16)
(-4.69246e-16 2.04287e-16 5.31458e-16)
(-3.70021e-06 -2.67524e-06 -3.74641e-07)
(-1.9787e-07 -8.11162e-08 -4.12371e-07)
(-5.25874e-07 -5.30322e-07 -1.3347e-06)
(-3.68679e-07 -6.32415e-07 -7.42866e-07)
(-1.93384e-06 -5.81579e-07 9.24278e-07)
(-4.40941e-06 -3.53988e-06 2.09128e-06)
(-1.21273e-06 -1.08948e-06 9.4892e-07)
(-1.65451e-06 -1.06553e-06 1.68235e-06)
(-3.71353e-15 8.25408e-16 3.39639e-15)
(-9.2392e-15 7.51932e-15 1.52533e-15)
(-2.35247e-15 1.60453e-15 2.72903e-15)
(-3.50361e-15 2.2317e-15 3.58395e-15)
(-6.90527e-15 5.14249e-15 -2.72263e-15)
(-3.45393e-16 -3.11384e-17 1.84242e-16)
(-1.34734e-15 6.12101e-16 -2.80981e-15)
(-1.04704e-15 9.59524e-16 -1.39673e-15)
(-4.92509e-15 5.70474e-16 -1.61712e-14)
(-3.99389e-14 3.86209e-14 -4.27707e-15)
(-9.81593e-15 9.45382e-15 -2.38131e-14)
(-6.08077e-15 6.15635e-15 -1.76983e-14)
(-1.22109e-07 -8.72571e-08 -8.51487e-08)
(-2.29586e-07 -2.78906e-07 -1.8652e-07)
(-3.88987e-08 -8.9125e-08 -1.1479e-07)
(-3.41152e-08 -1.05752e-07 -7.29963e-08)
(-5.2081e-07 -3.9046e-07 -5.57507e-08)
(-1.25327e-07 -1.37528e-08 1.03419e-07)
(-1.20574e-07 -6.79874e-08 1.08677e-07)
(-1.95844e-07 -1.20877e-07 1.57555e-07)
(-3.39285e-13 3.31614e-13 -2.09978e-13)
(-1.4463e-13 7.33791e-14 -1.46286e-13)
(-1.63674e-14 4.51636e-14 -2.25969e-13)
(-1.65694e-14 5.40746e-14 -1.72754e-13)
(-5.7719e-08 -3.68571e-08 -4.55748e-09)
(-1.1773e-08 -8.59948e-10 -1.73243e-08)
(-1.82613e-08 -1.20635e-08 -2.37901e-08)
(-1.29883e-08 -8.52377e-09 -1.68535e-08)
(-4.60913e-13 4.50983e-13 8.91806e-14)
(-1.31306e-13 -2.95063e-14 1.25608e-13)
(-1.22638e-13 8.18365e-14 9.62875e-14)
(-1.75264e-13 1.0232e-13 1.73962e-13)
(-1.24288e-08 -9.2784e-09 6.19945e-09)
(-3.99686e-08 -3.51739e-08 2.29651e-08)
(-3.6271e-09 -1.22954e-08 6.71572e-09)
(-4.01856e-09 -7.86409e-09 1.49597e-08)
(-7.7802e-13 1.98839e-13 9.42528e-13)
(-2.73814e-12 2.0951e-12 6.05416e-13)
(-5.88381e-13 5.15105e-13 8.15924e-13)
(-7.55287e-13 5.16285e-13 9.99307e-13)
(-6.68281e-09 -5.58849e-09 -2.76065e-10)
(-7.18681e-10 6.65356e-10 -2.07882e-09)
(-1.33535e-09 -8.12715e-10 -2.94264e-09)
(-9.44483e-10 -9.99922e-10 -1.85341e-09)
(-2.69896e-12 1.8748e-12 -9.57232e-13)
(-2.05127e-13 8.15568e-14 -2.88973e-13)
(-6.13998e-13 3.87828e-13 -1.12593e-12)
(-4.74569e-13 4.73833e-13 -5.85895e-13)
(-2.79228e-09 -6.30257e-10 4.67916e-10)
(-4.50717e-09 -6.30661e-09 4.62337e-09)
(-1.75207e-09 -2.04637e-09 8.19809e-10)
(-2.19648e-09 -1.63722e-09 1.81184e-09)
(-4.03933e-12 -2.26967e-12 -3.94183e-12)
(-1.17195e-11 -6.73834e-12 -4.87379e-12)
(-6.53321e-14 -2.28178e-12 -5.6843e-12)
(-1.25673e-13 -2.57498e-12 -4.38148e-12)
(-4.94773e-10 4.60169e-10 2.31647e-10)
(-2.42096e-11 6.13041e-11 2.45874e-11)
(-4.04732e-11 7.84819e-11 1.03884e-10)
(-4.94033e-11 3.49469e-11 2.47916e-10)
(-3.92264e-12 -3.13815e-13 2.75456e-12)
(-1.51163e-11 -9.6357e-12 2.31009e-12)
(-3.51325e-12 -2.64561e-12 2.33262e-12)
(-4.82813e-12 -2.77584e-12 4.63401e-12)
(-3.21792e-10 1.52242e-10 -2.67516e-10)
(-6.57969e-10 6.1886e-10 -1.4918e-10)
(-2.84975e-10 2.0361e-10 -3.09741e-10)
(-1.89197e-10 1.31827e-10 -2.52783e-10)
(-3.9363e-11 -1.58232e-11 1.42126e-11)
(-9.73872e-11 -1.10217e-10 7.5542e-11)
(-1.59633e-11 -4.18494e-11 1.3334e-11)
(-1.64369e-11 -2.44466e-11 3.12738e-11)
(-1.59113e-10 -1.05589e-10 6.46245e-12)
(-4.21793e-11 8.60407e-12 -3.65568e-11)
(-6.06824e-11 -3.06845e-11 -5.32459e-11)
(-4.25369e-11 -2.26766e-11 -3.76456e-11)
(-1.02568e-10 1.10092e-10 5.21948e-11)
(-1.45138e-11 -1.81217e-12 3.34301e-12)
(-1.78409e-11 2.13365e-11 3.15811e-11)
(-2.13207e-11 1.7849e-11 4.55287e-11)
(-1.07903e-11 9.64198e-12 5.08024e-12)
(-1.50602e-12 2.6327e-12 1.92147e-12)
(3.24527e-13 2.2689e-12 9.36869e-13)
(2.99572e-13 4.82227e-13 5.16348e-12)
(-8.37948e-11 -1.45383e-10 -8.66218e-11)
(-5.05356e-10 -4.03591e-10 -2.35177e-10)
(-1.11908e-11 -3.69345e-11 -2.39024e-10)
(-3.39408e-12 -9.50846e-11 -8.13587e-11)
(-1.65539e-11 1.52926e-11 -4.67307e-12)
(-4.49774e-12 2.02973e-12 -4.87658e-12)
(-8.03937e-12 6.27319e-12 -8.54629e-12)
(-5.24757e-12 4.27756e-12 -5.65574e-12)
(-1.33686e-10 -1.16166e-10 2.46993e-10)
(-5.41669e-10 -4.97049e-10 1.57891e-10)
(-1.62725e-10 -1.68023e-10 2.59477e-10)
(-2.32368e-10 -2.54108e-10 3.41536e-10)
(-1.80274e-17 -1.65465e-17 -8.15168e-18)
(-1.85354e-18 5.49343e-19 1.18603e-18)
(-4.21603e-18 -1.86848e-18 -7.58217e-18)
(-3.46471e-18 -3.09198e-18 -3.84293e-18)
(-0.000194204 0.000126017 3.05221e-05)
(-1.6271e-05 3.1603e-05 1.86218e-05)
(-1.5197e-05 4.94878e-05 4.01347e-05)
(-1.68936e-05 4.3387e-05 6.69191e-05)
(-1.13692e-17 -3.94445e-18 1.01088e-17)
(-2.39204e-17 -2.4347e-17 4.56853e-18)
(-7.04653e-18 -5.46971e-18 7.77605e-18)
(-1.06686e-17 -7.89368e-18 1.01872e-17)
(-0.0001287 4.94548e-05 -6.1399e-05)
(-0.000307884 0.000191636 -9.28696e-05)
(-0.000117523 6.80965e-05 -0.000109413)
(-8.348e-05 6.46289e-05 -6.75641e-05)
(-4.68921e-13 -2.04708e-13 -4.96095e-13)
(-1.15104e-12 -9.61811e-13 -5.99224e-13)
(-1.23663e-13 -1.93167e-13 -7.25e-13)
(-1.21747e-13 -2.20381e-13 -5.85787e-13)
(-4.80132e-13 6.97245e-14 4.21428e-13)
(-1.59365e-12 -1.39683e-12 4.13262e-13)
(-4.4796e-13 -3.31497e-13 3.38551e-13)
(-5.95576e-13 -2.99789e-13 6.07054e-13)
(-3.1841e-09 1.62954e-09 -1.37916e-09)
(-5.53114e-09 5.99078e-09 -3.86706e-09)
(-2.67369e-09 2.33164e-09 -2.79076e-09)
(-1.88852e-09 2.072e-09 -1.53738e-09)
(-4.79375e-09 4.27407e-09 1.95726e-10)
(-2.09495e-10 1.59992e-10 6.92081e-10)
(-4.55507e-10 9.23722e-10 1.02656e-09)
(-6.8366e-10 6.92736e-10 2.01815e-09)
(-1.62123e-16 3.61662e-17 3.39849e-16)
(-9.66062e-16 -1.18081e-15 2.33879e-16)
(-1.51384e-16 -1.73786e-16 5.45429e-16)
(-1.79081e-16 -2.00326e-16 6.45502e-16)
(-2.46615e-06 1.90256e-06 7.6298e-07)
(-2.65071e-07 3.16325e-07 -3.63408e-07)
(-5.02158e-07 5.43937e-07 2.50397e-07)
(-5.8467e-07 4.31867e-07 7.55317e-07)
(-1.57011e-06 7.24569e-07 -1.47023e-06)
(-3.3301e-06 2.61964e-06 -3.2077e-07)
(-1.51272e-06 1.12775e-06 -1.36543e-06)
(-1.04168e-06 8.28678e-07 -1.11157e-06)
(-2.18286e-07 5.9373e-08 1.27399e-07)
(-3.90855e-07 3.93369e-07 2.19759e-07)
(-1.31886e-07 1.12527e-07 1.22405e-07)
(-1.75622e-07 1.116e-07 1.87373e-07)
(-4.03236e-07 3.50977e-07 -3.36223e-08)
(-1.64862e-08 1.76583e-08 -6.80796e-08)
(-5.08529e-08 6.58537e-08 -1.7365e-07)
(-3.66057e-08 7.94983e-08 -9.70714e-08)
(-1.20919e-14 -1.01484e-14 4.59261e-15)
(-9.23093e-16 3.86783e-16 -8.13125e-16)
(-2.07686e-15 -2.22171e-15 2.07933e-15)
(-2.46895e-15 -1.22856e-15 4.85268e-15)
(-7.35814e-15 -1.99017e-15 -6.56054e-15)
(-1.61138e-14 -1.45656e-14 -3.12718e-15)
(-6.89493e-15 -4.59772e-15 -6.62412e-15)
(-4.83431e-15 -3.61003e-15 -5.10729e-15)
(-1.6723e-16 -1.27037e-16 -3.23144e-17)
(-6.33985e-18 -4.82978e-18 -2.48946e-17)
(-2.67827e-17 -2.6065e-17 -7.34947e-17)
(-2.06824e-17 -3.44947e-17 -4.29814e-17)
(-9.24769e-17 -4.12264e-17 4.9621e-17)
(-2.17156e-16 -1.77156e-16 1.03696e-16)
(-5.87777e-17 -6.07309e-17 4.91222e-17)
(-8.27414e-17 -6.10588e-17 8.74426e-17)
(-9.95372e-06 4.06635e-06 1.93673e-06)
(-1.68231e-05 2.34715e-05 1.14161e-05)
(-4.00866e-06 8.14656e-06 1.64048e-06)
(-4.298e-06 5.09496e-06 5.0897e-06)
(-3.72201e-05 2.62508e-05 -6.81946e-06)
(-1.03954e-05 -3.72897e-07 -7.46934e-06)
(-1.30773e-05 7.95852e-06 -1.33336e-05)
(-9.12773e-06 7.41197e-06 -8.23418e-06)
(-2.83789e-08 3.30196e-08 -1.70884e-08)
(-6.49021e-09 2.10302e-09 -4.37409e-09)
(-4.54625e-09 1.54108e-09 -1.47642e-08)
(-4.56737e-09 6.1083e-09 -5.34263e-09)
(-1.71899e-14 -1.15615e-14 -3.39483e-14)
(-8.54818e-14 -8.10925e-14 -5.19697e-14)
(-8.57047e-16 -5.01517e-15 -4.48943e-14)
(-2.30834e-15 -2.03903e-14 -2.43333e-14)
(-4.20515e-14 -2.66739e-15 4.10445e-14)
(-1.45069e-13 -1.47444e-13 3.25668e-14)
(-5.27651e-14 -3.99055e-14 4.64207e-14)
(-7.70959e-14 -5.35449e-14 7.42897e-14)
(-3.12427e-08 3.67186e-08 6.66773e-09)
(-1.06746e-08 1.486e-10 1.17269e-08)
(-1.21342e-08 8.48154e-09 1.29504e-08)
(-1.68218e-08 1.24998e-08 1.64702e-08)
(-5.15365e-17 3.91092e-18 7.73235e-18)
(-1.11264e-16 -2.93996e-18 2.51235e-17)
(-4.62462e-17 3.58257e-18 2.16674e-17)
(-0.00217146 -0.000157443 -0.000912303)
(-0.00129183 -0.000142947 -0.000416177)
(-0.00138457 -0.00032471 -0.00105235)
(-0.00206452 2.06746e-05 0.000816273)
(-0.00122737 6.81054e-05 0.000279797)
(-0.00126335 -6.06048e-05 0.000900246)
(-6.16838e-16 -4.90641e-17 7.53708e-17)
(-1.06487e-15 1.77415e-16 4.02069e-16)
(-5.54369e-16 -2.57639e-17 2.69014e-16)
(-4.62133e-17 7.8667e-18 -1.52928e-17)
(-1.88081e-17 6.65896e-18 -6.96724e-18)
(-2.41288e-17 4.66953e-18 -1.68735e-17)
(-2.59216e-10 -2.78731e-11 -9.64376e-11)
(-1.1435e-10 -1.06547e-11 -5.92688e-11)
(-1.45467e-10 -2.53432e-11 -1.08091e-10)
(-1.29376e-06 -3.33345e-07 3.90237e-07)
(-5.50377e-07 -1.05059e-07 2.71637e-07)
(-7.03962e-07 -2.03153e-07 4.86865e-07)
(-0.00012804 -9.44085e-06 4.1075e-05)
(-5.82535e-05 1.94495e-06 2.2443e-05)
(-7.24058e-05 -4.2337e-06 4.74417e-05)
(-1.65583e-12 3.30446e-13 4.53537e-13)
(-7.34289e-13 5.68589e-14 1.66109e-13)
(-8.80569e-13 1.92251e-13 4.5142e-13)
(-1.41464e-12 2.25941e-13 3.57242e-13)
(-5.50768e-13 1.62727e-14 2.55e-13)
(-7.76449e-13 9.49882e-14 4.78129e-13)
(-1.38584e-14 -2.16005e-15 4.09637e-15)
(-5.90661e-15 -7.17128e-16 3.25157e-15)
(-7.51603e-15 -1.13596e-15 5.27358e-15)
(-3.18708e-07 2.67381e-08 -4.74221e-08)
(-1.69875e-07 1.03909e-08 -2.91431e-08)
(-1.85466e-07 -5.32267e-09 -9.22548e-08)
(-1.66843e-07 6.419e-09 -9.31392e-08)
(-1.95561e-07 -7.98609e-10 5.65611e-08)
(-2.77357e-07 1.53606e-08 6.01041e-09)
(-1.78552e-07 3.02407e-09 3.21307e-08)
(-1.58704e-07 3.36822e-09 3.62069e-08)
(-2.04756e-10 -1.64492e-11 -1.46568e-11)
(-1.78447e-10 -8.48914e-12 -4.72964e-11)
(-2.11091e-10 -1.09589e-11 -5.07924e-11)
(-2.04659e-10 -1.50097e-11 -5.2481e-11)
(-1.02638e-16 -1.81614e-17 7.19452e-18)
(-8.2547e-17 -1.71636e-17 2.69492e-17)
(-1.00672e-16 -2.51578e-17 2.69847e-17)
(-9.77771e-17 -2.30026e-17 2.41724e-17)
(-6.02716e-16 -3.28928e-17 4.88553e-17)
(-5.18315e-16 -3.12771e-17 1.72286e-16)
(-6.23551e-16 -3.46088e-17 1.79991e-16)
(-5.83768e-16 -2.21988e-17 1.64622e-16)
(-0.000169147 -2.55421e-05 -1.16152e-05)
(-0.000165024 -3.22365e-05 -5.60643e-05)
(-0.000213031 -4.01431e-05 -5.84999e-05)
(-0.000158642 -2.56473e-05 -4.76234e-05)
(-2.42619e-08 -6.89083e-10 -5.14783e-10)
(-2.68525e-08 -2.63944e-09 5.3507e-09)
(-2.21108e-08 -3.48159e-09 3.55675e-09)
(-1.78732e-08 -2.94572e-09 4.22078e-09)
(-6.72991e-17 -1.47869e-17 -7.0424e-18)
(-7.15512e-17 -6.02436e-18 -1.81817e-17)
(-5.82768e-17 -6.5522e-18 -1.22295e-17)
(-5.16266e-17 -6.83579e-18 -1.7345e-17)
(-3.63239e-07 7.55808e-09 8.62232e-08)
(-2.17691e-07 2.41054e-08 8.87592e-08)
(-1.95538e-07 6.89111e-09 9.61061e-08)
(-8.36529e-10 8.88935e-11 -2.67928e-11)
(-7.38423e-10 6.62441e-11 -1.64527e-10)
(-8.75524e-10 9.51043e-11 -1.49742e-10)
(-8.52578e-10 1.03915e-10 -1.80197e-10)
(-2.99574e-12 -3.76523e-13 -2.75114e-13)
(-3.54766e-12 -5.89779e-13 -8.54492e-13)
(-3.31252e-12 -5.42539e-13 -8.15204e-13)
(-3.1438e-12 -5.41412e-13 -7.33351e-13)
(-0.00113893 -2.65205e-05 -2.76733e-08)
(-0.00124489 -0.000111333 -9.82753e-05)
(-0.00108614 -0.000137098 -3.78958e-06)
(-0.00103029 -0.00010091 -0.000101126)
(-2.30216e-12 -2.20262e-13 2.43666e-13)
(-2.91624e-12 -2.53465e-13 5.52872e-14)
(-2.89673e-12 -4.67252e-13 -1.69076e-13)
(-2.27446e-09 -9.917e-11 -4.68196e-10)
(-2.14482e-09 -1.29629e-10 -6.39968e-10)
(-2.61505e-09 -1.59308e-10 -8.14642e-10)
(-2.90447e-09 -3.52934e-11 -8.09755e-10)
(-0.00128474 5.50926e-05 0.000104613)
(-0.00116016 6.33979e-05 1.04026e-05)
(-0.00105497 5.352e-05 0.00010439)
(-9.08977e-10 1.20856e-10 6.57434e-11)
(-8.52511e-10 8.54709e-11 9.21665e-11)
(-8.27789e-10 1.1681e-10 1.1689e-10)
(-2.99333e-08 1.48125e-09 -6.86858e-09)
(-2.46283e-08 1.40655e-09 -4.81382e-09)
(-2.0853e-08 1.48871e-09 -5.2483e-09)
(-5.57419e-16 -3.77623e-17 -9.16425e-17)
(-6.73015e-16 -3.94841e-17 -7.7617e-17)
(-6.64265e-16 -2.90208e-17 -6.06545e-17)
(-1.84082e-10 -2.11943e-11 2.8741e-11)
(-2.22812e-10 -2.77377e-11 2.19984e-11)
(-2.18844e-10 -2.39393e-11 2.09903e-11)
(-0.000142699 -1.18598e-05 3.36512e-05)
(-0.000177828 -1.09377e-05 3.13594e-05)
(-0.000177717 -3.23483e-05 3.82321e-05)
(-8.41483e-17 -2.67208e-17 5.18427e-18)
(-7.25725e-17 -2.12256e-17 -6.89418e-18)
(-5.88069e-17 -2.17142e-17 2.4777e-18)
(-9.9661e-17 -1.24546e-17 -1.66226e-17)
(-1.19468e-16 -1.76435e-17 -1.37274e-17)
(-1.16338e-16 -1.4624e-17 -1.14859e-17)
(-1.10768e-09 9.56997e-11 -9.5864e-11)
(-1.10229e-09 1.19415e-10 -1.50845e-10)
(-9.50973e-10 1.17731e-10 -1.85155e-10)
(-1.05785e-09 1.32105e-10 -2.53738e-10)
(-1.08016e-09 1.12446e-10 -2.79559e-11)
(-9.47781e-10 7.20448e-11 3.2426e-11)
(-1.04413e-09 6.78006e-11 -4.82469e-11)
(-4.10398e-12 -1.1925e-12 -1.37279e-12)
(-4.04278e-12 -8.64148e-13 -9.10901e-13)
(-3.74488e-12 -6.55237e-13 -1.17505e-12)
(-3.75708e-12 -9.99559e-13 -1.32603e-12)
(-3.95741e-12 -9.96285e-13 -1.01612e-12)
(-3.50415e-12 -1.27661e-12 -1.31586e-12)
(-3.83392e-12 -2.02109e-12 -2.173e-12)
(-0.000944191 -2.56221e-05 -3.06076e-06)
(-0.00107543 4.73442e-05 -6.79588e-05)
(-0.000787254 4.64169e-05 0.000191382)
(-0.000880505 3.51933e-05 5.44436e-05)
(-0.000980518 -0.000137877 8.58242e-05)
(-0.000791575 -9.25346e-05 -0.000191315)
(-0.000845942 -0.00010612 -4.76145e-05)
(-1.66719e-09 -8.7582e-11 1.05412e-10)
(-1.20968e-09 1.15377e-10 5.18922e-10)
(-1.52646e-09 2.66418e-11 3.24283e-10)
(-2.00795e-09 9.00681e-11 1.95355e-10)
(-1.96023e-09 -2.09649e-10 2.07148e-11)
(-1.42262e-09 -1.78966e-10 -3.35419e-10)
(-1.59515e-09 -2.07532e-10 -1.22508e-10)
(-4.03453e-17 -1.4082e-17 -8.95663e-18)
(-4.37217e-17 -7.93484e-18 -6.36907e-18)
(-3.01773e-17 -6.28065e-18 -1.98082e-17)
(-3.4206e-17 -7.554e-18 -1.22876e-17)
(-6.10728e-17 -1.72602e-17 -1.59766e-17)
(-3.07181e-17 -1.81002e-17 5.60143e-18)
(-4.12122e-17 -1.96718e-17 -2.78175e-18)
(-8.12374e-16 -1.12959e-19 6.32089e-17)
(-8.50004e-16 8.71566e-18 -3.95235e-17)
(-7.92288e-16 3.99475e-17 -1.62977e-17)
(-8.48462e-16 7.47592e-17 -5.25826e-17)
(-7.48619e-16 -5.69972e-17 1.62038e-16)
(-6.36058e-16 -4.94531e-17 1.33362e-16)
(-7.13083e-16 -8.28893e-17 1.27477e-16)
(-1.43066e-16 -2.64661e-17 5.53162e-18)
(-1.51317e-16 -2.46072e-17 -6.66912e-18)
(-1.37236e-16 -2.34877e-17 -5.50472e-18)
(-1.47397e-16 -2.75498e-17 -9.90207e-18)
(-1.2477e-16 -2.86814e-17 2.05464e-17)
(-1.12217e-16 -2.34759e-17 1.45621e-17)
(-1.22229e-16 -2.27242e-17 1.21416e-17)
(-1.34857e-08 -6.90363e-10 -8.34187e-10)
(-1.66992e-08 -3.13529e-09 9.88637e-10)
(-8.43494e-09 -2.99071e-09 4.62926e-09)
(-1.1237e-08 -2.43554e-09 2.01932e-09)
(-1.87565e-08 8.35053e-10 -2.96997e-09)
(-1.15085e-08 1.59797e-09 -6.01997e-09)
(-1.38255e-08 1.26695e-09 -3.80644e-09)
(-2.79305e-10 -3.82547e-11 -3.18599e-11)
(-2.54151e-10 -3.87591e-11 -5.76346e-11)
(-2.27924e-10 -5.23698e-11 -5.99066e-11)
(-2.49137e-10 -8.52161e-11 -6.74822e-11)
(-2.83449e-10 -2.55135e-11 9.03956e-12)
(-2.60544e-10 -1.37297e-11 7.47293e-12)
(-2.81624e-10 -1.24406e-11 1.97068e-11)
(-3.99418e-07 2.67669e-08 -1.32631e-08)
(-3.87437e-07 3.32502e-08 -4.49721e-08)
(-1.08804e-17 -2.03355e-18 3.57576e-18)
(-7.35747e-18 -2.55521e-19 8.66974e-19)
(-1.84319e-17 3.06928e-19 3.83059e-18)
(-9.00463e-18 -7.04413e-19 4.41269e-18)
(-1.02308e-17 1.5418e-18 -2.97279e-18)
(-6.60485e-18 -7.93437e-20 -1.55534e-18)
(-1.8326e-17 1.51616e-18 -3.15087e-19)
(-8.7397e-18 8.34458e-19 -4.14398e-18)
(-0.0027252 5.9721e-05 -0.00131459)
(-0.00439751 0.000366138 -0.00109907)
(-0.00295537 -0.0001025 -0.000533911)
(-0.00244285 0.000737272 -0.00156969)
(-1.14056e-17 -1.14838e-18 -3.14295e-18)
(-6.95696e-18 -1.1048e-18 -9.61944e-19)
(-1.73e-17 -1.10571e-18 -1.88879e-18)
(-9.087e-18 -1.49024e-18 -4.30332e-18)
(-0.00273302 0.000385436 0.0008879)
(-0.00413331 -5.83645e-05 0.000707659)
(-0.00286616 0.000237525 0.000356481)
(-0.00238559 -0.000362101 0.00120552)
(-7.88038e-18 -2.3639e-19 4.47739e-18)
(-5.28314e-18 1.22718e-19 1.59675e-18)
(-1.55352e-17 -2.72948e-19 2.56746e-18)
(-6.8244e-18 -2.4251e-19 4.2141e-18)
(-8.68609e-18 3.3498e-19 -3.75895e-18)
(-5.28918e-18 -5.43682e-19 -1.67779e-18)
(-1.56984e-17 -1.5357e-18 -2.21484e-18)
(-7.41947e-18 -4.39738e-19 -4.18239e-18)
(-7.01926e-18 -1.2519e-18 2.64367e-18)
(-4.60503e-18 -1.87384e-19 1.04063e-18)
(-1.44511e-17 -1.70868e-18 1.40916e-18)
(-6.25476e-18 -5.27489e-19 3.54769e-18)
(-0.00255607 0.000137754 -0.00115173)
(-0.00431147 0.000369613 -0.000933766)
(-0.0025374 -4.72216e-05 -0.00047646)
(-0.00229637 0.000819848 -0.00149657)
(-0.00238217 -0.00010841 0.000951256)
(-0.00416694 -0.000355859 0.000848758)
(-0.00241286 4.59118e-05 0.000541973)
(-0.00217134 -0.000629027 0.00130086)
(-0.00260383 -0.000445884 0.00120485)
(-0.00404848 0.000130452 0.000952682)
(-0.00266029 -0.000302433 0.000454074)
(-0.00221832 0.000344257 0.00148312)
(-0.00305994 -0.000142911 -0.00118857)
(-0.00449929 -0.000187188 -0.00103995)
(-0.00290338 1.9947e-06 -0.000572908)
(-0.00272999 -0.000777596 -0.00149968)
(-0.00160224 -0.0003306 0.000578871)
(-0.0014541 -0.000257856 0.000216628)
(-0.00240107 -9.40865e-05 0.00021222)
(-0.00126862 -7.32945e-05 0.00063921)
(-0.00178444 1.04969e-07 -0.00065543)
(-0.00157639 -2.40865e-05 -0.000301572)
(-0.00256854 0.000111203 -0.000576507)
(-0.00148553 -0.000169265 -0.000777022)
(-1.13412e-16 -2.82259e-18 -5.63743e-17)
(-1.71513e-16 -5.27949e-18 -2.20923e-17)
(-8.28511e-17 -5.13684e-18 -2.37936e-17)
(-8.73472e-17 -5.84069e-18 -5.04597e-17)
(-8.04872e-17 -1.9284e-17 3.61951e-17)
(-1.55851e-16 -7.84502e-18 2.94247e-17)
(-7.20669e-17 -5.45898e-18 1.30895e-17)
(-6.89807e-17 -9.93557e-18 3.68989e-17)
(-0.00153249 0.00010682 0.000632629)
(-0.00242358 -3.02143e-05 0.000420772)
(-0.00148545 -7.39756e-05 0.000271082)
(-0.00127064 0.00013129 0.000647406)
(-9.55889e-17 2.28209e-18 -3.94684e-17)
(-1.5666e-16 -1.7461e-19 -2.36376e-17)
(-7.35712e-17 8.39708e-18 -9.82074e-18)
(-7.73662e-17 5.39804e-18 -4.02472e-17)
(-7.84646e-17 5.92923e-18 4.80467e-17)
(-1.46673e-16 -3.19067e-18 2.17769e-17)
(-6.67168e-17 3.30019e-18 2.49591e-17)
(-6.49051e-17 2.26855e-18 4.48598e-17)
(-8.02361e-17 -2.10353e-17 -2.4659e-17)
(-5.87713e-17 -1.61659e-17 -1.01573e-17)
(-1.01671e-16 -2.13218e-17 -1.49878e-17)
(-5.9647e-17 -1.8637e-17 -2.71802e-17)
(-0.00175096 -1.54796e-05 -0.000539043)
(-0.00257644 -0.00013837 -0.000334471)
(-0.00159458 -8.75899e-05 -0.000300299)
(-0.0014869 8.95248e-05 -0.000640416)
(-0.000349504 1.74462e-05 4.97388e-05)
(-0.000192524 2.66888e-05 -1.43913e-05)
(-0.000552382 3.43851e-05 0.000117112)
(-0.000211147 2.90792e-05 0.000109464)
(-6.26721e-05 1.31695e-06 -1.77658e-05)
(-3.64229e-05 4.29846e-06 -1.20017e-05)
(-0.000104291 -5.14682e-07 -3.17554e-05)
(-4.67774e-05 2.39204e-06 -2.35777e-05)
(-5.67514e-14 -9.90268e-15 -2.2487e-14)
(-7.6637e-14 -1.52977e-14 -1.40702e-14)
(-4.1266e-14 -8.77731e-15 -7.41857e-15)
(-4.28689e-14 -9.49591e-15 -2.20669e-14)
(-1.45626e-05 1.83626e-06 -5.0581e-06)
(-1.14069e-05 1.41981e-06 -1.11119e-06)
(-2.06409e-05 2.4799e-06 -3.84219e-06)
(-1.10096e-05 1.40417e-06 -5.45043e-06)
(-0.00048839 -6.68213e-05 0.000172719)
(-0.00077092 -0.00011086 0.000103949)
(-0.000417393 -7.00001e-05 6.74201e-05)
(-0.000350055 -5.26822e-05 0.000192398)
(-5.61588e-16 7.19032e-17 -1.79128e-16)
(-7.06849e-16 1.65255e-16 -2.82199e-16)
(-1.0418e-15 1.9152e-16 9.68318e-17)
(-5.94058e-16 1.28796e-16 -3.10328e-16)
(-6.9294e-16 -1.35217e-16 5.66734e-17)
(-1.016e-15 -3.757e-16 8.42637e-17)
(-3.55173e-16 -4.7652e-17 7.12322e-17)
(-4.86508e-16 -1.46589e-16 1.60888e-16)
(-3.32604e-14 1.16973e-15 1.78734e-14)
(-5.05277e-14 -5.23451e-15 1.08544e-14)
(-2.49779e-14 -5.75775e-16 7.22526e-15)
(-2.44991e-14 -9.7781e-16 1.58374e-14)
(-1.40678e-14 1.8787e-15 -4.78298e-16)
(-5.64098e-15 8.57868e-16 -1.18493e-15)
(-6.57082e-15 1.49143e-15 -1.49501e-15)
(-5.78189e-15 9.10688e-16 -2.40616e-15)
(-0.000106861 7.29392e-06 -4.90962e-05)
(-8.52071e-05 4.63344e-06 -1.95727e-05)
(-0.000166664 2.34467e-06 -1.74393e-05)
(-8.52854e-05 5.50836e-06 -4.74259e-05)
(-7.63173e-15 -8.87114e-16 7.53965e-16)
(-9.28278e-15 -5.64787e-16 8.51771e-16)
(-4.89277e-15 -1.42534e-15 7.06635e-16)
(-5.32229e-15 -8.9068e-16 1.40002e-15)
(-3.99074e-14 -4.96436e-15 1.98468e-14)
(-6.74735e-14 -1.00499e-14 9.21792e-15)
(-3.30904e-14 -3.01379e-15 9.74404e-15)
(-3.14915e-14 -3.13349e-15 1.89988e-14)
(-6.51365e-05 -3.00421e-06 -1.63786e-05)
(-3.54333e-05 2.10955e-07 -9.29675e-06)
(-0.000110041 -6.91755e-06 -3.01415e-05)
(-4.73237e-05 -4.59856e-06 -2.56777e-05)
(-6.7372e-15 2.53819e-17 5.45857e-16)
(-4.78842e-15 1.69819e-16 1.37415e-15)
(-9.23378e-15 -6.58425e-16 1.09268e-15)
(-4.26043e-15 2.62757e-16 1.545e-15)
(-3.02899e-14 -1.17232e-15 -1.42013e-14)
(-5.10787e-14 -4.8697e-15 -5.18907e-15)
(-2.38153e-14 6.1134e-16 -5.20745e-15)
(-2.46907e-14 -6.90619e-16 -1.39132e-14)
(-1.24418e-05 -6.78363e-08 7.75638e-06)
(-2.02658e-05 -2.50804e-06 5.30903e-06)
(-9.74942e-06 -6.44559e-07 3.76472e-06)
(-9.12022e-06 -4.79869e-07 7.38571e-06)
(-1.31727e-06 1.45433e-07 1.75598e-07)
(-1.5119e-06 -1.56123e-07 4.73449e-07)
(-5.97161e-07 2.1215e-07 -1.99992e-07)
(-6.64995e-07 1.39323e-07 3.91454e-07)
(-2.36242e-06 2.69091e-07 -1.01421e-06)
(-1.67839e-06 1.72347e-07 -4.18819e-07)
(-3.10863e-06 4.90189e-07 -3.99854e-07)
(-1.71601e-06 2.69898e-07 -9.3193e-07)
(-2.02381e-13 -2.88632e-14 -6.35631e-14)
(-3.09483e-13 -1.90563e-14 -9.26233e-14)
(-1.01459e-13 -3.20998e-14 -2.59913e-14)
(-1.46712e-13 -3.27776e-14 -8.86577e-14)
(-2.86729e-13 9.18527e-15 1.12855e-13)
(-4.59956e-13 -3.64661e-15 7.8153e-14)
(-2.28584e-13 -1.64394e-15 3.3156e-14)
(-2.25271e-13 -2.14499e-15 1.15163e-13)
(-8.29742e-07 -7.469e-08 -5.56915e-07)
(-1.98253e-06 -1.11029e-07 -2.282e-07)
(-8.66094e-07 -8.65468e-08 -2.04759e-07)
(-6.15851e-07 -5.63164e-09 -6.09758e-07)
(-2.54976e-13 -1.59872e-14 7.45884e-14)
(-3.78739e-13 -3.22883e-14 6.24418e-14)
(-1.94325e-13 -2.48658e-14 1.99284e-14)
(-1.96161e-13 -2.07132e-14 8.52982e-14)
(-0.000100094 -3.81191e-06 4.7275e-05)
(-8.37206e-05 -8.3258e-06 2.02091e-05)
(-0.00015959 -8.34764e-06 3.46334e-05)
(-7.80477e-05 -6.4507e-06 4.67637e-05)
(-9.90499e-06 -1.71366e-06 -5.02677e-06)
(-1.46549e-05 -1.04443e-06 -5.8024e-06)
(-9.10507e-06 -2.16655e-06 -1.80457e-06)
(-7.31646e-06 -1.57145e-06 -5.48071e-06)
(-9.32573e-05 -4.40164e-06 -5.85337e-05)
(-0.000150511 -1.94947e-05 -3.90712e-05)
(-8.01146e-05 -6.71673e-06 -3.05547e-05)
(-7.41686e-05 -8.45091e-06 -5.65417e-05)
(-8.49406e-15 -1.44461e-16 -1.21569e-15)
(-3.95753e-15 -8.46396e-16 -8.79156e-16)
(-4.43808e-15 -4.41557e-16 -1.85841e-15)
(-3.96693e-15 -3.53557e-16 -2.23256e-15)
(-5.66897e-16 -3.8699e-17 -1.3157e-16)
(-9.19814e-16 -5.48001e-17 -8.92802e-17)
(-4.45623e-16 2.39757e-18 -9.94972e-17)
(-4.42452e-16 -3.82504e-18 -1.85152e-16)
(-5.05726e-09 -5.00166e-11 -2.33223e-09)
(-3.93355e-09 3.01968e-10 -1.06129e-09)
(-8.22121e-09 4.30775e-10 -1.02192e-09)
(-4.03142e-09 2.24316e-10 -2.22328e-09)
(-4.81245e-09 -8.39634e-11 1.48938e-09)
(-3.79894e-09 -1.19801e-10 5.32691e-10)
(-7.7919e-09 9.55e-11 1.10339e-09)
(-3.70736e-09 -1.44521e-10 1.77443e-09)
(-2.97403e-13 -1.74102e-14 -1.46493e-13)
(-4.84175e-13 -3.17205e-15 -7.71429e-14)
(-2.36436e-13 5.76264e-15 -7.43193e-14)
(-2.43524e-13 -1.7316e-15 -1.44783e-13)
(-1.68528e-06 -8.38684e-08 6.861e-07)
(-1.42009e-06 -1.40343e-07 2.80431e-07)
(-2.78488e-06 1.93166e-07 4.94291e-07)
(-1.33155e-06 -7.94192e-08 7.48978e-07)
(-2.04549e-13 -2.65368e-14 -1.08044e-13)
(-3.67778e-13 -2.84154e-14 -3.03995e-14)
(-1.6805e-13 -1.7149e-14 -4.89981e-14)
(-1.6971e-13 -1.88674e-14 -1.02138e-13)
(-4.13944e-09 2.40542e-10 1.7401e-10)
(-1.72628e-09 4.28055e-10 -5.43185e-10)
(-4.46539e-09 -1.75498e-10 1.78565e-09)
(-1.86307e-09 1.76029e-10 5.75584e-10)
(-2.81757e-09 1.10572e-10 7.79679e-10)
(-1.38238e-09 2.81005e-10 -4.29771e-10)
(-4.04483e-09 -1.47824e-10 1.92393e-09)
(-1.47934e-09 1.2534e-11 1.14012e-09)
(-7.70864e-11 -4.44164e-12 1.90565e-11)
(-8.6291e-11 -6.81075e-12 3.30579e-11)
(-8.22785e-11 -5.00094e-12 4.51719e-11)
(-3.85425e-10 -2.35685e-11 -1.72781e-10)
(-2.25225e-10 -6.49166e-11 -1.04946e-10)
(-5.71092e-10 5.69379e-11 -1.98458e-10)
(-2.82053e-10 -2.66181e-11 -2.12682e-10)
(-2.03268e-10 -2.4496e-11 -6.13534e-11)
(-5.55573e-10 9.71278e-11 -1.56604e-10)
(-3.29602e-10 3.70329e-11 -9.72096e-11)
(-2.53763e-10 3.51676e-11 -1.32897e-10)
(-8.25019e-11 -3.37576e-12 -1.29791e-11)
(-1.02046e-10 -1.40715e-12 -2.92255e-11)
(-9.10807e-11 -3.66025e-12 -4.22621e-11)
(-3.21697e-09 -1.28103e-09 -6.87708e-10)
(-8.1332e-09 -1.74818e-09 -2.55917e-10)