/*--------------------------------*- C++ -*----------------------------------*\
  =========                 |
  \\      /  F ield         | OpenFOAM: The Open Source CFD Toolbox
   \\    /   O peration     | Website:  https://openfoam.org
    \\  /    A nd           | Version:  6
     \\/     M anipulation  |
\*---------------------------------------------------------------------------*/
FoamFile
{
    version     2.0;
    format      ascii;
    class       volScalarField;
    location    "4.94";
    object      rho;
}
// * * * * * * * * * * * * * * * * * * * * * * * * * * * * * * * * * * * * * //

dimensions      [1 -3 0 0 0 0 0];

internalField   nonuniform List<scalar> 
10000
(
1.39997
1.39998
1.39999
1.39999
1.4
1.4
1.4
1.4
1.40001
1.4
1.40001
1.4
1.40001
1.4
1.40001
1.4
1.40001
1.4
1.4
1.40001
1.4
1.4
1.40001
1.4
1.4
1.40001
1.4
1.40001
1.40001
1.4
1.4
1.40001
1.40001
1.4
1.40001
1.40001
1.40001
1.40001
1.40001
1.40001
1.40002
1.40003
1.40005
1.40007
1.4001
1.40013
1.40015
1.40018
1.4002
1.40023
1.4003
1.40044
1.40071
1.40114
1.4018
1.40272
1.40394
1.40543
1.4072
1.40921
1.41139
1.41368
1.41603
1.41835
1.42058
1.42265
1.42451
1.42609
1.42737
1.42831
1.42888
1.42909
1.42893
1.42837
1.42742
1.42609
1.42438
1.42235
1.42007
1.41766
1.41523
1.41286
1.41065
1.40865
1.40689
1.40538
1.4041
1.40305
1.40221
1.40154
1.40103
1.40065
1.40038
1.4002
1.40008
1.40001
1.39998
1.39996
1.39996
1.39996
1.39996
1.39997
1.39998
1.39999
1.39999
1.4
1.4
1.4
1.4
1.4
1.40001
1.4
1.40001
1.4
1.4
1.4
1.40001
1.4
1.4
1.40001
1.4
1.4
1.40001
1.4
1.4
1.40001
1.40001
1.4
1.40001
1.40001
1.4
1.40001
1.4
1.4
1.4
1.40001
1.40001
1.40001
1.40001
1.40002
1.40003
1.40004
1.40006
1.40009
1.40013
1.40016
1.4002
1.40023
1.40026
1.40032
1.40045
1.40071
1.40116
1.40189
1.40297
1.40443
1.4063
1.40856
1.41116
1.41402
1.41706
1.42018
1.4233
1.42632
1.42915
1.43173
1.43399
1.43589
1.43741
1.43854
1.43927
1.4396
1.43953
1.43905
1.43811
1.43665
1.43465
1.43211
1.4291
1.42577
1.42229
1.41885
1.41559
1.41263
1.41002
1.40779
1.40592
1.4044
1.40318
1.40223
1.40151
1.40097
1.40059
1.40032
1.40015
1.40004
1.39999
1.39996
1.39995
1.39995
1.39995
1.39997
1.39997
1.39998
1.39999
1.39999
1.4
1.4
1.4
1.4
1.40001
1.4
1.40001
1.40001
1.40001
1.4
1.40001
1.4
1.4
1.40002
1.4
1.4
1.40001
1.4
1.4
1.40001
1.40001
1.4
1.4
1.40001
1.40001
1.4
1.40001
1.4
1.4
1.40001
1.40001
1.40001
1.40001
1.40002
1.40003
1.40005
1.40008
1.40012
1.40016
1.40021
1.40025
1.40029
1.40034
1.40045
1.40068
1.40111
1.40187
1.40304
1.40472
1.40695
1.4097
1.41292
1.4165
1.42033
1.42428
1.42821
1.432
1.43554
1.43874
1.44154
1.44392
1.44585
1.44737
1.44851
1.4493
1.44978
1.44997
1.44984
1.44933
1.44828
1.44654
1.44399
1.4406
1.43649
1.43191
1.42716
1.42254
1.41826
1.41446
1.4112
1.4085
1.4063
1.40456
1.4032
1.40218
1.40142
1.40087
1.4005
1.40025
1.40009
1.40001
1.39996
1.39995
1.39995
1.39995
1.39996
1.39997
1.39998
1.39999
1.39999
1.4
1.4
1.4
1.40001
1.4
1.40001
1.4
1.4
1.40001
1.40001
1.4
1.4
1.40002
1.4
1.4
1.40001
1.4
1.4
1.40001
1.4
1.40001
1.4
1.4
1.40001
1.40001
1.4
1.4
1.40001
1.40001
1.40001
1.40001
1.40001
1.40001
1.40003
1.40004
1.40007
1.4001
1.40015
1.40021
1.40026
1.40031
1.40036
1.40044
1.40063
1.40101
1.40173
1.40293
1.40475
1.40726
1.41048
1.41432
1.41865
1.42327
1.42802
1.43269
1.43713
1.4412
1.44477
1.44777
1.45021
1.45208
1.45349
1.45452
1.45528
1.45588
1.45641
1.45695
1.4575
1.45797
1.45815
1.45771
1.45629
1.45358
1.44948
1.4442
1.43821
1.43201
1.42607
1.42068
1.41602
1.41212
1.40896
1.40647
1.40455
1.40311
1.40204
1.40128
1.40075
1.40039
1.40017
1.40004
1.39997
1.39995
1.39994
1.39994
1.39995
1.39996
1.39997
1.39998
1.39999
1.39999
1.4
1.4
1.40001
1.4
1.40001
1.4
1.40001
1.4
1.40002
1.39999
1.39999
1.40003
1.39999
1.39999
1.40003
1.4
1.39999
1.40002
1.40001
1.4
1.40001
1.4
1.40001
1.40001
1.4
1.4
1.40001
1.40001
1.40001
1.40001
1.40001
1.40002
1.40003
1.40005
1.40009
1.40013
1.40019
1.40026
1.40032
1.40037
1.40044
1.40058
1.40088
1.40151
1.40265
1.40449
1.40719
1.41079
1.41521
1.42026
1.42568
1.43116
1.43647
1.44136
1.44567
1.44923
1.45197
1.45387
1.45501
1.45551
1.45558
1.45542
1.45524
1.45523
1.45554
1.45632
1.45766
1.45952
1.46172
1.4638
1.46515
1.46502
1.46279
1.45827
1.45185
1.44433
1.43657
1.42923
1.42271
1.4172
1.41271
1.40916
1.40644
1.4044
1.40291
1.40184
1.4011
1.40061
1.40029
1.4001
1.4
1.39995
1.39993
1.39993
1.39993
1.39995
1.39996
1.39998
1.39998
1.39999
1.4
1.4
1.40001
1.4
1.40001
1.40001
1.39999
1.40001
1.40001
1.39998
1.40003
1.40001
1.39999
1.40001
1.40002
1.4
1.39999
1.4
1.40003
1.39999
1.4
1.40001
1.4
1.40001
1.4
1.4
1.40001
1.40001
1.40001
1.40001
1.40001
1.40002
1.40004
1.40006
1.40011
1.40017
1.40024
1.40031
1.40038
1.40044
1.40054
1.40076
1.40126
1.40225
1.40398
1.40671
1.41056
1.41548
1.42122
1.42739
1.43358
1.43939
1.44452
1.44874
1.45189
1.45386
1.45463
1.45431
1.4531
1.45129
1.44919
1.44712
1.44543
1.44434
1.44404
1.44472
1.44656
1.44976
1.45424
1.45955
1.46498
1.46951
1.4719
1.47101
1.46648
1.459
1.4499
1.44052
1.43179
1.4242
1.41792
1.41293
1.40909
1.40622
1.40412
1.40263
1.4016
1.40091
1.40046
1.40019
1.40004
1.39996
1.39993
1.39992
1.39992
1.39994
1.39995
1.39996
1.39998
1.39998
1.39999
1.4
1.39999
1.40001
1.39999
1.40001
1.39999
1.40002
1.4
1.39998
1.40005
1.4
1.39997
1.40003
1.40003
1.39997
1.40002
1.4
1.40002
1.4
1.39998
1.40002
1.40001
1.4
1.40001
1.4
1.40001
1.40001
1.40001
1.4
1.40002
1.40003
1.40005
1.40008
1.40013
1.40021
1.40029
1.40037
1.40044
1.40052
1.40067
1.40103
1.40181
1.40331
1.40588
1.40977
1.41503
1.42139
1.42831
1.43518
1.44143
1.44663
1.4505
1.45289
1.45368
1.45288
1.45057
1.44703
1.44264
1.43788
1.43309
1.42872
1.4252
1.42276
1.42154
1.42164
1.42336
1.42712
1.43323
1.44152
1.45122
1.4613
1.47035
1.47641
1.47767
1.47357
1.46518
1.45454
1.44359
1.43356
1.42503
1.41814
1.41279
1.40876
1.40583
1.40375
1.40231
1.40134
1.40071
1.40033
1.4001
1.39998
1.39993
1.39991
1.39991
1.39992
1.39994
1.39996
1.39997
1.39999
1.39998
1.40001
1.39998
1.40001
1.40002
1.39997
1.40003
1.40003
1.39994
1.40004
1.40003
1.39995
1.40002
1.40001
1.40003
1.39997
1.4
1.40005
1.39997
1.40002
1.39999
1.40001
1.40002
1.39999
1.4
1.40001
1.40001
1.40001
1.40001
1.40001
1.40002
1.40004
1.40006
1.4001
1.40016
1.40025
1.40034
1.40043
1.40051
1.40062
1.40085
1.4014
1.40259
1.40482
1.4085
1.41385
1.42069
1.42835
1.43595
1.44265
1.44785
1.45124
1.45265
1.45206
1.44945
1.44495
1.43888
1.43166
1.42386
1.41616
1.40891
1.40247
1.39724
1.39351
1.39138
1.39067
1.3915
1.39449
1.40047
1.41016
1.42309
1.43807
1.45368
1.46804
1.47847
1.48238
1.47899
1.46986
1.45784
1.44549
1.43438
1.42513
1.41783
1.41229
1.40822
1.40531
1.4033
1.40195
1.40108
1.40053
1.40021
1.40003
1.39995
1.39992
1.39991
1.39991
1.39993
1.39995
1.39997
1.39997
1.4
1.39997
1.40002
1.39998
1.40001
1.40001
1.39999
1.40003
1.39995
1.40003
1.40006
1.39991
1.40003
1.40008
1.39991
1.40006
1.39995
1.40008
1.39997
1.39998
1.40005
1.39998
1.40003
1.4
1.39999
1.40002
1.40001
1.4
1.40001
1.40002
1.40002
1.40004
1.40007
1.40013
1.4002
1.40029
1.4004
1.4005
1.40059
1.40073
1.40109
1.40194
1.4037
1.4069
1.41202
1.41906
1.42739
1.43582
1.44313
1.44844
1.45133
1.45173
1.44973
1.44539
1.43886
1.43038
1.42055
1.41003
1.39948
1.38966
1.38103
1.3736
1.36734
1.3628
1.36009
1.35884
1.35846
1.35924
1.36254
1.37051
1.38401
1.40205
1.42264
1.444
1.4638
1.47856
1.48501
1.48231
1.47258
1.45945
1.44604
1.43416
1.42449
1.41701
1.41147
1.40748
1.4047
1.40283
1.4016
1.40083
1.40036
1.40011
1.39997
1.39993
1.3999
1.3999
1.39992
1.39993
1.39996
1.39996
1.39999
1.39999
1.39998
1.40005
1.39994
1.40004
1.40006
1.39987
1.4001
1.40003
1.39991
1.40008
1.39991
1.40017
1.39986
1.40001
1.40009
1.39993
1.40008
1.39991
1.40008
1.39999
1.39999
1.40002
1.39999
1.40001
1.40002
1.4
1.40001
1.40002
1.40003
1.40004
1.40009
1.40015
1.40024
1.40035
1.40046
1.40057
1.40067
1.40088
1.40142
1.40269
1.40524
1.40973
1.41657
1.42534
1.4347
1.44288
1.44856
1.45117
1.45067
1.44739
1.44161
1.43341
1.4231
1.41112
1.39836
1.38577
1.37404
1.36373
1.35544
1.34883
1.343
1.33851
1.33552
1.33429
1.33364
1.33231
1.33098
1.33262
1.34121
1.35822
1.38136
1.40761
1.43455
1.45926
1.47756
1.48578
1.48333
1.47306
1.45917
1.44515
1.43293
1.42316
1.41577
1.4104
1.40662
1.40404
1.40234
1.40126
1.4006
1.40022
1.40003
1.39997
1.3999
1.39991
1.39989
1.39995
1.39991
1.4
1.39993
1.40002
1.39998
1.39997
1.40006
1.39992
1.4001
1.39991
1.4
1.40021
1.3997
1.40017
1.40007
1.39984
1.4002
1.39973
1.40032
1.39979
1.40009
1.39997
1.4
1.40006
1.39994
1.40003
1.40001
1.39999
1.40002
1.4
1.4
1.40003
1.40004
1.40005
1.4001
1.40018
1.40029
1.4004
1.40052
1.40063
1.40076
1.40107
1.4019
1.40374
1.40732
1.41344
1.4222
1.43237
1.44176
1.44831
1.45102
1.44993
1.4456
1.43864
1.42939
1.41787
1.40451
1.39017
1.376
1.36319
1.35254
1.34399
1.33801
1.33425
1.33115
1.32784
1.32503
1.32364
1.32366
1.32256
1.31885
1.31291
1.30998
1.31692
1.33592
1.36358
1.39511
1.42705
1.45572
1.47626
1.48506
1.48222
1.47132
1.45702
1.44288
1.43078
1.42126
1.4142
1.40916
1.40569
1.40337
1.40188
1.40096
1.40041
1.40011
1.40003
1.39992
1.3999
1.3999
1.3999
1.39996
1.39991
1.40002
1.39992
1.40006
1.39992
1.40002
1.4001
1.39978
1.40021
1.39994
1.39996
1.40011
1.39972
1.40054
1.39944
1.40036
1.39986
1.40004
1.40009
1.3998
1.40021
1.39986
1.40011
1.39994
1.4
1.40005
1.39998
1.40001
1.40001
1.40001
1.40002
1.40004
1.40007
1.40012
1.40021
1.40033
1.40046
1.40058
1.40069
1.40087
1.40134
1.40255
1.40515
1.41009
1.41814
1.42873
1.43947
1.44749
1.45097
1.44976
1.44473
1.43686
1.42694
1.41498
1.40102
1.3857
1.37052
1.35694
1.34624
1.33915
1.3349
1.3332
1.3337
1.33544
1.33461
1.33279
1.33048
1.32976
1.33009
1.32848
1.32109
1.30907
1.29965
1.30263
1.32138
1.35153
1.38691
1.42263
1.45376
1.47499
1.48312
1.47925
1.46769
1.45329
1.43948
1.4279
1.41895
1.41242
1.40784
1.40475
1.40273
1.40145
1.40069
1.40025
1.40011
1.4
1.39986
1.39994
1.39985
1.39998
1.3999
1.39997
1.40002
1.39988
1.40017
1.3998
1.4002
1.39984
1.39998
1.40036
1.39941
1.40051
1.39975
1.40007
1.40015
1.39951
1.40076
1.39929
1.40056
1.39959
1.40026
1.39991
1.4
1.40005
1.39992
1.40008
1.39999
1.39998
1.40002
1.40002
1.40001
1.40005
1.40009
1.40015
1.40024
1.40038
1.40051
1.40063
1.40076
1.40102
1.40172
1.40345
1.40704
1.41367
1.42381
1.43568
1.44568
1.45083
1.45023
1.44495
1.43648
1.42598
1.41408
1.40029
1.38473
1.36872
1.35451
1.34385
1.33794
1.33672
1.33904
1.34304
1.34809
1.35431
1.35734
1.35646
1.35328
1.34901
1.34737
1.34736
1.34557
1.33642
1.31909
1.30347
1.3016
1.31797
1.34824
1.38514
1.4223
1.45367
1.47369
1.47999
1.47468
1.46256
1.44839
1.43528
1.42454
1.41639
1.41054
1.40651
1.40384
1.40213
1.40107
1.40048
1.4003
1.40002
1.39997
1.39982
1.39999
1.39979
1.40006
1.39985
1.40003
1.39998
1.39992
1.40019
1.39969
1.40033
1.39979
1.4001
1.40005
1.39961
1.40089
1.39886
1.40112
1.39899
1.40088
1.39945
1.40015
1.40011
1.39981
1.40025
1.39978
1.40017
1.3999
1.40004
1.40004
1.39996
1.40002
1.40004
1.40001
1.40005
1.40011
1.40018
1.40028
1.40042
1.40056
1.40069
1.40085
1.40122
1.40225
1.40465
1.40951
1.41814
1.43022
1.4423
1.45
1.45114
1.44624
1.4375
1.42658
1.41456
1.40155
1.3866
1.3701
1.35493
1.34399
1.33911
1.34064
1.34693
1.35649
1.36587
1.37443
1.38152
1.38842
1.38752
1.38313
1.37572
1.36799
1.36137
1.36063
1.36148
1.35441
1.3366
1.31802
1.31267
1.32634
1.35493
1.39083
1.42666
1.45552
1.4723
1.47575
1.46881
1.45637
1.4428
1.43066
1.42098
1.41377
1.40869
1.40524
1.40301
1.4016
1.40076
1.40054
1.4001
1.40002
1.39986
1.39991
1.39991
1.39987
1.40007
1.39975
1.40029
1.39962
1.40032
1.3998
1.39992
1.40049
1.3992
1.40083
1.39929
1.40063
1.39963
1.39986
1.40065
1.39909
1.40106
1.39889
1.401
1.39929
1.40044
1.39977
1.40008
1.40003
1.39993
1.40009
1.39996
1.39999
1.40005
1.40003
1.40005
1.40012
1.40021
1.40031
1.40046
1.4006
1.40075
1.40095
1.40151
1.40297
1.40621
1.41266
1.42348
1.43685
1.44769
1.45176
1.44847
1.43982
1.42866
1.41637
1.40376
1.39019
1.37431
1.35778
1.34562
1.34116
1.34509
1.35546
1.36915
1.38355
1.39534
1.40456
1.40908
1.41478
1.41584
1.40942
1.40179
1.39006
1.37562
1.36133
1.35603
1.36105
1.36217
1.35099
1.33583
1.33086
1.34304
1.36959
1.40287
1.43488
1.45883
1.47072
1.47063
1.46206
1.4496
1.43691
1.42598
1.41747
1.41125
1.40697
1.40408
1.40229
1.40112
1.40071
1.4004
1.39991
1.4001
1.39971
1.40007
1.39981
1.39992
1.40013
1.39966
1.40039
1.39955
1.40039
1.39968
1.40027
1.39993
1.39954
1.40114
1.39848
1.40175
1.398
1.40218
1.39797
1.40166
1.3988
1.40072
1.39975
1.39996
1.40018
1.39978
1.4002
1.39988
1.40006
1.40003
1.39995
1.40003
1.40006
1.40006
1.40013
1.40023
1.40035
1.4005
1.40064
1.40082
1.4011
1.40191
1.40391
1.40821
1.41654
1.42944
1.44299
1.4511
1.45084
1.44342
1.43204
1.41955
1.40671
1.39419
1.38021
1.36334
1.34868
1.34302
1.34865
1.36282
1.38069
1.39845
1.41189
1.422
1.42705
1.42888
1.42789
1.43215
1.42841
1.4218
1.41187
1.40077
1.3773
1.34845
1.33471
1.34094
1.35216
1.35409
1.34906
1.34954
1.36326
1.38842
1.41815
1.44477
1.46237
1.46858
1.46483
1.45488
1.4427
1.43112
1.4215
1.41419
1.40896
1.40543
1.40306
1.40169
1.40113
1.4005
1.40016
1.39994
1.39998
1.39977
1.40009
1.39966
1.40033
1.39947
1.40047
1.3997
1.39984
1.40068
1.39907
1.40086
1.3991
1.40115
1.39897
1.40052
1.39986
1.39992
1.40043
1.39922
1.40103
1.39884
1.40116
1.39909
1.4006
1.39964
1.4002
1.39998
1.39992
1.4001
1.39999
1.39999
1.40006
1.40009
1.40013
1.40025
1.40038
1.40054
1.40069
1.40089
1.4013
1.40244
1.40512
1.4107
1.42115
1.43558
1.44791
1.45219
1.44762
1.4369
1.42386
1.41084
1.39808
1.38613
1.37127
1.35397
1.34494
1.35007
1.36746
1.38976
1.4102
1.42505
1.43239
1.43663
1.43416
1.43386
1.42903
1.42869
1.43567
1.43239
1.43131
1.42768
1.41649
1.38541
1.33993
1.31079
1.31307
1.33132
1.34634
1.35491
1.36487
1.38249
1.40721
1.43316
1.45369
1.46461
1.46536
1.45846
1.44759
1.43601
1.42565
1.41741
1.41124
1.40698
1.40407
1.40228
1.40174
1.40058
1.40048
1.39984
1.40011
1.39981
1.39981
1.40028
1.39929
1.40077
1.39926
1.40041
1.39975
1.40035
1.39965
1.39964
1.40135
1.39828
1.40188
1.39751
1.40305
1.3969
1.40312
1.39692
1.40273
1.39785
1.40155
1.39916
1.40025
1.40004
1.3999
1.40017
1.39983
1.40008
1.40005
1.39998
1.40007
1.40013
1.40014
1.40025
1.4004
1.40059
1.40075
1.40098
1.40158
1.40314
1.40661
1.41375
1.42633
1.44132
1.45109
1.45111
1.4428
1.42973
1.41587
1.40287
1.39084
1.37941
1.36281
1.34786
1.34967
1.36795
1.3945
1.41909
1.43467
1.44004
1.43895
1.43149
1.42512
1.41924
1.41502
1.40933
1.41797
1.42536
1.43497
1.43869
1.44814
1.44429
1.40488
1.34577
1.30232
1.29465
1.31315
1.33716
1.35717
1.37645
1.39912
1.42369
1.44546
1.45972
1.46442
1.46066
1.45156
1.44041
1.42974
1.42067
1.41379
1.40865
1.40535
1.40289
1.40208
1.40114
1.40037
1.40026
1.3998
1.40012
1.39966
1.4002
1.39953
1.40049
1.39948
1.39994
1.40087
1.39875
1.40076
1.39952
1.40118
1.39841
1.401
1.39925
1.40112
1.39904
1.40067
1.39931
1.40038
1.40026
1.3994
1.40081
1.39907
1.40076
1.3996
1.40022
1.39989
1.39997
1.40012
1.39997
1.40002
1.40015
1.4002
1.40028
1.40044
1.40062
1.40079
1.40112
1.40195
1.40402
1.40843
1.41735
1.43177
1.4461
1.45239
1.4483
1.43704
1.42247
1.40839
1.39587
1.3852
1.37326
1.35538
1.34803
1.36441
1.39375
1.42276
1.44258
1.44678
1.43874
1.42531
1.40731
1.39846
1.3878
1.38623
1.38684
1.37939
1.39918
1.41305
1.4266
1.44076
1.45961
1.46453
1.4282
1.36239
1.31028
1.29525
1.30945
1.33503
1.36226
1.38846
1.41375
1.43672
1.45374
1.46207
1.46161
1.45464
1.44437
1.4336
1.42402
1.41633
1.41062
1.40655
1.4039
1.40258
1.40163
1.40049
1.4004
1.39996
1.39983
1.40029
1.39911
1.40111
1.39873
1.40063
1.40002
1.39994
1.39937
1.40043
1.40112
1.39807
1.40143
1.39803
1.40341
1.39654
1.40319
1.39618
1.40389
1.39668
1.40334
1.39688
1.40212
1.39875
1.40078
1.39978
1.3999
1.40013
1.3999
1.40011
1.40005
1.39997
1.40007
1.4002
1.40035
1.40048
1.40063
1.40084
1.40131
1.40243
1.40509
1.41061
1.42144
1.43704
1.44955
1.452
1.44431
1.43089
1.41548
1.40155
1.39014
1.38081
1.36714
1.3512
1.35665
1.38703
1.42074
1.44539
1.45444
1.44271
1.41813
1.39056
1.37131
1.35552
1.34925
1.35095
1.35348
1.35052
1.36303
1.37405
1.40146
1.41311
1.426
1.45197
1.46117
1.43221
1.37619
1.32678
1.30851
1.31988
1.34521
1.37337
1.40155
1.42708
1.44683
1.45834
1.46116
1.45661
1.44776
1.43719
1.42738
1.41891
1.41272
1.40787
1.40498
1.40355
1.40175
1.40111
1.40019
1.40034
1.39973
1.4001
1.39978
1.40015
1.39941
1.40048
1.40034
1.39838
1.40149
1.39989
1.40012
1.39815
1.402
1.39925
1.40147
1.39728
1.40216
1.39802
1.40289
1.39736
1.40172
1.39873
1.40051
1.40053
1.3992
1.40051
1.39962
1.40039
1.39988
1.39991
1.40018
1.40009
1.40003
1.40017
1.40038
1.40048
1.40065
1.40094
1.40156
1.40302
1.40637
1.41316
1.42583
1.44172
1.45158
1.45025
1.43962
1.42469
1.40897
1.3955
1.38581
1.37691
1.36192
1.35259
1.37294
1.41189
1.44243
1.45865
1.45161
1.42014
1.37927
1.34643
1.32681
1.30802
1.30304
1.30009
1.29952
1.32567
1.32176
1.34321
1.37239
1.39453
1.40227
1.40863
1.4264
1.43682
1.41476
1.37331
1.33932
1.32765
1.33726
1.36124
1.39008
1.417
1.4389
1.45345
1.45931
1.45749
1.45021
1.44048
1.43043
1.42174
1.41464
1.40959
1.40578
1.40436
1.40222
1.40136
1.40052
1.4001
1.40034
1.39929
1.401
1.39842
1.40132
1.3996
1.39921
1.40036
1.40097
1.39942
1.39843
1.4018
1.39956
1.40146
1.39659
1.40305
1.39749
1.40331
1.39664
1.40285
1.39699
1.40326
1.39699
1.40254
1.39828
1.40077
1.39972
1.40006
1.4001
1.39988
1.4001
1.40013
1.40011
1.40022
1.40036
1.40048
1.40072
1.40111
1.40189
1.40375
1.40785
1.41607
1.43028
1.44553
1.45231
1.44754
1.43459
1.41865
1.40305
1.3904
1.38249
1.37332
1.35933
1.35995
1.39315
1.43265
1.45613
1.4606
1.43218
1.38278
1.33411
1.30162
1.27525
1.25553
1.24016
1.23181
1.24538
1.27026
1.2881
1.33079
1.34715
1.38528
1.4127
1.40969
1.4029
1.40314
1.40274
1.3886
1.36248
1.34352
1.34333
1.35838
1.38104
1.40706
1.43096
1.44821
1.45678
1.45745
1.45187
1.44318
1.43326
1.42442
1.41671
1.41125
1.40685
1.40486
1.4031
1.40135
1.40101
1.40006
1.40026
1.39992
1.3998
1.39993
1.40045
1.39918
1.39965
1.40188
1.39847
1.39965
1.39988
1.40246
1.39758
1.40131
1.3975
1.4037
1.39655
1.40374
1.39597
1.40404
1.39569
1.40348
1.39805
1.40116
1.39986
1.39934
1.40055
1.39968
1.40027
1.39993
1.39987
1.40009
1.40021
1.40023
1.40029
1.40049
1.40081
1.40128
1.40228
1.4046
1.40952
1.41925
1.43452
1.44832
1.45198
1.44424
1.42946
1.41294
1.39783
1.3863
1.37973
1.37076
1.36021
1.37154
1.41206
1.44595
1.46202
1.44953
1.40065
1.34276
1.29411
1.25495
1.22282
1.19699
1.17201
1.16704
1.18748
1.19557
1.26058
1.29963
1.33061
1.3764
1.41675
1.43644
1.42894
1.40849
1.39295
1.37701
1.36325
1.35388
1.35023
1.35686
1.37588
1.40061
1.42397
1.4423
1.4535
1.45651
1.45304
1.4452
1.43597
1.42667
1.41901
1.41263
1.40832
1.40575
1.40358
1.40191
1.40091
1.40068
1.39968
1.40072
1.39884
1.40143
1.39851
1.40019
1.40111
1.3993
1.39885
1.40075
1.40141
1.39898
1.39944
1.3994
1.4017
1.39886
1.40178
1.39815
1.40084
1.39826
1.40222
1.3988
1.40235
1.39627
1.40225
1.399
1.40118
1.39964
1.39976
1.40006
1.40003
1.40011
1.40015
1.40018
1.40033
1.40054
1.40084
1.40142
1.40273
1.40551
1.41138
1.42258
1.43832
1.45014
1.45083
1.44066
1.42441
1.40765
1.39343
1.38294
1.37753
1.36996
1.36399
1.38436
1.42556
1.45281
1.45959
1.42841
1.3696
1.31301
1.26318
1.20997
1.16158
1.12441
1.09981
1.09479
1.09646
1.12483
1.18757
1.22641
1.30663
1.34711
1.38515
1.43306
1.45369
1.44184
1.41178
1.38502
1.36741
1.35213
1.34728
1.35729
1.37477
1.39472
1.41677
1.43659
1.4499
1.45508
1.45345
1.44682
1.43815
1.42891
1.42102
1.41422
1.40952
1.40691
1.40388
1.40255
1.40102
1.40076
1.40015
1.39993
1.40027
1.39966
1.39961
1.40083
1.39993
1.39819
1.40164
1.40024
1.40034
1.39719
1.40245
1.39817
1.40382
1.39609
1.40321
1.39485
1.40483
1.39677
1.40534
1.39442
1.40273
1.39762
1.40208
1.40024
1.399
1.40008
1.39994
1.40046
1.4001
1.39988
1.40005
1.40031
1.40051
1.40059
1.40089
1.40166
1.40331
1.40652
1.41342
1.42595
1.44154
1.45114
1.4491
1.43702
1.41962
1.40278
1.38982
1.38017
1.37621
1.37078
1.36932
1.39519
1.43315
1.45567
1.4479
1.40786
1.35359
1.29652
1.22845
1.15013
1.07232
1.02236
1.00594
1.00005
1.00571
1.05946
1.08504
1.15954
1.24884
1.30087
1.35463
1.40127
1.43592
1.45037
1.43696
1.40903
1.37421
1.35337
1.35222
1.35795
1.36892
1.38904
1.41225
1.43202
1.44589
1.45305
1.4531
1.44812
1.4399
1.43116
1.4227
1.41603
1.41046
1.4077
1.40465
1.40272
1.40163
1.40047
1.40075
1.39947
1.40084
1.39871
1.40131
1.39938
1.39906
1.40085
1.40091
1.39891
1.39909
1.40037
1.40164
1.3996
1.39981
1.39827
1.40033
1.40108
1.40151
1.39912
1.39837
1.39982
1.40004
1.40353
1.39723
1.40085
1.39835
1.40101
1.40033
1.39988
1.39982
1.4
1.40016
1.4003
1.40042
1.40059
1.40105
1.40199
1.40394
1.40764
1.41557
1.42919
1.44417
1.45143
1.44702
1.43346
1.41514
1.39842
1.38677
1.37819
1.37573
1.37248
1.37484
1.40176
1.43957
1.45036
1.4338
1.40357
1.34905
1.26692
1.16677
1.0551
0.966289
0.921909
0.917057
0.927822
0.964255
1.00769
1.04595
1.13285
1.18299
1.27389
1.3473
1.38223
1.41149
1.43226
1.43674
1.41698
1.38921
1.37172
1.35703
1.3524
1.36594
1.38698
1.40735
1.42659
1.44205
1.4509
1.45262
1.44882
1.44142
1.43292
1.42446
1.4175
1.41168
1.40833
1.40547
1.40298
1.40192
1.40083
1.40038
1.40035
1.39959
1.40048
1.39976
1.39945
1.40025
1.40125
1.398
1.40052
1.39959
1.40263
1.39746
1.40136
1.39641
1.40435
1.3978
1.404
1.39436
1.40297
1.39633
1.40608
1.39617
1.40217
1.39709
1.40119
1.40113
1.39985
1.39967
1.3994
1.40021
1.40049
1.40014
1.39998
1.40028
1.40069
1.40118
1.40226
1.4046
1.40886
1.41772
1.43214
1.44627
1.45116
1.44471
1.43014
1.41106
1.39458
1.38409
1.37721
1.37562
1.37453
1.37871
1.40693
1.44322
1.43623
1.43281
1.40815
1.32839
1.21012
1.0857
0.956859
0.878408
0.8601
0.864861
0.884572
0.922979
0.964007
1.04969
1.10491
1.15743
1.25598
1.32382
1.37532
1.4084
1.42591
1.43079
1.41975
1.40411
1.37707
1.35512
1.35634
1.36781
1.38198
1.40165
1.42247
1.4388
1.44854
1.45167
1.44898
1.44259
1.43433
1.42618
1.41873
1.41303
1.40922
1.40594
1.4036
1.40194
1.40128
1.40022
1.4006
1.39951
1.40075
1.39884
1.40091
1.39997
1.39927
1.3997
1.40122
1.39984
1.3999
1.39806
1.40186
1.39931
1.40288
1.3966
1.40066
1.39829
1.40317
1.39991
1.39958
1.39905
1.39834
1.40281
1.39899
1.40101
1.39878
1.40011
1.40031
1.40025
1.40007
1.39999
1.40013
1.40055
1.40081
1.40119
1.40257
1.40536
1.41015
1.41981
1.43478
1.44791
1.45055
1.44236
1.42704
1.40762
1.39107
1.3818
1.37707
1.37559
1.37617
1.38092
1.41369
1.43547
1.43046
1.43895
1.39262
1.29475
1.15789
1.01522
0.897731
0.82268
0.805942
0.794312
0.793012
0.82805
0.904038
1.00135
1.063
1.15651
1.21014
1.27727
1.36091
1.41382
1.4342
1.43045
1.42193
1.40106
1.37416
1.36494
1.3628
1.36434
1.37834
1.39891
1.41859
1.43491
1.44597
1.45047
1.44903
1.44346
1.43562
1.42757
1.42
1.41406
1.41018
1.40633
1.40412
1.4022
1.4013
1.4007
1.40004
1.4005
1.39938
1.40055
1.39975
1.3998
1.39953
1.40154
1.39856
1.40073
1.39834
1.40228
1.39901
1.40158
1.39655
1.40219
1.39813
1.40468
1.39554
1.40306
1.39525
1.40475
1.39802
1.40171
1.39831
1.39954
1.40041
1.40056
1.40029
1.39955
1.39972
1.40023
1.40041
1.40056
1.4008
1.40134
1.403
1.4061
1.41147
1.42181
1.43705
1.44918
1.44969
1.44012
1.42405
1.40496
1.38786
1.37981
1.37746
1.37565
1.37658
1.38413
1.41616
1.42325
1.43806
1.4273
1.36538
1.27585
1.1343
0.980165
0.866663
0.758813
0.689442
0.655218
0.662187
0.727229
0.829601
0.92121
1.02906
1.12706
1.18187
1.26291
1.33596
1.39576
1.42667
1.43304
1.42228
1.39846
1.38496
1.37185
1.35907
1.36311
1.37805
1.39565
1.41452
1.43166
1.4436
1.44923
1.4488
1.44403
1.43668
1.42867
1.42127
1.41487
1.41083
1.40696
1.40436
1.40262
1.40134
1.40087
1.40015
1.40035
1.39962
1.40065
1.39899
1.40078
1.39977
1.40001
1.39925
1.40098
1.39938
1.40142
1.39764
1.40175
1.39755
1.4045
1.39644
1.40234
1.39652
1.40213
1.4006
1.39949
1.40079
1.39799
1.40135
1.39984
1.40053
1.39953
1.39977
1.39991
1.40029
1.4003
1.40004
1.40027
1.40097
1.4016
1.40332
1.40677
1.41282
1.42368
1.43882
1.45014
1.4488
1.43799
1.42128
1.40293
1.3852
1.3779
1.37806
1.37577
1.37637
1.38787
1.41095
1.41997
1.43876
1.40367
1.35227
1.2738
1.13704
0.973041
0.817528
0.647371
0.527598
0.520489
0.575116
0.659795
0.762101
0.86609
0.989319
1.08568
1.1929
1.26449
1.31452
1.36862
1.41136
1.43152
1.42262
1.40978
1.391
1.36692
1.35958
1.36522
1.37594
1.39261
1.41171
1.42883
1.44128
1.44779
1.44839
1.44427
1.43755
1.42962
1.42231
1.41574
1.41128
1.40761
1.40457
1.40293
1.40153
1.40082
1.40053
1.39986
1.40049
1.3994
1.40045
1.39981
1.39993
1.39957
1.40106
1.39889
1.40097
1.39879
1.40073
1.39989
1.40106
1.3984
1.401
1.39745
1.40484
1.39568
1.40385
1.39588
1.40201
1.39963
1.40082
1.39982
1.3996
1.3997
1.40028
1.40028
1.40013
1.40004
1.39995
1.40042
1.40118
1.40176
1.40351
1.40754
1.41422
1.42531
1.44021
1.45077
1.44816
1.43593
1.41886
1.40128
1.38329
1.37606
1.37832
1.37629
1.37625
1.38901
1.40417
1.42195
1.4254
1.38998
1.35136
1.27973
1.14728
0.952109
0.729913
0.537152
0.436199
0.467085
0.539017
0.613715
0.70892
0.829572
0.94956
1.06427
1.17921
1.24974
1.30534
1.35215
1.39877
1.42324
1.42739
1.41372
1.38572
1.36962
1.36444
1.36438
1.37401
1.39051
1.40899
1.42606
1.43912
1.44635
1.44782
1.44438
1.43809
1.4305
1.42303
1.41665
1.41185
1.40795
1.40497
1.40304
1.40175
1.40092
1.40048
1.40013
1.40019
1.39965
1.40062
1.39904
1.40085
1.39944
1.40043
1.39915
1.40115
1.3987
1.40177
1.39802
1.40212
1.39647
1.40466
1.39619
1.40309
1.39774
1.39981
1.40175
1.39888
1.40081
1.3992
1.3999
1.4
1.40049
1.40018
1.39974
1.39971
1.40023
1.40032
1.40047
1.40113
1.40199
1.40381
1.40829
1.41554
1.42669
1.44135
1.45107
1.44783
1.43413
1.4168
1.39979
1.3822
1.37452
1.37774
1.37751
1.37616
1.38704
1.40048
1.41889
1.41133
1.38601
1.35608
1.28607
1.13326
0.897368
0.658616
0.519039
0.461791
0.473791
0.523375
0.583635
0.672596
0.799307
0.925713
1.04679
1.13854
1.22574
1.2952
1.34813
1.38845
1.41562
1.42447
1.40736
1.38936
1.37558
1.36404
1.36336
1.373
1.38842
1.40646
1.42367
1.43712
1.44503
1.4471
1.44441
1.4384
1.43118
1.42366
1.41729
1.41244
1.40812
1.4054
1.40308
1.40199
1.40094
1.40052
1.40032
1.39986
1.40032
1.39965
1.40013
1.40012
1.39968
1.4
1.40049
1.39938
1.40037
1.39994
1.39956
1.40064
1.40002
1.39946
1.40141
1.39642
1.40456
1.39665
1.40216
1.39923
1.39959
1.39995
1.40072
1.39983
1.39993
1.39977
1.39982
1.40012
1.4004
1.40016
1.40016
1.40118
1.40236
1.40419
1.40872
1.41681
1.42784
1.44222
1.45108
1.4477
1.4328
1.41523
1.3982
1.38185
1.37361
1.37623
1.3788
1.37659
1.38346
1.39781
1.41119
1.40303
1.38511
1.36504
1.27683
1.09152
0.86135
0.672665
0.581955
0.526723
0.492782
0.517294
0.574584
0.659265
0.771694
0.899107
1.02138
1.11948
1.2096
1.28369
1.34043
1.3802
1.41062
1.41664
1.40853
1.39358
1.3743
1.36344
1.3636
1.37204
1.38675
1.40446
1.42168
1.43534
1.44375
1.44641
1.44422
1.43868
1.43153
1.4243
1.41765
1.41271
1.40847
1.4055
1.40335
1.40199
1.40107
1.4006
1.40022
1.4001
1.40012
1.39968
1.40055
1.39921
1.40073
1.39947
1.40046
1.3992
1.4011
1.39893
1.40118
1.39845
1.40228
1.39655
1.40384
1.39735
1.40105
1.4006
1.39821
1.40115
1.40016
1.3996
1.40038
1.39986
1.39962
1.40026
1.40007
1.40004
1.4001
1.4001
1.40016
1.40136
1.40255
1.4045
1.40908
1.41791
1.42887
1.44276
1.45093
1.44765
1.4321
1.41426
1.3965
1.38188
1.3735
1.37417
1.37926
1.37825
1.37977
1.39303
1.40452
1.39752
1.38794
1.36619
1.25543
1.07098
0.887351
0.735793
0.63157
0.559967
0.511929
0.530365
0.593431
0.670074
0.762959
0.880277
1.00309
1.11702
1.20246
1.27321
1.33104
1.37764
1.40389
1.41323
1.40903
1.39162
1.37455
1.36463
1.3634
1.37114
1.3855
1.40295
1.41998
1.4338
1.44257
1.44574
1.44394
1.43878
1.4318
1.42465
1.41804
1.41282
1.40878
1.4055
1.40362
1.4019
1.4013
1.40049
1.40035
1.40013
1.39995
1.40011
1.39995
1.39982
1.40041
1.39946
1.40029
1.40012
1.39988
1.39969
1.40065
1.39912
1.40093
1.39971
1.3992
1.40206
1.39719
1.40209
1.39943
1.39961
1.40064
1.39988
1.39945
1.40029
1.39992
1.4004
1.39994
1.3996
1.4001
1.40048
1.40024
1.40125
1.40263
1.40483
1.40962
1.41856
1.42989
1.44295
1.45087
1.44738
1.43223
1.41377
1.39516
1.38175
1.3739
1.37249
1.37844
1.3805
1.37776
1.38587
1.39942
1.39467
1.38972
1.35784
1.24996
1.09307
0.937106
0.777025
0.641752
0.577152
0.553601
0.571849
0.630233
0.706198
0.796035
0.896716
1.00568
1.11564
1.20468
1.27132
1.32668
1.37009
1.39802
1.41144
1.40622
1.39138
1.37534
1.36456
1.36307
1.37056
1.3845
1.40156
1.41851
1.43252
1.44157
1.44508
1.44363
1.43868
1.43196
1.42479
1.41836
1.41299
1.40878
1.4057
1.40354
1.4021
1.40122
1.40058
1.40039
1.40005
1.4001
1.40004
1.39979
1.40037
1.39951
1.40041
1.39977
1.40019
1.39956
1.40059
1.39965
1.40042
1.39894
1.40172
1.398
1.40149
1.39972
1.39938
1.40084
1.39972
1.39951
1.40046
1.4
1.40008
1.39981
1.39992
1.40005
1.39978
1.40023
1.40043
1.40013
1.40108
1.40292
1.4051
1.41016
1.41883
1.43071
1.44299
1.45084
1.44703
1.43295
1.41379
1.39471
1.38109
1.3742
1.37211
1.3765
1.382
1.37853
1.37857
1.39309
1.3936
1.38832
1.35381
1.26318
1.12748
0.973558
0.804896
0.670544
0.625655
0.618674
0.620799
0.667147
0.754275
0.85292
0.945786
1.0351
1.12492
1.20954
1.27481
1.32516
1.36503
1.39487
1.40715
1.40401
1.39041
1.37475
1.36463
1.36302
1.37
1.38349
1.40041
1.4174
1.4315
1.44074
1.44447
1.44326
1.43851
1.43191
1.42488
1.4184
1.41301
1.40875
1.40578
1.40348
1.40224
1.40109
1.40078
1.40022
1.40022
1.40003
1.4
1.4
1.40008
1.39974
1.40041
1.39956
1.4002
1.4001
1.40002
1.39952
1.40069
1.3994
1.40045
1.40008
1.39926
1.4009
1.39956
1.39976
1.40049
1.39993
1.39964
1.40035
1.40001
1.3998
1.39998
1.40015
1.39984
1.40009
1.40022
1.40019
1.40108
1.40304
1.40522
1.41054
1.41911
1.43107
1.44305
1.45057
1.447
1.43373
1.41455
1.39524
1.38033
1.37386
1.37267
1.3748
1.38154
1.38102
1.37503
1.38372
1.39113
1.38884
1.35641
1.27625
1.15235
1.00842
0.862638
0.749258
0.69812
0.678602
0.67198
0.713078
0.802624
0.903654
0.993856
1.07237
1.14617
1.21863
1.28139
1.32773
1.36394
1.39018
1.40343
1.40155
1.38908
1.37453
1.36444
1.36265
1.36948
1.38289
1.39973
1.41665
1.43075
1.44007
1.44391
1.44285
1.43824
1.43174
1.4248
1.41835
1.41286
1.40873
1.40566
1.40356
1.40211
1.40122
1.40069
1.40028
1.40026
1.39996
1.40011
1.4
1.39989
1.40021
1.39978
1.40011
1.40007
1.39989
1.39995
1.4001
1.4001
1.4
1.39955
1.40065
1.39961
1.39997
1.4003
1.39988
1.39971
1.40053
1.39969
1.39992
1.40018
1.39981
1.4001
1.40012
1.39974
1.40004
1.40024
1.40031
1.40109
1.40289
1.40532
1.41068
1.41947
1.43105
1.44302
1.45009
1.44731
1.43457
1.41588
1.39655
1.38035
1.3727
1.37296
1.37466
1.37924
1.38295