/*--------------------------------*- C++ -*----------------------------------*\
  =========                 |
  \\      /  F ield         | OpenFOAM: The Open Source CFD Toolbox
   \\    /   O peration     | Website:  https://openfoam.org
    \\  /    A nd           | Version:  6
     \\/     M anipulation  |
\*---------------------------------------------------------------------------*/
FoamFile
{
    version     2.0;
    format      ascii;
    class       volScalarField;
    location    "4.46";
    object      p;
}
// * * * * * * * * * * * * * * * * * * * * * * * * * * * * * * * * * * * * * //

dimensions      [1 -1 -2 0 0 0 0];

internalField   nonuniform List<scalar> 
5625
(
1.00001
1.00001
1.00002
1.00004
1.00007
1.00011
1.00016
1.00024
1.00035
1.00048
1.00064
1.00084
1.00107
1.00134
1.00164
1.00198
1.00234
1.00272
1.00312
1.00353
1.00394
1.00434
1.00472
1.00507
1.00538
1.00566
1.00588
1.00605
1.00616
1.00621
1.0062
1.00612
1.00599
1.0058
1.00556
1.00527
1.00495
1.0046
1.00422
1.00384
1.00345
1.00306
1.00269
1.00234
1.002
1.0017
1.00143
1.00119
1.00097
1.00079
1.00063
1.0005
1.00039
1.0003
1.00023
1.00017
1.00013
1.00009
1.00007
1.00004
1.00003
1.00002
1.00001
1
1
0.999998
0.999997
0.999996
0.999996
0.999996
0.999997
0.999997
0.999998
0.999998
0.999999
1.00002
1.00003
1.00005
1.00008
1.00012
1.00019
1.00028
1.00039
1.00054
1.00074
1.00097
1.00124
1.00157
1.00194
1.00235
1.0028
1.00329
1.0038
1.00433
1.00487
1.0054
1.00591
1.0064
1.00685
1.00725
1.0076
1.00788
1.0081
1.00823
1.00829
1.00828
1.00818
1.00801
1.00776
1.00745
1.00708
1.00666
1.0062
1.0057
1.00519
1.00468
1.00416
1.00366
1.00319
1.00274
1.00233
1.00195
1.00162
1.00133
1.00108
1.00086
1.00068
1.00053
1.00041
1.00031
1.00023
1.00017
1.00012
1.00009
1.00006
1.00004
1.00002
1.00001
1.00001
1
0.999998
0.999996
0.999995
0.999995
0.999995
0.999996
0.999996
0.999997
0.999997
0.999998
1.00004
1.00006
1.00009
1.00014
1.00021
1.00031
1.00044
1.00061
1.00082
1.00109
1.00142
1.0018
1.00224
1.00274
1.0033
1.0039
1.00454
1.00521
1.0059
1.00658
1.00726
1.00792
1.00853
1.0091
1.0096
1.01003
1.01038
1.01064
1.0108
1.01088
1.01085
1.01073
1.01052
1.01021
1.00982
1.00935
1.00882
1.00823
1.0076
1.00694
1.00627
1.0056
1.00494
1.00431
1.00371
1.00316
1.00266
1.00221
1.00181
1.00147
1.00117
1.00093
1.00072
1.00056
1.00042
1.00032
1.00023
1.00017
1.00012
1.00008
1.00005
1.00003
1.00002
1.00001
1
0.999997
0.999995
0.999994
0.999994
0.999994
0.999995
0.999995
0.999996
0.999997
0.999997
1.00007
1.0001
1.00015
1.00023
1.00033
1.00047
1.00066
1.0009
1.00121
1.00158
1.00202
1.00254
1.00314
1.0038
1.00453
1.00532
1.00615
1.00701
1.00788
1.00874
1.00959
1.0104
1.01115
1.01184
1.01245
1.01297
1.01339
1.0137
1.0139
1.01399
1.01396
1.01381
1.01355
1.01318
1.01271
1.01214
1.01149
1.01076
1.00997
1.00915
1.00829
1.00743
1.00658
1.00576
1.00498
1.00425
1.00358
1.00298
1.00245
1.00199
1.00159
1.00126
1.00098
1.00076
1.00057
1.00043
1.00031
1.00022
1.00016
1.00011
1.00007
1.00004
1.00002
1.00001
1
0.999996
0.999993
0.999992
0.999992
0.999992
0.999993
0.999994
0.999995
0.999996
0.999997
1.00011
1.00016
1.00024
1.00035
1.0005
1.0007
1.00097
1.00131
1.00173
1.00223
1.00283
1.00353
1.00431
1.00518
1.00612
1.00713
1.00817
1.00925
1.01033
1.01139
1.01242
1.01339
1.01429
1.0151
1.01582
1.01642
1.0169
1.01726
1.0175
1.0176
1.01756
1.0174
1.0171
1.01668
1.01613
1.01546
1.01469
1.01382
1.01287
1.01186
1.0108
1.00973
1.00866
1.00761
1.00661
1.00566
1.00479
1.004
1.0033
1.00268
1.00215
1.00171
1.00133
1.00103
1.00078
1.00058
1.00043
1.0003
1.00021
1.00014
1.00009
1.00006
1.00003
1.00001
1
0.999996
0.999992
0.99999
0.99999
0.99999
0.999991
0.999992
0.999994
0.999995
0.999996
1.00017
1.00025
1.00036
1.00052
1.00074
1.00102
1.00139
1.00185
1.00242
1.0031
1.00389
1.0048
1.00581
1.00692
1.00811
1.00937
1.01067
1.01198
1.01328
1.01454
1.01575
1.01688
1.01791
1.01883
1.01963
1.02031
1.02084
1.02124
1.02149
1.02161
1.02157
1.0214
1.02107
1.02061
1.02
1.01925
1.01838
1.01738
1.01628
1.01509
1.01383
1.01253
1.01122
1.00992
1.00866
1.00746
1.00634
1.00532
1.0044
1.00359
1.00289
1.0023
1.0018
1.00139
1.00105
1.00079
1.00058
1.00042
1.00029
1.0002
1.00013
1.00008
1.00005
1.00002
1.00001
0.999997
0.999991
0.999988
0.999987
0.999988
0.999989
0.99999
0.999992
0.999993
0.999995
1.00025
1.00037
1.00053
1.00076
1.00106
1.00145
1.00195
1.00257
1.00333
1.00422
1.00525
1.00641
1.0077
1.00909
1.01056
1.01209
1.01365
1.0152
1.01671
1.01816
1.01952
1.02078
1.02191
1.0229
1.02376
1.02447
1.02503
1.02544
1.0257
1.02582
1.02579
1.02561
1.02528
1.02481
1.02418
1.02339
1.02246
1.02137
1.02015
1.01881
1.01737
1.01585
1.01429
1.01272
1.01118
1.00969
1.00828
1.00698
1.00581
1.00476
1.00385
1.00307
1.00241
1.00186
1.00142
1.00106
1.00078
1.00056
1.0004
1.00027
1.00018
1.00011
1.00007
1.00003
1.00001
0.999998
0.999991
0.999986
0.999985
0.999985
0.999986
0.999988
0.99999
0.999992
0.999993
1.00037
1.00053
1.00076
1.00107
1.00149
1.00202
1.00269
1.00351
1.0045
1.00564
1.00696
1.00842
1.01002
1.01172
1.01349
1.0153
1.01711
1.01887
1.02056
1.02215
1.02361
1.02493
1.02609
1.02709
1.02794
1.02863
1.02917
1.02956
1.02981
1.02992
1.0299
1.02974
1.02944
1.02899
1.02839
1.02763
1.0267
1.0256
1.02433
1.0229
1.02133
1.01964
1.01786
1.01603
1.01419
1.01239
1.01067
1.00905
1.00757
1.00624
1.00507
1.00406
1.0032
1.00249
1.0019
1.00143
1.00106
1.00077
1.00054
1.00037
1.00025
1.00016
1.0001
1.00005
1.00002
1
0.999991
0.999985
0.999983
0.999982
0.999983
0.999985
0.999987
0.99999
0.999992
1.00052
1.00075
1.00107
1.00149
1.00205
1.00276
1.00364
1.00471
1.00597
1.00743
1.00907
1.01087
1.0128
1.01482
1.01688
1.01894
1.02095
1.02287
1.02466
1.0263
1.02777
1.02905
1.03015
1.03107
1.03183
1.03243
1.03288
1.03321
1.03341
1.03351
1.03349
1.03337
1.03313
1.03276
1.03226
1.0316
1.03077
1.02976
1.02855
1.02714
1.02554
1.02376
1.02183
1.01979
1.01769
1.01559
1.01353
1.01157
1.00975
1.00809
1.00661
1.00532
1.00422
1.00329
1.00253
1.00191
1.00142
1.00103
1.00074
1.00051
1.00034
1.00022
1.00014
1.00008
1.00004
1.00001
0.999993
0.999984
0.99998
0.999979
0.99998
0.999982
0.999985
0.999987
0.99999
1.00073
1.00105
1.00148
1.00205
1.00278
1.00371
1.00485
1.00622
1.00781
1.00962
1.01162
1.01378
1.01604
1.01836
1.02067
1.02291
1.02504
1.027
1.02877
1.03033
1.03167
1.03279
1.03371
1.03444
1.035
1.03543
1.03573
1.03594
1.03606
1.03612
1.03611
1.03604
1.03589
1.03566
1.03533
1.03487
1.03426
1.03346
1.03245
1.0312
1.02971
1.02798
1.02602
1.02388
1.02159
1.01923
1.01687
1.01456
1.01237
1.01034
1.00851
1.00689
1.0055
1.00431
1.00333
1.00253
1.00189
1.00138
1.00099
1.00069
1.00047
1.00031
1.00019
1.00011
1.00006
1.00002
0.999998
0.999985
0.999979
0.999977
0.999977
0.999979
0.999982
0.999985
0.999988
1.00101
1.00143
1.00201
1.00276
1.00372
1.00492
1.00637
1.00808
1.01005
1.01224
1.01462
1.01713
1.01969
1.02224
1.0247
1.02701
1.0291
1.03096
1.03254
1.03386
1.03491
1.03573
1.03632
1.03674
1.03702
1.03718
1.03727
1.03731
1.03732
1.03732
1.03732
1.03731
1.03729
1.03724
1.03715
1.03697
1.03668
1.03623
1.03557
1.03466
1.03347
1.03197
1.03016
1.02807
1.02573
1.02322
1.02061
1.01799
1.01544
1.01303
1.01081
1.00882
1.00708
1.00559
1.00434
1.00332
1.00249
1.00183
1.00132
1.00093
1.00064
1.00043
1.00027
1.00016
1.00009
1.00004
1.00001
0.999987
0.999978
0.999974
0.999974
0.999976
0.999978
0.999982
0.999985
1.00137
1.00193
1.00269
1.00367
1.0049
1.00642
1.00824
1.01035
1.01272
1.01531
1.01804
1.02085
1.02362
1.02628
1.02874
1.03093
1.03282
1.03437
1.03558
1.03648
1.03709
1.03745
1.0376
1.03761
1.03751
1.03736
1.03718
1.03701
1.03688
1.0368
1.03679
1.03685
1.03697
1.03714
1.03733
1.0375
1.03762
1.03762
1.03745
1.03705
1.03635
1.03529
1.03386
1.03204
1.02985
1.02736
1.02463
1.02179
1.01893
1.01615
1.01353
1.01114
1.00901
1.00717
1.00561
1.00431
1.00325
1.00241
1.00175
1.00124
1.00086
1.00058
1.00037
1.00023
1.00013
1.00006
1.00002
0.999993
0.999979
0.999972
0.99997
0.999972
0.999975
0.999978
0.999982
1.00183
1.00257
1.00355
1.0048
1.00637
1.00826
1.01049
1.01302
1.01581
1.01877
1.0218
1.02479
1.02763
1.03022
1.03247
1.03433
1.03579
1.03683
1.03749
1.0378
1.03783
1.03762
1.03726
1.03679
1.03627
1.03575
1.03528
1.03488
1.0346
1.03444
1.03442
1.03455
1.0348
1.03519
1.03567
1.03621
1.03678
1.03731
1.03772
1.03795
1.03791
1.03752
1.03669
1.03539
1.0336
1.03135
1.02871
1.0258
1.02274
1.01965
1.01665
1.01385
1.01131
1.00907
1.00715
1.00553
1.0042
1.00314
1.0023
1.00164
1.00115
1.00078
1.00051
1.00032
1.00019
1.0001
1.00004
1
0.999982
0.999971
0.999968
0.999968
0.999971
0.999975
0.999979
1.00242
1.00338
1.00463
1.00621
1.00816
1.01047
1.01314
1.01611
1.01927
1.02252
1.02572
1.02874
1.03143
1.03372
1.03553
1.03684
1.03765
1.038
1.03795
1.03756
1.03692
1.0361
1.03517
1.03421
1.03327
1.0324
1.03164
1.03103
1.0306
1.03035
1.03032
1.03049
1.03087
1.03145
1.0322
1.03309
1.0341
1.03515
1.03618
1.03711
1.03783
1.03824
1.03822
1.03768
1.03656
1.03484
1.03255
1.02979
1.0267
1.02343
1.02013
1.01695
1.01399
1.01133
1.009
1.00702
1.00538
1.00404
1.00298
1.00215
1.00152
1.00104
1.00069
1.00044
1.00027
1.00015
1.00007
1.00002
0.999988
0.999972
0.999966
0.999965
0.999967
0.999971
0.999975
1.00316
1.00438
1.00596
1.00792
1.0103
1.01308
1.01619
1.01955
1.02301
1.02641
1.02959
1.03239
1.03469
1.03642
1.03755
1.03809
1.0381
1.03763
1.03679
1.03566
1.03434
1.03291
1.03145
1.03003
1.02871
1.02753
1.02653
1.02573
1.02517
1.02485
1.0248
1.025
1.02547
1.0262
1.02717
1.02835
1.02973
1.03125
1.03285
1.03445
1.03595
1.03723
1.03815
1.03856
1.03834
1.03743
1.03578
1.03346
1.03059
1.02732
1.02386
1.02037
1.01702
1.01394
1.01118
1.0088
1.00679
1.00514
1.00382
1.00278
1.00198
1.00137
1.00092
1.0006
1.00037
1.00021
1.00011
1.00004
0.999999
0.999976
0.999965
0.999962
0.999963
0.999967
0.999972
1.00408
1.00561
1.00757
1.00997
1.01282
1.01606
1.01959
1.02325
1.02685
1.0302
1.0331
1.03542
1.03707
1.03801
1.03826
1.03789
1.03699
1.03567
1.03403
1.03219
1.03025
1.02828
1.02638
1.02458
1.02296
1.02153
1.02034
1.01941
1.01875
1.01838
1.0183
1.01852
1.01905
1.01987
1.02099
1.02239
1.02405
1.02593
1.02799
1.03016
1.03236
1.03446
1.03632
1.03777
1.03863
1.03875
1.03803
1.03646
1.0341
1.0311
1.02766
1.02401
1.02036
1.01688
1.01369
1.01088
1.00848
1.00647
1.00485
1.00356
1.00255
1.00179
1.00122
1.0008
1.00051
1.0003
1.00016
1.00007
1.00002
0.999983
0.999967
0.99996
0.99996
0.999963
0.999968
1.0052
1.00711
1.0095
1.01238
1.0157
1.01938
1.02322
1.02703
1.03055
1.03358
1.03593
1.0375
1.03826
1.03823
1.03749
1.03616
1.03436
1.03222
1.02987
1.02742
1.02497
1.02258
1.02034
1.01828
1.01644
1.01485
1.01354
1.01252
1.0118
1.01139
1.0113
1.01152
1.01207
1.01295
1.01415
1.01567
1.0175
1.01962
1.022
1.0246
1.02734
1.03014
1.03284
1.03529
1.03726
1.03855
1.03898
1.03843
1.03689
1.03446
1.03132
1.02771
1.02389
1.0201
1.01652
1.01327
1.01044
1.00805
1.00608
1.00449
1.00325
1.0023
1.00159
1.00106
1.00068
1.00042
1.00024
1.00012
1.00004
0.999995
0.999971
0.99996
0.999957
0.999959
0.999964
1.00657
1.0089
1.01176
1.01513
1.01892
1.02293
1.02693
1.03065
1.03383
1.03624
1.03778
1.03838
1.03809
1.03701
1.03527
1.03302
1.0304
1.02757
1.02464
1.02172
1.01889
1.01622
1.01376
1.01154
1.00959
1.00793
1.00656
1.0055
1.00476
1.00433
1.00422
1.00443
1.00498
1.00586
1.00708
1.00865
1.01055
1.01279
1.01535
1.01821
1.02132
1.02461
1.02799
1.03128
1.03428
1.03675
1.03843
1.0391
1.03867
1.03711
1.03457
1.03126
1.02748
1.0235
1.0196
1.01595
1.01269
1.00988
1.00753
1.00561
1.0041
1.00293
1.00204
1.00138
1.0009
1.00056
1.00033
1.00017
1.00007
1.00001
0.999979
0.999961
0.999955
0.999956
0.99996
1.00819
1.01099
1.01436
1.01821
1.02236
1.02657
1.0305
1.03385
1.03638
1.03792
1.03842
1.03792
1.03654
1.03443
1.03176
1.0287
1.02542
1.02206
1.01871
1.01547
1.01242
1.00959
1.00703
1.00475
1.00277
1.0011
0.99974
0.998687
0.997943
0.99751
0.99739
0.997586
0.998106
0.998958
1.00015
1.0017
1.0036
1.00586
1.00848
1.01145
1.01475
1.01834
1.02216
1.02608
1.02993
1.03344
1.03634
1.03833
1.03918
1.03877
1.03712
1.03441
1.03092
1.02696
1.02285
1.01887
1.0152
1.01196
1.0092
1.00693
1.00511
1.00368
1.00259
1.00177
1.00117
1.00075
1.00045
1.00025
1.00012
1.00004
0.999991
0.999966
0.999955
0.999953
0.999956
1.0101
1.0134
1.01727
1.02153
1.02591
1.03008
1.03365
1.03635
1.03797
1.03843
1.03778
1.03615
1.03372
1.03068
1.02723
1.02355
1.01978
1.01604
1.01244
1.00904
1.00588
1.00302
1.00046
0.998209
0.996275
0.994654
0.993339
0.992324
0.991605
0.991179
0.991048
0.991216
0.991689
0.992481
0.993605
0.995077
0.99691
0.999116
1.0017
1.00467
1.00802
1.01174
1.01579
1.02011
1.02454
1.02889
1.03286
1.03611
1.03832
1.03923
1.03874
1.03693
1.034
1.0303
1.02617
1.02196
1.01794
1.01429
1.01112
1.00845
1.00628
1.00457
1.00324
1.00224
1.00151
1.00098
1.0006
1.00035
1.00018
1.00007
1.00001
0.999974
0.999957
0.999952
0.999953
1.0123
1.01611
1.02043
1.02497
1.02937
1.03322
1.03615
1.03791
1.03842
1.0377
1.0359
1.03321
1.02986
1.02607
1.02202
1.01789
1.0138
1.00986
1.00614
1.00269
0.99956
0.996751
0.994274
0.992124
0.990294
0.988769
0.987537
0.986586
0.985908
0.985495
0.98535
0.985476
0.985884
0.986588
0.987607
0.988961
0.990674
0.992764
0.995246
0.998131
1.00143
1.00514
1.00926
1.01375
1.01854
1.02346
1.02827
1.03261
1.0361
1.0384
1.03925
1.03858
1.03651
1.03333
1.0294
1.02512
1.02084
1.01683
1.01325
1.01018
1.00764
1.00561
1.00402
1.00281
1.00191
1.00125
1.00079
1.00047
1.00026
1.00012
1.00004
0.999986
0.999961
0.999952
0.999951
1.01478
1.01908
1.02374
1.02837
1.03252
1.03575
1.03776
1.0384
1.0377
1.03581
1.03294
1.02934
1.02526
1.02089
1.01643
1.01201
1.00776
1.00375
1.00004
0.996661
0.993637
0.990966
0.988642
0.98665
0.984971
0.983582
0.982463
0.981597
0.98097
0.980575
0.980411
0.980482
0.980803
0.98139
0.982267
0.983461
0.985004
0.986923
0.989242
0.991979
0.995148
0.998762
1.00283
1.00734
1.01227
1.01752
1.02289
1.02808
1.0327
1.03632
1.03857
1.03922
1.03826
1.03586
1.03238
1.02823
1.02383
1.01953
1.01557
1.0121
1.00918
1.0068
1.00492
1.00347
1.00239
1.00159
1.00102
1.00062
1.00036
1.00018
1.00007
1
0.999969
0.999953
0.999949
1.01752
1.02223
1.02707
1.03153
1.03513
1.03747
1.03836
1.03779
1.0359
1.03293
1.02915
1.02482
1.02018
1.01542
1.0107
1.00616
1.00187
0.997908
0.994307
0.991089
0.988254
0.985793
0.983684
0.981902
0.980417
0.979199
0.978221
0.977458
0.976894
0.97652
0.976332
0.976335
0.976546
0.976987
0.977684
0.978674
0.979993
0.981684
0.983779
0.986307
0.989288
0.992737
0.996669
1.0011
1.00601
1.01138
1.01707
1.02285
1.02835
1.03313
1.03673
1.03878
1.03909
1.03773
1.03494
1.03115
1.0268
1.02233
1.01806
1.01421
1.0109
1.00816
1.00596
1.00424
1.00295
1.00199
1.00129
1.00081
1.00048
1.00025
1.00011
1.00003
0.999982
0.999958
0.999949
1.02047
1.02545
1.03022
1.03423
1.037
1.03825
1.03792
1.03615
1.03318
1.02929
1.02478
1.0199
1.01488
1.00988
1.00505
1.0005
0.996287
0.992472
0.989071
0.986091
0.98352
0.981333
0.979498
0.977976
0.976729
0.975718
0.974909
0.974271
0.973782
0.973432
0.973217
0.973142
0.973223
0.973487
0.973967
0.974704
0.975746
0.977143
0.978946
0.981195
0.983919
0.987141
0.990875
0.995138
0.999944
1.00529
1.0111
1.01722
1.02334
1.02906
1.03386
1.03727
1.03896
1.0388
1.03694
1.03374
1.02964
1.02514
1.02065
1.01647
1.01278
1.00966
1.00713
1.00513
1.0036
1.00245
1.00162
1.00103
1.00062
1.00035
1.00017
1.00006
0.999999
0.999965
0.999951
1.02353
1.02857
1.03302
1.0363
1.03802
1.03807
1.03653
1.03366
1.02975
1.02513
1.02006
1.0148
1.00954
1.00444
0.999613
0.995157
0.991124
0.987546
0.984429
0.981764
0.979527
0.977679
0.976175
0.974965
0.974
0.973233
0.972622
0.972131
0.971734
0.971416
0.971173
0.971012
0.970948
0.971009
0.971235
0.971675
0.972383
0.97342
0.974853
0.976739
0.979125
0.982043
0.985513
0.989548
0.994168
0.999381
1.00517
1.01143
1.01794
1.02435
1.03015
1.0348
1.03785
1.03901
1.03827
1.03587
1.03223
1.02788
1.02328
1.01883
1.0148
1.01132
1.00843
1.00613
1.00434
1.00299
1.002
1.00129
1.0008
1.00046
1.00024
1.0001
1.00002
0.999976
0.999955
1.02658
1.03145
1.03529
1.0376
1.03816
1.03699
1.03433
1.03051
1.02584
1.02064
1.01517
1.00967
1.0043
0.999209
0.994499
0.99024
0.986474
0.983218
0.980466
0.978193
0.976359
0.974915
0.9738
0.972953
0.972315
0.971828
0.971442
0.97112
0.970831
0.970556
0.970289
0.970038
0.969819
0.969661
0.969607
0.96971
0.970032
0.970647
0.971633
0.973067
0.975018
0.977537
0.980655
0.984389
0.988753
0.993763
0.999419
1.00567
1.01238
1.01924
1.0258
1.03153
1.03586
1.03836
1.03886
1.03744
1.03447
1.03044
1.02588
1.02126
1.01693
1.0131
1.00986
1.00724
1.00518
1.0036
1.00244
1.00159
1.001
1.0006
1.00033
1.00016
1.00005
0.999992
0.999962
1.02947
1.0339
1.0369
1.0381
1.03745
1.03514
1.03151
1.02689
1.02162
1.016
1.01027
1.00464
0.999277
0.994299
0.989797
0.985826
0.982414
0.979566
0.977259
0.975452
0.974093
0.973114
0.972443
0.972006
0.97173
0.971551
0.971413
0.971273
0.971101
0.970876
0.970592
0.970253
0.969879
0.969499
0.969153
0.968898
0.968801
0.968943
0.969416
0.970314
0.971731
0.973743
0.976404
0.97974
0.983769
0.9885
0.993942
1.00008
1.00681
1.01393
1.02104
1.02763
1.0331
1.03689
1.03868
1.03839
1.03626
1.03273
1.02837
1.02369
1.01913
1.01499
1.01141
1.00846
1.00611
1.00429
1.00293
1.00194
1.00124
1.00075
1.00043
1.00022
1.00009
1.00001
0.999972
1.03207
1.03581
1.03778
1.0378
1.03601
1.03269
1.02823
1.02297
1.01724
1.01132
1.00545
0.999813
0.994553
0.989783
0.985581
0.981988
0.979017
0.976658
0.974875
0.973608
0.972788
0.972331
0.972147
0.972148
0.972253
0.97239
0.972499
0.972538
0.972478
0.972302
0.972003
0.971587
0.97107
0.970479
0.969854
0.969246
0.968725
0.968373
0.968291
0.968591
0.969389
0.970791
0.972879
0.975705
0.979295
0.98366
0.988808
0.994731
1.00138
1.00858
1.01605
1.02329
1.02971
1.0347
1.03776
1.03868
1.03753
1.03468
1.03067
1.02606
1.02137
1.01695
1.01306
1.00978
1.00713
1.00506
1.00349
1.00234
1.00151
1.00094
1.00055
1.00029
1.00013
1.00004
0.999985
1.03425
1.03709
1.03795
1.03682
1.03398
1.02979
1.02464
1.01888
1.01282
1.00673
1.00081
0.995257
0.990197
0.985728
0.981915
0.978786
0.976341
0.974553
0.973366
0.972705
0.972476
0.972577
0.972898
0.973337
0.973805
0.974228
0.974551
0.974736
0.974761
0.974617
0.974303
0.973824
0.973191
0.972426
0.971562
0.970644
0.969732
0.968907
0.968273
0.96795
0.968076
0.968786
0.970197
0.972397
0.975433
0.979328
0.984088
0.98971
0.996159
1.00333
1.01097
1.01867
1.02586
1.03189
1.03617
1.03832
1.03826
1.03623
1.03272
1.02832
1.02358
1.01897
1.01478
1.01119
1.00824
1.0059
1.00412
1.00279
1.00183
1.00115
1.00069
1.00038
1.00019
1.00007
1
1.03591
1.03773
1.03745
1.03526
1.0315
1.02658
1.02087
1.01473
1.00845
1.00228
0.996417
0.991042
0.986271
0.982191
0.978851
0.976271
0.974433
0.973289
0.972764
0.972756
0.973144
0.9738
0.974599
0.975426
0.976188
0.976818
0.977275
0.977536
0.977594
0.977452
0.977117
0.976595
0.975893
0.97502
0.973994
0.972847
0.971626
0.970401
0.969267
0.96835
0.967799
0.967777
0.968438
0.969911
0.972281
0.975592
0.97986
0.985085
0.991242
0.998253
1.00593
1.01391
1.02169
1.0286
1.03399
1.03734
1.03842
1.03733
1.03446
1.03039
1.02573
1.02099
1.01656
1.01267
1.00942
1.00681
1.0048
1.00328
1.00217
1.00139
1.00085
1.00049
1.00025
1.00011
1.00002
1.03701
1.03776
1.0364
1.03325
1.0287
1.02316
1.01702
1.0106
1.0042
0.99804
0.992329
0.98722
0.982822
0.979213
0.976432
0.974479
0.97332
0.972883
0.973062
0.973721
0.974707
0.975863
0.977048
0.978145
0.979068
0.979769
0.980232
0.980463
0.980479
0.9803
0.979941
0.979412
0.978709
0.977824
0.976753
0.975503
0.974101
0.972598
0.971075
0.96965
0.968477
0.967738
0.967622
0.968303
0.969914
0.972534
0.976203
0.980929
0.986696
0.993444
1.00102
1.00914
1.01733
1.02496
1.03132
1.03581
1.03804
1.03796
1.03586
1.03225
1.02776
1.02298
1.01836
1.01421
1.01067
1.00779
1.00553
1.00382
1.00256
1.00166
1.00103
1.0006
1.00033
1.00015
1.00005
1.03757
1.03725
1.03489
1.03089
1.02567
1.01964
1.01317
1.00657
1.00013
0.994075
0.988594
0.983831
0.979888
0.97683
0.974683
0.97343
0.97301
0.973317
0.974205
0.975492
0.976991
0.978519
0.979923
0.981097
0.981983
0.982566
0.982869
0.982936
0.982819
0.982561
0.982188
0.981706
0.981098
0.980331
0.97937
0.978188
0.976781
0.975172
0.973422
0.97163
0.969948
0.968565
0.967701
0.967573
0.968365
0.970209
0.97318
0.977307
0.982584
0.988969
0.996341
1.00446
1.0129
1.02107
1.02827
1.03381
1.03716
1.03813
1.03688
1.03384
1.02965
1.02491
1.02017
1.01578
1.01197
1.00883
1.00632
1.00441
1.00298
1.00195
1.00123
1.00074
1.00041
1.00021
1.00008
1.03761
1.03628
1.03303
1.0283
1.02251
1.01608
1.00937
1.00268
0.996292
0.990422
0.985248
0.980909
0.977495
0.975062
0.973617
0.973122
0.973476
0.974526
0.976072
0.977881
0.979729
0.981415
0.982795
0.983789
0.984383
0.984614
0.984559
0.984312
0.983964
0.983588
0.983223
0.982868
0.982484
0.982006
0.981353
0.980455
0.979263
0.977765
0.975991
0.974022
0.971993
0.970095
0.968566
0.967662
0.967623
0.968638
0.970832
0.974269
0.978963
0.984888
0.991947
0.999937
1.00849
1.01706
1.02495
1.03141
1.03582
1.03785
1.03751
1.03515
1.03135
1.02675
1.02194
1.01737
1.01332
1.00991
1.00716
1.00503
1.00344
1.00227
1.00145
1.00089
1.00051
1.00027
1.00012
1.03721
1.03495
1.03091
1.02554
1.01929
1.01255
1.00568
0.998988
0.992727
0.987113
0.982318
0.978471
0.975657
0.973914
0.973228
0.973524
0.974649
0.976386
0.978468
0.980612
0.982563
0.98412
0.985166
0.985668
0.985672
0.985284
0.984647
0.983915
0.983228
0.982692
0.982363
0.982236
0.982244
0.982272
0.98218
0.981833
0.981126
0.98
0.978452
0.976535
0.974366
0.972127
0.970067
0.968472
0.967634
0.967805
0.969171
0.971845
0.975873
0.981248
0.987898
0.995652
1.00419
1.01301
1.02144
1.0287
1.0341
1.03717
1.03777
1.03615
1.03283
1.02846
1.02366
1.01895
1.01468
1.01102
1.00804
1.0057
1.00392
1.00262
1.00169
1.00105
1.00062
1.00034
1.00016
1.03644
1.03334
1.0286
1.02269
1.01606
1.0091
1.00216
0.995527
0.989461
0.984169
0.979819
0.976528
0.974373
0.973376
0.973484
0.97457
0.976412
0.97871
0.98113
0.983344
0.98508
0.986159
0.986509
0.986164
0.98524
0.983926
0.982444
0.981023
0.979862
0.979113
0.978852
0.979071
0.979671
0.980477
0.981266
0.981812
0.981927
0.981493
0.980465
0.97887
0.976805
0.97444
0.972025
0.969868
0.968308
0.967662
0.968182
0.970043
0.973336
0.978083
0.984238
0.99166
1.00007
1.00901
1.01784
1.02578
1.03207
1.03612
1.03768
1.03685
1.03409
1.03001
1.0253
1.0205
1.01605
1.01216
1.00894
1.00639
1.00444
1.00299
1.00195
1.00123
1.00074
1.00041
1.00021
1.03538
1.03151
1.02616
1.01981
1.01289
1.00578
0.998827
0.992323
0.986513
0.981602
0.977754
0.975078
0.973634
0.973417
0.974325
0.976155
0.978594
0.981259
0.983745
0.985697
0.986848
0.987054
0.986304
0.984704
0.982461
0.979855
0.977209
0.974842
0.973037
0.971996
0.971828
0.972525
0.973952
0.975863
0.977929
0.979799
0.981168
0.981826
0.981675
0.980718
0.979039
0.9768
0.974245
0.971698
0.969535
0.968134
0.967825
0.968849
0.971357
0.975411
0.980996
0.987999
0.99618
1.00512
1.01422
1.02271
1.02978
1.03476
1.03725
1.03725
1.0351
1.0314
1.02683
1.02201
1.0174
1.01331
1.00987
1.00711
1.00498
1.00338
1.00223
1.00142
1.00086
1.0005
1.00026
1.03408
1.02954
1.02367
1.01695
1.0098
1.00261
0.995714
0.989393
0.983894
0.979418
0.976123
0.974108
0.973412
0.973985
0.975658
0.978131
0.980987
0.983756
0.985983
0.987295
0.987448
0.986344
0.984034
0.980708
0.976676
0.972342
0.968146
0.964528
0.961865
0.960433
0.960375
0.961686
0.964198
0.967585
0.971395
0.975119
0.978284
0.980542
0.981712
0.981769
0.980797
0.978964
0.976517
0.973788
0.97118
0.969129
0.968039
0.968231
0.969926
0.973238
0.978189
0.984699
0.992564
1.00141
1.01066
1.01957
1.02732
1.03314
1.03654
1.03736
1.03588
1.03261
1.02825
1.02345
1.01873
1.01446
1.01081
1.00785
1.00554
1.00379
1.00252
1.00162
1.001
1.00059
1.00032
1.0326
1.02747
1.02116
1.01414
1.00684
0.999625
0.992834
0.986747
0.981607
0.977613
0.974912
0.973593
0.973661
0.975004
0.977362
0.98032
0.983356
0.985921
0.987522
0.987786
0.986492
0.983585
0.979184
0.973582
0.96722
0.96065
0.954471
0.94926
0.945507
0.943567
0.943629
0.94569
0.949549
0.954802
0.960864
0.967043
0.97265
0.977136
0.980184
0.981712
0.981818
0.9807
0.97863
0.975953
0.973093
0.970533
0.968746
0.968142
0.969018
0.971555
0.975823
0.981778
0.98925
0.997904
1.00721
1.01643
1.02474
1.03133
1.03557
1.03722
1.03642
1.03364
1.02954
1.02481
1.02002
1.01559
1.01176
1.0086
1.00611
1.00422
1.00283
1.00183
1.00115
1.00068
1.00038
1.03101
1.02536
1.01868
1.01143
1.00402
0.996836
0.990199
0.98439
0.979648
0.976171
0.974098
0.973496
0.97432
0.976376
0.979292
0.982532
0.985468
0.987489
0.988076
0.986853
0.983614
0.978348
0.971257
0.962762
0.953474
0.944129
0.935513
0.928362
0.92329
0.920734
0.920925
0.923865
0.929319
0.936806
0.945616
0.954867
0.963622
0.971068
0.976672
0.980239
0.981864
0.981804
0.980393
0.978013
0.975115
0.972215
0.969851
0.968515
0.968593
0.970344
0.973893
0.979242
0.986258
0.994645
1.0039
1.01334
1.02211
1.02936
1.0344
1.03685
1.03674
1.03448
1.03069
1.02607
1.02126
1.0167
1.01269
1.00935
1.00669
1.00465
1.00314
1.00206
1.0013
1.00079
1.00045
1.02934
1.02325
1.01626
1.00884
1.00138
0.994257
0.987813
0.982319
0.978007
0.975074
0.973651
0.973765
0.975308
0.977984
0.981294
0.984577
0.987113
0.988236
0.987399
0.984214
0.978485
0.97025
0.959823
0.947789
0.934966
0.922315
0.910829
0.90142
0.894828
0.89157
0.891912
0.895856
0.903129
0.913176
0.925169
0.93805
0.950635
0.961806
0.970733
0.97702
0.980704
0.982103
0.981652
0.979818
0.977098
0.974044
0.971245
0.969271
0.968598
0.969571
0.972384
0.97709
0.983599
0.991652
1.00079
1.01034
1.01948
1.02731
1.03307
1.03628
1.03686
1.03514
1.0317
1.02724
1.02243
1.01778
1.01361
1.0101
1.00728
1.00509
1.00346
1.00228
1.00146
1.00089
1.00052
1.02765
1.02117
1.01393
1.00638
0.998909
0.991894
0.985675
0.980524
0.976667
0.974296
0.973526
0.974339
0.976538
0.979707
0.983216
0.986287
0.988113
0.987975
0.985286
0.979636
0.970839
0.959008
0.944592
0.928387
0.911454
0.895009
0.880272
0.868337
0.860068
0.856055
0.856593
0.861675
0.870982
0.883876
0.899411
0.916372
0.933356
0.948945
0.961963
0.971716
0.978092
0.981428
0.982279
0.981246
0.978917
0.975896
0.97282
0.970322
0.968969
0.969192
0.971268
0.97531
0.981274
0.98894
0.997886
1.00748
1.01689
1.02521
1.03162
1.03555
1.03681
1.03563
1.03256
1.0283
1.02353
1.01881
1.01451
1.01084
1.00786
1.00553
1.00379
1.00252
1.00162
1.00101
1.0006
1.02596
1.01915
1.01171
1.00408
0.996632
0.989748
0.983777
0.978993
0.975607
0.973804
0.973678
0.975149
0.977913
0.981427
0.984928
0.987526
0.988334
0.986566
0.981587
0.972962
0.960528
0.944492
0.925477
0.904521
0.882967
0.86231
0.844012
0.829346
0.819293
0.814504
0.815297
0.821655
0.833209
0.849224
0.868617
0.890013
0.911817
0.93236
0.950124
0.96406
0.973799
0.979613
0.982159
0.982204
0.980477
0.97767
0.974472
0.971578
0.969632
0.969157
0.970513
0.973883
0.979276
0.986514
0.995213
1.00477
1.01438
1.02311
1.0301
1.03469
1.0366
1.03597
1.03329
1.02925
1.02454
1.01978
1.01537
1.01156
1.00843
1.00597
1.00411
1.00275
1.00178
1.00112
1.00067
1.02431
1.01722
1.00961
1.00193
0.994548
0.987816
0.982109
0.977706
0.974799
0.973557
0.974049
0.976121
0.979343
0.98304
0.986323
0.988196
0.987684
0.983924
0.976231
0.964147
0.947552
0.926765
0.902614
0.876414
0.849819
0.824623
0.802531
0.784989
0.773078
0.767498
0.768592
0.776344
0.790344
0.80975
0.83331
0.859454
0.886398
0.912263
0.93525
0.953953
0.967676
0.976522
0.981189
0.982613
0.981704
0.979282
0.976114
0.972955
0.970517
0.969408
0.970077
0.972782
0.97759
0.984371
0.99278
1.00224
1.01197
1.02105
1.02854
1.03374
1.03626
1.03617
1.03389
1.03009
1.02548
1.02069
1.01619
1.01225
1.00898
1.0064
1.00443
1.00298
1.00195
1.00123
1.00075
1.02272
1.0154
1.00765
0.999956
0.992659
0.986096
0.980658
0.976641
0.974213
0.973513
0.974583
0.977183
0.980745
0.984458
0.987321
0.988235
0.986121
0.980033
0.969238
0.953276
0.932075
0.90609
0.876374
0.844548
0.812603
0.782638
0.756601
0.736089
0.722263
0.715865
0.717267
0.726475
0.743066
0.766097
0.794122
0.825318
0.857674
0.889117
0.917634
0.941515
0.959718
0.972098
0.979306
0.982415
0.982541
0.98067
0.977675
0.974376
0.971551
0.969886
0.969914
0.971975
0.976199
0.982506
0.990591
0.999913
1.00971
1.01905
1.02698
1.03272
1.03582
1.03624
1.03437
1.03082
1.02632
1.02154
1.01696
1.01291
1.00952
1.00682
1.00474
1.00321
1.00211
1.00135
1.00083
1.0212
1.0137
1.00584
0.998143
0.990961
0.984578
0.979406
0.975774
0.973819
0.973631
0.975221
0.978269
0.982053
0.985623
0.987882
0.987627
0.983662
0.974954
0.960739
0.940568
0.914433
0.882926
0.84735
0.809651
0.772173
0.737324
0.707277
0.683766
0.668009
0.660772
0.662456
0.673111
0.692334
0.719116
0.751817
0.788322
0.826322
0.863527
0.897747
0.927047
0.950072
0.966385
0.976507
0.981591
0.982956
0.981788
0.979094
0.975774
0.972667
0.97053
0.969976
0.971425
0.975077
0.980904
0.988643
0.997788
1.00759
1.01714
1.02544
1.03168
1.0353
1.03622
1.03473
1.03144
1.02708
1.02231
1.01768
1.01353
1.01003
1.00721
1.00505
1.00343
1.00227
1.00146
1.00091
1.01978
1.01214
1.00418
0.996498
0.989445
0.983258
0.978337
0.975075
0.973581
0.973867
0.975912
0.979321
0.983214
0.986498
0.987993
0.986396
0.980384
0.968833
0.950966
0.926373
0.895109
0.857912
0.816338
0.772678
0.729633
0.68992
0.65593
0.629508
0.6119
0.60386
0.605803
0.617829
0.639585
0.670051
0.707446
0.749365
0.793142
0.836203
0.876183
0.910985
0.939009
0.959522
0.972853
0.980165
0.98295
0.982616
0.980333
0.977095
0.973806
0.971282
0.970214
0.971095
0.974197
0.979549
0.986931
0.995872
1.00565
1.01534
1.02396
1.03063
1.03474
1.03612
1.03501
1.03198
1.02774
1.02301
1.01834
1.01411
1.01051
1.00759
1.00534
1.00365
1.00243
1.00157
1.00098
1.01845
1.01072
1.0027
0.995014
0.988099
0.982124
0.977438
0.974514
0.973464
0.974186
0.976607
0.980291
0.984198
0.987075
0.987673
0.984611
0.97642
0.961885
0.940243
0.911142
0.874713
0.83183
0.784305
0.734778
0.686317
0.641946
0.604259
0.575183
0.555941
0.547234
0.549454
0.562728
0.586764
0.620597
0.66241
0.709584
0.759084
0.807966
0.85364
0.893878
0.926907
0.951734
0.968461
0.978193
0.98255
0.983156
0.98137
0.978302
0.974918
0.972093
0.970579
0.970944
0.973529
0.97842
0.985445
0.994163
1.00388
1.01368
1.02256
1.0296
1.03415
1.03595
1.03519
1.03242
1.02833
1.02364
1.01894
1.01464
1.01095
1.00795
1.00561
1.00385
1.00257
1.00167
1.00105
1.01722
1.00944
1.0014
0.993697
0.986908
0.981161
0.976698
0.974063
0.973429
0.974551
0.977269
0.981142
0.984987
0.987368
0.986976
0.982375
0.971956
0.954394
0.928961
0.895402
0.853937
0.805566
0.752343