/*--------------------------------*- C++ -*----------------------------------*\
  =========                 |
  \\      /  F ield         | OpenFOAM: The Open Source CFD Toolbox
   \\    /   O peration     | Website:  https://openfoam.org
    \\  /    A nd           | Version:  6
     \\/     M anipulation  |
\*---------------------------------------------------------------------------*/
FoamFile
{
    version     2.0;
    format      ascii;
    class       volVectorField;
    location    "3.69";
    object      U;
}
// * * * * * * * * * * * * * * * * * * * * * * * * * * * * * * * * * * * * * //

dimensions      [0 1 -1 0 0 0 0];

internalField   nonuniform List<vector> 
10000
(
(0.8944 0.4472 0)
(0.8944 0.4472 0)
(0.8944 0.4472 0)
(0.8944 0.4472 0)
(0.8944 0.4472 0)
(0.8944 0.4472 0)
(0.8944 0.4472 0)
(0.8944 0.4472 0)
(0.8944 0.4472 0)
(0.8944 0.4472 0)
(0.8944 0.4472 0)
(0.8944 0.4472 0)
(0.8944 0.4472 0)
(0.8944 0.4472 0)
(0.8944 0.4472 0)
(0.8944 0.4472 0)
(0.8944 0.4472 0)
(0.8944 0.4472 0)
(0.8944 0.4472 0)
(0.8944 0.4472 0)
(0.8944 0.4472 0)
(0.8944 0.4472 0)
(0.8944 0.4472 0)
(0.8944 0.4472 0)
(0.8944 0.4472 0)
(0.8944 0.4472 0)
(0.8944 0.4472 0)
(0.8944 0.4472 0)
(0.8944 0.4472 0)
(0.8944 0.4472 0)
(0.8944 0.4472 0)
(0.8944 0.4472 0)
(0.8944 0.4472 0)
(0.8944 0.4472 0)
(0.8944 0.4472 0)
(0.8944 0.4472 0)
(0.8944 0.4472 0)
(0.8944 0.4472 0)
(0.8944 0.4472 0)
(0.8944 0.4472 0)
(0.8944 0.447201 0)
(0.8944 0.447201 0)
(0.8944 0.447201 0)
(0.894399 0.447202 0)
(0.8944 0.447202 0)
(0.8944 0.447203 0)
(0.894402 0.447203 0)
(0.894404 0.447202 0)
(0.894407 0.4472 0)
(0.89441 0.447197 0)
(0.894415 0.447192 0)
(0.894419 0.447185 0)
(0.894422 0.447176 0)
(0.894424 0.447167 0)
(0.894424 0.447158 0)
(0.894422 0.44715 0)
(0.894415 0.447145 0)
(0.894405 0.447144 0)
(0.894393 0.447149 0)
(0.894377 0.447161 0)
(0.894361 0.44718 0)
(0.894345 0.447207 0)
(0.894332 0.44724 0)
(0.894324 0.447277 0)
(0.894321 0.447318 0)
(0.894326 0.447357 0)
(0.894336 0.447392 0)
(0.894351 0.447421 0)
(0.894372 0.447441 0)
(0.894393 0.447449 0)
(0.894413 0.447449 0)
(0.894433 0.447436 0)
(0.894446 0.447414 0)
(0.894454 0.447388 0)
(0.894459 0.447356 0)
(0.894457 0.447322 0)
(0.894451 0.447291 0)
(0.894443 0.447262 0)
(0.894433 0.447237 0)
(0.894423 0.447218 0)
(0.894414 0.447204 0)
(0.894406 0.447195 0)
(0.894401 0.44719 0)
(0.894397 0.447188 0)
(0.894395 0.447188 0)
(0.894394 0.447189 0)
(0.894395 0.447191 0)
(0.894395 0.447193 0)
(0.894396 0.447195 0)
(0.894397 0.447196 0)
(0.894398 0.447197 0)
(0.894398 0.447198 0)
(0.894399 0.447199 0)
(0.894399 0.447199 0)
(0.8944 0.4472 0)
(0.8944 0.4472 0)
(0.8944 0.4472 0)
(0.8944 0.4472 0)
(0.8944 0.4472 0)
(0.8944 0.4472 0)
(0.8944 0.4472 0)
(0.8944 0.4472 0)
(0.8944 0.4472 0)
(0.8944 0.4472 0)
(0.8944 0.4472 0)
(0.8944 0.4472 0)
(0.8944 0.4472 0)
(0.8944 0.4472 0)
(0.8944 0.4472 0)
(0.8944 0.4472 0)
(0.8944 0.4472 0)
(0.8944 0.4472 0)
(0.8944 0.4472 0)
(0.8944 0.4472 0)
(0.8944 0.4472 0)
(0.8944 0.4472 0)
(0.8944 0.4472 0)
(0.8944 0.4472 0)
(0.8944 0.447199 0)
(0.8944 0.4472 0)
(0.8944 0.4472 0)
(0.8944 0.4472 0)
(0.8944 0.4472 0)
(0.8944 0.4472 0)
(0.8944 0.4472 0)
(0.8944 0.4472 0)
(0.8944 0.4472 0)
(0.8944 0.4472 0)
(0.8944 0.4472 0)
(0.8944 0.4472 0)
(0.8944 0.4472 0)
(0.8944 0.4472 0)
(0.8944 0.4472 0)
(0.8944 0.4472 0)
(0.8944 0.4472 0)
(0.8944 0.4472 0)
(0.8944 0.4472 0)
(0.8944 0.4472 0)
(0.8944 0.4472 0)
(0.894399 0.4472 0)
(0.894399 0.447201 0)
(0.894399 0.447201 0)
(0.894399 0.447202 0)
(0.894399 0.447203 0)
(0.894399 0.447203 0)
(0.894401 0.447205 0)
(0.894402 0.447205 0)
(0.894405 0.447205 0)
(0.894409 0.447202 0)
(0.894414 0.447199 0)
(0.89442 0.447192 0)
(0.894426 0.447184 0)
(0.89443 0.447174 0)
(0.894433 0.447163 0)
(0.894433 0.447154 0)
(0.894428 0.447147 0)
(0.894419 0.447146 0)
(0.894404 0.447151 0)
(0.894385 0.447165 0)
(0.894362 0.44719 0)
(0.894337 0.447225 0)
(0.894312 0.447272 0)
(0.89429 0.447328 0)
(0.894274 0.447392 0)
(0.894266 0.44746 0)
(0.894268 0.447528 0)
(0.894281 0.447591 0)
(0.894304 0.447643 0)
(0.894334 0.447682 0)
(0.894371 0.447704 0)
(0.894408 0.447705 0)
(0.894442 0.44769 0)
(0.894473 0.447658 0)
(0.894495 0.447609 0)
(0.894506 0.447553 0)
(0.894511 0.447492 0)
(0.894506 0.447429 0)
(0.894493 0.44737 0)
(0.894477 0.447318 0)
(0.894459 0.447273 0)
(0.894441 0.447239 0)
(0.894425 0.447215 0)
(0.894412 0.447198 0)
(0.894402 0.447189 0)
(0.894396 0.447185 0)
(0.894393 0.447185 0)
(0.894392 0.447186 0)
(0.894393 0.447189 0)
(0.894394 0.447191 0)
(0.894395 0.447194 0)
(0.894396 0.447196 0)
(0.894397 0.447197 0)
(0.894398 0.447198 0)
(0.894399 0.447199 0)
(0.894399 0.447199 0)
(0.8944 0.4472 0)
(0.8944 0.4472 0)
(0.8944 0.4472 0)
(0.8944 0.4472 0)
(0.8944 0.4472 0)
(0.8944 0.4472 0)
(0.8944 0.4472 0)
(0.8944 0.4472 0)
(0.8944 0.4472 0)
(0.8944 0.4472 0)
(0.8944 0.4472 0)
(0.8944 0.4472 0)
(0.8944 0.4472 0)
(0.8944 0.4472 0)
(0.8944 0.4472 0)
(0.8944 0.4472 0)
(0.8944 0.4472 0)
(0.8944 0.4472 0)
(0.8944 0.4472 0)
(0.8944 0.4472 0)
(0.8944 0.4472 0)
(0.8944 0.4472 0)
(0.8944 0.4472 0)
(0.8944 0.4472 0)
(0.8944 0.4472 0)
(0.8944 0.4472 0)
(0.8944 0.4472 0)
(0.8944 0.4472 0)
(0.8944 0.4472 0)
(0.8944 0.4472 0)
(0.8944 0.4472 0)
(0.8944 0.4472 0)
(0.8944 0.4472 0)
(0.8944 0.4472 0)
(0.8944 0.4472 0)
(0.8944 0.4472 0)
(0.8944 0.4472 0)
(0.8944 0.4472 0)
(0.8944 0.4472 0)
(0.8944 0.4472 0)
(0.8944 0.4472 0)
(0.8944 0.4472 0)
(0.8944 0.4472 0)
(0.8944 0.447201 0)
(0.894399 0.447201 0)
(0.894399 0.447201 0)
(0.894399 0.447202 0)
(0.894399 0.447203 0)
(0.894399 0.447205 0)
(0.894399 0.447206 0)
(0.8944 0.447207 0)
(0.894402 0.447208 0)
(0.894406 0.447208 0)
(0.894412 0.447206 0)
(0.894418 0.447201 0)
(0.894426 0.447194 0)
(0.894433 0.447185 0)
(0.894439 0.447175 0)
(0.894441 0.447165 0)
(0.894439 0.447159 0)
(0.894431 0.44716 0)
(0.894415 0.44717 0)
(0.894393 0.447193 0)
(0.894365 0.44723 0)
(0.89433 0.447284 0)
(0.894292 0.447355 0)
(0.894253 0.447444 0)
(0.894218 0.447546 0)
(0.89419 0.44766 0)
(0.894174 0.447781 0)
(0.894174 0.447901 0)
(0.89419 0.448012 0)
(0.894223 0.448107 0)
(0.894271 0.448179 0)
(0.894329 0.44822 0)
(0.894394 0.448229 0)
(0.894458 0.448203 0)
(0.894513 0.448148 0)
(0.894561 0.448066 0)
(0.894593 0.44796 0)
(0.894607 0.447843 0)
(0.894605 0.447723 0)
(0.894591 0.447606 0)
(0.894565 0.447498 0)
(0.894534 0.447406 0)
(0.8945 0.44733 0)
(0.894468 0.447272 0)
(0.894441 0.44723 0)
(0.89442 0.447204 0)
(0.894405 0.447189 0)
(0.894396 0.447183 0)
(0.894391 0.447181 0)
(0.89439 0.447183 0)
(0.89439 0.447187 0)
(0.894392 0.44719 0)
(0.894394 0.447193 0)
(0.894396 0.447195 0)
(0.894397 0.447197 0)
(0.894398 0.447198 0)
(0.894399 0.447199 0)
(0.894399 0.447199 0)
(0.8944 0.4472 0)
(0.8944 0.4472 0)
(0.8944 0.4472 0)
(0.8944 0.4472 0)
(0.8944 0.4472 0)
(0.8944 0.4472 0)
(0.8944 0.4472 0)
(0.8944 0.4472 0)
(0.8944 0.4472 0)
(0.8944 0.4472 0)
(0.8944 0.4472 0)
(0.8944 0.4472 0)
(0.8944 0.4472 0)
(0.8944 0.4472 0)
(0.8944 0.4472 0)
(0.8944 0.4472 0)
(0.8944 0.4472 0)
(0.8944 0.4472 0)
(0.8944 0.4472 0)
(0.8944 0.4472 0)
(0.8944 0.4472 0)
(0.8944 0.4472 0)
(0.8944 0.4472 0)
(0.8944 0.4472 0)
(0.8944 0.4472 0)
(0.8944 0.4472 0)
(0.8944 0.4472 0)
(0.8944 0.4472 0)
(0.8944 0.4472 0)
(0.8944 0.4472 0)
(0.8944 0.4472 0)
(0.8944 0.4472 0)
(0.8944 0.4472 0)
(0.8944 0.4472 0)
(0.8944 0.4472 0)
(0.8944 0.4472 0)
(0.8944 0.4472 0)
(0.8944 0.4472 0)
(0.8944 0.4472 0)
(0.8944 0.4472 0)
(0.8944 0.4472 0)
(0.8944 0.4472 0)
(0.894399 0.447201 0)
(0.894399 0.447201 0)
(0.894399 0.447202 0)
(0.894398 0.447203 0)
(0.894398 0.447205 0)
(0.894398 0.447207 0)
(0.894398 0.447209 0)
(0.8944 0.447212 0)
(0.894403 0.447213 0)
(0.894408 0.447213 0)
(0.894415 0.447211 0)
(0.894424 0.447207 0)
(0.894434 0.4472 0)
(0.894442 0.447191 0)
(0.894448 0.447184 0)
(0.894448 0.447181 0)
(0.89444 0.447186 0)
(0.894423 0.447206 0)
(0.894397 0.447243 0)
(0.89436 0.447304 0)
(0.894313 0.447391 0)
(0.89426 0.447507 0)
(0.894202 0.447651 0)
(0.894143 0.447822 0)
(0.894089 0.448017 0)
(0.894045 0.448229 0)
(0.894018 0.448449 0)
(0.894014 0.448668 0)
(0.894038 0.44887 0)
(0.894088 0.449045 0)
(0.894165 0.449177 0)
(0.894263 0.449256 0)
(0.894372 0.449274 0)
(0.894484 0.449233 0)
(0.894591 0.44913 0)
(0.894679 0.448973 0)
(0.894746 0.448778 0)
(0.894784 0.448555 0)
(0.894791 0.448322 0)
(0.894773 0.448093 0)
(0.894735 0.447878 0)
(0.894681 0.44769 0)
(0.894621 0.447532 0)
(0.894562 0.447407 0)
(0.894507 0.447315 0)
(0.894463 0.447251 0)
(0.89443 0.447211 0)
(0.894407 0.447189 0)
(0.894394 0.44718 0)
(0.894388 0.447178 0)
(0.894387 0.447181 0)
(0.894388 0.447185 0)
(0.894391 0.447189 0)
(0.894393 0.447193 0)
(0.894395 0.447195 0)
(0.894397 0.447197 0)
(0.894398 0.447198 0)
(0.894399 0.447199 0)
(0.894399 0.4472 0)
(0.8944 0.4472 0)
(0.8944 0.4472 0)
(0.8944 0.4472 0)
(0.8944 0.4472 0)
(0.8944 0.4472 0)
(0.8944 0.4472 0)
(0.8944 0.4472 0)
(0.8944 0.4472 0)
(0.8944 0.4472 0)
(0.8944 0.4472 0)
(0.8944 0.4472 0)
(0.8944 0.4472 0)
(0.8944 0.4472 0)
(0.8944 0.4472 0)
(0.8944 0.4472 0)
(0.8944 0.4472 0)
(0.8944 0.4472 0)
(0.8944 0.4472 0)
(0.8944 0.4472 0)
(0.8944 0.4472 0)
(0.8944 0.4472 0)
(0.8944 0.4472 0)
(0.8944 0.4472 0)
(0.8944 0.4472 0)
(0.8944 0.4472 0)
(0.8944 0.4472 0)
(0.8944 0.4472 0)
(0.8944 0.4472 0)
(0.894399 0.4472 0)
(0.894401 0.4472 0)
(0.894399 0.4472 0)
(0.8944 0.4472 0)
(0.894401 0.4472 0)
(0.8944 0.4472 0)
(0.8944 0.4472 0)
(0.8944 0.4472 0)
(0.8944 0.4472 0)
(0.8944 0.4472 0)
(0.8944 0.4472 0)
(0.8944 0.4472 0)
(0.8944 0.447201 0)
(0.894399 0.447201 0)
(0.894398 0.447202 0)
(0.894398 0.447203 0)
(0.894397 0.447205 0)
(0.894397 0.447208 0)
(0.894397 0.447211 0)
(0.894397 0.447214 0)
(0.894399 0.447217 0)
(0.894403 0.44722 0)
(0.89441 0.447221 0)
(0.89442 0.44722 0)
(0.89443 0.447216 0)
(0.894441 0.447211 0)
(0.894449 0.447207 0)
(0.894452 0.447208 0)
(0.894445 0.447221 0)
(0.894426 0.447252 0)
(0.894392 0.44731 0)
(0.894343 0.447404 0)
(0.89428 0.447539 0)
(0.894203 0.447722 0)
(0.894116 0.447955 0)
(0.894025 0.448237 0)
(0.893933 0.448564 0)
(0.893849 0.44893 0)
(0.893782 0.449324 0)
(0.89374 0.449731 0)
(0.893735 0.450131 0)
(0.89377 0.450507 0)
(0.893851 0.450833 0)
(0.89398 0.451082 0)
(0.894146 0.451237 0)
(0.894337 0.451284 0)
(0.894537 0.451213 0)
(0.894731 0.451029 0)
(0.894902 0.450741 0)
(0.895029 0.450372 0)
(0.895106 0.449953 0)
(0.895135 0.449505 0)
(0.895116 0.449058 0)
(0.895054 0.448638 0)
(0.894963 0.448265 0)
(0.894857 0.447949 0)
(0.894747 0.447695 0)
(0.894645 0.447502 0)
(0.894557 0.447364 0)
(0.894489 0.447273 0)
(0.89444 0.447218 0)
(0.894409 0.447189 0)
(0.894392 0.447177 0)
(0.894385 0.447176 0)
(0.894384 0.447179 0)
(0.894386 0.447184 0)
(0.89439 0.447189 0)
(0.894393 0.447193 0)
(0.894395 0.447196 0)
(0.894397 0.447198 0)
(0.894398 0.447199 0)
(0.894399 0.447199 0)
(0.8944 0.4472 0)
(0.8944 0.4472 0)
(0.8944 0.4472 0)
(0.8944 0.4472 0)
(0.8944 0.4472 0)
(0.8944 0.4472 0)
(0.8944 0.4472 0)
(0.8944 0.4472 0)
(0.8944 0.4472 0)
(0.8944 0.4472 0)
(0.8944 0.4472 0)
(0.8944 0.4472 0)
(0.8944 0.4472 0)
(0.8944 0.4472 0)
(0.8944 0.4472 0)
(0.8944 0.4472 0)
(0.8944 0.4472 0)
(0.8944 0.4472 0)
(0.8944 0.4472 0)
(0.8944 0.4472 0)
(0.8944 0.4472 0)
(0.8944 0.4472 0)
(0.8944 0.4472 0)
(0.8944 0.447201 0)
(0.8944 0.447199 0)
(0.8944 0.4472 0)
(0.8944 0.4472 0)
(0.8944 0.4472 0)
(0.8944 0.4472 0)
(0.894401 0.4472 0)
(0.894399 0.4472 0)
(0.894401 0.4472 0)
(0.8944 0.447201 0)
(0.894399 0.447199 0)
(0.8944 0.4472 0)
(0.8944 0.447201 0)
(0.8944 0.4472 0)
(0.8944 0.4472 0)
(0.8944 0.4472 0)
(0.894399 0.447201 0)
(0.894399 0.447201 0)
(0.894398 0.447202 0)
(0.894398 0.447203 0)
(0.894397 0.447205 0)
(0.894396 0.447208 0)
(0.894395 0.447212 0)
(0.894395 0.447216 0)
(0.894396 0.447222 0)
(0.894398 0.447226 0)
(0.894404 0.44723 0)
(0.894412 0.447232 0)
(0.894424 0.447233 0)
(0.894436 0.447232 0)
(0.894447 0.447233 0)
(0.894451 0.447239 0)
(0.894445 0.447259 0)
(0.894423 0.447303 0)
(0.894381 0.447384 0)
(0.894315 0.447515 0)
(0.894225 0.447709 0)
(0.894112 0.447978 0)
(0.893981 0.44833 0)
(0.893837 0.448767 0)
(0.893688 0.449287 0)
(0.893542 0.449883 0)
(0.89341 0.450544 0)
(0.893303 0.451249 0)
(0.893238 0.451974 0)
(0.893227 0.452693 0)
(0.893282 0.45337 0)
(0.893416 0.453963 0)
(0.89363 0.454431 0)
(0.89391 0.454744 0)
(0.894242 0.454868 0)
(0.894606 0.454782 0)
(0.894964 0.454484 0)
(0.89528 0.453996 0)
(0.895528 0.453348 0)
(0.895692 0.452582 0)
(0.895765 0.451749 0)
(0.895745 0.450906 0)
(0.895645 0.450105 0)
(0.895489 0.449385 0)
(0.8953 0.448768 0)
(0.895101 0.448267 0)
(0.894911 0.447882 0)
(0.894746 0.447602 0)
(0.894612 0.447411 0)
(0.894514 0.44729 0)
(0.894447 0.447221 0)
(0.894408 0.447187 0)
(0.894388 0.447175 0)
(0.894381 0.447174 0)
(0.894382 0.447178 0)
(0.894385 0.447184 0)
(0.894389 0.447189 0)
(0.894393 0.447194 0)
(0.894396 0.447196 0)
(0.894398 0.447198 0)
(0.894399 0.447199 0)
(0.894399 0.4472 0)
(0.8944 0.4472 0)
(0.8944 0.4472 0)
(0.8944 0.4472 0)
(0.8944 0.4472 0)
(0.8944 0.4472 0)
(0.8944 0.4472 0)
(0.8944 0.4472 0)
(0.8944 0.4472 0)
(0.8944 0.4472 0)
(0.8944 0.4472 0)
(0.8944 0.4472 0)
(0.8944 0.4472 0)
(0.8944 0.4472 0)
(0.8944 0.4472 0)
(0.8944 0.4472 0)
(0.8944 0.4472 0)
(0.8944 0.4472 0)
(0.8944 0.4472 0)
(0.8944 0.4472 0)
(0.8944 0.4472 0)
(0.8944 0.4472 0)
(0.8944 0.447199 0)
(0.8944 0.447201 0)
(0.8944 0.447199 0)
(0.8944 0.447201 0)
(0.8944 0.4472 0)
(0.8944 0.4472 0)
(0.8944 0.4472 0)
(0.8944 0.4472 0)
(0.894399 0.447199 0)
(0.894401 0.447201 0)
(0.894398 0.4472 0)
(0.894401 0.447199 0)
(0.8944 0.447201 0)
(0.894399 0.4472 0)
(0.894401 0.4472 0)
(0.8944 0.4472 0)
(0.894399 0.4472 0)
(0.894399 0.447201 0)
(0.894398 0.447202 0)
(0.894398 0.447203 0)
(0.894397 0.447205 0)
(0.894396 0.447208 0)
(0.894394 0.447212 0)
(0.894392 0.447218 0)
(0.894392 0.447224 0)
(0.894393 0.447231 0)
(0.894398 0.447237 0)
(0.894405 0.447244 0)
(0.894415 0.447248 0)
(0.894428 0.447253 0)
(0.89444 0.447259 0)
(0.894446 0.447271 0)
(0.89444 0.447298 0)
(0.894416 0.447354 0)
(0.894364 0.447456 0)
(0.894279 0.447622 0)
(0.894155 0.447877 0)
(0.893994 0.44824 0)
(0.893798 0.448728 0)
(0.893573 0.449352 0)
(0.893332 0.450116 0)
(0.893086 0.451014 0)
(0.892847 0.452031 0)
(0.892633 0.453148 0)
(0.89246 0.454332 0)
(0.89235 0.455547 0)
(0.892321 0.456752 0)
(0.892395 0.457894 0)
(0.892599 0.458906 0)
(0.89293 0.45974 0)
(0.893384 0.460335 0)
(0.893947 0.460631 0)
(0.894579 0.460596 0)
(0.895223 0.460217 0)
(0.895818 0.4595 0)
(0.896313 0.458477 0)
(0.89667 0.457204 0)
(0.896853 0.455768 0)
(0.896855 0.454275 0)
(0.896706 0.452819 0)
(0.896446 0.451478 0)
(0.896114 0.450314 0)
(0.895756 0.449359 0)
(0.89541 0.448617 0)
(0.895104 0.44807 0)
(0.894853 0.44769 0)
(0.894663 0.447444 0)
(0.894531 0.447296 0)
(0.894449 0.447218 0)
(0.894403 0.447182 0)
(0.894383 0.447172 0)
(0.894378 0.447173 0)
(0.89438 0.447179 0)
(0.894385 0.447185 0)
(0.89439 0.447191 0)
(0.894394 0.447194 0)
(0.894396 0.447197 0)
(0.894398 0.447198 0)
(0.894399 0.447199 0)
(0.8944 0.4472 0)
(0.8944 0.4472 0)
(0.8944 0.4472 0)
(0.8944 0.4472 0)
(0.8944 0.4472 0)
(0.8944 0.4472 0)
(0.8944 0.4472 0)
(0.8944 0.4472 0)
(0.8944 0.4472 0)
(0.8944 0.4472 0)
(0.8944 0.4472 0)
(0.8944 0.4472 0)
(0.8944 0.4472 0)
(0.8944 0.4472 0)
(0.8944 0.4472 0)
(0.8944 0.4472 0)
(0.8944 0.4472 0)
(0.8944 0.4472 0)
(0.8944 0.4472 0)
(0.8944 0.4472 0)
(0.8944 0.4472 0)
(0.8944 0.4472 0)
(0.8944 0.4472 0)
(0.894399 0.447199 0)
(0.894401 0.447201 0)
(0.8944 0.4472 0)
(0.8944 0.4472 0)
(0.894401 0.4472 0)
(0.894399 0.447201 0)
(0.894401 0.447199 0)
(0.894399 0.447201 0)
(0.894399 0.447198 0)
(0.894403 0.447201 0)
(0.894397 0.447201 0)
(0.8944 0.447199 0)
(0.894401 0.447201 0)
(0.894399 0.4472 0)
(0.894399 0.447201 0)
(0.894398 0.447202 0)
(0.894398 0.447203 0)
(0.894397 0.447205 0)
(0.894395 0.447208 0)
(0.894393 0.447213 0)
(0.894391 0.447218 0)
(0.894389 0.447225 0)
(0.894389 0.447234 0)
(0.894391 0.447243 0)
(0.894396 0.447253 0)
(0.894404 0.447262 0)
(0.894417 0.447272 0)
(0.894428 0.447283 0)
(0.894437 0.447301 0)
(0.894432 0.447335 0)
(0.894406 0.4474 0)
(0.894345 0.447517 0)
(0.89424 0.447714 0)
(0.894081 0.448021 0)
(0.89386 0.448471 0)
(0.89358 0.449096 0)
(0.893248 0.449918 0)
(0.892874 0.450949 0)
(0.892477 0.452191 0)
(0.892075 0.45363 0)
(0.891691 0.455237 0)
(0.891344 0.456977 0)
(0.891059 0.458801 0)
(0.890862 0.46066 0)
(0.890781 0.462491 0)
(0.890856 0.464218 0)
(0.891117 0.465775 0)
(0.891571 0.467097 0)
(0.892243 0.468087 0)
(0.893113 0.468687 0)
(0.894128 0.468844 0)
(0.895214 0.468515 0)
(0.896291 0.467674 0)
(0.897269 0.466321 0)
(0.898033 0.464511 0)
(0.898499 0.462347 0)
(0.898647 0.459967 0)
(0.898502 0.457528 0)
(0.898111 0.455194 0)
(0.897555 0.45311 0)
(0.89693 0.451361 0)
(0.896313 0.449979 0)
(0.89576 0.448948 0)
(0.895301 0.448224 0)
(0.894949 0.447746 0)
(0.894699 0.447452 0)
(0.894536 0.447287 0)
(0.894442 0.447207 0)
(0.894395 0.447175 0)
(0.894377 0.447169 0)
(0.894375 0.447173 0)
(0.89438 0.447181 0)
(0.894385 0.447187 0)
(0.894391 0.447192 0)
(0.894395 0.447196 0)
(0.894397 0.447198 0)
(0.894399 0.447199 0)
(0.894399 0.4472 0)
(0.8944 0.4472 0)
(0.8944 0.4472 0)
(0.8944 0.4472 0)
(0.8944 0.4472 0)
(0.8944 0.4472 0)
(0.8944 0.4472 0)
(0.8944 0.4472 0)
(0.8944 0.4472 0)
(0.8944 0.4472 0)
(0.8944 0.4472 0)
(0.8944 0.4472 0)
(0.8944 0.4472 0)
(0.8944 0.4472 0)
(0.8944 0.4472 0)
(0.8944 0.4472 0)
(0.8944 0.4472 0)
(0.8944 0.4472 0)
(0.8944 0.4472 0)
(0.8944 0.4472 0)
(0.8944 0.4472 0)
(0.8944 0.4472 0)
(0.8944 0.4472 0)
(0.8944 0.4472 0)
(0.894401 0.4472 0)
(0.894399 0.447201 0)
(0.894401 0.447199 0)
(0.894399 0.4472 0)
(0.8944 0.4472 0)
(0.894401 0.4472 0)
(0.894397 0.4472 0)
(0.894404 0.447199 0)
(0.894398 0.447203 0)
(0.894397 0.447197 0)
(0.894403 0.447201 0)
(0.894399 0.447201 0)
(0.894399 0.4472 0)
(0.894399 0.447202 0)
(0.894398 0.447202 0)
(0.894396 0.447205 0)
(0.894396 0.447208 0)
(0.894392 0.447212 0)
(0.894389 0.447218 0)
(0.894387 0.447226 0)
(0.894385 0.447236 0)
(0.894384 0.447247 0)
(0.894387 0.44726 0)
(0.894393 0.447274 0)
(0.894403 0.447288 0)
(0.894415 0.447305 0)
(0.894423 0.447328 0)
(0.894421 0.447367 0)
(0.894394 0.447438 0)
(0.894328 0.447566 0)
(0.894206 0.447782 0)
(0.89401 0.448128 0)
(0.893729 0.448649 0)
(0.893356 0.449391 0)
(0.892892 0.450394 0)
(0.892351 0.451687 0)
(0.891755 0.453275 0)
(0.891128 0.45515 0)
(0.890501 0.457274 0)
(0.889902 0.459597 0)
(0.889358 0.462056 0)
(0.888898 0.464582 0)
(0.88855 0.467104 0)
(0.888353 0.469539 0)
(0.888364 0.471808 0)
(0.888611 0.473858 0)
(0.889137 0.4756 0)
(0.88999 0.476965 0)
(0.891144 0.47793 0)
(0.892582 0.478419 0)
(0.894239 0.47837 0)
(0.896027 0.477714 0)
(0.897783 0.476391 0)
(0.899309 0.474379 0)
(0.900449 0.471709 0)
(0.901096 0.468491 0)
(0.901188 0.464925 0)
(0.900761 0.461288 0)
(0.899955 0.457859 0)
(0.898946 0.454853 0)
(0.897893 0.452401 0)
(0.89692 0.450534 0)
(0.896102 0.449202 0)
(0.895468 0.448311 0)
(0.89501 0.447754 0)
(0.894707 0.447432 0)
(0.894524 0.447264 0)
(0.894426 0.44719 0)
(0.894384 0.447167 0)
(0.894372 0.447167 0)
(0.894374 0.447175 0)
(0.894381 0.447183 0)
(0.894387 0.44719 0)
(0.894392 0.447194 0)
(0.894396 0.447197 0)
(0.894398 0.447198 0)
(0.894399 0.447199 0)
(0.8944 0.4472 0)
(0.8944 0.4472 0)
(0.8944 0.4472 0)
(0.8944 0.4472 0)
(0.8944 0.4472 0)
(0.8944 0.4472 0)
(0.8944 0.4472 0)
(0.8944 0.4472 0)
(0.8944 0.4472 0)
(0.8944 0.4472 0)
(0.8944 0.4472 0)
(0.8944 0.4472 0)
(0.8944 0.4472 0)
(0.8944 0.4472 0)
(0.8944 0.4472 0)
(0.8944 0.4472 0)
(0.8944 0.4472 0)
(0.8944 0.4472 0)
(0.8944 0.4472 0)
(0.8944 0.4472 0)
(0.8944 0.447199 0)
(0.8944 0.447201 0)
(0.8944 0.4472 0)
(0.894399 0.4472 0)
(0.8944 0.447201 0)
(0.894401 0.447198 0)
(0.894398 0.447202 0)
(0.894402 0.447199 0)
(0.894398 0.4472 0)
(0.894401 0.447198 0)
(0.894403 0.447204 0)
(0.894393 0.447198 0)
(0.894405 0.447199 0)
(0.894399 0.447203 0)
(0.894399 0.4472 0)
(0.894399 0.447202 0)
(0.894397 0.447202 0)
(0.894397 0.447205 0)
(0.894394 0.447207 0)
(0.894394 0.447213 0)
(0.894388 0.447218 0)
(0.894385 0.447225 0)
(0.894382 0.447236 0)
(0.89438 0.44725 0)
(0.894379 0.447265 0)
(0.894382 0.447283 0)
(0.894389 0.447302 0)
(0.894399 0.447323 0)
(0.894408 0.447351 0)
(0.894406 0.447394 0)
(0.894381 0.44747 0)
(0.894313 0.447601 0)
(0.89418 0.447827 0)
(0.893956 0.448193 0)
(0.893618 0.448758 0)
(0.89315 0.449586 0)
(0.892548 0.450734 0)
(0.891817 0.452247 0)
(0.890982 0.45415 0)
(0.890081 0.456427 0)
(0.889149 0.459035 0)
(0.888229 0.461899 0)
(0.887354 0.464926 0)
(0.88655 0.46801 0)
(0.885841 0.471063 0)
(0.885258 0.473982 0)
(0.884844 0.476687 0)
(0.884661 0.479116 0)
(0.88474 0.481231 0)
(0.885179 0.482973 0)
(0.885996 0.484396 0)
(0.887234 0.485514 0)
(0.88894 0.486295 0)
(0.891101 0.486745 0)
(0.893667 0.486748 0)
(0.896439 0.48615 0)
(0.899189 0.484775 0)
(0.901641 0.482455 0)
(0.903459 0.479132 0)
(0.904387 0.474919 0)
(0.904373 0.470127 0)
(0.903548 0.465174 0)
(0.902161 0.460501 0)
(0.900517 0.456472 0)
(0.898898 0.453273 0)
(0.897489 0.450924 0)
(0.896375 0.449322 0)
(0.895564 0.448305 0)
(0.895019 0.447707 0)
(0.894682 0.447385 0)
(0.894495 0.447232 0)
(0.894405 0.447173 0)
(0.894373 0.44716 0)
(0.894368 0.447167 0)
(0.894375 0.447177 0)
(0.894383 0.447186 0)
(0.894389 0.447192 0)
(0.894394 0.447196 0)
(0.894397 0.447198 0)
(0.894399 0.447199 0)
(0.894399 0.4472 0)
(0.8944 0.4472 0)
(0.8944 0.4472 0)
(0.8944 0.4472 0)
(0.8944 0.4472 0)
(0.8944 0.4472 0)
(0.8944 0.4472 0)
(0.8944 0.4472 0)
(0.8944 0.4472 0)
(0.8944 0.4472 0)
(0.8944 0.4472 0)
(0.8944 0.4472 0)
(0.8944 0.4472 0)
(0.8944 0.4472 0)
(0.8944 0.4472 0)
(0.8944 0.4472 0)
(0.8944 0.4472 0)
(0.8944 0.447199 0)
(0.8944 0.447201 0)
(0.8944 0.447199 0)
(0.8944 0.4472 0)
(0.894401 0.4472 0)
(0.8944 0.447199 0)
(0.894399 0.447201 0)
(0.894403 0.447199 0)
(0.894397 0.4472 0)
(0.8944 0.447201 0)
(0.894402 0.447199 0)
(0.894397 0.4472 0)
(0.894405 0.447202 0)
(0.894395 0.447202 0)
(0.894399 0.447195 0)
(0.894406 0.447203 0)
(0.894394 0.447201 0)
(0.8944 0.447199 0)
(0.894399 0.447204 0)
(0.894395 0.447203 0)
(0.894395 0.447206 0)
(0.894394 0.447211 0)
(0.894388 0.447218 0)
(0.894383 0.447224 0)
(0.894379 0.447237 0)
(0.894375 0.44725 0)
(0.894371 0.447268 0)
(0.894371 0.447288 0)
(0.894375 0.447311 0)
(0.894382 0.447337 0)
(0.89439 0.447369 0)
(0.894389 0.447417 0)
(0.894366 0.447492 0)
(0.894299 0.447624 0)
(0.894162 0.447849 0)
(0.893921 0.44822 0)
(0.89354 0.448803 0)
(0.892991 0.449677 0)
(0.892252 0.450917 0)
(0.891326 0.452595 0)
(0.890237 0.454742 0)
(0.889023 0.457352 0)
(0.887747 0.460369 0)
(0.886464 0.463681 0)
(0.885218 0.467146 0)
(0.884034 0.470611 0)
(0.882927 0.473925 0)
(0.881901 0.476971 0)
(0.880976 0.47964 0)
(0.880196 0.48187 0)
(0.879607 0.483636 0)
(0.879264 0.484943 0)
(0.879261 0.485874 0)
(0.879607 0.486632 0)
(0.880482 0.487295 0)
(0.881959 0.488057 0)
(0.884187 0.489001 0)
(0.887219 0.490002 0)
(0.890984 0.490893 0)
(0.895321 0.491308 0)
(0.899771 0.490807 0)
(0.903721 0.488975 0)
(0.906612 0.485592 0)
(0.908079 0.480764 0)
(0.908021 0.474891 0)
(0.906667 0.468646 0)
(0.904505 0.462738 0)
(0.902072 0.457703 0)
(0.899792 0.453813 0)
(0.897914 0.451064 0)
(0.896516 0.449276 0)
(0.895563 0.448204 0)
(0.894966 0.447614 0)
(0.894626 0.447321 0)
(0.894454 0.447197 0)
(0.894383 0.447159 0)
(0.894365 0.447158 0)
(0.894368 0.447169 0)
(0.894377 0.447181 0)
(0.894386 0.447189 0)
(0.894392 0.447194 0)
(0.894396 0.447197 0)
(0.894398 0.447199 0)
(0.894399 0.447199 0)
(0.8944 0.4472 0)
(0.8944 0.4472 0)
(0.8944 0.4472 0)
(0.8944 0.4472 0)
(0.8944 0.4472 0)
(0.8944 0.4472 0)
(0.8944 0.4472 0)
(0.8944 0.4472 0)
(0.8944 0.4472 0)
(0.8944 0.4472 0)
(0.8944 0.4472 0)
(0.8944 0.4472 0)
(0.8944 0.4472 0)
(0.8944 0.447199 0)
(0.894399 0.447201 0)
(0.894401 0.447199 0)
(0.894399 0.4472 0)
(0.8944 0.4472 0)
(0.8944 0.4472 0)
(0.8944 0.4472 0)
(0.8944 0.447199 0)
(0.894398 0.447201 0)
(0.894402 0.447201 0)
(0.894402 0.447197 0)
(0.894394 0.447205 0)
(0.894405 0.447195 0)
(0.894397 0.447202 0)
(0.894402 0.447195 0)
(0.894399 0.447208 0)
(0.894394 0.447192 0)
(0.89441 0.447204 0)
(0.894395 0.447203 0)
(0.894397 0.447197 0)
(0.894402 0.447207 0)
(0.894394 0.4472 0)
(0.894397 0.447208 0)
(0.89439 0.447209 0)
(0.894391 0.447216 0)
(0.894381 0.447226 0)
(0.894378 0.447234 0)
(0.894371 0.447251 0)
(0.894366 0.447269 0)
(0.894361 0.447293 0)
(0.894362 0.447318 0)
(0.894365 0.447348 0)
(0.894371 0.447383 0)
(0.89437 0.447433 0)
(0.89435 0.44751 0)
(0.894288 0.447637 0)
(0.894152 0.447854 0)
(0.893905 0.448215 0)
(0.893498 0.448793 0)
(0.892887 0.449673 0)
(0.892036 0.450956 0)
(0.890931 0.452721 0)
(0.889582 0.455031 0)
(0.88805 0.457887 0)
(0.886408 0.461208 0)
(0.884738 0.464858 0)
(0.883117 0.468625 0)
(0.881577 0.472277 0)
(0.880108 0.475588 0)
(0.878683 0.47839 0)
(0.877271 0.480539 0)
(0.875858 0.48196 0)
(0.874486 0.482624 0)
(0.873162 0.482588 0)
(0.871968 0.481956 0)
(0.870905 0.481051 0)
(0.870113 0.480171 0)
(0.869822 0.479634 0)
(0.870203 0.479878 0)
(0.871672 0.480962 0)
(0.874428 0.482925 0)
(0.878732 0.485662 0)
(0.884544 0.488712 0)
(0.891377 0.491456 0)
(0.898479 0.493054 0)
(0.904873 0.492785 0)
(0.909562 0.490158 0)
(0.911882 0.485198 0)
(0.911782 0.478546 0)
(0.909779 0.471187 0)
(0.906693 0.464181 0)
(0.903363 0.45831 0)
(0.900402 0.453906 0)
(0.898098 0.450916 0)
(0.896485 0.449067 0)
(0.895457 0.448024 0)
(0.894861 0.447492 0)
(0.894551 0.447254 0)
(0.894412 0.447168 0)
(0.894366 0.447151 0)
(0.894361 0.44716 0)
(0.89437 0.447174 0)
(0.894381 0.447185 0)
(0.894389 0.447192 0)
(0.894394 0.447196 0)
(0.894397 0.447198 0)
(0.894399 0.447199 0)
(0.894399 0.4472 0)
(0.8944 0.4472 0)
(0.8944 0.4472 0)
(0.8944 0.4472 0)
(0.8944 0.4472 0)
(0.8944 0.4472 0)
(0.8944 0.4472 0)
(0.8944 0.4472 0)
(0.8944 0.4472 0)
(0.8944 0.4472 0)
(0.8944 0.4472 0)
(0.8944 0.4472 0)
(0.8944 0.4472 0)
(0.8944 0.4472 0)
(0.8944 0.4472 0)
(0.894401 0.4472 0)
(0.894399 0.4472 0)
(0.8944 0.447201 0)
(0.8944 0.447199 0)
(0.894401 0.447201 0)
(0.894398 0.447198 0)
(0.8944 0.447203 0)
(0.894404 0.447195 0)
(0.894395 0.447202 0)
(0.8944 0.447203 0)
(0.894406 0.447195 0)
(0.894395 0.447206 0)
(0.894404 0.447199 0)
(0.894393 0.4472 0)
(0.894404 0.447196 0)
(0.894402 0.447201 0)
(0.894392 0.447204 0)
(0.894401 0.447197 0)
(0.8944 0.447209 0)
(0.894394 0.447204 0)
(0.894392 0.447209 0)
(0.89439 0.447215 0)
(0.89438 0.447224 0)
(0.894378 0.447234 0)
(0.894371 0.447251 0)
(0.894358 0.447269 0)
(0.894354 0.447294 0)
(0.894349 0.447323 0)
(0.89435 0.447355 0)
(0.894351 0.447394 0)
(0.894351 0.447445 0)
(0.894332 0.44752 0)
(0.894277 0.447642 0)
(0.894148 0.447847 0)
(0.893904 0.448188 0)
(0.893489 0.448741 0)
(0.892843 0.449598 0)
(0.891912 0.450869 0)
(0.890655 0.452658 0)
(0.889081 0.455045 0)
(0.887236 0.458037 0)
(0.88522 0.461565 0)
(0.883166 0.465442 0)
(0.88118 0.469389 0)
(0.879326 0.473091 0)
(0.8776 0.476224 0)
(0.875913 0.478521 0)
(0.874156 0.479813 0)
(0.872238 0.47999 0)
(0.870106 0.47903 0)
(0.867772 0.476992 0)
(0.865188 0.474043 0)
(0.862411 0.470495 0)
(0.859369 0.466902 0)
(0.856408 0.463719 0)
(0.8537 0.461649 0)
(0.851866 0.461082 0)
(0.851465 0.46206 0)
(0.852984 0.464799 0)
(0.857009 0.469055 0)
(0.863643 0.474552 0)
(0.872739 0.480775 0)
(0.883631 0.486836 0)
(0.894943 0.491584 0)
(0.90492 0.493693 0)
(0.912031 0.492419 0)
(0.91547 0.487769 0)
(0.91532 0.4806 0)
(0.912498 0.47238 0)
(0.908363 0.464565 0)
(0.90414 0.458152 0)
(0.900589 0.453508 0)
(0.897985 0.450497 0)
(0.896277 0.448733 0)
(0.895264 0.447802 0)
(0.894724 0.447368 0)
(0.894472 0.447197 0)
(0.894377 0.44715 0)
(0.894356 0.447151 0)
(0.894362 0.447166 0)
(0.894375 0.447179 0)
(0.894385 0.447189 0)
(0.894392 0.447195 0)
(0.894396 0.447198 0)
(0.894398 0.447199 0)
(0.894399 0.447199 0)
(0.8944 0.4472 0)
(0.8944 0.4472 0)
(0.8944 0.4472 0)
(0.8944 0.4472 0)
(0.8944 0.4472 0)
(0.8944 0.4472 0)
(0.8944 0.4472 0)
(0.8944 0.4472 0)
(0.8944 0.4472 0)
(0.8944 0.4472 0)
(0.894399 0.4472 0)
(0.894401 0.4472 0)
(0.894399 0.4472 0)
(0.894401 0.4472 0)
(0.8944 0.4472 0)
(0.894399 0.4472 0)
(0.894401 0.447201 0)
(0.894401 0.447197 0)
(0.894399 0.447204 0)
(0.894398 0.447196 0)
(0.894405 0.447205 0)
(0.894399 0.447191 0)
(0.894391 0.447211 0)
(0.894414 0.447191 0)
(0.894389 0.4472 0)
(0.894405 0.447201 0)
(0.894393 0.447208 0)
(0.894403 0.447185 0)
(0.894413 0.447221 0)
(0.894384 0.447191 0)
(0.894403 0.447202 0)
(0.894401 0.447208 0)
(0.894383 0.447197 0)
(0.894405 0.447212 0)
(0.894381 0.447211 0)
(0.894386 0.447224 0)
(0.894375 0.447233 0)
(0.894366 0.447245 0)
(0.894358 0.447269 0)
(0.894346 0.447295 0)
(0.894339 0.447325 0)
(0.894334 0.447359 0)
(0.894332 0.447402 0)
(0.89433 0.447453 0)
(0.894314 0.447527 0)
(0.894264 0.447641 0)
(0.894148 0.44783 0)
(0.893914 0.448147 0)
(0.893509 0.448662 0)
(0.892853 0.449473 0)
(0.891875 0.450694 0)
(0.89052 0.452448 0)
(0.888755 0.454824 0)
(0.886629 0.45787 0)
(0.884267 0.461495 0)
(0.88182 0.465495 0)
(0.879479 0.469553 0)
(0.87736 0.473231 0)
(0.875473 0.476117 0)
(0.8737 0.477841 0)
(0.871846 0.478157 0)
(0.869666 0.476936 0)
(0.866991 0.474164 0)
(0.863736 0.469894 0)
(0.859818 0.464336 0)
(0.85516 0.457798 0)
(0.849652 0.450937 0)
(0.843335 0.444483 0)
(0.83657 0.439289 0)
(0.829834 0.436263 0)
(0.824346 0.435574 0)
(0.820819 0.437366 0)
(0.82032 0.441307 0)
(0.823346 0.44672 0)
(0.830188 0.453537 0)
(0.84111 0.461596 0)
(0.855715 0.47079 0)
(0.872626 0.480101 0)
(0.889613 0.487897 0)
(0.904169 0.492496 0)
(0.914208 0.492639 0)
(0.918728 0.488355 0)
(0.918245 0.480862 0)
(0.914415 0.472057 0)
(0.909216 0.463795 0)
(0.904228 0.457233 0)
(0.900289 0.452682 0)
(0.897584 0.449878 0)
(0.895929 0.448334 0)
(0.895023 0.447578 0)
(0.894585 0.447262 0)
(0.894407 0.447159 0)
(0.894355 0.447144 0)
(0.894354 0.447157 0)
(0.894367 0.447173 0)
(0.894381 0.447185 0)
(0.89439 0.447193 0)
(0.894395 0.447197 0)
(0.894398 0.447199 0)
(0.894399 0.447199 0)
(0.894399 0.4472 0)
(0.8944 0.4472 0)
(0.8944 0.4472 0)
(0.8944 0.4472 0)
(0.8944 0.4472 0)
(0.8944 0.4472 0)
(0.894401 0.4472 0)
(0.894399 0.4472 0)
(0.894401 0.4472 0)
(0.894399 0.4472 0)
(0.8944 0.4472 0)
(0.8944 0.4472 0)
(0.894399 0.4472 0)
(0.894402 0.447201 0)
(0.894398 0.447198 0)
(0.894401 0.447203 0)
(0.8944 0.447197 0)
(0.894399 0.447203 0)