# vtk DataFile Version 2.0
inlet_cyc
ASCII
DATASET POLYDATA
POINTS 202 float
-10 7.5 0 -10 7.35 0 -10 7.35 1 -10 7.5
1 -10 7.2 0 -10 7.2 1 -10 7.05 0
-10 7.05 1 -10 6.9 0 -10 6.9 1 -10
6.75 0 -10 6.75 1 -10 6.6 0 -10 6.6
1 -10 6.45 0 -10 6.45 1 -10 6.3 0
-10 6.3 1 -10 6.15 0 -10 6.15 1 -10
6 0 -10 6 1 -10 5.85 0 -10 5.85
1 -10 5.7 0 -10 5.7 1 -10 5.55 0
-10 5.55 1 -10 5.4 0 -10 5.4 1 -10
5.25 0 -10 5.25 1 -10 5.1 0 -10 5.1
1 -10 4.95 0 -10 4.95 1 -10 4.8 0
-10 4.8 1 -10 4.65 0 -10 4.65 1 -10
4.5 0 -10 4.5 1 -10 4.35 0 -10 4.35
1 -10 4.2 0 -10 4.2 1 -10 4.05 0
-10 4.05 1 -10 3.9 0 -10 3.9 1 -10
3.75 0 -10 3.75 1 -10 3.6 0 -10 3.6
1 -10 3.45 0 -10 3.45 1 -10 3.3 0
-10 3.3 1 -10 3.15 0 -10 3.15 1 -10
3 0 -10 3 1 -10 2.85 0 -10 2.85
1 -10 2.7 0 -10 2.7 1 -10 2.55 0
-10 2.55 1 -10 2.4 0 -10 2.4 1 -10
2.25 0 -10 2.25 1 -10 2.1 0 -10 2.1
1 -10 1.95 0 -10 1.95 1 -10 1.8 0
-10 1.8 1 -10 1.65 0 -10 1.65 1 -10
1.5 0 -10 1.5 1 -10 1.35 0 -10 1.35
1 -10 1.2 0 -10 1.2 1 -10 1.05 0
-10 1.05 1 -10 0.9 0 -10 0.9 1 -10
0.75 0 -10 0.75 1 -10 0.6 0 -10 0.6
1 -10 0.45 0 -10 0.45 1 -10 0.3 0
-10 0.3 1 -10 0.15 0 -10 0.15 1 -10
1.09246e-11 0 -10 1.09246e-11 1 -10 -0.15 0 -10 -0.15
1 -10 -0.3 0 -10 -0.3 1 -10 -0.45 0
-10 -0.45 1 -10 -0.6 0 -10 -0.6 1 -10
-0.75 0 -10 -0.75 1 -10 -0.9 0 -10 -0.9
1 -10 -1.05 0 -10 -1.05 1 -10 -1.2 0
-10 -1.2 1 -10 -1.35 0 -10 -1.35 1 -10
-1.5 0 -10 -1.5 1 -10 -1.65 0 -10 -1.65
1 -10 -1.8 0 -10 -1.8 1 -10 -1.95 0
-10 -1.95 1 -10 -2.1 0 -10 -2.1 1 -10
-2.25 0 -10 -2.25 1 -10 -2.4 0 -10 -2.4
1 -10 -2.55 0 -10 -2.55 1 -10 -2.7 0
-10 -2.7 1 -10 -2.85 0 -10 -2.85 1 -10
-3 0 -10 -3 1 -10 -3.15 0 -10 -3.15
1 -10 -3.3 0 -10 -3.3 1 -10 -3.45 0
-10 -3.45 1 -10 -3.6 0 -10 -3.6 1 -10
-3.75 0 -10 -3.75 1 -10 -3.9 0 -10 -3.9
1 -10 -4.05 0 -10 -4.05 1 -10 -4.2 0
-10 -4.2 1 -10 -4.35 0 -10 -4.35 1 -10
-4.5 0 -10 -4.5 1 -10 -4.65 0 -10 -4.65
1 -10 -4.8 0 -10 -4.8 1 -10 -4.95 0
-10 -4.95 1 -10 -5.1 0 -10 -5.1 1 -10
-5.25 0 -10 -5.25 1 -10 -5.4 0 -10 -5.4
1 -10 -5.55 0 -10 -5.55 1 -10 -5.7 0
-10 -5.7 1 -10 -5.85 0 -10 -5.85 1 -10
-6 0 -10 -6 1 -10 -6.15 0 -10 -6.15
1 -10 -6.3 0 -10 -6.3 1 -10 -6.45 0
-10 -6.45 1 -10 -6.6 0 -10 -6.6 1 -10
-6.75 0 -10 -6.75 1 -10 -6.9 0 -10 -6.9
1 -10 -7.05 0 -10 -7.05 1 -10 -7.2 0
-10 -7.2 1 -10 -7.35 0 -10 -7.35 1 -10
-7.5 0 -10 -7.5 1 
POLYGONS 100 500
4 0 1 2 3 4 1 4 5 2 4
4 6 7 5 4 6 8 9 7 4
8 10 11 9 4 10 12 13 11 4
12 14 15 13 4 14 16 17 15 4
16 18 19 17 4 18 20 21 19 4
20 22 23 21 4 22 24 25 23 4
24 26 27 25 4 26 28 29 27 4
28 30 31 29 4 30 32 33 31 4
32 34 35 33 4 34 36 37 35 4
36 38 39 37 4 38 40 41 39 4
40 42 43 41 4 42 44 45 43 4
44 46 47 45 4 46 48 49 47 4
48 50 51 49 4 50 52 53 51 4
52 54 55 53 4 54 56 57 55 4
56 58 59 57 4 58 60 61 59 4
60 62 63 61 4 62 64 65 63 4
64 66 67 65 4 66 68 69 67 4
68 70 71 69 4 70 72 73 71 4
72 74 75 73 4 74 76 77 75 4
76 78 79 77 4 78 80 81 79 4
80 82 83 81 4 82 84 85 83 4
84 86 87 85 4 86 88 89 87 4
88 90 91 89 4 90 92 93 91 4
92 94 95 93 4 94 96 97 95 4
96 98 99 97 4 98 100 101 99 4
100 102 103 101 4 102 104 105 103 4
104 106 107 105 4 106 108 109 107 4
108 110 111 109 4 110 112 113 111 4
112 114 115 113 4 114 116 117 115 4
116 118 119 117 4 118 120 121 119 4
120 122 123 121 4 122 124 125 123 4
124 126 127 125 4 126 128 129 127 4
128 130 131 129 4 130 132 133 131 4
132 134 135 133 4 134 136 137 135 4
136 138 139 137 4 138 140 141 139 4
140 142 143 141 4 142 144 145 143 4
144 146 147 145 4 146 148 149 147 4
148 150 151 149 4 150 152 153 151 4
152 154 155 153 4 154 156 157 155 4
156 158 159 157 4 158 160 161 159 4
160 162 163 161 4 162 164 165 163 4
164 166 167 165 4 166 168 169 167 4
168 170 171 169 4 170 172 173 171 4
172 174 175 173 4 174 176 177 175 4
176 178 179 177 4 178 180 181 179 4
180 182 183 181 4 182 184 185 183 4
184 186 187 185 4 186 188 189 187 4
188 190 191 189 4 190 192 193 191 4
192 194 195 193 4 194 196 197 195 4
196 198 199 197 4 198 200 201 199 
CELL_DATA 100
FIELD attributes 7
patchID 1 100 float
3 3 3 3 3 3 3 3 3 3 3
3 3 3 3 3 3 3 3 3 3
3 3 3 3 3 3 3 3 3 3
3 3 3 3 3 3 3 3 3 3
3 3 3 3 3 3 3 3 3 3
3 3 3 3 3 3 3 3 3 3
3 3 3 3 3 3 3 3 3 3
3 3 3 3 3 3 3 3 3 3
3 3 3 3 3 3 3 3 3 3
3 3 3 3 3 3 3 3 3 
mag(U) 1 100 float
0.999967 0.999965 0.999964 0.999961 0.999958 0.999954 0.999948 0.999942 0.999933 0.999924 0.999915
0.999905 0.999896 0.999887 0.999881 0.99988 0.999884 0.999896 0.999917 0.999948 0.999994
1.00005 1.00012 1.0002 1.00029 1.00039 1.0005 1.00062 1.00073 1.00085 1.00096
1.00107 1.00117 1.00125 1.00131 1.00137 1.0014 1.00142 1.00142 1.00139 1.00136
1.0013 1.00124 1.00117 1.00108 1.00099 1.00089 1.0008 1.0007 1.0006 1.00052
1.00043 1.00037 1.0003 1.00024 1.00019 1.00014 1.00011 1.00007 1.00005 1.00003
1.00002 1 0.999993 0.999986 0.999981 0.999977 0.999974 0.999972 0.999972 0.99997
0.99997 0.99997 0.99997 0.999969 0.999969 0.999969 0.99997 0.99997 0.99997 0.99997
0.99997 0.99997 0.99997 0.99997 0.99997 0.99997 0.99997 0.99997 0.99997 0.99997
0.99997 0.99997 0.99997 0.99997 0.99997 0.999969 0.999969 0.999968 0.999968 
p 1 100 float
0.999996 0.999995 0.999992 0.999989 0.999985 0.99998 0.999973 0.999965 0.999956 0.999946 0.999936
0.999925 0.999915 0.999907 0.999903 0.999904 0.999912 0.999928 0.999955 0.999992 1.00005
1.00011 1.0002 1.00029 1.0004 1.00051 1.00064 1.00076 1.00091 1.00103 1.00117
1.00129 1.00141 1.00151 1.00159 1.00166 1.00171 1.00174 1.00175 1.00175 1.00172
1.00169 1.00162 1.00155 1.00147 1.00138 1.00128 1.00119 1.00108 1.00097 1.00086
1.00077 1.00067 1.00058 1.0005 1.00042 1.00036 1.0003 1.00024 1.00021 1.00016
1.00013 1.00011 1.00008 1.00006 1.00005 1.00004 1.00003 1.00002 1.00002 1.00001
1.00001 1 1 1 1 1 1 1 1 1
1 1 1 1 1 1 1 1 1 1
1 1 1 1 1 1 0.999999 0.999999 0.999997 
T 1 100 float
1 1 1 1 1 1 1 1 1 1 1
1 1 1 1 1 1 1 1 1 1
1 1 1 1 1 1 1 1 1 1
1 1 1 1 1 1 1 1 1 1
1 1 1 1 1 1 1 1 1 1
1 1 1 1 1 1 1 1 1 1
1 1 1 1 1 1 1 1 1 1
1 1 1 1 1 1 1 1 1 1
1 1 1 1 1 1 1 1 1 1
1 1 1 1 1 1 1 1 1 
e 1 100 float
1006.29 1006.29 1006.29 1006.29 1006.29 1006.29 1006.29 1006.29 1006.29 1006.29 1006.29
1006.29 1006.29 1006.29 1006.29 1006.29 1006.29 1006.29 1006.29 1006.29 1006.29
1006.29 1006.29 1006.29 1006.29 1006.29 1006.29 1006.29 1006.29 1006.29 1006.29
1006.29 1006.29 1006.29 1006.29 1006.29 1006.29 1006.29 1006.29 1006.29 1006.29
1006.29 1006.29 1006.29 1006.29 1006.29 1006.29 1006.29 1006.29 1006.29 1006.29
1006.29 1006.29 1006.29 1006.29 1006.29 1006.29 1006.29 1006.29 1006.29 1006.29
1006.29 1006.29 1006.29 1006.29 1006.29 1006.29 1006.29 1006.29 1006.29 1006.29
1006.29 1006.29 1006.29 1006.29 1006.29 1006.29 1006.29 1006.29 1006.29 1006.29
1006.29 1006.29 1006.29 1006.29 1006.29 1006.29 1006.29 1006.29 1006.29 1006.29
1006.29 1006.29 1006.29 1006.29 1006.29 1006.29 1006.29 1006.29 1006.29 
rho 1 100 float
1.4 1.4 1.39999 1.39999 1.39998 1.39997 1.39997 1.39996 1.39995 1.39993 1.39992
1.3999 1.39989 1.39988 1.39987 1.39988 1.39989 1.3999 1.39995 1.4 1.40007
1.40016 1.40028 1.40041 1.40056 1.40072 1.40089 1.40108 1.40127 1.40146 1.40164
1.40181 1.40197 1.40211 1.40223 1.40233 1.4024 1.40244 1.40246 1.40245 1.40242
1.40236 1.40228 1.40218 1.40207 1.40193 1.4018 1.40166 1.40151 1.40137 1.40122
1.40108 1.40094 1.40083 1.40071 1.4006 1.40051 1.40043 1.40035 1.40029 1.40024
1.40019 1.40015 1.40012 1.40009 1.40007 1.40006 1.40004 1.40003 1.40003 1.40002
1.40001 1.40001 1.40001 1.40001 1.40001 1.40001 1.40001 1.40001 1.4 1.40001
1.4 1.4 1.4 1.4 1.4 1.40001 1.40001 1.40001 1.4 1.40001
1.4 1.4 1.4 1.4 1.4 1.4 1.4 1.4 1.4 
U 3 100 float
0.894399 0.447197 0 0.894397 0.447196 0 0.894396 0.447194 0 0.894395 0.447192
0 0.894392 0.44719 0 0.894389 0.447186 0 0.894385 0.447182 0
0.89438 0.447177 0 0.894374 0.447172 0 0.894367 0.447165 0 0.894359
0.447159 0 0.894351 0.447154 0 0.894342 0.447149 0 0.894334 0.447146
0 0.894328 0.447145 0 0.894326 0.447147 0 0.894328 0.447154 0
0.894336 0.447164 0 0.894351 0.44718 0 0.894376 0.447201 0 0.894412
0.447226 0 0.894458 0.447257 0 0.894518 0.447291 0 0.89459 0.447329
0 0.894674 0.447367 0 0.894769 0.447405 0 0.894875 0.447441 0
0.894987 0.447473 0 0.895105 0.447499 0 0.895225 0.44752 0 0.895344
0.447532 0 0.895459 0.447536 0 0.895568 0.447531 0 0.895669 0.447517
0 0.895756 0.447495 0 0.895829 0.447464 0 0.895886 0.447426 0
0.895925 0.447383 0 0.895947 0.447336 0 0.895949 0.447286 0 0.895934
0.447235 0 0.8959 0.447185 0 0.895851 0.447137 0 0.895788 0.447093
0 0.895713 0.447053 0 0.895627 0.447021 0 0.895535 0.446993 0
0.895437 0.446973 0 0.895337 0.446959 0 0.895237 0.446953 0 0.895139
0.446953 0 0.895045 0.446957 0 0.894957 0.446968 0 0.894875 0.446981
0 0.894801 0.446997 0 0.894735 0.447015 0 0.894677 0.447034 0
0.894625 0.447053 0 0.894581 0.447073 0 0.894545 0.447091 0 0.894513
0.447108 0 0.894489 0.447123 0 0.894468 0.447137 0 0.894451 0.447149
0 0.894438 0.44716 0 0.894428 0.447169 0 0.89442 0.447176 0
0.894414 0.447183 0 0.894409 0.447186 0 0.894407 0.44719 0 0.894404
0.447194 0 0.894403 0.447196 0 0.894401 0.447197 0 0.894401 0.447198
0 0.8944 0.447199 0 0.8944 0.447199 0 0.8944 0.447199 0
0.8944 0.4472 0 0.8944 0.4472 0 0.8944 0.4472 0 0.8944
0.4472 0 0.8944 0.4472 0 0.8944 0.4472 0 0.8944 0.4472
0 0.8944 0.4472 0 0.8944 0.4472 0 0.8944 0.4472 0
0.8944 0.4472 0 0.8944 0.4472 0 0.8944 0.4472 0 0.8944
0.4472 0 0.8944 0.4472 0 0.8944 0.4472 0 0.8944 0.4472
0 0.8944 0.4472 0 0.8944 0.4472 0 0.8944 0.447199 0
0.8944 0.447199 0 0.894399 0.447199 0 0.894399 0.447199 0 
POINT_DATA  202
FIELD attributes 6
mag(U) 1 202 float
0.999967 0.999966 0.999966 0.999967 0.999965 0.999965 0.999963 0.999963 0.999959 0.999959 0.999955
0.999955 0.999951 0.999951 0.999945 0.999945 0.999937 0.999937 0.999929 0.999929 0.99992
0.99992 0.99991 0.99991 0.9999 0.9999 0.999891 0.999891 0.999884 0.999884 0.99988
0.99988 0.999882 0.999882 0.99989 0.99989 0.999906 0.999906 0.999933 0.999933 0.999971
0.999971 1.00002 1.00002 1.00008 1.00008 1.00016 1.00016 1.00024 1.00024 1.00034
1.00034 1.00045 1.00045 1.00056 1.00056 1.00067 1.00067 1.00079 1.00079 1.00091
1.00091 1.00101 1.00101 1.00111 1.00111 1.0012 1.0012 1.00128 1.00128 1.00134
1.00134 1.00138 1.00138 1.00141 1.00141 1.00142 1.00142 1.00141 1.00141 1.00138
1.00138 1.00133 1.00133 1.00127 1.00127 1.0012 1.0012 1.00112 1.00112 1.00103
1.00103 1.00094 1.00094 1.00084 1.00084 1.00075 1.00075 1.00065 1.00065 1.00056
1.00056 1.00048 1.00048 1.0004 1.0004 1.00033 1.00033 1.00027 1.00027 1.00022
1.00022 1.00016 1.00016 1.00012 1.00012 1.00009 1.00009 1.00006 1.00006 1.00004
1.00004 1.00002 1.00002 1.00001 1.00001 0.999999 0.999999 0.999989 0.999989 0.999983
0.999983 0.999979 0.999979 0.999976 0.999976 0.999973 0.999973 0.999972 0.999972 0.999971
0.999971 0.99997 0.99997 0.99997 0.99997 0.99997 0.99997 0.99997 0.99997 0.999969
0.999969 0.999969 0.999969 0.99997 0.99997 0.99997 0.99997 0.99997 0.99997 0.99997
0.99997 0.99997 0.99997 0.99997 0.99997 0.99997 0.99997 0.99997 0.99997 0.99997
0.99997 0.99997 0.99997 0.99997 0.99997 0.99997 0.99997 0.99997 0.99997 0.99997
0.99997 0.99997 0.99997 0.99997 0.99997 0.99997 0.99997 0.99997 0.99997 0.99997
0.99997 0.99997 0.99997 0.999969 0.999969 0.999969 0.999969 0.999968 0.999968 0.999968
0.999968 
p 1 202 float
0.999996 0.999996 0.999996 0.999996 0.999994 0.999994 0.999991 0.999991 0.999987 0.999987 0.999982
0.999982 0.999977 0.999977 0.999969 0.999969 0.999961 0.999961 0.999951 0.999951 0.999941
0.999941 0.999931 0.999931 0.99992 0.99992 0.999911 0.999911 0.999905 0.999905 0.999904
0.999904 0.999908 0.999908 0.99992 0.99992 0.999942 0.999942 0.999974 0.999974 1.00002
1.00002 1.00008 1.00008 1.00015 1.00015 1.00024 1.00024 1.00034 1.00034 1.00045
1.00045 1.00057 1.00057 1.0007 1.0007 1.00083 1.00083 1.00097 1.00097 1.0011
1.0011 1.00123 1.00123 1.00135 1.00135 1.00145 1.00145 1.00155 1.00155 1.00162
1.00162 1.00169 1.00169 1.00173 1.00173 1.00175 1.00175 1.00175 1.00175 1.00174
1.00174 1.00171 1.00171 1.00165 1.00165 1.00159 1.00159 1.00152 1.00152 1.00143
1.00143 1.00133 1.00133 1.00124 1.00124 1.00113 1.00113 1.00102 1.00102 1.00092
1.00092 1.00082 1.00082 1.00072 1.00072 1.00063 1.00063 1.00054 1.00054 1.00046
1.00046 1.00039 1.00039 1.00033 1.00033 1.00027 1.00027 1.00022 1.00022 1.00019
1.00019 1.00015 1.00015 1.00012 1.00012 1.0001 1.0001 1.00007 1.00007 1.00005
1.00005 1.00004 1.00004 1.00003 1.00003 1.00002 1.00002 1.00002 1.00002 1.00001
1.00001 1.00001 1.00001 1 1 1 1 1 1 1
1 1 1 1 1 1 1 1 1 1
1 1 1 1 1 1 1 1 1 1
1 1 1 1 1 1 1 1 1 1
1 1 1 1 1 1 1 1 1 1
1 1 1 0.999999 0.999999 0.999999 0.999999 0.999998 0.999998 0.999997
0.999997 
T 1 202 float
1 1 1 1 1 1 1 1 1 1 1
1 1 1 1 1 1 1 1 1 1
1 1 1 1 1 1 1 1 1 1
1 1 1 1 1 1 1 1 1 1
1 1 1 1 1 1 1 1 1 1
1 1 1 1 1 1 1 1 1 1
1 1 1 1 1 1 1 1 1 1
1 1 1 1 1 1 1 1 1 1
1 1 1 1 1 1 1 1 1 1
1 1 1 1 1 1 1 1 1 1
1 1 1 1 1 1 1 1 1 1
1 1 1 1 1 1 1 1 1 1
1 1 1 1 1 1 1 1 1 1
1 1 1 1 1 1 1 1 1 1
1 1 1 1 1 1 1 1 1 1
1 1 1 1 1 1 1 1 1 1
1 1 1 1 1 1 1 1 1 1
1 1 1 1 1 1 1 1 1 1
1 1 1 1 1 1 1 1 1 1
1 1 1 1 1 1 1 1 1 1
1 
e 1 202 float
1006.29 1006.29 1006.29 1006.29 1006.29 1006.29 1006.29 1006.29 1006.29 1006.29 1006.29
1006.29 1006.29 1006.29 1006.29 1006.29 1006.29 1006.29 1006.29 1006.29 1006.29
1006.29 1006.29 1006.29 1006.29 1006.29 1006.29 1006.29 1006.29 1006.29 1006.29
1006.29 1006.29 1006.29 1006.29 1006.29 1006.29 1006.29 1006.29 1006.29 1006.29
1006.29 1006.29 1006.29 1006.29 1006.29 1006.29 1006.29 1006.29 1006.29 1006.29
1006.29 1006.29 1006.29 1006.29 1006.29 1006.29 1006.29 1006.29 1006.29 1006.29
1006.29 1006.29 1006.29 1006.29 1006.29 1006.29 1006.29 1006.29 1006.29 1006.29
1006.29 1006.29 1006.29 1006.29 1006.29 1006.29 1006.29 1006.29 1006.29 1006.29
1006.29 1006.29 1006.29 1006.29 1006.29 1006.29 1006.29 1006.29 1006.29 1006.29
1006.29 1006.29 1006.29 1006.29 1006.29 1006.29 1006.29 1006.29 1006.29 1006.29
1006.29 1006.29 1006.29 1006.29 1006.29 1006.29 1006.29 1006.29 1006.29 1006.29
1006.29 1006.29 1006.29 1006.29 1006.29 1006.29 1006.29 1006.29 1006.29 1006.29
1006.29 1006.29 1006.29 1006.29 1006.29 1006.29 1006.29 1006.29 1006.29 1006.29
1006.29 1006.29 1006.29 1006.29 1006.29 1006.29 1006.29 1006.29 1006.29 1006.29
1006.29 1006.29 1006.29 1006.29 1006.29 1006.29 1006.29 1006.29 1006.29 1006.29
1006.29 1006.29 1006.29 1006.29 1006.29 1006.29 1006.29 1006.29 1006.29 1006.29
1006.29 1006.29 1006.29 1006.29 1006.29 1006.29 1006.29 1006.29 1006.29 1006.29
1006.29 1006.29 1006.29 1006.29 1006.29 1006.29 1006.29 1006.29 1006.29 1006.29
1006.29 1006.29 1006.29 1006.29 1006.29 1006.29 1006.29 1006.29 1006.29 1006.29
1006.29 1006.29 1006.29 1006.29 1006.29 1006.29 1006.29 1006.29 1006.29 1006.29
1006.29 
rho 1 202 float
1.4 1.4 1.4 1.4 1.4 1.4 1.39999 1.39999 1.39999 1.39999 1.39998
1.39998 1.39997 1.39997 1.39996 1.39996 1.39995 1.39995 1.39994 1.39994 1.39992
1.39992 1.39991 1.39991 1.39989 1.39989 1.39988 1.39988 1.39987 1.39987 1.39987
1.39987 1.39988 1.39988 1.39989 1.39989 1.39992 1.39992 1.39997 1.39997 1.40004
1.40004 1.40012 1.40012 1.40022 1.40022 1.40034 1.40034 1.40049 1.40049 1.40064
1.40064 1.40081 1.40081 1.40099 1.40099 1.40117 1.40117 1.40136 1.40136 1.40155
1.40155 1.40172 1.40172 1.40189 1.40189 1.40204 1.40204 1.40217 1.40217 1.40228
1.40228 1.40236 1.40236 1.40242 1.40242 1.40245 1.40245 1.40246 1.40246 1.40244
1.40244 1.40239 1.40239 1.40232 1.40232 1.40223 1.40223 1.40213 1.40213 1.402
1.402 1.40187 1.40187 1.40173 1.40173 1.40158 1.40158 1.40144 1.40144 1.40129
1.40129 1.40115 1.40115 1.40101 1.40101 1.40088 1.40088 1.40077 1.40077 1.40066
1.40066 1.40056 1.40056 1.40047 1.40047 1.40039 1.40039 1.40032 1.40032 1.40026
1.40026 1.40021 1.40021 1.40017 1.40017 1.40014 1.40014 1.40011 1.40011 1.40008
1.40008 1.40006 1.40006 1.40005 1.40005 1.40004 1.40004 1.40003 1.40003 1.40002
1.40002 1.40001 1.40001 1.40001 1.40001 1.40001 1.40001 1.40001 1.40001 1.40001
1.40001 1.40001 1.40001 1.40001 1.40001 1.40001 1.40001 1.4 1.4 1.4
1.4 1.40001 1.40001 1.4 1.4 1.4 1.4 1.4 1.4 1.4
1.4 1.40001 1.40001 1.40001 1.40001 1.40001 1.40001 1.40001 1.40001 1.40001
1.40001 1.4 1.4 1.4 1.4 1.4 1.4 1.4 1.4 1.4
1.4 1.4 1.4 1.4 1.4 1.4 1.4 1.4 1.4 1.4
1.4 
U 3 202 float
0.894399 0.447197 0 0.894398 0.447197 0 0.894398 0.447197 0 0.894399 0.447197
0 0.894397 0.447195 0 0.894397 0.447195 0 0.894395 0.447193 0
0.894395 0.447193 0 0.894393 0.447191 0 0.894393 0.447191 0 0.894391
0.447188 0 0.894391 0.447188 0 0.894387 0.447184 0 0.894387 0.447184
0 0.894382 0.447179 0 0.894382 0.447179 0 0.894377 0.447174 0
0.894377 0.447174 0 0.89437 0.447168 0 0.89437 0.447168 0 0.894363
0.447163 0 0.894363 0.447163 0 0.894355 0.447157 0 0.894355 0.447157
0 0.894346 0.447152 0 0.894346 0.447152 0 0.894338 0.447147 0
0.894338 0.447147 0 0.894332 0.447145 0 0.894332 0.447145 0 0.894327
0.447146 0 0.894327 0.447146 0 0.894327 0.44715 0 0.894327 0.44715
0 0.894332 0.447159 0 0.894332 0.447159 0 0.894343 0.447172 0
0.894343 0.447172 0 0.894364 0.44719 0 0.894364 0.44719 0 0.894394
0.447214 0 0.894394 0.447214 0 0.894435 0.447242 0 0.894435 0.447242
0 0.894488 0.447275 0 0.894488 0.447275 0 0.894554 0.44731 0
0.894554 0.44731 0 0.894632 0.447348 0 0.894632 0.447348 0 0.894722
0.447386 0 0.894722 0.447386 0 0.894822 0.447423 0 0.894822 0.447423
0 0.894931 0.447457 0 0.894931 0.447457 0 0.895046 0.447486 0
0.895046 0.447486 0 0.895164 0.447509 0 0.895164 0.447509 0 0.895284
0.447526 0 0.895284 0.447526 0 0.895402 0.447534 0 0.895402 0.447534
0 0.895514 0.447533 0 0.895514 0.447533 0 0.895618 0.447524 0
0.895618 0.447524 0 0.895712 0.447506 0 0.895712 0.447506 0 0.895792
0.447479 0 0.895792 0.447479 0 0.895857 0.447445 0 0.895857 0.447445
0 0.895905 0.447405 0 0.895905 0.447405 0 0.895936 0.44736 0
0.895936 0.44736 0 0.895948 0.447311 0 0.895948 0.447311 0 0.895941
0.44726 0 0.895941 0.44726 0 0.895917 0.44721 0 0.895917 0.44721
0 0.895876 0.447161 0 0.895876 0.447161 0 0.89582 0.447115 0
0.89582 0.447115 0 0.895751 0.447073 0 0.895751 0.447073 0 0.89567
0.447037 0 0.89567 0.447037 0 0.895581 0.447007 0 0.895581 0.447007
0 0.895486 0.446983 0 0.895486 0.446983 0 0.895387 0.446966 0
0.895387 0.446966 0 0.895287 0.446956 0 0.895287 0.446956 0 0.895188
0.446953 0 0.895188 0.446953 0 0.895092 0.446955 0 0.895092 0.446955
0 0.895001 0.446963 0 0.895001 0.446963 0 0.894916 0.446974 0
0.894916 0.446974 0 0.894838 0.446988 0 0.894838 0.446988 0 0.894768
0.447006 0 0.894768 0.447006 0 0.894706 0.447024 0 0.894706 0.447024
0 0.894651 0.447044 0 0.894651 0.447044 0 0.894603 0.447063 0
0.894603 0.447063 0 0.894563 0.447082 0 0.894563 0.447082 0 0.894529
0.447099 0 0.894529 0.447099 0 0.894501 0.447116 0 0.894501 0.447116
0 0.894478 0.44713 0 0.894478 0.44713 0 0.89446 0.447143 0
0.89446 0.447143 0 0.894445 0.447155 0 0.894445 0.447155 0 0.894433
0.447165 0 0.894433 0.447165 0 0.894424 0.447173 0 0.894424 0.447173
0 0.894417 0.447179 0 0.894417 0.447179 0 0.894412 0.447185 0
0.894412 0.447185 0 0.894408 0.447188 0 0.894408 0.447188 0 0.894406
0.447192 0 0.894406 0.447192 0 0.894404 0.447194 0 0.894404 0.447194
0 0.894402 0.447196 0 0.894402 0.447196 0 0.894401 0.447197 0
0.894401 0.447197 0 0.894401 0.447199 0 0.894401 0.447199 0 0.8944
0.447199 0 0.8944 0.447199 0 0.8944 0.447199 0 0.8944 0.447199
0 0.8944 0.4472 0 0.8944 0.4472 0 0.8944 0.4472 0
0.8944 0.4472 0 0.8944 0.4472 0 0.8944 0.4472 0 0.8944
0.4472 0 0.8944 0.4472 0 0.8944 0.4472 0 0.8944 0.4472
0 0.8944 0.4472 0 0.8944 0.4472 0 0.8944 0.4472 0
0.8944 0.4472 0 0.8944 0.4472 0 0.8944 0.4472 0 0.8944
0.4472 0 0.8944 0.4472 0 0.8944 0.4472 0 0.8944 0.4472
0 0.8944 0.4472 0 0.8944 0.4472 0 0.8944 0.4472 0
0.8944 0.4472 0 0.8944 0.4472 0 0.8944 0.4472 0 0.8944
0.4472 0 0.8944 0.4472 0 0.8944 0.4472 0 0.8944 0.4472
0 0.8944 0.4472 0 0.8944 0.4472 0 0.8944 0.4472 0
0.8944 0.4472 0 0.8944 0.4472 0 0.8944 0.4472 0 0.8944
0.4472 0 0.8944 0.4472 0 0.8944 0.4472 0 0.8944 0.4472
0 0.8944 0.447199 0 0.8944 0.447199 0 0.8944 0.447199 0
0.8944 0.447199 0 0.894399 0.447199 0 0.894399 0.447199 0 0.894399
0.447199 0 0.894399 0.447199 0 
