/*--------------------------------*- C++ -*----------------------------------*\
  =========                 |
  \\      /  F ield         | OpenFOAM: The Open Source CFD Toolbox
   \\    /   O peration     | Website:  https://openfoam.org
    \\  /    A nd           | Version:  6
     \\/     M anipulation  |
\*---------------------------------------------------------------------------*/
FoamFile
{
    version     2.0;
    format      ascii;
    class       surfaceScalarField;
    location    "1.44";
    object      meshPhi;
}
// * * * * * * * * * * * * * * * * * * * * * * * * * * * * * * * * * * * * * //

dimensions      [0 3 -1 0 0 0 0];

internalField   nonuniform List<scalar> 
8193
(
0.00313131
-0.000121055
-0.00129329
0.00433055
-0.000310342
0.00499895
-0.000574871
0.00525571
-0.000908958
0.00522008
-0.00129847
0.00500213
-0.00172276
0.00469566
-0.0021569
0.00437363
-0.00257414
0.00408605
-0.00294805
0.00385989
-0.00325457
0.00370094
-0.00347341
0.00359683
-0.00358918
0.003521
-0.00359189
0.00343708
-0.00347716
0.00330333
-0.00324592
0.00307683
-0.00290403
0.00271734
-0.00246163
0.00219055
-0.00193242
0.00147077
-0.00133299
0.000543111
-0.000682091
-0.000595037
-2.35287e-21
-0.001933
0.000692069
-0.00344643
0.00137256
-0.00509747
0.00202013
-0.00683556
0.00261432
-0.00859889
0.00313616
-0.0103166
0.00356887
-0.0119118
0.0038987
-0.0133052
0.00411561
-0.0144192
0.00421396
-0.0151832
0.00419315
-0.0155383
0.00405785
-0.0154426
0.00381807
-0.0148752
0.00348873
-0.0138401
0.00308882
-0.0123681
0.00264011
-0.0105167
0.0021654
-0.00836822
0.00168646
-0.00602546
0.00122195
-0.00360474
0.000785226
0.00038264
-0.00122754
0.0102471
0.00118593
-0.00579014
0.013079
0.00143365
0.0145953
0.00128672
0.0151179
0.000767824
0.014956
-7.00766e-05
0.0143851
-0.00115093
0.0136329
-0.00238378
0.0128699
-0.00367104
0.0122068
-0.00491623
0.0116959
-0.00603057
0.0113372
-0.00693806
0.0110869
-0.00757896
0.0108676
-0.00791166
0.0105796
-0.00791312
0.0101119
-0.0075782
0.00935249
-0.0069181
0.00819766
-0.00595827
0.00656004
-0.00473613
0.00437508
-0.00329864
0.00160622
-0.00170011
-0.00175135
1.14356e-14
-0.00566814
0.00173904
-0.0100792
0.00345305
-0.0148844
0.00507871
-0.0199499
0.00655534
-0.0251115
0.00782707
-0.0301796
0.00884523
-0.0349464
0.00957081
-0.0391942
0.00997702
-0.0427065
0.0100516
-0.0452795
0.00979874
-0.0467356
0.00924009
-0.0469363
0.00841497
-0.0457944
0.007379
-0.0432843
0.00620131
-0.0394498
0.0049602
-0.0344066
0.00373727
-0.0283407
0.00261051
-0.021501
0.00164671
-0.0141858
0.000893992
0.000375205
-0.00672472
0.0189694
0.00500327
-0.013341
0.0224205
0.00584618
0.0241568
0.00579922
0.0246355
0.00492981
0.0242781
0.00336095
0.0234476
0.00125677
0.0224331
-0.00119333
0.0214419
-0.00379047
0.020598
-0.00634071
0.0199476
-0.00866713
0.0194679
-0.0106191
0.01908
-0.0120783
0.0186633
-0.012962
0.0180704
-0.0132236
0.0171418
-0.0128506
0.0157196
-0.0118621
0.0136595
-0.0103041
0.0108412
-0.00824532
0.00717695
-0.00577285
0.00261808
-0.0029875
-0.00283966
9.41148e-21
-0.00915277
0.00307271
-0.0162281
0.006111
-0.0239228
0.00899613
-0.0320457
0.011614
-0.0403612
0.0138591
-0.0485955
0.0156392
-0.0564445
0.01688
-0.063586
0.01753
-0.0696922
0.0175651
-0.0744466
0.0169924
-0.0775613
0.0158527
-0.0787949
0.0142209
-0.077971
0.0122044
-0.0749936
0.00993769
-0.0698606
0.00757526
-0.062671
0.00528056
-0.0536279
0.00321329
-0.0430329
0.00151512
-0.0312742
0.000295201
-0.000383093
-0.0188079
0.0284024
0.0118429
-0.0225706
0.0318855
0.0130482
0.0335614
0.0127834
0.0339437
0.0111896
0.0334904
0.0084857
0.0325834
0.00494652
0.0315161
0.000878776
0.0304878
-0.00340213
0.029606
-0.00759307
0.0288934
-0.0114206
0.0282997
-0.0146538
0.0277162
-0.017113
0.0269918
-0.0186735
0.0259497
-0.0192659
0.0244033
-0.0188731
0.0221705
-0.0175251
0.0190872
-0.0152931
0.0150175
-0.0122824
0.00986396
-0.00862524
0.00357387
-0.00447503
-0.0038544
0
-0.0123676
0.00462205
-0.021855
0.00920895
-0.032148
0.0135793
-0.0430208
0.0175581
-0.0541939
0.0209826
-0.0653403
0.023709
-0.0760932
0.0256201
-0.0860585
0.026632
-0.0948286
0.0267018
-0.102
0.0258335
-0.107192
0.0240824
-0.110068
0.0215562
-0.110358
0.018413
-0.107874
0.0148554
-0.102531
0.0111192
-0.0943579
0.00745861
-0.0835056
0.00412799
-0.0702465
0.00136071
-0.0549675
-0.000652322
-0.00178304
-0.0381563
0.0380604
0.021656
-0.0325056
0.0413734
0.022725
0.0429871
0.0217494
0.0433995
0.0189637
0.0430427
0.0146972
0.0422661
0.00934424
0.0413284
0.0033334
0.040395
-0.00290231
0.0395419
-0.00895206
0.0387641
-0.014449
0.0379883
-0.0190864
0.037087
-0.0226276
0.0358949
-0.0249107
0.0342249
-0.0258478
0.0318828
-0.0254208
0.0286822
-0.0236745
0.0244563
-0.0207076
0.0190689
-0.016664
0.0124232
-0.0117233
0.0044691
-0.00609292
-0.00479092
0
-0.0152975
0.00631534
-0.0269315
0.0126067
-0.0395125
0.0186281
-0.0527993
0.0241408
-0.0664921
0.0289217
-0.0802376
0.0327716
-0.0936366
0.0355249
-0.106254
0.0370597
-0.117634
0.0373075
-0.127314
0.0362614
-0.134846
0.0339828
-0.139817
0.0306035
-0.141869
0.0263244
-0.140721
0.021408
-0.136191
0.0161656
-0.128208
0.0109388
-0.116824
0.00607649
-0.102222
0.001908
-0.0847129
-0.00128439
-0.00329231
-0.0647301
0.047912
0.0339265
-0.0427003
0.051143
0.0342392
0.0528716
0.0320113
0.053527
0.0275781
0.0534726
0.0213797
0.0529952
0.0139257
0.0522987
0.00575865
0.0515046
-0.00258087
0.0506557
-0.0105854
0.049725
-0.0178057
0.0486268
-0.0238695
0.0472295
-0.0284923
0.0453704
-0.0314821
0.0428695
-0.0327382
0.0395432
-0.0322455
0.0352165
-0.0300655
0.0297345
-0.0263253
0.022972
-0.0212071
0.0148414
-0.0149365
0.00529971
-0.00777288
-0.00564545
1.8823e-20
-0.0179318
0.00808222
-0.0314389
0.0161655
-0.045986
0.0239413
-0.0613318
0.0311088
-0.0771757
0.0373847
-0.093161
0.0425138
-0.108881
0.0462805
-0.123889
0.0485209
-0.137708
0.0491353
-0.149848
0.0480989
-0.159819
0.0454694
-0.167155
0.0413919
-0.171433
0.0360971
-0.17229
0.0298941
-0.16945
0.023156
-0.162732
0.016299
-0.152073
0.00975549
-0.137532
0.00394377
-0.119296
-0.000765172
-0.00407914
-0.097679
0.0583516
0.0478249
-0.0532672
0.0617504
0.0467762
0.0638367
0.0428159
0.0649405
0.036374
0.065337
0.0279901
0.0652389
0.0182745
0.0647925
0.00786728
0.0640783
-0.0026008
0.063114
-0.0125424
0.0618621
-0.0214412
0.0602383
-0.0288724
0.0581225
-0.0345143
0.0553703
-0.0381529
0.0518241
-0.03968
0.0473247
-0.0390863
0.0417216
-0.0364506
0.0348824
-0.0319275
0.026701
-0.0257347
0.017105
-0.0181399
0.00606202
-0.00944993
-0.00641515
1.09042e-14
-0.0202638
0.00985555
-0.0353677
0.019752
-0.0515546
0.029323
-0.0685951
0.0382103
-0.0862022
0.0460741
-0.104034
0.0526054
-0.121699
0.0575391
-0.138759
0.0606686
-0.154744
0.0618596
-0.169161
0.061063
-0.181508
0.058325
-0.191294
0.0537922
-0.198053
0.0477116
-0.201367
0.0404227
-0.200878
0.0323429
-0.196312
0.0239447
-0.18749
0.0157268
-0.174341
0.00818016
-0.156909
0.00175221
-0.00318874
-0.135357
0.0701002
0.0623923
-0.064808
0.0739417
0.0594995
0.0765855
0.0534657
0.0782553
0.0447996
0.079138
0.0341218
0.0793775
0.0221226
0.0790714
0.00951788
0.078271
-0.00299169
0.0769825
-0.0147577
0.0751721
-0.0252135
0.0727717
-0.0338949
0.0696862
-0.0404533
0.0658025
-0.04466
0.0609976
-0.0464035
0.055147
-0.0456816
0.0481336
-0.0425895
0.0398544
-0.0373064
0.030228
-0.0300809
0.0192009
-0.0212176
0.00675286
-0.0110641
-0.00709804
-3.76459e-20
-0.0222907
0.0115732
-0.0387172
0.0232414
-0.0562202
0.034588
-0.0745901
0.0452034
-0.093565
0.0546972
-0.112831
0.0627113
-0.132026
0.0689345
-0.150741
0.0731184
-0.168533
0.0750932
-0.184929
0.0747823
-0.199442
0.0722132
-0.211578
0.0675248
-0.220861
0.0609673
-0.226839
0.0528954
-0.229105
0.0437526
-0.227313
0.0340478
-0.221189
0.0243254
-0.210547
0.015129
-0.195295
0.00696383
0.000259085
-0.175447
0.0840513
0.0767217
-0.0782573
0.0885138
0.0716898
0.0917847
0.0634195
0.0939933
0.0524784
0.0952521
0.0395459
0.0956521
0.0253693
0.0952586
0.0107184
0.0941095
-0.00365703
0.0922149
-0.0170658
0.0895586
-0.0289057
0.0861011
-0.0386859
0.0817837
-0.0460395
0.0765339
-0.0507285
0.0702711
-0.0526405
0.0629123
-0.0517803
0.0543785
-0.0482575
0.0446004
-0.0422714
0.0335241
-0.034096
0.0211162
-0.0240658
0.00736954
-0.0125618
-0.00769299
-3.10503e-16
-0.0240134
0.0131792
-0.041495
0.026521
-0.0599987
0.0395663
-0.0793408
0.0518625
-0.0992911
0.0629756
-0.119573
0.0725045
-0.139863
0.0800971
-0.159797
0.0854666
-0.178973
0.0884089
-0.196956
0.0888184
-0.213293
0.0867002
-0.227515
0.0821783
-0.239157
0.0754959
-0.247764
0.0670093
-0.252909
0.0571721
-0.254204
0.0465114
-0.251312
0.0355968
-0.243961
0.0250043
-0.231952
0.0152766
0.0068851
-0.21517
0.101083
0.0901064
-0.0946618
0.106161
0.0828468
0.109946
0.0723577
0.112495
0.0592446
0.113868
0.0442239
0.114124
0.0280787
0.113315
0.0116125
0.11148
-0.00439415
0.108648
-0.0192231
0.104832
-0.0322496
0.10003
-0.0429657
0.0942263
-0.0509929
0.0873952
-0.0560875
0.0795022
-0.0581373
0.0705085
-0.0571527
0.0603752
-0.0532537
0.0490676
-0.046655
0.0365597
-0.0376498
0.0228388
-0.0265949
0.00790991
-0.013897
-0.00819972
1.04752e-14
-0.0254363
0.0146254
-0.0437156
0.0294923
-0.0629192
0.044108
-0.0828917
0.057985
-0.103438
0.0706538
-0.124323
0.0816778
-0.145272
0.0906697
-0.165968
0.0973093
-0.186062
0.101361
-0.205172
0.102692
-0.222891
0.101283
-0.238794
0.0972381
-0.252448
0.0907871
-0.263423
0.0822778
-0.271296
0.0721606
-0.27567
0.0609658
-0.276179
0.0492712
-0.272502
0.0376667
-0.26437
0.0267141
0.0169092
-0.25158
0.12186
0.102132
-0.11493
0.127327
0.0927426
0.131318
0.0802047
0.133846
0.0651433
0.134941
0.0482933
0.134649
0.0304557
0.133025
0.0124509
0.130126
-0.00492455
0.126006
-0.020938
0.120717
-0.0349523
0.114298
-0.0464492
0.106781
-0.0550434
0.0981875
-0.0604872
0.08853
-0.062668
0.0778133
-0.0615993
0.0660376
-0.0574078
0.0532017
-0.0503177
0.0393062
-0.0406349
0.0243576
-0.0287316
0.00837239
-0.015032
-0.0086187
1.06116e-14
-0.0265667
0.0158719
-0.0454002
0.0320732
-0.0650219
0.048086
-0.0853049
0.0633963
-0.106091
0.0775072
-0.127187
0.089954
-0.148366
0.100321
-0.169368
0.108261
-0.189898
0.11351
-0.209633
0.115911
-0.228223
0.11542
-0.245298
0.112122
-0.260474
0.106227
-0.27336
0.0980681
-0.283565
0.0880836
-0.290708
0.0767952
-0.294427
0.0647763
-0.294384
0.052616
-0.290283
0.0408805
0.030075
-0.281871
0.146661
0.112698
-0.139588
0.152084
0.101418
0.155809
0.0871074
0.157828
0.0703979
0.158163
0.0520288
0.156864
0.0328048
0.153999
0.0135511
0.149651
-0.00493122
0.143909
-0.0219041
0.13686
-0.0367248
0.128591
-0.04887
0.119179
-0.0579495
0.10869
-0.0637125
0.0971817
-0.0660445
0.0846991
-0.0649592
0.0712785
-0.0605852
0.0569493
-0.0531511
0.0417362
-0.0429691
0.0256629
-0.0304199
0.008756
-0.0159381
-0.00895115
-5.02498e-15
-0.0274145
0.0168878
-0.0465752
0.0341992
-0.066356
0.0513987
-0.0866575
0.0679538
-0.107356
0.0833478
-0.1283
0.0970952
-0.14931
0.108759
-0.170178
0.117969
-0.190667
0.124442
-0.210513
0.127996
-0.229428
0.128568
-0.247102
0.12622
-0.263207
0.121144
-0.277406
0.113652
-0.289353
0.104166
-0.298703
0.0931915
-0.305119
0.0812874
-0.308281
0.0690325
-0.307893
0.0569863
0.0456527
-0.303692
0.175242
0.121977
-0.168587
0.180044
0.109127
0.182934
0.0933754
0.183899
0.0753499
0.182966
0.0557841
0.180199
0.0354773
0.175687
0.0152499
0.169543
-0.00409959
0.161888
-0.0218341
0.152851
-0.0373101
0.142558
-0.0500017
0.131128
-0.0595154
0.11867
-0.0655963
0.105279
-0.0681262
0.0910372
-0.0671156
0.0760119
-0.0626911
0.0602592
-0.0550803
0.0438246
-0.0445963
0.0267466
-0.0316218
0.00906035
-0.0165958
-0.00919899
4.94133e-15
-0.0279921
0.0176516
-0.0472716
0.035824
-0.0669783
0.0539714
-0.0870378
0.0715497
-0.107358
0.0880292
-0.127825
0.10291
-0.148303
0.115741
-0.168633
0.126135
-0.188632
0.133791
-0.208093
0.138511
-0.226787
0.140212
-0.244464
0.138937
-0.260856
0.134858
-0.275682
0.128266
-0.288649
0.119561
-0.299461
0.109229
-0.307822
0.0978087
-0.313442
0.0858615
-0.316052
0.073933
0.0625179
-0.315403
0.206774
0.130312
-0.201179
0.210339
0.116243
0.211817
0.0993943
0.211202
0.0803806
0.208535
0.059924
0.203897
0.0388119
0.197401
0.0178544
0.189188
-0.00215783
0.179412
-0.0204926
0.168236
-0.0365082
0.155822
-0.0496777
0.142326
-0.0596043
0.12789
-0.0660283
0.112646
-0.0688254
0.0967028
-0.0679999
0.0801565
-0.0636723
0.0630844
-0.056065
0.0455496
-0.0454867
0.0276027
-0.0323175
0.00928574
-0.0169946
-0.00936475
0
-0.0283136
0.0181509
-0.0475235
0.0369199
-0.0669508
0.055757
-0.0865427
0.0741123
-0.106234
0.0914488
-0.125944
0.107259
-0.145575
0.121081
-0.165012
0.132517
-0.184118
0.141255
-0.202738
0.147081
-0.220697
0.149898
-0.237801
0.149731
-0.253838
0.14673
-0.268581
0.141168
-0.281793
0.133421
-0.293226
0.123951
-0.30263
0.113274
-0.309757
0.101929
-0.314372
0.0904417
0.0792938
-0.316257
0.239848
0.138079
-0.235899
0.24164
0.123143
0.241226
0.105526
0.238614
0.0858274
0.233858
0.0647543
0.22706
0.0430784
0.218357
0.0215961
0.207913
0.00108708
0.195911
-0.0177233
0.182543
-0.0341966
0.168
-0.0478054
0.152469
-0.0581492
0.136121
-0.064962
0.119112
-0.0681116
0.10158
-0.0675931
0.0836382
-0.0635178
0.0653838
-0.0560988
0.0468933
-0.0456368
0.0282272
-0.0325044
0.00943306
-0.017133
-0.00945151
0
-0.0283948
0.0183822
-0.0473675
0.0374773
-0.066339
0.0567355
-0.085274
0.075606
-0.104129
0.0935497
-0.122852
0.110055
-0.141377
0.124656
-0.159623
0.136948
-0.177495
0.14661
-0.194881
0.153417
-0.211653
0.15726
-0.227663
0.158147
-0.242751
0.156211
-0.256738
0.151702
-0.269435
0.144973
-0.280641
0.136461
-0.290149
0.126655
-0.297755
0.11607
-0.303257
0.105208
0.0945325
-0.30647
0.272571
0.145551
-0.270648
0.272251
0.130088
0.269657
0.112011
0.264811
0.091905
0.257785
0.0704593
0.248701
0.0484282
0.237716
0.0265928
0.225015
0.00572103
0.210805
-0.0134698
0.195302
-0.0303447
0.17872
-0.0443757
0.16127
-0.0551577
0.143146
-0.0624172
0.124526
-0.066012
0.105564
-0.0659257
0.0863934
-0.0622574
0.0671236
-0.0552083
0.0478425
-0.0450673
0.0286186
-0.0321964
0.00950389
-0.0170175
-0.0094629
-4.2186e-16
-0.0282526
0.0183506
-0.0468419
0.0375034
-0.06521
0.0569127
-0.0833355
0.0760305
-0.101193
0.0943194
-0.11875
0.111268
-0.135967
0.126408
-0.152792
0.139334
-0.169162
0.149716
-0.185
0.157324
-0.200214
0.162037
-0.214699
0.163848
-0.228331
0.162873
-0.240976
0.159341
-0.252484
0.153581
-0.262693
0.146003
-0.271435
0.137067
-0.278541
0.127261
-0.28384
0.117062
0.106907
-0.287178
0.302717
-0.30288
0.300242
0.295445
0.28837
0.279111
0.267808
0.254637
0.239805
0.223538
0.206071
0.187639
0.16847
0.148776
0.128753
0.108569
0.0883705
0.0682783
0.0483891
0.0287779
0.00950044
-0.00940297
-0.0279045
-0.0459851
-0.0636308
-0.0808301
-0.0975703
-0.113836
-0.129605
-0.144848
-0.159527
-0.173591
-0.186978
-0.199613
-0.211405
-0.222251
-0.232034
-0.240625
-0.247887
-0.253678
-0.257857
-0.26029
-0.123771
-0.237235
-0.139707
-0.260651
-0.15506
-0.277796
-0.168335
-0.287142
-0.177959
-0.287731
-0.1825
-0.279288
-0.180905
-0.262263
-0.172682
-0.23779
-0.158022
-0.207583
-0.137822
-0.173764
-0.113619
-0.138648
-0.0874241
-0.104522
-0.0614944
-0.0734226
-0.0380725
-0.0469576
-0.0191281
-0.0261783
-0.00614766
-0.0115224
-0.00282964
-0.113931
-0.2137
-0.129379
-0.233917
-0.144399
-0.249016
-0.157696
-0.257779
-0.167896
-0.259402
-0.173726
-0.253584
-0.174191
-0.240556
-0.168728
-0.221075
-0.157315
-0.196356
-0.140508
-0.167967
-0.119418
-0.137684
-0.0956064
-0.10734
-0.0709282
-0.0786592
-0.0473403
-0.0531162
-0.026693
-0.0318218
-0.0105417
-0.015449
-0.0042084
-0.10471
-0.190237
-0.119458
-0.207536
-0.133894
-0.220705
-0.146903
-0.228778
-0.157299
-0.231086
-0.163961
-0.22732
-0.165966
-0.217565
-0.162722
-0.202297
-0.154052
-0.18235
-0.140248
-0.15885
-0.122068
-0.133129
-0.100679
-0.106613
-0.0775568
-0.080712
-0.0543508
-0.056713
-0.032723
-0.035684
-0.0141934
-0.0184023
-0.00531142
-0.0962512
-0.167323
-0.110136
-0.181987
-0.123789
-0.193355
-0.136259
-0.200666
-0.146533
-0.203367
-0.15363
-0.201161
-0.156715
-0.194034
-0.155189
-0.182261
-0.148777
-0.166391
-0.137567
-0.147211
-0.122036
-0.125686
-0.103015
-0.102896
-0.0816371
-0.0799558
-0.0592395
-0.0579403
-0.0372557
-0.0378087
-0.0170902
-0.020344
-0.00610634
-0.0886057
-0.145353
-0.101513
-0.15766
-0.114238
-0.167367
-0.125979
-0.173877
-0.135876
-0.176737
-0.143082
-0.175674
-0.146847
-0.170613
-0.146596
-0.16169
-0.141988
-0.149247
-0.13297
-0.13381
-0.119795
-0.116058
-0.103019
-0.0967833
-0.0834707
-0.0768366
-0.0621945
-0.0570787
-0.0403748
-0.038325
-0.0192463
-0.0212974
-0.00658259
-0.0817429
-0.12464
-0.0936019
-0.134859
-0.105307
-0.14305
-0.116187
-0.148749
-0.125516
-0.151589
-0.132571
-0.151325
-0.13669
-0.147851
-0.137329
-0.141212
-0.134122
-0.1316
-0.126914
-0.119351
-0.115791
-0.104924
-0.101089
-0.0888773
-0.0833775
-0.0718389
-0.0634348
-0.0544699
-0.0421968
-0.0374297
-0.0206975
-0.0213397
-0.00675048
-0.0755675
-0.105411
-0.0863486
-0.113799
-0.0969876
-0.120624
-0.106926
-0.125529
-0.115557
-0.128218
-0.122268
-0.128478
-0.126478
-0.126193
-0.127693
-0.121348
-0.125536
-0.114036
-0.119791
-0.104457
-0.110425
-0.0929043
-0.0975983
-0.0797559
-0.0816726
-0.0654551
-0.0631919
-0.0504892
-0.0428586
-0.0353662
-0.0214958
-0.0205904
-0.00663834
-0.0699402
-0.0878194
-0.0796463
-0.0946185
-0.089211
-0.100228
-0.0981728
-0.104374
-0.106028
-0.106823
-0.112258
-0.107395
-0.116366
-0.105974
-0.117903
-0.102513
-0.116505
-0.0970407
-0.111922
-0.0896612
-0.104035
-0.0805505
-0.0928809
-0.0699504
-0.0786512
-0.0581591
-0.0616954
-0.0455192
-0.0425071
-0.0324031
-0.0217042
-0.0191978
-0.00628827
-0.0646987
-0.071952
-0.0733576
-0.0773857
-0.08187
-0.081926
-0.0898561
-0.0853655
-0.0968995
-0.0875219
-0.102567
-0.0882468
-0.106433
-0.0874324
-0.108101
-0.0850176
-0.107229
-0.0809921
-0.103552
-0.0753977
-0.0969013
-0.0683284
-0.0872214
-0.0599279
-0.0745777
-0.050385
-0.0591619
-0.0399274
-0.0412898
-0.0288137
-0.0213923
-0.0173243
-0.0057511
-0.059678
-0.0578378
-0.0673347
-0.0621107
-0.0748377
-0.0657225
-0.0818759
-0.0685185
-0.0881067
-0.0703584
-0.0931703
-0.0711225
-0.0967054
-0.0707166
-0.0983659
-0.0690765
-0.0978391
-0.0661709
-0.0948626
-0.0620038
-0.0892401
-0.0566154
-0.0808548
-0.0500815
-0.0696805
-0.0425121
-0.055788
-0.0340484
-0.0393486
-0.0248588
-0.0206318
-0.0151341
-0.0050815
-0.0547267
-0.0454602
-0.0614365
-0.0487569
-0.0679864
-0.0515733
-0.0741224
-0.0537952
-0.0795641
-0.0553168
-0.0840141
-0.0560441
-0.0871686
-0.0558983
-0.0887295
-0.0548191
-0.0884167
-0.052767
-0.0859808
-0.0497251
-0.0812154
-0.0457008
-0.0739685
-0.040726
-0.0641514
-0.0348566
-0.0517471
-0.0281721
-0.036815
-0.0207738
-0.0194936
-0.012782
-0.00433352
-0.0497195
-0.0347682
-0.0555415
-0.0372537
-0.0612008
-0.0393977
-0.0664908
-0.0411178
-0.0711831
-0.0423358
-0.0750331
-0.0429798
-0.0777878
-0.0429866
-0.0791932
-0.042304
-0.0790032
-0.0408921
-0.0769888
-0.038725
-0.0729467
-0.0357924
-0.0667083
-0.0320996
-0.0581475
-0.0276685
-0.0471877
-0.0225373
-0.0338075
-0.01676
-0.018045
-0.0104057
-0.00355711
-0.0445636
-0.0256867
-0.0495565
-0.027507
-0.0543886
-0.0290913
-0.0588928
-0.0303816
-0.0628838
-0.0313217
-0.0661623
-0.0318584
-0.0685193
-0.0319432
-0.0697411
-0.0315337
-0.0696158
-0.0305943
-0.0679385
-0.0290977
-0.0645185
-0.027026
-0.0591853
-0.024371
-0.0517946
-0.0211347
-0.0422344
-0.0173302
-0.0304299
-0.012981
-0.0163478
-0.00812136
-0.00279574
-0.0392016
-0.0181269
-0.04342
-0.01941
-0.047485
-0.0205364
-0.0512623
-0.0214665
-0.0546032
-0.0221614
-0.0573465
-0.0225833
-0.0593217
-0.0226969
-0.0603518
-0.0224696
-0.0602575
-0.0218727
-0.0588609
-0.0208821
-0.0559899
-0.0194785
-0.0514827
-0.0176486
-0.045192
-0.0153853
-0.0369896
-0.0126878
-0.0267706
-0.00956216
-0.0144566
-0.00602136
-0.00208519
-0.0336098
-0.0119948
-0.0371019
-0.0128526
-0.0404536
-0.0136122
-0.0435584
-0.0142479
-0.0462984
-0.0147341
-0.0485452
-0.0150453
-0.0501618
-0.0151574
-0.0510047
-0.015047
-0.0509255
-0.014693
-0.0497743
-0.0140764
-0.0474016
-0.0131808
-0.043662
-0.0119929
-0.0384163
-0.0105027
-0.0315356
-0.00870399
-0.0229033
-0.00659435
-0.0124189
-0.00417549
-0.00145331
-0.0277938
-0.00719925
-0.0306004
-0.00772953
-0.0332846
-0.0082037
-0.0357641
-0.00860629
-0.0379472
-0.00892159
-0.0397343
-0.00913389
-0.041018
-0.00922774
-0.0416848
-0.00918821
-0.0416161
-0.00900109
-0.0406898
-0.00865319
-0.0387818
-0.00813256
-0.035768
-0.0074287
-0.0315259
-0.00653278
-0.0259367
-0.00543784
-0.0188878
-0.00413895
-0.0102739
-0.00263335
-0.000920602
-0.0217833
-0.00365852
-0.0239366
-0.0039473
-0.0259903
-0.0042089
-0.0278828
-0.00443506
-0.029546
-0.00461728
-0.0309051
-0.00474698
-0.0318797
-0.00481558
-0.0323839
-0.00481463
-0.0323271
-0.00473594
-0.0316149
-0.00457171
-0.03015
-0.00431459
-0.027833
-0.00395788
-0.0245637
-0.00349558
-0.0202423
-0.00292251
-0.0147707
-0.00223442
-0.00805359
-0.00142807
-0.000501325
-0.0156255
-0.00130605
-0.0171495
-0.00143
-0.0186001
-0.00154487
-0.0199346
-0.00164715
-0.0211058
-0.0017332
-0.0220618
-0.00179932
-0.0227467
-0.00184174
-0.0231003
-0.00185673
-0.0230588
-0.00184059
-0.0225552
-0.00178976
-0.0215194
-0.00170079
-0.0198793
-0.00157046
-0.0175607
-0.00139577
-0.0144887
-0.00117403
-0.0105877
-0.000902882
-0.00578281
-0.000580323
-0.00020478
-0.00938046
-9.47169e-05
-0.0102906
-0.000123769
-0.011156
-0.000152524
-0.0119514
-0.000180159
-0.0126491
-0.00020581
-0.0132185
-0.000228587
-0.0136266
-0.000247579
-0.0138377
-0.000261868
-0.0138139
-0.000270534
-0.0135151
-0.000272674
-0.0128991
-0.000267405
-0.011922
-0.000253883
-0.0105385
-0.000231305
-0.00870209
-0.000198928
-0.00636542
-0.000156076
-0.00348068
-0.00010215
-3.66375e-05
-0.00311641
7.50249e-19
-0.00341977
5.94966e-19
-0.00370817
6.37664e-19
-0.00397328
6.20511e-19
-0.00420589
4.82982e-19
-0.00439591
4.59684e-19
-0.00453238
4.37457e-19
-0.00460349
3.27877e-19
-0.00459663
2.28112e-19
-0.00449842
1.62735e-19
-0.00429478
9.19794e-20
-0.00397097
9.24519e-20
-0.00351172
1.14906e-19
-0.00290125
8.05417e-20
-0.00212344
4.11261e-20
-0.00116187
1.64854e-20
3.29889e-21
0.00309348
-0.00102193
0.00339822
-0.00105732
0.00368816
-0.00108469
0.00395497
-0.00110308
0.00418938
-0.0011115
0.00438127
-0.00110895
0.00451965
-0.00109445
0.00459267
-0.001067
0.00458768
-0.00102566
0.00449126
-0.00096949
0.00428929
-0.000897624
0.00396701
-0.000809238
0.00350908
-0.000703577
0.00289972
-0.000579968
0.00212273
-0.000437824
0.00116169
-0.00027666
-9.60971e-05
0.00917361
-0.00318572
0.0100962
-0.00332221
0.0109756
-0.0034339
0.0117863
-0.00351698
0.0125003
-0.0035676
0.0130866
-0.00358185
0.0135119
-0.00355583
0.0137402
-0.00348569
0.0137333
-0.00336772
0.0134506
-0.00319831
0.0128497
-0.00297408
0.0118863
-0.00269188
0.0105148
-0.00234888
0.00868827
-0.00194256
0.00635906
-0.00147079
0.00347903
-0.000931851
-0.000324499
0.0150483
-0.00654106
0.0166071
-0.00684832
0.0180969
-0.00710407
0.0194743
-0.00729965
0.020691
-0.00742626
0.0216943
-0.00747506
0.0224274
-0.00743732
0.022829
-0.00730451
0.0228346
-0.00706845
0.022376
-0.0067214
0.0213823
-0.0062562
0.0197803
-0.00566637
0.017495
-0.00494624
0.0144504
-0.00409104
0.0105701
-0.00309699
0.00577827
-0.00196143
-0.000682825
0.0206446
-0.0111602
0.0228669
-0.0117144
0.0249985
-0.0121786
0.0269759
-0.012537
0.0287292
-0.0127734
0.030182
-0.0128719
0.0312518
-0.012817
0.031851
-0.0125937
0.0318871
-0.0121881
0.0312636
-0.0115871
0.0298815
-0.0107793
0.0276393
-0.00975463
0.0244353
-0.00850499
0.0201676
-0.00702418
0.0147364
-0.00530817
0.00804475
-0.00335521
-0.00116597
0.0258962
-0.0171344
0.0288186
-0.0180208
0.0316335
-0.0187644
0.0342554
-0.019339
0.0365897
-0.0197187
0.0385335
-0.019878
0.0399765
-0.0197925
0.0408019
-0.0194395
0.0408879
-0.018798
0.0401092
-0.0178499
0.0383387
-0.0165795
0.035449
-0.0149746
0.0313146
-0.0130264
0.0258141
-0.01073
0.0188316
-0.00808467
0.0102595
-0.00509372
-0.00176497
0.0307486
-0.0245695
0.0344171
-0.0258848
0.0379676
-0.0269864
0.0412888
-0.0278343
0.0442583
-0.0283893
0.0467428
-0.028614
0.0486006
-0.0284731
0.0496831
-0.027935
0.0498372
-0.0269718
0.0489081
-0.0255607
0.0467417
-0.0236841
0.0431878
-0.0213304
0.0381031
-0.0184944
0.0313541
-0.0151778
0.0228204
-0.0113891
0.0123976
-0.00714413
-0.00246555
0.0351655
-0.0335797
0.0396354
-0.0354342
0.0439837
-0.0369814
0.0480694
-0.0381627
0.0517367
-0.0389222
0.0548178
-0.0392073
0.0571348
-0.0389704
0.0585039
-0.0381703
0.0587388
-0.0367735
0.0576547
-0.0347549
0.0550731
-0.0320989
0.0508256
-0.0288003
0.0447591
-0.0248647
0.0367395
-0.0203086
0.0266566
-0.0151595
0.0144275
-0.00945591
-0.0032468
0.0391358
-0.0442804
0.0444713
-0.0468
0.049689
-0.0488897
0.0546125
-0.0504671
0.059047
-0.0514544
0.0627833
-0.0517813
0.0656027
-0.0513863
0.0672819
-0.0502195
0.0675994
-0.0482441
0.0663413
-0.0454379
0.0633078
-0.0417945
0.0583202
-0.0373239
0.0512265
-0.0320531
0.0419073
-0.0260258
0.0302814
-0.019302
0.0163099
-0.0119569
-0.00407989
0.0426808
-0.0567793
0.0489532
-0.0601071
0.0551195
-0.062846
0.0609603
-0.0648825
0.0662341
-0.0661121
0.0706834
-0.0664431
0.0740419
-0.0657998
0.0760427
-0.0641259
0.0764273
-0.0613866
0.0749545
-0.0575706
0.0714099
-0.0526916
0.0656142
-0.0467881
0.0574317
-0.0399239
0.0467772
-0.0321865
0.0336221
-0.0236856
0.017998
-0.0145506
-0.00492749
0.0458592
-0.071167
0.053145
-0.0754641
0.0603434
-0.078968
0.0671834
-0.0815251
0.0733672
-0.0829977
0.0785802
-0.0832698
0.0825014
-0.0822523
0.0848157
-0.079887
0.0852271
-0.0761499
0.083471
-0.0710532
0.0793269
-0.0646463
0.0726297
-0.057015
0.0632795
-0.0482802
0.0512497
-0.0385944
0.0365915
-0.0281382
0.0194373
-0.0171147
-0.00574386
0.0487703
-0.0875054
0.0571473
-0.0929519
0.0654615
-0.0973447
0.0733795
-0.100479
0.0805363
-0.102176
0.0865496
-0.102294
0.0910359
-0.100732
0.093628
-0.097438
0.0939927
-0.092413
0.0918487
-0.0857103
0.0869826
-0.077437
0.0792626
-0.067751
0.0686493
-0.0568563
0.0552033
-0.0449964
0.0390875
-0.0324463
0.0205665
-0.0195032
-0.00647603
0.0515521
-0.105817
0.0610945
-0.112611
0.0706024
-0.118023
0.0796676
-0.121781
0.0878449
-0.12366
0.0946726
-0.123487
0.0996963
-0.121156
0.102493
-0.116636
0.102696
-0.109969
0.100018
-0.101277
0.0942687
-0.0907533
0.0853758
-0.0786596
0.0733903
-0.065315
0.0584933
-0.0510832
0.0409937
-0.0363588
0.0213188
-0.0215507
-0.00706612
0.0543754
-0.12607
0.0651471
-0.134431
0.0759137
-0.140995
0.0861777
-0.145412
0.0953984
-0.147395
0.103022
-0.146745
0.108516
-0.143361
0.111398
-0.137246
0.111275
-0.128515
0.107867
-0.11739
0.101034
-0.10419
0.0907918
-0.0893194
0.0773178
-0.0732496
0.0609512
-0.056496
0.0421806
-0.0395952
0.0216241
-0.0230801
-0.00745488
0.057432
-0.148172
0.0694791
-0.158332
0.081548
-0.166184
0.0930352
-0.171274
0.103288
-0.173248
0.111648
-0.171878
0.117493
-0.167081
0.120286
-0.158927
0.119616
-0.147637
0.115233
-0.133578
0.107076
-0.117244
0.0952875
-0.0992273
0.0802117
-0.0801926
0.0623851
-0.0608379
0.0425089
-0.0418592
0.0214111
-0.0239136
-0.00758613
0.0609182
-0.17195
0.0742606
-0.184159
0.0876446
-0.193432
0.100343
-0.199188
0.111573
-0.200991
0.120556
-0.198592
0.126576
-0.191946
0.129043
-0.181226
0.127545
-0.16681
0.12189
-0.149267
0.112134
-0.129321
0.0985906
-0.107809
0.0818164
-0.0856307
0.0625841
-0.0636924
0.0418335
-0.0428557
0.0206111
-0.0238862
-0.00741187
0.0650146
-0.197151
0.0796373
-0.211669
0.0943092
-0.222492
0.10816
-0.228876
0.120258
-0.230295
0.129691
-0.226484
0.135643
-0.21747
0.13748
-0.203575
0.134812
-0.185398
0.12754
-0.163781
0.115885
-0.139748
0.100382
-0.114438
0.0818463
-0.0890268
0.0613241
-0.0646462
0.0400104
-0.0423121
0.0191616
-0.0228599
-0.00689742
0.0698637
-0.223428
0.0857091
-0.240525
0.101594
-0.253016
0.116484
-0.259961
0.129281
-0.260725
0.138921
-0.255042
0.144492
-0.243052
0.145326
-0.22529
0.141085
-0.202659
0.131813
-0.176358
0.117948
-0.14779
0.1003
-0.118458
0.0799955
-0.0898471
0.0583791
-0.0633163
0.036905
-0.0400005
0.0170112
-0.0207381
-0.00602598
0.0755489
-0.25034
0.0925101
-0.27029
0.109477
-0.284559
0.125234
-0.29196
0.138492
-0.291737
0.148029
-0.283643
0.152832
-0.267981
0.152224
-0.245587
0.14596
-0.217763
0.134276
-0.18617
0.117894
-0.152678
0.0979613
-0.119213
0.0759534
-0.0875934
0.0535353
-0.0593792
0.0324031
-0.0357601
0.0141249
-0.0174784
-0.00480182
0.0820755
-0.277357
0.099993
-0.300434
0.117854
-0.316576
0.134241
-0.324294
0.147656
-0.322689
0.156707
-0.311561
0.160289
-0.291449
0.157741
-0.263591
0.148962
-0.229813
0.134448
-0.192352
0.11527
-0.153643
0.0929754
-0.116088
0.0694267
-0.0818371
0.0466094
-0.0525993
0.026423
-0.0295164
0.0104887
-0.0131013
-0.00325147
0.0893588
-0.303863
0.10802
-0.330337
0.126529
-0.348433
0.143247
-0.356292
0.156451
-0.35285
0.164568
-0.337988
0.166414
-0.312571
0.161383
-0.278369
0.149575
-0.237873
0.131823
-0.194035
0.109624
-0.149951
0.0849792
-0.10854
0.0601654
-0.0722532
0.0374693
-0.0428548
0.0189285
-0.0212952
0.00611562
-0.007693
-0.00142258
-0.260853
0.186376
0.259308
-0.260415
0.173066
-0.257944
0.156803
-0.253439
0.138121
-0.246944
0.117662
-0.238545
0.0961419
-0.228367
0.0743121
-0.216561
0.0529204
-0.203301
0.0326739
-0.188771
0.0142073
-0.17316
-0.00194138
-0.156652
-0.0153484
-0.139421
-0.0257125
-0.121624
-0.0328562
-0.103404
-0.0367212
-0.0848789
-0.0373588
-0.0661498
-0.0349177
-0.0472969
-0.0296306
-0.0283832
-0.0218004
-0.00945651
-0.011788
0.0094469
-2.47635e-15
0.0282992
0.0131211
0.0470772
0.0271074
0.0657593
0.041476
0.0843217
0.0557399
0.102736
0.0694207
0.120964
0.0820635
0.138961
0.0932526
0.156665
0.102629
0.174005
0.109907
0.19089
0.11489
0.207215
0.117485
0.222857
0.117704
0.237675
0.115674
0.251513
0.111622
0.264201
0.105868
0.275556
0.0987999
0.285388
0.0908514
0.293505
0.0824691
0.299722
0.074084
0.066082
-0.231017
0.180867
0.227489
-0.232649
0.168144
-0.232311
0.152379
-0.229978
0.134119
-0.225674
0.114025
-0.219462
0.0928292
-0.211446
0.0713008
-0.201756
0.0502004
-0.190543
0.0302448
-0.177973
0.0120744
-0.164212
-0.00377173
-0.149425
-0.0168723
-0.133766
-0.0269316
-0.117377
-0.0337805
-0.100383
-0.0373705
-0.0828908
-0.0377636
-0.0649882
-0.0351194
-0.0467467
-0.0296811
-0.0282226
-0.0217613
-0.00945981
-0.0117295
0.00950698
-3.76459e-20
0.0286485
0.0129788
0.0479376
0.0267342
0.0673454
0.0407798
0.086838
0.0546266
0.106373
0.0677956
0.125899
0.0798326
0.145347