/*--------------------------------*- C++ -*----------------------------------*\
  =========                 |
  \\      /  F ield         | OpenFOAM: The Open Source CFD Toolbox
   \\    /   O peration     | Website:  https://openfoam.org
    \\  /    A nd           | Version:  6
     \\/     M anipulation  |
\*---------------------------------------------------------------------------*/
FoamFile
{
    version     2.0;
    format      ascii;
    class       volScalarField;
    location    "100";
    object      p;
}
// * * * * * * * * * * * * * * * * * * * * * * * * * * * * * * * * * * * * * //

dimensions      [0 2 -2 0 0 0 0];

internalField   nonuniform List<scalar> 
320
(
-0.0326905
-0.0248754
-0.0179276
-0.0115473
-0.00566286
-0.000178755
0.00512214
0.00983637
0.0145402
0.0186335
-0.0329275
-0.0251463
-0.0182027
-0.0118445
-0.0059654
-0.000492318
0.00479959
0.00950309
0.0141946
0.018272
-0.0327652
-0.0249701
-0.0179898
-0.0115962
-0.00567357
-0.000157547
0.00517242
0.00991845
0.0146545
0.0187742
-0.0324549
-0.0246161
-0.0176114
-0.0111852
-0.00523191
0.000316294
0.00567525
0.0104477
0.0152154
0.0193648
-0.0324741
-0.0246179
-0.0176271
-0.0112198
-0.00528715
0.000244053
0.00557755
0.0103344
0.0150767
0.0192194
-0.0162496
-0.0101006
-0.00462209
0.000284178
0.00483738
0.00904606
0.0131116
0.0167194
0.0202808
0.0234284
-0.0165952
-0.0104336
-0.00496635
-6.7251e-05
0.00449488
0.00871738
0.0128035
0.0164125
0.0199704
0.0230769
-0.0165209
-0.010319
-0.0047984
0.00014579
0.00474524
0.00899669
0.0131144
0.0167586
0.0203729
0.0235299
-0.0163184
-0.0100843
-0.00450349
0.00047901
0.00510588
0.00937426
0.0135004
0.0171541
0.0207854
0.023987
-0.0159442
-0.00973031
-0.00418099
0.000768095
0.00535759
0.00958953
0.0136719
0.017298
0.0208931
0.0240877
0.025768
0.0276985
0.029352
0.0307415
0.0319789
0.0330643
0.0341226
0.0350037
0.0358998
0.0366825
0.0248376
0.0267939
0.0284651
0.0298486
0.031084
0.0321411
0.0332008
0.03408
0.0349887
0.0357151
0.0259789
0.0278852
0.0295349
0.0309033
0.0321327
0.0331869
0.0342303
0.0351003
0.035997
0.0367434
0.0264323
0.028336
0.0300133
0.03142
0.0326924
0.0337826
0.0348504
0.0357082
0.0365857
0.0373452
0.0274299
0.029283
0.0308771
0.0322159
0.0334284
0.0344855
0.0355037
0.0363152
0.0371229
0.037889
0.0655982
0.0638143
0.0620845
0.0604164
0.0587778
0.0571894
0.055667
0.0542509
0.0528595
0.0517159
0.0708769
0.0683205
0.0659613
0.0636051
0.0613993
0.0591699
0.0570728
0.0549272
0.0530226
0.0511114
0.0709695
0.0684943
0.0662424
0.0640228
0.0619405
0.0598867
0.0579392
0.056023
0.0542868
0.0526457
0.07216
0.069544
0.0671658
0.0648741
0.0627325
0.0606636
0.0586997
0.0567936
0.055054
0.0534692
0.0722704
0.0697273
0.0673636
0.065122
0.0630374
0.0610619
0.0592148
0.0574715
0.0558488
0.05447
0.155725
0.149209
0.142461
0.135679
0.128801
0.121959
0.115098
0.1084
0.101751
0.0951657
0.158779
0.151866
0.144794
0.137681
0.130508
0.12337
0.116242
0.109247
0.102316
0.0954133
0.158331
0.151687
0.144819
0.137886
0.130865
0.12391
0.116925
0.110079
0.103269
0.0965323
0.157552
0.150929
0.144094
0.13723
0.130287
0.123418
0.116527
0.109759
0.103014
0.0963613
0.158654
0.152168
0.145379
0.138522
0.131561
0.12468
0.117757
0.110989
0.104219
0.0975436
0.066107
0.0647084
0.063546
0.0870778
0.0871682
0.0833969
0.081639
0.0643545
0.0629487
0.0618068
0.0836043
0.0837424
0.0802982
0.0785946
0.0626799
0.0612908
0.0601385
0.0803135
0.0804979
0.0773758
0.0756802
0.0610455
0.0596172
0.0584549
0.0771665
0.0773771
0.0744745
0.0727992
0.0594649
0.0579941
0.0567869
0.0741455
0.0743806
0.0717094
0.0700046
0.0579449
0.0563254
0.0551246
0.0712122
0.0714787
0.0689182
0.0672353
0.0565253
0.0547411
0.0534969
0.0683639
0.0686762
0.0662539
0.0645175
0.0551415
0.0530733
0.0518611
0.0656585
0.0659991
0.0635032
0.0618239
0.0539266
0.0516123
0.0503105
0.063027
0.0635037
0.0610095
0.0592488
0.052759
0.0500932
0.0488201
0.0607244
0.061184
0.0584794
0.0567653
)
;

boundaryField
{
    inlet
    {
        type            zeroGradient;
    }
    outlet
    {
        type            fixedValue;
        value           nonuniform 0();
    }
    side1
    {
        type            cyclicAMI;
        value           nonuniform List<scalar> 
80
(
-0.0325823
-0.0160969
0.0265989
0.0677226
0.15719
-0.0247467
-0.00991543
0.0284907
0.065697
0.150688
-0.0177773
-0.00440154
0.0301146
0.0637653
0.14392
-0.0113835
0.000526137
0.0314787
0.0619146
0.137101
-0.005475
0.00509748
0.0327037
0.060134
0.130181
3.26492e-05
0.00931779
0.0337749
0.0584224
0.123319
0.00534984
0.0133918
0.0348132
0.0567966
0.116428
0.0100854
0.0170087
0.0356594
0.0552763
0.109695
0.0148085
0.020587
0.0365114
0.0538113
0.102985
0.0189265
0.0237581
0.0372858
0.0525928
0.0963546
0.0680694
0.0820082
0.0819491
0.0660652
0.0788881
0.0787979
0.0641712
0.0759487
0.0758282
0.0623435
0.0731324
0.0729948
0.0606023
0.0704517
0.0702981
0.0589373
0.0678707
0.0676966
0.0573816
0.0653992
0.065195
0.0558833
0.0630455
0.0628228
0.0545386
0.0608523
0.0605408
0.0533037
0.0588586
0.0585581
)
;
    }
    side2
    {
        type            cyclicAMI;
        value           nonuniform List<scalar> 
50
(
-0.0325823
-0.0160969
0.0265989
0.0750848
0.15719
-0.0247467
-0.00991543
0.0284907
0.0724978
0.150688
-0.0177773
-0.00440154
0.0301146
0.0700532
0.14392
-0.0113835
0.000526137
0.0314787
0.0677108
0.137101
-0.005475
0.00509748
0.0327037
0.0654763
0.130181
3.26492e-05
0.00931779
0.0337749
0.0633271
0.123319
0.00534984
0.0133918
0.0348132
0.0612791
0.116428
0.0100854
0.0170087
0.0356594
0.059334
0.109695
0.0148085
0.020587
0.0365114
0.057504
0.102985
0.0189265
0.0237581
0.0372858
0.0558886
0.0963546
)
;
    }
    walls
    {
        type            zeroGradient;
    }
    procBoundary4to0
    {
        type            processor;
        value           nonuniform List<scalar> 
28
(
-0.0415092
-0.0416841
-0.0415327
-0.0412876
-0.0413464
-0.0230465
-0.0234577
-0.0233717
-0.0231285
-0.0227827
0.0234695
0.022537
0.0237918
0.0241866
0.0251659
0.0679446
0.0735012
0.0737002
0.0750743
0.0750622
0.162131
0.165552
0.164756
0.164052
0.164966
0.0653251
0.0908674
0.0848428
)
;
    }
    procBoundary4to3
    {
        type            processor;
        value           nonuniform List<scalar> 
28
(
0.0226365
0.0222608
0.0228029
0.0234177
0.0232544
0.0264275
0.0260395
0.0265605
0.0270389
0.027122
0.0373817
0.0363617
0.0374161
0.0380199
0.0385724
0.0505183
0.0492769
0.0510682
0.0519391
0.0531113
0.0887374
0.08861
0.0898813
0.0898078
0.091044
0.0486746
0.058417
0.056106
)
;
    }
}


// ************************************************************************* //
