/*--------------------------------*- C++ -*----------------------------------*\
  =========                 |
  \\      /  F ield         | OpenFOAM: The Open Source CFD Toolbox
   \\    /   O peration     | Website:  https://openfoam.org
    \\  /    A nd           | Version:  6
     \\/     M anipulation  |
\*---------------------------------------------------------------------------*/
FoamFile
{
    version     2.0;
    format      ascii;
    class       surfaceScalarField;
    location    "3.27";
    object      phi;
}
// * * * * * * * * * * * * * * * * * * * * * * * * * * * * * * * * * * * * * //

dimensions      [0 3 -1 0 0 0 0];

internalField   nonuniform List<scalar> 
8193
(
0.0682874
-0.164239
-0.0791547
0.0547103
-0.167083
0.0409759
-0.167809
0.0282976
-0.168564
0.0170232
-0.169862
0.00719963
-0.171504
-0.00116891
-0.173394
-0.00811191
-0.175557
-0.0136744
-0.178134
-0.017943
-0.181308
-0.0210115
-0.185287
-0.0228984
-0.190276
-0.0234109
-0.19587
-0.0223859
-0.199907
-0.020065
-0.200217
-0.0174895
-0.189912
-0.0171308
-0.164465
-0.0201328
-0.135923
-0.0240442
-0.12341
-0.0258415
-0.132999
-0.0252556
-0.150508
-0.0232069
-0.164467
-0.0206468
-0.172685
-0.0179773
-0.177022
-0.0152811
-0.179995
-0.012536
-0.183298
-0.00975972
-0.1874
-0.00713351
-0.191806
-0.00496869
-0.195777
-0.00360987
-0.198769
-0.00336987
-0.200562
-0.00450426
-0.201169
-0.00720339
-0.20072
-0.0115972
-0.199357
-0.0177581
-0.19722
-0.025709
-0.194448
-0.0354096
-0.19118
-0.0466726
-0.187578
-0.0590195
-0.183745
-0.0713624
-0.179118
-0.171691
-0.0808472
0.058577
-0.147676
-0.0730412
0.0437438
-0.148053
0.030705
-0.148675
0.0195792
-0.149674
0.0100766
-0.151175
0.00202418
-0.153115
-0.0046852
-0.15547
-0.0101431
-0.158284
-0.0144609
-0.161674
-0.0177625
-0.165804
-0.0201914
-0.170851
-0.021834
-0.17706
-0.0225035
-0.184283
-0.0218655
-0.190483
-0.0201852
-0.192868
-0.0183062
-0.18395
-0.0187957
-0.157454
-0.0228006
-0.126822
-0.0275
-0.115121
-0.0295894
-0.128883
-0.0292929
-0.150373
-0.0278606
-0.167071
-0.0259429
-0.177361
-0.0235928
-0.183674
-0.0207814
-0.188586
-0.0174791
-0.193767
-0.0138502
-0.199468
-0.0102199
-0.205009
-0.00699267
-0.209546
-0.00456094
-0.212528
-0.00325438
-0.213774
-0.00333092
-0.213351
-0.00498783
-0.211432
-0.00836382
-0.208204
-0.0135488
-0.203846
-0.0205884
-0.198535
-0.0294921
-0.192446
-0.0402154
-0.185799
-0.0526007
-0.178821
-0.0659334
-0.171522
-0.164029
-0.0773909
0.0453851
-0.130274
-0.0602
0.0324264
-0.130567
0.0214944
-0.131466
0.0123257
-0.132693
0.00463995
-0.134378
-0.00173683
-0.136575
-0.00694487
-0.139302
-0.0111156
-0.142615
-0.014384
-0.146624
-0.0168856
-0.151484
-0.0187604
-0.157356
-0.020116
-0.164504
-0.0208588
-0.172963
-0.0205751
-0.180999
-0.019438
-0.185212
-0.0182209
-0.177492
-0.0192222
-0.150017
-0.0235411
-0.117407
-0.028532
-0.106451
-0.0310707
-0.124138
-0.031637
-0.149106
-0.0313225
-0.168203
-0.030197
-0.18081
-0.0280939
-0.189576
-0.0250538
-0.196846
-0.0212043
-0.204182
-0.016876
-0.211609
-0.0124915
-0.218333
-0.00849741
-0.223468
-0.00529181
-0.226488
-0.00321028
-0.227255
-0.00251115
-0.225896
-0.00337644
-0.222645
-0.00592256
-0.217738
-0.0102126
-0.2114
-0.0162567
-0.203851
-0.0240128
-0.195317
-0.0334369
-0.186021
-0.0444542
-0.176227
-0.0567128
-0.166234
-0.156728
-0.0693169
0.0339378
-0.114285
-0.046952
0.0230806
-0.114957
0.0140643
-0.116095
0.0066613
-0.117535
0.000609644
-0.119386
-0.00430358
-0.121766
-0.00824679
-0.124742
-0.0113656
-0.128396
-0.0137982
-0.132842
-0.0156805
-0.138232
-0.0171485
-0.144714
-0.0183363
-0.152542
-0.0192146
-0.161898
-0.0193888
-0.171396
-0.0188628
-0.17722
-0.0182936
-0.170587
-0.0197344
-0.142259
-0.0243126
-0.107761
-0.0296402
-0.09738
-0.0328727
-0.11854
-0.0347553
-0.14627
-0.0358967
-0.167534
-0.0357646
-0.182837
-0.0339683
-0.194666
-0.030627
-0.204835
-0.0260836
-0.214666
-0.0208805
-0.223963
-0.0156037
-0.231871
-0.0107552
-0.237566
-0.00673955
-0.240604
-0.00389625
-0.240892
-0.00248027
-0.238627
-0.00265506
-0.234117
-0.00450459
-0.227667
-0.00804827
-0.219553
-0.0132573
-0.210037
-0.0200617
-0.199382
-0.0283358
-0.187866
-0.0379212
-0.17579
-0.0485801
-0.16354
-0.151797
-0.0600922
0.024184
-0.100244
-0.0349808
0.0153707
-0.101283
0.00820646
-0.102613
0.00243805
-0.104173
-0.00218223
-0.106095
-0.0058663
-0.108543
-0.00878096
-0.111637
-0.0110651
-0.115485
-0.0128469
-0.120213
-0.0142549
-0.125963
-0.015415
-0.13288
-0.0164829
-0.141173
-0.0175006
-0.151126
-0.0181455
-0.1617
-0.0182526
-0.168905
-0.0183109
-0.163287
-0.0200083
-0.134391
-0.0245639
-0.0981942
-0.0301403
-0.0880202
-0.0343419
-0.111835
-0.037878
-0.141545
-0.0407977
-0.164757
-0.041848
-0.183262
-0.0404245
-0.198879
-0.0366824
-0.212649
-0.0312568
-0.225394
-0.024974
-0.236711
-0.0186544
-0.245734
-0.0128817
-0.251859
-0.0080609
-0.254802
-0.00450869
-0.254546
-0.00245686
-0.251355
-0.00204696
-0.245614
-0.0033266
-0.23771
-0.00626989
-0.227984
-0.0108018
-0.216738
-0.0167973
-0.204281
-0.0240834
-0.190936
-0.0324666
-0.177029
-0.0417736
-0.162928
-0.149353
-0.0518071
0.0164154
-0.0882199
-0.0250607
0.00945584
-0.0894795
0.00389362
-0.090886
-0.000506231
-0.0924501
-0.00396454
-0.0943341
-0.00667423
-0.0967403
-0.00878827
-0.0998346
-0.0104311
-0.103757
-0.0117158
-0.108641
-0.0127603
-0.11462
-0.0136905
-0.121822
-0.0146694
-0.130408
-0.0158158
-0.140693
-0.0168962
-0.151978
-0.0176412
-0.160292
-0.0182853
-0.155662
-0.020058
-0.126622
-0.0243577
-0.088963
-0.0300909
-0.0784862
-0.0354243
-0.103881
-0.0408614
-0.134702
-0.0456905
-0.159757
-0.048101
-0.181918
-0.0472015
-0.202073
-0.0431131
-0.220234
-0.0367106
-0.236454
-0.0292145
-0.24997
-0.0216909
-0.260055
-0.0148995
-0.266398
-0.00925755
-0.269042
-0.00502967
-0.268108
-0.00238448
-0.263942
-0.00142466
-0.256985
-0.00216723
-0.247698
-0.00456243
-0.236478
-0.00850015
-0.223683
-0.0138164
-0.209669
-0.0203152
-0.194791
-0.0277763
-0.1794
-0.035984
-0.163866
-0.148836
-0.0447984
0.0105572
-0.0780576
-0.017347
0.00515154
-0.0793771
0.000884181
-0.0807235
-0.00243854
-0.0821786
-0.00500223
-0.0839275
-0.00697226
-0.0862033
-0.00848141
-0.089211
-0.00963759
-0.093118
-0.0105401
-0.0980652
-0.0112972
-0.104172
-0.0120402
-0.111536
-0.0129375
-0.120274
-0.0141779
-0.130666
-0.0156438
-0.142308
-0.016995
-0.151438
-0.0181601
-0.147799
-0.0198022
-0.119178
-0.0235014
-0.0804342
-0.0293346
-0.0688563
-0.0358073
-0.0946921
-0.0431675
-0.12574
-0.0499339
-0.152523
-0.0539012
-0.178625
-0.0538156
-0.203969
-0.049664
-0.227313
-0.042435
-0.247695
-0.0337485
-0.26371
-0.0249665
-0.274872
-0.0170908
-0.28122
-0.0106285
-0.283278
-0.00579632
-0.281445
-0.00262263
-0.276245
-0.00113428
-0.268108
-0.00132559
-0.257519
-0.00313096
-0.244927
-0.00642636
-0.230742
-0.0110475
-0.215358
-0.0167979
-0.19916
-0.0234683
-0.182513
-0.0308308
-0.165807
-0.149623
-0.0387348
0.0064057
-0.0695072
-0.0117333
0.00219466
-0.070744
-0.00110733
-0.071909
-0.00364157
-0.0731684
-0.0055547
-0.0747164
-0.00698383
-0.0768064
-0.00804227
-0.0796737
-0.00882454
-0.0835076
-0.00942096
-0.0884526
-0.00993606
-0.0946108
-0.0105063
-0.102041
-0.0113124
-0.110807
-0.0125928
-0.121123
-0.0143631
-0.132793
-0.0162638
-0.142421
-0.0178615
-0.139809
-0.0191749
-0.112279
-0.0219336
-0.0729676
-0.027668
-0.0593494
-0.03516
-0.0844082
-0.0442102
-0.114911
-0.0527764
-0.143213
-0.0583962
-0.173306
-0.0594848
-0.204223
-0.0557903
-0.233379
-0.0481819
-0.258679
-0.0385972
-0.277637
-0.0287186
-0.290014
-0.0198126
-0.296251
-0.0125829
-0.297424
-0.00726591
-0.29439
-0.00371676
-0.288043
-0.00182423
-0.278771
-0.00151462
-0.267014
-0.00270976
-0.253217
-0.00529008
-0.237829
-0.00911331
-0.221261
-0.0140146
-0.203921
-0.0198105
-0.186195
-0.026309
-0.168485
-0.151319
-0.0333772
0.00362543
-0.0623118
-0.00788791
0.000246361
-0.0633399
-0.0023924
-0.0642458
-0.00438721
-0.0652604
-0.00584784
-0.0665788
-0.0068866
-0.0684624
-0.00760211
-0.0711674
-0.00808152
-0.0748979
-0.00841308
-0.0797977
-0.00870352
-0.0859476
-0.00909887
-0.0933619
-0.00978622
-0.102056
-0.0110363
-0.11215
-0.0130011
-0.123559
-0.0153717
-0.133335
-0.0172976
-0.13181
-0.0181134
-0.10611
-0.0195708
-0.0669419
-0.0248346
-0.0503563
-0.0330389
-0.0733563
-0.0433436
-0.102673
-0.0534164
-0.132142
-0.0604366
-0.166233
-0.0628692
-0.202685
-0.0603356
-0.237744
-0.0531223
-0.268643
-0.0433342
-0.291067
-0.0328385
-0.305002
-0.0232019
-0.311183
-0.0153632
-0.311303
-0.00979239
-0.306679
-0.00614846
-0.299008
-0.00411383
-0.288645
-0.003494
-0.275901
-0.00419497
-0.261118
-0.00610689
-0.244753
-0.00911239
-0.227224
-0.0130855
-0.208949
-0.0178862
-0.190328
-0.0233671
-0.171777
-0.153761
-0.0294467
0.00183484
-0.0562262
-0.00540931
-0.00102556
-0.0569639
-0.00324672
-0.0575831
-0.00489274
-0.058343
-0.00604413
-0.0594363
-0.00679343
-0.0611231
-0.00723081
-0.0636694
-0.00744321
-0.0672865
-0.0075239
-0.0721126
-0.00758766
-0.078205
-0.00779163
-0.0855314
-0.00832862
-0.0940646
-0.00947469
-0.103834
-0.0115128
-0.114738
-0.0142092
-0.124335
-0.0163656
-0.123912
-0.0165683
-0.1008
-0.0164159
-0.0626808
-0.0205889
-0.0425145
-0.0289911
-0.0620701
-0.039918
-0.0896775
-0.0511333
-0.119695
-0.0598699
-0.157113
-0.0641205
-0.198903
-0.0626422
-0.240537
-0.0561617
-0.27727
-0.0470711
-0.303112
-0.0367872
-0.319017
-0.0270858
-0.325352
-0.0190522
-0.324493
-0.0135766
-0.317943
-0.0101847
-0.308756
-0.00837499
-0.29731
-0.00778567
-0.28377
-0.00827761
-0.268248
-0.00975437
-0.25116
-0.0121148
-0.232926
-0.0152654
-0.213956
-0.0191058
-0.194661
-0.0235451
-0.17545
-0.156736
-0.0285536
0.000686263
-0.0510601
-0.0038815
-0.00189176
-0.0514788
-0.00387195
-0.0518259
-0.00529661
-0.0523547
-0.00622737
-0.0532527
-0.00674354
-0.0547731
-0.00693305
-0.0571807
-0.00688909
-0.0606859
-0.00671571
-0.0654174
-0.00653983
-0.0714084
-0.00652729
-0.0785837
-0.00687865
-0.0868759
-0.0078645
-0.0962372
-0.00983336
-0.106479
-0.0126755
-0.11561
-0.0149372
-0.116251
-0.0144777
-0.0964083
-0.0125167
-0.0603966
-0.0147665
-0.0366723
-0.0226349
-0.0513002
-0.0333472
-0.0767837
-0.0450199
-0.106581
-0.0550957
-0.14635
-0.0609321
-0.193136
-0.0608856
-0.241407
-0.0561303
-0.283591
-0.0487095
-0.312823
-0.0397834
-0.330932
-0.031118
-0.33767
-0.0235688
-0.336318
-0.018654
-0.32771
-0.0158873
-0.316898
-0.0147012
-0.304335
-0.0145704
-0.290139
-0.0152529
-0.274137
-0.0166713
-0.256577
-0.018726
-0.237903
-0.0213432
-0.218498
-0.024448
-0.198778
-0.027985
-0.179138
-0.159965
-0.0319317
-6.61932e-05
-0.0466934
-0.00297129
-0.00251805
-0.0468106
-0.00436445
-0.0469325
-0.00563882
-0.0472757
-0.00639325
-0.0480226
-0.00670074
-0.0494163
-0.00665162
-0.0517117
-0.00634919
-0.0551111
-0.00591191
-0.0597296
-0.00547925
-0.0655786
-0.00522496
-0.0725456
-0.00534756
-0.0805331
-0.00613282
-0.0893997
-0.00787246
-0.0989433
-0.0106085
-0.107413
-0.0128116
-0.108993
-0.0117851
-0.0928482
-0.00785516
-0.0602606
-0.00735291
-0.0336732
-0.0137369
-0.0420151
-0.0233303
-0.0649169
-0.0344608
-0.0938244
-0.0446722
-0.135172
-0.0516503
-0.185856
-0.0543471
-0.239072
-0.0526301
-0.286324
-0.0477717
-0.319336
-0.0412087
-0.339765
-0.0347658
-0.346971
-0.0286771
-0.345818
-0.0249005
-0.33541
-0.0231678
-0.32302
-0.0229777
-0.309329
-0.023746
-0.294536
-0.0250539
-0.278299
-0.0268541
-0.260492
-0.0290371
-0.241623
-0.0315447
-0.222025
-0.0343138
-0.202122
-0.0372944
-0.182301
-0.162944
-0.0404485
-0.000542807
-0.0430643
-0.00247923
-0.00294936
-0.0429419
-0.00471347
-0.0429
-0.00586628
-0.0431127
-0.00645869
-0.0437563
-0.00656316
-0.0450625
-0.00627648
-0.0472697
-0.00571217
-0.0505682
-0.00500459
-0.0550543
-0.00430147
-0.0607254
-0.00378176
-0.0674352
-0.00364205
-0.0750641
-0.00414902
-0.0833944
-0.00554605
-0.0922404
-0.00789789
-0.100022
-0.0098453
-0.102339
-0.00840501
-0.0899718
-0.00262014
-0.0621679
0.00140533
-0.0343015
-0.00233419
-0.0353918
-0.00986729
-0.0550394
-0.0198816
-0.0820237
-0.0298577
-0.123979
-0.0387564
-0.176316
-0.0446705
-0.23309
-0.0460894
-0.285404
-0.0448521
-0.321625
-0.0409381
-0.345266
-0.0375592
-0.352445
-0.0340066
-0.351943
-0.0320504
-0.34038
-0.0318296
-0.326656
-0.0329515
-0.31198
-0.0350102
-0.296558
-0.0373564
-0.280293
-0.0399792
-0.262418
-0.0427541
-0.243555
-0.0456429
-0.223954
-0.0485861
-0.204062
-0.0515357
-0.184261
-0.164925
-0.0544557
-0.00072421
-0.0401505
-0.00236239
-0.00311181
-0.0398892
-0.00480562
-0.0397462
-0.00584166
-0.0398801
-0.00627282
-0.0404629
-0.00617686
-0.0417119
-0.0056563
-0.0438481
-0.00483736
-0.0470428
-0.00386143
-0.0513794
-0.00288894
-0.056836
-0.00207888
-0.0632654
-0.00163712
-0.070497
-0.00176644
-0.0783107
-0.00267305
-0.0865106
-0.00451419
-0.0935585
-0.00595109
-0.0965417
-0.00434417
-0.0875347
0.00289614
-0.0657263
0.0108532
-0.038977
0.0112415
-0.03293
0.00654169
-0.0479449
-0.00221471
-0.0713456
-0.0121623
-0.112594
-0.0230352
-0.164495
-0.032261
-0.223404
-0.0370494
-0.280637
-0.0405758
-0.318589
-0.0396711
-0.347112
-0.0397883
-0.353697
-0.0393214
-0.35418
-0.0398286
-0.34201
-0.0416096
-0.327343
-0.0442868
-0.31206
-0.0479357
-0.295914
-0.0516642
-0.279771
-0.0555166
-0.261928
-0.0593208
-0.243225
-0.0630804
-0.223736
-0.0667307
-0.203982
-0.0702474
-0.184308
-0.1651
-0.0736
-0.000471979
-0.0379698
-0.00269408
-0.0028464
-0.0376678
-0.00445735
-0.0374948
-0.00537336
-0.0375836
-0.0056401
-0.0381413
-0.00535463
-0.0393436
-0.00461233
-0.0414206
-0.00355895
-0.0444979
-0.00233038
-0.0486708
-0.00109014
-0.05389
3.99273e-06
-0.0600117
0.00082172
-0.066889
0.00111943
-0.0741834
0.000917659
-0.0819568
-0.000261501
-0.0881656
-0.000971267
-0.0918144
0.000611237
-0.0853463
0.00877279
-0.0704066
0.0201418
-0.0471904
0.0255835
-0.0355704
0.0245374
-0.0444741
0.0170428
-0.0618191
0.00703183
-0.100954
-0.00527612
-0.150964
-0.0180413
-0.209822
-0.0262849
-0.271976
-0.0351665
-0.309677
-0.0378698
-0.344749
-0.0420402
-0.350216
-0.0448008
-0.352431
-0.0479853
-0.340128
-0.0521904
-0.324696
-0.0565837
-0.309444
-0.0620408
-0.292411
-0.067401
-0.2765
-0.0728346
-0.258676
-0.0780347
-0.240256
-0.0831061
-0.220906
-0.0879296
-0.201373
-0.0925539
-0.181836
-0.162789
-0.0969284
0.000536368
-0.036464
-0.00384819
-0.00181354
-0.0362883
-0.00340804
-0.0360714
-0.0041768
-0.0362365
-0.00433837
-0.0367136
-0.00383817
-0.0379609
-0.00295427
-0.0398828
-0.00163199
-0.0429423
-0.000260738
-0.0467928
0.0013175
-0.0519324
0.00256191
-0.0575166
0.00385862
-0.0643218
0.00456079
-0.0709714
0.0052121
-0.0787121
0.00486194
-0.0839994
0.00533673
-0.0886077
0.00726499
-0.0837751
0.0154724
-0.0753371
0.0281445
-0.0568414
0.0374795
-0.042167
0.040971
-0.0455304
0.0350305
-0.053761
0.0257229
-0.089855
0.0128792
-0.13666
-0.00336519
-0.192445
-0.0148537
-0.259675
-0.0289157
-0.295112
-0.035641
-0.337813
-0.0438107
-0.342107
-0.0504153
-0.346131
-0.056112
-0.334951
-0.0631852
-0.318323
-0.0693445
-0.304127
-0.0768481
-0.285854
-0.0839405
-0.270417
-0.0912432
-0.252405
-0.0980596
-0.234451
-0.104835
-0.215081
-0.111166
-0.195895
-0.117365
-0.176358
-0.157523
-0.123191
0.00274982
-0.00632173
0.000466744
-0.00129266
-0.00192979
-0.0021192
-0.00142421
-0.000488606
0.00105771
0.0025052
0.00431573
0.00572398
0.00737498
0.00857771
0.0100372
0.0109699
0.0131875
0.0164611
0.0245237
0.0359137
0.0462778
0.0529431
0.0491589
0.0422234
0.0290408
0.0108286
-0.00422215
-0.0224053
-0.0335095
-0.0451038
-0.0553076
-0.0640511
-0.0737851
-0.082219
-0.0917729
-0.100723
-0.109918
-0.118528
-0.127176
-0.135271
-0.143329
-0.150917
0.126581
-0.142796
0.121519
-0.118395
0.118065
-0.0951398
0.115703
-0.0742125
0.11367
-0.0565739
0.111117
-0.0430513
0.107245
-0.034018
0.101544
-0.0293835
0.0939649
-0.0287216
0.0847541
-0.0310856
0.0744844
-0.0351884
0.0635285
-0.0401159
0.0518798
-0.0457432
0.0395904
-0.0524836
0.0267586
-0.0600779
0.0149336
-0.0679237
-0.066932
0.109159
-0.135013
0.104644
-0.11375
0.101746
-0.0933425
0.0999711
-0.0747011
0.0986879
-0.058612
0.0971738
-0.0457813
0.0947592
-0.0366075
0.0908831
-0.031086
0.0851344
-0.0289229
0.0776065
-0.029664
0.0687712
-0.0323957
0.0590871
-0.0361919
0.0486996
-0.040622
0.0374543
-0.0458142
0.0252413
-0.0515738
0.0122839
-0.0576574
-0.0562018
0.0927583
-0.127711
0.0887425
-0.10926
0.0862169
-0.0914217
0.0848031
-0.074919
0.0839825
-0.0603706
0.0831449
-0.0483659
0.0816878
-0.0392876
0.07911
-0.0332126
0.0750778
-0.0299987
0.0693585
-0.0292803
0.0621832
-0.0306005
0.0538914
-0.0331387
0.044708
-0.0363525
0.0345991
-0.0401183
0.0235784
-0.0443014
0.0114646
-0.0484804
-0.0467365
0.0777354
-0.120684
0.0740364
-0.104798
0.0717597
-0.0893214
0.0705767
-0.0748157
0.0700556
-0.0617742
0.0696811
-0.0506817
0.0689221
-0.0418865
0.0673249
-0.0355256
0.0645207
-0.0315269
0.0603456
-0.0297181
0.0547165
-0.0297149
0.047867
-0.031008
0.0400061
-0.0330293
0.0311475
-0.0354624
0.0213226
-0.0381964
0.0103964
-0.0406531
-0.0386935
0.0640731
-0.113989
0.060657
-0.100382
0.0585368
-0.0870157
0.0574663
-0.0743502
0.0571019
-0.0627643
0.0570114
-0.0526377
0.0567337
-0.0442737
0.0558534
-0.0378406
0.0540438
-0.033342
0.051059
-0.0306756
0.04684
-0.0296347
0.041406
-0.0297824
0.0348672
-0.0306378
0.0273475
-0.0318968
0.018896
-0.0333759
0.00949343
-0.0344333
-0.0318166
0.0518819
-0.107556
0.0486613
-0.0959755
0.0466409
-0.0845104
0.045613
-0.0735255
0.0452995
-0.0633156
0.04536
-0.0541843
0.0453987
-0.0463671
0.0450391
-0.0400389
0.0439717
-0.0352593
0.0419569
-0.0319858
0.0388631
-0.0301113
0.0347336
-0.0293666
0.0295392
-0.0291935
0.0233287
-0.0293623
0.0162253
-0.0297631
0.00823652
-0.0296394
-0.0263719
0.0410826
-0.101398
0.0380438
-0.0916107
0.0360889
-0.081829
0.035061
-0.0723664
0.0347361
-0.0634397
0.0348417
-0.0552935
0.0350673
-0.0481148
0.0350823
-0.0420483
0.0345869
-0.0371744
0.0333505
-0.0335114
0.0312096
-0.031011
0.0281211
-0.0295175
0.0241824
-0.0286074
0.0193088
-0.0278646
0.0135187
-0.0272794
0.00689355
-0.0261568
-0.0223629
0.0316184
-0.0955267
0.0287348
-0.087301
0.0268342
-0.0790115
0.0257899
-0.0709168
0.0254225
-0.0631729
0.0255155
-0.0559789
0.0258211
-0.0494819
0.0260783
-0.0438052
0.0260249
-0.0390201
0.0254189
-0.0351569
0.0240806
-0.0322229
0.0219289
-0.0301542
0.0190019
-0.0286408
0.0153231
-0.0272469
0.0108277
-0.0258706
0.00555033
-0.0239133
-0.0197139
0.0233461
-0.0899344
0.0206222
-0.0830857
0.0187786
-0.0761052
0.0177198
-0.069232
0.0173046
-0.0625696
0.0173608
-0.0562799
0.0176897
-0.0504766
0.0180814
-0.0452652
0.0183256
-0.04071
0.0182184
-0.0368413
0.0175669
-0.0336706
0.0162374
-0.0311877
0.014258
-0.0292388
0.0116223
-0.0273486
0.00823014
-0.0253168
0.00423536
-0.0227955
-0.0183286
0.0161219
-0.0846683
0.0135592
-0.0789941
0.0117872
-0.0731623
0.0107302
-0.0673735
0.0102778
-0.0616921
0.0102947
-0.0562499
0.0106234
-0.0511331
0.0110948
-0.0464306
0.0115373
-0.0421985
0.0117837
-0.0384662
0.011673
-0.0352462
0.0110524
-0.0325311
0.00988824
-0.0302814
0.00822075
-0.028091
0.0059592
-0.0256242
0.00311733
-0.0226337
-0.0179509
0.00976398
-0.0797039
0.00738172
-0.0750675
0.00570296
-0.0702348
0.00467167
-0.0654033
0.00420449
-0.0606067
0.00419557
-0.0559504
0.00452132
-0.051499
0.00504622
-0.0473254
0.00563216
-0.0434786
0.00614474
-0.0399876
0.00644741
-0.0368583
0.00640731
-0.0340825
0.00593027
-0.0316551
0.00509346
-0.0293373
0.00383567
-0.0266507
0.00206606
-0.0233148
-0.0184635
0.00411566
-0.075103
0.00192029
-0.0713279
0.000356861
-0.0673683
-0.000620106
-0.0633804
-0.00107297
-0.0593786
-0.00108337
-0.0554462
-0.000747272
-0.0516307
-0.000172436
-0.0479897
0.000529959
-0.0445659
0.00124928
-0.0413852
0.00187786
-0.0384529
0.00231287
-0.0357622
0.00244028
-0.0332932
0.00229695
-0.0309542
0.0018878
-0.0282315
0.00111244
-0.0247357
-0.0197269
-0.00101552
-0.0708176
-0.00299709
-0.0678123
-0.00441673
-0.0646083
-0.00530728
-0.0613603
-0.00571296
-0.0580694
-0.00569492
-0.0548002
-0.00532649
-0.0515857
-0.0046931
-0.0484693
-0.00388426
-0.045487
-0.00298845
-0.0426631
-0.00208954
-0.0400049
-0.0012753
-0.0374988
-0.000618337
-0.035137
-0.000137121
-0.0328793
0.000200988
-0.03026
0.000280216
-0.0267382
-0.0215865
-0.0057485
-0.0669176
-0.00751067
-0.0645309
-0.00876712
-0.0619853
-0.00954226
-0.0593887
-0.00986676
-0.0567349
-0.0097886
-0.0540699
-0.00936176
-0.051419
-0.00865132
-0.0488131
-0.0077301
-0.0462787
-0.00666852
-0.0438403
-0.00553448
-0.0415059
-0.0043937
-0.0392619
-0.00330655
-0.0371036
-0.00230637
-0.0350153
-0.00134591
-0.0326098
-0.000507459
-0.0292141
-0.0239715
-0.0102489
-0.0633278
-0.011767
-0.061508
-0.0128298
-0.0595349
-0.0134586
-0.0575072
-0.0136731
-0.0554193
-0.0135058
-0.0533035
-0.0129946
-0.051179
-0.012187
-0.0490658
-0.011138
-0.0469816
-0.00990795
-0.0449446
-0.00855059
-0.0429675
-0.00711364
-0.0410413
-0.00564852
-0.039156
-0.00422348
-0.0372772
-0.00275223
-0.0351705
-0.00124991
-0.0320595
-0.0268174
-0.0145928
-0.0601243
-0.0158561
-0.0587492
-0.0167123
-0.0572704
-0.017172
-0.0557435
-0.0172475
-0.0541608
-0.0169617
-0.0525436
-0.0163423
-0.0509057
-0.0154223
-0.049261
-0.0142392
-0.0476222
-0.0128347
-0.046002
-0.0112543
-0.0444088
-0.0095377
-0.0428378
-0.00773075
-0.041272
-0.00589461
-0.0396605
-0.00399241
-0.0378653
-0.00192967
-0.0351665
-0.0300475
-0.0188782
-0.0572149
-0.0198797
-0.0562523
-0.0205107
-0.0552056
-0.0207778
-0.0541207
-0.0206862
-0.0529912
-0.0202521
-0.0518272
-0.0194956
-0.0506383
-0.01844
-0.0494348
-0.0171117
-0.048226
-0.0155406
-0.0470203
-0.0137595
-0.0458227
-0.0117962
-0.0446329
-0.00967028
-0.0434411
-0.00741421
-0.0421827
-0.00508957
-0.0406898
-0.00254753
-0.0384518
-0.0335904
-0.0231838
-0.0546521
-0.0239
-0.0540275
-0.0242826
-0.0533547
-0.0243327
-0.0526582
-0.0240536
-0.0519296
-0.0234517
-0.051176
-0.0225375
-0.0504026
-0.0213246
-0.0496167
-0.0198303
-0.0488235
-0.0180756
-0.0480275
-0.0160838
-0.0472311
-0.0138772
-0.0464346
-0.0114709
-0.0456348
-0.00887443
-0.0447723
-0.00610148
-0.0436744
-0.00308302
-0.0419125
-0.0373578
-0.0274869
-0.0523292
-0.0279473
-0.0520285
-0.0280892
-0.0516966
-0.0279148
-0.0513538
-0.027424
-0.0509943
-0.0266212
-0.0506203
-0.0255151
-0.0502332
-0.0241164
-0.0498381
-0.0224358
-0.0494403
-0.0204846
-0.0490435
-0.0182756
-0.0486484
-0.0158219
-0.0482549
-0.0131358
-0.0478604
-0.0102112
-0.0474236
-0.00702549
-0.0467878
-0.00359646
-0.0454839
-0.0413243
-0.031861
-0.0503047
-0.0320364
-0.0502642
-0.0319259
-0.0502265
-0.0315233
-0.050198
-0.0308245
-0.0501713
-0.029828
-0.050146
-0.0285348
-0.0501214
-0.0269481
-0.0501001
-0.0250728
-0.0500859
-0.0229146
-0.0500818
-0.0204789
-0.0500888
-0.0177724
-0.0501052
-0.0148035
-0.0501269
-0.0115621
-0.0501308
-0.00802606
-0.0499719
-0.00418736
-0.0491669
-0.045566
-0.0361556
-0.0484336
-0.0360881
-0.0486692
-0.0357366
-0.0489128
-0.0351042
-0.0491755
-0.0341882
-0.0494563
-0.0329856
-0.0497553
-0.0314935
-0.0500714
-0.0297109
-0.0504058
-0.0276377
-0.0507614
-0.0252741
-0.0511411
-0.0226193
-0.0515467
-0.0196714
-0.0519775
-0.0164283
-0.0524297
-0.0128784
-0.0528898
-0.00896332
-0.0532591
-0.00470809
-0.052971
-0.050013
-0.0404179
-0.0468292
-0.0400557
-0.0472696
-0.039442
-0.047754
-0.0385665
-0.0482803
-0.0374216
-0.0488448
-0.0360008
-0.0494468
-0.0342979
-0.0500851
-0.0323074
-0.0507601
-0.0300246
-0.0514741
-0.027444
-0.0522308
-0.0245586
-0.0530335
-0.0213608
-0.0538821
-0.0178465
-0.054769
-0.0140084
-0.0556842
-0.00978019
-0.0565875
-0.00515006
-0.0568578
-0.0545886
-0.0444507
-0.0452902
-0.0438587
-0.0459729
-0.0430113
-0.0466973
-0.0419097
-0.047474
-0.0405484
-0.0483062
-0.0389201
-0.0491953
-0.0370157
-0.0501415
-0.034826
-0.0511457
-0.0323409
-0.0522109
-0.0295499
-0.0533411
-0.0264459
-0.0545365
-0.0230175
-0.0558009
-0.0192476
-0.0571321
-0.0151211
-0.0585181
-0.0105667
-0.0599746
-0.00557137
-0.0608222
-0.0592759
-0.0483098
-0.0439559
-0.0474454
-0.0447933
-0.046364
-0.0457179
-0.045049
-0.0467222
-0.0434882
-0.0478054
-0.0416699
-0.048968
-0.0395812
-0.0502116
-0.037208
-0.0515382
-0.0345364
-0.0529503
-0.0315559
-0.0544486
-0.0282475
-0.0560413
-0.0245916
-0.0577327
-0.0205677
-0.0595212
-0.0161552
-0.0613944
-0.0112885
-0.0634129
-0.00596626
-0.0648325
-0.0640548
-0.0517238
-0.0425658
-0.0506655
-0.0436242
-0.0493864
-0.0447548
-0.0478854
-0.0459764
-0.0461516
-0.0472981
-0.0441702
-0.0487242
-0.0419233
-0.0502589
-0.0393925
-0.0519046
-0.0365624
-0.0536605
-0.0334087
-0.055536
-0.029909
-0.0575367
-0.0260398
-0.0596675
-0.0217767
-0.0619276
-0.0170974
-0.0643018
-0.0119493
-0.0668803
-0.00631471
-0.0688835
-0.0688882
-0.0547467
-0.0413278
-0.0534514
-0.0424824
-0.0519866
-0.0437735
-0.0503272
-0.0451906
-0.0484527
-0.0467375
-0.0463421
-0.0484192
-0.0439709
-0.0502424
-0.0413177
-0.0522063
-0.0383535
-0.0543171
-0.0350512
-0.0565816
-0.0313828
-0.0590057
-0.0273217
-0.0615924
-0.0228416
-0.0643396
-0.0179219
-0.0672258
-0.0125266
-0.0703557
-0.00658391
-0.0729847
-0.0737108
-0.0571051
-0.0398914
-0.0556681
-0.0412499
-0.0540634
-0.0427101
-0.0522853
-0.0443111
-0.0503118
-0.0460724
-0.0481143
-0.048005
-0.045662
-0.0501174
-0.0429218
-0.0524101
-0.0398583
-0.0548908
-0.0364368
-0.0575649
-0.0326242
-0.0604359
-0.0283914
-0.0635013
-0.023714
-0.0667538
-0.0185757
-0.0701623
-0.012958
-0.0738331
-0.006781
-0.0770814
-0.0784693
-0.0588482
-0.0385648
-0.0572411
-0.0399385
-0.0555338
-0.0415152
-0.0536867
-0.0432809
-0.0516652
-0.0452489
-0.0494311
-0.0474334
-0.0469461
-0.0498415
-0.0441636
-0.0524814
-0.0410389
-0.0553574
-0.0375291
-0.0584722
-0.0335969
-0.0618222
-0.0292137
-0.0653949
-0.024361
-0.0691718
-0.0190315
-0.0731091
-0.0132302
-0.0772995
-0.00689516
-0.0811234
-0.0831064
-0.0597648
-0.0368773
-0.0580955
-0.0384309
-0.0563412
-0.0401296
-0.0544818
-0.042045
-0.0524728
-0.0442136
-0.0502631
-0.0466551
-0.0477985
-0.049378
-0.0450207
-0.0523938
-0.0418725
-0.0557034
-0.0383037
-0.0593014
-0.0342749
-0.0631716
-0.0297621
-0.0672847
-0.0247573
-0.071604
-0.0192703
-0.0760667
-0.0133314
-0.0807432
-0.00691134
-0.0850718
-0.0875574
-0.0599095
-0.0352795
-0.0581768
-0.0367298
-0.0564442
-0.038492
-0.054646
-0.0405432
-0.0527202
-0.0429146
-0.0506023
-0.0456267
-0.0482171
-0.0486969
-0.0454908
-0.0521334
-0.0423542
-0.0559303
-0.0387511
-0.0600675
-0.0346441
-0.0645079
-0.030018
-0.0691976
-0.0248818
-0.0740743
-0.0192683
-0.0790489
-0.0132412
-0.0841593
-0.0068121
-0.0888939
-0.0917488
-0.0591846
-0.0331377
-0.0575048
-0.0347329
-0.0558586
-0.0365582
-0.0541949
-0.0387292
-0.0524281
-0.0413091
-0.0504726
-0.0443162
-0.0482253
-0.0477832
-0.0455933
-0.0517051
-0.0424965
-0.0560613
-0.0388757
-0.0608077
-0.0346998
-0.0658773
-0.0299683
-0.0711826
-0.0247135
-0.0766265
-0.0189997
-0.0820857
-0.0129337
-0.0875535
-0.0065793
-0.0925593
-0.0955982
-0.0576655
-0.0311063
-0.0560715
-0.0324355
-0.0546115
-0.0342644
-0.0531753
-0.036553
-0.0516555
-0.0393585
-0.0499295
-0.0427117
-0.0478717
-0.0466451
-0.0453678
-0.0511395
-0.042327
-0.0561473
-0.0386912
-0.0615889
-0.0344409
-0.0673558
-0.0295977
-0.0733167
-0.0242266
-0.0793285
-0.0184338
-0.0852244
-0.0123813
-0.0909397
-0.00619839
-0.096035
-0.0990181
-0.0553862
-0.0283275
-0.0540005
-0.0297603
-0.0527993
-0.0315909
-0.0516738
-0.0339916
-0.0504833
-0.0370475
-0.0490522
-0.0408208
-0.0472258
-0.0453189
-0.0448688
-0.0504991
-0.0418827
-0.0562739
-0.0382148
-0.0625138
-0.0338649
-0.0690549
-0.0288861
-0.0757091
-0.0233889
-0.0822736
-0.0175357
-0.0885272
-0.0115571
-0.0943352
-0.00565672
-0.0992838
-0.101918
-0.0524595
-0.0257411
-0.0513433
-0.0267087
-0.0505223
-0.0284876
-0.0498122
-0.0310194
-0.0490238
-0.0343895
-0.047939
-0.0386838
-0.0463683
-0.0438764
-0.0441562
-0.049886
-0.0411995
-0.0565681
-0.0374585
-0.0637257
-0.0329618
-0.0711229
-0.0278083
-0.0784982
-0.0221687
-0.0855744
-0.0162765
-0.0920652
-0.0104414
-0.0977585
-0.00494783
-0.102265
-0.10421
-0.049027
-0.0221948
-0.0483088
-0.0232333
-0.0479403
-0.0249719
-0.0477307
-0.0276493
-0.0474012
-0.0314326
-0.0466932
-0.0363811
-0.0453779
-0.0424332
-0.0432806
-0.0494477
-0.0402998
-0.0572019
-0.0364183
-0.0654099
-0.0317078
-0.0737429
-0.0263299
-0.0818463
-0.0205335
-0.0893531
-0.0146362
-0.0959071
-0.00902782
-0.101223
-0.00407133
-0.10494
-0.105814
-0.0452619
-0.0189953
-0.0450029
-0.0193719
-0.0452101
-0.021029
-0.0455716
-0.0239273
-0.0457415
-0.0282598
-0.0454139
-0.0340377
-0.0443227
-0.0411529
-0.0422782
-0.0493804
-0.0391902
-0.0583927
-0.035077
-0.0677896
-0.0300703
-0.0771257
-0.0244135
-0.0859312
-0.0184493
-0.0937383
-0.0125903
-0.100121
-0.00730932
-0.104734
-0.00302876
-0.107268
-0.106655
-0.0413445
-0.0146519
-0.0416768
-0.0151082
-0.0425275
-0.0167164
-0.0434901
-0.0199569
-0.0441683
-0.0250023
-0.0441939
-0.0318262
-0.0432633
-0.0402468
-0.0411789
-0.0499255
-0.037873
-0.0603979
-0.0334172
-0.0711195
-0.0280239
-0.0814998
-0.0220364
-0.0909362
-0.0159008
-0.0988575
-0.0101286
-0.104773
-0.00527369
-0.108298
-0.00182515
-0.109194
-0.106669
-0.0375292
-0.0108675
-0.0384901
-0.0105358
-0.0400292
-0.0121292
-0.0416156
-0.0158635
-0.0427826
-0.0218342
-0.0431025
-0.029964
-0.0422399
-0.0399682
-0.0399966
-0.0513618
-0.03634
-0.0635075
-0.0314141
-0.0756784
-0.0255371
-0.0871069
-0.0191696
-0.0970464
-0.0128743
-0.104825
-0.00726906
-0.1099
-0.00296742
-0.111898
-0.000500215
-0.11067
-0.105831
-0.0339203
-0.00589995
-0.0356352
-0.0056713
-0.0378496
-0.0074321
-0.0400166
-0.0118495
-0.0415967
-0.0189962
-0.0421048
-0.0287256
-0.0411799
-0.0406165
-0.0386348
-0.0539992
-0.0344861
-0.0680249
-0.0289653
-0.081746
-0.0225058
-0.0941914
-0.0157125
-0.104443
-0.00929149
-0.111732
-0.00397744
-0.115493
-0.00042513
-0.115443
0.000910445
-0.111643
-0.10415
-0.0308494
-0.00168101
-0.0331855
-0.000797602
-0.0359772
-0.0028817
-0.0386515
-0.00815435
-0.0405597
-0.0167446
-0.0411364
-0.0284043
-0.0399878
-0.0425261
-0.0369498
-0.0581982
-0.0321167
-0.074305
-0.0258461
-0.0896308
-0.0187265
-0.102973
-0.0115081
-0.113255
-0.00504833
-0.119608
-0.000185087
-0.121497
0.00242905
-0.118839
0.00243147
-0.112002
-0.101603
-0.131814
-0.207266
0.143146
-0.120549
-0.203371
-0.109548
-0.197593
-0.0988047
-0.190098
-0.0884934
-0.181166
-0.0786073
-0.17109
-0.0692497
-0.160202
-0.060437
-0.148833
-0.0522041
-0.137305
-0.0445811
-0.125913
-0.0375638
-0.114914
-0.0311754
-0.104513
-0.0254185
-0.0948726
-0.0202678
-0.0861094
-0.0157633
-0.0782743
-0.0118206
-0.0714032
-0.00852801
-0.0654555
-0.00573743