/*--------------------------------*- C++ -*----------------------------------*\
  =========                 |
  \\      /  F ield         | OpenFOAM: The Open Source CFD Toolbox
   \\    /   O peration     | Website:  https://openfoam.org
    \\  /    A nd           | Version:  6
     \\/     M anipulation  |
\*---------------------------------------------------------------------------*/
FoamFile
{
    version     2.0;
    format      ascii;
    class       surfaceVectorField;
    location    "2.78";
    object      Uf;
}
// * * * * * * * * * * * * * * * * * * * * * * * * * * * * * * * * * * * * * //

dimensions      [0 1 -1 0 0 0 0];

internalField   nonuniform List<vector> 
8193
(
(12.3115 0.157854 1.107e-18)
(12.4983 0.112609 -3.49719e-19)
(11.6878 0.0798725 -9.73916e-19)
(12.5894 0.257544 -1.0436e-19)
(12.7732 0.254139 1.39378e-19)
(12.6973 0.398694 0)
(12.8662 0.383401 1.47641e-19)
(12.7636 0.555487 5.44631e-20)
(12.9327 0.512202 -1.42541e-19)
(12.8254 0.7361 -7.38775e-20)
(13.0168 0.671396 5.71159e-20)
(12.8981 0.952141 1.00362e-19)
(13.1275 0.870261 -5.46866e-20)
(12.9961 1.22146 7.13201e-20)
(13.2826 1.121 1.72283e-19)
(13.13 1.56533 -1.52426e-19)
(13.4939 1.44369 -4.92745e-20)
(13.2909 2.00079 1.96067e-20)
(13.7482 1.85619 2.95553e-19)
(13.4408 2.52954 -1.27842e-20)
(13.9877 2.35697 2.60345e-19)
(13.4697 3.12125 8.96369e-19)
(14.0873 2.9056 -7.32994e-19)
(13.2695 3.73607 9.97526e-18)
(13.8973 3.4514 1.10494e-18)
(12.7707 4.2673 -1.09308e-18)
(13.3171 3.91375 -2.50969e-18)
(11.9575 4.68778 5.66905e-19)
(12.3977 4.24474 1.74763e-18)
(10.9022 4.99259 8.61546e-18)
(11.2508 4.38255 -1.31065e-18)
(9.7339 5.14147 -9.05901e-19)
(9.97941 4.39449 2.42891e-18)
(8.58377 5.14076 -3.21028e-19)
(8.73935 4.29881 -5.4892e-19)
(7.56307 5.02371 -1.52405e-19)
(7.65036 4.13139 4.39819e-19)
(6.74853 4.81672 2.03632e-19)
(6.76844 3.91715 0)
(6.16426 4.54453 1.99545e-19)
(6.11545 3.65971 7.75973e-19)
(5.77682 4.21085 7.21444e-20)
(5.65652 3.35872 0)
(5.53024 3.79244 9.21762e-21)
(5.33554 3.01268 7.82953e-19)
(5.37968 3.29663 -1.09047e-21)
(5.12411 2.61563 -1.09065e-21)
(5.31059 2.7525 1.80258e-19)
(5.0061 2.1683 2.01528e-20)
(5.3389 2.18137 -3.77129e-18)
(4.99506 1.68405 -7.59179e-20)
(5.5603 1.70307 -4.10124e-19)
(5.12025 1.22992 7.63531e-20)
(6.14659 1.459 6.60875e-18)
(5.49957 0.953069 -3.29906e-19)
(7.08097 1.47015 -5.14219e-18)
(6.25211 0.969568 4.42418e-19)
(8.11395 1.56812 -2.16765e-19)
(7.25514 1.18462 -2.16182e-19)
(8.98803 1.56651 2.82172e-19)
(8.24155 1.36141 1.10284e-20)
(9.61366 1.41784 -4.4648e-18)
(9.0155 1.35833 6.83506e-19)
(10.0475 1.19295 -2.69388e-19)
(9.56738 1.2056 -3.48584e-19)
(10.3658 0.970791 3.79798e-21)
(9.97623 1.00865 -5.58783e-19)
(10.6053 0.778636 1.03565e-19)
(10.2933 0.826233 4.05945e-19)
(10.7819 0.614509 -1.10967e-18)
(10.536 0.666622 -1.64992e-19)
(10.9088 0.473791 -9.55953e-20)
(10.7155 0.525304 -1.60044e-19)
(10.9975 0.35123 0)
(10.8463 0.401717 3.80668e-20)
(11.0486 0.245129 3.87154e-21)
(10.9389 0.294926 1.92262e-20)
(11.0329 0.155447 -6.05148e-20)
(11.0149 0.197225 1.91455e-20)
(10.8805 0.0906612 1.09637e-19)
(11.0369 0.11992 -6.46372e-20)
(10.9271 0.0861804 4.79069e-19)
(10.5061 0.0559243 6.10656e-20)
(12.8804 0.245951 2.4267e-18)
(12.8299 0.164668 -4.56777e-20)
(12.7008 0.0217116 -2.45846e-19)
(12.9458 0.357426 4.02761e-19)
(12.9269 0.303068 6.36261e-19)
(13.0225 0.477805 1.30308e-18)
(13.0398 0.41251 -5.3063e-20)
(13.1226 0.622554 -1.42607e-19)
(13.1506 0.525801 -1.96521e-19)
(13.2543 0.804328 1.97012e-21)
(13.2978 0.677377 -2.33337e-20)
(13.4361 1.03754 1.72457e-20)
(13.4987 0.878901 1.75579e-21)
(13.6925 1.34429 5.53419e-20)
(13.7829 1.14521 4.67984e-19)
(14.0177 1.74734 6.2257e-19)
(14.1402 1.49578 -2.7102e-19)
(14.336 2.24569 1.33786e-18)
(14.484 1.92771 1.73132e-18)
(14.5047 2.80242 1.00498e-18)
(14.6787 2.40828 -3.51223e-18)
(14.3956 3.3427 -7.77309e-19)
(14.5796 2.86528 -1.96662e-18)
(13.9023 3.792 -1.37798e-18)
(14.0657 3.20373 3.98722e-18)
(12.9826 4.10429 -3.83086e-18)
(13.1204 3.35063 -1.53419e-18)
(11.7684 4.20066 -2.41419e-19)
(11.867 3.34158 1.75747e-18)
(10.4227 4.07445 -5.60048e-18)
(10.4938 3.12542 -1.95987e-18)
(9.08465 3.80995 5.59337e-18)
(9.16468 2.85191 3.08288e-18)
(7.89372 3.47359 4.74733e-19)
(7.98672 2.55072 -1.61101e-18)
(6.92918 3.12395 7.31133e-19)
(7.02251 2.24637 1.53269e-19)
(6.20266 2.8032 1.69573e-19)
(6.27785 1.95801 0)
(5.67658 2.49163 1.65975e-19)
(5.71471 1.69183 4.72304e-20)
(5.30286 2.17235 8.38022e-20)
(5.30996 1.44038 4.10779e-20)
(5.04333 1.84124 8.21536e-20)
(5.02506 1.18599 -2.20704e-19)
(4.88904 1.49624 2.01619e-20)
(4.83596 0.921136 -1.58985e-20)
(4.84358 1.138 -2.33698e-19)
(4.72634 0.653528 -1.31972e-19)
(4.90657 0.813588 1.56838e-19)
(4.73721 0.401355 -7.33164e-19)
(5.1257 0.622664 1.52724e-19)
(4.90419 0.213459 4.98092e-19)
(5.62454 0.630327 -1.06248e-19)
(5.28058 0.180432 -1.10702e-19)
(6.44211 0.824524 0)
(5.96688 0.371607 -5.56452e-19)
(7.4081 1.08521 1.09392e-20)
(6.89497 0.717648 5.50246e-19)
(8.29628 1.23477 3.60992e-19)
(7.83369 1.01198 -6.98968e-21)
(8.99208 1.20993 -1.93701e-18)
(8.6071 1.11352 1.06969e-18)
(9.51388 1.07246 -2.2413e-18)
(9.19139 1.04602 -7.98879e-19)
(9.91912 0.904174 1.13375e-18)
(9.64513 0.90699 -5.30081e-19)
(10.2393 0.745138 -7.14541e-19)
(10.0115 0.762781 6.4125e-19)
(10.4853 0.601607 -2.08332e-19)
(10.3033 0.628613 -3.50938e-19)
(10.6679 0.473084 4.71838e-19)
(10.527 0.503325 -6.58987e-20)
(10.804 0.358217 5.70644e-20)
(10.6917 0.390784 -1.255e-20)
(10.9076 0.258355 3.4981e-20)
(10.8102 0.292456 -3.35525e-20)
(10.9908 0.169969 1.62545e-20)
(10.9032 0.200091 6.83304e-20)
(11.037 0.0982465 -7.77939e-21)
(10.9573 0.122455 -6.13003e-20)
(10.9604 0.0858267 -7.8173e-21)
(10.9814 0.0947504 -7.12346e-21)
(12.9608 0.25763 2.80881e-19)
(12.9844 0.198829 3.09125e-19)
(12.9042 0.141598 5.2283e-20)
(13.0566 0.345566 7.62551e-21)
(13.0845 0.27052 -7.19237e-20)
(13.1879 0.442002 -2.13944e-19)
(13.234 0.346055 -6.35303e-23)
(13.3559 0.574761 -6.96223e-21)
(13.4115 0.443297 -2.20833e-19)
(13.5769 0.750811 -1.64306e-22)
(13.644 0.575328 6.71058e-20)
(13.883 0.984731 4.56132e-19)
(13.9675 0.754241 -5.36422e-20)
(14.2767 1.2962 -1.06922e-20)
(14.3946 0.99926 4.78831e-19)
(14.6762 1.68456 9.99518e-19)
(14.833 1.31134 -4.45371e-19)
(14.9144 2.10495 -1.88322e-18)
(15.0903 1.64935 -1.11223e-18)
(14.8571 2.50466 -6.4179e-18)
(15.0518 1.94612 -1.63782e-18)
(14.379 2.78281 -1.91443e-19)
(14.5381 2.11656 -1.63889e-18)
(13.4361 2.86271 3.36389e-18)
(13.5243 2.09141 1.41727e-19)
(12.161 2.73733 0)
(12.1857 1.87045 -2.45199e-19)
(10.7508 2.46488 0)
(10.7375 1.50179 8.81958e-18)
(9.36868 2.10536 0)
(9.34324 1.09705 -3.14479e-18)
(8.14408 1.72454 -1.53927e-18)
(8.12546 0.724764 0)
(7.14468 1.38466 -2.13128e-18)
(7.13325 0.385661 -1.50202e-18)
(6.36634 1.10089 -6.13051e-19)
(6.34649 0.0959001 -6.11185e-19)
(5.77209 0.862582 4.04045e-21)
(5.74122 -0.129546 -7.6411e-19)
(5.32815 0.660813 5.03273e-20)
(5.28716 -0.294445 7.72564e-19)
(5.00708 0.471011 -5.32291e-20)
(4.95422 -0.421076 -7.90691e-21)
(4.79075 0.28315 -1.15022e-19)
(4.72014 -0.530872 9.66987e-20)
(4.67644 0.0932726 -7.46796e-20)
(4.5666 -0.624462 -1.5601e-20)
(4.65806 -0.0711194 -5.24624e-19)
(4.49807 -0.691923 6.99765e-19)
(4.75219 -0.188888 -6.67364e-20)
(4.54353 -0.721437 1.05641e-18)
(5.01548 -0.192732 3.49941e-19)
(4.7441 -0.682346 -3.47547e-19)
(5.51199 0.000390351 -4.41417e-19)
(5.14105 -0.509765 6.75031e-19)
(6.26394 0.353506 2.41109e-18)
(5.77915 -0.165826 -1.26024e-18)
(7.15387 0.721652 5.12186e-19)
(6.61367 0.278482 1.92463e-18)
(7.99102 0.954558 6.58122e-19)
(7.48022 0.645489 -6.62009e-19)
(8.67519 1.0024 -3.45888e-18)
(8.22672 0.821056 -3.00861e-19)
(9.21349 0.92454 -8.17887e-19)
(8.82292 0.823736 -5.31991e-19)
(9.64928 0.801137 2.318e-19)
(9.30892 0.741932 1.42871e-18)
(10.0068 0.674062 -1.5457e-18)
(9.71696 0.64134 -2.80524e-19)
(10.2923 0.552556 -2.15975e-19)
(10.0539 0.539833 -3.08528e-19)
(10.512 0.438725 2.25247e-20)
(10.3221 0.437761 -4.29799e-19)
(10.6753 0.336606 -5.60929e-20)
(10.5282 0.341307 3.84722e-19)
(10.7905 0.247871 -9.01279e-21)
(10.684 0.256837 -1.65045e-19)
(10.8699 0.166417 -6.43473e-19)
(10.8018 0.180706 2.65291e-19)
(10.9261 0.0995426 -6.18325e-20)
(10.8771 0.113457 -1.03267e-19)
(10.9207 0.0704224 0)
(10.9627 0.073387 0)
(13.1135 0.212554 3.4571e-19)
(13.1142 0.146105 2.90426e-19)
(13.0177 0.156662 2.36703e-19)
(13.2667 0.270607 -8.54624e-20)
(13.2606 0.1714 -3.28401e-19)
(13.4618 0.33913 2.79851e-19)
(13.4535 0.20371 4.43514e-19)
(13.7136 0.438494 -1.46431e-19)
(13.706 0.257946 -4.42172e-19)
(14.0557 0.575486 -2.54733e-19)
(14.0435 0.334107 7.30758e-20)
(14.5031 0.763944 -8.52113e-20)
(14.4945 0.446578 -3.76763e-20)
(14.9739 1.01538 -1.30187e-20)
(14.9983 0.611945 -1.44326e-18)
(15.2547 1.2837 -2.5625e-18)
(15.3036 0.795919 1.1969e-18)
(15.2347 1.50954 -7.20602e-19)
(15.2783 0.917256 -2.95668e-18)
(14.7654 1.59161 1.57802e-18)
(14.7415 0.889491 2.21923e-18)
(13.7353 1.4705 -3.86069e-18)
(13.6066 0.668271 -6.97264e-18)
(12.3376 1.16258 -3.88214e-18)
(12.1476 0.275329 3.28559e-20)
(10.8367 0.737806 7.29478e-18)
(10.6334 -0.226494 3.75827e-18)
(9.39942 0.264733 6.83156e-18)
(9.20222 -0.761182 3.23263e-18)
(8.14179 -0.189637 -3.06055e-18)
(7.96484 -1.2473 4.73374e-18)
(7.12271 -0.574103 -5.11683e-20)
(6.97585 -1.65181 -6.71368e-18)
(6.32585 -0.884048 -4.98548e-20)
(6.19531 -1.97269 3.424e-18)
(5.71422 -1.11397 -7.62898e-19)
(5.59895 -2.19615 -8.54893e-19)
(5.2536 -1.26442 4.54812e-20)
(5.16012 -2.32229 1.0384e-18)
(4.9144 -1.35375 7.18304e-19)
(4.83626 -2.36405 9.12107e-19)
(4.6758 -1.40359 1.52585e-19)
(4.60044 -2.34491 -4.67876e-20)
(4.52716 -1.42282 1.91846e-19)
(4.44641 -2.27657 1.08561e-18)
(4.46353 -1.40401 1.38399e-20)
(4.36701 -2.16588 6.12444e-20)
(4.49019 -1.33918 7.1301e-19)
(4.36176 -2.01241 9.97206e-19)
(4.62682 -1.21214 -2.9396e-19)
(4.4578 -1.81017 -5.06107e-19)
(4.91508 -0.993727 -2.33261e-19)
(4.68921 -1.5426 -1.46939e-18)
(5.3974 -0.642369 -1.30908e-19)
(5.09197 -1.17893 1.19428e-18)
(6.07163 -0.178331 1.76947e-18)
(5.68985 -0.705882 -1.52966e-18)
(6.85994 0.271125 -8.03782e-19)
(6.42828 -0.193991 1.97144e-18)
(7.63047 0.57612 -1.64015e-18)
(7.19751 0.220833 -7.34229e-19)
(8.29442 0.699763 1.87101e-18)
(7.89041 0.456466 -1.04971e-18)
(8.84652 0.691479 3.95765e-18)
(8.47447 0.527552 1.2957e-18)
(9.31481 0.624796 -9.41857e-19)
(8.97566 0.508406 4.63912e-19)
(9.71416 0.541963 -6.92491e-19)
(9.41463 0.459649 -1.27372e-18)
(10.0448 0.453606 -4.98251e-19)
(9.79055 0.399789 7.0096e-19)
(10.3093 0.363041 7.4289e-19)
(10.0995 0.32964 -5.01572e-20)
(10.5167 0.277641 3.01282e-19)
(10.3456 0.255773 7.25445e-20)
(10.6756 0.203298 5.60308e-19)
(10.5395 0.187677 2.49257e-19)
(10.7911 0.1381 7.98314e-20)
(10.6906 0.12732 -2.669e-19)
(10.8644 0.0842153 -1.18368e-19)
(10.7996 0.0751106 3.6633e-20)
(10.8667 0.0392517 6.95797e-20)
(10.9078 0.0383336 0)
(13.2669 0.0880814 5.25469e-22)
(13.2413 0.00815503 -6.56266e-20)
(13.1258 0.0755342 -1.54366e-21)
(13.472 0.102174 2.07994e-19)
(13.4381 -0.0203035 3.94255e-20)
(13.7344 0.116701 1.63656e-19)
(13.673 -0.0577265 1.55145e-19)
(14.0816 0.145925 -2.19136e-19)
(14.0011 -0.0823076 -2.11799e-19)
(14.5366 0.197402 3.85799e-20)
(14.4349 -0.100273 1.42485e-19)
(15.044 0.28165 -1.40526e-18)
(14.9461 -0.0995846 1.49501e-18)
(15.3942 0.395701 -4.99948e-19)
(15.3436 -0.0917706 -2.61598e-18)
(15.4 0.436315 7.36173e-19)
(15.274 -0.148191 4.13805e-19)
(14.8693 0.31985 8.6069e-20)
(14.6346 -0.357386 -1.44922e-18)
(13.6688 -0.00890835 -5.29762e-18)
(13.3427 -0.755043 5.03584e-19)
(12.0919 -0.504934 -2.74028e-18)
(11.7365 -1.30669 -8.92133e-18)
(10.4933 -1.08359 6.97269e-18)
(10.1625 -1.94431 6.5932e-18)
(9.03232 -1.67624 -1.49718e-18)
(8.72991 -2.57934 3.87918e-18)
(7.78591 -2.22039 2.75805e-18)
(7.50104 -3.1685 -1.08939e-18)
(6.79101 -2.66949 8.11083e-19)
(6.53074 -3.66559 5.16257e-18)
(6.02483 -3.0189 -3.1454e-18)
(5.79452 -4.03482 -6.46082e-18)
(5.45232 -3.25553 2.31919e-18)
(5.2551 -4.28146 -8.49403e-19)
(5.03792 -3.37609 9.28406e-19)
(4.87932 -4.39763 2.58678e-19)
(4.74704 -3.39482 1.65647e-18)
(4.62559 -4.39133 7.68791e-19)
(4.54919 -3.33434 -1.54273e-20)
(4.44883 -4.27668 -6.57619e-19)
(4.42766 -3.20403 3.31792e-19)
(4.34036 -4.0786 0)
(4.37336 -3.01626 3.87105e-19)
(4.2918 -3.81558 2.49825e-18)
(4.37555 -2.77787 1.29614e-19)
(4.30017 -3.50466 1.38967e-19)
(4.44907 -2.49062 -2.18374e-19)
(4.36319 -3.15136 -1.12313e-19)
(4.62473 -2.14633 -8.80402e-19)
(4.50599 -2.75319 2.80848e-19)
(4.93195 -1.73491 1.30475e-20)
(4.75557 -2.30474 -1.36457e-18)
(5.39722 -1.24288 -1.76314e-19)
(5.14488 -1.79427 -1.92529e-19)
(6.00766 -0.701461 8.86152e-20)
(5.68672 -1.22771 -9.23027e-19)
(6.69117 -0.203809 5.03841e-19)
(6.3322 -0.67945 1.71703e-18)
(7.37034 0.146775 -1.31037e-19)
(6.99252 -0.244334 -8.89393e-19)
(7.98505 0.328656 1.05246e-18)
(7.61197 0.0285928 8.43132e-19)
(8.52535 0.385203 -1.86074e-18)
(8.16397 0.157549 1.02142e-18)
(9.00649 0.378819 -1.72292e-18)
(8.66327 0.201001 -1.03672e-18)
(9.4336 0.347263 1.41089e-18)
(9.12014 0.208939 -4.22571e-19)
(9.79978 0.300646 1.20645e-18)
(9.52614 0.19765 -4.29221e-19)
(10.1019 0.242472 1.36087e-19)
(9.87092 0.167556 1.30086e-18)
(10.3456 0.180972 -1.67779e-21)
(10.1544 0.124784 -8.22182e-19)
(10.5395 0.124281 -4.44654e-19)
(10.3847 0.080504 4.66291e-19)
(10.6887 0.0756829 -3.48166e-19)
(10.5706 0.0403531 -3.23344e-19)
(10.796 0.0373579 1.56166e-19)
(10.7138 0.00561463 8.35976e-20)
(10.8097 -0.0172993 5.38947e-20)
(10.8663 0.00584937 2.82872e-19)
(13.4143 -0.129996 -2.62669e-22)
(13.3421 -0.226777 9.36336e-19)
(13.232 -0.0828022 8.5997e-22)
(13.667 -0.187843 1.24054e-20)
(13.5792 -0.327854 -1.84319e-18)
(13.9985 -0.261733 -9.88896e-21)
(13.8491 -0.464441 9.14635e-19)
(14.4327 -0.337683 3.52364e-19)
(14.2411 -0.604962 -2.07456e-19)
(14.9354 -0.415625 1.12841e-18)
(14.7033 -0.752875 3.17111e-20)
(15.3758 -0.475621 7.62287e-19)
(15.1557 -0.911811 1.01539e-18)
(15.3803 -0.631362 -8.76851e-19)
(15.0603 -1.12748 -1.36577e-18)
(14.6706 -0.927628 2.87352e-19)
(14.2328 -1.47357 2.93174e-19)
(13.2522 -1.41552 -4.98773e-21)
(12.7967 -1.99563 -3.9274e-19)
(11.5165 -2.03575 -3.27425e-18)
(11.0865 -2.65749 0)
(9.8433 -2.72232 2.016e-19)
(9.42625 -3.37687 -5.98905e-18)
(8.3706 -3.41726 3.4012e-18)
(7.97427 -4.09224 3.23583e-18)
(7.15186 -4.0552 4.12764e-18)
(6.7789 -4.75204 3.3229e-18)
(6.20096 -4.58032 1.1695e-18)
(5.85447 -5.33333 7.62751e-18)
(5.4896 -4.98464 -2.29353e-18)
(5.17651 -5.78412 -9.35744e-18)
(4.98506 -5.25503 -4.00702e-18)
(4.72526 -6.07457 3.0118e-18)
(4.64931 -5.386 -2.69941e-18)
(4.45263 -6.21167 -3.87345e-18)
(4.44601 -5.37832 1.16473e-19)
(4.3171 -6.204 3.53312e-18)
(4.34413 -5.24796 -2.24386e-18)
(4.26502 -6.05846 -8.6965e-19)
(4.31225 -5.0145 -1.33726e-18)
(4.25162 -5.78941 -2.65312e-18)
(4.31774 -4.69514 -4.57151e-21)
(4.27699 -5.42764 0)
(4.34991 -4.31661 7.41876e-20)
(4.32737 -5.00164 1.01888e-18)
(4.42134 -3.89556 -9.9012e-20)
(4.40775 -4.53306 -2.95091e-19)
(4.54682 -3.43192 3.66184e-19)
(4.52527 -4.03205 -2.35128e-19)
(4.74864 -2.92834 -1.91208e-19)
(4.69606 -3.50099 1.64584e-19)
(5.05354 -2.37997 -1.56223e-18)
(4.94712 -2.93836 1.56495e-18)
(5.48005 -1.79381 -9.43093e-19)
(5.30208 -2.3415 -1.50917e-18)
(6.01186 -1.21264 1.00083e-18)
(5.76679 -1.73465 -9.58315e-20)
(6.59526 -0.707807 3.72085e-19)
(6.30763 -1.18172 1.16644e-19)
(7.17337 -0.334414 7.80376e-19)
(6.86666 -0.747045 -9.41195e-19)
(7.72376 -0.110797 8.11272e-19)
(7.39932 -0.45459 -1.00462e-20)
(8.2367 0.00406748 -9.94145e-20)
(7.90479 -0.280079 1.67435e-18)
(8.71697 0.0589346 2.49288e-19)
(8.38716 -0.17784 -1.32095e-18)
(9.16051 0.0834278 -9.142e-19)
(8.84846 -0.111547 1.53623e-18)
(9.55405 0.0851106 4.13991e-19)
(9.27364 -0.0698217 -7.4979e-20)
(9.8894 0.0668809 -2.56626e-19)
(9.64621 -0.0540289 4.86043e-19)
(10.1687 0.0372363 -3.91202e-19)
(9.9615 -0.0590564 -3.29135e-19)
(10.3981 0.00604731 -4.92208e-20)
(10.2252 -0.072724 -2.82355e-19)
(10.5809 -0.0207528 -1.70013e-19)
(10.4458 -0.0867005 1.23385e-19)
(10.7204 -0.043854 -3.39715e-20)
(10.6209 -0.0993423 -1.49525e-19)
(10.7471 -0.10608 -1.62518e-19)
(10.8175 -0.0659777 2.04999e-19)
(13.5069 -0.467476 2.89638e-18)
(13.3754 -0.565065 8.87891e-19)
(13.2978 -0.341837 2.96809e-18)
(13.7873 -0.620545 -2.48639e-18)
(13.6301 -0.751741 -1.87153e-18)
(14.1673 -0.814212 8.61456e-19)
(13.9152 -1.01601 8.71941e-19)
(14.6317 -1.03621 -6.66107e-19)
(14.3147 -1.30439 2.58862e-19)
(15.0939 -1.26064 -6.25345e-20)
(14.7347 -1.60524 -2.5972e-19)
(15.0463 -1.5596 -2.73162e-19)
(14.6451 -1.93114 -8.07533e-19)
(14.1239 -1.96888 -1.80239e-19)
(13.6828 -2.3444 6.88324e-19)
(12.5365 -2.53103 5.01429e-19)
(12.1159 -2.90666 -1.91184e-18)
(10.7054 -3.22497 4.86401e-19)
(10.306 -3.58928 3.24303e-18)
(8.98659 -3.97505 -2.81325e-18)
(8.59367 -4.33257 -2.92657e-18)
(7.51146 -4.71745 -2.50573e-18)
(7.11006 -5.07942 -1.94511e-18)
(6.31512 -5.41133 3.86568e-18)
(5.91025 -5.78688 3.33106e-18)
(5.40904 -6.01708 6.84325e-18)
(5.01753 -6.42098 -6.87657e-19)
(4.77256 -6.49915 -2.57132e-18)
(4.42173 -6.94834 3.50189e-18)
(4.36955 -6.82747 -3.65897e-18)
(4.08068 -7.32345 -5.73304e-18)
(4.15652 -6.9908 2.02093e-18)
(3.94646 -7.52525 3.79793e-18)
(4.08887 -6.99548 1.86736e-18)
(3.9529 -7.55487 0)
(4.11702 -6.85221 1.80974e-18)
(4.05266 -7.43337 3.55098e-18)
(4.19282 -6.5839 -1.31866e-18)
(4.18394 -7.17307 1.23672e-18)
(4.29278 -6.20814 -1.28506e-18)
(4.31773 -6.79463 -7.09477e-19)
(4.40334 -5.75315 -1.42632e-18)
(4.44896 -6.3289 0)
(4.51868 -5.24297 -1.77542e-18)
(4.57271 -5.80324 -2.3135e-18)
(4.64337 -4.6978 -4.39768e-19)
(4.69888 -5.24206 -2.52333e-18)
(4.79517 -4.12813 -4.53902e-19)
(4.8397 -4.66087 -1.25629e-19)
(4.9997 -3.53607 1.02372e-18)
(5.01294 -4.06445 3.44758e-20)
(5.28103 -2.923 8.01695e-19)
(5.2422 -3.45475 1.02479e-18)
(5.64765 -2.30424 -6.96967e-19)
(5.54373 -2.83853 -1.54426e-18)
(6.08688 -1.7224 -9.81025e-19)
(5.91811 -2.24281 8.39018e-19)
(6.56826 -1.23137 -1.16727e-18)
(6.34661 -1.71146 -7.67545e-19)
(7.05387 -0.860571 -7.91236e-19)
(6.8049 -1.28887 2.82294e-21)
(7.53029 -0.607898 1.7229e-18)
(7.25827 -0.98601 -9.03096e-19)
(8.00246 -0.444281 5.87401e-19)
(7.70773 -0.776231 1.91597e-18)
(8.46769 -0.331562 6.75577e-19)
(8.16226 -0.622183 -1.33833e-18)
(8.91428 -0.249746 2.49085e-18)
(8.61624 -0.499758 1.0113e-18)
(9.32411 -0.195945 3.31248e-19)
(9.04878 -0.403831 1.24159e-18)
(9.68397 -0.168858 -1.75694e-19)
(9.4395 -0.338513 -6.06723e-19)
(9.99216 -0.160759 -1.64368e-19)
(9.77907 -0.300338 -3.33409e-19)
(10.253 -0.160366 -4.32069e-19)
(10.0707 -0.277528 7.70943e-19)
(10.4693 -0.159698 -1.59795e-19)
(10.3218 -0.260282 2.9371e-19)
(10.6413 -0.159183 -2.99348e-19)
(10.527 -0.244846 7.41403e-21)
(10.6835 -0.228571 -3.34294e-19)
(10.7663 -0.16326 7.09782e-19)
(13.4848 -0.9118 -1.75688e-20)
(13.2877 -0.980736 -1.76974e-20)
(13.2761 -0.694384 -1.64868e-20)
(13.7645 -1.18305 -5.0556e-20)
(13.5224 -1.26302 1.90997e-18)
(14.1462 -1.50999 -1.09034e-19)
(13.7964 -1.67389 -8.77698e-19)
(14.5564 -1.89029 -3.47127e-19)
(14.1143 -2.10548 -1.60429e-18)
(14.4641 -2.26888 -7.62205e-19)
(14.0819 -2.50884 4.67559e-19)
(13.4362 -2.70963 2.11346e-18)
(13.1217 -2.92116 5.968e-19)
(11.7536 -3.27102 8.98549e-20)
(11.4639 -3.41738 1.83446e-18)
(9.87586 -3.94951 9.04233e-19)
(9.58745 -4.02997 -3.99727e-19)
(8.13821 -4.67542 -9.17146e-19)
(7.82626 -4.71294 3.84397e-18)
(6.64527 -5.4069 -2.05397e-18)
(6.29782 -5.42537 -5.05389e-18)
(5.43843 -6.11657 4.23173e-18)
(5.05987 -6.13192 -6.27813e-19)
(4.5521 -6.76848 -3.57569e-19)
(4.16664 -6.79832 3.61851e-18)
(3.98559 -7.32081 -3.74623e-18)
(3.62224 -7.38388 -4.16678e-18)
(3.69971 -7.73753 0)
(3.38495 -7.84933 0)
(3.63573 -7.99072 1.7806e-18)
(3.38766 -8.16168 -1.74444e-18)
(3.72392 -8.06628 1.71745e-18)
(3.55601 -8.31746 1.53437e-18)
(3.90315 -7.97096 1.74482e-18)
(3.81103 -8.30789 1.96319e-18)
(4.12372 -7.73912 2.92328e-18)
(4.09401 -8.13109 3.53095e-19)
(4.34728 -7.38661 3.02504e-18)
(4.369 -7.82058 1.0868e-18)
(4.55047 -6.93376 1.74983e-18)
(4.61191 -7.39662 1.33143e-18)
(4.72499 -6.40989 1.53701e-18)
(4.81455 -6.88984 0)
(4.87539 -5.8384 1.90968e-18)
(4.98165 -6.32879 2.97547e-18)
(5.01601 -5.24101 3.38022e-19)
(5.12527 -5.73667 5.65546e-19)
(5.1673 -4.6308 3.40742e-19)
(5.26313 -5.13146 -1.10646e-18)
(5.35091 -4.01379 4.91994e-20)
(5.41549 -4.52279 3.52231e-19)
(5.58381 -3.39898 -1.25481e-18)
(5.60166 -3.91791 -5.92942e-19)
(5.87368 -2.80353 -8.92312e-20)
(5.83476 -3.32856 -5.49828e-19)
(6.21601 -2.25557 1.10694e-18)
(6.11844 -2.77384 8.48119e-19)
(6.5943 -1.7877 3.7829e-19)
(6.44586 -2.28094 -4.14568e-19)
(6.99378 -1.42435 1.32209e-19)
(6.80465 -1.87543 2.50281e-19)
(7.40417 -1.15425 1.08399e-19)
(7.18352 -1.56197 -1.9944e-18)
(7.82881 -0.949797 1.17944e-19)
(7.58095 -1.31975 1.84003e-18)
(8.26858 -0.785841 -2.93987e-19)
(8.00045 -1.12141 0)
(8.70798 -0.649999 -3.21231e-19)
(8.43716 -0.949307 -3.09726e-19)
(9.12449 -0.5435 -3.59547e-19)
(8.86661 -0.802132 1.09465e-18)
(9.50076 -0.467907 -9.30845e-19)
(9.26549 -0.686785 -2.22553e-18)
(9.83118 -0.416951 8.28096e-19)
(9.621 -0.602298 2.12326e-19)
(10.1174 -0.378529 1.76016e-18)
(9.93458 -0.538429 7.85696e-19)
(10.3622 -0.344913 4.01155e-19)
(10.2101 -0.484947 6.41498e-19)
(10.5641 -0.316553 2.38319e-19)
(10.4399 -0.435797 -1.46763e-19)
(10.6261 -0.390296 -2.08858e-19)
(10.7157 -0.296772 -1.44193e-19)
(13.2778 -1.42641 1.92125e-18)
(13.0163 -1.41883 2.88627e-18)
(13.1042 -1.1056 0)
(13.5176 -1.82565 8.57146e-18)
(13.1904 -1.80019 1.88242e-18)
(13.787 -2.27825 -1.73726e-18)
(13.3879 -2.33427 -1.16658e-18)
(13.7078 -2.70976 5.92403e-19)
(13.4023 -2.82506 -3.2319e-18)
(12.7913 -3.15048 9.3897e-19)
(12.6387 -3.20918 1.88034e-18)
(11.1321 -3.62915 3.61708e-19)
(11.023 -3.56675 1.00277e-18)
(9.22939 -4.18214 3.69174e-19)
(9.09268 -4.01312 1.06903e-18)
(7.45349 -4.79354 1.38451e-18)
(7.27294 -4.55331 -8.29862e-19)
(5.91128 -5.44703 -1.35028e-18)
(5.67467 -5.15424 1.13286e-18)
(4.65906 -6.12431 -2.63212e-18)
(4.36728 -5.79917 -2.09136e-18)
(3.75906 -6.788 6.92285e-19)
(3.42859 -6.45867 4.97911e-19)
(3.22744 -7.39204 3.81017e-19)
(2.88694 -7.08929 9.39831e-19)
(3.0246 -7.89352 -8.13238e-19)
(2.70076 -7.6501 -8.10638e-19)
(3.07909 -8.25914 -1.74163e-18)
(2.79269 -8.10967 1.71197e-18)
(3.30994 -8.47992 -1.69055e-18)
(3.06416 -8.4303 3.34068e-19)
(3.64266 -8.55289 1.94511e-18)
(3.44339 -8.61028 5.64895e-20)
(4.01529 -8.46643 1.35394e-20)
(3.87472 -8.64727 -4.60433e-18)
(4.37908 -8.22625 -3.143e-18)
(4.30101 -8.51907 -4.09184e-18)
(4.70091 -7.85783 -1.73904e-18)
(4.68686 -8.23496 -1.28434e-18)
(4.96653 -7.3897 -3.996e-19)
(5.00988 -7.8262 -4.93675e-19)
(5.17618 -6.85153 -1.00207e-18)
(5.26417 -7.3271 1.0122e-19)
(5.34052 -6.27016 -7.9208e-19)
(5.45793 -6.76986 -9.82041e-19)
(5.47738 -5.6676 2.323e-19)
(5.60635 -6.1807 1.73042e-19)
(5.60752 -5.06081 1.4667e-20)
(5.72897 -5.58092 5.75059e-20)
(5.75082 -4.46131 -2.33414e-19)
(5.84779 -4.98685 9.16384e-19)
(5.92332 -3.87928 1.14328e-19)
(5.9828 -4.40941 8.86449e-19)
(6.13434 -3.32816 3.23165e-19)
(6.14812 -3.85898 -6.3773e-19)
(6.38565 -2.82574 -4.74379e-19)
(6.35093 -3.34874 -8.56813e-19)
(6.67364 -2.38978 -3.89044e-19)
(6.59236 -2.89337 7.17621e-19)
(6.99362 -2.03 -1.80265e-18)
(6.87 -2.50334 -1.55523e-19)
(7.3432 -1.73972 -4.31771e-19)
(7.18188 -2.17732 -2.03089e-18)
(7.72331 -1.49983 1.81562e-18)
(7.52854 -1.90234 3.56859e-18)
(8.13252 -1.29277 0)
(7.90964 -1.66376 -1.65406e-18)
(8.5547 -1.10883 1.05039e-18)
(8.32432 -1.44937 0)
(8.96777 -0.952696 -6.88512e-19)
(8.74215 -1.25766 2.49684e-19)
(9.35106 -0.828324 -1.17329e-18)
(9.14035 -1.09519 -3.31812e-19)
(9.6952 -0.731238 -2.03171e-19)
(9.50408 -0.964044 1.16997e-18)
(10.0001 -0.650922 -7.64814e-19)
(9.832 -0.856698 -6.75106e-19)
(10.2682 -0.580362 4.8434e-20)
(10.1236 -0.763181 -1.76103e-19)
(10.4959 -0.518515 -5.28697e-19)
(10.3717 -0.675618 -6.82594e-19)
(10.5841 -0.595212 1.93052e-19)
(10.673 -0.468271 1.77865e-20)
(12.8408 -1.91886 2.83103e-18)
(12.5278 -1.79686 2.82905e-18)
(12.7341 -1.50181 1.14503e-17)
(12.9847 -2.41654 -4.13289e-19)
(12.6115 -2.25169 0)
(12.9729 -2.91678 -1.80593e-18)
(12.6437 -2.82508 -3.31934e-19)
(12.3081 -3.31849 -1.9407e-18)
(12.2181 -3.24975 -3.89346e-18)
(10.7954 -3.65002 8.91798e-19)
(10.8559 -3.48473 3.62836e-19)
(8.88381 -4.0014 -3.85552e-19)
(8.93927 -3.6897 2.60678e-18)
(7.04828 -4.42085 -7.24222e-20)
(7.04942 -4.00522 -1.63294e-19)
(5.4326 -4.92475 8.80663e-20)
(5.36632 -4.41755 1.00245e-18)
(4.10228 -5.5021 5.00944e-20)
(3.95804 -4.92232 -1.35601e-18)
(3.13664 -6.12593 6.03817e-19)
(2.91412 -5.50737 5.86113e-20)
(2.56851 -6.75774 5.33594e-19)
(2.28536 -6.13808 -8.39952e-19)
(2.37494 -7.34661 0)
(2.06583 -6.78279 2.54452e-18)
(2.47804 -7.86359 1.70851e-18)
(2.14813 -7.38899 0)
(2.78192 -8.28096 3.52092e-18)
(2.45107 -7.91968 -2.44978e-18)
(3.20512 -8.56599 1.81416e-18)
(2.90135 -8.33623 -5.36534e-19)
(3.68614 -8.7111 -6.76912e-18)
(3.4201 -8.61809 5.26033e-18)
(4.18259 -8.71494 -8.66633e-18)
(3.95741 -8.76691 -5.19912e-18)
(4.65512 -8.55372 -2.20258e-18)
(4.49385 -8.76866 1.49719e-18)
(5.06335 -8.23954 -9.57541e-20)
(4.97738 -8.59183 -2.75422e-18)
(5.38921 -7.8059 1.81929e-20)
(5.37817 -8.25392 2.37819e-18)
(5.6354 -7.2902 9.89764e-20)
(5.68583 -7.7995 9.83788e-20)
(5.81518 -6.72444 0)
(5.91058 -7.27153 2.53558e-18)
(5.94664 -6.13577 0)
(6.06951 -6.70131 -6.28927e-19)
(6.05198 -5.5462 4.58613e-20)
(6.18241 -6.11579 4.17045e-19)
(6.15371 -4.97146 3.45008e-19)
(6.27298 -5.53763 4.61705e-20)
(6.27006 -4.42282 -1.40504e-20)
(6.36396 -4.98222 -2.30404e-19)
(6.41326 -3.91038 -1.17758e-18)
(6.47275 -4.45967 -6.66152e-19)
(6.59008 -3.44379 1.01056e-19)
(6.61121 -3.97867 -9.82344e-19)
(6.80452 -3.031 8.76053e-19)
(6.78556 -3.54485 1.07327e-18)
(7.05971 -2.67308 -2.48571e-19)
(6.99981 -3.1605 6.9182e-19)
(7.35787 -2.3622 1.7495e-18)
(7.25708 -2.82153 9.67025e-19)
(7.69811 -2.08671 7.15182e-19)
(7.55857 -2.51727 3.15262e-19)
(8.07191 -1.83592 -1.74715e-18)
(7.9057 -2.24022 -3.12282e-19)
(8.47195 -1.61293 -8.23082e-19)
(8.28542 -1.98871 -5.0393e-20)
(8.8723 -1.41431 6.05885e-19)
(8.68774 -1.75883 -2.2666e-18)
(9.25261 -1.24501 1.98164e-18)
(9.07925 -1.55436 1.43066e-18)
(9.60165 -1.10287 1.46552e-18)
(9.44423 -1.37907 4.28291e-19)
(9.91774 -0.979857 5.46489e-19)
(9.77865 -1.22848 8.28014e-19)
(10.2012 -0.869242 -8.58219e-19)
(10.0793 -1.09308 -8.23019e-19)
(10.4474 -0.769019 9.4892e-21)
(10.3397 -0.964333 -9.72216e-19)
(10.5711 -0.846205 7.21156e-19)
(10.647 -0.683143 -1.45206e-18)
(12.2012 -2.2531 0)
(11.8775 -2.01239 4.51289e-18)
(12.1849 -1.79572 1.58698e-18)
(12.1815 -2.77334 2.5863e-19)
(11.839 -2.47026 0)
(11.8251 -3.22849 -2.27586e-18)
(11.6625 -2.98703 2.50055e-19)
(10.6956 -3.47936 -7.05486e-18)
(10.8692 -3.29535 -4.99441e-18)
(8.90994 -3.60829 -2.10203e-18)
(9.19869 -3.29312 4.01498e-18)
(7.0232 -3.76679 2.71764e-18)
(7.26377 -3.30371 -9.59817e-19)
(5.32005 -4.03943 9.11975e-19)
(5.48214 -3.44604 2.95948e-18)
(3.88075 -4.43424 -5.32266e-19)
(3.9489 -3.72313 2.02464e-18)
(2.78474 -4.94003 -1.36926e-18)
(2.74173 -4.14058 -1.48693e-18)
(2.08886 -5.53095 -1.43528e-18)
(1.93864 -4.68967 1.85486e-19)
(1.79454 -6.16886 6.42287e-19)
(1.55422 -5.33856 -1.30391e-18)
(1.83687 -6.82498 2.42933e-18)
(1.52341 -6.04157 2.44419e-19)
(2.12802 -7.45107 -3.99611e-18)
(1.75165 -6.74976 -9.17933e-22)
(2.5803 -7.99795 -6.15537e-18)
(2.17481 -7.41287 3.52329e-18)
(3.11895 -8.42709 3.8575e-18)
(2.73389 -7.97416 -2.22224e-18)
(3.6931 -8.71554 6.25403e-18)
(3.34742 -8.41226 -1.67962e-18)
(4.27609 -8.84769 5.34363e-18)
(3.96855 -8.73242 2.85686e-18)
(4.83621 -8.82534 9.47467e-19)
(4.58084 -8.89017 4.96752e-18)
(5.33252 -8.63112 -1.95751e-19)
(5.15584 -8.87448 1.03655e-18)
(5.7315 -8.28128 2.4012e-18)
(5.64215 -8.67918 -2.81628e-18)
(6.02828 -7.82111 2.52676e-18)
(6.01951 -8.31669 0)
(6.23703 -7.28943 1.87468e-18)
(6.29407 -7.85259 -1.93738e-19)
(6.37718 -6.72151 -2.11864e-19)
(6.48269 -7.32212 -4.71218e-19)
(6.47171 -6.14597 4.19118e-19)
(6.60529 -6.75944 1.75463e-19)
(6.54521 -5.58519 1.65842e-19)
(6.68541 -6.19329 -4.41863e-19)
(6.61948 -5.05332 -9.90315e-20)
(6.74929 -5.64708 4.77825e-19)
(6.71138 -4.55939 -4.57472e-19)
(6.81861 -5.13332 4.40664e-19)
(6.83334 -4.1091 -1.18551e-19)
(6.90944 -4.65958 3.80099e-19)
(6.9938 -3.70346 8.77262e-19)
(7.03414 -4.22809 -4.04269e-19)
(7.19898 -3.33896 2.12891e-18)
(7.20084 -3.83748 1.08821e-18)
(7.45413 -3.00872 1.72108e-19)
(7.41327 -3.48292 2.47639e-19)
(7.75883 -2.70291 -3.07374e-19)
(7.67609 -3.15418 -1.06012e-18)
(8.10418 -2.41736 1.96975e-18)
(7.98944 -2.84478 2.94558e-18)
(8.47437 -2.15231 -1.41795e-18)
(8.34167 -2.55824 -1.02117e-18)
(8.8567 -1.91553 -2.08408e-18)
(8.71626 -2.2966 -5.04663e-19)
(9.22928 -1.70624 -8.98578e-19)
(9.09414 -2.05618 -5.91262e-19)
(9.57743 -1.52165 -6.8273e-19)
(9.45558 -1.83965 -1.16852e-18)
(9.89767 -1.35624 1.27638e-19)
(9.79065 -1.64661 2.21466e-19)
(10.1885 -1.20448 -1.31278e-19)
(10.0943 -1.46801 -7.32427e-19)
(10.4447 -1.06455 -1.00221e-18)
(10.3606 -1.29533 5.54198e-20)
(10.6018 -1.13723 -2.42846e-20)
(10.6592 -0.941489 1.89141e-19)
(11.4561 -2.30769 4.37779e-18)
(11.1939 -1.97352 4.33416e-18)
(11.5506 -1.89501 3.11444e-18)
(11.2488 -2.76471 0)
(11.0133 -2.34912 0)
(10.6331 -3.12399 -2.54234e-18)
(10.6434 -2.76044 0)
(9.28838 -3.19856 -1.8589e-18)
(9.6789 -2.92834 1.09037e-18)
(7.47341 -3.08595 7.1747e-19)
(7.99236 -2.71621 4.24186e-18)
(5.67682 -3.04504 -2.3543e-18)
(6.12304 -2.50782 -6.05641e-18)
(4.10095 -3.16937 3.97907e-18)
(4.43699 -2.47183 -1.19301e-18)
(2.82351 -3.46119 4.63565e-19)
(3.03409 -2.62447 2.26346e-18)
(1.91096 -3.90797 -3.88366e-19)
(1.98738 -2.97435 -1.90206e-19)
(1.39744 -4.50047 1.72381e-20)
(1.33182 -3.50876 -3.04158e-19)
(1.26268 -5.20599 -1.17543e-18)
(1.06568 -4.19753 -2.61499e-18)
(1.43316 -5.96783 -1.12419e-18)
(1.12463 -4.98589 1.70886e-18)
(1.81689 -6.73061 7.21004e-18)
(1.41507 -5.80792 -6.06554e-18)
(2.34082 -7.44729 7.12062e-18)
(1.88726 -6.60604 1.113e-17)
(2.95347 -8.07088 -6.60574e-18)
(2.50387 -7.32458 0)
(3.61081 -8.55334 -4.64679e-18)
(3.18931 -7.94831 -2.6272e-18)
(4.27156 -8.85983 1.84445e-18)
(3.88771 -8.47754 3.86214e-18)
(4.90593 -8.99148 5.44433e-18)
(4.5691 -8.83363 -5.12655e-18)