/*--------------------------------*- C++ -*----------------------------------*\
  =========                 |
  \\      /  F ield         | OpenFOAM: The Open Source CFD Toolbox
   \\    /   O peration     | Website:  https://openfoam.org
    \\  /    A nd           | Version:  6
     \\/     M anipulation  |
\*---------------------------------------------------------------------------*/
FoamFile
{
    version     2.0;
    format      ascii;
    class       surfaceScalarField;
    location    "2.96";
    object      phi;
}
// * * * * * * * * * * * * * * * * * * * * * * * * * * * * * * * * * * * * * //

dimensions      [0 3 -1 0 0 0 0];

internalField   nonuniform List<scalar> 
8193
(
0.256666
-0.47033
-0.256549
0.251208
-0.478676
0.243174
-0.481385
0.234627
-0.484403
0.226492
-0.489701
0.219226
-0.498421
0.212721
-0.511013
0.205289
-0.524995
0.192621
-0.528244
0.168709
-0.511148
0.13202
-0.467332
0.088568
-0.403295
0.0466581
-0.334364
0.012656
-0.270829
-0.011667
-0.218465
-0.0274113
-0.181315
-0.037602
-0.159436
-0.0448604
-0.151375
-0.0519284
-0.15274
-0.0591528
-0.16133
-0.0660273
-0.175343
-0.0715924
-0.193668
-0.075599
-0.21512
-0.0788481
-0.238737
-0.0830542
-0.263079
-0.089469
-0.286296
-0.0981143
-0.30739
-0.10824
-0.326265
-0.119157
-0.342908
-0.130455
-0.357216
-0.141822
-0.369249
-0.152964
-0.379233
-0.163627
-0.38739
-0.173607
-0.393865
-0.182743
-0.398751
-0.190927
-0.402186
-0.198114
-0.404333
-0.20411
-0.405357
-0.208221
-0.405485
-0.209269
-0.403817
-0.396777
-0.204061
0.266435
-0.457131
-0.268342
0.258346
-0.45691
0.249055
-0.456417
0.239807
-0.457881
0.230818
-0.462249
0.222491
-0.470849
0.214311
-0.483208
0.201755
-0.492825
0.176525
-0.483779
0.134031
-0.45015
0.0798186
-0.395665
0.0256634
-0.333028
-0.0204848
-0.273707
-0.0558777
-0.222757
-0.0795448
-0.18414
-0.0934855
-0.158894
-0.100593
-0.146147
-0.104262
-0.143909
-0.106116
-0.149521
-0.106466
-0.16206
-0.105746
-0.179564
-0.104874
-0.2004
-0.104864
-0.223251
-0.107109
-0.24674
-0.112362
-0.270028
-0.120165
-0.292439
-0.129645
-0.313355
-0.140166
-0.332404
-0.151418
-0.349215
-0.163102
-0.36364
-0.174852
-0.375778
-0.186308
-0.385824
-0.197138
-0.393954
-0.207041
-0.40027
-0.215734
-0.404841
-0.223002
-0.407745
-0.228764
-0.409027
-0.232896
-0.408919
-0.235142
-0.40782
-0.235289
-0.404837
-0.400257
-0.229324
0.274379
-0.43314
-0.281448
0.265521
-0.429545
0.256468
-0.427671
0.247242
-0.428164
0.237565
-0.43167
0.227503
-0.439844
0.2162
-0.451276
0.193821
-0.450463
0.155685
-0.426616
0.103847
-0.38052
0.0472046
-0.32272
-0.00535847
-0.265875
-0.0489659
-0.217415
-0.0814791
-0.179625
-0.103829
-0.153366
-0.117494
-0.139098
-0.124193
-0.135677
-0.126388
-0.140335
-0.125581
-0.151346
-0.123391
-0.167633
-0.121385
-0.18726
-0.120907
-0.208779
-0.122813
-0.231333
-0.127331
-0.254135
-0.134375
-0.276628
-0.14345
-0.298512
-0.154049
-0.319146
-0.16583
-0.337959
-0.178428
-0.354572
-0.191426
-0.36886
-0.2044
-0.3809
-0.216951
-0.390845
-0.228701
-0.39883
-0.239284
-0.404938
-0.248341
-0.409231
-0.255549
-0.411759
-0.260622
-0.412548
-0.26334
-0.411798
-0.263751
-0.409681
-0.261342
-0.405919
-0.401047
-0.255422
0.279892
-0.404342
-0.286913
0.272076
-0.399187
0.262803
-0.39547
0.252263
-0.394673
0.240918
-0.397693
0.228339
-0.405275
0.208914
-0.410798
0.175019
-0.396724
0.126734
-0.359937
0.0700176
-0.307079
0.0141225
-0.251953
-0.0348538
-0.20404
-0.0744064
-0.167145
-0.103538
-0.142018
-0.122502
-0.128244
-0.133053
-0.12475
-0.137734
-0.12958
-0.138597
-0.140427
-0.137378
-0.155855
-0.136066
-0.174508
-0.135963
-0.195107
-0.137814
-0.216733
-0.141994
-0.238869
-0.148431
-0.261146
-0.156805
-0.283224
-0.167063
-0.304503
-0.178914
-0.324551
-0.192001
-0.342831
-0.205888
-0.359012
-0.220134
-0.372948
-0.234317
-0.384672
-0.248022
-0.394312
-0.260837
-0.401984
-0.272348
-0.407768
-0.28214
-0.411729
-0.289828
-0.413895
-0.295037
-0.41431
-0.297449
-0.413146
-0.296882
-0.410486
-0.292996
-0.406269
-0.400892
-0.285653
0.287225
-0.370723
-0.29511
0.278064
-0.36433
0.267114
-0.359199
0.254456
-0.357388
0.240359
-0.359951
0.222522
-0.36504
0.193519
-0.360879
0.151
-0.334976
0.0974667
-0.289043
0.0416408
-0.235912
-0.00958272
-0.187532
-0.0529687
-0.149699
-0.0872627
-0.124211
-0.112136
-0.110869
-0.128224
-0.108268
-0.137484
-0.113991
-0.142409
-0.125522
-0.144891
-0.141134
-0.146542
-0.159648
-0.148499
-0.180158
-0.151384
-0.201875
-0.155563
-0.224114
-0.161313
-0.246419
-0.168823
-0.268484
-0.178251
-0.289967
-0.189554
-0.310445
-0.202617
-0.329525
-0.217035
-0.346935
-0.232282
-0.362432
-0.247899
-0.375781
-0.263447
-0.386972
-0.278488
-0.396112
-0.29259
-0.403298
-0.305315
-0.408615
-0.316206
-0.412146
-0.32482
-0.413921
-0.330731
-0.413989
-0.333567
-0.412505
-0.333026
-0.409525
-0.328765
-0.405091
-0.399517
-0.320595
0.293066
-0.332934
-0.30216
0.282238
-0.325589
0.269103
-0.31922
0.253712
-0.316484
0.235788
-0.318075
0.211492
-0.318557
0.17554
-0.304675
0.127923
-0.269189
0.0749161
-0.220066
0.0238658
-0.171183
-0.0212114
-0.131138
-0.0590303
-0.102968
-0.0889211
-0.0878367
-0.110718
-0.0850195
-0.125975
-0.091372
-0.136675
-0.104029
-0.144817
-0.120439
-0.151601
-0.139657
-0.157573
-0.161136
-0.163148
-0.184085
-0.168636
-0.207797
-0.174436
-0.231476
-0.181138
-0.254454
-0.189335
-0.276392
-0.199477
-0.29707
-0.211672
-0.31638
-0.22568
-0.334247
-0.241163
-0.35047
-0.257689
-0.364876
-0.274676
-0.377352
-0.291613
-0.387798
-0.308056
-0.396237
-0.323581
-0.402733
-0.337731
-0.4074
-0.350031
-0.410343
-0.359985
-0.411628
-0.367113
-0.411312
-0.371013
-0.409508
-0.371333
-0.406266
-0.367723
-0.401691
-0.396128
-0.359865
0.297899
-0.291511
-0.308716
0.284971
-0.283495
0.269322
-0.276076
0.25087
-0.272409
0.2287
-0.272325
0.199105
-0.267565
0.159137
-0.245608
0.111541
-0.204879
0.0628709
-0.15713
0.0181089
-0.114643
-0.0213585
-0.0823975
-0.0548422
-0.062716
-0.0816155
-0.056781
-0.102736
-0.0620664
-0.119594
-0.0750783
-0.13428
-0.0922381
-0.147588
-0.112275
-0.159465
-0.135076
-0.169773
-0.160163
-0.178681
-0.186422
-0.186587
-0.212898
-0.193998
-0.238671
-0.201679
-0.262788
-0.210464
-0.284825
-0.221001
-0.30472
-0.233599
-0.322682
-0.248243
-0.338929
-0.264574
-0.353583
-0.282074
-0.366603
-0.300233
-0.377844
-0.318514
-0.387213
-0.336414
-0.39468
-0.35345
-0.400284
-0.369145
-0.404122
-0.383019
-0.406313
-0.394585
-0.406941
-0.403339
-0.406104
-0.408834
-0.403894
-0.410694
-0.400338
-0.408547
-0.395594
-0.390074
-0.402023
0.3017
-0.247448
-0.314313
0.286681
-0.239014
0.2688
-0.230896
0.247575
-0.22619
0.221868
-0.224042
0.189091
-0.214716
0.148739
-0.187748
0.104744
-0.145976
0.062216
-0.102307
0.0232124
-0.0659518
-0.011751
-0.0403308
-0.0420586
-0.0278496
-0.0678744
-0.0288971
-0.0899226
-0.0403735
-0.110476
-0.0572246
-0.130081
-0.0775862
-0.148218
-0.101242
-0.164705
-0.12773
-0.179369
-0.156551
-0.192048
-0.186566
-0.203099
-0.216286
-0.213007
-0.244646
-0.222383
-0.27055
-0.232094
-0.293296
-0.242963
-0.312846
-0.255638
-0.329557
-0.270372
-0.344019
-0.287067
-0.356682
-0.305306
-0.367797
-0.324483
-0.377385
-0.343978
-0.385351
-0.36323
-0.391585
-0.381735
-0.396063
-0.399017
-0.398849
-0.4146
-0.400065
-0.427984
-0.399836
-0.438665
-0.398287
-0.446166
-0.395515
-0.450054
-0.391552
-0.449976
-0.38653
-0.380917
-0.445594
0.305414
-0.202258
-0.319356
0.288595
-0.19336
0.268961
-0.184961
0.245706
-0.179255
0.217856
-0.175197
0.184339
-0.162925
0.146477
-0.134348
0.107976
-0.0946643
0.0713814
-0.0556017
0.0373644
-0.0244828
0.00600247
-0.00411724
-0.0225881
0.00306248
-0.0478271
-0.00378549
-0.0726531
-0.0180329
-0.0974066
-0.0372146
-0.121309
-0.060577
-0.143639
-0.0878394
-0.163849
-0.118356
-0.182305
-0.150702
-0.199494
-0.183612
-0.215099
-0.216383
-0.228794
-0.247949
-0.241148
-0.276298
-0.252823
-0.300619
-0.264671
-0.320662
-0.277571
-0.336736
-0.292199
-0.34961
-0.308799
-0.360142
-0.327222
-0.368953
-0.347008
-0.376354
-0.367514
-0.38241
-0.38806
-0.387038
-0.408032
-0.390132
-0.426907
-0.391668
-0.444207
-0.391721
-0.459461
-0.390428
-0.472203
-0.387929
-0.48196
-0.384365
-0.488263
-0.379805
-0.490707
-0.374375
-0.368433
-0.48906
0.30986
-0.157101
-0.324962
0.291789
-0.147938
0.270928
-0.139527
0.246736
-0.133312
0.21835
-0.127902
0.186204
-0.11471
0.152523
-0.0874133
0.119694
-0.051356
0.0884448
-0.0165891
0.0585241
0.0105577
0.0305699
0.0263965
0.00456624
0.0291583
-0.0223292
0.020836
-0.0498552
0.004961
-0.0776805
-0.0160656
-0.105094
-0.0418642
-0.131368
-0.0721654
-0.156147
-0.105944
-0.179119
-0.141724
-0.199916
-0.178289
-0.219257
-0.213836
-0.237558
-0.24759
-0.254405
-0.278355
-0.269698
-0.304989
-0.284018
-0.326538
-0.298201
-0.343039
-0.313167
-0.355154
-0.329629
-0.363923
-0.347877
-0.370369
-0.367764
-0.375218
-0.388812
-0.378848
-0.410342
-0.381362
-0.431636
-0.382682
-0.452066
-0.382692
-0.471103
-0.381372
-0.48828
-0.378812
-0.503135
-0.375166
-0.515245
-0.37057
-0.52415
-0.365176
-0.529447
-0.359103
-0.352638
-0.530868
0.315911
-0.113082
-0.331968
0.297126
-0.104054
0.275776
-0.0959731
0.251402
-0.0896446
0.223764
-0.0838658
0.194305
-0.0717181
0.165288
-0.0476757
0.1377
-0.0157929
0.111289
0.015133
0.0863576
0.0382274
0.0617766
0.0512452
0.0361619
0.0526783
0.00902155
0.0436337
-0.0195058
0.0270162
-0.0488722
0.00482153
-0.0782574
-0.0228395
-0.106972
-0.0555631
-0.134733
-0.091912
-0.161514
-0.130151
-0.187379
-0.168962
-0.212151
-0.206776
-0.235723
-0.242739
-0.257954
-0.275671
-0.278618
-0.304502
-0.297442
-0.328306
-0.314811
-0.34644
-0.331569
-0.359089
-0.348689
-0.36714
-0.366917
-0.371821
-0.38661
-0.374227
-0.407703
-0.375139
-0.429753
-0.375023
-0.45205
-0.374062
-0.473851
-0.372167
-0.494522
-0.369213
-0.513557
-0.365175
-0.530514
-0.360167
-0.544962
-0.354346
-0.556517
-0.347854
-0.564787
-0.340874
-0.333661
-0.56947
0.32426
-0.0709489
-0.341313
0.305142
-0.0627435
0.283817
-0.0553562
0.260015
-0.0494376
0.233925
-0.0442269
0.207412
-0.0344594
0.182652
-0.0149032
0.160139
0.0120816
0.139059
0.0390179
0.11795
0.0596918
0.0960553
0.071155
0.0723546
0.0721727
0.0463216
0.0633593
0.0185471
0.0465061
-0.0106156
0.0238479
-0.0404353
-0.00488038
-0.0702844
-0.0391693
-0.100099
-0.0770147
-0.129981
-0.116513
-0.160062
-0.156308
-0.189939
-0.195359
-0.219649
-0.23236
-0.248465
-0.266886
-0.275739
-0.297771
-0.30084
-0.324054
-0.323537
-0.344674
-0.344199
-0.359196
-0.363711
-0.367967
-0.383048
-0.372107
-0.402966
-0.372908
-0.423917
-0.371438
-0.445996
-0.368506
-0.468818
-0.364766
-0.491658
-0.360467
-0.51376
-0.355518
-0.534506
-0.349769
-0.553413
-0.343219
-0.570095
-0.335963
-0.584189
-0.328155
-0.595348
-0.320016
-0.311792
-0.603288
0.33484
-0.0323034
-0.351935
0.315927
-0.0250757
0.295173
-0.0186432
0.27238
-0.0134584
0.24796
-0.00934924
0.22401
-0.00272075
0.202837
0.0114685
0.184569
0.0330498
0.167674
0.0562139
0.1505
0.0748797
0.131952
0.0855435
0.111102
0.0868108
0.0874086
0.0789092
0.0616062
0.0623581
0.0339305
0.0398905
0.00466153
0.0111974
-0.0258434
-0.0232876
-0.0574036
-0.0613822
-0.0898342
-0.101183
-0.123111
-0.14117
-0.156977
-0.180529
-0.191343
-0.217773
-0.225668
-0.252921
-0.259298
-0.284905
-0.291233
-0.313092
-0.320657
-0.336221
-0.347185
-0.353404
-0.371195
-0.364207
-0.393533
-0.369259
-0.415079
-0.369799
-0.43653
-0.367064
-0.458523
-0.361907
-0.481405
-0.355263
-0.504803
-0.348099
-0.527997
-0.340677
-0.550229
-0.332895
-0.57093
-0.324584
-0.58965
-0.315754
-0.606058
-0.306475
-0.619858
-0.296982
-0.287504
-0.630827
0.346698
0.00186099
-0.363334
0.32853
0.00801906
0.308841
0.013372
0.287503
0.0176281
0.26478
0.0205898
0.242574
0.0242307
0.223493
0.0329024
0.208122
0.0484722
0.194825
0.0673606
0.181513
0.0839488
0.166729
0.0941051
0.149509
0.0959454
0.129209
0.0893803
0.105772
0.0743417
0.0801833
0.0525209
0.0521586
0.0248778
0.0216527
-0.00839283
-0.0109743
-0.0455128
-0.0449384
-0.0850006
-0.0802746
-0.124512
-0.116827
-0.163419
-0.154265
-0.200401
-0.192234
-0.235489
-0.23055
-0.26743
-0.268251
-0.296356
-0.304267
-0.321095
-0.337541
-0.340728
-0.367576
-0.354239
-0.394781
-0.361333
-0.419932
-0.362863
-0.44356
-0.360295
-0.466288
-0.354374
-0.489187
-0.345586
-0.512652
-0.335564
-0.536471
-0.325186
-0.559806
-0.31499
-0.58206
-0.304582
-0.602589
-0.294051
-0.621051
-0.283204
-0.637152
-0.272273
-0.261393
-0.650748
0.358997
0.0308396
-0.374795
0.341832
0.0360375
0.323415
0.0403091
0.303706
0.0435394
0.282702
0.0455146
0.261694
0.0469355
0.243328
0.0508113
0.229241
0.060033
0.21839
0.0737091
0.208523
0.0874398
0.197645
0.0968407
0.184608
0.0991823
0.168466
0.0941766
0.148375
0.0816537
0.124859
0.0619345
0.0978155
0.0366068
0.0679755
0.00503078
0.0356931
-0.0306377
0.00182919
-0.0694221
-0.0345619
-0.107168
-0.0723475
-0.145321
-0.11183
-0.181115
-0.151878
-0.216007
-0.192864
-0.247226
-0.234331
-0.27572
-0.275254
-0.300866
-0.314678
-0.321659
-0.350967
-0.337742
-0.384099
-0.347188
-0.414039
-0.350847
-0.441873
-0.349046
-0.467158
-0.34405
-0.491006
-0.334778
-0.51451
-0.322884
-0.538516
-0.309496
-0.562498
-0.296537
-0.585864
-0.2837
-0.607932
-0.271194
-0.628118
-0.258763
-0.646158
-0.246368
-0.234101
-0.661879
0.37073
0.054566
-0.385779
0.354806
0.0586452
0.337522
0.0622604
0.319575
0.0641409
0.300189
0.065566
0.280664
0.0651803
0.262201
0.0661077
0.247988
0.0692663
0.237462
0.0775246
0.230219
0.0863335
0.222351
0.0948169
0.213319
0.0968783
0.201078
0.0937408
0.185074
0.0837383
0.165183
0.0667667
0.140974
0.0447179
0.113378
0.0155882
0.0819353
-0.0170735
0.0488705
-0.0549739
0.0120782
-0.0896258
-0.0259924
-0.127023
-0.0665303
-0.160755
-0.107751
-0.195241
-0.14983
-0.225739
-0.193326
-0.252799
-0.23669
-0.277888
-0.28057
-0.297788
-0.321885
-0.315852
-0.361312
-0.326376
-0.395957
-0.333767
-0.428751
-0.332508
-0.457992
-0.329487
-0.484779
-0.320817
-0.509424
-0.308934
-0.533371
-0.293843
-0.558059
-0.277483
-0.581657
-0.26284
-0.60512
-0.24736
-0.626466
-0.233769
-0.646204
-0.219575
-0.206332
-0.663434
0.380016
-0.395008
0.366625
0.349471
0.334294
0.315366
0.298892
0.278999
0.26593
0.251124
0.246424
0.23742
0.233888
0.223539
0.213572
0.197544
0.178202
0.154523
0.126023
0.0943344
0.0582367
0.0205694
-0.0199538
-0.0618951
-0.104307
-0.148605
-0.192359
-0.238746
-0.282631
-0.327805
-0.366772
-0.405049
-0.437698
-0.468824
-0.49625
-0.520757
-0.54661
-0.569722
-0.594395
-0.61624
-0.637431
-0.6555
0.130648
-0.606113
0.0929362
-0.612646
0.0567767
-0.611748
0.024029
-0.603239
-0.00396222
-0.587434
-0.0263089
-0.565088
-0.0424892
-0.53721
-0.0523303
-0.504975
-0.0560703
-0.46957
-0.0543146
-0.432189
-0.0480365
-0.394019
-0.0384819
-0.356298
-0.0270292
-0.320355
-0.0152398
-0.28742
-0.00483183
-0.257686
0.00375141
-0.23181
-0.196381
0.119237
-0.556931
0.0841235
-0.562825
0.0505436
-0.562586
0.0198089
-0.556129
-0.00692373
-0.543652
-0.0287753
-0.525668
-0.0451679
-0.502911
-0.0558749
-0.476232
-0.0609807
-0.446527
-0.060885
-0.414686
-0.0562742
-0.381617
-0.0480781
-0.348314
-0.0373995
-0.315923
-0.0256074
-0.285395
-0.0141413
-0.25683
-0.00467876
-0.230617
-0.192209
0.108271
-0.509455
0.0757848
-0.514549
0.0446253
-0.514771
0.0159402
-0.509988
-0.00927637
-0.500273
-0.0302459
-0.485949
-0.0464286
-0.467539
-0.0575265
-0.445671
-0.063511
-0.420992
-0.0646111
-0.394147
-0.0612963
-0.365812
-0.054239
-0.336781
-0.0443312
-0.307979
-0.0326204
-0.280192
-0.0201342
-0.253528
-0.00899652
-0.227261
-0.188153
0.0983298
-0.463433
0.0682246
-0.468075
0.0394069
-0.468728
0.0127543
-0.465301
-0.0109068
-0.457838
-0.0308889
-0.446547
-0.0466679
-0.431808
-0.0579102
-0.414077
-0.0645122
-0.393787
-0.0665898
-0.371377
-0.0644274
-0.347363
-0.0584904
-0.322364
-0.0494209
-0.29713
-0.0380074
-0.2723
-0.0251714
-0.247839
-0.0123602
-0.222487
-0.184011
0.0891196
-0.419687
0.0614145
-0.423875
0.0348604
-0.424832
0.0102159
-0.422499
-0.0118249
-0.416875
-0.030662
-0.408092
-0.0458111
-0.396431
-0.0569414
-0.382211
-0.0639018
-0.365699
-0.0667036
-0.347184
-0.0654919
-0.327058
-0.0605558
-0.305803
-0.052344
-0.284014
-0.0414373
-0.262198
-0.0285575
-0.240178
-0.0147215
-0.216393
-0.17955
0.0808252
-0.378364
0.0553772
-0.382196
0.0310045
-0.383394
0.00831971
-0.381934
-0.012093
-0.377801
-0.0297074
-0.371083
-0.0440837
-0.361989
-0.0549097
-0.350724
-0.0620081
-0.337432
-0.0653132
-0.322302
-0.0648673
-0.305628
-0.0608235
-0.287788
-0.0534694
-0.269248
-0.0432218
-0.250389
-0.0305847
-0.23095
-0.016251
-0.209177
-0.174689
0.0733606
-0.339725
0.0500881
-0.343283
0.0278211
-0.34467
0.00704869
-0.343896
-0.0117356
-0.340963
-0.0280735
-0.335934
-0.0415731
-0.328963
-0.0519468
-0.320163
-0.0590033
-0.309592
-0.0626257
-0.297373
-0.0627761
-0.283731
-0.05951
-0.268958
-0.0530018
-0.253407
-0.043519
-0.237372
-0.0313684
-0.220554
-0.0170195
-0.20104
-0.169388
0.0666433
-0.304155
0.0455115
-0.307355
0.0252714
-0.308842
0.00635683
-0.308602
-0.0108188
-0.306623
-0.0258549
-0.302967
-0.0384105
-0.297737
-0.0482259
-0.290972
-0.055102
-0.28268
-0.0588872
-0.272945
-0.0594873
-0.261941
-0.0568873
-0.249889
-0.0511813
-0.237039
-0.042538
-0.223616
-0.0311046
-0.209346
-0.0171366
-0.192212
-0.163663
0.0606922
-0.271477
0.0415807
-0.274479
0.0232976
-0.276035
0.0061816
-0.276195
-0.0094128
-0.27497
-0.0231416
-0.272418
-0.0347131
-0.268598
-0.0438956
-0.263495
-0.0504899
-0.257093
-0.05432
-0.249459
-0.055256
-0.240728
-0.0532338
-0.231062
-0.0482786
-0.220627
-0.0405031
-0.209566
-0.029974
-0.197657
-0.0167096
-0.182933
-0.157576
0.0553241
-0.242161
0.03824
-0.244785
0.0218518
-0.246317
0.00647372
-0.246754
-0.00758019
-0.246114
-0.0200166
-0.244438
-0.03059
-0.241743
-0.0390945
-0.237982
-0.0453336
-0.233132
-0.0491209
-0.227259
-0.0503095
-0.220463
-0.0488027
-0.212861
-0.0445706
-0.204558
-0.0376684
-0.195617
-0.0281259
-0.185846
-0.0158242
-0.173431
-0.151202
0.0506566
-0.215774
0.0354414
-0.21818
0.020863
-0.219675
0.00716675
-0.220305
-0.00538633
-0.220108
-0.0165522
-0.219111
-0.0261267
-0.217296
-0.0339253
-0.214601
-0.0397552
-0.211016
-0.043433
-0.206602
-0.0448079
-0.201431
-0.0437663
-0.195589
-0.0402473
-0.189131
-0.0342319
-0.182084
-0.0257037
-0.174256
-0.0145636
-0.163922
-0.144627
0.0463145
-0.192705
0.0330347
-0.194745
0.0202483
-0.196112
0.00819379
-0.196837
-0.00289648
-0.196952
-0.0128185
-0.196462
-0.0214012
-0.195316
-0.028473
-0.193459
-0.0338527
-0.190892
-0.037369
-0.18767
-0.0388777
-0.183843
-0.0382582
-0.179476
-0.0354256
-0.174594
-0.0303094
-0.16921
-0.0228626
-0.163117
-0.0130464
-0.154582
-0.137976
0.0426634
-0.172418
0.0311017
-0.174236
0.0199918
-0.175491
0.0095087
-0.176264
-0.000168875
-0.176592
-0.00888119
-0.176462
-0.0164828
-0.175813
-0.022816
-0.174603
-0.0277157
-0.172844
-0.0310279
-0.170582
-0.0326214
-0.167849
-0.0323826
-0.164693
-0.0302194
-0.161122
-0.0260168
-0.157177
-0.0197295
-0.152581
-0.0113306
-0.145588
-0.131365
0.0391801
-0.155242
0.0294317
-0.156688
0.0200008
-0.157762
0.0110555
-0.158507
0.00274889
-0.158948
-0.00478863
-0.159049
-0.0114275
-0.158751
-0.0170251
-0.158027
-0.0214341
-0.156896
-0.0245193
-0.155394
-0.0261617
-0.153538
-0.0262577
-0.151365
-0.0247331
-0.148854
-0.0215095
-0.146054
-0.0164905
-0.142709
-0.00953257
-0.137122
-0.124956
0.0363903
-0.140565
0.0282195
-0.141788
0.0203298
-0.142711
0.0128339
-0.143407
0.00583274
-0.143889
-0.000572108
-0.144125
-0.00627058
-0.144064
-0.0111422
-0.14369
-0.0150633
-0.143028
-0.0179201
-0.142107
-0.0196078
-0.140933
-0.0200338
-0.139536
-0.019129
-0.137873
-0.0168458
-0.135972
-0.013155
-0.133563
-0.00766366
-0.129313
-0.118866
0.0336953
-0.128687
0.0272137
-0.129553
0.0208864
-0.130271
0.0148179
-0.130859
0.00909237
-0.13131
0.00378803
-0.131588
-0.0010015
-0.131659
-0.00516845
-0.13152
-0.00861221
-0.131192
-0.0112442
-0.130691
-0.0129808
-0.130023
-0.0137483
-0.129206
-0.0134759
-0.128197
-0.0120981
-0.12702
-0.00962411
-0.125332
-0.00569308
-0.122173
-0.113131
0.0317771
-0.118989
0.0267428
-0.119647
0.0218245
-0.120196
0.017079
-0.120669
0.0125544
-0.121053
0.00830488
-0.121317
0.00439815
-0.12144
0.000909365
-0.121431
-0.002084
-0.121311
-0.00450762
-0.121095
-0.00629415
-0.120783
-0.00739184
-0.120378
-0.0077438
-0.119843
-0.0073081
-0.11919
-0.00600688
-0.118111
-0.00367249
-0.115738
-0.107799
0.0299388
-0.11177
0.0264741
-0.112101
0.022999
-0.112432
0.0195618
-0.11274
0.0162029
-0.113003
0.0129666
-0.113195
0.00990571
-0.113305
0.00707632
-0.113345
0.00452918
-0.113331
0.00230674
-0.113271
0.000451817
-0.113165
-0.000992997
-0.113018
-0.00197674
-0.112801
-0.00247405
-0.112502
-0.00241687
-0.111857
-0.00168591
-0.110048
-0.102968
0.0290352
-0.106408
0.0268813
-0.106575
0.0246738
-0.106727
0.0224181
-0.106871
0.0201273
-0.106994
0.0178235
-0.107079
0.0155372
-0.107124
0.0133013
-0.107144
0.0111455
-0.107152
0.00909534
-0.107152
0.00717495
-0.107144
0.00540028
-0.107124
0.00379414
-0.107073
0.00235942
-0.106956
0.00117874
-0.10659
0.000308397
-0.105133
-0.0986724
0.0283946
-0.103316
0.0276989
-0.103151
0.0267992
-0.103058
0.0257132
-0.102992
0.0244479
-0.10293
0.0230143
-0.102858
0.0214281
-0.10278
0.019704
-0.102709
0.0178532
-0.102656
0.0158849
-0.102624
0.0138081
-0.102611
0.0116289
-0.102611
0.00935995
-0.102611
0.00699998
-0.102564
0.00461226
-0.10235
0.00216483
-0.101033
-0.0950728
0.0288765
-0.10185
0.0294118
-0.101556
0.029696
-0.101261
0.0296995
-0.100987
0.0294024
-0.10072
0.0287945
-0.100459
0.0278707
-0.10021
0.0266247
-0.0999875
0.0250482
-0.0997986
0.0231311
-0.0996446
0.0208641
-0.0995244
0.0182347
-0.0994292
0.0152406
-0.0993551
0.0118684
-0.0992434
0.00817012
-0.0990401
0.0041118
-0.0977208
-0.0920868
0.0296791
-0.102578
0.0315769
-0.101894
0.0330477
-0.101315
0.0341046
-0.100802
0.0347152
-0.100294
0.0348543
-0.0997963
0.034507
-0.0993275
0.033653
-0.0988944
0.0322685
-0.0985013
0.0303297
-0.0981487
0.0278142
-0.0978361
0.0246984
-0.0975529
0.0209676
-0.097303
0.0165984
-0.097018
0.011628
-0.0967031
0.00598626
-0.0952257
-0.0897822
0.0315494
-0.104665
0.0345962
-0.103946
0.0371471
-0.103115
0.0391517
-0.102337
0.0405756
-0.101566
0.041378
-0.100802
0.041523
-0.100067
0.0409762
-0.0993679
0.0397011
-0.0987068
0.0376623
-0.0980838
0.0348262
-0.0974991
0.0311605
-0.0969415
0.0266417
-0.0964223
0.0212403
-0.0958652
0.0149876
-0.0953341
0.00778914
-0.0935682
-0.0882113
0.0341122
-0.108978
0.0383505
-0.107767
0.041945
-0.106644
0.0448639
-0.105585
0.0470392
-0.104509
0.0484214
-0.103431
0.0489689
-0.10238
0.0486358
-0.101358
0.0473752
-0.100364
0.0451435
-0.0993994
0.0419009
-0.0984664
0.0376111
-0.0975544
0.0322457
-0.0966799
0.0257748
-0.0957623
0.0182225
-0.0949163
0.00950615
-0.0927709
-0.0874233
0.0376403
-0.1145
0.0429962
-0.113312
0.0475631
-0.111869
0.051289
-0.110486
0.0541225
-0.109079
0.0559932
-0.107646
0.0568431
-0.106224
0.0566194
-0.10482
0.0552694
-0.103428
0.0527442
-0.102051
0.0490009
-0.100694
0.044003
-0.0993482
0.0377222
-0.0980351
0.030141
-0.0966805
0.0212743
-0.095427
0.0111373
-0.0928989
-0.0874437
0.0419603
-0.122332
0.0483879
-0.120579
0.0538901
-0.118804
0.0583886
-0.117062
0.0617971
-0.115261
0.0640515
-0.113414
0.0650938
-0.111565
0.0648665
-0.109714
0.0633153
-0.107858
0.0603933
-0.106
0.0560612
-0.104148
0.0502888
-0.102298
0.0430534
-0.100473
0.0343497
-0.0986103
0.0241764
-0.0968503
0.0127262
-0.094005
-0.0882238
0.0471848
-0.13132
0.0546487
-0.129583
0.0609882
-0.127413
0.0661291
-0.125256
0.0700068
-0.123024
0.0725395
-0.120712
0.0736597
-0.11837
0.0733119
-0.116007
0.0714465
-0.113617
0.0680216
-0.111208
0.0630087
-0.108791
0.0563952
-0.106374
0.0481729
-0.103975
0.038372
-0.101563
0.0269786
-0.0992253
0.0141646
-0.0959526
-0.0897841
0.0531046
-0.142698
0.0615361
-0.140309
0.0686882
-0.137736
0.074426
-0.135095
0.0786706
-0.13235
0.081366
-0.129509
0.0824452
-0.126608
0.0818612
-0.123664
0.0795717
-0.120672
0.0755453
-0.117639
0.0697665
-0.114585
0.0622375
-0.111525
0.0529772
-0.108485
0.0420283
-0.105447
0.0294518
-0.102509
0.0153869
-0.0987285
-0.0921626
0.0597908
-0.155227
0.0691499
-0.152769
0.0769729
-0.149697
0.0831575
-0.146506
0.0876634
-0.143214
0.0904111
-0.139782
0.0913311
-0.136244
0.0903822
-0.132638
0.0875362
-0.128959
0.082782
-0.12522
0.0761295
-0.121452
0.067611
-0.117679
0.0572785
-0.113936
0.0452122
-0.110221
0.0315103
-0.106638
0.0163551
-0.102318
-0.0953781
0.0669007
-0.170171
0.0771004
-0.166919
0.0855589
-0.163317
0.092153
-0.159518
0.0968116
-0.155583
0.0994771
-0.151473
0.100097
-0.147215
0.0986414
-0.142854
0.0951037
-0.138396
0.0895022
-0.133866
0.081882
-0.129304
0.072316
-0.124751
0.0609015
-0.120249
0.0477687
-0.115818
0.0330657
-0.111565
0.0170313
-0.106699
-0.0994233
0.0744248
-0.186189
0.0853951
-0.18272
0.094348
-0.1785
0.101204
-0.174042
0.105889
-0.169396
0.108335
-0.164512
0.108502
-0.159429
0.106386
-0.15421
0.10201
-0.148873
0.0954359
-0.143459
0.0867551
-0.138026
0.0760951
-0.132629
0.0636124
-0.127327
0.0495014
-0.122158
0.0339729
-0.117236
0.0173358
-0.111852
-0.1043
0.0818934
-0.204537
0.0936064
-0.200154
0.103031
-0.195251
0.110071
-0.19004
0.114645
-0.184561
0.116714
-0.17879
0.116264
-0.172765
0.113321
-0.166571
0.107957
-0.160248
0.100286
-0.153855
0.0904621
-0.147474
0.0786805
-0.14118
0.065171
-0.135048
0.0502065
-0.129144
0.0340723
-0.123578
0.0171711
-0.117748
-0.110032
0.0893219
-0.223807
0.101677
-0.219106
0.111424
-0.213427
0.118492
-0.207373
0.122805
-0.200956
0.124325
-0.194161
0.123076
-0.187063
0.119134
-0.179767
0.112629
-0.172343
0.103742
-0.164877
0.0927031
-0.157475
0.0797921
-0.15024
0.0653284
-0.143268
0.0496785
-0.136657
0.0332134
-0.130506
0.0164547
-0.124357
-0.116655
0.096198
-0.245203
0.109148
-0.239488
0.119174
-0.23296
0.126159
-0.225925
0.130049
-0.21842
0.130841
-0.210451
0.128614
-0.202133
0.1235
-0.193599
0.115703
-0.184953
0.105487
-0.176315
0.0931774
-0.167826
0.079152
-0.159618
0.063837
-0.151817
0.0477061
-0.144552
0.0312421
-0.137925
0.0151075
-0.13165
-0.124211
0.102466
-0.267357
0.115906
-0.26112
0.126038
-0.253628
0.132771
-0.245493
0.136059
-0.236751
0.135941
-0.227449
0.132547
-0.217753
0.126087
-0.207834
0.116851
-0.19784
0.105206
-0.187932
0.0915869
-0.178294
0.0764916
-0.169098
0.0604722
-0.160507
0.044127
-0.152685
0.0280702
-0.145747
0.0130836
-0.139578
-0.132723
0.107625
-0.29128
0.121523
-0.283862
0.131708
-0.275297
0.13806
-0.265884
0.140576
-0.255726
0.13936
-0.244917
0.134609
-0.233668
0.126624
-0.222204
0.115803
-0.210728
0.102635
-0.199456
0.0876877
-0.188621
0.071596
-0.178443
0.0550565
-0.169133
0.038808
-0.160895
0.0236086
-0.153868
0.0103468
-0.148084
-0.1422
0.111578
-0.315584
0.12583
-0.307468
0.135904
-0.297687
0.14172
-0.286853
0.143307
-0.275108
0.140817
-0.262601
0.134532
-0.249609
0.124858
-0.236424
0.112321
-0.223325
0.097556
-0.210594
0.0812836
-0.198526
0.0643034
-0.1874
0.0474732
-0.177482
0.0316794
-0.169013
0.017826
-0.162169
0.00689745
-0.157096
-0.152614
0.113887
-0.341156
0.128443
-0.331709
0.138337
-0.320586
0.143478
-0.308142
0.143951
-0.294609
0.139988
-0.280196
0.131974
-0.265262
0.120444
-0.250181
0.106071
-0.235317
0.0896535
-0.221039
0.0720922
-0.20772
0.0543698
-0.195712
0.0375212
-0.185339
0.0225957
-0.176882
0.0106505
-0.170566
0.00270372
-0.16655
-0.163952
0.114496
-0.366616
0.129272
-0.356289
0.138851
-0.343683
0.143179
-0.329468
0.142371
-0.313933
0.136739
-0.297384
0.126794
-0.280287
0.113225
-0.263122
0.0968832
-0.246355
0.0787624
-0.230459
0.0599711
-0.215905
0.0416953
-0.203125
0.0251521
-0.192501
0.0115532
-0.184355
0.00206855
-0.178934
-0.00222399
-0.176393
-0.176196
0.113145
-0.39282
0.128144
-0.380969
0.137386
-0.366757
0.140814
-0.350576
0.138592
-0.332803
0.131141
-0.313872
0.119113
-0.29438
0.103374
-0.274929
0.0849804
-0.256115
0.0651499
-0.238541
0.0452215
-0.222789
0.0266046
-0.209385
0.0107147
-0.198765
-0.00108872
-0.191273
-0.00756207
-0.187141
-0.00761991
-0.186488
-0.189095
-0.602424
-0.141579
0.621265
-0.581594
-0.157884
-0.557726
-0.174603
-0.532107
-0.191434
-0.50392
-0.208152
-0.474378
-0.224385
-0.44292
-0.239895
-0.410578
-0.254371
-0.377017
-0.267534
-0.343052
-0.27917
-0.308512
-0.289025
-0.274009
-0.296931
-0.239494
-0.302713
-0.205366
-0.306269
-0.171666
-0.307503
-0.138603
-0.306383
-0.106277
-0.302881
-0.0747356
-0.297022
-0.0440906
-0.288842
-0.0143017
-0.27845
0.0145117
-0.265981
0.0424348
-0.251525
0.0693865
-0.23531
0.0954149
-0.217502
0.120522
-0.198316
0.144682
-0.178013
0.167979
-0.156835
0.190281
-0.135091
0.211764
-0.113047
0.232181
-0.0910333
0.251811
-0.0693371
0.27028
-0.0482738
0.28799
-0.028144
0.304429
-0.00920702
0.320146
0.00824287
0.334516
0.0239952
0.348252
0.037852
0.360572
0.0497023
0.372381
0.0594153
0.382763
0.0669583
0.0723198
-0.590563
-0.168845
0.607291
-0.571
-0.184502
-0.548774
-0.200478
-0.52408
-0.216497
-0.49719
-0.232305
-0.468354
-0.247586
-0.437873
-0.262082
-0.406074
-0.275474
-0.373241
-0.287542
-0.339699
-0.298034
-0.305713
-0.306755
-0.271563
-0.313516
-0.237471
-0.318189
-0.203657
-0.320658
-0.170288
-0.320863
-0.137519
-0.318765
-0.105459
-0.314367
-0.0741943
-0.307694
-0.0437881
-0.298794
-0.0142831
-0.287778
0.014287
-0.274779
0.0419238
-0.259912
0.0686128
-0.243382
0.0943564
-0.225367
0.119162
-0.206083
0.143024
-0.185776
0.165956
-0.164709
0.187938
-0.143155
0.208978
-0.121409
0.229042
-0.0997619
0.248124
-0.0785276
0.266193
-0.0579927
0.283225
-0.0384658
0.299203
-0.0202058
0.314101
-0.0034887
0.327908
0.0114689
0.340615
0.0244793
0.352236
0.0354262
0.362798
0.0441859
0.372354
0.0507195
0.0550268
-0.572755
-0.194848
0.587187
-0.555258
-0.209865
-0.534885
-0.225105
-0.511842
-0.24033
-0.48641
-0.255252
-0.458876
-0.269591
-0.429564
-0.283078
-0.398787
-0.295427
-0.366881
-0.306408
-0.334156
-0.315798
-0.300919
-0.323407
-0.267438
-0.329073
-0.233965
-0.332674
-0.200715
-0.334116
-0.167875
-0.333349
-0.135598
-0.330347
-0.104007
-0.325127
-0.0731928
-0.317726
-0.0432201
-0.3082
-0.01414
-0.296661
0.0140141
-0.283246
0.0412332
-0.268084
0.0675048
-0.251368
0.0928249
-0.23328
0.117196
-0.214037
0.140616
-0.193882
0.163083
-0.173073
0.184587
-0.151879
0.205113
-0.130589
0.224644
-0.109493
0.24315
-0.0888909
0.260608
-0.0690744
0.276978
-0.0503341
0.292239
-0.0329398
0.306356
-0.0171482
0.319307
-0.00317907
0.331076
0.00878906
0.341679
0.018621
0.351132
0.0262133
0.359471
0.0315267
0.0345606
-0.549417
-0.218967
0.56102
-0.534465
-0.233425
-0.516371
-0.248008
-0.49538