/*--------------------------------*- C++ -*----------------------------------*\
  =========                 |
  \\      /  F ield         | OpenFOAM: The Open Source CFD Toolbox
   \\    /   O peration     | Website:  https://openfoam.org
    \\  /    A nd           | Version:  6
     \\/     M anipulation  |
\*---------------------------------------------------------------------------*/
FoamFile
{
    version     2.0;
    format      ascii;
    class       volScalarField;
    location    "4.78";
    object      nut;
}
// * * * * * * * * * * * * * * * * * * * * * * * * * * * * * * * * * * * * * //

dimensions      [0 2 -1 0 0 0 0];

internalField   nonuniform List<scalar> 
4214
(
0.00254463
0.00152495
0.00118117
0.00113246
0.00125173
0.001554
0.00215007
0.00317314
0.00473123
0.0068615
0.00948819
0.0124173
0.0153078
0.0178232
0.019667
0.0206329
0.0205979
0.019636
0.01802
0.016457
0.0158026
0.0168091
0.0196233
0.0236582
0.0279705
0.0317184
0.0347529
0.0386195
0.0437467
0.0491329
0.0510169
0.0475216
0.0395717
0.0295499
0.0197829
0.0118834
0.00646465
0.00336036
0.0019414
0.00161091
0.00227289
0.00108372
0.00100837
0.00106279
0.00121131
0.00152919
0.00216913
0.00331321
0.00513518
0.00772037
0.0109977
0.0147047
0.0184453
0.0218023
0.0244223
0.0260646
0.0266145
0.0260389
0.0244471
0.0221415
0.0196453
0.0176975
0.0169808
0.0179357
0.020401
0.0237327
0.0272028
0.0305459
0.0346958
0.0402436
0.0464597
0.0505634
0.0496496
0.0434049
0.0338192
0.023573
0.0146991
0.00823161
0.00426085
0.00221754
0.00134066
0.00103309
0.00101299
0.00106688
0.00118472
0.00148206
0.00213251
0.00335512
0.00539821
0.0084341
0.0124162
0.0170404
0.0217895
0.0261192
0.029578
0.0319043
0.0329914
0.0328716
0.0316253
0.029466
0.026492
0.0231405
0.0201073
0.0180531
0.0174702
0.0184193
0.0205603
0.0233815
0.0267472
0.0310234
0.0366303
0.0433163
0.0489062
0.0504383
0.0463861
0.0378148
0.0274111
0.0177196
0.0102568
0.00541864
0.00277086
0.00155478
0.00109483
0.00105264
0.00114356
0.00140693
0.00203136
0.00327535
0.00545845
0.00886969
0.0135525
0.0191884
0.0251524
0.0306771
0.0351794
0.0383122
0.0399952
0.040306
0.0394069
0.0373822
0.0343888
0.0307131
0.0267706
0.0230539
0.0200874
0.0183204
0.0179593
0.0189154
0.0208707
0.0238249
0.0279349
0.0334627
0.0403942
0.0470924
0.050643
0.0487936
0.0415607
0.0313251
0.0209779
0.0125476
0.00680027
0.00348106
0.00184994
0.00119076
0.00110054
0.00131924
0.00187956
0.00307172
0.00528868
0.00893702
0.0142171
0.0208644
0.0281949
0.0351897
0.0409164
0.0449297
0.0471347
0.0477238
0.0470789
0.0453715
0.0426665
0.0390348
0.0347274
0.0302095
0.0259896
0.0224714
0.0199637
0.0186624
0.0186295
0.0197124
0.02206
0.0257912
0.0311112
0.0380522
0.045345
0.0503516
0.0504382
0.0447802
0.0350727
0.0243122
0.0150147
0.00836789
0.00434157
0.00224442
0.00131737
0.00123129
0.00170118
0.00276914
0.0048869
0.00858985
0.0142611
0.0218096
0.0305121
0.0392234
0.0463506
0.0513104
0.0538365
0.0542531
0.0534046
0.0517566
0.0495356
0.0466271
0.04283
0.0382666
0.0334204
0.0288707
0.0250185
0.0220961
0.0201455
0.0193703
0.0197741
0.0214799
0.0247045
0.0297122
0.0365235
0.0440565
0.0499424
0.0515152
0.0473602
0.0384472
0.027558
0.0175538
0.0100641
0.0053284
0.00273868
0.00150647
0.00152735
0.00241164
0.00429605
0.00782495
0.0136071
0.0217987
0.03171
0.0421436
0.0511141
0.0569405
0.0593134
0.0589301
0.0570634
0.0548156
0.0526881
0.0506482
0.0483292
0.0452174
0.0410806
0.0363076
0.0316191
0.0275413
0.0244223
0.0221196
0.0208941
0.0208012
0.0220581
0.0248396
0.0295197
0.0360856
0.0435464
0.0497672
0.0522051
0.0492487
0.0412246
0.0304861
0.0200048
0.011795
0.00639514
0.00331648
0.00176842
0.00206702
0.00359962
0.0067099
0.0121947
0.020557
0.0315091
0.0436048
0.0544323
0.0613721
0.0630727
0.0611413
0.0578475
0.0546067
0.0520473
0.0502134
0.0488403
0.0475137
0.0456997
0.0428394
0.0387719
0.0341105
0.0298456
0.0265698
0.0244195
0.0230457
0.0227245
0.0237291
0.0262829
0.0306675
0.0369063
0.0440153
0.0500478
0.0527183
0.0504532
0.0432127
0.0328366
0.0221559
0.0134234
0.00746493
0.00394077
0.00209421
0.00291781
0.00539929
0.0101775
0.0180742
0.029279
0.04266
0.0552016
0.0630102
0.0645391
0.0618545
0.0574352
0.0531238
0.0497961
0.0475981
0.0463304
0.0456119
0.045037
0.0442101
0.0426989
0.0401533
0.0365208
0.0325132
0.0292095
0.0271773
0.0259492
0.0256604
0.0266578
0.0291277
0.033321
0.0390688
0.0454854
0.0508175
0.0531008
0.0509686
0.0442526
0.034345
0.0237564
0.01477
0.00842784
0.0045495
0.00245297
0.00409417
0.00779793
0.0145309
0.0249717
0.0385568
0.052369
0.0617958
0.064681
0.0623339
0.0573523
0.0520618
0.0477903
0.0449295
0.0433434
0.0426848
0.0425693
0.0426656
0.0425991
0.0420727
0.0407901
0.0386219
0.035759
0.0329804
0.0310945
0.0300725
0.0299435
0.0310818
0.0335313
0.0374471
0.0424669
0.0477699
0.0518892
0.0532246
0.05071
0.0441993
0.0347725
0.0245479
0.0156274
0.00914593
0.00505669
0.00279188
0.00546163
0.0104172
0.0189009
0.0312034
0.045464
0.0572627
0.0630951
0.0628063
0.0584011
0.0525149
0.0471066
0.0431108
0.0406853
0.03961
0.039474
0.0399504
0.0407053
0.0414055
0.0417702
0.0416351
0.0408598
0.039481
0.0378388
0.0364797
0.0357585
0.0358844
0.0370168
0.0392887
0.0425874
0.0465478
0.0503011
0.0527807
0.0527605
0.0494905
0.042927
0.0339444
0.0243125
0.0157954
0.00947171
0.00536235
0.00304285
0.00660421
0.0123884
0.021768
0.0345627
0.0481326
0.0580694
0.0619338
0.0601425
0.0549103
0.0486383
0.0430986
0.0390992
0.0367708
0.0358982
0.0360534
0.0370111
0.0383892
0.0398838
0.0412233
0.0422135
0.0427984
0.0429146
0.0426565
0.0422862
0.0421464
0.0425329
0.043591
0.0453426
0.0476659
0.0501498
0.0521094
0.0527262
0.0511819
0.0470111
0.0402858
0.031777
0.0229443
0.0151361
0.00928215
0.00537375
0.00313868
0.00693197
0.0127476
0.0219607
0.0342716
0.047131
0.0565546
0.0601282
0.0580668
0.0525166
0.0459049
0.040004
0.0356801
0.0331033
0.0320766
0.03222
0.0333139
0.0350381
0.0371459
0.0393254
0.0413798
0.0431317
0.0445187
0.0455647
0.0463342
0.0469812
0.0476904
0.0485969
0.0497065
0.0508887
0.0518135
0.0519851
0.0508533
0.0478986
0.0429141
0.0361353
0.0282509
0.0204532
0.0136251
0.00852726
0.00503646
0.00303405
0.00619999
0.0112646
0.019396
0.0306792
0.0433561
0.053662
0.0583618
0.0570824
0.051626
0.0445941
0.0380619
0.033115
0.0300196
0.0285494
0.0283536
0.0291859
0.0308041
0.0329933
0.0355162
0.038178
0.0407616
0.0430861
0.0450606
0.0466612
0.0479591
0.0489748
0.0497765
0.050329
0.0505427
0.0501728
0.0489027
0.0464162
0.0424353
0.0370115
0.0305237
0.0235331
0.0170164
0.0113808
0.00726403
0.00436765
0.00273029
0.00475494
0.00849772
0.0148829
0.0245452
0.0368871
0.0487768
0.0562139
0.0569704
0.0523773
0.0450519
0.0376701
0.0318186
0.0279556
0.025874
0.0250798
0.0253536
0.0263925
0.0281167
0.0303028
0.0328481
0.0355315
0.0381359
0.0405397
0.0425429
0.0441775
0.0453176
0.0460223
0.0461739
0.045716
0.0445184
0.0423665
0.0391323
0.0347722
0.0295021
0.0238194
0.018037
0.0130135
0.00868436
0.00567192
0.00347261
0.0022883
0.00325448
0.00559871
0.0100337
0.0173042
0.0284493
0.0411765
0.0520455
0.0564016
0.0542482
0.0470744
0.039095
0.0320595
0.0272348
0.0244218
0.022832
0.0224784
0.0226606
0.0235881
0.024902
0.0266614
0.0287042
0.0308254
0.032983
0.0347826
0.0363433
0.0373168
0.0378211
0.0376877
0.0368907
0.0353738
0.0329793
0.0297158
0.0257538
0.021228
0.0168462
0.0124504
0.00901487
0.00595225
0.00403804
0.00253315
0.00181687
0.00220992
0.00337212
0.00625282
0.0105742
0.0198577
0.0310673
0.0449429
0.0528441
0.0548747
0.0504615
0.0421413
0.034234
0.027756
0.0245113
0.0217008
0.0208842
0.0201435
0.0202702
0.0205234
0.0212408
0.0222098
0.0232874
0.0246213
0.025646
0.0266815
0.0271934
0.0273074
0.0270004
0.0260028
0.02459
0.0224986
0.0197399
0.0168996
0.0133727
0.010687
0.00753751
0.00568284
0.0036376
0.0027052
0.00175598
0.00143922
0.00117926
0.00136221
0.00159605
0.00181371
0.00194396
0.00194728
0.00183095
0.00163732
0.00142364
0.00124206
0.00112294
0.00106461
0.00103456
0.000993708
0.000940515
0.00107324
0.00470875
0.00112866
0.00120547
0.00128927
0.00136283
0.00140548
0.00140179
0.00135207
0.00127212
0.00118575
0.00111494
0.00107068
0.00104816
0.00102866
0.000989313
0.00093185
0.00101824
0.00476198
0.00113232
0.00115739
0.00117732
0.00119057
0.00119402
0.00118407
0.00116059
0.00112851
0.00109594
0.00107012
0.00105392
0.00104374
0.00102808
0.00098914
0.000926372
0.000982382
0.00480159
0.00113392
0.00114831
0.00115083
0.00114567
0.00113529
0.00112101
0.00110414
0.00108657
0.00107075
0.00105883
0.00105132
0.00104549
0.00103196
0.000993587
0.000926056
0.000959636
0.0048348
0.00115412
0.00115234
0.00114407
0.00113202
0.00111813
0.00110362
0.00108944
0.00107649
0.00106583
0.00105845
0.00105451
0.00105147
0.00104033
0.00100341
0.000932102
0.000949726
0.0048575
0.00115115
0.00114677
0.00113702
0.00112466
0.00111134
0.00109813
0.00108584
0.0010752
0.00106701
0.00106213
0.00106077
0.00106062
0.00105285
0.00101891
0.000945581
0.000953373
0.00486383
0.00114793
0.00114041
0.00113025
0.00111886
0.00110713
0.00109576
0.00108537
0.00107666
0.00107046
0.00106772
0.00106889
0.00107204
0.00106883
0.00103994
0.000967118
0.000970401
0.00484773
0.00114121
0.00113252
0.00112304
0.0011132
0.0011034
0.00109403
0.0010856
0.00107879
0.00107453
0.00107395
0.00107779
0.00108475
0.00108734
0.00106589
0.000996767
0.00099911
0.00480724
0.00112753
0.00112171
0.00111464
0.00110705
0.00109936
0.00109202
0.00108553
0.00108063
0.00107835
0.00107999
0.00108667
0.00109786
0.00110735
0.00109576
0.00103391
0.00103872
0.00474505
0.00112086
0.00111411
0.00110766
0.00110132
0.00109521
0.00108958
0.00108488
0.00108182
0.00108149
0.00108538
0.001095
0.00111074
0.00112794
0.00112814
0.00107712
0.00108823
0.00466256
0.00110725
0.00110384
0.00109963
0.00109515
0.00109074
0.00108675
0.00108368
0.00108232
0.00108386
0.00109
0.00110265
0.0011232
0.00114851
0.00116156
0.00112419
0.00114609
0.004559
0.0011016
0.00109721
0.00109327
0.0010896
0.00108628
0.00108356
0.00108191
0.00108212
0.0010855
0.00109395
0.00110982
0.00113533
0.00116875
0.00119456
0.0011723
0.00120958
0.00443373
0.00109049
0.00108859
0.00108623
0.00108384
0.00108172
0.00108022
0.00107987
0.00108158
0.0010868
0.00109764
0.00111692
0.00114747
0.00118853
0.00122582
0.00121853
0.00127595
0.00428592
0.00108569
0.00108284
0.00108054
0.00107866
0.0010773
0.00107674
0.00107755
0.00108073
0.00108789
0.00110136
0.00112433
0.00115989
0.00120775
0.00125428
0.00126047
0.00134278
0.00411576
0.00107679
0.00107572
0.00107447
0.00107343
0.00107288
0.00107325
0.00107522
0.00107998
0.00108928
0.00110569
0.00113256
0.00117294
0.00122637
0.00127929
0.00129715
0.00140886
0.00392484
0.00107265
0.00107067
0.00106937
0.00106867
0.00106871
0.00106994
0.00107317
0.00107973
0.0010915
0.00111122
0.0011421
0.00118687
0.00124434
0.00130091
0.00132997
0.00147491
0.00371613
0.00106548
0.00106479
0.00106421
0.00106412
0.0010649
0.00106717
0.00107193
0.00108061
0.00109526
0.00111853
0.00115336
0.00120189
0.0012619
0.0013204
0.00136254
0.0015415
0.00349372
0.00106189
0.00106046
0.00105994
0.00106029
0.00106188
0.00106545
0.00107207
0.00108329
0.00110114
0.00112809
0.00116671
0.00121834
0.00127996
0.00134073
0.00139992
0.00160666
0.00326094
0.00105631
0.00105599
0.00105618
0.00105734
0.00106009
0.00106532
0.00107421
0.00108832
0.00110961
0.00114034
0.00118262
0.0012371
0.00130063
0.00136635
0.00144618
0.0016658
0.00302146
0.00105351
0.00105293
0.00105361
0.00105573
0.00105996
0.00106722
0.00107873
0.00109605
0.00112105
0.00115579
0.00120198
0.00125993
0.00132727
0.00140191
0.00150176
0.00171672
0.00278101
0.00104979
0.00105051
0.00105227
0.00105575
0.0010618
0.00107143
0.00108592
0.00110683
0.001136
0.00117535
0.0012264
0.00128951
0.00136369
0.00145023
0.00156456
0.00175493
0.00254623
0.00104836
0.00104958
0.00105246
0.00105755
0.00106575
0.00107813
0.00109604
0.00112114
0.0011553
0.00120041
0.001258
0.0013287
0.00141239
0.00151024
0.00162781
0.001776
0.00232313
0.00104719
0.00104987
0.00105425
0.00106123
0.00107191
0.00108749
0.00110947
0.00113966
0.00118004
0.00123256
0.00129872
0.00137906
0.00147268
0.0015767
0.00168323
0.00177773
0.00211635
0.00104769
0.00105152
0.00105753
0.00106675
0.00108038
0.00109979
0.00112672
0.00116318
0.00121126
0.00127289
0.00134919
0.00143962
0.0015405
0.00164221
0.00172442
0.0017602
0.00192933
0.00104937
0.00105459
0.00106246
0.00107423
0.00109129
0.00111528
0.00114818
0.00119215
0.00124931
0.0013212
0.00140796
0.00150685
0.00160997
0.00170046
0.00174909
0.00172526
0.00176454
0.00105181
0.0010587
0.00106878
0.00108358
0.00110468
0.00113402
0.00117381
0.00122629
0.00129333
0.00137568
0.00147181
0.00157605
0.00167589
0.00174849
0.00175954
0.00167629
0.00162457
0.00105596
0.00106427
0.00107667
0.00109477
0.00112036
0.00115563
0.00120291
0.00126433
0.00134123
0.00143321
0.00153669
0.00164292
0.00173541
0.00178728
0.00176202
0.00162731
0.0015129
0.00106032
0.00107066
0.00108568
0.00110736
0.00113771
0.00117911
0.00123392
0.001304
0.00138996
0.00149008
0.0015988
0.00170474
0.00178855
0.00182115
0.00176568
0.0015923
0.00143406
0.00106663
0.00107833
0.00109575
0.00112085
0.00115576
0.00120294
0.00126465
0.00134237
0.00143597
0.00154258
0.00165509
0.00176036
0.00183746
0.0018564
0.0017806
0.00158225
0.0013936
0.00107296
0.0010866
0.00110628
0.00113436
0.00117317
0.00122511
0.00129236
0.00137604
0.00147546
0.00158702
0.00170287
0.00180919
0.00188468
0.00189919
0.00181566
0.00160627
0.00139791
0.00108109
0.00109562
0.00111686
0.00114698
0.00118837
0.00124337
0.00131405
0.00140133
0.00150429
0.00161927
0.00173865
0.00184926
0.00193062
0.00195293
0.00187711
0.00166959
0.00145413
0.00108826
0.00110401
0.00112624
0.00115728
0.00119958
0.00125533
0.00132659
0.00141431
0.00151781
0.00163408
0.00175681
0.00187493
0.00197034
0.00201469
0.00196577
0.00177683
0.00156969
0.00109667
0.00111217
0.00113414
0.00116443
0.00120532
0.00125894
0.00132725
0.0014114
0.00151132
0.00162512
0.00174892
0.00187528
0.00199065
0.00207066
0.00207185
0.00193175
0.00175152
0.00110446
0.00112007
0.001141
0.00116901
0.00120617
0.00125441
0.00131557
0.00139117
0.00148186
0.00158723
0.00170607
0.00183594
0.00197068
0.00209462
0.00216976
0.00212025
0.00200522
0.00111397
0.0011286
0.00114783
0.00117255
0.00120431
0.00124464
0.00129511
0.00135722
0.00143235
0.00152143
0.00162576
0.00174795
0.00189089
0.00205341
0.00221708
0.00231322
0.00233523
0.00112341
0.00113812
0.00115578
0.00117711
0.00120303
0.00123456
0.00127275
0.00131881
0.00137411
0.00144047
0.00152084
0.00162113
0.00175177
0.00192751
0.00216587
0.00245468
0.00274626
0.00113512
0.00114939
0.00116601
0.0011847
0.00120581
0.0012297
0.00125685
0.001288
0.00132419
0.00136722
0.00142048
0.00149031
0.00158875
0.00174118
0.00200008
0.00246549
0.00323964
0.00114683
0.00116243
0.0011791
0.00119663
0.00121499
0.00123417
0.00125414
0.0012751
0.00129764
0.00132321
0.0013546
0.00139611
0.00145777
0.00156308
0.0017748
0.00229622
0.00381433
0.00116051
0.0011772
0.00119498
0.00121298
0.00123098
0.00124877
0.00126614
0.001283
0.0012995
0.00131646
0.00133531
0.00135877
0.00139265
0.00145197
0.00158428
0.00200207
0.0044667
0.00117353
0.00119292
0.00121279
0.00123264
0.00125221
0.00127124
0.00128953
0.0013069
0.00132322
0.00133851
0.00135368
0.0013703
0.0013912
0.0014224
0.00148625
0.00171403
0.0051906
0.00116684
0.00117286
0.00117892
0.00118513
0.00119146
0.00119757
0.00120301
0.00120744
0.00121075
0.00121309
0.00121471
0.00121595
0.00121716
0.00121863
0.00122067
0.00122355
0.00122748
0.00123264
0.00123911
0.00124699
0.00125959
0.00127255
0.00127996
0.00128602
0.00129062
0.00129375
0.00129543
0.00129576
0.00129474
0.00129241
0.00128876
0.00128378
0.00127748
0.00126981
0.00126078
0.00125036
0.00123888
0.001226
0.00121309
0.00119921
0.00118659
0.00116379
0.00116939
0.00117524
0.00118147
0.0011879
0.00119406
0.00119944
0.00120372
0.00120692
0.00120925
0.00121106
0.0012127
0.00121455
0.0012169
0.00122007
0.00122428
0.00122976
0.00123665
0.00124499
0.00125484
0.00126988
0.00128525
0.00129493
0.00130325
0.00131003
0.00131516
0.00131863
0.00132047
0.00132074
0.00131943
0.00131656
0.00131214
0.00130618
0.00129869
0.00128962
0.00127892
0.00126667
0.00125298
0.00123818
0.00122283
0.00120771
0.00116089
0.00116575
0.00117138
0.00117771
0.0011843
0.00119048
0.00119573
0.00119984
0.00120296
0.00120539
0.00120753
0.00120975
0.00121241
0.00121581
0.00122023
0.00122591
0.00123302
0.00124165
0.00125184
0.00126357
0.00128071
0.00129807
0.00130978
0.00132018
0.00132901
0.00133608
0.00134133
0.00134474
0.00134633
0.00134611
0.00134408
0.00134026
0.00133468
0.00132738
0.00131836
0.00130752
0.00129494
0.0012806
0.00126462
0.00124746
0.00123009
0.00115811
0.00116206
0.00116762
0.00117423
0.00118101
0.00118714
0.00119219
0.00119613
0.00119924
0.00120191
0.00120453
0.0012075
0.00121113
0.00121571
0.00122151
0.00122872
0.00123747
0.00124782
0.00125975
0.00127323
0.00129208
0.001311
0.00132447
0.00133669
0.00134735
0.00135622
0.00136315
0.00136808
0.001371
0.00137189
0.00137073
0.00136754
0.00136236
0.00135524
0.00134626
0.00133535
0.00132255
0.00130783
0.00129107
0.0012724
0.00125274
0.00115535
0.00115861
0.00116453
0.0011716
0.0011785
0.00118445
0.00118923
0.00119302
0.00119623
0.00119927
0.00120255
0.00120641
0.00121114
0.00121701
0.00122424
0.00123297
0.00124332
0.0012553
0.00126884
0.00128387
0.00130402
0.00132408
0.00133902
0.00135275
0.00136497
0.00137539
0.00138383
0.00139017
0.00139434
0.0013963
0.001396
0.00139345
0.00138868
0.00138175
0.00137276
0.00136179
0.00134883
0.00133388
0.00131674
0.0012971
0.00127535
0.00115272
0.0011562
0.00116303
0.00117057
0.00117738
0.00118294
0.00118738
0.00119108
0.00119451
0.00119809
0.00120215
0.00120702
0.00121293
0.00122012
0.00122875
0.00123897
0.00125081
0.00126426
0.00127922
0.00129556
0.00131663
0.00133743
0.00135352
0.00136845
0.00138192
0.0013936
0.0014033
0.00141083
0.00141611
0.00141903
0.00141954
0.0014176
0.00141324
0.00140652
0.00139753
0.00138639
0.00137326
0.00135817
0.00134092
0.00132093
0.00129764
0.00115114
0.00115637
0.00116439
0.00117203
0.00117831
0.00118327
0.00118735
0.00119105
0.00119483
0.00119904
0.00120397
0.00120989
0.00121699
0.00122545
0.00123542
0.00124699
0.00126016
0.00127489
0.00129104
0.00130843
0.00133003
0.00135121
0.00136815
0.00138397
0.00139835
0.00141099
0.00142164
0.00143011
0.00143626
0.00143998
0.00144117
0.00143978
0.00143582
0.00142932
0.00142036
0.0014091
0.00139571
0.00138035
0.00136299
0.00134307
0.00131911
0.00115312
0.00116127
0.00116988
0.0011768
0.00118205
0.00118625
0.00119
0.0011938
0.001198
0.00120289
0.00120869
0.00121561
0.00122382
0.00123346
0.00124462
0.00125735
0.00127165
0.00128742
0.00130448
0.00132264
0.00134444
0.00136568
0.00138318
0.00139958
0.00141456
0.00142782
0.0014391
0.0014482
0.00145497
0.00145925
0.00146096
0.00146
0.00145638
0.0014501
0.00144123
0.00142992
0.00141634
0.00140069
0.00138311
0.00136328
0.00133956
0.00116263
0.00117281
0.00118035
0.00118556
0.00118946
0.00119288
0.00119636
0.00120029
0.00120491
0.00121042
0.00121701
0.00122482
0.00123398
0.00124461
0.00125675
0.00127042
0.00128558
0.00130211
0.00131982
0.00133846
0.00136013
0.00138115
0.00139893
0.00141562
0.00143089
0.00144444
0.00145604
0.00146546
0.00147254
0.00147714
0.00147915
0.00147849
0.00147512
0.00146905
0.00146033
0.00144906
0.00143541
0.00141954
0.00140157
0.00138144
0.00135828
0.00118286
0.0011915
0.00119611
0.00119906
0.00120158
0.00120429
0.00120754
0.00121155
0.00121648
0.00122248
0.00122967
0.00123816
0.00124806
0.00125943
0.00127229
0.00128662
0.00130236
0.00131935
0.00133739
0.00135621
0.00137747
0.00139801
0.0014158
0.00143248
0.00144774
0.00146129
0.00147288
0.00148231
0.00148943
0.00149409
0.0014962
0.00149568
0.00149249
0.0014866
0.00147807
0.00146694
0.00145332
0.00143726
0.00141875
0.00139786
0.0013748
0.00121325
0.00121661
0.00121758
0.00121841
0.00121972
0.00122177
0.00122471
0.00122865
0.00123369
0.00123994
0.00124748
0.0012564
0.00126675
0.00127857
0.00129184
0.00130653
0.00132252
0.00133964
0.00135769
0.00137637
0.00139693
0.00141675
0.00143425
0.00145063
0.00146559
0.00147882
0.00149012
0.00149928
0.00150617
0.00151067
0.0015127
0.00151219
0.00150909
0.00150338
0.00149505
0.00148412
0.0014706
0.00145432
0.00143524
0.00141368
0.00139068
0.00125021
0.00124805
0.00124611
0.00124521
0.00124539
0.00124668
0.00124911
0.00125274
0.00125763
0.00126384
0.00127144
0.00128046
0.00129094
0.00130287
0.00131621
0.00133089
0.00134677
0.00136367
0.00138136
0.00139955
0.00141913
0.00143796
0.00145485
0.00147061
0.00148494
0.00149756
0.00150828
0.00151692
0.00152336
0.00152752
0.00152933
0.00152874
0.00152568
0.00152012
0.00151203
0.00150134
0.00148789
0.00147143
0.00145221
0.00143089
0.00140852
0.00129269
0.00128756
0.0012837
0.00128122
0.00128016
0.00128047
0.00128215
0.00128519
0.00128962
0.00129548
0.0013028
0.00131158
0.00132182
0.00133347
0.00134649
0.00136075
0.0013761
0.00139236
0.00140928
0.00142657
0.00144483
0.00146238
0.00147827
0.00149304
0.00150639
0.0015181
0.00152796
0.00153584
0.00154166
0.00154534
0.00154683
0.00154609
0.00154306
0.00153769
0.00152988
0.00151944
0.00150612
0.00148995
0.00147151
0.00145122
0.00142975
0.0013438
0.00133718
0.00133199
0.00132809
0.00132571
0.00132485
0.00132556
0.00132777
0.00133146
0.00133665
0.00134333
0.00135147
0.00136105
0.00137199
0.0013842
0.00139756
0.0014119
0.00142702
0.00144266
0.00145856
0.00147506
0.0014909
0.00150534
0.00151869
0.00153068
0.00154112
0.00154985
0.00155676
0.00156178
0.00156486
0.00156597
0.00156507
0.00156212
0.00155701
0.00154959
0.00153952
0.0015268
0.00151181
0.0014948
0.00147581
0.00145568
0.00140597
0.0013983
0.00139234
0.00138753
0.00138409
0.00138211
0.00138178
0.00138299
0.00138572
0.00138992
0.00139558
0.00140265
0.00141108
0.00142077
0.00143161
0.00144346
0.00145615
0.00146946
0.00148317
0.00149702
0.00151117
0.00152473
0.00153712
0.0015485
0.00155865
0.00156743
0.00157472
0.00158041
0.00158448
0.00158688
0.00158759
0.00158657
0.00158379
0.00157915
0.00157235
0.00156312
0.00155189
0.00153874
0.0015236
0.00150658
0.00148868
0.00148065
0.00147291
0.00146698
0.00146205
0.00145825
0.00145565
0.00145446
0.00145469
0.00145632
0.00145928
0.00146353
0.00146902
0.00147568
0.00148342
0.0014921
0.0015016
0.00151173
0.00152233
0.00153317
0.00154406
0.00155499
0.00156545
0.00157499
0.0015837
0.00159142
0.00159804
0.00160347
0.00160768
0.00161061
0.00161226
0.00161259
0.00161159
0.00160921
0.00160538
0.00159971
0.00159228
0.00158337
0.00157278
0.00156052
0.00154666
0.00153236
0.00157018
0.00156413
0.00155981
0.00155609
0.00155308
0.00155086
0.00154952
0.00154914
0.00154973
0.00155124
0.00155365
0.0015569
0.00156093
0.00156567
0.00157102
0.00157687
0.00158309
0.00158956
0.00159613
0.00160267
0.00160913
0.00161527
0.00162086
0.00162592
0.00163037
0.00163415
0.00163722
0.00163956
0.00164116
0.001642
0.00164206
0.00164133
0.00163977
0.00163735
0.00163379
0.00162931
0.00162381
0.00161725
0.00160962
0.00160093
0.00159251
0.00543084
0.00144452
0.00100195
0.00101276
0.00103667
0.00104948
0.00112928
0.00135676
0.00177517
0.00237474
0.00306418
0.0036263
0.00379141
0.00342591
0.00271648
0.00198191
0.00144906
0.0055476
0.00133251
0.000970524
0.00101018
0.00103468
0.00104069
0.00107775
0.00118639
0.00138388
0.00165634
0.00195032
0.00216811
0.00219993
0.00200901
0.00168915
0.00139291
0.00122344
0.0055545
0.00117945
0.000951097
0.00100926
0.00103411
0.00103631
0.00104972
0.0010943
0.00117589
0.00128488
0.00139403
0.00146292
0.00145528
0.00137015
0.00125447
0.0011704
0.00114389
0.00549652
0.00106686
0.000940707
0.00100885
0.00103359
0.00103424
0.00103676
0.00105166
0.00108002
0.00111646
0.00114961
0.00116574
0.00115664
0.00112825
0.00109921
0.00108607
0.0010908
0.00539648
0.000995162
0.000937924
0.00100982
0.00103345
0.00103334
0.00103156
0.00103517
0.00104392
0.00105495
0.00106424
0.00106841
0.00106726
0.0010648
0.00106651
0.0010748
0.00108796
0.0052755
0.000959928
0.000942362
0.00101305
0.00103406
0.00103283
0.00102927
0.00102909
0.00103201
0.00103639
0.00104077
0.0010445
0.00104818
0.00105326
0.00106082
0.00107106
0.00108396
0.00514657
0.000952952
0.000954727
0.00102022
0.00103639
0.00103291
0.00102787
0.00102599
0.00102693
0.00102952
0.00103287
0.00103659
0.00104083
0.0010458
0.00105154
0.00105783
0.00106472
0.00501511
0.000967924
0.000976121
0.00103312
0.00104193
0.00103461
0.00102743
0.00102402
0.00102379
0.00102555
0.00102846
0.00103214
0.00103658
0.00104189
0.00104814
0.00105538
0.00106362
0.00488327
0.00099876
0.00100667
0.00105276
0.00105198
0.0010392
0.00102901
0.00102381
0.00102253
0.00102374
0.00102649
0.00103031
0.00103504
0.00104062
0.00104706
0.0010544
0.00106275
0.00474999
0.00104245
0.00104506
0.00107857
0.00106686
0.00104757
0.00103368
0.00102634
0.00102384
0.00102444
0.00102693
0.00103064
0.00103517
0.00104034
0.00104604
0.00105221
0.00105888
0.00461034
0.00109607
0.00108868
0.00110866
0.00108579
0.00105975
0.0010419
0.00103214
0.00102817
0.00102791
0.00102995
0.0010334
0.00103772
0.00104263
0.00104796
0.00105364
0.00105962
0.00445937
0.00115637
0.00113448
0.00114098
0.00110775
0.00107522
0.00105332
0.0010409
0.00103512
0.00103365
0.00103485
0.00103768
0.00104151
0.00104595
0.0010508
0.00105593
0.00106115
0.00429325
0.00122037
0.00117951
0.00117407
0.00113233
0.00109383
0.00106772
0.00105226
0.00104424
0.00104113
0.00104112
0.00104304
0.00104615
0.00105001
0.00105436
0.00105912
0.00106431
0.00411004
0.00128589
0.00122133
0.00120654
0.00115915
0.00111572
0.00108538
0.0010665
0.00105578
0.00105052
0.00104884
0.00104944
0.00105149
0.00105444
0.00105795
0.00106182
0.00106604
0.00391012
0.00135211
0.00125896
0.00123709
0.00118735
0.00114045
0.00110616
0.00108365
0.00106987
0.00106211
0.0010584
0.00105739
0.00105815
0.00106008
0.00106272
0.00106574
0.00106869
0.00369557
0.00142002
0.00129386
0.00126528
0.00121595
0.00116728
0.00112966
0.00110349
0.00108638
0.00107579
0.00106971
0.00106675
0.00106594
0.00106662
0.00106839
0.00107103
0.0010744
0.00346938
0.0014904
0.00132997
0.00129221
0.0012444
0.00119546
0.00115533
0.00112573
0.00110517
0.00109149
0.00108276
0.00107755
0.0010748
0.0010738
0.00107407
0.00107532
0.0010775
0.00323482
0.00156114
0.00137229
0.00132086
0.00127321
0.00122462
0.00118269
0.00115004
0.00112606
0.00110912
0.00109753
0.00108988
0.00108506
0.00108228
0.00108099
0.00108073
0.00108102
0.00299596
0.00162892
0.00142439
0.00135547
0.00130433
0.00125524
0.00121168
0.00117617
0.00114883
0.00112853
0.00111388
0.00110356
0.00109648
0.0010918
0.00108897
0.00108768
0.00108786
0.00275761
0.00168766
0.00148592
0.00139964
0.0013408
0.00128886
0.00124288
0.00120432
0.00117347
0.00114965
0.00113171
0.00111848
0.00110888
0.00110202
0.00109721
0.00109406
0.00109261
0.0025247
0.00173035
0.001552
0.00145435
0.00138545
0.00132773
0.0012776
0.0012351
0.00120027
0.00117255
0.00115102
0.0011346
0.00112227
0.00111311
0.00110633
0.00110123
0.00109723
0.00230329
0.00175262
0.00161497
0.00151686
0.00143922
0.00137369
0.00131735
0.00126949
0.00122974
0.00119748
0.00117184
0.00115182
0.00113644
0.00112478
0.00111608
0.00110957
0.00110485
0.00209708
0.00175409
0.0016672
0.00158149
0.00150027
0.00142713
0.00136315
0.00130841
0.0012625
0.00122476
0.0011943
0.00117012
0.00115123
0.00113673
0.0011258
0.00111743
0.00111104
0.0019102
0.00173816
0.00170413
0.001642
0.00156459
0.00148644
0.00141479
0.00135213
0.00129889
0.00125461
0.00121846
0.00118945
0.00116657
0.00114891
0.00113558
0.00112532
0.0011166
0.00174619
0.00170849
0.00172643
0.0016943
0.00162766
0.00154861
0.00147068
0.00139998
0.00133861
0.00128685
0.00124413
0.00120959
0.0011822
0.00116105
0.00114521
0.00113338
0.00112403
0.00160708
0.00166827
0.00173799
0.00173786
0.0016866
0.00161061
0.00152859
0.00145049
0.00138073
0.00132081
0.00127079
0.00123009
0.00119774
0.00117279
0.00115418
0.00114049
0.00113014
0.00149693
0.00162847
0.00174514
0.0017753
0.00174081
0.00167033
0.00158618
0.00150167
0.00142367
0.00135527
0.00129748
0.00125019
0.0012126
0.0011837
0.00116228
0.00114673
0.00113493
0.00142027
0.0016021
0.00175605
0.00181133
0.00179156
0.00172676
0.00164136
0.00155116
0.00146526
0.00138841
0.00132274
0.00126879
0.001226
0.00119326
0.00116919
0.00115209
0.00114
0.0013826
0.00159948
0.0017793
0.00185137
0.00184104
0.00177943
0.00169208
0.00159627
0.00150278
0.00141785
0.00134471
0.00128452
0.00123698
0.00120084
0.00117451
0.00115609
0.00114374
0.00139034
0.0016293
0.00182231
0.00190001
0.00189083
0.00182748
0.00173583
0.00163376
0.00153302
0.00144086
0.0013613
0.00129595
0.0012446
0.00120591
0.00117799
0.00115876
0.00114612
0.0014504
0.00169812
0.00188952
0.00195875
0.00193999
0.00186813
0.00176881
0.00165963
0.00155239
0.0014546
0.0013705
0.00130174
0.00124808
0.00120803
0.00117947
0.00116015
0.0011478
0.00156968
0.00180805
0.00197923
0.00202311
0.00198266
0.00189516
0.00178521
0.00166896
0.00155711
0.00145636
0.00137048
0.00130079
0.00124683
0.00120697
0.00117892
0.00116025
0.00114864
0.00175437
0.00195683
0.0020813
0.00207911
0.00200543
0.00189768
0.00177693
0.00165605
0.00154336
0.00144374
0.00135987
0.00129243
0.00124065
0.00120277
0.00117648
0.00115931
0.00114907
0.00200924
0.00213338
0.00217361
0.0021037
0.00198919
0.00186175
0.00173482
0.00161541
0.00150802
0.00141527
0.00133817
0.00127667
0.00122981
0.0011958
0.00117252
0.00115778
0.00114917
0.00233845
0.00231341
0.00221614
0.00206191
0.0019096
0.0017728
0.0016514
0.00154416
0.00145094
0.00137174
0.00130651
0.00125468
0.00121528
0.00118692
0.00116779
0.00115586
0.00114919
0.00274597
0.00244479
0.00216001
0.00192799
0.00175785
0.00163093
0.00153063
0.00144745
0.00137703
0.00131758
0.00126841
0.00122906
0.00119896
0.00117727
0.0011628
0.00115407
0.00114957
0.00323311
0.00244834
0.0019809
0.00171734
0.00156221
0.00146407
0.00139567
0.00134282
0.0012989
0.00126139
0.00122957
0.0012034
0.001183
0.00116821
0.00115852
0.00115304
0.0011507
0.00379973
0.0022686
0.00172902
0.00150117
0.00138573
0.00132101
0.0012817
0.00125455
0.0012328
0.00121366
0.00119652
0.00118173
0.00116985
0.00116125
0.00115588
0.00115334
0.00115293
0.00444433
0.00195837
0.00151205
0.00135722
0.00128177
0.00123895
0.00121421
0.00119951
0.00118941
0.001181
0.00117335
0.00116656
0.00116109
0.00115736
0.00115552
0.00115538
0.00115654
0.00516385
0.00165958
0.0014008