/*--------------------------------*- C++ -*----------------------------------*\
  =========                 |
  \\      /  F ield         | OpenFOAM: The Open Source CFD Toolbox
   \\    /   O peration     | Website:  https://openfoam.org
    \\  /    A nd           | Version:  6
     \\/     M anipulation  |
\*---------------------------------------------------------------------------*/
FoamFile
{
    version     2.0;
    format      ascii;
    class       volScalarField;
    location    "3.29";
    object      rho;
}
// * * * * * * * * * * * * * * * * * * * * * * * * * * * * * * * * * * * * * //

dimensions      [1 -3 0 0 0 0 0];

internalField   nonuniform List<scalar> 
5625
(
1.39999
1.39999
1.39999
1.39999
1.39998
1.39998
1.39998
1.39997
1.39997
1.39997
1.39997
1.39997
1.39997
1.39997
1.39998
1.39998
1.39999
1.39999
1.4
1.4
1.40001
1.40002
1.40003
1.40003
1.40004
1.40004
1.40005
1.40005
1.40005
1.40005
1.40005
1.40005
1.40005
1.40005
1.40004
1.40004
1.40004
1.40004
1.40003
1.40003
1.40002
1.40002
1.40002
1.40002
1.40001
1.40001
1.40001
1.40001
1.40001
1.40001
1.40001
1.40001
1.40001
1.40001
1.40001
1.40001
1.40001
1.40001
1.40001
1.40001
1.40001
1.40001
1.40001
1.40001
1.40001
1.40001
1.40001
1.40001
1.40001
1.40001
1.40001
1.40001
1.40001
1.40001
1.40001
1.39999
1.39999
1.39998
1.39998
1.39998
1.39997
1.39997
1.39997
1.39997
1.39996
1.39996
1.39997
1.39997
1.39997
1.39997
1.39998
1.39999
1.39999
1.4
1.40001
1.40002
1.40003
1.40004
1.40004
1.40005
1.40006
1.40006
1.40006
1.40007
1.40007
1.40007
1.40007
1.40006
1.40006
1.40006
1.40005
1.40005
1.40004
1.40004
1.40003
1.40003
1.40003
1.40002
1.40002
1.40002
1.40001
1.40001
1.40001
1.40001
1.40001
1.40001
1.40001
1.40001
1.40001
1.40001
1.40001
1.40001
1.40001
1.40001
1.40001
1.4
1.4
1.4
1.4
1.40001
1.40001
1.40001
1.40001
1.40001
1.40001
1.40001
1.40001
1.40001
1.40001
1.40001
1.39999
1.39998
1.39998
1.39998
1.39997
1.39997
1.39996
1.39996
1.39996
1.39996
1.39996
1.39996
1.39996
1.39997
1.39997
1.39998
1.39999
1.4
1.40001
1.40002
1.40003
1.40005
1.40006
1.40006
1.40007
1.40008
1.40008
1.40009
1.40009
1.40009
1.40009
1.40009
1.40008
1.40008
1.40007
1.40007
1.40006
1.40006
1.40005
1.40004
1.40004
1.40003
1.40003
1.40002
1.40002
1.40002
1.40001
1.40001
1.40001
1.40001
1.40001
1.40001
1.40001
1.40001
1.40001
1.40001
1.40001
1.40001
1.40001
1.40001
1.40001
1.40001
1.40001
1.40001
1.40001
1.40001
1.40001
1.40001
1.40001
1.40001
1.40001
1.40001
1.40001
1.40001
1.40001
1.39998
1.39998
1.39997
1.39997
1.39996
1.39996
1.39996
1.39995
1.39995
1.39995
1.39995
1.39996
1.39996
1.39997
1.39998
1.39999
1.4
1.40002
1.40003
1.40005
1.40006
1.40007
1.40008
1.4001
1.4001
1.40011
1.40012
1.40012
1.40012
1.40012
1.40012
1.40011
1.40011
1.4001
1.40009
1.40009
1.40008
1.40007
1.40006
1.40005
1.40005
1.40004
1.40003
1.40003
1.40002
1.40002
1.40002
1.40001
1.40001
1.40001
1.40001
1.40001
1.40001
1.40001
1.40001
1.40001
1.4
1.4
1.4
1.4
1.4
1.4
1.4
1.4
1.4
1.40001
1.40001
1.40001
1.40001
1.40001
1.40001
1.40001
1.40001
1.40001
1.40001
1.39998
1.39997
1.39997
1.39996
1.39996
1.39995
1.39995
1.39995
1.39995
1.39995
1.39995
1.39996
1.39997
1.39998
1.4
1.40001
1.40003
1.40005
1.40007
1.40008
1.4001
1.40012
1.40013
1.40014
1.40015
1.40016
1.40016
1.40017
1.40016
1.40016
1.40016
1.40015
1.40014
1.40013
1.40012
1.40011
1.4001
1.40009
1.40008
1.40007
1.40006
1.40005
1.40004
1.40003
1.40003
1.40002
1.40002
1.40001
1.40001
1.40001
1.40001
1.40001
1.40001
1.40001
1.40001
1.40001
1.4
1.4
1.4
1.4
1.4
1.4
1.4
1.4
1.4
1.40001
1.40001
1.40001
1.40001
1.40001
1.40001
1.40001
1.40001
1.40001
1.40001
1.39997
1.39997
1.39996
1.39996
1.39995
1.39995
1.39994
1.39994
1.39995
1.39995
1.39996
1.39997
1.39999
1.40001
1.40003
1.40005
1.40007
1.4001
1.40012
1.40015
1.40017
1.40019
1.4002
1.40022
1.40023
1.40023
1.40023
1.40023
1.40023
1.40022
1.40021
1.4002
1.40019
1.40017
1.40016
1.40014
1.40013
1.40011
1.4001
1.40008
1.40007
1.40006
1.40005
1.40004
1.40003
1.40003
1.40002
1.40002
1.40001
1.40001
1.40001
1.40001
1.40001
1.40001
1.40001
1.4
1.4
1.4
1.4
1.4
1.4
1.4
1.4
1.4
1.4
1.4
1.4
1.40001
1.40001
1.40001
1.40001
1.40001
1.40001
1.40001
1.40001
1.39997
1.39996
1.39996
1.39995
1.39995
1.39994
1.39994
1.39995
1.39995
1.39996
1.39998
1.4
1.40002
1.40005
1.40008
1.40011
1.40015
1.40018
1.40021
1.40024
1.40027
1.40029
1.40031
1.40033
1.40033
1.40034
1.40034
1.40033
1.40032
1.40031
1.40029
1.40027
1.40025
1.40023
1.40021
1.40018
1.40016
1.40014
1.40012
1.40011
1.40009
1.40007
1.40006
1.40005
1.40004
1.40003
1.40003
1.40002
1.40002
1.40001
1.40001
1.40001
1.40001
1.40001
1.40001
1.4
1.4
1.4
1.4
1.4
1.4
1.4
1.4
1.4
1.4
1.4
1.4
1.40001
1.40001
1.40001
1.40001
1.40001
1.40001
1.40001
1.40001
1.39996
1.39996
1.39995
1.39995
1.39994
1.39994
1.39995
1.39996
1.39997
1.39999
1.40002
1.40005
1.40008
1.40013
1.40017
1.40022
1.40026
1.40031
1.40035
1.40039
1.40043
1.40046
1.40048
1.40049
1.4005
1.40049
1.40049
1.40047
1.40045
1.40043
1.4004
1.40037
1.40034
1.40031
1.40027
1.40024
1.40021
1.40018
1.40016
1.40013
1.40011
1.40009
1.40008
1.40006
1.40005
1.40004
1.40003
1.40002
1.40002
1.40001
1.40001
1.40001
1.40001
1.40001
1.4
1.4
1.4
1.4
1.4
1.4
1.4
1.4
1.4
1.4
1.4
1.4
1.4
1.4
1.40001
1.40001
1.40001
1.40001
1.40001
1.40001
1.40001
1.39996
1.39995
1.39995
1.39995
1.39995
1.39996
1.39997
1.39999
1.40001
1.40004
1.40009
1.40014
1.40019
1.40025
1.40032
1.40038
1.40045
1.40051
1.40057
1.40062
1.40066
1.4007
1.40072
1.40073
1.40073
1.40072
1.4007
1.40068
1.40064
1.4006
1.40056
1.40051
1.40046
1.40041
1.40037
1.40032
1.40028
1.40024
1.4002
1.40017
1.40014
1.40012
1.40009
1.40007
1.40006
1.40005
1.40004
1.40003
1.40002
1.40001
1.40001
1.40001
1.40001
1.40001
1.4
1.4
1.4
1.4
1.4
1.4
1.4
1.4
1.4
1.4
1.4
1.4
1.4
1.4
1.4
1.40001
1.40001
1.40001
1.40001
1.40001
1.40001
1.39996
1.39996
1.39995
1.39996
1.39997
1.39998
1.4
1.40004
1.40008
1.40013
1.4002
1.40027
1.40036
1.40045
1.40054
1.40063
1.40072
1.40081
1.40089
1.40096
1.40101
1.40105
1.40108
1.40109
1.40108
1.40106
1.40102
1.40097
1.40091
1.40085
1.40078
1.40071
1.40063
1.40056
1.40049
1.40043
1.40037
1.40031
1.40026
1.40022
1.40018
1.40015
1.40012
1.40009
1.40007
1.40006
1.40004
1.40003
1.40002
1.40002
1.40001
1.40001
1.40001
1.4
1.4
1.4
1.4
1.4
1.4
1.4
1.4
1.4
1.4
1.4
1.4
1.4
1.4
1.4
1.4
1.4
1.40001
1.40001
1.40001
1.40001
1.40001
1.39996
1.39996
1.39997
1.39998
1.4
1.40003
1.40007
1.40013
1.4002
1.40028
1.40038
1.40049
1.40061
1.40074
1.40087
1.401
1.40113
1.40125
1.40136
1.40145
1.40152
1.40156
1.40159
1.40159
1.40157
1.40153
1.40147
1.40139
1.4013
1.4012
1.4011
1.40099
1.40088
1.40077
1.40067
1.40058
1.40049
1.40042
1.40035
1.40029
1.40023
1.40019
1.40015
1.40012
1.40009
1.40007
1.40005
1.40004
1.40003
1.40002
1.40001
1.40001
1.40001
1.4
1.4
1.4
1.4
1.4
1.4
1.4
1.4
1.4
1.4
1.4
1.4
1.4
1.4
1.4
1.4
1.4
1.40001
1.40001
1.40001
1.40001
1.40001
1.39998
1.39998
1.4
1.40002
1.40006
1.40011
1.40018
1.40027
1.40038
1.4005
1.40065
1.40081
1.40099
1.40117
1.40136
1.40154
1.40172
1.40188
1.40202
1.40214
1.40223
1.40229
1.40231
1.40231
1.40227
1.4022
1.4021
1.40198
1.40185
1.4017
1.40154
1.40138
1.40122
1.40107
1.40093
1.40079
1.40067
1.40056
1.40046
1.40038
1.4003
1.40024
1.40019
1.40015
1.40011
1.40008
1.40006
1.40004
1.40003
1.40002
1.40001
1.40001
1.4
1.4
1.4
1.4
1.4
1.4
1.4
1.4
1.4
1.4
1.4
1.4
1.4
1.4
1.4
1.4
1.4
1.4
1.4
1.40001
1.40001
1.40001
1.40001
1.4
1.40001
1.40004
1.40009
1.40015
1.40024
1.40035
1.40048
1.40065
1.40084
1.40105
1.40128
1.40153
1.40179
1.40205
1.40231
1.40255
1.40277
1.40296
1.40311
1.40323
1.4033
1.40332
1.4033
1.40323
1.40313
1.40298
1.40281
1.40261
1.40239
1.40216
1.40193
1.4017
1.40148
1.40128
1.40108
1.40091
1.40076
1.40062
1.4005
1.4004
1.40032
1.40025
1.40019
1.40014
1.4001
1.40008
1.40005
1.40004
1.40002
1.40001
1.40001
1.4
1.4
1.4
1.4
1.4
1.4
1.4
1.4
1.4
1.4
1.4
1.4
1.4
1.4
1.4
1.4
1.4
1.4
1.4
1.4
1.40001
1.40001
1.40001
1.40003
1.40007
1.40012
1.4002
1.4003
1.40043
1.4006
1.4008
1.40104
1.40132
1.40162
1.40196
1.4023
1.40266
1.40302
1.40337
1.40369
1.40399
1.40424
1.40444
1.40459
1.40467
1.40469
1.40465
1.40455
1.40439
1.40418
1.40393
1.40365
1.40334
1.40301
1.40269
1.40236
1.40205
1.40176
1.40149
1.40125
1.40103
1.40084
1.40067
1.40054
1.40042
1.40032
1.40024
1.40018
1.40013
1.40009
1.40006
1.40004
1.40003
1.40002
1.40001
1.4
1.4
1.4
1.4
1.4
1.4
1.4
1.4
1.4
1.4
1.4
1.4
1.4
1.4
1.4
1.4
1.4
1.4
1.4
1.4
1.40001
1.40001
1.40001
1.40009
1.40015
1.40024
1.40036
1.40052
1.40072
1.40097
1.40126
1.40161
1.402
1.40243
1.40289
1.40337
1.40386
1.40434
1.40481
1.40524
1.40563
1.40596
1.40623
1.40641
1.40652
1.40654
1.40647
1.40632
1.4061
1.4058
1.40545
1.40506
1.40463
1.40418
1.40372
1.40327
1.40284
1.40243
1.40205
1.40171
1.4014
1.40114
1.40091
1.40072
1.40056
1.40043
1.40032
1.40024
1.40017
1.40012
1.40008
1.40005
1.40003
1.40002
1.40001
1.4
1.4
1.4
1.4
1.4
1.4
1.4
1.4
1.4
1.4
1.4
1.4
1.4
1.4
1.4
1.4
1.4
1.4
1.4
1.4
1.4
1.40001
1.40001
1.40019
1.40028
1.40042
1.4006
1.40084
1.40113
1.40149
1.40191
1.4024
1.40294
1.40353
1.40416
1.40481
1.40546
1.40611
1.40673
1.4073
1.40781
1.40824
1.40858
1.40881
1.40894
1.40895
1.40886
1.40865
1.40834
1.40794
1.40747
1.40693
1.40635
1.40573
1.40511
1.40449
1.4039
1.40333
1.40281
1.40234
1.40192
1.40155
1.40124
1.40097
1.40075
1.40057
1.40043
1.40031
1.40022
1.40016
1.4001
1.40007
1.40004
1.40002
1.40001
1.4
1.39999
1.39999
1.39999
1.39999
1.39999
1.4
1.4
1.4
1.4
1.4
1.4
1.4
1.4
1.4
1.4
1.4
1.4
1.4
1.4
1.4
1.40001
1.40001
1.40032
1.40047
1.40068
1.40095
1.40129
1.40171
1.40221
1.4028
1.40347
1.40421
1.40501
1.40585
1.40671
1.40758
1.40843
1.40923
1.40997
1.41062
1.41117
1.41159
1.41189
1.41204
1.41205
1.41192
1.41165
1.41124
1.41072
1.41009
1.40938
1.4086
1.40778
1.40695
1.40611
1.40531
1.40454
1.40383
1.40319
1.40262
1.40211
1.40168
1.40132
1.40102
1.40077
1.40057
1.40042
1.4003
1.40021
1.40014
1.40009
1.40005
1.40002
1.40001
1.4
1.39999
1.39999
1.39999
1.39999
1.39999
1.39999
1.4
1.4
1.4
1.4
1.4
1.4
1.4
1.4
1.4
1.4
1.4
1.4
1.4
1.4
1.4
1.40001
1.40052
1.40074
1.40104
1.40143
1.40192
1.4025
1.4032
1.404
1.40491
1.40589
1.40695
1.40806
1.40919
1.41031
1.41139
1.41242
1.41335
1.41417
1.41485
1.41538
1.41574
1.41593
1.41594
1.41576
1.41541
1.4149
1.41423
1.41342
1.4125
1.41149
1.41043
1.40933
1.40824
1.40717
1.40614
1.40519
1.40433
1.40355
1.40287
1.40228
1.40179
1.40138
1.40104
1.40077
1.40056
1.4004
1.40027
1.40018
1.40011
1.40006
1.40003
1.40001
1.4
1.39999
1.39999
1.39998
1.39999
1.39999
1.39999
1.39999
1.39999
1.4
1.4
1.4
1.4
1.4
1.4
1.4
1.4
1.4
1.4
1.4
1.4
1.4
1.40001
1.4008
1.40112
1.40155
1.40209
1.40277
1.40357
1.40451
1.40559
1.40679
1.40808
1.40946
1.41088
1.41232
1.41374
1.4151
1.41637
1.41752
1.41852
1.41935
1.41999
1.42043
1.42065
1.42066
1.42044
1.42001
1.41938
1.41855
1.41755
1.4164
1.41513
1.41377
1.41237
1.41096
1.40956
1.40823
1.40697
1.40582
1.40478
1.40387
1.40308
1.40242
1.40186
1.40141
1.40105
1.40076
1.40054
1.40037
1.40024
1.40015
1.40009
1.40004
1.40001
1.4
1.39999
1.39998
1.39998
1.39998
1.39998
1.39999
1.39999
1.39999
1.39999
1.4
1.4
1.4
1.4
1.4
1.4
1.4
1.4
1.4
1.4
1.4
1.4
1.4
1.40118
1.40164
1.40224
1.40298
1.4039
1.40498
1.40623
1.40765
1.4092
1.41087
1.41262
1.41441
1.4162
1.41794
1.4196
1.42113
1.42251
1.4237
1.42468
1.42543
1.42594
1.4262
1.4262
1.42595
1.42544
1.42469
1.42371
1.42251
1.42112
1.41957
1.4179
1.41615
1.41437
1.4126
1.41088
1.40926
1.40775
1.40639
1.40519
1.40414
1.40325
1.40251
1.4019
1.40141
1.40103
1.40073
1.4005
1.40033
1.40021
1.40012
1.40006
1.40002
1.4
1.39998
1.39998
1.39997
1.39997
1.39998
1.39998
1.39999
1.39999
1.39999
1.4
1.4
1.4
1.4
1.4
1.4
1.4
1.4
1.4
1.4
1.4
1.4
1.4
1.40169
1.40233
1.40315
1.40416
1.40537
1.4068
1.40844
1.41026
1.41224
1.41433
1.4165
1.4187
1.42086
1.42294
1.4249
1.42668
1.42827
1.42962
1.43073
1.43157
1.43214
1.43243
1.43244
1.43216
1.4316
1.43076
1.42965
1.42827
1.42666
1.42484
1.42285
1.42074
1.41855
1.41636
1.4142
1.41214
1.41021
1.40846
1.40689
1.40552
1.40435
1.40336
1.40256
1.4019
1.40139
1.40099
1.40068
1.40046
1.40029
1.40017
1.40009
1.40004
1.4
1.39998
1.39997
1.39997
1.39997
1.39997
1.39998
1.39998
1.39999
1.39999
1.39999
1.4
1.4
1.4
1.4
1.4
1.4
1.4
1.4
1.4
1.4
1.4
1.4
1.40238
1.40325
1.40434
1.40568
1.40727
1.40912
1.41121
1.4135
1.41596
1.41853
1.42115
1.42375
1.42628
1.42868
1.43089
1.43288
1.43462
1.43609
1.43728
1.43818
1.43878
1.43909
1.4391
1.43881
1.43823
1.43734
1.43615
1.43466
1.43289
1.43085
1.42857
1.42611
1.42353
1.42089
1.41825
1.4157
1.41328
1.41106
1.40905
1.40728
1.40576
1.40447
1.40341
1.40255
1.40187
1.40133
1.40093
1.40062
1.4004
1.40024
1.40013
1.40006
1.40001
1.39998
1.39997
1.39996
1.39996
1.39996
1.39997
1.39998
1.39998
1.39999
1.39999
1.39999
1.4
1.4
1.4
1.4
1.4
1.4
1.4
1.4
1.4
1.4
1.4
1.40328
1.40444
1.40588
1.40762
1.40966
1.412
1.41461
1.41743
1.42041
1.42347
1.42652
1.42951
1.43234
1.43498
1.43736
1.43946
1.44126
1.44275
1.44394
1.44482
1.44541
1.44571
1.44573
1.44546
1.4449
1.44404
1.44286
1.44136
1.43953
1.43737
1.43491
1.43218
1.42925
1.42618
1.42306
1.41999
1.41703
1.41426
1.41174
1.4095
1.40755
1.40589
1.40451
1.40339
1.40249
1.40179
1.40125
1.40085
1.40055
1.40034
1.40019
1.40009
1.40003
1.39999
1.39997
1.39996
1.39996
1.39996
1.39996
1.39997
1.39998
1.39998
1.39999
1.39999
1.39999
1.4
1.4
1.4
1.4
1.4
1.4
1.4
1.4
1.4
1.4
1.40444
1.40595
1.40781
1.41004
1.41261
1.41552
1.4187
1.42208
1.42557
1.42908
1.43251
1.43578
1.4388
1.44153
1.44393
1.44599
1.4477
1.44908
1.45014
1.45092
1.45142
1.45168
1.4517
1.45148
1.45101
1.45027
1.44923
1.44787
1.44614
1.44404
1.44156
1.43871
1.43555
1.43214
1.42859
1.425
1.42149
1.41814
1.41504
1.41224
1.40979
1.40768
1.40591
1.40446
1.4033
1.40238
1.40168
1.40114
1.40075
1.40047
1.40027
1.40014
1.40005
1.4
1.39997
1.39995
1.39995
1.39995
1.39996
1.39996
1.39997
1.39998
1.39998
1.39999
1.39999
1.4
1.4
1.4
1.4
1.4
1.4
1.4
1.4
1.4
1.4
1.40591
1.40786
1.41022
1.413
1.41618
1.4197
1.42347
1.42739
1.43134
1.43521
1.43887
1.44225
1.44526
1.44788
1.45009
1.45189
1.45332
1.45441
1.45521
1.45577
1.45612
1.45629
1.4563
1.45616
1.45584
1.45533
1.45457
1.45352
1.45211
1.45029
1.44802
1.44529
1.44211
1.43855
1.43469
1.43068
1.42663
1.42269
1.41897
1.41556
1.41253
1.40989
1.40766
1.40582
1.40432
1.40314
1.40223
1.40153
1.40102
1.40065
1.40039
1.40021
1.40009
1.40002
1.39997
1.39995
1.39994
1.39994
1.39995
1.39996
1.39996
1.39997
1.39998
1.39998
1.39999
1.39999
1.4
1.4
1.4
1.4
1.4
1.4
1.4
1.4
1.4
1.40774
1.41021
1.41315
1.41657
1.42039
1.42453
1.42887
1.43324
1.43752
1.44156
1.44523
1.44846
1.45121
1.45344
1.45519
1.45651
1.45744
1.45806
1.45845
1.45867
1.45877
1.45881
1.4588
1.45875
1.45865
1.45847
1.45813
1.45758
1.45671
1.45545
1.45369
1.45137
1.44848
1.44503
1.4411
1.43682
1.43236
1.42788
1.42355
1.41949
1.41582
1.41259
1.40982
1.4075
1.40561
1.40411
1.40293
1.40204
1.40137
1.40089
1.40054
1.4003
1.40014
1.40004
1.39998
1.39995
1.39994
1.39994
1.39994
1.39995
1.39996
1.39997
1.39997
1.39998
1.39999
1.39999
1.4
1.4
1.4
1.4
1.4
1.4
1.4
1.4
1.4
1.40999
1.41305
1.41666
1.42075
1.42522
1.42994
1.43473
1.4394
1.44378
1.44772
1.4511
1.45387
1.45602
1.45758
1.45861
1.45918
1.45942
1.45941
1.45925
1.45903
1.45882
1.45868
1.45863
1.4587
1.45885
1.45906
1.45927
1.45937
1.45925
1.45879
1.45785
1.4563
1.45405
1.45108
1.44741
1.44315
1.43847
1.43359
1.42871
1.42402
1.41968
1.41579
1.41241
1.40956
1.4072
1.40531
1.40382
1.40268
1.40182
1.40119
1.40074
1.40043
1.40022
1.40009
1.4
1.39996
1.39994
1.39993
1.39993
1.39994
1.39995
1.39996
1.39997
1.39998
1.39998
1.39999
1.39999
1.4
1.4
1.4
1.4
1.4
1.4
1.4
1.4
1.41271
1.41644
1.42074
1.42551
1.43059
1.43577
1.44082
1.44552
1.44969
1.45317
1.45591
1.45788
1.45911
1.45971
1.45976
1.45941
1.4588
1.45803
1.45724
1.45652
1.45596
1.45561
1.45551
1.45568
1.45611
1.45675
1.45755
1.4584
1.45917
1.45972
1.45986
1.4594
1.45819
1.45609
1.45308
1.44922
1.44465
1.4396
1.43433
1.42909
1.4241
1.41953
1.41549
1.41202
1.40913
1.40678
1.40492
1.40348
1.40239
1.40158
1.40101
1.4006
1.40033
1.40015
1.40003
1.39997
1.39994
1.39992
1.39992
1.39993
1.39994
1.39995
1.39996
1.39997
1.39998
1.39999
1.39999
1.39999
1.4
1.4
1.4
1.4
1.4
1.4
1.4
1.41592
1.42037
1.42538
1.43078
1.43632
1.44174
1.44677
1.45115
1.45472
1.45738
1.4591
1.45994
1.45999
1.45939
1.45832
1.45693
1.45538
1.45382
1.45238
1.45115
1.45022
1.44966
1.4495
1.44977
1.45044
1.4515
1.45289
1.4545
1.45622
1.45787
1.45925
1.46013
1.46027
1.45946
1.45755
1.45453
1.45048
1.4456
1.44019
1.43456
1.42901
1.42378
1.41905
1.41492
1.41142
1.40855
1.40625
1.40446
1.40309
1.40208
1.40134
1.40082
1.40046
1.40023
1.40008
1.39999
1.39994
1.39992
1.39992
1.39992
1.39993
1.39994
1.39996
1.39997
1.39998
1.39998
1.39999
1.39999
1.4
1.4
1.4
1.4
1.4
1.4
1.4
1.41964
1.42482
1.43049
1.43638
1.44217
1.44752
1.45214
1.4558
1.45838
1.45983
1.46022
1.45968
1.45837
1.45648
1.45422
1.45178
1.44932
1.447
1.44494
1.44324
1.44199
1.44123
1.44101
1.44134
1.44223
1.44365
1.44555
1.44786
1.45047
1.4532
1.45586
1.45819
1.45989
1.46066
1.46026
1.45852
1.45545
1.45118
1.44599
1.44023
1.43428
1.42847
1.42307
1.41825
1.41411
1.41065
1.40786
1.40565
1.40396
1.40269
1.40176
1.4011
1.40064
1.40034
1.40014
1.40002
1.39996
1.39992
1.39991
1.39992
1.39992
1.39994
1.39995
1.39996
1.39997
1.39998
1.39999
1.39999
1.4
1.4
1.4
1.4
1.4
1.4
1.4
1.42386
1.42973
1.43592
1.44207
1.44778
1.45267
1.45647
1.459
1.46022
1.46017
1.45903
1.45697
1.45425
1.45107
1.44768
1.44427
1.44101
1.43803
1.43545
1.43337
1.43184
1.43092
1.43064
1.43102
1.43207
1.43377
1.43609
1.43897
1.44232
1.44601
1.44985
1.45357
1.45688
1.4594
1.46078
1.46072
1.45908
1.45589
1.45134
1.44581
1.43971
1.43349
1.4275
1.42201
1.41719
1.4131
1.40975
1.40707
1.405
1.40343
1.40228
1.40145
1.40087
1.40048
1.40023
1.40007
1.39998
1.39993
1.39991
1.39991
1.39992
1.39993
1.39994
1.39995
1.39997
1.39998
1.39998
1.39999
1.39999
1.4
1.4
1.4
1.4
1.4
1.4
1.4285
1.43494
1.44144
1.44753
1.45276
1.45677
1.45933
1.46038
1.45997
1.45826
1.4555
1.45195
1.44788
1.44354
1.43917
1.43494
1.43103
1.42754
1.42457
1.4222
1.42047
1.41943
1.4191
1.41951
1.42066
1.42255
1.42516
1.42847
1.43239
1.43684
1.44165
1.44661
1.45141
1.45566
1.45893
1.4608
1.46097
1.45929
1.45586
1.45097
1.44507
1.43867
1.43223
1.42613
1.42064
1.41589
1.41193
1.40874
1.40623
1.40432
1.4029
1.40188
1.40115
1.40066
1.40034
1.40013
1.40001
1.39994
1.39991
1.39991
1.39991
1.39992
1.39994
1.39995
1.39996
1.39997
1.39998
1.39999
1.39999
1.4
1.4
1.4
1.4
1.4
1.4
1.43346
1.44028
1.44677
1.4524
1.45672
1.45943
1.46042
1.45974
1.45757
1.45418
1.44986
1.44494
1.4397
1.4344
1.42924
1.4244
1.42001
1.41616
1.41293
1.41037
1.40852
1.40739
1.40703
1.40744
1.40863
1.41063
1.41343
1.417
1.42132
1.42632
1.43187
1.43781
1.44387
1.44967
1.45477
1.45865
1.46085
1.46105
1.45916
1.45536
1.45006
1.44379
1.43712
1.43053
1.42442
1.41901
1.41442
1.41066
1.40768
1.40538
1.40365
1.40239
1.4015
1.40088
1.40047
1.40021
1.40005
1.39996
1.39992
1.3999
1.39991
1.39992
1.39993
1.39994
1.39996
1.39997
1.39998
1.39998
1.39999
1.39999
1.4
1.4
1.4
1.4
1.4
1.43857
1.44547
1.45157
1.45631
1.45932
1.4604
1.4596
1.4571
1.45319
1.44821
1.44251
1.43642
1.43024
1.4242
1.41847
1.41322
1.40853
1.40447
1.40109
1.39843
1.3965
1.39533
1.39493
1.39532
1.39652
1.39854
1.40142
1.40514
1.40969
1.41504
1.4211
1.42776
1.43479
1.44189
1.4486
1.45438
1.45866
1.46095
1.46095
1.45867
1.45438
1.44861
1.44198
1.4351
1.42846
1.42243
1.4172
1.41284
1.40934
1.4066
1.40453
1.40301
1.40192
1.40116
1.40065
1.40032
1.40011
1.39999
1.39993
1.39991
1.3999
1.39991
1.39992
1.39994
1.39995
1.39996
1.39997
1.39998
1.39999
1.39999
1.4
1.4
1.4
1.4
1.4
1.4436
1.45022
1.45551
1.45897
1.46034
1.4596
1.45693
1.45264
1.44712
1.44075
1.4339
1.4269
1.42002
1.41346
1.40738
1.40188
1.39704
1.39289
1.38946
1.38675
1.3848
1.38359
1.38315
1.38349
1.38465
1.38665
1.38952
1.39327
1.39793
1.40347
1.40985
1.41698
1.42472
1.4328
1.44084
1.4483
1.45455
1.45898
1.46108
1.46063
1.45776
1.45288
1.44662
1.43968
1.43267
1.42609
1.42024
1.41527
1.41121
1.40801
1.40555
1.40373
1.40241
1.40149
1.40086
1.40045
1.40019
1.40003
1.39995
1.39991
1.3999
1.3999
1.39992
1.39993
1.39995
1.39996
1.39997
1.39998
1.39999
1.39999
1.4
1.4
1.4
1.4
1.4
1.4483
1.45424
1.45833
1.46018
1.45972
1.45708
1.4526
1.44668
1.43975
1.43224
1.4245
1.41683
1.40948
1.40261
1.39635
1.39075
1.38587
1.38171
1.37828
1.37558
1.3736
1.37237
1.37188
1.37216
1.37325
1.37517
1.37797
1.38168
1.38633
1.39193
1.39847
1.4059
1.41411
1.4229
1.43195
1.4408
1.4488
1.45526
1.45952
1.46113
1.45999
1.45637
1.45083
1.44411
1.43693
1.42991
1.4235
1.41792
1.41329
1.40959
1.40672
1.40456
1.40299
1.40188
1.40111
1.40061
1.40028
1.40009
1.39998
1.39992
1.3999
1.3999
1.39991
1.39993
1.39994
1.39995
1.39997
1.39998
1.39998
1.39999
1.39999
1.4
1.4
1.4
1.4
1.45242
1.45729
1.45985
1.4599
1.45753
1.45307
1.44693
1.43959
1.43151
1.4231
1.41471
1.4066
1.39898
1.39197
1.38565
1.38006
1.37521
1.37109
1.36769
1.365
1.36302
1.36176
1.36122
1.36143
1.36242
1.36423
1.36692
1.37052
1.37508
1.38065
1.38723
1.3948
1.40329
1.41256
1.42236
1.43229
1.44176
1.45005
1.45638
1.46013
1.46095
1.4589
1.45442
1.44822
1.44111
1.43382
1.42692
1.42077
1.41557
1.41134
1.40802
1.40551
1.40365
1.40233
1.40141
1.4008
1.4004
1.40016
1.40001
1.39994
1.39991
1.3999
1.39991
1.39992
1.39994
1.39995
1.39996
1.39997
1.39998
1.39999
1.39999
1.4
1.4
1.4
1.4
1.45573
1.4592
1.46002
1.45819
1.45398
1.44783
1.44024
1.43173
1.42274
1.41369
1.40487
1.39651
1.38878
1.38175
1.37547
1.36993
1.36514
1.36107
1.35769
1.35501
1.35302
1.35173
1.35114
1.35128
1.35219
1.3539
1.35645
1.35991
1.36434
1.36978
1.3763
1.38388
1.39251
1.40208
1.41241
1.42315
1.43379
1.44364
1.45188
1.45773
1.46061
1.46036
1.45724
1.45187
1.44508
1.4377
1.43043
1.42377
1.41801
1.41325
1.40947
1.40657
1.40441
1.40285
1.40176
1.40102
1.40054
1.40024
1.40006
1.39996
1.39992
1.3999
1.39991
1.39992
1.39993
1.39995
1.39996
1.39997
1.39998
1.39999
1.39999
1.4
1.4
1.4
1.4
1.45808
1.45992
1.4589
1.45522
1.44931
1.44168
1.43288
1.42343
1.41378
1.40428
1.39522
1.38677
1.37903
1.37206
1.36585
1.36039
1.35564
1.35158
1.3482
1.34549
1.34347
1.34213
1.34151
1.34161
1.34248
1.34412
1.34658
1.34992
1.35419
1.35947
1.36584
1.37334
1.38198
1.39169
1.40234
1.41366
1.42521
1.43635
1.44627
1.45407
1.45903
1.46072
1.45919
1.45492
1.44871
1.44145
1.43396
1.42688
1.4206
1.41531
1.41105
1.40773
1.40525
1.40343
1.40216
1.40128
1.4007
1.40034
1.40012
1.39999
1.39993
1.39991
1.39991
1.39992
1.39993
1.39994
1.39996
1.39997
1.39998
1.39999
1.39999
1.4
1.4
1.4
1.4
1.45939
1.45948
1.45664
1.45123
1.4438
1.43491
1.42513
1.41497
1.40485
1.3951
1.38594
1.3775
1.36983
1.36293
1.35679
1.35134
1.34657
1.34244
1.33898
1.33617
1.33406
1.33267
1.33203
1.33215
1.33305
1.33473
1.33721
1.3405
1.34468
1.34981
1.356
1.36333
1.37185
1.38156
1.39236
1.40406
1.41629
1.42846
1.4398
1.44938
1.45632
1.46
1.46022
1.45728
1.45189
1.44497
1.43743
1.43002
1.42328
1.41749
1.41274
1.40901
1.40617
1.40409
1.4026
1.40158
1.40089
1.40046
1.40019
1.40003
1.39995
1.39992
1.39991
1.39991
1.39993
1.39994
1.39995
1.39997
1.39998
1.39998
1.39999
1.4
1.4
1.4
1.4
1.45968
1.458
1.45342
1.44646
1.4377
1.42777
1.41722
1.40656
1.39615
1.38629
1.37713
1.36876
1.36118
1.35433
1.34816
1.34262
1.33768
1.33334
1.32963
1.32659
1.3243
1.32281
1.32217
1.32239
1.32346
1.32535
1.32803
1.33148
1.33571
1.34079
1.34683
1.35397
1.3623
1.37188
1.38269
1.39458
1.40725
1.42021
1.43272
1.44386
1.45264
1.45828
1.46034
1.45891
1.45456
1.44819
1.44076
1.43315
1.42602
1.41975
1.41453
1.41037
1.40717
1.4048
1.4031
1.40191
1.40111
1.40059
1.40027
1.40008
1.39998
1.39993
1.39991
1.39991
1.39993
1.39994
1.39995
1.39996
1.39997
1.39998
1.39999
1.39999
1.4
1.4
1.4
1.45903
1.45563
1.44946
1.44112
1.43126
1.42048
1.40937
1.39836
1.38782
1.37795
1.36886
1.36057
1.35302
1.34612
1.33977
1.33394
1.32859
1.32377
1.31956
1.31606
1.31342
1.31174
1.31109
1.31151
1.31295
1.31532
1.31851
1.32242
1.32699
1.33226
1.33831
1.34531
1.35343
1.3628
1.37347
1.38538
1.39831
1.41183
1.42526
1.43772
1.44818
1.45567
1.45959
1.45978
1.45666
1.45102
1.44388
1.43621
1.42877
1.42208
1.4164
1.41181
1.40824
1.40557
1.40364
1.40228
1.40135
1.40074
1.40036
1.40013
1.40001
1.39994
1.39992
1.39992
1.39992
1.39994
1.39995
1.39996
1.39997
1.39998
1.39999
1.39999
1.4
1.4
1.4
1.45756
1.45256
1.44496
1.43543
1.42465
1.41322
1.40171
1.39051
1.37993
1.37012
1.36112
1.35286
1.34523
1.33809
1.33132
1.32486
1.31874
1.31303
1.30792
1.30362
1.30036
1.29834
1.29769
1.29844
1.30051
1.30372
1.30786
1.31269
1.31806
1.32389
1.33024
1.3373
1.34528
1.35442
1.36486
1.37665
1.38964
1.4035
1.41763
1.43118
1.44309
1.45233
1.45806
1.45993
1.45815
1.45343
1.44674
1.43913
1.43148
1.42442
1.41832
1.41331
1.40938
1.4064
1.40422
1.40267
1.40162
1.40092
1.40047
1.4002
1.40004
1.39996
1.39993
1.39992
1.39993
1.39994
1.39995
1.39996
1.39997
1.39998
1.39999
1.39999
1.4
1.4
1.4
1.45542
1.44895
1.4401
1.42956
1.41804
1.40613
1.39436
1.38309
1.37255
1.36282
1.35386
1.34552
1.33762
1.32995
1.32237
1.31482
1.30737
1.30021
1.29365
1.28807
1.28385
1.28132
1.28065
1.2819
1.28493
1.28946
1.29512
1.30149
1.30825
1.31519
1.3223
1.32973
1.33778
1.34675
1.35694
1.3685
1.3814
1.39541
1.41002
1.42442
1.43758
1.44838
1.45584
1.4594
1.45906
1.45538
1.44929
1.44187
1.43411
1.42676
1.42027
1.41486
1.41056
1.40726
1.40484
1.4031
1.4019
1.4011
1.40059
1.40027
1.40009
1.39999
1.39994
1.39993
1.39993
1.39994
1.39995
1.39996
1.39997
1.39998
1.39999
1.39999
1.4
1.4
1.4
1.45277
1.44498
1.43504
1.42367
1.41156
1.39931
1.3874
1.37613
1.36567
1.356
1.34699
1.3384
1.32993
1.32133
1.3124
1.30311
1.29361
1.28425
1.27555
1.26812
1.26254
1.25928
1.25861
1.26058
1.26498
1.2714
1.27925
1.28792
1.29683
1.30559
1.31405
1.32233
1.33076
1.33975
1.34974
1.36102
1.37371
1.3877
1.40258
1.41762
1.43181
1.44399
1.45306
1.45827
1.45941
1.45686
1.4515
1.4444
1.43663
1.42905
1.42222
1.41643
1.41177
1.40817
1.40549
1.40356
1.40221
1.40131
1.40072
1.40035
1.40014
1.40002
1.39996
1.39994
1.39993
1.39994
1.39995
1.39996
1.39997
1.39998
1.39999
1.39999
1.4
1.4
1.4
1.44973
1.44078
1.42991
1.41786
1.40531
1.39285
1.38089
1.36968
1.35929
1.34961
1.3404
1.33128
1.32187
1.31178
1.3008
1.28894
1.2765
1.26406
1.25243
1.24252
1.23516
1.23097
1.23032
1.23326
1.2395
1.24846
1.2593
1.27112
1.28306
1.29447
1.30503
1.31476
1.32401
1.3333
1.34321
1.35423
1.36665
1.38048
1.39545
1.41092
1.42593
1.4393
1.44984
1.45662
1.45924
1.45789
1.45335
1.44669
1.43901
1.43127
1.42415
1.41801
1.413
1.40909
1.40616
1.40403
1.40254
1.40153
1.40086
1.40044
1.40019
1.40005
1.39998
1.39995
1.39994
1.39994
1.39995
1.39996
1.39997
1.39998
1.39999
1.39999
1.4
1.4
1.4
1.44645
1.43649
1.42483
1.41224
1.39937
1.38678
1.37484
1.36371
1.35335
1.34355
1.33392
1.32395
1.31308
1.30084
1.28697
1.27157
1.25516
1.23868
1.2233
1.21028
1.20072
1.19543
1.19485
1.19903
1.2076
1.21978
1.23446
1.25036
1.26629
1.28128
1.29477
1.30666
1.31727
1.32724
1.3373
1.34814
1.36025
1.37383
1.38874
1.40446
1.42008
1.43445
1.4463
1.45455
1.45861
1.4585
1.45486
1.44871
1.44121
1.43339
1.42602
1.41957
1.41424
1.41003
1.40685
1.40452
1.40288
1.40175
1.40101
1.40054
1.40025
1.40009
1.4
1.39996
1.39994
1.39994
1.39995
1.39996
1.39997
1.39998
1.39999
1.39999
1.4
1.4
1.4
1.44303
1.4322
1.4199
1.40688
1.39379
1.38115
1.36926
1.3582
1.3478
1.33772
1.32741
1.31616
1.30325
1.28807
1.27035
1.25036
1.22893
1.20744
1.18753
1.17082
1.15869
1.15211
1.15162
1.15731
1.16871
1.18482
1.20419
1.22513
1.24602
1.26555
1.28287
1.2977
1.31031
1.32139
1.33188
1.34269
1.35452
1.36779
1.38253
1.39833
1.41439
1.42957
1.44255
1.45216
1.4576
1.45872
1.45602
1.45046
1.44321
1.43538
1.42782
1.4211
1.41546
1.41097
1.40754
1.40502
1.40322
1.40199
1.40117
1.40064
1.40032
1.40013
1.40002
1.39997
1.39995
1.39995
1.39995
1.39996
1.39997
1.39998
1.39999
1.39999
1.4
1.4
1.4
1.43959
1.42801
1.41518
1.40184
1.3886
1.37596
1.36414
1.35312
1.34258
1.33202
1.3207
1.30771
1.2921
1.27313
1.25058
1.22494
1.19749
1.17012
1.14499
1.1241
1.10907
1.10103
1.10063
1.10802
1.12267
1.14339
1.16831
1.19523
1.22204
1.24702
1.26902
1.28758
1.30286
1.31559
1.32686
1.33782
1.34945
1.36239
1.37686
1.39262
1.40895
1.42476
1.43872
1.44954
1.45627
1.4586
1.45686
1.45194
1.44501
1.43723
1.42954
1.42257
1.41665
1.4119
1.40823
1.40552
1.40358
1.40223
1.40133
1.40075
1.40039
1.40017
1.40005
1.39999
1.39996
1.39996
1.39996
1.39997
1.39997
1.39998
1.39999
1.39999
1.4
1.4
1.4
1.43619
1.42399
1.41073
1.39715
1.38382
1.37121
1.35947
1.34842
1.3376
1.32633
1.31366
1.29844
1.27948
1.25591
1.22758
1.19533
1.16098
1.12703
1.09615
1.07071
1.05252
1.04285
1.04248
1.05165
1.06987
1.09574
1.12697
1.16076
1.1944
1.22568
1.25316
1.27616
1.29474
1.30965
1.3221
1.33346
1.345
1.35763
1.37178
1.38738
1.40384
1.42012
1.43489
1.44678
1.45472
1.4582
1.45742
1.45317
1.44661
1.43892
1.43114
1.42397
1.4178
1.4128
1.40891
1.40601
1.40393
1.40247
1.4015
1.40086
1.40046
1.40022
1.40008
1.40001
1.39997
1.39996
1.39996
1.39997
1.39998
1.39998
1.39999
1.39999
1.4
1.4
1.4
1.43292
1.42019
1.4066
1.39284
1.37947
1.3669
1.35521
1.34406
1.33282
1.32061
1.30624
1.28832
1.26539
1.23648
1.20158
1.16195
1.12007
1.07907
1.04214
1.01193
0.990398
0.978941
0.978476
0.989405
1.01131
1.04266
1.08075
1.12215
1.16341
1.20177
1.2354
1.26344
1.28588
1.30346
1.31748
1.32952
1.34112
1.35348
1.36728
1.38264
1.39911
1.41573
1.43116
1.44399
1.45301
1.45757
1.45772
1.45416
1.44799
1.44045
1.43262
1.42528
1.4189
1.41366
1.40957
1.4065
1.40427
1.40272
1.40166
1.40097
1.40053
1.40026
1.40011
1.40003
1.39999
1.39997
1.39997
1.39997
1.39998
1.39998
1.39999
1.39999
1.4
1.4
1.4
1.42984
1.41666
1.40281
1.38893
1.37554
1.36301
1.35133
1.34001
1.32821
1.31481
1.29844
1.27741
1.25004
1.21524
1.1732
1.12571
1.07596
1.02775
0.984701
0.949684
0.924782
0.911476
0.910817
0.923371
0.948837
0.985646
1.03079
1.08021
1.12968
1.17571
1.21604
1.2496
1.27634
1.29698
1.31292
1.32591
1.33774
1.34991
1.36336
1.37844
1.39482
1.41164
1.4276
1.44122
1.45121
1.45678
1.45782
1.45493
1.44918
1.44181
1.43397
1.4265
1.41992
1.41448
1.4102
1.40696
1.40461
1.40295
1.40182
1.40108
1.4006
1.40031
1.40014
1.40005
1.4
1.39998
1.39997
1.39998
1.39998
1.39999
1.39999
1.39999
1.4
1.4
1.4
1.42699
1.41343
1.39937
1.38542
1.37203
1.35952
1.3478
1.33624
1.32374
1.30897
1.29034
1.26592
1.2338
1.19282
1.14339
1.08792
1.03032
0.975037
0.926062
0.886461
0.858395
0.843388
0.842558