/*--------------------------------*- C++ -*----------------------------------*\
  =========                 |
  \\      /  F ield         | OpenFOAM: The Open Source CFD Toolbox
   \\    /   O peration     | Website:  https://openfoam.org
    \\  /    A nd           | Version:  6
     \\/     M anipulation  |
\*---------------------------------------------------------------------------*/
FoamFile
{
    version     2.0;
    format      ascii;
    class       surfaceScalarField;
    location    "1.48";
    object      phi;
}
// * * * * * * * * * * * * * * * * * * * * * * * * * * * * * * * * * * * * * //

dimensions      [1 0 -1 0 0 0 0];

internalField   nonuniform List<scalar> 
11670
(
8.6781e-05
0.000115438
-0.000322291
0.000121285
-1.18313e-06
2.23342e-07
-3.90355e-07
9.91659e-07
7.35954e-05
8.69291e-05
-0.000234272
7.39369e-05
6.51573e-06
2.96615e-05
-0.000102118
6.67767e-05
-4.35706e-06
7.31073e-07
-2.82667e-06
6.72749e-06
1.2219e-07
-3.51708e-08
-3.86791e-08
-2.60402e-08
1.22635e-05
-1.77577e-06
2.46899e-06
-1.30078e-05
-3.85139e-06
-9.91735e-07
-5.52407e-07
4.66355e-06
4.86283e-06
5.21466e-07
-1.24879e-07
-4.86939e-06
-5.67516e-06
1.88865e-06
-2.94709e-06
6.19723e-06
1.08271e-05
-3.52307e-07
5.02198e-06
-1.55323e-05
-3.92843e-05
-5.47743e-06
2.20929e-05
2.21907e-05
4.42488e-08
1.18501e-08
2.7341e-07
-1.31252e-07
1.51819e-07
-6.3656e-08
-1.29583e-07
2.90117e-07
-9.14782e-06
-6.87951e-05
7.70871e-05
2.46204e-07
3.08199e-08
-7.41905e-09
1.56245e-07
-6.4341e-08
-0.000152856
2.76124e-05
8.41992e-05
4.0626e-05
-0.000124865
-6.38609e-07
6.7506e-05
5.77412e-05
7.02467e-08
1.29034e-08
2.19201e-07
-1.37668e-07
4.6156e-08
1.82716e-08
-5.10008e-08
7.51602e-08
6.68256e-05
-0.000220598
0.000218485
-6.51117e-05
4.02127e-08
2.19367e-08
-4.51354e-08
4.51985e-08
7.41296e-05
-0.000111207
0.000140366
-0.000103622
-5.89259e-05
1.02428e-05
9.73582e-06
3.84876e-05
1.52178e-08
7.66038e-09
1.72762e-07
-6.38839e-08
1.34595e-07
-6.8404e-08
-1.30833e-07
4.34369e-07
1.10815e-05
-8.01692e-05
2.54113e-05
4.28749e-05
2.29727e-07
-4.1736e-08
3.14795e-07
-2.0609e-07
-2.59546e-06
-1.14642e-05
-1.43721e-06
1.51589e-05
-1.30076e-07
1.57929e-07
-2.12788e-07
6.81647e-07
-3.94587e-07
-2.14406e-06
-5.13209e-07
2.72346e-06
3.04086e-07
-7.22772e-08
3.86586e-07
-2.56353e-07
-2.13918e-07
2.50957e-07
-2.64684e-07
8.42687e-07
-3.13733e-07
-2.58541e-07
1.94735e-08
1.62871e-07
-4.18437e-07
-3.15016e-07
3.23931e-07
-2.67581e-07
4.12877e-07
-3.75524e-07
-2.87832e-07
9.20031e-07
5.76349e-08
1.92052e-07
4.14521e-07
-2.78772e-07
1.47289e-07
-7.38182e-08
6.13763e-07
-2.81569e-07
-2.87599e-07
3.88949e-08
-3.79234e-07
2.87261e-07
2.15841e-07
-3.60302e-07
2.82441e-07
-9.26996e-07
-1.19072e-08
1.58164e-07
3.85564e-07
-2.42151e-07
7.56067e-08
-1.02806e-07
-6.51441e-07
2.31507e-07
-2.32039e-07
3.44873e-07
-2.30129e-07
7.50434e-07
-2.78287e-07
8.62315e-09
2.20122e-07
-2.92164e-07
1.84938e-07
-8.03616e-08
-1.67384e-07
3.32946e-07
-5.39699e-08
-2.04718e-08
-3.60598e-07
1.69149e-07
3.49181e-08
4.45683e-08
4.01759e-07
-1.6954e-07
-1.96634e-07
8.39854e-08
1.67521e-07
-3.66692e-07
1.44225e-08
4.23034e-08
1.49543e-07
-9.39191e-08
-7.76432e-08
-1.82128e-08
8.49955e-08
-1.04661e-07
-2.52925e-08
6.86294e-08
-8.92563e-08
2.92687e-07
-2.72291e-09
-5.14713e-09
-2.74387e-07
9.07467e-08
-3.69639e-09
-1.4398e-09
4.20204e-10
-9.87111e-09
2.565e-09
-1.32815e-09
2.16727e-08
5.08151e-10
-2.36771e-11
-1.55872e-13
2.8677e-12
2.09966e-11
6.22349e-08
1.07499e-07
-8.13201e-08
6.95117e-08
-8.37174e-08
-5.32154e-08
-1.00416e-07
8.32212e-08
-4.13966e-08
3.59213e-08
3.33983e-07
-1.09244e-07
-8.89232e-10
3.06875e-08
9.50191e-08
-2.72191e-07
2.15966e-07
-3.46916e-08
2.9869e-07
-2.05562e-07
-1.66946e-05
9.31652e-07
7.96751e-06
7.4551e-06
-1.3281e-07
1.60633e-07
-2.12243e-07
6.87398e-07
1.99707e-06
-2.97272e-05
1.85197e-05
8.46352e-06
6.93408e-09
1.00372e-07
2.8288e-07
-1.77661e-07
-1.22655e-07
2.08075e-07
-1.68841e-07
5.60555e-07
8.57395e-08
-7.20141e-08
-6.29227e-07
1.83824e-07
-1.89497e-07
-1.14476e-08
1.70734e-07
-2.14544e-07
-3.48122e-08
2.01745e-07
-2.88481e-07
4.59298e-07
-8.55055e-07
8.79739e-08
5.43679e-07
-1.96165e-07
2.84728e-07
-6.8128e-07
-8.07635e-07
5.20975e-07
2.20038e-07
-3.2983e-07
3.1326e-07
-8.63825e-07
-3.73656e-07
6.89792e-08
-3.78239e-07
3.10594e-07
3.77233e-07
-5.28001e-08
-2.68969e-07
3.55099e-07
-2.71791e-07
2.5019e-07
9.74368e-07
-2.89417e-07
2.94721e-07
-6.68957e-08
3.77034e-07
-2.5604e-07
-2.15835e-07
2.5029e-07
-2.64361e-07
8.49757e-07
-1.70727e-07
-3.08193e-06
2.30118e-06
5.50362e-07
-5.36325e-06
1.13786e-06
1.40313e-06
2.16083e-06
-3.00175e-07
-6.43365e-08
-2.52249e-07
2.1935e-07
1.66973e-08
2.27416e-07
2.64041e-07
-1.93654e-07
-2.15761e-07
3.1382e-07
-3.05445e-07
8.44771e-07
-8.42414e-08
1.5544e-07
2.49945e-07
-7.01152e-07
1.78971e-08
4.42619e-08
-1.51861e-06
-0.000208704
7.52092e-05
0.000207428
-0.000194092
5.36247e-05
0.000228078
-1.1419e-06
1.28908e-06
1.20287e-05
-6.39452e-07
4.11046e-08
-3.57967e-06
9.97e-09
2.78575e-08
8.31785e-08
1.08638e-06
-1.62215e-06
-3.8514e-06
-5.13263e-05
1.06682e-05
4.78429e-05
-5.03918e-07
1.5492e-06
4.13089e-06
-3.15578e-07
4.37626e-07
-6.21209e-06
-1.63036e-06
1.44868e-06
1.08737e-05
-5.0359e-07
-3.89485e-07
7.53724e-06
-6.45337e-06
2.3888e-06
1.92148e-07
5.22773e-07
-3.02898e-06
-1.93686e-10
-2.47344e-08
-4.453e-08
2.49588e-08
1.71393e-07
9.70428e-08
-9.74554e-07
6.04645e-07
-2.9934e-07
1.40485e-06
8.46797e-07
-2.08226e-06
-3.70292e-06
5.37183e-05
-4.06152e-05
-9.66565e-06
4.2607e-07
-1.43067e-06
-1.26682e-06
2.38738e-06
4.86898e-07
2.67751e-07
-1.88465e-06
1.20371e-06
1.132e-06
7.53775e-06
-6.07718e-06
-3.08537e-08
9.09403e-09
1.64038e-07
-1.44594e-07
-1.22537e-08
-1.82465e-07
1.07785e-07
-4.87783e-08
-7.37823e-08
-4.05738e-05
1.95961e-05
2.12226e-05
-1.37435e-07
-2.06672e-07
1.85781e-07
2.37486e-07
-3.33917e-07
2.37467e-07
-1.22157e-07
-4.79032e-05
1.99661e-05
2.8038e-05
-1.09662e-07
2.00008e-07
-1.21615e-07
-1.69145e-07
2.24966e-06
-1.54898e-06
5.38711e-07
-2.08122e-06
1.1241e-06
-1.08127e-08
-5.31216e-08
2.0131e-08
4.02449e-05
-2.57729e-05
-1.84394e-05
1.65574e-06
9.52401e-07
-2.06042e-06
5.04104e-07
3.16078e-07
-7.49455e-07
-2.73623e-07
2.77656e-07
1.86119e-08
-4.17113e-08
-2.68805e-07
1.99076e-08
-4.37911e-08
-3.4155e-09
1.44312e-07
-5.44655e-09
-5.05687e-07
-8.7443e-07
-4.90715e-09
5.05684e-07
8.63183e-07
-9.92199e-05
-5.60726e-05
0.000154916
-7.54274e-05
-5.90116e-05
0.00013578
1.84872e-07
1.08327e-07
-1.65948e-07
-5.3498e-08
3.79667e-07
1.0925e-07
-2.30293e-07
1.29642e-06
1.90863e-07
1.60045e-06
-2.94222e-06
3.03452e-06
1.49681e-06
-3.08938e-06
1.8562e-06
1.05909e-06
2.81945e-06
-6.06192e-06
4.00061e-06
2.78167e-06
-5.25327e-06
-8.13643e-07
1.17598e-06
9.48556e-07
-1.59855e-06
1.79161e-07
9.36261e-07
-2.21672e-06
1.94362e-06
-2.6832e-06
-1.17079e-06
2.09503e-06
8.72199e-07
-1.16163e-06
2.4177e-06
4.48374e-10
-1.03203e-07
-4.43543e-11
1.87217e-08
-6.46482e-08
-4.79372e-11
-1.8933e-08
2.47588e-06
-2.71382e-06
2.65475e-06
-1.90838e-07
-4.34981e-07
-2.1172e-06
-3.83456e-06
1.93237e-07
5.51753e-07
2.99303e-06
-0.000115
-0.00026734
0.000141001
0.000241708
-2.76087e-06
1.09589e-07
3.81658e-07
2.15152e-06
-9.7543e-05
-0.000211139
0.000137076
0.000172045
1.56823e-06
-1.20689e-07
-2.27733e-07
-1.32317e-06
-1.54052e-06
4.63203e-08
2.14696e-07
1.14733e-06
5.15256e-07
-5.82449e-08
-7.88551e-08
-4.9041e-07
-6.02597e-05
-0.000251292
8.41046e-05
0.000227831
-7.41883e-05
-0.000219493
7.73515e-05
0.000216745
-6.90768e-05
-0.000202821
0.000133237
0.000138911
-6.2429e-05
-0.000222825
0.000163585
0.000121982
-9.29597e-05
0.000136649
-0.000179075
0.000136207
-7.26019e-05
0.000141572
-0.000230776
0.000162865
-8.24057e-06
1.43937e-06
1.94009e-07
6.21395e-06
4.55499e-06
-1.57593e-07
-9.45022e-07
-3.80916e-06
-5.22623e-05
-0.000173529
0.000124704
0.000101484
1.14242e-05
-1.08507e-06
-1.26042e-06
-9.23484e-06
-1.1115e-05
1.52974e-06
1.02122e-06
8.44711e-06
-4.57706e-06
1.21958e-07
1.06692e-06
3.03072e-06
-7.37024e-05
-0.000171518
0.000106251
0.000139973
-2.93908e-06
3.60598e-05
-6.07972e-05
2.78735e-05
-1.44043e-05
7.7362e-06
-1.90091e-05
2.58494e-05
-1.62248e-05
3.98113e-06
-7.88238e-07
1.24898e-05
5.20515e-06
6.86031e-06
-1.72326e-05
5.92931e-06
-6.49427e-05
-9.38219e-05
8.07085e-05
7.8884e-05
-2.32795e-06
1.66914e-05
-2.63551e-06
-1.18981e-05
-1.03988e-05
2.79793e-06
1.30414e-06
5.87769e-06
-7.0031e-06
2.40853e-06
-1.03733e-06
4.77686e-06
3.45599e-06
4.28051e-06
-1.91008e-05
1.12579e-05
-2.23084e-05
5.26903e-05
-9.60427e-05
6.60686e-05
-1.25344e-05
3.1783e-06
2.46809e-07
8.65334e-06
1.18558e-05
7.09062e-07
-3.61533e-06
-9.4754e-06
-2.54548e-05
1.17879e-05
-1.75558e-05
3.1605e-05
1.35459e-05
-5.24061e-06
-1.05404e-06
-7.66559e-06
3.34409e-06
9.53107e-07
-1.91095e-06
-3.36629e-06
-7.43121e-06
-5.63247e-06
3.3739e-06
1.05287e-05
1.04617e-05
-6.73922e-06
-2.82786e-06
-7.05763e-07
1.19213e-05
2.41742e-06
-7.1091e-06
-6.45624e-06
-9.08396e-06
3.02008e-06
1.83839e-06
4.07721e-06
-9.35767e-06
2.98783e-06
-1.29641e-06
7.03245e-06
4.78909e-06
-2.24155e-06
-3.42072e-07
-1.89867e-06
-6.12865e-06
2.07559e-06
-1.01566e-06
4.291e-06
-5.80477e-05
3.86521e-05
-9.31437e-05
0.000112883
-3.17429e-05
-5.67367e-06
1.0037e-05
2.75554e-05
-4.08508e-05
-4.63704e-05
2.22822e-05
6.57723e-05
6.00254e-08
-2.7508e-06
9.04671e-06
-6.87864e-06
2.60399e-06
5.20413e-09
-1.34171e-06
-1.79972e-06
3.20131e-06
-2.47979e-08
-6.11034e-07
-2.2763e-06
-1.04557e-06
2.91964e-07
9.12553e-09
1.01521e-06
7.60881e-06
1.3722e-06
-3.02111e-06
-6.69943e-06
-9.1135e-06
3.84178e-06
-3.3039e-06
9.28711e-06
3.14061e-06
8.51465e-07
-1.72493e-06
-3.15532e-06
3.78301e-06
-9.48848e-07
-1.74395e-06
-9.94499e-07
-2.53029e-06
1.02478e-06
9.68566e-07
6.68015e-07
9.81106e-08
-6.9968e-07
4.0457e-07
-7.95059e-11
2.47123e-08
-2.30336e-08
8.62374e-11
2.85015e-08
-3.02073e-08
-3.77842e-11
5.76479e-11
3.10742e-08
-6.1222e-07
3.62274e-07
-6.51847e-07
-1.46363e-06
7.74897e-06
-5.5416e-06
-5.80615e-06
9.55733e-07
7.35704e-07
4.22796e-06
-5.92478e-11
-2.84019e-08
3.87693e-08
1.28606e-10
-7.02831e-11
1.68514e-08
-1.25828e-08
1.67492e-10
-2.9378e-07
7.10919e-10
2.20797e-08
1.61989e-07
-1.02203e-06
2.65649e-07
-9.57673e-09
4.88079e-07
-3.89893e-07
-5.05173e-10
4.02806e-08
2.18193e-07
-0.000142706
-0.000229232
6.50831e-05
0.000307189
-7.11386e-05
-0.000259124
8.04173e-05
0.000250132
-2.99799e-09
-6.64907e-08
5.82646e-08
5.39612e-10
-3.46389e-11
3.57542e-08
-2.14922e-08
2.04273e-10
1.38172e-11
-2.43715e-08
4.42103e-08
1.29478e-10
1.00484e-07
-1.17173e-07
7.1731e-10
-2.94335e-09
-2.23039e-06
2.46228e-07
3.27329e-07
1.63213e-06
7.70274e-06
-3.80389e-07
-2.73404e-06
-4.57949e-06
-2.2529e-07
-4.14634e-07
2.26805e-06
-1.68078e-06
-8.86044e-06
-1.10262e-07
2.31975e-06
6.31779e-06
1.15284e-05
-5.25274e-06
-3.20932e-06
-2.91166e-06
-2.49583e-06
4.21352e-07
5.00397e-07
1.38661e-06
1.26842e-05
-3.90977e-06
1.00751e-06
-9.14022e-06
3.10509e-06
-1.02168e-07
-1.05779e-06
-2.11364e-06
4.99613e-06
-1.83417e-06
-6.78236e-07
-2.2202e-06
-4.795e-06
-7.45618e-07
1.51034e-06
3.35591e-06
-6.24945e-09
-1.33805e-07
1.14692e-07
6.82191e-10
8.48837e-10
1.27458e-07
-1.52064e-07
-5.72539e-09
-2.78409e-08
9.04457e-08
-2.65118e-08
-2.94813e-08
2.03196e-06
1.05515e-07
-4.37611e-07
-1.52625e-06
-7.20783e-07
-8.16496e-07
5.83754e-06
-4.46851e-06
-7.53107e-06
1.22945e-06
6.452e-07
5.51055e-06
-2.37307e-06
6.86757e-07
-8.24163e-08
1.97497e-06
-9.5808e-06
2.49191e-06
4.66884e-06
2.68822e-06
-2.69699e-06
2.62223e-07
7.8389e-06
-5.811e-06
1.80456e-06
-8.54919e-07
2.24274e-07
-3.67614e-07
-7.5438e-06
-1.08283e-06
2.6639e-06
6.56265e-06
-1.56112e-05
-0.000170171
0.000123776
6.21004e-05
-3.77586e-06
2.63426e-07
5.74447e-07
2.92713e-06
4.37383e-06
-2.24827e-07
-6.76014e-07
-3.49476e-06
-2.38975e-06
3.65202e-07
1.22433e-06
1.11597e-06
2.61818e-06
-1.3365e-06
5.82928e-07
-2.63632e-06
1.67918e-07
1.11746e-06
-5.19756e-06
3.7184e-06
7.04439e-06
-7.85043e-07
-6.73513e-07
-5.68474e-06
-8.62196e-06
9.53557e-07
6.23803e-07
6.94952e-06
1.22604e-05
-1.84459e-06
-1.27045e-06
-9.15765e-06
-2.72978e-05
0.000123935
-0.000174758
7.81088e-05
1.41675e-06
1.5689e-06
-1.17233e-05
8.7602e-06
0.000170521
-0.000219634
-5.66692e-05
0.000105764
1.00785e-05
-2.26067e-06
-7.58179e-06
-4.52902e-06
-2.24392e-07
1.21094e-06
3.16678e-06
-2.86043e-06
-1.40787e-06
1.49009e-05
-1.05384e-05
5.68922e-06
-1.30448e-06
2.77607e-07
-4.12836e-06
1.99475e-06
-2.13224e-07
-3.72405e-07
-6.33761e-07
4.86393e-06
-1.40853e-06
-1.44485e-07
-3.54045e-06
-5.83078e-06
-7.14225e-08
4.86509e-06
3.97151e-06
-1.34774e-06
1.07699e-07
-3.12652e-06
-1.41595e-05
1.34292e-06
2.43952e-06
1.05145e-05
-1.95537e-06
-2.33233e-07
7.33436e-07
1.95121e-06
-1.35911e-06
1.13345e-07
7.00864e-07
-5.83902e-06
2.96532e-06
-9.56679e-06
1.30852e-05
-1.66818e-05
1.28353e-06
2.77643e-06
1.26696e-05
-1.62472e-06
2.40084e-07
-5.89117e-08
8.19035e-07
-1.54904e-05
9.88422e-07
2.61636e-06
1.19851e-05
-1.17689e-06
2.50979e-07
6.15697e-08
5.42018e-07
1.72615e-05
-2.75835e-06
-1.51018e-06
-1.29977e-05
-1.52375e-06
-9.49564e-08
1.57861e-07
7.74728e-07
8.19194e-05
-7.02534e-05
-2.76138e-05
1.68242e-05
-1.22057e-05
6.34629e-07
2.22437e-06
9.45361e-06
1.80062e-05
-2.43062e-06
-1.22478e-06
-1.42988e-05
-3.14078e-06
1.97311e-07
1.00194e-06
1.92411e-06
-2.7545e-05
-1.92465e-05
2.2323e-06
4.45949e-05
-6.5638e-05
-1.93386e-05
8.96639e-06
7.61172e-05
3.21608e-06
-3.06167e-09
-1.33622e-06
-1.99246e-06
-5.63829e-05
-6.29766e-05
3.66433e-06
0.000115904
-5.25734e-06
1.91868e-06
5.1638e-07
2.48671e-06
4.47503e-07
8.64988e-07
-2.45741e-06
1.19142e-06
2.42219e-06
-5.71769e-07
-6.79812e-07
-1.17434e-06
-9.05065e-05
4.04084e-07
-4.14019e-05
0.000131432
-0.000102252
-9.5942e-05
1.63437e-05
0.000181824
1.43544e-07
-1.69336e-07
6.61978e-11
8.66965e-12
-1.4441e-10
-1.73448e-07
1.51485e-07
2.70518e-10
-2.17109e-06
5.52421e-07
4.43231e-07
1.09996e-06
2.01787e-06
-3.19458e-07
-8.14908e-07
-1.02586e-06
1.4094e-05
-1.95272e-06
-8.81223e-07
-1.11973e-05
-1.89279e-05
6.3166e-06
-2.50496e-06
1.51136e-05
9.27212e-07
-7.03968e-08
-7.92931e-08
-7.47142e-07
-1.02305e-06
2.18546e-08
1.8892e-07
8.52185e-07
7.78426e-06
-1.17237e-06
-7.25008e-07
-5.90272e-06
9.15679e-07
8.82117e-07
-8.70893e-06
6.91472e-06
6.78911e-06
-1.8583e-06
-3.02788e-06
-1.78422e-06
2.11584e-06
-9.05441e-07
-4.89107e-07
-5.28715e-07
-3.25829e-05
-0.000135117
2.61107e-05
0.000140754
-4.82925e-07
-3.22418e-07
1.53135e-06
-7.42373e-07
-7.02664e-07
-3.192e-09
3.05958e-07
4.50575e-07
5.03984e-07
2.87374e-07
-1.50062e-06
7.27579e-07
-2.57182e-06
1.17697e-06
4.15484e-07
1.13414e-06
-1.00473e-06
5.60819e-08
1.95713e-07
7.558e-07
-1.73928e-06
4.23564e-07
1.10667e-06
4.34283e-07
-7.74244e-08
-1.82808e-07
1.03868e-06
-7.87788e-07
0.000195325
-5.92499e-05
7.63013e-05
-0.000212426
-1.5884e-05
2.3838e-05
-4.01305e-05
3.1533e-05
-5.04983e-06
2.17307e-06
1.72945e-06
1.33176e-06
-3.79017e-05
3.1401e-05
-5.31789e-05
5.91722e-05
-8.95926e-11
3.99529e-07
-9.79725e-07
6.13924e-07
-2.91354e-06
5.29433e-07
7.91355e-07
1.74563e-06
-8.3555e-06
3.0223e-06
6.38641e-07
4.81853e-06
9.85318e-07
-1.9302e-07
-1.91997e-07
-5.49424e-07
2.56808e-06
-4.92246e-07
-8.36105e-07
-1.13203e-06
-0.000246488
1.64436e-05
-0.000248395
0.000478382
3.01491e-06
-1.03012e-07
-5.48069e-07
-2.30837e-06
-0.000107656
-0.000173392
0.000133267
0.000147765
-0.000205489
0.000134348
-4.26364e-05
0.000113718
-0.000203883
-0.000210972
1.76173e-05
0.000397067
-9.65929e-05
2.8236e-05
-5.05557e-05
0.000118151
-0.000109287
-0.000285608
7.70879e-05
0.000317656
5.03494e-07
-4.90071e-08
-1.66494e-07
-2.14552e-07
-0.00012505
-0.000212005
8.1377e-05
0.000255549
-2.34831e-06
2.01678e-07
2.17646e-07
2.00355e-06
-4.16689e-05
0.000117943
-0.00018889
0.000111679
6.42945e-05
-0.00012897
0.000102069
-3.74354e-05
-9.83059e-05
0.000139167
-0.000249152
0.000207276
-0.000106434
-0.000149525
9.31696e-05
0.000162467
-0.000135884
-0.000138761
7.20721e-05
0.000201681
2.0043e-06
-5.465e-08
-6.17001e-07
-1.26441e-06
1.83842e-06
3.20614e-08
-3.50709e-07
-1.17633e-06
-9.33673e-06
4.83299e-06
-4.11608e-07
5.232e-06
-6.01088e-05
2.25407e-05
-6.00893e-05
9.73689e-05
8.53468e-07
-2.25877e-07
-2.03571e-06
1.90108e-06
2.95412e-06
-3.38246e-07
-1.13337e-06
-2.07488e-06
2.20675e-06
2.24576e-07
-7.78324e-07
-2.23001e-06
-3.8987e-06
8.75943e-07
-3.85839e-07
4.21164e-06
2.65176e-08
1.57384e-06
-1.45313e-06
-6.38406e-05
-0.000104025
0.000127953
-2.42471e-06
5.0747e-07
1.72288e-06
-0.000124357
-2.68373e-05
0.000104093
8.4742e-06
5.24168e-07
-3.99468e-06
-4.63181e-06
-2.63451e-06
1.47859e-06
-7.02068e-07
2.66508e-06
-0.000179687
-0.00012213
7.21227e-05
0.000229668
-3.15805e-06
-2.33634e-06
1.77593e-05
-1.23597e-05
-8.29297e-06
1.66581e-06
3.25242e-07
6.40395e-06
-1.27941e-05
3.4652e-05
-8.65336e-05
6.34361e-05
-1.52046e-05
3.51282e-06
1.32267e-06
9.92112e-06
7.47645e-06
2.20476e-07
-2.4908e-06
-4.46687e-06
-1.01316e-05
4.41929e-06
-8.464e-07
6.11195e-06
1.03042e-05
-5.41188e-06
-3.0043e-06
-1.40463e-06
3.19372e-06
2.67414e-07
-8.32331e-07
-2.22748e-06
-5.18038e-06
1.18735e-06
-1.3766e-07
3.62234e-06
-3.97971e-06
1.51185e-06
-5.54826e-07
3.49842e-06
-7.64645e-07
4.16297e-08
7.41522e-08
5.54649e-07
4.68453e-07
-2.79058e-08
-9.53355e-08
-4.64483e-07
-9.60706e-05
-0.000230217
3.14719e-05
0.000295069
-3.72846e-05
1.15779e-05
-3.53314e-05
6.02202e-05
-7.41171e-05
-0.000275837
9.96828e-05
0.00025045
3.44529e-06
-5.54756e-07
-2.83503e-07
-2.18089e-06
3.26223e-06
3.80508e-07
-1.27317e-05
9.32308e-06
-5.04808e-06
8.27368e-07
1.74916e-06
2.95294e-06
-5.86832e-06
2.40784e-06
-6.71119e-07
4.67007e-06
-6.39054e-06
1.40854e-06
6.80968e-07
3.79186e-06
4.77353e-06
8.94038e-07
-1.70394e-06
-3.2514e-06
-4.29928e-05
-2.97797e-05
1.5656e-05
5.66616e-05
-5.68442e-06
-7.42409e-07
2.56679e-06
4.54063e-06
-1.01621e-05
-5.79296e-07
2.66771e-06
8.5834e-06
4.85493e-06
-3.64785e-06
-2.05239e-06
-4.83409e-08
-1.44885e-05
2.24036e-06
3.28432e-06
9.15759e-06
1.5115e-05
-2.97431e-06
-1.47372e-06
-1.09141e-05
-1.67681e-05
2.07967e-06
-5.11231e-06
1.90518e-05
9.46802e-06
-4.98053e-07
-1.40313e-06
-7.50215e-06
-5.13157e-05
3.89217e-05
-8.43629e-05
9.55175e-05
-1.96044e-05
1.74356e-06
2.63472e-06
1.5196e-05
-8.57131e-06
1.45559e-05
3.34614e-05
6.38862e-07
2.93638e-06
-4.20266e-06
1.07376e-06
4.2526e-06
6.5311e-07
-1.29693e-06
-3.19344e-06
1.38574e-05
-8.28636e-07
-2.80648e-06
-1.00683e-05
-4.8096e-05
3.82014e-05
-6.60935e-05
7.56074e-05
8.98775e-06
-5.56508e-07
-3.4994e-06
-5.15866e-06
9.45934e-06
-2.8203e-06
-4.43434e-06
-2.4848e-06
-1.34692e-05
-5.97065e-07
3.45771e-06
1.09733e-05
-1.28632e-05
-6.07819e-08
3.61771e-06
8.78336e-06
8.98314e-07
-2.45901e-06
7.25692e-06
-5.16689e-06
-1.37604e-05
-4.84396e-06
1.23783e-06
1.63982e-05
-3.41389e-06
1.09294e-06
1.02856e-05
-7.214e-06
1.24032e-05
-3.04432e-06
2.10805e-07
-9.14976e-06
-9.41268e-06
3.93656e-06
2.64349e-07
5.7635e-06
-6.41321e-06
1.77519e-05
-6.5428e-05
5.34974e-05
-4.37322e-06
2.66979e-07
6.74579e-07
2.8405e-06
4.549e-06
-2.41736e-07
-1.38856e-06
-2.90603e-06
1.64323e-06
-1.15464e-07
-4.4393e-07
-1.27929e-06
-1.9602e-06
3.21454e-07
1.32813e-07
1.33745e-06
-1.37908e-06
3.51105e-07
2.77339e-07
9.64247e-07
-4.2504e-11
-2.35667e-08
4.01698e-08
8.87151e-11
1.11829e-07
8.026e-08
-1.61998e-07
-3.68888e-08
-1.32684e-07
-8.66253e-07
2.02469e-06
-1.08176e-06
8.32046e-09
6.23695e-08
-6.69663e-08
6.9047e-12
2.67631e-08
-1.71295e-08
6.33839e-11
-2.42049e-06
6.52269e-07
1.00879e-07
1.78613e-06
-7.86831e-08
-4.76728e-08
1.84289e-07
-9.35521e-08
2.39772e-08
2.1403e-08
-9.3087e-08
1.18965e-08
-1.02181e-10
-2.25323e-08
4.50134e-08
8.8844e-11
-1.40777e-07
-4.055e-07
2.16106e-06
-1.52273e-06
1.54971e-06
-4.70245e-07
-5.92246e-07
-3.87968e-07
6.59246e-06
-8.75711e-07
-1.11106e-06
-4.44105e-06
-2.17871e-06
9.16434e-08
7.56325e-07
1.58225e-06
1.86043e-06
-4.54264e-07
-4.41912e-07
-1.10356e-06
-1.59585e-06
9.48778e-07
3.82019e-07
3.99542e-07
-6.03427e-06
1.82444e-06
2.68291e-07
4.0224e-06
4.80588e-06
-1.38242e-06
-1.14698e-06
-2.35262e-06
-2.63737e-13
4.13783e-08
-2.3096e-08
3.94178e-12
-6.54185e-11
-2.27503e-08
2.94877e-08
8.91052e-11
1.80967e-06
-3.6094e-07
-6.48466e-08
-1.16556e-06
8.80318e-07
-2.22183e-07
-1.68134e-07
-3.13827e-07
-1.02445e-06
2.47045e-07
7.47945e-08
5.76452e-07
-1.25122e-06
1.25837e-07
3.07068e-07
6.95319e-07
-4.16391e-06
2.20675e-06
-9.88677e-07
3.71491e-06
5.16289e-06
-1.12875e-06
-2.82587e-06
-1.84972e-06
1.1541e-05
-1.90184e-06
-6.08169e-06
-3.85643e-06
6.0055e-06
-3.1785e-06
-9.09077e-07
-1.54364e-06
-1.16489e-05
2.33803e-06
1.47279e-07
8.46491e-06
-3.76097e-05
1.8142e-05
7.22862e-05
-1.01577e-06
-1.6416e-06
3.15876e-06
-7.89854e-07
-3.60397e-06
6.4705e-07
4.17867e-07
2.0941e-06
3.47784e-06
-9.41394e-07
2.84228e-07
-2.23962e-06
1.68882e-05
-3.63594e-06
5.76177e-07
-1.34733e-05
-1.14766e-05
4.88638e-06
3.40808e-06
3.01268e-06
1.24529e-05
-4.24103e-06
-5.20783e-06
-3.17939e-06
-5.96742e-06
-8.31924e-07
1.53747e-05
-8.44118e-06
-6.17588e-05
4.43395e-05
-7.45677e-05
9.13163e-05
1.29637e-05
-4.42224e-06
-5.76103e-07
-7.70792e-06
-3.4267e-06
2.14195e-06
6.64182e-07
8.69013e-07
6.52087e-06
1.37006e-06
-2.43694e-06
-4.69488e-06
2.55564e-06
-1.42756e-06
6.24984e-07
-2.51302e-06
2.42885e-06
1.34663e-06
-5.36694e-06
1.34654e-06
3.56828e-06
3.47427e-07
-1.39801e-06
-2.23828e-06
-1.10034e-05
2.78063e-06
4.80174e-06
3.74029e-06
-4.2945e-06
-1.7065e-07
9.36243e-06
-5.29205e-06
-1.33854e-05
4.30588e-06
7.56499e-07
8.26897e-06
-1.34436e-05
5.20882e-06
4.75894e-06
3.43272e-06
3.52774e-06
-7.97538e-07
-1.65572e-06
-8.96081e-07
3.57482e-06
-1.49108e-06
-3.3645e-06
1.75906e-06
-6.14215e-06
-1.09071e-06
1.97584e-06
4.42271e-06
2.00593e-06
-9.16371e-07
3.12205e-07
-1.99373e-06
-3.86232e-05
8.43568e-06
-3.78415e-05
6.88452e-05
-9.68948e-06
4.0039e-06
3.20615e-06
2.52239e-06
1.49893e-05
-5.00492e-06
-1.41805e-06
-8.57857e-06
-5.51583e-06
-3.95794e-06
1.22263e-05
-2.57142e-06
4.53168e-06
1.61699e-07
-3.68371e-06
-9.7929e-06
3.50444e-06
1.76795e-06
4.45451e-06
9.55778e-06
-4.14078e-06
-3.0457e-06
-2.48339e-06
-4.41152e-06
-6.12377e-07
1.166e-06
3.2236e-06
-2.31776e-05
3.08588e-06
-2.79999e-05
4.87045e-05
-2.52798e-05
1.57974e-06
-1.42171e-05
3.81124e-05
1.58287e-06
-6.14534e-06
4.67361e-06
-6.05223e-06
1.20297e-06
1.00579e-06
3.65315e-06
1.40788e-05
8.80453e-07
-2.46218e-05
9.83278e-06
-5.38617e-07
3.80941e-06
-1.40174e-05
1.02188e-05
1.34521e-05
-4.42873e-06
1.89195e-06
-1.02362e-05
-3.73622e-06
-7.87554e-08
1.85599e-05
-1.44407e-05
-1.36207e-05
8.07478e-07
2.78211e-06
9.80524e-06
-9.41725e-06
-1.53187e-06
3.11889e-06
7.07404e-06
1.49436e-05
-4.03863e-06
3.97726e-07
-1.0834e-05
-2.9669e-05
1.63766e-06
-1.76625e-05
4.56372e-05
4.8807e-06
-1.31208e-06
-1.20292e-06
-2.3747e-06
-1.74745e-05
1.19715e-06
4.84288e-06
1.14295e-05
4.36581e-06
-1.24258e-06
4.61595e-07
-2.93126e-06
1.09621e-05
-3.68352e-06
5.7358e-07
-8.40835e-06
-9.32098e-06
-1.51853e-06
3.89003e-06
7.59197e-06
-1.40843e-05
9.97997e-08
3.37768e-06
1.0909e-05
-3.08693e-06
-4.89457e-07
1.18368e-05
-8.54847e-06
2.86251e-06
2.11533e-06
-6.63352e-06
1.69922e-06
6.11079e-06
-3.17171e-06
1.4551e-06
-5.26446e-06
-3.86467e-06
1.75656e-07
6.81935e-07
2.49135e-06
-7.16986e-07
3.79847e-06
-1.12507e-05
8.71315e-06
1.04634e-05
1.1232e-06
-2.26865e-05
1.09826e-05
-5.38217e-06
-8.68321e-07
3.15935e-06
3.62053e-06
4.69399e-06
-2.99729e-06
5.10952e-07
-2.72393e-06
6.60468e-06
-2.95711e-06
-2.05122e-06
-1.69085e-06
1.79701e-08
6.65545e-06
-4.78937e-06
1.79824e-07
-3.05638e-06
1.08827e-05
-7.69634e-06
-3.44629e-05
8.87033e-06
-2.368e-05
4.86514e-05
-6.87168e-06
2.19033e-06
5.21852e-06
5.49658e-06
1.01377e-06
-2.03965e-06
-3.80213e-06
1.12886e-05
-5.77775e-06
-3.38882e-06
-2.38583e-06
-1.05051e-05
3.35252e-06
-3.24794e-07
7.83661e-06
-1.15397e-06
8.27241e-07
-2.9954e-05
2.96731e-05
7.82288e-06
1.56e-06
-3.15002e-06
-5.41058e-06
-1.16112e-05
3.59214e-06
-3.82263e-06
1.11057e-05
-6.15974e-06
1.78221e-06
1.31409e-06
2.98527e-06
-3.72102e-05
1.00601e-05
-1.13697e-05
3.79766e-05
-3.58341e-06
1.88751e-06
-6.36593e-07
2.97936e-06
3.87426e-07
9.68024e-07
-5.003e-06
3.52544e-06
1.32221e-05
-2.30287e-06
-9.11062e-07
-9.87698e-06
5.96644e-06
1.86236e-06
-7.65993e-06
-1.02619e-06
-4.74897e-06
2.70322e-06
-1.10324e-06
3.94978e-06
-4.34818e-06
1.54597e-06
4.48186e-07
2.10923e-06
-9.7235e-06
1.91485e-06
2.00992e-06
6.15615e-06
5.65647e-06
-1.74721e-06
-8.71486e-07
-3.38394e-06
3.26166e-06
-1.06014e-06
-1.4847e-07
-1.66566e-06
1.25462e-07
6.36788e-07
-2.4112e-06
1.34355e-06
-1.32631e-06
-2.47463e-07
5.32572e-06
-3.92964e-06
6.84071e-07
2.06331e-06
-1.29925e-05
1.04451e-05
5.35072e-06
-2.5225e-06
-1.26095e-06
-1.33816e-06
-3.84172e-06
-4.68544e-07
1.07271e-06
2.78163e-06
-7.61517e-06
-1.67e-07
3.10017e-06
4.96832e-06
3.35367e-06
-7.85777e-07
6.83092e-09
-2.14587e-06
-3.15253e-06
9.35347e-07
1.70868e-06
7.88156e-07
3.0964e-06
-1.17538e-06
3.66345e-07
-2.81483e-06
-7.12109e-06
7.45244e-06
5.38303e-08
-2.90642e-07
9.77573e-07
-2.06882e-06
-1.11799e-06
5.583e-06
1.12911e-05
7.47365e-05
-0.00012724
1.42757e-06
-5.14442e-06
1.73303e-06
-3.24562e-06
-1.84289e-07
5.99879e-07
1.03291e-05
-6.5725e-05
1.37357e-07
-4.55473e-07
2.2856e-07
-1.7612e-06
-3.23131e-07
1.01759e-06
1.16087e-05
-9.03589e-05
1.51853e-07
-5.37549e-07
1.87758e-06
-3.21706e-06
5.76205e-06
-2.43884e-06
6.30575e-08
-2.7723e-07
2.56694e-05
4.90049e-05
-0.00010113
-5.48335e-07
1.73062e-06
-1.51509e-06
5.62016e-06
0.00026511
-0.000407934
7.41661e-05
1.20555e-07
4.36903e-07
1.98673e-06
-1.74671e-07
-3.2245e-07
-2.38858e-06
0.000304546
-0.000433268
3.18825e-05
-0.000338755
0.000142067
8.21425e-05
-0.000283509
0.000140858
6.89385e-05
6.07554e-08
2.68651e-07
1.10855e-06
-1.09227e-07
-1.65941e-07
-1.41118e-06
4.25716e-08
-7.79942e-08
-3.92428e-06
6.31109e-07
-4.89404e-07
1.09424e-05
0.000160228
-0.000288694
7.68049e-05
-0.000346536
0.0002725
-1.73389e-05
-6.9199e-07
8.19812e-07
-8.8476e-06
-5.3545e-07
-3.3203e-07
-4.15292e-06
3.52579e-07
5.56383e-07
3.24684e-06
0.000207302
-0.000302959
2.39232e-05
-0.000308792
7.39962e-05
9.24985e-05
-3.40998e-08
-4.33332e-08
-4.63659e-07
-0.00031292
0.000252644
4.48071e-05
-9.49359e-08
1.08414e-07
4.28796e-06
-2.75018e-07
9.17981e-08
-1.30453e-06
1.00847e-06
1.14528e-06
1.00511e-05
-0.000241798
0.000174338
4.0322e-05
2.07687e-06
-2.49102e-06
-1.05802e-05
-0.000181843
0.000157329
-3.87523e-05
2.43999e-06
1.85263e-06
1.2886e-05
-0.000286697
0.000106592
0.000120288
1.53722e-08
8.33333e-08
2.80565e-07
0.000161976
-0.000257805
2.35897e-05
7.27118e-05
-0.000170881
4.11139e-05
-5.24624e-05
2.20063e-05
-5.873e-07
-3.1679e-07
2.21523e-07
-2.19518e-06
-4.46016e-07
3.3177e-07
3.66434e-06
-4.43113e-05
1.89035e-05
3.1795e-05
-4.0984e-06
2.85566e-06
1.21682e-05
5.88604e-05
-0.000115637
4.31984e-05
-1.1875e-07
4.4228e-08
-6.42737e-07
-6.61071e-05
3.43307e-05
7.32176e-06
2.38318e-06
-2.39725e-06
-1.6746e-05
-2.52423e-06
3.42873e-06
-9.03084e-06
-2.10908e-08
3.49332e-08
7.36411e-11
-2.30329e-09
2.3531e-08
-3.16374e-08
3.39616e-08
-2.15285e-08
7.44331e-11
-3.27843e-09
3.13536e-08
3.24398e-09
6.00315e-07
-5.52639e-07
1.77784e-05
-1.29554e-05
5.76727e-06
2.0048e-05
-0.000337955
0.000225561
5.02725e-05
3.58594e-06
-2.72256e-06
-1.10439e-05
-8.24952e-05
2.99414e-05
1.33498e-05
-2.58221e-09
6.06085e-08
-8.99529e-08
4.52391e-08
-2.76445e-08
-2.42165e-09
-1.68618e-05
4.54716e-06
2.33745e-05
4.43365e-06
-8.2516e-07
-1.32913e-05
2.19957e-06
-4.70642e-06
8.10085e-06
-1.31804e-06
2.58729e-06
5.55072e-06
-2.48945e-06
1.11572e-06
-5.47562e-06
3.83147e-06
-4.42256e-06
-7.49691e-06
-9.57373e-07
-1.20799e-06
-9.00863e-06
2.23059e-07
-5.54084e-07
-1.97391e-06
5.52061e-07
-4.03316e-07
-2.19965e-06
-0.000289974
7.43058e-05
0.000119897
3.0683e-08
3.29709e-08
2.64361e-07
9.07573e-07
4.75263e-07
5.53351e-06
5.92077e-07
-5.13207e-07
1.38514e-05
-8.87354e-06
4.92455e-06
-1.48467e-05
-4.35466e-07
1.95191e-07
2.44774e-06
-6.33377e-07
-6.73379e-07
-6.3714e-06
1.22127e-07
-1.47997e-07
-5.28564e-10
-4.4428e-05
1.26946e-05
2.74213e-05
8.57643e-07
6.84965e-07
6.19608e-06
-2.44147e-06
2.05108e-06
-8.70539e-06
-3.55071e-06
2.65752e-06
1.42827e-05
-1.61111e-06
1.5531e-06
-9.2126e-06
1.37057e-06
-1.57676e-06
-1.36013e-05
-2.3899e-06
2.53704e-06
-6.69399e-06
1.57023e-06
-1.9865e-06
-5.10605e-06
-2.59635e-06
1.661e-06
6.77117e-06
2.03839e-06
-2.53697e-06
1.11433e-05
-3.4913e-07
3.45871e-07
9.34836e-06
6.01624e-07
-3.29666e-06
-1.68455e-05
-1.39243e-07
1.17514e-06
5.16172e-06
-1.36055e-06
8.30388e-08
-4.0976e-06
8.02812e-07
-6.07661e-07
3.19917e-06
-1.06323e-06
1.08498e-06
1.87514e-06
-8.89418e-06
3.35508e-06
-4.94014e-07
-8.96111e-07
1.09288e-06
1.86219e-06
-1.07271e-07
-1.20297e-07
4.74836e-06
-6.4673e-07
3.89526e-07
-1.83781e-06
0.000194445
-0.000168943
-2.80922e-05
6.46619e-07
-2.35314e-07
1.47094e-06
6.27959e-08
-2.00638e-07
-2.08674e-06
-4.21827e-07
-5.57196e-07
8.67335e-06
-1.49116e-07
1.20848e-07
-3.86042e-11
-3.86293e-07
2.37825e-07
-1.18943e-06
-9.38834e-07
-6.263e-07
-7.1141e-06
-0.000242424
2.28577e-05
0.000117431
-0.000179492
9.86863e-05
5.86586e-05
-0.000150592
5.11262e-05
3.4154e-05
1.1648e-07
1.46115e-07
-4.02223e-06
-0.000201415
2.15543e-05
0.000123911
-8.87895e-07
1.44995e-06
-1.65363e-06
-5.65371e-07
7.34013e-07
1.51251e-06
1.05575e-06
-1.39164e-06
1.85633e-06
-0.000300176
6.45873e-05
0.000164807
-1.16782e-08
-7.26334e-08
-3.36634e-07
-0.000100825
1.9441e-05
5.40321e-05
-8.36313e-07
2.98972e-07
2.16912e-06
-5.64512e-07
8.5015e-07
-3.2042e-06
6.91709e-05
-0.000178462
4.63486e-05
1.79382e-07
2.7358e-08
7.38601e-07
0.000234928
-0.000505524
0.000161012
2.71252e-07
2.27125e-08
7.65122e-07
-0.000213046
0.000117573
5.65411e-05
-0.000243713
0.000191644
9.48799e-06
6.99571e-07
-1.36225e-06
3.37656e-06
-7.05032e-07
6.33894e-07
-4.60701e-06
-7.92928e-05
0.000169063
0.000105248
-0.000470681
4.15207e-06
0.000262365
-0.000391639
0.000165623
0.000126227
9.68748e-08
-6.16232e-08
6.59046e-07
1.73626e-06
-6.19276e-07
-3.06154e-06
-7.08408e-07
1.56553e-06
-3.37164e-06
-1.21212e-06
8.05943e-07
3.36335e-06
-0.000214652
7.00651e-05
7.54463e-06
-0.000338671
0.000222446
8.48457e-06
1.3586e-07
-5.3429e-08
-5.75015e-07
-0.000193188
8.39939e-05
7.55235e-05
-1.08973e-07
-3.41028e-07
-1.7851e-06
-3.86943e-07
1.59806e-08
3.45397e-06
-4.33286e-07
6.38252e-07
-1.41559e-06
-6.9538e-07