/*--------------------------------*- C++ -*----------------------------------*\
  =========                 |
  \\      /  F ield         | OpenFOAM: The Open Source CFD Toolbox
   \\    /   O peration     | Website:  https://openfoam.org
    \\  /    A nd           | Version:  6
     \\/     M anipulation  |
\*---------------------------------------------------------------------------*/
FoamFile
{
    version     2.0;
    format      ascii;
    class       volVectorField;
    location    "1.78";
    object      U;
}
// * * * * * * * * * * * * * * * * * * * * * * * * * * * * * * * * * * * * * //

dimensions      [0 1 -1 0 0 0 0];

internalField   nonuniform List<vector> 
4214
(
(9.06887 -0.341204 0)
(9.48758 -0.176604 -3.81204e-19)
(9.72794 -0.0157273 5.80184e-20)
(9.88561 0.135785 3.3691e-19)
(10.0096 0.29161 2.20806e-19)
(10.1027 0.448785 -2.09096e-20)
(10.1623 0.597837 -2.30794e-19)
(10.1924 0.732646 -9.36414e-20)
(10.1986 0.851028 9.57149e-20)
(10.19 0.952621 0)
(10.1747 1.03578 5.90118e-21)
(10.1486 1.09708 3.36586e-20)
(10.1088 1.1325 -3.58807e-20)
(10.0602 1.13647 0)
(10.029 1.1071 1.4247e-20)
(10.0582 1.03876 -1.44266e-20)
(10.1505 0.922396 3.85066e-21)
(10.131 0.763442 6.48956e-21)
(9.70531 0.531761 0)
(8.64208 0.213213 -2.60821e-21)
(8.24476 -0.263455 0)
(9.28957 -0.828199 2.25356e-21)
(10.2367 -1.21646 0)
(10.5469 -1.37774 -5.56697e-21)
(10.5417 -1.4174 -2.98466e-21)
(10.4404 -1.42176 -3.3623e-21)
(10.3806 -1.40227 3.32324e-21)
(10.3698 -1.36742 0)
(10.3892 -1.31661 -5.06291e-20)
(10.4072 -1.24492 5.12842e-20)
(10.4164 -1.15473 -5.83947e-21)
(10.4165 -1.04828 0)
(10.4057 -0.926767 1.03056e-19)
(10.377 -0.790503 -1.00855e-19)
(10.3247 -0.640572 -2.37314e-19)
(10.2451 -0.480313 -1.79453e-20)
(10.1379 -0.315972 2.63537e-19)
(10.006 -0.15591 2.94074e-19)
(9.84325 -0.0011463 5.81209e-20)
(9.59573 0.163614 -3.33393e-19)
(9.16509 0.331163 0)
(9.7067 -0.0900461 0)
(9.92576 0.0416383 2.49981e-20)
(10.089 0.227648 -8.12078e-20)
(10.2095 0.392995 -4.29748e-19)
(10.2988 0.551887 5.05641e-19)
(10.3522 0.704206 0)
(10.3694 0.84194 0)
(10.358 0.961982 1.67944e-19)
(10.3295 1.06522 -1.71756e-19)
(10.2925 1.1526 -1.36614e-19)
(10.2463 1.22238 1.33426e-19)
(10.1873 1.27031 2.16221e-20)
(10.1125 1.29121 -3.10951e-21)
(10.0298 1.28267 0)
(9.96914 1.24062 0)
(9.96344 1.16036 0)
(9.99561 1.03513 -6.00488e-20)
(9.89427 0.862679 -5.21164e-20)
(9.34872 0.620195 3.08241e-20)
(8.19252 0.314581 5.70348e-20)
(7.67007 -0.142926 2.61309e-20)
(8.72933 -0.745289 1.15383e-20)
(9.87751 -1.20043 2.76983e-20)
(10.4238 -1.42676 8.50244e-21)
(10.5153 -1.49775 -4.69011e-20)
(10.4637 -1.51028 0)
(10.4152 -1.50246 0)
(10.413 -1.47916 0)
(10.4481 -1.44402 3.11651e-21)
(10.4906 -1.39359 -2.00084e-20)
(10.5234 -1.32301 1.35549e-19)
(10.5499 -1.23622 -1.27008e-19)
(10.5682 -1.13568 -1.62143e-19)
(10.5748 -1.02082 1.58588e-19)
(10.5612 -0.890105 0)
(10.5182 -0.743035 0)
(10.4433 -0.583273 3.15336e-19)
(10.3407 -0.418988 -3.68905e-19)
(10.2144 -0.24961 7.89333e-20)
(10.0475 -0.0588562 -2.46172e-20)
(9.82041 0.0817506 1.494e-18)
(9.92175 0.0111673 -2.08713e-18)
(10.0971 0.200338 -7.98595e-19)
(10.2607 0.400642 9.01254e-19)
(10.366 0.563958 0)
(10.4232 0.707589 6.1766e-19)
(10.4444 0.840299 -4.49438e-20)
(10.4373 0.960175 -6.75389e-19)
(10.41 1.06634 0)
(10.3698 1.15971 -1.84302e-19)
(10.3206 1.23974 2.75685e-19)
(10.2615 1.30339 -1.94839e-19)
(10.188 1.34577 1.81438e-19)
(10.0974 1.36278 0)
(9.99948 1.35153 0)
(9.92694 1.30925 4.64352e-20)
(9.90478 1.2315 -5.56467e-20)
(9.90579 1.11101 4.54243e-20)
(9.77532 0.935744 2.36766e-20)
(9.17083 0.688522 4.47765e-20)
(7.97744 0.386068 -1.84463e-20)
(7.37299 -0.0612961 0)
(8.40614 -0.679013 1.61099e-20)
(9.63237 -1.16547 -3.97106e-20)
(10.3041 -1.43635 -2.10163e-20)
(10.4727 -1.53199 -4.30228e-20)
(10.4607 -1.54516 -5.12784e-20)
(10.4228 -1.53697 5.93134e-20)
(10.4184 -1.51398 0)
(10.4589 -1.48141 0)
(10.5091 -1.43623 1.98034e-19)
(10.5541 -1.3743 -2.3873e-19)
(10.5893 -1.29719 2.58085e-19)
(10.617 -1.20847 -3.32507e-19)
(10.6359 -1.10911 0)
(10.6402 -0.997964 -6.45899e-19)
(10.623 -0.873114 -4.53849e-20)
(10.5793 -0.73527 7.26227e-19)
(10.5055 -0.586844 2.1748e-19)
(10.391 -0.419802 7.15442e-19)
(10.2231 -0.216671 -7.76183e-19)
(10.0437 -0.0232989 2.02796e-18)
(10.2445 0.229507 -2.27318e-18)
(10.3883 0.404997 2.87807e-19)
(10.5019 0.597654 0)
(10.5557 0.741227 1.00579e-18)
(10.5712 0.862275 -1.03178e-18)
(10.5612 0.975682 -9.22809e-19)
(10.531 1.08112 9.4595e-19)
(10.4855 1.1771 -6.64626e-19)
(10.4297 1.2633 3.374e-19)
(10.3652 1.33795 -3.32694e-19)
(10.2889 1.3971 3.39875e-19)
(10.1949 1.43625 -1.97445e-19)
(10.0825 1.45194 2.01241e-19)
(9.96543 1.44035 0)
(9.8763 1.40104 8.88847e-20)
(9.83209 1.33008 -8.13107e-20)
(9.79079 1.21593 -4.64877e-20)
(9.58601 1.04034 -9.33473e-20)
(8.92166 0.788836 2.62902e-20)
(7.68655 0.481528 8.07692e-20)
(6.97468 0.0388756 0)
(7.96798 -0.602664 1.36709e-19)
(9.29809 -1.13431 1.06127e-19)
(10.1266 -1.44932 -2.48058e-19)
(10.4281 -1.57913 4.40147e-20)
(10.461 -1.59833 -8.06908e-20)
(10.4406 -1.58514 7.08497e-20)
(10.4397 -1.55931 0)
(10.4813 -1.52646 1.77438e-19)
(10.5416 -1.48393 -1.74213e-19)
(10.5992 -1.42807 3.72996e-19)
(10.6472 -1.35888 -3.05342e-19)
(10.6873 -1.27926 4.79377e-19)
(10.7207 -1.19145 -1.54124e-19)
(10.7438 -1.0955 8.9971e-19)
(10.7508 -0.99001 -8.77894e-19)
(10.7385 -0.875492 -9.92465e-19)
(10.7047 -0.752235 7.46388e-19)
(10.6383 -0.606507 0)
(10.5181 -0.413608 -2.79226e-19)
(10.3721 -0.237062 2.21135e-18)
(10.5425 0.408596 -6.40776e-19)
(10.6133 0.584068 -1.6338e-18)
(10.6744 0.754207 1.76302e-18)
(10.69 0.875044 -1.31389e-18)
(10.6763 0.977631 1.3486e-18)
(10.6448 1.07718 1.56844e-18)
(10.5991 1.1732 -1.24925e-18)
(10.5419 1.26349 8.02972e-19)
(10.4752 1.34646 -5.61153e-19)
(10.3986 1.41912 0)
(10.307 1.47776 0)
(10.1944 1.51814 0)
(10.0638 1.53678 8.29263e-21)
(9.93229 1.53008 -5.5629e-20)
(9.82896 1.49938 9.28996e-20)
(9.76428 1.44014 -1.06558e-19)
(9.67882 1.33539 -9.5238e-20)
(9.40789 1.16257 -1.54862e-19)
(8.68322 0.908599 3.12799e-19)
(7.40512 0.589438 7.53244e-20)
(6.58373 0.146079 -7.8707e-20)
(7.51472 -0.516495 5.35058e-21)
(8.93569 -1.09509 2.19267e-19)
(9.91135 -1.45559 3.04694e-20)
(10.3527 -1.62013 -2.32612e-19)
(10.4541 -1.65451 -1.10519e-19)
(10.4581 -1.63416 1.21905e-19)
(10.4594 -1.60075 -3.04901e-20)
(10.4999 -1.56237 9.91088e-20)
(10.565 -1.5172 0)
(10.6327 -1.46187 0)
(10.6905 -1.39552 0)
(10.7385 -1.32057 -5.2327e-19)
(10.7802 -1.23919 2.71734e-19)
(10.8149 -1.15272 -1.1845e-18)
(10.8389 -1.06098 8.22706e-19)
(10.8496 -0.964714 1.29555e-18)
(10.8447 -0.863546 -1.26241e-18)
(10.8141 -0.743303 9.60559e-19)
(10.7433 -0.576855 -1.01463e-18)
(10.6685 -0.404931 6.25143e-19)
(10.7805 0.582107 3.60991e-19)
(10.7952 0.720245 -2.52398e-18)
(10.8147 0.862477 8.24969e-19)
(10.8017 0.968323 4.60372e-19)
(10.7675 1.0613 0)
(10.7215 1.15441 7.64689e-20)
(10.6652 1.24742 0)
(10.599 1.33746 -2.92054e-19)
(10.523 1.42145 1.34398e-18)
(10.4344 1.49627 -1.21e-18)
(10.3265 1.55873 5.72547e-19)
(10.1958 1.60435 3.34663e-19)
(10.049 1.63026 -2.81912e-19)
(9.90552 1.63391 0)
(9.78798 1.61599 0)
(9.69959 1.57139 0)
(9.56374 1.47925 -7.79801e-20)
(9.21737 1.30972 -1.34234e-19)
(8.42483 1.04884 -2.507e-19)
(7.10264 0.711177 0)
(6.16824 0.26164 0)
(7.01535 -0.42168 0)
(8.51843 -1.0517 1.64548e-19)
(9.6458 -1.46227 1.27099e-19)
(10.2373 -1.66321 7.49163e-20)
(10.4403 -1.71865 0)
(10.4803 -1.69565 7.14963e-21)
(10.4894 -1.65242 0)
(10.527 -1.60429 -3.36235e-19)
(10.593 -1.55201 2.82157e-19)
(10.6681 -1.49286 5.15729e-19)
(10.7356 -1.42453 -1.09992e-18)
(10.7911 -1.34925 1.23887e-18)
(10.8384 -1.26901 -1.01291e-18)
(10.8798 -1.18535 0)
(10.9144 -1.09977 -7.07214e-20)
(10.9407 -1.01375 0)
(10.9569 -0.926045 -4.40989e-19)
(10.9538 -0.823999 2.45624e-18)
(10.9231 -0.689249 -7.25709e-19)
(10.9007 -0.558278 -1.21146e-18)
(10.9562 0.684515 0)
(10.9304 0.802335 -9.50886e-21)
(10.9205 0.927303 2.50755e-18)
(10.8926 1.02937 -4.69594e-19)
(10.8484 1.1221 1.93265e-18)
(10.7939 1.21597 -1.07666e-18)
(10.7306 1.31165 -1.92568e-18)
(10.6578 1.40585 9.33559e-19)
(10.5735 1.49485 -4.16966e-19)
(10.4726 1.57602 0)
(10.3488 1.64616 -5.78182e-19)
(10.202 1.70095 1.01702e-18)
(10.0425 1.73879 -4.34965e-19)
(9.89061 1.75858 4.04131e-20)
(9.76006 1.75739 1.72189e-19)
(9.63943 1.72877 -3.0535e-20)
(9.44604 1.6495 0)
(9.01624 1.48183 -3.51974e-19)
(8.14878 1.20956 5.20296e-19)
(6.78031 0.846746 0)
(5.73469 0.384242 0)
(6.47561 -0.318816 0)
(8.04701 -1.00169 1.55998e-19)
(9.33187 -1.46701 -4.49398e-19)
(10.0857 -1.71483 0)
(10.4091 -1.79213 -2.89761e-19)
(10.5031 -1.77296 7.06368e-20)
(10.53 -1.72033 -1.93093e-20)
(10.5654 -1.65943 -3.57426e-19)
(10.6282 -1.59594 8.62302e-19)
(10.7068 -1.52917 -5.01124e-19)
(10.7823 -1.45542 0)
(10.8453 -1.37569 -1.22155e-18)
(10.897 -1.29214 7.14882e-19)
(10.9417 -1.20641 -1.80841e-18)
(10.9816 -1.12041 7.96422e-19)
(11.0159 -1.03637 1.83074e-18)
(11.0422 -0.952494 4.49924e-19)
(11.0545 -0.858208 1.50884e-18)
(11.0528 -0.743938 -3.82697e-18)
(11.0669 -0.636481 8.74634e-19)
(11.0851 0.751016 -1.26152e-18)
(11.0421 0.85337 -2.3567e-18)
(11.0171 0.9709 -1.29956e-18)
(10.9817 1.07625 0)
(10.9321 1.17447 0)
(10.8722 1.27404 5.37152e-19)
(10.8038 1.37637 0)
(10.7254 1.47808 5.38708e-19)
(10.6324 1.57576 -1.53149e-18)
(10.5187 1.66694 -3.48792e-19)
(10.3797 1.74817 8.76463e-19)
(10.2193 1.8161 5.42352e-19)
(10.051 1.87065 -5.53526e-19)
(9.89262 1.91131 -1.857e-19)
(9.74859 1.9324 1.37718e-19)
(9.58609 1.92023 -2.64497e-19)
(9.32175 1.84926 -4.62783e-20)
(8.79892 1.68019 5.74153e-20)
(7.84799 1.39136 3.86245e-19)
(6.42933 0.996609 6.70626e-20)
(5.27801 0.512189 1.28923e-19)
(5.89145 -0.209649 -1.91433e-19)
(7.51487 -0.944989 3.77632e-19)
(8.95394 -1.4695 -8.99807e-20)
(9.88416 -1.77033 -5.13178e-19)
(10.3495 -1.87667 -5.90922e-20)
(10.5257 -1.86817 2.06697e-19)
(10.5822 -1.80953 1.06876e-19)
(10.6193 -1.73464 -4.44154e-19)
(10.6769 -1.65687 4.35737e-19)
(10.7548 -1.57918 7.70776e-19)
(10.8361 -1.49727 -1.20274e-18)
(10.9065 -1.41068 -5.45085e-19)
(10.9635 -1.3207 1.40765e-18)
(11.0105 -1.22949 0)
(11.0527 -1.13914 -5.05349e-19)
(11.0904 -1.05159 1.21149e-18)
(11.1215 -0.965217 0)
(11.142 -0.871966 1.24557e-18)
(11.155 -0.767677 1.058e-18)
(11.1833 -0.676753 1.22923e-18)
(11.1956 0.793075 -1.87422e-19)
(11.1506 0.894031 -2.96154e-18)
(11.1196 1.01298 2.65101e-18)
(11.0789 1.12421 0)
(11.0253 1.23023 0)
(10.9622 1.33843 0)
(10.8902 1.45009 0)
(10.8064 1.56217 0)
(10.7037 1.6716 1.16597e-18)
(10.5771 1.77565 -2.33252e-18)
(10.4246 1.87133 0)
(10.2544 1.95673 0)
(10.081 2.03321 -2.18934e-19)
(9.91634 2.09898 3.48029e-19)
(9.75338 2.14595 1.31175e-19)
(9.54201 2.15089 -4.88677e-19)
(9.18835 2.08322 -1.11793e-19)
(8.55871 1.9051 -3.70776e-19)
(7.51546 1.59315 0)
(6.04259 1.1604 -3.50013e-19)
(4.7946 0.643299 -1.43642e-19)
(5.26239 -0.0972315 4.86827e-19)
(6.91937 -0.882583 2.45215e-19)
(8.50587 -1.46781 0)
(9.62318 -1.82478 9.20296e-19)
(10.2532 -1.97209 -6.0101e-19)
(10.539 -1.98186 1.1069e-19)
(10.643 -1.92074 8.57515e-20)
(10.6905 -1.833 -1.45392e-19)
(10.7434 -1.73941 0)
(10.8169 -1.64806 0)
(10.9006 -1.55557 -6.17877e-20)
(10.9774 -1.46056 4.38128e-19)
(11.0408 -1.36282 0)
(11.0909 -1.26411 0)
(11.134 -1.16715 0)
(11.1727 -1.07378 -1.23757e-18)
(11.2064 -0.982691 0)
(11.2318 -0.886719 2.91997e-18)
(11.25 -0.783445 -1.22829e-18)
(11.2798 -0.695388 1.77588e-19)
(11.3108 0.838842 -1.01408e-17)
(11.2697 0.941499 4.78579e-18)
(11.2362 1.06462 1.55385e-18)
(11.1911 1.18256 3.27963e-18)
(11.1346 1.29701 -6.62292e-18)
(11.0699 1.41538 1.57352e-18)
(10.9952 1.53845 -1.74189e-18)
(10.9052 1.66334 0)
(10.7922 1.7868 -3.03249e-18)
(10.6536 1.90645 1.5496e-18)
(10.4907 2.02035 1.31691e-18)
(10.3156 2.12821 3.14084e-19)
(10.1402 2.23207 -1.21192e-18)
(9.967 2.32673 3.08171e-19)
(9.77467 2.40008 2.36801e-20)
(9.50085 2.42279 2.51808e-19)
(9.04418 2.35488 -1.06534e-19)
(8.28957 2.15692 7.62671e-19)
(7.14225 1.8126 -2.76379e-19)
(5.6112 1.3357 7.28175e-19)
(4.27629 0.775769 0)
(4.58905 0.0144105 -1.61779e-19)
(6.25791 -0.815754 -5.31413e-19)
(7.98078 -1.46051 -4.1283e-19)
(9.29146 -1.87862 -7.09376e-19)
(10.1116 -2.07605 2.37027e-19)
(10.5323 -2.11197 2.21261e-19)
(10.7065 -2.0525 2.02507e-19)
(10.7789 -1.95503 -8.99978e-19)
(10.8319 -1.84525 1.14683e-18)
(10.8985 -1.73812 1.12835e-18)
(10.9805 -1.63267 -3.82778e-19)
(11.0611 -1.52754 8.00738e-19)
(11.1314 -1.42148 0)
(11.1858 -1.31458 0)
(11.23 -1.20984 4.74832e-18)
(11.2687 -1.10966 -6.20419e-18)
(11.3038 -1.01389 3.08643e-18)
(11.3323 -0.914784 -1.48497e-18)
(11.3526 -0.809827 1.69276e-18)
(11.3798 -0.721431 -2.88348e-18)
(11.4433 0.890762 -5.98519e-18)
(11.4047 0.99808 0)
(11.3693 1.12773 -2.06334e-18)
(11.3222 1.25308 0)
(11.2655 1.37664 0)
(11.2008 1.50675 1.80679e-18)
(11.1231 1.64311 1.78079e-18)
(11.0261 1.78286 -2.03217e-18)
(10.9029 1.92238 3.61747e-18)
(10.7552 2.06098 1.07778e-18)
(10.5869 2.19769 0)
(10.4127 2.3338 1.74802e-18)
(10.2366 2.47046 -1.77739e-18)
(10.0489 2.59705 6.3453e-19)
(9.81279 2.69684 -1.3849e-19)
(9.4544 2.73232 -3.69136e-19)
(8.87708 2.65993 6.12343e-19)
(7.98314 2.43591 -7.87291e-19)
(6.72026 2.04722 7.19825e-19)
(5.12605 1.51793 -1.61898e-21)
(3.71449 0.906875 0)
(3.87092 0.121654 -1.64322e-21)
(5.5297 -0.747168 2.23146e-19)
(7.37592 -1.44867 -8.53838e-19)
(8.88432 -1.93193 7.91222e-19)
(9.90976 -2.18443 -4.57179e-19)
(10.4921 -2.25265 1.4046e-19)
(10.7653 -2.20195 -1.594e-19)
(10.8822 -2.09915 -4.70523e-19)
(10.9454 -1.97379 4.11088e-19)
(11.0049 -1.8491 0)
(11.0815 -1.72829 0)
(11.161 -1.61068 -3.18003e-18)
(11.2369 -1.49538 1.81093e-18)
(11.2966 -1.37988 -1.87684e-18)
(11.3431 -1.26707 -1.66994e-18)
(11.3812 -1.15938 0)
(11.4162 -1.05845 0)
(11.4455 -0.95609 1.95393e-18)
(11.4669 -0.848329 0)
(11.4926 -0.757926 -1.68616e-18)
(11.5963 0.945259 -8.84081e-18)
(11.5582 1.06104 -4.35812e-18)
(11.523 1.19906 8.99146e-18)
(11.4775 1.33243 -6.94331e-18)
(11.423 1.46668 2.1689e-18)
(11.3587 1.61066 2.47351e-18)
(11.2771 1.76189 0)
(11.1733 1.91842 -3.63655e-19)
(11.0418 2.07649 -2.00627e-18)
(10.8909 2.23861 -6.1323e-18)
(10.7237 2.40366 -1.11963e-19)
(10.5563 2.57461 1.51767e-18)
(10.3764 2.74887 -7.29574e-19)
(10.1631 2.90891 -4.23291e-19)
(9.86417 3.03386 2.47218e-19)
(9.39687 3.0765 -9.86305e-20)
(8.67329 2.99088 6.21318e-19)
(7.62459 2.73104 -9.77648e-19)
(6.23833 2.29107 -3.07055e-19)
(4.57812 1.70227 2.78948e-19)
(3.10115 1.03258 0)
(3.10801 0.220494 3.17116e-19)
(4.73786 -0.681944 -2.95242e-19)
(6.69021 -1.43734 5.00406e-19)
(8.38956 -1.98212 7.60047e-19)
(9.63021 -2.29122 -8.22959e-19)
(10.4049 -2.40157 8.94324e-20)
(10.8093 -2.3658 1.00478e-18)
(10.9943 -2.26202 -2.57078e-18)
(11.0842 -2.12275 4.07525e-19)
(11.14 -1.97895 3.41362e-18)
(11.2094 -1.84059 2.77804e-19)
(11.2816 -1.7073 3.81682e-18)
(11.3595 -1.58104 -1.85328e-18)
(11.424 -1.45599 -2.98386e-19)
(11.4744 -1.33485 -2.25202e-18)
(11.5125 -1.2189 6.57483e-18)
(11.5458 -1.11157 -4.18861e-18)
(11.5736 -1.00484 -4.63556e-22)
(11.5941 -0.89299 -4.13931e-18)
(11.6187 -0.798757 8.49836e-18)
(11.7712 0.99887 -2.61955e-18)
(11.7337 1.12592 0)
(11.7024 1.27183 -2.45396e-18)
(11.6616 1.41503 2.49518e-18)
(11.6094 1.56229 2.51614e-18)
(11.5452 1.72187 2.83107e-18)
(11.4593 1.88942 -2.56091e-18)
(11.3511 2.0654 5.1377e-18)
(11.2163 2.24563 1.89798e-19)
(11.0712 2.4374 2.32987e-18)
(10.9113 2.63702 2.1721e-18)
(10.7538 2.84982 -3.21352e-18)
(10.5598 3.06478 1.41943e-19)
(10.305 3.25782 1.20904e-18)
(9.91803 3.40358 -9.66549e-19)
(9.31485 3.44369 5.59726e-20)
(8.42116 3.33544 -1.12113e-19)
(7.20071 3.02993 7.04034e-19)
(5.68518 2.53224 -8.88967e-19)
(3.95987 1.87929 3.76029e-19)
(2.43083 1.14623 0)
(2.30271 0.304439 1.69712e-19)
(3.88751 -0.625211 -5.03944e-19)
(5.9225 -1.42547 4.41555e-20)
(7.79864 -2.0292 -2.10392e-19)
(9.26143 -2.39545 1.99088e-19)
(10.2532 -2.55497 -3.09905e-19)
(10.8235 -2.53977 -6.77347e-20)
(11.1023 -2.43925 2.86319e-18)
(11.2433 -2.28936 2.04169e-19)
(11.3038 -2.12499 -1.77456e-18)
(11.3696 -1.96727 -1.96682e-18)
(11.4288 -1.8145 -6.95167e-18)
(11.5028 -1.67452 2.29735e-18)
(11.5689 -1.538 -5.32055e-18)
(11.6238 -1.40773 7.13571e-18)
(11.6629 -1.28259 -2.32021e-18)
(11.6942 -1.1675 0)
(11.7189 -1.05489 2.31156e-18)
(11.7367 -0.937431 0)
(11.7598 -0.836839 2.4991e-18)
(11.9695 1.0466 -8.97133e-18)
(11.9362 1.18444 -5.87956e-18)
(11.9105 1.33737 6.04808e-18)
(11.8767 1.49408 0)
(11.8266 1.6563 0)
(11.7619 1.83232 0)
(11.6727 2.01859 -6.5441e-18)
(11.5666 2.21747 3.54654e-18)
(11.4367 2.42569 -6.10863e-18)
(11.3094 2.6541 3.22183e-18)
(11.1593 2.89486 0)
(11.0108 3.15537 2.8287e-18)
(10.7816 3.40999 -3.02522e-20)
(10.4663 3.63299 -8.67674e-20)
(9.95836 3.79027 -1.59038e-18)
(9.19 3.81468 8.70039e-19)
(8.10174 3.6728 -3.70427e-19)
(6.69856 3.31201 -6.63539e-20)
(5.05353 2.75605 0)
(3.26568 2.03856 -3.40232e-19)
(1.70064 1.23841 1.3857e-19)
(1.45927 0.3667 2.38634e-19)
(2.98688 -0.58161 0)
(5.07774 -1.41632 -2.70663e-19)
(7.11207 -2.07343 5.35289e-19)
(8.79249 -2.49199 1.78574e-20)
(10.0167 -2.70573 3.06933e-19)
(10.7924 -2.71852 1.53789e-18)
(11.1903 -2.62439 -1.53232e-18)
(11.4169 -2.46986 -2.15307e-18)
(11.4946 -2.2843 0)
(11.5674 -2.10579 2.71287e-18)
(11.6107 -1.92966 -1.02592e-19)
(11.6739 -1.77164 -3.07963e-18)
(11.7338 -1.62112 5.80374e-18)
(11.7911 -1.47966 0)
(11.8319 -1.34472 0)
(11.8621 -1.21998 0)
(11.8828 -1.10052 5.67668e-18)
(11.8976 -0.977593 -5.5181e-18)
(11.9182 -0.869215 8.55641e-18)
(12.1946 1.08062 -3.52817e-18)
(12.1708 1.22579 0)
(12.1493 1.38837 0)
(12.1243 1.55784 0)
(12.0771 1.7386 0)
(12.0142 1.93066 7.60744e-18)
(11.9268 2.14188 -4.21178e-18)
(11.834 2.36485 -7.51784e-18)
(11.7206 2.61114 -3.73544e-19)
(11.6242 2.87945 -4.34263e-18)
(11.4808 3.16889 -4.32344e-18)
(11.337 3.47715 1.83913e-18)
(11.0387 3.76455 -3.53216e-18)
(10.6433 4.01275 1.2703e-18)
(9.96735 4.16495 1.01365e-18)
(9.00647 4.16236 6.88152e-19)
(7.69976 3.97552 -7.06231e-19)
(6.10652 3.55497 1.4713e-19)
(4.33336 2.94679 1.31837e-20)
(2.48335 2.16886 -4.6136e-20)
(0.90547 1.29522 1.01358e-19)
(0.576254 0.39307 -5.4586e-20)
(2.03755 -0.559871 0)
(4.15734 -1.41263 -1.52329e-19)
(6.32924 -2.11378 1.94719e-19)
(8.2237 -2.57836 7.27386e-20)
(9.68275 -2.84203 -5.03779e-19)
(10.7146 -2.89464 -7.91699e-19)
(11.2513 -2.80613 -2.59613e-18)
(11.6084 -2.65476 6.12081e-19)
(11.7162 -2.44969 3.45504e-18)
(11.8107 -2.24875 3.57086e-18)
(11.8375 -2.04879 7.09895e-18)
(11.8837 -1.86533 -1.76225e-19)
(11.9264 -1.70039 -1.01243e-17)
(11.9792 -1.5426 6.7434e-18)
(12.0211 -1.39956 0)
(12.0518 -1.2614 3.57888e-18)
(12.0684 -1.13517 0)
(12.0799 -1.00688 0)
(12.0961 -0.892225 3.33613e-18)
(12.4442 1.08909 7.68829e-18)
(12.4386 1.233 0)
(12.4193 1.41858 0)
(12.4039 1.58664 -1.31629e-17)
(12.3595 1.80351 8.82534e-18)
(12.3089 1.99994 0)
(12.2373 2.2548 0)
(12.1731 2.48911 0)
(12.0896 2.79549 1.47058e-17)
(12.0326 3.0894 -5.1012e-19)
(11.8816 3.44211 -3.81507e-19)
(11.739 3.78045 1.507e-17)
(11.3203 4.09794 -7.01527e-18)
(10.8317 4.36783 4.25775e-18)
(9.90927 4.4873 -4.39258e-18)
(8.75631 4.45856 -1.34556e-18)
(7.20507 4.21308 1.06294e-19)
(5.42759 3.75272 4.75186e-19)
(3.5138 3.09636 -3.75027e-21)
(1.58045 2.25976 -1.01962e-20)
(0.0152796 1.2971 0)
(-0.370478 0.369458 1.12672e-19)
(1.00079 -0.568407 -1.11337e-19)
(3.15306 -1.43311 3.12471e-20)
(5.45039 -2.15522 7.10785e-19)
(7.5814 -2.66987 -4.5434e-19)
(9.24027 -2.95224 1.6605e-19)
(10.6039 -3.06148 2.80115e-18)
(11.2763 -2.97064 -5.11063e-18)
(11.8219 -2.82485 6.42641e-18)
(11.9696 -2.60648 -7.31203e-18)
(12.1025 -2.37479 -7.77764e-18)
(12.1151 -2.16532 2.44973e-19)
(12.1424 -1.94241 4.46816e-18)
(12.1614 -1.7725 0)
(12.1966 -1.58443 0)
(12.2358 -1.44303 8.01671e-18)
(12.2661 -1.28118 -7.2741e-18)
(12.277 -1.15422 0)
(12.2861 -1.0115 0)
(12.2935 -0.900803 -7.26618e-18)
(12.7113 1.07498 -4.17593e-18)
(12.7273 1.18236 0)
(12.7157 1.43883 0)
(12.7127 1.56082 -6.31134e-19)
(12.6729 1.8598 0)
(12.648 2.00991 1.09295e-17)
(12.6119 2.36471 -1.12402e-17)
(12.59 2.55943 0)
(12.5431 2.98389 -1.21209e-17)
(12.5204 3.24652 0)
(12.3187 3.70418 6.95314e-18)
(12.1797 4.01548 -6.30211e-18)
(11.5404 4.39593 -9.51288e-18)
(10.9986 4.67114 3.12825e-18)
(9.6806 4.71628 -1.93509e-19)
(8.44917 4.67954 4.94461e-18)
(6.56861 4.35616 -1.4901e-18)
(4.70432 3.93866 0)
(2.60047 3.20557 0)
(0.53914 2.32031 2.87082e-19)
(-1.35092 1.31467 0)
(-1.56704 0.353914 -1.43667e-19)
(-0.178152 -0.587454 -3.22047e-19)
(2.1078 -1.54463 0)
(4.45579 -2.21314 -1.35799e-18)
(6.92521 -2.80929 2.59517e-18)
(8.614 -3.03706 -3.00143e-18)
(10.456 -3.21659 2.20467e-18)
(11.1825 -3.11921 -6.96984e-18)
(12.0132 -2.96556 1.42102e-17)
(12.2057 -2.75565 -5.40208e-18)
(12.4223 -2.45212 0)
(12.4306 -2.2775 5.44854e-18)
(12.4469 -1.98648 -4.58121e-18)
(12.4494 -1.84536 -9.86322e-18)
(12.4495 -1.5896 9.59023e-18)
(12.4739 -1.48052 0)
(12.4989 -1.26148 5.68924e-19)
(12.504 -1.16747 0)
(12.5101 -0.973832 0)
(12.5058 -0.897753 3.94521e-18)
(12.4985 -0.735287 -4.35342e-18)
(12.3167 -0.796969 0)
(12.1377 -0.815667 0)
(11.9699 -0.810704 -5.73912e-18)
(11.8163 -0.791288 -2.62205e-18)
(11.6763 -0.760864 -4.61242e-18)
(11.5518 -0.723962 -2.2984e-19)
(11.4433 -0.689389 -2.12488e-18)
(11.3493 -0.66369 -1.70393e-18)
(11.2554 -0.645781 1.70145e-18)
(11.1341 -0.599447 0)
(10.9527 -0.527953 0)
(10.6879 -0.356921 2.35895e-18)
(10.3429 -0.238889 -3.68907e-18)
(9.9822 0.03453 -3.66115e-18)
(9.61177 -0.00661539 -2.53295e-18)
(8.73692 0.426328 1.52672e-19)
(12.4929 -0.669973 -8.81974e-18)
(12.3357 -0.698469 0)
(12.1834 -0.717975 0)
(12.0358 -0.722898 -1.03579e-17)
(11.8951 -0.713294 -3.24982e-18)
(11.7619 -0.691721 -5.79003e-18)
(11.6416 -0.660072 2.45095e-18)
(11.5376 -0.623378 -2.44566e-18)
(11.4469 -0.590353 2.0224e-18)
(11.3624 -0.572145 -2.01756e-18)
(11.269 -0.546589 -3.65949e-18)
(11.1459 -0.526363 0)
(10.9502 -0.410587 -2.49241e-18)
(10.6615 -0.328075 2.66483e-18)
(10.2347 -0.0318992 1.88137e-18)
(9.78784 -0.0863667 -2.13853e-18)
(8.75238 0.34071 0)
(12.4753 -0.520009 1.88432e-17)
(12.3475 -0.590221 4.22455e-18)
(12.2174 -0.623111 0)
(12.0867 -0.637648 7.4001e-18)
(11.9583 -0.638513 0)
(11.8341 -0.62837 6.17235e-18)
(11.7203 -0.605505 -2.8009e-18)
(11.6235 -0.574129 2.79171e-18)
(11.5383 -0.53997 0)
(11.4575 -0.513045 2.1638e-18)
(11.3721 -0.480671 -2.48377e-19)
(11.2732 -0.461105 1.80615e-19)
(11.128 -0.379328 2.58386e-18)
(10.9021 -0.330993 -4.33475e-18)
(10.484 -0.0634131 7.15745e-19)
(9.92227 -0.118469 2.53832e-18)
(8.7884 0.353725 -2.84212e-19)
(12.4616 -0.466774 -4.73315e-18)
(12.3482 -0.50147 -9.40688e-18)
(12.2405 -0.531049 -8.86526e-18)
(12.1286 -0.552009 -8.32689e-18)
(12.0141 -0.561183 3.70083e-18)
(11.9014 -0.559861 -1.09416e-17)
(11.7968 -0.545508 -3.18212e-18)
(11.7075 -0.521627 3.16752e-18)
(11.628 -0.490243 0)
(11.5519 -0.462008 0)
(11.4758 -0.430582 -7.44442e-18)
(11.3977 -0.412115 4.47884e-18)
(11.2982 -0.35314 -2.13855e-18)
(11.1389 -0.326561 0)
(10.7706 -0.0966651 0)
(10.1087 -0.140084 0)
(8.86766 0.335881 -2.96172e-18)
(12.4341 -0.333218 2.11926e-17)
(12.346 -0.402655 4.91769e-18)
(12.257 -0.444289 4.64091e-18)
(12.1615 -0.46927 8.93672e-18)
(12.0606 -0.484398 0)
(11.9606 -0.490026 1.58204e-17)
(11.8677 -0.485151 0)
(11.7866 -0.469829 -7.10469e-18)
(11.7133 -0.443643 3.15081e-18)
(11.6419 -0.415419 -1.2373e-17)
(11.5712 -0.382465 8.34753e-18)
(11.504 -0.361058 5.54231e-18)
(11.4319 -0.310687 0)
(11.3284 -0.30344 1.08999e-18)
(11.0406 -0.117216 -1.08427e-18)
(10.3261 -0.156879 -2.28924e-19)
(8.98441 0.320234 -3.74408e-19)
(12.4145 -0.290003 -1.1364e-17)
(12.3345 -0.328402 0)
(12.261 -0.36181 -5.04542e-18)
(12.1829 -0.388711 5.0065e-18)
(12.0976 -0.408423 0)
(12.0121 -0.419535 -8.63267e-18)
(11.9325 -0.422563 4.02642e-18)
(11.8595 -0.415019 7.38634e-18)
(11.792 -0.396882 -3.76474e-18)
(11.7263 -0.372736 3.32465e-18)
(11.6621 -0.342487 3.35184e-18)
(11.6029 -0.318291 -4.38838e-18)
(11.5457 -0.2731 -1.48188e-18)
(11.479 -0.266078 0)
(11.2646 -0.131469 0)
(10.5655 -0.164528 2.81066e-19)
(9.14154 0.284966 3.64154e-18)
(12.3777 -0.171794 6.04408e-18)
(12.3189 -0.239646 5.69199e-18)
(12.2577 -0.282896 -5.4397e-18)
(12.193 -0.312977 1.0602e-17)
(12.124 -0.334918 -5.05038e-18)
(12.0551 -0.350105 4.78623e-18)
(11.9895 -0.358099 -4.52202e-18)
(11.9254 -0.357838 4.61707e-18)
(11.863 -0.348425 8.24453e-18)
(11.8032 -0.330165 -3.99581e-18)
(11.7457 -0.305007 -3.63661e-18)
(11.6928 -0.279971 7.24595e-18)
(11.6448 -0.2433 3.46449e-18)
(11.5977 -0.229031 1.75986e-18)
(11.4294 -0.133426 5.35566e-18)
(10.8072 -0.15999 1.92047e-18)
(9.33975 0.245328 3.09071e-18)
(12.3523 -0.136951 -1.27713e-17)
(12.2951 -0.176078 6.08299e-18)
(12.2439 -0.211357 -5.84328e-18)
(12.1913 -0.24111 5.77343e-18)
(12.1388 -0.264881 -1.097e-17)
(12.0876 -0.282455 1.04298e-17)
(12.0364 -0.293639 -5.1557e-18)
(11.9823 -0.299201 -4.75502e-18)
(11.9259 -0.296946 0)
(11.8719 -0.286619 4.46765e-18)
(11.8214 -0.267808 0)
(11.7743 -0.245348 2.34596e-19)
(11.7331 -0.216161 2.58084e-19)
(11.6955 -0.196622 2.75464e-19)
(11.5613 -0.126614 -2.43497e-18)
(11.0328 -0.143521 -5.25698e-19)
(9.56881 0.200596 -2.89493e-18)
(12.3078 -0.0327468 0)
(12.267 -0.0981218 -1.38986e-19)
(12.2243 -0.142197 6.24225e-18)
(12.1817 -0.173988 -1.21077e-17)
(12.1425 -0.199091 1.77531e-17)
(12.107 -0.218122 -5.64563e-18)
(12.0696 -0.231292 5.48776e-18)
(12.0268 -0.239827 -5.25664e-18)
(11.9795 -0.243175 5.131e-18)
(11.932 -0.240806 -4.75881e-18)
(11.888 -0.228956 0)
(11.8469 -0.212053 -8.91516e-18)
(11.8116 -0.188208 -4.15936e-18)
(11.7806 -0.167178 -3.97373e-18)
(11.6734 -0.115374 9.70739e-19)
(11.2263 -0.116823 -4.12792e-18)
(9.81412 0.152454 -4.59361e-19)
(12.2786 -0.00643218 1.43994e-17)
(12.2343 -0.0464922 -2.08396e-17)
(12.1976 -0.0812363 6.61369e-18)
(12.1652 -0.111082 6.54746e-18)
(12.1378 -0.13693 -1.25926e-17)
(12.1128 -0.157934 6.15447e-18)
(12.0858 -0.172605 5.91118e-18)
(12.0545 -0.183031 -5.69597e-18)
(12.0191 -0.188691 -5.47403e-18)
(11.9814 -0.191944 0)
(11.9443 -0.187064 2.5357e-18)
(11.9094 -0.178516 2.33965e-18)
(11.8801 -0.160325 -2.4933e-18)
(11.855 -0.142256 -1.18465e-18)
(11.7687 -0.104597 -1.11765e-18)
(11.3817 -0.0907104 -4.91994e-18)
(10.0578 0.102459 5.21111e-19)
(12.2271 0.0829362 -7.46648e-18)
(12.198 0.0204193 -7.28628e-18)
(12.1695 -0.0213668 -4.60929e-20)
(12.1459 -0.0522083 0)
(12.1269 -0.0786842 0)
(12.1082 -0.100558 -6.4566e-18)
(12.087 -0.118016 6.33314e-18)
(12.0638 -0.13064 0)
(12.0395 -0.137248 0)
(12.0138 -0.1429 0)
(11.9866 -0.141779 0)
(11.9594 -0.143186 -5.43076e-18)
(11.9361 -0.13025 7.7029e-18)
(11.916 -0.119338 -3.79045e-18)
(11.8465 -0.0927957 1.22966e-18)
(11.5071 -0.069534 4.61039e-18)
(10.2823 0.0569349 0)
(12.193 0.101075 4.20507e-18)
(12.1588 0.0607482 0)
(12.1376 0.0288306 -3.69672e-18)
(12.1236 0.00113817 3.66449e-18)
(12.1109 -0.0246744 -7.09014e-18)
(12.0958 -0.0476787 -3.39048e-18)
(12.0784 -0.0663739 -3.29585e-18)
(12.0602 -0.0808305 -3.20587e-18)
(12.0428 -0.0912072 8.36973e-21)
(12.0257 -0.0998141 -3.06046e-18)
(12.0087 -0.0997191 -5.94008e-18)
(11.9912 -0.104618 5.72351e-18)
(11.976 -0.0946296 -2.81746e-18)
(11.9605 -0.0974124 -2.73553e-18)
(11.9055 -0.0776324 -2.66656e-18)
(11.6045 -0.0536819 -2.59745e-18)
(10.4754 0.0202168 -2.54938e-18)
(12.1339 0.17573 8.49758e-18)
(12.1166 0.116422 -8.04731e-18)
(12.105 0.0783727 4.00804e-18)
(12.0976 0.0504108 3.88292e-18)
(12.0888 0.024699 6.20913e-20)
(12.0767 0.00131114 4.46508e-20)
(12.0629 -0.0186013 7.00969e-18)
(12.0492 -0.0356172 6.07527e-20)
(12.0363 -0.0484363 3.30991e-18)
(12.024 -0.0601871 6.4077e-18)
(12.0127 -0.0634962 3.30188e-21)
(12.0026 -0.0731881 3.03657e-18)
(11.996 -0.0626409 -2.94504e-18)
(11.9858 -0.0759085 -1.44699e-18)
(11.9446 -0.0557486 4.19683e-18)
(11.6739 -0.0447042 2.71094e-18)
(10.631 -0.00581747 2.65482e-18)
(12.0952 0.186447 -8.73483e-18)
(12.0739 0.14735 8.58551e-18)
(12.0681 0.118555 0)
(12.065 0.0930985 3.96825e-18)
(12.0584 0.0676241 -3.72406e-18)
(12.0492 0.0437459 0)
(12.0396 0.0230074 -3.5577e-18)
(12.0305 0.00478555 3.54968e-18)
(12.0217 -0.00970896 -3.41132e-18)
(12.0135 -0.0243804 3.32319e-18)
(12.0063 -0.0303968 3.23155e-18)
(12.0006 -0.0462215 -3.15184e-18)
(12.0005 -0.0383627 3.08212e-18)
(11.996 -0.0614022 4.50194e-18)
(11.9649 -0.0347511 -1.46401e-18)
(11.7174 -0.0420551 0)
(10.7493 -0.0196281 0)
(12.0322 0.248179 4.67654e-18)
(12.0292 0.193667 0)
(12.0287 0.159182 0)
(12.0259 0.132666 0)
(12.02 0.106481 4.02143e-18)
(12.0131 0.0818015 3.8218e-18)
(12.0068 0.0600552 3.76459e-18)
(12.001 0.040333 -3.59236e-18)
(11.9956 0.0237789 -3.49007e-18)
(11.9909 0.00641055 3.39108e-18)
(11.9871 -0.00165076 1.65202e-18)
(11.9855 -0.0222955 -1.60754e-18)
(11.986 -0.013711 0)
(11.9869 -0.0467711 -1.53345e-18)
(11.9674 -0.0163763 1.49529e-18)
(11.7351 -0.0430675 0)
(10.8336 -0.0188932 0)
(11.992 0.253959 0)
(11.9837 0.218663 4.49654e-18)
(11.9824 0.1919 -2.21647e-18)
(11.9789 0.166711 0)
(11.9735 0.14093 0)
(11.9682 0.116355 0)
(11.9637 0.0942248 -3.73477e-18)
(11.9599 0.0737799 3.6124e-18)
(11.9565 0.0554261 1.70688e-18)
(11.9541 0.0363774 -1.70374e-18)
(11.9524 0.0252564 3.31023e-18)
(11.9536 0.000968737 -1.60917e-18)
(11.9566 0.00892492 0)
(11.9604 -0.0351575 7.6813e-19)
(11.9502 0.00420531 7.11627e-19)
(11.7274 -0.0514765 -3.68024e-19)
(10.8867 -0.0140614 3.60117e-19)
(11.929 0.307737 2.31824e-18)
(11.9337 0.258617 6.0704e-20)
(11.9312 0.226621 -2.2854e-18)
(11.9258 0.200454 2.07666e-18)
(11.9203 0.174776 -5.93947e-20)
(11.9153 0.149588 -3.77884e-18)
(11.9111 0.126231 3.64013e-18)
(11.9077 0.104667 0)
(11.9051 0.0844524 -3.50318e-18)
(11.9036 0.0643726 -3.96327e-21)
(11.903 0.0502513 1.62293e-18)
(11.9055 0.0243313 0)
(11.9091 0.0293363 0)
(11.9142 -0.0232367 0)
(11.8895 0.0256517 -1.13275e-18)
(11.6971 -0.062114 -5.3633e-19)
(10.9076 0.00304099 1.75615e-19)
(11.8836 0.313447 -1.29741e-18)
(11.8779 0.279604 2.31572e-18)
(11.8716 0.255817 -2.20485e-18)
(11.8656 0.230567 -2.04196e-18)
(11.8599 0.205764 -2.01156e-18)
(11.8547 0.181042 3.80535e-18)
(11.8499 0.157439 -5.81687e-20)
(11.8457 0.134178 -3.46035e-18)
(11.8423 0.111722 1.66758e-18)
(11.8401 0.0909126 -8.05853e-19)
(11.8392 0.0738786 7.78796e-19)
(11.8417 0.0475543 -1.48157e-18)
(11.845 0.0485477 7.33318e-19)
(11.8498 -0.00746843 -3.26054e-19)