/*--------------------------------*- C++ -*----------------------------------*\
  =========                 |
  \\      /  F ield         | OpenFOAM: The Open Source CFD Toolbox
   \\    /   O peration     | Website:  https://openfoam.org
    \\  /    A nd           | Version:  6
     \\/     M anipulation  |
\*---------------------------------------------------------------------------*/
FoamFile
{
    version     2.0;
    format      ascii;
    class       volVectorField;
    location    "3.8";
    object      U;
}
// * * * * * * * * * * * * * * * * * * * * * * * * * * * * * * * * * * * * * //

dimensions      [0 1 -1 0 0 0 0];

internalField   nonuniform List<vector> 
10000
(
(0.8944 0.4472 0)
(0.8944 0.4472 0)
(0.8944 0.4472 0)
(0.8944 0.4472 0)
(0.8944 0.4472 0)
(0.8944 0.4472 0)
(0.8944 0.4472 0)
(0.8944 0.4472 0)
(0.8944 0.4472 0)
(0.8944 0.4472 0)
(0.8944 0.4472 0)
(0.8944 0.4472 0)
(0.8944 0.4472 0)
(0.8944 0.4472 0)
(0.8944 0.4472 0)
(0.8944 0.4472 0)
(0.8944 0.4472 0)
(0.8944 0.4472 0)
(0.8944 0.4472 0)
(0.8944 0.4472 0)
(0.8944 0.4472 0)
(0.8944 0.4472 0)
(0.8944 0.4472 0)
(0.8944 0.4472 0)
(0.8944 0.4472 0)
(0.8944 0.4472 0)
(0.8944 0.4472 0)
(0.8944 0.4472 0)
(0.8944 0.4472 0)
(0.8944 0.4472 0)
(0.8944 0.4472 0)
(0.8944 0.4472 0)
(0.8944 0.4472 0)
(0.8944 0.4472 0)
(0.8944 0.4472 0)
(0.8944 0.4472 0)
(0.8944 0.4472 0)
(0.8944 0.4472 0)
(0.8944 0.4472 0)
(0.8944 0.447201 0)
(0.894399 0.447201 0)
(0.8944 0.447201 0)
(0.894399 0.447202 0)
(0.8944 0.447202 0)
(0.894401 0.447202 0)
(0.894403 0.447202 0)
(0.894405 0.4472 0)
(0.894409 0.447198 0)
(0.894414 0.447193 0)
(0.894421 0.447186 0)
(0.894428 0.447177 0)
(0.894436 0.447165 0)
(0.894442 0.447151 0)
(0.894446 0.447136 0)
(0.894446 0.447124 0)
(0.894441 0.447115 0)
(0.894429 0.447114 0)
(0.894412 0.447122 0)
(0.894389 0.447142 0)
(0.894363 0.447174 0)
(0.894335 0.447218 0)
(0.894309 0.447273 0)
(0.894287 0.447336 0)
(0.894271 0.447404 0)
(0.894263 0.447471 0)
(0.894264 0.447534 0)
(0.894274 0.447588 0)
(0.894292 0.447631 0)
(0.894317 0.447658 0)
(0.894345 0.44767 0)
(0.894375 0.447667 0)
(0.894405 0.44765 0)
(0.894431 0.447621 0)
(0.894453 0.447584 0)
(0.894468 0.44754 0)
(0.894478 0.447493 0)
(0.894482 0.447446 0)
(0.894481 0.447401 0)
(0.894476 0.447359 0)
(0.894468 0.447322 0)
(0.894458 0.447291 0)
(0.894448 0.447265 0)
(0.894438 0.447245 0)
(0.894428 0.44723 0)
(0.894421 0.447219 0)
(0.894414 0.447211 0)
(0.89441 0.447206 0)
(0.894406 0.447202 0)
(0.894403 0.447201 0)
(0.894402 0.4472 0)
(0.894401 0.447199 0)
(0.8944 0.447199 0)
(0.8944 0.447199 0)
(0.8944 0.447199 0)
(0.8944 0.4472 0)
(0.8944 0.4472 0)
(0.8944 0.4472 0)
(0.8944 0.4472 0)
(0.8944 0.4472 0)
(0.8944 0.4472 0)
(0.8944 0.4472 0)
(0.8944 0.4472 0)
(0.8944 0.4472 0)
(0.8944 0.4472 0)
(0.8944 0.4472 0)
(0.8944 0.4472 0)
(0.8944 0.4472 0)
(0.8944 0.4472 0)
(0.8944 0.4472 0)
(0.8944 0.4472 0)
(0.8944 0.4472 0)
(0.8944 0.4472 0)
(0.8944 0.4472 0)
(0.8944 0.4472 0)
(0.8944 0.4472 0)
(0.8944 0.4472 0)
(0.8944 0.4472 0)
(0.8944 0.4472 0)
(0.8944 0.4472 0)
(0.8944 0.4472 0)
(0.8944 0.4472 0)
(0.8944 0.4472 0)
(0.8944 0.4472 0)
(0.8944 0.4472 0)
(0.8944 0.4472 0)
(0.8944 0.4472 0)
(0.8944 0.4472 0)
(0.8944 0.4472 0)
(0.8944 0.4472 0)
(0.8944 0.4472 0)
(0.8944 0.4472 0)
(0.8944 0.4472 0)
(0.8944 0.4472 0)
(0.8944 0.4472 0)
(0.8944 0.4472 0)
(0.8944 0.4472 0)
(0.8944 0.4472 0)
(0.8944 0.4472 0)
(0.8944 0.4472 0)
(0.894399 0.447201 0)
(0.894399 0.447201 0)
(0.894399 0.447202 0)
(0.894399 0.447202 0)
(0.894399 0.447203 0)
(0.894401 0.447204 0)
(0.894403 0.447203 0)
(0.894407 0.447202 0)
(0.894412 0.447199 0)
(0.894419 0.447193 0)
(0.894428 0.447185 0)
(0.894437 0.447174 0)
(0.894447 0.44716 0)
(0.894453 0.447145 0)
(0.894456 0.447131 0)
(0.894453 0.447122 0)
(0.894442 0.447121 0)
(0.894423 0.447132 0)
(0.894396 0.447157 0)
(0.894363 0.4472 0)
(0.894326 0.44726 0)
(0.894288 0.447336 0)
(0.894254 0.447425 0)
(0.894226 0.447523 0)
(0.894209 0.447624 0)
(0.894204 0.44772 0)
(0.894212 0.447806 0)
(0.894232 0.447875 0)
(0.894263 0.447925 0)
(0.894301 0.447951 0)
(0.894344 0.447954 0)
(0.894387 0.447934 0)
(0.894428 0.447894 0)
(0.894463 0.447839 0)
(0.894491 0.447772 0)
(0.89451 0.4477 0)
(0.894521 0.447625 0)
(0.894524 0.447552 0)
(0.89452 0.447484 0)
(0.894511 0.447423 0)
(0.894498 0.447369 0)
(0.894483 0.447325 0)
(0.894468 0.447288 0)
(0.894453 0.44726 0)
(0.89444 0.447239 0)
(0.894429 0.447224 0)
(0.89442 0.447213 0)
(0.894413 0.447206 0)
(0.894408 0.447202 0)
(0.894405 0.4472 0)
(0.894402 0.447199 0)
(0.894401 0.447199 0)
(0.8944 0.447199 0)
(0.8944 0.447199 0)
(0.8944 0.447199 0)
(0.8944 0.447199 0)
(0.8944 0.4472 0)
(0.8944 0.4472 0)
(0.8944 0.4472 0)
(0.8944 0.4472 0)
(0.8944 0.4472 0)
(0.8944 0.4472 0)
(0.8944 0.4472 0)
(0.8944 0.4472 0)
(0.8944 0.4472 0)
(0.8944 0.4472 0)
(0.8944 0.4472 0)
(0.8944 0.4472 0)
(0.8944 0.4472 0)
(0.8944 0.4472 0)
(0.8944 0.4472 0)
(0.8944 0.4472 0)
(0.8944 0.4472 0)
(0.8944 0.4472 0)
(0.8944 0.4472 0)
(0.8944 0.4472 0)
(0.8944 0.4472 0)
(0.8944 0.4472 0)
(0.8944 0.4472 0)
(0.8944 0.4472 0)
(0.8944 0.4472 0)
(0.8944 0.4472 0)
(0.8944 0.4472 0)
(0.8944 0.4472 0)
(0.8944 0.4472 0)
(0.8944 0.4472 0)
(0.8944 0.4472 0)
(0.8944 0.4472 0)
(0.8944 0.4472 0)
(0.8944 0.4472 0)
(0.8944 0.4472 0)
(0.8944 0.4472 0)
(0.8944 0.4472 0)
(0.8944 0.4472 0)
(0.8944 0.4472 0)
(0.8944 0.4472 0)
(0.8944 0.4472 0)
(0.8944 0.4472 0)
(0.8944 0.4472 0)
(0.8944 0.447201 0)
(0.894399 0.447201 0)
(0.894399 0.447202 0)
(0.894399 0.447203 0)
(0.894399 0.447204 0)
(0.894399 0.447205 0)
(0.8944 0.447206 0)
(0.894404 0.447206 0)
(0.894408 0.447205 0)
(0.894415 0.447201 0)
(0.894425 0.447195 0)
(0.894436 0.447185 0)
(0.894447 0.447173 0)
(0.894457 0.447159 0)
(0.894464 0.447146 0)
(0.894463 0.447137 0)
(0.894454 0.447137 0)
(0.894434 0.447152 0)
(0.894402 0.447186 0)
(0.89436 0.447243 0)
(0.894311 0.447325 0)
(0.894259 0.447431 0)
(0.894209 0.447558 0)
(0.894166 0.447701 0)
(0.894135 0.447851 0)
(0.894119 0.447999 0)
(0.894122 0.448137 0)
(0.894143 0.448253 0)
(0.89418 0.448342 0)
(0.894231 0.448398 0)
(0.894291 0.448417 0)
(0.894355 0.448399 0)
(0.894417 0.448349 0)
(0.894473 0.448271 0)
(0.89452 0.448172 0)
(0.894555 0.448059 0)
(0.894577 0.44794 0)
(0.894588 0.447821 0)
(0.894587 0.447708 0)
(0.894578 0.447604 0)
(0.894561 0.447513 0)
(0.894541 0.447435 0)
(0.894518 0.447371 0)
(0.894496 0.44732 0)
(0.894475 0.44728 0)
(0.894456 0.447251 0)
(0.89444 0.44723 0)
(0.894427 0.447216 0)
(0.894418 0.447207 0)
(0.894411 0.447202 0)
(0.894406 0.447199 0)
(0.894403 0.447198 0)
(0.894401 0.447197 0)
(0.8944 0.447198 0)
(0.8944 0.447198 0)
(0.8944 0.447198 0)
(0.8944 0.447199 0)
(0.8944 0.447199 0)
(0.8944 0.4472 0)
(0.8944 0.4472 0)
(0.8944 0.4472 0)
(0.8944 0.4472 0)
(0.8944 0.4472 0)
(0.8944 0.4472 0)
(0.8944 0.4472 0)
(0.8944 0.4472 0)
(0.8944 0.4472 0)
(0.8944 0.4472 0)
(0.8944 0.4472 0)
(0.8944 0.4472 0)
(0.8944 0.4472 0)
(0.8944 0.4472 0)
(0.8944 0.4472 0)
(0.8944 0.4472 0)
(0.8944 0.4472 0)
(0.8944 0.4472 0)
(0.8944 0.4472 0)
(0.8944 0.4472 0)
(0.8944 0.4472 0)
(0.8944 0.4472 0)
(0.8944 0.4472 0)
(0.8944 0.4472 0)
(0.8944 0.4472 0)
(0.8944 0.4472 0)
(0.8944 0.4472 0)
(0.8944 0.4472 0)
(0.8944 0.4472 0)
(0.8944 0.4472 0)
(0.8944 0.4472 0)
(0.8944 0.4472 0)
(0.8944 0.4472 0)
(0.8944 0.4472 0)
(0.8944 0.4472 0)
(0.8944 0.4472 0)
(0.8944 0.4472 0)
(0.8944 0.4472 0)
(0.8944 0.4472 0)
(0.8944 0.4472 0)
(0.8944 0.4472 0)
(0.894399 0.447201 0)
(0.894399 0.447201 0)
(0.894398 0.447202 0)
(0.894398 0.447203 0)
(0.894398 0.447204 0)
(0.894397 0.447206 0)
(0.894398 0.447208 0)
(0.8944 0.447209 0)
(0.894404 0.44721 0)
(0.89441 0.447209 0)
(0.894419 0.447205 0)
(0.894431 0.447199 0)
(0.894444 0.447189 0)
(0.894457 0.447177 0)
(0.894467 0.447166 0)
(0.89447 0.447159 0)
(0.894462 0.447163 0)
(0.894441 0.447183 0)
(0.894405 0.447229 0)
(0.894354 0.447304 0)
(0.89429 0.447414 0)
(0.894219 0.44756 0)
(0.894147 0.447739 0)
(0.894081 0.447944 0)
(0.894029 0.448167 0)
(0.893996 0.448394 0)
(0.893988 0.448611 0)
(0.894006 0.448806 0)
(0.894049 0.448964 0)
(0.894115 0.449077 0)
(0.894198 0.449136 0)
(0.894292 0.44914 0)
(0.894387 0.449089 0)
(0.894477 0.448989 0)
(0.894555 0.448849 0)
(0.894617 0.44868 0)
(0.894661 0.448493 0)
(0.894686 0.448301 0)
(0.894693 0.448114 0)
(0.894685 0.447939 0)
(0.894665 0.447781 0)
(0.894637 0.447645 0)
(0.894604 0.44753 0)
(0.894569 0.447437 0)
(0.894536 0.447364 0)
(0.894505 0.447308 0)
(0.894478 0.447267 0)
(0.894455 0.447238 0)
(0.894437 0.447219 0)
(0.894424 0.447207 0)
(0.894414 0.4472 0)
(0.894408 0.447197 0)
(0.894404 0.447196 0)
(0.894401 0.447195 0)
(0.8944 0.447196 0)
(0.894399 0.447197 0)
(0.894399 0.447198 0)
(0.894399 0.447198 0)
(0.894399 0.447199 0)
(0.894399 0.447199 0)
(0.8944 0.4472 0)
(0.8944 0.4472 0)
(0.8944 0.4472 0)
(0.8944 0.4472 0)
(0.8944 0.4472 0)
(0.8944 0.4472 0)
(0.8944 0.4472 0)
(0.8944 0.4472 0)
(0.8944 0.4472 0)
(0.8944 0.4472 0)
(0.8944 0.4472 0)
(0.8944 0.4472 0)
(0.8944 0.4472 0)
(0.8944 0.4472 0)
(0.8944 0.4472 0)
(0.8944 0.4472 0)
(0.8944 0.4472 0)
(0.8944 0.4472 0)
(0.8944 0.4472 0)
(0.8944 0.4472 0)
(0.8944 0.4472 0)
(0.8944 0.4472 0)
(0.8944 0.4472 0)
(0.8944 0.4472 0)
(0.8944 0.4472 0)
(0.8944 0.4472 0)
(0.8944 0.4472 0)
(0.8944 0.4472 0)
(0.8944 0.4472 0)
(0.8944 0.4472 0)
(0.8944 0.4472 0)
(0.8944 0.4472 0)
(0.8944 0.4472 0)
(0.8944 0.4472 0)
(0.8944 0.4472 0)
(0.8944 0.4472 0)
(0.8944 0.4472 0)
(0.8944 0.4472 0)
(0.8944 0.4472 0)
(0.8944 0.447201 0)
(0.894399 0.447201 0)
(0.894399 0.447202 0)
(0.894398 0.447203 0)
(0.894397 0.447204 0)
(0.894396 0.447206 0)
(0.894396 0.447209 0)
(0.894397 0.447212 0)
(0.894399 0.447214 0)
(0.894404 0.447216 0)
(0.894412 0.447216 0)
(0.894423 0.447213 0)
(0.894437 0.447207 0)
(0.894452 0.447199 0)
(0.894465 0.447191 0)
(0.894471 0.447187 0)
(0.894466 0.447195 0)
(0.894445 0.447223 0)
(0.894404 0.447281 0)
(0.894341 0.447379 0)
(0.89426 0.447524 0)
(0.894165 0.447719 0)
(0.894063 0.447965 0)
(0.893965 0.448254 0)
(0.89388 0.448576 0)
(0.893818 0.448914 0)
(0.893789 0.449251 0)
(0.893796 0.449565 0)
(0.893841 0.449838 0)
(0.893922 0.450053 0)
(0.894034 0.450195 0)
(0.894167 0.450256 0)
(0.89431 0.450234 0)
(0.894453 0.45013 0)
(0.894584 0.449954 0)
(0.894694 0.44972 0)
(0.894777 0.449445 0)
(0.894831 0.449147 0)
(0.894856 0.448844 0)
(0.894855 0.448552 0)
(0.894833 0.448282 0)
(0.894796 0.448043 0)
(0.894748 0.447838 0)
(0.894696 0.447668 0)
(0.894643 0.447532 0)
(0.894592 0.447426 0)
(0.894547 0.447347 0)
(0.894508 0.447289 0)
(0.894476 0.44725 0)
(0.894451 0.447223 0)
(0.894432 0.447207 0)
(0.894419 0.447198 0)
(0.89441 0.447194 0)
(0.894404 0.447193 0)
(0.894401 0.447193 0)
(0.894399 0.447194 0)
(0.894398 0.447195 0)
(0.894398 0.447196 0)
(0.894399 0.447197 0)
(0.894399 0.447198 0)
(0.894399 0.447199 0)
(0.894399 0.447199 0)
(0.8944 0.4472 0)
(0.8944 0.4472 0)
(0.8944 0.4472 0)
(0.8944 0.4472 0)
(0.8944 0.4472 0)
(0.8944 0.4472 0)
(0.8944 0.4472 0)
(0.8944 0.4472 0)
(0.8944 0.4472 0)
(0.8944 0.4472 0)
(0.8944 0.4472 0)
(0.8944 0.4472 0)
(0.8944 0.4472 0)
(0.8944 0.4472 0)
(0.8944 0.4472 0)
(0.8944 0.4472 0)
(0.8944 0.4472 0)
(0.8944 0.4472 0)
(0.8944 0.4472 0)
(0.8944 0.4472 0)
(0.8944 0.4472 0)
(0.8944 0.4472 0)
(0.8944 0.4472 0)
(0.8944 0.4472 0)
(0.8944 0.4472 0)
(0.8944 0.4472 0)
(0.8944 0.4472 0)
(0.8944 0.4472 0)
(0.8944 0.4472 0)
(0.8944 0.4472 0)
(0.8944 0.4472 0)
(0.8944 0.4472 0)
(0.8944 0.4472 0)
(0.8944 0.4472 0)
(0.8944 0.4472 0)
(0.8944 0.4472 0)
(0.8944 0.4472 0)
(0.894399 0.4472 0)
(0.894399 0.447201 0)
(0.894398 0.447201 0)
(0.894398 0.447202 0)
(0.894397 0.447204 0)
(0.894395 0.447206 0)
(0.894394 0.447209 0)
(0.894393 0.447213 0)
(0.894394 0.447217 0)
(0.894397 0.447221 0)
(0.894403 0.447224 0)
(0.894413 0.447225 0)
(0.894426 0.447224 0)
(0.894441 0.447221 0)
(0.894456 0.447218 0)
(0.894466 0.447219 0)
(0.894463 0.447232 0)
(0.894442 0.447268 0)
(0.894397 0.44734 0)
(0.894323 0.447462 0)
(0.89422 0.447645 0)
(0.894094 0.447899 0)
(0.893953 0.448225 0)
(0.893809 0.44862 0)
(0.893677 0.44907 0)
(0.89357 0.449557 0)
(0.893503 0.450058 0)
(0.893484 0.450546 0)
(0.893519 0.450992 0)
(0.893609 0.451369 0)
(0.893749 0.451657 0)
(0.893929 0.451836 0)
(0.894136 0.451897 0)
(0.894355 0.451835 0)
(0.894567 0.451656 0)
(0.894759 0.451372 0)
(0.894915 0.451003 0)
(0.895029 0.450574 0)
(0.895097 0.450114 0)
(0.89512 0.449648 0)
(0.895105 0.449202 0)
(0.89506 0.448792 0)
(0.894994 0.44843 0)
(0.894915 0.448123 0)
(0.894831 0.447871 0)
(0.894749 0.447671 0)
(0.894674 0.447517 0)
(0.894607 0.447403 0)
(0.89455 0.447322 0)
(0.894504 0.447266 0)
(0.894469 0.44723 0)
(0.894443 0.447207 0)
(0.894424 0.447195 0)
(0.894412 0.44719 0)
(0.894404 0.447188 0)
(0.8944 0.447189 0)
(0.894398 0.447191 0)
(0.894397 0.447193 0)
(0.894397 0.447194 0)
(0.894398 0.447196 0)
(0.894398 0.447197 0)
(0.894399 0.447198 0)
(0.894399 0.447199 0)
(0.894399 0.447199 0)
(0.8944 0.4472 0)
(0.8944 0.4472 0)
(0.8944 0.4472 0)
(0.8944 0.4472 0)
(0.8944 0.4472 0)
(0.8944 0.4472 0)
(0.8944 0.4472 0)
(0.8944 0.4472 0)
(0.8944 0.4472 0)
(0.8944 0.4472 0)
(0.8944 0.4472 0)
(0.8944 0.4472 0)
(0.8944 0.4472 0)
(0.8944 0.4472 0)
(0.8944 0.4472 0)
(0.8944 0.4472 0)
(0.8944 0.4472 0)
(0.8944 0.4472 0)
(0.8944 0.4472 0)
(0.8944 0.4472 0)
(0.8944 0.4472 0)
(0.8944 0.4472 0)
(0.8944 0.4472 0)
(0.8944 0.4472 0)
(0.8944 0.4472 0)
(0.8944 0.4472 0)
(0.8944 0.4472 0)
(0.8944 0.4472 0)
(0.8944 0.4472 0)
(0.8944 0.4472 0)
(0.8944 0.4472 0)
(0.8944 0.4472 0)
(0.8944 0.4472 0)
(0.8944 0.4472 0)
(0.8944 0.4472 0)
(0.894399 0.4472 0)
(0.894399 0.447201 0)
(0.894399 0.447201 0)
(0.894398 0.447202 0)
(0.894396 0.447204 0)
(0.894395 0.447206 0)
(0.894393 0.447209 0)
(0.894391 0.447213 0)
(0.89439 0.447219 0)
(0.89439 0.447225 0)
(0.894394 0.447231 0)
(0.8944 0.447236 0)
(0.894412 0.44724 0)
(0.894427 0.447243 0)
(0.894442 0.447245 0)
(0.894454 0.447252 0)
(0.894454 0.447271 0)
(0.894433 0.447315 0)
(0.894384 0.4474 0)
(0.894298 0.447545 0)
(0.894172 0.447768 0)
(0.894008 0.448084 0)
(0.893817 0.448502 0)
(0.893612 0.44902 0)
(0.893412 0.449627 0)
(0.893238 0.450301 0)
(0.893108 0.451015 0)
(0.893039 0.451734 0)
(0.893043 0.452419 0)
(0.893125 0.453034 0)
(0.893284 0.453545 0)
(0.89351 0.453924 0)
(0.89379 0.454149 0)
(0.894105 0.454207 0)
(0.894431 0.454093 0)
(0.894745 0.453814 0)
(0.895025 0.453387 0)
(0.89525 0.452836 0)
(0.895409 0.452199 0)
(0.895498 0.451513 0)
(0.895519 0.450819 0)
(0.895482 0.450152 0)
(0.8954 0.449539 0)
(0.895289 0.449 0)
(0.895162 0.448544 0)
(0.895031 0.448171 0)
(0.894906 0.447876 0)
(0.894791 0.447652 0)
(0.894692 0.447487 0)
(0.89461 0.44737 0)
(0.894545 0.44729 0)
(0.894494 0.447239 0)
(0.894457 0.447208 0)
(0.894432 0.447192 0)
(0.894415 0.447184 0)
(0.894405 0.447183 0)
(0.894399 0.447184 0)
(0.894396 0.447186 0)
(0.894396 0.447189 0)
(0.894396 0.447192 0)
(0.894396 0.447194 0)
(0.894397 0.447196 0)
(0.894398 0.447197 0)
(0.894399 0.447198 0)
(0.894399 0.447199 0)
(0.894399 0.447199 0)
(0.894399 0.4472 0)
(0.8944 0.4472 0)
(0.8944 0.4472 0)
(0.8944 0.4472 0)
(0.8944 0.4472 0)
(0.8944 0.4472 0)
(0.8944 0.4472 0)
(0.8944 0.4472 0)
(0.8944 0.4472 0)
(0.8944 0.4472 0)
(0.8944 0.4472 0)
(0.8944 0.4472 0)
(0.8944 0.4472 0)
(0.8944 0.4472 0)
(0.8944 0.4472 0)
(0.8944 0.4472 0)
(0.8944 0.4472 0)
(0.8944 0.4472 0)
(0.8944 0.4472 0)
(0.8944 0.4472 0)
(0.8944 0.4472 0)
(0.8944 0.4472 0)
(0.8944 0.4472 0)
(0.8944 0.4472 0)
(0.8944 0.4472 0)
(0.8944 0.4472 0)
(0.8944 0.4472 0)
(0.8944 0.4472 0)
(0.8944 0.4472 0)
(0.8944 0.4472 0)
(0.8944 0.4472 0)
(0.8944 0.4472 0)
(0.8944 0.4472 0)
(0.8944 0.4472 0)
(0.894399 0.4472 0)
(0.894399 0.447201 0)
(0.894398 0.447202 0)
(0.894397 0.447203 0)
(0.894395 0.447205 0)
(0.894393 0.447208 0)
(0.89439 0.447213 0)
(0.894387 0.447219 0)
(0.894385 0.447226 0)
(0.894385 0.447235 0)
(0.894388 0.447244 0)
(0.894396 0.447253 0)
(0.894408 0.447261 0)
(0.894422 0.44727 0)
(0.894435 0.447283 0)
(0.894437 0.447308 0)
(0.894418 0.447359 0)
(0.894366 0.447455 0)
(0.894268 0.44762 0)
(0.894117 0.447879 0)
(0.893912 0.448257 0)
(0.89366 0.44877 0)
(0.893378 0.449423 0)
(0.893087 0.450209 0)
(0.892815 0.451105 0)
(0.892591 0.452077 0)
(0.892439 0.453083 0)
(0.892379 0.454074 0)
(0.892423 0.455003 0)
(0.892576 0.455822 0)
(0.892833 0.456492 0)
(0.893181 0.456979 0)
(0.893599 0.457258 0)
(0.894061 0.457314 0)
(0.894538 0.45714 0)
(0.894995 0.456743 0)
(0.895401 0.456141 0)
(0.895728 0.455366 0)
(0.895957 0.454461 0)
(0.89608 0.453481 0)
(0.896101 0.45248 0)
(0.896035 0.451512 0)
(0.895901 0.450618 0)
(0.895725 0.449829 0)
(0.895526 0.449159 0)
(0.895325 0.448611 0)
(0.895134 0.44818 0)
(0.894963 0.447853 0)
(0.894817 0.447612 0)
(0.894696 0.447443 0)
(0.894602 0.447329 0)
(0.89453 0.447256 0)
(0.894478 0.447212 0)
(0.894442 0.447188 0)
(0.894419 0.447178 0)
(0.894405 0.447175 0)
(0.894397 0.447177 0)
(0.894394 0.447181 0)
(0.894393 0.447185 0)
(0.894394 0.447189 0)
(0.894395 0.447192 0)
(0.894396 0.447194 0)
(0.894397 0.447196 0)
(0.894398 0.447198 0)
(0.894399 0.447199 0)
(0.894399 0.447199 0)
(0.894399 0.447199 0)
(0.8944 0.4472 0)
(0.8944 0.4472 0)
(0.8944 0.4472 0)
(0.8944 0.4472 0)
(0.8944 0.4472 0)
(0.8944 0.4472 0)
(0.8944 0.4472 0)
(0.8944 0.4472 0)
(0.8944 0.4472 0)
(0.8944 0.4472 0)
(0.8944 0.4472 0)
(0.8944 0.4472 0)
(0.8944 0.4472 0)
(0.8944 0.4472 0)
(0.8944 0.4472 0)
(0.8944 0.4472 0)
(0.8944 0.4472 0)
(0.8944 0.4472 0)
(0.8944 0.4472 0)
(0.8944 0.4472 0)
(0.8944 0.4472 0)
(0.8944 0.4472 0)
(0.8944 0.4472 0)
(0.8944 0.4472 0)
(0.8944 0.4472 0)
(0.8944 0.4472 0)
(0.8944 0.4472 0)
(0.8944 0.4472 0)
(0.8944 0.4472 0)
(0.8944 0.4472 0)
(0.8944 0.4472 0)
(0.8944 0.4472 0)
(0.8944 0.4472 0)
(0.894399 0.447201 0)
(0.894398 0.447201 0)
(0.894397 0.447203 0)
(0.894395 0.447204 0)
(0.894392 0.447207 0)
(0.894389 0.447211 0)
(0.894385 0.447218 0)
(0.894381 0.447226 0)
(0.894378 0.447236 0)
(0.894377 0.447248 0)
(0.89438 0.447261 0)
(0.894388 0.447275 0)
(0.894399 0.447291 0)
(0.89441 0.44731 0)
(0.894413 0.447341 0)
(0.894396 0.447398 0)
(0.894343 0.447501 0)
(0.894236 0.44768 0)
(0.894062 0.447968 0)
(0.893813 0.4484 0)
(0.893492 0.449004 0)
(0.893116 0.449795 0)
(0.89271 0.45077 0)
(0.892309 0.451911 0)
(0.891952 0.453178 0)
(0.891674 0.454519 0)
(0.891505 0.455875 0)
(0.891469 0.457183 0)
(0.891576 0.458385 0)
(0.891829 0.459429 0)
(0.892218 0.460269 0)
(0.892725 0.460872 0)
(0.893323 0.46121 0)
(0.89398 0.461268 0)
(0.894656 0.461037 0)
(0.895308 0.460519 0)
(0.895892 0.45973 0)
(0.896368 0.458702 0)
(0.896705 0.457486 0)
(0.896889 0.456147 0)
(0.896922 0.454762 0)
(0.896823 0.453404 0)
(0.896622 0.452136 0)
(0.896355 0.451006 0)
(0.896055 0.450041 0)
(0.895752 0.44925 0)
(0.895466 0.448625 0)
(0.895212 0.448149 0)
(0.894996 0.447801 0)
(0.894821 0.447555 0)
(0.894684 0.44739 0)
(0.894581 0.447284 0)
(0.894508 0.447221 0)
(0.894457 0.447186 0)
(0.894425 0.447171 0)
(0.894405 0.447167 0)
(0.894395 0.447169 0)
(0.894391 0.447173 0)
(0.89439 0.447179 0)
(0.89439 0.447184 0)
(0.894392 0.447189 0)
(0.894394 0.447192 0)
(0.894396 0.447195 0)
(0.894397 0.447197 0)
(0.894398 0.447198 0)
(0.894399 0.447199 0)
(0.894399 0.447199 0)
(0.894399 0.447199 0)
(0.8944 0.4472 0)
(0.8944 0.4472 0)
(0.8944 0.4472 0)
(0.8944 0.4472 0)
(0.8944 0.4472 0)
(0.8944 0.4472 0)
(0.8944 0.4472 0)
(0.8944 0.4472 0)
(0.8944 0.4472 0)
(0.8944 0.4472 0)
(0.8944 0.4472 0)
(0.8944 0.4472 0)
(0.8944 0.4472 0)
(0.8944 0.4472 0)
(0.8944 0.4472 0)
(0.8944 0.4472 0)
(0.8944 0.4472 0)
(0.8944 0.4472 0)
(0.8944 0.4472 0)
(0.8944 0.4472 0)
(0.8944 0.4472 0)
(0.8944 0.4472 0)
(0.8944 0.4472 0)
(0.8944 0.4472 0)
(0.8944 0.4472 0)
(0.8944 0.4472 0)
(0.8944 0.4472 0)
(0.8944 0.4472 0)
(0.8944 0.4472 0)
(0.8944 0.4472 0)
(0.8944 0.4472 0)
(0.894399 0.447201 0)
(0.894399 0.447201 0)
(0.894398 0.447202 0)
(0.894396 0.447203 0)
(0.894393 0.447206 0)
(0.894389 0.44721 0)
(0.894385 0.447216 0)
(0.894379 0.447224 0)
(0.894373 0.447235 0)
(0.894368 0.447249 0)
(0.894367 0.447265 0)
(0.894368 0.447284 0)
(0.894374 0.447305 0)
(0.894382 0.447331 0)
(0.894385 0.447368 0)
(0.894368 0.447429 0)
(0.894316 0.447535 0)
(0.894205 0.447721 0)
(0.894012 0.448026 0)
(0.893722 0.448497 0)
(0.893329 0.449177 0)
(0.892847 0.450095 0)
(0.892303 0.451259 0)
(0.89174 0.452653 0)
(0.891206 0.454236 0)
(0.890753 0.455946 0)
(0.890424 0.457707 0)
(0.890253 0.459441 0)
(0.890262 0.461075 0)
(0.890459 0.462545 0)
(0.890842 0.463799 0)
(0.891396 0.464794 0)
(0.892097 0.465502 0)
(0.892914 0.4659 0)
(0.893809 0.465969 0)
(0.894735 0.4657 0)
(0.89564 0.465086 0)
(0.896466 0.464133 0)
(0.897155 0.462865 0)
(0.897661 0.46133 0)
(0.897952 0.459602 0)
(0.898027 0.457772 0)
(0.897904 0.455943 0)
(0.897627 0.454206 0)
(0.897244 0.452635 0)
(0.896808 0.451279 0)
(0.896363 0.450156 0)
(0.895944 0.449263 0)
(0.895571 0.448581 0)
(0.895256 0.44808 0)
(0.895001 0.447725 0)
(0.894803 0.447486 0)
(0.894656 0.447332 0)
(0.894551 0.447239 0)
(0.894479 0.447188 0)
(0.894434 0.447165 0)
(0.894406 0.447157 0)
(0.894392 0.447159 0)
(0.894386 0.447165 0)
(0.894385 0.447172 0)
(0.894386 0.447179 0)
(0.894389 0.447185 0)
(0.894391 0.44719 0)
(0.894394 0.447193 0)
(0.894396 0.447195 0)
(0.894397 0.447197 0)
(0.894398 0.447198 0)
(0.894398 0.447199 0)
(0.894399 0.447199 0)
(0.894399 0.4472 0)
(0.8944 0.4472 0)
(0.8944 0.4472 0)
(0.8944 0.4472 0)
(0.8944 0.4472 0)
(0.8944 0.4472 0)
(0.8944 0.4472 0)
(0.8944 0.4472 0)
(0.8944 0.4472 0)
(0.8944 0.4472 0)
(0.8944 0.4472 0)
(0.8944 0.4472 0)
(0.8944 0.4472 0)
(0.8944 0.4472 0)
(0.8944 0.4472 0)
(0.8944 0.4472 0)
(0.8944 0.4472 0)
(0.8944 0.4472 0)
(0.8944 0.4472 0)
(0.8944 0.4472 0)
(0.8944 0.4472 0)
(0.8944 0.4472 0)
(0.8944 0.4472 0)
(0.8944 0.4472 0)
(0.8944 0.4472 0)
(0.8944 0.4472 0)
(0.8944 0.4472 0)
(0.8944 0.4472 0)
(0.8944 0.4472 0)
(0.8944 0.4472 0)
(0.894399 0.4472 0)
(0.894399 0.447201 0)
(0.894398 0.447201 0)
(0.894396 0.447202 0)
(0.894394 0.447205 0)
(0.89439 0.447208 0)
(0.894385 0.447213 0)
(0.894379 0.447221 0)
(0.89437 0.447232 0)
(0.894362 0.447246 0)
(0.894355 0.447265 0)
(0.894351 0.447286 0)
(0.89435 0.447313 0)
(0.894353 0.447344 0)
(0.894352 0.447386 0)
(0.894337 0.447449 0)
(0.894286 0.447556 0)
(0.894176 0.44774 0)
(0.893972 0.448048 0)
(0.893649 0.448539 0)
(0.893189 0.44927 0)
(0.892595 0.45029 0)
(0.891896 0.451625 0)
(0.891139 0.453265 0)
(0.890388 0.455166 0)
(0.889708 0.457256 0)
(0.889161 0.459441 0)
(0.888797 0.461621 0)
(0.888648 0.463703 0)
(0.888729 0.465609 0)
(0.889042 0.467279 0)
(0.889578 0.468674 0)
(0.890316 0.469767 0)
(0.891232 0.470543 0)
(0.892292 0.470986 0)
(0.893456 0.471083 0)
(0.894676 0.470819 0)
(0.895892 0.470175 0)
(0.897032 0.469138 0)
(0.898019 0.467708 0)
(0.898778 0.465916 0)
(0.899256 0.463828 0)
(0.899432 0.461548 0)
(0.899321 0.459203 0)
(0.898974 0.45692 0)
(0.898459 0.454814 0)
(0.897852 0.452962 0)
(0.897221 0.451408 0)
(0.89662 0.45016 0)
(0.896082 0.449197 0)
(0.895627 0.448484 0)
(0.89526 0.447978 0)
(0.894975 0.447633 0)
(0.894764 0.44741 0)
(0.894614 0.447274 0)
(0.894513 0.447198 0)
(0.894448 0.447161 0)
(0.894409 0.447148 0)
(0.894389 0.447148 0)
(0.894381 0.447155 0)
(0.894379 0.447164 0)
(0.894381 0.447172 0)
(0.894384 0.44718 0)
(0.894388 0.447186 0)
(0.894391 0.447191 0)
(0.894394 0.447194 0)
(0.894396 0.447196 0)
(0.894397 0.447198 0)
(0.894398 0.447198 0)
(0.894399 0.447199 0)
(0.894399 0.447199 0)
(0.8944 0.4472 0)
(0.8944 0.4472 0)
(0.8944 0.4472 0)
(0.8944 0.4472 0)
(0.8944 0.4472 0)
(0.8944 0.4472 0)
(0.8944 0.4472 0)
(0.8944 0.4472 0)
(0.8944 0.4472 0)
(0.8944 0.4472 0)
(0.8944 0.4472 0)
(0.8944 0.4472 0)
(0.8944 0.4472 0)
(0.8944 0.4472 0)
(0.8944 0.4472 0)
(0.8944 0.4472 0)
(0.8944 0.4472 0)
(0.8944 0.4472 0)
(0.8944 0.4472 0)
(0.8944 0.4472 0)
(0.8944 0.4472 0)
(0.8944 0.4472 0)
(0.8944 0.4472 0)
(0.8944 0.4472 0)
(0.8944 0.4472 0)
(0.8944 0.4472 0)
(0.8944 0.4472 0)
(0.8944 0.4472 0)
(0.894399 0.4472 0)
(0.894399 0.447201 0)
(0.894399 0.447201 0)
(0.894397 0.447202 0)
(0.894395 0.447203 0)
(0.894392 0.447206 0)
(0.894387 0.44721 0)
(0.89438 0.447217 0)
(0.894371 0.447227 0)
(0.894359 0.447241 0)
(0.894348 0.44726 0)
(0.894338 0.447284 0)
(0.89433 0.447313 0)
(0.894325 0.447348 0)
(0.894319 0.447394 0)
(0.894302 0.447459 0)
(0.894256 0.447563 0)
(0.894149 0.447739 0)
(0.893945 0.448037 0)
(0.893602 0.448523 0)
(0.893087 0.449273 0)
(0.892389 0.450359 0)
(0.891528 0.451826 0)
(0.890555 0.453683 0)
(0.889547 0.455885 0)
(0.888591 0.458348 0)
(0.88777 0.460953 0)
(0.887154 0.46357 0)
(0.886787 0.46608 0)
(0.886692 0.468384 0)
(0.886871 0.470413 0)
(0.887313 0.472132 0)
(0.888003 0.473532 0)
(0.88892 0.474613 0)
(0.89004 0.475385 0)
(0.891336 0.475848 0)
(0.892774 0.475995 0)
(0.894309 0.475806 0)
(0.895881 0.475246 0)
(0.897409 0.47427 0)
(0.898792 0.472843 0)
(0.899922 0.470953 0)
(0.900706 0.468639 0)
(0.901089 0.465995 0)
(0.901069 0.463164 0)
(0.900695 0.460314 0)
(0.900054 0.457606 0)
(0.899253 0.455169 0)
(0.898392 0.453083 0)
(0.897555 0.451381 0)
(0.896798 0.450051 0)
(0.896152 0.449056 0)
(0.895628 0.448343 0)
(0.895222 0.447853 0)
(0.894921 0.447532 0)
(0.894708 0.447335 0)
(0.894563 0.447222 0)
(0.894471 0.447164 0)
(0.894416 0.447141 0)
(0.894387 0.447137 0)
(0.894374 0.447144 0)
(0.894372 0.447154 0)
(0.894374 0.447165 0)
(0.894378 0.447174 0)
(0.894383 0.447182 0)
(0.894388 0.447188 0)
(0.894391 0.447192 0)
(0.894394 0.447195 0)
(0.894396 0.447197 0)
(0.894397 0.447198 0)
(0.894398 0.447199 0)
(0.894399 0.447199 0)
(0.894399 0.4472 0)
(0.8944 0.4472 0)
(0.8944 0.4472 0)
(0.8944 0.4472 0)
(0.8944 0.4472 0)
(0.8944 0.4472 0)
(0.8944 0.4472 0)
(0.8944 0.4472 0)
(0.8944 0.4472 0)
(0.8944 0.4472 0)
(0.8944 0.4472 0)
(0.8944 0.4472 0)
(0.8944 0.4472 0)
(0.8944 0.4472 0)
(0.8944 0.4472 0)
(0.8944 0.4472 0)
(0.8944 0.4472 0)
(0.8944 0.4472 0)
(0.8944 0.4472 0)
(0.8944 0.4472 0)
(0.8944 0.4472 0)
(0.8944 0.4472 0)
(0.8944 0.4472 0)
(0.8944 0.4472 0)
(0.8944 0.4472 0)
(0.8944 0.4472 0)
(0.8944 0.4472 0)
(0.8944 0.4472 0)
(0.894399 0.4472 0)
(0.894399 0.447201 0)
(0.894398 0.447201 0)
(0.894396 0.447202 0)
(0.894393 0.447204 0)
(0.894389 0.447208 0)
(0.894382 0.447213 0)
(0.894373 0.447222 0)
(0.89436 0.447234 0)
(0.894346 0.447253 0)
(0.89433 0.447276 0)
(0.894316 0.447307 0)
(0.894302 0.447345 0)
(0.89429 0.447393 0)
(0.894269 0.447458 0)
(0.894225 0.447557 0)
(0.894126 0.44772 0)
(0.89393 0.447996 0)
(0.893584 0.448456 0)
(0.893037 0.44919 0)
(0.892255 0.450293 0)
(0.89124 0.45184 0)
(0.890042 0.453862 0)
(0.888748 0.456324 0)
(0.88747 0.459131 0)
(0.886322 0.462133 0)
(0.885399 0.465161 0)
(0.884762 0.468052 0)
(0.884441 0.470677 0)
(0.884433 0.472955 0)
(0.884719 0.474853 0)
(0.885274 0.476383 0)
(0.886078 0.477583 0)
(0.887118 0.4785 0)
(0.888382 0.479173 0)
(0.88986 0.479623 0)
(0.891534 0.47985 0)
(0.893372 0.479827 0)
(0.895321 0.479502 0)
(0.8973 0.478796 0)
(0.899185 0.477619 0)
(0.900831 0.4759 0)
(0.902089 0.473616 0)
(0.902847 0.470824 0)
(0.903061 0.467657 0)
(0.902761 0.464314 0)
(0.902047 0.461009 0)
(0.901058 0.457937 0)
(0.899938 0.455238 0)
(0.898813 0.452987 0)
(0.897775 0.451199 0)
(0.896877 0.449841 0)
(0.896143 0.448855 0)
(0.895572 0.44817 0)
(0.895146 0.447716 0)
(0.894844 0.447432 0)
(0.894639 0.447266 0)
(0.894508 0.447178 0)
(0.894429 0.447138 0)
(0.894387 0.447128 0)
(0.894368 0.447132 0)
(0.894363 0.447143 0)
(0.894366 0.447156 0)
(0.894371 0.447168 0)
(0.894378 0.447177 0)
(0.894384 0.447184 0)
(0.894388 0.44719 0)
(0.894392 0.447193 0)
(0.894395 0.447196 0)
(0.894396 0.447197 0)
(0.894397 0.447198 0)
(0.894398 0.447199 0)
(0.894399 0.447199 0)
(0.8944 0.4472 0)
(0.8944 0.4472 0)
(0.8944 0.4472 0)
(0.8944 0.4472 0)
(0.8944 0.4472 0)
(0.8944 0.4472 0)
(0.8944 0.4472 0)
(0.8944 0.4472 0)
(0.8944 0.4472 0)
(0.8944 0.4472 0)
(0.8944 0.4472 0)
(0.8944 0.4472 0)
(0.8944 0.4472 0)
(0.8944 0.4472 0)
(0.8944 0.4472 0)
(0.8944 0.4472 0)
(0.8944 0.4472 0)
(0.8944 0.4472 0)
(0.8944 0.4472 0)
(0.8944 0.4472 0)
(0.8944 0.4472 0)
(0.8944 0.4472 0)
(0.8944 0.4472 0)
(0.8944 0.4472 0)
(0.8944 0.4472 0)
(0.8944 0.4472 0)
(0.894399 0.4472 0)
(0.894399 0.4472 0)
(0.894399 0.447201 0)
(0.894397 0.447201 0)
(0.894395 0.447203 0)
(0.894391 0.447206 0)
(0.894385 0.44721 0)
(0.894376 0.447217 0)
(0.894364 0.447228 0)
(0.894347 0.447243 0)
(0.894329 0.447266 0)
(0.894308 0.447296 0)
(0.894288 0.447333 0)
(0.894266 0.447382 0)
(0.89424 0.447447 0)
(0.894195 0.447539 0)
(0.894106 0.447687 0)
(0.893926 0.447933 0)
(0.893595 0.448349 0)
(0.893044 0.449033 0)
(0.892211 0.450101 0)
(0.891071 0.45166 0)
(0.889657 0.453777 0)
(0.888063 0.456437 0)
(0.886428 0.459537 0)
(0.884904 0.462898 0)
(0.883624 0.466297 0)
(0.882676 0.469513 0)
(0.882094 0.47237 0)
(0.881869 0.474759 0)
(0.88196 0.476648 0)
(0.88232 0.478073 0)
(0.882912 0.479115 0)
(0.883722 0.479879 0)
(0.884759 0.480465 0)
(0.886042 0.480944 0)
(0.88759 0.481357 0)
(0.889412 0.481705 0)
(0.8915 0.481955 0)
(0.893817 0.482034 0)
(0.896287 0.48183 0)
(0.898776 0.481202 0)
(0.901099 0.48 0)
(0.903041 0.478116 0)
(0.904409 0.475526 0)
(0.905083 0.47232 0)
(0.905044 0.468694 0)
(0.904385 0.464908 0)
(0.90327 0.461231 0)
(0.901897 0.457886 0)
(0.90045 0.455017 0)
(0.899072 0.452685 0)
(0.897857 0.450881 0)
(0.89685 0.44955 0)
(0.896058 0.448612 0)
(0.895464 0.447981 0)
(0.89504 0.44758 0)
(0.894751 0.44734 0)
(0.894565 0.447208 0)
(0.894453 0.447144 0)
(0.894391 0.447122 0)
(0.894363 0.447122 0)
(0.894354 0.447133 0)
(0.894356 0.447147 0)
(0.894363 0.44716 0)
(0.894371 0.447172 0)
(0.894378 0.447181 0)
(0.894385 0.447187 0)
(0.89439 0.447192 0)
(0.894393 0.447195 0)
(0.894394 0.447196 0)
(0.894397 0.447198 0)
(0.894398 0.447199 0)
(0.894399 0.447199 0)
(0.894399 0.4472 0)
(0.8944 0.4472 0)
(0.8944 0.4472 0)
(0.8944 0.4472 0)
(0.8944 0.4472 0)
(0.8944 0.4472 0)
(0.8944 0.4472 0)
(0.8944 0.4472 0)
(0.8944 0.4472 0)
(0.8944 0.4472 0)
(0.8944 0.4472 0)
(0.8944 0.4472 0)
(0.8944 0.4472 0)
(0.8944 0.4472 0)
(0.8944 0.4472 0)
(0.8944 0.4472 0)
(0.8944 0.4472 0)
(0.8944 0.4472 0)
(0.8944 0.4472 0)
(0.8944 0.4472 0)
(0.8944 0.4472 0)
(0.8944 0.4472 0)
(0.8944 0.4472 0)
(0.8944 0.4472 0)
(0.8944 0.4472 0)
(0.8944 0.4472 0)
(0.894399 0.4472 0)
(0.894399 0.4472 0)
(0.894398 0.447201 0)
(0.894396 0.447202 0)
(0.894394 0.447204 0)
(0.894388 0.447207 0)