/*--------------------------------*- C++ -*----------------------------------*\
  =========                 |
  \\      /  F ield         | OpenFOAM: The Open Source CFD Toolbox
   \\    /   O peration     | Website:  https://openfoam.org
    \\  /    A nd           | Version:  6
     \\/     M anipulation  |
\*---------------------------------------------------------------------------*/
FoamFile
{
    version     2.0;
    format      ascii;
    class       volScalarField;
    location    "1.37";
    object      p;
}
// * * * * * * * * * * * * * * * * * * * * * * * * * * * * * * * * * * * * * //

dimensions      [1 -1 -2 0 0 0 0];

internalField   nonuniform List<scalar> 
5625
(
1
1
1
1
1
1
1
1
1
1
1
1
1
1
1
1
1
1
1
1
1
1
1
1
1
1
1
1
1
1
1
1
1
1
1
1
1
1
1
1
1
1
1
1
1
1
1
1
1
1
1
1
1
1
1
1
1
1
1
1
1
1
1
1
1
1
1
1
1
1
1
1
1
1
1
1
1
1
1
1
1
1
1
1
1
1
1
1
1
1
1
1
1
1
1
1
1
1
1
1
1
1
1
1
1
1
1
1
1
1
1
1
1
1
1
1
1
1
1
1
1
1
1
1
1
1
1
1
1
1
1
1
1
1
1
1
1
1
1
1
1
1
1
1
1
1
1
1
1
1
1
1
1
1
1
1
1
1
1
1
1
1
1
1
1
1
1
1
1
1
1
1
1
1
1
1
1
1
1
1
1
1
1
1
1
1
1
1
1
1
1
1
1
1
1
1
1
1
1
1
1
1
1
1
1
1
1
1
1
1
1
1
1
1
1
1
1
1
1
1
1
1
1
1
1
1
1
1
1
1
1
1
1
1
1
1
1
1
1
1
1
1
1
1
1
1
1
1
1
1
1
1
1
1
1
1
1
1
1
1
1
1
1
1
1
1
1
1
1
1
1
1
1
1
1
1
1
1
1
1
1
1
1
1
1
1
1
1
1
1
1
1
1
1
1
1
1
1
1
1
1
1
1
1
1
1
1
1
1
1
1
1
1
1
1
1
1
1
1
1
1
1
1
1
1
1
1
1
1
1
1
1
1
1
1
1
1
1
1
1
1
1
1
1
1
1
1
1
1
1
1
1
1
1
1
1
1
1
1
1
1
1
1
1
1
1
1
1
1
1
1
1
1
1
1
1
1
1
1
1
1
1
1
1
1
1
1
1
1
1
1
1
1
1
1
1
1
1
1
1
1
1
1
1
1
1
1
1
1
1
1
1
1
1
1
1
1
1
1
1
1
1
1
1
1
1
1
1
1
1
1
1
1
1
1
1
1
1
1
1
1
1
1
1
1
1
1
1
1
1
1
1
1
1
1
1
1
1
1
1
1
1
1
1
1
1
1
1
1
1
1
1
1
1
1
1
1
1
1
1
1
1
1
1
1
1
1
1
1
1
1
1
1
1
1
1
1
1
1
1
1
1
1
1
1
1
1
1
1
1
1
1
1
1
1
1
1
1
1
1
1
1
1
1
1
1
1
1
1
1
1
1
1
1
1
1
1
1
1
1
1
1
1
1
1
1
1
1
1
1
1
1
1
1
1
1
1
1
1
1
1
1
1
1
1
1
1
1
1
1
1
1
1
1
1
1
1
1
1
1
1
1
1
1
1
1
1
1
1
1
1
1
1
1
1
1
1
1
1
1
1
1
1
1
1
1
1
1
1
1
1
1
1
1
1
1
1
1
1
1
1
1
1
1
1
1
1
1
1
1
1
1
1
1
1
1
1
1
1
1
1
1
1
1
1
1
1
1
1
1
1
1
1
1
1
1
1
1
1
1
1
1
1
1
1
1
1
1
1
1
1
1
1
1
1
1
1
1
1
1
1
1
1
1
1
1
1
1
1
1
1
1
1
1
1
1
1
1
1
1
1
1
1
1
1
1
1
1
1
1
1
1
1
1
1
1
1
1
1
1
1
1
1
1
1
1
1
1
1
1
1
1
1
1
1
1
1
1
1
1
1
1
1
1
1
1
1
1
1
1
1
1
0.999999
1
1
1
1
1
1
1
1
1
1
1
1
1
1
1
1
1
1
1
1
1
1
1
1
1
1
1
1
1
1
1
1
1
1
1
1
1
1
1
1
1
1
1
1
1
1
1
1
1
1
1
1
1
1
1
1
1
1
1
1
1
1
1
1
1
1
1
1
1
1
1
1
1
1
0.999999
0.999999
1
1
1
1
1
1
1
1
1
1
1
1
1
1
1
1
1
1
1
1
1
1
1
1
1
1
1
1
1
1
1
1
1
1
1
1
1
1
1
1
1
1
1
1
1
1
1
1
1
1
1
1
1
1
1
1
1
1
1
1
1
1
1
1
1
1
1
1
1
1
1
0.999999
0.999999
0.999999
0.999999
1
1
1
1
1
1
1
1
1
1
1
1
1
1
1
1
1
1
1
1
1
1
1
1
1
1
1
1
1
1
1
1
1
1
1
1
1
1
1
1
1
1
1
1
1
1
1
1
1
1
1
1
1
1
1
1
1
1
1
1
1
1
1
1
1
1
1
1
1
1
1
0.999999
0.999999
0.999999
0.999999
0.999999
0.999999
1
1
1
1
1
1
1
1
1
1
1
1
1
1
1
1
1
1
1
1
1
1
1
1
1
1
1
1
1
1
1
1
1
1
1
1
1
1
1
1
1
1
1
1
1
1
1
1
1
1
1
1
1
1
1
1
1
1
1
1
1
1
1
1
1
1
1
1
1
0.999999
0.999999
0.999999
0.999999
0.999999
0.999999
0.999999
1
1
1
1
1
1
1
1
1
1
1
1
1
1
1
1
1
1
1
1
1
1
1
1
1
1
1
1
1
1
1
1
1
1
1
1
1
1
1
1
1
1
1
1
1
1
1
1
1
1
1
1
1
1
1
1
1
1
1
1
1
1
1
1
1
1
1
1
0.999998
0.999998
0.999998
0.999998
0.999998
0.999998
0.999999
0.999999
1
1
1
1
1
1
1
1
1
1
1
1
1
1
1
1
1
1
1
1
1
1
1
1
1
1
1
1
1
1
1
1
1
1
1
1
1
1
1
1
1
1
1
1
1
1
1
1
1
1
1
1
1
1
1
1
1
1
1
1
1
1
1
1
1
1
1
0.999997
0.999997
0.999997
0.999997
0.999998
0.999998
0.999998
0.999999
1
1
1
1
1
1
1
1
1
1
1
1
1
1
1
1
1
1
1
1
1
1
1
1
1
1
1
1
1
1
1
1
1
1
1
1
1
1
1
1
1
1
1
1
1
1
1
1
1
1
1
1
1
1
1
1
1
1
1
1
1
1
1
1
1
1
1
0.999996
0.999996
0.999995
0.999996
0.999997
0.999997
0.999998
0.999999
0.999999
1
1
1
1
1
1
1
1
1
1
1
1
1
1
1
1
1
1
1
1
1
1
1
1
1
1
1
1
1
1
1
1
1
1
1
1
1
1
1
1
1
1
1
1
1
1
1
1
1
1
1
1
1
1
1
1
1
1
1
1
1
1
1
1
1
1
0.999994
0.999994
0.999994
0.999995
0.999995
0.999996
0.999997
0.999998
0.999999
1
1
1
1
1
1.00001
1.00001
1.00001
1.00001
1.00001
1.00001
1
1
1
1
1
1
1
1
1
1
1
1
1
1
1
1
1
1
1
1
1
1
1
1
1
1
1
1
1
1
1
1
1
1
1
1
1
1
1
1
1
1
1
1
1
1
1
1
1
1
1
1
1
1
1
0.999992
0.999992
0.999992
0.999992
0.999993
0.999995
0.999996
0.999998
0.999999
1
1
1
1.00001
1.00001
1.00001
1.00001
1.00001
1.00001
1.00001
1.00001
1.00001
1.00001
1.00001
1
1
1
1
1
1
1
1
1
1
1
1
1
1
1
1
1
1
1
1
1
1
1
1
1
1
1
1
1
1
1
1
1
1
1
1
1
1
1
1
1
1
1
1
1
1
1
1
1
1
1
1
0.999989
0.999989
0.999989
0.99999
0.999991
0.999993
0.999995
0.999997
0.999999
1
1
1.00001
1.00001
1.00001
1.00001
1.00001
1.00001
1.00001
1.00001
1.00001
1.00001
1.00001
1.00001
1.00001
1.00001
1
1
1
1
1
1
1
1
1
1
1
1
1
1
1
1
1
1
1
1
1
1
1
1
1
1
1
1
1
1
1
1
1
1
1
1
1
1
1
1
1
1
1
1
1
1
1
1
1
1
0.999985
0.999985
0.999985
0.999987
0.999988
0.99999
0.999993
0.999996
0.999999
1
1.00001
1.00001
1.00001
1.00001
1.00001
1.00002
1.00002
1.00002
1.00001
1.00001
1.00001
1.00001
1.00001
1.00001
1.00001
1.00001
1
1
1
1
1
1
1
1
1
1
1
1
1
1
1
1
1
1
1
1
1
1
1
1
1
1
1
1
1
1
1
1
1
1
1
1
1
1
1
1
1
1
1
1
1
1
1
1
1
0.99998
0.99998
0.999981
0.999982
0.999984
0.999987
0.999991
0.999995
0.999999
1
1.00001
1.00001
1.00001
1.00002
1.00002
1.00002
1.00002
1.00002
1.00002
1.00002
1.00002
1.00001
1.00001
1.00001
1.00001
1.00001
1.00001
1
1
1
1
1
1
1
1
1
1
1
1
1
1
1
1
1
1
1
1
1
1
1
1
1
1
1
1
1
1
1
1
1
1
1
1
1
1
1
1
1
1
1
1
1
1
1
1
0.999973
0.999973
0.999974
0.999976
0.999979
0.999983
0.999988
0.999993
1
1
1.00001
1.00002
1.00002
1.00002
1.00003
1.00003
1.00003
1.00003
1.00003
1.00003
1.00002
1.00002
1.00002
1.00001
1.00001
1.00001
1.00001
1.00001
1
1
1
1
1
1
1
1
1
1
1
1
1
1
1
1
1
1
1
1
1
1
1
1
1
1
1
1
1
1
1
1
1
1
1
1
1
1
1
1
1
1
1
1
1
1
1
0.999966
0.999966
0.999967
0.99997
0.999974
0.999979
0.999986
0.999993
1
1.00001
1.00002
1.00002
1.00003
1.00003
1.00004
1.00004
1.00004
1.00004
1.00004
1.00003
1.00003
1.00003
1.00002
1.00002
1.00002
1.00001
1.00001
1.00001
1.00001
1
1
1
1
1
1
1
1
1
1
1
1
1
1
1
1
1
1
1
1
1
1
1
1
1
1
1
1
1
1
1
1
1
1
1
1
1
1
1
1
1
1
1
1
1
1
0.999957
0.999957
0.999959
0.999962
0.999968
0.999975
0.999983
0.999993
1
1.00001
1.00002
1.00003
1.00004
1.00004
1.00005
1.00005
1.00005
1.00005
1.00005
1.00004
1.00004
1.00004
1.00003
1.00002
1.00002
1.00002
1.00001
1.00001
1.00001
1
1
1
1
1
1
1
1
1
1
1
1
1
1
1
1
1
1
1
1
1
1
1
1
1
1
1
1
1
1
1
1
1
1
1
1
1
1
1
1
1
1
1
1
1
1
0.999946
0.999947
0.99995
0.999955
0.999962
0.999972
0.999983
0.999995
1.00001
1.00002
1.00003
1.00004
1.00005
1.00006
1.00006
1.00007
1.00007
1.00007
1.00006
1.00006
1.00005
1.00004
1.00004
1.00003
1.00003
1.00002
1.00002
1.00001
1.00001
1.00001
1
1
1
1
1
1
1
1
1
1
1
1
1
1
1
1
1
1
1
1
1
1
1
1
1
1
1
1
1
1
1
1
1
1
1
1
1
1
1
1
1
1
1
1
1
0.999934
0.999936
0.99994
0.999948
0.999958
0.999971
0.999985
1
1.00002
1.00003
1.00005
1.00006
1.00007
1.00008
1.00009
1.00009
1.00009
1.00009
1.00008
1.00007
1.00007
1.00006
1.00005
1.00004
1.00003
1.00003
1.00002
1.00001
1.00001
1.00001
1
1
1
1
1
1
0.999999
0.999999
0.999999
1
1
1
1
1
1
1
1
1
1
1
1
1
1
1
1
1
1
1
1
1
1
1
1
1
1
1
1
1
1
1
1
1
1
1
1
0.999924
0.999926
0.999933
0.999943
0.999957
0.999974
0.999993
1.00001
1.00003
1.00005
1.00007
1.00009
1.0001
1.00011
1.00012
1.00012
1.00012
1.00011
1.00011
1.0001
1.00009
1.00007
1.00006
1.00005
1.00004
1.00003
1.00002
1.00002
1.00001
1.00001
1.00001
1
1
1
1
0.999999
0.999999
0.999999
0.999999
0.999999
1
1
1
1
1
1
1
1
1
1
1
1
1
1
1
1
1
1
1
1
1
1
1
1
1
1
1
1
1
1
1
1
1
1
1
0.999914
0.999919
0.99993
0.999944
0.999964
0.999986
1.00001
1.00004
1.00006
1.00009
1.00011
1.00013
1.00015
1.00016
1.00016
1.00016
1.00016
1.00015
1.00014
1.00012
1.00011
1.00009
1.00008
1.00006
1.00005
1.00004
1.00003
1.00002
1.00001
1.00001
1.00001
1
1
1
0.999999
0.999999
0.999999
0.999999
0.999999
0.999999
0.999999
1
1
1
1
1
1
1
1
1
1
1
1
1
1
1
1
1
1
1
1
1
1
1
1
1
1
1
1
1
1
1
1
1
1
0.999908
0.999918
0.999934
0.999955
0.999982
1.00001
1.00004
1.00008
1.00011
1.00014
1.00017
1.00019
1.00021
1.00022
1.00022
1.00022
1.00021
1.0002
1.00018
1.00016
1.00014
1.00012
1.0001
1.00008
1.00006
1.00005
1.00004
1.00003
1.00002
1.00001
1.00001
1
1
1
0.999999
0.999998
0.999998
0.999999
0.999999
0.999999
0.999999
0.999999
1
1
1
1
1
1
1
1
1
1
1
1
1
1
1
1
1
1
1
1
1
1
1
1
1
1
1
1
1
1
1
1
1
0.999912
0.999929
0.999954
0.999984
1.00002
1.00006
1.0001
1.00015
1.00019
1.00023
1.00026
1.00028
1.0003
1.00031
1.00031
1.0003
1.00028
1.00026
1.00024
1.00021
1.00018
1.00015
1.00013
1.0001
1.00008
1.00006
1.00004
1.00003
1.00002
1.00001
1.00001
1
1
0.999999
0.999998
0.999997
0.999997
0.999998
0.999998
0.999999
0.999999
0.999999
0.999999
1
1
1
1
1
1
1
1
1
1
1
1
1
1
1
1
1
1
1
1
1
1
1
1
1
1
1
1
1
1
1
1
0.999932
0.99996
0.999997
1.00004
1.00009
1.00015
1.00021
1.00026
1.00031
1.00036
1.00039
1.00042
1.00043
1.00044
1.00043
1.00041
1.00038
1.00035
1.00031
1.00027
1.00024
1.0002
1.00016
1.00013
1.0001
1.00007
1.00005
1.00004
1.00002
1.00001
1.00001
1
0.999998
0.999997
0.999996
0.999996
0.999996
0.999997
0.999997
0.999998
0.999998
0.999999
0.999999
0.999999
1
1
1
1
1
1
1
1
1
1
1
1
1
1
1
1
1
1
1
1
1
1
1
1
1
1
1
1
1
1
1
0.999977
1.00002
1.00008
1.00014
1.00021
1.00029
1.00037
1.00044
1.0005
1.00056
1.0006
1.00062
1.00063
1.00062
1.0006
1.00057
1.00052
1.00047
1.00042
1.00036
1.00031
1.00025
1.0002
1.00016
1.00012
1.00009
1.00006
1.00004
1.00003
1.00002
1.00001
1
0.999997
0.999995
0.999994
0.999994
0.999995
0.999995
0.999996
0.999997
0.999998
0.999998
0.999999
0.999999
0.999999
1
1
1
1
1
1
1
1
1
1
1
1
1
1
1
1
1
1
1
1
1
1
1
1
1
1
1
1
1
1
1.00006
1.00013
1.00022
1.00031
1.00041
1.00052
1.00062
1.00071
1.00079
1.00085
1.00089
1.00091
1.00091
1.00089
1.00085
1.00079
1.00072
1.00064
1.00056
1.00048
1.0004
1.00033
1.00026
1.0002
1.00015
1.00011
1.00008
1.00005
1.00003
1.00002
1.00001
0.999999
0.999994
0.999992
0.999992
0.999992
0.999993
0.999994
0.999995
0.999996
0.999997
0.999998
0.999998
0.999999
0.999999
0.999999
1
1
1
1
1
1
1
1
1
1
1
1
1
1
1
1
1
1
1
1
1
1
1
1
1
1
1
1
1
1.00021
1.00031
1.00044
1.00057
1.00072
1.00086
1.00099
1.00111
1.00121
1.00128
1.00133
1.00134
1.00132
1.00127
1.0012
1.0011
1.001
1.00088
1.00076
1.00064
1.00053
1.00043
1.00034
1.00026
1.00019
1.00014
1.00009
1.00006
1.00004
1.00002
1
0.999996
0.999991
0.999989
0.999989
0.999989
0.99999
0.999992
0.999993
0.999995
0.999996
0.999997
0.999998
0.999998
0.999999
0.999999
0.999999
1
1
1
1
1
1
1
1
1
1
1
1
1
1
1
1
1
1
1
1
1
1
1
1
1
1
1
1
1.00044
1.0006
1.00078
1.00097
1.00117
1.00136
1.00154
1.00169
1.00182
1.0019
1.00194
1.00194
1.00189
1.00181
1.00169
1.00154
1.00138
1.00121
1.00104
1.00087
1.00071
1.00057
1.00044
1.00034
1.00025
1.00017
1.00012
1.00007
1.00004
1.00002
1
0.999992
0.999987
0.999984
0.999984
0.999985
0.999987
0.999989
0.999991
0.999993
0.999995
0.999996
0.999997
0.999998
0.999999
0.999999
0.999999
1
1
1
1
1
1
1
1
1
1
1
1
1
1
1
1
1
1
1
1
1
1
1
1
1
1
1
1
1.00079
1.00102
1.00128
1.00155
1.00182
1.00208
1.00232
1.00252
1.00267
1.00276
1.0028
1.00277
1.00269
1.00255
1.00237
1.00215
1.00191
1.00166
1.00141
1.00117
1.00095
1.00076
1.00059
1.00044
1.00032
1.00022
1.00015
1.00009
1.00005
1.00002
0.999999
0.999987
0.999981
0.999978
0.999978
0.99998
0.999983
0.999986
0.999988
0.999991
0.999993
0.999995
0.999996
0.999997
0.999998
0.999999
0.999999
0.999999
1
1
1
1
1
1
1
1
1
1
1
1
1
1
1
1
1
1
1
1
1
1
1
1
1
1
1
1.00129
1.00163
1.00199
1.00237
1.00273
1.00308
1.00339
1.00365
1.00383
1.00394
1.00397
1.00391
1.00377
1.00356
1.00329
1.00297
1.00263
1.00228
1.00193
1.00159
1.00129
1.00101
1.00078
1.00058
1.00042
1.00029
1.00019
1.00011
1.00006
1.00002
0.999997
0.999982
0.999974
0.999971
0.999972
0.999974
0.999978
0.999981
0.999985
0.999988
0.999991
0.999993
0.999995
0.999997
0.999998
0.999998
0.999999
0.999999
1
1
1
1
1
1
1
1
1
1
1
1
1
1
1
1
1
1
1
1
1
1
1
1
1
1
1
1.00201
1.00248
1.00298
1.00349
1.00398
1.00444
1.00484
1.00516
1.00539
1.00551
1.00552
1.00542
1.00521
1.00491
1.00452
1.00408
1.0036
1.0031
1.00262
1.00216
1.00173
1.00136
1.00104
1.00077
1.00055
1.00037
1.00024
1.00014
1.00007
1.00002
0.999994
0.999975
0.999966
0.999963
0.999964
0.999967
0.999972
0.999976
0.999981
0.999985
0.999989
0.999992
0.999994
0.999996
0.999997
0.999998
0.999999
0.999999
0.999999
1
1
1
1
1
1
1
1
1
1
1
1
1
1
1
1
1
1
1
1
1
1
1
1
1
1
1.00299
1.00363
1.00431
1.00498
1.00563
1.00622
1.00673
1.00713
1.00741
1.00755
1.00754
1.00739
1.00709
1.00667
1.00614
1.00553
1.00488
1.0042
1.00354
1.00291
1.00233
1.00182
1.00138
1.00102
1.00072
1.00049
1.00032
1.00019
1.0001
1.00003
0.999992
0.999968
0.999957
0.999953
0.999955
0.999959
0.999965
0.999971
0.999976
0.999982
0.999986
0.99999
0.999993
0.999995
0.999996
0.999997
0.999998
0.999999
0.999999
0.999999
1
1
1
1
1
1
1
1
1
1
1
1
1
1
1
1
1
1
1
1
1
1
1
1
1
1.00429
1.00515
1.00604
1.00691
1.00774
1.00848
1.00911
1.00961
1.00994
1.0101
1.01007
1.00986
1.00946
1.0089
1.0082
1.0074
1.00652
1.00562
1.00473
1.00389
1.00312
1.00243
1.00185
1.00136
1.00096
1.00066
1.00042
1.00025
1.00013
1.00005
0.999993
0.999962
0.999947
0.999942
0.999944
0.999949
0.999956
0.999964
0.999971
0.999977
0.999983
0.999988
0.999991
0.999994
0.999995
0.999997
0.999998
0.999999
0.999999
0.999999
1
1
1
1
1
1
1
1
1
1
1
1
1
1
1
1
1
1
1
1
1
1
1
1
1
1.00598
1.0071
1.00822
1.00932
1.01035
1.01126
1.01202
1.01261
1.01301
1.01318
1.01314
1.01286
1.01236
1.01165
1.01076
1.00973
1.0086
1.00743
1.00627
1.00516
1.00414
1.00323
1.00245
1.0018
1.00128
1.00087
1.00056
1.00033
1.00018
1.00007
0.999998
0.999958
0.999937
0.99993
0.999932
0.999938
0.999946
0.999956
0.999965
0.999972
0.999979
0.999985
0.999989
0.999992
0.999994
0.999996
0.999997
0.999998
0.999999
0.999999
1
1
1
1
1
1
1
1
1
1
1
1
1
1
1
1
1
1
1
1
1
1
1
1
1
1.00809
1.0095
1.01089
1.01223
1.01345
1.01452
1.01541
1.01609
1.01654
1.01674
1.01668
1.01635
1.01576
1.01491
1.01382
1.01255
1.01115
1.00967
1.00819
1.00676
1.00544
1.00425
1.00324
1.00239
1.0017
1.00116
1.00075
1.00045
1.00024
1.0001
1.00001
0.999955
0.999928
0.999918
0.999919
0.999926
0.999936
0.999947
0.999958
0.999967
0.999975
0.999981
0.999987
0.99999
0.999993
0.999996
0.999997
0.999998
0.999999
0.999999
0.999999
1
1
1
1
1
1
1
1
1
1
1
1
1
1
1
1
1
1
1
1
1
1
1
1
1.01066
1.01236
1.01402
1.01557
1.01696
1.01815
1.01912
1.01986
1.02035
1.02058
1.02053
1.02018
1.01954
1.01858
1.01734
1.01585
1.01416
1.01236
1.01052
1.00873
1.00705
1.00554
1.00423
1.00313
1.00224
1.00153
1.001
1.00061
1.00034
1.00015
1.00003
0.999958
0.99992
0.999906
0.999905
0.999913
0.999924
0.999937
0.99995
0.999961
0.99997
0.999978
0.999984
0.999989
0.999992
0.999995
0.999996
0.999998
0.999998
0.999999
0.999999
1
1
1
1
1
1
1
1
1
1
1
1
1
1
1
1
1
1
1
1
1
1
1
1
1.01365
1.01564
1.01751
1.0192
1.02067
1.02189
1.02287
1.02361
1.0241
1.02435
1.02434
1.02405
1.02343
1.02247
1.02115
1.01951
1.01759
1.01548
1.01328
1.0111
1.00902
1.00713
1.00547
1.00407
1.00292
1.00202
1.00133
1.00082
1.00046
1.00022
1.00006
0.999967
0.999916
0.999895
0.999892
0.999899
0.999912
0.999926
0.999941
0.999954
0.999965
0.999974
0.999981
0.999987
0.999991
0.999994
0.999996
0.999997
0.999998
0.999999
0.999999
1
1
1
1
1
1
1
1
1
1
1
1
1
1
1
1
1
1
1
1
1
1
1
1
1.017
1.01918
1.02115
1.02283
1.02422
1.02531
1.02615
1.02677
1.0272
1.02747
1.02756
1.02742
1.02698
1.02617
1.02495
1.02331
1.02127
1.01894
1.01642
1.01385
1.01135
1.00903
1.00698
1.00522
1.00377
1.00262
1.00174
1.00109
1.00063
1.00031
1.00011
0.999984
0.999916
0.999885
0.999878
0.999885
0.999898
0.999915
0.999932
0.999947
0.999959
0.99997
0.999978
0.999985
0.999989
0.999993
0.999995
0.999997
0.999998
0.999999
0.999999
0.999999
1
1
1
1
1
1
1
1
1
1
1
1
1
1
1
1
1
1
1
1
1
1
1
1.02053
1.02274
1.02458
1.02601
1.02704
1.02774
1.0282
1.02852
1.02881
1.02908
1.02934
1.02951
1.02947
1.02909
1.02825
1.02687
1.02495
1.02255
1.01982
1.01692
1.01401
1.01126
1.00876
1.00661
1.00481
1.00337
1.00226
1.00144
1.00085
1.00044
1.00018
1.00001
0.999924
0.99988
0.999867
0.999871
0.999885
0.999904
0.999922
0.999939
0.999953
0.999965
0.999975
0.999982
0.999988
0.999991
0.999994
0.999996
0.999998
0.999999
0.999999
0.999999
1
1
1
1
1
1
1
1
1
1
1
1
1
1
1
1
1
1
1
1
1
1
1
1.02397
1.02592
1.02729
1.02807
1.02834
1.02825
1.028
1.02779
1.02776
1.02802
1.02855
1.02925
1.02994
1.03037
1.03033
1.02962
1.02817
1.02602
1.0233
1.0202
1.01696
1.01378
1.01084
1.00824
1.00605
1.00428
1.0029
1.00187
1.00113
1.00061
1.00027
1.00006
0.99994
0.99988
0.999858
0.999859
0.999872
0.999892
0.999912
0.999931
0.999947
0.999961
0.999971
0.99998
0.999986
0.99999
0.999994
0.999996
0.999997
0.999998
0.999999
0.999999
1
1
1
1
1
1
1
1
1
1
1
1
1
1
1
1
1
1
1
1
1
1
1
1.02691
1.02818
1.02857
1.02815
1.02709
1.0257
1.02429
1.02319
1.02267
1.02287
1.0238
1.02532
1.02715
1.02893
1.03025
1.03079
1.03036
1.0289
1.02653
1.02348
1.02005
1.01653
1.01316
1.01011
1.0075
1.00536
1.00367
1.0024
1.00147
1.00083
1.0004
1.00013
0.999968
0.999886
0.999853
0.999849
0.999861
0.99988
0.999902
0.999923
0.999941
0.999956
0.999968
0.999977
0.999984
0.999989
0.999993
0.999995
0.999997
0.999998
0.999999
0.999999
1
1
1
1
1
1
1
1
1
1
1
1
1
1
1
1
1
1
1
1
1
1
1
1.02881
1.0288
1.02754
1.02519
1.02211
1.01874
1.01562
1.01323
1.01197
1.01206
1.01355
1.01623
1.01972
1.02347
1.02689
1.02945
1.03074
1.0306
1.0291
1.02649
1.02313
1.01941
1.01568
1.0122
1.00915
1.00661
1.00458
1.00303
1.00189
1.00109
1.00056
1.00021
1.00001
0.999901
0.999853
0.999841
0.999851
0.999869
0.999892
0.999915
0.999934
0.999951
0.999964
0.999975
0.999983
0.999988
0.999992
0.999995
0.999996
0.999998
0.999999
0.999999
0.999999
1
1
1
1
1
1
1
1
1
1
1
1
1
1
1
1
1
1
1
1
1
1
1.02903
1.02698
1.02321
1.01807
1.0121
1.00601
1.00055
0.996406
0.99414
0.994079
0.996276
1.00049
1.0062
1.01267
1.01906
1.02453
1.02845
1.03045
1.0305
1.02885
1.02593
1.02226
1.0183
1.01446
1.01098
1.00801
1.00562
1.00376
1.00239
1.00141
1.00075
1.00033
1.00007
0.999927
0.999859
0.999838
0.999842
0.999861
0.999884
0.999907
0.999929
0.999947
0.999961
0.999972
0.99998
0.999987
0.999991
0.999994
0.999996
0.999998
0.999998
0.999999
0.999999
1
1
1
1
1
1
1
1
1
1
1
1
1
1
1
1
1
1
1
1
1
1
1.02686
1.02182
1.01457
1.00565
0.995886
0.98627
0.977825
0.971475
0.967948
0.967673
0.970738
0.976852
0.985366
0.995325
1.00559
1.01499
1.02257
1.02768
1.03014
1.03013
1.02817
1.02488
1.02091
1.0168
1.01294
1.00957
1.00679
1.0046
1.00297
1.00179
1.00099
1.00047
1.00015
0.999964
0.999872
0.999838
0.999837
0.999854
0.999876
0.9999
0.999923
0.999942
0.999958
0.99997
0.999979
0.999986
0.999991
0.999994
0.999996
0.999997
0.999998
0.999999
0.999999
1
1
1
1
1
1
1
1
1
1
1
1
1
1
1
1
1
1
1
1
1
1
1.02156
1.01252
1.00072
0.987013
0.972547
0.95865
0.946642
0.937684
0.932671
0.932132
0.936195
0.944528
0.956363
0.970529
0.98557
0.999946
1.01228
1.02158
1.02741
1.02987
1.02949
1.02704
1.02335
1.01915
1.01499
1.01124
1.00807
1.00554
1.00362
1.00224
1.00127
1.00064
1.00024
1.00001
0.999895
0.999846
0.999836
0.999849
0.999871
0.999895
0.999918
0.999938
0.999955
0.999968
0.999977
0.999985
0.99999
0.999993
0.999996
0.999997
0.999998
0.999999
0.999999
1
1
1
1
1
1
1
1
1
1
1
1
1
1
1
1
1
1
1
1
1
1
1.01253
0.998429
0.981049
0.961603
0.941645
0.922852
0.906837
0.894977
0.888317
0.887474
0.892612
0.903386
0.918934
0.93789
0.958493
0.978795
0.996956
1.01155
1.0218
1.02763
1.02957
1.0285
1.02545
1.02139
1.01706
1.01298
1.00944
1.00657
1.00436
1.00273
1.0016
1.00084
1.00036
1.00008
0.999928
0.99986
0.99984
0.999847
0.999867
0.999891
0.999915
0.999935
0.999952
0.999966
0.999976
0.999983
0.999989
0.999993
0.999995
0.999997
0.999998
0.999999
0.999999
1
1
1
1
1
1
1
1
1
1
1
1
1
1
1
1
1
1
1
1
1
1
0.999342
0.979182
0.955308
0.929372
0.903351
0.879267
0.859005
0.844108
0.835721
0.834538
0.840763
0.854063
0.873524
0.897637
0.924368
0.951365
0.976294
0.997215
1.01292
1.02306
1.0281
1.02901
1.02705
1.0234
1.01907
1.01475
1.01088
1.00767
1.00515
1.00329
1.00196
1.00107
1.0005
1.00016
0.999971
0.99988
0.999848
0.999848
0.999865
0.999888
0.999912
0.999933
0.99995
0.999964
0.999975
0.999983
0.999989
0.999993
0.999995
0.999997
0.999998
0.999999
0.999999
1
1
1
1
1
1
1
1
1
1
1
1
1
1
1
1
1
1
1
1
1
1
0.98187
0.954812
0.923763
0.890853
0.85849
0.829016
0.804501
0.786601
0.776509
0.774964
0.78221
0.797962
0.821307
0.850664
0.883795
0.917979
0.950377
0.978485
1.00057
1.01593
1.02486
1.0284
1.02799
1.02508
1.02094
1.01649
1.01235
1.00882
1.006
1.00388
1.00237
1.00133
1.00066
1.00026
1.00002
0.999908
0.999861
0.999854
0.999866
0.999888
0.99991
0.999931
0.999949
0.999964
0.999974
0.999982
0.999988
0.999992
0.999995
0.999997
0.999998
0.999999
0.999999
0.999999
1
1
1
1
1
1
1
1
1
1
1
1
1
1
1
1
1
1
1
1
1
0.960316
0.925778
0.887175
0.847147
0.808503
0.773833
0.745312
0.724622
0.712945
0.711033
0.719167
0.73714
0.764103
0.798488
0.837943
0.879457
0.919714
0.955613
0.984829
1.00619
1.01975
1.02654
1.02815
1.02632
1.02259
1.01816
1.01381
1.00999
1.00688
1.00451
1.0028
1.00162
1.00084
1.00037
1.00009
0.999944
0.99988
0.999863
0.99987
0.999889
0.999911
0.999931
0.999949
0.999963
0.999974
0.999982
0.999988
0.999992
0.999995
0.999997
0.999998
0.999999
0.999999
1
1
1
1
1
1
1
1
1
1
1
1
1
1
1
1
1
1
1
1
1
1
0.935243
0.892946
0.846757
0.799816
0.755275
0.715884
0.683821
0.660711
0.647666
0.64541
0.654258
0.674094
0.704196
0.743103
0.788462
0.83707
0.885207
0.929181
0.966017
0.99399
1.0128
1.02339
1.02748
1.02706
1.02397
1.01969
1.01522
1.01116
1.00778
1.00517
1.00326
1.00192
1.00104
1.00049
1.00016
0.999988
0.999905
0.999877
0.999878
0.999893
0.999913
0.999932
0.999949
0.999963
0.999974
0.999982
0.999988
0.999992
0.999995
0.999997
0.999998
0.999999
0.999999
1
1
1
1
1
1
1
1
1
1
1
1
1
1
1
1
1
1
1
1
1
1
0.907515
0.857513
0.80404
0.75071
0.70093
0.657511
0.622538
0.597496
0.583378
0.580835
0.590203
0.611464
0.644073
0.686766
0.737304
0.792423
0.848091
0.90007
0.944715
0.979665
1.00418
1.01902
1.02598
1.02727
1.02504
1.02105
1.01655
1.0123
1.00868
1.00584
1.00373
1.00224
1.00125
1.00062
1.00025
1.00004
0.999936
0.999895
0.99989
0.999901
0.999917
0.999934
0.999951
0.999964
0.999975
0.999983
0.999988
0.999992
0.999995
0.999997
0.999998
0.999999
0.999999
1
1
1
1
1
1
1
1
1
1
1
1
1
1
1
1
1
1
1
1
1
1
0.878231
0.820885
0.760723
0.70177
0.647595
0.600972
0.563811
0.53739
0.522536
0.519793
0.529492
0.551713
0.586125
0.631729
0.686517
0.747286
0.80981
0.869384
0.921705
0.963736
0.994201
1.0136
1.02372
1.02697
1.02579
1.02222
1.01777
1.01338
1.00956
1.0065
1.00421
1.00257
1.00147
1.00077
1.00034
1.0001
0.999973
0.999918
0.999903
0.999909
0.999923
0.999938
0.999953
0.999966
0.999976
0.999983
0.999989
0.999993
0.999995
0.999997
0.999998
0.999999
0.999999
1
1
1
1
1
1
1
1
1
1
1
1
1
1
1
1
1
1
1
1
1
1
0.848612
0.784545
0.718497
0.654833
0.597194
0.54822
0.509601
0.482354
0.467102
0.464256
0.474114
0.496851
0.53237
0.579989
0.638012
0.703411
0.771884
0.83836
0.897926
0.946857
0.983291
1.00738
1.02083
1.02621
1.02622
1.02319
1.01887
1.0144
1.0104
1.00714
1.00467
1.0029
1.0017
1.00092
1.00044
1.00016
1.00001
0.999945
0.999921
0.99992
0.99993
0.999943
0.999957
0.999968
0.999978
0.999984
0.999989
0.999993
0.999995
0.999997
0.999998
0.999999
0.999999
1
1
1
1
1
1
1
1
1
1
1
1
1
1
1
1
1
1
1
1
1
1
0.819906
0.749927
0.678914
0.611491
0.551297
0.500776
0.461353
0.433766
0.418409
0.415544
0.425412
0.448286
0.484297
0.533108
0.593388
0.662362
0.735761
0.808246
0.874381
0.929778
0.971965
1.00068
1.01751
1.0251
1.02638
1.02396
1.01983
1.01532
1.01118
1.00776
1.00513
1.00323
1.00192
1.00107
1.00054
1.00023
1.00006
0.999975
0.999941
0.999934
0.99994
0.99995
0.999961
0.999971
0.99998
0.999986
0.99999
0.999993
0.999996
0.999997
0.999998
0.999999
0.999999
1
1
1
1
1
1
1
1
1
1
1
1
1
1
1
1
1
1
1
1
1
1
0.793289
0.718314
0.643288
0.57301
0.511068
0.459675
0.41997
0.392418
0.377172
0.374338
0.384106
0.406821
0.44284
0.492167
0.553851
0.625422
0.702712
0.780218
0.852069
0.913282
0.960788
0.993888
1.01397
1.02375
1.02632
1.02455
1.02065
1.01614
1.01189
1.00832
1.00555
1.00353
1.00214
1.00122
1.00064
1.0003
1.00011
1.00001
0.999964
0.99995
0.999951
0.999958
0.999967
0.999975
0.999982
0.999988
0.999992
0.999994
0.999996
0.999998
0.999999
0.999999
0.999999
1
1
1
1
1
1
1
1
1
1
1
1
1
1
1
1
1
1
1
1
1
1
0.769796
0.690782
0.612651
0.540314
0.477273
0.425511
0.385888
0.358605
0.343596
0.340819
0.350407
0.372773
0.408471
0.457815
0.520227
0.593555
0.673779
0.755303
0.831919
0.898134
0.950336
0.987395
1.01049
1.0223
1.02611
1.02498
1.02133
1.01685
1.01252
1.00883
1.00594
1.00382
1.00234
1.00136
1.00074
1.00037
1.00016
1.00004
0.999988
0.999967
0.999963
0.999966
0.999973
0.999979
0.999985
0.999989
0.999993
0.999995
0.999997
0.999998
0.999999
0.999999
0.999999
1
1
1
1
1
1
1
1
1
1
1
1
1
1
1
1
1
1
1
1
1
1
0.750279
0.66817
0.587758
0.514018
0.450349
0.398536
0.359194
0.332285
0.317559
0.314838
0.324213
0.346144
0.38134
0.43039
0.493043
0.567454
0.649766
0.734345
0.814734
0.885029
0.941155
0.981593
1.00729
1.02092
1.02583
1.02529
1.02189
1.01744
1.01305
1.00927
1.00628
1.00407
1.00253
1.0015
1.00084
1.00044
1.00021
1.00008
1.00001
0.999986
0.999977
0.999976
0.999979
0.999984
0.999988
0.999992
0.999994
0.999996
0.999998
0.999998
0.999999
0.999999
0.999999
1
1
1
1
1
1
1
1
1
1
1
1
1
1
1
1
1
1
1
1
1
1
0.73538
0.651087
0.569117
0.494483
0.430496
0.378786
0.339776
0.313241
0.298777
0.296104
0.305279
0.326781
0.361436
0.41004
0.472621
0.547594
0.631269
0.718006
0.801174
0.874563
0.93373
0.976839
1.00464
1.01973
1.02556
1.02551
1.02232
1.01792
1.01349
1.00963
1.00657
1.00429
1.00269
1.00162
1.00093
1.0005
1.00025
1.00012
1.00004
1.00001
0.999991
0.999987
0.999987
0.999989
0.999992
0.999994
0.999996
0.999997
0.999998
0.999999
0.999999
1
1
1
1
1
1
1
1
1
1
1
1
1
1
1
1
1
1
1
1
1
1
1
1
0.725537
0.639924
0.557031
0.481893
0.417766
0.366183
0.327445
0.301201
0.286938
0.28431
0.293335
0.314496
0.348682
0.396825
0.45916
0.534307
0.618718
0.706774
0.79174
0.867198
0.928453
0.97343
1.00272
1.01887
1.02537
1.02567
1.02264
1.01827
1.01381
1.00991
1.0068
1.00447
1.00283
1.00172
1.00101
1.00057
1.0003
1.00015
1.00007
1.00003
1.00001
0.999997
0.999995
0.999995
0.999996
0.999997
0.999998
0.999999
0.999999
0.999999
1
1
1
1
1
1
1
1
1
1
1
1
1
1
1
1
1
1
1
1
1
1
1
1
1
0.720985
0.634877
0.551637
0.476307
0.412132
0.360624
0.322029
0.295943
0.281801
0.279216
0.288175
0.30914
0.343007
0.390773
0.452788
0.527817
0.612411
0.700992
0.786781
0.863263
0.925601
0.97158
1.00169
1.01843
1.0253
1.0258
1.02285
1.0185
1.01403
1.0101
1.00695
1.0046
1.00294
1.00181
1.00108
1.00062
1.00035
1.00019
1.0001
1.00005
1.00002
1.00001
1
1
1
1
1
1
1
1
1
1
1
1
1
1
1
1
1
1
1
1
1
1
1
1
1
1
1
1
1
1
1
1
1
0.721778
0.635965
0.55293
0.477696
0.413542
0.362022
0.32342
0.297346
0.283234
0.280697
0.28969
0.31063
0.344373
0.391898
0.453584
0.528251
0.612517
0.700849
0.786497
0.862941
0.92533
0.97141
1.00163
1.01845
1.02538
1.02591
1.02296
1.01861
1.01413
1.0102
1.00704
1.00468
1.00301
1.00188
1.00114
1.00067
1.00039
1.00022
1.00012
1.00007
1.00004
1.00002
1.00001
1.00001
1
1
1
1
1
1
1
1
1
1
1
1
1
1
1
1
1
1
1
1
1
1
1
1
1
1
1
1
1
1
1
0.727807
0.64306
0.560784
0.485952
0.421914
0.370326
0.331585
0.305392
0.291238
0.288758
0.297883
0.31897
0.352783
0.400213
0.461569
0.535642
0.619072
0.706384
0.790919
0.866266
0.927669
0.97294
1.00255
1.01895
1.02561
1.02598
1.02296
1.01859
1.01412
1.01019
1.00706
1.00471
1.00305
1.00192
1.00118
1.00071
1.00042
1.00025
1.00014
1.00008
1.00005
1.00003
1.00002
1.00001
1.00001
1
1
1
1
1
1
1
1
1
1
1
1
1
1
1
1
1
1
1
1
1
1
1
1
1
1
1
1
1
1
0.738821
0.655901
0.574963
0.500899
0.437141
0.385501
0.346557
0.320162
0.305921
0.30352
0.312869
0.334242
0.368276
0.415709
0.476692
0.549907
0.631961
0.717463
0.799912
0.873108
0.93251
0.976087
1.00439
1.01988
1.02596
1.02602
1.02285
1.01844
1.01398
1.0101
1.007
1.00469
1.00305
1.00194
1.00121
1.00074
1.00045
1.00027
1.00017
1.0001
1.00006
1.00004
1.00003
1.00002
1.00001
1.00001
1
1
1
1
1
1
1
1
1
1
1
1
1
1
1
1
1
1
1
1
1
1
1
1
1
1
1
1
1
0.75447
0.674121
0.595129
0.522285
0.459075
0.407509
0.368393
0.341791
0.32747
0.325185
0.334827
0.356575
0.390901
0.438337
0.498809
0.570817
0.650904
0.73377
0.813154
0.883177
0.939609
0.980665
1.00702
1.02116
1.02639
1.02598
1.02261
1.01815
1.01372
1.0099
1.00687
1.00462
1.00302
1.00193
1.00122
1.00076
1.00047
1.00029
1.00019
1.00012
1.00008
1.00005
1.00003
1.00002
1.00001
1.00001
1.00001
1
1
1
1
1
1
1
1
1
1
1
1
1
1
1
1
1
1
1
1
1
1
1
1
1
1
1
1
0.774288
0.697268
0.62087
0.549771
0.487503
0.436271
0.397135
0.370423
0.356088
0.353972
0.363946
0.386077
0.420659
0.467969
0.527656
0.597989
0.675429
0.754801
0.830158
0.896028
0.948598
0.986396
1.01025
1.02266
1.02682
1.02584
1.02222
1.01772
1.01334
1.00961
1.00668
1.0045
1.00296
1.00191
1.00122
1.00077
1.00049
1.00031
1.0002
1.00013
1.00009
1.00006
1.00004
1.00003
1.00002
1.00001
1.00001
1
1
1
1
1
1
1
1
1
1
1
1
1
1
1
1
1
1
1
1
1
1
1
1
1
1
1
1
0.797686
0.72477
0.651678
0.582936
0.522117
0.471612
0.432755
0.406135
0.391914
0.390026
0.400321
0.422749
0.457409
0.504311
0.562781
0.630833
0.70486
0.779854
0.850252
0.911079
0.959005
0.992923
1.01384
1.02423
1.02716
1.02554
1.02168
1.01714
1.01285
1.00924
1.00641
1.00433
1.00286
1.00186
1.0012
1.00077
1.0005
1.00032
1.00021
1.00014
1.0001
1.00007
1.00004
1.00003
1.00002
1.00001
1.00001
1.00001
1
1
1
1
1
1
1
1
1
1
1
1
1
1
1
1
1
1
1
1
1
1
1
1
1
1
1
)
;

boundaryField
{
    emptyPatches_empt
    {
        type            empty;
    }
    top_cyc
    {
        type            cyclic;
    }
    bottom_cyc
    {
        type            cyclic;
    }
    inlet_cyc
    {
        type            cyclic;
    }
    outlet_cyc
    {
        type            cyclic;
    }
    procBoundary3to1
    {
        type            processor;
        value           nonuniform List<scalar> 
75
(
0.823937
0.755915
0.6869
0.621229
0.562488
0.513232
0.47506
0.448834
0.434907
0.433299
0.443838
0.466367
0.500789
0.546824
0.603479
0.668519
0.738292
0.808027
0.872607
0.927622
0.970276
0.999846
1.01751
1.02571
1.02734
1.02506
1.02096
1.01643
1.01225
1.00878
1.00609
1.00412
1.00274
1.00179
1.00117
1.00076
1.0005
1.00033
1.00022
1.00015
1.0001
1.00007
1.00005
1.00003
1.00002
1.00002
1.00001
1.00001
1
1
1
1
1
1
1
1
1
1
1
1
1
1
1
1
1
1
1
1
1
1
1
1
1
1
1
)
;
    }
    procBoundary3to1throughtop_cyc
    {
        type            processorCyclic;
        value           nonuniform List<scalar> 
75
(
1
1
1
1
1
1
1
1
1
1
1
1
1
1
1
1
1
1
1
1
1
1
1
1
1
1
1
1
1
1
1
1
1
1
1
1
1
1
1
1
1
1
1
1
1
1
1
1
1
1
1
1
1
1
1
1
1
1
1
1
1
1
1
1
1
1
1
1
1
1
1
1
1
1
1
)
;
    }
    procBoundary3to2
    {
        type            processor;
        value           nonuniform List<scalar> 
75
(
1
1
1
1
1
1
1
1
1
1
1
1
0.999999
0.999999
0.999999
0.999998