/*--------------------------------*- C++ -*----------------------------------*\
  =========                 |
  \\      /  F ield         | OpenFOAM: The Open Source CFD Toolbox
   \\    /   O peration     | Website:  https://openfoam.org
    \\  /    A nd           | Version:  6
     \\/     M anipulation  |
\*---------------------------------------------------------------------------*/
FoamFile
{
    version     2.0;
    format      ascii;
    class       surfaceScalarField;
    location    "3.94";
    object      phi;
}
// * * * * * * * * * * * * * * * * * * * * * * * * * * * * * * * * * * * * * //

dimensions      [0 3 -1 0 0 0 0];

internalField   nonuniform List<scalar> 
8193
(
0.232694
-0.452876
-0.238109
0.221952
-0.46283
0.209071
-0.466508
0.196199
-0.469654
0.184232
-0.474152
0.17317
-0.480087
0.162868
-0.487353
0.153325
-0.495813
0.145394
-0.506811
0.139412
-0.523097
0.131113
-0.534781
0.117709
-0.528557
0.0965199
-0.498823
0.0724169
-0.450016
0.0511349
-0.394714
0.0356197
-0.337287
0.0265494
-0.278383
0.0236004
-0.220151
0.025652
-0.167967
0.0309235
-0.128692
0.0352918
-0.10574
0.0346225
-0.101977
0.0293494
-0.11291
0.0214991
-0.13332
0.0133179
-0.15789
0.00562487
-0.186194
-0.00191072
-0.218033
-0.00987862
-0.251861
-0.0191406
-0.286271
-0.0311596
-0.319435
-0.0470533
-0.347161
-0.0655476
-0.366387
-0.0842172
-0.379103
-0.102395
-0.388461
-0.120169
-0.39548
-0.137672
-0.400753
-0.155015
-0.404673
-0.172273
-0.407331
-0.189091
-0.409098
-0.203666
-0.410687
-0.406184
-0.212913
0.236237
-0.443561
-0.245552
0.221565
-0.448158
0.206803
-0.451745
0.19315
-0.456001
0.180528
-0.461531
0.168691
-0.46825
0.157407
-0.476068
0.146852
-0.485258
0.138095
-0.498055
0.130193
-0.515195
0.117149
-0.521737
0.0953745
-0.506782
0.0656183
-0.469067
0.0366062
-0.421004
0.0127581
-0.370866
-0.00521921
-0.319309
-0.0172831
-0.266319
-0.0238094
-0.213624
-0.0244122
-0.167364
-0.0212987
-0.131806
-0.0164872
-0.110552
-0.0130268
-0.105437
-0.0115649
-0.114372
-0.012031
-0.132854
-0.0133107
-0.156611
-0.0155843
-0.18392
-0.0191052
-0.214512
-0.0241737
-0.246792
-0.0314078
-0.279037
-0.0419974
-0.308845
-0.0561917
-0.332967
-0.0722359
-0.350343
-0.088503
-0.362836
-0.104769
-0.372195
-0.120979
-0.379269
-0.137127
-0.384605
-0.153322
-0.388478
-0.169632
-0.391021
-0.186027
-0.392702
-0.20304
-0.393674
-0.393023
-0.216201
0.233696
-0.428468
-0.248789
0.218027
-0.432488
0.203461
-0.43718
0.189932
-0.442472
0.177019
-0.448618
0.164591
-0.455822
0.152603
-0.46408
0.141396
-0.474051
0.131666
-0.488324
0.120908
-0.504437
0.102551
-0.503381
0.07396
-0.478191
0.0414218
-0.436529
0.0115516
-0.391134
-0.0137361
-0.345578
-0.0342055
-0.29884
-0.04946
-0.251065
-0.0586989
-0.204385
-0.0619705
-0.164092
-0.0601838
-0.133592
-0.0548326
-0.115903
-0.0482302
-0.112039
-0.0423453
-0.120257
-0.037987
-0.137213
-0.0349936
-0.159604
-0.0333745
-0.18554
-0.033654
-0.214232
-0.0361895
-0.244256
-0.0417228
-0.273503
-0.0510674
-0.299501
-0.0637523
-0.320282
-0.0780981
-0.335997
-0.0929959
-0.347938
-0.108154
-0.357037
-0.123434
-0.363989
-0.138789
-0.36925
-0.154217
-0.373051
-0.169664
-0.375574
-0.185198
-0.377168
-0.200972
-0.3779
-0.37765
-0.216345
0.229694
-0.412855
-0.245307
0.214644
-0.417439
0.200001
-0.422536
0.185946
-0.428417
0.172359
-0.435031
0.159109
-0.442572
0.146194
-0.451165
0.134074
-0.461931
0.122862
-0.477112
0.107626
-0.489201
0.0826089
-0.478364
0.0496802
-0.445262
0.0160305
-0.402879
-0.0143225
-0.360781
-0.0407689
-0.319132
-0.0629262
-0.276683
-0.0798528
-0.234138
-0.0902888
-0.193949
-0.0940653
-0.160316
-0.091779
-0.135879
-0.0850418
-0.12264
-0.076178
-0.120903
-0.0672998
-0.129135
-0.0596681
-0.144844
-0.0536232
-0.165649
-0.0492582
-0.189905
-0.0472648
-0.216225
-0.0482543
-0.243267
-0.0529059
-0.268852
-0.0613364
-0.29107
-0.0725054
-0.309113
-0.0851445
-0.323358
-0.098586
-0.334497
-0.112512
-0.343111
-0.126736
-0.349764
-0.141173
-0.354813
-0.15578
-0.358444
-0.170546
-0.360807
-0.185453
-0.362262
-0.20044
-0.362913
-0.362585
-0.215505
0.225906
-0.396847
-0.241914
0.210498
-0.402031
0.1955
-0.407538
0.180932
-0.413849
0.166634
-0.420733
0.152489
-0.428427
0.138541
-0.437218
0.125203
-0.448593
0.111565
-0.463475
0.0907875
-0.468424
0.0607792
-0.448356
0.0259267
-0.410409
-0.00763722
-0.369315
-0.0380863
-0.330332
-0.065162
-0.292056
-0.0879876
-0.253857
-0.105146
-0.216979
-0.115188
-0.183908
-0.118192
-0.157311
-0.114928
-0.139142
-0.107152
-0.130416
-0.09708
-0.130975
-0.086651
-0.139564
-0.0771275
-0.154368
-0.0691693
-0.173607
-0.0632618
-0.195812
-0.0600976
-0.21939
-0.0604807
-0.242884
-0.064641
-0.264692
-0.0721297
-0.283582
-0.0818916
-0.299351
-0.0930492
-0.3122
-0.105152
-0.322394
-0.117897
-0.330367
-0.131107
-0.336554
-0.144675
-0.341244
-0.158522
-0.344597
-0.17256
-0.34677
-0.186809
-0.348013
-0.201262
-0.348459
-0.348054
-0.215793
0.221501
-0.380613
-0.237736
0.205755
-0.386285
0.190343
-0.392126
0.175139
-0.398645
0.160005
-0.405599
0.144866
-0.413288
0.12979
-0.422141
0.115007
-0.43381
0.0977585
-0.446226
0.0723992
-0.443064
0.0394339
-0.415391
0.00441904
-0.375395
-0.0284643
-0.336432
-0.0585839
-0.300212
-0.0854033
-0.265237
-0.107647
-0.231614
-0.123731
-0.200895
-0.132514
-0.175125
-0.134405
-0.155421
-0.130467
-0.143081
-0.122374
-0.138509
-0.112024
-0.141326
-0.101082
-0.150506
-0.090804
-0.164645
-0.0820928
-0.182319
-0.0757524
-0.202152
-0.072488
-0.222654
-0.0728584
-0.242513
-0.0767344
-0.260816
-0.0833296
-0.276986
-0.0918118
-0.290869
-0.101662
-0.30235
-0.112529
-0.311527
-0.124157
-0.318739
-0.136387
-0.324325
-0.149101
-0.32853
-0.162191
-0.331507
-0.17556
-0.3334
-0.189207
-0.334366
-0.20316
-0.334506
-0.333958
-0.217255
0.216618
-0.364102
-0.233128
0.200499
-0.370166
0.184537
-0.376164
0.168623
-0.382731
0.152623
-0.389599
0.136461
-0.397126
0.120109
-0.405789
0.103434
-0.417135
0.0826871
-0.425479
0.0542636
-0.414641
0.0201999
-0.381327
-0.0138514
-0.341343
-0.0455686
-0.304714
-0.0747213
-0.271059
-0.100345
-0.239614
-0.121015
-0.210944
-0.13545
-0.18646
-0.142994
-0.167581
-0.144106
-0.154308
-0.140055
-0.147132
-0.132299
-0.146264
-0.122395
-0.15123
-0.111792
-0.161109
-0.101775
-0.174662
-0.0933899
-0.190704
-0.0875509
-0.207991
-0.0848875
-0.225317
-0.0855384
-0.241863
-0.0890518
-0.257302
-0.0947596
-0.271279
-0.102155
-0.283473
-0.110871
-0.293634
-0.120634
-0.301764
-0.131243
-0.308129
-0.142552
-0.313016
-0.154446
-0.316636
-0.166813
-0.319141
-0.179549
-0.320664
-0.192645
-0.32127
-0.206114
-0.321038
-0.320319
-0.219753
0.211311
-0.347312
-0.228102
0.194776
-0.35363
0.178302
-0.35969
0.161686
-0.366115
0.144851
-0.372764
0.12769
-0.379965
0.11004
-0.388139
0.0913104
-0.398406
0.0679632
-0.402132
0.0377664
-0.384444
0.00426064
-0.347821
-0.0279996
-0.309083
-0.0581502
-0.274564
-0.0857724
-0.243437
-0.109709
-0.215677
-0.128533
-0.19212
-0.141279
-0.173714
-0.148036
-0.160824
-0.149074
-0.15327
-0.145535
-0.150672
-0.138738
-0.153062
-0.129971
-0.159997
-0.120541
-0.170539
-0.111643
-0.18356
-0.104394
-0.197953
-0.0996115
-0.212774
-0.0976684
-0.227261
-0.0983924
-0.241138
-0.101391
-0.254304
-0.10628
-0.266389
-0.112769
-0.276984
-0.120543
-0.28586
-0.129352
-0.292955
-0.139035
-0.298446
-0.149487
-0.302564
-0.160604
-0.305519
-0.172287
-0.307459
-0.184452
-0.308499
-0.197042
-0.30868
-0.210014
-0.308065
-0.306975
-0.223359
0.205747
-0.330334
-0.222725
0.188854
-0.336737
0.17193
-0.342766
0.154723
-0.348908
0.137146
-0.355186
0.119094
-0.361914
0.100233
-0.369278
0.0796908
-0.377864
0.0545089
-0.37695
0.0241845
-0.35412
-0.00749005
-0.316147
-0.0375855
-0.278988
-0.0658633
-0.246286
-0.0916633
-0.217637
-0.113842
-0.193498
-0.131096
-0.174866
-0.142786
-0.162024
-0.149232
-0.154378
-0.151057
-0.151444
-0.148861
-0.152868
-0.143754
-0.158169
-0.136866
-0.166886
-0.129316
-0.178088
-0.122186
-0.190691
-0.116411
-0.203727
-0.112607
-0.216579
-0.110951
-0.228916
-0.111409
-0.240681
-0.113802
-0.25191
-0.117939
-0.262253
-0.123574
-0.271349
-0.130472
-0.278962
-0.138425
-0.285002
-0.147288
-0.289583
-0.156971
-0.292881
-0.167387
-0.295103
-0.17845
-0.296395
-0.19008
-0.296869
-0.202202
-0.296558
-0.214759
-0.295507
-0.293946
-0.227788
0.200355
-0.313126
-0.217564
0.183094
-0.319476
0.165725
-0.325397
0.148045
-0.331228
0.129902
-0.337043
0.111163
-0.343175
0.0913894
-0.349504
0.0695535
-0.356028
0.0435379
-0.350934
0.0144671
-0.325049
-0.0146971
-0.286982
-0.0424809
-0.251204
-0.0687332
-0.220034
-0.092756
-0.193614
-0.113428
-0.172826
-0.129795
-0.158499
-0.141496
-0.150323
-0.148699
-0.147176
-0.151984
-0.148159
-0.15198
-0.152871
-0.149418
-0.160731
-0.145128
-0.171176
-0.139936
-0.18328
-0.13466
-0.195967
-0.130033
-0.208353
-0.126625
-0.219987
-0.124707
-0.230833
-0.124542
-0.240846
-0.126204
-0.250248
-0.129576
-0.25888
-0.134448
-0.266477
-0.14057
-0.27284
-0.147759
-0.277814
-0.155873
-0.281469
-0.164842
-0.283912
-0.174597
-0.285348
-0.18507
-0.285923
-0.196185
-0.285755
-0.207861
-0.284882
-0.220034
-0.283334
-0.281268
-0.232712
0.195466
-0.295887
-0.212705
0.17798
-0.301989
0.160298
-0.307715
0.142273
-0.313203
0.123736
-0.318506
0.104498
-0.323937
0.0841379
-0.329144
0.0618581
-0.333748
0.0361337
-0.32521
0.00916205
-0.298077
-0.0173481
-0.260472
-0.0428114
-0.225741
-0.0670596
-0.195785
-0.0894741
-0.1712
-0.109159
-0.153141
-0.125449
-0.142209
-0.138056
-0.137716
-0.147084
-0.138149
-0.152954
-0.142288
-0.156154
-0.149672
-0.156959
-0.159925
-0.15572
-0.172416
-0.152942
-0.186058
-0.149212
-0.199697
-0.14519
-0.212375
-0.141622
-0.223556
-0.139065
-0.23339
-0.137992
-0.241919
-0.13873
-0.24951
-0.141207
-0.256403
-0.145268
-0.262416
-0.15064
-0.267467
-0.157134
-0.27132
-0.164577
-0.274026
-0.1729
-0.275589
-0.182044
-0.276204
-0.19196
-0.276007
-0.202586
-0.275129
-0.213854
-0.273613
-0.22569
-0.271499
-0.268916
-0.238042
0.191686
-0.278446
-0.209127
0.174023
-0.284326
0.156154
-0.289847
0.13792
-0.29497
0.119167
-0.299752
0.0996787
-0.304448
0.0791038
-0.308569
0.056898
-0.311542
0.0324132
-0.300725
0.00805022
-0.273714
-0.0158172
-0.236605
-0.0389027
-0.202655
-0.0612621
-0.173426
-0.0822824
-0.150179
-0.101456
-0.133967
-0.11834
-0.125325
-0.132686
-0.12337
-0.144542
-0.126292
-0.153976
-0.132855
-0.161103
-0.142545
-0.165733
-0.155296
-0.167672
-0.170476
-0.167212
-0.186518
-0.164854
-0.202054
-0.161269
-0.215961
-0.157376
-0.227448
-0.154137
-0.236629
-0.151992
-0.244065
-0.151504
-0.249998
-0.152859
-0.255048
-0.155991
-0.259284
-0.160565
-0.262894
-0.166384
-0.265501
-0.173207
-0.267202
-0.180942
-0.267854
-0.189519
-0.267627
-0.198907
-0.266619
-0.209058
-0.264978
-0.219917
-0.262754
-0.231412
-0.260004
-0.256849
-0.243479
0.189369
-0.260838
-0.206977
0.17162
-0.266577
0.153706
-0.271933
0.135405
-0.276669
0.116629
-0.280977
0.0971395
-0.284958
0.0767151
-0.288145
0.0550564
-0.289884
0.0321445
-0.277813
0.010622
-0.252192
-0.0105343
-0.215448
-0.031187
-0.182002
-0.051676
-0.152937
-0.0714862
-0.130369
-0.0904632
-0.11499
-0.108385
-0.107404
-0.125057
-0.106697
-0.140159
-0.11119
-0.153471
-0.119544
-0.164505
-0.13151
-0.172867
-0.146934
-0.178161
-0.165182
-0.18026
-0.184419
-0.179673
-0.202641
-0.177018
-0.218616
-0.173227
-0.231239
-0.169289
-0.240567
-0.166226
-0.247128
-0.164616
-0.251608
-0.164601
-0.255062
-0.166578
-0.257308
-0.170183
-0.259288
-0.175283
-0.2604
-0.181502
-0.260983
-0.188708
-0.260649
-0.196765
-0.25957
-0.205662
-0.257722
-0.215352
-0.255288
-0.22581
-0.252296
-0.236937
-0.248877
-0.245114
-0.248673
0.188795
-0.243235
-0.206397
0.171097
-0.248879
0.153285
-0.254121
0.135055
-0.258439
0.11647
-0.262392
0.0972083
-0.265697
0.0772523
-0.268189
0.0564998
-0.269131
0.0352858
-0.256599
0.0166196
-0.233525
-0.00195466
-0.196874
-0.0200395
-0.163918
-0.0386631
-0.134313
-0.0572421
-0.11179
-0.0760373
-0.0961952
-0.0950139
-0.0884271
-0.113869
-0.0878423
-0.132148
-0.0929103
-0.149028
-0.102663
-0.163545
-0.116994
-0.174917
-0.135562
-0.183301
-0.156797
-0.188715
-0.179006
-0.190987
-0.200369
-0.190284
-0.219319
-0.18752
-0.234002
-0.183829
-0.244258
-0.179944
-0.251013
-0.177352
-0.2542
-0.17607
-0.256344
-0.176889
-0.256489
-0.179375
-0.256802
-0.18364
-0.256135
-0.189173
-0.25545
-0.195885
-0.253936
-0.203466
-0.25199
-0.211938
-0.24925
-0.221176
-0.24605
-0.231244
-0.242227
-0.242016
-0.238105
-0.233633
-0.253497
0.190111
-0.225808
-0.207538
0.172619
-0.231387
0.154996
-0.236498
0.137063
-0.240505
0.118818
-0.244147
0.100076
-0.246954
0.0808288
-0.248942
0.0612992
-0.249602
0.0415215
-0.236821
0.0257031
-0.217707
0.00928772
-0.180459
-0.00585273
-0.148777
-0.0226118
-0.117554
-0.0396863
-0.0947157
-0.0579995
-0.077882
-0.0774454
-0.0689812
-0.0978506
-0.0674372
-0.118515
-0.0722459
-0.138165
-0.0830131
-0.15583
-0.0993295
-0.170649
-0.120743
-0.18251
-0.144937
-0.19065
-0.170865
-0.195612
-0.195408
-0.19802
-0.216911
-0.197443
-0.23458
-0.195538
-0.246163
-0.191885
-0.254667
-0.189191
-0.256894
-0.186784
-0.25875
-0.186516
-0.256757
-0.187757
-0.255561
-0.191085
-0.252808
-0.195855
-0.25068
-0.202079
-0.247712
-0.209207
-0.244862
-0.217354
-0.241102
-0.226167
-0.237237
-0.235918
-0.232476
-0.246293
-0.22773
-0.222404
-0.257523
0.193183
-0.208522
-0.210469
0.176272
-0.214476
0.158626
-0.218852
0.14146
-0.223339
0.123383
-0.22607
0.105756
-0.229327
0.087203
-0.230389
0.0695147
-0.231913
0.0506024
-0.217909
0.0378202
-0.204925
0.02247
-0.165109
0.0111208
-0.137428
-0.00400554
-0.102428
-0.0191032
-0.0796181
-0.0363551
-0.0606302
-0.0556155
-0.0497208
-0.0759228
-0.0471298
-0.0979225
-0.0502462
-0.118422
-0.0625137
-0.138224
-0.0795273
-0.155059
-0.103908
-0.169401
-0.130594
-0.181292
-0.158974
-0.18967
-0.18703
-0.196721
-0.20986
-0.199348
-0.231952
-0.201439
-0.244072
-0.19932
-0.256786
-0.198134
-0.25808
-0.195558
-0.261326
-0.194794
-0.257521
-0.195097
-0.255257
-0.197355
-0.250551
-0.201343
-0.246692
-0.206929
-0.242126
-0.213656
-0.238136
-0.221559
-0.233198
-0.230032
-0.228765
-0.239533
-0.222975
-0.249547
-0.217717
-0.211401
-0.260549
0.198023
-0.214861
0.181505
0.164366
0.147813
0.130429
0.113494
0.0963337
0.0801747
0.0629917
0.0528535
0.0380368
0.0309921
0.016741
0.00465445
-0.011877
-0.0294248
-0.0485574
-0.0701457
-0.089361
-0.109797
-0.126732
-0.14291
-0.158211
-0.170324
-0.183379
-0.190378
-0.198393
-0.199467
-0.201734
-0.200293
-0.200514
-0.200263
-0.202084
-0.205165
-0.210305
-0.21643
-0.224334
-0.232384
-0.241924
-0.251447
-0.262468
0.181143
-0.244607
0.164291
-0.243697
0.148467
-0.241699
0.133922
-0.238952
0.120712
-0.235462
0.108718
-0.231485
0.0979637
-0.227288
0.088287
-0.223035
0.0794434
-0.218945
0.0712564
-0.215172
0.0633187
-0.211815
0.0551958
-0.209133
0.0463594
-0.206957
0.0372207
-0.206366
0.0266737
-0.205798
0.0164093
-0.205936
-0.196504
0.174438
-0.228736
0.158987
-0.228245
0.144216
-0.226929
0.130242
-0.224978
0.117285
-0.222505
0.105338
-0.219538
0.0943494
-0.216299
0.0843034
-0.212989
0.0750466
-0.209688
0.0664156
-0.206541
0.0581561
-0.203556
0.050108
-0.201084
0.041893
-0.198742
0.0331124
-0.197585
0.0233585
-0.196044
0.0135442
-0.196122
-0.18296
0.168003
-0.213499
0.1534
-0.213641
0.139454
-0.212983
0.126175
-0.211699
0.113645
-0.209975
0.101948
-0.207841
0.0910615
-0.205412
0.0809786
-0.202906
0.0716129
-0.200322
0.0628327
-0.19776
0.0544416
-0.195165
0.0462871
-0.19293
0.0381635
-0.190618
0.0299625
-0.189384
0.0213118
-0.187394
0.0116331
-0.186443
-0.171327
0.160538
-0.199952
0.147151
-0.200254
0.134188
-0.20002
0.121685
-0.199196
0.109676
-0.197966
0.0983148
-0.19648
0.0876565
-0.194754
0.0776462
-0.192896
0.0682598
-0.190936
0.0593877
-0.188888
0.0509698
-0.186747
0.0428553
-0.184815
0.0349035
-0.182666
0.0270113
-0.181492
0.0189315
-0.179314
0.00995776
-0.17747
-0.161369
0.153438
-0.18702
0.140829
-0.187646
0.128571
-0.187762
0.11677
-0.187395
0.105434
-0.186629
0.0945547
-0.185601
0.0842236
-0.184423
0.0744349
-0.183107
0.0651423
-0.181643
0.0563248
-0.180071
0.0479435
-0.178366
0.0398666
-0.176739
0.0321302
-0.17493
0.0244383
-0.1738
0.0168195
-0.171695
0.00857856
-0.169229
-0.152791
0.145397
-0.175636
0.133951
-0.1762
0.12263
-0.176441
0.111547
-0.176311
0.100826
-0.175908
0.0905404
-0.175315
0.0806796
-0.174562
0.0712116
-0.173639
0.0621487
-0.17258
0.0534702
-0.171392
0.0452047
-0.1701
0.0372685
-0.168802
0.0296972
-0.167359
0.022201
-0.166304
0.0149917
-0.164486
0.00731578
-0.161553
-0.145475
0.137657
-0.164809
0.127011
-0.165554
0.116468
-0.165899
0.106114
-0.165956
0.0960407
-0.165836
0.086306
-0.165581
0.0769322
-0.165188
0.0679226
-0.16463
0.0592249
-0.163883
0.0508312
-0.162998
0.0427628
-0.162032
0.0350081
-0.161048
0.0276014
-0.159952
0.0203545
-0.159057
0.0134441
-0.157575
0.00627668
-0.154385
-0.139198
0.129024
-0.155368
0.119458
-0.155987
0.109888
-0.156329
0.100389
-0.156458
0.0910716
-0.156518
0.0819779
-0.156487
0.0731185
-0.156329
0.0645172
-0.156028
0.0562106
-0.155576
0.0482251
-0.155013
0.0405148
-0.154321
0.033058
-0.153591
0.0258677
-0.152762
0.0188823
-0.152072
0.0121923
-0.150885
0.00550815
-0.147701
-0.13369
0.120663
-0.146452
0.111859
-0.147183
0.103053
-0.147523
0.0943524
-0.147757
0.085814
-0.14798
0.0774281
-0.148101
0.0691949
-0.148096
0.0611357
-0.147969
0.0532764
-0.147717
0.0456533
-0.14739
0.0382847
-0.146953
0.0311895
-0.146496
0.0243395
-0.145912
0.0176925
-0.145425
0.0112469
-0.14444
0.00494271
-0.141397
-0.128747
0.111498
-0.138781
0.103659
-0.139344
0.0957827
-0.139647
0.0879507
-0.139925
0.0801977
-0.140226
0.0725289
-0.140432
0.0649578
-0.140525
0.057515
-0.140526
0.0502241
-0.140426
0.0431127
-0.140278
0.0361831
-0.140023
0.0294692
-0.139782
0.0229536
-0.139396
0.0166394
-0.139111
0.010529
-0.138329
0.00462249
-0.135491
-0.124125
0.102571
-0.131591
0.0954265
-0.132199
0.0882931
-0.132514
0.081237
-0.132869
0.0742374
-0.133227
0.0672783
-0.133473
0.0603762
-0.133622
0.0535632
-0.133713
0.0468627
-0.133725
0.0403016
-0.133717
0.0338787
-0.1336
0.0276336
-0.133537
0.0215364
-0.133299
0.0156273
-0.133201
0.00988076
-0.132583
0.00440598
-0.130016
-0.119719
0.0929794
-0.125544
0.0867587
-0.125978
0.0805191
-0.126274
0.074273
-0.126623
0.0680186
-0.126972
0.0617703
-0.127225
0.0555536
-0.127406
0.0493937
-0.127553
0.0433084
-0.12764
0.0373177
-0.127726
0.0314262
-0.127709
0.0256821
-0.127792
0.0200516
-0.127669
0.0145903
-0.12774
0.00923548
-0.127228
0.0042036
-0.124984
-0.115515
0.0836406
-0.119961
0.0781104
-0.120448
0.0725971
-0.120761
0.0670912
-0.121117
0.0615652
-0.121446
0.0560299
-0.12169
0.0505097
-0.121886
0.045021
-0.122065
0.0395778
-0.122197
0.0341906
-0.122339
0.0288651
-0.122383
0.0236348
-0.122562
0.0184959
-0.12253
0.013513
-0.122757
0.00859563
-0.122311
0.00394626
-0.120335
-0.111569
0.0737688
-0.115478
0.0691199
-0.115799
0.0644418
-0.116083
0.0597003
-0.116376
0.0549014
-0.116648
0.05008
-0.116868
0.0452584
-0.117064
0.040446
-0.117252
0.0356571
-0.117408
0.0308969
-0.117579
0.0261778
-0.117664
0.021503
-0.117887
0.016861
-0.117888
0.0123386
-0.118235
0.00790472
-0.117877
0.00366162
-0.116091
-0.107907
0.0641505
-0.111433
0.0601768
-0.111825
0.0561862
-0.112092
0.0521482
-0.112338
0.0480638
-0.112563
0.0439517
-0.112756
0.0398235
-0.112936
0.0356837
-0.113112
0.0315463
-0.11327
0.027413
-0.113446
0.023306
-0.113557
0.0192166
-0.113798
0.0151366
-0.113808
0.0111042
-0.114202
0.00710347
-0.113876
0.00331617
-0.112304
-0.104591
0.0541336
-0.108448
0.0509884
-0.10868
0.0477639
-0.108868
0.044456
-0.10903
0.0410847
-0.109192
0.0376749
-0.109346
0.0342351
-0.109496
0.0307669
-0.109644
0.0272808
-0.109784
0.0237739
-0.109939
0.0202708
-0.110054
0.0167556
-0.110283
0.0132706
-0.110323
0.00978889
-0.110721
0.00623676
-0.110324
0.00295492
-0.109022
-0.101636
0.0444215
-0.105896
0.0418902
-0.106149
0.0393093
-0.106287
0.036684
-0.106404
0.0340103
-0.106518
0.0312924
-0.106629
0.0285327
-0.106736
0.0257324
-0.106844
0.0228995
-0.106951
0.0200298
-0.107069
0.017144
-0.107168
0.0142107
-0.107349
0.0112844
-0.107396
0.0082988
-0.107735
0.00529993
-0.107325
0.00248193
-0.106204
-0.0991543
0.0343904
-0.104337
0.032658
-0.104416
0.0308111
-0.10444
0.0288908
-0.104484
0.026904
-0.104531
0.02486
-0.104584
0.022764
-0.10464
0.0206187
-0.104699
0.0184288
-0.104762
0.0161913
-0.104832
0.0139229
-0.1049
0.0115973
-0.105024
0.00927839
-0.105077
0.00685424
-0.105311
0.00447227
-0.104943
0.00209441
-0.103826
-0.0970599
0.0246934
-0.10319
0.0235392
-0.103262
0.022339
-0.10324
0.0210856
-0.103231
0.019772
-0.103218
0.0183973
-0.10321
0.01696
-0.103203
0.0154614
-0.1032
0.0139034
-0.103203
0.0122842
-0.103212
0.010615
-0.103231
0.0088773
-0.103286
0.00711297
-0.103313
0.00524079
-0.103439
0.00342347
-0.103126
0.00152121
-0.101924
-0.0955387
0.0145892
-0.102973
0.014141
-0.102814
0.0136117
-0.10271
0.0130109
-0.10263
0.0123442
-0.102551
0.0116118
-0.102477
0.010816
-0.102407
0.00995687
-0.102341
0.0090338
-0.10228
0.00804786
-0.102227
0.00700181
-0.102185
0.00587952
-0.102164
0.00472617
-0.10216
0.00343481
-0.102147
0.00221167
-0.101903
0.000852544
-0.100565
-0.0946862
0.00499647
-0.10308
0.00515505
-0.102973
0.00528308
-0.102838
0.00533831
-0.102685
0.00532115
-0.102534
0.00522849
-0.102385
0.00506339
-0.102242
0.00482525
-0.102103
0.00451355
-0.101969
0.00412873
-0.101842
0.00366861
-0.101725
0.00313068
-0.101626
0.00253501
-0.101564
0.00182749
-0.10144
0.0011583
-0.101234
0.000333108
-0.0997398
-0.0943531
-0.00467809
-0.104287
-0.00378717
-0.103864
-0.00301644
-0.103609
-0.00233476
-0.103367
-0.00172376
-0.103145
-0.00119153
-0.102917
-0.000738574
-0.102695
-0.000365589
-0.102476
-7.18104e-05
-0.102262
0.000142878
-0.102056
0.000277462
-0.101859
0.000335453
-0.101684
0.000318197
-0.101547
0.000202557
-0.101324
9.00866e-05
-0.101121
-0.000197507
-0.0994522
-0.0945506
-0.0142057
-0.105589
-0.0127599
-0.105309
-0.0113405
-0.105029
-0.0100215
-0.104686
-0.00879646
-0.10437
-0.00765863
-0.104055
-0.00660492
-0.103749
-0.00563427
-0.103447
-0.00474562
-0.103151
-0.0039386
-0.102863
-0.00321369
-0.102584
-0.0025657
-0.102332
-0.00199993
-0.102113
-0.00152156
-0.101803
-0.00105109
-0.101592
-0.000778216
-0.0997251
-0.0953288
-0.0235804
-0.108115
-0.0214659
-0.107424
-0.0194805
-0.107014
-0.0175804
-0.106586
-0.015766
-0.106184
-0.0140401
-0.105781
-0.0124023
-0.105386
-0.0108511
-0.104998
-0.00938455
-0.104618
-0.00800158
-0.104246
-0.00670051
-0.103885
-0.00547595
-0.103557
-0.00433743
-0.103251
-0.00326787
-0.102872
-0.00222943
-0.10263
-0.00134227
-0.100612
-0.0966711
-0.0328107
-0.110594
-0.0301301
-0.110104
-0.0275155
-0.109629
-0.0250136
-0.109088
-0.0226172
-0.108581
-0.0203192
-0.108079
-0.0181153
-0.10759
-0.0160019
-0.107111
-0.0139761
-0.106643
-0.0120361
-0.106186
-0.010178
-0.105743
-0.00839743
-0.105337
-0.00670221
-0.104946
-0.00506033
-0.104514
-0.00346003
-0.10423
-0.00192415
-0.102148
-0.0985952
-0.0418114
-0.114371
-0.0385065
-0.113409
-0.0353497
-0.112785
-0.0322946
-0.112143
-0.0293415
-0.111534
-0.0264894
-0.110931
-0.0237355
-0.110344
-0.0210755
-0.109771
-0.0185059
-0.109213
-0.0160237
-0.108669
-0.0136242
-0.108143
-0.0113032
-0.107658
-0.00906019
-0.107189
-0.00685696
-0.106717
-0.00471504
-0.106372
-0.00243946
-0.104424
-0.101035
-0.0506555
-0.117975
-0.0468085
-0.117256
-0.0430584
-0.116535
-0.0394373
-0.115764
-0.0359376
-0.115033
-0.0325479
-0.11432
-0.0292612
-0.113631
-0.0260713
-0.112961
-0.0229734
-0.112311
-0.0199609
-0.111681
-0.0170218
-0.111082
-0.0141512
-0.110529
-0.0113492
-0.109991
-0.00852966
-0.109537
-0.0058301
-0.109072
-0.00294226
-0.107312
-0.103977
-0.0592636
-0.122946
-0.0548275
-0.121693
-0.0505668
-0.120796
-0.0464261
-0.119905
-0.0424034
-0.119056
-0.0384938
-0.11823
-0.0346908
-0.117434
-0.0309866
-0.116665
-0.0273717
-0.115926
-0.0238338
-0.115219
-0.0203511
-0.114565
-0.0169243
-0.113956
-0.0135389
-0.113377
-0.0101744
-0.112901
-0.00690907
-0.112337
-0.00346393
-0.110757
-0.107441
-0.0677048
-0.127632
-0.0627601
-0.126637
-0.057941
-0.125615
-0.0532721
-0.124574
-0.0487377
-0.123591
-0.0443226
-0.122645
-0.0400156
-0.121741
-0.0358053
-0.120876
-0.0316795
-0.120052
-0.0276085
-0.11929
-0.0235961
-0.118577
-0.0196431
-0.117909
-0.0157302
-0.117289
-0.0118439
-0.116788
-0.00800714
-0.116174
-0.00401024
-0.114754
-0.111451
-0.0758979
-0.13371
-0.0704192
-0.132116
-0.0651279
-0.130907
-0.0599701
-0.129732
-0.0549421
-0.128619
-0.0500333
-0.127554
-0.0452311
-0.126543
-0.0405229
-0.125584
-0.0358826
-0.124692
-0.0313094
-0.123863
-0.0267928
-0.123094
-0.0223246
-0.122377
-0.0178886
-0.121725
-0.0134816
-0.121195
-0.00911392
-0.120542
-0.00457255
-0.119295
-0.116024
-0.0839698
-0.139424
-0.0779959
-0.13809
-0.0721806
-0.136722
-0.0665316
-0.13538
-0.0610229
-0.134127
-0.0556333
-0.132944
-0.0503467
-0.13183
-0.0451477
-0.130783
-0.0400227
-0.129817
-0.0349567
-0.128929
-0.0299407
-0.12811
-0.0249644
-0.127353
-0.0200172
-0.126673
-0.0151009
-0.126111
-0.0101921
-0.12545
-0.00512079
-0.124366
-0.121144
-0.0917489
-0.146515
-0.0853133
-0.144525
-0.0790674
-0.142968
-0.0729634
-0.141484
-0.0669926
-0.140098
-0.0611373
-0.138799
-0.0553798
-0.137587
-0.0497016
-0.136461
-0.0441009
-0.135417
-0.0385527
-0.134477
-0.0330471
-0.133615
-0.0275723
-0.132828
-0.0221174
-0.132128
-0.0166838
-0.131545
-0.0112391
-0.130895
-0.00566484
-0.12994
-0.126809
-0.0994709
-0.153178
-0.0925565
-0.15144
-0.0858293
-0.149695
-0.0792756
-0.148038
-0.0728599
-0.146514
-0.0665558
-0.145103
-0.0603426
-0.143801
-0.0542025
-0.142601
-0.0481204
-0.141499
-0.0420996
-0.140498
-0.0361097
-0.139605
-0.0301437
-0.138794
-0.0241913
-0.13808
-0.0182531
-0.137483
-0.0122953
-0.136853
-0.00622181
-0.136014
-0.133031
-0.106859
-0.161168
-0.0995573
-0.158742
-0.0924426
-0.15681
-0.085471
-0.15501
-0.0786274
-0.153357
-0.0718889
-0.151841
-0.065234
-0.150455
-0.0586438
-0.149191
-0.0521018
-0.148041
-0.0456009
-0.146999
-0.0391356
-0.14607
-0.0326806
-0.145249
-0.0262328
-0.144528
-0.0197928
-0.143923
-0.0133294
-0.143316
-0.00676465
-0.142579
-0.139796
-0.114229
-0.168686
-0.106476
-0.166495
-0.0989246
-0.164361
-0.0915417
-0.162393
-0.0842847
-0.160614
-0.0771245
-0.159002
-0.0700389
-0.157541
-0.0630087
-0.156222
-0.0560183
-0.155032
-0.0490537
-0.153964
-0.0421152
-0.153009
-0.0351867
-0.152177
-0.0282549
-0.15146
-0.0213212
-0.150857
-0.0143597
-0.150278
-0.007309
-0.149629
-0.147105
-0.121229
-0.177456
-0.113156
-0.174568
-0.105253
-0.172263
-0.097482
-0.170164
-0.089823
-0.168273
-0.0822508
-0.166574
-0.0747438
-0.165048
-0.0672827
-0.163683
-0.0598516
-0.162463
-0.0524366
-0.161379
-0.045026
-0.16042
-0.0376279
-0.159575
-0.0302246
-0.158863
-0.0228192
-0.158262
-0.0153836
-0.157713
-0.00785873
-0.157154
-0.154963
-0.128244
-0.185724
-0.11975
-0.183061
-0.111455
-0.180558
-0.103304
-0.178315
-0.0952573
-0.17632
-0.0872855
-0.174546
-0.0793678
-0.172966
-0.0714856
-0.171565
-0.0636236
-0.170325
-0.0557684
-0.169234
-0.0479087
-0.168279
-0.0400342
-0.16745
-0.0321569
-0.16674
-0.0242753
-0.166144
-0.0163658
-0.165623
-0.00837543
-0.165145
-0.163339
-0.134889
-0.195122
-0.126143
-0.191807
-0.117537
-0.189164
-0.109034
-0.186818
-0.100617
-0.184737
-0.0922621
-0.182901
-0.0839483
-0.18128
-0.0756575
-0.179856
-0.0673746
-0.178608
-0.0590879
-0.177521
-0.0507882
-0.176579
-0.0424688
-0.175769
-0.0341276
-0.175081
-0.0257619
-0.174509
-0.0173553
-0.174029
-0.00889728
-0.173603
-0.172236
-0.141545
-0.203994
-0.132424
-0.200928
-0.12347
-0.198118
-0.114623
-0.195665
-0.105847
-0.193513
-0.0971194
-0.191628
-0.0884196
-0.189979
-0.0797299
-0.188545
-0.0710358
-0.187302
-0.0623264
-0.18623
-0.0535935
-0.185312
-0.0448323
-0.184531
-0.0360418
-0.183872
-0.027225
-0.183326
-0.0183729
-0.182882
-0.00942796
-0.182548
-0.181664
-0.147738
-0.213921
-0.138395
-0.210271
-0.129132
-0.207381
-0.119925
-0.204872
-0.11077
-0.202669
-0.101651
-0.200746
-0.0925511
-0.19908
-0.0834533
-0.197643
-0.0743465
-0.196409
-0.0652228
-0.195354
-0.0560759
-0.194459
-0.0468989
-0.193708
-0.0376837
-0.193087
-0.0284255
-0.192584
-0.0191204
-0.192187
-0.00978453
-0.191883
-0.191449
-0.200669
-0.174107
0.214505
-0.187999
-0.179361
-0.175078
-0.184572
-0.163126
-0.189432
-0.151087
-0.194092
-0.139846
-0.198511
-0.128572
-0.202726
-0.117929
-0.206685
-0.107306
-0.210403
-0.0971859
-0.213842
-0.0871356
-0.217016
-0.0774698
-0.21991
-0.0678978
-0.222516
-0.0586032
-0.224837
-0.0494091
-0.226855
-0.0403964
-0.228577
-0.0314757
-0.229986
-0.0226511
-0.231088
-0.013897
-0.231871
-0.00516408
-0.23234
0.00353278
-0.232486
0.0122711
-0.232315
0.0210233
-0.231823
0.0298645
-0.231013
0.0387827
-0.229883
0.0478242
-0.228443
0.0570173
-0.226689
0.0663552
-0.224634
0.0759306
-0.222275
0.0856571
-0.219624
0.0957181
-0.216683
0.10592
-0.21346
0.116567
-0.209967
0.127326
-0.206197
0.138653
-0.202183
0.150029
-0.197892
0.162106
-0.193383
0.174184
-0.188638
0.187151
-0.183709
0.200004
-0.178519
-0.173189
-0.197862
-0.187084
0.210838
-0.185207
-0.192016
-0.172976
-0.196803
-0.161062
-0.201346
-0.149496
-0.205658
-0.138268
-0.20974
-0.127342
-0.213652
-0.116723
-0.217305
-0.106381
-0.220745
-0.0963055
-0.223917
-0.0864628
-0.226858
-0.0768488
-0.229524
-0.0674246
-0.23194
-0.0581863
-0.234075
-0.049095
-0.235946
-0.0401421
-0.23753
-0.0312922
-0.238836
-0.0225306
-0.23985
-0.0138267
-0.240575
-0.00516036
-0.241006
0.00349522
-0.241142
0.012164
-0.240984
0.0208709
-0.24053
0.0296401
-0.239782
0.0384976
-0.238741
0.0474641
-0.23741
0.0565692
-0.235794
0.0658287
-0.233894
0.0752753
-0.231722
0.0849202
-0.229269
0.0947971
-0.22656
0.104916
-0.223578
0.115308
-0.220358
0.125985
-0.216874
0.13697
-0.213169
0.148287
-0.209208
0.15995
-0.205046
0.17196
-0.200649
0.184347
-0.196096
0.197135
-0.191307
-0.186324
-0.195401
-0.19983
0.208147
-0.183011
-0.204406
-0.17101
-0.208803
-0.159343
-0.213013
-0.147998
-0.217004
-0.136938
-0.2208
-0.126193
-0.224397
-0.11572
-0.227778
-0.105522
-0.230943
-0.0955605
-0.233878
-0.0858355
-0.236583
-0.0763118
-0.239047
-0.0669827
-0.24127
-0.0578168
-0.243241
-0.0488018
-0.244961
-0.0399093
-0.246422
-0.0311217
-0.247623
-0.0224132
-0.248558
-0.0137626
-0.249225
-0.00514627
-0.249622
0.00345945
-0.249748
0.0120774
-0.249602
0.0207319
-0.249184
0.0294457
-0.248496
0.0382422
-0.247537
0.0471448
-0.246312
0.0561747
-0.244824
0.065357
-0.243076
0.0747087
-0.241073
0.0842572
-0.238818
0.0940149
-0.236318