/*--------------------------------*- C++ -*----------------------------------*\
  =========                 |
  \\      /  F ield         | OpenFOAM: The Open Source CFD Toolbox
   \\    /   O peration     | Website:  https://openfoam.org
    \\  /    A nd           | Version:  6
     \\/     M anipulation  |
\*---------------------------------------------------------------------------*/
FoamFile
{
    version     2.0;
    format      ascii;
    class       volScalarField;
    location    "2.61";
    object      rho;
}
// * * * * * * * * * * * * * * * * * * * * * * * * * * * * * * * * * * * * * //

dimensions      [1 -3 0 0 0 0 0];

internalField   nonuniform List<scalar> 
10000
(
1.40001
1.40001
1.40001
1.40001
1.40001
1.40001
1.40001
1.40001
1.40001
1.40001
1.40001
1.40001
1.40001
1.40001
1.40001
1.40001
1.40001
1.40001
1.4
1.40001
1.40001
1.40001
1.40001
1.40001
1.40001
1.4
1.40001
1.4
1.40001
1.4
1.40001
1.4
1.40001
1.4
1.40001
1.4
1.40001
1.4
1.40001
1.4
1.40001
1.4
1.40001
1.4
1.4
1.4
1.4
1.4
1.4
1.4
1.4
1.4
1.4
1.4
1.39999
1.39999
1.39999
1.4
1.4
1.4
1.4
1.40001
1.40001
1.40001
1.40001
1.40001
1.40002
1.40002
1.40002
1.40001
1.40001
1.40001
1.40001
1.40001
1.40001
1.40001
1.40001
1.40001
1.40001
1.40001
1.40001
1.40001
1.40001
1.40001
1.40001
1.40001
1.40001
1.40001
1.40001
1.40001
1.40001
1.40001
1.40001
1.40001
1.40001
1.40001
1.40001
1.40001
1.40001
1.40001
1.40001
1.40001
1.40001
1.40001
1.40001
1.40001
1.40001
1.40001
1.40001
1.40001
1.40001
1.40001
1.40001
1.40001
1.40001
1.40001
1.40001
1.40001
1.40001
1.40001
1.4
1.40001
1.4
1.40001
1.4
1.40001
1.4
1.40001
1.4
1.40001
1.40001
1.4
1.40001
1.40001
1.4
1.40001
1.40001
1.40001
1.4
1.40001
1.4
1.40001
1.4
1.4
1.4
1.4
1.4
1.4
1.4
1.4
1.4
1.39999
1.39999
1.39999
1.39999
1.39999
1.39999
1.39999
1.39999
1.4
1.4
1.40001
1.40001
1.40001
1.40002
1.40002
1.40002
1.40002
1.40002
1.40002
1.40002
1.40002
1.40001
1.40001
1.40001
1.40001
1.40001
1.40001
1.40001
1.40001
1.40001
1.40001
1.40001
1.40001
1.40001
1.40001
1.40001
1.40001
1.40001
1.40001
1.40001
1.40001
1.40001
1.40001
1.40001
1.40001
1.40001
1.40001
1.40001
1.40001
1.40001
1.40001
1.40001
1.40001
1.40001
1.40001
1.40001
1.40001
1.40001
1.40001
1.40001
1.40001
1.40001
1.40001
1.40001
1.40001
1.4
1.40001
1.4
1.40001
1.4
1.40001
1.4
1.40001
1.4
1.40001
1.40001
1.4
1.40001
1.4
1.40001
1.4
1.40001
1.4
1.40001
1.4
1.40001
1.40001
1.40001
1.40001
1.40001
1.4
1.4
1.4
1.4
1.4
1.4
1.4
1.4
1.39999
1.39999
1.39999
1.39998
1.39998
1.39998
1.39998
1.39998
1.39998
1.39999
1.39999
1.4
1.40001
1.40001
1.40002
1.40003
1.40003
1.40003
1.40003
1.40003
1.40003
1.40002
1.40002
1.40002
1.40002
1.40001
1.40001
1.40001
1.40001
1.40001
1.40001
1.40001
1.40001
1.40001
1.40001
1.40001
1.40001
1.40001
1.40001
1.40001
1.40001
1.40001
1.40001
1.40001
1.40001
1.40001
1.40001
1.40001
1.40001
1.40001
1.40001
1.40001
1.40001
1.40001
1.40001
1.40001
1.40001
1.40001
1.40001
1.40001
1.40001
1.40001
1.40001
1.40001
1.40001
1.40001
1.40001
1.4
1.40001
1.4
1.40001
1.4
1.40001
1.4
1.40001
1.4
1.40001
1.4
1.40001
1.40001
1.4
1.40001
1.4
1.40001
1.4
1.40001
1.4
1.40001
1.40001
1.4
1.40001
1.40001
1.4
1.4
1.4
1.4
1.4
1.4
1.4
1.39999
1.39999
1.39998
1.39998
1.39997
1.39997
1.39997
1.39997
1.39997
1.39997
1.39998
1.39999
1.4
1.40001
1.40002
1.40003
1.40004
1.40004
1.40004
1.40005
1.40004
1.40004
1.40004
1.40003
1.40003
1.40002
1.40002
1.40001
1.40001
1.40001
1.40001
1.40001
1.40001
1.40001
1.40001
1.40001
1.40001
1.40001
1.40001
1.40001
1.40001
1.40001
1.40001
1.40001
1.40001
1.40001
1.40001
1.40001
1.40001
1.40001
1.40001
1.40001
1.40001
1.40001
1.40001
1.40001
1.40001
1.40001
1.40001
1.40001
1.40001
1.40001
1.40001
1.40001
1.40001
1.40001
1.4
1.40001
1.4
1.40001
1.4
1.40001
1.4
1.40001
1.4
1.40001
1.4
1.40001
1.40001
1.4
1.40001
1.4
1.40001
1.4
1.40001
1.4
1.40001
1.4
1.40001
1.40001
1.40001
1.40001
1.40001
1.4
1.4
1.4
1.4
1.4
1.4
1.39999
1.39999
1.39998
1.39997
1.39997
1.39996
1.39995
1.39995
1.39995
1.39995
1.39996
1.39997
1.39998
1.4
1.40001
1.40003
1.40004
1.40005
1.40006
1.40007
1.40007
1.40006
1.40006
1.40005
1.40004
1.40004
1.40003
1.40002
1.40002
1.40001
1.40001
1.40001
1.40001
1.40001
1.40001
1.40001
1.40001
1.40001
1.40001
1.40001
1.40001
1.40001
1.40001
1.40001
1.40001
1.40001
1.40001
1.40001
1.40001
1.40001
1.40001
1.40001
1.40001
1.40001
1.40001
1.40001
1.40001
1.40001
1.40001
1.40001
1.40001
1.40001
1.40001
1.40001
1.40001
1.4
1.40001
1.4
1.40001
1.4
1.40001
1.4
1.40001
1.4
1.40001
1.40001
1.40001
1.40001
1.4
1.40001
1.4
1.40001
1.4
1.40001
1.40001
1.40001
1.4
1.40001
1.4
1.40001
1.40001
1.40001
1.40001
1.40001
1.4
1.4
1.4
1.4
1.4
1.39999
1.39999
1.39998
1.39997
1.39996
1.39995
1.39994
1.39993
1.39993
1.39993
1.39993
1.39994
1.39996
1.39998
1.4
1.40002
1.40004
1.40006
1.40008
1.40009
1.4001
1.4001
1.40009
1.40008
1.40007
1.40006
1.40005
1.40004
1.40003
1.40002
1.40002
1.40001
1.40001
1.40001
1.40001
1.40001
1.40001
1.40001
1.40001
1.4
1.4
1.40001
1.40001
1.40001
1.40001
1.40001
1.40001
1.40001
1.40001
1.40001
1.40001
1.40001
1.40001
1.40001
1.40001
1.40001
1.40001
1.40001
1.40001
1.40001
1.40001
1.40001
1.40001
1.40001
1.40001
1.40001
1.4
1.40001
1.4
1.40001
1.40001
1.40001
1.4
1.40001
1.40001
1.40001
1.40001
1.4
1.40001
1.4
1.40001
1.4
1.40001
1.40001
1.40001
1.40001
1.40001
1.4
1.40001
1.4
1.40001
1.40001
1.40001
1.40001
1.40001
1.4
1.4
1.4
1.4
1.4
1.39999
1.39998
1.39997
1.39996
1.39994
1.39993
1.39991
1.3999
1.3999
1.3999
1.39991
1.39993
1.39995
1.39998
1.40001
1.40004
1.40007
1.4001
1.40012
1.40013
1.40014
1.40014
1.40013
1.40012
1.4001
1.40009
1.40007
1.40006
1.40004
1.40003
1.40002
1.40002
1.40001
1.40001
1.40001
1.40001
1.40001
1.40001
1.4
1.4
1.4
1.4
1.4
1.40001
1.40001
1.40001
1.40001
1.40001
1.40001
1.40001
1.40001
1.40001
1.40001
1.40001
1.40001
1.40001
1.40001
1.40001
1.40001
1.40001
1.40001
1.40001
1.40001
1.40001
1.40001
1.40001
1.4
1.40001
1.40001
1.40001
1.40001
1.40001
1.40001
1.40001
1.40001
1.4
1.40001
1.4
1.40001
1.4
1.40001
1.4
1.40001
1.4
1.40001
1.4
1.40001
1.4
1.40001
1.40001
1.40001
1.40001
1.40001
1.40001
1.40001
1.40001
1.4
1.4
1.4
1.39999
1.39998
1.39997
1.39996
1.39994
1.39992
1.3999
1.39988
1.39987
1.39987
1.39987
1.39989
1.39991
1.39994
1.39999
1.40003
1.40008
1.40012
1.40015
1.40018
1.4002
1.4002
1.4002
1.40019
1.40017
1.40015
1.40012
1.4001
1.40008
1.40006
1.40004
1.40003
1.40002
1.40001
1.40001
1.40001
1.40001
1.40001
1.4
1.4
1.4
1.4
1.4
1.4
1.4
1.40001
1.40001
1.40001
1.40001
1.40001
1.40001
1.40001
1.40001
1.40001
1.40001
1.40001
1.40001
1.40001
1.40001
1.40001
1.40001
1.40001
1.40001
1.40001
1.40001
1.40001
1.40001
1.40001
1.40001
1.40001
1.4
1.40001
1.4
1.40001
1.4
1.40001
1.4
1.40001
1.40001
1.4
1.40001
1.40001
1.40001
1.40001
1.40001
1.40001
1.4
1.40001
1.40001
1.40001
1.40001
1.40001
1.40001
1.40001
1.40001
1.40001
1.40001
1.40001
1.4
1.4
1.39999
1.39998
1.39996
1.39994
1.39992
1.39989
1.39987
1.39985
1.39983
1.39983
1.39984
1.39987
1.39991
1.39996
1.40002
1.40008
1.40014
1.4002
1.40025
1.40028
1.4003
1.4003
1.40029
1.40027
1.40024
1.40021
1.40017
1.40014
1.40011
1.40008
1.40006
1.40004
1.40003
1.40002
1.40001
1.40001
1.40001
1.4
1.4
1.4
1.4
1.4
1.4
1.4
1.4
1.4
1.40001
1.40001
1.40001
1.40001
1.40001
1.40001
1.40001
1.40001
1.40001
1.40001
1.40001
1.40001
1.40001
1.40001
1.40001
1.40001
1.40001
1.40001
1.40001
1.40001
1.40001
1.40001
1.4
1.40001
1.4
1.40001
1.4
1.40001
1.4
1.40001
1.4
1.40001
1.40001
1.4
1.40001
1.40001
1.4
1.40001
1.4
1.40001
1.40001
1.40001
1.40001
1.40001
1.40001
1.40001
1.40001
1.40001
1.40001
1.40001
1.40001
1.40001
1.4
1.4
1.39999
1.39997
1.39995
1.39992
1.39989
1.39986
1.39983
1.39981
1.3998
1.39981
1.39984
1.39988
1.39994
1.40002
1.4001
1.40019
1.40027
1.40034
1.4004
1.40043
1.40045
1.40044
1.40042
1.40039
1.40034
1.40029
1.40024
1.40019
1.40015
1.40011
1.40008
1.40005
1.40003
1.40002
1.40001
1.40001
1.40001
1.4
1.4
1.4
1.4
1.4
1.4
1.4
1.4
1.4
1.4
1.40001
1.40001
1.40001
1.40001
1.40001
1.40001
1.40001
1.40001
1.40001
1.40001
1.40001
1.40001
1.40001
1.40001
1.40001
1.40001
1.40001
1.40001
1.40001
1.40001
1.40001
1.4
1.40001
1.4
1.40001
1.40001
1.40001
1.40001
1.40001
1.40001
1.4
1.40001
1.4
1.40001
1.40001
1.4
1.40001
1.4
1.40001
1.40001
1.40001
1.40001
1.40001
1.40001
1.40001
1.40001
1.40001
1.40001
1.40001
1.40001
1.40001
1.4
1.4
1.39998
1.39996
1.39993
1.3999
1.39986
1.39983
1.3998
1.39978
1.39979
1.39981
1.39987
1.39995
1.40005
1.40016
1.40028
1.40039
1.4005
1.40058
1.40064
1.40068
1.40068
1.40066
1.40061
1.40055
1.40048
1.40041
1.40033
1.40026
1.4002
1.40014
1.4001
1.40007
1.40004
1.40002
1.40001
1.40001
1.4
1.4
1.4
1.4
1.4
1.4
1.4
1.4
1.4
1.4
1.4
1.4
1.40001
1.40001
1.40001
1.40001
1.40001
1.40001
1.40001
1.40001
1.40001
1.40001
1.40001
1.40001
1.40001
1.40001
1.40001
1.40001
1.40001
1.40001
1.40001
1.40001
1.4
1.40001
1.4
1.40001
1.40001
1.40001
1.40001
1.40001
1.4
1.40001
1.40001
1.40001
1.4
1.40001
1.4
1.40001
1.40001
1.4
1.40001
1.40001
1.4
1.40001
1.40001
1.40001
1.40001
1.40001
1.40001
1.40001
1.40001
1.40001
1.40001
1.4
1.39998
1.39995
1.39992
1.39988
1.39984
1.3998
1.39978
1.39978
1.39981
1.39988
1.39998
1.40011
1.40027
1.40044
1.40061
1.40076
1.4009
1.40099
1.40105
1.40107
1.40105
1.40099
1.4009
1.4008
1.40069
1.40057
1.40046
1.40036
1.40027
1.40019
1.40013
1.40008
1.40005
1.40003
1.40001
1.40001
1.4
1.4
1.4
1.4
1.4
1.4
1.4
1.4
1.4
1.4
1.4
1.4
1.4
1.40001
1.40001
1.40001
1.40001
1.40001
1.40001
1.40001
1.40001
1.40001
1.40001
1.40001
1.40001
1.40001
1.40001
1.40001
1.40001
1.40001
1.4
1.40001
1.4
1.40001
1.40001
1.40001
1.40001
1.4
1.40001
1.40001
1.4
1.40001
1.4
1.40001
1.4
1.40001
1.4
1.40001
1.4
1.40001
1.40001
1.40001
1.40001
1.40001
1.40001
1.40001
1.40001
1.40001
1.40001
1.40002
1.40002
1.40002
1.40001
1.4
1.39998
1.39995
1.39991
1.39987
1.39983
1.3998
1.3998
1.39984
1.39992
1.40006
1.40024
1.40046
1.4007
1.40095
1.40119
1.4014
1.40157
1.40168
1.40172
1.4017
1.40162
1.4015
1.40135
1.40117
1.40099
1.40081
1.40064
1.40049
1.40036
1.40025
1.40017
1.40011
1.40006
1.40003
1.40001
1.4
1.4
1.4
1.4
1.4
1.4
1.4
1.4
1.4
1.4
1.4
1.4
1.4
1.4
1.40001
1.40001
1.40001
1.40001
1.40001
1.40001
1.40001
1.40001
1.40001
1.40001
1.40001
1.40001
1.40001
1.40001
1.40001
1.40001
1.40001
1.4
1.40001
1.4
1.40001
1.40001
1.4
1.40001
1.40001
1.4
1.40001
1.4
1.40001
1.4
1.40001
1.40001
1.4
1.40001
1.40001
1.4
1.40001
1.40001
1.40001
1.40001
1.40001
1.40001
1.40001
1.40001
1.40002
1.40002
1.40002
1.40003
1.40003
1.40002
1.40001
1.39998
1.39995
1.39991
1.39987
1.39984
1.39985
1.3999
1.4
1.40018
1.40043
1.40074
1.40109
1.40147
1.40185
1.40219
1.40247
1.40267
1.40278
1.40278
1.4027
1.40253
1.4023
1.40202
1.40173
1.40143
1.40115
1.4009
1.40068
1.40049
1.40034
1.40022
1.40014
1.40008
1.40004
1.40001
1.4
1.39999
1.39999
1.39999
1.4
1.4
1.4
1.4
1.4
1.4
1.4
1.4
1.4
1.4
1.4
1.40001
1.40001
1.40001
1.40001
1.40001
1.40001
1.40001
1.40001
1.40001
1.40001
1.40001
1.40001
1.40001
1.40001
1.40001
1.40001
1.4
1.40001
1.40001
1.40001
1.40001
1.4
1.40001
1.4
1.40001
1.40001
1.4
1.40001
1.4
1.40001
1.40001
1.40001
1.4
1.40001
1.4
1.40001
1.40001
1.40001
1.40001
1.40001
1.40001
1.40001
1.40002
1.40002
1.40003
1.40004
1.40004
1.40004
1.40004
1.40002
1.4
1.39996
1.39993
1.39991
1.39991
1.39998
1.40011
1.40034
1.40067
1.4011
1.40161
1.40217
1.40275
1.4033
1.40378
1.40416
1.4044
1.4045
1.40444
1.40424
1.40393
1.40352
1.40306
1.40258
1.40211
1.40167
1.40128
1.40095
1.40067
1.40046
1.40029
1.40017
1.40009
1.40004
1.40001
1.39999
1.39998
1.39998
1.39999
1.39999
1.39999
1.4
1.4
1.4
1.4
1.4
1.4
1.4
1.4
1.4
1.4
1.40001
1.40001
1.40001
1.40001
1.40001
1.40001
1.40001
1.40001
1.40001
1.40001
1.40001
1.40001
1.40001
1.40001
1.40001
1.40001
1.40001
1.40001
1.40001
1.40001
1.4
1.40001
1.40001
1.40001
1.4
1.40001
1.4
1.40001
1.4
1.40001
1.4
1.40001
1.40001
1.40001
1.40001
1.40001
1.40001
1.40001
1.40001
1.40001
1.40002
1.40002
1.40003
1.40004
1.40005
1.40006
1.40006
1.40006
1.40005
1.40002
1.4
1.39998
1.4
1.40007
1.40024
1.40053
1.40096
1.40154
1.40225
1.40306
1.40392
1.40478
1.40557
1.40624
1.40674
1.40704
1.40711
1.40695
1.40658
1.40604
1.40536
1.40462
1.40385
1.40311
1.40244
1.40185
1.40135
1.40095
1.40063
1.4004
1.40023
1.40011
1.40004
1.4
1.39998
1.39997
1.39997
1.39998
1.39998
1.39999
1.39999
1.4
1.4
1.4
1.4
1.4
1.4
1.4
1.4
1.4
1.40001
1.40001
1.40001
1.40001
1.40001
1.40001
1.40001
1.40001
1.40001
1.40001
1.40001
1.40001
1.40001
1.40001
1.40001
1.40001
1.40001
1.40001
1.40001
1.40001
1.4
1.40001
1.40001
1.40001
1.40001
1.40001
1.40001
1.40001
1.40001
1.4
1.40001
1.40001
1.4
1.40001
1.40001
1.40001
1.40001
1.40001
1.40001
1.40001
1.40002
1.40003
1.40004
1.40005
1.40007
1.40008
1.40009
1.40009
1.40009
1.40007
1.40007
1.40009
1.40018
1.40037
1.40072
1.40125
1.402
1.40294
1.40406
1.4053
1.40658
1.40782
1.40894
1.40986
1.41052
1.41088
1.4109
1.4106
1.40999
1.40913
1.40808
1.40693
1.40575
1.40462
1.40358
1.40269
1.40194
1.40135
1.40089
1.40055
1.40031
1.40015
1.40005
1.39999
1.39996
1.39996
1.39996
1.39996
1.39997
1.39998
1.39999
1.39999
1.4
1.4
1.4
1.4
1.4
1.4
1.4
1.4
1.4
1.40001
1.40001
1.40001
1.40001
1.40001
1.40001
1.40001
1.40001
1.40001
1.40001
1.40001
1.40001
1.40001
1.40001
1.40001
1.40001
1.40001
1.40001
1.4
1.40001
1.40001
1.40001
1.40001
1.4
1.40001
1.4
1.40001
1.40001
1.4
1.4
1.40001
1.4
1.40001
1.40001
1.40001
1.40001
1.40001
1.40001
1.40002
1.40003
1.40004
1.40005
1.40007
1.40009
1.40012
1.40013
1.40014
1.40015
1.40016
1.40019
1.40029
1.4005
1.4009
1.40152
1.40243
1.40364
1.40511
1.4068
1.40862
1.41045
1.41219
1.41371
1.41493
1.41578
1.4162
1.41617
1.41569
1.41478
1.41351
1.41197
1.41025
1.4085
1.40681
1.40527
1.40393
1.40283
1.40195
1.40127
1.40078
1.40044
1.40021
1.40006
1.39998
1.39995
1.39993
1.39994
1.39995
1.39996
1.39997
1.39998
1.39999
1.39999
1.4
1.4
1.4
1.4
1.4
1.4
1.4
1.4
1.40001
1.40001
1.40001
1.40001
1.40001
1.40001
1.40001
1.40001
1.40001
1.40001
1.40001
1.40001
1.40001
1.40001
1.40001
1.40001
1.40001
1.40001
1.40001
1.4
1.40001
1.40001
1.4
1.40001
1.40001
1.4
1.40001
1.4
1.40001
1.4
1.40001
1.4
1.40001
1.40001
1.40001
1.40001
1.40001
1.40002
1.40002
1.40003
1.40005
1.40007
1.4001
1.40013
1.40016
1.40019
1.40021
1.40024
1.40029
1.40039
1.40062
1.40104
1.40174
1.40279
1.40424
1.4061
1.4083
1.41074
1.41329
1.41579
1.41811
1.42009
1.42165
1.4227
1.42319
1.4231
1.42242
1.42118
1.41944
1.41729
1.41488
1.41237
1.40993
1.40769
1.40574
1.40412
1.40283
1.40185
1.40113
1.40063
1.4003
1.4001
1.39998
1.39993
1.39991
1.39991
1.39992
1.39994
1.39996
1.39997
1.39998
1.39999
1.4
1.4
1.4
1.4
1.4
1.4
1.4
1.4
1.4
1.40001
1.40001
1.40001
1.40001
1.40001
1.40001
1.40001
1.40001
1.40001
1.40001
1.40001
1.40001
1.40001
1.40001
1.40001
1.40001
1.40001
1.40001
1.4
1.40001
1.4
1.40001
1.40001
1.40001
1.4
1.40001
1.4
1.4
1.40001
1.4
1.40001
1.40001
1.40001
1.40001
1.40001
1.40001
1.40002
1.40003
1.40004
1.40007
1.4001
1.40013
1.40017
1.40022
1.40026
1.40031
1.40037
1.40048
1.40071
1.40114
1.40187
1.40303
1.40469
1.40691
1.40963
1.41276
1.41612
1.41952
1.42276
1.42568
1.42812
1.42998
1.4312
1.43175
1.43161
1.43077
1.42922
1.42701
1.42422
1.42102
1.41761
1.41424
1.41108
1.4083
1.40597
1.40411
1.40269
1.40165
1.40093
1.40045
1.40016
1.39999
1.39991
1.39988
1.39988
1.3999
1.39992
1.39994
1.39996
1.39997
1.39999
1.39999
1.4
1.4
1.4
1.4
1.4
1.4
1.4
1.4
1.40001
1.40001
1.40001
1.40001
1.40001
1.40001
1.40001
1.40001
1.40001
1.40001
1.4
1.40001
1.4
1.40001
1.4
1.40001
1.4
1.40001
1.4
1.40001
1.40001
1.4
1.40001
1.4
1.4
1.40001
1.4
1.4
1.40001
1.4
1.40001
1.40001
1.40001
1.40001
1.40001
1.40002
1.40002
1.40004
1.40006
1.40009
1.40013
1.40017
1.40023
1.40029
1.40035
1.40043
1.40056
1.40078
1.40119
1.40192
1.40312
1.40492
1.40743
1.41064
1.41446
1.41868
1.42306
1.42734
1.43127
1.43468
1.43744
1.43947
1.44077
1.44133
1.44116
1.44024
1.43853
1.43601
1.43269
1.42873
1.42437
1.41991
1.41565
1.41181
1.40855
1.40592
1.4039
1.40242
1.40138
1.40069
1.40027
1.40002
1.3999
1.39985
1.39985
1.39987
1.39989
1.39992
1.39995
1.39996
1.39998
1.39999
1.39999
1.4
1.4
1.4
1.4
1.4
1.4
1.4
1.4
1.40001
1.40001
1.40001
1.40001
1.40001
1.40001
1.40001
1.40001
1.40001
1.4
1.40001
1.4
1.40001
1.4
1.40001
1.4
1.40001
1.4
1.40001
1.4
1.4
1.40001
1.4
1.40001
1.4
1.40001
1.4
1.40001
1.4
1.40001
1.40001
1.40001
1.40001
1.40001
1.40002
1.40003
1.40005
1.40007
1.40011
1.40016
1.40022
1.40029
1.40038
1.40047
1.40061
1.40082
1.4012
1.40189
1.40306
1.40491
1.4076
1.4112
1.41565
1.42073
1.42612
1.43148
1.43647
1.44084
1.44443
1.44718
1.4491
1.45026
1.45073
1.45057
1.44975
1.44817
1.44568
1.44219
1.43775
1.43257
1.42703
1.42153
1.41645
1.41204
1.40842
1.4056
1.40352
1.40205
1.40107
1.40045
1.40009
1.3999
1.39983
1.39981
1.39983
1.39986
1.3999
1.39993
1.39995
1.39997
1.39998
1.39999
1.4
1.4
1.4
1.4
1.4
1.4
1.4
1.4
1.40001
1.40001
1.40001
1.40001
1.40001
1.40001
1.40001
1.40001
1.40001
1.4
1.40001
1.4
1.40001
1.4
1.40001
1.4
1.40001
1.4
1.40001
1.4
1.40001
1.40001
1.40001
1.4
1.40001
1.4
1.40001
1.4
1.40001
1.40001
1.40001
1.40001
1.40001
1.40001
1.40002
1.40004
1.40006
1.40009
1.40014
1.4002
1.40028
1.40037
1.40049
1.40063
1.40083
1.40118
1.4018
1.40289
1.40468
1.40741
1.41124
1.41618
1.42204
1.42842
1.43486
1.4409
1.44618
1.45045
1.45366
1.45586
1.45722
1.45791
1.45814
1.45801
1.45753
1.45651
1.45465
1.45163
1.44729
1.44175
1.43538
1.42871
1.42229
1.41655
1.41172
1.4079
1.40504
1.40299
1.40161
1.40073
1.40021
1.39994
1.39981
1.39978
1.3998
1.39983
1.39987
1.39991
1.39994
1.39996
1.39998
1.39999
1.39999
1.4
1.4
1.4
1.4
1.4
1.4
1.4
1.40001
1.40001
1.40001
1.40001
1.40001
1.40001
1.40001
1.40001
1.40001
1.40001
1.40001
1.40001
1.40001
1.40001
1.40001
1.40001
1.40001
1.4
1.40001
1.40001
1.40001
1.4
1.40001
1.4
1.40001
1.40001
1.4
1.4
1.40001
1.40001
1.40001
1.40001
1.40001
1.40002
1.40003
1.40005
1.40007
1.40012
1.40017
1.40025
1.40035
1.40047
1.40062
1.40082
1.40113
1.40168
1.40263
1.40427
1.40688
1.41074
1.41598
1.42245
1.42974
1.43724
1.44431
1.45042
1.45521
1.45857
1.46058
1.4615
1.46171
1.46154
1.46132
1.46125
1.46136
1.46142
1.46094
1.4593
1.45603
1.45097
1.44439
1.43692
1.42927
1.42213
1.41594
1.41091
1.40707
1.40429
1.40239
1.40116
1.40042
1.40001
1.39982
1.39975
1.39976
1.3998
1.39984
1.39989
1.39992
1.39995
1.39997
1.39998
1.39999
1.4
1.4
1.4
1.4
1.4
1.4
1.4
1.4
1.40001
1.40001
1.40001
1.40001
1.40001
1.40001
1.40001
1.40001
1.40001
1.40001
1.40001
1.40001
1.4
1.40001
1.4
1.40001
1.4
1.40001
1.40001
1.40001
1.4
1.40001
1.4
1.40001
1.40001
1.4
1.40001
1.40001
1.40001
1.40001
1.40001
1.40001
1.40002
1.40003
1.40006
1.40009
1.40014
1.40021
1.40031
1.40043
1.40058
1.40077
1.40106
1.40152
1.40234
1.40375
1.40611
1.40979
1.41505
1.42189
1.42992
1.43842
1.44652
1.45344
1.45865
1.46191
1.4633
1.46316
1.46202
1.46047
1.45904
1.45817
1.45816
1.45909
1.46071
1.46239
1.46319
1.4622
1.45883
1.45308
1.44552
1.43707
1.42866
1.42105
1.41468
1.40969
1.40601
1.40345
1.40176
1.40073
1.40015
1.39986
1.39974
1.39973
1.39976
1.39981
1.39986
1.3999
1.39994
1.39996
1.39998
1.39999
1.4
1.4
1.4
1.4
1.4
1.4
1.4
1.4
1.4
1.40001
1.40001
1.40001
1.40001
1.40001
1.40001
1.4
1.40001
1.4
1.40001
1.4
1.40001
1.4
1.40001
1.4
1.4
1.40001
1.40001
1.40001
1.4
1.40001
1.4
1.40001
1.4
1.40001
1.40001
1.40001
1.40001
1.40001
1.40001
1.40002
1.40002
1.40004
1.40007
1.40011
1.40017
1.40026
1.40037
1.40052
1.40071
1.40096
1.40136
1.40203
1.4032
1.40521
1.40851
1.4135
1.42037
1.42888
1.43825
1.4474
1.4552
1.46087
1.46397
1.4645
1.46283
1.45965
1.45577
1.452
1.44903
1.44738
1.44741
1.44929
1.45281
1.45725
1.46143
1.46394
1.46366
1.4601
1.45359
1.44509
1.43584
1.42696
1.41919
1.41292
1.40819
1.40483
1.40258
1.40117
1.40036
1.39993
1.39975
1.39971
1.39973
1.39978
1.39984
1.39989
1.39992
1.39995
1.39997
1.39999
1.39999
1.4
1.4
1.4
1.4
1.4
1.4
1.4
1.4
1.40001
1.40001
1.40001
1.40001
1.4
1.40001
1.40001
1.40001
1.40001
1.4
1.40001
1.4
1.40001
1.40001
1.40001
1.40001
1.4
1.40001
1.40001
1.4
1.40001
1.40001
1.4
1.40001
1.40001
1.40001
1.40001
1.40001
1.40001
1.40001
1.40002
1.40003
1.40005
1.40008
1.40013
1.4002
1.4003
1.40044
1.40061
1.40085
1.40118
1.40173
1.40266
1.4043
1.40709
1.41154
1.41806
1.42665
1.43667
1.44683
1.45568
1.462
1.4651
1.46483
1.46152
1.45591
1.44904
1.44202
1.43582
1.4312
1.42873
1.42882
1.43171
1.43726
1.44478
1.45292
1.45991
1.464
1.46407
1.45998
1.45253
1.44317
1.43338
1.42434
1.41675
1.41085
1.40656
1.40364
1.40178
1.40067
1.40007
1.39979
1.3997
1.3997
1.39975
1.39981
1.39987
1.39991
1.39994
1.39997
1.39998
1.39999
1.4
1.4
1.4
1.4
1.4
1.4
1.4
1.4
1.40001
1.40001
1.40001
1.40001
1.4
1.40001
1.40001
1.40001
1.40001
1.40001
1.40001
1.40001
1.40001
1.4
1.40001
1.4
1.40001
1.40001
1.40001
1.4
1.40001
1.40001
1.4
1.4
1.40001
1.40001
1.40001
1.40001
1.40001
1.40001
1.40002
1.40003
1.40006
1.40009
1.40015
1.40023
1.40035
1.40051
1.40072
1.40101
1.40145
1.40218
1.40346
1.40569
1.40942
1.41523
1.42344
1.43368
1.44473
1.45478
1.46212
1.46563
1.46493
1.46022
1.45225
1.44218
1.43135
1.42107
1.41244
1.40624
1.40301
1.4032
1.40711
1.4147
1.42534
1.43766
1.44962
1.45898
1.46391
1.46361
1.45849
1.44999
1.43991
1.4299
1.42107
1.41396
1.40866
1.40497
1.40255
1.40109
1.40027
1.39987
1.39971
1.39969
1.39973
1.39979
1.39985
1.3999
1.39993
1.39996
1.39998
1.39999
1.4
1.4
1.4
1.4
1.4
1.4
1.4
1.4
1.4
1.40001
1.4
1.40001
1.40001
1.40001
1.40001
1.4
1.40001
1.4
1.40001
1.40001
1.4
1.40001
1.4
1.40001
1.4
1.40001
1.40001
1.40001
1.4
1.40001
1.40001
1.4
1.40001
1.40001
1.40001
1.40001
1.40001
1.40001
1.40002
1.40004
1.40006
1.40011
1.40017
1.40027
1.4004
1.40058
1.40083
1.40118
1.40175
1.40271
1.40442
1.40738
1.41224
1.41957
1.42948
1.44105
1.45236
1.46112
1.46564
1.46516
1.45969
1.44988
1.43688
1.42218
1.40736
1.39391
1.38295
1.37527
1.37136
1.3717
1.37666
1.3863
1.40005
1.41651
1.43355
1.44858
1.45917
1.46376
1.46219
1.45564
1.44608
1.43557
1.42572
1.41745
1.41109
1.40655
1.40352
1.40163
1.40055
1.39999
1.39975
1.39969
1.39971
1.39977
1.39983
1.39988
1.39992
1.39995
1.39997
1.39999
1.39999
1.4
1.4
1.4
1.4
1.4
1.4
1.4
1.4
1.40001
1.40001
1.40001
1.40001
1.40001
1.40001
1.4
1.40001
1.40001
1.4
1.40001
1.40001
1.4
1.4
1.40001
1.4
1.40001
1.40001
1.4
1.40001
1.4
1.4
1.40001
1.4
1.40001
1.40001
1.40001
1.40001
1.40001
1.40002
1.40004
1.40007
1.40012
1.40019
1.4003
1.40045
1.40065
1.40094
1.40138
1.4021
1.40335
1.40558
1.4094
1.41552
1.42446
1.43591
1.44822
1.45873
1.46497
1.46556
1.46026
1.44953
1.43437
1.41627
1.39697
1.37821
1.36159
1.34831
1.33911
1.33452
1.33505
1.34117
1.35302
1.36998
1.39064
1.41274
1.4335
1.45006
1.46024
1.46318
1.45959
1.45142
1.44103
1.43049
1.4212
1.4138
1.40836
1.40466
1.4023
1.40091
1.40017
1.39983
1.39971
1.39971
1.39976
1.39982
1.39987
1.39992
1.39995
1.39997
1.39998
1.39999
1.4
1.4
1.4
1.4
1.4
1.4
1.4
1.4
1.40001
1.40001
1.40001
1.40001
1.40001
1.40001
1.4
1.40001
1.40001
1.4
1.40001
1.4
1.40001
1.4
1.40001
1.4
1.40001
1.4
1.40001
1.4
1.40001
1.40001
1.4
1.40001
1.40001
1.40001
1.40001
1.40001
1.40002
1.40003
1.40004
1.40008
1.40013
1.40021
1.40032
1.40049
1.40072
1.40105
1.40159
1.40249
1.40409
1.40692
1.41172
1.41923
1.42973
1.44234
1.45456
1.46317
1.46583
1.46174
1.45125
1.43516
1.41472
1.39159
1.36764
1.34477
1.32472
1.3088
1.2978
1.29232
1.29305
1.30058
1.31503
1.33566
1.36084
1.38815
1.41465
1.43727
1.45334
1.46138
1.46156
1.45558
1.44594
1.43515
1.42506
1.41669
1.41037
1.40596
1.40308
1.40135
1.4004
1.39993
1.39975
1.39972
1.39975
1.39981
1.39986
1.39991
1.39994
1.39997
1.39998
1.39999
1.4
1.4
1.4
1.4
1.4
1.4
1.4
1.4
1.40001
1.40001
1.40001
1.40001
1.4
1.40001
1.40001
1.40001
1.40001
1.40001
1.4
1.40001
1.4
1.4
1.40001
1.4
1.4
1.40001
1.4
1.40001
1.4
1.40001
1.4
1.40001
1.40001
1.40001
1.40001
1.40001
1.40002
1.40003
1.40005
1.40008
1.40014
1.40023
1.40035
1.40053
1.40079
1.40117
1.40181
1.40294
1.40493
1.40845
1.41432
1.42324
1.43513
1.44834
1.45955
1.46528
1.46365
1.45461
1.43895
1.41768
1.39211
1.36389
1.33494
1.30736
1.28316
1.26387
1.25046
1.24376
1.24472
1.25409
1.27186
1.29697
1.32737
1.36036
1.39282
1.42155
1.44361
1.45706
1.46153
1.45837
1.45009
1.43949
1.42888
1.41968
1.41252
1.40739
1.40398
1.40188
1.40068
1.40007
1.39981
1.39974
1.39975
1.3998
1.39986
1.3999
1.39994
1.39996
1.39998
1.39999
1.4
1.4
1.4
1.4
1.4
1.4
1.4
1.4
1.40001
1.40001
1.40001
1.40001
1.4
1.40001
1.4
1.40001
1.40001
1.40001
1.4
1.40001
1.4
1.40001
1.4
1.40001
1.40001
1.4
1.40001
1.40001
1.4
1.4
1.40001
1.40001
1.40001
1.40001
1.40001
1.40001
1.40002
1.40003
1.40005
1.40009
1.40015
1.40024
1.40037
1.40056
1.40085
1.40128
1.40204
1.40342
1.40586
1.41012
1.41712
1.42741
1.44037
1.45349
1.46284
1.46503
1.45884
1.44491
1.42438
1.39823
1.36758
1.33391
1.29918
1.26579
1.23624
1.21245
1.19577
1.18742
1.18877
1.20071
1.22292
1.25366
1.29029
1.32968
1.36852
1.40352
1.43163
1.45062
1.45968
1.45978
1.45334
1.44335
1.43251
1.42266
1.41473
1.4089
1.40495
1.40246
1.40102
1.40025
1.3999
1.39978
1.39977
1.39981
1.39986
1.3999
1.39994
1.39996
1.39998
1.39999
1.4
1.4
1.4
1.4
1.4
1.4
1.4
1.4
1.40001
1.40001
1.40001
1.40001
1.4
1.40001
1.40001
1.4
1.40001
1.4
1.40001
1.4
1.40001
1.4
1.40001
1.4
1.40001
1.4
1.40001
1.40001
1.4
1.40001
1.4
1.40001
1.40001
1.40001
1.40001
1.40001
1.40002
1.40003
1.40005
1.40009
1.40015
1.40024
1.40038
1.40058
1.4009
1.40139
1.40228
1.40394
1.40686
1.41189
1.42004
1.43157
1.44517
1.45752
1.4644
1.46274
1.45206
1.43356
1.40856
1.3778
1.34192
1.3021
1.26036
1.21963
1.1831
1.15343
1.13251
1.12214
1.12425
1.1399
1.16809
1.20598
1.25001
1.29657
1.34224
1.38372
1.41794
1.4425
1.45628
1.45993
1.45568
1.44665
1.43586
1.42554
1.41694
1.41046
1.40598
1.4031
1.40139
1.40046
1.40001
1.39983
1.39979
1.39981
1.39986
1.3999
1.39994
1.39996
1.39998
1.39999
1.4
1.4
1.4
1.4
1.4
1.4
1.4
1.4
1.40001
1.40001
1.4
1.40001
1.4
1.40001
1.4
1.40001
1.4
1.40001
1.4
1.40001
1.4
1.40001
1.4
1.40001
1.40001
1.4
1.4
1.40001
1.4
1.40001
1.4
1.40001
1.40001
1.40001
1.40001
1.40001
1.40002
1.40003
1.40005
1.40009
1.40015
1.40025
1.40038
1.40058
1.40093
1.4015
1.40251
1.40448
1.40792
1.41371
1.42294
1.43553
1.44932
1.46034
1.4644
1.45895
1.44406
1.4214
1.39235
1.35717
1.31578
1.26886
1.21859
1.16864
1.12332
1.0863
1.0602
1.04747
1.05088
1.07175
1.10795
1.15485
1.20755
1.26199
1.31478
1.36279
1.40306
1.43313
1.45166
1.45898
1.45715
1.44935
1.43884
1.42822
1.41907
1.41201
1.40703
1.40377
1.4018
1.4007
1.40014
1.3999
1.39983
1.39983
1.39987
1.39991
1.39994
1.39996
1.39998
1.39999
1.4
1.4
1.4
1.4
1.4
1.4
1.4
1.4
1.40001
1.40001
1.40001
1.40001
1.4
1.40001
1.4
1.40001
1.4
1.40001
1.4
1.40001
1.40001
1.4
1.40001
1.40001
1.4
1.40001
1.4
1.40001
1.4
1.4
1.40001
1.4
1.40001
1.40001
1.40001
1.40001
1.40002
1.40003
1.40005
1.40009
1.40014
1.40024
1.40038
1.40058
1.40096
1.4016
1.40274
1.405
1.40899
1.41552
1.4257
1.43914
1.45273
1.46203
1.4632
1.45424
1.43556
1.40915
1.37643
1.337
1.28976
1.23477
1.17438
1.11332
1.05742
1.01174
0.979592
0.964091
0.969292
0.997025
1.04355
1.10157
1.16434
1.22728
1.28726
1.34161
1.38767
1.42302
1.44616
1.45715
1.45786
1.45145
1.44141
1.43067
1.42108
1.41351
1.40807
1.40445
1.40222
1.40095
1.40029
1.39998
1.39987
1.39986
1.39988
1.39991
1.39994
1.39996
1.39998
1.39999
1.4
1.4
1.4
1.4
1.4
1.4
1.4
1.4
1.40001
1.40001
1.4
1.40001
1.4
1.40001
1.4
1.40001
1.4
1.40001
1.4
1.40001
1.40001
1.4
1.40001
1.40001
1.4
1.40001
1.4
1.4
1.40001
1.4
1.40001
1.40001
1.40001
1.40001
1.40001
1.40001
1.40002
1.40003
1.40005
1.40008
1.40013
1.40022
1.40036
1.40056
1.40096
1.40168
1.40294
1.40549
1.41003
1.41724
1.42822
1.44228
1.45542
1.46279
1.46119
1.44916
1.42715
1.39737
1.36129
1.31784
1.26464
1.20086
1.12905
1.05528
0.98744
0.932164
0.893242
0.874464
0.881696
0.917565
0.976408
1.04755
1.12178
1.19379
1.2609
1.32119
1.37253
1.41273
1.44017
1.45468
1.45792
1.453
1.44357
1.43282
1.42291
1.41491
1.40906
1.40512
1.40265
1.40122
1.40045
1.40008
1.39993
1.39989
1.3999
1.39992
1.39995
1.39997
1.39998
1.39999
1.4
1.4
1.4
1.4
1.4
1.4
1.4
1.4
1.40001
1.40001
1.4
1.40001
1.4
1.40001
1.40001
1.4
1.40001
1.4
1.40001
1.40001
1.4
1.40001
1.40001
1.40001
1.40001
1.4
1.40001
1.4
1.40001
1.4
1.40001
1.4
1.40001
1.40001
1.40001
1.40001
1.40002
1.40003
1.40004
1.40008
1.40012
1.4002
1.40034
1.40053
1.40093
1.40175
1.40312
1.40591
1.41099
1.41883
1.43038
1.44487
1.45747
1.46289
1.45873
1.44414
1.41934
1.38648
1.34732
1.30021
1.24134
1.1687
1.0849
0.997634
0.917303
0.852188
0.80621
0.783915
0.793044
0.83714
0.908996
0.994435
1.08111
1.1626
1.2367
1.30242
1.35842
1.40285
1.43413
1.45187
1.4575
1.45406
1.44531
1.43466
1.42452
1.41618
1.40998
1.40575
1.40307
1.40148
1.40062
1.40019
1.4
1.39993
1.39992
1.39994
1.39996
1.39997
1.39998
1.39999
1.4
1.4
1.4
1.4
1.4
1.4
1.4
1.40001
1.4
1.40001
1.4
1.40001
1.4
1.40001
1.40001
1.4
1.40001
1.40001
1.4
1.40001
1.4
1.40001
1.40001
1.4
1.40001
1.4
1.40001
1.4
1.40001
1.4
1.40001
1.40001
1.40001
1.40001
1.40001
1.40001
1.40002
1.40002
1.40004
1.40007
1.40011
1.40017
1.40031
1.40049
1.40088
1.40178
1.40328
1.40625
1.41182
1.42023
1.43216
1.4469
1.45902
1.46264
1.45614
1.4395
1.4125
1.37688
1.33482
1.28455
1.22089
1.14029
1.04515
0.944905
0.852744
0.778505
0.726194
0.7009
0.711308
0.761899
0.845249
0.944495
1.04374
1.13473
1.21546
1.286
1.34594
1.39392
1.42844
1.44899
1.45677
1.45473
1.44666
1.43617
1.42589
1.41727
1.41079
1.40632
1.40346
1.40174
1.40079
1.4003
1.40007
1.39998
1.39995
1.39996
1.39997
1.39998
1.39999
1.39999
1.4
1.4
1.4
1.4
1.4
1.4
1.4
1.40001
1.40001
1.40001
1.4
1.40001
1.4
1.40001
1.40001
1.4
1.40001
1.40001
1.4
1.40001
1.40001
1.4
1.40001
1.40001
1.4
1.4
1.40001
1.4
1.4
1.40001
1.4
1.40001
1.4
1.40001
1.40001
1.40001
1.40001
1.40002
1.40003
1.40005
1.40009
1.40013
1.40026
1.40045
1.40081
1.40176
1.40341
1.40649
1.41244
1.42141
1.43354
1.44832
1.46016
1.46231
1.45369
1.43544
1.40692
1.36895
1.3241
1.27117
1.20411
1.11764
1.01343
0.902365
0.800364
0.718755
0.661999
0.634991
0.645726
0.699527
0.79055
0.900966
1.0115
1.11127
1.19792
1.27249
1.33556
1.38633
1.42347
1.44631
1.45591
1.45508
1.44764
1.43734
1.42699
1.41818
1.41148
1.40682
1.40381
1.40198
1.40095
1.40041
1.40014
1.40002
1.39998
1.39997
1.39998
1.39999
1.39999
1.4
1.4
1.4
1.4
1.4
1.4
1.4
1.4
1.40001
1.4
1.40001
1.4
1.40001
1.4
1.40001
1.40001
1.4
1.40001
1.4
1.40001
1.40001
1.4
1.40001
1.40001
1.4
1.40001
1.4
1.40001
1.4
1.4
1.40001
1.40001
1.40001
1.4
1.40001
1.40001
1.40001
1.40001
1.40002
1.40002
1.40004
1.40006
1.40009
1.4002