# vtk DataFile Version 2.0
top_cyc
ASCII
DATASET POLYDATA
POINTS 202 float
-10 7.5 0 -10 7.5 1 -9.8 7.5 1 -9.8 7.5
0 -9.6 7.5 1 -9.6 7.5 0 -9.4 7.5 1
-9.4 7.5 0 -9.2 7.5 1 -9.2 7.5 0 -9
7.5 1 -9 7.5 0 -8.8 7.5 1 -8.8 7.5
0 -8.6 7.5 1 -8.6 7.5 0 -8.4 7.5 1
-8.4 7.5 0 -8.2 7.5 1 -8.2 7.5 0 -8
7.5 1 -8 7.5 0 -7.8 7.5 1 -7.8 7.5
0 -7.6 7.5 1 -7.6 7.5 0 -7.4 7.5 1
-7.4 7.5 0 -7.2 7.5 1 -7.2 7.5 0 -7
7.5 1 -7 7.5 0 -6.8 7.5 1 -6.8 7.5
0 -6.6 7.5 1 -6.6 7.5 0 -6.4 7.5 1
-6.4 7.5 0 -6.2 7.5 1 -6.2 7.5 0 -6
7.5 1 -6 7.5 0 -5.8 7.5 1 -5.8 7.5
0 -5.6 7.5 1 -5.6 7.5 0 -5.4 7.5 1
-5.4 7.5 0 -5.2 7.5 1 -5.2 7.5 0 -5
7.5 1 -5 7.5 0 -4.8 7.5 1 -4.8 7.5
0 -4.6 7.5 1 -4.6 7.5 0 -4.4 7.5 1
-4.4 7.5 0 -4.2 7.5 1 -4.2 7.5 0 -4
7.5 1 -4 7.5 0 -3.8 7.5 1 -3.8 7.5
0 -3.6 7.5 1 -3.6 7.5 0 -3.4 7.5 1
-3.4 7.5 0 -3.2 7.5 1 -3.2 7.5 0 -3
7.5 1 -3 7.5 0 -2.8 7.5 1 -2.8 7.5
0 -2.6 7.5 1 -2.6 7.5 0 -2.4 7.5 1
-2.4 7.5 0 -2.2 7.5 1 -2.2 7.5 0 -2
7.5 1 -2 7.5 0 -1.8 7.5 1 -1.8 7.5
0 -1.6 7.5 1 -1.6 7.5 0 -1.4 7.5 1
-1.4 7.5 0 -1.2 7.5 1 -1.2 7.5 0 -1
7.5 1 -1 7.5 0 -0.8 7.5 1 -0.8 7.5
0 -0.6 7.5 1 -0.6 7.5 0 -0.4 7.5 1
-0.4 7.5 0 -0.2 7.5 1 -0.2 7.5 0 1.23261e-11
7.5 1 1.23261e-11 7.5 0 0.2 7.5 1 0.2 7.5
0 0.4 7.5 1 0.4 7.5 0 0.6 7.5 1
0.6 7.5 0 0.8 7.5 1 0.8 7.5 0 1
7.5 1 1 7.5 0 1.2 7.5 1 1.2 7.5
0 1.4 7.5 1 1.4 7.5 0 1.6 7.5 1
1.6 7.5 0 1.8 7.5 1 1.8 7.5 0 2
7.5 1 2 7.5 0 2.2 7.5 1 2.2 7.5
0 2.4 7.5 1 2.4 7.5 0 2.6 7.5 1
2.6 7.5 0 2.8 7.5 1 2.8 7.5 0 3
7.5 1 3 7.5 0 3.2 7.5 1 3.2 7.5
0 3.4 7.5 1 3.4 7.5 0 3.6 7.5 1
3.6 7.5 0 3.8 7.5 1 3.8 7.5 0 4
7.5 1 4 7.5 0 4.2 7.5 1 4.2 7.5
0 4.4 7.5 1 4.4 7.5 0 4.6 7.5 1
4.6 7.5 0 4.8 7.5 1 4.8 7.5 0 5
7.5 1 5 7.5 0 5.2 7.5 1 5.2 7.5
0 5.4 7.5 1 5.4 7.5 0 5.6 7.5 1
5.6 7.5 0 5.8 7.5 1 5.8 7.5 0 6
7.5 1 6 7.5 0 6.2 7.5 1 6.2 7.5
0 6.4 7.5 1 6.4 7.5 0 6.6 7.5 1
6.6 7.5 0 6.8 7.5 1 6.8 7.5 0 7
7.5 1 7 7.5 0 7.2 7.5 1 7.2 7.5
0 7.4 7.5 1 7.4 7.5 0 7.6 7.5 1
7.6 7.5 0 7.8 7.5 1 7.8 7.5 0 8
7.5 1 8 7.5 0 8.2 7.5 1 8.2 7.5
0 8.4 7.5 1 8.4 7.5 0 8.6 7.5 1
8.6 7.5 0 8.8 7.5 1 8.8 7.5 0 9
7.5 1 9 7.5 0 9.2 7.5 1 9.2 7.5
0 9.4 7.5 1 9.4 7.5 0 9.6 7.5 1
9.6 7.5 0 9.8 7.5 1 9.8 7.5 0 10
7.5 1 10 7.5 0 
POLYGONS 100 500
4 0 1 2 3 4 3 2 4 5 4
5 4 6 7 4 7 6 8 9 4
9 8 10 11 4 11 10 12 13 4
13 12 14 15 4 15 14 16 17 4
17 16 18 19 4 19 18 20 21 4
21 20 22 23 4 23 22 24 25 4
25 24 26 27 4 27 26 28 29 4
29 28 30 31 4 31 30 32 33 4
33 32 34 35 4 35 34 36 37 4
37 36 38 39 4 39 38 40 41 4
41 40 42 43 4 43 42 44 45 4
45 44 46 47 4 47 46 48 49 4
49 48 50 51 4 51 50 52 53 4
53 52 54 55 4 55 54 56 57 4
57 56 58 59 4 59 58 60 61 4
61 60 62 63 4 63 62 64 65 4
65 64 66 67 4 67 66 68 69 4
69 68 70 71 4 71 70 72 73 4
73 72 74 75 4 75 74 76 77 4
77 76 78 79 4 79 78 80 81 4
81 80 82 83 4 83 82 84 85 4
85 84 86 87 4 87 86 88 89 4
89 88 90 91 4 91 90 92 93 4
93 92 94 95 4 95 94 96 97 4
97 96 98 99 4 99 98 100 101 4
101 100 102 103 4 103 102 104 105 4
105 104 106 107 4 107 106 108 109 4
109 108 110 111 4 111 110 112 113 4
113 112 114 115 4 115 114 116 117 4
117 116 118 119 4 119 118 120 121 4
121 120 122 123 4 123 122 124 125 4
125 124 126 127 4 127 126 128 129 4
129 128 130 131 4 131 130 132 133 4
133 132 134 135 4 135 134 136 137 4
137 136 138 139 4 139 138 140 141 4
141 140 142 143 4 143 142 144 145 4
145 144 146 147 4 147 146 148 149 4
149 148 150 151 4 151 150 152 153 4
153 152 154 155 4 155 154 156 157 4
157 156 158 159 4 159 158 160 161 4
161 160 162 163 4 163 162 164 165 4
165 164 166 167 4 167 166 168 169 4
169 168 170 171 4 171 170 172 173 4
173 172 174 175 4 175 174 176 177 4
177 176 178 179 4 179 178 180 181 4
181 180 182 183 4 183 182 184 185 4
185 184 186 187 4 187 186 188 189 4
189 188 190 191 4 191 190 192 193 4
193 192 194 195 4 195 194 196 197 4
197 196 198 199 4 199 198 200 201 
CELL_DATA 100
FIELD attributes 7
patchID 1 100 float
1 1 1 1 1 1 1 1 1 1 1
1 1 1 1 1 1 1 1 1 1
1 1 1 1 1 1 1 1 1 1
1 1 1 1 1 1 1 1 1 1
1 1 1 1 1 1 1 1 1 1
1 1 1 1 1 1 1 1 1 1
1 1 1 1 1 1 1 1 1 1
1 1 1 1 1 1 1 1 1 1
1 1 1 1 1 1 1 1 1 1
1 1 1 1 1 1 1 1 1 
mag(U) 1 100 float
0.99997 0.99997 0.99997 0.99997 0.99997 0.99997 0.99997 0.99997 0.99997 0.99997 0.99997
0.99997 0.99997 0.99997 0.99997 0.99997 0.99997 0.99997 0.99997 0.99997 0.99997
0.99997 0.99997 0.99997 0.99997 0.99997 0.99997 0.99997 0.99997 0.99997 0.99997
0.99997 0.99997 0.99997 0.99997 0.99997 0.99997 0.99997 0.99997 0.99997 0.99997
0.99997 0.99997 0.99997 0.999971 0.999972 0.999973 0.999974 0.999976 0.999977 0.999978
0.999979 0.999978 0.999974 0.999969 0.999962 0.999954 0.999944 0.999934 0.999925 0.999919
0.999916 0.999919 0.999927 0.999939 0.999956 0.999977 0.999997 1.00002 1.00004 1.00006
1.00007 1.00008 1.00008 1.00008 1.00007 1.00006 1.00005 1.00004 1.00003 1.00002
1 0.999994 0.999987 0.999981 0.999977 0.999973 0.999973 0.99997 0.99997 0.99997
0.99997 0.99997 0.99997 0.99997 0.99997 0.99997 0.99997 0.99997 0.99997 
p 1 100 float
1 1 1 1 1 1 1 1 1 1 1
1 1 1 1 1 1 1 1 1 1
1 1 1 1 1 1 1 1 1 1
1 1 1 1 1 1 1 1 1 1
1 1 1 1 0.999999 0.999996 0.999993 0.999987 0.99998 0.99997
0.999959 0.999946 0.999933 0.999921 0.999913 0.99991 0.999913 0.999924 0.999942 0.999968
1 1.00004 1.00008 1.00012 1.00015 1.00019 1.00022 1.00023 1.00024 1.00024
1.00024 1.00023 1.00021 1.0002 1.00017 1.00014 1.00012 1.0001 1.00007 1.00006
1.00004 1.00003 1.00002 1.00001 1.00001 1 1 1 1 1
1 1 1 1 1 1 1 1 1 
T 1 100 float
1 1 1 1 1 1 1 1 1 1 1
1 1 1 1 1 1 1 1 1 1
1 1 1 1 1 1 1 1 1 1
1 1 1 1 1 1 1 1 1 1
1 1 1 1 1 1 1 1 1 1
1 1 1 1 1 1 1 1 1 1
1 1 1 1 1 1 1 1 1 1
1 1 1 1 1 1 1 1 1 1
1 1 1 1 1 1 1 1 1 1
1 1 1 1 1 1 1 1 1 
e 1 100 float
1006.29 1006.29 1006.29 1006.29 1006.29 1006.29 1006.29 1006.29 1006.29 1006.29 1006.29
1006.29 1006.29 1006.29 1006.29 1006.29 1006.29 1006.29 1006.29 1006.29 1006.29
1006.29 1006.29 1006.29 1006.29 1006.29 1006.29 1006.29 1006.29 1006.29 1006.29
1006.29 1006.29 1006.29 1006.29 1006.29 1006.29 1006.29 1006.29 1006.29 1006.29
1006.29 1006.29 1006.29 1006.29 1006.29 1006.29 1006.29 1006.29 1006.29 1006.29
1006.29 1006.29 1006.29 1006.29 1006.29 1006.29 1006.29 1006.29 1006.29 1006.29
1006.29 1006.29 1006.29 1006.29 1006.29 1006.29 1006.29 1006.29 1006.29 1006.29
1006.29 1006.29 1006.29 1006.29 1006.29 1006.29 1006.29 1006.29 1006.29 1006.29
1006.29 1006.29 1006.29 1006.29 1006.29 1006.29 1006.29 1006.29 1006.29 1006.29
1006.29 1006.29 1006.29 1006.29 1006.29 1006.29 1006.29 1006.29 1006.29 
rho 1 100 float
1.40001 1.40001 1.4 1.40001 1.4 1.40001 1.4 1.40001 1.40001 1.4 1.40001
1.4 1.40001 1.4 1.40001 1.4 1.40001 1.4 1.40001 1.4 1.40001
1.4 1.40001 1.4 1.4 1.4 1.4 1.4 1.4 1.4 1.40001
1.4 1.4 1.40001 1.4 1.40001 1.40001 1.40001 1.40001 1.40001 1.40001
1.40001 1.40001 1.40001 1.40001 1.4 1.4 1.39999 1.39999 1.39997 1.39997
1.39995 1.39993 1.39991 1.39989 1.39988 1.39988 1.39989 1.3999 1.39992 1.39996
1.40001 1.40006 1.40012 1.40017 1.40022 1.40026 1.40031 1.40033 1.40034 1.40035
1.40034 1.40032 1.40031 1.40027 1.40024 1.40021 1.40017 1.40014 1.40011 1.40008
1.40006 1.40005 1.40004 1.40003 1.40001 1.40001 1.40001 1.40001 1.40001 1.4
1.4 1.4 1.4 1.4 1.4 1.4 1.4 1.4 1.40001 
U 3 100 float
0.8944 0.4472 0 0.8944 0.4472 0 0.8944 0.4472 0 0.8944 0.4472
0 0.8944 0.4472 0 0.8944 0.4472 0 0.8944 0.4472 0
0.8944 0.4472 0 0.8944 0.4472 0 0.8944 0.4472 0 0.8944
0.4472 0 0.8944 0.4472 0 0.8944 0.4472 0 0.8944 0.4472
0 0.8944 0.4472 0 0.8944 0.4472 0 0.8944 0.4472 0
0.8944 0.4472 0 0.8944 0.4472 0 0.8944 0.4472 0 0.8944
0.4472 0 0.8944 0.4472 0 0.8944 0.4472 0 0.8944 0.4472
0 0.8944 0.4472 0 0.8944 0.4472 0 0.8944 0.4472 0
0.8944 0.4472 0 0.8944 0.4472 0 0.8944 0.4472 0 0.8944
0.4472 0 0.8944 0.4472 0 0.8944 0.4472 0 0.8944 0.4472
0 0.8944 0.4472 0 0.8944 0.4472 0 0.8944 0.4472 0
0.8944 0.4472 0 0.8944 0.4472 0 0.8944 0.4472 0 0.8944
0.4472 0 0.8944 0.447201 0 0.8944 0.447201 0 0.8944 0.447201
0 0.894401 0.447201 0 0.894402 0.447201 0 0.894404 0.447199 0
0.894406 0.447197 0 0.89441 0.447194 0 0.894414 0.447188 0 0.89442
0.447181 0 0.894425 0.44717 0 0.89443 0.447159 0 0.894432 0.447147
0 0.894432 0.447134 0 0.89443 0.447124 0 0.894423 0.447118 0
0.894413 0.447116 0 0.894399 0.447122 0 0.894383 0.447134 0 0.894365
0.447155 0 0.894349 0.447183 0 0.894335 0.447217 0 0.894324 0.447255
0 0.894319 0.447293 0 0.894319 0.447331 0 0.894325 0.447365 0
0.894336 0.447392 0 0.894351 0.447412 0 0.894368 0.447423 0 0.894386
0.447426 0 0.894403 0.447421 0 0.894418 0.447408 0 0.89443 0.44739
0 0.894438 0.447369 0 0.894442 0.447345 0 0.894444 0.447321 0
0.894442 0.447298 0 0.894439 0.447277 0 0.894434 0.447258 0 0.894428
0.447242 0 0.894422 0.44723 0 0.894417 0.44722 0 0.894413 0.447213
0 0.894409 0.447208 0 0.894406 0.447205 0 0.894404 0.447202 0
0.894403 0.447201 0 0.894401 0.4472 0 0.894401 0.4472 0 0.8944
0.4472 0 0.8944 0.4472 0 0.8944 0.4472 0 0.8944 0.4472
0 0.8944 0.4472 0 0.8944 0.4472 0 0.8944 0.4472 0
0.8944 0.4472 0 0.8944 0.4472 0 0.8944 0.4472 0 
POINT_DATA  202
FIELD attributes 6
mag(U) 1 202 float
0.99997 0.99997 0.99997 0.99997 0.99997 0.99997 0.99997 0.99997 0.99997 0.99997 0.99997
0.99997 0.99997 0.99997 0.99997 0.99997 0.99997 0.99997 0.99997 0.99997 0.99997
0.99997 0.99997 0.99997 0.99997 0.99997 0.99997 0.99997 0.99997 0.99997 0.99997
0.99997 0.99997 0.99997 0.99997 0.99997 0.99997 0.99997 0.99997 0.99997 0.99997
0.99997 0.99997 0.99997 0.99997 0.99997 0.99997 0.99997 0.99997 0.99997 0.99997
0.99997 0.99997 0.99997 0.99997 0.99997 0.99997 0.99997 0.99997 0.99997 0.99997
0.99997 0.99997 0.99997 0.99997 0.99997 0.99997 0.99997 0.99997 0.99997 0.99997
0.99997 0.99997 0.99997 0.99997 0.99997 0.99997 0.99997 0.99997 0.99997 0.99997
0.99997 0.99997 0.99997 0.99997 0.99997 0.99997 0.99997 0.99997 0.99997 0.999971
0.999971 0.999972 0.999972 0.999973 0.999973 0.999975 0.999975 0.999976 0.999976 0.999978
0.999978 0.999979 0.999979 0.999978 0.999978 0.999976 0.999976 0.999972 0.999972 0.999965
0.999965 0.999958 0.999958 0.999949 0.999949 0.999939 0.999939 0.999929 0.999929 0.999922
0.999922 0.999918 0.999918 0.999918 0.999918 0.999923 0.999923 0.999933 0.999933 0.999947
0.999947 0.999966 0.999966 0.999987 0.999987 1.00001 1.00001 1.00003 1.00003 1.00005
1.00005 1.00006 1.00006 1.00007 1.00007 1.00008 1.00008 1.00008 1.00008 1.00007
1.00007 1.00007 1.00007 1.00006 1.00006 1.00005 1.00005 1.00004 1.00004 1.00002
1.00002 1.00001 1.00001 0.999999 0.999999 0.99999 0.99999 0.999984 0.999984 0.999979
0.999979 0.999975 0.999975 0.999973 0.999973 0.999971 0.999971 0.99997 0.99997 0.99997
0.99997 0.99997 0.99997 0.99997 0.99997 0.99997 0.99997 0.99997 0.99997 0.99997
0.99997 0.99997 0.99997 0.99997 0.99997 0.99997 0.99997 0.99997 0.99997 0.99997
0.99997 
p 1 202 float
1 1 1 1 1 1 1 1 1 1 1
1 1 1 1 1 1 1 1 1 1
1 1 1 1 1 1 1 1 1 1
1 1 1 1 1 1 1 1 1 1
1 1 1 1 1 1 1 1 1 1
1 1 1 1 1 1 1 1 1 1
1 1 1 1 1 1 1 1 1 1
1 1 1 1 1 1 1 1 1 1
1 1 1 1 1 1 1 1 1 1
1 0.999998 0.999998 0.999995 0.999995 0.99999 0.99999 0.999984 0.999984 0.999975
0.999975 0.999964 0.999964 0.999952 0.999952 0.999939 0.999939 0.999927 0.999927 0.999917
0.999917 0.999911 0.999911 0.999911 0.999911 0.999918 0.999918 0.999933 0.999933 0.999955
0.999955 0.999984 0.999984 1.00002 1.00002 1.00006 1.00006 1.0001 1.0001 1.00013
1.00013 1.00017 1.00017 1.0002 1.0002 1.00022 1.00022 1.00024 1.00024 1.00024
1.00024 1.00024 1.00024 1.00023 1.00023 1.00022 1.00022 1.0002 1.0002 1.00018
1.00018 1.00016 1.00016 1.00013 1.00013 1.00011 1.00011 1.00008 1.00008 1.00007
1.00007 1.00005 1.00005 1.00003 1.00003 1.00002 1.00002 1.00002 1.00002 1.00001
1.00001 1.00001 1.00001 1 1 1 1 1 1 1
1 1 1 1 1 1 1 1 1 1
1 1 1 1 1 1 1 1 1 1
1 
T 1 202 float
1 1 1 1 1 1 1 1 1 1 1
1 1 1 1 1 1 1 1 1 1
1 1 1 1 1 1 1 1 1 1
1 1 1 1 1 1 1 1 1 1
1 1 1 1 1 1 1 1 1 1
1 1 1 1 1 1 1 1 1 1
1 1 1 1 1 1 1 1 1 1
1 1 1 1 1 1 1 1 1 1
1 1 1 1 1 1 1 1 1 1
1 1 1 1 1 1 1 1 1 1
1 1 1 1 1 1 1 1 1 1
1 1 1 1 1 1 1 1 1 1
1 1 1 1 1 1 1 1 1 1
1 1 1 1 1 1 1 1 1 1
1 1 1 1 1 1 1 1 1 1
1 1 1 1 1 1 1 1 1 1
1 1 1 1 1 1 1 1 1 1
1 1 1 1 1 1 1 1 1 1
1 1 1 1 1 1 1 1 1 1
1 1 1 1 1 1 1 1 1 1
1 
e 1 202 float
1006.29 1006.29 1006.29 1006.29 1006.29 1006.29 1006.29 1006.29 1006.29 1006.29 1006.29
1006.29 1006.29 1006.29 1006.29 1006.29 1006.29 1006.29 1006.29 1006.29 1006.29
1006.29 1006.29 1006.29 1006.29 1006.29 1006.29 1006.29 1006.29 1006.29 1006.29
1006.29 1006.29 1006.29 1006.29 1006.29 1006.29 1006.29 1006.29 1006.29 1006.29
1006.29 1006.29 1006.29 1006.29 1006.29 1006.29 1006.29 1006.29 1006.29 1006.29
1006.29 1006.29 1006.29 1006.29 1006.29 1006.29 1006.29 1006.29 1006.29 1006.29
1006.29 1006.29 1006.29 1006.29 1006.29 1006.29 1006.29 1006.29 1006.29 1006.29
1006.29 1006.29 1006.29 1006.29 1006.29 1006.29 1006.29 1006.29 1006.29 1006.29
1006.29 1006.29 1006.29 1006.29 1006.29 1006.29 1006.29 1006.29 1006.29 1006.29
1006.29 1006.29 1006.29 1006.29 1006.29 1006.29 1006.29 1006.29 1006.29 1006.29
1006.29 1006.29 1006.29 1006.29 1006.29 1006.29 1006.29 1006.29 1006.29 1006.29
1006.29 1006.29 1006.29 1006.29 1006.29 1006.29 1006.29 1006.29 1006.29 1006.29
1006.29 1006.29 1006.29 1006.29 1006.29 1006.29 1006.29 1006.29 1006.29 1006.29
1006.29 1006.29 1006.29 1006.29 1006.29 1006.29 1006.29 1006.29 1006.29 1006.29
1006.29 1006.29 1006.29 1006.29 1006.29 1006.29 1006.29 1006.29 1006.29 1006.29
1006.29 1006.29 1006.29 1006.29 1006.29 1006.29 1006.29 1006.29 1006.29 1006.29
1006.29 1006.29 1006.29 1006.29 1006.29 1006.29 1006.29 1006.29 1006.29 1006.29
1006.29 1006.29 1006.29 1006.29 1006.29 1006.29 1006.29 1006.29 1006.29 1006.29
1006.29 1006.29 1006.29 1006.29 1006.29 1006.29 1006.29 1006.29 1006.29 1006.29
1006.29 1006.29 1006.29 1006.29 1006.29 1006.29 1006.29 1006.29 1006.29 1006.29
1006.29 
rho 1 202 float
1.40001 1.40001 1.40001 1.40001 1.40001 1.40001 1.40001 1.40001 1.40001 1.40001 1.40001
1.40001 1.40001 1.40001 1.40001 1.40001 1.40001 1.40001 1.40001 1.40001 1.40001
1.40001 1.40001 1.40001 1.40001 1.40001 1.40001 1.40001 1.40001 1.40001 1.40001
1.40001 1.40001 1.40001 1.4 1.4 1.4 1.4 1.40001 1.40001 1.40001
1.40001 1.4 1.4 1.4 1.4 1.40001 1.40001 1.4 1.4 1.4
1.4 1.4 1.4 1.4 1.4 1.4 1.4 1.4 1.4 1.40001
1.40001 1.40001 1.40001 1.4 1.4 1.40001 1.40001 1.40001 1.40001 1.40001
1.40001 1.40001 1.40001 1.40001 1.40001 1.40001 1.40001 1.40001 1.40001 1.40001
1.40001 1.40001 1.40001 1.40001 1.40001 1.40001 1.40001 1.40001 1.40001 1.4
1.4 1.4 1.4 1.4 1.4 1.39999 1.39999 1.39998 1.39998 1.39997
1.39997 1.39996 1.39996 1.39994 1.39994 1.39992 1.39992 1.3999 1.3999 1.39989
1.39989 1.39988 1.39988 1.39988 1.39988 1.39989 1.39989 1.39991 1.39991 1.39994
1.39994 1.39998 1.39998 1.40004 1.40004 1.40009 1.40009 1.40014 1.40014 1.4002
1.4002 1.40024 1.40024 1.40029 1.40029 1.40032 1.40032 1.40034 1.40034 1.40035
1.40035 1.40034 1.40034 1.40033 1.40033 1.40032 1.40032 1.40029 1.40029 1.40025
1.40025 1.40022 1.40022 1.40019 1.40019 1.40015 1.40015 1.40013 1.40013 1.4001
1.4001 1.40007 1.40007 1.40005 1.40005 1.40004 1.40004 1.40003 1.40003 1.40002
1.40002 1.40001 1.40001 1.40001 1.40001 1.40001 1.40001 1.40001 1.40001 1.40001
1.40001 1.4 1.4 1.4 1.4 1.4 1.4 1.4 1.4 1.4
1.4 1.4 1.4 1.4 1.4 1.4 1.4 1.40001 1.40001 1.40001
1.40001 
U 3 202 float
0.8944 0.4472 0 0.8944 0.4472 0 0.8944 0.4472 0 0.8944 0.4472
0 0.8944 0.4472 0 0.8944 0.4472 0 0.8944 0.4472 0
0.8944 0.4472 0 0.8944 0.4472 0 0.8944 0.4472 0 0.8944
0.4472 0 0.8944 0.4472 0 0.8944 0.4472 0 0.8944 0.4472
0 0.8944 0.4472 0 0.8944 0.4472 0 0.8944 0.4472 0
0.8944 0.4472 0 0.8944 0.4472 0 0.8944 0.4472 0 0.8944
0.4472 0 0.8944 0.4472 0 0.8944 0.4472 0 0.8944 0.4472
0 0.8944 0.4472 0 0.8944 0.4472 0 0.8944 0.4472 0
0.8944 0.4472 0 0.8944 0.4472 0 0.8944 0.4472 0 0.8944
0.4472 0 0.8944 0.4472 0 0.8944 0.4472 0 0.8944 0.4472
0 0.8944 0.4472 0 0.8944 0.4472 0 0.8944 0.4472 0
0.8944 0.4472 0 0.8944 0.4472 0 0.8944 0.4472 0 0.8944
0.4472 0 0.8944 0.4472 0 0.8944 0.4472 0 0.8944 0.4472
0 0.8944 0.4472 0 0.8944 0.4472 0 0.8944 0.4472 0
0.8944 0.4472 0 0.8944 0.4472 0 0.8944 0.4472 0 0.8944
0.4472 0 0.8944 0.4472 0 0.8944 0.4472 0 0.8944 0.4472
0 0.8944 0.4472 0 0.8944 0.4472 0 0.8944 0.4472 0
0.8944 0.4472 0 0.8944 0.4472 0 0.8944 0.4472 0 0.8944
0.4472 0 0.8944 0.4472 0 0.8944 0.4472 0 0.8944 0.4472
0 0.8944 0.4472 0 0.8944 0.4472 0 0.8944 0.4472 0
0.8944 0.4472 0 0.8944 0.4472 0 0.8944 0.4472 0 0.8944
0.4472 0 0.8944 0.4472 0 0.8944 0.4472 0 0.8944 0.4472
0 0.8944 0.4472 0 0.8944 0.4472 0 0.8944 0.4472 0
0.8944 0.4472 0 0.8944 0.4472 0 0.8944 0.4472 0 0.8944
0.4472 0 0.8944 0.4472 0 0.8944 0.4472 0 0.8944 0.4472
0 0.8944 0.447201 0 0.8944 0.447201 0 0.8944 0.447201 0
0.8944 0.447201 0 0.8944 0.447201 0 0.8944 0.447201 0 0.894401
0.447201 0 0.894401 0.447201 0 0.894403 0.4472 0 0.894403 0.4472
0 0.894405 0.447198 0 0.894405 0.447198 0 0.894408 0.447195 0
0.894408 0.447195 0 0.894412 0.44719 0 0.894412 0.44719 0 0.894417
0.447184 0 0.894417 0.447184 0 0.894422 0.447176 0 0.894422 0.447176
0 0.894427 0.447165 0 0.894427 0.447165 0 0.894431 0.447153 0
0.894431 0.447153 0 0.894432 0.447141 0 0.894432 0.447141 0 0.894431
0.447129 0 0.894431 0.447129 0 0.894427 0.447121 0 0.894427 0.447121
0 0.894418 0.447117 0 0.894418 0.447117 0 0.894406 0.447119 0
0.894406 0.447119 0 0.894391 0.447128 0 0.894391 0.447128 0 0.894374
0.447145 0 0.894374 0.447145 0 0.894357 0.447169 0 0.894357 0.447169
0 0.894342 0.4472 0 0.894342 0.4472 0 0.89433 0.447236 0
0.89433 0.447236 0 0.894322 0.447274 0 0.894322 0.447274 0 0.894319
0.447312 0 0.894319 0.447312 0 0.894323 0.447348 0 0.894323 0.447348
0 0.894331 0.447378 0 0.894331 0.447378 0 0.894343 0.447402 0
0.894343 0.447402 0 0.894359 0.447418 0 0.894359 0.447418 0 0.894377
0.447425 0 0.894377 0.447425 0 0.894394 0.447423 0 0.894394 0.447423
0 0.89441 0.447414 0 0.89441 0.447414 0 0.894424 0.447399 0
0.894424 0.447399 0 0.894434 0.447379 0 0.894434 0.447379 0 0.89444
0.447357 0 0.89444 0.447357 0 0.894443 0.447333 0 0.894443 0.447333
0 0.894443 0.447309 0 0.894443 0.447309 0 0.89444 0.447287 0
0.89444 0.447287 0 0.894436 0.447267 0 0.894436 0.447267 0 0.894431
0.44725 0 0.894431 0.44725 0 0.894425 0.447236 0 0.894425 0.447236
0 0.894419 0.447225 0 0.894419 0.447225 0 0.894415 0.447217 0
0.894415 0.447217 0 0.89441 0.44721 0 0.89441 0.44721 0 0.894407
0.447206 0 0.894407 0.447206 0 0.894405 0.447203 0 0.894405 0.447203
0 0.894403 0.447201 0 0.894403 0.447201 0 0.894402 0.447201 0
0.894402 0.447201 0 0.894401 0.4472 0 0.894401 0.4472 0 0.8944
0.4472 0 0.8944 0.4472 0 0.8944 0.4472 0 0.8944 0.4472
0 0.8944 0.4472 0 0.8944 0.4472 0 0.8944 0.4472 0
0.8944 0.4472 0 0.8944 0.4472 0 0.8944 0.4472 0 0.8944
0.4472 0 0.8944 0.4472 0 0.8944 0.4472 0 0.8944 0.4472
0 0.8944 0.4472 0 0.8944 0.4472 0 0.8944 0.4472 0
0.8944 0.4472 0 0.8944 0.4472 0 0.8944 0.4472 0 0.8944
0.4472 0 0.8944 0.4472 0 
