/*--------------------------------*- C++ -*----------------------------------*\
  =========                 |
  \\      /  F ield         | OpenFOAM: The Open Source CFD Toolbox
   \\    /   O peration     | Website:  https://openfoam.org
    \\  /    A nd           | Version:  6
     \\/     M anipulation  |
\*---------------------------------------------------------------------------*/
FoamFile
{
    version     2.0;
    format      ascii;
    class       volScalarField;
    location    "1.66";
    object      k;
}
// * * * * * * * * * * * * * * * * * * * * * * * * * * * * * * * * * * * * * //

dimensions      [0 2 -2 0 0 0 0];

internalField   nonuniform List<scalar> 
4214
(
0.0782172
0.0387062
0.0256946
0.0215164
0.0202622
0.019984
0.0200932
0.0204905
0.0213182
0.0229438
0.0260492
0.0317392
0.0416641
0.0581024
0.0842378
0.124784
0.188752
0.297966
0.497601
0.694635
0.699406
0.568781
0.391842
0.270308
0.190506
0.13345
0.0923373
0.0638063
0.0450345
0.0334151
0.0266682
0.0229937
0.021109
0.0201943
0.0197942
0.0197195
0.0200497
0.0213742
0.0256687
0.0389303
0.0790929
0.0247223
0.0207629
0.0194252
0.0190192
0.0189555
0.0190555
0.0193091
0.0198088
0.020779
0.0226523
0.0261939
0.0326141
0.0437043
0.0618992
0.0905689
0.134722
0.20417
0.323029
0.537143
0.739713
0.748464
0.622982
0.43651
0.301634
0.212678
0.148821
0.102467
0.0700068
0.0484619
0.0350075
0.0271269
0.0227912
0.0205471
0.0194428
0.0189268
0.0187076
0.0186607
0.0187854
0.019262
0.0206933
0.0248068
0.018809
0.0183015
0.0181296
0.0181053
0.0181719
0.0183347
0.018648
0.0192374
0.0203658
0.0225224
0.0265592
0.0337967
0.0461709
0.0662774
0.0976933
0.145757
0.22116
0.349971
0.578941
0.790358
0.800697
0.683078
0.487944
0.338665
0.238743
0.166923
0.114527
0.0775416
0.0527865
0.0371868
0.0279625
0.0228358
0.0201584
0.018829
0.0182002
0.0179183
0.0178137
0.0178136
0.0179075
0.01815
0.0187276
0.01778
0.0175192
0.0174387
0.0174538
0.0175513
0.0177531
0.0181261
0.0188167
0.0201288
0.0226147
0.0272208
0.0353835
0.0491903
0.0714026
0.105811
0.158119
0.240027
0.380256
0.624556
0.847843
0.861265
0.752975
0.548385
0.382565
0.269452
0.188349
0.129
0.0867834
0.0582807
0.0401489
0.0293187
0.0232321
0.0200203
0.0184096
0.0176405
0.0172881
0.0171463
0.0171217
0.0171831
0.0173398
0.0176706
0.0170897
0.0169149
0.0168743
0.0169206
0.0170533
0.0173014
0.0177461
0.0185606
0.0200995
0.0229861
0.0282726
0.037518
0.05297
0.077555
0.115282
0.172232
0.261207
0.413357
0.673442
0.910245
0.927342
0.831756
0.618968
0.434781
0.306077
0.214081
0.146658
0.0983145
0.0653617
0.0441723
0.0313714
0.0240835
0.02019
0.0182114
0.0172561
0.0168087
0.0166165
0.01656
0.0165952
0.0167158
0.0169629
0.0165431
0.0164374
0.016443
0.0165291
0.0167039
0.0170066
0.0175397
0.0185117
0.0203403
0.02373
0.0298562
0.0404079
0.057803
0.0851238
0.126598
0.188672
0.285347
0.44973
0.726509
0.977158
1.00017
0.921191
0.701805
0.496849
0.350273
0.245389
0.168517
0.11292
0.0746072
0.0496542
0.0343816
0.0255543
0.0207705
0.0182992
0.017091
0.0165137
0.0162529
0.0161522
0.0161498
0.0162258
0.0164037
0.0161351
0.0161143
0.0161728
0.0163026
0.0165242
0.0168921
0.0175396
0.0187198
0.0209308
0.0249708
0.0321632
0.0443338
0.0640826
0.0946235
0.140401
0.208197
0.3133
0.490563
0.784377
1.04947
1.07968
1.02199
0.799054
0.571375
0.404092
0.283916
0.195861
0.131613
0.086776
0.0571241
0.0387006
0.0278634
0.0218957
0.0187523
0.0171939
0.0164349
0.0160809
0.0159226
0.0158736
0.0158959
0.0159886
0.015937
0.0159885
0.0160959
0.0162667
0.0165384
0.0169873
0.017789
0.0192523
0.0219798
0.0268774
0.0354522
0.0496672
0.0723231
0.106715
0.157502
0.231778
0.346182
0.536965
0.848038
1.12849
1.16626
1.13506
0.913164
0.661212
0.469821
0.331665
0.23028
0.155658
0.102834
0.0672678
0.0447949
0.0313045
0.0237474
0.0196764
0.0176284
0.0166117
0.0161305
0.0159001
0.0157998
0.0157677
0.0157863
0.01599
0.0160899
0.0162317
0.016437
0.0167659
0.0173221
0.0183409
0.020197
0.0236349
0.0296775
0.0400687
0.0568941
0.0831858
0.122239
0.178913
0.260622
0.385285
0.5904
0.91879
1.21542
1.26026
1.26104
1.04669
0.769798
0.550671
0.391082
0.273716
0.186598
0.123983
0.080959
0.0532747
0.0362653
0.0265688
0.0212084
0.0184729
0.017085
0.0164262
0.0161028
0.01595
0.0158725
0.0158367
0.0163059
0.016419
0.0165781
0.0168154
0.0172209
0.0179302
0.0192652
0.021674
0.026101
0.0336808
0.0464793
0.0666527
0.0975216
0.142256
0.205925
0.296206
0.43246
0.652729
0.998244
1.31151
1.36221
1.40035
1.2022
0.901084
0.650541
0.465213
0.328595
0.22632
0.151716
0.0993018
0.0649416
0.0432604
0.0306924
0.0235332
0.019831
0.0179006
0.0169861
0.0165327
0.0163223
0.0162123
0.016154
0.0168304
0.0169381
0.0171114
0.0173936
0.0179191
0.0188576
0.0206641
0.0238546
0.0296722
0.0393171
0.0553257
0.0797891
0.116438
0.168102
0.24017
0.340409
0.489848
0.72625
1.08842
1.41806
1.47275
1.55294
1.38207
1.05946
0.774038
0.557995
0.397985
0.277157
0.187915
0.123697
0.0808597
0.052979
0.036586
0.0269094
0.0218542
0.0191217
0.017831
0.0171792
0.0168906
0.0167473
0.0166842
0.017494
0.0176004
0.0178069
0.018168
0.0188939
0.0201793
0.0226999
0.0269927
0.0347847
0.0471909
0.0675077
0.0974355
0.141404
0.201483
0.28371
0.395644
0.560113
0.813614
1.19167
1.53643
1.59322
1.71775
1.58818
1.24948
0.926562
0.67443
0.48586
0.342108
0.235027
0.15594
0.102471
0.0663504
0.044926
0.0317094
0.0247808
0.0208504
0.0190065
0.0180367
0.0176245
0.0174238
0.0173523
0.0182507
0.0183767
0.0186594
0.019157
0.0202206
0.0220238
0.0256418
0.0314704
0.0421048
0.0581604
0.0843163
0.121115
0.174396
0.244603
0.339213
0.464877
0.646675
0.917923
1.31039
1.66824
1.72631
1.89334
1.82147
1.47536
1.11441
0.820694
0.597541
0.425123
0.296365
0.198355
0.131784
0.0846304
0.056719
0.0384735
0.0289994
0.0232589
0.0206141
0.0191254
0.0185157
0.0182038
0.0181039
0.0190918
0.0192651
0.0196997
0.0204158
0.022054
0.0246056
0.029949
0.0378618
0.0526804
0.0734357
0.107644
0.152854
0.218141
0.300306
0.410194
0.551775
0.753689
1.04295
1.44728
1.81585
1.87542
2.08085
2.08232
1.74102
1.34415
1.00431
0.740226
0.531443
0.37662
0.253947
0.171695
0.109488
0.0735045
0.0479739
0.0351591
0.0266254
0.0228618
0.0205108
0.0195995
0.0190782
0.0189202
0.0200366
0.020287
0.0210165
0.0220529
0.0247002
0.0282649
0.0364271
0.047001
0.0682114
0.0946609
0.140339
0.195243
0.276501
0.372157
0.501423
0.660706
0.886212
1.19275
1.60496
1.98253
2.04401
2.28364
2.36986
2.04919
1.62203
1.2338
0.923758
0.667823
0.482764
0.326464
0.226555
0.143029
0.0977138
0.0612542
0.0443691
0.0313681
0.0261525
0.0223207
0.020985
0.0200672
0.019815
0.0211345
0.0214865
0.022816
0.0242417
0.0287704
0.033484
0.0465479
0.0599824
0.0915709
0.123835
0.186864
0.251242
0.355305
0.464231
0.619812
0.796044
1.05044
1.36921
1.78116
2.16512
2.21537
2.49353
2.67015
2.39551
1.95217
1.51677
1.16214
0.841971
0.625935
0.420055
0.303349
0.187545
0.133369
0.0795298
0.0585925
0.0380297
0.0312686
0.0247491
0.0229227
0.0212206
0.0208448
0.0225246
0.0229307
0.0255827
0.0271842
0.0355496
0.0407553
0.0631915
0.0778191
0.127978
0.162604
0.254904
0.323145
0.464633
0.579622
0.776814
0.959137
1.25452
1.5649
1.95567
2.32143
2.17065
2.62493
2.91818
2.7485
2.32951
1.8528
1.47713
1.05897
0.825973
0.537508
0.414492
0.244368
0.187664
0.103591
0.0815359
0.0470442
0.0397977
0.0279865
0.025977
0.0226062
0.0221652
0.021449
0.0205493
0.0196917
0.0188726
0.0180873
0.0173402
0.0166612
0.0161245
0.0158325
0.0158646
0.0161852
0.0167651
0.0174457
0.0183749
0.0201053
0.0363721
0.201203
0.021453
0.0206302
0.01986
0.0191199
0.0183981
0.0176923
0.0170224
0.0164482
0.0160616
0.0159638
0.0161645
0.0167004
0.0173809
0.0184799
0.02049
0.0385948
0.213384
0.0214375
0.0207374
0.020055
0.0193838
0.0187176
0.0180547
0.0174093
0.0168285
0.0163897
0.0161924
0.0162892
0.0167838
0.0175507
0.0189933
0.0216392
0.0429854
0.222392
0.0215414
0.0209126
0.0202894
0.0196719
0.0190542
0.0184334
0.0178197
0.0172489
0.0167815
0.0165089
0.0165157
0.0169685
0.0178759
0.0198579
0.0237345
0.0499198
0.2318
0.0217179
0.0211278
0.0205515
0.0199792
0.0194037
0.0188235
0.0182475
0.0177019
0.0172305
0.0169104
0.0168414
0.0172328
0.0182693
0.0208997
0.026807
0.0596374
0.241671
0.0218776
0.0213631
0.0208361
0.0203041
0.0197664
0.0192251
0.0186896
0.0181778
0.0177198
0.0173788
0.0172577
0.0175848
0.0187001
0.0219195
0.0306166
0.0719286
0.252333
0.0221633
0.0216492
0.0211481
0.0206471
0.0201428
0.0196392
0.0191452
0.0186719
0.0182401
0.0179011
0.017755
0.0180316
0.0191797
0.0228108
0.034614
0.0861646
0.263885
0.0223626
0.0219293
0.0214724
0.0210046
0.0205332
0.0200671
0.0196143
0.0191814
0.0187835
0.0184638
0.0183188
0.0185732
0.0197364
0.0236076
0.0381102
0.100676
0.276339
0.0227244
0.0222683
0.0218244
0.0213806
0.0209402
0.0205111
0.0200984
0.0197057
0.0193454
0.0190568
0.0189336
0.0191949
0.0203834
0.0243702
0.0405183
0.112946
0.289317
0.0229576
0.0225863
0.0221831
0.0217708
0.0213645
0.0209734
0.0205998
0.0202459
0.0199243
0.0196734
0.0195861
0.0198782
0.0211111
0.0251203
0.0416493
0.120603
0.301918
0.0233802
0.0229692
0.0225714
0.0221827
0.02181
0.0214565
0.0211207
0.0208044
0.0205212
0.0203111
0.0202684
0.0206087
0.021904
0.025912
0.0420144
0.122939
0.313153
0.0236468
0.0233228
0.0229665
0.0226134
0.0222784
0.0219626
0.0216634
0.0213833
0.0211385
0.0209709
0.0209773
0.0213766
0.0227511
0.0267677
0.0420744
0.120703
0.322567
0.0241192
0.0237457
0.0233971
0.0230733
0.0227745
0.0224949
0.0222306
0.021986
0.0217793
0.0216544
0.0217121
0.0221775
0.0236457
0.0277006
0.0421536
0.115575
0.330413
0.0244213
0.0241404
0.0238412
0.0235598
0.0232999
0.023056
0.0228257
0.0226158
0.0224469
0.0223651
0.0224762
0.0230106
0.0245826
0.0287084
0.0424204
0.109971
0.336889
0.0249345
0.024608
0.0243277
0.024082
0.0238586
0.023649
0.0234521
0.0232765
0.0231453
0.0231072
0.0232736
0.0238816
0.0255672
0.0297904
0.0429653
0.105056
0.34223
0.0252813
0.0250597
0.0248375
0.0246369
0.0244511
0.0242757
0.0241121
0.0239715
0.0238786
0.0238851
0.0241091
0.0247937
0.0266024
0.0309484
0.0438916
0.101108
0.346433
0.0258315
0.0255856
0.0253934
0.0252308
0.0250801
0.0249388
0.0248093
0.0247046
0.0246512
0.0247033
0.0249868
0.0257513
0.0276883
0.0321871
0.0451752
0.0979164
0.34935
0.026242
0.0261151
0.0259799
0.0258608
0.0257464
0.0256404
0.0255465
0.0254796
0.0254671
0.025567
0.0259114
0.0267589
0.0288273
0.0335046
0.0465728
0.0961855
0.350824
0.0268304
0.0267124
0.0266103
0.0265305
0.0264523
0.0263835
0.0263271
0.0263
0.0263305
0.0264814
0.0268879
0.0278214
0.0300216
0.0349017
0.0480814
0.0962576
0.351128
0.0273355
0.0273293
0.0272746
0.0272385
0.0271993
0.0271709
0.0271553
0.0271708
0.0272469
0.0274507
0.0279203
0.0289435
0.0312753
0.0363865
0.0498282
0.0973005
0.349953
0.0279687
0.0279978
0.0279811
0.0279879
0.0279911
0.0280067
0.0280357
0.0280974
0.0282228
0.0284817
0.0290154
0.0301278
0.0325838
0.0379478
0.0517714
0.0990915
0.347007
0.0286134
0.0286924
0.0287259
0.0287801
0.0288311
0.0288949
0.0289733
0.0290858
0.0292649
0.0295821
0.0301824
0.0313864
0.0339674
0.0396022
0.0539227
0.101695
0.342733
0.0292992
0.029428
0.0295154
0.0296197
0.0297239
0.0298409
0.0299745
0.0301431
0.0303811
0.0307609
0.0314312
0.0327276
0.035434
0.041337
0.056199
0.104281
0.338128
0.030028
0.0301992
0.0303467
0.0305091
0.0306733
0.0308502
0.031045
0.0312756
0.0315763
0.0320198
0.0327568
0.0341298
0.0369312
0.0430509
0.058364
0.106664
0.333636
0.0307829
0.0310195
0.0312301
0.0314549
0.0316853
0.0319297
0.0321936
0.0324936
0.0328631
0.0333731
0.034174
0.0356086
0.0384742
0.0447373
0.06037
0.108675
0.329417
0.0315854
0.0318789
0.0321629
0.0324612
0.0327671
0.0330883
0.0334307
0.0338097
0.0342566
0.0348389
0.0357039
0.0371874
0.0400832
0.0464033
0.062195
0.110295
0.325573
0.0324202
0.0327944
0.033156
0.0335346
0.0339258
0.0343351
0.0347679
0.0352383
0.0357748
0.0364396
0.0373733
0.0388985
0.0417939
0.0480827
0.0638461
0.111612
0.322153
0.0333078
0.0337555
0.0342087
0.034681
0.0351698
0.0356805
0.0362184
0.0367959
0.0374384
0.0382018
0.0392156
0.0407842
0.0436586
0.0498483
0.0654248
0.112732
0.31916
0.0342334
0.0347795
0.0353306
0.0359073
0.0365077
0.0371359
0.0377966
0.0385008
0.0392708
0.0401554
0.04127
0.0428959
0.0457439
0.0517765
0.0670193
0.113765
0.316558
0.0352147
0.0358569
0.0365235
0.0372208
0.0379495
0.0387138
0.0395187
0.0403739
0.0412988
0.0423349
0.0435823
0.0452927
0.0481248
0.0539557
0.0687225
0.114677
0.314284
0.0362416
0.0370042
0.037796
0.0386294
0.0395055
0.0404283
0.041403
0.0424387
0.0435524
0.0447793
0.0462039
0.0480436
0.0508946
0.0565111
0.0706582
0.115541
0.312269
0.0373228
0.038214
0.039152
0.040142
0.0411879
0.0422951
0.0434699
0.0447216
0.0460658
0.047533
0.0491933
0.051229
0.0541617
0.0595908
0.0730103
0.116476
0.310446
0.0384591
0.039501
0.0405998
0.0417677
0.0430094
0.0443317
0.0457427
0.0472532
0.0488791
0.0506482
0.0526192
0.0549422
0.0580554
0.0633784
0.0760288
0.117694
0.308755
0.0396548
0.0408602
0.0421451
0.043517
0.0449846
0.0465579
0.0482481
0.0500692
0.0520395
0.054187
0.056564
0.0592935
0.0627328
0.0680956
0.0800209
0.119491
0.307139
0.0409097
0.0423041
0.043796
0.0454008
0.0471297
0.0489964
0.0510173
0.0532117
0.0556036
0.0582255
0.0611291
0.06442
0.0683854
0.0740181
0.085382
0.122304
0.30555
0.0422279
0.0438296
0.0455596
0.0474316
0.049463
0.0516738
0.0540874
0.0567319
0.0596412
0.0628582
0.0664427
0.0704959
0.0752548
0.0815027
0.0926391
0.126784
0.303944
0.0436084
0.0454475
0.0474446
0.0496228
0.0520055
0.054621
0.0575031
0.0606927
0.0642396
0.0682056
0.0726708
0.0777511
0.0836633
0.0910227
0.102511
0.133905
0.302282
0.0450543
0.0471559
0.0494588
0.0519891
0.0547806
0.0578737
0.0613172
0.0651708
0.0695085
0.0744228
0.0800318
0.0864938
0.0940513
0.103228
0.116023
0.145186
0.300528
0.0465633
0.0489628
0.0516104
0.0545455
0.057814
0.0614729
0.0655923
0.0702599
0.075586
0.0817115
0.0888184
0.0971483
0.107038
0.119044
0.134669
0.163043
0.298639
0.0481363
0.0508666
0.0539075
0.057309
0.0611354
0.0654671
0.0704052
0.0760781
0.0826512
0.090341
0.0994345
0.11032
0.123538
0.139876
0.160742
0.191567
0.29656
0.0498031
0.0511358
0.0524791
0.0538271
0.0551732
0.0565102
0.0578289
0.0591207
0.0603764
0.061586
0.0627399
0.0638273
0.0648383
0.0657625
0.0665906
0.0673134
0.0679228
0.0684117
0.0687736
0.0690047
0.0690962
0.0690044
0.0687727
0.06841
0.0679204
0.0673101
0.0665863
0.0657571
0.0648317
0.0638193
0.0627305
0.0615751
0.0603637
0.0591061
0.0578123
0.0564914
0.0551523
0.0538038
0.0524533
0.0511069
0.0497704
0.0529015
0.0543114
0.0557313
0.0571527
0.0585715
0.0599775
0.0613638
0.0627195
0.0640366
0.0653034
0.0665111
0.0676476
0.0687037
0.0696678
0.0705311
0.0712836
0.0719176
0.0724254
0.0728009
0.0730394
0.0731332
0.0730392
0.0728002
0.0724241
0.0719158
0.0712811
0.0705277
0.0696635
0.0686983
0.0676411
0.0665034
0.0652943
0.064026
0.0627073
0.0613499
0.0599616
0.0585537
0.0571329
0.0557093
0.0542869
0.0528742
0.0563819
0.057875
0.0593751
0.0608761
0.0623713
0.0638521
0.0653096
0.0667341
0.0681158
0.069444
0.0707081
0.0718973
0.0730006
0.0740074
0.0749075
0.0756918
0.0763516
0.0768794
0.077269
0.0775156
0.0776115
0.0775155
0.0772686
0.0768786
0.0763503
0.07569
0.0749051
0.0740041
0.0729965
0.0718922
0.0707021
0.0694368
0.0681072
0.0667242
0.0652982
0.0638391
0.0623566
0.0608597
0.0593567
0.0578546
0.0563596
0.0603168
0.0618974
0.0634831
0.0650686
0.066646
0.0682061
0.0697398
0.0712372
0.0726878
0.0740808
0.0754051
0.0766496
0.0778031
0.0788547
0.079794
0.0806115
0.0812985
0.0818474
0.0822519
0.082507
0.0826051
0.082507
0.0822517
0.081847
0.0812978
0.0806104
0.0797923
0.0788525
0.0778002
0.0766459
0.0754006
0.0740753
0.0726812
0.0712295
0.0697308
0.0681957
0.0666341
0.0650553
0.0634682
0.0618809
0.0602987
0.0647942
0.0664686
0.0681456
0.069821
0.0714858
0.0731304
0.0747451
0.0763197
0.0778434
0.0793049
0.0806927
0.0819956
0.083202
0.0843007
0.085281
0.0861334
0.0868489
0.0874199
0.0878399
0.0881039
0.0882042
0.0881039
0.0878399
0.0874198
0.0868487
0.0861329
0.0852801
0.0842994
0.0832002
0.0819932
0.0806897
0.079301
0.0778387
0.0763141
0.0747384
0.0731225
0.0714766
0.0698105
0.068134
0.0664557
0.06478
0.0699272
0.0717019
0.0734765
0.0752472
0.0770047
0.0787389
0.0804394
0.0820956
0.0836963
0.0852299
0.0866845
0.0880485
0.0893101
0.090458
0.0914812
0.0923698
0.093115
0.0937089
0.0941449
0.094418
0.0945208
0.0944182
0.0941451
0.0937091
0.0931152
0.0923698
0.091481
0.0904575
0.0893093
0.0880472
0.0866828
0.0852275
0.0836933
0.0820918
0.0804347
0.0787331
0.076998
0.0752394
0.0734679
0.0716924
0.0699166
0.0758608
0.0777428
0.0796211
0.0814928
0.0833481
0.0851764
0.0869671
0.088709
0.0903903
0.0919991
0.0935232
0.0949507
0.0962696
0.0974683
0.0985356
0.0994616
0.100237
0.100855
0.101307
0.101589
0.101695
0.10159
0.101307
0.100855
0.100238
0.0994621
0.098536
0.0974685
0.0962696
0.0949505
0.0935226
0.091998
0.0903887
0.0887068
0.0869641
0.0851726
0.0833436
0.0814874
0.0796153
0.0777362
0.0758534
0.0827842
0.0847799
0.0867677
0.0887454
0.0907032
0.0926297
0.094514
0.0963447
0.0981094
0.0997957
0.101391
0.102884
0.104261
0.105511
0.106623
0.107587
0.108393
0.109034
0.109503
0.109795
0.109902
0.109795
0.109504
0.109035
0.108394
0.107588
0.106624
0.105512
0.104262
0.102884
0.101392
0.0997957
0.098109
0.0963436
0.0945124
0.0926276
0.0907006
0.0887422
0.0867642
0.0847759
0.0827795
0.0909467
0.0930617
0.0951635
0.0972514
0.0993149
0.101342
0.103322
0.105243
0.107092
0.108857
0.110524
0.112081
0.113517
0.114818
0.115975
0.116976
0.117812
0.118476
0.118961
0.119261
0.119371
0.119262
0.118961
0.118477
0.117813
0.116977
0.115976
0.11482
0.113518
0.112083
0.110525
0.108857
0.107092
0.105243
0.103322
0.101341
0.0993138
0.0972499
0.0951619
0.0930597
0.0909444
0.100684
0.102921
0.105139
0.107338
0.109508
0.111636
0.113711
0.115721
0.117653
0.119494
0.12123
0.12285
0.124341
0.125692
0.12689
0.127925
0.12879
0.129475
0.129975
0.130283
0.130395
0.130284
0.129975
0.129476
0.128791
0.127927
0.126891
0.125693
0.124343
0.122852
0.121232
0.119495
0.117654
0.115721
0.113712
0.111637
0.109508
0.107338
0.105139
0.10292
0.100683
0.112455
0.114812
0.117144
0.119451
0.121724
0.123948
0.126112
0.128204
0.130212
0.132123
0.133923
0.135599
0.137139
0.138532
0.139766
0.140832
0.14172
0.142423
0.142934
0.14325
0.143362
0.14325
0.142935
0.142424
0.141721
0.140833
0.139768
0.138534
0.137141
0.135601
0.133924
0.132124
0.130214
0.128205
0.126113
0.123949
0.121724
0.119452
0.117144
0.114812
0.112456
0.126903
0.129367
0.131803
0.134206
0.136568
0.138875
0.141115
0.143276
0.145346
0.147312
0.149161
0.15088
0.152457
0.15388
0.15514
0.156226
0.15713
0.157845
0.158364
0.158683
0.158795
0.158683
0.158364
0.157846
0.157131
0.156227
0.155141
0.153882
0.152458
0.150881
0.149162
0.147313
0.145348
0.143277
0.141117
0.138877
0.13657
0.134208
0.131804
0.129369
0.126904
0.144948
0.147492
0.150004
0.152478
0.154901
0.157263
0.15955
0.161752
0.163856
0.16585
0.167721
0.169459
0.17105
0.172483
0.17375
0.17484
0.175746
0.176462
0.17698
0.177297
0.177409
0.177297
0.17698
0.176462
0.175747
0.174841
0.173751
0.172485
0.171051
0.16946
0.167723
0.165851
0.163857
0.161753
0.159552
0.157264
0.154903
0.152479
0.150006
0.147494
0.144949
0.167946
0.170514
0.173049
0.175537
0.177967
0.180329
0.182611
0.1848
0.186888
0.188861
0.190709
0.192421
0.193985
0.195392
0.196633
0.1977
0.198585
0.199283
0.199787
0.200095
0.200202
0.200095
0.199787
0.199283
0.198586
0.197701
0.196634
0.195393
0.193986
0.192422
0.19071
0.188862
0.186889
0.184801
0.182612
0.18033
0.177968
0.175538
0.17305
0.170515
0.167947
0.197963
0.200443
0.202895
0.205292
0.207626
0.209887
0.212064
0.214146
0.216125
0.217992
0.219734
0.221345
0.222813
0.224131
0.225291
0.226287
0.227111
0.22776
0.228228
0.228512
0.22861
0.228512
0.228228
0.22776
0.227112
0.226287
0.225292
0.224132
0.222814
0.221345
0.219735
0.217992
0.216126
0.214147
0.212065
0.209887
0.207627
0.205293
0.202895
0.200444
0.197964
0.238256
0.240439
0.242602
0.244709
0.246753
0.248724
0.250615
0.252418
0.254125
0.255728
0.257222
0.258598
0.25985
0.26097
0.261954
0.262797
0.263493
0.26404
0.264434
0.264673
0.264754
0.264673
0.264434
0.26404
0.263494
0.262797
0.261954
0.26097
0.25985
0.258598
0.257222
0.255729
0.254125
0.252418
0.250615
0.248724
0.246753
0.24471
0.242602
0.240439
0.238256
0.294192
0.295677
0.297157
0.29859
0.299973
0.301301
0.302568
0.303772
0.304907
0.30597
0.306955
0.30786
0.308681
0.309413
0.310055
0.310603
0.311055
0.311409
0.311664
0.311818
0.31187
0.311818
0.311664
0.31141
0.311055
0.310603
0.310055
0.309413
0.308681
0.30786
0.306955
0.30597
0.304907
0.303772
0.302569
0.301301
0.299973
0.29859
0.297157
0.295677
0.294193
0.19847
0.0359612
0.0201114
0.018425
0.0175158
0.0168508
0.0162752
0.0159556
0.0159281
0.0162257
0.0167644
0.017445
0.0182004
0.0190136
0.0198943
0.0208492
0.0218646
0.210392
0.0381932
0.0204691
0.0185146
0.0174379
0.01677
0.016229
0.0160233
0.0161206
0.0165111
0.0170912
0.0177683
0.0184874
0.0192387
0.0200383
0.0209101
0.0218638
0.219352
0.0425514
0.0215921
0.0190282
0.0176075
0.0168482
0.0163378
0.0162302
0.016423
0.0168666
0.0174553
0.0181099
0.0187872
0.0194813
0.0202056
0.0209896
0.0218744
0.228832
0.0494729
0.023688
0.0199264
0.0179507
0.0170383
0.0165568
0.0165345
0.0168007
0.0172721
0.0178501
0.0184733
0.0191078
0.0197482
0.0204009
0.0210765
0.0217932
0.238965
0.059281
0.0268239
0.02104
0.0183733
0.0173106
0.0168787
0.0169294
0.0172427
0.0177174
0.0182691
0.0188542
0.0194486
0.0200453
0.0206474
0.0212584
0.0218795
0.250001
0.0718069
0.0307952
0.0221518
0.0188317
0.0176655
0.0172929
0.0173952
0.0177299
0.0181903
0.018707
0.0192506
0.0198064
0.0203668
0.0209317
0.0215031
0.0220639
0.26198
0.0864982
0.0350487
0.0231199
0.0193275
0.018111
0.0177891
0.0179176
0.0182515
0.0186849
0.019162
0.0196628
0.0201792
0.0207045
0.0212352
0.0217772
0.0223505
0.274851
0.101709
0.0388332
0.0239507
0.0198875
0.0186489
0.0183529
0.0184824
0.0187978
0.0191972
0.0196335
0.0200928
0.0205709
0.0210611
0.0215527
0.0220377
0.0225214
0.288345
0.114874
0.0414982
0.024725
0.020529
0.0192666
0.0189687
0.0190785
0.0193636
0.0197255
0.0201218
0.0205411
0.0209826
0.0214425
0.0219091
0.0223655
0.0227775
0.301605
0.123337
0.0427305
0.0254576
0.0212475
0.0199466
0.0196231
0.0196989
0.0199469
0.0202703
0.0206282
0.0210082
0.0214111
0.0218378
0.0222829
0.0227409
0.02322
0.313562
0.126033
0.0430142
0.0262119
0.0220297
0.0206747
0.0203077
0.020341
0.0205488
0.020834
0.0211546
0.0214966
0.0218599
0.0222472
0.0226533
0.0230637
0.023473
0.323623
0.12374
0.0429001
0.0270238
0.0228659
0.0214414
0.0210193
0.0210052
0.0211713
0.0214183
0.0217026
0.0220082
0.0223343
0.0226857
0.0230618
0.0234426
0.0237736
0.331924
0.118087
0.042778
0.0279118
0.0237501
0.0222407
0.0217571
0.0216933
0.0218171
0.0220258
0.0222743
0.0225444
0.0228333
0.0231477
0.0234964
0.023881
0.0242939
0.338722
0.11182
0.0428752
0.0288772
0.0246756
0.0230722
0.0225239
0.0224084
0.0224896
0.0226605
0.0228737
0.0231088
0.0233603
0.0236323
0.023934
0.024268
0.0246297
0.344273
0.106403
0.0432989
0.0299266
0.0256499
0.0239411
0.0233236
0.0231545
0.0231927
0.0233258
0.0235043
0.0237054
0.0239212
0.0241541
0.0244132
0.0247005
0.0249717
0.348581
0.102152
0.0440916
0.0310595
0.0266762
0.0248517
0.0241612
0.023936
0.0239304
0.0240252
0.0241684
0.0243355
0.0245161
0.0247111
0.0249314
0.0251995
0.0255286
0.351529
0.0988972
0.0452819
0.0322708
0.027752
0.0258064
0.0250404
0.0247573
0.0247067
0.0247621
0.0248691
0.0250015
0.0251461
0.0253013
0.0254719
0.0256793
0.0259511
0.352968
0.0967924
0.0467107
0.0335668
0.0288815
0.0268106
0.0259657
0.0256233
0.0255257
0.0255405
0.0256097
0.0257062
0.0258147
0.0259322
0.0260577
0.0262069
0.0263592
0.353142
0.0966661
0.0481782
0.0349412
0.0300657
0.0278688
0.0269417
0.0265391
0.0263914
0.0263635
0.0263927
0.0264515
0.0265224
0.0266026
0.0266867
0.026801
0.0269442
0.351819
0.097623
0.0498772
0.0364022
0.0313086
0.0289858
0.0279725
0.0275086
0.027309
0.0272357
0.0272223
0.0272402
0.0272703
0.0273104
0.0273488
0.0274139
0.0274796
0.348713
0.0993388
0.0517741
0.0379393
0.0326051
0.0301643
0.0290649
0.0285388
0.0282849
0.0281628
0.0281034
0.0280767
0.0280626
0.0280597
0.0280533
0.0280727
0.0280374
0.344298
0.101904
0.0538785
0.0395687
0.0339762
0.031417
0.0302282
0.0296374
0.0293261
0.0291507
0.0290409
0.0289647
0.0289022
0.0288523
0.0288007
0.0287732
0.0286913
0.339502
0.104513
0.0561312
0.0412894
0.0354319
0.0327517
0.0314736
0.0308142
0.0304409
0.030207
0.0300411
0.0299094
0.0297936
0.029691
0.0295878
0.0295003
0.0293777
0.33481
0.106897
0.0582806
0.042992
0.0369213
0.0341497
0.0327961
0.0320708
0.0316344
0.0313381
0.0311103
0.0309175
0.0307423
0.03058
0.0304181
0.0302725
0.0301077
0.330393
0.108783
0.0602671
0.0446697
0.0384585
0.0356252
0.0342106
0.0334218
0.032919
0.032554
0.0322569
0.0319953
0.0317529
0.0315238
0.0312999
0.0310937
0.0308647
0.326362
0.110351
0.0620795
0.046331
0.0400644
0.0372018
0.0357383
0.0348853
0.0343102
0.0338678
0.0334917
0.0331516
0.0328321
0.0325277
0.0322324
0.0319506
0.0316545
0.322771
0.111575
0.063721
0.0480095
0.0417744
0.0389119
0.037406
0.0364838
0.0358259
0.0352938
0.0348264
0.034396
0.0339887
0.0335994
0.0332215
0.0328583
0.0324992
0.319629
0.112637
0.0652938
0.0497783
0.0436404
0.0407973
0.0392468
0.0382437
0.0374866
0.0368483
0.0362739
0.0357384
0.03523
0.0347433
0.0342734
0.033826
0.0333826
0.316899
0.113641
0.0668915
0.0517128
0.0457287
0.0429094
0.0412998
0.0401948
0.039316
0.03855
0.0378489
0.0371907
0.0365649
0.0359664
0.0353921
0.0348421
0.034301
0.31452
0.11453
0.068603
0.0539003
0.0481135
0.0453068
0.0436107
0.0423715
0.0413406
0.0404196
0.0395674
0.0387652
0.0380035
0.0372774
0.0365828
0.0359175
0.0352791
0.312423
0.115378
0.0705495
0.0564653
0.0508876
0.0480582
0.0462304
0.0448127
0.0435905
0.0424805
0.0414479
0.0404761
0.0395562
0.0386829
0.0378516
0.0370632
0.0363095
0.31054
0.116323
0.0729183
0.0595556
0.0541587
0.0512435
0.0492173
0.0475629
0.0461
0.0447593
0.0435109
0.0423392
0.0412349
0.0401919
0.0392054
0.0382724
0.0373806
0.308806
0.117567
0.0759581
0.0633538
0.0580558
0.0549558
0.0526403
0.0506742
0.0489091
0.0472867
0.0457796
0.0443718
0.0430528
0.0418144
0.0406498
0.0395516
0.0385164
0.307163
0.119393
0.0799705
0.0680798
0.0627351
0.0593055
0.0565818
0.054209
0.0520651
0.0500983
0.0482807
0.046594
0.0450242
0.0435601
0.0421916
0.0409121
0.0397148
0.305558
0.122239
0.0853503
0.0740091
0.0683882
0.0644296
0.0611431
0.0582433
0.0556249
0.0532365
0.0510458
0.0490285
0.0471655
0.0454403
0.0438392
0.0423515
0.04096
0.303944
0.126755
0.0926225
0.0814978
0.0752568
0.0705025
0.0664529
0.0628718
0.0596583
0.0567526
0.0541118
0.051702
0.049495
0.0474674
0.0455996
0.0438731
0.0422752
0.30228
0.133896
0.102503
0.0910193
0.0836636
0.0777546
0.0726773
0.0682153
0.0642527
0.0607094
0.0575235
0.0546453
0.0520338
0.0496551
0.0474807
0.0454875
0.0436587
0.300525
0.145187
0.116019
0.103224
0.0940497
0.0864946
0.0800351
0.0744291
0.069518
0.0651837
0.0613338
0.0578942
0.0548052
0.0520178
0.0494918
0.0471947
0.045094
0.298638
0.163046
0.134665
0.11904
0.107035
0.0971471
0.0888193
0.0817149
0.0755923
0.0702694
0.0656053
0.0614897
0.0578349
0.0545706
0.05164
0.0489955
0.0466006
0.296559
0.191568
0.160739
0.139872
0.123535
0.110318
0.0994338
0.0903423
0.082655
0.0760847
0.0704151
0.0654806
0.0611528
0.0573305
0.0539334
0.0508975
0.0481757
0.024621
0.0308212
0.0498545
0.0998809
0.209614
0.409087
0.71575
1.14282
1.75963
2.31403
2.86614
3.05009
2.22224
1.31097
0.674788
0.310153
0.131698
0.0577508
0.031852
0.0242021
0.026453
0.0355996
0.0626742
0.131116
0.275177
0.528039
0.903906
1.39818
2.02224
2.52717
3.01353
3.49592
2.73076
1.66473
0.868181
0.402482
0.171551
0.0729458
0.0370376
0.0259365
0.0290086
0.0425218
0.0810187
0.174366
0.363349
0.686577
1.15495
1.72882
2.34375
2.77408
3.18441
4.09865
3.33645
2.12062
1.12397
0.525218
0.225428
0.0941613
0.0444574
0.028348
0.0326888
0.0526516
0.107204
0.233924
0.482321
0.899401
1.48341
2.13071
2.71582
3.01371
3.33332
4.74265
4.05103
2.69191
1.46279
0.689708
0.298213
0.123757
0.0551676
0.0318127
0.0381277
0.0675444
0.14439
0.315743
0.644091
1.18768
1.91474
2.62874
3.15285
3.23079
3.42969
5.2451
4.83913
3.40349
1.90502
0.910991
0.396734
0.164964
0.0707079
0.0369267
0.0462981
0.089406
0.196865
0.428494
0.866253
1.57644
2.47893
3.23621
3.70344
3.42798
3.47345
5.62492
5.66968
4.24973
2.49273
1.2106
0.530735
0.222169
0.0932776
0.0446172
0.0586844
0.121332
0.270643
0.58501
1.17315
2.10095
3.16555
3.91597
4.18287
3.57294
3.48094
5.88768
6.56488
5.19644
3.23108
1.61704
0.714031
0.30153
0.126002
0.0563289
0.0775105
0.16767
0.374716
0.803055
1.59352
2.7554
3.94187
4.64258
4.63552
3.66216
3.46267
6.05399
7.36657
6.16713
4.09947
2.15601
0.965368
0.411922
0.173297
0.074289
0.106064
0.23473
0.522308
1.10965
2.1455
3.49936
4.74619
5.38335
5.03075
3.7
3.43128
6.13996
7.93285
7.06315
5.0239
2.84001
1.31381
0.566101
0.241498
0.101906
0.14921
0.33222
0.732042
1.53357
2.80362
4.26323
5.5269
6.09729
5.28147
3.72915
3.39841
6.20277
8.28251
7.81901
5.90061
3.62628
1.78846
0.781598
0.340032
0.14438
0.214418
0.4749
1.03668
2.0805
3.50493
4.99573
6.22728
6.54848
5.40573
3.74513
3.39639
6.25192
8.44127
8.397
6.64796
4.41737
2.38982
1.08849
0.482741
0.20974
0.313457
0.685769
1.46153
2.71059
4.19556
5.66343
6.73172
6.64742
5.39193
3.75428
3.44622
6.29145
8.45323
8.73967
7.22761
5.11565
3.06692
1.51815
0.690087
0.310644
0.465514
1.00523
2.00529
3.36593
4.84905
6.21124
6.86738
6.49982
5.25046
3.75771
3.57296
6.3046
8.28973
8.71738
7.62568
5.66958
3.71535
2.06277
0.99996
0.466982
0.704834
1.45116
2.618
4.00821
5.42782
6.42576
6.6904
6.16972
5.0306
3.77833
3.75631
6.25562
7.96114
8.42661
7.75666
6.08728
4.26551
2.6539
1.43526
0.712903
1.06953
2.00802
3.25633
4.60674
5.75204
6.28488
6.27112
5.75625
4.83513
3.91215
4.00907
6.14354
7.49595
7.91295
7.51675
6.3376
4.70219
3.20159
1.97799
1.10535
1.56431
2.62344
3.85592
5.01838
5.67473
5.93988
5.81999
5.40875
4.76224
4.17811
4.36968
5.99547
6.96424
7.25719
6.99729
6.22606
5.01055
3.64692
2.51812
1.65382
2.11491
3.20616
4.28104
4.96131
5.37745
5.52819
5.49323
5.28433
4.9442
4.6677
4.89563
5.92639
6.49087
6.59552
6.34298
5.84241
5.03723
3.98021
2.95851
2.23043
2.65482
3.57886
4.16574
4.64277
4.99479
5.23858
5.40603
5.46178
5.42549
5.39967
5.58529
6.0394
6.20993
6.09088
5.76147
5.31836
4.73933
4.0376
3.24406
2.61411