/*--------------------------------*- C++ -*----------------------------------*\
  =========                 |
  \\      /  F ield         | OpenFOAM: The Open Source CFD Toolbox
   \\    /   O peration     | Website:  https://openfoam.org
    \\  /    A nd           | Version:  6
     \\/     M anipulation  |
\*---------------------------------------------------------------------------*/
FoamFile
{
    version     2.0;
    format      ascii;
    class       volScalarField;
    location    "3.54";
    object      p;
}
// * * * * * * * * * * * * * * * * * * * * * * * * * * * * * * * * * * * * * //

dimensions      [1 -1 -2 0 0 0 0];

internalField   nonuniform List<scalar> 
22500
(
1
1
1
1
1
1
1
1
1
1
1
1
1
1
1
1
1
1
1
1
1
1
1
1
1
1
1
1
1
1
1
1
1
1
1
1
1
1
1
1
1
1
1
1
1
1
1
1
1
1
1
1
1
1
1
1
1
1
1
1
1
1
1
1
1
1
1
1
0.999999
0.999998
0.999997
0.999996
0.999995
0.999993
0.99999
0.999988
0.999985
0.999982
0.999979
0.999975
0.999972
0.999969
0.999967
0.999965
0.999964
0.999964
0.999965
0.999968
0.999972
0.999978
0.999984
0.999992
1
1.00001
1.00002
1.00003
1.00004
1.00005
1.00006
1.00007
1.00007
1.00008
1.00008
1.00009
1.00009
1.00009
1.00009
1.00008
1.00008
1.00008
1.00007
1.00006
1.00006
1.00005
1.00005
1.00004
1.00004
1.00003
1.00003
1.00002
1.00002
1.00001
1.00001
1.00001
1.00001
1
1
1
1
1
1
1
1
1
1
1
1
1
1
1
1
1
1
1
1
1
1
1
1
1
1
1
1
1
1
1
1
1
1
1
1
1
1
1
1
1
1
1
1
1
1
1
1
1
1
1
1
1
1
1
1
1
1
1
1
1
1
1
1
1
1
1
1
1
1
1
1
1
1
1
1
1
1
1
1
1
1
1
1
1
1
1
1
1
1
1
1
0.999999
0.999999
0.999998
0.999997
0.999995
0.999993
0.999992
0.999989
0.999985
0.999982
0.999979
0.999974
0.99997
0.999967
0.999964
0.999962
0.999961
0.999961
0.999963
0.999966
0.999971
0.999978
0.999986
0.999996
1.00001
1.00002
1.00003
1.00005
1.00006
1.00007
1.00008
1.0001
1.0001
1.00011
1.00012
1.00012
1.00012
1.00012
1.00012
1.00012
1.00011
1.00011
1.0001
1.00009
1.00008
1.00008
1.00007
1.00006
1.00005
1.00005
1.00004
1.00003
1.00003
1.00002
1.00002
1.00001
1.00001
1.00001
1.00001
1
1
1
1
1
1
1
1
1
1
1
1
1
1
1
1
1
1
1
1
1
1
1
1
1
1
1
1
1
1
1
1
1
1
1
1
1
1
1
1
1
1
1
1
1
1
1
1
1
1
1
1
1
1
1
1
1
1
1
1
1
1
1
1
1
1
1
1
1
1
1
1
1
1
1
1
1
1
1
1
1
1
1
1
1
1
1
1
1
1
1
1
0.999998
0.999998
0.999996
0.999995
0.999992
0.999989
0.999987
0.999983
0.999979
0.999975
0.999971
0.999966
0.999963
0.999961
0.99996
0.999959
0.999961
0.999966
0.999972
0.99998
0.999992
1
1.00002
1.00004
1.00005
1.00007
1.00009
1.00011
1.00012
1.00014
1.00015
1.00016
1.00017
1.00017
1.00018
1.00018
1.00017
1.00017
1.00016
1.00015
1.00014
1.00013
1.00012
1.00011
1.0001
1.00009
1.00008
1.00007
1.00006
1.00005
1.00004
1.00003
1.00003
1.00002
1.00002
1.00001
1.00001
1.00001
1
1
1
1
1
1
1
1
1
1
1
1
1
1
1
1
1
1
1
1
1
1
1
1
1
1
1
1
1
1
1
1
1
1
1
1
1
1
1
1
1
1
1
1
1
1
1
1
1
1
1
1
1
1
1
1
1
1
1
1
1
1
1
1
1
1
1
1
1
1
1
1
1
1
1
1
1
1
1
1
1
1
1
1
1
1
1
1
1
1
1
1
0.999998
0.999997
0.999996
0.999994
0.999991
0.999988
0.999984
0.99998
0.999976
0.999971
0.999967
0.999963
0.99996
0.999959
0.999959
0.999962
0.999967
0.999976
0.999987
1
1.00002
1.00004
1.00006
1.00009
1.00011
1.00013
1.00016
1.00018
1.0002
1.00022
1.00024
1.00025
1.00025
1.00026
1.00026
1.00025
1.00025
1.00024
1.00023
1.00021
1.0002
1.00018
1.00016
1.00015
1.00013
1.00012
1.0001
1.00009
1.00007
1.00006
1.00005
1.00004
1.00003
1.00003
1.00002
1.00002
1.00001
1.00001
1.00001
1
1
1
1
1
1
1
1
1
1
1
1
1
1
1
1
1
1
1
1
1
1
1
1
1
1
1
1
1
1
1
1
1
1
1
1
1
1
1
1
1
1
1
1
1
1
1
1
1
1
1
1
1
1
1
1
1
1
1
1
1
1
1
1
1
1
1
1
1
1
1
1
1
1
1
1
1
1
1
1
1
1
1
1
1
1
1
1
1
1
1
0.999998
0.999997
0.999996
0.999993
0.999989
0.999985
0.999982
0.999978
0.999972
0.999968
0.999964
0.999961
0.99996
0.999961
0.999965
0.999972
0.999982
0.999998
1.00002
1.00004
1.00007
1.0001
1.00013
1.00016
1.0002
1.00023
1.00027
1.0003
1.00032
1.00035
1.00036
1.00038
1.00038
1.00038
1.00038
1.00037
1.00035
1.00034
1.00032
1.00029
1.00027
1.00025
1.00022
1.0002
1.00017
1.00015
1.00013
1.00011
1.0001
1.00008
1.00007
1.00005
1.00004
1.00003
1.00003
1.00002
1.00001
1.00001
1.00001
1
1
1
1
1
1
1
1
1
1
1
1
1
1
1
1
1
1
1
1
1
1
1
1
1
1
1
1
1
1
1
1
1
1
1
1
1
1
1
1
1
1
1
1
1
1
1
1
1
1
1
1
1
1
1
1
1
1
1
1
1
1
1
1
1
1
1
1
1
1
1
1
1
1
1
1
1
1
1
1
1
1
1
1
1
1
1
1
1
1
1
0.999998
0.999997
0.999995
0.999992
0.999988
0.999984
0.99998
0.999975
0.999971
0.999966
0.999964
0.999963
0.999965
0.99997
0.99998
0.999994
1.00001
1.00004
1.00007
1.0001
1.00015
1.00019
1.00024
1.00029
1.00034
1.00038
1.00043
1.00047
1.0005
1.00053
1.00055
1.00057
1.00057
1.00056
1.00055
1.00053
1.00051
1.00048
1.00045
1.00041
1.00038
1.00034
1.0003
1.00027
1.00023
1.0002
1.00017
1.00015
1.00012
1.0001
1.00008
1.00007
1.00005
1.00004
1.00003
1.00002
1.00002
1.00001
1.00001
1.00001
1
1
1
1
1
0.999999
0.999999
0.999999
0.999999
0.999999
1
1
1
1
1
1
1
1
1
1
1
1
1
1
1
1
1
1
1
1
1
1
1
1
1
1
1
1
1
1
1
1
1
1
1
1
1
1
1
1
1
1
1
1
1
1
1
1
1
1
1
1
1
1
1
1
1
1
1
1
1
1
1
1
1
1
1
1
1
1
1
1
1
1
1
1
1
1
1
1
0.999999
0.999997
0.999995
0.999992
0.999987
0.999983
0.999979
0.999974
0.999971
0.999968
0.999968
0.999971
0.999978
0.999989
1.00001
1.00003
1.00007
1.0001
1.00015
1.00021
1.00027
1.00033
1.0004
1.00047
1.00054
1.00061
1.00067
1.00072
1.00077
1.0008
1.00083
1.00084
1.00084
1.00083
1.0008
1.00077
1.00073
1.00069
1.00063
1.00058
1.00053
1.00047
1.00042
1.00036
1.00032
1.00027
1.00023
1.00019
1.00016
1.00013
1.00011
1.00009
1.00007
1.00005
1.00004
1.00003
1.00002
1.00002
1.00001
1.00001
1
1
1
1
0.999999
0.999999
0.999999
0.999999
0.999999
0.999999
0.999999
1
1
1
1
1
1
1
1
1
1
1
1
1
1
1
1
1
1
1
1
1
1
1
1
1
1
1
1
1
1
1
1
1
1
1
1
1
1
1
1
1
1
1
1
1
1
1
1
1
1
1
1
1
1
1
1
1
1
1
1
1
1
1
1
1
1
1
1
1
1
1
1
1
1
1
1
1
1
1
1
0.999997
0.999995
0.999992
0.999987
0.999983
0.999979
0.999976
0.999974
0.999974
0.999978
0.999987
1
1.00003
1.00006
1.0001
1.00015
1.00021
1.00028
1.00037
1.00046
1.00055
1.00065
1.00075
1.00085
1.00094
1.00102
1.00109
1.00115
1.00119
1.00122
1.00123
1.00122
1.0012
1.00116
1.00111
1.00105
1.00098
1.0009
1.00082
1.00074
1.00065
1.00057
1.0005
1.00043
1.00037
1.00031
1.00026
1.00021
1.00017
1.00014
1.00011
1.00009
1.00007
1.00005
1.00004
1.00003
1.00002
1.00001
1.00001
1
1
1
0.999999
0.999999
0.999998
0.999998
0.999999
0.999999
0.999999
0.999999
0.999999
0.999999
1
1
1
1
1
1
1
1
1
1
1
1
1
1
1
1
1
1
1
1
1
1
1
1
1
1
1
1
1
1
1
1
1
1
1
1
1
1
1
1
1
1
1
1
1
1
1
1
1
1
1
1
1
1
1
1
1
1
1
1
1
1
1
1
1
1
1
1
1
1
1
1
1
1
1
1
1
1
0.999998
0.999996
0.999992
0.999988
0.999985
0.999982
0.99998
0.999982
0.999988
0.999999
1.00002
1.00005
1.00008
1.00014
1.0002
1.00028
1.00037
1.00048
1.0006
1.00073
1.00087
1.001
1.00114
1.00128
1.0014
1.00151
1.00161
1.00169
1.00174
1.00177
1.00178
1.00176
1.00173
1.00166
1.00159
1.00149
1.00138
1.00127
1.00115
1.00103
1.00091
1.0008
1.00069
1.00059
1.0005
1.00042
1.00034
1.00028
1.00023
1.00018
1.00014
1.00011
1.00008
1.00006
1.00005
1.00003
1.00002
1.00001
1.00001
1
1
1
0.999999
0.999998
0.999998
0.999998
0.999998
0.999998
0.999999
0.999999
0.999999
0.999999
0.999999
1
1
1
1
1
1
1
1
1
1
1
1
1
1
1
1
1
1
1
1
1
1
1
1
1
1
1
1
1
1
1
1
1
1
1
1
1
1
1
1
1
1
1
1
1
1
1
1
1
1
1
1
1
1
1
1
1
1
1
1
1
1
1
1
1
1
1
1
1
1
1
1
1
1
1
1
1
1
0.999997
0.999994
0.999991
0.999989
0.999989
0.999991
0.999998
1.00001
1.00003
1.00007
1.00011
1.00018
1.00026
1.00036
1.00048
1.00062
1.00077
1.00094
1.00112
1.00132
1.00151
1.0017
1.00188
1.00205
1.00221
1.00233
1.00243
1.0025
1.00254
1.00254
1.00251
1.00245
1.00236
1.00224
1.0021
1.00195
1.00179
1.00161
1.00144
1.00127
1.00111
1.00095
1.00081
1.00068
1.00057
1.00047
1.00038
1.0003
1.00024
1.00019
1.00014
1.00011
1.00008
1.00006
1.00004
1.00003
1.00002
1.00001
1
1
0.999999
0.999998
0.999997
0.999997
0.999997
0.999997
0.999998
0.999998
0.999998
0.999999
0.999999
0.999999
0.999999
1
1
1
1
1
1
1
1
1
1
1
1
1
1
1
1
1
1
1
1
1
1
1
1
1
1
1
1
1
1
1
1
1
1
1
1
1
1
1
1
1
1
1
1
1
1
1
1
1
1
1
1
1
1
1
1
1
1
1
1
1
1
1
1
1
1
1
1
1
1.00001
1.00001
1.00001
1.00001
1.00001
1.00001
1
1
1
0.999998
0.999997
0.999997
1
1.00001
1.00003
1.00005
1.00009
1.00015
1.00022
1.00032
1.00044
1.00059
1.00076
1.00096
1.00118
1.00142
1.00168
1.00194
1.00221
1.00247
1.00272
1.00295
1.00315
1.00332
1.00345
1.00353
1.00358
1.00357
1.00352
1.00343
1.0033
1.00314
1.00294
1.00272
1.00249
1.00225
1.00201
1.00177
1.00153
1.00132
1.00112
1.00094
1.00077
1.00063
1.00051
1.00041
1.00032
1.00025
1.00019
1.00014
1.0001
1.00007
1.00005
1.00003
1.00002
1.00001
1
1
0.999998
0.999996
0.999996
0.999996
0.999996
0.999996
0.999997
0.999997
0.999998
0.999998
0.999999
0.999999
0.999999
0.999999
1
1
1
1
1
1
1
1
1
1
1
1
1
1
1
1
1
1
1
1
1
1
1
1
1
1
1
1
1
1
1
1
1
1
1
1
1
1
1
1
1
1
1
1
1
1
1
1
1
1
1
1
1
1
1
1
1
1
1
1
1
1
1
1
1
1
1
1.00001
1.00001
1.00001
1.00001
1.00001
1.00001
1.00001
1.00001
1.00001
1.00001
1
1.00001
1.00001
1.00002
1.00004
1.00007
1.00011
1.00018
1.00027
1.00038
1.00053
1.00071
1.00092
1.00117
1.00145
1.00176
1.00209
1.00244
1.0028
1.00316
1.00351
1.00384
1.00415
1.00441
1.00463
1.0048
1.00491
1.00496
1.00495
1.00487
1.00475
1.00456
1.00434
1.00407
1.00377
1.00344
1.00311
1.00277
1.00244
1.00212
1.00182
1.00154
1.00129
1.00106
1.00086
1.00069
1.00055
1.00043
1.00033
1.00025
1.00019
1.00014
1.0001
1.00007
1.00004
1.00003
1.00001
1.00001
1
0.999997
0.999995
0.999994
0.999994
0.999994
0.999995
0.999996
0.999996
0.999997
0.999998
0.999998
0.999999
0.999999
0.999999
1
1
1
1
1
1
1
1
1
1
1
1
1
1
1
1
1
1
1
1
1
1
1
1
1
1
1
1
1
1
1
1
1
1
1
1
1
1
1
1
1
1
1
1
1
1
1
1
1
1
1
1
1
1
1
1
1
1
1
1
1
1
1
1
1
1.00001
1.00001
1.00001
1.00001
1.00001
1.00001
1.00001
1.00001
1.00001
1.00001
1.00001
1.00001
1.00002
1.00002
1.00003
1.00005
1.00009
1.00014
1.00021
1.00031
1.00044
1.00061
1.00082
1.00108
1.00138
1.00173
1.00212
1.00254
1.003
1.00347
1.00395
1.00443
1.00489
1.00533
1.00572
1.00606
1.00635
1.00656
1.0067
1.00676
1.00674
1.00664
1.00646
1.00622
1.00591
1.00555
1.00515
1.00471
1.00426
1.0038
1.00335
1.00291
1.00249
1.00211
1.00176
1.00145
1.00118
1.00095
1.00075
1.00058
1.00045
1.00034
1.00025
1.00018
1.00013
1.00009
1.00006
1.00003
1.00002
1.00001
1
0.999996
0.999993
0.999992
0.999992
0.999993
0.999994
0.999994
0.999995
0.999996
0.999997
0.999998
0.999998
0.999999
0.999999
0.999999
1
1
1
1
1
1
1
1
1
1
1
1
1
1
1
1
1
1
1
1
1
1
1
1
1
1
1
1
1
1
1
1
1
1
1
1
1
1
1
1
1
1
1
1
1
1
1
1
1
1
1
1
1
1
1
1
1
1
1
1
1
1
1
1
1.00001
1.00001
1.00001
1.00001
1.00001
1.00001
1.00002
1.00002
1.00002
1.00002
1.00002
1.00002
1.00003
1.00004
1.00007
1.0001
1.00016
1.00023
1.00035
1.00049
1.00069
1.00093
1.00124
1.0016
1.00202
1.00249
1.00302
1.00359
1.0042
1.00483
1.00546
1.00609
1.00669
1.00725
1.00775
1.00819
1.00854
1.00881
1.00898
1.00905
1.00902
1.00889
1.00866
1.00834
1.00794
1.00747
1.00694
1.00637
1.00577
1.00515
1.00455
1.00396
1.0034
1.00288
1.0024
1.00198
1.00161
1.00129
1.00102
1.00079
1.0006
1.00045
1.00033
1.00024
1.00017
1.00011
1.00007
1.00004
1.00002
1.00001
1
0.999994
0.999991
0.99999
0.99999
0.999991
0.999992
0.999993
0.999994
0.999995
0.999996
0.999997
0.999998
0.999998
0.999999
0.999999
0.999999
1
1
1
1
1
1
1
1
1
1
1
1
1
1
1
1
1
1
1
1
1
1
1
1
1
1
1
1
1
1
1
1
1
1
1
1
1
1
1
1
1
1
1
1
1
1
1
1
1
1
1
1
1
1
1
1
1
1
1
1
1
1
1.00001
1.00001
1.00001
1.00001
1.00001
1.00002
1.00002
1.00002
1.00002
1.00003
1.00003
1.00003
1.00004
1.00006
1.00008
1.00012
1.00017
1.00026
1.00038
1.00054
1.00076
1.00103
1.00138
1.0018
1.0023
1.00287
1.00351
1.00422
1.00497
1.00577
1.00659
1.0074
1.0082
1.00896
1.00967
1.0103
1.01084
1.01128
1.01161
1.01182
1.0119
1.01186
1.0117
1.01141
1.01101
1.0105
1.0099
1.00922
1.00848
1.0077
1.00691
1.00611
1.00533
1.00459
1.00389
1.00326
1.00269
1.00218
1.00175
1.00138
1.00107
1.00082
1.00061
1.00045
1.00033
1.00023
1.00015
1.0001
1.00006
1.00003
1.00001
1
0.999993
0.999989
0.999987
0.999987
0.999988
0.999989
0.999991
0.999992
0.999994
0.999995
0.999996
0.999997
0.999998
0.999998
0.999999
0.999999
0.999999
1
1
1
1
1
1
1
1
1
1
1
1
1
1
1
1
1
1
1
1
1
1
1
1
1
1
1
1
1
1
1
1
1
1
1
1
1
1
1
1
1
1
1
1
1
1
1
1
1
1
1
1
1
1
1
1
1
1
1
1
1.00001
1.00001
1.00001
1.00001
1.00002
1.00002
1.00002
1.00003
1.00003
1.00003
1.00004
1.00004
1.00005
1.00007
1.00009
1.00013
1.00019
1.00028
1.0004
1.00058
1.00081
1.00112
1.00151
1.00199
1.00256
1.00323
1.00399
1.00484
1.00577
1.00675
1.00777
1.00881
1.00984
1.01083
1.01177
1.01264
1.01341
1.01406
1.01459
1.01499
1.01524
1.01534
1.01529
1.01508
1.01474
1.01425
1.01363
1.01289
1.01205
1.01112
1.01014
1.00913
1.00811
1.0071
1.00613
1.00522
1.00438
1.00362
1.00295
1.00236
1.00187
1.00145
1.00111
1.00083
1.00061
1.00044
1.00031
1.00021
1.00014
1.00008
1.00004
1.00002
1
0.999992
0.999987
0.999984
0.999984
0.999985
0.999987
0.999988
0.99999
0.999992
0.999994
0.999995
0.999996
0.999997
0.999998
0.999999
0.999999
0.999999
1
1
1
1
1
1
1
1
1
1
1
1
1
1
1
1
1
1
1
1
1
1
1
1
1
1
1
1
1
1
1
1
1
1
1
1
1
1
1
1
1
1
1
1
1
1
1
1
1
1
1
1
1
1
1
1
1
1
1
1.00001
1.00001
1.00001
1.00001
1.00002
1.00002
1.00002
1.00003
1.00003
1.00004
1.00004
1.00005
1.00006
1.00007
1.0001
1.00014
1.0002
1.00029
1.00042
1.0006
1.00085
1.00119
1.00161
1.00214
1.00279
1.00356
1.00445
1.00545
1.00655
1.00774
1.00898
1.01026
1.01155
1.01281
1.01402
1.01515
1.01618
1.01708
1.01785
1.01847
1.01892
1.01921
1.01933
1.01927
1.01904
1.01863
1.01806
1.01733
1.01646
1.01545
1.01434
1.01314
1.01188
1.0106
1.00933
1.00809
1.00692
1.00582
1.00483
1.00395
1.00317
1.00251
1.00196
1.0015
1.00113
1.00083
1.0006
1.00042
1.00029
1.00019
1.00011
1.00006
1.00003
1.00001
0.999993
0.999985
0.999981
0.99998
0.999981
0.999983
0.999986
0.999988
0.99999
0.999992
0.999994
0.999995
0.999997
0.999998
0.999998
0.999999
0.999999
0.999999
1
1
1
1
1
1
1
1
1
1
1
1
1
1
1
1
1
1
1
1
1
1
1
1
1
1
1
1
1
1
1
1
1
1
1
1
1
1
1
1
1
1
1
1
1
1
1
1
1
1
1
1
1
1
1
1
1
1.00001
1.00001
1.00001
1.00001
1.00002
1.00002
1.00002
1.00003
1.00004
1.00004
1.00005
1.00006
1.00007
1.00008
1.00011
1.00015
1.0002
1.00029
1.00043
1.00061
1.00088
1.00123
1.00168
1.00226
1.00298
1.00384
1.00485
1.00601
1.00729
1.00869
1.01018
1.01172
1.01328
1.01483
1.01633
1.01775
1.01906
1.02024
1.02126
1.02212
1.02281
1.02331
1.02363
1.02376
1.0237
1.02344
1.023
1.02237
1.02156
1.02057
1.01941
1.01812
1.0167
1.0152
1.01364
1.01208
1.01053
1.00905
1.00766
1.00638
1.00523
1.00422
1.00336
1.00262
1.00201
1.00152
1.00112
1.00081
1.00057
1.00039
1.00026
1.00016
1.00009
1.00004
1.00001
0.999994
0.999983
0.999978
0.999977
0.999977
0.999979
0.999982
0.999985
0.999988
0.99999
0.999993
0.999994
0.999996
0.999997
0.999998
0.999998
0.999999
0.999999
0.999999
1
1
1
1
1
1
1
1
1
1
1
1
1
1
1
1
1
1
1
1
1
1
1
1
1
1
1
1
1
1
1
1
1
1
1
1
1
1
1
1
1
1
1
1
1
1
1
1
1
1
1
1
1
1
1
1
1.00001
1.00001
1.00001
1.00002
1.00002
1.00002
1.00003
1.00004
1.00004
1.00005
1.00006
1.00007
1.00009
1.00011
1.00015
1.00021
1.0003
1.00043
1.00062
1.00088
1.00124
1.00172
1.00234
1.00312
1.00407
1.00519
1.0065
1.00797
1.00958
1.01132
1.01313
1.01499
1.01684
1.01864
1.02036
1.02195
1.0234
1.02469
1.02579
1.0267
1.02742
1.02794
1.02827
1.02841
1.02835
1.02809
1.02764
1.02699
1.02613
1.02508
1.02382
1.02239
1.02079
1.01906
1.01724
1.01537
1.0135
1.01167
1.00994
1.00833
1.00686
1.00557
1.00444
1.00348
1.00268
1.00203
1.00151
1.00109
1.00077
1.00053
1.00035
1.00022
1.00013
1.00007
1.00003
0.999999
0.999984
0.999976
0.999973
0.999973
0.999975
0.999978
0.999982
0.999985
0.999988
0.999991
0.999993
0.999995
0.999996
0.999997
0.999998
0.999999
0.999999
0.999999
1
1
1
1
1
1
1
1
1
1
1
1
1
1
1
1
1
1
1
1
1
1
1
1
1
1
1
1
1
1
1
1
1
1
1
1
1
1
1
1
1
1
1
1
1
1
1
1
1
1
1
1
1
1
1
1.00001
1.00001
1.00001
1.00001
1.00002
1.00002
1.00003
1.00004
1.00004
1.00005
1.00006
1.00008
1.00009
1.00012
1.00015
1.00021
1.00029
1.00042
1.0006
1.00087
1.00123
1.00173
1.00237
1.0032
1.00422
1.00545
1.00689
1.00854
1.01037
1.01236
1.01445
1.0166
1.01876
1.02087
1.02288
1.02476
1.02647
1.02798
1.0293
1.0304
1.0313
1.03199
1.03249
1.0328
1.03293
1.03288
1.03265
1.03222
1.03161
1.03078
1.02974
1.02847
1.02698
1.02527
1.02338
1.02133
1.01919
1.01699
1.01481
1.0127
1.01072
1.00889
1.00725
1.00581
1.00458
1.00355
1.0027
1.00201
1.00147
1.00104
1.00072
1.00049
1.00031
1.00019
1.0001
1.00004
1.00001
0.999986
0.999974
0.999969
0.999969
0.999971
0.999974
0.999978
0.999982
0.999986
0.999989
0.999991
0.999994
0.999995
0.999997
0.999998
0.999998
0.999999
0.999999
0.999999
1
1
1
1
1
1
1
1
1
1
1
1
1
1
1
1
1
1
1
1
1
1
1
1
1
1
1
1
1
1
1
1
1
1
1
1
1
1
1
1
1
1
1
1
1
1
1
1
1
1
1
1
1
1
1.00001
1.00001
1.00001
1.00002
1.00002
1.00003
1.00004
1.00004
1.00005
1.00007
1.00008
1.0001
1.00012
1.00015
1.00021
1.00029
1.0004
1.00058
1.00084
1.0012
1.0017
1.00236
1.00321
1.00429
1.00561
1.00718
1.00899
1.01103
1.01326
1.01563
1.01808
1.02054
1.02295
1.02525
1.02738
1.02931
1.03102
1.03248
1.03371
1.03471
1.0355
1.03609
1.03651
1.03677
1.03687
1.03683
1.03665
1.03631
1.0358
1.03509
1.03417
1.03301
1.03159
1.0299
1.02796
1.0258
1.02345
1.02098
1.01846
1.01597
1.01359
1.01135
1.00932
1.00752
1.00596
1.00464
1.00355
1.00266
1.00195
1.0014
1.00098
1.00066
1.00043
1.00026
1.00015
1.00007
1.00002
0.999991
0.999974
0.999966
0.999964
0.999966
0.999969
0.999974
0.999978
0.999983
0.999986
0.99999
0.999992
0.999994
0.999996
0.999997
0.999998
0.999999
0.999999
0.999999
0.999999
1
1
1
1
1
1
1
1
1
1
1
1
1
1
1
1
1
1
1
1
1
1
1
1
1
1
1
1
1
1
1
1
1
1
1
1
1
1
1
1
1
1
1
1
1
1
1
1
1
1
1
1
1.00001
1.00001
1.00001
1.00002
1.00002
1.00003
1.00003
1.00004
1.00005
1.00007
1.00008
1.0001
1.00012
1.00015
1.0002
1.00027
1.00039
1.00055
1.0008
1.00115
1.00163
1.00229
1.00316
1.00427
1.00566
1.00733
1.00929
1.01153
1.01399
1.01663
1.01937
1.02213
1.02483
1.02739
1.02975
1.03186
1.03369
1.03524
1.0365
1.03751
1.03827
1.03884
1.03925
1.03951
1.03966
1.03972
1.0397
1.03959
1.03938
1.03905
1.03857
1.0379
1.03699
1.03581
1.03432
1.03251
1.03038
1.02796
1.02533
1.02255
1.01972
1.01694
1.01428
1.01182
1.00961
1.00767
1.00601
1.00462
1.00348
1.00257
1.00185
1.0013
1.00089
1.00059
1.00037
1.00021
1.00011
1.00004
1
0.999976
0.999964
0.99996
0.999961
0.999964
0.999969
0.999974
0.999979
0.999984
0.999987
0.999991
0.999993
0.999995
0.999996
0.999997
0.999998
0.999999
0.999999
0.999999
1
1
1
1
1
1
1
1
1
1
1
1
1
1
1
1
1
1
1
1
1
1
1
1
1
1
1
1
1
1
1
1
1
1
1
1
1
1
1
1
1
1
1
1
1
1
1
1
1
1
1
1
1.00001
1.00001
1.00001
1.00002
1.00002
1.00003
1.00004
1.00005
1.00006
1.00008
1.0001
1.00012
1.00015
1.0002
1.00026
1.00036
1.00052
1.00074
1.00107
1.00154
1.00219
1.00305
1.00418
1.0056
1.00735
1.00943
1.01183
1.01452
1.01741
1.02043
1.02348
1.02645
1.02926
1.0318
1.03404
1.03594
1.03748
1.03868
1.03957
1.0402
1.0406
1.04084
1.04096
1.04101
1.04101
1.041
1.04099
1.04098
1.04095
1.04087
1.04072
1.04042
1.03992
1.03916
1.03807
1.0366
1.03473
1.03246
1.02983
1.02693
1.02386
1.02073
1.01767
1.01477
1.01211
1.00974
1.00768
1.00594
1.00451
1.00335
1.00243
1.00173
1.00119
1.00079
1.00051
1.0003
1.00017
1.00007
1.00002
0.999982
0.999964
0.999957
0.999956
0.999959
0.999964
0.99997
0.999975
0.999981
0.999985
0.999989
0.999992
0.999994
0.999996
0.999997
0.999998
0.999999
0.999999
0.999999
0.999999
1
1
1
1
1
1
1
1
1
1
1
1
1
1
1
1
1
1
1
1
1
1
1
1
1
1
1
1
1
1
1
1
1
1
1
1
1
1
1
1
1
1
1
1
1
1
1
1
1
1
1.00001
1.00001
1.00001
1.00002
1.00002
1.00003
1.00004
1.00005
1.00006
1.00008
1.00009
1.00012
1.00015
1.00019
1.00025
1.00034
1.00048
1.00068
1.00099
1.00143
1.00205
1.00289
1.004
1.00544
1.00723
1.0094
1.01194
1.01481
1.01794
1.02123
1.02456
1.02779
1.03081
1.03352
1.03585
1.03774
1.0392
1.04024
1.0409
1.04126
1.04136
1.04128
1.0411
1.04087
1.04065
1.04047
1.04037
1.04037
1.04046
1.04063
1.04085
1.04109
1.04127
1.04132
1.04115
1.04066
1.03978
1.03841
1.03654
1.03417
1.03135
1.0282
1.02486
1.02145
1.01814
1.01502
1.01219
1.00969
1.00756
1.00577
1.00432
1.00316
1.00226
1.00157
1.00106
1.00069
1.00042
1.00024
1.00012
1.00004
0.999992
0.999966
0.999954
0.999951
0.999954
0.999959
0.999965
0.999971
0.999977
0.999982
0.999986
0.99999
0.999993
0.999995
0.999996
0.999997
0.999998
0.999999
0.999999
0.999999
1
1
1
1
1
1
1
1
1
1
1
1
1
1
1
1
1
1
1
1
1
1
1
1
1
1
1
1
1
1
1
1
1
1
1
1
1
1
1
1
1
1
1
1
1
1
1
1
1
1
1.00001
1.00001
1.00001
1.00002
1.00003
1.00003
1.00004
1.00006
1.00007
1.00009
1.00011
1.00014
1.00018
1.00023
1.00031
1.00044
1.00062
1.0009
1.0013
1.00188
1.00268
1.00376
1.00518
1.00698
1.0092
1.01184
1.01487
1.01821
1.02175
1.02533
1.02882
1.03205
1.0349
1.03727
1.03911
1.04042
1.04122
1.04156
1.04153
1.04121
1.0407
1.04007
1.03941
1.03879
1.03827
1.03789
1.03769
1.03768
1.03787
1.03825
1.03879
1.03945
1.04015
1.04083
1.04137
1.04166
1.04156
1.04096
1.03977
1.03795
1.0355
1.03251
1.02913
1.02552
1.02187
1.01832
1.01503
1.01206
1.00949
1.0073
1.00551
1.00406
1.00293
1.00206
1.0014
1.00092
1.00058
1.00034
1.00018
1.00007
1.00001
0.999973
0.999954
0.999948
0.999949
0.999953
0.99996
0.999967
0.999973
0.999979
0.999984
0.999988
0.999991
0.999994
0.999996
0.999997
0.999998
0.999999
0.999999
0.999999
1
1
1
1
1
1
1
1
1
1
1
1
1
1
1
1
1
1
1
1
1
1
1
1
1
1
1
1
1
1
1
1
1
1
1
1
1
1
1
1
1
1
1
1
1
1
1
1
1
1.00001
1.00001
1.00001
1.00002
1.00002
1.00003
1.00004
1.00005
1.00007
1.00008
1.00011
1.00013
1.00017
1.00022
1.00029
1.0004
1.00056
1.0008
1.00117
1.00169
1.00244
1.00347
1.00484
1.00661
1.00884
1.01154
1.01468
1.01819
1.02195
1.02579
1.02953
1.03296
1.03594
1.03834
1.04011
1.04122
1.04172
1.04167
1.04118
1.04035
1.0393
1.03812
1.03692
1.03578
1.03477
1.03396
1.03339
1.03308
1.03306
1.03334
1.03391
1.03474
1.03579
1.03702
1.03833
1.03963
1.04077
1.04161
1.04198
1.04173
1.04074
1.03898
1.03646
1.0333
1.0297
1.02584
1.02196
1.01823
1.01479
1.01174
1.00912
1.00693
1.00516
1.00375
1.00265
1.00183
1.00122
1.00078
1.00047
1.00026
1.00012
1.00004
0.999984
0.999957
0.999946
0.999944
0.999948
0.999954
0.999962
0.999969
0.999976
0.999981
0.999986
0.99999
0.999993
0.999995
0.999996
0.999997
0.999998
0.999999
0.999999
0.999999
1
1
1
1
1
1
1
1
1
1
1
1
1
1
1
1
1
1
1
1
1
1
1
1
1
1
1
1
1
1
1
1
1
1
1
1
1
1
1
1
1
1
1
1
1
1
1
1
1.00001
1.00001
1.00001
1.00002
1.00003
1.00004
1.00005
1.00006
1.00008
1.0001
1.00012
1.00016
1.0002
1.00026
1.00036
1.0005
1.00071
1.00103
1.0015
1.00218
1.00313
1.00443
1.00614
1.00833
1.01103
1.01424
1.01789
1.02185
1.02592
1.0299
1.03354
1.03666
1.0391
1.04078
1.04169
1.04186
1.04139
1.0404
1.039
1.03735
1.03556
1.03375
1.03202
1.03044
1.0291
1.02803
1.02728
1.02688
1.02684
1.02719
1.0279
1.02897
1.03037
1.03205
1.03394
1.03595
1.03794
1.03975
1.0412
1.04207
1.04218
1.04139
1.03967
1.03706
1.03372
1.02989
1.02581
1.02173
1.01785
1.01433
1.01124
1.00862
1.00646
1.00474
1.00339
1.00236
1.00159
1.00103
1.00064
1.00037
1.00019
1.00007
1
0.999964
0.999946
0.999941
0.999943
0.999949
0.999957
0.999965
0.999972
0.999978
0.999984
0.999988
0.999991
0.999994
0.999996
0.999997
0.999998
0.999998
0.999999
0.999999
1
1
1
1
1
1
1
1
1
1
1
1
1
1
1
1
1
1
1
1
1
1
1
1
1
1
1
1
1
1
1
1
1
1
1
1
1
1
1
1
1
1
1
1
1
1
1
1.00001
1.00001
1.00001
1.00002
1.00002
1.00003
1.00004
1.00005
1.00007
1.00009
1.00011
1.00014
1.00018
1.00024
1.00032
1.00044
1.00062
1.0009
1.00131
1.00192
1.00278
1.00398
1.00559
1.0077
1.01035
1.01357
1.0173
1.02142
1.02571
1.02993
1.03381
1.03709
1.03959
1.04121
1.04192
1.04177
1.04088
1.03937
1.0374
1.03513
1.03271
1.03027
1.02791
1.02573
1.0238
1.02217
1.0209
1.02002
1.01954
1.01949
1.01988
1.0207
1.02195
1.02361
1.02564
1.028
1.0306
1.03334
1.03606
1.03857
1.04063
1.04198
1.04242
1.04179
1.04006
1.03732
1.03378
1.02971
1.02543
1.02119
1.01722
1.01365
1.01057
1.008
1.00591
1.00427
1.003
1.00205
1.00135
1.00085
1.0005
1.00027
1.00012
1.00003
0.999976
0.999949
0.999939
0.999939
0.999944
0.999952
0.99996
0.999968
0.999975
0.999981
0.999986
0.99999
0.999993
0.999995
0.999997
0.999998
0.999998
0.999999
0.999999
1
1
1
1
1
1
1
1
1
1
1
1
1
1
1
1
1
1
1
1
1
1
1
1
1
1
1
1
1
1
1
1
1
1
1
1
1
1
1
1
1
1
1
1
1
1
1
1.00001
1.00001
1.00001
1.00002
1.00003
1.00004
1.00005
1.00006
1.00008
1.0001
1.00013
1.00017
1.00021
1.00028
1.00039
1.00054
1.00077
1.00113
1.00166
1.00242
1.0035
1.00499
1.00698
1.00953
1.0127
1.01645
1.02067
1.02515
1.02962
1.03374
1.03723
1.03984
1.04144
1.042
1.04158
1.04028
1.03828
1.03576
1.03289
1.02985
1.02677
1.0238
1.02101
1.01849
1.0163
1.01449
1.01308
1.0121
1.01157
1.0115
1.01191
1.01279
1.01415
1.01598
1.01825
1.02095
1.024
1.02734
1.03082
1.03427
1.03745
1.04008
1.04187
1.04255
1.04199
1.04017
1.03724
1.03346
1.02917
1.02471
1.02036
1.01634
1.01279
1.00977
1.00729
1.00531
1.00376
1.0026
1.00173
1.00111
1.00068
1.00038
1.00019
1.00007
0.999994
0.999956
0.999939
0.999936
0.99994
0.999947
0.999956
0.999964
0.999972
0.999979
0.999984
0.999988
0.999992
0.999994
0.999996
0.999997
0.999998
0.999999
0.999999
0.999999
1
1
1
1
1
1
1
1
1
1
1
1
1
1
1
1
1
1
1
1
1
1
1
1
1
1
1
1
1
1
1
1
1
1
1
1
1
1
1
1
1
1
1
1
1
1
1.00001
1.00001
1.00002
1.00002
1.00003
1.00004
1.00005
1.00007
1.00009
1.00012
1.00015
1.00019
1.00025
1.00034
1.00047
1.00066
1.00096
1.00141
1.00207
1.00303
1.00437
1.0062
1.0086
1.01165
1.01535
1.01962
1.02425
1.02895
1.03334
1.03708
1.03987
1.04153
1.04202
1.04137
1.03973
1.03729
1.03425
1.03082
1.02719
1.02351
1.01994
1.01657
1.0135
1.01076
1.00842
1.00649
1.00501
1.00397
1.00341
1.00332
1.00372
1.00462
1.00603
1.00795
1.01036
1.01326
1.01662
1.02037
1.02442
1.02863
1.03277
1.03658
1.0397
1.04181
1.04262
1.04201
1.04001
1.03682
1.03278
1.02828
1.02367
1.01926
1.01526
1.01178
1.00887
1.00652
1.00467
1.00325
1.0022
1.00143
1.00089
1.00052
1.00027
1.00012
1.00002
0.999968
0.999942
0.999934
0.999936
0.999942
0.999951
0.99996
0.999969
0.999976
0.999982
0.999987
0.999991
0.999993
0.999995
0.999997
0.999998
0.999998
0.999999
0.999999
1
1
1
1
1
1
1
1
1
1
1
1
1
1
1
1
1
1
1
1
1
1
1
1
1
1
1
1
1
1
1
1
1
1
1
1
1
1
1
1
1
1
1
1
1
1.00001
1.00001
1.00001
1.00002
1.00002
1.00003
1.00005
1.00006
1.00008
1.0001
1.00013
1.00017
1.00022
1.00029
1.0004
1.00056
1.00081
1.00118
1.00175
1.00257
1.00375
1.0054
1.00761
1.01048
1.01406
1.01829
1.02301
1.02791
1.03259
1.03664
1.03969
1.0415
1.042
1.04123
1.03933
1.03652
1.03302
1.02908
1.0249
1.02067
1.01654
1.01262
1.00901
1.00577
1.00293
1.00052
0.99855
0.997036
0.995983
0.995398
0.99529
0.995669
0.996551
0.99795
0.999879
1.00234
1.00534
1.00886
1.01286
1.01729
1.02205
1.02695
1.03174
1.03608
1.03958
1.04186
1.04266
1.04186
1.03956
1.03606
1.03175
1.02705
1.02234
1.01794
1.01401
1.01066
1.00791
1.00572
1.00403
1.00275
1.00182
1.00115
1.00069
1.00038
1.00018
1.00006
0.999986
0.999949
0.999935
0.999933
0.999938
0.999947
0.999956
0.999965
0.999973
0.99998
0.999985
0.999989
0.999992
0.999995
0.999996
0.999997
0.999998
0.999999
0.999999
1
1
1
1
1
1
1
1
1
1
1
1
1
1
1
1
1
1
1
1
1
1
1
1
1
1
1
1
1
1
1
1
1
1
1
1
1
1
1
1
1
1
1
1
1
1.00001
1.00001
1.00001
1.00002
1.00003
1.00004
1.00005
1.00007
1.00009
1.00011
1.00015
1.00019
1.00025
1.00034
1.00047
1.00067
1.00098
1.00145
1.00215
1.00317
1.00461
1.0066
1.00924
1.01262
1.01673
1.02146
1.02651
1.03148
1.03587
1.03926
1.04134
1.04198
1.04119
1.03914
1.03604
1.03217
1.02777
1.02309
1.01835
1.0137
1.00927
1.00517
1.00145
0.998147
0.995292
0.992886
0.990932
0.989429
0.988377
0.987777
0.987641
0.98798
0.98881
0.990154
0.992036
0.994472
0.997474
1.00104
1.00517
1.00982
1.01492
1.02035
1.0259
1.03125
1.03601
1.03973
1.04202
1.04262
1.04149
1.03881
1.03495
1.03036
1.02551
1.02077
1.01643
1.01265
1.00948
1.00692
1.00492
1.0034
1.00227
1.00146
1.0009
1.00051
1.00026
1.0001
1.00001
0.99996
0.999938
0.999932
0.999935
0.999943
0.999952
0.999962
0.99997
0.999977
0.999983
0.999988
0.999991
0.999994
0.999996
0.999997
0.999998
0.999999
0.999999
0.999999
1
1
1
1
1
1
1
1
1
1
1
1
1
1
1
1
1
1
1
1
1
1
1
1
1
1
1
1
1
1
1
1
1
1
0.999999
1
1
1
1
1
1
1
1
1
1.00001
1.00001
1.00002
1.00002
1.00003
1.00004
1.00006
1.00007
1.0001
1.00013
1.00017
1.00022
1.00029
1.0004
1.00056
1.00081
1.00119
1.00176
1.00262
1.00386
1.0056
1.00797
1.01109
1.015
1.01963
1.02476
1.02997
1.03474
1.03856
1.04102
1.04193
1.04127
1.03918
1.03591
1.03174
1.02697
1.02185
1.01663
1.0115
1.00659
1.00202
0.997854
0.99413
0.990866
0.988066
0.985719
0.983815
0.982347
0.981308
0.980697
0.980523
0.980802
0.981553
0.982804
0.984586
0.98693
0.989861
0.993396
0.99754
1.00228
1.00757
1.01334
1.01942
1.02555
1.03136
1.03638
1.04014
1.04224
1.04246
1.04086
1.03771
1.03347
1.02865
1.0237
1.01901
1.0148
1.01121
1.00827
1.00593
1.00414
1.0028
1.00183
1.00114
1.00067
1.00036
1.00016
1.00004
0.999977
0.999944
0.999932
0.999932
0.999939
0.999948
0.999958
0.999967
0.999975
0.999982
0.999987
0.99999
0.999993
0.999995
0.999996
0.999998
0.999998
0.999999
0.999999
1
1
1
1
1
1
1
1
1
1
1
1
1
1
1
1
1
1
1
1
1
1
1
1
1
1
1
1
1
1
1
1
1
1
1
1
1
1
1
1
1
1
1
1.00001
1.00001
1.00001
1.00002
1.00002
1.00003
1.00005
1.00006
1.00008
1.00011
1.00014
1.00019
1.00025
1.00033
1.00046
1.00066
1.00096
1.00143
1.00213
1.00317
1.00466
1.00674
1.00954
1.01316
1.01759
1.02269
1.02808
1.03322
1.03752
1.04049
1.04181
1.04142
1.03945
1.03613
1.03178
1.0267
1.02121
1.01556
1.00997
1.00461
0.999596
0.995004
0.990881
0.98724
0.984078
0.981381
0.979128
0.977298
0.975877
0.974857
0.974235
0.974018
0.974223
0.974874
0.976002
0.977644
0.979842
0.982636
0.98606
0.990134
0.994863
1.00023
1.00617
1.01259
1.01928
1.02591
1.03204
1.03715
1.04073
1.04241
1.04208
1.0399
1.03625
1.03165
1.02664
1.02168
1.0171
1.0131
1.00976
1.00707
1.00498
1.00341
1.00225
1.00143
1.00086
1.00048
1.00024
1.00009
0.999999
0.999954
0.999935
0.999931
0.999936
0.999945
0.999955
0.999964
0.999973
0.99998
0.999985
0.999989
0.999993
0.999995
0.999996
0.999997
0.999998
0.999999
0.999999
1
1
1
1
1
1
1
1
1
1
1
1
1
1
1
1
1
1
1
1
1
1
1
1
1
1
1
1
1
1
1
1
1
1
1
1
1
1
1
1
1
1
1
1.00001
1.00001
1.00001
1.00002
1.00003
1.00004
1.00005
1.00007
1.00009
1.00012
1.00016
1.00021
1.00028
1.00038
1.00053
1.00077
1.00114
1.00171
1.00256
1.0038
1.00558
1.00803
1.01129
1.01543
1.02036
1.02581
1.03127
1.03609
1.03965
1.04154
1.0416
1.0399
1.03668
1.03226
1.02698
1.02118
1.01516
1.00915
1.00335
0.9979
0.992896
0.988383
0.984382
0.980886
0.977869
0.975304
0.973162
0.971416
0.970048
0.969047
0.968414
0.968154
0.968282
0.968825
0.969815
0.971293
0.973306
0.975909
0.979152
0.983077
0.987705
0.993036
0.999042
1.00565
1.0127
1.01994
1.02696
1.03324
1.03821
1.04137
1.04243
1.0414
1.03856
1.03439
1.02949
1.02438
1.0195
1.01512
1.01138
1.00833
1.00593
1.0041
1.00274
1.00177
1.00109
1.00063
1.00033
1.00014
1.00003
0.999968
0.99994
0.999932
0.999934
0.999942
0.999952
0.999961
0.99997
0.999978
0.999984
0.999988
0.999992
0.999994
0.999996
0.999997
0.999998
0.999999
0.999999