/*--------------------------------*- C++ -*----------------------------------*\
  =========                 |
  \\      /  F ield         | OpenFOAM: The Open Source CFD Toolbox
   \\    /   O peration     | Website:  https://openfoam.org
    \\  /    A nd           | Version:  6
     \\/     M anipulation  |
\*---------------------------------------------------------------------------*/
FoamFile
{
    version     2.0;
    format      ascii;
    class       volScalarField;
    location    "3.54";
    object      rho;
}
// * * * * * * * * * * * * * * * * * * * * * * * * * * * * * * * * * * * * * //

dimensions      [1 -3 0 0 0 0 0];

internalField   nonuniform List<scalar> 
22500
(
1.40001
1.40001
1.40001
1.40001
1.40001
1.40001
1.40001
1.40001
1.40001
1.40001
1.40001
1.40001
1.40001
1.4
1.40001
1.40001
1.4
1.40001
1.4
1.40001
1.40001
1.4
1.40001
1.4
1.40001
1.40001
1.4
1.40001
1.40001
1.4
1.40001
1.4
1.4
1.40001
1.40001
1.4
1.40001
1.40001
1.4
1.40001
1.40001
1.4
1.40001
1.40001
1.40001
1.4
1.40001
1.40001
1.4
1.40001
1.40001
1.40001
1.4
1.40001
1.40001
1.4
1.4
1.40001
1.40001
1.40001
1.40001
1.40001
1.40001
1.40001
1.4
1.4
1.4
1.4
1.4
1.4
1.4
1.4
1.4
1.4
1.39999
1.39999
1.39998
1.39998
1.39998
1.39997
1.39997
1.39996
1.39996
1.39996
1.39995
1.39995
1.39996
1.39996
1.39997
1.39997
1.39998
1.39999
1.40001
1.40002
1.40003
1.40005
1.40006
1.40008
1.40009
1.4001
1.40011
1.40012
1.40012
1.40012
1.40013
1.40013
1.40012
1.40012
1.40012
1.40011
1.4001
1.4001
1.40009
1.40008
1.40007
1.40006
1.40005
1.40005
1.40004
1.40003
1.40003
1.40002
1.40002
1.40002
1.40001
1.40001
1.40001
1.40001
1.40001
1.40001
1.40001
1.40001
1.40001
1.40001
1.4
1.4
1.4
1.4
1.4
1.4
1.40001
1.40001
1.40001
1.40001
1.40001
1.40001
1.40001
1.40001
1.40001
1.40001
1.40001
1.40001
1.40001
1.40001
1.40001
1.40001
1.40001
1.40001
1.40001
1.40001
1.40001
1.40001
1.4
1.40001
1.4
1.40001
1.4
1.40001
1.40001
1.4
1.40001
1.4
1.40001
1.40001
1.4
1.40001
1.40001
1.4
1.40001
1.40001
1.4
1.40001
1.4
1.4
1.40001
1.40001
1.4
1.40001
1.40001
1.4
1.40001
1.40001
1.4
1.4
1.40001
1.4
1.40001
1.4
1.40001
1.4
1.4
1.40001
1.40001
1.4
1.40001
1.40001
1.40001
1.40001
1.40001
1.40001
1.40001
1.4
1.40001
1.40001
1.40001
1.40001
1.4
1.4
1.4
1.4
1.4
1.4
1.4
1.39999
1.39999
1.39998
1.39998
1.39998
1.39997
1.39996
1.39996
1.39996
1.39995
1.39995
1.39995
1.39995
1.39996
1.39996
1.39997
1.39999
1.4
1.40002
1.40003
1.40005
1.40007
1.40009
1.40011
1.40012
1.40014
1.40015
1.40016
1.40017
1.40017
1.40018
1.40018
1.40017
1.40017
1.40016
1.40015
1.40014
1.40013
1.40012
1.40011
1.4001
1.40009
1.40008
1.40007
1.40006
1.40005
1.40004
1.40004
1.40003
1.40002
1.40002
1.40002
1.40001
1.40001
1.40001
1.40001
1.40001
1.40001
1.40001
1.40001
1.4
1.4
1.4
1.4
1.4
1.4
1.4
1.4
1.4
1.4
1.4
1.40001
1.40001
1.40001
1.40001
1.40001
1.40001
1.40001
1.40001
1.40001
1.40001
1.40001
1.40001
1.40001
1.40001
1.40001
1.40001
1.40001
1.40001
1.40001
1.40001
1.40001
1.4
1.40001
1.4
1.40001
1.4
1.40001
1.40001
1.40001
1.40001
1.40001
1.4
1.40001
1.4
1.40001
1.4
1.40001
1.4
1.40001
1.4
1.40001
1.40001
1.4
1.40001
1.4
1.40001
1.40001
1.4
1.40001
1.4
1.4
1.4
1.40001
1.40001
1.4
1.40001
1.4
1.4
1.40001
1.40001
1.4
1.4
1.40001
1.40001
1.4
1.40001
1.40001
1.4
1.40001
1.40001
1.40001
1.40001
1.4
1.4
1.4
1.4
1.4
1.4
1.39999
1.39999
1.39999
1.39998
1.39998
1.39997
1.39996
1.39996
1.39995
1.39995
1.39995
1.39995
1.39995
1.39996
1.39997
1.39998
1.39999
1.40001
1.40003
1.40006
1.40008
1.40011
1.40013
1.40016
1.40018
1.4002
1.40022
1.40023
1.40024
1.40025
1.40025
1.40025
1.40025
1.40024
1.40023
1.40022
1.40021
1.40019
1.40018
1.40016
1.40015
1.40013
1.40011
1.4001
1.40009
1.40007
1.40006
1.40005
1.40004
1.40004
1.40003
1.40002
1.40002
1.40001
1.40001
1.40001
1.40001
1.40001
1.40001
1.40001
1.40001
1.4
1.4
1.4
1.4
1.4
1.4
1.4
1.4
1.4
1.4
1.40001
1.40001
1.40001
1.40001
1.40001
1.40001
1.40001
1.40001
1.40001
1.40001
1.40001
1.40001
1.40001
1.40001
1.40001
1.40001
1.40001
1.40001
1.40001
1.40001
1.40001
1.4
1.40001
1.4
1.40001
1.40001
1.4
1.40001
1.40001
1.4
1.40001
1.4
1.40001
1.40001
1.4
1.40001
1.40001
1.4
1.40001
1.4
1.4
1.40001
1.40001
1.4
1.40001
1.40001
1.4
1.40001
1.40001
1.4
1.40001
1.40001
1.4
1.40001
1.40001
1.4
1.40001
1.4
1.40001
1.40001
1.4
1.40001
1.40001
1.4
1.40001
1.40001
1.40001
1.40001
1.40001
1.40001
1.40001
1.40001
1.40001
1.4
1.4
1.4
1.4
1.4
1.4
1.39999
1.39999
1.39998
1.39998
1.39997
1.39996
1.39996
1.39995
1.39995
1.39995
1.39995
1.39995
1.39996
1.39997
1.39999
1.40001
1.40003
1.40006
1.40009
1.40012
1.40016
1.40019
1.40023
1.40026
1.40029
1.40031
1.40034
1.40035
1.40036
1.40037
1.40037
1.40036
1.40035
1.40034
1.40032
1.4003
1.40028
1.40026
1.40024
1.40021
1.40019
1.40017
1.40015
1.40013
1.40011
1.40009
1.40008
1.40006
1.40005
1.40004
1.40003
1.40003
1.40002
1.40002
1.40001
1.40001
1.40001
1.40001
1.40001
1.40001
1.40001
1.4
1.4
1.4
1.4
1.4
1.4
1.4
1.4
1.4
1.4
1.4
1.4
1.40001
1.40001
1.40001
1.40001
1.40001
1.40001
1.40001
1.40001
1.40001
1.40001
1.40001
1.40001
1.40001
1.40001
1.40001
1.40001
1.40001
1.40001
1.40001
1.40001
1.4
1.40001
1.4
1.40001
1.4
1.4
1.40001
1.4
1.40001
1.40001
1.4
1.40001
1.4
1.40001
1.40001
1.40001
1.4
1.40001
1.4
1.4
1.40001
1.4
1.40001
1.40001
1.40001
1.4
1.40001
1.40001
1.4
1.40001
1.40001
1.4
1.40001
1.4
1.40001
1.40001
1.4
1.40001
1.4
1.4
1.40001
1.40001
1.40001
1.4
1.40001
1.40001
1.40001
1.40001
1.40001
1.40001
1.40001
1.40001
1.4
1.4
1.4
1.4
1.4
1.39999
1.39998
1.39998
1.39997
1.39997
1.39996
1.39996
1.39995
1.39995
1.39995
1.39996
1.39997
1.39998
1.4
1.40003
1.40006
1.4001
1.40014
1.40019
1.40023
1.40028
1.40033
1.40038
1.40042
1.40046
1.40049
1.40051
1.40053
1.40054
1.40054
1.40053
1.40052
1.4005
1.40048
1.40045
1.40042
1.40038
1.40035
1.40032
1.40028
1.40025
1.40022
1.40019
1.40016
1.40014
1.40012
1.4001
1.40008
1.40006
1.40005
1.40004
1.40003
1.40003
1.40002
1.40001
1.40001
1.40001
1.40001
1.40001
1.40001
1.4
1.4
1.4
1.4
1.4
1.4
1.4
1.4
1.4
1.4
1.4
1.4
1.4
1.40001
1.40001
1.40001
1.40001
1.40001
1.40001
1.40001
1.40001
1.40001
1.40001
1.40001
1.40001
1.40001
1.40001
1.40001
1.40001
1.40001
1.40001
1.40001
1.40001
1.40001
1.40001
1.40001
1.4
1.40001
1.4
1.40001
1.4
1.40001
1.40001
1.4
1.40001
1.40001
1.4
1.40001
1.4
1.40001
1.40001
1.40001
1.4
1.40001
1.4
1.40001
1.40001
1.4
1.40001
1.4
1.40001
1.4
1.40001
1.40001
1.4
1.40001
1.4
1.40001
1.40001
1.40001
1.4
1.40001
1.40001
1.40001
1.40001
1.40001
1.40001
1.40001
1.40001
1.40001
1.40001
1.40001
1.40001
1.40001
1.40001
1.40001
1.4
1.4
1.4
1.39999
1.39999
1.39998
1.39998
1.39997
1.39996
1.39996
1.39995
1.39995
1.39996
1.39996
1.39998
1.4
1.40002
1.40006
1.4001
1.40015
1.40021
1.40027
1.40034
1.40041
1.40048
1.40054
1.40061
1.40066
1.40071
1.40075
1.40078
1.4008
1.4008
1.40079
1.40078
1.40075
1.40072
1.40068
1.40063
1.40058
1.40053
1.40048
1.40043
1.40038
1.40033
1.40029
1.40025
1.40021
1.40018
1.40015
1.40012
1.4001
1.40008
1.40006
1.40005
1.40004
1.40003
1.40002
1.40002
1.40001
1.40001
1.40001
1.40001
1.4
1.4
1.4
1.4
1.4
1.4
1.4
1.4
1.4
1.4
1.4
1.4
1.4
1.4
1.4
1.40001
1.40001
1.40001
1.40001
1.40001
1.40001
1.40001
1.40001
1.40001
1.40001
1.40001
1.40001
1.40001
1.40001
1.40001
1.40001
1.4
1.40001
1.40001
1.4
1.40001
1.4
1.40001
1.40001
1.4
1.40001
1.4
1.40001
1.40001
1.4
1.40001
1.40001
1.4
1.40001
1.40001
1.4
1.40001
1.40001
1.4
1.40001
1.40001
1.4
1.40001
1.4
1.4
1.40001
1.40001
1.4
1.40001
1.40001
1.4
1.4
1.40001
1.4
1.40001
1.4
1.40001
1.4
1.40001
1.40001
1.40001
1.40001
1.40001
1.40001
1.40001
1.40001
1.40001
1.40001
1.40001
1.40001
1.40001
1.40001
1.4
1.4
1.4
1.39999
1.39999
1.39998
1.39998
1.39997
1.39996
1.39996
1.39996
1.39996
1.39997
1.39999
1.40002
1.40005
1.4001
1.40015
1.40022
1.4003
1.40038
1.40047
1.40057
1.40067
1.40076
1.40086
1.40094
1.40102
1.40108
1.40113
1.40116
1.40118
1.40118
1.40116
1.40113
1.40109
1.40103
1.40096
1.40089
1.40082
1.40074
1.40066
1.40059
1.40051
1.40045
1.40038
1.40033
1.40028
1.40023
1.40019
1.40016
1.40013
1.4001
1.40008
1.40006
1.40005
1.40004
1.40003
1.40002
1.40001
1.40001
1.40001
1.40001
1.4
1.4
1.4
1.4
1.4
1.4
1.4
1.4
1.4
1.4
1.4
1.4
1.4
1.4
1.4
1.4
1.40001
1.40001
1.40001
1.40001
1.40001
1.40001
1.40001
1.40001
1.40001
1.40001
1.40001
1.40001
1.40001
1.40001
1.40001
1.40001
1.40001
1.40001
1.4
1.40001
1.40001
1.4
1.40001
1.4
1.40001
1.40001
1.4
1.40001
1.4
1.4
1.40001
1.4
1.40001
1.4
1.40001
1.4
1.40001
1.40001
1.4
1.40001
1.4
1.40001
1.4
1.40001
1.4
1.40001
1.4
1.4
1.40001
1.40001
1.4
1.40001
1.40001
1.4
1.4
1.40001
1.40001
1.40001
1.40001
1.40001
1.40001
1.40001
1.40001
1.40001
1.40001
1.40001
1.40001
1.40001
1.40001
1.40001
1.40001
1.4
1.4
1.4
1.39999
1.39999
1.39998
1.39998
1.39997
1.39997
1.39997
1.39997
1.39999
1.40001
1.40004
1.40008
1.40014
1.40021
1.4003
1.4004
1.40052
1.40064
1.40077
1.40091
1.40105
1.40119
1.40132
1.40143
1.40153
1.40161
1.40168
1.40171
1.40173
1.40172
1.40168
1.40163
1.40156
1.40147
1.40137
1.40126
1.40115
1.40103
1.40092
1.40081
1.4007
1.40061
1.40052
1.40044
1.40036
1.4003
1.40025
1.4002
1.40016
1.40013
1.4001
1.40007
1.40006
1.40004
1.40003
1.40002
1.40002
1.40001
1.40001
1.40001
1.4
1.4
1.4
1.4
1.4
1.4
1.4
1.4
1.4
1.4
1.4
1.4
1.4
1.4
1.4
1.4
1.4
1.40001
1.40001
1.40001
1.40001
1.40001
1.40001
1.40001
1.40001
1.40001
1.40001
1.40001
1.40001
1.4
1.40001
1.4
1.40001
1.40001
1.40001
1.4
1.40001
1.4
1.40001
1.4
1.40001
1.40001
1.4
1.40001
1.40001
1.4
1.40001
1.40001
1.40001
1.40001
1.40001
1.40001
1.4
1.40001
1.4
1.40001
1.40001
1.40001
1.40001
1.40001
1.40001
1.4
1.40001
1.4
1.40001
1.40001
1.4
1.40001
1.40001
1.4
1.40001
1.40001
1.4
1.40001
1.40001
1.40001
1.40001
1.40001
1.40001
1.40001
1.40001
1.40001
1.40001
1.40001
1.40001
1.40001
1.40001
1.40001
1.4
1.4
1.39999
1.39999
1.39998
1.39998
1.39998
1.39998
1.39999
1.4
1.40003
1.40007
1.40012
1.4002
1.40029
1.4004
1.40053
1.40068
1.40085
1.40103
1.40122
1.40141
1.4016
1.40179
1.40197
1.40212
1.40226
1.40237
1.40244
1.40249
1.4025
1.40247
1.40242
1.40233
1.40222
1.40209
1.40194
1.40178
1.40161
1.40145
1.40128
1.40112
1.40097
1.40083
1.4007
1.40059
1.40049
1.4004
1.40032
1.40026
1.40021
1.40016
1.40012
1.40009
1.40007
1.40005
1.40004
1.40002
1.40002
1.40001
1.40001
1.4
1.4
1.4
1.4
1.4
1.4
1.4
1.4
1.4
1.4
1.4
1.4
1.4
1.4
1.4
1.4
1.4
1.4
1.40001
1.40001
1.40001
1.40001
1.40001
1.40001
1.40001
1.40001
1.40001
1.40001
1.40001
1.40001
1.40001
1.40001
1.40001
1.40001
1.40001
1.40001
1.4
1.40001
1.4
1.40001
1.4
1.4
1.40001
1.4
1.40001
1.40001
1.4
1.4
1.40001
1.4
1.40001
1.40001
1.4
1.4
1.40001
1.40001
1.4
1.40001
1.40001
1.40001
1.40001
1.40001
1.4
1.40001
1.4
1.40001
1.40001
1.4
1.40001
1.40001
1.4
1.4
1.40001
1.40001
1.40001
1.40001
1.40001
1.40001
1.40001
1.40001
1.40001
1.40001
1.40001
1.40001
1.40001
1.40001
1.40001
1.40001
1.40001
1.40001
1.4
1.4
1.39999
1.39999
1.39999
1.39999
1.4
1.40002
1.40005
1.4001
1.40017
1.40025
1.40037
1.40051
1.40067
1.40087
1.40108
1.40132
1.40158
1.40185
1.40212
1.40238
1.40264
1.40288
1.40309
1.40327
1.40341
1.40351
1.40356
1.40356
1.40352
1.40343
1.4033
1.40314
1.40295
1.40273
1.4025
1.40226
1.40202
1.40178
1.40155
1.40134
1.40114
1.40096
1.4008
1.40066
1.40053
1.40043
1.40034
1.40027
1.40021
1.40016
1.40012
1.40009
1.40006
1.40004
1.40003
1.40002
1.40001
1.40001
1.4
1.4
1.4
1.4
1.4
1.4
1.4
1.4
1.4
1.4
1.4
1.4
1.4
1.4
1.4
1.4
1.4
1.4
1.4
1.40001
1.40001
1.40001
1.40001
1.40001
1.40001
1.40001
1.40001
1.40001
1.40001
1.40001
1.4
1.40001
1.40001
1.40001
1.4
1.40001
1.4
1.40001
1.4
1.40001
1.40001
1.4
1.40001
1.40001
1.4
1.40001
1.40001
1.4
1.40001
1.40001
1.4
1.40001
1.40001
1.4
1.40001
1.40001
1.4
1.40001
1.40001
1.4
1.40001
1.40001
1.4
1.40001
1.4
1.40001
1.40001
1.40001
1.4
1.40001
1.4
1.40001
1.40001
1.40001
1.40001
1.40001
1.40001
1.40001
1.40001
1.40001
1.40001
1.40001
1.40001
1.40001
1.40001
1.40001
1.40001
1.40001
1.40001
1.40001
1.40001
1.4
1.4
1.4
1.40001
1.40002
1.40004
1.40008
1.40013
1.40021
1.40032
1.40045
1.40062
1.40083
1.40107
1.40135
1.40166
1.402
1.40235
1.40272
1.4031
1.40346
1.40381
1.40413
1.40441
1.40464
1.40483
1.40495
1.40501
1.405
1.40494
1.40481
1.40463
1.40439
1.40412
1.40382
1.40349
1.40315
1.40281
1.40247
1.40215
1.40185
1.40157
1.40131
1.40109
1.40089
1.40072
1.40057
1.40045
1.40035
1.40027
1.4002
1.40015
1.40011
1.40008
1.40005
1.40003
1.40002
1.40001
1.40001
1.4
1.4
1.4
1.4
1.4
1.4
1.4
1.4
1.4
1.4
1.4
1.4
1.4
1.4
1.4
1.4
1.4
1.4
1.4
1.4
1.40001
1.40001
1.40001
1.40001
1.40001
1.40001
1.40001
1.40001
1.40001
1.40001
1.40001
1.40001
1.40001
1.40001
1.40001
1.40001
1.4
1.40001
1.40001
1.4
1.40001
1.4
1.40001
1.40001
1.4
1.40001
1.40001
1.4
1.40001
1.40001
1.4
1.4
1.40001
1.4
1.40001
1.40001
1.4
1.4
1.40001
1.4
1.40001
1.40001
1.40001
1.40001
1.4
1.40001
1.40001
1.40001
1.40001
1.40001
1.40001
1.40001
1.40001
1.40001
1.40001
1.40001
1.40001
1.40001
1.40001
1.40001
1.40001
1.40001
1.40001
1.40002
1.40002
1.40002
1.40002
1.40002
1.40002
1.40001
1.40001
1.40001
1.40001
1.40002
1.40003
1.40006
1.4001
1.40016
1.40025
1.40038
1.40054
1.40074
1.40099
1.40129
1.40164
1.40203
1.40246
1.40293
1.40342
1.40392
1.40443
1.40492
1.40538
1.4058
1.40618
1.40648
1.40671
1.40687
1.40694
1.40692
1.40682
1.40664
1.40639
1.40607
1.40569
1.40527
1.40482
1.40436
1.40388
1.40342
1.40297
1.40255
1.40216
1.4018
1.40149
1.40121
1.40098
1.40078
1.40061
1.40047
1.40036
1.40027
1.4002
1.40014
1.4001
1.40007
1.40004
1.40002
1.40001
1.40001
1.4
1.4
1.4
1.4
1.4
1.4
1.4
1.4
1.4
1.4
1.4
1.4
1.4
1.4
1.4
1.4
1.4
1.4
1.4
1.4
1.4
1.40001
1.40001
1.40001
1.40001
1.40001
1.40001
1.40001
1.40001
1.40001
1.40001
1.40001
1.40001
1.40001
1.4
1.40001
1.4
1.40001
1.40001
1.4
1.40001
1.4
1.40001
1.40001
1.4
1.4
1.40001
1.4
1.4
1.40001
1.4
1.40001
1.40001
1.4
1.4
1.40001
1.40001
1.4
1.40001
1.40001
1.40001
1.4
1.40001
1.40001
1.4
1.40001
1.40001
1.40001
1.40001
1.40001
1.40001
1.40001
1.40001
1.40001
1.40001
1.40001
1.40001
1.40001
1.40001
1.40001
1.40001
1.40002
1.40002
1.40002
1.40002
1.40002
1.40002
1.40002
1.40002
1.40002
1.40002
1.40003
1.40004
1.40005
1.40008
1.40013
1.4002
1.4003
1.40043
1.40062
1.40086
1.40116
1.40151
1.40194
1.40242
1.40297
1.40356
1.4042
1.40486
1.40553
1.4062
1.40685
1.40746
1.40801
1.40849
1.40888
1.40918
1.40938
1.40946
1.40943
1.40929
1.40905
1.40871
1.40827
1.40777
1.40721
1.4066
1.40596
1.40532
1.40469
1.40407
1.40349
1.40296
1.40247
1.40204
1.40166
1.40133
1.40105
1.40082
1.40063
1.40048
1.40035
1.40026
1.40018
1.40013
1.40008
1.40005
1.40003
1.40001
1.4
1.4
1.4
1.39999
1.39999
1.39999
1.4
1.4
1.4
1.4
1.4
1.4
1.4
1.4
1.4
1.4
1.4
1.4
1.4
1.4
1.4
1.4
1.40001
1.4
1.40001
1.40001
1.40001
1.40001
1.40001
1.40001
1.40001
1.40001
1.40001
1.40001
1.40001
1.40001
1.40001
1.40001
1.40001
1.40001
1.4
1.40001
1.40001
1.4
1.40001
1.40001
1.4
1.40001
1.4
1.4
1.40001
1.40001
1.4
1.40001
1.4
1.4
1.40001
1.40001
1.4
1.40001
1.40001
1.40001
1.4
1.4
1.40001
1.4
1.4
1.40001
1.40001
1.40001
1.40001
1.40001
1.40001
1.40001
1.40001
1.40001
1.40001
1.40001
1.40001
1.40001
1.40001
1.40002
1.40002
1.40002
1.40002
1.40003
1.40003
1.40003
1.40003
1.40003
1.40004
1.40004
1.40005
1.40007
1.4001
1.40015
1.40022
1.40033
1.40049
1.4007
1.40097
1.40131
1.40173
1.40224
1.40282
1.40349
1.40423
1.40503
1.40588
1.40676
1.40765
1.40852
1.40936
1.41014
1.41085
1.41146
1.41196
1.41233
1.41257
1.41267
1.41263
1.41244
1.41212
1.41168
1.41111
1.41045
1.40971
1.40891
1.40807
1.40722
1.40637
1.40554
1.40476
1.40403
1.40337
1.40278
1.40226
1.40181
1.40143
1.40111
1.40085
1.40064
1.40047
1.40034
1.40024
1.40017
1.40011
1.40007
1.40004
1.40002
1.40001
1.4
1.39999
1.39999
1.39999
1.39999
1.39999
1.4
1.4
1.4
1.4
1.4
1.4
1.4
1.4
1.4
1.4
1.4
1.4
1.4
1.4
1.4
1.40001
1.4
1.40001
1.4
1.40001
1.40001
1.40001
1.40001
1.40001
1.40001
1.40001
1.40001
1.40001
1.4
1.40001
1.4
1.40001
1.40001
1.4
1.40001
1.40001
1.4
1.40001
1.40001
1.4
1.40001
1.40001
1.4
1.40001
1.40001
1.4
1.4
1.40001
1.4
1.4
1.40001
1.4
1.4
1.40001
1.4
1.4
1.4
1.40001
1.40001
1.4
1.40001
1.40001
1.40001
1.40001
1.40001
1.40001
1.40001
1.40001
1.40001
1.40001
1.40001
1.40001
1.40001
1.40002
1.40002
1.40002
1.40003
1.40003
1.40003
1.40004
1.40004
1.40004
1.40005
1.40005
1.40006
1.40008
1.40012
1.40017
1.40025
1.40037
1.40053
1.40076
1.40106
1.40145
1.40194
1.40252
1.40322
1.40402
1.40492
1.4059
1.40696
1.40808
1.40922
1.41036
1.41148
1.41254
1.41353
1.41441
1.41517
1.41579
1.41625
1.41654
1.41666
1.4166
1.41637
1.41597
1.4154
1.41469
1.41385
1.4129
1.41187
1.41078
1.40967
1.40855
1.40746
1.40642
1.40545
1.40456
1.40376
1.40306
1.40245
1.40194
1.4015
1.40115
1.40086
1.40064
1.40046
1.40032
1.40022
1.40014
1.40009
1.40005
1.40002
1.40001
1.4
1.39999
1.39999
1.39999
1.39999
1.39999
1.39999
1.39999
1.4
1.4
1.4
1.4
1.4
1.4
1.4
1.4
1.4
1.4
1.4
1.4
1.4
1.4
1.4
1.40001
1.4
1.40001
1.40001
1.40001
1.40001
1.4
1.40001
1.40001
1.40001
1.40001
1.4
1.40001
1.40001
1.4
1.40001
1.4
1.40001
1.40001
1.40001
1.4
1.40001
1.4
1.40001
1.40001
1.4
1.4
1.40001
1.4
1.40001
1.40001
1.40001
1.4
1.40001
1.40001
1.4
1.40001
1.40001
1.4
1.4
1.40001
1.40001
1.4
1.40001
1.40001
1.40001
1.40001
1.40001
1.40001
1.40001
1.40001
1.40001
1.40001
1.40001
1.40001
1.40002
1.40002
1.40002
1.40003
1.40003
1.40004
1.40004
1.40005
1.40005
1.40006
1.40006
1.40008
1.4001
1.40013
1.40018
1.40027
1.40039
1.40057
1.40081
1.40114
1.40157
1.40212
1.40278
1.40359
1.40452
1.40559
1.40678
1.40807
1.40945
1.41088
1.41233
1.41376
1.41516
1.41648
1.41769
1.41876
1.41968
1.42042
1.42097
1.42132
1.42146
1.42139
1.42111
1.42062
1.41994
1.41907
1.41803
1.41686
1.41557
1.4142
1.41278
1.41135
1.40994
1.40858
1.40731
1.40613
1.40507
1.40413
1.40331
1.40262
1.40204
1.40156
1.40117
1.40086
1.40062
1.40044
1.4003
1.40019
1.40012
1.40007
1.40003
1.40001
1.39999
1.39999
1.39998
1.39998
1.39998
1.39999
1.39999
1.39999
1.39999
1.4
1.4
1.4
1.4
1.4
1.4
1.4
1.4
1.4
1.4
1.4
1.4
1.4
1.4
1.40001
1.40001
1.40001
1.40001
1.4
1.40001
1.4
1.40001
1.40001
1.4
1.40001
1.4
1.40001
1.40001
1.40001
1.40001
1.40001
1.40001
1.40001
1.40001
1.4
1.40001
1.4
1.40001
1.40001
1.4
1.40001
1.40001
1.40001
1.4
1.40001
1.4
1.40001
1.4
1.40001
1.4
1.40001
1.40001
1.4
1.40001
1.4
1.40001
1.40001
1.40001
1.40001
1.40001
1.40001
1.40001
1.40001
1.40001
1.40001
1.40001
1.40001
1.40001
1.40002
1.40002
1.40002
1.40003
1.40003
1.40004
1.40004
1.40005
1.40006
1.40007
1.40007
1.40009
1.40011
1.40014
1.4002
1.40028
1.40041
1.40059
1.40085
1.4012
1.40166
1.40226
1.403
1.40391
1.40499
1.40623
1.40763
1.40917
1.41083
1.41257
1.41436
1.41616
1.41792
1.41961
1.4212
1.42264
1.4239
1.42498
1.42584
1.42648
1.42688
1.42704
1.42696
1.42664
1.42607
1.42527
1.42425
1.42303
1.42162
1.42006
1.41839
1.41663
1.41484
1.41306
1.41133
1.40968
1.40815
1.40676
1.40553
1.40445
1.40352
1.40274
1.4021
1.40158
1.40117
1.40084
1.40059
1.40041
1.40027
1.40017
1.40009
1.40005
1.40001
1.39999
1.39998
1.39998
1.39998
1.39998
1.39998
1.39998
1.39999
1.39999
1.39999
1.4
1.4
1.4
1.4
1.4
1.4
1.4
1.4
1.4
1.4
1.4
1.4
1.4
1.40001
1.40001
1.4
1.40001
1.4
1.40001
1.4
1.40001
1.40001
1.4
1.40001
1.40001
1.4
1.40001
1.4
1.40001
1.4
1.40001
1.4
1.40001
1.4
1.40001
1.4
1.40001
1.40001
1.40001
1.4
1.40001
1.4
1.40001
1.40001
1.4
1.40001
1.4
1.40001
1.40001
1.4
1.40001
1.4
1.40001
1.40001
1.4
1.40001
1.40001
1.40001
1.40001
1.40001
1.40001
1.40001
1.40001
1.40001
1.40001
1.40001
1.40001
1.40002
1.40002
1.40003
1.40003
1.40004
1.40005
1.40005
1.40006
1.40007
1.40008
1.4001
1.40012
1.40015
1.40021
1.40029
1.40042
1.4006
1.40087
1.40123
1.40172
1.40236
1.40317
1.40418
1.40538
1.4068
1.40841
1.41021
1.41217
1.41424
1.4164
1.41859
1.42075
1.42285
1.42484
1.42667
1.42831
1.42975
1.43095
1.43191
1.43262
1.43306
1.43324
1.43316
1.4328
1.43218
1.4313
1.43016
1.42878
1.42716
1.42535
1.42337
1.42127
1.41909
1.4169
1.41474
1.41267
1.41072
1.40893
1.40733
1.40592
1.4047
1.40367
1.40282
1.40213
1.40157
1.40114
1.4008
1.40055
1.40036
1.40023
1.40013
1.40007
1.40002
1.4
1.39998
1.39997
1.39997
1.39997
1.39998
1.39998
1.39998
1.39999
1.39999
1.39999
1.4
1.4
1.4
1.4
1.4
1.4
1.4
1.4
1.4
1.4
1.4
1.4
1.4
1.40001
1.4
1.40001
1.4
1.40001
1.40001
1.40001
1.40001
1.4
1.40001
1.40001
1.4
1.40001
1.4
1.40001
1.40001
1.40001
1.40001
1.40001
1.4
1.40001
1.40001
1.4
1.40001
1.4
1.40001
1.4
1.40001
1.4
1.40001
1.4
1.40001
1.40001
1.4
1.40001
1.4
1.40001
1.4
1.40001
1.40001
1.4
1.40001
1.40001
1.40001
1.40001
1.40001
1.40001
1.40001
1.40001
1.40001
1.40001
1.40001
1.40002
1.40002
1.40003
1.40003
1.40004
1.40005
1.40006
1.40007
1.40008
1.40009
1.40011
1.40013
1.40016
1.40021
1.4003
1.40042
1.4006
1.40087
1.40124
1.40174
1.40242
1.40328
1.40437
1.40569
1.40727
1.40909
1.41115
1.41341
1.41584
1.41838
1.42097
1.42356
1.42608
1.42848
1.43072
1.43275
1.43454
1.43608
1.43736
1.43837
1.4391
1.43956
1.43975
1.43967
1.43931
1.43868
1.43776
1.43657
1.43509
1.43333
1.43133
1.42909
1.42667
1.42412
1.4215
1.41889
1.41633
1.41391
1.41165
1.40961
1.40779
1.40622
1.40488
1.40376
1.40285
1.40211
1.40153
1.40109
1.40075
1.4005
1.40032
1.40019
1.4001
1.40004
1.4
1.39998
1.39997
1.39997
1.39997
1.39997
1.39997
1.39998
1.39998
1.39999
1.39999
1.4
1.4
1.4
1.4
1.4
1.4
1.4
1.4
1.4
1.4
1.4
1.4
1.4
1.40001
1.4
1.40001
1.4
1.40001
1.40001
1.40001
1.40001
1.40001
1.4
1.40001
1.4
1.40001
1.4
1.40001
1.4
1.40001
1.40001
1.40001
1.40001
1.4
1.40001
1.4
1.40001
1.40001
1.4
1.40001
1.40001
1.4
1.40001
1.40001
1.4
1.40001
1.4
1.40001
1.40001
1.4
1.40001
1.40001
1.4
1.4
1.40001
1.40001
1.40001
1.40001
1.40001
1.40001
1.40001
1.40001
1.40001
1.40001
1.40002
1.40002
1.40002
1.40003
1.40004
1.40005
1.40006
1.40007
1.40008
1.40009
1.40011
1.40013
1.40017
1.40022
1.4003
1.40041
1.40059
1.40085
1.40122
1.40173
1.40242
1.40332
1.40448
1.40591
1.40763
1.40965
1.41195
1.41452
1.4173
1.42022
1.42323
1.42625
1.4292
1.43202
1.43464
1.43703
1.43915
1.44099
1.44253
1.44379
1.44476
1.44546
1.44589
1.44608
1.446
1.44568
1.44509
1.44422
1.44307
1.44161
1.43983
1.43774
1.43536
1.43271
1.42985
1.42685
1.42378
1.42073
1.41778
1.415
1.41244
1.41015
1.40814
1.40641
1.40497
1.40378
1.40282
1.40206
1.40147
1.40102
1.40068
1.40044
1.40027
1.40015
1.40007
1.40002
1.39998
1.39997
1.39996
1.39996
1.39996
1.39997
1.39997
1.39998
1.39998
1.39999
1.39999
1.4
1.4
1.4
1.4
1.4
1.4
1.4
1.4
1.4
1.4
1.4
1.4
1.40001
1.4
1.40001
1.4
1.40001
1.40001
1.4
1.40001
1.40001
1.4
1.40001
1.4
1.40001
1.4
1.40001
1.40001
1.40001
1.40001
1.4
1.40001
1.4
1.40001
1.4
1.40001
1.40001
1.4
1.40001
1.40001
1.4
1.40001
1.40001
1.4
1.40001
1.40001
1.4
1.40001
1.4
1.40001
1.4
1.40001
1.40001
1.4
1.40001
1.40001
1.40001
1.40001
1.40001
1.40001
1.40001
1.40001
1.40001
1.40002
1.40002
1.40003
1.40004
1.40004
1.40006
1.40007
1.40008
1.4001
1.40012
1.40014
1.40017
1.40022
1.40029
1.4004
1.40057
1.40082
1.40118
1.40168
1.40238
1.4033
1.4045
1.406
1.40785
1.41004
1.41258
1.41544
1.41856
1.42188
1.4253
1.42875
1.43212
1.43533
1.43831
1.44101
1.4434
1.44545
1.44717
1.44857
1.44967
1.4505
1.45108
1.45144
1.45159
1.45154
1.45128
1.4508
1.45009
1.4491
1.44781
1.44618
1.4442
1.44184
1.43913
1.43609
1.43281
1.42935
1.42583
1.42235
1.41901
1.41589
1.41305
1.41053
1.40835
1.4065
1.40497
1.40372
1.40273
1.40196
1.40137
1.40093
1.40061
1.40037
1.40021
1.4001
1.40003
1.39999
1.39997
1.39996
1.39995
1.39996
1.39996
1.39997
1.39997
1.39998
1.39999
1.39999
1.39999
1.4
1.4
1.4
1.4
1.4
1.4
1.4
1.4
1.4
1.4
1.4
1.40001
1.4
1.40001
1.4
1.40001
1.40001
1.4
1.40001
1.40001
1.4
1.40001
1.4
1.40001
1.4
1.40001
1.40001
1.4
1.40001
1.4
1.40001
1.4
1.40001
1.40001
1.4
1.40001
1.4
1.40001
1.40001
1.4
1.40001
1.40001
1.4
1.40001
1.40001
1.4
1.40001
1.40001
1.4
1.4
1.40001
1.40001
1.40001
1.40001
1.40001
1.40001
1.40001
1.40001
1.40001
1.40001
1.40001
1.40002
1.40002
1.40003
1.40003
1.40004
1.40005
1.40007
1.40008
1.4001
1.40012
1.40014
1.40017
1.40022
1.40029
1.40039
1.40055
1.40078
1.40112
1.40161
1.40229
1.40321
1.40443
1.40598
1.40792
1.41026
1.41301
1.41613
1.41958
1.42327
1.42711
1.43097
1.43474
1.43832
1.44162
1.44457
1.44714
1.4493
1.45107
1.45248
1.45355
1.45435
1.45491
1.45528
1.45549
1.45558
1.45554
1.45539
1.4551
1.45464
1.45397
1.45303
1.45176
1.45011
1.44802
1.44549
1.4425
1.43913
1.43544
1.43155
1.4276
1.4237
1.41999
1.41655
1.41345
1.41074
1.40841
1.40646
1.40487
1.4036
1.4026
1.40183
1.40125
1.40083
1.40052
1.40031
1.40016
1.40006
1.40001
1.39997
1.39995
1.39995
1.39995
1.39996
1.39996
1.39997
1.39998
1.39998
1.39999
1.39999
1.4
1.4
1.4
1.4
1.4
1.4
1.4
1.4
1.4
1.4
1.4
1.40001
1.4
1.40001
1.40001
1.4
1.40001
1.4
1.40001
1.40001
1.40001
1.40001
1.40001
1.40001
1.4
1.40001
1.4
1.40001
1.40001
1.4
1.40001
1.4
1.40001
1.40001
1.4
1.40001
1.4
1.40001
1.4
1.40001
1.4
1.40001
1.40001
1.4
1.40001
1.4
1.40001
1.4
1.40001
1.4
1.40001
1.40001
1.40001
1.40001
1.40001
1.40001
1.40001
1.40001
1.40001
1.40001
1.40001
1.40002
1.40002
1.40003
1.40004
1.40005
1.40006
1.40008
1.40009
1.40011
1.40014
1.40017
1.40022
1.40028
1.40037
1.40051
1.40073
1.40105
1.40151
1.40216
1.40306
1.40427
1.40585
1.40784
1.41029
1.4132
1.41656
1.42031
1.42436
1.42859
1.43285
1.43701
1.44093
1.4445
1.44763
1.45028
1.45244
1.45412
1.45537
1.45624
1.45681
1.45714
1.45731
1.45738
1.45738
1.45737
1.45736
1.45733
1.45729
1.45719
1.45697
1.45655
1.45586
1.45479
1.45327
1.45121
1.44859
1.44541
1.44174
1.43768
1.43338
1.42901
1.42472
1.42066
1.41694
1.41363
1.41075
1.40832
1.40631
1.40469
1.40341
1.40242
1.40167
1.40112
1.40071
1.40043
1.40024
1.40011
1.40003
1.39998
1.39995
1.39994
1.39994
1.39995
1.39995
1.39996
1.39997
1.39998
1.39998
1.39999
1.39999
1.4
1.4
1.4
1.4
1.4
1.4
1.4
1.4
1.4
1.4
1.4
1.4
1.4
1.40001
1.4
1.40001
1.4
1.40001
1.40001
1.40001
1.40001
1.40001
1.40001
1.40001
1.4
1.40001
1.4
1.40001
1.4
1.4
1.40001
1.4
1.40001
1.4
1.40001
1.4
1.40001
1.4
1.40001
1.40001
1.4
1.40001
1.4
1.40001
1.4
1.40001
1.40001
1.4
1.40001
1.40001
1.40001
1.40001
1.40001
1.40001
1.40001
1.40001
1.40001
1.40001
1.40001
1.40002
1.40002
1.40003
1.40004
1.40005
1.40006
1.40007
1.40009
1.40011
1.40014
1.40017
1.40021
1.40027
1.40035
1.40048
1.40067
1.40096
1.40139
1.40201
1.40287
1.40404
1.4056
1.40761
1.41012
1.41316
1.41671
1.42073
1.42511
1.42971
1.43436
1.43888
1.44311
1.4469
1.45015
1.4528
1.45484
1.4563
1.45723
1.45772
1.45787
1.45776
1.45751
1.45719
1.45687
1.45662
1.45649
1.45648
1.4566
1.45684
1.45716
1.45749
1.45774
1.45781
1.45757
1.45689
1.45565
1.45375
1.45112
1.4478
1.44387
1.43946
1.43478
1.43002
1.42538
1.42102
1.41706
1.41357
1.41058
1.40808
1.40605
1.40443
1.40317
1.40221
1.40149
1.40097
1.4006
1.40034
1.40017
1.40006
1.39999
1.39996
1.39994
1.39994
1.39994
1.39995
1.39996
1.39996
1.39997
1.39998
1.39999
1.39999
1.39999
1.4
1.4
1.4
1.4
1.4
1.4
1.4
1.4
1.4
1.4
1.40001
1.4
1.40001
1.4
1.40001
1.4
1.40001
1.4
1.40001
1.40001
1.40001
1.40001
1.4
1.40001
1.40001
1.4
1.40001
1.40001
1.4
1.40001
1.4
1.40001
1.4
1.40001
1.40001
1.40001
1.4
1.40001
1.40001
1.4
1.40001
1.40001
1.4
1.40001
1.40001
1.4
1.40001
1.40001
1.4
1.40001
1.40001
1.40001
1.40001
1.40001
1.40001
1.40001
1.40001
1.40002
1.40002
1.40002
1.40003
1.40004
1.40005
1.40007
1.40008
1.40011
1.40013
1.40016
1.4002
1.40025
1.40033
1.40044
1.40062
1.40087
1.40126
1.40183
1.40263
1.40375
1.40527
1.40725
1.40977
1.41288
1.41657
1.42081
1.42548
1.43043
1.43545
1.44032
1.44484
1.44883
1.45215
1.45472
1.45655
1.45767
1.45815
1.45811
1.45767
1.45694
1.45607
1.45514
1.45428
1.45355
1.45302
1.45274
1.45273
1.45299
1.45352
1.45428
1.45519
1.45618
1.45713
1.45788
1.45828
1.45815
1.45731
1.45565
1.45309
1.44967
1.44549
1.44076
1.43571
1.4306
1.42564
1.42103
1.41688
1.41328
1.41022
1.40771
1.40569
1.4041
1.40288
1.40197
1.4013
1.40082
1.40048
1.40026
1.40011
1.40002
1.39997
1.39994
1.39993
1.39993
1.39994
1.39995
1.39996
1.39997
1.39998
1.39998
1.39999
1.39999
1.4
1.4
1.4
1.4
1.4
1.4
1.4
1.4
1.4
1.4
1.40001
1.4
1.40001
1.4
1.40001
1.40001
1.40001
1.4
1.40001
1.4
1.40001
1.4
1.40001
1.4
1.40001
1.4
1.4
1.40001
1.4
1.40001
1.4
1.40001
1.4
1.40001
1.40001
1.4
1.40001
1.4
1.40001
1.4
1.40001
1.4
1.4
1.40001
1.4
1.40001
1.40001
1.4
1.40001
1.40001
1.40001
1.40001
1.40001
1.40001
1.40001
1.40001
1.40001
1.40002
1.40002
1.40003
1.40004
1.40005
1.40006
1.40008
1.4001
1.40012
1.40015
1.40019
1.40024
1.40031
1.40041
1.40056
1.40079
1.40113
1.40164
1.40238
1.40342
1.40485
1.40677
1.40926
1.41237
1.41614
1.42054
1.42546
1.43072
1.43609
1.44131
1.44612
1.45028
1.45365
1.45611
1.45767
1.45837
1.45831
1.45762
1.45646
1.45499
1.45334
1.45166
1.45007
1.44866
1.44753
1.44672
1.4463
1.44627
1.44666
1.44745
1.44861
1.45009
1.4518
1.45363
1.45544
1.45704
1.45821
1.45873
1.45838
1.457
1.45453
1.45101
1.4466
1.44155
1.43616
1.43073
1.42551
1.4207
1.41643
1.41277
1.40971
1.40722
1.40525
1.40372
1.40256
1.40171
1.4011
1.40066
1.40037
1.40018
1.40005
1.39998
1.39995
1.39993
1.39993
1.39993
1.39994
1.39995
1.39996
1.39997
1.39998
1.39999
1.39999
1.39999
1.4
1.4
1.4
1.4
1.4
1.4
1.4
1.4
1.4
1.40001
1.4
1.40001
1.40001
1.40001
1.40001
1.40001
1.4
1.40001
1.40001
1.40001
1.40001
1.40001
1.4
1.40001
1.4
1.40001
1.40001
1.4
1.40001
1.40001
1.40001
1.4
1.40001
1.40001
1.40001
1.4
1.40001
1.4
1.40001
1.40001
1.4
1.40001
1.4
1.4
1.40001
1.40001
1.4
1.40001
1.40001
1.40001
1.40001
1.40001
1.40001
1.40001
1.40001
1.40001
1.40002
1.40002
1.40003
1.40004
1.40006
1.40007
1.40009
1.40011
1.40014
1.40018
1.40022
1.40028
1.40037
1.4005
1.4007
1.401
1.40145
1.40211
1.40306
1.40439
1.4062
1.4086
1.41166
1.41544
1.41993
1.42503
1.43057
1.43627
1.44183
1.44693
1.45129
1.45471
1.45706
1.45833
1.45857
1.45791
1.45652
1.45458
1.45227
1.44977
1.44723
1.44481
1.44261
1.44073
1.43923
1.43819
1.43763
1.43758
1.43806
1.43906
1.44055
1.44251
1.44486
1.4475
1.4503
1.45308
1.45562
1.45764
1.45886
1.45901
1.45791
1.4555
1.45185
1.44718
1.44182
1.43611
1.43041
1.42498
1.42005
1.41573
1.41206
1.40905
1.40663
1.40474
1.4033
1.40223
1.40145
1.4009
1.40052
1.40027
1.40011
1.40001
1.39996
1.39993
1.39992
1.39993
1.39993
1.39994
1.39996
1.39997
1.39997
1.39998
1.39999
1.39999
1.4
1.4
1.4
1.4
1.4
1.4
1.4
1.4
1.4
1.4
1.4
1.4
1.40001
1.4
1.40001
1.40001
1.4
1.40001
1.4
1.40001
1.4
1.40001
1.4
1.40001
1.40001
1.40001
1.4
1.40001
1.4
1.40001
1.40001
1.4
1.40001
1.40001
1.4
1.40001
1.4
1.40001
1.40001
1.40001
1.4
1.4
1.40001
1.4
1.4
1.40001
1.4
1.40001
1.40001
1.40001
1.40001
1.40001
1.40001
1.40001
1.40001
1.40002
1.40002
1.40003
1.40004
1.40005
1.40006
1.40008
1.4001
1.40013
1.40016
1.40021
1.40026
1.40034
1.40045
1.40062