/*--------------------------------*- C++ -*----------------------------------*\
  =========                 |
  \\      /  F ield         | OpenFOAM: The Open Source CFD Toolbox
   \\    /   O peration     | Website:  https://openfoam.org
    \\  /    A nd           | Version:  6
     \\/     M anipulation  |
\*---------------------------------------------------------------------------*/
FoamFile
{
    version     2.0;
    format      ascii;
    class       volScalarField;
    location    "4.07";
    object      rho;
}
// * * * * * * * * * * * * * * * * * * * * * * * * * * * * * * * * * * * * * //

dimensions      [1 -3 0 0 0 0 0];

internalField   nonuniform List<scalar> 
5625
(
1.45019
1.44361
1.43509
1.42537
1.41508
1.40476
1.39483
1.38568
1.37763
1.37089
1.36558
1.36185
1.35972
1.35909
1.35971
1.3611
1.36276
1.36432
1.36545
1.36581
1.36519
1.36361
1.36139
1.35898
1.3566
1.35439
1.35284
1.35247
1.35309
1.3541
1.35529
1.35676
1.35833
1.35952
1.36008
1.36003
1.35943
1.3583
1.35691
1.35583
1.35567
1.35678
1.35916
1.36268
1.36734
1.37338
1.38108
1.39061
1.40181
1.41401
1.42618
1.43703
1.44534
1.45027
1.45153
1.44947
1.44488
1.43876
1.43207
1.42556
1.41973
1.4148
1.41085
1.40779
1.4055
1.40383
1.40265
1.40182
1.40125
1.40086
1.40059
1.40041
1.40029
1.40021
1.40015
1.45207
1.44655
1.43888
1.42976
1.41987
1.40975
1.39984
1.39052
1.38214
1.37489
1.36896
1.36448
1.36151
1.35999
1.35972
1.36041
1.36183
1.36365
1.36535
1.36654
1.36716
1.36722
1.36677
1.3659
1.36477
1.3636
1.36274
1.36235
1.36214
1.3619
1.36177
1.36186
1.36193
1.36164
1.36094
1.35997
1.3588
1.35748
1.3563
1.35578
1.35639
1.35829
1.3614
1.36559
1.37091
1.37757
1.38587
1.39586
1.40726
1.41931
1.43089
1.44075
1.44779
1.45133
1.45133
1.44827
1.44304
1.43663
1.42994
1.42362
1.41807
1.41347
1.40981
1.40702
1.40494
1.40344
1.40238
1.40164
1.40113
1.40078
1.40054
1.40038
1.40027
1.4002
1.40014
1.45354
1.44922
1.44251
1.43413
1.42474
1.41492
1.40511
1.39574
1.3871
1.37943
1.37294
1.36779
1.36404
1.36161
1.36041
1.36035
1.36125
1.36269
1.36422
1.36571
1.36709
1.36811
1.36859
1.36862
1.36836
1.36791
1.36741
1.36685
1.36611
1.36524
1.36448
1.36381
1.36297
1.36184
1.36055
1.35925
1.35799
1.35687
1.35619
1.35641
1.35785
1.36055
1.36435
1.36917
1.37509
1.38236
1.39118
1.40154
1.41299
1.4247
1.43551
1.4442
1.44983
1.45194
1.45068
1.4467
1.44093
1.43434
1.42772
1.42165
1.41643
1.41216
1.40881
1.40628
1.40441
1.40307
1.40212
1.40146
1.40101
1.4007
1.40049
1.40035
1.40025
1.40018
1.40013
1.4545
1.4515
1.44589
1.43837
1.42963
1.4202
1.41061
1.40127
1.39248
1.38449
1.37753
1.37178
1.36727
1.36399
1.36195
1.36111
1.36121
1.3619
1.36303
1.36451
1.36603
1.36722
1.36806
1.36863
1.36888
1.36879
1.36844
1.36781
1.36689
1.36584
1.36483
1.36377
1.36249
1.36104
1.35965
1.35845
1.35745
1.3568
1.35681
1.35786
1.36014
1.36358
1.36802
1.37342
1.3799
1.38771
1.39698
1.40757
1.41892
1.43009
1.4399
1.44725
1.45136
1.45202
1.44957
1.44477
1.43858
1.4319
1.42545
1.41968
1.41481
1.41089
1.40786
1.40558
1.40391
1.40272
1.40188
1.4013
1.40091
1.40063
1.40045
1.40032
1.40023
1.40017
1.40012
1.45486
1.45327
1.44891
1.4424
1.43442
1.42554
1.41628
1.40706
1.39822
1.39002
1.3827
1.37641
1.37122
1.3672
1.3644
1.36271
1.3619
1.36182
1.36244
1.36351
1.36462
1.36561
1.36656
1.36733
1.36772
1.36773
1.36745
1.36687
1.36598
1.36498
1.36394
1.36276
1.36139
1.36002
1.35888
1.35804
1.35753
1.35751
1.35831
1.36021
1.36328
1.36739
1.3724
1.37832
1.38532
1.3936
1.40321
1.41388
1.42492
1.43532
1.44393
1.44977
1.45231
1.45154
1.44798
1.4425
1.43602
1.42937
1.42315
1.41773
1.41324
1.40968
1.40695
1.40492
1.40344
1.40239
1.40166
1.40115
1.40081
1.40057
1.40041
1.40029
1.40021
1.40016
1.40012
1.45451
1.45443
1.45144
1.4461
1.43902
1.43082
1.42202
1.41305
1.40426
1.39596
1.38838
1.38167
1.37592
1.37127
1.36773
1.36518
1.36351
1.36271
1.36266
1.36302
1.36356
1.36428
1.36508
1.36569
1.36596
1.36597
1.36576
1.36525
1.36449
1.36363
1.36268
1.36158
1.36041
1.35939
1.3587
1.35838
1.35848
1.35918
1.36079
1.3635
1.36727
1.37196
1.37747
1.38386
1.39131
1.39997
1.4098
1.42036
1.43086
1.44024
1.44744
1.45166
1.45259
1.45045
1.44592
1.4399
1.43327
1.42677
1.42087
1.41583
1.41173
1.40852
1.40609
1.4043
1.40301
1.40209
1.40146
1.40102
1.40072
1.40051
1.40036
1.40026
1.40019
1.40014
1.40011
1.45338
1.45485
1.45336
1.44932
1.44331
1.43593
1.42773
1.41914
1.41054
1.40225
1.39452
1.38749
1.38132
1.37612
1.37189
1.36858
1.36618
1.36466
1.36383
1.36344
1.36344
1.36375
1.36414
1.36438
1.36448
1.36449
1.3643
1.36384
1.36321
1.36253
1.36175
1.36088
1.36008
1.35957
1.35944
1.3597
1.36045
1.3619
1.36429
1.36772
1.37209
1.37727
1.3832
1.38999
1.39782
1.40676
1.41663
1.42685
1.43655
1.44468
1.45028
1.45279
1.45214
1.44876
1.44343
1.43704
1.43041
1.42414
1.41862
1.414
1.41031
1.40745
1.4053
1.40374
1.40261
1.40182
1.40127
1.40089
1.40063
1.40045
1.40033
1.40024
1.40018
1.40013
1.4001
1.45144
1.45444
1.45452
1.45192
1.44714
1.44075
1.43329
1.42522
1.41695
1.40881
1.40103
1.39381
1.38733
1.38169
1.37689
1.37295
1.3699
1.36767
1.36607
1.36501
1.36444
1.36422
1.36409
1.36399
1.36393
1.36385
1.36358
1.36315
1.36268
1.3622
1.36166
1.36112
1.36078
1.36082
1.36126
1.36211
1.36352
1.36569
1.36879
1.37283
1.37769
1.38325
1.38953
1.39666
1.40478
1.41385
1.42355
1.43318
1.44181
1.44844
1.45231
1.45309
1.45095
1.44649
1.44055
1.43398
1.42748
1.42155
1.41645
1.41227
1.40897
1.40645
1.40458
1.40322
1.40225
1.40157
1.4011
1.40078
1.40056
1.4004
1.40029
1.40022
1.40016
1.40012
1.40009
1.44869
1.45312
1.4548
1.45376
1.45036
1.44512
1.43856
1.43117
1.42337
1.4155
1.40781
1.40054
1.39388
1.38791
1.38266
1.37821
1.3746
1.37171
1.36945
1.36779
1.36666
1.36587
1.36528
1.36486
1.36459
1.36431
1.36395
1.36357
1.36326
1.36297
1.3627
1.36255
1.36271
1.36327
1.36425
1.36567
1.3677
1.37052
1.37422
1.37875
1.38398
1.38984
1.3964
1.40379
1.41208
1.4211
1.43038
1.43914
1.44642
1.45136
1.45341
1.4525
1.44902
1.4437
1.43736
1.43078
1.42454
1.41902
1.41438
1.41064
1.40774
1.40554
1.40392
1.40276
1.40193
1.40135
1.40095
1.40068
1.40049
1.40035
1.40026
1.40019
1.40015
1.40011
1.40008
1.44518
1.45086
1.4541
1.45469
1.45281
1.44888
1.44339
1.43685
1.42967
1.42221
1.41476
1.40758
1.40085
1.39466
1.3891
1.38428
1.38019
1.37675
1.37395
1.37178
1.37012
1.3688
1.3678
1.36708
1.36655
1.36607
1.36564
1.36533
1.36515
1.36503
1.36503
1.36529
1.36592
1.36696
1.36841
1.37035
1.37294
1.37632
1.3805
1.38539
1.39088
1.39696
1.40373
1.41128
1.41957
1.42832
1.4369
1.44447
1.45015
1.45325
1.45348
1.45102
1.44642
1.44046
1.43394
1.42752
1.42166
1.4166
1.41244
1.40914
1.40661
1.40472
1.40333
1.40234
1.40164
1.40116
1.40082
1.40059
1.40043
1.40031
1.40023
1.40017
1.40013
1.4001
1.40007
1.44104
1.44769
1.45236
1.45457
1.4543
1.45183
1.4476
1.44207
1.43568
1.42879
1.42175
1.4148
1.4081
1.40183
1.39612
1.39105
1.38658
1.38271
1.37949
1.37688
1.37473
1.37298
1.37164
1.37063
1.36983
1.36918
1.36872
1.36847
1.36838
1.36843
1.36871
1.36934
1.37038
1.37182
1.37368
1.37608
1.37916
1.38298
1.3875
1.39262
1.39828
1.40451
1.4114
1.41898
1.42708
1.43526
1.44282
1.44892
1.4528
1.454
1.45249
1.44868
1.44322
1.43689
1.4304
1.42429
1.41888
1.41433
1.41065
1.40778
1.4056
1.40398
1.40281
1.40198
1.40139
1.40098
1.4007
1.40051
1.40037
1.40027
1.40021
1.40015
1.40012
1.40009
1.40007
1.43645
1.4437
1.44956
1.45332
1.4547
1.45381
1.45099
1.44665
1.44121
1.43508
1.42859
1.42199
1.41551
1.40933
1.40359
1.39835
1.39362
1.38947
1.38594
1.38295
1.38042
1.37835
1.37672
1.37543
1.37441
1.37364
1.37316
1.37294
1.37293
1.37314
1.37368
1.37462
1.37598
1.37775
1.37997
1.38276
1.38622
1.39035
1.39509
1.40034
1.40609
1.41238
1.41927
1.42669
1.43434
1.44165
1.44787
1.45223
1.45419
1.45353
1.45048
1.44558
1.43955
1.43311
1.42684
1.42115
1.41626
1.41222
1.40902
1.40655
1.40469
1.40333
1.40235
1.40166
1.40117
1.40083
1.4006
1.40044
1.40032
1.40024
1.40018
1.40014
1.4001
1.40008
1.40006
1.43166
1.43908
1.44577
1.45088
1.45388
1.45465
1.45336
1.45037
1.44608
1.44086
1.43508
1.42901
1.42291
1.41696
1.4113
1.40601
1.40119
1.39691
1.39314
1.38986
1.38707
1.38476
1.3829
1.38138
1.38018
1.37934
1.37884
1.37862
1.37868
1.37904
1.37981
1.381
1.38261
1.38463
1.38714
1.39024
1.39396
1.39829
1.40312
1.40841
1.41416
1.42041
1.42715
1.43417
1.44105
1.44714
1.45173
1.45419
1.45422
1.45186
1.44753
1.44187
1.43557
1.42924
1.42335
1.41818
1.41383
1.41031
1.40756
1.40546
1.4039
1.40277
1.40195
1.40138
1.40098
1.4007
1.40051
1.40038
1.40028
1.40021
1.40016
1.40012
1.40009
1.40007
1.40005
1.42692
1.43411
1.44119
1.44731
1.45176
1.45417
1.45452
1.45302
1.45004
1.44593
1.44103
1.43566
1.43008
1.4245
1.41906
1.4139
1.40913
1.4048
1.4009
1.39746
1.3945
1.39203
1.38997
1.38829
1.38701
1.38611
1.38558
1.38536
1.38548
1.38599
1.38694
1.3883
1.39008
1.39229
1.39503
1.39834
1.40222
1.40661
1.41143
1.41666
1.42232
1.42839
1.43475
1.44109
1.44686
1.45142
1.45415
1.45466
1.45287
1.44908
1.44381
1.43772
1.43143
1.42542
1.42003
1.41541
1.41161
1.40859
1.40626
1.40451
1.40321
1.40228
1.40161
1.40114
1.40082
1.40059
1.40043
1.40032
1.40024
1.40018
1.40014
1.40011
1.40008
1.40006
1.40005
1.42244
1.42907
1.4361
1.44279
1.44837
1.45229
1.45428
1.4544
1.45288
1.45003
1.4462
1.4417
1.43681
1.43175
1.4267
1.42181
1.41719
1.41291
1.40901
1.40554
1.40252
1.39994
1.39777
1.396
1.39466
1.39373
1.39317
1.39297
1.39316
1.39378
1.39484
1.39631
1.39821
1.40057
1.40344
1.40686
1.41078
1.41512
1.41984
1.42492
1.43034
1.43603
1.44175
1.44705
1.45138
1.45415
1.45493
1.45357
1.45024
1.44536
1.43953
1.43333
1.42729
1.42175
1.41693
1.41289
1.40964
1.40708
1.40514
1.40368
1.40262
1.40186
1.40132
1.40094
1.40068
1.40049
1.40037
1.40027
1.40021
1.40016
1.40012
1.40009
1.40007
1.40006
1.40004
1.41841
1.42426
1.43084
1.43762
1.44389
1.44901
1.45253
1.45429
1.45434
1.45292
1.45033
1.44689
1.44285
1.43847
1.43396
1.42948
1.42514
1.42105
1.41728
1.41388
1.41088
1.40827
1.40606
1.40428
1.40293
1.40198
1.4014
1.40123
1.40148
1.40217
1.4033
1.40483
1.4068
1.40924
1.41218
1.4156
1.41943
1.42362
1.42813
1.43293
1.43794
1.44298
1.44771
1.45164
1.45425
1.45512
1.45402
1.45104
1.44651
1.44095
1.43491
1.4289
1.42329
1.41832
1.4141
1.41065
1.4079
1.40577
1.40417
1.40298
1.40212
1.40151
1.40107
1.40077
1.40056
1.40041
1.40031
1.40023
1.40018
1.40014
1.40011
1.40008
1.40006
1.40005
1.40004
1.41487
1.41988
1.42575
1.43218
1.43864
1.44453
1.44928
1.45254
1.4542
1.45433
1.45315
1.45093
1.44793
1.44441
1.44059
1.43666
1.43275
1.42899
1.42545
1.42222
1.41932
1.41678
1.41463
1.41288
1.41154
1.41059
1.41003
1.4099
1.41021
1.41094
1.41208
1.41363
1.41562
1.41807
1.42098
1.42429
1.42793
1.43186
1.43603
1.44036
1.44471
1.44878
1.45219
1.45448
1.45524
1.45424
1.4515
1.44726
1.44197
1.43612
1.43021
1.4246
1.41955
1.4152
1.41159
1.40868
1.4064
1.40465
1.40335
1.40239
1.4017
1.40121
1.40087
1.40063
1.40046
1.40034
1.40026
1.4002
1.40015
1.40012
1.40009
1.40007
1.40006
1.40004
1.40003
1.41186
1.41602
1.42107
1.42685
1.43306
1.4392
1.44473
1.4492
1.45233
1.45402
1.45435
1.4535
1.45172
1.44924
1.44629
1.44307
1.43974
1.43644
1.43326
1.4303
1.4276
1.42522
1.42319
1.42153
1.42024
1.41934
1.41883
1.41874
1.41907
1.41981
1.42094
1.42248
1.42443
1.42681
1.42957
1.43265
1.43599
1.43951
1.44316
1.44678
1.45016
1.45296
1.45479
1.4553
1.45426
1.45163
1.44761
1.44257
1.43694
1.43117
1.42562
1.42056
1.41615
1.41243
1.40939
1.40698
1.40512
1.40371
1.40266
1.4019
1.40135
1.40097
1.4007
1.40051
1.40038
1.40028
1.40022
1.40017
1.40013
1.4001
1.40008
1.40006
1.40005
1.40004
1.40003
1.40933
1.41274
1.41695
1.42193
1.42755
1.43348
1.43929
1.44452
1.44879
1.45188
1.4537
1.45431
1.45388
1.45261
1.45071
1.44837
1.44577
1.44307
1.44039
1.43782
1.43543
1.43329
1.43145
1.42993
1.42875
1.42793
1.42749
1.42744
1.42778
1.42849
1.42958
1.43105
1.4329
1.4351
1.4376
1.44033
1.4432
1.44615
1.44904
1.45169
1.45381
1.4551
1.45524
1.45403
1.45142
1.44756
1.44273
1.43733
1.43174
1.42632
1.42132
1.4169
1.41313
1.41001
1.40751
1.40555
1.40405
1.40292
1.40209
1.40149
1.40107
1.40077
1.40056
1.40041
1.40031
1.40023
1.40018
1.40014
1.40011
1.40009
1.40007
1.40005
1.40004
1.40003
1.40003
1.40726
1.40998
1.41342
1.4176
1.42245
1.42783
1.43345
1.43894
1.4439
1.44802
1.45113
1.45315
1.45411
1.45415
1.45344
1.45215
1.45045
1.44851
1.44646
1.44441
1.44245
1.44065
1.43907
1.43776
1.43674
1.43604
1.43568
1.43566
1.43599
1.43665
1.43766
1.43899
1.44064
1.44255
1.44465
1.44687
1.44911
1.45126
1.45316
1.45458
1.45526
1.45497
1.45351
1.45084
1.44708
1.44245
1.43728
1.43191
1.42667
1.42179
1.41742
1.41366
1.41051
1.40795
1.40592
1.40435
1.40316
1.40227
1.40163
1.40116
1.40084
1.40061
1.40044
1.40033
1.40025
1.40019
1.40015
1.40012
1.40009
1.40007
1.40006
1.40005
1.40004
1.40003
1.40002
1.40558
1.40774
1.41049
1.41389
1.41795
1.42261
1.4277
1.43298
1.43814
1.44285
1.44687
1.45003
1.45227
1.45361
1.45414
1.45401
1.45334
1.4523
1.45102
1.44962
1.4482
1.44685
1.44563
1.44459
1.44378
1.44323
1.44296
1.44297
1.44327
1.44386
1.44472
1.44583
1.44717
1.44865
1.45021
1.45175
1.45317
1.45433
1.45505
1.45512
1.45436
1.45261
1.44985
1.44615
1.4417
1.43678
1.43167
1.42665
1.42194
1.41769
1.41399
1.41086
1.40829
1.40623
1.40461
1.40337
1.40244
1.40175
1.40125
1.4009
1.40065
1.40047
1.40035
1.40027
1.4002
1.40016
1.40013
1.4001
1.40008
1.40006
1.40005
1.40004
1.40003
1.40003
1.40002
1.40423
1.40593
1.4081
1.41081
1.41411
1.418
1.4224
1.42717
1.43209
1.43692
1.44139
1.4453
1.44851
1.45096
1.45265
1.45366
1.45408
1.45403
1.45362
1.45298
1.45221
1.45139
1.45062
1.44993
1.44938
1.44901
1.44884
1.44887
1.44912
1.44957
1.45022
1.45102
1.45192
1.45286
1.45373
1.45447
1.45493
1.45499
1.45448
1.45327
1.45124
1.44838
1.44474
1.44048
1.43581
1.43099
1.42624
1.42177
1.41769
1.41411
1.41105
1.40851
1.40644
1.40481
1.40354
1.40258
1.40186
1.40133
1.40096
1.40069
1.4005
1.40037
1.40028
1.40021
1.40017
1.40013
1.4001
1.40008
1.40007
1.40005
1.40004
1.40003
1.40003
1.40002
1.40002
1.40318
1.40449
1.40618
1.40831
1.41094
1.41409
1.41775
1.42185
1.42626
1.4308
1.43528
1.4395
1.44327
1.44649
1.44911
1.4511
1.45251
1.45342
1.45391
1.45408
1.45402
1.45381
1.45352
1.45323
1.45299
1.45282
1.45276
1.45281
1.45298
1.45326
1.45361
1.45401
1.4544
1.4547
1.45482
1.45468
1.45416
1.45316
1.45157
1.44931
1.44638
1.44283
1.43878
1.4344
1.4299
1.42547
1.42127
1.41742
1.41401
1.41106
1.40859
1.40656
1.40493
1.40366
1.40268
1.40194
1.4014
1.401
1.40072
1.40052
1.40038
1.40029
1.40022
1.40017
1.40013
1.40011
1.40009
1.40007
1.40006
1.40005
1.40004
1.40003
1.40002
1.40002
1.40002
1.40236
1.40336
1.40466
1.40631
1.40837
1.41087
1.41383
1.41722
1.42097
1.425
1.42915
1.43327
1.43719
1.44078
1.44395
1.44664
1.44883
1.45054
1.45182
1.45275
1.45337
1.45376
1.45399
1.45412
1.45419
1.45423
1.45427
1.45432
1.45439
1.45446
1.4545
1.45447
1.4543
1.45395
1.45334
1.45238
1.45101
1.44915
1.44676
1.44383
1.44042
1.43662
1.43257
1.42842
1.42434
1.42045
1.41688
1.41367
1.41089
1.40853
1.40657
1.40498
1.40372
1.40274
1.402
1.40144
1.40104
1.40074
1.40054
1.40039
1.40029
1.40022
1.40017
1.40013
1.40011
1.40009
1.40007
1.40006
1.40005
1.40004
1.40003
1.40003
1.40002
1.40002
1.40001
1.40174
1.40249
1.40348
1.40474
1.40633
1.40828
1.41061
1.41333
1.41643
1.41982
1.42344
1.42718
1.4309
1.43449
1.43784
1.44086
1.44352
1.44579
1.44766
1.44917
1.45037
1.45129
1.45197
1.45247
1.45282
1.45306
1.45319
1.45324
1.4532
1.45305
1.45278
1.45234
1.45169
1.45077
1.44955
1.44797
1.44598
1.44357
1.44074
1.43754
1.43404
1.43035
1.42659
1.42289
1.41936
1.41608
1.41314
1.41054
1.40832
1.40646
1.40494
1.40372
1.40276
1.40202
1.40147
1.40106
1.40076
1.40055
1.4004
1.40029
1.40022
1.40017
1.40013
1.40011
1.40009
1.40007
1.40006
1.40005
1.40004
1.40003
1.40003
1.40002
1.40002
1.40001
1.40001
1.40127
1.40183
1.40257
1.40353
1.40473
1.40623
1.40804
1.41017
1.41264
1.41541
1.41843
1.42164
1.42494
1.42825
1.43147
1.4345
1.4373
1.43981
1.44201
1.44389
1.44546
1.44675
1.44777
1.44856
1.44913
1.44951
1.44972
1.44976
1.44962
1.4493
1.44877
1.44801
1.44699
1.44568
1.44406
1.4421
1.43979
1.43716
1.43424
1.43109
1.4278
1.42446
1.42116
1.41801
1.41507
1.4124
1.41003
1.40799
1.40625
1.40482
1.40365
1.40273
1.40201
1.40147
1.40106
1.40076
1.40055
1.4004
1.40029
1.40022
1.40016
1.40013
1.4001
1.40008
1.40007
1.40006
1.40005
1.40004
1.40003
1.40003
1.40002
1.40002
1.40001
1.40001
1.40001
1.40092
1.40133
1.40188
1.4026
1.40351
1.40464
1.40602
1.40767
1.40959
1.41177
1.41421
1.41686
1.41965
1.42251
1.42539
1.4282
1.43087
1.43336
1.43562
1.43763
1.43937
1.44084
1.44204
1.443
1.44371
1.44418
1.44442
1.44444
1.44424
1.4438
1.4431
1.44215
1.44093
1.43942
1.43763
1.43555
1.4332
1.43062
1.42787
1.425
1.4221
1.41922
1.41646
1.41387
1.4115
1.40938
1.40752
1.40594
1.40461
1.40353
1.40265
1.40197
1.40144
1.40104
1.40075
1.40054
1.40039
1.40028
1.40021
1.40016
1.40012
1.4001
1.40008
1.40007
1.40006
1.40005
1.40004
1.40003
1.40003
1.40002
1.40002
1.40002
1.40001
1.40001
1.40001
1.40066
1.40097
1.40137
1.4019
1.40257
1.40342
1.40446
1.40571
1.40718
1.40887
1.41079
1.41289
1.41515
1.41753
1.41996
1.4224
1.42478
1.42706
1.42918
1.43111
1.43283
1.43432
1.43556
1.43656
1.43732
1.43782
1.43807
1.43808
1.43783
1.43734
1.43659
1.43557
1.4343
1.43277
1.431
1.42901
1.42683
1.42449
1.42206
1.41959
1.41714
1.41477
1.41254
1.41047
1.40861
1.40696
1.40554
1.40434
1.40334
1.40253
1.40189
1.40139
1.40101
1.40073
1.40052
1.40037
1.40027
1.4002
1.40015
1.40011
1.40009
1.40007
1.40006
1.40005
1.40004
1.40004
1.40003
1.40003
1.40002
1.40002
1.40002
1.40001
1.40001
1.40001
1.40001
1.40048
1.4007
1.40099
1.40138
1.40188
1.4025
1.40327
1.40421
1.40532
1.4066
1.40807
1.4097
1.41149
1.41338
1.41536
1.41738
1.41939
1.42135
1.42321
1.42494
1.4265
1.42788
1.42905
1.43
1.43071
1.4312
1.43144
1.43144
1.43119
1.43069
1.42995
1.42898
1.42778
1.42637
1.42475
1.42297
1.42107
1.41907
1.41703
1.41499
1.41301
1.41112
1.40936
1.40775
1.40632
1.40507
1.404
1.40311
1.40237
1.40178
1.40131
1.40096
1.40069
1.40049
1.40035
1.40025
1.40018
1.40013
1.4001
1.40008
1.40007
1.40006
1.40005
1.40004
1.40004
1.40003
1.40003
1.40002
1.40002
1.40002
1.40001
1.40001
1.40001
1.40001
1.40001
1.40034
1.4005
1.40072
1.401
1.40136
1.40182
1.40239
1.40307
1.4039
1.40486
1.40596
1.40721
1.40858
1.41005
1.41161
1.41322
1.41484
1.41645
1.418
1.41946
1.4208
1.42199
1.42302
1.42386
1.4245
1.42492
1.42513
1.42512
1.42489
1.42444
1.42378
1.4229
1.42184
1.42061
1.41923
1.41773
1.41614
1.4145
1.41285
1.41123
1.40967
1.4082
1.40685
1.40563
1.40455
1.40362
1.40283
1.40217
1.40164
1.40122
1.40089
1.40064
1.40046
1.40032
1.40023
1.40016
1.40012
1.40009
1.40007
1.40006
1.40005
1.40004
1.40004
1.40003
1.40003
1.40002
1.40002
1.40002
1.40002
1.40001
1.40001
1.40001
1.40001
1.40001
1.40001
1.40025
1.40037
1.40052
1.40072
1.40099
1.40132
1.40173
1.40223
1.40284
1.40354
1.40437
1.40529
1.40632
1.40744
1.40863
1.40988
1.41115
1.41242
1.41366
1.41484
1.41594
1.41692
1.41777
1.41847
1.41901
1.41937
1.41954
1.41952
1.41932
1.41893
1.41836
1.41763
1.41674
1.41571
1.41458
1.41336
1.41208
1.41079
1.40949
1.40824
1.40704
1.40593
1.40491
1.404
1.4032
1.40252
1.40195
1.40148
1.40111
1.40081
1.40058
1.40041
1.40029
1.4002
1.40014
1.4001
1.40007
1.40006
1.40005
1.40004
1.40004
1.40003
1.40003
1.40003
1.40002
1.40002
1.40002
1.40002
1.40001
1.40001
1.40001
1.40001
1.40001
1.40001
1.40001
1.40018
1.40027
1.40038
1.40053
1.40071
1.40095
1.40125
1.40161
1.40205
1.40257
1.40316
1.40385
1.40461
1.40544
1.40634
1.40728
1.40825
1.40922
1.41018
1.4111
1.41196
1.41275
1.41342
1.41398
1.41441
1.41469
1.41483
1.41481
1.41463
1.41431
1.41384
1.41325
1.41253
1.41171
1.41081
1.40985
1.40886
1.40786
1.40687
1.40592
1.40502
1.40419
1.40344
1.40278
1.4022
1.40172
1.40131
1.40098
1.40072
1.40052
1.40036
1.40025
1.40017
1.40012
1.40008
1.40006
1.40004
1.40004
1.40003
1.40003
1.40003
1.40002
1.40002
1.40002
1.40002
1.40002
1.40001
1.40001
1.40001
1.40001
1.40001
1.40001
1.40001
1.40001
1.40001
1.40014
1.4002
1.40028
1.40039
1.40052
1.40069
1.4009
1.40117
1.40148
1.40185
1.40228
1.40277
1.40333
1.40394
1.4046
1.40529
1.40601
1.40674
1.40747
1.40817
1.40882
1.40942
1.40994
1.41037
1.4107
1.41091
1.41101
1.41099
1.41085
1.41059
1.41022
1.40974
1.40918
1.40854
1.40785
1.40712
1.40636
1.40561
1.40487
1.40416
1.4035
1.4029
1.40236
1.40188
1.40147
1.40113
1.40085
1.40062
1.40045
1.40031
1.40021
1.40014
1.40009
1.40006
1.40004
1.40003
1.40002
1.40002
1.40002
1.40002
1.40002
1.40002
1.40002
1.40002
1.40001
1.40001
1.40001
1.40001
1.40001
1.40001
1.40001
1.40001
1.40001
1.40001
1.40001
1.4001
1.40015
1.40021
1.40028
1.40038
1.40051
1.40066
1.40084
1.40107
1.40133
1.40164
1.40199
1.40239
1.40283
1.4033
1.40381
1.40433
1.40487
1.4054
1.40592
1.4064
1.40685
1.40723
1.40755
1.4078
1.40796
1.40802
1.408
1.40788
1.40768
1.40739
1.40702
1.40659
1.40611
1.40558
1.40503
1.40447
1.40392
1.40337
1.40286
1.40238
1.40195
1.40157
1.40123
1.40095
1.40071
1.40052
1.40037
1.40026
1.40017
1.40011
1.40007
1.40004
1.40003
1.40002
1.40001
1.40001
1.40001
1.40001
1.40001
1.40001
1.40001
1.40001
1.40001
1.40001
1.40001
1.40001
1.40001
1.40001
1.40001
1.40001
1.40001
1.40001
1.40001
1.40001
1.40009
1.40012
1.40016
1.40022
1.40028
1.40037
1.40048
1.40061
1.40077
1.40095
1.40117
1.40143
1.40171
1.40201
1.40235
1.40272
1.40309
1.40348
1.40386
1.40423
1.40459
1.40491
1.40518
1.40541
1.40559
1.4057
1.40574
1.40572
1.40562
1.40546
1.40524
1.40497
1.40464
1.40428
1.40389
1.40349
1.40308
1.40267
1.40228
1.40192
1.40158
1.40127
1.401
1.40077
1.40058
1.40043
1.4003
1.40021
1.40013
1.40008
1.40004
1.40002
1.40001
1.4
1.4
1.4
1.4
1.4
1.40001
1.40001
1.40001
1.40001
1.40001
1.40001
1.40001
1.40001
1.40001
1.40001
1.40001
1.40001
1.40001
1.40001
1.40001
1.40001
1.40001
1.40006
1.40009
1.40012
1.40016
1.40022
1.40028
1.40036
1.40045
1.40056
1.40069
1.40084
1.40102
1.40122
1.40144
1.40167
1.40192
1.40219
1.40246
1.40273
1.40299
1.40324
1.40347
1.40367
1.40383
1.40394
1.40402
1.40404
1.40402
1.40394
1.40382
1.40365
1.40344
1.4032
1.40294
1.40265
1.40236
1.40206
1.40177
1.4015
1.40124
1.40101
1.4008
1.40062
1.40046
1.40033
1.40023
1.40015
1.40009
1.40005
1.40002
1.4
1.39999
1.39999
1.39999
1.39999
1.39999
1.4
1.4
1.4
1.40001
1.40001
1.40001
1.40001
1.40001
1.40001
1.40001
1.40001
1.40001
1.40001
1.40001
1.40001
1.40001
1.40001
1.40001
1.40001
1.40006
1.40007
1.4001
1.40013
1.40017
1.40021
1.40027
1.40033
1.40041
1.4005
1.40061
1.40073
1.40087
1.40102
1.40119
1.40136
1.40154
1.40173
1.40192
1.4021
1.40227
1.40242
1.40255
1.40266
1.40274
1.40279
1.4028
1.40277
1.40271
1.40262
1.40249
1.40234
1.40216
1.40197
1.40176
1.40155
1.40135
1.40114
1.40095
1.40077
1.40061
1.40047
1.40035
1.40025
1.40017
1.40011
1.40006
1.40002
1.4
1.39999
1.39998
1.39998
1.39998
1.39998
1.39999
1.39999
1.39999
1.4
1.4
1.4
1.40001
1.40001
1.40001
1.40001
1.40001
1.40001
1.40001
1.40001
1.40001
1.40001
1.40001
1.40001
1.40001
1.40001
1.40001
1.40005
1.40006
1.40008
1.4001
1.40013
1.40016
1.4002
1.40025
1.40031
1.40037
1.40045
1.40053
1.40062
1.40072
1.40084
1.40096
1.40109
1.40121
1.40133
1.40146
1.40157
1.40168
1.40176
1.40183
1.40188
1.40191
1.40191
1.40188
1.40183
1.40176
1.40167
1.40155
1.40143
1.40129
1.40114
1.40099
1.40085
1.40071
1.40058
1.40046
1.40035
1.40026
1.40018
1.40011
1.40007
1.40003
1.4
1.39998
1.39997
1.39997
1.39997
1.39997
1.39997
1.39998
1.39998
1.39999
1.39999
1.4
1.4
1.4
1.4
1.4
1.40001
1.40001
1.40001
1.40001
1.40001
1.40001
1.40001
1.40001
1.40001
1.40001
1.40001
1.40001
1.40001
1.40004
1.40005
1.40007
1.40008
1.4001
1.40013
1.40016
1.40019
1.40023
1.40028
1.40033
1.40039
1.40046
1.40053
1.4006
1.40067
1.40076
1.40085
1.40093
1.40101
1.40108
1.40115
1.4012
1.40125
1.40128
1.40129
1.40128
1.40126
1.40122
1.40116
1.40109
1.401
1.40091
1.40082
1.40071
1.40061
1.40051
1.40041
1.40032
1.40025
1.40018
1.40012
1.40007
1.40003
1.4
1.39998
1.39997
1.39996
1.39996
1.39996
1.39996
1.39997
1.39997
1.39998
1.39998
1.39999
1.39999
1.4
1.4
1.4
1.4
1.40001
1.40001
1.40001
1.40001
1.40001
1.40001
1.40001
1.40001
1.40001
1.40001
1.40001
1.40001
1.40001
1.40001
1.40003
1.40004
1.40005
1.40007
1.40008
1.4001
1.40012
1.40015
1.40018
1.40021
1.40025
1.40029
1.40033
1.40038
1.40043
1.40049
1.40054
1.40059
1.40064
1.4007
1.40075
1.40079
1.40082
1.40084
1.40085
1.40086
1.40085
1.40082
1.40079
1.40075
1.4007
1.40064
1.40057
1.4005
1.40042
1.40035
1.40029
1.40022
1.40016
1.40011
1.40007
1.40003
1.4
1.39998
1.39997
1.39996
1.39995
1.39995
1.39995
1.39996
1.39996
1.39997
1.39998
1.39998
1.39999
1.39999
1.4
1.4
1.4
1.4
1.4
1.4
1.40001
1.40001
1.40001
1.40001
1.40001
1.40001
1.40001
1.40001
1.40001
1.40001
1.40001
1.40001
1.40001
1.40003
1.40004
1.40004
1.40006
1.40007
1.40008
1.4001
1.40012
1.40014
1.40016
1.40019
1.40022
1.40025
1.40028
1.40031
1.40035
1.40039
1.40042
1.40045
1.40048
1.40051
1.40054
1.40055
1.40056
1.40057
1.40056
1.40055
1.40053
1.40051
1.40047
1.40043
1.40039
1.40034
1.40029
1.40024
1.40019
1.40014
1.4001
1.40006
1.40003
1.4
1.39998
1.39997
1.39996
1.39995
1.39995
1.39995
1.39995
1.39995
1.39996
1.39997
1.39997
1.39998
1.39998
1.39999
1.39999
1.4
1.4
1.4
1.4
1.4
1.4
1.4
1.40001
1.40001
1.40001
1.40001
1.40001
1.40001
1.40001
1.40001
1.40001
1.40001
1.40001
1.40001
1.40002
1.40003
1.40004
1.40004
1.40006
1.40007
1.40008
1.40009
1.40011
1.40013
1.40014
1.40016
1.40019
1.40021
1.40023
1.40025
1.40028
1.4003
1.40032
1.40034
1.40035
1.40036
1.40037
1.40038
1.40038
1.40037
1.40035
1.40034
1.40031
1.40029
1.40026
1.40022
1.40019
1.40016
1.40012
1.40009
1.40006
1.40003
1.40001
1.39999
1.39997
1.39996
1.39995
1.39995
1.39994
1.39994
1.39995
1.39995
1.39996
1.39996
1.39997
1.39998
1.39998
1.39999
1.39999
1.39999
1.4
1.4
1.4
1.4
1.4
1.4
1.4
1.4
1.4
1.4
1.40001
1.40001
1.40001
1.40001
1.40001
1.40001
1.40001
1.40001
1.40001
1.40002
1.40002
1.40003
1.40004
1.40004
1.40005
1.40007
1.40008
1.40008
1.4001
1.40012
1.40013
1.40014
1.40016
1.40017
1.40019
1.4002
1.40021
1.40023
1.40024
1.40025
1.40025
1.40025
1.40025
1.40025
1.40024
1.40023
1.40021
1.40019
1.40017
1.40015
1.40012
1.4001
1.40007
1.40005
1.40003
1.40001
1.39999
1.39997
1.39996
1.39995
1.39995
1.39995
1.39995
1.39995
1.39995
1.39995
1.39996
1.39996
1.39997
1.39997
1.39998
1.39998
1.39999
1.39999
1.4
1.4
1.4
1.4
1.4
1.4
1.4
1.4
1.40001
1.40001
1.40001
1.4
1.4
1.40001
1.40001
1.40001
1.40001
1.40001
1.40001
1.40001
1.40002
1.40002
1.40002
1.40003
1.40004
1.40004
1.40005
1.40006
1.40007
1.40008
1.40009
1.4001
1.40011
1.40012
1.40013
1.40014
1.40015
1.40016
1.40016
1.40017
1.40017
1.40017
1.40017
1.40017
1.40016
1.40015
1.40014
1.40013
1.40012
1.4001
1.40008
1.40006
1.40004
1.40003
1.40001
1.39999
1.39998
1.39997
1.39996
1.39995
1.39995
1.39995
1.39995
1.39995
1.39995
1.39995
1.39996
1.39996
1.39997
1.39998
1.39998
1.39998
1.39999
1.39999
1.39999
1.4
1.4
1.4
1.4
1.4
1.4
1.4
1.4
1.4
1.40001
1.40001
1.40001
1.40001
1.40001
1.4
1.4
1.4
1.40001
1.40001
1.40001
1.40001
1.40002
1.40003
1.40002
1.40002
1.40004
1.40005
1.40005
1.40005
1.40006
1.40007
1.40008
1.40009
1.40009
1.4001
1.40011
1.40011
1.40012
1.40012
1.40012
1.40012
1.40012
1.40012
1.40012
1.40011
1.4001
1.40009
1.40008
1.40007
1.40005
1.40004
1.40003
1.40001
1.4
1.39999
1.39998
1.39997
1.39996
1.39996
1.39995
1.39995
1.39995
1.39995
1.39995
1.39996
1.39996
1.39997
1.39997
1.39998
1.39998
1.39998
1.39999
1.39999
1.39999
1.4
1.4
1.4
1.4
1.4
1.4
1.4
1.4
1.4
1.4
1.4
1.4
1.4
1.40001
1.40001
1.40001
1.40001
1.40001
1.40001
1.40001
1.4
1.40001
1.40001
1.40002
1.40002
1.40003
1.40003
1.40003
1.40004
1.40005
1.40005
1.40006
1.40006
1.40007
1.40007
1.40008
1.40008
1.40009
1.40009
1.40009
1.40009
1.40009
1.40009
1.40008
1.40008
1.40007
1.40007
1.40006
1.40005
1.40004
1.40003
1.40002
1.40001
1.4
1.39999
1.39998
1.39997
1.39997
1.39996
1.39996
1.39996
1.39996
1.39996
1.39996
1.39996
1.39997
1.39997
1.39997
1.39998
1.39998
1.39998
1.39999
1.39999
1.39999
1.4
1.4
1.4
1.4
1.4
1.4
1.4
1.4
1.4
1.4
1.40001
1.40001
1.4
1.4
1.4
1.4
1.4
1.40001
1.40001
1.40001
1.40001
1.40001
1.40001
1.40002
1.40001
1.40002
1.40002
1.40003
1.40003
1.40003
1.40004
1.40004
1.40004
1.40005
1.40005
1.40006
1.40006
1.40007
1.40007
1.40007
1.40007
1.40007
1.40007
1.40006
1.40006
1.40006
1.40005
1.40004
1.40004
1.40003
1.40002
1.40001
1.4
1.4
1.39999
1.39998
1.39998
1.39997
1.39997
1.39997
1.39996
1.39996
1.39996
1.39996
1.39997
1.39997
1.39997
1.39998
1.39998
1.39998
1.39999
1.39999
1.39999
1.39999
1.4
1.4
1.4
1.4
1.4
1.4
1.4
1.4
1.4
1.4
1.4
1.4
1.40001
1.40001
1.40001
1.40001
1.40001
1.40001
1.40001
1.40001
1.4
1.40001
1.4
1.40001
1.40001
1.40002
1.40002
1.40002
1.40002
1.40002
1.40003
1.40003
1.40003
1.40004
1.40004
1.40004
1.40005
1.40005
1.40005
1.40005
1.40005
1.40005
1.40005
1.40005
1.40005
1.40004
1.40004
1.40004
1.40003
1.40002
1.40002
1.40001
1.40001
1.4
1.39999
1.39999
1.39998
1.39998
1.39997
1.39997
1.39997
1.39997
1.39997
1.39997
1.39997
1.39998
1.39998
1.39998
1.39998
1.39998
1.39999
1.39999
1.39999
1.39999
1.4
1.4
1.4
1.4
1.4
1.4
1.4
1.4
1.4
1.4
1.4
1.4
1.4
1.4
1.4
1.4
1.40001
1.40001
1.40001
1.40001
1.40001
1.40001
1.40001
1.40001
1.40001
1.40001
1.40001
1.40001
1.40002
1.40002
1.40002
1.40002
1.40002
1.40003
1.40003
1.40003
1.40003
1.40004
1.40004
1.40004
1.40004
1.40004
1.40004
1.40004
1.40004
1.40004
1.40003
1.40003
1.40002
1.40002
1.40002
1.40001
1.40001
1.4
1.4
1.39999
1.39999
1.39998
1.39998
1.39998
1.39998
1.39998
1.39998
1.39998
1.39998
1.39998
1.39998
1.39998
1.39998
1.39999
1.39999
1.39999
1.39999
1.39999
1.4
1.4
1.4
1.4
1.4
1.4
1.4
1.4
1.4
1.4
1.4
1.4
1.4
1.40001
1.40001
1.40001
1.4
1.4
1.4
1.4
1.4
1.40001
1.40001
1.40001
1.4
1.40001
1.40001
1.40001
1.40001
1.40001
1.40001
1.40002
1.40002
1.40002
1.40002
1.40002
1.40003
1.40003
1.40003
1.40003
1.40003
1.40003
1.40003
1.40003
1.40003
1.40003
1.40003
1.40003
1.40002
1.40002
1.40001
1.40001
1.40001
1.40001
1.4
1.4
1.39999
1.39999
1.39999
1.39999
1.39998
1.39998
1.39998
1.39998
1.39998
1.39998
1.39999
1.39999
1.39999
1.39999
1.39999
1.39999
1.39999
1.4
1.4
1.4
1.4
1.4
1.4
1.4
1.4
1.4
1.4
1.4
1.4
1.4
1.4
1.4
1.4
1.4
1.40001
1.40001
1.40001
1.40001
1.40001
1.40001
1.40001
1.4
1.40001
1.40001
1.40001
1.40001
1.40001
1.40001
1.40001
1.40001
1.40001
1.40001
1.40002
1.40002
1.40002
1.40002
1.40002
1.40002
1.40002
1.40002
1.40003
1.40002
1.40002
1.40003
1.40002
1.40002
1.40002
1.40002
1.40002
1.40001
1.40001
1.4
1.4
1.4
1.4
1.4
1.39999
1.39999
1.39999
1.39999
1.39999
1.39999