/*--------------------------------*- C++ -*----------------------------------*\
  =========                 |
  \\      /  F ield         | OpenFOAM: The Open Source CFD Toolbox
   \\    /   O peration     | Website:  https://openfoam.org
    \\  /    A nd           | Version:  6
     \\/     M anipulation  |
\*---------------------------------------------------------------------------*/
FoamFile
{
    version     2.0;
    format      ascii;
    class       volVectorField;
    location    "4.07";
    object      U;
}
// * * * * * * * * * * * * * * * * * * * * * * * * * * * * * * * * * * * * * //

dimensions      [0 1 -1 0 0 0 0];

internalField   nonuniform List<vector> 
5625
(
(0.865696 0.431226 0)
(0.869186 0.43168 0)
(0.873894 0.432423 0)
(0.879569 0.433169 0)
(0.886032 0.43361 0)
(0.893168 0.433429 0)
(0.900938 0.432306 0)
(0.909444 0.429886 0)
(0.918898 0.425817 0)
(0.929555 0.419812 0)
(0.941699 0.411693 0)
(0.955669 0.401394 0)
(0.971819 0.388985 0)
(0.990541 0.374676 0)
(1.01229 0.358907 0)
(1.0375 0.342476 0)
(1.06641 0.326494 0)
(1.09877 0.312286 0)
(1.13375 0.301312 0)
(1.17028 0.295026 0)
(1.20725 0.294636 0)
(1.2431 0.300878 0)
(1.27594 0.313897 0)
(1.30431 0.333364 0)
(1.32728 0.35863 0)
(1.34375 0.388551 0)
(1.35261 0.421374 0)
(1.35347 0.455229 0)
(1.34666 0.488623 0)
(1.33269 0.520219 0)
(1.31197 0.548445 0)
(1.28508 0.571731 0)
(1.25294 0.589055 0)
(1.21687 0.600136 0)
(1.17862 0.605228 0)
(1.13993 0.604924 0)
(1.10228 0.600073 0)
(1.06671 0.59164 0)
(1.03403 0.580547 0)
(1.00495 0.567599 0)
(0.979943 0.553512 0)
(0.959152 0.538964 0)
(0.942402 0.524569 0)
(0.929355 0.510811 0)
(0.919689 0.497994 0)
(0.913173 0.486254 0)
(0.909623 0.475614 0)
(0.908785 0.466059 0)
(0.910233 0.457595 0)
(0.913323 0.450284 0)
(0.917226 0.444233 0)
(0.921049 0.439561 0)
(0.92399 0.436339 0)
(0.925484 0.434545 0)
(0.925305 0.434037 0)
(0.923558 0.434565 0)
(0.920605 0.435815 0)
(0.916931 0.437466 0)
(0.913014 0.439243 0)
(0.909244 0.440942 0)
(0.905874 0.442441 0)
(0.903032 0.443686 0)
(0.900744 0.444671 0)
(0.898971 0.445421 0)
(0.897641 0.445973 0)
(0.896669 0.446368 0)
(0.895975 0.446643 0)
(0.895488 0.446832 0)
(0.89515 0.446958 0)
(0.894919 0.447042 0)
(0.894761 0.447097 0)
(0.894653 0.447133 0)
(0.894579 0.447156 0)
(0.894527 0.447171 0)
(0.894491 0.44718 0)
(0.865163 0.430367 0)
(0.86805 0.430673 0)
(0.872221 0.431401 0)
(0.877396 0.432292 0)
(0.883387 0.433055 0)
(0.890064 0.433396 0)
(0.897371 0.43302 0)
(0.905352 0.431617 0)
(0.914151 0.428885 0)
(0.923975 0.424579 0)
(0.935093 0.41851 0)
(0.947807 0.410575 0)
(0.962407 0.400815 0)
(0.979204 0.389431 0)
(0.99855 0.376851 0)
(1.02075 0.363713 0)
(1.0459 0.350814 0)
(1.07379 0.339188 0)
(1.10392 0.330099 0)
(1.13564 0.324774 0)
(1.16786 0.324156 0)
(1.19906 0.328872 0)
(1.22777 0.339223 0)
(1.25291 0.35511 0)
(1.27336 0.375943 0)
(1.28785 0.400631 0)
(1.2956 0.427788 0)
(1.29654 0.456084 0)
(1.29082 0.484294 0)
(1.27852 0.511016 0)
(1.25992 0.534695 0)
(1.23566 0.554058 0)
(1.20679 0.568444 0)
(1.17468 0.577718 0)
(1.14091 0.582063 0)
(1.10697 0.581912 0)
(1.07404 0.577925 0)
(1.04299 0.570868 0)
(1.01457 0.561465 0)
(0.989396 0.550367 0)
(0.967877 0.53819 0)
(0.950094 0.525543 0)
(0.935864 0.512976 0)
(0.924896 0.50091 0)
(0.916944 0.489599 0)
(0.911838 0.479153 0)
(0.909419 0.469595 0)
(0.90943 0.46094 0)
(0.911421 0.45324 0)
(0.914728 0.446606 0)
(0.918533 0.441187 0)
(0.92199 0.437124 0)
(0.924385 0.434488 0)
(0.92527 0.43324 0)
(0.924531 0.43321 0)
(0.92236 0.434124 0)
(0.919161 0.435655 0)
(0.915417 0.437489 0)
(0.911572 0.439364 0)
(0.907965 0.441103 0)
(0.904804 0.442602 0)
(0.902177 0.443827 0)
(0.900087 0.444785 0)
(0.898483 0.445506 0)
(0.897288 0.446033 0)
(0.896421 0.446408 0)
(0.895804 0.446669 0)
(0.895372 0.446847 0)
(0.895073 0.446967 0)
(0.894868 0.447046 0)
(0.894727 0.447098 0)
(0.894631 0.447132 0)
(0.894564 0.447155 0)
(0.894518 0.44717 0)
(0.894485 0.447179 0)
(0.86488 0.429587 0)
(0.867112 0.429675 0)
(0.870702 0.430306 0)
(0.875352 0.431244 0)
(0.880846 0.432219 0)
(0.887033 0.432967 0)
(0.893841 0.433208 0)
(0.901285 0.43266 0)
(0.909448 0.431065 0)
(0.918476 0.428205 0)
(0.928595 0.423896 0)
(0.940061 0.41803 0)
(0.953137 0.410627 0)
(0.968097 0.40187 0)
(0.985196 0.392088 0)
(1.00461 0.381743 0)
(1.02638 0.371478 0)
(1.05038 0.362216 0)
(1.07629 0.354984 0)
(1.10353 0.350667 0)
(1.13108 0.350015 0)
(1.15778 0.353686 0)
(1.1826 0.362041 0)
(1.20448 0.37496 0)
(1.22217 0.391905 0)
(1.23464 0.412063 0)
(1.24146 0.434453 0)
(1.24249 0.458006 0)
(1.23752 0.481534 0)
(1.22649 0.50368 0)
(1.20977 0.523136 0)
(1.18815 0.538996 0)
(1.16267 0.55083 0)
(1.13461 0.558518 0)
(1.1053 0.562144 0)
(1.07598 0.562016 0)
(1.04757 0.558655 0)
(1.02085 0.552662 0)
(0.996486 0.544608 0)
(0.975031 0.535024 0)
(0.95681 0.524446 0)
(0.941854 0.513417 0)
(0.929985 0.502423 0)
(0.920971 0.49182 0)
(0.914634 0.481813 0)
(0.910855 0.472488 0)
(0.90949 0.463878 0)
(0.910266 0.456029 0)
(0.912704 0.449037 0)
(0.916127 0.44306 0)
(0.919735 0.438279 0)
(0.922745 0.434846 0)
(0.924544 0.43282 0)
(0.924807 0.432132 0)
(0.923531 0.432578 0)
(0.920984 0.43386 0)
(0.917597 0.435646 0)
(0.913837 0.43763 0)
(0.910106 0.439576 0)
(0.906692 0.441328 0)
(0.903754 0.442808 0)
(0.901349 0.443998 0)
(0.899457 0.444917 0)
(0.898018 0.445603 0)
(0.896955 0.446101 0)
(0.896187 0.446453 0)
(0.895642 0.446698 0)
(0.895262 0.446865 0)
(0.895 0.446977 0)
(0.89482 0.447051 0)
(0.894696 0.447101 0)
(0.89461 0.447133 0)
(0.894551 0.447155 0)
(0.894508 0.447169 0)
(0.894478 0.447179 0)
(0.864889 0.428932 0)
(0.866427 0.428735 0)
(0.869383 0.429184 0)
(0.873473 0.430071 0)
(0.878447 0.431156 0)
(0.884126 0.432188 0)
(0.890419 0.432908 0)
(0.897312 0.433059 0)
(0.904841 0.432415 0)
(0.913108 0.430766 0)
(0.922284 0.427944 0)
(0.932582 0.423854 0)
(0.944227 0.418512 0)
(0.957431 0.412036 0)
(0.972389 0.404642 0)
(0.989239 0.396693 0)
(1.00802 0.388792 0)
(1.02864 0.381697 0)
(1.05078 0.37612 0)
(1.0739 0.372725 0)
(1.09723 0.372241 0)
(1.11994 0.375284 0)
(1.14115 0.382083 0)
(1.15976 0.392501 0)
(1.17472 0.406205 0)
(1.18535 0.422651 0)
(1.19126 0.441044 0)
(1.19207 0.460408 0)
(1.18745 0.479653 0)
(1.17746 0.497637 0)
(1.16263 0.513378 0)
(1.14372 0.526243 0)
(1.12166 0.535892 0)
(1.09755 0.542162 0)
(1.07251 0.545066 0)
(1.04752 0.544842 0)
(1.02336 0.541902 0)
(1.00067 0.536712 0)
(0.980087 0.529717 0)
(0.962088 0.521362 0)
(0.946915 0.512117 0)
(0.934559 0.502461 0)
(0.924861 0.492813 0)
(0.917649 0.483465 0)
(0.912808 0.474578 0)
(0.910255 0.466221 0)
(0.909847 0.458441 0)
(0.911282 0.451318 0)
(0.914055 0.444997 0)
(0.917478 0.439672 0)
(0.920783 0.435547 0)
(0.923268 0.432771 0)
(0.924435 0.431375 0)
(0.92408 0.431252 0)
(0.922306 0.43216 0)
(0.919442 0.433783 0)
(0.91593 0.435788 0)
(0.91221 0.437888 0)
(0.908635 0.439871 0)
(0.905439 0.44161 0)
(0.902738 0.443052 0)
(0.900557 0.444194 0)
(0.89886 0.445066 0)
(0.897581 0.445711 0)
(0.896642 0.446175 0)
(0.895968 0.446503 0)
(0.895492 0.44673 0)
(0.895161 0.446884 0)
(0.894932 0.446988 0)
(0.894775 0.447057 0)
(0.894666 0.447104 0)
(0.89459 0.447134 0)
(0.894537 0.447155 0)
(0.8945 0.447169 0)
(0.894473 0.447178 0)
(0.865219 0.428453 0)
(0.866036 0.427901 0)
(0.868321 0.428087 0)
(0.871804 0.428834 0)
(0.876227 0.42992 0)
(0.881385 0.431115 0)
(0.887157 0.432175 0)
(0.893494 0.432871 0)
(0.900396 0.432993 0)
(0.907933 0.432344 0)
(0.916234 0.430766 0)
(0.925462 0.428176 0)
(0.935775 0.424569 0)
(0.94734 0.420008 0)
(0.960335 0.414653 0)
(0.974888 0.408835 0)
(0.991002 0.403042 0)
(1.00855 0.397795 0)
(1.02728 0.393611 0)
(1.04677 0.391116 0)
(1.06645 0.390976 0)
(1.08561 0.393611 0)
(1.10341 0.399141 0)
(1.11895 0.40755 0)
(1.13146 0.418677 0)
(1.1404 0.432063 0)
(1.14528 0.446994 0)
(1.14562 0.46264 0)
(1.14122 0.478109 0)
(1.13231 0.49251 0)
(1.11944 0.505122 0)
(1.10323 0.515464 0)
(1.08447 0.523221 0)
(1.06408 0.528199 0)
(1.04298 0.530384 0)
(1.02196 0.529973 0)
(1.00166 0.527292 0)
(0.982672 0.522695 0)
(0.965549 0.516529 0)
(0.950697 0.50917 0)
(0.938286 0.501034 0)
(0.928278 0.492542 0)
(0.920544 0.484041 0)
(0.914969 0.475764 0)
(0.911492 0.467833 0)
(0.910048 0.46031 0)
(0.910479 0.453262 0)
(0.912451 0.446809 0)
(0.915428 0.441139 0)
(0.918726 0.436477 0)
(0.921626 0.433036 0)
(0.923518 0.430942 0)
(0.924029 0.43019 0)
(0.923079 0.430624 0)
(0.920863 0.43197 0)
(0.917753 0.433896 0)
(0.914186 0.436077 0)
(0.910562 0.438252 0)
(0.90718 0.440238 0)
(0.904222 0.44194 0)
(0.901764 0.443325 0)
(0.899807 0.444408 0)
(0.8983 0.445225 0)
(0.897175 0.445825 0)
(0.896354 0.446254 0)
(0.895767 0.446555 0)
(0.895354 0.446763 0)
(0.895068 0.446904 0)
(0.894869 0.447 0)
(0.894733 0.447064 0)
(0.894638 0.447107 0)
(0.894572 0.447136 0)
(0.894525 0.447156 0)
(0.894491 0.447169 0)
(0.894466 0.447178 0)
(0.865899 0.4282 0)
(0.865983 0.427234 0)
(0.867561 0.42708 0)
(0.870399 0.427591 0)
(0.874235 0.428573 0)
(0.878849 0.429815 0)
(0.884094 0.431084 0)
(0.889879 0.432172 0)
(0.896175 0.432881 0)
(0.903024 0.433031 0)
(0.910515 0.43247 0)
(0.918743 0.431116 0)
(0.927827 0.428944 0)
(0.937927 0.425986 0)
(0.949193 0.42238 0)
(0.961685 0.41839 0)
(0.975371 0.414352 0)
(0.99018 0.410629 0)
(1.00594 0.407696 0)
(1.02229 0.406123 0)
(1.03872 0.406369 0)
(1.05463 0.40868 0)
(1.06936 0.41322 0)
(1.08221 0.420091 0)
(1.09257 0.429142 0)
(1.09988 0.439926 0)
(1.10366 0.451865 0)
(1.10352 0.464331 0)
(1.09947 0.476625 0)
(1.09177 0.488049 0)
(1.08084 0.498058 0)
(1.06718 0.506263 0)
(1.05145 0.512366 0)
(1.03444 0.51617 0)
(1.01689 0.517663 0)
(0.999428 0.517014 0)
(0.982602 0.514475 0)
(0.966947 0.510309 0)
(0.952942 0.504789 0)
(0.940906 0.49824 0)
(0.93095 0.491032 0)
(0.923028 0.483524 0)
(0.917044 0.475999 0)
(0.912938 0.468631 0)
(0.910684 0.461515 0)
(0.910218 0.454715 0)
(0.911355 0.448327 0)
(0.913723 0.442511 0)
(0.916764 0.437494 0)
(0.919809 0.43352 0)
(0.922206 0.430794 0)
(0.923454 0.429407 0)
(0.923309 0.429301 0)
(0.921809 0.430272 0)
(0.919222 0.432016 0)
(0.915944 0.434195 0)
(0.912391 0.436504 0)
(0.908915 0.438711 0)
(0.905759 0.440668 0)
(0.903055 0.442308 0)
(0.900845 0.443621 0)
(0.899106 0.444633 0)
(0.897782 0.44539 0)
(0.8968 0.445942 0)
(0.896089 0.446334 0)
(0.895583 0.446609 0)
(0.895229 0.446798 0)
(0.894982 0.446926 0)
(0.894812 0.447013 0)
(0.894694 0.447072 0)
(0.894612 0.447112 0)
(0.894554 0.447138 0)
(0.894513 0.447157 0)
(0.894483 0.44717 0)
(0.894461 0.447179 0)
(0.866949 0.428221 0)
(0.866302 0.426798 0)
(0.867152 0.426226 0)
(0.869307 0.42641 0)
(0.87252 0.42719 0)
(0.876565 0.428361 0)
(0.881269 0.429714 0)
(0.886509 0.431048 0)
(0.892226 0.43218 0)
(0.898428 0.432933 0)
(0.905156 0.433176 0)
(0.912465 0.432822 0)
(0.920463 0.431823 0)
(0.929284 0.430188 0)
(0.939005 0.428026 0)
(0.949639 0.425529 0)
(0.961198 0.422929 0)
(0.973657 0.42053 0)
(0.986837 0.418744 0)
(1.0004 0.417982 0)
(1.01395 0.41853 0)
(1.02704 0.420615 0)
(1.03913 0.424458 0)
(1.04964 0.430137 0)
(1.05804 0.43745 0)
(1.06384 0.446036 0)
(1.06664 0.455494 0)
(1.06624 0.465351 0)
(1.06268 0.475037 0)
(1.05619 0.484008 0)
(1.04705 0.491849 0)
(1.03569 0.498235 0)
(1.02268 0.50289 0)
(1.00867 0.505645 0)
(0.994257 0.506504 0)
(0.979935 0.505606 0)
(0.966189 0.503133 0)
(0.953493 0.499278 0)
(0.942248 0.494266 0)
(0.932691 0.488384 0)
(0.924885 0.481956 0)
(0.918787 0.475283 0)
(0.914344 0.468585 0)
(0.911536 0.461989 0)
(0.910355 0.45557 0)
(0.910726 0.449408 0)
(0.912423 0.443632 0)
(0.915036 0.438445 0)
(0.917993 0.434103 0)
(0.92066 0.430854 0)
(0.922469 0.428876 0)
(0.923044 0.428209 0)
(0.922269 0.428736 0)
(0.920284 0.430207 0)
(0.917411 0.432295 0)
(0.91405 0.43467 0)
(0.91058 0.437053 0)
(0.907298 0.439249 0)
(0.904393 0.441146 0)
(0.901952 0.442703 0)
(0.899986 0.443931 0)
(0.898459 0.444867 0)
(0.897307 0.445559 0)
(0.896459 0.44606 0)
(0.895849 0.446414 0)
(0.895417 0.446662 0)
(0.895115 0.446832 0)
(0.894905 0.446948 0)
(0.89476 0.447027 0)
(0.894659 0.44708 0)
(0.894588 0.447116 0)
(0.894537 0.447141 0)
(0.894501 0.447158 0)
(0.894475 0.44717 0)
(0.894455 0.447179 0)
(0.868368 0.42855 0)
(0.867023 0.426644 0)
(0.86713 0.425598 0)
(0.868571 0.425378 0)
(0.871132 0.42585 0)
(0.874583 0.426836 0)
(0.878726 0.428147 0)
(0.883419 0.429595 0)
(0.88858 0.430992 0)
(0.894172 0.432175 0)
(0.900193 0.433022 0)
(0.906689 0.433445 0)
(0.913741 0.433371 0)
(0.92142 0.432793 0)
(0.929752 0.431801 0)
(0.938778 0.430523 0)
(0.948541 0.429121 0)
(0.958983 0.427844 0)
(0.969899 0.427005 0)
(0.981042 0.426878 0)
(0.992148 0.427693 0)
(1.00285 0.429685 0)
(1.01267 0.433034 0)
(1.02113 0.437725 0)
(1.02782 0.443584 0)
(1.03235 0.450389 0)
(1.03442 0.457865 0)
(1.03392 0.465612 0)
(1.03091 0.473166 0)
(1.02552 0.480125 0)
(1.01798 0.48617 0)
(1.00864 0.491015 0)
(0.998028 0.494423 0)
(0.986646 0.496271 0)
(0.974956 0.496575 0)
(0.963374 0.495435 0)
(0.952326 0.492981 0)
(0.942224 0.489356 0)
(0.933385 0.484754 0)
(0.925975 0.479432 0)
(0.920023 0.47367 0)
(0.915502 0.467707 0)
(0.912397 0.461708 0)
(0.910721 0.455767 0)
(0.910463 0.449953 0)
(0.911518 0.444372 0)
(0.913615 0.439191 0)
(0.916309 0.434651 0)
(0.919033 0.431022 0)
(0.921207 0.428541 0)
(0.922369 0.427337 0)
(0.922269 0.427388 0)
(0.920915 0.428516 0)
(0.918529 0.430431 0)
(0.915465 0.432797 0)
(0.912105 0.435303 0)
(0.908782 0.437706 0)
(0.905734 0.439849 0)
(0.903097 0.441657 0)
(0.900922 0.443114 0)
(0.899195 0.444246 0)
(0.897868 0.4451 0)
(0.896877 0.445726 0)
(0.896153 0.446176 0)
(0.895634 0.446494 0)
(0.895268 0.446714 0)
(0.895013 0.446866 0)
(0.894836 0.446969 0)
(0.894713 0.44704 0)
(0.894627 0.447088 0)
(0.894566 0.447121 0)
(0.894522 0.447144 0)
(0.894491 0.44716 0)
(0.894467 0.447172 0)
(0.89445 0.44718 0)
(0.870137 0.429207 0)
(0.868157 0.426829 0)
(0.867533 0.425271 0)
(0.868244 0.42457 0)
(0.87012 0.424641 0)
(0.872944 0.425338 0)
(0.876508 0.42649 0)
(0.880653 0.427911 0)
(0.885268 0.429424 0)
(0.890281 0.43088 0)
(0.895664 0.432154 0)
(0.901439 0.433139 0)
(0.907646 0.433762 0)
(0.914304 0.434021 0)
(0.921448 0.433963 0)
(0.929136 0.433651 0)
(0.937371 0.433203 0)
(0.946051 0.432824 0)
(0.955031 0.43274 0)
(0.964167 0.433141 0)
(0.973243 0.434222 0)
(0.981912 0.436181 0)
(0.989787 0.439115 0)
(0.996528 0.442986 0)
(1.00182 0.447697 0)
(1.00536 0.453115 0)
(1.00691 0.459011 0)
(1.00642 0.465045 0)
(1.00391 0.470866 0)
(0.999489 0.476188 0)
(0.993335 0.480757 0)
(0.985783 0.48432 0)
(0.977246 0.486681 0)
(0.968127 0.487765 0)
(0.958783 0.487596 0)
(0.94957 0.486241 0)
(0.94086 0.483782 0)
(0.932996 0.480335 0)
(0.926221 0.476079 0)
(0.92064 0.47124 0)
(0.916267 0.466049 0)
(0.913095 0.460692 0)
(0.911142 0.455288 0)
(0.910432 0.449911 0)
(0.91094 0.444642 0)
(0.912516 0.439614 0)
(0.914843 0.435039 0)
(0.917453 0.431184 0)
(0.919802 0.428319 0)
(0.92139 0.426644 0)
(0.921871 0.426227 0)
(0.921128 0.426973 0)
(0.919273 0.428648 0)
(0.916587 0.430934 0)
(0.913431 0.433501 0)
(0.910153 0.43607 0)
(0.907031 0.438439 0)
(0.904246 0.440492 0)
(0.901888 0.442187 0)
(0.899975 0.443531 0)
(0.898476 0.444561 0)
(0.897336 0.44533 0)
(0.896492 0.445889 0)
(0.89588 0.446289 0)
(0.895443 0.44657 0)
(0.895136 0.446765 0)
(0.894923 0.446899 0)
(0.894774 0.44699 0)
(0.89467 0.447053 0)
(0.894597 0.447096 0)
(0.894546 0.447126 0)
(0.894508 0.447147 0)
(0.894481 0.447162 0)
(0.89446 0.447173 0)
(0.894445 0.447181 0)
(0.872211 0.430191 0)
(0.869696 0.427389 0)
(0.868384 0.425305 0)
(0.868361 0.424067 0)
(0.869526 0.423658 0)
(0.871693 0.423967 0)
(0.87466 0.424842 0)
(0.878248 0.426109 0)
(0.882321 0.427603 0)
(0.886783 0.429181 0)
(0.891584 0.430707 0)
(0.896708 0.432068 0)
(0.902159 0.433201 0)
(0.907948 0.434091 0)
(0.914108 0.434733 0)
(0.92066 0.43515 0)
(0.927569 0.435449 0)
(0.934761 0.435788 0)
(0.942164 0.436307 0)
(0.949662 0.437136 0)
(0.95703 0.438437 0)
(0.963984 0.440356 0)
(0.970267 0.442944 0)
(0.97564 0.446178 0)
(0.979833 0.450014 0)
(0.982593 0.454349 0)
(0.983773 0.458975 0)
(0.983333 0.463624 0)
(0.981287 0.468057 0)
(0.977704 0.472064 0)
(0.972764 0.475429 0)
(0.966759 0.477937 0)
(0.960012 0.479442 0)
(0.952822 0.479905 0)
(0.945478 0.479347 0)
(0.93829 0.477809 0)
(0.931582 0.475344 0)
(0.925626 0.47205 0)
(0.920592 0.468095 0)
(0.916546 0.463679 0)
(0.9135 0.458986 0)
(0.91147 0.454152 0)
(0.910492 0.449262 0)
(0.910589 0.444386 0)
(0.9117 0.439628 0)
(0.913624 0.435161 0)
(0.916004 0.431231 0)
(0.918366 0.428119 0)
(0.920218 0.426072 0)
(0.921156 0.425233 0)
(0.920961 0.425591 0)
(0.919638 0.426982 0)
(0.917382 0.429125 0)
(0.914507 0.431693 0)
(0.911357 0.434379 0)
(0.908234 0.436943 0)
(0.905357 0.439228 0)
(0.902854 0.441159 0)
(0.900775 0.442722 0)
(0.899114 0.443942 0)
(0.897829 0.444867 0)
(0.896862 0.44555 0)
(0.896151 0.446045 0)
(0.895639 0.446396 0)
(0.895275 0.446642 0)
(0.89502 0.446812 0)
(0.894843 0.44693 0)
(0.894719 0.447011 0)
(0.894633 0.447066 0)
(0.894572 0.447105 0)
(0.894527 0.447132 0)
(0.894495 0.447151 0)
(0.894471 0.447165 0)
(0.894453 0.447174 0)
(0.89444 0.447182 0)
(0.874519 0.431472 0)
(0.871604 0.428335 0)
(0.869683 0.425754 0)
(0.86895 0.42395 0)
(0.869395 0.422996 0)
(0.870882 0.422826 0)
(0.873224 0.423316 0)
(0.876239 0.424309 0)
(0.879769 0.425656 0)
(0.883698 0.427209 0)
(0.887955 0.428829 0)
(0.892495 0.430409 0)
(0.897291 0.431882 0)
(0.902344 0.433198 0)
(0.907666 0.434329 0)
(0.913246 0.435295 0)
(0.919052 0.436176 0)
(0.925046 0.437058 0)
(0.931172 0.438018 0)
(0.937304 0.439166 0)
(0.943255 0.440637 0)
(0.948836 0.44252 0)
(0.953876 0.444835 0)
(0.958168 0.447583 0)
(0.961481 0.450741 0)
(0.963641 0.454211 0)
(0.964562 0.457819 0)
(0.964209 0.461376 0)
(0.962578 0.464719 0)
(0.959736 0.467679 0)
(0.955855 0.470068 0)
(0.951177 0.471722 0)
(0.945946 0.472548 0)
(0.940387 0.472523 0)
(0.93474 0.471658 0)
(0.929275 0.469973 0)
(0.924262 0.46751 0)
(0.919905 0.464366 0)
(0.916317 0.460691 0)
(0.91354 0.456655 0)
(0.911596 0.4524 0)
(0.910521 0.448022 0)
(0.910355 0.443588 0)
(0.911097 0.439179 0)
(0.912638 0.434935 0)
(0.914729 0.431068 0)
(0.916985 0.427848 0)
(0.918954 0.425544 0)
(0.920213 0.424359 0)
(0.920475 0.424358 0)
(0.919649 0.425451 0)
(0.91784 0.427408 0)
(0.9153 0.429922 0)
(0.912349 0.432674 0)
(0.909296 0.435394 0)
(0.906386 0.437888 0)
(0.903784 0.440046 0)
(0.901572 0.44183 0)
(0.899766 0.443248 0)
(0.898344 0.44434 0)
(0.897256 0.445159 0)
(0.896445 0.445759 0)
(0.895853 0.446191 0)
(0.895429 0.446496 0)
(0.895129 0.446709 0)
(0.89492 0.446857 0)
(0.894773 0.446959 0)
(0.894671 0.44703 0)
(0.8946 0.447079 0)
(0.894548 0.447113 0)
(0.894511 0.447137 0)
(0.894484 0.447154 0)
(0.894463 0.447167 0)
(0.894447 0.447176 0)
(0.894435 0.447183 0)
(0.876964 0.432993 0)
(0.87382 0.429644 0)
(0.871408 0.426643 0)
(0.870023 0.424292 0)
(0.869759 0.422744 0)
(0.870551 0.422018 0)
(0.872246 0.422028 0)
(0.874665 0.422643 0)
(0.877644 0.423717 0)
(0.881052 0.425108 0)
(0.884796 0.426682 0)
(0.8888 0.428337 0)
(0.89302 0.429981 0)
(0.89744 0.431545 0)
(0.902052 0.432996 0)
(0.90683 0.434353 0)
(0.911745 0.435643 0)
(0.916771 0.436894 0)
(0.921848 0.438165 0)
(0.926866 0.439556 0)
(0.931695 0.441155 0)
(0.936213 0.442993 0)
(0.940278 0.445087 0)
(0.943711 0.447456 0)
(0.94634 0.450079 0)
(0.94806 0.45286 0)
(0.948818 0.455665 0)
(0.948576 0.458373 0)
(0.947326 0.460865 0)
(0.945142 0.462996 0)
(0.94218 0.464612 0)
(0.938628 0.465595 0)
(0.934665 0.465895 0)
(0.930472 0.465499 0)
(0.926254 0.464402 0)
(0.92224 0.462611 0)
(0.918642 0.460172 0)
(0.915606 0.457183 0)
(0.913203 0.453779 0)
(0.911467 0.450093 0)
(0.91043 0.44623 0)
(0.910139 0.442261 0)
(0.910623 0.438254 0)
(0.911842 0.434315 0)
(0.913635 0.430622 0)
(0.915709 0.427421 0)
(0.917675 0.424985 0)
(0.919126 0.423551 0)
(0.919738 0.423249 0)
(0.919345 0.424057 0)
(0.917969 0.425807 0)
(0.915792 0.428225 0)
(0.913094 0.430995 0)
(0.910174 0.433829 0)
(0.907295 0.436502 0)
(0.904644 0.438871 0)
(0.902335 0.440869 0)
(0.900411 0.442487 0)
(0.898866 0.443754 0)
(0.897664 0.444718 0)
(0.896754 0.445434 0)
(0.896082 0.445954 0)
(0.895595 0.446326 0)
(0.895247 0.446589 0)
(0.895003 0.446772 0)
(0.894832 0.446899 0)
(0.894713 0.446987 0)
(0.89463 0.447048 0)
(0.89457 0.447091 0)
(0.894528 0.447121 0)
(0.894496 0.447142 0)
(0.894473 0.447158 0)
(0.894455 0.447169 0)
(0.894442 0.447178 0)
(0.894431 0.447184 0)
(0.879436 0.434667 0)
(0.876244 0.431264 0)
(0.873501 0.427967 0)
(0.871565 0.425128 0)
(0.870635 0.422989 0)
(0.870733 0.421649 0)
(0.871761 0.421097 0)
(0.873564 0.421233 0)
(0.875983 0.421924 0)
(0.878872 0.423031 0)
(0.882114 0.424431 0)
(0.885617 0.426013 0)
(0.889326 0.427677 0)
(0.893202 0.429343 0)
(0.897214 0.430974 0)
(0.90133 0.432561 0)
(0.905525 0.434093 0)
(0.909771 0.435578 0)
(0.914006 0.437068 0)
(0.918147 0.438625 0)
(0.922112 0.440285 0)
(0.925807 0.44206 0)
(0.929104 0.443975 0)
(0.931867 0.446047 0)
(0.933992 0.448241 0)
(0.935414 0.450474 0)
(0.936085 0.452658 0)
(0.935969 0.454714 0)
(0.935071 0.456545 0)
(0.933473 0.458025 0)
(0.931304 0.459037 0)
(0.928698 0.459512 0)
(0.925788 0.459421 0)
(0.922728 0.458751 0)
(0.9197 0.457488 0)
(0.916893 0.455639 0)
(0.914462 0.453257 0)
(0.912501 0.450438 0)
(0.911057 0.4473 0)
(0.910164 0.443944 0)
(0.909865 0.440443 0)
(0.910201 0.436861 0)
(0.911175 0.433281 0)
(0.912696 0.429849 0)
(0.914555 0.426779 0)
(0.916434 0.42433 0)
(0.917965 0.422755 0)
(0.918818 0.422229 0)
(0.918777 0.422792 0)
(0.917795 0.424337 0)
(0.915984 0.426633 0)
(0.913572 0.429383 0)
(0.910838 0.43229 0)
(0.908044 0.435107 0)
(0.905398 0.437662 0)
(0.903035 0.43986 0)
(0.901023 0.441674 0)
(0.899377 0.443116 0)
(0.898073 0.44423 0)
(0.897072 0.445069 0)
(0.896321 0.445686 0)
(0.89577 0.446132 0)
(0.895374 0.44645 0)
(0.895093 0.446673 0)
(0.894896 0.446829 0)
(0.894758 0.446937 0)
(0.894661 0.447012 0)
(0.894593 0.447065 0)
(0.894545 0.447102 0)
(0.894509 0.447128 0)
(0.894483 0.447148 0)
(0.894463 0.447162 0)
(0.894448 0.447172 0)
(0.894436 0.447179 0)
(0.894427 0.447185 0)
(0.881812 0.436389 0)
(0.878754 0.433104 0)
(0.875867 0.429672 0)
(0.873527 0.426461 0)
(0.872013 0.423783 0)
(0.871448 0.421823 0)
(0.871807 0.420643 0)
(0.872978 0.420207 0)
(0.874819 0.420412 0)
(0.877179 0.421129 0)
(0.879925 0.422234 0)
(0.882954 0.423612 0)
(0.886195 0.425161 0)
(0.889591 0.426799 0)
(0.893093 0.428474 0)
(0.896664 0.430145 0)
(0.900278 0.431786 0)
(0.903901 0.433403 0)
(0.907474 0.435017 0)
(0.91094 0.436648 0)
(0.91424 0.438303 0)
(0.917295 0.440004 0)
(0.920005 0.441772 0)
(0.92228 0.443601 0)
(0.924059 0.445447 0)
(0.925289 0.447251 0)
(0.925923 0.44896 0)
(0.925938 0.450516 0)
(0.925368 0.451831 0)
(0.924289 0.452807 0)
(0.922793 0.453367 0)
(0.920975 0.453471 0)
(0.918939 0.453101 0)
(0.916822 0.452238 0)
(0.914781 0.450869 0)
(0.912962 0.44901 0)
(0.911472 0.446722 0)
(0.910369 0.444094 0)
(0.909691 0.441222 0)
(0.909475 0.438182 0)
(0.909762 0.435032 0)
(0.910575 0.431844 0)
(0.911872 0.428734 0)
(0.913515 0.425882 0)
(0.915257 0.423527 0)
(0.916782 0.42192 0)
(0.917776 0.421261 0)
(0.918 0.42164 0)
(0.917353 0.423004 0)
(0.915886 0.425172 0)
(0.913776 0.427873 0)
(0.911266 0.430815 0)
(0.908607 0.43374 0)
(0.906014 0.436451 0)
(0.903642 0.43883 0)
(0.901578 0.440827 0)
(0.899856 0.442441 0)
(0.898469 0.443706 0)
(0.897386 0.444671 0)
(0.896563 0.44539 0)
(0.895951 0.445915 0)
(0.895506 0.446293 0)
(0.895187 0.446561 0)
(0.894962 0.446749 0)
(0.894805 0.44688 0)
(0.894694 0.446971 0)
(0.894617 0.447035 0)
(0.894562 0.44708 0)
(0.894523 0.447112 0)
(0.894493 0.447136 0)
(0.894471 0.447153 0)
(0.894455 0.447165 0)
(0.894442 0.447174 0)
(0.894432 0.447181 0)
(0.894424 0.447186 0)
(0.884006 0.438061 0)
(0.881211 0.435027 0)
(0.878374 0.431655 0)
(0.875817 0.428246 0)
(0.873853 0.425139 0)
(0.872695 0.422601 0)
(0.872408 0.42078 0)
(0.872942 0.419706 0)
(0.874184 0.419329 0)
(0.875996 0.419548 0)
(0.878243 0.420248 0)
(0.880815 0.421307 0)
(0.883618 0.422623 0)
(0.886576 0.424113 0)
(0.889634 0.425704 0)
(0.892754 0.427336 0)
(0.8959 0.428978 0)
(0.899026 0.430621 0)
(0.902084 0.43226 0)
(0.905033 0.433887 0)
(0.907827 0.435499 0)
(0.9104 0.437114 0)
(0.912681 0.438741 0)
(0.914612 0.440354 0)
(0.916153 0.441913 0)
(0.917264 0.443384 0)
(0.917908 0.444732 0)
(0.918079 0.445903 0)
(0.917814 0.446823 0)
(0.91718 0.447421 0)
(0.916243 0.447654 0)
(0.915076 0.447498 0)
(0.913767 0.446935 0)
(0.912435 0.445946 0)
(0.911205 0.444528 0)
(0.910184 0.442709 0)
(0.909439 0.440553 0)
(0.909011 0.43814 0)
(0.908934 0.435542 0)
(0.909246 0.43282 0)
(0.909974 0.430036 0)
(0.911108 0.427285 0)
(0.912558 0.42472 0)
(0.914144 0.42255 0)
(0.915604 0.421011 0)
(0.916656 0.420315 0)
(0.917059 0.420582 0)
(0.916682 0.421809 0)
(0.915524 0.423858 0)
(0.91371 0.426495 0)
(0.911445 0.429443 0)
(0.90896 0.432439 0)
(0.906466 0.435274 0)
(0.904129 0.437807 0)
(0.902051 0.439969 0)
(0.900284 0.441745 0)
(0.898836 0.443156 0)
(0.897686 0.444247 0)
(0.896799 0.44507 0)
(0.896131 0.445678 0)
(0.89564 0.44612 0)
(0.895284 0.446436 0)
(0.895031 0.446659 0)
(0.894853 0.446816 0)
(0.894728 0.446926 0)
(0.894641 0.447002 0)
(0.89458 0.447057 0)
(0.894535 0.447095 0)
(0.894503 0.447122 0)
(0.894479 0.447143 0)
(0.894461 0.447157 0)
(0.894447 0.447168 0)
(0.894436 0.447177 0)
(0.894427 0.447183 0)
(0.89442 0.447188 0)
(0.885956 0.439613 0)
(0.883506 0.436914 0)
(0.880868 0.433768 0)
(0.878292 0.430368 0)
(0.876062 0.427012 0)
(0.874433 0.424009 0)
(0.87356 0.421584 0)
(0.873473 0.419848 0)
(0.87411 0.418822 0)
(0.87536 0.418453 0)
(0.877099 0.418641 0)
(0.879209 0.419274 0)
(0.881583 0.420247 0)
(0.884137 0.421471 0)
(0.886806 0.422863 0)
(0.889541 0.424352 0)
(0.892292 0.425898 0)
(0.895015 0.42747 0)
(0.897674 0.429044 0)
(0.900235 0.430602 0)
(0.902652 0.432137 0)
(0.90487 0.433649 0)
(0.906846 0.435124 0)
(0.908545 0.436537 0)
(0.909935 0.437859 0)
(0.910981 0.43907 0)
(0.911667 0.440138 0)
(0.912001 0.441011 0)
(0.91202 0.44163 0)
(0.911769 0.441954 0)
(0.911298 0.441959 0)
(0.910669 0.441629 0)
(0.909962 0.440946 0)
(0.909275 0.439895 0)
(0.908702 0.438484 0)
(0.908312 0.436755 0)
(0.908149 0.43477 0)
(0.908244 0.432596 0)
(0.908629 0.43029 0)
(0.909331 0.427912 0)
(0.910356 0.425544 0)
(0.911648 0.423312 0)
(0.913077 0.421397 0)
(0.914436 0.420015 0)
(0.915484 0.419372 0)
(0.915994 0.419607 0)
(0.91582 0.42075 0)
(0.914925 0.422705 0)
(0.913389 0.425276 0)
(0.911376 0.428208 0)
(0.909091 0.431245 0)
(0.906735 0.434168 0)
(0.904473 0.436825 0)
(0.90242 0.439129 0)
(0.90064 0.441048 0)
(0.899156 0.442596 0)
(0.897959 0.443808 0)
(0.89702 0.444734 0)
(0.896304 0.445426 0)
(0.89577 0.445934 0)
(0.89538 0.446301 0)
(0.895099 0.446562 0)
(0.894901 0.446746 0)
(0.894762 0.446875 0)
(0.894664 0.446966 0)
(0.894596 0.44703 0)
(0.894548 0.447075 0)
(0.894513 0.447108 0)
(0.894487 0.447131 0)
(0.894467 0.447149 0)
(0.894452 0.447162 0)
(0.89444 0.447172 0)
(0.894431 0.447179 0)
(0.894423 0.447185 0)
(0.894418 0.447189 0)
(0.887637 0.441005 0)
(0.885564 0.438678 0)
(0.883225 0.435862 0)
(0.880787 0.432657 0)
(0.878485 0.429273 0)
(0.876565 0.425988 0)
(0.875225 0.423075 0)
(0.874574 0.420726 0)
(0.874622 0.419034 0)
(0.875302 0.418006 0)
(0.876516 0.417589 0)
(0.87815 0.417695 0)
(0.880098 0.41822 0)
(0.882263 0.419068 0)
(0.88457 0.420153 0)
(0.886958 0.421405 0)
(0.889374 0.422763 0)
(0.891774 0.424177 0)
(0.894123 0.42561 0)
(0.896382 0.42704 0)
(0.898512 0.428454 0)
(0.900475 0.429831 0)
(0.902245 0.431143 0)
(0.903794 0.43237 0)
(0.905094 0.433495 0)
(0.906122 0.434498 0)
(0.906876 0.435342 0)
(0.907376 0.435982 0)
(0.90765 0.436379 0)
(0.907727 0.436513 0)
(0.907645 0.43637 0)
(0.907459 0.435934 0)
(0.907244 0.435189 0)
(0.907078 0.434133 0)
(0.907023 0.432787 0)
(0.907122 0.431198 0)
(0.907404 0.429422 0)
(0.907895 0.427518 0)
(0.908617 0.425543 0)
(0.909578 0.423568 0)
(0.910747 0.4217 0)
(0.912031 0.420095 0)
(0.913275 0.418943 0)
(0.914275 0.418435 0)
(0.914833 0.418714 0)
(0.9148 0.419833 0)
(0.914119 0.42173 0)
(0.912832 0.424243 0)
(0.911067 0.427144 0)
(0.908998 0.430192 0)
(0.906809 0.433171 0)
(0.904659 0.435918 0)
(0.902668 0.438334 0)
(0.900908 0.440376 0)
(0.899415 0.442044 0)
(0.898191 0.443367 0)
(0.897217 0.444391 0)
(0.896463 0.445164 0)
(0.895893 0.445738 0)
(0.895472 0.446156 0)
(0.895166 0.446457 0)
(0.894948 0.44667 0)
(0.894794 0.446821 0)
(0.894687 0.446927 0)
(0.894612 0.447002 0)
(0.894559 0.447054 0)
(0.894521 0.447092 0)
(0.894493 0.447119 0)
(0.894472 0.44714 0)
(0.894456 0.447155 0)
(0.894444 0.447166 0)
(0.894434 0.447175 0)
(0.894426 0.447182 0)
(0.89442 0.447187 0)
(0.894415 0.44719 0)
(0.889048 0.442216 0)
(0.887339 0.440264 0)
(0.885348 0.437827 0)
(0.883167 0.434944 0)
(0.880959 0.431733 0)
(0.878933 0.428395 0)
(0.877292 0.425188 0)
(0.876193 0.422351 0)
(0.875709 0.420048 0)
(0.875838 0.418354 0)
(0.876521 0.417272 0)
(0.877665 0.41676 0)
(0.879171 0.416738 0)
(0.880944 0.417114 0)
(0.882899 0.417796 0)
(0.884964 0.418707 0)
(0.887085 0.419779 0)
(0.889213 0.420954 0)
(0.891307 0.422183 0)
(0.89333 0.423431 0)
(0.895248 0.424674 0)
(0.897032 0.42588 0)
(0.89866 0.427022 0)
(0.900113 0.428077 0)
(0.90137 0.429027 0)
(0.902417 0.429845 0)
(0.903259 0.430501 0)
(0.903914 0.430961 0)
(0.904407 0.431204 0)
(0.90476 0.431216 0)
(0.905006 0.430985 0)
(0.905192 0.430498 0)
(0.905378 0.429746 0)
(0.905619 0.428742 0)
(0.905957 0.427518 0)
(0.90642 0.426121 0)
(0.907026 0.424604 0)
(0.907792 0.423022 0)
(0.908726 0.421442 0)
(0.909808 0.419958 0)
(0.910973 0.4187 0)
(0.9121 0.417833 0)
(0.913029 0.417528 0)
(0.91359 0.417921 0)
(0.913647 0.419074 0)
(0.913133 0.42095 0)
(0.912064 0.423418 0)
(0.910535 0.426281 0)
(0.908689 0.429317 0)
(0.906686 0.432316 0)
(0.904677 0.435118 0)
(0.902779 0.437614 0)
(0.901072 0.439752 0)
(0.899599 0.44152 0)
(0.898371 0.44294 0)
(0.897379 0.444052 0)
(0.896599 0.444902 0)
(0.896002 0.445539 0)
(0.895555 0.446008 0)
(0.895228 0.446348 0)
(0.894992 0.446592 0)
(0.894825 0.446764 0)
(0.894708 0.446886 0)
(0.894626 0.446972 0)
(0.894569 0.447033 0)
(0.894528 0.447076 0)
(0.894499 0.447107 0)
(0.894477 0.44713 0)
(0.89446 0.447148 0)
(0.894447 0.44716 0)
(0.894437 0.44717 0)
(0.894429 0.447178 0)
(0.894422 0.447184 0)
(0.894417 0.447188 0)
(0.894413 0.447191 0)
(0.890216 0.443243 0)
(0.888831 0.44164 0)
(0.887187 0.439597 0)