/*--------------------------------*- C++ -*----------------------------------*\
  =========                 |
  \\      /  F ield         | OpenFOAM: The Open Source CFD Toolbox
   \\    /   O peration     | Website:  https://openfoam.org
    \\  /    A nd           | Version:  6
     \\/     M anipulation  |
\*---------------------------------------------------------------------------*/
FoamFile
{
    version     2.0;
    format      ascii;
    class       volScalarField;
    location    "4.11";
    object      k;
}
// * * * * * * * * * * * * * * * * * * * * * * * * * * * * * * * * * * * * * //

dimensions      [0 2 -2 0 0 0 0];

internalField   nonuniform List<scalar> 
4214
(
0.0241255
0.0128965
0.00831098
0.00643846
0.00569468
0.00546088
0.00551694
0.00581285
0.00638816
0.00735843
0.00894866
0.0116163
0.0163659
0.0256538
0.0458033
0.0901828
0.170743
0.264568
0.319433
0.334564
0.317144
0.29088
0.275814
0.282337
0.296544
0.306625
0.300906
0.279054
0.243066
0.195316
0.144374
0.098225
0.062091
0.037439
0.0223846
0.0139507
0.00969092
0.00815894
0.00904768
0.0136047
0.0259799
0.0134723
0.00864846
0.0065644
0.00565723
0.00528657
0.00519889
0.00530677
0.00560414
0.00613808
0.00700914
0.00839558
0.010622
0.0143506
0.0211402
0.0350374
0.0659715
0.129862
0.225204
0.310678
0.36189
0.371261
0.352798
0.333975
0.330081
0.336752
0.344123
0.340054
0.316985
0.275258
0.220624
0.162836
0.110752
0.0699301
0.0419896
0.0248565
0.0151447
0.0100192
0.00764069
0.00709613
0.00831195
0.012198
0.00892122
0.00673533
0.00570068
0.00522088
0.00503136
0.00502187
0.00515951
0.00545714
0.00596422
0.00677116
0.00802618
0.00997554
0.013069
0.01827
0.0279944
0.0485162
0.0927928
0.171872
0.266715
0.3357
0.363945
0.368216
0.364061
0.370287
0.384241
0.396024
0.392417
0.364219
0.313623
0.249577
0.182944
0.124027
0.0781481
0.0467192
0.0274229
0.0164358
0.0105382
0.00759462
0.006408
0.00647732
0.00786231
0.00703709
0.00584194
0.00525038
0.004973
0.00487893
0.00491566
0.00507462
0.00537806
0.00587726
0.00665799
0.00785283
0.00966482
0.0124223
0.0167384
0.024015
0.0379005
0.0671534
0.12553
0.215523
0.30646
0.35968
0.381701
0.39159
0.406557
0.431253
0.45167
0.452586
0.421273
0.360499
0.284253
0.206256
0.138858
0.0870979
0.051748
0.0300968
0.0177785
0.0111321
0.00772756
0.00616266
0.00573883
0.00622577
0.00604944
0.00534669
0.00499026
0.00482896
0.00479543
0.00486665
0.0050481
0.00536923
0.00588519
0.00668273
0.0078896
0.00968823
0.0123409
0.0162613
0.0222573
0.0323133
0.0515645
0.090752
0.161729
0.256961
0.336627
0.372106
0.398834
0.42217
0.463037
0.50314
0.516665
0.487496
0.416746
0.325111
0.233193
0.155272
0.096751
0.0570539
0.0328563
0.0191448
0.0117531
0.00793334
0.00609193
0.00539505
0.0054703
0.0054877
0.0050607
0.00484384
0.00475719
0.00476772
0.00487028
0.0050811
0.00543787
0.00600365
0.00687304
0.00817932
0.010101
0.0128683
0.0167838
0.0223188
0.0304882
0.0439709
0.0693791
0.118363
0.198628
0.291956
0.351866
0.386613
0.414853
0.46759
0.537409
0.576351
0.558898
0.48241
0.373548
0.264973
0.173989
0.107372
0.0627169
0.0357162
0.0205237
0.0123763
0.00816607
0.00610006
0.00522665
0.00507967
0.0051611
0.00490005
0.00477297
0.00473934
0.00478692
0.00492376
0.00517697
0.00559588
0.00625791
0.00727504
0.00879852
0.011018
0.014152
0.018435
0.0241327
0.0316997
0.042341
0.0594579
0.0908737
0.147872
0.23228
0.315906
0.363154
0.394312
0.444022
0.539198
0.62059
0.628326
0.554854
0.430602
0.302205
0.195767
0.119296
0.0688389
0.0387124
0.0219233
0.0129951
0.00840712
0.00614702
0.00514667
0.00486525
0.00497807
0.00482245
0.00475726
0.00476532
0.00484908
0.00502886
0.00534542
0.00586587
0.00669205
0.00796734
0.00987814
0.0126417
0.0164768
0.0215599
0.027989
0.0358357
0.045436
0.0582
0.0782821
0.114323
0.176055
0.258927
0.329215
0.367618
0.404503
0.499614
0.63384
0.684508
0.627816
0.494627
0.346418
0.222187
0.132869
0.0755601
0.0418887
0.0233589
0.0136108
0.00864931
0.00621488
0.0051164
0.00474592
0.00488998
0.00480446
0.00478502
0.00483
0.00495467
0.00519352
0.00560661
0.00628878
0.00738213
0.0090825
0.0116357
0.0153059
0.0203146
0.0267579
0.0345263
0.0433252
0.0528901
0.0635239
0.0770641
0.0985253
0.137024
0.200089
0.27738
0.333159
0.36726
0.432616
0.602415
0.714967
0.693046
0.561796
0.396496
0.252544
0.148831
0.0831425
0.0453475
0.024888
0.0142454
0.00889664
0.0062975
0.00511777
0.00468327
0.00486906
0.00483241
0.00485008
0.00493309
0.00511068
0.0054363
0.00599905
0.00693718
0.00845814
0.0108408
0.0144242
0.0195373
0.026389
0.0349264
0.0447114
0.0549875
0.064966
0.0743671
0.0839204
0.0963317
0.117683
0.15721
0.21977
0.289791
0.336006
0.381582
0.54499
0.71316
0.741914
0.62698
0.451125
0.288296
0.168409
0.0925475
0.0496929
0.0270405
0.0152765
0.00934025
0.00646799
0.00516606
0.0046627
0.00489876
0.00489865
0.0049512
0.0050807
0.00533473
0.00579389
0.00659266
0.00793674
0.0101387
0.0136011
0.0187991
0.0261282
0.0357274
0.0472584
0.0597454
0.0718247
0.0822101
0.090393
0.0967643
0.103262
0.113767
0.135112
0.176026
0.237862
0.299759
0.351569
0.503065
0.694983
0.771379
0.682299
0.505276
0.328826
0.194187
0.106835
0.0565555
0.0296876
0.0162237
0.0096961
0.00661253
0.00522445
0.00467003
0.00496922
0.00500054
0.00509379
0.00528998
0.00566344
0.00633473
0.00751184
0.0095015
0.0127854
0.0179308
0.0255985
0.036193
0.0496546
0.0651415
0.0808727
0.0948004
0.10524
0.111775
0.114888
0.116736
0.120311
0.129994
0.153063
0.196817
0.25796
0.334179
0.481743
0.679629
0.783736
0.715586
0.540886
0.356133
0.211331
0.115656
0.0600226
0.0309668
0.0166849
0.00986674
0.00668739
0.00526491
0.00468784
0.0050757
0.00514242
0.00529565
0.00559894
0.00616881
0.00718308
0.00897551
0.0119889
0.0169841
0.0246886
0.036013
0.051159
0.0696904
0.0899997
0.10926
0.124865
0.13489
0.139382
0.139482
0.136801
0.1346
0.136667
0.148073
0.175103
0.228506
0.325451
0.476572
0.67604
0.78878
0.730744
0.556992
0.367095
0.216851
0.117685
0.0607021
0.0311141
0.01667
0.00984452
0.00669328
0.00529077
0.00471513
0.00522165
0.00534394
0.00560162
0.00608615
0.00698962
0.00855947
0.0113673
0.0159761
0.0236552
0.0350811
0.0516016
0.0726434
0.0974259
0.123274
0.14619
0.163411
0.172648
0.1747
0.17071
0.163075
0.155552
0.151851
0.156025
0.171802
0.224348
0.33075
0.48971
0.683689
0.789291
0.728955
0.554541
0.363401
0.212945
0.114862
0.0589843
0.0301518
0.0161782
0.00963187
0.00663315
0.00530249
0.00474962
0.00543638
0.00566459
0.0061173
0.00690569
0.00839303
0.0108406
0.0153608
0.0223335
0.0341924
0.0505938
0.0742361
0.102236
0.134585
0.166606
0.193353
0.212491
0.220332
0.218817
0.209132
0.195765
0.182848
0.174124
0.173634
0.183751
0.245478
0.356855
0.519478
0.700489
0.786588
0.714954
0.537873
0.348599
0.202074
0.10801
0.0551928
0.0282312
0.01528
0.00926005
0.00651838
0.00530191
0.00478944
0.00584378
0.00625574
0.00707875
0.0083291
0.0109062
0.0146091
0.0221579
0.0321711
0.0506587
0.072599
0.106182
0.141273
0.183331
0.221626
0.252454
0.273708
0.278819
0.273537
0.25669
0.236051
0.2171
0.203604
0.200959
0.217875
0.288709
0.409146
0.569459
0.720399
0.773696
0.683764
0.505021
0.322604
0.1844
0.0976637
0.0497307
0.0255829
0.0140814
0.00877271
0.00636267
0.005291
0.00483275
0.00674574
0.00734116
0.00898964
0.0106955
0.0156759
0.0204792
0.0340449
0.0462082
0.0763029
0.101279
0.150994
0.190132
0.246662
0.28873
0.324152
0.346583
0.345457
0.336202
0.309737
0.282108
0.25927
0.24141
0.244232
0.280335
0.356403
0.47601
0.615608
0.739306
0.754021
0.644014
0.463734
0.288205
0.162315
0.0847996
0.0432672
0.022489
0.0127206
0.00821978
0.00618533
0.00527387
0.00488079
0.00472428
0.00465485
0.00459758
0.00455304
0.00452363
0.00451273
0.00452509
0.00456786
0.00465269
0.00480003
0.00504822
0.00547364
0.00624177
0.00775559
0.0112628
0.0214605
0.0566173
0.00468508
0.00461506
0.00456285
0.0045279
0.00451189
0.00451787
0.00455107
0.00462004
0.00473924
0.00493463
0.00525488
0.00579692
0.00676948
0.00866783
0.0128235
0.0236548
0.0593586
0.00470637
0.00463768
0.00458872
0.00455972
0.00455256
0.00457084
0.00462091
0.00471352
0.00486707
0.00511423
0.00551544
0.00618915
0.00738388
0.00966691
0.0144778
0.0259858
0.0600865
0.00476021
0.00469351
0.00464782
0.0046238
0.00462407
0.0046532
0.00471909
0.00483513
0.0050242
0.00532649
0.00581511
0.00662982
0.0080537
0.0107007
0.0160231
0.0279198
0.0606046
0.00483326
0.00476965
0.00472759
0.00470864
0.00471616
0.00475585
0.00483735
0.00497684
0.00520187
0.00556041
0.00613815
0.00709457
0.00874115
0.0117225
0.0174785
0.0296471
0.0611031
0.00491954
0.00485947
0.00482165
0.00480809
0.00482292
0.00487292
0.00496944
0.00513146
0.0053912
0.00580414
0.00646807
0.00756081
0.00941816
0.0127066
0.0188447
0.0312563
0.0617668
0.00501597
0.00495993
0.00492664
0.0049187
0.00494075
0.00500048
0.00511069
0.00529286
0.00558348
0.00604503
0.00678653
0.00800253
0.0100509
0.0136178
0.0201067
0.032789
0.062751
0.00512127
0.0050692
0.00504062
0.00503824
0.00506711
0.0051355
0.00525725
0.00545571
0.00577071
0.00627067
0.00707457
0.00839241
0.0106034
0.0144161
0.0212392
0.0342771
0.0641324
0.00523497
0.00518674
0.00516258
0.0051654
0.00520032
0.00527587
0.00540634
0.00561604
0.00594675
0.00647095
0.00731534
0.00870347
0.0110361
0.0150523
0.0221964
0.0357047
0.0659005
0.00535728
0.00531236
0.00529219
0.00529955
0.00533952
0.00542048
0.00555653
0.00577194
0.00610855
0.00664035
0.00749837
0.00891645
0.0113163
0.015477
0.0229223
0.0370989
0.0679839
0.0054889
0.00544663
0.00542965
0.0054407
0.00548456
0.00556925
0.00570809
0.00592401
0.00625723
0.00677983
0.00762259
0.00902422
0.0114243
0.0156499
0.0233567
0.0384963
0.0702648
0.00563078
0.00559032
0.00557565
0.00558934
0.00563591
0.00572281
0.00586229
0.00607515
0.00639798
0.00689761
0.00769867
0.0090365
0.0113604
0.0155486
0.0234364
0.0396575
0.0725906
0.00578425
0.0057448
0.00573133
0.00574652
0.0057946
0.00588251
0.00602135
0.00622944
0.00653858
0.00700741
0.00774832
0.00898222
0.0111517
0.0151677
0.023029
0.0399042
0.0747938
0.00595056
0.00591161
0.00589837
0.00591385
0.00596221
0.00605007
0.00618761
0.0063909
0.00668687
0.00712455
0.00779935
0.00890615
0.0108574
0.0145573
0.0221067
0.0390819
0.0767154
0.00613073
0.00609232
0.00607868
0.00609335
0.00614077
0.00622752
0.00636332
0.00656264
0.00684847
0.0072609
0.00787689
0.00885716
0.0105609
0.0138355
0.0208104
0.0374795
0.0782152
0.0063246
0.00628785
0.00627384
0.00628708
0.00633253
0.00641709
0.00655052
0.00674656
0.00702582
0.00742185
0.00799549
0.00887194
0.0103413
0.0131433
0.019332
0.0352396
0.0791602
0.00653092
0.00649757
0.0064842
0.00649615
0.00653908
0.00662052
0.00675072
0.00694347
0.0072186
0.00760616
0.00815614
0.00896421
0.0102492
0.0126041
0.0178843
0.0326242
0.0794184
0.00674706
0.00671955
0.00670847
0.00672001
0.00676054
0.00683832
0.00696425
0.00715284
0.00742432
0.00780788
0.00834836
0.00912264
0.0102913
0.0122912
0.0166578
0.0298313
0.0788681
0.00697059
0.00695071
0.00694384
0.00695642
0.00699531
0.00706928
0.00718992
0.00737282
0.00763936
0.00801957
0.00855738
0.00932123
0.0104357
0.0122045
0.0157831
0.0270896
0.0774168
0.00719913
0.00718848
0.00718735
0.0072025
0.00724081
0.00731109
0.0074254
0.00760042
0.0078591
0.00823333
0.0087687
0.00953203
0.0106321
0.0122839
0.0152999
0.0246671
0.0750335
0.00743231
0.0074313
0.00743704
0.00745622
0.00749516
0.00756217
0.00766928
0.00783379
0.00808016
0.00844271
0.00897027
0.00973197
0.0108337
0.0124454
0.0151417
0.0228008
0.0718045
0.00767011
0.00767898
0.00769265
0.00771733
0.00775839
0.00782316
0.00792291
0.00807476
0.00830396
0.00864703
0.0091568
0.00990757
0.0110089
0.0126153
0.0151565
0.0216959
0.0679823
0.0079136
0.00793298
0.00795569
0.0079875
0.0080326
0.0080969
0.00819036
0.00832899
0.00853761
0.00885338
0.00933252
0.0100559
0.0111405
0.012745
0.0152289
0.0211163
0.0641379
0.00816421
0.00819495
0.0082287
0.00826992
0.00832149
0.00838783
0.00847685
0.00860266
0.00878818
0.00907004
0.00950578
0.0101823
0.0112277
0.012816
0.0152699
0.0206729
0.0608919
0.00842357
0.00846802
0.00851543
0.00856892
0.00862963
0.00870068
0.00878855
0.00890479
0.00906944
0.00931641
0.00970204
0.0103167
0.0113001
0.0128501
0.0152868
0.0203634
0.0582868
0.00869214
0.00875399
0.00881908
0.00888827
0.00896186
0.00904196
0.00913326
0.00924499
0.0093939
0.00960985
0.00994542
0.0104906
0.0113938
0.0128799
0.0152975
0.0201939
0.0563409
0.0089721
0.00905576
0.00914277
0.00923165
0.00932268
0.00941678
0.00951716
0.00963083
0.00977133
0.00996383
0.0102552
0.0107312
0.0115438
0.0129427
0.0153271
0.0201583
0.0550671
0.0092621
0.00937376
0.00948753
0.00960106
0.00971467
0.00982849
0.00994459
0.010068
0.0102092
0.0103884
0.0106459
0.0110598
0.01178
0.0130747
0.0154035
0.0202419
0.0544468
0.00956361
0.00970927
0.00985427
0.00999715
0.0101387
0.0102787
0.0104182
0.0105605
0.010713
0.0108914
0.0111286
0.0114933
0.0121272
0.0133082
0.0155567
0.0204434
0.0544427
0.00987385
0.0100607
0.0102418
0.0104191
0.0105946
0.0107678
0.0109392
0.0111106
0.0112868
0.0114791
0.0117128
0.0120459
0.0126073
0.0136739
0.0158185
0.0207682
0.0550045
0.010193
0.0104278
0.0106492
0.0108658
0.0110814
0.0112957
0.0115085
0.0117204
0.0119341
0.0121569
0.0124072
0.0127309
0.0132413
0.0142031
0.0162247
0.0212282
0.0560719
0.0105186
0.0108082
0.0110752
0.0113366
0.0115992
0.0118628
0.0121271
0.0123921
0.0126586
0.0129307
0.0132205
0.0135625
0.014051
0.0149297
0.0168183
0.0218444
0.057582
0.0108518
0.0112014
0.0115195
0.0118317
0.0121488
0.0124709
0.0127979
0.0131294
0.0134654
0.0138077
0.0141633
0.0145562
0.0150612
0.0158922
0.0176533
0.0226511
0.0594712
0.0111939
0.0116057
0.0119826
0.0123528
0.0127329
0.0131237
0.0135256
0.0139386
0.0143626
0.0147983
0.0152494
0.0157317
0.016301
0.0171367
0.0187987
0.0237059
0.0616759
0.0115492
0.0120212
0.0124661
0.0129029
0.0133557
0.0138269
0.0143176
0.0148289
0.0153618
0.0159174
0.0164984
0.0171151
0.0178081
0.0187205
0.0203444
0.0251035
0.0641175
0.011922
0.012449
0.0129721
0.0134859
0.0140228
0.0145877
0.0151834
0.0158129
0.0164795
0.0171865
0.0179381
0.0187434
0.0196333
0.0207193
0.0224097
0.0269959
0.0666791
0.012315
0.0128936
0.013503
0.0141063
0.0147404
0.015415
0.0161351
0.0169069
0.0177374
0.0186344
0.0196073
0.0206692
0.0218494
0.0232386
0.0251601
0.0296253
0.0691845
0.0127284
0.0133627
0.0140612
0.0147686
0.0155152
0.0163183
0.0171865
0.0181303
0.0191628
0.0202995
0.0215594
0.0229672
0.0245622
0.0264319
0.0288348
0.0333768
0.0713926
0.0131609
0.0138647
0.0146509
0.0154772
0.0163539
0.017308
0.018353
0.0195062
0.0207895
0.0222311
0.0238664
0.0257425
0.027926
0.0305297
0.0337941
0.038871
0.0730101
0.013611
0.0144036
0.0152802
0.016236
0.0172633
0.018395
0.0196519
0.0210614
0.0226592
0.0244929
0.0266257
0.0291439
0.03217
0.0358884
0.0406066
0.0471363
0.0737717
0.010786
0.0109779
0.0112724
0.0114881
0.0118205
0.0120666
0.012437
0.0127148
0.0131164
0.0134239
0.0138439
0.0141762
0.0145971
0.0149483
0.015353
0.0157263
0.016082
0.0164186
0.0167326
0.0170158
0.0172553
0.0174442
0.0176127
0.0177512
0.0178522
0.0179106
0.0179233
0.0178886
0.0178058
0.0176754
0.017499
0.0172791
0.0170192
0.0167236
0.0163971
0.0160447
0.015672
0.015284
0.014886
0.0144824
0.0140775
0.011348
0.011584
0.0118538
0.0121222
0.012431
0.0127378
0.0130871
0.013432
0.013816
0.0141918
0.0145973
0.0149912
0.0154007
0.0157986
0.0162009
0.0166038
0.0169775
0.0173346
0.0176707
0.017978
0.0182449
0.0184616
0.0186549
0.0188163
0.0189378
0.019014
0.0190414
0.0190176
0.0189417
0.0188138
0.0186354
0.0184087
0.0181375
0.0178261
0.0174795
0.0171033
0.0167034
0.0162854
0.0158551
0.0154176
0.0149776
0.0120127
0.0122708
0.0125501
0.0128458
0.0131673
0.0135063
0.0138708
0.0142496
0.0146484
0.0150549
0.0154724
0.0158906
0.0163118
0.0167309
0.0171509
0.0175792
0.017973
0.0183526
0.0187131
0.0190465
0.0193434
0.0195904
0.0198105
0.0199966
0.0201403
0.0202358
0.0202789
0.0202668
0.0201981
0.0200726
0.0198913
0.0196568
0.0193724
0.0190428
0.0186733
0.01827
0.0178391
0.0173869
0.0169198
0.0164436
0.0159635
0.0128051
0.013084
0.0133823
0.0137013
0.0140435
0.0144069
0.0147915
0.0151926
0.015608
0.0160322
0.0164631
0.0168976
0.0173361
0.0177798
0.0182294
0.0186724
0.0190884
0.0194925
0.0198795
0.0202412
0.0205703
0.02085
0.0210988
0.0213114
0.0214788
0.0215948
0.0216545
0.0216547
0.0215932
0.0214696
0.0212846
0.0210404
0.0207408
0.0203903
0.0199946
0.0195603
0.0190942
0.0186032
0.0180944
0.0175741
0.0170483
0.0137633
0.0140619
0.0143797
0.0147185
0.0150794
0.015461
0.0158614
0.0162772
0.0167051
0.017142
0.017586
0.0180363
0.0184944
0.0189657
0.0194628
0.0199084
0.0203485
0.0207791
0.0211946
0.0215866
0.0219499
0.0222641
0.0225434
0.0227839
0.0229764
0.0231138
0.0231908
0.0232034
0.0231489
0.0230264
0.0228363
0.0225807
0.0222632
0.0218886
0.0214631
0.0209936
0.0204876
0.0199527
0.0193968
0.0188269
0.0182497
0.0149241
0.0152375
0.0155695
0.015922
0.0162956
0.0166888
0.0170994
0.0175249
0.0179629
0.0184117
0.0188717
0.0193448
0.0198348
0.0203456
0.0208502
0.0213188
0.0217847
0.0222434
0.0226889
0.0231128
0.0235118
0.023862
0.0241731
0.0244427
0.024661
0.0248205
0.0249151
0.0249399
0.024892
0.0247695
0.0245726
0.0243032
0.0239649
0.0235628
0.0231034
0.0225941
0.0220433
0.0214592
0.0208505
0.0202252
0.0195907
0.0163243
0.0166411
0.0169801
0.0173396
0.0177197
0.0181193
0.0185367
0.0189704
0.0194195
0.0198845
0.0203674
0.0208716
0.0214036
0.0219621
0.0224509
0.0229435
0.0234362
0.0239241
0.0244007
0.0248575
0.0252929
0.02568
0.0260236
0.0263228
0.0265674
0.0267491
0.026861
0.0268976
0.026855
0.0267311
0.0265254
0.0262397
0.0258775
0.0254441
0.0249466
0.0243929
0.0237921
0.0231535
0.0224866
0.0218003
0.0211028
0.0181636
0.0183822
0.0186689
0.0190149
0.0193977
0.0198019
0.0202268
0.0206726
0.0211407
0.0216347
0.022162
0.022737
0.0233072
0.0238063
0.0243162
0.0248332
0.025353
0.0258703
0.0263782
0.0268679
0.0273396
0.0277634
0.0281395
0.0284681
0.0287385
0.0289418
0.0290703
0.0291176
0.029079
0.0289518
0.0287351
0.0284302
0.0280409
0.0275726
0.0270327
0.0264301
0.0257745
0.0250764
0.024346
0.0235936
0.022828
0.0207045
0.0208247
0.020999
0.0212319
0.0215312
0.0218985
0.0223241
0.0228041
0.0233352
0.0238973
0.0244535
0.0249687
0.0254663
0.0259818
0.026512
0.0270526
0.0275987
0.0281444
0.0286825
0.0292042
0.0297107
0.0301698
0.030577
0.0309337
0.0312286
0.0314521
0.0315956
0.0316519
0.0316155
0.0314828
0.0312526
0.030926
0.0305064
0.0299998
0.029414
0.0287585
0.028044
0.027282
0.026484
0.0256612
0.0248235
0.0238662
0.0240403
0.0242294
0.0244509
0.0247157
0.0250276
0.025383
0.0257707
0.0261764
0.0266
0.0270541
0.0275364
0.0280444
0.0285746
0.0291231
0.0296852
0.0302553
0.030827
0.0313928
0.0319436
0.0324816
0.0329727
0.0334083
0.0337903
0.0341071
0.0343483
0.0345044
0.0345673
0.0345307
0.0343904
0.0341445
0.0337937
0.0333415
0.032794
0.0321596
0.0314485
0.0306723
0.0298438
0.0289755
0.0280799
0.0271679
0.0270621
0.0272655
0.0274768
0.0277047
0.0279555
0.0282348
0.0285469
0.0288942
0.0292779
0.0296975
0.0301518
0.0306385
0.0311548
0.031697
0.0322605
0.0328402
0.0334302
0.0340234
0.0346121
0.035187
0.0357508
0.0362683
0.0367272
0.0371299
0.0374643
0.0377192
0.0378843
0.0379509
0.0379115
0.0377614
0.0374979
0.0371216
0.0366357
0.0360465
0.0353629
0.0345957
0.0337576
0.0328624
0.031924
0.030956
0.0299703
0.0308323
0.0310426
0.0312602
0.0314929
0.0317462
0.0320255
0.0323356
0.0326803
0.0330618
0.0334806
0.033936
0.0344261
0.0349481
0.0354981
0.0360716
0.0366631
0.0372663
0.0378738
0.0384775
0.0390682
0.0396486
0.0401836
0.0406582
0.0410743
0.0414197
0.0416826
0.041852
0.0419183
0.0418735
0.0417118
0.0414303
0.0410288
0.0405107
0.039882
0.0391521
0.0383324
0.0374365
0.0364791
0.0354753
0.0344399
0.033386
0.0354603
0.0356767
0.035902
0.0361428
0.0364041
0.0366906
0.0370064
0.037355
0.0377391
0.0381596
0.0386162
0.0391075
0.0396309
0.0401826
0.0407582
0.0413521
0.0419579
0.0425683
0.0431749
0.0437687
0.0443519
0.0448912
0.0453696
0.0457884
0.0461353
0.0463981
0.0465654
0.046627
0.0465741
0.0464006
0.0461027
0.0456799
0.0451352
0.0444746
0.0437074
0.0428456
0.0419033
0.0408959
0.0398396
0.0387501
0.0376418
0.0412985
0.0415187
0.0417504
0.0419986
0.0422678
0.0425617
0.0428839
0.043237
0.043623
0.0440429
0.0444964
0.0449821
0.0454977
0.0460397
0.0466038
0.0471848
0.0477765
0.0483718
0.0489627
0.0495401
0.0501059
0.0506299
0.0510948
0.0515006
0.0518354
0.0520871
0.052244
0.0522958
0.0522334
0.0520501
0.0517419
0.0513075
0.0507495
0.0500736
0.0492888
0.048407
0.0474424
0.0464108
0.0453286
0.0442125
0.0430785
0.0488802
0.0490985
0.0493313
0.049581
0.0498511
0.0501447
0.0504643
0.050812
0.0511887
0.051595
0.0520303
0.0524931
0.0529813
0.0534916
0.0540202
0.0545623
0.0551123
0.0556638
0.0562097
0.0567416
0.0572598
0.05774
0.0581659
0.0585362
0.0588397
0.0590651
0.0592013
0.0592383
0.0591674
0.0589816
0.0586765
0.0582507
0.0577059
0.057047
0.0562823
0.0554229
0.0544823
0.0534759
0.0524197
0.0513302
0.0502253
0.0590468
0.0592488
0.0594678
0.0597018
0.0599532
0.0602243
0.0605168
0.0608318
0.0611696
0.0615301
0.0619126
0.0623155
0.0627369
0.063174
0.0636237
0.064082
0.0645443
0.0650056
0.0654599
0.0659008
0.0663268
0.066721
0.0670704
0.0673723
0.0676175
0.0677964
0.0678996
0.0679184
0.0678451
0.0676734
0.0673992
0.0670206
0.0665386
0.0659568
0.065282
0.0645236
0.0636931
0.0628038
0.0618699
0.0609066
0.0599326
0.0731932
0.0733411
0.0735062
0.0736801
0.0738646
0.074061
0.07427
0.0744921
0.0747272
0.0749749
0.0752346
0.0755051
0.0757851
0.0760729
0.0763663
0.076663
0.0769602
0.0772548
0.077543
0.0778211
0.078087
0.0783321
0.078549
0.0787349
0.0788838
0.0789897
0.0790466
0.0790486
0.0789906
0.0788683
0.0786787
0.0784201
0.0780927
0.0776986
0.077242
0.0767288
0.0761665
0.0755641
0.0749312
0.0742779
0.0736224
0.0512419
0.025299
0.0136218
0.00945359
0.00741739
0.00629267
0.0056437
0.00526785
0.00506048
0.00496343
0.00494293
0.00497869
0.00505786
0.00517231
0.00532501
0.00559361
0.00622272
0.0550211
0.0284584
0.0159366
0.0107707
0.00817503
0.00675264
0.00594064
0.00547309
0.005212
0.00508118
0.00503703
0.00505385
0.00511592
0.00521312
0.00534094
0.00552881
0.00599657
0.057298
0.0325087
0.0183343
0.0121448
0.00898602
0.00724999
0.00626237
0.00569532
0.00537598
0.00520873
0.00513939
0.00513655
0.0051815
0.00526234
0.00537219
0.00551342
0.0058248
0.0594982
0.0358077
0.0205306
0.0134685
0.00978791
0.00774978
0.00658952
0.0059235
0.00554584
0.00534206
0.00524749
0.00522512
0.00525333
0.00531864
0.00541261
0.00553002
0.00570916
0.0615607
0.0385181
0.0223767
0.0146287
0.010513
0.00821363
0.00690074
0.0061459
0.00571512
0.00547749
0.00535912
0.00531814
0.00533039
0.00538107
0.00546071
0.00556222
0.00569491
0.0635574
0.0405809
0.0238044
0.015564
0.0111163
0.00861216
0.00717806
0.00635184
0.00587748
0.00561116
0.00547186
0.00541402
0.00541154
0.00544868
0.00551527
0.00560336
0.00571239
0.0656561
0.0419849
0.024807
0.016243
0.0115683
0.00892401
0.00740763
0.00653275
0.00602767
0.00573977
0.00558357
0.00551127
0.00549571
0.00552059
0.00557536
0.00565169
0.00574661
0.0680017
0.0428838
0.0254388
0.0166662
0.011857
0.00913773
0.00758122
0.00668318
0.0061621
0.00586092
0.00569255
0.00560868
0.00558197
0.00559605
0.00564024
0.00570612
0.00578968
0.0706286
0.0435183
0.0257559
0.0168416
0.0119798
0.00925008
0.00769649
0.00680146
0.00627943
0.00597343
0.00579778
0.00570538
0.00566963
0.00567446
0.00570935
0.00576599
0.00583975
0.0734365
0.0439667
0.0257741
0.0167754
0.0119424
0.00926631
0.00775735
0.00688991
0.00638061
0.00607743
0.00589898
0.00580098
0.00575826
0.00575543
0.0057823
0.00583077
0.00589591
0.0762302
0.043944
0.0254478
0.0164689
0.0117576
0.00919954
0.00777347
0.00695425
0.00646855
0.00617415
0.00599655
0.00589549
0.00584773
0.00583878
0.00585886
0.00590014
0.00595764
0.0787908
0.0432002
0.0247003
0.0159255
0.0114481
0.00907112
0.00775939
0.0070029
0.00654752
0.00626556
0.00609137
0.0059893
0.00593821
0.00592457
0.00593901
0.00597405
0.00602456
0.0809326
0.0415879
0.0235111
0.0151744
0.0110529
0.00891062
0.0077329
0.00704518
0.0066221
0.00635395
0.00618465
0.00608312
0.00603016
0.0060131
0.00602296
0.0060526
0.00609668
0.0825209
0.0393469
0.0220175
0.0143062
0.0106318
0.0087524
0.00771147
0.00708944
0.00669637
0.00644155
0.00627785
0.00617798
0.00612432
0.00610489
0.00611102
0.00613585
0.00617386
0.0834604
0.0372876
0.0203734
0.0134277
0.0102477
0.00862719
0.00770861
0.00714169
0.00677354
0.00653057
0.00637266
0.00627523
0.00622173
0.00620072
0.00620374
0.0062242
0.00625607
0.0836618
0.0346981
0.0187597
0.0126603
0.00995574
0.00855592
0.00773173
0.00720526
0.00685607
0.0066232
0.00647102
0.00637645
0.00632367
0.0063016
0.00630193
0.00631821
0.00634358
0.0830613
0.0318741
0.017245
0.012065
0.00977826
0.00854256
0.00778114
0.00728126
0.00694599
0.00672179
0.0065751
0.00648352
0.00643168
0.0064087
0.00640632
0.0064179
0.00643625
0.0816129
0.0289922
0.0160029
0.011684
0.00971274
0.00857967
0.00785394
0.00737054
0.0070458
0.00682911
0.00668744
0.00659864
0.00654756
0.00652342
0.00651778
0.00652385
0.00653406
0.0792888
0.0262654
0.015116
0.0115082
0.0097376
0.00865615
0.00794802
0.00747507
0.00715859
0.0069482
0.00681076
0.00672418
0.00667328
0.00664723
0.00663741
0.00663662
0.00663729
0.0761102
0.0239133
0.0145913
0.0114918
0.0098251
0.0087634
0.00806352
0.00759773
0.0072877
0.00708225
0.00694795
0.00686256
0.00681064
0.00678117
0.00676546
0.00675571
0.00674599
0.0722046
0.0220775
0.0143587
0.0115729
0.00995066
0.00889555
0.00820081
0.00774069
0.00743578
0.00723403
0.00710166
0.00701602
0.00696129
0.00692631
0.0069025
0.00688208
0.00686052
0.0678287
0.0209478
0.0143337
0.011707
0.0101022
0.00905138
0.00836153
0.00790658
0.00760587
0.00740665
0.00727463
0.00718667
0.00712671
0.00708361
0.00704913
0.00701639
0.00698053
0.0636929
0.0202845
0.0143881
0.0118534
0.0102644
0.00922415
0.00854344
0.00809589
0.00779996
0.00760257
0.00746911
0.00737624
0.00730816
0.00725401
0.00720619
0.00715891
0.00710737
0.0602662
0.0198194
0.014466
0.0119974
0.0104277
0.0094054
0.00874034
0.00830451
0.00801548
0.00782009
0.00768395
0.00758432
0.00750587
0.00743848
0.0073757
0.00731313
0.00724712
0.0575629
0.0195575
0.0145721
0.0121455
0.0105994
0.00960267
0.00895917
0.00853816
0.00825663
0.00806201
0.00792087
0.00781149
0.00771968
0.00763662
0.00755733
0.00747887
0.00740074
0.0555891
0.0194706
0.0147082
0.0123056
0.0107888
0.00982509
0.00920766
0.00880272
0.00852753
0.00833113
0.00818182
0.00805953
0.00795156
0.00785033
0.00775143
0.00765231
0.00755694
0.0543443
0.0195383
0.0148785
0.0124889
0.011009
0.0100843
0.00949489
0.00910456
0.00883234
0.00863003
0.00846857
0.00832997
0.00820313
0.00808155
0.00796141
0.00783938
0.00770881
0.0538021
0.0197493
0.0150922
0.0127126
0.0112772
0.0103948
0.00983155
0.00945095
0.00917564
0.0089615
0.00878268
0.00862344
0.00847425
0.00832982
0.00818768
0.00804651
0.00789987
0.0539231
0.0200968
0.0153651
0.0130002
0.0116158
0.010774
0.0102301
0.00985013
0.00956261
0.00932862
0.00912578
0.00894056
0.00876465
0.00859327
0.00842426
0.00825868
0.00810922
0.054662
0.0205795
0.0157222
0.0133828
0.0120516
0.0112423
0.0107044
0.0103109
0.00999847
0.00973405
0.00949898
0.00928169
0.00907465
0.00887296
0.00867313
0.00847143
0.00826196
0.0559601
0.0212028
0.0161982
0.0138982
0.0126153
0.0118215
0.0112689
0.0108422
0.0104882
0.0101801
0.00990262
0.00964577
0.0094024
0.00916773
0.00893883
0.00871273
0.0084753
0.0577463
0.0219793
0.0168379
0.0145898
0.0133397
0.0125342
0.0119385
0.0114533
0.0110369
0.0106694
0.0103376
0.0100322
0.00974542
0.00947172
0.00920799
0.00895624
0.00873322
0.0599366
0.022932
0.017697
0.0155054
0.0142594
0.0134045
0.012729
0.0121539
0.011651
0.0112058
0.0108063
0.0104424
0.0101052
0.00978682
0.00948015
0.00917907
0.00887968
0.0624347
0.0241035
0.0188446
0.0166976
0.015411
0.0144581
0.0136584
0.0129561
0.0123376
0.0117941
0.0113116
0.010878
0.010483
0.0101168
0.00977058
0.00943619
0.00909364
0.0651239
0.0255712
0.0203682
0.0182256
0.0168355
0.0157248
0.014749
0.0138752
0.0131066
0.0124406
0.0118577
0.0113411
0.010878
0.0104558
0.0100643
0.00969993
0.00937803
0.0678483
0.0274708
0.0223822
0.0201611
0.0185804
0.0172413
0.0160299
0.0149321
0.01397
0.0131529
0.0124503
0.0118359
0.0112939
0.0108072
0.0103588
0.00993354
0.00952377
0.0703959
0.0300321
0.0250434
0.0225968
0.0207073
0.0190544
0.0175403
0.0161564
0.014944
0.0139396
0.013095
0.0123663
0.0117337
0.0111774
0.0106758
0.0102072
0.00974074
0.0724936
0.0336332
0.0285768
0.0256641
0.0233004
0.0212249
0.0193318
0.0175917
0.0160526
0.0148107
0.0137976
0.012935
0.0121968
0.0115597
0.010999
0.0104952
0.0100515
0.073815
0.0388882
0.0333191
0.0295624
0.026482
0.023832
0.0214683
0.0193009
0.0173345
0.0157815
0.014565
0.0135474
0.0126867
0.0119556
0.0113218
0.0107502
0.0102121
0.0740668
0.0468036
0.0397976
0.0346056
0.0304381
0.0269825
0.0240209
0.0213648
0.0188535
0.0168796
0.0154044
0.014209
0.0132081
0.0123719
0.0116646
0.0110435
0.0104484
0.00865104
0.0136468
0.0274631
0.0618989
0.132543
0.244415
0.364392
0.42834
0.404588
0.335013
0.304374
0.399995
0.548892
0.685057
0.55355
0.266099
0.0840246
0.0223034
0.00807892
0.00527195
0.00981745
0.016611
0.0350359
0.0800076
0.17082
0.312098
0.459316
0.524093
0.476386
0.389914
0.386845
0.489136
0.603041
0.658103
0.502622
0.247911
0.0836522
0.0233189
0.00850452
0.00545292
0.0112991
0.0203145
0.044335
0.102032
0.217602
0.394195
0.567892
0.62244
0.539807
0.450861
0.486483
0.565051
0.640972
0.62396
0.446994
0.221574
0.0786382
0.023207
0.00873551
0.00561116
0.0131263
0.0248059
0.0554935
0.128443
0.273495
0.491113
0.689697
0.71784
0.585616
0.521156
0.576301
0.630495
0.653417
0.572715
0.383859
0.189141
0.0698363
0.0219432
0.0087303
0.00573376
0.0153208
0.0301143
0.0686294
0.159832
0.33992
0.603742
0.821706
0.797232
0.611502
0.582608
0.629614
0.663835
0.627308
0.498816
0.313318
0.152703
0.0583579
0.0196954
0.00849637
0.0058192
0.0178801
0.0362359
0.0838445
0.196414
0.417537
0.731724
0.958276
0.84309
0.622381
0.609046
0.639401
0.635604
0.549356
0.40007
0.238372
0.11508
0.0456667
0.0168458
0.00810429
0.00588255
0.0207849
0.0431363
0.101166
0.238694
0.506851
0.872947
1.09165
0.849897
0.618419
0.592885
0.593917
0.54089
0.42491
0.285211
0.16439
0.0798672
0.0334758
0.0139248
0.00767595
0.00595314
0.0239886
0.0507275
0.120543
0.286774
0.607396
1.02317
1.21359
0.830142
0.589995
0.532417
0.490879
0.402341
0.285329
0.177978
0.0997748