/*--------------------------------*- C++ -*----------------------------------*\
  =========                 |
  \\      /  F ield         | OpenFOAM: The Open Source CFD Toolbox
   \\    /   O peration     | Website:  https://openfoam.org
    \\  /    A nd           | Version:  6
     \\/     M anipulation  |
\*---------------------------------------------------------------------------*/
FoamFile
{
    version     2.0;
    format      ascii;
    class       surfaceScalarField;
    location    "1.65";
    object      meshPhi;
}
// * * * * * * * * * * * * * * * * * * * * * * * * * * * * * * * * * * * * * //

dimensions      [0 3 -1 0 0 0 0];

internalField   nonuniform List<scalar> 
19800
(
-0.00073415
-0.00230708
-0.00125838
-0.00691092
-0.0015743
-0.0114838
-0.00168671
-0.0160053
-0.00160353
-0.0204553
-0.00133559
-0.0248141
-0.000896438
-0.0290624
-0.00030211
-0.0331817
0.000429188
-0.0371542
0.00127739
-0.0409629
0.00222091
-0.0445918
0.00323704
-0.0480256
0.00430231
-0.0512505
0.00539292
-0.0542534
0.00648509
-0.0570228
0.00755554
-0.0595482
0.00858181
-0.0618204
0.00954266
-0.0638313
0.0104184
-0.0655745
0.0111914
-0.0670447
0.011846
-0.0682377
0.0123691
-0.0691509
0.0127503
-0.0697829
0.0129822
-0.0701334
0.0130599
-0.0702034
0.0129822
-0.0699951
0.0127503
-0.0695119
0.0123691
-0.068758
0.011846
-0.0677387
0.0111914
-0.0664605
0.0104184
-0.0649306
0.00954266
-0.0631568
0.00858181
-0.0611481
0.00755554
-0.058914
0.00648509
-0.0564645
0.00539292
-0.0538104
0.00430231
-0.050963
0.00323704
-0.0479338
0.00222091
-0.0447351
0.00127739
-0.0413793
0.000429188
-0.0378792
-0.00030211
-0.0342479
-0.000896438
-0.0304985
-0.00133559
-0.0266447
-0.00160353
-0.0227
-0.00168671
-0.0186782
-0.0015743
-0.0145932
-0.00125838
-0.0104589
-0.00073415
-0.00628944
5.06619e-14
-0.00209883
0.000942403
0.00209883
0.00208811
0.00628944
0.00342892
0.0104589
0.00495349
0.0145932
0.00664745
0.0186782
0.00849361
0.0227
0.0104722
0.0266447
0.0125611
0.0304985
0.0147362
0.0342479
0.0169717
0.0378792
0.0192406
0.0413793
0.0215149
0.0447351
0.0237663
0.0479338
0.0259662
0.050963
0.0280864
0.0538104
0.0300997
0.0564645
0.0319798
0.058914
0.0337022
0.0611481
0.0352441
0.0631568
0.0365853
0.0649306
0.0377078
0.0664605
0.0385969
0.0677387
0.0392405
0.068758
0.0396302
0.0695119
0.0397607
0.0699951
0.0396302
0.0702034
0.0392405
0.0701334
0.0385969
0.0697829
0.0377078
0.0691509
0.0365853
0.0682377
0.0352441
0.0670447
0.0337022
0.0655745
0.0319798
0.0638313
0.0300997
0.0618204
0.0280864
0.0595482
0.0259662
0.0570228
0.0237663
0.0542534
0.0215149
0.0512505
0.0192406
0.0480256
0.0169717
0.0445918
0.0147362
0.0409629
0.0125611
0.0371542
0.0104722
0.0331817
0.00849361
0.0290624
0.00664745
0.0248141
0.00495349
0.0204553
0.00342892
0.0160053
0.00208811
0.0114838
0.000942403
0.00691092
0.00230708
-0.00220078
-0.00481209
-0.00377508
-0.0144124
-0.00472764
-0.0239411
-0.00507279
-0.0333513
-0.00483408
-0.0425965
-0.00404381
-0.0516318
-0.00274239
-0.0604135
-0.000977613
-0.0688998
0.00119621
-0.0770511
0.00371923
-0.0848297
0.00652708
-0.092201
0.00955201
-0.0991327
0.012724
-0.105596
0.0159721
-0.111564
0.0192253
-0.117014
0.0224142
-0.121927
0.0254718
-0.126286
0.0283346
-0.130078
0.0309442
-0.133294
0.0332475
-0.135926
0.0351982
-0.137973
0.0367572
-0.139433
0.0378933
-0.140309
0.0385842
-0.140608
0.038816
-0.140337
0.0385842
-0.139507
0.0378933
-0.138132
0.0367572
-0.136226
0.0351982
-0.133806
0.0332475
-0.130892
0.0309442
-0.127503
0.0283346
-0.123661
0.0254718
-0.119388
0.0224142
-0.114706
0.0192253
-0.109641
0.0159721
-0.104215
0.012724
-0.0984538
0.00955201
-0.0923814
0.00652708
-0.0860227
0.00371923
-0.0794019
0.00119621
-0.0725435
-0.000977613
-0.0654713
-0.00274239
-0.0582093
-0.00404381
-0.0507807
-0.00483408
-0.0432087
-0.00507279
-0.035516
-0.00472764
-0.0277249
-0.00377508
-0.0198577
-0.00220078
-0.0119363
1.49726e-13
-0.00398236
0.00282226
0.00398236
0.00625118
0.0119363
0.0102623
0.0198577
0.0148216
0.0277249
0.0198863
0.035516
0.025405
0.0432087
0.0313186
0.0507807
0.0375611
0.0582093
0.0440606
0.0654713
0.0507402
0.0725435
0.057519
0.0794019
0.0643136
0.0860227
0.0710392
0.0923814
0.0776107
0.0984538
0.0839441
0.104215
0.0899577
0.109641
0.0955735
0.114706
0.100718
0.119388
0.105323
0.123661
0.109329
0.127503
0.112682
0.130892
0.115337
0.133806
0.117259
0.136226
0.118423
0.138132
0.118813
0.139507
0.118423
0.140337
0.117259
0.140608
0.115337
0.140309
0.112682
0.139433
0.109329
0.137973
0.105323
0.135926
0.100718
0.133294
0.0955735
0.130078
0.0899577
0.126286
0.0839441
0.121927
0.0776107
0.117014
0.0710392
0.111564
0.0643136
0.105596
0.057519
0.0991327
0.0507402
0.092201
0.0440606
0.0848297
0.0375611
0.0770511
0.0313186
0.0688998
0.025405
0.0604135
0.0198863
0.0516318
0.0148216
0.0425965
0.0102623
0.0333513
0.00625118
0.0239411
0.00282226
0.0144124
0.00481209
-0.0036624
-0.00750144
-0.00629152
-0.0224638
-0.00789505
-0.0373047
-0.00849649
-0.0519445
-0.00813454
-0.0663049
-0.00686236
-0.08031
-0.00474646
-0.0938869
-0.00186554
-0.106966
0.00169095
-0.119482
0.00582443
-0.131373
0.0104289
-0.142583
0.0153926
-0.153062
0.0206003
-0.162763
0.0259349
-0.171647
0.0312797
-0.17968
0.03652
-0.186836
0.0415456
-0.193091
0.0462519
-0.198432
0.0505423
-0.202848
0.0543296
-0.206336
0.0575373
-0.208898
0.060101
-0.210543
0.0619695
-0.211282
0.0631057
-0.211134
0.0634869
-0.21012
0.0631057
-0.208265
0.0619695
-0.205599
0.060101
-0.202155
0.0575373
-0.197967
0.0543296
-0.193072
0.0505423
-0.187508
0.0462519
-0.181316
0.0415456
-0.174536
0.03652
-0.167208
0.0312797
-0.159373
0.0259349
-0.151072
0.0206003
-0.142343
0.0153926
-0.133226
0.0104289
-0.123758
0.00582443
-0.113974
0.00169095
-0.10391
-0.00186554
-0.0935985
-0.00474646
-0.0830704
-0.00686236
-0.0723556
-0.00813454
-0.0614826
-0.00849649
-0.0504783
-0.00789505
-0.0393684
-0.00629152
-0.0281774
-0.0036624
-0.0169291
2.44082e-13
-0.00564682
0.0046873
0.00564682
0.0103749
0.0169291
0.0170224
0.0281774
0.0245736
0.0393684
0.0329577
0.0504783
0.0420898
0.0614826
0.0518725
0.0723556
0.0621967
0.0830704
0.0729437
0.0935985
0.0839864
0.10391
0.0951917
0.113974
0.106422
0.123758
0.117536
0.133226
0.128396
0.142343
0.13886
0.151072
0.148796
0.159373
0.158074
0.167208
0.166573
0.174536
0.174181
0.181316
0.180798
0.187508
0.186337
0.193072
0.190723
0.197967
0.193898
0.202155
0.19582
0.205599
0.196464
0.208265
0.19582
0.21012
0.193898
0.211134
0.190723
0.211282
0.186337
0.210543
0.180798
0.208898
0.174181
0.206336
0.166573
0.202848
0.158074
0.198432
0.148796
0.193091
0.13886
0.186836
0.128396
0.17968
0.117536
0.171647
0.106422
0.162763
0.0951917
0.153062
0.0839864
0.142583
0.0729437
0.131373
0.0621967
0.119482
0.0518725
0.106966
0.0420898
0.0938869
0.0329577
0.08031
0.0245736
0.0663049
0.0170224
0.0519445
0.0103749
0.0373047
0.0046873
0.0224638
0.00750144
-0.00511563
-0.0103585
-0.00880727
-0.0310153
-0.0110853
-0.051492
-0.0119817
-0.0716705
-0.0115497
-0.0914351
-0.00986209
-0.110674
-0.00701041
-0.12928
-0.00310279
-0.147152
0.00173778
-0.164194
0.00737568
-0.180319
0.013665
-0.195446
0.0204522
-0.209504
0.0275786
-0.222429
0.034883
-0.23417
0.0422048
-0.244681
0.0493862
-0.253928
0.0562752
-0.261888
0.0627283
-0.268544
0.0686123
-0.273891
0.0738071
-0.277934
0.0782074
-0.280683
0.0817247
-0.28216
0.0842884
-0.282393
0.0858474
-0.281416
0.0863705
-0.27927
0.0858474
-0.276004
0.0842884
-0.271667
0.0817247
-0.266316
0.0782074
-0.260009
0.0738071
-0.252806
0.0686123
-0.244771
0.0627283
-0.235966
0.0562752
-0.226453
0.0493862
-0.216296
0.0422048
-0.205555
0.034883
-0.194289
0.0275786
-0.182553
0.0204522
-0.170403
0.013665
-0.157887
0.00737568
-0.145054
0.00173778
-0.131946
-0.00310279
-0.118603
-0.00701041
-0.105062
-0.00986209
-0.0913545
-0.0115497
-0.0775111
-0.0119817
-0.0635579
-0.0110853
-0.0495186
-0.00880727
-0.0354149
-0.00511563
-0.0212665
3.33381e-13
-0.00709171
0.00652779
0.00709171
0.0144336
0.0212665
0.0236614
0.0354149
0.0341335
0.0495186
0.0457522
0.0635579
0.0584003
0.0775111
0.071943
0.0913545
0.0862301
0.105062
0.101098
0.118603
0.11637
0.131946
0.131864
0.145054
0.14739
0.157887
0.162753
0.170403
0.177761
0.182553
0.192223
0.194289
0.205952
0.205555
0.218771
0.216296
0.230513
0.226453
0.241023
0.235966
0.250164
0.244771
0.257814
0.252806
0.263873
0.260009
0.268259
0.266316
0.270914
0.271667
0.271803
0.276004
0.270914
0.27927
0.268259
0.281416
0.263873
0.282393
0.257814
0.28216
0.250164
0.280683
0.241023
0.277934
0.230513
0.273891
0.218771
0.268544
0.205952
0.261888
0.192223
0.253928
0.177761
0.244681
0.162753
0.23417
0.14739
0.222429
0.131864
0.209504
0.11637
0.195446
0.101098
0.180319
0.0862301
0.164194
0.071943
0.147152
0.0584003
0.12928
0.0457522
0.110674
0.0341335
0.0914351
0.0236614
0.0716705
0.0144336
0.051492
0.00652779
0.0310153
0.0103585
-0.00655702
-0.0133636
-0.0113215
-0.0400082
-0.0143061
-0.0664059
-0.0155506
-0.0923948
-0.0151214
-0.117817
-0.0131099
-0.14252
-0.00963057
-0.166357
-0.00481924
-0.189192
0.00116979
-0.210896
0.00816623
-0.231351
0.0159869
-0.250452
0.0244389
-0.268104
0.0333228
-0.284227
0.0424363
-0.298754
0.0515773
-0.31163
0.0605478
-0.322816
0.0691567
-0.332287
0.0772235
-0.340031
0.084581
-0.346048
0.091078
-0.350353
0.0965824
-0.352973
0.100983
-0.353945
0.10419
-0.353319
0.106141
-0.351151
0.106796
-0.347508
0.106141
-0.342464
0.10419
-0.336099
0.100983
-0.328496
0.0965824
-0.319743
0.091078
-0.30993
0.084581
-0.299149
0.0772235
-0.28749
0.0691567
-0.275043
0.0605478
-0.261894
0.0515773
-0.248128
0.0424363
-0.233824
0.0333228
-0.219058
0.0244389
-0.203898
0.0159869
-0.188408
0.00816623
-0.172646
0.00116979
-0.156663
-0.00481924
-0.140502
-0.00963057
-0.124204
-0.0131099
-0.107799
-0.0151214
-0.0913157
-0.0155506
-0.0747743
-0.0143061
-0.0581923
-0.0113215
-0.0415828
-0.00655702
-0.024956
4.17324e-13
-0.00831967
0.00833416
0.00831967
0.0184021
0.024956
0.0301326
0.0415828
0.0434278
0.0581923
0.058164
0.0747743
0.0741933
0.0913157
0.0913457
0.107799
0.109432
0.124204
0.128245
0.140502
0.147563
0.156663
0.167156
0.172646
0.186784
0.188408
0.206202
0.203898
0.225168
0.219058
0.243441
0.233824
0.260786
0.248128
0.276979
0.261894
0.291809
0.275043
0.305083
0.28749
0.316627
0.299149
0.326288
0.30993
0.333939
0.319743
0.339477
0.328496
0.34283
0.336099
0.343952
0.342464
0.34283
0.347508
0.339477
0.351151
0.333939
0.353319
0.326288
0.353945
0.316627
0.352973
0.305083
0.350353
0.291809
0.346048
0.276979
0.340031
0.260786
0.332287
0.243441
0.322816
0.225168
0.31163
0.206202
0.298754
0.186784
0.284227
0.167156
0.268104
0.147563
0.250452
0.128245
0.231351
0.109432
0.210896
0.0913457
0.189192
0.0741933
0.166357
0.058164
0.14252
0.0434278
0.117817
0.0301326
0.0923948
0.0184021
0.0664059
0.00833416
0.0400082
0.0133636
-0.00798303
-0.0164944
-0.013833
-0.0493757
-0.017564
-0.0819359
-0.0192229
-0.113965
-0.0188879
-0.145256
-0.016667
-0.175614
-0.0126958
-0.204849
-0.00713514
-0.232784
-0.000167928
-0.259255
0.00800388
-0.284112
0.017163
-0.307222
0.0270803
-0.328466
0.0375194
-0.347745
0.04824
-0.364978
0.0590022
-0.380102
0.0695708
-0.393073
0.079719
-0.403866
0.0892323
-0.412474
0.0979121
-0.41891
0.105579
-0.423201
0.112076
-0.425392
0.117271
-0.425543
0.121058
-0.423728
0.123362
-0.420032
0.124135
-0.414553
0.123362
-0.407395
0.121058
-0.398671
0.117271
-0.388501
0.112076
-0.377005
0.105579
-0.364309
0.0979121
-0.350536
0.0892323
-0.335809
0.079719
-0.320248
0.0695708
-0.303968
0.0590022
-0.28708
0.04824
-0.269685
0.0375194
-0.251878
0.0270803
-0.233747
0.017163
-0.215366
0.00800388
-0.196805
-0.000167928
-0.178119
-0.00713514
-0.159357
-0.0126958
-0.140557
-0.016667
-0.121747
-0.0188879
-0.102948
-0.0192229
-0.0841729
-0.017564
-0.0654263
-0.013833
-0.0467085
-0.00798303
-0.0280146
4.95687e-13
-0.00933636
0.0100971
0.00933636
0.022256
0.0280146
0.0363914
0.0467085
0.0523859
0.0654263
0.0700917
0.0841729
0.0893323
0.102948
0.109905
0.121747
0.131583
0.140557
0.15412
0.159357
0.177253
0.178119
0.200706
0.196805
0.224192
0.215366
0.247422
0.233747
0.270105
0.251878
0.291954
0.269685
0.31269
0.28708
0.332046
0.303968
0.349772
0.320248
0.365636
0.335809
0.37943
0.350536
0.390974
0.364309
0.400115
0.377005
0.406732
0.388501
0.410738
0.398671
0.412079
0.407395
0.410738
0.414553
0.406732
0.420032
0.400115
0.423728
0.390974
0.425543
0.37943
0.425392
0.365636
0.423201
0.349772
0.41891
0.332046
0.412474
0.31269
0.403866
0.291954
0.393073
0.270105
0.380102
0.247422
0.364978
0.224192
0.347745
0.200706
0.328466
0.177253
0.307222
0.15412
0.284112
0.131583
0.259255
0.109905
0.232784
0.0893323
0.204849
0.0700917
0.175614
0.0523859
0.145256
0.0363914
0.113965
0.022256
0.0819359
0.0100971
0.0493757
0.0164944
-0.00939004
-0.019726
-0.0163396
-0.0590436
-0.0208639
-0.0979592
-0.0230154
-0.13621
-0.0228826
-0.173539
-0.020588
-0.2097
-0.0162857
-0.244458
-0.0101586
-0.277595
-0.00241515
-0.308907
0.00671469
-0.338209
0.0169832
-0.365339
0.0281294
-0.390153
0.0398834
-0.412533
0.0519712
-0.432384
0.0641193
-0.449633
0.0760592
-0.464235
0.0875322
-0.476166
0.0982934
-0.485428
0.108116
-0.492045
0.116796
-0.496063
0.124154
-0.497548
0.130038
-0.496587
0.134328
-0.493282
0.136938
-0.487752
0.137813
-0.480127
0.136938
-0.470552
0.134328
-0.459175
0.130038
-0.446156
0.124154
-0.431655
0.116796
-0.415833
0.108116
-0.398854
0.0982934
-0.380875
0.0875322
-0.362051
0.0760592
-0.342527
0.0641193
-0.322441
0.0519712
-0.301921
0.0398834
-0.281083
0.0281294
-0.26003
0.0169832
-0.238853
0.00671469
-0.217627
-0.00241515
-0.196416
-0.0101586
-0.175267
-0.0162857
-0.154217
-0.020588
-0.133288
-0.0228826
-0.11249
-0.0230154
-0.0918234
-0.0208639
-0.071277
-0.0163396
-0.0508332
-0.00939004
-0.0304674
5.68204e-13
-0.0101503
0.0118078
0.0101503
0.0259724
0.0304674
0.0423952
0.0508332
0.0609412
0.071277
0.0814402
0.0918234
0.103689
0.11249
0.127456
0.133288
0.152479
0.154217
0.178478
0.175267
0.205148
0.196416
0.232175
0.217627
0.25923
0.238853
0.28598
0.26003
0.312093
0.281083
0.33724
0.301921
0.361101
0.322441
0.38337
0.342527
0.403759
0.362051
0.422005
0.380875
0.437869
0.398854
0.451143
0.415833
0.461654
0.431655
0.469262
0.446156
0.473867
0.459175
0.475409
0.470552
0.473867
0.480127
0.469262
0.487752
0.461654
0.493282
0.451143
0.496587
0.437869
0.497548
0.422005
0.496063
0.403759
0.492045
0.38337
0.485428
0.361101
0.476166
0.33724
0.464235
0.312093
0.449633
0.28598
0.432384
0.25923
0.412533
0.232175
0.390153
0.205148
0.365339
0.178478
0.338209
0.152479
0.308907
0.127456
0.277595
0.103689
0.244458
0.0814402
0.2097
0.0609412
0.173539
0.0423952
0.13621
0.0259724
0.0979592
0.0118078
0.0590436
0.019726
-0.0107743
-0.0230314
-0.0188387
-0.068931
-0.0242088
-0.114342
-0.0269413
-0.158945
-0.0271332
-0.20243
-0.024919
-0.244497
-0.0204685
-0.284864
-0.0139834
-0.323264
-0.00569373
-0.359456
0.00414646
-0.393217
0.0152634
-0.424353
0.0273686
-0.452697
0.0401635
-0.478108
0.053345
-0.500479
0.0666106
-0.519729
0.079663
-0.535811
0.092216
-0.548704
0.103999
-0.55842
0.11476
-0.564999
0.124273
-0.568507
0.13234
-0.569035
0.138793
-0.566699
0.143499
-0.561636
0.146362
-0.553998
0.147323
-0.543959
0.146362
-0.5317
0.143499
-0.517415
0.138793
-0.501304
0.13234
-0.483572
0.124273
-0.464423
0.11476
-0.444059
0.103999
-0.422679
0.092216
-0.400471
0.079663
-0.377618
0.0666106
-0.354285
0.053345
-0.330627
0.0401635
-0.306783
0.0273686
-0.282873
0.0152634
-0.259
0.00414646
-0.235251
-0.00569373
-0.211691
-0.0139834
-0.188369
-0.0204685
-0.165315
-0.024919
-0.142543
-0.0271332
-0.120049
-0.0269413
-0.0978174
-0.0242088
-0.0758181
-0.0188387
-0.054011
-0.0107743
-0.0323474
6.34673e-13
-0.0107725
0.0134575
0.0107725
0.0295292
0.0323474
0.0481044
0.054011
0.0690318
0.0758181
0.092121
0.0978174
0.117146
0.120049
0.143846
0.142543
0.171932
0.165315
0.20109
0.188369
0.230981
0.211691
0.261255
0.235251
0.291545
0.259
0.321483
0.282873
0.350697
0.306783
0.378822
0.330627
0.405502
0.354285
0.430396
0.377618
0.453185
0.400471
0.473574
0.422679
0.4913
0.444059
0.50613
0.464423
0.517872
0.483572
0.526371
0.501304
0.531515
0.517415
0.533238
0.5317
0.531515
0.543959
0.526371
0.553998
0.517872
0.561636
0.50613
0.566699
0.4913
0.569035
0.473574
0.568507
0.453185
0.564999
0.430396
0.55842
0.405502
0.548704
0.378822
0.535811
0.350697
0.519729
0.321483
0.500479
0.291545
0.478108
0.261255
0.452697
0.230981
0.424353
0.20109
0.393217
0.171932
0.359456
0.143846
0.323264
0.117146
0.284864
0.092121
0.244497
0.0690318
0.20243
0.0481044
0.158945
0.0295292
0.114342
0.0134575
0.068931
0.0230314
-0.0121319
-0.0263817
-0.0213267
-0.0789515
-0.0275994
-0.130942
-0.0310098
-0.181975
-0.031661
-0.231681
-0.029697
-0.279708
-0.0253
-0.325721
-0.0186868
-0.369408
-0.010105
-0.410481
0.000171787
-0.448683
0.0118486
-0.483787
0.0246143
-0.515599
0.038147
-0.543959
0.0521196
-0.568744
0.0662055
-0.589869
0.0800841
-0.607282
0.0934462
-0.620971
0.105999
-0.630958
0.117472
-0.6373
0.12762
-0.640086
0.136229
-0.639435
0.143118
-0.635496
0.148144
-0.628441
0.151201
-0.618464
0.152228
-0.605779
0.151201
-0.590614
0.148144
-0.573207
0.143118
-0.553806
0.136229
-0.53266
0.12762
-0.510021
0.117472
-0.486133
0.105999
-0.461237
0.0934462
-0.435562
0.0800841
-0.409323
0.0662055
-0.38272
0.0521196
-0.355934
0.038147
-0.329126
0.0246143
-0.302436
0.0118486
-0.275981
0.000171787
-0.249852
-0.010105
-0.224121
-0.0186868
-0.198833
-0.0253
-0.174012
-0.029697
-0.149658
-0.031661
-0.125756
-0.0310098
-0.102267
-0.0275994
-0.0791392
-0.0213267
-0.0563074
-0.0121319
-0.0336946
6.9492e-13
-0.0112164
0.0150383
0.0112164
0.0329064
0.0336946
0.0534826
0.0563074
0.076601
0.0791392
0.102054
0.102267
0.129595
0.125756
0.158939
0.149658
0.189773
0.174012
0.221753
0.198833
0.254513
0.224121
0.287669
0.249852
0.320825
0.275981
0.35358
0.302436
0.385529
0.329126
0.416276
0.355934
0.445434
0.38272
0.472634
0.409323
0.497528
0.435562
0.519796
0.461237
0.539153
0.486133
0.555346
0.510021
0.568165
0.53266
0.577443
0.553806
0.583058
0.573207
0.584938
0.590614
0.583058
0.605779
0.577443
0.618464
0.568165
0.628441
0.555346
0.635496
0.539153
0.639435
0.519796
0.640086
0.497528
0.6373
0.472634
0.630958
0.445434
0.620971
0.416276
0.607282
0.385529
0.589869
0.35358
0.568744
0.320825
0.543959
0.287669
0.515599
0.254513
0.483787
0.221753
0.448683
0.189773
0.410481
0.158939
0.369408
0.129595
0.325721
0.102054
0.279708
0.076601
0.231681
0.0534826
0.181975
0.0329064
0.130942
0.0150383
0.0789515
0.0263817
-0.0134588
-0.0297465
-0.0237989
-0.0890143
-0.0310341
-0.147609
-0.0352254
-0.20509
-0.0364799
-0.26103
-0.0349483
-0.315019
-0.0308217
-0.36667
-0.024328
-0.415621
-0.0157277
-0.461542
-0.00530927
-0.504135
0.00661627
-0.543142
0.0197206
-0.57834
0.033664
-0.609552
0.0481011
-0.636639
0.0626868
-0.65951
0.0770823
-0.678113
0.0909609
-0.692442
0.104013
-0.702534
0.115953
-0.708462
0.126522
-0.710342
0.135492
-0.708323
0.142674
-0.702588
0.147914
-0.693349
0.151103
-0.680843
0.152173
-0.665327
0.151103
-0.647078
0.147914
-0.626383
0.142674
-0.603538
0.135492
-0.578842
0.126522
-0.552594
0.115953
-0.525085
0.104013
-0.496599
0.0909609
-0.467406
0.0770823
-0.437758
0.0626868
-0.407888
0.0481011
-0.378006
0.033664
-0.348297
0.0197206
-0.318917
0.00661627
-0.289998
-0.00530927
-0.261638
-0.0157277
-0.23391
-0.024328
-0.206857
-0.0308217
-0.180493
-0.0349483
-0.154807
-0.0364799
-0.129762
-0.0352254
-0.1053
-0.0310341
-0.0813439
-0.0237989
-0.057798
-0.0134588
-0.0345549
7.48866e-13
-0.0114975
0.0165425
0.0114975
0.0360852
0.0345549
0.0584966
0.057798
0.0835985
0.0813439
0.111168
0.1053
0.140941
0.129762
0.172615
0.154807
0.205854
0.180493
0.24029
0.206857
0.275534
0.23391
0.311177
0.261638
0.346797
0.289998
0.381965
0.318917
0.416252
0.348297
0.449234
0.378006
0.480501
0.407888
0.509659
0.437758
0.536339
0.467406
0.5602
0.496599
0.580936
0.525085
0.598281
0.552594
0.61201
0.578842
0.621946
0.603538
0.627959
0.626383
0.629973
0.647078
0.627959
0.665327
0.621946
0.680843
0.61201
0.693349
0.598281
0.702588
0.580936
0.708323
0.5602
0.710342
0.536339
0.708462
0.509659
0.702534
0.480501
0.692442
0.449234
0.678113
0.416252
0.65951
0.381965
0.636639
0.346797
0.609552
0.311177
0.57834
0.275534
0.543142
0.24029
0.504135
0.205854
0.461542
0.172615
0.415621
0.140941
0.36667
0.111168
0.315019
0.0835985
0.26103
0.0584966
0.20509
0.0360852
0.147609
0.0165425
0.0890143
0.0297465
-0.0147508
-0.0330943
-0.0262499
-0.0990254
-0.0345086
-0.164187
-0.0395879
-0.228076
-0.0415964
-0.290205
-0.0406883
-0.350106
-0.03706
-0.407337
-0.0309463
-0.461487
-0.0226159
-0.512181
-0.0123669
-0.559084
-0.000520974
-0.6019
0.0125823
-0.640385
0.026591
-0.674337
0.0411474
-0.703607
0.0558941
-0.728096
0.0704798
-0.747754
0.0845657
-0.762582
0.0978312
-0.77263
0.109979
-0.777993
0.120742
-0.778814
0.129883
-0.775273
0.137204
-0.767589
0.142549
-0.756015
0.145802
-0.740834
0.146894
-0.72235
0.145802
-0.700889
0.142549
-0.676788
0.137204
-0.650395
0.129883
-0.622059
0.120742
-0.592129
0.109979
-0.560945
0.0978312
-0.528835
0.0845657
-0.496111
0.0704798
-0.463064
0.0558941
-0.429961
0.0411474
-0.397039
0.026591
-0.364507
0.0125823
-0.332542
-0.000520974
-0.301285
-0.0123669
-0.270843
-0.0226159
-0.24129
-0.0309463
-0.212664
-0.03706
-0.184969
-0.0406883
-0.158179
-0.0415964
-0.132237
-0.0395879
-0.107062
-0.0345086
-0.0825469
-0.0262499
-0.0585665
-0.0147508
-0.0349793
7.96539e-13
-0.0116328
0.0179632
0.0116328
0.039049
0.0349793
0.0631174
0.0585665
0.08998
0.0825469
0.119402
0.107062
0.151105
0.132237
0.184772
0.158179
0.220048
0.184969
0.256551
0.212664
0.29387
0.24129
0.331578
0.270843
0.369233
0.301285
0.406385
0.332542
0.442586
0.364507
0.477393
0.397039
0.510376
0.429961
0.541123
0.463064
0.569248
0.496111
0.594395
0.528835
0.616244
0.560945
0.634516
0.592129
0.648978
0.622059
0.659443
0.650395
0.665776
0.676788
0.667896
0.700889
0.665776
0.72235
0.659443
0.740834
0.648978
0.756015
0.634516
0.767589
0.616244
0.775273
0.594395
0.778814
0.569248
0.777993
0.541123
0.77263
0.510376
0.762582
0.477393
0.747754
0.442586
0.728096
0.406385
0.703607
0.369233
0.674337
0.331578
0.640385
0.29387
0.6019
0.256551
0.559084
0.220048
0.512181
0.184772
0.461487
0.151105
0.407337
0.119402
0.350106
0.08998
0.290205
0.0631174
0.228076
0.039049
0.164187
0.0179632
0.0990254
0.0330943
-0.0160036
-0.0363928
-0.0286729
-0.108888
-0.0380162
-0.180518
-0.0440921
-0.250714
-0.0470088
-0.318929
-0.0469206
-0.384637
-0.0440254
-0.447341
-0.0385604
-0.50658
-0.0307979
-0.561935
-0.0210401
-0.61303
-0.00961338
-0.659539
0.00313696
-0.701188
0.0168533
-0.737757
0.0311716
-0.769084
0.045728
-0.795064
0.0601651
-0.815648
0.0741377
-0.830847
0.0873193
-0.840725
0.0994071
-0.845399
0.110128
-0.845038
0.119241
-0.839857
0.126546
-0.830112
0.13188
-0.816098
0.135128
-0.798144
0.136219
-0.776604
0.135128
-0.751852
0.13188
-0.724279
0.126546
-0.694284
0.119241
-0.66227
0.110128
-0.628634
0.0994071
-0.593766
0.0873193
-0.55804
0.0741377
-0.521811
0.0601651
-0.485408
0.045728
-0.449131
0.0311716
-0.413249
0.0168533
-0.377993
0.00313696
-0.343558
-0.00961338
-0.310097
-0.0210401
-0.277724
-0.0307979
-0.246513
-0.0385604
-0.216496
-0.0440254
-0.187666
-0.0469206
-0.159982
-0.0470088
-0.133365
-0.0440921
-0.107707
-0.0380162
-0.0828724
-0.0286729
-0.0587034
-0.0160036
-0.0350229
8.3769e-13
-0.0116408
0.019294
0.0116408
0.041783
0.0350229
0.0673199
0.0587034
0.0957085
0.0828724
0.126705
0.107707
0.16002
0.133365
0.195326
0.159982
0.232257
0.187666
0.270416
0.216496
0.309382
0.246513
0.348713
0.277724
0.387954
0.310097
0.426642
0.343558
0.464314
0.377993
0.500516
0.413249
0.534803
0.449131
0.566752
0.485408
0.595966
0.521811
0.622079
0.55804
0.644763
0.593766
0.663729
0.628634
0.678737
0.66227
0.689596
0.694284
0.696167
0.724279
0.698367
0.751852
0.696167
0.776604
0.689596
0.798144
0.678737
0.816098
0.663729
0.830112
0.644763
0.839857
0.622079
0.845038
0.595966
0.845399
0.566752
0.840725
0.534803
0.830847
0.500516
0.815648
0.464314
0.795064
0.426642
0.769084
0.387954
0.737757
0.348713
0.701188
0.309382
0.659539
0.270416
0.61303
0.232257
0.561935
0.195326
0.50658
0.16002
0.447341
0.126705
0.384637
0.0957085
0.318929
0.0673199
0.250714
0.041783
0.180518
0.019294
0.108888
0.0363928
-0.0172126
-0.0396096
-0.0310603
-0.118507
-0.0415469
-0.196441
-0.0487275
-0.272783
-0.0527068
-0.346923
-0.0536363
-0.418278
-0.0517114
-0.486298
-0.0471675
-0.550472
-0.040275
-0.610336
-0.0313349
-0.665475
-0.0206726
-0.71553
-0.00863287
-0.760202
0.00442707
-0.799252
0.0181434
-0.832504
0.0321521
-0.859849
0.0460955
-0.881241
0.0596282
-0.896698
0.0724231
-0.9063
0.0841771
-0.910187
0.0946162
-0.908556
0.1035
-0.901654
0.110626
-0.889778
0.115834
-0.873265
0.119006
-0.85249
0.120071
-0.827854
0.119006
-0.799785
0.115834
-0.768726
0.110626
-0.735129
0.1035
-0.699447
0.0946162
-0.662129
0.0841771
-0.623615
0.0724231
-0.584324
0.0596282
-0.544653
0.0460955
-0.504971
0.0321521
-0.465612
0.0181434
-0.426873
0.00442707
-0.389009
-0.00863287
-0.352232
-0.0206726
-0.316707
-0.0313349
-0.282554
-0.040275
-0.249846
-0.0471675
-0.218609
-0.0517114
-0.188825
-0.0536363
-0.160435
-0.0527068
-0.133337
-0.0487275
-0.107398
-0.0415469
-0.082451
-0.0310603
-0.0583039
-0.0172126
-0.0347434
8.72441e-13
-0.011541
0.0205293
0.011541
0.0442745
0.0347434
0.0710836
0.0583039
0.100754
0.082451
0.133036
0.107398
0.167635
0.133337
0.204214
0.160435
0.242403
0.188825
0.281798
0.218609
0.321969
0.249846
0.362468
0.282554
0.402832
0.316707
0.442593
0.352232
0.481281
0.389009
0.518433
0.426873
0.553601
0.465612
0.586355
0.504971
0.616293
0.544653
0.643044
0.584324
0.666274
0.623615
0.685693
0.662129
0.701056
0.699447
0.712171
0.735129
0.718896
0.768726
0.721148
0.799785
0.718896
0.827854
0.712171
0.85249
0.701056
0.873265
0.685693
0.889778
0.666274
0.901654
0.643044
0.908556
0.616293
0.910187
0.586355
0.9063
0.553601
0.896698
0.518433
0.881241
0.481281
0.859849
0.442593
0.832504
0.402832
0.799252
0.362468
0.760202
0.321969
0.71553
0.281798
0.665475
0.242403
0.610336
0.204214
0.550472
0.167635
0.486298
0.133036
0.418278
0.100754
0.346923
0.0710836
0.272783
0.0442745
0.196441
0.0205293
0.118507
0.0396096
-0.0183734
-0.0427124
-0.0334032
-0.127783
-0.0450883
-0.211797
-0.0534782
-0.294062
-0.0586717
-0.373909
-0.0608143
-0.450699
-0.0600951
-0.523828
-0.0567427
-0.592737
-0.0510211
-0.656918
-0.0432242
-0.715919
-0.033671
-0.76935
-0.0226991
-0.816884
-0.0106594
-0.858266
0.00209095
-0.893307
0.0151942
-0.921894
0.0282985
-0.943982
0.0410642
-0.9596
0.0531694
-0.968844
0.0643156
-0.971875
0.074233
-0.968918
0.0826849
-0.960255
0.0894721
-0.94622
0.0944359
-0.927194
0.0974608
-0.903597
0.0984769
-0.87588
0.0974608
-0.844521
0.0944359
-0.810014
0.0894721
-0.772864
0.0826849
-0.733576
0.074233
-0.69265
0.0643156
-0.650573
0.0531694
-0.60781
0.0410642
-0.564801
0.0282985
-0.521952
0.0151942
-0.47963
0.00209095
-0.43816
-0.0106594
-0.397821
-0.0226991
-0.358842
-0.033671
-0.321398
-0.0432242
-0.285616
-0.0510211
-0.251567
-0.0567427
-0.219269
-0.0600951
-0.188694
-0.0608143
-0.159763
-0.0586717
-0.132354
-0.0534782
-0.106304
-0.0450883
-0.0814173
-0.0334032
-0.0574661
-0.0183734
-0.0342006
9.00902e-13
-0.0113533
0.0216639
0.0113533
0.0465133
0.0342006
0.0743921
0.0574661
0.105095
0.0814173
0.138368
0.106304
0.173914
0.132354
0.211396
0.159763
0.250439
0.188694
0.290639
0.219269
0.331567
0.251567
0.372771
0.285616
0.41379
0.321398
0.454154
0.358842
0.493395
0.397821
0.531049
0.43816
0.566669
0.47963
0.599826
0.521952
0.630116
0.564801
0.657171
0.60781
0.680657
0.650573
0.700285
0.69265
0.71581
0.733576
0.72704
0.772864
0.733835
0.810014
0.736109
0.844521
0.733835
0.87588
0.72704
0.903597
0.71581
0.927194
0.700285
0.94622
0.680657
0.960255
0.657171
0.968918
0.630116
0.971875
0.599826
0.968844
0.566669
0.9596
0.531049
0.943982
0.493395
0.921894
0.454154
0.893307
0.41379
0.858266
0.372771
0.816884
0.331567
0.76935
0.290639
0.715919
0.250439
0.656918
0.211396
0.592737
0.173914
0.523828
0.138368
0.450699
0.105095
0.373909
0.0743921
0.294062
0.0465133
0.211797
0.0216639
0.127783
0.0427124
-0.0194811
-0.0456695
-0.0356918
-0.136624
-0.048625
-0.226429
-0.0583229
-0.314335
-0.0648762
-0.399614
-0.0684209
-0.481572
-0.069136
-0.559555
-0.0672391
-0.632957
-0.0629824
-0.701227
-0.0566477
-0.763877
-0.0485412
-0.820486
-0.038988
-0.870704
-0.0283257
-0.914257
-0.0168991
-0.950946
-0.00505308
-0.980653
0.00687246
-1.00334
0.0185493
-1.01903
0.0296662
-1.02786
0.0399347
-1.02999
0.0490938
-1.02569
0.0569145
-1.01526
0.0632039
-0.999083
0.0678083
-0.977576
0.0706161
-0.951206
0.0715596
-0.920471
0.0706161
-0.8859
0.0678083
-0.848037
0.0632039
-0.807436
0.0569145
-0.764655
0.0490938
-0.720243
0.0399347
-0.674731
0.0296662
-0.628632
0.0185493
-0.582425
0.00687246
-0.536553
-0.00505308
-0.491416
-0.0168991
-0.447365
-0.0283257
-0.404702
-0.038988
-0.363671
-0.0485412
-0.32446
-0.0566477
-0.287198
-0.0629824
-0.251956
-0.0672391
-0.218745
-0.069136
-0.187524
-0.0684209
-0.158196
-0.0648762
-0.130616
-0.0583229
-0.104596
-0.048625
-0.0799072
-0.0356918
-0.056289
-0.0194811
-0.0334546
9.23036e-13
-0.011098
0.0226935
0.011098
0.0484909
0.0334546
0.0772337
0.056289
0.108715
0.0799072
0.142682
0.104596
0.178838
0.130616
0.216848
0.158196
0.256341
0.187524
0.296917
0.218745
0.338151
0.251956
0.379598
0.287198
0.420803
0.32446
0.461302
0.363671
0.500633
0.404702
0.538341
0.447365
0.573983
0.491416
0.60714
0.536553
0.637413
0.582425
0.664439
0.628632
0.687891
0.674731
0.707484
0.720243
0.722978
0.764655
0.734183
0.807436
0.740962
0.848037
0.743231
0.8859
0.740962
0.920471
0.734183
0.951206
0.722978
0.977576
0.707484
0.999083
0.687891
1.01526
0.664439
1.02569
0.637413
1.02999
0.60714
1.02786
0.573983
1.01903
0.538341
1.00334
0.500633
0.980653
0.461302
0.950946
0.420803
0.914257
0.379598
0.870704
0.338151
0.820486
0.296917
0.763877
0.256341
0.701227
0.216848
0.632957
0.178838
0.559555
0.142682
0.481572
0.108715
0.399614
0.0772337
0.314335
0.0484909
0.226429
0.0226935
0.136624
0.0456695
-0.0205309
-0.0484502
-0.0379153
-0.144937
-0.0521389
-0.240187
-0.0632354
-0.333394
-0.0712846
-0.423775
-0.0764103
-0.510585
-0.0787774
-0.593119
-0.0785881
-0.670728
-0.0760781
-0.742822
-0.0715118
-0.808877
-0.0651771
-0.868444
-0.0573802
-0.921149
-0.0484401
-0.966701
-0.0386822
-1.00489
-0.0284332