/*--------------------------------*- C++ -*----------------------------------*\
  =========                 |
  \\      /  F ield         | OpenFOAM: The Open Source CFD Toolbox
   \\    /   O peration     | Website:  https://openfoam.org
    \\  /    A nd           | Version:  6
     \\/     M anipulation  |
\*---------------------------------------------------------------------------*/
FoamFile
{
    version     2.0;
    format      ascii;
    class       volScalarField;
    location    "4.11";
    object      rho;
}
// * * * * * * * * * * * * * * * * * * * * * * * * * * * * * * * * * * * * * //

dimensions      [1 -3 0 0 0 0 0];

internalField   nonuniform List<scalar> 
22500
(
1.4
1.4
1.4
1.4
1.40001
1.4
1.40001
1.4
1.40001
1.4
1.40001
1.4
1.40001
1.40001
1.4
1.40001
1.4
1.40001
1.4
1.4
1.40001
1.4
1.40001
1.40001
1.4
1.40001
1.40001
1.4
1.40001
1.4
1.4
1.40001
1.40001
1.4
1.40001
1.40001
1.4
1.4
1.40001
1.40001
1.4
1.40001
1.4
1.4
1.40001
1.4
1.40001
1.4
1.40001
1.40001
1.40001
1.4
1.40001
1.40001
1.40001
1.40001
1.40001
1.40001
1.40001
1.40001
1.40001
1.40001
1.40001
1.40001
1.40001
1.40001
1.40001
1.40001
1.40001
1.4
1.4
1.4
1.4
1.39999
1.39999
1.39999
1.39998
1.39998
1.39997
1.39998
1.39998
1.39999
1.40001
1.40004
1.40009
1.40014
1.40021
1.40029
1.40039
1.4005
1.40062
1.40075
1.40089
1.40104
1.40118
1.40133
1.40147
1.40159
1.4017
1.4018
1.40187
1.40192
1.40195
1.40195
1.40193
1.40189
1.40182
1.40174
1.40164
1.40153
1.40141
1.40129
1.40117
1.40104
1.40092
1.40081
1.4007
1.4006
1.40051
1.40043
1.40036
1.4003
1.40025
1.4002
1.40016
1.40013
1.4001
1.40008
1.40006
1.40005
1.40003
1.40003
1.40002
1.40001
1.40001
1.40001
1.40001
1.4
1.4
1.4
1.4
1.4
1.4
1.4
1.4
1.4
1.4
1.4
1.4
1.4
1.4
1.4
1.4
1.40001
1.4
1.40001
1.4
1.40001
1.4
1.40001
1.40001
1.40001
1.4
1.40001
1.4
1.40001
1.40001
1.4
1.40001
1.4
1.40001
1.40001
1.4
1.40001
1.40001
1.4
1.40001
1.40001
1.4
1.40001
1.40001
1.4
1.40001
1.4
1.40001
1.40001
1.40001
1.4
1.4
1.40001
1.4
1.4
1.40001
1.4
1.40001
1.4
1.40001
1.4
1.40001
1.40001
1.40001
1.4
1.40001
1.4
1.40001
1.40001
1.40001
1.40001
1.40001
1.40001
1.40001
1.40001
1.40001
1.40001
1.40001
1.40001
1.40001
1.40001
1.40001
1.40001
1.4
1.4
1.4
1.39999
1.39999
1.39999
1.39998
1.39998
1.39998
1.39999
1.40001
1.40003
1.40007
1.40012
1.40019
1.40027
1.40037
1.4005
1.40064
1.4008
1.40098
1.40117
1.40137
1.40157
1.40178
1.40197
1.40216
1.40233
1.40248
1.40261
1.4027
1.40276
1.40279
1.40279
1.40276
1.40269
1.40259
1.40247
1.40232
1.40216
1.40199
1.40181
1.40163
1.40145
1.40128
1.40112
1.40096
1.40082
1.4007
1.40058
1.40048
1.4004
1.40033
1.40026
1.40021
1.40017
1.40013
1.4001
1.40008
1.40006
1.40004
1.40003
1.40002
1.40002
1.40001
1.40001
1.40001
1.4
1.4
1.4
1.4
1.4
1.4
1.4
1.4
1.4
1.4
1.4
1.4
1.4
1.4
1.4
1.4
1.4
1.4
1.40001
1.40001
1.4
1.40001
1.40001
1.40001
1.40001
1.4
1.40001
1.40001
1.4
1.40001
1.4
1.40001
1.40001
1.4
1.40001
1.40001
1.4
1.40001
1.40001
1.4
1.40001
1.40001
1.4
1.40001
1.4
1.40001
1.4
1.40001
1.40001
1.4
1.40001
1.40001
1.40001
1.4
1.40001
1.40001
1.4
1.40001
1.40001
1.4
1.40001
1.40001
1.40001
1.4
1.40001
1.40001
1.4
1.40001
1.40001
1.40001
1.40001
1.40001
1.40001
1.40001
1.40001
1.40001
1.40001
1.40001
1.40001
1.40001
1.40001
1.40001
1.40001
1.40001
1.4
1.4
1.4
1.39999
1.39999
1.39999
1.39999
1.4
1.40002
1.40005
1.4001
1.40016
1.40024
1.40034
1.40047
1.40062
1.4008
1.40101
1.40124
1.40149
1.40176
1.40204
1.40232
1.4026
1.40287
1.40312
1.40335
1.40355
1.40372
1.40384
1.40392
1.40395
1.40394
1.40388
1.40378
1.40364
1.40346
1.40326
1.40303
1.40279
1.40254
1.40228
1.40203
1.40178
1.40155
1.40133
1.40113
1.40095
1.4008
1.40066
1.40054
1.40043
1.40035
1.40027
1.40022
1.40017
1.40013
1.40009
1.40007
1.40005
1.40004
1.40003
1.40002
1.40001
1.40001
1.4
1.4
1.4
1.4
1.4
1.4
1.4
1.4
1.4
1.4
1.4
1.4
1.4
1.4
1.4
1.4
1.4
1.4
1.4
1.40001
1.4
1.40001
1.40001
1.40001
1.4
1.40001
1.4
1.40001
1.4
1.40001
1.40001
1.4
1.40001
1.4
1.40001
1.40001
1.4
1.40001
1.40001
1.4
1.40001
1.4
1.40001
1.40001
1.4
1.40001
1.4
1.40001
1.4
1.40001
1.40001
1.4
1.4
1.40001
1.4
1.4
1.40001
1.4
1.4
1.40001
1.40001
1.4
1.40001
1.40001
1.4
1.4
1.40001
1.40001
1.40001
1.40001
1.40001
1.40001
1.40001
1.40001
1.40001
1.40001
1.40001
1.40001
1.40001
1.40001
1.40001
1.40001
1.40001
1.40001
1.40001
1.40001
1.4
1.4
1.4
1.4
1.40001
1.40002
1.40004
1.40007
1.40012
1.40019
1.40029
1.40041
1.40057
1.40076
1.40098
1.40124
1.40154
1.40186
1.40221
1.40258
1.40296
1.40335
1.40373
1.40409
1.40443
1.40474
1.405
1.40521
1.40537
1.40547
1.40551
1.40548
1.4054
1.40526
1.40506
1.40481
1.40453
1.40421
1.40387
1.40352
1.40316
1.40281
1.40247
1.40214
1.40184
1.40156
1.40131
1.40109
1.40089
1.40073
1.40058
1.40046
1.40036
1.40028
1.40022
1.40016
1.40012
1.40009
1.40006
1.40004
1.40003
1.40002
1.40001
1.40001
1.4
1.4
1.4
1.4
1.4
1.4
1.4
1.4
1.4
1.4
1.4
1.4
1.4
1.4
1.4
1.4
1.4
1.4
1.4
1.4
1.40001
1.4
1.40001
1.40001
1.4
1.40001
1.4
1.40001
1.40001
1.4
1.40001
1.4
1.40001
1.40001
1.4
1.40001
1.40001
1.4
1.40001
1.40001
1.4
1.40001
1.40001
1.4
1.40001
1.40001
1.4
1.4
1.40001
1.4
1.4
1.40001
1.4
1.40001
1.40001
1.4
1.4
1.40001
1.4
1.4
1.40001
1.40001
1.4
1.40001
1.4
1.40001
1.40001
1.4
1.40001
1.40001
1.40001
1.40001
1.40001
1.40001
1.40001
1.40001
1.40001
1.40001
1.40001
1.40001
1.40001
1.40001
1.40001
1.40001
1.40001
1.40001
1.40001
1.40001
1.40001
1.40002
1.40003
1.40005
1.40009
1.40015
1.40023
1.40034
1.40049
1.40067
1.4009
1.40117
1.40149
1.40186
1.40227
1.40272
1.4032
1.4037
1.40422
1.40473
1.40524
1.40572
1.40617
1.40657
1.40691
1.40719
1.40739
1.40751
1.40756
1.40752
1.4074
1.4072
1.40693
1.4066
1.40622
1.40579
1.40533
1.40485
1.40436
1.40387
1.4034
1.40295
1.40253
1.40215
1.4018
1.40149
1.40122
1.40099
1.40079
1.40062
1.40049
1.40038
1.40029
1.40021
1.40016
1.40011
1.40008
1.40005
1.40004
1.40002
1.40001
1.40001
1.4
1.4
1.4
1.4
1.4
1.4
1.4
1.4
1.4
1.4
1.4
1.4
1.4
1.4
1.4
1.4
1.4
1.4
1.4
1.4
1.4
1.40001
1.4
1.40001
1.4
1.40001
1.40001
1.4
1.40001
1.4
1.40001
1.40001
1.4
1.40001
1.40001
1.4
1.40001
1.40001
1.4
1.40001
1.40001
1.4
1.40001
1.40001
1.4
1.40001
1.40001
1.4
1.4
1.40001
1.4
1.4
1.40001
1.4
1.4
1.40001
1.4
1.40001
1.4
1.40001
1.40001
1.4
1.40001
1.40001
1.4
1.4
1.40001
1.40001
1.40001
1.40001
1.40001
1.40001
1.40001
1.40001
1.40001
1.40001
1.40001
1.40001
1.40002
1.40002
1.40002
1.40002
1.40002
1.40002
1.40002
1.40002
1.40002
1.40002
1.40003
1.40004
1.40007
1.40011
1.40018
1.40027
1.40039
1.40056
1.40077
1.40104
1.40137
1.40175
1.4022
1.40271
1.40327
1.40388
1.40452
1.4052
1.40588
1.40656
1.40723
1.40785
1.40843
1.40895
1.40939
1.40974
1.40999
1.41015
1.4102
1.41014
1.40998
1.40972
1.40937
1.40893
1.40842
1.40785
1.40724
1.4066
1.40594
1.40529
1.40465
1.40404
1.40347
1.40294
1.40246
1.40204
1.40167
1.40134
1.40107
1.40084
1.40066
1.4005
1.40038
1.40028
1.40021
1.40015
1.4001
1.40007
1.40004
1.40003
1.40001
1.40001
1.4
1.4
1.4
1.4
1.4
1.4
1.4
1.4
1.4
1.4
1.4
1.4
1.4
1.4
1.4
1.4
1.4
1.4
1.4
1.4
1.40001
1.4
1.40001
1.40001
1.4
1.40001
1.4
1.40001
1.40001
1.4
1.40001
1.4
1.40001
1.40001
1.40001
1.4
1.40001
1.4
1.40001
1.40001
1.40001
1.4
1.40001
1.40001
1.4
1.40001
1.40001
1.4
1.40001
1.4
1.40001
1.4
1.4
1.40001
1.40001
1.4
1.40001
1.40001
1.4
1.4
1.40001
1.40001
1.4
1.40001
1.40001
1.4
1.40001
1.40001
1.40001
1.40001
1.40001
1.40001
1.40001
1.40001
1.40001
1.40001
1.40001
1.40002
1.40002
1.40002
1.40002
1.40002
1.40002
1.40002
1.40003
1.40003
1.40003
1.40004
1.40006
1.40009
1.40013
1.4002
1.4003
1.40044
1.40062
1.40087
1.40118
1.40155
1.40201
1.40255
1.40316
1.40385
1.4046
1.40542
1.40627
1.40716
1.40805
1.40893
1.40978
1.41058
1.41132
1.41197
1.41252
1.41296
1.41328
1.41347
1.41353
1.41345
1.41325
1.41291
1.41246
1.4119
1.41125
1.41051
1.40971
1.40888
1.40801
1.40715
1.4063
1.40548
1.40471
1.404
1.40335
1.40278
1.40227
1.40183
1.40146
1.40115
1.40089
1.40068
1.40051
1.40038
1.40028
1.4002
1.40014
1.40009
1.40006
1.40003
1.40002
1.40001
1.4
1.4
1.4
1.39999
1.4
1.4
1.4
1.4
1.4
1.4
1.4
1.4
1.4
1.4
1.4
1.4
1.4
1.4
1.4
1.4
1.4
1.40001
1.4
1.40001
1.4
1.40001
1.40001
1.4
1.40001
1.4
1.40001
1.40001
1.4
1.40001
1.40001
1.4
1.40001
1.40001
1.4
1.40001
1.40001
1.4
1.40001
1.40001
1.4
1.4
1.40001
1.4
1.40001
1.40001
1.4
1.40001
1.40001
1.4
1.40001
1.40001
1.4
1.4
1.40001
1.4
1.40001
1.40001
1.40001
1.4
1.40001
1.40001
1.40001
1.40001
1.40001
1.40001
1.40001
1.40001
1.40001
1.40001
1.40001
1.40001
1.40002
1.40002
1.40002
1.40002
1.40003
1.40003
1.40003
1.40003
1.40004
1.40004
1.40005
1.40007
1.4001
1.40015
1.40022
1.40033
1.40048
1.40068
1.40095
1.4013
1.40173
1.40226
1.40289
1.40361
1.40444
1.40536
1.40636
1.40742
1.40853
1.40967
1.41081
1.41193
1.413
1.414
1.41491
1.41571
1.41638
1.41692
1.4173
1.41753
1.4176
1.41751
1.41726
1.41685
1.41629
1.41559
1.41478
1.41385
1.41284
1.41177
1.41067
1.40955
1.40844
1.40737
1.40635
1.40541
1.40454
1.40376
1.40308
1.40249
1.40198
1.40156
1.40121
1.40092
1.40069
1.40051
1.40037
1.40026
1.40018
1.40012
1.40008
1.40004
1.40002
1.40001
1.4
1.39999
1.39999
1.39999
1.39999
1.39999
1.4
1.4
1.4
1.4
1.4
1.4
1.4
1.4
1.4
1.4
1.4
1.4
1.4
1.4
1.4
1.4
1.40001
1.4
1.40001
1.4
1.40001
1.4
1.40001
1.40001
1.4
1.40001
1.40001
1.4
1.40001
1.4
1.4
1.40001
1.4
1.4
1.40001
1.4
1.4
1.40001
1.40001
1.4
1.40001
1.40001
1.4
1.40001
1.40001
1.4
1.40001
1.40001
1.40001
1.4
1.40001
1.40001
1.4
1.40001
1.4
1.40001
1.4
1.40001
1.40001
1.40001
1.40001
1.40001
1.40001
1.40001
1.40001
1.40001
1.40001
1.40001
1.40002
1.40002
1.40002
1.40002
1.40003
1.40003
1.40003
1.40004
1.40004
1.40005
1.40005
1.40006
1.40008
1.40011
1.40016
1.40024
1.40035
1.40051
1.40073
1.40102
1.4014
1.40189
1.40248
1.4032
1.40405
1.40502
1.40612
1.40732
1.40862
1.40998
1.41139
1.41283
1.41424
1.41562
1.41693
1.41814
1.41924
1.4202
1.421
1.42163
1.42209
1.42236
1.42244
1.42233
1.42204
1.42155
1.42089
1.42005
1.41907
1.41794
1.41671
1.41538
1.41399
1.41258
1.41117
1.40979
1.40847
1.40723
1.40609
1.40507
1.40415
1.40336
1.40268
1.40211
1.40163
1.40125
1.40094
1.40069
1.4005
1.40035
1.40024
1.40016
1.4001
1.40006
1.40003
1.40001
1.4
1.39999
1.39999
1.39999
1.39999
1.39999
1.39999
1.39999
1.4
1.4
1.4
1.4
1.4
1.4
1.4
1.4
1.4
1.4
1.4
1.4
1.4
1.40001
1.4
1.40001
1.4
1.40001
1.40001
1.4
1.40001
1.4
1.40001
1.40001
1.40001
1.4
1.40001
1.40001
1.4
1.40001
1.4
1.4
1.40001
1.40001
1.4
1.40001
1.40001
1.4
1.40001
1.40001
1.4
1.40001
1.40001
1.40001
1.4
1.40001
1.40001
1.4
1.4
1.40001
1.40001
1.4
1.4
1.40001
1.40001
1.4
1.40001
1.40001
1.40001
1.40001
1.40001
1.40001
1.40001
1.40001
1.40001
1.40001
1.40002
1.40002
1.40002
1.40003
1.40003
1.40004
1.40004
1.40005
1.40005
1.40006
1.40007
1.40009
1.40012
1.40017
1.40025
1.40036
1.40053
1.40076
1.40107
1.40148
1.40202
1.40268
1.40349
1.40445
1.40558
1.40685
1.40827
1.40982
1.41146
1.41318
1.41493
1.41668
1.4184
1.42005
1.4216
1.42303
1.4243
1.4254
1.42632
1.42704
1.42756
1.42787
1.42796
1.42784
1.42751
1.42696
1.42621
1.42525
1.42411
1.4228
1.42133
1.41974
1.41806
1.41632
1.41457
1.41283
1.41116
1.40957
1.4081
1.40675
1.40556
1.40451
1.4036
1.40284
1.40221
1.40169
1.40127
1.40094
1.40068
1.40048
1.40033
1.40022
1.40014
1.40008
1.40004
1.40002
1.4
1.39999
1.39999
1.39999
1.39999
1.39999
1.39999
1.39999
1.39999
1.4
1.4
1.4
1.4
1.4
1.4
1.4
1.4
1.4
1.4
1.4
1.4
1.4
1.4
1.4
1.40001
1.4
1.40001
1.4
1.40001
1.40001
1.40001
1.4
1.40001
1.4
1.40001
1.40001
1.4
1.40001
1.40001
1.4
1.40001
1.40001
1.4
1.40001
1.40001
1.4
1.4
1.40001
1.4
1.40001
1.40001
1.4
1.40001
1.4
1.40001
1.40001
1.4
1.40001
1.40001
1.40001
1.4
1.40001
1.40001
1.40001
1.40001
1.40001
1.40001
1.40001
1.40001
1.40001
1.40001
1.40001
1.40001
1.40002
1.40002
1.40002
1.40003
1.40003
1.40004
1.40005
1.40005
1.40006
1.40007
1.40008
1.4001
1.40013
1.40018
1.40026
1.40037
1.40054
1.40078
1.4011
1.40154
1.40211
1.40283
1.40373
1.40481
1.40608
1.40754
1.40918
1.41099
1.41292
1.41496
1.41706
1.41917
1.42126
1.42328
1.42519
1.42695
1.42856
1.42997
1.43118
1.43218
1.43296
1.43352
1.43385
1.43396
1.43383
1.43348
1.4329
1.43209
1.43105
1.4298
1.42833
1.42667
1.42484
1.42287
1.42081
1.41869
1.41657
1.41449
1.4125
1.41063
1.40891
1.40736
1.40599
1.40481
1.4038
1.40296
1.40227
1.40171
1.40127
1.40092
1.40065
1.40045
1.4003
1.40019
1.40012
1.40006
1.40003
1.4
1.39999
1.39998
1.39998
1.39998
1.39998
1.39999
1.39999
1.39999
1.39999
1.4
1.4
1.4
1.4
1.4
1.4
1.4
1.4
1.4
1.4
1.4
1.4
1.4
1.40001
1.40001
1.4
1.40001
1.40001
1.40001
1.4
1.40001
1.4
1.40001
1.4
1.4
1.40001
1.4
1.40001
1.40001
1.40001
1.4
1.40001
1.4
1.40001
1.40001
1.40001
1.4
1.40001
1.40001
1.4
1.40001
1.4
1.4
1.40001
1.40001
1.40001
1.4
1.40001
1.4
1.40001
1.4
1.40001
1.40001
1.40001
1.40001
1.40001
1.40001
1.40001
1.40001
1.40001
1.40001
1.40001
1.40002
1.40002
1.40002
1.40003
1.40003
1.40004
1.40005
1.40006
1.40006
1.40007
1.40009
1.40011
1.40014
1.40019
1.40026
1.40037
1.40054
1.40078
1.40111
1.40157
1.40217
1.40294
1.40391
1.40509
1.40651
1.40815
1.41001
1.41209
1.41433
1.4167
1.41916
1.42165
1.42411
1.4265
1.42878
1.43089
1.43281
1.43452
1.436
1.43726
1.43828
1.43906
1.43962
1.43995
1.44006
1.43994
1.4396
1.43903
1.43822
1.43718
1.43588
1.43434
1.43256
1.43056
1.42837
1.42601
1.42355
1.42104
1.41853
1.41609
1.41377
1.41161
1.40965
1.40789
1.40636
1.40505
1.40395
1.40303
1.40229
1.4017
1.40124
1.40088
1.40061
1.40041
1.40027
1.40016
1.40009
1.40004
1.40001
1.39999
1.39998
1.39998
1.39998
1.39998
1.39998
1.39998
1.39999
1.39999
1.39999
1.4
1.4
1.4
1.4
1.4
1.4
1.4
1.4
1.4
1.4
1.4
1.4
1.4
1.40001
1.4
1.40001
1.4
1.40001
1.4
1.40001
1.4
1.40001
1.40001
1.4
1.40001
1.4
1.4
1.40001
1.4
1.40001
1.40001
1.4
1.40001
1.40001
1.40001
1.40001
1.4
1.40001
1.4
1.4
1.40001
1.40001
1.40001
1.4
1.40001
1.4
1.40001
1.40001
1.4
1.40001
1.4
1.40001
1.40001
1.40001
1.40001
1.40001
1.40001
1.40001
1.40001
1.40001
1.40001
1.40002
1.40002
1.40003
1.40003
1.40004
1.40005
1.40006
1.40007
1.40008
1.40009
1.40011
1.40014
1.40019
1.40026
1.40037
1.40053
1.40077
1.4011
1.40156
1.40218
1.40299
1.40402
1.4053
1.40684
1.40866
1.41074
1.41307
1.41562
1.41834
1.42116
1.42403
1.42688
1.42964
1.43226
1.43469
1.4369
1.43886
1.44056
1.442
1.44319
1.44414
1.44485
1.44536
1.44565
1.44575
1.44566
1.44536
1.44486
1.44414
1.44317
1.44196
1.44047
1.4387
1.43665
1.43434
1.43179
1.42906
1.4262
1.42328
1.42039
1.41758
1.41493
1.41248
1.41027
1.40833
1.40664
1.40521
1.40403
1.40306
1.40228
1.40167
1.40119
1.40083
1.40057
1.40037
1.40023
1.40013
1.40006
1.40002
1.4
1.39998
1.39997
1.39997
1.39997
1.39998
1.39998
1.39998
1.39999
1.39999
1.4
1.4
1.4
1.4
1.4
1.4
1.4
1.4
1.4
1.4
1.4
1.4
1.4
1.40001
1.4
1.40001
1.40001
1.40001
1.40001
1.40001
1.40001
1.40001
1.40001
1.4
1.40001
1.4
1.40001
1.40001
1.40001
1.4
1.40001
1.4
1.4
1.40001
1.4
1.40001
1.4
1.40001
1.4
1.40001
1.40001
1.4
1.40001
1.4
1.4
1.40001
1.40001
1.4
1.40001
1.40001
1.40001
1.40001
1.40001
1.40001
1.40001
1.40001
1.40001
1.40001
1.40001
1.40001
1.40002
1.40002
1.40003
1.40003
1.40004
1.40005
1.40006
1.40007
1.40008
1.4001
1.40012
1.40015
1.40019
1.40026
1.40036
1.40052
1.40074
1.40107
1.40153
1.40216
1.40299
1.40406
1.40541
1.40706
1.40903
1.41132
1.41391
1.41676
1.41982
1.42302
1.42627
1.42949
1.4326
1.43554
1.43825
1.44068
1.44281
1.44464
1.44617
1.44742
1.44841
1.44917
1.44973
1.45011
1.45033
1.4504
1.45034
1.45012
1.44976
1.44921
1.44845
1.44746
1.44618
1.44461
1.4427
1.44045
1.43788
1.43502
1.43192
1.42867
1.42536
1.42207
1.4189
1.41593
1.4132
1.41077
1.40864
1.40682
1.4053
1.40404
1.40303
1.40223
1.4016
1.40113
1.40077
1.40051
1.40032
1.40019
1.4001
1.40004
1.4
1.39998
1.39997
1.39997
1.39997
1.39997
1.39998
1.39998
1.39999
1.39999
1.39999
1.4
1.4
1.4
1.4
1.4
1.4
1.4
1.4
1.4
1.4
1.4
1.4
1.40001
1.4
1.40001
1.4
1.40001
1.40001
1.4
1.40001
1.4
1.40001
1.4
1.40001
1.4
1.4
1.40001
1.4
1.40001
1.40001
1.40001
1.4
1.40001
1.4
1.40001
1.40001
1.4
1.40001
1.4
1.40001
1.4
1.40001
1.4
1.4
1.40001
1.4
1.4
1.40001
1.40001
1.40001
1.40001
1.40001
1.40001
1.40001
1.40001
1.40001
1.40001
1.40001
1.40002
1.40002
1.40003
1.40003
1.40004
1.40005
1.40006
1.40007
1.40008
1.4001
1.40012
1.40015
1.40019
1.40025
1.40035
1.40049
1.40071
1.40103
1.40147
1.40209
1.40293
1.40403
1.40543
1.40717
1.40927
1.41174
1.41457
1.41771
1.42111
1.42466
1.42828
1.43187
1.43531
1.43853
1.44146
1.44404
1.44626
1.44811
1.4496
1.45077
1.45165
1.45229
1.45274
1.45303
1.45322
1.45331
1.45334
1.4533
1.45321
1.45304
1.45276
1.45233
1.45171
1.45085
1.44967
1.44814
1.4462
1.44385
1.44108
1.43795
1.43452
1.4309
1.42719
1.42353
1.42001
1.41673
1.41375
1.41111
1.40883
1.40689
1.40529
1.40399
1.40295
1.40214
1.40151
1.40104
1.4007
1.40045
1.40027
1.40015
1.40007
1.40002
1.39999
1.39997
1.39996
1.39996
1.39997
1.39997
1.39998
1.39998
1.39999
1.39999
1.39999
1.4
1.4
1.4
1.4
1.4
1.4
1.4
1.4
1.4
1.4
1.4
1.40001
1.4
1.40001
1.40001
1.4
1.40001
1.4
1.40001
1.4
1.40001
1.40001
1.4
1.40001
1.4
1.40001
1.4
1.40001
1.40001
1.40001
1.4
1.40001
1.4
1.4
1.40001
1.4
1.40001
1.4
1.40001
1.4
1.40001
1.40001
1.4
1.40001
1.40001
1.4
1.40001
1.40001
1.40001
1.40001
1.40001
1.40001
1.40001
1.40001
1.40001
1.40001
1.40001
1.40002
1.40002
1.40003
1.40004
1.40005
1.40006
1.40007
1.40008
1.4001
1.40012
1.40015
1.40019
1.40025
1.40034
1.40047
1.40067
1.40097
1.40139
1.402
1.40282
1.40392
1.40535
1.40715
1.40935
1.41198
1.41502
1.41843
1.42214
1.42605
1.43003
1.43396
1.43771
1.44117
1.44426
1.44692
1.44911
1.45086
1.45217
1.45311
1.45372
1.45406
1.45422
1.45424
1.45419
1.4541
1.45403
1.45399
1.45399
1.45403
1.4541
1.45417
1.45418
1.45407
1.45378
1.45322
1.45231
1.45096
1.44912
1.44676
1.44387
1.44051
1.43678
1.43281
1.42874
1.42472
1.42087
1.41731
1.4141
1.41128
1.40887
1.40685
1.4052
1.40387
1.40282
1.40201
1.4014
1.40094
1.40061
1.40038
1.40022
1.40011
1.40004
1.39999
1.39997
1.39996
1.39996
1.39996
1.39996
1.39997
1.39998
1.39998
1.39999
1.39999
1.39999
1.4
1.4
1.4
1.4
1.4
1.4
1.4
1.4
1.4
1.4
1.4
1.40001
1.4
1.40001
1.4
1.40001
1.4
1.40001
1.4
1.40001
1.40001
1.4
1.40001
1.4
1.4
1.40001
1.4
1.40001
1.40001
1.4
1.40001
1.40001
1.4
1.40001
1.4
1.4
1.40001
1.40001
1.4
1.4
1.40001
1.4
1.4
1.40001
1.40001
1.40001
1.4
1.40001
1.40001
1.40001
1.40001
1.40001
1.40001
1.40001
1.40001
1.40002
1.40002
1.40003
1.40003
1.40004
1.40005
1.40007
1.40008
1.4001
1.40012
1.40015
1.40019
1.40024
1.40032
1.40044
1.40062
1.4009
1.4013
1.40187
1.40267
1.40375
1.40517
1.407
1.40927
1.41202
1.41524
1.4189
1.4229
1.42714
1.43147
1.43572
1.43975
1.44342
1.44661
1.44927
1.45135
1.45288
1.45389
1.45444
1.45462
1.45451
1.45419
1.45375
1.45327
1.45281
1.45242
1.45214
1.45202
1.45205
1.45223
1.45256
1.453
1.45351
1.45401
1.45442
1.45465
1.45458
1.45409
1.45308
1.45144
1.44915
1.4462
1.44267
1.43867
1.43436
1.42995
1.42559
1.42145
1.41764
1.41423
1.41128
1.40877
1.4067
1.40502
1.40368
1.40265
1.40186
1.40127
1.40083
1.40052
1.40031
1.40016
1.40007
1.40001
1.39998
1.39996
1.39995
1.39995
1.39996
1.39996
1.39997
1.39998
1.39998
1.39999
1.39999
1.39999
1.4
1.4
1.4
1.4
1.4
1.4
1.4
1.4
1.4
1.4
1.4
1.4
1.40001
1.4
1.40001
1.4
1.40001
1.40001
1.4
1.40001
1.4
1.40001
1.4
1.40001
1.40001
1.4
1.40001
1.40001
1.4
1.4
1.40001
1.4
1.40001
1.40001
1.4
1.40001
1.40001
1.4
1.4
1.40001
1.40001
1.4
1.40001
1.40001
1.40001
1.40001
1.40001
1.40001
1.40001
1.40001
1.40001
1.40001
1.40001
1.40002
1.40002
1.40002
1.40003
1.40004
1.40005
1.40006
1.40008
1.4001
1.40012
1.40014
1.40018
1.40023
1.4003
1.40041
1.40057
1.40082
1.40119
1.40172
1.40248
1.40352
1.40491
1.40673
1.40904
1.41186
1.41522
1.41908
1.42335
1.4279
1.43256
1.43713
1.44142
1.44526
1.44852
1.45111
1.45301
1.45422
1.45482
1.45487
1.45448
1.45377
1.45283
1.45178
1.45071
1.44969
1.44881
1.4481
1.44763
1.4474
1.44745
1.44776
1.44834
1.44915
1.45015
1.45127
1.45244
1.45354
1.45445
1.45502
1.45509
1.45452
1.45319
1.45104
1.44807
1.44439
1.44013
1.43553
1.43079
1.42613
1.42172
1.41771
1.41415
1.4111
1.40854
1.40644
1.40476
1.40345
1.40244
1.40168
1.40112
1.40072
1.40043
1.40024
1.40011
1.40003
1.39999
1.39996
1.39995
1.39995
1.39995
1.39996
1.39997
1.39997
1.39998
1.39999
1.39999
1.39999
1.4
1.4
1.4
1.4
1.4
1.4
1.4
1.4
1.4
1.4
1.40001
1.4
1.40001
1.4
1.40001
1.4
1.4
1.40001
1.4
1.40001
1.4
1.40001
1.40001
1.4
1.40001
1.4
1.40001
1.4
1.40001
1.4
1.40001
1.4
1.4
1.40001
1.4
1.40001
1.40001
1.4
1.4
1.40001
1.4
1.40001
1.4
1.40001
1.40001
1.40001
1.40001
1.40001
1.40001
1.40001
1.40001
1.40001
1.40001
1.40002
1.40002
1.40003
1.40004
1.40005
1.40006
1.40007
1.40009
1.40011
1.40014
1.40017
1.40022
1.40028
1.40038
1.40052
1.40074
1.40108
1.40156
1.40226
1.40325
1.40458
1.40636
1.40865
1.41151
1.41496
1.41898
1.42348
1.42832
1.43329
1.43817
1.44271
1.44671
1.45
1.45249
1.45414
1.45498
1.45507
1.45454
1.4535
1.45209
1.45044
1.44867
1.4469
1.44522
1.44371
1.44243
1.44143
1.44076
1.44044
1.44049
1.44091
1.4417
1.44282
1.44426
1.44596
1.44783
1.44979
1.4517
1.45341
1.45473
1.45546
1.45542
1.45444
1.45246
1.4495
1.44567
1.44117
1.43627
1.43124
1.42631
1.42169
1.41751
1.41386
1.41075
1.40817
1.40609
1.40444
1.40317
1.4022
1.40149
1.40097
1.4006
1.40035
1.40018
1.40007
1.4
1.39997
1.39995
1.39994
1.39995
1.39995
1.39996
1.39997
1.39998
1.39998
1.39999
1.39999
1.39999
1.4
1.4
1.4
1.4
1.4
1.4
1.4
1.4
1.4
1.4
1.4
1.40001
1.4
1.40001
1.40001
1.4
1.40001
1.4
1.40001
1.4
1.40001
1.40001
1.4
1.40001
1.4
1.40001
1.4
1.40001
1.4
1.4
1.40001
1.4
1.40001
1.4
1.40001
1.4
1.40001
1.40001
1.4
1.40001
1.40001
1.4
1.40001
1.40001
1.40001
1.40001
1.40001
1.40001
1.40001
1.40001
1.40001
1.40001
1.40002
1.40003
1.40003
1.40004
1.40005
1.40007
1.40009
1.40011
1.40013
1.40016
1.40021
1.40026
1.40035
1.40048
1.40067
1.40096
1.4014
1.40204
1.40294
1.4042
1.4059
1.40814
1.41097
1.41446
1.41858
1.42327
1.42836
1.43363
1.43881
1.44361
1.44777
1.4511
1.45348
1.45486
1.45528
1.45484
1.45367
1.45193
1.44977
1.44736
1.44482
1.4423
1.43989
1.43769
1.43576
1.43415
1.43292
1.43209
1.43169
1.43173
1.43222
1.43316
1.43453
1.43631
1.43846
1.44093
1.44363
1.44645
1.44924
1.45182
1.45395
1.45539
1.45589
1.45528
1.45347
1.45049
1.44651
1.44177
1.43659
1.43129
1.42614
1.42135
1.41707
1.41336
1.41025
1.4077
1.40566
1.40407
1.40286
1.40195
1.40129
1.40082
1.40049
1.40026
1.40012
1.40003
1.39998
1.39995
1.39994
1.39994
1.39995
1.39995
1.39996
1.39997
1.39998
1.39998
1.39999
1.39999
1.4
1.4
1.4
1.4
1.4
1.4
1.4
1.4
1.4
1.4
1.4
1.40001
1.4
1.40001
1.40001
1.4
1.40001
1.40001
1.4
1.40001
1.4
1.40001
1.40001
1.40001
1.4
1.40001
1.4
1.40001
1.40001
1.4
1.40001
1.4
1.40001
1.40001
1.40001
1.40001
1.4
1.40001
1.4
1.40001
1.4
1.40001
1.40001
1.40001
1.40001
1.40001
1.40001
1.40001
1.40001
1.40001
1.40001
1.40002
1.40002
1.40003
1.40004
1.40005
1.40006
1.40008
1.4001
1.40012
1.40015
1.40019
1.40025
1.40032
1.40043
1.4006
1.40085
1.40123
1.4018
1.40262
1.40379
1.40538
1.40751
1.41028
1.41374
1.4179
1.42272
1.42803
1.43357
1.43905
1.44412
1.44847
1.45186
1.45414
1.45526
1.45527
1.45429
1.45248
1.45002
1.44711
1.44392
1.44062
1.43735
1.43421
1.4313
1.4287
1.42646
1.42462
1.42322
1.42228
1.42181
1.42184
1.42237
1.42339
1.42492
1.42692
1.4294
1.43229
1.43556
1.43911
1.44281
1.44652
1.44998
1.45294
1.45507
1.45611
1.45582
1.45413
1.45109
1.44692
1.44193
1.43648
1.43094
1.42561
1.42071
1.41638
1.41268
1.40961
1.40713
1.40517
1.40366
1.40253
1.40169
1.40109
1.40067
1.40038
1.40019
1.40007
1.4
1.39996
1.39994
1.39994
1.39994
1.39995
1.39996
1.39997
1.39997
1.39998
1.39998
1.39999
1.39999
1.4
1.4
1.4
1.4
1.4
1.4
1.4
1.4
1.4
1.4
1.40001
1.4
1.4
1.40001
1.4
1.4
1.40001
1.4
1.40001
1.4
1.40001
1.4
1.40001
1.4
1.40001
1.4
1.40001
1.40001
1.4
1.40001
1.4
1.40001
1.40001
1.40001
1.40001
1.4
1.40001
1.4
1.40001
1.4
1.40001
1.4
1.40001
1.40001
1.40001
1.40001
1.40001
1.40001
1.40001
1.40002
1.40002
1.40002
1.40003
1.40004
1.40006
1.40007
1.40009
1.40011
1.40014
1.40018
1.40023
1.40029
1.40039
1.40053
1.40074
1.40108
1.40157
1.4023
1.40335
1.40482
1.40682
1.40945
1.41282
1.41696
1.42184
1.42731
1.43311
1.43889
1.44425
1.44883
1.45232
1.45454
1.45545
1.45508
1.45359
1.45116
1.44802
1.44438
1.44045
1.43641
1.43241
1.42857
1.42499
1.42174
1.41888
1.41645
1.41448
1.41298
1.41197
1.41147
1.41148
1.41201
1.41307
1.41466
1.41679
1.41944
1.42259
1.42622
1.43027
1.43466
1.43924
1.44384
1.44817
1.45191
1.4547
1.45619
1.45614
1.45448
1.45132
1.44691
1.44164
1.43594
1.43021
1.42476
1.41981
1.41549
1.41185
1.40887
1.40649
1.40464
1.40323
1.40219
1.40143
1.40089
1.40053
1.40028
1.40012
1.40002
1.39997
1.39994
1.39993
1.39994
1.39994
1.39995
1.39996
1.39997
1.39998
1.39998
1.39999
1.39999
1.4
1.4
1.4
1.4
1.4
1.4
1.4
1.4
1.4
1.4
1.4
1.40001
1.4
1.40001
1.40001
1.4
1.40001
1.4
1.4
1.40001
1.40001
1.4
1.40001
1.4
1.40001
1.4
1.40001
1.4
1.40001
1.4
1.4
1.40001
1.40001
1.4
1.40001
1.4
1.4
1.4
1.40001
1.4
1.4
1.40001
1.40001
1.40001
1.40001
1.40001
1.40001
1.40001
1.40001
1.40002
1.40002
1.40003
1.40004
1.40005
1.40006
1.40008
1.4001
1.40013
1.40016
1.40021
1.40026
1.40035
1.40047
1.40065
1.40093
1.40135
1.40199
1.40292
1.40424
1.40607
1.40854
1.41176
1.4158
1.42066
1.42622
1.43222
1.4383
1.44398
1.44884
1.4525
1.45475
1.45551
1.45484
1.45289
1.44991
1.44613
1.44181
1.43719
1.43245
1.42777
1.42328
1.41907
1.41523
1.4118
1.40882
1.40632
1.40429
1.40276
1.40173
1.40121
1.4012
1.40171
1.40275
1.40434
1.40649
1.4092
1.41246
1.41627
1.4206
1.42541
1.43059
1.43602
1.44147
1.44662
1.45107
1.4544
1.45623
1.4563
1.45456
1.45117
1.44647
1.44092
1.43499
1.42911
1.4236
1.41867
1.41442
1.41089
1.40804
1.4058
1.40408
1.4028
1.40185
1.40118
1.40071
1.4004
1.40019
1.40006
1.39999
1.39995
1.39993
1.39993
1.39994
1.39994
1.39995
1.39996
1.39997
1.39998
1.39998
1.39999
1.39999
1.4
1.4
1.4
1.4
1.4
1.4
1.4
1.4
1.4
1.4
1.40001
1.4
1.40001
1.40001
1.4
1.4
1.40001
1.4
1.40001
1.40001
1.4
1.40001
1.4
1.40001
1.4
1.40001
1.4
1.40001
1.4
1.4
1.40001
1.40001
1.4
1.40001
1.40001
1.4
1.40001
1.4
1.40001
1.4
1.40001
1.40001
1.40001
1.40001
1.40001
1.40001
1.40001
1.40001
1.40002
1.40002
1.40003
1.40004
1.40005
1.40007
1.40009
1.40012
1.40015
1.40019
1.40024
1.40031
1.40041
1.40056
1.4008
1.40116
1.4017
1.4025
1.40366
1.40531
1.40757
1.41058
1.41444
1.4192
1.42478
1.43093
1.43727
1.4433
1.4485
1.45243
1.4548
1.45552
1.45463
1.45232
1.44885
1.44451
1.43958
1.43432
1.42894
1.42363
1.41854
1.41377
1.40939
1.40545
1.40198
1.399
1.39652
1.39452
1.39301
1.39199
1.39146
1.39142
1.39188
1.39287
1.39439
1.39648
1.39914
1.40239
1.40623
1.41066
1.41566
1.42118
1.42714
1.43337
1.43962
1.4455
1.45055
1.45429
1.4563
1.45632
1.45436
1.45065
1.44561
1.43978
1.43365
1.42768
1.42217
1.41733
1.41322
1.40985
1.40717
1.4051
1.40353
1.40237
1.40153
1.40095
1.40055
1.40028
1.40012
1.40002
1.39996
1.39994
1.39993
1.39993
1.39994
1.39995
1.39996
1.39997
1.39997
1.39998
1.39999
1.39999
1.4
1.4
1.4
1.4
1.4
1.4
1.4
1.4
1.4
1.4
1.4
1.40001
1.4
1.4
1.40001
1.4
1.40001
1.4
1.4
1.40001
1.4
1.40001
1.40001
1.40001
1.40001
1.40001
1.40001
1.4
1.40001
1.40001
1.4
1.40001
1.40001
1.4
1.40001
1.40001
1.4
1.4
1.40001
1.40001
1.40001
1.40001
1.40001
1.40001
1.40001
1.40001
1.40001
1.40001
1.40002
1.40003
1.40004
1.40005
1.40006
1.40008
1.4001
1.40013
1.40017
1.40021
1.40027
1.40036
1.40049
1.40068
1.40098
1.40143
1.40211
1.40312
1.40456
1.40659
1.40935
1.41296
1.41753
1.42302
1.42924
1.43581
1.4422
1.4478
1.45208
1.4547
1.4555
1.45452
1.45196
1.44811
1.44328
1.43781
1.43197
1.42601
1.42013
1.41449
1.40919
1.40433
1.39993
1.39604
1.39266
1.38978
1.38739
1.38548
1.38403
1.38304
1.38251
1.38243
1.38283
1.38372
1.38512
1.38707
1.3896
1.39273
1.39648
1.40087
1.40589
1.41153
1.41775
1.42445
1.43144
1.43842
1.44493
1.45044
1.4544
1.45639
1.45618
1.45386
1.44973
1.44433
1.43822
1.43195
1.42596
1.42053
1.41584
1.41192
1.40876
1.40628
1.40439
1.40298
1.40196
1.40123
1.40073
1.4004
1.40019
1.40006
1.39998
1.39994
1.39993
1.39993
1.39993
1.39994
1.39996
1.39997
1.39997
1.39998
1.39999
1.39999
1.39999
1.4
1.4
1.4
1.4
1.4
1.4
1.4
1.4
1.4
1.40001
1.4
1.40001
1.4
1.40001
1.4
1.40001
1.40001
1.4
1.40001
1.4
1.40001
1.4
1.40001
1.40001
1.4
1.40001
1.4
1.40001
1.4
1.40001
1.4
1.40001
1.4
1.4
1.40001
1.4
1.40001
1.40001
1.40001
1.40001
1.40001
1.40001
1.40001
1.40001
1.40001
1.40001
1.40002
1.40002
1.40003
1.40004
1.40005
1.40007
1.40009
1.40012
1.40015
1.40019
1.40024
1.40032
1.40042
1.40058
1.40082
1.40119
1.40176
1.40261
1.40385
1.40563
1.4081
1.41142
1.41571
1.42101
1.42719
1.43392
1.44063
1.44668
1.45144
1.45443
1.45546
1.45453
1.45185
1.44773
1.44252
1.43658
1.43023
1.42375
1.41734
1.41119
1.40541
1.4001
1.3953
1.39103
1.3873
1.3841
1.3814
1.37918
1.3774
1.37605
1.37511
1.37458
1.37445
1.37475
1.3755
1.37672
1.37847
1.38079
1.38371
1.38727
1.3915
1.39641
1.40201
1.40828
1.41518
1.42261
1.43032
1.43794
1.44496
1.45074
1.45472
1.45647
1.45585
1.45302
1.44841
1.44262
1.43628
1.42994
1.424
1.41873
1.41425
1.41057
1.40766
1.4054
1.40371
1.40247
1.40158
1.40096
1.40055
1.40028
1.40011
1.40001
1.39995
1.39993
1.39993
1.39993
1.39994
1.39995
1.39996
1.39997
1.39998
1.39998
1.39999
1.39999
1.4
1.4
1.4
1.4
1.4
1.4
1.4
1.4
1.4
1.4
1.40001
1.40001
1.4
1.40001
1.4
1.4
1.40001
1.4
1.40001
1.40001
1.4
1.40001
1.40001
1.4
1.40001
1.4
1.40001
1.4
1.40001
1.40001
1.4
1.40001
1.4
1.4
1.40001
1.40001
1.40001
1.4
1.40001
1.40001
1.40001
1.40001
1.40001
1.40001
1.40001
1.40001
1.40002
1.40002
1.40003
1.40004
1.40006
1.40008
1.4001
1.40013
1.40017
1.40021
1.40028
1.40036
1.40049
1.40069
1.40099
1.40145
1.40215
1.4032
1.40473
1.40689
1.40986
1.4138
1.4188
1.42483
1.4316
1.4386
1.44512
1.45043
1.45395
1.45537
1.45466
1.45201
1.44774
1.44226
1.43595
1.42916
1.42219
1.4153
1.40866
1.40243
1.3967
1.39152
1.38693
1.38291
1.37945
1.37652
1.37407
1.37207
1.37047
1.36924
1.36837
1.36783
1.36764
1.36782
1.36838
1.36938
1.37086
1.37288
1.3755
1.37878
1.38275
1.38744
1.39286
1.39904
1.40595
1.41355
1.42168
1.43006
1.43823
1.44558
1.45143
1.45518
1.45647
1.45524
1.45179
1.44665
1.44051
1.434
1.42766
1.42186
1.41682
1.41261
1.40922
1.40657
1.40456
1.40307
1.40199
1.40124
1.40073
1.40039
1.40017
1.40004
1.39997
1.39994
1.39993
1.39993
1.39993
1.39995
1.39996
1.39996
1.39997
1.39998
1.39999
1.39999
1.4
1.4
1.4
1.4
1.4
1.4
1.4
1.4
1.4
1.40001
1.4
1.4
1.40001
1.4
1.40001
1.4
1.40001
1.4
1.40001
1.4
1.40001
1.40001
1.4
1.40001
1.40001
1.4
1.40001
1.4
1.4
1.40001
1.4
1.4
1.40001
1.4
1.4
1.40001
1.40001
1.40001
1.40001
1.40001
1.40001
1.40001
1.40001
1.40001
1.40001
1.40002
1.40002
1.40003
1.40004
1.40005
1.40007
1.40009
1.40011
1.40014