/*--------------------------------*- C++ -*----------------------------------*\
  =========                 |
  \\      /  F ield         | OpenFOAM: The Open Source CFD Toolbox
   \\    /   O peration     | Website:  https://openfoam.org
    \\  /    A nd           | Version:  6
     \\/     M anipulation  |
\*---------------------------------------------------------------------------*/
FoamFile
{
    version     2.0;
    format      ascii;
    class       volVectorField;
    location    "1.04";
    object      U;
}
// * * * * * * * * * * * * * * * * * * * * * * * * * * * * * * * * * * * * * //

dimensions      [0 1 -1 0 0 0 0];

internalField   nonuniform List<vector> 
5835
(
(-48.7319 1.16937 30.7411)
(-2.91064e-12 2.26342e-13 1.04363e-12)
(-50.721 -10.9769 -42.2544)
(-7.26112 -1.4418 4.49657)
(-7.71084e-13 -5.54558e-14 -4.6992e-13)
(-1.61383e-05 -4.84353e-06 -1.07667e-05)
(-2.33335e-11 -7.34001e-13 9.36059e-12)
(-0.0617443 -0.0276824 0.039448)
(-6.79414e-08 1.83749e-08 2.40995e-08)
(-6.1361e-08 1.99294e-08 4.11446e-08)
(-1.06019e-09 -1.75554e-10 7.17471e-10)
(1.51026 -10.8758 7.76763)
(-6.24065e-14 -8.43691e-15 -9.9658e-14)
(-6.74552e-14 -4.53123e-15 1.26843e-13)
(-12.5376 -10.5451 -22.9097)
(-2.12498e-14 2.40069e-14 -4.66035e-14)
(0.649669 47.2332 -33.9833)
(5.33736 -41.7354 25.8377)
(-8.84431e-15 -3.74282e-14 -3.53624e-13)
(-1.22393e-14 1.72838e-14 2.11015e-14)
(-21.3815 -35.6742 -16.6817)
(1.84229e-14 -7.62496e-15 6.33106e-15)
(-4.07224 39.3668 -1.67588)
(-1.61366 14.9881 -9.44888)
(-4.22137e-14 -4.05194e-14 -6.24105e-14)
(-2.45107e-13 -1.72422e-13 1.25714e-13)
(-14.9694 17.5437 11.8496)
(-2.95117e-13 6.12267e-13 -2.44253e-13)
(-1.66935 -1.69206 8.08657)
(-1.02046e-12 6.04574e-13 1.65822e-12)
(-0.221816 -0.186961 1.31688)
(-4.96002e-12 4.75243e-12 -4.50655e-12)
(-1.72613e-11 7.43186e-12 1.80319e-11)
(-0.0182564 -0.0219768 -0.0982253)
(-0.114457 -0.043435 0.143577)
(-1.32746e-10 6.44507e-11 1.5206e-10)
(-4.49294e-11 4.10221e-11 -2.71069e-11)
(-2.22441e-10 1.78332e-10 -9.73077e-10)
(-0.000884805 -0.00253094 -0.0121319)
(-0.013955 -0.00520969 0.0154616)
(7.18298e-11 9.84567e-10 -1.23709e-08)
(-0.001198 -0.000414697 -0.00223879)
(-8.32755e-09 3.94894e-09 5.98174e-09)
(3.65103e-05 -0.000371915 0.00132404)
(-4.45637e-08 1.66041e-08 6.13677e-08)
(-8.34492e-05 -3.98975e-05 -0.000241081)
(-3.09396e-08 2.60439e-08 -3.53643e-08)
(-0.000176583 -7.47888e-05 0.000170972)
(5.15454e-08 -1.99596e-07 -6.80395e-07)
(-3.43393e-07 1.25438e-06 1.08042e-05)
(-5.10583e-07 -2.88644e-07 3.8282e-07)
(-1.61688e-05 4.55416e-06 -2.56181e-05)
(-1.07959e-06 -2.61897e-06 2.46102e-06)
(-5.67268e-06 -2.23852e-06 -5.11783e-06)
(-1.1994e-06 7.52106e-07 2.91722e-06)
(1.43524e-07 7.22028e-08 4.0279e-08)
(4.6423e-06 -1.98057e-06 -1.32342e-05)
(-5.01601e-07 3.24605e-07 -4.78686e-07)
(-1.90222e-05 -1.56204e-05 3.45875e-05)
(-5.4728e-13 -5.25069e-13 -4.15837e-13)
(0.0493883 2.4957 3.55777)
(-1.46567e-12 -9.74796e-13 1.63971e-12)
(-6.84077 3.0537 -6.93348)
(-1.48888e-08 -1.55652e-08 -1.02136e-07)
(-7.59073e-08 -3.49388e-08 6.34962e-08)
(-0.000178386 0.000126559 -0.000176773)
(-2.42344e-05 3.45051e-05 0.000101681)
(-1.97182e-11 -2.26225e-11 8.44669e-11)
(-0.028975 0.0216175 0.0360744)
(-0.0906998 0.0384815 -0.130226)
(-0.01154 0.0031903 0.0146786)
(-0.00244023 0.00377956 -0.0100091)
(-2.97247e-10 -3.83596e-10 1.84427e-10)
(-1.00735e-09 -5.37818e-10 -1.01225e-09)
(-2.44245e-12 -6.06262e-12 -7.21008e-12)
(-1.30874e-11 -1.05275e-11 9.67842e-12)
(-0.229213 0.209975 0.395541)
(-0.884424 0.432833 -1.03681)
(-0.000194881 -4.2811e-06 -0.000832223)
(1.5023e-10 -1.3384e-09 -3.95715e-09)
(-1.03614e-08 -6.25855e-09 8.96414e-09)
(-0.00101808 0.000437307 0.00136313)
(-2.41244e-12 4.97888e-13 7.23596e-13)
(-49.2087 -6.99838 -36.7466)
(-45.0619 2.89475 27.857)
(-2.01408e-11 -8.18028e-13 7.29131e-12)
(-6.17843e-13 1.93592e-14 -3.90578e-13)
(-1.58328e-05 -2.00208e-06 -1.1551e-05)
(-0.0624387 -0.0178028 0.0424084)
(-6.5276 -0.21106 3.99962)
(-5.89864e-08 9.15909e-09 2.00073e-08)
(-5.62373e-08 8.82751e-09 3.94392e-08)
(-9.46385e-10 -1.43815e-12 6.75703e-10)
(-0.0107354 0.000412045 -0.00450841)
(-0.0109119 1.22323e-05 0.00266161)
(-1.0982e-05 2.98783e-07 -3.04934e-06)
(-5.79589e-12 -5.01854e-13 1.30563e-12)
(-4.29442e-11 5.57261e-12 1.43692e-11)
(-13.1096 -2.55875 -3.95235)
(-0.00166624 -0.000134082 0.000261778)
(-9.71143e-12 -3.61785e-13 -1.78419e-12)
(-0.0132937 0.000282142 0.00546751)
(-4.96181e-05 4.74027e-06 -9.26727e-06)
(-1.7646e-07 -6.47624e-09 -3.11531e-08)
(-44.3043 -4.42992 -0.755423)
(-1.37722e-07 2.35538e-09 1.3325e-08)
(-0.000126087 -3.8183e-07 -3.27358e-05)
(-45.4124 1.87733 1.59198)
(-5.15162e-05 5.6569e-06 7.35392e-06)
(-0.0019596 0.000235355 -0.000334029)
(-4.9185e-11 2.63476e-12 -4.64218e-12)
(-1.19306e-05 -5.99835e-07 1.16576e-06)
(-12.3095 -1.6309 2.63912)
(-1.04994e-11 -2.57974e-12 -2.53712e-13)
(-6.34556e-12 4.50071e-14 -1.02958e-12)
(-6.77533e-05 7.74093e-06 -9.29044e-06)
(-6.7032e-05 4.5904e-06 4.19734e-06)
(-2.18148e-07 -1.5962e-08 -4.78316e-08)
(-2.1636e-07 -6.09996e-08 -7.67436e-08)
(-40.813 1.8275 1.91634)
(-40.1156 -5.55552 -1.01224)
(-9.16417e-05 8.39286e-06 1.53414e-05)
(-9.1586e-05 -6.87768e-06 -6.34273e-06)
(-5.90998e-12 -2.84742e-13 -1.33707e-12)
(-6.08996e-12 -2.04447e-12 -6.08827e-14)
(-7.1644e-11 1.25931e-11 2.76439e-13)
(-5.20646e-11 5.27264e-12 1.31044e-11)
(-8.81114e-12 -2.24705e-13 -8.132e-13)
(-8.21378e-12 -2.90901e-13 2.00113e-13)
(-0.00091251 -0.000170689 0.000165405)
(-0.00113136 0.00024096 -0.000296337)
(-1.40536e-05 -2.45356e-06 -4.01191e-06)
(-1.75627e-05 5.55815e-07 1.76034e-08)
(-0.0220517 0.00219279 -0.0017032)
(-2.34906e-13 6.29074e-14 9.33057e-14)
(-2.00603e-13 -2.75092e-14 -1.08647e-13)
(-50.7412 -1.31901 -26.2582)
(-2.27663e-13 6.16177e-14 -1.18788e-13)
(-47.6548 8.07187 15.6019)
(-2.34258e-13 1.27356e-14 1.42381e-13)
(-2.76519e-13 3.98854e-15 -6.68598e-14)
(-2.63438e-13 7.07863e-14 1.83168e-13)
(-46.6458 -0.174278 -22.4007)
(-44.4762 1.31358 18.964)
(-44.3246 -6.32435 21.491)
(-53.1823 0.948727 -22.7311)
(-42.8194 -8.03277 17.1029)
(-55.0101 3.65693 -21.5924)
(-3.36886e-12 1.60688e-13 -1.75009e-12)
(-2.97545e-12 -6.42231e-14 1.14721e-12)
(-47.8065 1.07638 19.2715)
(-2.42705e-12 4.08268e-13 -9.71868e-13)
(-1.98411e-12 3.28761e-14 1.21411e-12)
(-2.85717e-12 -5.37711e-13 -9.23686e-13)
(-52.1937 -3.08907 -16.2605)
(-16.8369 2.91608 2.9394)
(-4.41235 0.273309 -1.68056)
(-2.0929e-09 -5.00014e-10 -8.56442e-10)
(-1.11385 0.231306 -0.366348)
(-22.5156 -3.23365 8.07197)
(-2.16453e-11 6.02593e-12 -8.21687e-12)
(-2.16088e-11 -4.52458e-12 4.60263e-12)
(-1.25838e-09 3.70381e-11 7.03129e-10)
(-2.31304e-10 4.1214e-11 -5.23682e-11)
(-8.01105 1.28809 -3.69804)
(-2.40936e-10 -3.79436e-11 6.58516e-11)
(-1.49433e-09 -5.06826e-11 7.25166e-10)
(-4.63404 -0.438302 -1.37339)
(-2.04939e-10 3.99114e-11 6.13261e-11)
(-1.34876e-09 1.73677e-10 -5.99018e-10)
(-0.954285 0.0183998 0.598805)
(-0.0978717 0.0264146 0.0288912)
(-0.181737 0.0459375 -0.0794084)
(-7.84603e-09 -1.59946e-09 -3.47109e-09)
(-1.17059e-08 9.95047e-11 4.84331e-09)
(-0.0490029 0.0024614 -0.0470928)
(-1.06324e-08 -7.65242e-10 3.5516e-09)
(-7.31549 -0.804181 3.68442)
(-0.761894 -0.170849 -0.445362)
(-6.80863 -0.746211 -4.6289)
(-1.84003e-10 1.80256e-12 -7.37438e-11)
(-2.42844e-11 3.16842e-12 -7.11785e-12)
(-0.000324414 5.1135e-05 -0.000144941)
(-0.000278031 -3.30898e-06 9.08562e-05)
(-1.28462e-08 6.11737e-10 -6.15132e-09)
(-0.125546 -0.00828468 0.0474226)
(-9.51987e-09 1.46973e-10 -4.58855e-09)
(-0.000228406 5.46812e-05 2.48872e-05)
(-0.000159962 1.71013e-05 2.75896e-05)
(-5.15203e-06 -1.10627e-07 1.9336e-06)
(-1.90873e-05 -7.71186e-07 -1.05135e-05)
(-1.83789e-05 3.83936e-06 -5.68042e-06)
(-5.59395e-06 8.73899e-08 -1.80193e-06)
(-0.00032006 -8.66476e-05 -0.000104346)
(-0.00050893 -3.35785e-05 0.000145868)
(-2.89926e-05 3.24773e-06 1.68457e-05)
(-3.2458e-05 4.96224e-07 -1.61431e-05)
(-3.31265e-13 6.88777e-14 1.86874e-13)
(-2.21469e-12 4.13618e-13 -1.22434e-12)
(-3.64126e-13 -2.88165e-14 -9.27731e-14)
(-44.3672 2.12329 21.1333)
(-47.1336 -1.45181 -21.5364)
(-4.89462e-05 4.13153e-06 1.61798e-05)
(-3.89769e-05 -2.09895e-06 -1.45109e-05)
(-3.65197e-05 -5.11225e-06 2.06265e-05)
(-4.72119e-05 -4.91408e-06 -1.22191e-05)
(-4.77616e-06 -5.12367e-08 -1.73427e-06)
(-0.000227367 3.28241e-05 -0.000131819)
(-5.5041e-06 8.29674e-07 1.71723e-06)
(-1.07921e-07 7.25771e-09 -4.79719e-08)
(-0.017187 0.00222121 0.000994361)
(-4.80716e-06 -6.27521e-07 1.49338e-06)
(-0.0215197 0.00240915 -0.00985592)
(-3.32765e-06 -1.10462e-07 -1.6458e-06)
(-0.0123823 0.0015229 -0.00460302)
(-9.34114e-08 -9.03133e-09 4.61598e-08)
(-3.66344e-05 -7.42074e-06 1.09791e-05)
(-4.04099e-05 4.60264e-06 -1.39194e-05)
(-2.46577e-05 1.1483e-06 1.06199e-05)
(-0.000237634 9.29543e-07 0.000100419)
(-3.96177e-06 -4.35092e-08 1.59673e-06)
(-4.17162e-06 3.4188e-08 -2.22075e-06)
(-0.000262637 3.85937e-05 -0.000124885)
(-0.010074 0.000831227 0.00210567)
(-9.98296e-08 1.06852e-08 3.5956e-08)
(-0.120026 -0.0168717 0.0576073)
(-0.0184792 -0.00257906 0.0092459)
(-45.2918 -7.91801 8.88801)
(-1.54448e-13 -2.33279e-14 8.29478e-14)
(-1.36773e-13 2.44577e-14 -9.10941e-14)
(-0.00770663 -0.00184306 -0.0041215)
(-8.67623e-08 -1.31042e-09 -2.87346e-08)
(-7.02699e-07 -9.35316e-08 -3.29144e-07)
(-3.49197e-06 -5.86369e-07 1.28621e-06)
(-3.12809e-06 -2.64318e-07 -1.12809e-06)
(-2.00773e-12 3.25792e-13 -3.52437e-13)
(-48.2048 -4.05173 15.797)
(-1.78763e-12 -1.86513e-13 5.97361e-13)
(-50.7071 1.7901 -15.6443)
(-0.00335368 0.000420963 -0.00148782)
(-6.29455e-07 1.60282e-08 2.66192e-07)
(-0.00295245 -0.000287231 0.00139902)
(-0.00311409 0.000246166 -0.00109674)
(-0.119507 0.00910792 -0.0633465)
(-6.21935e-07 -4.89235e-08 2.64854e-07)
(-0.00274492 -5.26762e-05 0.00103756)
(-6.26759e-07 5.01378e-08 -2.82985e-07)
(-0.0030109 -0.000563588 -0.00104427)
(-0.00262598 -0.000256988 0.00109337)
(-6.44497e-08 -1.20737e-10 3.2432e-08)
(-4.94702 0.313833 -2.23364)
(-2.47187e-11 6.64174e-14 7.33345e-12)
(-2.23259e-11 1.31293e-12 1.05477e-11)
(-1.49974e-09 1.03913e-10 6.26071e-10)
(-1.32864e-10 2.78552e-11 -3.64953e-11)
(-2.16705e-11 -8.32513e-14 -9.94642e-12)
(-2.62525e-11 1.53028e-12 -1.04079e-11)
(-31.8395 1.63864 -2.57609)
(-1.24243e-08 -4.09615e-10 5.11253e-09)
(-1.6242e-09 3.68303e-10 -6.21009e-10)
(-2.62438e-12 -3.96488e-13 -9.59065e-13)
(-27.4921 -0.427701 -5.02841)
(-27.7145 2.26195 -7.10943)
(-2.69788e-12 -4.45887e-13 -9.23199e-13)
(-36.9888 -8.12257 13.0004)
(-4.86693e-09 7.35153e-10 -2.01429e-09)
(-1.50264e-12 -1.96063e-13 -7.6015e-13)
(-1.82309e-12 -3.05702e-13 -8.46991e-13)
(-43.2761 0.121325 -17.1615)
(-41.9225 6.16435 21.3951)
(-3.86106e-05 -6.72805e-06 -1.49523e-05)
(-3.82614e-05 -3.7651e-07 2.61932e-05)
(-1.82039e-12 5.69038e-13 -5.54832e-13)
(-1.67101e-12 4.83382e-14 -6.73507e-13)
(-1.38243e-08 3.15882e-09 -6.00741e-09)
(-0.15789 -0.0298178 0.0548836)
(-3.75576e-13 -2.8625e-14 6.46371e-14)
(-4.66376e-13 4.73562e-14 -1.57922e-13)
(-2.80254e-06 -3.46025e-07 8.38985e-07)
(-2.39283e-06 -1.14464e-08 -9.90769e-07)
(-7.88264e-13 5.66885e-13 2.59116e-13)
(-8.16329e-13 -4.46339e-13 3.79784e-13)
(-48.2807 -1.47561 18.8173)
(-0.000123682 3.67449e-06 -5.46164e-05)
(-1.339e-13 -5.66918e-14 -2.09283e-14)
(-0.000138747 2.34652e-05 -3.32363e-05)
(-9.70133e-13 -3.47163e-13 -5.50437e-13)
(-4.26466e-13 4.64803e-14 -1.4417e-13)
(-4.38918e-13 -5.13026e-14 1.58189e-14)
(-3.87074e-13 2.03154e-15 1.60053e-13)
(-40.2266 -4.10941 2.99486)
(-22.1292 -1.95361 -1.33853)
(-4.40199e-13 -9.48587e-14 3.62785e-14)
(-26.0274 -2.76169 -1.81711)
(-1.66532e-13 -4.83849e-14 -4.8371e-14)
(-1.84608e-12 7.29841e-14 7.23422e-13)
(-1.52453e-12 1.09584e-13 6.70407e-13)
(-4.06529e-13 -9.93368e-14 2.21469e-13)
(-1.27147e-12 -3.1033e-13 -5.78386e-13)
(-53.3504 -1.11287 26.0636)
(-1.39559e-13 1.56424e-14 -2.08521e-15)
(-48.9138 7.13886 23.1058)
(-52.5489 -3.48019 -21.1326)
(-42.1073 -5.46259 22.605)
(-41.7105 -5.53909 12.8283)
(-44.8596 7.91368 -18.835)
(-7.82802e-14 -6.17279e-14 5.21352e-14)
(-43.8849 -13.1783 -15.426)
(-8.80203e-14 2.8393e-14 -4.96055e-14)
(-46.3648 -7.07841 19.2498)
(-47.1557 2.05623 2.70742)
(-53.7925 0.750315 -24.4095)
(-41.2003 -15.7456 7.09189)
(-44.6562 16.925 -14.7871)
(-7.3426e-14 2.22937e-14 4.89115e-14)
(-8.66788e-13 -5.3405e-13 -2.95228e-13)
(-0.0873052 0.0112184 0.016596)
(-36.4701 -6.30807 -6.82043)
(-0.00189391 0.00016838 -0.000524755)
(-1.27132e-09 -1.01796e-10 -5.96923e-10)
(-4.94353e-07 -3.60233e-08 -8.86615e-08)
(-0.99124 0.105089 0.313506)
(-3.15652e-12 1.4745e-13 -1.25966e-12)
(-50.9562 -2.59689 -11.6534)
(-2.98318e-12 7.61869e-14 1.50395e-12)
(-51.5655 1.49505 12.5403)
(-0.100363 -0.0106493 0.0278112)
(-0.0149406 0.00112846 -0.00682213)
(-40.75 11.2179 -15.3432)
(-0.0225738 -0.00115392 0.00814979)
(-8.96434e-08 -4.74362e-09 4.08725e-08)
(-24.0611 -5.05186 -10.3439)
(-8.13217e-09 3.1233e-10 2.91584e-09)
(-0.689182 -0.0462809 -0.288664)
(-1.05058e-09 1.16273e-10 -3.7461e-10)
(-1.00214 -0.0833953 -0.155542)
(-0.00171208 -6.50463e-06 0.000733218)
(-3.96924e-07 1.25794e-07 2.07872e-07)
(-0.00195331 0.000155259 -0.000527911)
(-4.22849e-13 1.22097e-13 1.06012e-13)
(-3.75123e-13 -3.073e-14 -1.32359e-13)
(-44.2588 -0.200935 19.1089)
(-20.9524 -5.97555 8.10515)
(-45.8151 -7.75929 -16.2473)
(-5.33367e-12 1.86463e-12 -2.80252e-12)
(-0.0778465 0.000302002 0.0317955)
(-4.32835e-11 7.18596e-12 2.08166e-11)
(-0.0147015 0.000232799 -0.00473328)
(-5.61876e-08 8.89336e-09 -2.32659e-08)
(-0.0151444 -0.000915869 0.0061834)
(-15.5842 0.53826 -7.01629)
(-7.8038e-10 1.07114e-10 2.11706e-10)
(-1.01182e-11 1.99007e-12 -4.07844e-12)
(-0.666124 -0.186027 0.261092)
(-0.625359 0.127552 -0.262484)
(-1.19941e-09 -9.76873e-12 -5.50087e-10)
(-4.39254 -1.75882 2.09056)
(-1.03144e-07 1.40583e-08 -4.35129e-08)
(-24.6126 -4.96588 10.329)
(-0.0235157 -0.00312864 -0.00977825)
(-6.68772 0.0747072 2.62353)
(-3.07221e-09 6.49326e-10 5.80664e-10)
(-0.00164931 -0.000159561 0.000555309)
(-0.0870926 0.0040165 -0.0377459)
(-24.5585 2.22046 -11.2091)
(-4.78653e-07 -2.39651e-07 1.18303e-07)
(-2.75677e-08 -6.05701e-09 1.05576e-09)
(-1.12209e-09 -1.14562e-12 3.5848e-10)
(-6.37603e-08 9.42251e-09 -3.58653e-08)
(-0.0133443 -0.000909517 0.00411262)
(-0.994149 -0.17018 -0.403802)
(-8.5205e-10 6.39814e-11 -2.14256e-10)
(-1.17773e-11 3.17384e-12 7.68415e-12)
(-8.43841e-09 6.57508e-10 -1.894e-09)
(-7.54658 -0.732572 3.49986)
(-0.0618022 -0.0309606 -0.0211172)
(-5.96408e-07 1.29982e-08 -2.25892e-07)
(-7.98301e-05 3.09941e-05 -3.6463e-05)
(-0.000158011 7.17617e-05 3.61295e-05)
(-1.19639e-06 4.63934e-07 -4.43126e-07)
(-1.82526e-05 4.49476e-06 4.64506e-06)
(-1.63378e-05 -2.94426e-06 8.27639e-06)
(-0.000121336 6.7114e-06 4.37399e-05)
(-2.91719e-05 -5.97509e-07 -9.55377e-06)
(-1.51981e-05 4.50607e-06 -3.51774e-06)
(-4.92497e-06 -2.21174e-07 -1.72318e-06)
(-2.04853e-05 -4.35668e-06 -5.9417e-06)
(-1.67323e-05 -6.06054e-06 1.96613e-06)
(-2.50353e-05 1.59637e-06 9.54711e-06)
(-4.66549e-06 4.71587e-07 1.54478e-06)
(-1.56975e-06 2.44052e-07 5.59785e-07)
(-2.64909e-06 -1.41357e-07 -1.2e-06)
(-1.59266e-06 -3.19325e-07 4.34076e-07)
(-0.000147851 9.00958e-06 5.96303e-05)
(-2.02878e-06 1.36807e-07 7.21054e-07)
(-2.43093e-06 -4.1259e-07 -1.03827e-06)
(-0.000102858 -4.30038e-05 -7.43173e-05)
(-2.15586e-05 2.72869e-06 -8.93406e-06)
(-1.32197e-05 5.52608e-06 5.07666e-06)
(-1.7596e-06 -4.73162e-07 -6.17189e-07)
(-1.18117e-06 5.43161e-07 4.67292e-07)
(-7.64599e-05 4.2794e-05 1.66271e-05)
(-7.91951e-05 -3.52053e-05 -2.6319e-05)
(-3.9376e-08 1.56114e-08 1.22299e-08)
(-0.0124055 -0.00337375 -0.000608586)
(-0.139229 -0.013639 -0.0768606)
(-4.73394e-09 5.12461e-10 2.38846e-09)
(-0.0930671 -0.0209107 -0.0577379)
(-8.72633 -2.00872 -3.67417)
(-0.00046195 -0.000131581 -1.40564e-05)
(-0.00694428 -0.00376702 0.00210451)
(-3.71715e-08 2.04748e-08 -1.13044e-08)
(-1.58133e-09 2.57817e-10 -4.41445e-10)
(-2.69658e-08 2.76951e-09 1.47447e-08)
(-2.70632e-08 -7.62691e-09 1.58965e-08)
(-1.16683e-10 1.48909e-11 3.98323e-11)
(-8.55722 -0.919083 -3.13115)
(-1.25208e-08 3.20828e-10 -4.79258e-09)
(-2.80668e-07 8.00636e-08 4.43374e-08)
(-7.47059e-08 2.06273e-08 -1.78962e-08)
(-1.87838e-10 7.19258e-13 8.44051e-11)
(-0.000855094 -0.000221761 0.00029666)
(-4.76835e-07 2.78965e-07 -1.06252e-07)
(-2.07741 -0.070819 0.166528)
(-1.52372e-10 1.52724e-11 4.02833e-11)
(-3.47682e-07 5.55283e-09 -1.15735e-07)
(-9.6681e-09 -3.33883e-09 -2.25456e-09)
(-3.2653e-07 -1.97348e-08 3.43775e-08)
(-5.31805 -0.964341 2.00942)
(-1.87696e-10 1.41538e-12 -7.18203e-11)
(-2.0944e-11 -4.66837e-13 8.33926e-12)
(-21.2084 0.323254 -11.0566)
(-0.0429474 0.00541201 0.0118298)
(-7.67028e-09 -1.32982e-09 3.87751e-09)
(-2.47244 0.147038 0.330994)
(-2.40294e-11 1.05615e-12 1.03377e-11)
(-1.12228e-10 8.34268e-12 -2.62084e-11)
(-0.0345009 -0.00233733 0.000911931)
(-2.19586e-11 8.39545e-13 -8.53114e-12)
(-18.0249 -3.85574 10.1287)
(-19.2902 1.83792 7.53039)
(-2.35483e-11 -1.08904e-12 -9.16622e-12)
(-1.486e-11 3.37888e-12 -7.91998e-12)
(-24.1374 0.427532 -8.62601)
(-0.532245 0.0816121 0.20218)
(-6.8345e-10 -2.02001e-10 -3.09324e-10)
(-7.74821e-09 -9.70774e-10 -2.66092e-09)
(-0.0590428 0.00584517 -0.0339182)
(-0.406855 0.128667 0.182891)
(-6.03577e-09 -1.74564e-09 -1.79645e-09)
(-20.4471 1.02666 10.927)
(-1.29839e-11 -1.83786e-12 -6.99398e-12)
(-3.31074 0.134738 -1.19382)
(-3.65625e-10 -1.37809e-10 2.13257e-10)
(-0.492616 0.0928928 -0.181787)
(-5.28527e-10 -1.49826e-10 2.14885e-10)
(-5.40538e-09 -1.38727e-09 2.94357e-09)
(-0.0520479 0.0103888 0.0254408)
(-0.00530504 -0.000494387 0.00109615)
(-0.37094 0.0877155 -0.128022)
(-0.0376536 0.00674624 -0.0128591)
(-4.28891e-09 7.7695e-11 1.87841e-09)
(-21.1622 -2.72667 -9.02105)
(-2.74884e-09 -1.07888e-09 -1.00459e-09)
(-0.035847 0.0128112 0.0154323)
(-0.00491994 0.000794256 0.000620193)
(-1.77662e-11 -5.1882e-12 4.87632e-12)
(-1.48962e-10 -2.30307e-11 7.20439e-11)
(-19.8895 4.18412 -8.97537)
(-1.56071e-11 2.66665e-13 -6.26291e-12)
(-9.91331e-12 -4.20021e-12 -4.46125e-12)
(-1.77368 0.000190118 0.569516)
(-1.10917e-10 -3.16191e-11 -4.74898e-11)
(-19.0914 -1.63424 11.5572)
(-8.44374e-11 -1.95585e-11 -3.82718e-11)
(-3.4844 0.475186 1.65977)
(-0.00591041 0.00167089 -0.00193008)
(-13.8349 4.8199 4.41761)
(-7.50838e-12 -2.12848e-12 2.71948e-12)
(-0.00139791 0.000209488 0.000348662)
(-2.90372e-07 -4.36614e-08 1.04788e-07)
(-3.52426 0.874306 -2.0032)
(-6.08366e-11 -1.98971e-11 2.42073e-11)
(-0.0044045 0.00226596 -0.00213927)
(-2.70831e-08 5.02705e-09 -1.34433e-08)
(-0.006391 0.000999192 0.00282998)
(-2.25789e-08 -8.03825e-09 -1.23387e-08)
(-0.00268107 0.00149116 -0.00083823)
(-0.00136959 3.45724e-05 -0.000396717)
(-2.59128e-07 5.16627e-08 -7.04613e-08)
(-1.60783e-07 -5.96315e-08 6.65403e-08)
(-0.00096505 0.000296574 0.000290953)
(-2.64657e-07 -5.76906e-08 -1.39378e-07)
(-2.02519e-07 -8.13957e-08 -8.41619e-08)
(-7.69912e-08 -1.71805e-08 5.73413e-09)
(-0.000902707 0.000241775 -0.000260417)
(-0.00888477 0.000637706 0.000812619)
(-1.33228e-05 3.38432e-07 -2.89401e-06)
(-7.45873e-12 -9.02481e-13 9.05393e-13)
(-5.44664e-11 8.22578e-12 1.42892e-11)
(-20.0234 -3.98217 -4.34895)
(-0.00162356 -0.000204127 -3.53814e-05)
(-8.50305e-12 -7.21477e-13 7.37809e-13)
(-6.43711e-05 5.85181e-06 -4.50058e-06)
(-45.0851 -8.14664 10.3322)
(-2.14898e-07 -1.7007e-08 -2.65659e-08)
(-1.83569e-07 5.21322e-09 -8.09817e-09)
(-0.000118361 -5.52515e-06 1.09531e-05)
(-49.4389 1.84186 -8.94078)
(-6.37335e-05 7.61808e-06 1.34912e-06)
(-6.16129e-11 3.47437e-12 -1.07857e-12)
(-0.00188369 0.000204826 -0.000118132)
(-1.50964e-05 -1.01288e-06 -5.26595e-08)
(-16.0563 -0.604266 1.08041)
(-7.8037e-12 -6.97109e-14 -5.62732e-13)
(-1.07295e-11 -9.01971e-13 -4.03733e-12)
(-51.4173 -4.92504 19.8238)
(-2.23076e-13 7.45073e-15 1.1679e-13)
(-2.30067e-13 1.14815e-13 -1.43687e-13)
(-54.7255 4.1267 15.5369)
(-52.6959 1.27902 -25.2309)
(-45.9957 -1.77546 18.363)
(-2.44322e-13 -2.92858e-14 1.56373e-13)
(-2.86585e-13 3.13985e-14 -7.15364e-14)
(-2.32651e-13 5.37957e-14 -1.03383e-13)
(-2.94103e-12 5.73699e-14 -1.28028e-12)
(-53.9187 6.30817 22.8651)
(-53.4088 -8.46056 16.4356)
(-3.83845e-12 6.05292e-13 -2.11016e-12)
(-3.3852e-12 -3.00411e-13 -1.09457e-12)
(-3.01325e-12 -6.93432e-13 1.2097e-12)
(-59.1158 1.56105 -20.0826)
(-44.9108 -0.112756 21.7699)
(-3.63128e-13 4.65851e-14 -9.6499e-14)
(-54.0673 -0.652938 8.01988)
(-1.71505e-13 -3.10455e-14 -9.91355e-14)
(-2.69694e-12 4.70056e-13 -1.37623e-12)
(-2.28838e-12 1.12505e-13 -3.77912e-13)
(-52.161 -3.34791 10.6191)
(-2.61594e-11 -1.27399e-12 3.44457e-12)
(-30.1071 -2.55634 8.47931)
(-2.38171e-11 -2.24709e-12 -1.32027e-11)
(-49.7891 4.01969 -21.0624)
(-2.97434e-13 3.12691e-14 2.04595e-13)
(-57.2053 1.10683 -16.442)
(-8.27266 0.200132 3.94242)
(-1.17557 -0.128162 -0.511463)
(-0.000257321 3.60702e-05 6.67099e-05)
(-0.000380622 8.35267e-06 -0.000189933)
(-1.40996 0.170091 -0.517551)
(-1.76722e-09 -1.90557e-10 9.44932e-10)
(-6.577 0.00456486 -1.38812)
(-0.000329358 3.41722e-05 7.91851e-05)
(-6.27314 -0.0932126 -1.11698)
(-2.43321e-09 -2.82453e-10 -1.06093e-09)
(-1.53323e-09 1.99785e-10 9.13515e-10)
(-3.99755e-05 -4.61629e-06 -1.41267e-05)
(-5.28499e-05 1.36411e-05 1.35939e-05)
(-3.20005e-05 4.71898e-06 1.90185e-05)
(-4.08993e-05 2.00051e-06 1.85035e-05)
(-1.78716e-09 1.86468e-10 -8.15473e-10)
(-0.24477 0.0250781 -0.104431)
(-56.1814 -4.64064 -22.0969)
(-1.382e-08 1.77167e-09 5.54406e-09)
(-7.67951 0.358191 -4.44427)
(-4.40529e-05 -1.55755e-06 1.05056e-05)
(-3.33719e-05 1.52034e-06 1.39089e-05)
(-0.178839 0.0143127 0.0361542)
(-1.22363e-08 -9.13151e-10 -3.75198e-09)
(-0.0866538 -0.00678914 -0.052399)
(-1.31639e-08 -1.00073e-09 -6.50677e-09)
(-1.19069e-08 1.99384e-10 3.94119e-09)
(-0.142569 0.00363123 0.0512738)
(-1.97323e-12 2.28478e-13 1.42183e-12)
(-2.44901e-11 2.12688e-12 1.25496e-11)
(-0.000295442 8.3905e-06 -0.000129703)
(-44.8532 -4.75128 18.5566)
(-3.90713e-13 3.51593e-14 -1.57145e-13)
(-3.97514e-06 -4.14427e-07 1.51565e-06)
(-1.58988e-08 1.70389e-09 -7.9324e-09)
(-0.174906 0.00594927 0.0506122)
(-0.000297092 1.59362e-05 0.000124789)
(-4.45628e-06 -3.82802e-07 -2.16163e-06)
(-3.85613e-05 3.90696e-06 2.46763e-05)
(-6.4679 0.22655 -3.04872)
(-2.94606e-06 1.06326e-07 1.05519e-06)
(-0.0165603 0.00242846 0.00408325)
(-0.0254383 -0.000692245 -0.0130832)
(-1.24748e-07 1.59526e-08 -6.06152e-08)
(-0.00346366 -0.000324813 -0.00165786)
(-0.0223926 -0.000501847 0.0115469)
(-1.12266e-07 4.33761e-09 4.2685e-08)
(-0.0183397 0.000263279 -0.00358023)
(-0.00435661 0.000144027 -0.00258547)
(-1.33823e-07 3.44518e-09 -7.46419e-08)
(-0.0264588 -0.00216767 -0.012856)
(-0.0031671 -0.000177022 -0.00107856)
(-0.00287029 0.000184299 0.00128724)
(-7.39991e-07 -1.55371e-08 -2.49079e-07)
(-1.57432e-09 1.00669e-10 -9.14591e-10)
(-1.1933 0.123739 0.635132)
(-1.05232e-08 -3.97587e-10 -6.37756e-09)
(-7.75403e-07 -1.53889e-08 -2.44294e-07)
(-6.27835e-08 6.77163e-09 2.75049e-08)
(-24.9022 1.27417 5.56009)
(-2.73051e-11 1.16556e-13 -7.33527e-12)
(-5.78074e-06 5.09657e-08 -2.48842e-06)
(-0.000309284 2.89252e-05 -0.000135889)
(-4.58568e-05 3.58189e-06 -1.43381e-05)
(-0.00342138 -9.4554e-05 0.00126925)
(-3.30101e-06 -8.32176e-07 -1.34398e-06)
(-50.6461 2.35391 24.3722)
(-9.09961 0.685929 -4.71158)
(-42.3716 1.77313 -8.07036)
(-2.05669e-13 -2.96239e-15 1.0044e-13)
(-46.153 -1.40847 14.7763)
(-0.0129355 -0.0010261 -0.00354369)
(-8.361e-08 -1.4266e-08 -2.48475e-08)
(-1.48985e-09 1.865e-10 -7.17376e-10)
(-48.8967 2.36067 -22.5191)
(-3.33191e-13 2.162e-14 2.27554e-13)
(-40.5258 -0.274156 -7.68406)
(-2.46441e-12 1.70517e-13 -7.25121e-13)
(-3.25637e-12 -2.75923e-13 1.41958e-12)
(-54.8844 -1.70539 -16.1643)
(-3.80959e-13 3.76375e-14 1.12498e-13)
(-49.9011 2.91418 -13.033)
(-4.6363e-13 -3.79891e-14 2.29249e-13)
(-40.6187 -3.58891 10.5163)
(-56.7226 -4.82306 13.0859)
(-1.51414e-12 -5.17862e-13 4.28544e-13)
(-7.46565e-13 -2.52077e-14 1.02895e-13)
(-39.9991 -8.17169 5.30416)
(-42.9075 -1.68864 27.843)
(-61.0764 -6.64029 -28.3104)
(-1.17007e-13 -8.54557e-14 5.36822e-14)
(-1.53852e-12 -6.85697e-13 -5.90442e-13)
(-2.20853e-12 -2.77107e-13 7.9245e-13)
(-1.92748e-12 -2.92225e-13 -4.98667e-13)
(-51.4917 13.884 -11.6787)
(-52.2611 4.6856 24.7645)
(-1.46048e-13 -1.15119e-13 1.8671e-14)
(-58.345 2.45343 9.73958)
(-8.54146e-14 6.26724e-14 -3.75905e-14)
(-1.35765e-13 -5.69503e-15 -1.94591e-14)
(-7.67234e-13 -2.02091e-13 1.25833e-13)
(-1.22594e-12 -4.48232e-13 -4.68191e-13)
(-50.641 5.10052 5.35047)
(-51.051 -9.8707 5.46328)
(-9.16717e-14 2.5586e-14 6.70473e-14)
(-45.7901 -7.06014 -8.79205)
(-4.59961e-13 -1.73754e-14 -2.30203e-13)
(-46.2567 -7.155 -13.0358)
(-4.27068e-13 -3.49222e-14 -1.73031e-13)
(-5.89452e-07 6.43203e-08 -7.48558e-08)
(-1.73599e-09 7.30496e-11 -5.36034e-10)
(-44.0337 7.92864 -9.41813)
(-9.12536 0.416666 -3.61772)
(-50.434 -2.59895 -13.7896)
(-5.43033e-13 5.25368e-14 1.02423e-13)
(-0.0170118 -0.000603676 -0.00971646)
(-1.47663e-08 -3.71343e-10 -5.50286e-09)
(-23.5951 -4.01661 8.88717)
(-25.1375 -7.24302 -11.139)
(-6.57179e-12 6.91917e-13 -3.40156e-12)
(-2.26239e-11 1.56473e-12 9.37247e-12)
(-0.119391 0.0198734 -0.0576713)
(-5.74458e-11 5.37765e-12 2.719e-11)
(-5.83795 -1.19204 2.57593)
(-22.9236 -1.2806 -8.811)
(-0.706817 -0.286992 0.232957)
(-9.69509e-12 2.79893e-12 -4.78733e-12)
(-29.9057 -1.90758 11.5591)
(-8.34377e-10 2.48515e-10 1.45316e-10)
(-2.25153e-10 2.30318e-11 1.00605e-10)
(-1.48809e-05 4.08366e-06 5.8405e-06)
(-1.95296e-05 -6.7523e-06 -4.93081e-06)
(-3.09855e-05 2.89081e-06 -6.53708e-06)
(-1.99837e-06 -2.61185e-07 -7.08916e-07)
(-1.64526e-05 -2.68298e-06 4.18139e-07)
(-2.18694e-05 4.26347e-06 -9.18602e-06)
(-2.81675e-05 -2.31675e-06 1.25976e-05)
(-1.89884e-05 2.25697e-06 5.97834e-06)
(-2.01902e-05 -1.73104e-06 1.02844e-05)
(-0.0663508 -0.0161691 -0.0176558)
(-1.81894e-06 -5.08357e-07 5.485e-07)
(-0.000173257 -5.92932e-05 -0.000111238)
(-1.53821e-05 5.70732e-06 -4.67549e-06)
(-1.76407e-06 6.44174e-07 -6.62175e-07)
(-1.70539e-06 5.09631e-07 5.65725e-07)
(-7.51665 -0.919859 2.6074)
(-1.14039 -0.0338486 -0.507351)
(-1.28928e-11 1.01349e-12 8.20316e-12)
(-4.52382e-07 8.5496e-08 2.61535e-07)
(-0.00180764 0.000163703 0.000847358)
(-0.00212746 -8.91791e-05 -0.000613792)
(-7.44285e-09 2.88166e-10 -2.95473e-09)
(-4.72342e-08 1.8839e-08 -1.43286e-08)
(-3.90722e-08 1.90734e-08 1.75981e-08)
(-7.5138e-09 -4.75002e-12 2.78922e-09)
(-1.0528e-08 1.58805e-09 -2.77251e-09)
(-0.125543 -0.00797535 -0.0856708)
(-1.33535e-09 1.31754e-10 3.34104e-10)
(-1.51272e-09 2.75338e-10 7.05892e-10)
(-7.82157 -1.60215 3.82655)
(-9.6822 -1.00713 -3.22711)
(-0.179592 -0.012172 -0.098746)
(-1.34576e-08 5.20455e-10 4.93679e-09)
(-8.11786e-08 8.72372e-09 -2.06118e-08)
(-0.787574 -0.0218775 -0.353859)
(-0.00210498 -2.08567e-05 0.000611956)
(-6.65177e-08 9.71951e-09 -2.28474e-08)
(-0.0156591 0.000693738 0.00672394)
(-0.0169612 -0.0005403 -0.00581776)
(-1.14055e-09 -1.49545e-10 -3.67242e-10)
(-5.55703e-07 -3.95983e-08 1.07985e-07)
(-1.13456e-07 -5.07679e-09 6.47141e-08)
(-1.01639e-08 -2.00719e-10 4.12413e-09)
(-0.708178 0.0354042 -0.293807)
(-1.32345e-09 2.84298e-10 -5.5746e-10)
(-4.27338e-08 -7.05329e-09 1.01472e-08)
(-6.71954e-08 -4.1012e-09 -3.12952e-08)
(-2.62999e-11 -2.96789e-12 -1.0214e-11)
(-1.8103e-10 2.36172e-11 -3.51928e-11)
(-0.066712 0.00494819 0.0152472)
(-1.04573e-08 1.97328e-12 5.47385e-09)
(-22.5393 -3.15632 8.67068)
(-2.46648e-11 3.45348e-12 8.50799e-12)
(-2.47405e-11 -1.80455e-12 -1.07258e-11)
(-1.91179e-10 -1.56919e-11 -8.0122e-11)
(-6.56961 0.0172608 2.07938)
(-3.6798 -0.019152 0.93976)
(-23.2287 0.321792 6.12569)
(-1.9651e-11 3.713e-12 -9.36884e-12)
(-0.0978213 0.015833 -0.0463566)
(-1.96987e-11 -6.55961e-13 -7.6549e-12)
(-22.4725 -0.350702 11.791)
(-25.4431 3.28789 -9.64199)
(-4.45034 0.0636193 -1.2459)
(-2.16712e-08 -6.13273e-09 8.06102e-09)
(-1.39561e-10 -1.03339e-11 -2.85255e-11)
(-23.6114 -0.10672 -10.1073)
(-7.58673e-10 -1.13124e-10 -4.1555e-10)
(-3.60921e-07 9.44168e-09 1.30517e-07)
(-21.3193 2.12226 -9.6276)
(-5.6661e-09 -1.70432e-09 3.33589e-09)
(-6.90533e-09 -1.32076e-09 -2.01075e-09)
(-1.88493e-11 -1.2914e-12 -7.84945e-12)
(-0.510755 0.160404 -0.172548)
(-0.453146 0.092765 0.2148)
(-5.96294e-10 -2.19008e-10 2.77761e-10)
(-22.0084 0.944203 9.71018)
(-1.28634e-11 -3.08259e-12 -6.22638e-12)
(-4.92163e-10 -9.69606e-11 2.89524e-10)
(-0.420063 0.162256 -0.091056)
(-0.00897033 0.00148636 -0.00269257)
(-3.37705e-09 -1.14924e-09 -7.40385e-10)
(-0.0498303 0.0105859 -0.0180979)
(-0.0472921 0.0180991 0.0173776)
(-8.60746e-12 -3.30195e-12 1.78287e-12)
(-18.9717 6.41412 5.98396)
(-0.00874891 0.00166412 0.00219625)
(-3.5475 0.455879 1.57947)
(-1.15138e-10 -4.07259e-11 -5.58299e-11)
(-2.79544e-07 -5.53486e-08 6.94461e-08)
(-0.00114874 0.000209719 0.000418754)
(-3.45476e-07 -1.09335e-07 -1.47192e-07)
(-9.90652e-11 -7.83707e-12 -5.51766e-11)
(-4.27232 0.25695 2.32989)
(-1.4072e-07 -4.43014e-08 2.955e-08)
(-0.000999166 0.000391832 -0.000222481)
(-2.38213e-07 -5.96114e-08 -9.00789e-08)
(-3.47982 1.18698 -1.89438)
(-6.72482e-11 -2.7954e-11 1.92382e-11)
(-0.00775477 0.00315722 0.00235351)
(-0.00657099 0.00221303 -0.00239741)
(-3.04488e-08 -1.81297e-10 -1.59765e-08)
(-3.38196e-08 -7.62126e-09 -1.8233e-08)
(-3.85175e-10 -5.77161e-13 8.91788e-13)
(-3.80345e-10 4.89182e-13 -6.11791e-12)
(-0.000614474 7.67068e-05 9.43452e-06)
(-0.000405055 7.20741e-05 -0.00020293)
(-2.13443e-10 -3.36386e-11 -1.0482e-10)
(-2.09597e-10 2.39899e-11 -1.10519e-10)
(-0.000800907 6.86575e-05 1.10902e-05)
(-0.000406344 -4.44692e-05 -0.00020606)
(-3.21954e-05 -5.15236e-07 -9.01642e-06)
(-5.36767e-05 5.95823e-06 -3.1154e-06)
(-5.31879e-05 1.63518e-06 -1.44528e-06)
(-3.50794e-05 3.50486e-06 -1.58657e-05)
(-0.046109 0.00287912 0.000100711)
(-4.97915e-06 6.74577e-07 -2.42234e-06)
(-9.3526e-06 -1.58685e-06 9.10761e-07)
(-8.37224e-06 -1.94477e-06 3.63898e-07)
(-4.69068e-06 -3.95462e-07 -1.9244e-06)
(-0.0490921 0.000412863 0.000858506)
(-0.0262284 0.00236595 -0.0151253)
(-0.205762 -0.054566 -0.00848204)
(-0.124983 -1.4798e-05 0.05845)
(-6.79424e-07 -1.91966e-08 2.5525e-07)
(-6.7396e-07 -4.67921e-09 2.47287e-07)
(-1.15146e-06 -9.17918e-09 -6.34898e-08)
(-3.96278e-11 7.24501e-12 5.85256e-13)
(-1.1579e-06 -6.59341e-08 -5.78617e-08)
(-23.538 -0.312554 -10.0896)
(-0.172791 0.0175582 0.00543887)