/*--------------------------------*- C++ -*----------------------------------*\
  =========                 |
  \\      /  F ield         | OpenFOAM: The Open Source CFD Toolbox
   \\    /   O peration     | Website:  https://openfoam.org
    \\  /    A nd           | Version:  6
     \\/     M anipulation  |
\*---------------------------------------------------------------------------*/
FoamFile
{
    version     2.0;
    format      ascii;
    class       volScalarField;
    location    "4.83";
    object      rho;
}
// * * * * * * * * * * * * * * * * * * * * * * * * * * * * * * * * * * * * * //

dimensions      [1 -3 0 0 0 0 0];

internalField   nonuniform List<scalar> 
10000
(
1.39998
1.39999
1.39999
1.4
1.4
1.4
1.4
1.4
1.4
1.4
1.40001
1.4
1.40001
1.4
1.40001
1.4
1.40001
1.40001
1.4
1.4
1.40001
1.4
1.4
1.40001
1.4
1.4
1.40001
1.40001
1.40001
1.4
1.40001
1.40001
1.40001
1.4
1.40001
1.4
1.40001
1.40001
1.40001
1.40001
1.40002
1.40003
1.40004
1.40006
1.40008
1.4001
1.40013
1.40015
1.40016
1.40019
1.40023
1.40033
1.40053
1.40085
1.40136
1.40209
1.40305
1.40425
1.40569
1.40733
1.40913
1.41104
1.413
1.41494
1.4168
1.41852
1.42004
1.42131
1.42228
1.42294
1.42326
1.42324
1.42287
1.42215
1.42109
1.41973
1.4181
1.41628
1.41436
1.41242
1.41052
1.40875
1.40714
1.4057
1.40446
1.40341
1.40254
1.40184
1.40128
1.40085
1.40054
1.40031
1.40016
1.40006
1.4
1.39997
1.39996
1.39996
1.39997
1.39997
1.39998
1.39998
1.39999
1.39999
1.4
1.4
1.4
1.4
1.4
1.4
1.40001
1.4
1.40001
1.4
1.4
1.40001
1.4
1.40001
1.40001
1.4
1.40001
1.4
1.4
1.40001
1.4
1.4
1.4
1.40001
1.4
1.4
1.4
1.40001
1.4
1.4
1.4
1.40001
1.40001
1.40001
1.40001
1.40001
1.40002
1.40003
1.40005
1.40007
1.4001
1.40013
1.40016
1.40019
1.40021
1.40026
1.40036
1.40056
1.40093
1.40154
1.40247
1.40376
1.40543
1.40748
1.40986
1.41252
1.41537
1.41831
1.42125
1.4241
1.42676
1.42917
1.43124
1.43295
1.43425
1.43514
1.4356
1.43563
1.43522
1.43435
1.43298
1.43109
1.42872
1.42595
1.42291
1.41976
1.41666
1.41375
1.41111
1.40879
1.40681
1.40517
1.40382
1.40275
1.40192
1.40128
1.40082
1.40048
1.40026
1.40011
1.40003
1.39998
1.39996
1.39995
1.39996
1.39997
1.39997
1.39998
1.39998
1.39999
1.4
1.4
1.4
1.4
1.4
1.4
1.40001
1.4
1.40001
1.40001
1.4
1.4
1.40001
1.4
1.4
1.40001
1.4
1.4
1.40001
1.4
1.4
1.40001
1.4
1.40001
1.40001
1.4
1.4
1.40001
1.40001
1.4
1.4
1.40001
1.40001
1.40001
1.40001
1.40001
1.40002
1.40003
1.40006
1.40009
1.40012
1.40016
1.4002
1.40023
1.40028
1.40036
1.40054
1.40092
1.40158
1.40266
1.40425
1.4064
1.40912
1.41234
1.41597
1.41988
1.42393
1.42796
1.43183
1.43543
1.43865
1.44142
1.44372
1.44555
1.44693
1.44789
1.44849
1.44874
1.44864
1.4481
1.44701
1.4452
1.44258
1.43913
1.43499
1.4304
1.4257
1.42117
1.41701
1.41337
1.41027
1.40772
1.40567
1.40406
1.40283
1.4019
1.40122
1.40074
1.40041
1.40019
1.40006
1.39999
1.39996
1.39995
1.39995
1.39996
1.39996
1.39997
1.39998
1.39999
1.39999
1.4
1.4
1.4
1.4
1.4
1.40001
1.4
1.40001
1.4
1.40001
1.4
1.4
1.40002
1.39999
1.40001
1.40001
1.4
1.40001
1.40001
1.4
1.40001
1.40001
1.4
1.40001
1.4
1.4
1.40001
1.40001
1.4
1.4
1.40001
1.40001
1.40001
1.40001
1.40002
1.40002
1.40004
1.40007
1.40011
1.40015
1.4002
1.40025
1.40029
1.40036
1.4005
1.40083
1.40148
1.40262
1.40442
1.40698
1.41035
1.41444
1.4191
1.42411
1.42925
1.43428
1.43899
1.44321
1.4468
1.4497
1.45193
1.45355
1.4547
1.45549
1.45611
1.45666
1.45725
1.45792
1.45855
1.45891
1.45863
1.45727
1.4545
1.45021
1.44464
1.43829
1.43176
1.42557
1.42003
1.41531
1.41143
1.40833
1.40593
1.40411
1.40276
1.40178
1.40109
1.40062
1.40031
1.40012
1.40002
1.39996
1.39994
1.39994
1.39995
1.39995
1.39996
1.39997
1.39998
1.39999
1.39999
1.4
1.4
1.4
1.4
1.40001
1.4
1.40001
1.40001
1.39999
1.40001
1.4
1.4
1.40001
1.40001
1.4
1.4
1.40001
1.40001
1.4
1.40001
1.40001
1.4
1.40001
1.40001
1.4
1.40001
1.40001
1.4
1.4
1.40001
1.40001
1.40001
1.40001
1.40002
1.40003
1.40005
1.40008
1.40013
1.40019
1.40025
1.4003
1.40036
1.40046
1.40071
1.40127
1.40235
1.4042
1.40704
1.41095
1.41586
1.42154
1.42762
1.43374
1.43954
1.4447
1.44898
1.45219
1.45428
1.45531
1.45546
1.455
1.45424
1.45348
1.45302
1.45309
1.45388
1.45555
1.45807
1.4612
1.46436
1.46673
1.4674
1.4656
1.46106
1.4542
1.44597
1.43745
1.42948
1.42253
1.41676
1.41216
1.4086
1.40593
1.40398
1.40258
1.40159
1.40093
1.40049
1.40022
1.40006
1.39998
1.39994
1.39993
1.39994
1.39994
1.39995
1.39997
1.39998
1.39999
1.39999
1.4
1.4
1.4
1.40001
1.39999
1.40002
1.39999
1.40001
1.40001
1.39998
1.40003
1.39999
1.4
1.40002
1.4
1.4
1.40001
1.40001
1.4
1.4
1.40001
1.4
1.4
1.40001
1.40001
1.4
1.40001
1.40001
1.4
1.40001
1.40001
1.40001
1.40001
1.40002
1.40003
1.40006
1.4001
1.40015
1.40022
1.40029
1.40036
1.40043
1.4006
1.40101
1.40192
1.40364
1.40653
1.41078
1.41638
1.423
1.4301
1.43708
1.44337
1.44854
1.45224
1.45425
1.45452
1.45315
1.45048
1.44694
1.44304
1.43926
1.4361
1.43392
1.43294
1.43343
1.43567
1.43996
1.44628
1.45409
1.46231
1.46952
1.47414
1.47473
1.47072
1.46284
1.45275
1.44223
1.43253
1.42426
1.41759
1.41241
1.40853
1.4057
1.40369
1.4023
1.40136
1.40074
1.40036
1.40013
1.4
1.39995
1.39993
1.39993
1.39993
1.39994
1.39996
1.39997
1.39998
1.39999
1.39999
1.40001
1.39999
1.40002
1.39999
1.4
1.40003
1.39997
1.40003
1.39999
1.40001
1.40001
1.39999
1.40002
1.4
1.4
1.40001
1.40001
1.40001
1.39999
1.40001
1.40001
1.4
1.4
1.40001
1.4
1.4
1.40001
1.40001
1.40001
1.40001
1.40001
1.40001
1.40002
1.40004
1.40007
1.40012
1.40018
1.40026
1.40034
1.40042
1.40052
1.40079
1.40145
1.40287
1.40553
1.40982
1.41586
1.4233
1.43138
1.43915
1.44577
1.45059
1.45322
1.45344
1.45117
1.44661
1.4402
1.43264
1.42468
1.41698
1.41006
1.40447
1.4005
1.39827
1.39785
1.39955
1.40408
1.41209
1.42365
1.43788
1.45297
1.46682
1.47695
1.48109
1.47831
1.46972
1.45794
1.44559
1.43439
1.42507
1.41774
1.4122
1.40815
1.40528
1.4033
1.40197
1.40111
1.40056
1.40024
1.40005
1.39996
1.39993
1.39992
1.39992
1.39993
1.39995
1.39996
1.39998
1.39998
1.4
1.39998
1.40002
1.39997
1.40004
1.39998
1.4
1.40004
1.39995
1.40005
1.4
1.4
1.4
1.40002
1.4
1.39999
1.40003
1.39999
1.40001
1.4
1.4
1.40002
1.4
1.4
1.40001
1.40001
1.4
1.4
1.40001
1.40001
1.40001
1.40001
1.40001
1.40002
1.40004
1.40008
1.40014
1.40022
1.40031
1.4004
1.40049
1.40064
1.40105
1.40207
1.40425
1.40818
1.41427
1.42231
1.43134
1.43999
1.44695
1.45135
1.45272
1.4509
1.44591
1.43799
1.42774
1.41611
1.40414
1.3928
1.38275
1.37418
1.36732
1.36241
1.35948
1.35806
1.35811
1.36035
1.36643
1.37796
1.39523
1.41652
1.43918
1.46025
1.47644
1.48451
1.48317
1.47411
1.46094
1.44715
1.43486
1.42487
1.41721
1.41155
1.40752
1.40473
1.40285
1.40163
1.40086
1.4004
1.40013
1.39999
1.39993
1.39991
1.39991
1.39992
1.39993
1.39995
1.39997
1.39997
1.4
1.39999
1.4
1.40003
1.39995
1.40007
1.39994
1.40006
1.39996
1.40002
1.40002
1.39997
1.40003
1.39999
1.40003
1.39997
1.40004
1.4
1.39998
1.40003
1.39999
1.40001
1.40001
1.39999
1.40001
1.40001
1.4
1.4
1.40001
1.40001
1.4
1.40001
1.40002
1.40003
1.40005
1.40009
1.40016
1.40025
1.40036
1.40045
1.40056
1.40078
1.40141
1.40296
1.40617
1.41179
1.41999
1.42987
1.43958
1.44719
1.45138
1.45162
1.44796
1.44056
1.42975
1.41625
1.40122
1.38619
1.37235
1.36061
1.35131
1.34407
1.33818
1.33377
1.33112
1.32947
1.32796
1.32637
1.32662
1.33207
1.34559
1.36766
1.39545
1.42505
1.45268
1.4741
1.48536
1.48506
1.47555
1.46141
1.44676
1.43394
1.42375
1.41609
1.41056
1.40671
1.4041
1.40238
1.4013
1.40063
1.40025
1.40005
1.39995
1.39991
1.3999
1.39991
1.39992
1.39995
1.39994
1.4
1.39994
1.40004
1.39995
1.40004
1.39999
1.39996
1.40009
1.39991
1.40006
1.39997
1.40006
1.39991
1.40009
1.39997
1.40001
1.40002
1.39998
1.40005
1.39996
1.40002
1.40002
1.39999
1.40001
1.4
1.4
1.40001
1.4
1.4
1.40001
1.40001
1.4
1.40001
1.40002
1.40003
1.40005
1.4001
1.40018
1.40029
1.40041
1.40051
1.40064
1.40097
1.40192
1.40421
1.40881
1.4165
1.42685
1.43781
1.44659
1.45113
1.45072
1.44563
1.43645
1.42364
1.40784
1.39045
1.37336
1.35847
1.3469
1.33884
1.33396
1.3313
1.329
1.32645
1.32447
1.32345
1.32182
1.31793
1.31188
1.30711
1.30881
1.32204
1.34705
1.3797
1.41457
1.44687
1.47162
1.4844
1.48414
1.47406
1.4594
1.44454
1.43181
1.42186
1.41453
1.40934
1.40579
1.40344
1.40192
1.40099
1.40044
1.40014
1.39998
1.39992
1.3999
1.39989
1.39992
1.39992
1.39997
1.39993
1.40002
1.39991
1.4001
1.39987
1.40012
1.39989
1.40012
1.3999
1.40006
1.4
1.40001
1.39999
1.39998
1.40011
1.39988
1.4001
1.39995
1.40004
1.4
1.39997
1.40005
1.39999
1.4
1.40002
1.4
1.40001
1.40001
1.4
1.40001
1.40001
1.40001
1.40001
1.40002
1.40003
1.40006
1.40012
1.40021
1.40034
1.40046
1.40057
1.40074
1.40122
1.40262
1.40591
1.41232
1.42234
1.43438
1.44495
1.45074
1.45044
1.44455
1.43421
1.42033
1.40341
1.38459
1.36623
1.35101
1.34073
1.33581
1.33516
1.33732
1.34099
1.34376
1.34368
1.34152
1.34015
1.33881
1.33574
1.32805
1.31635
1.30516
1.30154
1.31219
1.33778
1.37265
1.41023
1.44462
1.47006
1.48225
1.48091
1.47008
1.45533
1.44089
1.42877
1.41947
1.41272
1.40802
1.40486
1.4028
1.4015
1.40072
1.40028
1.40005
1.39994
1.39991
1.39989
1.39991
1.3999
1.39997
1.39992
1.4
1.39997
1.39999
1.40003
1.39991
1.40015
1.39985
1.40012
1.39987
1.40022
1.39974
1.40024
1.39981
1.40018
1.39989
1.40003
1.40007
1.39992
1.40006
1.39996
1.40004
1.40002
1.39997
1.40003
1.40001
1.39999
1.40001
1.40001
1.40001
1.40001
1.40001
1.40001
1.40001
1.40003
1.40007
1.40014
1.40024
1.40038
1.40052
1.40064
1.40085
1.40157
1.40357
1.40819
1.41679
1.4291
1.4417
1.44987
1.45085
1.44494
1.43399
1.41966
1.40264
1.38336
1.36408
1.34847
1.33958
1.33816
1.34298
1.35122
1.36044
1.369
1.37546
1.37716
1.37371
1.3687
1.36502
1.36187
1.3567
1.34647
1.33245
1.31756
1.30979
1.3174
1.34134
1.37571
1.41291
1.4462
1.46956
1.47918
1.47586
1.46428
1.44986
1.4363
1.4252
1.41681
1.41081
1.40669
1.40396
1.40221
1.40113
1.4005
1.40015
1.39998
1.39992
1.39992
1.39984
1.39998
1.39982
1.40007
1.39981
1.40016
1.39978
1.40017
1.39985
1.40016
1.39984
1.40012
1.39991
1.40015
1.39983
1.40006
1.40011
1.39985
1.40019
1.39978
1.40019
1.3999
1.40005
1.40002
1.39996
1.40005
1.39998
1.4
1.40003
1.39999
1.4
1.40001
1.40001
1.4
1.40001
1.40002
1.40001
1.40003
1.40008
1.40016
1.40027
1.40043
1.40057
1.4007
1.401
1.40203
1.40486
1.41118
1.42226
1.43625
1.44766
1.45147
1.4467
1.43573
1.4212
1.40454
1.38589
1.36603
1.34937
1.34091
1.34247
1.3524
1.36682
1.38155
1.39397
1.40283
1.40865
1.41019
1.40602
1.39618
1.38702
1.37859
1.37177
1.36462
1.35606
1.3462
1.33462
1.32748
1.33398
1.35587
1.38759
1.42159
1.4508
1.46952
1.47514
1.46948
1.45737
1.44366
1.43131
1.42145
1.41412
1.40894
1.40543
1.40313
1.40169
1.40082
1.40032
1.40007
1.40001
1.39988
1.39993
1.39985
1.39997
1.39986
1.40007
1.39981
1.40014
1.39982
1.40022
1.39975
1.40023
1.3997
1.40044
1.39951
1.4005
1.39947
1.4006
1.39947
1.40032
1.39986
1.4001
1.40002
1.39986
1.40013
1.39996
1.40002
1.4
1.39997
1.40004
1.40001
1.39998
1.40002
1.40001
1.39999
1.4
1.40002
1.40002
1.40004
1.40009
1.40018
1.40032
1.40047
1.40061
1.40076
1.4012
1.40266
1.40656
1.41498
1.42854
1.44298
1.45116
1.44935
1.43918
1.42465
1.40825
1.39063
1.37141
1.35309
1.34309
1.34634
1.36058
1.38025
1.39922
1.41363
1.42246
1.42652
1.42741
1.42705
1.42483
1.4169
1.40469
1.39073
1.37495
1.36062
1.34962
1.34635
1.34767
1.34645
1.34617
1.35513
1.37621
1.40479
1.43368
1.45661
1.46914
1.47013
1.46224
1.45001
1.43733
1.42637
1.41782
1.41157
1.40721
1.40429
1.40242
1.40125
1.40057
1.40017
1.40011
1.39989
1.39998
1.39976
1.40006
1.39977
1.40011
1.39974
1.40024
1.39978
1.40015
1.39983
1.40013
1.39987
1.40028
1.39965
1.40028
1.3998
1.4001
1.4001
1.39976
1.40035
1.39962
1.40026
1.39987
1.40012
1.39996
1.39993
1.40009
1.39999
1.39999
1.40002
1.39998
1.40001
1.40003
1.4
1.4
1.40001
1.40002
1.40004
1.4001
1.40021
1.40036
1.40052
1.40066
1.40084
1.40147
1.4035
1.40877
1.41963
1.43518
1.44832
1.4516
1.44402
1.42979
1.41342
1.39644
1.3787
1.35989
1.34631
1.34808
1.36564
1.39014
1.4122
1.4263
1.43175
1.4311
1.42809
1.42385
1.42199
1.42356
1.42766
1.42401
1.41517
1.39629
1.3691
1.3414
1.32229
1.32374
1.33781
1.35067
1.36084
1.37532
1.39711
1.4226
1.4458
1.46164
1.46756
1.46418
1.45462
1.4427
1.43128
1.42178
1.41451
1.40928
1.40568
1.40331
1.4018
1.4009
1.40035
1.40012
1.40013
1.39975
1.40008
1.39969
1.40016
1.39957
1.4004
1.39958
1.40029
1.39963
1.40041
1.39954
1.40062
1.39929
1.40073
1.39909
1.40114
1.39897
1.40093
1.39905
1.40072
1.39972
1.40015
1.39993
1.39988
1.40018
1.39994
1.40003
1.39999
1.39997
1.40006
1.4
1.39998
1.40001
1.40002
1.40001
1.40002
1.40003
1.40005
1.40011
1.40023
1.40039
1.40056
1.4007
1.40094
1.40184
1.4046
1.4116
1.42506
1.44152
1.45149
1.44905
1.43656
1.41995
1.40309
1.38632
1.36894
1.35223
1.34821
1.36594
1.39518
1.42122
1.43424
1.43369
1.42448
1.4129
1.40394
1.3987
1.39729
1.40162
1.41663
1.43349
1.44269
1.43955
1.41753
1.37898
1.33392
1.30312
1.30519
1.32783
1.3523
1.37228
1.39247
1.41539
1.43788
1.45512
1.4641
1.46428
1.4575
1.44701
1.4358
1.42576
1.41767
1.41161
1.40731
1.40438
1.40251
1.40128
1.40065
1.40041
1.40009
1.39992
1.39998
1.39981
1.39993
1.39989
1.40014
1.39963
1.40015
1.39999
1.40006
1.39983
1.40023
1.39963
1.40045
1.39955
1.40059
1.39937
1.40027
1.40014
1.3999
1.40021
1.39942
1.40052
1.39987
1.40011
1.39985
1.39997
1.40015
1.39996
1.39996
1.40003
1.40002
1.4
1.4
1.4
1.40001
1.40004
1.40008
1.40014
1.40026
1.40042
1.4006
1.40075
1.40108
1.40233
1.40602
1.4151
1.43097
1.44682
1.45214
1.44416
1.42816
1.41061
1.39411
1.37802
1.36155
1.35005
1.36108
1.39404
1.42564
1.44079
1.43427
1.41347
1.38962
1.36936
1.35668
1.35354
1.35484
1.36198
1.37625
1.40736
1.43633
1.45773
1.46321
1.44184
1.40058
1.34292
1.30409
1.30282
1.32791
1.35777
1.38399
1.40791
1.43035
1.44884
1.46036
1.46346
1.45923
1.45035
1.43973
1.42952
1.42087
1.41412
1.40914
1.40567
1.40331
1.40186
1.40088
1.40076
1.40001
1.40027
1.39965
1.40017
1.39952
1.40055
1.39913
1.40053
1.39964
1.40053
1.39913
1.40079
1.39923
1.40099
1.39879
1.40133
1.39855
1.40163
1.39844
1.40146
1.39849
1.40113
1.39953
1.40038
1.39966
1.39988
1.4003
1.39994
1.40002
1.39994
1.39999
1.40008
1.39998
1.39997
1.40004
1.40001
1.39998
1.40001
1.40008
1.40016
1.40028
1.40045
1.40063
1.40079
1.40128
1.40297
1.40782
1.41929
1.4369
1.4505
1.45044
1.43781
1.41973
1.40225
1.38665
1.37153
1.35711
1.35542
1.38427
1.42442
1.44548
1.43921
1.40768
1.36677
1.33207
1.30642
1.29131
1.28888
1.29742
1.31187
1.32729
1.35345
1.38839
1.4229
1.44799
1.45854
1.44664
1.41145
1.35675
1.31921
1.31676
1.34043
1.37043
1.39795
1.42198
1.44204
1.45576
1.46157
1.45997
1.45292
1.44315
1.43301
1.42399
1.41667
1.41111
1.40709
1.40429
1.40251
1.40123
1.40076
1.4005
1.40005
1.39997
1.39985
1.40007
1.39973
1.39974
1.40037
1.39995
1.39954
1.40004
1.40038
1.39976
1.40018
1.39944
1.4009
1.39913
1.40082
1.39892
1.40093
1.39983
1.40001
1.39999
1.39938
1.40079
1.39981
1.40011
1.39969
1.40005
1.40023
1.39993
1.39996
1.40004
1.39999
1.39999
1.40003
1.40004
1.40001
1.40007
1.40016
1.4003
1.40049
1.40066
1.40086
1.40155
1.40378
1.41007
1.42406
1.44231
1.45225
1.44691
1.43083
1.41176
1.39506
1.38075
1.36685
1.35664
1.36927
1.41239
1.44708
1.44704
1.41426
1.35768
1.30181
1.2606
1.23177
1.21422
1.2123
1.23128
1.26116
1.29764
1.3223
1.35164
1.37998
1.40182
1.42243
1.42403
1.4243
1.40025
1.36311
1.33725
1.33895
1.35999
1.3874
1.41339
1.4351
1.45047
1.45865
1.45957
1.45456
1.44599
1.43625
1.42703
1.41924
1.41316
1.40858
1.40547
1.40312
1.40193
1.40113
1.40082
1.39994
1.4003
1.39963
1.40038
1.39898
1.40106
1.39929
1.40011
1.39923
1.40139
1.39895
1.40086
1.39853
1.40177
1.39834
1.40162
1.39818
1.40223
1.39809
1.4015
1.39798
1.40188
1.39931
1.40049
1.39932
1.39997
1.4005
1.39991
1.3999
1.39986
1.40006
1.40016
1.39997
1.39993
1.40004
1.40005
1.40005
1.4001
1.40018
1.40035
1.40054
1.4007
1.40096
1.4019
1.40481
1.41283
1.42916
1.44672
1.45217
1.44218
1.42379
1.40453
1.38909
1.37636
1.36416
1.3612
1.38946
1.43737
1.45518
1.42968
1.3702
1.29398
1.23093
1.18405
1.15056
1.13135
1.13356
1.16036
1.2109
1.27369
1.32641
1.3634
1.38336
1.40069
1.4027
1.39851
1.38883
1.38834
1.37793
1.36124
1.35189
1.36069
1.38154
1.40601
1.42806
1.44506
1.45537
1.45836
1.45523
1.44807
1.43904
1.42989
1.42183
1.41521
1.41027
1.40657
1.40406
1.40241
1.40191
1.40068
1.40049
1.40002
1.40014
1.39952
1.40028
1.40006
1.39937
1.39979
1.40084
1.39984
1.39942
1.40003
1.39993
1.40076
1.39921
1.40099
1.39881
1.40107
1.39833
1.40159
1.3997
1.40031
1.39945
1.39928
1.4012
1.39979
1.40007
1.39956
1.40013
1.40031
1.39982
1.39986
1.40007
1.40005
1.39996
1.39999
1.40006
1.40009
1.40018
1.40038
1.40055
1.40072
1.40108
1.40236
1.40608
1.41611
1.43425
1.44985
1.45057
1.4368
1.41703
1.39818
1.38434
1.37338
1.36388
1.37065
1.41086
1.45278
1.44791
1.39836
1.31657
1.23076
1.1618
1.10225
1.05952
1.04133
1.05023
1.084
1.14524
1.21914
1.30564
1.36933
1.41009
1.43316
1.43019
1.42391
1.38783
1.36865
1.36069
1.35983
1.35934
1.36604
1.38066
1.40092
1.42185
1.44
1.45186
1.45668
1.45531
1.44952
1.44128
1.43249
1.42428
1.41735
1.41198
1.40776
1.40514
1.40278
1.40226
1.40097
1.40083
1.39992
1.40033
1.39939
1.40098
1.39852
1.40063
1.39994
1.40076
1.39817
1.40117
1.39897
1.40207
1.39802
1.40168
1.39773
1.40171
1.39862
1.40237
1.39832
1.40098
1.39753
1.40246
1.39938
1.40065
1.39886
1.39995
1.40074
1.39995
1.39991
1.39991
1.40006
1.40011
1.39993
1.39992
1.40006
1.40007
1.40007
1.4002
1.40038
1.40054
1.40075
1.40125
1.40294
1.40764
1.41983
1.43897
1.45162
1.44785
1.43121
1.41073
1.39275
1.38073
1.37178
1.36628
1.38286
1.42819
1.45651
1.42977
1.3615
1.26674
1.17444
1.08607
1.00316
0.950361
0.940204
0.960037
1.0028
1.06457
1.14229
1.22969
1.31715
1.39563
1.42942
1.45227
1.44933
1.42923
1.3877
1.35948
1.35041
1.35528
1.36459
1.3796
1.39811
1.41794
1.43533
1.44789
1.45453
1.45497
1.45049
1.44309
1.43473
1.42651
1.41951
1.41355
1.40931
1.40589
1.40369
1.40244
1.40174
1.40063
1.40048
1.39983
1.4005
1.39933
1.39991
1.4005
1.40002
1.39889
1.40025
1.40064
1.40003
1.40004
1.39895
1.4004
1.39961
1.40164
1.39924
1.40047
1.39752
1.40191
1.39994
1.40112
1.39876
1.39881
1.40162
1.39999
1.4
1.39919
1.40012
1.40054
1.39995
1.39986
1.40008
1.40008
1.40001
1.40003
1.40017
1.4003
1.40041
1.40057
1.40083
1.40151
1.40365
1.40955
1.42384
1.44301
1.45219
1.44439
1.42566
1.40504
1.38826
1.37809
1.37162
1.37088
1.39461
1.43867
1.45074
1.40783
1.32924
1.22637
1.11073
0.986771
0.88305
0.833697
0.844928
0.885421
0.939855
1.01168
1.09373
1.16701
1.25827
1.34105
1.39793
1.43338
1.43387
1.44287
1.41448
1.38236
1.35692
1.35215
1.36033
1.37676
1.39532
1.41441
1.43108
1.44442
1.4522
1.45411
1.45095
1.44459
1.43661
1.42864
1.42137
1.4153
1.41068
1.40684
1.40469
1.40319
1.4021
1.40079
1.40075
1.39993
1.40045
1.39899
1.40129
1.399
1.39999
1.39931
1.40181
1.39846
1.40114
1.39774
1.40211
1.39866
1.40239
1.39801
1.40008
1.39891
1.40184
1.40025
1.40041
1.39694
1.40217
1.39945
1.40149
1.39865
1.3995
1.40094
1.40006
1.39967
1.39969
1.40009
1.40025
1.40002
1.3999
1.40002
1.40017
1.40026
1.40043
1.40063
1.40091
1.40184
1.40449
1.41178
1.42792
1.44621
1.45176
1.44057
1.42031
1.39999
1.38469
1.3763
1.37282
1.37636
1.40345
1.44239
1.44017
1.38848
1.30645
1.18164
1.02296
0.870745
0.770353
0.745425
0.784261
0.843093
0.910117
1.0014
1.0909
1.16998
1.24626
1.31392
1.38606
1.40918
1.4214
1.41844
1.41267
1.39279
1.3707
1.35796
1.36102
1.37299
1.39134
1.41047
1.42796
1.44152
1.44983
1.45284
1.45102
1.44568
1.4383
1.43056
1.42312
1.4171
1.4118
1.4082
1.40522
1.4041
1.40214
1.40147
1.40055
1.40055
1.39955
1.40067
1.39957
1.39961
1.39999
1.4008
1.39932
1.39957
1.4002
1.39985
1.40111
1.39936
1.39978
1.39901
1.40091
1.40067
1.40091
1.3972
1.40143
1.39887
1.40248
1.39921
1.39808
1.40133
1.4
1.4006
1.39939
1.39981
1.40047
1.39993
1.39969
1.40004
1.40018
1.40005
1.40003
1.40019
1.40042
1.40064
1.40104
1.40222
1.40549
1.41433
1.43185
1.44856
1.45058
1.43663
1.41529
1.39557
1.38197
1.37525
1.3749
1.38126
1.40875
1.44126
1.42893
1.37452
1.28444
1.11933
0.930341
0.776361
0.695629
0.688312
0.735418
0.793255
0.865169
0.974146
1.08258
1.17846
1.24958
1.31925
1.37587
1.41332
1.43508
1.40928
1.40143
1.3862
1.37479
1.36291
1.36228
1.37234
1.38946
1.40687
1.4241
1.43809
1.4476
1.4516
1.45086
1.44632
1.4397
1.43213
1.42496
1.41854
1.4132
1.40931
1.40587
1.40456
1.40263
1.40185
1.40069
1.40056
1.39996
1.40054
1.39892
1.40094
1.39948
1.40037
1.39859
1.40164
1.39858
1.40186
1.39795
1.40117
1.39857
1.40186
1.39986
1.39916
1.39992
1.3994
1.40144
1.40087
1.39716
1.40218
1.39833
1.4017
1.39956
1.39887
1.40063
1.40044
1.40011
1.39974
1.39989
1.40015
1.40011
1.40006
1.4002
1.40029
1.40041
1.40068
1.40124
1.40267
1.40668
1.41717
1.43545
1.45009
1.44892
1.43272
1.41066
1.39177
1.37997
1.37489
1.37702
1.38494
1.41104
1.43739
1.41825
1.36344
1.25095
1.06221
0.874074
0.716683
0.630375
0.606374
0.639725
0.704603
0.785902
0.907669
1.03619
1.14255
1.23406
1.30525
1.353
1.41376
1.43314
1.42916
1.40533
1.38256
1.36888
1.36341
1.36468
1.37406
1.38614
1.40313
1.42095
1.43558
1.44536
1.45021
1.45036
1.44669
1.44069
1.43356
1.42653
1.41991
1.41469
1.41012
1.40695
1.40495
1.40341
1.40187
1.40117
1.40044
1.40059
1.39942
1.40061
1.39966
1.39996
1.3995
1.40061
1.39978
1.39975
1.40032
1.39907
1.40107
1.39982
1.4
1.39952
1.39976
1.40051
1.40138
1.39733
1.40243
1.3975
1.40182
1.40073
1.39793
1.40124
1.39963
1.40027
1.39971
1.39959
1.40043
1.40036
1.39976
1.39977
1.40016
1.40031
1.40028
1.40046
1.40078
1.40144
1.40318
1.40805
1.42011
1.43864
1.45087
1.44696
1.42906
1.40639
1.38858
1.37855
1.37505
1.37847
1.38746
1.41118
1.43142
1.40796
1.34979
1.21533
1.04592
0.849713
0.653713
0.536913
0.495816
0.529719
0.631691
0.742155
0.864447
0.994087
1.10842
1.21465
1.2861
1.34391
1.38595
1.41222
1.43575
1.41066
1.38884
1.37096
1.36535
1.36368
1.36932
1.38373
1.40318
1.41906
1.43227
1.44264
1.44876
1.4498
1.44701
1.44157
1.43485
1.42781
1.42137
1.41582
1.41115
1.4079
1.40568
1.40387
1.40211
1.4015
1.40065
1.40031
1.40003
1.40043
1.39915
1.40069
1.39934
1.40075
1.39874
1.40132
1.39853
1.40153
1.39887
1.40068
1.39913
1.40058
1.40082
1.3984
1.4014
1.39865
1.40053
1.40174
1.39678
1.4026
1.3986
1.4005
1.40068
1.39919
1.40008
1.4001
1.40003
1.39993
1.39996
1.40011
1.40006
1.40002
1.40024
1.40052
1.4008
1.40173
1.4038
1.40958
1.42306
1.44135
1.45111
1.44484
1.42576
1.40259
1.38576
1.37769
1.37545
1.379
1.38905
1.40978
1.42313
1.39882
1.33214
1.20372
1.05511
0.81482
0.582864
0.457998
0.433373
0.49052
0.613592
0.745628
0.857267
0.979083
1.10008
1.2015
1.2866
1.34499
1.36959
1.4016
1.41564
1.41503
1.3983
1.37463
1.36051
1.36001
1.36988
1.38627
1.39992
1.41441
1.42959
1.44121
1.44736
1.44909
1.44707
1.4422
1.43581
1.42901
1.42261
1.41685
1.41228
1.40853
1.40648
1.40405
1.4027
1.40157
1.40087
1.40032
1.40056
1.3994
1.40058
1.39957
1.40015
1.39964
1.40026
1.3999
1.39969
1.40069
1.39894
1.40087
1.3998
1.39989
1.39998
1.39985
1.39985
1.40171
1.3972
1.40238
1.39878
1.39975
1.40153
1.39823
1.40077
1.40006
1.40022
1.40013
1.39956
1.39987
1.40035
1.4002
1.39991
1.40012
1.40036
1.40044
1.40084
1.40216
1.40452
1.41122
1.42598
1.4436
1.4509
1.44274
1.42278
1.39944
1.38313
1.3772
1.376
1.37866
1.3898
1.40692
1.4136
1.39085
1.31874
1.21516
1.04576
0.774198
0.553858
0.450198
0.449723
0.511811
0.608087
0.734022
0.847072
0.967649
1.08684
1.18582
1.2756
1.33536
1.37809
1.40313
1.40617
1.41222
1.39198
1.37275
1.36216
1.36528
1.3727
1.38079
1.3944
1.41344
1.42876
1.4389
1.44551
1.44823
1.44687
1.44257
1.43666
1.43007
1.42367
1.41791
1.4132
1.40918
1.40699
1.40446
1.40314
1.40163
1.40111
1.40061
1.4001
1.40005
1.40035
1.39924
1.40073
1.39922
1.40069
1.39907
1.401
1.39896
1.40089
1.39936
1.40041
1.3995
1.40035
1.40058
1.39884
1.4007
1.39994
1.39923
1.40211
1.39765
1.4013
1.39974
1.39967
1.40043
1.39958
1.40012
1.40028
1.40001
1.39987
1.3999
1.40013
1.40034
1.40032
1.40042
1.40107
1.40256
1.40528
1.41296
1.42867
1.44546
1.45037
1.44071
1.42018
1.39695
1.3807
1.37678
1.3767
1.37781
1.38951
1.4028
1.40481
1.38342
1.31698
1.22118
1.0205
0.764567
0.582937
0.5053
0.510209
0.546934
0.602464
0.717944
0.847934
0.961814
1.073
1.17296
1.2552
1.32599
1.37875
1.40045
1.40776
1.40069
1.38984
1.37889
1.36801
1.36362
1.36623
1.37716
1.39656
1.41246
1.42496
1.4364
1.44445
1.44747
1.4466
1.4429
1.43733
1.43094
1.42462
1.41885
1.41396
1.40995
1.4073
1.40513
1.40317
1.40203
1.40124
1.40061
1.40019
1.40048
1.39947
1.40044
1.3997
1.39999
1.39993
1.4
1.4001
1.39952
1.40081
1.39897
1.40091
1.39957
1.40005
1.39998
1.39992
1.40004
1.40071
1.39884
1.40059
1.40018
1.39935
1.40114
1.39912
1.4002
1.4
1.39993
1.40017
1.39994
1.39991
1.40009
1.40007
1.40008
1.40032
1.40054
1.40123
1.4029
1.40621
1.41474
1.43103
1.44696
1.44974
1.43869
1.41804
1.39511
1.37855
1.3762
1.37736
1.37716
1.38775
1.39814
1.3975
1.3776
1.32158
1.21477
1.01071
0.789102
0.644881
0.58041
0.576092
0.593723
0.633402
0.743261
0.8785
0.978887
1.07788
1.17558
1.25881
1.32319
1.36315
1.39203
1.40903
1.40166
1.39326
1.37743
1.36511
1.35944
1.36554
1.38109
1.39487
1.4076
1.4229
1.43559
1.44304
1.4465
1.44632
1.44309
1.43778
1.43169
1.42538
1.41971
1.41462
1.41071
1.4078
1.40549
1.40336
1.40241
1.40119
1.40077
1.40047
1.40005
1.39995
1.40037
1.39927
1.4007
1.39928
1.40057
1.39933
1.40067
1.39936
1.40057
1.39938
1.40077
1.39895
1.4012
1.39921
1.40025
1.39994
1.40011
1.39951
1.40102
1.39899
1.40043
1.40012
1.39975
1.40038
1.39983
1.39982
1.40005
1.40017
1.40012
1.39987
1.40008
1.40048
1.40056
1.40126
1.40342
1.40728
1.41644
1.4331
1.44816
1.44918
1.43676
1.41629
1.39388
1.37686
1.37526
1.37769
1.37735
1.38458
1.39332
1.39189
1.37416
1.32531
1.2127
1.02459
0.834289
0.710788
0.638063
0.623807
0.651641
0.701486
0.799151
0.925836
1.01841
1.09668
1.18586
1.26648
1.32079
1.35808
1.38648
1.40196
1.40325
1.39066
1.37517
1.36505
1.3616
1.3684
1.37832
1.38956
1.40681
1.42232
1.43336
1.4414
1.44575
1.44599
1.4431
1.43821
1.43224
1.4261
1.42034
1.4153
1.41119
1.40837
1.40554
1.40388
1.40234
1.40145
1.40089
1.4004
1.40011
1.40029
1.39969
1.40016
1.39996
1.39977
1.40019
1.39979
1.40026
1.39943
1.40086
1.39898
1.40098
1.39938
1.39996
1.4007
1.3989
1.40097
1.39983
1.39962
1.40029
1.40015
1.39927
1.40084
1.39973
1.39981
1.40009
1.40012
1.40005
1.39989
1.40003
1.40006
1.4002
1.40044
1.40059
1.40144
1.40395
1.40841
1.41801
1.43487
1.44904
1.4488
1.43503
1.41493
1.39301
1.37604
1.37382
1.37749
1.37848
1.38094
1.38816
1.38814
1.37252
1.32833
1.2238
1.05494
0.888509
0.761663
0.67919
0.670191
0.7172
0.777517
0.861479
0.976911
1.0672
1.12671
1.19336
1.26265
1.3225
1.36067
1.38104
1.39428
1.40148
1.39009
1.3764
1.36537
1.36331
1.36629
1.37365
1.38978
1.40598
1.41934
1.43153
1.44049
1.44491
1.44556
1.44308
1.43849
1.43266
1.42667
1.42084
1.4159
1.41152
1.40857
1.40586
1.40407
1.40238
1.40174
1.40078
1.40053
1.40027
1.40006
1.39988
1.40034
1.39938
1.40061
1.39938
1.40047
1.39951
1.4005
1.39951
1.40053
1.39911
1.40144
1.39826
1.40156
1.39921
1.39981
1.4006
1.39981
1.39947
1.40097
1.39946
1.39979
1.40042
1.39981
1.40003
1.40007
1.39987
1.39991
1.40021
1.40005
1.39996
1.40045
1.40084
1.40166
1.4043
1.40967
1.41946
1.43629
1.44958
1.4487
1.43366
1.41391
1.39233
1.37619
1.37209
1.37666
1.37995
1.37831
1.38278
1.38522
1.37224
1.33308
1.24356
1.09464
0.942268
0.814351
0.743044
0.739044
0.781719
0.839403
0.911834
1.01161
1.10506
1.16212
1.20825
1.26664
1.32358
1.36042
1.38081
1.39181
1.39512
1.39018
1.37748
1.36627
1.36217
1.36327
1.37444
1.3889
1.40264
1.4177
1.43051
1.4392
1.44408
1.44516
1.44301
1.43861
1.43303
1.42702
1.42134
1.41622
1.41198
1.40869
1.4062
1.40397
1.40276
1.40159
1.40096
1.40059
1.4002
1.40012
1.40007
1.39993
1.39992
1.40018
1.39961
1.40035
1.39971
1.4003
1.39942
1.40089
1.39904
1.40071
1.3999
1.39922
1.40136
1.39892
1.40021
1.4005
1.39949
1.39992
1.40071
1.39931
1.40016
1.40017
1.39992
1.40007
1.3999
1.39998
1.40015
1.39998
1.39987
1.40059
1.40095
1.40181
1.4047
1.41092
1.42091
1.43725
1.44995
1.44865
1.43303
1.41303
1.39193
1.37679
1.37081
1.37521
1.38074
1.37797
1.3779
1.38149
1.37259
1.34
1.26512
1.13775
1.00219
0.895877
0.835598
0.815054
0.837853
0.886589
0.948694
1.03046
1.12094
1.18697
1.23324
1.27993
1.3232
1.35763
1.37887
1.39058
1.39326
1.38951
1.37711
1.36675
1.36047
1.36433
1.37425
1.3858
1.40142
1.4165
1.42881
1.43807
1.44338
1.44473
1.44287
1.43869
1.43323
1.4273
1.42163
1.41649
1.41228
1.40891
1.4062
1.40414
1.40281
1.40157
1.40116
1.40044
1.40035
1.40012
1.40004
1.39989
1.40025
1.39953
1.40048
1.39957
1.40026
1.39979
1.40023
1.3997
1.40051
1.39903
1.40139
1.39877
1.40056
1.40019
1.39951
1.40016
1.40045
1.39932
1.4003
1.4002
1.39983
1.4
1.39983
1.40021
1.40006
1.39984
1.40002
1.40019
1.39989
1.40053
1.40106
1.40204
1.40521
1.41187
1.42237
1.43787
1.45016
1.44853
1.43327
1.41241
1.39193
1.37719
1.3706
1.37343
1.38014
1.37977
1.37487
1.37642
1.3721
1.34833
1.28609
1.18257
1.07306
0.990441
0.926552
0.891114
0.902679
0.944231
0.999027
1.06113
1.13153
1.19981
1.2517
1.29101
1.32693
1.35662
1.37722
1.38904
1.39185
1.38634
1.37746
1.36709
1.36188
1.36455
1.37138
1.38481
1.40014
1.41461
1.42753
1.43709
1.44263
1.44433
1.4427
1.43872
1.43333
1.42749
1.42178
1.41671
1.41236
1.40897
1.40618
1.40428
1.40267
1.40179
1.40101
1.40056
1.40039
1.40003
1.40014
1.39993
1.40005
1.39984
1.40023
1.39966
1.4003
1.39977
1.40027
1.39948
1.40075
1.39936
1.40025
1.40026
1.39941
1.40051
1.39996
1.39977
1.4001
1.40026
1.39964
1.4001
1.40012
1.40003
1.39983
1.40009
1.40005
1.39978
1.40005
1.40027
1.39981
1.40038
1.40139
1.40229
1.40573
1.41257
1.42371
1.43837
1.45008
1.44848
1.434
1.41261
1.39222
1.37728
1.37105
1.3721
1.37831
1.3817
1.37529
1.37117
1.3694
1.35654
1.30862
1.22846
1.1423
1.07213
1.00845
0.978721
0.989337
1.02051
1.06358
1.11014
1.1588
1.21228
1.26211
1.30247
1.33363
1.35744
1.375
1.38548
1.39021
1.38685
1.37758
1.36689
1.36239
1.36261
1.37088
1.38388
1.39824
1.41325
1.4263
1.43608
1.442
1.44395
1.44253
1.43866
1.43337
1.42754
1.42186
1.41676
1.41242
1.40888
1.4062
1.40418
1.40271
1.40177
1.40095
1.40069
1.40024
1.40019
1.40006
1.40001
1.39994
1.40014
1.39974
1.40023
1.39987
1.39997
1.40008
1.4
1.39987
1.40032
1.39947
1.40057
1.39971
1.40003
1.39998
1.40023
1.39965
1.40021
1.40017
1.39968
1.40008
1.40018
1.39984
1.40001
1.40012
1.39977
1.40003
1.40023
1.39984
1.40027
1.40152
1.40254
1.4062
1.41326
1.42465
1.43889
1.44971
1.44858
1.43489
1.41382
1.39296
1.37739
1.37117
1.37178
1.3762
1.38184
1.37868
1.36853
1.36462
1.36174
1.33364
1.27384
1.2043
1.14211
1.0884
1.07209
1.07779
1.0897
1.1185
1.15928
1.1971
1.23245