/*--------------------------------*- C++ -*----------------------------------*\
  =========                 |
  \\      /  F ield         | OpenFOAM: The Open Source CFD Toolbox
   \\    /   O peration     | Website:  https://openfoam.org
    \\  /    A nd           | Version:  6
     \\/     M anipulation  |
\*---------------------------------------------------------------------------*/
FoamFile
{
    version     2.0;
    format      ascii;
    class       volVectorField;
    location    "4.86";
    object      U;
}
// * * * * * * * * * * * * * * * * * * * * * * * * * * * * * * * * * * * * * //

dimensions      [0 1 -1 0 0 0 0];

internalField   nonuniform List<vector> 
5625
(
(0.894376 0.447275 0)
(0.894359 0.447305 0)
(0.894332 0.447348 0)
(0.894292 0.447411 0)
(0.894235 0.4475 0)
(0.894157 0.447623 0)
(0.894055 0.44779 0)
(0.893925 0.44801 0)
(0.893767 0.448294 0)
(0.893579 0.448651 0)
(0.893361 0.44909 0)
(0.893117 0.449619 0)
(0.892851 0.450242 0)
(0.892571 0.450961 0)
(0.892285 0.451772 0)
(0.892004 0.452671 0)
(0.891738 0.453647 0)
(0.8915 0.454685 0)
(0.891298 0.455769 0)
(0.891143 0.45688 0)
(0.891044 0.457998 0)
(0.891006 0.459102 0)
(0.891032 0.460172 0)
(0.891125 0.46119 0)
(0.891284 0.462139 0)
(0.891506 0.463006 0)
(0.891785 0.463778 0)
(0.892118 0.464446 0)
(0.892497 0.465002 0)
(0.892914 0.465441 0)
(0.89336 0.465758 0)
(0.893827 0.465951 0)
(0.894306 0.466018 0)
(0.894787 0.465957 0)
(0.89526 0.465769 0)
(0.895717 0.465453 0)
(0.896147 0.465011 0)
(0.896541 0.464447 0)
(0.89689 0.463765 0)
(0.897186 0.462973 0)
(0.897422 0.462082 0)
(0.897592 0.461104 0)
(0.897695 0.460056 0)
(0.897728 0.458958 0)
(0.897695 0.457831 0)
(0.8976 0.456698 0)
(0.897452 0.455582 0)
(0.897259 0.454503 0)
(0.897033 0.453482 0)
(0.896784 0.452532 0)
(0.896524 0.451666 0)
(0.896264 0.450891 0)
(0.89601 0.450208 0)
(0.895771 0.449619 0)
(0.89555 0.449117 0)
(0.895351 0.448698 0)
(0.895176 0.448353 0)
(0.895025 0.448073 0)
(0.894896 0.44785 0)
(0.894788 0.447675 0)
(0.894699 0.44754 0)
(0.894627 0.447437 0)
(0.894569 0.44736 0)
(0.894524 0.447304 0)
(0.894489 0.447264 0)
(0.894462 0.447236 0)
(0.894441 0.447216 0)
(0.894426 0.447204 0)
(0.894415 0.447196 0)
(0.894408 0.447192 0)
(0.894403 0.44719 0)
(0.8944 0.44719 0)
(0.894398 0.44719 0)
(0.894397 0.447191 0)
(0.894396 0.447192 0)
(0.894354 0.447308 0)
(0.894326 0.447351 0)
(0.894285 0.447414 0)
(0.894225 0.447504 0)
(0.894141 0.447631 0)
(0.894029 0.447804 0)
(0.893886 0.448035 0)
(0.893707 0.448336 0)
(0.89349 0.44872 0)
(0.893236 0.449199 0)
(0.892946 0.449781 0)
(0.892625 0.450475 0)
(0.892281 0.451283 0)
(0.891925 0.452205 0)
(0.891566 0.453234 0)
(0.89122 0.454359 0)
(0.8909 0.455564 0)
(0.890621 0.45683 0)
(0.890394 0.458134 0)
(0.890231 0.45945 0)
(0.890139 0.460756 0)
(0.890125 0.462027 0)
(0.890191 0.463242 0)
(0.890336 0.464381 0)
(0.890559 0.465429 0)
(0.890854 0.466374 0)
(0.891215 0.467206 0)
(0.891634 0.467918 0)
(0.892103 0.468507 0)
(0.892613 0.468968 0)
(0.893155 0.469302 0)
(0.893719 0.469506 0)
(0.894296 0.469579 0)
(0.894876 0.469521 0)
(0.895449 0.469331 0)
(0.896005 0.469008 0)
(0.896534 0.468551 0)
(0.897024 0.467959 0)
(0.897466 0.467235 0)
(0.897849 0.466383 0)
(0.898164 0.465408 0)
(0.898402 0.464322 0)
(0.898558 0.46314 0)
(0.89863 0.46188 0)
(0.898617 0.460567 0)
(0.898524 0.459225 0)
(0.898359 0.457883 0)
(0.898131 0.456569 0)
(0.897855 0.455308 0)
(0.897545 0.454122 0)
(0.897215 0.453029 0)
(0.896879 0.452041 0)
(0.896549 0.451165 0)
(0.896234 0.450401 0)
(0.895942 0.449748 0)
(0.895678 0.449198 0)
(0.895443 0.448743 0)
(0.89524 0.448373 0)
(0.895066 0.448077 0)
(0.894921 0.447843 0)
(0.894801 0.447662 0)
(0.894704 0.447524 0)
(0.894627 0.447421 0)
(0.894565 0.447345 0)
(0.894518 0.44729 0)
(0.894482 0.447252 0)
(0.894455 0.447226 0)
(0.894435 0.447209 0)
(0.894421 0.447198 0)
(0.894411 0.447192 0)
(0.894404 0.447189 0)
(0.8944 0.447188 0)
(0.894397 0.447188 0)
(0.894396 0.447189 0)
(0.894395 0.447191 0)
(0.894322 0.447352 0)
(0.894279 0.447413 0)
(0.894217 0.447503 0)
(0.894129 0.447631 0)
(0.89401 0.447806 0)
(0.893854 0.448044 0)
(0.893656 0.448359 0)
(0.893412 0.448765 0)
(0.89312 0.449276 0)
(0.892783 0.449906 0)
(0.892404 0.450665 0)
(0.89199 0.451559 0)
(0.891553 0.452588 0)
(0.891107 0.453746 0)
(0.890669 0.455021 0)
(0.890255 0.456395 0)
(0.889883 0.457844 0)
(0.88957 0.459343 0)
(0.88933 0.46086 0)
(0.889173 0.462366 0)
(0.889107 0.463833 0)
(0.889136 0.465235 0)
(0.88926 0.466551 0)
(0.889477 0.467764 0)
(0.88978 0.46886 0)
(0.890162 0.469832 0)
(0.890616 0.470675 0)
(0.89113 0.471387 0)
(0.891696 0.471969 0)
(0.892303 0.472421 0)
(0.892942 0.472747 0)
(0.893604 0.472947 0)
(0.894279 0.473024 0)
(0.894957 0.472975 0)
(0.89563 0.472799 0)
(0.896288 0.472495 0)
(0.896921 0.472057 0)
(0.897516 0.471482 0)
(0.898062 0.470766 0)
(0.898547 0.469906 0)
(0.898959 0.468905 0)
(0.899286 0.467766 0)
(0.89952 0.466499 0)
(0.899653 0.465122 0)
(0.899682 0.463656 0)
(0.899609 0.462128 0)
(0.899441 0.46057 0)
(0.899188 0.459017 0)
(0.898866 0.457503 0)
(0.898492 0.456058 0)
(0.898084 0.454708 0)
(0.897661 0.453473 0)
(0.89724 0.452366 0)
(0.896833 0.451393 0)
(0.896452 0.450553 0)
(0.896105 0.449842 0)
(0.895795 0.449249 0)
(0.895524 0.448764 0)
(0.895293 0.448374 0)
(0.895099 0.448066 0)
(0.894938 0.447826 0)
(0.894808 0.447642 0)
(0.894704 0.447504 0)
(0.894622 0.447402 0)
(0.894558 0.447328 0)
(0.89451 0.447276 0)
(0.894474 0.44724 0)
(0.894447 0.447216 0)
(0.894428 0.447201 0)
(0.894415 0.447193 0)
(0.894406 0.447188 0)
(0.8944 0.447186 0)
(0.894397 0.447186 0)
(0.894395 0.447187 0)
(0.894394 0.447189 0)
(0.894276 0.44741 0)
(0.894212 0.447497 0)
(0.894122 0.447623 0)
(0.893997 0.447799 0)
(0.893831 0.448039 0)
(0.893615 0.44836 0)
(0.893346 0.448781 0)
(0.893019 0.449319 0)
(0.892634 0.449989 0)
(0.892194 0.450805 0)
(0.891706 0.451777 0)
(0.891183 0.452907 0)
(0.890641 0.454189 0)
(0.890098 0.455611 0)
(0.889578 0.457152 0)
(0.8891 0.458783 0)
(0.888686 0.460472 0)
(0.888355 0.462183 0)
(0.888122 0.46388 0)
(0.887995 0.46553 0)
(0.88798 0.4671 0)
(0.888078 0.468568 0)
(0.888284 0.469913 0)
(0.888592 0.471124 0)
(0.888993 0.472194 0)
(0.889477 0.47312 0)
(0.89003 0.473906 0)
(0.890644 0.474558 0)
(0.891306 0.475081 0)
(0.892007 0.475483 0)
(0.892737 0.47577 0)
(0.893487 0.475948 0)
(0.894251 0.47602 0)
(0.89502 0.475986 0)
(0.895786 0.475844 0)
(0.89654 0.475589 0)
(0.897273 0.475215 0)
(0.897974 0.474711 0)
(0.898631 0.474068 0)
(0.899229 0.473276 0)
(0.899756 0.472327 0)
(0.900194 0.471218 0)
(0.900531 0.469949 0)
(0.900755 0.468531 0)
(0.900856 0.46698 0)
(0.900833 0.465321 0)
(0.900687 0.463589 0)
(0.900428 0.461822 0)
(0.900072 0.460062 0)
(0.899639 0.458351 0)
(0.899152 0.456726 0)
(0.898635 0.455217 0)
(0.898109 0.453847 0)
(0.897594 0.452628 0)
(0.897105 0.451566 0)
(0.896655 0.450658 0)
(0.896251 0.449897 0)
(0.895896 0.449269 0)
(0.89559 0.448761 0)
(0.895333 0.448357 0)
(0.895119 0.448041 0)
(0.894946 0.447798 0)
(0.894807 0.447615 0)
(0.894697 0.447478 0)
(0.894612 0.44738 0)
(0.894548 0.447309 0)
(0.8945 0.447261 0)
(0.894464 0.447228 0)
(0.894439 0.447207 0)
(0.894421 0.447195 0)
(0.894409 0.447188 0)
(0.894401 0.447185 0)
(0.894397 0.447184 0)
(0.894394 0.447185 0)
(0.894393 0.447186 0)
(0.894211 0.447487 0)
(0.89412 0.447608 0)
(0.893991 0.44778 0)
(0.893817 0.448018 0)
(0.893589 0.448342 0)
(0.893297 0.44877 0)
(0.892937 0.449324 0)
(0.892506 0.450024 0)
(0.892005 0.450888 0)
(0.891441 0.451927 0)
(0.890827 0.453148 0)
(0.890181 0.454547 0)
(0.889524 0.456108 0)
(0.888884 0.457807 0)
(0.888287 0.459614 0)
(0.887761 0.461487 0)
(0.887329 0.463382 0)
(0.887008 0.465256 0)
(0.886812 0.467066 0)
(0.886749 0.468778 0)
(0.886817 0.470361 0)
(0.887013 0.471796 0)
(0.887327 0.47307 0)
(0.887747 0.474179 0)
(0.88826 0.475127 0)
(0.888853 0.47592 0)
(0.889509 0.476569 0)
(0.890218 0.47709 0)
(0.890968 0.477496 0)
(0.891751 0.4778 0)
(0.892556 0.478015 0)
(0.893379 0.478149 0)
(0.894212 0.478208 0)
(0.895052 0.478193 0)
(0.895892 0.478102 0)
(0.896726 0.477929 0)
(0.897547 0.477662 0)
(0.898346 0.477289 0)
(0.899111 0.476792 0)
(0.899828 0.476153 0)
(0.900481 0.475355 0)
(0.901051 0.474381 0)
(0.901519 0.473222 0)
(0.901867 0.471874 0)
(0.902078 0.470343 0)
(0.902144 0.46865 0)
(0.902058 0.466823 0)
(0.901827 0.464903 0)
(0.901464 0.462939 0)
(0.90099 0.460983 0)
(0.900432 0.459085 0)
(0.899819 0.457289 0)
(0.89918 0.455631 0)
(0.898543 0.454135 0)
(0.897929 0.452816 0)
(0.897356 0.451676 0)
(0.896836 0.450711 0)
(0.896376 0.44991 0)
(0.895977 0.449256 0)
(0.895639 0.448733 0)
(0.895357 0.448321 0)
(0.895128 0.448003 0)
(0.894943 0.447762 0)
(0.894798 0.447582 0)
(0.894685 0.44745 0)
(0.894599 0.447356 0)
(0.894535 0.44729 0)
(0.894487 0.447246 0)
(0.894453 0.447217 0)
(0.89443 0.447199 0)
(0.894413 0.447189 0)
(0.894403 0.447184 0)
(0.894397 0.447182 0)
(0.894393 0.447183 0)
(0.894392 0.447184 0)
(0.894123 0.447588 0)
(0.893993 0.447753 0)
(0.893814 0.447985 0)
(0.893576 0.448303 0)
(0.893267 0.448732 0)
(0.892878 0.449293 0)
(0.892405 0.450012 0)
(0.891846 0.45091 0)
(0.891206 0.452005 0)
(0.890498 0.453303 0)
(0.889741 0.454804 0)
(0.888963 0.456493 0)
(0.888193 0.458344 0)
(0.887466 0.460315 0)
(0.886814 0.462359 0)
(0.886269 0.464424 0)
(0.885853 0.466455 0)
(0.885584 0.468402 0)
(0.885469 0.47022 0)
(0.88551 0.471878 0)
(0.885699 0.473352 0)
(0.886025 0.474631 0)
(0.886471 0.475714 0)
(0.88702 0.476608 0)
(0.887653 0.477329 0)
(0.888355 0.477895 0)
(0.889108 0.478327 0)
(0.8899 0.478649 0)
(0.890721 0.478881 0)
(0.891562 0.479044 0)
(0.892418 0.479153 0)
(0.893284 0.479222 0)
(0.894159 0.479257 0)
(0.895041 0.479263 0)
(0.895927 0.479237 0)
(0.896816 0.47917 0)
(0.897702 0.479051 0)
(0.89858 0.478862 0)
(0.89944 0.47858 0)
(0.900269 0.478179 0)
(0.901051 0.477632 0)
(0.901765 0.476909 0)
(0.902387 0.475987 0)
(0.902893 0.474845 0)
(0.903257 0.473474 0)
(0.903459 0.47188 0)
(0.903485 0.470081 0)
(0.903331 0.468115 0)
(0.903005 0.46603 0)
(0.902524 0.463888 0)
(0.901919 0.46175 0)
(0.901222 0.459679 0)
(0.900472 0.457727 0)
(0.899703 0.455934 0)
(0.898949 0.454328 0)
(0.898233 0.452922 0)
(0.897576 0.451719 0)
(0.896987 0.45071 0)
(0.896473 0.44988 0)
(0.896034 0.449211 0)
(0.895667 0.448681 0)
(0.895365 0.448268 0)
(0.895123 0.447953 0)
(0.894931 0.447717 0)
(0.894782 0.447544 0)
(0.894668 0.447419 0)
(0.894582 0.447331 0)
(0.894519 0.447271 0)
(0.894474 0.447232 0)
(0.894442 0.447207 0)
(0.89442 0.447192 0)
(0.894406 0.447184 0)
(0.894398 0.447181 0)
(0.894393 0.44718 0)
(0.89439 0.447182 0)
(0.894001 0.447719 0)
(0.893822 0.447941 0)
(0.893579 0.448249 0)
(0.893257 0.448668 0)
(0.892847 0.449227 0)
(0.892337 0.449952 0)
(0.891724 0.45087 0)
(0.891011 0.452003 0)
(0.89021 0.453365 0)
(0.889341 0.454953 0)
(0.888433 0.456755 0)
(0.887524 0.45874 0)
(0.886655 0.460864 0)
(0.885868 0.463067 0)
(0.8852 0.465284 0)
(0.884682 0.467451 0)
(0.884335 0.469507 0)
(0.884171 0.471398 0)
(0.884188 0.473087 0)
(0.884378 0.474549 0)
(0.884725 0.475773 0)
(0.885208 0.476762 0)
(0.885804 0.477531 0)
(0.886489 0.4781 0)
(0.887241 0.478498 0)
(0.888042 0.478755 0)
(0.888875 0.478902 0)
(0.889728 0.478969 0)
(0.890592 0.478984 0)
(0.891462 0.478972 0)
(0.892335 0.478951 0)
(0.893211 0.478937 0)
(0.894091 0.47894 0)
(0.894978 0.478965 0)
(0.895875 0.479009 0)
(0.896782 0.479064 0)
(0.8977 0.479117 0)
(0.898627 0.479149 0)
(0.899557 0.479132 0)
(0.90048 0.479036 0)
(0.901381 0.478824 0)
(0.90224 0.478458 0)
(0.903029 0.477896 0)
(0.903719 0.477102 0)
(0.904276 0.476047 0)
(0.904667 0.474714 0)
(0.904865 0.473104 0)
(0.904852 0.47124 0)
(0.904623 0.469165 0)
(0.904192 0.466941 0)
(0.903582 0.46464 0)
(0.902832 0.462341 0)
(0.901986 0.460114 0)
(0.901089 0.458023 0)
(0.900186 0.456115 0)
(0.899311 0.454417 0)
(0.898495 0.452943 0)
(0.897754 0.451693 0)
(0.897101 0.450655 0)
(0.896538 0.44981 0)
(0.896064 0.449135 0)
(0.895673 0.448607 0)
(0.895356 0.4482 0)
(0.895105 0.447894 0)
(0.894909 0.447667 0)
(0.894758 0.447503 0)
(0.894645 0.447387 0)
(0.894562 0.447307 0)
(0.894502 0.447253 0)
(0.894459 0.447218 0)
(0.89443 0.447197 0)
(0.894411 0.447186 0)
(0.894399 0.44718 0)
(0.894393 0.447179 0)
(0.894389 0.447179 0)
(0.89384 0.447888 0)
(0.893596 0.44818 0)
(0.893269 0.448584 0)
(0.892842 0.449129 0)
(0.892304 0.449848 0)
(0.891646 0.450771 0)
(0.890866 0.451925 0)
(0.889975 0.453328 0)
(0.888993 0.454985 0)
(0.887954 0.456883 0)
(0.886899 0.458988 0)
(0.885878 0.461246 0)
(0.884944 0.463592 0)
(0.884144 0.465946 0)
(0.883517 0.468229 0)
(0.88309 0.470367 0)
(0.882878 0.472299 0)
(0.882879 0.473979 0)
(0.88308 0.47538 0)
(0.883462 0.476495 0)
(0.883997 0.47733 0)
(0.884655 0.477907 0)
(0.885406 0.478256 0)
(0.886222 0.478412 0)
(0.887079 0.478417 0)
(0.887958 0.47831 0)
(0.888843 0.47813 0)
(0.889725 0.477912 0)
(0.890597 0.477687 0)
(0.891458 0.477483 0)
(0.89231 0.477321 0)
(0.893156 0.477217 0)
(0.894002 0.477182 0)
(0.894854 0.477221 0)
(0.895721 0.477333 0)
(0.896607 0.477511 0)
(0.897519 0.477742 0)
(0.898458 0.478006 0)
(0.899423 0.478277 0)
(0.900409 0.47852 0)
(0.901405 0.478695 0)
(0.902392 0.478756 0)
(0.903345 0.478651 0)
(0.90423 0.478326 0)
(0.905007 0.477732 0)
(0.905633 0.476826 0)
(0.906064 0.475584 0)
(0.906264 0.474003 0)
(0.906213 0.47211 0)
(0.905906 0.469955 0)
(0.905359 0.467615 0)
(0.904609 0.465178 0)
(0.903704 0.462737 0)
(0.902699 0.460377 0)
(0.901651 0.45817 0)
(0.90061 0.456167 0)
(0.899617 0.454399 0)
(0.898702 0.452878 0)
(0.897885 0.451599 0)
(0.897173 0.450547 0)
(0.896569 0.4497 0)
(0.896066 0.449032 0)
(0.895657 0.448514 0)
(0.895331 0.448121 0)
(0.895075 0.447827 0)
(0.894878 0.447614 0)
(0.894729 0.447461 0)
(0.89462 0.447355 0)
(0.89454 0.447283 0)
(0.894484 0.447236 0)
(0.894445 0.447207 0)
(0.894419 0.447189 0)
(0.894403 0.447181 0)
(0.894393 0.447177 0)
(0.894388 0.447177 0)
(0.893627 0.448102 0)
(0.8933 0.448482 0)
(0.892867 0.449005 0)
(0.89231 0.449704 0)
(0.891616 0.450615 0)
(0.890779 0.45177 0)
(0.889805 0.453196 0)
(0.888715 0.4549 0)
(0.887542 0.456871 0)
(0.886337 0.459076 0)
(0.885158 0.461455 0)
(0.884066 0.463926 0)
(0.883124 0.4664 0)
(0.882381 0.468781 0)
(0.881872 0.47098 0)
(0.881612 0.472924 0)
(0.881603 0.474562 0)
(0.881829 0.475865 0)
(0.882261 0.476826 0)
(0.882864 0.477459 0)
(0.883602 0.477793 0)
(0.884437 0.477867 0)
(0.885332 0.477728 0)
(0.886259 0.477425 0)
(0.887193 0.477005 0)
(0.888117 0.476516 0)
(0.889018 0.476001 0)
(0.889889 0.475497 0)
(0.89073 0.475036 0)
(0.891543 0.474645 0)
(0.892333 0.474346 0)
(0.89311 0.474154 0)
(0.893882 0.474079 0)
(0.894661 0.474128 0)
(0.895459 0.474299 0)
(0.896285 0.474588 0)
(0.89715 0.474983 0)
(0.898061 0.475466 0)
(0.899021 0.476012 0)
(0.90003 0.47659 0)
(0.901084 0.477159 0)
(0.902168 0.477671 0)
(0.903262 0.478068 0)
(0.904333 0.478287 0)
(0.905338 0.47826 0)
(0.906227 0.47792 0)
(0.906941 0.477212 0)
(0.907425 0.476102 0)
(0.907635 0.474585 0)
(0.907544 0.472689 0)
(0.907151 0.470479 0)
(0.90648 0.468044 0)
(0.905579 0.465492 0)
(0.904509 0.462932 0)
(0.903339 0.460462 0)
(0.902137 0.458164 0)
(0.90096 0.456091 0)
(0.899853 0.454277 0)
(0.898848 0.45273 0)
(0.897962 0.451442 0)
(0.897201 0.450393 0)
(0.896563 0.449558 0)
(0.89604 0.448905 0)
(0.89562 0.448406 0)
(0.895289 0.448031 0)
(0.895033 0.447756 0)
(0.89484 0.447558 0)
(0.894696 0.447419 0)
(0.894591 0.447323 0)
(0.894517 0.44726 0)
(0.894465 0.44722 0)
(0.894431 0.447196 0)
(0.894408 0.447183 0)
(0.894395 0.447177 0)
(0.894388 0.447176 0)
(0.893349 0.448369 0)
(0.892918 0.44886 0)
(0.892353 0.449527 0)
(0.891635 0.45041 0)
(0.890754 0.451548 0)
(0.88971 0.452972 0)
(0.888518 0.454699 0)
(0.887216 0.45672 0)
(0.885859 0.459003 0)
(0.884514 0.461481 0)
(0.883257 0.464064 0)
(0.882162 0.466644 0)
(0.881294 0.469108 0)
(0.880696 0.471352 0)
(0.880391 0.47329 0)
(0.880377 0.474863 0)
(0.880637 0.47604 0)
(0.881134 0.476818 0)
(0.881823 0.477217 0)
(0.88266 0.477275 0)
(0.883596 0.477042 0)
(0.884588 0.476574 0)
(0.8856 0.475928 0)
(0.886603 0.475163 0)
(0.887575 0.474333 0)
(0.888502 0.473484 0)
(0.889376 0.47266 0)
(0.890195 0.471898 0)
(0.890964 0.471228 0)
(0.89169 0.470674 0)
(0.892382 0.470256 0)
(0.893053 0.469987 0)
(0.893717 0.469878 0)
(0.894389 0.469932 0)
(0.895083 0.470151 0)
(0.895815 0.47053 0)
(0.896597 0.47106 0)
(0.897441 0.471727 0)
(0.898356 0.472511 0)
(0.899347 0.473383 0)
(0.900415 0.474308 0)
(0.901554 0.475242 0)
(0.902749 0.476129 0)
(0.903974 0.476901 0)
(0.905189 0.477483 0)
(0.906342 0.477789 0)
(0.907365 0.477738 0)
(0.908186 0.477258 0)
(0.908735 0.476306 0)
(0.908956 0.474872 0)
(0.908822 0.472991 0)
(0.908333 0.47074 0)
(0.907527 0.468228 0)
(0.906463 0.46558 0)
(0.905221 0.462923 0)
(0.903883 0.460369 0)
(0.902529 0.458005 0)
(0.901222 0.455891 0)
(0.90001 0.454055 0)
(0.898925 0.452505 0)
(0.897981 0.451227 0)
(0.897182 0.450199 0)
(0.896521 0.449388 0)
(0.895986 0.448762 0)
(0.895562 0.448288 0)
(0.895233 0.447937 0)
(0.894983 0.447683 0)
(0.894795 0.447502 0)
(0.894659 0.447378 0)
(0.894561 0.447294 0)
(0.894493 0.44724 0)
(0.894447 0.447207 0)
(0.894417 0.447188 0)
(0.894399 0.447178 0)
(0.894388 0.447175 0)
(0.892993 0.448702 0)
(0.892431 0.449326 0)
(0.891704 0.450166 0)
(0.890794 0.451267 0)
(0.889693 0.452665 0)
(0.888416 0.454388 0)
(0.886993 0.456434 0)
(0.885484 0.458769 0)
(0.883969 0.461326 0)
(0.882537 0.464004 0)
(0.881279 0.466679 0)
(0.880274 0.469217 0)
(0.879579 0.471497 0)
(0.879224 0.47342 0)
(0.879209 0.474917 0)
(0.87951 0.475955 0)
(0.880083 0.476537 0)
(0.880875 0.476688 0)
(0.881827 0.476457 0)
(0.882882 0.475903 0)
(0.883988 0.475095 0)
(0.885101 0.474098 0)
(0.886187 0.472978 0)
(0.887219 0.471795 0)
(0.888181 0.470603 0)
(0.889065 0.469447 0)
(0.889867 0.468367 0)
(0.890594 0.467397 0)
(0.891252 0.466562 0)
(0.891855 0.465883 0)
(0.892416 0.465375 0)
(0.892952 0.46505 0)
(0.89348 0.464915 0)
(0.894019 0.464975 0)
(0.894584 0.465228 0)
(0.895195 0.465673 0)
(0.895867 0.466304 0)
(0.896615 0.467109 0)
(0.897451 0.468074 0)
(0.898387 0.469177 0)
(0.899427 0.470389 0)
(0.900574 0.471673 0)
(0.90182 0.472982 0)
(0.90315 0.474255 0)
(0.904534 0.475416 0)
(0.905922 0.476373 0)
(0.907247 0.477027 0)
(0.908426 0.477275 0)
(0.909368 0.477033 0)
(0.909987 0.476243 0)
(0.910217 0.474896 0)
(0.910028 0.473035 0)
(0.909431 0.470751 0)
(0.908474 0.468172 0)
(0.907238 0.465446 0)
(0.905818 0.462715 0)
(0.904314 0.460104 0)
(0.902813 0.457704 0)
(0.901385 0.455575 0)
(0.900081 0.453744 0)
(0.89893 0.452213 0)
(0.897942 0.450965 0)
(0.897117 0.449971 0)
(0.896444 0.449196 0)
(0.895907 0.448605 0)
(0.895487 0.448164 0)
(0.895166 0.447841 0)
(0.894924 0.44761 0)
(0.894747 0.447449 0)
(0.89462 0.447339 0)
(0.89453 0.447267 0)
(0.89447 0.447222 0)
(0.89443 0.447196 0)
(0.894405 0.447181 0)
(0.89439 0.447175 0)
(0.89254 0.449109 0)
(0.891819 0.449894 0)
(0.890897 0.450939 0)
(0.88976 0.452289 0)
(0.888412 0.45398 0)
(0.886883 0.456019 0)
(0.885231 0.458381 0)
(0.883544 0.460995 0)
(0.881929 0.463752 0)
(0.880493 0.466509 0)
(0.879337 0.469117 0)
(0.878534 0.471433 0)
(0.878121 0.473341 0)
(0.878101 0.474763 0)
(0.878446 0.475665 0)
(0.879104 0.476051 0)
(0.880008 0.475957 0)
(0.88109 0.475442 0)
(0.882279 0.474575 0)
(0.883515 0.473434 0)
(0.884744 0.472095 0)
(0.885927 0.470632 0)
(0.887032 0.469108 0)
(0.88804 0.467581 0)
(0.888942 0.466102 0)
(0.889735 0.464711 0)
(0.890423 0.463443 0)
(0.891017 0.462324 0)
(0.89153 0.461377 0)
(0.89198 0.460616 0)
(0.892384 0.460053 0)
(0.892763 0.459695 0)
(0.893136 0.459549 0)
(0.893524 0.459615 0)
(0.893946 0.459895 0)
(0.89442 0.460385 0)
(0.894965 0.461082 0)
(0.895597 0.461979 0)
(0.896332 0.463066 0)
(0.897184 0.464327 0)
(0.898163 0.465742 0)
(0.899277 0.467283 0)
(0.900526 0.468914 0)
(0.901906 0.470586 0)
(0.903399 0.472234 0)
(0.904968 0.473773 0)
(0.906554 0.475097 0)
(0.908075 0.476087 0)
(0.909426 0.476625 0)
(0.910495 0.476606 0)
(0.91118 0.475966 0)
(0.911407 0.474695 0)
(0.911147 0.472845 0)
(0.910422 0.470526 0)
(0.9093 0.46789 0)
(0.907881 0.465102 0)
(0.906281 0.46232 0)
(0.904614 0.459678 0)
(0.902977 0.457271 0)
(0.901444 0.455155 0)
(0.900064 0.453355 0)
(0.898863 0.451866 0)
(0.897847 0.450665 0)
(0.89701 0.44972 0)
(0.896337 0.448991 0)
(0.895807 0.448442 0)
(0.895398 0.448037 0)
(0.895089 0.447745 0)
(0.894862 0.44754 0)
(0.894697 0.447398 0)
(0.894581 0.447304 0)
(0.894501 0.447244 0)
(0.894448 0.447208 0)
(0.894414 0.447187 0)
(0.894394 0.447177 0)
(0.891973 0.449604 0)
(0.891058 0.450577 0)
(0.889907 0.451858 0)
(0.888513 0.45349 0)
(0.886895 0.455492 0)
(0.885113 0.457849 0)
(0.883259 0.460494 0)
(0.881453 0.46331 0)
(0.879827 0.466144 0)
(0.878503 0.468822 0)
(0.877571 0.471178 0)
(0.877085 0.47308 0)
(0.877051 0.474441 0)
(0.877436 0.47522 0)
(0.87818 0.475428 0)
(0.879205 0.475107 0)
(0.880425 0.474326 0)
(0.881761 0.473169 0)
(0.88314 0.47172 0)
(0.8845 0.470064 0)
(0.885792 0.46828 0)
(0.886984 0.466439 0)
(0.888051 0.464602 0)
(0.88898 0.46282 0)
(0.88977 0.461137 0)
(0.890426 0.459589 0)
(0.89096 0.458202 0)
(0.891386 0.456996 0)
(0.891724 0.455989 0)
(0.891996 0.45519 0)
(0.892224 0.454606 0)
(0.892431 0.454242 0)
(0.892638 0.454099 0)
(0.892866 0.454178 0)
(0.893137 0.454478 0)
(0.893469 0.454998 0)
(0.893882 0.455734 0)
(0.894392 0.456683 0)
(0.895016 0.457838 0)
(0.89577 0.459191 0)
(0.896668 0.460728 0)
(0.897719 0.462431 0)
(0.898932 0.464274 0)
(0.900312 0.466224 0)
(0.901853 0.468231 0)
(0.903535 0.470225 0)
(0.905316 0.472114 0)
(0.907124 0.473777 0)
(0.908857 0.475076 0)
(0.910387 0.475871 0)
(0.91158 0.476044 0)
(0.912317 0.475522 0)
(0.912519 0.4743 0)
(0.912163 0.472444 0)
(0.911287 0.470085 0)
(0.909981 0.467396 0)
(0.908372 0.464561 0)
(0.906593 0.461753 0)
(0.904772 0.459108 0)
(0.903015 0.456723 0)
(0.901395 0.454649 0)
(0.899958 0.452904 0)
(0.898726 0.451477 0)
(0.897699 0.450339 0)
(0.896865 0.449453 0)
(0.896203 0.44878 0)
(0.895689 0.448278 0)
(0.895298 0.447913 0)
(0.895007 0.447654 0)
(0.894796 0.447474 0)
(0.894646 0.447353 0)
(0.894542 0.447274 0)
(0.894473 0.447224 0)
(0.894428 0.447196 0)
(0.894401 0.44718 0)
(0.891272 0.450198 0)
(0.890128 0.451388 0)
(0.888712 0.452935 0)
(0.887034 0.454869 0)
(0.885141 0.457188 0)
(0.883129 0.459834 0)
(0.881132 0.46269 0)
(0.879301 0.46559 0)
(0.877786 0.468338 0)
(0.876704 0.470748 0)
(0.876122 0.472664 0)
(0.876056 0.473985 0)
(0.87647 0.474669 0)
(0.877295 0.474725 0)
(0.878439 0.474208 0)
(0.879805 0.473196 0)
(0.881296 0.47178 0)
(0.882828 0.470056 0)
(0.884332 0.468117 0)
(0.885749 0.466047 0)
(0.887039 0.46392 0)
(0.888176 0.461801 0)
(0.889146 0.459745 0)
(0.889942 0.457795 0)
(0.890572 0.455988 0)
(0.891048 0.454353 0)
(0.891388 0.452911 0)
(0.891614 0.451675 0)
(0.891751 0.450656 0)
(0.891825 0.449859 0)
(0.891862 0.449288 0)
(0.891886 0.448941 0)
(0.891922 0.448819 0)
(0.891991 0.448918 0)
(0.892113 0.449238 0)
(0.892308 0.449775 0)
(0.892594 0.45053 0)
(0.892987 0.4515 0)
(0.893503 0.452683 0)
(0.894159 0.454073 0)
(0.894968 0.455665 0)
(0.895945 0.457448 0)
(0.8971 0.459405 0)
(0.898444 0.461515 0)
(0.899983 0.463746 0)
(0.901713 0.46605 0)
(0.903612 0.468354 0)
(0.90563 0.470554 0)
(0.907679 0.472514 0)
(0.909633 0.474077 0)
(0.911338 0.475083 0)
(0.912638 0.475399 0)
(0.9134 0.474951 0)
(0.913543 0.473741 0)
(0.913057 0.471854 0)
(0.912003 0.469444 0)
(0.910499 0.466706 0)
(0.908694 0.463843 0)
(0.906742 0.461032 0)
(0.904783 0.458415 0)
(0.902925 0.45608 0)
(0.90124 0.454075 0)
(0.89977 0.452407 0)
(0.898527 0.451059 0)
(0.897506 0.449998 0)
(0.896688 0.449182 0)
(0.896048 0.448569 0)
(0.895558 0.448118 0)
(0.895191 0.447795 0)
(0.894923 0.447569 0)
(0.894731 0.447414 0)
(0.894597 0.447312 0)
(0.894506 0.447247 0)
(0.894447 0.447209 0)
(0.89441 0.447187 0)
(0.890413 0.4509 0)
(0.889006 0.452337 0)
(0.887296 0.454172 0)
(0.885321 0.456418 0)
(0.88317 0.459032 0)
(0.880983 0.461903 0)
(0.878938 0.464856 0)
(0.877209 0.467678 0)
(0.875945 0.470155 0)
(0.875238 0.47211 0)
(0.875113 0.473423 0)
(0.875536 0.474046 0)
(0.876429 0.473991 0)
(0.877687 0.473317 0)
(0.879195 0.472112 0)
(0.880847 0.47048 0)
(0.882543 0.468522 0)
(0.884201 0.466338 0)
(0.885756 0.464018 0)
(0.887161 0.46164 0)
(0.888382 0.45927 0)
(0.889403 0.456966 0)
(0.890216 0.454775 0)
(0.890827 0.452734 0)
(0.891249 0.450872 0)
(0.891501 0.449212 0)
(0.891611 0.447769 0)
(0.891607 0.446551 0)
(0.891518 0.445563 0)
(0.891376 0.444806 0)
(0.891209 0.444276 0)
(0.891046 0.443971 0)
(0.890911 0.443885 0)
(0.890826 0.444015 0)
(0.890811 0.444356 0)
(0.890882 0.444906 0)
(0.891056 0.445666 0)
(0.891348 0.446634 0)
(0.891771 0.447812 0)
(0.892341 0.4492 0)
(0.893072 0.450796 0)
(0.893977 0.452595 0)
(0.89507 0.454588 0)
(0.896363 0.456763 0)
(0.897869 0.459102 0)
(0.899597 0.461576 0)
(0.901545 0.464138 0)
(0.903689 0.46671 0)
(0.905966 0.469176 0)
(0.908268 0.471384 0)
(0.910441 0.473153 0)
(0.912305 0.474309 0)
(0.913681 0.474708 0)
(0.914427 0.474278 0)
(0.914467 0.473036 0)
(0.913812 0.471091 0)
(0.912552 0.468621 0)
(0.910834 0.465842 0)
(0.908834 0.462968 0)
(0.906722 0.460182 0)
(0.904645 0.457621 0)
(0.902711 0.455365 0)
(0.900986 0.453452 0)
(0.899505 0.451881 0)
(0.898272 0.450628 0)
(0.897274 0.449653 0)
(0.896486 0.448913 0)
(0.895878 0.448364 0)
(0.89542 0.447966 0)
(0.895082 0.447685 0)
(0.894838 0.447491 0)
(0.894667 0.447362 0)
(0.89455 0.447278 0)
(0.894473 0.447226 0)
(0.894425 0.447196 0)
(0.88938 0.45172 0)
(0.887674 0.453427 0)
(0.885651 0.455564 0)
(0.883387 0.458108 0)
(0.881026 0.460963 0)
(0.878758 0.463951 0)
(0.876793 0.466846 0)
(0.875316 0.469407 0)
(0.874444 0.471429 0)
(0.874224 0.472772 0)
(0.874626 0.473378 0)
(0.875564 0.473256 0)
(0.876921 0.472473 0)
(0.878568 0.471124 0)
(0.88038 0.46932 0)
(0.882245 0.467172 0)
(0.884068 0.464785 0)
(0.885775 0.462252 0)
(0.88731 0.459655 0)
(0.888633 0.457064 0)
(0.88972 0.454539 0)
(0.890563 0.452128 0)
(0.891163 0.449871 0)
(0.891534 0.447801 0)
(0.891699 0.445941 0)
(0.891685 0.444308 0)
(0.891526 0.44291 0)
(0.891259 0.441753 0)
(0.890919 0.440835 0)
(0.890543 0.440151 0)
(0.890164 0.439693 0)
(0.88981 0.439454 0)
(0.88951 0.439423 0)
(0.889283 0.439594 0)
(0.889147 0.439962 0)
(0.889116 0.440522 0)
(0.889203 0.441275 0)
(0.889419 0.442224 0)
(0.889776 0.443373 0)
(0.890285 0.444725 0)
(0.890959 0.446285 0)
(0.891811 0.448051 0)
(0.892853 0.450023 0)
(0.894099 0.452193 0)
(0.895564 0.454552 0)
(0.897265 0.457086 0)
(0.899214 0.459768 0)
(0.901412 0.462551 0)
(0.903826 0.465348 0)
(0.906379 0.468032 0)
(0.908937 0.470429 0)
(0.911316 0.472341 0)
(0.913307 0.473576 0)
(0.914713 0.473989 0)
(0.915388 0.473517 0)
(0.915273 0.472199 0)
(0.914406 0.470169 0)
(0.912913 0.467633 0)
(0.910973 0.464823 0)
(0.908785 0.461961 0)
(0.906532 0.459228 0)
(0.904362 0.456751 0)
(0.90238 0.454601 0)
(0.900644 0.452802 0)
(0.899176 0.451344 0)
(0.897973 0.450196 0)
(0.897014 0.449314 0)
(0.896267 0.448654 0)
(0.8957 0.448171 0)
(0.895279 0.447826 0)
(0.894973 0.447586 0)
(0.894757 0.447423 0)
(0.894608 0.447317 0)
(0.894508 0.447249 0)
(0.894445 0.447209 0)
(0.888151 0.45266 0)
(0.886122 0.454655 0)
(0.883784 0.45709 0)
(0.88127 0.459889 0)
(0.878785 0.462889 0)
(0.876565 0.46585 0)
(0.874835 0.468508 0)
(0.873756 0.470628 0)
(0.873396 0.472043 0)
(0.873735 0.472678 0)
(0.874687 0.472541 0)
(0.876122 0.4717 0)
(0.877893 0.470256 0)
(0.879861 0.46833 0)
(0.881898 0.466038 0)
(0.883896 0.463489 0)
(0.88577 0.46078 0)
(0.887452 0.457997 0)
(0.888894 0.455212 0)
(0.890068 0.452487 0)
(0.890956 0.449874 0)
(0.891558 0.447417 0)
(0.891886 0.445151 0)
(0.891961 0.443102 0)
(0.891816 0.44129 0)
(0.891487 0.439728 0)
(0.891017 0.438419 0)
(0.89045 0.437363 0)
(0.889831 0.436553 0)
(0.889202 0.435978 0)
(0.8886 0.435625 0)
(0.888057 0.435478 0)
(0.887599 0.435524 0)
(0.887247 0.435753 0)
(0.887016 0.436155 0)
(0.886914 0.436725 0)
(0.886948 0.437464 0)
(0.887126 0.438377 0)
(0.887454 0.439472 0)
(0.887938 0.440758 0)
(0.88859 0.442245 0)
(0.889419 0.443938 0)
(0.890437 0.445842 0)
(0.891656 0.447954 0)
(0.893092 0.45027 0)
(0.894764 0.452783 0)
(0.896693 0.455483 0)
(0.898896 0.458342 0)
(0.901372 0.461311 0)
(0.90408 0.464294 0)
(0.90692 0.467145 0)
(0.909726 0.469669 0)
(0.912283 0.471652 0)
(0.914353 0.472891 0)
(0.915725 0.473245 0)
(0.916264 0.47267 0)
(0.915935 0.471233 0)
(0.914816 0.469099 0)
(0.913069 0.466497 0)
(0.910906 0.463673 0)
(0.908544 0.460849 0)
(0.906176 0.458198 0)
(0.903945 0.455833 0)
(0.901946 0.453811 0)
(0.900226 0.452143 0)
(0.898796 0.450811 0)
(0.897642 0.449775 0)
(0.896735 0.448991 0)
(0.89604 0.448412 0)
(0.89552 0.447994 0)
(0.89514 0.4477 0)
(0.894869 0.447499 0)
(0.894681 0.447365 0)
(0.894554 0.447279 0)
(0.894471 0.447227 0)
(0.886716 0.45372 0)
(0.884351 0.456006 0)
(0.881723 0.458709 0)
(0.879035 0.461684 0)
(0.87655 0.464696 0)
(0.874535 0.467459 0)
(0.873196 0.469703 0)
(0.872641 0.471233 0)
(0.872869 0.471951 0)
(0.873792 0.471851 0)
(0.875271 0.471006 0)
(0.877147 0.469521 0)
(0.87926 0.467522 0)
(0.881468 0.465131 0)
(0.883649 0.462463 0)
(0.885703 0.459615 0)
(0.887551 0.456676 0)
(0.889137 0.453722 0)
(0.890419 0.450818 0)
(0.891374 0.448017 0)
(0.891995 0.44537 0)
(0.892291 0.442914 0)
(0.89228 0.440682 0)
(0.891996 0.438697 0)
(0.891479 0.436976 0)
(0.890778 0.435527 0)
(0.889947 0.43435 0)
(0.889039 0.433438 0)
(0.888108 0.432778 0)
(0.887203 0.432353 0)
(0.886367 0.432142 0)
(0.885635 0.432124 0)
(0.885034 0.432276 0)
(0.884581 0.432584 0)
(0.884286 0.433033 0)
(0.884154 0.433617 0)
(0.884184 0.434337 0)
(0.884374 0.435198 0)
(0.884722 0.436213 0)
(0.885231 0.437399 0)
(0.885906 0.438772 0)
(0.886754 0.440348 0)
(0.887784 0.442137 0)
(0.88901 0.444143 0)
(0.890445 0.446366 0)
(0.892107 0.448802 0)
(0.894019 0.451446 0)
(0.896211 0.454287 0)
(0.898702 0.457299 0)
(0.901486 0.460423 0)
(0.904506 0.463551 0)
(0.907633 0.466515 0)
(0.910666 0.469102 0)
(0.913354 0.471078 0)
(0.915435 0.472241 0)
(0.916698 0.472464 0)
(0.917027 0.47173 0)
(0.916426 0.47014 0)
(0.915017 0.467891 0)
(0.913003 0.465233 0)
(0.910626 0.462416 0)
(0.908117 0.459659 0)
(0.905665 0.457118 0)
(0.903408 0.454891 0)
(0.901424 0.453017 0)
(0.899748 0.451495 0)
(0.898378 0.450296 0)
(0.89729 0.449377 0)
(0.896448 0.448691 0)
(0.895813 0.448191 0)
(0.895345 0.447836 0)