/*--------------------------------*- C++ -*----------------------------------*\
  =========                 |
  \\      /  F ield         | OpenFOAM: The Open Source CFD Toolbox
   \\    /   O peration     | Website:  https://openfoam.org
    \\  /    A nd           | Version:  6
     \\/     M anipulation  |
\*---------------------------------------------------------------------------*/
FoamFile
{
    version     2.0;
    format      ascii;
    class       surfaceScalarField;
    location    "1.22";
    object      meshPhi;
}
// * * * * * * * * * * * * * * * * * * * * * * * * * * * * * * * * * * * * * //

dimensions      [0 3 -1 0 0 0 0];

internalField   nonuniform List<scalar> 
44700
(
0.000432986
0.000205821
0.000880047
0.000617202
0.00134022
0.00102753
0.00181252
0.00143627
0.00229591
0.00184292
0.00278911
0.0022464
0.00329088
0.00264648
0.0037999
0.00304264
0.00431465
0.00343356
0.00483365
0.00381927
0.00535537
0.00419928
0.00587809
0.00457201
0.00640018
0.00493779
0.00691995
0.00529612
0.00743556
0.00564521
0.00794528
0.00598566
0.00844735
0.00631699
0.0089399
0.0066372
0.00942118
0.00694716
0.00988945
0.00724642
0.0103429
0.00753281
0.0107798
0.00780744
0.0111985
0.0080699
0.0115975
0.00831787
0.011975
0.00855271
0.0123297
0.00877404
0.0126601
0.00897945
0.0129649
0.00917049
0.0132429
0.00934685
0.013493
0.00950605
0.0137141
0.00964985
0.0139053
0.00977797
0.0140659
0.00988792
0.0141951
0.00998163
0.0142926
0.0100589
0.0143577
0.0101172
0.0143904
0.0101587
0.0143904
0.0101833
0.0143577
0.0101884
0.0142926
0.0101763
0.0141951
0.010147
0.0140659
0.0100982
0.0139053
0.0100321
0.0137141
0.00994871
0.013493
0.00984596
0.0132429
0.00972618
0.0129649
0.00958947
0.0126601
0.00943386
0.0123297
0.00926173
0.011975
0.00907329
0.0115975
0.00886678
0.0111985
0.00864458
0.0107798
0.00840697
0.0103429
0.00815247
0.00988945
0.0078834
0.00942118
0.00760014
0.0089399
0.00730148
0.00844735
0.00698965
0.00794528
0.00666513
0.00743556
0.006327
0.00691995
0.00597738
0.00640018
0.00561681
0.00587809
0.0052447
0.00535537
0.00486302
0.00483365
0.00447237
0.00431465
0.00407248
0.0037999
0.00366512
0.00329089
0.00325089
0.00278911
0.00283013
0.0022959
0.00240403
0.00181253
0.0019733
0.00134022
0.00153874
0.000880037
0.00110123
0.000432996
0.000661593
-3.88297e-14
0.000220671
-0.000418155
-0.000220671
-0.000820778
-0.000661593
-0.00120727
-0.00110123
-0.00157716
-0.00153874
-0.00193006
-0.0019733
-0.00226569
-0.00240403
-0.00258388
-0.00283013
-0.00288457
-0.00325089
-0.00316775
-0.00366512
-0.00343355
-0.00407248
-0.00368218
-0.00447237
-0.0039139
-0.00486302
-0.00412907
-0.0052447
-0.00432815
-0.00561681
-0.0045116
-0.00597738
-0.00467998
-0.006327
-0.00483391
-0.00666513
-0.00497401
-0.00698965
-0.00510097
-0.00730148
-0.00521552
-0.00760014
-0.00531836
-0.0078834
-0.00541024
-0.00815247
-0.00549192
-0.00840697
-0.00556412
-0.00864458
-0.00562759
-0.00886678
-0.00568305
-0.00907329
-0.00573117
-0.00926173
-0.00577262
-0.00943386
-0.00580802
-0.00958947
-0.00583794
-0.00972618
-0.00586291
-0.00984596
-0.0058834
-0.00994871
-0.00589983
-0.0100321
-0.00591254
-0.0100982
-0.00592182
-0.010147
-0.00592789
-0.0101763
-0.00593089
-0.0101884
-0.00593089
-0.0101833
-0.00592789
-0.0101587
-0.00592182
-0.0101172
-0.00591254
-0.0100589
-0.00589983
-0.00998163
-0.0058834
-0.00988792
-0.00586291
-0.00977797
-0.00583794
-0.00964985
-0.00580802
-0.00950605
-0.00577262
-0.00934685
-0.00573117
-0.00917049
-0.00568305
-0.00897945
-0.00562759
-0.00877404
-0.00556412
-0.00855271
-0.00549192
-0.00831787
-0.00541024
-0.0080699
-0.00531836
-0.00780744
-0.00521552
-0.00753281
-0.00510097
-0.00724642
-0.00497401
-0.00694716
-0.00483391
-0.0066372
-0.00467998
-0.00631699
-0.0045116
-0.00598566
-0.00432815
-0.00564521
-0.00412907
-0.00529612
-0.0039139
-0.00493779
-0.00368218
-0.00457201
-0.00343355
-0.00419928
-0.00316775
-0.00381927
-0.00288457
-0.00343356
-0.00258388
-0.00304264
-0.00226569
-0.00264648
-0.00193007
-0.0022464
-0.00157715
-0.00184292
-0.00120727
-0.00143627
-0.000820787
-0.00102753
-0.000418146
-0.000617202
-0.000205821
0.00129816
0.00039648
0.00263844
0.00118902
0.00401795
0.00197976
0.00543377
0.00276786
0.00688274
0.00355248
0.00836106
0.0043317
0.00986501
0.00510521
0.0113906
0.00587217
0.0129334
0.00663013
0.0144888
0.0073793
0.0160523
0.00811883
0.0176188
0.00884576
0.0191833
0.00956081
0.0207409
0.0102631
0.0222859
0.0109492
0.0238133
0.0116204
0.0253177
0.0122757
0.0267936
0.0129112
0.0282357
0.0135288
0.0296387
0.0141273
0.0309973
0.0147027
0.0323063
0.0152571
0.033561
0.0157895
0.0347561
0.0162953
0.0358873
0.0167772
0.03695
0.0172342
0.0379398
0.0176616
0.0388531
0.0180622
0.039686
0.0184353
0.0404351
0.0187759
0.0410975
0.0190872
0.0416704
0.0193685
0.0421515
0.0196147
0.0425387
0.0198295
0.0428306
0.0200122
0.0430258
0.0201578
0.0431236
0.0202701
0.0431236
0.0203487
0.0430258
0.0203885
0.0428306
0.0203938
0.0425387
0.0203642
0.0421515
0.0202949
0.0416704
0.0201903
0.0410975
0.0200503
0.0404351
0.0198703
0.039686
0.0196548
0.0388531
0.0194041
0.0379398
0.0191138
0.03695
0.0187888
0.0358873
0.0184291
0.0347561
0.0180312
0.033561
0.0175998
0.0323063
0.0171354
0.0309973
0.0166348
0.0296387
0.0161026
0.0282357
0.0155397
0.0267936
0.0149435
0.0253177
0.0143186
0.0238133
0.0136658
0.0222859
0.0129833
0.0207409
0.0122756
0.0191833
0.0115436
0.0176188
0.0107863
0.0160523
0.0100078
0.0144888
0.00920925
0.0129334
0.00839034
0.0113906
0.00755478
0.00986505
0.00670386
0.00836106
0.00583841
0.00688271
0.004961
0.00543381
0.00407326
0.00401795
0.00317694
0.00263841
0.00227401
0.00129819
0.00136633
-1.15373e-13
0.000455756
-0.00125377
-0.000455756
-0.00246105
-0.00136633
-0.00362005
-0.00227401
-0.00472933
-0.00317694
-0.00578775
-0.00407326
-0.00679447
-0.004961
-0.00774898
-0.00583841
-0.00865106
-0.00670386
-0.00950071
-0.00755478
-0.0102983
-0.00839034
-0.0110445
-0.00920925
-0.01174
-0.0100078
-0.0123859
-0.0107863
-0.0129837
-0.0115436
-0.0135346
-0.0122756
-0.0140403
-0.0129833
-0.0145027
-0.0136658
-0.0149237
-0.0143186
-0.0153053
-0.0149435
-0.0156497
-0.0155397
-0.015959
-0.0161026
-0.0162354
-0.0166348
-0.0164811
-0.0171354
-0.0166985
-0.0175998
-0.0168896
-0.0180312
-0.0170567
-0.0184291
-0.0172017
-0.0187888
-0.0173266
-0.0191138
-0.0174334
-0.0194041
-0.0175237
-0.0196548
-0.0175991
-0.0198703
-0.017661
-0.0200503
-0.0177106
-0.0201903
-0.017749
-0.0202949
-0.0177771
-0.0203642
-0.0177954
-0.0203938
-0.0178045
-0.0203885
-0.0178045
-0.0203487
-0.0177954
-0.0202701
-0.0177771
-0.0201578
-0.017749
-0.0200122
-0.0177106
-0.0198295
-0.017661
-0.0196147
-0.0175991
-0.0193685
-0.0175237
-0.0190872
-0.0174334
-0.0187759
-0.0173266
-0.0184353
-0.0172017
-0.0180622
-0.0170567
-0.0176616
-0.0168896
-0.0172342
-0.0166985
-0.0167772
-0.0164811
-0.0162953
-0.0162354
-0.0157895
-0.015959
-0.0152571
-0.0156497
-0.0147027
-0.0153053
-0.0141273
-0.0149237
-0.0135288
-0.0145027
-0.0129112
-0.0140403
-0.0122757
-0.0135346
-0.0116204
-0.0129837
-0.0109492
-0.0123859
-0.0102631
-0.01174
-0.00956081
-0.0110445
-0.00884576
-0.0102983
-0.00811883
-0.00950071
-0.0073793
-0.00865106
-0.00663013
-0.00774896
-0.00587217
-0.00679447
-0.00510521
-0.00578777
-0.0043317
-0.0047293
-0.00355248
-0.00362005
-0.00276786
-0.00246108
-0.00197976
-0.00125374
-0.00118902
-0.00039648
0.00216094
0.000571759
0.00439174
0.00171479
0.00668758
0.00285561
0.00904364
0.00399324
0.0114546
0.0051267
0.0139142
0.00625348
0.0164163
0.00737333
0.0189542
0.00848526
0.0215203
0.00958594
0.0241075
0.0106758
0.0267079
0.0117539
0.0293131
0.012816
0.031915
0.0138634
0.034505
0.0148948
0.0370742
0.0159054
0.0396139
0.016897
0.0421153
0.0178683
0.0445691
0.0188139
0.0469666
0.019736
0.0492992
0.0206335
0.0515578
0.0215
0.053734
0.0223385
0.0558196
0.0231478
0.0578064
0.0239209
0.0596866
0.0246615
0.0614531
0.0253681
0.0630985
0.0260334
0.0646164
0.0266617
0.0660009
0.0272514
0.0672461
0.0277949
0.068347
0.0282969
0.0692993
0.0287561
0.0700988
0.0291645
0.0707425
0.0295273
0.0712276
0.0298433
0.0715521
0.0301045
0.0717146
0.0303165
0.0717146
0.0304784
0.0715521
0.0305822
0.0712276
0.0306339
0.0707425
0.0306328
0.0700988
0.0305713
0.0692993
0.0304557
0.068347
0.0302856
0.0672461
0.0300538
0.0660009
0.0297669
0.0646164
0.0294247
0.0630985
0.0290209
0.0614531
0.0285621
0.0596866
0.0280487
0.0578064
0.0274748
0.0558196
0.0268475
0.053734
0.0261673
0.0515578
0.0254293
0.0492992
0.0246405
0.0469666
0.0238021
0.0445691
0.02291
0.0421153
0.0219711
0.0396139
0.020987
0.0370742
0.0199546
0.034505
0.0188809
0.031915
0.0177675
0.0293131
0.0166127
0.0267079
0.0154229
0.0241075
0.0142002
0.0215203
0.012944
0.0189542
0.0116603
0.0164163
0.0103512
0.0139142
0.0090181
0.0114546
0.00766519
0.00904369
0.00629517
0.00668758
0.00491093
0.00439169
0.00351572
0.00216099
0.00211262
-1.8962e-13
0.000704727
-0.0020873
-0.000704727
-0.00409747
-0.00211262
-0.00602752
-0.00351572
-0.00787505
-0.00491093
-0.00963817
-0.00629517
-0.0113155
-0.00766519
-0.012906
-0.0090181
-0.0144096
-0.0103512
-0.015826
-0.0116603
-0.017156
-0.012944
-0.0184006
-0.0142002
-0.019561
-0.0154229
-0.020639
-0.0166127
-0.0216368
-0.0177675
-0.0225568
-0.0188809
-0.0234017
-0.0199546
-0.0241746
-0.020987
-0.0248785
-0.0219711
-0.0255168
-0.02291
-0.0260932
-0.0238021
-0.0266111
-0.0246405
-0.0270742
-0.0254293
-0.0274863
-0.0261673
-0.027851
-0.0268475
-0.0281719
-0.0274748
-0.0284527
-0.0280487
-0.0286965
-0.0285621
-0.0289069
-0.0290209
-0.0290868
-0.0294247
-0.029239
-0.0297669
-0.0293662
-0.0300538
-0.0294707
-0.0302856
-0.0295546
-0.0304557
-0.0296196
-0.0305713
-0.0296671
-0.0306328
-0.0296981
-0.0306339
-0.0297135
-0.0305822
-0.0297135
-0.0304784
-0.0296981
-0.0303165
-0.0296671
-0.0301045
-0.0296196
-0.0298433
-0.0295546
-0.0295273
-0.0294707
-0.0291645
-0.0293662
-0.0287561
-0.029239
-0.0282969
-0.0290868
-0.0277949
-0.0289069
-0.0272514
-0.0286965
-0.0266617
-0.0284527
-0.0260334
-0.0281719
-0.0253681
-0.027851
-0.0246615
-0.0274863
-0.0239209
-0.0270742
-0.0231478
-0.0266111
-0.0223385
-0.0260932
-0.0215
-0.0255168
-0.0206335
-0.0248785
-0.019736
-0.0241746
-0.0188139
-0.0234017
-0.0178683
-0.0225568
-0.016897
-0.0216368
-0.0159054
-0.020639
-0.0148948
-0.019561
-0.0138634
-0.0184006
-0.012816
-0.017156
-0.0117539
-0.015826
-0.0106758
-0.0144096
-0.00958594
-0.012906
-0.00848526
-0.0113155
-0.00737333
-0.00963821
-0.00625348
-0.00787501
-0.0051267
-0.00602752
-0.00399324
-0.00409751
-0.00285561
-0.00208726
-0.00171479
-0.000571759
0.00301973
0.000731544
0.00613656
0.00219419
0.00934375
0.0036545
0.0126346
0.00511159
0.0160016
0.00656453
0.0194361
0.00801042
0.0229295
0.00944926
0.0264725
0.01088
0.0300546
0.0122988
0.0336656
0.0137064
0.0372948
0.0151017
0.0409304
0.0164797
0.044561
0.0178419
0.0481748
0.0191872
0.0517593
0.0205092
0.0553023
0.0218106
0.0587917
0.0230897
0.0622146
0.0243393
0.0655587
0.0255627
0.0688121
0.026758
0.0719622
0.0279171
0.0749972
0.0290439
0.0779058
0.0301364
0.0806764
0.0311855
0.0832984
0.0321958
0.0857616
0.0331652
0.088056
0.034084
0.0901725
0.0349572
0.0921029
0.0357827
0.0938391
0.0365503
0.0953741
0.0372656
0.0967018
0.0379265
0.0978166
0.0385223
0.0987139
0.0390594
0.0993903
0.0395359
0.0998427
0.0399407
0.100069
0.0402808
0.100069
0.0405546
0.0998427
0.0407512
0.0993903
0.040878
0.0987139
0.0409338
0.0978166
0.0409079
0.0967018
0.0408085
0.0953741
0.0406345
0.0938391
0.040376
0.0921029
0.0400416
0.0901725
0.0396307
0.088056
0.0391342
0.0857616
0.038561
0.0832984
0.0379113
0.0806764
0.0371769
0.0779058
0.036367
0.0749972
0.0354824
0.0719622
0.0345161
0.0688121
0.0334776
0.0655587
0.0323681
0.0622146
0.0311822
0.0587917
0.0299293
0.0553023
0.0286113
0.0517593
0.0272242
0.0481748
0.0257774
0.044561
0.0242733
0.0409304
0.0227096
0.0372948
0.0210951
0.0336656
0.0194329
0.0300546
0.0177223
0.0264725
0.0159715
0.0229296
0.0141838
0.0194361
0.0123612
0.0160015
0.0105098
0.0126346
0.00863342
0.00934375
0.00673633
0.00613649
0.00482321
0.0030198
0.00289857
-2.61436e-13
0.000966953
-0.00291737
-0.000966953
-0.00572747
-0.00289857
-0.00842616
-0.00482321
-0.01101
-0.00673633
-0.0134765
-0.00863342
-0.0158234
-0.0105098
-0.0180497
-0.0123612
-0.0201548
-0.0141838
-0.0221386
-0.0159715
-0.0240019
-0.0177223
-0.0257463
-0.0194329
-0.0273732
-0.0210951
-0.0288854
-0.0227096
-0.0302859
-0.0242733
-0.0315777
-0.0257774
-0.0327647
-0.0272242
-0.0338512
-0.0286113
-0.0348414
-0.0299293
-0.03574
-0.0311822
-0.036552
-0.0323681
-0.0372822
-0.0334776
-0.0379358
-0.0345161
-0.0385179
-0.0354824
-0.0390335
-0.036367
-0.0394877
-0.0371769
-0.0398855
-0.0379113
-0.0402316
-0.038561
-0.0405303
-0.0391342
-0.0407861
-0.0396307
-0.0410029
-0.0400416
-0.0411843
-0.040376
-0.0413335
-0.0406345
-0.0414534
-0.0408085
-0.0415463
-0.0409079
-0.0416143
-0.0409338
-0.0416588
-0.040878
-0.0416808
-0.0407512
-0.0416808
-0.0405546
-0.0416588
-0.0402808
-0.0416143
-0.0399407
-0.0415463
-0.0395359
-0.0414534
-0.0390594
-0.0413335
-0.0385223
-0.0411843
-0.0379265
-0.0410029
-0.0372656
-0.0407861
-0.0365503
-0.0405303
-0.0357827
-0.0402316
-0.0349572
-0.0398855
-0.034084
-0.0394877
-0.0331652
-0.0390335
-0.0321958
-0.0385179
-0.0311855
-0.0379358
-0.0301364
-0.0372822
-0.0290439
-0.036552
-0.0279171
-0.03574
-0.026758
-0.0348414
-0.0255627
-0.0338512
-0.0243393
-0.0327647
-0.0230897
-0.0315777
-0.0218106
-0.0302859
-0.0205092
-0.0288854
-0.0191872
-0.0273732
-0.0178419
-0.0257463
-0.0164797
-0.0240019
-0.0151017
-0.0221386
-0.0137064
-0.0201548
-0.0122988
-0.0180496
-0.01088
-0.0158234
-0.00944926
-0.0134765
-0.00801042
-0.01101
-0.00656453
-0.00842616
-0.00511159
-0.00572754
-0.0036545
-0.0029173
-0.00219419
-0.000731544
0.00387296
0.000875825
0.00786954
0.00262716
0.0119811
0.00437638
0.016199
0.00612282
0.0205139
0.00786582
0.0249145
0.0096023
0.0293897
0.0113327
0.0339278
0.0130561
0.0385153
0.0147682
0.0431392
0.0164703
0.0477859
0.0181614
0.0524402
0.0198355
0.0570875
0.0214951
0.061713
0.0231386
0.0663005
0.0247588
0.0708344
0.0263589
0.0752994
0.0279369
0.0796789
0.0294844
0.0839574
0.031005
0.0881195
0.0324966
0.0921491
0.0339494
0.0960314
0.0353676
0.0997517
0.036749
0.103295
0.0380823
0.106649
0.0393727
0.109799
0.0406174
0.112733
0.0418042
0.11544
0.042939
0.117908
0.0440188
0.120129
0.0450306
0.122091
0.0459809
0.123789
0.0468668
0.125214
0.0476745
0.126362
0.0484114
0.127227
0.0490746
0.127805
0.0496501
0.128095
0.050146
0.128095
0.0505597
0.127805
0.0508771
0.127227
0.051107
0.126362
0.0512474
0.125214
0.0512844
0.123789
0.0512278
0.122091
0.0510758
0.120129
0.0508154
0.117908
0.050457
0.11544
0.0499996
0.112733
0.0494312
0.109799
0.0487628
0.106649
0.0479942
0.103295
0.0471147
0.0997517
0.0461359
0.0960314
0.0450582
0.0921491
0.043873
0.0881195
0.0425918
0.0839574
0.0412162
0.0796789
0.0397392
0.0752994
0.0381727
0.0708344
0.036519
0.0663005
0.0347732
0.061713
0.0329471
0.0570875
0.0310439
0.0524402
0.0290608
0.0477859
0.0270092
0.0431392
0.0248932
0.0385153
0.022712
0.0339278
0.0204766
0.0293898
0.0181911
0.0249145
0.0158586
0.0205138
0.013487
0.0161991
0.0110816
0.0119811
0.00864806
0.00786945
0.00619285
0.00387305
0.00372201
-3.3073e-13
0.0012417
-0.00374258
-0.0012417
-0.00734851
-0.00372201
-0.0108124
-0.00619285
-0.01413
-0.00864806
-0.0172977
-0.0110816
-0.0203131
-0.013487
-0.0231745
-0.0158586
-0.0258812
-0.0181911
-0.0284331
-0.0204766
-0.0308311
-0.022712
-0.0330771
-0.0248932
-0.0351732
-0.0270092
-0.0371225
-0.0290608
-0.0389288
-0.0310439
-0.0405962
-0.0329471
-0.0421295
-0.0347732
-0.043534
-0.036519
-0.0448152
-0.0381727
-0.0459789
-0.0397392
-0.0470315
-0.0412162
-0.0479791
-0.0425918
-0.0488282
-0.043873
-0.0495854
-0.0450582
-0.050257
-0.0461359
-0.0508495
-0.0471147
-0.0513691
-0.0479942
-0.0518218
-0.0487628
-0.0522132
-0.0494312
-0.0525489
-0.0499996
-0.0528339
-0.050457
-0.0530727
-0.0508154
-0.0532694
-0.0510758
-0.0534277
-0.0512278
-0.0535505
-0.0512844
-0.0536405
-0.0512474
-0.0536994
-0.051107
-0.0537285
-0.0508771
-0.0537285
-0.0505597
-0.0536994
-0.050146
-0.0536405
-0.0496501
-0.0535505
-0.0490746
-0.0534277
-0.0484114
-0.0532694
-0.0476745
-0.0530727
-0.0468668
-0.0528339
-0.0459809
-0.0525489
-0.0450306
-0.0522132
-0.0440188
-0.0518218
-0.042939
-0.0513691
-0.0418042
-0.0508495
-0.0406174
-0.050257
-0.0393727
-0.0495854
-0.0380823
-0.0488282
-0.036749
-0.0479791
-0.0353676
-0.0470315
-0.0339494
-0.0459789
-0.0324966
-0.0448152
-0.031005
-0.043534
-0.0294844
-0.0421295
-0.0279369
-0.0405962
-0.0263589
-0.0389288
-0.0247588
-0.0371225
-0.0231386
-0.0351732
-0.0214951
-0.0330771
-0.0198355
-0.0308311
-0.0181614
-0.0284331
-0.0164703
-0.0258812
-0.0147682
-0.0231745
-0.0130561
-0.0203131
-0.0113327
-0.0172978
-0.0096023
-0.0141299
-0.00786582
-0.0108124
-0.00612282
-0.00734859
-0.00437638
-0.0037425
-0.00262716
-0.000875825
0.00471905
0.00100469
0.00958735
0.00301399
0.0145944
0.00502167
0.0197297
0.00702752
0.0249818
0.0090313
0.030337
0.01103
0.0357819
0.0130245
0.0413024
0.0150145
0.046882
0.0169951
0.0525048
0.0189685
0.0581545
0.0209337
0.0638126
0.0228844
0.0694615
0.0248235
0.0750831
0.0267495
0.0806577
0.0286544
0.0861668
0.0305417
0.0915915
0.0324096
0.0969118
0.0342481
0.102109
0.0360615
0.107164
0.0378475
0.112058
0.0395942
0.116773
0.0413067
0.121291
0.0429821
0.125594
0.0446068
0.129665
0.0461868
0.13349
0.0477185
0.137052
0.0491871
0.140338
0.0505992
0.143335
0.0519508
0.14603
0.053226
0.148413
0.0544321
0.150474
0.0555651
0.152204
0.0566082
0.153597
0.0575694
0.154646
0.0584449
0.155349
0.0592172
0.1557
0.0598955
0.1557
0.0604761
0.155349
0.0609414
0.154646
0.0613017
0.153597
0.0615535
0.152204
0.06168
0.150474
0.061692
0.148413
0.0615871
0.14603
0.061349
0.143335
0.0609898
0.140338
0.0605077
0.137052
0.0598878
0.13349
0.059143
0.129665
0.0582726
0.125594
0.0572635
0.121291
0.0561293
0.116773
0.0548703
0.112058
0.0534756
0.107164
0.0519592
0.102109
0.0503228
0.0969118
0.0485579
0.0915915
0.0466787
0.0861668
0.0446882
0.0806577
0.0425803
0.0750831
0.0403695
0.0694615
0.0380599
0.0638126
0.035648
0.0581545
0.0331481
0.0525048
0.0305652
0.046882
0.0278988
0.0413024
0.0251623
0.0357821
0.0223613
0.030337
0.0194999
0.0249816
0.0165879
0.0197298
0.0136323
0.0145944
0.0106404
0.00958723
0.00762053
0.00471916
0.00458045
-3.97377e-13
0.00152815
-0.00456158
-0.00152815
-0.00895802
-0.00458045
-0.0131828
-0.00762053
-0.0172306
-0.0106404
-0.0210971
-0.0136323
-0.0247793
-0.0165879
-0.028275
-0.0194999
-0.0315834
-0.0223613
-0.0347042
-0.0251623
-0.0376386
-0.0278988
-0.0403887
-0.0305652
-0.0429568
-0.0331481
-0.0453469
-0.035648
-0.0475634
-0.0380599
-0.0496111
-0.0403695
-0.0514959
-0.0425803
-0.053224
-0.0446882
-0.054802
-0.0466787
-0.056237
-0.0485579
-0.0575365
-0.0503228
-0.0587079
-0.0519592
-0.0597591
-0.0534756
-0.0606979
-0.0548703
-0.0615318
-0.0561293
-0.0622688
-0.0572635
-0.0629162
-0.0582726
-0.0634812
-0.059143
-0.0639708
-0.0598878
-0.0643915
-0.0605077
-0.0647491
-0.0609898
-0.0650494
-0.061349
-0.0652973
-0.0615871
-0.065497
-0.061692
-0.0656523
-0.06168
-0.0657661
-0.0615535
-0.0658407
-0.0613017
-0.0658776
-0.0609414
-0.0658776
-0.0604761
-0.0658407
-0.0598955
-0.0657661
-0.0592172
-0.0656523
-0.0584449
-0.065497
-0.0575694
-0.0652973
-0.0566082
-0.0650494
-0.0555651
-0.0647491
-0.0544321
-0.0643915
-0.053226
-0.0639708
-0.0519508
-0.0634812
-0.0505992
-0.0629162
-0.0491871
-0.0622688
-0.0477185
-0.0615318
-0.0461868
-0.0606979
-0.0446068
-0.0597591
-0.0429821
-0.0587079
-0.0413067
-0.0575365
-0.0395942
-0.056237
-0.0378475
-0.054802
-0.0360615
-0.053224
-0.0342481
-0.0514959
-0.0324096
-0.0496111
-0.0305417
-0.0475634
-0.0286544
-0.0453469
-0.0267495
-0.0429568
-0.0248235
-0.0403887
-0.0228844
-0.0376386
-0.0209337
-0.0347042
-0.0189685
-0.0315834
-0.0169951
-0.028275
-0.0150145
-0.0247793
-0.0130245
-0.0210972
-0.01103
-0.0172305
-0.0090313
-0.0131828
-0.00702752
-0.00895812
-0.00502167
-0.00456148
-0.00301399
-0.00100469
0.00555644
0.00111833
0.0112867
0.00335523
0.0171783
0.0055913
0.0232191
0.00782696
0.0293956
0.0100626
0.0356916
0.0122954
0.0420917
0.014527
0.0485789
0.0167575
0.0551343
0.0189822
0.0617392
0.0212037
0.0683744
0.0234216
0.0750182
0.0256292
0.0816501
0.0278299
0.088249
0.0300226
0.0947918
0.0321983
0.101257
0.0343613
0.107622
0.0365095
0.113864
0.0386319
0.119961
0.0407334
0.12589
0.042811
0.13163
0.0448514
0.13716
0.0468603
0.142458
0.0488338
0.147503
0.0507567
0.152277
0.052635
0.156761
0.0544644
0.160938
0.0562277
0.16479
0.0579316
0.168303
0.0595715
0.171462
0.0611284
0.174255
0.0626099
0.17667
0.0640111
0.178698
0.0653118
0.180331
0.0665207
0.181561
0.0676326
0.182384
0.0686268
0.182796
0.0695131
0.182796
0.0702864
0.182384
0.0709258
0.181561
0.0714424
0.180331
0.0718316
0.178698
0.072073
0.17667
0.0721788
0.174255
0.0721452
0.171462
0.071953
0.168303
0.0716153
0.16479
0.0711297
0.160938
0.0704783
0.156761
0.0696756
0.152277
0.0687204
0.147503
0.0675969
0.142458
0.0663206
0.13716
0.0648919
0.13163
0.0632973
0.12589
0.0615535
0.119961
0.0596621
0.113864
0.0576128
0.107622
0.0554226
0.101257
0.0530949
0.0947918
0.0506225
0.088249
0.0480225
0.0816501
0.0453001
0.0750182
0.0424511
0.0683744
0.0394928
0.0617392
0.0364313
0.0551343
0.0332663
0.0485789
0.030014
0.0420918
0.0266813
0.0356916
0.0232735
0.0293954
0.0198026
0.0232193
0.0162774
0.0171783
0.012707
0.0112865
0.00910169
0.00555657
0.00547116
-4.61289e-13
0.00182539
-0.00537298
-0.00182539
-0.0105535
-0.00547116
-0.0155337
-0.00910169
-0.0203075
-0.012707
-0.0248697
-0.0162774
-0.0292166
-0.0198026
-0.0333457
-0.0232735
-0.0372558
-0.0266813
-0.0409465
-0.030014
-0.0444191
-0.0332663
-0.047676
-0.0364313
-0.0507199
-0.0394928
-0.0535551
-0.0424511
-0.0561869
-0.0453001
-0.0586206
-0.0480225
-0.0608631
-0.0506225
-0.0629215
-0.0530949
-0.0648034
-0.0554226
-0.0665171
-0.0576128
-0.0680711
-0.0596621
-0.0694741
-0.0615535
-0.0707351
-0.0632973
-0.0718632
-0.0648919
-0.0728672
-0.0663206
-0.0737561
-0.0675969
-0.0745385
-0.0687204
-0.0752228
-0.0696756
-0.075817
-0.0704783
-0.0763286
-0.0711297
-0.0767646
-0.0716153
-0.0771313
-0.071953
-0.0774346
-0.0721452
-0.0776795
-0.0721788
-0.0778701
-0.072073
-0.0780101
-0.0718316
-0.0781019
-0.0714424
-0.0781473
-0.0709258
-0.0781473
-0.0702864
-0.0781019
-0.0695131
-0.0780101
-0.0686268
-0.0778701
-0.0676326
-0.0776795
-0.0665207
-0.0774346
-0.0653118
-0.0771313
-0.0640111
-0.0767646
-0.0626099
-0.0763286
-0.0611284
-0.075817
-0.0595715
-0.0752228
-0.0579316
-0.0745385
-0.0562277
-0.0737561
-0.0544644
-0.0728672
-0.052635
-0.0718632
-0.0507567
-0.0707351
-0.0488338
-0.0694741
-0.0468603
-0.0680711
-0.0448514
-0.0665171
-0.042811
-0.0648034
-0.0407334
-0.0629215
-0.0386319
-0.0608631
-0.0365095
-0.0586206
-0.0343613
-0.0561869
-0.0321983
-0.0535551
-0.0300226
-0.0507199
-0.0278299
-0.047676
-0.0256292
-0.0444191
-0.0234216
-0.0409465
-0.0212037
-0.0372558
-0.0189822
-0.0333456
-0.0167575
-0.0292166
-0.014527
-0.0248698
-0.0122954
-0.0203074
-0.0100626
-0.0155337
-0.00782696
-0.0105536
-0.0055913
-0.00537286
-0.00335523
-0.00111833
0.00638361
0.00121703
0.0129643
0.00365173
0.0197278
0.00608667
0.0266602
0.00852308
0.0337459
0.0109621
0.0409667
0.0134013
0.0483046
0.0158434
0.0557405
0.0182889
0.0632526
0.0207333
0.0708197
0.0231802
0.0784198
0.0256296
0.0860283
0.0280744
0.0936216
0.030519
0.101176
0.0329625
0.108664
0.0353951
0.116063
0.037822
0.123346
0.0402409
0.130487
0.0426397
0.137461
0.0450238
0.144244
0.04739
0.150808
0.0497234
0.157131
0.0520298
0.163189
0.0543051
0.168957
0.0565317
0.174415
0.0587161
0.179542
0.060853
0.184315
0.0629226
0.188718
0.0649321
0.192733
0.0668755
0.196344
0.0687309
0.199536
0.0705064
0.202296
0.0721955
0.204614
0.0737748
0.206479
0.0752534
0.207885
0.0766247
0.208825
0.0778643
0.209296
0.0789827
0.209296
0.0799733
0.208825
0.0808117
0.207885
0.0815095
0.206479
0.0820608
0.204614
0.0824416
0.202296
0.082665
0.199536
0.0827262
0.196344
0.0826022
0.192733
0.0823077
0.188718
0.0818392
0.184315
0.0811755
0.179542
0.0803328
0.174415
0.0793093
0.168957
0.0780863
0.163189
0.0766814
0.157131
0.0750945
0.150808
0.0733099
0.144244
0.0713465
0.137461
0.0692061
0.130487
0.0668766
0.123346
0.0643775
0.116063
0.0617129
0.108664
0.0588743
0.101176
0.0558818
0.0936216
0.0527413
0.0860283
0.0494482
0.0784198
0.0460228
0.0708197
0.0424724
0.0632526
0.0387969
0.0557405
0.0350155
0.0483048
0.0311367
0.0409667
0.0271668
0.0337457
0.0231205
0.0266603
0.0190081
0.0197278
0.014841
0.0129641
0.0106313
0.00638376
0.00639112
-5.22364e-13
0.0021324
-0.00617544
-0.0021324
-0.0121323
-0.00639112
-0.0178618
-0.0106313
-0.0233565
-0.014841
-0.0286106
-0.0190081
-0.0336197
-0.0231205
-0.0383808
-0.0271668
-0.0428926
-0.0311367
-0.0471543
-0.0350155
-0.0511673
-0.0387969
-0.0549342
-0.0424724
-0.058458
-0.0460228
-0.0617433
-0.0494482
-0.0647962
-0.0527413
-0.0676224
-0.0558818
-0.0702297
-0.0588743
-0.0726262
-0.0617129
-0.0748202
-0.0643775
-0.076821
-0.0668766
-0.0786384
-0.0692061
-0.0802819
-0.0713465
-0.0817617
-0.0733099
-0.0830881
-0.0750945
-0.084271
-0.0766814
-0.0853205
-0.0780863
-0.0862464
-0.0793093
-0.0870579
-0.0803328
-0.0877642
-0.0811755
-0.0883738
-0.0818392
-0.0888944
-0.0823077
-0.0893334
-0.0826022
-0.0896971
-0.0827262
-0.0899914
-0.082665
-0.0902208
-0.0824416
-0.0903895
-0.0820608
-0.0905003
-0.0815095
-0.0905552
-0.0808117
-0.0905552
-0.0799733
-0.0905003
-0.0789827
-0.0903895
-0.0778643
-0.0902208
-0.0766247
-0.0899914
-0.0752534
-0.0896971
-0.0737748
-0.0893334
-0.0721955
-0.0888944
-0.0705064
-0.0883738
-0.0687309
-0.0877642
-0.0668755
-0.0870579
-0.0649321
-0.0862464
-0.0629226
-0.0853205
-0.060853
-0.084271
-0.0587161
-0.0830881
-0.0565317
-0.0817617
-0.0543051
-0.0802819
-0.0520298
-0.0786384
-0.0497234
-0.076821
-0.04739
-0.0748202
-0.0450238
-0.0726262
-0.0426397
-0.0702297
-0.0402409
-0.0676224
-0.037822
-0.0647962
-0.0353951
-0.0617433
-0.0329625
-0.058458
-0.030519
-0.0549342
-0.0280744
-0.0511673
-0.0256296
-0.0471543
-0.0231802
-0.0428926
-0.0207333
-0.0383807
-0.0182889
-0.0336197
-0.0158434
-0.0286107
-0.0134013
-0.0233564
-0.0109621
-0.0178618
-0.00852308
-0.0121325
-0.00608667
-0.00617531
-0.00365173
-0.00121703
0.00719903
0.00130116
0.0146169
0.0039046
0.0222378
0.00650964
0.0300458
0.00911842
0.0380235
0.011733
0.0461505
0.0143518
0.0544066
0.0169782
0.0627705
0.0196136
0.0712176
0.0222541
0.0797243
0.024904
0.0882659
0.0275638
0.0968149
0.0302266
0.105345
0.0328975
0.113829
0.0355758
0.122239
0.0382516
0.130545
0.0409304
0.13872
0.04361
0.146735
0.0462774
0.154562
0.0489384
0.162171
0.0515896
0.169536
0.0542143
0.176629
0.056819
0.183423
0.0593987
0.189893
0.0619338
0.196013
0.064431
0.201761
0.0668841
0.207114
0.0692707
0.21205
0.071598
0.216551
0.0738589
0.220599
0.0760285
0.224177
0.0781148
0.227271
0.0801101
0.229868
0.0819875
0.231959
0.0837563
0.233535
0.0854084
0.234589
0.0869157
0.235117
0.0882889
0.235117
0.08952
0.234589
0.0905807
0.233535
0.0914831
0.231959
0.0922199
0.229868
0.0927632
0.227271
0.093127
0.224177
0.0933051
0.220599
0.0932708
0.216551
0.0930401
0.21205
0.0926083
0.207114
0.0919509
0.201761
0.0910856
0.196013
0.0900099
0.189893
0.0887019
0.183423
0.0871813
0.176629
0.0854477
0.169536
0.0834829
0.162171
0.081308
0.154562
0.078925
0.146735
0.0763199
0.13872
0.0735149
0.130545
0.0705144
0.122239
0.0673089
0.113829
0.0639214
0.105345
0.0603586
0.0968149
0.0566157
0.0882659
0.0527158
0.0797243
0.0486678
0.0712176
0.0444715
0.0627705
0.0401497
0.0544068
0.035712
0.0461505
0.0311663
0.0380233
0.0265298
0.0300459
0.0218148
0.0222378
0.0170347
0.0146168
0.0122041
0.00719919
0.00733709
-5.80536e-13
0.00244811
-0.00696762
-0.00244811
-0.0136921
-0.00733709
-0.0201634
-0.0122041
-0.0263732
-0.0170347
-0.0323148
-0.0218148
-0.0379831
-0.0265298
-0.0433748
-0.0311663
-0.0484879
-0.035712
-0.0533217
-0.0401497
-0.0578774
-0.0444715
-0.0621578
-0.0486678
-0.066166
-0.0527158
-0.0699071
-0.0566157
-0.0733874
-0.0603586
-0.0766136
-0.0639214
-0.0795937
-0.0673089
-0.0823369
-0.0705144
-0.0848521
-0.0735149
-0.0871497
-0.0763199
-0.0892402
-0.078925
-0.0911343
-0.081308
-0.0928431
-0.0834829
-0.094378
-0.0854477
-0.0957497
-0.0871813
-0.0969696
-0.0887019
-0.0980482
-0.0900099
-0.098996
-0.0910856
-0.0998229
-0.0919509
-0.100538
-0.0926083
-0.101151
-0.0930401
-0.101668
-0.0932708
-0.102098
-0.0933051
-0.102447
-0.093127
-0.102719
-0.0927632
-0.102919
-0.0922199
-0.103051
-0.0914831
-0.103116
-0.0905807
-0.103116
-0.08952
-0.103051
-0.0882889
-0.102919
-0.0869157
-0.102719
-0.0854084
-0.102447
-0.0837563
-0.102098
-0.0819875
-0.101668
-0.0801101
-0.101151
-0.0781148
-0.100538
-0.0760285
-0.0998229
-0.0738589
-0.098996
-0.071598
-0.0980482
-0.0692707
-0.0969696
-0.0668841
-0.0957497
-0.064431
-0.094378
-0.0619338
-0.0928431
-0.0593987
-0.0911343
-0.056819
-0.0892402
-0.0542143
-0.0871497
-0.0515896
-0.0848521
-0.0489384
-0.0823369
-0.0462774
-0.0795937
-0.04361
-0.0766136
-0.0409304
-0.0733874
-0.0382516
-0.0699071
-0.0355758
-0.066166
-0.0328975
-0.0621578
-0.0302266
-0.0578774
-0.0275638
-0.0533217
-0.024904
-0.0484879
-0.0222541
-0.0433746
-0.0196136
-0.0379831
-0.0169782
-0.0323149
-0.0143518
-0.026373
-0.011733
-0.0201634
-0.00911842
-0.0136923
-0.00650964
-0.00696747
-0.0039046
-0.00130116
0.00800121
0.00137118
0.0162415
0.00411523
0.0247033
0.00686247
0.033369
0.00961616
0.0422194
0.0123794
0.0512319
0.0151515
0.0603842
0.0179369
0.0696528
0.020738
0.0790106
0.0235514
0.0884316
0.0263823
0.0978885
0.029232
0.107351
0.0320939
0.11679
0.0349737
0.126177
0.0378713
0.135478
0.0407763
0.144664
0.043695
0.153703
0.0466253
0.162563
0.0495531
0.171213
0.0524849
0.179623
0.0554168
0.18776
0.0583309
0.195596
0.0612337
0.203102
0.0641196
0.210247
0.066967
0.217007
0.0697827
0.223354
0.0725595
0.229265
0.0752723
0.234715
0.0779285
0.239684
0.0805194
0.244152
0.0830172
0.248102
0.08543
0.251518
0.0877481
0.254385
0.0899416
0.256693
0.0920195
0.258432
0.0939721
0.259595
0.0957675
0.260178
0.0974166
0.260178
0.0989097
0.259595
0.100214
0.258432
0.101343
0.256693
0.102287
0.254385
0.103015
0.251518
0.10354
0.248102
0.103856
0.244152
0.103932
0.239684
0.103785
0.234715
0.103408
0.229265
0.102775
0.223354
0.101904
0.217007
0.100791
0.210247
0.0994121
0.203102
0.0977886
0.195596
0.0959196
0.18776
0.0937844