/*--------------------------------*- C++ -*----------------------------------*\
  =========                 |
  \\      /  F ield         | OpenFOAM: The Open Source CFD Toolbox
   \\    /   O peration     | Website:  https://openfoam.org
    \\  /    A nd           | Version:  6
     \\/     M anipulation  |
\*---------------------------------------------------------------------------*/
FoamFile
{
    version     2.0;
    format      ascii;
    class       volVectorField;
    location    "1.18";
    object      U;
}
// * * * * * * * * * * * * * * * * * * * * * * * * * * * * * * * * * * * * * //

dimensions      [0 1 -1 0 0 0 0];

internalField   nonuniform List<vector> 
4214
(
(9.95963 -0.154624 3.59197e-19)
(10.1205 -0.0433781 0)
(10.1461 0.0551014 0)
(10.1517 0.138542 2.11652e-20)
(10.1735 0.218953 2.27171e-20)
(10.217 0.295997 -2.42631e-20)
(10.2706 0.365573 2.17844e-21)
(10.3192 0.427918 -8.44237e-21)
(10.3506 0.485677 5.11045e-21)
(10.3596 0.541496 5.26128e-21)
(10.3478 0.596803 -5.32729e-21)
(10.319 0.651931 2.96084e-21)
(10.2764 0.706312 -2.93946e-21)
(10.2251 0.759173 0)
(10.1748 0.810258 -6.1823e-22)
(10.1425 0.859638 -6.17479e-21)
(10.1411 0.909239 3.67592e-21)
(10.1587 0.954254 1.6435e-21)
(10.1445 0.977449 1.44644e-20)
(9.99462 0.948221 -2.36591e-20)
(9.51739 0.754976 8.60905e-22)
(9.37591 0.392779 -9.00308e-20)
(9.91403 0.131643 2.35389e-20)
(10.0508 -0.0623442 -2.0706e-20)
(9.87172 -0.216479 4.23735e-20)
(9.77494 -0.308641 -2.45068e-20)
(9.77746 -0.366341 0)
(9.81166 -0.403989 0)
(9.84934 -0.425931 0)
(9.8863 -0.433421 3.93802e-21)
(9.92154 -0.42869 -6.10942e-21)
(9.94883 -0.413988 -6.64602e-21)
(9.9589 -0.390925 2.47038e-21)
(9.94457 -0.359875 4.05811e-21)
(9.90762 -0.319396 2.08967e-21)
(9.86096 -0.266987 5.22681e-20)
(9.82521 -0.202847 1.00853e-20)
(9.8098 -0.130336 -6.89913e-20)
(9.81103 -0.0478748 0)
(9.78949 0.0585938 8.20377e-21)
(9.64845 0.179209 0)
(10.2766 -0.0451893 0)
(10.2741 0.0396632 -9.15044e-20)
(10.2584 0.119026 2.19395e-19)
(10.2515 0.185242 -8.04859e-20)
(10.2653 0.255607 6.75091e-20)
(10.2965 0.326981 -7.1423e-20)
(10.3359 0.392209 8.45444e-21)
(10.3729 0.450827 8.81305e-21)
(10.3976 0.505149 -5.30544e-21)
(10.405 0.557602 0)
(10.3943 0.610126 -5.35055e-21)
(10.3673 0.663908 5.33081e-21)
(10.3264 0.719239 0)
(10.2753 0.776175 0)
(10.2232 0.834759 1.43186e-20)
(10.1876 0.89425 0)
(10.1829 0.956689 1.84989e-20)
(10.191 1.0147 1.75164e-20)
(10.1436 1.05695 4.20728e-20)
(9.88601 1.01822 1.19009e-19)
(9.2314 0.798277 0)
(9.0407 0.394688 5.02464e-20)
(9.66973 0.143336 -1.20432e-19)
(9.83093 -0.0775277 1.07198e-19)
(9.7023 -0.249236 -6.10685e-20)
(9.67114 -0.35276 0)
(9.71545 -0.41802 0)
(9.7759 -0.46128 0)
(9.83457 -0.486023 0)
(9.89069 -0.494507 2.32252e-21)
(9.94186 -0.490308 0)
(9.98216 -0.475685 0)
(10.0047 -0.452068 0)
(10.0058 -0.419506 -1.44735e-20)
(9.98898 -0.376771 1.43966e-20)
(9.96511 -0.321989 -2.91244e-20)
(9.94684 -0.256698 0)
(9.94388 -0.187744 1.71796e-20)
(9.95855 -0.115653 2.4601e-20)
(9.97496 -0.0231854 1.66951e-20)
(9.97738 0.0686485 0)
(10.3259 -0.0158201 6.44688e-19)
(10.3007 0.0594508 1.01948e-19)
(10.2924 0.135132 -1.02407e-19)
(10.2915 0.200969 3.92581e-20)
(10.3036 0.269221 -7.30949e-20)
(10.3299 0.338097 8.46522e-20)
(10.364 0.402149 -1.98675e-20)
(10.3965 0.460591 -7.14984e-21)
(10.4186 0.514909 3.87973e-20)
(10.4251 0.566995 -1.24204e-20)
(10.415 0.618706 -1.12689e-20)
(10.3896 0.671564 1.04468e-20)
(10.3508 0.726614 1.00738e-21)
(10.3015 0.784553 -6.56285e-21)
(10.2506 0.845844 -2.91011e-20)
(10.2157 0.910119 1.69872e-20)
(10.2106 0.979798 -6.8363e-21)
(10.2159 1.04641 -4.68788e-20)
(10.1467 1.1001 -3.80632e-20)
(9.81873 1.05317 -2.26289e-19)
(9.05586 0.781206 0)
(8.87805 0.355784 -1.7307e-19)
(9.56599 0.119207 1.37161e-19)
(9.71122 -0.115061 -1.10846e-19)
(9.61735 -0.288984 6.0996e-20)
(9.61953 -0.397589 5.9919e-20)
(9.68421 -0.468903 5.00182e-20)
(9.75945 -0.515304 -1.18371e-20)
(9.82964 -0.540612 1.93352e-20)
(9.89589 -0.548646 -1.899e-20)
(9.95527 -0.542979 0)
(10.0028 -0.525898 0)
(10.0327 -0.498507 -1.75844e-20)
(10.0424 -0.461035 3.23844e-20)
(10.0358 -0.413156 5.24157e-20)
(10.0221 -0.354623 -3.98602e-20)
(10.012 -0.287599 0)
(10.0106 -0.217455 -1.13323e-20)
(10.0157 -0.142159 -2.56942e-20)
(10.0235 -0.0503247 -5.28337e-19)
(10.0492 0.0340272 -1.62909e-19)
(10.3815 0.0277092 1.31656e-18)
(10.3603 0.0889113 0)
(10.3541 0.159857 3.89894e-19)
(10.3515 0.222196 -1.36008e-19)
(10.3591 0.286648 0)
(10.3788 0.352778 1.10523e-19)
(10.4055 0.415617 2.87627e-20)
(10.4317 0.473749 -1.04155e-20)
(10.4497 0.528024 -4.779e-21)
(10.4545 0.579895 -4.25704e-21)
(10.4445 0.631057 8.37627e-21)
(10.4204 0.683285 -1.32071e-20)
(10.3834 0.738297 8.54133e-21)
(10.3364 0.797599 -3.02165e-21)
(10.2871 0.862215 0)
(10.2532 0.932438 6.26203e-20)
(10.2486 1.01131 0)
(10.2504 1.09166 -1.12676e-19)
(10.1482 1.15834 0)
(9.71371 1.09199 1.43141e-19)
(8.82577 0.744462 -2.18168e-20)
(8.66773 0.298147 1.83107e-19)
(9.40503 0.0780774 -3.90257e-19)
(9.56166 -0.173378 -3.06979e-19)
(9.51193 -0.350882 -4.2495e-20)
(9.55423 -0.466351 -1.86207e-20)
(9.64673 -0.543202 -3.14704e-20)
(9.74021 -0.591219 -6.35642e-21)
(9.82628 -0.615624 4.43556e-20)
(9.9061 -0.621928 -9.67862e-20)
(9.97708 -0.613 6.29238e-20)
(10.035 -0.591555 1.50658e-20)
(10.0757 -0.558817 4.41362e-20)
(10.0978 -0.515406 0)
(10.1048 -0.46171 0)
(10.1046 -0.398548 0)
(10.1052 -0.329236 0)
(10.1104 -0.259206 0)
(10.1178 -0.184503 -3.65251e-19)
(10.1231 -0.0941197 3.21916e-19)
(10.1394 -0.0181084 0)
(10.435 0.0523924 -1.01535e-18)
(10.4137 0.112027 -2.32864e-19)
(10.4071 0.179357 -1.81646e-19)
(10.4036 0.239203 -9.72309e-20)
(10.4081 0.300828 9.95938e-20)
(10.4226 0.364866 -1.0676e-19)
(10.4437 0.427083 -3.82826e-20)
(10.4649 0.485613 -1.35887e-19)
(10.4793 0.540653 1.01443e-19)
(10.4821 0.593143 -5.06119e-20)
(10.4718 0.644465 1.33593e-20)
(10.4487 0.696521 9.38398e-21)
(10.4137 0.75134 6.44238e-21)
(10.3698 0.811461 6.84353e-21)
(10.3235 0.878771 -2.0746e-20)
(10.2925 0.954562 -4.79093e-20)
(10.2921 1.04309 -1.04505e-19)
(10.2913 1.14213 1.10575e-19)
(10.1466 1.21318 3.5284e-19)
(9.58121 1.11843 4.0464e-19)
(8.57187 0.669018 6.24535e-21)
(8.48188 0.212025 0)
(9.27375 0.00916408 4.37279e-19)
(9.42275 -0.254458 -1.06563e-19)
(9.41665 -0.433479 -5.04158e-20)
(9.49697 -0.555035 4.90963e-20)
(9.615 -0.635342 -6.77362e-20)
(9.72639 -0.682796 0)
(9.82915 -0.705048 -3.13678e-21)
(9.92288 -0.707368 -8.51097e-20)
(10.0058 -0.692906 -9.22078e-20)
(10.0748 -0.664812 -2.44816e-19)
(10.1267 -0.624796 1.1847e-19)
(10.1606 -0.574055 -1.67152e-19)
(10.1799 -0.513677 0)
(10.1909 -0.445282 0)
(10.1998 -0.372665 0)
(10.2093 -0.301008 0)
(10.2176 -0.226663 -4.5769e-19)
(10.223 -0.138539 4.76541e-19)
(10.2371 -0.0627526 -1.23637e-18)
(10.4902 0.08108 1.3353e-18)
(10.4706 0.134166 -2.99964e-19)
(10.463 0.197328 -3.29495e-19)
(10.4576 0.254955 0)
(10.4587 0.31415 0)
(10.4689 0.376497 -4.80694e-20)
(10.4849 0.438429 4.77791e-20)
(10.5012 0.497638 1.36735e-19)
(10.5117 0.553763 2.57666e-20)
(10.512 0.607304 5.49634e-20)
(10.5006 0.659304 -1.8499e-20)
(10.4779 0.7116 0)
(10.4449 0.766436 -6.41246e-21)
(10.4041 0.827239 6.64083e-22)
(10.362 0.896863 8.55404e-21)
(10.3361 0.977765 -1.54384e-20)
(10.345 1.07686 1.02572e-19)
(10.3326 1.19843 -3.15038e-19)
(10.1372 1.25542 -3.60995e-19)
(9.40955 1.12234 -3.94603e-19)
(8.28392 0.559429 -9.06621e-21)
(8.32745 0.0993822 8.79485e-21)
(9.12892 -0.0966904 5.6145e-19)
(9.28969 -0.358597 3.38007e-19)
(9.32643 -0.539159 2.89298e-19)
(9.4444 -0.664464 1.45128e-20)
(9.58638 -0.74552 5.38859e-20)
(9.71868 -0.790737 4.43855e-20)
(9.83952 -0.808875 -1.33478e-19)
(9.94868 -0.804622 3.9162e-19)
(10.0448 -0.78218 7.94506e-20)
(10.1258 -0.745309 1.10338e-19)
(10.1896 -0.69653 5.84466e-20)
(10.2358 -0.637747 1.2103e-19)
(10.2672 -0.570586 3.89442e-19)
(10.2887 -0.497101 -3.59375e-19)
(10.3054 -0.421262 0)
(10.3196 -0.347893 -6.88671e-19)
(10.33 -0.273343 -7.42429e-21)
(10.3352 -0.187237 5.95177e-19)
(10.3462 -0.115007 7.31454e-20)
(10.5465 0.104543 -3.83933e-19)
(10.5266 0.153787 -4.06504e-19)
(10.5172 0.213563 6.72225e-19)
(10.5103 0.269374 0)
(10.5092 0.326739 -6.07097e-19)
(10.5158 0.38783 0)
(10.5276 0.449678 0)
(10.5394 0.509697 -1.76242e-19)
(10.5459 0.567069 6.31135e-21)
(10.5433 0.621922 6.83234e-20)
(10.5302 0.674976 8.85298e-21)
(10.5074 0.727895 -4.84735e-21)
(10.476 0.783014 -7.70198e-21)
(10.4385 0.844242 1.41012e-20)
(10.4018 0.915696 4.43916e-20)
(10.3842 1.00089 8.66759e-21)
(10.405 1.11223 0)
(10.3713 1.24539 6.90872e-19)
(10.1129 1.27116 -1.17819e-20)
(9.19667 1.08834 5.15066e-19)
(7.97322 0.408998 0)
(8.18402 -0.0357808 7.41913e-19)
(8.99837 -0.236773 -5.32979e-19)
(9.16859 -0.48529 0)
(9.24555 -0.667115 -5.99055e-19)
(9.39719 -0.79309 -6.87866e-21)
(9.56379 -0.872435 6.74289e-21)
(9.71964 -0.913847 4.13466e-20)
(9.85971 -0.925015 1.22183e-19)
(9.98542 -0.911404 -2.00147e-19)
(10.0955 -0.878366 0)
(10.1888 -0.830574 4.31735e-19)
(10.2643 -0.771532 -2.06081e-19)
(10.322 -0.703983 0)
(10.3643 -0.629991 -1.03112e-19)
(10.3952 -0.551733 1.19929e-19)
(10.4189 -0.473049 0)
(10.4375 -0.3982 -5.10149e-19)
(10.4499 -0.32317 1.37694e-18)
(10.4556 -0.238416 -8.78668e-20)
(10.4653 -0.168674 -2.42898e-18)
(10.6029 0.127588 0)
(10.5829 0.172522 0)
(10.572 0.229116 0)
(10.564 0.283502 0)
(10.5611 0.339539 6.1262e-19)
(10.5648 0.399653 1.35125e-19)
(10.5727 0.461454 -6.05831e-19)
(10.5802 0.522221 1.38149e-19)
(10.5826 0.580762 2.76715e-20)
(10.5766 0.636934 -1.39078e-19)
(10.5612 0.691214 -1.17746e-20)
(10.5377 0.745078 0)
(10.5074 0.800739 1.21272e-20)
(10.4733 0.862129 0)
(10.443 0.934991 -1.10314e-19)
(10.4376 1.02481 0)
(10.4674 1.14951 -5.46148e-21)
(10.4087 1.27295 -3.58595e-19)
(10.0606 1.2749 5.05479e-19)
(8.93421 0.992275 -5.17566e-19)
(7.6552 0.209502 0)
(8.0352 -0.187079 -7.47828e-19)
(8.87708 -0.401553 5.46936e-21)
(9.06101 -0.635822 -6.30602e-21)
(9.17404 -0.816292 3.12832e-19)
(9.35528 -0.93999 3.10111e-19)
(9.54884 -1.01573 0)
(9.73063 -1.05076 -2.29485e-19)
(9.89154 -1.05159 -2.63758e-19)
(10.0348 -1.02562 0)
(10.1593 -0.979205 4.49345e-19)
(10.2648 -0.918211 -4.8809e-19)
(10.3511 -0.847208 6.2613e-20)
(10.4189 -0.769832 0)
(10.4705 -0.688573 3.21677e-19)
(10.5094 -0.605655 1.47085e-20)
(10.5394 -0.52468 1.44687e-20)
(10.5627 -0.449018 -3.77526e-19)
(10.5781 -0.373958 8.21404e-19)
(10.5847 -0.290877 -1.61525e-18)
(10.5934 -0.224226 -7.03257e-20)
(10.6595 0.14934 5.52245e-19)
(10.6396 0.191074 -5.48196e-19)
(10.6276 0.245071 0)
(10.6189 0.298281 -4.941e-19)
(10.6147 0.353323 -3.93242e-19)
(10.6159 0.412645 6.879e-19)
(10.6202 0.474312 -7.42268e-20)
(10.6234 0.53558 0)
(10.6214 0.595008 -2.2979e-19)
(10.6117 0.652316 1.52879e-19)
(10.5936 0.707834 -3.41814e-20)
(10.5689 0.762873 -7.10405e-21)
(10.5391 0.819142 6.87612e-21)
(10.5086 0.880569 0)
(10.4857 0.9547 5.69575e-20)
(10.4964 1.0509 0)
(10.5297 1.1848 -3.4202e-19)
(10.4379 1.2839 4.73336e-19)
(9.96496 1.2606 -5.11068e-19)
(8.61317 0.8255 6.39351e-19)
(7.345 -0.032154 -3.36377e-21)
(7.9126 -0.356483 3.26365e-21)
(8.76433 -0.591468 1.48743e-18)
(8.96915 -0.811703 0)
(9.11139 -0.986045 6.41952e-19)
(9.32102 -1.10414 -5.7714e-20)
(9.54356 -1.17426 0)
(9.75319 -1.20005 1.74861e-19)
(9.93665 -1.18681 2.36639e-19)
(10.0982 -1.14507 -5.24195e-19)
(10.2372 -1.08224 -3.98658e-19)
(10.3543 -1.00548 6.36304e-19)
(10.45 -0.920427 1.66665e-19)
(10.5259 -0.831521 -1.68646e-19)
(10.5845 -0.741733 0)
(10.6292 -0.65338 8.54756e-19)
(10.6639 -0.569869 4.29773e-19)
(10.6912 -0.49356 -9.23612e-19)
(10.7103 -0.419077 -1.46006e-18)
(10.7195 -0.339193 9.92935e-19)
(10.7285 -0.276138 -2.78083e-19)
(10.7171 0.171311 -1.32957e-18)
(10.6975 0.210722 0)
(10.6851 0.262523 -5.00514e-19)
(10.676 0.314732 8.34064e-19)
(10.6707 0.368992 -4.31708e-19)
(10.6696 0.427565 -3.33708e-19)
(10.6702 0.488855 3.99958e-19)
(10.6689 0.550217 -1.41762e-19)
(10.6623 0.610127 -2.369e-19)
(10.6485 0.668303 0)
(10.6274 0.724961 0)
(10.6012 0.781265 -1.65967e-20)
(10.5716 0.838015 1.60991e-20)
(10.5449 0.899768 -1.02688e-20)
(10.5305 0.975469 -2.41092e-20)
(10.5591 1.0778 -2.37286e-19)
(10.5893 1.21107 3.12311e-19)
(10.4532 1.28172 -4.3706e-19)
(9.81443 1.20672 6.20452e-19)
(8.23023 0.579896 -2.10113e-18)
(7.05561 -0.299385 1.39607e-20)
(7.80775 -0.547123 -4.09847e-18)
(8.65813 -0.810682 1.61921e-19)
(8.89494 -1.01387 -4.08915e-20)
(9.05827 -1.17667 -6.24257e-20)
(9.29666 -1.28611 -2.27692e-19)
(9.54962 -1.34664 0)
(9.78892 -1.3597 -6.28648e-19)
(9.99658 -1.32896 -1.17185e-19)
(10.1769 -1.26777 -5.8898e-19)
(10.3301 -1.18533 -1.65925e-19)
(10.458 -1.08998 -7.77027e-20)
(10.5614 -0.988447 7.68334e-19)
(10.6431 -0.885792 2.12336e-20)
(10.7058 -0.785466 1.6413e-20)
(10.7534 -0.689735 -2.27266e-18)
(10.7898 -0.601955 9.69159e-19)
(10.8187 -0.524009 9.86531e-19)
(10.8407 -0.449882 -5.69108e-19)
(10.8537 -0.374464 -5.98211e-19)
(10.865 -0.315987 6.01334e-19)
(10.777 0.194769 1.30677e-18)
(10.758 0.232717 -1.28534e-18)
(10.7456 0.282688 -5.37919e-19)
(10.7362 0.333955 1.47671e-18)
(10.7297 0.387441 0)
(10.7259 0.445116 0)
(10.7225 0.50566 0)
(10.7163 0.566642 0)
(10.7049 0.626627 2.30483e-19)
(10.6869 0.685421 1.06075e-19)
(10.6627 0.743067 -6.42084e-20)
(10.6346 0.800545 3.51779e-20)
(10.6047 0.85743 2.62469e-20)
(10.5829 0.920672 1.01176e-20)
(10.5789 0.998357 7.27471e-20)
(10.6241 1.1007 2.58291e-19)
(10.6312 1.22117 -5.90634e-20)
(10.4416 1.23497 5.77571e-20)
(9.59447 1.07474 -6.22198e-19)
(7.78629 0.259984 1.48404e-18)
(6.80386 -0.576714 -3.21413e-20)
(7.719 -0.762179 4.13859e-18)
(8.56023 -1.05841 1.46377e-19)
(8.84004 -1.24296 -1.21959e-18)
(9.01906 -1.38811 -5.66751e-19)
(9.28576 -1.48597 -1.08427e-20)
(9.56826 -1.53206 0)
(9.83923 -1.52825 6.37793e-19)
(10.0729 -1.47672 0)
(10.2728 -1.39244 3.03026e-18)
(10.4396 -1.2872 1.73295e-18)
(10.5771 -1.17035 -1.18849e-18)
(10.6862 -1.04993 5.22459e-19)
(10.7715 -0.931324 -5.72114e-19)
(10.8357 -0.818239 -1.03982e-18)
(10.8831 -0.712577 1.06382e-18)
(10.9175 -0.617614 1.1937e-18)
(10.9441 -0.535604 -6.27508e-19)
(10.9642 -0.459898 2.46765e-18)
(10.9787 -0.387682 -2.65932e-21)
(10.9933 -0.333961 -3.1162e-18)
(10.8414 0.221353 1.50485e-18)
(10.8226 0.258296 1.23576e-18)
(10.8102 0.306637 -1.23341e-18)
(10.8002 0.356894 0)
(10.7919 0.409437 9.07029e-20)
(10.7847 0.465916 -3.99041e-19)
(10.7767 0.525282 3.8665e-19)
(10.7654 0.585446 -2.97423e-19)
(10.7491 0.645222 5.75069e-19)
(10.7269 0.704512 9.35904e-20)
(10.6996 0.763075 -9.35339e-20)
(10.6691 0.821612 -9.79432e-20)
(10.6381 0.878056 -1.40394e-20)
(10.6223 0.943993 -3.23564e-20)
(10.6318 1.02159 2.66395e-20)
(10.6898 1.11694 0)
(10.658 1.21286 0)
(10.3752 1.15364 -7.33642e-19)
(9.29349 0.827 8.59245e-20)
(7.30197 -0.100801 2.11008e-18)
(6.60246 -0.842685 -3.70896e-20)
(7.63661 -1.00783 1.9026e-20)
(8.47319 -1.33248 1.72246e-19)
(8.80466 -1.50118 2.15638e-18)
(8.99805 -1.62222 -4.22531e-19)
(9.29183 -1.70364 1.1005e-20)
(9.60147 -1.72962 8.43256e-19)
(9.90526 -1.70477 2.00909e-19)
(10.1664 -1.62959 -1.85054e-18)
(10.3874 -1.51902 -1.50017e-18)
(10.5667 -1.38825 -1.71663e-18)
(10.7129 -1.24735 0)
(10.8258 -1.10633 1.32859e-18)
(10.9136 -0.970316 2.22275e-18)
(10.977 -0.842549 -3.64083e-18)
(11.022 -0.725115 2.53448e-18)
(11.0521 -0.620736 -2.57118e-18)
(11.0721 -0.530699 0)
(11.0839 -0.449769 -1.45407e-18)
(11.0935 -0.377856 2.19223e-18)
(11.1064 -0.325938 -6.88022e-18)
(10.9123 0.25178 1.52935e-18)
(10.8929 0.288313 1.29798e-18)
(10.8796 0.335134 1.18966e-18)
(10.8681 0.384172 0)
(10.857 0.435439 -1.90808e-18)
(10.8456 0.490307 2.63074e-18)
(10.8325 0.548108 -8.27281e-20)
(10.8161 0.607257 -1.05356e-18)
(10.7951 0.666919 3.80319e-20)
(10.7688 0.726895 0)
(10.7379 0.78654 2.5273e-19)
(10.7041 0.845976 -1.70749e-19)
(10.6717 0.901506 0)
(10.6622 0.96924 -2.38658e-20)
(10.6823 1.03723 7.44677e-21)
(10.7343 1.12379 4.6171e-20)
(10.6531 1.15886 4.7894e-20)
(10.2224 1.00835 -2.56486e-19)
(8.92221 0.543589 0)
(6.85023 -0.440881 -2.12077e-18)
(6.44593 -1.09355 -4.40252e-20)
(7.54022 -1.28743 4.27563e-20)
(8.38839 -1.63217 -3.87954e-18)
(8.78819 -1.79124 -9.43182e-19)
(8.99774 -1.88233 3.39511e-19)
(9.31757 -1.94123 -7.66646e-20)
(9.6513 -1.94055 -6.78799e-19)
(9.98769 -1.88953 0)
(10.2766 -1.78847 1.1051e-18)
(10.5207 -1.64912 -1.22314e-18)
(10.7114 -1.49136 -2.99907e-18)
(10.8669 -1.3249 0)
(10.9815 -1.16265 -2.38362e-18)
(11.0711 -1.00885 0)
(11.1324 -0.865801 -8.22926e-20)
(11.1748 -0.736713 7.11972e-20)
(11.1999 -0.62185 1.3792e-18)
(11.2119 -0.522073 0)
(11.2136 -0.433548 1.4757e-18)
(11.2124 -0.358001 1.66549e-18)
(11.2151 -0.301887 -2.58746e-18)
(10.9888 0.286421 -1.43629e-18)
(10.968 0.322627 0)
(10.9529 0.367602 -1.21783e-18)
(10.9391 0.41504 -1.22205e-18)
(10.9243 0.464844 -2.122e-18)
(10.9081 0.518126 1.9932e-18)
(10.8897 0.574593 0)
(10.8682 0.633373 0)
(10.8424 0.693585 -5.90748e-19)
(10.8118 0.754629 1.09846e-18)
(10.7769 0.815328 -2.82248e-19)
(10.7389 0.874858 -1.06307e-19)
(10.7067 0.92925 9.42441e-20)
(10.7028 0.996591 -2.6806e-20)
(10.7225 1.0438 0)
(10.7435 1.12039 4.39699e-19)
(10.5756 1.07992 1.81814e-19)
(9.99019 0.818571 -4.56541e-19)
(8.50181 0.263485 1.37353e-18)
(6.3483 -0.725094 -3.01017e-18)
(6.30546 -1.32986 1.94481e-21)
(7.42259 -1.59978 -4.76568e-20)
(8.29721 -1.95579 2.05211e-18)
(8.78864 -2.11594 -1.6888e-19)
(9.02332 -2.17247 7.37531e-20)
(9.36838 -2.20286 2.41612e-19)
(9.72141 -2.16851 -2.38447e-19)
(10.0883 -2.08464 -2.02731e-18)
(10.4023 -1.95556 0)
(10.6735 -1.78567 2.27858e-18)
(10.8741 -1.60151 3.90138e-18)
(11.041 -1.4093 -4.46709e-18)
(11.1545 -1.22636 3.20013e-18)
(11.2459 -1.05602 -3.25599e-18)
(11.3042 -0.898711 0)
(11.3445 -0.760042 0)
(11.3654 -0.635836 -1.71922e-18)
(11.3726 -0.529171 -1.75413e-18)
(11.368 -0.434664 -1.79337e-18)
(11.3573 -0.354578 -1.68418e-18)
(11.3477 -0.292575 3.70132e-18)
(11.0705 0.315426 -1.59335e-18)
(11.0478 0.35376 1.49077e-18)
(11.0291 0.398888 0)
(11.0118 0.446651 1.16361e-18)
(10.9924 0.496627 1.06199e-18)
(10.9714 0.550184 -9.61813e-19)
(10.948 0.606491 0)
(10.922 0.666222 0)
(10.8921 0.72722 -6.43732e-19)
(10.8565 0.788917 3.59629e-19)
(10.8175 0.849623 0)
(10.7745 0.907172 -1.20807e-19)
(10.746 0.959765 2.02235e-19)
(10.7472 1.02271 -1.5447e-21)
(10.7581 1.0456 0)
(10.7429 1.10139 -2.99417e-19)
(10.4414 0.986084 -3.51085e-19)
(9.68054 0.643237 1.44605e-18)
(7.99772 0.00635926 -1.77903e-18)
(5.81224 -0.951046 3.31693e-18)
(6.12151 -1.56051 0)
(7.28823 -1.93942 -3.1482e-18)
(8.19591 -2.29524 2.01996e-18)
(8.81185 -2.47762 -2.24065e-19)
(9.0849 -2.49781 1.23046e-19)
(9.45324 -2.49439 1.60515e-18)
(9.82168 -2.41879 -3.5608e-19)
(10.2142 -2.29458 2.07229e-18)
(10.5485 -2.13428 4.60517e-18)
(10.8508 -1.93146 1.28797e-19)
(11.0589 -1.72323 -1.57575e-18)
(11.2389 -1.50563 4.84371e-18)
(11.3486 -1.30471 -6.72799e-18)
(11.4414 -1.11923 5.0841e-18)
(11.4944 -0.95132 0)
(11.5333 -0.804662 -5.50995e-18)
(11.5505 -0.676294 5.4319e-18)
(11.5576 -0.566947 3.74672e-20)
(11.5516 -0.471533 5.63162e-18)
(11.5395 -0.3917 2.01827e-18)
(11.5253 -0.32866 4.01421e-18)
(11.1469 0.340944 -2.96091e-18)
(11.1253 0.384419 1.64523e-18)
(11.1053 0.430118 1.45657e-18)
(11.0843 0.480745 -1.35246e-18)
(11.0634 0.531315 0)
(11.0385 0.586738 1.14916e-18)
(11.0135 0.643396 0)
(10.9824 0.703856 9.34729e-19)
(10.9488 0.765359 0)
(10.9051 0.826212 0)
(10.8625 0.885906 4.47208e-19)
(10.8118 0.939371 -1.5432e-19)
(10.7917 0.987717 -3.31527e-19)
(10.7942 1.03669 3.10837e-20)
(10.7882 1.04297 5.36075e-20)
(10.7489 1.08297 1.12687e-19)
(10.2605 0.896906 5.56323e-19)
(9.28949 0.5345 8.01924e-19)
(7.37493 -0.208073 -2.09166e-18)
(5.18878 -1.14643 2.67e-19)
(5.85251 -1.80816 0)
(7.13546 -2.31592 3.21855e-18)
(8.09615 -2.6416 -1.73749e-18)
(8.8671 -2.87633 9.24721e-20)
(9.19021 -2.86039 1.64426e-20)
(9.58404 -2.82598 -3.88336e-18)
(9.96731 -2.70085 -1.75372e-19)
(10.3815 -2.52701 6.90015e-19)
(10.7256 -2.3328 -3.2284e-18)
(11.0606 -2.08812 -1.93256e-18)
(11.2691 -1.86217 1.93176e-18)
(11.4658 -1.61231 0)
(11.567 -1.40538 -2.41122e-18)
(11.6634 -1.19662 -2.06678e-18)
(11.7059 -1.03141 0)
(11.7447 -0.871155 -2.26749e-19)
(11.7561 -0.749394 -2.18456e-18)
(11.765 -0.635821 -4.16328e-18)
(11.7593 -0.548364 -2.19735e-18)
(11.7523 -0.470853 1.74383e-19)
(11.7397 -0.413749 2.24671e-18)
(11.2331 0.311092 -3.5521e-18)
(11.2108 0.375244 0)
(11.1983 0.431675 1.45101e-18)
(11.1707 0.491185 2.58116e-18)
(11.1495 0.553678 -3.97667e-18)
(11.1179 0.610272 1.15545e-18)
(11.0875 0.67725 -2.26137e-18)
(11.0494 0.733594 -9.14735e-19)
(11.0054 0.803553 7.98474e-19)
(10.954 0.859767 -7.94652e-19)
(10.9018 0.921799 0)
(10.8443 0.969373 0)
(10.8311 1.00792 0)
(10.8241 1.0372 0)
(10.7886 1.039 6.43239e-20)
(10.7348 1.05904 -8.02516e-20)
(9.94783 0.858687 -8.40058e-19)
(8.81274 0.570007 8.84939e-19)
(6.73649 -0.341892 4.17678e-18)
(4.59986 -1.3509 -1.60366e-19)
(5.57691 -2.07127 2.86547e-19)
(6.95449 -2.76485 3.05395e-18)
(7.94755 -3.01889 0)
(8.93668 -3.31518 2.72604e-19)
(9.31193 -3.27098 -5.94515e-19)
(9.77545 -3.21271 2.54197e-18)
(10.1505 -3.04101 0)
(10.6118 -2.79156 0)
(10.9232 -2.57686 -2.27422e-18)
(11.3082 -2.25391 -2.67604e-18)
(11.4885 -2.04034 0)
(11.7217 -1.72094 5.06938e-18)
(11.8008 -1.54545 4.5633e-18)
(11.9108 -1.27798 -5.00534e-18)
(11.9359 -1.14879 9.71146e-18)
(11.9762 -0.94728 -9.62193e-18)
(11.9791 -0.858089 6.95276e-18)
(11.9881 -0.719359 3.83787e-20)
(11.9816 -0.659498 9.3756e-18)
(11.9776 -0.56851 -6.82189e-18)
(11.967 -0.530245 2.47226e-18)
(11.9599 -0.477758 -2.38392e-18)
(11.7338 -0.373923 2.44372e-18)
(11.5218 -0.291452 -4.55859e-18)
(11.3515 -0.256996 -2.21565e-18)
(11.2287 -0.270596 -4.22744e-18)
(11.1266 -0.299252 3.92143e-18)
(11.0167 -0.313064 1.24408e-17)
(10.8918 -0.303239 -3.43174e-18)
(10.7609 -0.272553 -4.40689e-18)
(10.632 -0.228699 5.49501e-18)
(10.5094 -0.179128 2.22717e-18)
(10.3958 -0.131457 -2.72217e-19)
(10.2942 -0.0810189 -5.49956e-19)
(10.2037 -0.0456552 -1.58489e-18)
(10.12 0.0243567 4.74051e-19)
(9.95625 0.0426152 1.63399e-18)
(9.42005 0.227535 0)
(11.9559 -0.460598 0)
(11.7476 -0.352795 -5.2916e-18)
(11.5517 -0.266231 0)
(11.3908 -0.217365 0)
(11.2717 -0.217054 -2.4248e-18)
(11.1757 -0.241932 2.34805e-18)
(11.0824 -0.265037 -6.23934e-18)
(10.9801 -0.269085 2.06325e-18)
(10.8691 -0.25183 3.67543e-18)
(10.7541 -0.217305 -1.61125e-18)
(10.6395 -0.172232 -1.5853e-18)
(10.5293 -0.126121 3.97341e-18)
(10.4263 -0.0742188 1.07978e-18)
(10.3292 -0.0415571 -1.14797e-18)
(10.2243 0.031522 -1.92299e-18)
(10.0344 0.00631888 -1.29162e-18)
(9.40666 0.208524 -1.32946e-18)
(11.9527 -0.431541 0)
(11.7587 -0.337634 4.54916e-18)
(11.572 -0.249054 5.93219e-18)
(11.416 -0.191836 7.23662e-18)
(11.2974 -0.178701 1.1132e-17)
(11.2033 -0.195778 0)
(11.1196 -0.21926 0)
(11.0357 -0.230835 0)
(10.9455 -0.224801 -2.17824e-18)
(10.8481 -0.200984 2.00459e-18)
(10.7458 -0.163985 -1.46557e-19)
(10.6424 -0.121871 -1.65338e-18)
(10.5405 -0.0725972 1.64782e-18)
(10.4379 -0.041117 2.60597e-18)
(10.3148 0.0327715 2.23945e-18)
(10.0797 -0.00328131 2.35296e-18)
(9.38871 0.224933 3.51383e-18)
(11.9506 -0.422026 -1.72253e-18)
(11.7725 -0.331251 0)
(11.5948 -0.242912 -4.85237e-20)
(11.4409 -0.177687 -1.31264e-17)
(11.3189 -0.149519 -6.38962e-18)
(11.223 -0.155797 -6.18565e-18)
(11.1452 -0.17615 6.10759e-18)
(11.0777 -0.193095 2.77951e-18)
(11.0095 -0.196686 -2.77986e-18)
(10.934 -0.183515 -2.60756e-18)
(10.8489 -0.155879 0)
(10.7555 -0.118687 0)
(10.6555 -0.0732096 -1.9143e-18)
(10.545 -0.0408336 1.92525e-18)
(10.3995 0.0306099 0)
(10.1179 -0.00799869 -1.16384e-18)
(9.36973 0.226792 -2.29905e-18)
(11.9543 -0.405669 0)
(11.7897 -0.329447 1.84548e-18)
(11.6182 -0.245474 -9.40299e-18)
(11.4639 -0.173816 9.33316e-18)
(11.3368 -0.134218 1.87093e-18)
(11.2356 -0.125473 3.57149e-18)
(11.158 -0.137745 1.78471e-18)
(11.1009 -0.155522 -4.98356e-18)
(11.0529 -0.165753 6.40731e-18)
(11.0018 -0.162336 -3.26571e-18)
(10.9392 -0.144912 -2.96315e-18)
(10.8612 -0.114275 0)
(10.7663 -0.0744608 0)
(10.6473 -0.0407618 -1.10572e-18)
(10.4765 0.0278928 -2.1463e-18)
(10.1485 -0.00891446 -8.46407e-19)
(9.34228 0.225068 0)
(11.961 -0.39915 5.65331e-20)
(11.8101 -0.331149 2.09534e-18)
(11.6443 -0.253887 2.08403e-18)
(11.4885 -0.179637 -2.072e-18)
(11.355 -0.128795 4.12286e-18)
(11.2461 -0.106597 -4.07788e-18)
(11.1638 -0.107653 -3.931e-18)
(11.1097 -0.121442 3.90357e-18)
(11.0764 -0.134909 0)
(11.0487 -0.139181 3.507e-18)
(11.0123 -0.131119 6.85208e-18)
(10.9554 -0.108147 1.59237e-18)
(10.8715 -0.0760386 -4.75807e-18)
(10.7472 -0.0413764 -3.00897e-18)
(10.5491 0.0229585 -2.80834e-18)
(10.1748 -0.0082497 0)
(9.30393 0.217621 -2.40486e-18)
(11.9732 -0.386747 4.48983e-18)
(11.8351 -0.334232 0)
(11.6757 -0.266443 -5.75697e-18)
(11.5187 -0.193715 5.69633e-18)
(11.3777 -0.134302 -1.02096e-17)
(11.2595 -0.0998168 5.64172e-18)
(11.1682 -0.0880271 4.47981e-18)
(11.1097 -0.0935718 -4.3192e-18)
(11.0829 -0.106309 -4.31523e-18)
(11.0724 -0.115533 -4.20352e-18)
(11.0609 -0.115001 -3.91271e-18)
(11.0301 -0.10055 3.93867e-18)
(10.9662 -0.0774755 3.49421e-18)
(10.8455 -0.0433538 -1.9434e-19)
(10.6215 0.0153019 3.20158e-18)
(10.1995 -0.00730961 0)
(9.25452 0.205985 -2.54116e-19)
(11.9872 -0.378561 -9.93263e-18)
(11.8638 -0.33752 1.24026e-18)
(11.7146 -0.280445 -1.2496e-18)
(11.5588 -0.213367 -4.97266e-18)
(11.4108 -0.150131 4.95262e-18)
(11.2813 -0.103716 -4.91895e-18)
(11.1778 -0.0799646 -4.89128e-18)
(11.1084 -0.0739534 3.68531e-18)
(11.08 -0.08119 -7.42137e-20)
(11.0758 -0.0922823 1.05012e-18)
(11.0799 -0.0974979 0)
(11.0761 -0.0916437 -3.24943e-18)
(11.0412 -0.0779197 2.06231e-18)
(10.9394 -0.0468674 2.07175e-18)
(10.6962 0.00401452 2.95233e-20)
(10.2258 -0.00899134 9.67751e-19)
(9.20134 0.191298 3.44857e-18)
(12.0045 -0.356862 6.0909e-18)
(11.8956 -0.336761 -3.94923e-18)
(11.7608 -0.29258 -5.56369e-21)
(11.6116 -0.235401 -6.66195e-19)
(11.4602 -0.173323 0)
(11.3193 -0.119708 4.64646e-18)
(11.2002 -0.0819842 6.64858e-19)
(11.1145 -0.064583 -5.26087e-18)
(11.0749 -0.0613724 2.56623e-18)
(11.0688 -0.0697194 5.75157e-18)
(11.0815 -0.0780682 -6.4334e-19)
(11.0898 -0.078875 0)
(11.082 -0.0754463 -2.48668e-18)
(11.0166 -0.0505516 -2.31728e-18)
(10.7747 -0.0105934 0)
(10.2589 -0.0154788 0)
(9.15426 0.170552 0)
(12.0198 -0.333508 -7.11016e-19)
(11.9286 -0.332075 8.27619e-19)
(11.8121 -0.300285 0)
(11.676 -0.255829 -5.56719e-18)
(11.5287 -0.200162 -1.74442e-19)
(11.381 -0.144862 2.62759e-19)
(11.2462 -0.0979328 -8.78066e-20)
(11.139 -0.065488 -2.96779e-18)
(11.0759 -0.0514751 3.1389e-18)
(11.0609 -0.049484 -1.75206e-19)
(11.0703 -0.0559391 0)
(11.0886 -0.0622439 3.37265e-19)
(11.0936 -0.0651641 2.96388e-18)
(11.065 -0.0512185 -1.41822e-20)
(10.8534 -0.0239846 -6.51633e-19)
(10.3045 -0.0212984 0)
(9.12767 0.140664 0)
(12.033 -0.296023 -7.43006e-19)
(11.9606 -0.314428 5.80186e-18)
(11.8648 -0.29981 1.83972e-19)
(11.7473 -0.269946 6.08532e-18)
(11.6128 -0.225183 -5.46872e-19)
(11.4683 -0.174151 -2.52844e-18)
(11.3246 -0.124068 3.62974e-19)
(11.197 -0.082238 2.91384e-18)
(11.1026 -0.0529482 -3.64663e-19)
(11.0589 -0.0390526 3.62143e-19)
(11.0564 -0.0355738 -3.6391e-19)
(11.0715 -0.0416044 0)
(11.0918 -0.0493076 -2.21491e-20)
(11.0842 -0.044726 2.22044e-20)
(10.9211 -0.0317416 0)
(10.3663 -0.024264 2.70767e-18)
(9.13428 0.106943 8.53031e-20)
(12.0412 -0.254427 2.42925e-20)
(11.9876 -0.285893 1.67656e-19)
(11.9136 -0.286796 -5.68736e-19)
(11.8188 -0.273159 3.76196e-19)
(11.7044 -0.242409 7.48085e-19)
(11.574 -0.201688 5.95397e-18)
(11.4342 -0.15456 -1.6e-21)
(11.2964 -0.108685 -2.95093e-18)
(11.1766 -0.070093 -7.4252e-19)
(11.0913 -0.0429377 -7.38538e-19)
(11.0531 -0.0282564 3.18042e-21)
(11.051 -0.0234104 7.38192e-19)
(11.0626 -0.0262524 3.3017e-18)
(11.0691 -0.030066 -3.65752e-19)
(10.9643 -0.0336296 0)
(10.4437 -0.0257984 -5.75543e-18)
(9.17205 0.0727182 -2.82828e-18)
(12.0428 -0.197451 0)
(12.0057 -0.24228 0)
(11.9531 -0.257495 0)
(11.883 -0.261925 0)
(11.7936 -0.246107 2.97184e-18)
(11.6857 -0.219425 -3.02896e-18)
(11.5625 -0.182194 2.94383e-18)
(11.4301 -0.139635 2.99073e-18)
(11.2993 -0.0968694 -2.93174e-18)
(11.1848 -0.059823 2.92826e-18)
(11.1017 -0.033623 2.92487e-18)
(11.056 -0.0190412 0)
(11.0352 -0.0123419 -2.91567e-18)
(11.015 -0.0118672 -2.90047e-18)
(10.9659 -0.0208978 3.59908e-19)
(10.5236 -0.0205779 -2.13648e-19)
(9.22876 0.0388063 1.20247e-18)
(12.036 -0.137455 0)
(12.0124 -0.18765 3.05676e-18)
(11.9786 -0.212182 3.00702e-18)
(11.9318 -0.229495 -1.44263e-18)
(11.8689 -0.231469 -6.02758e-18)
(11.7887 -0.219971 4.37144e-18)
(11.6913 -0.1969 -4.4367e-18)
(11.5789 -0.16463 -5.54506e-21)
(11.4566 -0.126332 6.96339e-20)
(11.333 -0.0868472 -1.46293e-18)
(11.2196 -0.0517978 -5.70702e-18)
(11.1265 -0.0252818 0)
(11.0562 -0.00950978 0)
(10.9958 -0.00464795 2.81745e-18)
(10.903 -0.00797605 -1.39119e-18)
(10.5732 -0.00958603 2.42166e-18)
(9.29857 0.0049914 3.11335e-18)
(12.0199 -0.062965 -7.9554e-19)
(12.0062 -0.119299 -2.43963e-18)
(11.9868 -0.151613 -7.29343e-20)
(11.9594 -0.17919 1.50218e-18)
(11.9206 -0.194051 3.51093e-20)
(11.8684 -0.198656 -2.91317e-18)
(11.8011 -0.191273 -1.37027e-18)
(11.718 -0.17332 2.79219e-18)
(11.6198 -0.146666 5.43293e-20)
(11.509 -0.113583 2.73994e-18)
(11.3902 -0.078278 1.40404e-18)
(11.2695 -0.0450905 -1.34273e-18)
(11.1519 -0.0190946 0)
(11.0325 -0.00431529 1.33022e-18)
(10.8748 0.000262919 9.65076e-21)
(10.55 -0.00854509 0)
(9.37773 -0.0237367 -1.3063e-18)
(11.9955 0.00891652 -1.56217e-18)
(11.9879 -0.0464582 1.40939e-18)
(11.9773 -0.0805684 -2.85679e-18)
(11.9634 -0.113335 -1.45994e-18)
(11.943 -0.137157 2.78343e-18)
(11.9144 -0.153461 -2.70112e-18)
(11.8751 -0.160522 5.25503e-18)
(11.8235 -0.158488 -3.85634e-18)
(11.7577 -0.146385 1.31227e-18)
(11.6761 -0.126226 -2.53228e-18)
(11.5767 -0.0995927 2.48127e-18)
(11.4574 -0.068266 -2.47767e-18)
(11.3152 -0.0390209 2.43344e-18)
(11.1435 -0.0169649 -1.21695e-18)
(10.9109 -0.00111341 1.15502e-18)
(10.491 -0.0124262 2.34134e-18)
(9.45342 -0.0353008 1.15723e-18)
(11.9624 0.0905627 0)
(11.9573 0.0355763 -1.46692e-18)
(11.9511 -0.000244578 9.92245e-20)
(11.9447 -0.0361113 1.26196e-18)
(11.9365 -0.0654691 0)
(11.9241 -0.0897294 -1.18058e-18)
(11.9049 -0.107192 2.31269e-18)
(11.8799 -0.117596 -1.11749e-18)
(11.8443 -0.120229 2.28732e-18)
(11.7971 -0.115797 -1.07341e-18)