/*--------------------------------*- C++ -*----------------------------------*\
  =========                 |
  \\      /  F ield         | OpenFOAM: The Open Source CFD Toolbox
   \\    /   O peration     | Website:  https://openfoam.org
    \\  /    A nd           | Version:  6
     \\/     M anipulation  |
\*---------------------------------------------------------------------------*/
FoamFile
{
    version     2.0;
    format      ascii;
    class       volScalarField;
    location    "1.99";
    object      p;
}
// * * * * * * * * * * * * * * * * * * * * * * * * * * * * * * * * * * * * * //

dimensions      [1 -1 -2 0 0 0 0];

internalField   nonuniform List<scalar> 
5625
(
1
1
1
1
1
1
1
1
1
1
1
1
1
1
1
1
1
1
1
1
1
1
1
1
1
1
1
1
1
1
1
1
1
1
1
1
1
1
1
1
1
1
1
1
1
1
1
1
1
1
1
1
1
1
1
1
1
1
1
1
1
1
1
1
1
1
1
1
1
1
1
1
1
1
1
1
1
1
1
1
1
1
1
1
1
1
1
1
1
1
1
1
1
1
1
1
1
1
1
1
1
1
1
1
1
1
1
1
1
1
1
1
1
1
1
1
1
1
1
1
1
1
1
1
1
1
1
1
1
1
1
1
1
1
1
1
1
1
1
1
1
1
1
1
1
1
1
1
1
1
1
1
1
1
1
1
1
1
1
1
1
1
1
1
1
1
1
1
1
1
1
1
1
1
1
1
1
1
1
1
1
1
1
1
1
1
1
1
1
1
1
1
1
1
1
1
1
1
1
1
1
1
1
1
1
1
1
1
1
1
1
1
1
1
1
1
1
1
1
1
1
1
1
1
1
1
0.999999
0.999999
0.999999
1
0.999999
0.999999
0.999999
1
1
1
1
1
1
1
1
1
1
1
1
1
1
1
1
1
1
1
1
1
1
1
1
1
1
1
1
1
1
1
1
1
1
1
1
1
1
1
1
1
1
1
1
1
1
1
1
1
1
1
1
1
1
1
1
1
1
1
1
1
1
1
1
1
1
1
1
1
0.999999
0.999999
0.999999
0.999999
0.999999
0.999999
1
0.999999
1
1
1
1
1
1
1
1
1
1
1
1
1
1
1
1
1
1
1
1
1
1
1
1
1
1
1
1
1
1
1
1
1
1
1
1
1
1
1
1
1
1
1
1
1
1
1
1
1
1
1
1
1
1
1
1
1
1
1
1
1
1
1
1
1
0.999999
0.999999
0.999999
0.999999
0.999999
0.999999
0.999999
0.999999
0.999999
0.999999
1
1
1
1
1
1
1
1
1
1
1
1
1
1
1
1
1
1
1
1
1
1
1
1
1
1
1
1
1
1
1
1
1
1
1
1
1
1
1
1
1
1
1
1
1
1
1
1
1
1
1
1
1
1
1
1
1
1
1
1
1
1
1
1
1
0.999999
0.999999
0.999999
0.999999
0.999999
0.999999
0.999999
0.999999
0.999999
0.999999
0.999999
1
1
1
1
1
1
1
1
1
1
1
1
1
1
1
1
1
1
1
1
1
1
1
1
1
1
1
1
1
1
1
1
1
1
1
1
1
1
1
1
1
1
1
1
1
1
1
1
1
1
1
1
1
1
1
1
1
1
1
1
1
1
1
1
0.999999
0.999998
0.999998
0.999998
0.999998
0.999998
0.999998
0.999998
0.999998
0.999999
0.999999
0.999999
1
1
1
1
1
1
1
1
1
1
1
1
1
1
1
1
1
1
1
1
1
1
1
1
1
1
1
1
1
1
1
1
1
1
1
1
1
1
1
1
1
1
1
1
1
1
1
1
1
1
1
1
1
1
1
1
1
1
1
1
1
1
1
0.999998
0.999998
0.999997
0.999997
0.999997
0.999997
0.999997
0.999998
0.999998
0.999998
0.999999
0.999999
1
1
1
1
1
1
1
1
1
1
1
1
1
1
1
1
1
1
1
1
1
1
1
1
1
1
1
1
1
1
1
1
1
1
1
1
1
1
1
1
1
1
1
1
1
1
1
1
1
1
1
1
1
1
1
1
1
1
1
1
1
1
1
0.999997
0.999997
0.999996
0.999996
0.999996
0.999996
0.999996
0.999997
0.999997
0.999998
0.999998
0.999999
1
1
1
1
1
1
1
1
1
1
1
1
1
1
1
1
1
1
1
1
1
1
1
1
1
1
1
1
1
1
1
1
1
1
1
1
1
1
1
1
1
1
1
1
1
1
1
1
1
1
1
1
1
1
1
1
1
1
1
1
1
1
1
0.999996
0.999995
0.999995
0.999995
0.999995
0.999995
0.999995
0.999995
0.999996
0.999997
0.999997
0.999998
0.999999
1
1
1
1
1
1
1.00001
1.00001
1.00001
1.00001
1.00001
1
1
1
1
1
1
1
1
1
1
1
1
1
1
1
1
1
1
1
1
1
1
1
1
1
1
1
1
1
1
1
1
1
1
1
1
1
1
1
1
1
1
1
1
1
1
1
1
1
1
1
0.999994
0.999994
0.999993
0.999993
0.999993
0.999993
0.999993
0.999994
0.999994
0.999995
0.999997
0.999998
0.999999
1
1
1
1
1.00001
1.00001
1.00001
1.00001
1.00001
1.00001
1.00001
1.00001
1.00001
1.00001
1
1
1
1
1
1
1
1
1
1
1
1
1
1
1
1
1
1
1
1
1
1
1
1
1
1
1
1
1
1
1
1
1
1
1
1
1
1
1
1
1
1
1
1
1
1
1
1
0.999992
0.999991
0.999991
0.99999
0.99999
0.99999
0.999991
0.999991
0.999992
0.999994
0.999996
0.999997
0.999999
1
1
1
1.00001
1.00001
1.00001
1.00001
1.00001
1.00001
1.00001
1.00001
1.00001
1.00001
1.00001
1.00001
1.00001
1
1
1
1
1
1
1
1
1
1
1
1
1
1
1
1
1
1
1
1
1
1
1
1
1
1
1
1
1
1
1
1
1
1
1
1
1
1
1
1
1
1
1
1
1
1
0.999989
0.999988
0.999987
0.999987
0.999987
0.999987
0.999988
0.999988
0.99999
0.999992
0.999994
0.999996
0.999999
1
1
1.00001
1.00001
1.00001
1.00001
1.00001
1.00001
1.00001
1.00001
1.00001
1.00001
1.00001
1.00001
1.00001
1.00001
1.00001
1.00001
1
1
1
1
1
1
1
1
1
1
1
1
1
1
1
1
1
1
1
1
1
1
1
1
1
1
1
1
1
1
1
1
1
1
1
1
1
1
1
1
1
1
1
1
0.999986
0.999985
0.999984
0.999983
0.999982
0.999983
0.999984
0.999985
0.999987
0.999989
0.999993
0.999996
0.999999
1
1.00001
1.00001
1.00001
1.00001
1.00002
1.00002
1.00002
1.00002
1.00002
1.00002
1.00002
1.00001
1.00001
1.00001
1.00001
1.00001
1.00001
1.00001
1
1
1
1
1
1
1
1
1
1
1
1
1
1
1
1
1
1
1
1
1
1
1
1
1
1
1
1
1
1
1
1
1
1
1
1
1
1
1
1
1
1
1
0.999982
0.99998
0.999978
0.999978
0.999977
0.999977
0.999979
0.999981
0.999983
0.999987
0.999991
0.999995
1
1
1.00001
1.00001
1.00002
1.00002
1.00002
1.00002
1.00003
1.00003
1.00002
1.00002
1.00002
1.00002
1.00002
1.00002
1.00001
1.00001
1.00001
1.00001
1.00001
1
1
1
1
1
1
1
1
1
1
1
1
1
1
1
1
1
1
1
1
1
1
1
1
1
1
1
1
1
1
1
1
1
1
1
1
1
1
1
1
1
1
0.999977
0.999974
0.999972
0.999972
0.999971
0.999972
0.999973
0.999976
0.99998
0.999984
0.99999
0.999996
1
1.00001
1.00001
1.00002
1.00002
1.00003
1.00003
1.00003
1.00003
1.00003
1.00003
1.00003
1.00003
1.00003
1.00002
1.00002
1.00002
1.00001
1.00001
1.00001
1.00001
1.00001
1
1
1
1
1
1
1
1
1
1
1
1
1
1
1
1
1
1
1
1
1
1
1
1
1
1
1
1
1
1
1
1
1
1
1
1
1
1
1
1
1
0.99997
0.999967
0.999965
0.999964
0.999964
0.999965
0.999968
0.999971
0.999976
0.999982
0.999989
0.999997
1
1.00001
1.00002
1.00003
1.00003
1.00004
1.00004
1.00004
1.00004
1.00004
1.00004
1.00004
1.00004
1.00003
1.00003
1.00003
1.00002
1.00002
1.00001
1.00001
1.00001
1.00001
1.00001
1
1
1
1
1
1
1
1
1
1
1
1
1
1
1
1
1
1
1
1
1
1
1
1
1
1
1
1
1
1
1
1
1
1
1
1
1
1
1
1
0.999962
0.999959
0.999957
0.999956
0.999956
0.999958
0.999961
0.999967
0.999974
0.999981
0.99999
1
1.00001
1.00002
1.00003
1.00004
1.00005
1.00005
1.00006
1.00006
1.00006
1.00006
1.00006
1.00005
1.00005
1.00004
1.00004
1.00003
1.00003
1.00002
1.00002
1.00002
1.00001
1.00001
1.00001
1
1
1
1
1
1
1
1
1
1
1
1
1
1
1
1
1
1
1
1
1
1
1
1
1
1
1
1
1
1
1
1
1
1
1
1
1
1
1
1
0.999954
0.999951
0.999948
0.999948
0.999949
0.999952
0.999957
0.999964
0.999974
0.999984
0.999996
1.00001
1.00002
1.00003
1.00004
1.00005
1.00006
1.00007
1.00008
1.00008
1.00008
1.00008
1.00007
1.00007
1.00006
1.00006
1.00005
1.00004
1.00004
1.00003
1.00002
1.00002
1.00001
1.00001
1.00001
1.00001
1
1
1
1
1
1
1
1
1
1
1
1
1
1
1
1
1
1
1
1
1
1
1
1
1
1
1
1
1
1
1
1
1
1
1
1
1
1
1
0.999946
0.999942
0.999939
0.99994
0.999942
0.999948
0.999955
0.999965
0.999978
0.999992
1.00001
1.00002
1.00004
1.00005
1.00007
1.00008
1.00009
1.0001
1.0001
1.00011
1.0001
1.0001
1.0001
1.00009
1.00008
1.00007
1.00006
1.00006
1.00005
1.00004
1.00003
1.00002
1.00002
1.00001
1.00001
1.00001
1
1
1
1
1
1
1
1
1
1
1
1
1
1
1
1
1
1
1
1
1
1
1
1
1
1
1
1
1
1
1
1
1
1
1
1
1
1
1
0.999937
0.999934
0.999932
0.999934
0.999939
0.999947
0.999959
0.999974
0.99999
1.00001
1.00003
1.00005
1.00007
1.00009
1.00011
1.00012
1.00013
1.00014
1.00014
1.00014
1.00014
1.00014
1.00013
1.00012
1.00011
1.0001
1.00008
1.00007
1.00006
1.00005
1.00004
1.00003
1.00002
1.00002
1.00001
1.00001
1.00001
1
1
1
1
1
0.999999
0.999999
0.999999
0.999999
1
1
1
1
1
1
1
1
1
1
1
1
1
1
1
1
1
1
1
1
1
1
1
1
1
1
1
1
1
0.99993
0.999928
0.999929
0.999934
0.999943
0.999956
0.999973
0.999994
1.00002
1.00004
1.00007
1.0001
1.00012
1.00014
1.00016
1.00018
1.00019
1.0002
1.0002
1.0002
1.00019
1.00018
1.00017
1.00015
1.00014
1.00012
1.00011
1.00009
1.00008
1.00006
1.00005
1.00004
1.00003
1.00002
1.00001
1.00001
1.00001
1
1
1
1
0.999999
0.999999
0.999999
0.999999
0.999999
0.999999
1
1
1
1
1
1
1
1
1
1
1
1
1
1
1
1
1
1
1
1
1
1
1
1
1
1
1
1
0.999926
0.999927
0.999932
0.999943
0.999958
0.999979
1
1.00003
1.00007
1.0001
1.00014
1.00017
1.0002
1.00023
1.00025
1.00027
1.00028
1.00028
1.00028
1.00027
1.00026
1.00024
1.00023
1.0002
1.00018
1.00016
1.00014
1.00012
1.0001
1.00008
1.00006
1.00005
1.00004
1.00003
1.00002
1.00001
1.00001
1
1
1
0.999999
0.999999
0.999999
0.999999
0.999999
0.999999
0.999999
0.999999
1
1
1
1
1
1
1
1
1
1
1
1
1
1
1
1
1
1
1
1
1
1
1
1
1
1
1
0.99993
0.999936
0.999948
0.999966
0.999992
1.00002
1.00006
1.0001
1.00015
1.0002
1.00024
1.00029
1.00033
1.00036
1.00038
1.0004
1.00041
1.00041
1.0004
1.00038
1.00036
1.00033
1.0003
1.00027
1.00024
1.00021
1.00018
1.00015
1.00012
1.0001
1.00008
1.00006
1.00004
1.00003
1.00002
1.00001
1.00001
1
1
1
0.999999
0.999998
0.999998
0.999998
0.999998
0.999999
0.999999
0.999999
0.999999
0.999999
1
1
1
1
1
1
1
1
1
1
1
1
1
1
1
1
1
1
1
1
1
1
1
1
1
0.999944
0.999959
0.999982
1.00001
1.00006
1.00011
1.00016
1.00022
1.00029
1.00035
1.00041
1.00047
1.00052
1.00055
1.00058
1.00059
1.0006
1.00059
1.00057
1.00054
1.0005
1.00046
1.00041
1.00036
1.00032
1.00027
1.00023
1.00019
1.00015
1.00012
1.00009
1.00007
1.00005
1.00004
1.00002
1.00002
1.00001
1
1
0.999998
0.999997
0.999997
0.999997
0.999997
0.999998
0.999998
0.999998
0.999999
0.999999
0.999999
1
1
1
1
1
1
1
1
1
1
1
1
1
1
1
1
1
1
1
1
1
1
1
1
1
0.999977
1.00001
1.00005
1.0001
1.00017
1.00024
1.00032
1.00041
1.0005
1.00059
1.00067
1.00074
1.0008
1.00084
1.00087
1.00088
1.00087
1.00085
1.00081
1.00076
1.0007
1.00063
1.00056
1.00049
1.00043
1.00036
1.0003
1.00025
1.0002
1.00016
1.00012
1.00009
1.00006
1.00004
1.00003
1.00002
1.00001
1
0.999999
0.999997
0.999996
0.999995
0.999995
0.999996
0.999997
0.999997
0.999998
0.999998
0.999999
0.999999
0.999999
1
1
1
1
1
1
1
1
1
1
1
1
1
1
1
1
1
1
1
1
1
1
1
1
1.00004
1.00009
1.00016
1.00024
1.00034
1.00045
1.00057
1.0007
1.00082
1.00094
1.00105
1.00114
1.00122
1.00127
1.00129
1.00129
1.00127
1.00122
1.00115
1.00107
1.00098
1.00088
1.00078
1.00067
1.00058
1.00048
1.0004
1.00032
1.00026
1.0002
1.00015
1.00011
1.00008
1.00005
1.00003
1.00002
1.00001
1
0.999998
0.999995
0.999994
0.999993
0.999994
0.999994
0.999995
0.999996
0.999997
0.999998
0.999998
0.999999
0.999999
0.999999
1
1
1
1
1
1
1
1
1
1
1
1
1
1
1
1
1
1
1
1
1
1
1
1.00014
1.00023
1.00033
1.00046
1.00061
1.00077
1.00094
1.00112
1.00129
1.00146
1.0016
1.00172
1.00181
1.00187
1.00189
1.00188
1.00183
1.00175
1.00164
1.00151
1.00137
1.00122
1.00107
1.00092
1.00078
1.00065
1.00053
1.00043
1.00034
1.00026
1.00019
1.00014
1.0001
1.00007
1.00004
1.00002
1.00001
1
0.999996
0.999993
0.999992
0.999991
0.999992
0.999993
0.999994
0.999995
0.999996
0.999997
0.999998
0.999998
0.999999
0.999999
0.999999
1
1
1
1
1
1
1
1
1
1
1
1
1
1
1
1
1
1
1
1
1
1
1.0003
1.00044
1.0006
1.00079
1.001
1.00124
1.00148
1.00173
1.00197
1.00219
1.00238
1.00254
1.00265
1.00272
1.00273
1.00269
1.00261
1.00248
1.00232
1.00213
1.00192
1.0017
1.00148
1.00127
1.00107
1.00088
1.00072
1.00057
1.00044
1.00034
1.00025
1.00018
1.00013
1.00008
1.00005
1.00003
1.00001
1
0.999993
0.99999
0.999988
0.999988
0.999989
0.99999
0.999992
0.999993
0.999995
0.999996
0.999997
0.999998
0.999998
0.999999
0.999999
0.999999
1
1
1
1
1
1
1
1
1
1
1
1
1
1
1
1
1
1
1
1
1
1.00055
1.00075
1.00099
1.00127
1.00157
1.0019
1.00224
1.00258
1.00291
1.0032
1.00346
1.00366
1.0038
1.00388
1.00388
1.00381
1.00368
1.00349
1.00325
1.00298
1.00268
1.00236
1.00205
1.00175
1.00146
1.0012
1.00097
1.00076
1.00059
1.00045
1.00033
1.00023
1.00016
1.0001
1.00006
1.00003
1.00001
0.999998
0.99999
0.999985
0.999984
0.999984
0.999985
0.999987
0.999989
0.999991
0.999993
0.999995
0.999996
0.999997
0.999998
0.999999
0.999999
0.999999
1
1
1
1
1
1
1
1
1
1
1
1
1
1
1
1
1
1
1
1
1
1.0009
1.00119
1.00154
1.00194
1.00237
1.00283
1.0033
1.00376
1.00419
1.00459
1.00492
1.00518
1.00536
1.00544
1.00543
1.00532
1.00513
1.00485
1.00451
1.00412
1.0037
1.00326
1.00282
1.0024
1.002
1.00163
1.00131
1.00103
1.00079
1.0006
1.00044
1.00031
1.00021
1.00014
1.00008
1.00004
1.00001
0.999996
0.999986
0.99998
0.999979
0.999979
0.999981
0.999983
0.999986
0.999989
0.999991
0.999993
0.999995
0.999996
0.999997
0.999998
0.999999
0.999999
0.999999
1
1
1
1
1
1
1
1
1
1
1
1
1
1
1
1
1
1
1
1
1.0014
1.00182
1.00231
1.00286
1.00346
1.00408
1.00471
1.00533
1.0059
1.00642
1.00685
1.00718
1.0074
1.00749
1.00746
1.0073
1.00703
1.00665
1.00618
1.00564
1.00506
1.00446
1.00385
1.00327
1.00272
1.00222
1.00178
1.00139
1.00107
1.0008
1.00058
1.00041
1.00028
1.00018
1.0001
1.00005
1.00002
0.999995
0.999982
0.999975
0.999973
0.999973
0.999976
0.999979
0.999982
0.999986
0.999989
0.999991
0.999994
0.999995
0.999997
0.999998
0.999998
0.999999
0.999999
0.999999
1
1
1
1
1
1
1
1
1
1
1
1
1
1
1
1
1
1
1
1.00209
1.00268
1.00336
1.00411
1.00491
1.00574
1.00657
1.00738
1.00812
1.00878
1.00933
1.00975
1.01002
1.01013
1.01007
1.00985
1.00948
1.00897
1.00834
1.00763
1.00684
1.00603
1.00522
1.00443
1.00368
1.00301
1.0024
1.00188
1.00144
1.00107
1.00078
1.00055
1.00037
1.00024
1.00014
1.00007
1.00003
0.999996
0.999978
0.999969
0.999966
0.999967
0.99997
0.999973
0.999978
0.999982
0.999986
0.999989
0.999992
0.999994
0.999996
0.999997
0.999998
0.999999
0.999999
0.999999
1
1
1
1
1
1
1
1
1
1
1
1
1
1
1
1
1
1
1
1.00301
1.00383
1.00474
1.00574
1.0068
1.00789
1.00896
1.00999
1.01094
1.01177
1.01245
1.01296
1.01329
1.01341
1.01333
1.01304
1.01256
1.0119
1.01109
1.01015
1.00913
1.00806
1.00699
1.00594
1.00495
1.00404
1.00323
1.00253
1.00193
1.00144
1.00105
1.00074
1.0005
1.00032
1.00019
1.0001
1.00004
0.999998
0.999975
0.999963
0.999959
0.999959
0.999963
0.999967
0.999973
0.999978
0.999983
0.999987
0.99999
0.999993
0.999995
0.999996
0.999997
0.999998
0.999999
0.999999
0.999999
1
1
1
1
1
1
1
1
1
1
1
1
1
1
1
1
1
1
1.00424
1.00532
1.00653
1.00784
1.0092
1.01059
1.01194
1.01323
1.0144
1.01541
1.01624
1.01686
1.01725
1.01739
1.01728
1.01693
1.01633
1.0155
1.01448
1.0133
1.012
1.01063
1.00924
1.00787
1.00658
1.00538
1.00431
1.00338
1.00259
1.00193
1.00141
1.00099
1.00067
1.00043
1.00026
1.00014
1.00006
1
0.999973
0.999957
0.999951
0.999951
0.999955
0.99996
0.999966
0.999973
0.999979
0.999984
0.999988
0.999991
0.999993
0.999995
0.999997
0.999998
0.999998
0.999999
0.999999
1
1
1
1
1
1
1
1
1
1
1
1
1
1
1
1
1
1
1.00581
1.00723
1.00879
1.01046
1.01218
1.01389
1.01556
1.01711
1.01851
1.01971
1.02069
1.02141
1.02186
1.02203
1.0219
1.02147
1.02076
1.01978
1.01855
1.0171
1.0155
1.01379
1.01203
1.01029
1.00863
1.00709
1.0057
1.00448
1.00344
1.00257
1.00188
1.00133
1.0009
1.00059
1.00036
1.0002
1.00009
1.00002
0.999975
0.999952
0.999943
0.999942
0.999946
0.999952
0.999959
0.999967
0.999974
0.99998
0.999985
0.999989
0.999992
0.999994
0.999996
0.999997
0.999998
0.999999
0.999999
0.999999
1
1
1
1
1
1
1
1
1
1
1
1
1
1
1
1
1
1.00779
1.00961
1.01158
1.01365
1.01575
1.01782
1.01979
1.02161
1.02322
1.02459
1.02569
1.0265
1.027
1.02718
1.02704
1.02657
1.02578
1.02466
1.02324
1.02155
1.01964
1.01757
1.01542
1.01327
1.01118
1.00922
1.00744
1.00587
1.00452
1.0034
1.00249
1.00177
1.00121
1.0008
1.00049
1.00028
1.00013
1.00004
0.999981
0.999949
0.999935
0.999932
0.999936
0.999943
0.999952
0.999961
0.999969
0.999976
0.999982
0.999987
0.99999
0.999993
0.999995
0.999997
0.999998
0.999999
0.999999
0.999999
1
1
1
1
1
1
1
1
1
1
1
1
1
1
1
1
1
1.01024
1.0125
1.01492
1.01742
1.01991
1.02231
1.02456
1.02659
1.02835
1.02983
1.031
1.03185
1.03238
1.03258
1.03245
1.03197
1.03114
1.02995
1.02841
1.02653
1.02436
1.02195
1.01941
1.01681
1.01425
1.01183
1.0096
1.00761
1.00589
1.00445
1.00327
1.00234
1.00161
1.00107
1.00067
1.00039
1.0002
1.00007
0.999994
0.99995
0.999929
0.999923
0.999926
0.999934
0.999944
0.999954
0.999963
0.999972
0.999979
0.999984
0.999989
0.999992
0.999994
0.999996
0.999997
0.999998
0.999999
0.999999
1
1
1
1
1
1
1
1
1
1
1
1
1
1
1
1
1
1.01318
1.01593
1.01881
1.02172
1.02456
1.02724
1.02967
1.03181
1.03362
1.03509
1.03624
1.03706
1.03757
1.03777
1.03767
1.03725
1.03647
1.03532
1.03377
1.03182
1.02949
1.02683
1.02393
1.02091
1.01787
1.01493
1.0122
1.00973
1.00758
1.00576
1.00426
1.00306
1.00213
1.00142
1.00091
1.00054
1.00029
1.00012
1.00002
0.999956
0.999926
0.999915
0.999916
0.999924
0.999935
0.999946
0.999957
0.999967
0.999975
0.999981
0.999987
0.99999
0.999993
0.999996
0.999997
0.999998
0.999999
0.999999
0.999999
1
1
1
1
1
1
1
1
1
1
1
1
1
1
1
1
1.01662
1.01987
1.02319
1.02645
1.02954
1.03235
1.0348
1.03688
1.03856
1.03986
1.04084
1.04151
1.04194
1.04213
1.04209
1.0418
1.0412
1.04025
1.03889
1.03705
1.03474
1.03198
1.02886
1.02548
1.02199
1.01854
1.01527
1.01227
1.00962
1.00735
1.00547
1.00396
1.00277
1.00187
1.00121
1.00073
1.00041
1.00019
1.00005
0.999968
0.999926
0.999908
0.999907
0.999914
0.999925
0.999938
0.99995
0.999961
0.999971
0.999978
0.999984
0.999989
0.999992
0.999995
0.999996
0.999998
0.999998
0.999999
0.999999
1
1
1
1
1
1
1
1
1
1
1
1
1
1
1
1
1.02052
1.02424
1.02791
1.0314
1.03455
1.03727
1.03951
1.04127
1.04256
1.04347
1.04408
1.04447
1.04472
1.04487
1.04493
1.04487
1.04462
1.04408
1.04314
1.0417
1.03968
1.03707
1.03392
1.03035
1.02651
1.0226
1.01879
1.01523
1.01203
1.00927
1.00694
1.00506
1.00357
1.00244
1.00159
1.00099
1.00056
1.00028
1.0001
0.99999
0.999931
0.999905
0.999898
0.999904
0.999916
0.999929
0.999943
0.999956
0.999966
0.999975
0.999982
0.999987
0.999991
0.999994
0.999996
0.999997
0.999998
0.999999
0.999999
1
1
1
1
1
1
1
1
1
1
1
1
1
1
1
1
1.02482
1.02889
1.03276
1.03624
1.03919
1.04153
1.04322
1.04432
1.04492
1.04515
1.04516
1.04508
1.04505
1.04511
1.04531
1.0456
1.04588
1.04601
1.04581
1.0451
1.04374
1.04162
1.03876
1.03525
1.03125
1.02699
1.0227
1.01859
1.01483
1.01151
1.00869
1.00638
1.00455
1.00313
1.00207
1.0013
1.00076
1.0004
1.00017
1.00002
0.999944
0.999905
0.999893
0.999895
0.999906
0.999921
0.999936
0.999949
0.999962
0.999971
0.999979
0.999985
0.999989
0.999993
0.999995
0.999997
0.999998
0.999999
0.999999
0.999999
1
1
1
1
1
1
1
1
1
1
1
1
1
1
1
1.02935
1.03361
1.03742
1.04059
1.04297
1.04452
1.04527
1.04532
1.04486
1.04408
1.04323
1.0425
1.04205
1.04201
1.04239
1.04315
1.04417
1.04524
1.04612
1.04655
1.04626
1.04507
1.04291
1.03981
1.03594
1.03154
1.0269
1.0223
1.01797
1.01408
1.01073
1.00794
1.0057
1.00396
1.00265
1.00169
1.00102
1.00056
1.00026
1.00007
0.999964
0.99991
0.999889
0.999888
0.999898
0.999912
0.999928
0.999943
0.999956
0.999967
0.999976
0.999983
0.999988
0.999992
0.999995
0.999996
0.999998
0.999998
0.999999
0.999999
1
1
1
1
1
1
1
1
1
1
1
1
1
1
1
1.0339
1.03808
1.0415
1.04395
1.04533
1.04564
1.04498
1.04355
1.04162
1.03951
1.03752
1.03594
1.03498
1.03479
1.0354
1.03676
1.03872
1.04102
1.04334
1.04531
1.04657
1.0468
1.04583
1.0436
1.04023
1.03599
1.03121
1.02624
1.02141
1.01696
1.01305
1.00975
1.00706
1.00495
1.00335
1.00217
1.00133
1.00075
1.00037
1.00014
0.999995
0.999921
0.999889
0.999882
0.99989
0.999904
0.999921
0.999937
0.999952
0.999964
0.999973
0.999981
0.999987
0.999991
0.999994
0.999996
0.999997
0.999998
0.999999
0.999999
1
1
1
1
1
1
1
1
1
1
1
1
1
1
1
1.03821
1.04195
1.04455
1.04583
1.04571
1.04427
1.04172
1.03836
1.03458
1.0308
1.02742
1.0248
1.02322
1.02285
1.02375
1.02584
1.02895
1.03275
1.03685
1.04078
1.04405
1.04623
1.04697
1.04613
1.04374
1.04005
1.03542
1.03028
1.02506
1.0201
1.01563
1.01178
1.00862
1.0061
1.00417
1.00274
1.00171
1.001
1.00052
1.00022
1.00004
0.99994
0.999893
0.999879
0.999883
0.999897
0.999914
0.999931
0.999947
0.99996
0.99997
0.999979
0.999985
0.99999
0.999993
0.999995
0.999997
0.999998
0.999999
0.999999
1
1
1
1
1
1
1
1
1
1
1
1
1
1
1
1.04194
1.04483
1.04614
1.04573
1.04359
1.0399
1.03498
1.02925
1.02324
1.01748
1.01247
1.00865
1.00635
1.00579
1.00703
1.00999
1.01443
1.02
1.02621
1.0325
1.03824
1.04286
1.04586
1.04695
1.04607
1.04338
1.03927
1.03424
1.0288
1.02341
1.01842
1.01404
1.01037
1.00741
1.00512
1.0034
1.00216
1.00129
1.0007
1.00033
1.0001
0.999968
0.999904
0.99988
0.999879
0.999891
0.999908
0.999925
0.999942
0.999956
0.999968
0.999977
0.999984
0.999989
0.999992
0.999995
0.999997
0.999998
0.999999
0.999999
0.999999
1
1
1
1
1
1
1
1
1
1
1
1
1
1
1.04477
1.04635
1.04587
1.04325
1.03859
1.03215
1.0244
1.0159
1.00731
0.999263
0.992389
0.987205
0.984113
0.98335
0.984993
0.988942
0.99493
1.00253
1.01117
1.02017
1.0288
1.03633
1.04211
1.04568
1.04683
1.04564
1.04248
1.03789
1.03247
1.02682
1.02138
1.01648
1.01229
1.00887
1.00619
1.00416
1.00268
1.00163
1.00092
1.00046
1.00017
1.00001
0.999921
0.999885
0.999878
0.999886
0.999902
0.99992
0.999937
0.999952
0.999965
0.999975
0.999982
0.999988
0.999992
0.999995
0.999996
0.999998
0.999998
0.999999
0.999999
1
1
1
1
1
1
1
1
1
1
1
1
1
1
1.0464
1.04619
1.04343
1.03811
1.03043
1.0208
1.00979
0.998134
0.98661
0.976006
0.96705
0.960354
0.956379
0.9554
0.957506
0.962577
0.970305
0.98019
0.99157
1.00365
1.01557
1.02645
1.03548
1.04203
1.04573
1.04656
1.04481
1.04103
1.03593
1.03019
1.02442
1.01906
1.01437
1.01048
1.00738
1.00501
1.00327
1.00203
1.00118
1.00062
1.00026
1.00006
0.999946
0.999894
0.999879
0.999884
0.999898
0.999916
0.999934
0.999949
0.999962
0.999973
0.999981
0.999987
0.999991
0.999994
0.999996
0.999997
0.999998
0.999999
0.999999
1
1
1
1
1
1
1
1
1
1
1
1
1
1
1.04658
1.04412
1.03863
1.03016
1.01903
1.00576
0.9911
0.975912
0.961135
0.947702
0.936449
0.928089
0.923145
0.921931
0.924549
0.930866
0.940526
0.952954
0.967384
0.9829
0.998491
1.01313
1.02584
1.03584
1.04258
1.04591
1.04603
1.04347
1.03899
1.03341
1.02745
1.02171
1.01656
1.0122
1.00868
1.00596
1.00393
1.00248
1.00147
1.0008
1.00038
1.00012
0.999978
0.999909
0.999884
0.999884
0.999896
0.999913
0.99993
0.999946
0.99996
0.999971
0.999979
0.999986
0.99999
0.999994
0.999996
0.999997
0.999998
0.999999
0.999999
1
1
1
1
1
1
1
1
1
1
1
1
1
1
1.04515
1.04004
1.0314
1.01938
1.00439
0.987098
0.9684
0.949335
0.930997
0.914474
0.900724
0.890553
0.884552
0.883075
0.886243
0.893908
0.905675
0.920887
0.938667
0.95796
0.977596
0.996382
1.01319
1.02705
1.03729
1.04356
1.04598
1.04504
1.04153
1.03635
1.03039
1.02438
1.01883
1.01402
1.01008
1.00698
1.00466
1.00297
1.0018
1.00101
1.0005
1.0002
1.00002
0.99993
0.999893
0.999886
0.999895
0.99991
0.999928
0.999944
0.999958
0.99997
0.999978
0.999985
0.99999
0.999993
0.999996
0.999997
0.999998
0.999999
0.999999
1
1
1
1
1
1
1
1
1
1
1
1
1
1
1.04205
1.03394
1.0218
1.00586
0.986648
0.964974
0.94189
0.918626
0.896453
0.876613
0.860188
0.848081
0.840938
0.839166
0.842896
0.851989
0.866005
0.884212
0.905611
0.928994
0.953023
0.976328
0.997604
1.01572
1.02983
1.03945
1.04458
1.04563
1.04341
1.03892
1.03315
1.027
1.02112
1.0159
1.01154
1.00808
1.00544
1.00352
1.00216
1.00125
1.00065
1.00028
1.00007
0.999957
0.999906
0.999891
0.999896
0.99991
0.999927
0.999943
0.999957
0.999968
0.999977
0.999984
0.999989
0.999993
0.999995
0.999997
0.999998
0.999999
0.999999
1
1
1
1
1
1
1
1
1
1
1
1
1
1
1.03732
1.02591
1.00998
0.989817
0.966059
0.939672
0.911897
0.884163
0.857935
0.834608
0.815385
0.801246
0.792899
0.790792
0.795087
0.805647
0.822007
0.843364
0.868593
0.896327
0.925042
0.953181
0.979258
1.00197
1.02029
1.03361
1.04179
1.04519
1.04457
1.04102
1.03566
1.02951
1.02338
1.0178
1.01305
1.00922
1.00628
1.0041
1.00256
1.00151
1.00082
1.00039
1.00013
0.999991
0.999923
0.999899
0.999899
0.99991
0.999926
0.999942
0.999956
0.999967
0.999977
0.999984
0.999989
0.999993
0.999995
0.999997
0.999998
0.999999
0.999999
1
1
1
1
1
1
1
1
1
1
1
1
1
1
1.03109
1.01615
0.996179
0.971538
0.942964
0.911597
0.878893
0.846498
0.816082
0.789183
0.767113
0.750908
0.741328
0.738857
0.74369
0.755714
0.774451
0.799036
0.828225
0.860482
0.894094
0.927303
0.958433
0.986
1.00882
1.02613
1.03767
1.04369
1.04497
1.0426
1.03784
1.03184
1.02557
1.01969
1.01458
1.0104
1.00715
1.00472
1.00299
1.00179
1.001
1.0005
1.0002
1.00003
0.999946
0.999912
0.999905
0.999913
0.999927
0.999942
0.999956
0.999967
0.999976
0.999983
0.999989
0.999992
0.999995
0.999997
0.999998
0.999999
0.999999
1
1
1
1
1
1
1
1
1
1
1
1
1
1
1.02354
1.00491
0.980724
0.951403
0.91781
0.881279
0.843506
0.806374
0.77175
0.741306
0.716432
0.698204
0.687407
0.684553
0.689885
0.703322
0.724397
0.752192
0.78536
0.822199
0.860804
0.89921
0.935547
0.968147
0.995663
1.01718
1.0323
1.0412
1.0446
1.04364
1.03966
1.03396
1.02764
1.02153
1.0161
1.01159
1.00803
1.00536
1.00343
1.00209
1.00119
1.00062
1.00028
1.00008
0.999973
0.999927
0.999914
0.999918
0.999929
0.999943
0.999956
0.999967
0.999976
0.999983
0.999989
0.999992
0.999995
0.999997
0.999998
0.999999
0.999999
0.999999
1
1
1
1
1
1
1
1
1
1
1
1
1
1.01491
0.992504
0.963992
0.929875
0.891156
0.849385
0.806525
0.764711
0.725992
0.692155
0.664632
0.644503
0.632558
0.629329
0.635103
0.649856
0.673142
0.704026
0.741062
0.78241
0.825966
0.869565
0.911137
0.948833
0.981138
1.00699
1.02584
1.03779
1.04351
1.04414
1.0411
1.03582
1.02957
1.02329
1.01759
1.01277
1.00893
1.00601
1.00388
1.0024
1.0014
1.00075
1.00036
1.00013
1
0.999945
0.999925
0.999924
0.999933
0.999945
0.999957
0.999968
0.999977
0.999984
0.999989
0.999993
0.999995
0.999997
0.999998
0.999999
0.999999
0.999999
1
1
1
1
1
1
1
1
1
1
1
1
1
1.0055
0.979285
0.946427
0.907494
0.863652
0.816695
0.768874
0.722569
0.680008
0.643054
0.613142
0.59132
0.578351
0.574777
0.580932
0.596852
0.622144
0.655876
0.696544
0.742179
0.790504
0.839151
0.885854
0.928581
0.965654
0.995854
1.01852
1.03362
1.04177
1.04412
1.04216
1.03742
1.03133
1.02495
1.01901
1.01392
1.00981
1.00666
1.00434
1.00271
1.00161
1.00089
1.00045
1.00018
1.00004
0.999967
0.999938
0.999932
0.999938
0.999948
0.999959
0.999969
0.999978
0.999984
0.999989
0.999993
0.999995
0.999997
0.999998
0.999999
0.999999
0.999999
1
1
1
1
1
1
1
1
1
1
1
1
1
0.99563
0.965653
0.928518
0.884863
0.836032
0.784086
0.731563
0.681098
0.635067
0.595382
0.563432
0.540196
0.526377
0.522512
0.528975
0.545873
0.572884
0.609119
0.653055
0.702626
0.755399
0.808814
0.860412
0.90798
0.949679
0.984145
1.01058
1.02885
1.0395
1.04365
1.04285
1.03876
1.03289
1.02647
1.02036
1.01502
1.01066
1.00729
1.0048
1.00303
1.00183
1.00104
1.00054
1.00024
1.00008
0.999991
0.999953
0.999942
0.999944
0.999952
0.999962
0.999971
0.999979
0.999985
0.99999
0.999993
0.999995
0.999997
0.999998
0.999999
0.999999
1
1
1
1
1
1
1
1
1
1
1
1
1
1
0.985626
0.952026
0.910789
0.862627
0.809079
0.752471
0.695637
0.641453
0.592421
0.550464
0.51689
0.492563
0.478103
0.474016
0.480708
0.498355
0.52673
0.565035
0.611778
0.664833
0.721624
0.779412
0.83555
0.887651
0.933721
0.972256
1.00233
1.0237
1.03682
1.04281
1.04323
1.03983
1.03425
1.02786
1.0216
1.01605
1.01148
1.0079
1.00524
1.00334
1.00204
1.00118
1.00064
1.00031
1.00012
1.00002
0.999971
0.999953
0.999952
0.999957
0.999966
0.999974
0.999981
0.999986
0.99999
0.999993
0.999996
0.999997
0.999998
0.999999
0.999999
1
1
1
1
1
1
1
1
1
1
1
1
1
1
0.975829
0.93883
0.89377
0.841447
0.783579
0.722764
0.662113
0.604725
0.553214
0.509476
0.474709
0.449631
0.434749
0.430516
0.437346
0.455481
0.484821
0.524706
0.573733
0.629755
0.69007
0.751756
0.811988
0.868215
0.918298
0.960604
0.994088
1.0184
1.03391
1.04169
1.04333
1.04065
1.03541
1.02908
1.02273
1.01701
1.01223
1.00847
1.00566
1.00364
1.00224
1.00132
1.00073
1.00037
1.00016
1.00005
0.99999
0.999966
0.999961
0.999963
0.99997
0.999976
0.999982
0.999987
0.999991
0.999994
0.999996
0.999997
0.999998
0.999999
0.999999
1
1
1
1
1
1
1
1
1
1
1
1
1
1
0.96658
0.926486
0.877982
0.821956
0.760286
0.695818
0.631917
0.571881
0.518415
0.473375
0.437819
0.412306
0.397206
0.392895
0.399766
0.418124
0.448015
0.488972
0.539737
0.598185
0.6615
0.726572
0.790391
0.850256
0.903908
0.9496
0.986178
1.01318
1.03092
1.0404
1.04323
1.04127
1.03638
1.03014
1.02373
1.01786
1.01292
1.009
1.00605
1.00392
1.00244
1.00146
1.00082
1.00043
1.0002
1.00008
1.00001
0.999981
0.999971
0.99997
0.999974
0.999979
0.999984
0.999989
0.999992
0.999995
0.999996
0.999998
0.999998
0.999999
0.999999
1
1
1
1
1
1
1
1
1
1
1
1
1
1
0.958196
0.915386
0.863904
0.804731
0.739877
0.672384
0.605839
0.543713
0.488784
0.442857
0.406855
0.38117
0.366025
0.361688
0.36851
0.386848
0.416904
0.458443
0.510411
0.570744
0.636531
0.704464
0.771336
0.834308
0.891015
0.939631
0.978911
1.0083
1.02803
1.03906
1.04298
1.0417
1.03717
1.03104
1.02458
1.0186
1.01352
1.00947
1.00639
1.00417
1.00262
1.00158
1.00091
1.0005
1.00025
1.00011
1.00003
0.999996
0.999982
0.999978
0.99998
0.999983
0.999987
0.999991
0.999993
0.999996
0.999997
0.999998
0.999999
0.999999
0.999999
1
1
1
1
1
1
1
1
1
1
1
1
1
1
0.95097
0.90588
0.851951
0.790257
0.722911
0.653077
0.584513
0.520824
0.46486
0.418375
0.38218
0.35651
0.341439
0.337115
0.343821
0.361947
0.39185
0.433544
0.486216
0.547916
0.615653
0.68592
0.755303
0.820818
0.880026
0.931047
0.972573
1.00398
1.02541
1.03778
1.04266
1.042
1.03778
1.03177
1.0253
1.01923
1.01403
1.00987
1.0067
1.00439
1.00278
1.0017
1.00099
1.00056
1.00029
1.00014
1.00005
1.00001
0.999993
0.999986
0.999986
0.999988
0.99999
0.999993
0.999995
0.999996
0.999998
0.999998
0.999999
0.999999
1
1
1
1
1
1
1
1
1
1
1
1
1
1
1
0.945158
0.898265
0.842463
0.778914
0.709799
0.63834
0.568383
0.50363
0.446981
0.400172
0.363935
0.338381
0.323449
0.319156
0.325706
0.343498
0.373023
0.414535
0.467488
0.530072
0.599253
0.671329
0.74267
0.810153
0.871279
0.924145
0.967412
1.0004
1.0232
1.03666
1.04233
1.04218
1.03825
1.03234
1.02586
1.01973
1.01445
1.01019
1.00695
1.00458
1.00292
1.0018
1.00107
1.00061
1.00033
1.00017
1.00008
1.00003
1.00001
0.999995
0.999992
0.999992
0.999993
0.999995
0.999996
0.999997
0.999998
0.999999
0.999999
1
1
1
1
1
1
1
1
1
1
1
1
1
1
1
1
0.940972
0.892787
0.835694
0.770963
0.700803
0.628438
0.557708
0.492354
0.435314
0.388334
0.352112
0.326691
0.311901
0.307641
0.314024
0.331435
0.360463
0.401571
0.454466
0.517509
0.587643
0.660996
0.73373
0.802586
0.865028
0.919155
0.963628
0.997739
1.02152
1.03578
1.04205
1.04229
1.03857
1.03275
1.02627
1.0201
1.01476
1.01044
1.00714
1.00473
1.00303
1.00189
1.00113
1.00066
1.00037
1.0002
1.0001
1.00004
1.00002
1
0.999999
0.999997
0.999996
0.999997
0.999998
0.999998
0.999999
0.999999
1
1
1
1
1
1
1
1
1
1
1
1
1
1
1
1
1
0.938568
0.889623
0.831819
0.766549
0.696037
0.623451
0.552547
0.48704
0.429868
0.38282
0.346614
0.321281
0.306593
0.302355
0.308591
0.325647
0.354159
0.394748
0.447337
0.510459
0.581072
0.655158
0.728698
0.798314
0.861448
0.916234
0.961359
0.996104
1.02047
1.03522
1.04186
1.04235
1.03876
1.033
1.02653
1.02033
1.01495
1.0106
1.00727
1.00483
1.00312
1.00195
1.00119
1.0007
1.0004
1.00022
1.00012
1.00006
1.00003
1.00001
1.00001
1
1
1
1
1
1
1
1
1
1
1
1
1
1
1
1
1
1
1
1
1
1
1
1
0.938032
0.888897
0.83095
0.765731
0.695494
0.623313
0.552799
0.487559
0.430514
0.38349
0.347282
0.321977
0.30734
0.30312
0.30926
0.326047
0.354109
0.394148
0.446256
0.509116
0.57973
0.653985
0.727715
0.797452
0.860643
0.915474
0.960685
0.995568
1.0201
1.03502
1.04179
1.04237
1.03884
1.0331
1.02663
1.02042
1.01504
1.01068
1.00734
1.00489
1.00317
1.002
1.00123
1.00074
1.00043
1.00025
1.00014
1.00008
1.00004
1.00002
1.00001
1.00001
1
1
1
1
1
1
1
1
1
1
1
1
1
1
1
1
1
1
1
1
1
1
1
0.939384
0.890645
0.83314
0.76852
0.699095
0.627851
0.558224
0.493654
0.436994