/*--------------------------------*- C++ -*----------------------------------*\
  =========                 |
  \\      /  F ield         | OpenFOAM: The Open Source CFD Toolbox
   \\    /   O peration     | Website:  https://openfoam.org
    \\  /    A nd           | Version:  6
     \\/     M anipulation  |
\*---------------------------------------------------------------------------*/
FoamFile
{
    version     2.0;
    format      ascii;
    class       volScalarField;
    location    "3.6";
    object      mag(U);
}
// * * * * * * * * * * * * * * * * * * * * * * * * * * * * * * * * * * * * * //

dimensions      [0 1 -1 0 0 0 0];

internalField   nonuniform List<scalar> 
10000
(
0.99997
0.99997
0.99997
0.99997
0.99997
0.99997
0.99997
0.99997
0.99997
0.99997
0.99997
0.99997
0.99997
0.99997
0.99997
0.99997
0.99997
0.99997
0.99997
0.99997
0.99997
0.99997
0.99997
0.99997
0.99997
0.99997
0.99997
0.99997
0.99997
0.99997
0.99997
0.99997
0.99997
0.99997
0.99997
0.99997
0.99997
0.99997
0.99997
0.99997
0.99997
0.99997
0.99997
0.99997
0.999971
0.999971
0.999973
0.999975
0.999976
0.999977
0.999978
0.999979
0.999977
0.999974
0.999968
0.99996
0.999951
0.999941
0.999931
0.999922
0.999916
0.999915
0.999917
0.999925
0.999939
0.999957
0.999978
1
1.00002
1.00004
1.00006
1.00007
1.00008
1.00008
1.00008
1.00007
1.00006
1.00005
1.00003
1.00002
1.00001
0.999999
0.999991
0.999984
0.999979
0.999975
0.999973
0.999972
0.99997
0.99997
0.99997
0.99997
0.99997
0.99997
0.99997
0.99997
0.99997
0.99997
0.99997
0.99997
0.99997
0.99997
0.99997
0.99997
0.99997
0.99997
0.99997
0.99997
0.99997
0.99997
0.99997
0.99997
0.99997
0.99997
0.99997
0.99997
0.99997
0.99997
0.99997
0.99997
0.99997
0.99997
0.99997
0.99997
0.99997
0.99997
0.99997
0.99997
0.99997
0.99997
0.99997
0.99997
0.99997
0.99997
0.99997
0.99997
0.99997
0.99997
0.99997
0.99997
0.99997
0.99997
0.99997
0.99997
0.999971
0.999973
0.999975
0.999977
0.999979
0.999981
0.999983
0.999983
0.999981
0.999977
0.99997
0.999961
0.999949
0.999936
0.999924
0.999915
0.99991
0.999911
0.999919
0.999933
0.999954
0.99998
1.00001
1.00004
1.00007
1.00009
1.00011
1.00013
1.00013
1.00013
1.00013
1.00011
1.0001
1.00008
1.00006
1.00004
1.00003
1.00001
1
0.99999
0.999983
0.999978
0.999974
0.999971
0.99997
0.99997
0.999969
0.99997
0.99997
0.99997
0.99997
0.99997
0.99997
0.99997
0.99997
0.99997
0.99997
0.99997
0.99997
0.99997
0.99997
0.99997
0.99997
0.99997
0.99997
0.99997
0.99997
0.99997
0.99997
0.99997
0.99997
0.99997
0.99997
0.99997
0.99997
0.99997
0.99997
0.99997
0.99997
0.99997
0.99997
0.99997
0.99997
0.99997
0.99997
0.99997
0.99997
0.99997
0.99997
0.99997
0.99997
0.99997
0.99997
0.99997
0.99997
0.999969
0.999969
0.99997
0.99997
0.999971
0.999972
0.999974
0.999977
0.999979
0.999983
0.999987
0.999989
0.99999
0.999988
0.999983
0.999975
0.999962
0.999948
0.999934
0.999922
0.999914
0.999913
0.99992
0.999936
0.999961
0.999993
1.00003
1.00007
1.00011
1.00015
1.00018
1.0002
1.00022
1.00022
1.00021
1.0002
1.00018
1.00015
1.00013
1.0001
1.00007
1.00005
1.00003
1.00001
0.999997
0.999987
0.99998
0.999975
0.999972
0.999971
0.99997
0.999969
0.999969
0.999969
0.99997
0.99997
0.99997
0.99997
0.99997
0.99997
0.99997
0.99997
0.99997
0.99997
0.99997
0.99997
0.99997
0.99997
0.99997
0.99997
0.99997
0.99997
0.99997
0.99997
0.99997
0.99997
0.99997
0.99997
0.99997
0.99997
0.99997
0.99997
0.99997
0.99997
0.99997
0.99997
0.99997
0.99997
0.99997
0.99997
0.99997
0.99997
0.99997
0.99997
0.99997
0.99997
0.99997
0.99997
0.99997
0.999969
0.999969
0.99997
0.99997
0.99997
0.999971
0.999974
0.999976
0.999979
0.999984
0.999989
0.999994
0.999998
0.999998
0.999997
0.99999
0.999979
0.999966
0.99995
0.999937
0.999927
0.999924
0.999931
0.999949
0.99998
1.00002
1.00007
1.00013
1.00019
1.00024
1.00029
1.00033
1.00035
1.00036
1.00035
1.00034
1.00031
1.00027
1.00023
1.00019
1.00015
1.00011
1.00008
1.00005
1.00003
1.00001
0.999993
0.999983
0.999977
0.999973
0.99997
0.99997
0.999969
0.999969
0.999969
0.999969
0.99997
0.99997
0.99997
0.99997
0.99997
0.99997
0.99997
0.99997
0.99997
0.99997
0.99997
0.99997
0.99997
0.99997
0.99997
0.99997
0.99997
0.99997
0.99997
0.99997
0.99997
0.99997
0.99997
0.99997
0.99997
0.99997
0.99997
0.99997
0.99997
0.99997
0.99997
0.99997
0.99997
0.99997
0.99997
0.99997
0.99997
0.99997
0.99997
0.99997
0.99997
0.99997
0.99997
0.999969
0.999969
0.99997
0.999969
0.99997
0.99997
0.999972
0.999975
0.999979
0.999984
0.999989
0.999996
1
1.00001
1.00001
1.00001
1
0.999987
0.999973
0.999958
0.999946
0.999943
0.999952
0.999975
1.00002
1.00007
1.00014
1.00022
1.00031
1.00039
1.00047
1.00053
1.00057
1.00059
1.00059
1.00057
1.00053
1.00048
1.00042
1.00035
1.00029
1.00023
1.00017
1.00012
1.00008
1.00005
1.00002
1
0.999987
0.999978
0.999973
0.99997
0.999969
0.999968
0.999968
0.999968
0.999968
0.999969
0.999969
0.99997
0.99997
0.99997
0.99997
0.99997
0.99997
0.99997
0.99997
0.99997
0.99997
0.99997
0.99997
0.99997
0.99997
0.99997
0.99997
0.99997
0.99997
0.99997
0.99997
0.99997
0.99997
0.99997
0.99997
0.99997
0.99997
0.99997
0.99997
0.99997
0.99997
0.99997
0.99997
0.99997
0.99997
0.99997
0.99997
0.99997
0.99997
0.99997
0.99997
0.999969
0.999969
0.99997
0.999969
0.999969
0.99997
0.99997
0.999973
0.999976
0.999982
0.999989
0.999997
1.00001
1.00002
1.00002
1.00002
1.00002
1.00001
0.999998
0.999983
0.999971
0.999967
0.999977
1.00001
1.00006
1.00014
1.00023
1.00035
1.00048
1.00061
1.00073
1.00083
1.00091
1.00096
1.00097
1.00095
1.0009
1.00082
1.00073
1.00063
1.00053
1.00043
1.00033
1.00025
1.00018
1.00012
1.00007
1.00004
1.00001
0.999992
0.99998
0.999973
0.999969
0.999967
0.999966
0.999967
0.999967
0.999968
0.999968
0.999968
0.99997
0.99997
0.99997
0.99997
0.99997
0.99997
0.99997
0.99997
0.99997
0.99997
0.99997
0.99997
0.99997
0.99997
0.99997
0.99997
0.99997
0.99997
0.99997
0.99997
0.99997
0.99997
0.99997
0.99997
0.99997
0.99997
0.99997
0.99997
0.99997
0.99997
0.99997
0.99997
0.99997
0.99997
0.99997
0.99997
0.99997
0.99997
0.99997
0.99997
0.999969
0.999968
0.999969
0.999969
0.999969
0.999969
0.999971
0.999973
0.999978
0.999985
0.999995
1.00001
1.00002
1.00003
1.00004
1.00004
1.00003
1.00002
1.00001
0.999996
0.999991
1
1.00004
1.0001
1.0002
1.00034
1.0005
1.00068
1.00088
1.00107
1.00125
1.00139
1.0015
1.00155
1.00155
1.0015
1.0014
1.00127
1.00112
1.00095
1.00079
1.00063
1.00049
1.00037
1.00026
1.00018
1.00011
1.00006
1.00002
0.999998
0.999982
0.999972
0.999967
0.999965
0.999965
0.999965
0.999966
0.999966
0.999968
0.999968
0.999968
0.99997
0.99997
0.99997
0.99997
0.99997
0.99997
0.99997
0.99997
0.99997
0.99997
0.99997
0.99997
0.99997
0.99997
0.99997
0.99997
0.99997
0.99997
0.99997
0.99997
0.99997
0.99997
0.99997
0.99997
0.99997
0.99997
0.99997
0.99997
0.99997
0.99997
0.99997
0.99997
0.99997
0.99997
0.99997
0.99997
0.99997
0.999969
0.999969
0.999969
0.999969
0.999969
0.999968
0.999967
0.999968
0.99997
0.999974
0.999981
0.999989
1
1.00002
1.00003
1.00004
1.00005
1.00005
1.00005
1.00003
1.00002
1.00001
1.00002
1.00006
1.00013
1.00026
1.00043
1.00064
1.0009
1.00118
1.00147
1.00176
1.00201
1.00222
1.00237
1.00243
1.00242
1.00232
1.00216
1.00194
1.0017
1.00144
1.00118
1.00094
1.00072
1.00054
1.00038
1.00026
1.00016
1.00009
1.00004
1.00001
0.999984
0.999971
0.999965
0.999962
0.999962
0.999962
0.999964
0.999965
0.999966
0.999968
0.999968
0.999968
0.99997
0.99997
0.99997
0.99997
0.99997
0.99997
0.99997
0.99997
0.99997
0.99997
0.99997
0.99997
0.99997
0.99997
0.99997
0.99997
0.99997
0.99997
0.99997
0.99997
0.99997
0.99997
0.99997
0.99997
0.99997
0.99997
0.99997
0.99997
0.99997
0.99997
0.99997
0.99997
0.99997
0.99997
0.99997
0.99997
0.999969
0.999969
0.999969
0.999968
0.999967
0.999967
0.999966
0.999967
0.99997
0.999974
0.999982
0.999994
1.00001
1.00003
1.00004
1.00006
1.00006
1.00006
1.00005
1.00003
1.00002
1.00002
1.00005
1.00013
1.00027
1.00047
1.00074
1.00108
1.00146
1.00188
1.00231
1.00272
1.00309
1.00339
1.0036
1.00369
1.00366
1.00352
1.00326
1.00293
1.00255
1.00215
1.00176
1.00139
1.00106
1.00079
1.00056
1.00038
1.00024
1.00014
1.00006
1.00002
0.999987
0.99997
0.999961
0.999958
0.999957
0.999959
0.999961
0.999963
0.999965
0.999966
0.999968
0.999968
0.999968
0.99997
0.99997
0.99997
0.99997
0.99997
0.99997
0.99997
0.99997
0.99997
0.99997
0.99997
0.99997
0.99997
0.99997
0.99997
0.99997
0.99997
0.99997
0.99997
0.99997
0.99997
0.99997
0.99997
0.99997
0.99997
0.99997
0.99997
0.99997
0.99997
0.99997
0.99997
0.99997
0.99997
0.99997
0.99997
0.999969
0.999969
0.999968
0.999967
0.999966
0.999966
0.999965
0.999965
0.999968
0.999974
0.999983
0.999999
1.00002
1.00004
1.00005
1.00007
1.00007
1.00005
1.00003
1.00001
0.999994
1.00001
1.00008
1.00022
1.00045
1.00076
1.00116
1.00165
1.0022
1.00279
1.0034
1.00398
1.00451
1.00495
1.00526
1.00541
1.00538
1.00518
1.00482
1.00434
1.00378
1.00318
1.0026
1.00205
1.00156
1.00115
1.00082
1.00055
1.00035
1.0002
1.0001
1.00003
0.999992
0.999967
0.999956
0.999951
0.999952
0.999954
0.999957
0.999961
0.999962
0.999965
0.999967
0.999968
0.999968
0.999969
0.99997
0.99997
0.99997
0.99997
0.99997
0.99997
0.99997
0.99997
0.99997
0.99997
0.99997
0.99997
0.99997
0.99997
0.99997
0.99997
0.99997
0.99997
0.99997
0.99997
0.99997
0.99997
0.99997
0.99997
0.99997
0.99997
0.99997
0.99997
0.99997
0.99997
0.99997
0.99997
0.99997
0.999969
0.999968
0.999969
0.999968
0.999966
0.999964
0.999963
0.999962
0.999963
0.999966
0.999973
0.999984
1
1.00002
1.00004
1.00006
1.00006
1.00005
1.00002
0.999982
0.999946
0.999936
0.999978
1.0001
1.00032
1.00065
1.0011
1.00167
1.00234
1.00309
1.00389
1.00471
1.00551
1.00624
1.00687
1.00733
1.00759
1.00761
1.00739
1.00693
1.00628
1.00549
1.00464
1.00379
1.003
1.00229
1.00168
1.00119
1.00081
1.00051
1.0003
1.00016
1.00006
1
0.999966
0.999949
0.999943
0.999944
0.999948
0.999952
0.999956
0.99996
0.999963
0.999966
0.999967
0.999968
0.999968
0.999968
0.99997
0.99997
0.99997
0.99997
0.99997
0.99997
0.99997
0.99997
0.99997
0.99997
0.99997
0.99997
0.99997
0.99997
0.99997
0.99997
0.99997
0.99997
0.99997
0.99997
0.99997
0.99997
0.99997
0.99997
0.99997
0.99997
0.99997
0.99997
0.99997
0.99997
0.99997
0.99997
0.999969
0.999968
0.999968
0.999966
0.999964
0.999962
0.999961
0.999958
0.999958
0.999962
0.99997
0.999983
1
1.00002
1.00004
1.00005
1.00004
1
0.999945
0.999877
0.999823
0.999815
0.999887
1.00007
1.00039
1.00085
1.00146
1.00221
1.00307
1.00402
1.00504
1.00609
1.00714
1.00813
1.00901
1.00971
1.01017
1.01033
1.01015
1.00963
1.00882
1.00779
1.00664
1.00545
1.00433
1.00331
1.00244
1.00173
1.00118
1.00076
1.00045
1.00024
1.0001
1.00002
0.999967
0.999943
0.999934
0.999934
0.999939
0.999945
0.999951
0.999957
0.99996
0.999963
0.999966
0.999967
0.999968
0.999968
0.999969
0.99997
0.99997
0.99997
0.99997
0.99997
0.99997
0.99997
0.99997
0.99997
0.99997
0.99997
0.99997
0.99997
0.99997
0.99997
0.99997
0.99997
0.99997
0.99997
0.99997
0.99997
0.99997
0.99997
0.99997
0.99997
0.99997
0.99997
0.99997
0.99997
0.999969
0.999969
0.999969
0.999968
0.999967
0.999965
0.999962
0.99996
0.999955
0.999953
0.999953
0.999955
0.999964
0.999979
0.999997
1.00001
1.00003
1.00001
0.999974
0.999899
0.999797
0.999686
0.999604
0.999596
0.999704
0.999962
1.00039
1.00098
1.00174
1.00264
1.00366
1.00478
1.00599
1.00727
1.00856
1.00984
1.01104
1.01208
1.01287
1.01331
1.01332
1.01286
1.01197
1.01073
1.00925
1.00768
1.00614
1.00473
1.00351
1.0025
1.00171
1.0011
1.00067
1.00037
1.00017
1.00004
0.999973
0.999937
0.999924
0.999923
0.999929
0.999937
0.999945
0.999952
0.999958
0.999962
0.999964
0.999966
0.999967
0.999968
0.999968
0.99997
0.99997
0.99997
0.99997
0.99997
0.99997
0.99997
0.99997
0.99997
0.99997
0.99997
0.99997
0.99997
0.99997
0.99997
0.99997
0.99997
0.99997
0.99997
0.99997
0.99997
0.99997
0.99997
0.99997
0.99997
0.99997
0.99997
0.99997
0.99997
0.999969
0.999969
0.999968
0.999967
0.999966
0.999963
0.999959
0.999955
0.999949
0.999946
0.999945
0.999946
0.999954
0.999968
0.999983
0.999993
0.999985
0.999941
0.999853
0.999714
0.99954
0.999367
0.999247
0.999236
0.999381
0.99971
1.00023
1.00092
1.00176
1.00273
1.00381
1.00501
1.00631
1.00773
1.00924
1.01083
1.01241
1.01391
1.0152
1.01613
1.01655
1.01638
1.01559
1.01425
1.0125
1.01053
1.00853
1.00664
1.00496
1.00356
1.00245
1.0016
1.00099
1.00056
1.00027
1.00009
0.999987
0.999935
0.999913
0.999911
0.999916
0.999927
0.999937
0.999945
0.999953
0.999958
0.999962
0.999965
0.999967
0.999967
0.999968
0.999969
0.99997
0.99997
0.99997
0.99997
0.99997
0.99997
0.99997
0.99997
0.99997
0.99997
0.99997
0.99997
0.99997
0.99997
0.99997
0.99997
0.99997
0.99997
0.99997
0.99997
0.99997
0.99997
0.99997
0.99997
0.99997
0.99997
0.99997
0.999969
0.999969
0.999969
0.999968
0.999966
0.999963
0.99996
0.999955
0.999949
0.999942
0.999937
0.999933
0.999933
0.999939
0.999949
0.999956
0.999948
0.999905
0.999808
0.999642
0.999408
0.999133
0.998874
0.998702
0.998681
0.998853
0.999226
0.999777
1.00047
1.00126
1.00213
1.00309
1.00415
1.00538
1.00681
1.00845
1.01031
1.01232
1.0144
1.01638
1.01808
1.01925
1.0197
1.01933
1.01815
1.0163
1.01401
1.01153
1.0091
1.00689
1.005
1.00347
1.0023
1.00143
1.00083
1.00042
1.00017
1.00002
0.999939
0.999905
0.999896
0.999903
0.999914
0.999927
0.999938
0.999948
0.999954
0.99996
0.999963
0.999966
0.999967
0.999968
0.999969
0.99997
0.99997
0.99997
0.99997
0.99997
0.99997
0.99997
0.99997
0.99997
0.99997
0.99997
0.99997
0.99997
0.99997
0.99997
0.99997
0.99997
0.99997
0.99997
0.99997
0.99997
0.99997
0.99997
0.99997
0.99997
0.99997
0.99997
0.999969
0.999969
0.999968
0.999967
0.999965
0.999961
0.999957
0.99995
0.999942
0.999932
0.999924
0.999917
0.999916
0.999916
0.999917
0.999908
0.999868
0.99977
0.999587
0.999305
0.998933
0.998522
0.998153
0.997915
0.997871
0.998039
0.998387
0.998851
0.999359
0.999865
1.00036
1.00089
1.00154
1.00243
1.00366
1.0053
1.00737
1.00983
1.0126
1.01549
1.01824
1.02055
1.02208
1.02259
1.02199
1.02037
1.01796
1.01511
1.01215
1.00934
1.00687
1.00484
1.00324
1.00206
1.00122
1.00065
1.00029
1.00007
0.999954
0.9999
0.999883
0.999887
0.9999
0.999915
0.99993
0.999942
0.999951
0.999958
0.999962
0.999965
0.999966
0.999967
0.999968
0.999969
0.99997
0.99997
0.99997
0.99997
0.99997
0.99997
0.99997
0.99997
0.99997
0.99997
0.99997
0.99997
0.99997
0.99997
0.99997
0.99997
0.99997
0.99997
0.99997
0.99997
0.99997
0.99997
0.99997
0.99997
0.99997
0.99997
0.999969
0.999968
0.999968
0.999966
0.999964
0.999959
0.999953
0.999944
0.999933
0.99992
0.999907
0.999897
0.999889
0.999882
0.999869
0.99983
0.999736
0.999553
0.999242
0.998794
0.998237
0.997653
0.997154
0.996837
0.996743
0.99684
0.997032
0.997198
0.997237
0.997105
0.996835
0.996542
0.996404
0.99663
0.997408
0.998871
1.00108
1.004
1.00755
1.01153
1.01564
1.01947
1.02258
1.02454
1.02509
1.02421
1.02208
1.01911
1.01572
1.01232
1.00922
1.00659
1.00449
1.0029
1.00175
1.00097
1.00046
1.00016
0.999987
0.999904
0.999873
0.999872
0.999885
0.999903
0.999919
0.999934
0.999945
0.999954
0.99996
0.999964
0.999965
0.999967
0.999968
0.999969
0.99997
0.99997
0.99997
0.99997
0.99997
0.99997
0.99997
0.99997
0.99997
0.99997
0.99997
0.99997
0.99997
0.99997
0.99997
0.99997
0.99997
0.99997
0.99997
0.99997
0.99997
0.99997
0.99997
0.99997
0.99997
0.999969
0.999969
0.999968
0.999967
0.999965
0.999962
0.999956
0.999947
0.999937
0.999921
0.999905
0.999887
0.999871
0.999854
0.999834
0.999795
0.999709
0.999535
0.999223
0.998732
0.998058
0.997264
0.996476
0.995837
0.995428
0.995234
0.995139
0.994961
0.994517
0.993688
0.992457
0.990932
0.989333
0.987963
0.987157
0.987211
0.988332
0.99061
0.994027
0.998463
1.0037
1.00941
1.01513
1.02028
1.02428
1.02665
1.02715
1.02587
1.02319
1.01964
1.01578
1.01205
1.00877
1.00607
1.00399
1.00247
1.00141
1.00072
1.00029
1.00004
0.99992
0.999869
0.999859
0.99987
0.999889
0.999909
0.999926
0.99994
0.999949
0.999957
0.999962
0.999964
0.999966
0.999967
0.999969
0.999969
0.99997
0.99997
0.99997
0.99997
0.99997
0.99997
0.99997
0.99997
0.99997
0.99997
0.99997
0.99997
0.99997
0.99997
0.99997
0.99997
0.99997
0.99997
0.99997
0.99997
0.99997
0.99997
0.99997
0.99997
0.999969
0.999969
0.999968
0.999967
0.999963
0.999959
0.999952
0.999941
0.999927
0.999908
0.999885
0.999861
0.999838
0.999809
0.999767
0.999688
0.999531
0.999239
0.998744
0.998006
0.997042
0.995969
0.994965
0.994185
0.993662
0.993278
0.9928
0.991945
0.990477
0.988277
0.985389
0.982034
0.978579
0.975492
0.973266
0.972332
0.97298
0.975327
0.979326
0.984806
0.991498
0.99903
1.00691
1.01448
1.02103
1.02584
1.02843
1.0287
1.0269
1.02362
1.01954
1.01529
1.01136
1.00802
1.00537
1.00339
1.002
1.00107
1.00048
1.00014
0.999954
0.999873
0.999849
0.999856
0.999874
0.999897
0.999917
0.999933
0.999945
0.999953
0.99996
0.999963
0.999965
0.999967
0.999968
0.999969
0.99997
0.99997
0.99997
0.99997
0.99997
0.99997
0.99997
0.99997
0.99997
0.99997
0.99997
0.99997
0.99997
0.99997
0.99997
0.99997
0.99997
0.99997
0.99997
0.99997
0.99997
0.99997
0.99997
0.99997
0.99997
0.999968
0.999967
0.999966
0.999962
0.999956
0.999947
0.999933
0.999915
0.999891
0.999863
0.999831
0.999795
0.999748
0.999673
0.999536
0.999276
0.998816
0.998073
0.997014
0.995701
0.994324
0.993117
0.99221
0.991532
0.990814
0.98968
0.987749
0.984745
0.980576
0.975388
0.96955
0.963627
0.958299
0.954263
0.95211
0.952225
0.954732
0.959524
0.966323
0.974752
0.984368
0.994636
1.00489
1.01432
1.02207
1.02739
1.02991
1.02969
1.02724
1.02333
1.0188
1.0143
1.01031
1.00705
1.00455
1.00275
1.00153
1.00074
1.00027
1.00001
0.99989
0.999846
0.999843
0.99986
0.999884
0.999907
0.999926
0.99994
0.99995
0.999958
0.999961
0.999964
0.999966
0.999968
0.999969
0.99997
0.99997
0.99997
0.99997
0.99997
0.99997
0.99997
0.99997
0.99997
0.99997
0.99997
0.99997
0.99997
0.99997
0.99997
0.99997
0.99997
0.99997
0.99997
0.99997
0.99997
0.99997
0.99997
0.99997
0.999969
0.999969
0.999966
0.999965
0.99996
0.999953
0.999941
0.999924
0.999901
0.999872
0.999835
0.999793
0.999743
0.999669
0.999548
0.999327
0.998923
0.998234
0.997169
0.995712
0.99401
0.99234
0.990972
0.989953
0.98904
0.987778
0.985637
0.982143
0.977001
0.97018
0.961955
0.9529
0.943827
0.935692
0.929455
0.925908
0.925533
0.928438
0.934399
0.942961
0.953565
0.965627
0.978549
0.991665
1.00417
1.01513
1.02363
1.02899
1.03101
1.03004
1.02683
1.02235
1.01748
1.01291
1.00901
1.00594
1.00368
1.00211
1.00109
1.00046
1.00011
0.999925
0.999852
0.999835
0.999848
0.999872
0.999897
0.999919
0.999935
0.999947
0.999955
0.99996
0.999963
0.999966
0.999967
0.999969
0.999969
0.99997
0.99997
0.99997
0.99997
0.99997
0.99997
0.99997
0.99997
0.99997
0.99997
0.99997
0.99997
0.99997
0.99997
0.99997
0.99997
0.99997
0.99997
0.99997
0.99997
0.99997
0.99997
0.99997
0.999969
0.999968
0.999966
0.999964
0.999958
0.999949
0.999935
0.999914
0.999886
0.999849
0.999804
0.99975
0.999677
0.999567
0.999381
0.999045
0.998449
0.99746
0.995988
0.994073
0.991974
0.990069
0.988606
0.987474
0.9862
0.984114
0.980533
0.974907
0.96694
0.956686
0.94459
0.93148
0.91849
0.906937
0.89812
0.893084
0.892411
0.896147
0.903866
0.914841
0.928238
0.943257
0.959186
0.975352
0.991012
1.00527
1.01713
1.02572
1.03052
1.03162
1.02967
1.02569
1.02073
1.01571
1.01122
1.00757
1.0048
1.00284
1.00153
1.00071
1.00024
0.999983
0.99987
0.999835
0.99984
0.999861
0.999887
0.999911
0.99993
0.999943
0.999953
0.999958
0.999962
0.999966
0.999967
0.999969
0.999969
0.99997
0.99997
0.99997
0.99997
0.99997
0.99997
0.99997
0.99997
0.99997
0.99997
0.99997
0.99997
0.99997
0.99997
0.99997
0.99997
0.99997
0.99997
0.99997
0.99997
0.99997
0.99997
0.99997
0.999969
0.999967
0.999966
0.999962
0.999954
0.999945
0.999928
0.999902
0.999869
0.999825
0.999768
0.999697
0.999599
0.99944
0.999165
0.998676
0.997827
0.996461
0.994501
0.992094
0.989645
0.987605
0.986123
0.984842
0.98302
0.979762
0.974234
0.965822
0.954253
0.939686
0.922774
0.904661
0.886896
0.871276
0.859546
0.853066
0.852508
0.857768
0.868092
0.882351
0.899329
0.917939
0.937309
0.956745
0.975595
0.993089
1.00829
1.0202
1.02809
1.03174
1.03157
1.02854
1.02385
1.0186
1.01362
1.0094
1.0061
1.00371
1.00208
1.00103
1.00041
1.00007
0.999904
0.999843
0.999836
0.999853
0.999878
0.999903
0.999924
0.99994
0.99995
0.999956
0.999961
0.999965
0.999966
0.999969
0.999969
0.99997
0.99997
0.99997
0.99997
0.99997
0.99997
0.99997
0.99997
0.99997
0.99997
0.99997
0.99997
0.99997
0.99997
0.99997
0.99997
0.99997
0.99997
0.99997
0.99997
0.99997
0.99997
0.999969
0.999969
0.999967
0.999964
0.99996
0.999952
0.99994
0.99992
0.999889
0.99985
0.999799
0.999727
0.999636
0.999505
0.999281
0.99889
0.998205
0.997037
0.99521
0.992701
0.989815
0.987119
0.985078
0.983631
0.982119
0.979498
0.974649
0.9666
0.954681
0.938651
0.918797
0.896016
0.871843
0.848375
0.828034
0.813169
0.805522
0.80582
0.813662
0.827763
0.846398
0.867854
0.890714
0.913944
0.936842
0.958866
0.979431
0.997755
1.01288
1.02391
1.03034
1.03234
1.03071
1.02664
1.02142
1.0161
1.01137
1.00755
1.00471
1.00272
1.00142
1.00063
1.00018
0.999957
0.999861
0.999837
0.999848
0.999872
0.999897
0.999919
0.999936
0.999948
0.999954
0.99996
0.999965
0.999966
0.999968
0.999969
0.99997
0.99997
0.99997
0.99997
0.99997
0.99997
0.99997
0.99997
0.99997
0.99997
0.99997
0.99997
0.99997
0.99997
0.99997
0.99997
0.99997
0.99997
0.99997
0.99997
0.99997
0.99997
0.999969
0.999969
0.999966
0.999964
0.999959
0.999949
0.999934
0.999912
0.999876
0.999829
0.999769
0.999683
0.999565
0.999392
0.999088
0.998546
0.997613
0.996059
0.993694
0.990607
0.987313
0.984526
0.982616
0.981227
0.979341
0.975615
0.968706
0.957507
0.941307
0.919904
0.893722
0.86394
0.832576
0.802434
0.776792
0.758786
0.750631
0.753011
0.764986
0.784424
0.808744
0.835598
0.863238
0.890551
0.916908
0.941941
0.965286
0.986377
1.00438
1.01837
1.02761
1.03199
1.03207
1.02897
1.02406
1.01858
1.01344
1.00913
1.00582
1.00346
1.00189
1.0009
1.00033
1.00003
0.999894
0.999848
0.999848
0.999867
0.999891
0.999915
0.999932
0.999946
0.999953
0.99996
0.999964
0.999966
0.999968
0.999969
0.999969
0.99997
0.99997
0.99997
0.99997
0.99997
0.99997
0.99997
0.99997
0.99997
0.99997
0.99997
0.99997
0.99997
0.99997
0.99997
0.99997
0.99997
0.99997
0.99997
0.99997
0.99997
0.999969
0.999968
0.999966
0.999962
0.999958
0.999945
0.999928
0.999905
0.999862
0.999807
0.999739
0.999635
0.999485
0.99926
0.998855
0.998127
0.996891
0.994882
0.991924
0.988273
0.984701
0.982005
0.980338
0.978971
0.97652
0.971339
0.961867
0.946875
0.925618
0.897931
0.86437
0.82643
0.786723
0.748976
0.717609
0.696811
0.689352
0.695708
0.714008
0.740812
0.77233
0.805424
0.838073
0.869269
0.898666
0.926195
0.951775
0.975088
0.995476
1.01203
1.02389
1.03066
1.03262
1.03074
1.02639
1.02095
1.01552
1.01078
1.00703
1.00429
1.00242
1.00123
1.00052
1.00013
0.99994
0.999866
0.999852
0.999865
0.999889
0.999911
0.999929
0.999943
0.999952
0.999959
0.999964
0.999966
0.999968
0.999969
0.999969
0.99997
0.99997
0.99997
0.99997
0.99997
0.99997
0.99997
0.99997
0.99997
0.99997
0.99997
0.99997
0.99997
0.99997
0.99997
0.99997
0.99997
0.99997
0.99997
0.99997
0.999969
0.999969
0.999968
0.999966
0.99996
0.999956
0.999943
0.999921
0.999898
0.999849
0.999784
0.999709
0.999586
0.999394
0.999105
0.998582
0.997628
0.99603
0.993508
0.98993
0.985785
0.982107
0.979679
0.978324
0.976895
0.973649
0.966648
0.954118
0.934727
0.907702
0.8729
0.830991
0.783806
0.734679
0.688515
0.651244
0.628461
0.623612
0.636677
0.664242
0.700934
0.741316
0.781323
0.818778
0.853067
0.884444
0.913393
0.940234
0.964926
0.98698
1.00553
1.01962
1.0286
1.03247
1.03196
1.02837
1.02315
1.01756
1.01246
1.0083
1.00518
1.00301
1.0016
1.00073
1.00025
1
0.999894
0.999863
0.999869
0.999888
0.999908
0.999927
0.999942
0.999951
0.999958
0.999963
0.999966
0.999968
0.999969
0.999969
0.99997
0.99997
0.99997
0.99997
0.99997
0.99997
0.99997
0.99997
0.99997
0.99997
0.99997
0.99997
0.99997
0.99997
0.99997
0.99997
0.99997
0.99997
0.99997
0.99997
0.99997
0.999969
0.999968
0.999966
0.999959
0.999954
0.999942
0.999915
0.999889
0.999839
0.999761
0.999677
0.999537
0.999294
0.998926
0.998267
0.997047
0.995032
0.991953
0.987775
0.983248
0.979646
0.977636
0.976617
0.975006
0.97072
0.961556
0.945542
0.921256
0.887907
0.845347
0.79433
0.737037
0.677631
0.62244
0.579326
0.555815
0.556257
0.579661
0.620147
0.669616
0.72058
0.76796
0.809578
0.84555
0.877141
0.905739
0.932286
0.95708
0.979783
0.999552
1.01531
1.02616
1.0318
1.03269
1.02998
1.02512
1.0195
1.01413
1.0096
1.00612
1.00365
1.002
1.00098
1.00039
1.00008
0.999934
0.999882
0.999876
0.999889
0.999908
0.999926
0.999941
0.999951
0.999958
0.999963
0.999966
0.999968
0.999969
0.999969
0.99997
0.99997
0.99997
0.99997
0.99997
0.99997
0.99997
0.99997
0.99997
0.99997
0.99997
0.99997
0.99997
0.99997
0.99997
0.99997
0.99997
0.99997
0.99997
0.99997
0.99997
0.999969
0.999967
0.999966
0.999959
0.999952
0.999941
0.999908
0.999882
0.999832
0.999738
0.999643
0.999489
0.999186
0.998721
0.997914
0.996394
0.9939
0.990249
0.985537
0.980768
0.977401
0.97592
0.975232
0.973298
0.967749
0.956149
0.936357
0.906879
0.866906
0.816275
0.7558
0.688005
0.617884
0.553276
0.504402
0.481611
0.490659
0.528751
0.58617
0.651308
0.714437
0.769484
0.8144
0.850283
0.879802
0.905673
0.929773
0.952893
0.974864
0.994804
1.01147
1.02369
1.03083
1.03304
1.03125
1.02686
1.0213
1.01574
1.01089
1.00708
1.00431
1.00244
1.00125
1.00055
1.00017
0.999983
0.999907
0.999888
0.999894
0.999911
0.999927
0.999941
0.999951
0.999958
0.999962
0.999966
0.999967
0.999969
0.999969
0.99997
0.99997
0.99997
0.99997
0.99997
0.99997
0.99997
0.99997
0.99997
0.99997
0.99997
0.99997
0.99997
0.99997
0.99997
0.99997
0.99997
0.99997
0.99997
0.999969
0.99997
0.999969
0.999966
0.999966
0.999959
0.999949
0.999942
0.999904
0.999871
0.99983
0.999718
0.999606
0.999445
0.999077
0.99849
0.997522
0.99568
0.992658
0.988439
0.983305
0.978435
0.975423
0.974541
0.974162
0.971778
0.964789
0.950609
0.92695
0.892258
0.845741
0.787251
0.717664
0.63979
0.559223
0.484982
0.429952
0.408908
0.430071
0.487297
0.565229
0.648374
0.724947
0.787983
0.83553
0.86972
0.894857
0.915376
0.934486
0.953741
0.973232
0.992026
1.00864
1.02158
1.02982
1.03316
1.03224
1.02835
1.02294
1.01726
1.01215
1.00804
1.00499
1.0029
1.00155
1.00073
1.00028
1.00004
0.999939
0.999904
0.999903
0.999914
0.999928
0.999941
0.999952
0.999958
0.999962
0.999966
0.999967
0.999969
0.999969
0.99997
0.99997
0.99997
0.99997
0.99997
0.99997
0.99997
0.99997
0.99997
0.99997
0.99997
0.99997
0.99997
0.99997
0.99997
0.99997
0.99997
0.99997
0.99997
0.99997
0.99997
0.999969
0.999965
0.999967
0.999959
0.999945
0.999943
0.999902
0.99986
0.999829
0.999708
0.999564
0.999402
0.998972
0.998235
0.997094
0.994925
0.991337
0.986575
0.981156
0.976318
0.973722
0.973478
0.973399
0.970473
0.961952
0.945221
0.917881
0.87832
0.825837
0.760422
0.683118
0.596886
0.507282
0.423466
0.3608
0.341055
0.377035
0.456748
0.557438
0.660006
0.750992
0.822569
0.872692
0.904306
0.923325
0.936158
0.947748
0.960777
0.975811
0.991916
1.00735
1.02021
1.02903
1.0332
1.03304
1.02964
1.02441
1.01867
1.01335
1.00897
1.00567
1.00336
1.00185
1.00092
1.00039
1.00011
0.999977
0.999926
0.999914
0.99992
0.999932
0.999942
0.999953
0.999959
0.999963
0.999966
0.999968
0.999969
0.999969
0.99997
0.99997
0.99997
0.99997
0.99997
0.99997
0.99997
0.99997
0.99997
0.99997
0.99997
0.99997
0.99997
0.99997
0.99997
0.99997
0.99997
0.99997
0.99997
0.99997
0.99997
0.999969
0.999966
0.999966
0.999962
0.99994
0.999943
0.999907
0.999847
0.99983
0.999709
0.999521
0.999356
0.998881
0.997966
0.996632
0.99415
0.989984
0.984709
0.979147
0.974458
0.972291
0.972689
0.972934
0.969445
0.959412
0.940369
0.909853
0.866195
0.808924
0.738461
0.65622
0.565095
0.469626
0.377381
0.304659
0.282691
0.333347
0.436363
0.56031
0.682893
0.789056
0.869981
0.923289
0.952383
0.964519
0.96808
0.970055
0.974659
0.983242
0.995027
1.00802
1.0199
1.0287
1.03332
1.03372
1.03075
1.02571
1.01995
1.01446
1.00986
1.00633
1.00382
1.00216
1.00112
1.00052
1.00019
1.00002
0.999951
0.999928
0.999928
0.999936
0.999945
0.999955
0.99996
0.999964
0.999966
0.999968
0.999969
0.999969
0.99997
0.99997
0.99997
0.99997
0.99997
0.99997
0.99997
0.99997
0.99997
0.99997
0.99997
0.99997
0.99997
0.99997
0.99997
0.99997
0.99997
0.99997
0.99997
0.999969
0.99997
0.99997
0.999965
0.999964
0.999964
0.999939
0.999941
0.999917
0.999837
0.999826
0.999725
0.999484
0.999302
0.998806
0.9977
0.996139
0.993376
0.988659
0.982891
0.977301
0.972876
0.971116
0.97212
0.972753
0.968784
0.957392
0.936487
0.903648
0.857129
0.796897
0.724273
0.64136
0.550661
0.454732
0.357949
0.274244
0.242404
0.301414
0.424689
0.570687
0.713273
0.83519
0.926263
0.983622
1.0109
1.01631
1.00996
1.00096
0.995389
0.995749
1.00165
1.01096
1.02092
1.02902
1.03367
1.03438
1.03172
1.02686
1.02109
1.01548
1.01068
1.00695
1.00426
1.00246
1.00132
1.00064
1.00026
1.00007
0.99998
0.999945
0.999939
0.999941
0.999948
0.999958
0.999961
0.999965
0.999966
0.999968
0.999969
0.999969
0.99997
0.99997
0.99997
0.99997
0.99997
0.99997
0.99997
0.99997
0.99997
0.99997
0.99997
0.99997
0.99997
0.99997
0.99997
0.99997
0.99997
0.99997
0.99997
0.99997
0.999969
0.999971
0.999966
0.999962
0.999968
0.999941
0.999934
0.999931
0.999836
0.999815
0.999751
0.999462
0.999234
0.998747
0.997462
0.995627
0.992614
0.98742
0.981173
0.975616
0.971568
0.970189
0.971717
0.972829
0.968601
0.956148
0.934016
0.900024
0.85233
0.791556
0.72049
0.642202
0.558366
0.468882
0.374358
0.283824
0.235177
0.287853
0.422638
0.587061
0.748756
0.886678
0.988375
1.05031
1.07646
1.07579
1.0597
1.03918
1.02231
1.01308
1.01177
1.01625
1.02338
1.03013
1.03435
1.0351
1.0326
1.02785
1.02208
1.01637
1.01141
1.00751
1.00468
1.00275
1.00151
1.00077
1.00035
1.00012
1.00001
0.999966
0.99995
0.999949
0.999953
0.99996
0.999963
0.999965
0.999967
0.999968
0.999969
0.999969
0.99997
0.99997
0.99997
0.99997
0.99997
0.99997
0.99997
0.99997
0.99997
0.99997
0.99997
0.99997
0.99997
0.99997
0.99997
0.99997
0.99997
0.99997
0.99997
0.99997
0.999968
0.99997
0.999968
0.99996
0.999969
0.999946
0.999927
0.999943
0.999848
0.999799
0.999779
0.999469
0.999159
0.998691
0.997275
0.995123
0.991865
0.986315
0.97961
0.974071
0.970506
0.969516
0.971429
0.973108
0.968997
0.955942
0.933332
0.89959
0.852785
0.794275
0.72878
0.66043
0.589438
0.512558
0.42679
0.33697
0.275053
0.306574
0.436903
0.611458
0.789166
0.942569
1.05487
1.1212
1.14621
1.1399
1.11462
1.08275
1.05418
1.03453
1.02503
1.02375
1.02728
1.03207
1.03541
1.03591
1.03342
1.02871
1.02293
1.01713
1.01205
1.00801
1.00505
1.00301
1.0017
1.00089
1.00043
1.00017
1.00005