/*--------------------------------*- C++ -*----------------------------------*\
  =========                 |
  \\      /  F ield         | OpenFOAM: The Open Source CFD Toolbox
   \\    /   O peration     | Website:  https://openfoam.org
    \\  /    A nd           | Version:  6
     \\/     M anipulation  |
\*---------------------------------------------------------------------------*/
FoamFile
{
    version     2.0;
    format      ascii;
    class       volScalarField;
    location    "4.22";
    object      p;
}
// * * * * * * * * * * * * * * * * * * * * * * * * * * * * * * * * * * * * * //

dimensions      [1 -1 -2 0 0 0 0];

internalField   nonuniform List<scalar> 
22500
(
1
1
1
1
1
1
1
1
1
1
1
1
1
1
1
1
1
1
1
1
1
1
1
1
1
1
1
1
1
1
1
1
1
1
1
1
1
1
1
1
1
1
1
1
1
1
1
1
1
1
1
1
1
1
1
1
1
1
1
1
1
1
1
1
1
1
1
1
1
1
1
0.999998
0.999997
0.999994
0.99999
0.999988
0.999986
0.999986
0.999988
0.999994
1.00001
1.00002
1.00005
1.00009
1.00014
1.0002
1.00028
1.00037
1.00048
1.00061
1.00075
1.00089
1.00105
1.00122
1.00138
1.00155
1.0017
1.00185
1.00198
1.00209
1.00218
1.00225
1.00229
1.00231
1.00229
1.00225
1.00219
1.0021
1.002
1.00188
1.00174
1.0016
1.00145
1.00131
1.00116
1.00102
1.00089
1.00076
1.00065
1.00055
1.00046
1.00038
1.00031
1.00025
1.0002
1.00016
1.00013
1.0001
1.00007
1.00006
1.00004
1.00003
1.00002
1.00001
1.00001
1
1
1
0.999999
0.999999
0.999998
0.999998
0.999998
0.999999
0.999999
0.999999
0.999999
0.999999
1
1
1
1
1
1
1
1
1
1
1
1
1
1
1
1
1
1
1
1
1
1
1
1
1
1
1
1
1
1
1
1
1
1
1
1
1
1
1
1
1
1
1
1
1
1
1
1
1
1
1
1
1
1
1
1
1
1
1
1
1
1
1
1
1
1
1
1
1
1
1
1
1
1
0.999997
0.999996
0.999994
0.999991
0.999992
0.999995
1
1.00002
1.00004
1.00007
1.00011
1.00017
1.00025
1.00035
1.00046
1.0006
1.00076
1.00094
1.00113
1.00134
1.00156
1.00179
1.00201
1.00224
1.00245
1.00264
1.00282
1.00297
1.00309
1.00317
1.00322
1.00324
1.00322
1.00316
1.00307
1.00294
1.0028
1.00262
1.00244
1.00224
1.00203
1.00182
1.00162
1.00142
1.00123
1.00106
1.0009
1.00075
1.00063
1.00052
1.00042
1.00034
1.00027
1.00021
1.00017
1.00013
1.0001
1.00007
1.00005
1.00004
1.00002
1.00002
1.00001
1.00001
1
1
0.999999
0.999998
0.999998
0.999998
0.999998
0.999998
0.999998
0.999999
0.999999
0.999999
0.999999
1
1
1
1
1
1
1
1
1
1
1
1
1
1
1
1
1
1
1
1
1
1
1
1
1
1
1
1
1
1
1
1
1
1
1
1
1
1
1
1
1
1
1
1
1
1
1
1
1
1
1
1
1
1
1
1
1
1
1
1
1
1
1
1
1
1
1.00001
1
1
1.00001
1
1
1
1
0.999999
0.999998
0.999999
1
1.00001
1.00003
1.00005
1.00009
1.00014
1.00021
1.0003
1.00042
1.00056
1.00073
1.00092
1.00115
1.0014
1.00167
1.00196
1.00226
1.00256
1.00287
1.00317
1.00345
1.00371
1.00394
1.00414
1.00429
1.0044
1.00447
1.00448
1.00445
1.00436
1.00424
1.00407
1.00386
1.00363
1.00337
1.00309
1.00281
1.00252
1.00224
1.00196
1.0017
1.00146
1.00124
1.00104
1.00086
1.0007
1.00057
1.00046
1.00036
1.00028
1.00022
1.00017
1.00013
1.00009
1.00007
1.00005
1.00003
1.00002
1.00001
1.00001
1
0.999999
0.999998
0.999997
0.999997
0.999997
0.999997
0.999997
0.999998
0.999998
0.999999
0.999999
0.999999
0.999999
0.999999
1
1
1
1
1
1
1
1
1
1
1
1
1
1
1
1
1
1
1
1
1
1
1
1
1
1
1
1
1
1
1
1
1
1
1
1
1
1
1
1
1
1
1
1
1
1
1
1
1
1
1
1
1
1
1
1
1
1
1
1
1
1
1
1.00001
1.00001
1.00001
1.00001
1.00001
1.00001
1.00001
1
1
1
1.00001
1.00001
1.00002
1.00004
1.00007
1.00011
1.00017
1.00025
1.00035
1.00049
1.00065
1.00086
1.0011
1.00137
1.00168
1.00203
1.0024
1.00279
1.0032
1.00361
1.00401
1.00441
1.00478
1.00512
1.00542
1.00567
1.00587
1.00601
1.00609
1.0061
1.00605
1.00594
1.00577
1.00554
1.00527
1.00495
1.00461
1.00424
1.00385
1.00346
1.00307
1.0027
1.00234
1.00201
1.0017
1.00142
1.00118
1.00096
1.00078
1.00062
1.00049
1.00038
1.00029
1.00022
1.00017
1.00012
1.00009
1.00006
1.00004
1.00003
1.00001
1.00001
1
0.999999
0.999997
0.999996
0.999996
0.999996
0.999996
0.999997
0.999997
0.999998
0.999998
0.999999
0.999999
0.999999
0.999999
0.999999
1
1
1
1
1
1
1
1
1
1
1
1
1
1
1
1
1
1
1
1
1
1
1
1
1
1
1
1
1
1
1
1
1
1
1
1
1
1
1
1
1
1
1
1
1
1
1
1
1
1
1
1
1
1
1
1
1
1
1
1
1.00001
1.00001
1.00001
1.00001
1.00001
1.00001
1.00001
1.00001
1.00001
1.00001
1.00001
1.00001
1.00002
1.00003
1.00005
1.00008
1.00012
1.00019
1.00028
1.0004
1.00055
1.00075
1.00099
1.00128
1.00161
1.00199
1.00242
1.00288
1.00338
1.0039
1.00444
1.00498
1.00551
1.00602
1.0065
1.00693
1.00731
1.00763
1.00788
1.00806
1.00815
1.00817
1.0081
1.00796
1.00773
1.00744
1.00708
1.00667
1.00622
1.00573
1.00522
1.0047
1.00418
1.00368
1.00319
1.00274
1.00232
1.00195
1.00161
1.00132
1.00106
1.00085
1.00067
1.00052
1.0004
1.0003
1.00022
1.00016
1.00011
1.00008
1.00005
1.00003
1.00002
1.00001
1
0.999998
0.999996
0.999995
0.999994
0.999994
0.999995
0.999996
0.999996
0.999997
0.999997
0.999998
0.999998
0.999999
0.999999
0.999999
0.999999
1
1
1
1
1
1
1
1
1
1
1
1
1
1
1
1
1
1
1
1
1
1
1
1
1
1
1
1
1
1
1
1
1
1
1
1
1
1
1
1
1
1
1
1
1
1
1
1
1
1
1
1
1
1
1
1
1
1
1.00001
1.00001
1.00001
1.00001
1.00001
1.00001
1.00001
1.00001
1.00001
1.00002
1.00002
1.00002
1.00003
1.00004
1.00006
1.00009
1.00014
1.00021
1.00031
1.00044
1.00062
1.00084
1.00112
1.00145
1.00185
1.00231
1.00282
1.00339
1.00401
1.00467
1.00535
1.00605
1.00674
1.00742
1.00807
1.00867
1.00921
1.00969
1.01009
1.0104
1.01061
1.01073
1.01075
1.01066
1.01048
1.0102
1.00983
1.00938
1.00886
1.00827
1.00765
1.00698
1.00631
1.00563
1.00496
1.00432
1.00372
1.00316
1.00265
1.00219
1.00179
1.00145
1.00115
1.00091
1.0007
1.00054
1.0004
1.0003
1.00022
1.00015
1.00011
1.00007
1.00004
1.00002
1.00001
1
0.999998
0.999995
0.999993
0.999993
0.999993
0.999993
0.999994
0.999995
0.999996
0.999997
0.999997
0.999998
0.999999
0.999999
0.999999
0.999999
0.999999
1
1
1
1
1
1
1
1
1
1
1
1
1
1
1
1
1
1
1
1
1
1
1
1
1
1
1
1
1
1
1
1
1
1
1
1
1
1
1
1
1
1
1
1
1
1
1
1
1
1
1
1
1
1
1
1
1.00001
1.00001
1.00001
1.00001
1.00001
1.00001
1.00002
1.00002
1.00002
1.00002
1.00002
1.00003
1.00003
1.00005
1.00007
1.0001
1.00015
1.00023
1.00033
1.00048
1.00067
1.00092
1.00123
1.00162
1.00208
1.00262
1.00323
1.00392
1.00467
1.00548
1.00632
1.0072
1.00808
1.00896
1.0098
1.01061
1.01135
1.01202
1.01259
1.01307
1.01345
1.0137
1.01384
1.01386
1.01376
1.01354
1.0132
1.01275
1.0122
1.01155
1.01083
1.01005
1.00921
1.00835
1.00748
1.00662
1.00578
1.00499
1.00425
1.00357
1.00297
1.00243
1.00196
1.00157
1.00123
1.00096
1.00073
1.00055
1.00041
1.00029
1.00021
1.00014
1.00009
1.00006
1.00003
1.00002
1
0.999998
0.999993
0.999991
0.999991
0.999991
0.999992
0.999993
0.999994
0.999995
0.999996
0.999997
0.999997
0.999998
0.999998
0.999999
0.999999
0.999999
1
1
1
1
1
1
1
1
1
1
1
1
1
1
1
1
1
1
1
1
1
1
1
1
1
1
1
1
1
1
1
1
1
1
1
1
1
1
1
1
1
1
1
1
1
1
1
1
1
1
1
1
1
1
1
1
1.00001
1.00001
1.00001
1.00001
1.00001
1.00002
1.00002
1.00002
1.00003
1.00003
1.00003
1.00004
1.00005
1.00008
1.00011
1.00016
1.00024
1.00035
1.00051
1.00072
1.00099
1.00134
1.00177
1.00229
1.00291
1.00363
1.00444
1.00533
1.0063
1.00734
1.00841
1.00951
1.0106
1.01168
1.01271
1.01367
1.01456
1.01535
1.01602
1.01658
1.01702
1.01732
1.01748
1.0175
1.01738
1.01713
1.01673
1.01621
1.01556
1.0148
1.01393
1.01298
1.01196
1.01089
1.0098
1.00871
1.00765
1.00663
1.00567
1.00478
1.00398
1.00327
1.00265
1.00212
1.00167
1.00129
1.00099
1.00074
1.00055
1.0004
1.00028
1.00019
1.00013
1.00008
1.00005
1.00002
1.00001
0.999998
0.999992
0.999989
0.999988
0.999988
0.999989
0.999991
0.999992
0.999993
0.999995
0.999996
0.999997
0.999998
0.999998
0.999998
0.999999
0.999999
0.999999
1
1
1
1
1
1
1
1
1
1
1
1
1
1
1
1
1
1
1
1
1
1
1
1
1
1
1
1
1
1
1
1
1
1
1
1
1
1
1
1
1
1
1
1
1
1
1
1
1
1
1
1
1
1.00001
1.00001
1.00001
1.00001
1.00001
1.00002
1.00002
1.00002
1.00003
1.00003
1.00003
1.00004
1.00005
1.00006
1.00008
1.00012
1.00017
1.00025
1.00036
1.00053
1.00075
1.00104
1.00142
1.00189
1.00248
1.00318
1.004
1.00493
1.00598
1.00713
1.00836
1.00965
1.01098
1.01231
1.01363
1.01491
1.01612
1.01724
1.01826
1.01916
1.01992
1.02055
1.02103
1.02136
1.02154
1.02157
1.02144
1.02116
1.02073
1.02015
1.01942
1.01855
1.01755
1.01644
1.01524
1.01396
1.01264
1.0113
1.00997
1.00869
1.00746
1.00633
1.00529
1.00436
1.00354
1.00284
1.00224
1.00174
1.00134
1.00101
1.00075
1.00054
1.00038
1.00027
1.00018
1.00011
1.00007
1.00003
1.00001
1
0.999992
0.999987
0.999986
0.999986
0.999987
0.999988
0.99999
0.999992
0.999993
0.999995
0.999996
0.999997
0.999997
0.999998
0.999999
0.999999
0.999999
1
1
1
1
1
1
1
1
1
1
1
1
1
1
1
1
1
1
1
1
1
1
1
1
1
1
1
1
1
1
1
1
1
1
1
1
1
1
1
1
1
1
1
1
1
1
1
1
1
1
1
1
1
1.00001
1.00001
1.00001
1.00001
1.00002
1.00002
1.00002
1.00003
1.00003
1.00004
1.00004
1.00005
1.00007
1.00009
1.00012
1.00018
1.00025
1.00037
1.00053
1.00076
1.00107
1.00147
1.00199
1.00263
1.00341
1.00433
1.00539
1.0066
1.00793
1.00936
1.01088
1.01245
1.01405
1.01563
1.01716
1.01863
1.01999
1.02124
1.02236
1.02333
1.02414
1.0248
1.02531
1.02566
1.02584
1.02588
1.02575
1.02546
1.02502
1.02441
1.02364
1.0227
1.02162
1.02038
1.01902
1.01755
1.016
1.01441
1.0128
1.01122
1.0097
1.00827
1.00695
1.00576
1.0047
1.00378
1.003
1.00234
1.0018
1.00136
1.00101
1.00073
1.00052
1.00036
1.00024
1.00016
1.00009
1.00005
1.00002
1
0.999992
0.999986
0.999983
0.999983
0.999984
0.999986
0.999988
0.99999
0.999992
0.999993
0.999995
0.999996
0.999996
0.999997
0.999998
0.999999
0.999999
0.999999
1
1
1
1
1
1
1
1
1
1
1
1
1
1
1
1
1
1
1
1
1
1
1
1
1
1
1
1
1
1
1
1
1
1
1
1
1
1
1
1
1
1
1
1
1
1
1
1
1
1
1
1.00001
1.00001
1.00001
1.00001
1.00002
1.00002
1.00002
1.00003
1.00004
1.00004
1.00005
1.00006
1.00007
1.00009
1.00013
1.00018
1.00025
1.00037
1.00053
1.00077
1.00108
1.0015
1.00205
1.00274
1.00359
1.0046
1.00579
1.00715
1.00866
1.01031
1.01207
1.01389
1.01575
1.0176
1.0194
1.02111
1.02271
1.02418
1.02549
1.02664
1.02762
1.02843
1.02908
1.02957
1.0299
1.03008
1.03012
1.03
1.02974
1.02931
1.02873
1.02797
1.02704
1.02593
1.02465
1.02319
1.02158
1.01985
1.01802
1.01615
1.01427
1.01242
1.01066
1.00902
1.00751
1.00616
1.00498
1.00397
1.00311
1.0024
1.00182
1.00136
1.00099
1.00071
1.0005
1.00034
1.00022
1.00013
1.00008
1.00004
1.00001
0.999994
0.999985
0.999981
0.99998
0.999981
0.999983
0.999985
0.999987
0.99999
0.999992
0.999994
0.999995
0.999996
0.999997
0.999998
0.999998
0.999999
0.999999
0.999999
1
1
1
1
1
1
1
1
1
1
1
1
1
1
1
1
1
1
1
1
1
1
1
1
1
1
1
1
1
1
1
1
1
1
1
1
1
1
1
1
1
1
1
1
1
1
1
1
1
1.00001
1.00001
1.00001
1.00001
1.00002
1.00002
1.00002
1.00003
1.00004
1.00004
1.00005
1.00006
1.00008
1.0001
1.00013
1.00018
1.00025
1.00036
1.00052
1.00075
1.00107
1.00151
1.00207
1.0028
1.00371
1.00481
1.00611
1.00762
1.00931
1.01118
1.01317
1.01525
1.01738
1.01949
1.02155
1.0235
1.02532
1.02697
1.02844
1.02972
1.0308
1.03171
1.03243
1.033
1.03342
1.0337
1.03385
1.03388
1.03379
1.03358
1.03323
1.03273
1.03207
1.03124
1.03021
1.02897
1.02753
1.02588
1.02404
1.02206
1.01996
1.0178
1.01564
1.01354
1.01153
1.00968
1.00799
1.0065
1.0052
1.0041
1.00318
1.00242
1.00181
1.00133
1.00096
1.00067
1.00046
1.0003
1.00019
1.00011
1.00006
1.00002
0.999998
0.999985
0.999979
0.999977
0.999977
0.999979
0.999982
0.999985
0.999987
0.99999
0.999992
0.999994
0.999995
0.999996
0.999997
0.999998
0.999998
0.999999
0.999999
0.999999
1
1
1
1
1
1
1
1
1
1
1
1
1
1
1
1
1
1
1
1
1
1
1
1
1
1
1
1
1
1
1
1
1
1
1
1
1
1
1
1
1
1
1
1
1
1
1
1
1.00001
1.00001
1.00001
1.00002
1.00002
1.00002
1.00003
1.00004
1.00005
1.00005
1.00006
1.00008
1.0001
1.00013
1.00017
1.00024
1.00035
1.0005
1.00073
1.00105
1.00148
1.00206
1.00281
1.00376
1.00494
1.00634
1.00799
1.00986
1.01193
1.01416
1.01649
1.01888
1.02126
1.02356
1.02573
1.02773
1.02952
1.03109
1.03243
1.03355
1.03445
1.03517
1.03572
1.03612
1.0364
1.03659
1.03668
1.0367
1.03665
1.03651
1.03628
1.03595
1.03548
1.03485
1.03402
1.03298
1.03169
1.03015
1.02836
1.02633
1.02411
1.02175
1.01932
1.01689
1.01452
1.01228
1.01022
1.00837
1.00674
1.00534
1.00416
1.00319
1.0024
1.00177
1.00128
1.00091
1.00063
1.00042
1.00027
1.00016
1.00009
1.00004
1.00001
0.999987
0.999978
0.999974
0.999974
0.999975
0.999978
0.999982
0.999985
0.999988
0.999991
0.999993
0.999993
0.999995
0.999996
0.999997
0.999998
0.999999
0.999999
0.999999
1
1
1
1
1
1
1
1
1
1
1
1
1
1
1
1
1
1
1
1
1
1
1
1
1
1
1
1
1
1
1
1
1
1
1
1
1
1
1
1
1
1
1
1
1
1
1
1.00001
1.00001
1.00001
1.00001
1.00002
1.00002
1.00003
1.00004
1.00005
1.00005
1.00007
1.00008
1.0001
1.00013
1.00017
1.00024
1.00033
1.00048
1.0007
1.001
1.00143
1.00201
1.00277
1.00375
1.00498
1.00647
1.00824
1.01027
1.01254
1.01499
1.01758
1.02023
1.02285
1.02538
1.02774
1.02988
1.03176
1.03337
1.03469
1.03574
1.03655
1.03714
1.03755
1.03782
1.03798
1.03807
1.03811
1.03813
1.03812
1.03811
1.03808
1.03802
1.03791
1.03771
1.0374
1.03692
1.03622
1.03527
1.03402
1.03245
1.03057
1.02839
1.02596
1.02335
1.02066
1.01796
1.01535
1.01289
1.01064
1.00863
1.00688
1.0054
1.00416
1.00315
1.00234
1.00171
1.00121
1.00084
1.00057
1.00037
1.00023
1.00013
1.00006
1.00002
0.999992
0.999978
0.999972
0.99997
0.999971
0.999974
0.999978
0.999982
0.999985
0.999989
0.999991
0.999992
0.999994
0.999996
0.999997
0.999998
0.999998
0.999999
0.999999
1
1
1
1
1
1
1
1
1
1
1
1
1
1
1
1
1
1
1
1
1
1
1
1
1
1
1
1
1
1
1
1
1
1
1
1
1
1
1
1
1
1
1
1
1
1
1
1.00001
1.00001
1.00001
1.00002
1.00002
1.00003
1.00004
1.00004
1.00005
1.00007
1.00008
1.0001
1.00013
1.00017
1.00023
1.00032
1.00045
1.00065
1.00094
1.00136
1.00192
1.00269
1.00368
1.00494
1.0065
1.00836
1.01053
1.01298
1.01566
1.01848
1.02138
1.02424
1.02698
1.0295
1.03174
1.03366
1.03523
1.03645
1.03735
1.03795
1.0383
1.03845
1.03846
1.03837
1.03823
1.03807
1.03793
1.03784
1.0378
1.03783
1.03792
1.03806
1.03821
1.03836
1.03845
1.03842
1.03822
1.03778
1.03702
1.0359
1.03439
1.03246
1.03017
1.02756
1.02473
1.02178
1.01883
1.01598
1.01332
1.0109
1.00876
1.00692
1.00537
1.00409
1.00306
1.00224
1.00161
1.00113
1.00077
1.0005
1.00032
1.00018
1.0001
1.00004
1
0.999981
0.999971
0.999967
0.999968
0.99997
0.999974
0.999978
0.999982
0.999986
0.999989
0.99999
0.999993
0.999995
0.999996
0.999997
0.999998
0.999999
0.999999
0.999999
1
1
1
1
1
1
1
1
1
1
1
1
1
1
1
1
1
1
1
1
1
1
1
0.999999
1
1
1
1
1
1
1
1
1
1
1
1
1
1
1
1
1
1
1
1
1
1.00001
1.00001
1.00001
1.00002
1.00002
1.00003
1.00003
1.00004
1.00005
1.00007
1.00008
1.0001
1.00012
1.00016
1.00021
1.0003
1.00042
1.0006
1.00087
1.00126
1.00181
1.00256
1.00354
1.00481
1.00641
1.00835
1.01064
1.01324
1.01612
1.01918
1.02231
1.0254
1.02833
1.03099
1.03329
1.0352
1.03667
1.03772
1.03837
1.03867
1.03868
1.03847
1.0381
1.03763
1.03713
1.03664
1.03622
1.03588
1.03567
1.03559
1.03565
1.03586
1.0362
1.03664
1.03716
1.03769
1.0382
1.03859
1.03879
1.03871
1.03825
1.03734
1.03594
1.03403
1.03165
1.02888
1.02583
1.02265
1.01947
1.01641
1.01357
1.011
1.00876
1.00685
1.00526
1.00396
1.00292
1.00211
1.00149
1.00103
1.00068
1.00044
1.00026
1.00014
1.00007
1.00002
0.999987
0.999971
0.999965
0.999964
0.999966
0.99997
0.999975
0.999979
0.999984
0.999987
0.999988
0.999991
0.999994
0.999995
0.999997
0.999998
0.999998
0.999999
0.999999
1
1
1
1
1
1
1
1
1
1
1
1
1
1
1
1
1
1
1
1
1
1
1
1
1
1
1
1
1
1
1
1
1
1
1
1
1
1
1
1
1
1
1
1
1
1.00001
1.00001
1.00001
1.00002
1.00002
1.00003
1.00004
1.00005
1.00006
1.00008
1.0001
1.00012
1.00015
1.0002
1.00027
1.00038
1.00055
1.0008
1.00116
1.00168
1.00239
1.00335
1.00461
1.00621
1.0082
1.01057
1.01331
1.01637
1.01963
1.023
1.0263
1.02941
1.03219
1.03454
1.03639
1.03772
1.03853
1.03887
1.0388
1.03839
1.03772
1.03689
1.03596
1.035
1.03408
1.03326
1.03256
1.03203
1.0317
1.03157
1.03167
1.03198
1.03249
1.0332
1.03407
1.03505
1.03609
1.03711
1.03803
1.03873
1.03909
1.03901
1.03838
1.03713
1.03526
1.03282
1.0299
1.02666
1.02326
1.01986
1.01662
1.01362
1.01095
1.00863
1.00667
1.00506
1.00377
1.00274
1.00196
1.00136
1.00091
1.00059
1.00037
1.00021
1.0001
1.00004
0.999997
0.999974
0.999964
0.99996
0.999962
0.999966
0.999971
0.999976
0.999981
0.999985
0.999986
0.99999
0.999992
0.999995
0.999996
0.999997
0.999998
0.999999
0.999999
0.999999
1
1
1
1
1
1
1
1
1
1
1
1
1
1
1
1
1
1
1
1
1
1
1
1
1
1
1
1
1
1
1
1
1
1
1
1
1
1
1
1
1
1
1
1.00001
1.00001
1.00001
1.00002
1.00002
1.00003
1.00004
1.00005
1.00006
1.00007
1.00009
1.00011
1.00015
1.00019
1.00025
1.00035
1.0005
1.00072
1.00105
1.00152
1.00219
1.00311
1.00433
1.00592
1.00792
1.01034
1.01318
1.01638
1.01985
1.02342
1.02695
1.03023
1.03313
1.03551
1.03728
1.03843
1.03897
1.03895
1.03845
1.03757
1.0364
1.03504
1.03359
1.03213
1.03072
1.02942
1.02829
1.02737
1.02667
1.02623
1.02606
1.02616
1.02655
1.02721
1.02814
1.0293
1.03067
1.03219
1.0338
1.03541
1.03692
1.03818
1.03906
1.0394
1.03907
1.03801
1.03619
1.03368
1.03062
1.02719
1.02358
1.02
1.01659
1.01348
1.01073
1.00837
1.0064
1.0048
1.00352
1.00253
1.00177
1.00121
1.0008
1.0005
1.0003
1.00016
1.00007
1.00001
0.999981
0.999964
0.999958
0.999958
0.999961
0.999967
0.999972
0.999977
0.999982
0.999984
0.999988
0.999991
0.999993
0.999995
0.999997
0.999998
0.999998
0.999999
0.999999
0.999999
1
1
1
1
1
1
1
1
1
1
1
1
1
1
1
1
1
1
1
1
1
1
1
1
1
1
1
1
1
1
1
1
1
1
1
1
1
1
1
1
1
1.00001
1.00001
1.00001
1.00001
1.00002
1.00003
1.00003
1.00004
1.00006
1.00007
1.00009
1.00011
1.00014
1.00018
1.00023
1.00032
1.00045
1.00064
1.00093
1.00136
1.00198
1.00284
1.00401
1.00554
1.00751
1.00995
1.01285
1.01617
1.0198
1.02358
1.02732
1.03079
1.0338
1.03621
1.03791
1.03887
1.03912
1.03873
1.03778
1.0364
1.0347
1.03281
1.03082
1.02882
1.0269
1.02511
1.02351
1.02214
1.02104
1.02021
1.01969
1.01948
1.01959
1.02002
1.02078
1.02186
1.02324
1.0249
1.0268
1.0289
1.03111
1.03335
1.03548
1.03734
1.03876
1.03953
1.03951
1.03862
1.03683
1.03424
1.03103
1.02741
1.02362
1.01987
1.01634
1.01315
1.01036
1.00799
1.00604
1.00447
1.00324
1.00229
1.00158
1.00106
1.00068
1.00041
1.00023
1.00011
1.00004
0.999992
0.999968
0.999957
0.999955
0.999957
0.999962
0.999968
0.999974
0.999979
0.999981
0.999986
0.99999
0.999992
0.999995
0.999996
0.999997
0.999998
0.999999
0.999999
0.999999
1
1
1
1
1
1
1
1
1
1
1
1
1
1
1
1
1
1
1
1
1
1
1
1
1
1
1
1
1
1
1
1
1
1
1
1
1
1
1
1
1
1.00001
1.00001
1.00001
1.00002
1.00002
1.00003
1.00004
1.00005
1.00006
1.00008
1.0001
1.00013
1.00016
1.00021
1.00029
1.0004
1.00057
1.00082
1.0012
1.00176
1.00255
1.00364
1.0051
1.00701
1.00941
1.01233
1.01572
1.01949
1.02346
1.02741
1.03107
1.03423
1.03668
1.03833
1.03912
1.03909
1.03832
1.03693
1.03505
1.03284
1.03041
1.02788
1.02537
1.02294
1.02067
1.01861
1.0168
1.01527
1.01404
1.01313
1.01255
1.01231
1.01242
1.01287
1.01369
1.01485
1.01636
1.01821
1.02037
1.02281
1.02548
1.02831
1.03117
1.03393
1.03639
1.03833
1.03952
1.03978
1.039
1.03721
1.03452
1.03114
1.02733
1.02337
1.01949
1.01588
1.01264
1.00985
1.00751
1.00561
1.0041
1.00293
1.00204
1.00138
1.0009
1.00056
1.00033
1.00017
1.00007
1.00001
0.999975
0.999958
0.999953
0.999954
0.999958
0.999964
0.99997
0.999976
0.999979
0.999984
0.999988
0.999991
0.999994
0.999995
0.999997
0.999998
0.999999
0.999999
0.999999
1
1
1
1
1
1
1
1
1
1
1
1
1
1
1
1
1
1
1
1
1
1
1
1
1
1
1
1
1
1
1
1
1
1
1
1
1
1
1
1
1
1.00001
1.00001
1.00001
1.00002
1.00003
1.00003
1.00005
1.00006
1.00007
1.00009
1.00012
1.00015
1.00019
1.00026
1.00035
1.0005
1.00072
1.00105
1.00154
1.00225
1.00324
1.00461
1.00642
1.00875
1.01163
1.01505
1.01892
1.02306
1.02721
1.03109
1.03441
1.03695
1.03858
1.03923
1.03895
1.03784
1.03603
1.03369
1.03097
1.02804
1.02501
1.022
1.01909
1.01637
1.01388
1.01165
1.00972
1.00811
1.00682
1.00587
1.00526
1.005
1.0051
1.00555
1.00638
1.00757
1.00913
1.01107
1.01337
1.01602
1.01898
1.02221
1.02562
1.0291
1.03247
1.0355
1.03791
1.03946
1.03993
1.03922
1.03736
1.03451
1.03094
1.02696
1.02285
1.01887
1.01521
1.01198
1.00923
1.00695
1.00512
1.00369
1.00259
1.00177
1.00117
1.00075
1.00045
1.00025
1.00012
1.00003
0.999987
0.999962
0.999952
0.999951
0.999954
0.99996
0.999966
0.999973
0.999976
0.999981
0.999986
0.99999
0.999993
0.999995
0.999996
0.999997
0.999998
0.999999
0.999999
1
1
1
1
1
1
1
1
1
1
1
1
1
1
1
1
1
1
1
1
1
1
1
1
1
1
1
1
1
1
1
1
1
1
1
1
1
1
1
1
1.00001
1.00001
1.00001
1.00002
1.00002
1.00003
1.00004
1.00005
1.00007
1.00008
1.00011
1.00014
1.00018
1.00023
1.00031
1.00043
1.00062
1.0009
1.00133
1.00195
1.00284
1.00409
1.00577
1.00798
1.01078
1.01418
1.0181
1.02236
1.02671
1.03082
1.03435
1.03704
1.0387
1.03927
1.03879
1.03738
1.0352
1.03243
1.02926
1.02585
1.02236
1.01889
1.01555
1.01241
1.00952
1.00692
1.00463
1.00266
1.00103
0.999742
0.998788
0.998175
0.997905
0.997983
0.998416
0.999213
1.00038
1.00194
1.00388
1.00622
1.00894
1.01205
1.0155
1.01926
1.02324
1.02731
1.03124
1.03478
1.03761
1.03943
1.04001
1.03927
1.03727
1.03422
1.03045
1.02628
1.02206
1.01802
1.01436
1.01118
1.00851
1.00633
1.0046
1.00326
1.00226
1.00151
1.00098
1.0006
1.00035
1.00018
1.00007
1.00001
0.99997
0.999953
0.999949
0.99995
0.999956
0.999963
0.999969
0.999973
0.999979
0.999984
0.999988
0.999991
0.999994
0.999996
0.999997
0.999998
0.999999
0.999999
0.999999
1
1
1
1
1
1
1
1
1
1
1
1
1
1
1
1
1
1
1
1
1
1
1
1
1
1
1
1
1
1
1
1
1
1
1
1
1
1
1
1.00001
1.00001
1.00001
1.00002
1.00003
1.00003
1.00005
1.00006
1.00008
1.0001
1.00012
1.00016
1.0002
1.00027
1.00037
1.00053
1.00077
1.00113
1.00167
1.00245
1.00356
1.0051
1.00716
1.00982
1.01313
1.01703
1.02139
1.02592
1.03027
1.03405
1.03694
1.03871
1.03927
1.03867
1.03703
1.03453
1.03139
1.02781
1.02397
1.02005
1.01616
1.01242
1.0089
1.00565
1.00272
1.00011
0.997844
0.995919
0.994331
0.993075
0.992148
0.991546
0.99127
0.991323
0.991714
0.992455
0.993562
0.99505
0.996935
0.999227
1.00193
1.00506
1.00859
1.01252
1.01678
1.0213
1.02591
1.03037
1.03435
1.03749
1.03946
1.04004
1.03916
1.03694
1.03365
1.02965
1.02533
1.02102
1.01698
1.01337
1.01028
1.00772
1.00567
1.00406
1.00283
1.00192
1.00126
1.00079
1.00047
1.00025
1.00012
1.00003
0.999982
0.999957
0.999948
0.999948
0.999952
0.999959
0.999966
0.99997
0.999976
0.999982
0.999987
0.99999
0.999993
0.999995
0.999996
0.999998
0.999999
0.999999
0.999999
1
1
1
1
1
1
1
1
1
1
1
1
1
1
1
1
1
1
1
1
1
1
1
1
1
1
1
1
1
1
1
1
1
1
1
1
1
1
1
1.00001
1.00001
1.00001
1.00002
1.00003
1.00004
1.00005
1.00007
1.00009
1.00011
1.00014
1.00018
1.00024
1.00032
1.00045
1.00065
1.00095
1.0014
1.00208
1.00305
1.00442
1.0063
1.00878
1.01193
1.01576
1.02014
1.02482
1.02941
1.03348
1.03664
1.03861
1.03926
1.03862
1.03683
1.03408
1.03063
1.02669
1.02247
1.01816
1.01389
1.00978
1.00591
1.00234
0.999108
0.996226
0.993701
0.991528
0.989699
0.988198
0.987014
0.986135
0.985555
0.985272
0.98529
0.98562
0.986277
0.98728
0.988653
0.99042
0.992603
0.995216
0.998271
1.00177
1.00572
1.0101
1.01486
1.0199
1.02502
1.02992
1.03424
1.03758
1.03957
1.04001
1.03888
1.03636
1.03278
1.02857
1.02412
1.01977
1.01577
1.01226
1.0093
1.00689
1.00499
1.00352
1.00241
1.0016
1.00103
1.00062
1.00035
1.00018
1.00006
0.999999
0.999965
0.999949
0.999946
0.999949
0.999955
0.999962
0.999966
0.999974
0.99998
0.999985
0.999989
0.999992
0.999994
0.999996
0.999997
0.999998
0.999999
0.999999
0.999999
1
1
1
1
1
1
1
1
1
1
1
1
1
1
1
1
1
1
1
1
1
1
1
1
1
1
1
1
1
1
1
1
1
1
1
1
1
1.00001
1.00001
1.00001
1.00002
1.00002
1.00003
1.00004
1.00006
1.00008
1.0001
1.00013
1.00016
1.00021
1.00028
1.00038
1.00054
1.00079
1.00117
1.00174
1.00257
1.00377
1.00544
1.0077
1.01065
1.01432
1.01865
1.02342
1.02823
1.03262
1.03612
1.03838
1.03922
1.03865
1.0368
1.0339
1.0302
1.02595
1.0214
1.01673
1.01211
1.00766
1.00347
0.999607
0.996103
0.992977
0.990233
0.98786
0.985843
0.984158
0.982782
0.981696
0.980882
0.980332
0.980041
0.980014
0.980261
0.980803
0.981665
0.982877
0.984472
0.986482
0.988935
0.991849
0.995239
0.999113
1.00347
1.00831
1.01355
1.01908
1.02466
1.02993
1.03448
1.03786
1.03972
1.03987
1.03838
1.0355
1.03162
1.02721
1.02267
1.01834
1.01444
1.01107
1.00829
1.00605
1.00431
1.00299
1.00201
1.00131
1.00081
1.00047
1.00025
1.00011
1.00002
0.999976
0.999953
0.999945
0.999946
0.999952
0.999959
0.999963
0.999971
0.999977
0.999983
0.999988
0.999991
0.999994
0.999996
0.999997
0.999998
0.999998
0.999999
1
0.999999
1
1
1
1
1
1
1
1
1
1
1
1
1
1
1
1
1
1
1
1
1
1
1
1
1
1
1
1
1
1
1
1
1
1
1
1
1.00001
1.00001
1.00001
1.00002
1.00003
1.00004
1.00005
1.00006
1.00008
1.00011
1.00014
1.00018
1.00024
1.00033
1.00046
1.00065
1.00096
1.00143
1.00213
1.00315
1.00461
1.00663
1.00932
1.01277
1.01696
1.02173
1.02673
1.03144
1.03534
1.03799
1.03914
1.03875
1.03695
1.03398
1.03011
1.02563
1.02079
1.01581
1.01086
1.00608
1.00159
0.997439
0.993683
0.990339
0.987409
0.984877
0.98272
0.98091
0.979413
0.978197
0.977234
0.976502
0.975988
0.975687
0.975602
0.975747
0.976144
0.976826
0.977829
0.979197
0.980971
0.983194
0.985897
0.989103
0.992826
0.997077
1.00186
1.00715
1.01288
1.01888
1.02486
1.0304
1.03504
1.0383
1.03985
1.03958
1.03763
1.03434
1.03017
1.02559
1.02103
1.01677
1.01302
1.00984
1.00726
1.00522
1.00366
1.00249
1.00164
1.00104
1.00062
1.00035
1.00017
1.00006
0.999993
0.99996
0.999947
0.999945
0.999949
0.999956
0.99996
0.999968
0.999975
0.999981
0.999986
0.99999
0.999993
0.999995
0.999996
0.999998
0.999998
0.999999
0.999999
1
1
1
1
1
1
1
1
1
1
1
1
1
1
1
1
1
1
1
1
1
1
1
0.999999
1
1
1
1
1
1
1
1
1
1
1
1
1
1.00001
1.00001
1.00001
1.00002
1.00003
1.00004
1.00006
1.00007
1.00009
1.00012
1.00016
1.00021
1.00028
1.00038
1.00054
1.00078
1.00116
1.00174
1.0026
1.00384
1.0056
1.008
1.01116
1.01513
1.01981
1.0249
1.02991
1.03425
1.03738
1.03895
1.03888
1.03726
1.03433
1.03038
1.02573
1.02065
1.01538
1.01012
1.00504
1.00024
0.995822
0.991823
0.988273
0.985175
0.982517
0.980266
0.978385
0.976833
0.975565
0.974542
0.973729
0.973097
0.972628
0.972316
0.972166
0.972191
0.972417
0.97288
0.973627
0.974709
0.976182
0.9781
0.980513
0.983456
0.986952
0.991018
0.995663
1.00089
1.00666
1.01287
1.0193
1.0256
1.03129
1.03584
1.0388
1.03988
1.03906
1.03659
1.03288
1.02844
1.02376
1.01923
1.01511
1.01155
1.00861
1.00625
1.00442
1.00304
1.00203
1.0013
1.0008
1.00046
1.00024
1.0001
1.00002
0.999971
0.99995
0.999944
0.999946
0.999953
0.999957
0.999965
0.999973
0.999979
0.999985
0.999989
0.999992
0.999994
0.999996
0.999997
0.999999
0.999998
0.999999
0.999999
1
1
1
1
1
1
1
1
1
1
1
1
1
1
1
1
1
1
1
1
1
1
1
1
1
1
1
1
1
1
1
1
1
1
1
1.00001
1.00001
1.00001
1.00002
1.00002
1.00003
1.00005
1.00006
1.00008
1.00011
1.00014
1.00018
1.00023
1.00032
1.00044
1.00064
1.00094
1.0014
1.0021
1.00314
1.00464
1.00673
1.00956
1.01322
1.0177
1.02278
1.02802
1.0328
1.03648
1.03861
1.03898
1.03768
1.0349
1.03098
1.02623
1.02097
1.01545
1.00991
1.00453
0.999437
0.994736
0.990492
0.986739
0.983483
0.980714
0.978399
0.976494
0.974946
0.973702
0.972706
0.97191
0.971271
0.970757
0.970345
0.970028
0.969808
0.969701
0.969736
0.96995
0.970397
0.971138
0.97224
0.973774
0.975808
0.978398
0.98158
0.98538
0.98981
0.994876
1.00057
1.00683
1.01352
1.02033
1.02685
1.03252
1.0368
1.03926
1.03971
1.03825
1.03521
1.0311
1.02646
1.02174
1.01732
1.0134
1.01009
1.0074
1.00529
1.00367
1.00248
1.00162
1.00101
1.0006
1.00032
1.00015
1.00005
0.999986
0.999957
0.999946
0.999945
0.99995
0.999955
0.999963
0.999971
0.999977
0.999983
0.999988
0.999991
0.999994
0.999996
0.999997
0.999998
0.999999
0.999999
0.999999
1
1
1
1
1
1
1
1
1
1
1
1
1
1
1
1
1
1
1
1
1
1
1
1
1
1
1
1
1
1
1
1
1
1
1
1.00001
1.00001
1.00001
1.00002
1.00003
1.00004
1.00005
1.00007
1.00009
1.00012
1.00015
1.0002
1.00026
1.00036
1.00052
1.00075
1.00112
1.00168
1.00253
1.00377
1.00556
1.00802
1.01131
1.01548
1.02042
1.02578
1.03095
1.03522
1.038
1.03898
1.03813
1.03566
1.03187
1.02712
1.02174
1.01602
1.01022
1.00454
0.999153
0.994166
0.989664
0.985695
0.982278
0.979403
0.977038
0.975137
0.973641
0.972481
0.971591
0.970906
0.970366
0.969924
0.969544
0.969201
0.968885
0.968598
0.968356
0.968188
0.968135
0.968252
0.968606
0.969278
0.970352
0.971918
0.974053
0.976819
0.980254
0.98438
0.989204
0.994729
1.00092
1.00769
1.01482
1.02193
1.02851
1.03397
1.03777
1.03955
1.03925
1.03708
1.03349
1.02904
1.02426
1.0196
1.01536
1.01169
1.00866
1.00625
1.00439
1.00299
1.00198
1.00126
1.00076
1.00043
1.00021
1.00008
1.00001
0.999966
0.999949
0.999945
0.999948
0.999953
0.999961
0.999968
0.999976
0.999981
0.999987
0.99999
0.999993
0.999995
0.999997
0.999998
0.999999
0.999999
1
1
1
1
1
1
1
1
1
1
1
1
1
1
1
1
1
1
1
1
1
1
1
1
1
1
1
1
1
1
1
1
1
1
1
1
1.00001
1.00001
1.00001
1.00002
1.00003
1.00004
1.00005
1.00007
1.0001
1.00013
1.00017
1.00022
1.0003
1.00042
1.0006
1.00088
1.00133
1.002
1.00302
1.0045
1.0066
1.00948
1.01324
1.01791
1.02323
1.02868
1.03353
1.03704
1.03876
1.03854
1.03651
1.033
1.02835
1.02293
1.01706
1.01103
1.00508
0.999385
0.994097
0.989319
0.985115
0.981515
0.97852
0.976105
0.97422
0.9728
0.971769
0.971043
0.970543
0.970193
0.969926
0.969691
0.96945
0.969181
0.968872
0.968524
0.968154
0.967788
0.967469
0.967248
0.967197
0.967399
0.967956
0.968974
0.970557
0.972796
0.975754
0.979468
0.983956
0.989219
0.995244
1.00197
1.00923
1.01674
1.02402
1.03048
1.03551
1.03861
1.03955
1.0384
1.03552
1.03143
1.02672
1.02192
1.01739
1.01339
1.01003
1.0073
1.00518
1.00357
1.00238
1.00154
1.00095
1.00055
1.00029
1.00013
1.00003
0.999979
0.999955
0.999946
0.999947
0.999952
0.999959
0.999966
0.999974
0.99998
0.999985
0.99999
0.999992
0.999995
0.999996
0.999997
0.999998
0.999999
0.999999
1
1
1
1
1
1
1
1
1
1
1
1
1
1
1
1
1
1
1
1
1
1
1
1
1
1
1
1
1
1
1
1
1
1
1
1.00001
1.00001
1.00002
1.00002
1.00003
1.00004
1.00006
1.00008
1.0001
1.00014
1.00018
1.00025
1.00034
1.00048
1.00069
1.00104
1.00157
1.00237
1.00358
1.00532
1.00777
1.01108
1.01534
1.02045
1.02602
1.03135
1.03563
1.0382
1.03877
1.03737
1.03428
1.02986
1.0245
1.01855
1.01234
1.00613
1.00013
0.994528
0.989446
0.984974
0.98116
0.978017
0.975529
0.973649
0.972311
0.971428
0.970904
0.97064
0.97054
0.970521
0.970514
0.970469
0.970351
0.970143
0.969839
0.969442
0.968964
0.968428
0.96787
0.967337
0.966896
0.96663
0.966647
0.967068
0.968024
0.969636
0.972002
0.975189
0.979227
0.984128
0.989882
0.996448
1.00371
1.01144
1.01921
1.02648
1.0326
1.03696
1.03917
1.03915
1.03711
1.03355
1.02906
1.02421
1.01948
1.01518
1.01148
1.00845
1.00605
1.00421
1.00284
1.00186
1.00116
1.00069
1.00038
1.00018
1.00006
0.999997
0.999963
0.999949
0.999947
0.999951
0.999957
0.999965
0.999972
0.999979
0.999984
0.999989
0.999992
0.999994
0.999996
0.999997
0.999998
0.999999
0.999999
0.999999
1
1
1
1
1
1
1
1
1
1
1
1
1
1
1
1
1
1
1
1
1
1
1
1
1
1
1
1
1
1
1
1
1
1.00001
1.00001
1.00001
1.00002
1.00003
1.00003
1.00005
1.00006
1.00009
1.00011
1.00015
1.0002
1.00027
1.00038
1.00054
1.0008
1.00121
1.00184
1.0028
1.00421
1.00625
1.00907
1.01284
1.01758
1.02305
1.0287
1.03368
1.03718
1.03868
1.03809
1.0356
1.03156
1.02639
1.02045
1.01412
1.00768
1.00139
0.995458
0.990048
0.985269
0.981195
0.977858
0.975256
0.973349
0.972073
0.971334
0.971021
0.971017