/*--------------------------------*- C++ -*----------------------------------*\
  =========                 |
  \\      /  F ield         | OpenFOAM: The Open Source CFD Toolbox
   \\    /   O peration     | Website:  https://openfoam.org
    \\  /    A nd           | Version:  6
     \\/     M anipulation  |
\*---------------------------------------------------------------------------*/
FoamFile
{
    version     2.0;
    format      ascii;
    class       surfaceVectorField;
    location    "1.27";
    object      Uf;
}
// * * * * * * * * * * * * * * * * * * * * * * * * * * * * * * * * * * * * * //

dimensions      [0 1 -1 0 0 0 0];

internalField   nonuniform List<vector> 
8193
(
(4.97307 -0.0136553 0)
(4.9999 -0.0227891 0)
(4.92921 -0.0344839 1.06051e-20)
(4.97849 0.00862726 0)
(5.00285 0.00246637 0)
(4.96937 0.0304985 0)
(4.98735 0.0242608 -1.97043e-21)
(4.96537 0.0505168 4.4597e-22)
(4.97649 0.0421228 -2.8271e-21)
(4.97005 0.0688642 -5.19432e-21)
(4.97699 0.0603023 -7.54898e-21)
(4.98162 0.0869303 -1.85902e-22)
(4.98443 0.0789225 4.7935e-21)
(4.99759 0.103351 -1.29574e-21)
(4.99711 0.0968208 8.12356e-21)
(5.01333 0.1163 -7.18642e-22)
(5.01143 0.11212 3.82573e-21)
(5.02446 0.12525 -9.12554e-23)
(5.02356 0.123532 2.07761e-22)
(5.02896 0.130378 -5.6994e-21)
(5.03001 0.130796 2.32407e-22)
(5.02812 0.131883 -1.8839e-22)
(5.0301 0.134218 -2.73043e-22)
(5.02519 0.130144 -8.64302e-23)
(5.02621 0.134065 1.54354e-23)
(5.02332 0.124833 -6.10243e-22)
(5.02182 0.13045 2.72203e-22)
(5.02358 0.115951 1.13237e-22)
(5.01937 0.123259 1.13547e-22)
(5.02534 0.103799 5.16357e-22)
(5.01906 0.112484 -6.41764e-22)
(5.02744 0.0889839 -7.06971e-21)
(5.01981 0.0985532 1.82941e-22)
(5.02908 0.0720796 6.35152e-21)
(5.02045 0.0820822 -2.51957e-22)
(5.02989 0.0533863 1.23515e-21)
(5.02032 0.0636558 -7.99738e-21)
(5.0291 0.0329932 2.10138e-21)
(5.01909 0.0434424 -4.21814e-22)
(5.02845 0.0115426 1.71843e-21)
(5.01575 0.021678 -1.1534e-20)
(5.02847 -0.00933141 -1.44599e-21)
(5.0158 0.000366461 4.63179e-22)
(5.02698 -0.0286669 -1.20712e-22)
(5.0152 -0.0179963 1.34842e-20)
(5.02456 -0.0468557 4.10669e-21)
(5.01258 -0.034274 -1.37356e-20)
(5.02276 -0.0644427 1.14953e-20)
(5.00969 -0.0512124 -1.6034e-20)
(5.02199 -0.0809387 -1.44905e-21)
(5.00874 -0.0696887 -1.43407e-21)
(5.02134 -0.095311 0)
(5.00947 -0.0877652 -2.21689e-21)
(5.02002 -0.106655 0)
(5.01067 -0.103 4.73417e-21)
(5.01795 -0.11475 7.12072e-22)
(5.01138 -0.114279 0)
(5.01562 -0.11966 -6.19306e-22)
(5.01181 -0.121618 1.97957e-22)
(5.01322 -0.121273 -6.98106e-22)
(5.01268 -0.12531 -1.35465e-21)
(5.00995 -0.119417 0)
(5.01373 -0.125317 0)
(5.00429 -0.113839 8.57782e-23)
(5.0136 -0.121435 0)
(4.99498 -0.104568 1.40264e-22)
(5.01046 -0.11358 -2.32059e-21)
(4.98214 -0.092059 -2.41177e-23)
(5.00315 -0.101871 5.43483e-23)
(4.96778 -0.0772782 -1.22248e-21)
(4.99208 -0.0871748 -8.51751e-23)
(4.95588 -0.0612609 4.32457e-21)
(4.97974 -0.0708024 -3.2504e-21)
(4.9498 -0.0446909 1.25847e-21)
(4.97075 -0.0540037 1.26889e-21)
(4.95053 -0.0265643 6.85912e-22)
(4.96843 -0.0377185 4.99648e-21)
(4.95268 -0.0064029 1.48002e-21)
(4.97422 -0.0214533 -3.61207e-20)
(4.93672 0.012861 -3.66898e-20)
(4.97949 -0.000401028 -9.86773e-21)
(4.9658 0.0238457 -4.00498e-20)
(4.88013 0.0324969 3.20419e-19)
(5.01952 0.00517741 0)
(5.02421 -0.0064042 2.689e-20)
(5.01825 -0.0198878 -4.10375e-20)
(5.00332 0.020725 -1.91183e-21)
(5.0107 0.0142694 9.16881e-22)
(4.98867 0.0362694 -3.08313e-20)
(4.99539 0.0318306 -1.35745e-20)
(4.98411 0.0534415 4.90763e-21)
(4.98692 0.0467135 5.33997e-21)
(4.98784 0.0710753 6.35406e-21)
(4.98764 0.0633006 2.3101e-21)
(4.99695 0.0892178 5.20872e-21)
(4.9944 0.0810979 8.05376e-21)
(5.00877 0.105753 2.98498e-21)
(5.00509 0.0986285 1.25754e-21)
(5.02033 0.119185 6.82524e-22)
(5.01706 0.114077 1.26562e-21)
(5.02841 0.128549 -9.67747e-22)
(5.02705 0.125912 2.1635e-21)
(5.03095 0.13389 -2.37392e-23)
(5.03201 0.133545 3.55176e-22)
(5.02844 0.135378 -4.8309e-23)
(5.03096 0.137182 -1.16823e-21)
(5.0234 0.133663 -8.62993e-23)
(5.02606 0.137163 -2.47419e-23)
(5.01885 0.128603 -6.29463e-23)
(5.02025 0.133756 7.43255e-22)
(5.0162 0.11999 -6.42083e-22)
(5.01602 0.126907 4.8759e-22)
(5.01523 0.107779 -2.71645e-21)
(5.0138 0.116358 -4.14196e-21)
(5.01489 0.0923903 -7.31677e-22)
(5.01274 0.102217 -2.41383e-21)
(5.01422 0.0743557 -6.84218e-23)
(5.01173 0.084878 -3.34954e-21)
(5.01261 0.0542815 -1.00832e-21)
(5.0101 0.0649247 -6.37035e-21)
(5.00943 0.0327306 -1.48882e-21)
(5.00749 0.042927 -1.42694e-21)
(5.00723 0.0109027 -1.12618e-21)
(5.00322 0.0199929 1.38136e-20)
(5.00704 -0.00865444 2.2292e-21)
(5.00365 -0.00019925 4.66287e-22)
(5.00549 -0.0244904 -1.24093e-22)
(5.00438 -0.0151463 1.66673e-20)
(5.00228 -0.0395174 -7.01475e-21)
(5.00114 -0.0264318 -1.3531e-21)
(4.99987 -0.0573017 -5.73846e-21)
(4.9954 -0.0418329 -2.43355e-20)
(4.99994 -0.0770661 -2.19551e-21)
(4.99249 -0.0635648 1.17978e-20)
(5.00197 -0.0956515 2.72245e-21)
(4.99387 -0.0866512 3.89473e-21)
(5.00457 -0.110545 4.732e-21)
(4.99788 -0.106173 8.35979e-21)
(5.00706 -0.121 -5.10172e-22)
(5.00222 -0.120162 -2.79183e-21)
(5.0099 -0.127095 -1.97711e-21)
(5.00656 -0.128994 -4.22894e-21)
(5.01321 -0.129362 -6.58699e-22)
(5.01111 -0.133293 -4.63925e-22)
(5.0162 -0.127412 0)
(5.01644 -0.133199 1.62505e-22)
(5.01731 -0.121327 -8.80533e-23)
(5.02065 -0.128837 1.22101e-21)
(5.01489 -0.110996 -8.75078e-23)
(5.02219 -0.12013 9.1973e-22)
(5.00816 -0.0969791 -2.85645e-22)
(5.0193 -0.10723 -6.35308e-22)
(4.99819 -0.080664 3.81355e-23)
(5.01145 -0.0911992 9.42132e-22)
(4.98809 -0.0636979 3.34831e-22)
(5.00057 -0.0738494 2.18682e-21)
(4.98214 -0.0475137 5.06847e-21)
(4.99084 -0.0569563 -6.1585e-21)
(4.98317 -0.032003 1.05055e-20)
(4.98683 -0.0418102 -4.59202e-21)
(4.98962 -0.0172647 1.66577e-20)
(4.99011 -0.0277377 1.16148e-20)
(4.99584 -0.00162807 1.05665e-20)
(4.99569 -0.00929982 -9.3644e-21)
(4.99938 0.011934 -1.74791e-20)
(4.98746 0.0243155 -3.904e-20)
(5.02295 0.011446 -1.14293e-19)
(5.03524 0.002407 4.75749e-20)
(5.04127 -0.00685858 2.07069e-19)
(5.00542 0.0249806 3.29699e-21)
(5.01749 0.0195638 -1.29948e-20)
(4.99486 0.0397512 -5.85387e-22)
(5.00473 0.0358249 -4.92283e-21)
(4.9919 0.0561458 -5.51285e-21)
(4.99772 0.0499896 -5.35249e-21)
(4.99545 0.0731779 -4.32105e-21)
(4.99824 0.0656937 -2.13858e-21)
(5.00352 0.0905751 -4.29657e-21)
(5.00412 0.0828117 -1.99858e-21)
(5.01395 0.106895 -1.61843e-21)
(5.01312 0.100052 -8.08461e-21)
(5.024 0.12053 1.76198e-21)
(5.02298 0.11563 -1.61549e-21)
(5.03074 0.130322 3.78871e-21)
(5.03094 0.127863 -2.10298e-22)
(5.03225 0.136068 -6.51912e-21)
(5.03434 0.135915 1.78695e-21)
(5.02886 0.137964 -1.16766e-21)
(5.03206 0.139908 -1.21854e-21)
(5.02289 0.13633 1.44084e-22)
(5.02595 0.140175 -7.22218e-23)
(5.01714 0.131359 7.03938e-21)
(5.01868 0.137001 3.65144e-22)
(5.01306 0.122831 2.40947e-21)
(5.01267 0.13041 -3.06016e-22)
(5.01053 0.110536 -9.8671e-21)
(5.00845 0.119962 -1.62192e-21)
(5.00864 0.0945864 -6.36574e-21)
(5.0054 0.105387 9.4252e-22)
(5.00654 0.0753553 -9.71219e-21)
(5.0025 0.0867229 1.25312e-20)
(5.00376 0.0535074 -6.90339e-21)
(4.9992 0.064477 1.6488e-21)
(4.9999 0.030478 1.44106e-20)
(4.99553 0.0399067 -4.65325e-22)
(4.99815 0.00872402 1.55704e-20)
(4.99129 0.0157534 1.44052e-20)
(4.99951 -0.00796987 1.5333e-20)
(4.99373 -0.00228131 5.10709e-22)
(4.99844 -0.0187405 1.56079e-20)
(4.99698 -0.0118039 -2.37816e-20)
(4.99255 -0.0300471 -8.82758e-21)
(4.99202 -0.0173742 -5.85738e-23)
(4.98637 -0.0490048 2.74841e-21)
(4.98002 -0.032154 4.14834e-21)
(4.98493 -0.0734619 1.78558e-20)
(4.9729 -0.0592812 -1.72325e-20)
(4.98846 -0.0970615 3.87479e-21)
(4.97493 -0.0884532 -4.39426e-21)
(4.99439 -0.115619 -7.76482e-21)
(4.98294 -0.112575 -2.72788e-21)
(5.00079 -0.128055 -1.57886e-21)
(4.99234 -0.129322 -6.53297e-21)
(5.00749 -0.13504 1.38892e-21)
(5.00146 -0.139529 3.83772e-21)
(5.01439 -0.137231 1.42609e-21)
(5.01047 -0.14391 1.39446e-21)
(5.021 -0.134658 1.38011e-21)
(5.02056 -0.143077 -2.44114e-21)
(5.02605 -0.127705 2.2161e-21)
(5.02941 -0.137755 -2.74581e-21)
(5.02757 -0.116386 3.58558e-22)
(5.03587 -0.127877 -3.03568e-21)
(5.02403 -0.101382 1.08322e-23)
(5.03755 -0.113786 8.20172e-22)
(5.01574 -0.0842571 2.36113e-21)
(5.03295 -0.0967032 2.90101e-21)
(5.00565 -0.0669289 -4.43903e-21)
(5.02328 -0.0786517 1.8271e-21)
(4.99825 -0.050618 -1.38435e-20)
(5.01296 -0.0615941 -6.16159e-21)
(4.99664 -0.035497 1.06761e-20)
(5.00732 -0.0466986 -4.59614e-21)
(5.0005 -0.0214947 -4.06002e-20)
(5.00827 -0.0329536 4.73259e-20)
(5.00737 -0.00730075 -1.99413e-20)
(5.01297 -0.015457 -6.04943e-21)
(5.01948 0.00262077 -3.12838e-20)
(5.01536 0.00996002 -3.84416e-20)
(5.03149 0.0175411 1.19913e-19)
(5.04363 0.0106404 2.10494e-20)
(5.05107 0.00350156 -8.75874e-20)
(5.01591 0.0309751 -2.03636e-20)
(5.02618 0.0259653 -1.25879e-20)
(5.00622 0.0446373 -1.68739e-20)
(5.01434 0.0409588 4.8678e-21)
(5.00318 0.0595413 -2.08265e-21)
(5.00808 0.0540487 3.91833e-20)
(5.00609 0.0755605 -4.20154e-22)
(5.00852 0.0686641 -2.03777e-21)
(5.0129 0.0923667 -5.76671e-21)
(5.01373 0.0850549 2.63391e-20)
(5.02143 0.108609 -8.05645e-21)
(5.02137 0.101977 -6.60807e-21)
(5.02936 0.122544 -2.06911e-21)
(5.02936 0.117635 0)
(5.03418 0.132828 -1.31102e-21)
(5.03536 0.130249 -2.11126e-21)
(5.03417 0.138993 7.79203e-22)
(5.03707 0.138782 2.25046e-21)
(5.02945 0.141464 -1.2403e-22)
(5.0335 0.143197 -1.74156e-21)
(5.02205 0.140121 5.09729e-21)
(5.02594 0.143903 1.15775e-21)
(5.01446 0.135498 -5.84616e-22)
(5.0172 0.141156 7.85381e-22)
(5.00832 0.127161 4.69495e-23)
(5.0093 0.134888 -5.9248e-22)
(5.00359 0.1146 4.76747e-21)
(5.00287 0.124485 1.01159e-21)
(4.99951 0.0975123 1.68359e-20)
(4.99742 0.109167 -6.26726e-21)
(4.99543 0.0759961 2.0788e-20)
(4.99215 0.0884448 3.59491e-21)
(4.99127 0.0511018 6.3124e-21)
(4.98696 0.0627 4.81728e-21)
(4.98726 0.0257688 3.88227e-21)
(4.98281 0.0343653 3.06809e-21)
(4.98728 0.00441523 3.47524e-21)
(4.98026 0.00857342 -1.34009e-20)
(4.99164 -0.00785596 -3.30394e-20)
(4.98697 -0.00612106 -2.26337e-22)
(4.99097 -0.0122531 -3.0079e-20)
(4.99368 -0.00874059 -2.09039e-20)
(4.97979 -0.020752 1.39693e-20)
(4.98479 -0.0103537 -2.75396e-20)
(4.96674 -0.0430059 -1.58928e-20)
(4.96257 -0.0263599 4.11474e-20)
(4.96307 -0.0741228 -3.73108e-20)
(4.94929 -0.0606594 -2.02277e-20)
(4.96951 -0.103681 -8.31687e-21)
(4.95277 -0.0963966 -9.81085e-21)
(4.98087 -0.126053 -3.07277e-21)
(4.96651 -0.124955 5.8765e-21)
(4.99319 -0.140506 -1.11478e-21)
(4.98235 -0.144234 -3.72447e-21)
(5.00523 -0.148275 2.74813e-21)
(4.99711 -0.155365 -2.29157e-20)
(5.01702 -0.149768 8.36251e-22)
(5.0118 -0.159211 9.2788e-22)
(5.02855 -0.146232 -1.60077e-21)
(5.02679 -0.157272 -9.38835e-23)
(5.03872 -0.13799 -3.71203e-21)
(5.04061 -0.150584 -4.02427e-21)
(5.04525 -0.125298 -5.42102e-22)
(5.05214 -0.139258 1.66559e-21)
(5.04577 -0.109027 3.84722e-21)
(5.05835 -0.123848 -3.87181e-21)
(5.0397 -0.0909355 2.35467e-21)
(5.05673 -0.105705 -2.35309e-22)
(5.02978 -0.0731315 -8.11508e-24)
(5.04779 -0.0869245 5.35893e-21)
(5.02125 -0.0569845 0)
(5.03626 -0.0695403 -3.59309e-21)
(5.0183 -0.0424565 1.5309e-20)
(5.02866 -0.0547247 1.78164e-20)
(5.02097 -0.0285496 1.70846e-20)
(5.02832 -0.0414846 -2.03058e-20)
(5.02666 -0.0144132 -1.8536e-19)
(5.03273 -0.0247639 3.74416e-20)
(5.03902 -0.00710844 -2.82522e-20)
(5.03492 0.00033384 -1.1027e-19)
(5.03971 0.024377 0)
(5.05243 0.0186082 0)
(5.05957 0.0117339 1.28505e-19)
(5.0246 0.0366912 2.12008e-20)
(5.03531 0.0322347 0)
(5.01558 0.0491476 6.52992e-20)
(5.02394 0.0459009 6.46093e-20)
(5.01288 0.0628912 3.82617e-20)
(5.01827 0.0581728 -8.61262e-21)
(5.01559 0.0781297 2.37216e-20)
(5.01877 0.0719527 3.42645e-20)
(5.02159 0.094455 2.20571e-20)
(5.02348 0.0876989 1.62395e-20)
(5.02874 0.1106 -2.1706e-21)
(5.02999 0.1043 1.30233e-20)
(5.03491 0.124808 0)
(5.0363 0.120002 6.54699e-22)
(5.03796 0.135609 1.41719e-21)
(5.04038 0.132978 1.7982e-21)
(5.03634 0.142358 -2.38485e-22)
(5.04028 0.142052 -3.56091e-21)
(5.03021 0.145239 2.02322e-21)
(5.03517 0.147015 -1.21863e-22)
(5.02137 0.144602 1.29315e-21)
(5.02615 0.148286 1.46846e-21)
(5.01212 0.14029 1.11251e-21)
(5.01568 0.146103 -1.36616e-22)
(5.00385 0.132139 1.30981e-21)
(5.0058 0.140257 8.08833e-22)
(4.99667 0.119088 -8.38294e-21)
(4.99684 0.1298 5.17677e-22)
(4.98998 0.100271 -2.06749e-20)
(4.98846 0.113328 1.68651e-22)
(4.98358 0.0753993 -1.35046e-20)
(4.98015 0.0896434 -1.34619e-20)
(4.97839 0.0461885 1.34986e-21)
(4.97282 0.0589825 2.06715e-22)
(4.97566 0.0177829 -1.59874e-20)
(4.96913 0.0256138 4.89867e-21)
(4.97962 -0.00273287 -1.91903e-20)
(4.9706 -0.0022381 -7.57997e-20)
(4.98836 -0.00953112 1.88497e-20)
(4.98408 -0.0123819 -7.42456e-22)
(4.98702 -0.00877193 -5.83656e-21)
(4.99382 -0.00755085 2.12883e-20)
(4.96757 -0.0171411 -1.76184e-22)
(4.9781 -0.00752464 -6.56479e-20)
(4.94503 -0.044711 4.48171e-20)
(4.94313 -0.0305198 9.65293e-21)
(4.93873 -0.0826831 1.10951e-20)
(4.92286 -0.0716038 1.60514e-20)
(4.94943 -0.117552 1.01448e-20)
(4.92896 -0.112896 -4.35146e-20)
(4.96781 -0.142864 1.01398e-20)
(4.95007 -0.144749 1.00818e-20)
(4.98706 -0.158759 -8.09462e-21)
(4.97324 -0.165506 0)
(5.00496 -0.166229 -8.29701e-21)
(4.99482 -0.176442 2.37692e-20)
(5.02192 -0.166632 6.65277e-22)
(5.01564 -0.179058 -3.27821e-22)
(5.0385 -0.161662 -2.54028e-21)
(5.03576 -0.175619 4.9956e-21)
(5.05371 -0.151854 1.37697e-21)
(5.05465 -0.167255 5.01385e-21)
(5.06495 -0.137741 -1.30133e-21)
(5.07114 -0.154419 -4.90434e-21)
(5.06905 -0.120348 -7.6959e-21)
(5.08167 -0.137881 9.3548e-22)
(5.06459 -0.101459 3.00334e-21)
(5.08277 -0.118983 -7.40247e-22)
(5.05416 -0.0831475 1.15903e-21)
(5.07435 -0.099666 7.77998e-21)
(5.04378 -0.0667648 1.46361e-20)
(5.0614 -0.0818401 -3.56524e-21)
(5.03901 -0.0522926 -6.97855e-21)
(5.05165 -0.0666878 6.93104e-21)
(5.04082 -0.0387299 -2.22902e-21)
(5.04984 -0.0533475 -2.64177e-20)
(5.04649 -0.0250872 2.62727e-20)
(5.05401 -0.0370174 2.74921e-20)
(5.06067 -0.0193954 5.73818e-20)
(5.05543 -0.0107089 9.95187e-20)
(5.04872 0.0309034 0)
(5.0618 0.0266252 0)
(5.06847 0.0196498 -4.32917e-20)
(5.0341 0.0421483 4.26145e-20)
(5.04486 0.0385842 5.81855e-20)
(5.02554 0.0537504 1.07039e-20)
(5.03381 0.0511723 -1.87764e-20)
(5.02311 0.0666487 4.78348e-22)
(5.02861 0.0628153 1.4156e-20)
(5.02568 0.0812327 3.92936e-20)
(5.02923 0.0758743 -5.33557e-20)
(5.03099 0.0971572 1.47358e-20)
(5.03358 0.091027 -4.30071e-20)
(5.03684 0.113215 1.09514e-20)
(5.03913 0.107318 9.95111e-21)
(5.04127 0.127663 2.46591e-21)
(5.04389 0.123034 1.36931e-23)
(5.04241 0.138957 -3.58992e-21)
(5.04604 0.13634 1.43313e-21)
(5.03902 0.146335 -2.27876e-21)
(5.044 0.145971 -4.45168e-21)
(5.03121 0.149844 2.1108e-21)
(5.03713 0.151612 2.39521e-21)
(5.0207 0.149784 -1.52771e-22)
(5.02646 0.153593 -1.97941e-21)
(5.00958 0.146073 -4.85192e-22)
(5.01417 0.15209 9.14235e-23)
(4.99891 0.138048 0)
(5.00204 0.146783 -1.89536e-21)
(4.9887 0.124248 7.72265e-21)
(4.99011 0.136204 -1.20251e-21)
(4.97866 0.102993 7.10285e-21)
(4.97802 0.118123 -4.78249e-21)
(4.96941 0.0735374 -2.15724e-22)
(4.96577 0.0905095 1.51265e-21)
(4.96358 0.038629 3.28785e-21)
(4.95603 0.0535326 -4.79751e-22)
(4.96407 0.00627813 -5.47964e-20)
(4.95405 0.0139224 2.8321e-21)
(4.97501 -0.0130305 -5.81512e-20)
(4.96265 -0.0165938 -8.47474e-22)
(4.98963 -0.0132223 0)
(4.98587 -0.0214748 0)
(4.98484 -0.00876205 -3.23026e-20)
(4.99722 -0.0114835 7.71561e-20)
(4.95329 -0.0218855 -5.63686e-20)
(4.97048 -0.0154505 9.25242e-20)
(4.92062 -0.0581324 -2.07594e-20)
(4.92135 -0.049293 -2.55884e-20)
(4.91284 -0.101634 -3.8213e-20)
(4.89592 -0.0943345 2.01531e-21)
(4.92939 -0.139975 -4.32381e-20)
(4.90572 -0.138696 -5.68428e-20)
(4.95614 -0.16694 0)
(4.93514 -0.172148 0)
(4.98292 -0.182838 4.25208e-21)
(4.96646 -0.192723 0)
(5.00715 -0.189049 4.13905e-21)
(4.99553 -0.202323 3.81679e-21)
(5.02973 -0.187955 5.23924e-21)
(5.02247 -0.203247 7.46778e-21)
(5.0515 -0.181232 9.55899e-21)
(5.04781 -0.19793 7.32849e-22)
(5.07168 -0.169782 -2.0996e-21)
(5.07161 -0.187732 4.8104e-21)
(5.08743 -0.154427 -2.32477e-21)
(5.0927 -0.173462 -2.07651e-20)
(5.09491 -0.136253 5.56371e-21)
(5.10716 -0.156087 3.71215e-21)
(5.09198 -0.116879 4.51323e-21)
(5.11083 -0.136792 1.67949e-21)
(5.08106 -0.0981364 2.74088e-21)
(5.10304 -0.117152 -2.74945e-21)
(5.0689 -0.0812467 -1.10196e-20)
(5.08895 -0.0988105 -1.8979e-20)
(5.0623 -0.066259 -6.94199e-21)
(5.07723 -0.0829249 1.78398e-21)
(5.06321 -0.0523617 1.5835e-20)
(5.07388 -0.0687723 8.80834e-21)
(5.06904 -0.0385678 6.38822e-20)
(5.0778 -0.052088 -9.96775e-22)
(5.08524 -0.034177 5.5512e-20)
(5.07896 -0.0240575 2.40814e-19)
(5.05832 0.0375055 5.62139e-20)
(5.0716 0.0350392 -1.09036e-19)
(5.07827 0.0276682 0)
(5.04384 0.0479478 1.20885e-20)
(5.05494 0.0452596 1.5627e-20)
(5.03564 0.0588253 -6.70519e-22)
(5.04406 0.0569233 1.51648e-20)
(5.03353 0.0710633 -2.25561e-20)
(5.03932 0.0680803 -6.31261e-20)
(5.03608 0.0851291 -1.0759e-19)
(5.04015 0.0805779 -2.37486e-20)
(5.04087 0.100724 -3.47848e-20)
(5.04426 0.0952479 1.21687e-22)
(5.04555 0.116693 -6.57394e-22)
(5.04896 0.111284 4.14034e-21)
(5.04827 0.131329 -9.94307e-22)
(5.05219 0.127013 -6.86324e-22)
(5.04745 0.143074 -9.56879e-23)
(5.05236 0.14062 -4.48108e-22)
(5.04211 0.151099 1.05407e-21)
(5.04821 0.150819 2.12715e-22)
(5.0325 0.155357 -1.68841e-21)
(5.03939 0.157231 2.50111e-21)
(5.02013 0.156057 -2.24703e-21)
(5.02687 0.160095 3.64226e-21)
(5.00686 0.15297 -1.29594e-21)
(5.01255 0.159421 2.44959e-21)
(4.99342 0.14515 -3.16095e-21)
(4.99789 0.154742 -3.97674e-21)
(4.97952 0.130322 -1.43729e-20)
(4.98235 0.144 -1.52859e-21)
(4.96515 0.105946 -1.11135e-20)
(4.96555 0.123935 -1.88488e-22)
(4.95237 0.0707755 1.3112e-21)
(4.9482 0.0915861 -4.0299e-20)
(4.94638 0.0289266 -1.22923e-21)
(4.93569 0.0473249 -1.2251e-21)
(4.95248 -0.00831951 5.50445e-20)
(4.93682 0.000641281 6.77219e-20)
(4.97374 -0.0266791 5.59932e-20)
(4.95598 -0.032831 1.33565e-19)
(4.99413 -0.0229923 7.66177e-20)
(4.99065 -0.0330205 0)
(4.98314 -0.0217544 2.09804e-19)
(5.00136 -0.026981 1.24017e-19)
(4.9382 -0.0437723 1.33417e-19)
(4.96249 -0.0439974 6.12718e-20)
(4.89626 -0.0857949 -2.94644e-21)
(4.90047 -0.0830724 1.15679e-21)
(4.88849 -0.131404 -5.9619e-21)
(4.87169 -0.12854 -2.93543e-21)
(4.9117 -0.170598 -2.61018e-21)
(4.88524 -0.172677 -1.52787e-20)
(4.94733 -0.197308 0)
(4.92318 -0.205841 1.2539e-21)
(4.98174 -0.211774 -3.80264e-22)
(4.96302 -0.224687 4.05084e-22)
(5.01243 -0.216187 -1.04453e-21)
(4.99955 -0.232154 4.0862e-21)
(5.04072 -0.213133 2.2599e-21)
(5.03257 -0.231055 4.36919e-23)
(5.06753 -0.204442 2.17104e-21)
(5.063 -0.22361 -1.34549e-21)
(5.09226 -0.191337 -1.46736e-20)
(5.09135 -0.211446 0)
(5.11203 -0.174927 -1.42458e-20)
(5.11644 -0.195754 6.40999e-21)
(5.1226 -0.156277 0)
(5.13436 -0.177669 0)
(5.12129 -0.136675 -4.96015e-21)
(5.14059 -0.158152 -2.60215e-20)
(5.11029 -0.117534 -2.40334e-20)
(5.13398 -0.138282 -1.93338e-20)
(5.09678 -0.0998746 -6.21263e-21)
(5.11955 -0.119322 3.70467e-21)
(5.08854 -0.0838959 1.2079e-20)
(5.10646 -0.102352 5.32023e-21)
(5.08856 -0.0690929 -7.55184e-21)
(5.10167 -0.0868561 -3.08834e-20)
(5.09472 -0.0546405 -7.09757e-21)
(5.10517 -0.0693013 6.68032e-20)
(5.11347 -0.0509204 -3.74013e-20)
(5.10603 -0.0396647 -4.86661e-20)
(5.06879 0.0446037 -1.51941e-19)
(5.0819 0.0438582 -1.56653e-19)
(5.0888 0.0358365 -9.62319e-20)
(5.05429 0.0543081 3.28098e-20)
(5.06561 0.0526223 -2.62426e-20)
(5.04637 0.0646755 -2.5144e-20)
(5.05498 0.0634944 -2.26443e-20)
(5.04464 0.0764348 -7.09041e-20)
(5.05072 0.0742893 -1.16482e-21)
(5.04727 0.0901157 6.39624e-20)
(5.05184 0.0863787 1.68181e-20)
(5.05158 0.105452 4.09506e-20)
(5.05576 0.100683 -1.55846e-20)
(5.0551 0.121331 4.31924e-21)
(5.0596 0.116523 4.33401e-21)
(5.05603 0.136107 0)
(5.06125 0.13227 -3.34509e-21)
(5.05309 0.148262 0)
(5.0593 0.146161 1.84511e-21)
(5.04561 0.156961 1.69569e-21)
(5.05288 0.156946 2.35367e-21)
(5.03398 0.16209 7.97183e-21)
(5.04192 0.164232 -8.52458e-22)
(5.01954 0.163718 8.298e-21)
(5.02736 0.168146 2.50341e-21)
(5.00369 0.161312 2.10656e-21)
(5.01072 0.168506 2.1478e-22)
(4.98691 0.153834 -2.49706e-23)
(4.99322 0.164546 -9.78015e-21)
(4.96854 0.137769 1.231e-20)
(4.97319 0.153605 8.70863e-21)
(4.94867 0.109829 -2.94078e-20)
(4.95046 0.131472 1.2894e-20)
(4.93151 0.0683058 -4.34064e-20)
(4.92666 0.0940875 -3.30655e-22)
(4.92592 0.0190241 6.73779e-20)
(4.91095 0.0425214 -4.98896e-23)
(4.93992 -0.0232923 1.46044e-19)
(4.9166 -0.0109231 -4.85552e-21)
(4.97257 -0.0416165 7.86286e-20)
(4.94888 -0.0457244 2.30376e-21)
(4.99713 -0.0416807 1.63936e-20)
(4.99338 -0.0445224 4.40697e-23)
(4.98005 -0.0528717 -5.66113e-20)
(5.00128 -0.0539926 -6.25761e-20)
(4.92481 -0.0843001 -7.48353e-20)
(4.95416 -0.0893239 -7.49312e-20)
(4.87582 -0.125848 1.15317e-21)
(4.88454 -0.128013 9.11521e-20)
(4.86828 -0.169845 -6.47623e-21)
(4.85257 -0.171376 0)
(4.89781 -0.207472 -5.27046e-21)
(4.86889 -0.212575 5.96045e-20)
(4.94197 -0.23235 1.6425e-21)
(4.91482 -0.243645 -3.58925e-20)
(4.98387 -0.244432 5.093e-21)
(4.96323 -0.259959 1.91576e-20)
(5.02099 -0.246733 4.38443e-21)
(5.00678 -0.264991 -4.01728e-20)
(5.05488 -0.241431 2.91075e-21)
(5.04587 -0.261652 -1.41402e-20)
(5.08646 -0.230632 2.84461e-21)
(5.08118 -0.252021 -4.13683e-20)
(5.1152 -0.215771 1.50766e-20)
(5.11368 -0.237737 2.40514e-21)
(5.13841 -0.198267 1.45939e-20)
(5.14214 -0.220452 1.81351e-20)
(5.15187 -0.179151 -2.62842e-20)
(5.16302 -0.201465 -5.96023e-21)
(5.1526 -0.159329 -3.98941e-20)
(5.17189 -0.181558 2.06863e-20)
(5.14244 -0.139708 8.2229e-21)
(5.16726 -0.161327 3.3463e-21)
(5.12852 -0.121049 1.46117e-20)
(5.15367 -0.141592 4.19308e-21)
(5.11913 -0.103706 -3.83667e-20)
(5.14016 -0.123279 -1.50178e-20)
(5.11826 -0.0875378 5.75234e-20)
(5.13429 -0.106109 -1.49135e-20)
(5.12455 -0.0720285 -3.23594e-20)
(5.13715 -0.0873582 7.45449e-20)
(5.14592 -0.0683822 -4.34475e-20)
(5.13705 -0.0564217 -1.56736e-19)
(5.08 0.0526083 -7.72868e-21)
(5.09291 0.0530568 1.46685e-20)
(5.09983 0.0443284 -6.91158e-21)
(5.06559 0.0617769 -5.92279e-20)
(5.07706 0.060939 3.64566e-20)
(5.05797 0.0717742 2.47365e-21)
(5.06687 0.0712519 -2.68961e-20)
(5.05668 0.0831636 4.65031e-20)
(5.06314 0.0817816 6.72691e-20)
(5.05943 0.0965316 -5.06848e-20)
(5.06461 0.0935836 -1.24253e-21)
(5.06323 0.111635 -3.93771e-20)
(5.06831 0.107624 -9.68279e-20)
(5.06549 0.127409 -3.35811e-21)
(5.07118 0.123319 0)
(5.06449 0.142293 -2.05665e-21)
(5.07107 0.139103 -3.5361e-21)
(5.05925 0.15485 4.19165e-21)
(5.06683 0.153291 1.94744e-21)
(5.04947 0.164282 -1.58603e-22)
(5.05798 0.164722 2.4772e-21)
(5.03563 0.170421 -6.98183e-21)
(5.0447 0.173009 -2.76137e-21)
(5.01886 0.173171 -6.20049e-21)
(5.0279 0.178154 1.19198e-21)
(4.99998 0.171696 1.02625e-22)
(5.00862 0.179784 -1.87605e-21)
(4.9791 0.164384 1.08756e-20)
(4.98771 0.176684 3.94256e-21)
(4.95524 0.147347 9.25235e-21)
(4.96241 0.165655 1.28983e-20)
(4.92861 0.115861 4.16988e-20)
(4.93221 0.141767 3.76817e-20)
(4.90613 0.0682675 4.26946e-20)
(4.90052 0.0999419 4.22564e-20)
(4.90162 0.0126516 -6.68025e-20)
(4.88134 0.0425753 -9.57395e-22)
(4.92535 -0.03255 -1.45096e-19)
(4.89307 -0.0151352 2.20318e-20)
(4.96861 -0.0528437 -7.83316e-20)
(4.93922 -0.0518992 -1.83875e-19)
(4.99643 -0.062226 -9.17423e-20)
(4.98985 -0.0522614 7.10322e-22)
(4.97499 -0.0933866 -9.25715e-20)
(4.99114 -0.0852814 -2.18293e-19)
(4.91366 -0.134105 8.93159e-20)
(4.94363 -0.141268 -9.64617e-22)
(4.86103 -0.173674 8.96324e-20)
(4.8736 -0.179025 7.24856e-21)
(4.85342 -0.213965 5.07706e-20)
(4.83915 -0.219066 -2.18646e-21)
(4.88828 -0.248029 1.36246e-20)
(4.85737 -0.256004 -1.0484e-20)
(4.94007 -0.270159 -1.80321e-20)
(4.90992 -0.283481 1.17164e-19)
(4.98911 -0.27973 1.35772e-20)
(4.96654 -0.29723 -7.88631e-20)
(5.03259 -0.279727 -1.9384e-20)
(5.01691 -0.299999 -4.98184e-22)
(5.07199 -0.272177 -5.12502e-20)
(5.06193 -0.29439 1.77207e-20)
(5.10808 -0.259162 -3.40772e-20)
(5.10209 -0.282603 3.57099e-21)
(5.14034 -0.242326 5.20584e-21)
(5.13851 -0.266046 2.35213e-21)
(5.16644 -0.223418 -3.66575e-21)
(5.16983 -0.246862 3.36805e-21)
(5.18259 -0.203475 3.67217e-20)
(5.19325 -0.226515 -5.82535e-21)
(5.18586 -0.183126 5.5198e-20)
(5.2048 -0.205749 4.11055e-20)
(5.17764 -0.162796 -3.94294e-21)
(5.20294 -0.184809 3.57794e-20)
(5.16448 -0.142961 -2.46506e-20)
(5.19145 -0.164077 -1.4858e-20)
(5.15469 -0.12406 4.29243e-21)
(5.17863 -0.144296 1.64466e-20)
(5.15302 -0.106281 1.62518e-20)
(5.17221 -0.125358 1.61046e-20)
(5.15908 -0.0894896 -4.86269e-21)
(5.17421 -0.105258 -5.04175e-20)
(5.18284 -0.0855853 5.48284e-20)
(5.1722 -0.0731156 1.47918e-19)
(5.09189 0.0617829 1.2172e-19)
(5.10486 0.0628384 3.89921e-20)
(5.11138 0.0535928 1.43639e-19)
(5.07787 0.0706888 7.20413e-20)
(5.0896 0.070401 3.82757e-20)
(5.07078 0.0803614 3.64997e-20)
(5.08003 0.0805014 1.43398e-20)
(5.07001 0.0914758 1.19689e-20)
(5.07696 0.0908752 6.34084e-20)
(5.07284 0.10458 -4.59578e-20)
(5.07876 0.102518 -4.26939e-20)
(5.07598 0.119466 -6.02771e-20)
(5.0821 0.116387 3.99832e-20)
(5.07677 0.13514 0)
(5.08376 0.131978 -9.29207e-21)
(5.07362 0.150152 0)
(5.08165 0.14782 8.9646e-21)
(5.0659 0.163167 0)
(5.07491 0.162353 -1.39744e-20)
(5.05364 0.173444 0)
(5.06347 0.174532 6.2617e-21)
(5.03741 0.180759 5.61876e-21)
(5.04773 0.183971 4.64711e-21)
(5.01801 0.184828 5.81742e-21)
(5.02846 0.190546 1.19329e-21)
(4.99564 0.184519 2.00927e-21)
(5.00618 0.193699 2.05549e-22)
(4.96973 0.177605 -6.65631e-21)
(4.98116 0.191751 3.32359e-20)
(4.93904 0.159918 2.8699e-20)
(4.94968 0.181034 -7.85023e-21)
(4.90435 0.125843 3.91139e-20)
(4.91061 0.156253 -1.84356e-20)
(4.87575 0.0738631 -4.69452e-22)
(4.86969 0.111708 1.75452e-21)
(4.87242 0.0148243 8.83173e-20)
(4.84691 0.0523748 -2.96879e-21)
(4.90664 -0.0334436 -1.49546e-20)
(4.86405 -0.00516293 1.17647e-20)
(4.96073 -0.0574291 -1.0665e-19)
(4.92409 -0.0453768 -1.28402e-19)
(4.98553 -0.0797293 -1.24099e-19)
(4.97618 -0.0505794 -4.2846e-22)
(4.96037 -0.137076 -1.25693e-19)
(4.96523 -0.113508 -1.59019e-19)
(4.90334 -0.186868 -9.12673e-20)
(4.92892 -0.192239 1.20565e-21)
(4.85128 -0.224488 -9.26951e-20)
(4.8662 -0.231152 -9.64333e-20)
(4.84386 -0.260752 -6.27544e-20)
(4.83054 -0.268134 9.76704e-20)
(4.88273 -0.290333 -2.15749e-20)
(4.85052 -0.300994 1.47113e-19)
(4.94091 -0.309246 2.03124e-20)
(4.90805 -0.323996 3.8495e-20)
(4.99684 -0.316777 -1.2892e-20)
(4.97197 -0.335726 -9.22203e-21)
(5.04674 -0.314559 2.06313e-20)
(5.02939 -0.336737 5.88385e-21)
(5.0917 -0.304836 4.02953e-20)
(5.08027 -0.328933 -1.86934e-20)
(5.13221 -0.289569 2.43546e-20)
(5.12537 -0.314987 2.44299e-20)
(5.16772 -0.270496 0)
(5.16575 -0.296016 -1.58161e-20)
(5.19634 -0.249762 0)
(5.19965 -0.274615 9.29475e-20)
(5.21501 -0.228418 0)
(5.22539 -0.252371 0)
(5.22119 -0.207036 2.03485e-20)
(5.23957 -0.230155 -6.96238e-20)
(5.21587 -0.185664 1.90555e-20)
(5.24107 -0.208056 4.2544e-20)
(5.20467 -0.16452 2.72445e-20)
(5.2327 -0.186098 -1.96454e-20)
(5.19539 -0.143988 3.16158e-20)
(5.22175 -0.164908 1.31145e-19)
(5.19313 -0.124507 -6.24217e-20)
(5.21545 -0.14425 -1.43087e-19)
(5.19846 -0.106305 1.30549e-20)
(5.21644 -0.122667 9.51487e-21)
(5.22424 -0.10231 -8.81983e-20)
(5.21137 -0.0890202 -1.09732e-19)
(5.1047 0.0724138 -4.93657e-20)
(5.1181 0.0735243 -5.03283e-20)
(5.12368 0.06403 -4.0282e-20)
(5.09144 0.0812051 6.29194e-21)
(5.10361 0.0812835 0)
(5.08519 0.0906796 7.0779e-20)
(5.09488 0.0915029 -1.20353e-19)
(5.08498 0.101659 1.10494e-20)
(5.09263 0.101893 -6.96788e-21)
(5.08771 0.114581 3.38061e-20)
(5.09464 0.113539 9.10338e-20)
(5.08991 0.12928 8.71209e-20)
(5.09731 0.127333 4.51351e-20)
(5.08891 0.144869 -1.70752e-21)
(5.09738 0.142847 3.39876e-20)
(5.08336 0.160042 -4.66249e-21)
(5.09297 0.158768 9.53757e-21)
(5.07298 0.173601 -6.84113e-21)
(5.08352 0.173711 -2.22052e-20)
(5.05809 0.184864 1.12192e-20)
(5.06934 0.186764 3.13519e-20)
(5.03927 0.19354 -6.02478e-22)
(5.05101 0.197535 -9.58542e-21)
(5.01691 0.199157 -5.41487e-21)
(5.02905 0.205769 -5.64607e-21)
(4.99047 0.200364 -3.23145e-21)
(5.00337 0.210759 2.1297e-22)
(4.95852 0.19426 2.3802e-21)
(4.97341 0.210416 -3.2902e-21)
(4.91957 0.176751 -7.4331e-20)
(4.93488 0.200865 1.65165e-20)
(4.87557 0.141892 -7.73914e-20)
(4.88578 0.176657 -1.09716e-19)
(4.84062 0.0893929 2.16382e-21)
(4.8351 0.132293 2.14982e-21)
(4.83793 0.0324339 -8.88081e-20)
(4.8088 0.077614 -5.12115e-21)
(4.88074 -0.0163223 -1.06797e-19)
(4.82856 0.0260816 -8.46828e-20)
(4.93956 -0.0464688 -1.99587e-20)
(4.89844 -0.0151528 3.74876e-19)
(4.95621 -0.0890514 -2.66249e-20)
(4.94599 -0.0338116 -1.09211e-21)
(4.93349 -0.174699 -2.58363e-20)
(4.92014 -0.132687 2.72745e-19)
(4.8913 -0.236953 -4.27894e-21)
(4.90574 -0.236523 1.0989e-20)
(4.84505 -0.274359 9.42681e-20)
(4.85999 -0.281276 -1.50731e-20)
(4.83885 -0.307887 2.30203e-19)
(4.82484 -0.316112 9.54319e-20)
(4.88056 -0.333059 1.3084e-19)
(4.84762 -0.346329 -6.25395e-20)
(4.94367 -0.349074 1.01473e-20)
(4.90855 -0.364973 1.52307e-22)
(5.00639 -0.355064 6.27651e-21)
(4.97875 -0.375378 -5.58838e-20)
(5.06306 -0.351137 -3.91232e-20)
(5.04347 -0.375328 5.00377e-21)
(5.11369 -0.339075 -3.44302e-20)
(5.10066 -0.365219 -1.15655e-20)
(5.15871 -0.321575 -1.58663e-20)
(5.1506 -0.349044 1.23792e-20)
(5.19748 -0.299996 8.08937e-20)
(5.19529 -0.327455 -9.75928e-20)
(5.22847 -0.277074 8.99649e-20)
(5.23166 -0.303546 5.18289e-21)
(5.24955 -0.253745 -7.03624e-20)
(5.25978 -0.278922 -1.05002e-19)
(5.25879 -0.230835 -4.07565e-20)
(5.27644 -0.254734 -1.72523e-20)
(5.25702 -0.208112 1.27413e-21)
(5.28159 -0.231082 8.25445e-20)
(5.24879 -0.185606 9.02694e-20)
(5.27701 -0.207726 -1.65932e-20)
(5.24099 -0.163546 -3.88248e-20)
(5.2689 -0.185315 4.21315e-20)
(5.23852 -0.142417 -6.40628e-20)
(5.26357 -0.162949 -1.10386e-19)
(5.24278 -0.122732 -9.47299e-20)
(5.26373 -0.139842 1.959e-19)
(5.27042 -0.118958 -1.25083e-19)
(5.25464 -0.104291 -9.68747e-20)
(5.11902 0.0846322 0)
(5.13319 0.0854338 0)
(5.13714 0.0758656 -1.2485e-19)
(5.10689 0.0933955 -1.02679e-19)
(5.11962 0.0939179 7.49929e-20)
(5.10172 0.102964 -1.60042e-19)
(5.11214 0.104451 -2.50281e-19)
(5.10195 0.113992 8.26999e-20)
(5.11071 0.115106 5.0722e-21)
(5.10425 0.126844 1.00003e-19)
(5.11256 0.126942 3.17454e-20)
(5.10506 0.141403 -3.35039e-21)
(5.11404 0.140763 3.61494e-21)