/*--------------------------------*- C++ -*----------------------------------*\
  =========                 |
  \\      /  F ield         | OpenFOAM: The Open Source CFD Toolbox
   \\    /   O peration     | Website:  https://openfoam.org
    \\  /    A nd           | Version:  6
     \\/     M anipulation  |
\*---------------------------------------------------------------------------*/
FoamFile
{
    version     2.0;
    format      ascii;
    class       volVectorField;
    location    "2.37";
    object      U;
}
// * * * * * * * * * * * * * * * * * * * * * * * * * * * * * * * * * * * * * //

dimensions      [0 1 -1 0 0 0 0];

internalField   nonuniform List<vector> 
4214
(
(4.91343 -0.0941705 -1.71009e-19)
(5.03071 -0.0287848 0)
(5.05849 0.0320198 4.12022e-20)
(5.0678 0.0783961 -5.57216e-21)
(5.0813 0.122661 -4.40299e-20)
(5.10036 0.165063 1.42958e-21)
(5.11976 0.203806 1.14486e-20)
(5.13406 0.239619 0)
(5.14061 0.273408 1.65245e-21)
(5.13806 0.305048 -2.49942e-21)
(5.1257 0.333802 3.92391e-22)
(5.10366 0.358998 -1.10793e-21)
(5.0738 0.380307 2.71745e-22)
(5.04213 0.397968 -1.62589e-22)
(5.02273 0.413915 -1.24724e-22)
(5.03435 0.430625 0)
(5.07985 0.452489 1.0359e-21)
(5.12759 0.475226 -1.10142e-21)
(5.10619 0.495458 -4.45716e-21)
(4.92259 0.489771 -2.03872e-20)
(4.6313 0.410867 0)
(4.58469 0.230996 -1.55397e-20)
(4.79852 0.097541 4.13714e-21)
(4.95896 0.0040434 1.33063e-21)
(4.96981 -0.0735201 -2.99713e-21)
(4.93733 -0.14002 -1.53814e-21)
(4.92227 -0.1904 0)
(4.93281 -0.224545 -2.51895e-23)
(4.955 -0.244945 -1.07322e-22)
(4.9782 -0.253794 1.39301e-22)
(4.99811 -0.253454 -1.75493e-22)
(5.01289 -0.245952 8.78926e-22)
(5.02143 -0.232471 6.44748e-22)
(5.02319 -0.213512 3.71907e-21)
(5.01876 -0.189107 6.00013e-22)
(5.01028 -0.158787 -4.54059e-22)
(5.00263 -0.122164 -2.16081e-20)
(4.99941 -0.0812511 1.38008e-20)
(4.99952 -0.0368629 0)
(4.98262 0.0185537 -7.41034e-20)
(4.87815 0.0804727 7.94704e-20)
(5.1418 -0.0475862 2.0277e-19)
(5.15495 0.0158995 2.1923e-20)
(5.15755 0.068018 -5.98003e-20)
(5.15966 0.106351 8.03828e-20)
(5.16975 0.147356 -2.46343e-20)
(5.18377 0.189164 0)
(5.19677 0.229078 -8.79343e-21)
(5.20518 0.267427 8.74108e-21)
(5.20618 0.304344 -7.10464e-22)
(5.19773 0.339435 1.169e-21)
(5.1787 0.371921 0)
(5.14937 0.401031 -2.99157e-21)
(5.11258 0.426459 -1.36349e-21)
(5.07586 0.449262 -1.50909e-21)
(5.05338 0.471545 1.37105e-21)
(5.06544 0.495785 -8.20928e-21)
(5.11198 0.522222 -2.53049e-21)
(5.15749 0.540173 1.51312e-20)
(5.11627 0.547447 1.0863e-20)
(4.8761 0.514786 -3.12244e-20)
(4.5006 0.407497 -6.03798e-22)
(4.43604 0.21989 -3.82179e-20)
(4.70472 0.102246 -6.86922e-21)
(4.89062 0.0092776 -2.03898e-20)
(4.91554 -0.0756809 4.27788e-21)
(4.89527 -0.149303 8.28755e-21)
(4.89561 -0.202896 7.80592e-23)
(4.91827 -0.237618 1.95779e-22)
(4.94867 -0.257287 -2.18643e-21)
(4.97715 -0.265142 -2.59261e-21)
(5.00072 -0.264125 8.04587e-23)
(5.01842 -0.256377 -8.00516e-22)
(5.03016 -0.243187 -3.28304e-21)
(5.03618 -0.225154 1.34747e-21)
(5.03759 -0.202505 6.60217e-21)
(5.03644 -0.175185 -1.07149e-21)
(5.03589 -0.142892 -1.51967e-20)
(5.0409 -0.108551 4.93699e-20)
(5.05409 -0.0765899 -7.09748e-20)
(5.0679 -0.0356464 7.91316e-20)
(5.0722 0.0185751 -1.54923e-20)
(5.18636 -0.0242157 -1.13319e-19)
(5.18638 0.0298104 -2.2535e-20)
(5.19476 0.0800721 0)
(5.20392 0.119799 0)
(5.2157 0.161066 1.23483e-20)
(5.22893 0.202703 2.82568e-21)
(5.24037 0.243499 1.62065e-20)
(5.2467 0.283427 -2.0727e-20)
(5.24526 0.322346 -8.1238e-21)
(5.23403 0.35992 -1.37023e-20)
(5.21187 0.395654 1.07765e-20)
(5.17936 0.42895 4.18906e-21)
(5.14023 0.459496 -5.31995e-21)
(5.10288 0.488616 -1.54748e-22)
(5.08151 0.517481 1.16198e-20)
(5.09202 0.548494 8.28461e-21)
(5.13274 0.578422 0)
(5.16581 0.593621 -1.30917e-20)
(5.1076 0.582819 4.42887e-22)
(4.82605 0.520612 1.16048e-19)
(4.41066 0.377941 0)
(4.36569 0.196779 1.39852e-19)
(4.66535 0.0984552 -3.19238e-21)
(4.86568 0.00575787 2.33882e-20)
(4.88414 -0.0835921 4.13903e-20)
(4.873 -0.158612 3.18149e-21)
(4.88207 -0.212261 -3.63986e-21)
(4.91105 -0.246478 1.71785e-22)
(4.94546 -0.265399 3.35899e-21)
(4.97666 -0.272552 9.19856e-22)
(5.002 -0.271005 -9.941e-22)
(5.02114 -0.262934 4.80321e-21)
(5.03428 -0.249679 1.10009e-20)
(5.04192 -0.231895 0)
(5.04526 -0.209872 0)
(5.04636 -0.183703 0)
(5.04814 -0.153227 -5.90632e-20)
(5.05431 -0.120212 0)
(5.06637 -0.0885678 0)
(5.0778 -0.0505715 -5.02533e-20)
(5.09561 -0.00703875 0)
(5.24394 -0.00334834 1.10211e-19)
(5.24922 0.0521807 -1.49802e-19)
(5.2591 0.0985983 1.43961e-19)
(5.26831 0.137283 -6.2219e-20)
(5.279 0.177447 4.78123e-20)
(5.29001 0.218194 -3.3827e-21)
(5.2986 0.258984 -7.18225e-21)
(5.30186 0.299657 4.73511e-21)
(5.29737 0.34013 8.30745e-21)
(5.2832 0.380319 1.58532e-20)
(5.2581 0.420087 -1.28757e-20)
(5.22275 0.459054 -2.30019e-20)
(5.18133 0.496962 7.16735e-21)
(5.14323 0.534691 0)
(5.12273 0.573057 3.24167e-21)
(5.13172 0.61262 -3.4999e-20)
(5.16242 0.645983 4.31838e-21)
(5.17083 0.658199 6.05759e-20)
(5.08334 0.621543 6.45203e-21)
(4.7469 0.514606 1.97051e-20)
(4.29529 0.33953 -7.05376e-22)
(4.28006 0.166075 1.34316e-19)
(4.61139 0.0857281 2.14793e-21)
(4.8082 -0.00398489 -2.31549e-21)
(4.84269 -0.0967363 9.55105e-21)
(4.84217 -0.172883 -9.32537e-21)
(4.86296 -0.22598 -5.95599e-21)
(4.90062 -0.25903 0)
(4.94087 -0.276685 6.79845e-22)
(4.97595 -0.282678 7.33039e-21)
(5.00393 -0.280191 1.59658e-21)
(5.02509 -0.271471 1.03945e-21)
(5.04016 -0.257904 -7.59244e-21)
(5.05003 -0.240218 -3.39602e-21)
(5.05612 -0.218774 0)
(5.0605 -0.193758 7.76643e-20)
(5.06577 -0.16525 1.0712e-19)
(5.07502 -0.134523 3.63244e-20)
(5.08927 -0.104824 0)
(5.10173 -0.0704468 1.78847e-19)
(5.12017 -0.0307842 -3.5095e-19)
(5.3012 0.0174236 7.23163e-20)
(5.30993 0.0751233 1.46805e-19)
(5.32004 0.114713 0)
(5.32975 0.15175 0)
(5.33975 0.189995 0)
(5.34907 0.229105 -2.44921e-20)
(5.35549 0.268957 9.89316e-21)
(5.35651 0.309601 5.23495e-20)
(5.35005 0.35122 1.4466e-20)
(5.33439 0.394042 -5.30687e-21)
(5.30825 0.438273 -3.86461e-20)
(5.27219 0.483813 5.62356e-20)
(5.23054 0.530524 2.0637e-20)
(5.19343 0.578786 0)
(5.17395 0.629229 -1.28278e-20)
(5.18111 0.679092 -3.17283e-20)
(5.19602 0.71718 -2.56398e-21)
(5.16865 0.71947 -6.24444e-20)
(5.02679 0.648116 -2.62356e-21)
(4.63916 0.490609 -9.3546e-20)
(4.17092 0.285295 0)
(4.21188 0.124083 -2.15614e-19)
(4.56453 0.0615111 0)
(4.77244 -0.0233492 -8.55621e-20)
(4.79969 -0.117319 1.05805e-20)
(4.81153 -0.192216 3.50344e-20)
(4.84422 -0.242882 9.82908e-21)
(4.89027 -0.273764 -1.557e-22)
(4.93624 -0.289706 -1.25597e-20)
(4.97517 -0.294235 -1.84394e-20)
(5.00581 -0.290551 6.59843e-22)
(5.02902 -0.280933 -1.00736e-20)
(5.04594 -0.266803 3.88938e-21)
(5.05777 -0.248948 4.15338e-20)
(5.06607 -0.227781 -2.19703e-20)
(5.07292 -0.203527 -5.94298e-20)
(5.08078 -0.176393 -8.76937e-20)
(5.09208 -0.14741 -5.66672e-20)
(5.10785 -0.118749 -6.93034e-20)
(5.12303 -0.0884736 -1.04082e-19)
(5.14139 -0.048704 1.99184e-19)
(5.36116 0.0405357 2.76494e-19)
(5.37333 0.0953152 5.59965e-20)
(5.38321 0.128684 0)
(5.39201 0.162215 1.19003e-19)
(5.4006 0.197 -1.01525e-19)
(5.40826 0.233368 -1.05265e-20)
(5.41296 0.271469 0)
(5.41255 0.311596 2.43159e-21)
(5.40532 0.354201 -1.03072e-19)
(5.3897 0.399771 -1.70442e-20)
(5.36432 0.448824 4.61097e-20)
(5.32971 0.501802 1.31033e-20)
(5.28999 0.558728 -8.50612e-20)
(5.25581 0.619774 5.38252e-22)
(5.23674 0.683933 4.07089e-24)
(5.2401 0.744499 6.31681e-20)
(5.22905 0.7874 -1.20679e-19)
(5.14542 0.766068 1.15646e-21)
(4.93577 0.655668 -2.42107e-19)
(4.49784 0.445839 -2.78724e-19)
(4.03479 0.212003 5.34128e-22)
(4.14016 0.0728447 0)
(4.52019 0.0267337 0)
(4.71125 -0.0545045 8.52755e-20)
(4.75444 -0.146682 -1.30594e-19)
(4.77927 -0.217762 -3.42369e-20)
(4.82365 -0.263997 1.98034e-22)
(4.87881 -0.291694 0)
(4.93099 -0.305332 2.78812e-20)
(4.97418 -0.307965 9.64255e-21)
(5.00786 -0.302737 0)
(5.03337 -0.291921 0)
(5.0523 -0.276967 3.25524e-20)
(5.06615 -0.2587 -5.15282e-20)
(5.07662 -0.237558 0)
(5.08583 -0.213782 0)
(5.09607 -0.187636 -6.44946e-20)
(5.10944 -0.160094 2.02255e-19)
(5.12648 -0.132218 -1.6962e-19)
(5.14466 -0.105347 0)
(5.16257 -0.0661511 0)
(5.41892 0.062902 0)
(5.43257 0.108843 2.90977e-19)
(5.44151 0.135949 -2.79463e-19)
(5.44933 0.164594 -1.72222e-20)
(5.45718 0.195189 8.79841e-20)
(5.46415 0.228539 -1.19285e-19)
(5.46828 0.264839 0)
(5.46781 0.304535 0)
(5.46133 0.348214 8.41188e-20)
(5.44747 0.396603 9.37877e-20)
(5.42506 0.450665 -8.08928e-20)
(5.3948 0.512091 -4.88065e-20)
(5.36003 0.580734 6.48939e-20)
(5.33137 0.657045 0)
(5.31064 0.735298 -4.83085e-22)
(5.30536 0.804891 1.15953e-21)
(5.24976 0.846819 1.20725e-19)
(5.09481 0.793026 1.30815e-21)
(4.80621 0.638297 2.4464e-19)
(4.32036 0.374675 2.79352e-19)
(3.89141 0.117109 -6.80333e-24)
(4.07206 0.0145549 -9.02001e-22)
(4.47547 -0.0210564 6.07662e-22)
(4.66131 -0.100064 -2.24544e-19)
(4.70573 -0.18706 6.78974e-20)
(4.7453 -0.25063 -8.07374e-22)
(4.80199 -0.290168 8.60067e-22)
(4.8666 -0.313543 1.48375e-20)
(4.92523 -0.323992 -1.49606e-20)
(4.97299 -0.324198 3.5727e-21)
(5.01001 -0.317042 -3.75722e-21)
(5.03807 -0.304717 1.06142e-20)
(5.05916 -0.288672 -3.20857e-20)
(5.07507 -0.26974 -2.7615e-20)
(5.08765 -0.248354 -3.04011e-21)
(5.09902 -0.224753 3.07171e-20)
(5.11136 -0.199223 -1.52394e-19)
(5.12648 -0.172656 -3.10057e-19)
(5.14464 -0.145596 3.1357e-19)
(5.1652 -0.12073 0)
(5.18401 -0.0832481 0)
(5.47162 0.0777071 -9.47249e-21)
(5.48403 0.111326 -3.30391e-19)
(5.49208 0.132762 0)
(5.5001 0.156786 2.369e-20)
(5.50871 0.183876 -7.33252e-20)
(5.51642 0.214981 4.81314e-21)
(5.52129 0.250113 6.46708e-20)
(5.52203 0.289785 -1.40458e-19)
(5.51761 0.334578 1.30724e-19)
(5.5072 0.385662 -9.64291e-20)
(5.49052 0.444732 8.30816e-20)
(5.46843 0.515679 0)
(5.44185 0.597295 1.07878e-20)
(5.42043 0.690766 -1.33246e-20)
(5.39218 0.780361 1.32472e-22)
(5.36839 0.853992 1.60925e-21)
(5.24935 0.880377 1.26129e-19)
(5.0089 0.798723 0)
(4.63093 0.591315 2.50926e-21)
(4.1062 0.274022 3.74559e-19)
(3.74723 0.00609321 0)
(4.01858 -0.0521846 3.97817e-19)
(4.42346 -0.0892221 -3.44263e-19)
(4.59585 -0.164446 4.69463e-19)
(4.65462 -0.241047 3.16919e-21)
(4.71036 -0.292534 0)
(4.77988 -0.322838 0)
(4.85367 -0.340242 -3.65595e-20)
(4.91892 -0.346392 3.56352e-21)
(4.97158 -0.343483 -3.22215e-20)
(5.0123 -0.333938 -1.01919e-20)
(5.04321 -0.319756 1.06231e-20)
(5.06668 -0.302341 -2.74945e-20)
(5.08478 -0.282488 9.19403e-20)
(5.09951 -0.26059 0)
(5.11298 -0.236868 -1.56342e-19)
(5.12727 -0.211612 -2.1474e-20)
(5.14399 -0.185632 3.52356e-19)
(5.16327 -0.159237 0)
(5.18538 -0.135391 0)
(5.20544 -0.10081 0)
(5.51409 0.079875 0)
(5.52498 0.102549 -2.43289e-20)
(5.5343 0.119646 0)
(5.54502 0.140701 1.6606e-19)
(5.55616 0.165882 -1.27582e-19)
(5.56585 0.195997 0)
(5.57247 0.230791 2.39514e-19)
(5.57522 0.270742 -1.62625e-20)
(5.57384 0.316389 -1.34767e-19)
(5.56851 0.369676 6.34614e-20)
(5.56108 0.433372 2.03063e-19)
(5.5514 0.514139 0)
(5.53554 0.608588 0)
(5.52013 0.718607 8.27069e-21)
(5.4706 0.814814 -8.49891e-21)
(5.41245 0.880068 0)
(5.21713 0.886302 -1.28399e-19)
(4.88028 0.772306 2.55969e-19)
(4.40599 0.512864 -3.69517e-19)
(3.85922 0.145134 -8.11002e-19)
(3.60977 -0.115262 0)
(3.96514 -0.135014 -8.49649e-19)
(4.35895 -0.185845 3.4894e-19)
(4.52784 -0.251212 -2.48232e-19)
(4.60139 -0.310475 1.76483e-19)
(4.67529 -0.345645 3.39898e-21)
(4.75786 -0.363576 4.70258e-21)
(4.84038 -0.372808 1.41902e-20)
(4.91222 -0.373326 -2.64013e-21)
(4.97005 -0.366434 3.80024e-20)
(5.0148 -0.353938 0)
(5.04887 -0.337508 0)
(5.07495 -0.318431 3.04048e-20)
(5.09543 -0.297394 -9.15922e-20)
(5.1124 -0.274711 0)
(5.12799 -0.250575 1.49429e-19)
(5.14418 -0.225273 -2.22523e-20)
(5.16238 -0.199544 -1.82282e-19)
(5.18272 -0.173602 -1.11652e-19)
(5.20599 -0.150473 1.09078e-19)
(5.2267 -0.118092 2.61904e-19)
(5.54575 0.0695561 -5.232e-19)
(5.55867 0.0853306 4.8342e-19)
(5.57269 0.101181 -1.94552e-21)
(5.58815 0.121982 -6.72161e-19)
(5.60257 0.147086 3.30664e-19)
(5.61452 0.17724 -2.10128e-19)
(5.62304 0.212094 0)
(5.62793 0.252096 1.86345e-19)
(5.63019 0.297953 2.07118e-19)
(5.63144 0.352191 0)
(5.63686 0.419248 -3.45766e-19)
(5.64254 0.50759 4.27195e-19)
(5.63778 0.612203 -3.79873e-20)
(5.62343 0.73573 -8.87766e-21)
(5.5365 0.833076 9.7838e-20)
(5.43822 0.88846 3.35266e-21)
(5.14712 0.876437 1.07163e-19)
(4.70228 0.710341 -2.60499e-19)
(4.13447 0.405493 7.85428e-19)
(3.5879 -0.00423884 4.35243e-19)
(3.47994 -0.244742 0)
(3.90217 -0.244454 9.39253e-19)
(4.27772 -0.314446 4.22836e-19)
(4.45398 -0.362683 2.98774e-19)
(4.5484 -0.397791 -3.59536e-19)
(4.64224 -0.412107 0)
(4.73684 -0.414047 -8.07076e-21)
(4.82732 -0.412567 -9.69529e-21)
(4.90548 -0.405766 2.592e-20)
(4.96859 -0.393789 -1.64545e-20)
(5.01764 -0.377644 5.1431e-20)
(5.05515 -0.358504 0)
(5.08411 -0.337456 -1.71069e-20)
(5.1072 -0.314965 7.60176e-20)
(5.1266 -0.291214 0)
(5.14441 -0.266375 0)
(5.16252 -0.240731 1.77807e-19)
(5.18219 -0.214956 -3.28136e-19)
(5.20358 -0.189242 4.6574e-19)
(5.22769 -0.166462 7.67e-19)
(5.24865 -0.135521 -1.26275e-19)
(5.57568 0.0531917 -5.85218e-20)
(5.59473 0.0695629 0)
(5.61448 0.0865422 0)
(5.63421 0.108798 3.85135e-19)
(5.65106 0.134701 -2.39659e-19)
(5.66446 0.165012 0)
(5.67406 0.199488 0)
(5.68059 0.238459 2.47209e-19)
(5.68678 0.28358 -8.79678e-19)
(5.69553 0.336218 5.47024e-19)
(5.71603 0.404093 -9.90978e-20)
(5.73647 0.493888 -3.05709e-19)
(5.74037 0.603062 0)
(5.72124 0.73178 0)
(5.58433 0.825897 -1.15218e-19)
(5.4462 0.888611 -3.43425e-21)
(5.03095 0.847989 -1.09567e-19)
(4.4721 0.618803 2.20399e-20)
(3.82478 0.276464 -4.40349e-19)
(3.30126 -0.161517 5.44311e-19)
(3.3521 -0.38431 -4.2986e-21)
(3.81683 -0.389981 -4.94647e-19)
(4.17997 -0.474886 -4.46175e-19)
(4.38106 -0.498776 5.97342e-20)
(4.49909 -0.502875 -2.99935e-20)
(4.61402 -0.493878 -8.156e-20)
(4.71877 -0.475734 3.77401e-21)
(4.81572 -0.460812 -3.91805e-21)
(4.89945 -0.444737 -8.64997e-20)
(4.96766 -0.42637 1.87678e-20)
(5.02105 -0.405721 -1.05508e-19)
(5.06228 -0.38332 1.22812e-19)
(5.09442 -0.359953 -6.88006e-20)
(5.12034 -0.335733 -7.14736e-20)
(5.1424 -0.310628 -8.74399e-20)
(5.16261 -0.284798 -7.27567e-21)
(5.18276 -0.25854 -1.16363e-19)
(5.20399 -0.232463 4.37522e-19)
(5.22649 -0.206753 -4.50626e-19)
(5.25134 -0.183987 -4.94869e-19)
(5.27252 -0.154126 0)
(5.61582 0.0457013 7.85938e-20)
(5.64112 0.0657789 -4.7723e-19)
(5.66417 0.0840136 6.2358e-19)
(5.68545 0.107515 -1.76865e-19)
(5.70296 0.133756 -5.7877e-19)
(5.71655 0.163463 -1.717e-20)
(5.72595 0.196803 2.7979e-19)
(5.73322 0.232927 -1.38867e-18)
(5.74304 0.276407 5.01733e-19)
(5.7587 0.323567 5.74473e-19)
(5.79354 0.388613 -2.42243e-19)
(5.82375 0.470234 5.63506e-19)
(5.83104 0.575553 -5.12822e-19)
(5.80107 0.697384 3.99951e-19)
(5.6091 0.788358 -6.6379e-20)
(5.43405 0.85963 1.17284e-21)
(4.86361 0.802894 -1.20869e-21)
(4.19159 0.509713 3.01139e-19)
(3.48706 0.136241 0)
(3.00761 -0.315496 -5.48698e-19)
(3.21669 -0.541278 0)
(3.70113 -0.572362 0)
(4.06933 -0.659977 -2.46226e-20)
(4.31148 -0.655283 -2.92094e-19)
(4.45702 -0.623809 -1.62323e-20)
(4.5926 -0.591333 1.06917e-19)
(4.70548 -0.549318 0)
(4.80709 -0.518614 6.38006e-20)
(4.89531 -0.491202 9.6239e-21)
(4.968 -0.465038 4.30871e-20)
(5.02558 -0.438883 -1.26629e-19)
(5.0707 -0.412626 4.59034e-20)
(5.10628 -0.386478 1.75931e-20)
(5.13528 -0.360219 0)
(5.16024 -0.333492 0)
(5.18307 -0.306402 0)
(5.20547 -0.279284 4.22167e-19)
(5.2285 -0.252679 -2.15456e-19)
(5.25234 -0.226753 0)
(5.27802 -0.203632 -2.88388e-19)
(5.29974 -0.174583 -2.76904e-19)
(5.67305 0.0539929 -7.59571e-19)
(5.69996 0.078362 5.5386e-19)
(5.7218 0.0966829 -7.22713e-19)
(5.74123 0.119582 1.03557e-18)
(5.75744 0.145212 -6.91193e-19)
(5.76993 0.172935 6.59114e-19)
(5.77825 0.205134 3.3253e-19)
(5.78526 0.236541 6.09764e-19)
(5.79761 0.278 6.68143e-19)
(5.81747 0.315466 -5.62017e-19)
(5.86198 0.373644 6.09731e-19)
(5.89403 0.43668 -3.58083e-19)
(5.89794 0.52824 9.21018e-19)
(5.84824 0.636153 -3.35302e-20)
(5.60849 0.727755 -4.05504e-19)
(5.39848 0.794184 4.87337e-20)
(4.63858 0.745239 1.08578e-20)
(3.86678 0.401101 -3.2915e-19)
(3.12935 -0.00904928 0)
(2.71142 -0.460968 1.20041e-18)
(3.06114 -0.718598 0)
(3.55386 -0.783997 5.68902e-19)
(3.95362 -0.859752 1.71514e-20)
(4.24871 -0.829128 -3.26347e-20)
(4.42396 -0.758865 2.1965e-19)
(4.57966 -0.702797 2.97665e-21)
(4.699 -0.634914 -3.05617e-21)
(4.80294 -0.586438 5.00216e-20)
(4.89418 -0.545861 5.94549e-20)
(4.97034 -0.510608 0)
(5.03185 -0.477859 6.12879e-20)
(5.08092 -0.447162 3.75257e-20)
(5.12011 -0.417651 0)
(5.15247 -0.389019 9.52713e-20)
(5.18054 -0.360375 0)
(5.20628 -0.331836 -2.19311e-19)
(5.23118 -0.303646 2.66956e-20)
(5.25635 -0.27639 -2.47654e-19)
(5.2819 -0.250088 2.46761e-19)
(5.30871 -0.226367 5.24706e-19)
(5.33172 -0.198076 6.19239e-19)
(5.7418 0.0848271 2.21636e-19)
(5.76504 0.104737 4.35179e-19)
(5.78311 0.123064 0)
(5.79846 0.142536 0)
(5.81262 0.167345 1.21202e-18)
(5.82282 0.190817 -1.56439e-18)
(5.82995 0.223114 1.2001e-18)
(5.83581 0.248613 3.80524e-19)
(5.84898 0.288177 -6.96388e-19)
(5.86861 0.313682 -4.12168e-19)
(5.91507 0.361237 -5.82851e-19)
(5.94108 0.399649 3.29636e-19)
(5.93973 0.469579 -1.16136e-18)
(5.87629 0.562064 -4.33975e-19)
(5.5873 0.655214 -1.17733e-19)
(5.33233 0.715986 -1.0071e-20)
(4.35524 0.651821 2.74146e-20)
(3.51406 0.302743 -5.62366e-19)
(2.75085 -0.160555 1.01333e-18)
(2.40227 -0.595768 -1.18017e-18)
(2.86787 -0.910942 6.63012e-19)
(3.38284 -1.01692 -6.25776e-19)
(3.84639 -1.07148 -4.30647e-19)
(4.204 -1.02224 0)
(4.40459 -0.909472 -1.35517e-20)
(4.57985 -0.826017 4.52121e-20)
(4.70239 -0.73214 7.82753e-20)
(4.80556 -0.663206 -6.25003e-20)
(4.89747 -0.608828 2.17054e-20)
(4.97564 -0.563403 0)
(5.04051 -0.523232 -7.56066e-20)
(5.09325 -0.487657 1.38694e-19)
(5.13619 -0.45415 0)
(5.17212 -0.422824 2.11606e-19)
(5.20351 -0.391914 1.22352e-19)
(5.23233 -0.361791 2.19528e-19)
(5.26001 -0.332345 -1.9703e-19)
(5.28746 -0.304511 2.56656e-19)
(5.31521 -0.277805 1.95536e-20)
(5.34347 -0.253737 -1.15356e-18)
(5.3688 -0.226676 -6.24663e-19)
(5.81035 0.124278 -1.43913e-18)
(5.82727 0.137825 -4.57323e-19)
(5.84271 0.156231 -9.38239e-19)
(5.85381 0.170336 9.08344e-19)
(5.86689 0.196006 4.7844e-19)
(5.87438 0.213512 -8.92625e-19)
(5.88044 0.248166 8.55033e-20)
(5.88461 0.267504 -9.26784e-19)
(5.89631 0.305218 0)
(5.91094 0.320183 7.93624e-19)
(5.95127 0.353425 -1.61885e-18)
(5.96523 0.369939 0)
(5.95486 0.413352 8.14633e-19)
(5.89468 0.486679 -1.90629e-20)
(5.5537 0.576875 9.44407e-19)
(5.24335 0.633186 1.01082e-19)
(4.04244 0.535109 3.2956e-19)
(3.15357 0.220576 5.67928e-19)
(2.33487 -0.310099 1.43669e-19)
(2.05106 -0.717092 6.3751e-19)
(2.61393 -1.10806 -6.76246e-19)
(3.18971 -1.2718 -5.40142e-19)
(3.75147 -1.29951 7.46475e-20)
(4.1845 -1.23753 -2.4062e-19)
(4.40746 -1.07938 7.55175e-21)
(4.60187 -0.957907 -2.08796e-21)
(4.72043 -0.840831 -2.54308e-19)
(4.81958 -0.74657 -7.67134e-20)
(4.90875 -0.67965 -1.12265e-19)
(4.98707 -0.622492 0)
(5.05375 -0.574964 -7.82764e-20)
(5.10937 -0.533883 1.91438e-19)
(5.15586 -0.496195 -3.41801e-19)
(5.19523 -0.46168 1.05659e-19)
(5.23002 -0.428337 1.24105e-19)
(5.2619 -0.396124 -4.66286e-19)
(5.29247 -0.365323 7.16822e-21)
(5.32235 -0.3368 -2.76206e-19)
(5.35265 -0.309819 0)
(5.38297 -0.285681 -3.23012e-19)
(5.41128 -0.260113 9.14723e-19)
(5.87236 0.160599 -1.31457e-18)
(5.88311 0.166979 5.49681e-19)
(5.89914 0.188403 -5.18288e-19)
(5.90705 0.196596 1.02902e-18)
(5.92044 0.22627 0)
(5.9257 0.23776 1.07884e-18)
(5.93046 0.277094 -9.84755e-19)
(5.93285 0.290911 9.71936e-19)
(5.93996 0.327057 0)
(5.94554 0.336465 4.81916e-19)
(5.9723 0.352033 4.17873e-19)
(5.97326 0.355713 9.55988e-19)
(5.9562 0.368419 0)
(5.90967 0.415031 -1.9771e-19)
(5.50188 0.496499 -3.65719e-19)
(5.15386 0.548121 -1.0955e-18)
(3.71906 0.42773 -3.29617e-19)
(2.77899 0.187654 0)
(1.8623 -0.431739 -1.29845e-18)
(1.63124 -0.834616 -6.01511e-19)
(2.3083 -1.30503 -6.26599e-19)
(2.97373 -1.54654 5.13213e-19)
(3.65906 -1.54332 4.26949e-19)
(4.18439 -1.47569 1.24147e-19)
(4.43602 -1.27232 0)
(4.65529 -1.0981 7.36556e-20)
(4.76045 -0.961719 -1.58407e-21)
(4.85121 -0.835888 3.24442e-19)
(4.93239 -0.758133 1.80723e-19)
(5.0093 -0.685903 1.89319e-19)
(5.07464 -0.632667 -1.89329e-19)
(5.13321 -0.58373 2.16418e-19)
(5.18199 -0.543285 -2.68757e-19)
(5.22541 -0.503801 0)
(5.26259 -0.469312 0)
(5.29856 -0.43302 -5.25007e-19)
(5.33094 -0.402075 -3.16362e-20)
(5.36513 -0.370846 7.99425e-19)
(5.39656 -0.344706 0)
(5.43149 -0.318569 0)
(5.46169 -0.294115 -3.01034e-19)
(5.93006 0.185187 -5.90287e-19)
(5.93505 0.185832 -1.80466e-18)
(5.95437 0.213299 5.9884e-19)
(5.95973 0.216916 6.14699e-19)
(5.97486 0.254058 0)
(5.97851 0.261137 -1.13715e-18)
(5.981 0.306762 0)
(5.98178 0.316855 1.83525e-18)
(5.97978 0.354524 -5.90546e-19)
(5.97609 0.363814 0)
(5.97981 0.359361 1.15194e-18)
(5.97379 0.357362 -9.99602e-19)
(5.93931 0.346239 4.97424e-19)
(5.91132 0.360835 4.7316e-19)
(5.39045 0.434779 0)
(5.05715 0.482875 1.68133e-18)
(3.36341 0.346662 -1.31002e-19)
(2.38404 0.221499 5.08708e-20)
(1.40786 -0.533965 -1.06766e-19)
(1.15072 -1.00381 6.29125e-20)
(2.0098 -1.5058 6.12749e-19)
(2.74256 -1.80822 1.65219e-20)
(3.55095 -1.7788 -1.67316e-20)
(4.18034 -1.7232 1.34163e-19)
(4.47388 -1.47874 -4.74287e-21)
(4.73133 -1.25023 -8.12161e-20)
(4.82092 -1.09322 5.65476e-20)
(4.90074 -0.931294 -1.55985e-19)
(4.96865 -0.844869 -1.78767e-19)
(5.04297 -0.753383 0)
(5.1014 -0.698505 0)
(5.16593 -0.636327 1.7601e-21)
(5.21183 -0.597771 0)
(5.26466 -0.548034 1.41609e-19)
(5.29905 -0.518033 0)
(5.34572 -0.472326 -2.84792e-19)
(5.37357 -0.4477 2.66743e-19)
(5.42041 -0.406365 -3.11091e-19)
(5.44432 -0.387056 -3.69693e-19)
(5.49383 -0.350164 1.00247e-18)
(5.51709 -0.331032 0)
(5.56744 -0.299332 7.76885e-19)
(5.5036 -0.276073 0)
(5.45166 -0.246718 0)
(5.40833 -0.215464 6.6721e-19)
(5.37059 -0.189237 0)
(5.33778 -0.167817 -3.7533e-19)
(5.30959 -0.148655 0)
(5.28493 -0.131327 -3.22209e-19)
(5.26267 -0.115414 3.54018e-20)
(5.24196 -0.0999453 0)
(5.22186 -0.0841649 2.45746e-19)
(5.20183 -0.0680368 -6.80787e-19)
(5.18226 -0.0495141 -1.20159e-20)
(5.1622 -0.0311066 1.22156e-19)
(5.1369 0.00286526 -1.26645e-19)
(5.05411 0.0269471 0)
(4.6909 0.103671 -1.48639e-19)
(5.59308 -0.28198 -1.71503e-18)
(5.54162 -0.261364 8.56651e-19)
(5.49382 -0.236575 0)
(5.45138 -0.208137 0)
(5.41322 -0.183251 0)
(5.37956 -0.161684 3.86357e-19)
(5.35049 -0.142027 -3.95187e-19)
(5.3252 -0.124237 8.10044e-19)
(5.3028 -0.107722 1.83011e-19)
(5.28264 -0.091662 -5.81656e-19)
(5.26397 -0.0760866 -3.20821e-19)
(5.24591 -0.06137 7.30932e-19)
(5.22807 -0.0448447 -1.34964e-20)
(5.20877 -0.0298394 2.15721e-19)
(5.18056 -0.00234143 1.42619e-19)
(5.09078 -0.00258491 -2.10947e-19)
(4.6627 0.081082 4.42036e-19)
(5.64436 -0.234411 2.45828e-18)
(5.58642 -0.232726 7.80498e-20)
(5.53767 -0.217718 0)
(5.49545 -0.195569 0)
(5.45743 -0.173781 -4.62112e-19)
(5.42362 -0.153993 5.01114e-19)
(5.39419 -0.135703 4.67989e-19)
(5.36855 -0.118813 -2.39189e-19)
(5.34601 -0.103036 3.50198e-20)
(5.32591 -0.0877153 2.08833e-19)
(5.30751 -0.0726253 0)
(5.28991 -0.0581158 -1.7344e-19)
(5.27234 -0.0423177 -3.19028e-19)
(5.25209 -0.0285803 5.67841e-19)
(5.21978 -0.00279171 -1.36521e-19)
(5.11106 -0.0048339 6.97858e-20)
(4.62832 0.0946232 -2.50429e-19)
(5.66711 -0.207942 -1.62292e-18)
(5.62202 -0.2073 5.29762e-20)
(5.57963 -0.2011 -5.6542e-19)
(5.54069 -0.184754 0)
(5.50408 -0.166343 0)
(5.47045 -0.148689 -5.44562e-19)
(5.44061 -0.131416 5.83961e-19)
(5.41449 -0.114896 2.8565e-19)
(5.39157 -0.0993163 -2.94046e-19)
(5.37126 -0.0842437 -5.63126e-19)
(5.35289 -0.0695818 0)
(5.33549 -0.0555345 -4.6672e-19)
(5.31767 -0.0403839 6.86773e-19)
(5.29575 -0.0268907 1.57384e-19)
(5.25756 -0.00306346 -6.85472e-19)
(5.13026 -0.00237716 8.06681e-20)
(4.59845 0.0970991 5.99411e-20)
(5.71131 -0.148134 0)
(5.66443 -0.164578 -1.88038e-18)
(5.62325 -0.16947 6.76278e-19)
(5.58608 -0.163398 6.00499e-19)
(5.55105 -0.152622 -6.55419e-19)
(5.51834 -0.139474 0)
(5.48873 -0.125001 0)
(5.46248 -0.110372 3.5207e-19)
(5.43938 -0.0959441 0)
(5.41896 -0.0816543 0)
(5.40048 -0.0676361 0)
(5.38283 -0.053847 -5.84275e-19)
(5.36403 -0.0388664 6.16456e-19)
(5.33955 -0.0249976 4.76377e-19)
(5.29424 -0.00214796 2.19234e-19)
(5.14615 0.00218442 3.11791e-19)
(4.57119 0.0974489 -8.67433e-20)
(5.72573 -0.116673 1.45968e-18)
(5.69016 -0.122528 1.37138e-18)
(5.65716 -0.133043 -1.36659e-18)
(5.62597 -0.135804 1.41812e-18)
(5.59522 -0.132278 0)
(5.56516 -0.12501 7.76103e-19)
(5.537 -0.115155 0)
(5.51156 -0.103745 -7.668e-19)
(5.48894 -0.0914881 0)
(5.46885 -0.0788557 0)
(5.45056 -0.0660681 -4.03743e-19)
(5.43276 -0.0529037 0)
(5.4129 -0.0383899 -3.21718e-19)
(5.38528 -0.0238864 -3.16125e-19)
(5.3309 -0.00279263 3.18926e-20)
(5.16092 0.00592946 -5.36759e-19)
(4.54944 0.0932828 0)
(5.76756 -0.0809726 -1.57333e-18)
(5.72477 -0.0846705 -1.59527e-18)
(5.69034 -0.0919896 1.21123e-18)
(5.66107 -0.0984328 -1.24934e-18)
(5.63385 -0.102377 0)
(5.60738 -0.101845 -8.06674e-19)
(5.58211 -0.0977042 8.69543e-19)
(5.55881 -0.0912202 4.28927e-19)
(5.53784 -0.0829255 4.65769e-19)
(5.51907 -0.0733857 0)
(5.50186 -0.0628843 -5.13607e-20)
(5.48489 -0.0512472 -3.41033e-20)
(5.46488 -0.0379339 -6.5352e-19)
(5.43405 -0.0234339 2.15641e-19)
(5.36867 -0.00398657 1.85909e-19)
(5.17688 0.00747492 1.4449e-19)
(4.5356 0.0866389 -3.47779e-19)
(5.7784 -0.067453 0)
(5.74287 -0.0525121 1.34405e-18)
(5.71315 -0.0523075 1.53523e-20)
(5.68723 -0.0593172 2.72561e-18)
(5.66317 -0.0657825 4.83445e-19)
(5.64013 -0.0696065 -4.64335e-19)
(5.6183 -0.0714111 2.49462e-20)
(5.59823 -0.0707199 1.37118e-20)
(5.58023 -0.0675106 -4.90297e-19)
(5.56414 -0.0623791 1.62847e-20)
(5.54965 -0.0555409 4.81034e-19)
(5.53556 -0.0468772 -2.08667e-20)
(5.51767 -0.03608 1.0013e-18)
(5.4853 -0.0229125 2.9293e-20)
(5.40916 -0.00540856 0)
(5.19638 0.00734497 3.46353e-19)
(4.53197 0.0771315 2.7823e-19)
(5.83408 -0.078715 -4.867e-19)
(5.78063 -0.0485202 -1.47549e-18)
(5.73957 -0.0334809 -5.15494e-19)
(5.70815 -0.031038 -1.00111e-18)
(5.68292 -0.0332408 -1.51953e-18)
(5.66105 -0.0372937 -5.17173e-19)
(5.64137 -0.0414162 2.75631e-19)
(5.62404 -0.0446291 -5.54024e-19)
(5.60922 -0.0461833 2.79198e-19)
(5.5967 -0.0457552 -5.38004e-19)
(5.58628 -0.0432696 2.94668e-19)
(5.57718 -0.0387121 2.82769e-19)
(5.56449 -0.0318248 -5.59138e-19)
(5.53482 -0.0217032 -5.47553e-19)
(5.4518 -0.00719702 5.71337e-19)
(5.22073 0.00603128 -1.20273e-19)
(4.5408 0.0639562 -4.05605e-19)
(5.84542 -0.0905041 1.77115e-20)
(5.79865 -0.0586564 1.57828e-18)
(5.75845 -0.0303884 5.34019e-19)
(5.72446 -0.0149393 0)
(5.69596 -0.0120585 0)
(5.67167 -0.0120014 2.82084e-19)
(5.65072 -0.0141887 -8.78422e-19)
(5.6333 -0.0178241 8.80297e-19)
(5.62008 -0.0218257 3.02455e-19)
(5.61077 -0.0252033 0)
(5.60417 -0.0268606 -3.09822e-19)
(5.59966 -0.0264084 3.1914e-19)
(5.59468 -0.0239344 -4.76639e-19)
(5.57249 -0.0183529 2.13783e-21)
(5.49195 -0.00863248 1.46672e-20)
(5.24953 0.00348583 -1.57764e-19)
(4.56287 0.0464614 2.9206e-19)
(5.91379 -0.129321 1.38698e-18)
(5.84826 -0.0933976 -1.4012e-18)
(5.79024 -0.0569144 -2.76556e-19)
(5.74323 -0.0295172 5.70987e-19)
(5.70591 -0.0125619 1.42416e-19)
(5.67538 -0.00311965 1.50218e-19)
(5.6497 0.000845829 -5.81746e-21)
(5.62882 0.000845321 -7.68015e-19)
(5.61407 -0.000981538 1.59776e-19)
(5.60618 -0.00495726 3.26449e-19)
(5.60402 -0.00881644 2.39578e-19)
(5.60412 -0.0118563 -2.42134e-19)
(5.60269 -0.0133667 0)
(5.58797 -0.0124355 -3.5144e-19)
(5.51856 -0.00886553 0)
(5.27974 5.09606e-06 -1.34982e-19)
(4.59516 0.0278773 -2.2275e-19)
(5.93253 -0.152063 2.92511e-19)
(5.8859 -0.132819 0)
(5.8349 -0.097121 5.916e-19)
(5.78283 -0.0631613 -6.00123e-19)
(5.73488 -0.0378884 -1.55059e-20)
(5.69272 -0.0192072 0)
(5.6564 -0.00628263 6.24745e-19)
(5.62624 0.000709197 -1.98098e-20)
(5.60303 0.00435891 4.05063e-20)
(5.58753 0.0054099 -3.5004e-19)
(5.58011 0.00445595 -2.11522e-20)
(5.58048 0.00192355 2.16707e-20)
(5.58606 -0.00190412 -2.7504e-21)
(5.57818 -0.00527149 3.55172e-19)
(5.52164 -0.007285 0)
(5.30449 -0.00160696 1.80414e-19)
(4.63089 0.0103884 1.82315e-19)
(5.98783 -0.155381 0)
(5.94086 -0.153521 -5.63503e-19)
(5.88984 -0.131129 0)
(5.83764 -0.104541 0)
(5.7864 -0.0802409 4.88356e-20)
(5.73726 -0.0566808 -7.64611e-20)
(5.6912 -0.0359122 -1.5606e-19)
(5.64962 -0.0196411 -3.15004e-22)
(5.61429 -0.0078829 1.61427e-19)
(5.58717 -6.17238e-05 3.2368e-19)
(5.56929 0.00415361 0)
(5.5595 0.00541871 0)
(5.5548 0.00409031 -1.73013e-19)
(5.54521 0.000714744 0)
(5.50122 -0.0036989 0)
(5.31513 -0.0022949 0)
(4.66378 -0.00550111 1.8816e-19)
(6.0028 -0.161123 -7.57353e-20)
(5.97673 -0.164734 5.96913e-19)
(5.94054 -0.153633 0)
(5.8972 -0.134763 1.47833e-19)
(5.8506 -0.116429 -7.57345e-19)
(5.80279 -0.0959571 2.89396e-19)
(5.75491 -0.0749178 -5.98073e-19)
(5.70817 -0.0551116 3.07186e-19)
(5.66437 -0.0373713 3.13801e-19)
(5.62578 -0.0223365 -9.50529e-19)
(5.5941 -0.0105852 0)
(5.56886 -0.00240662 1.65505e-19)
(5.54637 0.00259562 -1.66357e-19)
(5.52102 0.00307005 3.90935e-21)
(5.47512 0.000898759 0)
(5.30227 -0.00142215 0)
(4.6864 -0.0156737 -1.84565e-19)
(6.01452 -0.0962463 4.49519e-19)
(5.99892 -0.128756 1.39912e-19)
(5.97415 -0.132257 0)
(5.94428 -0.130592 0)
(5.90977 -0.124765 2.85464e-19)
(5.87163 -0.113242 -5.80632e-19)
(5.83089 -0.098868 2.98186e-19)
(5.78839 -0.0821428 0)
(5.7451 -0.0647468 0)
(5.70232 -0.0474284 6.07191e-19)
(5.66134 -0.0313131 -3.01694e-19)
(5.62221 -0.0174414 0)
(5.582 -0.00636337 3.13933e-19)
(5.53246 0.000244562 -1.17444e-21)
(5.45444 0.00213148 3.18826e-19)
(5.2672 -0.0020176 -3.24315e-19)
(4.69851 -0.0198554 0)
(6.00695 -0.0691919 -7.2599e-19)
(5.99877 -0.093203 2.78292e-19)
(5.98651 -0.102231 -2.57458e-19)
(5.97003 -0.10858 0)
(5.94926 -0.109626 5.21089e-19)
(5.92494 -0.107057 -2.65263e-19)
(5.89736 -0.100825 -2.52366e-19)
(5.86633 -0.0912371 -1.26489e-19)
(5.83222 -0.0786822 4.13363e-19)
(5.79522 -0.0643362 -5.40064e-19)
(5.75506 -0.0488507 0)
(5.71044 -0.0333375 1.47104e-19)
(5.65653 -0.0189579 2.11515e-21)
(5.58223 -0.0093174 -4.31504e-19)
(5.46162 0.00012683 -1.50347e-19)
(5.23742 -0.00450868 2.95579e-19)
(4.70615 -0.0178992 -7.45536e-20)
(5.97921 0.0217108 -2.53242e-19)
(5.98147 -0.0207112 -2.44353e-19)