/*--------------------------------*- C++ -*----------------------------------*\
  =========                 |
  \\      /  F ield         | OpenFOAM: The Open Source CFD Toolbox
   \\    /   O peration     | Website:  https://openfoam.org
    \\  /    A nd           | Version:  6
     \\/     M anipulation  |
\*---------------------------------------------------------------------------*/
FoamFile
{
    version     2.0;
    format      ascii;
    class       volScalarField;
    location    "4.66";
    object      rho;
}
// * * * * * * * * * * * * * * * * * * * * * * * * * * * * * * * * * * * * * //

dimensions      [1 -3 0 0 0 0 0];

internalField   nonuniform List<scalar> 
22500
(
1.4
1.4
1.4
1.4
1.4
1.4
1.4
1.4
1.4
1.4
1.40001
1.4
1.4
1.40001
1.4
1.40001
1.40001
1.4
1.40001
1.40001
1.4
1.40001
1.4
1.40001
1.4
1.40001
1.40001
1.4
1.40001
1.4
1.40001
1.40001
1.40001
1.4
1.40001
1.4
1.4
1.40001
1.40001
1.4
1.40001
1.4
1.40001
1.40001
1.4
1.40001
1.40001
1.4
1.40001
1.40001
1.4
1.40001
1.40001
1.4
1.40001
1.40001
1.40001
1.40001
1.40001
1.40001
1.40001
1.40001
1.40001
1.40001
1.40001
1.40002
1.40002
1.40002
1.40002
1.40002
1.40002
1.40002
1.40003
1.40003
1.40004
1.40005
1.40008
1.40012
1.40018
1.40027
1.40039
1.40056
1.40079
1.40108
1.40145
1.40189
1.40243
1.40305
1.40376
1.40457
1.40545
1.40641
1.40742
1.40847
1.40954
1.41062
1.41167
1.41269
1.41365
1.41453
1.41531
1.41599
1.41655
1.41699
1.41728
1.41744
1.41745
1.41731
1.41703
1.41662
1.41608
1.41541
1.41463
1.41376
1.41282
1.41181
1.41077
1.40971
1.40866
1.40763
1.40665
1.40572
1.40487
1.40409
1.4034
1.40279
1.40226
1.40181
1.40143
1.40112
1.40086
1.40065
1.40049
1.40036
1.40026
1.40019
1.40013
1.40009
1.40005
1.40003
1.40002
1.40001
1.4
1.4
1.4
1.4
1.4
1.4
1.4
1.4
1.4
1.4
1.4
1.4
1.4
1.4
1.4
1.4
1.4
1.4
1.4
1.40001
1.4
1.40001
1.4
1.4
1.40001
1.4
1.40001
1.40001
1.4
1.4
1.40001
1.4
1.40001
1.40001
1.40001
1.4
1.40001
1.40001
1.4
1.40001
1.4
1.40001
1.40001
1.40001
1.40001
1.40001
1.4
1.40001
1.40001
1.4
1.40001
1.40001
1.4
1.40001
1.40001
1.4
1.4
1.40001
1.4
1.40001
1.40001
1.40001
1.40001
1.40001
1.40001
1.40001
1.40001
1.40001
1.40001
1.40001
1.40001
1.40001
1.40002
1.40002
1.40002
1.40002
1.40003
1.40003
1.40003
1.40004
1.40004
1.40005
1.40006
1.40009
1.40013
1.40019
1.40029
1.40042
1.4006
1.40085
1.40117
1.40158
1.40208
1.4027
1.40342
1.40426
1.4052
1.40626
1.40741
1.40864
1.40993
1.41126
1.41261
1.41394
1.41524
1.41648
1.41764
1.41869
1.41963
1.42043
1.42109
1.4216
1.42194
1.42212
1.42213
1.42198
1.42166
1.42117
1.42053
1.41974
1.41881
1.41776
1.41661
1.41538
1.41408
1.41275
1.41142
1.41011
1.40884
1.40764
1.40652
1.40549
1.40457
1.40376
1.40305
1.40245
1.40194
1.40151
1.40117
1.40089
1.40066
1.40049
1.40035
1.40025
1.40017
1.40011
1.40007
1.40004
1.40002
1.40001
1.4
1.4
1.39999
1.39999
1.39999
1.4
1.4
1.4
1.4
1.4
1.4
1.4
1.4
1.4
1.4
1.4
1.4
1.4
1.4
1.4
1.4
1.4
1.40001
1.4
1.40001
1.40001
1.4
1.40001
1.40001
1.4
1.40001
1.40001
1.4
1.40001
1.40001
1.4
1.40001
1.40001
1.4
1.40001
1.40001
1.4
1.40001
1.40001
1.4
1.40001
1.40001
1.4
1.40001
1.40001
1.4
1.40001
1.40001
1.4
1.40001
1.40001
1.4
1.40001
1.40001
1.40001
1.40001
1.40001
1.40001
1.40001
1.40001
1.40001
1.40001
1.40001
1.40001
1.40001
1.40002
1.40002
1.40002
1.40002
1.40003
1.40003
1.40003
1.40004
1.40004
1.40005
1.40006
1.40007
1.4001
1.40014
1.40021
1.4003
1.40044
1.40064
1.4009
1.40125
1.40169
1.40226
1.40294
1.40376
1.40473
1.40583
1.40707
1.40843
1.4099
1.41145
1.41306
1.4147
1.41635
1.41795
1.4195
1.42096
1.42231
1.42353
1.42461
1.42552
1.42627
1.42684
1.42722
1.42743
1.42744
1.42727
1.42692
1.42638
1.42566
1.42476
1.4237
1.42248
1.42113
1.41966
1.4181
1.41649
1.41485
1.41321
1.41161
1.41008
1.40864
1.40731
1.40611
1.40504
1.4041
1.4033
1.40261
1.40205
1.40158
1.4012
1.4009
1.40066
1.40048
1.40034
1.40023
1.40015
1.4001
1.40006
1.40003
1.40001
1.4
1.4
1.39999
1.39999
1.39999
1.39999
1.39999
1.4
1.4
1.4
1.4
1.4
1.4
1.4
1.4
1.4
1.4
1.4
1.4
1.4
1.4
1.4
1.40001
1.4
1.40001
1.40001
1.4
1.40001
1.40001
1.40001
1.40001
1.40001
1.40001
1.4
1.40001
1.4
1.4
1.40001
1.4
1.4
1.40001
1.4
1.4
1.40001
1.4
1.40001
1.4
1.40001
1.4
1.40001
1.4
1.40001
1.40001
1.40001
1.4
1.40001
1.4
1.40001
1.40001
1.4
1.40001
1.40001
1.40001
1.40001
1.40001
1.40001
1.40001
1.40001
1.40001
1.40001
1.40002
1.40002
1.40002
1.40003
1.40003
1.40004
1.40004
1.40005
1.40005
1.40006
1.40008
1.40011
1.40015
1.40021
1.40031
1.40045
1.40065
1.40093
1.4013
1.40178
1.40239
1.40315
1.40407
1.40516
1.40642
1.40785
1.40943
1.41115
1.41298
1.4149
1.41686
1.41883
1.42077
1.42264
1.42442
1.42608
1.42759
1.42894
1.43011
1.4311
1.4319
1.4325
1.43292
1.43313
1.43316
1.43298
1.43261
1.43205
1.43128
1.43032
1.42916
1.42782
1.42631
1.42464
1.42284
1.42094
1.41898
1.417
1.41503
1.41313
1.41131
1.40963
1.40808
1.40669
1.40547
1.40441
1.40351
1.40275
1.40213
1.40162
1.40122
1.4009
1.40065
1.40046
1.40032
1.40021
1.40014
1.40008
1.40004
1.40002
1.4
1.39999
1.39999
1.39999
1.39999
1.39999
1.39999
1.39999
1.39999
1.4
1.4
1.4
1.4
1.4
1.4
1.4
1.4
1.4
1.4
1.4
1.4
1.4
1.40001
1.4
1.4
1.40001
1.4
1.40001
1.40001
1.4
1.40001
1.40001
1.4
1.40001
1.4
1.40001
1.4
1.40001
1.4
1.40001
1.40001
1.40001
1.4
1.40001
1.40001
1.4
1.4
1.40001
1.4
1.40001
1.40001
1.4
1.40001
1.4
1.40001
1.40001
1.4
1.4
1.40001
1.40001
1.40001
1.40001
1.40001
1.40001
1.40001
1.40001
1.40001
1.40001
1.40002
1.40002
1.40002
1.40003
1.40003
1.40003
1.40004
1.40005
1.40005
1.40006
1.40007
1.40009
1.40011
1.40015
1.40022
1.40031
1.40046
1.40066
1.40095
1.40133
1.40184
1.4025
1.40332
1.40433
1.40554
1.40695
1.40857
1.41038
1.41237
1.41449
1.41672
1.41902
1.42133
1.42361
1.42581
1.42791
1.42987
1.43165
1.43326
1.43466
1.43586
1.43686
1.43766
1.43826
1.43867
1.43888
1.43891
1.43875
1.4384
1.43785
1.43709
1.43613
1.43496
1.43357
1.43197
1.43017
1.42819
1.42605
1.4238
1.42148
1.41914
1.41684
1.41461
1.41251
1.41056
1.40879
1.40722
1.40585
1.40467
1.40367
1.40285
1.40218
1.40164
1.40121
1.40088
1.40062
1.40043
1.40029
1.40019
1.40011
1.40006
1.40003
1.40001
1.39999
1.39999
1.39998
1.39998
1.39999
1.39999
1.39999
1.39999
1.39999
1.4
1.4
1.4
1.4
1.4
1.4
1.4
1.4
1.4
1.4
1.4
1.4
1.4
1.40001
1.4
1.40001
1.40001
1.4
1.40001
1.40001
1.4
1.40001
1.4
1.4
1.40001
1.4
1.4
1.40001
1.40001
1.4
1.40001
1.40001
1.40001
1.4
1.40001
1.40001
1.4
1.40001
1.40001
1.4
1.4
1.40001
1.4
1.40001
1.4
1.40001
1.40001
1.4
1.40001
1.40001
1.40001
1.40001
1.40001
1.40001
1.40001
1.40001
1.40001
1.40001
1.40002
1.40002
1.40003
1.40003
1.40004
1.40004
1.40005
1.40006
1.40006
1.40008
1.40009
1.40012
1.40016
1.40022
1.40031
1.40045
1.40066
1.40095
1.40134
1.40187
1.40256
1.40343
1.40452
1.40584
1.40741
1.40921
1.41125
1.4135
1.41593
1.41848
1.42112
1.42377
1.4264
1.42893
1.43133
1.43355
1.43558
1.43738
1.43896
1.44031
1.44144
1.44236
1.44308
1.44361
1.44397
1.44416
1.44419
1.44406
1.44376
1.44328
1.44262
1.44176
1.44067
1.43936
1.4378
1.43599
1.43394
1.43167
1.42921
1.42661
1.42393
1.42123
1.41857
1.41602
1.41362
1.41141
1.40942
1.40767
1.40616
1.40487
1.40379
1.40291
1.4022
1.40163
1.40119
1.40085
1.40059
1.4004
1.40026
1.40016
1.40009
1.40005
1.40002
1.4
1.39999
1.39998
1.39998
1.39998
1.39998
1.39999
1.39999
1.39999
1.39999
1.4
1.4
1.4
1.4
1.4
1.4
1.4
1.4
1.4
1.4
1.4
1.4
1.4
1.4
1.40001
1.4
1.40001
1.4
1.40001
1.40001
1.4
1.40001
1.4
1.4
1.40001
1.4
1.40001
1.40001
1.40001
1.4
1.40001
1.40001
1.40001
1.4
1.40001
1.4
1.4
1.40001
1.40001
1.4
1.4
1.40001
1.4
1.4
1.4
1.40001
1.4
1.40001
1.40001
1.40001
1.40001
1.40001
1.40001
1.40001
1.40001
1.40001
1.40002
1.40002
1.40003
1.40003
1.40004
1.40004
1.40005
1.40006
1.40007
1.40008
1.4001
1.40012
1.40016
1.40022
1.40031
1.40045
1.40064
1.40093
1.40132
1.40186
1.40257
1.40349
1.40465
1.40607
1.40777
1.40975
1.41201
1.41453
1.41725
1.42014
1.42311
1.42611
1.42906
1.4319
1.43457
1.43702
1.43922
1.44115
1.44282
1.44422
1.44538
1.44631
1.44703
1.44758
1.44797
1.44823
1.44836
1.44839
1.4483
1.44809
1.44776
1.44728
1.44662
1.44576
1.44466
1.44331
1.44166
1.43972
1.43749
1.43497
1.43222
1.4293
1.42626
1.4232
1.42019
1.41731
1.41461
1.41215
1.40996
1.40803
1.40639
1.405
1.40385
1.40292
1.40218
1.4016
1.40115
1.4008
1.40055
1.40036
1.40023
1.40013
1.40007
1.40003
1.4
1.39999
1.39998
1.39998
1.39998
1.39998
1.39998
1.39998
1.39999
1.39999
1.39999
1.4
1.4
1.4
1.4
1.4
1.4
1.4
1.4
1.4
1.4
1.4
1.40001
1.4
1.40001
1.40001
1.4
1.40001
1.40001
1.4
1.40001
1.4
1.4
1.40001
1.4
1.40001
1.4
1.40001
1.4
1.40001
1.40001
1.4
1.40001
1.40001
1.4
1.40001
1.4
1.40001
1.4
1.40001
1.40001
1.4
1.40001
1.40001
1.4
1.40001
1.40001
1.40001
1.40001
1.40001
1.40001
1.40001
1.40001
1.40001
1.40001
1.40002
1.40002
1.40002
1.40003
1.40004
1.40004
1.40005
1.40006
1.40007
1.40008
1.4001
1.40013
1.40016
1.40022
1.4003
1.40043
1.40062
1.4009
1.40129
1.40182
1.40255
1.40349
1.4047
1.4062
1.40802
1.41016
1.41263
1.4154
1.41842
1.42163
1.42494
1.42828
1.43154
1.43466
1.43755
1.44017
1.44247
1.44445
1.44609
1.44742
1.44847
1.44927
1.44985
1.45027
1.45054
1.45072
1.45082
1.45086
1.45087
1.45084
1.45076
1.45063
1.45041
1.45007
1.44957
1.44887
1.44791
1.44664
1.44504
1.44306
1.44071
1.43802
1.43501
1.43178
1.4284
1.42499
1.42163
1.41843
1.41546
1.41276
1.41036
1.40829
1.40653
1.40506
1.40386
1.40289
1.40213
1.40154
1.40108
1.40075
1.4005
1.40032
1.40019
1.4001
1.40005
1.40001
1.39999
1.39998
1.39997
1.39997
1.39998
1.39998
1.39998
1.39998
1.39999
1.39999
1.39999
1.4
1.4
1.4
1.4
1.4
1.4
1.4
1.4
1.4
1.4
1.40001
1.4
1.4
1.40001
1.4
1.4
1.40001
1.4
1.4
1.40001
1.4
1.40001
1.40001
1.40001
1.4
1.4
1.40001
1.4
1.40001
1.40001
1.4
1.4
1.40001
1.40001
1.4
1.40001
1.4
1.4
1.40001
1.40001
1.4
1.40001
1.4
1.40001
1.40001
1.40001
1.40001
1.40001
1.40001
1.40001
1.40001
1.40001
1.40001
1.40002
1.40002
1.40003
1.40003
1.40004
1.40005
1.40006
1.40007
1.40009
1.4001
1.40013
1.40016
1.40021
1.40029
1.40041
1.40059
1.40085
1.40123
1.40176
1.40248
1.40343
1.40467
1.40623
1.40814
1.41043
1.4131
1.4161
1.41941
1.42293
1.42657
1.43023
1.43379
1.43714
1.44021
1.44293
1.44525
1.44717
1.44868
1.44981
1.45061
1.45112
1.45141
1.45152
1.45151
1.45143
1.45133
1.45123
1.45116
1.45113
1.45116
1.45124
1.45134
1.45145
1.45152
1.4515
1.45133
1.45095
1.45029
1.44926
1.44782
1.44592
1.44354
1.44072
1.43751
1.43399
1.4303
1.42655
1.42287
1.41936
1.41612
1.4132
1.41063
1.40843
1.40657
1.40504
1.4038
1.40281
1.40204
1.40145
1.40101
1.40068
1.40044
1.40027
1.40015
1.40008
1.40003
1.4
1.39998
1.39997
1.39997
1.39997
1.39997
1.39997
1.39998
1.39998
1.39999
1.39999
1.4
1.4
1.4
1.4
1.4
1.4
1.4
1.4
1.4
1.4
1.4
1.4
1.4
1.4
1.4
1.40001
1.4
1.40001
1.4
1.40001
1.4
1.40001
1.40001
1.4
1.40001
1.4
1.40001
1.40001
1.4
1.4
1.40001
1.4
1.4
1.40001
1.40001
1.4
1.4
1.40001
1.40001
1.4
1.40001
1.40001
1.4
1.40001
1.40001
1.40001
1.40001
1.40001
1.40001
1.40001
1.40001
1.40001
1.40002
1.40002
1.40003
1.40003
1.40004
1.40005
1.40006
1.40007
1.40009
1.4001
1.40013
1.40016
1.40021
1.40028
1.40039
1.40055
1.4008
1.40116
1.40167
1.40237
1.40332
1.40456
1.40616
1.40814
1.41055
1.41337
1.4166
1.42017
1.42399
1.42795
1.43192
1.43575
1.43932
1.44252
1.44527
1.44753
1.44929
1.45055
1.45136
1.45177
1.45186
1.4517
1.45135
1.4509
1.45041
1.44992
1.4495
1.44917
1.44896
1.4489
1.44898
1.44921
1.44956
1.45002
1.45055
1.45108
1.45155
1.45189
1.45199
1.45178
1.45113
1.44998
1.44825
1.44593
1.44304
1.43966
1.4359
1.4319
1.42784
1.42385
1.42006
1.41658
1.41347
1.41075
1.40844
1.40652
1.40495
1.40369
1.40269
1.40193
1.40135
1.40092
1.4006
1.40038
1.40022
1.40012
1.40005
1.40001
1.39998
1.39997
1.39997
1.39997
1.39997
1.39997
1.39997
1.39998
1.39999
1.39999
1.39999
1.4
1.4
1.4
1.4
1.4
1.4
1.4
1.4
1.4
1.4
1.40001
1.4
1.40001
1.4
1.40001
1.40001
1.4
1.40001
1.40001
1.4
1.4
1.40001
1.4
1.40001
1.4
1.40001
1.4
1.40001
1.40001
1.4
1.40001
1.40001
1.4
1.40001
1.40001
1.4
1.40001
1.40001
1.4
1.40001
1.40001
1.40001
1.40001
1.40001
1.40001
1.40001
1.40001
1.40001
1.40001
1.40001
1.40002
1.40002
1.40002
1.40003
1.40004
1.40005
1.40006
1.40007
1.40009
1.4001
1.40013
1.40016
1.4002
1.40027
1.40036
1.40051
1.40074
1.40107
1.40155
1.40223
1.40315
1.40438
1.40599
1.40801
1.4105
1.41346
1.41688
1.42069
1.42479
1.42906
1.43332
1.4374
1.44116
1.44445
1.44719
1.44931
1.45082
1.45173
1.45211
1.45203
1.45157
1.45084
1.44992
1.4489
1.44786
1.44686
1.44596
1.44521
1.44465
1.4443
1.44419
1.44431
1.44468
1.44527
1.44606
1.44703
1.44811
1.44925
1.45036
1.45134
1.45207
1.45244
1.4523
1.45154
1.45008
1.44788
1.44497
1.44145
1.43746
1.43319
1.42882
1.42455
1.42051
1.41682
1.41355
1.41072
1.40834
1.40637
1.40478
1.40352
1.40254
1.40179
1.40123
1.40082
1.40053
1.40032
1.40018
1.40008
1.40002
1.39999
1.39997
1.39996
1.39996
1.39996
1.39996
1.39997
1.39998
1.39998
1.39999
1.39999
1.39999
1.4
1.4
1.4
1.4
1.4
1.4
1.4
1.4
1.4
1.40001
1.4
1.40001
1.40001
1.4
1.40001
1.40001
1.4
1.40001
1.40001
1.4
1.40001
1.4
1.40001
1.4
1.40001
1.40001
1.4
1.40001
1.4
1.4
1.40001
1.4
1.4
1.40001
1.40001
1.4
1.40001
1.40001
1.40001
1.4
1.40001
1.40001
1.40001
1.40001
1.40001
1.40001
1.40001
1.40001
1.40001
1.40002
1.40002
1.40003
1.40003
1.40004
1.40006
1.40007
1.40008
1.4001
1.40012
1.40015
1.40019
1.40025
1.40034
1.40047
1.40068
1.40098
1.40143
1.40206
1.40295
1.40414
1.40572
1.40775
1.41028
1.41334
1.41691
1.42094
1.42531
1.42986
1.43441
1.43874
1.44266
1.44602
1.44869
1.45063
1.45183
1.45232
1.45219
1.45153
1.45045
1.44906
1.44748
1.44581
1.44413
1.44252
1.44106
1.43979
1.43875
1.43798
1.4375
1.43734
1.43749
1.43796
1.43874
1.43982
1.44116
1.44274
1.44448
1.44632
1.44817
1.44989
1.45136
1.4524
1.45286
1.45257
1.45143
1.44939
1.4465
1.44285
1.43865
1.43412
1.42948
1.42495
1.4207
1.41684
1.41344
1.41054
1.40811
1.40613
1.40455
1.40331
1.40235
1.40163
1.4011
1.40072
1.40044
1.40026
1.40013
1.40005
1.4
1.39997
1.39996
1.39996
1.39996
1.39996
1.39996
1.39997
1.39998
1.39998
1.39999
1.39999
1.4
1.4
1.4
1.4
1.4
1.4
1.4
1.4
1.4
1.4
1.4
1.4
1.40001
1.4
1.40001
1.4
1.40001
1.4
1.40001
1.4
1.40001
1.40001
1.4
1.40001
1.4
1.40001
1.40001
1.40001
1.4
1.40001
1.40001
1.4
1.4
1.40001
1.40001
1.4
1.40001
1.4
1.40001
1.40001
1.40001
1.40001
1.40001
1.40001
1.40001
1.40001
1.40001
1.40001
1.40002
1.40002
1.40003
1.40003
1.40004
1.40005
1.40006
1.40008
1.4001
1.40012
1.40015
1.40018
1.40024
1.40031
1.40044
1.40062
1.40089
1.40129
1.40188
1.40271
1.40385
1.40538
1.40738
1.40991
1.41302
1.41671
1.42091
1.42552
1.43035
1.43517
1.43974
1.44382
1.44723
1.44983
1.45155
1.4524
1.45243
1.45174
1.45045
1.4487
1.44662
1.44434
1.44198
1.43964
1.43739
1.43532
1.43347
1.4319
1.43063
1.4297
1.42912
1.4289
1.42906
1.4296
1.43052
1.4318
1.43343
1.43538
1.43761
1.44006
1.44266
1.44529
1.44782
1.45008
1.45186
1.45296
1.45319
1.45239
1.45053
1.44764
1.44388
1.43947
1.43469
1.4298
1.42505
1.42061
1.41663
1.41315
1.41021
1.40778
1.40581
1.40426
1.40305
1.40214
1.40146
1.40096
1.40061
1.40036
1.4002
1.40009
1.40002
1.39998
1.39996
1.39996
1.39995
1.39995
1.39996
1.39997
1.39997
1.39998
1.39999
1.39999
1.39999
1.4
1.4
1.4
1.4
1.4
1.4
1.4
1.4
1.4
1.4
1.4
1.40001
1.4
1.40001
1.40001
1.4
1.4
1.40001
1.4
1.40001
1.40001
1.4
1.40001
1.40001
1.4
1.40001
1.40001
1.4
1.4
1.40001
1.4
1.4
1.40001
1.4
1.40001
1.4
1.40001
1.4
1.40001
1.40001
1.40001
1.40001
1.40001
1.40001
1.40001
1.40001
1.40001
1.40002
1.40002
1.40003
1.40004
1.40005
1.40006
1.40007
1.40009
1.40011
1.40014
1.40017
1.40022
1.40029
1.40039
1.40055
1.40079
1.40116
1.40169
1.40245
1.40352
1.40498
1.40691
1.4094
1.41251
1.41626
1.4206
1.42541
1.43049
1.43559
1.4404
1.44466
1.44813
1.45066
1.45216
1.45264
1.45219
1.45093
1.449
1.44657
1.44379
1.44082
1.43778
1.43477
1.43189
1.42922
1.4268
1.42468
1.4229
1.42148
1.42043
1.41978
1.41953
1.41969
1.42026
1.42125
1.42264
1.42445
1.42665
1.42921
1.4321
1.43527
1.43862
1.44206
1.44541
1.44848
1.45102
1.45277
1.4535
1.45304
1.45133
1.44843
1.44453
1.43991
1.43489
1.42977
1.42483
1.42027
1.4162
1.41269
1.40975
1.40734
1.40542
1.40392
1.40278
1.40191
1.40128
1.40083
1.40051
1.40029
1.40014
1.40005
1.4
1.39997
1.39995
1.39995
1.39995
1.39995
1.39996
1.39997
1.39998
1.39998
1.39999
1.39999
1.4
1.4
1.4
1.4
1.4
1.4
1.4
1.4
1.4
1.40001
1.4
1.40001
1.4
1.40001
1.40001
1.40001
1.4
1.40001
1.4
1.4
1.40001
1.4
1.40001
1.4
1.40001
1.4
1.40001
1.40001
1.4
1.40001
1.4
1.4
1.4
1.40001
1.4
1.40001
1.4
1.40001
1.4
1.40001
1.40001
1.40001
1.40001
1.40001
1.40001
1.40001
1.40002
1.40002
1.40003
1.40003
1.40004
1.40006
1.40007
1.40009
1.40011
1.40013
1.40016
1.40021
1.40027
1.40036
1.40049
1.4007
1.40102
1.40149
1.40218
1.40316
1.40452
1.40636
1.40877
1.41184
1.41559
1.42001
1.42498
1.43029
1.43565
1.44073
1.44518
1.44874
1.45122
1.45252
1.45266
1.45175
1.44993
1.44738
1.44429
1.44084
1.4372
1.4335
1.42987
1.4264
1.42316
1.4202
1.41758
1.41531
1.41341
1.41191
1.41081
1.41012
1.40984
1.40999
1.41056
1.41157
1.41301
1.41489
1.4172
1.41994
1.42309
1.42662
1.43046
1.43456
1.43877
1.44293
1.44679
1.45007
1.45244
1.45364
1.45345
1.45183
1.44887
1.4448
1.43996
1.43471
1.4294
1.42432
1.41967
1.41557
1.41207
1.40917
1.40683
1.40498
1.40356
1.40248
1.40168
1.4011
1.40069
1.40041
1.40022
1.40009
1.40002
1.39998
1.39996
1.39995
1.39995
1.39995
1.39996
1.39996
1.39997
1.39998
1.39998
1.39999
1.39999
1.4
1.4
1.4
1.4
1.4
1.4
1.4
1.4
1.4
1.4
1.40001
1.4
1.40001
1.4
1.40001
1.4
1.40001
1.40001
1.4
1.40001
1.40001
1.4
1.40001
1.4
1.40001
1.4
1.4
1.40001
1.40001
1.4
1.40001
1.4
1.40001
1.40001
1.4
1.40001
1.40001
1.40001
1.40001
1.40001
1.40001
1.40001
1.40001
1.40001
1.40001
1.40002
1.40002
1.40003
1.40004
1.40005
1.40006
1.40008
1.4001
1.40012
1.40015
1.40019
1.40025
1.40032
1.40044
1.40062
1.40089
1.4013
1.40192
1.4028
1.40405
1.40576
1.40804
1.41101
1.41471
1.41915
1.42423
1.42974
1.43536
1.44071
1.4454
1.44909
1.45156
1.45271
1.45256
1.45122
1.44888
1.44575
1.44205
1.43797
1.43371
1.42941
1.42521
1.42119
1.41744
1.414
1.41091
1.4082
1.40588
1.40396
1.40245
1.40134
1.40064
1.40035
1.40048
1.40103
1.40201
1.40343
1.4053
1.40762
1.41041
1.41365
1.41734
1.42145
1.42594
1.43073
1.43569
1.44062
1.44523
1.44919
1.45212
1.45369
1.45369
1.45208
1.44899
1.44471
1.43963
1.43417
1.42869
1.42352
1.41883
1.41475
1.41132
1.4085
1.40626
1.4045
1.40317
1.40217
1.40144
1.40092
1.40056
1.40031
1.40015
1.40005
1.39999
1.39996
1.39995
1.39994
1.39994
1.39995
1.39996
1.39997
1.39997
1.39998
1.39999
1.39999
1.4
1.4
1.4
1.4
1.4
1.4
1.4
1.4
1.4
1.4
1.40001
1.4
1.40001
1.4
1.40001
1.40001
1.4
1.40001
1.40001
1.4
1.40001
1.4
1.40001
1.40001
1.40001
1.4
1.40001
1.40001
1.4
1.4
1.40001
1.4
1.40001
1.40001
1.40001
1.4
1.40001
1.40001
1.40001
1.40001
1.40001
1.40001
1.40001
1.40001
1.40002
1.40002
1.40003
1.40003
1.40004
1.40006
1.40007
1.40009
1.40011
1.40014
1.40018
1.40023
1.40029
1.40039
1.40054
1.40078
1.40113
1.40166
1.40244
1.40356
1.40512
1.40725
1.41007
1.41365
1.41804
1.42317
1.42883
1.4347
1.44034
1.4453
1.44919
1.45173
1.4528
1.45242
1.45073
1.44793
1.44428
1.44001
1.43536
1.43053
1.42569
1.42097
1.41646
1.41225
1.40838
1.40489
1.4018
1.39911
1.39684
1.39496
1.39349
1.39241
1.39172
1.39143
1.39153
1.39203
1.39295
1.3943
1.39609
1.39835
1.40108
1.40429
1.40798
1.41217
1.41682
1.4219
1.42735
1.43301
1.43866
1.44397
1.44852
1.4519
1.45373
1.4538
1.45209
1.44879
1.44425
1.43892
1.43327
1.42768
1.42246
1.4178
1.41379
1.41046
1.40776
1.40564
1.404
1.40277
1.40186
1.40121
1.40075
1.40044
1.40023
1.4001
1.40002
1.39997
1.39995
1.39994
1.39994
1.39995
1.39995
1.39996
1.39997
1.39998
1.39998
1.39999
1.39999
1.4
1.4
1.4
1.4
1.4
1.4
1.4
1.4
1.4
1.40001
1.4
1.40001
1.4
1.40001
1.40001
1.4
1.4
1.40001
1.4
1.40001
1.4
1.40001
1.40001
1.4
1.40001
1.40001
1.40001
1.4
1.40001
1.4
1.4
1.40001
1.4
1.40001
1.4
1.40001
1.40001
1.40001
1.40001
1.40001
1.40001
1.40001
1.40001
1.40002
1.40002
1.40003
1.40004
1.40005
1.40006
1.40008
1.4001
1.40013
1.40016
1.4002
1.40026
1.40035
1.40048
1.40067
1.40097
1.40142
1.4021
1.40308
1.40448
1.40643
1.40905
1.41245
1.41672
1.42182
1.42757
1.43365
1.43959
1.44488
1.44904
1.45174
1.45283
1.45231
1.45034
1.44717
1.44306
1.4383
1.43314
1.4278
1.42246
1.41726
1.41232
1.40769
1.40345
1.39961
1.39619
1.3932
1.39063
1.38846
1.38669
1.3853
1.38427
1.38361
1.38332
1.38338
1.38382
1.38465
1.38588
1.38755
1.38966
1.39225
1.39534
1.39893
1.40305
1.40768
1.41284
1.41849
1.42456
1.43089
1.4372
1.44311
1.44816
1.45185
1.45379
1.45379
1.45186
1.44826
1.44342
1.43785
1.43203
1.42637
1.42117
1.41659
1.41271
1.40952
1.40698
1.405
1.4035
1.40238
1.40157
1.40099
1.40059
1.40033
1.40016
1.40005
1.39999
1.39996
1.39994
1.39994
1.39994
1.39995
1.39996
1.39997
1.39997
1.39998
1.39999
1.39999
1.4
1.4
1.4
1.4
1.4
1.4
1.4
1.4
1.4
1.40001
1.4
1.4
1.40001
1.4
1.40001
1.40001
1.4
1.40001
1.4
1.40001
1.4
1.40001
1.4
1.4
1.40001
1.4
1.40001
1.4
1.40001
1.4
1.40001
1.4
1.40001
1.4
1.40001
1.40001
1.40001
1.40001
1.40001
1.40001
1.40001
1.40001
1.40001
1.40002
1.40003
1.40003
1.40004
1.40006
1.40007
1.40009
1.40012
1.40015
1.40019
1.40024
1.40031
1.40041
1.40058
1.40082
1.4012
1.40178
1.40263
1.40386
1.4056
1.40799
1.41117
1.41523
1.42021
1.42598
1.43222
1.43846
1.44411
1.44863
1.45159
1.45281
1.45226
1.45013
1.44666
1.44218
1.43699
1.43138
1.42558
1.41979
1.41416
1.40881
1.40382
1.39924
1.3951
1.3914
1.38816
1.38535
1.38296
1.38096
1.37933
1.37806
1.37711
1.37649
1.37619
1.37621
1.37657
1.37727
1.37835
1.37983
1.38175
1.38413
1.38702
1.39042
1.39437
1.39887
1.40394
1.40959
1.41579
1.42245
1.42941
1.43632
1.44275
1.44815
1.45199
1.45388
1.45364
1.45137
1.44739
1.44223
1.43642
1.43048
1.42482
1.41969
1.41525
1.41154
1.40854
1.40617
1.40436
1.403
1.402
1.40129
1.40079
1.40045
1.40023
1.40009
1.40001
1.39997
1.39995
1.39994
1.39994
1.39994
1.39995
1.39996
1.39997
1.39998
1.39999
1.39999
1.39999
1.4
1.4
1.4
1.4
1.4
1.4
1.4
1.4
1.40001
1.4
1.40001
1.4
1.40001
1.4
1.40001
1.40001
1.4
1.40001
1.4
1.40001
1.4
1.40001
1.4
1.40001
1.40001
1.40001
1.4
1.40001
1.4
1.4
1.40001
1.40001
1.4
1.40001
1.40001
1.40001
1.40001
1.40001
1.40001
1.40001
1.40001
1.40002
1.40002
1.40003
1.40004
1.40005
1.40006
1.40008
1.4001
1.40013
1.40017
1.40021
1.40027
1.40036
1.40049
1.4007
1.40101
1.40149
1.40221
1.40327
1.4048
1.40693
1.40983
1.41363
1.41841
1.4241
1.43043
1.43693
1.44297
1.44792
1.45127
1.45274
1.4523
1.45011
1.44646
1.44169
1.43615
1.43014
1.42393
1.41773
1.41171
1.40598
1.40065
1.39575
1.39134
1.38741
1.38396
1.38098
1.37842
1.37627
1.37449
1.37305
1.37192
1.37107
1.37049
1.37018
1.37014
1.37039
1.37093
1.37181
1.37306
1.37472
1.37684
1.37945
1.3826
1.3863
1.39058
1.39546
1.40096
1.40709
1.41383
1.42109
1.42863
1.43608
1.4429
1.44849
1.4523
1.45395
1.45331
1.45057
1.44617
1.44067
1.43466
1.42866
1.42305
1.41806
1.41382
1.41032
1.40754
1.40537
1.40373
1.40252
1.40165
1.40103
1.40061
1.40033
1.40015
1.40004
1.39998
1.39996
1.39994
1.39994
1.39994
1.39995
1.39996
1.39997
1.39998
1.39998
1.39999
1.39999
1.4
1.4
1.4
1.4
1.4
1.4
1.4
1.4
1.4
1.40001
1.4
1.40001
1.4
1.40001
1.4
1.40001
1.4
1.40001
1.4
1.40001
1.40001
1.40001
1.40001
1.4
1.40001
1.4
1.4
1.4
1.40001
1.40001
1.4
1.40001
1.40001
1.40001
1.40001
1.40001
1.40001
1.40001
1.40001
1.40001
1.40001
1.40002
1.40002
1.40003
1.40004
1.40005
1.40007
1.40009
1.40012
1.40015
1.40019
1.40024
1.40031
1.40043
1.40059
1.40084
1.40123
1.40183
1.40273
1.40404
1.40591
1.4085
1.41198
1.41646
1.42196
1.42828
1.43499
1.44142
1.44687
1.45072
1.45259
1.45239
1.45028
1.44657
1.44161
1.4358
1.42945
1.42288
1.4163
1.4099
1.40381
1.39815
1.39296
1.3883
1.38416
1.38055
1.37743
1.37478
1.37255
1.3707
1.36919
1.36797
1.367
1.36627
1.36575
1.36543
1.36531
1.36542
1.36578
1.36641
1.36737
1.36871
1.37048
1.37274
1.37555
1.37892
1.38291
1.38752
1.39278
1.39872
1.40536
1.41266
1.4205
1.4286
1.43648
1.44356
1.44916
1.45273
1.45393
1.45273
1.44944
1.44457
1.43876
1.4326
1.42661
1.42112
1.41634
1.41234
1.40909
1.40654
1.40459
1.40314
1.40208
1.40133
1.4008
1.40045
1.40023
1.40009
1.4
1.39998
1.39995
1.39994
1.39994
1.39994
1.39995
1.39996
1.39997
1.39998
1.39999
1.39999
1.4
1.4
1.4
1.4
1.4
1.4
1.4
1.4
1.4
1.4
1.4
1.4
1.40001
1.4
1.40001
1.4
1.40001
1.4
1.40001
1.40001
1.4
1.40001
1.40001
1.4
1.40001
1.40001
1.4
1.4
1.40001
1.40001
1.4
1.4
1.40001
1.4
1.40001
1.40001
1.40001
1.40001
1.40001
1.40001
1.40002
1.40002
1.40003
1.40004
1.40005
1.40006
1.40008
1.4001
1.40013
1.40017
1.40021
1.40027
1.40036
1.4005
1.4007
1.40102
1.40151
1.40225
1.40335
1.40496
1.40722
1.41034
1.41445
1.41965
1.42584
1.43264
1.43944
1.44543
1.44988
1.45229
1.45251
1.45063
1.44698
1.44195
1.43594
1.42932
1.42242
1.41549
1.40873
1.4023
1.39631
1.39084
1.38593
1.3816
1.37784
1.37463
1.37193
1.36969
1.36786
1.36637
1.36517
1.36421
1.36345
1.36285
1.36239
1.36206
1.36187
1.36182
1.36195
1.36229
1.36291
1.36386
1.3652
1.36702
1.36938
1.37234
1.37594
1.38021
1.38516
1.39082
1.39724
1.40441
1.41229
1.42071
1.4293
1.43751
1.44466
1.45005
1.45316
1.45372
1.45184
1.44793
1.4426
1.43651
1.43029
1.42438
1.41909
1.41457
1.41085
1.40788
1.40559
1.40386
1.40259
1.40167
1.40104
1.40061
1.40032
1.40014
1.40003
1.4
1.39996
1.39994
1.39994
1.39994
1.39995
1.39996
1.39997
1.39998
1.39998
1.39999
1.39999
1.4
1.4
1.4
1.4
1.4
1.4
1.4
1.4
1.4
1.4
1.40001
1.4
1.40001
1.4
1.4
1.40001
1.4
1.40001
1.4
1.40001
1.4
1.40001
1.4
1.40001
1.40001
1.4
1.40001
1.4
1.40001
1.40001
1.4
1.40001
1.40001
1.40001
1.40001
1.40001
1.40001
1.40001
1.40001
1.40002
1.40002
1.40003
1.40004
1.40005
1.40007
1.40009
1.40011
1.40014
1.40018
1.40024
1.40031
1.40042
1.40058
1.40083
1.40123
1.40183
1.40274
1.40409
1.40603
1.40875
1.41244
1.41725
1.42316
1.42994
1.437
1.44353
1.44867
1.45178
1.45257
1.4511
1.44766
1.44267
1.43656
1.42974
1.42256
1.4153
1.40819
1.40142
1.3951
1.38933
1.38418
1.37966
1.37577
1.37249
1.36978
1.36759
1.36584
1.36446
1.3634
1.36257
1.36192
1.36139
1.36095
1.36057
1.36024
1.35995
1.35973
1.35961
1.35963
1.35985
1.36034
1.36118
1.36246
1.36427
1.36669
1.36979
1.3736
1.37816
1.38347
1.38958
1.3965
1.40425
1.41274
1.42171
1.4307
1.43908
1.4461
1.45106
1.45348
1.45324
1.45057
1.44601
1.44025
1.43398
1.42777
1.42203
1.417
1.41279
1.40939
1.40672
1.40469
1.40318
1.40209
1.40132
1.40079
1.40044
1.40021
1.40007
1.40002
1.39997
1.39994
1.39994
1.39994
1.39995
1.39996
1.39997
1.39998
1.39998
1.39999
1.39999
1.4
1.4
1.4
1.4
1.4
1.4
1.4
1.4
1.4
1.40001
1.4
1.40001
1.4
1.40001
1.40001
1.4
1.40001
1.4
1.40001
1.40001
1.4
1.40001
1.40001
1.4
1.40001
1.40001
1.40001
1.4
1.40001
1.40001
1.4
1.40001
1.40001
1.40001
1.40001
1.40001
1.40001
1.40001
1.40001
1.40002
1.40002
1.40003
1.40004
1.40006
1.40007
1.4001
1.40013
1.40016
1.40021
1.40027
1.40035
1.40048
1.40068
1.40099
1.40147
1.40221
1.40332
1.40495
1.40728
1.41051
1.41484
1.42035
1.42693
1.43412
1.44113
1.44701
1.45094
1.45249
1.4516
1.44854
1.44373
1.43764
1.43069
1.42329
1.41573
1.40829
1.40116
1.3945
1.38843
1.38301
1.37828
1.37426
1.37092
1.36822
1.36611
1.36451
1.36333
1.36249
1.3619
1.36149
1.36119
1.36093
1.36067
1.36039
1.36006
1.35968
1.35929
1.3589
1.35856
1.35834
1.35832
1.35858
1.35923
1.36038
1.36214
1.3646
1.36783
1.37187
1.37674
1.38245
1.38904
1.39654
1.40491
1.414
1.42347
1.43276
1.44111
1.44775
1.45202
1.45355
1.45236
1.44886
1.44369
1.43758
1.43121
1.42511
1.41962
1.41492
1.41106
1.40799
1.40563
1.40386
1.40256
1.40164
1.40101
1.40058
1.4003
1.40013
1.40006
1.39999
1.39995
1.39994
1.39994
1.39994
1.39995
1.39996
1.39997
1.39998
1.39999
1.39999
1.4
1.4
1.4
1.4
1.4
1.4
1.4
1.4
1.4
1.4
1.4
1.40001
1.4
1.4
1.40001
1.4
1.4
1.40001
1.4
1.40001
1.40001
1.4
1.40001
1.4
1.4
1.40001
1.40001
1.4
1.4
1.40001
1.4
1.40001
1.4
1.40001
1.40001
1.40001
1.40001
1.40001
1.40002
1.40002
1.40003
1.40003
1.40005
1.40006
1.40008
1.40011
1.40014
1.40018
1.40023
1.4003
1.4004
1.40056
1.4008
1.40118
1.40176
1.40265
1.40399
1.40595
1.40872
1.41252
1.41751
1.42373
1.43086
1.43822
1.44481
1.44967
1.45214
1.45204
1.44954
1.44507
1.43912
1.43214
1.42457
1.41676
1.409
1.40152
1.3945
1.3881
1.38239
1.37743
1.37325
1.36984
1.36716
1.36515
1.36372
1.36279
1.36226
1.36202
1.36196
1.36201
1.36207
1.3621
1.36203
1.36185
1.36153
1.36108
1.36051
1.35985
1.35916
1.35848
1.35792
1.35755
1.3575
1.3579
1.35888
1.36056
1.36306
1.36644
1.37073
1.37594
1.38211
1.38925
1.39737
1.4064
1.41608
1.42596
1.43536
1.44345
1.44944
1.45277
1.45323
1.45102
1.44668
1.44097
1.43461
1.42826
1.42237
1.41721
1.41289
1.4094
1.40669
1.40463
1.40311
1.40202
1.40126
1.40075
1.40041
1.40019
1.40011
1.40001
1.39996
1.39994
1.39994
1.39994
1.39995
1.39996
1.39997
1.39998
1.39998
1.39999
1.39999
1.4
1.4
1.4
1.4
1.4
1.4
1.4
1.4
1.4
1.40001
1.4
1.40001
1.4
1.40001
1.40001
1.4
1.40001
1.4
1.40001
1.40001
1.4
1.40001
1.4
1.4
1.40001
1.4
1.40001
1.4
1.40001
1.40001
1.40001
1.4
1.40001
1.40001
1.40001
1.40001
1.40001
1.40002
1.40002
1.40003
1.40004
1.40005
1.40007
1.40009
1.40011
1.40015
1.40019
1.40025
1.40034
1.40046
1.40064
1.40093
1.40139
1.4021
1.40317
1.40477
1.40709
1.41035
1.41476
1.42046
1.42731
1.43481
1.44202
1.44783
1.45138
1.45226
1.45054
1.4466
1.44093
1.43404
1.42639
1.41837
1.41031
1.40248
1.3951
1.38833
1.38229
1.37707
1.3727
1.36918
1.36649
1.36457
1.36334
1.3627
1.36252
1.36269
1.36307
1.36357
1.36408
1.36451
1.36481
1.36493
1.36484
1.36454
1.36401
1.36328
1.36238
1.36134
1.36023
1.35913
1.35813
1.35735
1.35694
1.35705
1.35784
1.35946
1.36202
1.36557
1.37016
1.37578
1.38247
1.39024
1.39904
1.40873
1.41894
1.42908
1.43835
1.4459
1.45097
1.45314
1.4524
1.44914
1.44404
1.43789
1.43143
1.42522
1.41963
1.41486
1.41095
1.40786
1.4055
1.40373
1.40246
1.40156
1.40094
1.40053
1.40027
1.40016
1.40004
1.39998
1.39995
1.39994
1.39994
1.39995
1.39996
1.39997
1.39998
1.39998
1.39999
1.39999
1.4
1.4
1.4
1.4
1.4
1.4
1.4
1.4
1.4
1.4
1.40001
1.40001
1.4
1.4
1.40001
1.4
1.4
1.40001
1.4
1.4
1.40001
1.40001
1.4
1.4
1.40001
1.4
1.40001
1.40001
1.40001
1.4
1.40001
1.40001
1.40001
1.40001
1.40001
1.40001
1.40001
1.40002
1.40002
1.40003
1.40004
1.40005
1.40007
1.4001
1.40013
1.40016
1.40021
1.40028
1.40038
1.40052
1.40074
1.40109
1.40164
1.40249
1.40377
1.40567
1.4084
1.41219
1.41725
1.42362
1.43101
1.43863
1.44534
1.45006
1.45212
1.45139
1.44818
1.44298
1.43632
1.42869
1.42053
1.41221
1.40405
1.39629
1.38913
1.38272
1.37718
1.37256
1.36888
1.36614
1.36428
1.36323
1.36287
1.36307
1.36369
1.36458
1.36559
1.36661
1.36754
1.36829
1.36881
1.36907
1.36905
1.36874
1.36816
1.3673
1.36619
1.36487
1.36338
1.3618
1.36021
1.35874
1.35752
1.35673
1.35655
1.35718
1.35877
1.36143
1.36522