/*--------------------------------*- C++ -*----------------------------------*\
  =========                 |
  \\      /  F ield         | OpenFOAM: The Open Source CFD Toolbox
   \\    /   O peration     | Website:  https://openfoam.org
    \\  /    A nd           | Version:  6
     \\/     M anipulation  |
\*---------------------------------------------------------------------------*/
FoamFile
{
    version     2.0;
    format      ascii;
    class       surfaceScalarField;
    location    "1.8";
    object      phi;
}
// * * * * * * * * * * * * * * * * * * * * * * * * * * * * * * * * * * * * * //

dimensions      [0 3 -1 0 0 0 0];

internalField   nonuniform List<scalar> 
8193
(
0.108089
-0.191407
-0.0989097
0.114805
-0.19361
0.119828
-0.194827
0.123413
-0.195766
0.125631
-0.196615
0.126395
-0.197235
0.125534
-0.197345
0.123023
-0.196814
0.118911
-0.1957
0.113294
-0.194059
0.106313
-0.191993
0.0980986
-0.189554
0.0887777
-0.18675
0.0784759
-0.183605
0.0673714
-0.180283
0.0557026
-0.177109
0.043669
-0.174589
0.0312838
-0.17318
0.0184649
-0.173321
0.00524239
-0.174711
-0.00822644
-0.175659
-0.0216342
-0.173855
-0.0341218
-0.171478
-0.0455757
-0.168042
-0.0565279
-0.164411
-0.0672486
-0.16202
-0.0775417
-0.160922
-0.0871603
-0.160778
-0.0957526
-0.161186
-0.103173
-0.161874
-0.109354
-0.162826
-0.11423
-0.164097
-0.117717
-0.165687
-0.119751
-0.167488
-0.120248
-0.169385
-0.119263
-0.171171
-0.117081
-0.172953
-0.1139
-0.175164
-0.109678
-0.177996
-0.104223
-0.181192
-0.184034
-0.0967067
0.127959
-0.201637
-0.119154
0.134393
-0.204125
0.139337
-0.206277
0.142815
-0.207904
0.144627
-0.208942
0.14455
-0.209205
0.142491
-0.208529
0.138535
-0.206958
0.132818
-0.2046
0.125522
-0.201566
0.116839
-0.197981
0.10694
-0.193893
0.0960023
-0.189341
0.0842537
-0.184421
0.0719685
-0.179371
0.059422
-0.174545
0.0467355
-0.170327
0.0338196
-0.166991
0.0204312
-0.164852
0.00650104
-0.163814
-0.00777444
-0.16248
-0.0219902
-0.158781
-0.0351014
-0.155565
-0.046681
-0.151757
-0.0573423
-0.147212
-0.0675788
-0.143514
-0.0774583
-0.14117
-0.0868806
-0.140039
-0.0955732
-0.139921
-0.103317
-0.140517
-0.109997
-0.141733
-0.115589
-0.143559
-0.120047
-0.146034
-0.123283
-0.149115
-0.125186
-0.152722
-0.125668
-0.156631
-0.124892
-0.160705
-0.123196
-0.165198
-0.120789
-0.170421
-0.117673
-0.176307
-0.182887
-0.113077
0.147687
-0.211444
-0.139223
0.154306
-0.214628
0.15928
-0.21746
0.162353
-0.219259
0.163269
-0.219934
0.161932
-0.219433
0.158419
-0.217758
0.152884
-0.215021
0.145537
-0.211387
0.136614
-0.207
0.126322
-0.20197
0.114876
-0.196367
0.102521
-0.19028
0.0895413
-0.18387
0.0762404
-0.177416
0.0628644
-0.171242
0.0494879
-0.165585
0.0359704
-0.160533
0.0220535
-0.156309
0.00766634
-0.153034
-0.00692791
-0.149669
-0.0213633
-0.144276
-0.0349328
-0.14007
-0.0468888
-0.136043
-0.0575013
-0.131059
-0.0674189
-0.126349
-0.076927
-0.122812
-0.0860188
-0.120624
-0.0945567
-0.11974
-0.102364
-0.119926
-0.109308
-0.121072
-0.115318
-0.123123
-0.120398
-0.126069
-0.124516
-0.129917
-0.12761
-0.134635
-0.129559
-0.14007
-0.130297
-0.146035
-0.130037
-0.152508
-0.129149
-0.15964
-0.127825
-0.167532
-0.176784
-0.125674
0.169661
-0.221043
-0.161286
0.176156
-0.224771
0.180434
-0.22761
0.182365
-0.229053
0.181831
-0.228993
0.178858
-0.227502
0.173613
-0.224708
0.166327
-0.220785
0.157254
-0.215918
0.146645
-0.210256
0.13475
-0.203917
0.121838
-0.197006
0.108203
-0.189658
0.0941638
-0.182073
0.0800137
-0.174533
0.0659536
-0.167291
0.0520071
-0.160431
0.0380013
-0.153868
0.023683
-0.147771
0.00896811
-0.142453
-0.00582559
-0.137302
-0.0203453
-0.130438
-0.0341543
-0.125183
-0.0464966
-0.120873
-0.0572396
-0.115772
-0.066998
-0.110384
-0.0761929
-0.105827
-0.0849729
-0.102573
-0.0933331
-0.100752
-0.101159
-0.100265
-0.108315
-0.101039
-0.114719
-0.102994
-0.120343
-0.106081
-0.125205
-0.110281
-0.129283
-0.115615
-0.132496
-0.122003
-0.13474
-0.12929
-0.136045
-0.137326
-0.136658
-0.146044
-0.136841
-0.155529
-0.166601
-0.136626
0.193149
-0.229981
-0.18527
0.198701
-0.233689
0.20167
-0.23607
0.201956
-0.236739
0.199581
-0.235687
0.194703
-0.233099
0.187569
-0.229182
0.178453
-0.224131
0.167632
-0.218131
0.155385
-0.21134
0.142001
-0.203895
0.127787
-0.195934
0.113067
-0.187622
0.0981583
-0.179174
0.0833162
-0.170831
0.0686777
-0.162747
0.0542278
-0.154879
0.0398095
-0.14702
0.0252019
-0.139298
0.0103115
-0.132175
-0.00453816
-0.125478
-0.0189766
-0.117393
-0.0328268
-0.111073
-0.0454454
-0.106337
-0.0564424
-0.101216
-0.0661828
-0.0954831
-0.0751718
-0.0901322
-0.0836798
-0.0858918
-0.0918182
-0.0830721
-0.0995634
-0.0817272
-0.106835
-0.0818623
-0.113524
-0.0834439
-0.119583
-0.0863781
-0.125014
-0.0906154
-0.129873
-0.0961362
-0.13412
-0.102969
-0.137673
-0.111011
-0.140489
-0.12008
-0.14265
-0.129987
-0.144366
-0.14069
-0.153001
-0.145851
0.217462
-0.237464
-0.210821
0.221375
-0.240636
0.222411
-0.242168
0.22059
-0.241812
0.216077
-0.239677
0.209126
-0.236019
0.200022
-0.231063
0.189059
-0.225005
0.176535
-0.218036
0.162755
-0.210321
0.148037
-0.202021
0.132708
-0.193296
0.117096
-0.184325
0.101488
-0.1753
0.0860833
-0.166393
0.0709575
-0.157655
0.0560782
-0.148954
0.0413316
-0.140023
0.0265439
-0.130949
0.0116043
-0.122276
-0.00319073
-0.114258
-0.0174414
-0.105205
-0.0311583
-0.0978734
-0.0438602
-0.0925956
-0.0551062
-0.0873787
-0.0649736
-0.0814944
-0.073894
-0.0756006
-0.0822213
-0.0705205
-0.0901645
-0.066727
-0.0977924
-0.0644314
-0.105098
-0.0637323
-0.11198
-0.0647059
-0.118376
-0.0672362
-0.124266
-0.0712468
-0.129716
-0.0766443
-0.134759
-0.0835027
-0.139369
-0.0917875
-0.143476
-0.101367
-0.147091
-0.111977
-0.150334
-0.123468
-0.136541
-0.153436
0.241609
-0.242641
-0.237002
0.24321
-0.244889
0.241828
-0.245375
0.237616
-0.243945
0.230826
-0.240787
0.221748
-0.236173
0.21068
-0.230324
0.197936
-0.223443
0.183828
-0.21572
0.168683
-0.207336
0.152831
-0.198464
0.136599
-0.18927
0.120287
-0.179922
0.104136
-0.170567
0.0882833
-0.161293
0.0727598
-0.152059
0.0575289
-0.142687
0.0425328
-0.132906
0.0276587
-0.122766
0.0127752
-0.11281
-0.00187383
-0.103686
-0.0158744
-0.0938867
-0.0293357
-0.085665
-0.041988
-0.0797463
-0.0533599
-0.0743545
-0.0634017
-0.0683547
-0.0723681
-0.0621158
-0.0806142
-0.056375
-0.0884243
-0.0516913
-0.0959475
-0.0484258
-0.103232
-0.046793
-0.110243
-0.0469654
-0.116883
-0.048905
-0.123127
-0.0524754
-0.129024
-0.0575188
-0.134635
-0.0641093
-0.140003
-0.0722417
-0.145117
-0.0818395
-0.149966
-0.0926484
-0.154593
-0.104466
-0.11785
-0.159181
0.26443
-0.244761
-0.26255
0.263269
-0.245949
0.259218
-0.245395
0.252512
-0.242999
0.243428
-0.238967
0.232261
-0.233568
0.219326
-0.227033
0.204944
-0.21956
0.189442
-0.211346
0.173151
-0.202577
0.156395
-0.193424
0.139474
-0.184041
0.122646
-0.174564
0.106091
-0.16508
0.0898974
-0.155597
0.0740646
-0.146006
0.0585659
-0.136116
0.0433948
-0.125695
0.0285084
-0.114773
0.0137633
-0.103808
-0.000664921
-0.0937823
-0.014383
-0.0834212
-0.0275175
-0.0744709
-0.0399797
-0.0678861
-0.0513857
-0.0621992
-0.0615603
-0.0560792
-0.0706329
-0.0496034
-0.078889
-0.0433656
-0.0866482
-0.0379031
-0.094117
-0.0337029
-0.101383
-0.0311106
-0.10849
-0.0303537
-0.115314
-0.0315763
-0.121833
-0.0345479
-0.128079
-0.0390682
-0.134093
-0.0452107
-0.139956
-0.0529374
-0.145736
-0.0621916
-0.151459
-0.0727648
-0.157164
-0.084443
-0.097669
-0.163006
0.284826
-0.243392
-0.28605
0.280731
-0.243596
0.273976
-0.242155
0.264819
-0.238984
0.253532
-0.234278
0.240415
-0.228319
0.225792
-0.221347
0.209994
-0.213559
0.193349
-0.205145
0.176172
-0.196282
0.158757
-0.187124
0.141361
-0.177797
0.124187
-0.168394
0.10736
-0.158939
0.0909292
-0.149376
0.0748816
-0.139551
0.0592042
-0.129288
0.0439292
-0.118416
0.0290833
-0.106975
0.014532
-0.095275
0.000379694
-0.0845508
-0.0130428
-0.0737681
-0.0258292
-0.0642606
-0.0380108
-0.0570571
-0.0493347
-0.0509856
-0.0595831
-0.0446912
-0.0687725
-0.0380274
-0.0771049
-0.0314135
-0.0848972
-0.0252825
-0.0923852
-0.0202127
-0.0996899
-0.0166751
-0.106873
-0.0149668
-0.113853
-0.0153833
-0.120624
-0.0176297
-0.127144
-0.0215486
-0.133445
-0.0271475
-0.139613
-0.0343388
-0.14576
-0.0430458
-0.151952
-0.0531103
-0.158314
-0.0642599
-0.0768806
-0.165026
0.301915
-0.238424
-0.306304
0.294944
-0.237847
0.285615
-0.235749
0.27417
-0.232033
0.260875
-0.226894
0.24604
-0.22064
0.229997
-0.213518
0.213074
-0.205715
0.195579
-0.197396
0.177793
-0.188713
0.159965
-0.179793
0.142296
-0.17072
0.124931
-0.161543
0.107948
-0.152232
0.0913784
-0.142695
0.0752129
-0.132755
0.0594595
-0.122266
0.0441645
-0.111109
0.0293973
-0.0993606
0.015069
-0.0871873
0.0012176
-0.0759622
-0.0119156
-0.0648661
-0.0243648
-0.0549681
-0.0362284
-0.0472431
-0.0473871
-0.0407469
-0.0576426
-0.0342127
-0.0669216
-0.0273785
-0.0753855
-0.020438
-0.0833099
-0.0137185
-0.090927
-0.00785091
-0.098369
-0.00341425
-0.105651
-0.000831513
-0.112787
-0.000406821
-0.119764
-0.00187932
-0.126485
-0.00518282
-0.132975
-0.0102097
-0.139303
-0.0168291
-0.145579
-0.0249312
-0.151923
-0.0343483
-0.158538
-0.0447257
-0.0564304
-0.165644
0.31503
-0.229982
-0.322413
0.305413
-0.228899
0.29377
-0.226412
0.28031
-0.2224
0.265305
-0.217097
0.249079
-0.210844
0.231962
-0.203882
0.214259
-0.196363
0.196237
-0.188412
0.178126
-0.180143
0.160118
-0.171649
0.142352
-0.162972
0.124926
-0.154122
0.107885
-0.145034
0.0912575
-0.135609
0.0750527
-0.125664
0.0593118
-0.1151
0.0440753
-0.103809
0.0294437
-0.0919407
0.0153602
-0.0795165
0.00180952
-0.0679624
-0.011061
-0.0566321
-0.0232103
-0.0464983
-0.0347657
-0.0383767
-0.0457154
-0.0314707
-0.055914
-0.0246556
-0.0652671
-0.017626
-0.0739353
-0.0103283
-0.0821363
-0.00304014
-0.0900536
0.00356611
-0.0977873
0.00882079
-0.105293
0.0121498
-0.112593
0.0133095
-0.119677
0.0125213
-0.126477
0.00979009
-0.133003
0.00529599
-0.139305
-0.000794701
-0.145495
-0.00831156
-0.151764
-0.0170075
-0.158299
-0.0265361
-0.0372435
-0.165303
0.323691
-0.218393
-0.333706
0.311816
-0.217111
0.298237
-0.214502
0.283142
-0.210452
0.266824
-0.205274
0.249618
-0.199337
0.231828
-0.192835
0.213711
-0.185867
0.19548
-0.178508
0.177308
-0.170831
0.159328
-0.162896
0.141626
-0.1547
0.124264
-0.146242
0.107264
-0.137424
0.090663
-0.128177
0.0744895
-0.11832
0.0588116
-0.107806
0.0436755
-0.0965181
0.0291857
-0.0846763
0.0153318
-0.0721976
0.00207788
-0.0604932
-0.0105467
-0.0489917
-0.0224365
-0.0387507
-0.0337276
-0.0303526
-0.0444797
-0.0230847
-0.0546183
-0.0159638
-0.0640825
-0.00867737
-0.0730603
-0.000929838
-0.0817305
0.006986
-0.0902008
0.0143202
-0.0984684
0.0202871
-0.106416
0.0241917
-0.113883
0.0257437
-0.120978
0.0254262
-0.127666
0.0230978
-0.133981
0.0190042
-0.140008
0.0133595
-0.145886
0.00638654
-0.151781
-0.00164034
-0.157863
-0.0103737
-0.020135
-0.164321
0.32765
-0.204194
-0.339736
0.314048
-0.202998
0.299017
-0.200494
0.282762
-0.196657
0.265615
-0.191909
0.247893
-0.186585
0.229844
-0.180795
0.211663
-0.174578
0.1935
-0.167962
0.175475
-0.160985
0.157676
-0.153681
0.140146
-0.146008
0.122944
-0.137987
0.106071
-0.129475
0.0895978
-0.12048
0.0735509
-0.110792
0.0580253
-0.100442
0.0430365
-0.0892464
0.0286864
-0.077522
0.0149947
-0.0651145
0.00195766
-0.0534214
-0.01046
-0.0418481
-0.0221018
-0.0316526
-0.0331636
-0.0230719
-0.0437714
-0.0154703
-0.0539156
-0.00800642
-0.0636155
-0.000344837
-0.0731279
0.00804191
-0.0825388
0.0166847
-0.0918012
0.0246955
-0.100827
0.0312427
-0.109317
0.0354144
-0.117208
0.0371526
-0.12438
0.0368805
-0.130851
0.0345899
-0.136673
0.0305569
-0.142025
0.0251227
-0.14715
0.0185712
-0.152262
0.0111478
-0.157487
0.00311101
-0.00580696
-0.163001
0.32699
-0.188129
-0.340387
0.312289
-0.187181
0.296373
-0.184952
0.27951
-0.181572
0.262071
-0.177544
0.244293
-0.173055
0.226357
-0.168142
0.208393
-0.162787
0.190499
-0.156981
0.172752
-0.150742
0.155207
-0.144081
0.137893
-0.136937
0.120879
-0.129379
0.104169
-0.121209
0.0878815
-0.11256
0.0719976
-0.103093
0.0566869
-0.0930414
0.0418899
-0.0820028
0.0277522
-0.0705095
0.0142249
-0.0582226
0.00136664
-0.046656
-0.0108704
-0.0351172
-0.022297
-0.0251088
-0.0331807
-0.0164175
-0.0436933
-0.00850982
-0.053962
-0.000594609
-0.0641144
0.00765867
-0.074467
0.016961
-0.0847998
0.0263024
-0.0950779
0.034975
-0.104997
0.041873
-0.114313
0.0461417
-0.12278
0.0477163
-0.130163
0.0470279
-0.136336
0.0441739
-0.141372
0.0396259
-0.145632
0.0340143
-0.14947
0.0276099
-0.153304
0.0207256
-0.157228
0.013294
0.0051905
-0.161478
0.322176
-0.171062
-0.336019
0.307054
-0.170342
0.290862
-0.168494
0.273998
-0.165815
0.256782
-0.16271
0.239343
-0.159157
0.221795
-0.155167
0.204227
-0.150687
0.186699
-0.145676
0.169298
-0.140177
0.152045
-0.134139
0.135005
-0.127547
0.118235
-0.120472
0.101716
-0.112647
0.0856373
-0.104424
0.0698721
-0.0951592
0.0547253
-0.0855275
0.0399797
-0.0746147
0.026024
-0.0635696
0.0125977
-0.0514132
2.14138e-06
-0.0402298
-0.0120737
-0.0287226
-0.0232937
-0.0190481
-0.0340513
-0.0102702
-0.0445354
-0.00206537
-0.0550112
0.00642839
-0.0658823
0.0156751
-0.0771175
0.0259464
-0.0885399
0.0360819
-0.0998151
0.0452123
-0.110764
0.0523836
-0.120977
0.056504
-0.130134
0.0575993
-0.137734
0.0559127
-0.143582
0.0518461
-0.147507
0.0458901
-0.150446
0.0397859
-0.152461
0.0329224
-0.15453
0.0265326
-0.156726
0.0196388
0.0123668
-0.159369
0.313969
-0.153418
-0.327845
0.299188
-0.153257
0.283259
-0.151677
0.26706
-0.150072
0.250393
-0.147752
0.233585
-0.145205
0.216527
-0.141992
0.199457
-0.1384
0.182287
-0.134056
0.16527
-0.129344
0.148271
-0.123827
0.131551
-0.117891
0.115009
-0.111251
0.0987125
-0.103816
0.0829684
-0.0961894
0.0672358
-0.0868882
0.0525114
-0.0781357
0.0375739
-0.0668093
0.0240822
-0.056948
0.0103735
-0.0442599
-0.00197981
-0.0340728
-0.0141419
-0.0223607
-0.0252746
-0.0132895
-0.0360091
-0.00445931
-0.0465082
0.00397926
-0.0572365
0.0131849
-0.0686559
0.0236144
-0.0806733
0.0349803
-0.0933222
0.0462441
-0.105496
0.0553931
-0.117708
0.0630878
-0.12834
0.0661036
-0.138166
0.0668526
-0.145402
0.0630185
-0.150851
0.057587
-0.153412
0.0491391
-0.154702
0.0421363
-0.154624
0.0342486
-0.154544
0.0281696
-0.154795
0.0218911
0.0155509
-0.155725
0.303198
-0.316747
0.289649
0.274549
0.259488
0.24352
0.227415
0.210797
0.194155
0.177256
0.1606
0.143765
0.127389
0.111047
0.0950563
0.0796342
0.0640624
0.0497784
0.0348632
0.0216935
0.0077635
-0.00447038
-0.0166386
-0.0277974
-0.039031
-0.0501838
-0.0627777
-0.0743511
-0.0879803
-0.099339
-0.112624
-0.124008
-0.134561
-0.144712
-0.15
-0.156185
-0.155168
-0.156392
-0.153329
-0.152319
-0.150127
-0.149837
-0.023779
-0.135661
-0.0348958
-0.142424
-0.0431383
-0.146827
-0.0480918
-0.150253
-0.0503569
-0.152703
-0.0506419
-0.15451
-0.0493676
-0.155879
-0.0469301
-0.156573
-0.0436258
-0.156403
-0.0395879
-0.155106
-0.0348703
-0.15236
-0.0295734
-0.147995
-0.0238473
-0.142016
-0.0177557
-0.134674
-0.0114743
-0.125719
-0.00439521
-0.115959
-0.0991102
-0.0165777
-0.123368
-0.0271659
-0.12999
-0.0354145
-0.134858
-0.041168
-0.139017
-0.0445663
-0.142224
-0.0460179
-0.144593
-0.0459381
-0.146366
-0.0445467
-0.147536
-0.0421291
-0.147877
-0.0388509
-0.147265
-0.0347627
-0.145501
-0.0299219
-0.142405
-0.0244591
-0.137899
-0.018569
-0.132145
-0.0123321
-0.124977
-0.00574331
-0.117247
-0.101421
-0.00944012
-0.111807
-0.0193647
-0.118558
-0.0275288
-0.123533
-0.033815
-0.127998
-0.038066
-0.131794
-0.0404751
-0.134725
-0.0413987
-0.136905
-0.0410163
-0.138537
-0.0395054
-0.13942
-0.0370293
-0.139465
-0.0336542
-0.138581
-0.0294258
-0.136613
-0.0244378
-0.13343
-0.0188558
-0.129112
-0.0127611
-0.123558
-0.00630886
-0.117519
-0.103082
-0.00236583
-0.101722
-0.0118358
-0.107913
-0.0196532
-0.113084
-0.026103
-0.11752
-0.0309515
-0.121614
-0.0341816
-0.124984
-0.0359385
-0.127614
-0.0364836
-0.129617
-0.0358759
-0.131018
-0.0342337
-0.131685
-0.0316283
-0.13159
-0.0280932
-0.130622
-0.0236903
-0.128625
-0.0185483
-0.125608
-0.0127836
-0.121471
-0.00651553
-0.116948
-0.103969
0.00442979
-0.0924478
-0.00429454
-0.0983314
-0.0118779
-0.103369
-0.0183114
-0.107718
-0.0234995
-0.111885
-0.0273299
-0.115532
-0.0298361
-0.118522
-0.0311681
-0.120875
-0.0313945
-0.122716
-0.0305724
-0.123944
-0.028766
-0.124536
-0.0259967
-0.124434
-0.0222907
-0.123484
-0.0177235
-0.121647
-0.0124116
-0.118779
-0.00646124
-0.115617
-0.104058
0.0110187
-0.0843258
0.00281184
-0.0895691
-0.00441444
-0.0944748
-0.0106535
-0.0987192
-0.0159731
-0.102757
-0.0202065
-0.106505
-0.0233036
-0.10973
-0.025283
-0.112401
-0.0262598
-0.114568
-0.0262209
-0.116271
-0.025205
-0.11745
-0.0232301
-0.118078
-0.020289
-0.118034
-0.0164096
-0.117249
-0.0116753
-0.115527
-0.00620703
-0.113563
-0.103376
0.0171736
-0.0769348
0.00967068
-0.0817918
0.00277078
-0.0863348
-0.00330543
-0.0904444
-0.00862347
-0.0943054
-0.0130844
-0.0980171
-0.0165957
-0.101355
-0.0191289
-0.104242
-0.0207239
-0.106672
-0.0213857
-0.108736
-0.0211149
-0.11039
-0.019918
-0.111614
-0.0177686
-0.112326
-0.0146583
-0.112448
-0.0106031
-0.111763
-0.0057823
-0.110807
-0.101971
0.0228703
-0.0705099
0.0158768
-0.0747829
0.00940587
-0.0790148
0.00357017
-0.0829222
-0.00163262
-0.0865881
-0.0061797
-0.0901501
-0.00996114
-0.0934842
-0.0129119
-0.0964807
-0.0150028
-0.0991115
-0.016271
-0.101413
-0.0166734
-0.103432
-0.0162014
-0.105125
-0.0148296
-0.106437
-0.0125296
-0.107299
-0.00924389
-0.10753
-0.00521274
-0.107372
-0.0998976
0.0279994
-0.0647399
0.0216196
-0.0686233
0.015537
-0.0724374
0.00993297
-0.0760963
0.00487264
-0.0795767
0.000332022
-0.0829375
-0.00359472
-0.0861831
-0.00683089
-0.0891972
-0.0093264
-0.0919351
-0.0110745
-0.0944004
-0.0120521
-0.0966668
-0.0122334
-0.0987014
-0.0115903
-0.100461
-0.0100904
-0.101889
-0.00764777
-0.102864
-0.00448421
-0.103328
-0.0971775
0.0324234
-0.0598367
0.0265695
-0.0632024
0.0209491
-0.0666413
0.0156615
-0.070006
0.0107779
-0.0732529
0.00632764
-0.0764066
0.00235679
-0.0794965
-0.00105143
-0.0824518
-0.00383347
-0.0852167
-0.00594824
-0.0877806
-0.00741056
-0.0901699
-0.00817093
-0.0924241
-0.00819544
-0.0944923
-0.00745537
-0.0963197
-0.0058651
-0.0978497
-0.00358566
-0.0987823
-0.0937988
0.0362219
-0.0555808
0.0309466
-0.0585508
0.02576
-0.0615646
0.0207858
-0.0646055
0.0161072
-0.0675951
0.0117837
-0.0705399
0.00783357
-0.0734344
0.00433647
-0.0762756
0.00135541
-0.078998
-0.00106633
-0.0815778
-0.00291308
-0.0840209
-0.00417434
-0.0863685
-0.00480362
-0.0886125
-0.00476506
-0.0906939
-0.00398786
-0.0925976
-0.00260188
-0.0938288
-0.0898115
0.0391992
-0.0521478
0.0344942
-0.0546395
0.0298195
-0.0572549
0.0252385
-0.0599356
0.0208295
-0.0626221
0.0166658
-0.0653202
0.0128029
-0.0680116
0.00927782
-0.0706793
0.00615953
-0.073295
0.00349378
-0.0758174
0.00131314
-0.0782444
-0.000379298
-0.0805936
-0.00154545
-0.0828974
-0.00214053
-0.0851092
-0.00212181
-0.0872175
-0.00159147
-0.088588
-0.0853016
0.0415595
-0.0493856
0.0374555
-0.0514817
0.0332818
-0.0536741
0.0291069
-0.0559737
0.0250174
-0.0583422
0.0210701
-0.0607583
0.0173249
-0.0632102
0.0138221
-0.0656652
0.0106019
-0.0680985
0.00772369
-0.0704924
0.00523032
-0.0728323
0.00315393
-0.0751296
0.00150897
-0.0774038
0.000341645
-0.0796444
-0.000342707
-0.081804
-0.00059525
-0.0831962
-0.0803738
0.0430905
-0.0474174
0.0396101
-0.0490853
0.0360217
-0.0508834
0.0323523
-0.0527891
0.0286632
-0.0547999
0.0250121
-0.0568931
0.0214441
-0.0590465
0.0180078
-0.0612337
0.0147472
-0.063428
0.0117047
-0.0656132
0.00893693
-0.0677922
0.00648735
-0.0699665
0.00438434
-0.0721441
0.0026751
-0.0743372
0.0013402
-0.0764353
0.000378735
-0.0777744
-0.0751215
0.0440196
-0.0461561
0.0411835
-0.0474603
0.0381754
-0.0488599
0.0350365
-0.0503818
0.0318034
-0.0520202
0.0285155
-0.0537565
0.0252057
-0.0555635
0.0219075
-0.0574172
0.018668
-0.0593065
0.0155366
-0.0612197
0.0125495
-0.0631485
0.00975124
-0.0651057
0.00719022
-0.0671055
0.00493829
-0.0691864
0.00299306
-0.0711665
0.00133229
-0.0723651
-0.0696185
0.0442234
-0.045628
0.0420071
-0.0465769
0.0396195
-0.0476314
0.0370636
-0.0487858
0.0343523
-0.0500452
0.0314991
-0.0513919
0.0285244
-0.0528067
0.0254591
-0.0542774
0.0223361
-0.055796
0.0191894
-0.0573533
0.0160557
-0.0589455
0.0129749
-0.06059
0.00999124
-0.0623076
0.00717978
-0.0641694
0.00461694
-0.0659971
0.00223708
-0.0669702
-0.0639525
0.0438034
-0.0458128
0.0422254
-0.0464534
0.0404287
-0.047162
0.0384321
-0.0479658
0.0362374
-0.0488526
0.0338434
-0.0498026
0.031256
-0.050804
0.0284888
-0.0518527
0.0255579
-0.0529443
0.0224829
-0.0540738
0.0192888
-0.0552439
0.016006
-0.0564785
0.0126828
-0.0578175
0.00936963
-0.0593356
0.00612611
-0.0608651
0.00301319
-0.0615883
-0.0582791
0.0428766
-0.0466292
0.041821
-0.0469801
0.0405615
-0.047399
0.0390807
-0.0478738
0.0373628
-0.0483939
0.0354008
-0.0489485
0.033194
-0.0495321
0.030743
-0.0501422
0.028049
-0.0507755
0.0251163
-0.0514305
0.0219564
-0.0521178
0.0185895
-0.0528705
0.0150493
-0.0537429
0.0113552
-0.054796
0.0075078
-0.0558447
0.00375485
-0.0563191
-0.0526502
0.0413009
-0.0481493
0.0408197
-0.048222
0.0400652
-0.0483181
0.0390388
-0.0484518
0.0377338
-0.0486042
0.0361435
-0.0487642
0.0342643
-0.0489295
0.0320933
-0.0490983
0.0296283
-0.0492682
0.0268714
-0.0494421
0.02383
-0.0496362
0.0205131
-0.0498857
0.0169266
-0.0502419
0.0130429
-0.050733
0.00884111
-0.0511812
0.00440512
-0.0511218
-0.0471678
0.0395544
-0.0501927
0.0394502
-0.0500014
0.0390901
-0.0498243
0.038436
-0.049629
0.0374677
-0.0494142
0.0361802
-0.0491839
0.0345707
-0.0489379
0.0326366
-0.0486743
0.030378
-0.0483937
0.0277999
-0.0481035
0.0249091
-0.0478221
0.021708
-0.0475801
0.0181788
-0.0474091
0.0142576
-0.0472911
0.00987851
-0.047047
0.00485501
-0.0460914
-0.0420373
0.0373065
-0.0529605
0.0377136
-0.0524793
0.0377541
-0.0519463
0.0374368
-0.0513883
0.0367678
-0.0508014
0.0357452
-0.0501807
0.0343688
-0.0495281
0.0326422
-0.048845
0.0305719
-0.0481348
0.0281655
-0.047406
0.0254263
-0.0466726
0.0223424
-0.0459501
0.0188705
-0.0452386
0.0149221
-0.0444752
0.010417
-0.0434887
0.00513084
-0.0415502
-0.0374334
0.0352533
-0.056266
0.0359766
-0.0554936
0.0363543
-0.05465
0.0363542
-0.0537358
0.0359652
-0.0527678
0.0351881
-0.051753
0.0340268
-0.0506959
0.0324872
-0.0496001
0.0305772
-0.0484705
0.0283023
-0.0473134
0.0256593
-0.0461336
0.0226252
-0.0449272
0.019147
-0.0436639
0.0151453
-0.0422546
0.0105545
-0.0405418
0.00524375
-0.0377317
-0.0335156
0.03299
-0.0604128
0.0342479
-0.059301
0.0350411
-0.0580484
0.0353964
-0.0567406
0.035321
-0.0553743
0.0348122
-0.0539468
0.0338756
-0.0524705
0.0325209
-0.0509531
0.0307549
-0.0493963
0.0285788
-0.0478008
0.025982
-0.0461597
0.0229364
-0.0444514
0.0193939
-0.0426254
0.0153209
-0.0406075
0.0106345
-0.0381907
0.00541703
-0.0347464
-0.0302154
0.0311252
-0.0652722
0.0327884
-0.0638145
0.0339995
-0.0621824
0.0347399
-0.060467
0.0350014
-0.0586749
0.034782
-0.0568099
0.0340863
-0.0548905
0.032914
-0.0529196
0.0312651
-0.0508993
0.029142
-0.0488325
0.0265352
-0.0467005
0.0234246
-0.0444709
0.0197939
-0.0420975
0.0156236
-0.0395024
0.0108611
-0.0364462
0.00561833
-0.0324643
-0.0274908
0.0292334
-0.0711309
0.0314989
-0.0692751
0.0332082
-0.0671726
0.0343884
-0.0650058
0.0350348
-0.0627496
0.0351355
-0.0604003
0.034692
-0.0579902
0.0337001
-0.0555161
0.0321573
-0.0529822
0.0300511
-0.0503812
0.0273731
-0.047699
0.0241186
-0.0449066
0.020295
-0.0419702
0.0159165
-0.038819
0.01098
-0.0351964
0.00564781
-0.0308031
-0.0254919
0.0276162
-0.0779565
0.0304151
-0.0756572
0.0326494
-0.0730847
0.0342849
-0.0704072
0.0353189
-0.0676309
0.0357446
-0.0647482
0.0355429
-0.0617793
0.0347046
-0.0587308
0.0332159
-0.0556029
0.031072
-0.0523972
0.0282749
-0.0491065
0.0248386
-0.0457145
0.0207975
-0.0422077
0.0161936
-0.0385234
0.0110829
-0.0344192
0.00568746
-0.0297623
-0.0241763
0.0258616
-0.0858764
0.0292931
-0.0830991
0.0320795
-0.0799804
0.034201
-0.0767314
0.0356445
-0.0733652
0.0363881
-0.0698656
0.036409
-0.0662523
0.0356923
-0.06254
0.034231
-0.0587372
0.0320293
-0.0548569
0.0291057
-0.0509066
0.0254974
-0.0468893
0.0212627
-0.0428128
0.0164689
-0.0386239
0.011227
-0.0341246
0.00574775
-0.029282
-0.0234785
0.0239657
-0.0949866
0.0280211
-0.0916237
0.0313804
-0.0879068
0.0339976
-0.0840089
0.0358372
-0.0799541
0.0368708
-0.0757339
0.0370786
-0.0713769
0.0364511
-0.0669083
0.0349941
-0.0623527
0.0327299
-0.05774
0.0296984
-0.053096
0.0259595
-0.0484439
0.0215884
-0.0438079
0.0166699
-0.0391445
0.0113411
-0.034309
0.00576848
-0.0292983
-0.0233768
0.0216979
-0.105308
0.0264489
-0.101323
0.0303871
-0.0968837
0.0334769
-0.0922243
0.0356782
-0.0873649
0.0369637
-0.08231
0.0373216
-0.0771045
0.0367571
-0.0717914
0.0352962
-0.0664164
0.0329837
-0.0610293
0.0298823
-0.0556742
0.0260708
-0.0503913
0.0216354
-0.045213
0.0166716
-0.0401058
0.0113188
-0.0349695
0.00570601
-0.0297916
-0.0238748
0.0189551
-0.11696
0.0243711
-0.112169
0.028873
-0.106894
0.0324116
-0.101344
0.0349432
-0.0955496
0.0364481
-0.0895381
0.0369287
-0.0833776
0.036413
-0.0771374
0.0349526
-0.0708881
0.0326174
-0.0646985
0.029491
-0.0586274
0.0256678
-0.0527266
0.021246
-0.0470333
0.0163312
-0.0415222
0.01105
-0.0361149
0.00552943
-0.0308005
-0.0249857
0.0154804
-0.129773
0.0215743
-0.124162
0.026633
-0.117906
0.0306013
-0.11132
0.033435
-0.104442
0.0351303
-0.0973431
0.0357127
-0.0901216
0.035238
-0.0828778
0.0337858
-0.0757073
0.0314508
-0.0686952
0.0283372
-0.0619109
0.0245558
-0.0554138
0.020222
-0.0492467
0.0154498
-0.043384
0.0103637
-0.0377589
0.00513735
-0.0324101
-0.026801
0.0111169
-0.143976
0.0178884
-0.13726
0.0234886
-0.129859
0.0278631
-0.122071
0.0309723
-0.113952
0.0328337
-0.10563
0.0335017
-0.097241
0.0330618
-0.0889194
0.031622
-0.0807837
0.029303
-0.0729335
0.0262334
-0.0654472
0.0225473
-0.0583909
0.0183824
-0.0518122
0.0138736
-0.0456837
0.0091776
-0.0399614
0.00450339
-0.0347371
-0.0294148
0.00568139
-0.15926
0.0131385
-0.151406
0.0192771
-0.142674
0.0240391
-0.133497
0.0274029
-0.123966
0.0294133
-0.11428
0.0301554
-0.104616
0.029747
-0.0951429
0.0283263
-0.0860011
0.026045
-0.0773051
0.0230635
-0.069144
0.0195478
-0.0615903
0.0156664
-0.0546956
0.0115892
-0.0484351
0.00749925
-0.0427783
0.00360072
-0.0378392
-0.0329243
-0.000940541
-0.175878
0.0072042
-0.166506
0.0138706
-0.156237
0.0190083
-0.145471
0.0226154
-0.134352
0.0247658
-0.123155
0.0255789
-0.112106
0.0252075
-0.101408
0.023826
-0.0912269
0.0216232
-0.0816921
0.0187974
-0.072904
0.0155485
-0.0649385
0.0120741
-0.0578455
0.00857572
-0.0516055
0.00526492
-0.0461984
0.00235326
-0.0417385
-0.0374803
-0.00889329
-0.193355
-4.2866e-05
-0.182455
0.00716511
-0.170427
0.0126791
-0.157851
0.0165293
-0.144956
0.0188229
-0.132096
0.0197164
-0.119551
0.0194026
-0.107561
0.0180971
-0.0963166
0.0160294
-0.0859642
0.0134341
-0.0766108
0.0105425
-0.06833
0.00758142
-0.0611686
0.00478937
-0.0551193
0.00242546
-0.0501829
0.000750451
-0.0464751
-0.0432246
-0.018192
-0.212014
-0.00861977
-0.199111
-0.000866567
-0.185081
0.00503044
-0.170469
0.00913148
-0.155603
0.0115801
-0.140926
0.0125746
-0.126774
0.012351
-0.11343
0.0111679
-0.101108
0.00929414
-0.0899678
0.00699906
-0.0801179
0.0045477
-0.0716293
0.00220695
-0.0645511
0.000266226
-0.0588988
-0.000958343
-0.0546996
-0.00115416
-0.0520646
-0.0502298
-0.0288851
-0.231192
-0.0185486
-0.216333
-0.0102057
-0.200051
-0.00389137
-0.183156
0.000490108
-0.166113
0.00312236
-0.149456
0.00424941
-0.133585
0.0041525
-0.118824
0.00313381
-0.105412
0.00150179
-0.0935165
-0.000434979
-0.0832477
-0.00236548
-0.07468
-0.00396963
-0.0678719
-0.00490277
-0.0628629
-0.00479993
-0.059699
-0.00330498
-0.0584808
-0.0585032
-0.0409218
-0.25128
-0.0298196
-0.233911
-0.0208735
-0.21513
-0.0141046
-0.195722
-0.00939694
-0.176296
-0.00653255
-0.157493
-0.00522725
-0.139784
-0.00515597
-0.123537
-0.00597157
-0.109018
-0.00731911
-0.0964024
-0.00883782
-0.0858096
-0.0101568
-0.0773238
-0.0108965
-0.0710116
-0.0106622
-0.0669258
-0.00905059
-0.0651187
-0.00566879
-0.065677
-0.0680152
-0.0542172
-0.271405
-0.0423158
-0.251648
-0.0327342
-0.230111
-0.0254837
-0.207949
-0.0204226
-0.185928
-0.0173008
-0.164806
-0.0157927
-0.145135
-0.0155239
-0.127337
-0.0160946
-0.111705
-0.0170929
-0.0984309
-0.018099
-0.0876413
-0.018686
-0.0794276
-0.0184269
-0.0738548
-0.0168917
-0.0709754
-0.0136449
-0.0708431
-0.00823601
-0.0735544
-0.0787317
-0.0684869
-0.292129
-0.0557023
-0.26938
-0.045373
-0.244854
-0.0375344
-0.219682
-0.032032
-0.194833
-0.0285866
-0.171196
-0.0268245
-0.149423
-0.0263139
-0.130002
-0.026594
-0.113256
-0.0271934
-0.0993913
-0.0276377
-0.0885369
-0.0274493
-0.0807858
-0.0261521
-0.076198
-0.0232744
-0.0748166
-0.0183325
-0.0767009
-0.0108389
-0.0819436
-0.0904643
-0.0983271
0.0473179
0.101054
-0.0960625
0.0456128
-0.0936497
0.042846
-0.0915284
0.0389179
-0.0891768
0.0337556
-0.0869107
0.0272779
-0.0842987
0.0194552
-0.0816075
0.0102879
-0.0784532
-0.000243587
-0.0750423
-0.0120568
-0.071053
-0.0250729
-0.0666489
-0.039156
-0.0615613
-0.0541371
-0.0559168
-0.069839
-0.0495114
-0.0860102
-0.042424
-0.102464
-0.0345188
-0.118908
-0.0258069
-0.135141
-0.0162694
-0.150926
-0.00583137
-0.165988
0.0054106
-0.180239
0.0175995
-0.193288
0.0305145
-0.205225
0.0442922
-0.215657
0.0587371
-0.224519
0.0738907
-0.231591
0.0896201
-0.236747
0.105746
-0.239905
0.122342
-0.240858
0.13894
-0.239688
0.155855
-0.236162
0.172353
-0.230439
0.188925
-0.222518
0.204706
-0.212607
0.220262
-0.200894
0.234701
-0.18767
0.24861
-0.173217
0.261119
-0.157884
0.272844
-0.14205
0.282949
-0.126066
-0.110287
-0.0918623
0.0431355
0.0937911
-0.0900244
0.0417736
-0.0882288
0.0393327
-0.0864155
0.035701
-0.0845231
0.0308031
-0.0824896
0.0245557
-0.080255
0.0169296
-0.0777395
0.00790246
-0.0748871
-0.00252368
-0.0716308
-0.0142806
-0.06791
-0.0272863
-0.0636741
-0.0413986
-0.0588583
-0.0564662
-0.0534313
-0.0722823
-0.0473274
-0.0886341
-0.0405265
-0.105293
-0.0329731
-0.122007
-0.0246435
-0.138547
-0.0155231
-0.154672
-0.00557
-0.170141
0.00517679
-0.184789
0.0167594
-0.198316
0.0290851
-0.210681
0.0421651
-0.221605
0.0559146
-0.230936
0.0702718
-0.238486
0.0851525
-0.244118
0.100416
-0.247704
0.115993
-0.249115
0.131681
-0.248313
0.147415
-0.24521
0.162953
-0.239793
0.178176
-0.232192
0.192896
-0.222545
0.206975
-0.21109
0.22022
-0.198059
0.232498
-0.183786
0.243663
-0.168593
0.253593
-0.152868
0.262193
-0.13697
-0.121242
-0.0852877