/*--------------------------------*- C++ -*----------------------------------*\
  =========                 |
  \\      /  F ield         | OpenFOAM: The Open Source CFD Toolbox
   \\    /   O peration     | Website:  https://openfoam.org
    \\  /    A nd           | Version:  6
     \\/     M anipulation  |
\*---------------------------------------------------------------------------*/
FoamFile
{
    version     2.0;
    format      ascii;
    class       volScalarField;
    location    "1.54";
    object      p;
}
// * * * * * * * * * * * * * * * * * * * * * * * * * * * * * * * * * * * * * //

dimensions      [0 2 -2 0 0 0 0];

internalField   nonuniform List<scalar> 
4214
(
-0.120185
-0.0943227
-0.0608397
-0.0357996
-0.0304432
-0.0288727
-0.027054
-0.0214325
-0.0120713
-0.00539822
-0.00115165
0.00223404
0.00528328
0.00879976
0.0136327
0.019693
0.0264319
0.0302703
0.032344
0.029303
0.0266441
0.0266545
0.0389917
0.0520181
0.059109
0.0592277
0.0503242
0.0370959
0.0223086
0.00822296
-0.00488964
-0.0173148
-0.0299943
-0.043483
-0.0537376
-0.059954
-0.0641723
-0.0737054
-0.094857
-0.11263
-0.109868
-0.0811254
-0.0952239
-0.0885547
-0.0560196
-0.039675
-0.031109
-0.0260184
-0.021727
-0.0157367
-0.0099297
-0.00515254
0.000278395
0.00640151
0.0134084
0.0221388
0.0331524
0.0465216
0.0589619
0.076142
0.0876116
0.0956536
0.105095
0.121407
0.12464
0.121111
0.110522
0.0972249
0.0790278
0.0577785
0.0349991
0.0123581
-0.0096512
-0.0313237
-0.0501655
-0.0666285
-0.0824796
-0.0986783
-0.117806
-0.140364
-0.139542
-0.0977632
-0.145783
-0.140054
-0.123919
-0.0890923
-0.0661496
-0.0536671
-0.0425606
-0.0320939
-0.0238484
-0.0143349
-0.00537119
0.00452222
0.0153195
0.0279969
0.0437123
0.063324
0.0853248
0.105325
0.131869
0.150641
0.166932
0.19267
0.211273
0.217664
0.21508
0.201262
0.177627
0.145516
0.108733
0.0690485
0.0286195
-0.00990066
-0.0472206
-0.0828926
-0.11471
-0.141477
-0.166898
-0.192919
-0.218572
-0.224147
-0.204825
-0.193456
-0.169569
-0.143156
-0.10911
-0.0841313
-0.0669359
-0.0526642
-0.0395074
-0.0278354
-0.0156479
-0.00336285
0.0104458
0.0256036
0.0436262
0.0659379
0.0931961
0.122185
0.148736
0.184269
0.211706
0.256096
0.286878
0.305803
0.312767
0.30828
0.290576
0.258122
0.214505
0.16398
0.108753
0.0518373
-0.00348751
-0.0562558
-0.105436
-0.150199
-0.189126
-0.222582
-0.253457
-0.282005
-0.301077
-0.308017
-0.228059
-0.198475
-0.166709
-0.129488
-0.10107
-0.0795684
-0.0617661
-0.0454611
-0.0303211
-0.0150311
0.0011475
0.019099
0.0389162
0.0625386
0.0919301
0.126942
0.161971
0.196121
0.246863
0.276461
0.329756
0.372479
0.407644
0.417811
0.411158
0.388704
0.346324
0.290881
0.22544
0.152994
0.0774688
0.00316614
-0.066842
-0.130875
-0.188254
-0.238559
-0.281458
-0.317677
-0.349807
-0.379646
-0.398327
-0.255242
-0.222962
-0.185934
-0.146222
-0.114659
-0.0895549
-0.0678544
-0.0486922
-0.0303916
-0.0117219
0.00829817
0.0303783
0.0550058
0.0845921
0.121342
0.163363
0.203456
0.246779
0.309409
0.348097
0.41089
0.476319
0.522869
0.536078
0.526256
0.4971
0.443345
0.374216
0.291992
0.200182
0.103695
0.00808674
-0.0801519
-0.15962
-0.229666
-0.29049
-0.341975
-0.384961
-0.420623
-0.456025
-0.475273
-0.278414
-0.244234
-0.202565
-0.160672
-0.125841
-0.0972658
-0.0717367
-0.0496326
-0.0281171
-0.00586157
0.0180731
0.0445233
0.0742815
0.110379
0.154489
0.202283
0.247504
0.302652
0.378247
0.42641
0.512389
0.599718
0.652415
0.668993
0.654622
0.616074
0.551262
0.464627
0.361609
0.24638
0.125874
0.0081081
-0.0996628
-0.195925
-0.280131
-0.352117
-0.411901
-0.461
-0.499687
-0.537159
-0.553342
-0.298494
-0.263294
-0.216809
-0.172723
-0.134758
-0.10279
-0.0739692
-0.0482736
-0.0234838
0.00248671
0.0305977
0.0616948
0.0967856
0.139439
0.190329
0.242805
0.294917
0.365732
0.455354
0.514182
0.625768
0.735109
0.79571
0.817009
0.796875
0.747126
0.668075
0.558484
0.426825
0.281829
0.136092
-0.0031698
-0.132723
-0.248163
-0.34776
-0.431161
-0.498827
-0.553015
-0.594363
-0.633679
-0.648707
-0.31777
-0.280126
-0.229223
-0.183153
-0.142329
-0.106964
-0.0750178
-0.0449869
-0.0165335
0.013397
0.0459308
0.0817985
0.12229
0.171482
0.228483
0.285511
0.347538
0.437232
0.539997
0.611443
0.75324
0.884504
0.952529
0.980546
0.953702
0.890401
0.790933
0.648883
0.481768
0.305349
0.13202
-0.0355047
-0.190098
-0.326797
-0.443022
-0.538206
-0.613181
-0.670933
-0.713837
-0.753368
-0.766345
-0.337664
-0.295852
-0.240729
-0.192555
-0.148758
-0.109763
-0.0742731
-0.0402026
-0.0067027
0.0276576
0.0648919
0.105922
0.152697
0.209254
0.272273
0.334979
0.410632
0.520063
0.632954
0.71933
0.898041
1.04849
1.12296
1.16036
1.12513
1.04344
0.912575
0.731325
0.525207
0.313399
0.103292
-0.0978401
-0.281793
-0.44302
-0.577858
-0.685563
-0.767418
-0.827283
-0.870168
-0.90772
-0.916323
-0.358921
-0.311789
-0.252398
-0.201337
-0.15391
-0.110643
-0.0705777
-0.0320156
0.00692752
0.0470227
0.0899863
0.137589
0.192514
0.257341
0.326444
0.398003
0.492539
0.62081
0.74148
0.845746
1.06387
1.22908
1.31173
1.36016
1.3127
1.20362
1.02589
0.800838
0.549066
0.295529
0.0394828
-0.203472
-0.423002
-0.612536
-0.767878
-0.888477
-0.976286
-1.03648
-1.07693
-1.11045
-1.11426
-0.381936
-0.328073
-0.264715
-0.209514
-0.158247
-0.110629
-0.0653351
-0.0210035
0.0238758
0.0707259
0.12098
0.175428
0.237416
0.307843
0.382543
0.465764
0.581904
0.733357
0.866421
0.997656
1.25229
1.4271
1.52392
1.58152
1.51495
1.36407
1.13231
0.851417
0.54759
0.235395
-0.0786565
-0.370823
-0.633507
-0.855212
-1.03273
-1.16572
-1.25714
-1.31444
-1.3479
-1.37312
-1.36539
-0.404137
-0.342024
-0.275704
-0.215714
-0.16078
-0.109045
-0.0593907
-0.0101466
0.0399715
0.0921216
0.146588
0.204798
0.269241
0.341861
0.422228
0.520205
0.655839
0.819527
0.967146
1.13668
1.43561
1.63679
1.75458
1.80872
1.71343
1.50789
1.22367
0.879606
0.498727
0.119856
-0.263134
-0.608175
-0.92184
-1.18085
-1.38384
-1.52966
-1.62291
-1.67494
-1.69635
-1.70836
-1.67585
-0.42469
-0.351265
-0.282364
-0.217022
-0.157103
-0.0984468
-0.0446996
0.0082018
0.060709
0.115574
0.173353
0.238325
0.312055
0.396874
0.495697
0.618706
0.774147
0.934759
1.06184
1.25349
1.61603
1.85116
1.99409
2.01477
1.87037
1.60252
1.27138
0.872391
0.400908
-0.0502509
-0.511773
-0.91256
-1.28739
-1.58542
-1.81816
-1.97388
-2.07299
-2.11891
-2.12409
-2.11263
-2.05397
-0.454753
-0.366227
-0.294031
-0.21852
-0.157037
-0.0884472
-0.0281602
0.0370544
0.0967261
0.159875
0.228461
0.309438
0.403584
0.509397
0.632783
0.781422
0.949108
1.11273
1.25697
1.48907
1.91175
2.08941
2.25904
2.22279
2.00932
1.6634
1.24943
0.735394
0.204082
-0.305254
-0.897486
-1.32551
-1.81979
-2.1069
-2.39435
-2.51355
-2.62686
-2.6413
-2.62207
-2.56614
-2.48192
-0.522051
-0.412607
-0.348208
-0.250088
-0.191013
-0.106203
-0.0461623
0.0316582
0.101845
0.183792
0.269044
0.358858
0.45527
0.556421
0.666572
0.807411
0.957065
1.12557
1.393
1.74709
2.3046
2.38717
2.59543
2.49322
2.19675
1.79284
1.28688
0.60916
-0.0489724
-0.67413
-1.56071
-1.92189
-2.76151
-2.83643
-3.29406
-3.26486
-3.33795
-3.28564
-3.22204
-3.10143
-2.96196
-0.613729
-0.49567
-0.439743
-0.317882
-0.256082
-0.158318
-0.0927838
-0.000715789
0.0802381
0.166113
0.254055
0.33342
0.417129
0.514303
0.607987
0.749928
0.89407
1.03728
1.3773
1.83734
2.54576
2.69355
2.8893
2.74883
2.41807
1.95671
1.41536
0.515655
-0.304549
-1.30994
-2.47122
-2.80332
-3.94807
-3.8312
-4.4147
-4.23047
-4.20056
-4.03939
-3.91826
-3.70189
-3.51085
-3.32192
-2.8625
-2.45209
-2.08266
-1.74966
-1.45644
-1.21218
-1.01814
-0.871437
-0.748054
-0.644724
-0.565574
-0.494934
-0.411249
-0.316366
-0.245077
-0.189176
-3.12325
-2.76042
-2.40748
-2.07458
-1.76836
-1.50155
-1.27281
-1.09718
-0.95795
-0.841039
-0.747385
-0.673766
-0.603807
-0.521372
-0.426797
-0.355184
-0.254307
-2.94617
-2.65808
-2.36716
-2.09776
-1.84731
-1.60901
-1.39381
-1.22221
-1.07967
-0.961407
-0.861866
-0.77928
-0.70751
-0.629744
-0.537849
-0.462219
-0.346298
-2.76781
-2.55017
-2.3224
-2.09908
-1.90033
-1.69483
-1.4984
-1.32749
-1.18905
-1.07136
-0.969877
-0.887337
-0.817425
-0.742355
-0.652558
-0.573246
-0.451446
-2.61462
-2.44438
-2.26355
-2.07801
-1.90816
-1.7405
-1.57212
-1.41298
-1.28601
-1.17537
-1.0794
-0.998759
-0.928343
-0.855512
-0.769991
-0.690509
-0.567298
-2.46283
-2.33528
-2.19977
-2.04489
-1.90394
-1.77417
-1.63564
-1.49648
-1.37687
-1.27393
-1.18436
-1.1069
-1.0386
-0.969228
-0.889028
-0.812541
-0.691351
-2.32988
-2.23051
-2.12434
-2.00132
-1.88909
-1.78776
-1.68209
-1.56711
-1.45507
-1.36195
-1.28093
-1.21015
-1.14609
-1.08067
-1.00738
-0.937141
-0.821997
-2.20324
-2.12755
-2.04941
-1.95345
-1.86384
-1.7824
-1.70485
-1.61786
-1.52405
-1.43988
-1.36783
-1.3051
-1.24693
-1.18766
-1.12344
-1.06262
-0.95818
-2.08835
-2.02845
-1.9652
-1.89534
-1.82581
-1.76237
-1.70238
-1.64411
-1.57726
-1.50475
-1.44239
-1.38845
-1.33779
-1.28722
-1.23369
-1.18286
-1.09579
-1.98327
-1.93389
-1.8882
-1.83622
-1.78242
-1.73312
-1.68709
-1.64321
-1.60106
-1.55316
-1.50088
-1.45619
-1.41431
-1.37398
-1.33178
-1.29161
-1.22791
-1.88309
-1.84215
-1.80426
-1.76668
-1.7294
-1.69242
-1.65777
-1.6263
-1.59643
-1.56807
-1.5379
-1.50332
-1.47083
-1.44119
-1.41083
-1.38284
-1.3413
-1.78433
-1.74757
-1.72218
-1.69786
-1.67345
-1.6483
-1.62261
-1.59867
-1.57737
-1.55856
-1.54051
-1.52315
-1.50405
-1.4834
-1.46438
-1.44746
-1.42669
-1.69379
-1.66546
-1.64377
-1.62612
-1.60971
-1.59355
-1.57788
-1.5633
-1.54961
-1.53716
-1.52598
-1.51629
-1.50852
-1.50082
-1.49185
-1.48373
-1.48063
-1.59965
-1.57187
-1.55777
-1.54765
-1.5385
-1.52958
-1.5214
-1.51442
-1.50857
-1.50384
-1.50027
-1.49779
-1.49624
-1.49524
-1.49504
-1.49486
-1.50017
-1.50533
-1.48417
-1.47136
-1.46405
-1.45852
-1.45409
-1.4511
-1.44953
-1.44896
-1.44933
-1.45134
-1.45495
-1.45969
-1.46596
-1.47387
-1.48039
-1.49983
-1.41464
-1.39211
-1.3817
-1.37517
-1.37027
-1.36711
-1.36585
-1.36699
-1.36968
-1.37372
-1.37932
-1.38699
-1.39582
-1.40774
-1.42024
-1.43346
-1.4624
-1.31139
-1.2955
-1.28492
-1.27796
-1.27261
-1.26881
-1.26681
-1.2677
-1.2711
-1.27623
-1.28301
-1.29203
-1.30193
-1.31665
-1.3291
-1.34913
-1.38194
-1.22158
-1.2022
-1.18902
-1.17815
-1.16954
-1.1631
-1.15866
-1.15612
-1.15576
-1.15854
-1.16382
-1.17088
-1.17886
-1.19256
-1.20053
-1.22608
-1.24267
-1.10369
-1.09012
-1.07668
-1.06415
-1.05312
-1.0437
-1.03597
-1.02996
-1.02568
-1.02311
-1.02222
-1.02348
-1.02775
-1.03562
-1.03551
-1.06079
-1.0567
-1.01386
-0.985117
-0.961574
-0.940462
-0.921711
-0.905031
-0.890272
-0.877441
-0.866599
-0.85791
-0.850258
-0.843878
-0.839424
-0.836205
-0.831069
-0.840198
-0.826686
-0.895276
-0.867288
-0.838923
-0.811284
-0.784566
-0.759104
-0.734834
-0.711548
-0.689158
-0.66785
-0.647061
-0.626241
-0.607309
-0.588076
-0.565551
-0.559668
-0.525193
-0.804305
-0.757984
-0.717626
-0.680056
-0.643045
-0.606838
-0.571099
-0.535597
-0.50089
-0.466963
-0.431911
-0.397426
-0.366706
-0.330174
-0.292445
-0.278881
-0.214556
-0.685755
-0.643586
-0.596385
-0.548485
-0.500656
-0.453053
-0.40509
-0.357177
-0.31025
-0.262699
-0.213508
-0.168144
-0.124124
-0.0679979
-0.0217131
0.00384333
0.100411
-0.59997
-0.534983
-0.475789
-0.416927
-0.357619
-0.297508
-0.236182
-0.17463
-0.112792
-0.0485526
0.016109
0.076445
0.141403
0.21692
0.272482
0.319468
0.436764
-0.493247
-0.427244
-0.357175
-0.284796
-0.210695
-0.135181
-0.0585177
0.0178293
0.0945812
0.174644
0.254621
0.330184
0.413011
0.505467
0.573536
0.636166
0.769152
-0.41101
-0.322901
-0.238327
-0.151563
-0.0638418
0.0253052
0.11556
0.205879
0.298009
0.394088
0.488447
0.578366
0.67821
0.784043
0.858703
0.933577
1.08031
-0.320284
-0.220585
-0.122633
-0.0216796
0.0803045
0.183353
0.287739
0.393366
0.501661
0.612753
0.719982
0.823939
0.937497
1.04965
1.12904
1.21902
1.37444
-0.237168
-0.120709
-0.00833652
0.107271
0.223757
0.341007
0.460619
0.583228
0.707138
0.831012
0.947553
1.06134
1.18225
1.29613
1.38072
1.48391
1.63862
-0.155748
-0.0232028
0.103801
0.235297
0.367204
0.500303
0.636061
0.77463
0.908718
1.04113
1.16483
1.28358
1.40914
1.52514
1.61415
1.72404
1.87008
-0.0673535
0.0750714
0.218924
0.365858
0.514277
0.664091
0.81486
0.963391
1.10554
1.23585
1.36259
1.48859
1.61838
1.73632
1.82819
1.93502
2.07167
0.0125362
0.177581
0.335712
0.501345
0.66668
0.829524
0.990783
1.14607
1.28785
1.41944
1.54791
1.67914
1.81423
1.93008
2.01891
2.1204
2.23693
0.105623
0.282149
0.459234
0.639434
0.817899
0.989648
1.15747
1.31467
1.45784
1.59393
1.72582
1.85776
1.99379
2.10714
2.18268
2.27197
2.37441
0.192864
0.391275
0.584277
0.779156
0.965959
1.14623
1.31853
1.47786
1.62338
1.76186
1.89535
2.0252
2.15242
2.25853
2.32419
2.39297
2.48431
0.296529
0.503466
0.714997
0.918554
1.11136
1.30311
1.4809
1.63853
1.78267
1.92048
2.05189
2.17734
2.2926
2.38294
2.43929
2.49565
2.57394
0.398276
0.618976
0.848923
1.05687
1.2622
1.46042
1.63368
1.78888
1.93302
2.06886
2.1944
2.30985
2.41162
2.48725
2.53523
2.58196
2.64237
0.513901
0.742672
0.975394
1.20605
1.4145
1.61189
1.78031
1.93331
2.07492
2.20505
2.32199
2.42578
2.5128
2.57422
2.61263
2.64875
2.6947
0.638439
0.876137
1.10946
1.34955
1.55824
1.75727
1.92164
2.0703
2.2085
2.32967
2.43544
2.52619
2.59699
2.64414
2.67386
2.7016
2.73741
0.760908
1.01389
1.26211
1.50371
1.71072
1.90977
2.06339
2.20453
2.33212
2.4415
2.53373
2.60989
2.66467
2.69976
2.72341
2.74426
2.77219
0.916713
1.15687
1.41361
1.65251
1.85014
2.02016
2.18733
2.3205
2.43905
2.53795
2.61829
2.68061
2.72145
2.74736
2.76521
2.7806
2.79991
1.05535
1.3216
1.57794
1.81493
2.01785
2.17025
2.32962
2.45364
2.55719
2.63819
2.69943
2.74204
2.76783
2.78427
2.79638
2.80755
2.82268
2.61693
2.69098
2.76713
2.82522
2.8974
2.95642
3.02442
3.08331
3.15111
3.2153
3.28801
3.36044
3.44047
3.52265
3.61095
3.70383
3.79859
3.90031
3.99291
4.09902
4.18913
4.30104
4.36983
4.46474
4.4736
4.50403
4.46024
4.40239
4.28244
4.12066
3.93009
3.63535
3.39694
3.00872
2.77612
2.37338
2.17589
1.83255
1.66535
1.40308
1.26051
2.60751
2.68665
2.75409
2.81613
2.87771
2.93873
2.99827
3.0593
3.12137
3.18618
3.25287
3.32321
3.39692
3.47462
3.5562
3.64173
3.73124
3.82247
3.91166
4.0045
4.09151
4.18381
4.25389
4.32357
4.3459
4.3553
4.32427
4.26137
4.15607
4.01245
3.82621
3.59414
3.34813
3.07227
2.79144
2.521
2.26532
2.03328
1.82453
1.6459
1.48205
2.6079
2.68247
2.74691
2.80603
2.86375
2.92122
2.97846
3.03685
3.09619
3.1575
3.221
3.28755
3.35726
3.4305
3.50725
3.5874
3.67103
3.75645
3.84031
3.92339
4.00406
4.08291
4.14759
4.20186
4.22501
4.22517
4.19521
4.13393
4.0365
3.90655
3.73818
3.54021
3.32163
3.09129
2.85265
2.62239
2.40245
2.20102
2.01985
1.8654
1.72659
2.60918
2.67897
2.73992
2.79605
2.85116
2.90618
2.96145
3.01745
3.07472
3.13384
3.19516
3.25903
3.32565
3.39517
3.46754
3.54259
3.62017
3.69977
3.77764
3.85293
3.92579
3.9942
4.05132
4.09488
4.11485
4.10955
4.07952
4.02009
3.93059
3.81165
3.66141
3.48742
3.29608
3.09528
2.89216
2.69498
2.50977
2.33867
2.18562
2.0568
1.94178
2.61046
2.67656
2.73403
2.78677
2.83963
2.89251
2.94571
2.9999
3.05556
3.11303
3.17256
3.23433
3.29844
3.36489
3.43356
3.50421
3.57653
3.65013
3.72278
3.79147
3.85663
3.91613
3.96536
4.00023
4.01507
4.00629
3.97512
3.91719
3.83459
3.7263
3.59242
3.43931
3.27257
3.09894
2.926
2.75882
2.60262
2.45931
2.33291
2.22553
2.12626
2.61259
2.67445
2.72718
2.77773
2.82849
2.8793
2.93091
2.98382
3.03832
3.09464
3.15292
3.21318
3.27539
3.3394
3.40498
3.47179
3.53943
3.60735
3.67469
3.73771
3.7957
3.84724
3.88879
3.91605
3.92601
3.91411
3.88143
3.82472
3.74905
3.65052
3.53103
3.39589
3.25054
3.10092
2.95348
2.81275
2.68074
2.56143
2.45758
2.36585
2.27112
2.61316
2.67071
2.71985
2.76849
2.81722
2.86636
2.91677
2.96871
3.02239
3.07796
3.13541
3.19461
3.25539
3.31747
3.3805
3.44406
3.50766
3.57071
3.63245
3.69063
3.74219
3.78646
3.82069
3.84161
3.84693
3.83171
3.79729
3.74265
3.67289
3.58361
3.47722
3.35748
3.23071
3.10218
2.97708
2.85829
2.74718
2.64752
2.55974
2.47956
2.40158
2.61261
2.66575
2.71187
2.75872
2.80565
2.85343
2.90283
2.95401
3.00715
3.06229
3.11926
3.17782
3.23768
3.2984
3.35949
3.42041
3.48059
3.53937
3.59592
3.64949
3.69529
3.73286
3.76046
3.77643
3.77656
3.75794
3.7221
3.67072
3.60597
3.52503
3.43004
3.32414
3.21351
3.10296
2.99667
2.89544
2.80102
2.71615
2.64168
2.57632
2.51503
2.61231
2.66088
2.70364
2.74838
2.79366
2.8403
2.88898
2.93977
2.99273
3.04781
3.10472
3.16309
3.22245
3.28223
3.34179
3.40051
3.45774
3.5128
3.56478
3.61343
3.65424
3.68577
3.7079
3.71927
3.71365
3.69209
3.65565
3.60837
3.54796
3.47425
3.38935
3.29652
3.19987
3.10391
3.01136
2.92314
2.84166
2.76869
2.70586
2.65498
2.61012
2.61251
2.65644
2.69601
2.73791
2.78143
2.82701
2.87522
2.92594
2.97907
3.03442
3.09156
3.14997
3.20905
3.26812
3.32646
3.38339
3.43822
3.49012
3.5382
3.58206
3.61846
3.6449
3.66259
3.66825
3.65775
3.63392
3.59865
3.55422
3.49779
3.43045
3.35437
3.27251
3.18818
3.1042
3.02228
2.94482
2.87415
2.81132
2.75801
2.7167
2.6828
2.61365
2.65282
2.68947
2.72823
2.76941
2.81346
2.86078
2.91108
2.96428
3.01998
3.07756
3.13637
3.19575
3.2548
3.31264
3.36845
3.42144
3.47074
3.51568
3.5552
3.58755
3.61003
3.62344
3.62268
3.60875
3.58373
3.55059
3.50753
3.45443
3.39259
3.32406
3.25132
3.17677
3.10224
3.02932
2.96038
2.89798
2.84311
2.79743
2.76258
2.73494
2.61573
2.64982
2.68339
2.71972
2.75841
2.80044
2.84628
2.89577
2.94888
3.00507
3.06353
3.12323
3.18345
3.24303
3.3009
3.3561
3.40772
3.45492
3.49709
3.53286
3.56122
3.58066
3.58896
3.58348
3.56744
3.54298
3.51011
3.46808
3.41767
3.36028
3.29778
3.23217
3.16513
3.09794
3.03233
2.97051
2.91413
2.86529
2.82526
2.79449
2.76932
2.61836
2.64711
2.67761
2.71136
2.74864
2.78948
2.83448
2.88366
2.93663
2.99305
3.05199
3.11239
3.17286
3.23263
3.2904
3.34517
3.39612
3.44211
3.48191
3.51455
3.53943
3.55604
3.55925
3.5514
3.53493
3.51043
3.47746
3.43645
3.38833
3.33443
3.27634
3.21565
3.15369
3.09167
3.03182
2.9757
2.92466
2.88035
2.84404
2.81544
2.79056
2.62134
2.64478
2.67213
2.70303
2.73879
2.7788
2.82315
2.87184
2.9245
2.98098
3.04023
3.10125
3.16251
3.22262
3.28034
3.33474
3.3853
3.43052
3.46929
3.49981
3.52192
3.53551
3.53552
3.52684
3.50997
3.48485
3.45195
3.41195
3.36584
3.31476
3.25996
3.20267
3.14428
3.08653
3.03113
2.97947
2.93268
2.89146
2.85698
2.82865
2.80369
2.6257
2.64369
2.66705
2.69451
2.72781
2.76663
2.81026
2.85855
2.91123
2.9681
3.028
3.08991
3.15245
3.21394
3.27291
3.32794
3.37745
3.42108
3.45937
3.48866
3.50879
3.51951
3.51854
3.50888
3.49086
3.46494
3.43174
3.39211
3.34705
3.29768
3.24512
3.19054
3.13521
3.08109
3.02928
2.98113
2.93763
2.89917
2.86574
2.83681
2.81267
2.63452
2.64468
2.66237
2.68627
2.71673
2.75343
2.79623
2.84481
2.89855
2.956
3.01682
3.07987
3.14371
3.2065
3.26664
3.32271
3.37316
3.41713
3.45333
3.48174
3.50072
3.50966
3.50799
3.49708
3.47767
3.45049
3.41631
3.37603
3.33067
3.28141
3.22954
3.17643
3.12318
3.07092
3.02185
2.97683
2.93634
2.90048
2.86921
2.84219
2.82123
2.64792
2.64593
2.65845
2.68032
2.70952
2.74526
2.78754
2.83594
2.88977
2.9477
3.00906
3.07279
3.13734
3.20108
3.26254
3.31959
3.37074
3.41502
3.45142
3.47933
3.49779
3.50599
3.50381
3.49213
3.47176
3.44346
3.40817
3.3669
3.32078
3.27098
3.2188
3.16551
3.11287
3.06241
3.01558
2.9727
2.93391
2.89965
2.87061
2.8482
2.83507
-0.196526
-0.219115
-0.24342
-0.283501
-0.314266
-0.345274
-0.3721
-0.395763
-0.417329
-0.436371
-0.454212
-0.478699
-0.510036
-0.530719
-0.550381
-0.61049
-0.715142
-0.238265
-0.295325
-0.317698
-0.356595
-0.385756
-0.413685
-0.43752
-0.460078
-0.48289
-0.50475
-0.526557
-0.557873
-0.596553
-0.619346
-0.657054
-0.822008
-1.0496
-0.314256
-0.384477
-0.407277
-0.442621
-0.470368
-0.4974
-0.521949
-0.546694
-0.572952
-0.599557
-0.627847
-0.66579
-0.712447
-0.75231
-0.814527
-0.973482
-1.13344
-0.409342
-0.478733
-0.503689
-0.536932
-0.563939
-0.59047
-0.615695
-0.642442
-0.671617
-0.701659
-0.735061
-0.777983
-0.825527
-0.869143
-0.920686
-0.972706
-1.0836
-0.518859
-0.584517
-0.609899
-0.640988
-0.666806
-0.692532
-0.717867
-0.745578
-0.776102
-0.807328
-0.844328
-0.897156
-0.950489
-0.986371
-1.06904
-1.26516
-1.45409
-0.642501
-0.703472
-0.727509
-0.756993
-0.782779
-0.809447
-0.836882
-0.867878
-0.903455
-0.941681
-0.985574
-1.04445
-1.1098
-1.1632
-1.264
-1.46773
-1.6627
-0.776381
-0.829833
-0.852998
-0.881329
-0.907038
-0.934385
-0.963326
-0.996415
-1.03398
-1.07371
-1.1185
-1.17597
-1.24212
-1.30442
-1.36182
-1.44643
-1.61412
-0.920183
-0.966087
-0.987055
-1.01326
-1.0376
-1.06386
-1.09202
-1.12484
-1.16181
-1.19944
-1.24645
-1.31476
-1.38004
-1.42912
-1.53747
-1.71427
-1.86795
-1.07254
-1.1122
-1.13196
-1.15771
-1.18317
-1.21181
-1.2435
-1.28028
-1.32267
-1.36739
-1.41977
-1.49464
-1.56827
-1.6142
-1.72076
-1.92161
-2.09533
-1.22766
-1.26006
-1.27816
-1.30169
-1.32598
-1.35384
-1.38526
-1.42072
-1.46083
-1.50676
-1.55966
-1.62004
-1.68795
-1.75769
-1.82656
-1.92458
-2.07146
-1.38455
-1.40752
-1.42344
-1.44378
-1.46557
-1.49049
-1.51848
-1.55009
-1.58513
-1.62463
-1.67066
-1.72083
-1.77007
-1.82906
-1.90968
-2.0063
-2.11058
-1.53437
-1.5493
-1.56416
-1.58336
-1.60506
-1.63021
-1.65885
-1.69229
-1.73152
-1.77631
-1.82652
-1.88218
-1.94168
-2.00755
-2.09517
-2.22048
-2.32546
-1.66367
-1.67263
-1.68501
-1.7002
-1.71782
-1.73962
-1.76545
-1.79524
-1.82916
-1.86678
-1.90858
-1.95557
-2.0065
-2.05611
-2.10572
-2.17713
-2.26346
-1.76668
-1.77033
-1.7779
-1.79085
-1.80594
-1.82458
-1.84599
-1.87038
-1.89696
-1.92537
-1.95547
-1.98701
-2.0187
-2.04756
-2.0716
-2.09719
-2.14561
-1.82979
-1.83268
-1.83738
-1.84927
-1.86226
-1.87867
-1.89707
-1.91782
-1.94084
-1.96639
-1.99509
-2.02716
-2.06069
-2.09429
-2.13729
-2.20412
-2.27069
-1.84106
-1.84396
-1.84423
-1.85081
-1.85673
-1.86612
-1.87759
-1.89146
-1.90751
-1.9256
-1.94582
-1.96838
-1.99214
-2.01491
-2.04178
-2.08394
-2.13089
-1.79771
-1.80177
-1.79881
-1.80327
-1.80637
-1.81212
-1.81951
-1.82843
-1.83869
-1.85005
-1.86226
-1.87515
-1.88811
-1.89914
-1.90574
-1.90923
-1.92213
-1.69559
-1.70159
-1.69578
-1.70187
-1.70612
-1.71219
-1.71979
-1.72882
-1.73939
-1.75158
-1.76537
-1.78103
-1.79873
-1.81817
-1.8402
-1.86759
-1.90168
-1.54801
-1.55596
-1.54913
-1.55472
-1.55999
-1.56629
-1.57386
-1.58253
-1.59272
-1.60448
-1.61786
-1.63295
-1.64969
-1.66793
-1.68961
-1.72035
-1.75313
-1.34729
-1.3565
-1.35197
-1.35814
-1.36493
-1.37293
-1.38279
-1.3941
-1.40695
-1.42144
-1.43751
-1.45497
-1.47362
-1.49352
-1.51368
-1.53081
-1.54502
-1.08552
-1.09916
-1.10077
-1.1124
-1.12453
-1.13718
-1.15202
-1.16864
-1.18689
-1.20705
-1.22926
-1.2536
-1.28019
-1.30937
-1.34066
-1.37275
-1.41688
-0.819567
-0.841113
-0.840435
-0.853898
-0.870286
-0.886004
-0.904215
-0.924942
-0.947507
-0.972183
-0.999205
-1.02858
-1.06023
-1.09461
-1.13157
-1.17185
-1.22239
-0.548613
-0.578232
-0.576998
-0.58591
-0.606454
-0.62294
-0.64151
-0.664846
-0.690339
-0.718188
-0.749423
-0.783797
-0.821796
-0.861956
-0.906721
-0.947634
-0.997983
-0.246165
-0.280798
-0.285327
-0.293172
-0.31688
-0.337137
-0.356838
-0.382159
-0.410196
-0.440113
-0.47394
-0.512105
-0.555366
-0.604227
-0.662953
-0.728948
-0.809778
0.0693226
0.0303264
0.0201896
0.0129193
-0.0112852
-0.0344817
-0.0555371
-0.0821651
-0.112488
-0.144318
-0.179481
-0.218592
-0.261639
-0.30766
-0.361319
-0.41434
-0.498929
0.385692
0.344767
0.329994
0.322812
0.298969
0.273711
0.25158
0.224519
0.192925
0.159496
0.122627
0.0808362
0.033876
-0.017767
-0.0775468
-0.132202
-0.211458
0.690489
0.655442
0.638415
0.628307
0.604521
0.57789
0.553293
0.525427
0.494603
0.462092
0.426406
0.386107
0.340838
0.288883
0.227995
0.151517
0.0623934
0.97844
0.944343
0.928353
0.916201
0.892279
0.866168
0.840588
0.812247
0.778795
0.740092
0.699363
0.65804
0.615581
0.571459
0.525715
0.465825
0.399965
1.25835
1.21818
1.19409
1.17555
1.14773
1.12058
1.09612
1.06678
1.03397
0.999273
0.960701
0.917036
0.871236
0.821689
0.765739
0.711962
0.659248
1.52409
1.47968
1.45215
1.43291
1.40284
1.37269
1.34538
1.31429
1.27931
1.24315
1.20437
1.16111
1.11345
1.05944
0.995403
0.91369
0.806109
1.76563
1.71399
1.67972
1.66315
1.63221
1.59884
1.57056
1.53998
1.50488
1.46824
1.42958
1.38669
1.33922
1.28682
1.23011
1.15625
1.06306
1.96836
1.91472
1.88467
1.86501
1.83324
1.80123
1.77352
1.74329
1.70956
1.67429
1.63605
1.59243
1.54384
1.49078
1.43834
1.38357
1.37117
2.13434
2.07975
2.05449
2.03554
2.00365
1.97387
1.94874
1.92089
1.89015
1.85825
1.8228
1.78152
1.73519
1.6818
1.61809
1.52696
1.4094
2.26957
2.21697
2.19158
2.17381
2.14519
2.11814
2.09548
2.07124
2.0449
2.01731
1.98609
1.95011
1.91055
1.86577
1.81408
1.74369
1.63364
2.3784
2.33175
2.30736
2.28852
2.26221
2.23832
2.21823
2.19732
2.17537
2.15212
2.12548
2.09554
2.06301
2.0272
1.98864
1.95651
1.9348
2.46535
2.42314
2.40175
2.38357
2.35913
2.33787
2.3204
2.30274
2.28471
2.26554
2.2436
2.21941
2.1929
2.16284
2.12472
2.07618
1.98155
2.53234
2.49637
2.47607
2.45908
2.43766
2.41888
2.40387
2.3897
2.37564
2.36058
2.34342
2.32474
2.30395
2.27955
2.24926
2.21089
2.15292
2.57991
2.55197
2.53514
2.51989
2.50156
2.48505
2.47198
2.46085
2.45067
2.43989
2.4277
2.41467
2.40021
2.38306
2.36318
2.34251
2.34091
2.61421
2.59473
2.58186
2.57028
2.5561
2.54221
2.53067
2.52145
2.51404
2.50685
2.49903
2.49107
2.48229
2.47191
2.45779
2.43977
2.3904
2.64022
2.62429
2.61376
2.6064
2.59811
2.5893
2.58133
2.57486
2.57016
2.56631
2.56235
2.55835
2.55371
2.54852
2.53986
2.52738
2.49147
-0.58115
-0.361738
-0.16502
0.0271071
0.210042
0.394637
0.674769
1.0066
1.50309
2.45487
2.90436
2.59831
1.46489
-0.492329
-2.70639
-4.20295
-4.8253
-4.79012
-4.52104
-4.06333
-0.639023
-0.39873
-0.173185
0.0402889
0.218531
0.408451
0.755178
1.10616
1.67478
2.56044
3.03336
2.61416
1.22029
-1.1376
-3.72582
-5.24664
-5.69421
-5.47767
-5.06039
-4.48473
-0.706394
-0.44667
-0.192281
0.0322889
0.221063
0.458215
0.859021
1.27654
1.83527
2.67458
3.08184
2.50742
0.773173
-2.05029
-5.00231
-6.54329
-6.68733
-6.2479
-5.62941
-4.92777
-0.796066
-0.51812
-0.235061
0.00216243
0.222061
0.534242
0.953112
1.43609
1.9537
2.70165
3.0418
2.2024
0.0541147
-3.34273
-6.54641
-8.08274
-7.84269
-7.11136
-6.24596
-5.39997
-0.912623
-0.61856
-0.308012
-0.0520768
0.214949
0.59004
0.999272
1.49658
1.99522
2.63511
2.84499
1.62894
-0.973432
-4.97888
-8.51042
-9.84795
-9.26127
-8.05309
-6.90106
-5.89883
-1.06672
-0.76
-0.422567
-0.140406
0.169524
0.557322
0.983791
1.43717
1.9303
2.46089
2.44476
0.717625
-2.38462
-7.03919
-10.8782
-11.8748
-10.9848
-9.08988
-7.58821
-6.4289
-1.27866
-0.961618
-0.596638
-0.287456
0.0531087
0.446853
0.903317
1.27317
1.70403
2.10574
1.6452
-0.605629
-4.3238
-9.68948
-13.5347
-14.0899
-12.6607
-10.2883
-8.31036
-6.97991
-1.57779
-1.2572
-0.856104
-0.50432
-0.131731
0.260385
0.631065
0.923013
1.23864
1.4183
0.322696
-2.48863
-6.87855
-12.6826
-16.4801
-16.363
-14.2975
-11.6347
-9.08327
-7.5387
-1.9863
-1.68186
-1.23217
-0.848208
-0.502855
-0.186117
0.0358882
0.148589
0.330462
0.234283
-1.62088
-5.0787
-10.1073
-15.8391
-19.3552
-18.6408
-16.1227
-12.6736
-9.9401
-8.13599
-2.56347
-2.2917
-1.8374
-1.58335
-1.37313
-1.19207
-1.14788
-1.1906
-1.11428
-1.66363
-4.23812
-8.32811
-13.6585
-19.0362
-21.7319
-20.6002
-17.6632
-13.5803
-10.8901
-8.78771
-3.5116
-3.33909
-3.0847
-3.05633
-3.00289
-2.92604
-3.09557
-3.16716
-3.25314
-4.35649
-7.52595
-12.0234
-17.1738
-21.7687
-23.308
-21.8223
-18.6964
-14.86
-11.5836
-9.4665
-5.17213
-5.29919
-5.42251
-5.40396
-5.39043
-5.54706
-5.7365
-5.74527
-6.13141
-7.71653
-11.2707
-15.7719
-20.2478
-23.6156
-24.0095
-22.185
-19.1544
-15.8563
-12.3115
-10.1906
-7.4967
-7.89836
-8.32495
-8.49852
-8.63139
-8.74156
-8.72104
-8.75083
-9.39137
-11.3415
-14.9497
-19.0143
-22.3846
-24.3767
-24.0357
-21.8191
-18.8502
-16.1128
-13.3256
-10.5283
-10.014
-10.621
-11.2061
-11.4995
-11.6268
-11.5995
-11.5289
-11.6424
-12.4142
-14.7275
-17.841
-20.8845
-23.0187
-24.1032
-23.1637
-20.8529
-18.0207
-15.669
-13.6034
-11.3463
-12.1865
-12.725
-13.2487
-13.5359
-13.5889
-13.5248
-13.4726
-13.6566
-14.6221
-16.5064
-18.852
-21.0492
-22.5772
-23.0632
-21.6908
-19.4743
-16.8803
-14.6135
-13.3192
-12.0058
-13.3835
-13.6215
-13.9775
-14.1545
-14.1912
-14.142
-14.1219
-14.3792
-15.1152
-16.5133
-18.4866
-20.2924
-21.3006
-21.3682
-19.8062
-17.8349
-15.5694
-13.2612
-12.311
-11.7847
-12.8323
-13.0608
-13.4224
-13.6018
-13.6536
-13.6237
-13.6618
-13.9149
-14.5932
-15.7493
-17.3005
-18.5484
-19.1957
-19.0613
-17.708
-16.1085
-14.2248
-12.1349
-10.9207
-10.8301
-11.3728
-11.954
-12.4056
-12.6302
-12.7048
-12.6316
-12.6323
-12.8442
-13.3672
-14.179
-15.1798
-16.0498
-16.5551
-16.5611
-15.6691
-14.4997
-13.0234
-11.3759
-9.88686
-9.47271
-11.1023
-11.5966
-11.8031
-11.8323
-11.6928
-11.4029
-11.162
-11.2321
-11.558
-12.1283
-12.8665
-13.5878
-14.1089
-14.286
-13.8987
-13.1446
-12.0667
-10.8975
-9.68159
-9.10253
-10.865
-10.6762
-10.4036
-10.0704
-9.82565
-9.58895
-9.46758
-9.59583
-9.92669
-10.5098
-11.2181
-11.8783
-12.4251
-12.7278
-12.6552
-12.2266
-11.6053
-10.9857
-10.5521
-10.2882
-10.752
-8.84542
-8.93493
-9.68046
-10.0263
-10.2369
-9.86774
-9.30492
-8.91072
-8.30529
-7.68373
-7.10611
-6.56048
-6.04462
-5.55862
-5.10538
-4.68534
-4.29514
-3.9351
-3.60009
-11.6575
-9.72028
-9.46261
-9.76265
-9.97148
-9.91868
-9.25717
-8.60741
-8.06583
-7.44703
-6.8308
-6.27814
-5.76834
-5.29322
-4.85922
-4.46242
-4.09855
-3.76378
-3.4566
-3.1714
-12.726
-10.5555
-9.91483
-9.95127
-9.88297
-9.26089
-8.57947
-7.92045
-7.3111
-6.68698
-6.09782
-5.5738
-5.09484
-4.65708
-4.2628
-3.90733
-3.58546
-3.29278
-3.02905
-2.7871
-13.8573
-11.4584
-10.7404
-10.2456
-9.66595
-8.85762
-8.07647
-7.33255
-6.67824
-6.05483
-5.47643
-4.96874
-4.51726
-4.1118
-3.75254
-3.43432
-3.15077
-2.89602
-2.66734
-2.45881
-15.0205
-12.3004
-11.5943
-10.3256
-9.2815
-8.43399
-7.58062
-6.78348
-6.11546
-5.50121
-4.93797
-4.44802
-4.02347
-3.64883
-3.32088
-3.03433
-2.78249
-2.55859
-2.36029
-2.1799
-15.9844
-12.6983
-12.044
-10.1833
-9.00133
-8.0609
-7.13511
-6.3045
-5.6203
-5.01478
-4.46984
-4.00113
-3.60104
-3.25398
-2.95333
-2.69337
-2.46761
-2.26851
-2.09505
-1.9388
-16.6197
-12.7277
-12.1625
-9.95023
-8.76234
-7.69111
-6.7173
-5.87184
-5.17131
-4.58038
-4.06087
-3.6165
-3.24019
-2.91711
-2.63934
-2.40067
-2.19486
-2.01408
-1.85981
-1.72266
-17.0481
-12.5922
-12.1509
-9.76619
-8.54272
-7.3135
-6.31454
-5.47394
-4.77448
-4.20072
-3.70653
-3.2857
-2.93046
-2.62718
-2.36729
-2.14426
-1.95205
-1.78409
-1.64261
-1.51781
-17.4868
-12.4689
-12.0933
-9.55796
-8.29324
-6.93433
-5.94398
-5.11661
-4.42877
-3.87056
-3.39892
-2.99935
-2.66206
-2.37432