/*--------------------------------*- C++ -*----------------------------------*\
  =========                 |
  \\      /  F ield         | OpenFOAM: The Open Source CFD Toolbox
   \\    /   O peration     | Website:  https://openfoam.org
    \\  /    A nd           | Version:  6
     \\/     M anipulation  |
\*---------------------------------------------------------------------------*/
FoamFile
{
    version     2.0;
    format      ascii;
    class       volScalarField;
    location    "1.4";
    object      p;
}
// * * * * * * * * * * * * * * * * * * * * * * * * * * * * * * * * * * * * * //

dimensions      [1 -1 -2 0 0 0 0];

internalField   nonuniform List<scalar> 
5835
(
3.28667
1
3.52552
1.64306
1
1
1
1.00379
1
1
1
2.38726
1
1
2.45005
1
5.14477
5.06696
1
1
5.2628
1
5.44945
2.47274
1
1
2.71808
1
1.29304
1
1.04118
1
1
1.00677
1.00843
1
1
1
1.00077
1.00065
1
1.00007
1
1.00008
1
1.00001
1
1.00001
1
1
1
1
1
1
1
1
1
1
1
1
1.40483
1
1.45781
1
1
1.00003
1.00003
1
1.01091
1.00998
1.00146
1.00161
1
1
1
1
1.06858
1.09294
1.0002
1
1
1.00022
1
3.66986
3.17223
1
1
1
1.00476
1.61514
1
1
1
1.00005
1.00004
1
1
1
1.92602
1.00006
1
1.00006
1
1
1.91471
1
1
2.01517
1
1.00009
1
1
1.88964
1
1
1
1
1
1
1.82844
1.75026
1
1
1
1
1
1
1
1
1.00004
1.00004
1
1
1.00009
1
1
4.6551
1
4.8337
1
1
1
4.71052
4.66174
4.83293
4.88366
3.7255
3.81495
1
1
3.81032
1
1
1
3.17983
3.09342
1.89739
1
1.18178
2.74192
1
1
1
1
2.14129
1
1
1.73005
1
1
1.0501
1.05911
1.03253
1
1
1.01171
1
1.98021
1.34938
1.45348
1
1
1.00001
1.00001
1
1.01666
1
1.00002
1.00001
1
1
1
1
1.00002
1.00003
1
1
1
1
1
4.48985
4.5734
1
1
1
1
1
1.00001
1
1
1.00531
1
1.00348
1
1.0015
1
1
1
1
1.00001
1
1
1.00001
1.0042
1
1.00545
1.0022
4.87279
1
1
1.00103
1
1
1
1
1
3.71868
1
3.89157
1.00032
1
1.00049
1.00019
1.00272
1
1.00021
1
1.00048
1.00014
1
1.18744
1
1
1
1
1
1
1.64895
1
1
1
2.03036
2.11083
1
2.17678
1
1
1
1.94093
2.04607
1
1
1
1
1
1.0913
1
1
1
1
1
1
2.52267
1
1
1.00001
1
1
1
1
4.68986
3.13555
1
3.25876
1
1
1
1
1
4.30925
1
5.01695
4.76877
4.35757
3.03191
4.40137
1
4.35031
1
3.77854
5.2958
3.65567
4.87383
2.45642
1
1
1.00041
2.31521
1.00004
1
1
1.01731
1
2.40221
1
2.60352
1.0006
1.00035
4.37173
1.00829
1
1.98254
1
1.00736
1
1.00507
1.00004
1
1.00004
1
1
4.44347
1.78346
4.53889
1
1.00018
1
1.00015
1
1.0002
2.49343
1
1
1.04609
1.00195
1
1.2088
1
2.35962
1.0078
1.64414
1
1.00003
1.00014
2.93413
1
1
1
1
1.00012
1.10451
1
1
1
1.83351
1.00392
1
1
1.00001
1
1
1
1
1
1
1
1
1
1
1
1
1
1
1
1
1
1.00001
1
1
1
1
1.00001
1
1
1.00085
1.04554
1
1.01216
1.80685
1.00004
1.00043
1
1
1
1
1
2.12387
1
1
1
1
1.0001
1
1.02697
1
1
1
1
1.08386
1
1
1.46545
1.00015
1
1.02182
1
1
1.00011
1
1.36133
1.2136
1
1
1.19934
1.00179
1
1
1.00013
1.00323
1
1.16965
1
1.01176
1
1.00269
1
1
1.00015
1.00003
1.00556
1.00091
1
1.19979
1
1.00068
1.00003
1
1
1.23583
1
1
1.01295
1
1.27044
1
1.03194
1.00003
1.42078
1
1.00001
1
1.04201
1
1.00009
1
1.00007
1
1.00019
1.00001
1
1
1.00002
1
1
1
1.00003
1.00003
1
1
1
2.16967
1.00004
1
1
1.73869
1
1
1
1.92553
1
1
1.00003
1
1.89267
1
1
4.63002
1
1
4.76543
4.53786
4.56305
1
1
1
1
3.65172
3.64773
1
1
1
3.86232
4.44545
1
4.63153
1
1
1
3.65699
1
2.67777
1
4.52656
1
2.94825
1.91319
1.35313
1.00002
1.00002
1.22549
1
1.87905
1.00001
1.65757
1
1
1
1
1
1
1
1.04484
4.75346
1
1.39224
1
1
1.06877
1
1.01341
1
1
1.01386
1
1
1.00001
4.36598
1
1
1
1.08109
1
1
1
1.23188
1
1.00423
1.00405
1
1.00045
1.00185
1
1.00182
1.00037
1
1.00687
1.0002
1.00019
1
1
1.03764
1
1
1
3.08792
1
1
1.00001
1
1.00013
1
2.03297
2.22621
2.03466
1
2.10919
1.00098
1
1
4.42752
1
1.99294
1
1
2.23196
1
4.33871
1
3.32988
3.97855
1
1
4.54091
4.39674
3.49327
1
1
1
1
2.4112
4.93193
1
2.67465
1
1
1
1
4.87483
4.80403
1
2.37003
1
4.32187
1
1
1
4.314
2.19545
4.37946
1
1.00042
1
1.85667
1.82636
1
1
1.00162
1
1.26706
2.39804
1.02926
1
2.5728
1
1
1
1
1
1
1
1
1
1
1
1.00449
1
1.00001
1
1
1
1.52312
1.13292
1
1
1.00004
1.00004
1
1
1
1
1
1.01532
1
1
1.76561
1.83878
1.037
1
1
1.00514
1.00003
1
1.00016
1.00017
1
1
1
1
1.00171
1
1
1
1
1
1.00016
1
1.3583
1
1
1
1.0692
1.03103
1.23672
1
1.00013
1
1.16079
1.17498
1.01376
1
1
1.20974
1
1
1.21639
1
1
1
1.00302
1.00254
1
1.31898
1
1
1.00734
1.00003
1
1.00077
1.00086
1
1.40617
1.00003
1.01522
1
1
1.00002
1
1
1.02282
1
1.00003
1
1.05018
1
1.00008
1.00008
1
1
1
1
1.00003
1.00002
1
1
1.00003
1.00002
1
1
1
1
1.00948
1
1
1
1
1.01106
1.00529
1.00671
1.00465
1
1
1
1
1
1.434
1.00059
1.00044
1.00072
1.00044
1
1
1.02362
1.01436
1
1
1
1
1
1.00236
1
1
1.00507
1.00273
1
1
1
1
3.19036
3.21713
3.33052
3.04012
1
1
1
1.00001
1
1
1.00001
1
1
1
1
1
1
1
1
1
1.00001
1
1.00001
1
1
1
1.00102
1
1.00033
2.62886
1.00059
1
1.69653
1.00025
1
1
3.07465
1
1
1
1.00017
1.00011
1.40985
1
1
1.00018
1.0001
1
1
1.5782
1
1.0001
1
1
1
2.65369
1.77594
1
1
1
1
1.72399
1
3.36145
1
3.86037
1
1.01084
1
1
1
1
1
1
1
2.49796
2.79031
1
1
1.79623
1
2.6309
1
1.67952
1
1
4.4744
4.65961
1
1
1
4.24513
4.89666
4.89806
1
4.07178
1
1
1
5.16278
3.77251
1
4.63276
3.62679
1
1
1
4.97123
1
1
4.8047
1
3.92433
1
1
1
4.24086
3.66592
4.53052
1
1
1
3.67074
5.07132
4.93542
4.05921
3.98458
1
1
4.46597
1
1
3.60551
3.6682
4.21478
1
4.04586
1
2.204
1
1
1
1
1.00005
1
1
1
1
2.48892
2.87614
1
1
1.80476
1
1
4.28473
1
1
4.17792
1
1.90907
1
1
1
1.00047
1
1.00309
1.02045
1.00006
1
1.05214
1.00624
1.16027
1
1
1.00086
1
1.30281
1
1
1.00001
1
1
1.00001
1
1.00014
1.00008
1.0009
1
1.69003
1.00822
1
1
1
2.86237
4.56546
1
1
2.26924
4.39193
1
2.9717
2.19271
1
1
1
1.02004
1.00255
1.00002
1.00031
1.00002
1
1
1
1
1
1
1.13085
1
1.86099
1
1
1
1
1
2.14103
3.20364
1
1.02364
1
1
1.02251
1.02015
1
1
1.00345
1.00052
1
1.01417
1.01528
1
1.00039
1
1.00201
1.00037
1
1
1.00794
1.00204
1.00655
1
1.00125
1
1.00032
1
1.00566
1
1.00109
1.00821
1
1
1.00433
1
1.00095
1.00506
1
1.00013
1.00048
1
1
1
1
1
1.0001
1
1
1
1.00044
1.00293
1.00029
1
1
1.00008
1
1.00531
1
1.00127
1.00005
1.00024
1
1.00005
1
1.00005
1.23372
1
1
1
1.08641
1
1.00008
1
1
1
1.00027
1.00008
1
1.10659
1.00241
1.00007
1.00004
1
1
1
1.00005
1.00004
1
1
1.01338
1.00004
1
1.00002
1
1.00075
1
1
1.00045
1
1
1.00032
1.00306
1.01137
1
1.00002
1
1.01817
1
1.07068
1
1
1.00087
1
1.00002
1.00055
1
1
1.0001
1
1.00002
1
1.05012
1
1.00122
1.00174
1
1
1.00198
1
1.02349
1.02078
1.00022
1
1
1.00014
1
1
1.02445
1
1.03173
1.00002
1
1.00023
1.00022
1
1.0062
1
1.00002
1
1.08926
1
1.0589
1
1.00072
1
1.00051
1.00031
1
1
1
1
1.00065
1
1
1.15178
1.12577
1
1.00081
1.27824
1.70175
1
1
1.17428
1
1
1.56243
1
1.02452
1.10694
1
1
1
2.49544
1
1.48335
1
1.00907
1.00221
1
1
1.01123
1
2.32369
1
1.01669
1.00003
1
1
1.00009
1
1.09681
1
1.00076
1
1.31072
2.16722
1
1
1
1
1
1.00008
1
1.01166
1.08915
2.10639
1.06567
1
1
1.00005
1
1
1.00014
1
1.81329
1
1.00807
1
1.00191
1.00004
1
1.00008
1.81829
1.1379
1
1
1.04029
1.70379
1.50541
1
1.5732
1
1.4835
1
1.38956
1.56842
1.35296
1
1
1.0006
1
1.00007
1
1
1.21171
1
1.01898
1.39334
2.47795
1.37323
1
1
1.43051
3.17761
4.23517
1
1
1
1
1
1
1
1
1
1.8044
4.87498
1
1
1
2.84702
3.20195
1
1
4.02779
1.07332
1
1
2.71795
1
1
2.63951
3.92878
4.74518
1
4.14617
3.89812
1
4.67005
1
4.0468
4.48823
3.0177
4.13471
4.02638
1
3.26278
2.0356
4.07453
1.02844
2.88275
2.88478
3.88979
1
1
1
1
1
4.34985
4.50448
1
1
1
2.41245
3.42724
1
1
3.0882
1.37493
1
4.11376
1
1
1
3.76251
3.25382
1.06817
1
2.91516
1
2.55674
1
2.2639
1
1
1.70136
1.98394
1
1
2.70865
1
1.22922
1
1
1
1.00159
1.14361
1
1
1.01063
3.80618
1
1
1.01704
3.74803
1
1
1
1.03557
1
1
1.72461
1
1
1.00027
1
1.00088
1.00501
1
1.08842
1.39055
2.67887
1
1.68918
2.79672
1.00013
1
1
1.43323
3.74876
3.79954
1
1.00056
1
1
1
1.00001
2.80582
1
1
1.00001
1
1.00001
1.00001
1
1.00012
3.82149
1
1
1
1.38478
1
1.00313
2.6719
2.30578
1.71927
1
1
1.00005
3.12005
3.8564
1.00007
1
1
1
1
1.45329
1.00004
1
1
1.51863
1
1.00001
1.69972
1
1
1
1
1
1
1
1
1
1.00001
1
1
1
1
1
1
1
1
1
1
1
1
1
1
1
1
1
1
1
1
1
1
1
1
1.00001
1
1
1.00001
1
1
1
1
1
1
1
1
1
1
1
1
1
1.00001
1
1
1
4.09686
1
1.00022
1.71549
1
1
1.82125
1
1
1
1.2701
1
1
1.74105
1.66502
1
1.94883
1
1
1.03325
1
1.00164
1
1.38339
1.00333
1
1.1384
1
1
1
1
1.00642
1
1.02598
1.00001
1.01208
1
1
1.00026
1.08264
1
1
1
1.00001
1
1.00507
1.00861
1
1
1
3.47894
1
1
1
1
1.03758
1.00012
1
1
4.46908
1
1.0005
1
1.08163
1
1.00219
1
4.1504
1
1
1.00004
1
1
1.41553
1.36218
1
2.55414
1
1
1.00039
4.51106
1
1
3.97658
1.00031
2.70227
1
1.01198
1
1
1.00137
1.57961
1
1.11991
1
1
1.00091
1
1
1
1.07249
1.56678
1
1
1.79765
1
1.35895
1
1
1.00047
1
1
1.70793
1.10602
1
1.00115
1
1.00195
1.00002
1
1
1.54602
1.00003
1
1
1.00002
1.00002
1
1
1
1.00001
1
1
1.00083
1
1
1.00001
1.62932
1
1.00001
1
1
1.42919
1
1.98957
1
1.68698
1
1
1.00001
1
1
1
1.77843
1
1.00001
1
1
1
1
1
1
1
2.26499
2.59758
1
1
1
1
1
1
1
1
1
2.55343
1
4.16322
1
1
1
2.18604
1
2.4821
1.00002
1.00001
1
1
4.18586
1
1
1
2.37711
1
1
1
1
1
1
1
1
1
1.00001
1.00007
1
4.90146
1
4.34743
1
1
1.00001
1
1
1
1.00003
1.00001
1
1
1
1.00016
1.00002
1
1.00008
1
1
1.00006
1.00004
1
1.00001
1
1.00011
1.00018
1.00005
1
1
2.4367
1
4.67298
1
4.09895
1
1
1
3.03474
1
4.49882
1
4.21521
1
3.40177
4.11302
3.39523
2.66919
1
1
4.23818
1
1
4.7138
1
1
4.33458
1
4.04919
4.38537
1
1
1
4.12612
1
3.72796
1
4.78209
1
4.17754
1
1.82584
1
1
1
1
1.00003
1
1.00195
1.27671
1
1
1
1
1
3.23499
2.53188
1
1
4.0639
4.48069
1
1
4.6373
5.03793
1
1
3.87818
4.706
1
3.82834
5.52815
1
1
1
5.95332
5.55007
1
6.04883
1
5.63206
1
1
3.91141
4.40054
4.34662
1
1
4.51594
3.61664
1
3.76345
1
3.8503
1
1
3.7688
3.78643
1
1
4.09407
1
1
4.04734
4.10083
1
1
4.40353
4.34923
1
1
5.95331
5.9761
1
4.64555
4.74467
1
1
5.85315
1
5.77469
5.64188
1
1
6.08477
1
5.33943
1
5.35815
5.10079
1
1
4.99121
2.44176
1
1
2.4037
1
1
1
1
1.45212
1
1
3.28063
2.89232
1
1
1.00168
1
4.41806
1
1
4.10516
1
4.70227
4.90798
1
3.33602
1
3.46433
1
5.27743
1
1
1
5.06472
5.37108
4.17574
4.06967
1
1
1
1
4.24507
1
1
1
1
1
1
4.93179
3.50903
3.40719
5.18187
3.5572
4.37284
1
1
5.17666
1
3.41699
5.04874
3.82343
1
1
4.84849
1
3.91123
1
4.5636
4.26402
1
1.21801
1
1.00163
1
1
1
1
3.21501
2.26929
1
1
1.00563
1
1.14023
1
1
1
2.31818
3.39889
4.3634
1
1
1
4.7268
1
4.519
4.5961
1
1.00054
1
1.00372
1
1.02645
1
1.00091
1.00007
1
1.00069
1
1.00008
1
1.20168
1
1.13472
1
1
1.00001
1
1
1
1
1
1
1
1.0003
1
1.00375
1.01797
1
1.18393
1
1
4.46648
1.92414
3.21209
3.17515
1
1
1.96039
4.08414
1.91338
1
1
1.19392
1
1.87932
1
1.02427
1
1.00311
1.00039
1.00003
1
1
1
1
1
1
1.00001
1
1.01059
1
1.02809
1.00275
1
1.00044
1
1
1.00335
1
1.0297
1.00051
1
1
1.02648
1
1.00365
1.00042
1
1.00039
1
1
1.01143
1
1.00155
1.01014
1.00146
1.00029
1
1
1
1.00865
1
1
1.00768
1.00131
1.0012
1
1
1.00021
1.00016
1
1.00656
1
1.0007
1.00549
1
1.00062
1
1
1.00451
1
1.00012
1.0005
1.0041
1
1
1
1
1.00045
1.0001
1
1.0001
1
1.00372
1.0004
1
1.00313
1
1.00034
1.00008
1
1
1
1.00027
1
1.00204
1
1.00031
1
1.00007
1
1.00006
1
1.00228
1
1.00147
1.00252
1.00024
1
1.00181
1.00023
1
1
1.00006
1.00031
1
1.00006
1
1.00008
1.00006
1.17465
1
1
1.19636
1.00007
1.00008
1
1
1
1
1.00005
1
1.17382
1
1.00004
1.00004
1
1.06644
1.00252
1
1.00009
1
1.04574
1.00156
1
1.12289
1
1.00137
1.00005
1
1.07012
1
1.00003
1
1.00004
1
1
1.00035
1
1
1.00035
1.00002
1
1.00002
1
1
1.00743
1
1.00002
1.00003
1
1
1.0004
1
1.00039
1
1
1.02391
1.00585
1.00002
1
1.04406
1.00007
1
1.00002
1
1
1.02223
1.00059
1
1.00979
1
1.00061
1
1.00009
1
1.03037
1
1.00007
1.0133
1
1.00107
1
1.00075
1
1
1.0192
1
1.00124
1.00144
1
1
1.00012
1.0205
1.0001
1
1.02018
1
1
1.00141
1.00128
1
1.00023
1.02154
1.00002
1
1
1.00016
1.02742
1
1
1.00002
1.03242
1
1.00209
1
1.00025
1.00023
1.00002
1.00281
1
1
1.00002
1.0002
1
1.03466
1.00023
1.00564
1
1
1.04177
1
1.02389
1
1.00067
1
1.00053
1
1.02925
1.00061
1
1.00063
1
1.09242
1
1
1.07022
1.05589
1
1.12607
1
1.11052
1
1
1.20857
1.63779
1
1
1.24775
1.15269
1
1.56876
1
1.16141
1
1.01379
1.13201
1
1
1.18661
1.62412
1
1
1.0122
1
1
1.13158
1.11803
1
1.01388
1
1
1.01047
1
1
1.00002
1.46854
1
1.39321
1.10649
2.6176
1
1.01175
1
1
1.37531
2.35796
1
1.07393
1
1
1
2.49174
1
1
1
1.00814
2.35798
1
1
1
1.00115
1.00985
1.00098
1
1
1.00004
1.00099
1
1.00093
1
1.26029
1
1
1.00073
1
1.0516
1
1.20669
1
1
1.00096
1.03766
1.00005
1
1.00941
1.00219
1
1.00003
1
1
1.03064
1
1.00142
1
1
1.05032
1
1.00006
1
1
1.00003
1.84981
1
1
1.07559
1.00039
1.12497
1
1
1.02232
1
1
1.02065
1
1
1.01688
1.69761
1
1
1.00006
1.00008
1
1.00035
1
1
1.1874
1
1.01997
1
1
1
1.62309
1
1
1.00007
1.0001
1.15449
1
1.07022
1.02319
1
1.41214
1
1
1.75674
1
1.00014
1.00019
1
1
1.05157
1.1598
1
1
1.00009
1.01895
1
1.32624
1
1
1.00097
1
1.00824
1.24315
1
1.00013
1
1
1.1596
1
1.00016
1.03204
1
4.04957
1
1
1
1.99974
3.34171
3.04894
3.04196
1
1
3.32009
3.45069
1
1
1.67597
1
3.821
3.32145
1
1
1
1
1
3.01871
1
1
1
1.60638
4.06766
1
1
3.00243
1
1
4.47472
3.80134
4.57108
1
3.21882
3.93219
1.90999
3.5671
4.4173
4.27786
3.20802
2.67506
1
3.87551
3.08884
3.73138
1
1
1.78867
4.51318
3.72683
1
1
1
4.34391
2.07718
1
1.00012
1
1
1
1
4.03806
4.72788
1
1
2.55666
3.34444
3.42186
3.62358
1.00077
3.70777
4.21637
1
1
1
3.24619
1
1
1
1
3.54946
1
1.60187
1.20428
1
1
1.00461
1
1.02524
1.9128
1
2.28968
1
2.54947
2.87972
1
1
1.00054
1
1.0033
2.99394
1
3.1184
1
1.00011
1
3.09573
1
1
3.4225
3.7905
1
1
1
1.00007
1.00045
3.28373
3.41496
1.00002
1
1
1.6015
1.59583
1
1.00003
1
1
1
1
1.00001
1
1.00001
1
1
1
1
1
1
1
1.00001
1
1
1
1
1
1
1
1
1
1
1
1
1
1
1
1.00001
1
1
1
1
1
1
1
1
1
1
1
1
1
1
1.00001
1.00001
1
1.00001
1
1
1
1
1
1
1
1
1
1
1
1
1
1
1
1
1.00001
1
1
1
1
1
1
1
1
1
1.00001
1
1
1
1
1
1
2.8869
1
2.90142
1
1.00001
1
1.00001
1
1.00045
3.51052
1
1
3.53698
1.00002
1.00002
1
1
1
1.00082
1
3.31651
1
2.9482
1.00003
1.00002
1
1
1
1
1
2.93528
3.81555
1
1
3.3275
3.49859
1
1.00109
1
1
1
3.45616
3.88346
1.46111
1.4418
3.01906
1
4.06004
3.81205
1
1
1.44097
1.63756
1
1.69089
1.65197
1
1
1.8497
1
1.86011
1
1.46424
1.44789
2.70615
1
1.61951
1.73935
1
1
1
2.51002
1
1
1.62811
1.78628
1.00001
1.00001
1.00015
1
1
1.96405
1.8
1
1
1
1
1.00001
1.00001
1.00001
1.00001
1
1
1.00001
1
1.0003
1
1
1
1.28464
1
1
1.0014
1.39161
1.51591
1.54571
1.00438
1
1
1.28052
1.00001
1.00001
1
1.52674
1
1
1
1.53023
1
1
1.69878
1.67614
1.77033
1.87235
1
1
1.32319
1
1.00277
1
1
1
1
1
1.02157
1
1
1
1
1
1
1
1
1
1
1.00607
1
1
1.02768
1.00005
1.00003
1
1
1
1.02126
1.00462
1.00876
1
1.00006
1.00004
1
1
1.00001
1.00001
1
1
1.00691
1
1
1.04448
1
1.03526
1
3.60123
1
3.5595
1
1
1.06777
1
4.44238
4.56277
1
1
1
4.24014
4.33629
1
1
1.05254
1
1.01233
1
1
1.02223
1
1
1.00028
1
1
1
1
1.00033
1.00042
1.01479
1
1
1
1.02284
1
1.00059
1
1
1
1.11069
1
1
1.20953
1
1
1.00046
1
1.0007
1
1.09688
1.15051
1.0006
1
1.47089
1
1
1
1.00086
1
1.46286
1.13552
1.71921
1
1.67333
1
1
1
1.60352
1.00198
1.53433
1
1.00054
1
1
1.71595
1
1
1.00225
1.00121
1.00211
1.61521
1
1
1.00002
1
1
1
1.00001
1
1.00002
1.00001
1.00001
1
1
1
1
1
1
1
1
1
1
1
1
1
1.00002
1.00002
1
1
1
1
1
1
1
1.00001
1.00001
1.00001
1
1
1
1
1
1
1.00001
1
1
1.00002
1
1
1
1
1.00002
1.00001
1
1
1
1
1
1
1
1.5462
1
1.00001
1
1
1
2.65017
1
2.31439
1
3.48161
1
1
4.18593
4.01674
1
1.73093
1
1
1
1
1
1
1
1
1
1
1.53099
1
1
1
1
1
1
1
1.00001
1
1
1.00001
1
1
1
1.58077
1
1
1
1
1
1
1
1
1.00002
1
1
2.71119
1
1
1
1
1
1.86185
1
2.46697
2.39199
1
1.79319
1
1
1.00001
1
1
2.3674
1
2.5383
1.00002
1.00003
1
1
2.17393
1.00002
1.00005
1.00004
1.00005
1
1
1
1
2.40131
1.00005
1.00006
1
1
2.19543
1.00003
1.00004
1
1
1
1
1.0001
1.00007
1
1
1
1
1
1
1
1
4.63785
4.68912
4.42452
1
4.44412
1
1
3.45023
3.37893
1
1
3.40163
1
3.04733
2.8805
1
1
4.5986
3.93513
3.92132
1
1
4.28823
4.42838
1
4.38122
1
4.45703
1
1
4.26871
1
4.06465
1
3.84498
1
1
1
1.30654
1.00179
1
1
1
1
3.16925
2.46111
1
1.00669
1
1.15585
1
1
1
2.47705
3.36402
1.28293
1
1.00173
1
1
1
1
3.19351
2.41803
1
1
1.00243
1
1.21277
1
1
1
1
1
3.62768
2.59451
1
1.21608
1
1.00522
1
1
1
1
2.39051
3.335
1
1
1
1.00178
1.0021
1
1
1
1
1.22806
1.19812
1
1
1
1
1
1
3.39182
3.26265
2.39169
2.32824
1
1
4.84849
1
4.82419
1
1
1
1
1
1
1
3.44285
1.00696
3.80781
1.80275
1.51376
3.40627
1.00262
1
1
1
1
1
1
1
1
2.8905
4.33118
4.46119
4.73687
5.15565
4.51236
4.9504
4.35689
4.20637
5.0509
4.75971
4.9698
4.51387
1
1
1
1
1
1
1
1
1
1
1
1
1
1
1
1
3.30315
1
1
1
1
1
1
1.43748
1.29088
1.27706
1.19887
1.12245
1
1
1
1
1
1
1
1
1
1
1
1.16094
1.24252
1
1
1
1
1
1.13861
1.29028
1.11115
1.17637
1.12492
1.19095
1
1
1
1
1
1
1.85695
2.15975
1.884
1
1
1
1
1
1
1
1
1
1
1
1
1.29174
1.44947
1.23384
1.30051
1.13377
1
1
1
1
1
1.06314
1.11067
1.02911
1.055
1.01828
1.06865
1.03237
1
1
1
1
1
1
1
1
1
1
1
1
1
1
1
1
1.01717
1.01707
1.00815
1
1
1
1
1
1
1
1
1.1734
1.35692
1.11182
1.19038
1.15532
1.23501
1
1
1
1.00001
1.00002
1
1.00001
1
1
1.00001
1.00001
1.00001
1.00001
1.00002
1.00001
1
1
1
1
1
1
1
1
1
1
1
1
1.04922
1.09334
1.02621
1.04816
1.0247
1.03905
1
1
1
1
1
1
1
1
1
1
1
1
2.88121
2.58672
3.58309
3.26726
3.58768
3.4866
1
1
1
1
1
1
2.73021
3.37645
2.14655
2.69686
2.45755
3.18909
1
1
1
1
1
1.00003
1.00002
1.00001
1
1.00002
1.00001
1
1
1
1
1
1
1
1
1
1
1
1
1
1
1
1
1
1
1.00001
1.00001
1
1
1
1
1
1
1
1
1
1
1
1
1.00001
1.00001
1.00001
1
1
1.00821
1.00466
1.01876
1.01368
1.0188
1.0167
1
1
1
1
1
1
1
1
1
1
1
1
1
1
1
1
4.48949
4.18571
4.48768
4.35601
1.0012
1.00325
1.00464
1.00728
1
1
1
1
1
1.00045
1.00034
1.00077
1.00078
1.00118
1.00001
1.00001
1.00001
1.00001
1.00001
1.00001
1.00001
1
1
1
1
1
1
1
1
1
1
1
1
1
1
1
1
1
1
1
1
1
1.00039
1.0003
1.00089
1.00076
1.00115
1.00107
1
1
1
1
1
1
1.01512
1.01618
1.01136
1.01042
1
1
1
1
1
1
1
1
1
1
1
1
1
1
1
1
1
1
1.00009
1.0002
1.00003
1.00007
1.00002
1.00003
3.16872
2.5378
2.77417
1.00028
1.00068
1.00018
1.00033
1.00015
1
1
1
1
1
1
1
1
1.6211
1.3636
1.28032
1.16751
1.47735
1.23164
1.54747
1.27625
1
1
1
1
1
1
1.79087
2.21681
1.77025
1.97757
1.66579
1.00004
1.00002
1.00014
1.00007
1.00012
1.00004
1
1
1
1
1
1
1.15258
1.06702
1.07135
1.04163
1.24183
1.12342
1.202
1.08991
1.0023
1.00128
1.00513
1.00349
1.00349
1.00352
1
1
1.02318
1.05007
1.06881
1.14004
1.04406
1.10652
1.04276
1.10882
1
1
1
1
1
1
1
1
1.55343
1.32009
1.67759
1.40839
1.29384
1.21335
1.5285
1.28366
1
1
1
1
1
1
1.00077
1.00208
1.0004
1.00087
1.00106
1.00215
1.00069
1.00156
2.21834
1.80392
2.48928
1.9395
2.51591
1.98408
2.40168
1.91086
1
1
1
1
1
1
1
1
1
1
1
1
1
1.00002
1.00001
1.00001
1
1
1
1.94235
2.33443
1.80923
2.0157
1.74457
1.93658
1
1
1
1
1
1
1
1
1
1
1
1
1
1
1
1
1
1
1
1
2.27649
1.99938
3.05727
2.66497
3.13047
2.98346
3.72649
3.79333
3.99494
3.87906
3.95045
3.80371
3.82058
3.83571
3.79396
3.81572
3.95476
3.8082
4.64371
3.64745
4.24047
3.9295
4.49051
4.05142
1
1
1
1
1
1
2.79683
2.05586
1.8217
1.53761
2.37157
1.73471
1
1
1
1
1
1
1
1
1
1
1
1
1
1
1
1
1
1
1
1
1
1
1
4.12193
3.99686
3.74975
3.45989
4.02347
3.61723
4.18396
5.06583
4.10205
4.71738
1
1
1
1
1
1
3.57367
4.02157
3.05893
3.38215
3.10436
3.59378
1
1
1
1
1
1
4.86048
4.49607
5.2348
5.01272
5.05916
4.62379
1.99583
2.54509
1.70239
2.05351
1.51412
1
1
1
1
1
1
4.44819
4.27988
4.91107
4.64053
4.79061
4.39539
4.02436
4.89018
4.53238
5.00987
4.52452
4.86643
2.33929
2.90492
1.86064
2.17824
1.84797
2.10053
1.00619
1.00349
1.01353
1.00947
1.0129
1.01133
1
1
1
1
1
1
1
1
1
1
1
1
1
4.26289
4.11335
3.65195
4.15397
4.11291
1
1
1.00486
1.00388
1.00337
3.8829
3.87163
4.28563
4.13186
4.25914
3.97714
1
1
1
1
1
1
1
1
3.81109
3.77577
4.09677
3.99748
4.1061
3.88584
1.0001
1.00019
1.0002
1.00047
1.00016
1.0004
1
1
1
1
1
1.19996
1.39824
1.00129
1.00119
1.00308
1.00293
1.00526
1.00516
1
1
1
1
1
1
1
1
1
1
1
1
1
1
1
1
1
1
1
1
1
1
1
1
1
1
1
1
1
1
1
1.12109
1.10184
1.27466
1.23119
1.33529
1.31358
1.02379
1.04047
1.01006
1.01433
1.0101
1.01036
1
1
1
1
1
1
1
1
1
1
1
1
1
1
1
1
1.00002
1.00003
1.00001
1.00002
1.00001
1.00001
1.00007
1.00005
1.00019
1.00011
1.00014
1.00007
1.52415
1.39124
2.53073
1.01715
1.01502
1.04464
1.03624
1.06903
1
1
1
1
1
1
1.00006
1.00037
1.00054
1.00112
1.00029
1.00081
1
1
1
1
1.00095
1.00035
1.00109
1.0023
1
1
1
1
1
1
1
1.00001
1
1.00001
1
1
1
1
1
1
1.00001
1
1.00002
1.00001
1.00002
1.00001
1
1
1
1.00001
1
1
1
1
1
1
1
1.00001
1
1.00001
1.00001
1.00002
1.00001
1
1
1
1
1
1
1
1
1.00002
1.00003
1.00002
1.00001
1
1
1
1
1.13078
1.22578
1.16948
1.35973
1
1
1
1
1
1
1
1
1
1
1
1
2.51213
2.94318
1
1
1
1
1.00003
1.00003
1.00002
1
1
1
1
1
1
1
1
1
1
1
1
1
1
1
1
1.04781
1.03245
1.09245
1.06692
1.08255
1.06571
1.00001
1.00002
1.00005
1.0001
1.00002
1.00005
1.00001
1.00001
1.00002
1.00003
1.00001
1.00002
1.00003
1.0001
1.00013
1.00027
1.00007
1.00022
1.00335
1.00114
1.00752
1.00302
1
1
1
1
1
1
1
1
1.09071
1.0573
1
1
1
1
1
1
1.00018
1.00004
1.00036
1.00012
1.00003
1.00003
1.00026
1.00015
1.00056
1.00036
1.00031
1.00025
1
1
1
1
1
1
1.00508
1.00138
1.01596
1.00842
1.01092
1.00415
1.0334
1.01996
1.04614
1.02009
1.01912
1.00691
1.00076
1.00165
1.00024
1.00063
1.00023
1.00038
1.02534
1.02125
1
1
1
1
1
1
1.00027
1.00005
1.00052
1.00017
1
1
1
1
1
1
1
1.29555
1.51453
1.13598
1.21922
1.11172
1.1536
1
1
1
1
1
1
1.29771
1.4393
1.22753
1.33523
1.24026
1.35354
1.34435
1.52126
1
1
1
1
1
1.0017
1.00059
1.00076
1.00031
1.00224
1.00115
1.00163
1.00072
1.0212
1.01023
1.00744
1.00251
1.00423
1.00133
1
1
1
1
1
1
1
1
1
1
1
1.1643
1.34648
1.05539
1.13786
1.05689
1.10164
1
1
1
1
1
1
1
1
1
1
1
1.00042
1.00022
1.00015
1.0001
1.00034
1.00016
1
1
1
1
1
1.00042
1.00118
1.00165
1.00339
1.00082
1.00247
1
1
1
1
1
1
1.00499
1.01294
1.00227
1.00443
1.00306
1.00458
1
1
1
1
1
1
1.00045
1.00088
1.00034
1.00076
1
1
1
1
1
1
1
1
1
1
1
1
1.00023
1.00051
1.00019
1.00026
1.00012
1.00012
1
1
1
1
1.00001
1.00001
1.00001
1.00002
1
1
1
1
1
1
1
1
1
1
1.02263
1.01266
1.02927
1.01369
1
1
1
1
1.0195
1.01111
1.00924
1.00439
1.00615
1.00273
1
1
1
1
1
1
1.00001
1.00002
1.00001
1.00001
1.00001
1.00002
1
1
1.14362
1.30436
1.05437
1.14023
1.01825
1
1
1
1
1
1.20991
1.44176
1.11019
1.21897
1.0866
1
1
1
1
1
1
1
1
1
1
1
1
1
1
1
1
1.02684
1.01636
1.05604
1.04195
1.0486
1
1
1
1
1
1
1.06491
1.04541
1.13451
1.10862
1.1692
1.16861
1.35027
1.56357
1.18138
1.30022
1.11916
1.17046
1.00003
1.00005
1.00002
1.00004
1
1
1
1
1.00005
1.00004
1
1
1
1
1
1
1
1
1
1
1
1.00001
1.00001
1.00002
1.00001
1.00002
1.00001
1
1
1
1
1
1
1.00022
1.00016
1
1
1
1
1
1
1.00002
1.00001
1.00003
1.00002
1.00003
1.00003
1.00002
1.00004
1.00001
1.00002
1.00001
1.00001
1.39369
1.22854
1.31956
1.24037
1
1
1
1
1
1
1
1
1.00374
1.00292
1.00716
1.00427
1
1
1
1
1
1
1
1
1
1
1
1
1
1
1
1
1
1
3.45717
3.21215
3.44598
3.1694
2.74109
2.37997
2.59257
2.33452
1
1
1
1
1
1
1
1
1
1
1
1
1
1
1
1
1
1
1.00115
4.519
4.83293
4.77818
5.12025
1
1
1
1
4.57226
4.54623
4.47979
4.29555
1
1
1
1
1.0847
1.15166
1.05198
1.09703
1.03391
1
1
1
1
1
1.69254
2.07182
1.50604
1.62725
1
1
1
1
1
1
1
1
1
1
1
1
1
1
1
1
1
1
1
1
1.02434
1.04706
1.27753
1.3489
1
1
1
1
1
1
1
1
1
1
1
1
1
1
1
1
1
1
1
1
1
1.00956
1.00005
1.00006
1.00005
1.00006
1
1
1
1
1
1
1
1.02451
1.02715
1.04101
1.03743
3.48594
3.98505
3.37386
4.12242
2.80048
2.89033
3.00307
3.19026
1
1
1
1
1
3.89057
3.5441
1
1
1
1
1.00001
1
1
1.00001
1
1.00001
1.00001
1.00811
1.00456
1.00512
1.00208
3.28929
3.20939
3.3256
1
1
1
1
1.00002
1.00002
1.00001
1.00002
3.81855
3.86222
3.9259
1
1
1
1
1
1
1
1
1
1
1
1.15557
1.15924
1
1
1
1
1
1
2.26483
2.34876
3.23417
3.22431
1.00879
1
1
1
1.00005
1.00009
1
1
1.00001
1
3.04202
3.04185
3.62747
3.79264
3.87828
3.77771
2.1461
2.37042
2.34854
2.76242
1
1
1
1
1
1
1.00001
1.00001
1.00001
1.00001
1
1.00001
1
1
1
1
1
1
1.02653
1.01499
1.06002
1.02943
1.00066
1.00103
1.00041
1.00062
1.00028
1.00032
3.3472
3.24086
2.85742
2.74715
1.97961
2.50063
1.76023
2.05416
1.70661
1.93603
1
1
1
1
1
1
1
1
1
1
1.00042
1.00025
1.00087
1.00063
1.00051
1.00054
1
1
1
1
1.25373
1.21974
1.4966
1.44377
1.55689
1.52749
1
1
1.00001
1.00001
1
1
1
1
1.00001
1.00001
1.00002
1.00002
1.00002
1.00003
1
1
1
1
1
1
1
1
1
1
1
1
1
1
1
1.12448
1.29057
1.05017
1.13087
1.05114
1.09597
1.01698
1.01216
1.03477
1.03031
1.04025
1.03923
1
1
1
1
1
1
1
1
1
1
1
1
1
1
1
3.00029
3.28691
3.1759
3.23463
1.93034
2.42141
1.80826
1.98825
2.27638
2.71209
2.05875
2.5385
1.02908
1.0187
1.02024
1.01528
1
1
1
1
1.00001
1
1.00001
1
1.00001
1
1
1
1
1
1
1
1
1
1
1.00001
1.00001
1.00003
1.00001
1.00003
1
1
1
1
1
1
1
1
1.15896
1.25237
1.13173
1.19617
1
1
1
1
1.7159
1.53469
1.79641
1.68385
1.95096
2.23735
2.02819
2.35386
2.11749
2.30997
2.6919
2.71123
3.03556
3.07093
1.00003
1.00003
1.00004
1.00004
1.00007
1.00443
1.00535
1.0172
1.01491
1.03662
1.02422
1.00003
1.00002
1.00003
1.00002
1.07988
1.06206
1.05805
1.05093
1
1
1
1
1
1
1
1
1
1
1
1
1
1
1
1
1
1
1
1
1.00007
1.00005
1.00008
1.00007
1.00016
1.00029
1.00007
1.00013
1.00012
1.00022
1.00172
1.00336
1.00075
1.00181
1.00084
1.00017
1.00101
1.00021
1.10504
1.18021
1.07625
1.12771
1
1
1
1
1
1
1
1
1.00356
1.00327
1.00678
1.0065
1
1
5.57717
5.31769
1
1
1
1
1
1
1
1
1
1
1
1
1
1
1
1
1
1
1
1
1
1
1
1
1
1
1
1.00001
1.00025
1.00169
1.01526
1.08851
1.63814
3.17408
5.74406
6.39158
5.75266
5.67143
5.73949
5.66723
5.36499
5.44495
5.24688
5.02942
4.78698
4.57888
4.59029
4.70083
4.75949
5.3374
5.68351
2.86204
1.45438
1.08038
1.01093
1.00119
1.00016
1.00003
1
1
1
1
1
1
1
1
1
1
2.63235
1.29285
1.02922
1.00358
1.00056
1.00007
1.00002
1
1
1
1
1
1
1
1
1
1
2.75842
1.24346
1.01657
1.00183
1.00024
1.00005
1.00001
1
1
1
1
1
1
1
1
1
1
2.39424
1.22677
1.01734
1.00122
1.00013
1.00003
1.00001
1
1
1
1
1
1
1
1
1
1
2.16329
1.17921
1.00935
1.00066
1.00013
1.00003
1.00001
1
1
1
1
1
1
1
1
1
1
2.19671
1.20701
1.01385
1.00126
1.00014
1.00004
1.00001
1
1
1
1
1
1
1
1
1
1
2.31248
1.19938
1.02047
1.0024
1.00035
1.00006
1.00001
1.00001
1
1
1
1
1
1
1
1
1
2.64014
1.26908
1.0372
1.00445
1.00059
1.00011
1.00003
1.00001
1
1
1
1
1
1
1
1
1
2.83159
1.45971
1.06836
1.00955
1.0016
1.00023
1.00004
1.00001
1
1
1
1
1
1
1
1
1
3.40408
1.67896
1.12959
1.0164
1.00311
1.0006
1.00008
1.00001
1
1
1
1
1
1
1
1
1
3.62902
2.09575
1.3565
1.0641
1.0061
1.00091
1.00014
1.00001
1
1
1
1
1
1
1
1
1
3.7446
2.40701
1.46633
1.11928
1.01776
1.00229
1.00022
1.00002
1
1
1
1
1
1
1
1
1
4.04178
3.03925
1.79805
1.31086
1.05303
1.00558
1.00048
1.00002
1
1
1
1
1
1
1
1
1
4.75417
3.38415
2.08294
1.31445
1.05474
1.00746
1.00037
1.00001
1
1
1
1
1
1
1
1
1
4.40409
2.75236
2.51566
1.37487
1.06384
1.00649
1.00035
1.00001
1
1
1
1
1
1
1
1
1
4.47884
2.96836
2.0801
1.30934
1.04536
1.00489
1.00024
1.00001
1
1
1
1
1
1
1
1
1
4.08734
2.52375
1.73644
1.19035
1.02801
1.00229
1.00011
1.00001
1
1
1
1
1
1
1
1
1
3.77005
2.28687
1.34689
1.06235
1.0078
1.00069
1.00008
1
1
1
1
1
1
1
1
1
1
1
5.38452
2.53788
1.45562
1.09857
1.0108
1.00163
1.00023
1.00003
1
1
1
1
1
1
1
1
1
1
1
1
1
1
1
1
1
1
1
1
1
1
1
1
1
1
1
1
1
1
5.28676
1
1
1
1
1
1
1
1
1
1
1.00001
1.00007
1.0006
1.00655
1.04222
1.3194
2.3328
5.51107
5.00284
6.43216
6.7055
6.82984
6.92534
6.85987
6.82812
6.51182
6.1693
5.82361
5.51615
5.37155
5.03624
4.95321
4.98052
5.02824
5.1741
5.42254
5.55728
1
1
5.15184
3.15785
1.44747
1.05819
1.0085
1.00115
1.00019
1.00002
1
1
1
1
1
1
1
1
1
1
1
1
1
1
1
1
1
1
1
1
1
1
1
1
1
1
1
1
1
1
1
1
1
1
1
1
1
1.00002
1.00019
1.00247
1.01451
1.11496
1.59621
3.15446
5.53308
6.03179
5.82769
5.37238
5.67532
5.68848
5.40765
5.23113
4.98836
4.82692
4.55267
4.76391
4.61214
4.45204
4.64815
4.87517
4.87912
1
1
1
1
1
1
1
1
1
1
1.00002
1.00009
1.00048
1.00318
1.03865
1.39531
2.44772
1
1
1
1
1
1
1
1
1
1
1.00001
1.00004
1.00019
1.00162
1.02111
1.1816
2.38665
1
1
1
1
1
1
1
1
1
1
1.00001
1.00003
1.00012
1.00097
1.00988
1.20233
2.27715
1
1
1
1
1
1
1
1
1
1.00001
1.00001
1.00003
1.00011
1.001
1.01006
1.14351
2.21137
1
1
1
1
1
1
1
1
1
1.00001
1.00001
1.00003
1.00016
1.00045
1.01276
1.17679
2.35828
1
1
1
1
1
1
1
1
1
1
1.00002
1.00006
1.00028
1.00196
1.02323
1.29037
2.14047
1
1
1
1
1
1
1
1
1
1.00001
1.00002
1.00011
1.00053
1.00374
1.04628
1.37743
2.31475
1
1
1
1
1
1
1
1
1
1.00001
1.00004
1.00019
1.00114
1.00961
1.06995
1.37708
2.69592
1
1
1
1
1
1
1
1
1
1.00001
1.00007
1.0005
1.00395
1.02527
1.13803
1.66962
3.14896
1
1
1
1
1
1
1
1
1
1.00001
1.00013
1.00128
1.00985
1.04991
1.29507
1.95675
3.61136
1
1
1
1
1
1
1
1
1
1.00002
1.00019
1.00223
1.01664
1.09938
1.54774
3.00639
4.40577
1
1
1
1
1
1
1
1
1
1.00002
1.00044
1.00471
1.04331
1.23577
1.99304
2.84787
4.14744
1
1
1
1
1
1
1
1
1
1.00001
1.00022
1.00641
1.06868
1.43172
2.00611
2.94777
4.37235
1
1
1
1
1
1
1
1
1
1.00002
1.00028
1.00656
1.06144
1.35703
2.14781
3.73282
4.18107
1
1
1
1
1
1
1
1
1
1.00001
1.0003
1.00476
1.05294
1.28384
1.89011
3.29122
4.98795
1
1
1
1
1
1
1
1
1
1.00001
1.00013
1.00251
1.02971
1.15487
1.76271
3.2346
3.9745
1
1
1
1
1
1
1
1
1
1
1.00006
1.00084
1.00738
1.05781
1.4058
2.20847
3.4412
)
;

boundaryField
{
    sides
    {
        type            fixedValue;
        value           uniform 1;
    }
    top
    {
        type            fixedValue;
        value           uniform 1;
    }
    outlet
    {
        type            fixedValue;
        value           uniform 1;
    }
    bottom
    {
        type            fixedValue;
        value           uniform 1;
    }
    inlet
    {
        type            fixedValue;
        value           uniform 10;
    }
}


// ************************************************************************* //
