/*--------------------------------*- C++ -*----------------------------------*\
  =========                 |
  \\      /  F ield         | OpenFOAM: The Open Source CFD Toolbox
   \\    /   O peration     | Website:  https://openfoam.org
    \\  /    A nd           | Version:  6
     \\/     M anipulation  |
\*---------------------------------------------------------------------------*/
FoamFile
{
    version     2.0;
    format      ascii;
    class       volScalarField;
    location    "1.5";
    object      p;
}
// * * * * * * * * * * * * * * * * * * * * * * * * * * * * * * * * * * * * * //

dimensions      [1 -1 -2 0 0 0 0];

internalField   nonuniform List<scalar> 
5835
(
1.53258
1.00098
2.43878
1.01455
1.00714
1.00023
1
1.00456
1
1.00366
1
1.01214
1.00002
1.00004
1.07634
1.00012
3.09809
3.03474
1.00071
1.00011
3.4157
1.00002
3.26369
1.04115
1.00001
1.00007
1.08364
1.0002
1.00282
1
1.00046
1.0003
1
1
1.00041
1.00002
1.00022
1
1
1
1.00122
1.00003
1.00004
1
1.00003
1.00049
1
1.00063
1.00071
1
1.00008
1.00001
1.00002
1
1
1
1
1
1.00008
1.00016
1.00067
1
1.0023
1.00139
1
1.00031
1
1.00026
1.00001
1.00054
1.00018
1
1.00016
1
1.00008
1
1
1.00034
1.00015
1
1
1.00046
1.00106
2.52264
1.49364
1
1.00558
1.00036
1.00492
1.01469
1
1.00438
1
1.00101
1.00083
1.00029
1.00049
1.00116
1.0393
1
1.00025
1.00046
1.00002
1.00033
1.01604
1.0004
1
1.03213
1.00025
1.00104
1.00067
1.00018
1.03302
1.00111
1.00037
1
1.00035
1.00069
1.00055
1.00609
1.00506
1
1
1.00045
1.00033
1.00087
1.00119
1.00067
1.00089
1
1.00098
1.00015
1.00013
1.00094
1.00144
1.00026
4.36183
1.00008
4.53484
1.0006
1
1.00031
4.08911
4.25439
4.73327
4.68729
2.06505
2.50246
1.00089
1.00345
2.5861
1.0021
1
1.00147
1.29837
1.3994
1.03572
1
1.0019
1.23446
1.00252
1
1.0003
1
1.05978
1.00124
1.00395
1.02103
1.0002
1.00223
1
1.00145
1.00193
1
1.00072
1.00014
1.00085
1.04137
1.00059
1.00619
1.00108
1.00039
1.0002
1
1.00229
1
1.00107
1
1.00224
1.00029
1.00005
1.00002
1.00038
1.00043
1.00128
1.00007
1.00007
1.0001
1
1.00005
3.857
3.64722
1.00011
1.00007
1.00009
1.00017
1
1.00359
1.00033
1.00022
1
1.00043
1.001
1.00051
1
1.00001
1.00044
1
1
1.00054
1.00074
1
1
1.0062
1.00109
1
1
4.81928
1
1.00085
1.00027
1.00091
1.00057
1.00112
1
1.00179
2.68865
1
2.50189
1.00243
1.00006
1.00365
1.00027
1.00038
1.00053
1
1.00077
1
1
1.00067
1.00034
1.00165
1.00041
1
1.00133
1.00273
1.00039
1.00782
1
1.00174
1.00028
1.0247
1.01904
1.00014
1.03012
1
1
1.00007
1.02724
1.02122
1.0001
1.00008
1.00039
1.0007
1.00088
1
1.00029
1.00001
1.00135
1
1
1
1.10372
1.00053
1
1
1
1.00004
1.00106
1.00016
2.9765
1.56584
1.00163
1.77103
1
1
1.00353
1.00011
1.00037
2.83489
1.00035
4.56499
4.7477
2.73396
1.45644
2.73119
1.00014
2.68955
1
2.13274
4.76988
1.95724
3.46867
1.06278
1.00035
1.00024
1.00044
1.02572
1
1.00207
1.00176
1
1.00024
1.06551
1.00006
1.12686
1
1
3.14126
1.00247
1
1.05226
1
1.00126
1.00019
1.00037
1.00025
1
1
1.00006
1.00019
3.39128
1.01956
3.28554
1.00076
1
1.00014
1
1
1.00029
1.16099
1
1
1.00276
1
1.00283
1.00225
1.00064
1.11846
1
1.0166
1.0014
1.00066
1.00141
1.30147
1.00086
1
1
1.00255
1.00039
1.00124
1.00071
1.00324
1
1.03732
1.00037
1.00112
1.0001
1.00025
1
1.00005
1
1.0005
1.00009
1.00002
1.00014
1.00028
1.0002
1.00007
1.0004
1.00016
1
1
1.00013
1.00032
1.00078
1.00293
1.00003
1.00001
1.00038
1.00013
1.00003
1.00077
1
1.0015
1.00388
1
1.00129
1.026
1
1.00117
1.00038
1.00204
1.01173
1
1.00332
1.05742
1.00084
1.00071
1.00114
1.00151
1.00064
1
1.00202
1.00032
1.00075
1.00258
1.00036
1.00085
1
1.00063
1.00116
1.00384
1.00453
1.00088
1.00074
1
1
1
1.00164
1
1.00013
1
1.00233
1.00061
1.00211
1.00039
1.00093
1.00003
1.00203
1
1.00154
1
1.00049
1.0024
1
1
1.0016
1.00102
1.00139
1
1.00015
1.00351
1
1.00177
1.00059
1.00144
1.00255
1.00042
1.00013
1.00028
1.00411
1
1.00556
1.00075
1.00102
1
1.00099
1
1
1.00341
1.0029
1
1
1
1.00106
1.00187
1.00024
1.00074
1
1
1
1
1.0003
1.0034
1.00069
1.00049
1.00033
1.00108
1.00048
1.07645
1
1.00135
1.00002
1
1.00057
1.00073
1
1.00919
1.00022
1.00185
1
1.00021
1.0355
1.00028
1.00018
4.48133
1.00136
1.00024
4.23174
4.20129
4.19487
1.00053
1.00003
1.00016
1.00203
2.55725
1.82951
1.00087
1.00195
1.00376
2.57723
3.81347
1.00006
4.69451
1.00095
1.00009
1.00177
2.71956
1
1.21764
1.00251
3.87147
1.00027
1.19455
1.03564
1.00139
1.0006
1.00002
1.00207
1.00371
1.0413
1
1.01882
1
1.00067
1.00011
1.00006
1.00008
1.00016
1.00132
1.00176
4.62605
1.00199
1.00339
1.00039
1.00008
1.00581
1
1
1.00239
1.00123
1
1
1.00043
1
3.35186
1.00017
1.0011
1.00021
1.00007
1.00063
1
1
1.00035
1.00127
1.00113
1.00041
1.00039
1
1
1
1.00063
1.00217
1.00045
1
1.00017
1
1.00056
1.00198
1
1.00076
1.00125
1.00103
1.3411
1.00026
1.00008
1.00285
1.00002
1
1
1.02224
1.0641
1.02037
1
1.02405
1
1.00079
1.00239
3.42648
1.0001
1.03
1.00062
1.00024
1.04591
1.0003
2.46401
1.00014
1.89693
2.30058
1.00065
1.00001
2.65922
2.57014
1.91107
1.00014
1.00012
1.00011
1.00047
1.0468
4.37615
1.00004
1.11498
1
1.00031
1.00038
1.00019
4.49103
3.54309
1.00019
1.03288
1
2.42286
1.00003
1.00175
1.00205
2.72596
1.06379
2.95282
1.00008
1
1.00116
1.02576
1.02636
1.00043
1.00046
1.00046
1
1.00341
1.15485
1.00271
1
1.1443
1
1.00158
1.00001
1.00052
1.0001
1.0003
1.00009
1.00005
1.00007
1.00004
1
1.00061
1
1.00145
1.00001
1.00014
1.00034
1.01124
1.00203
1.00358
1
1.00019
1
1
1.00032
1.00007
1.00208
1.00036
1.00213
1
1
1.03071
1.0295
1.00377
1
1.00088
1.00125
1.00046
1.00036
1.00017
1
1.00059
1.00077
1
1.0001
1
1.00224
1.00442
1.00406
1.00033
1.00177
1.00026
1.0046
1.00097
1.00035
1
1
1.00038
1.00011
1
1.00074
1.00072
1.00071
1
1.00242
1
1
1
1.00356
1.00121
1.00287
1.00022
1
1.00203
1.00067
1.00205
1.00031
1
1.00614
1.00023
1.00061
1.00087
1.00077
1
1.00009
1.0018
1
1.00123
1.00168
1.00433
1.00034
1.00218
1
1
1.001
1.00162
1.00091
1.00045
1.00002
1.00307
1
1.00122
1.00001
1
1.00217
1.00157
1.00057
1.00112
1.00178
1.00045
1.00059
1.00136
1.0008
1.00007
1.00001
1.00001
1.00009
1.00463
1.00088
1.00004
1.00027
1.00118
1.00582
1.00371
1.00015
1
1.00002
1.00044
1
1.00215
1.00019
1
1.00056
1.00014
1.00022
1.00079
1.00035
1.00015
1
1.00029
1.00008
1
1
1.00006
1.00239
1
1.00045
1.00009
1
1
1.00033
1.00096
1.00244
1.00269
1.4713
1.68181
1.92258
1.38877
1.00091
1
1
1
1.00005
1.00049
1.00028
1.00006
1.00023
1
1.00011
1.00041
1.00048
1.00019
1.00013
1.00008
1.00001
1
1.00024
1
1.00115
1.00063
1.00086
1.00708
1.00163
1.22698
1.00116
1.00368
1.00884
1.00124
1
1
1.3535
1
1
1.00013
1.00349
1.0027
1.0006
1.00143
1.00581
1.00404
1.00151
1.00194
1
1.00491
1.00149
1
1.00321
1
1.0015
1.35021
1.02565
1.00504
1.00093
1
1.00542
1.02397
1
1.72952
1
3.01505
1
1.00655
1.00147
1.00016
1
1.0026
1.00034
1.00189
1.00173
1.28911
1.33445
1.00223
1.00251
1.01635
1
1.28453
1
1.009
1.00341
1
5.6497
6.01354
1
1.00005
1.00003
5.31443
6.00872
6.27766
1.001
4.91781
1.00013
1
1.00074
6.10547
4.71241
1.00026
5.94983
4.40486
1.00007
1.00012
1
6.17424
1.00007
1
6.12991
1
4.9277
1
1
1
5.27728
4.48685
5.17859
1.00023
1
1.00054
4.32735
5.99053
5.98608
4.93354
4.59493
1.00002
1.0001
5.73089
1.00015
1.00013
4.46964
4.61045
5.35032
1.00006
5.09003
1.00007
1.05045
1.0002
1.00059
1.0007
1.00005
1.00119
1.0001
1.00388
1.00355
1.00438
1.29432
1.34536
1.00127
1.00096
1.02261
1.0015
1.00407
4.26183
1.00012
1.00001
3.90827
1
1.0108
1.00054
1
1
1.00113
1.0002
1.0004
1.00105
1.0006
1
1.00103
1.00023
1.00093
1.00017
1
1.00012
1
1.00157
1
1.00014
1.00004
1.00002
1
1.00095
1
1.00055
1.00035
1.00044
1.00013
1.00504
1.00106
1
1.00021
1
1.20034
2.60032
1
1
1.04069
2.70596
1
1.24762
1.05693
1
1
1
1.00103
1.00009
1.00013
1
1.0009
1
1
1
1.0003
1.00011
1.0008
1.00041
1.00033
1.00034
1.00034
1
1.0018
1.00196
1.00145
1.02774
1.53636
1
1.0014
1
1
1.00133
1.00177
1
1
1.00097
1.00015
1
1.00017
1.00197
1
1.00044
1
1.00094
1.00074
1.00041
1.00095
1.0009
1.00038
1.00275
1
1.00137
1
1.00182
1
1.00121
1
1.00073
1.00063
1.00067
1.00085
1.00198
1
1.00165
1.00563
1.00026
1.0009
1.00051
1.00112
1.00207
1
1
1.00032
1.00108
1.0006
1.00097
1.00196
1.00093
1.00227
1.00168
1
1
1.00131
1.00206
1
1.00035
1.00192
1.00213
1
1.00229
1
1.00374
1.00088
1.00077
1
1.00024
1
1.00204
1
1
1
1
1.00141
1
1
1.00127
1.00387
1
1.00082
1
1.00208
1.00093
1
1.0003
1.00055
1.00062
1.00117
1.00648
1.00022
1.0024
1.00109
1
1.00146
1
1.00064
1
1.00212
1.00057
1.00133
1.00371
1
1
1
1.0001
1
1.00005
1
1.00358
1.00063
1
1.00123
1.00059
1
1.00139
1.00191
1.00054
1
1.00187
1.00035
1.00068
1.00092
1.00047
1.00157
1.00146
1.00126
1
1.0008
1.00147
1.00027
1
1.0019
1.00609
1.0012
1.00008
1.00038
1.00158
1.00213
1.00054
1.00098
1.00131
1.00061
1.00006
1.01055
1
1.00169
1.00001
1
1.0013
1.00081
1
1.00124
1.00049
1
1.00028
1.00003
1.00039
1.00102
1.00191
1.00241
1
1.00009
1.00102
1.00016
1
1.00134
1
1.0008
1.02264
1.00062
1.00081
1.00052
1.00088
1.00076
1.01244
1
1.00311
1.00111
1.00119
1.00171
1.00105
1.16219
1.00531
1.00975
1
1
1
1.00052
1.00007
1.00055
1.00255
1.10711
1.00163
1.00013
1.00074
1.00662
1.00058
1.00039
1.00025
1.00307
1.00074
1.00038
1.00042
1.00368
1.07477
1.00059
1.00381
1.00015
1.00048
1.00203
1.00013
1
1
1
1.07827
1.00427
1.00017
1.00037
1.00014
1.00063
1.0002
1.00033
1.00051
1.03666
1.00181
1.00302
1.00187
1.00035
1.00007
1.00116
1.00014
1.00763
1.00214
1
1
1.00214
1.00563
1.0007
1
1.00599
1
1.00645
1.001
1.0044
1.00322
1
1
1.00013
1.0005
1.0009
1.00018
1.00166
1
1
1
1.00282
1
1.12879
1.0051
1.00028
1
1.00645
1.31199
2.01246
1.00007
1
1
1.00011
1.00013
1
1.00051
1
1.00069
1.00664
5.60664
1.00043
1
1.00056
1.1058
1.34657
1.00006
1.00006
1.8292
1.0023
1
1.00005
1.26557
1.00043
1.00019
1.12386
2.3513
4.07107
1
4.58751
1.44421
1.00061
4.2636
1.00015
2.31519
4.22083
1.29145
2.53407
2.6446
1.0002
1.67805
1.02134
2.70887
1.00036
1.07013
1.18768
1.57845
1.00025
1
1
1.00012
1
3.83138
3.13033
1
1.00002
1
1.11253
1.43115
1.00049
1
1.5567
1
1.00031
3.10211
1.00113
1.00014
1.00005
1.33913
1.618
1.00166
1.00095
1.30637
1.00152
1.21808
1.00033
1.09788
1
1.00002
1.02032
1.0246
1
1.00076
1.158
1
1.00227
1
1.00066
1
1
1
1.00052
1.00058
1.00091
1.65713
1.00019
1.00056
1.00186
1.25695
1.00025
1
1.00019
1.00161
1
1.00021
1.0043
1.00034
1.00027
1.00085
1.00014
1.00073
1.00047
1.00138
1.00001
1.00076
1.08875
1.00022
1
1.04006
1
1.00002
1.00029
1.00135
1.61772
1.57263
1.00021
1.00066
1
1
1.00011
1.00022
1.07899
1.00206
1.00133
1.00042
1
1.0001
1.00025
1.00137
1.00108
1.7491
1.00021
1.00053
1
1.0021
1
1.00012
1.05416
1.12153
1.0032
1.00024
1.00003
1.00146
1.27986
2.09892
1.00232
1.00016
1.00016
1.00036
1.00091
1.00228
1.00077
1.00111
1.00054
1.00063
1
1.00172
1
1.00027
1.00065
1
1.0002
1.00003
1.00007
1.00054
1.00023
1
1.00015
1.00056
1.00024
1.00005
1
1
1.00029
1.00025
1.00011
1.00045
1.00025
1.00022
1.00013
1
1.00033
1.00007
1.00003
1.00051
1.00048
1.00008
1
1
1.00016
1.00031
1.00012
1
1.00009
1.00006
1.00013
1.00022
1.00004
1.00004
1.00004
1.00004
1.00054
1.00014
1.00008
1.00051
1.00019
1.00009
1.00008
1.00002
1.00023
1
1.00064
1.00061
2.13803
1.00019
1
1.0062
1.00049
1.00072
1
1.00054
1.00089
1.00045
1.00005
1.00054
1.0001
1.01141
1.00256
1.00004
1.00764
1.00072
1.001
1
1.00089
1.00122
1.00053
1.00107
1.00101
1
1.0023
1
1
1.00078
1.00194
1.00033
1.00127
1.00012
1.00017
1
1.00154
1.00068
1
1
1.00084
1.00147
1.00065
1.0002
1.00095
1
1
1.00016
1.00002
1.00165
2.25748
1.0012
1.00018
1.0025
1.00201
1
1.00099
1.00035
1.00063
4.46323
1.00015
1
1.00124
1
1.00307
1.00174
1.00116
3.45628
1.00204
1
1.00084
1.00024
1.00192
1.00075
1
1.00172
1.13881
1.00236
1.00096
1.00009
5.40175
1.00006
1.00009
2.15608
1
1.2189
1.00011
1
1.00087
1.00052
1.00015
1.00831
1.00062
1.0044
1.00184
1.00069
1.00057
1.00017
1.0018
1.00066
1.00423
1.00803
1.00392
1
1.02437
1.00006
1.00365
1.00245
1.00039
1
1.00036
1.00043
1.01842
1.00102
1.00078
1
1.0002
1
1.00013
1.00012
1
1.00943
1.00002
1.00122
1.00068
1.00016
1.00002
1.00104
1.00023
1.00045
1.00001
1.00067
1
1.00252
1.00044
1.0005
1.00035
1.01211
1.00091
1.00028
1.00034
1.00027
1.00371
1.00156
1.0428
1.00002
1.01163
1.00133
1.002
1.00006
1.00028
1
1.00037
1.02838
1.00089
1.00001
1.0001
1.00008
1.00049
1.00032
1
1.00036
1.00011
1.08375
1.18628
1
1.00004
1.00049
1.00001
1.00019
1
1.00016
1.00012
1.00016
1.06307
1.0001
2.63178
1.00042
1.00007
1.00002
1.05528
1.0011
1.15683
1
1.00008
1.00018
1.00034
3.75189
1.00075
1
1.00011
1.11405
1.00025
1.00005
1.00045
1.00013
1
1.00014
1.00019
1.00259
1
1.00125
1.00002
1.0003
5.5364
1.00042
4.2658
1.00003
1.00007
1.00044
1.00004
1.00005
1
1
1
1.00051
1.00055
1.00053
1.00138
1
1.00035
1.00029
1.00048
1.00041
1
1
1.0003
1.00089
1.00002
1
1.00307
1.00047
1.00039
1
1.07094
1.00013
5.7095
1.00002
2.71257
1.00009
1.00045
1
1.4337
1
4.43408
1
3.43696
1
2.23349
3.42289
1.94781
1.22958
1.00364
1.00292
4.08294
1.00087
1.00156
5.23114
1.00173
1.00337
3.7659
1.00085
3.1691
3.23878
1.00032
1.00291
1.00015
3.49128
1.00119
1.96518
1.0006
5.81431
1
3.27766
1.00037
1.01754
1.00117
1
1.00053
1.00011
1
1.00032
1.00401
1.00407
1.00224
1.00631
1
1
1.00073
1.99951
1.15477
1.00001
1
5.3628
5.81162
1.00003
1
5.93194
6.82983
1.0002
1
5.59088
6.23324
1
5.59506
6.79907
1.00005
1.00008
1.00008
7.10006
6.74185
1.00027
7.12862
1
6.97157
1.00002
1.00034
5.4011
5.95594
5.82722
1
1.00005
5.94186
5.87356
1
5.56008
1.00014
5.56249
1.00008
1
5.52438
5.41843
1.00007
1.00012
5.90639
1
1.00006
6.01701
5.85258
1
1.00002
6.12091
5.99075
1.00031
1
7.47833
7.18388
1
6.28854
6.42507
1
1.00011
7.22512
1
7.00737
7.25171
1
1.0003
7.4583
1.00001
6.92398
1
6.87885
6.7339
1
1
6.60265
1.20425
1.00264
1.0021
1.19165
1.00132
1.00221
1.00089
1.00144
1.00623
1.00169
1.00009
2.17655
1.34553
1.00211
1.00045
1.00145
1.00007
6.16274
1
1.00002
5.87086
1
6.30081
7.00814
1.00002
5.6008
1
5.36979
1
6.20347
1.00011
1.00013
1
6.89743
7.10486
5.84098
6.2926
1
1.0002
1.00005
1.00012
6.12094
1.00085
1.00007
1.00005
1.00014
1.00001
1.00012
6.0943
5.27515
5.75368
6.30065
5.19567
6.6071
1.00008
1.00042
6.2722
1.00019
5.70584
7.1929
5.81736
1.00019
1
6.37875
1.00007
6.25007
1
6.31962
6.06296
1.00003
1.00099
1
1.00173
1.00098
1
1
1
1.70731
1.09269
1.001
1
1
1.00109
1.00158
1.00191
1.00309
1.00197
1.03446
1.69406
4.44874
1.00004
1.00004
1.00001
4.79887
1.00006
4.86215
5.1583
1
1.00126
1.00017
1.00017
1
1.00145
1.00009
1.00058
1.00064
1
1
1
1.00025
1.00006
1.0007
1
1
1.00015
1
1.0001
1.00001
1
1
1.00112
1
1.00059
1.00078
1.00031
1.00018
1.00105
1.00063
1.00035
1
1
1.00001
1.71313
1
1.33272
1.38052
1
1
1
1.74708
1.00832
1
1
1.00059
1.00004
1.00579
1
1.00027
1
1.00023
1
1.00067
1
1.00001
1.0001
1.00004
1
1.00042
1.00011
1.00026
1.00119
1.0002
1.00152
1.00013
1
1.00039
1.00005
1
1.00019
1
1.001
1.00109
1
1
1.00072
1
1.00106
1.00034
1.00013
1.00043
1
1
1.00069
1.00109
1.00001
1.00048
1.00099
1.0009
1.00052
1
1.00028
1.00194
1.00105
1.00097
1.00158
1.00062
1.00071
1.00033
1
1.00045
1.00026
1.00089
1.00091
1.00031
1.00062
1.00099
1.001
1.00123
1.00138
1.00135
1.00163
1.00041
1.00065
1.00235
1.00226
1.00005
1
1.00235
1.00074
1.00147
1
1.00312
1.00077
1.00057
1.00582
1.00116
1
1.00413
1
1.00028
1.00073
1.00006
1.00045
1.00136
1.00215
1
1.00347
1
1.00292
1
1.0016
1.00149
1.00066
1.00058
1
1.00027
1.00072
1.00195
1.00217
1.00049
1.00027
1.002
1
1.00281
1.00077
1
1.00196
1.00125
1.00128
1
1
1.00004
1
1.00004
1.00101
1.00068
1.00082
1.00021
1.00006
1
1
1.00007
1
1.00023
1
1.00087
1.00037
1.00191
1.00151
1
1
1.00093
1.00104
1.00489
1.00079
1.0003
1.00172
1.00005
1.00142
1.00033
1
1.00248
1.00146
1.00013
1.00065
1.00007
1
1.0003
1.00291
1.00148
1.00082
1.00147
1.00044
1.00053
1.00137
1.00135
1.00066
1.00528
1
1.00086
1
1
1
1.00093
1.00086
1.00147
1.00242
1.00162
1.0049
1.00144
1.00055
1
1
1.00068
1.00114
1.00076
1.00074
1
1
1.00089
1
1.00155
1.00144
1.00079
1.00041
1
1.00052
1
1.00505
1.00001
1.00159
1.0008
1
1.00115
1.00098
1.00033
1.00007
1.00198
1.00081
1.00131
1.00129
1.00263
1.00059
1.00091
1.00078
1.00018
1.00347
1
1.00082
1.0002
1
1.00128
1.00018
1
1
1.00031
1.00097
1.00699
1.00038
1.00037
1.00211
1.00174
1.00032
1.00005
1.00174
1.00007
1.00106
1.0009
1.00048
1.0014
1
1.00177
1.001
1.0008
1.00097
1.00042
1.0015
1
1.00003
1.00056
1.00037
1.0019
1.00028
1.00152
1.00055
1.00071
1.00046
1.00057
1.00135
1.00137
1.00043
1.00013
1.00016
1.00063
1
1.00142
1
1.00048
1
1.002
1.00071
1.00086
1
1.00099
1.00083
1
1.01484
1
1.00033
1.00082
1
1.00105
1.01074
1.00001
1.0015
1.00091
1.00104
1.00195
1.00095
1.00041
1.00046
1.00984
1
1.00047
1.00051
1.00091
1.00115
1.00205
1.00221
1.00114
1.00206
1.00142
1.00032
1.00156
1.00049
1
1
1.0059
1.00046
1.00424
1.00264
1.17415
1
1.00024
1
1
1.00298
1.14578
1
1.00539
1.00013
1.00053
1.00214
1.13782
1.00073
1.00214
1.00057
1
1.11699
1.0011
1.00123
1.00094
1
1.00013
1.00001
1.00047
1.0061
1.00016
1.0004
1.00137
1
1.00153
1.00293
1
1.0015
1.00058
1.00121
1.00019
1.00029
1.00279
1
1
1.00103
1.00314
1
1.00059
1.00046
1.00004
1.00516
1.00076
1.00046
1
1.00389
1.00098
1.00008
1.00097
1
1.00053
1.00033
1.00027
1.00037
1.00673
1.00044
1.03059
1.0012
1.0009
1
1.00225
1.00136
1.00027
1.00066
1.00107
1
1
1.00218
1
1
1.00084
1.00621
1.00068
1.00124
1
1
1.00025
1.00278
1
1
1
1.00057
1.00272
1
1.00055
1
1.00634
1.00109
1.00042
1.00053
1.00038
1
1
1.00158
1.00341
1
1.00423
1
1
1.02564
1.00053
1.00041
1.00034
1.00041
1.00005
1.0016
1.00048
1
1.00085
1.00014
1.00199
1
1.00366
1.00034
1.00078
1.00083
1
1.00087
1.00049
1.00021
1.00137
1.00001
1
1.00015
1.00019
1.00191
1.0004
1
1.54658
1.00009
1
1
1
1.439
1.22745
1.18664
1.00013
1.00024
1.42552
1.56754
1.00083
1.00071
1
1.0002
1.23165
1.3288
1.00004
1.00073
1
1.00001
1.00034
1.07997
1
1
1.00014
1
2.82201
1.00013
1
1.06151
1.00005
1
3.35518
2.59564
3.88629
1
1.44443
3.45362
1
1
3.44119
2.8962
1.29087
1.3298
1.00125
3.03979
1.40774
1.39647
1
1
1
3.35894
1
1.00064
1
1.00152
3.44504
1
1.00037
1.0005
1.00003
1.00028
1
1
3.02817
3.97977
1.00159
1
1.10823
1.57243
1.51586
1.52048
1.00056
1.73334
1.99
1.0004
1.00018
1.0009
1.48756
1.00099
1.0001
1.00007
1
1.89553
1
1.01592
1.00035
1
1.00015
1.00073
1
1.00034
1.00531
1
1.05957
1
1.2353
1.31179
1
1.00008
1.00028
1
1.00055
1.25226
1.00026
1.18675
1.00003
1.00121
1.00016
1.37927
1.00007
1.00095
1.45779
1.26058
1.00031
1.00011
1
1.00189
1.00045
1.61917
1.7499
1.00104
1.00072
1.00002
1
1
1
1.00087
1.00081
1.00005
1
1.00005
1.00024
1.00014
1.00016
1.00004
1
1.00014
1.00061
1.00023
1.00061
1
1.00096
1.00017
1.00065
1
1
1.00004
1
1.0007
1
1.00037
1.00038
1
1
1.00011
1.00028
1.00003
1.00041
1.00023
1.00038
1.00044
1.00097
1
1.00026
1.00017
1.00011
1.00012
1.00033
1.00007
1.00036
1.00021
1.00021
1
1.00008
1
1.00005
1.00064
1.00014
1.00119
1
1.00034
1.00023
1.00017
1.00011
1.00005
1
1
1
1.00001
1.00042
1.00002
1.00018
1.00004
1.00037
1.00012
1.00125
1.00025
1.00008
1.00003
1
1
1.00055
1.00036
1.00002
1.00118
1.00078
1.00015
1
1.00036
1.05234
1.00013
1.05836
1
1.00269
1
1.00271
1.00004
1
1
1.00044
1
1
1.00186
1.00211
1.00066
1.00035
1
1.00009
1.00024
1.0765
1
1.04089
1.00343
1.00368
1.00066
1.00024
1.00028
1.00056
1.00013
1.45795
1
1.00066
1.00057
1.30791
1.40591
1.0004
1
1.0002
1.00008
1.00023
1.78963
1.66974
1.00078
1
1.20863
1.00171
1.52354
1.34895
1.0002
1.00013
1.00172
1.00979
1.00049
1.00217
1.00023
1
1
1.01011
1
1.00376
1.00096
1
1
1.17139
1.00054
1.00096
1.00032
1.00125
1.00028
1
1.13568
1.00062
1.00004
1.00662
1.00784
1.00051
1
1.00013
1.00079
1.00145
1
1.00386
1.00048
1.00059
1.00123
1.00019
1
1.00007
1.00036
1
1.00028
1
1.00017
1.00035
1
1.0005
1.00009
1.00036
1
1.00052
1.00036
1.00077
1.00043
1.00078
1.00111
1.00169
1.00091
1.00055
1.00008
1.00009
1.00013
1.00005
1.00403
1.00075
1.00043
1.00055
1.00338
1.00081
1.0003
1.0004
1.00325
1.00612
1.00837
1.0005
1.00047
1
1.00087
1.00174
1.00126
1.00021
1.00072
1
1.00013
1.00034
1.00003
1.00061
1.00137
1.00026
1.00013
1.0002
1
1.00188
1.00005
1.00072
1
1.00139
1.00151
1.00033
1.00041
1
1.00015
1.00023
1.00134
1.00048
1.00028
1
1.00185
1
1.00067
1
1.00044
1
1.00016
1
1.00081
1.00041
1.0017
1.00047
1
1.00189
1
1.00169
2.1072
1.00183
2.08861
1.00078
1.00072
1
1.00043
4.05152
4.45022
1.00012
1.00057
1.00047
3.55471
3.82609
1.00153
1.00234
1
1.00103
1
1.00157
1.00287
1.00329
1.00123
1.00037
1.00021
1.00132
1
1.00184
1.00045
1.00017
1.00012
1.00194
1.00131
1.00108
1.00036
1.0018
1.0006
1.00053
1.00229
1.00003
1.00303
1
1.00232
1
1.00192
1.00206
1.00001
1.0001
1.00009
1.00005
1.00185
1.00308
1.00155
1
1.00053
1.00679
1.00094
1.00113
1.00043
1.0005
1.00139
1.00471
1.0014
1.01306
1.00124
1.01229
1.00149
1.00038
1.0004
1.01168
1
1.00703
1.00135
1.00485
1.0028
1
1.01478
1.00156
1.00193
1.00025
1.00168
1.00248
1.0133
1.00084
1.00035
1
1.00108
1.00029
1.00071
1
1.00051
1.00018
1.00016
1.00002
1.00001
1.00033
1.00005
1.00011
1
1.00013
1.0002
1
1
1.00029
1.00003
1.00029
1
1
1.00009
1.00046
1.00106
1
1.00045
1.00038
1.00001
1.00021
1.00004
1
1.00012
1
1.00122
1.0001
1
1.00025
1
1
1.00006
1.00084
1.0001
1.00007
1
1.00014
1.00002
1
1
1.00015
1.00033
1
1.00007
1.00017
1.00007
1.00043
1.00558
1.00134
1
1.00036
1.0011
1.00013
1.04729
1.00008
1.03618
1.00003
1.61827
1.00004
1.00013
2.07255
1.81377
1.00014
1.01212
1.00154
1.00009
1.00009
1
1.00034
1.00022
1.0002
1.00001
1
1.0021
1.00456
1.00023
1.00026
1.00011
1.00042
1.00006
1.00014
1.00019
1.00022
1.00019
1.00017
1
1.00008
1.00026
1.00108
1.00697
1.00003
1
1.00008
1.00067
1.00013
1.0001
1.00016
1.00009
1.00001
1.00033
1.00032
1.16575
1.00046
1.00077
1.00004
1.00005
1.00013
1.03237
1.00058
1.17008
1.08012
1.00123
1.03193
1.00057
1.00007
1
1.00013
1
1.11028
1.00068
1.12954
1.00009
1.00014
1.0006
1.00024
1.06152
1
1
1.00187
1.00073
1.00066
1.00045
1.00062
1.00005
1.14213
1
1.00065
1
1.00044
1.07387
1.0002
1.00018
1.00018
1.00038
1.00035
1.00062
1
1
1.00022
1.0004
1
1
1.00031
1
1
1.00007
4.19015
4.29656
3.6272
1
3.76488
1
1
1.9334
1.68974
1.00354
1.00253
1.39818
1
1.30799
1.36243
1.00147
1.00149
4.26858
3.82254
3.27442
1.00231
1.0014
3.26493
3.3158
1.00096
3.68486
1.00252
2.74764
1.00174
1.00036
2.4968
1.00022
2.35121
1.00028
2.09019
1.00017
1.00011
1.00053
1.0017
1.00173
1.00447
1.0008
1.00038
1.0003
1.96077
1.18288
1.00025
1.00018
1.0005
1.00227
1.00028
1.00313
1.00054
1.04867
1.84944
1
1
1.00216
1.00221
1.00105
1.0005
1.00289
1.79656
1.12746
1.00039
1.00016
1.00436
1.00235
1.00144
1.00227
1
1
1.0001
1.00074
1.9304
1.05814
1.00759
1.00326
1.00167
1.00335
1.00017
1
1
1
1.05626
2.04013
1.00278
1.00011
1.00074
1.00305
1.00094
1.00124
1.00138
1
1.0002
1.00147
1
1
1.00146
1
1.00026
1
1.00202
1.76102
1.79108
1.05784
1.09084
1.00024
1.00074
5.80418
1.00007
5.94685
1.00008
1.00054
1
1
1.00038
1.00064
1.00253
1.8978
1.00472
3.08204
1.02644
1.00959
2.40582
1.00123
1.00178
1.00316
1.00115
1.00104
1.00012
1
1.00071
1.00017
1.43549
4.53492
4.43202
6.17198
7.24167
5.71943
6.43203
4.18304
4.18266
7.14592
6.08814
6.32133
5.55022
1.00087
1.00145
1
1
1.00029
1.0004
1.00025
1
1.00051
1.00036
1.00051
1.00037
1.00279
1.00285
1
1.00009
2.0207
1.00166
1
1
1.00025
1
1
1.00355
1.00145
1.00078
1
1.00042
1.00112
1.00138
1.00164
1.00197
1.0015
1.00019
1.00181
1.00137
1.00126
1.00197
1.0021
1
1.0003
1.00062
1.00195
1.0015
1.00191
1.00133
1
1.0008
1.00116
1.00207
1
1
1
1.0004
1.00081
1.00092
1.00075
1.00121
1.04747
1.08246
1.04066
1.00121
1.00169
1.00051
1.00004
1.0029
1.00432
1.0002
1
1.00054
1.00001
1
1
1.00325
1.00484
1.00239
1.00258
1.00137
1.00115
1.00025
1.00099
1.00112
1.00153
1
1.00064
1.00042
1.0009
1.00232
1.00111
1.00064
1
1.00159
1.00045
1.0001
1.00045
1.00061
1.00053
1.00048
1.00004
1.00033
1.00019
1
1.00028
1.00038
1.00026
1.00046
1.00096
1.00084
1
1.00019
1
1
1.00012
1.00026
1.00007
1.00033
1.00009
1.00008
1.00087
1.0002
1.00058
1
1.00033
1
1.00184
1.00131
1.00016
1
1
1
1
1.0001
1
1.00005
1
1.00003
1
1
1.00086
1.00092
1
1
1.0013
1.00196
1.00023
1
1.00027
1.00005
1.00024
1
1.00254
1.00273
1.00462
1.00592
1.00174
1.00049
1.00014
1.00019
1.00006
1.00008
1.0001
1
1
1.00007
1.00032
1.00029
1.00051
1.0004
1.30172
1.14239
1.79823
1.49052
1.79776
1.63
1.00004
1
1.00013
1
1
1.00008
1.166
1.44439
1.01052
1.08657
1.08516
1.35347
1.00012
1.00018
1.00003
1.00008
1.00006
1
1.00038
1
1
1
1
1
1
1.00055
1
1.00038
1.00019
1.00001
1.00049
1.00052
1.00063
1.00089
1.00068
1.00023
1.00016
1.0002
1.00038
1.00009
1.00047
1.00015
1.00003
1.00095
1.00123
1.00129
1.00136
1.00113
1.00099
1
1.00044
1.00059
1.00082
1.00027
1.00043
1.00037
1.00013
1.00023
1.00028
1
1.00123
1.00138
1.00074
1.00045
1.00308
1.00321
1.00009
1.00014
1.00003
1.00021
1.00021
1.0006
1.00103
1.0008
1.00123
1.00077
1.00079
1.00015
1.00067
1.00116
1.00146
1.00195
4.50098
3.72171
3.94569
4.37601
1.00249
1.00196
1.00204
1.00219
1.00065
1
1.00094
1.00065
1.00085
1.00146
1.00074
1.00188
1.00072
1.0015
1.00031
1.0003
1.00039
1.00051
1.0005
1.00006
1.00009
1.00035
1.00121
1.0009
1.00131
1.00056
1.00017
1
1.00049
1.00021
1.00009
1.00022
1.00055
1.00014
1.00057
1.00065
1.00059
1.0007
1.00111
1.00184
1.00307
1.00131
1.00046
1.00168
1.0018
1.00199
1.0007
1
1.00061
1.00172
1.00157
1.00199
1.00094
1.00083
1.00081
1
1
1.00021
1.00016
1.00031
1.00014
1.00033
1
1.00097
1.00032
1.00077
1.0004
1.00096
1.00032
1.00105
1.00041
1.00079
1.00163
1.00202
1.00208
1.00298
1.00035
1
1
1
1
1.00005
1.48007
1.17964
1.26757
1.00028
1
1.00009
1
1.00027
1
1.0009
1.00022
1
1.00014
1.00038
1
1.00106
1.01392
1.00575
1.00228
1.00107
1.00692
1.00362
1.01169
1.00448
1.0036
1
1.00001
1.00039
1.00017
1
1.03973
1.10085
1.02775
1.05063
1.01838
1
1
1.00018
1.00029
1
1
1.00031
1.00066
1.00075
1.00093
1.00079
1.00034
1
1
1.00042
1
1
1.00062
1
1
1.00052
1
1
1.00029
1
1.00012
1.00104
1.0019
1.00243
1.00142
1.0003
1
1
1.00369
1
1.00479
1.00091
1.00023
1.00005
1
1
1.00001
1.00006
1.00011
1.00689
1.0043
1.01702
1.00575
1.00188
1.00055
1.00462
1.00227
1.00015
1.00205
1
1
1.00018
1.00041
1
1.00125
1.00118
1.00088
1
1
1
1.00068
1.06708
1.0233
1.10549
1.03028
1.14796
1.02216
1.07279
1.01414
1.00337
1.00018
1
1.00022
1.00002
1.00011
1
1.00016
1.00023
1.00004
1.00018
1.00013
1.00018
1.00132
1.0001
1.00197
1.00185
1
1.00073
1.04321
1.10693
1.02977
1.05222
1.03136
1.03962
1.00202
1.00089
1.00075
1.00286
1.00258
1.0021
1.00022
1.00022
1.00024
1.00009
1.00018
1.00016
1
1.00008
1.00013
1.0001
1.00006
1.00009
1
1
1.0933
1.02895
1.32915
1.19701
1.48389
1.35517
2.39218
1.87814
5.96707
4.4443
4.61976
3.30087
2.36844
1.85071
5.92869
4.41958
4.59635
3.28506
2.45455
1.23761
2.33998
1.99426
4.35447
2.04696
1.00002
1.00017
1.00008
1.00004
1.00016
1.00006
1.11974
1.02925
1.01219
1
1.06205
1.00598
1.0001
1.00021
1.00003
1.00022
1.00009
1.00028
1
1.00006
1
1
1.00006
1.00008
1.00016
1.00023
1
1.00013
1.00005
1.0002
1.00022
1.00015
1.00022
1.00012
1.00023
3.41367
2.39449
2.29765
2.06394
2.9222
2.21371
3.47371
4.45694
3.38568
3.99021
1.00099
1.00043
1.00039
1
1
1
1.86344
2.71197
1.64951
2.00478
1.74862
2.01663
1.00037
1.00121
1.00229
1
1.00198
1.00044
4.09763
3.96047
6.66582
5.84641
6.87646
6.19374
1.02025
1.08452
1.00296
1.02248
1
1
1.00009
1.00015
1.00055
1.00029
1.00039
3.59837
3.29323
6.95453
5.63454
5.80855
5.01938
2.23604
4.44212
2.98719
5.47084
2.12216
4.34997
1.05901
1.22895
1
1.04887
1.00909
1.02286
1.00022
1
1
1.00044
1
1
1.00251
1.00167
1.00121
1.00107
1.00184
1.00293
1.00279
1.00283
1
1.00007
1.00015
1.00016
1.00012
2.8191
2.74888
1.36684
5.02024
2.49468
1
1.00265
1.00012
1
1.00008
2.85427
2.35407
6.47045
4.92717
5.1048
3.77864
1.00023
1.00023
1.00018
1
1.00009
1
1.00014
1.00011
2.62768
2.17877
5.88937
4.56008
4.7605
3.54978
1.00112
1
1.00026
1.00111
1.00095
1.0007
1
1.00102
1.00228
1.00159
1.00274
1.00071
1.00607
1.00162
1
1
1
1.00376
1.00339
1.00061
1.00097
1.00023
1
1.00057
1
1.00017
1.00003
1
1
1
1.00011
1.00101
1.00066
1.00036
1.0001
1
1
1.0013
1.00076
1.00137
1.00039
1
1
1.0005
1
1.0006
1.00012
1
1
1
1
1.00215
1.00234
1.00279
1.00203
1.00259
1.00061
1.00197
1.0012
1.00163
1.00128
1.00085
1.00043
1
1
1
1
1.00005
1.0004
1.00133
1.001
1.00073
1.00137
1.00096
1.00272
1.00168
1.00094
1.00219
1.00004
1.0003
1.00035
1.00021
1.00006
1.00016
1.00075
1.00018
1.00014
1.00006
1.00061
1
1.00731
1.00492
1.2072
1.00087
1.00035
1.00192
1.002
1.00315
1
1.00023
1.00007
1.00003
1
1
1
1.00095
1.00378
1.00036
1.00113
1
1.00041
1
1
1.00177
1.00399
1.00132
1.00398
1.00059
1
1
1
1
1.00008
1.00007
1.00024
1
1
1
1.00084
1.0003
1
1.00112
1.00026
1.00128
1.00022
1.0014
1.00175
1.00179
1.0012
1.00023
1.00026
1
1.00018
1.00002
1.00018
1.00013
1.00011
1.00019
1.00076
1
1.00015
1.00008
1.00052
1.00003
1.00002
1.00141
1.00169
1
1
1.00025
1
1
1
1.00007
1.00009
1.00195
1.00411
1.00211
1.00276
1.0007
1.00074
1.00118
1.00033
1.00211
1.00175
1.00419
1.00481
1
1
1
1.00041
1
1.0006
1.00088
1.00127
1
1
1
1.00026
1.28242
1.43238
1.00149
1
1.0006
1.00099
1.00083
1.00076
1.00054
1.00361
1
1.00114
1.00095
1
1
1.00292
1
1
1
1.00023
1
1.00012
1.00029
1
1
1.00026
1.00109
1.00431
1.00409
1.00187
1
1.00261
1.00132
1.00183
1.00328
1.00247
1.00252
1
1.00002
1.0002
1.00001
1
1
1.00155
1.00063
1
1.00187
1.00043
1.00223
1.0009
1.00294
1.00393
1.00248
1
1.00196
1.00114
1.00076
1.00023
1.00037
1
1.00203
1.00079
1.00129
1.00139
1.00067
1.00074
1.00118
1.00175
1.00218
1.001
1.00203
1.00338
1.00086
1
1.00064
1
1.00037
1.00224
1.00374
1.00252
1.0014
1.00032
1.00062
1.00051
1.0006
1.00069
1.00088
1.00104
1
1
1.00168
1
1
1.00412
1.00068
1.00736
1.00195
1.00565
1.00496
1.00034
1.00036
1
1.00076
1.00049
1.00001
1
1
1
1.00071
1.00042
1
1
1.00027
1.00042
1.00188
1
1.00264
1.00039
1.00078
1.0008
1.0005
1.00034
1.00029
1.00044
1.00127
1.00144
1.00031
1
1
1
1.00051
1.00131
1.00169
1.0007
1.00117
1.00157
1.00014
1.00205
1
1.00144
1
1.00045
1.0004
1.00166
1
1.00095
1.00178
1.00151
1.00045
1
1.00327
1.0001
1.00146
1.00245
1.00142
1
1.00355
1.00074
1.00014
1
1
1.0009
1.00048
1
1.00166
1
1.00134
1.00016
1.00011
1.00069
1.00011
1.00034
1.00059
1.00063
1.0004
1.00158
1.00104
1.00082
1.00236
1.00263
1
1.00031
1.00074
1.00058
1.00061
1.00035
1
1
1
1
1.00017
1.00009
1.00021
1.00056
1
1
1
1
1.00205
1.00071
1.00091
1.00087
1.00237
1.00033
1.00197
1.00371
1.00315
1.00278
1.00001
1.00027
1
1
1.00025
1.00068
1.00016
1.00026
1.00053
1.00036
1.00065
1.0003
1.00038
1
1.00035
1.00071
1.00066
1.00025
1.00021
1.00069
1.00171
1.00159
1.00011
1
1.00053
1.00078
1
1
1.00013
1.00029
1
1.00009
1
1.00019
1.00014
1.00087
1
1.00113
1
1.00017
1.00027
1.00034
1.00082
1.00085
1
1.00014
1.00051
1.00002
1.00025
1.00037
1.00222
1.00138
1
1.00035
1.00264
1.00112
1.00046
1.00033
1
1
1
1.00086
1.00091
1.00195
1.00179
1.00135
1.00184
1
1.00126
1.00131
1.00699
1.00492