# vtk DataFile Version 2.0
inlet_cyc
ASCII
DATASET POLYDATA
POINTS 202 float
-10 7.5 0 -10 7.35 0 -10 7.35 1 -10 7.5
1 -10 7.2 0 -10 7.2 1 -10 7.05 0
-10 7.05 1 -10 6.9 0 -10 6.9 1 -10
6.75 0 -10 6.75 1 -10 6.6 0 -10 6.6
1 -10 6.45 0 -10 6.45 1 -10 6.3 0
-10 6.3 1 -10 6.15 0 -10 6.15 1 -10
6 0 -10 6 1 -10 5.85 0 -10 5.85
1 -10 5.7 0 -10 5.7 1 -10 5.55 0
-10 5.55 1 -10 5.4 0 -10 5.4 1 -10
5.25 0 -10 5.25 1 -10 5.1 0 -10 5.1
1 -10 4.95 0 -10 4.95 1 -10 4.8 0
-10 4.8 1 -10 4.65 0 -10 4.65 1 -10
4.5 0 -10 4.5 1 -10 4.35 0 -10 4.35
1 -10 4.2 0 -10 4.2 1 -10 4.05 0
-10 4.05 1 -10 3.9 0 -10 3.9 1 -10
3.75 0 -10 3.75 1 -10 3.6 0 -10 3.6
1 -10 3.45 0 -10 3.45 1 -10 3.3 0
-10 3.3 1 -10 3.15 0 -10 3.15 1 -10
3 0 -10 3 1 -10 2.85 0 -10 2.85
1 -10 2.7 0 -10 2.7 1 -10 2.55 0
-10 2.55 1 -10 2.4 0 -10 2.4 1 -10
2.25 0 -10 2.25 1 -10 2.1 0 -10 2.1
1 -10 1.95 0 -10 1.95 1 -10 1.8 0
-10 1.8 1 -10 1.65 0 -10 1.65 1 -10
1.5 0 -10 1.5 1 -10 1.35 0 -10 1.35
1 -10 1.2 0 -10 1.2 1 -10 1.05 0
-10 1.05 1 -10 0.9 0 -10 0.9 1 -10
0.75 0 -10 0.75 1 -10 0.6 0 -10 0.6
1 -10 0.45 0 -10 0.45 1 -10 0.3 0
-10 0.3 1 -10 0.15 0 -10 0.15 1 -10
1.09246e-11 0 -10 1.09246e-11 1 -10 -0.15 0 -10 -0.15
1 -10 -0.3 0 -10 -0.3 1 -10 -0.45 0
-10 -0.45 1 -10 -0.6 0 -10 -0.6 1 -10
-0.75 0 -10 -0.75 1 -10 -0.9 0 -10 -0.9
1 -10 -1.05 0 -10 -1.05 1 -10 -1.2 0
-10 -1.2 1 -10 -1.35 0 -10 -1.35 1 -10
-1.5 0 -10 -1.5 1 -10 -1.65 0 -10 -1.65
1 -10 -1.8 0 -10 -1.8 1 -10 -1.95 0
-10 -1.95 1 -10 -2.1 0 -10 -2.1 1 -10
-2.25 0 -10 -2.25 1 -10 -2.4 0 -10 -2.4
1 -10 -2.55 0 -10 -2.55 1 -10 -2.7 0
-10 -2.7 1 -10 -2.85 0 -10 -2.85 1 -10
-3 0 -10 -3 1 -10 -3.15 0 -10 -3.15
1 -10 -3.3 0 -10 -3.3 1 -10 -3.45 0
-10 -3.45 1 -10 -3.6 0 -10 -3.6 1 -10
-3.75 0 -10 -3.75 1 -10 -3.9 0 -10 -3.9
1 -10 -4.05 0 -10 -4.05 1 -10 -4.2 0
-10 -4.2 1 -10 -4.35 0 -10 -4.35 1 -10
-4.5 0 -10 -4.5 1 -10 -4.65 0 -10 -4.65
1 -10 -4.8 0 -10 -4.8 1 -10 -4.95 0
-10 -4.95 1 -10 -5.1 0 -10 -5.1 1 -10
-5.25 0 -10 -5.25 1 -10 -5.4 0 -10 -5.4
1 -10 -5.55 0 -10 -5.55 1 -10 -5.7 0
-10 -5.7 1 -10 -5.85 0 -10 -5.85 1 -10
-6 0 -10 -6 1 -10 -6.15 0 -10 -6.15
1 -10 -6.3 0 -10 -6.3 1 -10 -6.45 0
-10 -6.45 1 -10 -6.6 0 -10 -6.6 1 -10
-6.75 0 -10 -6.75 1 -10 -6.9 0 -10 -6.9
1 -10 -7.05 0 -10 -7.05 1 -10 -7.2 0
-10 -7.2 1 -10 -7.35 0 -10 -7.35 1 -10
-7.5 0 -10 -7.5 1 
POLYGONS 100 500
4 0 1 2 3 4 1 4 5 2 4
4 6 7 5 4 6 8 9 7 4
8 10 11 9 4 10 12 13 11 4
12 14 15 13 4 14 16 17 15 4
16 18 19 17 4 18 20 21 19 4
20 22 23 21 4 22 24 25 23 4
24 26 27 25 4 26 28 29 27 4
28 30 31 29 4 30 32 33 31 4
32 34 35 33 4 34 36 37 35 4
36 38 39 37 4 38 40 41 39 4
40 42 43 41 4 42 44 45 43 4
44 46 47 45 4 46 48 49 47 4
48 50 51 49 4 50 52 53 51 4
52 54 55 53 4 54 56 57 55 4
56 58 59 57 4 58 60 61 59 4
60 62 63 61 4 62 64 65 63 4
64 66 67 65 4 66 68 69 67 4
68 70 71 69 4 70 72 73 71 4
72 74 75 73 4 74 76 77 75 4
76 78 79 77 4 78 80 81 79 4
80 82 83 81 4 82 84 85 83 4
84 86 87 85 4 86 88 89 87 4
88 90 91 89 4 90 92 93 91 4
92 94 95 93 4 94 96 97 95 4
96 98 99 97 4 98 100 101 99 4
100 102 103 101 4 102 104 105 103 4
104 106 107 105 4 106 108 109 107 4
108 110 111 109 4 110 112 113 111 4
112 114 115 113 4 114 116 117 115 4
116 118 119 117 4 118 120 121 119 4
120 122 123 121 4 122 124 125 123 4
124 126 127 125 4 126 128 129 127 4
128 130 131 129 4 130 132 133 131 4
132 134 135 133 4 134 136 137 135 4
136 138 139 137 4 138 140 141 139 4
140 142 143 141 4 142 144 145 143 4
144 146 147 145 4 146 148 149 147 4
148 150 151 149 4 150 152 153 151 4
152 154 155 153 4 154 156 157 155 4
156 158 159 157 4 158 160 161 159 4
160 162 163 161 4 162 164 165 163 4
164 166 167 165 4 166 168 169 167 4
168 170 171 169 4 170 172 173 171 4
172 174 175 173 4 174 176 177 175 4
176 178 179 177 4 178 180 181 179 4
180 182 183 181 4 182 184 185 183 4
184 186 187 185 4 186 188 189 187 4
188 190 191 189 4 190 192 193 191 4
192 194 195 193 4 194 196 197 195 4
196 198 199 197 4 198 200 201 199 
CELL_DATA 100
FIELD attributes 7
patchID 1 100 float
3 3 3 3 3 3 3 3 3 3 3
3 3 3 3 3 3 3 3 3 3
3 3 3 3 3 3 3 3 3 3
3 3 3 3 3 3 3 3 3 3
3 3 3 3 3 3 3 3 3 3
3 3 3 3 3 3 3 3 3 3
3 3 3 3 3 3 3 3 3 3
3 3 3 3 3 3 3 3 3 3
3 3 3 3 3 3 3 3 3 3
3 3 3 3 3 3 3 3 3 
mag(U) 1 100 float
0.99996 0.999955 0.999951 0.999944 0.999937 0.99993 0.999923 0.999917 0.999915 0.999919 0.999929
0.999952 0.99999 1.00005 1.00013 1.00024 1.00038 1.00056 1.00076 1.001 1.00127
1.00157 1.00189 1.00222 1.00257 1.00291 1.00325 1.00357 1.00387 1.00415 1.00438
1.00458 1.00473 1.00485 1.00491 1.00493 1.00489 1.00482 1.00469 1.00453 1.00433
1.0041 1.00384 1.00356 1.00327 1.00296 1.00265 1.00235 1.00205 1.00177 1.0015
1.00126 1.00103 1.00084 1.00066 1.00052 1.0004 1.0003 1.00022 1.00015 1.0001
1.00006 1.00004 1.00002 0.999998 0.999988 0.999981 0.999976 0.999973 0.99997 0.999969
0.999969 0.999969 0.999969 0.999969 0.999969 0.999969 0.999969 0.99997 0.99997 0.99997
0.99997 0.99997 0.99997 0.99997 0.99997 0.99997 0.99997 0.99997 0.99997 0.99997
0.99997 0.99997 0.999969 0.999969 0.999969 0.999968 0.999967 0.999965 0.999963 
p 1 100 float
0.999986 0.999981 0.999974 0.999967 0.999959 0.999951 0.999942 0.999937 0.999936 0.999942 0.999958
0.999988 1.00004 1.00011 1.00022 1.00034 1.00051 1.00072 1.00096 1.00125 1.00156
1.00191 1.00229 1.00268 1.00308 1.00348 1.00388 1.00426 1.00462 1.00496 1.00526
1.00552 1.00574 1.00591 1.00603 1.0061 1.00612 1.00609 1.00601 1.00588 1.00571
1.0055 1.00525 1.00497 1.00466 1.00434 1.00399 1.00364 1.00328 1.00293 1.00259
1.00225 1.00195 1.00166 1.00141 1.00117 1.00096 1.00079 1.00064 1.00051 1.0004
1.00031 1.00024 1.00019 1.00014 1.00011 1.00008 1.00006 1.00004 1.00003 1.00002
1.00001 1.00001 1.00001 1 1 1 1 1 1 1
1 1 1 1 1 1 1 1 1 1
1 1 0.999999 0.999999 0.999999 0.999997 0.999996 0.999994 0.99999 
T 1 100 float
1 1 1 1 1 1 1 1 1 1 1
1 1 1 1 1 1 1 1 1 1
1 1 1 1 1 1 1 1 1 1
1 1 1.00001 1.00001 1.00001 1.00001 1.00001 1.00001 1.00001 1
1 1 1 1 1 1 1 1 1 1
1 1 1 1 1 1 1 1 1 1
1 1 1 1 1 1 1 1 1 1
1 1 1 1 1 1 1 1 1 1
1 1 1 1 1 1 1 1 1 1
1 1 1 1 1 1 1 1 1 
e 1 100 float
1006.29 1006.29 1006.29 1006.29 1006.29 1006.29 1006.29 1006.29 1006.29 1006.29 1006.29
1006.29 1006.29 1006.29 1006.29 1006.29 1006.29 1006.29 1006.29 1006.29 1006.29
1006.29 1006.29 1006.29 1006.29 1006.29 1006.29 1006.29 1006.29 1006.29 1006.29
1006.29 1006.29 1006.29 1006.29 1006.29 1006.29 1006.29 1006.29 1006.29 1006.29
1006.29 1006.29 1006.29 1006.29 1006.29 1006.29 1006.29 1006.29 1006.29 1006.29
1006.29 1006.29 1006.29 1006.29 1006.29 1006.29 1006.29 1006.29 1006.29 1006.29
1006.29 1006.29 1006.29 1006.29 1006.29 1006.29 1006.29 1006.29 1006.29 1006.29
1006.29 1006.29 1006.29 1006.29 1006.29 1006.29 1006.29 1006.29 1006.29 1006.29
1006.29 1006.29 1006.29 1006.29 1006.29 1006.29 1006.29 1006.29 1006.29 1006.29
1006.29 1006.29 1006.29 1006.29 1006.29 1006.29 1006.29 1006.29 1006.29 
rho 1 100 float
1.39998 1.39998 1.39997 1.39996 1.39995 1.39994 1.39992 1.39991 1.39991 1.39992 1.39995
1.39999 1.40006 1.40016 1.4003 1.40049 1.40073 1.40102 1.40136 1.40175 1.40219
1.40268 1.4032 1.40374 1.4043 1.40487 1.40543 1.40596 1.40647 1.40695 1.40736
1.40773 1.40804 1.40828 1.40845 1.40855 1.40858 1.40852 1.40841 1.40823 1.40799
1.4077 1.40735 1.40696 1.40653 1.40606 1.40558 1.40509 1.40459 1.4041 1.40362
1.40316 1.40273 1.40234 1.40197 1.40164 1.40136 1.40111 1.4009 1.40072 1.40057
1.40045 1.40035 1.40027 1.40021 1.40015 1.40012 1.40008 1.40006 1.40005 1.40004
1.40003 1.40002 1.40001 1.40001 1.40001 1.40001 1.40001 1.40001 1.40001 1.4
1.4 1.4 1.4 1.4 1.40001 1.4 1.40001 1.4 1.40001 1.4
1.4 1.4 1.4 1.4 1.4 1.4 1.4 1.39999 1.39999 
U 3 100 float
0.894395 0.447188 0 0.894392 0.447184 0 0.894389 0.447179 0 0.894385 0.447173
0 0.894381 0.447167 0 0.894376 0.447159 0 0.894371 0.447153 0
0.894368 0.447147 0 0.894367 0.447145 0 0.89437 0.447145 0 0.894379
0.447152 0 0.894399 0.447165 0 0.894431 0.447188 0 0.894479 0.447221
0 0.894548 0.447266 0 0.894642 0.447325 0 0.894764 0.447396 0
0.894916 0.447478 0 0.895101 0.44757 0 0.89532 0.447669 0 0.895571
0.447773 0 0.895851 0.447875 0 0.896159 0.447973 0 0.896488 0.448063
0 0.896834 0.448139 0 0.897188 0.448198 0 0.897546 0.448239 0
0.897897 0.448257 0 0.898235 0.448252 0 0.898553 0.448224 0 0.898847
0.448171 0 0.899106 0.448096 0 0.899328 0.448 0 0.899509 0.447885
0 0.899646 0.447754 0 0.899733 0.447612 0 0.899773 0.447461 0
0.899763 0.447306 0 0.899704 0.44715 0 0.899598 0.446998 0 0.899448
0.446853 0 0.899256 0.446719 0 0.899026 0.4466 0 0.898764 0.446498
0 0.898476 0.446414 0 0.898167 0.446351 0 0.897844 0.446308 0
0.897514 0.446287 0 0.897182 0.446285 0 0.896856 0.446303 0 0.896541
0.446337 0 0.896244 0.446384 0 0.895967 0.446443 0 0.895715 0.446508
0 0.895489 0.446579 0 0.89529 0.44665 0 0.895118 0.44672 0
0.894972 0.446788 0 0.89485 0.446851 0 0.89475 0.446907 0 0.894669
0.446959 0 0.894604 0.447003 0 0.894553 0.447042 0 0.894512 0.447074
0 0.894482 0.447102 0 0.894459 0.447124 0 0.894441 0.447142 0
0.894428 0.447157 0 0.894419 0.447168 0 0.894413 0.447177 0 0.894408
0.447183 0 0.894405 0.447189 0 0.894403 0.447192 0 0.894402 0.447196
0 0.894401 0.447197 0 0.8944 0.447198 0 0.8944 0.447199 0
0.8944 0.447199 0 0.8944 0.4472 0 0.8944 0.4472 0 0.8944
0.4472 0 0.8944 0.4472 0 0.8944 0.4472 0 0.8944 0.4472
0 0.8944 0.4472 0 0.8944 0.4472 0 0.8944 0.4472 0
0.8944 0.4472 0 0.8944 0.4472 0 0.8944 0.4472 0 0.8944
0.4472 0 0.8944 0.4472 0 0.8944 0.4472 0 0.8944 0.447199
0 0.8944 0.447199 0 0.8944 0.447199 0 0.894399 0.447197 0
0.894399 0.447196 0 0.894398 0.447194 0 0.894396 0.447192 0 
POINT_DATA  202
FIELD attributes 6
mag(U) 1 202 float
0.99996 0.999958 0.999958 0.99996 0.999953 0.999953 0.999947 0.999947 0.999941 0.999941 0.999933
0.999933 0.999926 0.999926 0.99992 0.99992 0.999916 0.999916 0.999916 0.999916 0.999924
0.999924 0.999941 0.999941 0.999971 0.999971 1.00002 1.00002 1.00009 1.00009 1.00019
1.00019 1.00031 1.00031 1.00047 1.00047 1.00066 1.00066 1.00088 1.00088 1.00114
1.00114 1.00142 1.00142 1.00173 1.00173 1.00206 1.00206 1.00239 1.00239 1.00274
1.00274 1.00308 1.00308 1.00341 1.00341 1.00372 1.00372 1.00401 1.00401 1.00426
1.00426 1.00448 1.00448 1.00466 1.00466 1.00479 1.00479 1.00488 1.00488 1.00492
1.00492 1.00491 1.00491 1.00486 1.00486 1.00476 1.00476 1.00461 1.00461 1.00443
1.00443 1.00422 1.00422 1.00398 1.00398 1.0037 1.0037 1.00341 1.00341 1.00312
1.00312 1.0028 1.0028 1.0025 1.0025 1.0022 1.0022 1.00191 1.00191 1.00163
1.00163 1.00138 1.00138 1.00115 1.00115 1.00094 1.00094 1.00075 1.00075 1.00059
1.00059 1.00046 1.00046 1.00035 1.00035 1.00026 1.00026 1.00018 1.00018 1.00013
1.00013 1.00008 1.00008 1.00005 1.00005 1.00003 1.00003 1.00001 1.00001 0.999993
0.999993 0.999985 0.999985 0.999978 0.999978 0.999974 0.999974 0.999972 0.999972 0.99997
0.99997 0.999969 0.999969 0.999969 0.999969 0.999969 0.999969 0.999969 0.999969 0.999969
0.999969 0.999969 0.999969 0.999969 0.999969 0.99997 0.99997 0.99997 0.99997 0.99997
0.99997 0.99997 0.99997 0.99997 0.99997 0.99997 0.99997 0.99997 0.99997 0.99997
0.99997 0.99997 0.99997 0.99997 0.99997 0.99997 0.99997 0.99997 0.99997 0.99997
0.99997 0.99997 0.99997 0.99997 0.99997 0.999969 0.999969 0.999969 0.999969 0.999969
0.999969 0.999968 0.999968 0.999967 0.999967 0.999966 0.999966 0.999964 0.999964 0.999963
0.999963 
p 1 202 float
0.999986 0.999983 0.999983 0.999986 0.999978 0.999978 0.999971 0.999971 0.999963 0.999963 0.999955
0.999955 0.999946 0.999946 0.99994 0.99994 0.999936 0.999936 0.999938 0.999938 0.99995
0.99995 0.999973 0.999973 1.00001 1.00001 1.00007 1.00007 1.00016 1.00016 1.00028
1.00028 1.00043 1.00043 1.00062 1.00062 1.00084 1.00084 1.00111 1.00111 1.00141
1.00141 1.00174 1.00174 1.0021 1.0021 1.00248 1.00248 1.00287 1.00287 1.00328
1.00328 1.00368 1.00368 1.00407 1.00407 1.00444 1.00444 1.00479 1.00479 1.00511
1.00511 1.00539 1.00539 1.00563 1.00563 1.00583 1.00583 1.00597 1.00597 1.00607
1.00607 1.00611 1.00611 1.0061 1.0061 1.00605 1.00605 1.00594 1.00594 1.0058
1.0058 1.0056 1.0056 1.00538 1.00538 1.00511 1.00511 1.00481 1.00481 1.0045
1.0045 1.00416 1.00416 1.00381 1.00381 1.00346 1.00346 1.0031 1.0031 1.00276
1.00276 1.00242 1.00242 1.0021 1.0021 1.00181 1.00181 1.00154 1.00154 1.00129
1.00129 1.00107 1.00107 1.00088 1.00088 1.00072 1.00072 1.00058 1.00058 1.00046
1.00046 1.00036 1.00036 1.00028 1.00028 1.00022 1.00022 1.00017 1.00017 1.00013
1.00013 1.00009 1.00009 1.00007 1.00007 1.00005 1.00005 1.00003 1.00003 1.00002
1.00002 1.00002 1.00002 1.00001 1.00001 1.00001 1.00001 1 1 1
1 1 1 1 1 1 1 1 1 1
1 1 1 1 1 1 1 1 1 1
1 1 1 1 1 1 1 1 1 1
1 1 1 1 1 1 1 0.999999 0.999999 0.999999
0.999999 0.999998 0.999998 0.999996 0.999996 0.999995 0.999995 0.999992 0.999992 0.99999
0.99999 
T 1 202 float
1 1 1 1 1 1 1 1 1 1 1
1 1 1 1 1 1 1 1 1 1
1 1 1 1 1 1 1 1 1 1
1 1 1 1 1 1 1 1 1 1
1 1 1 1 1 1 1 1 1 1
1 1 1 1 1 1 1 1 1 1
1 1 1 1 1 1 1 1.00001 1.00001 1.00001
1.00001 1.00001 1.00001 1.00001 1.00001 1.00001 1.00001 1.00001 1.00001 1
1 1 1 1 1 1 1 1 1 1
1 1 1 1 1 1 1 1 1 1
1 1 1 1 1 1 1 1 1 1
1 1 1 1 1 1 1 1 1 1
1 1 1 1 1 1 1 1 1 1
1 1 1 1 1 1 1 1 1 1
1 1 1 1 1 1 1 1 1 1
1 1 1 1 1 1 1 1 1 1
1 1 1 1 1 1 1 1 1 1
1 1 1 1 1 1 1 1 1 1
1 1 1 1 1 1 1 1 1 1
1 1 1 1 1 1 1 1 1 1
1 
e 1 202 float
1006.29 1006.29 1006.29 1006.29 1006.29 1006.29 1006.29 1006.29 1006.29 1006.29 1006.29
1006.29 1006.29 1006.29 1006.29 1006.29 1006.29 1006.29 1006.29 1006.29 1006.29
1006.29 1006.29 1006.29 1006.29 1006.29 1006.29 1006.29 1006.29 1006.29 1006.29
1006.29 1006.29 1006.29 1006.29 1006.29 1006.29 1006.29 1006.29 1006.29 1006.29
1006.29 1006.29 1006.29 1006.29 1006.29 1006.29 1006.29 1006.29 1006.29 1006.29
1006.29 1006.29 1006.29 1006.29 1006.29 1006.29 1006.29 1006.29 1006.29 1006.29
1006.29 1006.29 1006.29 1006.29 1006.29 1006.29 1006.29 1006.29 1006.29 1006.29
1006.29 1006.29 1006.29 1006.29 1006.29 1006.29 1006.29 1006.29 1006.29 1006.29
1006.29 1006.29 1006.29 1006.29 1006.29 1006.29 1006.29 1006.29 1006.29 1006.29
1006.29 1006.29 1006.29 1006.29 1006.29 1006.29 1006.29 1006.29 1006.29 1006.29
1006.29 1006.29 1006.29 1006.29 1006.29 1006.29 1006.29 1006.29 1006.29 1006.29
1006.29 1006.29 1006.29 1006.29 1006.29 1006.29 1006.29 1006.29 1006.29 1006.29
1006.29 1006.29 1006.29 1006.29 1006.29 1006.29 1006.29 1006.29 1006.29 1006.29
1006.29 1006.29 1006.29 1006.29 1006.29 1006.29 1006.29 1006.29 1006.29 1006.29
1006.29 1006.29 1006.29 1006.29 1006.29 1006.29 1006.29 1006.29 1006.29 1006.29
1006.29 1006.29 1006.29 1006.29 1006.29 1006.29 1006.29 1006.29 1006.29 1006.29
1006.29 1006.29 1006.29 1006.29 1006.29 1006.29 1006.29 1006.29 1006.29 1006.29
1006.29 1006.29 1006.29 1006.29 1006.29 1006.29 1006.29 1006.29 1006.29 1006.29
1006.29 1006.29 1006.29 1006.29 1006.29 1006.29 1006.29 1006.29 1006.29 1006.29
1006.29 1006.29 1006.29 1006.29 1006.29 1006.29 1006.29 1006.29 1006.29 1006.29
1006.29 
rho 1 202 float
1.39998 1.39998 1.39998 1.39998 1.39997 1.39997 1.39997 1.39997 1.39995 1.39995 1.39994
1.39994 1.39993 1.39993 1.39992 1.39992 1.39991 1.39991 1.39992 1.39992 1.39993
1.39993 1.39997 1.39997 1.40003 1.40003 1.40011 1.40011 1.40023 1.40023 1.4004
1.4004 1.40061 1.40061 1.40087 1.40087 1.40119 1.40119 1.40155 1.40155 1.40197
1.40197 1.40243 1.40243 1.40294 1.40294 1.40347 1.40347 1.40402 1.40402 1.40459
1.40459 1.40515 1.40515 1.4057 1.4057 1.40622 1.40622 1.40671 1.40671 1.40716
1.40716 1.40755 1.40755 1.40788 1.40788 1.40815 1.40815 1.40836 1.40836 1.40849
1.40849 1.40856 1.40856 1.40855 1.40855 1.40847 1.40847 1.40832 1.40832 1.40812
1.40812 1.40785 1.40785 1.40752 1.40752 1.40715 1.40715 1.40674 1.40674 1.40629
1.40629 1.40582 1.40582 1.40533 1.40533 1.40484 1.40484 1.40435 1.40435 1.40386
1.40386 1.40339 1.40339 1.40295 1.40295 1.40253 1.40253 1.40215 1.40215 1.40181
1.40181 1.4015 1.4015 1.40123 1.40123 1.40101 1.40101 1.40081 1.40081 1.40065
1.40065 1.40051 1.40051 1.4004 1.4004 1.40031 1.40031 1.40024 1.40024 1.40018
1.40018 1.40014 1.40014 1.4001 1.4001 1.40007 1.40007 1.40005 1.40005 1.40004
1.40004 1.40003 1.40003 1.40002 1.40002 1.40001 1.40001 1.40001 1.40001 1.40001
1.40001 1.40001 1.40001 1.40001 1.40001 1.40001 1.40001 1.40001 1.40001 1.40001
1.40001 1.4 1.4 1.4 1.4 1.4 1.4 1.4 1.4 1.40001
1.40001 1.40001 1.40001 1.40001 1.40001 1.40001 1.40001 1.40001 1.40001 1.4
1.4 1.4 1.4 1.4 1.4 1.4 1.4 1.4 1.4 1.4
1.4 1.4 1.4 1.4 1.4 1.4 1.4 1.39999 1.39999 1.39999
1.39999 
U 3 202 float
0.894395 0.447188 0 0.894394 0.447186 0 0.894394 0.447186 0 0.894395 0.447188
0 0.894391 0.447182 0 0.894391 0.447182 0 0.894387 0.447176 0
0.894387 0.447176 0 0.894383 0.44717 0 0.894383 0.44717 0 0.894378
0.447163 0 0.894378 0.447163 0 0.894373 0.447156 0 0.894373 0.447156
0 0.894369 0.44715 0 0.894369 0.44715 0 0.894367 0.447146 0
0.894367 0.447146 0 0.894368 0.447145 0 0.894368 0.447145 0 0.894375
0.447149 0 0.894375 0.447149 0 0.894389 0.447158 0 0.894389 0.447158
0 0.894415 0.447176 0 0.894415 0.447176 0 0.894455 0.447205 0
0.894455 0.447205 0 0.894514 0.447244 0 0.894514 0.447244 0 0.894596
0.447295 0 0.894596 0.447295 0 0.894703 0.44736 0 0.894703 0.44736
0 0.89484 0.447437 0 0.89484 0.447437 0 0.895009 0.447524 0
0.895009 0.447524 0 0.895211 0.447619 0 0.895211 0.447619 0 0.895446
0.447721 0 0.895446 0.447721 0 0.895711 0.447824 0 0.895711 0.447824
0 0.896005 0.447924 0 0.896005 0.447924 0 0.896324 0.448018 0
0.896324 0.448018 0 0.896661 0.448101 0 0.896661 0.448101 0 0.897011
0.448168 0 0.897011 0.448168 0 0.897367 0.448218 0 0.897367 0.448218
0 0.897721 0.448248 0 0.897721 0.448248 0 0.898066 0.448254 0
0.898066 0.448254 0 0.898394 0.448238 0 0.898394 0.448238 0 0.8987
0.448197 0 0.8987 0.448197 0 0.898976 0.448133 0 0.898976 0.448133
0 0.899217 0.448047 0 0.899217 0.448047 0 0.899419 0.447942 0
0.899419 0.447942 0 0.899577 0.447819 0 0.899577 0.447819 0 0.899689
0.447683 0 0.899689 0.447683 0 0.899753 0.447536 0 0.899753 0.447536
0 0.899768 0.447383 0 0.899768 0.447383 0 0.899733 0.447228 0
0.899733 0.447228 0 0.899651 0.447074 0 0.899651 0.447074 0 0.899523
0.446926 0 0.899523 0.446926 0 0.899351 0.446786 0 0.899351 0.446786
0 0.899141 0.44666 0 0.899141 0.44666 0 0.898895 0.446549 0
0.898895 0.446549 0 0.89862 0.446456 0 0.89862 0.446456 0 0.898322
0.446382 0 0.898322 0.446382 0 0.898005 0.44633 0 0.898005 0.44633
0 0.897679 0.446298 0 0.897679 0.446298 0 0.897348 0.446286 0
0.897348 0.446286 0 0.897019 0.446294 0 0.897019 0.446294 0 0.896699
0.44632 0 0.896699 0.44632 0 0.896393 0.446361 0 0.896393 0.446361
0 0.896106 0.446413 0 0.896106 0.446413 0 0.895841 0.446475 0
0.895841 0.446475 0 0.895602 0.446543 0 0.895602 0.446543 0 0.895389
0.446614 0 0.895389 0.446614 0 0.895204 0.446685 0 0.895204 0.446685
0 0.895045 0.446754 0 0.895045 0.446754 0 0.894911 0.446819 0
0.894911 0.446819 0 0.8948 0.446879 0 0.8948 0.446879 0 0.894709
0.446933 0 0.894709 0.446933 0 0.894636 0.446981 0 0.894636 0.446981
0 0.894578 0.447022 0 0.894578 0.447022 0 0.894533 0.447058 0
0.894533 0.447058 0 0.894497 0.447088 0 0.894497 0.447088 0 0.894471
0.447113 0 0.894471 0.447113 0 0.89445 0.447133 0 0.89445 0.447133
0 0.894435 0.447149 0 0.894435 0.447149 0 0.894424 0.447163 0
0.894424 0.447163 0 0.894416 0.447173 0 0.894416 0.447173 0 0.89441
0.447181 0 0.89441 0.447181 0 0.894406 0.447186 0 0.894406 0.447186
0 0.894404 0.447191 0 0.894404 0.447191 0 0.894403 0.447194 0
0.894403 0.447194 0 0.894401 0.447196 0 0.894401 0.447196 0 0.8944
0.447197 0 0.8944 0.447197 0 0.8944 0.447199 0 0.8944 0.447199
0 0.8944 0.447199 0 0.8944 0.447199 0 0.8944 0.4472 0
0.8944 0.4472 0 0.8944 0.4472 0 0.8944 0.4472 0 0.8944
0.4472 0 0.8944 0.4472 0 0.8944 0.4472 0 0.8944 0.4472
0 0.8944 0.4472 0 0.8944 0.4472 0 0.8944 0.4472 0
0.8944 0.4472 0 0.8944 0.4472 0 0.8944 0.4472 0 0.8944
0.4472 0 0.8944 0.4472 0 0.8944 0.4472 0 0.8944 0.4472
0 0.8944 0.4472 0 0.8944 0.4472 0 0.8944 0.4472 0
0.8944 0.4472 0 0.8944 0.4472 0 0.8944 0.4472 0 0.8944
0.4472 0 0.8944 0.4472 0 0.8944 0.4472 0 0.8944 0.4472
0 0.8944 0.4472 0 0.8944 0.4472 0 0.8944 0.447199 0
0.8944 0.447199 0 0.8944 0.447199 0 0.8944 0.447199 0 0.8944
0.447199 0 0.8944 0.447199 0 0.8944 0.447198 0 0.8944 0.447198
0 0.894399 0.447197 0 0.894399 0.447197 0 0.894399 0.447195 0
0.894399 0.447195 0 0.894397 0.447193 0 0.894397 0.447193 0 0.894396
0.447192 0 0.894396 0.447192 0 
