/*--------------------------------*- C++ -*----------------------------------*\
  =========                 |
  \\      /  F ield         | OpenFOAM: The Open Source CFD Toolbox
   \\    /   O peration     | Website:  https://openfoam.org
    \\  /    A nd           | Version:  6
     \\/     M anipulation  |
\*---------------------------------------------------------------------------*/
FoamFile
{
    version     2.0;
    format      ascii;
    class       volVectorField;
    location    "1.69";
    object      U;
}
// * * * * * * * * * * * * * * * * * * * * * * * * * * * * * * * * * * * * * //

dimensions      [0 1 -1 0 0 0 0];

internalField   nonuniform List<vector> 
4214
(
(4.94901 -0.0347511 -1.56016e-19)
(4.99577 -0.00204946 5.17351e-20)
(5.00342 0.0284037 -3.22361e-20)
(5.00388 0.0543324 2.06326e-20)
(5.01052 0.0789659 -1.99244e-20)
(5.02385 0.103049 2.21397e-20)
(5.03794 0.125588 0)
(5.04424 0.145851 -2.04462e-21)
(5.04342 0.16327 3.85765e-21)
(5.03605 0.176924 -4.25534e-21)
(5.02416 0.186087 1.13589e-21)
(5.00924 0.189897 -4.50147e-21)
(4.99148 0.186681 3.58031e-21)
(4.97076 0.173792 0)
(4.9484 0.148239 0)
(4.92939 0.108281 -1.31376e-20)
(4.92489 0.0567929 1.86118e-20)
(4.94684 4.44586e-05 -4.3923e-21)
(5.00279 -0.0452863 -6.97502e-21)
(5.0728 -0.0702127 -1.68736e-21)
(5.13429 -0.0697015 0)
(5.14242 -0.0662444 -7.82915e-21)
(5.10385 -0.0694357 3.50476e-21)
(5.03531 -0.0748658 0)
(4.98509 -0.0908435 0)
(4.96933 -0.110907 2.89686e-21)
(4.97788 -0.129598 9.42801e-21)
(4.99399 -0.144283 -1.13965e-20)
(5.00723 -0.152828 -1.12575e-21)
(5.01679 -0.155503 -2.93442e-21)
(5.02466 -0.152934 2.85419e-21)
(5.03188 -0.144819 1.43689e-20)
(5.03729 -0.132058 6.90081e-21)
(5.03826 -0.115888 -2.11882e-20)
(5.03051 -0.0967135 -1.37929e-22)
(5.01192 -0.0747388 -3.51412e-20)
(4.9921 -0.0514954 3.55336e-20)
(4.97907 -0.0290352 4.57431e-20)
(4.97312 -0.00566372 1.32782e-20)
(4.96334 0.0227975 -1.1468e-19)
(4.91645 0.0497537 6.49645e-20)
(5.0545 0.00711672 1.9766e-20)
(5.04551 0.0395903 1.31042e-20)
(5.03326 0.0653029 -2.21674e-20)
(5.03112 0.0874266 3.99065e-20)
(5.04209 0.110531 0)
(5.0556 0.133473 2.64506e-20)
(5.06012 0.154146 -3.8587e-20)
(5.05691 0.171673 2.07668e-20)
(5.04645 0.185616 1.73699e-21)
(5.03116 0.195519 2.67755e-21)
(5.01332 0.200879 -2.53213e-21)
(4.99297 0.200679 -2.73125e-22)
(4.96881 0.192877 -1.27449e-21)
(4.94043 0.174969 3.26646e-21)
(4.91072 0.145444 0)
(4.88768 0.104929 0)
(4.88469 0.0576571 0)
(4.91515 0.00724946 1.51619e-20)
(4.98313 -0.0340529 -4.33851e-21)
(5.06751 -0.0692449 -1.65767e-21)
(5.13558 -0.0775882 0)
(5.14502 -0.0969126 -4.4461e-21)
(5.11255 -0.120504 2.47012e-20)
(5.04558 -0.126822 0)
(4.97735 -0.132053 0)
(4.94713 -0.142543 -3.06039e-21)
(4.94335 -0.156576 2.63437e-21)
(4.96173 -0.169788 0)
(4.98602 -0.179305 1.17382e-21)
(5.00751 -0.183789 4.64206e-21)
(5.02529 -0.183175 -1.1526e-20)
(5.04161 -0.177458 5.10039e-21)
(5.05773 -0.167191 0)
(5.07026 -0.153001 3.62397e-20)
(5.07759 -0.13479 7.86888e-21)
(5.07243 -0.112701 -4.2195e-20)
(5.0523 -0.0884137 0)
(5.0312 -0.0655661 6.67479e-20)
(5.02182 -0.0439326 -1.43343e-19)
(5.02087 -0.0134022 6.77582e-20)
(5.02223 0.0188224 0)
(5.0594 0.0337562 6.68595e-20)
(5.04008 0.0593801 -2.52345e-20)
(5.04039 0.0835195 2.9077e-20)
(5.04802 0.106787 1.41089e-20)
(5.05937 0.130017 -4.31142e-20)
(5.06595 0.151483 -3.75623e-20)
(5.06381 0.170057 3.3896e-20)
(5.05443 0.185417 6.17658e-21)
(5.03976 0.197217 2.79449e-22)
(5.02241 0.205127 -1.7572e-21)
(5.00256 0.208532 1.86306e-21)
(4.97904 0.206148 2.27323e-22)
(4.95086 0.19608 1.03062e-21)
(4.91898 0.176806 -2.62199e-20)
(4.88808 0.148438 3.79659e-20)
(4.86707 0.113042 -1.92523e-20)
(4.86822 0.0742594 1.94607e-20)
(4.90198 0.0326163 -3.89787e-20)
(4.96912 -0.00431562 -1.71439e-20)
(5.05345 -0.0437542 -1.05474e-20)
(5.12259 -0.0624159 -5.3752e-21)
(5.12014 -0.0985396 0)
(5.1035 -0.138714 -9.60638e-20)
(5.05816 -0.154386 -2.08905e-20)
(4.9939 -0.160093 3.92207e-20)
(4.94943 -0.166272 2.05492e-20)
(4.93603 -0.175763 -1.71157e-20)
(4.9465 -0.186173 0)
(4.96924 -0.195864 9.63868e-21)
(4.99418 -0.202031 2.53342e-20)
(5.01662 -0.20373 -2.35425e-20)
(5.03676 -0.200589 -1.03537e-21)
(5.05599 -0.192179 -1.78364e-21)
(5.07424 -0.179045 -1.20624e-21)
(5.08838 -0.162407 6.90864e-20)
(5.09328 -0.142412 -6.81577e-20)
(5.08407 -0.118923 0)
(5.06384 -0.0940662 0)
(5.04452 -0.0686845 0)
(5.0329 -0.0346626 8.53809e-20)
(5.0377 -0.00304827 2.62842e-20)
(5.06537 0.0590195 0)
(5.05909 0.0820112 -9.85383e-21)
(5.06417 0.107109 -2.88644e-20)
(5.07222 0.130663 2.43737e-20)
(5.07752 0.152435 0)
(5.07567 0.171839 0)
(5.06624 0.188278 0)
(5.05098 0.201396 -1.60427e-20)
(5.03257 0.211002 8.75973e-21)
(5.01178 0.216767 -1.25192e-21)
(4.98779 0.217931 1.31795e-21)
(4.95935 0.213227 0)
(4.92629 0.201355 -2.59486e-20)
(4.89117 0.18205 2.57815e-20)
(4.86007 0.157029 -1.68e-20)
(4.84197 0.129217 2.0442e-20)
(4.84706 0.100722 0)
(4.88258 0.068723 0)
(4.94735 0.0365323 -3.0917e-20)
(5.02891 -0.00419032 9.22489e-20)
(5.09071 -0.0350853 0)
(5.07973 -0.0855131 8.6125e-20)
(5.07637 -0.13972 1.43077e-19)
(5.05727 -0.169522 0)
(5.00569 -0.181401 0)
(4.95629 -0.187705 -2.1864e-20)
(4.93184 -0.195444 1.81518e-20)
(4.93073 -0.205663 -6.07599e-20)
(4.94923 -0.216231 4.74487e-20)
(4.97636 -0.224891 0)
(5.00468 -0.229839 2.5764e-21)
(5.03118 -0.229902 8.39023e-22)
(5.05586 -0.224432 5.1113e-21)
(5.07941 -0.213569 0)
(5.10093 -0.198246 0)
(5.11651 -0.179394 0)
(5.12022 -0.157206 0)
(5.10903 -0.132326 -9.16138e-21)
(5.08834 -0.104799 0)
(5.06737 -0.0668036 1.56754e-20)
(5.06282 -0.0282535 -2.0432e-20)
(5.07882 0.0820812 0)
(5.07863 0.106186 -1.29657e-21)
(5.08654 0.131693 1.49382e-19)
(5.09106 0.154369 0)
(5.08837 0.174293 -2.70984e-20)
(5.07848 0.191563 3.80223e-20)
(5.06271 0.205817 -8.88123e-20)
(5.0433 0.216753 3.20572e-20)
(5.02161 0.224297 0)
(4.99723 0.228091 -5.57992e-21)
(4.96894 0.227371 6.60533e-21)
(4.93592 0.221231 6.72538e-21)
(4.89941 0.209236 0)
(4.86367 0.192419 -2.57648e-20)
(4.83539 0.173702 1.81735e-20)
(4.82204 0.155932 -7.57434e-20)
(4.83017 0.138895 7.19958e-20)
(4.8633 0.116527 -9.58166e-20)
(4.91994 0.0888557 -2.52031e-20)
(4.99165 0.0452015 -8.55848e-20)
(5.04369 0.00498991 0)
(5.02011 -0.054792 -2.14448e-19)
(5.02446 -0.119621 -8.961e-20)
(5.03591 -0.165429 -1.11626e-19)
(5.00905 -0.188098 0)
(4.96519 -0.200155 -1.46883e-19)
(4.9316 -0.210224 1.77318e-20)
(4.91988 -0.222522 8.04706e-20)
(4.92947 -0.235596 8.80329e-20)
(4.95373 -0.24785 3.23194e-20)
(4.98486 -0.257213 3.69629e-20)
(5.01723 -0.261835 -3.62062e-20)
(5.04844 -0.260412 -9.50437e-22)
(5.07785 -0.252599 -6.86636e-20)
(5.1052 -0.239156 -3.18569e-20)
(5.12875 -0.221245 -2.83142e-20)
(5.14424 -0.199637 1.2745e-19)
(5.14631 -0.174925 1.86389e-19)
(5.1333 -0.146746 -1.6899e-19)
(5.11009 -0.109137 3.92828e-19)
(5.09531 -0.0603983 8.14484e-20)
(5.0986 0.107744 1.98827e-19)
(5.10372 0.132443 0)
(5.10883 0.157638 -1.54061e-19)
(5.10529 0.17879 0)
(5.09352 0.196557 2.69693e-20)
(5.07633 0.211524 5.97074e-20)
(5.05576 0.223512 1.39808e-21)
(5.03277 0.232324 -3.95818e-20)
(5.0075 0.237948 1.20946e-20)
(4.97898 0.240091 -6.38468e-22)
(4.94612 0.238217 -3.20579e-21)
(4.9092 0.231991 -1.70358e-20)
(4.87116 0.221866 -5.65124e-20)
(4.83741 0.209894 2.9032e-20)
(4.81398 0.199476 -5.34039e-20)
(4.80536 0.192437 1.3782e-19)
(4.81386 0.186191 -1.06543e-19)
(4.8399 0.17222 1.5678e-19)
(4.88323 0.148192 -3.05374e-20)
(4.94023 0.101828 0)
(4.98036 0.0544539 -1.89932e-20)
(4.94273 -0.0120984 1.11314e-19)
(4.94662 -0.0834004 3.4709e-20)
(4.98412 -0.143389 1.37773e-19)
(4.99102 -0.179429 1.23909e-19)
(4.96349 -0.202315 0)
(4.92925 -0.21952 -1.04603e-19)
(4.90889 -0.237172 -6.49203e-20)
(4.90907 -0.255547 9.98165e-20)
(4.92737 -0.273269 -1.28442e-19)
(4.9582 -0.28833 0)
(4.99533 -0.298557 0)
(5.03389 -0.302127 -2.54691e-21)
(5.07103 -0.298186 -7.74461e-21)
(5.10565 -0.287173 0)
(5.13663 -0.270276 -9.36735e-21)
(5.16161 -0.248609 3.04829e-22)
(5.17667 -0.223664 -5.57014e-21)
(5.17724 -0.194715 -1.45135e-20)
(5.16142 -0.159374 -2.526e-20)
(5.13744 -0.103233 3.08659e-20)
(5.12565 0.136296 -2.38424e-20)
(5.1284 0.161518 -1.01153e-20)
(5.12531 0.185409 -8.16959e-21)
(5.11209 0.204187 6.97147e-20)
(5.09242 0.21942 2.7411e-20)
(5.06973 0.231943 -2.2035e-20)
(5.04523 0.241616 -1.87808e-20)
(5.01876 0.248354 2.08818e-20)
(4.98962 0.252317 2.36489e-21)
(4.95686 0.253448 -1.43909e-21)
(4.92011 0.251627 -1.61088e-21)
(4.88111 0.247085 8.21171e-20)
(4.8442 0.240917 -5.97979e-20)
(4.81494 0.235628 0)
(4.79741 0.23426 1.18002e-19)
(4.79215 0.237176 -4.39867e-20)
(4.79735 0.239957 1.47464e-19)
(4.81135 0.232668 7.25635e-20)
(4.8363 0.211662 1.55642e-19)
(4.87403 0.162957 -1.79417e-19)
(4.9 0.109926 -4.81421e-20)
(4.84893 0.0373132 -1.44044e-19)
(4.84529 -0.0381253 -4.65038e-20)
(4.90143 -0.10915 -1.63184e-19)
(4.94238 -0.158599 -1.6137e-19)
(4.94141 -0.195351 2.90662e-19)
(4.91598 -0.224416 -1.89573e-20)
(4.89271 -0.25099 0)
(4.88552 -0.277607 0)
(4.89701 -0.303327 0)
(4.92506 -0.326008 4.28163e-20)
(4.96503 -0.343176 0)
(5.01079 -0.352622 0)
(5.05716 -0.353093 -9.6036e-20)
(5.101 -0.344765 2.54342e-19)
(5.14053 -0.328773 -1.0829e-19)
(5.17419 -0.306556 0)
(5.19997 -0.280341 0)
(5.21371 -0.249367 1.46931e-20)
(5.21252 -0.216006 5.4123e-19)
(5.18817 -0.155069 3.86051e-20)
(5.15325 0.169159 -8.55058e-20)
(5.14763 0.193556 9.39063e-20)
(5.13442 0.215007 7.31918e-20)
(5.11243 0.23089 -1.50924e-19)
(5.0866 0.243484 -7.03972e-20)
(5.05953 0.253461 6.43557e-20)
(5.03136 0.260715 -1.45435e-20)
(5.00125 0.265479 1.18091e-20)
(4.96832 0.268265 -2.38244e-21)
(4.93198 0.269372 1.45658e-21)
(4.89294 0.269107 4.96364e-21)
(4.85429 0.268044 -1.47163e-20)
(4.82106 0.267485 -1.01696e-19)
(4.79783 0.269698 1.68695e-19)
(4.78566 0.276734 -7.72298e-20)
(4.78107 0.287635 -5.71792e-20)
(4.77884 0.296992 -8.25781e-20)
(4.77617 0.294609 -1.13853e-19)
(4.77841 0.276044 -1.65914e-19)
(4.79286 0.225069 2.83938e-20)
(4.8027 0.167336 -1.48897e-20)
(4.7396 0.0885976 1.70059e-19)
(4.72418 0.00923875 6.08389e-20)
(4.78915 -0.07009 0)
(4.86058 -0.131911 0)
(4.89087 -0.183565 0)
(4.883 -0.227864 0)
(4.86457 -0.266624 1.54835e-19)
(4.85437 -0.30414 0)
(4.86062 -0.340687 1.3556e-19)
(4.88556 -0.373526 -1.72919e-19)
(4.92721 -0.399467 0)
(4.97976 -0.41597 0)
(5.03657 -0.421445 0)
(5.09185 -0.415829 -1.69143e-20)
(5.14204 -0.400298 -2.33669e-20)
(5.18529 -0.376706 2.68325e-19)
(5.22065 -0.347932 -2.57865e-19)
(5.24493 -0.31316 6.42998e-19)
(5.25823 -0.278995 -6.11472e-19)
(5.24125 -0.214634 0)
(5.17512 0.205769 -7.08855e-20)
(5.15909 0.228246 9.73442e-20)
(5.13649 0.246702 1.10827e-20)
(5.10748 0.2596 2.55487e-20)
(5.07679 0.269527 4.60875e-20)
(5.04581 0.276785 3.99935e-20)
(5.01403 0.281577 -1.91076e-20)
(4.98047 0.284637 4.58876e-21)
(4.9445 0.286921 -4.12437e-20)
(4.90618 0.289109 3.64497e-20)
(4.86723 0.291801 7.47326e-20)
(4.83153 0.295589 -8.05187e-20)
(4.80379 0.301462 0)
(4.78664 0.310885 -6.66651e-20)
(4.77788 0.324742 8.10374e-20)
(4.77062 0.34108 -1.90208e-19)
(4.75713 0.354479 -1.2798e-19)
(4.73401 0.355403 3.64243e-19)
(4.70964 0.338564 0)
(4.6969 0.284763 -3.85884e-19)
(4.68898 0.222774 2.11637e-20)
(4.61456 0.137521 -3.75021e-19)
(4.58635 0.0532043 0)
(4.65211 -0.0331368 -1.79401e-19)
(4.74632 -0.106122 1.65863e-19)
(4.80769 -0.172554 2.75546e-19)
(4.82424 -0.233758 0)
(4.81847 -0.287062 -1.66447e-19)
(4.81072 -0.337709 -1.6033e-19)
(4.81489 -0.387938 0)
(4.83815 -0.433857 -1.86444e-19)
(4.88176 -0.471009 2.04647e-20)
(4.94147 -0.496178 7.72903e-20)
(5.00993 -0.507481 0)
(5.07892 -0.50461 2.21618e-19)
(5.14256 -0.488928 -2.11039e-19)
(5.19757 -0.462835 -3.74799e-19)
(5.24303 -0.429846 -4.65419e-20)
(5.2762 -0.389262 3.14205e-19)
(5.30062 -0.350628 0)
(5.29307 -0.281856 -3.31649e-21)
(5.18898 0.24551 9.63707e-20)
(5.16342 0.265537 0)
(5.13296 0.281109 -1.51428e-19)
(5.09838 0.291132 2.80619e-20)
(5.0634 0.298329 5.70013e-21)
(5.02861 0.30276 2.99989e-20)
(4.99348 0.305248 7.82578e-21)
(4.95737 0.307016 -5.9847e-20)
(4.91996 0.309456 7.50493e-20)
(4.88191 0.313575 -7.16826e-20)
(4.84558 0.32007 1.78531e-19)
(4.81477 0.329255 2.28342e-20)
(4.79294 0.341381 -1.3889e-19)
(4.78024 0.356889 0)
(4.77174 0.375519 0)
(4.75815 0.394825 -4.28858e-19)
(4.73036 0.410113 1.38729e-19)
(4.68435 0.41257 -5.43843e-19)
(4.63024 0.396568 2.69949e-19)
(4.5864 0.339159 1.02557e-18)
(4.55921 0.273179 2.40467e-20)
(4.47339 0.180767 7.2278e-19)
(4.43285 0.0901931 -1.07492e-19)
(4.49481 -0.00335495 1.31185e-19)
(4.60349 -0.0868854 -3.32421e-19)
(4.69208 -0.168163 -9.62979e-19)
(4.737 -0.246739 2.90479e-19)
(4.75055 -0.315448 0)
(4.75118 -0.381945 1.72659e-19)
(4.75764 -0.449123 -3.84624e-19)
(4.78201 -0.511243 1.64705e-19)
(4.82912 -0.562665 1.30506e-19)
(4.89713 -0.598247 -1.51433e-21)
(4.97838 -0.615929 -3.66051e-20)
(5.06325 -0.615507 6.78613e-20)
(5.14337 -0.598647 0)
(5.21331 -0.568477 -4.86699e-19)
(5.27103 -0.529115 -5.43904e-20)
(5.31361 -0.480565 1.41623e-18)
(5.34678 -0.433989 5.52226e-20)
(5.3465 -0.358172 -1.93256e-18)
(5.19609 0.288088 0)
(5.16262 0.305969 8.0044e-20)
(5.12519 0.319034 -1.61071e-19)
(5.08575 0.326137 0)
(5.04669 0.330558 9.11594e-21)
(5.00855 0.332267 3.56254e-21)
(4.97096 0.332764 4.62191e-20)
(4.93402 0.333677 -5.8573e-20)
(4.8975 0.336764 -6.91966e-20)
(4.86223 0.343189 7.48001e-20)
(4.83054 0.353513 0)
(4.80527 0.367706 -1.6823e-19)
(4.78797 0.3851 1.80402e-19)
(4.77641 0.405127 0)
(4.76383 0.426486 0)
(4.7399 0.446455 3.02885e-19)
(4.69526 0.461493 -4.15104e-19)
(4.62541 0.463173 5.00814e-19)
(4.53955 0.446935 -4.87335e-19)
(4.46116 0.385775 -1.08492e-18)
(4.4138 0.316495 0)
(4.31537 0.21577 -1.02937e-18)
(4.26315 0.117583 -2.58067e-19)
(4.31957 0.0154208 6.93882e-19)
(4.43658 -0.079136 -4.90477e-19)
(4.54733 -0.17616 3.81085e-19)
(4.62177 -0.272051 3.40602e-19)
(4.65966 -0.356782 -3.155e-19)
(4.67527 -0.443325 -4.19195e-19)
(4.68978 -0.531771 5.50308e-19)
(4.71915 -0.614428 1.61803e-19)
(4.77247 -0.683866 -1.0142e-19)
(4.8506 -0.731411 -4.51638e-20)
(4.94627 -0.75539 -1.91742e-20)
(5.04901 -0.755641 -7.22926e-20)
(5.14808 -0.734752 4.89232e-19)
(5.23613 -0.697374 -3.47602e-19)
(5.30926 -0.648399 0)
(5.36346 -0.588645 0)
(5.40503 -0.530216 -1.2356e-18)
(5.41009 -0.444549 -7.68703e-20)
(5.19907 0.334003 0)
(5.15862 0.350416 0)
(5.11418 0.36095 2.07845e-20)
(5.07035 0.365021 7.59932e-20)
(5.0274 0.366579 -3.52263e-21)
(4.98724 0.365967 -3.02226e-20)
(4.94886 0.364866 7.98905e-20)
(4.91336 0.365379 -5.79866e-20)
(4.8803 0.369342 -1.01258e-19)
(4.85032 0.37804 1.01689e-19)
(4.82465 0.391654 1.6205e-19)
(4.80447 0.409933 3.16317e-20)
(4.78907 0.431417 -9.588e-20)
(4.77424 0.454562 0)
(4.75226 0.47719 1.90167e-19)
(4.7135 0.495557 0)
(4.6491 0.507807 -6.9806e-20)
(4.55497 0.504867 1.41523e-19)
(4.43669 0.486422 1.01727e-18)
(4.3199 0.421692 5.58642e-19)
(4.25282 0.351042 0)
(4.13976 0.240613 5.94891e-19)
(4.07599 0.133728 -1.60751e-19)
(4.12744 0.0195118 1.488e-19)
(4.24959 -0.0876695 8.16673e-19)
(4.37845 -0.20333 -2.60672e-19)
(4.48212 -0.316543 0)
(4.54706 -0.420418 0)
(4.58342 -0.53399 0)
(4.61249 -0.648038 -5.40282e-19)
(4.65277 -0.758416 3.10566e-19)
(4.71893 -0.850311 -2.90784e-20)
(4.81325 -0.912185 2.72056e-20)
(4.92846 -0.942421 6.27577e-20)
(5.05207 -0.938765 5.78328e-19)
(5.1713 -0.907801 -7.36471e-19)
(5.27789 -0.855974 -7.74013e-19)
(5.36694 -0.79069 1.5472e-18)
(5.43383 -0.713968 -7.73226e-19)
(5.48432 -0.638616 2.34068e-19)
(5.49475 -0.53991 -1.14678e-19)
(5.19986 0.384818 1.09166e-19)
(5.15255 0.399958 8.43449e-20)
(5.0999 0.407255 1.00017e-19)
(5.05308 0.40835 -5.51836e-20)
(5.00665 0.406791 -2.79584e-21)
(4.96672 0.40457 4.86649e-20)
(4.92937 0.402278 0)
(4.89778 0.402855 -1.06081e-20)
(4.86989 0.407484 1.25684e-19)
(4.84674 0.418054 2.52669e-20)
(4.82767 0.434259 -1.41116e-19)
(4.81175 0.455647 0)
(4.79559 0.480423 -1.32663e-19)
(4.77371 0.505957 0)
(4.73753 0.529769 -1.97579e-19)
(4.68001 0.545407 0)
(4.59253 0.55384 5.37176e-19)
(4.47309 0.541947 1.69942e-19)
(4.32335 0.51656 -1.64819e-18)
(4.16292 0.446611 8.46876e-19)
(4.0756 0.374676 -8.01232e-19)
(3.94505 0.252608 8.16346e-19)
(3.87093 0.137714 8.15475e-19)
(3.92081 0.00624016 0)
(4.04748 -0.115928 0)
(4.19279 -0.255594 6.62648e-19)
(4.32426 -0.386484 0)
(4.41481 -0.518475 0)
(4.47498 -0.669094 -2.95988e-19)
(4.52574 -0.815077 7.30598e-19)
(4.58699 -0.965271 0)
(4.67971 -1.08405 -3.62059e-20)
(4.80197 -1.16574 3.46756e-20)
(4.94882 -1.19976 -1.8414e-19)
(5.09952 -1.18352 9.06303e-19)
(5.24119 -1.13197 -1.69452e-18)
(5.3634 -1.05157 1.3131e-18)
(5.46377 -0.958597 -3.35364e-19)
(5.53865 -0.854771 8.26266e-19)
(5.59485 -0.755437 -2.16544e-18)
(5.61075 -0.639932 1.20913e-18)
(5.19817 0.442335 -1.11156e-19)
(5.14536 0.456056 -3.59932e-21)
(5.08187 0.458693 -1.02921e-19)
(5.03526 0.457437 0)
(4.98603 0.452205 -3.08278e-20)
(4.94968 0.449466 -7.82656e-20)
(4.91464 0.446089 3.84872e-20)
(4.88899 0.447239 6.37093e-21)
(4.86637 0.452495 1.30355e-19)
(4.84899 0.463999 -1.69558e-19)
(4.8341 0.481492 -2.57889e-20)
(4.81922 0.503773 0)
(4.79804 0.529935 -2.06207e-19)
(4.76482 0.555695 2.4898e-19)
(4.70987 0.579863 -1.74186e-20)
(4.6301 0.592049 3.42114e-20)
(4.51788 0.597581 -3.25108e-19)
(4.37239 0.57792 0)
(4.19876 0.544011 7.81829e-19)
(3.99106 0.46838 9.88576e-19)
(3.88185 0.389756 9.24468e-19)
(3.7294 0.247647 -9.41348e-19)
(3.64842 0.125584 3.39265e-19)
(3.70497 -0.0279416 -1.17626e-18)
(3.83732 -0.165753 -4.16047e-19)
(4.00038 -0.33697 2.40608e-20)
(4.15477 -0.483036 -3.37661e-19)
(4.26688 -0.660201 -5.27099e-19)
(4.35002 -0.859659 0)
(4.42882 -1.05331 -2.5255e-19)
(4.52225 -1.25711 -8.26314e-20)
(4.65975 -1.40241 7.59457e-20)
(4.82563 -1.51447 2.24424e-19)
(5.0291 -1.54109 5.38876e-19)
(5.21821 -1.50403 -4.29399e-19)
(5.39345 -1.41491 0)
(5.52887 -1.2848 -3.52572e-19)
(5.63311 -1.14828 8.70363e-19)
(5.70297 -1.0024 -1.31266e-18)
(5.75418 -0.870921 1.23506e-18)
(5.77046 -0.733006 -1.57411e-18)
(5.19233 0.507558 0)
(5.1403 0.520463 -8.37723e-20)
(5.06271 0.516438 4.65534e-20)
(5.02109 0.514263 -2.8593e-20)
(4.96976 0.504195 5.3496e-20)
(4.94043 0.502226 1.07248e-19)
(4.90877 0.498091 -3.90112e-20)
(4.89012 0.500734 5.85089e-21)
(4.87206 0.507868 -2.19096e-19)
(4.85812 0.519883 2.14587e-19)
(4.8426 0.538334 -3.95701e-20)
(4.82335 0.558712 0)
(4.79074 0.5831 5.91392e-19)
(4.74018 0.604699 -1.09228e-18)
(4.6622 0.623668 -4.41524e-20)
(4.5529 0.62926 4.07588e-19)
(4.41605 0.626648 -4.15997e-19)
(4.2348 0.597789 -2.39323e-19)
(4.04987 0.55333 -2.40735e-19)
(3.79132 0.478224 -2.00068e-18)
(3.66535 0.394854 1.35327e-19)
(3.48946 0.221835 -1.24729e-18)
(3.40893 0.088567 -1.07482e-18)
(3.4851 -0.0956457 1.31149e-18)
(3.62107 -0.245438 -8.08779e-19)
(3.80531 -0.45905 4.62873e-19)
(3.97246 -0.61131 7.75238e-19)
(4.10423 -0.857519 5.80986e-19)
(4.20568 -1.0979 -3.92261e-19)
(4.32196 -1.37412 -1.71717e-19)
(4.45135 -1.63316 4.9521e-20)
(4.65941 -1.80851 0)
(4.88733 -1.95544 2.39369e-19)
(5.1902 -1.94542 -1.00841e-18)
(5.4307 -1.88889 4.72639e-19)
(5.66657 -1.72858 0)
(5.8149 -1.53566 0)
(5.9133 -1.33259 2.26153e-19)
(5.95912 -1.13455 -2.47633e-18)
(5.98714 -0.962819 2.34972e-18)
(5.98872 -0.802756 -6.33188e-19)
(5.18335 0.582751 0)
(5.1418 0.595317 0)
(5.04942 0.58312 0)
(5.01767 0.582294 3.23346e-21)
(4.96471 0.56603 -9.35703e-20)
(4.94441 0.566106 4.33308e-20)
(4.91758 0.561685 5.53742e-20)
(4.90563 0.565817 4.34038e-20)
(4.89104 0.576234 4.71192e-20)
(4.87924 0.588068 0)
(4.85844 0.608716 4.01079e-20)
(4.83224 0.626716 0)
(4.78443 0.647485 1.25186e-19)
(4.71159 0.665181 6.28953e-19)
(4.6149 0.675497 8.87207e-21)
(4.46256 0.676905 -4.08005e-19)
(4.31213 0.661156 -7.27245e-19)
(4.0682 0.618725 1.27676e-18)
(3.88417 0.552831 -5.80466e-19)
(3.55388 0.459928 0)
(3.41836 0.36756 0)
(3.21827 0.155782 2.68001e-18)
(3.15406 0.0157564 1.08285e-18)
(3.26038 -0.219553 6.43616e-19)
(3.38688 -0.370541 1.4249e-18)
(3.59733 -0.654081 -2.63333e-18)
(3.75535 -0.800204 -8.55763e-19)
(3.90561 -1.16274 0)
(4.01921 -1.38599 7.1465e-19)
(4.19344 -1.79521 -5.1954e-20)
(4.36234 -2.04229 -6.38295e-20)
(4.69734 -2.29175 3.10623e-19)
(4.99525 -2.42651 -1.09274e-18)
(5.45895 -2.35564 7.06109e-19)
(5.74642 -2.28413 -1.3646e-18)
(6.08417 -1.98812 1.31388e-18)
(6.23628 -1.76456 -1.30769e-18)
(6.31365 -1.43812 -8.6365e-19)
(6.32161 -1.22032 0)
(6.29515 -0.986006 -3.36501e-18)
(6.25907 -0.82591 3.90579e-18)
(5.1764 0.674339 0)
(5.15337 0.68429 -2.29643e-19)
(5.0478 0.66693 7.27685e-20)
(5.0309 0.669148 -3.2945e-21)
(4.97351 0.646064 1.63342e-19)
(4.96453 0.646889 -1.20652e-19)
(4.9426 0.641334 -5.61661e-20)
(4.93542 0.644324 -7.89779e-20)
(4.9198 0.656649 6.28134e-20)
(4.9096 0.66521 -2.93015e-19)
(4.87485 0.685758 6.86761e-19)
(4.83958 0.701544 -3.99059e-19)
(4.7746 0.715904 0)
(4.66855 0.732899 -4.96549e-19)
(4.56899 0.73429 -3.29118e-20)
(4.34923 0.731697 3.40241e-19)
(4.21446 0.710307 7.45148e-19)
(3.87233 0.655161 -7.93754e-19)
(3.71577 0.58676 4.51578e-19)
(3.28503 0.451831 9.07902e-19)
(3.16158 0.334803 0)
(2.9214 0.0376438 -1.515e-18)
(2.89329 -0.0855454 -1.54879e-18)
(3.03076 -0.404295 0)
(3.12156 -0.532602 -1.37589e-18)
(3.36644 -0.932899 -4.95654e-19)
(3.47314 -1.0571 1.02364e-18)
(3.64718 -1.62633 -1.40615e-19)
(3.75559 -1.74881 -2.74068e-19)
(4.04095 -2.36321 -2.96757e-20)
(4.24844 -2.44516 -4.19509e-19)
(4.81125 -2.8368 0)
(5.11809 -2.83914 0)
(5.83778 -2.7184 -2.14046e-18)
(6.08752 -2.62228 3.66453e-18)
(6.61421 -2.09751 -1.46094e-18)
(6.71384 -1.94297 1.45719e-18)
(6.78349 -1.38376 2.99806e-18)
(6.76213 -1.24394 -2.83886e-18)
(6.63118 -0.883129 0)
(6.56627 -0.786339 4.23477e-18)
(6.46611 -0.569388 -2.23707e-18)
(6.25057 -0.670316 0)
(6.03762 -0.698924 0)
(5.84694 -0.671472 -5.47961e-20)
(5.69168 -0.61019 1.29266e-18)
(5.57013 -0.532108 2.12919e-19)
(5.47685 -0.450209 -3.5808e-19)
(5.40296 -0.368777 1.14227e-18)
(5.34005 -0.294492 1.09939e-18)
(5.2806 -0.228486 0)
(5.22244 -0.169286 8.30762e-20)
(5.17049 -0.118066 4.60814e-20)
(5.12919 -0.0761385 -5.31652e-19)
(5.09749 -0.0461855 9.06119e-21)
(5.07465 -0.0122077 -1.78706e-19)
(5.03498 0.011566 5.95513e-21)
(4.83503 0.0581966 0)
(6.42089 -0.498463 -2.08701e-18)
(6.23567 -0.558112 2.26656e-18)
(6.06144 -0.591376 -6.70288e-19)
(5.89832 -0.590144 9.86962e-19)
(5.75431 -0.556656 6.95956e-20)
(5.63335 -0.502312 -6.23552e-19)
(5.53506 -0.436438 1.66602e-18)
(5.45531 -0.366304 0)
(5.38698 -0.299915 -3.56234e-19)
(5.32456 -0.238696 -1.45145e-19)
(5.26642 -0.182087 -1.39932e-18)
(5.21445 -0.130704 0)
(5.17091 -0.0853307 0)
(5.13774 -0.0508404 3.64394e-19)
(5.11525 -0.013655 2.41654e-21)
(5.08213 -0.0085499 -2.92933e-19)
(4.85926 0.049892 0)
(6.34074 -0.340787 0)
(6.20907 -0.433289 -2.40706e-18)
(6.06948 -0.485703 6.99086e-19)
(5.93167 -0.503261 0)
(5.80209 -0.491236 0)
(5.68721 -0.458902 1.34141e-18)
(5.58858 -0.411193 1.09407e-18)
(5.50725 -0.356966 -2.0465e-19)
(5.4369 -0.300532 -5.06012e-19)
(5.37325 -0.245431 -1.54464e-19)
(5.31517 -0.192963 1.31228e-18)
(5.26297 -0.143451 0)
(5.21804 -0.0973513 -5.28344e-19)
(5.18254 -0.0598563 -3.47627e-19)
(5.1583 -0.0206948 4.0625e-19)
(5.12584 -0.016585 2.93565e-19)
(4.88772 0.0541564 -2.38876e-21)
(6.29786 -0.292535 1.40929e-19)
(6.18186 -0.351938 8.78327e-19)
(6.06571 -0.394845 -1.98032e-18)
(5.95106 -0.421628 -5.07778e-19)
(5.84033 -0.426301 -8.46921e-19)
(5.73627 -0.411625 -6.4151e-19)
(5.64131 -0.380868 -1.46233e-18)
(5.55897 -0.340138 2.75478e-19)
(5.48785 -0.293559 0)
(5.42418 -0.245755 0)
(5.36663 -0.198507 -6.52346e-19)
(5.31484 -0.151877 0)
(5.26925 -0.106392 -1.15929e-19)
(5.23136 -0.0674633 3.89257e-21)
(5.20451 -0.0271749 1.1203e-19)
(5.17152 -0.0213071 4.76708e-19)
(4.92255 0.0568551 -1.90485e-22)
(6.2226 -0.184299 3.96892e-18)
(6.14277 -0.256703 -8.94506e-19)
(6.05342 -0.309575 1.45569e-18)
(5.95972 -0.344796 1.50054e-20)
(5.86771 -0.361591 1.0007e-18)
(5.77711 -0.35976 9.08263e-19)
(5.68994 -0.34295 7.51459e-19)
(5.60923 -0.314139 0)
(5.5385 -0.278327 2.46452e-19)
(5.47579 -0.238473 -2.40507e-19)
(5.41955 -0.197326 0)
(5.36899 -0.155553 0)
(5.32351 -0.113214 1.34878e-18)
(5.28349 -0.074613 0)
(5.25329 -0.0336269 -5.30544e-19)
(5.21883 -0.0244417 -4.55824e-19)
(4.96118 0.0588695 -3.79047e-21)
(6.1859 -0.153662 -1.12997e-18)
(6.11324 -0.202112 0)
(6.03951 -0.242811 0)
(5.96126 -0.27657 1.2906e-18)
(5.88478 -0.298216 -2.12582e-18)
(5.8084 -0.304525 -8.56995e-19)
(5.73145 -0.298256 -7.58301e-19)
(5.65613 -0.281116 2.13848e-18)
(5.58727 -0.255496 0)
(5.52651 -0.224038 -2.56231e-19)
(5.47235 -0.189936 1.94014e-20)
(5.42349 -0.154158 2.27476e-19)
(5.37853 -0.116262 -6.57944e-19)
(5.33716 -0.0797636 -9.58672e-20)
(5.30424 -0.0393244 0)
(5.26819 -0.0273862 0)
(5.00262 0.059772 0)
(6.1205 -0.0721168 -1.07659e-18)
(6.07131 -0.127427 1.76496e-18)
(6.01738 -0.174339 -8.20893e-19)
(5.95611 -0.211942 6.56417e-19)
(5.89361 -0.237174 -6.17177e-19)
(5.83076 -0.249788 -9.87264e-19)
(5.76511 -0.251153 9.38562e-19)
(5.69784 -0.24308 -1.15368e-18)
(5.63273 -0.226359 -3.60959e-19)
(5.57445 -0.203639 -6.34727e-19)
(5.52276 -0.17677 2.6965e-19)
(5.47592 -0.147421 -5.10296e-19)
(5.43225 -0.115137 2.42565e-19)
(5.39101 -0.0825185 0)
(5.35688 -0.0437087 8.52815e-19)
(5.3194 -0.0303438 0)
(5.04607 0.0593287 0)
(6.0919 -0.0528317 -1.03811e-18)
(6.04592 -0.0921799 -1.83697e-18)
(6.00026 -0.126783 8.54557e-19)
(5.94908 -0.158919 0)
(5.8967 -0.183945 6.18098e-19)
(5.84473 -0.199421 -5.83432e-19)
(5.79016 -0.205257 4.8248e-19)
(5.73214 -0.203266 -9.30089e-19)
(5.67305 -0.194098 -7.8933e-19)
(5.61778 -0.178852 1.05068e-18)
(5.56876 -0.15892 3.1159e-19)
(5.52454 -0.135988 -9.11908e-19)
(5.48322 -0.109684 -4.33004e-19)
(5.44367 -0.0817651 -1.30181e-19)
(5.41016 -0.0466119 -8.92003e-19)
(5.3713 -0.0326575 -4.45785e-19)
(5.09066 0.0568484 -2.63255e-20)
(6.03572 0.0108387 1.07521e-18)
(6.00409 -0.0315199 7.89217e-21)
(5.97153 -0.0699707 8.55881e-19)
(5.93338 -0.104432 7.55241e-19)
(5.89225 -0.131959 -7.08683e-19)
(5.85016 -0.150178 0)
(5.80582 -0.160089 0)
(5.75743 -0.162784 -1.79703e-20)
(5.7062 -0.159469 0)
(5.65552 -0.150678 -3.90649e-19)
(5.60958 -0.137447 -1.58236e-20)
(5.5686 -0.120471 9.99361e-19)
(5.5306 -0.099868 6.02739e-19)
(5.49385 -0.0770442 0)
(5.46239 -0.0474403 5.70022e-19)
(5.42171 -0.0321101 -8.09253e-20)
(5.1356 0.0479904 5.30239e-19)
(6.01187 0.0253058 1.1137e-18)
(5.98202 -0.00739036 -1.03285e-18)
(5.95394 -0.0369123 -9.43963e-19)
(5.92158 -0.0660043 8.10782e-19)
(5.88662 -0.0911253 0)
(5.85092 -0.109291 -6.58092e-19)
(5.81387 -0.120517 0)
(5.77388 -0.12567 1.08934e-18)
(5.73084 -0.125794 -1.48841e-18)
(5.68685 -0.121665 4.65123e-19)
(5.64525 -0.113598 -3.41756e-20)
(5.60796 -0.101903 -3.70002e-19)
(5.57369 -0.0865153 -1.44172e-18)
(5.54035 -0.0686032 5.03248e-19)
(5.51164 -0.0448158 -7.62804e-19)
(5.46887 -0.0289336 1.1883e-18)
(5.17894 0.0375183 -1.09935e-18)
(5.96325 0.0770046 5.94341e-19)
(5.94265 0.0421542 -2.13616e-18)
(5.92205 0.0096291 3.60521e-20)
(5.89826 -0.021166 -3.29059e-20)
(5.87183 -0.0474313 -2.87024e-20)
(5.84392 -0.0675259 1.65803e-20)
(5.81419 -0.0814172 0)
(5.78208 -0.0896842 -5.94971e-19)
(5.74741 -0.0928989 1.0947e-18)
(5.7113 -0.0920857 -4.9692e-19)
(5.67569 -0.0880452 2.33237e-18)
(5.6424 -0.0810444 0)
(5.61166 -0.0706298 7.84082e-19)
(5.58186 -0.057259 0)
(5.55606 -0.039556 -7.2983e-19)
(5.51201 -0.0238705 -1.34833e-18)
(5.21695 0.0259711 6.07335e-19)
(5.94106 0.0909273 1.8485e-18)
(5.91965 0.0633218 -1.12681e-18)
(5.90105 0.0365833 2.06012e-18)
(5.88085 0.00983976 -3.26476e-20)
(5.85872 -0.0144277 -2.56702e-20)
(5.83529 -0.0342359 -1.51731e-21)
(5.81065 -0.0488884 6.97439e-19)
(5.78442 -0.0584725 -4.58895e-21)
(5.75666 -0.0634216 0)
(5.72784 -0.0646025 5.49695e-19)
(5.6988 -0.0630991 -1.54773e-18)
(5.67032 -0.0594364 4.7481e-19)
(5.64307 -0.0534589 -1.13256e-20)
(5.61657 -0.044316 -4.27141e-19)
(5.59334 -0.0327636 7.79935e-19)
(5.54758 -0.017469 7.39125e-19)
(5.24697 0.0141459 0)
(5.89681 0.135912 6.23598e-19)
(5.88286 0.105013 -5.96915e-19)
(5.86915 0.0756206 2.67451e-18)
(5.85401 0.0477073 -1.52076e-18)
(5.83758 0.0224853 0)
(5.82017 0.00111633 8.16733e-19)
(5.80179 -0.0158065 -2.07316e-20)
(5.78196 -0.0279641 6.93285e-19)
(5.76026 -0.0356695 -1.29731e-18)
(5.73695 -0.0396201 1.2072e-18)
(5.7129 -0.0405989 -5.68417e-19)
(5.68908 -0.0394147 5.24128e-19)
(5.6658 -0.0365003 -5.00702e-19)
(5.64264 -0.0312397 2.37583e-19)
(5.62133 -0.0247687 2.23159e-19)
(5.57335 -0.0108745 0)
(5.26668 0.00344777 0)
(5.87496 0.150161 -6.92932e-19)
(5.85785 0.126942 5.92058e-19)
(5.84389 0.102935 -2.29033e-18)
(5.8305 0.0779787 5.12672e-19)
(5.8174 0.0540231 -4.64683e-19)
(5.80441 0.0326911 -4.4162e-19)
(5.79068 0.014814 7.96364e-19)
(5.77525 0.000651905 -7.54488e-19)
(5.75764 -0.00973578 0)
(5.73818 -0.0166029 -6.45108e-19)
(5.71792 -0.0205787 1.21547e-18)
(5.698 -0.0222918 5.60528e-19)
(5.67886 -0.0220185 -5.41544e-19)
(5.65959 -0.0194648 -5.08093e-19)
(5.64 -0.0161949 0)
(5.58902 -0.00567391 0)
(5.27364 -0.00437357 0)
(5.83222 0.190974 0)
(5.82167 0.164519 3.12976e-19)
(5.81168 0.138644 -3.31347e-20)
(5.80203 0.113308 0)
(5.79301 0.0891954 1.00082e-18)
(5.78409 0.0671005 -4.72679e-19)
(5.77412 0.0475287 0)
(5.76219 0.0308286 7.91233e-19)
(5.74805 0.0172469 -7.44006e-19)
(5.73217 0.00669598 -6.89711e-19)
(5.71554 -0.00108089 9.80168e-19)
(5.69922 -0.00664926 -1.53159e-18)
(5.684 -0.00966826 0)
(5.66905 -0.0103792 2.71225e-19)
(5.65078 -0.00910775 2.61642e-19)
(5.59534 -0.00145248 2.45588e-19)
(5.26559 -0.00724386 4.79626e-19)
(5.80971 0.204397 0)
(5.79461 0.186752 -3.45616e-19)
(5.78362 0.167054 -6.34805e-19)
(5.77514 0.145336 0)
(5.76802 0.123243 -2.83235e-19)
(5.76082 0.101945 0)
(5.75245 0.0819668 2.17913e-19)
(5.74251 0.0636522 -4.05766e-19)
(5.73103 0.0473249 0)
(5.7183 0.0331614 -7.28425e-19)
(5.705 0.0213551 1.7215e-18)
(5.69218 0.0113188 -6.35314e-19)
(5.68107 0.00453741 0)
(5.67117 -0.00113991 -5.86368e-19)
(5.65419 -0.00127169 5.55944e-19)
(5.59232 0.00295815 -8.01992e-19)
(5.24247 -0.00753942 -5.17329e-19)
(5.76753 0.238226 1.12862e-18)
(5.75872 0.218561 3.35987e-19)
(5.7514 0.198729 1.27036e-18)
(5.74522 0.178525 -1.17806e-18)
(5.73917 0.158247 -1.35653e-18)
(5.73231 0.138228 6.97375e-21)
(5.72442 0.118676 4.68443e-19)
(5.71554 0.099782 6.5379e-19)
(5.7056 0.0818065 0)
(5.69457 0.0649279 0)