/*--------------------------------*- C++ -*----------------------------------*\
  =========                 |
  \\      /  F ield         | OpenFOAM: The Open Source CFD Toolbox
   \\    /   O peration     | Website:  https://openfoam.org
    \\  /    A nd           | Version:  6
     \\/     M anipulation  |
\*---------------------------------------------------------------------------*/
FoamFile
{
    version     2.0;
    format      ascii;
    class       surfaceVectorField;
    location    "1.69";
    object      Uf;
}
// * * * * * * * * * * * * * * * * * * * * * * * * * * * * * * * * * * * * * //

dimensions      [0 1 -1 0 0 0 0];

internalField   nonuniform List<vector> 
8193
(
(4.97903 -0.00963833 -5.53444e-19)
(5.01828 -0.0146721 -6.59252e-20)
(4.90242 -0.0422704 -9.63309e-20)
(5.00334 0.0178091 8.85682e-21)
(5.03047 0.0184909 -7.52434e-20)
(5.00678 0.0448383 -2.44809e-19)
(5.0241 0.0468486 3.62778e-20)
(5.01066 0.0699514 -1.00588e-22)
(5.02175 0.0709426 7.70958e-20)
(5.0207 0.0939422 -2.5105e-19)
(5.0299 0.0948302 -9.78543e-21)
(5.03427 0.116863 1.08349e-20)
(5.04351 0.118306 2.43269e-20)
(5.04322 0.137285 -1.0421e-21)
(5.0525 0.139892 -1.95121e-20)
(5.04536 0.155671 9.55368e-22)
(5.05303 0.158787 2.39598e-20)
(5.04072 0.170816 4.15083e-20)
(5.04641 0.17446 2.79273e-21)
(5.03057 0.181864 -1.53682e-21)
(5.03423 0.186227 1.71383e-22)
(5.01663 0.187976 -7.04806e-23)
(5.01871 0.193477 -6.96553e-22)
(4.99974 0.187836 -3.12413e-20)
(5.00053 0.195274 -2.39157e-21)
(4.97996 0.179261 1.79868e-21)
(4.979 0.189756 -6.51707e-22)
(4.9579 0.159372 0)
(4.9537 0.174338 1.6312e-21)
(4.93692 0.125921 -6.49924e-21)
(4.92671 0.146759 0)
(4.92512 0.079587 -1.71753e-19)
(4.90481 0.106472 -6.55369e-21)
(4.9343 0.0256822 8.38096e-20)
(4.90076 0.0570679 9.26479e-21)
(4.97371 -0.0247043 4.84855e-20)
(4.92747 0.0035166 2.70378e-20)
(5.03708 -0.0589882 -1.90396e-20)
(4.99122 -0.0397035 -5.64576e-21)
(5.10309 -0.0706401 -8.55134e-22)
(5.07033 -0.0697137 -2.93694e-21)
(5.1383 -0.0681072 -3.86334e-21)
(5.13714 -0.0735719 0)
(5.12326 -0.0669629 -2.2327e-21)
(5.14581 -0.0816517 -3.24388e-20)
(5.06978 -0.071145 1.77286e-21)
(5.10957 -0.0952236 2.2577e-20)
(5.01 -0.0809953 0)
(5.03999 -0.101211 0)
(4.97663 -0.0987277 1.43399e-21)
(4.97866 -0.111848 0)
(4.97247 -0.117163 6.1329e-21)
(4.95401 -0.127128 -2.5739e-20)
(4.98506 -0.134877 -9.96963e-20)
(4.95645 -0.143432 3.07754e-20)
(5.00014 -0.147559 -6.29762e-21)
(4.97524 -0.157278 -5.63611e-21)
(5.01184 -0.153852 -2.02456e-21)
(4.99559 -0.166228 5.82986e-21)
(5.02063 -0.154073 -1.35024e-20)
(5.01247 -0.169747 8.83852e-22)
(5.02829 -0.148968 8.58827e-21)
(5.02648 -0.168106 -4.37871e-21)
(5.03484 -0.138971 -3.30987e-20)
(5.03963 -0.161143 1.84508e-20)
(5.03828 -0.124925 -8.6115e-20)
(5.05137 -0.149595 3.44707e-21)
(5.03547 -0.108273 -1.06711e-20)
(5.05897 -0.134384 7.46645e-21)
(5.02319 -0.0892711 -1.76461e-20)
(5.05956 -0.115663 5.9485e-21)
(5.00461 -0.0677212 3.9303e-19)
(5.04742 -0.0936005 -3.86354e-20)
(4.9883 -0.0450199 4.06521e-20)
(5.02687 -0.0697943 1.80064e-20)
(4.97857 -0.0216261 -3.52271e-19)
(5.00968 -0.0470921 4.13499e-20)
(4.97112 0.00359763 -5.09531e-19)
(5.00311 -0.0245458 -9.9416e-20)
(4.94518 0.0269597 8.61906e-19)
(5.00079 0.00487037 -8.12414e-20)
(4.98352 0.0341668 3.35932e-20)
(4.87049 0.0547669 2.84167e-20)
(5.05534 0.0299397 1.6359e-20)
(5.0536 0.0213091 1.21409e-19)
(5.05369 -0.0101243 6.77852e-20)
(5.04083 0.054366 -4.96745e-21)
(5.04115 0.0499381 2.9977e-20)
(5.03345 0.0777987 -8.32683e-20)
(5.03632 0.0746612 3.93061e-21)
(5.03874 0.100873 1.94056e-20)
(5.0401 0.0972134 2.6799e-20)
(5.05043 0.123328 1.35959e-20)
(5.05065 0.120426 -2.18456e-20)
(5.05875 0.144647 5.36831e-20)
(5.06021 0.142627 1.45568e-21)
(5.05888 0.163399 -3.87561e-20)
(5.06163 0.162182 -2.09809e-21)
(5.05196 0.179066 1.102e-20)
(5.05559 0.178572 1.34472e-20)
(5.03894 0.190856 2.21713e-21)
(5.04326 0.191411 1.25943e-23)
(5.0222 0.198314 4.84109e-21)
(5.02725 0.200302 4.66026e-22)
(5.00283 0.200642 -1.05583e-20)
(5.00873 0.204686 -3.44445e-22)
(4.98028 0.19635 -7.76918e-22)
(4.98704 0.203414 -1.62404e-21)
(4.95381 0.183224 9.98624e-22)
(4.96104 0.194507 -3.90667e-21)
(4.92464 0.159235 1.63856e-21)
(4.93107 0.175946 -2.75135e-21)
(4.89823 0.123969 0)
(4.90093 0.14703 1.89524e-20)
(4.88511 0.079689 0)
(4.87904 0.109112 -9.63422e-21)
(4.8989 0.0307976 7.49368e-21)
(4.87815 0.0661322 9.76355e-21)
(4.94807 -0.0153465 5.48709e-20)
(4.90985 0.0201316 -1.20678e-20)
(5.02451 -0.0528955 1.22934e-20)
(4.97681 -0.0189876 -1.07932e-20)
(5.10102 -0.0745958 -8.40112e-22)
(5.06034 -0.0563785 -6.14717e-21)
(5.14023 -0.0870414 -2.19303e-21)
(5.12835 -0.0699875 -2.71877e-21)
(5.12897 -0.108332 1.35883e-20)
(5.13152 -0.097839 -2.19465e-21)
(5.07928 -0.1226 1.25069e-20)
(5.1077 -0.129763 -4.00666e-20)
(5.01144 -0.127757 0)
(5.05229 -0.14076 -1.05919e-20)
(4.96194 -0.135746 -1.51288e-21)
(4.98682 -0.146153 1.98878e-20)
(4.94487 -0.148382 -2.43001e-22)
(4.94931 -0.154467 8.90884e-21)
(4.95216 -0.162376 1.32996e-21)
(4.94115 -0.166149 -7.37281e-21)
(4.97359 -0.174084 5.81728e-22)
(4.95506 -0.177989 0)
(4.99654 -0.181238 2.89419e-21)
(4.97803 -0.187639 5.45427e-21)
(5.01628 -0.183372 -1.34224e-20)
(5.00084 -0.192995 1.4242e-20)
(5.0334 -0.180327 -3.84154e-21)
(5.02126 -0.193516 -1.75827e-20)
(5.04954 -0.172167 2.56304e-21)
(5.04024 -0.189045 -4.73645e-21)
(5.06393 -0.160046 1.8047e-20)
(5.0571 -0.179721 -8.94921e-22)
(5.07402 -0.144113 6.25017e-21)
(5.07135 -0.166046 2.02701e-20)
(5.07548 -0.124581 -8.44527e-20)
(5.08124 -0.148567 3.84022e-20)
(5.0633 -0.102191 -2.11144e-20)
(5.08079 -0.127443 -5.50987e-20)
(5.04288 -0.0789329 3.33848e-20)
(5.06599 -0.103464 0)
(5.02698 -0.0555419 -1.06855e-19)
(5.04516 -0.0795311 3.38455e-20)
(5.02303 -0.0314777 2.08369e-19)
(5.03068 -0.0559596 -7.30178e-20)
(5.02721 -0.00675134 3.37501e-20)
(5.02334 -0.0235682 7.63597e-20)
(5.02399 0.00861551 1.27582e-20)
(5.0205 0.0296211 3.32974e-21)
(5.05381 0.0510808 -2.77816e-19)
(5.06461 0.0461079 3.28023e-20)
(5.07519 0.0212354 3.63488e-19)
(5.0424 0.0736652 2.6857e-21)
(5.05115 0.0705775 4.67382e-20)
(5.04549 0.0964301 2.13661e-20)
(5.05463 0.0950497 -5.09178e-20)
(5.05586 0.120202 1.22171e-19)
(5.06258 0.118455 7.3822e-20)
(5.06476 0.142434 -4.02459e-20)
(5.06997 0.141104 -2.13603e-20)
(5.06615 0.161905 -9.45246e-20)
(5.07187 0.161587 -1.86695e-20)
(5.05988 0.178547 1.95778e-20)
(5.0659 0.179099 1.69041e-20)
(5.04733 0.191784 3.13577e-21)
(5.05367 0.193325 -1.71293e-20)
(5.03092 0.201329 -7.67581e-22)
(5.03714 0.204033 -1.70409e-21)
(5.01193 0.206664 1.38286e-20)
(5.018 0.210889 -1.50616e-21)
(4.98983 0.206783 1.03003e-21)
(4.99603 0.213195 1.75697e-21)
(4.96359 0.200113 6.34075e-22)
(4.97004 0.209678 1.14616e-22)
(4.93331 0.184995 -1.26879e-20)
(4.93936 0.198733 -1.2355e-20)
(4.90183 0.160741 -1.02417e-19)
(4.90569 0.179452 -3.7515e-22)
(4.87592 0.128487 9.44793e-21)
(4.87442 0.152747 1.47985e-20)
(4.86605 0.0909673 -2.90359e-23)
(4.85458 0.12113 -1.53637e-22)
(4.88384 0.0509783 5.3735e-20)
(4.85749 0.0875056 9.70726e-21)
(4.93438 0.0115393 -9.05586e-20)
(4.89194 0.0507228 -1.93868e-20)
(5.01047 -0.0255401 -3.19297e-20)
(4.9579 0.0162289 -2.04105e-20)
(5.08748 -0.0544935 -6.69469e-22)
(5.04089 -0.0237997 4.37585e-20)
(5.12139 -0.0803978 -2.72485e-21)
(5.10605 -0.0486584 -2.65547e-21)
(5.11199 -0.118815 -4.73675e-20)
(5.09968 -0.0919364 4.36387e-20)
(5.08114 -0.146469 -5.93876e-20)
(5.08965 -0.13924 2.77842e-20)
(5.02628 -0.156535 2.84149e-20)
(5.05761 -0.162085 -1.0288e-20)
(4.97158 -0.161974 3.00025e-20)
(4.99959 -0.170961 1.93097e-20)
(4.94266 -0.170551 1.94156e-21)
(4.95297 -0.177142 -1.04955e-22)
(4.94102 -0.180443 -8.65385e-21)
(4.93359 -0.1858 5.27011e-21)
(4.95767 -0.190762 4.76901e-21)
(4.93832 -0.196082 -3.08102e-20)
(4.98151 -0.198732 1.74109e-20)
(4.95916 -0.206175 2.94834e-20)
(5.00521 -0.202684 -1.59115e-20)
(4.9854 -0.213569 1.25174e-20)
(5.02655 -0.202064 -2.92926e-21)
(5.01151 -0.216831 -2.26017e-20)
(5.04632 -0.196442 -1.40691e-21)
(5.03656 -0.215169 -9.04321e-23)
(5.06506 -0.185645 -1.49667e-21)
(5.05946 -0.208207 2.43936e-20)
(5.08122 -0.17066 3.37643e-20)
(5.0796 -0.196271 -6.01038e-22)
(5.09091 -0.152595 -1.11284e-20)
(5.09669 -0.180308 3.45235e-20)
(5.08941 -0.131946 -3.41787e-20)
(5.10606 -0.160862 -3.41692e-20)
(5.07492 -0.108129 0)
(5.10292 -0.137969 0)
(5.05484 -0.0824826 0)
(5.08701 -0.113038 -4.53427e-21)
(5.04182 -0.056845 4.27068e-20)
(5.0667 -0.0865181 0)
(5.04253 -0.0307321 -9.40049e-19)
(5.04993 -0.0504362 5.25505e-20)
(5.04931 -0.0152883 3.48786e-21)
(5.05286 0.000644001 6.61673e-19)
(5.06443 0.0727612 -5.06755e-21)
(5.07499 0.0698928 0)
(5.07802 0.0503904 1.00439e-21)
(5.06341 0.0962542 -1.96575e-20)
(5.06942 0.0941367 1.44873e-20)
(5.06921 0.119909 -1.34107e-21)
(5.07656 0.119261 6.12095e-20)
(5.07632 0.142845 1.1746e-20)
(5.08358 0.142196 1.20892e-20)
(5.07789 0.163344 0)
(5.08432 0.16316 -1.36182e-20)
(5.07156 0.180861 0)
(5.078 0.181572 1.90483e-20)
(5.05876 0.19536 -8.33097e-21)
(5.06525 0.196936 -4.43486e-20)
(5.04148 0.206406 -4.93679e-21)
(5.04793 0.208967 7.89946e-21)
(5.02152 0.213798 3.58131e-21)
(5.02792 0.217552 4.41212e-21)
(4.99879 0.216933 -2.79048e-20)
(5.0054 0.222353 -6.20741e-21)
(4.97223 0.214781 6.42565e-22)
(4.97937 0.222606 3.93255e-21)
(4.94118 0.206053 -1.32168e-20)
(4.94877 0.217226 3.3249e-21)
(4.90693 0.190026 -9.20327e-20)
(4.91404 0.205333 -1.31076e-20)
(4.87385 0.167486 4.36348e-21)
(4.87854 0.187298 2.2065e-22)
(4.84939 0.140737 1.8293e-21)
(4.84867 0.165438 5.92352e-22)
(4.84299 0.112181 1.02635e-20)
(4.83274 0.14266 -2.75495e-20)
(4.86366 0.0822107 0)
(4.83915 0.119934 3.60453e-20)
(4.91384 0.0497994 -1.52973e-20)
(4.87316 0.0927893 -4.81288e-20)
(4.98733 0.014384 5.06475e-20)
(4.93371 0.0629291 -3.32182e-20)
(5.05932 -0.0211878 4.67463e-20)
(5.01004 0.0207444 8.16999e-22)
(5.08534 -0.0608668 4.24529e-20)
(5.06707 -0.0147637 0)
(5.07813 -0.112671 1.1419e-19)
(5.04954 -0.0699288 -6.51134e-20)
(5.06707 -0.154978 7.25701e-20)
(5.04992 -0.129543 2.18201e-20)
(5.03188 -0.175528 0)
(5.04641 -0.167445 -5.67098e-20)
(4.98125 -0.184239 -1.07814e-20)
(5.00748 -0.184785 0)
(4.94421 -0.191461 -2.1213e-21)
(4.9609 -0.194013 -8.54126e-20)
(4.93125 -0.200363 -2.08053e-20)
(4.93179 -0.202939 1.79384e-20)
(4.93983 -0.21078 -2.19759e-21)
(4.92536 -0.214197 1.09733e-20)
(4.96257 -0.220349 2.39902e-20)
(4.93933 -0.226034 6.80446e-20)
(4.99028 -0.22714 1.27479e-21)
(4.96502 -0.236508 1.63829e-20)
(5.01775 -0.229779 1.71603e-21)
(4.99512 -0.24363 1.99821e-20)
(5.04338 -0.227125 2.95657e-21)
(5.02672 -0.245744 1.75661e-20)
(5.06751 -0.21898 2.57556e-21)
(5.05627 -0.242215 -5.34505e-20)
(5.09003 -0.205835 0)
(5.08247 -0.232975 -3.45467e-20)
(5.10862 -0.188783 0)
(5.10581 -0.218683 -1.59863e-20)
(5.11836 -0.168371 0)
(5.12424 -0.200323 -1.41671e-20)
(5.11479 -0.145052 -4.56316e-21)
(5.1328 -0.178378 6.35632e-20)
(5.09898 -0.119034 -4.59334e-21)
(5.12755 -0.153495 8.79431e-20)
(5.08096 -0.0908884 7.82458e-21)
(5.11005 -0.125527 -8.36502e-20)
(5.07307 -0.0604444 -2.36822e-21)
(5.08753 -0.0875936 2.01569e-19)
(5.07917 -0.0440655 3.41696e-20)
(5.07653 -0.0294639 -4.15043e-21)
(5.08073 0.0959932 -6.68479e-22)
(5.09159 0.0940889 1.00549e-19)
(5.08604 0.073407 -9.8137e-22)
(5.08391 0.120201 1.95062e-21)
(5.09209 0.119177 -6.42285e-22)
(5.08936 0.143763 7.19167e-20)
(5.09927 0.144313 -7.51918e-20)
(5.09056 0.165289 -1.40867e-20)
(5.10052 0.166026 0)
(5.0842 0.183891 6.81855e-21)
(5.09275 0.185033 4.50875e-20)
(5.07083 0.199347 1.28429e-20)
(5.07863 0.201295 4.88468e-20)
(5.05275 0.211625 -3.83005e-20)
(5.06022 0.214477 -1.83624e-20)
(5.03184 0.220586 1.53518e-20)
(5.03894 0.224385 -3.48377e-21)
(5.00844 0.225934 -2.90102e-21)
(5.0155 0.230992 5.98404e-21)
(4.98172 0.227093 -3.80443e-20)
(4.98916 0.233992 1.97472e-22)
(4.95072 0.223236 6.66719e-21)
(4.95871 0.232737 1.76712e-21)
(4.91571 0.213698 3.2816e-21)
(4.92386 0.226603 3.36156e-21)
(4.8795 0.198831 -1.31037e-20)
(4.88663 0.215587 -2.78998e-20)
(4.84758 0.180665 -1.28137e-19)
(4.8518 0.201222 1.90081e-20)
(4.82695 0.162042 -2.89719e-20)
(4.82575 0.186669 -3.31102e-20)
(4.82451 0.144213 -1.57867e-19)
(4.81451 0.174282 3.06595e-20)
(4.84556 0.12481 -1.14211e-20)
(4.82255 0.162678 -1.72958e-20)
(4.8905 0.0993264 -6.08345e-20)
(4.8518 0.144546 2.30311e-20)
(4.95505 0.0648922 -5.50424e-20)
(4.90164 0.118792 -3.40907e-20)
(5.01722 0.0230171 -4.33624e-20)
(4.96574 0.0738199 -4.23572e-20)
(5.03215 -0.0263312 -1.05682e-19)
(5.01169 0.0300554 -9.61625e-21)
(5.02241 -0.0880805 -1.52963e-19)
(4.9809 -0.0331214 -5.05748e-20)
(5.03043 -0.14399 -1.00451e-19)
(4.98484 -0.101247 -2.64541e-20)
(5.02299 -0.177852 -5.66585e-20)
(5.00936 -0.154289 2.2234e-20)
(4.98748 -0.194158 -7.23477e-20)
(4.99961 -0.183769 6.30525e-20)
(4.94853 -0.204779 -4.73567e-20)
(4.96425 -0.201276 -7.21201e-20)
(4.92583 -0.216308 4.75436e-20)
(4.93041 -0.214954 -4.45318e-20)
(4.92458 -0.228895 8.80198e-20)
(4.91429 -0.229974 6.58974e-21)
(4.94139 -0.241515 6.05293e-20)
(4.91918 -0.24572 9.40239e-20)
(4.96901 -0.252266 3.46134e-20)
(4.94051 -0.260724 -4.42892e-20)
(5.0008 -0.259378 -9.96826e-21)
(4.97164 -0.272941 1.82122e-20)
(5.03263 -0.261059 -1.876e-20)
(5.00892 -0.279996 -1.78675e-20)
(5.06297 -0.25647 -3.44876e-20)
(5.04609 -0.280874 -7.158e-20)
(5.09132 -0.245777 -6.34665e-20)
(5.07985 -0.275093 -1.11744e-19)
(5.1168 -0.230116 -4.24441e-20)
(5.1098 -0.263061 -1.58212e-20)
(5.13636 -0.210373 3.79243e-20)
(5.13588 -0.245769 -1.8802e-20)
(5.14518 -0.187191 1.56755e-19)
(5.15492 -0.224154 6.4191e-20)
(5.13986 -0.160938 6.55367e-21)
(5.16232 -0.199271 8.79853e-20)
(5.12394 -0.13158 1.10932e-19)
(5.15497 -0.170587 -9.21809e-20)
(5.11046 -0.0971874 -1.66548e-18)
(5.13496 -0.133976 1.92229e-19)
(5.11848 -0.0817714 5.64977e-20)
(5.10908 -0.0614522 9.1136e-19)
(5.10321 0.121818 9.60941e-20)
(5.11543 0.120865 8.66248e-20)
(5.10097 0.099226 3.9387e-19)
(5.10712 0.145989 -7.98559e-20)
(5.11701 0.146742 -5.08627e-21)
(5.10707 0.168685 -7.39679e-20)
(5.1188 0.171005 2.50281e-21)
(5.09963 0.18834 1.40577e-20)
(5.11111 0.190787 3.48842e-20)
(5.08517 0.204763 4.40707e-20)
(5.09486 0.207486 2.71897e-20)
(5.06587 0.217983 5.08235e-20)
(5.07436 0.221405 -1.60742e-20)
(5.04366 0.228085 -2.46871e-20)
(5.05151 0.232331 -8.61296e-21)
(5.01918 0.235017 1.72021e-20)
(5.02663 0.240159 -9.67018e-21)
(4.99189 0.238547 5.44679e-21)
(4.99952 0.244978 7.29347e-21)
(4.96082 0.238276 -1.97416e-21)
(4.96905 0.246648 -1.03277e-21)
(4.92563 0.233783 -1.03653e-20)
(4.93442 0.244846 -6.67425e-21)
(4.88799 0.22514 -3.73449e-20)
(4.89659 0.239513 2.20861e-20)
(4.8521 0.213635 -1.27735e-19)
(4.85917 0.231417 -5.8131e-20)
(4.82365 0.202 -1.27776e-20)
(4.82763 0.222834 1.46935e-20)
(4.80783 0.192833 -1.10939e-19)
(4.80701 0.216987 3.15391e-20)
(4.80798 0.185732 9.9924e-20)
(4.79986 0.214976 4.7366e-20)
(4.82569 0.175875 -5.04969e-20)
(4.80646 0.213303 2.03571e-20)
(4.86046 0.156215 6.38616e-20)
(4.8261 0.202714 1.14537e-19)
(4.91104 0.122364 -1.54355e-20)
(4.86006 0.180309 4.6758e-20)
(4.9599 0.0753852 -9.37234e-21)
(4.90702 0.132788 -9.06182e-20)
(4.96194 0.018645 3.169e-20)
(4.93975 0.0825852 -3.37553e-20)
(4.94495 -0.0498991 5.06665e-20)
(4.89525 0.0130304 -1.8292e-20)
(4.96574 -0.116728 8.54222e-20)
(4.89511 -0.0603795 -6.58033e-21)
(4.9882 -0.164077 4.03419e-20)
(4.94188 -0.126023 -2.10026e-20)
(4.97771 -0.191521 6.29414e-20)
(4.96598 -0.168923 -2.14294e-20)
(4.94653 -0.210468 -5.14837e-20)
(4.95199 -0.198862 1.48147e-19)
(4.91919 -0.22812 -8.50633e-20)
(4.92238 -0.222056 -5.72098e-20)
(4.90897 -0.246205 1.62404e-20)
(4.90059 -0.244231 -3.18354e-20)
(4.91804 -0.264171 -1.8227e-20)
(4.8971 -0.266775 4.89742e-20)
(4.9425 -0.280533 -6.50773e-20)
(4.91203 -0.288534 -6.30713e-20)
(4.97643 -0.293179 0)
(4.94158 -0.30743 2.1768e-20)
(5.01434 -0.300244 -1.25846e-21)
(4.98241 -0.320696 0)
(5.0522 -0.300068 -5.11737e-21)
(5.02746 -0.326817 -1.25582e-21)
(5.08808 -0.292582 -3.91118e-21)
(5.07015 -0.32515 -5.24197e-20)
(5.1209 -0.278629 -4.64099e-21)
(5.10843 -0.315764 1.28428e-19)
(5.14893 -0.259377 -4.57072e-21)
(5.14253 -0.299513 -3.2976e-20)
(5.16895 -0.236004 -2.61157e-21)
(5.1706 -0.277662 1.51666e-22)
(5.17683 -0.209072 -1.00142e-20)
(5.18976 -0.252074 -2.77936e-21)
(5.17053 -0.178998 -1.98591e-20)
(5.1955 -0.222014 3.16384e-22)
(5.15694 -0.143227 2.68792e-21)
(5.18634 -0.187529 2.56724e-19)
(5.16626 -0.129281 -8.00437e-21)
(5.15098 -0.104368 3.91537e-20)
(5.12912 0.150625 1.0142e-19)
(5.14263 0.151438 -5.48103e-20)
(5.12621 0.127575 -1.66106e-19)
(5.12723 0.174192 1.70382e-20)
(5.13911 0.177141 4.20192e-20)
(5.11826 0.195085 3.23985e-20)
(5.13194 0.199454 3.25174e-20)
(5.10206 0.212292 4.76188e-20)
(5.11475 0.216702 -1.6981e-19)
(5.08096 0.226239 1.52483e-21)
(5.09144 0.230858 -7.267e-20)
(5.05703 0.237108 -2.03285e-20)
(5.06601 0.242309 2.08351e-20)
(5.03114 0.245015 1.7663e-20)
(5.03936 0.250888 -1.66839e-20)
(5.00296 0.250065 1.11664e-20)
(5.01088 0.256709 1.64039e-20)
(4.97161 0.252247 3.72308e-22)
(4.97994 0.260111 6.26202e-21)
(4.93649 0.251485 -1.52879e-21)
(4.94559 0.26126 -1.9198e-21)
(4.89838 0.24786 4.19025e-20)
(4.90787 0.260257 -2.93103e-21)
(4.86035 0.242049 1.07986e-19)
(4.86917 0.257502 4.50347e-20)
(4.82736 0.235864 -2.91281e-20)
(4.83414 0.254192 -8.04029e-20)
(4.80411 0.232027 6.0069e-20)
(4.80788 0.25272 8.31752e-20)
(4.79289 0.232272 2.02238e-19)
(4.79296 0.25564 2.1401e-20)
(4.79309 0.234602 -3.89834e-20)
(4.7879 0.262644 -3.50358e-21)
(4.80313 0.232467 2.57303e-20)
(4.78918 0.268807 7.33446e-20)
(4.8227 0.217381 1.13831e-19)
(4.79454 0.264045 -2.08755e-20)
(4.85454 0.183972 -1.01902e-20)
(4.80794 0.244399 -6.18071e-21)
(4.88669 0.132823 -9.59252e-20)
(4.83347 0.194525 -9.14877e-20)
(4.875 0.0697735 -1.15064e-19)
(4.85094 0.139119 -3.1298e-20)
(4.84759 -0.00412085 -5.91514e-20)
(4.7936 0.0634495 7.99328e-21)
(4.87393 -0.079207 -1.03881e-19)
(4.78372 -0.0139989 8.11106e-21)
(4.92275 -0.13878 -1.62293e-19)
(4.84405 -0.08933 -8.00362e-20)
(4.94266 -0.179421 -2.10194e-20)
(4.90027 -0.145175 -7.90619e-20)
(4.92891 -0.209653 1.38787e-19)
(4.91524 -0.189511 1.42314e-19)
(4.90444 -0.237212 -9.63359e-21)
(4.89909 -0.226201 -9.27921e-21)
(4.88916 -0.264055 0)
(4.8783 -0.258987 7.90425e-20)
(4.89114 -0.290182 0)
(4.86965 -0.291135 0)
(4.91076 -0.31434 2.10951e-20)
(4.8786 -0.322327 6.91355e-20)
(4.94464 -0.334202 2.17056e-20)
(4.90523 -0.350129 -5.74486e-20)
(4.98756 -0.347749 0)
(4.94762 -0.371332 0)
(5.0336 -0.352697 -4.74287e-20)
(5.00017 -0.38366 0)
(5.07876 -0.348843 6.58481e-20)
(5.05268 -0.386695 -4.73011e-20)
(5.12047 -0.336701 8.74547e-20)
(5.10147 -0.380053 4.35718e-20)
(5.15713 -0.317653 -5.46612e-20)
(5.14532 -0.364537 -1.21332e-19)
(5.18683 -0.293321 0)
(5.1826 -0.341775 1.35331e-19)
(5.20679 -0.264976 7.2909e-21)
(5.21188 -0.314315 -1.29732e-19)
(5.21363 -0.233617 2.76234e-19)
(5.22964 -0.281378 3.29932e-19)
(5.20788 -0.197446 -1.43646e-18)
(5.23487 -0.247493 -3.5408e-20)
(5.21808 -0.185025 1.93544e-20)
(5.20272 -0.156601 9.53906e-19)
(5.15236 0.183025 -1.0817e-19)
(5.16704 0.186137 -7.81852e-20)
(5.15607 0.16053 -7.89761e-20)
(5.14099 0.204848 8.3136e-20)
(5.15469 0.210309 9.56244e-20)
(5.12263 0.223091 -6.39467e-20)
(5.13771 0.229919 4.22163e-20)
(5.09904 0.237556 -1.08805e-19)
(5.1123 0.244354 -6.31099e-20)
(5.0727 0.24891 -2.03176e-20)
(5.08353 0.255866 -1.25732e-20)
(5.04478 0.257304 2.29123e-20)
(5.05401 0.26469 1.51821e-20)
(5.01525 0.263009 2.20682e-20)
(5.02373 0.270838 1.11314e-20)
(4.98333 0.266467 4.34728e-21)
(4.99171 0.274823 1.9226e-20)
(4.94832 0.268056 -3.66575e-22)
(4.95737 0.27738 -2.14861e-20)
(4.91032 0.268077 3.29295e-21)
(4.92022 0.27905 1.86299e-20)
(4.87133 0.266994 -5.29607e-21)
(4.88138 0.280294 3.91734e-20)
(4.83542 0.265753 -5.97964e-20)
(4.84429 0.281696 -4.69865e-20)
(4.80734 0.266134 -8.58356e-20)
(4.81383 0.284407 -5.17549e-20)
(4.78979 0.27024 4.30891e-20)
(4.79359 0.2903 7.72562e-20)
(4.78155 0.278618 -6.70673e-20)
(4.78305 0.300847 -2.34493e-20)
(4.77834 0.288168 -1.63078e-19)
(4.77702 0.314582 -7.7343e-20)
(4.77629 0.291603 -9.82171e-20)
(4.76902 0.326083 -1.05214e-19)
(4.77618 0.279818 -2.55528e-20)
(4.75598 0.325498 8.69305e-20)
(4.78508 0.24657 -1.11225e-19)
(4.7448 0.307998 -8.2454e-20)
(4.79754 0.191584 1.87366e-20)
(4.74501 0.255546 -2.06702e-19)
(4.77181 0.122778 7.62367e-20)
(4.74543 0.195622 3.37651e-21)
(4.73261 0.04356 6.46151e-20)
(4.67627 0.113565 -1.0686e-19)
(4.75748 -0.0383732 3.09378e-20)
(4.65399 0.0316136 2.98626e-20)
(4.82597 -0.108599 0)
(4.71913 -0.051316 -9.14974e-20)
(4.87676 -0.16226 0)
(4.80184 -0.118972 8.46975e-20)
(4.88719 -0.205929 0)
(4.84808 -0.178095 1.40824e-19)
(4.87379 -0.246471 7.60709e-20)
(4.85281 -0.230957 0)
(4.8595 -0.284934 7.87317e-20)
(4.84107 -0.27704 -6.74372e-21)
(4.85741 -0.322032 6.66663e-20)
(4.83224 -0.321216 -8.19746e-20)
(4.87281 -0.356659 -2.55765e-20)
(4.83755 -0.364708 6.62806e-20)
(4.9059 -0.385949 -8.77637e-20)
(4.86177 -0.404172 -1.79826e-19)
(4.95304 -0.407458 0)
(4.90507 -0.435617 1.04418e-20)
(5.00768 -0.418462 0)
(4.96471 -0.455568 3.93911e-20)
(5.0638 -0.418562 -8.35055e-21)
(5.02775 -0.464105 0)
(5.11658 -0.408031 -2.01029e-20)
(5.08942 -0.460158 1.043e-19)
(5.16339 -0.388558 1.20912e-19)
(5.14556 -0.444788 -1.18568e-19)
(5.20265 -0.362224 2.63859e-20)
(5.19372 -0.42009 -5.72786e-20)
(5.23285 -0.330978 1.88611e-19)
(5.23306 -0.38925 -1.51105e-19)
(5.25178 -0.296626 -4.14879e-20)
(5.26093 -0.351512 4.76489e-19)
(5.25742 -0.258999 -3.07804e-19)
(5.27932 -0.315006 -3.04053e-19)
(5.26945 -0.248437 -1.66285e-21)
(5.25881 -0.21657 0)
(5.16861 0.218526 -8.71763e-20)
(5.18472 0.224244 1.52555e-19)
(5.18246 0.197591 1.26345e-20)
(5.14751 0.237959 5.24617e-20)
(5.16293 0.246048 4.88087e-20)
(5.12095 0.253172 4.43317e-20)
(5.13687 0.262912 -1.87772e-19)
(5.09152 0.264863 2.96308e-20)
(5.10511 0.274447 2.67968e-20)
(5.06075 0.273492 2.71162e-20)
(5.07182 0.283256 -2.32028e-20)
(5.02908 0.279292 7.65036e-21)
(5.03851 0.289303 3.50527e-20)
(4.996 0.282898 -3.61804e-20)
(5.00477 0.29307 -1.97693e-20)
(4.96084 0.285233 -1.95425e-20)
(4.9698 0.295549 -2.71166e-20)
(4.92333 0.287103 -4.9304e-20)
(4.93328 0.297926 8.69888e-21)
(4.88444 0.289143 5.65361e-20)
(4.89528 0.301102 -1.65641e-20)
(4.84704 0.291964 8.29971e-20)
(4.85777 0.305731 1.25579e-19)
(4.81542 0.296349 -3.86737e-20)
(4.82458 0.312269 -2.98834e-20)
(4.79315 0.303526 -3.44106e-20)
(4.7998 0.321341 -6.8135e-20)
(4.78035 0.314629 8.99663e-21)
(4.78482 0.3339 -3.38792e-20)
(4.77249 0.329209 -5.68233e-20)
(4.77605 0.350246 4.10403e-20)
(4.76232 0.343576 -1.58818e-19)
(4.76541 0.368146 -3.08512e-19)
(4.74439 0.350553 2.66312e-20)
(4.74452 0.382547 4.86536e-21)
(4.72077 0.340947 1.82792e-19)
(4.70986 0.384401 -9.02516e-20)
(4.70284 0.307281 -1.91341e-19)
(4.67043 0.368156 1.35729e-19)
(4.69278 0.248142 -1.8477e-19)
(4.64159 0.312529 2.83139e-19)
(4.65254 0.173683 -1.58068e-19)
(4.6236 0.248562 2.26245e-20)
(4.6014 0.0884514 -1.90561e-19)
(4.54306 0.15967 1.71566e-19)
(4.62032 -0.000199419 -8.81334e-20)
(4.50801 0.0719556 -5.47659e-20)
(4.70061 -0.080055 1.68173e-19)
(4.57158 -0.0180942 -1.0462e-20)
(4.77841 -0.146612 2.1969e-19)
(4.67286 -0.0965941 -1.08688e-19)
(4.81654 -0.205087 1.40327e-19)
(4.74807 -0.170607 -3.77888e-19)
(4.82133 -0.259686 -8.16963e-20)
(4.77946 -0.240469 1.48752e-19)
(4.81455 -0.311605 -1.63443e-19)
(4.78393 -0.301455 -8.11833e-20)
(4.81269 -0.362188 -8.15661e-20)
(4.78048 -0.360227 1.21891e-22)
(4.82619 -0.410209 -9.16499e-20)
(4.78558 -0.419266 -1.96982e-19)
(4.85945 -0.4518 -6.8304e-20)
(4.80935 -0.473497 -4.56128e-21)
(4.91097 -0.483022 8.4236e-20)
(4.85531 -0.517698 7.67533e-20)
(4.97511 -0.501559 3.92076e-20)
(4.92169 -0.547315 3.7017e-20)
(5.0439 -0.505963 1.09294e-19)
(4.99677 -0.561949 -1.86863e-20)
(5.11027 -0.496757 1.7567e-20)
(5.07364 -0.560471 1.43229e-19)
(5.16971 -0.475993 -2.91954e-19)
(5.14513 -0.544353 -1.03604e-19)
(5.21993 -0.44631 -2.29174e-19)
(5.20702 -0.516307 -4.10218e-19)
(5.25983 -0.410386 1.81268e-19)
(5.25808 -0.480118 -5.05238e-20)
(5.28871 -0.37076 1.58484e-19)
(5.29569 -0.435457 8.75992e-19)
(5.305 -0.329273 -1.64534e-21)
(5.3243 -0.392739 2.79034e-20)
(5.32101 -0.320336 -9.75136e-19)
(5.31509 -0.283945 5.84537e-19)
(5.17726 0.25688 4.63843e-20)
(5.19516 0.265284 4.83286e-20)
(5.20102 0.238141 4.67717e-20)
(5.14765 0.273693 -7.88036e-20)
(5.16485 0.284738 3.98394e-20)
(5.11455 0.286089 -3.40691e-20)
(5.13111 0.299029 -1.56219e-19)
(5.08015 0.294961 1.06186e-20)
(5.09406 0.3077 1.4146e-20)
(5.0453 0.300782 6.34745e-21)
(5.05667 0.313742 7.39056e-21)
(5.01012 0.304062 1.90107e-20)
(5.01983 0.317008 -1.96357e-20)
(4.97411 0.305863 -2.78138e-20)
(4.98324 0.318618 4.12115e-20)
(4.93697 0.307628 -5.28919e-20)
(4.94663 0.320014 -5.92206e-20)
(4.89889 0.310507 -2.20196e-21)
(4.90982 0.322792 4.26067e-21)
(4.86145 0.315347 -1.73053e-20)
(4.87341 0.328092 4.39548e-22)
(4.82778 0.322646 2.00754e-19)
(4.83966 0.336568 9.11195e-20)
(4.80151 0.33269 7.05504e-20)
(4.81182 0.348373 -7.07219e-20)
(4.78433 0.345829 -6.70271e-20)
(4.79241 0.363299 1.76407e-20)
(4.77378 0.362132 0)
(4.78038 0.381274 0)
(4.76285 0.380431 -2.18517e-19)
(4.76983 0.401486 0)
(4.74237 0.397122 -2.56351e-19)
(4.75095 0.421305 -1.52705e-19)
(4.70594 0.405848 -2.03928e-19)
(4.71444 0.436561 -1.36888e-19)
(4.6562 0.397698 -2.75149e-19)
(4.65636 0.438817 -9.40185e-20)
(4.60801 0.363207 6.92059e-19)
(4.58533 0.42234 -1.10617e-19)
(4.57274 0.299427 5.13775e-19)
(4.52325 0.36274 -3.62369e-20)
(4.51716 0.21928 3.68451e-19)
(4.48586 0.295386 1.18617e-20)
(4.45427 0.12695 2.33212e-19)
(4.39342 0.198851 -1.49902e-19)
(4.46519 0.0307791 -2.18275e-19)
(4.34633 0.104151 -1.84254e-19)
(4.55085 -0.0585111 -9.62835e-20)
(4.40512 0.00611242 4.2627e-19)
(4.64953 -0.137625 -6.41655e-19)
(4.5177 -0.0832136 -4.13311e-19)
(4.71529 -0.210899 -4.76213e-19)
(4.61742 -0.17264 -2.51272e-19)
(4.74364 -0.280428 1.48029e-19)
(4.67771 -0.259861 3.16186e-19)
(4.75064 -0.347445 8.46981e-20)
(4.70375 -0.336769 -1.61895e-19)
(4.75416 -0.41441 -1.00849e-19)
(4.71113 -0.414164 -1.31112e-19)
(4.76938 -0.479088 -8.64089e-20)
(4.72061 -0.492874 1.86303e-19)
(4.80503 -0.536225 1.62544e-19)
(4.74732 -0.565528 1.63216e-19)
(4.86234 -0.579689 6.5575e-20)
(4.7996 -0.625049 1.15672e-20)
(4.93699 -0.606694 -1.87877e-20)
(4.87472 -0.665866 -7.67724e-20)
(5.0201 -0.615533 1.48654e-20)
(4.96368 -0.686683 3.37605e-20)
(5.10268 -0.60703 3.43941e-20)
(5.05777 -0.686612 -6.48766e-20)
(5.17786 -0.583692 -2.40264e-19)
(5.14745 -0.667743 2.49955e-19)
(5.24171 -0.548814 -2.90452e-19)
(5.22644 -0.633932 -3.69414e-19)
(5.29273 -0.506157 7.56979e-19)
(5.29166 -0.589702 -2.66779e-20)
(5.33108 -0.459185 4.84406e-19)
(5.33971 -0.535458 6.95769e-19)
(5.35607 -0.411268 -3.13121e-18)
(5.37683 -0.482822 -6.00344e-19)
(5.37938 -0.401933 -9.91796e-19)
(5.37387 -0.359923 -8.58658e-19)
(5.17995 0.298207 4.15066e-20)
(5.19992 0.309565 0)
(5.21218 0.281693 0)
(5.14317 0.312779 -4.42719e-20)
(5.16237 0.327122 4.02502e-20)
(5.10428 0.322489 -7.70113e-20)
(5.12155 0.338944 4.19459e-20)
(5.06539 0.328526 4.77121e-21)
(5.0798 0.34467 3.76531e-20)
(5.02679 0.33156 6.20188e-21)
(5.03848 0.347876 -4.11914e-20)
(4.98892 0.332665 2.59927e-20)
(4.99902 0.348596 2.10018e-20)
(4.95139 0.333129 1.39574e-21)
(4.96076 0.348414 6.28044e-20)
(4.91436 0.334841 -6.41706e-20)
(4.92448 0.349164 -5.82847e-20)
(4.87819 0.339249 -3.32833e-20)
(4.88971 0.3527 -8.49293e-20)
(4.84451 0.347176 3.54756e-20)
(4.8572 0.360274 8.74573e-20)
(4.81588 0.358798 -8.81586e-20)
(4.82881 0.372302 7.93398e-20)
(4.7945 0.373776 -1.16952e-19)
(4.80651 0.388693 -7.03769e-20)
(4.77996 0.391488 8.68844e-20)
(4.79065 0.40841 4.4992e-20)
(4.76773 0.410982 0)
(4.778 0.430414 0)
(4.74938 0.43045 1.54676e-19)
(4.76126 0.452945 9.37157e-20)
(4.71514 0.446612 -6.09133e-20)
(4.73045 0.472773 1.52992e-19)
(4.65839 0.454342 4.5572e-20)
(4.67634 0.487102 -4.52898e-19)
(4.58104 0.445421 1.01676e-19)
(4.59441 0.48701 3.21246e-19)
(4.50001 0.41007 -7.22275e-19)
(4.49067 0.468933 1.19158e-19)
(4.43746 0.342459 -5.48151e-19)
(4.39127 0.405059 -3.30964e-19)
(4.36553 0.25725 -5.0756e-19)
(4.33324 0.334881 0)
(4.29059 0.15639 -6.5e-19)
(4.22638 0.228686 -2.20307e-19)
(4.29301 0.0511463 -6.96894e-20)
(4.16805 0.126147 -2.08431e-19)
(4.38013 -0.0485387 1.13019e-19)
(4.22188 0.0180138 4.1518e-19)
(4.49395 -0.140399 -6.32987e-20)
(4.34111 -0.0832143 1.62445e-19)
(4.5853 -0.228743 3.61248e-19)
(4.46081 -0.189984 5.18218e-20)
(4.64031 -0.313482 1.64289e-20)
(4.55017 -0.294792 1.6566e-19)
(4.66689 -0.397959 -3.66326e-19)
(4.6002 -0.390781 -1.5333e-19)
(4.6821 -0.48595 9.81612e-20)
(4.62259 -0.494107 -2.03631e-19)
(4.70389 -0.571581 3.59685e-19)
(4.64267 -0.596772 -1.06046e-20)
(4.7452 -0.648215 1.64115e-20)
(4.67827 -0.692839 2.3831e-19)
(4.81064 -0.706748 -9.81689e-20)
(4.74313 -0.770502 -6.42255e-20)
(4.89739 -0.742664 -3.23812e-20)
(4.83279 -0.823596 -7.97153e-21)
(4.99665 -0.755126 -4.53243e-20)
(4.93861 -0.850773 7.8715e-20)
(5.09766 -0.745016 2.04418e-19)
(5.05224 -0.848969 2.61624e-19)
(5.19141 -0.716118 9.35835e-20)
(5.16172 -0.822905 -1.39286e-19)
(5.27214 -0.673005 -1.75953e-19)
(5.25921 -0.778145 -5.66044e-19)
(5.33705 -0.620538 0)
(5.34019 -0.720886 7.91741e-19)
(5.38594 -0.562842 -6.11457e-19)
(5.40037 -0.652528 -3.95216e-19)
(5.41827 -0.504818 1.91825e-18)
(5.4461 -0.585469 -4.85355e-19)
(5.45376 -0.493112 -9.6145e-20)
(5.44255 -0.443525 -8.07481e-19)
(5.17904 0.343233 0)
(5.2014 0.358058 5.43176e-20)
(5.2188 0.32813 7.7615e-20)
(5.13557 0.355939 1.08055e-20)
(5.15714 0.37414 4.19104e-20)
(5.09098 0.362771 7.42711e-20)
(5.10851 0.383177 6.00957e-20)
(5.04803 0.365967 3.44058e-20)
(5.06302 0.38591 -3.08568e-20)
(5.00638 0.366298 -2.08582e-20)
(5.01804 0.386101 -3.16325e-21)
(4.96723 0.365562 2.76392e-20)
(4.97778 0.384799 -1.58623e-20)
(4.93025 0.365223 7.37463e-23)
(4.93975 0.383171 4.05337e-20)
(4.89587 0.36737 -8.07769e-20)
(4.9062 0.383721 -2.4659e-20)
(4.86421 0.373488 -1.24763e-20)
(4.87567 0.388025 7.60734e-21)
(4.83632 0.384416 1.33427e-19)
(4.84892 0.397659 6.42259e-20)
(4.81339 0.400049 1.43025e-19)
(4.82657 0.412569 1.356e-20)
(4.79558 0.419486 3.38201e-20)
(4.80878 0.432477 1.614e-20)