/*--------------------------------*- C++ -*----------------------------------*\
  =========                 |
  \\      /  F ield         | OpenFOAM: The Open Source CFD Toolbox
   \\    /   O peration     | Website:  https://openfoam.org
    \\  /    A nd           | Version:  6
     \\/     M anipulation  |
\*---------------------------------------------------------------------------*/
FoamFile
{
    version     2.0;
    format      ascii;
    class       volScalarField;
    location    "1.7";
    object      p;
}
// * * * * * * * * * * * * * * * * * * * * * * * * * * * * * * * * * * * * * //

dimensions      [1 -1 -2 0 0 0 0];

internalField   nonuniform List<scalar> 
5835
(
3.34702
1
3.25063
1.61388
1
1
1
1.00298
1
1
1
2.25395
1
1
2.36571
1
5.00393
4.80297
1
1
5.00533
1
5.32731
2.28333
1
1
2.55383
1
1.29639
1
1.04193
1
1
1.00438
1.00915
1
1
1
1.0008
1.00063
1
1.00007
1
1.00008
1
1
1
1.00001
1
1
1
1
1
1
1
1
1
1
1
1
1.23786
1
1.34181
1
1
1.00002
1.00001
1
1.0042
1.00593
1.00081
1.00056
1
1
1
1
1.04667
1.04884
1.00008
1
1
1.00009
1
3.36311
3.19144
1
1
1
1.00375
1.56288
1
1
1
1.00007
1.00006
1
1
1
1.68721
1.00007
1
1.00008
1
1
1.97608
1
1.00001
2.11816
1
1.00009
1
1
1.63661
1
1
1
1
1
1
1.92708
1.83424
1
1
1
1
1
1
1
1
1.00004
1.00004
1
1
1.00012
1
1
4.89562
1
4.98346
1
1
1
4.92959
4.8454
4.92117
4.76712
3.81629
3.58884
1
1
3.74872
1
1
1
3.33364
2.7732
1.80499
1
1.18144
2.70733
1
1
1
1
1.91376
1
1
1.68165
1
1
1.05384
1.04698
1.02948
1
1
1.01461
1
1.86966
1.26159
1.47108
1
1
1.00002
1.00002
1
1.01916
1
1.00002
1.00002
1
1
1
1
1.00001
1.00002
1
1
1
1
1
4.73049
4.83271
1
1
1
1
1
1.00001
1
1
1.00421
1
1.00326
1
1.00182
1
1
1
1
1.00001
1
1
1.00001
1.00377
1
1.00606
1.00249
4.94969
1
1
1.00136
1
1
1
1
1
3.62915
1
3.61653
1.00032
1
1.0003
1.00023
1.00309
1
1.00024
1
1.00033
1.00016
1
1.2311
1
1
1
1
1
1
1.67947
1
1
1
2.05933
2.23104
1
2.24755
1
1
1
1.96658
2.09464
1
1
1
1
1
1.05484
1
1
1
1
1
1
2.32655
1.00001
1
1
1
1
1
1
4.53794
2.94224
1
2.94823
1
1
1
1
1
4.42286
1
4.68585
4.7116
4.26574
2.83099
4.32507
1
4.47311
1
3.49725
5.11624
3.31595
4.55375
2.35384
1
1
1.00047
2.25904
1.00006
1
1
1.01844
1
2.52539
1
2.72818
1.00063
1.00046
4.53785
1.00432
1
1.82312
1
1.00914
1
1.00549
1.00006
1
1.00004
1
1
4.68922
1.64944
4.81983
1
1.0003
1
1.00021
1
1.00025
2.15088
1
1
1.04041
1.00251
1
1.18121
1
2.10658
1.00456
1.43756
1
1.00003
1.00025
2.43956
1
1
1
1
1.00015
1.07378
1
1
1
1.5685
1.00322
1
1
1
1
1
1
1
1
1
1
1
1
1
1
1
1
1
1
1
1
1
1
1
1
1
1
1
1
1.0006
1.02454
1
1.00975
1.5639
1.00003
1.00031
1
1
1
1
1
1.79588
1
1
1
1
1.00008
1
1.03181
1
1
1
1
1.09209
1
1
1.49694
1.00021
1
1.02796
1
1
1.00019
1
1.3938
1.23653
1
1
1.21984
1.00287
1
1
1.0002
1.004
1
1.19272
1
1.01581
1
1.00372
1
1
1.00025
1.00004
1.00635
1.00077
1
1.22242
1
1.00073
1.00005
1
1
1.24393
1
1
1.01734
1
1.27275
1
1.03409
1.00005
1.32589
1
1.00001
1
1.04385
1
1.0001
1
1.00009
1
1.00014
1.00002
1
1
1.00002
1
1
1
1.00002
1.00003
1
1
1
1.91281
1.00004
1
1
1.82431
1
1
1
2.00895
1
1
1.00003
1
1.65325
1
1
4.91119
1
1
4.83098
4.79926
4.71905
1
1
1
1
3.64601
3.87002
1
1
1
3.62522
4.65775
1
4.77248
1
1
1
3.57712
1
2.63206
1
4.77507
1
3.12714
1.81714
1.26531
1.00002
1.00002
1.19975
1
1.77799
1.00002
1.58952
1
1
1
1
1
1
1
1.03609
4.62091
1
1.4034
1
1
1.05074
1
1.01604
1
1
1.01608
1
1
1.00001
4.60454
1
1
1
1.05117
1.00001
1
1
1.26175
1
1.00376
1.0036
1
1.00032
1.00213
1
1.00205
1.00034
1
1.00435
1.00024
1.00022
1
1
1.03744
1
1
1
2.69196
1
1
1.00001
1
1.00014
1
2.09171
1.91281
2.15586
1
2.17897
1.00111
1
1
4.66189
1
1.99486
1
1
2.35745
1
4.31193
1
3.07237
3.67069
1
1
4.41243
4.25319
3.17496
1
1
1
1
2.35616
4.55649
1
2.44072
1
1
1
1
4.71558
4.53471
1
2.30089
1
4.33303
1
1
1
4.52612
1.87045
4.59534
1
1.00055
1
1.69862
1.6949
1
1
1.00216
1
1.23537
2.10327
1.03217
1
2.23662
1
1
1
1
1
1
1
1
1
1
1
1.00366
1
1
1
1
1
1.37373
1.08172
1
1
1.00005
1.00005
1
1
1
1
1
1.01109
1
1
1.51434
1.57312
1.02066
1
1
1.00635
1.00003
1
1.00018
1.00024
1
1
1
1
1.00216
1
1
1
1
1
1.00023
1
1.37982
1
1
1
1.0717
1.03412
1.26134
1
1.00023
1
1.18721
1.1984
1.01821
1
1
1.23204
1
1
1.23013
1
1
1
1.00392
1.00359
1
1.31474
1
1
1.0079
1.00005
1
1.00082
1.00084
1
1.35293
1.00005
1.01995
1
1
1.00001
1
1
1.02678
1
1.00003
1
1.03971
1
1.0001
1.00009
1
1
1
1
1.00003
1.00002
1
1
1.00003
1.00001
1
1
1
1
1.0071
1
1
1
1
1.00778
1.00379
1.00922
1.00425
1
1
1
1
1
1.48053
1.00061
1.0005
1.00079
1.0005
1
1
1.02498
1.01266
1
1
1
1
1
1.00286
1
1
1.0064
1.00326
1
1
1
1
2.96708
3.06244
3.14734
2.81557
1
1
1
1
1
1
1.00001
1
1
1
1
1
1
1
1
1
1
1
1.00001
1
1
1
1.00067
1
1.00031
2.23098
1.00042
1
1.81932
1.00025
1
1
2.54009
1
1
1
1.00029
1.00019
1.41944
1
1
1.00029
1.00016
1
1
1.71681
1
1.00015
1
1
1
2.57446
1.81906
1
1
1
1
1.68787
1
3.35803
1
3.58119
1
1.00751
1
1
1
1
1
1
1
2.58846
2.73237
1
1
1.89492
1
2.51297
1
1.70119
1
1
4.6569
4.79943
1
1
1
4.47888
4.76768
4.86777
1
4.31868
1
1
1
5.13303
3.94775
1
4.75849
3.85348
1
1
1
4.8264
1
1
4.76564
1
4.00977
1
1
1
4.24421
3.80295
4.38123
1
1
1
3.85687
4.96806
4.78805
4.02209
4.01226
1
1
4.61995
1
1
3.90655
3.95292
4.44249
1
4.32135
1
1.84479
1
1
1
1
1.00006
1
1
1
1
2.56015
2.7985
1
1
1.94466
1
1
4.12755
1
1
4.09081
1
1.99698
1
1
1
1.00017
1
1.00155
1.01043
1.00003
1
1.03338
1.00351
1.08868
1
1
1.00046
1
1.21323
1
1
1
1
1
1.00001
1
1.00006
1.00007
1.00071
1
1.50574
1.00632
1
1
1
2.67977
4.43024
1
1
2.10786
4.19113
1
2.82654
2.06244
1
1
1
1.01603
1.002
1.00001
1.00026
1.00002
1
1
1
1
1
1
1.13374
1
1.97332
1
1
1
1
1
2.16153
3.12502
1
1.01528
1
1
1.01328
1.0157
1
1
1.00225
1.00033
1
1.01342
1.01937
1
1.00016
1
1.00172
1.00047
1
1
1.00829
1.00246
1.00887
1
1.00124
1
1.0004
1
1.00705
1
1.00178
1.01178
1
1
1.00586
1
1.00156
1.00809
1
1.00015
1.00068
1
1
1
1
1
1.00012
1
1
1
1.00074
1.00486
1.00048
1
1
1.00014
1
1.00821
1
1.00212
1.00008
1.0004
1
1.00008
1
1.00008
1.16111
1
1
1
1.08822
1
1.00004
1
1
1
1.00045
1.00013
1
1.11946
1.00365
1.00003
1.00005
1
1
1
1.00004
1.00006
1
1
1.02689
1.00003
1
1.00003
1
1.001
1
1
1.00074
1
1
1.00054
1.00221
1.01277
1
1.00003
1
1.02654
1
1.08531
1
1
1.00123
1
1.00002
1.00072
1
1
1.00015
1
1.00003
1
1.06307
1
1.00188
1.00195
1
1
1.00279
1
1.03208
1.02462
1.00029
1
1
1.00017
1
1
1.03176
1
1.03896
1.00002
1
1.00026
1.00032
1
1.00678
1
1.00003
1
1.0989
1
1.07139
1
1.00107
1
1.00078
1.00042
1
1
1
1
1.0014
1
1
1.17114
1.133
1
1.00104
1.27727
1.47004
1
1
1.09281
1
1
1.37852
1
1.01308
1.05675
1
1
1
2.14141
1
1.33216
1
1.01099
1.00252
1
1
1.00563
1
1.97042
1
1.00945
1.00004
1
1
1.0001
1
1.05703
1
1.00089
1
1.20425
1.87146
1
1
1
1
1
1.00009
1
1.00729
1.096
1.90235
1.04074
1
1
1.00006
1
1
1.00018
1
1.706
1
1.00602
1
1.001
1.00005
1
1.00012
1.63866
1.10609
1
1
1.03125
1.6262
1.44361
1
1.56689
1
1.47623
1
1.39986
1.50164
1.34247
1
1
1.0004
1
1.00009
1
1
1.1273
1
1.01197
1.42501
2.11716
1.31178
1
1
1.38875
2.88174
3.90156
1
1
1
1
1
1
1
1
1
1.78775
4.85992
1
1
1
2.85303
3.04238
1
1
3.85768
1.06511
1
1
2.5359
1
1
2.58255
3.61548
4.56834
1
4.32219
3.7576
1
4.40715
1
3.78595
4.27643
2.85588
3.87745
3.75863
1
3.03468
1.94621
3.79322
1.01496
2.85024
2.83546
3.77274
1
1
1
1
1
4.09722
4.09417
1
1
1
2.19472
3.13722
1
1
2.84646
1.4069
1
3.86086
1
1
1
3.67187
2.87556
1.05436
1
2.57748
1
2.3556
1
2.09036
1
1
1.49379
1.83879
1
1
2.77264
1
1.1804
1
1
1
1.00189
1.08508
1
1
1.00766
3.76904
1
1
1.0095
3.73922
1
1
1
1.02633
1
1
1.7411
1
1
1.00024
1
1.00052
1.00316
1
1.08982
1.42891
2.73211
1
1.71668
2.90023
1.00011
1
1
1.46277
3.91899
3.88823
1
1.00041
1
1
1
1.00001
2.91711
1
1
1.00001
1
1.00001
1.00001
1
1.00006
3.98744
1
1
1
1.42565
1
1.00169
2.75956
2.02208
1.78809
1
1
1.00004
3.29165
4.04123
1.00003
1
1
1
1
1.48642
1.00002
1
1
1.53821
1
1
1.73885
1
1
1
1
1
1
1
1
1
1
1
1
1
1
1
1
1
1
1
1
1
1
1
1
1
1
1
1
1
1
1
1
1
1
1.00001
1
1
1.00001
1
1
1
1
1
1
1
1
1
1
1
1
1
1.00001
1
1
1
4.30296
1
1.00026
1.79731
1
1
1.90233
1
1
1
1.34534
1
1
1.81673
1.70947
1
1.98758
1
1
1.03501
1
1.00199
1
1.41505
1.00391
1
1.08809
1
1
1
1
1.00652
1
1.03136
1.00001
1.01054
1
1
1.00032
1.07316
1
1
1
1.00001
1
1.00579
1.0079
1
1
1
3.25481
1
1
1
1
1.04389
1.00006
1
1
4.4403
1
1.00058
1
1.06816
1
1.0014
1
4.13324
1
1
1.00002
1
1
1.4395
1.31235
1
2.25381
1
1
1.00047
4.69811
1
1
4.16027
1.00041
2.35417
1
1.00937
1
1
1.00125
1.46168
1
1.0856
1
1
1.00092
1
1
1
1.0626
1.43232
1
1
1.62034
1
1.27832
1
1
1.00054
1
1
1.57524
1.06796
1
1.00095
1
1.00164
1.00002
1
1
1.41885
1.00003
1
1
1.00002
1.00001
1
1
1
1.00001
1
1
1.00054
1
1
1.00001
1.63933
1
1.00001
1
1
1.44176
1
1.89198
1
1.71404
1
1
1.00001
1
1
1
1.7967
1
1.00002
1
1
1
1
1
1
1
2.14097
2.40875
1
1
1
1
1
1
1
1
1
2.56174
1
4.34534
1
1
1
2.101
1
2.31545
1.00003
1.00001
1
1
3.99507
1
1
1
2.26224
1
1
1
1
1
1
1
1
1
1
1.00008
1
4.99619
1
4.30776
1
1
1.00001
1
1
1
1.00004
1.00001
1
1
1
1.0001
1.00003
1
1.00006
1
1
1.00007
1.00005
1
1
1
1.00009
1.00012
1.00004
1
1
2.45351
1
4.85521
1
4.26647
1
1
1
2.9107
1
4.39115
1
4.12488
1
3.15571
4.07935
3.22976
2.66192
1
1
4.31717
1
1
4.76051
1
1
4.42521
1
3.93178
4.48859
1
1
1
4.1801
1
3.85953
1
4.94389
1
4.29466
1
1.55286
1
1
1
1
1.00003
1
1.00132
1.26729
1
1
1
1
1
3.14247
2.59288
1
1
4.08015
4.4776
1
1
4.57505
5.01141
1
1
4.13983
4.65017
1
4.02652
5.39437
1
1
1
5.68536
5.3697
1
5.93455
1
5.60513
1
1
4.0827
4.50705
4.41068
1
1
4.59626
3.9201
1
4.04677
1
4.10349
1
1
4.15559
4.09746
1
1
4.30674
1
1
4.35473
4.41047
1
1
4.74007
4.65524
1
1
5.79327
5.82744
1
4.9311
5.02266
1
1
5.85885
1
5.57544
5.65268
1
1
6.0312
1
5.50037
1
5.50086
5.28991
1
1
5.22037
2.32967
1
1
2.28626
1
1
1
1
1.37496
1
1
2.98912
2.79978
1
1
1.00111
1
4.66566
1
1
4.4151
1
4.85665
4.93068
1
3.70001
1
3.8898
1
5.09144
1
1
1
5.22121
5.17209
4.23149
4.23333
1
1
1
1
4.27782
1
1
1
1
1
1
4.96713
3.79341
3.77321
5.03095
3.80353
4.35529
1
1
5.42336
1
3.6902
5.24394
4.08782
1
1
5.01047
1
4.19399
1
4.76872
4.51724
1
1.24204
1
1.00091
1
1
1
1
3.08883
2.32842
1
1
1.00381
1
1.15125
1
1
1
2.37406
3.33647
4.30165
1
1
1
4.6565
1
4.39879
4.50192
1
1.00019
1
1.0017
1
1.01375
1
1.01727
1.00003
1
1.00168
1
1.00018
1
1.08627
1
1.10839
1
1
1
1
1
1
1
1
1.00002
1
1.0002
1
1.00194
1.00654
1
1.13383
1
1
4.37814
1.85981
3.05039
3.07727
1
1
1.82448
3.97641
1.80743
1
1
1.1394
1
1.65322
1
1.01922
1
1.00179
1.00027
1.00002
1
1
1
1
1
1
1
1
1.0088
1
1.0152
1.00124
1
1.00016
1
1
1.00148
1
1.01717
1.00016
1
1
1.01502
1
1.00254
1.00027
1
1.00021
1
1
1.01362
1
1.00165
1.01049
1.00136
1.00034
1
1
1
1.01037
1
1
1.00761
1.00138
1.00114
1
1
1.00021
1.00014
1
1.00966
1
1.0011
1.00718
1
1.00082
1
1
1.00719
1
1.00016
1.00073
1.00576
1
1
1
1
1.0006
1.00013
1
1.00011
1
1.0074
1.00067
1
1.00529
1
1.00055
1.00012
1
1
1
1.00045
1
1.00285
1
1.00051
1
1.0001
1
1.00009
1
1.00399
1
1.00263
1.00422
1.00041
1
1.00295
1.00038
1
1
1.0001
1.0005
1
1.00009
1
1.00012
1.0001
1.0763
1
1
1.13248
1.00003
1.00005
1
1
1
1
1.00004
1
1.07357
1
1.00002
1.00004
1
1.07786
1.00407
1
1.00005
1
1.05861
1.00215
1
1.12531
1
1.00254
1.00005
1
1.06837
1
1.00003
1
1.00004
1
1
1.00057
1
1
1.00058
1.00003
1
1.00003
1
1
1.00882
1
1.00002
1.00003
1
1
1.0006
1
1.00062
1
1
1.03876
1.00665
1.00003
1
1.06191
1.00011
1
1.00002
1
1
1.03494
1.00085
1
1.01296
1
1.00083
1
1.00013
1
1.04074
1
1.00011
1.01455
1
1.00135
1
1.00094
1
1
1.03111
1
1.00212
1.0022
1
1
1.0002
1.02985
1.00015
1
1.02517
1
1
1.00211
1.00193
1
1.00028
1.02624
1.00003
1
1
1.0002
1.03305
1
1
1.00002
1.03937
1
1.00284
1
1.00034
1.00035
1.00003
1.00391
1
1
1.00002
1.00031
1
1.04234
1.00032
1.00581
1
1
1.04904
1
1.03368
1
1.00102
1
1.00084
1
1.03612
1.00104
1
1.00093
1
1.09954
1
1
1.0853
1.06758
1
1.12757
1
1.12788
1
1
1.21561
1.421
1
1
1.25405
1.16609
1
1.3543
1
1.08657
1
1.00664
1.07004
1
1
1.20899
1.381
1
1
1.00599
1
1
1.06937
1.06009
1
1.0075
1
1
1.00545
1
1
1.00003
1.29117
1
1.22716
1.05868
2.20472
1
1.00745
1
1
1.2318
2.00353
1
1.04465
1
1
1
2.1281
1
1
1
1.00537
1.96262
1
1
1
1.00168
1.01199
1.00057
1
1
1.00004
1.00051
1
1.00129
1
1.17935
1
1
1.00046
1
1.07299
1
1.14584
1
1
1.00059
1.0262
1.00007
1
1.01268
1.0022
1
1.00004
1
1
1.01919
1
1.00184
1
1
1.07098
1
1.00008
1
1
1.00004
1.70288
1
1
1.07913
1.00029
1.10122
1
1
1.01376
1
1
1.01093
1
1
1.01012
1.55341
1
1
1.00007
1.00012
1
1.0002
1
1
1.11215
1
1.01116
1
1
1
1.4921
1
1
1.00008
1.00014
1.09273
1
1.05965
1.01219
1
1.35172
1
1
1.55542
1
1.00016
1.00014
1
1
1.04204
1.09124
1
1
1.00013
1.01039
1
1.27999
1
1
1.00063
1
1.00556
1.16538
1
1.00014
1
1
1.09246
1
1.00012
1.01277
1
3.75471
1
1
1
1.74073
3.0782
2.98159
2.97498
1
1
3.0592
3.13511
1
1
1.66867
1
3.67515
3.18474
1
1
1
1
1
2.96577
1
1
1
1.57478
3.82717
1
1
2.9332
1
1
4.21039
3.5905
4.3623
1
3.02823
3.83633
1.79836
3.43951
4.12001
3.97109
3.04069
2.48757
1
3.64619
2.82819
3.4906
1
1
1.72062
4.33469
3.61514
1
1
1
4.01001
1.85333
1
1.00014
1
1
1
1
3.83178
4.31989
1
1
2.30871
3.0456
3.17287
3.31273
1.00062
3.42839
3.89236
1
1
1
2.88031
1
1
1
1
3.15411
1
1.41878
1.14211
1
1
1.00194
1
1.01646
1.76602
1
2.11541
1
2.32333
2.64295
1
1
1.00037
1
1.00133
3.00004
1
3.1835
1
1.00009
1
2.69221
1
1
3.41333
3.77888
1
1
1
1.00005
1.00028
2.90798
3.00252
1
1
1
1.61066
1.60671
1
1.00002
1
1
1
1
1.00001
1
1
1
1
1
1
1
1
1
1.00001
1
1
1
1
1
1
1
1
1
1
1
1
1
1
1
1.00001
1
1
1
1
1
1
1
1
1
1
1
1
1
1
1.00001
1.00001
1
1.00001
1
1
1
1
1
1
1
1
1
1
1
1
1
1
1
1
1.00001
1
1
1
1
1
1
1
1
1
1.00001
1
1
1
1
1
1
2.96398
1
2.97208
1
1.00001
1
1.00001
1
1.00031
3.60281
1
1
3.60461
1.00001
1.00002
1
1
1
1.00047
1
3.40115
1
3.04979
1.00001
1.00001
1
1
1
1
1
3.15803
3.90671
1
1
3.49925
3.68489
1
1.00051
1
1
1
3.65721
4.06883
1.46291
1.43081
2.59616
1
4.26926
4.00154
1
1
1.40816
1.64044
1
1.60408
1.58299
1
1
1.6954
1
1.63634
1
1.49086
1.47736
2.33903
1
1.66356
1.76506
1
1
1
2.19145
1
1
1.69318
1.8494
1.00001
1.00001
1.00023
1
1
2.02786
1.81709
1
1
1
1
1.00001
1.00001
1.00001
1.00001
1
1
1
1
1.00036
1
1
1
1.34227
1
1
1.00211
1.44853
1.55604
1.57257
1.00422
1
1
1.33929
1.00001
1.00001
1
1.58886
1
1
1
1.57801
1
1
1.74473
1.70713
1.86482
1.97597
1
1
1.39092
1
1.00356
1
1
1
1
1
1.02479
1
1
1
1
1
1
1
1
1
1
1.00608
1
1
1.03185
1.00002
1.00002
1
1
1
1.0289
1.00566
1.00706
1
1.00003
1.00002
1
1
1.00001
1.00001
1
1
1.00742
1
1
1.04636
1
1.04406
1
3.35867
1
3.16802
1
1
1.05708
1
4.28751
4.5526
1
1
1
4.14764
4.29933
1
1
1.05698
1
1.01017
1
1
1.01449
1
1
1.0004
1
1
1
1
1.00038
1.00051
1.01081
1
1
1
1.01506
1
1.00061
1
1
1
1.08716
1
1
1.1351
1
1
1.00057
1
1.00069
1
1.08043
1.10074
1.00066
1
1.3763
1
1
1
1.00071
1
1.38017
1.08908
1.5482
1
1.53549
1
1
1
1.47181
1.00165
1.43227
1
1.00037
1
1
1.52385
1
1
1.00178
1.0007
1.00128
1.4735
1
1
1.00002
1
1
1
1.00002
1
1.00002
1.00001
1.00001
1
1
1
1
1
1
1
1
1
1
1
1
1
1.00002
1.00002
1
1
1
1
1
1
1
1.00001
1.00001
1.00001
1
1
1
1
1
1
1.00002
1
1
1.00002
1
1
1
1
1.00003
1.00002
1
1
1
1
1
1
1
1.56938
1
1.00001
1
1
1
2.64136
1
2.30617
1
3.64853
1
1
4.37001
4.20552
1
1.74192
1
1
1
1
1
1
1
1
1
1
1.56957
1
1
1
1
1
1
1
1.00001
1
1
1.00001
1
1
1
1.6273
1
1
1
1
1
1
1
1
1.00003
1
1
2.55225
1
1
1
1
1
1.85852
1
2.26918
2.21383
1
1.80316
1
1
1.00001
1
1
2.24224
1
2.42321
1.00003
1.00004
1
1
2.0789
1.00001
1.00005
1.00002
1.00005
1
1
1
1
2.23197
1.00004
1.00005
1
1
2.11001
1.00003
1.00004
1
1
1
1
1.00007
1.00005
1
1
1
1
1
1
1
1
4.61735
4.41445
4.37061
1
4.22625
1
1
3.25975
3.30883
1
1
3.31805
1
3.04422
2.86578
1
1
4.68176
3.96435
3.93152
1
1
4.44194
4.48131
1
4.34284
1
4.54031
1
1
4.42504
1
4.177
1
3.99528
1
1
1
1.29102
1.00097
1
1
1
1
2.96948
2.52883
1
1.00458
1
1.16802
1
1
1
2.52053
3.22774
1.28632
1
1.00107
1
1
1
1
3.04487
2.52912
1
1
1.00166
1
1.23813
1
1
1
1
1
3.57863
2.69785
1
1.22522
1
1.00404
1
1
1
1
2.4391
3.19842
1
1
1
1.001
1.00117
1
1
1
1
1.26856
1.21163
1
1
1
1
1
1
3.31726
3.1272
2.5119
2.44519
1
1
4.85975
1
4.81183
1
1
1
1
1
1
1
3.51114
1.00543
3.57985
1.73774
1.43674
3.19379
1.0022
1
1
1
1
1
1
1
1
2.86031
4.39537
4.65494
4.85028
5.32961
4.62252
5.10975
4.46205
4.2582
5.19925
4.88604
5.01146
4.55636
1
1
1
1
1
1
1
1
1
1
1
1
1
1
1
1
3.53269
1
1
1
1
1
1
1.3399
1.23243
1.2058
1.14406
1.09476
1
1
1
1
1
1
1
1
1
1
1
1.10359
1.16418
1
1
1
1
1
1.11739
1.23401
1.08561
1.1451
1.09348
1.14241
1
1
1
1
1
1
1.80319
2.09062
1.85937
1
1
1
1
1
1
1
1
1
1
1
1
1.35805
1.48055
1.25234
1.31206
1.16625
1
1
1
1
1
1.03938
1.07056
1.0178
1.03444
1.01204
1.05768
1.02774
1
1
1
1
1
1
1
1
1
1
1
1
1
1
1
1
1.02627
1.02401
1.01229
1
1
1
1
1
1
1
1
1.20537
1.36856
1.1219
1.20576
1.15363
1.23938
1
1
1
1.00001
1.00002
1.00001
1.00001
1
1.00001
1.00001
1.00002
1.00002
1.00001
1.00002
1.00002
1
1
1
1
1
1
1
1
1
1
1
1
1.03689
1.06538
1.01862
1.03469
1.01549
1.02427
1
1
1
1
1
1
1
1
1
1
1
1
3.0295
2.62738
3.69073
3.38668
3.76716
3.71153
1
1
1
1
1
1
2.86571
3.51028
2.23231
2.90959
2.55246
3.32834
1
1
1
1
1
1.00002
1.00001
1.00001
1
1.00001
1.00001
1
1
1
1
1
1
1
1
1
1
1
1
1
1
1
1
1
1
1.00001
1.00001
1
1
1
1
1
1
1
1
1
1
1
1
1.00001
1.00001
1.00001
1.00001
1
1.00498
1.00291
1.01159
1.00861
1.01236
1.01098
1
1
1
1
1
1
1
1
1
1
1
1
1
1
1
1
4.49944
4.02167
4.34612
4.24446
1.00058
1.00201
1.00309
1.00484
1
1
1
1
1
1.00032
1.00024
1.00057
1.00057
1.00098
1.00001
1.00001
1.00001
1.00001
1.00001
1.00001
1.00001
1
1
1
1
1
1
1
1
1
1
1
1
1
1
1
1
1
1
1
1
1
1.00036
1.00026
1.00082
1.00068
1.00108
1.00093
1
1
1
1
1
1
1.01337
1.01865
1.0138
1.01292
1
1
1
1
1
1
1
1
1
1
1
1
1
1
1
1
1
1
1.00013
1.00024
1.00003
1.00008
1.00003
1.00004
2.77482
2.2127
2.45942
1.00041
1.00084
1.00028
1.00045
1.00026
1
1
1
1
1
1
1
1
1.40741
1.22132
1.15789
1.09197
1.29927
1.13386
1.36436
1.16269
1
1
1
1
1
1
1.5922
1.94038
1.55749
1.7105
1.45977
1.00006
1.00003
1.00018
1.00009
1.00014
1.00006
1
1
1
1
1
1
1.16001
1.07211
1.09018
1.05208
1.25587
1.13011
1.21911
1.09458
1.00229
1.00159
1.00501
1.00353
1.00392
1.00384
1
1
1.01128
1.02631
1.03712
1.07967
1.02323
1.05887
1.02264
1.06243
1
1
1
1
1
1
1
1
1.41849
1.22342
1.51159
1.29812
1.20899
1.14292
1.38673
1.19453
1
1
1
1
1
1
1.00105
1.00252
1.00067
1.00133
1.00124
1.00252
1.00087
1.00203
2.36436
1.88823
2.61575
2.0123
2.61012
2.04492
2.48403
1.91112
1
1
1
1
1
1
1
1
1
1
1
1
1
1.00002
1.00001
1.00001
1
1
1
1.6494
2.00861
1.5375
1.73108
1.52619
1.66758
1
1
1
1
1
1
1
1
1
1
1
1
1
1
1
1
1
1
1
1
2.43365
2.09489
3.20553
2.78625
3.34021
3.20678
3.74824
3.76312
4.04794
3.99672
4.10803
3.88017
3.74962
3.77546
4.26034
4.05819
4.10702
3.90095
4.37327
3.4148
4.02729
3.75208
4.51598
3.84131
1
1
1
1
1
1
2.83918
2.08315
1.80148
1.53325
2.3746
1.74551
1
1
1
1
1
1
1
1
1
1
1
1
1
1
1
1
1
1
1
1
1
1
1
3.98049
3.5532
3.33653
3.0945
3.74121
3.22984
4.01205
4.71021
3.96332
4.46572
1
1
1
1
1
1
3.19627
3.73312
2.75011
3.08068
2.79309
3.13009
1
1
1
1
1
1
4.55432
4.29251
5.06381
4.90304
5.01243
4.5855
1.91094
2.48826
1.66018
2.00656
1.49019
1
1
1
1
1
1
4.09006
3.99476
4.85353
4.54189
4.66611
4.27346
3.71974
4.8059
4.22251
4.95713
4.13516
4.77057
2.10815
2.7172
1.69621
1.99393
1.6505
1.86081
1.00725
1.00382
1.01569
1.01036
1.01475
1.01254
1
1
1
1
1
1
1
1
1
1
1
1
1
4.42142
4.18062
3.69921
4.4106
4.22112
1
1
1.00652
1.00503
1.00432
3.9911
3.98981
4.62326
4.37105
4.43201
4.14625
1
1
1
1
1
1
1
1
4.03115
3.97068
4.18931
4.16534
4.29895
4.06705
1.00018
1.00031
1.00032
1.00067
1.00026
1.00056
1
1
1
1
1
1.16305
1.34329
1.00172
1.00158
1.00391
1.00356
1.00673
1.00643
1
1
1
1
1
1
1
1
1
1
1
1
1
1
1
1
1
1
1
1
1
1
1
1
1
1
1
1
1
1
1
1.08465
1.06517
1.18881
1.15341
1.20065
1.18819
1.02
1.03856
1.0084
1.01562
1.00644
1.00602
1
1
1
1
1
1
1
1
1
1
1
1
1
1
1
1
1.00002
1.00004
1.00001
1.00002
1.00001
1.00001
1.0001
1.00005
1.00024
1.00012
1.00017
1.00007
1.34267
1.2676
2.19114
1.01273
1.0109
1.02945
1.02446
1.04034
1
1
1
1
1
1
1.00003
1.0002
1.0003
1.00064
1.00015
1.00045
1
1
1
1
1.00167
1.0006
1.00188
1.00366
1
1
1
1
1
1
1.00001
1.00001
1
1.00001
1
1
1
1
1
1
1.00001
1
1.00001
1.00001
1.00002
1.00001
1.00001
1
1
1.00001
1
1
1
1
1
1
1
1
1
1.00001
1.00001
1.00001
1.00001
1
1
1
1
1
1
1
1
1.00001
1.00001
1.00001
1.00001
1
1
1
1
1.07021
1.1244
1.09967
1.22113
1
1
1
1
1
1
1
1
1
1
1
1
2.2405
2.63924
1
1
1
1
1.00004
1.00004
1.00002
1
1
1
1
1
1
1
1
1
1
1
1
1
1
1
1
1.02563
1.01832
1.05259
1.0388
1.04528
1.03766
1.00001
1.00002
1.00005
1.00008
1.00002
1.00005
1.00001
1.00002
1.00002
1.00003
1.00001
1.00003
1.00002
1.00007
1.00009
1.00019
1.00005
1.00014
1.002
1.00074
1.00445
1.00191
1
1
1
1
1
1
1
1
1.09527
1.05984
1
1
1
1
1
1
1.00009
1.00002
1.0002
1.00007
1.00005
1.00005
1.00015
1.00009
1.00032
1.00019
1.00014
1.00009
1
1
1
1
1
1
1.00247
1.00062
1.00827
1.00412
1.00558
1.00192
1.04287
1.02599
1.05861
1.02526
1.02416
1.00822
1.00128
1.00267
1.00049
1.00114
1.00041
1.00062
1.03411
1.02428
1
1
1
1
1
1
1.00017
1.00003
1.00034
1.0001
1
1
1
1
1
1
1
1.33056
1.52984
1.16266
1.23655
1.13284
1.16972
1
1
1
1
1
1
1.314
1.46306
1.22895
1.38294
1.23197
1.40763
1.35864
1.56121
1
1
1
1
1
1.00284
1.00096
1.00123
1.0005
1.00367
1.00187
1.00275
1.00117
1.02831
1.01444
1.01035
1.00425
1.00671
1.0025
1
1
1
1
1
1
1
1
1
1
1
1.18807
1.37447
1.07362
1.15554
1.07045
1.1154
1
1
1
1
1
1
1
1
1
1
1
1.00066
1.00035
1.00023
1.00015
1.00052
1.00024
1
1
1
1
1
1.00074
1.00188
1.00286
1.00556
1.00149
1.00416
1
1
1
1
1
1
1.0049
1.01077
1.00226
1.0044
1.00202
1.00239
1
1
1
1
1
1
1.00058
1.0011
1.00042
1.00092
1
1
1
1
1
1
1
1
1
1
1
1
1.00032
1.00069
1.00022
1.00033
1.00016
1.00019
1
1
1
1
1.00001
1.00001
1.00001
1.00002
1
1
1
1
1
1
1
1
1
1
1.03373
1.01838
1.04295
1.02009
1
1
1
1
1.0296
1.01575
1.01412
1.00677
1.00986
1.00387
1
1
1
1
1
1
1.00001
1.00002
1.00001
1.00001
1.00001
1.00002
1
1
1.16091
1.32022
1.07519
1.15746
1.04013
1
1
1
1
1
1.19962
1.42084
1.11311
1.22002
1.087
1
1
1
1
1
1
1
1
1
1
1
1
1
1
1
1
1.03064
1.02076
1.06333
1.04938
1.05312
1
1
1
1
1
1
1.05738
1.03454
1.11675
1.08752
1.1023
1.10192
1.28132
1.494
1.15474
1.26013
1.12854
1.18052
1.00003
1.00007
1.00003
1.00005
1
1
1
1
1.00006
1.00005
1
1
1
1
1
1
1
1
1
1
1
1.00001
1.00001
1.00003
1.00002
1.00003
1.00001
1
1
1
1
1
1
1.00024
1.00017
1
1
1
1
1
1
1.00002
1.00001
1.00003
1.00003
1.00003
1.00003
1.00002
1.00003
1.00001
1.00002
1.00001
1.00001
1.38035
1.23642
1.33342
1.2857
1
1
1
1
1
1
1
1
1.00227
1.00157
1.00551
1.00314
1
1
1
1
1
1
1
1
1
1
1
1
1
1
1
1
1
1
3.29608
3.11064
3.33454
3.121
2.78579
2.43777
2.71029
2.47398
1
1
1
1
1
1
1
1
1
1
1
1
1
1
1
1
1
1
1.00073
4.51524
4.78925
4.77764
5.17118
1
1
1
1
4.75374
4.58217
4.53033
4.24782
1
1
1
1
1.09893
1.16102
1.06519
1.10632
1.04285
1
1
1
1
1
1.84579
2.16614
1.54946
1.67469
1
1
1
1
1
1
1
1
1
1
1
1
1
1
1
1
1
1
1
1
1.01518
1.02875
1.23634
1.27664
1
1
1
1
1
1
1
1
1
1
1
1
1
1
1
1
1
1
1
1
1
1.0059
1.00008
1.0001
1.00009
1.0001
1
1
1
1
1
1
1
1.0264
1.02975
1.05893
1.06331
3.12574
3.65433
3.15611
3.91236
2.45496
2.51417
2.64077
2.81388
1
1
1
1
1
4.02429
3.66613
1
1
1
1
1
1
1
1
1
1.00001
1.00001
1.00998
1.00456
1.00528
1.00236
3.04531
2.9516
3.04302
1
1
1
1
1.00002
1.00002
1.00001
1.00002
3.91733
3.96636
4.02853
1
1
1
1
1
1
1
1
1
1
1
1.15703
1.16148
1
1
1
1
1
1
2.27334
2.37225
3.1877
3.14934
1.00557
1
1
1
1.00006
1.00012
1
1
1.00001
1.00001
3.04021
3.16474
3.74919
3.90521
4.02916
3.89491
2.04886
2.29463
2.37432
2.71692
1
1
1
1
1
1
1.00001
1.00001
1
1.00001
1
1.00001
1
1
1
1
1
1
1.02934
1.01919
1.06209
1.03711
1.00079
1.00113
1.00044
1.0007
1.00034
1.00041
3.04737
2.95162
2.61677
2.45699
1.94958
2.47954
1.75345
2.02918
1.71483
1.92089
1
1
1
1
1
1
1
1
1
1
1.00026
1.00015
1.00054
1.00039
1.00025
1.00029
1
1
1
1
1.15326
1.12574
1.31072
1.27448
1.34124
1.31407
1
1
1.00001
1
1
1
1
1
1.00001
1.00002
1.00002
1.00003
1.00003
1.00003
1
1
1
1
1
1
1
1
1
1
1
1
1
1
1
1.12798
1.29885
1.05939
1.14764
1.07279
1.11714
1.02224
1.01659
1.0452
1.03917
1.04802
1.04785
1
1
1
1
1
1
1
1
1
1
1
1
1
1
1
2.87725
3.18411
3.17588
3.30078
1.91574
2.39202
1.79271
2.01911
2.32257
2.72573
2.06328
2.52916
1.02177
1.01362
1.0142
1.01058
1
1
1
1
1.00001
1
1
1
1.00001
1
1
1
1
1
1
1
1
1
1
1
1.00001
1.00001
1
1.00001
1
1
1
1
1
1
1
1
1.12823
1.1826
1.11756
1.16174
1
1
1
1
1.55528
1.42521
1.60314
1.51639
1.66271
1.98524
1.79664
1.954
1.83787
2.01714
2.3179
2.31957
2.75718
2.7324
1.00003
1.00003
1.00005
1.00006
1.0001
1.00283
1.0034
1.01671
1.01334
1.03534
1.02249
1.00005
1.00003
1.00004
1.00003
1.09754
1.07272
1.06257
1.06052
1
1
1
1
1
1
1
1
1
1
1
1
1
1
1
1
1
1
1
1
1.0001
1.00008
1.00011
1.00009
1.00015
1.00025
1.00006
1.00011
1.00011
1.00021
1.001
1.00206
1.00051
1.00113
1.00057
1.0001
1.00059
1.00012
1.11512
1.19133
1.09458
1.14361
1
1
1
1
1
1
1
1
1.00238
1.00206
1.00447
1.00445
1
1
5.11517
4.91694
1
1
1
1
1
1
1
1
1
1
1
1
1
1
1
1
1
1
1
1
1
1
1
1
1
1
1
1.00001
1.0002
1.00108
1.01066
1.0756
1.51023
2.76231
5.41572
6.10095
5.47668
5.64792
5.76157
5.81888
5.76267
5.82916
5.7111
5.48271
5.16962
4.80321
4.81284
4.78002
4.7079
5.15367
5.45316
2.43562
1.30298
1.04549
1.00615
1.00072
1.00009
1.00002
1
1
1
1
1
1
1
1
1
1
2.41494
1.26082
1.03156
1.00373
1.00062
1.00008
1.00002
1
1
1
1
1
1
1
1
1
1
2.67617
1.2401
1.02027
1.00251
1.00036
1.00006
1.00001
1
1
1
1
1
1
1
1
1
1
2.32727
1.23612
1.024
1.00206
1.00021
1.00004
1.00001
1
1
1
1
1
1
1
1
1
1
2.18889
1.197
1.01373
1.00106
1.0002
1.00005
1.00001
1
1
1
1
1
1
1
1
1
1
2.29612
1.22036
1.01869
1.0018
1.00022
1.00005
1.00001
1
1
1
1
1
1
1
1
1
1
2.44343
1.2232
1.02573
1.00288
1.00043
1.00007
1.00002
1.00001
1
1
1
1
1
1
1
1
1
2.88038
1.27663
1.04036
1.00473
1.00077
1.00014
1.00003
1.00001
1
1
1
1
1
1
1
1
1
3.06125
1.51907
1.07226
1.00968
1.00188
1.00032
1.00004
1.00001
1
1
1
1
1
1
1
1
1
3.71693
1.74286
1.16661
1.01698
1.00275
1.00068
1.00009
1.00001
1
1
1
1
1
1
1
1
1
3.9082
2.17445
1.37344
1.06272
1.00759
1.00104
1.00016
1.00001
1
1
1
1
1
1
1
1
1
3.79907
2.39627
1.46634
1.12702
1.01917
1.00229
1.00024
1.00002
1
1
1
1
1
1
1
1
1
4.04819
2.92014
1.69506
1.23428
1.03891
1.00414
1.00035
1.00001
1
1
1
1
1
1
1
1
1
4.68443
3.33796
1.8813
1.23052
1.03555
1.00478
1.00024
1.00001
1
1
1
1
1
1
1
1
1
4.17042
2.43512
2.09286
1.22824
1.03575
1.0036
1.00018
1.00001
1
1
1
1
1
1
1
1
1
3.9792
2.51464
1.67808
1.16658
1.02385
1.00247
1.00015
1
1
1
1
1
1
1
1
1
1
3.66635
2.18475
1.44222
1.11089
1.01715
1.00159
1.00006
1.00001
1
1
1
1
1
1
1
1
1
3.41823
2.01567
1.27013
1.04676
1.00548
1.00051
1.00006
1
1
1
1
1
1
1
1
1
1
1
5.38604
2.37171
1.2877
1.04481
1.00499
1.00069
1.00008
1.00001
1
1
1
1
1
1
1
1
1
1
1
1
1
1
1
1
1
1
1
1
1
1
1
1
1
1
1
1
1
1
5.17427
1
1
1
1
1
1
1
1
1
1
1.00001
1.00006
1.00046
1.00514
1.0325
1.28961
2.23419
5.60199
5.18202
6.43889
6.65169
6.77202
6.8942
6.81206
6.82926
6.58409
6.32295
6.0486
5.78765
5.66921
5.31582
5.26433
5.29272
5.27806
5.40435
5.58545
5.22234
1
1
4.69698
2.75091
1.28985
1.03688
1.00543
1.00064
1.00011
1.00001
1
1
1
1
1
1
1
1
1
1
1
1
1
1
1
1
1
1
1
1
1
1
1
1
1
1
1
1
1
1
1
1
1
1
1
1
1
1.00002
1.00014
1.00192
1.012
1.0819
1.44227
2.76219
5.22977
5.57858
5.48009
5.32105
5.6896
5.99343
5.80346
5.63891
5.42574
5.22535
4.87973
5.02997
4.8354
4.55742
4.56794
4.74693
4.60753
1
1
1
1
1
1
1
1
1
1
1.00002
1.0001
1.00055
1.00358
1.03847
1.35815
2.23689
1
1
1
1
1
1
1
1
1
1
1.00001
1.00005
1.0003
1.00233
1.02634
1.17383
2.35096
1
1
1
1
1
1
1
1
1
1
1.00001
1.00005
1.00021
1.00152
1.01621
1.20981
2.25017
1
1
1
1
1
1
1
1
1
1
1.00001
1.00004
1.00018
1.00159
1.01443
1.1611
2.23172
1
1
1
1
1
1
1
1
1
1.00001
1.00001
1.00004
1.00023
1.00097
1.01577
1.19652
2.4351
1
1
1
1
1
1
1
1
1
1
1.00002
1.00007
1.00034
1.00235
1.02862
1.31564
2.26513
1
1
1
1
1
1
1
1
1
1.00001
1.00003
1.00013
1.00061
1.00414
1.04772
1.41069
2.44127
1
1
1
1
1
1
1
1
1
1.00001
1.00005
1.00023
1.00126
1.01141
1.07954
1.4292
2.91926
1
1
1
1
1
1
1
1
1
1.00001
1.00009
1.00057
1.0044
1.02899
1.14624
1.68299
3.30145
1
1
1
1
1
1
1
1
1
1.00001
1.00015
1.0015
1.01134
1.05324
1.31103
2.08561
3.83142
1
1
1
1
1
1
1
1
1
1.00002
1.00021
1.00234
1.01795
1.0931
1.54003
2.90349
4.74807
1
1
1
1
1
1
1
1
1
1.00001
1.00034
1.00358
1.03429
1.18317
1.87992
2.76859
4.19296
1
1
1
1
1
1
1
1
1
1.00001
1.00016
1.00411
1.04411
1.29904
1.85525
2.80642
4.22921
1
1
1
1
1
1
1
1
1
1.00001
1.00017
1.00357
1.03502
1.21894
1.84726
3.2831
4.00686
1
1
1
1
1
1
1
1
1
1
1.00018
1.00253
1.02584
1.16258
1.56952
2.67108
4.3253
1
1
1
1
1
1
1
1
1
1.00001
1.00007
1.00153
1.01927
1.09278
1.46324
2.68459
3.54779
1
1
1
1
1
1
1
1
1
1
1.00005
1.00055
1.00543
1.04334
1.30404
1.93532
3.22274
)
;

boundaryField
{
    sides
    {
        type            fixedValue;
        value           uniform 1;
    }
    top
    {
        type            fixedValue;
        value           uniform 1;
    }
    outlet
    {
        type            fixedValue;
        value           uniform 1;
    }
    bottom
    {
        type            fixedValue;
        value           uniform 1;
    }
    inlet
    {
        type            fixedValue;
        value           uniform 10;
    }
}


// ************************************************************************* //
