/*--------------------------------*- C++ -*----------------------------------*\
  =========                 |
  \\      /  F ield         | OpenFOAM: The Open Source CFD Toolbox
   \\    /   O peration     | Website:  https://openfoam.org
    \\  /    A nd           | Version:  6
     \\/     M anipulation  |
\*---------------------------------------------------------------------------*/
FoamFile
{
    version     2.0;
    format      ascii;
    class       volScalarField;
    location    "1.7";
    object      rho;
}
// * * * * * * * * * * * * * * * * * * * * * * * * * * * * * * * * * * * * * //

dimensions      [1 -3 0 0 0 0 0];

internalField   nonuniform List<scalar> 
5835
(
1.72485e-05
1.18635e-05
2.44121e-05
1.19422e-05
1.18944e-05
1.18581e-05
1.18568e-05
1.18792e-05
1.18584e-05
1.18809e-05
1.1857e-05
1.19208e-05
1.18576e-05
1.18572e-05
1.2847e-05
1.1857e-05
3.59704e-05
3.49249e-05
1.18589e-05
1.1857e-05
3.99929e-05
1.18574e-05
3.83088e-05
1.22554e-05
1.18573e-05
1.18569e-05
1.29067e-05
1.18576e-05
1.18899e-05
1.18569e-05
1.18608e-05
1.18584e-05
1.18569e-05
1.18576e-05
1.18595e-05
1.18571e-05
1.18581e-05
1.18575e-05
1.18572e-05
1.18573e-05
1.18599e-05
1.18574e-05
1.18572e-05
1.18571e-05
1.18571e-05
1.18596e-05
1.18571e-05
1.18587e-05
1.18587e-05
1.1857e-05
1.18569e-05
1.1857e-05
1.18571e-05
1.1857e-05
1.18573e-05
1.18571e-05
1.1857e-05
1.18569e-05
1.18573e-05
1.18578e-05
1.186e-05
1.1857e-05
1.18832e-05
1.18597e-05
1.18569e-05
1.18583e-05
1.1857e-05
1.18575e-05
1.18571e-05
1.18591e-05
1.18573e-05
1.18571e-05
1.18578e-05
1.1857e-05
1.18581e-05
1.18574e-05
1.18573e-05
1.18582e-05
1.18571e-05
1.18587e-05
1.18569e-05
1.18594e-05
1.18652e-05
2.50004e-05
1.65824e-05
1.18568e-05
1.19232e-05
1.18592e-05
1.18763e-05
1.19311e-05
1.18587e-05
1.1889e-05
1.18569e-05
1.18586e-05
1.18573e-05
1.18582e-05
1.18624e-05
1.18641e-05
1.20964e-05
1.18567e-05
1.18603e-05
1.18577e-05
1.18591e-05
1.18577e-05
1.20522e-05
1.18572e-05
1.18571e-05
1.22635e-05
1.18577e-05
1.18606e-05
1.18619e-05
1.18585e-05
1.2045e-05
1.18627e-05
1.186e-05
1.18632e-05
1.18642e-05
1.18612e-05
1.18585e-05
1.19181e-05
1.19139e-05
1.18574e-05
1.18579e-05
1.18593e-05
1.18641e-05
1.18622e-05
1.18688e-05
1.18642e-05
1.18688e-05
1.18569e-05
1.18611e-05
1.18572e-05
1.18577e-05
1.18586e-05
1.18619e-05
1.18573e-05
5.18661e-05
1.18569e-05
5.35267e-05
1.1859e-05
1.1857e-05
1.18581e-05
4.86811e-05
5.07446e-05
5.89203e-05
5.76303e-05
2.19256e-05
2.54117e-05
1.18634e-05
1.18751e-05
2.67789e-05
1.18684e-05
1.18568e-05
1.18661e-05
1.51789e-05
1.44477e-05
1.20724e-05
1.18569e-05
1.18623e-05
1.34882e-05
1.18737e-05
1.18569e-05
1.18603e-05
1.18566e-05
1.21899e-05
1.18622e-05
1.18702e-05
1.19766e-05
1.18594e-05
1.18694e-05
1.18586e-05
1.18572e-05
1.18623e-05
1.18567e-05
1.18604e-05
1.18571e-05
1.18612e-05
1.20972e-05
1.18668e-05
1.1891e-05
1.18646e-05
1.18599e-05
1.18578e-05
1.18569e-05
1.18685e-05
1.18568e-05
1.18615e-05
1.1857e-05
1.18625e-05
1.18583e-05
1.18573e-05
1.18572e-05
1.18597e-05
1.18587e-05
1.18614e-05
1.18571e-05
1.1857e-05
1.18574e-05
1.18579e-05
1.18572e-05
4.63194e-05
4.40939e-05
1.18579e-05
1.18574e-05
1.1857e-05
1.1858e-05
1.18579e-05
1.18719e-05
1.18574e-05
1.1857e-05
1.18571e-05
1.18594e-05
1.18599e-05
1.18605e-05
1.18571e-05
1.18575e-05
1.18593e-05
1.18579e-05
1.18571e-05
1.18572e-05
1.18614e-05
1.18569e-05
1.1857e-05
1.18738e-05
1.18604e-05
1.18587e-05
1.18568e-05
5.88169e-05
1.18569e-05
1.18579e-05
1.18587e-05
1.18607e-05
1.18582e-05
1.18622e-05
1.18568e-05
1.18645e-05
2.65985e-05
1.1857e-05
2.50578e-05
1.18654e-05
1.18588e-05
1.18699e-05
1.18582e-05
1.1858e-05
1.18592e-05
1.18567e-05
1.18605e-05
1.18568e-05
1.18569e-05
1.18595e-05
1.18583e-05
1.18602e-05
1.18604e-05
1.18568e-05
1.18672e-05
1.18683e-05
1.18592e-05
1.19502e-05
1.18569e-05
1.18644e-05
1.18596e-05
1.22389e-05
1.22266e-05
1.18587e-05
1.23602e-05
1.18567e-05
1.18595e-05
1.18592e-05
1.23569e-05
1.22199e-05
1.1857e-05
1.18584e-05
1.1859e-05
1.18637e-05
1.18613e-05
1.18568e-05
1.18571e-05
1.18581e-05
1.18626e-05
1.18574e-05
1.1857e-05
1.18573e-05
1.33972e-05
1.18593e-05
1.18576e-05
1.18599e-05
1.18582e-05
1.18576e-05
1.18608e-05
1.1857e-05
3.72092e-05
1.7743e-05
1.18669e-05
1.8768e-05
1.18583e-05
1.1857e-05
1.187e-05
1.18572e-05
1.18599e-05
3.54427e-05
1.18571e-05
5.27072e-05
5.58787e-05
3.41429e-05
1.67355e-05
3.45983e-05
1.18579e-05
3.34165e-05
1.18569e-05
2.18857e-05
5.49067e-05
2.03198e-05
3.98989e-05
1.29276e-05
1.18579e-05
1.18582e-05
1.18569e-05
1.22498e-05
1.18572e-05
1.18682e-05
1.1867e-05
1.18569e-05
1.18582e-05
1.28068e-05
1.18581e-05
1.34903e-05
1.18571e-05
1.1857e-05
3.96521e-05
1.18635e-05
1.1857e-05
1.24547e-05
1.18576e-05
1.1858e-05
1.18578e-05
1.18567e-05
1.18578e-05
1.18575e-05
1.18571e-05
1.18585e-05
1.18581e-05
4.13922e-05
1.21596e-05
4.04395e-05
1.1859e-05
1.18569e-05
1.1859e-05
1.18577e-05
1.18572e-05
1.18585e-05
1.29398e-05
1.18569e-05
1.18568e-05
1.18714e-05
1.18568e-05
1.18735e-05
1.18816e-05
1.18592e-05
1.27907e-05
1.18568e-05
1.1963e-05
1.18608e-05
1.18579e-05
1.18604e-05
1.37814e-05
1.18577e-05
1.18581e-05
1.18568e-05
1.18731e-05
1.18579e-05
1.18666e-05
1.18586e-05
1.18678e-05
1.18583e-05
1.20822e-05
1.18585e-05
1.18576e-05
1.18572e-05
1.18579e-05
1.18573e-05
1.18574e-05
1.1857e-05
1.18591e-05
1.18579e-05
1.1857e-05
1.18588e-05
1.18588e-05
1.18577e-05
1.18572e-05
1.18574e-05
1.18599e-05
1.18571e-05
1.18569e-05
1.18579e-05
1.18579e-05
1.18585e-05
1.18709e-05
1.1857e-05
1.18572e-05
1.18583e-05
1.18583e-05
1.18581e-05
1.18607e-05
1.18579e-05
1.18726e-05
1.1884e-05
1.18572e-05
1.18571e-05
1.20351e-05
1.18573e-05
1.18661e-05
1.18578e-05
1.18611e-05
1.19175e-05
1.18573e-05
1.18682e-05
1.21714e-05
1.18605e-05
1.18599e-05
1.18601e-05
1.1867e-05
1.1862e-05
1.18591e-05
1.1865e-05
1.18573e-05
1.18597e-05
1.18661e-05
1.18611e-05
1.1858e-05
1.18583e-05
1.18595e-05
1.18815e-05
1.18748e-05
1.18733e-05
1.18665e-05
1.1859e-05
1.18567e-05
1.18572e-05
1.18571e-05
1.18806e-05
1.18583e-05
1.18569e-05
1.1857e-05
1.1868e-05
1.18621e-05
1.18611e-05
1.1858e-05
1.18578e-05
1.18571e-05
1.18605e-05
1.18565e-05
1.18613e-05
1.18567e-05
1.18569e-05
1.18714e-05
1.18568e-05
1.18567e-05
1.18639e-05
1.18605e-05
1.1864e-05
1.18589e-05
1.1858e-05
1.18776e-05
1.18569e-05
1.18694e-05
1.18677e-05
1.18602e-05
1.18607e-05
1.18648e-05
1.18588e-05
1.1857e-05
1.18848e-05
1.18596e-05
1.19051e-05
1.18588e-05
1.1863e-05
1.18569e-05
1.18823e-05
1.18569e-05
1.18586e-05
1.18701e-05
1.18743e-05
1.18569e-05
1.18569e-05
1.18567e-05
1.18608e-05
1.18614e-05
1.18613e-05
1.18595e-05
1.18568e-05
1.18571e-05
1.18571e-05
1.18567e-05
1.18576e-05
1.18677e-05
1.18602e-05
1.18571e-05
1.18583e-05
1.1866e-05
1.1861e-05
1.23586e-05
1.18567e-05
1.18637e-05
1.18605e-05
1.18625e-05
1.18623e-05
1.18595e-05
1.18571e-05
1.19441e-05
1.18623e-05
1.18625e-05
1.18566e-05
1.18583e-05
1.20316e-05
1.18603e-05
1.18644e-05
5.62392e-05
1.18619e-05
1.18569e-05
5.06647e-05
5.05901e-05
5.01615e-05
1.18587e-05
1.1857e-05
1.18571e-05
1.1868e-05
2.63851e-05
2.02156e-05
1.18627e-05
1.18681e-05
1.18758e-05
2.62735e-05
4.59218e-05
1.18572e-05
5.81375e-05
1.18574e-05
1.18586e-05
1.18638e-05
2.62018e-05
1.18568e-05
1.33409e-05
1.18672e-05
4.66132e-05
1.18579e-05
1.42793e-05
1.20605e-05
1.18667e-05
1.18565e-05
1.18569e-05
1.18626e-05
1.18704e-05
1.20923e-05
1.18569e-05
1.19514e-05
1.18567e-05
1.1865e-05
1.18574e-05
1.18577e-05
1.18574e-05
1.18572e-05
1.18615e-05
1.18606e-05
5.67321e-05
1.18637e-05
1.18752e-05
1.18586e-05
1.18569e-05
1.18692e-05
1.18565e-05
1.18572e-05
1.18703e-05
1.18633e-05
1.18567e-05
1.18567e-05
1.18604e-05
1.18575e-05
4.1045e-05
1.18581e-05
1.18613e-05
1.18602e-05
1.18567e-05
1.18573e-05
1.18569e-05
1.18572e-05
1.18589e-05
1.18618e-05
1.18559e-05
1.18583e-05
1.18568e-05
1.18566e-05
1.18567e-05
1.18569e-05
1.18583e-05
1.18659e-05
1.18604e-05
1.18566e-05
1.18578e-05
1.18566e-05
1.18595e-05
1.18666e-05
1.18586e-05
1.18589e-05
1.18571e-05
1.18611e-05
1.39464e-05
1.18586e-05
1.18582e-05
1.18684e-05
1.18575e-05
1.18568e-05
1.18568e-05
1.21908e-05
1.21946e-05
1.22752e-05
1.18569e-05
1.22965e-05
1.18568e-05
1.1861e-05
1.18707e-05
4.18873e-05
1.18574e-05
1.22989e-05
1.18626e-05
1.18592e-05
1.25857e-05
1.18578e-05
3.14905e-05
1.18578e-05
2.00686e-05
2.2868e-05
1.18582e-05
1.18597e-05
3.34872e-05
3.20967e-05
2.01159e-05
1.18579e-05
1.18573e-05
1.18569e-05
1.18598e-05
1.2739e-05
4.98592e-05
1.18578e-05
1.35252e-05
1.18569e-05
1.18572e-05
1.18578e-05
1.18579e-05
5.20333e-05
4.02852e-05
1.18573e-05
1.23713e-05
1.18574e-05
3.03965e-05
1.18577e-05
1.18661e-05
1.18625e-05
3.51572e-05
1.21842e-05
3.69451e-05
1.18599e-05
1.18569e-05
1.18623e-05
1.22255e-05
1.22544e-05
1.18581e-05
1.18591e-05
1.18577e-05
1.18567e-05
1.18926e-05
1.29433e-05
1.18713e-05
1.18567e-05
1.28485e-05
1.18569e-05
1.18688e-05
1.18573e-05
1.18598e-05
1.18574e-05
1.18581e-05
1.18571e-05
1.18574e-05
1.18569e-05
1.18581e-05
1.1857e-05
1.1857e-05
1.18568e-05
1.18643e-05
1.18571e-05
1.18575e-05
1.18589e-05
1.19388e-05
1.18731e-05
1.18667e-05
1.18582e-05
1.18579e-05
1.18569e-05
1.18566e-05
1.1857e-05
1.18571e-05
1.18615e-05
1.18579e-05
1.18654e-05
1.18567e-05
1.18565e-05
1.2046e-05
1.20486e-05
1.18841e-05
1.18568e-05
1.18607e-05
1.18574e-05
1.18589e-05
1.18615e-05
1.18582e-05
1.1857e-05
1.18627e-05
1.18617e-05
1.1857e-05
1.18582e-05
1.18568e-05
1.18691e-05
1.18769e-05
1.18798e-05
1.18584e-05
1.18692e-05
1.18615e-05
1.18681e-05
1.18767e-05
1.18579e-05
1.18568e-05
1.18569e-05
1.18569e-05
1.1856e-05
1.18613e-05
1.18568e-05
1.18592e-05
1.18602e-05
1.18562e-05
1.18659e-05
1.18564e-05
1.18559e-05
1.18565e-05
1.18822e-05
1.18596e-05
1.18701e-05
1.18593e-05
1.18566e-05
1.18608e-05
1.18582e-05
1.18685e-05
1.18585e-05
1.18567e-05
1.19133e-05
1.1857e-05
1.18569e-05
1.18615e-05
1.18573e-05
1.18568e-05
1.18603e-05
1.18708e-05
1.18569e-05
1.18888e-05
1.18691e-05
1.1887e-05
1.18593e-05
1.18646e-05
1.1857e-05
1.18566e-05
1.18582e-05
1.18638e-05
1.18581e-05
1.18598e-05
1.18568e-05
1.18764e-05
1.18569e-05
1.18625e-05
1.18569e-05
1.18566e-05
1.18607e-05
1.18638e-05
1.18615e-05
1.18641e-05
1.18654e-05
1.18611e-05
1.18619e-05
1.18628e-05
1.18603e-05
1.18574e-05
1.18571e-05
1.18571e-05
1.18571e-05
1.18778e-05
1.18621e-05
1.18576e-05
1.18587e-05
1.18642e-05
1.18771e-05
1.18673e-05
1.18604e-05
1.18581e-05
1.18606e-05
1.18608e-05
1.18585e-05
1.18637e-05
1.1859e-05
1.18717e-05
1.18569e-05
1.1859e-05
1.18577e-05
1.18617e-05
1.18602e-05
1.18625e-05
1.18569e-05
1.1859e-05
1.1859e-05
1.18593e-05
1.18578e-05
1.1857e-05
1.18675e-05
1.18568e-05
1.18613e-05
1.18598e-05
1.18566e-05
1.18568e-05
1.18627e-05
1.18639e-05
1.18679e-05
1.18691e-05
1.6906e-05
1.91716e-05
2.17917e-05
1.63315e-05
1.18629e-05
1.1857e-05
1.18568e-05
1.18572e-05
1.18587e-05
1.18588e-05
1.18586e-05
1.18578e-05
1.18581e-05
1.18573e-05
1.18577e-05
1.186e-05
1.18578e-05
1.18585e-05
1.18589e-05
1.18583e-05
1.18583e-05
1.18573e-05
1.18585e-05
1.18582e-05
1.18633e-05
1.18603e-05
1.18697e-05
1.1901e-05
1.187e-05
1.32701e-05
1.18683e-05
1.18825e-05
1.1988e-05
1.18666e-05
1.18568e-05
1.18568e-05
1.41866e-05
1.18565e-05
1.18591e-05
1.18601e-05
1.186e-05
1.18689e-05
1.18711e-05
1.18632e-05
1.18858e-05
1.18679e-05
1.1862e-05
1.18639e-05
1.18567e-05
1.19412e-05
1.18603e-05
1.18583e-05
1.18725e-05
1.18569e-05
1.18584e-05
1.43219e-05
1.21141e-05
1.18709e-05
1.1859e-05
1.1857e-05
1.18959e-05
1.19859e-05
1.18569e-05
1.91341e-05
1.187e-05
3.01059e-05
1.18568e-05
1.18843e-05
1.18677e-05
1.18585e-05
1.18569e-05
1.18715e-05
1.18583e-05
1.18665e-05
1.18672e-05
1.4135e-05
1.41953e-05
1.18717e-05
1.18748e-05
1.20576e-05
1.18569e-05
1.38197e-05
1.18566e-05
1.19766e-05
1.18814e-05
1.18573e-05
6.7032e-05
7.0808e-05
1.18579e-05
1.186e-05
1.18572e-05
6.34821e-05
7.27201e-05
7.47842e-05
1.18635e-05
5.92283e-05
1.18578e-05
1.18568e-05
1.18617e-05
7.20325e-05
5.75232e-05
1.1859e-05
6.91309e-05
5.37433e-05
1.18578e-05
1.18574e-05
1.18574e-05
7.03039e-05
1.18578e-05
1.18572e-05
7.16839e-05
1.18569e-05
5.96694e-05
1.18573e-05
1.1857e-05
1.18571e-05
6.37978e-05
5.51344e-05
6.08127e-05
1.1858e-05
1.18572e-05
1.18609e-05
5.38747e-05
6.83237e-05
6.99572e-05
5.89178e-05
5.57613e-05
1.18573e-05
1.1858e-05
6.7222e-05
1.18579e-05
1.18578e-05
5.50468e-05
5.68005e-05
6.36831e-05
1.18572e-05
6.1498e-05
1.18577e-05
1.21672e-05
1.18588e-05
1.18624e-05
1.18642e-05
1.18574e-05
1.18614e-05
1.18588e-05
1.18795e-05
1.18748e-05
1.18732e-05
1.41844e-05
1.43151e-05
1.18655e-05
1.18646e-05
1.21221e-05
1.18609e-05
1.18712e-05
4.99613e-05
1.18574e-05
1.18572e-05
4.63941e-05
1.18624e-05
1.19868e-05
1.186e-05
1.18571e-05
1.18569e-05
1.18653e-05
1.18576e-05
1.18584e-05
1.18638e-05
1.18606e-05
1.18581e-05
1.18632e-05
1.18573e-05
1.1865e-05
1.18576e-05
1.18577e-05
1.18573e-05
1.18574e-05
1.18727e-05
1.1857e-05
1.18587e-05
1.18573e-05
1.1857e-05
1.1857e-05
1.18617e-05
1.1857e-05
1.1859e-05
1.18596e-05
1.18605e-05
1.18572e-05
1.19214e-05
1.18665e-05
1.18571e-05
1.18578e-05
1.18569e-05
1.43514e-05
3.05329e-05
1.18569e-05
1.18572e-05
1.23599e-05
3.13948e-05
1.18569e-05
1.4755e-05
1.2505e-05
1.18571e-05
1.18582e-05
1.1857e-05
1.18663e-05
1.18573e-05
1.18571e-05
1.18573e-05
1.18615e-05
1.18572e-05
1.18572e-05
1.1857e-05
1.18572e-05
1.18581e-05
1.18578e-05
1.18597e-05
1.18615e-05
1.1873e-05
1.18577e-05
1.18573e-05
1.18604e-05
1.18696e-05
1.18578e-05
1.21858e-05
1.59587e-05
1.18584e-05
1.18623e-05
1.18581e-05
1.18569e-05
1.18687e-05
1.18717e-05
1.18569e-05
1.18579e-05
1.18636e-05
1.18574e-05
1.18568e-05
1.18573e-05
1.18668e-05
1.18573e-05
1.18635e-05
1.18569e-05
1.18643e-05
1.18642e-05
1.18569e-05
1.18578e-05
1.18639e-05
1.18592e-05
1.18782e-05
1.18568e-05
1.18655e-05
1.18568e-05
1.18658e-05
1.18569e-05
1.18636e-05
1.18568e-05
1.18608e-05
1.18584e-05
1.18595e-05
1.18568e-05
1.18672e-05
1.18567e-05
1.18636e-05
1.1889e-05
1.18574e-05
1.18633e-05
1.18635e-05
1.1859e-05
1.18623e-05
1.18567e-05
1.18619e-05
1.18569e-05
1.18694e-05
1.18569e-05
1.18582e-05
1.18652e-05
1.18579e-05
1.18854e-05
1.18636e-05
1.18571e-05
1.18569e-05
1.18586e-05
1.18606e-05
1.18574e-05
1.1865e-05
1.18752e-05
1.18675e-05
1.18652e-05
1.18649e-05
1.18574e-05
1.18735e-05
1.18972e-05
1.18682e-05
1.18573e-05
1.18574e-05
1.1857e-05
1.18729e-05
1.18569e-05
1.18573e-05
1.18575e-05
1.18569e-05
1.18584e-05
1.18564e-05
1.1858e-05
1.18583e-05
1.18698e-05
1.18581e-05
1.18628e-05
1.18583e-05
1.18579e-05
1.18609e-05
1.18567e-05
1.18589e-05
1.18604e-05
1.1858e-05
1.1859e-05
1.19192e-05
1.18588e-05
1.18576e-05
1.18651e-05
1.18567e-05
1.18581e-05
1.18565e-05
1.18598e-05
1.18575e-05
1.18616e-05
1.18624e-05
1.18615e-05
1.18571e-05
1.18568e-05
1.18568e-05
1.18578e-05
1.18595e-05
1.18564e-05
1.186e-05
1.18572e-05
1.18881e-05
1.18616e-05
1.18573e-05
1.18605e-05
1.18611e-05
1.1862e-05
1.18668e-05
1.18734e-05
1.18576e-05
1.18579e-05
1.18684e-05
1.18568e-05
1.18568e-05
1.18615e-05
1.1857e-05
1.18584e-05
1.18616e-05
1.18586e-05
1.18568e-05
1.1865e-05
1.18572e-05
1.18581e-05
1.18573e-05
1.18718e-05
1.18721e-05
1.18589e-05
1.18579e-05
1.18613e-05
1.18609e-05
1.1876e-05
1.18575e-05
1.18575e-05
1.18679e-05
1.18579e-05
1.18584e-05
1.19146e-05
1.18571e-05
1.18666e-05
1.18604e-05
1.18572e-05
1.18625e-05
1.18576e-05
1.18647e-05
1.18647e-05
1.18592e-05
1.18571e-05
1.18589e-05
1.18569e-05
1.18631e-05
1.18664e-05
1.18714e-05
1.18693e-05
1.18578e-05
1.18589e-05
1.18633e-05
1.18568e-05
1.18567e-05
1.18668e-05
1.18574e-05
1.18668e-05
1.19763e-05
1.1862e-05
1.18617e-05
1.18631e-05
1.18584e-05
1.18571e-05
1.19249e-05
1.18606e-05
1.18697e-05
1.1863e-05
1.18591e-05
1.18675e-05
1.18573e-05
1.28394e-05
1.18771e-05
1.19289e-05
1.18571e-05
1.18595e-05
1.18588e-05
1.18634e-05
1.18597e-05
1.18576e-05
1.18661e-05
1.25199e-05
1.18638e-05
1.18566e-05
1.18573e-05
1.1903e-05
1.18637e-05
1.18577e-05
1.18571e-05
1.18872e-05
1.18606e-05
1.18583e-05
1.18598e-05
1.18827e-05
1.23375e-05
1.18587e-05
1.1877e-05
1.18572e-05
1.18581e-05
1.18706e-05
1.18576e-05
1.18575e-05
1.18571e-05
1.1857e-05
1.23059e-05
1.18852e-05
1.18587e-05
1.18582e-05
1.1857e-05
1.18587e-05
1.18628e-05
1.18573e-05
1.18571e-05
1.21856e-05
1.18603e-05
1.18638e-05
1.18611e-05
1.18618e-05
1.18575e-05
1.18663e-05
1.18579e-05
1.19634e-05
1.18718e-05
1.18571e-05
1.18577e-05
1.1869e-05
1.1944e-05
1.1866e-05
1.18572e-05
1.19471e-05
1.18576e-05
1.19475e-05
1.18629e-05
1.18788e-05
1.19395e-05
1.18568e-05
1.18603e-05
1.18581e-05
1.18583e-05
1.1859e-05
1.18569e-05
1.18578e-05
1.18577e-05
1.1862e-05
1.18584e-05
1.1872e-05
1.18577e-05
1.25541e-05
1.19371e-05
1.1858e-05
1.18567e-05
1.19292e-05
1.5686e-05
2.40763e-05
1.18576e-05
1.18572e-05
1.18594e-05
1.18577e-05
1.1857e-05
1.1857e-05
1.18585e-05
1.18573e-05
1.18576e-05
1.19772e-05
6.61269e-05
1.18598e-05
1.18569e-05
1.18571e-05
1.35878e-05
1.64847e-05
1.18574e-05
1.18573e-05
2.28771e-05
1.18713e-05
1.18569e-05
1.18576e-05
1.42244e-05
1.18594e-05
1.18584e-05
1.38904e-05
2.53084e-05
4.24267e-05
1.18577e-05
5.63987e-05
1.85006e-05
1.18614e-05
4.59521e-05
1.18592e-05
2.67583e-05
4.46859e-05
1.58343e-05
2.80121e-05
2.79203e-05
1.18697e-05
1.70608e-05
1.22429e-05
2.85157e-05
1.18641e-05
1.303e-05
1.47386e-05
1.97479e-05
1.18571e-05
1.18596e-05
1.18577e-05
1.18584e-05
1.18582e-05
4.16943e-05
3.11292e-05
1.1857e-05
1.18588e-05
1.18584e-05
1.30966e-05
1.6711e-05
1.18611e-05
1.18598e-05
1.6362e-05
1.18599e-05
1.18582e-05
3.13379e-05
1.18577e-05
1.18576e-05
1.1858e-05
1.73385e-05
1.6281e-05
1.18667e-05
1.18596e-05
1.40774e-05
1.18627e-05
1.39372e-05
1.18572e-05
1.30001e-05
1.18567e-05
1.18571e-05
1.19361e-05
1.22059e-05
1.18573e-05
1.18593e-05
1.43765e-05
1.18571e-05
1.18829e-05
1.18586e-05
1.18593e-05
1.1857e-05
1.18569e-05
1.18576e-05
1.18597e-05
1.18635e-05
1.18588e-05
2.13189e-05
1.1858e-05
1.18577e-05
1.1863e-05
1.63442e-05
1.18597e-05
1.18571e-05
1.1858e-05
1.18658e-05
1.1857e-05
1.18641e-05
1.19589e-05
1.1857e-05
1.18572e-05
1.18716e-05
1.18592e-05
1.18661e-05
1.18608e-05
1.18651e-05
1.18612e-05
1.18657e-05
1.3264e-05
1.18578e-05
1.18561e-05
1.24812e-05
1.18573e-05
1.18569e-05
1.18571e-05
1.18793e-05
2.12353e-05
1.94153e-05
1.18579e-05
1.18646e-05
1.18567e-05
1.18638e-05
1.18575e-05
1.1858e-05
1.33038e-05
1.18711e-05
1.18628e-05
1.18594e-05
1.18567e-05
1.18596e-05
1.18576e-05
1.18607e-05
1.18631e-05
2.24474e-05
1.18594e-05
1.18595e-05
1.18592e-05
1.19144e-05
1.18588e-05
1.18573e-05
1.28733e-05
1.25177e-05
1.19626e-05
1.18594e-05
1.18576e-05
1.18651e-05
1.58285e-05
2.65377e-05
1.18758e-05
1.18591e-05
1.18572e-05
1.1862e-05
1.1863e-05
1.1907e-05
1.1868e-05
1.18571e-05
1.18577e-05
1.18876e-05
1.18571e-05
1.18827e-05
1.18581e-05
1.18625e-05
1.18586e-05
1.1857e-05
1.18577e-05
1.18572e-05
1.18574e-05
1.18582e-05
1.18584e-05
1.1857e-05
1.1858e-05
1.18593e-05
1.18583e-05
1.18575e-05
1.18571e-05
1.186e-05
1.18593e-05
1.18575e-05
1.18569e-05
1.18595e-05
1.18589e-05
1.18571e-05
1.18566e-05
1.18579e-05
1.18585e-05
1.18578e-05
1.1857e-05
1.18584e-05
1.18601e-05
1.18568e-05
1.18577e-05
1.18583e-05
1.18595e-05
1.18576e-05
1.1858e-05
1.18573e-05
1.18569e-05
1.18587e-05
1.18614e-05
1.18571e-05
1.18574e-05
1.18566e-05
1.1857e-05
1.18571e-05
1.18594e-05
1.18575e-05
1.18589e-05
1.18611e-05
1.18574e-05
1.18582e-05
1.18578e-05
1.18569e-05
1.18584e-05
1.18571e-05
1.18598e-05
1.18597e-05
2.61985e-05
1.1858e-05
1.1857e-05
1.19521e-05
1.18608e-05
1.18634e-05
1.18648e-05
1.18607e-05
1.18566e-05
1.18624e-05
1.186e-05
1.18585e-05
1.18631e-05
1.20806e-05
1.19156e-05
1.18572e-05
1.20213e-05
1.18653e-05
1.18643e-05
1.18614e-05
1.18632e-05
1.18572e-05
1.18614e-05
1.18713e-05
1.18591e-05
1.1857e-05
1.18602e-05
1.18696e-05
1.18583e-05
1.18634e-05
1.18701e-05
1.18568e-05
1.18627e-05
1.18568e-05
1.18624e-05
1.18567e-05
1.18617e-05
1.18588e-05
1.18569e-05
1.18567e-05
1.1857e-05
1.1863e-05
1.18617e-05
1.18609e-05
1.18615e-05
1.18577e-05
1.18568e-05
1.18581e-05
1.18572e-05
1.18644e-05
2.18469e-05
1.18619e-05
1.1858e-05
1.18641e-05
1.18734e-05
1.18567e-05
1.18681e-05
1.18643e-05
1.18591e-05
4.89046e-05
1.1857e-05
1.18581e-05
1.18575e-05
1.18567e-05
1.18661e-05
1.18581e-05
1.18615e-05
3.59186e-05
1.187e-05
1.18588e-05
1.18599e-05
1.18596e-05
1.18731e-05
1.1875e-05
1.18676e-05
1.18627e-05
1.26228e-05
1.18691e-05
1.18621e-05
1.18567e-05
6.51209e-05
1.18575e-05
1.18575e-05
2.62761e-05
1.18574e-05
1.30377e-05
1.18623e-05
1.18574e-05
1.1858e-05
1.18607e-05
1.18588e-05
1.19011e-05
1.18629e-05
1.18689e-05
1.18737e-05
1.18649e-05
1.18575e-05
1.18577e-05
1.18717e-05
1.18596e-05
1.18615e-05
1.18875e-05
1.18886e-05
1.18702e-05
1.19778e-05
1.18579e-05
1.18811e-05
1.18635e-05
1.18597e-05
1.18569e-05
1.18582e-05
1.18581e-05
1.19469e-05
1.18615e-05
1.18615e-05
1.18584e-05
1.18576e-05
1.18564e-05
1.18573e-05
1.18575e-05
1.1857e-05
1.18917e-05
1.18571e-05
1.18638e-05
1.18623e-05
1.18576e-05
1.18605e-05
1.18617e-05
1.18607e-05
1.18564e-05
1.18609e-05
1.18607e-05
1.18564e-05
1.18648e-05
1.18641e-05
1.18593e-05
1.18572e-05
1.19378e-05
1.18621e-05
1.18574e-05
1.1859e-05
1.18579e-05
1.18936e-05
1.18677e-05
1.20985e-05
1.1857e-05
1.19706e-05
1.18613e-05
1.18656e-05
1.1857e-05
1.18584e-05
1.18571e-05
1.18578e-05
1.20356e-05
1.18633e-05
1.1857e-05
1.18572e-05
1.18573e-05
1.18581e-05
1.18589e-05
1.1858e-05
1.18582e-05
1.1858e-05
1.23579e-05
1.2926e-05
1.1858e-05
1.18577e-05
1.18616e-05
1.18592e-05
1.18571e-05
1.18571e-05
1.18577e-05
1.18582e-05
1.18587e-05
1.2601e-05
1.1858e-05
3.10294e-05
1.18582e-05
1.18578e-05
1.18575e-05
1.22122e-05
1.18617e-05
1.28587e-05
1.18569e-05
1.18574e-05
1.18577e-05
1.18574e-05
3.72053e-05
1.18604e-05
1.18567e-05
1.18575e-05
1.25753e-05
1.18584e-05
1.18594e-05
1.18597e-05
1.18571e-05
1.18577e-05
1.1858e-05
1.18587e-05
1.18724e-05
1.18575e-05
1.18619e-05
1.18573e-05
1.18594e-05
7.0939e-05
1.18592e-05
4.84734e-05
1.18578e-05
1.18571e-05
1.18574e-05
1.18596e-05
1.1858e-05
1.18581e-05
1.18569e-05
1.18566e-05
1.18601e-05
1.18591e-05
1.18612e-05
1.18607e-05
1.18571e-05
1.18618e-05
1.18569e-05
1.18601e-05
1.1862e-05
1.18568e-05
1.18572e-05
1.18613e-05
1.18587e-05
1.18583e-05
1.18563e-05
1.18652e-05
1.18608e-05
1.18611e-05
1.18571e-05
1.28061e-05
1.18587e-05
6.84363e-05
1.18571e-05
3.19508e-05
1.18571e-05
1.18596e-05
1.18574e-05
1.51284e-05
1.18568e-05
4.96887e-05
1.18565e-05
3.60303e-05
1.18643e-05
2.21456e-05
3.65032e-05
1.92443e-05
1.37922e-05
1.1878e-05
1.18687e-05
4.66996e-05
1.18583e-05
1.18613e-05
5.76872e-05
1.18646e-05
1.18763e-05
4.23904e-05
1.18591e-05
3.35167e-05
3.72343e-05
1.18583e-05
1.18705e-05
1.18589e-05
4.05507e-05
1.18595e-05
2.24246e-05
1.1861e-05
6.99264e-05
1.1857e-05
3.78131e-05
1.18574e-05
1.18951e-05
1.18672e-05
1.18592e-05
1.18651e-05
1.18571e-05
1.18568e-05
1.18584e-05
1.18661e-05
1.18698e-05
1.18704e-05
1.19344e-05
1.18578e-05
1.18578e-05
1.18616e-05
1.96634e-05
1.32797e-05
1.1857e-05
1.1857e-05
6.4128e-05
6.94257e-05
1.18579e-05
1.1863e-05
7.02056e-05
7.89703e-05
1.1859e-05
1.18575e-05
6.86382e-05
7.35618e-05
1.18604e-05
6.79977e-05
7.79029e-05
1.1858e-05
1.18579e-05
1.18577e-05
8.15755e-05
7.76257e-05
1.18616e-05
8.14344e-05
1.1857e-05
8.08084e-05
1.18575e-05
1.18614e-05
6.62161e-05
7.16733e-05
7.00258e-05
1.1857e-05
1.18573e-05
7.21838e-05
7.10957e-05
1.1858e-05
6.81409e-05
1.18587e-05
6.73757e-05
1.18578e-05
1.18576e-05
6.77781e-05
6.61676e-05
1.18594e-05
1.18594e-05
7.11021e-05
1.18572e-05
1.18589e-05
7.27345e-05
7.1465e-05
1.1857e-05
1.18573e-05
7.36203e-05
7.18925e-05
1.18631e-05
1.18594e-05
8.41601e-05
8.12197e-05
1.1857e-05
7.50566e-05
7.6291e-05
1.1857e-05
1.186e-05
8.44645e-05
1.18621e-05
8.24898e-05
8.36612e-05
1.18601e-05
1.18628e-05
8.60336e-05
1.1859e-05
8.07169e-05
1.18582e-05
8.07432e-05
7.90106e-05
1.18575e-05
1.18573e-05
7.81935e-05
1.32155e-05
1.18635e-05
1.18686e-05
1.31447e-05
1.18579e-05
1.18742e-05
1.18669e-05
1.18602e-05
1.1889e-05
1.18659e-05
1.18571e-05
2.08207e-05
1.50557e-05
1.18939e-05
1.18603e-05
1.18655e-05
1.18578e-05
7.35911e-05
1.1857e-05
1.18574e-05
7.05967e-05
1.18573e-05
7.5114e-05
8.26429e-05
1.18593e-05
6.8443e-05
1.18637e-05
6.56429e-05
1.18596e-05
7.61809e-05
1.18584e-05
1.18591e-05
1.18576e-05
8.23101e-05
8.25803e-05
7.00145e-05
7.53889e-05
1.18613e-05
1.18587e-05
1.18573e-05
1.18577e-05
7.28143e-05
1.18664e-05
1.18571e-05
1.18572e-05
1.18587e-05
1.18585e-05
1.18578e-05
7.24097e-05
6.45279e-05
7.04619e-05
7.33762e-05
6.34146e-05
7.67345e-05
1.18583e-05
1.1864e-05
7.92266e-05
1.1858e-05
6.91865e-05
8.6542e-05
7.09285e-05
1.18605e-05
1.18577e-05
7.63739e-05
1.18576e-05
7.48932e-05
1.18572e-05
7.52398e-05
7.24926e-05
1.18574e-05
1.18617e-05
1.18568e-05
1.18755e-05
1.18697e-05
1.18564e-05
1.18572e-05
1.18559e-05
1.72043e-05
1.27221e-05
1.18581e-05
1.18569e-05
1.18571e-05
1.18608e-05
1.18581e-05
1.18603e-05
1.18914e-05
1.18673e-05
1.22713e-05
1.7115e-05
5.2999e-05
1.18574e-05
1.18571e-05
1.18571e-05
5.73501e-05
1.18572e-05
5.73295e-05
6.09466e-05
1.18571e-05
1.1865e-05
1.18584e-05
1.18572e-05
1.18621e-05
1.1867e-05
1.18583e-05
1.18576e-05
1.1862e-05
1.18589e-05
1.18572e-05
1.18574e-05
1.18573e-05
1.18585e-05
1.18624e-05
1.1857e-05
1.1857e-05
1.18594e-05
1.1857e-05
1.18576e-05
1.18573e-05
1.1857e-05
1.18569e-05
1.18626e-05
1.18569e-05
1.18588e-05
1.18616e-05
1.18606e-05
1.18583e-05
1.18644e-05
1.1859e-05
1.18587e-05
1.18577e-05
1.18581e-05
1.18572e-05
2.03028e-05
1.18661e-05
1.59265e-05
1.63018e-05
1.18569e-05
1.18569e-05
1.18707e-05
2.05149e-05
1.19875e-05
1.18569e-05
1.18582e-05
1.18655e-05
1.18575e-05
1.1929e-05
1.1857e-05
1.18608e-05
1.1857e-05
1.18573e-05
1.18571e-05
1.18599e-05
1.1857e-05
1.18574e-05
1.18584e-05
1.1857e-05
1.18569e-05
1.18574e-05
1.18571e-05
1.18605e-05
1.18619e-05
1.18615e-05
1.18689e-05
1.18592e-05
1.1857e-05
1.1857e-05
1.1857e-05
1.18579e-05
1.1859e-05
1.18582e-05
1.18636e-05
1.18627e-05
1.18569e-05
1.18569e-05
1.18633e-05
1.18583e-05
1.18634e-05
1.18604e-05
1.18572e-05
1.18616e-05
1.18569e-05
1.18569e-05
1.18616e-05
1.18571e-05
1.18571e-05
1.18587e-05
1.18612e-05
1.18655e-05
1.18575e-05
1.1857e-05
1.18602e-05
1.18665e-05
1.18573e-05
1.18593e-05
1.18673e-05
1.18664e-05
1.18634e-05
1.18568e-05
1.18569e-05
1.18573e-05
1.18587e-05
1.18589e-05
1.18604e-05
1.18568e-05
1.18572e-05
1.18581e-05
1.18571e-05
1.1867e-05
1.18598e-05
1.18588e-05
1.18601e-05
1.18569e-05
1.18674e-05
1.1873e-05
1.18712e-05
1.18568e-05
1.18568e-05
1.18639e-05
1.18584e-05
1.1867e-05
1.18581e-05
1.18653e-05
1.18629e-05
1.18624e-05
1.19073e-05
1.1861e-05
1.1857e-05
1.19035e-05
1.1857e-05
1.18576e-05
1.18573e-05
1.18569e-05
1.18631e-05
1.18573e-05
1.18592e-05
1.18653e-05
1.19045e-05
1.18571e-05
1.18679e-05
1.18571e-05
1.1863e-05
1.18571e-05
1.186e-05
1.1858e-05
1.18573e-05
1.1858e-05
1.18768e-05
1.18689e-05
1.18647e-05
1.18593e-05
1.18643e-05
1.18577e-05
1.1857e-05
1.18681e-05
1.18652e-05
1.18564e-05
1.18672e-05
1.18808e-05
1.18609e-05
1.18636e-05
1.18572e-05
1.18567e-05
1.18571e-05
1.18572e-05
1.18654e-05
1.18644e-05
1.18626e-05
1.18577e-05
1.18569e-05
1.18569e-05
1.18568e-05
1.18578e-05
1.18571e-05
1.18584e-05
1.18568e-05
1.18649e-05
1.18614e-05
1.18587e-05
1.18567e-05
1.1862e-05
1.18571e-05
1.1864e-05
1.18573e-05
1.18715e-05
1.18618e-05
1.1858e-05
1.18703e-05
1.1857e-05
1.18609e-05
1.18614e-05
1.18569e-05
1.18716e-05
1.18573e-05
1.18588e-05
1.18585e-05
1.18594e-05
1.18595e-05
1.18661e-05
1.18647e-05
1.18574e-05
1.18599e-05
1.18603e-05
1.18604e-05
1.18569e-05
1.18695e-05
1.18602e-05
1.18589e-05
1.18731e-05
1.1858e-05
1.18634e-05
1.18593e-05
1.18568e-05
1.18577e-05
1.18614e-05
1.18638e-05
1.18637e-05
1.1879e-05
1.18571e-05
1.19051e-05
1.18572e-05
1.18638e-05
1.18592e-05
1.18572e-05
1.18573e-05
1.18601e-05
1.18604e-05
1.1864e-05
1.18596e-05
1.18566e-05
1.18583e-05
1.18575e-05
1.18571e-05
1.18668e-05
1.18611e-05
1.18644e-05
1.1858e-05
1.18587e-05
1.18565e-05
1.18869e-05
1.18576e-05
1.1857e-05
1.186e-05
1.18584e-05
1.18706e-05
1.18572e-05
1.18568e-05
1.1859e-05
1.18673e-05
1.1859e-05
1.1857e-05
1.18569e-05
1.18677e-05
1.18599e-05
1.18576e-05
1.18592e-05
1.18576e-05
1.18908e-05
1.1859e-05
1.18642e-05
1.18576e-05
1.18571e-05
1.18569e-05
1.18578e-05
1.18569e-05
1.1857e-05
1.1862e-05
1.18636e-05
1.18992e-05
1.18575e-05
1.18569e-05
1.18743e-05
1.1861e-05
1.18694e-05
1.1857e-05
1.18726e-05
1.18587e-05
1.18589e-05
1.186e-05
1.18593e-05
1.18701e-05
1.1857e-05
1.1867e-05
1.18621e-05
1.18724e-05
1.18584e-05
1.18629e-05
1.18608e-05
1.18569e-05
1.18577e-05
1.18579e-05
1.18632e-05
1.18651e-05
1.1867e-05
1.1864e-05
1.18619e-05
1.18571e-05
1.18654e-05
1.1857e-05
1.1858e-05
1.18632e-05
1.18578e-05
1.18567e-05
1.18581e-05
1.18586e-05
1.1857e-05
1.18641e-05
1.18573e-05
1.18607e-05
1.18573e-05
1.18716e-05
1.18585e-05
1.1864e-05
1.18581e-05
1.18672e-05
1.18646e-05
1.18587e-05
1.19115e-05
1.18583e-05
1.18597e-05
1.1861e-05
1.18567e-05
1.18644e-05
1.18959e-05
1.18587e-05
1.18725e-05
1.18598e-05
1.1868e-05
1.18726e-05
1.18601e-05
1.18617e-05
1.18585e-05
1.18981e-05
1.18574e-05
1.18588e-05
1.18578e-05
1.18573e-05
1.18572e-05
1.1872e-05
1.1871e-05
1.18572e-05
1.18573e-05
1.18663e-05
1.18639e-05
1.18605e-05
1.18561e-05
1.18573e-05
1.18573e-05
1.1894e-05
1.18572e-05
1.18801e-05
1.18869e-05
1.29031e-05
1.18573e-05
1.18572e-05
1.18564e-05
1.1857e-05
1.18762e-05
1.27228e-05
1.18566e-05
1.19107e-05
1.18571e-05
1.18584e-05
1.18639e-05
1.27282e-05
1.18605e-05
1.1856e-05
1.1857e-05
1.18581e-05
1.25535e-05
1.18606e-05
1.18617e-05
1.18623e-05
1.18581e-05
1.1862e-05
1.18567e-05
1.18572e-05
1.18903e-05
1.18573e-05
1.18593e-05
1.18631e-05
1.18576e-05
1.18634e-05
1.18821e-05
1.1857e-05
1.18622e-05
1.18587e-05
1.18623e-05
1.18569e-05
1.18572e-05
1.18801e-05
1.18568e-05
1.18569e-05
1.18617e-05
1.18763e-05
1.18571e-05
1.1863e-05
1.18603e-05
1.18581e-05
1.18818e-05
1.18571e-05
1.1858e-05
1.1859e-05
1.1882e-05
1.18604e-05
1.18577e-05
1.18614e-05
1.18572e-05
1.1862e-05
1.18571e-05
1.1857e-05
1.18578e-05
1.18833e-05
1.18574e-05
1.20625e-05
1.18596e-05
1.1857e-05
1.18604e-05
1.1866e-05
1.18676e-05
1.1858e-05
1.18575e-05
1.18608e-05
1.1857e-05
1.18615e-05
1.18684e-05
1.18592e-05
1.18568e-05
1.18616e-05
1.19028e-05
1.1861e-05
1.18669e-05
1.1857e-05
1.18576e-05
1.18568e-05
1.18675e-05
1.18569e-05
1.18575e-05
1.18602e-05
1.18572e-05
1.18658e-05
1.18604e-05
1.1857e-05
1.18567e-05
1.19201e-05
1.18628e-05
1.18638e-05
1.18576e-05
1.18571e-05
1.18593e-05
1.18573e-05
1.18663e-05
1.18693e-05
1.18573e-05
1.19301e-05
1.1857e-05
1.18569e-05
1.19596e-05
1.18578e-05
1.18646e-05