/*--------------------------------*- C++ -*----------------------------------*\
  =========                 |
  \\      /  F ield         | OpenFOAM: The Open Source CFD Toolbox
   \\    /   O peration     | Website:  https://openfoam.org
    \\  /    A nd           | Version:  6
     \\/     M anipulation  |
\*---------------------------------------------------------------------------*/
FoamFile
{
    version     2.0;
    format      ascii;
    class       volScalarField;
    location    "4.64";
    object      mag(U);
}
// * * * * * * * * * * * * * * * * * * * * * * * * * * * * * * * * * * * * * //

dimensions      [0 1 -1 0 0 0 0];

internalField   nonuniform List<scalar> 
10000
(
0.999965
0.999965
0.999966
0.999968
0.999968
0.999968
0.99997
0.99997
0.99997
0.99997
0.99997
0.99997
0.99997
0.99997
0.99997
0.99997
0.99997
0.99997
0.99997
0.99997
0.99997
0.99997
0.99997
0.99997
0.99997
0.99997
0.99997
0.99997
0.99997
0.99997
0.99997
0.99997
0.99997
0.99997
0.99997
0.99997
0.99997
0.999969
0.999969
0.999968
0.999968
0.999967
0.999967
0.999968
0.99997
0.999973
0.999979
0.999987
0.999997
1.00001
1.00002
1.00002
1.00003
1.00002
1.00001
0.999989
0.999981
0.999988
1.00003
1.00011
1.00025
1.00045
1.00073
1.00107
1.00148
1.00193
1.00242
1.00292
1.00341
1.00388
1.00429
1.00463
1.00488
1.00503
1.00506
1.00497
1.00476
1.00445
1.00405
1.00359
1.0031
1.00261
1.00214
1.00171
1.00133
1.00101
1.00074
1.00053
1.00036
1.00023
1.00014
1.00007
1.00003
0.999996
0.999978
0.999969
0.999963
0.999962
0.999962
0.999963
0.999962
0.999964
0.999965
0.999967
0.999968
0.999968
0.999968
0.99997
0.99997
0.99997
0.99997
0.99997
0.99997
0.99997
0.99997
0.99997
0.99997
0.99997
0.99997
0.99997
0.99997
0.99997
0.99997
0.99997
0.99997
0.99997
0.99997
0.99997
0.99997
0.99997
0.99997
0.99997
0.99997
0.99997
0.99997
0.999969
0.999969
0.999968
0.999968
0.999968
0.999967
0.999967
0.999966
0.999967
0.99997
0.999974
0.999981
0.99999
1
1.00001
1.00002
1.00003
1.00002
1
0.999978
0.999955
0.999945
0.999965
1.00003
1.00017
1.00039
1.00069
1.0011
1.00159
1.00215
1.00278
1.00344
1.00411
1.00477
1.00539
1.00595
1.00641
1.00677
1.007
1.00707
1.00699
1.00674
1.00635
1.00582
1.00519
1.00451
1.00381
1.00313
1.00251
1.00195
1.00148
1.00109
1.00077
1.00053
1.00034
1.00021
1.00011
1.00005
1.00001
0.999982
0.999968
0.99996
0.999959
0.999958
0.99996
0.999959
0.999962
0.999964
0.999966
0.999967
0.999968
0.999968
0.999969
0.99997
0.99997
0.99997
0.99997
0.99997
0.99997
0.99997
0.99997
0.99997
0.99997
0.99997
0.99997
0.99997
0.99997
0.99997
0.99997
0.99997
0.99997
0.99997
0.99997
0.99997
0.99997
0.99997
0.99997
0.99997
0.99997
0.99997
0.999969
0.999969
0.999969
0.999967
0.999967
0.999966
0.999965
0.999964
0.999966
0.999968
0.999973
0.999982
0.999993
1
1.00002
1.00002
1.00001
0.999995
0.999961
0.999921
0.999885
0.999875
0.999914
1.00003
1.00023
1.00056
1.001
1.00156
1.00223
1.00298
1.0038
1.00465
1.00551
1.00635
1.00715
1.00787
1.00849
1.00899
1.00933
1.0095
1.00947
1.00923
1.00877
1.00812
1.00732
1.00641
1.00546
1.00452
1.00364
1.00284
1.00216
1.00159
1.00114
1.00078
1.00051
1.00032
1.00018
1.00009
1.00002
0.999987
0.999967
0.999957
0.999953
0.999954
0.999956
0.999954
0.999958
0.999961
0.999964
0.999966
0.999967
0.999968
0.999968
0.99997
0.99997
0.99997
0.99997
0.99997
0.99997
0.99997
0.99997
0.99997
0.99997
0.99997
0.99997
0.99997
0.99997
0.99997
0.99997
0.99997
0.99997
0.99997
0.99997
0.99997
0.99997
0.99997
0.99997
0.99997
0.99997
0.99997
0.999969
0.999969
0.999968
0.999967
0.999966
0.999964
0.999962
0.999962
0.999962
0.999966
0.999973
0.999981
0.999993
1
1.00001
1.00001
0.999984
0.999942
0.999881
0.999815
0.999763
0.999754
0.99982
0.999995
1.0003
1.00076
1.00136
1.00211
1.00297
1.00392
1.00493
1.00597
1.00701
1.00803
1.00899
1.00988
1.01067
1.01134
1.01186
1.01218
1.01228
1.01212
1.01168
1.01096
1.01001
1.00888
1.00765
1.00639
1.00518
1.00408
1.00312
1.00231
1.00166
1.00114
1.00076
1.00048
1.00028
1.00014
1.00005
0.999999
0.999969
0.999954
0.999949
0.999948
0.999951
0.999949
0.999954
0.999958
0.999962
0.999964
0.999966
0.999967
0.999968
0.999968
0.99997
0.99997
0.99997
0.99997
0.99997
0.99997
0.99997
0.99997
0.99997
0.99997
0.99997
0.99997
0.99997
0.99997
0.99997
0.99997
0.99997
0.99997
0.99997
0.99997
0.99997
0.99997
0.99997
0.99997
0.99997
0.999969
0.999968
0.999968
0.999966
0.999966
0.999963
0.999962
0.999959
0.999958
0.999959
0.999962
0.999969
0.999979
0.999989
0.999997
0.999994
0.999971
0.999923
0.999844
0.999744
0.999641
0.999566
0.999563
0.99967
0.999928
1.00036
1.00097
1.00176
1.00269
1.00375
1.00488
1.00605
1.00724
1.00841
1.00956
1.01066
1.0117
1.01266
1.01352
1.01425
1.01481
1.01514
1.01518
1.01488
1.01422
1.01322
1.01192
1.01042
1.00882
1.00723
1.00575
1.00443
1.00331
1.00239
1.00166
1.00111
1.00071
1.00042
1.00022
1.0001
1.00002
0.999975
0.999952
0.999943
0.999941
0.999945
0.999943
0.999949
0.999954
0.999959
0.999962
0.999965
0.999967
0.999967
0.999968
0.999969
0.99997
0.99997
0.99997
0.99997
0.99997
0.99997
0.99997
0.99997
0.99997
0.99997
0.99997
0.99997
0.99997
0.99997
0.99997
0.99997
0.99997
0.99997
0.99997
0.99997
0.99997
0.99997
0.99997
0.999969
0.999969
0.999968
0.999967
0.999966
0.999964
0.999961
0.999959
0.999955
0.999954
0.999954
0.999956
0.999964
0.999973
0.99998
0.999978
0.999956
0.999905
0.999812
0.999679
0.999521
0.999368
0.999268
0.999277
0.999446
0.999811
1.00039
1.00118
1.00215
1.00325
1.00445
1.0057
1.00697
1.00822
1.00944
1.01064
1.01181
1.01294
1.01404
1.01509
1.01607
1.01692
1.0176
1.018
1.01803
1.01762
1.01674
1.01541
1.01373
1.01183
1.00985
1.00793
1.00618
1.00466
1.00339
1.00239
1.00161
1.00104
1.00063
1.00035
1.00017
1.00005
0.999987
0.999952
0.999938
0.999935
0.999937
0.999935
0.999943
0.999949
0.999955
0.999959
0.999963
0.999966
0.999967
0.999968
0.999969
0.99997
0.99997
0.99997
0.99997
0.99997
0.99997
0.99997
0.99997
0.99997
0.99997
0.99997
0.99997
0.99997
0.99997
0.99997
0.99997
0.99997
0.99997
0.99997
0.99997
0.99997
0.99997
0.999969
0.999969
0.999968
0.999968
0.999967
0.999964
0.999962
0.999959
0.999954
0.99995
0.999948
0.999946
0.999949
0.999954
0.999959
0.999959
0.99994
0.999888
0.999787
0.999629
0.999418
0.99918
0.998966
0.998843
0.99888
0.999133
0.99963
1.00037
1.00133
1.00245
1.00367
1.00494
1.0062
1.00744
1.00863
1.00979
1.01092
1.01205
1.01319
1.01436
1.01556
1.01678
1.01798
1.0191
1.02001
1.02059
1.02069
1.0202
1.01909
1.01743
1.01535
1.01303
1.01067
1.00843
1.00644
1.00474
1.00337
1.00231
1.00151
1.00093
1.00054
1.00027
1.00011
1.00001
0.999958
0.999934
0.999927
0.999929
0.999927
0.999935
0.999943
0.999951
0.999957
0.999961
0.999963
0.999966
0.999967
0.999968
0.999969
0.99997
0.99997
0.99997
0.99997
0.99997
0.99997
0.99997
0.99997
0.99997
0.99997
0.99997
0.99997
0.99997
0.99997
0.99997
0.99997
0.99997
0.99997
0.99997
0.99997
0.99997
0.999969
0.999969
0.999969
0.999967
0.999966
0.999962
0.999959
0.999954
0.999948
0.999943
0.999938
0.999936
0.999937
0.999939
0.999937
0.999921
0.999873
0.999772
0.999599
0.999345
0.999025
0.998686
0.998405
0.998269
0.998358
0.998722
0.999371
1.00027
1.00137
1.00257
1.00381
1.00502
1.00617
1.00724
1.00823
1.00917
1.0101
1.01107
1.01211
1.01326
1.01454
1.01596
1.01749
1.01908
1.02062
1.02193
1.02281
1.02304
1.0225
1.02117
1.01916
1.01666
1.01394
1.01122
1.0087
1.0065
1.00468
1.00324
1.00215
1.00136
1.0008
1.00043
1.00019
1.00005
0.999972
0.999933
0.99992
0.99992
0.999917
0.999927
0.999937
0.999945
0.999953
0.999958
0.999962
0.999965
0.999967
0.999968
0.999968
0.999969
0.99997
0.99997
0.99997
0.99997
0.99997
0.99997
0.99997
0.99997
0.99997
0.99997
0.99997
0.99997
0.99997
0.99997
0.99997
0.99997
0.99997
0.99997
0.99997
0.999969
0.999969
0.999968
0.999968
0.999966
0.999963
0.99996
0.999955
0.999949
0.999941
0.999934
0.999927
0.999923
0.99992
0.999916
0.999901
0.999858
0.999763
0.999588
0.999309
0.998922
0.99846
0.998005
0.997659
0.997535
0.997712
0.998217
0.999024
1.00006
1.00123
1.00242
1.00355
1.00457
1.00545
1.00619
1.00683
1.00742
1.00802
1.00871
1.00954
1.01057
1.01183
1.01335
1.01513
1.01716
1.01934
1.02149
1.02336
1.02463
1.02505
1.02446
1.02289
1.02051
1.0176
1.01449
1.01145
1.00871
1.00636
1.00447
1.00301
1.00194
1.00117
1.00066
1.00032
1.00011
0.999999
0.999939
0.999915
0.999911
0.999908
0.999918
0.999929
0.999939
0.999949
0.999955
0.99996
0.999964
0.999966
0.999967
0.999968
0.999969
0.99997
0.99997
0.99997
0.99997
0.99997
0.99997
0.99997
0.99997
0.99997
0.99997
0.99997
0.99997
0.99997
0.99997
0.99997
0.99997
0.99997
0.99997
0.99997
0.999969
0.999969
0.999968
0.999968
0.999965
0.999961
0.999958
0.99995
0.999942
0.999932
0.999921
0.999912
0.999904
0.999896
0.999881
0.999844
0.99976
0.999594
0.999309
0.998881
0.998319
0.997688
0.99711
0.996726
0.996656
0.996961
0.99763
0.998584
0.9997
1.00085
1.00191
1.00281
1.00349
1.00396
1.00424
1.0044
1.00452
1.00468
1.00498
1.0055
1.00631
1.00745
1.00897
1.01089
1.01324
1.01597
1.01893
1.02185
1.02438
1.0261
1.0267
1.02603
1.02419
1.02142
1.01811
1.01465
1.01136
1.00845
1.00604
1.00414
1.00271
1.00168
1.00097
1.0005
1.00021
1.00005
0.999956
0.999915
0.999904
0.999899
0.999908
0.99992
0.999933
0.999944
0.999951
0.999958
0.999962
0.999965
0.999967
0.999968
0.999969
0.99997
0.99997
0.99997
0.99997
0.99997
0.99997
0.99997
0.99997
0.99997
0.99997
0.99997
0.99997
0.99997
0.99997
0.99997
0.99997
0.99997
0.99997
0.99997
0.999969
0.999969
0.999967
0.999966
0.999963
0.999959
0.999953
0.999944
0.999933
0.999921
0.999907
0.999894
0.999881
0.999863
0.99983
0.999757
0.99961
0.999341
0.998904
0.998276
0.997495
0.996679
0.995997
0.995622
0.995665
0.996147
0.996991
0.99806
0.999188
1.00022
1.00104
1.00157
1.00178
1.00171
1.00142
1.00099
1.00055
1.00019
1.00003
1.00017
1.00069
1.00165
1.00308
1.00502
1.00754
1.01063
1.01424
1.01813
1.02194
1.02516
1.02731
1.02802
1.02719
1.02501
1.02184
1.01816
1.01441
1.01095
1.00797
1.00555
1.0037
1.00234
1.00139
1.00076
1.00036
1.00012
0.999986
0.999923
0.999899
0.999892
0.999899
0.999912
0.999925
0.999938
0.999948
0.999954
0.99996
0.999964
0.999966
0.999967
0.999968
0.999969
0.99997
0.99997
0.99997
0.99997
0.99997
0.99997
0.99997
0.99997
0.99997
0.99997
0.99997
0.99997
0.99997
0.99997
0.99997
0.99997
0.99997
0.99997
0.999969
0.999968
0.999968
0.999965
0.999962
0.999956
0.999948
0.999937
0.999923
0.999907
0.999889
0.999871
0.999849
0.999817
0.999755
0.999629
0.999391
0.998976
0.998331
0.997449
0.996417
0.995422
0.99469
0.994403
0.994632
0.995329
0.996345
0.997485
0.998548
0.999367
0.999828
0.99987
0.999494
0.998762
0.997777
0.996668
0.995576
0.994642
0.993992
0.993739
0.99396
0.994707
0.996012
0.997913
1.00047
1.00375
1.00776
1.01239
1.01732
1.02203
1.02589
1.02834
1.02902
1.02791
1.02532
1.02174
1.01774
1.01379
1.01025
1.00728
1.00494
1.00319
1.00195
1.00111
1.00056
1.00023
1.00004
0.999941
0.999901
0.999888
0.99989
0.999903
0.999918
0.999932
0.999943
0.999952
0.999958
0.999962
0.999965
0.999967
0.999968
0.999969
0.99997
0.99997
0.99997
0.99997
0.99997
0.99997
0.99997
0.99997
0.99997
0.99997
0.99997
0.99997
0.99997
0.99997
0.99997
0.99997
0.99997
0.999969
0.999969
0.999968
0.999967
0.999963
0.99996
0.999953
0.999941
0.999928
0.999911
0.99989
0.999867
0.999841
0.999808
0.999754
0.99965
0.999448
0.999081
0.998467
0.997551
0.996364
0.995071
0.993945
0.993254
0.993153
0.993643
0.994584
0.995755
0.996913
0.997833
0.99834
0.998325
0.99775
0.996647
0.995114
0.993305
0.9914
0.989583
0.988028
0.986881
0.986258
0.986228
0.986826
0.988054
0.989927
0.992489
0.99583
1.00004
1.00512
1.01087
1.01684
1.02237
1.02671
1.02924
1.02969
1.02817
1.02511
1.02114
1.01689
1.01284
1.00931
1.00645
1.00425
1.00266
1.00156
1.00083
1.00038
1.00011
0.999973
0.999909
0.99989
0.999885
0.999895
0.99991
0.999925
0.999938
0.999948
0.999956
0.999961
0.999964
0.999966
0.999967
0.999968
0.99997
0.99997
0.99997
0.99997
0.99997
0.99997
0.99997
0.99997
0.99997
0.99997
0.99997
0.99997
0.99997
0.99997
0.99997
0.99997
0.99997
0.999969
0.999969
0.999967
0.999965
0.999962
0.999957
0.999947
0.999935
0.999918
0.999896
0.99987
0.999841
0.999805
0.999755
0.999668
0.999505
0.999196
0.99865
0.997774
0.996522
0.994998
0.993475
0.992315
0.99179
0.991986
0.992798
0.993997
0.995296
0.996412
0.997098
0.997174
0.996542
0.995182
0.993164
0.990639
0.987828
0.984976
0.982331
0.980111
0.978486
0.977568
0.977405
0.977992
0.979288
0.981258
0.983908
0.987315
0.991611
0.996902
1.00315
1.01004
1.01697
1.02312
1.02766
1.03001
1.03
1.02792
1.02437
1.02006
1.01565
1.01161
1.00821
1.00553
1.00354
1.00213
1.00118
1.00058
1.00022
1.00003
0.999928
0.999899
0.999883
0.999888
0.999903
0.999919
0.999933
0.999945
0.999953
0.999958
0.999963
0.999966
0.999967
0.999968
0.999969
0.999969
0.99997
0.99997
0.99997
0.99997
0.99997
0.99997
0.99997
0.99997
0.99997
0.99997
0.99997
0.99997
0.99997
0.99997
0.99997
0.999969
0.999968
0.999966
0.999965
0.999961
0.999953
0.999942
0.999927
0.999906
0.999878
0.999847
0.99981
0.99976
0.999686
0.999554
0.999306
0.998851
0.998072
0.99686
0.995217
0.993358
0.991694
0.990641
0.990425
0.991016
0.992195
0.993647
0.995032
0.996027
0.996362
0.995851
0.994397
0.992013
0.988817
0.985029
0.980959
0.97695
0.973336
0.970395
0.96833
0.967246
0.967148
0.967961
0.969574
0.971877
0.974817
0.97843
0.982849
0.988254
0.994746
1.0022
1.01016
1.01785
1.02431
1.0287
1.03055
1.02987
1.02715
1.02311
1.01856
1.01411
1.0102
1.00702
1.00458
1.00283
1.00163
1.00085
1.00037
1.0001
0.999961
0.999919
0.999886
0.999884
0.999897
0.999912
0.999928
0.999941
0.99995
0.999958
0.999962
0.999965
0.999966
0.999967
0.999969
0.999969
0.99997
0.99997
0.99997
0.99997
0.99997
0.99997
0.99997
0.99997
0.99997
0.99997
0.99997
0.99997
0.99997
0.99997
0.99997
0.999969
0.999968
0.999966
0.999963
0.999958
0.999949
0.999936
0.999917
0.999893
0.999859
0.99982
0.999773
0.999706
0.999597
0.999403
0.999041
0.998392
0.99731
0.995693
0.993628
0.991494
0.989831
0.98906
0.989289
0.99035
0.991914
0.993593
0.994994
0.995754
0.995572
0.994246
0.991688
0.987945
0.9832
0.977776
0.9721
0.966645
0.961865
0.958128
0.955682
0.95462
0.954878
0.956274
0.958575
0.961567
0.965113
0.969191
0.97391
0.979482
0.986118
0.993874
1.0025
1.01134
1.01947
1.02584
1.0297
1.03075
1.02923
1.02583
1.02139
1.01671
1.01237
1.00869
1.0058
1.00367
1.00218
1.00119
1.00057
1.00021
1.00001
0.99995
0.999897
0.999884
0.999892
0.999907
0.999922
0.999937
0.999948
0.999955
0.999961
0.999964
0.999966
0.999967
0.999969
0.999969
0.99997
0.99997
0.99997
0.99997
0.99997
0.99997
0.99997
0.99997
0.99997
0.99997
0.99997
0.99997
0.99997
0.999969
0.99997
0.999969
0.999967
0.999966
0.999961
0.999955
0.999945
0.999929
0.999905
0.999877
0.999838
0.999789
0.999728
0.999639
0.999484
0.999206
0.998695
0.997796
0.996335
0.99425
0.991781
0.989498
0.988028
0.98771
0.988491
0.990063
0.992002
0.993851
0.995162
0.995523
0.994589
0.992134
0.988084
0.982532
0.975751
0.968193
0.960448
0.953164
0.946958
0.942325
0.939582
0.938805
0.939835
0.942322
0.945841
0.950016
0.954593
0.95949
0.964786
0.970702
0.977523
0.98546
0.994469
1.00411
1.01353
1.02167
1.02751
1.03045
1.03045
1.02803
1.02401
1.01929
1.01464
1.01052
1.00717
1.00464
1.00282
1.0016
1.00082
1.00034
1.00008
0.999996
0.999914
0.999888
0.999889
0.999903
0.999919
0.999933
0.999945
0.999953
0.999959
0.999963
0.999966
0.999967
0.999968
0.999969
0.99997
0.99997
0.99997
0.99997
0.99997
0.99997
0.99997
0.99997
0.99997
0.99997
0.99997
0.99997
0.99997
0.999969
0.99997
0.999968
0.999966
0.999966
0.99996
0.999952
0.999941
0.999921
0.999893
0.99986
0.999814
0.999753
0.999677
0.999557
0.999343
0.998953
0.998249
0.997035
0.995122
0.99254
0.989746
0.9875
0.986427
0.986703
0.988103
0.99019
0.992459
0.994388
0.99546
0.995193
0.993189
0.989196
0.983151
0.975213
0.965771
0.955445
0.945035
0.935427
0.927461
0.92181
0.918888
0.918762
0.921136
0.925419
0.930896
0.93693
0.943101
0.94925
0.955447
0.96194
0.969078
0.977193
0.986428
0.996567
1.00694
1.01652
1.02418
1.02903
1.03073
1.02956
1.02624
1.02174
1.01692
1.01244
1.00867
1.00573
1.00357
1.00208
1.00111
1.00052
1.00017
1.00006
0.999942
0.999898
0.99989
0.9999
0.999915
0.999929
0.999942
0.999951
0.999958
0.999962
0.999966
0.999967
0.999967
0.999969
0.999969
0.99997
0.99997
0.99997
0.99997
0.99997
0.99997
0.99997
0.99997
0.99997
0.999969
0.99997
0.99997
0.999968
0.99997
0.999968
0.999965
0.999965
0.999958
0.999947
0.999936
0.999913
0.999878
0.999842
0.99979
0.999714
0.999616
0.999459
0.999167
0.998631
0.997689
0.996091
0.993662
0.990601
0.987632
0.985644
0.985148
0.986111
0.988146
0.990718
0.993247
0.995129
0.995758
0.994566
0.991087
0.985038
0.976379
0.965346
0.95247
0.938586
0.924769
0.912218
0.902078
0.895271
0.892346
0.893365
0.897854
0.904885
0.913322
0.922135
0.930636
0.938561
0.946008
0.953302
0.960892
0.969225
0.978613
0.989044
1.00006
1.01075
1.01996
1.02662
1.03009
1.03036
1.028
1.02393
1.01914
1.01441
1.01026
1.00692
1.00441
1.00264
1.00147
1.00073
1.00029
1.00013
0.999981
0.999914
0.999895
0.999899
0.999913
0.999927
0.99994
0.999949
0.999956
0.999962
0.999965
0.999966
0.999967
0.999969
0.999969
0.99997
0.99997
0.99997
0.99997
0.99997
0.99997
0.99997
0.99997
0.99997
0.99997
0.99997
0.999971
0.999967
0.99997
0.999969
0.999963
0.999963
0.999958
0.999942
0.99993
0.999907
0.999864
0.999821
0.999764
0.999671
0.999543
0.999341
0.998952
0.998233
0.996996
0.994948
0.991967
0.988506
0.985568
0.984055
0.984267
0.985951
0.988601
0.991606
0.994295
0.995963
0.995892
0.993407
0.987961
0.979238
0.967223
0.952249
0.935019
0.916625
0.8985
0.882258
0.869458
0.86136
0.858701
0.861527
0.869124
0.880124
0.892819
0.905613
0.917408
0.927771
0.936841
0.945111
0.95321
0.961756
0.971219
0.981782
0.993185
1.00468
1.01516
1.02343
1.02861
1.03042
1.0292
1.02579
1.02119
1.01634
1.01189
1.00818
1.00533
1.00327
1.00187
1.00098
1.00044
1.00023
1.00003
0.999938
0.999905
0.999902
0.999912
0.999925
0.999938
0.999947
0.999955
0.999961
0.999965
0.999966
0.999968
0.999969
0.999969
0.99997
0.99997
0.99997
0.99997
0.99997
0.99997
0.99997
0.99997
0.99997
0.99997
0.999968
0.999971
0.999967
0.999968
0.99997
0.999962
0.999962
0.999957
0.999937
0.999922
0.9999
0.999848
0.999797
0.999738
0.999624
0.999457
0.999198
0.998691
0.997751
0.996157
0.993603
0.990079
0.986362
0.983679
0.982821
0.983804
0.986197
0.989419
0.992786
0.995513
0.996762
0.995678
0.991463
0.983474
0.971363
0.95515
0.935269
0.912621
0.888612
0.865128
0.844334
0.828352
0.818888
0.816908
0.822411
0.834344
0.850769
0.869263
0.887499
0.903797
0.917434
0.928574
0.937954
0.946514
0.955142
0.964524
0.975024
0.986573
0.998584
1.01003
1.01968
1.02645
1.0298
1.02984
1.02725
1.02303
1.01819
1.01352
1.00949
1.00631
1.00396
1.00233
1.00126
1.00061
1.00034
1.00009
0.99997
0.99992
0.999907
0.999913
0.999924
0.999937
0.999947
0.999955
0.99996
0.999964
0.999966
0.999967
0.999969
0.999969
0.99997
0.99997
0.99997
0.99997
0.99997
0.99997
0.99997
0.99997
0.99997
0.99997
0.999968
0.999972
0.999967
0.999967
0.999971
0.999961
0.999958
0.999958
0.999932
0.999913
0.999896
0.999836
0.99977
0.99971
0.999577
0.999357
0.999027
0.998385
0.997177
0.995164
0.99207
0.98807
0.98428
0.982061
0.981975
0.98374
0.986797
0.990535
0.994183
0.996801
0.997387
0.994932
0.988489
0.977322
0.961044
0.939708
0.913863
0.884624
0.853774
0.823776
0.797524
0.777875
0.767114
0.766461
0.77577
0.793491
0.816945
0.842872
0.868111
0.890269
0.908183
0.921958
0.932604
0.941492
0.949935
0.958933
0.96908
0.980482
0.992708
1.00482
1.01558
1.02377
1.02861
1.02995
1.0283
1.0246
1.0199
1.0151
1.01081
1.00732
1.00469
1.00282
1.00158
1.0008
1.00047
1.00017
1.00001
0.999939
0.999916
0.999916
0.999924
0.999936
0.999946
0.999954
0.99996
0.999964
0.999966
0.999968
0.999969
0.999969
0.99997
0.99997
0.99997
0.99997
0.99997
0.99997
0.99997
0.999969
0.99997
0.999971
0.999967
0.999972
0.999969
0.999964
0.999973
0.999961
0.999953
0.99996
0.999931
0.9999
0.999891
0.999827
0.999739
0.999678
0.999531
0.999243
0.998821
0.998028
0.996511
0.994017
0.99038
0.98603
0.982363
0.980761
0.981503
0.984027
0.987691
0.99188
0.995717
0.998062
0.997709
0.99348
0.98428
0.969265
0.948014
0.920615
0.887722
0.850686
0.811746
0.774083
0.741519
0.717867
0.706135
0.707805
0.722415
0.747621
0.779753
0.814602
0.848193
0.877432
0.900628
0.917689
0.929824
0.938903
0.946798
0.954977
0.964349
0.975225
0.987314
0.999766
1.01134
1.02073
1.02693
1.02957
1.02893
1.02587
1.02143
1.0166
1.01211
1.00835
1.00544
1.00335
1.00193
1.00102
1.00062
1.00025
1.00006
0.999965
0.999929
0.999921
0.999927
0.999937
0.999946
0.999953
0.999959
0.999963
0.999966
0.999968
0.999968
0.999969
0.99997
0.99997
0.99997
0.99997
0.99997
0.99997
0.99997
0.99997
0.99997
0.999972
0.999966
0.999971
0.999972
0.99996
0.999974
0.999965
0.999945
0.99996
0.999934
0.999885
0.999884
0.999826
0.999707
0.99964
0.999487
0.999119
0.998577
0.99762
0.995759
0.99273
0.988582
0.984046
0.980683
0.979784
0.981362
0.98461
0.988818
0.993382
0.997311
0.999206
0.997617
0.991193
0.978702
0.959193
0.932208
0.897867
0.856934
0.811021
0.76289
0.716574
0.677016
0.649248
0.637231
0.642729
0.664665
0.69941
0.741875
0.786775
0.829474
0.866422
0.895517
0.916374
0.93024
0.939404
0.946371
0.953214
0.96128
0.971147
0.98268
0.995103
1.00718
1.01752
1.02492
1.02878
1.02919
1.02683
1.02275
1.01799
1.01336
1.00937
1.00622
1.0039
1.0023
1.00126
1.00078
1.00035
1.00011
0.999994
0.999944
0.999929
0.999931
0.999938
0.999947
0.999953
0.999959
0.999963
0.999966
0.999968
0.999968
0.999969
0.99997
0.99997
0.99997
0.99997
0.99997
0.99997
0.99997
0.99997
0.999968
0.999972
0.999966
0.999969
0.999976
0.999958
0.99997
0.999972
0.999937
0.999955
0.999943
0.99987
0.99987
0.999834
0.999679
0.999588
0.999445
0.998992
0.998292
0.997153
0.994934
0.991331
0.986731
0.982193
0.979279
0.979105
0.981491
0.985432
0.99012
0.994976
0.998893
1.00016
0.997032
0.988006
0.971739
0.947181
0.91384
0.871877
0.822195
0.766697
0.70869
0.653069
0.606037
0.574214
0.562985
0.574505
0.606566
0.653431
0.707952
0.763574
0.815255
0.859501
0.894203
0.918791
0.934389
0.943494
0.949159
0.954124
0.960292
0.968597
0.979085
0.991065
1.0033
1.01429
1.02271
1.02769
1.0291
1.0275
1.02385
1.01923
1.01453
1.01036
1.00698
1.00446
1.00268
1.00151
1.00094
1.00045
1.00017
1.00003
0.999963
0.99994
0.999935
0.99994
0.999947
0.999954
0.999959
0.999963
0.999966
0.999967
0.999969
0.999969
0.999969
0.99997
0.99997
0.99997
0.99997
0.99997
0.99997
0.999971
0.999967
0.999973
0.999967
0.999965
0.99998
0.999958
0.999964
0.999982
0.999933
0.999944
0.999958
0.99986
0.999846
0.999848
0.999663
0.999522
0.999396
0.998872
0.997969
0.996622
0.994053
0.989868
0.984878
0.980511
0.978164
0.978686
0.981822
0.986436
0.991553
0.996601
1.0004
1.00088
0.995928
0.983936
0.963523
0.933554
0.893498
0.84362
0.785043
0.719981
0.652122
0.586974
0.532015
0.496102
0.487047
0.507635
0.553546
0.615653
0.684013
0.750614
0.81029
0.860226
0.899001
0.926253
0.94297
0.951606
0.955528
0.958064
0.961718
0.967861
0.976779
0.987865
0.999872
1.01123
1.02041
1.02637
1.02874
1.0279
1.02473
1.02031
1.01561
1.01129
1.00773
1.00501
1.00307
1.00177
1.00111
1.00056
1.00024
1.00007
0.999986
0.999952
0.999943
0.999944
0.999949
0.999955
0.99996
0.999963
0.999965
0.999968
0.999969
0.999969
0.99997
0.99997
0.99997
0.99997
0.99997
0.99997
0.99997
0.999972
0.999966
0.999972
0.999971
0.999961
0.999982
0.999962
0.999954
0.999989
0.999937
0.999925
0.999973
0.999865
0.999812
0.99986
0.999669
0.999444
0.999332
0.998769
0.997621
0.996019
0.993133
0.988403
0.983066
0.979009
0.977331
0.97849
0.982285
0.98756
0.99308
0.99821
1.00179
1.00135
0.994341
0.979116
0.954379
0.918929
0.872212
0.814739
0.748027
0.674517
0.59779
0.523319
0.459696
0.419082
0.413621
0.447047
0.511071
0.591617
0.675453
0.753061
0.819318
0.872567
0.912823
0.940597
0.956989
0.964255
0.96578
0.965269
0.965778
0.969152
0.97595
0.985676
0.997068
1.00846
1.01817
1.02493
1.02817
1.02806
1.0254
1.02123
1.01657
1.01216
1.00843
1.00554
1.00345
1.00203
1.00129
1.00067
1.00031
1.00011
1.00001
0.999966
0.999951
0.999948
0.999952
0.999956
0.99996
0.999964
0.999965
0.999968
0.999968
0.999969
0.999969
0.99997
0.99997
0.99997
0.99997
0.99997
0.999969
0.999972
0.999967
0.99997
0.999975
0.999957
0.99998
0.99997
0.999942
0.999993
0.999951
0.999901
0.99998
0.999888
0.999771
0.999859
0.999702
0.999367
0.999234
0.998685
0.997276
0.99534
0.992189
0.986999
0.981337
0.977661
0.976754
0.9785
0.982811
0.988734
0.994676
0.999776
1.003
1.00158
0.99239
0.973805
0.944827
0.904224
0.851459
0.787558
0.714669
0.635174
0.551694
0.468666
0.395314
0.348227
0.346917
0.396637
0.482365
0.583783
0.684388
0.773153
0.844887
0.899202
0.938063
0.963587
0.977513
0.981987
0.980173
0.97589
0.972595
0.972582
0.976717
0.984615
0.995003
1.00611
1.01609
1.02347
1.02745
1.02803
1.02587
1.02198
1.0174
1.01294
1.00909
1.00605
1.00382
1.00229
1.00146
1.00078
1.00038
1.00015
1.00004
0.999983
0.999961
0.999954
0.999954
0.999958
0.999962
0.999964
0.999966
0.999967
0.999969
0.999969
0.999969
0.99997
0.999969
0.99997
0.99997
0.99997
0.999969
0.999972
0.999967
0.999967
0.999979
0.999956
0.999974
0.999982
0.999933
0.999986
0.999974
0.999881
0.99997
0.999929
0.99974
0.999831
0.999757
0.999312
0.999097
0.998607
0.996963
0.994605
0.991219
0.985709
0.979733
0.976427
0.976387
0.978708
0.983354
0.98987
0.996317
1.0013
1.00403
1.00162
0.990271
0.968387
0.935559
0.890603
0.83307
0.764894
0.689053
0.607376
0.520539
0.430986
0.34749
0.290586
0.290906
0.357796
0.466792
0.590411
0.708811
0.809282
0.886245
0.940313
0.975514
0.99613
1.00521
1.00514
0.998827
0.989948
0.982177
0.978179
0.979118
0.984741
0.993751
1.00426
1.01426
1.02206
1.02665
1.02784
1.02616
1.02257
1.01811
1.01363
1.00968
1.00652
1.00418
1.00254
1.00162
1.00089
1.00045
1.0002
1.00007
1
0.99997
0.999961
0.999958
0.999961
0.999963
0.999965
0.999966
0.999968
0.999969
0.999969
0.99997
0.99997
0.99997
0.99997
0.99997
0.99997
0.999969
0.999971
0.999969
0.999964
0.999979
0.999961
0.999964
0.999992
0.999934
0.999968
1
0.999875
0.999941
0.999977
0.999736
0.999774
0.999817
0.999303
0.998924
0.998507
0.996712
0.993854
0.990214
0.984553
0.978312
0.975271
0.976141
0.979108
0.983907
0.990871
0.997957
1.00283
1.00486
1.00153
0.988251
0.963352
0.927362
0.879341
0.819029
0.749627
0.67504
0.595974
0.510541
0.418786
0.327477
0.257152
0.250579
0.330066
0.461381
0.607651
0.744634
0.857591
0.940261
0.993838
1.02417
1.03792
1.04002
1.03363
1.02157
1.00726
0.994372
0.985844
0.983111
0.98605
0.993335
1.00296
1.01274
1.02077
1.02583
1.02755
1.02631
1.02301
1.01868
1.01421
1.0102
1.00695
1.0045
1.00277
1.00177
1.00099
1.00052
1.00025
1.0001
1.00002
0.999983
0.999967
0.999963
0.999963
0.999964
0.999966
0.999967
0.999968
0.999968
0.99997
0.999969
0.99997
0.99997
0.999969
0.99997
0.99997
0.999969
0.99997
0.999971
0.999963
0.999977
0.999967
0.999955
0.999996
0.999945
0.999944
1.00002
0.999892
0.999898
1.00001
0.999769
0.999701
0.999853
0.99935
0.998749
0.998356
0.996525
0.993156
0.989173
0.983515
0.97713
0.97419
0.975901
0.979665
0.984519
0.991663
0.999498
1.00441
1.00555
1.00136
0.986631
0.959259
0.921013
0.871632
0.811142
0.744112
0.675308
0.604
0.525671
0.438006
0.344738
0.261757
0.23607
0.31582
0.465268
0.633189
0.788613
0.914406
1.00333
1.05669
1.08178
1.08755
1.0811
1.06687
1.0479
1.02737
1.00883
0.995339
0.988548
0.988462
0.993734
1.00222
1.01156
1.01964
1.02503
1.02717
1.02633
1.0233
1.01912
1.01469
1.01064
1.00731
1.00478
1.00298
1.0019
1.00108
1.00058
1.00029
1.00012
1.00004
0.999995
0.999975
0.999968
0.999966
0.999966
0.999967
0.999967
0.999969
0.999969
0.999969
0.99997
0.99997
0.99997
0.99997
0.99997
0.99997
0.999969
0.999969
0.999972
0.999963
0.999974
0.999974
0.999951
0.99999
0.999964
0.999927
1.00002
0.999928
0.99986
1.00002
0.999836
0.999642
0.99984
0.999441
0.99862
0.99814
0.996371
0.992585
0.988132
0.982534
0.97621
0.973235
0.975555
0.980276
0.985275
0.992237
1.00078
1.00608
1.00622
1.00114
0.985678
0.956665
0.917148
0.868372
0.810705
0.749651
0.690697
0.631817
0.566025
0.488492
0.399927
0.311358
0.263748
0.327223
0.484926
0.669342
0.840246
0.97772
1.07273
1.12593
1.14566
1.14292
1.12699
1.10383
1.07701
1.04963
1.02503
1.00628
0.995173
0.991827
0.994868
1.00203
1.01074
1.0187
1.02429
1.02676
1.02624
1.02347
1.01943
1.01505
1.011
1.00762
1.00503
1.00316
1.00201
1.00117
1.00064
1.00033
1.00015
1.00006
1.00001
0.999983
0.999973
0.99997
0.999967
0.999968
0.999967
0.999969
0.999969
0.999969
0.99997
0.99997
0.99997
0.99997
0.99997
0.99997
0.99997
0.999968
0.999972
0.999966
0.99997
0.999977
0.999953
0.999979
0.99998
0.999923
0.999996
0.999968
0.999846
0.99999
0.999913
0.999629
0.99978
0.999532
0.99858
0.997884
0.996196
0.992182
0.987171
0.981552
0.975513
0.972488
0.975057
0.980762
0.986225
0.992708
1.00163
1.00778
1.00709
1.00094
0.985541
0.956043
0.916211
0.869976
0.818208
0.766246
0.720091
0.677063
0.627806
0.564597
0.486021
0.400954
0.343531
0.386421
0.537712
0.725531
0.902855
1.04749
1.1469
1.19933
1.21332
1.20168
1.17575
1.14302
1.1078
1.07316
1.04228
1.01814
1.00263
0.995918
0.996609
1.0023
1.01026
1.01797
1.02363
1.02633
1.02607
1.02352
1.01963
1.01531
1.01126
1.00786
1.00522
1.00332
1.00211
1.00124
1.00069
1.00037
1.00018
1.00007
1.00002
0.999992
0.999978
0.999973
0.99997
0.999969
0.999969
0.999969
0.99997
0.999969
0.99997
0.99997
0.99997
0.99997
0.99997
0.99997
0.999969
0.99997
0.99997
0.99997
0.999967
0.999976
0.99996
0.999969
0.999986
0.999934
0.999971
0.999993
0.999868
0.999945
0.999968
0.999674
0.999703
0.999579
0.998633
0.997654
0.99596
0.991928
0.9864
0.980563
0.974923
0.972008
0.974474
0.980926
0.98729
0.993305
1.00197
1.00928
1.00838
1.00092
0.986166
0.957657
0.918462
0.8763
0.833176
0.792702
0.760907
0.735463
0.704951
0.658715
0.594433
0.521184
0.470177
0.506135
0.642254
0.814958
0.982535
1.12491
1.22469
1.27486
1.28248
1.26154
1.2253
1.18275
1.1389
1.09692
1.05979
1.03034
1.01049
1.00045
0.998785
1.00296
1.01008
1.01744
1.02306
1.0259
1.02584
1.02346
1.0197
1.01546
1.01143
1.00802
1.00537
1.00344
1.00218
1.00129
1.00074
1.0004
1.0002
1.00009
1.00003
0.999999
0.999983
0.999975
0.999972
0.99997
0.999969
0.99997
0.99997
0.99997
0.99997
0.999969
0.99997
0.99997
0.99997
0.99997
0.999968
0.999971
0.999969
0.99997
0.999969
0.999972
0.999967
0.999965
0.999981
0.999953
0.999956
0.999993
0.999909
0.999915
0.999978
0.999758
0.999658
0.999559
0.998737
0.997522
0.995676
0.991745
0.985886
0.979644
0.974311
0.971746
0.973968
0.980672
0.988203