/*--------------------------------*- C++ -*----------------------------------*\
  =========                 |
  \\      /  F ield         | OpenFOAM: The Open Source CFD Toolbox
   \\    /   O peration     | Website:  https://openfoam.org
    \\  /    A nd           | Version:  6
     \\/     M anipulation  |
\*---------------------------------------------------------------------------*/
FoamFile
{
    version     2.0;
    format      ascii;
    class       volVectorField;
    location    "1.48";
    object      U;
}
// * * * * * * * * * * * * * * * * * * * * * * * * * * * * * * * * * * * * * //

dimensions      [0 1 -1 0 0 0 0];

internalField   nonuniform List<vector> 
5625
(
(1.19065 -0.16591 0)
(1.24559 -0.17562 0)
(1.29861 -0.163309 0)
(1.34773 -0.129197 0)
(1.39133 -0.0747796 0)
(1.42819 -0.0025141 0)
(1.45747 0.084606 0)
(1.4787 0.183325 0)
(1.49179 0.290301 0)
(1.49718 0.402058 0)
(1.49582 0.514904 0)
(1.48884 0.625275 0)
(1.47709 0.729915 0)
(1.46071 0.825315 0)
(1.43921 0.907018 0)
(1.41197 0.970078 0)
(1.37903 1.01061 0)
(1.34128 1.02722 0)
(1.3002 1.02132 0)
(1.25724 0.996382 0)
(1.21358 0.956845 0)
(1.17017 0.907291 0)
(1.12791 0.851984 0)
(1.08779 0.794698 0)
(1.05082 0.738592 0)
(1.01786 0.686097 0)
(0.989494 0.638879 0)
(0.965919 0.59785 0)
(0.94697 0.563272 0)
(0.932215 0.534926 0)
(0.921052 0.512268 0)
(0.912831 0.494577 0)
(0.906924 0.481074 0)
(0.902775 0.470985 0)
(0.89992 0.463604 0)
(0.897994 0.458314 0)
(0.896716 0.454598 0)
(0.89588 0.45204 0)
(0.89534 0.450311 0)
(0.894995 0.449166 0)
(0.894776 0.448422 0)
(0.894638 0.447947 0)
(0.894551 0.447649 0)
(0.894495 0.447466 0)
(0.89446 0.447355 0)
(0.894438 0.447289 0)
(0.894424 0.44725 0)
(0.894415 0.447228 0)
(0.89441 0.447215 0)
(0.894406 0.447208 0)
(0.894404 0.447204 0)
(0.894402 0.447202 0)
(0.894401 0.447201 0)
(0.894401 0.4472 0)
(0.894401 0.4472 0)
(0.8944 0.4472 0)
(0.8944 0.4472 0)
(0.8944 0.4472 0)
(0.8944 0.4472 0)
(0.8944 0.4472 0)
(0.8944 0.4472 0)
(0.8944 0.4472 0)
(0.8944 0.4472 0)
(0.8944 0.4472 0)
(0.8944 0.4472 0)
(0.8944 0.4472 0)
(0.8944 0.4472 0)
(0.8944 0.4472 0)
(0.8944 0.4472 0)
(0.8944 0.4472 0)
(0.8944 0.4472 0)
(0.8944 0.4472 0)
(0.8944 0.4472 0)
(0.8944 0.4472 0)
(0.8944 0.4472 0)
(1.21231 -0.1325 0)
(1.27135 -0.143657 0)
(1.32852 -0.133765 0)
(1.3817 -0.102867 0)
(1.42916 -0.0522819 0)
(1.4696 0.015701 0)
(1.50206 0.0982346 0)
(1.526 0.192154 0)
(1.54127 0.294151 0)
(1.54822 0.400685 0)
(1.54766 0.508035 0)
(1.54055 0.612694 0)
(1.52762 0.711479 0)
(1.50902 0.800952 0)
(1.48429 0.876875 0)
(1.453 0.934752 0)
(1.41543 0.971246 0)
(1.37275 0.985369 0)
(1.32664 0.978674 0)
(1.27877 0.954523 0)
(1.23053 0.917122 0)
(1.18303 0.87076 0)
(1.13729 0.819391 0)
(1.09437 0.766466 0)
(1.05527 0.714824 0)
(1.02078 0.666622 0)
(0.991371 0.623318 0)
(0.967116 0.5857 0)
(0.947741 0.553983 0)
(0.932722 0.527959 0)
(0.921398 0.507137 0)
(0.913077 0.490864 0)
(0.907104 0.47843 0)
(0.902909 0.469134 0)
(0.900022 0.462329 0)
(0.89807 0.45745 0)
(0.896774 0.454022 0)
(0.895923 0.451661 0)
(0.895371 0.450066 0)
(0.895018 0.44901 0)
(0.894792 0.448324 0)
(0.894648 0.447886 0)
(0.894558 0.447612 0)
(0.8945 0.447443 0)
(0.894464 0.447342 0)
(0.89444 0.447281 0)
(0.894425 0.447246 0)
(0.894416 0.447225 0)
(0.89441 0.447214 0)
(0.894406 0.447207 0)
(0.894404 0.447204 0)
(0.894402 0.447202 0)
(0.894401 0.447201 0)
(0.894401 0.4472 0)
(0.894401 0.4472 0)
(0.8944 0.4472 0)
(0.8944 0.4472 0)
(0.8944 0.4472 0)
(0.8944 0.4472 0)
(0.8944 0.4472 0)
(0.8944 0.4472 0)
(0.8944 0.4472 0)
(0.8944 0.4472 0)
(0.8944 0.4472 0)
(0.8944 0.4472 0)
(0.8944 0.4472 0)
(0.8944 0.4472 0)
(0.8944 0.4472 0)
(0.8944 0.4472 0)
(0.8944 0.4472 0)
(0.8944 0.4472 0)
(0.8944 0.4472 0)
(0.8944 0.4472 0)
(0.8944 0.4472 0)
(0.8944 0.4472 0)
(1.22565 -0.0956397 0)
(1.28782 -0.108258 0)
(1.34836 -0.100999 0)
(1.40494 -0.0736653 0)
(1.45572 -0.0273774 0)
(1.49925 0.0357838 0)
(1.53451 0.113114 0)
(1.56086 0.201569 0)
(1.5781 0.297862 0)
(1.58648 0.398417 0)
(1.58667 0.499568 0)
(1.57946 0.597939 0)
(1.56548 0.690417 0)
(1.54483 0.773615 0)
(1.51716 0.84351 0)
(1.48228 0.896072 0)
(1.44072 0.92853 0)
(1.39393 0.940317 0)
(1.34378 0.933107 0)
(1.29208 0.910123 0)
(1.24035 0.875282 0)
(1.18983 0.832533 0)
(1.14165 0.785479 0)
(1.09689 0.737225 0)
(1.05652 0.690291 0)
(1.02124 0.646566 0)
(0.991396 0.60731 0)
(0.96695 0.573202 0)
(0.947526 0.544423 0)
(0.932529 0.520784 0)
(0.921254 0.501847 0)
(0.912983 0.487031 0)
(0.907052 0.475699 0)
(0.902887 0.46722 0)
(0.90002 0.461009 0)
(0.898078 0.456554 0)
(0.896785 0.453424 0)
(0.895935 0.451268 0)
(0.895383 0.449812 0)
(0.895028 0.448849 0)
(0.8948 0.448223 0)
(0.894654 0.447824 0)
(0.894562 0.447573 0)
(0.894503 0.44742 0)
(0.894466 0.447328 0)
(0.894442 0.447273 0)
(0.894427 0.447241 0)
(0.894417 0.447222 0)
(0.894411 0.447212 0)
(0.894407 0.447207 0)
(0.894404 0.447203 0)
(0.894402 0.447202 0)
(0.894401 0.447201 0)
(0.894401 0.4472 0)
(0.894401 0.4472 0)
(0.8944 0.4472 0)
(0.8944 0.4472 0)
(0.8944 0.4472 0)
(0.8944 0.4472 0)
(0.8944 0.4472 0)
(0.8944 0.4472 0)
(0.8944 0.4472 0)
(0.8944 0.4472 0)
(0.8944 0.4472 0)
(0.8944 0.4472 0)
(0.8944 0.4472 0)
(0.8944 0.4472 0)
(0.8944 0.4472 0)
(0.8944 0.4472 0)
(0.8944 0.4472 0)
(0.8944 0.4472 0)
(0.8944 0.4472 0)
(0.8944 0.4472 0)
(0.8944 0.4472 0)
(0.8944 0.4472 0)
(1.23068 -0.056008 0)
(1.29481 -0.0699324 0)
(1.3577 -0.0653509 0)
(1.41688 -0.0418121 0)
(1.47029 -0.000175192 0)
(1.51637 0.0576958 0)
(1.55397 0.12928 0)
(1.58238 0.211642 0)
(1.60134 0.301531 0)
(1.61101 0.395414 0)
(1.61188 0.489769 0)
(1.60464 0.581374 0)
(1.58977 0.667178 0)
(1.56733 0.743831 0)
(1.53713 0.807541 0)
(1.49922 0.854774 0)
(1.45447 0.883335 0)
(1.40454 0.893041 0)
(1.35144 0.885651 0)
(1.29708 0.864214 0)
(1.24303 0.832316 0)
(1.19065 0.793526 0)
(1.14111 0.751066 0)
(1.0955 0.707683 0)
(1.05472 0.665585 0)
(1.01937 0.626405 0)
(0.989687 0.591232 0)
(0.965515 0.56065 0)
(0.946399 0.534814 0)
(0.93169 0.513564 0)
(0.920658 0.496518 0)
(0.912578 0.483165 0)
(0.906787 0.472942 0)
(0.902721 0.465286 0)
(0.899919 0.459675 0)
(0.898021 0.455648 0)
(0.896755 0.452818 0)
(0.89592 0.45087 0)
(0.895376 0.449555 0)
(0.895025 0.448684 0)
(0.894799 0.448119 0)
(0.894655 0.44776 0)
(0.894563 0.447535 0)
(0.894504 0.447397 0)
(0.894467 0.447314 0)
(0.894443 0.447265 0)
(0.894427 0.447236 0)
(0.894417 0.44722 0)
(0.894411 0.447211 0)
(0.894407 0.447206 0)
(0.894404 0.447203 0)
(0.894402 0.447202 0)
(0.894401 0.447201 0)
(0.894401 0.4472 0)
(0.894401 0.4472 0)
(0.8944 0.4472 0)
(0.8944 0.4472 0)
(0.8944 0.4472 0)
(0.8944 0.4472 0)
(0.8944 0.4472 0)
(0.8944 0.4472 0)
(0.8944 0.4472 0)
(0.8944 0.4472 0)
(0.8944 0.4472 0)
(0.8944 0.4472 0)
(0.8944 0.4472 0)
(0.8944 0.4472 0)
(0.8944 0.4472 0)
(0.8944 0.4472 0)
(0.8944 0.4472 0)
(0.8944 0.4472 0)
(0.8944 0.4472 0)
(0.8944 0.4472 0)
(0.8944 0.4472 0)
(0.8944 0.4472 0)
(1.22793 -0.0144615 0)
(1.29263 -0.0293917 0)
(1.35669 -0.0273716 0)
(1.41743 -0.00768729 0)
(1.47264 0.0290686 0)
(1.52059 0.0812895 0)
(1.56 0.146656 0)
(1.59009 0.222364 0)
(1.6105 0.305251 0)
(1.62128 0.391911 0)
(1.6228 0.479015 0)
(1.61559 0.563492 0)
(1.60002 0.642339 0)
(1.57615 0.712258 0)
(1.54392 0.769726 0)
(1.5037 0.811736 0)
(1.45668 0.83665 0)
(1.40469 0.844621 0)
(1.34984 0.837429 0)
(1.29402 0.817897 0)
(1.23889 0.789254 0)
(1.1858 0.754663 0)
(1.13598 0.716953 0)
(1.09048 0.678516 0)
(1.05012 0.641256 0)
(1.0154 0.606581 0)
(0.986425 0.575428 0)
(0.962954 0.548305 0)
(0.944465 0.525356 0)
(0.930282 0.50645 0)
(0.919665 0.49126 0)
(0.911897 0.479346 0)
(0.906334 0.470214 0)
(0.902428 0.46337 0)
(0.899734 0.458352 0)
(0.897906 0.454751 0)
(0.896686 0.452219 0)
(0.89588 0.450475 0)
(0.895353 0.449299 0)
(0.895013 0.448522 0)
(0.894792 0.448017 0)
(0.894651 0.447696 0)
(0.894561 0.447497 0)
(0.894504 0.447374 0)
(0.894466 0.4473 0)
(0.894442 0.447257 0)
(0.894427 0.447232 0)
(0.894417 0.447217 0)
(0.894411 0.447209 0)
(0.894407 0.447205 0)
(0.894404 0.447203 0)
(0.894403 0.447201 0)
(0.894402 0.447201 0)
(0.894401 0.4472 0)
(0.894401 0.4472 0)
(0.8944 0.4472 0)
(0.8944 0.4472 0)
(0.8944 0.4472 0)
(0.8944 0.4472 0)
(0.8944 0.4472 0)
(0.8944 0.4472 0)
(0.8944 0.4472 0)
(0.8944 0.4472 0)
(0.8944 0.4472 0)
(0.8944 0.4472 0)
(0.8944 0.4472 0)
(0.8944 0.4472 0)
(0.8944 0.4472 0)
(0.8944 0.4472 0)
(0.8944 0.4472 0)
(0.8944 0.4472 0)
(0.8944 0.4472 0)
(0.8944 0.4472 0)
(0.8944 0.4472 0)
(0.8944 0.4472 0)
(1.21831 0.0280493 0)
(1.28217 0.0125041 0)
(1.34604 0.0122208 0)
(1.40717 0.0281346 0)
(1.46318 0.0599379 0)
(1.51219 0.106287 0)
(1.5528 0.165093 0)
(1.5841 0.233725 0)
(1.60565 0.309166 0)
(1.61736 0.388216 0)
(1.61947 0.467768 0)
(1.61238 0.54488 0)
(1.59634 0.616572 0)
(1.57143 0.679652 0)
(1.53778 0.730945 0)
(1.4961 0.767969 0)
(1.44783 0.78959 0)
(1.39495 0.79622 0)
(1.33954 0.789602 0)
(1.28351 0.772285 0)
(1.22848 0.747112 0)
(1.17583 0.716834 0)
(1.12676 0.683892 0)
(1.08227 0.650336 0)
(1.0431 0.617797 0)
(1.00963 0.58748 0)
(0.981845 0.560198 0)
(0.959442 0.5364 0)
(0.941855 0.516222 0)
(0.928396 0.499569 0)
(0.918338 0.486168 0)
(0.910987 0.475642 0)
(0.905723 0.467567 0)
(0.902027 0.46151 0)
(0.899476 0.457067 0)
(0.897744 0.453877 0)
(0.896585 0.451635 0)
(0.895817 0.450092 0)
(0.895315 0.449051 0)
(0.89499 0.448364 0)
(0.894779 0.447918 0)
(0.894643 0.447636 0)
(0.894556 0.44746 0)
(0.8945 0.447352 0)
(0.894465 0.447287 0)
(0.894441 0.447249 0)
(0.894426 0.447227 0)
(0.894417 0.447215 0)
(0.894411 0.447208 0)
(0.894407 0.447204 0)
(0.894404 0.447202 0)
(0.894402 0.447201 0)
(0.894401 0.4472 0)
(0.894401 0.4472 0)
(0.894401 0.4472 0)
(0.8944 0.4472 0)
(0.8944 0.4472 0)
(0.8944 0.4472 0)
(0.8944 0.4472 0)
(0.8944 0.4472 0)
(0.8944 0.4472 0)
(0.8944 0.4472 0)
(0.8944 0.4472 0)
(0.8944 0.4472 0)
(0.8944 0.4472 0)
(0.8944 0.4472 0)
(0.8944 0.4472 0)
(0.8944 0.4472 0)
(0.8944 0.4472 0)
(0.8944 0.4472 0)
(0.8944 0.4472 0)
(0.8944 0.4472 0)
(0.8944 0.4472 0)
(0.8944 0.4472 0)
(0.8944 0.4472 0)
(1.20307 0.0705803 0)
(1.26471 0.0548334 0)
(1.32703 0.0525953 0)
(1.38728 0.0649743 0)
(1.443 0.0919029 0)
(1.49216 0.132322 0)
(1.53324 0.184402 0)
(1.56523 0.245721 0)
(1.58753 0.313482 0)
(1.59994 0.384727 0)
(1.60258 0.456564 0)
(1.59568 0.526164 0)
(1.57941 0.590596 0)
(1.5539 0.646853 0)
(1.51953 0.692164 0)
(1.4773 0.724564 0)
(1.42887 0.74332 0)
(1.37626 0.74902 0)
(1.32151 0.743302 0)
(1.26644 0.728419 0)
(1.21264 0.706814 0)
(1.16147 0.680828 0)
(1.11409 0.652532 0)
(1.07143 0.623665 0)
(1.03411 0.595615 0)
(1.0024 0.569419 0)
(0.976215 0.545786 0)
(0.955178 0.525119 0)
(0.938712 0.507556 0)
(0.926137 0.493031 0)
(0.916751 0.481323 0)
(0.909895 0.472114 0)
(0.904988 0.465043 0)
(0.90154 0.459735 0)
(0.89916 0.455839 0)
(0.897541 0.453043 0)
(0.896457 0.451078 0)
(0.895738 0.449726 0)
(0.895267 0.448815 0)
(0.89496 0.448214 0)
(0.894761 0.447824 0)
(0.894632 0.447577 0)
(0.894549 0.447424 0)
(0.894496 0.447331 0)
(0.894462 0.447275 0)
(0.89444 0.447242 0)
(0.894425 0.447223 0)
(0.894416 0.447212 0)
(0.89441 0.447207 0)
(0.894406 0.447203 0)
(0.894404 0.447202 0)
(0.894402 0.447201 0)
(0.894401 0.4472 0)
(0.894401 0.4472 0)
(0.894401 0.4472 0)
(0.8944 0.4472 0)
(0.8944 0.4472 0)
(0.8944 0.4472 0)
(0.8944 0.4472 0)
(0.8944 0.4472 0)
(0.8944 0.4472 0)
(0.8944 0.4472 0)
(0.8944 0.4472 0)
(0.8944 0.4472 0)
(0.8944 0.4472 0)
(0.8944 0.4472 0)
(0.8944 0.4472 0)
(0.8944 0.4472 0)
(0.8944 0.4472 0)
(0.8944 0.4472 0)
(0.8944 0.4472 0)
(0.8944 0.4472 0)
(0.8944 0.4472 0)
(0.8944 0.4472 0)
(0.8944 0.4472 0)
(1.18353 0.112292 0)
(1.24181 0.0967179 0)
(1.30134 0.0929212 0)
(1.35949 0.102094 0)
(1.41377 0.124388 0)
(1.46212 0.159007 0)
(1.50289 0.20438 0)
(1.53494 0.258357 0)
(1.55754 0.318405 0)
(1.57037 0.381824 0)
(1.5734 0.44592 0)
(1.56673 0.50797 0)
(1.55046 0.565164 0)
(1.52483 0.614752 0)
(1.4905 0.654405 0)
(1.44871 0.682623 0)
(1.4012 0.698984 0)
(1.34997 0.704142 0)
(1.29697 0.699578 0)
(1.24394 0.687226 0)
(1.19238 0.669143 0)
(1.14362 0.647285 0)
(1.09874 0.623384 0)
(1.05857 0.598902 0)
(1.02364 0.575022 0)
(0.994103 0.552638 0)
(0.969817 0.532377 0)
(0.950372 0.514605 0)
(0.935186 0.499465 0)
(0.923609 0.486917 0)
(0.914975 0.476785 0)
(0.908673 0.468806 0)
(0.904162 0.462673 0)
(0.900991 0.458067 0)
(0.8988 0.454686 0)
(0.89731 0.45226 0)
(0.896308 0.450554 0)
(0.895644 0.449382 0)
(0.895208 0.448592 0)
(0.894923 0.448072 0)
(0.894738 0.447736 0)
(0.894619 0.447523 0)
(0.894541 0.447391 0)
(0.894491 0.447311 0)
(0.894459 0.447263 0)
(0.894438 0.447235 0)
(0.894424 0.447219 0)
(0.894415 0.44721 0)
(0.89441 0.447205 0)
(0.894406 0.447203 0)
(0.894404 0.447201 0)
(0.894402 0.447201 0)
(0.894401 0.4472 0)
(0.894401 0.4472 0)
(0.894401 0.4472 0)
(0.8944 0.4472 0)
(0.8944 0.4472 0)
(0.8944 0.4472 0)
(0.8944 0.4472 0)
(0.8944 0.4472 0)
(0.8944 0.4472 0)
(0.8944 0.4472 0)
(0.8944 0.4472 0)
(0.8944 0.4472 0)
(0.8944 0.4472 0)
(0.8944 0.4472 0)
(0.8944 0.4472 0)
(0.8944 0.4472 0)
(0.8944 0.4472 0)
(0.8944 0.4472 0)
(0.8944 0.4472 0)
(0.8944 0.4472 0)
(0.8944 0.4472 0)
(0.8944 0.4472 0)
(0.8944 0.4472 0)
(1.16103 0.152497 0)
(1.21506 0.137415 0)
(1.27076 0.132453 0)
(1.32571 0.138819 0)
(1.37752 0.156831 0)
(1.42409 0.185935 0)
(1.46373 0.224828 0)
(1.49517 0.271641 0)
(1.51757 0.324124 0)
(1.53047 0.379844 0)
(1.53372 0.436293 0)
(1.52727 0.490883 0)
(1.51124 0.541006 0)
(1.48604 0.584248 0)
(1.45253 0.618692 0)
(1.4121 0.64322 0)
(1.36651 0.657628 0)
(1.31767 0.66256 0)
(1.26739 0.659293 0)
(1.2173 0.64944 0)
(1.16883 0.634698 0)
(1.12323 0.616675 0)
(1.08148 0.596807 0)
(1.04432 0.576321 0)
(1.01217 0.556224 0)
(0.985109 0.537296 0)
(0.962934 0.520094 0)
(0.945225 0.504956 0)
(0.931424 0.492025 0)
(0.920914 0.481285 0)
(0.913084 0.472599 0)
(0.907369 0.465751 0)
(0.903278 0.460483 0)
(0.900402 0.456525 0)
(0.898414 0.45362 0)
(0.897059 0.451534 0)
(0.896148 0.45007 0)
(0.895542 0.449064 0)
(0.895143 0.448387 0)
(0.894883 0.447942 0)
(0.894713 0.447654 0)
(0.894603 0.447473 0)
(0.894531 0.447361 0)
(0.894485 0.447293 0)
(0.894455 0.447253 0)
(0.894435 0.447229 0)
(0.894422 0.447216 0)
(0.894414 0.447208 0)
(0.894409 0.447204 0)
(0.894406 0.447202 0)
(0.894403 0.447201 0)
(0.894402 0.4472 0)
(0.894401 0.4472 0)
(0.894401 0.4472 0)
(0.8944 0.4472 0)
(0.8944 0.4472 0)
(0.8944 0.4472 0)
(0.8944 0.4472 0)
(0.8944 0.4472 0)
(0.8944 0.4472 0)
(0.8944 0.4472 0)
(0.8944 0.4472 0)
(0.8944 0.4472 0)
(0.8944 0.4472 0)
(0.8944 0.4472 0)
(0.8944 0.4472 0)
(0.8944 0.4472 0)
(0.8944 0.4472 0)
(0.8944 0.4472 0)
(0.8944 0.4472 0)
(0.8944 0.4472 0)
(0.8944 0.4472 0)
(0.8944 0.4472 0)
(0.8944 0.4472 0)
(0.8944 0.4472 0)
(1.13676 0.190666 0)
(1.18593 0.176335 0)
(1.23706 0.170574 0)
(1.28795 0.174572 0)
(1.33638 0.188747 0)
(1.38031 0.212749 0)
(1.41802 0.24554 0)
(1.44818 0.285532 0)
(1.46984 0.330765 0)
(1.48244 0.379049 0)
(1.48568 0.428067 0)
(1.47946 0.475436 0)
(1.46397 0.51883 0)
(1.43973 0.556183 0)
(1.40778 0.585946 0)
(1.36955 0.607284 0)
(1.32674 0.62012 0)
(1.2811 0.625032 0)
(1.23432 0.623078 0)
(1.18789 0.615566 0)
(1.14316 0.603865 0)
(1.10126 0.589284 0)
(1.06311 0.573006 0)
(1.02931 0.556066 0)
(1.00019 0.539329 0)
(0.975776 0.523477 0)
(0.955827 0.509006 0)
(0.93993 0.496226 0)
(0.92756 0.485281 0)
(0.918149 0.476172 0)
(0.911143 0.468793 0)
(0.90603 0.462971 0)
(0.902369 0.458488 0)
(0.899794 0.45512 0)
(0.898012 0.452648 0)
(0.896797 0.450873 0)
(0.895979 0.449629 0)
(0.895434 0.448775 0)
(0.895075 0.448201 0)
(0.894839 0.447824 0)
(0.894685 0.447581 0)
(0.894585 0.447428 0)
(0.89452 0.447333 0)
(0.894478 0.447276 0)
(0.89445 0.447243 0)
(0.894432 0.447223 0)
(0.894421 0.447212 0)
(0.894413 0.447206 0)
(0.894408 0.447203 0)
(0.894405 0.447201 0)
(0.894403 0.447201 0)
(0.894402 0.4472 0)
(0.894401 0.4472 0)
(0.894401 0.4472 0)
(0.8944 0.4472 0)
(0.8944 0.4472 0)
(0.8944 0.4472 0)
(0.8944 0.4472 0)
(0.8944 0.4472 0)
(0.8944 0.4472 0)
(0.8944 0.4472 0)
(0.8944 0.4472 0)
(0.8944 0.4472 0)
(0.8944 0.4472 0)
(0.8944 0.4472 0)
(0.8944 0.4472 0)
(0.8944 0.4472 0)
(0.8944 0.4472 0)
(0.8944 0.4472 0)
(0.8944 0.4472 0)
(0.8944 0.4472 0)
(0.8944 0.4472 0)
(0.8944 0.4472 0)
(0.8944 0.4472 0)
(0.8944 0.4472 0)
(1.11175 0.226408 0)
(1.15575 0.21303 0)
(1.20182 0.206816 0)
(1.24804 0.208883 0)
(1.2924 0.219714 0)
(1.33296 0.239126 0)
(1.36806 0.266313 0)
(1.39631 0.299955 0)
(1.41674 0.338363 0)
(1.42867 0.379598 0)
(1.43171 0.421565 0)
(1.42578 0.462127 0)
(1.41111 0.499271 0)
(1.38836 0.531281 0)
(1.3586 0.556909 0)
(1.32324 0.57551 0)
(1.28385 0.587057 0)
(1.24203 0.592036 0)
(1.19929 0.59129 0)
(1.15703 0.585847 0)
(1.11647 0.576799 0)
(1.07865 0.565202 0)
(1.04435 0.552035 0)
(1.0141 0.538173 0)
(0.98813 0.524362 0)
(0.966421 0.5112 0)
(0.948727 0.499129 0)
(0.934653 0.488432 0)
(0.923715 0.479248 0)
(0.9154 0.47159 0)
(0.909211 0.46538 0)
(0.904695 0.460475 0)
(0.901461 0.456696 0)
(0.899185 0.453858 0)
(0.897609 0.451775 0)
(0.896533 0.450281 0)
(0.895808 0.449233 0)
(0.895324 0.448515 0)
(0.895004 0.448034 0)
(0.894794 0.447718 0)
(0.894656 0.447515 0)
(0.894567 0.447388 0)
(0.894509 0.447309 0)
(0.89447 0.447262 0)
(0.894446 0.447235 0)
(0.89443 0.447219 0)
(0.894419 0.44721 0)
(0.894412 0.447205 0)
(0.894408 0.447202 0)
(0.894405 0.447201 0)
(0.894403 0.4472 0)
(0.894402 0.4472 0)
(0.894401 0.4472 0)
(0.894401 0.4472 0)
(0.8944 0.4472 0)
(0.8944 0.4472 0)
(0.8944 0.4472 0)
(0.8944 0.4472 0)
(0.8944 0.4472 0)
(0.8944 0.4472 0)
(0.8944 0.4472 0)
(0.8944 0.4472 0)
(0.8944 0.4472 0)
(0.8944 0.4472 0)
(0.8944 0.4472 0)
(0.8944 0.4472 0)
(0.8944 0.4472 0)
(0.8944 0.4472 0)
(0.8944 0.4472 0)
(0.8944 0.4472 0)
(0.8944 0.4472 0)
(0.8944 0.4472 0)
(0.8944 0.4472 0)
(0.8944 0.4472 0)
(0.8944 0.4472 0)
(1.08687 0.259403 0)
(1.12562 0.247157 0)
(1.1664 0.240802 0)
(1.2076 0.241372 0)
(1.24742 0.24938 0)
(1.2841 0.264764 0)
(1.31605 0.286921 0)
(1.34192 0.31478 0)
(1.36068 0.346903 0)
(1.37163 0.381594 0)
(1.37435 0.41702 0)
(1.36879 0.45133 0)
(1.35524 0.482813 0)
(1.33439 0.510055 0)
(1.30729 0.532051 0)
(1.27526 0.548282 0)
(1.23971 0.558722 0)
(1.20207 0.563747 0)
(1.16373 0.564001 0)
(1.12592 0.560284 0)
(1.08977 0.55345 0)
(1.05618 0.544359 0)
(1.02583 0.533821 0)
(0.999166 0.522578 0)
(0.976345 0.511273 0)
(0.957314 0.500431 0)
(0.941832 0.490442 0)
(0.929535 0.481562 0)
(0.919988 0.473921 0)
(0.912734 0.467538 0)
(0.907337 0.462359 0)
(0.903399 0.458264 0)
(0.900578 0.45511 0)
(0.898592 0.45274 0)
(0.897215 0.451001 0)
(0.896275 0.449756 0)
(0.89564 0.448884 0)
(0.895216 0.448286 0)
(0.894935 0.447887 0)
(0.894749 0.447625 0)
(0.894628 0.447458 0)
(0.894549 0.447353 0)
(0.894497 0.447288 0)
(0.894463 0.447249 0)
(0.894441 0.447227 0)
(0.894426 0.447215 0)
(0.894417 0.447208 0)
(0.894411 0.447204 0)
(0.894407 0.447202 0)
(0.894404 0.447201 0)
(0.894403 0.4472 0)
(0.894402 0.4472 0)
(0.894401 0.4472 0)
(0.894401 0.4472 0)
(0.8944 0.4472 0)
(0.8944 0.4472 0)
(0.8944 0.4472 0)
(0.8944 0.4472 0)
(0.8944 0.4472 0)
(0.8944 0.4472 0)
(0.8944 0.4472 0)
(0.8944 0.4472 0)
(0.8944 0.4472 0)
(0.8944 0.4472 0)
(0.8944 0.4472 0)
(0.8944 0.4472 0)
(0.8944 0.4472 0)
(0.8944 0.4472 0)
(0.8944 0.4472 0)
(0.8944 0.4472 0)
(0.8944 0.4472 0)
(0.8944 0.4472 0)
(0.8944 0.4472 0)
(0.8944 0.4472 0)
(0.8944 0.4472 0)
(1.06278 0.289428 0)
(1.0964 0.27844 0)
(1.13193 0.272225 0)
(1.168 0.271709 0)
(1.20307 0.277411 0)
(1.23556 0.289361 0)
(1.264 0.307115 0)
(1.28713 0.329818 0)
(1.30394 0.356274 0)
(1.31373 0.385038 0)
(1.31609 0.414549 0)
(1.311 0.443245 0)
(1.29878 0.469695 0)
(1.28011 0.492728 0)
(1.25596 0.511528 0)
(1.22749 0.525663 0)
(1.19597 0.535084 0)
(1.16268 0.540052 0)
(1.12885 0.541049 0)
(1.09559 0.538682 0)
(1.06388 0.533625 0)
(1.03452 0.526573 0)
(1.00808 0.518204 0)
(0.984906 0.509149 0)
(0.965127 0.499961 0)
(0.948666 0.491094 0)
(0.935296 0.482893 0)
(0.924689 0.47558 0)
(0.91646 0.469273 0)
(0.910212 0.464 0)
(0.905562 0.459716 0)
(0.90217 0.45633 0)
(0.89974 0.453721 0)
(0.898027 0.451762 0)
(0.896839 0.450325 0)
(0.896026 0.449298 0)
(0.895478 0.448578 0)
(0.89511 0.448087 0)
(0.894866 0.447758 0)
(0.894706 0.447544 0)
(0.8946 0.447407 0)
(0.894531 0.447322 0)
(0.894486 0.44727 0)
(0.894456 0.447239 0)
(0.894437 0.447221 0)
(0.894424 0.447211 0)
(0.894415 0.447206 0)
(0.89441 0.447203 0)
(0.894406 0.447201 0)
(0.894404 0.447201 0)
(0.894402 0.4472 0)
(0.894401 0.4472 0)
(0.894401 0.4472 0)
(0.894401 0.4472 0)
(0.8944 0.4472 0)
(0.8944 0.4472 0)
(0.8944 0.4472 0)
(0.8944 0.4472 0)
(0.8944 0.4472 0)
(0.8944 0.4472 0)
(0.8944 0.4472 0)
(0.8944 0.4472 0)
(0.8944 0.4472 0)
(0.8944 0.4472 0)
(0.8944 0.4472 0)
(0.8944 0.4472 0)
(0.8944 0.4472 0)
(0.8944 0.4472 0)
(0.8944 0.4472 0)
(0.8944 0.4472 0)
(0.8944 0.4472 0)
(0.8944 0.4472 0)
(0.8944 0.4472 0)
(0.8944 0.4472 0)
(0.8944 0.4472 0)
(1.03998 0.316321 0)
(1.06877 0.306667 0)
(1.09924 0.30083 0)
(1.1303 0.299614 0)
(1.16062 0.303504 0)
(1.18883 0.3126 0)
(1.21364 0.326597 0)
(1.23387 0.34482 0)
(1.24858 0.366288 0)
(1.25713 0.389815 0)
(1.25914 0.414101 0)
(1.2546 0.437845 0)
(1.24383 0.45987 0)
(1.22745 0.47921 0)
(1.20632 0.49518 0)
(1.18147 0.507412 0)
(1.154 0.515832 0)
(1.12504 0.520604 0)
(1.09566 0.52207 0)
(1.06685 0.520694 0)
(1.03945 0.517009 0)
(1.01416 0.511578 0)
(0.991451 0.504969 0)
(0.971596 0.497716 0)
(0.954683 0.490294 0)
(0.94063 0.483092 0)
(0.92923 0.476404 0)
(0.920194 0.470428 0)
(0.913188 0.465266 0)
(0.907869 0.460946 0)
(0.903914 0.457435 0)
(0.901027 0.454659 0)
(0.898958 0.452522 0)
(0.8975 0.450918 0)
(0.896488 0.449742 0)
(0.895794 0.448902 0)
(0.895325 0.448315 0)
(0.895011 0.447915 0)
(0.894802 0.447648 0)
(0.894665 0.447475 0)
(0.894574 0.447365 0)
(0.894514 0.447296 0)
(0.894474 0.447255 0)
(0.894449 0.44723 0)
(0.894432 0.447216 0)
(0.894421 0.447208 0)
(0.894413 0.447204 0)
(0.894408 0.447202 0)
(0.894405 0.4472 0)
(0.894403 0.4472 0)
(0.894402 0.4472 0)
(0.894401 0.4472 0)
(0.894401 0.4472 0)
(0.8944 0.4472 0)
(0.8944 0.4472 0)
(0.8944 0.4472 0)
(0.8944 0.4472 0)
(0.8944 0.4472 0)
(0.8944 0.4472 0)
(0.8944 0.4472 0)
(0.8944 0.4472 0)
(0.8944 0.4472 0)
(0.8944 0.4472 0)
(0.8944 0.4472 0)
(0.8944 0.4472 0)
(0.8944 0.4472 0)
(0.8944 0.4472 0)
(0.8944 0.4472 0)
(0.8944 0.4472 0)
(0.8944 0.4472 0)
(0.8944 0.4472 0)
(0.8944 0.4472 0)
(0.8944 0.4472 0)
(0.8944 0.4472 0)
(0.8944 0.4472 0)
(1.01883 0.340016 0)
(1.04316 0.33172 0)
(1.06895 0.326431 0)
(1.09527 0.324835 0)
(1.12104 0.327375 0)
(1.14511 0.334179 0)
(1.16632 0.345048 0)
(1.18365 0.359469 0)
(1.19627 0.376661 0)
(1.20357 0.395664 0)
(1.20526 0.415419 0)
(1.20131 0.434865 0)
(1.192 0.453037 0)
(1.17789 0.469138 0)
(1.15972 0.482592 0)
(1.13838 0.493071 0)
(1.11482 0.50048 0)
(1.09001 0.504909 0)
(1.06488 0.506598 0)
(1.04029 0.505899 0)
(1.01697 0.503233 0)
(0.99548 0.499065 0)
(0.976232 0.493863 0)
(0.95944 0.488081 0)
(0.945159 0.482118 0)
(0.93331 0.476304 0)
(0.923709 0.47089 0)
(0.916104 0.466042 0)
(0.910211 0.461851 0)
(0.905739 0.458342 0)
(0.902413 0.455489 0)
(0.899985 0.453235 0)
(0.898244 0.451499 0)
(0.897017 0.450198 0)
(0.896165 0.449246 0)
(0.895581 0.448566 0)
(0.895186 0.448092 0)
(0.89492 0.44777 0)
(0.894743 0.447556 0)
(0.894626 0.447417 0)
(0.894549 0.447329 0)
(0.894498 0.447274 0)
(0.894464 0.447242 0)
(0.894442 0.447223 0)
(0.894427 0.447212 0)
(0.894418 0.447206 0)
(0.894412 0.447203 0)
(0.894408 0.447201 0)
(0.894405 0.4472 0)
(0.894403 0.4472 0)
(0.894402 0.4472 0)
(0.894401 0.4472 0)
(0.894401 0.4472 0)
(0.8944 0.4472 0)
(0.8944 0.4472 0)
(0.8944 0.4472 0)
(0.8944 0.4472 0)
(0.8944 0.4472 0)
(0.8944 0.4472 0)
(0.8944 0.4472 0)
(0.8944 0.4472 0)
(0.8944 0.4472 0)
(0.8944 0.4472 0)
(0.8944 0.4472 0)
(0.8944 0.4472 0)
(0.8944 0.4472 0)
(0.8944 0.4472 0)
(0.8944 0.4472 0)
(0.8944 0.4472 0)
(0.8944 0.4472 0)
(0.8944 0.4472 0)
(0.8944 0.4472 0)
(0.8944 0.4472 0)
(0.8944 0.4472 0)
(0.8944 0.4472 0)
(0.999537 0.360533 0)
(1.01988 0.353562 0)
(1.04142 0.348928 0)
(1.06342 0.347209 0)
(1.08499 0.348789 0)
(1.10517 0.353809 0)
(1.12299 0.362147 0)
(1.13757 0.37342 0)
(1.14819 0.387028 0)
(1.15432 0.402204 0)
(1.15571 0.4181 0)
(1.15233 0.433864 0)
(1.14443 0.448706 0)
(1.13247 0.461975 0)
(1.11708 0.473185 0)
(1.09902 0.482044 0)
(1.0791 0.488438 0)
(1.05814 0.492407 0)
(1.03696 0.494118 0)
(1.01627 0.49384 0)
(0.996686 0.491909 0)
(0.978678 0.488708 0)
(0.962573 0.484625 0)
(0.948547 0.480034 0)
(0.936636 0.475268 0)
(0.926765 0.470604 0)
(0.918773 0.466251 0)
(0.912448 0.462349 0)
(0.907549 0.458974 0)
(0.903832 0.456147 0)
(0.901068 0.453849 0)
(0.899051 0.452034 0)
(0.897604 0.450639 0)
(0.896583 0.449593 0)
(0.895875 0.448829 0)
(0.895388 0.448285 0)
(0.895058 0.447906 0)
(0.894837 0.447649 0)
(0.894689 0.447478 0)
(0.894591 0.447369 0)
(0.894526 0.447299 0)
(0.894483 0.447257 0)
(0.894455 0.447231 0)
(0.894436 0.447217 0)
(0.894423 0.447209 0)
(0.894415 0.447204 0)
(0.89441 0.447202 0)
(0.894406 0.4472 0)
(0.894404 0.4472 0)
(0.894403 0.4472 0)
(0.894402 0.4472 0)
(0.894401 0.4472 0)
(0.894401 0.4472 0)
(0.8944 0.4472 0)
(0.8944 0.4472 0)
(0.8944 0.4472 0)
(0.8944 0.4472 0)
(0.8944 0.4472 0)
(0.8944 0.4472 0)
(0.8944 0.4472 0)
(0.8944 0.4472 0)
(0.8944 0.4472 0)
(0.8944 0.4472 0)
(0.8944 0.4472 0)
(0.8944 0.4472 0)
(0.8944 0.4472 0)
(0.8944 0.4472 0)
(0.8944 0.4472 0)
(0.8944 0.4472 0)
(0.8944 0.4472 0)
(0.8944 0.4472 0)
(0.8944 0.4472 0)
(0.8944 0.4472 0)
(0.8944 0.4472 0)
(0.8944 0.4472 0)
(0.982226 0.377993 0)
(0.999038 0.372258 0)
(1.01682 0.36833 0)
(1.03498 0.366666 0)
(1.05279 0.367603 0)
(1.06946 0.371276 0)
(1.0842 0.377613 0)
(1.09627 0.386342 0)
(1.10505 0.397003 0)
(1.11012 0.408998 0)
(1.11124 0.421656 0)
(1.10839 0.434298 0)
(1.10178 0.446292 0)
(1.09178 0.457101 0)
(1.07893 0.466321 0)
(1.06385 0.473691 0)
(1.04723 0.479091 0)
(1.02978 0.482531 0)
(1.01215 0.484128 0)
(0.99497 0.484087 0)
(0.978734 0.482679 0)
(0.963834 0.480213 0)
(0.950529 0.477008 0)
(0.938956 0.473373 0)
(0.929138 0.469582 0)
(0.921011 0.465864 0)
(0.914435 0.462388 0)
(0.909234 0.459271 0)
(0.905208 0.456574 0)
(0.902155 0.454316 0)
(0.899884 0.452482 0)
(0.898228 0.451034 0)
(0.89704 0.449922 0)
(0.896201 0.44909 0)
(0.895617 0.448483 0)
(0.895217 0.448051 0)
(0.894945 0.447752 0)
(0.894763 0.447549 0)
(0.89464 0.447415 0)
(0.894559 0.447329 0)
(0.894505 0.447276 0)
(0.894469 0.447242 0)
(0.894446 0.447223 0)
(0.89443 0.447212 0)
(0.89442 0.447206 0)
(0.894413 0.447203 0)
(0.894408 0.447201 0)
(0.894405 0.4472 0)
(0.894403 0.4472 0)
(0.894402 0.4472 0)
(0.894401 0.4472 0)
(0.894401 0.4472 0)
(0.894401 0.4472 0)
(0.8944 0.4472 0)
(0.8944 0.4472 0)
(0.8944 0.4472 0)
(0.8944 0.4472 0)
(0.8944 0.4472 0)
(0.8944 0.4472 0)
(0.8944 0.4472 0)
(0.8944 0.4472 0)
(0.8944 0.4472 0)
(0.8944 0.4472 0)
(0.8944 0.4472 0)
(0.8944 0.4472 0)
(0.8944 0.4472 0)
(0.8944 0.4472 0)
(0.8944 0.4472 0)
(0.8944 0.4472 0)
(0.8944 0.4472 0)
(0.8944 0.4472 0)
(0.8944 0.4472 0)
(0.8944 0.4472 0)
(0.8944 0.4472 0)
(0.8944 0.4472 0)
(0.966931 0.392604 0)
(0.980681 0.387981 0)
(0.995199 0.384743 0)
(1.01001 0.383253 0)
(1.02454 0.383781 0)
(1.03813 0.386461 0)
(1.05015 0.391254 0)
(1.05999 0.397959 0)
(1.06715 0.406235 0)
(1.07126 0.415628 0)
(1.07214 0.425611 0)
(1.06977 0.435646 0)
(1.0643 0.445226 0)
(1.05605 0.453923 0)
(1.04545 0.461399 0)
(1.03302 0.467423 0)
(1.01934 0.471883 0)
(1.00499 0.474771 0)
(0.990513 0.476171 0)
(0.976421 0.476241 0)
(0.963125 0.475198 0)
(0.950939 0.47329 0)
(0.940074 0.470776 0)
(0.930636 0.467907 0)
(0.922639 0.464908 0)
(0.916025 0.461961 0)
(0.910678 0.459205 0)
(0.906452 0.456733 0)
(0.903181 0.454596 0)
(0.900701 0.452807 0)
(0.898858 0.451355 0)
(0.897512 0.450211 0)
(0.896547 0.449333 0)
(0.895867 0.448677 0)
(0.895393 0.4482 0)
(0.895067 0.447861 0)
(0.894846 0.447627 0)
(0.894697 0.447468 0)
(0.894598 0.447364 0)
(0.894531 0.447298 0)
(0.894487 0.447256 0)
(0.894457 0.447231 0)
(0.894438 0.447216 0)
(0.894426 0.447208 0)
(0.894417 0.447204 0)
(0.894411 0.447202 0)
(0.894407 0.4472 0)
(0.894405 0.4472 0)
(0.894403 0.4472 0)
(0.894402 0.4472 0)
(0.894401 0.4472 0)
(0.894401 0.4472 0)
(0.8944 0.4472 0)
(0.8944 0.4472 0)
(0.8944 0.4472 0)
(0.8944 0.4472 0)
(0.8944 0.4472 0)
(0.8944 0.4472 0)
(0.8944 0.4472 0)
(0.8944 0.4472 0)
(0.8944 0.4472 0)
(0.8944 0.4472 0)
(0.8944 0.4472 0)
(0.8944 0.4472 0)
(0.8944 0.4472 0)
(0.8944 0.4472 0)
(0.8944 0.4472 0)
(0.8944 0.4472 0)
(0.8944 0.4472 0)
(0.8944 0.4472 0)
(0.8944 0.4472 0)
(0.8944 0.4472 0)
(0.8944 0.4472 0)
(0.8944 0.4472 0)
(0.8944 0.4472 0)
(0.953607 0.404638 0)
(0.964741 0.400982 0)
(0.976476 0.398377 0)
(0.988426 0.397115 0)
(1.00014 0.397405 0)
(1.01109 0.399362 0)
(1.02076 0.402975 0)
(1.02868 0.4081 0)
(1.03444 0.414478 0)
(1.03773 0.421766 0)
(1.0384 0.429562 0)
(1.03643 0.437443 0)
(1.03196 0.44501 0)
(1.02523 0.451916 0)
(1.01659 0.457886 0)
(1.00647 0.462726 0)
(0.99534 0.466333 0)
(0.983678 0.468691 0)
(0.971937 0.469859 0)
(0.960521 0.469961 0)
(0.949763 0.46917 0)
(0.939916 0.467685 0)
(0.931147 0.465716 0)
(0.923539 0.463461 0)
(0.917098 0.461099 0)
(0.911775 0.458779 0)
(0.907476 0.456609 0)
(0.90408 0.454664 0)
(0.901452 0.452982 0)
(0.899462 0.451577 0)
(0.897982 0.450438 0)
(0.896902 0.449541 0)
(0.896128 0.448855 0)
(0.895581 0.448343 0)
(0.8952 0.44797 0)
(0.894939 0.447707 0)
(0.894761 0.447525 0)
(0.894641 0.447403 0)
(0.89456 0.447324 0)
(0.894507 0.447272 0)
(0.894471 0.447241 0)
(0.894447 0.447222 0)
(0.894431 0.447211 0)
(0.894421 0.447205 0)
(0.894414 0.447202 0)
(0.894409 0.447201 0)
(0.894406 0.4472 0)
(0.894404 0.4472 0)
(0.894402 0.4472 0)
(0.894401 0.4472 0)
(0.894401 0.4472 0)
(0.894401 0.4472 0)
(0.8944 0.4472 0)
(0.8944 0.4472 0)
(0.8944 0.4472 0)
(0.8944 0.4472 0)
(0.8944 0.4472 0)
(0.8944 0.4472 0)
(0.8944 0.4472 0)
(0.8944 0.4472 0)
(0.8944 0.4472 0)
(0.8944 0.4472 0)
(0.8944 0.4472 0)
(0.8944 0.4472 0)
(0.8944 0.4472 0)
(0.8944 0.4472 0)
(0.8944 0.4472 0)
(0.8944 0.4472 0)
(0.8944 0.4472 0)
(0.8944 0.4472 0)
(0.8944 0.4472 0)
(0.8944 0.4472 0)
(0.8944 0.4472 0)
(0.8944 0.4472 0)
(0.8944 0.4472 0)
(0.942183 0.414398 0)
(0.951096 0.411554 0)
(0.960481 0.409507 0)
(0.97003 0.408481 0)
(0.979364 0.408646 0)
(0.988091 0.410086 0)
(0.995796 0.412805 0)
(1.00209 0.416703 0)
(1.00665 0.421589 0)
(1.00925 0.427199 0)
(1.00975 0.43323 0)
(1.00814 0.439357 0)
(1.00451 0.445267 0)
(0.999075 0.45068 0)