/*--------------------------------*- C++ -*----------------------------------*\
  =========                 |
  \\      /  F ield         | OpenFOAM: The Open Source CFD Toolbox
   \\    /   O peration     | Website:  https://openfoam.org
    \\  /    A nd           | Version:  6
     \\/     M anipulation  |
\*---------------------------------------------------------------------------*/
FoamFile
{
    version     2.0;
    format      ascii;
    class       volScalarField;
    location    "1.77";
    object      rho;
}
// * * * * * * * * * * * * * * * * * * * * * * * * * * * * * * * * * * * * * //

dimensions      [1 -3 0 0 0 0 0];

internalField   nonuniform List<scalar> 
5625
(
1.40001
1.40001
1.40001
1.40001
1.40001
1.40001
1.40001
1.40001
1.40001
1.40001
1.40001
1.40001
1.40001
1.4
1.4
1.4
1.4
1.4
1.4
1.4
1.4
1.4
1.4
1.4
1.4
1.4
1.4
1.4
1.4
1.4
1.4
1.4
1.40001
1.40001
1.40001
1.40001
1.40001
1.40001
1.40001
1.40001
1.40001
1.40001
1.40001
1.40001
1.40001
1.40001
1.40001
1.40001
1.40001
1.40001
1.40001
1.40001
1.40001
1.40001
1.40001
1.40001
1.40001
1.40001
1.40001
1.40001
1.40001
1.40001
1.40001
1.40001
1.40001
1.40001
1.40001
1.40001
1.40001
1.40001
1.40001
1.40001
1.40001
1.40001
1.40001
1.4
1.4
1.4
1.4
1.4
1.4
1.4
1.4
1.4
1.4
1.4
1.40001
1.40001
1.40001
1.40001
1.40001
1.40001
1.40001
1.40001
1.40001
1.40001
1.40001
1.40001
1.40001
1.40001
1.40001
1.4
1.4
1.4
1.4
1.4
1.4
1.4
1.4
1.40001
1.40001
1.40001
1.40001
1.40001
1.40001
1.40001
1.40001
1.40001
1.40001
1.40001
1.40001
1.40001
1.40001
1.40001
1.40001
1.40001
1.40001
1.40001
1.40001
1.40001
1.40001
1.40001
1.40001
1.40001
1.40001
1.40001
1.40001
1.40001
1.40001
1.40001
1.40001
1.40001
1.40001
1.40001
1.40001
1.40001
1.40001
1.40001
1.40001
1.40001
1.4
1.4
1.4
1.4
1.4
1.4
1.4
1.4
1.40001
1.40001
1.4
1.40001
1.40001
1.40001
1.40001
1.40001
1.40001
1.40001
1.40001
1.40001
1.40001
1.40001
1.40001
1.40001
1.40001
1.40001
1.40001
1.40001
1.40001
1.4
1.4
1.4
1.4
1.4
1.4
1.40001
1.40001
1.40001
1.40001
1.40001
1.40001
1.40001
1.40001
1.40001
1.40001
1.40001
1.40001
1.40001
1.40001
1.40001
1.40001
1.40001
1.40001
1.40001
1.40001
1.40001
1.40001
1.40001
1.40001
1.40001
1.40001
1.40001
1.40001
1.40001
1.40001
1.40001
1.40001
1.40001
1.40001
1.40001
1.40001
1.40001
1.40001
1.40001
1.40001
1.4
1.4
1.4
1.4
1.4
1.4
1.4
1.4
1.4
1.4
1.4
1.40001
1.40001
1.40001
1.40001
1.40001
1.40001
1.40001
1.40001
1.40001
1.40001
1.40001
1.40001
1.40001
1.40001
1.40001
1.40001
1.40001
1.40001
1.40001
1.40001
1.4
1.4
1.4
1.4
1.4
1.4
1.40001
1.40001
1.40001
1.40001
1.40001
1.40001
1.40001
1.40001
1.40001
1.40001
1.40001
1.40001
1.40001
1.40001
1.40001
1.40001
1.40001
1.40001
1.40001
1.40001
1.40001
1.40001
1.40001
1.40001
1.40001
1.40001
1.40001
1.40001
1.40001
1.40001
1.40001
1.40001
1.40001
1.40001
1.40001
1.40001
1.40001
1.40001
1.4
1.4
1.4
1.4
1.4
1.4
1.4
1.4
1.4
1.4
1.4
1.4
1.40001
1.40001
1.40001
1.40001
1.40001
1.40001
1.40001
1.40001
1.40001
1.40001
1.40001
1.40001
1.40001
1.40001
1.40001
1.40001
1.40001
1.40001
1.40001
1.40001
1.40001
1.4
1.4
1.4
1.4
1.4
1.40001
1.40001
1.40001
1.40001
1.40001
1.40001
1.40001
1.40001
1.40001
1.40001
1.40001
1.40001
1.40001
1.40001
1.40001
1.40001
1.40001
1.40001
1.40001
1.40001
1.40001
1.40001
1.40001
1.40001
1.40001
1.40001
1.40001
1.40001
1.40001
1.40001
1.40001
1.40001
1.40001
1.40001
1.40001
1.40001
1.40001
1.4
1.4
1.4
1.4
1.4
1.4
1.4
1.4
1.4
1.4
1.4
1.4
1.40001
1.40001
1.40001
1.40001
1.40001
1.40001
1.40001
1.40001
1.40001
1.40001
1.40001
1.40001
1.40001
1.40001
1.40001
1.40001
1.40001
1.40001
1.40001
1.40001
1.40001
1.40001
1.40001
1.4
1.4
1.4
1.4
1.40001
1.40001
1.40001
1.40001
1.40001
1.40001
1.40001
1.40001
1.40001
1.40001
1.40001
1.40001
1.40001
1.40001
1.40001
1.40001
1.40001
1.40001
1.40001
1.40001
1.40001
1.40001
1.40001
1.40001
1.40001
1.40001
1.40001
1.40001
1.40001
1.40001
1.40001
1.40001
1.40001
1.40001
1.40001
1.40001
1.4
1.4
1.4
1.4
1.4
1.4
1.4
1.4
1.4
1.4
1.4
1.4
1.40001
1.40001
1.40001
1.40001
1.40001
1.40001
1.40001
1.40001
1.40001
1.40001
1.40001
1.40001
1.40001
1.40001
1.40001
1.40001
1.40001
1.40001
1.40001
1.40001
1.40001
1.40001
1.40001
1.40001
1.40001
1.4
1.4
1.4
1.40001
1.40001
1.40001
1.40001
1.40001
1.40001
1.40001
1.40001
1.40001
1.40001
1.40001
1.40001
1.40001
1.40001
1.40001
1.40001
1.40001
1.40001
1.40001
1.40001
1.40001
1.40001
1.40001
1.40001
1.40001
1.40001
1.40001
1.40001
1.40001
1.40001
1.40001
1.40001
1.40001
1.40001
1.40001
1.4
1.4
1.4
1.4
1.4
1.4
1.4
1.4
1.4
1.4
1.4
1.4
1.40001
1.40001
1.40001
1.40001
1.40001
1.40001
1.40001
1.40001
1.40001
1.40001
1.40001
1.40001
1.40001
1.40001
1.40001
1.40001
1.40001
1.40001
1.40001
1.40001
1.40001
1.40001
1.40001
1.40001
1.40001
1.40001
1.4
1.4
1.4
1.40001
1.40001
1.40001
1.40001
1.40001
1.40001
1.40001
1.40001
1.40001
1.40001
1.40001
1.40001
1.40001
1.40001
1.40001
1.40001
1.40001
1.40001
1.40001
1.40001
1.40001
1.40001
1.40001
1.40001
1.40001
1.40001
1.40001
1.40001
1.40001
1.40001
1.40001
1.40001
1.40001
1.40001
1.4
1.4
1.4
1.4
1.4
1.4
1.4
1.4
1.4
1.4
1.4
1.4
1.40001
1.40001
1.40001
1.40001
1.40001
1.40001
1.40001
1.40001
1.40001
1.40001
1.40001
1.40001
1.40001
1.40001
1.40001
1.40001
1.40001
1.40001
1.40001
1.40001
1.40001
1.40001
1.40001
1.40001
1.40001
1.40001
1.40001
1.40001
1.4
1.4
1.40001
1.40001
1.40001
1.40001
1.40001
1.40001
1.40001
1.40001
1.40001
1.40001
1.40001
1.40001
1.40001
1.40001
1.40001
1.40001
1.40001
1.40001
1.40001
1.40001
1.40001
1.40001
1.40001
1.40001
1.40001
1.40001
1.40001
1.40001
1.40001
1.40001
1.40001
1.40001
1.40001
1.4
1.4
1.4
1.4
1.4
1.4
1.4
1.4
1.4
1.4
1.4
1.4
1.40001
1.40001
1.40001
1.40001
1.40001
1.40001
1.40001
1.40001
1.40001
1.40001
1.40001
1.40001
1.40001
1.40001
1.40001
1.40001
1.40001
1.40001
1.40001
1.40001
1.40001
1.40001
1.40001
1.40001
1.40001
1.40001
1.40001
1.40001
1.40001
1.4
1.4
1.40001
1.40001
1.40001
1.40001
1.40001
1.40001
1.40001
1.40001
1.40001
1.40001
1.40001
1.40001
1.40001
1.40001
1.40001
1.40001
1.40001
1.40001
1.40001
1.40001
1.40001
1.40001
1.40001
1.40001
1.40001
1.40001
1.40001
1.40001
1.40001
1.40001
1.40001
1.40001
1.4
1.4
1.4
1.4
1.4
1.4
1.4
1.4
1.4
1.4
1.4
1.4
1.40001
1.40001
1.40001
1.40001
1.40001
1.40001
1.40001
1.40001
1.40001
1.40001
1.40001
1.40001
1.40001
1.40001
1.40001
1.40001
1.40001
1.40001
1.40001
1.40001
1.40001
1.40001
1.40001
1.40001
1.40001
1.40001
1.40001
1.40001
1.40001
1.40001
1.40001
1.40001
1.40001
1.40001
1.40001
1.40001
1.40001
1.40001
1.40001
1.40001
1.40001
1.40001
1.40001
1.40001
1.40001
1.40001
1.40001
1.40001
1.40001
1.40001
1.40001
1.40001
1.40001
1.40001
1.40001
1.40001
1.40001
1.40001
1.40001
1.40001
1.40001
1.40001
1.40001
1.4
1.4
1.4
1.4
1.4
1.4
1.4
1.4
1.4
1.4
1.4
1.4
1.40001
1.40001
1.40001
1.40001
1.40001
1.40001
1.40001
1.40001
1.40001
1.40001
1.40001
1.40001
1.40001
1.40001
1.40001
1.40001
1.40001
1.40001
1.40001
1.40001
1.40001
1.40001
1.40001
1.40001
1.40001
1.40001
1.40001
1.40001
1.40001
1.40001
1.40001
1.40001
1.40001
1.40001
1.40001
1.40001
1.40001
1.40001
1.40001
1.40001
1.40001
1.40001
1.40001
1.40001
1.40001
1.40001
1.40001
1.40001
1.40001
1.40001
1.40001
1.40001
1.40001
1.40001
1.40001
1.40001
1.40001
1.40001
1.40001
1.40001
1.40001
1.40001
1.40001
1.4
1.4
1.4
1.4
1.4
1.4
1.4
1.4
1.4
1.4
1.4
1.4
1.40001
1.40001
1.40001
1.40001
1.40001
1.40001
1.40001
1.40001
1.40001
1.40001
1.40001
1.40001
1.40001
1.40001
1.40001
1.40001
1.40001
1.40001
1.40001
1.40001
1.40001
1.40001
1.40001
1.40001
1.40001
1.40001
1.40001
1.40001
1.40001
1.40001
1.40001
1.40001
1.40001
1.40001
1.40001
1.40001
1.40001
1.40001
1.40001
1.40001
1.40001
1.40001
1.40001
1.40001
1.40001
1.40001
1.40001
1.40001
1.40001
1.40001
1.40001
1.40001
1.40001
1.40001
1.40001
1.40001
1.40001
1.40001
1.40001
1.40001
1.40001
1.40001
1.40001
1.4
1.4
1.4
1.4
1.4
1.4
1.4
1.4
1.4
1.4
1.4
1.4
1.40001
1.40001
1.40001
1.40001
1.40001
1.40001
1.40001
1.40001
1.40001
1.40001
1.40001
1.40001
1.40001
1.40001
1.40001
1.40001
1.40001
1.40001
1.40001
1.40001
1.40001
1.40001
1.40001
1.40001
1.40001
1.40001
1.40001
1.40001
1.40001
1.40001
1.40001
1.40001
1.40001
1.40001
1.40001
1.40001
1.40001
1.40001
1.40001
1.40001
1.40001
1.40001
1.40001
1.40001
1.40001
1.40001
1.40001
1.40001
1.40001
1.40001
1.40001
1.40001
1.40001
1.40001
1.40001
1.40001
1.40001
1.40001
1.40001
1.40001
1.40001
1.40001
1.40001
1.4
1.39999
1.39999
1.39999
1.39999
1.39999
1.4
1.4
1.4
1.4
1.4
1.40001
1.40001
1.40001
1.40001
1.40001
1.40001
1.40002
1.40002
1.40002
1.40002
1.40002
1.40002
1.40001
1.40001
1.40001
1.40001
1.40001
1.40001
1.40001
1.40001
1.40001
1.40001
1.40001
1.40001
1.40001
1.40001
1.40001
1.40001
1.40001
1.40001
1.40001
1.40001
1.40001
1.40001
1.40001
1.40001
1.40001
1.40001
1.40001
1.40001
1.40001
1.40001
1.40001
1.40001
1.40001
1.40001
1.40001
1.40001
1.40001
1.40001
1.40001
1.40001
1.40001
1.40001
1.40001
1.40001
1.40001
1.40001
1.40001
1.40001
1.40001
1.40001
1.40001
1.40001
1.39999
1.39999
1.39999
1.39999
1.39999
1.39999
1.39999
1.39999
1.4
1.4
1.4
1.40001
1.40001
1.40001
1.40001
1.40002
1.40002
1.40002
1.40002
1.40002
1.40002
1.40002
1.40002
1.40002
1.40002
1.40002
1.40001
1.40001
1.40001
1.40001
1.40001
1.40001
1.40001
1.40001
1.40001
1.40001
1.40001
1.40001
1.40001
1.40001
1.40001
1.40001
1.40001
1.40001
1.40001
1.40001
1.40001
1.40001
1.40001
1.40001
1.40001
1.40001
1.40001
1.40001
1.40001
1.40001
1.40001
1.40001
1.40001
1.40001
1.40001
1.40001
1.40001
1.40001
1.40001
1.40001
1.40001
1.40001
1.40001
1.40001
1.40001
1.40001
1.40001
1.40001
1.40001
1.39999
1.39999
1.39998
1.39998
1.39999
1.39999
1.39999
1.39999
1.39999
1.4
1.4
1.40001
1.40001
1.40001
1.40002
1.40002
1.40002
1.40002
1.40003
1.40003
1.40003
1.40003
1.40002
1.40002
1.40002
1.40002
1.40002
1.40001
1.40001
1.40001
1.40001
1.40001
1.40001
1.40001
1.40001
1.40001
1.40001
1.40001
1.40001
1.4
1.40001
1.40001
1.40001
1.40001
1.40001
1.40001
1.40001
1.40001
1.40001
1.40001
1.40001
1.40001
1.40001
1.40001
1.40001
1.40001
1.40001
1.40001
1.40001
1.40001
1.40001
1.40001
1.40001
1.40001
1.40001
1.40001
1.40001
1.40001
1.40001
1.40001
1.40001
1.40001
1.40001
1.40001
1.40001
1.39998
1.39998
1.39998
1.39998
1.39998
1.39998
1.39998
1.39999
1.39999
1.4
1.4
1.40001
1.40001
1.40002
1.40002
1.40003
1.40003
1.40003
1.40003
1.40003
1.40003
1.40003
1.40003
1.40003
1.40003
1.40002
1.40002
1.40002
1.40002
1.40001
1.40001
1.40001
1.40001
1.40001
1.40001
1.40001
1.40001
1.40001
1.40001
1.4
1.4
1.4
1.40001
1.40001
1.40001
1.40001
1.40001
1.40001
1.40001
1.40001
1.40001
1.40001
1.40001
1.40001
1.40001
1.40001
1.40001
1.40001
1.40001
1.40001
1.40001
1.40001
1.40001
1.40001
1.40001
1.40001
1.40001
1.40001
1.40001
1.40001
1.40001
1.40001
1.40001
1.40001
1.40001
1.39997
1.39997
1.39997
1.39997
1.39997
1.39997
1.39998
1.39998
1.39999
1.39999
1.4
1.40001
1.40001
1.40002
1.40003
1.40003
1.40004
1.40004
1.40004
1.40004
1.40004
1.40004
1.40004
1.40004
1.40003
1.40003
1.40003
1.40002
1.40002
1.40002
1.40001
1.40001
1.40001
1.40001
1.40001
1.40001
1.40001
1.40001
1.40001
1.40001
1.4
1.4
1.4
1.4
1.40001
1.40001
1.40001
1.40001
1.40001
1.40001
1.40001
1.40001
1.40001
1.40001
1.40001
1.40001
1.40001
1.40001
1.40001
1.40001
1.40001
1.40001
1.40001
1.40001
1.40001
1.40001
1.40001
1.40001
1.40001
1.40001
1.40001
1.40001
1.40001
1.40001
1.40001
1.39996
1.39996
1.39996
1.39996
1.39996
1.39997
1.39997
1.39998
1.39998
1.39999
1.4
1.40001
1.40002
1.40003
1.40004
1.40004
1.40005
1.40005
1.40006
1.40006
1.40006
1.40005
1.40005
1.40005
1.40004
1.40004
1.40003
1.40003
1.40002
1.40002
1.40002
1.40001
1.40001
1.40001
1.40001
1.40001
1.40001
1.40001
1.40001
1.40001
1.40001
1.4
1.4
1.4
1.4
1.4
1.4
1.40001
1.40001
1.40001
1.40001
1.40001
1.40001
1.40001
1.40001
1.40001
1.40001
1.40001
1.40001
1.40001
1.40001
1.40001
1.40001
1.40001
1.40001
1.40001
1.40001
1.40001
1.40001
1.40001
1.40001
1.40001
1.40001
1.40001
1.40001
1.39995
1.39995
1.39995
1.39995
1.39995
1.39996
1.39996
1.39997
1.39998
1.39999
1.4
1.40002
1.40003
1.40004
1.40005
1.40006
1.40007
1.40007
1.40007
1.40007
1.40007
1.40007
1.40006
1.40006
1.40005
1.40005
1.40004
1.40003
1.40003
1.40002
1.40002
1.40002
1.40001
1.40001
1.40001
1.40001
1.40001
1.40001
1.40001
1.40001
1.40001
1.4
1.4
1.4
1.4
1.4
1.4
1.4
1.4
1.40001
1.40001
1.40001
1.40001
1.40001
1.40001
1.40001
1.40001
1.40001
1.40001
1.40001
1.40001
1.40001
1.40001
1.40001
1.40001
1.40001
1.40001
1.40001
1.40001
1.40001
1.40001
1.40001
1.40001
1.40001
1.40001
1.39994
1.39994
1.39994
1.39994
1.39994
1.39995
1.39996
1.39997
1.39998
1.4
1.40001
1.40003
1.40004
1.40006
1.40007
1.40008
1.40009
1.40009
1.40009
1.4001
1.40009
1.40009
1.40008
1.40007
1.40007
1.40006
1.40005
1.40004
1.40004
1.40003
1.40002
1.40002
1.40002
1.40001
1.40001
1.40001
1.40001
1.40001
1.40001
1.40001
1.4
1.4
1.4
1.4
1.4
1.4
1.4
1.4
1.4
1.4
1.40001
1.40001
1.40001
1.40001
1.40001
1.40001
1.40001
1.40001
1.40001
1.40001
1.40001
1.40001
1.40001
1.40001
1.40001
1.40001
1.40001
1.40001
1.40001
1.40001
1.40001
1.40001
1.40001
1.40001
1.40001
1.39993
1.39993
1.39992
1.39993
1.39993
1.39994
1.39995
1.39997
1.39999
1.4
1.40002
1.40004
1.40006
1.40008
1.4001
1.40011
1.40012
1.40012
1.40012
1.40012
1.40012
1.40011
1.4001
1.40009
1.40008
1.40007
1.40006
1.40005
1.40004
1.40004
1.40003
1.40002
1.40002
1.40001
1.40001
1.40001
1.40001
1.40001
1.40001
1.4
1.4
1.4
1.4
1.4
1.4
1.4
1.4
1.4
1.4
1.4
1.40001
1.40001
1.40001
1.40001
1.40001
1.40001
1.40001
1.40001
1.40001
1.40001
1.40001
1.40001
1.40001
1.40001
1.40001
1.40001
1.40001
1.40001
1.40001
1.40001
1.40001
1.40001
1.40001
1.40001
1.40001
1.39991
1.39991
1.39991
1.39992
1.39992
1.39994
1.39995
1.39998
1.4
1.40002
1.40005
1.40007
1.4001
1.40012
1.40014
1.40015
1.40016
1.40017
1.40017
1.40016
1.40016
1.40015
1.40013
1.40012
1.40011
1.40009
1.40008
1.40007
1.40005
1.40004
1.40003
1.40003
1.40002
1.40002
1.40001
1.40001
1.40001
1.40001
1.4
1.4
1.4
1.4
1.4
1.4
1.4
1.4
1.4
1.4
1.4
1.4
1.4
1.40001
1.40001
1.40001
1.40001
1.40001
1.40001
1.40001
1.40001
1.40001
1.40001
1.40001
1.40001
1.40001
1.40001
1.40001
1.40001
1.40001
1.40001
1.40001
1.40001
1.40001
1.40001
1.40001
1.40001
1.3999
1.3999
1.3999
1.39991
1.39992
1.39994
1.39997
1.4
1.40003
1.40006
1.40009
1.40012
1.40015
1.40018
1.4002
1.40021
1.40022
1.40022
1.40022
1.40022
1.4002
1.40019
1.40017
1.40015
1.40014
1.40012
1.4001
1.40008
1.40007
1.40005
1.40004
1.40003
1.40002
1.40002
1.40001
1.40001
1.40001
1.40001
1.4
1.4
1.4
1.4
1.4
1.4
1.4
1.4
1.4
1.4
1.4
1.4
1.4
1.4
1.40001
1.40001
1.40001
1.40001
1.40001
1.40001
1.40001
1.40001
1.40001
1.40001
1.40001
1.40001
1.40001
1.40001
1.40001
1.40001
1.40001
1.40001
1.40001
1.40001
1.40001
1.40001
1.40001
1.39989
1.39989
1.3999
1.39992
1.39994
1.39997
1.4
1.40004
1.40008
1.40012
1.40016
1.4002
1.40023
1.40026
1.40029
1.4003
1.40031
1.40031
1.4003
1.40029
1.40027
1.40025
1.40022
1.4002
1.40017
1.40015
1.40012
1.4001
1.40008
1.40006
1.40005
1.40004
1.40003
1.40002
1.40001
1.40001
1.40001
1.40001
1.4
1.4
1.4
1.4
1.4
1.4
1.4
1.4
1.4
1.4
1.4
1.4
1.4
1.4
1.4
1.40001
1.40001
1.40001
1.40001
1.40001
1.40001
1.40001
1.40001
1.40001
1.40001
1.40001
1.40001
1.40001
1.40001
1.40001
1.40001
1.40001
1.40001
1.40001
1.40001
1.40001
1.40001
1.39989
1.3999
1.39992
1.39994
1.39997
1.40002
1.40006
1.40011
1.40017
1.40022
1.40028
1.40032
1.40036
1.4004
1.40042
1.40043
1.40043
1.40043
1.40041
1.40039
1.40036
1.40033
1.40029
1.40026
1.40022
1.40019
1.40015
1.40012
1.4001
1.40008
1.40006
1.40004
1.40003
1.40002
1.40001
1.40001
1.40001
1.4
1.4
1.4
1.4
1.4
1.4
1.4
1.4
1.4
1.4
1.4
1.4
1.4
1.4
1.4
1.4
1.40001
1.40001
1.40001
1.40001
1.40001
1.40001
1.40001
1.40001
1.40001
1.40001
1.40001
1.40001
1.40001
1.40001
1.40001
1.40001
1.40001
1.40001
1.40001
1.40001
1.40001
1.40001
1.39991
1.39992
1.39995
1.39999
1.40005
1.40011
1.40017
1.40025
1.40032
1.40039
1.40046
1.40051
1.40056
1.4006
1.40062
1.40062
1.40062
1.4006
1.40057
1.40053
1.40048
1.40043
1.40038
1.40033
1.40028
1.40024
1.40019
1.40015
1.40012
1.40009
1.40007
1.40005
1.40003
1.40002
1.40001
1.40001
1.40001
1.4
1.4
1.4
1.4
1.4
1.4
1.4
1.4
1.4
1.4
1.4
1.4
1.4
1.4
1.4
1.4
1.4
1.40001
1.40001
1.40001
1.40001
1.40001
1.40001
1.40001
1.40001
1.40001
1.40001
1.40001
1.40001
1.40001
1.40001
1.40001
1.40001
1.40001
1.40001
1.40001
1.40001
1.40001
1.39994
1.39998
1.40003
1.40009
1.40017
1.40026
1.40036
1.40046
1.40056
1.40065
1.40073
1.4008
1.40086
1.40089
1.40091
1.4009
1.40088
1.40084
1.40079
1.40073
1.40066
1.40058
1.40051
1.40043
1.40037
1.4003
1.40025
1.40019
1.40015
1.40011
1.40008
1.40006
1.40004
1.40003
1.40001
1.40001
1.4
1.4
1.4
1.4
1.4
1.4
1.4
1.4
1.4
1.4
1.4
1.4
1.4
1.4
1.4
1.4
1.4
1.4
1.40001
1.40001
1.40001
1.40001
1.40001
1.40001
1.40001
1.40001
1.40001
1.40001
1.40001
1.40001
1.40001
1.40001
1.40001
1.40001
1.40001
1.40001
1.40001
1.40001
1.40001
1.40002
1.40008
1.40016
1.40026
1.40038
1.40051
1.40065
1.40079
1.40092
1.40104
1.40115
1.40124
1.4013
1.40133
1.40133
1.40131
1.40126
1.40119
1.4011
1.401
1.4009
1.40079
1.40068
1.40058
1.40048
1.40039
1.40031
1.40025
1.40019
1.40014
1.4001
1.40007
1.40005
1.40003
1.40001
1.40001
1.4
1.4
1.4
1.4
1.4
1.4
1.4
1.4
1.4
1.4
1.4
1.4
1.4
1.4
1.4
1.4
1.4
1.4
1.4
1.40001
1.40001
1.40001
1.40001
1.40001
1.40001
1.40001
1.40001
1.40001
1.40001
1.40001
1.40001
1.40001
1.40001
1.40001
1.40001
1.40001
1.40001
1.40001
1.40001
1.40015
1.40025
1.40038
1.40054
1.40071
1.4009
1.40109
1.40128
1.40147
1.40163
1.40176
1.40187
1.40193
1.40196
1.40194
1.40189
1.4018
1.40168
1.40155
1.4014
1.40124
1.40107
1.40092
1.40077
1.40063
1.40051
1.4004
1.40031
1.40024
1.40017
1.40012
1.40008
1.40005
1.40003
1.40001
1.4
1.4
1.39999
1.39999
1.39999
1.39999
1.4
1.4
1.4
1.4
1.4
1.4
1.4
1.4
1.4
1.4
1.4
1.4
1.4
1.4
1.40001
1.40001
1.40001
1.40001
1.40001
1.40001
1.40001
1.40001
1.40001
1.40001
1.40001
1.40001
1.40001
1.40001
1.40001
1.40001
1.40001
1.40001
1.40001
1.40001
1.40036
1.40052
1.40072
1.40095
1.40121
1.40147
1.40175
1.40201
1.40226
1.40247
1.40264
1.40277
1.40284
1.40285
1.40281
1.40271
1.40256
1.40238
1.40217
1.40194
1.40171
1.40147
1.40125
1.40104
1.40084
1.40067
1.40053
1.4004
1.4003
1.40022
1.40015
1.4001
1.40006
1.40003
1.40001
1.4
1.39999
1.39999
1.39999
1.39999
1.39999
1.39999
1.4
1.4
1.4
1.4
1.4
1.4
1.4
1.4
1.4
1.4
1.4
1.4
1.4
1.4
1.40001
1.40001
1.40001
1.40001
1.40001
1.40001
1.40001
1.40001
1.40001
1.40001
1.40001
1.40001
1.40001
1.40001
1.40001
1.40001
1.40001
1.40001
1.40001
1.40068
1.40094
1.40123
1.40157
1.40193
1.40231
1.40269
1.40305
1.40338
1.40366
1.40388
1.40403
1.4041
1.4041
1.40401
1.40385
1.40362
1.40335
1.40304
1.4027
1.40236
1.40202
1.4017
1.4014
1.40113
1.4009
1.4007
1.40053
1.40039
1.40028
1.40019
1.40012
1.40007
1.40004
1.40001
1.4
1.39999
1.39998
1.39998
1.39998
1.39999
1.39999
1.39999
1.39999
1.4
1.4
1.4
1.4
1.4
1.4
1.4
1.4
1.4
1.4
1.4
1.4
1.40001
1.40001
1.40001
1.40001
1.40001
1.40001
1.40001
1.40001
1.40001
1.40001
1.40001
1.40001
1.40001
1.40001
1.40001
1.40001
1.40001
1.40001
1.40001
1.40117
1.40154
1.40197
1.40245
1.40296
1.40348
1.404
1.40449
1.40493
1.4053
1.40558
1.40576
1.40584
1.4058
1.40565
1.40541
1.40507
1.40467
1.40422
1.40374
1.40325
1.40278
1.40232
1.4019
1.40153
1.4012
1.40092
1.40069
1.40051
1.40036
1.40024
1.40015
1.40009
1.40004
1.40001
1.39999
1.39998
1.39998
1.39998
1.39998
1.39998
1.39998
1.39999
1.39999
1.39999
1.4
1.4
1.4
1.4
1.4
1.4
1.4
1.4
1.4
1.4
1.4
1.4
1.40001
1.40001
1.40001
1.40001
1.40001
1.40001
1.40001
1.40001
1.40001
1.40001
1.40001
1.40001
1.40001
1.40001
1.40001
1.40001
1.40001
1.40001
1.40186
1.4024
1.40301
1.40368
1.40438
1.4051
1.4058
1.40645
1.40703
1.40751
1.40787
1.40809
1.40816
1.40808
1.40786
1.4075
1.40702
1.40646
1.40582
1.40515
1.40447
1.4038
1.40317
1.40259
1.40207
1.40162
1.40124
1.40092
1.40067
1.40047
1.40031
1.4002
1.40011
1.40005
1.40001
1.39999
1.39997
1.39997
1.39997
1.39997
1.39997
1.39998
1.39998
1.39999
1.39999
1.39999
1.4
1.4
1.4
1.4
1.4
1.4
1.4
1.4
1.4
1.4
1.4
1.40001
1.40001
1.40001
1.40001
1.40001
1.40001
1.40001
1.40001
1.40001
1.40001
1.40001
1.40001
1.40001
1.40001
1.40001
1.40001
1.40001
1.40001
1.40282
1.40358
1.40443
1.40535
1.40631
1.40727
1.40819
1.40905
1.4098
1.41042
1.41087
1.41113
1.4112
1.41107
1.41075
1.41025
1.40959
1.40881
1.40794
1.40702
1.40608
1.40517
1.4043
1.40351
1.4028
1.40218
1.40166
1.40123
1.40089
1.40062
1.40041
1.40026
1.40014
1.40007
1.40002
1.39998
1.39997
1.39996
1.39996
1.39996
1.39997
1.39997
1.39998
1.39998
1.39999
1.39999
1.4
1.4
1.4
1.4
1.4
1.4
1.4
1.4
1.4
1.4
1.4
1.4
1.40001
1.40001
1.40001
1.40001
1.40001
1.40001
1.40001
1.40001
1.40001
1.40001
1.40001
1.40001
1.40001
1.40001
1.40001
1.40001
1.40001
1.40413
1.40518
1.40633
1.40757
1.40883
1.4101
1.4113
1.41241
1.41336
1.41414
1.4147
1.41502
1.41509
1.4149
1.41446
1.41378
1.41291
1.41186
1.4107
1.40947
1.40821
1.40697
1.4058
1.40473
1.40377
1.40294
1.40223
1.40165
1.40119
1.40082
1.40055
1.40034
1.40019
1.40009
1.40002
1.39998
1.39996
1.39995
1.39995
1.39995
1.39996
1.39996
1.39997
1.39998
1.39998
1.39999
1.39999
1.4
1.4
1.4
1.4
1.4
1.4
1.4
1.4
1.4
1.4
1.4
1.40001
1.40001
1.40001
1.40001
1.40001
1.40001
1.40001
1.40001
1.40001
1.40001
1.40001
1.40001
1.40001
1.40001
1.40001
1.40001
1.40001
1.40587
1.40728
1.40882
1.41043
1.41208
1.4137
1.41523
1.41662
1.41782
1.41877
1.41946
1.41984
1.4199
1.41965
1.41908
1.41821
1.41708
1.41573
1.41421
1.4126
1.41094
1.40931
1.40776
1.40633
1.40505
1.40393
1.40299
1.40221
1.40159
1.4011
1.40073
1.40046
1.40026
1.40013
1.40004
1.39998
1.39995
1.39994
1.39993
1.39994
1.39994
1.39995
1.39996
1.39997
1.39998
1.39999
1.39999
1.39999
1.4
1.4
1.4
1.4
1.4
1.4
1.4
1.4
1.4
1.4
1.40001
1.40001
1.40001
1.40001
1.40001
1.40001
1.40001
1.40001
1.40001
1.40001
1.40001
1.40001
1.40001
1.40001
1.40001
1.40001
1.40001
1.40813
1.40998
1.41198
1.41405
1.41613
1.41816
1.42005
1.42175
1.4232
1.42435
1.42517
1.42562
1.42568
1.42536
1.42465
1.42358
1.42217
1.42048
1.41857
1.41651
1.41439
1.41228
1.41026
1.40839
1.4067
1.40523
1.40398
1.40295
1.40212
1.40148
1.40098
1.40062
1.40036
1.40018
1.40006
1.39999
1.39994
1.39992
1.39992
1.39992
1.39993
1.39994
1.39995
1.39996
1.39997
1.39998
1.39999
1.39999
1.4
1.4
1.4
1.4
1.4
1.4
1.4
1.4
1.4
1.4
1.4
1.40001
1.40001
1.40001
1.40001
1.40001
1.40001
1.40001
1.40001
1.40001
1.40001
1.40001
1.40001
1.40001
1.40001
1.40001
1.40001
1.41099
1.41337
1.41589
1.41848
1.42105
1.4235
1.42577
1.42778
1.42948
1.43081
1.43175
1.43227
1.43234
1.43197
1.43114
1.42988
1.4282
1.42616
1.42383
1.42129
1.41863
1.41597
1.4134
1.41099
1.40881
1.4069
1.40527
1.40391
1.40282
1.40197
1.40132
1.40084
1.4005
1.40026
1.4001
1.4
1.39994
1.39991
1.39991
1.39991
1.39992
1.39993
1.39994
1.39996
1.39997
1.39998
1.39998
1.39999
1.39999
1.4
1.4
1.4
1.4
1.4
1.4
1.4
1.4
1.4
1.4
1.40001
1.40001
1.40001
1.40001
1.40001
1.40001
1.40001
1.40001
1.40001
1.40001
1.40001
1.40001
1.40001
1.40001
1.40001
1.40001
1.41453
1.41751
1.42062
1.42375
1.4268
1.42968
1.43229
1.43457
1.43646
1.43794
1.43897
1.43954
1.43964
1.43924
1.43834
1.43693
1.43504
1.43269
1.42996
1.42693
1.42371
1.42044
1.41724
1.41421
1.41144
1.409
1.40689
1.40514
1.40373
1.40261
1.40176
1.40113
1.40068
1.40036
1.40015
1.40002
1.39995
1.39991
1.39989
1.39989
1.3999
1.39992
1.39993
1.39995
1.39996
1.39997
1.39998
1.39999
1.39999
1.4
1.4
1.4
1.4
1.4
1.4
1.4
1.4
1.4
1.4
1.40001
1.40001
1.40001
1.40001
1.40001
1.40001
1.40001
1.40001
1.40001
1.40001
1.40001
1.40001
1.40001
1.40001
1.40001
1.40001
1.41879
1.42242
1.42613
1.42979
1.43328
1.4365
1.43935
1.44179
1.44378
1.44531
1.44638
1.44697
1.44709
1.44672
1.44582
1.44439
1.44239
1.43985
1.43681
1.43335
1.4296
1.42571
1.42183
1.4181
1.41466
1.41158
1.40892
1.40669
1.40487
1.40344
1.40234
1.40152
1.40092
1.40051
1.40024
1.40006
1.39996
1.3999
1.39988
1.39988
1.39989
1.3999
1.39992
1.39994
1.39995
1.39996
1.39998
1.39998
1.39999
1.39999
1.4
1.4
1.4
1.4
1.4
1.4
1.4
1.4
1.4
1.4
1.40001
1.40001
1.40001
1.40001
1.40001
1.40001
1.40001
1.40001
1.40001
1.40001
1.40001
1.40001
1.40001
1.40001
1.40001
1.42378
1.42806
1.43233
1.43643
1.44023
1.44361
1.44652
1.44892
1.45083
1.45226
1.45325
1.45382
1.45398
1.4537
1.45295
1.45165
1.44976
1.44723
1.44407
1.44034
1.43616
1.4317
1.42714
1.42269
1.41851
1.41472
1.4114
1.4086
1.4063
1.40448
1.40307
1.40201
1.40125
1.40071
1.40035
1.40012
1.39998
1.3999
1.39987
1.39986
1.39987
1.39989
1.39991
1.39993
1.39994
1.39996
1.39997
1.39998
1.39999
1.39999
1.4
1.4
1.4
1.4
1.4
1.4
1.4
1.4
1.4
1.4
1.40001
1.40001
1.40001
1.40001
1.40001
1.40001
1.40001
1.40001
1.40001
1.40001
1.40001
1.40001
1.40001
1.40001
1.40001
1.42944
1.4343
1.439
1.44335
1.44721
1.45048
1.45313
1.4552
1.45674
1.45785
1.4586
1.45906
1.45927
1.45919
1.45876
1.45786
1.45637
1.45418
1.45122
1.4475
1.44312
1.43824
1.4331
1.42793
1.42298
1.41842
1.41437
1.41091
1.40805
1.40576
1.40398
1.40264
1.40166
1.40097
1.40051
1.4002
1.40002
1.39991
1.39987
1.39985
1.39986
1.39987
1.39989
1.39991
1.39993
1.39995
1.39996
1.39998
1.39998
1.39999
1.39999
1.4
1.4
1.4
1.4
1.4
1.4
1.4
1.4
1.4
1.40001
1.40001
1.40001
1.40001
1.40001
1.40001
1.40001
1.40001
1.40001
1.40001
1.40001
1.40001
1.40001
1.40001
1.40001
1.43561
1.4409
1.44578
1.45006
1.4536
1.45634
1.45831
1.45962
1.46043
1.4609
1.46121
1.46146
1.46172
1.46197
1.46209
1.46192
1.46124
1.45983
1.45753
1.45425
1.45003
1.44503
1.43949
1.43373
1.42804
1.42268
1.41785
1.41365
1.41015
1.40731
1.4051
1.40341
1.40218
1.40131
1.40071
1.40032
1.40007
1.39994
1.39987
1.39984
1.39984
1.39986
1.39988
1.3999
1.39992
1.39994
1.39996
1.39997
1.39998
1.39999
1.39999
1.4
1.4
1.4
1.4
1.4
1.4
1.4
1.4
1.4
1.40001
1.40001
1.40001
1.40001
1.40001
1.40001
1.40001
1.40001
1.40001
1.40001
1.40001
1.40001
1.40001
1.40001
1.40001
1.44206
1.44748
1.45218
1.45592
1.45861
1.46025
1.46099
1.46102
1.46063
1.46011
1.45972
1.45964
1.45996
1.46066
1.46161
1.46256
1.46318
1.46312
1.46208
1.45982
1.4563
1.45161
1.44602
1.43987
1.43356
1.42745
1.42181
1.41683
1.41261
1.40916
1.40644
1.40436
1.40282
1.40172
1.40097
1.40047
1.40016
1.39997
1.39988
1.39984
1.39983
1.39984
1.39987
1.39989
1.39991
1.39994
1.39995
1.39997
1.39998
1.39999
1.39999
1.4
1.4
1.4
1.4
1.4
1.4
1.4
1.4
1.4
1.4
1.40001
1.40001
1.40001
1.40001
1.40001
1.40001
1.40001
1.40001
1.40001
1.40001
1.40001
1.40001
1.40001
1.40001
1.44842
1.45356
1.45753
1.46013
1.4613
1.46117
1.46
1.45815
1.45606
1.45414
1.45277
1.45221
1.45261
1.45393
1.456
1.45849
1.46096
1.4629
1.46382
1.46332
1.46118
1.45741
1.45224
1.44607
1.43937
1.43262
1.42621
1.42043
1.41545
1.41132
1.40803
1.40549
1.4036
1.40224
1.40129
1.40066
1.40027
1.40003
1.3999
1.39984
1.39982
1.39983
1.39985
1.39988
1.3999
1.39993
1.39995
1.39996
1.39997
1.39998
1.39999
1.39999
1.4
1.4
1.4
1.4
1.4
1.4
1.4
1.4
1.4
1.40001
1.40001
1.40001
1.40001
1.40001
1.40001
1.40001
1.40001
1.40001
1.40001
1.40001
1.40001
1.40001
1.40001
1.45422
1.45853
1.46111
1.46182
1.46071
1.45803
1.45423
1.44986
1.44552
1.44179
1.43917
1.43801
1.43849
1.44058
1.44407
1.44855
1.45345
1.45807
1.46172
1.46378
1.46384
1.46173
1.45763
1.45193
1.4452
1.43803
1.43096
1.4244
1.41864
1.41379
1.40987
1.40681
1.40452
1.40286
1.40169
1.40091
1.40041
1.4001
1.39993
1.39985
1.39982
1.39982
1.39984
1.39987
1.3999
1.39992
1.39994
1.39996
1.39997
1.39998
1.39999
1.39999
1.4
1.4
1.4
1.4
1.4
1.4
1.4
1.4
1.4
1.40001
1.40001
1.40001
1.40001
1.40001
1.40001
1.40001
1.40001
1.40001
1.40001
1.40001
1.40001
1.40001
1.40001
1.45896
1.46173
1.46215
1.46014
1.4559
1.44987
1.44271
1.43516
1.42806
1.42213
1.41801
1.41612
1.4167
1.41972
1.42492
1.43182
1.43969
1.44768
1.45485
1.46034
1.46347
1.46388
1.46161
1.45701
1.45072
1.44345
1.4359
1.42866
1.42213
1.41654
1.41195
1.40833
1.40559
1.40359
1.40217
1.40121
1.40058
1.4002
1.39998
1.39987
1.39982
1.39982
1.39983
1.39986
1.39989
1.39991
1.39993
1.39995
1.39997
1.39998
1.39999
1.39999
1.4
1.4
1.4
1.4
1.4
1.4
1.4
1.4
1.4
1.40001
1.40001
1.40001
1.40001
1.40001
1.40001
1.40001
1.40001
1.40001
1.40001
1.40001
1.40001
1.40001
1.40001
1.46205
1.46253
1.45995
1.45435
1.44614
1.43596
1.42471
1.41341
1.40307
1.39459
1.38874
1.38603
1.38672
1.39081
1.398
1.4077
1.41908
1.43107
1.44252
1.45227
1.45936
1.46319
1.46359
1.46083
1.45555
1.44861
1.44087
1.43311
1.42588
1.41954
1.41426
1.41005
1.40682
1.40443
1.40273
1.40157
1.4008
1.40032
1.40004
1.3999
1.39983
1.39982
1.39983
1.39985
1.39988
1.39991
1.39993
1.39995
1.39996
1.39998
1.39999
1.39999
1.4
1.4
1.4
1.4
1.4
1.4
1.4
1.4
1.4
1.40001
1.40001
1.40001
1.40001
1.40001
1.40001
1.40001
1.40001
1.40001
1.40001
1.40001
1.40001
1.40001
1.40001
1.46298
1.46036
1.45393
1.4439
1.43089
1.41583
1.39988
1.3843
1.37031
1.35899
1.35121
1.34758
1.34841
1.35368
1.36308
1.37594
1.39128
1.40786
1.42427
1.43907
1.451
1.45913
1.46306
1.46293
1.45934
1.45324
1.44566
1.43759
1.42978
1.42275
1.41678
1.41194
1.40819
1.40538
1.40337
1.40198
1.40106
1.40048
1.40013
1.39994
1.39985
1.39982
1.39982
1.39984
1.39987
1.3999
1.39992
1.39995
1.39996
1.39997
1.39998
1.39999
1.4
1.4
1.4
1.4
1.4
1.4
1.4
1.4
1.4
1.4
1.40001
1.40001
1.40001
1.40001
1.40001
1.40001
1.40001
1.40001
1.40001
1.40001
1.40001
1.40001
1.40001
1.46135
1.45482
1.44373
1.42849
1.40997
1.38938
1.36818
1.34789
1.32991
1.31551
1.30564
1.30101
1.30197
1.30852
1.32031
1.33661
1.35632
1.378
1.39998
1.42054
1.43807
1.45135
1.45966
1.46294
1.46174
1.45704
1.45006
1.44196
1.43374
1.4261
1.41946
1.41399
1.40969
1.40645
1.4041
1.40246
1.40136
1.40066
1.40023
1.39999
1.39987
1.39983
1.39982
1.39984
1.39987
1.3999
1.39992
1.39994
1.39996
1.39997
1.39998
1.39999
1.39999
1.4
1.4
1.4
1.4
1.4
1.4
1.4
1.4
1.4
1.40001
1.40001
1.40001
1.40001
1.40001
1.40001
1.40001
1.40001
1.40001
1.40001
1.40001
1.40001
1.40001
1.45687
1.44571
1.42924
1.40811
1.38346
1.35682
1.32995
1.30459
1.28237
1.26469
1.25261
1.2469
1.24796
1.25583
1.27014
1.29011
1.3145
1.34169
1.36976
1.39668
1.42052
1.43968
1.45314
1.4606
1.46249
1.45979
1.45386
1.44606
1.43764
1.4295
1.42225
1.41616
1.41131
1.40761
1.4049
1.40299
1.4017
1.40087
1.40036
1.40006
1.39991
1.39984
1.39983
1.39984
1.39987
1.39989
1.39992
1.39994
1.39996
1.39997
1.39998
1.39999
1.39999
1.4
1.4
1.4
1.4
1.4
1.4
1.4
1.4
1.4
1.40001
1.40001
1.40001
1.40001
1.40001
1.40001
1.40001
1.40001
1.40001
1.40001
1.40001
1.40001
1.40001
1.44946
1.43304
1.41059
1.38301
1.35174
1.31866
1.2858
1.25516
1.22853
1.20744
1.19304
1.18618
1.18731
1.1965
1.2134
1.23716
1.26645
1.29945
1.33401
1.36779
1.39849
1.42416