/*--------------------------------*- C++ -*----------------------------------*\
  =========                 |
  \\      /  F ield         | OpenFOAM: The Open Source CFD Toolbox
   \\    /   O peration     | Website:  https://openfoam.org
    \\  /    A nd           | Version:  6
     \\/     M anipulation  |
\*---------------------------------------------------------------------------*/
FoamFile
{
    version     2.0;
    format      ascii;
    class       surfaceVectorField;
    location    "1.73";
    object      rhoUf;
}
// * * * * * * * * * * * * * * * * * * * * * * * * * * * * * * * * * * * * * //

dimensions      [1 -2 -1 0 0 0 0];

internalField   nonuniform List<vector> 
11670
(
(-0.000123354 -1.3793e-05 0.00013974)
(-0.000139378 -3.17139e-05 5.30291e-05)
(-0.000265582 -8.50691e-05 0.000205606)
(-0.000151791 -4.54193e-05 0.00021337)
(3.90591e-08 -7.25646e-08 -1.38107e-07)
(-1.25671e-07 3.41043e-08 -7.47471e-08)
(-2.71093e-07 3.29347e-08 -1.19308e-07)
(-1.21306e-07 -1.25135e-08 -7.55297e-08)
(-0.000312875 -4.67585e-05 -0.000276903)
(-0.000370342 -7.15119e-05 -6.34916e-05)
(-0.000603725 -0.000113372 -0.000399467)
(-0.000347011 -0.000114964 -0.00037375)
(-1.78989e-06 -4.89809e-07 1.82629e-06)
(-1.65337e-06 -9.06599e-07 8.83392e-07)
(-3.49083e-06 -1.19858e-06 2.09964e-06)
(-2.30393e-06 -6.43866e-07 2.54725e-06)
(-3.80718e-05 -1.02855e-06 1.01207e-06)
(-2.97777e-05 8.81213e-07 -5.3797e-06)
(-3.40568e-05 4.52467e-08 8.84126e-07)
(-4.68158e-05 -4.14628e-06 -2.68011e-06)
(-5.26403e-08 9.40694e-09 1.94481e-08)
(-5.21442e-08 -1.94786e-09 3.76461e-08)
(-4.35945e-08 3.07895e-08 2.10085e-08)
(-8.64234e-08 2.73999e-08 1.63036e-08)
(-1.72918e-07 -8.17974e-08 4.31394e-07)
(-2.50438e-07 -1.0238e-07 3.90737e-07)
(-3.98666e-07 1.97992e-07 9.14719e-08)
(-2.04692e-07 -6.84689e-08 1.4778e-07)
(5.95267e-07 -1.39209e-07 4.5192e-08)
(-3.6113e-07 -8.6284e-09 -1.18623e-07)
(-6.06037e-07 2.24867e-07 1.58338e-07)
(-3.33924e-07 5.11744e-09 2.79409e-07)
(4.85982e-08 7.30581e-08 -3.44732e-08)
(-2.32681e-08 7.09556e-08 1.87392e-08)
(-5.38619e-08 5.42811e-09 -8.23906e-09)
(1.97958e-08 8.97218e-08 4.41653e-09)
(-3.89163e-07 2.97713e-07 -5.24214e-07)
(8.35074e-08 -6.10752e-08 -3.93543e-07)
(5.5683e-07 -7.79096e-08 -3.43483e-07)
(1.52777e-07 4.74282e-08 -1.85283e-07)
(-8.56085e-07 2.33153e-07 -2.21318e-09)
(2.27427e-07 6.24629e-08 5.59291e-08)
(3.4809e-07 -3.08466e-07 -1.03998e-07)
(1.00668e-07 9.29911e-09 -1.57333e-07)
(-7.4301e-05 -3.53145e-05 3.32443e-05)
(-6.20892e-06 -1.17918e-05 1.71462e-05)
(-1.50796e-05 -8.80934e-06 1.66569e-05)
(-1.62854e-05 -1.08412e-05 3.65098e-05)
(5.13731e-08 5.80432e-08 -2.29153e-08)
(4.64507e-08 2.22307e-08 -2.08384e-08)
(5.23757e-08 4.17895e-08 -4.15238e-08)
(2.89217e-08 2.22686e-08 -2.13017e-08)
(9.11805e-08 3.04464e-08 3.24948e-08)
(9.00773e-08 8.70168e-09 1.8532e-08)
(5.71567e-08 -5.44075e-10 1.76817e-08)
(7.46796e-08 7.69045e-09 3.6158e-08)
(-3.23533e-05 -6.78689e-06 -2.06643e-05)
(-9.28033e-05 -2.99075e-05 -5.10404e-05)
(-3.10114e-05 -1.24814e-05 -3.78383e-05)
(-2.40079e-05 -1.50346e-05 -1.93903e-05)
(-5.35017e-08 2.91755e-08 1.07249e-08)
(-1.07654e-08 -2.2041e-09 -2.70882e-08)
(-2.096e-08 1.60621e-08 -1.42981e-08)
(-2.2412e-08 1.56303e-08 -1.1514e-08)
(-0.00120285 0.000845911 -0.000835167)
(-0.000464084 0.000236674 8.52767e-05)
(-0.00040762 0.000489898 -0.000404416)
(-0.000392765 0.000577229 -0.000380351)
(-0.00146389 -0.00105232 0.000934863)
(-0.000424944 -0.000275483 1.60995e-05)
(-0.000428929 -0.000547499 0.000376788)
(-0.000435997 -0.000493693 0.000524785)
(1.02291e-07 -2.45445e-08 1.90643e-08)
(1.12177e-07 -1.3459e-08 1.26824e-08)
(1.75946e-07 -3.20761e-08 2.66659e-08)
(1.49515e-07 -3.63581e-08 2.66149e-08)
(-6.49159e-09 1.31183e-08 1.57785e-08)
(2.8717e-09 -7.74953e-09 1.29235e-08)
(2.56312e-08 -3.8557e-09 1.73257e-08)
(2.80948e-08 -1.68359e-09 2.5344e-08)
(-0.000703675 -0.000169955 2.25942e-05)
(-0.00154117 -0.000305013 -0.00112262)
(-0.000586206 -0.000408639 -0.000575784)
(-0.00050918 -0.000460821 -0.000481688)
(-2.8453e-09 -8.61729e-09 3.57469e-09)
(3.31432e-08 -7.26758e-09 -1.75662e-09)
(2.23718e-08 -7.48617e-09 -6.55763e-09)
(1.96891e-08 -1.4099e-09 4.43475e-10)
(-0.000531128 0.0001478 0.000143724)
(-0.00139236 0.000481152 0.00126974)
(-0.000403195 0.000633341 0.000416866)
(-0.000414437 0.000383596 0.000544284)
(-5.90181e-05 4.18109e-05 -2.7119e-05)
(-7.89397e-06 6.12996e-06 -1.20574e-05)
(-1.52647e-05 1.40902e-05 -2.57538e-05)
(-1.47632e-05 1.98585e-05 -1.39197e-05)
(2.97075e-09 1.68508e-09 -8.24731e-09)
(-1.9019e-08 -2.52346e-09 -1.2337e-09)
(-7.42683e-09 2.43589e-09 1.91116e-09)
(-2.89317e-09 -5.22541e-09 6.6272e-09)
(-3.57774e-08 1.99753e-08 -4.31769e-09)
(-2.20137e-08 1.91345e-08 8.93157e-09)
(-2.87485e-08 1.56353e-08 2.60618e-09)
(-5.74808e-08 2.23385e-08 7.12544e-11)
(-2.70122e-05 5.99439e-06 1.41845e-05)
(-8.3305e-05 5.11156e-05 4.15397e-05)
(-2.35111e-05 2.54656e-05 1.40988e-05)
(-2.84745e-05 1.49616e-05 3.02774e-05)
(3.80914e-08 1.09079e-09 -8.47394e-09)
(-8.05461e-09 5.569e-10 -5.13001e-09)
(2.08203e-08 -1.24543e-08 -5.16351e-10)
(1.80162e-08 -5.38639e-09 8.6458e-09)
(-7.86099e-07 -9.43104e-09 -7.67842e-07)
(-3.4388e-06 -1.26943e-06 1.77284e-06)
(-8.71025e-07 -2.88049e-07 -1.00868e-07)
(-9.07726e-07 -3.61261e-07 5.9302e-07)
(-2.48738e-08 2.00956e-08 4.75264e-08)
(2.64747e-08 2.84769e-08 6.26935e-08)
(6.43427e-09 2.9493e-08 6.16723e-08)
(-1.53643e-08 4.89295e-08 1.11612e-07)
(-1.26576e-07 -5.48978e-08 7.60518e-08)
(-1.92172e-07 -1.05881e-08 1.26329e-07)
(-1.59178e-07 -1.00998e-08 3.34327e-08)
(-1.55317e-07 -1.32933e-08 8.43747e-08)
(9.56458e-09 -1.3039e-09 -2.01768e-08)
(-6.5502e-08 4.28494e-09 -4.92138e-10)
(-1.58118e-08 3.61361e-09 -1.21248e-09)
(-9.33117e-09 8.03361e-09 6.23844e-09)
(-7.30921e-08 4.22063e-12 3.87409e-09)
(-1.9257e-08 -7.17977e-09 -6.02904e-09)
(-1.76868e-08 8.90909e-09 4.09799e-09)
(-2.07225e-08 1.81693e-09 -1.46379e-09)
(-2.75443e-07 8.59917e-08 -4.77994e-08)
(-3.75715e-09 -1.19903e-07 2.42148e-08)
(-5.73085e-08 -2.11683e-08 8.81861e-09)
(-3.99095e-08 -8.70797e-08 4.2713e-08)
(4.24559e-08 -4.66371e-08 -9.85414e-08)
(-3.23031e-08 4.452e-08 -2.91182e-08)
(-1.52063e-08 -7.00171e-08 -4.82558e-08)
(2.7118e-08 -5.9763e-08 -4.15986e-08)
(4.36304e-08 -1.14798e-08 2.43203e-08)
(-1.61235e-09 5.03228e-10 1.48598e-08)
(-1.92148e-08 8.77965e-09 -2.61346e-09)
(-2.50148e-08 4.40059e-10 3.47066e-09)
(-4.08929e-08 2.88408e-08 2.06796e-08)
(-6.30208e-09 1.35513e-09 1.88823e-08)
(-1.28378e-08 1.85094e-08 2.27948e-08)
(-1.59807e-08 2.10598e-08 1.97934e-08)
(1.4111e-08 -4.47172e-09 1.20755e-08)
(-7.02571e-08 3.06138e-08 9.13207e-09)
(-3.89815e-08 2.14008e-08 8.16162e-09)
(-3.02669e-08 2.36134e-08 9.4546e-09)
(-2.68131e-07 -5.75361e-08 -5.56241e-08)
(-1.99702e-07 1.15546e-08 -2.03575e-07)
(-1.62128e-07 -2.03239e-08 -1.76351e-07)
(-1.54755e-07 2.03449e-08 -1.49511e-07)
(-9.11529e-08 -1.07688e-08 2.17966e-08)
(-1.73058e-08 -1.52814e-07 1.20389e-07)
(-2.79306e-08 -1.66614e-08 9.49583e-08)
(1.68856e-08 -4.73943e-08 1.85844e-07)
(-1.66717e-07 2.69139e-08 1.53382e-08)
(-1.22099e-07 2.22128e-08 8.94418e-09)
(-2.39529e-07 5.19194e-08 2.215e-08)
(-1.95614e-07 5.33972e-08 2.15169e-08)
(-1.86879e-07 9.6742e-09 -5.22827e-08)
(-1.06171e-07 -6.71565e-08 2.34438e-08)
(-7.67775e-08 -3.7293e-08 -8.4632e-08)
(-7.98854e-08 -5.93724e-09 -7.13578e-08)
(-1.78883e-08 -2.0623e-08 1.67372e-08)
(-7.99076e-10 -1.29837e-08 5.35604e-09)
(2.59566e-09 -1.10402e-09 -2.50225e-09)
(-3.18924e-09 -1.39114e-08 -1.45793e-09)
(-2.48514e-07 -1.5405e-08 3.60815e-08)
(-2.05856e-07 4.85072e-09 1.42208e-07)
(-1.69287e-07 6.26494e-08 1.2225e-07)
(-1.77346e-07 2.50904e-08 1.7598e-07)
(6.6098e-08 -5.69682e-09 2.0654e-08)
(2.4255e-08 2.02273e-09 1.42196e-08)
(2.07918e-08 -9.49714e-10 -2.17367e-09)
(2.8772e-08 -9.40274e-09 6.41497e-09)
(-6.91477e-08 1.16356e-08 -3.6343e-08)
(6.01814e-08 -4.80288e-08 2.89477e-08)
(6.09349e-09 -1.67462e-09 -3.03104e-09)
(1.24488e-08 -2.56887e-08 1.1764e-08)
(4.32956e-10 1.14217e-08 9.64703e-10)
(5.16764e-08 -1.65417e-08 1.9137e-08)
(-2.65193e-09 2.30927e-09 8.66187e-09)
(-4.32973e-09 7.50449e-09 8.83455e-09)
(1.0867e-07 -3.89642e-08 3.07839e-08)
(1.61725e-07 -5.02938e-08 -1.93554e-08)
(1.33193e-07 -6.98686e-08 -5.08949e-09)
(2.36005e-07 -9.13521e-08 -1.49267e-09)
(1.21283e-07 -1.77081e-08 -8.4135e-09)
(1.21856e-07 -3.67806e-08 2.86182e-08)
(1.61945e-07 -4.58626e-08 1.65649e-08)
(1.37293e-07 -4.66897e-08 1.7743e-08)
(5.64581e-08 1.63289e-08 4.40498e-09)
(3.66109e-08 1.26211e-08 3.19504e-08)
(3.58972e-08 -6.65955e-09 1.85067e-08)
(3.65142e-08 3.95773e-09 2.65126e-08)
(-2.95137e-08 2.71089e-08 2.87916e-09)
(-9.9613e-09 1.48078e-08 5.13112e-09)
(-2.14057e-08 1.65777e-08 2.83498e-09)
(-4.12398e-08 2.62359e-08 -1.6818e-09)
(8.60767e-09 1.49477e-08 -1.9775e-08)
(1.65216e-08 2.28073e-08 -2.31517e-09)
(-4.64301e-10 1.51811e-09 -3.65749e-08)
(6.70434e-09 -7.40007e-09 -2.91318e-08)
(-8.85856e-10 3.44756e-11 1.2656e-09)
(-9.76402e-09 -1.19017e-08 1.20043e-08)
(-4.45401e-09 -2.68087e-09 6.10222e-09)
(-4.13933e-09 -1.14094e-09 7.45432e-09)
(-2.54672e-08 -5.59452e-09 -6.07354e-09)
(-6.88825e-09 -1.82082e-09 -5.14153e-09)
(-4.15319e-09 -9.12628e-09 -5.18885e-09)
(-2.09389e-09 -1.305e-08 -3.92647e-10)
(-1.09882e-08 1.67052e-08 7.17422e-09)
(2.19678e-08 6.24773e-10 5.28353e-09)
(-2.57657e-10 6.77359e-09 2.16163e-09)
(-1.82046e-09 3.5314e-09 6.72154e-09)
(-9.52456e-09 6.3383e-09 1.47659e-08)
(1.49072e-08 -2.92686e-09 -2.19273e-08)
(-3.84673e-08 1.49009e-09 -1.19214e-08)
(-3.58836e-08 -1.65395e-09 -4.64731e-09)
(-1.17622e-07 1.88011e-08 4.99216e-08)
(-8.98937e-08 9.12499e-09 -6.13207e-08)
(-1.53489e-07 2.24145e-08 -4.29967e-08)
(-1.45399e-07 2.59739e-08 -2.64409e-08)
(4.29179e-08 -1.30395e-08 -7.36762e-10)
(4.70763e-08 -9.33717e-09 -1.14593e-08)
(3.48658e-08 -1.52423e-08 2.68025e-09)
(1.92972e-08 -8.0741e-09 4.25058e-09)
(5.22724e-08 -3.93287e-08 5.84628e-08)
(1.55208e-08 -7.75282e-09 2.67053e-08)
(2.66287e-08 -2.14594e-08 2.35613e-08)
(4.26582e-08 -1.86785e-08 3.97463e-08)
(-2.63046e-08 9.74035e-09 -1.06053e-08)
(5.23697e-08 -5.54926e-09 -6.51202e-09)
(1.23732e-08 1.30367e-08 3.84473e-09)
(7.54629e-09 2.61043e-09 1.14354e-08)
(-1.22906e-06 1.00074e-06 6.46603e-07)
(-6.49911e-08 2.16613e-07 7.45571e-07)
(-2.31738e-07 4.60163e-07 5.29491e-07)
(-2.49439e-07 3.72752e-07 8.5601e-07)
(3.09262e-08 -3.11185e-09 2.7205e-09)
(-1.85144e-08 1.55766e-08 -7.62773e-09)
(1.3228e-08 -5.99087e-09 3.32633e-09)
(1.56397e-08 -4.12023e-09 2.54869e-09)
(-7.44255e-07 2.20009e-07 -7.8778e-09)
(-1.65974e-06 7.47808e-07 -8.02189e-07)
(-6.46522e-07 2.32139e-07 -3.89267e-07)
(-5.89656e-07 5.4721e-07 -4.16468e-08)
(1.75347e-07 -2.79492e-08 9.19736e-09)
(1.26744e-07 -3.44795e-08 3.99735e-08)
(2.18037e-07 -5.8306e-08 3.62945e-08)
(1.82337e-07 -6.33877e-08 3.67206e-08)
(-7.20091e-08 4.63656e-08 1.01627e-08)
(-5.08996e-08 3.15991e-08 1.27134e-08)
(-6.106e-08 3.15799e-08 9.28139e-09)
(-1.18215e-07 5.19282e-08 8.66403e-09)
(8.70922e-09 2.02691e-08 -8.31588e-08)
(-5.24571e-08 1.04064e-07 -9.95267e-08)
(-2.53752e-08 3.34996e-08 -1.0307e-07)
(-1.63849e-09 2.1597e-08 -6.79946e-08)
(1.45201e-08 6.56761e-08 4.31548e-08)
(-1.64477e-08 1.45991e-08 7.44675e-08)
(2.36152e-09 1.62211e-08 4.762e-08)
(1.44294e-08 2.25373e-08 7.10227e-08)
(1.66881e-08 -1.41054e-08 5.307e-09)
(5.58125e-08 -7.247e-09 5.06516e-09)
(1.52371e-08 -7.30495e-09 -2.76843e-09)
(1.72098e-08 -7.054e-09 -4.61186e-09)
(1.69596e-07 3.84675e-08 6.06639e-08)
(1.55363e-07 -4.22314e-08 1.30673e-07)
(1.20446e-07 -3.52408e-08 1.05627e-07)
(1.64947e-07 -1.52716e-08 1.50957e-07)
(7.34618e-08 2.45771e-08 -2.23111e-07)
(7.36013e-08 1.10201e-07 -5.58106e-08)
(1.11394e-08 7.12006e-08 -1.46084e-07)
(4.14602e-08 3.70411e-08 -1.13795e-07)
(2.18124e-08 2.96656e-08 -1.0699e-08)
(7.64166e-08 1.00076e-07 9.50675e-08)
(1.55332e-08 8.77361e-09 8.07367e-08)
(-4.9338e-08 5.35669e-08 1.45365e-07)
(2.96428e-07 1.77077e-08 -1.63492e-08)
(1.07556e-07 -9.33645e-09 -1.85722e-07)
(1.45609e-07 3.578e-09 -1.26064e-07)
(1.34272e-07 -2.58513e-08 -9.00127e-08)
(-9.6338e-09 1.55799e-08 1.77468e-08)
(7.99179e-08 -8.65369e-09 1.01379e-08)
(8.19902e-10 -5.43283e-11 -7.30409e-09)
(7.09613e-09 7.30658e-09 -3.75434e-09)
(8.56462e-08 -5.93996e-09 1.38633e-08)
(2.60174e-08 1.29245e-08 1.68764e-08)
(3.71236e-08 -1.05973e-08 6.66092e-09)
(2.46881e-08 -1.14554e-08 2.97048e-09)
(-1.66845e-08 8.6059e-09 -6.78609e-09)
(1.07187e-07 -2.28984e-08 -3.95802e-09)
(4.35684e-08 -3.6471e-09 7.54023e-09)
(3.12351e-08 -1.1316e-08 1.17272e-08)
(7.94314e-08 -1.17543e-08 -4.43682e-09)
(-7.31071e-09 1.36945e-08 5.69464e-09)
(3.2681e-08 -2.0362e-08 4.77014e-09)
(4.50808e-08 -1.79306e-08 8.0164e-09)
(3.5063e-07 -9.38606e-08 1.58061e-09)
(1.0148e-07 5.76963e-08 -1.33583e-07)
(1.30347e-07 3.80365e-08 -1.02442e-07)
(1.65023e-07 -2.03833e-08 -7.77257e-08)
(-4.1189e-08 4.78825e-08 2.81954e-08)
(1.87391e-08 -1.85308e-08 -5.84413e-08)
(-6.9251e-08 5.54644e-08 -2.78375e-08)
(-1.94373e-08 5.04736e-08 5.29262e-09)
(1.1857e-08 3.0439e-08 2.02669e-07)
(2.20708e-07 9.64056e-09 -2.2313e-07)
(2.62863e-07 -4.82962e-08 -4.15809e-08)
(2.56342e-07 -2.7264e-08 1.77983e-08)
(1.55419e-07 -4.74094e-08 2.57352e-08)
(4.76338e-08 -1.7034e-08 1.90643e-08)
(1.33482e-07 -3.764e-08 1.85027e-08)
(1.25477e-07 -4.13364e-08 2.262e-08)
(-1.83286e-08 3.26911e-09 3.15311e-08)
(-3.32255e-08 1.16393e-08 2.1331e-08)
(-1.8144e-08 -2.3396e-08 2.394e-08)
(-1.12356e-08 -4.84489e-08 5.55789e-08)
(-1.14022e-07 9.72914e-08 1.53241e-07)
(-8.45654e-08 6.44637e-08 -5.04919e-08)
(-9.983e-08 6.1026e-08 4.34039e-08)
(-1.38265e-07 6.58356e-08 5.75077e-08)
(2.09849e-07 -3.27367e-08 -1.43289e-08)
(-8.00611e-08 3.15844e-08 -1.05434e-07)
(1.95607e-07 -4.82374e-08 -3.67932e-08)
(-0.000442573 -7.10138e-06 -0.00034601)
(-0.000244508 -4.89665e-06 -0.000134617)
(-0.000282035 -3.59407e-05 -0.000306083)
(-0.000173576 -7.98429e-06 0.000151801)
(-7.43395e-05 1.02916e-05 6.19291e-05)
(-9.55271e-05 2.53397e-06 0.000133846)
(-2.02987e-07 7.36548e-08 2.87118e-07)
(-7.63079e-07 2.22504e-07 2.31185e-07)
(-3.63049e-08 -4.88136e-08 5.44721e-07)
(-1.20175e-05 1.00326e-07 5.82693e-08)
(-1.22175e-05 5.52155e-07 1.16936e-06)
(-1.88451e-05 5.6231e-07 -7.22068e-07)
(-1.37361e-08 5.36264e-09 -5.67092e-10)
(7.23119e-08 6.01465e-09 9.61622e-09)
(-5.34244e-09 1.48544e-08 -3.56596e-09)
(1.1708e-06 -3.57846e-07 -3.73135e-07)
(3.56594e-07 -9.16612e-08 1.88504e-07)
(9.76165e-07 -2.89556e-07 -1.9905e-07)
(-2.6107e-06 -6.59705e-07 1.68589e-06)
(-1.1588e-06 -3.00563e-08 8.89611e-07)
(-1.31019e-06 -1.85092e-07 1.5733e-06)
(-7.8754e-08 1.11709e-08 5.71235e-08)
(-5.35937e-08 6.25351e-08 1.56436e-08)
(1.09047e-07 2.13586e-08 -1.34414e-08)
(-7.37355e-07 1.38704e-07 -1.43361e-07)
(-1.92241e-08 5.67339e-08 -3.09299e-07)
(-8.67706e-07 2.3116e-07 -1.98024e-07)
(-1.27004e-06 3.83656e-07 3.29593e-07)
(-4.71215e-07 3.65055e-08 -5.04947e-08)
(-1.13677e-06 3.33595e-07 2.4373e-07)
(-3.01151e-08 -1.29987e-07 1.10026e-08)
(6.71759e-09 -4.50447e-08 -1.3824e-08)
(2.17297e-08 -1.43179e-07 -5.52047e-08)
(2.228e-08 -1.09792e-07 -6.25556e-08)
(-1.85083e-08 3.88524e-08 -4.56292e-08)
(-5.47955e-08 -3.99759e-08 -1.16517e-08)
(-4.53506e-08 4.9944e-08 -5.32903e-08)
(-4.69878e-08 4.71416e-08 -5.43266e-08)
(6.24267e-09 2.93419e-08 4.18982e-09)
(-1.47966e-08 4.1194e-09 2.01386e-08)
(-3.34064e-09 1.59616e-08 1.94781e-08)
(-5.02537e-09 1.13038e-08 1.28285e-08)
(-1.68711e-08 6.62512e-08 -4.94215e-08)
(-7.53942e-10 1.10652e-08 8.96837e-08)
(-6.50486e-08 3.00194e-08 1.03201e-07)
(-3.74726e-08 2.92959e-08 4.93905e-08)
(8.26361e-08 1.31035e-09 -1.38298e-07)
(7.69513e-08 7.25661e-09 1.55952e-07)
(7.08014e-09 2.57369e-08 1.47158e-07)
(-5.22989e-08 3.56559e-08 3.28224e-08)
(-5.4144e-06 -1.19682e-06 -1.24107e-06)
(-7.1206e-06 -1.03637e-06 -4.70143e-06)
(-9.54341e-06 -2.20024e-06 -5.19397e-06)
(-6.21844e-06 -1.43701e-06 -3.00888e-06)
(-4.4565e-08 6.39771e-08 8.34882e-08)
(1.5626e-07 6.64298e-08 3.35158e-07)
(3.35413e-08 4.04647e-08 1.83111e-07)
(1.16164e-07 6.64623e-08 2.6918e-07)
(-4.03405e-08 -3.113e-09 -1.87237e-07)
(-5.76321e-09 -2.6522e-08 -7.56141e-08)
(-2.54573e-08 -1.81352e-08 -6.21876e-08)
(-5.16507e-08 -1.78833e-08 -1.12311e-07)
(-2.88689e-08 -2.87639e-08 3.85834e-08)
(-1.23073e-08 2.63357e-08 3.23871e-08)
(1.23654e-08 9.61246e-09 2.06037e-08)
(-3.10469e-09 1.97329e-08 1.17001e-08)
(-2.86267e-08 7.74279e-08 -5.36511e-08)
(-2.45766e-08 8.79065e-08 -6.88222e-08)
(-4.20829e-08 8.22851e-08 -2.77669e-08)
(1.63692e-07 2.99522e-08 5.96973e-09)
(2.12605e-07 1.77918e-08 -2.16892e-08)
(1.43828e-07 -2.71e-08 5.56027e-08)
(5.75624e-08 2.69557e-08 7.28079e-09)
(-1.73388e-05 -1.87922e-06 -1.38009e-06)
(-2.04682e-05 -4.88064e-06 -7.0406e-06)
(-1.19118e-05 -1.8782e-06 -3.08609e-06)
(-1.13513e-05 -4.52881e-06 -2.29149e-06)
(-1.0565e-07 1.09102e-07 -3.35157e-08)
(4.0448e-08 9.55036e-08 -3.72524e-08)
(3.9365e-08 7.48261e-08 -1.29685e-08)
(-7.27248e-08 1.77962e-08 -1.19963e-08)
(-6.30033e-08 8.62273e-09 -2.34804e-08)
(-1.01968e-07 4.29374e-09 -3.41428e-08)
(-6.18487e-09 -5.8116e-09 -2.53953e-08)
(-2.77542e-05 6.2462e-08 1.4279e-06)
(-1.71404e-05 -8.0325e-07 -2.39466e-06)
(-1.70785e-05 3.54676e-06 1.00824e-07)
(3.88266e-08 -4.02926e-08 1.02479e-07)
(4.42567e-08 -5.22953e-08 5.84772e-08)
(1.86437e-08 -2.14307e-08 5.1008e-08)
(-1.21904e-07 6.7073e-08 -9.05505e-08)
(-2.66329e-08 1.13507e-08 -1.32095e-07)
(-3.68951e-08 3.27091e-08 -3.85595e-08)
(2.1464e-07 -4.11876e-08 -3.17429e-07)
(8.19937e-08 -3.80605e-08 -3.54698e-07)
(7.26502e-08 4.42973e-08 -3.50524e-07)
(4.97661e-08 1.85383e-08 1.27343e-08)
(1.38772e-08 3.97302e-08 2.50739e-09)
(1.96296e-09 4.40405e-08 2.19045e-08)
(-4.07285e-06 -4.03716e-07 1.44708e-06)
(-4.70119e-06 1.32526e-07 1.66565e-06)
(-6.19833e-06 -1.5942e-06 1.74743e-06)
(-1.11588e-07 2.08237e-08 -1.74865e-07)
(-8.81562e-08 1.76475e-08 -2.12956e-07)
(-8.86419e-08 4.75243e-08 -1.63269e-07)
(-8.6991e-09 7.81467e-08 -8.93151e-08)
(2.26245e-08 8.2696e-08 -1.38757e-07)
(2.5298e-08 7.26634e-08 -9.51101e-08)
(-3.33053e-08 1.1683e-08 2.8434e-08)
(-7.29853e-08 1.38812e-07 -4.92626e-08)
(-8.55366e-08 7.76058e-08 -2.73582e-08)
(-1.02767e-07 1.09222e-07 -2.37497e-08)
(6.97971e-08 -9.58615e-08 1.0022e-07)
(9.00455e-08 -8.64468e-08 9.63585e-08)
(6.39926e-08 -8.36403e-08 9.6996e-08)
(-1.9306e-08 5.94849e-08 4.81796e-08)
(4.53251e-08 1.00521e-07 -2.75829e-08)
(-2.27412e-07 9.64723e-08 -1.52562e-08)
(-1.20669e-07 6.31527e-08 -7.09425e-09)
(5.33161e-08 5.11421e-08 5.4704e-08)
(4.65364e-08 2.52386e-08 7.91212e-08)
(3.32614e-08 -9.44398e-09 1.7199e-08)
(-5.01791e-06 6.17697e-07 3.04148e-07)
(-1.23478e-05 -1.342e-06 -3.20862e-06)
(-2.60907e-06 4.69046e-06 1.49538e-06)
(-6.11753e-06 9.44702e-07 -1.60456e-07)
(-6.06644e-06 -3.06716e-07 1.99694e-06)
(-1.88821e-06 -1.79061e-06 2.79619e-07)
(-4.31839e-06 -9.43269e-07 9.99251e-07)
(-2.02595e-08 1.17674e-08 8.81312e-09)
(-5.1251e-08 -2.32087e-09 -5.75191e-10)
(-8.66607e-09 -2.41475e-08 3.06603e-08)
(2.03666e-08 -3.0178e-08 2.57557e-09)
(-9.67163e-08 6.44712e-08 2.39555e-08)
(-7.61302e-08 3.2355e-08 -1.69141e-08)
(-7.04718e-08 4.1064e-08 -1.75784e-08)
(-1.12043e-07 -6.1318e-08 -2.93184e-08)
(-1.93518e-07 -2.96932e-08 -3.83592e-09)
(-2.15239e-07 -4.28025e-08 -7.36155e-08)
(-1.92111e-07 -5.86217e-08 -9.18066e-08)
(-7.97767e-08 -6.16687e-08 -6.64027e-08)
(-1.19446e-07 -2.66634e-08 5.49709e-09)
(-9.18713e-08 -3.50435e-08 5.75813e-08)
(-2.58597e-07 1.71399e-08 1.12754e-07)
(-1.29701e-07 -1.33032e-07 -2.45694e-07)
(-2.93682e-07 -6.09944e-09 -1.65442e-07)
(-3.10631e-07 -8.46862e-08 -3.97453e-08)
(-2.61419e-07 1.51758e-07 2.61889e-07)
(-3.35972e-07 1.22823e-07 1.17121e-07)
(-3.13621e-07 1.27997e-07 2.35321e-07)
(-8.47048e-08 3.63059e-08 -1.01963e-07)
(4.70579e-08 7.62655e-08 -1.3906e-07)
(3.42005e-08 5.03002e-08 -9.79438e-08)
(3.14257e-08 3.19215e-08 -4.12644e-08)
(-2.22288e-07 -2.64248e-08 3.17915e-08)
(-1.39102e-07 8.59131e-09 1.1479e-08)
(-2.2172e-07 -1.16756e-08 -5.92859e-08)
(1.92179e-07 1.00927e-07 2.14948e-07)
(1.29948e-07 7.19422e-08 1.52732e-07)
(3.91256e-07 1.24279e-07 4.40949e-07)
(3.65497e-07 7.78926e-08 1.12622e-07)
(2.69515e-07 -8.71195e-08 -7.59657e-08)
(1.67907e-07 -1.6562e-08 5.84432e-08)
(3.39449e-07 2.33304e-08 7.21239e-08)
(8.61567e-09 3.90451e-08 -1.56997e-08)
(-6.7213e-09 2.14449e-08 1.14466e-08)
(-5.04214e-09 9.2725e-09 -3.24608e-09)
(4.36794e-09 1.5398e-08 3.62432e-10)
(2.99836e-08 4.83661e-08 -1.23422e-08)
(-1.52076e-08 3.51392e-08 -9.4114e-10)
(4.5048e-09 3.72686e-08 -8.93991e-09)
(-7.70806e-08 -1.2266e-07 1.79634e-08)
(-5.85072e-08 -1.50952e-07 8.47933e-09)
(1.38326e-07 3.44859e-09 -1.10499e-07)
(-1.25385e-07 4.91041e-08 -6.72388e-08)
(2.13285e-07 -1.14483e-08 -2.20753e-07)
(1.21358e-07 -1.56853e-08 -1.7095e-07)
(6.5703e-08 -6.64285e-08 -2.41117e-07)
(-2.27578e-07 5.22613e-08 -2.07047e-08)
(6.01852e-08 -2.95316e-09 -2.30146e-07)
(2.34477e-08 -2.75553e-08 -1.72995e-07)
(-0.000819154 -0.000376833 -0.000451305)
(-0.00175442 0.000301499 -0.00139423)
(-0.000971833 -8.41642e-05 0.000288682)
(-0.000659914 0.000165959 -0.000928371)
(-3.1576e-09 -6.73706e-08 -1.31636e-07)
(-1.45012e-07 3.18735e-08 5.14837e-09)
(1.47337e-08 -3.07626e-08 -3.96797e-08)
(1.17351e-09 -3.25729e-08 -1.29384e-07)
(-0.00108623 -0.000380928 -2.68418e-05)
(-0.00213505 -0.000358697 0.00136449)
(-0.00108107 -9.68815e-05 -0.00028219)
(-0.000994504 -0.000456362 0.000562435)
(4.40357e-08 1.43208e-08 1.55206e-08)
(-1.00737e-07 2.87343e-08 6.57919e-09)
(6.65412e-08 -3.41248e-08 5.14719e-08)
(6.95246e-08 -2.21223e-08 1.93457e-08)
(-1.42567e-08 -2.46609e-08 -6.30039e-08)
(-6.36971e-08 1.97767e-08 -5.42926e-09)
(-1.78153e-08 -1.10416e-09 -1.61086e-08)
(-2.02301e-08 -5.34226e-09 -6.29442e-08)
(2.68518e-08 5.76297e-09 1.54355e-08)
(-3.75581e-08 8.76277e-09 -3.45932e-09)
(3.54958e-08 -1.72372e-08 4.23219e-08)
(5.24344e-08 -1.80358e-08 1.88045e-08)
(-0.000664589 -0.000118626 -0.000241112)
(-0.00156887 0.000303014 -0.00132994)
(-0.000842132 -2.5166e-05 0.000304669)
(-0.000619625 0.000270531 -0.000677002)
(-0.000719828 -0.000197667 -8.93436e-05)
(-0.00170609 -0.000412819 0.00127609)
(-0.000854618 -1.30763e-05 -0.00023545)
(-0.000728986 -0.000317807 0.000482214)
(-0.00143319 -0.000658399 0.000775317)
(-0.00209742 0.000170077 0.00153866)
(-0.00129101 -5.29579e-05 -0.000443204)
(-0.000766011 0.000109787 0.0013788)
(-0.00119204 -0.000403244 0.000179347)
(-0.00243775 -0.000320434 -0.00102509)
(-0.00119944 -1.04552e-05 0.000173836)
(-0.00118771 -0.000397589 -0.000549281)
(-0.000299079 -7.98874e-05 0.000230016)
(-0.000269003 -4.37136e-06 2.8168e-05)
(-0.000601252 2.24526e-05 0.000293729)
(-0.000238781 -1.06287e-05 0.000325285)
(-0.000310798 7.28505e-06 -0.000218982)
(-0.000294718 2.59451e-05 -6.27355e-05)
(-0.000660528 -3.81737e-05 -0.000280805)
(-0.000249506 2.21303e-05 -0.000298389)
(-3.9863e-07 1.24008e-07 -5.26943e-09)
(-2.10374e-07 8.82991e-08 -2.54043e-07)
(-4.05391e-08 2.16961e-08 -1.27244e-07)
(-4.13806e-07 8.5465e-08 -1.35084e-07)
(3.5031e-07 -2.25832e-07 -2.89266e-07)
(5.06646e-07 -6.72083e-08 -4.68189e-07)
(4.91988e-07 -1.09465e-07 -2.62797e-07)
(2.44519e-07 -4.39627e-08 -3.88474e-07)
(-0.000362998 -0.000111377 0.000295168)
(-0.00060828 -1.75787e-06 0.000344246)
(-0.000354011 -4.74324e-05 3.29991e-05)
(-0.000286053 -6.11292e-05 0.000375981)
(-4.67101e-07 1.40882e-07 -1.03005e-07)
(5.06563e-08 2.37018e-08 -1.07525e-08)
(-2.82669e-09 2.79623e-08 -1.26574e-08)
(-3.7949e-07 1.04217e-07 -9.11389e-08)
(4.19941e-07 -2.78627e-07 6.60832e-07)
(4.17232e-07 -6.08267e-08 3.70227e-07)
(4.91412e-07 -4.52136e-08 5.16154e-07)
(1.16525e-07 -6.63118e-08 7.80687e-07)
(-1.22577e-07 -5.48782e-08 -7.95134e-08)
(-8.68623e-08 -3.15774e-08 2.6092e-08)
(-2.61411e-07 6.96783e-08 1.1074e-07)
(-1.48167e-07 -4.57732e-08 -6.39928e-08)
(-9.91823e-05 -8.01986e-06 -9.09139e-05)
(-0.000227037 -5.46767e-06 -0.000113468)
(-9.24515e-05 -1.57391e-06 -2.76788e-05)
(-9.16501e-05 -6.54556e-07 -0.000118844)
(-6.94795e-05 -1.76243e-05 2.05386e-05)
(-3.74067e-05 -3.52182e-06 1.29438e-06)
(-0.000126213 -1.93222e-05 3.88665e-05)
(-4.03311e-05 -4.21142e-06 3.50476e-05)
(-2.99315e-06 -8.86082e-09 -1.77366e-06)
(-1.63035e-06 3.76479e-07 -9.35719e-07)
(-4.57575e-06 -1.62845e-07 -2.88591e-06)
(-2.19243e-06 2.06053e-07 -2.01552e-06)
(-3.24721e-07 -1.87988e-08 -4.10714e-07)
(1.494e-07 -1.1772e-07 -2.28071e-07)
(2.36153e-07 -5.29569e-08 -3.68391e-07)
(-3.24107e-07 4.01456e-08 -4.69936e-07)
(-2.16936e-07 7.67221e-08 -1.42841e-07)
(-6.59976e-08 -1.4268e-08 -3.38081e-08)
(-2.19003e-07 4.07411e-08 2.41551e-08)
(-1.79113e-07 5.71091e-08 -1.26749e-07)
(-4.00734e-05 -1.22348e-05 2.71759e-05)
(-8.603e-05 -1.43141e-06 2.16198e-05)
(-3.74806e-05 -5.96804e-06 5.69726e-06)
(-3.35747e-05 -7.24123e-06 3.5279e-05)
(-9.99363e-08 1.59507e-08 5.37999e-08)
(-4.87382e-07 -1.12687e-07 2.40036e-07)
(-1.25807e-06 1.07361e-07 -1.80618e-07)
(-5.47878e-07 4.01029e-08 9.53205e-08)
(-3.38086e-08 1.27706e-07 2.38021e-07)
(1.63993e-07 9.04556e-08 -2.01428e-08)
(6.07232e-07 -8.34008e-08 3.23863e-07)
(-1.539e-07 1.2622e-07 2.51308e-07)
(-4.91404e-07 2.18666e-08 8.09688e-08)
(-5.09897e-07 9.42179e-08 1.13566e-07)
(-3.73534e-07 3.46262e-08 2.83042e-09)
(-6.66692e-07 8.62422e-08 1.11638e-07)
(2.66569e-07 -5.38661e-08 3.86883e-07)
(-1.81787e-07 -2.47086e-09 -4.60488e-07)
(-4.11185e-07 -1.06246e-07 -1.32306e-07)
(-4.52941e-07 3.76681e-08 -5.31011e-08)
(-7.40898e-06 1.4971e-07 -4.94764e-06)
(-6.26048e-06 -9.5248e-08 -1.0266e-06)
(-1.43812e-05 -1.57645e-06 -4.63493e-06)
(-6.30176e-06 3.67166e-07 -5.56895e-06)
(2.61914e-07 -1.34857e-07 2.68456e-07)
(3.15995e-07 -1.08696e-07 4.5097e-08)
(3.78089e-07 -1.45358e-07 2.19641e-08)
(1.30384e-07 -8.81234e-08 1.99872e-07)
(2.44167e-07 -8.67974e-08 -3.07903e-07)
(6.74311e-07 -1.96036e-07 -3.51961e-07)
(5.72853e-07 -1.22024e-07 -1.77943e-07)
(1.41638e-07 -9.59923e-09 -2.99983e-07)
(-1.68578e-06 -3.11992e-07 -1.04508e-06)
(-1.03371e-06 -7.34731e-08 -7.48527e-08)
(-4.10088e-06 8.25978e-08 -2.35018e-06)
(-1.44283e-06 -2.02288e-07 -1.69092e-06)
(3.62474e-07 -2.45263e-07 1.95588e-07)
(1.23554e-07 -1.91587e-07 5.57758e-07)
(4.28384e-07 -2.07191e-07 6.97738e-08)
(1.64319e-07 -1.8526e-07 1.28916e-07)
(1.81837e-07 -1.83001e-07 2.86711e-07)
(4.85771e-07 -1.42213e-07 1.81171e-07)
(5.57948e-07 -1.83513e-07 -4.83025e-09)
(3.58775e-07 -1.17994e-07 1.44896e-07)
(-4.37591e-08 9.83502e-09 -3.00308e-08)
(-2.95104e-07 4.81323e-08 -2.91469e-08)
(-8.72455e-08 1.35328e-08 1.4043e-08)
(-3.66722e-08 -3.18169e-08 -9.60544e-09)
(7.939e-07 -2.9003e-07 -2.35323e-07)
(1.07165e-06 -3.65679e-07 -1.32736e-07)
(1.25757e-06 -4.80746e-07 2.85218e-08)
(2.72932e-07 -1.34742e-07 -9.84694e-08)
(-5.53007e-08 1.3924e-07 -2.10166e-07)
(3.65592e-08 4.00536e-08 -2.40384e-08)
(-4.16685e-08 5.9876e-08 -2.81754e-08)
(-8.85492e-08 8.81029e-08 -1.61249e-07)
(2.22344e-07 -5.02635e-08 -2.63351e-07)
(8.1385e-07 -2.08645e-07 -1.9703e-07)
(7.80258e-07 -1.44455e-07 -9.37572e-09)
(6.60847e-08 8.67787e-09 -2.44192e-07)
(1.18091e-08 -2.11337e-08 1.67301e-07)
(-1.58614e-08 4.50529e-08 -1.43396e-08)
(6.57292e-08 -5.50495e-08 3.9853e-07)
(-4.04243e-07 1.01343e-07 2.36042e-07)
(-1.07154e-07 2.70003e-08 -2.24107e-08)
(-1.32139e-07 2.79527e-08 -4.42607e-09)
(-8.85645e-08 2.77543e-08 -1.02714e-08)
(-8.33569e-08 1.68413e-08 -2.8418e-08)
(-2.63889e-07 7.52206e-10 1.77626e-07)
(-4.82245e-07 1.52993e-07 8.4811e-08)
(-4.53646e-07 7.69105e-08 7.82681e-08)
(-6.77403e-07 1.45474e-07 1.64177e-07)
(-5.64221e-06 -1.46133e-06 4.26795e-06)
(-5.05622e-06 -8.47583e-07 1.33897e-06)
(-1.23969e-05 -7.77823e-07 5.15488e-06)
(-5.02131e-06 -1.02614e-06 5.41279e-06)
(-3.77497e-07 -1.4168e-07 -2.66828e-07)
(-2.09576e-07 -7.11911e-08 -2.96573e-07)
(-1.16359e-07 -1.51826e-07 -2.36098e-07)
(-3.04496e-07 -1.1433e-07 -2.91387e-07)
(-9.99111e-07 -6.98747e-08 -9.52699e-07)
(-2.89776e-06 -6.826e-07 -1.02102e-06)
(-1.19567e-06 -1.98733e-07 -5.23686e-07)
(-1.02539e-06 -1.20853e-07 -1.16702e-06)
(-1.13811e-07 1.48396e-11 1.69606e-09)
(-5.58043e-08 -5.70735e-08 -9.85859e-08)
(-5.28736e-07 7.65829e-08 7.98796e-08)
(-4.96955e-07 7.76253e-08 -3.849e-09)
(-1.1607e-07 1.16081e-08 -1.27018e-07)
(-2.33872e-08 -4.76585e-08 -1.6012e-07)
(-1.06428e-07 -3.55061e-08 -1.62611e-07)
(-5.36447e-08 -3.62569e-08 -1.50193e-07)
(-5.73434e-08 1.5346e-08 1.69568e-08)
(-7.73996e-09 2.1561e-08 -2.08928e-09)
(-2.39212e-08 5.93899e-10 3.4064e-09)
(-7.11326e-08 1.71631e-08 3.60051e-09)
(5.67437e-08 -2.78104e-08 4.06731e-08)
(1.12633e-07 -1.25534e-08 2.27533e-08)
(8.97453e-08 -3.53787e-08 6.26614e-09)
(1.08445e-07 -4.64229e-08 2.28047e-08)
(3.41419e-07 -1.09856e-07 -1.80186e-08)
(5.17487e-07 -9.02202e-08 7.00895e-09)
(5.29185e-07 -2.09994e-07 7.2773e-08)
(2.67235e-07 -6.9464e-08 -1.89585e-09)
(2.98939e-07 -6.60933e-08 2.60165e-07)
(3.59389e-07 1.287e-08 2.82628e-07)
(2.27486e-07 -1.60663e-08 2.1472e-07)
(2.55443e-07 -1.6041e-08 3.53155e-07)
(-9.56393e-08 -2.39062e-08 1.06056e-07)
(2.24674e-07 -6.37129e-08 -6.41979e-10)
(2.2922e-07 -1.31178e-07 2.86941e-08)
(1.59876e-07 -1.01996e-07 1.66916e-08)
(7.6351e-07 -2.29522e-07 -1.59355e-07)
(7.01244e-07 -2.83253e-07 -1.11549e-07)
(8.93419e-07 -2.71583e-07 -7.5598e-08)
(3.62811e-07 -1.05949e-07 -9.71417e-08)
(4.6075e-07 -1.46718e-07 2.23691e-07)
(4.30906e-07 -1.6829e-07 8.32595e-08)
(7.62298e-07 -3.08897e-07 5.34346e-08)
(1.69317e-07 -7.17461e-08 1.38743e-07)
(1.00881e-07 -5.91804e-08 3.48881e-09)
(7.98345e-08 -3.26783e-08 4.36117e-09)
(1.56939e-07 -4.17086e-08 1.92106e-08)
(-5.08469e-10 7.30427e-09 -1.67327e-09)
(1.55623e-09 9.79651e-10 4.28759e-09)
(-1.13352e-08 1.36423e-09 2.36041e-10)
(-9.02214e-10 6.22944e-09 -1.07782e-09)
(-1.74355e-09 3.06977e-10 -2.56062e-09)
(-1.46042e-08 -9.63391e-10 -6.22817e-09)
(-8.58077e-09 6.20931e-09 -1.26726e-08)
(-5.36835e-09 5.68334e-09 -1.55112e-08)
(-8.50654e-08 -2.80177e-08 1.85833e-08)
(-1.84879e-08 -2.64062e-08 3.16129e-08)
(-6.98486e-08 -6.74781e-09 2.88358e-08)
(-6.78456e-08 1.42557e-08 -2.74861e-08)
(-2.11967e-08 -8.84483e-08 -9.36981e-08)
(-1.91606e-07 5.00455e-09 4.31146e-08)
(-3.03151e-07 4.86643e-08 2.53968e-08)
(2.44035e-07 -2.23936e-07 1.38547e-07)
(2.57682e-07 -1.01372e-07 1.91256e-08)
(3.3041e-07 -2.0154e-07 -7.15446e-08)
(1.72839e-07 -1.33922e-07 1.25735e-07)