/*--------------------------------*- C++ -*----------------------------------*\
  =========                 |
  \\      /  F ield         | OpenFOAM: The Open Source CFD Toolbox
   \\    /   O peration     | Website:  https://openfoam.org
    \\  /    A nd           | Version:  6
     \\/     M anipulation  |
\*---------------------------------------------------------------------------*/
FoamFile
{
    version     2.0;
    format      ascii;
    class       surfaceVectorField;
    location    "1.56";
    object      Uf;
}
// * * * * * * * * * * * * * * * * * * * * * * * * * * * * * * * * * * * * * //

dimensions      [0 1 -1 0 0 0 0];

internalField   nonuniform List<vector> 
1540
(
(-66.6907 -10.5124 0)
(-180.083 1.39555 0)
(101.505 -6.29918 0)
(34.1627 -10.9573 0)
(99.1717 -3.84696 0)
(47.5944 0.151978 0)
(91.9507 -3.01865 0)
(61.059 0.470418 0)
(84.0739 -1.40738 0)
(62.3099 0.513145 0)
(75.148 -0.614791 0)
(57.6178 0.581489 0)
(67.7797 0.718917 0)
(44.734 0.480014 0)
(59.1728 1.84967 0)
(45.3026 0.560707 0)
(50.1188 2.68827 0)
(35.5137 0.589837 0)
(40.6897 3.46527 0)
(33.4069 0.614269 0)
(31.0343 2.89994 0)
(18.1266 0.603461 0)
(23.5445 2.91997 0)
(20.0422 0.468112 0)
(17.469 1.55775 0)
(11.2343 0.379719 0)
(14.9823 1.20309 0)
(16.8212 0.155418 0)
(13.4993 0.735908 0)
(12.0234 0.092691 0)
(8.63259 0.880802 0)
(16.4136 0.304167 0)
(8.97094 0.850868 0)
(6.70159 -0.0211466 0)
(2.81774 1.01702 0)
(12.9783 0.384575 0)
(-0.277373 1.20109 0)
(-2.19613 0.193445 0)
(7.09769 -0.0173358 0)
(-64.0721 -12.3644 0)
(-86.581 5.64521 0)
(-29.2793 -6.17765 0)
(11.2292 -13.2239 0)
(15.2026 2.98694 0)
(-14.4682 -2.74585 0)
(31.8893 2.00536 0)
(11.1693 -0.616649 0)
(34.1251 1.29094 0)
(29.0895 0.367486 0)
(28.4576 0.620682 0)
(29.6142 0.950706 0)
(22.1339 -0.839372 0)
(23.5911 0.891979 0)
(22.375 -1.34291 0)
(24.6898 0.545002 0)
(18.9741 -1.41362 0)
(18.94 0.811391 0)
(9.12069 -1.10518 0)
(21.3725 1.25618 0)
(5.61209 -1.21781 0)
(8.69463 0.822748 0)
(10.0024 -1.17939 0)
(7.73878 0.193717 0)
(10.8906 -0.0890064 0)
(1.76003 0.324206 0)
(15.6561 -0.529585 0)
(14.2059 -0.142422 0)
(14.4498 0.168679 0)
(9.75672 0.168085 0)
(15.0396 -0.386657 0)
(16.2706 0.267305 0)
(12.9572 -0.193142 0)
(4.75747 0.108999 0)
(4.49846 -0.11821 0)
(14.2348 0.913248 0)
(1.44693 -1.53088 0)
(2.83846 0.384165 0)
(6.47186 0.0730975 0)
(-0.783249 6.83947 0)
(-74.2552 5.77186 0)
(15.3186 -8.72655 0)
(15.3417 -14.2729 0)
(-9.96998 -5.26426 0)
(-14.8696 -1.0984 0)
(9.39462 -0.433001 0)
(-6.58357 -1.87817 0)
(21.8145 0.988316 0)
(8.66385 -0.441625 0)
(26.4521 2.14312 0)
(22.5714 0.64859 0)
(26.0634 3.43911 0)
(6.49703 0.917299 0)
(22.2825 3.18019 0)
(25.0648 0.791312 0)
(21.543 3.09195 0)
(7.74306 0.859568 0)
(19.2636 1.92478 0)
(16.347 1.40468 0)
(9.64878 1.82482 0)
(18.4276 1.42367 0)
(1.66936 1.03722 0)
(7.86406 0.692432 0)
(5.49194 -0.850314 0)
(7.32722 0.0852936 0)
(10.2709 -0.329041 0)
(14.0339 -0.441104 0)
(10.8389 -0.118866 0)
(9.69297 0.132585 0)
(6.54632 0.41113 0)
(13.9509 0.535589 0)
(8.16035 0.696572 0)
(5.31044 0.00812219 0)
(9.11379 1.24612 0)
(11.243 0.853658 0)
(4.14649 2.28733 0)
(7.30313 0.694622 0)
(5.95709 0.332253 0)
(-49.3168 -13.2432 0)
(-58.05 9.06026 0)
(-25.2836 -7.62694 0)
(7.13853 -15.8385 0)
(-2.83757 1.723 0)
(-22.0022 -2.56067 0)
(-5.17274 -2.33768 0)
(-8.43444 -1.72604 0)
(4.83568 -0.586065 0)
(2.24654 -1.09364 0)
(5.25992 -1.08569 0)
(13.9501 0.620957 0)
(5.42291 -2.42013 0)
(1.87559 0.90668 0)
(12.1594 -1.0276 0)
(12.686 0.352458 0)
(2.39052 0.0545036 0)
(7.76388 1.49597 0)
(13.971 1.34079 0)
(7.15522 0.650254 0)
(15.901 0.580101 0)
(15.5505 1.30305 0)
(15.1185 0.54931 0)
(13.1184 0.741338 0)
(16.3169 1.2787 0)
(8.1575 0.010389 0)
(15.5538 0.209038 0)
(8.16499 -0.393406 0)
(11.7289 0.42313 0)
(9.47811 0.371637 0)
(13.3506 0.424986 0)
(8.85251 0.434236 0)
(10.5227 0.492333 0)
(4.99888 0.184865 0)
(5.77542 0.0546424 0)
(10.1434 1.15036 0)
(5.41842 -0.786775 0)
(4.81765 0.716934 0)
(7.26896 0.670904 0)
(5.58443 4.98368 0)
(-49.6199 8.77208 0)
(0.517703 -9.71407 0)
(9.23089 -15.5084 0)
(-19.8048 -5.32138 0)
(-18.687 -1.23674 0)
(1.8016 -0.424889 0)
(-13.8773 -3.13361 0)
(5.18505 -0.181842 0)
(3.24664 -1.31406 0)
(14.0237 3.07296 0)
(3.00921 0.045159 0)
(8.67314 4.09315 0)
(2.49708 1.25525 0)
(10.6321 2.01893 0)
(5.05162 0.224843 0)
(11.8499 1.37318 0)
(3.77337 1.41664 0)
(5.98786 1.06092 0)
(9.69467 1.03214 0)
(12.4989 1.32029 0)
(0.890296 0.896111 0)
(7.44841 -0.109399 0)
(5.30165 1.057 0)
(0.350296 -1.69607 0)
(5.17744 0.45402 0)
(4.47918 -0.183809 0)
(6.96334 -0.651462 0)
(5.33444 0.512056 0)
(4.99114 0.318184 0)
(1.03656 -0.431982 0)
(6.70769 0.702853 0)
(7.0549 0.439562 0)
(1.28995 -0.191282 0)
(5.26222 2.01067 0)
(8.46834 1.26241 0)
(3.15803 1.76677 0)
(3.97212 0.848446 0)
(5.59339 0.868281 0)
(-39.4855 -10.8563 0)
(-38.8864 11.42 0)
(-19.7243 -7.97804 0)
(4.64605 -16.7958 0)
(-5.52929 0.636845 0)
(-16.2673 -2.16149 0)
(-10.4292 -3.70527 0)
(-13.5588 -2.8144 0)
(-4.19895 -1.24907 0)
(2.53897 -1.71994 0)
(-5.51314 -2.19416 0)
(-5.32793 0.130778 0)
(-1.76158 -2.70554 0)
(-0.329697 1.01085 0)
(0.678257 -0.130431 0)
(3.86448 0.0658993 0)
(0.79175 1.58225 0)
(1.1456 1.40924 0)
(1.64773 0.871587 0)
(5.77698 0.976378 0)
(-6.37335 0.946326 0)
(5.86561 1.39743 0)
(4.44075 1.57762 0)
(-2.4866 0.381116 0)
(11.6744 1.23723 0)
(7.11225 0.00191344 0)
(10.2729 0.0549062 0)
(2.44621 -0.563865 0)
(4.8919 0.610605 0)
(3.72882 0.654498 0)
(7.60177 1.38384 0)
(7.16464 0.533486 0)
(4.98267 0.85453 0)
(1.48 -0.0275876 0)
(3.31299 -0.231685 0)
(5.98368 1.36676 0)
(3.29672 -0.108914 0)
(-0.8744 0.849463 0)
(5.59751 1.07433 0)
(10.9939 4.4037 0)
(-29.3469 10.7794 0)
(-1.70646 -10.0791 0)
(7.05227 -15.9684 0)
(-16.9027 -5.42272 0)
(-15.9719 -1.17152 0)
(0.918412 -0.933165 0)
(-13.0738 -3.97537 0)
(-3.55135 -0.223226 0)
(-0.0674479 -1.42876 0)
(3.08405 3.26145 0)
(-6.64547 -0.301488 0)
(4.61904 3.80323 0)
(-2.51465 0.910846 0)
(6.92139 1.78203 0)
(2.14131 -0.0840879 0)
(5.23765 0.766395 0)
(-1.77173 1.51893 0)
(7.34829 1.19129 0)
(5.47141 0.838878 0)
(9.41298 0.415939 0)
(6.48995 1.26839 0)
(1.80491 -1.1179 0)
(2.79812 0.856621 0)
(-2.56963 -1.2191 0)
(4.86074 0.275321 0)
(-1.07555 -0.0116447 0)
(-1.56568 -0.657245 0)
(4.07883 0.365584 0)
(5.04764 0.33235 0)
(1.98704 -0.432483 0)
(6.7758 0.664222 0)
(4.50489 1.15539 0)
(2.82832 -0.184953 0)
(-1.71997 2.99167 0)
(6.82711 1.75581 0)
(-1.21145 2.33787 0)
(-0.962689 0.817681 0)
(3.96234 0.998611 0)
(-27.8961 -8.34405 0)
(-20.1747 12.6724 0)
(-16.9441 -7.72837 0)
(3.52503 -16.6819 0)
(-4.84826 0.20007 0)
(-7.3546 -1.95952 0)
(-12.8087 -4.27952 0)
(-13.8337 -3.45678 0)
(-7.59658 -1.5221 0)
(0.503674 -1.76831 0)
(-9.47371 -2.23406 0)
(-10.4594 -0.179196 0)
(-5.60561 -2.54449 0)
(-2.20137 0.658854 0)
(-4.12517 -0.463844 0)
(0.73841 -0.18053 0)
(-2.51712 1.01779 0)
(-1.72379 1.41418 0)
(2.09796 0.916873 0)
(4.03008 0.538222 0)
(-0.943654 2.21316 0)
(8.35561 1.45849 0)
(7.36118 2.09456 0)
(-11.6806 0.337571 0)
(5.79325 0.3098 0)
(9.97393 0.373315 0)
(7.61902 -0.0966597 0)
(-2.39713 -0.771356 0)
(5.41664 0.535908 0)
(5.01874 0.469999 0)
(8.5167 -0.156659 0)
(8.63552 0.470469 0)
(6.98488 -0.33903 0)
(6.19255 -0.0892148 0)
(4.83899 -0.732865 0)
(8.14858 1.88993 0)
(2.0467 -0.518469 0)
(-0.0414778 0.992199 0)
(3.04961 1.12653 0)
(16.2654 3.16198 0)
(-12.4342 11.6883 0)
(3.34743 -10.3692 0)
(7.29022 -15.8404 0)
(-8.93216 -5.55221 0)
(-10.0458 -1.15955 0)
(0.493156 -1.04924 0)
(-10.9048 -4.0708 0)
(-6.12118 -0.00175289 0)
(-1.95444 -1.33741 0)
(-1.07059 2.73412 0)
(-9.77129 -0.508218 0)
(3.63058 2.83232 0)
(-2.8691 0.35259 0)
(5.45902 1.76483 0)
(1.89402 -0.299644 0)
(3.99745 0.886677 0)
(-1.95947 1.50939 0)
(8.19338 0.849768 0)
(2.4081 0.264873 0)
(-3.71478 -0.143372 0)
(3.97646 2.20275 0)
(-7.58045 -0.779297 0)
(-13.693 0.579176 0)
(2.11098 -0.18897 0)
(0.473836 -0.2324 0)
(-2.07738 -0.523858 0)
(-0.320187 -0.509583 0)
(5.7867 0.459767 0)
(4.31528 -0.0215054 0)
(7.25508 1.76202 0)
(10.4617 0.378695 0)
(9.03149 2.96116 0)
(5.8326 -0.200241 0)
(1.10256 3.69413 0)
(9.03367 2.38549 0)
(-0.948812 2.4174 0)
(1.03816 1.12041 0)
(1.33847 1.06723 0)
(-16.6162 -6.0681 0)
(-5.16376 12.8464 0)
(-15.5239 -6.88296 0)
(3.8988 -15.9115 0)
(-4.93135 0.339762 0)
(0.572818 -1.84962 0)
(-12.4464 -4.14745 0)
(-11.2681 -3.58122 0)
(-8.90766 -2.04126 0)
(1.39309 -1.56795 0)
(-10.0714 -2.95637 0)
(-9.93535 -0.432402 0)
(-5.01676 -3.03128 0)
(0.979642 0.0233009 0)
(-3.36325 -0.694837 0)
(0.589253 -0.407361 0)
(-4.38488 1.27135 0)
(0.602334 1.57595 0)
(-3.19444 1.70097 0)
(6.15862 0.187319 0)
(-7.47017 1.56677 0)
(2.77677 2.46998 0)
(-4.06188 -0.28818 0)
(2.1004 0.366159 0)
(-1.14962 -0.994199 0)
(-5.87248 -0.414418 0)
(8.65335 0.293036 0)
(0.287319 -1.12227 0)
(6.72486 -0.488474 0)
(3.04303 0.0990262 0)
(9.68087 -2.86148 0)
(5.75612 0.193945 0)
(7.73138 -1.404 0)
(1.41402 -0.0783979 0)
(7.13062 -0.236426 0)
(6.79583 2.42304 0)
(1.58497 -0.0341269 0)
(1.47581 1.46701 0)
(0.993895 1.16629 0)
(19.9015 1.91972 0)
(-1.19782 11.6256 0)
(10.8673 -10.7093 0)
(7.87159 -15.323 0)
(1.09886 -5.79904 0)
(-3.49147 -1.21325 0)
(3.39186 -1.12761 0)
(-7.18756 -3.7306 0)
(-2.32764 0.00813395 0)
(-1.46937 -1.19535 0)
(1.8203 2.22947 0)
(-6.53166 -0.70262 0)
(6.31823 2.76388 0)
(-1.04116 -0.269723 0)
(6.47495 1.54309 0)
(-0.62729 -0.417569 0)
(10.3392 0.0634608 0)
(-1.6273 1.32421 0)
(11.2155 0.874624 0)
(8.63508 0.130235 0)
(10.6729 2.39797 0)
(3.50989 2.50389 0)
(1.96373 1.87839 0)
(4.92987 0.910485 0)
(-3.07759 -0.101272 0)
(-7.81775 -0.0993369 0)
(-3.20301 -1.78565 0)
(-1.81355 -1.11443 0)
(-0.499125 1.412 0)
(3.72252 -0.0699662 0)
(-2.01701 3.58511 0)
(3.8721 0.288812 0)
(2.54177 3.33733 0)
(-5.93601 -0.363321 0)
(-0.489515 4.02319 0)
(3.80256 2.61249 0)
(-0.693747 2.46706 0)
(0.368527 1.47978 0)
(-0.212988 1.12293 0)
(-8.83402 -4.48882 0)
(2.88526 12.2767 0)
(-15.2232 -5.99186 0)
(3.42037 -14.9067 0)
(-5.24413 0.774976 0)
(2.21214 -1.86334 0)
(-11.263 -3.67028 0)
(-6.57938 -3.33849 0)
(-8.04503 -2.199 0)
(0.0528503 -1.40499 0)
(-9.28144 -3.07942 0)
(-5.9759 -0.622068 0)
(-8.13284 -3.36011 0)
(-1.52638 -0.34455 0)
(-6.94941 -0.15303 0)
(-3.93317 -0.494662 0)
(-4.12382 1.77658 0)
(1.12523 1.14013 0)
(0.0599506 1.72074 0)
(4.69436 -0.142323 0)
(-3.93963 0.258438 0)
(1.96986 2.75386 0)
(-3.45457 -2.6125 0)
(2.61913 0.88017 0)
(-5.01341 -1.92704 0)
(-1.49228 -0.00191028 0)
(6.70461 0.882212 0)
(-0.109768 -1.84681 0)
(5.20599 -1.38059 0)
(3.88845 0.0236985 0)
(0.647084 -3.84246 0)
(2.00566 0.573743 0)
(-2.57447 -0.907125 0)
(-6.03772 -0.161974 0)
(2.96967 0.00609936 0)
(-1.10273 2.26598 0)
(-0.695701 0.410328 0)
(1.63186 1.70886 0)
(0.236102 1.07945 0)
(19.3741 0.795811 0)
(4.45833 11.0901 0)
(13.1046 -10.8062 0)
(6.60485 -14.4983 0)
(6.49411 -5.76425 0)
(-4.46574 -1.4327 0)
(5.35051 -0.828258 0)
(-2.50727 -3.26399 0)
(0.107106 0.764866 0)
(-3.69789 -1.06341 0)
(1.62212 2.09535 0)
(-6.48679 -0.720762 0)
(2.49511 2.07987 0)
(-4.76174 -0.401423 0)
(5.98817 0.0433542 0)
(-5.13099 -0.72222 0)
(9.07861 -1.21301 0)
(-3.22672 0.938805 0)
(5.58698 0.800814 0)
(1.01483 0.0851432 0)
(6.865 3.84898 0)
(0.832927 2.67399 0)
(5.71614 4.31173 0)
(0.510611 0.951975 0)
(5.03821 0.595885 0)
(-5.16181 0.0404588 0)
(-1.87871 -2.22696 0)
(0.297703 -1.4145 0)
(-2.03021 1.70072 0)
(2.75716 0.0331678 0)
(-4.10618 3.53079 0)
(1.61039 0.703492 0)
(-2.36138 3.24295 0)
(-6.69457 -0.271025 0)
(-4.19966 4.27848 0)
(-3.42342 2.38088 0)
(0.94732 2.17504 0)
(2.57609 1.38718 0)
(0.0444717 1.13866 0)
(-4.21802 -3.08169 0)
(6.8347 11.4405 0)
(-17.8642 -4.96414 0)
(2.4253 -13.6093 0)
(-8.59472 0.973781 0)
(0.240537 -2.03657 0)
(-11.0874 -3.57653 0)
(-1.17135 -3.1016 0)
(-12.0169 -3.0023 0)
(3.3205 -1.00286 0)
(-13.0461 -3.58521 0)
(-4.21115 -0.653707 0)
(-12.5951 -3.2111 0)
(0.135204 -0.430803 0)
(-12.8908 0.917383 0)
(-5.91863 -0.702953 0)
(-11.7166 1.96065 0)
(0.0854642 0.862309 0)
(-4.78298 1.17596 0)
(-2.42212 -0.366554 0)
(-6.92987 -0.153392 0)
(0.718542 2.80817 0)
(-9.6372 -3.00313 0)
(-4.83858 1.12118 0)
(-8.15991 -1.9844 0)
(-1.53502 -0.0518732 0)
(5.67151 0.127999 0)
(-0.0180822 -2.27896 0)
(3.91428 -0.856075 0)
(3.51088 0.142995 0)
(-0.531174 -2.34289 0)
(0.391842 0.981333 0)
(-5.40003 -1.23394 0)
(-6.10163 0.0332789 0)
(1.34937 -0.674431 0)
(-5.01481 1.95904 0)
(-0.241645 0.558444 0)
(2.79441 1.48662 0)
(0.520204 1.12355 0)
(17.4405 -0.158983 0)
(7.82705 10.38 0)
(14.6147 -10.9887 0)
(4.69565 -13.4252 0)
(11.6548 -6.29525 0)
(-5.92255 -1.84375 0)
(13.4169 -0.857716 0)
(0.530888 -3.21639 0)
(9.67005 1.48737 0)
(-0.70282 -0.758766 0)
(8.88196 2.77777 0)
(-0.475147 -0.602362 0)
(6.50604 2.54117 0)
(1.13716 -0.276022 0)
(8.43935 -0.766956 0)
(-1.1574 -0.828899 0)
(8.95418 -0.96657 0)
(4.29128 0.828771 0)
(2.05866 1.85492 0)
(-1.05546 0.0826618 0)
(1.48388 3.51101 0)
(0.338174 2.84409 0)
(3.60462 3.31052 0)
(-6.98334 0.988639 0)
(8.49404 -0.338301 0)
(0.952804 -0.357463 0)
(-1.64113 -1.52367 0)
(0.196884 -1.64552 0)
(-2.16485 1.99145 0)
(0.829256 0.175729 0)
(-5.005 2.77193 0)
(-0.650421 1.15884 0)
(-3.2605 3.39054 0)
(-6.4157 -0.0757525 0)
(-5.8016 4.24715 0)
(-5.21454 2.11786 0)
(1.38782 1.84195 0)
(2.74941 1.03728 0)
(0.181032 1.21029 0)
(-1.08799 -1.83973 0)
(8.94014 10.5265 0)
(-20.954 -3.87487 0)
(2.35203 -12.131 0)
(-13.7132 1.22687 0)
(-4.53913 -2.31546 0)
(-13.6732 -3.16789 0)
(-0.767655 -3.219 0)
(-12.2222 -2.92248 0)
(-2.56819 -0.853298 0)
(-8.21113 -3.15666 0)
(-3.42269 -0.863661 0)
(-6.98451 -3.35278 0)
(-2.39134 -0.355932 0)
(-3.58471 0.394263 0)
(-0.985521 -1.05038 0)
(-6.29709 0.780714 0)
(-1.68767 1.00547 0)
(-3.76092 0.433518 0)
(-6.68195 -0.0825608 0)
(-9.31178 0.793674 0)
(-0.624031 3.19102 0)
(-9.77078 -2.01372 0)
(-7.70512 1.01733 0)
(-5.18925 -1.43255 0)
(-0.746393 -0.64381 0)
(3.06974 -0.619057 0)
(-1.06321 -2.1617 0)
(0.440462 -0.683456 0)
(0.380375 0.340059 0)
(-2.07392 -0.995244 0)
(-2.31472 1.31599 0)
(-5.84486 -1.39673 0)
(-5.38878 0.159931 0)
(0.95131 -1.45587 0)
(-4.58738 1.6931 0)
(-1.03267 0.393315 0)
(0.74184 1.16128 0)
(0.289244 1.14575 0)
(16.0971 -0.687801 0)
(9.36923 9.55342 0)
(14.1957 -10.8572 0)
(3.56467 -12.0071 0)
(11.3185 -6.64033 0)
(-4.72609 -2.12803 0)
(10.031 -1.0542 0)
(-0.944653 -3.13513 0)
(4.84753 1.28537 0)
(-1.57654 -0.515617 0)
(2.54846 1.66717 0)
(-4.72216 -0.713882 0)
(3.03057 1.51969 0)
(-2.9398 -0.387341 0)
(2.75275 -0.144403 0)
(-2.7756 -1.03228 0)
(-2.47182 1.09792 0)
(1.6786 1.34584 0)
(-4.59664 2.94553 0)
(-6.61085 0.0558625 0)
(-0.097776 2.85765 0)
(-1.08782 2.90984 0)
(0.72165 1.68218 0)
(-5.57718 0.966115 0)
(5.71273 -1.70194 0)
(1.2236 -0.955754 0)
(-3.4251 -0.688835 0)
(-0.617306 -1.59059 0)
(-4.04186 2.29411 0)
(0.0309779 0.378607 0)
(-5.72203 1.84792 0)
(-3.2613 1.421 0)
(-1.64857 3.2121 0)
(-5.17439 -0.0946603 0)
(-7.11682 4.54111 0)
(-5.73993 2.03486 0)
(-0.992474 1.93539 0)
(1.81656 0.778504 0)
(-0.52635 1.08372 0)
(0.450691 -0.921391 0)
(10.3037 9.59967 0)
(-19.4981 -3.14331 0)
(1.35535 -10.7076 0)
(-14.3992 1.07676 0)
(-5.93577 -2.4602 0)
(-13.1785 -2.32549 0)
(-2.85994 -3.21465 0)
(-12.4174 -2.42944 0)
(-2.27906 -0.565202 0)
(-10.1013 -2.6542 0)
(-6.07934 -0.864759 0)
(-9.24714 -2.85247 0)
(0.179554 -0.44299 0)
(-2.16244 0.0660722 0)
(-4.63729 -1.49382 0)
(-2.97259 0.266871 0)
(3.45809 1.39861 0)
(-3.86801 0.394913 0)
(-6.58075 0.114195 0)
(-7.85956 1.51133 0)
(-1.54523 3.15932 0)
(-5.73991 -1.26199 0)
(-2.19812 0.833638 0)
(-2.66182 -0.800112 0)
(-0.810592 -1.14814 0)
(3.10484 -0.859826 0)
(-2.07035 -1.951 0)
(-0.732041 -0.273487 0)
(-0.814818 0.618412 0)
(-2.81419 0.137476 0)
(-4.7614 1.55113 0)
(-6.92794 -1.1451 0)
(-3.60213 0.162449 0)
(1.20943 -2.02407 0)
(-4.9868 1.52628 0)
(-1.22727 -0.126554 0)
(0.472176 0.930798 0)
(-0.97615 1.00702 0)
(14.7483 -0.88514 0)
(10.815 8.71449 0)
(11.0932 -9.87381 0)
(2.89007 -10.4694 0)
(7.96996 -6.27113 0)
(-3.39081 -2.25674 0)
(7.06404 -1.36394 0)
(-3.38913 -3.15563 0)
(3.08865 1.00848 0)
(-1.86316 -0.306223 0)
(4.10049 0.943597 0)
(-6.88984 -0.930672 0)
(4.45545 0.916169 0)
(-2.0332 -0.466116 0)
(2.4133 -0.0608742 0)
(-6.93717 -1.36078 0)
(-0.84736 1.11399 0)
(4.37789 1.61103 0)
(-4.55527 2.65728 0)
(-3.09954 0.35575 0)
(2.75412 2.27483 0)
(-1.10951 2.70248 0)
(2.04861 0.883346 0)
(0.696836 0.877734 0)
(2.23498 -2.21967 0)
(0.949724 -1.15979 0)
(-5.75434 -0.268883 0)
(-2.54312 -1.45167 0)
(-6.36573 2.0482 0)
(0.145805 0.656624 0)
(-5.58115 0.8588 0)
(-5.2839 1.5021 0)
(0.501706 2.64814 0)
(-2.04208 -0.21773 0)
(-7.34031 4.74062 0)
(-5.35274 2.0164 0)
(-3.17696 2.11143 0)
(1.55722 0.670589 0)
(-2.28761 0.808456 0)
(2.43187 -0.252255 0)
(11.4427 8.63168 0)
(-15.1332 -3.07352 0)
(-0.110072 -9.32515 0)
(-12.5881 0.37674 0)
(-3.53727 -2.42255 0)
(-13.5312 -2.30283 0)
(-4.73659 -3.09418 0)
(-12.643 -2.49311 0)
(-2.96042 -0.364092 0)
(-13.2991 -2.05676 0)
(-7.12916 -0.887925 0)
(-13.5402 -2.6472 0)
(-1.10151 -0.450405 0)
(-3.82145 0.182838 0)
(-9.28631 -1.99392 0)
(1.55441 0.855714 0)
(7.28769 1.26082 0)
(0.24591 0.596726 0)
(2.3168 0.440993 0)
(-4.60929 1.70341 0)
(-2.91968 3.00593 0)
(-1.22256 -1.09706 0)
(2.34045 0.666065 0)
(-1.18437 -0.64115 0)
(-0.143823 -1.16217 0)
(3.60088 -0.712214 0)
(-3.97821 -1.75075 0)
(-0.355076 0.569373 0)
(-0.733165 0.903872 0)
(-1.58801 1.09757 0)
(-6.24648 1.57916 0)
(-6.10651 -0.542879 0)
(-0.788652 0.064677 0)
(2.41293 -2.08845 0)
(-4.44691 1.48394 0)
(-1.64911 -0.638841 0)
(0.426311 0.924466 0)
(-2.32374 0.705387 0)
(12.3518 -0.98036 0)
(11.5628 7.90262 0)
(8.24612 -8.42313 0)
(1.86868 -9.05768 0)
(6.26225 -5.30916 0)
(-2.92971 -2.29331 0)
(4.44977 -0.797582 0)
(-4.08439 -2.97611 0)
(1.78404 1.41889 0)
(-2.18723 -0.190434 0)
(4.52436 0.303201 0)
(-5.64714 -1.06644 0)
(3.34493 -0.107891 0)
(0.245902 -0.37357 0)
(2.69095 -0.682822 0)
(-10.8911 -1.95131 0)
(8.12007 1.36985 0)
(9.80724 0.907133 0)
(-0.850792 2.83595 0)
(5.55414 1.02541 0)
(2.61435 1.75323 0)
(-1.34162 2.78936 0)
(2.42462 0.764695 0)
(3.52414 0.677925 0)
(-0.0439123 -1.86257 0)
(0.143439 -1.00789 0)
(-8.10639 0.0893241 0)
(-4.36332 -1.24684 0)
(-8.20706 1.46102 0)
(0.0931337 0.910165 0)
(-5.15876 -0.157265 0)
(-5.99426 1.38864 0)
(2.26905 1.72982 0)
(-0.15264 -0.399561 0)
(-7.09818 4.394 0)
(-3.84003 2.06939 0)
(-4.48558 2.14815 0)
(0.287317 0.761179 0)
(-1.83393 0.425038 0)
(4.49579 0.30258 0)
(11.447 7.68535 0)
(-12.2905 -3.11124 0)
(-0.0809963 -7.96412 0)
(-11.5098 -0.529703 0)
(-0.741553 -2.34418 0)
(-12.1736 -2.70888 0)
(-4.5939 -2.93286 0)
(-10.3435 -2.84637 0)
(-3.08691 -0.309659 0)
(-10.5755 -1.18852 0)
(-4.96261 -1.05133 0)
(-13.6012 -2.19173 0)
(-4.40837 -0.176456 0)
(-3.12577 -1.20988 0)
(-12.2628 -2.63375 0)
(8.37996 0.215049 0)
(-7.87604 0.157581 0)
(5.00692 1.19755 0)
(9.62148 1.24515 0)
(-1.82258 1.7877 0)
(1.46807 3.2162 0)
(0.0331871 -1.34706 0)
(4.41761 0.56194 0)
(-0.953822 -0.812806 0)
(-1.44742 -0.946205 0)
(4.06358 -0.807956 0)
(-4.37704 -1.56043 0)
(0.587673 1.19056 0)
(0.542824 1.12741 0)
(-0.460952 1.83507 0)
(-6.37396 1.45418 0)
(-5.40722 0.360796 0)
(-0.105377 -0.0904196 0)
(3.28623 -1.38985 0)
(-2.87996 1.52605 0)
(-1.37691 -0.901192 0)
(0.421542 1.05263 0)
(-0.103042 0.338981 0)
(10.285 -1.07228 0)
(11.0522 7.09094 0)
(8.76665 -7.15109 0)
(2.16975 -7.8652 0)
(7.73313 -4.20387 0)
(-2.81116 -2.27685 0)
(3.00635 -0.110375 0)
(-2.91945 -2.62492 0)
(1.36448 1.88592 0)
(-4.67091 -0.202701 0)
(0.889007 -0.545716 0)
(-4.39887 -1.02035 0)
(-2.82211 -0.741201 0)
(-0.448445 0.0653077 0)
(-16.461 -0.355864 0)
(-10.8103 -1.74523 0)
(-4.62577 0.989514 0)
(-19.0222 -0.613438 0)
(5.74669 2.36948 0)
(9.17334 0.569423 0)
(6.29033 1.93095 0)
(3.19754 3.18223 0)
(1.6664 1.45058 0)
(4.8361 0.850937 0)
(-1.42336 -1.078 0)
(-2.87024 -0.753097 0)
(-7.71076 0.746913 0)
(-3.63948 -1.16747 0)
(-8.07933 1.08886 0)
(-2.81999 1.15045 0)
(-5.36265 -0.974874 0)
(-5.62227 1.28438 0)
(2.81967 0.855574 0)
(-0.288337 -0.601815 0)
(-5.69278 3.72479 0)
(-0.673631 2.05808 0)
(-2.71111 2.01823 0)
(-0.842998 0.866271 0)
(1.05466 0.169537 0)
(6.3422 0.701457 0)
(10.5631 6.75338 0)
(-11.9113 -2.9767 0)
(1.99063 -6.67606 0)
(-12.0439 -1.23878 0)
(-3.51566 -2.26821 0)
(-12.033 -2.90735 0)
(-3.01806 -2.62563 0)
(-11.4166 -2.97426 0)
(-6.67077 -0.242862 0)
(-5.70636 0.310619 0)
(-5.67119 -1.39234 0)
(-8.52063 -0.611815 0)
(-0.268643 0.248645 0)
(-12.8594 -2.18392 0)
(-4.63716 -1.46257 0)
(-2.7099 -0.75709 0)
(-16.0443 -1.27464 0)
(5.95773 1.65786 0)
(2.07205 0.00476065 0)
(0.259439 2.28067 0)
(3.22717 3.53837 0)
(-0.856587 -1.50229 0)
(3.07831 0.92069 0)
(-1.51134 -1.25683 0)
(-4.23809 -0.712176 0)
(1.44276 -0.869015 0)
(-3.22072 -1.3521 0)
(-2.01403 1.68809 0)
(2.91506 1.36649 0)
(0.373609 1.95472 0)
(-6.81271 1.13516 0)
(-3.78498 0.663133 0)
(-1.51049 -0.341903 0)
(4.39584 -0.594372 0)
(-0.927526 1.54678 0)
(-1.47458 -0.680758 0)
(0.0511006 1.23317 0)
(2.19031 0.0773756 0)
(9.68425 -0.978937 0)
(9.87923 6.19811 0)
(8.0384 -5.95853 0)
(3.92107 -6.56884 0)
(6.88486 -3.05723 0)
(-1.48039 -2.19306 0)
(0.59779 -0.108004 0)
(-3.17634 -2.21605 0)
(-1.85409 0.772973 0)
(-3.24759 -0.0831343 0)
(0.0221271 -2.34322 0)
(-5.83103 -1.51457 0)
(2.85893 -0.79031 0)
(-2.19643 0.0638373 0)
(-7.03288 -0.131073 0)
(-3.32091 -0.818155 0)
(-9.28531 -0.479671 0)
(-11.5638 -1.1279 0)
(-1.42411 1.76555 0)
(-6.19782 -0.507367 0)
(4.49845 2.02977 0)
(0.718898 3.16821 0)
(-1.35904 1.89696 0)
(2.38452 1.28679 0)
(-2.34011 -0.613687 0)
(-6.18658 -0.650861 0)
(-1.54117 0.513232 0)
(-5.18939 -1.40203 0)
(-3.53719 0.417448 0)
(-6.10054 1.49125 0)
(-7.62606 -1.13457 0)
(-7.01955 1.39071 0)
(0.999239 0.571393 0)
(-3.54098 -0.880984 0)
(-4.96948 3.18176 0)
(2.1582 1.91982 0)
(-0.624568 1.68349 0)
(-2.02055 0.961616 0)
(3.29693 0.0383401 0)
(7.68616 0.918387 0)
(9.16079 5.773 0)
(-7.8213 -2.67492 0)
(4.14139 -5.55859 0)
(-10.2942 -1.70636 0)
(0.396855 -2.03197 0)
(-8.86917 -1.7923 0)
(-0.845367 -2.30888 0)
(-7.97899 -1.97077 0)
(1.47535 -0.141129 0)
(-7.85464 1.50308 0)
(-3.79282 -1.52267 0)
(-10.3239 0.810454 0)
(2.54355 0.224698 0)
(-6.22277 -2.00409 0)
(-1.36954 -1.08532 0)
(-6.90551 -1.15225 0)
(-10.3816 -1.08342 0)
(-4.86218 1.18673 0)
(-9.30969 -0.640482 0)
(-2.79736 2.61381 0)
(-2.01865 3.03916 0)
(-3.46886 -1.44669 0)
(0.692971 1.32876 0)
(-5.58353 -1.50551 0)
(-6.53925 -0.518695 0)
(-9.63276 0.0395962 0)
(-6.68352 -1.14896 0)
(-10.7935 2.49328 0)
(-3.73263 1.56379 0)
(-1.79239 1.52936 0)
(-4.84056 0.828145 0)
(-2.74757 0.435945 0)
(-5.99117 -0.821286 0)
(5.36658 -0.214294 0)
(0.0805642 1.41269 0)
(-2.18699 -0.310489 0)
(-0.956244 1.43371 0)
(4.00157 -0.0983465 0)
(9.2726 -1.02318 0)
(8.19663 5.24454 0)
(10.3758 -5.26284 0)
(3.93215 -5.63045 0)
(10.8229 -2.61843 0)
(0.937769 -2.0611 0)
(7.57849 -1.02167 0)
(-0.324968 -2.09752 0)
(5.16869 0.0992498 0)
(2.1264 0.0158562 0)
(6.61865 -3.34055 0)
(-1.76128 -1.61712 0)
(9.0457 -3.02009 0)
(3.03596 0.0665838 0)
(-3.68002 -0.307802 0)
(-1.99973 -0.256291 0)
(-11.1538 -0.510119 0)
(-3.18265 -0.596536 0)
(-7.28889 0.625232 0)
(-10.8161 -0.892265 0)
(0.161564 1.5312 0)
(-5.91357 2.57351 0)
(-3.49125 2.14307 0)
(0.16017 1.55706 0)
(-4.08981 -0.541252 0)
(-7.83025 -0.481287 0)
(-0.622485 -0.265507 0)
(-6.95856 -1.36566 0)
(0.907861 0.216521 0)
(-1.81924 1.46814 0)
(-7.85145 -0.93362 0)
(-7.95555 1.3756 0)
(-3.43867 0.33673 0)
(-6.66857 -1.09708 0)
(-6.01856 2.88961 0)
(2.44935 1.57393 0)
(1.33523 1.32572 0)
(-3.33149 0.974102 0)
(5.93522 -0.0148948 0)
(6.71028 0.989571 0)
(7.30338 4.883 0)
(-7.41069 -2.00521 0)
(4.57399 -4.71053 0)
(-9.2987 -1.52661 0)
(0.245034 -1.93811 0)
(-7.91173 -0.932978 0)
(-0.238083 -2.18787 0)
(-5.43014 -1.41928 0)
(0.190424 -0.145813 0)
(-5.40141 2.11854 0)
(-0.112546 -1.61899 0)
(-9.43318 2.95974 0)
(-8.30466 0.329237 0)
(-0.302237 -0.861549 0)
(-8.78759 -0.851135 0)
(-0.555648 -0.610014 0)
(-7.06513 -0.580027 0)
(-10.3648 1.68954 0)
(-13.9606 -0.253234 0)
(-7.1298 2.86201 0)
(-10.1791 2.37132 0)
(-5.38813 -1.04762 0)
(2.11144 1.4482 0)
(-7.40244 -1.13732 0)
(-7.34113 -0.355393 0)
(-8.05042 0.712967 0)
(-5.61494 -1.32517 0)
(-11.8187 2.20536 0)
(-11.3557 1.70367 0)
(-6.17043 0.15294 0)
(-5.60192 1.02258 0)
(-0.632563 -0.579264 0)
(-6.69305 -1.4432 0)
(5.37489 -0.19397 0)
(0.0113944 1.19847 0)
(-2.63048 -0.036556 0)
(-2.87948 1.47444 0)
(6.21649 -0.1793 0)
(9.23239 -1.11769 0)
(6.37932 4.35717 0)
(10.4725 -5.09439 0)
(4.30709 -4.79131 0)
(10.0769 -2.64229 0)
(1.22494 -1.91234 0)
(5.70107 -1.58206 0)
(-0.23267 -1.9028 0)
(4.62918 -0.673408 0)
(-2.25377 -0.0759872 0)
(-3.32893 -2.50157 0)
(-1.67643 -1.10055 0)
(-7.72685 -2.2029 0)
(-8.16882 0.615743 0)
(-14.4604 -0.45732 0)
(-5.66461 -0.412468 0)
(-17.8625 -0.119884 0)
(-14.1746 -0.358391 0)
(-14.8347 0.604648 0)
(-7.14856 -0.450483 0)
(-2.32417 0.59259 0)
(-7.82999 1.58941 0)
(-1.18046 1.83479 0)
(2.05624 1.37672 0)
(-2.22668 -0.583527 0)
(-5.08908 -0.290006 0)
(-8.98339 -0.0794345 0)
(-8.51803 -0.902871 0)
(-5.85107 0.932528 0)
(-9.90561 1.5079 0)
(-5.65999 0.0167839 0)
(-4.35698 1.01064 0)
(-5.66945 0.689986 0)
(-7.17473 -1.44261 0)
(-7.94619 2.51503 0)
(-5.56765 1.34076 0)
(2.04984 1.02901 0)
(-4.14188 0.849686 0)
(7.28732 -0.0511849 0)
(5.85252 0.946723 0)
(5.53501 4.05151 0)
(-6.57898 -1.19307 0)
(4.02877 -3.98145 0)
(-8.47173 -1.12396 0)
(1.64975 -1.78904 0)
(-10.3711 -0.195422 0)
(0.920448 -1.77906 0)
(-9.62296 -0.187085 0)
(-3.82114 -0.124731 0)
(-6.91019 0.986064 0)
(-1.52521 -1.27727 0)
(-5.38641 1.82432 0)
(-10.9334 0.516474 0)
(-4.09675 0.547239 0)
(0.263189 -0.496482 0)
(-1.37634 -0.685846 0)
(-5.35719 -0.535614 0)
(-0.995766 0.516432 0)
(3.6979 -0.475277 0)
(-5.26695 2.95793 0)
(-8.7328 1.85636 0)
(-3.38803 -0.374386 0)
(1.13619 1.25929 0)
(-7.69704 -0.312844 0)
(-7.83859 -0.0206936 0)
(-9.61625 0.479154 0)
(-7.89107 -0.78292 0)
(-9.12614 1.52225 0)
(-13.2587 1.47726 0)
(-5.51081 -0.58835 0)
(-2.26311 0.784682 0)
(-6.65184 -0.793409 0)
(-4.0011 -1.3713 0)
(-1.0084 0.241229 0)
(-7.50198 0.988047 0)
(-3.68048 0.0891566 0)
(-3.93955 1.01669 0)
(7.76516 -0.281215 0)
(8.46339 -1.14677 0)
(4.81562 3.57577 0)
(10.7773 -4.93991 0)
(4.14351 -4.13219 0)
(11.4996 -2.39492 0)
(2.26179 -1.8361 0)
(5.2033 -1.80641 0)
(0.199435 -1.36888 0)
(2.92063 -1.36924 0)
(-3.29406 0.0239733 0)
(-5.95353 -1.10651 0)
(-2.55979 -0.699152 0)
(-4.08703 -1.69852 0)
(-12.2725 0.394878 0)
(0.0510745 -2.35984 0)
(-1.17375 -0.766061 0)
(1.89387 -0.647033 0)
(-3.51981 -0.655665 0)
(-5.19489 0.471136 0)
(-0.589532 -0.0134732 0)
(-4.31516 -0.284864 0)
(-11.1706 1.80138 0)
(-4.98297 1.5282 0)
(1.84879 1.30103 0)
(-4.11995 -0.509504 0)
(-2.09897 -0.0746338 0)
(-11.9468 0.619562 0)
(-8.43019 -0.293743 0)
(-6.86498 0.721337 0)
(-8.16544 1.15965 0)
(-0.791023 0.0625521 0)
(-6.88966 0.405059 0)
(-4.3147 0.789618 0)
(-3.42578 -1.15107 0)
(-9.2418 1.58845 0)
(-13.6593 1.29599 0)
(1.84262 0.285421 0)
(-0.901339 0.323915 0)
(6.75172 -0.166051 0)
(5.71722 0.753414 0)
(4.95882 3.27893 0)
(-5.6192 -0.791291 0)
(4.1588 -3.39366 0)
(-8.74002 -0.852384 0)
(1.97065 -1.63279 0)
(-10.7646 0.555743 0)
(0.763233 -1.23698 0)
(-10.377 0.765771 0)
(-4.37491 -0.00128087 0)
(-9.50552 0.591241 0)
(-2.57276 -0.75592 0)
(-7.80467 1.44359 0)
(-10.1277 0.284074 0)
(-4.13242 1.30477 0)
(-4.15628 -1.00529 0)
(-3.71217 -0.24287 0)
(-3.79405 -0.683041 0)
(-7.99566 0.709736 0)
(-11.2709 0.265579 0)
(-7.15307 3.31226 0)
(-10.9692 1.74871 0)
(3.16608 -0.400038 0)
(2.03927 0.656087 0)
(-2.37792 -0.124968 0)
(-8.85446 0.271866 0)
(-5.12936 -0.14841 0)
(-10.2353 -0.121778 0)
(-8.56352 0.924337 0)
(-11.7338 1.37429 0)
(-9.8356 -0.8666 0)
(-4.49704 0.484564 0)
(-12.333 -1.08056 0)
(-2.00052 -0.994977 0)
(-3.84102 0.147434 0)
(-10.491 0.765241 0)
(-1.99475 0.474855 0)
(-0.958448 0.208523 0)
(8.99728 -0.290723 0)
(9.19411 -1.11597 0)
(5.53724 2.75558 0)
(10.7612 -4.52642 0)
(4.86975 -3.49575 0)
(11.6056 -2.07612 0)
(2.21654 -1.6878 0)
(4.33908 -1.76881 0)
(0.286589 -0.763594 0)
(1.7526 -1.49606 0)
(-2.32106 0.167215 0)
(-4.15927 -1.06131 0)
(-1.93964 -0.370782 0)
(-4.56179 -2.51249 0)
(-6.65878 0.310296 0)
(-3.85508 -2.98336 0)
(-5.27553 -1.05133 0)
(-8.92184 0.443142 0)
(-5.17542 -0.352961 0)
(-15.8818 1.51628 0)
(-13.7585 0.718994 0)
(-4.20189 -0.869341 0)
(-9.24391 1.01872 0)
(-11.4594 1.75598 0)
(-1.3357 1.10969 0)
(-12.755 0.706405 0)
(-9.05095 0.352837 0)
(-17.4953 1.59665 0)
(-11.8955 0.174489 0)
(-7.64194 0.695412 0)
(-7.74859 0.758454 0)
(2.53745 -0.163741 0)
(0.344494 -0.151647 0)
(0.177095 0.679854 0)
(-2.50062 -0.847455 0)
(-5.81313 0.826883 0)
(-14.6122 1.13963 0)
(3.73471 -1.17319 0)
(1.55793 -0.388217 0)
(5.29991 -0.0573041 0)
(7.74569 0.738826 0)
(6.86134 2.32659 0)
(-4.28472 -0.257768 0)
(5.94242 -2.71202 0)
(-9.46874 -0.210998 0)
(2.4992 -1.35009 0)
(-9.38964 1.25886 0)
(-1.20849 -0.768744 0)
(-7.72876 1.18729 0)
(1.75732 0.059013 0)
(-5.73606 0.907469 0)
(-2.47514 -0.500596 0)
(-5.2047 2.16524 0)
(-7.44182 0.275679 0)
(-6.98893 1.55298 0)
(-5.4167 -0.935093 0)
(-7.79802 -0.330037 0)
(-4.76836 -0.300251 0)
(-8.73541 0.49179 0)
(-12.573 0.78006 0)
(-9.21077 3.36078 0)
(-10.3309 1.04843 0)
(-0.195197 -0.535373 0)
(6.15781 0.546213 0)
(-4.25318 -0.438885 0)
(-3.54698 0.60646 0)
(-2.87179 -0.422272 0)
(-1.56579 0.0881515 0)
(0.424368 0.396483 0)
(1.76832 0.552445 0)
(-5.83455 0.235657 0)
(1.21375 0.239535 0)
(-16.9977 0.518955 0)
(-8.32051 -0.14976 0)
(-5.26514 -0.360953 0)
(0.301095 0.406347 0)
(-3.30889 0.708708 0)
(-1.95479 -0.510482 0)
(7.91386 -0.26411 0)
(12.6074 -1.23138 0)
(5.59882 1.58088 0)
(12.6122 -4.06998 0)
(7.92281 -2.71233 0)
(9.44966 -2.02091 0)
(0.808841 -1.14406 0)
(7.08143 -2.26022 0)
(0.153547 -0.61446 0)
(5.30144 -1.95569 0)
(-3.39847 0.17497 0)
(-5.71024 -1.08815 0)
(-6.65198 0.216775 0)
(-5.30518 -2.5628 0)
(-13.3671 0.24929 0)
(-3.68524 -2.33731 0)
(-6.32315 -1.04063 0)
(-7.95903 0.792839 0)
(-8.1426 -0.021829 0)
(-15.2956 1.20668 0)
(-13.0028 1.25801 0)
(1.82443 -1.93896 0)
(-7.5773 -0.0215715 0)
(1.48895 1.51255 0)
(5.51536 0.567183 0)
(3.09015 0.729926 0)
(-4.97634 0.506382 0)
(2.65856 0.213943 0)
(0.298027 0.115125 0)
(2.18085 -0.200436 0)
(1.41143 0.582304 0)
(-2.34239 -0.912719 0)
(-2.73726 0.522237 0)
(9.47791 -1.24777 0)
(-1.99007 -0.888529 0)
(5.60544 0.510361 0)
(5.15892 0.648376 0)
(2.83487 -1.26344 0)
(6.69025 -0.337322 0)