/*--------------------------------*- C++ -*----------------------------------*\
  =========                 |
  \\      /  F ield         | OpenFOAM: The Open Source CFD Toolbox
   \\    /   O peration     | Website:  https://openfoam.org
    \\  /    A nd           | Version:  6
     \\/     M anipulation  |
\*---------------------------------------------------------------------------*/
FoamFile
{
    version     2.0;
    format      ascii;
    class       surfaceVectorField;
    location    "2.94";
    object      Uf;
}
// * * * * * * * * * * * * * * * * * * * * * * * * * * * * * * * * * * * * * //

dimensions      [0 1 -1 0 0 0 0];

internalField   nonuniform List<vector> 
8193
(
(13.1232 0.167678 2.11984e-19)
(13.1286 0.117127 0)
(12.5134 0.278839 0)
(13.4544 0.0734301 4.72646e-18)
(13.4564 0.0804707 2.04326e-19)
(13.6429 0.00274635 -2.05516e-19)
(13.6181 -0.027396 -1.04676e-18)
(13.8106 -0.0493792 1.21646e-19)
(13.7766 -0.127963 1.32343e-18)
(14.0201 -0.08014 1.72436e-18)
(13.9895 -0.205635 -3.05164e-19)
(14.3101 -0.0868646 -1.61557e-18)
(14.2838 -0.272377 2.17745e-19)
(14.6851 -0.0571856 8.7464e-20)
(14.6795 -0.318935 -7.02381e-19)
(15.0496 0.020196 -5.69692e-21)
(15.1108 -0.32344 2.68073e-19)
(15.1894 0.113742 0)
(15.3353 -0.303161 0)
(14.8986 0.144738 3.46785e-19)
(15.0708 -0.36559 -4.3053e-20)
(13.9602 -0.0030263 4.61039e-18)
(14.1244 -0.660269 2.49728e-19)
(12.4008 -0.310066 6.12664e-18)
(12.487 -1.17653 1.9829e-19)
(10.5165 -0.696078 -6.68263e-19)
(10.5594 -1.79903 -8.6355e-19)
(8.61908 -1.04428 -4.8882e-18)
(8.6706 -2.37996 2.41459e-19)
(6.96456 -1.30213 4.97515e-18)
(7.03341 -2.79987 6.80092e-19)
(5.72358 -1.46491 -3.62479e-18)
(5.78966 -3.03405 -4.77316e-19)
(4.94853 -1.57895 1.00914e-18)
(4.96433 -3.13157 3.31276e-19)
(4.59469 -1.67589 -6.50063e-20)
(4.53594 -3.15234 -1.54893e-19)
(4.55313 -1.78277 -4.81694e-21)
(4.41347 -3.15058 6.4358e-20)
(4.70786 -1.92097 -7.18903e-21)
(4.49179 -3.14351 4.98008e-21)
(4.98098 -2.0477 4.85496e-21)
(4.729 -3.10215 4.83628e-21)
(5.34145 -2.08889 -4.84687e-20)
(5.0936 -2.98574 2.65553e-20)
(5.79333 -1.99469 6.77506e-19)
(5.5678 -2.7658 -8.73592e-20)
(6.34708 -1.74612 9.72665e-19)
(6.14104 -2.43181 -1.06989e-20)
(6.98388 -1.40122 4.05583e-20)
(6.77836 -2.02819 1.44717e-19)
(7.63785 -1.0648 6.9065e-20)
(7.41746 -1.63806 -1.23154e-19)
(8.23996 -0.805007 -1.91707e-18)
(8.00311 -1.31932 6.86763e-20)
(8.76301 -0.619845 -6.83195e-20)
(8.52282 -1.07071 -7.51178e-20)
(9.21149 -0.47939 -4.65331e-20)
(8.98331 -0.863899 -1.2071e-20)
(9.59308 -0.368097 1.04048e-18)
(9.38538 -0.689984 -4.65104e-20)
(9.91309 -0.281781 8.70709e-19)
(9.72802 -0.549279 2.69718e-20)
(10.1783 -0.215881 3.45987e-20)
(10.0162 -0.437739 4.38085e-20)
(10.396 -0.165169 0)
(10.2571 -0.349081 -2.00112e-20)
(10.5722 -0.12563 0)
(10.4569 -0.277787 0)
(10.7122 -0.0943575 0)
(10.6194 -0.22016 0)
(10.8218 -0.0685511 0)
(10.7494 -0.173383 0)
(10.9053 -0.0473798 -1.38487e-21)
(10.852 -0.133304 0)
(10.9574 -0.0294556 -5.92422e-20)
(10.932 -0.099211 -5.11855e-20)
(10.9534 -0.00709463 1.30274e-21)
(10.9971 -0.075045 -8.60435e-21)
(10.8142 0.00735074 0)
(11.0219 -0.0431743 1.19854e-20)
(10.9121 0.0145893 1.68397e-19)
(10.4001 0.019576 0)
(13.4078 -0.023456 -4.02073e-20)
(13.2569 -0.00889031 0)
(13.2025 -0.039014 -2.80061e-18)
(13.5308 -0.118372 -8.86833e-19)
(13.4319 -0.0798938 6.51683e-21)
(13.6812 -0.23999 -3.89891e-18)
(13.5816 -0.239652 -2.22505e-18)
(13.8886 -0.358258 2.87312e-18)
(13.771 -0.383143 1.88443e-18)
(14.1787 -0.469382 1.80503e-20)
(14.0287 -0.518373 -5.39068e-19)
(14.5733 -0.562183 1.33876e-18)
(14.3841 -0.659258 1.10952e-18)
(15.0212 -0.616582 -1.43419e-18)
(14.8296 -0.781668 -1.8325e-19)
(15.3263 -0.647473 3.31443e-19)
(15.2064 -0.879739 9.97891e-20)
(15.1791 -0.773319 -4.31147e-20)
(15.1477 -1.02873 0)
(14.3207 -1.11411 -1.3699e-19)
(14.42 -1.38281 -3.36046e-19)
(12.7457 -1.7559 3.60323e-20)
(12.9835 -2.01758 -2.32971e-19)
(10.8241 -2.53039 -5.77288e-19)
(11.173 -2.84247 -7.94442e-19)
(8.92077 -3.27956 -1.92507e-18)
(9.34119 -3.68882 -1.48249e-19)
(7.25806 -3.91422 4.55636e-19)
(7.6805 -4.42014 6.32596e-19)
(5.97438 -4.35239 -5.70982e-20)
(6.34986 -4.95241 4.14617e-19)
(5.09909 -4.58158 -3.35141e-20)
(5.39669 -5.27058 0)
(4.60026 -4.64669 -1.23074e-19)
(4.78889 -5.39752 -3.3107e-20)
(4.41007 -4.60388 3.27816e-20)
(4.49884 -5.36553 7.2709e-20)
(4.42688 -4.49599 5.9825e-20)
(4.45195 -5.22163 8.39606e-20)
(4.60786 -4.31248 9.64912e-21)
(4.59548 -4.97952 4.15676e-20)
(4.94282 -4.02603 2.64606e-20)
(4.9025 -4.62979 0)
(5.40247 -3.63182 -3.41541e-20)
(5.3255 -4.18584 -3.58937e-20)
(5.95533 -3.14546 -5.77498e-20)
(5.83667 -3.6757 -1.59634e-20)
(6.56007 -2.63438 8.51719e-20)
(6.3978 -3.14903 -4.63093e-20)
(7.16761 -2.17582 -6.60098e-19)
(6.97673 -2.66072 1.28359e-19)
(7.73802 -1.80456 -1.23037e-19)
(7.54465 -2.24237 -4.61339e-19)
(8.25837 -1.50432 -7.40919e-21)
(8.07716 -1.8904 3.32991e-19)
(8.73114 -1.24454 -1.91633e-20)
(8.56731 -1.58175 -3.69568e-21)
(9.15389 -1.01695 -1.20803e-20)
(9.00817 -1.30767 -2.31681e-19)
(9.52157 -0.825515 4.27198e-21)
(9.39351 -1.07334 2.16592e-19)
(9.8352 -0.669334 -4.81192e-21)
(9.72338 -0.879202 4.28187e-21)
(10.1007 -0.54271 -2.90612e-20)
(10.0035 -0.719954 2.06169e-20)
(10.3242 -0.43944 -2.00989e-20)
(10.2408 -0.589004 -2.24255e-19)
(10.5101 -0.354758 0)
(10.4402 -0.480753 3.57255e-19)
(10.6614 -0.284719 0)
(10.6055 -0.39132 -2.48946e-20)
(10.7823 -0.226403 0)
(10.7397 -0.317219 -1.16041e-19)
(10.8797 -0.178757 -4.90983e-20)
(10.8447 -0.253415 -2.71678e-20)
(10.9606 -0.137686 3.40734e-19)
(10.9272 -0.199738 5.26641e-20)
(11.0219 -0.0995471 4.49193e-20)
(11.0002 -0.159253 2.88474e-20)
(11.0615 -0.0600595 1.77881e-19)
(11.0376 -0.111847 -1.53189e-19)
(11.044 -0.0366464 1.66429e-19)
(11.0147 0.054804 -2.64762e-18)
(13.2821 -0.124356 3.24522e-20)
(13.2031 -0.137724 0)
(13.1635 -0.00282641 0)
(13.4364 -0.295508 -1.35674e-18)
(13.3484 -0.28437 3.24719e-20)
(13.6365 -0.461862 -4.41924e-18)
(13.5262 -0.481864 -3.43213e-18)
(13.8859 -0.615564 -1.23553e-18)
(13.7514 -0.655569 2.62371e-18)
(14.2168 -0.774479 -8.76478e-19)
(14.0413 -0.845607 9.56574e-19)
(14.6394 -0.927271 1.28332e-18)
(14.4398 -1.06093 -4.31856e-19)
(15.0593 -1.06735 3.15068e-19)
(14.8842 -1.27018 -4.30857e-19)
(15.1307 -1.26093 -4.81181e-19)
(15.0391 -1.49909 6.08849e-19)
(14.5081 -1.62747 4.46028e-20)
(14.5181 -1.86696 -2.9144e-19)
(13.1693 -2.26854 7.33917e-20)
(13.2729 -2.47727 -2.00054e-19)
(11.4092 -3.09983 -7.28362e-19)
(11.556 -3.30121 -8.53656e-20)
(9.59406 -3.98342 2.19183e-19)
(9.74627 -4.20708 -7.70285e-20)
(7.95401 -4.7862 1.24823e-19)
(8.10847 -5.06475 4.40124e-19)
(6.60285 -5.40687 2.73857e-19)
(6.7438 -5.79112 -4.11929e-19)
(5.58953 -5.84293 4.656e-19)
(5.69932 -6.32307 2.8374e-19)
(4.92091 -6.08113 0)
(5.01718 -6.62836 2.47725e-19)
(4.57001 -6.1154 2.68455e-20)
(4.6514 -6.70424 4.99453e-20)
(4.47587 -5.97643 4.70625e-20)
(4.54427 -6.58294 2.51055e-19)
(4.585 -5.69957 4.11173e-20)
(4.626 -6.29924 -1.53365e-19)
(4.86716 -5.28832 -1.01625e-20)
(4.87494 -5.87821 -1.45583e-20)
(5.26947 -4.7801 -4.40709e-20)
(5.2424 -5.35799 1.41361e-20)
(5.74786 -4.22222 -2.42681e-20)
(5.68097 -4.78696 8.50868e-20)
(6.27088 -3.65998 -1.28441e-20)
(6.17111 -4.20925 -1.1522e-20)
(6.80874 -3.13449 -8.19435e-21)
(6.68323 -3.66603 -2.46862e-20)
(7.34362 -2.67377 -3.1782e-19)
(7.19761 -3.17825 -1.96415e-19)
(7.86529 -2.27513 7.25972e-19)
(7.70732 -2.74087 2.94813e-19)
(8.35974 -1.92046 3.40341e-19)
(8.19944 -2.34277 -7.81418e-20)
(8.81319 -1.60444 -2.00379e-19)
(8.65938 -1.98213 7.27793e-21)
(9.21567 -1.33069 5.25056e-19)
(9.07433 -1.66311 -2.08007e-19)
(9.56459 -1.10001 2.17372e-19)
(9.43809 -1.38885 2.1537e-19)
(9.86349 -0.908094 4.95495e-20)
(9.75169 -1.15701 -5.7745e-20)
(10.1184 -0.748719 -1.16093e-19)
(10.0205 -0.962235 2.89702e-21)
(10.335 -0.61625 6.81846e-19)
(10.2503 -0.79873 -4.21993e-19)
(10.5173 -0.506014 -6.82707e-20)
(10.4457 -0.661418 7.77062e-19)
(10.6681 -0.413781 -4.92184e-19)
(10.6101 -0.546492 -2.22953e-19)
(10.7899 -0.336065 -1.43631e-19)
(10.7461 -0.45003 -2.13057e-19)
(10.8858 -0.269474 7.25814e-20)
(10.8547 -0.366548 1.3454e-19)
(10.96 -0.210574 -1.90521e-19)
(10.9421 -0.29477 8.53149e-20)
(11.019 -0.162293 -1.47775e-19)
(11.0142 -0.234351 -3.77241e-21)
(11.0633 -0.11159 -6.69744e-20)
(11.0616 -0.172372 -1.39806e-20)
(11.0972 -0.104466 -1.97398e-19)
(11.0998 -0.0350296 0)
(13.22 -0.382638 0)
(13.1146 -0.357625 0)
(13.0863 -0.223592 -3.48555e-18)
(13.3931 -0.550786 -2.06137e-18)
(13.2729 -0.53036 -2.27802e-18)
(13.6029 -0.740143 -2.81984e-18)
(13.447 -0.761271 4.32079e-19)
(13.8692 -0.950186 3.11123e-18)
(13.6788 -0.982581 2.06488e-18)
(14.235 -1.18473 1.22325e-18)
(13.991 -1.24465 7.00974e-19)
(14.6743 -1.43085 -2.12344e-18)
(14.4049 -1.55133 -9.37552e-19)
(14.9107 -1.70137 4.12906e-19)
(14.7105 -1.87605 4.47917e-19)
(14.5211 -2.09931 4.22128e-19)
(14.4396 -2.26526 1.15803e-19)
(13.3619 -2.7001 -5.32797e-19)
(13.396 -2.82664 -3.75637e-19)
(11.6759 -3.51395 9.76486e-20)
(11.7744 -3.58487 -8.46112e-20)
(9.86161 -4.43602 2.19621e-18)
(9.97325 -4.46823 -6.94065e-19)
(8.20344 -5.34004 4.66018e-19)
(8.30729 -5.37446 7.7275e-19)
(6.83207 -6.13313 -1.00163e-19)
(6.92712 -6.21108 4.02091e-19)
(5.78936 -6.73771 -2.93106e-19)
(5.87618 -6.90001 0)
(5.08648 -7.10624 1.59566e-19)
(5.16022 -7.37257 -1.83287e-19)
(4.7049 -7.25043 3.48984e-19)
(4.76377 -7.59511 8.95473e-20)
(4.58114 -7.16993 3.15766e-19)
(4.64385 -7.57441 4.91517e-20)
(4.65752 -6.90358 3.37481e-20)
(4.71809 -7.35958 2.21039e-19)
(4.89818 -6.47572 -1.21418e-19)
(4.93767 -6.98102 -9.43181e-20)
(5.24468 -5.94198 9.69588e-21)
(5.26149 -6.4864 4.87226e-20)
(5.65805 -5.35918 1.4389e-19)
(5.64948 -5.92746 1.39432e-20)
(6.11114 -4.76861 8.30123e-20)
(6.07271 -5.34468 6.64555e-20)
(6.58606 -4.20897 -3.81463e-20)
(6.51858 -4.77142 -1.43667e-21)
(7.07007 -3.69484 -2.16326e-19)
(6.97788 -4.22829 1.19697e-20)
(7.55359 -3.21798 5.48157e-19)
(7.44846 -3.72066 -2.13852e-19)
(8.03113 -2.78049 -8.98052e-20)
(7.9156 -3.24466 6.12126e-19)
(8.48916 -2.37996 -4.09117e-19)
(8.37155 -2.80226 -8.38811e-19)
(8.91174 -2.01945 0)
(8.79979 -2.40057 4.18013e-19)
(9.28881 -1.70294 0)
(9.18655 -2.04317 0)
(9.6178 -1.43026 -5.71453e-20)
(9.52668 -1.73062 0)
(9.90156 -1.1978 -9.53953e-20)
(9.82138 -1.46053 -7.39914e-20)
(10.1454 -1.00073 -2.89421e-19)
(10.0753 -1.22902 -4.25806e-19)
(10.3545 -0.834189 4.08938e-19)
(10.2936 -1.03157 2.1313e-19)
(10.5324 -0.69366 2.33374e-20)
(10.4808 -0.86366 6.83733e-19)
(10.682 -0.575012 -2.96301e-19)
(10.64 -0.721481 -5.07535e-19)
(10.8056 -0.474573 2.14709e-19)
(10.7733 -0.600926 -1.34081e-19)
(10.9063 -0.387791 1.40016e-19)
(10.882 -0.496828 2.0336e-19)
(10.9874 -0.310675 -2.28113e-20)
(10.9716 -0.407281 -2.24691e-20)
(11.0517 -0.242934 5.11845e-20)
(11.045 -0.329057 5.43353e-20)
(11.1005 -0.178651 -1.41877e-19)
(11.0978 -0.250617 1.20859e-19)
(11.1409 -0.175313 -6.65602e-19)
(11.1425 -0.11128 9.4921e-19)
(13.1121 -0.600039 -2.29725e-18)
(12.9839 -0.574299 3.39486e-19)
(12.9689 -0.400856 4.83834e-19)
(13.2868 -0.81453 -3.21168e-18)
(13.1432 -0.788527 -5.0767e-18)
(13.4963 -1.05734 2.46605e-18)
(13.3033 -1.06869 8.36935e-18)
(13.7721 -1.33786 -3.52812e-19)
(13.5291 -1.35125 -5.77023e-18)
(14.1445 -1.65851 -2.11109e-19)
(13.8454 -1.69505 3.20932e-18)
(14.465 -2.0089 1.31454e-18)
(14.1884 -2.09751 5.71119e-19)
(14.3026 -2.42854 -3.31175e-19)
(14.1671 -2.53291 1.1658e-18)
(13.3664 -2.98446 -8.32235e-19)
(13.3923 -3.04186 7.02347e-19)
(11.8084 -3.7247 2.7863e-19)
(11.921 -3.69018 -1.2138e-18)
(10.0197 -4.59087 2.31759e-18)
(10.142 -4.47272 6.43324e-20)
(8.33836 -5.48589 -3.67384e-18)
(8.4296 -5.32772 -1.14532e-18)
(6.94143 -6.32962 -1.1311e-18)
(6.98544 -6.18397 1.5027e-18)
(5.88504 -7.04908 1.06753e-19)
(5.8913 -6.95783 -2.65615e-19)
(5.17311 -7.57791 1.05448e-19)
(5.15961 -7.5679 -9.6712e-20)
(4.78658 -7.86851 -4.99741e-20)
(4.7688 -7.95625 -5.59276e-21)
(4.66843 -7.91658 -1.52029e-19)
(4.65607 -8.11354 -1.1635e-19)
(4.74946 -7.76216 0)
(4.7453 -8.05889 0)
(4.97311 -7.43834 0)
(4.97112 -7.83679 -2.34154e-19)
(5.28781 -6.99057 2.62747e-20)
(5.28428 -7.47923 -1.68937e-19)
(5.65816 -6.46827 2.60823e-20)
(5.65095 -7.02603 1.17776e-19)
(6.05932 -5.90978 -6.48891e-20)
(6.04759 -6.50846 -9.2173e-21)
(6.47822 -5.34273 -2.99184e-20)
(6.45817 -5.95158 -1.66279e-20)
(6.91111 -4.78698 4.10108e-20)
(6.87771 -5.3793 3.41039e-20)
(7.35595 -4.24994 6.31285e-21)
(7.30642 -4.8105 -1.94172e-20)
(7.80634 -3.73845 -1.3642e-20)
(7.74289 -4.2578 0)
(8.24964 -3.2564 -4.43424e-19)
(8.17585 -3.73254 -9.56606e-23)
(8.67323 -2.81532 2.68915e-20)
(8.59337 -3.24781 -4.22812e-19)
(9.06407 -2.41805 4.1939e-19)
(8.98699 -2.81049 -4.63561e-21)
(9.41445 -2.06574 0)
(9.34366 -2.41976 -1.50985e-20)
(9.72167 -1.75688 -8.23793e-21)
(9.65887 -2.07314 4.26303e-19)
(9.98743 -1.48819 -3.91872e-19)
(9.93331 -1.76822 -2.76588e-20)
(10.2164 -1.25643 1.50819e-19)
(10.1699 -1.50244 6.19693e-20)
(10.4134 -1.05796 7.26146e-19)
(10.3733 -1.27266 -4.12799e-19)
(10.5824 -0.888569 -1.27346e-19)
(10.5484 -1.07515 1.00462e-18)
(10.7257 -0.744108 -3.5474e-19)
(10.6987 -0.906112 -4.73572e-19)
(10.8453 -0.620826 5.58105e-22)
(10.8257 -0.76132 1.79442e-20)
(10.944 -0.514261 4.39144e-20)
(10.9311 -0.636091 1.77981e-19)
(11.0249 -0.420326 5.34333e-20)
(11.0194 -0.528183 -3.15142e-19)
(11.0913 -0.336262 1.41909e-19)
(11.0924 -0.433401 1.16503e-19)
(11.1453 -0.25753 1.89886e-19)
(11.1476 -0.340795 2.9145e-19)
(11.1946 -0.254464 -4.66178e-19)
(11.1906 -0.180491 1.30204e-18)
(12.9603 -0.854652 -2.47174e-18)
(12.8019 -0.812324 -1.30645e-20)
(12.821 -0.620948 -1.64017e-19)
(13.1199 -1.11182 -5.63198e-20)
(12.9461 -1.06516 -6.12534e-18)
(13.3105 -1.41168 2.40741e-18)
(13.0739 -1.39206 8.84603e-18)
(13.5727 -1.76918 -5.29649e-18)
(13.2756 -1.73809 -6.17022e-18)
(13.876 -2.17674 3.94663e-18)
(13.5534 -2.16343 5.45769e-18)
(13.9065 -2.62298 4.30654e-19)
(13.6954 -2.64373 -1.45376e-18)
(13.2651 -3.13982 1.66527e-18)
(13.251 -3.1333 1.91886e-18)
(11.9124 -3.7709 1.75936e-18)
(12.0358 -3.66518 -5.92929e-19)
(10.1772 -4.51296 -1.32559e-18)
(10.3324 -4.2965 -1.53292e-18)
(8.45714 -5.31378 -3.82113e-19)
(8.57715 -5.02387 -3.66385e-19)
(6.99054 -6.11481 -1.57067e-18)
(7.0431 -5.8063 -2.78386e-18)
(5.86828 -6.86267 1.14535e-18)
(5.84422 -6.58258 3.37885e-18)
(5.11733 -7.50011 -5.85488e-19)
(5.03191 -7.27358 -3.43705e-19)
(4.72352 -7.95846 -4.78808e-20)
(4.6085 -7.813 -3.93987e-20)
(4.61822 -8.20646 -1.07281e-20)
(4.50039 -8.16674 3.29053e-19)
(4.71852 -8.25532 -7.12301e-20)
(4.6093 -8.34084 -3.16801e-19)
(4.95483 -8.13463 -2.33602e-19)
(4.85585 -8.36014 0)
(5.27184 -7.87862 -3.99529e-19)
(5.18627 -8.24022 8.39564e-20)
(5.63714 -7.51459 -1.28827e-20)
(5.5699 -7.99598 3.53371e-19)
(6.03087 -7.06461 1.05555e-19)
(5.98611 -7.63448 -2.00204e-20)
(6.43832 -6.54791 3.31884e-20)
(6.41758 -7.17401 1.55286e-20)
(6.8513 -5.98507 5.28015e-20)
(6.84911 -6.63154 1.50658e-20)
(7.26869 -5.40002 -2.64711e-20)
(7.27282 -6.03462 -6.72424e-21)
(7.68994 -4.8152 -2.35184e-20)
(7.68904 -5.4171 -2.33552e-20)
(8.10922 -4.25237 1.39838e-20)
(8.0972 -4.80648 0)
(8.51717 -3.72683 2.09245e-20)
(8.49218 -4.22677 -1.67217e-19)
(8.90255 -3.24406 -4.09284e-19)
(8.87145 -3.69572 1.84711e-19)
(9.25845 -2.81203 -4.17514e-19)
(9.22485 -3.21915 -3.94482e-19)
(9.5795 -2.42768 4.20222e-19)
(9.54788 -2.79403 2.74386e-20)
(9.86228 -2.08571 4.26805e-19)
(9.83741 -2.41479 2.88675e-19)
(10.1079 -1.78371 4.39822e-19)
(10.0901 -2.0778 -3.00175e-19)
(10.3201 -1.5198 -4.41328e-19)
(10.3069 -1.78049 1.22762e-19)
(10.5032 -1.29095 -1.74874e-19)
(10.4927 -1.52021 -3.41586e-19)
(10.6606 -1.09337 5.96423e-19)
(10.6525 -1.29403 1.03268e-18)
(10.7953 -0.92344 -1.02514e-19)
(10.7898 -1.09855 -5.24071e-19)
(10.9091 -0.777288 1.90945e-19)
(10.9067 -0.929641 -3.51516e-19)
(11.004 -0.650189 -1.8486e-19)
(11.0054 -0.783282 3.62826e-19)
(11.0825 -0.53811 -1.35998e-19)
(11.0896 -0.656728 -5.47563e-20)
(11.148 -0.439136 2.40801e-19)
(11.1583 -0.545358 -1.73701e-19)
(11.2035 -0.348487 2.0317e-19)
(11.2116 -0.439364 1.28423e-19)
(11.2608 -0.342876 0)
(11.2519 -0.260667 0)
(12.7365 -1.10863 -3.69761e-18)
(12.5522 -1.04484 -3.05904e-18)
(12.6119 -0.835531 -3.70292e-18)
(12.8621 -1.40864 -3.1667e-18)
(12.6649 -1.33016 -6.2366e-18)
(13.0113 -1.76621 2.50181e-18)
(12.7395 -1.69621 7.46218e-18)
(13.2203 -2.19801 1.51202e-18)
(12.8928 -2.09848 -4.96191e-18)
(13.3498 -2.6734 1.17239e-18)
(13.0703 -2.58304 6.62244e-18)
(13.0237 -3.16796 4.0211e-20)
(12.9336 -3.09168 -2.35716e-18)
(11.9796 -3.69164 1.26342e-18)
(12.0945 -3.55505 4.4123e-18)
(10.3775 -4.27694 -2.38932e-18)
(10.5839 -4.02385 -7.63288e-18)
(8.63776 -4.92675 -5.69039e-19)
(8.82403 -4.57132 2.73544e-18)
(7.08046 -5.6112 -3.07269e-18)
(7.19738 -5.20131 2.2923e-18)
(5.83848 -6.31132 -3.94167e-19)
(5.85336 -5.88487 -3.73883e-18)
(4.97783 -6.99053 2.2455e-18)
(4.88087 -6.5734 5.21317e-19)
(4.51845 -7.57259 2.17529e-19)
(4.34164 -7.20419 1.78637e-19)
(4.39133 -8.01392 3.50432e-19)
(4.17322 -7.72313 -3.1224e-19)
(4.49372 -8.30002 9.86265e-20)
(4.26897 -8.12153 3.06941e-19)
(4.74133 -8.44551 -2.41905e-19)
(4.51999 -8.40602 -2.41317e-19)
(5.07845 -8.46636 2.43573e-19)
(4.86565 -8.57799 -6.18321e-20)
(5.47444 -8.35813 7.2336e-19)
(5.28615 -8.62076 -4.29149e-19)
(5.90893 -8.11572 3.70074e-19)
(5.75908 -8.52735 5.19865e-19)
(6.36319 -7.74394 -7.31012e-20)
(6.26157 -8.27022 -3.40267e-19)
(6.81917 -7.25687 1.95686e-20)
(6.77003 -7.86904 2.42716e-20)
(7.26207 -6.67948 -4.81653e-21)
(7.26148 -7.34442 1.92722e-19)
(7.6854 -6.0494 0)
(7.7182 -6.7253 5.20741e-20)
(8.08951 -5.40697 0)
(8.13711 -6.05973 -5.17809e-20)
(8.47566 -4.78632 -1.79794e-19)
(8.52183 -5.38895 0)
(8.8439 -4.20796 -1.43386e-19)
(8.87793 -4.7478 -7.44839e-20)
(9.19139 -3.6825 2.02877e-19)
(9.21161 -4.16 7.23156e-20)
(9.51116 -3.20848 7.00818e-20)
(9.52404 -3.63349 3.1316e-19)
(9.79922 -2.7848 -1.084e-19)
(9.81034 -3.16624 -2.34904e-19)
(10.0548 -2.40953 -4.20503e-19)
(10.0673 -2.75159 -8.48545e-20)
(10.2777 -2.07755 -5.78769e-19)
(10.2937 -2.38309 -2.05781e-19)
(10.4694 -1.78429 2.13387e-19)
(10.489 -2.056 -2.32531e-19)
(10.6337 -1.52659 8.04212e-19)
(10.6557 -1.76708 4.86428e-19)
(10.7747 -1.302 -1.44867e-19)
(10.7973 -1.51376 2.49627e-19)
(10.8959 -1.10722 -8.219e-19)
(10.9181 -1.29295 -5.38006e-19)
(10.9994 -0.938607 -2.40427e-19)
(11.0207 -1.10082 -2.376e-19)
(11.0868 -0.791232 4.87579e-19)
(11.109 -0.933841 3.40091e-19)
(11.1601 -0.661816 -8.2476e-20)
(11.1849 -0.78915 3.24857e-19)
(11.2219 -0.548163 -3.10845e-19)
(11.2457 -0.661452 -1.64422e-19)
(11.2754 -0.445412 -7.28588e-20)
(11.2935 -0.542075 -4.17961e-19)
(11.3415 -0.435503 4.14988e-20)
(11.3243 -0.347035 -3.89319e-19)
(12.4323 -1.3426 -5.61857e-18)
(12.2304 -1.25141 -3.58157e-18)
(12.3385 -1.03935 -4.14659e-18)
(12.5063 -1.67417 -8.71837e-19)
(12.2976 -1.5534 -4.99328e-19)
(12.5932 -2.07087 -5.48875e-20)
(12.306 -1.9375 -1.38979e-18)
(12.7023 -2.5506 -3.07051e-18)
(12.3804 -2.37566 -3.1196e-18)
(12.6166 -3.05655 4.07222e-18)
(12.4128 -2.88003 3.19154e-18)
(11.9611 -3.52649 1.96861e-18)
(12.0007 -3.35598 -5.56567e-19)
(10.6297 -3.97013 1.14167e-19)
(10.8623 -3.73106 2.4801e-18)
(8.94424 -4.43508 -5.77959e-18)
(9.21791 -4.08591 -2.33393e-19)
(7.30515 -4.94477 5.79739e-18)
(7.5213 -4.50858 -3.90327e-18)
(5.91758 -5.51534 2.28375e-18)
(6.03277 -5.0113 9.44234e-18)
(4.88331 -6.1389 -2.97802e-18)
(4.85603 -5.59005 -3.93696e-18)
(4.26791 -6.76709 -1.52602e-18)
(4.09157 -6.21242 -7.74262e-19)
(4.03447 -7.34547 -9.28404e-20)
(3.76451 -6.81129 0)
(4.08188 -7.82516 -9.12489e-20)
(3.78312 -7.36716 1.99772e-20)
(4.30435 -8.22547 0)
(3.98347 -7.87534 1.86061e-19)
(4.64216 -8.5384 -6.17152e-20)
(4.31085 -8.31887 2.16074e-19)
(5.06836 -8.7351 -7.87129e-19)
(4.74353 -8.66101 -2.43021e-19)
(5.56547 -8.7918 -5.47764e-19)
(5.26456 -8.86425 3.93712e-19)
(6.10862 -8.68231 -1.78863e-19)
(5.85664 -8.90747 -6.77359e-19)
(6.66562 -8.39822 -2.31141e-19)
(6.48038 -8.78874 2.39469e-19)
(7.20771 -7.95885 1.96585e-19)
(7.0975 -8.47949 -1.63721e-19)
(7.71103 -7.3904 2.47953e-19)
(7.68077 -8.01589 4.14932e-20)
(8.16217 -6.73458 -1.45812e-20)
(8.20186 -7.41461 5.1469e-20)
(8.56161 -6.04233 -5.16468e-20)
(8.64857 -6.72854 1.58873e-19)
(8.91856 -5.35941 1.04394e-19)
(9.02602 -6.01051 -3.08152e-19)
(9.24368 -4.71686 1.60014e-19)
(9.34968 -5.30612 1.96945e-19)
(9.54474 -4.13243 1.8093e-19)
(9.63565 -4.65133 -1.03604e-19)
(9.82379 -3.61074 4.20783e-19)
(9.89673 -4.06275 1.41417e-19)
(10.0778 -3.14663 -2.07963e-19)
(10.1379 -3.54246 -1.37757e-19)
(10.3035 -2.7334 1.43783e-19)
(10.358 -3.08457 7.52612e-20)
(10.4999 -2.36697 1.8777e-19)
(10.5532 -2.68072 6.81321e-20)
(10.668 -2.04307 1.89881e-20)
(10.7221 -2.3233 1.19946e-19)
(10.8108 -1.75803 -1.05824e-19)
(10.8654 -2.00687 -1.04109e-19)
(10.9322 -1.50824 -1.42813e-19)
(10.9856 -1.72775 0)
(11.0359 -1.29025 1.0573e-19)
(11.0865 -1.48274 -3.0845e-19)
(11.1245 -1.09998 3.6972e-19)
(11.1717 -1.26849 3.1605e-19)
(11.2001 -0.933512 1.126e-19)
(11.245 -1.08195 2.57124e-19)
(11.2644 -0.78781 7.68724e-20)
(11.3081 -0.920044 -3.29891e-19)
(11.3182 -0.659269 -2.61485e-19)
(11.3588 -0.776597 -1.57797e-20)
(11.365 -0.544409 -9.09307e-19)
(11.3975 -0.644354 -1.80338e-19)
(11.4399 -0.528025 3.33188e-19)
(11.4098 -0.436576 1.3883e-18)
(12.0567 -1.52039 1.4015e-18)
(11.8559 -1.3985 -9.91174e-18)
(12.0082 -1.21081 2.91158e-18)
(12.066 -1.86452 -1.61518e-18)
(11.8595 -1.69807 6.87043e-18)
(12.0726 -2.27176 -4.44917e-18)
(11.7995 -2.07144 9.12001e-19)
(12.0541 -2.76144 -1.19048e-19)
(11.7702 -2.51452 -5.73299e-18)
(11.7521 -3.24686 -1.43502e-18)
(11.645 -3.00184 -3.28792e-18)
(10.8455 -3.63807 0)
(11.0145 -3.40094 3.35711e-18)
(9.37898 -3.94806 4.93016e-18)
(9.71547 -3.65272 -5.45252e-18)
(7.72632 -4.25323 1.65705e-19)
(8.06557 -3.86378 7.03252e-18)
(6.20434 -4.62479 -7.12818e-19)
(6.45899 -4.13281 -6.46792e-18)
(4.97115 -5.09003 2.72437e-18)
(5.09189 -4.50133 9.56358e-18)
(4.12106 -5.64758 -1.45743e-18)
(4.04964 -4.97947 -1.08293e-17)
(3.67646 -6.25388 7.36323e-19)
(3.43946 -5.53309 2.47281e-18)
(3.5792 -6.82708 1.11014e-19)
(3.28619 -6.13439 2.77878e-19)
(3.70927 -7.41158 6.03263e-19)
(3.35553 -6.76132 -1.78732e-19)
(4.00101 -7.96628 4.77348e-19)
(3.60088 -7.39668 6.30206e-19)
(4.42039 -8.44383 5.73931e-20)
(3.99383 -7.99281 -2.61634e-19)
(4.94766 -8.79786 9.48309e-19)
(4.52121 -8.49539 -1.23113e-18)
(5.56107 -8.99329 1.83583e-19)
(5.15925 -8.85336 1.03287e-18)
(6.22689 -9.02006 -2.20882e-19)
(5.87141 -9.02645 -1.03611e-18)
(6.90595 -8.87429 2.91361e-19)
(6.61096 -9.05205 -6.38475e-19)
(7.56357 -8.54201 -2.76254e-19)
(7.35893 -8.87657 -1.614e-19)
(8.16366 -8.04186 -1.2744e-19)
(8.06304 -8.53377 4.66659e-19)
(8.67996 -7.40982 2.08742e-19)
(8.68606 -8.01132 4.97528e-19)
(9.10449 -6.6996 -1.45493e-19)
(9.19988 -7.35974 4.04972e-19)
(9.45009 -5.96704 -1.31156e-19)
(9.60363 -6.63291 -3.05363e-19)
(9.73772 -5.25853 9.54426e-20)
(9.91563 -5.88569 1.00749e-19)
(9.98727 -4.60483 -1.43931e-19)
(10.1616 -5.16742 0)
(10.2131 -4.01996 -4.05388e-19)
(10.3673 -4.5099 -2.24496e-19)
(10.4209 -3.50434 1.42429e-19)
(10.5508 -3.92596 2.17993e-19)
(10.6098 -3.05118 0)
(10.7197 -3.41474 -6.37395e-20)
(10.7765 -2.65099 0)
(10.8742 -2.96839 -3.32859e-20)
(10.9188 -2.29649 0)
(11.0109 -2.5772 1.10239e-19)
(11.0378 -1.98301 0)
(11.127 -2.23258 2.29687e-19)
(11.1363 -1.70709 -1.22329e-19)
(11.2225 -1.92841 -1.81411e-19)
(11.2185 -1.4654 -1.49067e-19)
(11.3001 -1.6604 -2.59821e-19)
(11.2878 -1.25419 1.09948e-19)
(11.3634 -1.4253 2.53272e-19)
(11.3472 -1.06987 -3.36096e-19)
(11.4168 -1.22036 1.74949e-19)
(11.3977 -0.908754 -4.74495e-19)
(11.4626 -1.042 -4.64503e-19)
(11.44 -0.766778 -5.37697e-20)
(11.4994 -0.884082 1.5345e-19)
(11.4763 -0.639536 4.52965e-19)
(11.5271 -0.740008 -3.35987e-19)
(11.5582 -0.615006 6.18627e-19)
(11.5133 -0.523259 -1.02186e-18)
(11.6363 -1.60779 -4.98901e-18)
(11.4547 -1.44831 -7.43825e-18)
(11.6486 -1.31509 -4.08375e-18)
(11.5707 -1.93979 1.14036e-17)
(11.3824 -1.72785 -7.4045e-19)
(11.4875 -2.33166 4.669e-20)
(11.2555 -2.06592 6.85466e-19)
(11.34 -2.78833 -8.73826e-18)
(11.1248 -2.48065 -7.60202e-19)
(10.8677 -3.21323 5.36929e-19)
(10.8567 -2.92245 -5.21654e-18)
(9.82937 -3.49327 -2.1652e-18)
(10.1002 -3.22856 8.8984e-18)
(8.34405 -3.64805 -4.98861e-18)
(8.76588 -3.3455 -7.46991e-18)
(6.7601 -3.79555 1.94826e-18)
(7.16944 -3.39591 -2.08326e-18)
(5.34468 -4.0301 3.29836e-18)
(5.65254 -3.50349 4.22509e-18)
(4.22587 -4.39939 -3.67496e-18)
(4.36661 -3.72661 5.09265e-18)
(3.49476 -4.86672 -5.85541e-18)
(3.45378 -4.09405 -1.91679e-18)
(3.15314 -5.40787 8.45474e-19)
(2.9587 -4.58558 5.67132e-19)
(3.10433 -6.0558 -4.97132e-19)
(2.80957 -5.18953 2.72017e-19)
(3.27452 -6.74143 1.65163e-19)
(2.89494 -5.88058 -1.01379e-18)
(3.6141 -7.42334 -1.10306e-19)
(3.1619 -6.60423 3.35418e-19)
(4.1097 -8.05001 -1.61795e-18)
(3.60611 -7.31249 -1.65781e-18)
(4.74245 -8.56455 -1.06171e-18)
(4.2203 -7.95046 -1.62554e-18)
(5.47501 -8.91959 -2.89725e-19)
(4.97186 -8.46292 0)
(6.26298 -9.09023 -1.27219e-18)
(5.80886 -8.79777 -7.04242e-19)
(7.06602 -9.06854 -1.08917e-18)
(6.6775 -8.96929 7.02146e-19)
(7.85021 -8.87625 5.90292e-19)
(7.53058 -8.97422 0)
(8.57622 -8.50767 1.08412e-18)
(8.35983 -8.75283 -7.64399e-19)
(9.19809 -7.96584 6.91162e-19)
(9.11656 -8.37104 2.35174e-20)
(9.69106 -7.29839 1.96663e-19)
(9.73877 -7.82815 1.22163e-18)
(10.0618 -6.56028 4.89873e-21)
(10.2164 -7.1598 -7.653e-19)
(10.3338 -5.80951 4.95663e-21)
(10.5575 -6.42319 -1.03802e-21)
(10.5387 -5.09317 -7.89451e-20)
(10.7897 -5.67424 -6.87255e-20)
(10.7052 -4.4399 3.08474e-19)
(10.9504 -4.96071 1.60338e-20)
(10.8523 -3.86132 1.52834e-20)
(11.0721 -4.31203 -1.69689e-19)
(10.988 -3.35608 -4.20894e-19)
(11.1762 -3.73973 1.74931e-19)
(11.1124 -2.91588 -2.23258e-19)
(11.2729 -3.2423 -1.9875e-20)
(11.222 -2.53052 3.37527e-19)
(11.363 -2.81119 9.79101e-20)
(11.3137 -2.19114 4.71268e-19)
(11.4429 -2.4356 1.71618e-19)
(11.3875 -1.89168 -3.17332e-19)
(11.5089 -2.10634 -1.59654e-19)
(11.4457 -1.62788 -1.23537e-19)
(11.5604 -1.8167 -8.67968e-20)
(11.4919 -1.39627 3.22143e-19)
(11.599 -1.56214 1.61502e-19)
(11.5296 -1.19403 8.10514e-21)
(11.6284 -1.33996 1.38919e-19)
(11.5615 -1.01797 2.00639e-19)
(11.6517 -1.1468 -7.38028e-20)
(11.5887 -0.863585 -1.14894e-19)
(11.6696 -0.976479 1.14583e-19)
(11.6127 -0.72592 -6.43001e-19)
(11.6823 -0.822518 -1.88494e-19)
(11.6993 -0.689636 3.18079e-20)
(11.6389 -0.600448 3.83102e-19)
(11.1906 -1.57887 -3.66312e-18)
(11.0575 -1.37297 5.24992e-19)
(11.2706 -1.31869 4.98122e-18)
(11.0519 -1.87542 -1.11521e-17)
(10.9124 -1.62172 1.67281e-18)
(10.8855 -2.22853 -1.375e-19)
(10.7215 -1.9121 -7.09937e-18)
(10.6336 -2.63012 2.61435e-18)
(10.5039 -2.27173 1.19086e-18)
(10.0656 -2.97198 1.61576e-18)
(10.1411 -2.64793 -3.48144e-18)
(8.99893 -3.13371 4.40896e-18)
(9.34904 -2.86567 1.3505e-17)
(7.56076 -3.14023 -6.02268e-18)
(8.06343 -2.85911 -2.02093e-18)
(6.05363 -3.13526 -1.2068e-19)
(6.54563 -2.74934 -4.15029e-18)
(4.71479 -3.22965 5.99895e-18)
(5.10614 -2.69047 -2.26786e-19)
(3.67917 -3.43941 4.94119e-18)
(3.92339 -2.76821 -2.48981e-18)
(2.99977 -3.81071 3.05068e-18)
(3.0574 -3.00382 -3.23611e-19)
(2.68234 -4.34752 0)
(2.56621 -3.41854 4.08738e-19)
(2.65364 -5.00756 -7.31461e-19)
(2.40027 -3.99722 -8.25832e-20)
(2.83284 -5.73923 -1.74423e-18)
(2.46873 -4.68966 -2.93516e-19)
(3.19873 -6.49638 -1.51896e-18)
(2.73773 -5.43856 7.7454e-19)
(3.75264 -7.22737 -1.44991e-18)
(3.21562 -6.19588 -1.7004e-18)
(4.47495 -7.8782 -3.46631e-19)
(3.89201 -6.91182 4.15846e-18)
(5.31917 -8.40058 -4.17193e-19)
(4.72701 -7.53396 -4.20276e-18)
(6.23193 -8.75613 1.67509e-18)
(5.66448 -8.0136 -4.11466e-19)
(7.16208 -8.92001 1.84995e-18)
(6.64846 -8.34733 1.84042e-18)
(8.0702 -8.87173 -1.48077e-18)
(7.63335 -8.55192 0)
(8.91938 -8.63347 -1.98945e-18)
(8.58291 -8.5286 5.54568e-19)
(9.66069 -8.24162 5.02883e-19)
(9.44165 -8.34045 -5.07184e-19)
(10.262 -7.69752 1.8711e-19)
(10.1887 -7.96767 -2.36861e-19)
(10.7081 -7.03116 -7.71849e-19)
(10.7864 -7.44386 3.36462e-19)
(11.0089 -6.29835 -7.39655e-20)
(11.2127 -6.7996 -2.07121e-22)
(11.1976 -5.55577 2.52009e-20)
(11.4831 -6.08707 -4.88646e-23)
(11.3149 -4.85036 -1.47462e-19)
(11.6336 -5.36294 -3.06025e-21)
(11.3958 -4.21043 1.5878e-19)
(11.7086 -4.67304 3.68348e-19)
(11.463 -3.64667 2.41207e-19)
(11.7462 -4.0461 -7.67763e-19)
(11.5266 -3.15763 -1.9415e-20)
(11.7712 -3.49403 3.96997e-19)
(11.5876 -2.73472 -7.65128e-20)
(11.796 -3.01646 -1.99257e-20)
(11.6417 -2.36695 -3.82494e-19)
(11.823 -2.60527 -1.4356e-19)
(11.685 -2.04505 5.56435e-20)
(11.848 -2.24956 1.99154e-19)
(11.7163 -1.7623 2.24443e-19)
(11.8664 -1.93952 5.71032e-20)
(11.7371 -1.51422 -1.73501e-20)
(11.8761 -1.66783 -7.65568e-20)
(11.7502 -1.29711 1.58642e-19)
(11.8786 -1.43063 1.14474e-19)
(11.7593 -1.10778 -7.90566e-20)
(11.8761 -1.22494 3.52498e-20)
(11.7663 -0.942089 1.76843e-19)
(11.871 -1.04422 -2.2768e-19)
(11.7737 -0.7957 4.40574e-19)
(11.8634 -0.882736 3.0664e-19)
(11.8635 -0.743821 -2.93047e-19)
(11.7862 -0.662106 -3.38928e-19)
(10.7592 -1.41371 5.90449e-18)
(10.6807 -1.16547 9.12285e-18)
(10.9033 -1.18393 1.57645e-19)
(10.5581 -1.66688 6.20071e-18)
(10.4854 -1.37771 7.34363e-18)
(10.3227 -1.96743 -5.54922e-18)
(10.2421 -1.61509 -4.59691e-18)
(10.0044 -2.30249 -4.8727e-18)
(9.96331 -1.90771 -4.68293e-18)
(9.41269 -2.56397 8.04116e-18)
(9.55791 -2.21302 1.89074e-18)
(8.39241 -2.62384 8.42435e-18)
(8.80166 -2.36264 5.66596e-18)
(7.03831 -2.50176 3.8596e-19)
(7.61749 -2.26079 -3.11122e-20)
(5.61532 -2.33693 -4.1777e-18)
(6.21088 -2.01512 1.92678e-18)
(4.34224 -2.25808 -7.99881e-18)
(4.85115 -1.79636 -4.36603e-19)
(3.33656 -2.34012 -6.40907e-18)
(3.70398 -1.71267 -5.53613e-18)
(2.66707 -2.60621 -1.87875e-18)
(2.8485 -1.8084 -1.36238e-18)
(2.33623 -3.06414 3.17418e-19)
(2.32697 -2.10454 1.64714e-18)
(2.28635 -3.6754 3.41605e-19)
(2.11799 -2.59338 7.09411e-19)
(2.45741 -4.38382 2.22383e-18)
(2.15515 -3.22129 5.42518e-19)
(2.83604 -5.14621 2.07752e-18)
(2.40844 -3.93002 3.12613e-18)
(3.42697 -5.91015 5.03962e-18)
(2.9012 -4.67283 -2.08818e-18)
(4.20628 -6.62083 5.32788e-19)
(3.6172 -5.40761 4.96949e-18)
(5.12371 -7.23765 -4.14297e-18)
(4.49955 -6.08923 -9.18122e-19)
(6.12412 -7.72926 0)