/*--------------------------------*- C++ -*----------------------------------*\
  =========                 |
  \\      /  F ield         | OpenFOAM: The Open Source CFD Toolbox
   \\    /   O peration     | Website:  https://openfoam.org
    \\  /    A nd           | Version:  6
     \\/     M anipulation  |
\*---------------------------------------------------------------------------*/
FoamFile
{
    version     2.0;
    format      ascii;
    class       surfaceScalarField;
    location    "1.75";
    object      phi;
}
// * * * * * * * * * * * * * * * * * * * * * * * * * * * * * * * * * * * * * //

dimensions      [1 0 -1 0 0 0 0];

internalField   nonuniform List<scalar> 
11670
(
4.91596e-05
7.08027e-05
-0.00026923
0.000149024
-3.5236e-08
2.62541e-07
-2.20697e-07
2.95337e-08
-6.50994e-06
7.71584e-05
-0.000273312
0.000202273
3.44349e-06
7.68286e-06
-4.20168e-05
3.09785e-05
-3.92727e-07
-5.14498e-07
4.61394e-07
6.06388e-07
7.37992e-09
7.05967e-08
1.92038e-08
-1.55488e-09
1.29876e-06
1.28674e-06
-1.07342e-06
-1.37758e-06
2.17888e-07
-1.20748e-06
5.44063e-07
4.70421e-07
-4.60097e-07
-5.07061e-07
4.38207e-07
4.60718e-07
-2.84212e-07
1.41283e-06
-1.37397e-06
3.10357e-07
-2.07096e-07
3.10852e-06
-3.22643e-06
2.97097e-07
-5.24545e-05
2.19334e-06
3.6761e-05
1.35154e-05
3.41097e-08
-3.4098e-08
5.69598e-11
-2.73439e-11
-3.45662e-08
3.45845e-08
-2.69962e-11
6.04403e-11
-3.56006e-06
-8.68723e-05
9.03284e-05
1.12836e-07
-3.09211e-08
3.0926e-08
3.25507e-11
-1.34042e-11
-0.000184779
4.12725e-05
0.000110424
3.31163e-05
-0.000150816
2.16875e-06
8.60375e-05
6.26138e-05
-2.16984e-08
2.17157e-08
4.56664e-11
-2.86805e-11
-2.03146e-08
2.0328e-08
-1.0625e-11
1.56582e-11
8.52118e-05
-0.000261968
0.000244823
-6.80872e-05
-1.38845e-08
1.38975e-08
-9.40311e-12
9.41624e-12
8.14005e-05
-0.000132233
0.000177453
-0.000126602
-6.74722e-05
1.38029e-05
5.88285e-06
4.78205e-05
3.10226e-08
-3.10178e-08
3.59916e-11
-1.3309e-11
-7.75374e-08
7.75512e-08
-2.72566e-11
9.04925e-11
2.08653e-05
-9.68565e-05
2.20863e-05
5.39501e-05
-2.96816e-08
2.97207e-08
6.55816e-11
-4.29349e-11
-7.66533e-07
-1.60553e-05
2.23615e-06
1.45906e-05
7.63904e-08
-7.63845e-08
-4.43303e-11
1.42008e-10
3.349e-07
-2.69216e-06
2.72553e-07
2.08692e-06
-2.91951e-08
2.92434e-08
8.05379e-11
-5.34064e-11
7.35812e-08
-7.35735e-08
-5.5142e-11
1.75558e-10
-1.49256e-07
-2.35243e-07
4.34874e-07
-4.9996e-08
-1.80263e-07
-6.55535e-07
8.26584e-08
7.56294e-07
-6.89525e-08
6.89603e-08
-5.99648e-11
1.91672e-10
2.86733e-08
-2.86213e-08
8.63582e-11
-5.8077e-11
-3.25155e-08
3.25308e-08
1.2787e-10
-5.86607e-11
-1.1517e-07
6.07166e-08
3.07566e-08
2.38129e-08
3.6332e-07
-4.01505e-07
-2.11611e-08
5.9435e-08
2.58859e-08
-2.58555e-08
8.03577e-11
-5.04545e-11
1.5605e-07
-1.64908e-07
1.11077e-08
-2.32533e-09
8.89382e-08
-8.89148e-08
-4.79568e-11
1.56398e-10
-9.83189e-08
9.2004e-08
1.89495e-09
4.35988e-09
-3.9275e-08
3.92966e-08
-3.49359e-11
6.96557e-11
8.18337e-08
-8.26721e-08
1.00456e-09
-2.21968e-10
3.84479e-08
-3.84316e-08
8.40188e-11
-3.53459e-11
-9.2228e-08
9.16671e-08
3.7246e-10
1.2629e-10
1.68141e-08
-1.68026e-08
3.13594e-11
-1.94683e-11
-2.75216e-08
2.74246e-08
3.3011e-11
4.03987e-11
5.81059e-08
-5.80974e-08
-1.84485e-11
6.14081e-11
5.31912e-08
-5.32728e-08
1.7834e-11
2.47414e-11
-1.47558e-09
1.46725e-09
4.8923e-12
4.14538e-13
-3.76741e-09
3.75674e-09
1.60368e-11
-4.70523e-13
-9.19104e-12
9.8524e-14
5.49392e-13
8.6127e-12
2.72268e-08
-2.71933e-08
-1.67903e-11
1.61828e-11
-3.80925e-08
3.80162e-08
2.30224e-11
2.12135e-11
4.62107e-08
-4.62139e-08
7.15205e-11
-2.26026e-11
-3.94692e-08
3.94307e-08
1.35664e-11
-5.69779e-12
-3.05966e-08
3.06344e-08
6.22264e-11
-4.2825e-11
-1.59336e-05
6.55591e-07
6.65924e-06
8.64547e-06
7.24194e-08
-7.24136e-08
-4.42168e-11
1.43206e-10
4.90684e-06
-3.71908e-05
2.71396e-05
5.18953e-06
2.45669e-08
-2.45446e-08
5.8952e-11
-3.70066e-11
8.78492e-08
-8.78314e-08
-3.51567e-11
1.16818e-10
1.64489e-07
-1.65596e-07
6.85938e-10
3.40052e-10
-6.92475e-08
6.85584e-08
2.12893e-10
4.28866e-10
2.41218e-08
-2.4087e-08
-6.00996e-11
9.5686e-11
-4.84782e-07
1.91386e-07
1.58127e-07
1.36422e-07
3.08352e-07
-7.57891e-07
3.80353e-07
7.17973e-08
2.97897e-07
-3.70772e-07
1.10612e-08
6.20342e-08
-1.6032e-07
1.14874e-07
3.20633e-08
1.34694e-08
-3.16809e-08
3.17485e-08
-5.60345e-11
7.39782e-11
7.41753e-08
-7.41798e-08
2.02991e-10
-6.02944e-11
-3.0166e-08
3.02134e-08
7.85479e-11
-5.33411e-11
7.14049e-08
-7.13977e-08
-5.50747e-11
1.77031e-10
2.86363e-07
-2.592e-06
1.76483e-06
5.50093e-07
-4.9336e-06
9.28109e-07
3.36555e-06
6.56154e-07
-1.30244e-07
1.24148e-07
4.50488e-09
1.54074e-09
3.21353e-08
-3.20844e-08
5.50094e-11
-4.03433e-11
8.12741e-08
-8.12537e-08
-6.36317e-11
1.75992e-10
-1.32375e-07
1.29144e-07
1.48977e-09
1.70098e-09
-2.92685e-07
3.3251e-07
-4.52275e-08
-0.000172904
4.12305e-05
0.000124778
-0.000130711
2.50207e-05
0.000154664
-1.33583e-06
1.47946e-06
1.27389e-06
3.17324e-07
-2.88172e-07
-3.22656e-07
9.4802e-09
6.42595e-08
5.05114e-09
7.00572e-07
-1.23922e-06
7.76525e-07
-1.74299e-05
1.42816e-06
1.94705e-05
4.92352e-07
-6.20393e-07
-3.90844e-07
-1.25178e-06
1.33453e-06
-3.11101e-07
-2.17954e-06
2.16249e-06
-2.07989e-07
-6.56622e-07
7.46598e-07
-1.22756e-06
1.05324e-06
-1.08106e-06
-2.23347e-07
4.74961e-07
7.97724e-07
-4.41092e-12
-2.11059e-08
1.52241e-08
6.02425e-09
2.42838e-08
6.04504e-07
-2.99183e-07
-3.51969e-07
1.37636e-07
1.21387e-06
-8.77451e-07
-5.02207e-07
-3.46684e-06
5.1162e-05
-4.33173e-05
-4.28997e-06
7.32641e-08
5.56731e-07
-3.92746e-07
-1.91578e-07
-1.45664e-07
-1.06406e-06
1.03143e-06
1.25975e-07
-9.32097e-07
-1.22709e-06
9.91904e-07
2.21459e-08
1.02213e-07
-1.40517e-07
-3.86694e-08
3.42613e-09
-8.80542e-08
-2.98348e-08
1.12692e-07
-2.38132e-06
-2.6987e-05
1.42499e-05
1.51269e-05
-1.20732e-07
5.70974e-08
6.53468e-08
2.31348e-08
6.68085e-08
-1.12783e-07
1.08874e-08
-3.74863e-05
7.11957e-06
2.80068e-05
-6.57506e-08
-1.66861e-07
2.01863e-07
8.33317e-07
-2.63044e-07
-4.54373e-07
1.7959e-06
-6.33788e-07
-1.0524e-06
2.11451e-08
-1.52083e-08
-5.79969e-09
3.27547e-05
-2.08605e-05
-1.52836e-05
-1.5457e-06
2.34451e-07
1.11645e-06
4.68641e-07
-2.48698e-07
-2.17628e-07
1.50984e-07
5.65571e-07
7.00894e-07
-1.57065e-06
8.98038e-07
7.48933e-07
-1.64919e-06
4.49574e-10
6.18484e-07
-6.60025e-09
-6.1283e-07
-6.06925e-07
-5.94678e-09
6.12826e-07
4.61402e-06
-7.48009e-05
-4.2998e-05
0.000113212
-5.70929e-05
-4.47956e-05
0.000106511
-1.87621e-08
-2.70251e-07
4.1505e-07
-1.79169e-07
-3.74508e-07
-2.72778e-07
5.75392e-07
-5.26271e-07
-1.80447e-06
-2.58839e-06
4.7584e-06
-3.26265e-06
-2.42076e-06
4.9964e-06
-2.77884e-07
4.51111e-06
3.71388e-06
-7.98497e-06
2.93993e-06
3.66411e-06
-6.9198e-06
-2.43634e-08
9.36084e-07
1.38654e-06
-2.33665e-06
1.80893e-06
1.36856e-06
-3.24025e-06
1.98895e-07
8.44095e-07
1.19311e-06
-2.12375e-06
1.58017e-06
1.18146e-06
-2.45038e-06
1.33723e-11
-1.03207e-07
-4.98755e-10
1.03435e-07
1.03898e-07
-4.75539e-10
-1.03666e-07
-9.4232e-07
3.54334e-08
2.95643e-07
-2.5027e-07
4.03428e-07
-2.35779e-07
-4.93636e-07
-2.28247e-07
6.30738e-07
3.85302e-07
-0.000232863
-0.000248155
0.000151815
0.000328498
-3.0746e-07
-1.63891e-07
4.53797e-07
2.39601e-07
3.25737e-05
-0.000228473
8.58329e-05
0.000109028
1.27086e-07
-1.70248e-07
2.80663e-07
-1.07227e-07
-1.24841e-07
-8.99667e-08
2.65442e-07
9.29778e-08
1.70264e-08
-8.75118e-08
1.31719e-07
-1.62053e-08
-0.000126889
-0.000240132
9.14446e-05
0.000275333
-5.78217e-06
-0.000227072
5.22195e-05
0.00018001
-0.000365965
-0.000214449
0.000167425
0.000411709
0.000150743
-0.000286208
9.79023e-05
3.60389e-05
-0.000240356
0.000126625
-0.000134231
0.000247511
6.08272e-05
6.36605e-05
-0.00020112
7.59053e-05
-8.47078e-07
1.47502e-06
-1.03409e-06
6.38755e-07
3.37521e-07
1.00637e-06
-9.27892e-07
-2.82256e-07
-0.000190243
-0.000127989
0.000112602
0.000205206
1.36493e-06
1.58661e-06
-1.55989e-06
-1.10336e-06
-1.4035e-06
1.76098e-06
-1.1436e-06
1.06662e-06
-3.39156e-07
-4.87738e-07
7.18253e-07
2.24574e-07
-0.000117263
-0.00012586
7.50049e-05
0.000168094
1.80705e-05
1.06202e-05
-5.6245e-05
2.75526e-05
-8.45455e-06
2.53913e-06
-8.36413e-06
1.435e-05
-2.64422e-07
3.83487e-06
-3.74637e-06
2.03552e-07
-1.30122e-06
3.77262e-07
-3.92231e-06
4.91249e-06
-9.88144e-05
-3.85147e-05
4.75701e-05
8.97382e-05
-1.94187e-06
1.66467e-06
1.61943e-06
-1.18663e-06
-8.82046e-07
1.77874e-06
-1.2642e-06
4.98554e-07
-6.13187e-08
1.7707e-06
-1.73855e-06
4.18259e-08
2.39006e-06
-1.73349e-06
-1.36613e-06
8.05192e-07
-4.43708e-06
1.75626e-05
-5.50217e-05
4.22398e-05
-6.99077e-07
1.96426e-06
-1.67872e-06
4.8262e-07
1.57091e-07
3.20316e-06
-3.21499e-06
-1.25551e-07
-1.13364e-05
2.78923e-06
-4.7896e-06
1.33803e-05
7.55492e-07
-2.49811e-06
2.24603e-06
-4.27531e-07
1.07397e-08
1.44537e-06
-1.44051e-06
-1.08109e-08
-1.61641e-06
-1.15971e-06
2.4663e-07
2.53593e-06
2.95986e-08
4.38512e-07
-9.96619e-07
5.95512e-07
-1.29073e-07
-9.63014e-07
1.38571e-07
1.04264e-06
5.27798e-07
1.13728e-06
-1.45897e-06
-2.36895e-07
4.22728e-07
2.5106e-06
-2.67102e-06
-3.17687e-07
-1.90531e-08
3.2561e-08
-1.94206e-07
1.98303e-07
1.70893e-07
1.54641e-06
-1.63367e-06
-1.19651e-07
-3.32726e-05
1.80066e-05
-4.77989e-05
6.33447e-05
-7.53832e-06
-1.92254e-06
9.54995e-07
8.58492e-06
-1.81894e-05
-1.46508e-05
6.8209e-06
2.60631e-05
1.68566e-06
-1.72186e-06
3.46061e-07
-2.63127e-07
6.10039e-08
6.82985e-07
-6.72863e-07
-4.21621e-08
2.50316e-07
-2.66677e-07
3.52536e-07
-1.76792e-07
-3.36092e-08
-1.77282e-07
2.26739e-07
3.3371e-08
-2.12166e-07
2.53547e-06
-2.55006e-06
1.86809e-07
-6.52396e-07
-5.75031e-07
1.90017e-07
1.08606e-06
-2.83577e-08
1.29238e-06
-1.30654e-06
2.84906e-08
4.09131e-07
-3.4687e-07
1.65102e-07
-1.0733e-07
-1.98684e-07
-1.31585e-07
3.54879e-07
5.28744e-08
6.41176e-08
-2.22712e-08
1.28985e-08
-7.93341e-11
-1.04326e-08
-8.52993e-09
8.67182e-11
1.04647e-08
8.47665e-09
-4.82125e-11
6.22574e-11
-6.61875e-08
2.33912e-08
-1.38224e-08
-5.69871e-07
5.04893e-07
9.71052e-07
-6.93814e-07
-6.28801e-07
-3.3286e-07
6.66022e-07
4.58562e-07
-8.54996e-11
-5.37253e-08
-6.3701e-08
1.4564e-10
-6.16856e-11
-2.52891e-08
-2.39085e-08
1.58222e-10
1.17708e-08
1.19112e-09
-5.15456e-08
-6.49033e-09
-3.04382e-08
1.16574e-07
-6.7755e-08
1.4536e-08
-1.28838e-08
1.31551e-09
5.40051e-08
7.21008e-09
-0.000107967
-0.00022553
5.81198e-05
0.000275141
-7.05144e-05
-0.000255118
7.9283e-05
0.000246529
-2.57982e-10
5.3944e-08
6.4824e-08
1.50617e-10
1.80848e-11
-8.55086e-08
-7.65266e-08
1.00009e-10
-1.2517e-10
-1.0215e-07
-1.22655e-07
1.89101e-10
1.22942e-07
9.93484e-08
1.25212e-10
-2.81446e-10
1.14416e-06
5.94582e-07
-1.16955e-06
-8.37234e-07
1.01796e-06
-5.5335e-07
3.41238e-07
-6.04905e-07
8.61709e-07
-8.70692e-07
-9.57055e-07
7.09275e-07
1.43956e-06
-2.76688e-06
2.2044e-06
-1.02645e-06
9.45531e-07
5.21744e-07
-1.16763e-06
-2.10355e-07
-1.9579e-07
3.2233e-07
-1.51787e-07
1.08782e-07
8.23224e-07
8.68561e-07
-1.0833e-06
-4.60533e-07
2.43577e-07
3.85763e-07
-3.85073e-07
-1.65801e-07
2.09422e-07
1.41622e-07
-2.4089e-07
-7.60747e-08
3.31372e-07
-1.41252e-06
1.23215e-06
-2.31919e-07
-8.06797e-10
1.21735e-07
1.55573e-07
1.17464e-10
8.89861e-11
1.855e-07
1.49001e-07
-7.31281e-10
1.33204e-08
-1.24586e-07
-8.27786e-08
1.42008e-08
-8.57735e-07
-7.32958e-07
6.72561e-07
6.44531e-07
7.78326e-07
-7.26326e-07
6.31519e-07
-4.83411e-07
-9.43712e-07
1.03897e-06
-5.47698e-07
6.90525e-07
6.521e-07
-9.34497e-07
5.77014e-07
-5.42343e-07
-7.20058e-07
9.14965e-07
-3.87096e-07
2.63505e-07
-2.42591e-06
2.54326e-06
-9.38321e-07
6.95584e-07
5.59518e-08
-1.92738e-07
-9.58239e-09
1.59727e-07
-4.09878e-07
7.53335e-07
-6.99301e-07
4.40664e-07
-0.000316481
-0.000107789
0.000187668
0.000235531
-5.03849e-07
-2.31113e-07
6.29233e-07
3.90595e-07
5.93753e-07
-3.28573e-07
5.35767e-07
-4.74419e-07
-6.81136e-08
1.43423e-07
-1.10682e-07
4.79384e-08
-5.51174e-08
-1.09259e-06
1.06092e-06
5.55002e-08
-1.72254e-06
1.11033e-06
1.5288e-06
-1.09371e-06
8.82726e-07
9.13193e-07
-8.2461e-07
-7.12349e-07
-1.14025e-06
1.27931e-06
-7.45815e-07
9.19068e-07
1.54813e-06
1.07876e-06
-1.22955e-06
-1.15634e-06
-0.0001853
0.000135124
-0.000166583
0.000216253
1.50936e-06
-8.96574e-07
-1.45403e-06
1.08652e-06
0.000124967
-0.000264991
0.000113581
2.5809e-05
9.44183e-07
7.73527e-07
-6.9581e-07
9.20139e-07
-1.61425e-06
1.1653e-06
-6.43372e-07
1.38093e-06
-1.66116e-06
1.7406e-06
-1.215e-06
3.81071e-07
4.41075e-07
-4.28855e-07
-2.66809e-07
-8.58674e-08
-1.79695e-07
1.04506e-07
1.4954e-07
-9.88195e-07
-1.21149e-06
1.34442e-06
7.19316e-07
-3.9988e-07
7.23771e-07
3.43955e-07
-4.33893e-07
-1.17003e-06
1.15546e-06
3.41585e-07
-1.58194e-06
1.69927e-06
-1.08927e-06
1.18784e-06
-5.70088e-08
3.00658e-07
-2.66592e-07
6.25752e-08
2.86113e-08
-1.51225e-07
-1.47539e-08
-5.73988e-07
6.72713e-07
-5.46139e-06
5.36118e-06
-1.73259e-06
2.36753e-06
-1.73434e-06
1.31588e-06
-3.80623e-08
1.96377e-07
-1.44085e-07
1.91876e-08
-2.6635e-07
2.69258e-06
-2.60667e-06
2.06079e-07
1.78436e-08
1.0001e-07
-1.1811e-07
-8.21788e-09
1.82807e-06
1.83534e-06
-2.08238e-06
-1.37651e-06
4.03768e-08
-1.94162e-07
1.36932e-07
-2.0529e-08
4.59914e-05
-4.64879e-05
-1.12487e-05
1.17636e-05
7.58163e-07
2.47954e-06
-2.72726e-06
-5.87214e-07
3.17765e-07
3.09316e-06
-3.12909e-06
-2.52338e-07
1.36035e-06
6.00508e-07
-1.28033e-06
-8.33382e-07
-1.07299e-05
-3.43858e-05
3.58684e-06
4.15629e-05
-8.49579e-05
-1.12094e-05
1.43328e-05
8.18645e-05
-7.79346e-07
6.81283e-07
-4.97626e-07
4.82829e-07
-3.55356e-05
-7.51097e-05
3.33951e-06
0.000107371
-1.28634e-07
7.67869e-07
-6.84002e-07
6.08437e-08
1.7415e-07
-7.8853e-07
1.002e-06
-4.85793e-07
-1.04912e-06
6.99854e-07
-2.60315e-07
5.08638e-07
-0.000122891
8.39152e-06
-5.34503e-06
0.000119879
-0.000142263
-0.000103229
3.05897e-05
0.000214946
1.65664e-07
1.23497e-07
4.51637e-12
2.34941e-11
-5.40051e-11
1.00606e-07
1.45102e-07
9.84734e-11
5.26116e-07
1.64774e-07
-4.84471e-07
-2.66551e-07
-2.54729e-07
4.15378e-07
-3.43287e-07
1.29501e-07
-9.04545e-07
3.10332e-06
-3.00594e-06
7.18639e-07
-1.56962e-06
-1.12674e-06
3.1727e-07
2.47597e-06
-5.28784e-07
2.7376e-07
-4.47622e-07
4.26091e-07
5.43713e-07
2.38108e-07
-6.19674e-07
-4.52905e-07
1.02946e-06
6.92603e-07
-7.08997e-07
-7.80629e-07
1.12186e-06
-6.15154e-07
-1.13183e-06
8.98649e-07
7.63586e-07
-6.71847e-07
2.40998e-07
-2.00675e-07
-3.84596e-07
3.83045e-07
-1.8891e-07
9.61044e-08
-2.11289e-05
-0.000178909
3.58754e-05
0.000164185
-1.8493e-07
4.58108e-07
-7.35385e-07
3.56611e-07
6.2594e-08
7.24404e-08
-1.58269e-07
-4.01376e-08
-6.17024e-07
1.11832e-07
7.69787e-07
-3.73146e-07
4.6748e-07
-5.02779e-07
1.65555e-07
-2.06152e-07
5.7299e-07
1.87236e-07
-5.81454e-07
-4.31028e-07
1.34439e-07
1.60776e-07
-3.11511e-07
-3.35683e-08
2.6848e-07
-3.92151e-07
-4.81613e-07
3.65281e-07
3.24497e-05
-9.21678e-05
0.000117177
-5.69519e-05
-1.8123e-05
2.00232e-05
-5.61114e-05
5.42156e-05
-4.55171e-07
-2.08345e-07
6.42476e-07
1.20039e-07
-7.88969e-05
4.10317e-05
-4.40297e-05
8.17902e-05
9.51459e-08
-2.74021e-07
2.13015e-07
-1.33482e-07
8.8694e-07
3.02393e-07
-8.02519e-07
-5.31404e-07
-9.39761e-07
-2.43894e-07
7.78421e-07
5.41951e-07
-5.2366e-07
2.67325e-07
-2.49434e-07
2.91999e-07
-7.81774e-07
-1.85551e-07
5.2287e-07
3.44611e-07
-0.000237312
6.9886e-05
-0.000375486
0.000543746
3.66201e-07
-1.95891e-07
3.45741e-07
-2.80383e-07
4.85824e-05
-0.000244725
8.00955e-05
0.000115115
-0.000219664
0.000167834
-0.000391921
0.000442457
-9.68004e-05
-0.000306645
1.62756e-05
0.000387939
-0.000160451
4.14507e-05
-6.00865e-05
0.000179044
-0.000291667
-0.000306532
0.000123491
0.000475696
-4.48517e-08
3.30898e-08
-6.92905e-08
1.91124e-08
-2.57757e-05
-0.000272597
5.78378e-05
0.000241447
-2.3027e-07
-1.8075e-07
4.05537e-07
1.96463e-07
-0.000163428
0.000129909
-0.000196473
0.000229605
-0.000121654
-0.000123061
0.000156688
8.72284e-05
-1.79823e-05
0.000113973
-0.000297432
0.000201194
-0.000175722
-0.000174986
0.000120972
0.000229439
-0.000169643
-0.000167544
9.83057e-05
0.000238955
1.96536e-07
-1.1626e-07
2.06668e-07
-1.23985e-07
-1.42102e-07
-1.81899e-07
1.59307e-07
9.09252e-08
4.06452e-07
-9.86507e-07
7.66584e-07
-2.20247e-07
-4.3062e-05
2.55138e-05
-8.92696e-05
0.00010684
-3.25757e-07
2.81008e-07
6.36707e-08
-5.7579e-08
-8.40885e-09
8.30511e-07
-8.3109e-07
5.90612e-09
5.95226e-08
7.49654e-07
-7.03917e-07
-6.01496e-08
-2.81767e-07
-8.10974e-07
4.38374e-07
6.56838e-07
4.32751e-07
-5.55042e-08
5.12471e-08
-3.97923e-05
-0.00010011
0.000113024
3.06087e-07
4.17966e-07
-2.1749e-07
-9.42741e-05
-4.0343e-05
9.71545e-05
-3.85554e-07
-5.83453e-07
7.09268e-07
2.26029e-07
6.10208e-08
-4.08892e-07
3.57351e-07
-4.16259e-08
-0.00031538
-0.000142246
0.000115207
0.000342913
1.98901e-06
-2.42604e-06
1.43353e-06
-8.32747e-07
1.46568e-06
-2.53445e-06
2.02932e-06
-1.13182e-06
-2.50492e-05
3.44677e-05
-0.000107304
9.80591e-05
-6.70785e-07
3.21689e-06
-2.9134e-06
4.37692e-07
-1.8441e-07
-7.65041e-07
4.85956e-07
4.72567e-07
1.40485e-07
1.85209e-06
-1.92115e-06
-8.47482e-08
-2.05855e-06
3.04574e-06
1.396e-07
-1.13088e-06
-3.50563e-07
-3.36382e-07
3.48279e-07
2.4612e-07
-3.52038e-07
9.99836e-07
-7.77602e-07
2.46161e-07
4.34918e-07
-8.29066e-07
6.49006e-07
-3.806e-07
1.13175e-07
8.45779e-08
-2.46422e-07
-8.20938e-08
-1.87693e-08
1.01005e-07
-1.51155e-07
1.86102e-08
-0.000116347
-0.000224428
4.17583e-05
0.000299159
-4.07867e-05
1.68067e-05
-5.01871e-05
7.42127e-05
-4.10711e-05
-0.000277999
9.23335e-05
0.00022731
1.49101e-07
1.59607e-07
-1.69653e-07
-9.43816e-08
-2.27403e-06
1.99253e-06
7.32777e-07
-5.19875e-07
-1.36684e-07
4.07189e-07
-3.23129e-07
7.99552e-08
4.06606e-07
-7.52071e-07
5.90938e-07
-3.17019e-07
-3.20038e-07
1.07891e-06
-8.89567e-07
1.89896e-07
-3.37201e-07
-4.65736e-07
4.78488e-07
2.41049e-07
-3.85232e-05
-3.45146e-05
1.08113e-05
6.23093e-05
-3.45871e-08
4.39118e-07
-4.24834e-07
2.76277e-08
-7.49322e-07
1.28306e-06
-1.01523e-06
6.32913e-07
-1.47202e-06
-2.88964e-06
-9.50912e-07
5.34462e-06
-3.4139e-07
-1.55815e-06
1.57386e-06
3.38988e-07
-2.64236e-07
-3.01035e-06
3.06122e-06
1.90796e-07
-1.23411e-05
3.39207e-06
-1.02939e-05
1.92877e-05
-1.74472e-06
-2.56759e-06
2.73272e-06
1.38246e-06
-5.76635e-05
4.51116e-05
-0.000107602
0.000120309
-1.84755e-06
2.24821e-06
-1.85323e-06
1.61421e-06
-1.42829e-05
8.9054e-06
3.83465e-05
2.47929e-07
-3.19463e-07
7.76966e-08
-1.98512e-08
-8.65274e-07
-7.52663e-07
7.9181e-07
6.50821e-07
-9.01722e-07
-2.1601e-06
2.31813e-06
6.72024e-07
-3.80435e-05
2.03104e-05
-6.33886e-05
8.12244e-05
8.54446e-07
1.01516e-06
-1.27144e-06
-4.90423e-07
6.79353e-07
1.1855e-06
-1.61721e-06
-1.78454e-07
-2.01684e-07
1.7992e-06
-1.74084e-06
1.64311e-07
-9.23811e-07
-1.85125e-06
2.26046e-06
6.30805e-07
-7.77804e-07
9.09111e-07
-8.74345e-07
6.27302e-07
-2.05136e-06
-5.77839e-06
-7.7378e-08
7.98769e-06
6.46395e-07
-6.64776e-07
1.14814e-07
-8.05267e-08
1.15882e-06
1.09127e-06
-1.21187e-06
-8.54856e-07
3.47299e-07
-9.87397e-07
8.11739e-07
-2.12655e-07
-1.41738e-05
7.54364e-06
-4.84984e-05
5.54193e-05
-7.5932e-08
-5.90054e-07
5.23364e-07
1.61825e-07
-1.57104e-06
-1.12927e-06
1.53276e-06
1.00364e-06
-1.39023e-07
3.39641e-07
-3.84341e-07
1.08433e-07
3.98547e-07
3.00553e-07
-5.63363e-07
-2.71757e-07
1.16581e-07
-2.4946e-07
1.48373e-07
-8.15073e-08
-8.5976e-12
-8.64913e-08
-1.00759e-07
4.02035e-11
1.10709e-08
7.05073e-08
8.31816e-08
-3.63665e-09
5.10043e-07
-3.27004e-07
-7.08951e-07
3.78897e-07
-3.32046e-09
-7.83158e-08
2.63583e-08
-4.86026e-12
-5.6523e-08
-5.2628e-08
3.84845e-11
8.47234e-07
-8.08931e-07
3.92884e-07
-6.25179e-07
-7.79517e-09
6.5518e-08
7.57788e-08
-9.25099e-09
1.44747e-09
3.69146e-08
3.11975e-08
7.2489e-10
4.05385e-11
-1.12983e-07
-1.39704e-07
3.66448e-11
-5.28581e-07
6.20414e-07
-1.0375e-06
7.31061e-07
-5.4246e-07
-1.83002e-07
4.51503e-07
1.35812e-07
7.78782e-07
-5.81485e-07
5.55999e-07
-5.24631e-07
-1.25487e-07
3.58349e-07
-2.33037e-07
9.11331e-08
-3.78435e-07
5.11032e-07
-4.65087e-07
2.24607e-07
3.24523e-07
-4.90909e-07
1.46286e-07
-8.12428e-08
-7.12842e-07
-1.51901e-07
5.27664e-07
4.75175e-07
5.67259e-07
2.8465e-07
-4.65232e-07
-2.77398e-07
-3.5034e-11
-1.10087e-07
-9.59567e-08
9.2951e-11
-2.50184e-11
-3.56339e-08
-4.04042e-08
3.70738e-11
1.04231e-07
1.47601e-07
-1.06915e-07
-6.71317e-08
-7.44224e-08
8.94372e-08
-1.01675e-07
2.65331e-08
8.64281e-08
-1.86314e-07
9.12034e-08
-4.85747e-08
-7.22125e-08
-6.31229e-08
1.37103e-07
4.01957e-08
1.84552e-07
-6.72893e-07
5.88561e-07
-1.64652e-07
2.51425e-06
-2.97149e-06
-5.28192e-07
1.05363e-06
-1.03392e-06
-1.95961e-06
9.10466e-07
2.15439e-06
-2.21585e-07
4.91932e-07
-3.53358e-07
5.69558e-08
-8.36066e-07
1.29141e-06
-1.76538e-06
1.36785e-06
-2.77985e-05
1.40579e-05
6.51923e-05
5.2419e-07
-5.97258e-07
1.55936e-07
-3.82027e-08
-1.3842e-07
4.55939e-07
-3.77644e-07
9.32871e-08
-1.54145e-07
2.07089e-07
-1.96814e-07
9.92644e-08
2.90386e-07
2.13352e-06
-2.16533e-06
-2.31667e-07
-9.77299e-07
1.77127e-06
-9.64463e-07
2.56548e-07
1.06044e-06
1.18858e-06
-1.88976e-06
-2.70745e-07
8.63793e-07
-1.27653e-06
1.07559e-06
-5.90534e-07
-3.96923e-05
2.67706e-05
-5.53289e-05
6.87276e-05
-8.05247e-07
1.95043e-06
-1.68937e-06
4.78781e-07
5.30873e-07
-7.37642e-07
2.55758e-07
-1.34629e-07
-6.16973e-07
-7.76181e-07
8.25051e-07
4.44208e-07
-3.87478e-08
-1.07819e-06
1.05818e-06
3.81015e-08
8.81223e-07
-4.64284e-07
-4.46444e-07
1.14076e-07
-5.52812e-07
-3.20526e-07
4.42108e-07
3.46763e-07
-1.43349e-06
1.16308e-06
-1.02056e-06
1.33157e-06
-2.17924e-06
2.43087e-06
-7.54777e-07
4.26633e-07
-1.57408e-06
1.56615e-06
-8.27339e-07
9.7241e-07
-1.21992e-06
1.90509e-06
-8.99555e-07
3.11497e-07
-8.85545e-07
-3.15133e-07
8.58054e-07
2.2494e-07
-1.77195e-06
1.23696e-06
-2.60084e-06
3.16372e-06
2.96014e-07
-1.72449e-06
1.57487e-06
-2.13148e-07
-5.31537e-08
-7.93547e-07
7.60254e-07
5.28306e-08
-1.73313e-05
5.42391e-06
-2.49561e-05
3.68821e-05
6.15441e-07
-1.69519e-06
1.18926e-06
-1.51895e-07
7.11642e-07
1.5277e-06
-1.78401e-06
-4.07283e-07
7.52619e-07
-2.01925e-06
8.69052e-07
4.45528e-07
-4.06978e-07
1.2154e-06
3.30825e-07
1.16412e-06
1.46404e-06
-2.18546e-06
-5.29523e-07
-5.94673e-07
-1.53416e-06
1.92781e-06
1.59535e-07
3.96187e-07
-1.2907e-06
1.07673e-06
-2.89503e-07
-1.55063e-05
3.2719e-06
-1.9347e-05
3.16309e-05
-1.85222e-05
4.85961e-06
-2.01762e-05
3.38851e-05
1.42285e-06
9.90929e-07
-7.53613e-07
1.36712e-06
-2.01843e-06
1.34128e-06
-8.25198e-07
1.45557e-06
5.73846e-06
-3.12949e-05
2.41606e-05
-3.06363e-06
2.92519e-06
-4.87344e-07
6.40048e-07
-2.13814e-07
1.51291e-06
-1.48705e-06
1.627e-07
1.80334e-06
-1.92327e-06
8.60341e-07
-6.69397e-07
8.2539e-07
-2.60436e-06
2.29123e-06
-5.71022e-07
-4.24922e-07
-2.80955e-06
2.40822e-06
8.37213e-07
6.09372e-07
1.09677e-06
-1.2078e-06
-4.41792e-07
-2.18211e-05
4.85579e-06
-2.66923e-05
4.36961e-05
-1.27125e-06
-6.4741e-07
1.20704e-06
6.18527e-07
-2.4375e-06
2.206e-06
-2.06726e-06
2.36221e-06
-2.56218e-08
1.86508e-07
-1.84362e-07
1.72028e-08
8.42417e-08
-2.94973e-06
2.6109e-06
2.63886e-07
1.06867e-07
1.13489e-06
-1.17117e-06
-8.70433e-08
-5.74333e-07
1.47421e-06
-1.29399e-06
4.44852e-07
-2.30238e-06
2.40796e-06
-6.36002e-07
4.81838e-07
-1.79778e-06
7.91252e-07
1.22184e-06
-3.11705e-07
-6.07774e-08
-2.92124e-06
2.35284e-06
6.35746e-07
-1.74996e-08
-6.69745e-07
5.91355e-07
7.99686e-08
1.08054e-06
-9.58691e-07
-3.47719e-07
2.69293e-07
-2.43959e-06
7.46876e-06
-3.2536e-05
2.75375e-05
-9.21705e-08
3.48727e-07
-3.01702e-07
6.20022e-08
-1.18887e-07
-1.21823e-06
1.19936e-06
1.20859e-07
-1.1686e-06
-1.10504e-06
1.87854e-06
3.00545e-07
-1.26743e-06
-1.6531e-06
1.1896e-06
-1.75769e-06
2.00157e-06
-1.2469e-06
8.8182e-07
-2.94282e-05
1.38056e-05
-3.63167e-05
5.19403e-05
1.34535e-06
-1.54385e-06
-1.02169e-06
-6.88056e-07
-7.35054e-07
7.94767e-07
4.75948e-07
1.37476e-07
-2.90851e-06
1.8184e-06
9.96254e-07
9.9523e-07
-1.79309e-06
1.44012e-06
-7.42424e-07
-1.20223e-05
4.61506e-06
-4.42384e-05
5.16396e-05
-5.07133e-07
-7.6747e-07
8.33575e-07
3.50751e-07
-3.49316e-06
3.39773e-06
-7.28855e-06
7.43189e-06
1.08738e-06
7.9698e-07
-1.43137e-06
-5.25087e-07
-3.4865e-05
1.00146e-05
-1.73611e-05
4.22441e-05
2.02926e-07
-6.34156e-07
5.23957e-07
-1.68719e-07
-1.72652e-06
1.06336e-06
1.63736e-06
-1.1533e-06
1.52626e-06
1.02203e-06
-1.21741e-06
-1.14013e-06
-1.49936e-06
3.27029e-06
-1.14285e-05
9.68744e-06
1.49323e-07
-6.3045e-07
5.60348e-07
-1.24194e-07
4.07417e-07
6.34023e-07
-8.92899e-07
-1.93021e-07
-6.03326e-07
9.35129e-07
-6.40577e-07
3.81978e-07
-5.375e-07
-1.42039e-06
1.56584e-06
3.2649e-07
1.16829e-07
1.25525e-07
-1.51938e-07
-5.96622e-08
-3.53731e-07
2.81005e-07
1.01247e-07
-5.28472e-08
-1.32099e-06
1.50915e-06
-1.33789e-06
9.878e-07
1.50848e-06
-1.04323e-06
-1.35535e-06
1.08961e-06
4.44384e-07
2.15399e-07
-4.64285e-07
-1.11136e-07
5.94883e-07
-1.37991e-06
1.0622e-06
-4.2951e-07
-6.32449e-07
6.78964e-07
-3.53585e-07
4.12625e-07
1.6569e-07
1.98052e-07
-1.91378e-07
-1.06018e-07
-1.55753e-07
3.47512e-07
-1.86064e-07
3.89394e-08
-2.10297e-07
-1.14908e-06
1.0771e-06
1.92686e-07
3.33917e-06
-2.22025e-06
-2.62999e-09
-9.44991e-08
2.04378e-07
1.23776e-06
6.98524e-07
1.29948e-06
1.261e-05
5.1805e-05
-0.000107524
3.34151e-07
2.10915e-07
-6.85075e-07
-2.15605e-07
1.31816e-07
1.06164e-07
1.83821e-06
-4.46464e-05
-3.65534e-08
5.70033e-07
-6.39451e-08
-4.94522e-07
6.36758e-08
-4.69767e-07
9.64243e-06
-7.72833e-05
-1.02989e-07
8.08137e-07
-1.23293e-07
3.92607e-06
1.47719e-06
-4.04191e-08
5.09958e-09
9.37221e-08
1.84081e-05
4.43986e-05
-8.34946e-05
5.73368e-08
5.85516e-07
2.83395e-07
-3.44468e-06
0.000189421
-0.000443817
-0.000113638
-2.08045e-07
5.17053e-07
2.2125e-07
-2.64871e-07
4.83141e-07
-2.66002e-07
0.000289158
-0.000469778
0.000211493
-0.000324659
0.000104472
-1.34362e-05
-0.000282441
0.000143973
0.000132002
-1.39985e-07
3.28825e-07
8.98348e-08
-1.69347e-07
3.26634e-07
-1.1436e-07
9.56873e-07
-4.68086e-07
-5.05186e-07
2.51186e-06
-2.03736e-06
1.30737e-06
7.81951e-05
-0.000232615
-3.63887e-05
-0.000283947
0.000176667
-0.000133892
-1.80075e-06
2.19834e-06
-9.09476e-07
-8.30897e-07
9.46097e-07
-3.07728e-07
-6.89037e-07
9.18618e-07
2.40588e-07
0.000125365
-0.00021678
0.000151562
-0.000294088
7.99409e-05
0.000105946
-5.65844e-08
1.17019e-07
-1.53214e-08
-0.000347645
0.000163454
-0.00013407
9.99815e-07
-4.67954e-07
5.82097e-07
-3.04228e-07
3.61639e-07
-3.88517e-08
-1.15119e-06
1.71393e-06
1.26916e-06
-0.000251256
0.00010477
-3.93967e-05
2.8045e-06
-2.58493e-06
-8.97431e-07
-0.000105098
5.94708e-05
-5.33119e-05
-1.89467e-06
2.57882e-06
1.36469e-06
-0.000284467
8.92162e-05
6.80968e-05
-4.95831e-08
1.09743e-07
9.27112e-09
8.76004e-05
-0.00019248
-1.24791e-05
2.24409e-05
-7.0963e-05
1.55231e-05
-1.48106e-05
9.06941e-07
6.63122e-06
4.33197e-07
-3.16807e-07
-1.717e-07
6.30979e-07
-4.60606e-07
2.88415e-07
-1.01543e-05
2.08387e-06
6.92735e-06
-4.32893e-06
4.35295e-06
1.61231e-07
2.23126e-05
-4.9489e-05
1.89388e-05
1.51029e-07
-1.08559e-07
-1.99544e-08
-2.12594e-05
7.67111e-06
2.32347e-06
5.33036e-06
-5.28274e-06
-2.72916e-07
-3.20545e-06
3.24131e-06
-7.90734e-08
-7.43956e-08
-8.25529e-08
1.02835e-10
9.05157e-08
8.08755e-08
-2.47643e-09
-7.50264e-08
-6.64025e-08
4.23637e-11
-1.68269e-07
-1.75403e-07
-9.1085e-10
5.00307e-06
-4.95647e-06
3.13745e-07
-5.02045e-07
-1.66887e-06
2.1839e-06
-0.000402192
0.000255455
0.000295591
4.28047e-06
-4.44257e-06
4.98906e-07
-2.48406e-05
6.3847e-06
2.76377e-07
1.79941e-07
1.60344e-07
-1.16371e-08
-2.52395e-07
-1.74098e-07
1.31236e-09
2.13607e-08
-2.01845e-06
2.24302e-06
5.38738e-06
-5.75817e-06
7.72254e-07
-4.34419e-07
-1.15143e-08
4.73949e-07
-2.18798e-06
2.09153e-06
-1.54777e-07
-1.94778e-06
1.93073e-06
1.52684e-07
-5.67791e-07
1.35443e-07
-1.61083e-07
-1.28535e-06
1.27676e-06
-1.13753e-06
5.79345e-07
-5.34102e-07
-4.62429e-08
-9.84605e-07
7.0939e-07
6.04973e-07
-0.0002769
6.67242e-05
9.40205e-05
5.74511e-08
-1.23786e-07
-1.0592e-08
1.0869e-06
-6.43582e-07
6.93397e-07
4.80869e-06
-4.95211e-06
-8.88974e-07
3.5544e-07
-2.98458e-06
1.28399e-06
9.44178e-07
-1.13272e-06
-1.03287e-06
9.95921e-07
-8.61298e-07
-7.98392e-07
1.66034e-07
1.29224e-07
-4.94862e-11
-1.65299e-05
3.96484e-06
1.20036e-05
1.14035e-06
-6.51462e-07
8.19426e-07
1.04494e-06
-1.06569e-06
-5.67197e-07
1.51145e-06
-1.65591e-06
1.15946e-06
-4.37288e-06
4.06209e-06
1.49679e-06
-1.95739e-06
2.23896e-06
-1.49665e-06
7.68246e-07
-7.84542e-07
-2.67977e-07
1.84609e-06
-1.96143e-06
3.52871e-07
6.3947e-07
-6.76977e-07
3.5297e-07
-1.49791e-06
1.67143e-06
1.08035e-06
-4.28961e-06
3.9852e-06
-1.72266e-06
-2.68683e-06
2.4096e-06
-1.34872e-06
6.85434e-07
-5.31354e-07
3.56538e-07
5.40578e-07
-5.50736e-07
-2.72466e-07
1.25489e-06
-1.48634e-06
-3.49507e-07
-1.04349e-06
1.05498e-06
6.02211e-09
-1.63293e-06
5.02193e-07
-4.84921e-07
-9.04326e-07
8.76348e-07
-1.68142e-08
2.16818e-06
-2.42068e-06
-1.63988e-06
-5.91088e-07
5.5232e-07
3.86896e-08
0.000103182
-0.000131737
4.66457e-05
6.25131e-07
-5.59188e-07
3.44598e-08
-1.36998e-06
1.07485e-06
1.0705e-06
1.5395e-06
-1.23207e-06
1.14725e-06
1.45447e-07
1.82544e-07
-1.20267e-11
1.95192e-07
-1.76705e-07
-2.85865e-08
1.01991e-06
-9.09525e-07
-9.4083e-07
-0.000261322
3.13371e-05
8.78354e-05
-9.79653e-05
4.24976e-05
5.16265e-05
-0.000159259
6.85944e-05
5.82605e-06
8.84532e-07
-3.92129e-07
-5.36724e-07
-0.000221979
2.95285e-05
0.000157052
2.90717e-07
-2.86705e-07
-2.07906e-08
-7.5891e-07
6.99041e-07
-3.18405e-08
1.0968e-06
-1.10725e-06
-5.284e-09
-0.000296588
7.878e-05
0.0001475
5.3484e-08
-1.07733e-07
1.34877e-08
-0.000119549
3.92035e-05
6.97309e-05
-9.51955e-07
8.29768e-07
-2.73822e-07
-1.2857e-06
1.00582e-06
4.04488e-07
5.18328e-05
-0.000148879
5.73565e-05
-6.74728e-07
2.55365e-07
-4.2122e-07
0.000185625
-0.000553408
7.77859e-05
-7.53138e-07
2.71965e-07
-4.06634e-07
-0.000253067
0.000111993
6.19837e-05
-0.000254695
0.00015046
-5.96377e-05
-1.117e-06
1.05284e-06
-6.13757e-07
8.0976e-07
-6.51352e-07
-4.15257e-07
-0.000157996
0.000166598
2.49076e-05
-0.000532286
6.34951e-05
0.000373049
-0.000490159
0.000194373
0.000277461
-2.32936e-07
1.16375e-07
-5.87084e-08
-1.35273e-06
9.56263e-07
5.56496e-07
1.21602e-06
-1.71183e-06
1.0264e-06
1.35483e-06
-1.46265e-06
-1.02387e-06
-0.000289974
0.000107133
1.32086e-05
-0.000438332
0.000210326
0.000275127
-2.59113e-07
1.26868e-07
5.12228e-08
-0.000259782
0.00011497
0.000123785
-2.20819e-07
4.03624e-07
-1.75042e-07
7.02901e-07
-3.5966e-07
4.19531e-07
3.91593e-07
-4.84599e-07
1.09419e-07