/*--------------------------------*- C++ -*----------------------------------*\
  =========                 |
  \\      /  F ield         | OpenFOAM: The Open Source CFD Toolbox
   \\    /   O peration     | Website:  https://openfoam.org
    \\  /    A nd           | Version:  6
     \\/     M anipulation  |
\*---------------------------------------------------------------------------*/
FoamFile
{
    version     2.0;
    format      ascii;
    class       volScalarField;
    location    "2.66";
    object      nut;
}
// * * * * * * * * * * * * * * * * * * * * * * * * * * * * * * * * * * * * * //

dimensions      [0 2 -1 0 0 0 0];

internalField   nonuniform List<scalar> 
4214
(
0.00469928
0.0026694
0.00202496
0.00188543
0.00189595
0.00192656
0.00204854
0.0024466
0.00333925
0.00488315
0.00723032
0.0103418
0.0140474
0.0180822
0.0221845
0.0262189
0.0302088
0.0342803
0.038506
0.0428319
0.0470399
0.0508767
0.0543737
0.0581525
0.0634869
0.0736293
0.101326
0.146773
0.173789
0.162409
0.12505
0.080971
0.0444282
0.0206903
0.0086392
0.00386546
0.002412
0.00205805
0.00203114
0.00250338
0.00423012
0.00188161
0.00182923
0.00189103
0.0019369
0.0019467
0.00203348
0.00241899
0.00338607
0.00526362
0.00823025
0.0123463
0.0173156
0.0226978
0.028041
0.0330179
0.0375175
0.0416799
0.0457411
0.0497818
0.0536706
0.0571352
0.0599236
0.0620639
0.0642005
0.0677965
0.0762655
0.0996739
0.143062
0.176472
0.174306
0.14102
0.0955128
0.0547163
0.0263786
0.0110915
0.00469724
0.00262219
0.00213932
0.00201235
0.00188544
0.00179123
0.00198512
0.0020327
0.00202829
0.00198812
0.00201577
0.00234124
0.00332517
0.0054423
0.00918067
0.0146016
0.0214366
0.028927
0.036291
0.0429832
0.0487586
0.0536679
0.0579998
0.0619379
0.0655067
0.0686223
0.0709642
0.0721872
0.0723732
0.0723694
0.0739697
0.0808252
0.100696
0.140004
0.177423
0.18408
0.157163
0.111619
0.0667331
0.0333444
0.0142384
0.00582799
0.00293708
0.00221242
0.0021085
0.0020743
0.00201352
0.00212318
0.00209647
0.00203644
0.00201157
0.00223892
0.00313288
0.00535585
0.00971491
0.0167494
0.0260288
0.0366286
0.0472122
0.056772
0.0648723
0.0713971
0.0766024
0.0808913
0.0844677
0.0872832
0.0890981
0.0894067
0.0880164
0.0854109
0.0827806
0.0821328
0.0875804
0.104843
0.140011
0.177942
0.191686
0.172769
0.128789
0.0804573
0.0417675
0.018235
0.00733231
0.00338787
0.00229715
0.00212175
0.00211145
0.00210118
0.00215159
0.00209219
0.00203136
0.00214422
0.00285126
0.00494189
0.00964481
0.0181042
0.0304482
0.04519
0.0605222
0.0746397
0.0865089
0.0959658
0.103158
0.108601
0.112618
0.115315
0.116557
0.11572
0.112483
0.10717
0.100845
0.0951999
0.0923519
0.0969486
0.112664
0.143503
0.179687
0.197805
0.186645
0.14603
0.0954593
0.0515718
0.023147
0.009272
0.0040096
0.0024352
0.00212935
0.00210805
0.00210307
0.00215233
0.00207925
0.00208984
0.00255589
0.00428351
0.008813
0.0181774
0.0334636
0.0535918
0.0753689
0.0962191
0.114003
0.127824
0.13803
0.145127
0.149856
0.152493
0.153135
0.151114
0.146041
0.137982
0.12791
0.117569
0.109253
0.104975
0.109421
0.124164
0.150641
0.183086
0.203241
0.197983
0.162216
0.111091
0.0624987
0.0289653
0.0116917
0.00483199
0.00264581
0.0021528
0.00210256
0.00209358
0.00215
0.00209258
0.00232086
0.00355772
0.0073755
0.0166196
0.0340071
0.059584
0.0900292
0.119882
0.145934
0.165534
0.178729
0.18713
0.191819
0.193873
0.193367
0.190062
0.183649
0.174026
0.161536
0.147557
0.134426
0.12496
0.120648
0.125607
0.139142
0.161678
0.188746
0.208207
0.20647
0.175996
0.125918
0.0739029
0.0354886
0.0145738
0.00587125
0.00294166
0.00220158
0.00210343
0.00209096
0.00215049
0.00218949
0.00292721
0.00575359
0.0136446
0.0313135
0.0611611
0.100447
0.142911
0.178712
0.205097
0.220096
0.227298
0.229917
0.229646
0.226748
0.221585
0.214329
0.204872
0.193173
0.17954
0.165097
0.152048
0.143426
0.140381
0.145384
0.157004
0.175746
0.196702
0.212776
0.212324
0.186118
0.138404
0.0846512
0.0422318
0.0177872
0.00711221
0.00332657
0.00228174
0.00211146
0.00209609
0.00217471
0.00248305
0.00428042
0.0102404
0.0254866
0.0566861
0.10386
0.158934
0.208604
0.239205
0.2545
0.259134
0.257823
0.253118
0.246318
0.238374
0.229913
0.221066
0.211853
0.201988
0.191011
0.179841
0.170542
0.164418
0.1632
0.167506
0.176814
0.190925
0.20608
0.216927
0.215347
0.191432
0.146637
0.093139
0.0483417
0.0210245
0.00848179
0.00378792
0.00239611
0.00212651
0.00210629
0.0022745
0.00316679
0.0069924
0.0186945
0.0458631
0.0967145
0.163161
0.222553
0.261846
0.280064
0.28287
0.2766
0.265785
0.253626
0.24202
0.231683
0.222908
0.215417
0.208846
0.202796
0.197035
0.191499
0.187173
0.184726
0.185304
0.188881
0.195592
0.204847
0.214326
0.219442
0.214429
0.190772
0.14878
0.0975019
0.0526285
0.0237647
0.00982115
0.00428484
0.00254042
0.00214806
0.00211878
0.00253368
0.00453597
0.0118561
0.0330278
0.0772308
0.144343
0.215775
0.269145
0.296234
0.30104
0.291648
0.275006
0.25689
0.240357
0.226841
0.216779
0.209421
0.204504
0.201433
0.199642
0.198622
0.198153
0.198303
0.199331
0.201451
0.204777
0.209285
0.214328
0.218251
0.21766
0.207888
0.183643
0.143857
0.0961158
0.053813
0.0253231
0.0108768
0.00473688
0.00269842
0.00217383
0.00213095
0.00303566
0.00694085
0.0195019
0.0502603
0.107034
0.182736
0.253217
0.297917
0.313476
0.306946
0.28755
0.263875
0.241332
0.222593
0.208677
0.198907
0.192778
0.18972
0.189315
0.190674
0.193319
0.196201
0.199365
0.202889
0.206517
0.209991
0.212987
0.214735
0.213807
0.207775
0.194082
0.168614
0.131344
0.0885133
0.0510711
0.0250394
0.0113406
0.00502578
0.00283896
0.00219772
0.00214003
0.00379462
0.00942923
0.0258928
0.062921
0.126154
0.205001
0.273429
0.31205
0.319866
0.305189
0.279105
0.25063
0.225105
0.204738
0.189864
0.179689
0.173527
0.170589
0.170902
0.173345
0.177353
0.182302
0.187637
0.19284
0.197443
0.200983
0.202775
0.201825
0.197362
0.187519
0.170424
0.144804
0.11119
0.0748436
0.0444279
0.0226459
0.0109768
0.00502733
0.00292012
0.00220921
0.00214243
0.00418054
0.0103868
0.0277373
0.0656033
0.129987
0.209695
0.279092
0.316562
0.321605
0.302042
0.271324
0.239035
0.210641
0.188078
0.171406
0.159665
0.152158
0.14808
0.147189
0.148822
0.152253
0.156921
0.162259
0.167681
0.172393
0.175589
0.176215
0.173797
0.167246
0.15544
0.137445
0.113516
0.0855687
0.0570784
0.034996
0.0184847
0.00978214
0.00467743
0.00290523
0.00219631
0.00213349
0.00390468
0.00916177
0.0242128
0.0578146
0.118607
0.197545
0.273809
0.314329
0.321676
0.299828
0.266145
0.230478
0.199055
0.173821
0.154491
0.140683
0.130933
0.125145
0.12212
0.121764
0.123294
0.126183
0.129804
0.133668
0.136881
0.138622
0.137947
0.134416
0.126888
0.115071
0.0988197
0.0791423
0.0588916
0.0387978
0.0249709
0.0135754
0.00805808
0.00404171
0.00278931
0.00215309
0.00210901
0.00322825
0.00657746
0.0174258
0.0425655
0.0963345
0.167691
0.256861
0.303127
0.320407
0.298674
0.263148
0.225089
0.190941
0.163412
0.140618
0.125293
0.112766
0.105377
0.100261
0.097927
0.0968812
0.0972823
0.0980902
0.0993172
0.0998835
0.0994805
0.0972209
0.0928824
0.0853056
0.0753077
0.0627844
0.0486568
0.036497
0.0237779
0.0166133
0.00920483
0.00633685
0.00333166
0.00262364
0.0020884
0.00206861
0.00267375
0.00404015
0.0107238
0.0245674
0.0713761
0.120951
0.232157
0.276606
0.317546
0.300421
0.262277
0.226828
0.185913
0.15934
0.13048
0.115569
0.0995338
0.0917473
0.0843537
0.0810926
0.0778323
0.0763187
0.0742363
0.073199
0.0708518
0.0688874
0.0646329
0.060362
0.053093
0.0459096
0.0374506
0.0283456
0.0222733
0.0143552
0.0113479
0.00631983
0.0051537
0.00281423
0.0025175
0.00202673
0.00202059
0.00219284
0.00221543
0.00221565
0.00220214
0.0021805
0.00215502
0.00212912
0.00210521
0.00208554
0.00207272
0.00206999
0.00208031
0.00209928
0.00208859
0.00193253
0.00189735
0.00943113
0.00218373
0.00219647
0.00218988
0.00217259
0.00214964
0.00212471
0.00210063
0.00207932
0.00206255
0.00205257
0.00205244
0.00206536
0.00208798
0.00208462
0.00194084
0.00186709
0.00951639
0.00217985
0.00217001
0.00215323
0.00213322
0.0021119
0.00209069
0.00207096
0.00205385
0.00204075
0.0020338
0.00203625
0.00205176
0.00207807
0.00208212
0.00195003
0.00186137
0.00954364
0.00216333
0.00214472
0.00212392
0.00210304
0.00208274
0.00206367
0.00204656
0.00203221
0.00202174
0.00201715
0.00202173
0.00203956
0.00206947
0.00208091
0.00196126
0.00187049
0.00955325
0.00211236
0.00209932
0.00208438
0.00206873
0.00205311
0.0020382
0.00202469
0.00201335
0.00200534
0.00200275
0.00200909
0.00202891
0.00206225
0.00208111
0.00197502
0.00189486
0.00954422
0.00210032
0.0020816
0.00206418
0.00204823
0.00203355
0.00202014
0.00200829
0.00199856
0.001992
0.0019907
0.00199829
0.00201972
0.00205626
0.00208247
0.00199138
0.00193329
0.00951533
0.00205803
0.00204766
0.00203664
0.0020254
0.00201426
0.00200362
0.00199398
0.00198601
0.00198085
0.00198066
0.00198924
0.00201201
0.00205148
0.00208482
0.00201026
0.00198459
0.00946017
0.00205036
0.00203668
0.00202416
0.00201266
0.00200208
0.00199241
0.00198382
0.0019768
0.00197245
0.00197292
0.00198218
0.00200601
0.00204811
0.00208822
0.00203164
0.00204797
0.00937068
0.00202532
0.00201689
0.00200826
0.00199967
0.00199126
0.00198324
0.00197592
0.00196988
0.00196628
0.00196737
0.00197726
0.0020021
0.00204656
0.00209301
0.00205588
0.00212285
0.00924072
0.0020213
0.00201128
0.00200203
0.00199342
0.00198539
0.00197795
0.00197127
0.00196583
0.00196277
0.0019644
0.00197494
0.00200082
0.00204748
0.00209989
0.00208391
0.00220931
0.00906694
0.00200998
0.00200268
0.00199545
0.00198841
0.00198161
0.00197511
0.00196917
0.00196435
0.00196187
0.00196416
0.00197557
0.00200272
0.00205162
0.00211
0.00211747
0.00230817
0.00884941
0.00200903
0.00200157
0.0019945
0.00198779
0.00198138
0.00197533
0.00196988
0.0019656
0.00196378
0.00196696
0.00197954
0.00200837
0.00205992
0.00212493
0.00215929
0.00242095
0.00859117
0.00200773
0.00200136
0.00199523
0.0019893
0.00198356
0.00197809
0.00197318
0.00196953
0.00196855
0.00197292
0.00198714
0.00201832
0.00207344
0.00214686
0.00221305
0.00254968
0.00829711
0.00200938
0.00200404
0.00199872
0.00199345
0.00198826
0.00198331
0.00197897
0.00197608
0.0019762
0.0019822
0.00199878
0.00203336
0.00209368
0.00217865
0.00228315
0.00269603
0.00797295
0.00201537
0.00200995
0.00200487
0.00199996
0.0019952
0.00199076
0.0019871
0.0019852
0.00198684
0.00199509
0.00201504
0.00205457
0.00212272
0.00222398
0.00237423
0.00286074
0.00762489
0.00201941
0.00201592
0.00201205
0.00200798
0.00200388
0.00200012
0.00199738
0.00199685
0.00200062
0.00201203
0.00203679
0.00208355
0.00216326
0.00228708
0.00249069
0.00304316
0.00725983
0.00203046
0.00202609
0.00202211
0.00201824
0.00201456
0.00201151
0.00200995
0.00201133
0.00201799
0.00203388
0.00206544
0.00212258
0.00221876
0.0023722
0.0026341
0.00323695
0.00688317
0.00203671
0.00203495
0.00203239
0.00202941
0.00202657
0.00202469
0.00202491
0.00202899
0.00203978
0.00206195
0.00210307
0.00217473
0.00229321
0.00248295
0.00280318
0.00342843
0.0064987
0.00205106
0.00204797
0.00204518
0.00204246
0.00204046
0.00204012
0.0020428
0.00205065
0.00206717
0.00209804
0.00215225
0.00224329
0.00238995
0.00262027
0.00298949
0.00360727
0.00611086
0.00205952
0.00205941
0.00205804
0.00205647
0.00205605
0.00205806
0.00206421
0.00207728
0.00210166
0.00214429
0.00221574
0.00233112
0.00251055
0.0027812
0.00318315
0.00376047
0.00572463
0.00207577
0.00207433
0.00207301
0.00207245
0.00207404
0.0020792
0.00209005
0.00211015
0.002145
0.0022029
0.0022958
0.00243965
0.00265364
0.00295852
0.0033705
0.00387511
0.00534465
0.00208683
0.00208833
0.00208861
0.00209017
0.00209469
0.00210408
0.00212117
0.00215051
0.00219874
0.00227541
0.00239327
0.0025677
0.00281387
0.00314073
0.00353603
0.00394187
0.00497706
0.00210429
0.00210498
0.00210643
0.00211036
0.00211852
0.00213333
0.00215837
0.00219919
0.00226355
0.00236177
0.00250641
0.00271033
0.00298149
0.00331326
0.00366531
0.00395438
0.00462731
0.00211873
0.00212191
0.00212569
0.00213299
0.0021458
0.00216728
0.00220193
0.00225623
0.00233867
0.00245969
0.00263035
0.00285896
0.00314384
0.00346147
0.00374794
0.00390865
0.00430131
0.00213644
0.00214118
0.00214746
0.00215837
0.00217659
0.00220583
0.00225137
0.00232036
0.00242152
0.00256447
0.00275744
0.00300254
0.00328738
0.00357281
0.00377803
0.00380799
0.00400443
0.00215488
0.00216128
0.00217077
0.00218597
0.00221013
0.00224757
0.00230422
0.00238754
0.00250598
0.00266763
0.00287723
0.00313053
0.00340579
0.00365267
0.00378321
0.00371233
0.00375409
0.00217476
0.00218341
0.0021957
0.00221491
0.00224474
0.00228992
0.00235671
0.00245262
0.00258548
0.00276166
0.00298253
0.00323848
0.00350075
0.00371228
0.00378391
0.00364091
0.00356051
0.00219533
0.00220581
0.00222104
0.00224401
0.00227879
0.00233044
0.0024054
0.00251102
0.00265446
0.00284058
0.00306813
0.0033238
0.00357456
0.00376012
0.00379266
0.00360399
0.00343135
0.0022171
0.00222947
0.00224671
0.00227239
0.00231066
0.00236674
0.00244697
0.00255853
0.00270801
0.0028994
0.0031301
0.00338524
0.0036303
0.00380438
0.00382104
0.00361272
0.00337572
0.00223928
0.00225287
0.00227178
0.00229906
0.00233903
0.00239688
0.0024788
0.00259179
0.00274225
0.00293409
0.00316506
0.00342118
0.00366945
0.00385051
0.00387791
0.00367719
0.00340401
0.00226252
0.00227711
0.00229641
0.0023238
0.00236325
0.00241985
0.00249944
0.00260885
0.00275467
0.00294162
0.00316949
0.00342794
0.00368899
0.00389758
0.00396614
0.00380434
0.00352759
0.00228636
0.00230131
0.00232057
0.00234674
0.00238362
0.00243591
0.00250913
0.00260977
0.0027448
0.0029204
0.00313977
0.0033989
0.00367897
0.00393428
0.00407851
0.00399795
0.00375823
0.00231168
0.00232693
0.00234518
0.00236904
0.0024016
0.00244699
0.00251026
0.00259733
0.00271533
0.00287193
0.00307428
0.00332646
0.00362321
0.00393644
0.00419121
0.00425174
0.00410751
0.00233842
0.00235377
0.00237118
0.00239228
0.00241965
0.00245662
0.00250748
0.00257752
0.00267329
0.00280324
0.00297767
0.00320847
0.00350645
0.00387092
0.00425975
0.00453676
0.00458605
0.00236788
0.00238352
0.00239996
0.00241853
0.00244085
0.00246937
0.00250731
0.00255902
0.00263012
0.00272834
0.00286509
0.00305715
0.00332892
0.00371172
0.00422443
0.00479331
0.00520294
0.00240071
0.00241699
0.00243289
0.00244952
0.002468
0.00248959
0.00251641
0.00255151
0.00259919
0.00266576
0.00276112
0.00290226
0.0031196
0.00346791
0.00403929
0.00492518
0.005965
0.00243428
0.00245358
0.0024707
0.00248661
0.00250267
0.00251995
0.0025392
0.00256221
0.00259173
0.00263207
0.00269058
0.00278077
0.00292978
0.00319693
0.00372117
0.00482275
0.00687605
0.00246681
0.00249003
0.00251078
0.00252891
0.00254494
0.00256034
0.00257619
0.00259277
0.00261167
0.00263531
0.00266803
0.00271839
0.00280545
0.00297617
0.00336565
0.00444351
0.0079363
0.00249826
0.00252563
0.00255038
0.00257244
0.00259165
0.00260829
0.00262405
0.00263928
0.00265462
0.00267135
0.00269162
0.00271965
0.00276546
0.00285673
0.00308786
0.00389651
0.00914201
0.00252754
0.00255953
0.0025888
0.0026152
0.00263871
0.00265925
0.00267728
0.00269458
0.00271145
0.00272875
0.00274764
0.00277001
0.00279987
0.00284822
0.00295723
0.00338556
0.0104852
0.00225004
0.00224399
0.0022423
0.0022445
0.00224858
0.0022533
0.00225835
0.00226387
0.0022703
0.00227797
0.00228745
0.00229894
0.00231298
0.00232965
0.00234923
0.00237175
0.00239713
0.00242511
0.00245527
0.00248726
0.00252481
0.00256691
0.00259619
0.00262217
0.00264497
0.00266433
0.00268009
0.0026923
0.00270099
0.00270626
0.00270814
0.00270669
0.00270198
0.00269404
0.00268297
0.00266878
0.00265167
0.00263169
0.00260901
0.00258327
0.00255505
0.00223585
0.00223034
0.00223019
0.00223409
0.00223962
0.00224552
0.00225167
0.00225829
0.00226593
0.00227491
0.00228585
0.00229893
0.00231471
0.00233323
0.00235478
0.00237936
0.00240686
0.00243702
0.00246938
0.00250355
0.00254312
0.00258676
0.00261804
0.00264632
0.0026715
0.00269324
0.00271135
0.00272575
0.00273646
0.00274348
0.00274686
0.0027466
0.00274276
0.00273537
0.0027245
0.00271022
0.00269266
0.00267201
0.00264839
0.00262157
0.00259111
0.0022231
0.00221872
0.00222073
0.00222656
0.00223346
0.00224042
0.00224749
0.00225514
0.00226387
0.00227418
0.00228648
0.00230118
0.00231859
0.00233896
0.00236241
0.00238896
0.00241847
0.00245065
0.00248504
0.00252119
0.00256254
0.00260733
0.00264046
0.00267083
0.00269818
0.00272211
0.00274237
0.00275882
0.00277139
0.00278005
0.00278479
0.00278558
0.00278246
0.00277545
0.0027646
0.00274999
0.00273174
0.00271011
0.00268529
0.00265721
0.00262487
0.00221276
0.00221035
0.00221507
0.00222282
0.00223085
0.0022386
0.00224644
0.00225496
0.00226474
0.00227624
0.0022899
0.0023061
0.00232513
0.00234723
0.00237247
0.00240086
0.00243223
0.00246626
0.00250249
0.00254039
0.00258326
0.00262887
0.00266369
0.00269593
0.0027252
0.00275109
0.00277327
0.00279155
0.00280579
0.00281591
0.00282183
0.0028235
0.00282092
0.0028141
0.00280306
0.0027879
0.00276873
0.00274582
0.00271947
0.00268981
0.00265588
0.00220615
0.00220682
0.00221466
0.00222398
0.00223266
0.00224081
0.00224915
0.00225839
0.00226907
0.00228167
0.00229659
0.00231419
0.00233475
0.00235844
0.00238535
0.00241541
0.00244845
0.00248413
0.00252196
0.0025614
0.0026055
0.00265161
0.00268795
0.00272182
0.00275277
0.00278035
0.00280421
0.00282407
0.00283975
0.00285109
0.00285798
0.00286033
0.00285808
0.00285125
0.00283983
0.00282391
0.0028036
0.00277918
0.00275099
0.00271935
0.0026838
0.00220503
0.00221041
0.0022211
0.00223108
0.00223966
0.00224775
0.00225633
0.00226608
0.00227752
0.00229108
0.00230714
0.00232601
0.00234794
0.00237307
0.00240146
0.00243301
0.0024675
0.00250459
0.00254378
0.00258449
0.00262951
0.00267589
0.00271352
0.00274876
0.00278112
0.00281013
0.00283537
0.00285654
0.00287338
0.00288569
0.00289331
0.0028961
0.00289398
0.00288694
0.00287496
0.00285811
0.0028365
0.0028104
0.00278015
0.00274615
0.00270855
0.00221245
0.00222374
0.00223575
0.00224494
0.0022526
0.00226021
0.00226875
0.00227881
0.00229084
0.00230519
0.00232222
0.00234218
0.00236529
0.00239167
0.00242132
0.00245411
0.00248981
0.00252804
0.00256831
0.00261001
0.00265563
0.00270204
0.00274071
0.00277704
0.00281053
0.00284066
0.00286698
0.00288915
0.00290686
0.00291986
0.00292795
0.00293094
0.00292874
0.00292132
0.00290863
0.00289071
0.00286769
0.00283981
0.00280739
0.00277076
0.0027302
0.00223295
0.00224885
0.00225926
0.00226616
0.00227228
0.00227911
0.00228737
0.00229752
0.0023099
0.00232484
0.00234261
0.00236344
0.00238751
0.00241489
0.00244554
0.0024793
0.00251592
0.002555
0.00259603
0.00263841
0.00268428
0.00273048
0.00276989
0.00280702
0.00284131
0.00287223
0.0028993
0.00292213
0.00294039
0.00295378
0.00296207
0.00296504
0.00296257
0.00295461
0.00294109
0.00292204
0.00289756
0.00286787
0.00283324
0.00279379
0.00275095
0.00227131
0.00228593
0.00229168
0.00229544
0.00229977
0.00230558
0.00231331
0.00232328
0.00233577
0.00235102
0.00236927
0.00239071
0.00241545
0.00244353
0.00247487
0.0025093
0.0025465
0.00258608
0.00262753
0.00267024
0.00271599
0.0027617
0.00280152
0.00283909
0.00287382
0.00290516
0.0029326
0.00295574
0.0029742
0.00298768
0.00299589
0.00299862
0.00299573
0.00298712
0.00297272
0.00295253
0.00292662
0.00289515
0.00285829
0.00281623
0.00277265
0.00232853
0.00233337
0.00233335
0.00233404
0.0023365
0.00234106
0.00234797
0.00235745
0.00236972
0.00238497
0.00240339
0.0024251
0.00245018
0.00247862
0.00251029
0.00254499
0.0025824
0.0026221
0.00266357
0.00270619
0.00275141
0.00279629
0.00283613
0.00287373
0.00290848
0.00293981
0.00296721
0.00299026
0.00300856
0.0030218
0.00302969
0.00303199
0.00302854
0.00301924
0.00300396
0.00298269
0.00295544
0.00292225
0.00288309
0.00284055
0.00279533
0.00239704
0.00239054
0.00238604
0.00238392
0.00238432
0.00238731
0.00239304
0.00240168
0.00241337
0.00242825
0.00244647
0.00246807
0.0024931
0.00252147
0.00255305
0.0025876
0.00262476
0.0026641
0.0027051
0.00274716
0.00279136
0.00283501
0.00287436
0.00291149
0.00294576
0.00297661
0.0030035
0.00302602
0.00304378
0.00305646
0.00306378
0.00306548
0.00306141
0.00305141
0.00303536
0.00301316
0.00298471
0.00294987
0.00291027
0.00286676
0.00282028
0.00247143
0.00246078
0.00245256
0.00244747
0.00244545
0.00244653
0.0024507
0.00245811
0.00246882
0.00248293
0.00250051
0.00252156
0.00254605
0.00257388
0.00260485
0.0026387
0.00267506
0.00271348
0.00275343
0.00279432
0.0028369
0.0028788
0.00291704
0.00295308
0.00298627
0.00301605
0.0030419
0.0030634
0.0030802
0.00309199
0.0030985
0.0030995
0.0030948
0.00308422
0.00306758
0.00304469
0.00301529
0.00298017
0.00294042
0.0028963
0.00284918
0.00256119
0.00254729
0.00253585
0.00252745
0.00252269
0.00252153
0.00252383
0.00252962
0.00253895
0.00255183
0.00256827
0.00258824
0.00261164
0.00263831
0.00266804
0.00270052
0.00273537
0.00277214
0.00281028
0.00284923
0.00288943
0.00292886
0.0029652
0.00299937
0.00303073
0.00305873
0.00308289
0.00310283
0.00311822
0.00312879
0.0031343
0.00313454
0.00312929
0.00311834
0.00310144
0.00307827
0.00304891
0.00301453
0.0029751
0.00293122
0.00288442
0.00266909
0.00265199
0.00263823
0.00262737
0.00261976
0.00261619
0.00261639
0.00262026
0.00262779
0.00263896
0.00265371
0.00267195
0.00269355
0.00271829
0.00274594
0.00277616
0.00280857
0.0028427
0.00287804
0.002914
0.00295081
0.00298678
0.00302018
0.00305145
0.00308002
0.00310538
0.00312711
0.00314485
0.00315834
0.00316735
0.00317171
0.00317121
0.00316561
0.00315467
0.00313805
0.0031154
0.00308764
0.00305464
0.00301672
0.00297439
0.00292936
0.00279799
0.00277885
0.00276353
0.00275112
0.00274191
0.00273602
0.00273413
0.00273592
0.00274132
0.00275027
0.00276267
0.0027784
0.00279727
0.00281905
0.00284347
0.0028702
0.00289884
0.00292896
0.00296006
0.00299159
0.00302357
0.00305471
0.00308373
0.00311076
0.00313531
0.00315693
0.00317529
0.0031901
0.00320116
0.00320831
0.00321141
0.0032103
0.00320474
0.00319442
0.00317889
0.00315855
0.00313338
0.00310338
0.00306879
0.00303001
0.00298902
0.00295165
0.00293277
0.00291792
0.00290554
0.00289592
0.00288928
0.00288575
0.0028856
0.00288871
0.00289496
0.00290424
0.00291641
0.00293128
0.0029486
0.00296813
0.00298953
0.00301245
0.00303649
0.00306123
0.00308622
0.00311129
0.00313558
0.00315823
0.00317919
0.00319807
0.00321455
0.00322839
0.0032394
0.00324745
0.00325244
0.00325429
0.00325287
0.00324796
0.0032392
0.00322653
0.00321002
0.00318948
0.00316492
0.00313647
0.00310439
0.00307101
0.00313542
0.003121
0.00311032
0.00310117
0.00309378
0.00308834
0.00308496
0.00308374
0.00308475
0.00308792
0.00309315
0.00310032
0.00310928
0.00311986
0.00313185
0.00314502
0.00315911
0.00317385
0.00318894
0.00320408
0.00321911
0.00323356
0.00324699
0.00325931
0.0032703
0.00327979
0.00328765
0.0032938
0.00329819
0.00330077
0.00330151
0.00330033
0.00329709
0.00329154
0.00328375
0.00327353
0.0032608
0.00324549
0.00322763
0.00320733
0.00318726
0.0108697
0.00230284
0.00190932
0.00211657
0.00217916
0.00219753
0.00221546
0.00222909
0.00223207
0.00223388
0.0022579
0.00232854
0.00245293
0.00256392
0.00254954
0.00247902
0.00246476
0.0110675
0.00217253
0.00194484
0.00214879
0.00220249
0.00222151
0.00224435
0.00226879
0.00228706
0.00229829
0.00230718
0.00232012
0.00234296
0.00237579
0.00241011
0.00244534
0.00247624
0.01105
0.00203541
0.00198883
0.0021812
0.00222663
0.00224508
0.00226994
0.00229938
0.00232643
0.00234807
0.00236526
0.00238096
0.00239845
0.00241966
0.00244353
0.00246541
0.00248147
0.0108951
0.00199231
0.00203783
0.00221277
0.00225019
0.002267
0.00229093
0.00232012
0.00234896
0.00237422
0.00239496
0.00241195
0.00242645
0.00243939
0.00245123
0.0024614
0.00246919
0.010667
0.00198482
0.00208804
0.0022429
0.00227258
0.0022872
0.00230858
0.00233428
0.00235963
0.0023821
0.00240095
0.0024165
0.00242947
0.00244055
0.00245042
0.00245961
0.00246838
0.0104134
0.00200512
0.00213614
0.00226997
0.00229232
0.00230472
0.00232408
0.00234731
0.00237005
0.00239009
0.00240689
0.00242078
0.00243232
0.0024422
0.00245099
0.00245911
0.00246717
0.0101423
0.00204526
0.00217978
0.00229299
0.00230815
0.00231793
0.00233499
0.0023556
0.00237557
0.0023929
0.00240702
0.0024181
0.00242667
0.00243361
0.0024397
0.00244485
0.00244885
0.00986178
0.00210064
0.00221748
0.00231152
0.00231981
0.00232684
0.00234199
0.00236079
0.00237898
0.00239471
0.00240764
0.00241814
0.00242671
0.00243378
0.00243967
0.00244458
0.00244862
0.00957202
0.00216853
0.00224983
0.00232574
0.00232748
0.0023314
0.00234472
0.00236239
0.00237987
0.00239508
0.00240745
0.00241725
0.002425
0.00243122
0.00243642
0.00244113
0.00244598
0.00927108
0.00224875
0.00227848
0.00233657
0.00233188
0.00233216
0.00234314
0.00235935
0.00237604
0.00239084
0.00240291
0.00241223
0.00241917
0.00242419
0.00242763
0.00242972
0.00243058
0.00895702
0.00234285
0.00230649
0.00234559
0.00233423
0.00233037
0.00233861
0.00235327
0.0023694
0.00238431
0.00239684
0.00240676
0.00241433
0.00242
0.00242422
0.00242727
0.00242922
0.00862838
0.00245302
0.00233815
0.00235495
0.0023361
0.00232726
0.00233202
0.00234459
0.0023598
0.00237468
0.00238769
0.00239824
0.00240634
0.00241241
0.00241701
0.00242087
0.00242481
0.00828481
0.00258139
0.00237857
0.00236754
0.00233946
0.00232449
0.00232483
0.00233451
0.00234819
0.00236261
0.00237592
0.00238719
0.00239601
0.00240239
0.00240654
0.00240875
0.00240929
0.00792728
0.00272911
0.00243346
0.00238708
0.00234679
0.00232395
0.0023187
0.00232452
0.00233591
0.00234931
0.00236266
0.00237475
0.00238494
0.00239299
0.00239897
0.00240311
0.00240558
0.00755745
0.00289413
0.00250862
0.00241804
0.00236105
0.00232784
0.00231537
0.0023161
0.00232418
0.00233568
0.00234827
0.00236053
0.00237158
0.00238088
0.00238829
0.00239419
0.00239955
0.00717754
0.00307042
0.00260845
0.00246535
0.00238571
0.00233878
0.00231684
0.00231096
0.00231454
0.00232317
0.00233417
0.00234586
0.00235718
0.00236727
0.0023754
0.00238107
0.00238411
0.00678975
0.00325085
0.00273442
0.00253369
0.00242467
0.00235973
0.00232535
0.00231087
0.0023085
0.00231314
0.00232163
0.00233202
0.0023431
0.00235399
0.00236387
0.00237198
0.00237759
0.00639763
0.00342836
0.00288441
0.00262637
0.00248173
0.00239383
0.00234348
0.00231771
0.00230756
0.00230685
0.00231174
0.00231984
0.00232967
0.00234029
0.00235092
0.00236091
0.00237006
0.00600729
0.00359631
0.00305221
0.00274402
0.0025598
0.00244406
0.00237367
0.00233355
0.00231325
0.00230555
0.00230563
0.00231047
0.00231819
0.00232758
0.00233775
0.00234762
0.0023557
0.00562121
0.00374673
0.00322751
0.00288358
0.00265985
0.00251255
0.00241809
0.0023602
0.00232708
0.00231033
0.00230416
0.00230472
0.00230957
0.00231715
0.00232653
0.00233696
0.00234702
0.00524117
0.00386167
0.00339646
0.00303779
0.00277997
0.00259985
0.00247815
0.00239912
0.00235027
0.00232218
0.00230803
0.00230307
0.00230413
0.00230915
0.00231688
0.00232674
0.00233866
0.00487363
0.00392814
0.00354433
0.00319603
0.00291503
0.00270428
0.00255375
0.00245089
0.00238356
0.00234175
0.00231775
0.0023059
0.00230219
0.00230397
0.0023094
0.00231738
0.00232728
0.00452145
0.00393326
0.0036566
0.0033449
0.00305638
0.00282126
0.00264294
0.00251486
0.00242689
0.00236917
0.00233345
0.00231327
0.00230376
0.00230167
0.00230449
0.00231067
0.00231974
0.0041937
0.00387663
0.00372308
0.00347053
0.00319266
0.00294321
0.00274133
0.00258869
0.00247905
0.00240385
0.00235483
0.00232497
0.00230863
0.00230194
0.00230175
0.00230592
0.00231386
0.00389898
0.0037734
0.0037402
0.00356173
0.00331237
0.00306108
0.0028424
0.00266811
0.00253744
0.00244425
0.00238096
0.00234042
0.00231639
0.00230442
0.00230082
0.00230279
0.00230856
0.00365583
0.00368559
0.00373861
0.00362355
0.00340708
0.00316375
0.00293736
0.00274734
0.00259854
0.00248823
0.00241048
0.00235868
0.00232636
0.00230864
0.00230128
0.00230093
0.00230534
0.0034714
0.00361852
0.00373505
0.00367003
0.00348337
0.00325033
0.0030204
0.00281897
0.00265559
0.00253064
0.00243995
0.00237764
0.00233738
0.00231391
0.00230267
0.00229994
0.00230301
0.0033528
0.0035814
0.00374016
0.00370913
0.0035443
0.00332022
0.00308898
0.00287959
0.00270495
0.00256804
0.00246634
0.0023948
0.00234743
0.00231876
0.00230401
0.00229916
0.00230106
0.00330862
0.00358554
0.00376502
0.00374853
0.00359319
0.00337299
0.00314028
0.00292534
0.00274273
0.00259702
0.0024869
0.00240811
0.00235503
0.00232216
0.0023046
0.00229804
0.00229911
0.00334876
0.00364153
0.00381857
0.00379336
0.00363148
0.00340718
0.00317109
0.0029523
0.00276505
0.00261419
0.00249894
0.00241553
0.00235874
0.00232313
0.00230379
0.00229625
0.00229702
0.00348403
0.00376033
0.00390438
0.00384276
0.00365586
0.00341829
0.00317656
0.00295582
0.00276782
0.00261621
0.00249989
0.00241524
0.00235729
0.00232084
0.00230105
0.0022935
0.00229452
0.00372555
0.00394723
0.00401529
0.00388546
0.00365522
0.00339688
0.00314928
0.00293028
0.00274685
0.00260001
0.00248757
0.0024057
0.00234968
0.00231467
0.00229607
0.00228956
0.00229148
0.00408412
0.00419445
0.00413025
0.00389819
0.00361075
0.00332989
0.00308049
0.00287011
0.00269864
0.00256333
0.00246048
0.00238594
0.00233534
0.0023044
0.00228881
0.00228451
0.0022881
0.00456967
0.00447497
0.00420578
0.00384313
0.00349714
0.00320322
0.00296402
0.00277298
0.0026223
0.00250563
0.00241817
0.00235578
0.00231453
0.00229048
0.00227971
0.00227869
0.00228443
0.00519067
0.00473291
0.00417982
0.0036829
0.00329977
0.00301546
0.00280429
0.00264441
0.00252217
0.0024306
0.00236447
0.00231905
0.00229035
0.00227501
0.00226999
0.00227263
0.00228053
0.00595356
0.00487403
0.00399469
0.00341011
0.00303673
0.0027922
0.00262542
0.00250559
0.00241828
0.00235609
0.00231287
0.00228455
0.00226789
0.00226063
0.00226085
0.00226673
0.00227657
0.00686216
0.00478096
0.00364942
0.00307932
0.00276944
0.00258553
0.00246856
0.0023896
0.00233555
0.00229804
0.00227261
0.00225683
0.0022493
0.00224826
0.00225254
0.00226096
0.00227233
0.00791716
0.00439164
0.00324449
0.00279136
0.00256983
0.002444
0.00236593
0.0023157
0.00228218
0.00225957
0.00224504
0.00223713
0.00223498
0.00223795
0.0022449
0.002255
0.00226729
0.00911571
0.00381472
0.00292022
0.00262088
0.00247496
0.00238626
0.00232608
0.00228555
0.00225807
0.00223978
0.0022287
0.00222364
0.0022238
0.0022285
0.00223686
0.00224794
0.00226101
0.0104511
0.00327332
0.00276443
0.0025871
0.00248004
0.00240094
0.00233884
0.00229096
0.00225689
0.00223396
0.0022202
0.00221395
0.00221385
0.00221874
0.00222775
0.00223996
0.00225444
0.00248103
0.00698279
0.0598397
0.224922
0.314898
0.247545
0.170165
0.115046
0.0858008
0.0724366
0.0654653
0.0593295
0.0521776
0.0427125
0.030725
0.0188347
0.0102023