/*--------------------------------*- C++ -*----------------------------------*\
  =========                 |
  \\      /  F ield         | OpenFOAM: The Open Source CFD Toolbox
   \\    /   O peration     | Website:  https://openfoam.org
    \\  /    A nd           | Version:  6
     \\/     M anipulation  |
\*---------------------------------------------------------------------------*/
FoamFile
{
    version     2.0;
    format      ascii;
    class       volScalarField;
    location    "3.93";
    object      p;
}
// * * * * * * * * * * * * * * * * * * * * * * * * * * * * * * * * * * * * * //

dimensions      [0 2 -2 0 0 0 0];

internalField   nonuniform List<scalar> 
4214
(
-0.416936
-0.461857
-0.324879
-0.184847
-0.108246
-0.0695548
-0.0401464
-0.0166858
0.00527153
0.0340232
0.0691556
0.110159
0.162425
0.219437
0.254115
0.281463
0.376166
0.447377
0.391958
0.276822
0.0283599
-0.329485
-0.691277
-0.952146
-1.10638
-1.1103
-0.95291
-0.840785
-0.674128
-0.485442
-0.338772
-0.239995
-0.15811
-0.102874
-0.0793958
-0.0803471
-0.0918954
-0.14307
-0.282505
-0.429293
-0.347979
0.0795919
-0.144701
-0.192923
-0.103233
-0.0635129
-0.0593282
-0.0525829
-0.0370569
-0.0185283
0.00837281
0.0470944
0.0956129
0.158471
0.230883
0.314544
0.442631
0.631048
0.626965
0.384754
0.0327954
-0.493373
-1.23353
-2.04971
-2.70561
-3.06115
-3.17756
-2.90136
-2.25652
-1.61072
-1.00701
-0.573282
-0.272507
-0.112233
-0.0348086
0.00882384
0.031589
0.0492098
0.0307429
-0.0642621
-0.00119031
0.273395
-0.0210129
-0.175719
-0.231793
-0.163797
-0.125057
-0.108323
-0.0859414
-0.0511029
-0.00840411
0.0468669
0.113305
0.193089
0.290363
0.403902
0.533737
0.696021
0.85547
0.808463
0.471726
-0.0582119
-0.826276
-1.87814
-3.06879
-4.14374
-4.83717
-5.11108
-4.94165
-4.23518
-3.29431
-2.317
-1.52144
-0.902283
-0.488591
-0.259466
-0.136312
-0.066718
-0.0127969
-0.0144578
-0.0449541
0.0160632
0.13519
-0.10973
-0.180124
-0.245739
-0.203774
-0.157001
-0.129465
-0.101026
-0.0562046
0.00181255
0.0720493
0.157555
0.258551
0.374271
0.505542
0.652248
0.8082
0.920403
0.850472
0.471905
-0.203773
-1.14055
-2.37427
-3.80539
-5.17043
-6.20221
-6.69191
-6.73751
-6.08548
-4.97506
-3.7026
-2.57259
-1.63538
-0.942076
-0.511053
-0.271328
-0.12541
-0.0450175
-0.0219741
-0.0126565
0.0387083
0.0558611
-0.186517
-0.22607
-0.284217
-0.250481
-0.201007
-0.162434
-0.12292
-0.0653389
0.0105752
0.102327
0.207842
0.327594
0.458988
0.595616
0.732727
0.850023
0.911562
0.810524
0.414255
-0.332203
-1.36648
-2.67868
-4.21417
-5.74184
-7.00039
-7.78443
-8.03163
-7.60931
-6.58227
-5.17117
-3.69447
-2.48827
-1.51436
-0.863849
-0.474969
-0.23418
-0.102307
-0.0414151
0.0020981
0.0350268
0.0221835
-0.243828
-0.273426
-0.329722
-0.297921
-0.246713
-0.199561
-0.150882
-0.0839895
0.00144896
0.101493
0.214323
0.33696
0.46432
0.592831
0.713306
0.790681
0.810809
0.664657
0.264805
-0.469125
-1.52123
-2.84902
-4.33509
-5.86869
-7.19495
-8.13898
-8.58463
-8.42924
-7.68024
-6.37083
-4.76898
-3.29204
-2.05276
-1.22053
-0.654205
-0.320784
-0.134224
-0.0416093
0.0174854
0.0325624
0.00539522
-0.293998
-0.327936
-0.392628
-0.359798
-0.3047
-0.251132
-0.194636
-0.123301
-0.0330182
0.071563
0.18538
0.305044
0.424543
0.532921
0.613023
0.652449
0.623311
0.437927
0.0467429
-0.635274
-1.61187
-2.85302
-4.23865
-5.62652
-6.87076
-7.80785
-8.34317
-8.32877
-7.84916
-6.90371
-5.62491
-4.08064
-2.68869
-1.55899
-0.856697
-0.440745
-0.192487
-0.0440859
0.0355032
0.0372959
0.00976479
-0.353262
-0.39476
-0.472987
-0.43948
-0.380974
-0.324309
-0.264155
-0.190811
-0.100207
0.00333716
0.111669
0.214752
0.309887
0.38527
0.42924
0.43291
0.348858
0.13216
-0.249447
-0.86745
-1.72735
-2.80732
-4.00883
-5.18815
-6.21973
-7.00586
-7.47157
-7.46993
-7.1778
-6.5231
-5.50398
-4.20823
-2.91811
-1.80534
-1.00673
-0.468937
-0.162021
0.0173244
0.0866534
0.0634028
0.0443035
-0.432065
-0.484185
-0.578671
-0.54683
-0.487949
-0.432799
-0.375524
-0.306376
-0.22258
-0.129251
-0.035967
0.0474506
0.114261
0.156557
0.167871
0.122403
-0.00836204
-0.252311
-0.627006
-1.18459
-1.92841
-2.80851
-3.78564
-4.71128
-5.4784
-6.0192
-6.27586
-6.18665
-5.8844
-5.3592
-4.62637
-3.69531
-2.63948
-1.6613
-0.839109
-0.309561
-0.00248792
0.153162
0.192763
0.123585
0.123799
-0.540365
-0.604761
-0.717814
-0.692126
-0.638114
-0.59035
-0.542642
-0.484279
-0.413362
-0.336339
-0.263724
-0.206132
-0.17051
-0.159652
-0.193002
-0.284861
-0.457335
-0.727226
-1.09757
-1.60266
-2.23828
-2.96095
-3.70583
-4.36051
-4.85454
-5.11331
-5.09351
-4.8115
-4.36493
-3.81549
-3.21016
-2.55211
-1.82542
-1.07936
-0.426303
0.0275961
0.271807
0.369035
0.375158
0.264784
0.254992
-0.693877
-0.764854
-0.898573
-0.886485
-0.845243
-0.812036
-0.780901
-0.740429
-0.689136
-0.63502
-0.58927
-0.56211
-0.559035
-0.593155
-0.670781
-0.806535
-1.01827
-1.31548
-1.68542
-2.14519
-2.68244
-3.25476
-3.79623
-4.23037
-4.46323
-4.47112
-4.20549
-3.67292
-2.99432
-2.29771
-1.67348
-1.14165
-0.647758
-0.153532
0.27473
0.543231
0.660658
0.696766
0.638116
0.496096
0.426858
-0.904424
-0.983134
-1.1366
-1.15051
-1.12835
-1.11837
-1.11228
-1.09708
-1.07306
-1.04944
-1.03448
-1.04633
-1.08976
-1.17031
-1.29578
-1.47811
-1.72843
-2.0542
-2.42591
-2.84328
-3.2866
-3.71576
-4.07592
-4.30281
-4.33752
-4.12477
-3.64568
-2.91716
-2.01407
-1.10056
-0.333966
0.221167
0.610792
0.90233
1.08879
1.16443
1.16887
1.08802
0.933886
0.748318
0.615244
-1.18869
-1.2796
-1.45241
-1.51866
-1.51623
-1.5389
-1.5728
-1.59203
-1.60116
-1.6194
-1.65211
-1.71493
-1.81019
-1.94834
-2.13285
-2.37019
-2.6609
-3.00368
-3.36045
-3.72315
-4.06664
-4.34894
-4.54207
-4.56669
-4.41332
-4.01218
-3.36943
-2.49547
-1.41362
-0.300219
0.642098
1.29872
1.68409
1.86946
1.9061
1.82101
1.66247
1.45285
1.20868
0.966199
0.765444
-1.55868
-1.66278
-1.85831
-1.97902
-2.03598
-2.10354
-2.18406
-2.25824
-2.32337
-2.40815
-2.50803
-2.64716
-2.81457
-3.03295
-3.29294
-3.58694
-3.89629
-4.23999
-4.55892
-4.82538
-5.04817
-5.17555
-5.15749
-5.02424
-4.68123
-4.10289
-3.28446
-2.23755
-1.02018
0.226301
1.29823
2.04896
2.46376
2.60107
2.53889
2.3408
2.06371
1.7496
1.42633
1.11507
0.828247
-2.0147
-2.13171
-2.34541
-2.52806
-2.67309
-2.8119
-2.96751
-3.11986
-3.28809
-3.46776
-3.686
-3.92701
-4.20614
-4.51237
-4.85556
-5.15971
-5.46214
-5.79258
-6.08066
-6.24542
-6.23625
-6.16511
-5.98536
-5.65951
-5.10161
-4.33062
-3.33301
-2.09662
-0.719809
0.62938
1.76149
2.54203
2.95252
3.04613
2.90435
2.61707
2.24855
1.86361
1.48373
1.12243
0.780557
-2.51631
-2.73211
-2.99704
-3.2231
-3.50907
-3.72901
-4.05364
-4.27672
-4.6505
-4.88735
-5.32537
-5.59733
-6.074
-6.41224
-6.8564
-7.07121
-7.49225
-7.83099
-7.85714
-7.81
-7.64697
-7.40118
-7.01729
-6.42946
-5.62708
-4.66912
-3.46667
-2.07022
-0.582812
0.917141
2.10783
2.90636
3.2347
3.27776
3.03547
2.67552
2.2475
1.80522
1.37253
0.988581
0.616301
-3.15579
-3.51357
-3.97051
-4.1981
-4.75231
-4.96378
-5.62191
-5.81671
-6.61283
-6.74499
-7.60628
-7.7355
-8.60312
-8.83075
-9.55531
-9.63383
-9.87302
-9.86604
-9.72768
-9.55625
-9.20249
-8.7888
-8.17347
-7.2859
-6.25937
-5.04586
-3.59616
-2.00519
-0.338689
1.37984
2.15961
3.21133
2.97459
3.22363
2.65816
2.40467
1.88115
1.46445
0.936418
0.572529
0.116353
-0.200218
0.246481
0.453633
0.58606
0.62687
0.585315
0.503014
0.393661
0.278997
0.175678
0.101373
0.0588387
0.031594
0.00820544
0.00500979
-0.0490587
-0.272995
-0.538452
-0.0739586
0.164724
0.32248
0.404869
0.421828
0.396329
0.336812
0.264576
0.193594
0.133553
0.0900417
0.0594014
0.0412009
0.0481023
-0.00295817
-0.0850559
-0.752637
-0.360252
-0.100245
0.0824068
0.199075
0.268234
0.292686
0.277009
0.236597
0.188015
0.147691
0.114241
0.0789715
0.0597479
0.0582292
0.0161768
-0.00170583
-0.986809
-0.605397
-0.345404
-0.149894
-0.0168488
0.0808391
0.144798
0.173617
0.169701
0.153838
0.133868
0.11314
0.0946844
0.085328
0.0709452
0.049666
0.0521131
-1.11623
-0.806107
-0.562419
-0.361327
-0.218467
-0.105336
-0.0165867
0.0446224
0.0771848
0.0916696
0.0965295
0.0933899
0.0889936
0.0877405
0.0816889
0.0753761
0.0821511
-1.27497
-0.982449
-0.752428
-0.555052
-0.408262
-0.2896
-0.188214
-0.10607
-0.0462519
-0.00439515
0.0256313
0.0444492
0.0577995
0.074184
0.0793557
0.0828752
0.101173
-1.34096
-1.11443
-0.914062
-0.731324
-0.582278
-0.463137
-0.358553
-0.266407
-0.189682
-0.127589
-0.0769831
-0.0382189
-0.0060327
0.0270495
0.0476087
0.0631657
0.104234
-1.44119
-1.23274
-1.05194
-0.888481
-0.743028
-0.624394
-0.521752
-0.427989
-0.343655
-0.269399
-0.204424
-0.149923
-0.101959
-0.0536268
-0.0186483
0.00735948
0.073407
-1.47662
-1.31773
-1.16468
-1.02094
-0.888778
-0.774844
-0.675887
-0.584856
-0.499988
-0.421378
-0.348926
-0.28486
-0.22646
-0.165798
-0.120557
-0.081219
0.00639281
-1.53619
-1.39395
-1.26038
-1.13447
-1.01755
-0.90943
-0.816714
-0.732593
-0.65312
-0.576674
-0.503236
-0.435525
-0.37043
-0.303597
-0.251897
-0.200673
-0.101145
-1.54981
-1.4438
-1.33469
-1.22831
-1.12702
-1.03111
-0.943591
-0.866408
-0.794558
-0.724465
-0.655735
-0.590221
-0.525461
-0.458228
-0.402585
-0.348518
-0.248613
-1.58319
-1.48933
-1.39618
-1.30577
-1.21914
-1.13651
-1.05772
-0.986218
-0.921675
-0.860283
-0.799846
-0.741167
-0.681473
-0.618446
-0.565845
-0.514584
-0.420144
-1.57926
-1.51289
-1.43966
-1.36566
-1.29325
-1.22318
-1.15591
-1.09174
-1.03375
-0.980549
-0.929071
-0.879903
-0.828389
-0.77442
-0.728271
-0.681427
-0.59977
-1.57662
-1.51873
-1.46266
-1.40516
-1.34717
-1.28987
-1.23467
-1.18179
-1.13099
-1.0825
-1.03925
-1
-0.958433
-0.917625
-0.879293
-0.838417
-0.775907
-1.54544
-1.50333
-1.45984
-1.41743
-1.3753
-1.33234
-1.28927
-1.24693
-1.20605
-1.16772
-1.13181
-1.09752
-1.06494
-1.03795
-1.00954
-0.978484
-0.936618
-1.51775
-1.47476
-1.43741
-1.40293
-1.37057
-1.33999
-1.31033
-1.28103
-1.25188
-1.22336
-1.19633
-1.17115
-1.14693
-1.128
-1.10587
-1.08892
-1.06506
-1.46178
-1.43243
-1.4019
-1.37255
-1.34537
-1.32039
-1.29733
-1.27602
-1.25643
-1.23821
-1.22125
-1.2049
-1.18969
-1.1782
-1.16309
-1.15765
-1.14489
-1.41967
-1.38532
-1.35624
-1.33029
-1.30659
-1.28498
-1.26543
-1.24784
-1.23208
-1.21803
-1.20561
-1.19479
-1.1858
-1.18007
-1.17135
-1.17301
-1.16626
-1.33448
-1.31293
-1.29007
-1.26812
-1.24758
-1.22866
-1.21159
-1.19642
-1.18309
-1.17157
-1.16182
-1.15411
-1.14745
-1.14303
-1.13663
-1.14162
-1.13475
-1.27502
-1.24251
-1.2153
-1.19179
-1.17074
-1.15166
-1.13453
-1.11931
-1.10587
-1.09418
-1.08415
-1.07611
-1.0687
-1.0647
-1.05751
-1.06353
-1.05127
-1.16991
-1.14687
-1.12208
-1.09898
-1.07719
-1.05677
-1.03805
-1.02101
-1.00554
-0.991646
-0.97915
-0.9683
-0.95771
-0.950714
-0.939654
-0.942911
-0.917874
-1.09716
-1.05815
-1.02377
-0.9949
-0.968797
-0.944166
-0.921768
-0.901404
-0.882596
-0.865376
-0.849453
-0.835247
-0.82066
-0.811479
-0.793054
-0.794941
-0.750093
-0.967259
-0.941975
-0.904046
-0.872274
-0.842951
-0.814058
-0.787528
-0.763257
-0.740518
-0.719244
-0.699023
-0.67995
-0.659909
-0.643359
-0.615913
-0.610335
-0.537806
-0.874348
-0.828053
-0.776441
-0.736758
-0.701568
-0.666588
-0.634188
-0.60417
-0.575266
-0.547129
-0.519182
-0.491112
-0.460215
-0.429033
-0.383451
-0.355255
-0.250961
-0.718248
-0.68732
-0.630377
-0.583963
-0.542504
-0.499922
-0.458999
-0.41969
-0.380318
-0.340037
-0.297602
-0.251958
-0.200245
-0.144859
-0.0757557
-0.021101
0.118732
-0.602757
-0.547282
-0.475534
-0.418139
-0.366436
-0.312602
-0.259072
-0.205236
-0.148614
-0.0881357
-0.023249
0.0460558
0.120903
0.198232
0.287649
0.364419
0.529631
-0.427326
-0.38574
-0.30415
-0.235258
-0.171078
-0.102123
-0.0307154
0.0431065
0.1206
0.201703
0.286355
0.374624
0.467711
0.563129
0.668805
0.763653
0.937883
-0.292729
-0.220399
-0.122472
-0.0390052
0.0423879
0.129974
0.219165
0.310536
0.405283
0.503323
0.604762
0.709411
0.817886
0.92776
1.04506
1.15235
1.3278
-0.104519
-0.0402473
0.0724598
0.170189
0.266832
0.37003
0.474724
0.581363
0.691477
0.804519
0.920117
1.0378
1.15765
1.27726
1.40095
1.51453
1.68391
0.0402608
0.140125
0.268549
0.382114
0.492699
0.609814
0.728666
0.848853
0.971786
1.09678
1.22302
1.34974
1.47669
1.60124
1.7267
1.84078
1.99823
0.233947
0.328366
0.467407
0.592267
0.715694
0.844961
0.975383
1.10675
1.23977
1.37342
1.50657
1.63822
1.76782
1.89257
2.01573
2.12516
2.26672
0.379318
0.512293
0.665026
0.799849
0.933402
1.07293
1.21239
1.35166
1.49134
1.62993
1.76605
1.89857
2.0266
2.14734
2.26417
2.36446
2.48692
0.572747
0.694619
0.852638
0.998674
1.14157
1.28894
1.43569
1.5806
1.72388
1.86389
1.99912
2.12847
2.25082
2.36399
2.47027
2.55809
2.65988
0.71671
0.872922
1.03357
1.18574
1.33763
1.49091
1.64206
1.78994
1.93412
2.07283
2.20432
2.32737
2.44077
2.54301
2.63541
2.70846
2.78872
0.905977
1.05018
1.21942
1.37527
1.5306
1.68619
1.83812
1.98502
2.12583
2.25905
2.38309
2.4966
2.59825
2.687
2.76343
2.82136
2.88018
1.03754
1.21345
1.39039
1.55434
1.71419
1.87014
2.02031
2.16416
2.29976
2.42498
2.53844
2.63906
2.72615
2.79955
2.85955
2.90267
2.94303
1.22023
1.36899
1.53922
1.69999
1.8629
2.02093
2.17072
2.31131
2.44162
2.55936
2.66277
2.7509
2.8235
2.88155
2.92629
2.95674
2.983
1.3549
1.5329
1.70302
1.86175
2.0161
2.16782
2.31431
2.44948
2.57015
2.67542
2.76447
2.83744
2.89521
2.93894
2.96958
2.98822
3.00501
1.54253
1.70442
1.8806
2.04524
2.20443
2.356
2.49294
2.61325
2.71601
2.80093
2.86845
2.91976
2.95754
2.98456
3.00214
3.01145
3.02063
1.66253
1.85891
2.03435
2.20127
2.36181
2.50259
2.62319
2.7228
2.80622
2.87387
2.92607
2.96441
2.99072
3.00661
3.01542
3.02351
3.03535
3.50137
3.55787
3.62747
3.67403
3.73553
3.78049
3.83894
3.88385
3.93911
3.98343
4.03413
4.07625
4.11957
4.1573
4.19378
4.22414
4.25094
4.2703
4.27463
4.27019
4.25348
4.22506
4.17706
4.11157
4.02842
3.92845
3.81866
3.68841
3.56173
3.40802
3.27505
3.1081
2.97832
2.80005
2.67485
2.49836
2.3823
2.20869
2.0992
1.93044
1.82275
3.51743
3.56734
3.62213
3.67079
3.72313
3.76937
3.81877
3.86346
3.91017
3.95298
3.99585
4.0353
4.07324
4.10827
4.13986
4.16725
4.18999
4.20491
4.20793
4.20166
4.18397
4.15428
4.10707
4.04299
3.96413
3.87083
3.76582
3.64923
3.52501
3.39309
3.25918
3.12046
2.98265
2.84653
2.71295
2.57946
2.4517
2.32544
2.20427
2.08546
1.96673
3.54173
3.58815
3.63193
3.67434
3.71882
3.76112
3.80413
3.84531
3.88649
3.92579
3.964
3.99993
4.03404
4.06556
4.09363
4.11791
4.13686
4.14849
4.14932
4.14149
4.12314
4.09223
4.04544
3.98348
3.90781
3.81998
3.72104
3.61292
3.49723
3.37675
3.25349
3.12833
3.00459
2.88295
2.76306
2.64735
2.53504
2.42756
2.32286
2.22357
2.12102
3.56655
3.60679
3.64317
3.68043
3.71781
3.75524
3.79287
3.83016
3.86699
3.90275
3.93714
3.96978
4.00056
4.02885
4.05398
4.07511
4.0909
4.09934
4.09862
4.0891
4.06985
4.03789
3.99176
3.93197
3.8599
3.77686
3.68407
3.58326
3.47616
3.36542
3.25299
3.13941
3.02787
2.91837
2.81229
2.71061
2.61318
2.52076
2.43218
2.34988
2.26536
3.5842
3.61991
3.65138
3.6844
3.71726
3.75062
3.78419
3.81778
3.85094
3.8833
3.91447
3.94418
3.97203
3.99744
4.01993
4.03812
4.05123
4.05668
4.05442
4.04345
4.02305
3.99036
3.94501
3.88736
3.81859
3.74
3.65284
3.55872
3.45957
3.35773
3.25503
3.15219
3.05134
2.95339
2.85966
2.77073
2.68676
2.60829
2.53429
2.46767
2.39952
3.60168
3.6322
3.65937
3.68832
3.71735
3.74693
3.77713
3.80746
3.83751
3.86691
3.89532
3.92245
3.94771
3.97061
3.99067
4.00626
4.01703
4.01976
4.01593
4.00378
3.98198
3.94894
3.90445
3.84886
3.78321
3.70875
3.62677
3.53883
3.44693
3.35312
3.25885
3.16578
3.07465
2.98712
2.90432
2.8267
2.75451
2.68822
2.62688
2.57371
2.51973
3.61925
3.64458
3.66764
3.69275
3.71831
3.74474
3.77152
3.79893
3.82628
3.85318
3.87925
3.90407
3.92706
3.94774
3.96558
3.979
3.98716
3.98816
3.98256
3.96917
3.9462
3.91302
3.8694
3.81573
3.75297
3.68231
3.60504
3.52275
3.4374
3.35081
3.26409
3.17942
3.09717
3.01895
2.94578
2.8781
2.81621
2.76047
2.71002
2.6679
2.62539
3.63466
3.65592
3.67565
3.6975
3.72002
3.74352
3.76745
3.79218
3.8171
3.84179
3.86579
3.88857
3.90957
3.92835
3.94419
3.9558
3.96126
3.96085
3.95384
3.93901
3.91523
3.88203
3.83926
3.78737
3.72726
3.66006
3.58707
3.50992
3.43044
3.35026
3.27038
3.19288
3.11843
3.04838
2.98356
2.92447
2.87142
2.82469
2.78364
2.75084
2.71837
3.64766
3.66589
3.68329
3.70252
3.72239
3.74325
3.76507
3.78699
3.8098
3.83249
3.85463
3.87562
3.89491
3.91207
3.92615
3.93567
3.93909
3.93747
3.92906
3.91304
3.88864
3.85548
3.81352
3.76325
3.70555
3.64148
3.57238
3.49986
3.42558
3.35097
3.27718
3.20581
3.13808
3.07502
3.01732
2.96547
2.91979
2.88054
2.84724
2.82199
2.79802
3.65867
3.67473
3.69031
3.70744
3.72511
3.74372
3.76329
3.78365
3.80421
3.82511
3.84558
3.86502
3.88286
3.8986
3.91087
3.9181
3.92053
3.91757
3.90791
3.89092
3.86601
3.83292
3.79173
3.74294
3.6874
3.62612
3.56049
3.49205
3.42231
3.35248
3.2838
3.21783
3.15581
3.0986
3.0468
3.00089
2.96112
2.92778
2.90038
2.88087
2.8636
3.66807
3.68245
3.69642
3.7118
3.72778
3.74465
3.76243
3.78104
3.80001
3.81936
3.83838
3.85647
3.87306
3.88726
3.89763
3.90361
3.90505
3.90083
3.89009
3.87228
3.84697
3.814
3.7735
3.72603
3.67236
3.61349
3.5508
3.48582
3.42003
3.35438
3.28999
3.22858
3.17128
3.11885
3.07183
3.03064
2.9955
2.96664
2.94342
2.92814
2.9153
3.67624
3.689
3.70157
3.71545
3.73013
3.74566
3.76204
3.77921
3.79705
3.81492
3.83272
3.84961
3.86499
3.87761
3.8868
3.89196
3.89228
3.88697
3.87531
3.85683
3.83119
3.79834
3.75846
3.71211
3.65998
3.6031
3.54286
3.48081
3.4183
3.35611
3.29515
3.23761
3.18416
3.13559
3.09236
3.05488
3.02337
2.99795
2.97794
2.96532
2.95437
3.68338
3.69436
3.7057
3.71823
3.73187
3.7464
3.7618
3.77798
3.7948
3.81187
3.82857
3.84449
3.85855
3.8702
3.87848
3.88271
3.88207
3.8758
3.86334
3.84428
3.81837
3.7856
3.74625
3.7008
3.64997
3.59488
3.53691
3.4774
3.41739
3.35774
3.29967
3.24478
3.19441
3.14894
3.10869
3.07404
3.04518
3.02212
3.00435
2.99298
2.98264
3.68952
3.69844
3.70874
3.71994
3.73262
3.74644
3.7613
3.77701
3.79333
3.80985
3.82595
3.84109
3.85437
3.86508
3.87243
3.87573
3.8742
3.86708
3.85393
3.83436
3.80821
3.77554
3.73662
3.69198
3.64241
3.58909
3.53325
3.47592
3.41781
3.35991
3.30406
3.25109
3.2024
3.15867
3.1204
3.08771
3.06059
3.03873
3.02197
3.01081
3.00092
3.69564
3.70191
3.71098
3.72065
3.73215
3.74531
3.7599
3.77554
3.79178
3.80831
3.82418
3.83886
3.85169
3.86171
3.86831
3.87081
3.86844
3.86064
3.84693
3.82696
3.80064
3.76807
3.72955
3.68564
3.63722
3.58538
3.53114
3.47533
3.41878
3.36256
3.30805
3.25632
3.2084
3.16519
3.12725
3.09488
3.06829
3.04747
3.03175
3.01995
3.01156
3.70448
3.70656
3.71267
3.72032
3.73061
3.74322
3.75768
3.77345
3.78986
3.80664
3.82256
3.83716
3.84966
3.85949
3.86574
3.86781
3.8649
3.85665
3.84256
3.82232
3.79586
3.76332
3.72502
3.68155
3.63376
3.5826
3.52899
3.47381
3.41805
3.36288
3.30914
3.25786
3.21023
3.16719
3.12942
3.09738
3.07124
3.05111
3.03689
3.02698
3.02147
3.7169
3.71196
3.71315
3.7194
3.72921
3.74178
3.75637
3.77229
3.78889
3.80581
3.82179
3.83641
3.84892
3.85865
3.86477
3.86653
3.86358
3.85521
3.84095
3.82056
3.79397
3.76134
3.72301
3.67956
3.63177
3.58057
3.52685
3.47154
3.41566
3.3604
3.30703
3.25634
3.20924
3.16663
3.12924
3.09756
3.07189
3.05249
3.03969
3.03481
3.0401
-0.448319
-0.342289
-0.302
-0.324298
-0.369327
-0.431275
-0.504476
-0.589642
-0.688872
-0.810821
-0.970806
-1.17408
-1.41941
-1.70801
-2.00943
-2.34959
-2.66109
-0.389631
-0.363777
-0.33645
-0.370757
-0.421782
-0.480199
-0.548418
-0.626751
-0.722202
-0.84018
-0.992618
-1.18331
-1.41457
-1.67562
-1.93691
-2.20837
-2.376
-0.39282
-0.427414
-0.42039
-0.465579
-0.517371
-0.573001
-0.641735
-0.720578
-0.820611
-0.93936
-1.08149
-1.25104
-1.44374
-1.64505
-1.85135
-2.05921
-2.26809
-0.424331
-0.481559
-0.484436
-0.533501
-0.588479
-0.642279
-0.71034
-0.789331
-0.882508
-0.99212
-1.12004
-1.26721
-1.4242
-1.58401
-1.74746
-1.90002
-1.98306
-0.476318
-0.544424
-0.558502
-0.606366
-0.662292
-0.712324
-0.77854
-0.853311
-0.93839
-1.0367
-1.14705
-1.26388
-1.38583
-1.50403
-1.62093
-1.7048
-1.70348
-0.533671
-0.604043
-0.628278
-0.669399
-0.723605
-0.771353
-0.831536
-0.899376
-0.974878
-1.05867
-1.14647
-1.23734
-1.32538
-1.40405
-1.47059
-1.50326
-1.51578
-0.595467
-0.659302
-0.687528
-0.723957
-0.773965
-0.819128
-0.870467
-0.929151
-0.991765
-1.05611
-1.12292
-1.18817
-1.2468
-1.29735
-1.33408
-1.34923
-1.32836
-0.655088
-0.707428
-0.736208
-0.767861
-0.810327
-0.849702
-0.890882
-0.93566
-0.981359
-1.02843
-1.07391
-1.11434
-1.15129
-1.17892
-1.19674
-1.19871
-1.15632
-0.710745
-0.747477
-0.775906
-0.800665
-0.830057
-0.85843
-0.886298
-0.916943
-0.948102
-0.976372
-1.00357
-1.0258
-1.04138
-1.04807
-1.04722
-1.0265
-1.01953
-0.750994
-0.77153
-0.793342
-0.806811
-0.820957
-0.838232
-0.855024
-0.872259
-0.890088
-0.905618
-0.917343
-0.924623
-0.926509
-0.918748
-0.904942
-0.882333
-0.846008
-0.759592
-0.762356
-0.77364
-0.779918
-0.784929
-0.792524
-0.799347
-0.804885
-0.809355
-0.812212
-0.81271
-0.808921
-0.798878
-0.782092
-0.766856
-0.742086
-0.691164
-0.731488
-0.720265
-0.723561
-0.723408
-0.717879
-0.71729
-0.715681
-0.712115
-0.706773
-0.698985
-0.68796
-0.673155
-0.65387
-0.629871
-0.607579
-0.579336
-0.568371
-0.668184
-0.648449
-0.639548
-0.635547
-0.625579
-0.61723
-0.607369
-0.595755
-0.582471
-0.567027
-0.549108
-0.528565
-0.504539
-0.477158
-0.453599
-0.428006
-0.399182
-0.569384
-0.546946
-0.533457
-0.52139
-0.504486
-0.489056
-0.472396
-0.454853
-0.436599
-0.417248
-0.396747
-0.375171
-0.352736
-0.331288
-0.314759
-0.289442
-0.248008
-0.42969
-0.404656
-0.387381
-0.370091
-0.348412
-0.329707
-0.310134
-0.290065
-0.26999
-0.24941
-0.228421
-0.20773
-0.18816
-0.170122
-0.153916
-0.135996
-0.13846
-0.242824
-0.221121
-0.199069
-0.184619
-0.163324
-0.144595
-0.125917
-0.107033
-0.0884736
-0.0699282
-0.0516606
-0.0341736
-0.0168935
0.000888452
0.0166855
0.0301127
0.0409273
-0.0212604
-0.00453665
0.0167231
0.0287018
0.0463246
0.0619709
0.0771555
0.091915
0.105879
0.119069
0.131305
0.142479
0.153026
0.162778
0.171019
0.186089
0.216803
0.231522
0.239105
0.256716
0.264457
0.276093
0.285998
0.295551
0.304378
0.312449
0.319763
0.326272
0.331873
0.336533
0.340287
0.343305
0.345692
0.337865
0.505964
0.503927
0.512423
0.513743
0.518225
0.521081
0.52404
0.526527
0.528846
0.530936
0.532597
0.533978
0.535872
0.538501
0.539725
0.538391
0.536496
0.78272
0.777403
0.77733
0.774551
0.772613
0.769658
0.766453
0.762982
0.759063
0.754344
0.748919
0.743179
0.737312
0.730946
0.72415
0.722193
0.730656
1.07696
1.06215
1.0585
1.04723
1.03924
1.02935
1.01952
1.00924
0.99827
0.986387
0.974222
0.961211
0.945633
0.928256
0.909838
0.888568
0.863377
1.37793
1.35099
1.34208
1.32372
1.30847
1.29171
1.27498
1.2577
1.23965
1.22139
1.20343
1.18378
1.16287
1.14591
1.127
1.09379
1.0668
1.67654
1.63861
1.62274
1.59824
1.5763
1.55296
1.52944
1.50504
1.47979
1.45418
1.42768
1.39884
1.3707
1.34617
1.3158
1.28336
1.28407
1.96102
1.91504
1.8927
1.86281
1.83534
1.80657
1.77751
1.74763
1.71683
1.68511
1.65225
1.61713
1.58058
1.54295
1.49746
1.44855
1.41591
2.22703
2.17516
2.14699
2.11255
2.0801
2.04635
2.01232
1.97752
1.94144
1.90487
1.86837
1.82882
1.78742
1.75155
1.70945
1.64484
1.59841
2.47648
2.42194
2.38762
2.34842
2.31117
2.27296
2.23457
2.19505
2.15403
2.1129
2.07079
2.02347
1.97646
1.93821
1.88938
1.82493
1.82085
2.70183
2.64699
2.61099
2.56988
2.5297
2.48827
2.44624
2.40294
2.35861
2.31385
2.26706
2.21628
2.16567
2.11512
2.04754
1.97646
1.94715
2.89995
2.84643
2.81032
2.76937
2.72901
2.68677
2.64317
2.59804
2.55118
2.50286
2.45392
2.40205
2.34834
2.30017
2.24053
2.15239
2.09915
3.06921
3.01822
2.98303
2.94319
2.9036
2.86181
2.81872
2.7737
2.72577
2.67664
2.62656
2.5696
2.51163
2.46515
2.40489
2.31957
2.31665
3.21129
3.16382
3.13052
3.09251
3.05447
3.01429
2.97277
2.92871
2.88206
2.83474
2.78445
2.72691
2.67017
2.61603
2.53428
2.45114
2.43931
3.32844
3.28524
3.25453
3.21885
3.18306
3.14508
3.10533
3.06302
3.01838
2.97231
2.92355
2.86951
2.81513
2.76551
2.69413
2.60009
2.55458
3.42312
3.38461
3.35711
3.32437
3.29147
3.25626
3.2192
3.17965
3.13724
3.09323
3.04661
2.99216
2.93802
2.89296
2.82741
2.74373
2.7439
3.49799
3.46468
3.44089
3.41153
3.38174
3.34966
3.31575
3.27922
3.23991
3.19957
3.15593
3.10449
3.05471
3.00571
2.92395
2.84698
2.84708
3.55625
3.52829
3.508
3.48232
3.45576
3.42702
3.39633
3.36292
3.32685
3.28961
3.24911
3.20233
3.15786
3.11589
3.04637
2.96109
2.91989
3.6006
3.5776
3.56071
3.53899
3.51614
3.49117
3.46405
3.43422
3.40171
3.3678
3.33018
3.28578
3.24434
3.20726
3.14747
3.07825
3.08012
3.63401
3.61548
3.60222
3.58472
3.56561
3.54436
3.52085
3.49472
3.46602
3.43591
3.40236
3.36268
3.32486
3.28807
3.22135
3.16096
3.16864
3.659
3.64393
3.63291
3.6186
3.60278
3.58525
3.56548
3.54293
3.51778
3.49139
3.46139
3.42502
3.39131
3.36121
3.30741
3.24412
3.20664
3.67747
3.66409
3.65488
3.64395
3.63154
3.61757
3.60127
3.58193
3.56005
3.53701
3.51015
3.47822
3.44823
3.42153
3.37521
3.33437
3.34678
3.69346
3.68321
3.67624
3.66827
3.65888
3.64853
3.63664
3.62196
3.60453
3.58548
3.56333
3.53634
3.51099
3.48479
3.43457
3.40333
3.43204
3.71004
3.69873
3.69085
3.68443
3.67792
3.67113
3.66367
3.65436
3.64244
3.62838
3.611
3.58784
3.56555
3.54354
3.50378
3.46656
3.43699
-3.79973
-4.99814
-6.23171
-7.45444
-8.97039
-10.6722
-11.6909
-12.2832
-12.3315
-11.6137
-10.1117
-7.88294
-5.07264
-1.46454
1.88397
3.24447
2.88596
1.93666
0.875078
-0.0460516
-4.26541
-5.91447
-7.73832
-9.32523
-11.3587
-13.3115
-14.4791
-14.9698
-14.5409
-13.2651
-11.0996
-8.49396
-5.55231
-1.77266
1.49454
2.8129
2.42343
1.44686
0.421766
-0.458253
-4.72374
-6.78868
-9.03757
-11.2711
-13.632
-15.6517
-16.7924
-16.9425
-16.1634
-14.3858
-11.7814
-8.88648
-5.70941
-1.80598
1.12129
2.21956
1.77587
0.812572
-0.135906
-0.939228
-5.1955
-7.61311
-10.0734
-12.923
-15.3892
-17.266
-18.2268
-18.1424
-17.0293
-14.9243
-12.1293
-9.03681
-5.34312
-1.58453
0.791655
1.57053
1.02038
0.0840012
-0.778256
-1.48537
-5.75313
-8.15933
-10.9192
-13.8036
-16.198
-17.9298
-18.7537
-18.5216
-17.2187
-14.9689
-12.1078
-8.78519
-4.82884
-1.67308
0.256279
0.725464
0.101121
-0.776603
-1.52685
-2.11595
-6.05844
-8.36753
-11.1695
-13.8784
-16.1133
-17.7097
-18.4333
-18.0361
-16.4823
-14.094
-11.2957
-8.04055
-4.63021
-2.08588
-0.717727
-0.438895
-1.04388
-1.81087
-2.40255
-2.84405
-6.09038
-8.1832
-10.6277
-13.0869
-15.19
-16.6897
-17.2904
-16.7427
-15.1243
-12.9184
-10.3993
-7.46552
-4.87784
-2.93832
-2.09505
-1.94497
-2.44762
-3.03526
-3.41196
-3.67091
-5.77414
-7.55914
-9.57894
-11.709
-13.6022
-14.9452
-15.4217
-14.8694
-13.5012
-11.7555
-9.76998
-7.58214
-5.67732
-4.47227
-3.90618
-3.8192
-4.14001
-4.44958
-4.55037
-4.59911
-5.1548
-6.5031
-8.06357
-9.84001
-11.4766
-12.6514
-13.1176
-12.8292
-12.0362
-10.9512
-9.7354
-8.38099
-7.40458
-6.67404
-6.27292
-6.1385
-6.12355
-6.04209
-5.84141
-5.63934
-4.23923
-5.15593
-6.28837
-7.71704
-9.1006
-10.181
-10.8176
-11.0264
-11.0819
-10.9752
-10.5791
-10.304
-10.1004
-9.71818
-9.34328
-8.90104
-8.39777
-7.86114
-7.28065
-6.79372
-3.11798
-3.6867
-4.49272
-5.64444
-6.86263
-7.99362
-8.99403
-9.92006
-10.8645
-11.7896
-12.5529
-13.1989
-13.8157
-13.7122
-13.1366
-12.1089
-10.9514
-9.86621
-8.84199
-8.0475
-1.97296
-2.31935
-2.93779
-3.93729
-5.12172
-6.43604
-7.91025
-9.59438
-11.4256
-13.3926
-15.3074
-17.0127
-18.2989
-18.2189
-17.2701
-15.558
-13.6238
-11.9879
-10.4863
-9.37224
-0.982063
-1.26705
-1.86281
-2.84674
-4.11293
-5.69082
-7.61306
-9.87133
-12.5591
-15.4391
-18.2453
-20.5692
-22.0289
-21.8789
-20.6863
-18.5265
-16.1134
-13.9822
-12.1388
-10.7268
-0.341217
-0.710806
-1.43186
-2.50483
-3.90165
-5.68846
-7.94153
-10.6499
-13.8035
-17.1733
-20.3376
-22.7298
-23.8276
-23.5317
-22.1593
-20.1379
-17.8678
-15.566
-13.6162
-12.0448
-0.229256
-0.771381
-1.70725
-2.91434
-4.42498
-6.33277
-8.68836
-11.4856
-14.6155
-17.842
-20.717
-22.7818
-23.6207
-23.2114
-22.0053
-20.3549
-18.5047
-16.563
-14.7578
-13.2626
-0.815666
-1.51651
-2.63805
-3.93
-5.45123
-7.30098
-9.50865
-12.0094
-14.7059
-17.4557
-19.8927
-21.5392
-22.1371
-21.8004
-20.8294
-19.5261
-18.1042
-16.7463
-15.5256
-14.2845
-2.12572
-2.89807
-4.07694
-5.32142
-6.70674
-8.34116
-10.2216
-12.2723
-14.418
-16.5575
-18.3495
-19.5475
-20.034
-19.901
-19.2304
-18.2433
-17.1178
-16.1655
-15.5417
-14.8805
-3.84028
-4.58337
-5.71005
-6.81351
-7.98433
-9.3163
-10.7641
-12.2781
-13.859
-15.3433
-16.5591
-17.4149
-17.8502
-17.877
-17.5178
-16.8956
-16.1157
-15.3711
-14.9923
-14.7986
-5.94816
-6.18685
-7.01321
-7.84109
-8.74897
-9.78036
-10.8595
-11.9438
-13.0163
-13.9884
-14.8228
-15.4904
-15.9269
-16.1053
-16.021
-15.7334
-15.2961
-14.8312
-14.5566
-14.4009
-9.41319
-9.82829
-9.48841
-9.4268
-9.86338
-10.3765
-10.9137
-11.5151
-12.1255
-12.714
-13.2675
-13.75
-14.1317
-14.3977
-14.5348
-14.5046
-14.4159
-14.2935
-14.1509
-14.0335
-13.9398
-13.6431
-13.5498
-13.4275
-13.0747
-12.2748
-11.1986
-10.0493
-8.88269
-7.752
-6.68712
-5.7056
-4.81307
-4.00542
-3.27823
-2.63256
-2.06991
-1.57368
-1.11824
-0.720034
-14.5737
-14.1795
-13.9102
-13.2532
-12.5163
-11.621
-10.5569
-9.47816
-8.42672
-7.42401
-6.48581
-5.61824
-4.81739
-4.08877
-3.44076
-2.86832
-2.37064
-1.93149
-1.5244
-1.16403
-15.3199
-14.7403
-14.1926
-13.1807
-12.1998
-11.1172
-10.0329
-8.99604
-8.0174
-7.09951
-6.24658
-5.45855
-4.73474
-4.07475
-3.47473
-2.94283
-2.48549
-2.09014
-1.73458
-1.42549
-16.021
-15.428
-14.6437
-13.1913
-11.9542
-10.7081
-9.56888
-8.54056
-7.59754
-6.72985
-5.93333
-5.20468
-4.5427
-3.94396
-3.40614
-2.92786
-2.5075
-2.14682
-1.8341
-1.56822
-16.6041
-16.2247
-15.0978
-13.1835
-11.7312
-10.3268
-9.12131
-8.08862
-7.16365
-6.32735
-5.57226
-4.89224
-4.28343
-3.7396
-3.25671
-2.8313
-2.46132
-2.14478
-1.8709
-1.64431
-17.0927
-17.078
-15.5749
-13.1731
-11.4474
-9.9311
-8.66716
-7.62805
-6.7181
-5.90839
-5.18962
-4.5532
-3.99195
-3.49906
-3.06821
-2.69409
-2.37212
-2.0998
-1.86866
-1.67449
-17.4683
-17.7296
-15.9195
-13.0545
-11.0737
-9.48485
-8.19444
-7.15788
-6.26918
-5.49095
-4.8112
-4.21897
-3.7049
-3.26167
-2.87939
-2.55178
-2.27245
-2.03761
-1.84008
-1.67185
-17.5425
-17.9699
-16.008
-12.7316
-10.6171
-8.98653
-7.69744
-6.67719
-5.81709
-5.07592
-4.43895
-3.8921
-3.42283
-3.02145
-2.67949
-2.38954
-2.14328
-1.93656
-1.76275
-1.61163
-17.4288
-17.7154
-15.818
-12.1858
-10.058
-8.44652
-7.17734
-6.18267
-5.35594
-4.65392
-4.05936
-3.55559
-3.12766
-2.76435
-2.45625
-2.19625
-1.97587
-1.79196
-1.63766
-1.50542
-17.3451
-17.3367
-15.3757
-11.4951
-9.43087
-7.8791
-6.6377
-5.67201
-4.88236
-4.22067
-3.66685
-3.20271
-2.81198
-2.48251