/*--------------------------------*- C++ -*----------------------------------*\
  =========                 |
  \\      /  F ield         | OpenFOAM: The Open Source CFD Toolbox
   \\    /   O peration     | Website:  https://openfoam.org
    \\  /    A nd           | Version:  6
     \\/     M anipulation  |
\*---------------------------------------------------------------------------*/
FoamFile
{
    version     2.0;
    format      ascii;
    class       surfaceScalarField;
    location    "1.93";
    object      meshPhi;
}
// * * * * * * * * * * * * * * * * * * * * * * * * * * * * * * * * * * * * * //

dimensions      [0 3 -1 0 0 0 0];

internalField   nonuniform List<scalar> 
44700
(
-0.000536925
0.000993602
-0.00107232
0.00297936
-0.00160518
0.00495945
-0.0021346
0.006931
-0.00265972
0.00889115
-0.00317955
0.0108344
-0.00369324
0.0127592
-0.00419993
0.0146628
-0.00469869
0.0165386
-0.00518871
0.0183864
-0.00566918
0.0202035
-0.00613924
0.0219822
-0.00659812
0.0237238
-0.00704508
0.0254258
-0.00747931
0.0270794
-0.00790012
0.0286874
-0.00830683
0.0302475
-0.00869872
0.0317499
-0.00907515
0.033199
-0.00943555
0.0345924
-0.00977926
0.0359201
-0.0101057
0.0371873
-0.0104145
0.0383922
-0.010705
0.0395241
-0.0109767
0.0405895
-0.0112293
0.0415869
-0.0114622
0.0425051
-0.0116752
0.0433519
-0.0118679
0.044126
-0.01204
0.0448161
-0.0121912
0.0454308
-0.0123212
0.0459694
-0.0124299
0.0464205
-0.012517
0.0467935
-0.0125825
0.0470881
-0.0126262
0.0472929
-0.0126481
0.0474184
-0.0126481
0.0474642
-0.0126262
0.0474196
-0.0125825
0.0472954
-0.012517
0.0470918
-0.0124299
0.0467985
-0.0123212
0.0464266
-0.0121912
0.0459766
-0.01204
0.0454391
-0.0118679
0.0448254
-0.0116752
0.0441362
-0.0114622
0.043363
-0.0112293
0.042517
-0.0109767
0.0415995
-0.010705
0.0406028
-0.0104145
0.0395379
-0.0101057
0.0384065
-0.00977926
0.0372019
-0.00943555
0.0359349
-0.00907515
0.0346074
-0.00869872
0.0332139
-0.00830683
0.0317648
-0.00790012
0.0302622
-0.00747931
0.0287019
-0.00704508
0.0270935
-0.00659812
0.0254394
-0.00613924
0.0237368
-0.00566918
0.0219945
-0.00518871
0.020215
-0.00469869
0.0183971
-0.00419993
0.0165484
-0.00369325
0.0146713
-0.00317955
0.0127673
-0.00265971
0.0108413
-0.00213462
0.00889626
-0.00160518
0.00693551
-0.00107231
0.00496266
-0.000536937
0.00298111
4.9019e-14
0.000994274
0.000537564
-0.000994274
0.00107481
-0.00298111
0.0016108
-0.00496266
0.00214457
-0.00693551
0.00267518
-0.00889626
0.00320168
-0.0108413
0.00372313
-0.0127673
0.00423862
-0.0146713
0.00474716
-0.0165484
0.00524788
-0.0183971
0.00573991
-0.020215
0.00622226
-0.0219945
0.00669411
-0.0237368
0.00715463
-0.0254394
0.0076029
-0.0270935
0.00803813
-0.0287019
0.00845956
-0.0302622
0.00886634
-0.0317648
0.00925776
-0.0332139
0.00963311
-0.0346074
0.00999164
-0.0359349
0.0103327
-0.0372019
0.0106557
-0.0384065
0.01096
-0.0395379
0.011245
-0.0406028
0.0115102
-0.0415995
0.0117551
-0.042517
0.0119792
-0.043363
0.0121822
-0.0441362
0.0123635
-0.0448254
0.012523
-0.0454391
0.0126603
-0.0459766
0.012775
-0.0464266
0.0128671
-0.0467985
0.0129363
-0.0470918
0.0129825
-0.0472954
0.0130057
-0.0474196
0.0130057
-0.0474642
0.0129825
-0.0474184
0.0129363
-0.0472929
0.0128671
-0.0470881
0.012775
-0.0467935
0.0126603
-0.0464205
0.012523
-0.0459694
0.0123635
-0.0454308
0.0121822
-0.0448161
0.0119792
-0.044126
0.0117551
-0.0433519
0.0115102
-0.0425051
0.011245
-0.0415869
0.01096
-0.0405895
0.0106557
-0.0395241
0.0103327
-0.0383922
0.00999164
-0.0371873
0.00963311
-0.0359201
0.00925776
-0.0345924
0.00886634
-0.033199
0.00845956
-0.0317499
0.00803813
-0.0302475
0.0076029
-0.0286874
0.00715463
-0.0270794
0.00669411
-0.0254258
0.00622226
-0.0237238
0.00573991
-0.0219822
0.00524788
-0.0202035
0.00474716
-0.0183864
0.00423862
-0.0165386
0.00372312
-0.0146628
0.00320168
-0.0127592
0.00267519
-0.0108344
0.00214455
-0.00889115
0.0016108
-0.006931
0.00107483
-0.00495945
0.000537552
-0.00297936
-0.000993602
-0.00160983
0.00198484
-0.00321509
0.00595163
-0.00481273
0.0099071
-0.00640009
0.0138455
-0.00797455
0.0177612
-0.00953314
0.0216431
-0.0110733
0.0254883
-0.0125925
0.0292912
-0.0140879
0.0330384
-0.0155572
0.0367298
-0.0169978
0.04036
-0.0184072
0.0439136
-0.019783
0.0473931
-0.0211232
0.0507935
-0.0224251
0.0540973
-0.0236869
0.0573101
-0.0249063
0.0604272
-0.0260813
0.0634293
-0.02721
0.0663247
-0.0282906
0.0691093
-0.0293212
0.0717623
-0.0303001
0.0742948
-0.0312259
0.0767029
-0.0320968
0.078965
-0.0329115
0.0810945
-0.0336688
0.0830882
-0.0343673
0.0849237
-0.035006
0.0866166
-0.0355838
0.0881643
-0.0360997
0.0895442
-0.0365529
0.0907737
-0.0369428
0.091851
-0.0372687
0.0927534
-0.03753
0.0935001
-0.0377264
0.0940898
-0.0378575
0.0945004
-0.0379231
0.0947523
-0.0379231
0.0948451
-0.0378575
0.0947573
-0.0377264
0.0945104
-0.03753
0.0941047
-0.0372687
0.0935197
-0.0369428
0.0927777
-0.0365529
0.0918798
-0.0360997
0.0908068
-0.0355838
0.0895814
-0.035006
0.0882052
-0.0343673
0.086661
-0.0336688
0.0849714
-0.0329115
0.0831387
-0.0320968
0.0811475
-0.0312259
0.0790202
-0.0303001
0.0767598
-0.0293212
0.074353
-0.0282906
0.0718215
-0.02721
0.069169
-0.0260813
0.0663845
-0.0249063
0.0634888
-0.0236869
0.0604859
-0.0224251
0.0573677
-0.0211232
0.0541534
-0.019783
0.0508476
-0.0184072
0.0474449
-0.0169978
0.0439627
-0.0155572
0.0404061
-0.0140879
0.0367725
-0.0125925
0.0330775
-0.0110733
0.0293257
-0.00953314
0.0255199
-0.00797451
0.0216701
-0.00640013
0.0177824
-0.00481273
0.0138632
-0.00321506
0.00991972
-0.00160987
0.00595885
1.45648e-13
0.00198743
0.00161175
-0.00198743
0.00322255
-0.00595885
0.00482955
-0.00991972
0.00642991
-0.0138632
0.0080208
-0.0177824
0.00959936
-0.0216701
0.0111628
-0.0255199
0.0127083
-0.0293257
0.014233
-0.0330775
0.0157343
-0.0367725
0.0172095
-0.0404061
0.0186557
-0.0439627
0.0200703
-0.0474449
0.021451
-0.0508476
0.022795
-0.0541534
0.0240999
-0.0573677
0.0253634
-0.0604859
0.026583
-0.0634888
0.0277566
-0.0663845
0.0288819
-0.069169
0.0299568
-0.0718215
0.0309794
-0.074353
0.0319478
-0.0767598
0.03286
-0.0790202
0.0337145
-0.0811475
0.0345097
-0.0831387
0.0352439
-0.0849714
0.0359158
-0.086661
0.0365243
-0.0882052
0.0370681
-0.0895814
0.0375462
-0.0908068
0.0379577
-0.0918798
0.0383018
-0.0927777
0.0385778
-0.0935197
0.0387853
-0.0941047
0.0389239
-0.0945104
0.0389932
-0.0947573
0.0389932
-0.0948451
0.0389239
-0.0947523
0.0387853
-0.0945004
0.0385778
-0.0940898
0.0383018
-0.0935001
0.0379577
-0.0927534
0.0375462
-0.091851
0.0370681
-0.0907737
0.0365243
-0.0895442
0.0359158
-0.0881643
0.0352439
-0.0866166
0.0345097
-0.0849237
0.0337145
-0.0830882
0.03286
-0.0810945
0.0319478
-0.078965
0.0309794
-0.0767029
0.0299568
-0.0742948
0.0288819
-0.0717623
0.0277566
-0.0691093
0.026583
-0.0663247
0.0253634
-0.0634293
0.0240999
-0.0604272
0.022795
-0.0573101
0.021451
-0.0540973
0.0200703
-0.0507935
0.0186557
-0.0473931
0.0172095
-0.0439136
0.0157343
-0.04036
0.014233
-0.0367298
0.0127083
-0.0330384
0.0111627
-0.0292912
0.00959936
-0.0254883
0.00802083
-0.0216431
0.00642987
-0.0177612
0.00482955
-0.0138455
0.00322259
-0.0099071
0.00161171
-0.00595163
-0.00198484
-0.00267992
0.00297197
-0.00535224
0.00891159
-0.00801189
0.0148343
-0.0106544
0.0207315
-0.0132755
0.0265946
-0.0158702
0.0324073
-0.0184342
0.038165
-0.0209633
0.0438594
-0.0234529
0.0494705
-0.0258988
0.0549982
-0.0282971
0.0604344
-0.0306435
0.0657557
-0.032934
0.0709663
-0.0351651
0.0760587
-0.0373326
0.0810065
-0.0394331
0.085818
-0.0414633
0.0904863
-0.0434195
0.0949827
-0.0452986
0.0993193
-0.0470976
0.10349
-0.0488134
0.107464
-0.0504431
0.111258
-0.0519843
0.114865
-0.0534343
0.118254
-0.0547907
0.121444
-0.0560515
0.124431
-0.0572144
0.127182
-0.0582777
0.129718
-0.0592397
0.132038
-0.0600986
0.134106
-0.0608532
0.135949
-0.0615024
0.137564
-0.0620449
0.138918
-0.0624799
0.140038
-0.0628069
0.140923
-0.0630251
0.14154
-0.0631343
0.141919
-0.0631343
0.14206
-0.0630251
0.14193
-0.0628069
0.141562
-0.0624799
0.140956
-0.0620449
0.140082
-0.0615024
0.138972
-0.0608532
0.137629
-0.0600986
0.136023
-0.0592397
0.134189
-0.0582777
0.13213
-0.0572144
0.129818
-0.0560515
0.127288
-0.0547907
0.124544
-0.0534343
0.121563
-0.0519843
0.118378
-0.0504431
0.114992
-0.0488134
0.111388
-0.0470976
0.107597
-0.0452986
0.103624
-0.0434195
0.0994535
-0.0414633
0.0951161
-0.0394331
0.0906181
-0.0373326
0.0859473
-0.0351651
0.0811322
-0.032934
0.0761801
-0.0306435
0.0710825
-0.0282971
0.0658659
-0.0258988
0.0605378
-0.0234529
0.0550941
-0.0209633
0.0495582
-0.0184342
0.0439374
-0.0158702
0.0382354
-0.0132754
0.0324676
-0.0106545
0.0266428
-0.00801189
0.0207708
-0.00535218
0.0148625
-0.00267998
0.00892801
2.39378e-13
0.00297772
0.0026831
-0.00297772
0.00536462
-0.00892801
0.00803979
-0.0148625
0.0107039
-0.0207708
0.0133522
-0.0266428
0.01598
-0.0324676
0.0185826
-0.0382354
0.0211554
-0.0439374
0.0236936
-0.0495582
0.0261926
-0.0550941
0.0286483
-0.0605378
0.0310557
-0.0658659
0.0334106
-0.0710825
0.035709
-0.0761801
0.0379462
-0.0811322
0.0401184
-0.0859473
0.0422216
-0.0906181
0.0442518
-0.0951161
0.0462052
-0.0994535
0.0480785
-0.103624
0.0498678
-0.107597
0.0515699
-0.111388
0.0531819
-0.114992
0.0547004
-0.118378
0.0561228
-0.121563
0.0574464
-0.124544
0.0586685
-0.127288
0.0597871
-0.129818
0.0607999
-0.13213
0.0617051
-0.134189
0.0625008
-0.136023
0.0631858
-0.137629
0.0637586
-0.138972
0.0642181
-0.140082
0.0645635
-0.140956
0.0647941
-0.141562
0.0649096
-0.14193
0.0649096
-0.14206
0.0647941
-0.141919
0.0645635
-0.14154
0.0642181
-0.140923
0.0637586
-0.140038
0.0631858
-0.138918
0.0625008
-0.137564
0.0617051
-0.135949
0.0607999
-0.134106
0.0597871
-0.132038
0.0586685
-0.129718
0.0574464
-0.127182
0.0561228
-0.124431
0.0547004
-0.121444
0.0531819
-0.118254
0.0515699
-0.114865
0.0498678
-0.111258
0.0480785
-0.107464
0.0462052
-0.10349
0.0442518
-0.0993193
0.0422216
-0.0949827
0.0401184
-0.0904863
0.0379462
-0.085818
0.035709
-0.0810065
0.0334106
-0.0760587
0.0310557
-0.0709663
0.0286483
-0.0657557
0.0261926
-0.0604344
0.0236936
-0.0549982
0.0211554
-0.0494705
0.0185826
-0.0438594
0.01598
-0.038165
0.0133523
-0.0324073
0.0107038
-0.0265946
0.00803979
-0.0207315
0.00536468
-0.0148343
0.00268304
-0.00891159
-0.00297197
-0.00374532
0.00395327
-0.00748003
0.0118541
-0.0111971
0.0197324
-0.0148902
0.0275768
-0.0185534
0.035376
-0.0221797
0.0431081
-0.0257631
0.0507671
-0.0292978
0.0583421
-0.0327773
0.0658064
-0.0361958
0.0731597
-0.0395478
0.0803914
-0.0428271
0.0874705
-0.0460284
0.0944024
-0.0491467
0.101177
-0.0521762
0.10776
-0.055112
0.114161
-0.0579496
0.120372
-0.0606837
0.126355
-0.0633101
0.132125
-0.0658246
0.137675
-0.0682227
0.142963
-0.0705006
0.148011
-0.0726548
0.152811
-0.0746814
0.157322
-0.0765773
0.161568
-0.0783396
0.165544
-0.079965
0.169205
-0.0814512
0.172582
-0.0827957
0.17567
-0.0839963
0.178424
-0.0850511
0.180878
-0.0859584
0.183029
-0.0867167
0.184832
-0.0873248
0.186325
-0.0877818
0.187505
-0.0880868
0.188328
-0.0882394
0.188835
-0.0882394
0.189025
-0.0880868
0.188855
-0.0877818
0.188368
-0.0873248
0.187564
-0.0867167
0.186403
-0.0859584
0.184929
-0.0850511
0.183144
-0.0839963
0.181009
-0.0827957
0.178571
-0.0814512
0.175832
-0.079965
0.172758
-0.0783396
0.169394
-0.0765773
0.165744
-0.0746814
0.161778
-0.0726548
0.157541
-0.0705006
0.153037
-0.0682227
0.148242
-0.0658246
0.143198
-0.0633101
0.137912
-0.0606837
0.132363
-0.0579496
0.126591
-0.055112
0.120606
-0.0521762
0.11439
-0.0491467
0.107982
-0.0460284
0.101392
-0.0428271
0.0946082
-0.0395478
0.0876656
-0.0361958
0.0805744
-0.0327773
0.0733294
-0.0292978
0.0659616
-0.0257632
0.0584805
-0.0221797
0.0508914
-0.0185533
0.0432146
-0.0148903
0.0354619
-0.0111971
0.0276462
-0.00747995
0.0197822
-0.0037454
0.0118833
3.30039e-13
0.0039634
0.00374973
-0.0039634
0.00749724
-0.0118833
0.0112358
-0.0197822
0.014959
-0.0276462
0.01866
-0.0354619
0.0223324
-0.0432146
0.0259695
-0.0508914
0.0295649
-0.0584805
0.0331119
-0.0659616
0.0366042
-0.0733294
0.0400359
-0.0805744
0.0434001
-0.0876656
0.046691
-0.0946082
0.0499028
-0.101392
0.0530292
-0.107982
0.0560646
-0.11439
0.0590037
-0.120606
0.0618407
-0.126591
0.0645704
-0.132363
0.0671881
-0.137912
0.0696885
-0.143198
0.0720671
-0.148242
0.0743196
-0.153037
0.0764415
-0.157541
0.0784291
-0.161778
0.0802786
-0.165744
0.0819864
-0.169394
0.0835494
-0.172758
0.0849647
-0.175832
0.0862295
-0.178571
0.0873415
-0.181009
0.0882987
-0.183144
0.089099
-0.184929
0.0897411
-0.186403
0.0902238
-0.187564
0.0905461
-0.188368
0.0907074
-0.188855
0.0907074
-0.189025
0.0905461
-0.188835
0.0902238
-0.188328
0.0897411
-0.187505
0.089099
-0.186325
0.0882987
-0.184832
0.0873415
-0.183029
0.0862295
-0.180878
0.0849647
-0.178424
0.0835494
-0.17567
0.0819864
-0.172582
0.0802786
-0.169205
0.0784291
-0.165544
0.0764415
-0.161568
0.0743196
-0.157322
0.0720671
-0.152811
0.0696885
-0.148011
0.0671881
-0.142963
0.0645704
-0.137675
0.0618407
-0.132125
0.0590037
-0.126355
0.0560646
-0.120372
0.0530292
-0.114161
0.0499028
-0.10776
0.046691
-0.101177
0.0434001
-0.0944024
0.0400359
-0.0874705
0.0366042
-0.0803914
0.0331119
-0.0731597
0.0295649
-0.0658064
0.0259694
-0.0583421
0.0223324
-0.0507671
0.0186601
-0.0431081
0.0149589
-0.035376
0.0112358
-0.0275768
0.00749732
-0.0197324
0.00374965
-0.0118541
-0.00395327
-0.00480416
0.00492704
-0.00959475
0.014774
-0.0143627
0.0245929
-0.0191001
0.0343697
-0.023799
0.0440901
-0.0284506
0.0537269
-0.0330474
0.0632728
-0.0375817
0.072714
-0.0420451
0.0820173
-0.0464303
0.0911825
-0.0507303
0.100196
-0.0549371
0.10902
-0.0590439
0.11766
-0.0630441
0.126105
-0.0669305
0.134311
-0.0706967
0.14229
-0.0743369
0.150033
-0.0778445
0.157491
-0.0812138
0.164685
-0.0844396
0.171603
-0.0875161
0.178196
-0.0904385
0.18449
-0.0932021
0.190476
-0.0958021
0.1961
-0.0982344
0.201395
-0.100495
0.206353
-0.102581
0.210919
-0.104487
0.215132
-0.106212
0.218983
-0.107753
0.222419
-0.109106
0.225482
-0.11027
0.228166
-0.111243
0.230417
-0.112023
0.23228
-0.112609
0.233754
-0.113
0.234784
-0.113196
0.235419
-0.113196
0.235659
-0.113
0.23545
-0.112609
0.234845
-0.112023
0.233846
-0.111243
0.232402
-0.11027
0.230567
-0.109106
0.228344
-0.107753
0.225686
-0.106212
0.222649
-0.104487
0.219236
-0.102581
0.215406
-0.100495
0.211214
-0.0982344
0.206665
-0.0958021
0.201722
-0.0932021
0.196441
-0.0904385
0.190827
-0.0875161
0.18485
-0.0844396
0.178562
-0.0812138
0.171972
-0.0778445
0.165054
-0.0743369
0.157858
-0.0706967
0.150396
-0.0669305
0.142646
-0.0630441
0.134657
-0.0590439
0.126439
-0.0549371
0.11798
-0.0507303
0.109323
-0.0464303
0.100481
-0.0420451
0.0914464
-0.0375817
0.0822586
-0.0330475
0.0729295
-0.0284506
0.0634656
-0.0237989
0.0538921
-0.0191002
0.044224
-0.0143627
0.0344773
-0.00959464
0.0246701
-0.00480427
0.0148196
4.17517e-13
0.00494272
0.00480978
-0.00494272
0.00961666
-0.0148196
0.0144121
-0.0246701
0.0191876
-0.0344773
0.0239348
-0.044224
0.0286451
-0.0538921
0.0333102
-0.0634656
0.0379218
-0.0729295
0.0424712
-0.0822586
0.0469506
-0.0914464
0.051352
-0.100481
0.0556669
-0.109323
0.0598878
-0.11798
0.0640071
-0.126439
0.0680169
-0.134657
0.07191
-0.142646
0.0756796
-0.150396
0.0793181
-0.157858
0.0828191
-0.165054
0.0861763
-0.171972
0.0893831
-0.178562
0.0924336
-0.18485
0.0953225
-0.190827
0.0980439
-0.196441
0.100593
-0.201722
0.102965
-0.206665
0.105155
-0.211214
0.10716
-0.215406
0.108975
-0.219236
0.110597
-0.222649
0.112023
-0.225686
0.11325
-0.228344
0.114277
-0.230567
0.1151
-0.232402
0.115719
-0.233846
0.116133
-0.234845
0.11634
-0.23545
0.11634
-0.235659
0.116133
-0.235419
0.115719
-0.234784
0.1151
-0.233754
0.114277
-0.23228
0.11325
-0.230417
0.112023
-0.228166
0.110597
-0.225482
0.108975
-0.222419
0.10716
-0.218983
0.105155
-0.215132
0.102965
-0.210919
0.100593
-0.206353
0.0980439
-0.201395
0.0953225
-0.1961
0.0924336
-0.190476
0.0893831
-0.18449
0.0861763
-0.178196
0.0828191
-0.171603
0.0793181
-0.164685
0.0756796
-0.157491
0.07191
-0.150033
0.0680169
-0.14229
0.0640071
-0.134311
0.0598878
-0.126105
0.0556669
-0.11766
0.051352
-0.10902
0.0469506
-0.100196
0.0424712
-0.0911825
0.0379218
-0.0820173
0.0333101
-0.072714
0.0286451
-0.0632728
0.0239349
-0.0537269
0.0191875
-0.0440901
0.0144121
-0.0343697
0.00961677
-0.0245929
0.00480967
-0.014774
-0.00492704
-0.00585458
0.00589158
-0.0116927
0.0176662
-0.0175033
0.0294074
-0.0232766
0.0410981
-0.0290032
0.0527216
-0.0346722
0.0642452
-0.0402744
0.0756602
-0.0458005
0.0869501
-0.0512402
0.0980753
-0.0565848
0.109035
-0.0618255
0.119815
-0.0669526
0.130367
-0.071958
0.1407
-0.0768334
0.150799
-0.0815702
0.160613
-0.0861606
0.170156
-0.0905974
0.179417
-0.0948726
0.188337
-0.0989793
0.196941
-0.102911
0.205217
-0.106661
0.213104
-0.110223
0.220633
-0.113592
0.227794
-0.116761
0.234522
-0.119725
0.240857
-0.122481
0.246789
-0.125023
0.252253
-0.127347
0.257294
-0.12945
0.261904
-0.131327
0.266016
-0.132977
0.269682
-0.134396
0.272896
-0.135581
0.275591
-0.136532
0.277824
-0.137247
0.279591
-0.137724
0.280825
-0.137963
0.281588
-0.137963
0.281879
-0.137724
0.281633
-0.137247
0.280913
-0.136532
0.279722
-0.135581
0.277998
-0.134396
0.275806
-0.132977
0.27315
-0.131327
0.269974
-0.12945
0.266344
-0.127347
0.262265
-0.125023
0.257686
-0.122481
0.252674
-0.119725
0.247235
-0.116761
0.241325
-0.113592
0.235009
-0.110223
0.228296
-0.106661
0.221147
-0.102911
0.213626
-0.0989793
0.205745
-0.0948726
0.19747
-0.0905974
0.188862
-0.0861606
0.179936
-0.0815702
0.170665
-0.0768334
0.161108
-0.071958
0.151277
-0.0669526
0.141158
-0.0618255
0.130801
-0.0565848
0.120222
-0.0512402
0.109413
-0.0458005
0.0984205
-0.0402745
0.0872588
-0.0346722
0.0759357
-0.0290031
0.0644814
-0.0232767
0.0529137
-0.0175033
0.0412519
-0.0116926
0.0295178
-0.00585471
0.0177316
5.01653e-13
0.00591396
0.00586137
-0.00591396
0.0117192
-0.0177316
0.0175629
-0.0295178
0.0233824
-0.0412519
0.0291672
-0.0529137
0.0349071
-0.0644814
0.0405918
-0.0759357
0.0462113
-0.0872588
0.0517549
-0.0984205
0.0572131
-0.109413
0.0625764
-0.120222
0.0678341
-0.130801
0.0729772
-0.141158
0.0779966
-0.151277
0.0828824
-0.161108
0.0876261
-0.170665
0.0922191
-0.179936
0.0966524
-0.188862
0.100918
-0.19747
0.105009
-0.205745
0.108916
-0.213626
0.112633
-0.221147
0.116153
-0.228296
0.119468
-0.235009
0.122574
-0.241325
0.125464
-0.247235
0.128133
-0.252674
0.130575
-0.257686
0.132786
-0.262265
0.134763
-0.266344
0.1365
-0.269974
0.137996
-0.27315
0.139246
-0.275806
0.14025
-0.277998
0.141004
-0.279722
0.141507
-0.280913
0.141759
-0.281633
0.141759
-0.281879
0.141507
-0.281588
0.141004
-0.280825
0.14025
-0.279591
0.139246
-0.277824
0.137996
-0.275591
0.1365
-0.272896
0.134763
-0.269682
0.132786
-0.266016
0.130575
-0.261904
0.128133
-0.257294
0.125464
-0.252253
0.122574
-0.246789
0.119468
-0.240857
0.116153
-0.234522
0.112633
-0.227794
0.108916
-0.220633
0.105009
-0.213104
0.100918
-0.205217
0.0966524
-0.196941
0.0922191
-0.188337
0.0876261
-0.179417
0.0828824
-0.170156
0.0779966
-0.160613
0.0729772
-0.150799
0.0678341
-0.1407
0.0625764
-0.130367
0.0572131
-0.119815
0.0517549
-0.109035
0.0462113
-0.0980753
0.0405917
-0.0869501
0.0349071
-0.0756602
0.0291674
-0.0642452
0.0233822
-0.0527216
0.0175629
-0.0410981
0.0117193
-0.0294074
0.00586124
-0.0176662
-0.00589158
-0.00689475
0.00684521
-0.0137702
0.0205257
-0.0206133
0.0341674
-0.0274126
0.0477506
-0.0341569
0.0612556
-0.0408336
0.0746447
-0.0474315
0.0879078
-0.05394
0.101026
-0.0603468
0.113952
-0.0666416
0.126687
-0.0728141
0.139212
-0.078853
0.151474
-0.0847485
0.163481
-0.090491
0.175217
-0.0960703
0.18662
-0.101477
0.197711
-0.106703
0.208473
-0.111739
0.218839
-0.116576
0.228839
-0.121208
0.238457
-0.125625
0.247624
-0.12982
0.256375
-0.133788
0.264698
-0.137521
0.27252
-0.141014
0.279884
-0.14426
0.286781
-0.147254
0.293133
-0.149992
0.298994
-0.152469
0.304355
-0.154681
0.309137
-0.156624
0.313401
-0.158295
0.31714
-0.159692
0.320277
-0.160812
0.322875
-0.161654
0.324933
-0.162216
0.326372
-0.162497
0.327263
-0.162497
0.327605
-0.162216
0.327323
-0.161654
0.326491
-0.160812
0.32511
-0.159692
0.32311
-0.158295
0.320567
-0.156624
0.317484
-0.154681
0.313796
-0.152469
0.309581
-0.149992
0.304843
-0.147254
0.299524
-0.14426
0.293702
-0.141014
0.287383
-0.137521
0.280516
-0.133788
0.273177
-0.12982
0.265377
-0.125625
0.25707
-0.121208
0.24833
-0.116576
0.23917
-0.111739
0.229552
-0.106703
0.219549
-0.101477
0.209174
-0.0960703
0.198398
-0.090491
0.187289
-0.0847485
0.175862
-0.078853
0.164099
-0.0728141
0.15206
-0.0666416
0.139762
-0.0603468
0.127197
-0.05394
0.114419
-0.0474317
0.101443
-0.0408336
0.0882796
-0.0341568
0.0749636
-0.0274128
0.0615156
-0.0206133
0.0479581
-0.01377
0.0343164
-0.00689491
0.0206143
5.82335e-13
0.0068754
0.00690267
-0.0068754
0.013801
-0.0206143
0.0206828
-0.0343164
0.0275358
-0.0479581
0.0343481
-0.0615156
0.0411073
-0.0749636
0.0478014
-0.0882796
0.0544186
-0.101443
0.0609465
-0.114419
0.0673737
-0.127197
0.073689
-0.139762
0.07988
-0.15206
0.085936
-0.164099
0.0918462
-0.175862
0.0975991
-0.187289
0.103185
-0.198398
0.108593
-0.209174
0.113813
-0.219549
0.118835
-0.229552
0.123651
-0.23917
0.128252
-0.24833
0.132628
-0.25707
0.136772
-0.265377
0.140676
-0.273177
0.144333
-0.280516
0.147735
-0.287383
0.150877
-0.293702
0.153753
-0.299524
0.156356
-0.304843
0.158683
-0.309581
0.160729
-0.313796
0.16249
-0.317484
0.163962
-0.320567
0.165143
-0.32311
0.166031
-0.32511
0.166624
-0.326491
0.16692
-0.327323
0.16692
-0.327605
0.166624
-0.327263
0.166031
-0.326372
0.165143
-0.324933
0.163962
-0.322875
0.16249
-0.320277
0.160729
-0.31714
0.158683
-0.313401
0.156356
-0.309137
0.153753
-0.304355
0.150877
-0.298994
0.147735
-0.293133
0.144333
-0.286781
0.140676
-0.279884
0.136772
-0.27252
0.132628
-0.264698
0.128252
-0.256375
0.123651
-0.247624
0.118835
-0.238457
0.113813
-0.228839
0.108593
-0.218839
0.103185
-0.208473
0.0975991
-0.197711
0.0918462
-0.18662
0.085936
-0.175217
0.07988
-0.163481
0.073689
-0.151474
0.0673737
-0.139212
0.0609465
-0.126687
0.0544186
-0.113952
0.0478012
-0.101026
0.0411073
-0.0879078
0.0343482
-0.0746447
0.0275357
-0.0612556
0.0206828
-0.0477506
0.0138012
-0.0341674
0.00690251
-0.0205257
-0.00684521
-0.00792285
0.00778628
-0.0158236
0.0233476
-0.0236873
0.0388648
-0.0315008
0.0543155
-0.0392513
0.0696774
-0.046924
0.0849075
-0.0545065
0.0999944
-0.0619862
0.114916
-0.0693492
0.129621
-0.0765835
0.144108
-0.0836774
0.158356
-0.0906178
0.172304
-0.0973934
0.185964
-0.103993
0.199315
-0.110406
0.212288
-0.11662
0.224906
-0.122627
0.23715
-0.128415
0.248944
-0.133975
0.260322
-0.139298
0.271266
-0.144375
0.281696
-0.149198
0.291654
-0.153758
0.301126
-0.158049
0.310027
-0.162064
0.318409
-0.165795
0.326258
-0.169237
0.333489
-0.172384
0.34016
-0.175231
0.346263
-0.177773
0.351708
-0.180007
0.356564
-0.181928
0.360822
-0.183534
0.364395
-0.184821
0.367356
-0.185789
0.369702
-0.186435
0.371344
-0.186758
0.372362
-0.186758
0.372756
-0.186435
0.372439
-0.185789
0.371498
-0.184821
0.369931
-0.183534
0.36766
-0.181928
0.364771
-0.180007
0.361267
-0.177773
0.357075
-0.175231
0.352282
-0.172384
0.346896
-0.169237
0.340847
-0.165795
0.334225
-0.162064
0.327038
-0.158049
0.319227
-0.153758
0.310879
-0.149198
0.302005
-0.144375
0.292554
-0.139298
0.28261
-0.133975
0.272188
-0.128415
0.261246
-0.122627
0.249863
-0.11662
0.238057
-0.110406
0.225796
-0.103993
0.213154
-0.0973934
0.20015
-0.0906178
0.186764
-0.0836774
0.173063
-0.0765835
0.159068
-0.0693492
0.144768
-0.0619862
0.130225
-0.0545066
0.115457
-0.046924
0.100475
-0.0392511
0.08532
-0.031501
0.0700144
-0.0236873
0.0545839
-0.0158234
0.0390576
-0.00792303
0.0234624
6.59438e-13
0.00782532
0.00793183
-0.00782532
0.0158586
-0.0234624
0.0237662
-0.0390576
0.0316407
-0.0545839
0.0394681
-0.0700144
0.0472346
-0.08532
0.0549261
-0.100475
0.0625292
-0.115457
0.0700296
-0.130225
0.0774142
-0.144768
0.0846701
-0.159068
0.0917831
-0.173063
0.0987408
-0.186764
0.105531
-0.20015
0.112141
-0.213154
0.118557
-0.225796
0.124771
-0.238057
0.130768
-0.249863
0.136538
-0.261246
0.142071
-0.272188
0.147356
-0.28261
0.152383
-0.292554
0.157144
-0.302005
0.161629
-0.310879
0.165829
-0.319227
0.169738
-0.327038
0.173348
-0.334225
0.176651
-0.340847
0.179642
-0.346896
0.182315
-0.352282
0.184664
-0.357075
0.186687
-0.361267
0.188378
-0.364771
0.189735
-0.36766
0.190755
-0.369931
0.191436
-0.371498
0.191777
-0.372439
0.191777
-0.372756
0.191436
-0.372362
0.190755
-0.371344
0.189735
-0.369702
0.188378
-0.367356
0.186687
-0.364395
0.184664
-0.360822
0.182315
-0.356564
0.179642
-0.351708
0.176651
-0.346263
0.173348
-0.34016
0.169738
-0.333489
0.165829
-0.326258
0.161629
-0.318409
0.157144
-0.310027
0.152383
-0.301126
0.147356
-0.291654
0.142071
-0.281696
0.136538
-0.271266
0.130768
-0.260322
0.124771
-0.248944
0.118557
-0.23715
0.112141
-0.224906
0.105531
-0.212288
0.0987408
-0.199315
0.0917831
-0.185964
0.0846701
-0.172304
0.0774142
-0.158356
0.0700296
-0.144108
0.0625292
-0.129621
0.0549259
-0.114916
0.0472346
-0.0999944
0.0394683
-0.0849075
0.0316405
-0.0696774
0.0237662
-0.0543155
0.0158588
-0.0388648
0.00793165
-0.0233476
-0.00778628
-0.00893707
0.00871317
-0.0178494
0.026127
-0.02672
0.0434914
-0.0355342
0.0607815
-0.0442773
0.0779723
-0.052933
0.0950158
-0.0614869
0.111899
-0.069925
0.128598
-0.0782316
0.145054
-0.0863932
0.161266
-0.0943964
0.177212
-0.102227
0.192822
-0.109871
0.208109
-0.117317
0.223051
-0.124552
0.237572
-0.131564
0.251694
-0.138341
0.265398
-0.144871
0.2786
-0.151145
0.291336
-0.157151
0.303587
-0.16288
0.315262
-0.168321
0.32641
-0.173468
0.337014
-0.178309
0.346979
-0.182839
0.356363
-0.187049
0.365153
-0.190933
0.373249
-0.194484
0.380721
-0.197697
0.387556
-0.200566
0.393655
-0.203086
0.399094
-0.205254
0.403865
-0.207066
0.407869
-0.208519
0.411188
-0.209611
0.413819
-0.21034
0.415662
-0.210705
0.416807
-0.210705
0.417253
-0.21034
0.416904
-0.209611
0.415855
-0.208519
0.414107
-0.207066
0.411569
-0.205254
0.40834
-0.203086
0.404423
-0.200566
0.399735
-0.197697
0.394374
-0.194484
0.388348
-0.190933
0.381581
-0.187049
0.374171
-0.182839
0.36613
-0.178309
0.357389
-0.173468
0.348046
-0.168321
0.338115
-0.16288
0.327537
-0.157151
0.316407
-0.151145
0.304742
-0.144871
0.292493
-0.138341
0.279751
-0.131564
0.266536
-0.124552
0.252809
-0.117317
0.238657
-0.109871
0.224099
-0.102227
0.209112
-0.0943964
0.193773
-0.0863932
0.178104
-0.0782316
0.162093
-0.069925
0.14581
-0.0614871
0.129276
-0.052933
0.112501
-0.0442771
0.0955324
-0.0355344
0.0783949
-0.02672
0.0611176
-0.0178492
0.0437329
-0.00893727
0.0262709
7.32874e-13
0.00876204
0.00894706
-0.00876204
0.0178882
-0.0262709
0.0268077
-0.0437329
0.0356896
-0.0611176
0.0445184
-0.0783949
0.0532782
-0.0955324
0.0619534
-0.112501
0.0705287
-0.129276
0.078988
-0.14581
0.0873166
-0.162093
0.0955
-0.178104
0.103522
-0.193773
0.111369
-0.209112
0.119027
-0.224099
0.126481
-0.238657
0.133717
-0.252809
0.140724
-0.266536
0.147487
-0.279751
0.153994
-0.292493
0.160234
-0.304742
0.166193
-0.316407
0.171863
-0.327537
0.177231
-0.338115
0.182289
-0.348046
0.187025
-0.357389
0.191433
-0.36613
0.195503
-0.374171
0.199228
-0.381581
0.2026
-0.388348
0.205614
-0.394374
0.208264
-0.399735
0.210545
-0.404423
0.212452
-0.40834
0.213982
-0.411569
0.215132
-0.414107
0.2159
-0.415855
0.216284
-0.416904
0.216284
-0.417253
0.2159
-0.416807
0.215132
-0.415662
0.213982
-0.413819
0.212452
-0.411188
0.210545
-0.407869
0.208264
-0.403865
0.205614
-0.399094
0.2026
-0.393655
0.199228
-0.387556
0.195503
-0.380721
0.191433
-0.373249
0.187025
-0.365153
0.182289
-0.356363
0.177231
-0.346979
0.171863
-0.337014
0.166193
-0.32641
0.160234
-0.315262
0.153994
-0.303587
0.147487
-0.291336
0.140724
-0.2786
0.133717
-0.265398
0.126481
-0.251694
0.119027
-0.237572
0.111369
-0.223051
0.103522
-0.208109
0.0955
-0.192822
0.0873166
-0.177212
0.078988
-0.161266
0.0705287
-0.145054
0.0619532
-0.128598
0.0532782
-0.111899
0.0445186
-0.0950158
0.0356894
-0.0779723
0.0268077
-0.0607815
0.0178884
-0.0434914
0.00894685
-0.026127
-0.00871317
-0.00993563
0.00962428
-0.0198439
0.028859
-0.029706
0.0480392
-0.0395056
0.0671374
-0.0492263
0.086126
-0.05885
0.104952
-0.0683606
0.123601
-0.0777428
0.142047
-0.0869788
0.160224
-0.0960537
0.178133
-0.104953
0.195747
-0.11366
0.212992
-0.12216
0.22988
-0.13044
0.246386
-0.138485
0.262427
-0.146282
0.278029
-0.153819
0.29317
-0.161081
0.307756
-0.168057
0.321827
-0.174737
0.335362
-0.181107
0.348263
-0.187159
0.360582
-0.192882
0.372299
-0.198267
0.383312
-0.203305
0.393682
-0.207987
0.403396
-0.212306
0.412345
-0.216256
0.420604
-0.219829
0.42816
-0.223019
0.434903
-0.225823
0.440917
-0.228234
0.446194
-0.230249
0.450622
-0.231866
0.454295
-0.23308
0.457207
-0.233891
0.459249
-0.234296
0.46052
-0.234296
0.461018
-0.233891
0.460638
-0.23308
0.459484
-0.231866
0.457558
-0.230249
0.45476
-0.228234
0.451197
-0.225823
0.446875
-0.223019
0.441699
-0.219829
0.435781
-0.216256
0.429127
-0.212306
0.421654
-0.207987
0.413471
-0.203305
0.40459
-0.198267
0.394935
-0.192882
0.384614
-0.187159
0.373643
-0.181107
0.361957
-0.174737
0.349661
-0.168057
0.336773
-0.161081
0.323239
-0.153819
0.309161
-0.146282
0.294558
-0.138485
0.27939
-0.13044
0.263752
-0.12216
0.247665
-0.11366
0.231103
-0.104953
0.214152
-0.0960537
0.196836
-0.0869788
0.179143
-0.0777428
0.161148
-0.0683609
0.142875
-0.05885
0.124336
-0.0492261
0.105583
-0.0395058
0.0866424
-0.029706
0.0675476
-0.0198437
0.0483339
-0.00993586
0.0290348
8.02536e-13
0.00968389
0.00994656
-0.00968389
0.0198864
-0.0290348
0.0298019
-0.0483339
0.0396756
-0.0675476
0.0494899
-0.0866424
0.0592274
-0.105583
0.0688707
-0.124336
0.0784028
-0.142875
0.0878059
-0.161148
0.0970634
-0.179143
0.106159
-0.196836
0.115076
-0.214152
0.123798
-0.231103
0.132309
-0.247665
0.140594
-0.263752
0.148637
-0.27939
0.156424
-0.294558
0.163941
-0.309161
0.171173
-0.323239
0.178107
-0.336773
0.184731
-0.349661
0.191031
-0.361957
0.196998
-0.373643
0.202618
-0.384614
0.207882
-0.394935
0.21278
-0.40459
0.217303
-0.413471
0.221443
-0.421654
0.225191
-0.429127
0.22854
-0.435781
0.231485
-0.441699
0.234019
-0.446875
0.236138
-0.451197
0.237839
-0.45476
0.239117
-0.457558
0.23997
-0.459484
0.240397
-0.460638
0.240397
-0.461018
0.23997
-0.46052
0.239117
-0.459249
0.237839
-0.457207
0.236138
-0.454295
0.234019
-0.450622
0.231485
-0.446194