/*--------------------------------*- C++ -*----------------------------------*\
  =========                 |
  \\      /  F ield         | OpenFOAM: The Open Source CFD Toolbox
   \\    /   O peration     | Website:  https://openfoam.org
    \\  /    A nd           | Version:  6
     \\/     M anipulation  |
\*---------------------------------------------------------------------------*/
FoamFile
{
    version     2.0;
    format      ascii;
    class       surfaceVectorField;
    location    "3.08";
    object      Uf;
}
// * * * * * * * * * * * * * * * * * * * * * * * * * * * * * * * * * * * * * //

dimensions      [0 1 -1 0 0 0 0];

internalField   nonuniform List<vector> 
8193
(
(5.01342 -0.0714281 0)
(5.07915 -0.0809189 0)
(4.75136 -0.107119 0)
(5.13313 -0.0433141 0)
(5.1788 -0.0453269 1.02823e-20)
(5.17669 -0.01238 -9.2456e-21)
(5.20477 -0.019672 1.06681e-20)
(5.20203 0.0177504 -1.62508e-19)
(5.2199 0.00127004 4.54934e-20)
(5.22699 0.0469739 6.86391e-21)
(5.24084 0.0252395 1.73384e-20)
(5.25351 0.0760997 2.0223e-21)
(5.26539 0.052022 -7.38897e-21)
(5.28154 0.105459 4.27116e-20)
(5.29147 0.0796832 5.00399e-21)
(5.31231 0.135426 -2.54498e-21)
(5.31966 0.107622 -4.49229e-21)
(5.34889 0.167243 -8.56483e-22)
(5.35278 0.136236 9.45172e-21)
(5.39517 0.203538 -4.58739e-21)
(5.39549 0.16722 -5.19678e-21)
(5.45349 0.24782 4.40363e-21)
(5.45176 0.203304 1.21421e-21)
(5.52014 0.303578 -9.04684e-22)
(5.52216 0.248131 -5.0775e-22)
(5.57843 0.370145 -3.99043e-21)
(5.59585 0.305548 -3.96832e-22)
(5.59992 0.435144 4.0779e-22)
(5.64083 0.365001 -3.14818e-22)
(5.54636 0.482437 0)
(5.62445 0.418433 0)
(5.34522 0.469264 -2.15874e-22)
(5.48567 0.440961 0)
(4.94476 0.320004 -5.44139e-22)
(5.10425 0.350739 -1.15513e-20)
(4.40933 0.015247 -5.23029e-22)
(4.50926 0.0837886 3.10289e-20)
(3.9893 -0.34151 4.65355e-23)
(3.9063 -0.322076 4.64149e-23)
(3.93133 -0.585415 0)
(3.70442 -0.639677 0)
(4.13382 -0.71747 2.11242e-21)
(3.92714 -0.788376 0)
(4.35072 -0.789868 2.14165e-21)
(4.21456 -0.877495 -3.37397e-20)
(4.5032 -0.804406 -2.97977e-22)
(4.43458 -0.893322 3.46208e-21)
(4.60221 -0.78763 2.52123e-22)
(4.57709 -0.870262 8.83796e-22)
(4.66802 -0.76243 9.90434e-22)
(4.65917 -0.838811 -6.24226e-21)
(4.72397 -0.73631 1.53561e-21)
(4.71549 -0.808807 -8.6086e-21)
(4.78505 -0.707859 -5.77313e-22)
(4.77373 -0.778099 3.16417e-22)
(4.85362 -0.673156 3.39038e-21)
(4.84405 -0.741346 -8.95939e-22)
(4.92382 -0.630166 1.68807e-20)
(4.92171 -0.695253 -4.89679e-21)
(4.98829 -0.579638 -1.98251e-20)
(4.99675 -0.640312 2.41514e-20)
(5.04214 -0.523914 9.68245e-22)
(5.0613 -0.579191 -7.48877e-21)
(5.08387 -0.465512 -6.2517e-20)
(5.11206 -0.515105 2.57435e-20)
(5.11427 -0.406276 -3.7804e-21)
(5.14947 -0.450608 -4.51605e-21)
(5.13463 -0.347288 -9.70954e-21)
(5.17565 -0.387258 -1.21763e-20)
(5.14622 -0.288618 1.80271e-19)
(5.19244 -0.325542 7.65618e-22)
(5.15105 -0.229657 -2.03612e-19)
(5.20177 -0.265197 1.97999e-20)
(5.15051 -0.169644 4.12244e-19)
(5.20635 -0.206455 -3.0799e-20)
(5.14258 -0.106559 -3.06603e-19)
(5.20901 -0.150354 9.216e-20)
(5.11111 -0.0397212 -3.06502e-20)
(5.21054 -0.0948159 -6.85667e-20)
(4.99722 0.0226368 -6.68296e-22)
(5.19331 -0.0292543 3.52081e-20)
(5.09492 0.0463452 -2.44624e-21)
(4.7256 0.0870704 -5.78714e-22)
(5.19661 -0.026785 1.01728e-20)
(5.16449 -0.0446378 0)
(5.11533 -0.0744917 -1.12744e-19)
(5.21639 -0.0148859 2.06027e-20)
(5.19757 -0.0262806 7.82682e-20)
(5.22975 -0.00227635 2.24279e-20)
(5.22015 -0.0114439 4.07573e-20)
(5.24879 0.0161649 2.22997e-20)
(5.2403 0.00271914 4.01357e-20)
(5.27152 0.0377287 8.72678e-20)
(5.26284 0.0215278 2.99946e-20)
(5.29607 0.0610417 -4.2867e-21)
(5.2873 0.0444326 1.1539e-20)
(5.32245 0.0853982 5.57699e-22)
(5.31279 0.0688719 -4.40155e-21)
(5.35292 0.110553 -3.73565e-21)
(5.34056 0.0934218 -1.6361e-20)
(5.39173 0.137443 2.78712e-22)
(5.37429 0.118084 -5.28716e-21)
(5.44342 0.167774 1.51608e-21)
(5.41889 0.144185 6.02707e-21)
(5.5101 0.204173 1.68558e-22)
(5.47846 0.17352 -5.91612e-21)
(5.58537 0.249264 0)
(5.55316 0.209033 1.1654e-22)
(5.64414 0.302341 -2.13252e-23)
(5.62986 0.254092 -8.76063e-23)
(5.65136 0.348938 -2.14007e-23)
(5.66893 0.297802 -5.61063e-22)
(5.55611 0.376116 0)
(5.63927 0.336192 0)
(5.25204 0.325458 2.1592e-22)
(5.45235 0.336655 0)
(4.69886 0.112879 4.97894e-22)
(4.97292 0.208594 6.50905e-24)
(4.06043 -0.254765 2.82528e-22)
(4.28415 -0.106267 2.85908e-21)
(3.68091 -0.625851 0)
(3.67898 -0.534375 5.79205e-22)
(3.7443 -0.840234 0)
(3.57307 -0.829512 -5.67806e-22)
(4.03582 -0.945733 -2.11252e-21)
(3.86314 -0.972318 0)
(4.31442 -0.978607 1.30501e-21)
(4.19627 -1.03354 6.21292e-21)
(4.51365 -0.95748 3.64795e-21)
(4.45149 -1.02161 1.00809e-20)
(4.6319 -0.920984 -2.65407e-22)
(4.60481 -0.985953 3.08261e-22)
(4.70149 -0.885235 -1.31884e-21)
(4.687 -0.947737 -4.57453e-22)
(4.75916 -0.850892 -8.6377e-22)
(4.74274 -0.911581 -8.5875e-22)
(4.82577 -0.812479 0)
(4.80406 -0.872959 9.89823e-21)
(4.90377 -0.765324 -3.75818e-21)
(4.88084 -0.825851 -2.89672e-21)
(4.98453 -0.708429 8.50742e-21)
(4.96605 -0.768009 -5.14293e-21)
(5.05797 -0.644145 -1.88772e-22)
(5.04738 -0.701369 6.914e-21)
(5.11812 -0.575959 -3.83304e-21)
(5.11605 -0.629474 -1.08728e-20)
(5.16368 -0.506971 1.53791e-21)
(5.16884 -0.555841 -6.97892e-21)
(5.19625 -0.439283 -7.74412e-22)
(5.20677 -0.48314 -8.43369e-21)
(5.2183 -0.374187 -2.63492e-21)
(5.23245 -0.41297 -9.12284e-21)
(5.2321 -0.312109 -1.85822e-21)
(5.24836 -0.346029 2.80744e-20)
(5.23993 -0.253079 2.70225e-21)
(5.25666 -0.282585 -2.75789e-20)
(5.24434 -0.19713 4.08382e-20)
(5.25981 -0.223562 7.08643e-20)
(5.24686 -0.144036 5.94654e-20)
(5.26098 -0.170716 3.79586e-20)
(5.24776 -0.09416 -2.571e-21)
(5.26061 -0.122355 -1.00833e-19)
(5.23591 -0.0407245 -7.18158e-19)
(5.25284 -0.0681099 8.79923e-20)
(5.22753 -0.00897892 -7.40284e-20)
(5.16022 0.052003 1.07519e-19)
(5.1949 -0.022896 -1.07723e-20)
(5.19195 -0.0340025 7.28678e-20)
(5.17801 -0.0417062 1.31352e-19)
(5.21344 -0.0169392 -2.18031e-20)
(5.2105 -0.0279046 -1.97634e-19)
(5.23667 -0.00699361 -2.07671e-20)
(5.23727 -0.0144498 9.69514e-20)
(5.26085 0.0107268 9.91279e-21)
(5.26278 0.0018868 -7.73263e-20)
(5.28479 0.0322997 8.27101e-20)
(5.28633 0.0205937 5.21689e-20)
(5.30911 0.0549369 2.46225e-20)
(5.30972 0.0418898 -3.12474e-20)
(5.33521 0.0778912 -2.18175e-20)
(5.33399 0.0643842 -2.03693e-20)
(5.3659 0.101068 -5.30354e-21)
(5.36095 0.086527 1.46738e-20)
(5.40548 0.124712 1.04613e-21)
(5.3945 0.10787 -8.02317e-21)
(5.45843 0.149848 6.00449e-21)
(5.43981 0.129058 6.43883e-22)
(5.52675 0.178191 1.551e-21)
(5.50104 0.150811 -9.75355e-22)
(5.60365 0.212354 5.95471e-21)
(5.57842 0.175197 -2.42276e-21)
(5.6614 0.252585 -1.00407e-20)
(5.65687 0.205993 2.83676e-23)
(5.6619 0.283626 7.84336e-23)
(5.6879 0.235562 7.83573e-23)
(5.53783 0.29807 0)
(5.64564 0.26076 0)
(5.16976 0.22314 -2.10005e-22)
(5.40181 0.242067 0)
(4.54434 -0.0131969 -3.71505e-22)
(4.82335 0.0875884 -2.11094e-22)
(3.87914 -0.388323 3.16754e-21)
(4.05127 -0.250042 -9.04303e-21)
(3.5462 -0.750252 3.88775e-21)
(3.45606 -0.67485 1.40243e-20)
(3.67492 -0.959257 -5.70005e-22)
(3.44563 -0.959016 -1.59441e-20)
(4.01356 -1.05765 8.29542e-21)
(3.8047 -1.10077 -4.08201e-22)
(4.3271 -1.07391 4.90846e-21)
(4.18951 -1.14314 -2.44752e-20)
(4.54009 -1.04864 -3.34645e-21)
(4.47222 -1.12672 -1.09412e-20)
(4.65941 -1.01198 1.17612e-22)
(4.6342 -1.09222 -3.94788e-21)
(4.72851 -0.973919 0)
(4.71832 -1.05269 0)
(4.78832 -0.933685 9.84583e-21)
(4.77611 -1.01099 0)
(4.8602 -0.886411 6.42663e-21)
(4.84261 -0.963624 -1.5627e-20)
(4.94475 -0.829081 -4.27379e-21)
(4.92687 -0.906386 -7.27938e-21)
(5.03129 -0.762236 -4.05658e-21)
(5.01968 -0.838494 2.00197e-20)
(5.10864 -0.688842 7.19539e-21)
(5.1071 -0.762553 -2.01703e-20)
(5.17072 -0.612446 -3.05503e-21)
(5.17975 -0.68212 5.40593e-21)
(5.2166 -0.535951 -1.68748e-20)
(5.23462 -0.600503 2.47731e-20)
(5.2483 -0.461417 -1.67204e-20)
(5.27312 -0.520255 -1.51583e-20)
(5.26862 -0.390166 3.04179e-20)
(5.29827 -0.44297 2.871e-20)
(5.28009 -0.322884 -7.54263e-20)
(5.313 -0.369554 1.25978e-20)
(5.28498 -0.259839 2.88719e-20)
(5.31976 -0.300721 -1.60976e-20)
(5.28537 -0.201341 -5.71801e-20)
(5.32083 -0.237648 9.63324e-20)
(5.28295 -0.148579 -1.14087e-19)
(5.31836 -0.181532 5.29936e-20)
(5.27864 -0.102947 6.49752e-22)
(5.31245 -0.130809 -7.57838e-20)
(5.27289 -0.0619791 -5.62505e-19)
(5.30126 -0.0800629 -2.01548e-20)
(5.2909 -0.0391409 -6.80542e-20)
(5.26309 -0.0106542 -5.12107e-20)
(5.212 -0.0235509 1.74969e-19)
(5.20774 -0.0299373 1.49823e-20)
(5.19214 -0.0291578 -1.54978e-20)
(5.23623 -0.0146867 -3.9437e-19)
(5.22944 -0.0242919 -7.08794e-20)
(5.26204 -0.00301824 8.4461e-20)
(5.25796 -0.0093606 -3.68659e-20)
(5.28688 0.0130383 -3.3529e-20)
(5.28525 0.00778891 -1.96225e-20)
(5.31035 0.0324194 6.29375e-21)
(5.30907 0.0254642 3.22892e-20)
(5.33355 0.0530273 -2.62308e-20)
(5.33128 0.044543 -1.58197e-20)
(5.35844 0.0736086 1.18499e-20)
(5.35399 0.0644283 0)
(5.38822 0.0934316 7.13655e-21)
(5.37948 0.0835037 1.18383e-20)
(5.42751 0.112189 -4.29905e-21)
(5.41191 0.100663 -1.63665e-20)
(5.48094 0.129996 -3.124e-21)
(5.45648 0.11565 -2.18824e-22)
(5.55084 0.147532 -2.71007e-22)
(5.51736 0.128049 -1.62838e-21)
(5.62987 0.167522 -5.35792e-21)
(5.5955 0.13847 1.01304e-21)
(5.68304 0.19316 1.16847e-22)
(5.67518 0.151866 -7.41344e-22)
(5.67123 0.20942 0)
(5.69751 0.167424 8.51909e-22)
(5.5102 0.208419 0)
(5.641 0.179164 -6.14226e-22)
(5.05879 0.108648 0)
(5.33204 0.139097 1.76485e-21)
(4.33729 -0.153208 -2.37035e-21)
(4.65287 -0.0392313 0)
(3.63624 -0.540702 1.10143e-20)
(3.80694 -0.393385 -5.38532e-21)
(3.36079 -0.894685 1.55883e-21)
(3.23717 -0.810542 1.20549e-20)
(3.57787 -1.09617 -1.64501e-20)
(3.32415 -1.08837 2.84369e-20)
(3.98174 -1.18363 -2.69587e-20)
(3.75448 -1.22357 -4.07704e-22)
(4.33519 -1.19238 -3.41686e-20)
(4.18899 -1.25907 4.0737e-21)
(4.56608 -1.16847 -1.05721e-20)
(4.49409 -1.25067 -5.99762e-21)
(4.6922 -1.13191 -3.08667e-21)
(4.66627 -1.22244 -1.80586e-21)
(4.76483 -1.08952 0)
(4.7558 -1.1818 0)
(4.82935 -1.04103 -2.29087e-20)
(4.81848 -1.13289 -5.66467e-21)
(4.90821 -0.983623 -2.79848e-20)
(4.89145 -1.0754 6.42009e-21)
(5.00065 -0.91595 1.39548e-20)
(4.98333 -1.00763 2.69201e-20)
(5.09427 -0.839479 -3.00797e-21)
(5.0834 -0.930114 -1.4189e-20)
(5.17694 -0.75724 -1.84106e-20)
(5.17671 -0.845533 4.29011e-20)
(5.24238 -0.672529 2.88742e-20)
(5.25347 -0.757076 1.64483e-22)
(5.28991 -0.588037 -4.68406e-21)
(5.31078 -0.667727 3.283e-20)
(5.32191 -0.505766 2.02514e-20)
(5.35026 -0.579903 -4.28029e-20)
(5.34154 -0.427109 1.15631e-20)
(5.37517 -0.495192 9.57782e-21)
(5.35166 -0.352961 -8.39052e-21)
(5.38875 -0.414551 -6.20686e-20)
(5.35452 -0.284082 5.16917e-20)
(5.39344 -0.338886 1.06624e-19)
(5.35201 -0.221285 5.21989e-20)
(5.39136 -0.269813 4.1004e-20)
(5.34544 -0.165448 -6.97182e-21)
(5.38453 -0.208524 -2.04018e-20)
(5.3357 -0.117236 -3.11717e-19)
(5.37308 -0.1533 1.03578e-19)
(5.32401 -0.0758447 -8.72253e-20)
(5.35646 -0.0996829 -8.64811e-20)
(5.34054 -0.0606916 2.67565e-20)
(5.31503 -0.0396122 -4.03679e-21)
(5.22945 -0.0215638 8.04018e-20)
(5.22651 -0.0245044 5.07894e-22)
(5.20454 -0.0266709 1.27001e-19)
(5.25635 -0.00975954 2.60144e-19)
(5.25429 -0.0161925 1.32938e-19)
(5.28309 0.00403442 -1.387e-19)
(5.28286 0.000729846 -1.38897e-19)
(5.30799 0.0197851 4.62643e-20)
(5.30922 0.0183691 3.78335e-20)
(5.3307 0.0376788 1.53365e-20)
(5.33203 0.0353641 -6.96588e-21)
(5.35245 0.0564098 1.53941e-20)
(5.35253 0.0525885 8.19477e-21)
(5.3756 0.0744379 0)
(5.37299 0.0698477 -2.00925e-20)
(5.40365 0.0905882 -1.41828e-20)
(5.39613 0.0856353 -1.62909e-20)
(5.44125 0.103926 -1.42805e-20)
(5.42621 0.0982481 -1.17951e-21)
(5.49294 0.113434 7.81935e-22)
(5.46816 0.106401 -2.62434e-21)
(5.56187 0.118669 2.24172e-21)
(5.52625 0.108471 -1.03069e-20)
(5.64081 0.121518 1.52642e-22)
(5.60224 0.103415 1.10819e-21)
(5.69026 0.129625 1.30405e-20)
(5.6827 0.0970512 -8.62463e-22)
(5.66752 0.133781 2.4476e-22)
(5.69905 0.0975532 8.56336e-22)
(5.46489 0.114704 1.41037e-20)
(5.62259 0.0945607 -6.17209e-22)
(4.92949 -0.00837121 1.77598e-21)
(5.24213 0.0329524 -3.73753e-21)
(4.12535 -0.285086 -2.99427e-21)
(4.46618 -0.16192 5.01818e-23)
(3.4079 -0.670707 -2.50621e-20)
(3.5585 -0.518053 3.38643e-21)
(3.19774 -1.01262 3.93718e-20)
(3.02382 -0.920957 -1.3584e-20)
(3.49765 -1.21155 4.95037e-20)
(3.20439 -1.19641 1.13279e-20)
(3.95915 -1.29593 3.64071e-20)
(3.70641 -1.32827 0)
(4.34602 -1.31405 4.41025e-20)
(4.1833 -1.37616 3.54853e-20)
(4.5928 -1.30258 2.95019e-21)
(4.50987 -1.3902 7.50032e-21)
(4.72869 -1.271 -4.59857e-21)
(4.69823 -1.37492 8.07707e-21)
(4.80853 -1.22482 -5.63881e-21)
(4.79974 -1.33449 0)
(4.87982 -1.1673 2.1474e-20)
(4.87118 -1.27722 -5.62202e-21)
(4.96591 -1.09931 5.72917e-20)
(4.95165 -1.20808 8.30446e-21)
(5.06554 -1.02164 -1.20688e-21)
(5.05066 -1.12887 3.18637e-20)
(5.16546 -0.936297 2.88305e-20)
(5.15729 -1.04139 4.43809e-21)
(5.25305 -0.846052 5.23041e-20)
(5.25621 -0.948141 6.10841e-21)
(5.32188 -0.753765 -1.00688e-20)
(5.33733 -0.851842 3.74078e-20)
(5.37135 -0.66188 -2.72412e-20)
(5.39764 -0.755192 -1.0375e-19)
(5.40398 -0.572206 -5.46892e-20)
(5.4389 -0.660422 3.89573e-20)
(5.42309 -0.486118 -6.45879e-20)
(5.46445 -0.569037 -2.33695e-20)
(5.43158 -0.404622 1.11856e-19)
(5.47765 -0.481824 -7.91628e-20)
(5.43152 -0.328578 3.80744e-20)
(5.48099 -0.399367 5.55209e-20)
(5.4248 -0.259146 -9.84197e-20)
(5.4761 -0.323608 -6.62815e-20)
(5.41295 -0.197174 5.24625e-20)
(5.46516 -0.255985 1.15668e-19)
(5.39677 -0.143273 -5.79442e-20)
(5.44848 -0.194499 1.93159e-20)
(5.37761 -0.0980033 -2.86009e-19)
(5.4249 -0.134535 3.12305e-20)
(5.40055 -0.0895065 2.90585e-20)
(5.36126 -0.0602274 3.41781e-19)
(5.25458 -0.0109358 5.73611e-20)
(5.25521 -0.0117029 2.03195e-19)
(5.22448 -0.0200297 1.8227e-19)
(5.28346 0.00224144 0)
(5.28453 -0.000708035 -1.49606e-19)
(5.30946 0.0174175 -7.97138e-21)
(5.31176 0.0181703 0)
(5.33269 0.0332529 -2.75904e-20)
(5.33535 0.0361266 4.93649e-20)
(5.35343 0.0497586 -2.57383e-20)
(5.35555 0.0521645 -6.90837e-21)
(5.37284 0.0662456 -2.44512e-20)
(5.37334 0.0673084 -5.46034e-20)
(5.39325 0.0812617 -3.63585e-20)
(5.3907 0.0816121 -1.57282e-20)
(5.41825 0.0932645 -6.08391e-21)
(5.41045 0.09368 1.42849e-21)
(5.45231 0.100566 7.75589e-21)
(5.43674 0.101336 1.03449e-20)
(5.49989 0.101187 -1.06649e-20)
(5.47405 0.102155 1.52279e-20)
(5.56513 0.0930753 -5.33021e-21)
(5.52653 0.0936161 -1.15806e-20)
(5.64284 0.0779948 1.01612e-22)
(5.59773 0.0733126 -4.10345e-21)
(5.69019 0.066433 0)
(5.67773 0.0463684 1.18699e-21)
(5.65378 0.0572421 0)
(5.69105 0.0280607 -5.14498e-21)
(5.40248 0.0182937 -3.75807e-21)
(5.58776 0.00693217 5.94941e-21)
(4.78296 -0.122792 -1.43718e-20)
(5.13333 -0.0731136 -3.78341e-21)
(3.90344 -0.402785 -6.19913e-21)
(4.26866 -0.273719 5.03386e-23)
(3.17652 -0.777329 1.5423e-20)
(3.3105 -0.61842 6.40807e-21)
(3.03013 -1.10853 -3.81682e-20)
(2.81461 -1.00513 -4.17298e-20)
(3.41179 -1.30975 -3.45589e-20)
(3.08257 -1.27995 -1.7905e-21)
(3.92903 -1.40486 -2.37342e-21)
(3.6512 -1.41938 1.03612e-21)
(4.34587 -1.44919 -2.38488e-21)
(4.16153 -1.50066 -2.38982e-21)
(4.61406 -1.46004 7.61031e-21)
(4.51337 -1.5501 -6.41804e-21)
(4.76817 -1.43678 7.63072e-21)
(4.72845 -1.5539 7.59886e-21)
(4.86139 -1.38639 0)
(4.85133 -1.51472 0)
(4.9421 -1.31795 -1.76502e-20)
(4.93649 -1.44694 0)
(5.03558 -1.23743 -1.14588e-20)
(5.02547 -1.36282 -1.75644e-20)
(5.1417 -1.14828 3.63337e-20)
(5.13059 -1.269 2.91636e-20)
(5.24744 -1.05308 -2.08166e-20)
(5.24246 -1.16897 -1.04701e-19)
(5.34 -0.954269 -1.42635e-20)
(5.34618 -1.06518 -2.21171e-21)
(5.41272 -0.85432 -8.22501e-20)
(5.4314 -0.960023 -7.27915e-20)
(5.46493 -0.755369 -2.05207e-20)
(5.49492 -0.855914 -2.04971e-19)
(5.49917 -0.659218 6.72121e-20)
(5.53828 -0.75483 -7.41439e-20)
(5.5189 -0.567012 -3.84434e-20)
(5.56507 -0.658099 1.39191e-19)
(5.52706 -0.479559 -7.5252e-20)
(5.57878 -0.566161 8.55756e-20)
(5.52563 -0.397635 -1.04187e-19)
(5.58179 -0.479043 -1.66803e-19)
(5.51615 -0.321756 1.38614e-19)
(5.57593 -0.398462 5.40123e-20)
(5.50005 -0.25289 8.81825e-20)
(5.56273 -0.325928 8.99448e-20)
(5.47799 -0.191776 -6.31613e-20)
(5.54254 -0.258638 -1.34893e-19)
(5.45122 -0.138738 3.65555e-20)
(5.51401 -0.191374 1.88784e-19)
(5.48387 -0.13771 -1.31033e-19)
(5.42695 -0.0918234 1.92896e-21)
(5.28818 0.00732302 2.89798e-19)
(5.29313 0.0104416 1.43629e-19)
(5.25719 -0.00521673 -1.27821e-19)
(5.31552 0.0222714 -1.48671e-19)
(5.32057 0.023783 -2.30955e-19)
(5.33833 0.0383062 6.12501e-20)
(5.34439 0.0440017 -4.291e-21)
(5.35796 0.0538971 6.17378e-20)
(5.3635 0.0615803 -2.17144e-20)
(5.37526 0.0688001 -4.72381e-20)
(5.3795 0.0760394 9.37402e-21)
(5.39121 0.0826986 -4.48291e-20)
(5.39346 0.0887562 7.30083e-20)
(5.40782 0.0943302 2.05244e-20)
(5.40679 0.0998664 -1.50582e-21)
(5.42844 0.101812 1.65705e-20)
(5.42203 0.10794 -6.65785e-21)
(5.45724 0.102802 8.27383e-21)
(5.44299 0.110395 1.67747e-20)
(5.49872 0.0943437 8.23894e-21)
(5.47361 0.103856 8.35178e-21)
(5.55786 0.0735933 -8.42597e-21)
(5.51814 0.084913 -1.30591e-22)
(5.63269 0.041562 -4.97656e-22)
(5.58209 0.050436 -2.75e-21)
(5.6787 0.00702004 -3.93591e-21)
(5.65759 0.00359464 -3.43834e-21)
(5.62617 -0.019897 2.08049e-20)
(5.66982 -0.0378713 6.28598e-22)
(5.32223 -0.0795083 5.99337e-21)
(5.53418 -0.0812269 -7.38512e-21)
(4.62338 -0.229402 0)
(5.00949 -0.1738 8.43378e-21)
(3.67922 -0.499592 0)
(4.06692 -0.36732 9.41007e-21)
(2.94955 -0.854092 -3.77713e-20)
(3.06753 -0.688385 1.79914e-21)
(2.86499 -1.17698 -5.34465e-21)
(2.60717 -1.05719 4.04364e-20)
(3.31947 -1.38687 3.43898e-20)
(2.95354 -1.33367 3.72924e-20)
(3.88183 -1.51145 -4.63755e-21)
(3.57607 -1.49806 5.05948e-22)
(4.32733 -1.59865 -9.40179e-21)
(4.11217 -1.63175 -6.6859e-21)
(4.6263 -1.64114 -6.41005e-21)
(4.498 -1.72808 2.79367e-20)
(4.81029 -1.62995 0)
(4.75433 -1.75763 -7.92061e-20)
(4.92526 -1.57459 0)
(4.91142 -1.72136 -2.5992e-20)
(5.01884 -1.49164 0)
(5.01744 -1.64007 5.54143e-20)
(5.11963 -1.39407 2.47019e-20)
(5.11656 -1.53549 -2.93844e-20)
(5.2307 -1.28919 -1.14396e-19)
(5.22631 -1.42113 2.45355e-20)
(5.34075 -1.18074 -8.76036e-20)
(5.34111 -1.30334 -8.21749e-20)
(5.43727 -1.07102 -6.88598e-20)
(5.44768 -1.18516 4.93368e-20)
(5.51338 -0.962191 -2.1947e-19)
(5.53559 -1.06879 -1.04593e-20)
(5.56812 -0.856165 -2.40636e-19)
(5.60132 -0.956128 -1.0506e-19)
(5.60405 -0.754503 2.02148e-20)
(5.64612 -0.84877 -7.37627e-20)
(5.62485 -0.658022 2.61622e-19)
(5.67389 -0.747762 3.20704e-19)
(5.63356 -0.567139 -3.51476e-20)
(5.68829 -0.653039 1.84329e-20)
(5.63225 -0.482075 2.99944e-20)
(5.69184 -0.564132 -2.41942e-20)
(5.62221 -0.402832 1.74659e-20)
(5.6866 -0.482037 2.65623e-19)
(5.60453 -0.329835 -1.27887e-19)
(5.67355 -0.407926 -8.97915e-20)
(5.57982 -0.263467 1.17849e-19)
(5.65283 -0.337945 1.50837e-19)
(5.54978 -0.203294 -3.09298e-19)
(5.62326 -0.266328 9.19936e-20)
(5.59277 -0.206395 -3.52222e-19)
(5.52309 -0.146073 -1.14762e-19)
(5.32916 0.0370596 -8.27955e-20)
(5.33931 0.0446524 1.98126e-19)
(5.30196 0.0221164 2.88625e-19)
(5.35192 0.0524846 -2.00752e-19)
(5.36119 0.0585782 -2.83114e-19)
(5.36971 0.0679106 -8.67643e-20)
(5.37941 0.0786475 7.79204e-20)
(5.38443 0.0822428 -7.4035e-20)
(5.39278 0.0948533 -9.18589e-20)
(5.39718 0.095058 1.453e-19)
(5.40345 0.107125 -6.66767e-20)
(5.40867 0.106051 1.14643e-19)
(5.41256 0.117119 1.20974e-19)
(5.42044 0.113982 -2.81608e-20)
(5.42086 0.124872 -6.18639e-20)
(5.43533 0.116764 -6.66977e-21)
(5.43045 0.128794 4.40849e-21)
(5.45709 0.111448 1.69372e-20)
(5.44454 0.125988 -1.6403e-20)
(5.49042 0.0940735 0)
(5.4664 0.112422 7.87125e-21)
(5.54097 0.0614442 4.68749e-22)
(5.5009 0.0836491 -8.66671e-21)
(5.60687 0.013082 -4.14842e-21)
(5.55463 0.0358414 1.29434e-21)
(5.64921 -0.04387 -1.32735e-20)
(5.62181 -0.0296658 -9.62472e-22)
(5.58035 -0.0939678 -6.91878e-21)
(5.6308 -0.096488 -1.17101e-21)
(5.22516 -0.172503 3.20768e-21)
(5.46121 -0.163698 -9.71881e-21)
(4.45693 -0.320404 1.78692e-20)
(4.87591 -0.261649 -7.69914e-22)
(3.45836 -0.568003 4.37052e-20)
(3.86786 -0.435528 2.72544e-20)
(2.72631 -0.894995 8.55499e-20)
(2.83339 -0.722431 1.46849e-20)
(2.69412 -1.21254 7.89188e-20)
(2.39849 -1.0705 2.31579e-20)
(3.20777 -1.44184 -1.39437e-21)
(2.80917 -1.35401 -1.08872e-19)
(3.80443 -1.61509 -7.58587e-21)
(3.46728 -1.56233 -5.25653e-22)
(4.281 -1.7584 1.80986e-20)
(4.02497 -1.76235 8.07855e-21)
(4.62425 -1.84143 -5.29324e-20)
(4.45613 -1.91517 -8.51754e-20)
(4.85377 -1.84691 -1.04845e-19)
(4.7714 -1.97811 3.29102e-20)
(5.00213 -1.786 2.88985e-20)
(4.97967 -1.94827 -1.83294e-19)
(5.11396 -1.68364 2.32721e-20)
(5.11732 -1.8511 -1.65089e-19)
(5.22231 -1.56213 -2.91837e-20)
(5.22991 -1.7198 -1.79334e-19)
(5.33609 -1.43465 5.04552e-20)
(5.34269 -1.57713 0)
(5.44758 -1.30722 5.41187e-20)
(5.45686 -1.43424 2.35688e-19)
(5.54567 -1.18284 1.042e-19)
(5.56232 -1.29622 -7.82679e-20)
(5.6233 -1.06281 8.00638e-20)
(5.65 -1.16502 2.38341e-19)
(5.6791 -0.948801 5.93581e-20)
(5.71544 -1.04168 2.31021e-19)
(5.7157 -0.841878 2.59228e-19)
(5.75972 -0.927133 -6.29905e-20)
(5.73702 -0.742452 7.57611e-20)
(5.78686 -0.821918 2.053e-19)
(5.74639 -0.650386 1.92608e-20)
(5.80089 -0.725425 -1.0296e-19)
(5.74605 -0.565128 2.48887e-19)
(5.80476 -0.636753 1.02948e-19)
(5.73729 -0.486218 1.45631e-19)
(5.80056 -0.556147 1.44056e-19)
(5.72076 -0.413216 1.9098e-19)
(5.7893 -0.483717 1.173e-19)
(5.69713 -0.345969 -2.72805e-20)
(5.77046 -0.414791 -2.66489e-19)
(5.66921 -0.282939 -6.14831e-19)
(5.74372 -0.344139 1.63753e-19)
(5.71828 -0.283274 -1.60216e-19)
(5.64612 -0.219968 -1.94594e-19)
(5.37527 0.0774193 3.50728e-19)
(5.39031 0.0898824 1.97184e-19)
(5.35529 0.0622968 2.47101e-20)
(5.39102 0.09174 -1.20886e-19)
(5.40411 0.102905 -1.99937e-19)
(5.40234 0.105483 6.49162e-20)
(5.41536 0.121279 1.82592e-19)
(5.41112 0.117941 -8.29994e-20)
(5.4223 0.13514 -8.96526e-21)
(5.41831 0.128402 -7.49958e-20)
(5.42685 0.144817 -1.68233e-19)
(5.42426 0.136251 -5.28232e-20)
(5.4301 0.152028 7.13465e-20)
(5.43003 0.140336 -3.28086e-20)
(5.43243 0.156479 -1.25138e-19)
(5.43785 0.138456 1.12752e-20)
(5.4353 0.156366 1.22163e-19)
(5.45097 0.126955 -9.15584e-21)
(5.44094 0.14863 4.37896e-21)
(5.47407 0.101542 -9.54786e-21)
(5.45237 0.128695 1.64289e-20)
(5.51316 0.057928 -4.49508e-21)
(5.47461 0.0912784 -1.28086e-20)
(5.56887 -0.00646155 4.52498e-21)
(5.51475 0.0313983 8.27768e-22)
(5.60312 -0.0842541 4.40867e-21)
(5.57019 -0.0514679 6.9165e-21)
(5.51366 -0.160039 -4.23062e-21)
(5.57068 -0.143166 -9.62485e-21)
(5.1148 -0.252345 -6.90948e-21)
(5.37087 -0.232396 1.99807e-20)
(4.29019 -0.388425 -5.61767e-20)
(4.73796 -0.329484 -3.52017e-20)
(3.24621 -0.602179 3.07501e-20)
(3.67801 -0.473156 3.25811e-20)
(2.50734 -0.895435 -5.24251e-20)
(2.61128 -0.715776 -1.63221e-20)
(2.51202 -1.20966 -1.71245e-19)
(2.18584 -1.0384 -4.61343e-20)
(3.0662 -1.47113 -1.14367e-19)
(2.63945 -1.33625 -4.23409e-20)
(3.68568 -1.70726 6.71568e-21)
(3.31324 -1.6037 -2.57737e-22)
(4.19803 -1.91628 -9.30126e-20)
(3.89049 -1.87752 -4.03555e-20)
(4.6012 -2.0483 -1.81651e-20)
(4.37856 -2.09392 1.11438e-20)
(4.89527 -2.07719 -6.77697e-20)
(4.77166 -2.19919 7.39064e-20)
(5.09294 -2.01248 -3.75892e-19)
(5.05237 -2.18302 7.57335e-20)
(5.2316 -1.88693 -3.6555e-19)
(5.23752 -2.07132 -8.17643e-21)
(5.34911 -1.73427 -1.49124e-19)
(5.37044 -1.9096 7.64935e-21)
(5.46264 -1.57573 1.85244e-19)
(5.48599 -1.73099 -2.44033e-19)
(5.57103 -1.4225 1.04934e-19)
(5.59456 -1.55472 -1.18913e-19)
(5.66634 -1.27813 7.03152e-20)
(5.69341 -1.3903 -7.45847e-20)
(5.7419 -1.14362 3.84122e-19)
(5.77578 -1.23968 4.47845e-19)
(5.79582 -1.01963 1.05641e-19)
(5.83693 -1.10261 -1.07181e-19)
(5.83059 -0.906494 -1.03384e-19)
(5.87739 -0.978961 4.77565e-20)
(5.85037 -0.804092 2.27387e-20)
(5.90097 -0.868381 3.1772e-20)
(5.85897 -0.711665 0)
(5.9121 -0.769722 -7.94544e-21)
(5.85901 -0.627977 0)
(5.91438 -0.681701 -6.53722e-21)
(5.85183 -0.551767 1.1541e-19)
(5.91017 -0.603702 -1.42174e-19)
(5.83775 -0.482017 -2.9299e-19)
(5.90037 -0.534335 4.43695e-19)
(5.81792 -0.417885 -8.03683e-20)
(5.8839 -0.469052 -7.16859e-19)
(5.79592 -0.356669 2.71677e-19)
(5.86233 -0.403946 -1.4676e-19)
(5.84429 -0.347182 2.34229e-19)
(5.78017 -0.294543 4.89783e-20)
(5.42324 0.126645 0)
(5.44199 0.143434 1.33662e-19)
(5.41245 0.113376 -1.8647e-19)
(5.43076 0.138798 1.00726e-19)
(5.44701 0.154593 0)
(5.43499 0.150223 1.02098e-19)
(5.4508 0.170143 2.2649e-19)
(5.43723 0.160279 -9.31518e-20)
(5.45094 0.18114 1.15454e-19)
(5.43808 0.168064 -2.33331e-20)
(5.44885 0.188184 9.51195e-20)
(5.4377 0.172777 4.71277e-21)
(5.44558 0.192814 -1.90457e-19)
(5.43662 0.173245 9.7715e-21)
(5.44123 0.194355 -5.93604e-20)
(5.43631 0.167074 1.04845e-19)
(5.43639 0.190766 1.40462e-19)
(5.4393 0.150334 3.00929e-20)
(5.43231 0.178884 -2.63365e-20)
(5.4499 0.118091 -3.50363e-21)
(5.43163 0.153839 3.02948e-20)
(5.47463 0.0648056 -4.10725e-21)
(5.43925 0.109712 -2.90735e-20)
(5.51559 -0.0135116 2.79907e-21)
(5.4627 0.0403108 1.13802e-20)
(5.53732 -0.111328 -2.91883e-22)
(5.50199 -0.0573644 -8.50807e-21)
(5.42895 -0.210293 1.44832e-20)
(5.48996 -0.171024 -2.68862e-20)
(4.99618 -0.311468 7.76131e-21)
(5.26553 -0.279181 5.19173e-20)
(4.12891 -0.428258 -1.178e-20)
(4.60019 -0.37144 -1.13787e-20)
(3.04725 -0.598111 1.30534e-20)
(3.50379 -0.476671 -2.29251e-20)
(2.29322 -0.84947 7.21184e-21)
(2.4059 -0.664608 -2.92127e-20)
(2.31276 -1.16174 8.8631e-20)
(1.96662 -0.954956 6.46147e-20)
(2.88451 -1.46631 7.63602e-20)
(2.43466 -1.27248 5.49492e-20)
(3.51612 -1.7724 -3.79351e-20)
(3.10571 -1.60714 1.13195e-21)
(4.06905 -2.05201 5.01725e-20)
(3.70075 -1.95533 -1.05167e-20)
(4.54692 -2.24074 8.16154e-20)
(4.25437 -2.23921 -9.27912e-20)
(4.92668 -2.30272 1.93766e-19)
(4.74242 -2.39643 -1.47062e-20)
(5.19487 -2.24101 3.94539e-19)
(5.11961 -2.40556 -9.53124e-20)
(5.3744 -2.09362 3.22106e-19)
(5.37403 -2.28888 1.85387e-19)
(5.50568 -1.90529 -1.04826e-19)
(5.54052 -2.09901 -3.27896e-21)
(5.61652 -1.70852 -5.32761e-19)
(5.66198 -1.88007 2.85681e-20)
(5.71603 -1.52188 -2.79434e-19)
(5.76086 -1.66317 -2.82985e-19)
(5.80233 -1.35143 3.16709e-19)
(5.8462 -1.46546 -1.44725e-19)
(5.87043 -1.1982 -3.7531e-20)
(5.91616 -1.28999 8.63321e-20)
(5.91815 -1.06134 -1.53476e-19)
(5.96736 -1.13547 -1.25374e-19)
(5.94737 -0.939996 1.79863e-19)
(5.99948 -1.00016 1.59637e-19)
(5.96226 -0.83322 -5.71571e-21)
(6.01557 -0.882293 -4.095e-21)
(5.96716 -0.739557 -2.59971e-20)
(6.02024 -0.780017 -1.91839e-19)
(5.96517 -0.657086 -1.55043e-19)
(6.0177 -0.691494 -1.70967e-19)
(5.95773 -0.583952 1.9332e-19)
(6.01063 -0.615093 2.4347e-20)
(5.94524 -0.518718 7.99358e-20)
(5.99962 -0.548172 3.26617e-19)
(5.929 -0.459391 -6.31646e-19)
(5.98427 -0.486738 -4.18929e-19)
(5.91275 -0.403378 9.18924e-21)
(5.96673 -0.428742 -2.28098e-19)
(5.95394 -0.378591 3.59074e-20)
(5.90374 -0.347703 3.43942e-19)
(5.46977 0.181601 1.35054e-19)
(5.49096 0.200976 -3.19102e-20)
(5.46843 0.170895 3.07572e-19)
(5.4691 0.19122 1.24335e-19)
(5.48768 0.210083 -5.35088e-19)
(5.46627 0.200079 2.41425e-19)
(5.48418 0.222589 1.25261e-19)
(5.46182 0.207641 3.00847e-19)
(5.47763 0.23098 2.3823e-19)
(5.45601 0.212959 -7.91057e-20)
(5.4689 0.235911 7.23966e-20)
(5.44881 0.21503 -2.57554e-19)
(5.45885 0.238564 -1.71639e-19)
(5.44026 0.212529 8.58931e-20)
(5.44726 0.23795 1.75973e-19)
(5.43081 0.202988 4.19279e-20)
(5.43386 0.231878 -1.44255e-19)
(5.42199 0.18247 -3.00999e-21)
(5.41906 0.217174 -6.67679e-20)
(5.41766 0.145377 1.75902e-20)
(5.40479 0.188923 7.77057e-20)
(5.42524 0.0852721 6.91176e-21)
(5.39595 0.14079 -2.53373e-20)
(5.44826 -0.00349346 6.44756e-21)
(5.39991 0.0657846 2.56273e-20)
(5.45376 -0.117742 -3.45968e-20)
(5.41845 -0.0417976 -2.553e-20)
(5.32717 -0.236382 2.95346e-20)
(5.38986 -0.172474 2.27069e-20)
(4.87114 -0.343309 4.93351e-20)
(5.14693 -0.296342 -8.5185e-21)
(3.97729 -0.435927 -2.24597e-20)
(4.46634 -0.381689 2.05746e-20)
(2.86593 -0.554348 -3.78293e-20)
(3.35079 -0.443308 -4.82052e-20)
(2.08544 -0.756324 5.5412e-20)
(2.22191 -0.567159 -4.34217e-20)
(2.09143 -1.0599 3.4454e-20)
(1.74341 -0.815191 -1.3296e-19)
(2.65494 -1.41375 -1.99909e-20)
(2.18726 -1.15163 2.4265e-20)
(3.28916 -1.78881 2.1466e-20)
(2.84055 -1.55244 4.49889e-21)
(3.88459 -2.13881 -1.63838e-19)
(3.44965 -1.96918 -1.53756e-19)
(4.44761 -2.39016 -1.79503e-19)
(4.07192 -2.32118 2.18864e-20)
(4.93289 -2.49736 -3.01548e-19)
(4.66645 -2.53801 0)
(5.29691 -2.45242 -3.01067e-19)
(5.16263 -2.58572 5.01691e-20)
(5.53866 -2.29348 -1.40933e-19)
(5.51356 -2.48683 1.88068e-19)
(5.69488 -2.07182 1.01567e-19)
(5.7355 -2.27863 -5.07272e-19)
(5.80445 -1.83336 2.56732e-19)
(5.87319 -2.02197 4.28349e-19)
(5.88977 -1.6062 -1.36617e-19)
(5.96303 -1.76136 1.65718e-19)
(5.95918 -1.40347 -3.60168e-19)
(6.02777 -1.52446 1.98736e-20)
(6.01254 -1.22668 3.73779e-22)
(6.07677 -1.31848 3.55532e-19)
(6.04825 -1.07358 1.8887e-19)
(6.1105 -1.14226 -6.21791e-20)
(6.06723 -0.941629 -2.90733e-20)
(6.12843 -0.992581 -2.70024e-19)
(6.07312 -0.828467 -2.03122e-19)
(6.13249 -0.86558 2.02504e-19)
(6.07043 -0.731693 -3.46129e-19)
(6.12672 -0.758079 -1.76815e-19)
(6.06267 -0.648744 3.602e-21)
(6.11552 -0.667258 -1.62504e-19)
(6.05155 -0.577252 1.61652e-19)
(6.10176 -0.590478 3.26572e-19)
(6.03769 -0.515034 -1.55349e-19)
(6.08615 -0.52428 -5.3948e-19)
(6.02239 -0.459639 -1.90916e-20)
(6.06891 -0.465293 -3.17025e-19)
(6.00906 -0.408346 -2.00266e-20)
(6.05243 -0.412741 7.65383e-19)
(6.04165 -0.367954 -3.2523e-19)
(6.00354 -0.358515 -6.71464e-19)
(5.51249 0.23819 -4.83508e-19)
(5.53513 0.257423 -4.62212e-19)
(5.5195 0.22937 -4.6132e-19)
(5.50443 0.245852 -6.4242e-19)
(5.52465 0.265453 -8.91086e-20)
(5.49503 0.252648 1.30651e-19)
(5.51453 0.275768 2.9091e-19)
(5.48413 0.258262 -6.74209e-21)
(5.50185 0.282528 -3.88296e-19)
(5.47162 0.261831 -2.59983e-20)
(5.48685 0.286343 3.74844e-19)
(5.45724 0.262191 2.54071e-19)
(5.47002 0.288032 -2.18019e-20)
(5.44056 0.257848 -4.58549e-20)
(5.45082 0.286409 7.69563e-20)
(5.42124 0.246382 -2.38345e-19)
(5.4283 0.279245 -5.90866e-20)
(5.39977 0.223882 1.14363e-20)
(5.40202 0.263546 8.6816e-20)
(5.37913 0.184519 1.8785e-21)
(5.37313 0.23469 -3.68232e-20)
(5.36695 0.121315 -6.99759e-21)
(5.3466 0.185997 3.94671e-21)
(5.36835 0.0275847 6.74724e-21)
(5.32932 0.109958 1.42702e-20)