/*--------------------------------*- C++ -*----------------------------------*\
  =========                 |
  \\      /  F ield         | OpenFOAM: The Open Source CFD Toolbox
   \\    /   O peration     | Website:  https://openfoam.org
    \\  /    A nd           | Version:  6
     \\/     M anipulation  |
\*---------------------------------------------------------------------------*/
FoamFile
{
    version     2.0;
    format      ascii;
    class       surfaceVectorField;
    location    "2.65";
    object      Uf;
}
// * * * * * * * * * * * * * * * * * * * * * * * * * * * * * * * * * * * * * //

dimensions      [0 1 -1 0 0 0 0];

internalField   nonuniform List<vector> 
8193
(
(5.03176 -0.0561249 5.97877e-20)
(5.10987 -0.076597 0)
(4.84467 -0.108951 1.79459e-19)
(5.11126 -0.00766986 9.14066e-19)
(5.17789 -0.018123 6.19787e-20)
(5.14069 0.048665 6.52777e-19)
(5.20229 0.0434819 -5.36127e-20)
(5.15909 0.101729 6.6586e-19)
(5.21445 0.0916373 -6.89633e-20)
(5.1765 0.15159 -3.91629e-20)
(5.22894 0.139365 -4.71992e-21)
(5.19495 0.198711 0)
(5.24657 0.187692 0)
(5.21239 0.242886 -1.10439e-22)
(5.26296 0.23365 0)
(5.22505 0.284538 -1.10234e-22)
(5.2743 0.277219 3.47678e-21)
(5.22976 0.324786 0)
(5.27812 0.31947 0)
(5.22608 0.364408 -1.05861e-20)
(5.27328 0.361509 -1.73585e-21)
(5.21424 0.403898 -3.98342e-20)
(5.26156 0.404339 -2.07311e-20)
(5.19673 0.444942 1.07741e-20)
(5.24451 0.449381 2.12995e-20)
(5.18084 0.48922 0)
(5.22951 0.498318 0)
(5.17934 0.538578 0)
(5.22697 0.552085 0)
(5.20059 0.591922 -3.69978e-22)
(5.24617 0.609004 3.06287e-21)
(5.23803 0.644907 -1.20258e-21)
(5.2803 0.665425 -7.39889e-20)
(5.25996 0.673279 -8.21819e-22)
(5.29212 0.701651 -5.59885e-20)
(5.20899 0.653765 2.40681e-21)
(5.23919 0.694659 3.27308e-21)
(4.98821 0.551146 6.02585e-21)
(5.05294 0.609593 -4.17732e-20)
(4.59227 0.365792 3.58086e-21)
(4.66278 0.419508 -1.10872e-19)
(4.34158 0.176888 -4.41829e-21)
(4.22881 0.190629 6.98062e-22)
(4.45913 0.0732151 5.48661e-20)
(4.2368 0.0598619 -7.79675e-21)
(4.66796 -0.0135475 1.04138e-19)
(4.52574 0.00311421 8.72585e-21)
(4.73761 -0.115876 1.12696e-20)
(4.67266 -0.0884285 -4.33035e-21)
(4.74289 -0.214752 3.399e-21)
(4.69552 -0.192391 -4.17652e-20)
(4.76273 -0.286657 -5.83243e-21)
(4.71016 -0.2733 7.30015e-21)
(4.80693 -0.332134 1.15408e-19)
(4.74934 -0.326951 -6.89063e-21)
(4.85974 -0.357092 6.07505e-21)
(4.80424 -0.358859 9.90836e-21)
(4.90965 -0.366197 -2.60098e-22)
(4.86145 -0.375237 -3.75799e-21)
(4.95222 -0.362699 5.78953e-20)
(4.91334 -0.37896 1.04079e-20)
(4.98614 -0.349052 9.85815e-20)
(4.95708 -0.371797 -8.07808e-21)
(5.01148 -0.327216 1.38033e-19)
(4.99204 -0.355607 -1.88105e-21)
(5.0294 -0.298689 3.85849e-21)
(5.01878 -0.332026 3.77126e-21)
(5.04123 -0.264367 0)
(5.03869 -0.302017 -3.62694e-21)
(5.04839 -0.22508 0)
(5.0532 -0.266227 0)
(5.05233 -0.181744 -5.12832e-21)
(5.06338 -0.225311 0)
(5.05372 -0.134823 -5.38034e-21)
(5.07147 -0.180473 5.97604e-20)
(5.0503 -0.0831935 0)
(5.0803 -0.133342 0)
(5.03387 -0.027712 -4.36125e-20)
(5.08871 -0.0836414 2.2792e-20)
(4.9671 0.0239084 1.19592e-18)
(5.08774 -0.0253442 -6.40768e-20)
(5.0411 0.038803 2.32281e-19)
(4.78789 0.0841994 -1.96571e-19)
(5.22718 -0.00189931 0)
(5.21282 -0.0374706 9.93026e-21)
(5.17836 -0.0738351 -3.66826e-21)
(5.2416 0.0468258 4.80588e-20)
(5.23795 0.0224754 4.23249e-21)
(5.25435 0.0950339 5.9727e-20)
(5.26246 0.0817162 1.12784e-19)
(5.26871 0.141792 -6.07253e-20)
(5.27596 0.123722 -6.28255e-20)
(5.28439 0.187311 1.30506e-21)
(5.29123 0.167332 1.31769e-21)
(5.29905 0.231528 0)
(5.3076 0.21245 0)
(5.30906 0.274422 1.11767e-22)
(5.32007 0.255962 0)
(5.31208 0.316462 1.11161e-22)
(5.32638 0.298443 5.04622e-20)
(5.30747 0.358693 -1.73706e-21)
(5.32601 0.341442 -9.59622e-20)
(5.29605 0.402892 -1.19633e-20)
(5.31972 0.386796 5.63677e-20)
(5.28054 0.450252 2.5567e-20)
(5.30967 0.4365 -7.48484e-20)
(5.26715 0.502686 1.03837e-20)
(5.29963 0.492103 4.80425e-20)
(5.26454 0.560937 0)
(5.29574 0.553393 3.55453e-21)
(5.2791 0.623243 3.05654e-21)
(5.30318 0.617704 0)
(5.30454 0.682136 3.38565e-21)
(5.31984 0.679111 -2.71102e-20)
(5.3113 0.722366 1.0108e-20)
(5.32582 0.725066 3.8049e-22)
(5.2582 0.721036 3.55513e-20)
(5.28086 0.735455 9.48579e-21)
(5.08764 0.648064 1.34006e-20)
(5.14457 0.683019 -3.41402e-20)
(4.75034 0.474651 5.58744e-23)
(4.86617 0.535641 5.71174e-20)
(4.33577 0.240447 -2.28064e-21)
(4.44897 0.298023 -1.82103e-20)
(4.16729 0.0644028 1.68403e-20)
(4.08765 0.0735818 6.83745e-22)
(4.33894 -0.000484964 7.91366e-21)
(4.17421 -0.0157275 -5.00256e-20)
(4.55506 -0.0676122 -4.9205e-20)
(4.45747 -0.0563469 3.24492e-20)
(4.64537 -0.157453 -1.03041e-20)
(4.60615 -0.134212 1.04065e-20)
(4.67173 -0.245346 7.55307e-20)
(4.64322 -0.228238 3.05657e-20)
(4.70404 -0.3101 6.10039e-21)
(4.66931 -0.299322 3.23199e-21)
(4.75399 -0.352116 2.5827e-20)
(4.71322 -0.347124 4.08475e-20)
(4.81273 -0.3769 4.92512e-24)
(4.77065 -0.37633 3.80993e-21)
(4.87094 -0.388964 4.93069e-20)
(4.83094 -0.3927 -1.21907e-21)
(4.92322 -0.389981 -6.8246e-20)
(4.88753 -0.398652 9.4027e-21)
(4.96749 -0.381222 -6.25433e-21)
(4.93709 -0.395008 -1.37556e-20)
(5.00324 -0.364096 0)
(4.97853 -0.382708 0)
(5.03121 -0.339859 -3.50083e-21)
(5.01189 -0.363022 4.45584e-21)
(5.05267 -0.309256 -3.69281e-21)
(5.03845 -0.336746 -8.94185e-21)
(5.06934 -0.273014 0)
(5.05927 -0.304359 0)
(5.08238 -0.232022 5.08351e-21)
(5.0756 -0.266228 0)
(5.09289 -0.187806 5.38951e-21)
(5.08929 -0.223592 5.15117e-21)
(5.10297 -0.141878 2.15854e-20)
(5.1025 -0.179059 0)
(5.11521 -0.094186 3.14504e-21)
(5.11454 -0.133475 5.10106e-20)
(5.12707 -0.0440125 5.89301e-20)
(5.11998 -0.0821523 -2.54276e-20)
(5.12281 -0.0259466 -1.32286e-19)
(5.09867 0.0320617 2.41348e-18)
(5.26684 0.0295998 -1.82428e-18)
(5.27465 -0.00721198 5.69143e-20)
(5.26056 -0.0245862 1.16723e-18)
(5.28049 0.0729905 -6.81757e-19)
(5.29455 0.0469213 -3.86341e-20)
(5.29741 0.115363 1.28334e-19)
(5.32171 0.101125 9.14044e-20)
(5.31358 0.15872 0)
(5.33736 0.140558 -8.65178e-21)
(5.32839 0.201354 0)
(5.352 0.181125 0)
(5.34003 0.242504 0)
(5.36531 0.222661 0)
(5.34666 0.283039 5.05025e-20)
(5.37427 0.263635 0)
(5.34781 0.324554 -8.23502e-21)
(5.37858 0.30549 1.28319e-19)
(5.34431 0.369447 -1.44175e-20)
(5.3797 0.350917 -1.20212e-19)
(5.33802 0.42001 9.40016e-21)
(5.379 0.402849 1.59382e-20)
(5.33197 0.477695 -1.09619e-20)
(5.37812 0.463112 -1.70064e-20)
(5.33022 0.542093 2.82627e-20)
(5.37853 0.53096 -1.93255e-20)
(5.33607 0.609752 3.48037e-21)
(5.38148 0.601963 3.46931e-21)
(5.34643 0.672701 -3.22194e-21)
(5.3836 0.668666 0)
(5.34576 0.719801 -3.15054e-21)
(5.3751 0.717391 8.38952e-21)
(5.30174 0.736726 0)
(5.33205 0.738538 -2.09075e-20)
(5.16983 0.695638 -3.59064e-20)
(5.20583 0.71301 -7.69368e-21)
(4.91759 0.568742 -3.01811e-20)
(4.97005 0.604006 -3.38189e-20)
(4.55041 0.361161 -3.35279e-20)
(4.62295 0.413583 1.67025e-20)
(4.18245 0.132281 -1.62052e-20)
(4.21719 0.163493 -2.93419e-20)
(4.08574 -0.00873787 -4.68741e-20)
(3.95656 -0.0315061 0)
(4.28704 -0.0591602 -8.35178e-20)
(4.11253 -0.0858004 3.57552e-20)
(4.50095 -0.116564 1.37874e-19)
(4.38623 -0.122078 -5.77241e-20)
(4.59523 -0.198392 9.21422e-21)
(4.53426 -0.189778 -1.03133e-20)
(4.63173 -0.276197 -1.67664e-20)
(4.58656 -0.272227 -8.95145e-20)
(4.67085 -0.332689 1.6861e-19)
(4.62528 -0.33277 2.47606e-21)
(4.72331 -0.369219 2.59267e-20)
(4.67508 -0.372425 3.15182e-20)
(4.78357 -0.39143 2.59329e-21)
(4.73502 -0.39653 0)
(4.84386 -0.402976 4.93221e-21)
(4.79801 -0.410317 2.6342e-21)
(4.89956 -0.40534 -4.1371e-20)
(4.8585 -0.416101 4.54081e-21)
(4.94838 -0.399042 -7.79285e-21)
(4.91327 -0.41413 -7.69622e-21)
(4.98936 -0.384828 4.32943e-21)
(4.96088 -0.404404 0)
(5.0228 -0.363644 -1.63478e-21)
(5.00079 -0.387612 -3.13349e-20)
(5.04985 -0.336083 -6.66154e-21)
(5.03393 -0.364359 5.69678e-20)
(5.07197 -0.302557 0)
(5.06118 -0.33497 5.30911e-20)
(5.09028 -0.263486 0)
(5.08393 -0.29953 -4.77943e-20)
(5.10521 -0.219709 0)
(5.10418 -0.25875 0)
(5.11764 -0.173289 6.20112e-21)
(5.12309 -0.214721 0)
(5.13034 -0.12813 7.34892e-20)
(5.13726 -0.168639 -5.92533e-20)
(5.1448 -0.0822752 -5.87549e-19)
(5.14526 -0.11878 1.35284e-19)
(5.16038 -0.0699238 -9.26944e-20)
(5.16055 -0.0246791 8.81348e-20)
(5.3291 0.0552813 1.9407e-20)
(5.33206 0.0152416 4.45297e-19)
(5.31582 0.0120928 3.34032e-19)
(5.34575 0.0960178 -4.83283e-20)
(5.35257 0.069214 -3.86366e-21)
(5.36204 0.133101 -2.36693e-20)
(5.37697 0.114743 -1.73248e-19)
(5.37652 0.171029 -8.72215e-21)
(5.3935 0.151075 1.48978e-19)
(5.38889 0.209288 0)
(5.40793 0.188671 1.33027e-19)
(5.39788 0.247729 0)
(5.41974 0.227383 -2.61324e-19)
(5.40351 0.287833 7.34799e-20)
(5.42887 0.267116 1.34158e-19)
(5.40733 0.332476 3.23124e-20)
(5.43794 0.310501 7.2618e-20)
(5.41095 0.384477 -1.02096e-19)
(5.44852 0.361321 -1.1954e-20)
(5.41548 0.445959 -2.6064e-20)
(5.46077 0.42241 -6.30601e-22)
(5.42076 0.516384 -1.90611e-20)
(5.47198 0.493778 -5.10325e-20)
(5.425 0.591122 -3.37161e-20)
(5.47721 0.571083 -1.07737e-20)
(5.42382 0.660828 0)
(5.47058 0.645725 0)
(5.40884 0.71311 1.15007e-20)
(5.44351 0.70351 -1.29061e-20)
(5.36018 0.736303 -9.64197e-21)
(5.38526 0.730717 -5.32871e-21)
(5.23526 0.71484 -3.70713e-20)
(5.26553 0.715614 -2.02693e-20)
(5.00407 0.620026 -1.28572e-20)
(5.0337 0.633185 -5.15361e-20)
(4.67357 0.447116 3.08747e-20)
(4.71035 0.472019 1.16667e-19)
(4.28933 0.217198 -1.85272e-20)
(4.32691 0.252425 1.17294e-20)
(3.99237 0.00245334 -1.27499e-20)
(3.9743 0.005741 8.5774e-20)
(3.98765 -0.102916 7.89952e-20)
(3.83789 -0.150282 -2.19315e-20)
(4.21573 -0.137353 -2.846e-20)
(4.05171 -0.173544 3.20529e-19)
(4.42157 -0.187655 -1.7218e-19)
(4.30908 -0.209317 7.23249e-20)
(4.52462 -0.257771 -1.09697e-19)
(4.45701 -0.264583 1.12498e-20)
(4.5768 -0.322232 1.66079e-20)
(4.52532 -0.331094 -4.30515e-20)
(4.62613 -0.367919 1.16562e-20)
(4.57794 -0.378514 7.02424e-21)
(4.68332 -0.396704 4.68647e-21)
(4.63499 -0.407803 -4.37156e-20)
(4.74609 -0.414064 0)
(4.6978 -0.424774 1.4185e-20)
(4.80946 -0.423452 0)
(4.76275 -0.434122 1.43259e-20)
(4.8695 -0.42599 0)
(4.82609 -0.438034 0)
(4.92393 -0.421579 0)
(4.88508 -0.436508 -1.5624e-20)
(4.97159 -0.41018 -2.5777e-20)
(4.93818 -0.428725 1.59281e-20)
(5.01203 -0.39207 1.00827e-19)
(4.98454 -0.414569 -5.30543e-20)
(5.04598 -0.367593 9.52361e-20)
(5.02445 -0.394292 2.94809e-20)
(5.07476 -0.336962 -1.8248e-19)
(5.05844 -0.368023 5.29975e-20)
(5.09969 -0.300483 -4.92852e-20)
(5.08777 -0.335652 -4.73134e-20)
(5.12159 -0.258978 0)
(5.11452 -0.29757 0)
(5.14075 -0.214001 -2.76095e-20)
(5.1397 -0.255562 -7.72812e-20)
(5.15727 -0.167597 3.47333e-20)
(5.15947 -0.210588 4.11351e-20)
(5.17119 -0.121286 5.07543e-21)
(5.17223 -0.161037 1.96843e-21)
(5.19044 -0.112988 1.54554e-19)
(5.18466 -0.0761316 6.67828e-20)
(5.38129 0.0706973 4.43657e-19)
(5.38474 0.0314182 -1.35202e-19)
(5.37256 0.0314223 9.40292e-19)
(5.39703 0.107441 -1.17808e-19)
(5.40829 0.0846977 1.73229e-20)
(5.41387 0.140386 -3.00665e-19)
(5.43033 0.121069 2.95795e-20)
(5.42852 0.174801 2.92989e-19)
(5.44777 0.155996 -2.64039e-20)
(5.44056 0.210513 -3.3692e-20)
(5.4625 0.192019 1.3687e-19)
(5.45099 0.247993 -1.30959e-19)
(5.47578 0.229173 -4.23478e-19)
(5.46273 0.28986 1.32746e-19)
(5.49159 0.268664 1.4122e-19)
(5.47802 0.339256 9.63094e-21)
(5.51279 0.314288 1.40958e-19)
(5.4969 0.399177 6.70605e-20)
(5.53926 0.369437 9.44865e-21)
(5.51554 0.47013 -4.56541e-20)
(5.56529 0.435384 -4.50866e-20)
(5.52652 0.548685 -6.28957e-20)
(5.58114 0.511064 2.60267e-20)
(5.52043 0.625943 1.4831e-20)
(5.57433 0.589776 5.62434e-21)
(5.48855 0.688066 -1.28631e-20)
(5.53392 0.658051 0)
(5.42031 0.721417 1.13836e-20)
(5.4526 0.699528 1.87847e-20)
(5.29065 0.709929 6.52103e-21)
(5.31358 0.695674 -3.95609e-20)
(5.0625 0.633124 -4.40027e-20)
(5.08368 0.631121 0)
(4.7389 0.484085 4.64073e-20)
(4.74918 0.491049 1.83709e-20)
(4.36248 0.276714 9.05967e-20)
(4.37095 0.290941 9.04825e-20)
(4.00972 0.0449115 9.87594e-20)
(3.99725 0.0604242 0)
(3.81845 -0.136714 4.31419e-20)
(3.74093 -0.161297 2.26996e-20)
(3.90334 -0.207353 2.60185e-19)
(3.73424 -0.273933 -3.57238e-20)
(4.14544 -0.233235 2.97371e-19)
(3.98443 -0.279337 8.9052e-20)
(4.34265 -0.277228 5.94896e-20)
(4.22279 -0.316244 -1.74064e-21)
(4.4547 -0.332617 1.0327e-19)
(4.37466 -0.356834 6.49653e-21)
(4.52166 -0.380986 5.93239e-20)
(4.46042 -0.404019 1.04036e-20)
(4.58165 -0.413671 -6.34706e-20)
(4.5277 -0.436103 -5.83797e-20)
(4.64401 -0.432632 4.75094e-20)
(4.59334 -0.453442 -3.09454e-21)
(4.70889 -0.443098 8.99889e-20)
(4.65975 -0.461502 -2.67549e-20)
(4.77401 -0.448307 1.48452e-20)
(4.72635 -0.464531 4.54929e-20)
(4.8368 -0.449242 -1.54e-20)
(4.79155 -0.464634 -7.60901e-21)
(4.89537 -0.445394 2.99454e-20)
(4.85362 -0.461831 -8.12613e-22)
(4.94847 -0.435926 -8.54537e-21)
(4.91125 -0.454797 2.00326e-20)
(4.99527 -0.420427 5.3573e-20)
(4.96347 -0.442564 -4.80205e-20)
(5.03591 -0.398874 1.2186e-20)
(5.00997 -0.424819 1.17901e-20)
(5.07144 -0.371324 0)
(5.05065 -0.401442 3.52409e-20)
(5.103 -0.337737 0)
(5.08672 -0.372114 3.80964e-20)
(5.13154 -0.298734 -7.33993e-20)
(5.12003 -0.33689 8.29445e-20)
(5.15718 -0.255739 6.10495e-20)
(5.1517 -0.297257 -1.50536e-19)
(5.17928 -0.209913 6.64389e-21)
(5.17839 -0.254321 1.5945e-19)
(5.19817 -0.163064 -5.26342e-21)
(5.1971 -0.20631 -1.53596e-19)
(5.21905 -0.157869 5.65583e-20)
(5.21443 -0.118095 6.08746e-20)
(5.43071 0.0799241 -5.32122e-19)
(5.43502 0.0432489 -5.13902e-19)
(5.42135 0.0452332 -3.37449e-19)
(5.44972 0.112678 1.68542e-19)
(5.46441 0.0967352 -3.97451e-20)
(5.46781 0.144321 2.69006e-19)
(5.48514 0.128522 1.91496e-19)
(5.4829 0.177752 -1.87091e-19)
(5.5031 0.164 -1.82467e-19)
(5.49714 0.212552 -1.61285e-19)
(5.51941 0.198841 -1.18116e-20)
(5.51478 0.250104 -1.40406e-19)
(5.53892 0.234004 -3.34288e-19)
(5.53964 0.293044 1.74376e-19)
(5.56667 0.271461 2.05401e-19)
(5.57171 0.344432 1.3841e-19)
(5.60318 0.315049 1.37955e-19)
(5.60508 0.405831 -1.01105e-19)
(5.64205 0.366331 -3.668e-20)
(5.62834 0.476541 2.72549e-20)
(5.67117 0.425905 -9.1935e-20)
(5.62712 0.553164 8.33421e-20)
(5.67711 0.495239 1.04722e-19)
(5.58689 0.622966 -9.15241e-21)
(5.63671 0.566224 -4.73746e-20)
(5.49688 0.67042 1.84444e-20)
(5.53866 0.619455 0)
(5.34437 0.674988 -1.94883e-20)
(5.37164 0.637618 -1.05078e-20)
(5.10541 0.616916 -4.46064e-20)
(5.11844 0.596512 1.09361e-19)
(4.76949 0.487629 6.08947e-20)
(4.77119 0.483011 0)
(4.38097 0.298025 5.90721e-20)
(4.36268 0.299578 6.07311e-21)
(4.00478 0.0746861 0)
(3.97437 0.0777041 5.1114e-20)
(3.72815 -0.139026 -9.48739e-20)
(3.66091 -0.144358 7.10021e-20)
(3.65801 -0.281537 -1.06379e-19)
(3.52851 -0.330353 5.11485e-20)
(3.81801 -0.328008 -1.52477e-19)
(3.63745 -0.406437 -2.28588e-20)
(4.06288 -0.350505 -3.68246e-19)
(3.90296 -0.407647 -1.66198e-19)
(4.25369 -0.386309 -1.8384e-19)
(4.12615 -0.443075 -1.36912e-19)
(4.37856 -0.423695 -1.45412e-19)
(4.28796 -0.466594 9.19246e-20)
(4.46229 -0.453327 -1.0819e-19)
(4.39283 -0.491382 -4.95814e-20)
(4.53375 -0.471 1.49104e-19)
(4.47531 -0.506376 1.83411e-20)
(4.60257 -0.478828 4.23751e-20)
(4.55019 -0.51052 2.36703e-20)
(4.67039 -0.480887 5.27723e-20)
(4.62118 -0.508176 -5.83613e-21)
(4.7371 -0.480139 -8.69821e-21)
(4.68968 -0.503226 1.61756e-20)
(4.80185 -0.477618 7.0825e-21)
(4.75604 -0.497766 7.27163e-21)
(4.86361 -0.472719 4.14573e-21)
(4.81995 -0.491911 1.59252e-20)
(4.92133 -0.464025 -5.47386e-20)
(4.88089 -0.48413 7.79322e-21)
(4.97401 -0.450403 -2.25989e-20)
(4.93804 -0.472784 -2.19649e-20)
(5.02118 -0.431295 3.3782e-20)
(4.99069 -0.456888 -5.29162e-20)
(5.06346 -0.406564 7.35009e-20)
(5.03788 -0.435996 4.32417e-20)
(5.10184 -0.375993 1.18941e-19)
(5.08061 -0.409584 -1.32566e-19)
(5.13729 -0.33988 -7.05093e-20)
(5.12047 -0.377391 -9.66038e-21)
(5.16988 -0.299317 1.0072e-20)
(5.15878 -0.34053 1.07905e-19)
(5.19864 -0.25534 1.06535e-20)
(5.19288 -0.300228 -1.53254e-19)
(5.22334 -0.209834 1.7837e-19)
(5.2185 -0.254548 -1.84436e-19)
(5.24552 -0.206901 3.14973e-19)
(5.24387 -0.166301 1.40612e-19)
(5.484 0.0902772 -1.63568e-20)
(5.48941 0.0591356 6.06618e-19)
(5.47111 0.0561755 0)
(5.50551 0.122955 -1.62345e-20)
(5.52472 0.117024 1.12272e-20)
(5.52375 0.155233 6.5194e-21)
(5.54284 0.147235 -2.3084e-21)
(5.54028 0.188123 -7.88083e-21)
(5.56096 0.182783 6.44371e-21)
(5.56051 0.220975 -1.88408e-19)
(5.5804 0.214188 -3.14211e-20)
(5.58986 0.255255 4.12914e-20)
(5.60828 0.243168 -1.71078e-19)
(5.62931 0.293181 1.89018e-19)
(5.64671 0.27162 2.45357e-19)
(5.67296 0.336912 -3.65364e-20)
(5.69086 0.302961 0)
(5.70792 0.386794 -9.80179e-21)
(5.72711 0.338594 9.43209e-20)
(5.71905 0.444594 3.78182e-20)
(5.74549 0.381915 -1.8492e-19)
(5.68612 0.510579 4.99962e-21)
(5.73035 0.437409 1.2457e-19)
(5.5877 0.565412 -3.7098e-20)
(5.63321 0.49437 -1.11528e-19)
(5.41292 0.5889 -2.82353e-20)
(5.45053 0.529115 2.88614e-20)
(5.14822 0.559802 5.90537e-20)
(5.16993 0.517477 -6.36778e-20)
(4.78801 0.461048 7.60902e-20)
(4.78976 0.440765 -6.0086e-20)
(4.3656 0.292442 -6.52237e-20)
(4.34179 0.290014 0)
(3.95626 0.0802218 -1.21422e-20)
(3.90286 0.0804894 -6.29783e-20)
(3.62998 -0.140393 1.19455e-19)
(3.55318 -0.146042 -7.66864e-20)
(3.4624 -0.325107 2.12347e-19)
(3.33956 -0.34823 -1.12712e-20)
(3.51052 -0.432809 1.30317e-19)
(3.33705 -0.499827 3.50305e-20)
(3.7246 -0.466415 2.21371e-20)
(3.53501 -0.552696 -8.70073e-21)
(3.96643 -0.48884 9.42602e-21)
(3.80059 -0.55817 9.45482e-21)
(4.15828 -0.513225 1.4003e-19)
(4.01962 -0.587354 0)
(4.29929 -0.529866 1.38247e-19)
(4.19873 -0.591843 -8.7392e-20)
(4.4002 -0.538896 7.81361e-20)
(4.32408 -0.593157 0)
(4.48382 -0.540556 -1.02979e-19)
(4.4213 -0.589955 7.89199e-20)
(4.56014 -0.536017 1.11957e-19)
(4.50591 -0.579944 -5.58739e-21)
(4.6318 -0.528241 6.20753e-20)
(4.5826 -0.565843 4.36203e-20)
(4.70014 -0.519964 3.93167e-20)
(4.65366 -0.551384 -1.62999e-20)
(4.76603 -0.512336 1.60661e-20)
(4.72091 -0.538796 1.58477e-20)
(4.82976 -0.504727 0)
(4.78561 -0.528246 1.6228e-22)
(4.89089 -0.495393 0)
(4.84848 -0.518077 0)
(4.94844 -0.482583 -5.10265e-20)
(4.90934 -0.506251 0)
(5.00167 -0.465307 6.04162e-20)
(4.96716 -0.491231 1.24586e-20)
(5.05042 -0.443012 -9.78116e-20)
(5.02047 -0.472157 -6.68572e-21)
(5.09548 -0.415354 -2.04903e-19)
(5.0696 -0.448389 1.1071e-20)
(5.13776 -0.382289 1.3465e-19)
(5.11591 -0.419303 -9.34743e-20)
(5.17736 -0.344592 1.13181e-20)
(5.16081 -0.38547 1.78215e-19)
(5.21339 -0.303236 -2.80053e-19)
(5.20224 -0.348178 2.93073e-20)
(5.2451 -0.25951 3.12257e-19)
(5.23538 -0.305253 -8.70643e-20)
(5.26835 -0.258853 1.74273e-19)
(5.27203 -0.216995 3.60708e-19)
(5.5452 0.115367 6.31765e-19)
(5.55065 0.0933399 6.06469e-19)
(5.52995 0.0786845 1.44108e-19)
(5.56588 0.148989 2.35995e-20)
(5.58815 0.154965 1.48857e-20)
(5.5827 0.181099 -2.28559e-21)
(5.60168 0.183843 4.17716e-22)
(5.60103 0.210652 -1.92315e-20)
(5.61848 0.216348 -2.61407e-19)
(5.62724 0.236524 -1.89378e-20)
(5.63908 0.239545 3.37985e-19)
(5.66396 0.259203 5.69101e-20)
(5.66905 0.255439 0)
(5.70699 0.280906 5.58273e-20)
(5.70706 0.26563 2.74967e-19)
(5.74453 0.305278 1.39806e-19)
(5.74476 0.274448 -4.59902e-20)
(5.76469 0.33474 -8.34426e-20)
(5.76791 0.286871 -1.57103e-19)
(5.75654 0.375291 -5.60198e-20)
(5.77481 0.310089 4.13105e-21)
(5.67825 0.424593 9.10102e-20)
(5.72113 0.346907 1.26627e-19)
(5.49755 0.461449 -9.17389e-20)
(5.54225 0.385851 -6.2272e-20)
(5.2113 0.459847 -8.34683e-21)
(5.24944 0.400339 -1.02006e-21)
(4.81901 0.397692 -2.95934e-20)
(4.8376 0.360939 -9.53324e-21)
(4.35193 0.265382 1.05705e-20)
(4.33959 0.253411 -1.66943e-20)
(3.88424 0.0736743 0)
(3.83041 0.0792978 1.66693e-19)
(3.50183 -0.145138 -1.25821e-19)
(3.40802 -0.139501 1.72185e-20)
(3.26295 -0.352381 -2.57082e-19)
(3.13596 -0.360397 1.00006e-19)
(3.21632 -0.509334 -2.84726e-19)
(3.04052 -0.5438 -2.11619e-19)
(3.36478 -0.593742 -1.49101e-19)
(3.15613 -0.67055 -3.31732e-19)
(3.61298 -0.624921 0)
(3.41236 -0.716389 -2.1038e-19)
(3.85377 -0.64634 0)
(3.67523 -0.727739 -2.32815e-19)
(4.0565 -0.655886 -3.1675e-19)
(3.90543 -0.745733 0)
(4.21757 -0.650393 -3.13713e-19)
(4.10868 -0.73105 -3.33639e-19)
(4.33653 -0.6389 0)
(4.25473 -0.709467 -7.40664e-20)
(4.43254 -0.623785 -7.81401e-20)
(4.36654 -0.687745 7.6509e-20)
(4.51706 -0.605673 -1.14052e-19)
(4.46134 -0.662747 -8.01075e-20)
(4.59362 -0.586663 -3.52393e-20)
(4.5448 -0.635669 -9.13066e-20)
(4.66413 -0.569347 0)
(4.61936 -0.610313 -3.82931e-20)
(4.73078 -0.555034 1.59519e-22)
(4.68762 -0.589235 5.1669e-20)
(4.79536 -0.543106 1.73472e-22)
(4.75236 -0.572548 2.95921e-20)
(4.85859 -0.531568 0)
(4.81585 -0.558425 3.66002e-21)
(4.91985 -0.518252 1.59381e-20)
(4.87896 -0.544593 0)
(4.97814 -0.501825 -6.61338e-20)
(4.94067 -0.529187 -6.23783e-20)
(5.03288 -0.481474 8.09404e-20)
(4.99915 -0.511104 -3.90878e-20)
(5.08444 -0.456562 1.30558e-19)
(5.05413 -0.489609 -8.87115e-21)
(5.13343 -0.426624 -3.85163e-21)
(5.10672 -0.463659 -5.25345e-20)
(5.17999 -0.392064 1.84307e-19)
(5.15814 -0.433002 -2.44517e-19)
(5.22329 -0.353608 1.7941e-19)
(5.2068 -0.398859 2.09314e-19)
(5.26231 -0.311931 1.05663e-20)
(5.24773 -0.35868 -1.09554e-19)
(5.28708 -0.313398 -1.2905e-19)
(5.29639 -0.270362 4.31744e-20)
(5.61034 0.163717 -9.7427e-21)
(5.61654 0.151709 -7.96607e-19)
(5.59582 0.125123 -1.06075e-19)
(5.62643 0.195883 -7.25246e-21)
(5.64924 0.213396 4.01069e-19)
(5.63934 0.22445 -2.58126e-19)
(5.65606 0.239602 -4.48659e-19)
(5.65571 0.245947 7.22106e-20)
(5.66693 0.265647 -6.71899e-19)
(5.67962 0.258341 3.43703e-19)
(5.68037 0.27688 7.20404e-19)
(5.71048 0.261507 2.36319e-19)
(5.70021 0.275307 0)
(5.7425 0.258681 1.25577e-19)
(5.72529 0.262281 6.9354e-20)
(5.76601 0.257193 -3.99766e-19)
(5.75057 0.244204 1.98499e-20)
(5.77647 0.26396 -8.79037e-20)
(5.76598 0.230374 -3.58297e-19)
(5.73926 0.284254 1.99464e-19)
(5.75 0.22925 1.42607e-19)
(5.5865 0.312018 9.2762e-21)
(5.62599 0.242632 0)
(5.29813 0.328797 5.17803e-20)
(5.34875 0.261843 -4.58416e-20)
(4.88327 0.302419 -2.42779e-21)
(4.92906 0.255263 -4.11401e-20)
(4.36974 0.213251 9.90024e-21)
(4.38898 0.192695 7.5065e-20)
(3.83162 0.0588614 1.39747e-19)
(3.80497 0.0644595 -2.5994e-20)
(3.36671 -0.142219 2.34693e-19)
(3.28167 -0.121243 -2.66971e-19)
(3.0504 -0.357246 2.26181e-19)
(2.91306 -0.340005 -3.55801e-19)
(2.91657 -0.552255 1.47398e-19)
(2.73531 -0.552812 4.61338e-20)
(2.98358 -0.692707 -2.60973e-19)
(2.75698 -0.725679 -1.7567e-19)
(3.20773 -0.768304 -4.1042e-19)
(2.96926 -0.842814 -1.91866e-21)
(3.47703 -0.802399 -4.53476e-19)
(3.2614 -0.894632 -1.38719e-20)
(3.72643 -0.818644 -2.28743e-19)
(3.53099 -0.909787 1.33503e-19)
(3.95079 -0.810168 1.78093e-19)
(3.7877 -0.914126 -1.81331e-19)
(4.13541 -0.784475 1.02424e-19)
(4.01763 -0.882165 -5.03057e-20)
(4.27286 -0.753753 -5.14132e-22)
(4.18462 -0.840544 -7.49422e-20)
(4.38171 -0.72182 7.82615e-20)
(4.31164 -0.800596 7.82014e-20)
(4.47513 -0.689166 3.47146e-20)
(4.4177 -0.759856 -1.39457e-19)
(4.55745 -0.657618 -1.68894e-21)
(4.50911 -0.718788 3.61335e-20)
(4.6307 -0.62991 2.14803e-20)
(4.58816 -0.681372 -1.2722e-19)
(4.69789 -0.60759 5.30762e-20)
(4.65779 -0.65068 2.09391e-19)
(4.76242 -0.589948 2.52133e-20)
(4.72214 -0.626676 1.7868e-20)
(4.82642 -0.574606 3.9332e-21)
(4.78526 -0.607305 1.3926e-21)
(4.88988 -0.559141 -7.68307e-20)
(4.84933 -0.589942 0)
(4.95192 -0.54239 1.6679e-20)
(4.91326 -0.57272 -1.63529e-19)
(5.01167 -0.523308 1.09387e-20)
(4.97545 -0.554689 1.94028e-19)
(5.06918 -0.500935 -9.80342e-20)
(5.03519 -0.535002 6.33453e-20)
(5.1248 -0.47421 -1.55251e-19)
(5.09356 -0.512178 1.0438e-19)
(5.17833 -0.442861 -1.09252e-19)
(5.15147 -0.484711 -3.41765e-19)
(5.22902 -0.407185 -1.06215e-19)
(5.20741 -0.453709 2.49935e-19)
(5.27543 -0.367116 -2.38924e-19)
(5.25653 -0.415699 -2.32654e-19)
(5.30231 -0.37062 4.37676e-21)
(5.3169 -0.32577 -9.68428e-21)
(5.67282 0.233229 -3.76432e-19)
(5.68058 0.230266 -8.26896e-19)
(5.663 0.196276 -3.07001e-19)
(5.68049 0.262233 1.60935e-19)
(5.70361 0.290035 3.01806e-19)
(5.68459 0.284981 -8.4717e-19)
(5.70004 0.313782 -3.69644e-19)
(5.6901 0.296319 -2.49791e-20)
(5.69739 0.333385 -2.67536e-19)
(5.69955 0.293242 3.69487e-19)
(5.69355 0.333995 -4.69061e-20)
(5.71406 0.275347 -1.47658e-19)
(5.69422 0.316741 7.98834e-19)
(5.73301 0.246831 -8.09181e-20)
(5.70238 0.281886 -4.13405e-19)
(5.75054 0.216801 1.40767e-20)
(5.7157 0.236788 -1.56543e-19)
(5.74046 0.196537 -1.18302e-19)
(5.7143 0.193465 1.37787e-19)
(5.63938 0.190664 -6.96932e-20)
(5.64712 0.162605 -5.88972e-20)
(5.39216 0.19577 1.0164e-20)
(5.4399 0.150032 0)
(4.98597 0.191865 -3.79193e-21)
(5.05566 0.14738 -2.33279e-20)
(4.444 0.145008 5.76089e-20)
(4.50742 0.12131 -7.77201e-20)
(3.83812 0.0374576 4.88387e-20)
(3.86323 0.0421677 -1.32959e-19)
(3.27308 -0.128824 -8.3932e-20)
(3.23405 -0.0976458 0)
(2.84827 -0.333146 -1.34126e-19)
(2.73304 -0.288926 -1.36134e-19)
(2.61651 -0.545066 -1.96614e-19)
(2.43525 -0.507732 8.92845e-21)
(2.58795 -0.733581 -2.82296e-19)
(2.35223 -0.718223 5.69788e-21)
(2.75065 -0.872175 1.00815e-19)
(2.47517 -0.889017 5.0387e-19)
(3.02867 -0.950938 4.28335e-19)
(2.7632 -1.01224 1.8942e-19)
(3.31744 -0.990058 6.60877e-19)
(3.08396 -1.07553 2.19531e-19)
(3.58861 -0.998201 2.42561e-19)
(3.37667 -1.09288 5.63835e-19)
(3.84202 -0.972573 -4.08767e-19)
(3.67006 -1.08642 -1.23552e-19)
(4.05091 -0.929956 -2.28118e-19)
(3.92546 -1.04258 -4.77367e-19)
(4.20765 -0.88246 0)
(4.11267 -0.986412 1.0313e-19)
(4.33121 -0.834306 -1.39708e-19)
(4.25658 -0.929343 8.13754e-21)
(4.43523 -0.786715 -1.44878e-19)
(4.37583 -0.872313 -3.11899e-19)
(4.52457 -0.742001 -8.65706e-20)
(4.47664 -0.816554 -1.00701e-19)
(4.60142 -0.703238 -6.96775e-20)
(4.56121 -0.76634 -1.09848e-19)
(4.6694 -0.672044 8.58234e-20)
(4.63284 -0.72527 9.71657e-20)
(4.73329 -0.64731 2.194e-20)
(4.69717 -0.693054 -6.31903e-20)
(4.79673 -0.626481 -2.63274e-21)
(4.75959 -0.667265 -1.41132e-20)
(4.86102 -0.607571 -7.83101e-20)
(4.8231 -0.644887 -1.74327e-20)
(4.9252 -0.589284 2.69109e-20)
(4.8877 -0.624498 -5.91359e-20)
(4.98854 -0.570749 1.82414e-19)
(4.95171 -0.605605 2.0292e-19)
(5.05096 -0.550592 1.58284e-19)
(5.01469 -0.587182 -4.97402e-21)
(5.11287 -0.527001 -1.76879e-19)
(5.07776 -0.567348 1.81425e-19)
(5.17345 -0.498672 -2.89761e-20)
(5.14202 -0.542767 -9.95626e-20)
(5.23193 -0.465315 1.28887e-19)
(5.2053 -0.514691 -2.23441e-20)
(5.28592 -0.425888 2.18811e-21)
(5.26349 -0.477706 -1.36556e-19)
(5.31558 -0.431343 7.71808e-20)
(5.33486 -0.38382 -1.4192e-19)
(5.72833 0.318505 -1.37478e-19)
(5.74109 0.322302 4.96792e-19)
(5.72684 0.283388 5.64156e-19)
(5.72392 0.345643 -3.63808e-20)
(5.75157 0.381084 -6.17983e-19)
(5.71262 0.36487 1.79521e-19)
(5.73349 0.406787 5.31329e-20)
(5.69861 0.369881 -2.84214e-19)
(5.71148 0.425607 1.10477e-19)
(5.68634 0.356225 3.988e-19)
(5.68506 0.423577 -5.48012e-19)
(5.68119 0.32192 4.52155e-19)
(5.66317 0.399312 7.61385e-19)
(5.68403 0.270361 -4.75013e-19)
(5.65101 0.350084 -1.07483e-19)
(5.67925 0.211757 3.49756e-20)
(5.64274 0.281685 -5.76667e-19)
(5.62326 0.159312 2.04508e-19)
(5.60434 0.206657 2.99478e-19)
(5.45139 0.123676 3.46638e-20)
(5.47403 0.141568 3.42015e-20)
(5.1076 0.105019 9.04969e-21)
(5.17869 0.0995277 0)
(4.58223 0.0805007 1.48726e-21)
(4.68202 0.0721751 8.66037e-21)
(3.9342 0.017437 -3.77904e-20)
(4.02308 0.0282016 -6.96241e-21)
(3.27292 -0.101495 -2.9718e-20)
(3.30877 -0.0647732 3.49982e-20)
(2.71502 -0.27486 -5.5233e-20)
(2.66773 -0.212263 8.60672e-20)
(2.34574 -0.483204 -2.23751e-20)
(2.20713 -0.408422 -1.45583e-19)
(2.19643 -0.697154 2.12571e-19)
(1.98085 -0.633481 1.67821e-19)
(2.25987 -0.887872 5.39224e-19)
(1.98207 -0.851183 -2.26149e-19)
(2.49998 -1.03352 3.77238e-19)
(2.18609 -1.03062 9.19202e-20)
(2.82397 -1.12764 0)
(2.53035 -1.1664 2.00309e-19)
(3.14387 -1.17327 -4.49492e-21)
(2.88791 -1.24428 0)
(3.44967 -1.17499 4.5099e-19)
(3.22091 -1.26357 -9.94461e-20)
(3.73294 -1.13832 7.72146e-19)
(3.55499 -1.25285 6.1455e-19)
(3.9627 -1.08507 4.10287e-19)
(3.8322 -1.20594 -1.02615e-20)
(4.1387 -1.02516 1.38089e-19)
(4.03816 -1.14346 1.04656e-19)
(4.27966 -0.961982 2.1796e-19)
(4.20195 -1.07291 4.57734e-19)
(4.39684 -0.899215 1.39826e-19)
(4.3369 -1.00103 7.55886e-20)
(4.49494 -0.841002 -1.9278e-20)
(4.44846 -0.931025 5.38227e-20)
(4.5766 -0.790778 1.76402e-19)
(4.53948 -0.868221 2.22922e-19)
(4.64615 -0.7499 5.55976e-20)
(4.61422 -0.8164 -4.10843e-20)
(4.70973 -0.717176 -5.33348e-20)
(4.67924 -0.774945 -1.15272e-19)
(4.77241 -0.690079 6.82928e-21)
(4.74098 -0.74137 -6.02883e-21)
(4.83625 -0.666481 3.51774e-20)
(4.80351 -0.71255 -2.3797e-20)
(4.90087 -0.645542 6.98945e-20)
(4.86746 -0.687956 1.77275e-20)
(4.96624 -0.626872 -6.62919e-20)
(4.93102 -0.667503 -6.97894e-20)
(5.03206 -0.608394 -2.5792e-21)
(4.99558 -0.649608 -1.21769e-19)
(5.0995 -0.587553 2.48764e-19)
(5.06169 -0.632279 3.39172e-20)
(5.16696 -0.561662 -9.14058e-20)
(5.1319 -0.609645 3.51757e-19)
(5.23392 -0.529889 -2.89326e-19)
(5.20212 -0.583949 -4.47576e-19)
(5.29597 -0.489376 1.52133e-19)
(5.27116 -0.546194 1.37209e-19)
(5.32971 -0.497129 1.67579e-21)
(5.35287 -0.444724 1.62837e-21)
(5.78002 0.414148 1.1265e-18)
(5.80449 0.419362 1.39403e-18)
(5.78967 0.375931 5.03279e-19)
(5.76111 0.445104 -5.23341e-19)
(5.80134 0.481926 -2.95465e-19)
(5.73109 0.468504 2.70662e-20)
(5.76828 0.517779 7.58026e-19)
(5.69518 0.477065 -1.25385e-19)
(5.72739 0.546784 -9.80228e-19)
(5.65971 0.464301 -1.48864e-19)
(5.67943 0.555606 5.71987e-20)
(5.63136 0.42459 1.77257e-19)
(5.63338 0.539203 2.92311e-19)
(5.60845 0.35771 -2.65877e-19)
(5.59243 0.488574 1.6072e-20)
(5.56837 0.272647 -2.05412e-19)
(5.54671 0.405915 -2.43302e-19)
(5.45696 0.186047 1.2752e-19)
(5.45274 0.304204 1.25457e-19)
(5.20273 0.117294 0)
(5.24839 0.203742 1.95475e-20)
(4.75499 0.0700565 0)
(4.86119 0.124939 6.11632e-20)
(4.12533 0.0239398 0)
(4.26405 0.0656283 3.9289e-20)
(3.40164 -0.0540465 6.38047e-20)
(3.52256 0.00193573 -6.44447e-20)
(2.71448 -0.183955 1.46965e-19)
(2.76657 -0.107 1.71848e-20)
(2.18024 -0.364672 5.39332e-20)
(2.13382 -0.266063 2.47565e-19)
(1.866 -0.578097 2.11874e-20)
(1.71815 -0.472877 -1.02713e-19)
(1.78657 -0.802161 -6.07383e-20)
(1.55114 -0.707963 -8.51956e-20)
(1.92319 -1.00843 -3.63957e-19)
(1.61921 -0.938973 -1.03009e-19)
(2.22573 -1.1744 3.92362e-21)
(1.88517 -1.13566 -1.95489e-19)
(2.59893 -1.28833 1.94775e-19)