/*--------------------------------*- C++ -*----------------------------------*\
  =========                 |
  \\      /  F ield         | OpenFOAM: The Open Source CFD Toolbox
   \\    /   O peration     | Website:  https://openfoam.org
    \\  /    A nd           | Version:  6
     \\/     M anipulation  |
\*---------------------------------------------------------------------------*/
FoamFile
{
    version     2.0;
    format      ascii;
    class       volScalarField;
    location    "4.2";
    object      p;
}
// * * * * * * * * * * * * * * * * * * * * * * * * * * * * * * * * * * * * * //

dimensions      [1 -1 -2 0 0 0 0];

internalField   nonuniform List<scalar> 
22500
(
1
1
1
1
1
1
1
1
1
1
1
1
1
1
1
1
1
1
1
1
1
1
1
1
1
1
1
1
1
1
1
1
1
1
1
1
1
1
1
1
1
1
1
1
1
1
1
1
1
1
1
1
1
1
1
1
1
1
1
1
1
1
1
1
1
1
1
1
1
1
1
0.999998
0.999996
0.999993
0.99999
0.999987
0.999985
0.999984
0.999986
0.999991
1
1.00002
1.00004
1.00008
1.00012
1.00018
1.00025
1.00034
1.00044
1.00055
1.00068
1.00082
1.00096
1.00111
1.00127
1.00142
1.00156
1.0017
1.00182
1.00192
1.002
1.00206
1.0021
1.00211
1.0021
1.00206
1.002
1.00192
1.00182
1.0017
1.00158
1.00145
1.00131
1.00118
1.00105
1.00092
1.0008
1.00069
1.00058
1.00049
1.00041
1.00034
1.00028
1.00023
1.00018
1.00014
1.00011
1.00009
1.00007
1.00005
1.00004
1.00003
1.00002
1.00001
1.00001
1
1
1
0.999999
0.999999
0.999998
0.999998
0.999999
0.999999
0.999999
0.999999
0.999999
0.999999
1
1
1
1
1
1
1
1
1
1
1
1
1
1
1
1
1
1
1
1
1
1
1
1
1
1
1
1
1
1
1
1
1
1
1
1
1
1
1
1
1
1
1
1
1
1
1
1
1
1
1
1
1
1
1
1
1
1
1
1
1
1
1
1
1
1
1
1
1
1
1
1
1
0.999999
0.999997
0.999995
0.999993
0.99999
0.99999
0.999993
0.999999
1.00001
1.00003
1.00006
1.0001
1.00015
1.00023
1.00031
1.00042
1.00055
1.00069
1.00086
1.00104
1.00123
1.00144
1.00165
1.00186
1.00206
1.00226
1.00244
1.0026
1.00273
1.00284
1.00292
1.00296
1.00297
1.00295
1.00289
1.0028
1.00269
1.00255
1.00239
1.00221
1.00203
1.00184
1.00165
1.00146
1.00128
1.00111
1.00095
1.00081
1.00068
1.00056
1.00046
1.00038
1.0003
1.00024
1.00019
1.00015
1.00011
1.00008
1.00006
1.00005
1.00003
1.00002
1.00001
1.00001
1
1
1
0.999999
0.999998
0.999998
0.999998
0.999998
0.999998
0.999999
0.999999
0.999999
0.999999
0.999999
1
1
1
1
1
1
1
1
1
1
1
1
1
1
1
1
1
1
1
1
1
1
1
1
1
1
1
1
1
1
1
1
1
1
1
1
1
1
1
1
1
1
1
1
1
1
1
1
1
1
1
1
1
1
1
1
1
1
1
1
1
1
1
1
1
1
1
1
1
1
1
1
1
0.999999
0.999998
0.999997
0.999997
1
1.00001
1.00002
1.00004
1.00008
1.00012
1.00019
1.00027
1.00038
1.00051
1.00067
1.00085
1.00106
1.00129
1.00154
1.00181
1.00209
1.00237
1.00266
1.00293
1.0032
1.00344
1.00365
1.00383
1.00397
1.00407
1.00412
1.00413
1.00409
1.00401
1.00389
1.00373
1.00353
1.00331
1.00307
1.00281
1.00255
1.00228
1.00202
1.00177
1.00153
1.00131
1.00111
1.00093
1.00077
1.00063
1.00051
1.00041
1.00032
1.00025
1.00019
1.00015
1.00011
1.00008
1.00006
1.00004
1.00003
1.00002
1.00001
1
1
0.999999
0.999998
0.999997
0.999997
0.999997
0.999997
0.999998
0.999998
0.999998
0.999999
0.999999
0.999999
0.999999
0.999999
1
1
1
1
1
1
1
1
1
1
1
1
1
1
1
1
1
1
1
1
1
1
1
1
1
1
1
1
1
1
1
1
1
1
1
1
1
1
1
1
1
1
1
1
1
1
1
1
1
1
1
1
1
1
1
1
1
1
1
1
1
1
1
1
1.00001
1.00001
1.00001
1.00001
1.00001
1.00001
1
1
1
1
1.00001
1.00002
1.00003
1.00006
1.00009
1.00015
1.00022
1.00032
1.00045
1.0006
1.00079
1.00102
1.00127
1.00156
1.00188
1.00223
1.00259
1.00297
1.00336
1.00373
1.0041
1.00444
1.00476
1.00504
1.00527
1.00545
1.00557
1.00564
1.00564
1.00559
1.00548
1.00531
1.0051
1.00484
1.00454
1.00421
1.00386
1.0035
1.00314
1.00278
1.00244
1.00211
1.0018
1.00153
1.00127
1.00105
1.00086
1.00069
1.00055
1.00044
1.00034
1.00026
1.0002
1.00015
1.00011
1.00008
1.00005
1.00003
1.00002
1.00001
1.00001
1
0.999998
0.999997
0.999996
0.999996
0.999996
0.999996
0.999997
0.999997
0.999998
0.999998
0.999999
0.999999
0.999999
0.999999
1
1
1
1
1
1
1
1
1
1
1
1
1
1
1
1
1
1
1
1
1
1
1
1
1
1
1
1
1
1
1
1
1
1
1
1
1
1
1
1
1
1
1
1
1
1
1
1
1
1
1
1
1
1
1
1
1
1
1
1
1
1.00001
1.00001
1.00001
1.00001
1.00001
1.00001
1.00001
1.00001
1.00001
1.00001
1.00001
1.00001
1.00002
1.00003
1.00004
1.00007
1.00011
1.00017
1.00025
1.00037
1.00051
1.00069
1.00092
1.00119
1.0015
1.00186
1.00225
1.00269
1.00315
1.00364
1.00415
1.00465
1.00515
1.00562
1.00607
1.00647
1.00683
1.00712
1.00735
1.00751
1.00759
1.00759
1.00752
1.00737
1.00715
1.00687
1.00653
1.00614
1.0057
1.00524
1.00476
1.00428
1.0038
1.00333
1.00289
1.00247
1.00209
1.00175
1.00144
1.00118
1.00095
1.00075
1.00059
1.00046
1.00035
1.00026
1.00019
1.00014
1.0001
1.00007
1.00004
1.00003
1.00002
1.00001
1
0.999998
0.999996
0.999995
0.999995
0.999995
0.999995
0.999996
0.999997
0.999997
0.999998
0.999998
0.999999
0.999999
0.999999
0.999999
0.999999
1
1
1
1
1
1
1
1
1
1
1
1
1
1
1
1
1
1
1
1
1
1
1
1
1
1
1
1
1
1
1
1
1
1
1
1
1
1
1
1
1
1
1
1
1
1
1
1
1
1
1
1
1
1
1
1
1
1
1
1.00001
1.00001
1.00001
1.00001
1.00001
1.00001
1.00001
1.00001
1.00001
1.00002
1.00002
1.00002
1.00003
1.00005
1.00008
1.00013
1.00019
1.00028
1.00041
1.00057
1.00078
1.00104
1.00135
1.00173
1.00216
1.00264
1.00318
1.00376
1.00438
1.00502
1.00567
1.00633
1.00696
1.00757
1.00814
1.00865
1.00909
1.00946
1.00974
1.00993
1.01003
1.01004
1.00994
1.00976
1.00948
1.00912
1.00868
1.00818
1.00762
1.00702
1.0064
1.00576
1.00513
1.00451
1.00391
1.00336
1.00284
1.00238
1.00196
1.0016
1.00129
1.00103
1.0008
1.00062
1.00047
1.00036
1.00026
1.00019
1.00013
1.00009
1.00006
1.00004
1.00002
1.00001
1
0.999997
0.999994
0.999993
0.999993
0.999993
0.999994
0.999995
0.999996
0.999996
0.999997
0.999998
0.999998
0.999999
0.999999
0.999999
0.999999
1
1
1
1
1
1
1
1
1
1
1
1
1
1
1
1
1
1
1
1
1
1
1
1
1
1
1
1
1
1
1
1
1
1
1
1
1
1
1
1
1
1
1
1
1
1
1
1
1
1
1
1
1
1
1
1
1
1.00001
1.00001
1.00001
1.00001
1.00001
1.00001
1.00001
1.00002
1.00002
1.00002
1.00002
1.00002
1.00003
1.00004
1.00006
1.00009
1.00014
1.00021
1.00031
1.00044
1.00063
1.00086
1.00115
1.00152
1.00195
1.00245
1.00303
1.00368
1.00439
1.00515
1.00595
1.00678
1.00762
1.00844
1.00924
1.01
1.0107
1.01133
1.01187
1.01232
1.01266
1.01289
1.01301
1.01302
1.0129
1.01267
1.01233
1.01189
1.01135
1.01073
1.01003
1.00927
1.00848
1.00766
1.00684
1.00604
1.00526
1.00452
1.00384
1.00322
1.00266
1.00217
1.00175
1.00139
1.00109
1.00084
1.00064
1.00048
1.00035
1.00026
1.00018
1.00012
1.00008
1.00005
1.00003
1.00001
1
0.999996
0.999993
0.999991
0.999991
0.999991
0.999992
0.999993
0.999994
0.999995
0.999996
0.999997
0.999998
0.999998
0.999998
0.999999
0.999999
0.999999
1
1
1
1
1
1
1
1
1
1
1
1
1
1
1
1
1
1
1
1
1
1
1
1
1
1
1
1
1
1
1
1
1
1
1
1
1
1
1
1
1
1
1
1
1
1
1
1
1
1
1
1
1
1
1
1
1.00001
1.00001
1.00001
1.00001
1.00001
1.00002
1.00002
1.00002
1.00002
1.00003
1.00003
1.00004
1.00005
1.00007
1.0001
1.00015
1.00022
1.00033
1.00047
1.00067
1.00093
1.00125
1.00166
1.00215
1.00274
1.00342
1.00418
1.00503
1.00595
1.00693
1.00795
1.00899
1.01003
1.01105
1.01203
1.01295
1.01379
1.01454
1.01518
1.01571
1.01611
1.01639
1.01653
1.01653
1.0164
1.01613
1.01573
1.01521
1.01456
1.01381
1.01297
1.01204
1.01106
1.01004
1.00901
1.00798
1.00698
1.00603
1.00514
1.00432
1.00358
1.00293
1.00237
1.00189
1.00148
1.00115
1.00087
1.00065
1.00048
1.00035
1.00024
1.00017
1.00011
1.00007
1.00004
1.00002
1
0.999996
0.999992
0.999989
0.999989
0.999989
0.99999
0.999991
0.999993
0.999994
0.999995
0.999996
0.999997
0.999998
0.999998
0.999998
0.999999
0.999999
1
1
1
1
1
1
1
1
1
1
1
1
1
1
1
1
1
1
1
1
1
1
1
1
1
1
1
1
1
1
1
1
1
1
1
1
1
1
1
1
1
1
1
1
1
1
1
1
1
1
1
1
1
1
1
1.00001
1.00001
1.00001
1.00001
1.00002
1.00002
1.00002
1.00002
1.00003
1.00003
1.00004
1.00005
1.00006
1.00008
1.00011
1.00016
1.00023
1.00034
1.00049
1.0007
1.00098
1.00133
1.00178
1.00234
1.003
1.00378
1.00467
1.00566
1.00675
1.00792
1.00915
1.01042
1.0117
1.01296
1.01418
1.01534
1.01642
1.0174
1.01826
1.01899
1.01958
1.02004
1.02034
1.0205
1.02051
1.02036
1.02007
1.01962
1.01903
1.01829
1.01743
1.01644
1.01535
1.01418
1.01295
1.01168
1.0104
1.00914
1.00793
1.00679
1.00574
1.00478
1.00392
1.00318
1.00254
1.002
1.00155
1.00118
1.00089
1.00065
1.00047
1.00033
1.00023
1.00015
1.00009
1.00005
1.00003
1.00001
0.999997
0.999991
0.999987
0.999986
0.999986
0.999988
0.999989
0.999991
0.999993
0.999994
0.999995
0.999996
0.999997
0.999997
0.999998
0.999999
0.999999
0.999999
1
1
1
1
1
1
1
1
1
1
1
1
1
1
1
1
1
1
1
1
1
1
1
1
1
1
1
1
1
1
1
1
1
1
1
1
1
1
1
1
1
1
1
1
1
1
1
1
1
1
1
1
1
1.00001
1.00001
1.00001
1.00001
1.00002
1.00002
1.00002
1.00003
1.00003
1.00004
1.00004
1.00005
1.00006
1.00008
1.00011
1.00016
1.00024
1.00035
1.0005
1.00072
1.00101
1.00139
1.00188
1.00249
1.00322
1.0041
1.00511
1.00626
1.00753
1.0089
1.01035
1.01186
1.01339
1.01491
1.01639
1.01781
1.01913
1.02034
1.02143
1.02237
1.02316
1.0238
1.02428
1.02461
1.02478
1.02479
1.02464
1.02433
1.02386
1.02323
1.02244
1.02149
1.02039
1.01916
1.01782
1.01638
1.01487
1.01334
1.0118
1.0103
1.00887
1.00753
1.0063
1.0052
1.00423
1.00339
1.00267
1.00208
1.00159
1.0012
1.00088
1.00064
1.00045
1.00031
1.00021
1.00013
1.00008
1.00004
1.00002
0.999999
0.99999
0.999985
0.999983
0.999984
0.999985
0.999987
0.999989
0.999991
0.999992
0.999994
0.999995
0.999997
0.999997
0.999998
0.999998
0.999999
0.999999
0.999999
1
1
1
1
1
1
1
1
1
1
1
1
1
1
1
1
1
1
1
1
1
1
1
1
1
1
1
1
1
1
1
1
1
1
1
1
1
1
1
1
1
1
1
1
1
1
1
1
1
1
1
1.00001
1.00001
1.00001
1.00001
1.00002
1.00002
1.00002
1.00003
1.00003
1.00004
1.00005
1.00006
1.00007
1.00009
1.00012
1.00017
1.00024
1.00035
1.0005
1.00072
1.00102
1.00142
1.00194
1.0026
1.0034
1.00437
1.0055
1.0068
1.00825
1.00983
1.01152
1.01327
1.01507
1.01686
1.0186
1.02027
1.02184
1.02328
1.02457
1.0257
1.02667
1.02747
1.02811
1.02859
1.02891
1.02908
1.02909
1.02895
1.02865
1.0282
1.02757
1.02678
1.02581
1.02467
1.02336
1.02189
1.02029
1.01857
1.01679
1.01497
1.01317
1.01141
1.00975
1.00821
1.00681
1.00556
1.00448
1.00355
1.00277
1.00213
1.00161
1.00119
1.00087
1.00062
1.00043
1.00029
1.00018
1.00011
1.00006
1.00003
1
0.999991
0.999984
0.999981
0.99998
0.999982
0.999984
0.999986
0.999988
0.999991
0.999993
0.999994
0.999996
0.999996
0.999997
0.999998
0.999998
0.999999
0.999999
0.999999
1
1
1
1
1
1
1
1
1
1
1
1
1
1
1
1
1
1
1
1
1
1
1
1
1
1
1
1
1
1
1
1
1
1
1
1
1
1
1
1
1
1
1
1
1
1
1
1
1
1.00001
1.00001
1.00001
1.00001
1.00002
1.00002
1.00002
1.00003
1.00004
1.00004
1.00005
1.00006
1.00007
1.00009
1.00012
1.00017
1.00024
1.00034
1.0005
1.00071
1.00102
1.00143
1.00197
1.00266
1.00353
1.00458
1.00582
1.00727
1.00889
1.01068
1.0126
1.01462
1.01668
1.01873
1.02074
1.02266
1.02445
1.02609
1.02755
1.02884
1.02993
1.03085
1.03159
1.03217
1.03259
1.03287
1.03302
1.03303
1.03292
1.03266
1.03227
1.03172
1.031
1.0301
1.029
1.02771
1.02621
1.02453
1.02268
1.0207
1.01863
1.01653
1.01445
1.01244
1.01055
1.00881
1.00724
1.00586
1.00467
1.00366
1.00283
1.00214
1.0016
1.00117
1.00083
1.00058
1.00039
1.00026
1.00016
1.00009
1.00004
1.00001
0.999993
0.999983
0.999978
0.999977
0.999978
0.99998
0.999983
0.999986
0.999989
0.999991
0.999993
0.999995
0.999995
0.999996
0.999997
0.999998
0.999999
0.999999
0.999999
1
1
1
1
1
1
1
1
1
1
1
1
1
1
1
1
1
1
1
1
1
1
1
1
1
1
1
1
1
1
1
1
1
1
1
1
1
1
1
1
1
1
1
1
1
1
1
1
1
1.00001
1.00001
1.00001
1.00002
1.00002
1.00002
1.00003
1.00004
1.00004
1.00005
1.00006
1.00008
1.0001
1.00012
1.00017
1.00023
1.00033
1.00048
1.00069
1.00099
1.00141
1.00196
1.00268
1.00359
1.00471
1.00606
1.00764
1.00943
1.01143
1.01358
1.01585
1.01818
1.0205
1.02276
1.0249
1.02689
1.02869
1.03028
1.03165
1.0328
1.03375
1.0345
1.03509
1.03553
1.03584
1.03604
1.03614
1.03615
1.03608
1.0359
1.03562
1.03522
1.03466
1.03394
1.03301
1.03187
1.03048
1.02885
1.02699
1.02492
1.02269
1.02035
1.01797
1.01562
1.01336
1.01124
1.00931
1.00758
1.00608
1.00479
1.00372
1.00283
1.00212
1.00156
1.00112
1.00079
1.00054
1.00035
1.00022
1.00013
1.00007
1.00002
0.999999
0.999984
0.999977
0.999974
0.999974
0.999977
0.99998
0.999983
0.999986
0.999989
0.999991
0.999993
0.999994
0.999996
0.999997
0.999998
0.999998
0.999999
0.999999
0.999999
1
1
1
1
1
1
1
1
1
1
1
1
1
1
1
1
1
1
1
1
1
1
1
1
1
1
1
1
1
1
1
1
1
1
1
1
1
1
1
1
1
1
1
1
1
1
1
1.00001
1.00001
1.00001
1.00001
1.00002
1.00002
1.00003
1.00004
1.00004
1.00005
1.00006
1.00008
1.0001
1.00012
1.00016
1.00022
1.00032
1.00046
1.00066
1.00096
1.00136
1.00192
1.00265
1.00359
1.00476
1.00619
1.00789
1.00985
1.01204
1.01442
1.01694
1.01952
1.0221
1.0246
1.02695
1.0291
1.03101
1.03266
1.03404
1.03516
1.03603
1.0367
1.03718
1.03752
1.03774
1.03788
1.03795
1.03798
1.03798
1.03795
1.03789
1.03777
1.03759
1.03729
1.03686
1.03625
1.03541
1.0343
1.03291
1.03121
1.02921
1.02696
1.02449
1.02189
1.01924
1.01663
1.01412
1.01179
1.00968
1.00781
1.0062
1.00484
1.00371
1.00279
1.00206
1.00149
1.00106
1.00073
1.00049
1.00031
1.00019
1.0001
1.00004
1.00001
0.999987
0.999976
0.999971
0.999971
0.999973
0.999976
0.99998
0.999983
0.999987
0.99999
0.999992
0.999993
0.999995
0.999996
0.999997
0.999998
0.999999
0.999999
0.999999
1
1
1
1
1
1
1
1
1
1
1
1
1
1
1
1
1
1
1
1
1
1
1
1
1
1
1
1
1
1
1
1
1
1
1
1
1
1
1
1
1
1
1
1
1
1
1
1.00001
1.00001
1.00001
1.00002
1.00002
1.00003
1.00004
1.00004
1.00005
1.00006
1.00008
1.0001
1.00012
1.00016
1.00022
1.0003
1.00043
1.00062
1.0009
1.0013
1.00184
1.00257
1.00352
1.00473
1.00623
1.00803
1.01012
1.01249
1.01509
1.01785
1.02068
1.02351
1.02622
1.02875
1.03102
1.03299
1.03464
1.03594
1.03694
1.03764
1.0381
1.03836
1.03847
1.03847
1.0384
1.03831
1.03822
1.03816
1.03814
1.03816
1.03823
1.03831
1.0384
1.03844
1.0384
1.03822
1.03785
1.03721
1.03625
1.03493
1.03323
1.03115
1.02874
1.02606
1.02322
1.02031
1.01744
1.01471
1.01219
1.00992
1.00793
1.00623
1.00481
1.00364
1.00271
1.00197
1.00141
1.00098
1.00066
1.00043
1.00026
1.00015
1.00007
1.00002
0.999994
0.999977
0.999969
0.999967
0.999969
0.999972
0.999976
0.99998
0.999984
0.999987
0.99999
0.999991
0.999994
0.999995
0.999997
0.999998
0.999998
0.999999
0.999999
1
1
1
1
1
1
1
1
1
1
1
1
1
1
1
1
1
1
1
1
1
1
1
1
0.999999
1
1
1
1
1
1
1
1
1
1
1
1
1
1
1
1
1
1
1
1
1
1.00001
1.00001
1.00001
1.00002
1.00002
1.00003
1.00003
1.00004
1.00005
1.00006
1.00008
1.0001
1.00012
1.00015
1.00021
1.00028
1.0004
1.00058
1.00084
1.00121
1.00174
1.00245
1.0034
1.00462
1.00616
1.00803
1.01024
1.01277
1.01556
1.01855
1.02163
1.02468
1.02761
1.03029
1.03265
1.03463
1.0362
1.03737
1.03815
1.03858
1.03873
1.03865
1.0384
1.03805
1.03766
1.03726
1.03691
1.03664
1.03647
1.03642
1.03649
1.03668
1.03698
1.03736
1.03779
1.03821
1.03855
1.03876
1.03874
1.03842
1.0377
1.03653
1.03489
1.03277
1.03023
1.02736
1.02429
1.02114
1.01804
1.0151
1.01241
1.01
1.00792
1.00616
1.0047
1.00352
1.00258
1.00185
1.0013
1.00089
1.00058
1.00037
1.00021
1.00011
1.00005
1
0.999981
0.999969
0.999964
0.999965
0.999968
0.999972
0.999977
0.999981
0.999985
0.999988
0.999989
0.999992
0.999994
0.999996
0.999997
0.999998
0.999999
0.999999
0.999999
1
1
1
1
1
1
1
1
1
1
1
1
1
1
1
1
1
1
1
1
1
1
1
1
1
1
1
1
1
1
1
1
1
1
1
1
1
1
1
1
1
1
1
1
1
1.00001
1.00001
1.00001
1.00002
1.00002
1.00003
1.00004
1.00005
1.00006
1.00008
1.00009
1.00012
1.00015
1.0002
1.00026
1.00037
1.00053
1.00077
1.00111
1.00161
1.00229
1.00322
1.00443
1.00598
1.00789
1.01019
1.01285
1.01583
1.01903
1.02234
1.02562
1.02873
1.03155
1.03397
1.03592
1.03737
1.03833
1.03882
1.03891
1.03866
1.03815
1.03745
1.03666
1.03582
1.03501
1.03428
1.03367
1.03321
1.03293
1.03284
1.03295
1.03327
1.03377
1.03443
1.03523
1.03612
1.03702
1.03787
1.03857
1.03902
1.03909
1.0387
1.03774
1.0362
1.03406
1.03142
1.02837
1.02509
1.02171
1.01841
1.01529
1.01245
1.00994
1.00779
1.00599
1.00452
1.00334
1.00242
1.00171
1.00118
1.00078
1.0005
1.0003
1.00017
1.00008
1.00002
0.999988
0.99997
0.999962
0.999961
0.999963
0.999968
0.999973
0.999978
0.999982
0.999986
0.999987
0.999991
0.999993
0.999995
0.999996
0.999998
0.999998
0.999999
0.999999
1
1
1
1
1
1
1
1
1
1
1
1
1
1
1
1
1
1
1
1
1
1
1
1
1
1
1
1
1
1
1
1
1
1
1
1
1
1
1
1
1
1
1
1
1.00001
1.00001
1.00001
1.00002
1.00002
1.00003
1.00004
1.00005
1.00006
1.00007
1.00009
1.00011
1.00014
1.00018
1.00025
1.00034
1.00048
1.00069
1.00101
1.00147
1.00211
1.00299
1.00418
1.00571
1.00764
1.00998
1.01274
1.01587
1.01926
1.02279
1.02629
1.02959
1.03254
1.035
1.0369
1.0382
1.03891
1.03906
1.03874
1.03803
1.03703
1.03583
1.03452
1.03318
1.03189
1.03069
1.02965
1.0288
1.02817
1.02779
1.02766
1.0278
1.02821
1.02888
1.02979
1.03091
1.03222
1.03364
1.03512
1.03655
1.03782
1.0388
1.03934
1.03931
1.03861
1.03718
1.03505
1.0323
1.02909
1.0256
1.02202
1.01852
1.01526
1.01231
1.00973
1.00755
1.00574
1.00427
1.00312
1.00222
1.00155
1.00104
1.00068
1.00042
1.00024
1.00012
1.00005
1
0.999974
0.999962
0.999958
0.999959
0.999963
0.999969
0.999974
0.999979
0.999984
0.999985
0.999989
0.999992
0.999994
0.999996
0.999997
0.999998
0.999999
0.999999
0.999999
1
1
1
1
1
1
1
1
1
1
1
1
1
1
1
1
1
1
1
1
1
1
1
1
1
1
1
1
1
1
1
1
1
1
1
1
1
1
1
1
1
1
1.00001
1.00001
1.00001
1.00001
1.00002
1.00002
1.00003
1.00004
1.00005
1.00007
1.00008
1.00011
1.00013
1.00017
1.00023
1.00031
1.00043
1.00062
1.0009
1.00132
1.00191
1.00274
1.00386
1.00535
1.00726
1.00962
1.01244
1.01568
1.01924
1.02297
1.02669
1.03018
1.03326
1.03577
1.03761
1.03874
1.03917
1.03897
1.03821
1.03701
1.03549
1.03375
1.0319
1.03003
1.02822
1.02653
1.02502
1.02373
1.02269
1.02193
1.02146
1.0213
1.02145
1.02192
1.02271
1.0238
1.02517
1.02681
1.02866
1.03067
1.03276
1.03481
1.0367
1.03825
1.03929
1.03965
1.0392
1.03788
1.03573
1.03288
1.02949
1.02581
1.02204
1.01839
1.01501
1.01199
1.00938
1.00719
1.0054
1.00397
1.00286
1.00201
1.00137
1.0009
1.00057
1.00034
1.00018
1.00008
1.00002
0.999982
0.999964
0.999956
0.999956
0.999959
0.999964
0.99997
0.999976
0.999981
0.999983
0.999987
0.999991
0.999993
0.999995
0.999996
0.999998
0.999998
0.999999
0.999999
1
1
1
1
1
1
1
1
1
1
1
1
1
1
1
1
1
1
1
1
1
1
1
1
1
1
1
1
1
1
1
1
1
1
1
1
1
1
1
1
1
1
1.00001
1.00001
1.00001
1.00002
1.00002
1.00003
1.00004
1.00005
1.00006
1.00008
1.0001
1.00013
1.00016
1.00021
1.00028
1.00039
1.00055
1.0008
1.00116
1.0017
1.00246
1.00351
1.00493
1.00678
1.00911
1.01195
1.01527
1.01896
1.02288
1.02681
1.0305
1.03372
1.03629
1.03809
1.03907
1.03923
1.03866
1.03747
1.03578
1.03373
1.03145
1.02906
1.02666
1.02434
1.02215
1.02017
1.01843
1.01696
1.01579
1.01494
1.01441
1.01422
1.01437
1.01488
1.01573
1.01694
1.01848
1.02034
1.0225
1.02491
1.02751
1.03022
1.03291
1.03542
1.03755
1.03908
1.0398
1.03957
1.03834
1.03614
1.03315
1.02959
1.02572
1.02179
1.01802
1.01456
1.01151
1.00891
1.00675
1.00501
1.00363
1.00257
1.00178
1.00119
1.00077
1.00047
1.00027
1.00013
1.00005
0.999996
0.999968
0.999956
0.999953
0.999955
0.99996
0.999966
0.999972
0.999978
0.999981
0.999985
0.999989
0.999992
0.999994
0.999996
0.999997
0.999998
0.999999
0.999999
0.999999
1
1
1
1
1
1
1
1
1
1
1
1
1
1
1
1
1
1
1
1
1
1
1
1
1
1
1
1
1
1
1
1
1
1
1
1
1
1
1
1
1
1.00001
1.00001
1.00001
1.00002
1.00003
1.00003
1.00004
1.00006
1.00007
1.00009
1.00012
1.00015
1.00019
1.00025
1.00034
1.00048
1.00069
1.00102
1.00149
1.00217
1.00314
1.00446
1.00622
1.00848
1.01129
1.01463
1.01842
1.02251
1.02664
1.03054
1.03394
1.0366
1.03839
1.03924
1.03916
1.03825
1.03664
1.03448
1.03193
1.02914
1.02623
1.02332
1.02051
1.01786
1.01543
1.01326
1.01138
1.00981
1.00857
1.00766
1.0071
1.00689
1.00704
1.00755
1.00842
1.00967
1.0113
1.01328
1.01562
1.01828
1.02124
1.02443
1.02775
1.03106
1.03418
1.03685
1.03883
1.03986
1.0398
1.03858
1.03629
1.03313
1.02938
1.02533
1.02127
1.01742
1.01393
1.01089
1.00833
1.00623
1.00456
1.00326
1.00227
1.00154
1.00101
1.00063
1.00037
1.0002
1.00008
1.00002
0.999977
0.999958
0.999951
0.999951
0.999956
0.999962
0.999969
0.999975
0.999978
0.999983
0.999987
0.999991
0.999993
0.999995
0.999997
0.999998
0.999999
0.999999
0.999999
1
1
1
1
1
1
1
1
1
1
1
1
1
1
1
1
1
1
1
1
1
1
1
1
1
1
1
1
1
1
1
1
1
1
1
1
1
1
1
1
1.00001
1.00001
1.00001
1.00002
1.00002
1.00003
1.00004
1.00005
1.00007
1.00008
1.00011
1.00013
1.00017
1.00023
1.0003
1.00042
1.0006
1.00088
1.00129
1.00189
1.00276
1.00396
1.0056
1.00775
1.01048
1.01379
1.01764
1.02184
1.02617
1.0303
1.0339
1.03671
1.03854
1.03931
1.03905
1.03784
1.03586
1.03327
1.03025
1.02697
1.02358
1.02021
1.01694
1.01385
1.01101
1.00845
1.00619
1.00426
1.00266
1.0014
1.00048
0.999907
0.999685
0.999816
1.00031
1.00117
1.00241
1.00404
1.00606
1.00847
1.01125
1.0144
1.01788
1.02162
1.02553
1.02944
1.03312
1.03629
1.03864
1.0399
1.0399
1.03862
1.03618
1.03281
1.02886
1.02466
1.0205
1.01661
1.01313
1.01014
1.00766
1.00566
1.00408
1.00288
1.00197
1.00131
1.00083
1.0005
1.00028
1.00013
1.00004
0.999991
0.999963
0.999951
0.999949
0.999952
0.999958
0.999965
0.999972
0.999975
0.999981
0.999985
0.999989
0.999992
0.999995
0.999996
0.999997
0.999998
0.999999
0.999999
0.999999
1
1
1
1
1
1
1
1
1
1
1
1
1
1
1
1
1
1
1
1
1
1
1
1
1
1
1
1
1
1
1
1
1
1
1
1
1
1
1
1.00001
1.00001
1.00001
1.00002
1.00002
1.00003
1.00004
1.00006
1.00008
1.0001
1.00012
1.00016
1.0002
1.00027
1.00037
1.00052
1.00075
1.0011
1.00162
1.00238
1.00346
1.00495
1.00696
1.00955
1.01278
1.01661
1.0209
1.0254
1.02976
1.03361
1.03663
1.03857
1.03934
1.03894
1.03751
1.0352
1.03223
1.02879
1.02508
1.02125
1.01744
1.01375
1.01027
1.00706
1.00414
1.00155
0.999303
0.997391
0.99582
0.994585
0.993686
0.993119
0.992886
0.992993
0.993447
0.994261
0.995449
0.997025
0.999002
1.00139
1.00419
1.0074
1.011
1.01498
1.01925
1.02372
1.02818
1.03237
1.03595
1.03857
1.03995
1.03991
1.03847
1.0358
1.0322
1.02805
1.02371
1.01949
1.01561
1.01219
1.0093
1.00694
1.00505
1.00359
1.00249
1.00167
1.00108
1.00067
1.00039
1.0002
1.00008
1.00001
0.999972
0.999953
0.999947
0.999949
0.999954
0.999961
0.999968
0.999972
0.999978
0.999983
0.999988
0.999991
0.999994
0.999996
0.999997
0.999998
0.999999
0.999999
1
1
1
1
1
1
1
1
1
1
1
1
1
1
1
1
1
1
1
1
1
1
1
1
1
1
1
1
1
1
1
1
1
1
1
1
1
1
1
1
1.00001
1.00001
1.00001
1.00002
1.00003
1.00004
1.00005
1.00007
1.00009
1.00011
1.00014
1.00018
1.00023
1.00032
1.00044
1.00063
1.00092
1.00137
1.00202
1.00297
1.0043
1.00613
1.00855
1.01163
1.01538
1.0197
1.02433
1.02892
1.03306
1.03633
1.03847
1.03932
1.03889
1.0373
1.03475
1.03146
1.02765
1.02355
1.01932
1.01511
1.01104
1.0072
1.00365
1.00042
0.99754
0.995013
0.992838
0.991008
0.989512
0.988338
0.987479
0.986928
0.986685
0.986756
0.987151
0.987885
0.988977
0.990449
0.992324
0.994619
0.997347
1.00052
1.00413
1.00817
1.01262
1.01741
1.0224
1.02737
1.03199
1.03588
1.03865
1.04001
1.03981
1.03811
1.03515
1.03129
1.02696
1.02252
1.01829
1.01446
1.01116
1.0084
1.00618
1.00443
1.0031
1.00211
1.00139
1.00087
1.00052
1.00028
1.00013
1.00004
0.999985
0.999958
0.999947
0.999946
0.99995
0.999957
0.999965
0.999969
0.999976
0.999981
0.999986
0.99999
0.999993
0.999995
0.999996
0.999998
0.999998
0.999999
0.999999
1
1
1
1
1
1
1
1
1
1
1
1
1
1
1
1
1
1
1
1
1
1
1
1
1
1
1
1
1
1
1
1
1
1
1
1
1
1
1.00001
1.00001
1.00001
1.00002
1.00002
1.00003
1.00004
1.00006
1.00007
1.0001
1.00012
1.00016
1.00021
1.00027
1.00038
1.00053
1.00077
1.00114
1.00169
1.0025
1.00367
1.0053
1.00751
1.01039
1.01399
1.01825
1.02296
1.02777
1.0322
1.03581
1.03823
1.03927
1.0389
1.03726
1.03454
1.031
1.02688
1.02243
1.01784
1.01327
1.00885
1.00467
1.00081
0.9973
0.994161
0.991399
0.989008
0.986974
0.985275
0.983892
0.982806
0.982003
0.981476
0.981221
0.981243
0.981555
0.982178
0.983135
0.984457
0.986172
0.988312
0.990899
0.993949
0.997473
1.00148
1.00596
1.01088
1.01617
1.02166
1.02707
1.03203
1.0361
1.03888
1.04006
1.03956
1.0375
1.03421
1.03009
1.02559
1.02111
1.01692
1.0132
1.01005
1.00746
1.0054
1.00382
1.00262
1.00175
1.00112
1.00068
1.00039
1.0002
1.00008
1
0.999966
0.999949
0.999945
0.999947
0.999954
0.999961
0.999966
0.999973
0.999979
0.999985
0.999989
0.999992
0.999994
0.999996
0.999997
0.999998
0.999999
0.999999
1
1
1
1
1
1
1
1
1
1
1
1
1
1
1
1
1
1
1
1
1
1
1
1
1
1
1
1
1
1
1
1
1
1
1
1
1
1
1.00001
1.00001
1.00001
1.00002
1.00003
1.00004
1.00005
1.00006
1.00008
1.00011
1.00014
1.00018
1.00024
1.00032
1.00045
1.00064
1.00094
1.0014
1.00208
1.00308
1.0045
1.00647
1.0091
1.01248
1.0166
1.02132
1.02629
1.03103
1.03502
1.03782
1.03916
1.03897
1.03738
1.03459
1.03087
1.02651
1.02176
1.01685
1.01194
1.00719
1.0027
0.998544
0.994769
0.9914
0.988438
0.985872
0.983681
0.98184
0.980316
0.97908
0.978106
0.977376
0.976876
0.976605
0.976566
0.976774
0.977254
0.978036
0.979157
0.980657
0.982578
0.984955
0.987816
0.99118
0.995059
0.99946
1.00438
1.00978
1.01556
1.02151
1.02729
1.03248
1.03658
1.03919
1.04004
1.03912
1.03663
1.03297
1.0286
1.02399
1.01951
1.01542
1.01187
1.0089
1.00651
1.00465
1.00323
1.00217
1.00142
1.00088
1.00052
1.00028
1.00012
1.00003
0.999979
0.999954
0.999945
0.999945
0.99995
0.999958
0.999963
0.99997
0.999977
0.999983
0.999987
0.999991
0.999993
0.999996
0.999997
0.999998
0.999999
0.999999
1
1
1
1
1
1
1
1
1
1
1
1
1
1
1
1
1
1
1
1
1
1
1
1
1
1
1
1
1
1
1
1
1
1
1
1
1
1
1.00001
1.00001
1.00001
1.00002
1.00003
1.00004
1.00005
1.00007
1.00009
1.00012
1.00016
1.0002
1.00027
1.00037
1.00053
1.00077
1.00114
1.0017
1.00254
1.00375
1.00547
1.00782
1.01092
1.01482
1.01943
1.02449
1.02951
1.03392
1.03718
1.03894
1.03906
1.03764
1.03488
1.03109
1.02655
1.02156
1.01635
1.01114
1.00607
1.00127
0.996835
0.992808
0.989221
0.98608
0.983373
0.981072
0.979141
0.977542
0.976234
0.975178
0.974341
0.973699
0.973235
0.972945
0.972835
0.97292
0.973228
0.973794
0.974665
0.975891
0.977525
0.979618
0.982213
0.98534
0.989019
0.993263
0.998079
1.00346
1.00934
1.0156
1.02196
1.02802
1.03329
1.03725
1.03951
1.03988
1.03842
1.03545
1.03142
1.02685
1.02219
1.01778
1.01385
1.0105
1.00776
1.00559
1.00392
1.00267
1.00176
1.00112
1.00067
1.00038
1.00018
1.00007
0.999998
0.999962
0.999947
0.999944
0.999948
0.999955
0.99996
0.999968
0.999975
0.999981
0.999986
0.99999
0.999993
0.999995
0.999996
0.999997
0.999999
0.999999
1
1
1
1
1
1
1
1
1
1
1
1
1
1
1
1
1
1
1
1
1
1
1
1
1
1
1
1
1
1
1
1
1
1
1
1
1
1.00001
1.00001
1.00001
1.00002
1.00002
1.00003
1.00004
1.00006
1.00008
1.0001
1.00013
1.00018
1.00023
1.00031
1.00044
1.00063
1.00092
1.00138
1.00206
1.00308
1.00454
1.00659
1.00936
1.01295
1.01736
1.0224
1.02763
1.03246
1.03625
1.03855
1.03912
1.038
1.0354
1.03163
1.027
1.02182
1.01636
1.01086
1.00549
1.00039
0.995665
0.991387
0.987588
0.984278
0.981447
0.979068
0.977096
0.975482
0.974176
0.973124
0.97228
0.971605
0.971068
0.97065
0.970344
0.970156
0.970104
0.970215
0.970532
0.971106
0.971999
0.973275
0.975004
0.977245
0.980048
0.983444
0.987452
0.992083
0.99734
1.0032
1.00958
1.01629
1.02299
1.0292
1.03438
1.03801
1.03975
1.03949
1.03742
1.03394
1.02959
1.02487
1.02022
1.01595
1.01223
1.00913
1.00664
1.00471
1.00324
1.00217
1.00139
1.00086
1.0005
1.00026
1.00011
1.00002
0.999974
0.999951
0.999944
0.999946
0.999952
0.999957
0.999965
0.999973
0.999979
0.999984
0.999989
0.999992
0.999994
0.999996
0.999997
0.999998
0.999999
0.999999
1
1
1
1
1
1
1
1
1
1
1
1
1
1
1
1
1
1
1
1
1
1
1
1
1
1
1
1
1
1
1
1
1
1
1
1
1.00001
1.00001
1.00001
1.00002
1.00003
1.00004
1.00005
1.00007
1.00009
1.00011
1.00015
1.0002
1.00026
1.00036
1.00051
1.00074
1.0011
1.00165
1.00248
1.0037
1.00545
1.00787
1.01109
1.0152
1.02008
1.02541
1.0306
1.03496
1.03789
1.03906
1.03839
1.0361
1.03246
1.02782
1.02252
1.01687
1.0111
1.00543
1.00003
0.995021
0.990479
0.986459
0.982979
0.980031
0.977589
0.975607
0.974026
0.972784
0.971816
0.97106
0.970458
0.969967
0.969552
0.969192
0.968876
0.968611
0.968414
0.968315
0.968359
0.968601
0.969109
0.969963
0.971247
0.973043
0.975421
0.978434
0.982113
0.986475
0.991525
0.997258
1.00363
1.0105
1.01761
1.02454
1.03075
1.03564
1.03874
1.03977
1.03878
1.03606
1.03211
1.02749
1.02271
1.01816
1.01409
1.01063
1.00781
1.00559
1.00389
1.00263
1.00172
1.00107
1.00064
1.00035
1.00016
1.00005
0.99999
0.999958
0.999946
0.999945
0.99995
0.999955
0.999963
0.999971
0.999978
0.999983
0.999988
0.999991
0.999994
0.999996
0.999997
0.999998
0.999999
0.999999
1
1
1
1
1
1
1
1
1
1
1
1
1
1
1
1
1
1
1
1
1
1
1
1
1
1
1
1
1
1
1
1
1
1
1
1
1.00001
1.00001
1.00001
1.00002
1.00003
1.00004
1.00005
1.00007
1.0001
1.00013
1.00016
1.00022
1.0003
1.00041
1.00059
1.00087
1.0013
1.00197
1.00296
1.00442
1.00648
1.0093
1.01301
1.01761
1.02289
1.02834
1.03325
1.03689
1.03877
1.03873
1.03688
1.03351
1.02898
1.02365
1.01784
1.01185
1.00591
1.0002
0.994887
0.990066
0.985805
0.982136
0.979062
0.976559
0.974579
0.97306
0.971929
0.971106
0.970514
0.970079
0.96974
0.969445
0.969161
0.968864
0.968545
0.968208
0.967871
0.967564
0.96733
0.967224
0.96732
0.967705
0.968478
0.969742
0.971593
0.974112
0.977353
0.981343
0.986095
0.991606
0.997852
1.00475
1.01209
1.01952
1.02654
1.03254
1.03692
1.03928
1.03948
1.03768
1.03432
1.02996
1.02516
1.02041
1.01604
1.01224
1.00908
1.00656
1.00461
1.00315
1.00208
1.00132
1.0008
1.00045
1.00023
1.00009
1.00001
0.999969
0.99995
0.999945
0.999948
0.999953
0.999961
0.999968
0.999976
0.999982
0.999987
0.99999
0.999993
0.999995
0.999997
0.999998
0.999999
0.999999
0.999999
1
1
1
1
1
1
1
1
1
1
1
1
1
1
1
1
1
1
1
1
1
1
1
1
1
1
1
1
1
1
1
1
1
1
1
1.00001
1.00001
1.00002
1.00002
1.00003
1.00004
1.00006
1.00008
1.0001
1.00014
1.00018
1.00024
1.00033
1.00047
1.00069
1.00102
1.00154
1.00233
1.00352
1.00523
1.00764
1.0109
1.0151
1.02015
1.0257
1.03106
1.03543
1.03815
1.03889
1.03766
1.03472
1.03042
1.02515
1.01927
1.01309
1.00689
1.00089
0.995261
0.990136
0.985605
0.981718
0.97849
0.975906
0.973922
0.972472
0.971475
0.970837
0.970463
0.970261
0.970151
0.970067
0.969959
0.969793
0.969553
0.969232
0.968836
0.968378
0.967884
0.967393
0.966958
0.966648
0.966552
0.966778
0.967449
0.968688
0.970608
0.973293
0.976796
0.981141
0.986333
0.992355
0.999148
1.00656
1.01432
1.02195
1.02886
1.03442
1.03806
1.03951
1.03876
1.03615
1.03221
1.02754
1.02268
1.01806
1.01394
1.01045
1.00762
1.00541
1.00373
1.00249
1.00161
1.00099
1.00058
1.00031
1.00014
1.00004
0.999982
0.999956
0.999947
0.999948
0.999952
0.999959
0.999967
0.999974
0.99998
0.999985
0.99999
0.999992
0.999995
0.999997
0.999998
0.999998
0.999999
0.999999
1
1
1
1
1
1
1
1
1
1
1
1
1
1
1
1
1
1
1
1
1
1
1
1
1
1
1
1
1
1
1
1
1
1
1.00001
1.00001
1.00001
1.00002
1.00002
1.00003
1.00005
1.00006
1.00009
1.00011
1.00015
1.0002
1.00027
1.00038
1.00054
1.00079
1.00119
1.00181
1.00275
1.00414
1.00614
1.00893
1.01264
1.01732
1.02276
1.02841
1.03345
1.03707
1.03873
1.0383
1.03596
1.03205
1.02697
1.02111
1.01481
1.00839
1.0021
0.996141
0.990689
0.985851
0.981703
0.978279
0.975576
0.973558
0.972161
0.971296
0.970857
0.970729
0.970799
0.970961
0.971134
0.971253
0.97128
0.971192
0.970981
0.970652
0.970212
0.969669
0.969041
0.968354
0.96765
0.966988
0.96645
0.966145