/*--------------------------------*- C++ -*----------------------------------*\
  =========                 |
  \\      /  F ield         | OpenFOAM: The Open Source CFD Toolbox
   \\    /   O peration     | Website:  https://openfoam.org
    \\  /    A nd           | Version:  6
     \\/     M anipulation  |
\*---------------------------------------------------------------------------*/
FoamFile
{
    version     2.0;
    format      ascii;
    class       volScalarField;
    location    "4.25";
    object      p;
}
// * * * * * * * * * * * * * * * * * * * * * * * * * * * * * * * * * * * * * //

dimensions      [1 -1 -2 0 0 0 0];

internalField   nonuniform List<scalar> 
22500
(
1
1
1
1
1
1
1
1
1
1
1
1
1
1
1
1
1
1
1
1
1
1
1
1
1
1
1
1
1
1
1
1
1
1
1
1
1
1
1
1
1
1
1
1
1
1
1
1
1
1
1
1
1
1
1
1
1
1
1
1
1
1
1
1
1
1
1
1
1
1
1
0.999999
0.999997
0.999995
0.999992
0.999989
0.999988
0.999989
0.999992
1
1.00001
1.00003
1.00007
1.00011
1.00017
1.00024
1.00033
1.00043
1.00056
1.0007
1.00085
1.00102
1.0012
1.00138
1.00157
1.00175
1.00193
1.0021
1.00225
1.00238
1.00248
1.00256
1.00261
1.00263
1.00262
1.00258
1.00251
1.00242
1.0023
1.00217
1.00202
1.00186
1.00169
1.00152
1.00136
1.00119
1.00104
1.0009
1.00077
1.00065
1.00054
1.00045
1.00037
1.0003
1.00024
1.00019
1.00015
1.00012
1.00009
1.00007
1.00005
1.00003
1.00002
1.00002
1.00001
1.00001
1
1
0.999999
0.999999
0.999998
0.999998
0.999998
0.999998
0.999999
0.999999
0.999999
0.999999
0.999999
1
1
1
1
1
1
1
1
1
1
1
1
1
1
1
1
1
1
1
1
1
1
1
1
1
1
1
1
1
1
1
1
1
1
1
1
1
1
1
1
1
1
1
1
1
1
1
1
1
1
1
1
1
1
1
1
1
1
1
1
1
1
1
1
1
1
1
1
1
1
1
1
1
0.999998
0.999997
0.999995
0.999994
0.999995
1
1.00001
1.00002
1.00005
1.00009
1.00014
1.00021
1.00029
1.0004
1.00053
1.00069
1.00086
1.00106
1.00128
1.00151
1.00176
1.00201
1.00227
1.00252
1.00276
1.00298
1.00318
1.00335
1.00349
1.00359
1.00365
1.00367
1.00366
1.0036
1.0035
1.00337
1.00321
1.00302
1.00281
1.00259
1.00235
1.00212
1.00188
1.00166
1.00144
1.00124
1.00106
1.00089
1.00074
1.00061
1.0005
1.0004
1.00032
1.00025
1.0002
1.00015
1.00011
1.00008
1.00006
1.00004
1.00003
1.00002
1.00001
1.00001
1
1
0.999999
0.999998
0.999998
0.999997
0.999998
0.999998
0.999998
0.999998
0.999999
0.999999
0.999999
0.999999
0.999999
1
1
1
1
1
1
1
1
1
1
1
1
1
1
1
1
1
1
1
1
1
1
1
1
1
1
1
1
1
1
1
1
1
1
1
1
1
1
1
1
1
1
1
1
1
1
1
1
1
1
1
1
1
1
1
1
1
1
1
1
1
1
1
1
1.00001
1.00001
1.00001
1.00001
1.00001
1
1
1
1
1
1
1.00001
1.00002
1.00004
1.00006
1.00011
1.00017
1.00025
1.00035
1.00048
1.00064
1.00082
1.00104
1.00129
1.00157
1.00187
1.00219
1.00253
1.00287
1.00321
1.00355
1.00386
1.00416
1.00442
1.00464
1.00482
1.00495
1.00503
1.00505
1.00502
1.00494
1.00481
1.00463
1.00441
1.00415
1.00387
1.00356
1.00325
1.00292
1.0026
1.00229
1.00199
1.00171
1.00145
1.00122
1.00102
1.00083
1.00068
1.00054
1.00043
1.00034
1.00026
1.0002
1.00015
1.00011
1.00008
1.00006
1.00004
1.00002
1.00001
1.00001
1
1
0.999998
0.999997
0.999997
0.999996
0.999997
0.999997
0.999997
0.999998
0.999998
0.999999
0.999999
0.999999
0.999999
0.999999
1
1
1
1
1
1
1
1
1
1
1
1
1
1
1
1
1
1
1
1
1
1
1
1
1
1
1
1
1
1
1
1
1
1
1
1
1
1
1
1
1
1
1
1
1
1
1
1
1
1
1
1
1
1
1
1
1
1
1
1
1
1.00001
1.00001
1.00001
1.00001
1.00001
1.00001
1.00001
1.00001
1.00001
1.00001
1.00001
1.00001
1.00002
1.00003
1.00005
1.00008
1.00013
1.00019
1.00028
1.0004
1.00055
1.00074
1.00097
1.00123
1.00154
1.00188
1.00226
1.00267
1.00311
1.00356
1.00401
1.00446
1.0049
1.00531
1.00569
1.00603
1.00632
1.00655
1.00671
1.00681
1.00684
1.0068
1.00668
1.00651
1.00627
1.00598
1.00564
1.00526
1.00485
1.00443
1.00399
1.00356
1.00313
1.00273
1.00235
1.002
1.00168
1.00139
1.00114
1.00093
1.00074
1.00059
1.00046
1.00035
1.00027
1.0002
1.00015
1.00011
1.00007
1.00005
1.00003
1.00002
1.00001
1
1
0.999997
0.999996
0.999995
0.999995
0.999996
0.999996
0.999997
0.999997
0.999998
0.999998
0.999999
0.999999
0.999999
0.999999
0.999999
1
1
1
1
1
1
1
1
1
1
1
1
1
1
1
1
1
1
1
1
1
1
1
1
1
1
1
1
1
1
1
1
1
1
1
1
1
1
1
1
1
1
1
1
1
1
1
1
1
1
1
1
1
1
1
1
1
1
1
1.00001
1.00001
1.00001
1.00001
1.00001
1.00001
1.00001
1.00001
1.00001
1.00001
1.00001
1.00002
1.00002
1.00004
1.00006
1.00009
1.00014
1.00022
1.00032
1.00045
1.00063
1.00084
1.00111
1.00142
1.00179
1.00221
1.00268
1.00319
1.00374
1.00431
1.0049
1.0055
1.00609
1.00665
1.00718
1.00766
1.00809
1.00845
1.00873
1.00894
1.00906
1.00909
1.00904
1.00889
1.00867
1.00836
1.00799
1.00755
1.00706
1.00653
1.00597
1.0054
1.00482
1.00426
1.00371
1.0032
1.00272
1.00229
1.0019
1.00156
1.00126
1.00101
1.0008
1.00062
1.00048
1.00036
1.00027
1.0002
1.00014
1.0001
1.00007
1.00004
1.00002
1.00001
1
0.999999
0.999996
0.999994
0.999994
0.999994
0.999994
0.999995
0.999996
0.999996
0.999997
0.999998
0.999998
0.999999
0.999999
0.999999
0.999999
1
1
1
1
1
1
1
1
1
1
1
1
1
1
1
1
1
1
1
1
1
1
1
1
1
1
1
1
1
1
1
1
1
1
1
1
1
1
1
1
1
1
1
1
1
1
1
1
1
1
1
1
1
1
1
1
1
1
1.00001
1.00001
1.00001
1.00001
1.00001
1.00001
1.00001
1.00002
1.00002
1.00002
1.00002
1.00002
1.00003
1.00005
1.00007
1.00011
1.00016
1.00024
1.00035
1.0005
1.00069
1.00094
1.00124
1.00161
1.00204
1.00255
1.00311
1.00374
1.00441
1.00513
1.00588
1.00664
1.0074
1.00814
1.00885
1.00952
1.01012
1.01064
1.01109
1.01144
1.01169
1.01183
1.01187
1.0118
1.01163
1.01135
1.01097
1.0105
1.00995
1.00933
1.00865
1.00794
1.0072
1.00645
1.00571
1.005
1.00432
1.00368
1.0031
1.00258
1.00212
1.00172
1.00137
1.00108
1.00084
1.00065
1.00049
1.00036
1.00027
1.00019
1.00013
1.00009
1.00006
1.00003
1.00002
1.00001
0.999999
0.999995
0.999993
0.999992
0.999992
0.999993
0.999993
0.999994
0.999995
0.999996
0.999997
0.999998
0.999998
0.999998
0.999999
0.999999
0.999999
1
1
1
1
1
1
1
1
1
1
1
1
1
1
1
1
1
1
1
1
1
1
1
1
1
1
1
1
1
1
1
1
1
1
1
1
1
1
1
1
1
1
0.999999
1
1
1
1
1
1
1
1
1
1
1
1
1
1.00001
1.00001
1.00001
1.00001
1.00001
1.00001
1.00002
1.00002
1.00002
1.00002
1.00003
1.00003
1.00004
1.00005
1.00008
1.00011
1.00017
1.00026
1.00037
1.00053
1.00075
1.00102
1.00136
1.00178
1.00229
1.00287
1.00354
1.00429
1.00511
1.00599
1.00691
1.00786
1.00882
1.00977
1.01069
1.01156
1.01237
1.01309
1.01373
1.01426
1.01467
1.01497
1.01514
1.01519
1.01511
1.0149
1.01456
1.01411
1.01354
1.01288
1.01212
1.01129
1.0104
1.00947
1.00852
1.00758
1.00665
1.00577
1.00494
1.00417
1.00348
1.00286
1.00232
1.00186
1.00147
1.00115
1.00088
1.00067
1.00049
1.00036
1.00026
1.00018
1.00012
1.00008
1.00005
1.00002
1.00001
1
0.999994
0.999991
0.99999
0.99999
0.999991
0.999992
0.999993
0.999994
0.999995
0.999996
0.999997
0.999998
0.999998
0.999998
0.999999
0.999999
0.999999
1
1
1
1
1
1
1
1
1
1
1
1
1
1
1
1
1
1
1
1
1
1
1
1
1
1
1
1
1
1
1
1
1
1
1
1
1
1
1
1
1
1
1
1
1
1
1
1
1
1
1
1
1
1
1
1.00001
1.00001
1.00001
1.00001
1.00002
1.00002
1.00002
1.00002
1.00003
1.00003
1.00004
1.00005
1.00006
1.00009
1.00012
1.00018
1.00027
1.00039
1.00056
1.00079
1.00109
1.00147
1.00194
1.00251
1.00318
1.00396
1.00484
1.00581
1.00686
1.00798
1.00914
1.01032
1.01149
1.01265
1.01375
1.01479
1.01574
1.01659
1.01733
1.01793
1.01841
1.01875
1.01895
1.019
1.01891
1.01867
1.01829
1.01777
1.01712
1.01634
1.01545
1.01446
1.01339
1.01226
1.01109
1.00991
1.00874
1.00762
1.00655
1.00555
1.00465
1.00384
1.00312
1.00251
1.00199
1.00155
1.00119
1.0009
1.00067
1.00049
1.00035
1.00024
1.00016
1.00011
1.00006
1.00003
1.00001
1
0.999994
0.99999
0.999988
0.999988
0.999988
0.99999
0.999991
0.999993
0.999994
0.999995
0.999996
0.999997
0.999997
0.999998
0.999999
0.999999
0.999999
0.999999
1
1
1
1
1
1
1
1
1
1
1
1
1
1
1
1
1
1
1
1
1
1
1
1
1
1
1
1
1
1
1
1
1
1
1
1
1
1
1
1
1
1
1
1
1
1
1
1
1
1
1
1
1.00001
1.00001
1.00001
1.00001
1.00001
1.00002
1.00002
1.00002
1.00003
1.00003
1.00004
1.00004
1.00005
1.00007
1.00009
1.00013
1.00019
1.00028
1.0004
1.00058
1.00082
1.00114
1.00155
1.00207
1.0027
1.00346
1.00435
1.00536
1.00649
1.00772
1.00904
1.01043
1.01185
1.01327
1.01468
1.01604
1.01732
1.01851
1.01958
1.02053
1.02135
1.02202
1.02254
1.0229
1.02312
1.02318
1.02308
1.02283
1.02242
1.02186
1.02115
1.02028
1.01928
1.01815
1.01691
1.01557
1.01418
1.01275
1.01132
1.00992
1.00857
1.00731
1.00615
1.00509
1.00416
1.00336
1.00266
1.00209
1.00161
1.00122
1.00091
1.00066
1.00048
1.00033
1.00022
1.00015
1.00009
1.00005
1.00002
1
0.999994
0.999988
0.999985
0.999985
0.999986
0.999987
0.999989
0.999991
0.999992
0.999994
0.999995
0.999996
0.999997
0.999997
0.999998
0.999999
0.999999
0.999999
0.999999
1
1
1
1
1
1
1
1
1
1
1
1
1
1
1
1
1
1
1
1
1
1
1
1
1
1
1
1
1
1
1
1
1
1
1
1
1
1
1
1
1
1
1
1
1
1
1
1
1
1
1
1.00001
1.00001
1.00001
1.00001
1.00002
1.00002
1.00003
1.00003
1.00003
1.00004
1.00005
1.00006
1.00007
1.0001
1.00013
1.00019
1.00028
1.00041
1.00059
1.00083
1.00117
1.00161
1.00216
1.00286
1.00369
1.00469
1.00583
1.00712
1.00855
1.01008
1.0117
1.01337
1.01506
1.01673
1.01834
1.01988
1.0213
1.0226
1.02376
1.02476
1.02561
1.0263
1.02683
1.02721
1.02742
1.02749
1.0274
1.02715
1.02674
1.02617
1.02544
1.02454
1.02347
1.02225
1.02088
1.01938
1.01778
1.01611
1.01441
1.01272
1.01106
1.00949
1.00803
1.00669
1.00549
1.00445
1.00355
1.00278
1.00215
1.00164
1.00122
1.0009
1.00065
1.00045
1.00031
1.0002
1.00013
1.00007
1.00004
1.00001
0.999996
0.999987
0.999983
0.999982
0.999983
0.999984
0.999986
0.999988
0.99999
0.999992
0.999994
0.999995
0.999996
0.999997
0.999998
0.999998
0.999999
0.999999
0.999999
1
1
1
1
1
1
1
1
1
1
1
1
1
1
1
1
1
1
1
1
1
1
1
1
1
1
1
1
1
1
1
1
1
1
1
1
1
1
1
1
1
1
1
1
1
1
1
1
1
1
1.00001
1.00001
1.00001
1.00001
1.00002
1.00002
1.00003
1.00003
1.00004
1.00004
1.00005
1.00006
1.00008
1.0001
1.00014
1.00019
1.00028
1.0004
1.00058
1.00083
1.00118
1.00163
1.00222
1.00296
1.00387
1.00496
1.00624
1.00769
1.0093
1.01106
1.01292
1.01485
1.0168
1.01873
1.02061
1.02238
1.02403
1.02553
1.02687
1.02803
1.02901
1.02983
1.03048
1.03098
1.03132
1.03152
1.03158
1.0315
1.03128
1.03092
1.0304
1.02971
1.02885
1.0278
1.02657
1.02515
1.02356
1.02182
1.01995
1.018
1.01602
1.01405
1.01215
1.01034
1.00867
1.00717
1.00583
1.00467
1.00369
1.00286
1.00219
1.00164
1.00121
1.00087
1.00062
1.00042
1.00028
1.00018
1.0001
1.00005
1.00002
1
0.999988
0.999981
0.999979
0.999979
0.999981
0.999983
0.999986
0.999988
0.999991
0.999993
0.999994
0.999995
0.999996
0.999997
0.999998
0.999998
0.999999
0.999999
1
1
1
1
1
1
1
1
1
1
1
1
1
1
1
1
1
1
1
1
1
1
1
1
1
1
1
1
1
1
1
1
1
1
1
1
1
1
1
1
1
1
1
1
1
1
1
1
1
1.00001
1.00001
1.00001
1.00001
1.00002
1.00002
1.00003
1.00003
1.00004
1.00005
1.00005
1.00007
1.00008
1.0001
1.00014
1.00019
1.00027
1.00039
1.00057
1.00082
1.00116
1.00163
1.00224
1.00302
1.00399
1.00517
1.00656
1.00817
1.00997
1.01194
1.01404
1.01623
1.01845
1.02064
1.02276
1.02476
1.02661
1.02827
1.02973
1.03099
1.03205
1.03292
1.03362
1.03415
1.03455
1.03482
1.03498
1.03502
1.03497
1.0348
1.03452
1.03411
1.03355
1.03283
1.03191
1.03079
1.02945
1.02788
1.0261
1.02413
1.02201
1.01979
1.01753
1.01529
1.01313
1.01109
1.00923
1.00756
1.00609
1.00483
1.00377
1.00289
1.00218
1.00162
1.00117
1.00083
1.00058
1.00039
1.00025
1.00015
1.00008
1.00004
1.00001
0.99999
0.99998
0.999976
0.999976
0.999977
0.99998
0.999983
0.999986
0.999988
0.999991
0.999993
0.999994
0.999995
0.999996
0.999998
0.999998
0.999999
0.999999
0.999999
1
1
1
1
1
1
1
1
1
1
1
1
1
1
1
1
1
1
1
1
1
1
1
1
1
1
1
1
1
1
1
1
1
1
1
1
1
1
1
1
1
1
1
1
1
1
1
1
1.00001
1.00001
1.00001
1.00002
1.00002
1.00003
1.00003
1.00004
1.00005
1.00006
1.00007
1.00008
1.00011
1.00014
1.00019
1.00026
1.00038
1.00054
1.00079
1.00113
1.00159
1.00222
1.00302
1.00404
1.00529
1.00679
1.00853
1.01051
1.0127
1.01504
1.01748
1.01996
1.02241
1.02476
1.02695
1.02895
1.03072
1.03225
1.03353
1.03458
1.03541
1.03605
1.03652
1.03686
1.03709
1.03724
1.03732
1.03734
1.03731
1.03723
1.03708
1.03684
1.0365
1.03602
1.03536
1.03449
1.03338
1.032
1.03035
1.02842
1.02626
1.0239
1.02142
1.01889
1.01638
1.01397
1.01172
1.00967
1.00785
1.00626
1.00492
1.0038
1.00288
1.00214
1.00157
1.00112
1.00078
1.00053
1.00034
1.00021
1.00012
1.00006
1.00002
0.999995
0.999981
0.999974
0.999973
0.999974
0.999976
0.999979
0.999983
0.999986
0.999989
0.999992
0.999992
0.999994
0.999996
0.999997
0.999998
0.999998
0.999999
0.999999
1
1
1
1
1
1
1
1
1
1
1
1
1
1
1
1
1
1
1
1
1
1
1
1
1
1
1
1
1
1
1
1
1
1
1
1
1
1
1
1
1
1
1
1
1
1
1
1.00001
1.00001
1.00001
1.00001
1.00002
1.00002
1.00003
1.00004
1.00005
1.00006
1.00007
1.00008
1.00011
1.00014
1.00018
1.00025
1.00036
1.00052
1.00075
1.00108
1.00153
1.00215
1.00297
1.00402
1.00532
1.00691
1.00878
1.01092
1.0133
1.01587
1.01857
1.0213
1.02398
1.02654
1.0289
1.03102
1.03284
1.03436
1.03558
1.03651
1.0372
1.03766
1.03795
1.03811
1.03817
1.03818
1.03815
1.03813
1.03811
1.03811
1.03812
1.03814
1.03814
1.03809
1.03795
1.03767
1.0372
1.0365
1.0355
1.03417
1.03249
1.03047
1.02814
1.02558
1.02285
1.02005
1.01729
1.01465
1.0122
1.00998
1.00802
1.00634
1.00492
1.00376
1.00282
1.00207
1.00149
1.00105
1.00072
1.00047
1.0003
1.00018
1.00009
1.00004
1
0.999983
0.999973
0.99997
0.99997
0.999972
0.999976
0.99998
0.999983
0.999987
0.99999
0.999991
0.999993
0.999995
0.999996
0.999997
0.999998
0.999999
0.999999
0.999999
1
1
1
1
1
1
1
1
1
1
1
1
1
1
1
1
1
1
1
1
1
1
1
1
1
1
1
1
1
1
1
1
1
1
1
1
1
1
1
1
1
1
1
1
1
1
1.00001
1.00001
1.00001
1.00002
1.00002
1.00003
1.00004
1.00005
1.00006
1.00007
1.00009
1.00011
1.00013
1.00018
1.00024
1.00034
1.00048
1.0007
1.00101
1.00145
1.00206
1.00287
1.00392
1.00526
1.00691
1.00888
1.01117
1.01373
1.01652
1.01946
1.02243
1.02534
1.02809
1.03059
1.03277
1.03459
1.03603
1.0371
1.03784
1.03826
1.03845
1.03843
1.03828
1.03804
1.03777
1.03751
1.03728
1.03713
1.03706
1.03708
1.0372
1.0374
1.03766
1.03795
1.03822
1.03842
1.03848
1.03833
1.0379
1.03711
1.03591
1.03428
1.03221
1.02976
1.027
1.02404
1.021
1.018
1.01514
1.0125
1.01014
1.00807
1.00632
1.00485
1.00366
1.00271
1.00196
1.00139
1.00096
1.00064
1.00041
1.00025
1.00014
1.00006
1.00002
0.999989
0.999974
0.999967
0.999966
0.999968
0.999972
0.999976
0.99998
0.999984
0.999988
0.999989
0.999992
0.999994
0.999996
0.999997
0.999998
0.999998
0.999999
0.999999
1
1
1
1
1
1
1
1
1
1
1
1
1
1
1
1
1
1
1
1
1
1
1
1
1
1
1
1
1
1
1
1
1
1
1
1
1
1
1
1
1
1
1
1
1
1.00001
1.00001
1.00001
1.00002
1.00002
1.00003
1.00003
1.00004
1.00006
1.00007
1.00008
1.0001
1.00013
1.00017
1.00022
1.00031
1.00044
1.00064
1.00093
1.00135
1.00193
1.00272
1.00377
1.00511
1.0068
1.00884
1.01125
1.01398
1.01697
1.02013
1.02333
1.02646
1.02938
1.03199
1.03421
1.03597
1.03728
1.03813
1.03858
1.03866
1.03846
1.03804
1.03747
1.03683
1.03616
1.03554
1.03499
1.03455
1.03426
1.03413
1.03417
1.03439
1.03476
1.03528
1.03592
1.03662
1.03734
1.038
1.03851
1.03879
1.03874
1.03825
1.03725
1.03571
1.03363
1.03108
1.02814
1.02497
1.0217
1.01848
1.01543
1.01264
1.01015
1.00801
1.0062
1.00471
1.00351
1.00256
1.00183
1.00127
1.00086
1.00056
1.00035
1.0002
1.0001
1.00004
0.999999
0.999977
0.999966
0.999963
0.999964
0.999967
0.999972
0.999977
0.999981
0.999985
0.999987
0.99999
0.999992
0.999995
0.999996
0.999997
0.999998
0.999999
0.999999
1
1
1
1
1
1
1
1
1
1
1
1
1
1
1
1
1
1
1
1
1
1
1
1
1
1
1
1
1
1
1
1
1
1
1
1
1
1
1
1
1
1
1
1
1
1.00001
1.00001
1.00001
1.00002
1.00002
1.00003
1.00004
1.00005
1.00007
1.00008
1.0001
1.00012
1.00016
1.00021
1.00029
1.00041
1.00058
1.00085
1.00123
1.00178
1.00253
1.00355
1.00488
1.00658
1.00866
1.01115
1.01402
1.01719
1.02056
1.02399
1.02732
1.03041
1.03311
1.03534
1.03702
1.03814
1.03872
1.03881
1.03849
1.03784
1.03694
1.03588
1.03475
1.03361
1.03253
1.03156
1.03075
1.03011
1.0297
1.02951
1.02956
1.02985
1.03038
1.03112
1.03207
1.03317
1.03439
1.03564
1.03685
1.03792
1.03871
1.0391
1.03897
1.03823
1.03681
1.03474
1.03209
1.02899
1.02561
1.02214
1.01872
1.01551
1.01258
1.01001
1.00782
1.00598
1.00449
1.0033
1.00238
1.00167
1.00114
1.00076
1.00048
1.00029
1.00015
1.00007
1.00001
0.999983
0.999967
0.999961
0.99996
0.999963
0.999968
0.999973
0.999978
0.999983
0.999984
0.999988
0.999991
0.999994
0.999995
0.999997
0.999998
0.999998
0.999999
0.999999
1
1
1
1
1
1
1
1
1
1
1
1
1
1
1
1
1
1
1
1
1
1
1
1
1
1
1
1
1
1
1
1
1
1
1
1
1
1
1
1
1
1
1
1.00001
1.00001
1.00001
1.00002
1.00002
1.00003
1.00004
1.00005
1.00006
1.00008
1.0001
1.00012
1.00015
1.0002
1.00027
1.00037
1.00053
1.00076
1.00111
1.00161
1.00232
1.00329
1.00458
1.00625
1.00835
1.01089
1.01385
1.01717
1.02073
1.02438
1.02792
1.03117
1.03397
1.03619
1.03777
1.03868
1.03896
1.03866
1.03789
1.03675
1.03533
1.03374
1.03208
1.03043
1.02885
1.02741
1.02615
1.02511
1.02431
1.02379
1.02354
1.02359
1.02394
1.02458
1.0255
1.0267
1.02813
1.02977
1.03155
1.03339
1.03521
1.03687
1.03823
1.03912
1.03938
1.0389
1.03761
1.03555
1.0328
1.02954
1.02597
1.0223
1.01871
1.01537
1.01235
1.00973
1.00751
1.00569
1.00422
1.00306
1.00217
1.0015
1.00101
1.00065
1.0004
1.00022
1.00011
1.00004
0.999994
0.999971
0.99996
0.999957
0.999959
0.999964
0.999969
0.999975
0.99998
0.999982
0.999986
0.99999
0.999992
0.999995
0.999996
0.999997
0.999998
0.999999
0.999999
0.999999
1
1
1
1
1
1
1
1
1
1
1
1
1
1
1
1
1
1
1
1
1
1
1
1
1
1
1
1
1
1
1
1
1
1
1
1
1
1
1
1
1
1.00001
1.00001
1.00001
1.00001
1.00002
1.00003
1.00003
1.00004
1.00006
1.00007
1.00009
1.00011
1.00014
1.00018
1.00024
1.00033
1.00047
1.00068
1.00098
1.00144
1.00209
1.003
1.00422
1.00584
1.0079
1.01045
1.01347
1.01691
1.02065
1.0245
1.02824
1.03167
1.03457
1.0368
1.03828
1.03898
1.03894
1.03825
1.03702
1.03537
1.03342
1.0313
1.0291
1.02693
1.02485
1.02292
1.0212
1.01972
1.01851
1.0176
1.01699
1.01671
1.01675
1.01712
1.01783
1.01887
1.02024
1.02191
1.02385
1.02604
1.0284
1.03086
1.03331
1.03559
1.03753
1.03892
1.03957
1.03934
1.03816
1.03608
1.03322
1.02979
1.02603
1.02218
1.01846
1.01502
1.01195
1.00931
1.00711
1.00532
1.00389
1.00278
1.00194
1.00132
1.00086
1.00054
1.00032
1.00017
1.00007
1.00001
0.999978
0.999961
0.999955
0.999955
0.999959
0.999965
0.999971
0.999977
0.999979
0.999984
0.999988
0.999991
0.999994
0.999995
0.999997
0.999998
0.999999
0.999999
0.999999
1
1
1
1
1
1
1
1
1
1
1
1
1
1
1
1
1
1
1
1
1
1
1
1
1
1
1
1
1
1
1
1
1
1
1
1
1
1
1
1
1
1.00001
1.00001
1.00001
1.00002
1.00002
1.00003
1.00004
1.00005
1.00007
1.00008
1.0001
1.00013
1.00017
1.00022
1.0003
1.00041
1.00059
1.00086
1.00127
1.00185
1.00268
1.00382
1.00536
1.00736
1.00987
1.0129
1.01642
1.02029
1.02433
1.02829
1.03191
1.03494
1.0372
1.0386
1.03911
1.03878
1.0377
1.03602
1.03388
1.03141
1.02877
1.02605
1.02337
1.02081
1.01841
1.01625
1.01435
1.01273
1.01142
1.01044
1.00978
1.00947
1.0095
1.00988
1.01062
1.01172
1.01317
1.01497
1.01711
1.01957
1.02229
1.02524
1.02831
1.03138
1.03427
1.03677
1.03863
1.03963
1.0396
1.03849
1.03634
1.03334
1.02973
1.02579
1.02179
1.01797
1.01447
1.01139
1.00878
1.00662
1.00489
1.00353
1.00249
1.00171
1.00113
1.00072
1.00044
1.00024
1.00012
1.00004
0.99999
0.999965
0.999954
0.999952
0.999955
0.999961
0.999967
0.999973
0.999976
0.999981
0.999986
0.99999
0.999992
0.999995
0.999996
0.999997
0.999998
0.999999
0.999999
1
1
1
1
1
1
1
1
1
1
1
1
1
1
1
1
1
1
1
1
1
1
1
1
1
1
1
1
1
1
1
1
1
1
1
1
1
1
1
1
1
1.00001
1.00001
1.00001
1.00002
1.00003
1.00004
1.00005
1.00006
1.00008
1.0001
1.00012
1.00015
1.0002
1.00027
1.00037
1.00052
1.00075
1.0011
1.00161
1.00236
1.0034
1.00483
1.00672
1.00915
1.01215
1.0157
1.01967
1.02388
1.02805
1.03188
1.03507
1.03742
1.03878
1.03914
1.03855
1.03713
1.03503
1.03242
1.02947
1.02633
1.02314
1.01998
1.01696
1.01414
1.01156
1.00927
1.00728
1.0056
1.00425
1.00324
1.00257
1.00224
1.00226
1.00263
1.00336
1.00446
1.00594
1.00779
1.01001
1.0126
1.01553
1.01878
1.02227
1.02593
1.0296
1.03308
1.0361
1.03838
1.03965
1.03975
1.03862
1.03636
1.03317
1.02937
1.02526
1.02115
1.01726
1.01375
1.0107
1.00815
1.00607
1.00442
1.00314
1.00218
1.00147
1.00095
1.00059
1.00034
1.00018
1.00007
1.00001
0.999972
0.999956
0.99995
0.999952
0.999957
0.999963
0.99997
0.999973
0.999979
0.999984
0.999988
0.999991
0.999994
0.999996
0.999997
0.999998
0.999999
0.999999
0.999999
1
1
1
1
1
1
1
1
1
1
1
1
1
1
1
1
1
1
1
1
1
1
1
1
1
1
1
1
1
1
1
1
1
1
1
1
1
1
1
1.00001
1.00001
1.00001
1.00002
1.00002
1.00003
1.00004
1.00005
1.00007
1.00009
1.00011
1.00014
1.00018
1.00024
1.00032
1.00045
1.00064
1.00094
1.00139
1.00204
1.00297
1.00427
1.00603
1.00834
1.01125
1.01476
1.01879
1.02314
1.02752
1.03158
1.03498
1.03747
1.03886
1.03913
1.03834
1.03662
1.03415
1.03113
1.02773
1.02414
1.0205
1.01691
1.01348
1.01026
1.00731
1.00467
1.00234
1.00034
0.99867
0.997336
0.996335
0.995665
0.995329
0.995329
0.995674
0.99637
0.997431
0.99887
1.0007
1.00291
1.00553
1.00854
1.01192
1.01566
1.01969
1.02391
1.02814
1.03215
1.03562
1.03823
1.03969
1.03981
1.03857
1.03612
1.03271
1.02871
1.02445
1.02025
1.01635
1.01287
1.0099
1.00745
1.00547
1.00393
1.00275
1.00187
1.00123
1.00078
1.00046
1.00025
1.00012
1.00003
0.999984
0.99996
0.99995
0.999949
0.999953
0.999959
0.999966
0.99997
0.999976
0.999982
0.999986
0.99999
0.999993
0.999995
0.999996
0.999998
0.999998
0.999999
0.999999
1
1
1
1
1
1
1
1
1
1
1
1
1
1
1
1
1
1
1
1
1
1
1
1
1
1
1
1
1
1
1
1
1
1
1
1
1
1
1
1.00001
1.00001
1.00001
1.00002
1.00003
1.00003
1.00005
1.00006
1.00008
1.0001
1.00013
1.00016
1.00021
1.00028
1.00039
1.00055
1.0008
1.00118
1.00174
1.00256
1.00372
1.00532
1.00746
1.01023
1.01365
1.01767
1.02212
1.02669
1.031
1.03466
1.03735
1.03885
1.03911
1.03819
1.03624
1.03347
1.03008
1.02629
1.02229
1.01824
1.01426
1.01044
1.00687
1.00359
1.00063
0.99801
0.995731
0.993793
0.992187
0.990907
0.989945
0.989296
0.988959
0.988935
0.989235
0.989869
0.990853
0.992206
0.993947
0.996091
0.998649
1.00163
1.00503
1.00885
1.01306
1.01759
1.02234
1.0271
1.03157
1.03541
1.03824
1.03975
1.03977
1.03833
1.03562
1.03196
1.02776
1.02338
1.01915
1.01527
1.01188
1.00902
1.00669
1.00485
1.00343
1.00236
1.00157
1.00101
1.00062
1.00035
1.00018
1.00007
1
0.999967
0.999951
0.999947
0.999949
0.999955
0.999962
0.999966
0.999973
0.999979
0.999985
0.999989
0.999992
0.999994
0.999996
0.999997
0.999998
0.999999
0.999999
0.999999
1
1
1
1
1
1
1
1
1
1
1
1
1
1
1
1
1
1
1
1
1
1
1
1
1
1
1
1
1
1
1
1
1
1
1
1
1
1
1.00001
1.00001
1.00002
1.00002
1.00003
1.00004
1.00005
1.00007
1.00009
1.00011
1.00014
1.00019
1.00025
1.00033
1.00047
1.00067
1.00099
1.00146
1.00216
1.00318
1.0046
1.00655
1.00913
1.01239
1.01633
1.02081
1.02554
1.03012
1.03408
1.03705
1.03875
1.0391
1.03815
1.03605
1.03304
1.02935
1.02522
1.02085
1.01643
1.01208
1.00792
1.00402
1.00044
0.997201
0.994326
0.991811
0.98965
0.987829
0.986329
0.985135
0.984234
0.983617
0.98328
0.983224
0.983461
0.984005
0.984877
0.9861
0.987703
0.989711
0.992145
0.99502
0.998347
1.00213
1.00637
1.01104
1.01607
1.02131
1.02654
1.0314
1.03549
1.0384
1.03982
1.03962
1.03787
1.03484
1.03092
1.02654
1.02208
1.01786
1.01406
1.01079
1.00809
1.00592
1.00422
1.00294
1.00198
1.00129
1.00081
1.00048
1.00025
1.00011
1.00003
0.999979
0.999955
0.999947
0.999947
0.999952
0.999959
0.999963
0.999971
0.999977
0.999983
0.999987
0.999991
0.999993
0.999995
0.999997
0.999998
0.999998
0.999999
0.999999
1
1
1
1
1
1
1
1
1
1
1
1
1
1
1
1
1
1
1
1
1
1
1
1
1
1
1
1
1
1
1
1
1
1
1
1
1
1.00001
1.00001
1.00001
1.00002
1.00002
1.00003
1.00004
1.00006
1.00008
1.0001
1.00013
1.00016
1.00022
1.00029
1.0004
1.00056
1.00082
1.00121
1.0018
1.00267
1.00391
1.00565
1.00799
1.01104
1.01483
1.01926
1.0241
1.02891
1.03322
1.03654
1.03855
1.03909
1.03821
1.03606
1.03289
1.02897
1.02455
1.01986
1.01509
1.01041
1.00592
1.00172
0.997856
0.99437
0.991273
0.988562
0.986225
0.98424
0.982583
0.981227
0.980147
0.979325
0.978748
0.978411
0.978314
0.978469
0.978895
0.979617
0.980667
0.98208
0.983892
0.986137
0.988839
0.992018
0.995684
0.999848
1.00451
1.00964
1.01515
1.02087
1.02651
1.03166
1.03586
1.0387
1.03987
1.03931
1.03716
1.03378
1.02959
1.02506
1.02058
1.01642
1.01275
1.00965
1.00713
1.00514
1.00361
1.00247
1.00163
1.00104
1.00063
1.00035
1.00017
1.00006
0.999996
0.999962
0.999948
0.999945
0.999949
0.999956
0.99996
0.999968
0.999975
0.999981
0.999986
0.99999
0.999992
0.999995
0.999996
0.999998
0.999998
0.999999
1
0.999999
1
1
1
1
1
1
1
1
1
1
1
1
1
1
1
1
1
1
1
1
1
1
1
1
1
1
1
1
1
1
1
1
1
1
1
1
1.00001
1.00001
1.00001
1.00002
1.00003
1.00004
1.00005
1.00007
1.00009
1.00011
1.00014
1.00019
1.00025
1.00033
1.00047
1.00067
1.00099
1.00148
1.00221
1.00327
1.00478
1.00687
1.00965
1.0132
1.01751
1.02236
1.02738
1.03204
1.03578
1.03819
1.03905
1.03836
1.03627
1.03304
1.02896
1.0243
1.01933
1.01426
1.00926
1.00446
0.999964
0.995836
0.992114
0.988817
0.985941
0.983467
0.98137
0.979615
0.978166
0.976988
0.976049
0.975324
0.974797
0.974458
0.974312
0.974368
0.974649
0.975186
0.976016
0.977185
0.978739
0.980725
0.983183
0.986142
0.989619
0.993631
0.998186
1.00328
1.00888
1.01487
1.02102
1.02699
1.0323
1.03647
1.03905
1.03983
1.03878
1.03617
1.03241
1.02799
1.02336
1.01891
1.01487
1.01139
1.0085
1.00618
1.00439
1.00303
1.00203
1.00131
1.00081
1.00047
1.00024
1.0001
1.00002
0.999974
0.999952
0.999945
0.999946
0.999952
0.999957
0.999965
0.999972
0.999979
0.999984
0.999988
0.999992
0.999994
0.999996
0.999997
0.999998
0.999999
0.999999
0.999999
1
1
1
1
1
1
1
1
1
1
1
1
1
1
1
1
1
1
1
1
1
1
0.999999
1
1
1
1
1
1
1
1
1
1
1
1
1.00001
1.00001
1.00001
1.00002
1.00002
1.00003
1.00004
1.00006
1.00007
1.0001
1.00012
1.00016
1.00021
1.00028
1.00039
1.00055
1.00081
1.0012
1.0018
1.00269
1.00397
1.00579
1.00827
1.01153
1.0156
1.02037
1.02552
1.0305
1.03471
1.03763
1.03893
1.03856
1.03665
1.03346
1.02931
1.02449
1.01928
1.01393
1.00863
1.00353
0.998746
0.994355
0.990404
0.986916
0.983891
0.981311
0.979143
0.977345
0.975871
0.974673
0.973709
0.972938
0.972331
0.971864
0.971529
0.971327
0.971271
0.971384
0.971701
0.972267
0.973137
0.974368
0.976021
0.978153
0.980809
0.98402
0.987806
0.992179
0.997147
1.0027
1.00878
1.01523
1.02177
1.02796
1.03328
1.03723
1.03939
1.0396
1.03798
1.03487
1.03075
1.02614
1.02148
1.01712
1.01327
1.01001
1.00735
1.00527
1.00367
1.00249
1.00163
1.00102
1.00061
1.00033
1.00016
1.00005
0.999989
0.999959
0.999947
0.999945
0.99995
0.999954
0.999962
0.99997
0.999977
0.999982
0.999987
0.999991
0.999993
0.999995
0.999997
0.999998
0.999998
0.999999
0.999999
1
1
1
1
1
1
1
1
1
1
1
1
1
1
1
1
1
1
1
1
1
1
1
1
1
1
1
1
1
1
1
1
1
1
1
1.00001
1.00001
1.00001
1.00002
1.00002
1.00003
1.00005
1.00006
1.00008
1.00011
1.00014
1.00018
1.00024
1.00032
1.00045
1.00065
1.00097
1.00145
1.00217
1.00324
1.00479
1.00695
1.00986
1.01362
1.01819
1.02335
1.0286
1.03328
1.03678
1.03866
1.03875
1.03716
1.03413
1.03
1.02508
1.0197
1.01411
1.00852
1.00313
0.998053
0.993391
0.989205
0.985527
0.982359
0.979687
0.977477
0.975679
0.974238
0.973095
0.972193
0.971477
0.970901
0.97043
0.970039
0.969714
0.969456
0.969279
0.969209
0.969281
0.969546
0.970065
0.97091
0.972154
0.973872
0.976132
0.978982
0.982454
0.986566
0.991328
0.996742
1.00278
1.00935
1.01623
1.02307
1.02935
1.0345
1.03803
1.03958
1.03912
1.03685
1.03324
1.02881
1.02407
1.01946
1.01527
1.01165
1.00865
1.00625
1.00441
1.00302
1.002
1.00128
1.00078
1.00044
1.00022
1.00009
1.00001
0.999969
0.99995
0.999945
0.999948
0.999952
0.99996
0.999967
0.999975
0.999981
0.999986
0.99999
0.999993
0.999995
0.999996
0.999998
0.999998
0.999999
0.999999
1
1
1
1
1
1
1
1
1
1
1
1
1
1
1
1
1
1
1
1
1
1
1
1
1
1
1
1
1
1
1
1
1
1
1
1.00001
1.00001
1.00001
1.00002
1.00003
1.00004
1.00005
1.00007
1.00009
1.00012
1.00015
1.0002
1.00027
1.00037
1.00053
1.00077
1.00115
1.00173
1.00261
1.00389
1.00572
1.00826
1.01164
1.0159
1.02093
1.02632
1.03145
1.03557
1.03813
1.03884
1.03771
1.03499
1.03099
1.02607
1.02057
1.01477
1.00893
1.00324
0.997871
0.992928
0.988491
0.984607
0.98129
0.978528
0.976286
0.974515
0.973151
0.972122
0.971357
0.970787
0.970349
0.969989
0.969669
0.969364
0.969057
0.968748
0.968451
0.968191
0.968006
0.967949
0.968084
0.96849
0.969257
0.970478
0.972242
0.974625
0.977679
0.981433
0.985901
0.99109
0.996987
1.00354
1.01059
1.01785
1.02486
1.03105
1.03583
1.03873
1.03952
1.03828
1.03536
1.03128
1.02661
1.02185
1.01737
1.0134
1.01005
1.00734
1.00522
1.00361
1.00242
1.00157
1.00097
1.00057
1.0003
1.00014
1.00004
0.999983
0.999956
0.999946
0.999947
0.999951
0.999958
0.999965
0.999973
0.999979
0.999985
0.999989
0.999992
0.999994
0.999996
0.999997
0.999998
0.999999
0.999999
0.999999
1
1
1
1
1
1
1
1
1
1
1
1
1
1
1
1
1
1
1
1
1
1
1
1
1
1
1
1
1
1
1
1
1
1
1.00001
1.00001
1.00001
1.00002
1.00003
1.00004
1.00005
1.00007
1.0001
1.00013
1.00017
1.00022
1.0003
1.00042
1.00061
1.00091
1.00136
1.00206
1.00311
1.00463
1.00679
1.00974
1.0136
1.01835
1.02373
1.02918
1.03392
1.03725
1.03871
1.03822
1.03595
1.03222
1.0274
1.02186
1.01591
1.00984
1.00387
0.998196
0.992953
0.988243
0.98413
0.980639
0.977769
0.975491
0.973755
0.972489
0.971615
0.971043
0.970687
0.970469
0.970319
0.97018
0.970012
0.969792
0.969506
0.969153
0.968746
0.968307
0.967875
0.967498
0.967242
0.967187
0.967432
0.96809
0.969271
0.971082
0.973602
0.976886
0.980957
0.985826
0.991487
0.997907
1.00498
1.01248
1.02002
1.02705
1.03294
1.03712
1.0392
1.0391
1.03704
1.03349
1.02902
1.02422
1.01952
1.01524
1.01156
1.00853
1.00613
1.00428
1.0029
1.0019
1.0012
1.00072
1.0004
1.0002
1.00007
1
0.999965
0.99995
0.999947
0.99995
0.999956
0.999963
0.999971
0.999978
0.999983
0.999988
0.999991
0.999994
0.999996
0.999997
0.999998
0.999999
0.999999
1
1
1
1
1
1
1
1
1
1
1
1
1
1
1
1
1
1
1
1
1
1
1
1
1
1
1
1
1
1
1
1
1
1
1
1.00001
1.00001
1.00002
1.00002
1.00003
1.00005
1.00006
1.00008
1.00011
1.00014
1.00018
1.00025
1.00034
1.00049
1.00071
1.00106
1.00161
1.00244
1.00367
1.00546
1.00798
1.01137
1.01571
1.0209
1.0265
1.03178
1.0359
1.03825
1.03856
1.03691
1.0336
1.02901
1.02352
1.01749
1.01123
1.005
0.999024
0.993466
0.988453
0.984074
0.980373
0.977362
0.975023
0.973306
0.97214
0.971434
0.971087
0.970992
0.971049
0.971169
0.971282
0.971336
0.971294
0.971139
0.970865
0.970476
0.969981
0.969398
0.968755
0.968096
0.96748
0.966983
0.966706
0.966771
0.967312
0.968465
0.970346
0.973041
0.976598
0.98104
0.986365
0.99255
0.999524
1.00711
1.01499
1.02265
1.02948
1.03484
1.03819
1.03929
1.03822
1.03535
1.03125
1.02652
1.02169
1.01715
1.01316
1.0098
1.00711
1.00501
1.00343
1.00228
1.00146
1.00089
1.00051
1.00027
1.00011
1.00002
0.999977
0.999955
0.999948
0.99995
0.999955
0.999962
0.999969
0.999976
0.999982
0.999987
0.99999
0.999993
0.999995
0.999997
0.999998
0.999999
0.999999
0.999999
1
1
1
1
1
1
1
1
1
1
1
1
1
1
1
1
1
1
1
1
1
1
1
1
1
1
1
1
1
1
1
1
1
1.00001
1.00001
1.00001
1.00002
1.00003
1.00003
1.00005
1.00006
1.00009
1.00011
1.00015
1.0002
1.00027
1.00038
1.00055
1.00082
1.00124
1.00188
1.00286
1.00431
1.0064
1.00929
1.01314
1.01796
1.02349
1.02913
1.03401
1.03732
1.03859
1.03775
1.03504