/*--------------------------------*- C++ -*----------------------------------*\
  =========                 |
  \\      /  F ield         | OpenFOAM: The Open Source CFD Toolbox
   \\    /   O peration     | Website:  https://openfoam.org
    \\  /    A nd           | Version:  6
     \\/     M anipulation  |
\*---------------------------------------------------------------------------*/
FoamFile
{
    version     2.0;
    format      ascii;
    class       volScalarField;
    location    "2.18";
    object      p;
}
// * * * * * * * * * * * * * * * * * * * * * * * * * * * * * * * * * * * * * //

dimensions      [1 -1 -2 0 0 0 0];

internalField   nonuniform List<scalar> 
5625
(
1
1
1
1
1
1
1
0.999999
1
1
1
1
1
1
1
1
1
1
1
1
1
1
1
1
1
1
1
1
1
1
1
1
1
1
1
1
1
1
1
1
1
1
1
1
1
1
1
1
1
1
1
1
1
1
1
1
1
1
1
1
1
1
1
1
1
1
1
1
1
1
1
1
1
1
1
1
1
1
0.999999
0.999999
0.999999
1
0.999999
1
0.999999
1
1
1
1
1
1
1
1
1
1
1
1
1
1
1
1
1
1
1
1
1
1
1
1
1
1
1
1
1
1
1
1
1
1
1
1
1
1
1
1
1
1
1
1
1
1
1
1
1
1
1
1
1
1
1
1
1
1
1
1
1
1
1
1
1
0.999999
0.999999
0.999999
0.999999
0.999999
0.999999
0.999999
0.999999
0.999999
0.999999
0.999999
1
1
1
1
1
1
1
1
1
1
1
1
1
1
1
1
1
1
1
1
1
1
1
1
1
1
1
1
1
1
1
1
1
1
1
1
1
1
1
1
1
1
1
1
1
1
1
1
1
1
1
1
1
1
1
1
1
1
1
1
1
1
1
1
0.999999
0.999999
0.999999
0.999999
0.999999
0.999999
0.999999
0.999999
0.999999
0.999999
0.999999
0.999999
1
1
1
1
1
1
1
1
1
1
1
1
1
1
1
1
1
1
1
1
1
1
1
1
1
1
1
1
1
1
1
1
1
1
1
1
1
1
1
1
1
1
1
1
1
1
1
1
1
1
1
1
1
1
1
1
1
1
1
1
1
1
1
0.999999
0.999999
0.999999
0.999999
0.999999
0.999999
0.999999
0.999999
0.999999
0.999999
0.999999
0.999999
0.999999
1
1
1
1
1
1
1
1
1
1
1
1
1
1
1
1
1
1
1
1
1
1
1
1
1
1
1
1
1
1
1
1
1
1
1
1
1
1
1
1
1
1
1
1
1
1
1
1
1
1
1
1
1
1
1
1
1
1
1
1
1
1
0.999998
0.999998
0.999998
0.999998
0.999998
0.999998
0.999998
0.999998
0.999998
0.999998
0.999998
0.999999
0.999999
1
1
1
1
1
1
1
1
1
1
1
1
1
1
1
1
1
1
1
1
1
1
1
1
1
1
1
1
1
1
1
1
1
1
1
1
1
1
1
1
1
1
1
1
1
1
1
1
1
1
1
1
1
1
1
1
1
1
1
1
1
1
0.999998
0.999998
0.999997
0.999997
0.999997
0.999997
0.999997
0.999997
0.999997
0.999998
0.999998
0.999998
0.999999
1
1
1
1
1
1
1
1
1
1
1
1
1
1
1
1
1
1
1
1
1
1
1
1
1
1
1
1
1
1
1
1
1
1
1
1
1
1
1
1
1
1
1
1
1
1
1
1
1
1
1
1
1
1
1
1
1
1
1
1
1
1
0.999997
0.999996
0.999996
0.999996
0.999996
0.999996
0.999996
0.999996
0.999996
0.999997
0.999997
0.999998
0.999998
0.999999
1
1
1
1
1
1
1
1
1
1
1
1
1
1
1
1
1
1
1
1
1
1
1
1
1
1
1
1
1
1
1
1
1
1
1
1
1
1
1
1
1
1
1
1
1
1
1
1
1
1
1
1
1
1
1
1
1
1
1
1
1
0.999996
0.999995
0.999995
0.999994
0.999994
0.999994
0.999994
0.999994
0.999995
0.999995
0.999996
0.999997
0.999998
0.999999
1
1
1
1
1
1.00001
1.00001
1.00001
1.00001
1.00001
1.00001
1.00001
1.00001
1
1
1
1
1
1
1
1
1
1
1
1
1
1
1
1
1
1
1
1
1
1
1
1
1
1
1
1
1
1
1
1
1
1
1
1
1
1
1
1
1
1
1
1
1
1
1
1
0.999994
0.999994
0.999993
0.999992
0.999992
0.999992
0.999992
0.999992
0.999993
0.999994
0.999995
0.999996
0.999997
0.999999
1
1
1
1
1.00001
1.00001
1.00001
1.00001
1.00001
1.00001
1.00001
1.00001
1.00001
1.00001
1.00001
1
1
1
1
1
1
1
1
1
1
1
1
1
1
1
1
1
1
1
1
1
1
1
1
1
1
1
1
1
1
1
1
1
1
1
1
1
1
1
1
1
1
1
1
1
1
0.999992
0.999991
0.99999
0.99999
0.999989
0.999989
0.999989
0.99999
0.99999
0.999991
0.999993
0.999995
0.999997
0.999999
1
1
1
1.00001
1.00001
1.00001
1.00001
1.00001
1.00001
1.00001
1.00001
1.00001
1.00001
1.00001
1.00001
1.00001
1.00001
1
1
1
1
1
1
1
1
1
1
1
1
1
1
1
1
1
1
1
1
1
1
1
1
1
1
1
1
1
1
1
1
1
1
1
1
1
1
1
1
1
1
1
1
0.99999
0.999988
0.999987
0.999986
0.999986
0.999985
0.999986
0.999987
0.999987
0.999989
0.999991
0.999993
0.999996
0.999999
1
1
1.00001
1.00001
1.00001
1.00001
1.00001
1.00002
1.00002
1.00002
1.00001
1.00001
1.00001
1.00001
1.00001
1.00001
1.00001
1.00001
1.00001
1
1
1
1
1
1
1
1
1
1
1
1
1
1
1
1
1
1
1
1
1
1
1
1
1
1
1
1
1
1
1
1
1
1
1
1
1
1
1
1
1
1
0.999987
0.999985
0.999983
0.999982
0.999981
0.999981
0.999981
0.999983
0.999984
0.999986
0.999988
0.999992
0.999995
0.999999
1
1.00001
1.00001
1.00001
1.00002
1.00002
1.00002
1.00002
1.00002
1.00002
1.00002
1.00002
1.00002
1.00002
1.00001
1.00001
1.00001
1.00001
1.00001
1.00001
1
1
1
1
1
1
1
1
1
1
1
1
1
1
1
1
1
1
1
1
1
1
1
1
1
1
1
1
1
1
1
1
1
1
1
1
1
1
1
1
1
0.999983
0.99998
0.999978
0.999977
0.999976
0.999976
0.999976
0.999977
0.99998
0.999982
0.999986
0.99999
0.999995
0.999999
1
1.00001
1.00001
1.00002
1.00002
1.00002
1.00003
1.00003
1.00003
1.00003
1.00003
1.00002
1.00002
1.00002
1.00002
1.00002
1.00001
1.00001
1.00001
1.00001
1.00001
1
1
1
1
1
1
1
1
1
1
1
1
1
1
1
1
1
1
1
1
1
1
1
1
1
1
1
1
1
1
1
1
1
1
1
1
1
1
1
1
0.999978
0.999975
0.999972
0.999971
0.99997
0.99997
0.99997
0.999972
0.999975
0.999979
0.999984
0.999989
0.999995
1
1.00001
1.00001
1.00002
1.00002
1.00003
1.00003
1.00004
1.00004
1.00004
1.00004
1.00003
1.00003
1.00003
1.00003
1.00002
1.00002
1.00002
1.00001
1.00001
1.00001
1.00001
1.00001
1
1
1
1
1
1
1
1
1
1
1
1
1
1
1
1
1
1
1
1
1
1
1
1
1
1
1
1
1
1
1
1
1
1
1
1
1
1
1
0.999971
0.999968
0.999965
0.999963
0.999962
0.999963
0.999964
0.999966
0.999971
0.999976
0.999982
0.999989
0.999997
1.00001
1.00001
1.00002
1.00003
1.00003
1.00004
1.00004
1.00005
1.00005
1.00005
1.00005
1.00005
1.00004
1.00004
1.00004
1.00003
1.00003
1.00002
1.00002
1.00002
1.00001
1.00001
1.00001
1.00001
1
1
1
1
1
1
1
1
1
1
1
1
1
1
1
1
1
1
1
1
1
1
1
1
1
1
1
1
1
1
1
1
1
1
1
1
1
1
0.999965
0.999961
0.999958
0.999956
0.999955
0.999956
0.999958
0.999962
0.999967
0.999975
0.999983
0.999992
1
1.00001
1.00002
1.00003
1.00004
1.00005
1.00006
1.00006
1.00006
1.00006
1.00006
1.00006
1.00006
1.00006
1.00005
1.00005
1.00004
1.00003
1.00003
1.00002
1.00002
1.00002
1.00001
1.00001
1.00001
1
1
1
1
1
1
1
1
1
1
1
1
1
1
1
1
1
1
1
1
1
1
1
1
1
1
1
1
1
1
1
1
1
1
1
1
1
1
0.999957
0.999953
0.99995
0.999948
0.999947
0.999949
0.999953
0.999959
0.999967
0.999977
0.999988
1
1.00001
1.00003
1.00004
1.00005
1.00006
1.00007
1.00008
1.00008
1.00009
1.00009
1.00009
1.00008
1.00008
1.00007
1.00007
1.00006
1.00005
1.00004
1.00004
1.00003
1.00002
1.00002
1.00001
1.00001
1.00001
1.00001
1
1
1
1
1
1
1
1
1
1
1
1
1
1
1
1
1
1
1
1
1
1
1
1
1
1
1
1
1
1
1
1
1
1
1
1
1
0.999949
0.999945
0.999942
0.99994
0.999941
0.999945
0.999951
0.99996
0.999971
0.999985
1
1.00002
1.00003
1.00005
1.00007
1.00008
1.00009
1.0001
1.00011
1.00012
1.00012
1.00012
1.00011
1.00011
1.0001
1.00009
1.00008
1.00008
1.00007
1.00006
1.00005
1.00004
1.00003
1.00002
1.00002
1.00001
1.00001
1.00001
1
1
1
1
1
1
1
1
1
1
1
1
1
1
1
1
1
1
1
1
1
1
1
1
1
1
1
1
1
1
1
1
1
1
1
1
1
0.999941
0.999938
0.999935
0.999936
0.999939
0.999946
0.999956
0.999969
0.999985
1
1.00002
1.00005
1.00007
1.00009
1.00011
1.00012
1.00014
1.00015
1.00016
1.00016
1.00016
1.00016
1.00015
1.00014
1.00013
1.00012
1.00011
1.0001
1.00008
1.00007
1.00006
1.00005
1.00004
1.00003
1.00002
1.00002
1.00001
1.00001
1.00001
1
1
1
1
1
0.999999
0.999999
0.999999
0.999999
1
1
1
1
1
1
1
1
1
1
1
1
1
1
1
1
1
1
1
1
1
1
1
1
1
1
1
0.999935
0.999933
0.999933
0.999936
0.999944
0.999955
0.999971
0.999991
1.00001
1.00004
1.00007
1.0001
1.00012
1.00015
1.00017
1.00019
1.00021
1.00022
1.00022
1.00023
1.00022
1.00022
1.00021
1.00019
1.00018
1.00016
1.00014
1.00012
1.00011
1.00009
1.00007
1.00006
1.00005
1.00004
1.00003
1.00002
1.00001
1.00001
1.00001
1
1
1
1
0.999999
0.999999
0.999999
0.999999
0.999999
0.999999
1
1
1
1
1
1
1
1
1
1
1
1
1
1
1
1
1
1
1
1
1
1
1
1
1
1
0.999933
0.999933
0.999937
0.999945
0.999959
0.999979
1
1.00003
1.00007
1.0001
1.00014
1.00018
1.00021
1.00025
1.00027
1.0003
1.00031
1.00032
1.00033
1.00032
1.00031
1.0003
1.00028
1.00026
1.00024
1.00021
1.00019
1.00016
1.00014
1.00012
1.00009
1.00008
1.00006
1.00005
1.00003
1.00002
1.00002
1.00001
1.00001
1
1
1
0.999999
0.999999
0.999999
0.999999
0.999999
0.999999
0.999999
0.999999
1
1
1
1
1
1
1
1
1
1
1
1
1
1
1
1
1
1
1
1
1
1
1
1
1
0.999937
0.999942
0.999953
0.99997
0.999995
1.00003
1.00006
1.00011
1.00016
1.00021
1.00026
1.00031
1.00036
1.0004
1.00043
1.00045
1.00047
1.00048
1.00047
1.00046
1.00044
1.00042
1.00039
1.00035
1.00032
1.00028
1.00025
1.00021
1.00018
1.00015
1.00012
1.0001
1.00007
1.00006
1.00004
1.00003
1.00002
1.00001
1.00001
1
1
1
0.999999
0.999998
0.999998
0.999998
0.999998
0.999999
0.999999
0.999999
0.999999
0.999999
1
1
1
1
1
1
1
1
1
1
1
1
1
1
1
1
1
1
1
1
1
1
1
0.999952
0.999965
0.999987
1.00002
1.00006
1.00011
1.00017
1.00023
1.0003
1.00037
1.00044
1.00051
1.00057
1.00062
1.00066
1.00069
1.0007
1.0007
1.00069
1.00066
1.00063
1.00059
1.00054
1.00049
1.00043
1.00038
1.00033
1.00028
1.00023
1.00019
1.00015
1.00012
1.00009
1.00007
1.00005
1.00004
1.00002
1.00001
1.00001
1
1
0.999998
0.999997
0.999997
0.999997
0.999997
0.999998
0.999998
0.999998
0.999999
0.999999
0.999999
0.999999
1
1
1
1
1
1
1
1
1
1
1
1
1
1
1
1
1
1
1
1
1
1
0.999983
1.00001
1.00005
1.0001
1.00017
1.00024
1.00033
1.00043
1.00053
1.00063
1.00072
1.00081
1.00089
1.00096
1.001
1.00103
1.00104
1.00103
1.001
1.00095
1.00089
1.00083
1.00075
1.00067
1.00059
1.00051
1.00044
1.00037
1.0003
1.00025
1.0002
1.00015
1.00012
1.00009
1.00006
1.00004
1.00003
1.00002
1.00001
1
0.999999
0.999997
0.999996
0.999995
0.999996
0.999996
0.999997
0.999997
0.999998
0.999998
0.999999
0.999999
0.999999
1
1
1
1
1
1
1
1
1
1
1
1
1
1
1
1
1
1
1
1
1
1
1.00004
1.00009
1.00016
1.00024
1.00034
1.00046
1.00058
1.00072
1.00086
1.001
1.00114
1.00126
1.00136
1.00144
1.00149
1.00152
1.00152
1.00149
1.00144
1.00136
1.00127
1.00116
1.00105
1.00093
1.00081
1.0007
1.00059
1.00049
1.0004
1.00032
1.00026
1.0002
1.00015
1.00011
1.00008
1.00005
1.00003
1.00002
1.00001
1
0.999998
0.999995
0.999994
0.999994
0.999994
0.999995
0.999995
0.999996
0.999997
0.999998
0.999998
0.999999
0.999999
0.999999
1
1
1
1
1
1
1
1
1
1
1
1
1
1
1
1
1
1
1
1
1
1.00014
1.00022
1.00032
1.00045
1.0006
1.00077
1.00096
1.00116
1.00135
1.00155
1.00173
1.00189
1.00202
1.00212
1.00219
1.00221
1.0022
1.00214
1.00206
1.00194
1.0018
1.00164
1.00147
1.00129
1.00112
1.00096
1.0008
1.00066
1.00054
1.00043
1.00034
1.00026
1.00019
1.00014
1.0001
1.00007
1.00004
1.00002
1.00001
1
0.999996
0.999993
0.999992
0.999991
0.999992
0.999993
0.999994
0.999995
0.999996
0.999997
0.999998
0.999998
0.999999
0.999999
0.999999
1
1
1
1
1
1
1
1
1
1
1
1
1
1
1
1
1
1
1
1
1.00028
1.00041
1.00057
1.00077
1.00099
1.00123
1.0015
1.00178
1.00205
1.00232
1.00256
1.00278
1.00295
1.00308
1.00315
1.00317
1.00314
1.00305
1.00291
1.00273
1.00252
1.00229
1.00204
1.0018
1.00155
1.00132
1.0011
1.0009
1.00073
1.00057
1.00045
1.00034
1.00025
1.00018
1.00012
1.00008
1.00005
1.00003
1.00001
1
0.999994
0.99999
0.999989
0.999988
0.999989
0.99999
0.999992
0.999993
0.999995
0.999996
0.999997
0.999998
0.999998
0.999999
0.999999
0.999999
1
1
1
1
1
1
1
1
1
1
1
1
1
1
1
1
1
1
1
1.00051
1.0007
1.00094
1.00122
1.00154
1.00189
1.00226
1.00264
1.00302
1.00338
1.00371
1.00399
1.00422
1.00438
1.00446
1.00447
1.00441
1.00427
1.00407
1.00382
1.00352
1.00319
1.00284
1.00248
1.00214
1.00181
1.0015
1.00123
1.00098
1.00077
1.0006
1.00045
1.00033
1.00024
1.00016
1.0001
1.00006
1.00003
1.00001
0.999999
0.999991
0.999986
0.999985
0.999985
0.999986
0.999988
0.99999
0.999992
0.999993
0.999995
0.999996
0.999997
0.999998
0.999998
0.999999
0.999999
1
1
1
1
1
1
1
1
1
1
1
1
1
1
1
1
1
1
1
1.00083
1.00112
1.00146
1.00186
1.00231
1.00279
1.0033
1.00382
1.00433
1.00481
1.00524
1.00561
1.0059
1.0061
1.00621
1.00621
1.00611
1.00591
1.00563
1.00527
1.00485
1.00439
1.0039
1.00341
1.00293
1.00247
1.00205
1.00167
1.00133
1.00104
1.0008
1.0006
1.00044
1.00031
1.00021
1.00014
1.00008
1.00004
1.00002
0.999998
0.999987
0.999982
0.99998
0.99998
0.999982
0.999984
0.999986
0.999989
0.999991
0.999993
0.999995
0.999996
0.999997
0.999998
0.999999
0.999999
0.999999
1
1
1
1
1
1
1
1
1
1
1
1
1
1
1
1
1
1
1.00128
1.00169
1.00218
1.00274
1.00335
1.00401
1.0047
1.00539
1.00606
1.00669
1.00725
1.00773
1.0081
1.00835
1.00847
1.00846
1.00832
1.00804
1.00766
1.00717
1.0066
1.00598
1.00532
1.00465
1.00399
1.00337
1.00279
1.00227
1.00181
1.00141
1.00108
1.00081
1.00059
1.00041
1.00028
1.00018
1.00011
1.00006
1.00002
0.999998
0.999984
0.999977
0.999974
0.999974
0.999976
0.999979
0.999983
0.999986
0.999989
0.999991
0.999994
0.999995
0.999997
0.999998
0.999998
0.999999
0.999999
0.999999
1
1
1
1
1
1
1
1
1
1
1
1
1
1
1
1
1
1.00191
1.00248
1.00315
1.00391
1.00474
1.00562
1.00653
1.00743
1.0083
1.00911
1.00983
1.01043
1.0109
1.0112
1.01135
1.01132
1.01112
1.01076
1.01025
1.00961
1.00886
1.00803
1.00716
1.00627
1.00539
1.00455
1.00377
1.00307
1.00244
1.00191
1.00146
1.00109
1.00079
1.00056
1.00038
1.00024
1.00015
1.00008
1.00003
1
0.999981
0.999972
0.999968
0.999968
0.999971
0.999974
0.999978
0.999982
0.999986
0.999989
0.999992
0.999994
0.999996
0.999997
0.999998
0.999998
0.999999
0.999999
1
1
1
1
1
1
1
1
1
1
1
1
1
1
1
1
1
1.00275
1.00353
1.00444
1.00545
1.00654
1.00769
1.00887
1.01002
1.01113
1.01214
1.01304
1.01378
1.01435
1.01472
1.01489
1.01485
1.0146
1.01414
1.01349
1.01267
1.01171
1.01064
1.00951
1.00835
1.00719
1.00609
1.00505
1.00411
1.00328
1.00256
1.00196
1.00146
1.00106
1.00075
1.00051
1.00033
1.0002
1.00011
1.00005
1
0.99998
0.999967
0.999962
0.999961
0.999964
0.999968
0.999973
0.999978
0.999983
0.999987
0.99999
0.999992
0.999995
0.999996
0.999997
0.999998
0.999999
0.999999
0.999999
1
1
1
1
1
1
1
1
1
1
1
1
1
1
1
1
1.00385
1.0049
1.0061
1.00742
1.00883
1.0103
1.01178
1.01322
1.01459
1.01583
1.01691
1.0178
1.01848
1.01892
1.01912
1.01906
1.01875
1.0182
1.0174
1.01639
1.01521
1.01387
1.01244
1.01096
1.00948
1.00805
1.0067
1.00547
1.00437
1.00342
1.00262
1.00196
1.00143
1.00101
1.00069
1.00045
1.00027
1.00015
1.00007
1.00001
0.99998
0.999962
0.999955
0.999954
0.999957
0.999961
0.999967
0.999973
0.999979
0.999984
0.999988
0.999991
0.999993
0.999995
0.999997
0.999998
0.999998
0.999999
0.999999
1
1
1
1
1
1
1
1
1
1
1
1
1
1
1
1
1.00528
1.00666
1.0082
1.00989
1.01167
1.0135
1.01531
1.01706
1.01868
1.02015
1.02142
1.02245
1.02323
1.02374
1.02397
1.0239
1.02354
1.0229
1.02197
1.02078
1.01936
1.01775
1.016
1.01416
1.01231
1.01049
1.00877
1.00719
1.00577
1.00453
1.00348
1.00261
1.00191
1.00135
1.00093
1.00061
1.00038
1.00021
1.0001
1.00003
0.999984
0.999959
0.999948
0.999946
0.999948
0.999954
0.999961
0.999968
0.999974
0.99998
0.999985
0.999989
0.999992
0.999994
0.999996
0.999997
0.999998
0.999999
0.999999
0.999999
1
1
1
1
1
1
1
1
1
1
1
1
1
1
1
1.00708
1.00884
1.0108
1.0129
1.01509
1.01729
1.01945
1.02149
1.02337
1.02503
1.02645
1.02759
1.02845
1.02901
1.02925
1.02919
1.02881
1.0281
1.02708
1.02574
1.02412
1.02225
1.02019
1.01799
1.01572
1.01348
1.01133
1.00933
1.00752
1.00593
1.00458
1.00345
1.00253
1.0018
1.00125
1.00083
1.00052
1.0003
1.00015
1.00005
0.999993
0.999959
0.999942
0.999937
0.99994
0.999945
0.999953
0.999961
0.999969
0.999976
0.999982
0.999987
0.99999
0.999993
0.999995
0.999997
0.999998
0.999998
0.999999
0.999999
1
1
1
1
1
1
1
1
1
1
1
1
1
1
1
1.0093
1.01152
1.01393
1.01648
1.01908
1.02165
1.02412
1.02641
1.02848
1.03027
1.03177
1.03296
1.03384
1.03441
1.03466
1.03461
1.03423
1.03352
1.03247
1.03107
1.02933
1.02727
1.02493
1.02239
1.01973
1.01704
1.01442
1.01194
1.00968
1.00768
1.00595
1.0045
1.00332
1.00238
1.00166
1.00111
1.00071
1.00042
1.00022
1.00009
1.00001
0.999962
0.999938
0.99993
0.999931
0.999937
0.999945
0.999955
0.999964
0.999972
0.999978
0.999984
0.999988
0.999992
0.999994
0.999996
0.999997
0.999998
0.999999
0.999999
1
1
1
1
1
1
1
1
1
1
1
1
1
1
1
1.01199
1.0147
1.0176
1.02059
1.02358
1.02647
1.02917
1.03161
1.03374
1.03553
1.03699
1.03812
1.03894
1.03947
1.03971
1.03968
1.03936
1.03873
1.03776
1.03642
1.03469
1.03257
1.03007
1.02727
1.02426
1.02114
1.01804
1.01506
1.01229
1.00981
1.00765
1.00582
1.00432
1.00312
1.00218
1.00147
1.00095
1.00058
1.00032
1.00015
1.00004
0.999971
0.999937
0.999923
0.999922
0.999928
0.999937
0.999947
0.999957
0.999967
0.999975
0.999981
0.999986
0.99999
0.999993
0.999995
0.999997
0.999998
0.999999
0.999999
0.999999
1
1
1
1
1
1
1
1
1
1
1
1
1
1
1.01516
1.01838
1.02176
1.02515
1.02845
1.03154
1.03431
1.03672
1.03874
1.04036
1.04161
1.04253
1.04317
1.04358
1.04378
1.04378
1.04358
1.04313
1.04239
1.04129
1.03976
1.03777
1.03531
1.03242
1.02918
1.02571
1.02215
1.01866
1.01536
1.01235
1.0097
1.00743
1.00555
1.00403
1.00284
1.00194
1.00127
1.00078
1.00045
1.00022
1.00008
0.999988
0.999941
0.999919
0.999914
0.999918
0.999928
0.999939
0.999951
0.999961
0.99997
0.999978
0.999984
0.999988
0.999992
0.999994
0.999996
0.999997
0.999998
0.999999
0.999999
1
1
1
1
1
1
1
1
1
1
1
1
1
1
1.0188
1.02252
1.02631
1.03
1.03345
1.03653
1.03916
1.0413
1.04295
1.04415
1.04498
1.04551
1.04583
1.04602
1.04613
1.04619
1.04617
1.04603
1.04569
1.04504
1.04397
1.04239
1.04023
1.03749
1.03423
1.03057
1.02667
1.02271
1.01888
1.01532
1.01212
1.00936
1.00704
1.00515
1.00366
1.00252
1.00167
1.00105
1.00062
1.00032
1.00013
1.00002
0.99995
0.999918
0.999907
0.999909
0.999919
0.999931
0.999944
0.999956
0.999966
0.999974
0.999981
0.999986
0.99999
0.999993
0.999996
0.999997
0.999998
0.999999
0.999999
1
1
1
1
1
1
1
1
1
1
1
1
1
1
1.02285
1.027
1.03108
1.03488
1.03825
1.04105
1.04323
1.04479
1.04577
1.04628
1.04643
1.04636
1.04621
1.04608
1.04605
1.04617
1.0464
1.0467
1.04695
1.047
1.04668
1.04583
1.04432
1.04206
1.03907
1.03546
1.0314
1.0271
1.02279
1.01868
1.01492
1.01162
1.00881
1.0065
1.00466
1.00323
1.00216
1.00138
1.00083
1.00046
1.00021
1.00006
0.999966
0.999921
0.999903
0.999902
0.99991
0.999922
0.999936
0.999949
0.999961
0.999971
0.999978
0.999984
0.999989
0.999992
0.999995
0.999997
0.999998
0.999999
0.999999
0.999999
1
1
1
1
1
1
1
1
1
1
1
1
1
1.0272
1.03165
1.03581
1.03945
1.04242
1.04461
1.04599
1.04661
1.04659
1.04609
1.04531
1.04443
1.04365
1.0431
1.0429
1.04308
1.04364
1.0445
1.04552
1.04651
1.04724
1.04747
1.04698
1.0456
1.04327
1.04005
1.03609
1.03165
1.02699
1.02239
1.01808
1.01421
1.01087
1.00808
1.00584
1.0041
1.00277
1.0018
1.0011
1.00063
1.00031
1.00011
0.999993
0.999929
0.999902
0.999896
0.999902
0.999914
0.999929
0.999943
0.999956
0.999967
0.999975
0.999982
0.999987
0.999991
0.999994
0.999996
0.999997
0.999998
0.999999
0.999999
1
1
1
1
1
1
1
1
1
1
1
1
1
1.03169
1.03621
1.04017
1.04332
1.04552
1.04669
1.04688
1.0462
1.04484
1.04305
1.04109
1.03921
1.03765
1.0366
1.03618
1.03645
1.0374
1.03894
1.0409
1.04305
1.04511
1.04676
1.04767
1.04759
1.04636
1.04393
1.04043
1.03612
1.03131
1.02635
1.02154
1.01711
1.01321
1.00992
1.00723
1.00511
1.0035
1.0023
1.00144
1.00084
1.00044
1.00018
1.00003
0.999945
0.999905
0.999892
0.999896
0.999907
0.999922
0.999937
0.999951
0.999963
0.999972
0.99998
0.999986
0.99999
0.999993
0.999995
0.999997
0.999998
0.999999
0.999999
1
1
1
1
1
1
1
1
1
1
1
1
1
1.03608
1.0404
1.0438
1.04608
1.04709
1.04684
1.04545
1.04311
1.0401
1.03675
1.03339
1.03034
1.02789
1.02626
1.0256
1.02598
1.02739
1.02971
1.03276
1.03627
1.0399
1.04326
1.04594
1.04757
1.04786
1.04668
1.04406
1.04024
1.03556
1.03042
1.02521
1.02027
1.01583
1.012
1.00883
1.0063
1.00435
1.00289
1.00184
1.0011
1.0006
1.00028
1.00008
0.99997
0.999913
0.999891
0.99989
0.9999
0.999915
0.999931
0.999946
0.999959
0.999969
0.999978
0.999984
0.999989
0.999993
0.999995
0.999997
0.999998
0.999999
0.999999
0.999999
1
1
1
1
1
1
1
1
1
1
1
1
1.04013
1.04388
1.04635
1.04732
1.04674
1.04469
1.04135
1.03703
1.0321
1.02695
1.022
1.01764
1.01419
1.01192
1.01101
1.01152
1.01345
1.01666
1.02094
1.02598
1.03139
1.03672
1.04147
1.04517
1.04741
1.04791
1.04663
1.0437
1.03948
1.03441
1.02899
1.02363
1.01866
1.0143
1.01062
1.00765
1.00534
1.00359
1.00232
1.00141
1.0008
1.0004
1.00015
1
0.999927
0.999894
0.999887
0.999895
0.999909
0.999925
0.999941
0.999955
0.999966
0.999975
0.999982
0.999988
0.999992
0.999994
0.999996
0.999997
0.999998
0.999999
0.999999
1
1
1
1
1
1
1
1
1
1
1
1
1.04353
1.04635
1.04747
1.04674
1.0442
1.03998
1.0344
1.02782
1.02071
1.01355
1.00683
1.00101
0.996461
0.993493
0.992307
0.992987
0.995505
0.999718
1.00537
1.01212
1.01951
1.02703
1.03412
1.0402
1.04474
1.04734
1.04781
1.04621
1.04282
1.03814
1.03272
1.02708
1.02167
1.01679
1.01261
1.00917
1.00646
1.00439
1.00287
1.00179
1.00104
1.00055
1.00024
1.00005
0.999949
0.999902
0.999887
0.999891
0.999904
0.99992
0.999936
0.999951
0.999963
0.999973
0.999981
0.999987
0.999991
0.999994
0.999996
0.999997
0.999998
0.999999
0.999999
1
1
1
1
1
1
1
1
1
1
1
1
1.04604
1.04753
1.04693
1.04415
1.0393
1.03263
1.02451
1.01542
1.00589
0.996511
0.987834
0.980388
0.974625
0.970887
0.969411
0.97029
0.973487
0.978833
0.986032
0.994677
1.00426
1.0142
1.02386
1.03258
1.03972
1.04477
1.04739
1.04752
1.04537
1.04141
1.03625
1.03052
1.02477
1.01943
1.01475
1.01084
1.00771
1.0053
1.0035
1.00221
1.00132
1.00072
1.00034
1.00011
0.999979
0.999915
0.999891
0.999889
0.9999
0.999915
0.999932
0.999947
0.99996
0.999971
0.999979
0.999985
0.99999
0.999993
0.999996
0.999997
0.999998
0.999999
0.999999
1
1
1
1
1
1
1
1
1
1
1
1
1.04743
1.04725
1.04459
1.03946
1.03203
1.02264
1.01173
0.999868
0.987679
0.975831
0.964975
0.955722
0.948597
0.944003
0.942206
0.943316
0.947287
0.953916
0.962853
0.973624
0.985644
0.998247
1.01072
1.02232
1.03233
1.04012
1.04523
1.04746
1.04692
1.04403
1.03942
1.03382
1.02789
1.02216
1.01702
1.01263
1.00907
1.0063
1.00421
1.0027
1.00164
1.00093
1.00047
1.00018
1.00002
0.999934
0.999898
0.99989
0.999898
0.999912
0.999928
0.999944
0.999958
0.999969
0.999977
0.999984
0.999989
0.999993
0.999995
0.999997
0.999998
0.999999
0.999999
1
1
1
1
1
1
1
1
1
1
1
1
1.04758
1.04542
1.04043
1.03269
1.02245
1.01009
0.996132
0.981231
0.966098
0.951508
0.938219
0.926945
0.918293
0.912733
0.910576
0.911947
0.916792
0.924869
0.935766
0.948922
0.963655
0.979203
0.994758
1.0095
1.02262
1.03341
1.04129
1.04593
1.04734
1.04586
1.04211
1.03686
1.03091
1.02492
1.01937
1.01453
1.01054
1.00739
1.00499
1.00324
1.00201
1.00116
1.00061
1.00027
1.00007
0.999959
0.999909
0.999893
0.999897
0.99991
0.999926
0.999942
0.999956
0.999967
0.999976
0.999983
0.999988
0.999992
0.999995
0.999997
0.999998
0.999999
0.999999
0.999999
1
1
1
1
1
1
1
1
1
1
1
1.04641
1.04204
1.03451
1.02396
1.01068
0.995106
0.977834
0.95959
0.9412
0.923562
0.907562
0.894032
0.883672
0.877034
0.874469
0.876128
0.881947
0.891646
0.904737
0.92056
0.938314
0.957116
0.976048
0.994197
1.01068
1.02471
1.0356
1.04293
1.04658
1.0468
1.04419
1.03956
1.03377
1.02764
1.02175
1.0165
1.01209
1.00856
1.00584
1.00384
1.00241
1.00143
1.00078
1.00037
1.00013
0.999991
0.999925
0.9999
0.999899
0.999909
0.999924
0.99994
0.999954
0.999965
0.999975
0.999982
0.999988
0.999992
0.999995
0.999997
0.999998
0.999999
0.999999
0.999999
1
1
1
1
1
1
1
1
1
1
1
1.04396
1.03719
1.02695
1.01342
0.996889
0.977858
0.956971
0.935058
0.913079
0.892077
0.873087
0.857069
0.844831
0.837001
0.833981
0.835949
0.842836
0.854323
0.869844
0.88862
0.90971
0.932088
0.954706
0.976542
0.996635
1.01411
1.02823
1.03847
1.04461
1.04681
1.0456
1.04181
1.03639
1.03025
1.02412
1.01851
1.0137
1.00979
1.00675
1.00448
1.00285
1.00172
1.00097
1.00049
1.0002
1.00003
0.999946
0.99991
0.999903
0.99991
0.999923
0.999938
0.999953
0.999965
0.999974
0.999982
0.999987
0.999991
0.999994
0.999996
0.999998
0.999998
0.999999
0.999999
1
1
1
1
1
1
1
1
1
1
1
1.04033
1.03103
1.01795
1.00126
0.981288
0.958533
0.933725
0.907812
0.881919
0.857258
0.835028
0.816323
0.802059
0.79294
0.789421
0.79171
0.799742
0.813165
0.831332
0.853331
0.878061
0.904324
0.930924
0.956717
0.98065
1.00179
1.01932
1.03266
1.04149
1.04587
1.04629
1.04357
1.0387
1.03269
1.02642
1.02051
1.01533
1.01106
1.00769
1.00516
1.00332
1.00204
1.00117
1.00062
1.00028
1.00008
0.999972
0.999924
0.999909
0.999913
0.999924
0.999938
0.999952
0.999964
0.999974
0.999981
0.999987
0.999991
0.999994
0.999996
0.999998
0.999998
0.999999
0.999999
1
1
1
1
1
1
1
1
1
1
1
1.03564
1.02373
1.00771
0.987728
0.9641
0.937366
0.908343
0.87813
0.84804
0.819479
0.79382
0.772289
0.7559
0.745422
0.741366
0.743976
0.753202
0.768668
0.789649
0.815097
0.843731
0.874157
0.905003
0.934988
0.962966
0.987933
1.00904
1.02561
1.03729
1.04404
1.04628
1.0448
1.04065
1.03493
1.02862
1.02247
1.01697
1.01235
1.00867
1.00587
1.00382
1.00237
1.0014
1.00076
1.00036
1.00013
1
0.999941
0.999918
0.999917
0.999926
0.999939
0.999952
0.999964
0.999973
0.999981
0.999987
0.999991
0.999994
0.999996
0.999997
0.999998
0.999999
0.999999
1
1
1
1
1
1
1
1
1
1
1
1.03009
1.01551
0.996463
0.973061
0.945602
0.914662
0.881174
0.84642
0.811931
0.77932
0.750134
0.725716
0.707167
0.695305
0.690685
0.693596
0.704022
0.72158
0.745477
0.774527
0.807255
0.842056
0.877357
0.911721
0.943896
0.972818
0.997589
1.01751
1.03213
1.04137
1.04558
1.04551
1.04223
1.03691
1.03067
1.02436
1.01857
1.01364
1.00966
1.00659
1.00433
1.00273
1.00163
1.00091
1.00046
1.00019
1.00004
0.999962
0.99993
0.999924
0.99993
0.999941
0.999953
0.999964
0.999974
0.999981
0.999987
0.999991
0.999994
0.999996
0.999997
0.999998
0.999999
0.999999
1
1
1
1
1
1
1
1
1
1
1
1.02386
1.00659
0.984467
0.957551
0.926123
0.890808
0.852683
0.813242
0.774259
0.737564
0.704865
0.677605
0.656939
0.643714
0.638525
0.641706
0.65329
0.672911
0.699727
0.732425
0.769336
0.808625
0.848507
0.887364
0.923826
0.956767
0.985252
1.00855
1.02618
1.03799
1.04426
1.04571
1.04342
1.03863
1.03254
1.02614
1.02013
1.01491
1.01064
1.00732
1.00486
1.00309
1.00188
1.00107
1.00056
1.00025
1.00008
0.999986
0.999945
0.999932
0.999934
0.999944
0.999955
0.999965
0.999974
0.999981
0.999987
0.999991
0.999994
0.999996
0.999997
0.999998
0.999999
0.999999
1
1
1
1
1
1
1
1
1
1
1
1.01716
0.997217
0.972
0.941524
0.906055
0.866285
0.823453
0.779301
0.735859
0.695177
0.659103
0.629157
0.606508
0.59201
0.58627
0.589677
0.602325
0.623894
0.653517
0.68978
0.730829
0.7746
0.819074
0.862443
0.903203
0.940155
0.972338
0.998998
1.01963
1.03402
1.0424
1.04546
1.04425
1.04008
1.03423
1.0278
1.02161
1.01613
1.0116
1.00805
1.00538
1.00346
1.00213
1.00124
1.00067
1.00032
1.00012
1.00001
0.999962
0.999943
0.999941
0.999947
0.999957
0.999966
0.999975
0.999982
0.999987
0.999991
0.999994
0.999996
0.999998
0.999998
0.999999
0.999999
1
1
1
1
1
1
1
1
1
1
1
1.01021
0.987632
0.959357
0.925345
0.885852
0.841651
0.794175
0.745422
0.697693
0.653253
0.614071
0.581707
0.557304
0.541679
0.535441
0.539022
0.552592
0.575896
0.60809
0.647692
0.692692
0.7408
0.789756
0.837547
0.882522
0.923401
0.959189
0.989128
1.01269
1.02963
1.04013
1.04481
1.04474
1.04125
1.03571
1.02932
1.02299
1.0173
1.01253
1.00875
1.00589
1.00382
1.00238
1.00141
1.00078
1.0004
1.00017
1.00004
0.999981
0.999955
0.999949
0.999953
0.99996
0.999969
0.999976
0.999983
0.999988
0.999992
0.999994
0.999996
0.999998
0.999998
0.999999
0.999999
1
1
1
1
1
1
1
1
1
1
1
1.00322
0.978102
0.946857
0.909409
0.866013
0.817538
0.76561
0.712508
0.660798
0.61295
0.571035
0.536615
0.51076
0.494212
0.487551
0.491248
0.50555
0.530293
0.564696
0.607274
0.655902
0.708077
0.761287
0.813299
0.862306
0.906939
0.94617
0.979236
1.0056
1.025
1.03755
1.04384
1.04493
1.04217
1.03698
1.03068
1.02426
1.01838
1.0134
1.00942
1.00639
1.00418
1.00262
1.00158
1.0009
1.00047
1.00022
1.00008
1
0.999969
0.999958
0.999959
0.999964
0.999971
0.999978
0.999984
0.999989
0.999992
0.999995
0.999997
0.999998
0.999999
0.999999
0.999999
1
1
1
1
1
1
1
1
1
1
1
0.996423
0.968888
0.934827
0.894132
0.847067
0.794602
0.738559
0.681483
0.626209
0.575399
0.531204
0.495147
0.468184
0.450945
0.443957
0.44771
0.462521
0.488336
0.524492
0.569568
0.621382
0.677244
0.734384
0.790323
0.843087
0.891216
0.933652
0.969627
0.998604
1.0203
1.0348
1.04266
1.04488
1.04285
1.03805
1.03187
1.0254
1.01938
1.01421
1.01005
1.00685
1.00451
1.00286
1.00174
1.00101
1.00055
1.00027
1.00011
1.00002
0.999983
0.999968
0.999965
0.999969
0.999975
0.999981
0.999986
0.99999
0.999993
0.999995
0.999997
0.999998
0.999999
0.999999
0.999999
1
1
1
1
1
1
1
1
1
1
1
0.990018
0.960255
0.923591
0.879926
0.82954
0.773495
0.7138
0.653239
0.594904
0.541633
0.495636
0.458371
0.430647
0.412954
0.405744
0.409496
0.424585
0.451074
0.488467
0.535482
0.589953
0.649037
0.709703
0.769204
0.825375
0.876667
0.921995
0.960598
0.991945
1.01574
1.03204
1.04135
1.04466
1.04334
1.03894
1.0329
1.0264
1.02026
1.01494
1.01062
1.00728
1.00482
1.00308
1.0019
1.00111
1.00062
1.00032
1.00014
1.00005
1
0.99998
0.999974
0.999975
0.999978
0.999983
0.999987
0.999991
0.999994
0.999996
0.999997
0.999998
0.999999
0.999999
0.999999
1
1
1
1
1
1
1
1
1
1
1
0.984213
0.952456
0.913465
0.867179
0.813922
0.754825
0.692046
0.62858
0.567737
0.512516
0.465179
0.427095
0.39892
0.380992
0.373663
0.377375
0.392528
0.419308
0.457418
0.50578
0.562319
0.624093
0.687817
0.750455
0.80963
0.863693
0.911542
0.952433
0.985853
1.0115
1.0294
1.04001
1.04431
1.04366
1.03964
1.03376
1.02727
1.02104
1.01558
1.01112
1.00767
1.00511
1.00329
1.00204
1.00122
1.00069
1.00037
1.00018
1.00007
1.00002
0.999992
0.999982
0.999981
0.999983
0.999986
0.999989
0.999992
0.999995
0.999996
0.999998
0.999998
0.999999
0.999999
1
1
1
1
1
1
1
1
1
1
1
1
0.979196
0.945724
0.90474
0.856246
0.800637
0.739103
0.673898
0.608164
0.545391
0.488716
0.44044
0.401855
0.373472
0.355487
0.348133
0.351779
0.366827
0.393567
0.431922
0.481064
0.539074
0.602965
0.669223
0.734523
0.796251
0.852646
0.902597
0.945388
0.980536
1.00774
1.027
1.03874
1.04391
1.04386
1.04019
1.03446
1.02798
1.02168
1.01613
1.01156
1.008
1.00535
1.00347
1.00217
1.00131
1.00076
1.00042
1.00021
1.0001
1.00004
1
0.999991
0.999987
0.999988
0.999989
0.999992
0.999994
0.999996
0.999997
0.999998
0.999999
0.999999
0.999999
1
1
1
1
1
1
1
1
1
1
1
1
0.975132
0.940274
0.897674
0.847423
0.790023
0.726717
0.659801
0.592481
0.528364
0.470688
0.421799
0.382937
0.354508
0.33658
0.329264
0.332833
0.34766
0.37412
0.412341
0.461767
0.52068
0.586107
0.654347
0.721784
0.785566
0.843816
0.895413
0.939681
0.976177
1.00461
1.02497
1.03763
1.04351
1.04396
1.04059
1.035
1.02854
1.0222
1.01657
1.01191
1.00827
1.00556
1.00362
1.00228
1.00139
1.00082
1.00046
1.00025
1.00012
1.00005
1.00002
1
0.999994
0.999992
0.999993
0.999994
0.999996
0.999997
0.999998
0.999998
0.999999
0.999999
1
1
1
1
1
1
1
1
1
1
1
1
1
0.972152
0.936284
0.892481
0.840953
0.782328
0.717922
0.650019
0.581813
0.516933
0.45868
0.409436
0.370435
0.342032
0.324204
0.31695
0.320435
0.334983
0.361018
0.398843
0.448161
0.50748
0.573885
0.643531
0.712547
0.777846
0.837433
0.890186
0.935482
0.972923
1.00224
1.02339
1.03675
1.04317
1.044
1.04087
1.03539
1.02895
1.02258
1.01689
1.01218
1.00848
1.00572
1.00374
1.00238
1.00146
1.00087
1.0005
1.00028
1.00014
1.00007
1.00003
1.00001
1
0.999998
0.999997
0.999997
0.999997
0.999998