/*--------------------------------*- C++ -*----------------------------------*\
  =========                 |
  \\      /  F ield         | OpenFOAM: The Open Source CFD Toolbox
   \\    /   O peration     | Website:  https://openfoam.org
    \\  /    A nd           | Version:  6
     \\/     M anipulation  |
\*---------------------------------------------------------------------------*/
FoamFile
{
    version     2.0;
    format      ascii;
    class       volScalarField;
    location    "1.96";
    object      epsilon;
}
// * * * * * * * * * * * * * * * * * * * * * * * * * * * * * * * * * * * * * //

dimensions      [0 2 -3 0 0 0 0];

internalField   nonuniform List<scalar> 
4214
(
0.151965
0.057927
0.0259063
0.0147764
0.0109458
0.00976256
0.00965528
0.0102058
0.0114858
0.0139134
0.0182696
0.0258227
0.0385168
0.0591497
0.0916688
0.14206
0.222569
0.367196
0.673166
1.12851
1.28187
1.56372
1.29304
0.808981
0.489677
0.298985
0.18085
0.107528
0.0634496
0.0380178
0.0239067
0.0163327
0.0124089
0.0104756
0.00967621
0.00970429
0.0108899
0.0147895
0.0261354
0.0587978
0.154634
0.0449426
0.0215459
0.013496
0.010703
0.00980711
0.00968724
0.0100341
0.0108961
0.0125759
0.0156484
0.0210752
0.0303557
0.0457116
0.0702046
0.107976
0.165148
0.254572
0.412629
0.738774
1.2259
1.38083
1.74353
1.53159
0.97672
0.589682
0.360544
0.219182
0.13092
0.0772536
0.0459118
0.0283412
0.0188151
0.0138203
0.0112836
0.0100756
0.00960863
0.0096951
0.0105748
0.0133299
0.0212581
0.0441902
0.0150156
0.0116872
0.01036
0.00987992
0.00981865
0.0100546
0.0106461
0.0118128
0.013988
0.017897
0.0247125
0.0362091
0.0549252
0.084193
0.12833
0.193593
0.293394
0.465967
0.812187
1.3286
1.48526
1.91159
1.80002
1.17988
0.713807
0.436219
0.266282
0.15989
0.0945299
0.0558876
0.0339809
0.0219791
0.0156247
0.0123459
0.0107258
0.00997183
0.00969311
0.0097438
0.0101999
0.0114484
0.0145537
0.0110126
0.0103522
0.0100853
0.0100555
0.0102238
0.0106371
0.0114557
0.0129941
0.0158141
0.0208184
0.0294406
0.0437842
0.0667451
0.10193
0.153793
0.228742
0.340915
0.530794
0.90107
1.4528
1.62319
2.10196
2.12028
1.43034
0.868729
0.529493
0.324261
0.195784
0.116161
0.0684914
0.0411549
0.0260113
0.0179216
0.0136958
0.0115724
0.0105396
0.0100724
0.00990345
0.00993741
0.0101889
0.0107946
0.0104631
0.0103334
0.010344
0.0104816
0.0107876
0.0113718
0.0124706
0.0144997
0.0181799
0.0246359
0.0356305
0.0536576
0.0820144
0.124564
0.185837
0.272407
0.399336
0.60933
1.00593
1.59304
1.78053
2.29477
2.48528
1.73534
1.06137
0.645238
0.395916
0.240367
0.143312
0.0844662
0.0503152
0.0311691
0.0208509
0.0153985
0.0126269
0.0112505
0.0105974
0.0102982
0.010185
0.0101918
0.0103234
0.0106646
0.0106966
0.010821
0.0110581
0.0114894
0.0122783
0.0137495
0.0164419
0.0212844
0.0296836
0.0438206
0.0666482
0.101902
0.153658
0.226447
0.327017
0.471778
0.705635
1.13213
1.75588
1.96527
2.49948
2.90305
2.10636
1.30074
0.789825
0.484962
0.29594
0.177508
0.104796
0.0620783
0.0378104
0.024617
0.017562
0.0139423
0.0121181
0.011241
0.0108212
0.010625
0.0105391
0.0105325
0.0111159
0.0112285
0.0114248
0.0117509
0.0123322
0.0133953
0.0153817
0.0189872
0.0254221
0.0364509
0.0547899
0.0839189
0.128038
0.191346
0.278284
0.395815
0.562147
0.824534
1.28485
1.94539
2.17874
2.71692
3.37469
2.55441
1.59914
0.971278
0.596333
0.36556
0.220778
0.130799
0.0772886
0.0464356
0.0295114
0.0203433
0.0156005
0.0131751
0.0120025
0.0114373
0.0111686
0.0110316
0.0109663
0.0117133
0.0118715
0.012131
0.0125623
0.0133489
0.0147981
0.0175144
0.0223945
0.0310408
0.0456659
0.0696759
0.107127
0.162685
0.240511
0.344888
0.483107
0.675597
0.972247
1.47114
2.16791
2.42458
2.95261
3.90292
3.09138
1.97062
1.19948
0.736499
0.45331
0.27581
0.164239
0.0971039
0.0577403
0.0359533
0.0239729
0.0177304
0.0144839
0.0129064
0.0121426
0.011788
0.0116102
0.0115202
0.0123991
0.0126018
0.0129394
0.0135168
0.0146041
0.0166116
0.0203812
0.0270632
0.0388235
0.0584123
0.0901374
0.138619
0.208959
0.305027
0.430929
0.594541
0.81903
1.15647
1.69906
2.43055
2.70578
3.2122
4.48913
3.72862
2.43162
1.48763
0.914002
0.564672
0.34621
0.207478
0.123118
0.0726932
0.0445457
0.0287861
0.0205272
0.0161447
0.0140026
0.0129525
0.0124771
0.0122488
0.0121405
0.0131697
0.0134256
0.0138756
0.0146703
0.0162129
0.0190392
0.0243551
0.0336126
0.0498182
0.0763046
0.118587
0.181696
0.271105
0.390039
0.542563
0.737513
1.00137
1.38722
1.97808
2.74071
3.02546
3.50314
5.13567
4.47715
2.99954
1.85195
1.14047
0.706877
0.436868
0.263694
0.157534
0.0926421
0.0561612
0.0352704
0.0242861
0.0183125
0.0153779
0.0139055
0.0132498
0.0129442
0.012815
0.0140336
0.0143666
0.0149928
0.0161201
0.0183683
0.0224061
0.0300346
0.043005
0.0656412
0.101735
0.15851
0.240919
0.354835
0.502351
0.687922
0.921719
1.23407
1.67683
2.31943
3.10628
3.38604
3.83414
5.84508
5.34425
3.69258
2.31221
1.43101
0.889805
0.554491
0.337171
0.203431
0.119459
0.0720742
0.044135
0.0294568
0.0212226
0.0171729
0.0150682
0.0141398
0.0137065
0.0135412
0.0150161
0.01547
0.0163862
0.0180278
0.0213941
0.0272334
0.0383932
0.0567343
0.0887926
0.138205
0.214894
0.32249
0.467776
0.650992
0.877869
1.16001
1.53176
2.03983
2.73536
3.5357
3.78946
4.21449
6.61739
6.33352
4.52832
2.8909
1.80514
1.12669
0.708431
0.433702
0.265162
0.15573
0.0941661
0.0564102
0.0367344
0.0252302
0.0196148
0.0165486
0.0152091
0.0145607
0.0143296
0.0161685
0.016813
0.0182241
0.020659
0.0258454
0.0343538
0.051039
0.0770985
0.123139
0.190728
0.294808
0.43468
0.620213
0.848141
1.12721
1.46939
1.91256
2.4927
3.23872
4.0377
4.23743
4.65516
7.45427
7.44604
5.52066
3.6118
2.28753
1.43508
0.911934
0.561084
0.349011
0.20499
0.125257
0.0735811
0.0472168
0.0308711
0.023077
0.0185178
0.0165653
0.0155499
0.0152043
0.0175858
0.0185232
0.0208133
0.0244473
0.0327007
0.0450843
0.0706753
0.107537
0.174652
0.26619
0.408249
0.588332
0.826483
1.11066
1.45663
1.87233
2.39793
3.0528
3.84275
4.62446
4.73776
5.2007
8.36729
8.68051
6.67738
4.49799
2.90877
1.83755
1.18415
0.729599
0.464286
0.271943
0.169659
0.0977395
0.0626839
0.0389424
0.028194
0.0212432
0.0184024
0.0167445
0.0162128
0.0194329
0.0208024
0.0247386
0.0300818
0.0437457
0.0614238
0.101916
0.152892
0.252582
0.373432
0.569659
0.797261
1.10768
1.4621
1.89575
2.39735
3.01182
3.73664
4.56112
5.32117
5.36772
5.94514
9.39314
10.0403
7.99745
5.5671
3.70631
2.36118
1.55371
0.952111
0.625339
0.362505
0.23418
0.131669
0.0861175
0.0505817
0.0360869
0.02513
0.0210867
0.0182582
0.017446
0.0220346
0.0239533
0.0311879
0.0385653
0.0623909
0.0861216
0.152877
0.219145
0.371638
0.522435
0.801413
1.078
1.49746
1.93422
2.48873
3.07467
3.77605
4.54618
5.39701
6.19513
6.33651
6.93255
10.7001
11.5178
9.45141
6.81225
4.72694
3.03197
2.06648
1.24259
0.855743
0.483081
0.330099
0.178581
0.122742
0.067234
0.0488508
0.0307279
0.0253492
0.0202609
0.0190965
0.0261634
0.0283416
0.0427451
0.0509967
0.0954988
0.121924
0.238418
0.311382
0.557036
0.721085
1.14313
1.44711
2.05679
2.56032
3.27942
3.9071
4.68896
5.41236
6.29709
7.23922
6.02729
7.44658
11.2944
12.9602
10.8799
8.13764
6.03206
3.85099
2.80531
1.60973
1.1982
0.637388
0.477688
0.240615
0.182309
0.0900786
0.0706719
0.0385452
0.0327601
0.0229418
0.0216195
0.0194196
0.0181234
0.0169862
0.0159846
0.0150855
0.0142597
0.0134879
0.012764
0.0120904
0.011482
0.010955
0.0106155
0.0106354
0.0120728
0.022286
0.113282
0.448346
0.0193624
0.0181726
0.0171569
0.0162521
0.0154209
0.0146403
0.0139009
0.013205
0.0125595
0.0119781
0.0114703
0.0111367
0.0111349
0.0125951
0.0241233
0.136733
0.534046
0.0192371
0.0182809
0.0173986
0.0165739
0.0157931
0.0150475
0.0143357
0.013666
0.0130483
0.0124937
0.0120111
0.0116941
0.0117014
0.0132234
0.0257341
0.159807
0.621212
0.0194182
0.0185568
0.0177362
0.0169564
0.0162089
0.0154896
0.0148018
0.0141584
0.013569
0.0130418
0.0125875
0.012293
0.0123341
0.0138898
0.026819
0.17427
0.718152
0.0197484
0.0189135
0.0181319
0.0173846
0.0166623
0.0159648
0.015301
0.0146848
0.0141238
0.0136241
0.0131999
0.012934
0.0130233
0.0146268
0.0275705
0.178346
0.820131
0.020036
0.0193075
0.0185746
0.017855
0.0171534
0.0164764
0.0158381
0.0152506
0.0147185
0.0142467
0.013853
0.0136203
0.0137681
0.0154294
0.0281772
0.175717
0.923939
0.0205747
0.0198017
0.0190742
0.0183694
0.0176843
0.0170288
0.0164182
0.015861
0.0153588
0.0149151
0.0145527
0.0143571
0.0145723
0.0163293
0.0287929
0.170689
1.02635
0.0209351
0.0202834
0.019603
0.018922
0.018257
0.0176273
0.0170475
0.0165226
0.0160507
0.0156358
0.0153057
0.0151512
0.0154433
0.0173096
0.0295689
0.165928
1.12629
0.0216137
0.020883
0.0201927
0.0195219
0.0188784
0.0182789
0.0177334
0.0172418
0.0168006
0.016416
0.0161199
0.0160121
0.0163906
0.0183967
0.0306164
0.162834
1.22415
0.0220426
0.0214474
0.0208055
0.0201635
0.0195521
0.0189903
0.0184828
0.0180256
0.0176158
0.0172627
0.0170038
0.0169491
0.0174258
0.0196148
0.0320061
0.162033
1.32084
0.0228429
0.0221444
0.0214868
0.020863
0.0202877
0.0197686
0.0193019
0.0188808
0.0185039
0.0181841
0.0179668
0.0179734
0.0185637
0.0209814
0.0337755
0.163691
1.41504
0.0233455
0.0227949
0.0221949
0.0216169
0.0210909
0.0206203
0.020197
0.0198137
0.0194717
0.0191887
0.0190191
0.0190955
0.0198204
0.0225174
0.0359662
0.167572
1.50631
0.0242579
0.0235899
0.0229859
0.0224466
0.0219729
0.0215531
0.0211744
0.0208306
0.0205269
0.0202848
0.0201696
0.0203255
0.0212114
0.0242422
0.0385978
0.173285
1.59559
0.0248446
0.0243432
0.0238204
0.0233501
0.0229392
0.0225733
0.0222407
0.021939
0.0216771
0.0214815
0.0214292
0.021676
0.0227481
0.0261647
0.0416621
0.180376
1.67984
0.0258615
0.0252527
0.0247562
0.0243477
0.0239988
0.0236872
0.0234028
0.0231464
0.0229311
0.0227887
0.0228086
0.0231608
0.0244498
0.0283096
0.0451743
0.188313
1.75801
0.0265554
0.0261475
0.0257609
0.0254365
0.0251548
0.0249003
0.0246673
0.0244613
0.0242988
0.0242181
0.0243202
0.0247932
0.0263288
0.0306874
0.0491451
0.196197
1.82537
0.0276765
0.0272086
0.0268815
0.0266311
0.0264146
0.0262196
0.0260428
0.0258937
0.025792
0.0257824
0.0259776
0.0265891
0.028398
0.0333125
0.0535297
0.203447
1.87817
0.0285238
0.0282996
0.0280917
0.0279284
0.0277815
0.0276519
0.0275387
0.0274555
0.027424
0.0274963
0.0277967
0.0285657
0.0306712
0.0361989
0.0580775
0.211366
1.91325
0.0297605
0.0295538
0.0294198
0.0293371
0.0292629
0.0292064
0.0291662
0.0291594
0.02921
0.0293775
0.0297967
0.0307423
0.0331655
0.039373
0.0630155
0.2193
1.93057
0.0308407
0.0308779
0.0308487
0.0308579
0.0308662
0.0308944
0.0309397
0.0310219
0.0311676
0.0314443
0.0319976
0.0331422
0.0359041
0.0428562
0.06839
0.22749
1.92572
0.032219
0.0323386
0.0323963
0.032501
0.0326039
0.0327305
0.032876
0.0330627
0.03332
0.0337224
0.034426
0.0357881
0.0389018
0.0466608
0.0742203
0.236238
1.89554
0.0336428
0.0338884
0.0340599
0.034275
0.03449
0.034731
0.0349951
0.035305
0.0356939
0.036242
0.0371168
0.0387214
0.0422173
0.0508478
0.0806597
0.247071
1.84478
0.0351914
0.0355583
0.035858
0.0361968
0.0365428
0.0369175
0.0373219
0.0377779
0.0383229
0.0390414
0.0401128
0.0419852
0.0458939
0.0554645
0.0878012
0.257522
1.78022
0.0368626
0.0373436
0.0377919
0.0382793
0.0387803
0.0393135
0.0398837
0.0405131
0.041241
0.0421554
0.043447
0.0455942
0.0498857
0.0602698
0.0944823
0.264849
1.70959
0.0386291
0.0392773
0.0398905
0.0405457
0.0412266
0.0419479
0.0427157
0.0435521
0.0444978
0.0456413
0.0471817
0.0496135
0.0542632
0.0652882
0.10068
0.26883
1.63521
0.0405394
0.0413478
0.0421578
0.0430163
0.0439106
0.0448558
0.0458602
0.0469458
0.0481536
0.0495712
0.0514001
0.0541388
0.059125
0.0706035
0.106451
0.269987
1.55901
0.0425693
0.0435982
0.0446276
0.0457187
0.0468646
0.0480774
0.0493669
0.0507551
0.0522828
0.0540354
0.05621
0.0592979
0.0646196
0.0763888
0.111996
0.269564
1.48255
0.0447697
0.0460174
0.0473114
0.0486818
0.050127
0.0516607
0.0532953
0.0550536
0.0569761
0.0591449
0.0617488
0.0652603
0.0709602
0.0829569
0.117933
0.268794
1.40698
0.0471167
0.0486531
0.0502447
0.0519401
0.053741
0.0556612
0.0577158
0.0599294
0.0623435
0.0650371
0.0681889
0.0722428
0.0784227
0.0906618
0.124764
0.26813
1.33305
0.0496609
0.0514985
0.053449
0.0555322
0.0577582
0.060145
0.0627125
0.0654894
0.0685201
0.0718826
0.0757453
0.0805189
0.0873494
0.0999308
0.13307
0.268381
1.26122
0.0523874
0.0546043
0.0569635
0.059503
0.0622375
0.0651896
0.0683862
0.0718633
0.0756716
0.0798929
0.0846888
0.0904386
0.0981928
0.111364
0.143609
0.270413
1.19184
0.05533
0.0579706
0.0608198
0.0639034
0.0672484
0.0708873
0.0748583
0.0792091
0.0840034
0.0893338
0.0953641
0.10245
0.111544
0.125742
0.157434
0.275565
1.12512
0.0584998
0.0616493
0.0650633
0.0687916
0.0728709
0.0773471
0.082275
0.0877216
0.0937723
0.100544
0.108217
0.117141
0.128187
0.144118
0.175994
0.285715
1.06121
0.0619227
0.0656483
0.0697364
0.0742342
0.0791993
0.0846994
0.0908146
0.0976424
0.105305
0.113959
0.123832
0.135298
0.149185
0.167945
0.201274
0.303428
1.00019
0.0656091
0.0700198
0.0748924
0.0803071
0.0863439
0.0931005
0.100696
0.109274
0.119017
0.130152
0.14299
0.157992
0.176014
0.199282
0.236127
0.332487
0.942089
0.0695856
0.0747796
0.0805858
0.087098
0.0944352
0.102741
0.11219
0.123002
0.13545
0.149882
0.166756
0.186714
0.210779
0.241134
0.284871
0.378841
0.886888
0.0738616
0.0799805
0.0868807
0.0947073
0.103628
0.113851
0.125639
0.139321
0.155318
0.174174
0.196607
0.223595
0.25657
0.298032
0.354275
0.452255
0.834537
0.0784616
0.0856436
0.0938436
0.103249
0.114104
0.126715
0.14147
0.158871
0.179572
0.204437
0.234628
0.271739
0.318044
0.377058
0.455354
0.569844
0.784942
0.0833907
0.0918194
0.101547
0.112851
0.126077
0.141672
0.160218
0.182482
0.209489
0.242628
0.283822
0.335779
0.402418
0.489622
0.60665
0.763347
0.73796
0.0886656
0.09853
0.110069
0.12366
0.139801
0.159148
0.182575
0.21126
0.246827
0.291543
0.348649
0.422881
0.521342
0.655003
0.841111
1.09481
0.693383
0.0941167
0.0987433
0.103506
0.108386
0.113359
0.118397
0.123461
0.128514
0.133514
0.138412
0.143159
0.147699
0.151979
0.15594
0.159529
0.162693
0.165382
0.167554
0.169171
0.170205
0.170614
0.170219
0.169203
0.167605
0.165451
0.162779
0.159632
0.156058
0.152111
0.147844
0.143315
0.138577
0.133686
0.128692
0.123642
0.11858
0.113544
0.108573
0.103691
0.0989229
0.0942877
0.105648
0.110791
0.11608
0.121485
0.12699
0.132552
0.138141
0.143707
0.14921
0.154591
0.159801
0.164776
0.169461
0.173792
0.177712
0.181162
0.184092
0.186454
0.18821
0.189328
0.189766
0.189342
0.188243
0.186506
0.184162
0.18125
0.177817
0.173912
0.169596
0.164924
0.15996
0.154759
0.149386
0.143889
0.138327
0.13274
0.127179
0.121676
0.116268
0.110975
0.105826
0.119314
0.125052
0.130937
0.136949
0.143057
0.149223
0.155406
0.161558
0.167628
0.17356
0.179292
0.184762
0.189904
0.194653
0.198945
0.202719
0.205919
0.208495
0.210406
0.211618
0.212088
0.211633
0.210439
0.208547
0.20599
0.202808
0.199051
0.194775
0.190041
0.184912
0.179453
0.17373
0.167807
0.161742
0.155594
0.149413
0.143248
0.137141
0.131128
0.125239
0.119498
0.135658
0.142077
0.148651
0.155357
0.162158
0.169014
0.175879
0.182699
0.189419
0.195975
0.202302
0.208332
0.213993
0.219214
0.223927
0.228067
0.231572
0.23439
0.236475
0.237793
0.238298
0.237808
0.236508
0.234442
0.231642
0.228155
0.224034
0.219337
0.21413
0.208482
0.202464
0.196146
0.189598
0.182884
0.176067
0.169205
0.16235
0.155548
0.148843
0.142269
0.135848
0.155397
0.162604
0.169972
0.177478
0.185079
0.192729
0.200375
0.207961
0.215423
0.222692
0.229698
0.236364
0.242614
0.248372
0.253562
0.258115
0.261965
0.265055
0.267338
0.268775
0.26932
0.268789
0.26737
0.265107
0.262035
0.258203
0.253668
0.248495
0.242751
0.236514
0.229859
0.222863
0.215601
0.208144
0.200562
0.192918
0.185269
0.177667
0.170165
0.162798
0.15559
0.179492
0.187618
0.195908
0.20434
0.212865
0.22143
0.229977
0.238442
0.246755
0.254841
0.262621
0.270013
0.276935
0.283302
0.289033
0.294054
0.298294
0.301692
0.304197
0.305769
0.306358
0.305783
0.304229
0.301743
0.298363
0.294141
0.289137
0.283422
0.27707
0.270161
0.26278
0.255009
0.24693
0.238622
0.23016
0.221615
0.213051
0.204527
0.1961
0.187813
0.179686
0.209262
0.218464
0.227828
0.237336
0.246932
0.256555
0.266142
0.27562
0.284911
0.293932
0.302598
0.310819
0.318504
0.325564
0.33191
0.337462
0.342144
0.34589
0.348645
0.350369
0.351007
0.350382
0.348676
0.345938
0.34221
0.337546
0.332012
0.325682
0.318636
0.310963
0.302753
0.294095
0.28508
0.275792
0.266317
0.256734
0.247113
0.23752
0.228018
0.218656
0.209454
0.246539
0.257003
0.267625
0.278387
0.289227
0.300076
0.310863
0.321508
0.331924
0.342019
0.351698
0.360864
0.369419
0.377266
0.384309
0.390462
0.395643
0.399781
0.402819
0.404713
0.405407
0.404726
0.402849
0.399827
0.395705
0.390542
0.384406
0.377379
0.369545
0.361002
0.351845
0.342173
0.332083
0.32167
0.311029
0.300246
0.2894
0.278564
0.267808
0.257189
0.246725
0.293917
0.305867
0.317962
0.330188
0.342475
0.354744
0.366917
0.378905
0.390613
0.401936
0.412772
0.423015
0.432557
0.441295
0.449126
0.455956
0.461698
0.466278
0.469632
0.471718
0.472473
0.471729
0.469661
0.466321
0.461757
0.45603
0.449217
0.441402
0.432675
0.423143
0.412909
0.402079
0.390758
0.379055
0.367072
0.354904
0.342638
0.330355
0.318135
0.306043
0.294093
0.355159
0.368854
0.382673
0.396604
0.41057
0.424481
0.438248
0.451775
0.464957
0.47768
0.489829
0.501288
0.511944
0.521683
0.530397
0.537984
0.544354
0.549426
0.553132
0.555429
0.556252
0.555439
0.553158
0.549464
0.544407
0.538053
0.530481
0.521782
0.512051
0.501405
0.489951
0.477807
0.465088
0.451911
0.43839
0.424628
0.41072
0.396757
0.382832
0.369017
0.35532
0.435843
0.451578
0.467402
0.483307
0.499205
0.514997
0.530581
0.545853
0.5607
0.574996
0.588616
0.601434
0.613327
0.624175
0.633864
0.642285
0.649343
0.654953
0.659044
0.661571
0.662467
0.661579
0.659067
0.654986
0.64939
0.642346
0.633939
0.624263
0.61342
0.601535
0.58872
0.575105
0.560813
0.545973
0.530707
0.515127
0.499338
0.483441
0.467542
0.451722
0.435986
0.544477
0.562562
0.580681
0.598831
0.616915
0.634822
0.652437
0.669646
0.686329
0.70235
0.717576
0.73187
0.745102
0.757142
0.767875
0.777187
0.784977
0.791157
0.795654
0.798424
0.799396
0.798429
0.795674
0.791185
0.785016
0.777238
0.767939
0.757218
0.745177
0.731953
0.71766
0.70244
0.686423
0.669746
0.652543
0.634931
0.617027
0.598945
0.580799
0.562683
0.544597
0.694437
0.715144
0.735804
0.756416
0.776875
0.797063
0.816851
0.836113
0.854728
0.872548
0.889436
0.905248
0.919848
0.933097
0.944884
0.955088
0.963608
0.970353
0.975252
0.978258
0.979304
0.978262
0.975268
0.970375
0.963638
0.955128
0.944934
0.933159
0.919903
0.905311
0.8895
0.872619
0.8548
0.836193
0.816934
0.797148
0.776962
0.756504
0.735896
0.715238
0.694529
0.907506
0.930939
0.954189
0.977279
1.0001
1.02252
1.04441
1.06563
1.08607
1.10556
1.12397
1.14115
1.15697
1.17129
1.184
1.19497
1.20411
1.21134
1.21657
1.21978
1.22088
1.21978
1.21659
1.21135
1.20414
1.195
1.18403
1.17133
1.15701
1.14119
1.12401
1.10561
1.08612
1.06569
1.04447
1.02258
1.00016
0.977341
0.954254
0.931003
0.907571
1.22063
1.24639
1.27173
1.29677
1.32138
1.34545
1.36885
1.39141
1.41305
1.4336
1.45294
1.47093
1.48743
1.50232
1.5155
1.52685
1.53629
1.54373
1.54911
1.55238
1.55351
1.55239
1.54911
1.54374
1.5363
1.52687
1.51552
1.50235
1.48745
1.47095
1.45297
1.43363
1.41308
1.39145
1.36888
1.34548
1.32142
1.2968
1.27177
1.24643
1.22066
1.69943
1.72585
1.75136
1.77642
1.80091
1.82472
1.84773
1.86982
1.89088
1.91079
1.92944
1.94671
1.9625
1.9767
1.98922
1.99998
2.0089
2.01591
2.02097
2.02404
2.02509
2.02404
2.02097
2.01592
2.0089
1.99999
1.98923
1.97671
1.96251
1.94672
1.92945
1.9108
1.89089
1.86983
1.84774
1.82473
1.80092
1.77643
1.75137
1.72586
1.69944
2.46712
2.48918
2.50938
2.52906
2.54816
2.5666
2.5843
2.6012
2.6172
2.63225
2.64627
2.65919
2.67095
2.68148
2.69073
2.69865
2.7052
2.71034
2.71403
2.71627
2.71702
2.71627
2.71403
2.71034
2.7052
2.69866
2.69074
2.68148
2.67095
2.65919
2.64627
2.63225
2.61721
2.6012
2.58431
2.5666
2.54817
2.52907
2.50938
2.48918
2.46712
0.44109
0.116018
0.0233997
0.0124206
0.0107938
0.0107412
0.0110734
0.0116271
0.0122798
0.0130234
0.0138503
0.0147679
0.0158032
0.0170185
0.0184924
0.0202799
0.0223446
0.528019
0.142527
0.0256325
0.0129317
0.0112917
0.01127
0.0115989
0.0121319
0.0127542
0.0134635
0.0142493
0.0151099
0.0160546
0.0171322
0.0184321
0.0200669
0.0221141
0.617956
0.169241
0.0274862
0.0135524
0.0118627
0.0118331
0.0121468
0.0126522
0.0132438
0.0139194
0.0146671
0.0154793
0.016351
0.0173041
0.0184042
0.0197819
0.0216703
0.719452
0.1871
0.0286344
0.014223
0.0125017
0.0124354
0.012728
0.0132028
0.0137635
0.014405
0.0151182
0.0158915
0.016711
0.0175736
0.018493
0.0194937
0.0206163
0.826987
0.193599
0.0292964
0.0149531
0.0131919
0.0130779
0.013343
0.0137858
0.0143162
0.0149236
0.0156032
0.0163454
0.0171326
0.017953
0.018809
0.019708
0.0206598
0.937348
0.19039
0.0297014
0.0157318
0.0139311
0.0137632
0.013997
0.0144074
0.0149071
0.0154806
0.0161256
0.0168374
0.0175983
0.0183894
0.0192051
0.0200522
0.0209182
1.04606
0.183038
0.0300279
0.0165975
0.0147286
0.0144969
0.0146963
0.0150739
0.0155423
0.0160818
0.0166919
0.0173712
0.0181049
0.0188698
0.0196523
0.0204628
0.0213421
1.15084
0.175345
0.0305013
0.0175278
0.0155896
0.0152868
0.0154478
0.0157921
0.0162289
0.0167346
0.0173088
0.017953
0.0186563
0.0193941
0.0201398
0.0208775
0.021618
1.25124
0.169418
0.0312631
0.018571
0.0165249
0.0161435
0.0162606
0.0165698
0.0169744
0.0174461
0.0179819
0.0185866
0.019257
0.0199738
0.0207074
0.0214237
0.0220594
1.3477
0.166305
0.0324047
0.0197475
0.0175482
0.0170775
0.0171434
0.0174154
0.0177866
0.0182222
0.0187167
0.0192759
0.0199044
0.0205934
0.0213226
0.0220776
0.0228718
1.43954
0.166293
0.0339879
0.0210787
0.0186755
0.0180992
0.0181064
0.0183363
0.0186718
0.0190692
0.0195201
0.0200297
0.0206068
0.0212498
0.0219377
0.0226346
0.0233266
1.52959
0.169044
0.0360537
0.0225838
0.0199215
0.0192164
0.0191576
0.01934
0.0196362
0.0199934
0.0203996
0.0208581
0.0213807
0.0219755
0.0226322
0.0233016
0.0238708
1.61689
0.174085
0.0385695
0.0242693
0.0212982
0.0204406
0.020306
0.0204337
0.0206871
0.0210022
0.0213622
0.021767
0.0222291
0.0227657
0.0233903
0.0240968
0.0248561
1.70059
0.180812
0.0415605
0.0261614
0.0228231
0.021784
0.0215613
0.021626
0.021832
0.0221023
0.0224148
0.0227645
0.0231605
0.0236205
0.0241655
0.0247954
0.0254834
1.77681
0.188129
0.0450224
0.0282682
0.0245096
0.0232593
0.0229346
0.022927
0.0230794
0.023301
0.0235645
0.0238595
0.0241903
0.0245737
0.025039
0.0255907
0.0261251
1.84002
0.194611
0.0489629
0.0306036
0.0263678
0.0248779
0.0244366
0.0243476
0.0244383
0.024606
0.0248169
0.025056
0.0253219
0.0256293
0.0260149
0.0265331
0.0272055
1.88949
0.201866
0.0530489
0.0331789
0.028412
0.0266568
0.0260807
0.0259
0.0259197
0.0260264
0.0261792
0.0263592
0.0265588
0.0267861
0.0270654
0.0274541
0.0280189
1.92122
0.209397
0.0574957
0.0360162
0.0306541
0.0286131
0.0278828
0.0275987
0.0275372
0.027574
0.0276608
0.0277767
0.0279083
0.0280594
0.0282406
0.0284972
0.0288131
1.93567
0.217202
0.0623362
0.0391408
0.0331121
0.0307665
0.0298625
0.0294616
0.029306
0.029262
0.0292727
0.0293158
0.0293737
0.0294488
0.0295404
0.0297096
0.0299933
1.92869
0.225386
0.0676304
0.0425757
0.035814
0.0331406
0.0320416
0.0315095
0.0312447
0.0311059
0.0310278
0.030986
0.0309594
0.0309509
0.030944
0.0309962
0.0310882
1.89756
0.234159
0.0733963
0.0463373
0.0387855
0.0357608
0.0344458
0.0337655
0.0333761
0.0331266
0.0329444
0.0328031
0.0326787
0.0325761
0.0324698
0.0324159
0.0322686
1.84658
0.244768
0.0797627
0.050481
0.042081
0.0386682
0.0371112
0.0362617
0.0357276
0.0353474
0.0350427
0.0347834
0.034545
0.0343326
0.0341205
0.0339599
0.0336976
1.77966
0.255957
0.0868056
0.0550559
0.045722
0.0419063
0.0400814
0.0390359
0.0383324
0.0377971
0.0373477
0.036948
0.0365764
0.0362342
0.0358971
0.0355978
0.0352356
1.70739
0.262971
0.0936173
0.0598889
0.049706
0.0454993
0.043395
0.0421279
0.0412281
0.0405102
0.0398881
0.0393232
0.0387946
0.0382981
0.0378127
0.0373669
0.036895
1.63207
0.267248
0.0999663
0.0649434
0.0540818
0.0495049
0.0471103
0.0455921
0.0444628
0.0435271
0.0426984
0.0419369
0.0412213
0.0405447
0.0398927
0.0392879
0.0386524
1.55547
0.268358
0.105866
0.070298
0.0589459
0.0540179
0.0513105
0.0495013
0.0480971
0.0468994
0.0458218
0.0448242
0.0438848
0.0429957
0.0421451
0.0413412
0.0405266
1.47899
0.268395
0.111546
0.0761279
0.0644436
0.0591653
0.0561025
0.0539451
0.0522052
0.0506878
0.0493083
0.0480265
0.0468204
0.0456806
0.0445932
0.0435619
0.0425644
1.40367
0.267899
0.117603
0.0827386
0.070787
0.0651161
0.0616239
0.0590348
0.0568778
0.054966
0.0532169
0.0515904
0.0500642
0.0486262
0.0472631
0.0459822
0.0447437
1.33013
0.267628
0.124541
0.0904683
0.0782482
0.0720858
0.0680468
0.0649079
0.0622254
0.0598225
0.0576186
0.0555728
0.0536605
0.0518665
0.0501784
0.0485915
0.0470657
1.25878
0.26816
0.132922
0.0997538
0.0871702
0.0803484
0.0755859
0.0717347
0.0683831
0.065364
0.0625975
0.0600392
0.0576608
0.0554431
0.0533682
0.0514226
0.0495935
1.18988
0.270415
0.143504
0.111193
0.0980048
0.0902529
0.0845119
0.0797269
0.0755168
0.0717204
0.0682542
0.0650672
0.0621241
0.0593983
0.0568657
0.054515
0.0523181
1.12363
0.27573
0.157353
0.125567
0.111343
0.102248
0.0951704
0.0891509
0.0838321
0.07905
0.0747101
0.070749
0.0671194
0.0637833
0.0607095
0.0578732
0.0552319
1.06013
0.285974
0.175927
0.143935
0.127972
0.116924
0.108007
0.100345
0.0935863
0.0875474
0.0821115
0.0771938
0.0727273
0.0686575
0.0649384
0.061527
0.058394
0.999453
0.303675
0.201189
0.167745
0.148956
0.135067
0.123609
0.113748
0.105105
0.0974541
0.0906367
0.0845319
0.0790419
0.0740867
0.0695981
0.0655228
0.0618156
0.941619
0.332684
0.236014
0.199065
0.175772
0.157749
0.142757
0.12993
0.118805
0.109073
0.100505
0.0929203
0.0861739
0.0801471
0.0747423
0.0698797
0.065476
0.886614
0.378948
0.284722
0.240902
0.210528
0.186465
0.166516
0.149651
0.135228
0.12279
0.111989
0.102549
0.0942541
0.086927
0.0804252
0.0746276
0.0694413
0.834393
0.45224
0.354091
0.297792
0.256318
0.223345
0.196363
0.173938
0.155089
0.139102
0.125429
0.113651
0.103438
0.0945271
0.0867095
0.0798173
0.0737224
0.784878
0.569725
0.455149
0.37682
0.317799
0.271494
0.234386
0.2042
0.179341
0.158647
0.141254
0.126508
0.113907
0.103062
0.0936658
0.0854794
0.0782962
0.737938
0.763165
0.606447
0.489404
0.402193
0.335552
0.283594
0.242401
0.209264
0.182262
0.160003
0.141464
0.125876
0.112659
0.101364
0.0916418
0.0832216
0.693378
1.09464
0.84096
0.654843
0.521169
0.422697
0.348455
0.291341
0.246621
0.211053
0.182368
0.158944
0.139602
0.123467
0.109884
0.0983534
0.0885043
0.033918
0.0670691
0.167773
0.426199
0.964491
1.90948
3.3212
4.86974
6.18966
7.04984
8.53119
13.0078
9.32198
4.73578
2.03897
0.816162
0.313628
0.117592
0.0480694
0.0262064
0.0414001
0.0900415
0.23317
0.586351
1.30331
2.55757
4.3471
6.14396
7.11234
7.32445
9.02756
14.2408
11.0212
5.96805
2.64626
1.07096
0.418774
0.157901
0.0618735
0.0303828
0.0524836
0.123807
0.326046
0.806796
1.76962
3.43844
5.73779
7.7153
8.34665
7.58633
9.4202
15.4989
12.9649
7.4905
3.44427
1.41347
0.562197
0.215017
0.0821329
0.0365477
0.0690626
0.173334
0.457127
1.11101
2.41008
4.63487
7.45557
9.50894
9.8389
7.7442
9.68343
16.6371
15.0651
9.33485
4.49235
1.87617
0.757988
0.296008
0.112116
0.0458556
0.0940698
0.245759
0.641614
1.5336
3.29432
6.17682
9.42042
11.4042
11.023
7.7424
9.74843
17.5621
17.1356
11.4469
5.81439
2.50138
1.02603
0.410798
0.156771
0.060192
0.131957
0.351181
0.901918
2.11874
4.49012
8.01135
11.4869
13.3034
11.7598
7.69606
9.68206
18.2541
19.0604
13.743
7.53344
3.35263
1.39502
0.57327
0.223481
0.0826236
0.189467
0.50412
1.27064
2.93603
6.02066
9.97867
13.5074
15.0034
12.117
7.61322
9.58254
18.7476
20.8141
15.993
9.54663
4.50164
1.90562
0.803444
0.323209
0.118164
0.276743
0.726301
1.79347
4.07858
7.79615
11.8898
15.3892
16.2863
12.2046
7.51964
9.49121
19.0354
21.9187
17.8949
11.6665
5.98483
2.614
1.13039
0.472137
0.17498
0.409153
1.05153
2.53996
5.54527
9.61664
13.6471
17.0266
16.9273
12.0501
7.43432
9.42819
19.1632
22.5725
19.2383
13.5494
7.75304
3.60711
1.5963
0.694448
0.266338
0.610282
1.52817
3.62362
7.24183
11.2943
15.23
18.1147
16.8751
11.6873
7.3716
9.39734
19.1681
22.851
19.9943
14.8749
9.53708
4.93285
2.25957
1.02712
0.41374
0.917781
2.23902
5.03865
8.92906
12.7598
16.5762
18.4047
16.3083
11.1788
7.34292
9.41858
18.9902
22.7238
20.2481
15.5279
10.926
6.51856
3.22248
1.52602
0.652422
1.39486
3.30462
6.68672
10.401
14.0093
17.2846
18.0065
15.3672
10.653
7.41745
9.52276
18.5975
22.0328
20.0667
15.6338
11.6355
8.0431
4.5654
2.27511
1.04103
2.14943
4.73904
8.2803
11.5328
14.9446
17.1351
16.9304
14.2413
10.2007
7.64601
9.74207
17.9073
20.7419
19.3942
15.4577
11.7184
9.01638
6.15292
3.4303
1.67641
3.30707
6.41669
9.51719
12.3447
15.1852
16.4277
15.6609
13.1523
9.87685
7.9912
10.0974
16.8235
18.962
17.9754
15.0777
11.5588
9.28377
7.52931
5.04499
2.7298
4.92114
7.91159
10.2062
12.6987
14.6972
15.3226
14.3293
12.277
9.8054
8.49894
10.4437
15.3092
16.8633
16.1652
14.1698
11.3854
9.14184
8.20574
6.88648
4.49492
6.65327
8.71888
10.4377
12.3421
13.5773
13.8271
13.1745
11.7402
10.0601
9.22172
10.7606
13.7423
14.7098
14.1733
12.838
10.943
8.99571
8.15272
8.14574
6.91612
7.65724
8.81674
10.1699
11.4418
12.3061
12.5909
12.3899
11.6683
10.7218
10.2469
11.1681
12.5553
12.8961
12.3521
11.3781
10.1607
8.84583
7.9733
8.37644
9.03119
7.91521
8.63077
9.39869
10.2705
11.0646
11.7215
12.0625
12.047
11.8131
11.6502
11.9243
12.1839
11.9353
11.2403
10.3299
9.43324
8.57567
7.95688
8.12908
9.38849
7.97945
8.39217
8.97647
9.73771
10.7509
11.7365
12.5585
13.1244
13.4347
13.4941
13.3871
13.0197
12.3585
11.4715
10.4829
9.56466
8.95255
8.55342
8.41416
8.83734
10.2051
12.1014
13.6094
15.2471
17.3443
19.2392
20.7245
21.764
22.4358
22.6954
22.4863
21.8934
20.8881
19.4994
17.8381
16.1385
14.7059
13.3524
11.9538
10.0961
7.61945
9.67279
11.1929
8.85804
4.67562
2.24586
1.16082
0.630869
0.357284
0.211331
0.131245
0.0862408
0.0603578
0.0451063
0.035877
0.0301214
0.0264036
0.0239038
0.0221409
0.0208364
4.72607
8.25745
10.9925
5.76061
2.48994
1.14935
0.572643
0.302758
0.170471
0.103033
0.0674731
0.0481414
0.0373034
0.0310134
0.0272074
0.0247847
0.0231459
0.021963
0.0210464
0.0202946
2.92691
9.74679
8.45656
3.38554
1.33399
0.597269
0.291322
0.15514
0.0908175
0.0590482
0.0427711
0.0341215
0.0293217
0.0265059
0.0247336
0.0235225
0.0226189
0.0218909
0.0212604
0.0206922
2.3304
11.7034
5.50405
1.87375
0.724091
0.320158