/*--------------------------------*- C++ -*----------------------------------*\
  =========                 |
  \\      /  F ield         | OpenFOAM: The Open Source CFD Toolbox
   \\    /   O peration     | Website:  https://openfoam.org
    \\  /    A nd           | Version:  6
     \\/     M anipulation  |
\*---------------------------------------------------------------------------*/
FoamFile
{
    version     2.0;
    format      ascii;
    class       volScalarField;
    location    "4.43";
    object      nut;
}
// * * * * * * * * * * * * * * * * * * * * * * * * * * * * * * * * * * * * * //

dimensions      [0 2 -1 0 0 0 0];

internalField   nonuniform List<scalar> 
4214
(
0.00247243
0.00150671
0.00112283
0.00105702
0.00109779
0.00111686
0.00110238
0.0010797
0.00107977
0.0011354
0.00127729
0.00153045
0.00191849
0.0024529
0.00315228
0.00418702
0.00603108
0.00958056
0.0158025
0.024793
0.0349352
0.0432233
0.048054
0.051143
0.0532823
0.0552945
0.0581654
0.0623984
0.0665514
0.0665447
0.0579927
0.0422301
0.0256251
0.0131789
0.00606224
0.00280491
0.00156288
0.00115216
0.00107042
0.00136936
0.00228629
0.0014728
0.00112749
0.00103775
0.00106995
0.00109837
0.00109185
0.00106831
0.00105706
0.00109554
0.00122205
0.00147233
0.0018682
0.00242881
0.00312139
0.0038432
0.00463177
0.00573099
0.00779533
0.0119226
0.019004
0.0285061
0.0380873
0.0456826
0.0511829
0.0538611
0.0552316
0.0575646
0.0618401
0.0666177
0.0676597
0.0606671
0.0457555
0.0289261
0.0155172
0.0073762
0.00339723
0.00177276
0.00122621
0.00105426
0.00104028
0.00121451
0.0011545
0.00105962
0.00105975
0.0010833
0.00108303
0.0010625
0.0010475
0.00107761
0.00120095
0.00146403
0.00191327
0.00256978
0.00345181
0.00447042
0.00534309
0.00601855
0.00661101
0.00753712
0.00967324
0.0142009
0.0215893
0.0305442
0.0388328
0.0451172
0.049281
0.0521883
0.0557198
0.0609043
0.0665036
0.0685703
0.0627959
0.0490686
0.0323017
0.0180765
0.00892359
0.00415604
0.0020734
0.00131629
0.00109438
0.00102029
0.00103221
0.00106309
0.00105309
0.0010721
0.00107576
0.00105971
0.0010442
0.00106811
0.00118722
0.00146475
0.00196377
0.00275205
0.00383399
0.00521903
0.0067605
0.00790576
0.00852185
0.00870257
0.00878259
0.00942576
0.0117171
0.0167125
0.0241817
0.0323827
0.0394594
0.044764
0.0489683
0.0535588
0.0595557
0.0659949
0.0691442
0.0646464
0.0519701
0.0355938
0.0208826
0.0107136
0.00510887
0.00248925
0.00145523
0.00113453
0.00104174
0.00100505
0.00105288
0.0010655
0.00107016
0.00105786
0.00104277
0.00106
0.00116886
0.00144338
0.00197073
0.00284265
0.00415602
0.00587998
0.00800518
0.0102015
0.0117229
0.0122573
0.0119645
0.0112502
0.0106945
0.0111618
0.0137981
0.0191895
0.0264704
0.0338934
0.0401772
0.0454838
0.0510298
0.0577596
0.065021
0.0692835
0.0661291
0.0545859
0.0386316
0.023616
0.0127281
0.00627746
0.00303367
0.00166431
0.00119121
0.0010669
0.00102061
0.00106386
0.00106656
0.00105686
0.00104248
0.0010525
0.00114401
0.00139681
0.00191046
0.002811
0.00422935
0.00629124
0.00888742
0.0119973
0.0148932
0.016857
0.0172564
0.0163465
0.0147687
0.0131212
0.0121296
0.0127501
0.0159088
0.021581
0.028597
0.0354695
0.0417346
0.0481735
0.0555684
0.0636008
0.0689918
0.067227
0.0568988
0.04151
0.02632
0.0147628
0.00755576
0.00372678
0.00195962
0.00128201
0.00109111
0.0010398
0.00106548
0.00105638
0.00104291
0.00104603
0.00111551
0.00132897
0.00179069
0.00263944
0.00405468
0.00621105
0.009253
0.0129377
0.0172356
0.0208103
0.0231942
0.0234287
0.0217128
0.0191691
0.0164427
0.0141943
0.0131992
0.0143318
0.0180975
0.0240206
0.0308621
0.037731
0.0448479
0.0529695
0.0617723
0.068256
0.06788
0.0588415
0.0441659
0.0289454
0.0168314
0.00891154
0.00448607
0.00232868
0.00142394
0.00112487
0.0010539
0.00105672
0.00104367
0.00104128
0.00108752
0.00125089
0.00162958
0.00236214
0.00363984
0.00570762
0.00878518
0.0130248
0.0180008
0.0236568
0.0278816
0.030478
0.0306044
0.0279071
0.0243758
0.0206046
0.0171337
0.0147637
0.0142155
0.0161182
0.0205562
0.0267491
0.0337829
0.041414
0.0500742
0.0596135
0.0671083
0.0680645
0.0603673
0.0465274
0.0314238
0.0188767
0.0103133
0.00530991
0.00274827
0.0016023
0.00118081
0.00106691
0.00104471
0.00103842
0.00106406
0.0011749
0.00145528
0.00202831
0.0030765
0.00485405
0.00768475
0.0118392
0.0174801
0.0239587
0.0310845
0.0358446
0.0384975
0.0384304
0.0347376
0.0302564
0.0252462
0.0206938
0.0171543
0.0152332
0.0155203
0.0183707
0.0234817
0.030164
0.0380193
0.047175
0.0572821
0.0656483
0.067826
0.0614425
0.0485181
0.03367
0.0208259
0.0117103
0.00616901
0.00320953
0.00181442
0.00125565
0.00108512
0.00103736
0.00104754
0.00111191
0.00129492
0.00169649
0.00246889
0.00384573
0.00615432
0.00981754
0.0151705
0.022405
0.030568
0.0391478
0.0442958
0.046823
0.0461916
0.0418885
0.0366156
0.0304053
0.0246806
0.0200915
0.0170801
0.0161086
0.0174858
0.0212662
0.0271254
0.0348805
0.0443688
0.0549624
0.0640557
0.0672764
0.0620725
0.0500675
0.0355868
0.0225898
0.0130379
0.00702457
0.00369296
0.00205256
0.00135035
0.00111083
0.00103837
0.00106836
0.00116973
0.00141498
0.00191937
0.00286559
0.00454372
0.00736552
0.011883
0.0185117
0.0274946
0.0373926
0.0473292
0.0526182
0.0546576
0.0531003
0.0483452
0.0430118
0.0358502
0.0290745
0.0235163
0.0195727
0.0176366
0.0178878
0.0204456
0.0253318
0.0325916
0.0420902
0.053031
0.0626384
0.0665993
0.0623083
0.0511197
0.0370711
0.0240662
0.0142181
0.00782862
0.00417378
0.00230612
0.00146209
0.00114635
0.00104475
0.00108942
0.00121406
0.0014961
0.00206401
0.0031283
0.00503968
0.00830386
0.0136399
0.0215473
0.0323537
0.0439385
0.0550827
0.0600936
0.0611493
0.0584242
0.0532466
0.0479655
0.0412655
0.0337251
0.0273075
0.0226022
0.0198621
0.019264
0.0208746
0.0249333
0.0317851
0.0412819
0.052329
0.0619794
0.066087
0.0622375
0.0516346
0.0380224
0.0251469
0.0151664
0.00852878
0.00462503
0.00256393
0.00158751
0.00119261
0.00105027
0.00109895
0.00122634
0.00151068
0.00208926
0.00319304
0.00523488
0.00881406
0.0148638
0.023938
0.0365635
0.0495891
0.0618065
0.0661405
0.0657435
0.061758
0.0561718
0.0510477
0.0451812
0.038706
0.0314376
0.0260258
0.0226266
0.0214398
0.022442
0.0260808
0.0328156
0.0423058
0.0531034
0.0622358
0.0658518
0.0618742
0.0515481
0.0383363
0.0257286
0.0158035
0.00907947
0.00502493
0.0028189
0.00172501
0.00125096
0.00105133
0.00109311
0.00120325
0.00145536
0.00199024
0.00304597
0.00509756
0.00881133
0.0154106
0.0253761
0.0397884
0.0538492
0.0670758
0.0704363
0.068287
0.0631625
0.0572109
0.052466
0.047701
0.042671
0.0365316
0.029922
0.0260324
0.0243805
0.0252915
0.0290336
0.0359298
0.045348
0.0555525
0.0635039
0.0658908
0.0611723
0.0507815
0.0379048
0.0257253
0.0160732
0.00945936
0.00536583
0.0030735
0.00187668
0.00132436
0.00104933
0.00107766
0.00115769
0.00135161
0.00180044
0.00272696
0.00468011
0.00830323
0.0152929
0.0256383
0.0419045
0.0563352
0.0706958
0.0730396
0.0689992
0.0630205
0.0568049
0.0527348
0.0493935
0.0459652
0.0414824
0.0355012
0.030579
0.0284715
0.0298746
0.034308
0.0415186
0.0505415
0.0594946
0.0654696
0.0658159
0.0597479
0.0490605
0.0365639
0.0250828
0.0159497
0.00968479
0.00565122
0.00333982
0.0020437
0.0014161
0.0010482
0.00106267
0.00111081
0.00123461
0.00157963
0.00230951
0.00411612
0.00735039
0.0147318
0.0245403
0.0430773
0.0568548
0.0726765
0.0744108
0.0682446
0.0619585
0.0554641
0.05214
0.0503985
0.0487343
0.0463713
0.0429495
0.038628
0.0359755
0.0376378
0.0424788
0.0493943
0.0571801
0.0639352
0.0670154
0.0646422
0.0568594
0.0460084
0.034078
0.0238048
0.0154007
0.00980476
0.00584944
0.00362725
0.00220339
0.00152404
0.00105064
0.00105541
0.00108027
0.0011364
0.00139628
0.00185705
0.00362035
0.00596323
0.0142255
0.0218137
0.0437817
0.055356
0.0729851
0.0753689
0.0663976
0.0605568
0.0534489
0.0505357
0.0502345
0.0501601
0.0507665
0.0504574
0.0497364
0.0491108
0.0502723
0.0537856
0.0587171
0.0638138
0.0671715
0.0661611
0.0607548
0.0512068
0.0412006
0.0300537
0.0220806
0.0141987
0.00992353
0.00574916
0.00394837
0.00224875
0.00164118
0.00121014
0.00119053
0.00115256
0.00111832
0.00109256
0.00107434
0.00106176
0.00105316
0.00104682
0.00104087
0.00103201
0.00101732
0.00100126
0.00101327
0.0011331
0.00160493
0.004441
0.00109595
0.00107911
0.00106477
0.00105423
0.0010474
0.00104328
0.00104079
0.00103891
0.00103642
0.00103165
0.00102239
0.00100756
0.000994247
0.0010125
0.00113109
0.00150194
0.00406606
0.00105203
0.0010466
0.00104161
0.00103823
0.00103635
0.00103548
0.00103504
0.00103421
0.00103185
0.00102634
0.00101591
0.00100075
0.000989735
0.00101177
0.00112447
0.00143793
0.00370276
0.00104563
0.00104054
0.00103717
0.00103528
0.00103452
0.00103443
0.00103442
0.0010336
0.00103069
0.00102402
0.00101209
0.000996216
0.000986609
0.0010102
0.00111292
0.00137084
0.00338698
0.00104796
0.00104231
0.00103891
0.00103729
0.00103693
0.00103724
0.00103743
0.0010364
0.00103264
0.00102438
0.00101039
0.000993116
0.00098371
0.00100656
0.00109703
0.0013088
0.00311795
0.00104987
0.00104523
0.00104258
0.00104166
0.00104199
0.00104289
0.0010434
0.00104215
0.00103734
0.00102708
0.00101057
0.000991304
0.000980877
0.00100113
0.00107918
0.00126062
0.00290175
0.00105777
0.00105234
0.00104961
0.00104906
0.00105
0.00105154
0.00105245
0.00105099
0.00104511
0.00103262
0.00101334
0.000991535
0.000978839
0.000995042
0.00106245
0.00124021
0.00273805
0.00106101
0.00105736
0.00105605
0.00105684
0.00105911
0.00106188
0.00106372
0.00106269
0.00105641
0.0010425
0.00102075
0.000995729
0.000979349
0.000990525
0.0010508
0.00125055
0.00261839
0.00107007
0.00106627
0.00106535
0.00106699
0.00107047
0.00107468
0.00107823
0.00107887
0.00107331
0.00105879
0.00103484
0.00100615
0.000984942
0.000990338
0.00104681
0.00127597
0.00252283
0.0010727
0.00107095
0.00107202
0.00107572
0.0010815
0.0010884
0.00109465
0.00109767
0.00109426
0.00108109
0.00105679
0.00102529
0.0009987
0.00099735
0.00105184
0.00129922
0.00244007
0.00108157
0.00108026
0.00108192
0.00108649
0.00109335
0.00110173
0.00111031
0.00111682
0.00111781
0.00110908
0.00108764
0.00105547
0.00102362
0.00101401
0.00106492
0.00132001
0.00237819
0.00108329
0.00108369
0.00108698
0.00109304
0.00110153
0.00111204
0.00112376
0.00113491
0.00114221
0.00114098
0.00112639
0.00109724
0.00106166
0.00104222
0.00108483
0.00134426
0.00234537
0.0010897
0.0010902
0.00109354
0.00109972
0.00110873
0.00112058
0.00113497
0.00115067
0.00116502
0.0011734
0.00116961
0.00114858
0.00111311
0.00108353
0.00111278
0.00137621
0.00234069
0.00109125
0.00109323
0.00109747
0.00110414
0.00111366
0.00112656
0.00114313
0.00116286
0.00118393
0.00120254
0.00121223
0.00120472
0.00117562
0.0011384
0.00115017
0.00141465
0.00235909
0.00109551
0.00109747
0.00110126
0.0011074
0.0011167
0.00113004
0.00114809
0.0011709
0.00119756
0.00122549
0.00124911
0.0012588
0.00124335
0.00120467
0.00119757
0.00145687
0.00239511
0.00109696
0.00109951
0.00110303
0.00110866
0.0011176
0.00113102
0.00114988
0.00117471
0.00120547
0.00124081
0.00127667
0.00130402
0.0013076
0.0012762
0.00125338
0.0015
0.00244317
0.00109922
0.00110093
0.00110342
0.00110823
0.00111657
0.00112965
0.00114863
0.00117444
0.00120777
0.00124831
0.00129352
0.001336
0.00135968
0.00134327
0.00131291
0.00154182
0.0024979
0.00109961
0.00110042
0.00110209
0.00110619
0.00111381
0.00112621
0.00114465
0.00117046
0.0012049
0.00124851
0.00129997
0.00135359
0.00139435
0.00139625
0.00136895
0.00158075
0.00255425
0.00109886
0.00109851
0.00109949
0.0011029
0.00110966
0.00112103
0.00113838
0.00116333
0.00119755
0.00124225
0.0012971
0.00135773
0.00141069
0.00142937
0.00141423
0.00161595
0.0026073
0.00109657
0.00109553
0.00109599
0.00109869
0.00110451
0.00111462
0.00113046
0.00115383
0.00118667
0.00123069
0.00128633
0.00135025
0.00141041
0.00144218
0.00144646
0.00164576
0.00265184
0.00109332
0.00109185
0.00109171
0.00109362
0.00109835
0.00110701
0.00112103
0.00114225
0.00117281
0.00121481
0.00126939
0.00133439
0.00139978
0.00144513
0.00147663
0.00169175
0.00269717
0.00108959
0.00108761
0.00108683
0.00108783
0.00109133
0.00109834
0.00111024
0.00112884
0.0011564
0.00119538
0.0012477
0.00131282
0.00138391
0.00144653
0.00151246
0.00176371
0.00275735
0.00108583
0.00108332
0.00108181
0.00108186
0.00108405
0.00108931
0.00109891
0.00111459
0.00113863
0.00117379
0.00122282
0.00128714
0.00136409
0.00144673
0.00155319
0.00184978
0.00283542
0.00108221
0.00107921
0.00107707
0.00107621
0.00107716
0.0010807
0.00108798
0.00110063
0.00112086
0.00115165
0.00119651
0.00125892
0.00134093
0.00144418
0.00159461
0.00194643
0.00293395
0.00107917
0.00107578
0.00107308
0.00107144
0.00107128
0.00107326
0.00107837
0.00108806
0.00110444
0.00113055
0.00117052
0.00122974
0.001315
0.00143711
0.00163208
0.00204767
0.00305462
0.00107678
0.00107316
0.00107014
0.00106796
0.00106695
0.00106764
0.00107086
0.00107786
0.00109057
0.00111195
0.00114652
0.00120121
0.00128708
0.00142415
0.00166074
0.00214358
0.00319817
0.00107542
0.00107179
0.00106862
0.00106615
0.00106461
0.00106437
0.0010661
0.00107083
0.00108024
0.00109709
0.00112601
0.00117494
0.00125836
0.00140487
0.00167755
0.00223245
0.00336455
0.00107502
0.0010716
0.00106864
0.00106623
0.00106453
0.00106381
0.00106453
0.00106752
0.00107417
0.00108693
0.00111025
0.00115248
0.00123044
0.00137993
0.00168043
0.00230889
0.00355285
0.00107587
0.00107294
0.0010704
0.00106837
0.00106689
0.00106613
0.00106638
0.00106823
0.00107277
0.00108208
0.00110016
0.00113521
0.00120509
0.00135082
0.0016683
0.00236799
0.00376126
0.00107783
0.00107563
0.00107389
0.00107259
0.00107173
0.00107137
0.00107167
0.00107301
0.00107618
0.00108279
0.00109627
0.00112414
0.00118406
0.00131976
0.00164149
0.00240487
0.00398705
0.00108113
0.00107993
0.0010792
0.00107893
0.00107904
0.0010795
0.00108034
0.00108177
0.00108427
0.00108904
0.00109877
0.00111996
0.00116892
0.0012894
0.00160176
0.00241432
0.0042265
0.00108574
0.00108576
0.00108631
0.00108737
0.00108878
0.00109041
0.00109223
0.00109426
0.00109678
0.00110054
0.00110753
0.00112294
0.00116093
0.0012626
0.00155231
0.00239194
0.00447473
0.00109164
0.00109323
0.00109536
0.00109792
0.00110089
0.00110402
0.00110715
0.00111023
0.00111333
0.00111687
0.00112216
0.00113302
0.00116091
0.00124201
0.00149747
0.00233445
0.0047256
0.0010988
0.00110216
0.00110618
0.00111062
0.00111534
0.0011202
0.00112494
0.00112941
0.00113356
0.00113754
0.00114211
0.00114983
0.00116921
0.00122989
0.00144236
0.00224068
0.00497166
0.00110725
0.00111266
0.00111874
0.0011253
0.00113202
0.00113884
0.0011454
0.00115152
0.00115707
0.00116204
0.00116679
0.00117279
0.00118576
0.00122797
0.0013928
0.00211302
0.00520466
0.00111692
0.00112456
0.00113298
0.00114185
0.00115084
0.00115975
0.00116831
0.00117628
0.0011835
0.00118988
0.00119554
0.00120119
0.00121017
0.00123742
0.00135489
0.00195994
0.00541644
0.00112773
0.00113785
0.00114879
0.00116017
0.00117161
0.00118279
0.00119347
0.00120342
0.0012125
0.00122062
0.00122777
0.00123425
0.0012417
0.00125875
0.00133439
0.00179777
0.00560013
0.00113959
0.00115239
0.00116607
0.00118016
0.00119421
0.0012078
0.00122071
0.00123276
0.00124384
0.00125393
0.00126304
0.00127133
0.00127948
0.00129162
0.00133582
0.00165017
0.00575119
0.00115237
0.00116808
0.00118473
0.00120173
0.00121856
0.0012347
0.00124995
0.00126421
0.00127744
0.00128973
0.00130122
0.00131213
0.00132289
0.00133517
0.00136161
0.0015434
0.00586758
0.00116587
0.00118475
0.0012046
0.00122472
0.00124449
0.00126329
0.001281
0.00129762
0.00131324
0.00132808
0.00134249
0.00135692
0.00137201
0.00138885
0.00141183
0.00149922
0.00594902
0.00116538
0.00117246
0.00118039
0.00118886
0.00119777
0.00120699
0.00121646
0.00122599
0.00123532
0.00124412
0.001252
0.00125859
0.00126354
0.00126669
0.00126806
0.00126784
0.00126639
0.00126422
0.00126191
0.00125972
0.00125606
0.0012535
0.00125322
0.00125412
0.00125584
0.00125798
0.00126019
0.00126211
0.00126344
0.0012639
0.00126323
0.00126127
0.00125786
0.00125293
0.00124643
0.00123843
0.00122903
0.0012184
0.00120671
0.00119403
0.00118025
0.00118151
0.00118876
0.00119703
0.00120577
0.00121479
0.00122396
0.00123323
0.00124234
0.00125102
0.00125888
0.00126554
0.00127067
0.00127407
0.00127572
0.00127577
0.0012745
0.0012724
0.00127005
0.00126802
0.0012666
0.00126476
0.00126447
0.00126593
0.00126856
0.00127194
0.00127571
0.00127946
0.00128285
0.00128552
0.00128718
0.00128756
0.00128645
0.00128371
0.00127921
0.00127292
0.00126486
0.00125514
0.00124394
0.00123148
0.00121786
0.00120263
0.00120014
0.00120805
0.00121676
0.00122566
0.00123453
0.00124333
0.00125193
0.00126013
0.0012676
0.00127398
0.00127895
0.00128229
0.00128395
0.00128407
0.00128287
0.00128073
0.00127824
0.00127602
0.0012746
0.00127423
0.00127445
0.00127651
0.0012798
0.00128419
0.00128928
0.00129468
0.00129997
0.00130479
0.00130877
0.00131159
0.00131298
0.0013127
0.00131058
0.00130648
0.00130034
0.00129217
0.00128207
0.00127023
0.00125692
0.00124237
0.00122617
0.00122109
0.00123002
0.00123919
0.001248
0.00125634
0.00126425
0.00127167
0.00127838
0.00128409
0.00128853
0.00129147
0.00129286
0.00129281
0.00129151
0.00128927
0.00128657
0.00128405
0.00128234
0.00128186
0.00128282
0.00128526
0.00128965
0.00129479
0.00130094
0.00130771
0.00131469
0.00132146
0.00132764
0.00133285
0.00133676
0.00133908
0.00133954
0.00133796
0.00133418
0.0013281
0.00131973
0.00130915
0.00129657
0.00128229
0.00126666
0.00124971
0.00124299
0.00125312
0.00126258
0.00127095
0.00127835
0.00128494
0.00129072
0.00129551
0.00129911
0.00130139
0.00130227
0.00130184
0.00130028
0.00129785
0.00129494
0.00129213
0.00129005
0.00128925
0.00129003
0.00129255
0.00129726
0.0013039
0.00131086
0.00131871
0.00132708
0.00133554
0.00134369
0.00135111
0.00135744
0.00136233
0.00136546
0.00136655
0.0013654
0.00136183
0.0013557
0.001347
0.00133583
0.00132238
0.001307
0.00129013
0.00127221
0.00126307
0.00127416
0.00128362
0.00129132
0.00129762
0.00130276
0.00130677
0.0013096
0.00131117
0.00131149
0.00131064
0.00130879
0.00130615
0.00130306
0.00130003
0.00129767
0.00129654
0.00129704
0.00129937
0.0013036
0.00131054
0.00131929
0.00132797
0.00133741
0.00134725
0.00135707
0.00136644
0.00137496
0.00138226
0.00138798
0.00139178
0.00139337
0.00139252
0.00138901
0.0013827
0.00137355
0.00136165
0.00134722
0.00133064
0.00131234
0.00129321
0.00127766
0.0012891
0.00129837
0.00130553
0.00131101
0.00131503
0.00131768
0.00131903
0.00131913
0.00131811
0.00131615
0.00131346
0.00131036
0.00130731
0.00130488
0.0013036
0.00130391
0.00130603
0.00131011
0.00131616
0.0013252
0.00133585
0.00134612
0.001357
0.00136814
0.00137913
0.00138956
0.00139901
0.00140711
0.00141348
0.0014178
0.00141972
0.001419
0.00141541
0.00140878
0.00139905
0.00138631
0.00137077
0.00135307
0.00133375
0.00131337
0.00128442
0.00129578
0.00130484
0.00131178
0.00131694
0.00132048
0.00132252
0.00132318
0.00132262
0.00132106
0.00131875
0.00131603
0.00131334
0.0013112
0.00131012
0.0013105
0.0013126
0.0013166
0.00132253
0.00133039
0.00134132
0.00135363
0.0013653
0.00137744
0.00138969
0.00140167
0.00141295
0.00142313
0.00143183
0.00143867
0.00144331
0.00144539
0.00144464
0.00144082
0.00143372
0.00142329
0.00140977
0.00139341
0.00137466
0.00135414
0.00133252
0.00128442
0.00129545
0.00130416
0.00131101
0.00131618
0.00131975
0.00132181
0.00132252
0.00132211
0.00132087
0.00131917
0.00131745
0.00131616
0.00131577
0.00131662
0.00131902
0.00132315
0.00132911
0.00133691
0.00134649
0.00135903
0.00137271
0.00138558
0.00139876
0.00141191
0.00142464
0.00143656
0.00144725
0.00145634
0.00146344
0.0014682
0.00147025
0.00146931
0.00146511
0.00145757
0.00144661
0.00143236
0.0014151
0.00139532
0.00137366
0.00135087
0.00128213
0.001292
0.00129978
0.00130623
0.00131134
0.00131511
0.0013176
0.00131899
0.00131954
0.00131958
0.0013195
0.00131968
0.00132049
0.00132228
0.00132535
0.00132991
0.00133611
0.001344
0.00135354
0.00136467
0.00137851
0.00139325
0.00140708
0.00142105
0.00143485
0.0014481
0.0014604
0.00147137
0.0014806
0.00148775
0.00149242
0.00149426
0.00149305
0.00148854
0.00148055
0.00146903
0.00145409
0.00143602
0.00141532
0.00139266
0.00136884
0.00128454
0.00129153
0.00129759
0.00130301
0.00130767
0.00131152
0.00131459
0.00131701
0.00131898
0.00132077
0.00132267
0.00132498
0.00132802
0.00133206
0.00133733
0.00134398
0.00135212
0.00136176
0.00137283
0.00138524
0.00140001
0.00141547
0.00142998
0.00144447
0.00145864
0.00147213
0.00148455
0.00149553
0.00150465
0.00151155
0.00151596
0.00151755
0.00151603
0.00151116
0.00150275
0.00149075
0.00147526
0.00145655
0.00143513
0.00141167
0.00138701
0.00129571
0.00129958
0.0013035
0.00130739
0.00131113
0.00131463
0.00131792
0.00132105
0.00132417
0.00132745
0.0013311
0.00133535
0.00134041
0.00134647
0.0013537
0.00136219
0.00137197
0.00138304
0.00139529
0.00140863
0.00142394
0.00143975
0.0014546
0.00146927
0.00148349
0.0014969
0.00150909
0.00151969
0.00152843
0.00153498
0.00153903
0.00154025
0.00153838
0.00153317
0.00152444
0.00151212
0.0014963
0.00147723
0.00145538
0.00143141
0.00140622
0.00131805
0.00131881
0.00132028
0.00132229
0.00132471
0.00132746
0.00133053
0.00133394
0.00133775
0.00134208
0.00134705
0.0013528
0.00135944
0.00136709
0.00137583
0.00138569
0.00139667
0.0014087
0.00142168
0.0014355
0.00145087
0.0014666
0.00148137
0.00149582
0.00150963
0.00152248
0.00153407
0.00154408
0.00155223
0.00155821
0.00156173
0.00156251
0.00156029
0.00155484
0.00154597
0.00153361
0.00151781
0.00149879
0.00147696
0.00145294
0.00142765
0.00135356
0.00135138
0.00135041
0.00135037
0.00135122
0.00135289
0.00135534
0.00135856
0.00136256
0.00136739
0.00137309
0.00137972
0.00138731
0.0013959
0.0014055
0.0014161
0.00142762
0.00144
0.0014531
0.0014668
0.00148167
0.00149675
0.00151085
0.00152447
0.00153737
0.00154926
0.00155987
0.00156893
0.00157618
0.00158136
0.00158423
0.00158453
0.00158205
0.00157655
0.00156786
0.00155589
0.00154064
0.00152227
0.00150113
0.00147775
0.0014531
0.00140449
0.0013997
0.00139662
0.00139474
0.00139402
0.00139443
0.00139594
0.00139852
0.00140217
0.00140686
0.00141257
0.0014193
0.00142702
0.0014357
0.0014453
0.00145574
0.00146695
0.0014788
0.00149117
0.00150393
0.00151753
0.00153113
0.00154381
0.00155593
0.00156728
0.00157764
0.00158675
0.00159442
0.00160044
0.00160461
0.00160672
0.00160659
0.00160402
0.00159882
0.0015908
0.00157985
0.00156593
0.00154914
0.00152972
0.0015081
0.00148533
0.0014735
0.00146701
0.0014626
0.00145943
0.00145751
0.0014568
0.00145728
0.00145893
0.00146169
0.00146553
0.00147041
0.00147627
0.00148305
0.00149067
0.00149907
0.00150815
0.00151782
0.00152794
0.00153841
0.00154908
0.0015602
0.00157119
0.0015814
0.00159106
0.0016
0.00160804
0.00161502
0.00162079
0.00162521
0.00162815
0.00162947
0.00162905
0.00162672
0.00162234
0.00161573
0.00160675
0.00159535
0.00158153
0.00156546
0.00154741
0.00152861
0.00156383
0.00155756
0.00155357
0.00155049
0.00154835
0.00154714
0.00154685
0.00154747
0.00154895
0.00155125
0.00155432
0.0015581
0.00156253
0.00156755
0.00157307
0.00157902
0.00158532
0.00159186
0.00159857
0.00160533
0.00161222
0.00161894
0.00162518
0.00163101
0.00163632
0.00164104
0.00164506
0.00164831
0.00165074
0.00165227
0.00165286
0.00165241
0.00165085
0.00164807
0.00164395
0.00163839
0.00163129
0.00162265
0.00161251
0.001601
0.00158967
0.00460285
0.0022455
0.00135009
0.00111188
0.00105543
0.00105874
0.00106523
0.00106014
0.00104918
0.00103962
0.00103494
0.00103478
0.00103662
0.00103836
0.00103974
0.00104151
0.00104398
0.00436484
0.002208
0.00133284
0.00110617
0.00105107
0.00105488
0.00106402
0.00106196
0.00105271
0.00104305
0.0010365
0.00103361
0.00103335
0.00103445
0.00103626
0.00103869
0.00104194
0.00408969
0.00214609
0.001299
0.00109351
0.00104473
0.00105086
0.00106253
0.00106288
0.00105519
0.00104589
0.00103867
0.00103452
0.00103304
0.00103344
0.00103512
0.00103781
0.00104151
0.00382465
0.00202498
0.00125164
0.00107451
0.00103539
0.0010462
0.00106087
0.00106343
0.001057
0.001048
0.0010403
0.00103523
0.00103272
0.00103217
0.0010329
0.00103429
0.00103576
0.00356328
0.00186471
0.00119783
0.00105153
0.00102452
0.00104119
0.00105924
0.00106401
0.00105867
0.0010498
0.00104157
0.00103563
0.00103218
0.00103078
0.00103086
0.00103195
0.00103382
0.00331147
0.0016963
0.00114467
0.00102771
0.00101356
0.00103643
0.00105805
0.00106503
0.00106067
0.00105178
0.00104295
0.0010362
0.00103198
0.00103004
0.00102991
0.00103116
0.00103345
0.00307909
0.00154402
0.00109746
0.00100615
0.00100402
0.00103295
0.00105802
0.00106702
0.00106337
0.00105424
0.00104461
0.00103688
0.00103174
0.00102905
0.00102835
0.00102906
0.00103067
0.00287547
0.00141778
0.00105941
0.000989959
0.000998026
0.00103246
0.00106038
0.00107076
0.00106732
0.00105757
0.00104693
0.00103809
0.00103198
0.00102856
0.00102741
0.00102797
0.00102973
0.00270789
0.00132196
0.00103253
0.000982352
0.000999645
0.00103777
0.00106708
0.00107738
0.00107308
0.0010621
0.00105017
0.00104019
0.00103318
0.00102914
0.00102764
0.00102806
0.00102979
0.00257992
0.0012588
0.0010185
0.000986211
0.00101356
0.00105398
0.00108082
0.00108816
0.0010811
0.00106787
0.00105421
0.00104293
0.00103495
0.00103021
0.00102824
0.0010284
0.00102999
0.0024907
0.00122797
0.00101979
0.00100348
0.00104048
0.00108229
0.00110422
0.00110423
0.0010916
0.00107482
0.00105902
0.00104641
0.00103748
0.001032
0.00102941
0.00102907
0.00103036
0.00243684
0.00122613
0.00103743
0.0010354
0.00107923
0.00111708
0.00112969
0.00112107
0.00110225
0.00108175
0.00106388
0.00105009
0.00104038
0.00103428
0.00103113
0.00103025
0.00103099
0.00241351
0.00124736
0.00107065
0.00108121
0.00112769
0.00115595
0.00115542
0.00113657
0.00111162
0.0010879
0.00106843
0.00105379
0.00104356
0.00103701
0.00103345
0.00103226
0.00103287
0.00241535
0.00128584
0.00111695
0.00113823
0.00118137
0.00119471
0.00117922
0.00115046
0.00112013
0.00109375
0.00107301
0.0010577
0.00104703
0.00104007
0.00103606
0.00103438
0.00103462
0.00243632
0.00133733
0.00117296
0.00120166
0.00123456
0.00122948
0.00119942
0.0011622
0.00112764
0.00109926
0.00107756
0.00106176
0.00105076
0.00104347
0.00103904
0.00103678
0.00103612
0.00246956
0.00139542
0.0012342
0.00126468
0.00128154
0.00125771
0.00121536
0.00117173
0.00113415
0.0011044
0.00108206
0.00106592
0.00105468
0.00104717
0.00104247
0.00103993
0.0010391
0.00250973
0.00145239
0.00129386
0.00131955
0.00131816
0.0012785
0.00122717
0.00117923
0.00113971
0.00110916
0.00108645
0.00107012
0.00105872
0.00105103
0.0010461
0.00104325
0.00104213
0.0025529
0.00150508
0.00134445
0.00136043
0.00134298
0.00129227
0.00123535
0.00118492
0.00114441
0.0011135
0.00109069
0.0010743
0.00106283
0.00105503
0.00104991
0.00104675
0.00104489
0.00259509
0.00155289
0.00138176
0.00138547
0.00135685
0.00130009
0.00124049
0.00118907
0.00114831
0.00111744
0.00109476
0.00107845
0.00106698
0.00105912
0.00105387
0.00105052
0.00104853
0.00263221
0.0015937
0.00140656
0.00139641
0.00136162
0.001303
0.00124307
0.00119188
0.00115151
0.00112104
0.00109867
0.00108257
0.0010712
0.0010633
0.00105795
0.00105443
0.00105221
0.0026698
0.00164633
0.00143323
0.00140343
0.00136222
0.00130264
0.00124323
0.00119289
0.00115339
0.00112366
0.00110187
0.00108619
0.00107507
0.00106729
0.00106193
0.00105831
0.00105592
0.00272478
0.00172028
0.00147163
0.00141417
0.00136197
0.00129984
0.00124081
0.00119171
0.00115356
0.00112503
0.00110419
0.00108921
0.00107856
0.00107105
0.0010658
0.00106217
0.00105968
0.00279987
0.00180861
0.00151817
0.00142769
0.00136097
0.00129492
0.00123616
0.00118863
0.00115229
0.00112538
0.00110583
0.0010918
0.0010818
0.00107469
0.00106964
0.00106605
0.0010635
0.00289734
0.00190584
0.00156842
0.00144179
0.00135853
0.00128787
0.0012295
0.00118401
0.00114995
0.00112504
0.00110708
0.00109421
0.00108499
0.00107837
0.00107357
0.00107005
0.00106744
0.00301867
0.00200725
0.00161751
0.00145359
0.00135354
0.00127855
0.00122117
0.00117831
0.00114701
0.00112446
0.00110831
0.00109673
0.00108837
0.00108226
0.00107772
0.00107427
0.00107159
0.0031646
0.00210909
0.00166123
0.00146041
0.00134503
0.00126703
0.00121164
0.00117214
0.00114407
0.00112414
0.00110994
0.0010997
0.00109219
0.00108656
0.00108221
0.00107876
0.00107595
0.00333513
0.00220809
0.00169599
0.00146026
0.00133259
0.00125374
0.00120165
0.00116623
0.00114177
0.00112462
0.00111238
0.00110342
0.00109668
0.00109142
0.00108717
0.00108363
0.0010806
0.00352935
0.00229946
0.00171839
0.00145198
0.00131647
0.00123949
0.00119211
0.00116142
0.00114078
0.00112641
0.00111601
0.00110817
0.00110201
0.00109695
0.00109266
0.00108893
0.0010856
0.00374543
0.00237758
0.00172556
0.00143543
0.00129761
0.00122544
0.00118405
0.0011585
0.00114168
0.00112991
0.00112111
0.00111413
0.0011083
0.00110322
0.00109869
0.00109457
0.0010908
0.00398034
0.00243561
0.00171551
0.00141152
0.00127756
0.00121292
0.00117842
0.00115812
0.00114494
0.00113549
0.00112806
0.00112174
0.00111603
0.00111072
0.0011057
0.00110091
0.0010964
0.00422989
0.00246638
0.00168762
0.00138215
0.00125817
0.00120323
0.00117605
0.00116083
0.00115107
0.00114366
0.00113719
0.00113107
0.00112508
0.00111923
0.00111355
0.00110813
0.00110302
0.00448854
0.00246292
0.00164319
0.00135008
0.00124141
0.00119746
0.00117751
0.00116702
0.00115999
0.00115392
0.00114782
0.00114141
0.00113475
0.00112803
0.00112141
0.00111505
0.00110907
0.00474931
0.00241942
0.00158549
0.00131859
0.00122903
0.00119639
0.0011831
0.00117637
0.00117131
0.00116601
0.00115982
0.00115275
0.00114511
0.00113724
0.00112948
0.00112199
0.00111494
0.00500385
0.00233226
0.00151972
0.00129101
0.00122238
0.0012003
0.00119245
0.00118847
0.0011847
0.00117969
0.00117306
0.00116503
0.00115612
0.00114689
0.00113778
0.0011291
0.00112108
0.00524288
0.00220172
0.00145264
0.0012703
0.00122214
0.00120893
0.001205
0.00120281
0.00119973
0.00119467
0.00118736
0.00117816
0.00116778
0.00115698
0.00114636
0.00113632
0.00112718
0.00545704
0.00203473
0.00139198
0.00125873
0.00122819
0.00122144
0.00121996
0.00121877
0.00121597
0.00121065
0.00120255
0.00119205
0.00118005
0.00116752
0.00115524
0.00114369
0.0011331
0.00563836
0.00184804
0.00134561
0.00125753
0.0012397
0.00123666
0.00123634
0.00123562
0.0012329
0.00122728
0.0012184
0.0012066
0.0011929
0.00117851
0.00116445
0.00115135
0.00113953
0.00578171
0.00166897
0.00132042
0.00126664
0.00125514
0.00125302
0.0012528
0.00125237
0.00124981
0.00124405
0.00123456
0.00122159
0.00120622
0.00118993
0.00117399
0.00115925
0.00114623
0.00588571
0.00152977
0.00132058
0.00128504
0.00127273
0.00126854
0.00126745
0.00126741