/*--------------------------------*- C++ -*----------------------------------*\
  =========                 |
  \\      /  F ield         | OpenFOAM: The Open Source CFD Toolbox
   \\    /   O peration     | Website:  https://openfoam.org
    \\  /    A nd           | Version:  6
     \\/     M anipulation  |
\*---------------------------------------------------------------------------*/
FoamFile
{
    version     2.0;
    format      ascii;
    class       surfaceVectorField;
    location    "4.09";
    object      Uf;
}
// * * * * * * * * * * * * * * * * * * * * * * * * * * * * * * * * * * * * * //

dimensions      [0 1 -1 0 0 0 0];

internalField   nonuniform List<vector> 
8193
(
(5.11346 0.00197228 1.02927e-19)
(5.25962 -0.0281731 1.28431e-19)
(4.53357 -0.0505071 -1.78959e-18)
(5.346 0.0667447 1.54656e-22)
(5.46774 0.0752514 3.43824e-20)
(5.39551 0.139919 -1.48734e-20)
(5.48344 0.150403 -3.64336e-20)
(5.39504 0.204712 -9.3906e-20)
(5.46158 0.203569 -2.05265e-20)
(5.38277 0.257391 1.20248e-20)
(5.43708 0.253922 2.06374e-20)
(5.36288 0.300297 -8.39129e-21)
(5.41118 0.301048 -1.45348e-20)
(5.33336 0.336375 3.46759e-21)
(5.37953 0.343218 1.03175e-20)
(5.29175 0.366609 2.42504e-23)
(5.33847 0.381376 2.47501e-22)
(5.23524 0.390855 2.41696e-23)
(5.28429 0.415937 3.48349e-21)
(5.16086 0.407422 -5.20126e-22)
(5.21299 0.446157 -3.29856e-22)
(5.06557 0.413102 -1.42713e-21)
(5.12031 0.470008 6.9843e-21)
(4.94708 0.402889 -9.04383e-22)
(5.00201 0.484286 1.64771e-20)
(4.80447 0.369887 2.09788e-21)
(4.85519 0.483383 -4.34343e-22)
(4.63546 0.307135 2.08305e-21)
(4.67989 0.460043 -3.25878e-20)
(4.416 0.215042 0)
(4.47751 0.407335 0)
(4.06987 0.129959 0)
(4.23072 0.323724 0)
(3.54954 0.111687 0)
(3.84565 0.26492 0)
(3.01856 0.0966865 0)
(3.24691 0.326426 -5.24058e-22)
(2.68159 -0.127495 6.21272e-21)
(2.65034 0.38907 5.39385e-22)
(2.50674 -0.567262 6.15779e-21)
(2.29796 0.196701 -2.31829e-19)
(2.41298 -1.02697 -5.35647e-21)
(2.15803 -0.207255 0)
(2.4559 -1.37962 -5.31216e-21)
(2.17518 -0.623305 -1.14902e-19)
(2.73074 -1.61273 -1.18405e-20)
(2.38984 -0.954224 -2.52684e-20)
(3.26857 -1.76157 5.27481e-21)
(2.85104 -1.20197 -3.70941e-20)
(4.01749 -1.84726 -5.46196e-21)
(3.55347 -1.38641 -8.21795e-21)
(4.86683 -1.85742 -1.17927e-20)
(4.42757 -1.52528 5.665e-21)
(5.66954 -1.76756 1.00151e-20)
(5.34768 -1.59014 6.81902e-21)
(6.28204 -1.57448 -7.13638e-21)
(6.1426 -1.52797 -1.41223e-20)
(6.62822 -1.31179 -1.04347e-21)
(6.6691 -1.34587 1.55934e-20)
(6.73202 -1.03506 0)
(6.88895 -1.09743 -2.33175e-20)
(6.67333 -0.778857 3.81981e-22)
(6.88703 -0.841975 -6.68199e-21)
(6.53524 -0.57277 6.91862e-22)
(6.74859 -0.6126 -2.89639e-20)
(6.3909 -0.425484 -2.8681e-21)
(6.56133 -0.440819 4.10311e-20)
(6.27845 -0.322205 -2.94085e-21)
(6.4059 -0.327087 3.79117e-22)
(6.19783 -0.247196 1.39152e-19)
(6.29524 -0.248311 -1.57706e-20)
(6.14015 -0.189231 4.94948e-21)
(6.21757 -0.190727 4.13078e-20)
(6.09875 -0.141834 -4.82747e-21)
(6.16261 -0.146526 0)
(6.06121 -0.100768 -1.16086e-19)
(6.12543 -0.112114 -6.24882e-20)
(5.98535 -0.0616688 -2.052e-20)
(6.10381 -0.0905213 4.51853e-20)
(5.74854 -0.0380937 1.46999e-19)
(6.06068 -0.0676673 -1.48547e-19)
(5.84842 -0.0139101 1.10044e-19)
(5.19754 -0.0263012 1.83489e-20)
(5.52269 0.0841075 1.6687e-20)
(5.51355 0.0384242 1.10565e-20)
(5.3457 -0.076861 -2.16633e-20)
(5.53148 0.153204 -2.12811e-19)
(5.54289 0.1373 -2.57136e-22)
(5.50619 0.207422 -2.19865e-20)
(5.5302 0.199178 8.53631e-23)
(5.47827 0.254987 -1.45778e-20)
(5.50136 0.241757 -5.21545e-21)
(5.44864 0.299958 4.77203e-21)
(5.4746 0.287216 5.84093e-21)
(5.41631 0.344194 -6.50517e-22)
(5.44827 0.335954 -3.67863e-21)
(5.37702 0.387958 5.83214e-21)
(5.41575 0.384652 -1.51425e-21)
(5.32647 0.430468 1.44317e-21)
(5.37285 0.432648 -3.74179e-21)
(5.26061 0.470922 6.90579e-22)
(5.31626 0.479717 2.37254e-21)
(5.17477 0.508073 1.96958e-22)
(5.24178 0.525037 3.85179e-23)
(5.0638 0.539923 2.9415e-21)
(5.1447 0.56732 5.22942e-22)
(4.9233 0.562503 2.33865e-21)
(5.0194 0.604313 2.40418e-21)
(4.7514 0.569869 2.81017e-21)
(4.86169 0.631971 -4.30959e-22)
(4.54949 0.554911 2.99272e-21)
(4.67102 0.643713 2.55065e-20)
(4.31739 0.511847 0)
(4.44997 0.632157 -7.60696e-22)
(4.02161 0.45268 0)
(4.19436 0.593557 -1.44726e-21)
(3.57219 0.460526 -5.25039e-22)
(3.8595 0.553043 3.3459e-20)
(2.96369 0.605929 -1.34178e-22)
(3.35666 0.615198 1.9547e-20)
(2.40562 0.70584 -5.65432e-21)
(2.73023 0.819607 -2.06088e-20)
(2.08751 0.554161 -6.14125e-21)
(2.21705 0.933405 -6.17104e-21)
(2.01222 0.206266 -1.58084e-20)
(1.95711 0.756103 -3.06305e-24)
(2.15075 -0.179784 -4.10882e-20)
(1.95509 0.410378 8.8706e-20)
(2.51913 -0.531975 -5.33713e-20)
(2.19304 0.0421722 1.26667e-20)
(3.12911 -0.835883 -4.27728e-20)
(2.68346 -0.300685 1.94193e-20)
(3.94823 -1.09618 -6.9902e-21)
(3.4094 -0.610966 -1.15048e-20)
(4.88198 -1.28269 1.64272e-20)
(4.32188 -0.887102 -6.14977e-20)
(5.78036 -1.36597 -1.70227e-20)
(5.29554 -1.10197 8.74622e-21)
(6.4807 -1.31295 2.20304e-20)
(6.16468 -1.18754 -3.90768e-20)
(6.87797 -1.13595 1.13746e-21)
(6.76373 -1.11736 4.64126e-20)
(6.99463 -0.909174 -2.99733e-20)
(7.01879 -0.938581 -3.76631e-20)
(6.91956 -0.677142 -7.06331e-21)
(7.03012 -0.723911 -3.75824e-20)
(6.74013 -0.480312 -4.70526e-21)
(6.88172 -0.517519 -4.90881e-21)
(6.5495 -0.342779 -4.32702e-21)
(6.66496 -0.359097 4.83053e-20)
(6.40048 -0.249674 -1.23067e-20)
(6.48344 -0.257722 1.65335e-20)
(6.29454 -0.185148 7.31006e-20)
(6.35393 -0.188931 -4.99717e-20)
(6.2197 -0.140714 1.02094e-20)
(6.26193 -0.140603 1.00598e-20)
(6.16778 -0.111204 3.51292e-21)
(6.19519 -0.107091 0)
(6.13513 -0.0924476 4.62744e-20)
(6.14783 -0.086069 3.47933e-21)
(6.11503 -0.0813712 -7.18286e-19)
(6.11878 -0.0796283 -3.5168e-20)
(6.08311 -0.0659916 -9.1679e-19)
(6.0867 -0.074935 2.00032e-19)
(6.02365 -0.0343166 -3.50755e-19)
(5.92916 0.0419963 -1.44669e-19)
(5.58048 0.126092 -5.79625e-21)
(5.61876 0.101195 3.39811e-21)
(5.57781 0.0366196 7.31804e-19)
(5.55894 0.17879 -1.19154e-20)
(5.59436 0.166114 -9.3312e-21)
(5.53212 0.224822 1.68722e-20)
(5.57278 0.219905 1.44378e-20)
(5.50587 0.273578 6.05085e-22)
(5.54733 0.26632 0)
(5.48053 0.3243 4.95714e-21)
(5.52292 0.316037 -9.26136e-21)
(5.45147 0.376068 5.03077e-21)
(5.49682 0.370221 2.02957e-21)
(5.41366 0.428679 -6.57654e-21)
(5.46367 0.426591 -1.33708e-21)
(5.36329 0.481497 -5.17299e-22)
(5.41953 0.484245 -1.67856e-21)
(5.2968 0.533567 -1.98736e-21)
(5.36109 0.542849 -7.02339e-22)
(5.20979 0.583996 -3.01927e-21)
(5.28434 0.601566 -3.35803e-21)
(5.09679 0.631382 0)
(5.18423 0.659114 0)
(4.95233 0.673324 0)
(5.0545 0.714037 0)
(4.7734 0.705241 -4.15201e-21)
(4.8895 0.764019 0)
(4.56118 0.720621 -4.53753e-21)
(4.68755 0.804194 5.18584e-21)
(4.31679 0.713948 -2.11987e-21)
(4.45222 0.827572 3.75116e-21)
(4.0268 0.689664 3.20129e-20)
(4.18659 0.829543 2.05507e-20)
(3.64069 0.694925 5.33683e-20)
(3.87512 0.820822 -4.53609e-20)
(3.10934 0.824544 -1.21997e-21)
(3.45739 0.863052 -5.13931e-20)
(2.5137 1.04489 -2.1054e-20)
(2.88948 1.05495 -1.40651e-20)
(2.05806 1.13454 -9.24358e-24)
(2.29359 1.32543 -2.77896e-20)
(1.87857 0.974557 4.8914e-20)
(1.88152 1.4138 -1.21952e-22)
(1.98406 0.662984 7.3363e-20)
(1.78976 1.23278 9.73165e-20)
(2.35112 0.299829 5.95555e-20)
(1.99722 0.911733 8.66319e-20)
(2.96385 -0.0678831 3.88754e-20)
(2.48244 0.541373 1.52695e-19)
(3.79173 -0.418032 -6.63863e-20)
(3.21308 0.157736 -1.3823e-19)
(4.753 -0.723544 -6.91159e-20)
(4.14358 -0.211749 -1.01595e-20)
(5.70408 -0.934218 -2.24668e-20)
(5.16361 -0.541428 0)
(6.47455 -1.00457 1.76487e-20)
(6.10863 -0.760754 -1.45163e-20)
(6.93259 -0.920704 2.76655e-20)
(6.79951 -0.817183 2.00052e-20)
(7.08121 -0.755144 1.44962e-20)
(7.11095 -0.726894 3.5052e-20)
(7.01432 -0.56497 2.22251e-21)
(7.14895 -0.567794 -8.38685e-21)
(6.82408 -0.391512 -4.98259e-21)
(7.00328 -0.399835 1.99309e-20)
(6.61338 -0.27209 1.59704e-20)
(6.76024 -0.265667 9.33117e-21)
(6.44756 -0.193405 -3.66665e-20)
(6.55384 -0.182066 1.63802e-20)
(6.32933 -0.138682 -3.74843e-20)
(6.40754 -0.12669 -2.732e-20)
(6.24424 -0.100176 0)
(6.30343 -0.0885684 -5.77083e-20)
(6.1817 -0.0737151 0)
(6.22727 -0.0635419 5.64215e-20)
(6.13527 -0.0582539 -7.58128e-20)
(6.17062 -0.0485552 5.94037e-20)
(6.09968 -0.0574946 3.44382e-19)
(6.12837 -0.0441367 -1.3249e-19)
(6.07168 -0.0591258 2.85656e-19)
(6.09364 -0.0472223 2.93155e-19)
(6.06693 -0.0410344 -2.2073e-19)
(6.04415 -0.0286374 1.68812e-19)
(5.63998 0.158776 -2.79031e-19)
(5.67785 0.143889 -7.49878e-21)
(5.67574 0.0990775 -2.22671e-20)
(5.60932 0.208669 5.21036e-21)
(5.64365 0.195342 7.45656e-21)
(5.58412 0.2562 -2.34217e-21)
(5.62158 0.248268 -5.21827e-21)
(5.5614 0.30752 -5.55317e-21)
(5.60099 0.298695 -1.12927e-20)
(5.53717 0.362593 -1.0624e-20)
(5.57975 0.352436 3.08217e-21)
(5.50743 0.420636 3.96078e-21)
(5.55502 0.411526 1.11529e-20)
(5.4684 0.481563 0)
(5.52277 0.475048 -7.2417e-21)
(5.41655 0.545101 9.50025e-23)
(5.47923 0.542398 -2.55629e-21)
(5.34811 0.610396 9.11705e-22)
(5.42076 0.613269 2.66718e-21)
(5.2585 0.676206 8.21003e-22)
(5.34316 0.686753 8.14599e-22)
(5.14197 0.741143 0)
(5.24137 0.761236 0)
(4.99226 0.803846 0)
(5.10932 0.835228 -1.71725e-21)
(4.80494 0.861814 9.27484e-21)
(4.94072 0.907632 5.04372e-21)
(4.58058 0.909881 1.30157e-20)
(4.73218 0.976006 -1.06567e-21)
(4.32437 0.941686 2.64207e-20)
(4.48671 1.03491 9.74664e-21)
(4.03708 0.957007 -4.24327e-20)
(4.21184 1.07821 -6.32065e-21)
(3.69455 0.979306 -1.17865e-19)
(3.90784 1.10834 -5.58948e-20)
(3.24242 1.08318 -7.14822e-20)
(3.54595 1.15571 -1.23305e-20)
(2.67324 1.33015 -4.61209e-20)
(3.06932 1.30385 2.31024e-20)
(2.11938 1.60427 -2.78602e-20)
(2.48928 1.60462 -2.65035e-20)
(1.79682 1.68837 3.29594e-20)
(1.96258 1.90512 -7.95899e-22)
(1.80575 1.51437 9.71173e-20)
(1.71635 1.96061 -1.5868e-19)
(2.13292 1.19251 1.63548e-19)
(1.83399 1.76236 -8.16046e-20)
(2.74072 0.78534 -2.8098e-20)
(2.26243 1.41375 -1.38807e-19)
(3.57526 0.364541 -7.12551e-20)
(2.97541 0.991905 1.5603e-19)
(4.56532 -0.0432394 6.93263e-20)
(3.90071 0.549649 6.98431e-20)
(5.57757 -0.379688 7.98874e-21)
(4.94934 0.121898 5.51009e-21)
(6.43806 -0.589209 7.91722e-21)
(5.95985 -0.225957 7.54301e-20)
(6.97608 -0.629171 2.74581e-20)
(6.75254 -0.424852 2.54034e-20)
(7.17547 -0.538618 1.20172e-20)
(7.15257 -0.449141 -6.39714e-22)
(7.13569 -0.407339 3.47189e-20)
(7.22881 -0.362675 -4.543e-20)
(6.93635 -0.268028 2.3225e-20)
(7.10413 -0.245303 1.08601e-21)
(6.69938 -0.173275 9.51786e-21)
(6.8417 -0.146428 -1.98147e-20)
(6.51172 -0.113996 2.2032e-20)
(6.61252 -0.0866808 0)
(6.3789 -0.0748538 -3.53219e-20)
(6.45047 -0.0496189 9.39317e-20)
(6.28312 -0.0484932 6.41928e-20)
(6.33575 -0.0258228 -1.32217e-19)
(6.21159 -0.032419 1.14465e-19)
(6.25097 -0.0125047 1.33036e-19)
(6.15729 -0.0256036 -1.20195e-19)
(6.18603 -0.00666313 -1.80694e-20)
(6.11621 -0.0272327 6.09776e-20)
(6.135 -0.0077824 3.05365e-20)
(6.08604 -0.0299362 -2.1802e-19)
(6.09761 -0.0161939 1.16215e-19)
(6.07381 -0.0208644 -1.91512e-19)
(6.06601 -0.0284316 1.19657e-20)
(5.68566 0.189583 0)
(5.72566 0.177385 0)
(5.72599 0.141711 -1.66492e-20)
(5.65838 0.237511 -2.74818e-22)
(5.69698 0.224119 2.42248e-21)
(5.63835 0.287363 -1.14367e-20)
(5.67933 0.277194 -2.10771e-20)
(5.61969 0.341882 1.00748e-20)
(5.66361 0.330883 1.65371e-20)
(5.59826 0.401338 1.58292e-20)
(5.64588 0.38862 1.5336e-20)
(5.57076 0.465705 6.08812e-21)
(5.62383 0.452693 1.85786e-20)
(5.53372 0.535214 -9.78299e-21)
(5.59408 0.523304 -1.85843e-20)
(5.48335 0.609858 2.89761e-23)
(5.55287 0.600327 -1.00544e-20)
(5.4155 0.689004 2.57181e-21)
(5.49618 0.683703 -4.84849e-21)
(5.32549 0.771185 0)
(5.41925 0.772707 0)
(5.20791 0.854628 -1.7034e-21)
(5.31695 0.865492 -5.85382e-21)
(5.05668 0.938135 3.2959e-21)
(5.18386 0.960059 2.87643e-21)
(4.86655 1.02078 -1.24161e-20)
(5.01413 1.05555 3.37497e-21)
(4.63663 1.09983 -1.36572e-20)
(4.80327 1.15148 -1.84282e-20)
(4.37253 1.16978 -2.73787e-20)
(4.5526 1.24495 9.07282e-21)
(4.08147 1.22657 -3.04856e-20)
(4.27077 1.32957 -3.44444e-20)
(3.75846 1.27812 4.26827e-20)
(3.96575 1.40179 3.65925e-20)
(3.37177 1.36585 7.98596e-20)
(3.62934 1.47224 2.30578e-20)
(2.88134 1.5711 6.60427e-20)
(3.22676 1.58726 5.0199e-20)
(2.32239 1.90346 2.78372e-20)
(2.72262 1.83138 3.23053e-20)
(1.86932 2.19921 -1.27768e-19)
(2.17287 2.19951 -6.76371e-22)
(1.72604 2.23572 -1.91099e-19)
(1.77181 2.47975 5.13747e-20)
(1.94551 2.03464 -2.86115e-19)
(1.74638 2.48362 -5.29385e-20)
(2.49092 1.64766 6.98607e-20)
(2.05574 2.22891 -4.34501e-20)
(3.30427 1.18729 2.83576e-19)
(2.71191 1.81938 -8.85056e-20)
(4.2961 0.707448 5.55546e-21)
(3.60815 1.33309 1.16588e-19)
(5.34649 0.264709 9.58949e-20)
(4.66054 0.833641 -1.52155e-19)
(6.28882 -0.0771678 9.07949e-20)
(5.71734 0.381842 5.7424e-20)
(6.93647 -0.260391 -2.2787e-21)
(6.604 0.0483845 9.89151e-21)
(7.20826 -0.267623 -5.78011e-20)
(7.12435 -0.106901 -1.07988e-19)
(7.20322 -0.20742 -2.40314e-20)
(7.25878 -0.11134 1.87282e-20)
(7.01425 -0.117194 6.56536e-22)
(7.1717 -0.055939 -1.23509e-20)
(6.75921 -0.0555026 -5.35996e-21)
(6.90255 -0.00430617 -2.47356e-20)
(6.55382 -0.0199691 7.20153e-20)
(6.65571 0.0252844 3.663e-20)
(6.40878 0.00109471 -1.9405e-20)
(6.48021 0.0401605 2.10322e-20)
(6.30413 0.0131837 2.50972e-21)
(6.35652 0.0467656 -7.74872e-20)
(6.22505 0.0180455 -6.06804e-20)
(6.26468 0.0472691 -2.77128e-20)
(6.16349 0.016351 1.01447e-20)
(6.19308 0.0436189 -7.46514e-20)
(6.11593 0.0103908 8.53393e-20)
(6.13655 0.035787 -1.1096e-19)
(6.08212 0.00272323 -7.87248e-20)
(6.09508 0.0206914 1.00791e-19)
(6.06569 0.00906688 6.77761e-21)
(6.0603 -0.00737358 -3.20549e-19)
(5.73852 0.218082 2.38912e-21)
(5.7787 0.205474 4.51922e-21)
(5.77071 0.172955 -3.73492e-20)
(5.71866 0.266295 -1.82696e-20)
(5.75838 0.251222 4.6098e-20)
(5.70391 0.318638 2.50403e-20)
(5.74625 0.304985 -5.52646e-20)
(5.68917 0.376113 3.31167e-20)
(5.73475 0.361146 3.52836e-20)
(5.67118 0.439812 1.80401e-20)
(5.72119 0.422253 -3.10101e-23)
(5.64685 0.510195 1.17152e-20)
(5.70299 0.491112 2.14631e-20)
(5.61291 0.587795 -1.88696e-20)
(5.67717 0.56851 -2.98345e-20)
(5.56548 0.673336 -1.48385e-20)
(5.6403 0.654808 1.96416e-20)
(5.49977 0.766591 -7.39842e-21)
(5.58756 0.750587 1.05745e-20)
(5.41056 0.866215 -5.79228e-21)
(5.51341 0.855599 -1.89173e-20)
(5.29273 0.970035 4.81515e-24)
(5.41237 0.968113 1.05781e-20)
(5.1411 1.07638 4.28777e-21)
(5.27972 1.08568 -2.36331e-22)
(4.95057 1.18492 -1.23846e-21)
(5.11082 1.20704 2.75487e-21)
(4.71889 1.295 5.54292e-21)
(4.90116 1.33256 -2.12948e-20)
(4.45048 1.40283 3.82666e-21)
(4.65003 1.46143 2.33992e-21)
(4.15474 1.50223 2.86337e-20)
(4.36447 1.58818 -9.72213e-21)
(3.83616 1.59113 1.34995e-20)
(4.05485 1.70519 2.85203e-20)
(3.48386 1.68461 -6.33584e-21)
(3.72302 1.80947 -1.63441e-20)
(3.06698 1.839 1.17823e-20)
(3.35825 1.91696 1.21854e-20)
(2.56877 2.12265 4.50613e-21)
(2.92974 2.08887 6.75107e-22)
(2.05708 2.49897 5.05804e-21)
(2.43148 2.39489 -9.08522e-22)
(1.76599 2.75749 4.03793e-20)
(1.95853 2.77331 2.07892e-19)
(1.83086 2.72207 1.40416e-19)
(1.75544 2.98618 3.44856e-20)
(2.25329 2.43973 -2.28159e-19)
(1.90992 2.90353 -1.10041e-19)
(3.00467 1.98159 -2.16923e-19)
(2.44439 2.56871 -1.44189e-19)
(3.9733 1.46094 -2.71541e-20)
(3.28139 2.07739 1.84554e-19)
(5.03951 0.943626 -1.66397e-19)
(4.31244 1.53414 -2.24618e-19)
(6.04654 0.495688 -3.40655e-20)
(5.39212 1.0106 -6.75387e-21)
(6.80958 0.181589 -1.06622e-19)
(6.35435 0.570085 -2.42623e-21)
(7.18552 0.0491603 3.0959e-20)
(7.00085 0.291927 -8.79872e-20)
(7.23299 0.0353387 2.97121e-20)
(7.23167 0.185259 3.11119e-20)
(7.06357 0.0632354 -3.78815e-20)
(7.19396 0.164266 -1.85705e-20)
(6.80194 0.0812284 1.75786e-20)
(6.93309 0.158597 7.43332e-20)
(6.58335 0.0884845 -1.30135e-21)
(6.67883 0.15276 4.54049e-21)
(6.42828 0.0876848 -4.59066e-20)
(6.49283 0.14142 1.55194e-20)
(6.3167 0.0829338 -1.12637e-19)
(6.36261 0.127786 1.27828e-19)
(6.23199 0.0751191 -1.0335e-19)
(6.26613 0.113558 -9.35683e-20)
(6.16542 0.0644887 -1.95224e-19)
(6.1904 0.0991228 1.165e-19)
(6.11325 0.0523244 -9.46786e-20)
(6.13051 0.0831811 -7.43871e-20)
(6.07355 0.0395048 1.82841e-19)
(6.08616 0.0617558 -1.28583e-19)
(6.05035 0.0449435 8.23181e-20)
(6.04396 0.023324 5.79032e-20)
(5.79989 0.243465 -6.91032e-20)
(5.8405 0.228463 4.27616e-20)
(5.82305 0.198386 2.39348e-19)
(5.78671 0.292167 7.9769e-20)
(5.82727 0.273951 3.50993e-20)
(5.77688 0.345888 -2.56326e-20)
(5.8203 0.327953 3.60458e-21)
(5.76654 0.405986 2.50302e-21)
(5.81364 0.385758 -4.0039e-20)
(5.75294 0.473451 3.05973e-21)
(5.80484 0.449679 -4.30102e-20)
(5.73329 0.549393 -8.03596e-21)
(5.79181 0.522949 4.8514e-20)
(5.70441 0.635007 -2.01775e-21)
(5.7718 0.606807 -4.37398e-20)
(5.66213 0.731206 4.31631e-20)
(5.74111 0.702148 -9.49577e-21)
(5.60101 0.83863 -2.61482e-22)
(5.69472 0.810183 5.59428e-20)
(5.51507 0.956526 -5.18021e-21)
(5.62608 0.931455 -6.13323e-20)
(5.39914 1.08274 1.10724e-20)
(5.52897 1.06487 1.50826e-20)
(5.24908 1.21513 -2.59132e-21)
(5.39921 1.20814 4.50403e-20)
(5.06082 1.3532 -1.60825e-20)
(5.23367 1.35975 -7.03281e-21)
(4.83143 1.49723 -2.39788e-20)
(5.02854 1.52 -3.36727e-20)
(4.56287 1.64496 -1.58664e-20)
(4.78129 1.68874 -6.1581e-21)
(4.26287 1.78881 -9.68335e-21)
(4.49524 1.86104 2.03716e-20)
(3.93982 1.91824 6.45511e-21)
(4.17826 2.02568 -5.72706e-20)
(3.59566 2.03445 -4.61309e-21)
(3.83916 2.16885 4.27997e-20)
(3.2193 2.15932 -8.23917e-21)
(3.47866 2.28701 -1.02639e-19)
(2.79022 2.35659 -3.70338e-21)
(3.08996 2.40805 8.91862e-20)
(2.31907 2.67666 6.44086e-20)
(2.65844 2.60345 9.58674e-22)
(1.92661 3.03808 8.42215e-20)
(2.20451 2.92462 1.45062e-19)
(1.81213 3.1965 -1.51639e-19)
(1.87582 3.24703 3.66974e-20)
(2.0709 3.07738 -1.29634e-19)
(1.85721 3.35828 1.90926e-19)
(2.69407 2.68825 6.65435e-20)
(2.21143 3.16602 2.06992e-19)
(3.60551 2.16399 1.33847e-21)
(2.94067 2.72512 1.7252e-19)
(4.66197 1.60109 -6.40127e-20)
(3.91974 2.17081 -1.12726e-20)
(5.70934 1.07642 2.45282e-20)
(4.99837 1.6077 1.24908e-19)
(6.56853 0.664192 5.60962e-20)
(6.019 1.09534 -4.85019e-21)
(7.07222 0.415539 6.31208e-20)
(6.77924 0.721822 3.2813e-20)
(7.21382 0.316265 3.02684e-20)
(7.13153 0.515772 3.06234e-20)
(7.07828 0.26362 1.9659e-20)
(7.15335 0.410222 2.20028e-20)
(6.81601 0.235336 2.85318e-20)
(6.92913 0.341534 4.59315e-21)
(6.59112 0.210035 6.24947e-20)
(6.67692 0.294342 -7.67258e-20)
(6.42881 0.18422 1.48645e-19)
(6.48476 0.252685 -8.16617e-20)
(6.31288 0.160472 1.06951e-19)
(6.35114 0.216239 -3.23411e-20)
(6.22508 0.138422 1.10328e-19)
(6.25287 0.185495 -1.10013e-20)
(6.15598 0.117799 2.25301e-19)
(6.17597 0.159017 -2.3754e-20)
(6.10145 0.098436 -1.14358e-19)
(6.11497 0.133535 5.29655e-19)
(6.05822 0.0794049 -2.21796e-19)
(6.0687 0.105378 -2.2764e-19)
(6.02851 0.0839509 0)
(6.02236 0.0584619 3.31267e-19)
(5.86892 0.262952 3.03688e-20)
(5.90923 0.244567 2.87978e-20)
(5.88493 0.217894 2.65818e-19)
(5.86138 0.311754 2.91771e-20)
(5.90165 0.289469 3.86132e-22)
(5.85664 0.366239 -2.52546e-20)
(5.89973 0.342983 3.46555e-20)
(5.85151 0.428161 -8.55428e-20)
(5.89859 0.401849 -4.90975e-20)
(5.8435 0.498938 -6.71286e-21)
(5.89575 0.468156 8.07381e-21)
(5.83016 0.580117 2.29883e-20)
(5.88948 0.545237 6.35563e-21)
(5.8083 0.673378 -6.03454e-20)
(5.87718 0.635077 1.83467e-20)
(5.77343 0.78034 2.92265e-21)
(5.855 0.739183 4.47341e-20)
(5.71944 0.902078 -2.9467e-21)
(5.81738 0.859354 -7.69246e-20)
(5.63961 1.03863 -4.2669e-20)
(5.75714 0.997007 -8.72122e-20)
(5.5287 1.18885 4.86512e-20)
(5.6677 1.15218 -4.16335e-20)
(5.38341 1.35117 4.05838e-20)
(5.54523 1.32382 -3.85395e-20)
(5.20074 1.52471 -3.01318e-20)
(5.3875 1.51111 2.63108e-20)
(4.9773 1.70936 -2.39767e-20)
(5.19122 1.71399 8.8048e-21)
(4.7119 1.90232 9.75768e-21)
(4.95168 1.93117 -1.95053e-20)
(4.4084 2.09386 -4.72345e-20)
(4.66696 2.15556 2.95737e-20)
(4.07483 2.26951 -4.84903e-20)
(4.34129 2.37065 2.70738e-20)
(3.71894 2.41477 -7.61096e-20)
(3.98277 2.55437 1.47154e-19)
(3.34638 2.53036 1.29782e-20)
(3.60127 2.69034 5.14701e-20)
(2.95626 2.6518 9.45815e-20)
(3.21043 2.78201 -3.24645e-20)
(2.54324 2.85219 8.22002e-20)
(2.81766 2.8757 8.62563e-20)
(2.1438 3.15963 9.71335e-20)
(2.41824 3.0576 1.31597e-20)
(1.90107 3.43612 3.19373e-19)
(2.06389 3.34072 -5.47857e-20)
(1.96434 3.4809 3.54731e-19)
(1.89774 3.56664 -2.05839e-19)
(2.41344 3.23587 2.46217e-19)
(2.05876 3.53548 -1.27411e-19)
(3.21848 2.76165 1.08529e-19)
(2.61886 3.2163 -1.30009e-19)
(4.23433 2.1892 2.80082e-20)
(3.50343 2.69708 -1.63234e-19)
(5.30077 1.6216 9.62433e-20)
(4.55455 2.12539 1.91046e-19)
(6.23284 1.14253 -2.33459e-20)
(5.61432 1.57778 -9.32806e-20)
(6.85331 0.80305 0)
(6.47062 1.14277 0)
(7.08769 0.614396 2.22697e-20)
(6.95081 0.854681 0)
(7.01614 0.486458 5.67944e-20)
(7.04642 0.670907 1.70054e-20)
(6.79476 0.405909 -6.1767e-20)
(6.87842 0.540778 -1.51655e-20)
(6.57248 0.341979 -1.82434e-19)
(6.64296 0.445922 -4.66891e-20)
(6.40789 0.288091 -2.57541e-19)
(6.45219 0.370033 1.77644e-19)
(6.29129 0.243307 -1.21439e-19)
(6.31926 0.308836 -1.22805e-19)
(6.20385 0.206219 -1.40157e-19)
(6.22315 0.260349 0)
(6.13493 0.174689 2.91275e-19)
(6.14813 0.22103 -1.39393e-19)
(6.07983 0.147014 2.89258e-19)
(6.08817 0.185422 2.65164e-19)
(6.03473 0.121287 -1.03858e-20)
(6.04152 0.150187 -1.04133e-20)
(5.99913 0.123831 0)
(5.99504 0.0953336 -1.75315e-19)
(5.94269 0.274085 8.39864e-22)
(5.98147 0.25189 -5.60097e-20)
(5.95309 0.229801 -1.12117e-19)
(5.94036 0.322437 6.33316e-21)
(5.9791 0.295492 5.64839e-20)
(5.94121 0.377172 -2.47004e-21)
(5.98266 0.347803 1.03323e-20)
(5.94233 0.440328 4.38847e-20)
(5.98795 0.407139 -3.79828e-20)
(5.94141 0.513838 1.87078e-20)
(5.99249 0.475238 1.03036e-21)
(5.93619 0.599663 1.10048e-20)
(5.99466 0.555426 -3.10639e-20)
(5.92354 0.700042 1.22867e-19)
(5.99213 0.650482 7.75169e-25)
(5.89863 0.817282 -2.77024e-20)
(5.9809 0.762718 1.41562e-19)
(5.8548 0.953327 -1.57073e-19)
(5.95498 0.894619 -4.2832e-20)
(5.78491 1.1094 -8.64542e-20)
(5.90686 1.0486 -1.09563e-19)
(5.68367 1.28572 -1.17016e-19)
(5.82999 1.2265 7.4706e-20)
(5.54837 1.48184 -4.57297e-20)
(5.7209 1.42958 -7.93235e-20)
(5.37659 1.69757 3.76191e-20)
(5.578 1.65862 9.29079e-20)
(5.1637 1.93202 -1.25226e-21)
(5.39711 1.9133 1.16518e-19)
(4.90425 2.17956 2.05955e-20)
(5.16933 2.18928 -1.93019e-20)
(4.59645 2.42595 6.60724e-20)
(4.88599 2.47354 -2.04137e-20)
(4.24473 2.6483 1.98876e-19)
(4.54489 2.74153 3.12287e-19)
(3.86009 2.82298 2.40075e-19)
(4.1537 2.96285 -8.71953e-20)
(3.46079 2.9371 -2.02559e-21)
(3.72961 3.11414 9.8124e-20)
(3.06878 3.00378 -4.23231e-21)
(3.302 3.18408 -6.90662e-20)
(2.69306 3.08188 -9.14072e-21)
(2.90585 3.19794 -2.32723e-20)
(2.33616 3.25173 -1.75063e-19)
(2.55033 3.23532 -2.18454e-19)
(2.04395 3.49704 -3.50534e-19)
(2.23186 3.38019 1.55521e-19)
(1.95817 3.64325 -4.60323e-19)
(1.99618 3.59017 -1.49263e-19)
(2.21488 3.55252 -2.80983e-19)
(1.99609 3.6698 -1.38441e-19)
(2.85037 3.19719 -1.4937e-19)
(2.3631 3.49953 -2.55563e-21)
(3.78433 2.65705 -1.64818e-20)
(3.09146 3.069 -4.08722e-20)
(4.84749 2.08204 2.3242e-20)
(4.08248 2.52106 7.04453e-20)
(5.84156 1.57189 -6.95062e-20)
(5.1606 1.97481 -7.03187e-20)
(6.56503 1.17774 0)
(6.09511 1.51555 -1.34408e-20)
(6.90576 0.909411 -3.66469e-20)
(6.68873 1.17452 3.8202e-20)
(6.90647 0.7214 -3.60802e-20)
(6.87886 0.928493 2.1171e-20)
(6.72592 0.584229 0)
(6.77505 0.743129 9.77604e-20)
(6.52151 0.478436 3.01222e-19)
(6.57061 0.599632 -7.44633e-20)
(6.36205 0.394262 2.96277e-19)
(6.39134 0.487823 -2.25192e-20)
(6.24982 0.327884 0)
(6.26507 0.401315 3.7214e-19)
(6.16678 0.275359 0)
(6.17538 0.335033 3.73369e-19)
(6.10086 0.232279 -1.50132e-19)
(6.10535 0.282853 -1.68591e-19)
(6.0471 0.196058 -1.47943e-19)
(6.04919 0.237334 2.82117e-20)
(6.00172 0.163428 0)
(6.00381 0.194951 1.76277e-19)
(5.96099 0.162761 -5.15446e-19)
(5.96056 0.131894 -1.98594e-19)
(6.01825 0.274888 -3.64353e-20)
(6.05384 0.248695 -1.03466e-19)
(6.02305 0.23225 -4.42844e-20)
(6.02157 0.322254 6.18134e-20)
(6.05734 0.290475 1.39813e-20)
(6.02888 0.376714 -2.33634e-20)
(6.06716 0.340829 1.57981e-19)
(6.03747 0.440501 -8.0622e-20)
(6.0799 0.399869 5.67131e-20)
(6.04524 0.515937 -4.35416e-20)
(6.09323 0.468987 -4.03656e-20)
(6.05011 0.605544 -4.33583e-20)
(6.10566 0.55137 8.44287e-21)
(6.04896 0.71218 1.64396e-20)
(6.11505 0.650537 -3.33781e-20)
(6.03674 0.838914 1.37593e-19)
(6.11733 0.769718 -9.16248e-20)
(6.00656 0.988748 8.14395e-21)
(6.10636 0.912386 8.24553e-20)
(5.95145 1.16457 4.31279e-20)
(6.07503 1.08245 2.35888e-19)
(5.86661 1.36908 1.13689e-19)
(6.01769 1.28433 -1.44184e-19)
(5.74959 1.60462 5.77913e-20)
(5.93146 1.52234 -7.70254e-20)
(5.59688 1.87173 1.58834e-19)
(5.81336 1.79931 4.26246e-19)
(5.4001 2.16675 9.83245e-20)
(5.65518 2.11388 -2.78536e-19)
(5.14735 2.47799 -3.97887e-20)
(5.44095 2.45621 1.04948e-19)
(4.82971 2.78259 2.44282e-19)
(5.15343 2.80422 -4.25813e-19)
(4.44822 3.04805 1.0097e-19)
(4.78393 3.12288 6.20791e-20)
(4.01703 3.2443 -1.27487e-19)
(4.34267 3.37309 2.22977e-19)
(3.5649 3.35153 4.57651e-20)
(3.85478 3.52821 1.16368e-20)
(3.13494 3.37195 -8.33719e-20)
(3.36357 3.57007 4.06737e-19)
(2.76268 3.34997 -2.2222e-19)
(2.93047 3.51833 -9.61233e-20)
(2.44746 3.37167 1.18316e-19)
(2.5901 3.43819 1.54332e-19)
(2.18081 3.48926 3.79281e-19)
(2.31962 3.42788 3.02174e-19)
(2.01952 3.63926 1.36124e-19)
(2.09525 3.5266 1.69761e-20)
(2.10541 3.65489 5.96442e-20)
(1.99855 3.62333 0)
(2.55499 3.40261 8.65813e-20)
(2.16745 3.55463 5.94802e-20)
(3.35591 2.94424 -2.3656e-20)
(2.72119 3.24342 -4.98131e-21)
(4.37532 2.41688 0)
(3.62204 2.7606 -4.72999e-21)
(5.4027 1.91676 -1.36056e-20)
(4.68632 2.25338 -1.40708e-20)
(6.21313 1.50267 7.09351e-20)
(5.6747 1.80782 -3.56202e-20)
(6.6574 1.18686 1.22437e-19)
(6.36342 1.44993 1.21475e-19)
(6.74266 0.946674 2.13004e-19)
(6.65039 1.1654 2.69532e-20)
(6.61423 0.759631 9.98529e-21)
(6.61954 0.933893 1.27614e-19)
(6.43595 0.612312 -4.19554e-19)
(6.45687 0.746576 -4.67419e-19)
(6.29115 0.498302 1.03599e-19)
(6.2996 0.600155 -1.25957e-19)
(6.18853 0.411311 7.49796e-19)
(6.18759 0.489639 1.93613e-19)
(6.11279 0.343296 1.81047e-19)
(6.10833 0.406637 1.95918e-19)
(6.05257 0.288674 2.87945e-20)
(6.04678 0.341747 5.45182e-20)
(6.00248 0.243393 3.54894e-19)
(5.99695 0.286586 1.79493e-19)
(5.95883 0.203598 -3.4414e-19)
(5.95487 0.23748 1.43881e-20)
(5.91422 0.199238 -1.76573e-19)
(5.91819 0.166922 -8.9801e-19)
(6.09282 0.264247 -8.87441e-20)
(6.12316 0.233388 -1.94685e-20)
(6.09083 0.224176 -2.7475e-20)
(6.10289 0.309931 7.56413e-20)
(6.13399 0.273152 -6.14732e-20)
(6.11766 0.36342 2.54984e-19)
(6.1511 0.320965 1.42793e-19)
(6.13496 0.427008 9.91267e-20)
(6.17235 0.378706 5.31122e-20)
(6.15304 0.503352 1.46202e-20)
(6.19585 0.447761 -5.60895e-20)
(6.17002 0.595517 2.3678e-20)
(6.22032 0.531114 8.33509e-21)
(6.18281 0.70704 -1.34164e-19)
(6.24375 0.632856 -7.82753e-20)
(6.18633 0.841938 -1.49303e-19)
(6.26226 0.757226 -1.68173e-19)
(6.17418 1.00474 3.00381e-19)
(6.27026 0.909184 -2.16882e-19)
(6.14049 1.20083 5.47343e-20)
(6.26221 1.09503 1.4578e-19)
(6.08141 1.43607 -3.32498e-19)
(6.23387 1.32258 1.32956e-19)
(5.99357 1.71553 2.83308e-19)
(6.18202 1.59917 -1.67453e-19)
(5.86937 2.03976 2.04681e-20)
(6.09916 1.92827 1.48583e-19)
(5.69301 2.4014 -2.55763e-19)
(5.96927 2.30476 -3.50055e-19)
(5.44305 2.77952 -2.78635e-19)
(5.76527 2.71139 1.03769e-19)
(5.10316 3.13951 -5.33981e-19)
(5.46047 3.1152 -2.15091e-20)
(4.67414 3.43882 2.24814e-19)
(5.04265 3.47157 -4.66595e-20)
(4.17568 3.64101 3.84761e-19)
(4.52849 3.7354 -1.61132e-19)
(3.64756 3.72779 3.86931e-19)
(3.95556 3.87049 5.82115e-19)
(3.15378 3.70124 3.85912e-19)
(3.38266 3.87193 5.24566e-19)
(2.75589 3.59913 2.86121e-19)
(2.89372 3.76706 2.58749e-20)
(2.46558 3.49705 2.97333e-19)
(2.54419 3.60396 2.89425e-19)
(2.24138 3.47659 -1.07607e-19)
(2.3156 3.46807 -7.41764e-20)
(2.07276 3.52934 -1.19324e-19)
(2.12974 3.43444 -1.77972e-19)
(2.05188 3.54107 0)
(1.99724 3.46819 1.26214e-20)
(2.32713 3.38995 1.90384e-20)
(2.03766 3.4346 0)
(2.97724 3.04828 -5.32482e-20)
(2.42325 3.21814 -2.16942e-21)
(3.91984 2.6007 4.44275e-20)
(3.20142 2.83031 -2.4598e-20)
(4.94805 2.14825 -3.63447e-20)
(4.22172 2.39557 3.16098e-20)
(5.81886 1.75161 1.07562e-20)
(5.23761 1.99818 1.87944e-20)
(6.35235 1.42198 1.07829e-20)
(5.99833 1.65741 -1.68097e-19)
(6.52315 1.14832 -4.81222e-20)
(6.37173 1.35981 3.61286e-20)
(6.45685 0.92102 -4.00103e-19)
(6.41501 1.09694 8.74808e-20)
(6.31552 0.73735 -1.03853e-19)
(6.30228 0.874459 -6.3512e-19)
(6.19215 0.5958 1.1936e-19)
(6.17651 0.699286 5.01596e-21)
(6.10451 0.488329 -3.22185e-19)
(6.08501 0.568179 -1.9392e-19)
(6.04062 0.405801 4.56236e-20)
(6.02157 0.470196 -4.08933e-19)
(5.98953 0.340334 2.18978e-19)
(5.97236 0.393501 2.43816e-19)
(5.94588 0.286087 -1.76945e-19)
(5.93115 0.329485 -4.00925e-19)
(5.90652 0.239349 1.80468e-19)
(5.89479 0.274473 2.22498e-19)
(5.85926 0.230798 5.21309e-19)
(5.8689 0.198007 5.749e-21)
(6.16386 0.240955 2.34254e-21)
(6.18758 0.204778 3.92912e-20)
(6.15373 0.203724 3.28846e-20)
(6.18197 0.284355 -3.46325e-20)
(6.20691 0.242288 -3.38759e-20)
(6.2053 0.336099 -4.49969e-20)
(6.23231 0.287212 -4.84082e-20)
(6.23247 0.398472 -1.07242e-19)
(6.263 0.342631 -4.54797e-20)
(6.26236 0.474413 -6.26381e-20)
(6.29787 0.41015 1.18127e-21)
(6.29334 0.567497 -8.66538e-20)
(6.33598 0.492837 0)
(6.32251 0.681994 -1.1134e-19)
(6.37545 0.59501 -1.91298e-19)
(6.3455 0.823188 -2.44482e-19)
(6.41331 0.722328 -4.12146e-20)
(6.35754 0.997936 -3.80464e-19)
(6.44587 0.881759 -1.2691e-19)
(6.35471 1.21516 2.2491e-19)
(6.47041 1.08337 -1.50515e-19)
(6.33326 1.48379 3.00308e-19)
(6.48285 1.33833 1.06069e-18)
(6.28585 1.81013 -2.93422e-19)
(6.47658 1.65494 -6.34059e-19)
(6.19658 2.19133 -2.04188e-19)
(6.43416 2.03324 -2.01948e-19)
(6.03855 2.6138 0)
(6.32931 2.46072 0)
(5.77919 3.04606 3.21865e-19)
(6.12195 2.91324 -2.62355e-19)
(5.39581 3.44411 4.34749e-19)
(5.77911 3.34802 -8.68067e-20)
(4.89236 3.7572 -4.44197e-19)
(5.28862 3.71576 1.11147e-19)
(4.30403 3.94124 7.53286e-20)
(4.67592 3.9713 -1.31121e-18)
(3.6881 3.99063 7.22414e-19)
(4.002 4.05559 8.48939e-19)
(3.12107 3.92201 1.74668e-19)
(3.3488 4.02179 -3.0828e-19)
(2.68081 3.76449 3.03781e-20)
(2.80066 3.88119 2.57361e-20)
(2.39616 3.57507 -1.16502e-19)
(2.42604 3.66588 6.46641e-20)