/*--------------------------------*- C++ -*----------------------------------*\
  =========                 |
  \\      /  F ield         | OpenFOAM: The Open Source CFD Toolbox
   \\    /   O peration     | Website:  https://openfoam.org
    \\  /    A nd           | Version:  6
     \\/     M anipulation  |
\*---------------------------------------------------------------------------*/
FoamFile
{
    version     2.0;
    format      ascii;
    class       volScalarField;
    location    "1.25";
    object      k;
}
// * * * * * * * * * * * * * * * * * * * * * * * * * * * * * * * * * * * * * //

dimensions      [0 2 -2 0 0 0 0];

internalField   nonuniform List<scalar> 
4214
(
0.038262
0.0319258
0.0299427
0.0293591
0.0291567
0.0290393
0.0289353
0.0288409
0.0287734
0.0287416
0.0287482
0.0287954
0.0288901
0.029042
0.0292608
0.0295552
0.0299361
0.0304196
0.0310269
0.0317723
0.0322117
0.0327077
0.0329754
0.0327223
0.0321485
0.0314668
0.0308101
0.0302419
0.0297836
0.0294348
0.029185
0.0290203
0.0289266
0.0288903
0.0288966
0.0289294
0.0289822
0.0291041
0.0295548
0.0313405
0.0374993
0.0302261
0.0295458
0.0293238
0.0292223
0.0291385
0.0290519
0.0289631
0.0288812
0.0288229
0.0287987
0.0288141
0.0288739
0.0289876
0.0291697
0.0294366
0.0298066
0.030302
0.0309568
0.0318229
0.0329613
0.0338399
0.0346825
0.0349321
0.0343985
0.0334674
0.0324588
0.0315399
0.0307747
0.0301747
0.029727
0.0294101
0.0292011
0.0290793
0.0290246
0.0290166
0.0290332
0.0290551
0.0290684
0.0290783
0.02918
0.0297452
0.0293969
0.0292989
0.0292654
0.0292201
0.0291559
0.0290804
0.0290016
0.0289296
0.0288791
0.0288627
0.0288884
0.0289639
0.0291018
0.0293215
0.0296478
0.0301103
0.0307478
0.0316205
0.0328287
0.0345179
0.0360826
0.0373729
0.037453
0.0364406
0.034997
0.0335667
0.0323331
0.0313422
0.0305852
0.0300311
0.0296441
0.0293906
0.0292416
0.0291703
0.0291509
0.0291572
0.029166
0.0291575
0.0291143
0.0290389
0.0290206
0.0292537
0.0292803
0.0292826
0.0292484
0.0291912
0.0291228
0.029051
0.0289861
0.0289426
0.0289346
0.0289727
0.0290679
0.0292365
0.0295037
0.0299038
0.0304806
0.0312943
0.0324411
0.0340951
0.0365392
0.0391275
0.0409436
0.0406005
0.0388453
0.0367147
0.0347687
0.0331737
0.0319334
0.0310073
0.0303407
0.0298814
0.0295833
0.0294078
0.0293214
0.0292927
0.0292915
0.0292913
0.0292712
0.0292122
0.0291007
0.0289613
0.0292522
0.0293088
0.029318
0.0292879
0.0292357
0.029173
0.0291076
0.0290497
0.029014
0.0290166
0.0290706
0.029191
0.0293986
0.0297254
0.030217
0.0309343
0.0319642
0.0334514
0.035678
0.0391358
0.0431853
0.0455547
0.0444155
0.0415927
0.038592
0.0360435
0.0340502
0.0325423
0.0314379
0.0306539
0.0301194
0.0297749
0.0295717
0.029469
0.0294305
0.0294226
0.0294156
0.029387
0.0293189
0.0291967
0.0290269
0.0292882
0.0293517
0.0293627
0.0293356
0.0292879
0.0292307
0.0291718
0.0291217
0.0290961
0.0291126
0.0291878
0.0293408
0.0295979
0.0299998
0.0306047
0.031494
0.0327871
0.0346913
0.0376429
0.0424323
0.0484737
0.0513459
0.0489132
0.044655
0.0406047
0.0373774
0.0349581
0.0331686
0.0318786
0.0309717
0.0303581
0.0299634
0.0297292
0.0296074
0.0295574
0.0295426
0.0295305
0.0294961
0.0294226
0.0292968
0.0291202
0.0293369
0.029401
0.0294134
0.0293897
0.029347
0.0292959
0.0292447
0.0292048
0.029193
0.0292284
0.0293318
0.0295268
0.0298467
0.0303421
0.0310863
0.0321842
0.0337939
0.0362015
0.0400566
0.0465508
0.0551769
0.0584103
0.0540798
0.0480039
0.0427401
0.0387659
0.0359005
0.0338178
0.0323354
0.0312988
0.0305997
0.0301488
0.029878
0.0297324
0.0296677
0.029645
0.0296287
0.029591
0.029515
0.0293897
0.0292153
0.0293909
0.0294555
0.0294708
0.029452
0.0294152
0.0293713
0.0293298
0.0293032
0.0293097
0.0293706
0.0295105
0.0297586
0.0301568
0.0307674
0.031681
0.0330288
0.0350139
0.0380192
0.0429808
0.0515912
0.0633932
0.0667801
0.0598889
0.0516265
0.0450097
0.0402197
0.0368911
0.0345015
0.0328189
0.0316432
0.03085
0.0303338
0.0300186
0.0298428
0.0297592
0.0297264
0.0297061
0.0296671
0.0295913
0.029469
0.029301
0.0294495
0.0295163
0.0295364
0.0295237
0.0294936
0.0294579
0.0294278
0.0294178
0.0294473
0.0295407
0.0297265
0.0300409
0.0305356
0.031286
0.0324027
0.0340461
0.0364707
0.0401729
0.0464626
0.0576054
0.0730865
0.0764417
0.0663452
0.0555534
0.047456
0.0417649
0.0379527
0.0352359
0.0333436
0.0320157
0.0311173
0.0305244
0.0301552
0.0299413
0.029833
0.0297865
0.0297608
0.0297215
0.0296481
0.0295312
0.0293723
0.0295135
0.0295809
0.0296026
0.0295926
0.0295673
0.0295402
0.0295243
0.0295357
0.0295957
0.0297312
0.0299756
0.0303727
0.0309848
0.031903
0.0332597
0.0352462
0.038176
0.0426762
0.0505325
0.064584
0.0840724
0.0873913
0.0735154
0.0598446
0.0501499
0.0434421
0.0391197
0.0360431
0.033929
0.0324307
0.0314143
0.0307305
0.0302963
0.0300345
0.0298941
0.0298279
0.0297937
0.0297536
0.0296841
0.0295747
0.0294271
0.0295817
0.0296459
0.0296669
0.0296591
0.0296392
0.0296227
0.0296246
0.0296628
0.0297604
0.0299475
0.0302627
0.0307585
0.0315097
0.0326244
0.0342585
0.0366336
0.0401337
0.0455261
0.0552013
0.0724532
0.0960378
0.0996744
0.0815386
0.0645997
0.0532018
0.0453078
0.0404403
0.0369497
0.0345996
0.0329056
0.0317572
0.0309651
0.0304538
0.030132
0.0299503
0.0298562
0.0298077
0.0297642
0.0296991
0.0295988
0.0294646
0.0296564
0.0297154
0.0297345
0.0297281
0.0297142
0.0297105
0.0297341
0.029805
0.0299485
0.0301978
0.0305975
0.0312098
0.0321226
0.0334618
0.0354086
0.0382102
0.0423462
0.0487131
0.0604669
0.0811038
0.108575
0.113379
0.0906377
0.0699487
0.0567606
0.0474278
0.0419758
0.0379834
0.0353834
0.0334578
0.0321644
0.0312425
0.0306419
0.0302454
0.0300119
0.0298794
0.0298087
0.0297564
0.0296937
0.0296032
0.0294841
0.0297387
0.0297911
0.0298072
0.029802
0.0297954
0.0298072
0.0298574
0.0299681
0.0301668
0.0304903
0.0309901
0.0317382
0.0328368
0.034428
0.0367234
0.0399805
0.0448314
0.0522364
0.0663516
0.0904449
0.12128
0.128632
0.101118
0.0760391
0.0610165
0.0498697
0.0438025
0.0391704
0.0363127
0.0341025
0.0326564
0.0315762
0.030877
0.0303874
0.030092
0.0299077
0.0298056
0.0297354
0.0296702
0.0295875
0.0294839
0.0298284
0.0298733
0.029886
0.0298828
0.0298859
0.0299178
0.0300011
0.0301598
0.0304241
0.0308354
0.0314521
0.0323572
0.0336698
0.0355401
0.0382294
0.0419608
0.0476462
0.0561201
0.0729309
0.100434
0.133877
0.145544
0.113346
0.0830164
0.0662043
0.0526952
0.0460173
0.0405325
0.0374265
0.0348497
0.0332562
0.0319774
0.031178
0.030571
0.0302068
0.029954
0.0298113
0.0297108
0.0296354
0.0295538
0.0294628
0.0299249
0.0299614
0.029971
0.0299725
0.0299898
0.0300485
0.0301727
0.0303893
0.0307319
0.0312467
0.032002
0.0330863
0.0346546
0.0368271
0.0399887
0.0441956
0.0509143
0.0604343
0.0803872
0.111132
0.146232
0.164155
0.127721
0.0910026
0.0726135
0.0559567
0.0487474
0.0420859
0.0387784
0.0357018
0.0339929
0.0324509
0.0315673
0.0308069
0.0303771
0.0300327
0.0298447
0.0296974
0.0296035
0.0295116
0.0294262
0.0300233
0.0300539
0.0300655
0.0300775
0.0301174
0.0302106
0.0303861
0.0306711
0.0311088
0.0317422
0.0326749
0.0339542
0.0358683
0.0383393
0.0421248
0.046762
0.0548483
0.0653362
0.0890371
0.122676
0.158352
0.184426
0.144658
0.100087
0.0806018
0.0596956
0.0521656
0.043838
0.0404513
0.0366524
0.0349109
0.0329929
0.0320757
0.0310996
0.0306302
0.0301566
0.0299321
0.0297129
0.0295991
0.0294795
0.029395
0.0301184
0.0301479
0.0301699
0.0302047
0.030281
0.0304196
0.0306683
0.0310267
0.0316149
0.0323578
0.0336102
0.035034
0.0375207
0.0401617
0.0448446
0.0497612
0.0597318
0.0710771
0.0992538
0.135147
0.170585
0.20644
0.164559
0.110387
0.090578
0.0639403
0.0565091
0.0457844
0.0425751
0.0376833
0.0360861
0.0335865
0.032755
0.0314409
0.0310083
0.0303293
0.0301112
0.0297706
0.0296577
0.029478
0.0294044
0.0292919
0.0293033
0.029336
0.0293636
0.0293684
0.0293499
0.029313
0.0292607
0.0291942
0.0291149
0.0290269
0.0289394
0.0288786
0.0289164
0.0293281
0.0316382
0.0553532
0.0292278
0.0292189
0.029239
0.0292551
0.0292517
0.0292293
0.0291929
0.0291456
0.0290892
0.0290267
0.0289653
0.0289192
0.0289303
0.0291091
0.0298257
0.0328311
0.0574854
0.0291413
0.0291358
0.0291495
0.0291565
0.0291457
0.0291188
0.0290809
0.0290367
0.0289908
0.0289503
0.028927
0.0289465
0.029069
0.029449
0.0305495
0.0343292
0.0596278
0.0290847
0.0290668
0.0290733
0.029073
0.0290562
0.0290246
0.0289836
0.0289404
0.0289043
0.0288892
0.0289171
0.0290244
0.029296
0.029928
0.0314674
0.036005
0.0620621
0.0290207
0.0290083
0.0290129
0.0290076
0.0289855
0.0289484
0.0289025
0.028858
0.0288293
0.0288422
0.0289279
0.0291407
0.0295905
0.0305145
0.0325264
0.0378231
0.0648172
0.0289782
0.0289654
0.0289685
0.0289591
0.028932
0.0288886
0.0288359
0.028787
0.0287624
0.0288012
0.0289444
0.0292692
0.0299129
0.0311503
0.0336538
0.039757
0.0678744
0.0289384
0.0289343
0.028938
0.0289256
0.0288936
0.028843
0.0287817
0.0287252
0.0286992
0.0287545
0.0289468
0.0293748
0.0302062
0.031755
0.0347619
0.0417548
0.0711525
0.0289132
0.0289145
0.0289187
0.0289044
0.0288681
0.0288104
0.028739
0.0286713
0.0286355
0.0286918
0.0289131
0.0294182
0.0304065
0.0322386
0.0357436
0.0437062
0.07451
0.0288938
0.0289024
0.0289077
0.0288928
0.0288538
0.0287902
0.0287082
0.0286254
0.0285715
0.0286083
0.0288273
0.0293669
0.0304579
0.0325147
0.0364789
0.0454465
0.0777606
0.0288827
0.0288958
0.0289027
0.0288888
0.0288495
0.0287822
0.028691
0.0285903
0.0285115
0.0285088
0.0286894
0.0292058
0.0303238
0.0325188
0.0368585
0.04679
0.0807024
0.0288755
0.0288923
0.0289014
0.0288907
0.028854
0.0287865
0.028689
0.0285717
0.0284612
0.0284067
0.0285128
0.0289486
0.0300036
0.0322193
0.036807
0.0475667
0.083142
0.0288703
0.0288897
0.0289022
0.0288967
0.0288655
0.0288022
0.0287036
0.0285738
0.0284316
0.0283207
0.0283262
0.028627
0.0295254
0.0316227
0.0362708
0.0476259
0.0849778
0.0288635
0.0288858
0.0289027
0.0289039
0.0288812
0.0288266
0.0287335
0.0285997
0.0284343
0.028268
0.0281706
0.0282969
0.0289581
0.0307902
0.0352694
0.0467921
0.086171
0.0288524
0.0288779
0.0288997
0.0289089
0.028897
0.028855
0.0287741
0.0286467
0.028472
0.0282651
0.0280762
0.0280215
0.0283951
0.0298339
0.033922
0.045385
0.0866605
0.0288337
0.0288623
0.0288893
0.0289071
0.0289074
0.028881
0.0288177
0.0287066
0.0285387
0.0283141
0.0280573
0.0278527
0.0279288
0.0288896
0.0323585
0.0434475
0.0863914
0.0288037
0.0288347
0.0288663
0.0288925
0.0289054
0.0288958
0.0288535
0.0287661
0.0286195
0.0284018
0.0281146
0.0278013
0.0276237
0.0280861
0.030756
0.0410575
0.0853013
0.0287574
0.0287892
0.0288241
0.0288576
0.0288822
0.0288892
0.0288689
0.0288088
0.0286929
0.0285019
0.0282201
0.0278539
0.0274947
0.0275159
0.0293188
0.0384145
0.0833279
0.0286895
0.0287194
0.0287549
0.028793
0.0288271
0.0288491
0.0288489
0.0288163
0.0287347
0.0285821
0.0283324
0.0279652
0.0275082
0.0272034
0.0281939
0.0357768
0.0804472
0.0285934
0.028617
0.0286489
0.0286876
0.0287272
0.0287602
0.0287777
0.0287686
0.0287194
0.0286079
0.0284044
0.0280733
0.0275963
0.0270959
0.0274405
0.0334019
0.0767355
0.0284629
0.0284736
0.0284958
0.0285285
0.0285674
0.0286055
0.0286347
0.0286441
0.0286215
0.0285466
0.0283905
0.0281128
0.0276696
0.0270938
0.027009
0.031496
0.0724066
0.0282895
0.0282798
0.0282835
0.028301
0.0283298
0.028364
0.028396
0.0284163
0.0284123
0.028367
0.0282525
0.0280298
0.0276473
0.0270819
0.0267828
0.030129
0.0678001
0.0280687
0.0280271
0.0280004
0.02799
0.0279956
0.0280129
0.0280353
0.028054
0.0280586
0.0280325
0.0279513
0.0277789
0.027466
0.0269616
0.0266179
0.029226
0.0633062
0.0277899
0.0277048
0.0276342
0.0275811
0.0275468
0.0275301
0.0275257
0.0275266
0.0275239
0.0275044
0.0274472
0.0273185
0.0270774
0.0266613
0.0263755
0.0285728
0.0592398
0.0274514
0.0273051
0.0271749
0.0270618
0.0269692
0.0268978
0.0268448
0.026806
0.0267754
0.0267441
0.0266979
0.0266087
0.0264413
0.0261338
0.0259672
0.0279882
0.0557627
0.0270404
0.0268197
0.0266138
0.0264231
0.0262526
0.026105
0.0259797
0.0258759
0.025792
0.0257253
0.0256699
0.0256067
0.0255116
0.0253309
0.0253461
0.0275367
0.052913
0.0265595
0.0262448
0.0259466
0.0256615
0.0253953
0.0251524
0.0249338
0.0247416
0.0245786
0.024449
0.0243564
0.0242943
0.0242519
0.024205
0.0244617
0.0273607
0.050748
0.0260036
0.0255819
0.0251775
0.0247845
0.0244096
0.0240583
0.0237332
0.0234381
0.0231793
0.022966
0.0228079
0.0227142
0.0226932
0.0227674
0.0232981
0.0269587
0.0494272
0.025385
0.0248423
0.0243209
0.0238124
0.0233238
0.0228616
0.0224295
0.0220336
0.0216803
0.0213811
0.0211472
0.0209986
0.0209739
0.0211575
0.0219882
0.0263126
0.0491658
0.0247114
0.024043
0.0234018
0.0227787
0.0221818
0.0216188
0.021095
0.020618
0.0201924
0.0198238
0.0195242
0.0193247
0.0192954
0.0195885
0.0207447
0.0258092
0.0501217
0.0240074
0.0232106
0.0224522
0.021724
0.0210346
0.0203934
0.0198062
0.0192756
0.0188032
0.0183915
0.0180549
0.0178357
0.0178256
0.0182226
0.0196712
0.0254372
0.0522496
0.0232844
0.0223677
0.0215043
0.0206886
0.0199304
0.0192376
0.0186119
0.0180519
0.0175577
0.0171366
0.0168112
0.0166278
0.0166765
0.0171656
0.0187693
0.0247348
0.0552054
0.0225706
0.0215409
0.0205869
0.0197044
0.0189
0.0181757
0.0175291
0.0169606
0.0164805
0.0161083
0.0158693
0.0157953
0.0159561
0.0165429
0.0181601
0.0238344
0.0584621
0.0218652
0.0207437
0.0197191
0.0187888
0.0179531
0.017209
0.0165595
0.0160203
0.0156171
0.0153751
0.0153052
0.0154146
0.0157476
0.0164559
0.0180383
0.0231895
0.0615377
0.0211982
0.0199913
0.01891
0.0179434
0.0170839
0.0163351
0.0157199
0.0152711
0.0150197
0.0149841
0.0151537
0.01551
0.0160697
0.0169409
0.0185121
0.0231479
0.0642254
0.0205424
0.0192807
0.0181559
0.017159
0.0162874
0.015567
0.015042
0.0147479
0.0147135
0.0149443
0.0154057
0.0160587
0.0168968
0.0179908
0.0196316
0.0238788
0.0666022
0.0199388
0.0186136
0.0174495
0.016429
0.015571
0.014928
0.0145482
0.0144652
0.014695
0.015242
0.0160417
0.0170342
0.0182034
0.0195987
0.0214314
0.025441
0.0687253
0.0193231
0.0179746
0.0167801
0.0157544
0.0149504
0.0144323
0.0142499
0.0144147
0.0149592
0.0158788
0.0170573
0.018428
0.0199854
0.0217829
0.0239811
0.0279711
0.0705311
0.0187703
0.0173667
0.0161485
0.0151459
0.0144359
0.0140922
0.0141369
0.0146004
0.0155239
0.0168713
0.0184579
0.0202452
0.0222702
0.0246152
0.0274287
0.0317443
0.0718997
0.0181662
0.0167719
0.0155543
0.0146101
0.0140393
0.0138968
0.0142196
0.0150491
0.0164202
0.0182351
0.0202498
0.0225146
0.0251374
0.0282532
0.0320471
0.0372702
0.072694
0.0176569
0.0162123
0.0150092
0.0141527
0.0137552
0.0138636
0.0145355
0.0158094
0.0176839
0.0199769
0.0224498
0.0253093
0.0287472
0.0329825
0.0383223
0.0454072
0.0728417
0.0161109
0.0166333
0.0171813
0.0177348
0.0182752
0.0187843
0.0192456
0.019644
0.019967
0.0202041
0.0203486
0.0203968
0.0203484
0.0202066
0.0199777
0.0196709
0.0192971
0.0188683
0.0183966
0.01789
0.0172729
0.0166846
0.016163
0.0156568
0.0151705
0.0147032
0.0142742
0.0139028
0.0136298
0.0134566
0.0133681
0.013426
0.0135149
0.0138118
0.0140587
0.0145572
0.0149242
0.0155376
0.0159723
0.016597
0.0170516
0.0171148
0.0177466
0.0183905
0.0190278
0.01964
0.0202089
0.0207176
0.0211506
0.0214945
0.0217391
0.0218773
0.0219063
0.0218265
0.0216427
0.0213632
0.020999
0.0205629
0.0200691
0.0195313
0.0189586
0.0182725
0.0176182
0.0170395
0.0164808
0.0159412
0.0154234
0.0149235
0.0144647
0.0140763
0.0137714
0.0135505
0.0134301
0.0133886
0.0134616
0.0135928
0.0138367
0.0141089
0.0144718
0.0148352
0.0152514
0.0156563
0.0182623
0.0189961
0.0197328
0.0204537
0.0211398
0.0217719
0.022332
0.0228031
0.0231711
0.023425
0.0235577
0.0235668
0.023454
0.0232257
0.0228922
0.0224665
0.0219641
0.0214011
0.0207931
0.0201506
0.0193931
0.0186696
0.0180336
0.0174219
0.0168328
0.0162685
0.0157186
0.0151937
0.0147224
0.0143194
0.013987
0.0137311
0.0135506
0.0134544
0.0134309
0.0134869
0.0136007
0.0137756
0.0139864
0.0142365
0.0145054
0.0195278
0.0203637
0.0211963
0.022006
0.0227724
0.0234748
0.024093
0.0246084
0.0250054
0.0252722
0.0254015
0.0253913
0.0252447
0.02497
0.0245795
0.0240891
0.0235165
0.0228802
0.0221981
0.021482
0.0206501
0.0198545
0.0191586
0.0184921
0.0178532
0.0172439
0.0166573
0.0160839
0.0155483
0.0150719
0.0146575
0.0143043
0.0140128
0.0137867
0.0136252
0.0135286
0.0134904
0.0135062
0.0135662
0.0136639
0.0137915
0.0209021
0.0218449
0.0227803
0.0236874
0.0245434
0.0253253
0.0260104
0.0265778
0.0270102
0.0272947
0.0274237
0.0273959
0.0272158
0.0268935
0.0264443
0.0258864
0.0252404
0.0245274
0.0237676
0.0229746
0.0220656
0.0211952
0.020436
0.0197118
0.0190209
0.0183656
0.0177473
0.0171434
0.0165575
0.0160192
0.0155417
0.015122
0.0147555
0.0144413
0.0141795
0.0139705
0.0138124
0.0137026
0.0136367
0.0136095
0.013617
0.0223895
0.0234467
0.0244941
0.0255087
0.026465
0.0273369
0.0280987
0.0287271
0.0292023
0.0295103
0.0296433
0.0296006
0.0293881
0.0290185
0.0285095
0.0278825
0.027161
0.0263689
0.0255287
0.024656
0.0236678
0.0227204
0.0218948
0.0211098
0.0203642
0.0196603
0.0189999
0.0183732
0.0177593
0.0171731
0.0166418
0.016172
0.0157574
0.0153917
0.0150719
0.0147968
0.014566
0.0143785
0.0142331
0.0141282
0.0140617
0.0240076
0.0251875
0.0263566
0.0274893
0.0285569
0.0295298
0.0303787
0.0310772
0.0316033
0.0319415
0.0320836
0.0320297
0.0317873
0.0313717
0.0308033
0.030107
0.0293091
0.0284367
0.0275147
0.0265606
0.0254925
0.024467
0.0235725
0.0227239
0.0219206
0.0211656
0.0204609
0.0198074
0.0191871
0.0185814
0.0180061
0.0174869
0.0170314
0.0166339
0.0162876
0.0159881
0.0157338
0.0155248
0.0153621
0.0152462
0.0151762
0.0257879
0.0270984
0.0283984
0.0296591
0.0308484
0.0319324
0.0328783
0.0336561
0.0342412
0.0346165
0.0347736
0.0347131
0.0344445
0.0339856
0.03336
0.0325958
0.0317227
0.0307705
0.0297668
0.0287314
0.0275844
0.0264813
0.0255161
0.0246019
0.023739
0.022931
0.0221803
0.0214883
0.0208553
0.0202656
0.0196985
0.0191594
0.01867
0.0182445
0.0178841
0.0175853
0.0173458
0.0171647
0.0170418
0.0169769
0.0169654
0.0277794
0.0292267
0.0306647
0.0320616
0.0333809
0.0345846
0.0356358
0.0365008
0.0371523
0.0375715
0.0377496
0.0376882
0.0373984
0.0369008
0.0362222
0.0353939
0.0344489
0.0334199
0.0323371
0.0312226
0.03
0.0288216
0.0277855
0.0268051
0.0258819
0.02502
0.0242225
0.0234912
0.0228266
0.0222285
0.0216923
0.0212046
0.0207564
0.0203527
0.0200061
0.0197277
0.0195217
0.0193874
0.01932
0.0193128
0.019352
0.030054
0.0316412
0.0332213
0.0347587
0.0362129
0.0375415
0.0387033
0.039661
0.0403845
0.0408534
0.0410585
0.0410023
0.0406977
0.040168
0.0394432
0.0385576
0.0375473
0.0364478
0.0352917
0.0341033
0.0328115
0.0315631
0.0304585
0.0294134
0.0284307
0.0275155
0.0266713
0.0259002
0.0252034
0.0245811
0.0240328
0.0235572
0.0231527
0.0228163
0.0225439
0.0223325
0.0221807
0.0220869
0.0220471
0.0220545
0.0220958
0.0327161
0.0344415
0.036162
0.0378387
0.0394269
0.04088
0.0421526
0.0432041
0.0440018
0.0445239
0.0447609
0.0447162
0.0444048
0.0438522
0.0430912
0.0421589
0.0410943
0.039935
0.038716
0.0374637
0.0361134
0.0348045
0.0336372
0.0325321
0.0314937
0.0305275
0.029638
0.0288279
0.0280988
0.0274512
0.0268847
0.0263983
0.0259905
0.025659
0.0254011
0.0252129
0.0250896
0.0250256
0.0250144
0.0250493
0.0251193
0.0359179
0.0377715
0.0396221
0.0414275
0.0431394
0.0447074
0.0460828
0.0472219
0.0480902
0.0486648
0.0489365
0.0489096
0.0486007
0.0480373
0.0472546
0.0462918
0.0451897
0.043988
0.0427229
0.041423
0.0400315
0.0386781
0.0374596
0.0363041
0.0352176
0.0342068
0.0332765
0.0324304
0.0316703
0.0309972
0.0304112
0.0299114
0.0294964
0.0291638
0.0289105
0.0287325
0.028625
0.0285825
0.0285994
0.0286699
0.0287842
0.0398842
0.0418423
0.0437983
0.0457069
0.047517
0.0491758
0.0506321
0.0518409
0.0527667
0.0533866
0.0536916
0.0536874
0.0533919
0.0528339
0.0520499
0.0510801
0.0499663
0.0487488
0.0474645
0.0461432
0.044738
0.0433655
0.042116
0.0409282
0.039809
0.0387662
0.0378056
0.0369313
0.036146
0.0354512
0.0348477
0.034335
0.0339118
0.0335764
0.033326
0.0331571
0.0330657
0.0330474
0.0330976
0.0332112
0.03338
0.044956
0.0469708
0.0489824
0.0509432
0.0528012
0.0545027
0.0559966
0.0572384
0.0581934
0.0588399
0.0591704
0.0591914
0.0589217
0.0583904
0.0576337
0.0566914
0.0556042
0.0544117
0.05315
0.0518488
0.0504731
0.0491223
0.0478775
0.046689
0.0455657
0.044516
0.0435465
0.0426624
0.041867
0.0411629
0.0405513
0.0400327
0.0396068
0.0392726
0.0390286
0.0388721
0.0388005
0.0388106
0.0388989
0.0390611
0.039291
0.0516654
0.0536453
0.0556185
0.0575367
0.0593496
0.0610061
0.0624585
0.063666
0.0645975
0.0652344
0.0655712
0.0656155
0.0653857
0.0649097
0.064221
0.0633565
0.0623537
0.0612487
0.0600747
0.0588599
0.0575817
0.0563191
0.0551391
0.0540064
0.0529308
0.0519214
0.0509857
0.0501293
0.0493567
0.0486712
0.0480752
0.0475703
0.0471575
0.046837
0.0466087
0.0464715
0.0464241
0.0464647
0.0465908
0.0467992
0.0470865
0.0608741
0.0626453
0.064404
0.0661051
0.067705
0.0691608
0.0704329
0.0714888
0.0723047
0.0728669
0.0731732
0.0732312
0.0730576
0.0726758
0.072114
0.0714023
0.0705713
0.0696505
0.0686671
0.0676448
0.0665734
0.065508
0.0644961
0.0635181
0.0625841
0.0617028
0.0608815
0.0601261
0.0594417
0.0588323
0.0583014
0.0578517
0.0574854
0.0572042
0.0570093
0.0569013
0.0568802
0.0569458
0.0570966
0.0573303
0.0576477
0.0740418
0.0752657
0.0764754
0.0776357
0.0787183
0.0796964
0.0805462
0.0812489
0.0817914
0.0821675
0.0823774
0.0824274
0.0823289
0.0820969
0.081749
0.0813039
0.0807803
0.0801962
0.0795685
0.078912
0.0782263
0.0775391
0.0768743
0.076227
0.0756043
0.0750125
0.0744572
0.0739432
0.0734748
0.0730556
0.072689
0.0723781
0.0721255
0.0719336
0.0718044
0.0717395
0.0717402
0.0718068
0.071939
0.0721354
0.0724016
0.0561627
0.0321492
0.0297796
0.029293
0.0291893
0.0291915
0.0292285
0.0292788
0.0293366
0.0294012
0.0294738
0.0295555
0.029647
0.0297475
0.0298558
0.0299657
0.0300744
0.0583897
0.0333225
0.0302507
0.0294684
0.0292306
0.0291677
0.0291704
0.0292019
0.0292499
0.0293104
0.0293825
0.0294663
0.0295614
0.0296665
0.0297789
0.0298914
0.0300012
0.0606252
0.0348373
0.0309777
0.0298137
0.0293765
0.0292044
0.0291435
0.0291372
0.0291632
0.0292114
0.0292776
0.0293595
0.0294553
0.0295627
0.0296781
0.0297932
0.0298969
0.0631027
0.0366062
0.0319309
0.0303299
0.0296412
0.0293178
0.0291642
0.0290993
0.0290896
0.0291173
0.029172
0.0292481
0.0293412
0.0294474
0.0295628
0.0296788
0.0297888
0.0658556
0.0385624
0.0330539
0.0309795
0.0300014
0.0294942
0.0292238
0.0290858
0.0290293
0.0290316
0.0290721
0.0291404
0.0292289
0.0293313
0.0294425
0.0295521
0.0296633
0.0688626
0.0406511
0.0342651
0.0316909
0.0304014
0.0296928
0.0292939
0.0290772
0.028975
0.0289499
0.0289793
0.0290416
0.0291259
0.0292239
0.0293286
0.0294304
0.0295279
0.0720548
0.0427515
0.0354516
0.0323657
0.0307623
0.0298549
0.0293344
0.029048
0.0289098
0.0288677
0.0288929
0.0289539
0.0290365
0.0291299
0.0292266
0.0293196
0.0294037
0.0753098
0.0446858
0.0364664
0.0328877
0.0309957
0.0299192
0.0293056
0.028975
0.0288223
0.0287818
0.0288134
0.0288799
0.0289644
0.0290544
0.0291424
0.0292215
0.0292986
0.0784428
0.0462869
0.037162
0.0331443
0.031025
0.0298371
0.0291809
0.0288477
0.028711
0.0286944
0.0287441
0.0288236
0.0289131
0.0290005
0.0290799
0.0291472
0.0292096
0.0812195
0.0474356
0.0374328
0.0330622
0.0308072
0.0295918
0.0289612
0.0286746
0.0285873
0.0286144
0.0286918
0.0287881
0.0288833
0.0289671
0.0290368
0.0290919
0.0291335
0.0834242
0.0480259
0.03723
0.0326257
0.0303545
0.0292094
0.028676
0.0284826
0.0284744
0.0285534
0.0286647
0.0287774
0.0288764
0.0289559
0.0290167
0.02906
0.0290931
0.0849295
0.0479369
0.0365372
0.0318695
0.0297224
0.0287508
0.0283785
0.0283136
0.0283949
0.0285292
0.0286697
0.0287937
0.0288925
0.0289656
0.0290173
0.0290507
0.0290742
0.085683
0.0470621
0.0354003
0.0308874
0.0290126
0.0283016
0.0281314
0.0282062
0.0283697
0.0285485
0.0287076
0.0288341
0.0289267
0.0289895
0.0290288
0.029048
0.0290543
0.085626
0.0455441
0.0339486
0.0298208
0.0283477
0.0279471
0.027987
0.0281813
0.0284071
0.0286106
0.0287727
0.0288912
0.0289712
0.0290197
0.0290443
0.0290495
0.029042
0.084735
0.0435507
0.0323555
0.0288325
0.0278387
0.0277483
0.0279612
0.028241
0.0284976
0.0287021
0.0288514
0.0289524
0.0290143
0.0290459
0.0290548
0.0290459
0.0290195
0.0830205
0.0412888
0.0308556
0.0280666
0.0275455
0.0277106
0.02804
0.0283581
0.028613
0.0287981
0.0289225
0.0289986
0.0290376
0.0290485
0.0290385
0.0290127
0.0289608
0.0805259
0.0390163
0.029636
0.0275898
0.0274609
0.0277954
0.0281757
0.0284883
0.028715
0.0288659
0.0289573
0.0290038
0.0290172
0.0290059
0.0289759
0.0289306
0.0288544
0.0773565
0.0369973
0.0287869
0.0273771
0.0275184
0.0279306
0.0283036
0.0285776
0.028758
0.0288654
0.0289195
0.0289354
0.028924
0.028892
0.0288445
0.0287818
0.0286788
0.0737133
0.0354352
0.0282882
0.0273332
0.0276169
0.0280307
0.0283534
0.0285657
0.0286895
0.0287497
0.0287663
0.0287535
0.0287197
0.0286712
0.0286095
0.0285333
0.0284005
0.0698915
0.0343755
0.028041
0.0273358
0.0276512
0.0280053
0.0282512
0.0283922
0.0284569
0.0284714
0.0284545
0.0284177
0.0283688
0.0283106
0.0282411
0.028157
0.0280279
0.0662267
0.0336633
0.0279111
0.0272643
0.02753
0.027787
0.0279419
0.0280077
0.028016
0.0279907
0.0279477
0.0278968
0.0278426
0.0277852
0.0277213
0.0276481
0.0275363
0.0629849
0.0331242
0.0276545
0.0270112
0.0271862
0.0273244
0.027383
0.0273761
0.0273345
0.0272774
0.0272174
0.0271612
0.027111
0.0270652
0.0270211
0.0269755
0.0268914
0.060227
0.0322793
0.027216
0.0265317
0.0265783
0.0265852
0.0265483
0.0264761
0.0263928
0.0263129
0.0262445
0.0261916
0.0261543
0.0261305
0.0261179
0.0261094
0.0260883
0.0577765
0.0310956
0.0265066
0.0257774
0.0256699
0.025548
0.0254261
0.0253011
0.025189
0.0250981
0.0250327
0.0249939
0.0249812
0.0249925
0.025026
0.0250772
0.0251407
0.0553921
0.0300824
0.0255426
0.0247074
0.0244401
0.0242146
0.0240303
0.0238749
0.023753
0.0236666
0.0236167
0.0236035
0.0236268
0.0236855
0.0237785
0.0239014
0.0240453
0.0530275
0.0293625
0.0243391
0.0233452
0.0229391
0.0226507
0.0224398
0.0222822
0.0221701
0.0221011
0.0220754
0.0220945
0.0221588
0.0222681
0.0224206
0.0226114
0.0228396
0.0509357
0.0281889
0.0229867
0.0218228
0.0213148
0.0210034
0.020799
0.020659
0.0205667
0.020519
0.0205183
0.0205678
0.0206692
0.0208232
0.0210292
0.0212877
0.0216053
0.0496133
0.0269298
0.0216618
0.0203186
0.0197458
0.0194393
0.019257
0.0191386
0.0190637
0.0190314
0.0190474
0.0191167
0.0192427
0.0194281
0.0196739
0.0199873
0.0203652
0.04961
0.0260392
0.0204804
0.0189719
0.018372
0.0180849
0.0179244
0.0178193
0.0177508
0.0177215
0.0177398
0.0178131
0.0179462
0.0181443
0.018409
0.0187566
0.019174
0.0512126
0.0252196
0.0194621
0.0178825
0.0172963
0.0170339
0.0168847
0.0167774
0.0166984
0.0166543
0.0166558
0.0167124
0.0168304
0.0170178
0.0172778
0.0176298
0.0180799
0.054153
0.0243079
0.0186667
0.0171535
0.0166127
0.0163677
0.0162105
0.0160796
0.0159687
0.0158882
0.01585
0.0158648
0.0159412
0.0160897
0.0163174
0.0166506
0.017099
0.0576565
0.0235056
0.0182485
0.0168936
0.0163998
0.0161472
0.0159538
0.0157734
0.0156068
0.0154662
0.0153639
0.015311
0.0153177
0.0153968
0.0155611
0.015841
0.0162478
0.0609333
0.0230524
0.0183546
0.0171733
0.0166964
0.0163978
0.0161339
0.0158755
0.015628
0.0154036
0.0152136
0.0150688
0.0149805
0.0149633
0.0150351
0.0152251
0.0155635
0.0636725
0.0231723
0.0190792
0.0180225
0.0175055
0.017113
0.0167417
0.0163758
0.0160223
0.0156912
0.0153917
0.0151337
0.0149288
0.014793
0.0147477
0.0148241
0.0150568
0.0660213
0.0240544
0.0204812
0.0194495
0.0188162
0.0182752
0.0177567
0.017252
0.0167661
0.0163052
0.0158758
0.0154858
0.0151466
0.0148746
0.0146932
0.0146342
0.0147291
0.0681506
0.025826
0.0226171
0.0214702
0.0206267
0.0198732
0.0191607
0.0184807
0.0178327
0.0172176
0.0166378
0.0160989
0.0156107
0.0151891
0.0148572
0.0146454
0.014586
0.0700654
0.0286681
0.025582
0.0241344
0.0229621
0.0219146
0.0209484
0.0200471
0.0192008
0.0184031
0.0176512
0.0169468
0.0162967
0.0157143
0.0152203
0.0148425
0.014614
0.0716926
0.0328734
0.0295492
0.0275507
0.0258892
0.0244364
0.0231351
0.0219512
0.0208604
0.0198459
0.0188969
0.0180088
0.0171834
0.016429
0.0157621
0.0152069
0.0147969
0.0729328
0.0389515
0.0348167
0.0319147
0.0295332
0.0275148
0.0257638
0.0242143
0.022819
0.0215444
0.0203671
0.0192726
0.0182544
0.0173141
0.0164622
0.0157196
0.0151194
0.0737178
0.047777
0.0419008
0.0375438
0.0340971
0.0312768
0.0289129
0.0268851
0.0251061
0.0235143
0.0220662
0.0207328
0.0194968
0.0183515
0.0173008
0.016361
0.0155627
0.0302071
0.0303347
0.0306707
0.0314873
0.0331752
0.0364051
0.0423352
0.0533912
0.0781353
0.149016
0.231194
0.122212
0.0688092
0.0479597
0.0387805
0.0342018
0.0317972
0.0305216
0.0298501
0.0294903
0.0303028
0.0305145
0.0310048
0.0320596
0.0341296
0.0380029
0.0450663
0.0583391
0.0875239
0.167136
0.263913
0.138358
0.0756812
0.05115
0.040423
0.035136
0.0323499
0.030843
0.0300308
0.0295927
0.0304479
0.0307729
0.03145
0.0327976
0.0353516
0.0400572
0.0486741
0.0651108
0.10008
0.189458
0.301948
0.157773
0.0841824
0.0551993
0.0425363
0.0363528
0.0330845
0.0312812
0.0302856
0.0297414
0.0306729
0.0311461
0.0320547
0.0337695
0.0369416
0.0427638
0.053635
0.0747504
0.11722
0.217604
0.345833
0.181124
0.0947054
0.0603733
0.0452994
0.0379701
0.0340766
0.0318842
0.030644
0.0299542
0.0310131
0.0316738
0.0328706
0.0350506
0.0390344
0.0464497
0.0608509
0.0888745
0.140683
0.25378
0.397146
0.209027
0.107761
0.0670537
0.0489897
0.0401751
0.0354456
0.032728
0.0311535
0.0302609
0.031507
0.0324018
0.033963
0.0367515
0.0418738
0.0517911
0.0719211
0.109591
0.17245
0.300072
0.457045
0.2422
0.123978
0.0757437
0.0540106
0.0432573
0.0373809
0.0339326
0.0318885
0.0307078
0.0322014
0.033394
0.0354341
0.0390728
0.0459793
0.0601627
0.0892893
0.139607
0.214959
0.359123
0.526255
0.281635
0.144127
0.0870907
0.0609361
0.0476602
0.040188
0.0356931
0.0329683
0.0313674
0.0331619
0.0347545
0.0374745
0.0424565
0.0525101
0.0739973
0.115914
0.181789
0.271469
0.433267
0.603737
0.328646
0.169166
0.101888
0.0705466
0.0540426
0.0443552
0.0383322
0.0345893
0.0323547
0.0344969
0.0366863
0.0405229
0.0479682
0.0637599
0.0966209
0.154342
0.238719
0.347459
0.528203
0.683173
0.384927
0.20024
0.121071
0.0838291
0.0633348
0.0506436
0.042387
0.037085
0.0338585
0.0364475
0.0396758
0.0456527
0.0578341
0.0831815
0.131096
0.206075
0.312877
0.446244
0.650726
0.759933
0.453065
0.238886
0.145754
0.101911
0.0767518
0.0601807
0.0487375
0.0410364
0.0362079
0.0395851
0.0449157
0.0551655
0.0756215
0.114404
0.17912
0.273329
0.408157
0.568497
0.810348
0.82361
0.534268
0.287892
0.177528
0.126002
0.0956967
0.0744945
0.0587583
0.0474588