/*--------------------------------*- C++ -*----------------------------------*\
  =========                 |
  \\      /  F ield         | OpenFOAM: The Open Source CFD Toolbox
   \\    /   O peration     | Website:  https://openfoam.org
    \\  /    A nd           | Version:  6
     \\/     M anipulation  |
\*---------------------------------------------------------------------------*/
FoamFile
{
    version     2.0;
    format      ascii;
    class       surfaceScalarField;
    location    "2.12";
    object      phi;
}
// * * * * * * * * * * * * * * * * * * * * * * * * * * * * * * * * * * * * * //

dimensions      [0 3 -1 0 0 0 0];

internalField   nonuniform List<scalar> 
8193
(
0.172626
-0.358725
-0.157469
0.176156
-0.372005
0.17347
-0.374263
0.168069
-0.373444
0.161609
-0.37252
0.154749
-0.371721
0.147777
-0.370911
0.140785
-0.369956
0.133818
-0.368743
0.126879
-0.367192
0.119887
-0.365181
0.11273
-0.362482
0.10535
-0.35904
0.09782
-0.355277
0.0902183
-0.352026
0.0823987
-0.349867
0.0735009
-0.347981
0.0623163
-0.343276
0.0476686
-0.33009
0.0304813
-0.300214
0.0120545
-0.25428
-0.0110519
-0.242438
-0.0354029
-0.293976
-0.0551622
-0.348297
-0.0685332
-0.376206
-0.0785953
-0.382521
-0.0872611
-0.380844
-0.0954219
-0.377904
-0.103629
-0.376001
-0.111755
-0.375545
-0.119703
-0.375513
-0.127518
-0.375396
-0.135278
-0.375167
-0.143013
-0.374924
-0.150697
-0.374698
-0.158251
-0.374508
-0.16544
-0.374447
-0.171672
-0.374634
-0.17545
-0.375013
-0.173407
-0.372781
-0.360434
-0.160079
0.197241
-0.362944
-0.193022
0.191289
-0.366054
0.183359
-0.366333
0.17544
-0.365525
0.16767
-0.36475
0.160126
-0.364176
0.152807
-0.363593
0.14564
-0.362788
0.138571
-0.361674
0.131541
-0.360163
0.124434
-0.358073
0.117153
-0.355201
0.109728
-0.351614
0.10232
-0.347869
0.0950136
-0.344719
0.0873793
-0.342233
0.0783933
-0.338995
0.0668103
-0.331693
0.0517418
-0.315022
0.0343583
-0.282831
0.0166029
-0.236525
-0.00559512
-0.22024
-0.030306
-0.269265
-0.0520117
-0.326591
-0.0673452
-0.360873
-0.0783103
-0.371556
-0.087578
-0.371576
-0.0961091
-0.369373
-0.104619
-0.367491
-0.113154
-0.36701
-0.121526
-0.367141
-0.129726
-0.367196
-0.137844
-0.367049
-0.145962
-0.366806
-0.154141
-0.366519
-0.162453
-0.366196
-0.170932
-0.365968
-0.179547
-0.366019
-0.18831
-0.366251
-0.195437
-0.365655
-0.362725
-0.193146
0.203522
-0.358007
-0.208459
0.195157
-0.357688
0.186626
-0.357802
0.178553
-0.357452
0.170818
-0.357014
0.163314
-0.356673
0.15597
-0.356248
0.148748
-0.355566
0.141617
-0.354543
0.134509
-0.353054
0.127322
-0.350887
0.120017
-0.347896
0.112699
-0.344296
0.105574
-0.340744
0.0985142
-0.33766
0.0909592
-0.334678
0.0818231
-0.329859
0.0698004
-0.31967
0.0543214
-0.299543
0.0365202
-0.26503
0.0181772
-0.218182
-0.00360031
-0.198463
-0.0279158
-0.244949
-0.0498473
-0.304659
-0.06653
-0.34419
-0.0783114
-0.359775
-0.0880071
-0.36188
-0.0967565
-0.360623
-0.10541
-0.358837
-0.114059
-0.358361
-0.122659
-0.358541
-0.131098
-0.358757
-0.139437
-0.35871
-0.147757
-0.358486
-0.1561
-0.358175
-0.164499
-0.357797
-0.173031
-0.357436
-0.181831
-0.357219
-0.191099
-0.356983
-0.200301
-0.356453
-0.356589
-0.206436
0.20969
-0.348709
-0.218987
0.200469
-0.348468
0.191667
-0.349001
0.183302
-0.349088
0.175309
-0.349022
0.167584
-0.348947
0.160063
-0.348727
0.152715
-0.348219
0.145496
-0.347324
0.138313
-0.345871
0.131086
-0.343659
0.123847
-0.340657
0.116777
-0.337227
0.10999
-0.333957
0.103245
-0.330914
0.0957403
-0.327173
0.0863614
-0.32048
0.073748
-0.307057
0.0575407
-0.283336
0.0389438
-0.246433
0.01997
-0.199208
-0.00153452
-0.176958
-0.0256864
-0.220797
-0.0480551
-0.282291
-0.0658802
-0.326365
-0.0787617
-0.346893
-0.0888307
-0.351811
-0.0978779
-0.351576
-0.10667
-0.350045
-0.115488
-0.349542
-0.124258
-0.349771
-0.132949
-0.350066
-0.141546
-0.350114
-0.150141
-0.349891
-0.158794
-0.349523
-0.167529
-0.349061
-0.17641
-0.348555
-0.185574
-0.348056
-0.195123
-0.347433
-0.205015
-0.346562
-0.346474
-0.21513
0.214537
-0.339239
-0.224007
0.205444
-0.339375
0.196474
-0.34003
0.187896
-0.34051
0.179727
-0.340853
0.171867
-0.341087
0.164246
-0.341106
0.156831
-0.340804
0.14956
-0.340053
0.142342
-0.338653
0.135149
-0.336466
0.128101
-0.333609
0.12141
-0.330536
0.115062
-0.327609
0.108633
-0.324485
0.101134
-0.319674
0.091184
-0.31053
0.0778112
-0.293684
0.0606297
-0.266154
0.04103
-0.226833
0.0211623
-0.17934
-0.000288554
-0.155507
-0.0241504
-0.196935
-0.0467859
-0.259655
-0.0654621
-0.307689
-0.0794723
-0.332883
-0.090014
-0.34127
-0.0993474
-0.342243
-0.108236
-0.341156
-0.117152
-0.340626
-0.126092
-0.340831
-0.134957
-0.341202
-0.143769
-0.341302
-0.152581
-0.341078
-0.16147
-0.340634
-0.170468
-0.340063
-0.179634
-0.339389
-0.189073
-0.338617
-0.198802
-0.337704
-0.208635
-0.336729
-0.336261
-0.218848
0.220356
-0.329133
-0.230462
0.210728
-0.329747
0.201524
-0.330827
0.192777
-0.331762
0.184451
-0.332527
0.17646
-0.333096
0.16875
-0.333396
0.16128
-0.333334
0.153975
-0.332748
0.146768
-0.331446
0.139716
-0.329414
0.133012
-0.326906
0.126814
-0.324337
0.120948
-0.321743
0.114743
-0.31828
0.107023
-0.311955
0.0963764
-0.299883
0.0818128
-0.27912
0.0634669
-0.247808
0.0426739
-0.20604
0.0217917
-0.158458
0.000234284
-0.13395
-0.023323
-0.173378
-0.0461426
-0.236836
-0.0654747
-0.288357
-0.0804107
-0.317947
-0.0916291
-0.330051
-0.101256
-0.332615
-0.110235
-0.332177
-0.119192
-0.331669
-0.12824
-0.331783
-0.137276
-0.332166
-0.146267
-0.332312
-0.155277
-0.332068
-0.164386
-0.331524
-0.173641
-0.330809
-0.183081
-0.32995
-0.192777
-0.328921
-0.202789
-0.327691
-0.213154
-0.326364
-0.325453
-0.223962
0.225735
-0.318797
-0.236071
0.215941
-0.319953
0.206616
-0.321501
0.197757
-0.322903
0.189313
-0.324084
0.181231
-0.325014
0.173472
-0.325637
0.165982
-0.325844
0.158685
-0.32545
0.151577
-0.324339
0.144808
-0.322645
0.138604
-0.320702
0.132994
-0.318727
0.127573
-0.316323
0.12141
-0.312116
0.113157
-0.303702
0.101439
-0.288165
0.0855048
-0.263186
0.065702
-0.228005
0.0436374
-0.183975
0.0216719
-0.136493
-8.15578e-05
-0.112196
-0.0232703
-0.150189
-0.0461328
-0.213973
-0.0660278
-0.268462
-0.0816634
-0.302311
-0.0937217
-0.317993
-0.103666
-0.322671
-0.112709
-0.323134
-0.12165
-0.322728
-0.130731
-0.322702
-0.139888
-0.323009
-0.149029
-0.32317
-0.1582
-0.322897
-0.167486
-0.322239
-0.176953
-0.321342
-0.186629
-0.320273
-0.196545
-0.319005
-0.206757
-0.31748
-0.217328
-0.315792
-0.314425
-0.228356
0.231223
-0.308166
-0.241853
0.221255
-0.309985
0.211817
-0.312063
0.202849
-0.313935
0.194315
-0.31555
0.186185
-0.316883
0.178414
-0.317866
0.170936
-0.318367
0.163708
-0.318222
0.156825
-0.317455
0.150509
-0.316329
0.144935
-0.315128
0.139933
-0.313726
0.134807
-0.311196
0.128383
-0.305692
0.119204
-0.294523
0.106028
-0.274988
0.0884238
-0.245582
0.0670587
-0.20664
0.0436696
-0.160586
0.0206583
-0.113481
-0.00129404
-0.0902439
-0.0240434
-0.12744
-0.0468166
-0.1912
-0.0671271
-0.248151
-0.0835153
-0.285923
-0.0963245
-0.305184
-0.106603
-0.312392
-0.115717
-0.31402
-0.1246
-0.313845
-0.133639
-0.313664
-0.142843
-0.313805
-0.152111
-0.313902
-0.161402
-0.313607
-0.170827
-0.312813
-0.18046
-0.31171
-0.190343
-0.31039
-0.200486
-0.308862
-0.210918
-0.307047
-0.221722
-0.304989
-0.303109
-0.233038
0.236568
-0.297445
-0.24729
0.226532
-0.299949
0.217009
-0.30254
0.207969
-0.304895
0.199394
-0.306975
0.191265
-0.308754
0.18352
-0.31012
0.176105
-0.310952
0.169051
-0.311168
0.162564
-0.310968
0.156874
-0.310639
0.151995
-0.310249
0.147494
-0.309224
0.142372
-0.306074
0.135264
-0.298584
0.124702
-0.283962
0.109691
-0.259977
0.0901973
-0.226088
0.0671935
-0.183637
0.0425296
-0.135922
0.0186
-0.0895517
-0.00346416
-0.0681797
-0.0257036
-0.105201
-0.048196
-0.168708
-0.0688988
-0.227448
-0.0860436
-0.268778
-0.0994482
-0.291779
-0.110096
-0.301744
-0.119316
-0.3048
-0.128111
-0.305051
-0.137031
-0.304743
-0.146193
-0.304643
-0.155524
-0.304571
-0.164922
-0.304209
-0.174436
-0.303299
-0.18418
-0.301966
-0.194215
-0.300355
-0.204552
-0.298525
-0.215183
-0.296416
-0.226147
-0.294025
-0.291654
-0.237601
0.241824
-0.286704
-0.252564
0.231682
-0.289808
0.222105
-0.292962
0.213054
-0.295844
0.20451
-0.29843
0.19642
-0.300664
0.188728
-0.302428
0.181456
-0.30368
0.174733
-0.304446
0.168841
-0.305075
0.163895
-0.305694
0.159649
-0.306003
0.155375
-0.30495
0.149823
-0.300523
0.14152
-0.290281
0.129108
-0.27155
0.111945
-0.242814
0.0904346
-0.204578
0.0658184
-0.15902
0.0400176
-0.110122
0.0153767
-0.0649108
-0.00664763
-0.0461553
-0.0282951
-0.0835532
-0.0504423
-0.14656
-0.0713501
-0.206541
-0.0890989
-0.251029
-0.103127
-0.277752
-0.114212
-0.290659
-0.123565
-0.295447
-0.13225
-0.296366
-0.140985
-0.296009
-0.150001
-0.295626
-0.15931
-0.295262
-0.168764
-0.294756
-0.178346
-0.293716
-0.188146
-0.292166
-0.198272
-0.290229
-0.208756
-0.288042
-0.219576
-0.285596
-0.23073
-0.282871
-0.280047
-0.242338
0.246731
-0.276002
-0.257433
0.236568
-0.279645
0.227016
-0.28341
0.21799
-0.286818
0.20948
-0.289921
0.201482
-0.292666
0.193948
-0.294894
0.186972
-0.296704
0.180773
-0.298246
0.175634
-0.299937
0.171414
-0.301473
0.167566
-0.302155
0.163053
-0.300437
0.15651
-0.29398
0.146462
-0.280233
0.131785
-0.256873
0.112283
-0.223313
0.0887683
-0.181063
0.0626829
-0.132935
0.0359826
-0.0834212
0.0109238
-0.039852
-0.0108137
-0.0244178
-0.0317654
-0.0626014
-0.053456
-0.12487
-0.074454
-0.185543
-0.0927516
-0.232732
-0.10742
-0.263084
-0.11897
-0.279109
-0.128502
-0.285915
-0.137071
-0.287796
-0.145568
-0.287512
-0.154329
-0.286865
-0.163506
-0.286086
-0.172941
-0.28532
-0.182562
-0.284095
-0.19239
-0.282338
-0.20254
-0.280079
-0.213084
-0.277498
-0.224024
-0.274656
-0.235343
-0.271552
-0.268295
-0.247095
0.251163
-0.265272
-0.261893
0.24106
-0.269542
0.231488
-0.273839
0.222551
-0.277881
0.214129
-0.281499
0.206254
-0.284791
0.198976
-0.287616
0.19253
-0.290258
0.187103
-0.292819
0.182795
-0.295629
0.179038
-0.297716
0.175136
-0.298253
0.169778
-0.29508
0.161587
-0.285788
0.149137
-0.267783
0.131908
-0.239644
0.110212
-0.201617
0.0848594
-0.15571
0.0575841
-0.10566
0.0303301
-0.0561672
0.00522599
-0.0147479
-0.0158892
-0.00330263
-0.0360229
-0.0424677
-0.0571644
-0.103728
-0.0781532
-0.164554
-0.0969552
-0.21393
-0.112286
-0.247753
-0.12434
-0.267054
-0.134124
-0.27613
-0.142584
-0.279337
-0.15082
-0.279276
-0.159226
-0.278459
-0.168145
-0.277167
-0.177457
-0.276009
-0.187059
-0.274492
-0.196878
-0.272519
-0.207001
-0.269956
-0.217517
-0.266982
-0.228487
-0.263685
-0.239865
-0.260174
-0.256496
-0.251664
0.255189
-0.254544
-0.265917
0.245099
-0.259451
0.235581
-0.26432
0.226663
-0.268963
0.218351
-0.273187
0.210664
-0.277104
0.203725
-0.280678
0.197958
-0.284491
0.193329
-0.28819
0.189702
-0.292002
0.186061
-0.294074
0.181582
-0.293774
0.174677
-0.288175
0.164147
-0.275258
0.149108
-0.252744
0.129286
-0.219821
0.10525
-0.177581
0.07835
-0.12881
0.0503603
-0.0776702
0.0230257
-0.0288326
-0.00164968
0.00992753
-0.0217044
0.0167521
-0.0408926
-0.0232795
-0.06142
-0.0832008
-0.0823111
-0.143663
-0.101587
-0.194654
-0.117621
-0.231719
-0.130214
-0.254461
-0.140363
-0.265981
-0.148742
-0.270958
-0.156739
-0.271279
-0.164718
-0.270479
-0.173259
-0.268626
-0.182303
-0.266964
-0.191798
-0.264998
-0.201564
-0.262753
-0.211625
-0.259895
-0.222062
-0.256545
-0.232942
-0.252805
-0.244297
-0.248819
-0.244713
-0.25608
0.258431
-0.243943
-0.269031
0.248479
-0.249499
0.239074
-0.254916
0.230291
-0.26018
0.222119
-0.265015
0.214781
-0.269766
0.208396
-0.274292
0.203416
-0.279511
0.199274
-0.284048
0.195819
-0.288547
0.191387
-0.289642
0.185709
-0.288096
0.176724
-0.27919
0.163791
-0.262325
0.145751
-0.234704
0.122905
-0.196976
0.09684
-0.151516
0.0689892
-0.100959
0.0409555
-0.0496365
0.0141589
-0.00203601
-0.00937692
0.0334633
-0.0279936
0.0353688
-0.0461548
-0.00511841
-0.066025
-0.0633305
-0.0867016
-0.122986
-0.106364
-0.174991
-0.12322
-0.214864
-0.136358
-0.241323
-0.147081
-0.255258
-0.155448
-0.262591
-0.163294
-0.263433
-0.170805
-0.262969
-0.178869
-0.260562
-0.187471
-0.258362
-0.196723
-0.255746
-0.206363
-0.253113
-0.216354
-0.249904
-0.226686
-0.246214
-0.237447
-0.242043
-0.248677
-0.23759
-0.232964
-0.260425
0.260703
-0.233395
-0.271252
0.250888
-0.239684
0.241575
-0.245603
0.23296
-0.251565
0.225079
-0.257133
0.218285
-0.262973
0.212632
-0.268639
0.208385
-0.275263
0.204241
-0.279904
0.200388
-0.284695
0.19429
-0.283544
0.186907
-0.280713
0.174496
-0.266779
0.15846
-0.246289
0.136689
-0.212934
0.111946
-0.172233
0.084904
-0.124473
0.057
-0.0730555
0.0296737
-0.0223102
0.00405229
0.0235854
-0.0175085
0.0550241
-0.0345269
0.0523871
-0.0514905
0.0118453
-0.0707022
-0.0441189
-0.0911007
-0.102588
-0.110767
-0.155325
-0.128871
-0.196759
-0.142364
-0.227831
-0.154117
-0.243504
-0.162497
-0.254211
-0.17039
-0.25554
-0.177373
-0.255986
-0.184947
-0.252988
-0.192919
-0.25039
-0.201798
-0.246866
-0.211141
-0.24377
-0.220951
-0.240095
-0.231007
-0.236157
-0.241663
-0.231388
-0.252674
-0.226579
-0.221283
-0.264355
0.261785
-0.222659
-0.272521
0.251929
-0.229828
0.242793
-0.236468
0.234306
-0.243078
0.227042
-0.249869
0.220749
-0.25668
0.215923
-0.263813
0.211953
-0.271293
0.207008
-0.27496
0.202184
-0.27987
0.193412
-0.274772
0.184441
-0.271743
0.16712
-0.249458
0.148919
-0.228088
0.123203
-0.187218
0.0982439
-0.147273
0.0700608
-0.0962901
0.0432661
-0.0462608
0.0174308
0.00352511
-0.00702709
0.0480433
-0.0262533
0.0742504
-0.0415492
0.067683
-0.0569533
0.0272494
-0.0749335
-0.0261388
-0.0956705
-0.0818506
-0.114218
-0.136777
-0.134568
-0.17641
-0.147661
-0.214738
-0.161295
-0.22987
-0.169301
-0.246205
-0.177687
-0.247154
-0.18401
-0.249662
-0.191205
-0.245794
-0.198396
-0.243199
-0.206612
-0.23865
-0.215382
-0.235
-0.225123
-0.230354
-0.234929
-0.22635
-0.245523
-0.220795
-0.256172
-0.21593
-0.209757
-0.267698
0.260961
-0.271541
0.251628
0.242367
0.234435
0.22751
0.221849
0.216941
0.212857
0.206188
0.20025
0.188233
0.177425
0.154923
0.135329
0.106505
0.0828424
0.054061
0.0288928
0.00402429
-0.0201564
-0.0331353
-0.0474309
-0.0620696
-0.0783237
-0.10062
-0.117132
-0.139605
-0.152291
-0.167534
-0.175168
-0.184133
-0.190026
-0.197102
-0.203483
-0.211418
-0.219378
-0.229132
-0.238313
-0.249125
-0.259217
-0.271019
0.178924
-0.252628
0.161709
-0.250483
0.145521
-0.248167
0.130336
-0.24524
0.11615
-0.241895
0.102783
-0.238297
0.0901888
-0.2345
0.0783796
-0.230528
0.0672298
-0.226452
0.0566949
-0.222504
0.0466326
-0.218293
0.0372199
-0.214549
0.0279753
-0.209604
0.0201806
-0.207335
0.0127563
-0.199011
0.0124009
-0.192791
-0.147678
0.172285
-0.236442
0.156522
-0.23472
0.141257
-0.232901
0.126772
-0.230755
0.113073
-0.228196
0.100117
-0.225341
0.0878293
-0.222213
0.0762878
-0.218987
0.0654132
-0.215577
0.055072
-0.212162
0.0452721
-0.208493
0.035909
-0.205186
0.0271086
-0.200803
0.0185086
-0.198735
0.0109135
-0.191416
0.00531178
-0.187189
-0.142366
0.166063
-0.220528
0.151065
-0.219721
0.136576
-0.218413
0.122749
-0.216928
0.10957
-0.215017
0.0970224
-0.212793
0.0851413
-0.210332
0.0739231
-0.207769
0.0633383
-0.204992
0.0532565
-0.202081
0.0437006
-0.198937
0.0345248
-0.19601
0.0260111
-0.192289
0.0176501
-0.190374
0.0104482
-0.184214
0.00358874
-0.18033
-0.138777
0.158729
-0.206582
0.144996
-0.205988
0.131553
-0.20497
0.118487
-0.203861
0.10592
-0.20245
0.0938821
-0.200755
0.0824388
-0.198888
0.0715791
-0.196909
0.0613043
-0.194717
0.0515159
-0.192292
0.0422236
-0.189645
0.0332975
-0.187084
0.0249669
-0.183959
0.016671
-0.182078
0.00944286
-0.176986
0.00225667
-0.173144
-0.136521
0.151789
-0.192932
0.138782
-0.192981
0.126206
-0.192394
0.113892
-0.191547
0.102002
-0.190561
0.0905709
-0.189324
0.0796386
-0.187956
0.0691769
-0.186447
0.0592336
-0.184774
0.0497692
-0.182828
0.0407762
-0.180652
0.0321544
-0.178462
0.0240944
-0.175899
0.0161812
-0.174165
0.00916656
-0.169972
0.00212236
-0.166099
-0.134398
0.143837
-0.181063
0.131972
-0.181116
0.120404
-0.180826
0.108989
-0.180133
0.0978168
-0.179389
0.0870367
-0.178544
0.0766527
-0.177572
0.0666762
-0.176471
0.0571176
-0.175216
0.0480114
-0.173721
0.0393579
-0.171999
0.0310777
-0.170182
0.0232934
-0.168115
0.0156331
-0.166505
0.00887631
-0.163215
0.0020418
-0.159265
-0.132357
0.13624
-0.169469
0.125102
-0.169978
0.114249
-0.169973
0.103719
-0.169603
0.0933385
-0.169008
0.0832637
-0.168469
0.0735138
-0.167822
0.0640788
-0.167036
0.0549378
-0.166075
0.0462125
-0.164996
0.0379204
-0.163707
0.0300107
-0.162272
0.0225628
-0.160667
0.0152883
-0.15923
0.00879016
-0.156717
0.00226862
-0.152743
-0.130088
0.127745
-0.159499
0.117673
-0.159906
0.10775
-0.16005
0.0980241
-0.159877
0.0885622
-0.159546
0.0792242
-0.159131
0.0701319
-0.15873
0.0612735
-0.158177
0.0526735
-0.157475
0.0443618
-0.156684
0.0364364
-0.155781
0.0289136
-0.154749
0.0218001
-0.153553
0.0149265
-0.152357
0.00871123
-0.150502
0.00253446
-0.146567
-0.127553
0.119723
-0.149942
0.110347
-0.15053
0.101101
-0.150804
0.0920798
-0.150856
0.0833471
-0.150813
0.0748715
-0.150655
0.0664988
-0.150357
0.0582709
-0.14995
0.0502658
-0.149469
0.0424771
-0.148896
0.0349322
-0.148237
0.0277737
-0.147591
0.0209742
-0.146754
0.0144956
-0.145878
0.00852273
-0.144529
0.00278594
-0.14083
-0.124767
0.110713
-0.141854
0.102443
-0.14226
0.0941549
-0.142516
0.0859712
-0.142672
0.0779371
-0.142779
0.070105
-0.142823
0.0624766
-0.142729
0.0550116
-0.142485
0.0476243
-0.142082
0.0404488
-0.14172
0.0334559
-0.141244
0.0266775
-0.140812
0.0201766
-0.140253
0.0140617
-0.139763
0.00829509
-0.138762
0.00291878
-0.135454
-0.121849
0.102161
-0.134184
0.0946193
-0.134719
0.0871268
-0.135023
0.0797208
-0.135267
0.0724299
-0.135488
0.0652475
-0.135641
0.058175
-0.135656
0.0512874
-0.135597
0.0446512
-0.135446
0.0381654
-0.135234
0.0317666
-0.134845
0.0255637
-0.134609
0.0194801
-0.134169
0.0136811
-0.133964
0.00813084
-0.133212
0.00307737
-0.1304
-0.118771
0.0926967
-0.127869
0.0862082
-0.12823
0.0797033
-0.128519
0.0732032
-0.128767
0.066719
-0.129004
0.0602536
-0.129176
0.0538599
-0.129262
0.0475616
-0.129299
0.0413986
-0.129283
0.0354111
-0.129247
0.0296681
-0.129102
0.0240893
-0.129031
0.0186025
-0.128682
0.013281
-0.128643
0.00806334
-0.127994
0.00330909
-0.125646
-0.115462
0.0836663
-0.121987
0.0778944
-0.122458
0.0721544
-0.122779
0.0664381
-0.12305
0.0607324
-0.123298
0.055038
-0.123481
0.0493799
-0.123604
0.0437796
-0.123698
0.0382467
-0.12375
0.0328036
-0.123804
0.0274606
-0.123759
0.0222592
-0.123829
0.0172526
-0.123676
0.0124347
-0.123825
0.00772474
-0.123284
0.00331488
-0.121236
-0.112147
0.0738347
-0.117358
0.0690554
-0.117679
0.0642242
-0.117947
0.0593426
-0.118169
0.0544284
-0.118384
0.0495033
-0.118556
0.0445931
-0.118694
0.0397164
-0.118822
0.034885
-0.118919
0.0301064
-0.119025
0.0253915
-0.119044
0.0207573
-0.119195
0.0161867
-0.119105
0.0117485
-0.119387
0.00740144
-0.118937
0.00334488
-0.117179
-0.108802
0.0643929
-0.113149
0.0602535
-0.11354
0.0561167
-0.11381
0.0519649
-0.114017
0.0477814
-0.1142
0.0435813
-0.114356
0.0393804
-0.114493
0.0351837
-0.114625
0.0310018
-0.114737
0.0268424
-0.114866
0.0227242
-0.114926
0.0186525
-0.115123
0.0146208
-0.115074
0.0106704
-0.115436
0.00676932
-0.115036
0.00309539
-0.113505
-0.105707
0.0543433
-0.110083
0.051118
-0.110314
0.0477949
-0.110487
0.0443961
-0.110618
0.0409447
-0.110749
0.0374641
-0.110875
0.0339651
-0.110994
0.0304493
-0.111109
0.0269281
-0.111216
0.0233993
-0.111337
0.0198914
-0.111418
0.0163835
-0.111615
0.0129202
-0.11161
0.00947739
-0.111993
0.00600385
-0.111562
0.00280129
-0.110303
-0.102906
0.0447218
-0.107448
0.0421147
-0.107707
0.0394472
-0.10782
0.0367428
-0.107914
0.0339954
-0.108002
0.03121
-0.10809
0.028395
-0.108179
0.025555
-0.108269
0.0226967
-0.108357
0.0198129
-0.108453
0.0169236
-0.108529
0.0139943
-0.108686
0.0110886
-0.108705
0.00813548
-0.10904
0.0051711
-0.108598
0.00240821
-0.10754
-0.100498
0.0345901
-0.10586
0.0328106
-0.105928
0.0309288
-0.105938
0.0289772
-0.105962
0.026963
-0.105988
0.0248934
-0.10602
0.0227669
-0.106053
0.0205871
-0.106089
0.0183635
-0.106134
0.0160987
-0.106188
0.0138159
-0.106246
0.0114912
-0.106361
0.0091835
-0.106397
0.00677467
-0.106632
0.00441635
-0.10624
0.00206377
-0.105187
-0.0984338
0.0248649
-0.104647
0.0236624
-0.104725
0.0224142
-0.10469
0.0211235
-0.104671
0.019781
-0.104645
0.0183856
-0.104625
0.0169384
-0.104605
0.0154395
-0.10459
0.0138861
-0.10458
0.0122736
-0.104576
0.010608
-0.10458
0.00886621
-0.10462
0.00710242
-0.104633
0.00522846
-0.104758
0.00342478
-0.104436
0.00152013
-0.103283
-0.0969137
0.0147163
-0.104444
0.0142515
-0.104261
0.0136989
-0.104137
0.0130713
-0.104044
0.0123782
-0.103952
0.011621
-0.103868
0.0108037
-0.103788
0.00992665
-0.103713
0.0089903
-0.103644
0.00799609
-0.103582
0.00694708
-0.103531
0.00582953
-0.103502
0.00468677
-0.10349
0.00340637
-0.103477
0.00220577
-0.103235
0.000834794
-0.101912
-0.0960789
0.00512405
-0.104513
0.00526618
-0.104403
0.00538492
-0.104256
0.00543307
-0.104092
0.00541145
-0.10393
0.00531464
-0.103771
0.00514507
-0.103619
0.0049021
-0.10347
0.00458555
-0.103327
0.00419609
-0.103192
0.00373211
-0.103067
0.00319064
-0.102961
0.00259193
-0.102892
0.00186918
-0.102754
0.00119625
-0.102563
0.000332659
-0.101048
-0.0957463
-0.00461627
-0.105773
-0.00370728
-0.105312
-0.00292038
-0.105043
-0.00222875
-0.104783
-0.00160968
-0.104549
-0.00107199
-0.104309
-0.00061592
-0.104075
-0.000242568
-0.103844
4.8959e-05
-0.103619
0.000258606
-0.103402
0.000384905
-0.103193
0.000430879
-0.103007
0.00040002
-0.102861
0.000268824
-0.102623
0.000147601
-0.102441
-0.000200221
-0.1007
-0.0959465
-0.0142071
-0.107065
-0.0127434
-0.106775
-0.0113018
-0.106484
-0.00996333
-0.106122
-0.00872293
-0.10579
-0.00757342
-0.105458
-0.00651098
-0.105137
-0.00553475
-0.10482
-0.00464372
-0.10451
-0.00383766
-0.104208
-0.00311731
-0.103914
-0.00247726
-0.103647
-0.00192304
-0.103415
-0.0014627
-0.103084
-0.00100399
-0.1029
-0.00077788
-0.100926
-0.0967244
-0.0236534
-0.10968
-0.0215023
-0.108927
-0.01949
-0.108497
-0.0175664
-0.108046
-0.0157302
-0.107626
-0.0139864
-0.107202
-0.0123345
-0.106789
-0.0107731
-0.106381
-0.00930001
-0.105983
-0.0079143
-0.105594
-0.00661447
-0.105214
-0.00539485
-0.104866
-0.004266
-0.104544
-0.00321172
-0.104138
-0.00218699
-0.103925
-0.00134357
-0.10177
-0.0980679
-0.0329483
-0.112153
-0.0302294
-0.111645
-0.0275727
-0.111153
-0.0250368
-0.110582
-0.0226119
-0.110051
-0.0202902
-0.109524
-0.0180672
-0.109012
-0.0159393
-0.108509
-0.0139039
-0.108018
-0.0119595
-0.107538
-0.0101021
-0.107071
-0.00832717
-0.106641
-0.00664313
-0.106228
-0.00501508
-0.105766
-0.00342579
-0.105514
-0.0019363
-0.103259
-0.100004
-0.0419926
-0.116047
-0.0386393
-0.114999
-0.0354406
-0.114352
-0.0323468
-0.113675
-0.0293591
-0.113039
-0.0264776
-0.112405
-0.0236999
-0.11179
-0.0210218
-0.111187
-0.0184399
-0.1106
-0.0159519
-0.110026
-0.013553
-0.10947
-0.0112383
-0.108956
-0.00900709
-0.108459
-0.00681962
-0.107953
-0.00470036
-0.107633
-0.00243946
-0.10552
-0.102444
-0.0508967
-0.119658
-0.0469874
-0.118908
-0.0431786
-0.118161
-0.0395094
-0.117345
-0.0359689
-0.116579
-0.0325451
-0.115829
-0.0292312
-0.115104
-0.0260218
-0.114397
-0.0229119
-0.11371
-0.0198929
-0.113045
-0.0169505
-0.112412
-0.0140806
-0.111826
-0.0112894
-0.11125
-0.00847184
-0.110771
-0.00579774
-0.110307
-0.00292798
-0.10839
-0.105372
-0.0595165
-0.124773
-0.0550182
-0.123406
-0.0506997
-0.122479
-0.0465053
-0.121539
-0.0424366
-0.120648
-0.038489
-0.119776
-0.034657
-0.118936
-0.0309318
-0.118122
-0.0273007
-0.117341
-0.023753
-0.116593
-0.02026
-0.115905
-0.0168305
-0.115255
-0.0134482
-0.114633
-0.0100943
-0.114125
-0.00685275
-0.113549
-0.00343285
-0.11181
-0.108805
-0.0679996
-0.129474
-0.0629692
-0.128437
-0.0580759
-0.127373
-0.0533431
-0.126272
-0.0487562
-0.125235
-0.0442983
-0.124234
-0.039958
-0.123276
-0.0357237
-0.122356
-0.03157
-0.121495
-0.0274786
-0.120684
-0.0234605
-0.119923
-0.0195088
-0.119207
-0.0156049
-0.118537
-0.0117339
-0.117996
-0.00792119
-0.117362
-0.00395918
-0.115772
-0.112764
-0.0761845
-0.135728
-0.0706113
-0.13401
-0.0652434
-0.132741
-0.0600159
-0.131499
-0.0549281
-0.130323
-0.0499693
-0.129193
-0.0451277
-0.128118
-0.0403829
-0.127101
-0.035718
-0.12616
-0.0311283
-0.125274
-0.0266047
-0.124447
-0.0221403
-0.123671
-0.0177172
-0.12296
-0.0133292
-0.122384
-0.00900082
-0.12169
-0.00450274
-0.12027
-0.117266
-0.0842547
-0.141475
-0.0781757
-0.140089
-0.0722666
-0.13865
-0.0665374
-0.137228
-0.0609601
-0.1359
-0.0555131
-0.13464
-0.05018
-0.133451
-0.044946
-0.132335
-0.0397934
-0.131312
-0.0347127
-0.130355
-0.0296933
-0.129466
-0.0247263
-0.128638
-0.0197983
-0.127888
-0.0149109
-0.127271
-0.0100596
-0.126541
-0.00503543
-0.125294
-0.122302
-0.0919973
-0.148766
-0.085452
-0.146634
-0.079109
-0.144993
-0.0729167
-0.143421
-0.0668688
-0.141948
-0.0609484
-0.14056
-0.0551374
-0.139262
-0.0494249
-0.138048
-0.0438
-0.136937
-0.0382398
-0.135915
-0.0327358
-0.13497
-0.0272754
-0.134099
-0.0218487
-0.133314
-0.0164612
-0.132659
-0.011085
-0.131918
-0.00555981
-0.130819
-0.127862
-0.0997037
-0.155487
-0.0926611
-0.153677
-0.0858198
-0.151834
-0.0791677
-0.150073
-0.0726675
-0.148448
-0.0662919
-0.146936
-0.0600208
-0.145533
-0.0538356
-0.144233
-0.0477427
-0.14303
-0.0417116
-0.141946
-0.035729
-0.140953
-0.0297848
-0.140043
-0.0238689
-0.13923
-0.0179852
-0.138543
-0.0120972
-0.137805
-0.00608918
-0.136827
-0.133951
-0.107036
-0.163702
-0.0996041
-0.161109
-0.0923729
-0.159065
-0.0852965
-0.157149
-0.0783628
-0.155382
-0.0715493
-0.15375
-0.0648348
-0.152247
-0.0582015
-0.150866
-0.0516333
-0.149598
-0.0451418
-0.148437
-0.0386873
-0.147407
-0.0322633
-0.146467
-0.0258632
-0.14563
-0.019491
-0.144915
-0.0131097
-0.144187
-0.00662461
-0.143313
-0.140575
-0.114376
-0.171304
-0.106472
-0.169013
-0.0987898
-0.166748
-0.0912951
-0.164644
-0.0839437
-0.162733
-0.0767065
-0.160987
-0.0695621
-0.159392
-0.0624921
-0.157936
-0.0554812
-0.156609
-0.0485169
-0.155402
-0.0416077
-0.154317
-0.0347187
-0.153356
-0.027845
-0.152504
-0.0209885
-0.151771
-0.0141163
-0.151059
-0.00715736
-0.150271
-0.147733
-0.121302
-0.180327
-0.113081
-0.177234
-0.105047
-0.174782
-0.0971584
-0.172532
-0.0894017
-0.17049
-0.0817517
-0.168637
-0.0741874
-0.166956
-0.0666904
-0.165433
-0.0592449
-0.164055
-0.0518355
-0.162811
-0.0444592
-0.161693
-0.0371153
-0.1607
-0.0297838
-0.159836
-0.0224661
-0.159089
-0.0151264
-0.158399
-0.00770383
-0.157694
-0.155437
-0.128281
-0.1887
-0.119617
-0.185897
-0.111178
-0.183222
-0.102906
-0.180803
-0.0947603
-0.178636
-0.0867118
-0.176685
-0.0787407
-0.174927
-0.0708291
-0.173345
-0.0629609
-0.171923
-0.0551221
-0.17065
-0.0473001
-0.169515
-0.0394892
-0.168511
-0.0316978
-0.167627
-0.0239131
-0.166873
-0.0161111
-0.166201
-0.00823453
-0.165571
-0.163671
-0.134849
-0.198366
-0.125945
-0.194801
-0.1172
-0.191967
-0.108577
-0.189427
-0.100064
-0.187149
-0.0916379
-0.185111
-0.0832792
-0.183286
-0.0749694
-0.181654
-0.0666924
-0.1802
-0.058435
-0.178907
-0.0501858
-0.177764
-0.0419365
-0.17676
-0.0336779
-0.175886
-0.0254106
-0.175141
-0.0171127
-0.174499
-0.00877256
-0.173911
-0.172444
-0.141469
-0.207352
-0.132172
-0.204097
-0.123074
-0.201066
-0.11411
-0.19839
-0.105246
-0.196013
-0.0964577
-0.1939
-0.0877254
-0.192018
-0.0790313
-0.190349
-0.0703587
-0.188872
-0.0616942
-0.187572
-0.0530265
-0.186432
-0.0443466
-0.18544
-0.0356478
-0.184584
-0.0269296
-0.183859
-0.0181697
-0.183259
-0.00933049
-0.18275
-0.181774
-0.147567
-0.217566
-0.138061
-0.213603
-0.128652
-0.210475
-0.119323
-0.207719
-0.11008
-0.205256
-0.100903
-0.203076
-0.0917767
-0.201145
-0.0826849
-0.199441
-0.0736137
-0.197944
-0.0645524
-0.196633
-0.0554907
-0.195494
-0.0464165
-0.194514
-0.0373152
-0.193686
-0.0281747
-0.193
-0.0189861
-0.192447
-0.00971911
-0.192017
-0.191493
-0.200179
-0.173063
0.214236
-0.187232
-0.178384
-0.174196
-0.183565
-0.16208
-0.188479
-0.149957
-0.193209
-0.138557
-0.19771
-0.127193
-0.201995
-0.116414
-0.205999
-0.105736
-0.209762
-0.0955149
-0.213246
-0.085426
-0.216461
-0.0756808
-0.219393
-0.0660789
-0.222034
-0.0567203
-0.224384
-0.0474998
-0.226428
-0.0384339
-0.22817
-0.0294859
-0.229597
-0.0206152
-0.230712
-0.0118289
-0.231506
-0.00305439
-0.23198
0.00568245
-0.232133
0.0144607
-0.231965
0.0232627
-0.231473
0.0321432
-0.230666
0.0411225
-0.229537
0.0502043
-0.2281
0.0594707
-0.226349
0.0688505
-0.224301
0.078512
-0.221949
0.0882814
-0.21931
0.0984418
-0.216384
0.108687
-0.213178
0.119446
-0.209708
0.130244
-0.205961
0.141692
-0.201978
0.153099
-0.197722
0.165327
-0.193274
0.177468
-0.188593
0.190635
-0.183733
0.203497
-0.178512
-0.173259
-0.197308
-0.186244
0.21049
-0.184484
-0.191208
-0.172059
-0.19599
-0.160013
-0.200525
-0.148316
-0.204907
-0.136969
-0.209058
-0.125954
-0.213009
-0.115251
-0.216703
-0.104834
-0.220179
-0.0946912
-0.223389
-0.08479
-0.226362
-0.075122
-0.229061
-0.0656512
-0.231505
-0.0563678
-0.233667
-0.0472369
-0.235559
-0.0382441
-0.237163
-0.0293579
-0.238483
-0.0205587
-0.239511
-0.0118188
-0.240246
-0.00311461
-0.240684
0.00557958
-0.240827
0.0142883
-0.240674
0.0230383
-0.240223
0.0318509
-0.239478
0.0407567
-0.238442
0.0497716
-0.237115
0.0589309
-0.235508
0.0682446
-0.233615
0.0777511
-0.231456
0.0874558
-0.229015
0.0973976
-0.226326
0.107582
-0.223362
0.118044
-0.22017
0.128793
-0.216711
0.139857
-0.213042
0.15125
-0.209115
0.162983
-0.205007
0.175078
-0.200687
0.187522
-0.196178
0.200397
-0.191388
-0.186465
-0.194769
-0.199123
0.207648
-0.182254
-0.203722
-0.170107
-0.208138
-0.158293
-0.212339
-0.146824
-0.216375
-0.135672
-0.22021
-0.12484
-0.223841
-0.11429
-0.227253
-0.104021
-0.230447
-0.0939989
-0.233411
-0.0842174
-0.236143
-0.0746444
-0.238634
-0.0652689
-0.24088
-0.0560617
-0.242874
-0.0470065
-0.244614
-0.038077
-0.246093
-0.0292525
-0.247307
-0.0205087
-0.248255
-0.0118222
-0.248932
-0.00316998
-0.249336
0.00547254
-0.24947
0.0141289
-0.24933
0.022823
-0.248917
0.0315788
-0.248234
0.0404184
-0.247282
0.0493675
-0.246064
0.0584447
-0.244585
0.0676783
-0.242848
0.0770816
-0.240859
0.0866857
-0.238619
0.0964987
-0.236139
0.106556
-0.233419
0.116858
-0.230472
0.127446
-0.227298
0.138312
-0.223909
0.149503
-0.220306
0.160999
-0.216504
0.172837
-0.212524
0.184993
-0.208335
0.197549
-0.203943
-0.199391
-0.192547
-0.211771
0.205194