/*--------------------------------*- C++ -*----------------------------------*\
  =========                 |
  \\      /  F ield         | OpenFOAM: The Open Source CFD Toolbox
   \\    /   O peration     | Website:  https://openfoam.org
    \\  /    A nd           | Version:  6
     \\/     M anipulation  |
\*---------------------------------------------------------------------------*/
FoamFile
{
    version     2.0;
    format      ascii;
    class       volScalarField;
    location    "1.84";
    object      epsilon;
}
// * * * * * * * * * * * * * * * * * * * * * * * * * * * * * * * * * * * * * //

dimensions      [0 2 -3 0 0 0 0];

internalField   nonuniform List<scalar> 
4214
(
0.091979
0.0396088
0.021112
0.0142651
0.0119424
0.0118165
0.0133366
0.0168276
0.02332
0.0347745
0.0546653
0.0890085
0.147871
0.246865
0.407033
0.648182
0.94122
1.09783
0.916128
0.505211
0.341237
0.280937
0.258011
0.241398
0.220222
0.192651
0.161006
0.128484
0.0980642
0.0719957
0.0513886
0.0362193
0.0257505
0.0190032
0.0150863
0.0133213
0.0135115
0.0163369
0.0245129
0.046409
0.108729
0.0249041
0.015517
0.0119702
0.0107578
0.0107495
0.0117422
0.0140351
0.0183794
0.0261302
0.0396467
0.0630218
0.103285
0.172063
0.287101
0.472061
0.74583
1.06146
1.20702
0.991947
0.557439
0.391906
0.333495
0.314475
0.299711
0.277734
0.247242
0.210584
0.171141
0.132584
0.0981818
0.0699875
0.0485777
0.0334256
0.0234387
0.0173444
0.0139884
0.0125365
0.0125824
0.0144069
0.0196044
0.0331847
0.0134287
0.0111527
0.0103326
0.0102778
0.0108739
0.0123413
0.0152157
0.0204527
0.0296787
0.0456741
0.0732381
0.12059
0.201201
0.335363
0.54929
0.858174
1.19191
1.3222
1.07726
0.61685
0.449661
0.397677
0.384445
0.372757
0.351126
0.318556
0.277308
0.230597
0.182558
0.137525
0.0988368
0.0682047
0.0457947
0.0306629
0.0212541
0.015896
0.0131728
0.0120795
0.0121202
0.0133464
0.0167819
0.0109832
0.0102879
0.0101536
0.0104742
0.011385
0.0132569
0.0167703
0.023072
0.0340839
0.0530814
0.0857145
0.141607
0.236399
0.393436
0.641747
0.991278
1.3463
1.46387
1.19158
0.698219
0.526608
0.481314
0.475337
0.468021
0.447602
0.413497
0.367927
0.313661
0.2549
0.19673
0.143883
0.0998127
0.066156
0.0426868
0.027792
0.0192139
0.0147599
0.01271
0.0119836
0.0120373
0.0129184
0.0103479
0.0101915
0.010355
0.0109157
0.0121244
0.0144622
0.0187546
0.0263649
0.0395659
0.062229
0.101017
0.167207
0.27901
0.463396
0.752057
1.14623
1.52111
1.62449
1.33269
0.79995
0.621879
0.585951
0.590781
0.590836
0.573656
0.539301
0.490496
0.429262
0.359323
0.285832
0.214636
0.151428
0.100426
0.0632624
0.0389505
0.0247436
0.0173616
0.0139464
0.0125391
0.0120192
0.0120536
0.01034
0.0104238
0.0107745
0.0115563
0.0131066
0.0160178
0.02128
0.0305128
0.0464118
0.0735656
0.119839
0.198472
0.330714
0.547702
0.883222
1.32641
1.72191
1.81199
1.50983
0.933065
0.741695
0.718036
0.7392
0.751715
0.741394
0.708887
0.658413
0.591067
0.509922
0.419399
0.325602
0.236178
0.158989
0.0994174
0.0587293
0.034353
0.0216568
0.0159181
0.0135905
0.0125841
0.0122219
0.0106326
0.0108572
0.0113727
0.0124067
0.0143831
0.0180201
0.0245038
0.0357621
0.0550035
0.087678
0.143082
0.236762
0.393526
0.649062
1.03807
1.53424
1.95171
2.03017
1.72573
1.11182
0.890867
0.882902
0.929309
0.963351
0.967817
0.943189
0.892577
0.820033
0.72725
0.618255
0.49799
0.374427
0.259205
0.163804
0.0947912
0.0517894
0.0290708
0.0190236
0.0151637
0.013526
0.0128565
0.0111061
0.0114497
0.0121555
0.013511
0.0160393
0.0206075
0.0286418
0.0424438
0.0658477
0.105336
0.171898
0.283772
0.469801
0.770234
1.21894
1.77192
2.21523
2.28729
1.98783
1.35299
1.07488
1.08441
1.16897
1.23918
1.27265
1.26768
1.22732
1.15323
1.0448
0.914159
0.762832
0.596374
0.428525
0.278213
0.161471
0.0845586
0.042616
0.0241884
0.0174845
0.0148161
0.0137924
0.0117087
0.0122022
0.0131635
0.0149485
0.0182028
0.0239762
0.0339937
0.051013
0.0796336
0.127569
0.207792
0.34161
0.562202
0.9138
1.42722
2.04048
2.51775
2.59354
2.30324
1.67523
1.29691
1.31815
1.45638
1.58342
1.66941
1.70873
1.69792
1.63476
1.52006
1.36151
1.16937
0.947244
0.708542
0.47817
0.284391
0.147259
0.0685425
0.0334117
0.0210995
0.0165305
0.0149792
0.0124508
0.0131625
0.0144798
0.0168438
0.0210611
0.0284063
0.0409852
0.0621086
0.0973205
0.15578
0.252747
0.412898
0.673672
1.08193
1.66308
2.33964
2.8652
2.96132
2.67922
2.08455
1.56677
1.56329
1.76739
1.97672
2.15238
2.28658
2.36053
2.34978
2.24753
2.06166
1.80825
1.50378
1.16521
0.819983
0.506959
0.266991
0.119506
0.0509381
0.0272144
0.0189053
0.0165197
0.0133947
0.0144261
0.0162372
0.0193825
0.0248895
0.0343068
0.0502392
0.0766555
0.120282
0.191926
0.309433
0.500922
0.807425
1.27617
1.92525
2.66775
3.26019
3.40306
3.12603
2.5574
1.92589
1.78468
2.05297
2.38084
2.70467
3.00857
3.2593
3.38998
3.36156
3.17564
2.84661
2.413
1.91742
1.39772
0.90101
0.491332
0.219948
0.0855401
0.0384063
0.0223775
0.0185528
0.014667
0.0161439
0.0186338
0.0228394
0.0301057
0.0422971
0.0627067
0.0960389
0.15055
0.238794
0.381507
0.609885
0.96716
1.49805
2.21273
3.02274
3.69627
3.92094
3.66269
3.10069
2.40187
1.98896
2.24334
2.75398
3.32196
3.89366
4.39708
4.75419
4.9157
4.84412
4.50457
3.92407
3.18472
2.3806
1.59297
0.902522
0.413752
0.154545
0.0601841
0.0278709
0.0215216
0.0164571
0.018531
0.0219667
0.0276352
0.037378
0.0533562
0.0799126
0.122413
0.191264
0.300502
0.474204
0.745464
1.15775
1.75017
2.526
3.39924
4.15852
4.49883
4.30259
3.74423
3.01548
2.34396
2.17982
2.64261
3.4194
4.38516
5.41893
6.3046
6.87119
7.00239
6.80304
6.23933
5.28148
4.06444
2.7932
1.64669
0.778185
0.289655
0.104015
0.0370673
0.0262273
0.0190351
0.02189
0.0267087
0.0344426
0.0478454
0.0690877
0.104429
0.159216
0.247493
0.383307
0.595445
0.915815
1.38616
2.03647
2.86311
3.78687
4.62374
5.09837
5.02405
4.50285
3.76769
2.99036
2.47426
2.488
3.04681
4.09129
5.51606
7.06583
8.39214
9.25287
9.45495
9.07316
8.23478
6.75525
4.85609
2.94913
1.45142
0.544473
0.192906
0.0529932
0.0342059
0.0227784
0.0266499
0.0337002
0.0443868
0.0636091
0.0921546
0.140829
0.211907
0.32776
0.496611
0.757638
1.1327
1.66326
2.36504
3.22496
4.17185
5.05431
5.64162
5.7344
5.33056
4.63681
3.88685
3.18858
2.77748
2.89434
3.62653
4.9194
6.7307
8.6338
10.3002
11.4561
11.9166
11.4619
10.1872
7.97133
5.14298
2.63959
1.00279
0.370991
0.0806163
0.0483447
0.028251
0.033417
0.0446965
0.0593412
0.0889767
0.126816
0.19795
0.288603
0.447371
0.653336
0.981435
1.41186
2.00719
2.75324
3.62382
4.56262
5.43203
6.04712
6.26005
5.97095
5.33409
4.59182
3.94355
3.44264
3.21514
3.52407
4.49391
6.10275
8.14993
10.2455
12.1999
13.6746
14.526
13.6288
11.7283
8.22981
4.59398
1.755
0.728167
0.127004
0.0746602
0.0367657
0.0429041
0.0642302
0.0817348
0.134211
0.178103
0.295554
0.397733
0.638695
0.864605
1.30741
1.76576
2.4485
3.21657
4.05913
4.98377
5.75595
6.36399
6.64145
6.44923
5.97701
5.19489
4.43184
3.98396
3.73305
3.74328
4.40512
5.56835
7.53973
9.5241
12.3903
14.2919
17.1071
16.6019
15.6962
11.5462
7.49231
2.78454
1.47242
0.197749
0.127924
0.0509475
0.0395425
0.030716
0.0247502
0.0209444
0.018478
0.0167399
0.0153973
0.0142517
0.0133267
0.0125859
0.0122232
0.0126318
0.015271
0.025658
0.0708011
0.307312
0.0425811
0.0329468
0.026763
0.0227857
0.0201918
0.0183988
0.0170206
0.0158633
0.014849
0.0139412
0.0131987
0.0127719
0.0130557
0.0156344
0.0268939
0.0794157
0.318554
0.0315831
0.0274151
0.0240724
0.0216245
0.0198474
0.0184862
0.017352
0.0163303
0.0153946
0.0145467
0.0138175
0.013352
0.0135129
0.0158985
0.0274427
0.0846943
0.333899
0.0293147
0.0256592
0.0230862
0.0212381
0.0198494
0.0187237
0.0177411
0.0168283
0.015964
0.015159
0.0144531
0.0139652
0.0140232
0.0161249
0.0273908
0.0873102
0.354874
0.0261598
0.0241583
0.0224765
0.0211241
0.0200132
0.0190506
0.0181736
0.0173437
0.0165396
0.0157782
0.0151019
0.0146118
0.0145966
0.016362
0.0267716
0.0873472
0.37997
0.02564
0.0238516
0.02244
0.0212979
0.0203284
0.0194603
0.0186522
0.0178793
0.0171297
0.0164096
0.0157666
0.0152906
0.0152407
0.0167215
0.0259571
0.0853912
0.407413
0.0248654
0.0236375
0.0225461
0.0215885
0.0207274
0.0199281
0.0191706
0.0184412
0.0177339
0.0170598
0.0164548
0.0160086
0.0159622
0.0172611
0.0253234
0.0817982
0.43604
0.024948
0.0238492
0.0228752
0.0220057
0.0212054
0.0204501
0.0197288
0.0190337
0.0183632
0.017732
0.0171754
0.0167749
0.0167703
0.018016
0.0252139
0.0777399
0.46596
0.0250592
0.024134
0.0232798
0.0224872
0.0217362
0.0210161
0.0203245
0.0196597
0.019025
0.0184383
0.0179363
0.0176035
0.0176823
0.0190094
0.0257662
0.0746141
0.498428
0.0253758
0.0245629
0.0237798
0.0230353
0.0223179
0.0216248
0.0209595
0.0203244
0.0197278
0.019191
0.0187538
0.0185117
0.0187273
0.0202732
0.0270677
0.0734234
0.535158
0.0258706
0.0250827
0.0243418
0.0236329
0.0229434
0.0222754
0.0216368
0.0210347
0.0204824
0.0200048
0.0196486
0.0195273
0.0199452
0.0218578
0.0291654
0.0747816
0.577621
0.0262995
0.0256298
0.0249488
0.0242762
0.0236135
0.0229716
0.0223634
0.021801
0.0213029
0.0208988
0.0206469
0.0206872
0.0213837
0.0238263
0.0321366
0.0788635
0.626809
0.0270027
0.0262946
0.0256239
0.0249718
0.0243334
0.0237205
0.0231495
0.0226375
0.022208
0.0218979
0.0217832
0.022039
0.0231104
0.0262521
0.0359736
0.0866466
0.683423
0.0275088
0.0269346
0.0263264
0.0257125
0.025107
0.0245315
0.0240092
0.0235629
0.0232221
0.0230345
0.0231007
0.0236415
0.0252053
0.0292367
0.0407644
0.0973109
0.750406
0.0283642
0.0277211
0.0271123
0.0265195
0.0259479
0.0254195
0.0249609
0.0246002
0.0243745
0.0243472
0.0246503
0.0255635
0.0277586
0.0328941
0.0466619
0.11074
0.828442
0.0289498
0.0284614
0.0279253
0.0273833
0.0268634
0.0263994
0.026025
0.0257753
0.0256987
0.0258791
0.026489
0.0278799
0.0308644
0.0373392
0.0538154
0.127183
0.918024
0.0299453
0.0293732
0.0288397
0.0283337
0.0278732
0.0274909
0.0272242
0.0271163
0.0272297
0.0276756
0.0286763
0.0306655
0.0346134
0.0426793
0.0623536
0.146724
1.01972
0.03063
0.0302349
0.0297913
0.0293608
0.0289859
0.0287104
0.0285802
0.0286497
0.0290011
0.0297807
0.0312671
0.0339878
0.0390829
0.0490196
0.072377
0.169475
1.13228
0.0317641
0.0312825
0.0308605
0.0304971
0.0302212
0.0300756
0.0301119
0.0303979
0.0310417
0.0322298
0.0343045
0.0378974
0.0443287
0.0564063
0.0839729
0.195949
1.25587
0.0325729
0.0322901
0.0319839
0.0317313
0.0315846
0.0315973
0.0318322
0.0323763
0.0333691
0.0350434
0.0378118
0.0424176
0.0503705
0.0648512
0.0971732
0.226439
1.38965
0.0338411
0.0334836
0.033233
0.0330892
0.033088
0.0332832
0.0337469
0.0345898
0.0359872
0.0382235
0.0417874
0.0475398
0.0571843
0.0743083
0.111898
0.26051
1.52919
0.0347972
0.0346558
0.0345505
0.0345574
0.0347301
0.0351322
0.0358531
0.0370318
0.0388836
0.041749
0.0461959
0.0532081
0.0646846
0.0846685
0.127972
0.297722
1.67328
0.0361854
0.0359952
0.0359897
0.0361507
0.036512
0.0371393
0.0381402
0.0396846
0.0420301
0.0455751
0.0509684
0.0593174
0.072714
0.0957041
0.145044
0.337393
1.81376
0.0372948
0.0373334
0.0375077
0.0378567
0.0384258
0.0392941
0.0405925
0.042523
0.0453857
0.0496357
0.056
0.0657055
0.0810315
0.107049
0.162404
0.377939
1.95054
0.0387775
0.0388147
0.0391409
0.0396817
0.0404683
0.0415883
0.0431948
0.04552
0.0489039
0.0538542
0.0611701
0.0721877
0.0893738
0.1183
0.179464
0.416683
2.08843
0.0400309
0.0403227
0.0408646
0.0416206
0.0426369
0.0440171
0.045937
0.0486566
0.052551
0.0581745
0.0663908
0.078636
0.0975551
0.129189
0.19574
0.451627
2.22064
0.0415891
0.0419616
0.0427058
0.0436821
0.0449372
0.0465864
0.0488245
0.0519351
0.0563232
0.0625822
0.0716295
0.0849879
0.105469
0.139531
0.210781
0.480988
2.34567
0.0429906
0.0436672
0.0446589
0.0458742
0.0473827
0.0493137
0.0518778
0.0553793
0.0602462
0.0671024
0.0769074
0.0912542
0.113102
0.149259
0.224252
0.502465
2.4526
0.044644
0.0455113
0.0467469
0.0482157
0.0499973
0.0522303
0.0551362
0.0590363
0.0643764
0.0718016
0.0822988
0.0975112
0.120515
0.158387
0.235955
0.514337
2.5246
0.0462433
0.0474682
0.0489808
0.0507315
0.0528166
0.0553821
0.0586583
0.062979
0.0688041
0.0767896
0.0879335
0.103903
0.127846
0.167008
0.245912
0.516348
2.54285
0.0480704
0.0495844
0.0513895
0.0534575
0.0558891
0.0588333
0.0625269
0.0673123
0.0736612
0.0822304
0.0940111
0.110662
0.135346
0.175345
0.254407
0.510584
2.49199
0.0499762
0.0518615
0.0540023
0.0564407
0.0592797
0.0626706
0.0668555
0.0721839
0.0791354
0.088363
0.100833
0.118164
0.143459
0.183882
0.262071
0.50068
2.36611
0.0520991
0.0543328
0.0568612
0.0597409
0.0630728
0.0670093
0.071798
0.0777975
0.0854932
0.0955346
0.108855
0.127004
0.15296
0.193587
0.270117
0.4904
2.17324
0.054433
0.0570208
0.0600145
0.0634306
0.0673741
0.0719987
0.0775597
0.0844299
0.0931082
0.104244
0.118749
0.138102
0.16511
0.206172
0.280745
0.483186
1.93429
0.0569919
0.0599844
0.0635188
0.0675938
0.0723103
0.0778249
0.0844059
0.0924493
0.102486
0.115189
0.131475
0.152792
0.181796
0.224327
0.297638
0.483356
1.67682
0.0597511
0.0633088
0.0674319
0.0723239
0.0780213
0.0847077
0.0926645
0.102328
0.11429
0.1293
0.148349
0.172923
0.205646
0.251939
0.32644
0.496034
1.42789
0.0627097
0.0669449
0.0718937
0.07772
0.0846457
0.0928901
0.102716
0.114641
0.129362
0.147783
0.171117
0.201057
0.240192
0.293616
0.37333
0.526977
1.21056
0.0658592
0.0708902
0.0768355
0.0839155
0.0923967
0.102601
0.11495
0.130043
0.148727
0.172149
0.201851
0.240028
0.289997
0.357144
0.45143
0.599495
1.02685
0.0691734
0.075125
0.0822451
0.0908385
0.101282
0.114039
0.129701
0.149075
0.173297
0.203973
0.243354
0.294669
0.362685
0.454614
0.581083
0.74968
0.87442
0.0726275
0.0796149
0.0880885
0.0984626
0.111269
0.127188
0.147104
0.172211
0.204191
0.245466
0.299569
0.371718
0.46978
0.605814
0.797428
1.04844
0.749157
0.12215
0.130185
0.138537
0.146724
0.154728
0.162405
0.169601
0.176162
0.181938
0.186781
0.190568
0.193207
0.194649
0.194885
0.193948
0.191912
0.188874
0.184963
0.180307
0.174979
0.168494
0.161552
0.155536
0.149556
0.143673
0.137928
0.132358
0.126987
0.121828
0.116898
0.112198
0.107731
0.10348
0.0994431
0.0956097
0.0919763
0.0885286
0.0852562
0.0821344
0.0791336
0.0762047
0.138834
0.148468
0.157991
0.167369
0.176494
0.18518
0.193244
0.200505
0.206796
0.211956
0.215856
0.218406
0.21957
0.219353
0.217814
0.215047
0.211184
0.206376
0.200784
0.194509
0.187057
0.179191
0.172276
0.165444
0.158753
0.15225
0.145974
0.139947
0.134186
0.1287
0.123498
0.118567
0.113898
0.109475
0.105295
0.101345
0.097614
0.094083
0.090727
0.087503
0.0843427
0.158786
0.169796
0.180771
0.191587
0.202048
0.211932
0.221018
0.229095
0.235976
0.241491
0.245504
0.24793
0.248745
0.247978
0.245712
0.242073
0.237226
0.231359
0.224663
0.217275
0.208704
0.199767
0.191813
0.183994
0.176372
0.168999
0.161916
0.155143
0.148696
0.142587
0.136818
0.131374
0.126239
0.121398
0.116842
0.112557
0.108529
0.104736
0.10115
0.0977182
0.0943472
0.181997
0.194784
0.207562
0.220109
0.232173
0.243487
0.253787
0.262827
0.270395
0.276314
0.280445
0.28271
0.283097
0.281663
0.278523
0.273844
0.267829
0.260707
0.252711
0.244017
0.234142
0.223959
0.214798
0.205835
0.197137
0.188762
0.180751
0.173125
0.165898
0.159083
0.152676
0.14666
0.14101
0.135712
0.130752
0.126114
0.12178
0.117728
0.113925
0.110316
0.10678
0.209362
0.224287
0.239218
0.253851
0.267853
0.280888
0.29264
0.302827
0.311208
0.317596
0.321856
0.323915
0.323782
0.321545
0.317361
0.311441
0.304041
0.295436
0.285908
0.275677
0.264281
0.252647
0.242079
0.231783
0.221838
0.212303
0.203224
0.194616
0.1865
0.178882
0.171756
0.165098
0.15888
0.153083
0.147691
0.142685
0.138043
0.133743
0.129751
0.126011
0.122383
0.24195
0.259366
0.276831
0.293963
0.310314
0.325442
0.33895
0.350512
0.359868
0.366816
0.371222
0.373031
0.372274
0.369078
0.363648
0.356256
0.347214
0.33686
0.325526
0.313488
0.300313
0.286984
0.27477
0.26292
0.251522
0.240641
0.230324
0.220586
0.211448
0.202915
0.194974
0.187597
0.18075
0.174411
0.168559
0.163173
0.158231
0.153708
0.149572
0.145768
0.142146
0.281046
0.301391
0.321825
0.341915
0.3611
0.37879
0.394449
0.40768
0.418218
0.425852
0.430443
0.431959
0.430464
0.42613
0.419226
0.410092
0.399114
0.386697
0.373239
0.359076
0.343818
0.328504
0.314361
0.300693
0.287597
0.275147
0.263391
0.252345
0.24203
0.232449
0.223583
0.215397
0.207853
0.200925
0.19459
0.188824
0.183604
0.178905
0.174692
0.170913
0.167416
0.328254
0.352113
0.376067
0.399647
0.422211
0.443021
0.461342
0.47663
0.48862
0.497109
0.501957
0.503149
0.500796
0.495134
0.486499
0.47532
0.462067
0.44723
0.431278
0.414619
0.39692
0.37928
0.362873
0.347071
0.331987
0.317704
0.304269
0.291702
0.280027
0.269241
0.25932
0.250224
0.24191
0.234348
0.227512
0.221379
0.215926
0.211125
0.206936
0.203305
0.200074
0.385755
0.413866
0.442051
0.469774
0.496332
0.520884
0.542488
0.560332
0.574129
0.583706
0.588924
0.589791
0.586474
0.579284
0.568646
0.555089
0.539188
0.521525
0.502659
0.483078
0.462525
0.44216
0.423095
0.40479
0.387373
0.370941
0.355542
0.341205
0.327952
0.315777
0.304652
0.294533
0.285371
0.277131
0.26979
0.263328
0.257719
0.25293
0.248911
0.245596
0.242811
0.45677
0.489977
0.523241
0.555908
0.587174
0.616132
0.641701
0.66272
0.678773
0.689749
0.695507
0.696093
0.691735
0.682834
0.669921
0.653645
0.634696
0.613771
0.591529
0.56855
0.544676
0.521128
0.498952
0.477713
0.457561
0.438614
0.420917
0.404516
0.389431
0.375656
0.363159
0.351893
0.341804
0.332856
0.325029
0.318309
0.312668
0.30806
0.304418
0.301659
0.29958
0.546254
0.585451
0.624706
0.663205
0.699989
0.73405
0.764254
0.789134
0.807977
0.820733
0.827278
0.827687
0.82227
0.811525
0.796105
0.776792
0.754408
0.729782
0.703686
0.676807
0.649107
0.621873
0.596087
0.571432
0.548094
0.526211
0.505838
0.48704
0.469837
0.454225
0.440173
0.427632
0.416548
0.406884
0.398629
0.391779
0.386295
0.38211
0.379139
0.377282
0.376299
0.66195
0.708007
0.754128
0.799312
0.842412
0.882252
0.917661
0.947041
0.969229
0.984192
0.991828
0.99225
0.985849
0.973228
0.95517
0.932596
0.906476
0.877778
0.847402
0.816156
0.78414
0.752718
0.722813
0.694244
0.667245
0.641982
0.618528
0.596978
0.577354
0.559662
0.543875
0.529947
0.517831
0.507491
0.498933
0.49216
0.487113
0.483697
0.481815
0.481353
0.482027
0.816168
0.869803
0.923447
0.975918
1.02588
1.07197
1.11291
1.14718
1.17315
1.19069
1.19974
1.20045
1.19328
1.17893
1.15831
1.13248
1.10255
1.06962
1.03474
0.998829
0.96215
0.926154
0.891723
0.858822
0.827749
0.798708
0.771814
0.747193
0.724882
0.704906
0.687252
0.671886
0.658773
0.647887
0.639258
0.632887
0.628682
0.626528
0.626322
0.627928
0.63101
1.02907
1.0905
1.1517
1.2114
1.2681
1.32026
1.36648
1.40542
1.43519
1.45543
1.46612
1.46743
1.45989
1.44428
1.42158
1.39295
1.35962
1.32283
1.2837
1.24332
1.20207
1.1615
1.1225
1.08517
1.04989
1.01692
0.986452
0.958635
0.933549
0.911252
0.891756
0.875057
0.861141
0.850006
0.841705
0.836224
0.833431
0.833213
0.835447
0.839964
0.846341
1.335
1.40305
1.47032
1.53557
1.59726
1.6538
1.70374
1.74589
1.7785
1.80088
1.81305
1.81524
1.80797
1.79205
1.76847
1.73842
1.70314
1.66393
1.62198
1.57843
1.5338
1.48966
1.44703
1.40608
1.3673
1.33103
1.29752
1.26697
1.23956
1.21538
1.1945
1.17695
1.16276
1.15197
1.14464
1.14073
1.14008
1.14259
1.14808
1.15634
1.16677
1.79553
1.86534
1.93334
1.99872
2.06004
2.11591
2.16501
2.20637
2.23874
2.26122
2.2738
2.27686
2.27084
2.25639
2.23442
2.20597
2.17219
2.13424
2.09331
2.05046
2.00629
1.96222
1.91931
1.87786
1.83842
1.80142
1.76722
1.73611
1.70831
1.68401
1.66328
1.64624
1.63302
1.62366
1.61826
1.61671
1.61886
1.62457
1.63361
1.64572
1.65989
2.52774
2.58477
2.63863
2.68968
2.73699
2.77969
2.81694
2.84814
2.87277
2.88999
2.90004
2.90312
2.8995
2.88962
2.87406
2.85351
2.82873
2.80052
2.76971
2.73708
2.70316
2.66889
2.63512
2.60221
2.57065
2.54087
2.51327
2.48815
2.46579
2.44641
2.43021
2.4173
2.40776
2.40172
2.39927
2.40026
2.40458
2.41204
2.42239
2.43529
2.449
0.255508
0.0511936
0.0193449
0.0127479
0.0109129
0.0104799
0.0105908
0.0109716
0.011488
0.0121042
0.012835
0.0137761
0.0150971
0.0170505
0.0199686
0.0241168
0.0290908
0.25545
0.0571655
0.0208203
0.013318
0.0113138
0.0108843
0.0110182
0.0114079
0.0119166
0.0125018
0.0131628
0.0139652
0.0150205
0.0165166
0.0187606
0.02221
0.0272351
0.261692
0.0630914
0.0221876
0.0138127
0.0117371
0.0113385
0.0114946
0.011887
0.0123852
0.0129422
0.0135506
0.0142521
0.0151116
0.016237
0.0178175
0.0202361
0.0244431
0.276535
0.0690714
0.023308
0.0142526
0.012196
0.0118415
0.0120147
0.0124038
0.012889
0.0134196
0.0139896
0.0146223
0.0153558
0.0162429
0.0173476
0.0187125
0.0203088
0.29991
0.0740804
0.0240318
0.0146767
0.0127116
0.0123991
0.0125797
0.0129594
0.0134276
0.0139353
0.0144757
0.0150595
0.0157127
0.0164747
0.0174038
0.0185743
0.0200086
0.330903
0.0776379
0.024434
0.0151556
0.0133032
0.013015
0.0131908
0.0135552
0.0140024
0.0144905
0.0150071
0.0155529
0.0161426
0.0168034
0.0175771
0.0185397
0.0198221
0.368004
0.0796662
0.0246936
0.0157517
0.013984
0.0136944
0.0138526
0.0141947
0.014619
0.0150887
0.0155862
0.0161049
0.01665
0.0172357
0.0178815
0.018614
0.0194889
0.409748
0.0804629
0.0250406
0.016515
0.0147666
0.0144452
0.0145724
0.0148837
0.0152835
0.015734
0.0162147
0.0167154
0.0172352
0.0177807
0.0183626
0.0189902
0.0196757
0.455364
0.0806583
0.0257023
0.0174862
0.0156675
0.0152794
0.0153589
0.0156323
0.0160031
0.0164313
0.0168949
0.0173799
0.0178818
0.0184049
0.0189582
0.0195439
0.0201204
0.505101
0.0811268
0.0268722
0.0187064
0.0167108
0.0162138
0.0162257
0.0164518
0.0167873
0.017189
0.017633
0.0181013
0.0185838
0.0190823
0.0196106
0.0201968
0.0208952
0.559983
0.0826578
0.0286989
0.0202275
0.0179313
0.017272
0.0171902
0.0173557
0.0176477
0.018017
0.0184377
0.0188898
0.0193564
0.0198283
0.0203044
0.0207908
0.0213181
0.621227
0.0860603
0.0313176
0.0221208
0.0193782
0.0184831
0.0182737
0.0183603
0.0185973
0.0189253
0.0193159
0.0197487
0.0202048
0.0206693
0.0211334
0.0215816
0.0219458
0.689725
0.0920024
0.0348705
0.0244778
0.0211017
0.0198868
0.0195048
0.0194874
0.0196539
0.0199291
0.0202786
0.0206803
0.0211142
0.0215641
0.02203
0.0225366
0.0231329
0.765732
0.101398
0.0394682
0.0273631
0.0231717
0.0215341
0.02092
0.0207643
0.020839
0.021047
0.0213439
0.0217037
0.0221021
0.0225141
0.0229216
0.023325
0.0237676
0.850944
0.114407
0.0450965
0.0308812
0.0256686
0.0234838
0.022562
0.0222221
0.0221759
0.0222966
0.0225262
0.0228345
0.023197
0.0235857
0.02397
0.0243115
0.0245293
0.946976
0.130267
0.0518921
0.0351302
0.0286755
0.0258019
0.0244813
0.0238981
0.023693
0.0237
0.0238414
0.0240789
0.0243874
0.0247432
0.0251271
0.0255396
0.0260099
1.05372
0.149025
0.0599695
0.0402122
0.0322822
0.0285618
0.0267362
0.0258385
0.0254267
0.0252875
0.0253164
0.025461
0.0256898
0.0259724
0.0262763
0.0265824
0.0269295
1.17085
0.170539
0.0694244
0.0462234
0.0365754
0.0318386
0.0293882
0.0280925
0.027416
0.0270903
0.0269786
0.0270106
0.027148
0.0273587
0.0275986
0.0278028
0.0278586
1.2977
0.194697
0.0803352
0.0532317
0.0416292
0.0357016
0.0324976
0.0307101
0.0297012
0.0291396
0.0288502
0.0287405
0.028762
0.0288866
0.0290859
0.029334
0.0296219
1.43412
0.222077
0.0925945
0.0612719
0.0474958
0.0402076
0.0361189
0.0337398
0.0323244
0.0314715
0.0309623
0.0306758
0.0305459
0.0305357
0.0306091
0.0307325
0.0309351
1.57855
0.252498
0.106282
0.0703582
0.0542057
0.0453982
0.0402963
0.0372245
0.0353241
0.0341209
0.033348
0.0328522
0.0325467
0.0323868
0.0323284
0.0322874
0.0321191
1.73094
0.286067
0.12137
0.0804751
0.0617582
0.0512903
0.0450567
0.0411952
0.0387315
0.0371157
0.0360305
0.0352871
0.0347758
0.0344489
0.0342763
0.0342079
0.0342094
1.88934
0.322403
0.137751
0.0915491
0.0701111
0.0578691
0.0504046
0.0456678
0.0425685
0.0404806
0.039033
0.0379991
0.0372433
0.036702
0.0363335
0.0360902
0.0360384
2.05116
0.361016
0.155291
0.103477
0.079195
0.0650965
0.0563267
0.0506466
0.0468508
0.0442369
0.0423811
0.0410198
0.0399898
0.0392071
0.0386138
0.0381215
0.0375982
2.21197
0.401009
0.173754
0.116115
0.0889108
0.0729123
0.0627943
0.0561256
0.051587
0.0484017
0.0460958
0.0443693
0.0430317
0.041986
0.0411843
0.0405681
0.0401296
2.36428
0.440701
0.192738
0.12925
0.0991218
0.0812313
0.0697625
0.0620889
0.0567808
0.0529917
0.0502002
0.0480707
0.0463861
0.045031
0.0439516
0.0431007
0.0426265
2.50002
0.477203
0.211631
0.142601
0.109652
0.0899485
0.0771777
0.0685183
0.0624383
0.0580292
0.0547254
0.0521612
0.0500992
0.0484024
0.0469922
0.0457803
0.0446928
2.60878
0.507751
0.229802
0.155878
0.120344
0.0989845
0.0850111
0.0754192
0.068587
0.063552
0.0597143
0.0566871
0.0542143
0.0521444
0.0504108
0.0489667
0.047855
2.67439
0.529439
0.246588
0.168867
0.131143
0.108356
0.0933165
0.0828633
0.0753043
0.0696387
0.0652446
0.0617174
0.0587845
0.0562873
0.054157
0.0523789
0.0512425
2.68014
0.540499
0.261587
0.181538
0.142161
0.118227
0.102267
0.091016
0.082742
0.0764272
0.0714362
0.0673541
0.0639043
0.0609192
0.0583042
0.055997
0.0540112
2.61324
0.541691
0.274835
0.194121
0.153742
0.128954
0.11219
0.100163
0.0911466
0.0841246
0.0784612
0.0737437
0.0696938
0.0661384
0.0630026
0.0602741
0.0580685
2.47148
0.536337
0.287043
0.207303
0.166577
0.141157
0.123615
0.110747
0.10088
0.0930238
0.0865592
0.0810751
0.076293
0.0720476
0.068272
0.0649828
0.0626888
2.26508
0.528666
0.299765
0.222416
0.181808
0.155784
0.137315
0.123392
0.11244
0.103524
0.0960402
0.0895839
0.0838873
0.0787906
0.0741942
0.0700438
0.0664674
2.01587
0.523273
0.31578
0.241667
0.201155
0.174177
0.154347
0.138928
0.126483
0.116131
0.107289
0.0995651
0.0927023
0.0865331
0.0809587
0.0759679
0.0717201
1.7504
0.525929
0.339561
0.268345
0.227035
0.198158
0.176103
0.158432
0.143827
0.131458
0.120764
0.11136
0.10298
0.0954462
0.088654
0.082601
0.0779384
1.49345
0.543588
0.377716
0.306972
0.262713
0.230127
0.204382
0.183238
0.165456
0.150229
0.136992
0.125341
0.114986
0.105718
0.0973716
0.0898167
0.0831804
1.26782
0.581503
0.437165
0.363704
0.312611
0.273271
0.241465
0.214984
0.19254
0.173265
0.156541
0.141904
0.128996
0.117534
0.107278
0.0980734
0.0899293
1.07583
0.664463
0.531754
0.446003
0.382353
0.331963
0.29029
0.255698
0.226442
0.201468
0.180005
0.161436
0.145254
0.131036
0.118445
0.107291
0.0980093
0.9153
0.830432
0.683876
0.568106
0.479764
0.410593
0.354778
0.307827
0.268706
0.235788
0.207981
0.1843
0.163947
0.146293
0.130841
0.117225
0.105261
0.782335
1.15255
0.930103
0.750945
0.617914
0.516832
0.437792
0.374296
0.321122
0.277351
0.241216
0.210914
0.185242
0.163294
0.14436
0.127872
0.113449
0.0541717
0.109273
0.240207
0.525553
1.10205
2.15783
3.7558
5.49252
6.55965
6.47939
5.38011
4.26245
4.14377
5.96133
10.1794
15.8838
18.5686
13.0273
3.44224
0.266767
0.0703676
0.148228
0.328585
0.705889
1.42757
2.65305
4.33349
5.95886
6.85876
6.62238
5.54818
4.41332
4.1312
5.65207
9.80334
16.4038
20.9301
16.2611
4.6297
0.364798
0.0941876
0.205418
0.456148
0.959587
1.87329
3.30556
5.07095
6.6227
7.32942
6.97891
5.84434
4.6156
4.20594
5.54676
9.71192
17.0618
22.9726
19.158
5.9158
0.489782
0.129457
0.289343
0.639488
1.31585
2.48142
4.15589
5.96412
7.32792
7.81681
7.37808
6.24911
4.91893
4.30931
5.49912
9.74556
17.7584
24.9212
22.2033
7.29007
0.647881
0.181952
0.412169
0.901654
1.8136
3.28902
5.14882
6.91073
8.0551
8.31949
7.79035
6.6594
5.26281
4.44427
5.38148
9.83413
18.4599
26.6875
24.7336
8.68486
0.84902
0.260263
0.591443
1.27616
2.50322
4.30572
6.30514
7.90741
8.79001
8.85837
8.25531
7.10124
5.62529
4.617
5.30782
10.0377
19.2114
28.071
26.5491
10.0371
1.10167
0.377103
0.852538
1.80724
3.43007
5.54172
7.50711
8.85409
9.50509
9.44789
8.79675
7.57752
5.99142
4.81189
5.32627
10.4052
19.9747
28.9512
27.6082
11.2733
1.41265
0.551475
1.23106
2.5454
4.57883
6.80425
8.54828
9.64242
10.159
10.0534
9.37597
8.05769
6.33606
4.99958
5.51871
10.9182
20.644
29.269
28.0648
12.355
1.794
0.81232
1.77484
3.5162
5.80023
7.84412
9.29064
10.2419
10.7337
10.629
9.9007
8.46686
6.60382
5.17182
5.89305
11.5653
21.1047
29.0118
28.0009
13.3134
2.2538
1.20273
2.54567
4.6458
6.81447
8.47448
9.7216
10.671
11.1981
11.0967
10.2768
8.70937
6.70408
5.36249
6.45153
12.2732
21.1894
28.1513
27.3398
14.1954
2.84582
1.78963
3.56236
5.70958
7.40481
8.71421
9.91965
10.9294
11.4794
11.3387
10.3937
8.67561
6.62878
5.60965
7.157
12.8921
20.7828
26.639
26.0491
14.8768
3.6295
2.67096
4.73072
6.46997
7.61701
8.73421
9.93459
10.9493
11.4647
11.2391
10.1115
8.2387
6.481
5.95456
7.9123
13.2387
19.8119
24.468
24.126
15.2739
4.69622
3.89089
5.8221
6.90948
7.67958
8.67219
9.7802
10.6803
11.0723
10.6057
9.27219
7.62608
6.35574
6.37487
8.573
13.1369
18.2719
21.6998
21.6528
15.6095
6.23926
5.35943
6.69445
7.23344
7.77086
8.57681
9.43915
10.0482
10.1643
9.4044
8.2384
7.02864
6.33654
6.81837
8.98528
12.5835
16.2866
18.5702
18.7235
15.3234
8.47546
6.8145
7.40437
7.58799
7.88295
8.37748
8.85077
9
8.69823
8.08968
7.30732
6.63024
6.46535
7.22232
9.08818
11.681
14.1036
15.4357
15.5748
14.1036
10.9632
8.00394
8.01112
7.89906
7.86506
7.94991
7.96544
7.80469
7.48267
7.12937
6.76969
6.576
6.7782
7.59201
8.99908
10.6678
12.0303
12.6632
12.6043
11.9331
11.7829
8.72795
8.37892
7.87169
7.49953
7.28527
7.10867
6.94883
6.86579
6.82002
6.82426
6.96982
7.37306
8.06587
8.97705
9.90049
10.4781
10.6109
10.2342
9.64712
9.73989
9.11769
8.10315
7.37841
6.9877
6.82127
6.81004
6.93577
7.12792
7.35823
7.63514
7.98499
8.42856
8.93241
9.40967
9.74094
9.79176
9.48621
8.89105
8.29442
8.21174
8.89544
7.96128
7.55283
7.40574
7.47954
7.77356
8.13309
8.52154
8.92811
9.34236
9.74821
10.1256
10.4346
10.6043
10.5689
10.3245
9.80222
9.17223
8.63909
8.77382
11.4563
11.8432
12.0856
12.4341
12.9133
13.5708
14.2725
14.9729
15.6623
16.338
16.9943
17.6137
18.1482
18.4837
18.5888
18.2588
18.1838
18.3658
18.9909
20.2328
17.4011
9.36181
9.4945
12.7771
12.4329
6.78132
3.75203
2.23526
1.43402
0.973573
0.684072
0.494316
0.364861
0.273601
0.207689
0.159256
0.123289
0.0963613
0.076068
0.0607824
12.7909
9.04747
10.7658
13.4528
7.7772
3.82932
2.01752
1.17388
0.740681
0.493925
0.342402
0.244474
0.178806
0.133548
0.101718
0.0789878
0.0625737
0.0506425
0.0419408
0.0355796
9.54801
8.62459
14.1375
10.5592
4.96138
2.32955
1.22394
0.712561
0.445879
0.293866
0.201812
0.143467
0.105249
0.079614
0.0621118
0.0499945
0.0415158
0.0355333
0.0312779
0.0282234
7.25718
7.6992
13.6456
6.71655
2.85982
1.34187
0.720463
0.42348
0.266517
0.17714
0.123327
0.0896207
0.0679141
0.0536443
0.0441053
0.0376334
0.0331765
0.0300573
0.0278259
0.0261824
5.68084
7.21561
8.87881
3.78193
1.56154
0.762114
0.417784
0.250679
0.161632
0.110655
0.0800291
0.0610319
0.0489676
0.0411539
0.0359971
0.0325233
0.0301227
0.0284025