/*--------------------------------*- C++ -*----------------------------------*\
  =========                 |
  \\      /  F ield         | OpenFOAM: The Open Source CFD Toolbox
   \\    /   O peration     | Website:  https://openfoam.org
    \\  /    A nd           | Version:  6
     \\/     M anipulation  |
\*---------------------------------------------------------------------------*/
FoamFile
{
    version     2.0;
    format      ascii;
    class       surfaceScalarField;
    location    "1.79";
    object      meshPhi;
}
// * * * * * * * * * * * * * * * * * * * * * * * * * * * * * * * * * * * * * //

dimensions      [0 3 -1 0 0 0 0];

internalField   nonuniform List<scalar> 
11670
(
-0.0677679
0.0653165
-0.0852073
0.109383
-0.0209903
-0.0209481
0.0134274
0.0175934
-0.19422
0.132681
-0.128015
0.208797
-0.189669
0.160907
-0.243604
0.293591
-0.0472248
0.0592078
-0.0939194
0.0729171
0.00174076
-0.00719499
-0.00253545
-0.000371343
0.110804
-0.153518
0.14674
-0.117529
-0.0788796
0.0990258
-0.118677
0.0810602
0.155458
0.047059
-0.0323006
-0.155668
-0.0875104
-0.101084
0.0756902
0.0955607
0.252652
-0.296362
0.407986
-0.36245
-0.00643669
0.00320373
0.00263854
-0.00368511
-0.00194697
0.00313199
0.00577545
-0.00277254
0.00603133
-0.004169
-0.00273728
0.00612834
0.00582105
-0.00604454
-0.00777514
0.00281739
0.00343243
-0.00293812
0.00330048
-0.00135912
0.00113695
-0.00170796
-0.00250818
0.00109993
-0.00223197
0.00111965
0.00110698
-0.00154049
0.00328661
-0.00153016
0.00463035
-0.00290806
0.00279964
-0.00143869
-0.00107733
0.00158766
0.00337839
-0.00374891
-0.00321278
0.00118731
0.0021025
-0.000789675
-0.000953429
0.00095476
-0.0026335
0.00160696
0.00103351
-0.00150297
0.00213946
-0.00475463
-0.00441257
0.00281988
-0.00245628
0.00293956
0.00364937
-0.00134947
0.00929007
-0.00789186
-0.00276368
0.00917549
-0.0101462
0.00977714
0.00291153
-0.00902358
0.00699906
-0.00302798
0.00664965
-0.00435339
0.00429575
-0.00689898
0.00449872
-0.00711979
-0.0084345
0.00902284
-0.00449487
0.0143989
0.00579363
-0.00903396
0.00559967
-0.00891554
0.00822368
-0.00332701
0.00816614
-0.00541513
-0.00921306
0.00999547
-0.00559112
0.0178007
-0.0139332
0.00864153
-0.0087977
0.00589007
0.0217329
-0.0225205
0.00608149
-0.0193881
0.0126021
-0.011813
-0.00608009
0.0194345
-0.000395248
0.00566957
0.00875622
-0.00588871
0.00499912
-0.00344715
0.012965
-0.00594778
0.00525817
-0.00954095
-0.00873132
0.00582665
-0.0333627
0.0312715
0.0067571
-0.0213167
-0.00201526
0.00510474
0.00814454
-0.00511512
-0.0144482
0.0140484
-0.0139959
0.00495179
-0.0109931
0.0133766
-0.00486117
0.015852
0.0039745
-0.0095418
0.00463745
-0.00628755
0.00705939
-0.00485033
-0.00353577
0.00703304
-0.00919917
0.00764298
-0.00763898
0.00357857
-0.00221586
0.00389493
0.00848663
-0.00358131
0.00496734
-0.00733578
0.00353307
-0.00775128
-0.00115372
0.002352
0.0031589
-0.00198393
0.000989679
-0.00301082
0.00179449
-0.00221359
-0.00557909
0.00649455
-0.00188543
0.00618262
-0.00518187
0.00501904
-0.00579868
0.00191612
5.89348e-05
-0.000167203
8.72318e-06
-0.000208589
0.000400284
-0.000373814
0.000457463
1.07339e-05
2.34467e-14
-2.6262e-14
0
0
-0.00104637
0.00463191
-0.0017178
0.00146824
0.00188981
-0.00478129
-0.00212215
0.00175787
-0.00488631
0.0047708
0.00705481
-0.00230765
0.00377171
-0.00314142
0.00200724
-0.00575061
0.00685749
-0.0030283
0.00630945
-0.00434224
0.00372204
-0.00798838
0.00402292
-0.00581086
-0.00810028
0.00868801
-0.00448336
0.0145204
-0.0203556
0.0193297
-0.0156228
0.0049986
-0.00178478
0.00405148
0.00597549
-0.00375287
-0.00951265
0.011317
-0.00356655
0.011841
-0.0143905
0.014715
-0.0133106
0.00386767
0.00276641
-0.00698397
0.00359442
-0.00454697
-0.00208329
0.00560952
-0.0060938
0.00970209
0.00579865
-0.0128197
0.00583998
-0.00765787
-0.0252841
0.0258018
-0.021122
0.00628395
-0.0246521
0.0239765
0.00591284
-0.0191711
0.00530753
-0.0104207
-0.00847589
0.00572672
0.00979859
-0.00294535
-0.00568164
0.00750101
-0.0101529
0.00969661
0.0205823
-0.00611356
0.00816323
-0.00335072
0.00796437
-0.00540852
-0.00902712
0.00975494
-0.0055843
0.01795
-0.0140429
0.00765351
0.00536366
-0.00693871
0.020819
-0.0203401
-0.0195757
0.00577142
0.0063107
-0.0137657
-0.0054715
0.00453229
-0.00183758
0.00699418
0.00557754
-0.00409069
-0.0101166
0.012188
-0.00645215
0.0178447
0.0112119
-0.00958681
0.00517523
-0.0148267
0.0287742
-0.0313568
-0.0269423
-0.0489687
0.0763715
-0.202616
-0.0202169
0.0273232
-0.060741
0.103831
-0.114532
0.108683
-0.0399655
0.0261603
-0.0387989
-0.000680096
-0.00538454
0.00118444
-0.0900954
0.0891125
-0.0907592
-0.0652224
0.0711501
-0.180155
-0.0472054
0.0826596
0.132059
0.116639
-0.122291
-0.0957897
0.172336
-0.174622
0.253741
0.0386172
-0.0698
0.299463
-0.256459
0.149283
0.0226123
-0.0227204
-0.144665
-3.66838e-06
0.00149148
-0.00239429
-4.7112e-05
0.00146039
-0.0572253
0.0075274
0.0481577
-0.0205431
-0.0891605
0.106816
0.0027403
0.00952604
0.194533
-0.170602
-0.0339184
0.00167071
-0.0750986
0.0101054
0.0615571
0.0260852
0.0937279
-0.138694
0.0252717
0.103596
0.299463
-0.241509
-0.00301582
-0.00919842
0.0181476
-0.000918101
-0.000601631
0.00489845
0.00526183
-0.0122644
-0.003203
0.0456922
-0.0107821
-0.0315134
0.00911602
-0.0100784
-0.00256938
0.00349132
-0.0137292
0.0155616
-0.0038206
0.0226822
-0.0201397
-0.00549519
0.00263298
0.021706
-0.0224779
-0.0755318
0.0651801
0.010316
-0.16655
0.0155892
0.130479
-0.002243
0.000326564
0.000977665
0.201361
-0.0364142
-0.155966
0.175811
0.00795242
-0.151854
-0.0348043
0.0315818
0.00458373
-0.0223306
-0.0445181
-0.0649473
0.145544
-0.0920072
-0.0693992
0.152823
-0.000116944
-0.0583666
0.000540325
0.0501611
0.0417753
0.000486823
-0.0501611
0.0165919
0.0390101
0.0744013
-0.127293
0.121013
0.074808
-0.176519
0.00602063
0.0265994
-0.0408239
0.0146708
0.0422561
0.0268423
-0.0566108
0.0874888
0.150525
0.262524
-0.482616
0.366644
0.245523
-0.506755
0.068387
-0.425226
-0.307311
0.66073
-0.20443
-0.303193
0.572591
-0.0154959
-0.0666253
-0.116142
0.195728
-0.174812
-0.114637
0.271417
0.0185622
-0.124488
-0.126944
0.226397
-0.123324
-0.125833
0.261247
8.35599e-06
0.00756608
5.07923e-05
-0.00937907
-0.0111726
4.79917e-05
0.00937907
0.138714
-0.0734462
0.0223287
0.0197701
-0.0458335
-0.0178074
-0.0246343
0.0248467
-0.0486518
0.019228
-0.0359993
-0.0130912
0.0337289
0.0314054
-0.0232212
0.0174031
-0.0352846
0.0180961
0.0519849
-0.0164762
0.0248696
-0.0392371
0.0186293
0.0136008
-0.0307302
-0.0157182
-0.0183001
0.00934956
-0.0207381
0.0136294
0.0089491
0.00703615
-0.0140001
-0.00851757
-0.0120388
-0.00690499
0.0143675
0.0118307
0.0291936
-0.00842625
0.0148682
-0.0211292
-0.0722271
-0.0192473
0.0574765
0.0590205
0.0861469
-0.0292938
0.0432686
-0.0707506
-0.158085
0.115694
-0.0652685
0.131555
0.22348
0.0977393
-0.113171
-0.176854
-0.0773873
-0.113372
0.102605
0.0583553
0.0577245
-0.0997171
0.0703682
-0.0482727
-0.216462
-0.0550523
0.143667
0.149054
0.0854857
-0.168934
0.12262
-0.0691031
-0.0745362
-0.136277
0.125786
0.0566457
-0.0580042
0.0494579
-0.0481275
0.0384077
-0.0380575
-0.0199243
0.0378832
0.0319497
0.286769
0.0202979
-0.186039
-0.106377
0.249046
-0.000251242
-0.12624
-0.116312
-0.312873
-0.291286
0.349295
0.240848
0.261777
0.105317
-0.18146
-0.169209
-0.230571
-0.0474396
0.159097
0.138334
0.138932
0.162593
-0.203595
-0.115901
-0.11903
-0.117567
0.148353
0.0672789
-0.141085
-0.127051
0.152654
0.0962352
-0.156579
0.247199
-0.24769
0.145987
0.407548
0.225868
-0.294251
-0.320813
-0.185118
-0.128658
0.169956
0.1278
0.232755
-0.299137
0.239465
-0.186022
-0.207983
0.130796
-0.0110386
0.0971993
0.200057
0.137633
-0.240248
-0.113212
0.0694911
-0.12519
0.104489
-0.0699524
-0.0658651
-0.0261723
0.0571308
0.0523392
0.187255
-0.178415
0.0383325
-0.0468409
0.225637
0.120347
-0.166395
-0.169602
-0.252468
-0.0436549
0.182515
0.113317
-0.246239
-0.18567
0.238571
0.185053
0.0930002
-0.0494119
0.00704056
-0.0455415
-0.149151
-0.111035
0.142641
0.104429
-0.329545
0.265279
-0.177157
0.257658
-0.23564
-0.0339018
0.158493
0.115138
-0.187526
-0.0694263
0.133916
0.141791
-0.165517
0.113784
0.151737
-0.115373
0.048091
-0.0674588
0.038677
-0.0332376
0.0389879
0.0231931
-0.0430424
-0.0277451
-0.018298
0.0214978
-0.0197721
0.0177507
0.185173
-0.223756
0.189679
-0.163042
-0.144715
0.12583
-0.0908063
0.121168
0.0696596
-0.111841
0.0946842
-0.0699859
0.0331953
0.013732
-0.0472593
-0.00873065
-0.0308019
0.0313464
-0.0130538
0.00812408
-0.00411569
-0.0122505
0.00708319
-1.94553e-19
0.00150869
0.000277773
9.72764e-20
-0.000385005
-0.00140145
4.55106e-14
-7.60544e-15
0.00704593
-0.0156236
0.00924472
0.0400294
-0.0727214
0.052813
-0.0377829
-0.0509351
0.0479198
-0.0467134
0.0370757
2.0746e-13
0.00424366
0.00681764
-2.85358e-14
-8.22411e-14
0.00269591
0.0019317
4.58507e-14
-0.00755895
-9.67404e-05
0.00534643
0.00416796
-0.0181322
-0.0058007
0.00635818
0.00865919
-0.00677175
-0.000134175
-0.00425864
0.00378964
0.00755895
-0.000112377
0.00335526
-0.00416759
0.00677218
-9.64875e-05
-0.00487449
-0.00378964
-3.48837e-05
-0.00627676
-0.00487883
4.46157e-06
-2.99799e-07
0.00873644
0.0065221
2.50764e-06
3.10954e-06
0.00868114
0.0124968
-2.4097e-07
-0.00950234
-0.0113954
5.36008e-06
-2.51286e-05
-0.178028
-0.0476488
0.119639
0.130273
0.0463948
0.0441134
-0.0812936
-0.0275883
-0.0877943
0.0696371
0.157424
-0.116664
-0.35202
0.269159
-0.161388
0.251002
0.130978
-0.145218
0.0438512
-0.0343173
-0.0303882
-0.0225393
0.0243653
0.0168827
0.166023
-0.148855
0.107979
-0.12496
0.0378064
-0.0388614
0.0159797
-0.0257348
0.0777951
-0.0462172
0.00600289
-0.035123
-0.139302
0.125376
-0.0903526
0.0974941
-3.92732e-05
-0.0137259
-0.0123107
3.83508e-06
4.80127e-06
-0.0148666
-0.0165668
-3.18494e-05
-0.00210874
0.0143345
0.00676888
-0.00224351
0.141036
0.0653569
-0.0715019
-0.105949
-0.0869856
0.0529324
0.0512228
-0.03921
-0.0513311
-0.0747415
0.0634383
0.0375594
-0.124749
0.10009
-0.051909
0.103809
-0.122384
-0.0314525
0.121012
0.0320889
0.176882
-0.24455
0.27309
-0.202442
0.0404639
-0.00920585
0.00470512
-0.0200921
-0.114025
-0.0849503
0.108354
0.0956226
-0.0849136
-0.00493502
0.0629325
0.0477073
-0.0222248
0.0261739
-0.0477196
0.0172292
0.024588
0.0263247
-0.0618869
-0.0196463
-0.0444236
-0.0032216
0.0330305
0.0201446
0.0616718
0.0805473
-0.0935461
-0.0620992
0.172712
-0.0794081
-0.284766
0.203724
0.0480139
-0.0997998
0.0645224
-0.0387467
-0.0519232
-0.101754
0.0809687
0.0418514
0.0822171
-0.133708
0.090382
-0.0614105
-0.230385
0.156529
-0.0773343
0.173537
-0.112981
0.111432
-0.0816203
0.0609907
0.127826
-0.154271
0.255967
-0.203153
0.103807
-0.109684
-0.0784789
-0.201015
0.154583
-0.0861605
0.140553
-0.179552
0.125867
0.114891
-0.0818423
0.0761271
-0.0622189
0.0412316
-0.0555188
0.047732
0.00735782
-0.0127619
-0.0249245
0.21588
0.084242
-0.135279
-0.15714
-0.0777531
-0.0638147
0.0645421
0.133612
0.0846835
-0.111591
-0.105185
-0.119146
-0.130006
0.144023
0.0881311
-0.0351576
-0.0295018
0.0365771
0.0349139
-0.0320142
0.0175428
0.016509
0.0382468
0.00610577
-0.0122497
-0.0187077
-0.154621
-0.193317
0.21152
0.117433
-0.0300056
-0.0144518
0.0130407
0.0151261
-0.297121
-0.224014
0.290985
0.229886
-0.0269291
-0.00469325
0.0131879
0.0124022
0.155963
-0.221539
0.164025
-0.117437
-0.0368415
0.0172977
-0.0102414
0.0187315
-0.0244265
0.0429486
-0.000347888
-0.00772321
-0.344833
-0.209471
0.296575
0.267081
0.344445
-0.333967
0.261423
-0.273524
-0.222004
-0.0501237
0.149873
0.136004
0.0593455
0.0313192
-0.0742725
-0.0268286
-0.0608264
0.0584371
-0.0336784
0.0274973
0.157146
-0.06599
0.0141797
-0.0973571
0.065267
0.0513147
-0.0930916
-0.0360669
-0.0964679
-0.0366996
0.0789585
0.0456292
-0.000727991
0.0965903
-0.166567
0.0807558
0.171211
-0.0823401
0.0033809
-0.0830075
0.104745
-0.148259
0.0865841
-0.0686165
-0.0746682
0.100366
-0.103225
0.0565323
-0.0127277
-0.0145272
6.02058e-14
-2.88812e-13
-5.59976e-14
-0.0124723
-0.0106889
-7.86425e-13
-0.106085
-0.00212542
0.0584222
0.0537469
0.0718065
-0.048099
0.0146963
-0.0365056
0.401506
-0.327561
0.254544
-0.318987
-0.234938
0.234257
-0.139129
0.135456
0.0800855
-0.0273145
0.037948
-0.0645324
-0.0838196
-0.0208427
0.0625417
0.0698205
0.0468783
-0.0855201
0.0523849
-0.0355473
-0.0868379
0.0729239
-0.0547252
0.0434508
0.0562414
0.0262129
-0.0773618
-0.0147806
0.0887314
-0.0553111
0.00153944
-0.0221725
0.0473056
0.0565155
-0.0824974
-0.0394042
0.00240136
-0.0529968
0.11647
-0.0564678
-0.0220185
-0.0066427
0.0214671
0.0141191
0.0725847
-0.000467431
-0.119772
0.0580685
-0.107854
0.0722895
-0.00171536
0.047562
-0.0867806
-0.0153729
0.0602338
0.0652802
-0.0521575
-0.002882
0.0513841
0.0130232
-0.0273164
0.0306763
0.0770478
-0.0584371
-0.0213756
0.0117381
-0.0191197
0.0134603
0.053184
0.0142475
-0.0537537
-0.0136399
-0.0547335
0.059098
-0.0240434
0.0144345
-0.0898784
0.0818275
-0.0101987
0.0231802
-0.00862403
0.0353431
-0.0450814
0.0282493
-0.163054
-0.00834311
0.0902917
0.0976927
-0.0692175
0.0775055
-0.0582117
0.039917
0.0807283
-0.0305058
0.0156132
-0.045015
0.14372
-0.000179517
-0.0686887
-0.0633529
0.0245796
-0.0417997
-0.0240884
0.0178404
0.0218754
0.016072
-0.0417936
-0.016749
0.0640738
-0.0220476
0.0245097
-0.0493946
-0.0163961
0.0587058
-0.0859968
0.0677801
0.0227108
0.0218115
-0.0506788
-0.0179028
-0.0449448
0.0243888
-0.00641503
0.0262645
-0.0245392
0.0271795
-0.0526309
0.0193477
0.0157774
-0.00411399
0.00233365
-0.00672314
0.0242456
0.0204111
-0.0517364
-0.0178835
-0.023325
0.0203496
-0.0329888
0.0199006
-0.1789
0.143037
-0.0805313
0.132491
-0.0606807
-0.0105992
0.0471324
0.0381864
0.144315
0.104546
-0.116186
-0.121598
-0.0176285
-0.00216403
0.0140637
0.0101603
-0.0697592
0.0849398
-0.0909617
0.0482114
0.019908
0.0095964
-0.0305546
-0.012559
0.0551304
0.0153083
-0.0210879
-0.0352756
-0.245143
0.184938
-0.0672127
0.1372
0.072841
-0.101141
0.057099
-0.0471444
0.0441861
-0.0268072
-0.0503321
0.0469452
0.0634342
-0.090812
0.0596921
-0.0445542
0.0398598
-0.0687911
0.052845
-0.0402798
-0.070383
0.0599509
-0.0341665
0.060951
-0.0416811
0.039631
-0.0365913
0.057845
0.0245702
-0.0400102
-0.0862839
-0.0293652
0.061309
0.0307907
-0.0313947
0.0271593
0.223053
0.0521338
-0.141908
-0.122332
-0.0618208
0.0592978
-0.0395131
0.0620598
-0.0228048
0.0137047
-0.0184394
0.0142417
-0.253101
0.184363
0.196574
-0.144339
-0.343007
0.269995
-0.173886
0.264874
0.104118
0.106395
-0.120495
-0.0962013
-0.244823
-0.240955
0.310055
0.159749
0.15592
0.0447491
-0.0804319
-0.10575
-0.230326
-0.0898244
0.17299
0.138945
0.354894
-0.318365
-0.0718206
0.0455484
0.107483
0.0312012
-0.046623
-0.0750292
-0.0692899
-0.0736324
0.0729766
0.0484504
-0.133862
0.101758
-0.0638486
0.117624
-0.0291143
-0.00698883
0.0250705
0.0211186
0.0120533
-0.0101358
0.0121588
-0.0119511
-0.00895438
0.00849598
-0.0100008
0.00839872
-0.0776115
0.0511543
-0.0310026
0.0523358
0.0187324
0.00764449
-0.0244804
-0.0136318
0.0558067
-0.0231188
0.00752163
-0.035326
0.269991
-0.163866
-0.353689
0.258806
-0.091122
-0.0129466
0.058419
0.0533031
-0.170399
0.109598
-0.0566818
0.135468
-0.0985415
-0.0780715
0.10191
0.0584701
0.138911
0.0501602
-0.0711484
-0.0951727
0.139988
-0.0990848
0.0304512
-0.0706767
-0.116256
-0.0438982
0.0810037
0.0928634
-0.129204
-0.120217
0.13708
0.109132
0.120636
-0.177839
0.142058
-0.101633
-0.277792
0.172379
-0.066249
0.174255
0.349866
0.224962
-0.32534
-0.252627
-0.0927123
0.0651718
-0.0444449
0.0622472
0.39977
0.220835
-0.284264
-0.316765
-0.172857
0.148749
-0.103064
0.127638
-0.203576
-0.184761
0.22314
0.150262
0.213188
0.16144
-0.177371
-0.000357225
0.0838429
-0.0977621
0.0249779
0.18876
0.0735243
-0.0955257
-0.141786
0.394838
0.171275
-0.269188
-0.287092
0.26221
0.0291504
-0.121065
-0.164422
0.0923456
-0.108281
0.0541914
-0.0530033
0.122344
-0.171545
0.0690253
-0.0321376
-0.261774
-0.164815
0.219096
0.213265
-0.166368
0.1797
-0.148722
0.113601
0.0750889
-0.125896
0.252886
-0.180206
-0.21583
-0.181884
0.229978
0.151459
-0.114606
0.0679727
0.204385
-0.143349
0.129762
-0.150696
0.1086
-0.0957248
-0.238776
0.159281
-0.0512572
0.146205
0.298662
0.22436
-0.284422
-0.235932
-0.081337
0.0698338
-0.0533346
0.0508019
0.275881
0.0966243
-0.180856
-0.176241
0.0506395
-0.0353333
0.0269467
-0.0394312
-0.0870355
-0.0211407
0.0577986
0.0593789
-0.0424977
0.0292941
-0.00589648
0.0297137
-1.10475e-12
0.00733474
0.0103099
1.23234e-12
0.00109841
-0.00499694
-0.0107649
-0.000362549
-0.0521339
0.00684214
0.123877
-0.0661904
0.000549736
0.00910865
-0.00442358
2.0713e-12
0.00583102
0.00445289
-1.22921e-12
-0.148088
0.0900477
-0.0308063
0.109276
-0.000772769
-0.00699941
-0.0035385
-0.000918929
0.000341614
-0.00300955
-0.0047504
0.000169321
-4.25442e-06
0.00966818
0.0141432
3.49665e-07
0.0409544
-0.0677339
0.164362
-0.115814
0.094814
0.000765002
-0.0569833
-0.0237372
0.0503449
0.0364904
-0.0705601
-0.0339152
-0.0317224
-0.0298109
0.0354117
0.0230379
0.0826132
-0.0607519
0.0341671
-0.049009
-0.0708643
0.0672271
-0.00189996
0.0177412
-0.0460821
0.0472706
-0.0429521
0.030718
0.0367068
-0.0526874
0.022251
-0.0179738
4.43781e-07
0.0112021
0.00821361
-3.51852e-06
-9.93404e-13
0.00275836
0.00440681
3.42642e-13
0.0263491
-0.0200969
0.00814985
-0.0169708
0.0271281
-0.0128597
0.00468122
-0.00967115
-0.03156
0.0234636
-0.00703842
0.0177562
-0.0182148
0.00855639
-0.00693906
0.010121
-0.109164
0.0966899
-0.0627069
0.0973926
-0.147536
0.276867
-0.00479776
-0.14432
0.230354
0.165754
-0.261819
-0.144419
0.152344
-0.105885
0.00301933
-0.0391584
-0.18671
-0.144378
0.193707
0.118854
-0.317795
0.261908
0.249221
-0.0718925
0.0249748
0.0489494
-0.0122547
-0.0611226
-0.0333028
0.0465934
0.0353802
0.0911775
-0.0349601
0.0189034
-0.0587155
0.323934
-0.258564
0.198086
-0.258431
-0.130927
-0.073697
0.158724
0.0343693
0.142065
-0.196435
0.0787571
-0.0362713
-0.192603
0.0976093
0.202121
-0.110971
-0.392434
0.342624
-0.250582
0.306235
0.366248
-0.267743
0.130742
-0.217762
-0.133182
0.113432
-0.000861797
0.033775
0.208464
0.0838523
-0.114733
-0.15009
0.0584772
0.0777061
-0.0928408
-0.0575018
-0.0375182
0.07137
-0.0624783
0.0156418
0.138686
0.0319594
-0.0699421
-0.0869935
-0.149388
-0.0295726
0.142374
0.0382016
0.119218
-0.244106
0.284317
-0.160708
-0.103039
-0.0657725
0.0913494
0.0636537
-0.144776
-0.0774294
0.175357
0.0369677
0.175883
0.000864456
-0.117429
-0.0446764
0.102439
-0.0725743
0.0315275
-0.0554539
-0.163747
0.149825
-0.11546
0.117907
0.0484996
0.0591539
-0.0688597
-0.0482048
-0.0524464
-0.0336419
0.0465522
0.0488799
-0.275915
0.24416
-0.0351908
0.0717468
0.235596
-0.242184
0.136725
-0.134835
-0.167262
0.0428087
0.164046
-0.0419091
0.14238
-0.117266
-0.115738
-0.340236
-0.0553848
0.247482
0.154764
0.270006
0.0535993
-0.251957
-0.0702097
-0.138605
0.115349
-0.0815274
0.101282
0.0862446
-0.0581676
0.0344483
-0.0600445
-0.140142
-0.159976
0.173072
0.113045
-0.104787
-0.243292
0.185026
-0.284347
0.227133
-0.105953
0.171633
0.157791
-0.218874
0.169986
-0.126958
0.261774
-0.199424
-0.2697
0.194393
0.308933
-0.210944
0.153781
-0.23508
-0.231039
0.165639
0.2941
-0.228827
-0.384553
0.267586
-0.159057
0.276638
-0.183084
0.197155
-0.164153
0.132715
0.246326
-0.168994
0.105938
-0.178585
-0.143221
-0.19599
0.208296
0.109839
0.248608
0.0250665
-0.144306
-0.12096
-0.217892
-0.150938
0.223549
0.137467
0.0952566
-0.0372368
0.0203344
-0.0639565
0.217135
0.172894
-0.233614
-0.169407
-0.209338
-0.117019
0.170954
0.170507
-0.232162
-0.123821
0.177865
0.179822
0.15445
-0.245133
0.321214
-0.232172
0.235546
-0.0173873
-0.280059
0.0717211
0.124331
0.150429
-0.180529
-0.113319
-0.0879452
0.0666033
-0.0435932
0.0555144
-0.0992533
0.151436
-0.198155
0.153463
0.161667
-0.257515
0.201471
-0.129517
-0.103278
-0.0410489
0.0844888
0.0694742
0.109163
0.0535863
-0.108084
-0.0640228
0.273183
0.0333289
-0.22982
-0.0699612
0.105274
0.329812
-0.237338
0.150749
-0.242142
0.37275
-0.263613
-0.147293
-0.204942
0.210052
0.112017
-0.299187
0.185823
0.22721
0.194932
0.0757971
-0.107678
-0.13484
0.163198
0.0831753
-0.215826
-0.0416588
-0.335982
0.226761
-0.124568
0.250636
0.113904
-0.191626
0.147617
-0.0926691
0.223436
0.0848951
-0.128071
-0.154536
-0.149086
-0.158464
0.17751
0.107759
-0.254739
-0.0329055
0.169215
0.123433
-0.0521177
-0.0338653
0.042894
0.0301369
-0.0989891
0.0900047
-0.0526226
0.0823027
0.176809
-0.0762935
-0.293037
0.206482
0.105055
-0.134812
0.0933877
-0.078477
0.107358
-0.17032
0.139429
-0.0979641
-0.117507
0.1019
-0.0610396
0.0977324
-0.138923
-0.0284945
0.0990261
0.0673215
-0.136626
-0.0407133
0.0916337
0.0865005
0.180829
0.101772
-0.175631
-0.108239
0.0556143
-0.0302375
0.00837415
-0.0284011
0.0380161
-0.0142202
-0.0630193
0.0350164
0.0944382
-0.152831
0.265527
-0.195936
-0.12275
0.132029
-0.119748
0.0962697
0.0623304
-0.0659141
0.0162238
-0.0155881
-0.149291
0.125951
-0.080296
0.108068
-0.0887088
-0.0615172
0.0886544
0.0578758
0.0519718
-0.0316209
0.0158428
-0.0332546
-0.0488549
-0.0103749
0.0488056
0.0122141
0.0894897
0.0870762
-0.0980526
-0.0813895
-0.463475
0.384621
0.00139985
0.00273337
0.00191515
-0.16921
-0.0949964
-0.00474734
0.119631
0.0186978
-0.307716
-0.00199638
-0.116111
0.106392
-0.0789408
-0.0179492
0.00830595
-0.00632574
0.11664
0.00652298
-0.0661921
0.0112255
0.0117226
-0.013232
0.0656681
0.0146811
0.00662967
0.0143909
-0.0921747
0.0551831
-0.464644
-0.0229766
-0.0419611
0.000836357
-0.0146565
0.000250028
0.367323
-0.405287
-0.0177818
-0.019698
-0.0685211
0.457908
0.0805033
-0.0342261
-0.0757272
0.0217127
-0.0401022
0.0167101
0.0214731
-0.0512337
-0.02009
0.0576794
-0.0309525
0.0608432
-0.015537
0.0243812
-0.0262702
-0.0106909
0.0307925
0.0259087
0.0143134
-0.0256087
0.0131687
0.0137585
-0.0338743
-0.0167637
-0.0882851
0.0421353
-0.0252107
-0.225075
0.182979
0.0818807
0.0855635
-0.112194
-0.161727
-0.109198
0.153977
-0.161357
0.158126
-0.193517
-0.0830879
0.0694738
-0.0977659
-0.0526292
0.073386
-0.0775002
0.0411466
0.142144
-0.0741122
0.186497
-0.00379596
0.0104138
0.00866309
0.00462631
-0.0118989
-0.00805294
-0.0371635
0.0522332
-0.0644316
-0.0944852
0.0453883
0.0241053
0.0238917
-0.0332521
-0.0231441
0.125533
-0.138102
0.0674017
-0.150465
0.108417
-0.161918
-0.230437
0.201062
-0.121106
-0.160156
0.217102
-0.250386
0.222724
-0.205334
0.116429
-0.00531952
0.00862166
-0.006802
0.00498019
-0.00861952
0.00487293
0.0232952
-0.0215785
-0.0216614
0.33484
-0.282542
-0.351555
-0.258434
0.373527
-0.33515
-0.044727
0.0324897
-0.0267356
-0.0648558
0.0473706
0.044593
-0.262595
0.261622
0.287736
0.342557
-0.370961
0.238888
0.247976
-0.272143
0.298615
-0.0156812
0.0104042
-0.0112629
-0.163078
0.176202
-0.197493
-0.463754
0.458874
-0.322923
0.267247
-0.251817
-0.181937
0.00632158
0.00846193
-1.43059e-13
-0.0084252
-0.00701787
-0.000374194
0.00772898
0.00558791
2.15529e-07
0.0153323
0.0169742
0.000174585
-0.457194
0.45381
0.340086
-0.253011
0.247799
0.241422
-0.0274335
0.0859556
0.0648342
-0.345629
0.380539
-0.290613
-0.119013
0.124747
-0.156754
-0.016712
-0.0137338
-0.000566787
0.0244868
0.0150037
-0.000187361
-0.393972
0.309352
0.272913
-0.425098
0.541039
-0.369401
0.0744179
-0.0994145
0.13134
0.191182
-0.154165
0.135086
0.141969
-0.169843
-0.133258
0.118753
-0.0994263
-0.147027
0.101856
-0.141002
-0.0604112
-0.0526743
0.0413182
-0.0364546
0.0989748
-0.0714838
-0.115655
0.00372947
-0.00998026
-0.0048733
-0.00474509
0.0123989
0.006802
-0.0849725
0.0691029
0.0377159
-0.438926
0.454185
0.394595
-0.346346
0.388241
-0.284777
-0.0961742
0.104633
0.16988
-0.105096
0.0682251
-0.0434269
-0.0131624
-0.0146614
-3.45199e-06
-0.0498763
0.0436643
0.0752767
-0.0901651
0.0730096
0.037314
-0.140252
0.130084
-0.11383
-0.203275
0.189772
0.177184
0.385325
-0.356585
-0.366012
0.200574
-0.231008
-0.115097
-0.10918
0.110609
-0.105823
-0.149969
0.152296
-0.148338
-0.101801
0.0847876
0.102891
0.169297
-0.195823
0.113755
0.394537
-0.366003
0.394717
0.259508
-0.296051
-0.185361
-0.0612904
0.0674215
0.068795
-0.072211
0.0482245
-0.0549496
-0.105885
0.133249
0.107628
0.0826831
-0.0833817
0.038966
-0.039809
0.0486346
-0.0455573
0.0720567
-0.0650525
0.0413038
-0.204729
0.221725
0.287971
0.0453319
-0.0469652
-0.0432902
0.262218
-0.322155
0.378268
-0.0483943
0.0504208
0.0271656
0.128336
-0.105614
-0.166564
-0.150055
0.10371
0.052224
-0.0161812
-0.0147162
3.03116e-13
-0.0238738
0.0190352
-0.0215935
-0.111927
0.0730202
-0.0428426
0.166762
-0.196075
-0.0818913
-0.38762
0.407914
0.40808
0.15032
-0.16566
-0.0753208
-0.0794888
0.0388374
-0.023675
0.140739
-0.1906
0.0839347
-0.040298
0.0501907
-0.0315774
0.0638789
-0.0542662
0.0356275
-0.0882041
0.0821417
0.0398612
0.00501555
-0.00868709
0.0080566
-0.00530103
0.00856719
-0.00866158
0.134605
-0.174207
0.0679646
0.0738976
-0.0743935
0.0771887
0.112896
-0.0788363
-0.114022
-0.0716389
0.0631936
0.0606813
0.0679342
-0.0224606
0.0637947
-0.0924222
0.0439765
-0.0247241
0.0768552
-0.02362
0.0626874
-0.0794545
0.0975184
-0.0989628
-0.117642
0.133171
-0.174809
0.107925
-0.121058
0.141602
-0.0844083
0.0691491
-0.0499339
0.0268981
-0.0576085
-0.0204524
0.0290362
-0.0583371
0.0208047
-0.115085
0.142338
0.13012
0.0230125
-0.0118065
0.0206517
0.155141
-0.0929434
-0.128391
-0.120653
0.187643
-0.188691
-0.147784
0.143825
0.188227
0.135855
-0.165535
-0.0776168
-0.0252865
0.0573776
0.0589724
0.0262563
-0.0125494
-0.0180185
0.0532014
-0.0609654
0.033275
0.018101
-0.0432876
-0.0177308
-0.0717217
0.0333463
0.0250612
-0.0418855
0.0542577
-0.0424505
-0.0600421
0.0696333
0.0754698
-0.026417
0.0498846
-0.0582703
0.0300701
-0.013503
-0.0240171
0.0184646
-0.0327665
0.0168057
0.166657
-0.217372
0.079397
0.0501594
-0.0356216
-0.0616385
-0.0918529
0.0441318
0.0243125
0.0508948
-0.033789
-0.0718652
0.037541
-0.0404809
0.0235684
0.276355
-0.218728
0.268924
-0.0653378
0.033078
-0.0228718
-0.411154
0.430522
-0.398634
-0.0443618
0.0222983
0.0214629
0.0411872
-0.0181467
-0.0364103
0.0369952
-0.0342049
-0.0344317
-0.230805
0.29923
0.312132
0.078971
-0.0884661
-0.0751479
0.109292
-0.0811981
0.068198
0.08084
-0.100775
0.086962
0.0447444
-0.0325182
0.0265037
-0.0357922
0.0417601
0.065404
0.0755396
-0.0790155
-0.0711951
-0.172811
0.192379
-0.132505
0.149601
-0.164762
0.156874
-0.141241
0.15461
0.0852983
0.142437
-0.159214
-0.114358
0.225347
-0.174566
-0.221312
-0.0706388
0.0588674
-0.0827325
0.0623117
-0.0664322
0.0425701
0.00439508
0.00586926
-6.59635e-13
-0.0130212
-0.00712136
-0.000939518
0.0128745
0.0149559
3.85391e-06
-0.031676
0.0275958
0.0260747
-0.0044759
-0.00577085
0.000457062
0.00811798
0.0111189
8.61226e-13
0.0148417
0.014237
-0.000533163
0.0101818
0.00718188
-3.19235e-07
-0.0134811
-0.00819652
0.00076562
-0.140325
0.117809
-0.0810572
-0.0378795
0.0223068
-0.0204112
0.0921846
-0.14831
0.0511929
0.0065231
0.00504892
3.98992e-13
0.0475788
-0.0297878
-0.0375247
0.0347042
-0.0285338
0.0401326
0.270908
-0.280819
0.212944
0.271872
-0.288229
-0.216175
-0.213035
0.171176
0.158739
0.125675
-0.13067
-0.0923957
0.076059
-0.0447849
0.0962435
0.0588439
-0.0723535
-0.0982299
-0.220961
0.266237
-0.170689
0.0693257
-0.0449478
0.0896925
0.0486355
-0.06456
-0.0704404
0.129218
-0.130016
0.17408
0.186608
-0.176972
-0.219057
0.336334
-0.344643
-0.210185
-0.200284
0.18408
-0.23599
0.194618
-0.256582
-0.233174
0.291255
-0.218513
0.226583
0.254628
-0.301363
-0.270662
0.391802
-0.437254
0.248691
-0.278223
0.224327
-0.277631
-0.106286
0.159779
0.182223
-0.109861
0.122399
0.162233
0.125562
-0.0987938
0.190527
0.129735
-0.15746
-0.0940601
0.0903994
-0.056565
0.125205
0.0689029
-0.0916646
-0.125615
-0.396833
0.437351
-0.287967
-0.200377
0.14601
0.267843
0.241421
-0.243176
-0.318575
-0.443361
0.454269
-0.278608
-0.299628
0.332741
-0.302863
0.457638
-0.453205
0.335438
-0.231115
0.215696
0.113966
-0.336934
0.313292
-0.177363
0.0404683
-0.0442909
-0.0438956
0.0563151
-0.0459552
-0.0531077
0.258704
-0.249936
-0.276365
-0.434206
0.36477
0.290712
0.0774217
-0.0804684
0.0919392
0.139043
-0.0990588
0.0998878
0.124953
-0.13947
-0.127036
-0.190466
0.183874
-0.169007
0.10961
-0.140849
0.14764
-0.192239
0.230605
-0.182953
0.174045
-0.201057
-0.127683
0.357794
-0.281644
-0.338623
0.369066
-0.360502
0.398195
0.262318
-0.351509
0.366422
-0.208425
0.160684
-0.113581
-0.197462
0.205889
0.129629
0.305127
-0.309156
-0.227467
0.35136
-0.311701
-0.209715
-0.314497
0.355309
-0.366935
0.318518
-0.352623
0.157321
0.310364
-0.305056
0.322927
0.157077
-0.17524
0.100546
0.298505
-0.330397
-0.154783
-0.186128
0.138163
-0.180783
-0.157873
0.196328
0.211983
0.254723
-0.227967
-0.284878
0.234813
-0.199836
0.165626
0.178644
-0.217418
-0.159538
-0.15378
0.178272
-0.208805
0.195902
-0.229749
0.11238
-0.15567
0.171021
0.217075
-0.10495
0.0942976
0.136199
0.15493
-0.145262
0.0889891
0.399188
-0.257026
-0.380104
0.0772585
-0.0761753
-0.0837832
0.155043
-0.14968
-0.113837
0.149153
-0.145923
0.0860625
0.0602481
-0.0634603
-0.0701468
0.13326
-0.132241
-0.085383
0.29159
-0.385473
0.38423
-0.414681
0.338851
0.20849
-0.253424
0.268286
-0.318804
-0.12105
0.0929446
0.0833432
-0.125437
0.135048
-0.152601
-0.130492
0.124169
-0.0908995
-0.185786
0.193901
0.248765
-0.291284
0.292929
-0.181089
-0.0599159
0.055179
-0.0400185
0.0938383
-0.0735081
0.0643244
-0.0854126
0.071705
0.0712475
-0.143288
0.145574
0.0769368
0.0667302
-0.0747897
-0.0831626
0.207531
-0.243932
0.213752
0.239988
-0.171918
-0.209939
-0.169541
0.175116
-0.137733
-0.106231
0.0766913
0.101496
-0.347668
0.257806
-0.121419
0.427043
-0.60931
0.10971
0.100665
-0.212275
0.0725931
0.0500794
-0.0480581
-0.331106
0.420516
0.142234
0.216402
-0.155122
0.0745615
-0.0464672
0.0863831
0.0391355
-4.83269e-15
-0.00609647
0.0149444
0.00609647
0.0027515
-2.71857e-14
-4.17348e-15
0.0130287
4.57548e-14
0.000835744
0.342716
0.339174
-0.568444
0.0614896
-0.0806722
-0.0423431
0.0318518
-0.0581753
0.0596028
-0.0837908
0.0321046
-0.0367266
-0.156894
-0.158851
0.397728
0.0908286
0.192587
0.318681
-0.189626
0.0235293
-0.0663909
0.0960546
-0.0307527
-0.00695281
0.0933862
-0.393404
-0.204475
0.41024
-0.168045
0.0024745
-0.340925
-0.00294715
0.152772
0.225618
-0.119236
-0.282263
-0.331148
-0.16587
0.0723803
-0.0562222
-0.0184316
-0.210358
-0.485694
0.479865
-0.472201
0.0338502
0.256949
-0.205499
-0.0291324
-0.415895
-0.233795
0.186241
-0.390156
0.0234127
-0.479547
0.491627
0.215663
-0.0558907
0.108577
-0.0984708
0.014599
-0.0993827
0.0534914
0.194369
0.262628
-0.283242
-0.152658
0.3228
0.0498126
0.179658
-0.0574475
0.168454
0.42441