/*--------------------------------*- C++ -*----------------------------------*\
  =========                 |
  \\      /  F ield         | OpenFOAM: The Open Source CFD Toolbox
   \\    /   O peration     | Website:  https://openfoam.org
    \\  /    A nd           | Version:  6
     \\/     M anipulation  |
\*---------------------------------------------------------------------------*/
FoamFile
{
    version     2.0;
    format      ascii;
    class       surfaceScalarField;
    location    "2.24";
    object      meshPhi;
}
// * * * * * * * * * * * * * * * * * * * * * * * * * * * * * * * * * * * * * //

dimensions      [0 3 -1 0 0 0 0];

internalField   nonuniform List<scalar> 
8193
(
-0.0010564
0.00244438
0.000447945
-0.00141149
0.00465412
-0.00155629
0.00667833
-0.00153819
0.00848576
-0.00140481
0.0100494
-0.00120071
0.0113469
-0.000964762
0.0123614
-0.000728506
0.0130814
-0.000515277
0.0135014
-0.000340123
0.0136219
-0.000210341
0.013449
-0.000126476
0.012994
-8.36333e-05
0.0122733
-7.29398e-05
0.0113074
-8.30369e-05
0.0101204
-0.000101495
0.00873929
-0.000116089
0.00719347
-0.000115876
0.00551396
-9.20772e-05
0.00373305
-3.87314e-05
0.00188385
4.6859e-05
-9.97601e-15
0.000163892
-0.0018846
0.000308033
-0.00373602
0.000471597
-0.00552056
0.000643931
-0.00720495
0.000812028
-0.00875674
0.00096136
-0.0101447
0.00107694
-0.0113391
0.00114458
-0.0123127
0.00115232
-0.013041
0.00109194
-0.0135031
0.000960507
-0.0136823
0.000761705
-0.0135668
0.000506996
-0.0131501
0.000216257
-0.0124314
-8.21567e-05
-0.0114159
-0.000352083
-0.0101146
-0.000551062
-0.00854423
-0.000632701
-0.00672699
-0.000549841
-0.00468983
-0.00246405
-0.000258375
-0.0034594
0.00664157
0.00201249
-0.00425008
0.0104672
-0.00450889
0.0140065
-0.0043656
0.0172036
-0.00394612
0.0200047
-0.00336496
0.0223606
-0.0027198
0.0242289
-0.00208806
0.0255759
-0.00152559
0.0263784
-0.00106703
0.0266247
-0.000727609
0.0263153
-0.000505934
0.0254622
-0.000387455
0.0240893
-0.000348181
0.0222303
-0.000358402
0.0199282
-0.000386174
0.0172337
-0.000400419
0.0142033
-0.000373546
0.0108986
-0.000283553
0.00738453
-0.000115607
0.00372866
0.000136887
1.58819e-20
0.000471712
-0.00373159
0.000877752
-0.00739615
0.00133539
-0.0109243
0.00181741
-0.0142482
0.00229045
-0.017302
0.00271698
-0.0200235
0.00305783
-0.0223549
0.00327528
-0.0242446
0.00333656
-0.0256482
0.0032176
-0.0265304
0.00290696
-0.0268661
0.00240946
-0.0266415
0.00174922
-0.0258547
0.000971866
-0.024516
0.000145279
-0.0226471
-0.000641285
-0.0202805
-0.00128004
-0.0174576
-0.00164962
-0.0142271
-0.00162201
-0.0106422
-0.00675897
-0.00107135
-0.00640896
0.0119471
0.00465583
-0.0072616
0.0169393
-0.00740261
0.0216189
-0.00702033
0.0259034
-0.0062915
0.0297081
-0.00537262
0.0329507
-0.00439402
0.0355558
-0.00345658
0.0374596
-0.002631
0.0386129
-0.00195903
0.0389844
-0.00145653
0.0385615
-0.00111753
0.0373511
-0.000919112
0.0353788
-0.000826406
0.0326877
-0.000797596
0.0293362
-0.000788493
0.025396
-0.000756578
0.0209495
-0.000664395
0.0160874
-0.000482266
0.010907
-0.000190324
0.00550966
0.000220106
-1.03631e-14
0.000745754
-0.00551606
0.00137126
-0.0109324
0.00206967
-0.0161439
0.00280353
-0.021048
0.00352672
-0.0255462
0.00418697
-0.0295459
0.00472911
-0.0329626
0.00509907
-0.0357223
0.00524844
-0.0377637
0.00513956
-0.0390408
0.00475073
-0.0395248
0.00408137
-0.0392055
0.00315652
-0.0380923
0.00203031
-0.0362134
0.00078787
-0.0336149
-0.000454742
-0.030358
-0.00155307
-0.0265158
-0.00233941
-0.022169
-0.00263057
-0.0174012
-0.0122945
-0.00223819
-0.00960402
0.0178478
0.007913
-0.010292
0.0236942
-0.010204
0.0292546
-0.00955925
0.0344157
-0.00855787
0.0390571
-0.00737342
0.0430589
-0.00614765
0.0463083
-0.00498814
0.0487069
-0.00396836
0.0501761
-0.00312981
0.050661
-0.00248579
0.0501331
-0.0020262
0.0485909
-0.00172294
0.0460596
-0.00153552
0.042589
-0.00141646
0.0382511
-0.0013162
0.0331365
-0.00118747
0.0273516
-0.000988872
0.0210148
-0.000687794
0.0142538
-0.000262569
0.00720271
0.000296048
0
0.000984051
-0.00721376
0.001784
-0.0142977
0.00266549
-0.0211123
0.00358628
-0.0275219
0.00449417
-0.0333965
0.00532962
-0.0386147
0.00602921
-0.0430668
0.00652983
-0.0466581
0.00677364
-0.049312
0.00671356
-0.0509738
0.00631905
-0.0516132
0.0055819
-0.0512262
0.0045215
-0.0498358
0.00318919
-0.0474915
0.00167113
-0.0442671
8.92208e-05
-0.0402562
-0.00140041
-0.0355676
-0.00261147
-0.0303182
-0.00333447
-0.0246264
-0.0186043
-0.00334624
-0.0128807
0.0239728
0.0114519
-0.0133113
0.0304717
-0.0129815
0.0367399
-0.0121149
0.0426298
-0.0109121
0.0479829
-0.00954454
0.05264
-0.0081504
0.0564502
-0.00683316
0.0592802
-0.00566244
0.0610214
-0.00467647
0.0615955
-0.00388609
0.0609576
-0.00327963
0.0590974
-0.00282821
0.0560389
-0.00249126
0.0518374
-0.00222173
0.0465768
-0.00197083
0.0403652
-0.00169224
0.0333307
-0.00134555
0.0256173
-0.000899096
0.0173806
-0.000331993
0.00878497
0.000364375
-1.06483e-14
0.00118554
-0.0088017
0.00211375
-0.0174471
0.00311831
-0.025765
0.00415669
-0.0335889
0.00517621
-0.0407598
0.00611649
-0.0471295
0.00691276
-0.0525651
0.00749986
-0.0569525
0.00781695
-0.0602014
0.00781287
-0.0622492
0.00745181
-0.0630645
0.00671905
-0.0626496
0.0056263
-0.0610416
0.00421639
-0.0583108
0.00256658
-0.0545584
0.000790262
-0.0499108
-0.000963509
-0.0445128
-0.00251276
-0.038519
-0.00364793
-0.0320841
-0.0253537
-0.00413959
-0.0162272
0.0300775
0.0151156
-0.0164111
0.0371035
-0.0158915
0.0439609
-0.0148766
0.0504673
-0.0135512
0.0564272
-0.0120723
0.0616435
-0.0105659
0.06593
-0.00912623
0.0691209
-0.00781691
0.0710803
-0.0066733
0.0717086
-0.00570616
0.0709461
-0.00490602
0.0687746
-0.00424803
0.0652167
-0.0036968
0.060333
-0.00321102
0.054218
-0.00274782
0.0469953
-0.00226641
0.0388124
-0.00173125
0.029836
-0.00111455
0.0202467
-0.000398213
0.0102355
0.000424879
2.14922e-14
0.00135004
-0.0102588
0.00236053
-0.0203391
0.00342789
-0.0300416
0.00451275
-0.0391722
0.00556641
-0.0475457
0.0065329
-0.0549902
0.00735192
-0.0613514
0.00796237
-0.0664981
0.00830653
-0.070327
0.00833487
-0.0727682
0.00801108
-0.073789
0.0073173
-0.073397
0.00625903
-0.0716414
0.00486947
-0.0686111
0.00321287
-0.0644321
0.00138645
-0.0592606
-0.000479317
-0.0532749
-0.00222241
-0.0466648
-0.00365292
-0.0396208
-0.0323221
-0.00455887
-0.0197744
0.0360082
0.0189332
-0.0197826
0.0434768
-0.0191526
0.0508308
-0.0180646
0.0578553
-0.016679
0.0643214
-0.0151326
0.0699994
-0.0135364
0.074672
-0.0119747
0.0781459
-0.0105065
0.0802622
-0.00916683
0.0809031
-0.0079699
0.0799968
-0.00691271
0.0775187
-0.00597891
0.0734906
-0.00514278
0.0679777
-0.00437312
0.0610839
-0.00363687
0.0529461
-0.00290217
0.0437288
-0.00214116
0.0336178
-0.00133204
0.0228155
-0.000460826
0.0115358
0.000477476
-3.17637e-20
0.00147815
-0.0115663
0.0025265
-0.0229368
0.00359802
-0.0338877
0.00465911
-0.0442013
0.0056683
-0.0536698
0.006578
-0.0621005
0.00733694
-0.0693207
0.00789306
-0.0751838
0.00819708
-0.0795751
0.00820642
-0.0824176
0.00788941
-0.0836768
0.00722964
-0.0833642
0.00623003
-0.0815383
0.0049165
-0.0783035
0.00334073
-0.0738059
0.00158201
-0.068227
-0.00025238
-0.0617734
-0.00202814
-0.0546658
-0.00358652
-0.0471262
-0.0393649
-0.00474836
-0.0237625
0.0416559
0.0230967
-0.0236813
0.0494959
-0.023011
0.0572589
-0.0218996
0.0647029
-0.0204809
0.0715717
-0.0188714
0.0776089
-0.0171685
0.0825725
-0.0154493
0.0862475
-0.0137711
0.0884564
-0.0121724
0.0890677
-0.0106749
0.0879998
-0.00928577
0.0852234
-0.00800099
0.08076
-0.00680793
0.0746788
-0.0056886
0.0670914
-0.00462241
0.0581459
-0.00358872
0.0480206
-0.00256907
0.0369174
-0.00154898
0.0250564
-0.000519414
0.0126702
0.000522195
-1.08537e-14
0.00157125
-0.0127085
0.00261572
-0.0252086
0.00363623
-0.0372564
0.00460659
-0.0486145
0.00549476
-0.0590564
0.00626425
-0.068372
0.00687598
-0.0763731
0.00729069
-0.0829001
0.00747163
-0.0878284
0.00738764
-0.0910746
0.00701643
-0.0926022
0.00634785
-0.0924246
0.00538691
-0.0906073
0.00415652
-0.0872661
0.00269946
-0.0825628
0.00107959
-0.0766982
-0.000617897
-0.0699012
-0.00228732
-0.0624173
-0.00380441
-0.0544941
-0.0463674
-0.00502916
-0.0284895
0.0469115
0.0279087
-0.0283797
0.0550472
-0.027701
0.0631263
-0.0265709
0.0708862
-0.0250996
0.0780501
-0.0233872
0.0843419
-0.0215214
0.0895013
-0.0195761
0.0932972
-0.0176112
0.0955388
-0.0156723
0.0960839
-0.0137919
0.094844
-0.0119906
0.0917862
-0.010279
0.086932
-0.00866007
0.0803537
-0.00713072
0.0721689
-0.00568437
0.0625344
-0.00431273
0.0516394
-0.00300763
0.0396981
-0.00176249
0.0269446
-0.000573554
0.0136263
0.000559172
-5.42833e-15
0.00163133
-0.0136727
0.00263391
-0.0271292
0.00355328
-0.0401095
0.00437152
-0.0523606
0.00506722
-0.0636412
0.00561646
-0.0737274
0.00599435
-0.0824184
0.00617668
-0.0895444
0.00614205
-0.0949725
0.00587402
-0.0986141
0.0053634
-0.10043
0.00461053
-0.100435
0.00362717
-0.0986996
0.0024382
-0.0953466
0.00108262
-0.0905491
-0.000385968
-0.0845217
-0.00189964
-0.0775096
-0.00337716
-0.0697759
-0.00472558
-0.0615872
-0.0531988
-0.00584252
-0.034248
0.0516299
0.0337094
-0.0341161
0.0599762
-0.0334045
0.0682725
-0.0322064
0.0762422
-0.0306143
0.0835948
-0.0287173
0.090041
-0.0265984
0.0953083
-0.024333
0.0991545
-0.0219869
0.101379
-0.0196161
0.101834
-0.0172663
0.100424
-0.0149733
0.0971144
-0.012764
0.0919263
-0.0106575
0.0849339
-0.00866659
0.0762593
-0.00679895
0.0660653
-0.00505889
0.0545487
-0.0034486
0.0419331
-0.00196941
0.0284625
-0.000622834
0.0143954
0.000588634
1.08302e-14
0.00166095
-0.0144501
0.00258823
-0.0286804
0.00336269
-0.0424188
0.00397493
-0.0554007
0.00441446
-0.0673738
0.00467047
-0.0781036
0.00473291
-0.0873804
0.00459372
-0.0950262
0.00424823
-0.100902
0.00369662
-0.104915
0.00294529
-0.107025
0.00200815
-0.107246
0.000907531
-0.105651
-0.000325171
-0.102369
-0.00164942
-0.0975792
-0.0030159
-0.0915052
-0.00436739
-0.0844028
-0.0056401
-0.0765465
-0.00676537
-0.0682153
-0.0596776
-0.00767153
-0.0412596
0.0556123
0.0407925
-0.0410445
0.0640793
-0.0402152
0.0724947
-0.038848
0.080574
-0.0370244
0.0880188
-0.0348282
0.0945323
-0.0323425
0.0998346
-0.0296475
0.103677
-0.0268181
0.105853
-0.0239223
0.106209
-0.0210201
0.104648
-0.0181633
0.101131
-0.0153951
0.0956797
-0.0127509
0.0883688
-0.0102585
0.0793226
-0.0079396
0.0687077
-0.00581047
0.0567257
-0.00388317
0.0436061
-0.00216648
0.0295996
-0.000666863
0.0149722
0.000610893
-1.09051e-14
0.0016631
-0.0150354
0.00248688
-0.0298509
0.00308012
-0.0441664
0.00344159
-0.0577092
0.00357136
-0.0702192
0.00347135
-0.0814549
0.0031461
-0.0912004
0.00260353
-0.0992724
0.0018559
-0.105528
0.00092052
-0.109871
-0.000179552
-0.11226
-0.00141513
-0.11271
-0.0027508
-0.111295
-0.00414529
-0.108146
-0.00555215
-0.103447
-0.0069209
-0.0974257
-0.00819852
-0.0903442
-0.00933114
-0.0824831
-0.0102658
-0.074128
-0.0655544
-0.0109525
-0.0496159
0.0586089
0.0493242
-0.0491934
0.0671132
-0.0481108
0.0755613
-0.0464343
0.0836659
-0.0442404
0.0911255
-0.041612
0.0976401
-0.0386359
0.102927
-0.0353994
0.106733
-0.0319877
0.10885
-0.0284816
0.109121
-0.0249555
0.107444
-0.0214762
0.103781
-0.0181027
0.0981513
-0.0148851
0.0906286
-0.0118654
0.0813381
-0.00907798
0.0704477
-0.00654995
0.0581613
-0.00430226
0.0447116
-0.00235042
0.0303529
-0.000705279
0.0153554
0.000626325
-5.34037e-15
0.00164108
-0.0154269
0.00233889
-0.0306371
0.0027228
-0.0453455
0.00279905
-0.0592745
0.00257739
-0.0721595
0.00207146
-0.0837547
0.0012993
-0.0938408
0.000283827
-0.102231
-0.000946737
-0.108782
-0.00235857
-0.113395
-0.00391223
-0.116027
-0.00556294
-0.116695
-0.00726128
-0.115473
-0.0089542
-0.112493
-0.0105865
-0.107941
-0.0121025
-0.102046
-0.0134483
-0.0950729
-0.0145733
-0.0873033
-0.0154327
-0.0790254
-0.0705172
-0.0159889
-0.0592338
0.0603421
0.0592782
-0.0584382
0.0688186
-0.0569375
0.0772355
-0.0547938
0.0853059
-0.0520824
0.0927294
-0.0488886
0.0992063
-0.0453045
0.104453
-0.0414255
0.108218
-0.0373474
0.110288
-0.0331627
0.110506
-0.0289593
0.10877
-0.0248178
0.105037
-0.0208107
0.0993248
-0.0170016
0.0917063
-0.0134446
0.0823052
-0.0101851
0.0712888
-0.00725961
0.0588612
-0.00469684
0.0452553
-0.00251802
0.0307268
-0.000737767
0.0155475
0.000635363
5.12679e-15
0.00159841
-0.0156269
0.00215373
-0.0310428
0.00230884
-0.0459603
0.00207653
-0.0600997
0.00147501
-0.0731943
0.000528188
-0.084997
-0.000733988
-0.095287
-0.00227533
-0.103877
-0.00405331
-0.110623
-0.00601917
-0.115426
-0.00811843
-0.118245
-0.0102917
-0.119095
-0.0124758
-0.118051
-0.0146057
-0.115246
-0.0166162
-0.110865
-0.0184444
-0.105139
-0.020032
-0.0983277
-0.0213273
-0.0907144
-0.0222878
-0.082585
-0.0742164
-0.0228814
-0.069834
0.0605458
0.0703952
-0.0684907
0.0689565
-0.0664085
0.0773068
-0.0636484
0.0853137
-0.0602872
0.0926801
-0.0564138
0.0991093
-0.0521265
0.10432
-0.0475283
0.108061
-0.0427244
0.110121
-0.0378181
0.11034
-0.0329084
0.108614
-0.0280879
0.1049
-0.0234404
0.0992116
-0.0190406
0.0916195
-0.0149531
0.0822448
-0.0112321
0.0712526
-0.00792218
0.0588449
-0.00505823
0.0452535
-0.00266629
0.0307329
-0.000764064
0.0155542
0.00063848
-5.04738e-15
0.0015387
-0.0156412
0.001941
-0.031079
0.00185667
-0.0460258
0.00130393
-0.0602021
0.000308079
-0.0733414
-0.00109834
-0.0851971
-0.00287538
-0.0955492
-0.00497565
-0.104212
-0.00734444
-0.11104
-0.00992025
-0.115939
-0.0126356
-0.118867
-0.0154181
-0.11984
-0.0181926
-0.118933
-0.0208828
-0.116279
-0.0234137
-0.112062
-0.0257146
-0.106508
-0.0277213
-0.0998768
-0.0293788
-0.0924466
-0.0306431
-0.0844995
-0.0763084
-0.0314832
-0.0809438
0.0590136
0.082177
-0.0789093
0.0673485
-0.0761164
0.0756259
-0.0726276
0.0835685
-0.0685221
0.0908848
-0.0638932
0.097283
-0.0588445
0.102486
-0.0534861
0.106244
-0.0479309
0.108347
-0.0422912
0.108635
-0.0366752
0.107003
-0.0311847
0.103405
-0.025913
0.0978519
-0.0209437
0.0904106
-0.0163494
0.0811985
-0.0121917
0.0703774
-0.00852139
0.0581459
-0.00537838
0.0447325
-0.00279252
0.0303893
-0.000783972
0.015385
0.000636176
0
0.00146555
-0.015479
0.00171017
-0.0307633
0.00138437
-0.0455672
0.000510739
-0.0596128
-0.000879742
-0.0726359
-0.0027476
-0.0843918
-0.00504482
-0.0946628
-0.00771493
-0.103265
-0.0106934
-0.110058
-0.0139083
-0.114946
-0.0172815
-0.11789
-0.0207301
-0.118907
-0.0241685
-0.118073
-0.0275108
-0.115518
-0.0306737
-0.111425
-0.0335789
-0.106016
-0.0361562
-0.0995475
-0.038346
-0.0922902
-0.0401015
-0.0845209
-0.0765063
-0.0413901
-0.0919271
0.0556468
0.0939147
-0.0891273
0.0639161
-0.0855608
0.0721353
-0.081293
0.0800341
-0.0764067
0.0873279
-0.0709997
0.0937311
-0.0651806
0.0989709
-0.0590654
0.102801
-0.0527737
0.105015
-0.0464244
0.10545
-0.0401333
0.104002
-0.0340095
0.100621
-0.0281535
0.0953143
-0.0226556
0.0881459
-0.017595
0.0792282
-0.0130387
0.0687182
-0.0090425
0.0568101
-0.00565013
0.0437283
-0.00289438
0.0297206
-0.000797363
0.0150522
0.000628968
-5.00774e-15
0.00138242
-0.0151525
0.00147028
-0.0301197
0.000909183
-0.0446191
-0.000274883
-0.058376
-0.00204654
-0.0711293
-0.00436093
-0.082638
-0.00716377
-0.0926878
-0.0103916
-0.101099
-0.013972
-0.107732
-0.0178252
-0.112496
-0.0218644
-0.115354
-0.0259983
-0.116323
-0.0301331
-0.11548
-0.0341752
-0.112953
-0.0380337
-0.108923
-0.0416239
-0.103606
-0.0448698
-0.0972532
-0.0477069
-0.0901289
-0.0500841
-0.0825022
-0.074632
-0.0519654
-0.102038
0.104751
-0.0984989
-0.0941861
-0.08917
-0.0835389
-0.0773954
-0.0708535
-0.0640348
-0.0570642
-0.0500668
-0.043164
-0.0364707
-0.030093
-0.0241267
-0.0186555
-0.0137511
-0.00947281
-0.00586742
-0.00297001
-0.000804189
0.000617376
0.00129259
0.00122966
0.000446958
-0.001027
-0.00315351
-0.00588364
-0.00915834
-0.0129087
-0.0170566
-0.0215157
-0.0261928
-0.0309899
-0.0358065
-0.0405422
-0.0451
-0.0493888
-0.0533267
-0.0568433
-0.0598816
-0.0623997
0.061569
-0.0577623
0.0587876
-0.0487528
0.05602
-0.0395739
0.0531613
-0.0308713
0.0500309
-0.0231651
0.0464307
-0.0168059
0.0422062
-0.0119523
0.0372984
-0.00857413
0.0317765
-0.00647813
0.0258451
-0.00535317
0.019823
-0.00482866
0.0140971
-0.0045381
0.00905847
-0.00417929
0.00503117
-0.00356347
0.0022061
-0.00264676
0.000593034
-0.00153991
-0.000494896
0.0539444
-0.0531547
0.0515793
-0.0454644
0.049294
-0.0375771
0.0469938
-0.0300042
0.0445185
-0.0231678
0.0416878
-0.017368
0.0383485
-0.0127643
0.0344171
-0.00937412
0.0299092
-0.00708623
0.0249512
-0.00568915
0.0197712
-0.00490917
0.0146712
-0.00445445
0.00998193
-0.00405943
0.00600962
-0.00352444
0.00298104
-0.00274582
0.00099671
-0.00173298
-0.000610315
0.0466773
-0.048615
0.044672
-0.0421268
0.0427904
-0.035419
0.04095
-0.0288935
0.0390125
-0.0228903
0.0368179
-0.017663
0.0342209
-0.0133639
0.0311252
-0.01004
0.0275092
-0.0076394
0.0234397
-0.00602732
0.0190707
-0.00501049
0.0146284
-0.00436635
0.0103815
-0.00387451
0.00660322
-0.00334685
0.00352853
-0.00265322
0.00131309
-0.0017399
-0.000638998
0.0399002
-0.0441805
0.0382037
-0.0387713
0.0366568
-0.0331273
0.0351902
-0.0275617
0.0336874
-0.0223458
0.0320095
-0.0176911
0.0300236
-0.0137374
0.0276295
-0.0105482
0.0247818
-0.00811185
0.0215035
-0.00635105
0.0178902
-0.00513679
0.0141027
-0.00430726
0.0103505
-0.00368906
0.0068652
-0.00311886
0.00386974
-0.00246363
0.00154515
-0.00163726
-0.000612233
0.0337027
-0.0398866
0.0322709
-0.0354324
0.0310006
-0.0307361
0.0298357
-0.0260397
0.0286797
-0.0215576
0.027415
-0.0174638
0.0259235
-0.0138825
0.0241077
-0.0108836
0.0219087
-0.00848176
0.019319
-0.00664048
0.0163892
-0.00528037
0.0132267
-0.00429027
0.00998667
-0.00354102
0.00685612
-0.00290022
0.00403257
-0.00224704
0.00169927
-0.00148564
-0.000556192
0.0281334
-0.0357663
0.0269297
-0.0321457
0.0258889
-0.0282835
0.0249666
-0.0243649
0.0240852
-0.0205575
0.0231468
-0.0170023
0.0220493
-0.0138068
0.0207021
-0.0110403
0.0190403
-0.00873282
0.0170368
-0.00687568
0.0147092
-0.00542605
0.0121222
-0.00431311
0.00938401
-0.00344641
0.00663779
-0.00272542
0.00404816
-0.00204965
0.00178411
-0.00132862
-0.000490884
0.0232049
-0.0318483
0.0221996
-0.0289455
0.0213508
-0.0258086
0.0206249
-0.0225777
0.0199604
-0.0193822
0.0192776
-0.0163348
0.01849
-0.0135259
0.0175163
-0.0110202
0.0162915
-0.00885489
0.0147769
-0.0070389
0.0129671
-0.00555506
0.0108939
-0.00436315
0.00862671
-0.00340456
0.00626833
-0.00260814
0.00394778
-0.00189665
0.00180945
-0.00119362
-0.000429973
0.0189005
-0.0281558
0.0180696
-0.0258629
0.017384
-0.0233491
0.0168189
-0.0207189
0.0163265
-0.0180709
0.0158431
-0.0154937
0.0152969
-0.0130616
0.0146169
-0.0108321
0.0137417
-0.00884396
0.012627
-0.00711608
0.0112524
-0.00564814
0.00962574
-0.00442185
0.00778524
-0.00340335
0.00579878
-0.0025464
0.00376058
-0.00179627
0.00178534
-0.00109407
-0.000381283
0.0151823
-0.0247051
0.0145063
-0.0229238
0.0139615
-0.0209387
0.0135302
-0.0188267
0.0131759
-0.016662
0.0128483
-0.0145129
0.0124891
-0.0124391
0.0120375
-0.0104897
0.0114377
-0.00870141
0.0106443
-0.00709749
0.009628
-0.00568772
0.00837995
-0.0044685
0.00691466
-0.00342398
0.00527109
-0.00252758
0.00351201
-0.00174413
0.00172137
-0.00103237
-0.000347754
0.0119988
-0.0215049
0.0114612
-0.0201469
0.0110397
-0.0186049
0.0107216
-0.0169346
0.0104797
-0.0151909
0.0102749
-0.0134253
0.01006
-0.0116849
0.00978447
-0.0100098
0.00939881
-0.00843277
0.0088593
-0.00697767
0.00813237
-0.00565925
0.00719839
-0.00448289
0.00605472
-0.00344487
0.0047176
-0.002533
0.00322302
-0.00172763
0.00162623
-0.00100297
-0.000328628
0.00929282
-0.018556
0.00887894
-0.0175434
0.00856589
-0.0163681
0.00834502
-0.0150696
0.00819595
-0.0136876
0.00808848
-0.0122605
0.00798517
-0.010824
0.00784427
-0.00941006
0.00762303
-0.00804627
0.0072811
-0.00675473
0.0067838
-0.00555166
0.00610534
-0.00444704
0.00523141
-0.00344452
0.00416142
-0.00254155
0.00290996
-0.00172975
0.00150743
-0.000995493
-0.000320663
0.00700735
-0.0158509
0.00670319
-0.0151161
0.00648551
-0.0142403
0.00634835
-0.0132508
0.00627651
-0.0121758
0.00624678
-0.0110428
0.00622956
-0.00987836
0.0061908
-0.00870711
0.00609419
-0.00755109
0.0059036
-0.00642928
0.00558547
-0.00535709
0.0051112
-0.00434599
0.00445938
-0.00340337
0.00361777
-0.00253238
0.0025849
-0.00173197
0.00137127
-0.000997158
-0.000319224
0.00509082
-0.0133747
0.00488239
-0.0128598
0.00474743
-0.0122251
0.00468168
-0.0114891
0.00467372
-0.010671
0.00470569
-0.00979009
0.00475426
-0.00886539
0.00479184
-0.00791501
0.00478804
-0.00695584
0.00471128
-0.00600313
0.00453043
-0.00507012
0.0042166
-0.00416781
0.00374478
-0.00330466
0.00309551
-0.00248651
0.00225628
-0.00171642
0.0012228
-0.000994756
-0.000319159
0.00350041
-0.0111058
0.00337328
-0.0107616
0.00330807
-0.010318
0.00330155
-0.0097869
0.00334499
-0.009181
0.00342455
-0.00851322
0.00352183
-0.00779655
0.00361463
-0.00704373
0.0036778
-0.00626699
0.00368428
-0.00547783
0.0036062
-0.00468672
0.00341608
-0.00390295
0.00308802
-0.00313443
0.00259893
-0.00238754
0.00192964
-0.00166701
0.00106604
-0.00097587
-0.000315413
0.00220411
-0.00901662
0.00214317
-0.00880167
0.00213399
-0.00850653
0.0021739
-0.0081385
0.00225606
-0.00770539
0.00236966
-0.00721537
0.00250021
-0.00667683
0.00262993
-0.00609816
0.00273827
-0.00548767
0.00280253
-0.00485339
0.00279853
-0.00420292
0.00270138
-0.00354334
0.00248628
-0.00288103
0.00212936
-0.00222163
0.00160847
-0.00156986
0.000904079
-0.000929522
-0.000303397
0.00118169
-0.00707456
0.0011711
-0.0069541
0.00120321
-0.0067714
0.00127561
-0.0065305
0.00138286
-0.00623583
0.00151648
-0.00589211
0.0016651
-0.00550428
0.00181466
-0.0050774
0.00194868
-0.00461662
0.00204859
-0.00412702
0.00209413
-0.0036136
0.00206383
-0.00308115
0.00193542
-0.0025342
0.00168646
-0.00197695
0.00129481
-0.00141321
0.00073925
-0.000846323
-0.000279141
0.000424745
-0.00524311
0.000447977
-0.00518776
0.000505422
-0.00508692
0.000594918
-0.00494248
0.000712101
-0.00475656
0.000850399
-0.00453152
0.00100107
-0.00426986
0.00115328
-0.00397424
0.00129423
-0.0036474
0.00140934
-0.00329215
0.00148243
-0.00291132
0.00149597
-0.00250769
0.00143137
-0.002084
0.00126927
-0.0016429
0.000989872
-0.00118689
0.000573314
-0.000718308
-0.000239294
-6.37686e-05
-0.00348239
-2.3975e-05
-0.003467
4.15737e-05
-0.00342185
0.000131011
-0.00334754
0.000240987
-0.00324479
0.000366644
-0.00311445
0.000501613
-0.00295748
0.000638038
-0.00277493
0.000766625
-0.00256792
0.000876709
-0.00233766
0.000956352
-0.00208538
0.00099246
-0.00181236
0.000970924
-0.00151989
0.000876775
-0.00120925
0.000694369
-0.00088174
0.000407578
-0.000538597
-0.000181034
-0.000270424
-0.00174973
-0.000232116
-0.00175216
-0.000177178
-0.00173986
-0.000106984
-0.00171284
-2.37677e-05
-0.00167113
6.93558e-05
-0.00161484
0.000168378
-0.00154411
0.000268398
-0.00145913
0.000363634
-0.00136014
0.000447452
-0.0012474
0.000512397
-0.00112121
0.000550247
-0.000981906
0.000552069
-0.000829846
0.000508297
-0.000665412
0.000408808
-0.000489005
0.000243022
-0.000301044
-0.000101959
-0.000172487
-2.88373e-18
-0.000154697
-2.28687e-18
-0.000130834
-2.45099e-18
-0.000101461
-2.38506e-18
-6.74255e-05
-1.85644e-18
-2.98672e-05
-1.76689e-18
9.77761e-06
-1.68145e-18
4.97732e-05
-1.26026e-18
8.8087e-05
-8.76794e-19
0.000122395
-6.25502e-19
0.000150092
-3.5354e-19
0.000168302
-3.55357e-19
0.000173898
-4.41663e-19
0.000163521
-3.09577e-19
0.000133604
-1.58076e-19
8.03964e-05
-6.33649e-20
-1.26799e-20
0.000260622
0.0018142
0.000237546
0.00183612
0.000207723
0.0018431
0.000171843
0.00183459
0.000130887
0.00181006
8.61298e-05
0.00176902
3.91484e-05
0.00171099
-8.17869e-06
0.00163555
-5.36739e-05
0.00154232
-9.48668e-05
0.00143095
-0.000129004
0.00130116
-0.000153062
0.00115271
-0.000163767
0.000985425
-0.000157612
0.000799188
-0.000130885
0.000593946
-7.96937e-05
0.000369716
0.000126586
0.00106549
0.00374246
0.000979413
0.00380607
0.000870613
0.00383898
0.000741625
0.00383953
0.000595885
0.00380609
0.000437746
0.00373707
0.000272487
0.00363096
0.000106299
0.00348633
-5.37245e-05
0.00330187
-0.000199625
0.00307636
-0.000322617
0.00280873
-0.000413148
0.00249805
-0.000460962
0.00214358
-0.000455177
0.00174473
-0.000384378
0.00130112
-0.000236712
0.000812568
0.000279128
0.00228235
0.00583651
0.00210875
0.00596287
0.00189236
0.00604121
0.00163833
0.00606813
0.00135339
0.00604027
0.0010459
0.00595438
0.000725799
0.00580731
0.00040457
0.00559612
9.51846e-05
0.00531805
-0.000187995
0.00497062
-0.000429325
0.00455163
-0.00061202
0.00405922
-0.000718309
0.0034919
-0.000729614
0.00284857
-0.000626749
0.00212858
-0.000390129
0.00133174
0.000458338
0.00395206
0.00815
0.00366338
0.00836243
0.00330675
0.00850704
0.00289094
0.00857796
0.00242713
0.00856942
0.00192889
0.00847581
0.00141209
0.00829181
0.000894806
0.00801246
0.000397126
0.00763321
-5.90481e-05
0.00715005
-0.000450251
0.00655957
-0.000751737
0.00585902
-0.000937798
0.00504639
-0.000982111
0.00412047
-0.000858106
0.00308091
-0.000539361
0.00192826
0.000663994
0.00611237
0.0107382
0.00567728
0.0110632
0.00514303
0.011297
0.00452327
0.0114303
0.00383508
0.0114541
0.00309885
0.0113598
0.00233805
0.0111392
0.00157898
0.010785
0.000850364
0.0102907
0.000182994
0.00965072
-0.00039078
0.00886067
-0.000837574
0.00791744
-0.00112353
0.00681927
-0.00121495
0.00556587
-0.00107886
0.00415846
-0.000683713
0.00259987
0.000894532
0.00879348
0.0136573
0.00817631
0.0141254
0.00742166
0.0144739
0.00654975
0.014689
0.00558547
0.0147574
0.00455806
0.0146667
0.00350067
0.0144054
0.00244984
0.0139634
0.00144478
0.0133324
0.0005267
0.0125056
-0.000262093
0.0114785
-0.000879047
0.0102486
-0.00128232
0.00881608
-0.00143173
0.0071833
-0.00128972
0.00535531
-0.000822317
0.00333969
0.00114659
0.0120132
0.0169635
0.0111734
0.01761
0.0101497
0.0181017
0.00897115
0.018419
0.00767276
0.0185431
0.00629522
0.0184568
0.00488395
0.0181447
0.00348814
0.0175942
0.00215966
0.0167953
0.000951746
0.0157411
-8.23131e-05
0.0144283
-0.000890587
0.0128573
-0.00142394
0.0110323
-0.00163742
0.00896153
-0.00149165
0.00665704
-0.000954054
0.00413483
0.00141455
0.0157717
0.0207112
0.0146636
0.0215769
0.0133164
0.0222439
0.0117704
0.0226847
0.010074
0.0228735
0.00828228
0.0227875
0.00645623
0.0224072
0.00466057
0.0217175
0.00296215
0.0207077
0.00142796
0.0193728
0.000123031
0.017713
-0.000891605
0.0157346
-0.00156097
0.0134498
-0.00183807
0.0108765
-0.00168559
0.00803861
-0.00107746
0.00496516
0.00169017
0.020047
0.0249512
0.0186202
0.0260831
0.0168893
0.0269608
0.0149094
0.0275466
0.0127457
0.0278062
0.0104721
0.02771
0.00816853
0.0272344
0.00591863
0.0263623
0.00380682
0.0250848
0.00191538
0.0234009
0.000321486
0.0213185
-0.000905774
0.0188541
-0.00170805
0.0160329
-0.00204016
0.0128886
-0.0018721
0.00946244
-0.00119059
0.00580241
0.00196237
0.024791
0.0297282
0.0229908
0.0311795
0.0208113
0.0323066
0.0183263
0.0330587
0.0156228
0.0333906
0.0127977
0.0332652
0.0099544
0.0326547
0.00719918
0.0315424
0.00463667
0.0299234
0.00236573
0.0278054
0.000475338
0.025209
-0.000959354
0.0221674
-0.00188034
0.0187258
-0.00224954
0.0149406
-0.00205078
0.0108774
-0.00129092
0.00660982
0.00221729
0.0299269
0.0350771
0.0276959
0.0369078
0.0249997
0.038326
0.021936
0.039264
0.0186186
0.0396634
0.0151731
0.0394787
0.0117316
0.0386792
0.00842667
0.0372506
0.00538585
0.035197
0.00272531
0.0325408
0.000544543
0.0293228
-0.00107853
0.0256011
-0.00209145
0.0214497
-0.00246998
0.016956
-0.00221952
0.0122184
-0.00137511
0.00734269
0.00243866
0.0353493
0.0410199
0.0326293
0.0432966
0.0293475
0.0450498
0.0256311
0.0461904
0.0216274
0.0466442
0.0174969
0.0463565
0.0134058
0.0452952
0.00951738
0.0434535
0.00598413
0.0408505
0.00293947
0.0375319
0.000490887
0.0335684
-0.00128584
0.0290538
-0.00235067
0.0241015
-0.00270142
0.0188398
-0.00237373
0.0134079
-0.00143897
0.00794976
0.00260857
0.040926
0.0475609
0.0376608
0.0503566
0.0337266
0.0524904
0.0292868
0.053846
0.0245295
0.0543301
0.0196574
0.053879
0.0148767
0.0524624
0.0103855
0.0500868
0.00636296
0.0467959
0.00295838
0.0426699
0.000283083
0.0378224
-0.00159605
0.0323957
-0.00266003
0.0265549
-0.00293821
0.02048
-0.00250561
0.0143583
-0.00147728
0.00837576
0.00270855
0.0465027
0.0546833
0.0426417
0.0580768
0.037994
0.0606373
0.0327672
0.062214
0.0271984
0.0626913
0.0215403
0.0619967
0.0160454
0.0601069
0.0109508
0.0570506
0.0064627
0.0529085
0.00274355
0.0478102
-9.76828e-05
0.0419281
-0.00201183
0.0354688
-0.00301132
0.0286626
-0.00316747
0.0217513
-0.00260354
0.0149761
-0.00148387
0.00856489
0.00272111
0.0519103
0.0623443
0.0474123
0.0664197
0.0420002
0.0694522
0.035934
0.0712483
0.0295093
0.071666
0.0230372
0.0706258
0.0168234
0.0681181
0.0111468
0.0642065
0.00624024
0.0590251
0.00227444
0.0527719
-0.000652438
0.0456974
-0.00251994
0.0380906
-0.00338379
0.030261
-0.00336809
0.022521
-0.00265199
0.0151676
-0.00145175
0.00846512
0.0026313
0.0569744
0.0704721
0.0518116
0.0753175
0.0455983
0.0788658
0.0386561
0.0808701
0.0313489
0.0811576
0.0240556
0.0796446
0.0171413
0.0763458
0.0109292
0.0713758
0.00567618
0.0649435
0.00155431
0.0573388
-0.00136014
0.0489138
-0.00308855
0.0400591
-0.00374294
0.0311772
-0.00351058
0.0226566
-0.00263184
0.0148459
-0.00137346
0.00803293
0.00242844
0.0615251
0.0789628
0.0556877
0.0846695
0.0486549
0.0887743
0.0408198
0.0909647
0.0326253
0.0910318
0.0245275
0.0888925
0.016957
0.0845993
0.0102825
0.0783399
0.00478051
0.0704247
0.000614306
0.0612644
-0.00217522
0.0513389
-0.00366635
0.0411611
-0.00404087
0.0312382
-0.00355812
0.0220342
-0.00252152
0.0139379
-0.00124165
0.00723803
0.00210758
0.0654088
0.0876794
0.0589082
0.09434
0.05106
0.0990386
0.0423383
0.101381
0.0332766
0.101116
0.0244174
0.0981697
0.0162625
0.0926493
0.00922566
0.0848433
0.00359584
0.0751976
-0.000485008
0.0642775
-0.00302775
0.0527207
-0.00418406
0.0411822
-0.00421859
0.0302807
-0.00346895
0.0205483
-0.00229875
0.0123919
-0.00104979
0.0060675
0.00167059
0.068498
0.096452
0.0613702
0.104159
0.0527355
0.109484
0.0431594
0.111931
0.0332768
0.111203
0.0237268
0.10724
0.0150868
0.100231
0.00781305
0.0905991
0.00219745
0.0789662
-0.00165533
0.0660925
-0.00382654
0.0528047
-0.00455855
0.0399182
-0.00421041
0.0281632
-0.00320023
0.0181216
-0.00194304
0.0101839
-0.000793181
0.00452867
0.00112652
0.0706998
0.10508
0.0630068
0.113925
0.0536414
0.119904
0.0432697
0.122396
0.0326397
0.121052
0.0224962
0.115837
0.0134958
0.107051
0.00613301
0.0952965
0.00068958
0.0814192
-0.00278583
0.0664196
-0.00446548
0.0513463
-0.00469959