/*--------------------------------*- C++ -*----------------------------------*\
  =========                 |
  \\      /  F ield         | OpenFOAM: The Open Source CFD Toolbox
   \\    /   O peration     | Website:  https://openfoam.org
    \\  /    A nd           | Version:  6
     \\/     M anipulation  |
\*---------------------------------------------------------------------------*/
FoamFile
{
    version     2.0;
    format      ascii;
    class       surfaceScalarField;
    location    "2.54";
    object      meshPhi;
}
// * * * * * * * * * * * * * * * * * * * * * * * * * * * * * * * * * * * * * //

dimensions      [0 3 -1 0 0 0 0];

internalField   nonuniform List<scalar> 
19800
(
8.38365e-05
-0.0034616
-0.000117427
-0.0103728
-0.000597943
-0.0172482
-0.00134748
-0.0240638
-0.0023516
-0.0307959
-0.00359187
-0.037421
-0.00504623
-0.0439155
-0.00668926
-0.0502564
-0.00849266
-0.0564208
-0.0104257
-0.0623861
-0.0124556
-0.0681303
-0.0145483
-0.0736318
-0.0166688
-0.0788694
-0.0187816
-0.0838228
-0.0208518
-0.0884721
-0.0228451
-0.0927983
-0.0247284
-0.0967834
-0.0264707
-0.10041
-0.0280433
-0.103663
-0.0294204
-0.106525
-0.0305793
-0.108985
-0.031501
-0.111029
-0.0321703
-0.112646
-0.0325764
-0.113827
-0.0327125
-0.114564
-0.0325764
-0.114851
-0.0321703
-0.114682
-0.031501
-0.114056
-0.0305793
-0.112972
-0.0294204
-0.11143
-0.0280433
-0.109433
-0.0264707
-0.106988
-0.0247284
-0.104101
-0.0228451
-0.100781
-0.0208518
-0.0970401
-0.0187816
-0.0928909
-0.0166688
-0.088349
-0.0145483
-0.0834316
-0.0124556
-0.078158
-0.0104257
-0.0725492
-0.00849266
-0.066628
-0.00668926
-0.0604187
-0.00504623
-0.0539473
-0.00359187
-0.0472412
-0.0023516
-0.040329
-0.00134748
-0.0332405
-0.000597943
-0.0260063
-0.000117427
-0.018658
8.38365e-05
-0.0112277
-1.3723e-14
-0.00374806
-0.0003703
0.00374806
-0.00102391
0.0112277
-0.00195319
0.018658
-0.00314614
0.0260063
-0.00458658
0.0332405
-0.00625436
0.040329
-0.0081257
0.0472412
-0.0101736
0.0539473
-0.0123681
0.0604187
-0.0146769
0.066628
-0.0170658
0.0725492
-0.0194993
0.078158
-0.0219411
0.0834316
-0.0243544
0.088349
-0.0267031
0.0928909
-0.0289517
0.0970401
-0.0310663
0.100781
-0.0330149
0.104101
-0.034768
0.106988
-0.0362989
0.109433
-0.0375846
0.11143
-0.0386054
0.112972
-0.0393458
0.114056
-0.0397947
0.114682
-0.039945
0.114851
-0.0397947
0.114564
-0.0393458
0.113827
-0.0386054
0.112646
-0.0375846
0.111029
-0.0362989
0.108985
-0.034768
0.106525
-0.0330149
0.103663
-0.0310663
0.10041
-0.0289517
0.0967834
-0.0267031
0.0927983
-0.0243544
0.0884721
-0.0219411
0.0838228
-0.0194993
0.0788694
-0.0170658
0.0736318
-0.0146769
0.0681303
-0.0123681
0.0623861
-0.0101736
0.0564208
-0.0081257
0.0502564
-0.00625436
0.0439155
-0.00458658
0.037421
-0.00314614
0.0307959
-0.00195319
0.0240638
-0.00102391
0.0172482
-0.0003703
0.0103728
0.0034616
0.000252872
-0.00662477
-0.000345071
-0.0198549
-0.00177639
-0.0330268
-0.00401056
-0.0461016
-0.00700449
-0.0590402
-0.0107032
-0.0718034
-0.0150409
-0.0843517
-0.0199417
-0.0966454
-0.0253211
-0.108645
-0.0310875
-0.120309
-0.0371431
-0.131599
-0.0433862
-0.142474
-0.0497123
-0.152892
-0.0560158
-0.162815
-0.0621921
-0.172202
-0.0681388
-0.181014
-0.0737576
-0.189211
-0.0789559
-0.196755
-0.0836479
-0.20361
-0.0877565
-0.20974
-0.0912141
-0.21511
-0.0939641
-0.219689
-0.0959612
-0.223447
-0.0971727
-0.226356
-0.0975788
-0.228392
-0.0971727
-0.229533
-0.0959612
-0.229762
-0.0939641
-0.229064
-0.0912141
-0.227428
-0.0877565
-0.22485
-0.0836479
-0.221326
-0.0789559
-0.21686
-0.0737576
-0.21146
-0.0681388
-0.205139
-0.0621921
-0.197914
-0.0560158
-0.189808
-0.0497123
-0.180849
-0.0433862
-0.171069
-0.0371431
-0.160507
-0.0310875
-0.149205
-0.0253211
-0.13721
-0.0199417
-0.124573
-0.0150409
-0.111351
-0.0107032
-0.097602
-0.00700449
-0.0833897
-0.00401056
-0.0687798
-0.00177639
-0.0538409
-0.000345071
-0.0386438
0.000252872
-0.0232609
-4.05571e-14
-0.0077661
-0.00110774
0.0077661
-0.00306093
0.0232609
-0.00583678
0.0386438
-0.00939945
0.0538409
-0.0137006
0.0687798
-0.0186802
0.0833897
-0.0242672
0.097602
-0.0303809
0.111351
-0.036932
0.124573
-0.0438243
0.13721
-0.0509556
0.149205
-0.0582198
0.160507
-0.0655084
0.171069
-0.0727121
0.180849
-0.0797228
0.189808
-0.0864347
0.197914
-0.0927464
0.205139
-0.0985627
0.21146
-0.103795
0.21686
-0.108365
0.221326
-0.112202
0.22485
-0.115249
0.227428
-0.117459
0.229064
-0.118799
0.229762
-0.119248
0.229533
-0.118799
0.228392
-0.117459
0.226356
-0.115249
0.223447
-0.112202
0.219689
-0.108365
0.21511
-0.103795
0.20974
-0.0985627
0.20361
-0.0927464
0.196755
-0.0864347
0.189211
-0.0797228
0.181014
-0.0727121
0.172202
-0.0655084
0.162815
-0.0582198
0.152892
-0.0509556
0.142474
-0.0438243
0.131599
-0.036932
0.120309
-0.0303809
0.108645
-0.0242672
0.0966454
-0.0186802
0.0843517
-0.0137006
0.0718034
-0.00939945
0.0590402
-0.00583678
0.0461016
-0.00306093
0.0330268
-0.00110774
0.0198549
0.00662477
0.000425964
-0.00948207
-0.000551216
-0.0284239
-0.00290281
-0.0472985
-0.00657852
-0.0660607
-0.0115073
-0.0846645
-0.0175986
-0.103063
-0.0247438
-0.121208
-0.0328179
-0.139049
-0.0416816
-0.156536
-0.0511837
-0.173616
-0.0611632
-0.190234
-0.0714522
-0.206333
-0.0818784
-0.221857
-0.0922678
-0.236746
-0.102448
-0.250938
-0.11225
-0.264373
-0.121511
-0.276987
-0.13008
-0.288719
-0.137814
-0.299506
-0.144587
-0.309286
-0.150286
-0.317999
-0.154819
-0.325585
-0.158112
-0.331989
-0.160109
-0.337156
-0.160778
-0.341038
-0.160109
-0.343589
-0.158112
-0.344769
-0.154819
-0.344544
-0.150286
-0.342884
-0.144587
-0.339769
-0.137814
-0.335184
-0.13008
-0.329124
-0.121511
-0.321589
-0.11225
-0.312591
-0.102448
-0.302149
-0.0922678
-0.290291
-0.0818784
-0.277054
-0.0714522
-0.262486
-0.0611632
-0.246642
-0.0511837
-0.229586
-0.0416816
-0.211392
-0.0328179
-0.19214
-0.0247438
-0.171919
-0.0175986
-0.150825
-0.0115073
-0.128961
-0.00657852
-0.106435
-0.00290281
-0.0833598
-0.000551216
-0.0598537
0.000425964
-0.036037
-6.61156e-14
-0.0120332
-0.00183576
0.0120332
-0.00506574
0.036037
-0.00965232
0.0598537
-0.0155364
0.0833598
-0.0226382
0.106435
-0.0308586
0.128961
-0.0400805
0.150825
-0.0501708
0.171919
-0.0609822
0.19214
-0.0723558
0.211392
-0.0841234
0.229586
-0.0961097
0.246642
-0.108136
0.262486
-0.120022
0.277054
-0.131589
0.290291
-0.142663
0.302149
-0.153076
0.312591
-0.162672
0.321589
-0.171305
0.329124
-0.178844
0.335184
-0.185175
0.339769
-0.190202
0.342884
-0.193848
0.344544
-0.196058
0.344769
-0.196798
0.343589
-0.196058
0.341038
-0.193848
0.337156
-0.190202
0.331989
-0.185175
0.325585
-0.178844
0.317999
-0.171305
0.309286
-0.162672
0.299506
-0.153076
0.288719
-0.142663
0.276987
-0.131589
0.264373
-0.120022
0.250938
-0.108136
0.236746
-0.0961097
0.221857
-0.0841234
0.206333
-0.0723558
0.190234
-0.0609822
0.173616
-0.0501708
0.156536
-0.0400805
0.139049
-0.0308586
0.121208
-0.0226382
0.103063
-0.0155364
0.0846645
-0.00965232
0.0660607
-0.00506574
0.0472985
-0.00183576
0.0284239
0.00948207
0.000605709
-0.0120306
-0.000721979
-0.0360708
-0.00394355
-0.060048
-0.00898978
-0.0839189
-0.0157629
-0.107639
-0.0241381
-0.131161
-0.0339658
-0.154434
-0.045074
-0.177407
-0.0572707
-0.200022
-0.0703476
-0.222219
-0.084083
-0.243931
-0.0982456
-0.265091
-0.112598
-0.285624
-0.126901
-0.305454
-0.140916
-0.324497
-0.154411
-0.34267
-0.167162
-0.359884
-0.17896
-0.376048
-0.189609
-0.39107
-0.198934
-0.404858
-0.206782
-0.417317
-0.213024
-0.428356
-0.217557
-0.437885
-0.220307
-0.445816
-0.221229
-0.452067
-0.220307
-0.456561
-0.217557
-0.459226
-0.213024
-0.46
-0.206782
-0.458827
-0.198934
-0.455664
-0.189609
-0.450475
-0.17896
-0.443239
-0.167162
-0.433945
-0.154411
-0.422597
-0.140916
-0.40921
-0.126901
-0.393814
-0.112598
-0.376455
-0.0982456
-0.35719
-0.084083
-0.336092
-0.0703476
-0.313248
-0.0572707
-0.288758
-0.045074
-0.262735
-0.0339658
-0.235305
-0.0241381
-0.206603
-0.0157629
-0.176778
-0.00898978
-0.145985
-0.00394355
-0.11439
-0.000721979
-0.0821629
0.000605709
-0.0494808
-9.03045e-14
-0.0165242
-0.0025482
0.0165242
-0.00701735
0.0494808
-0.0133555
0.0821629
-0.0214812
0.11439
-0.0312845
0.145985
-0.0426287
0.176778
-0.0553523
0.206603
-0.069272
0.235305
-0.0841848
0.262735
-0.0998715
0.288758
-0.1161
0.313248
-0.13263
0.336092
-0.149213
0.35719
-0.165603
0.376455
-0.181552
0.393814
-0.196821
0.40921
-0.211178
0.422597
-0.224409
0.433945
-0.236311
0.443239
-0.246705
0.450475
-0.255433
0.455664
-0.262364
0.458827
-0.26739
0.46
-0.270437
0.459226
-0.271458
0.456561
-0.270437
0.452067
-0.26739
0.445816
-0.262364
0.437885
-0.255433
0.428356
-0.246705
0.417317
-0.236311
0.404858
-0.224409
0.39107
-0.211178
0.376048
-0.196821
0.359884
-0.181552
0.34267
-0.165603
0.324497
-0.149213
0.305454
-0.13263
0.285624
-0.1161
0.265091
-0.0998715
0.243931
-0.0841848
0.222219
-0.069272
0.200022
-0.0553523
0.177407
-0.0426287
0.154434
-0.0312845
0.131161
-0.0214812
0.107639
-0.0133555
0.0839189
-0.00701735
0.060048
-0.0025482
0.0360708
0.0120306
0.000794548
-0.0142717
-0.000844137
-0.0427998
-0.00486646
-0.0712814
-0.0111854
-0.0996836
-0.0196781
-0.127971
-0.0301876
-0.156102
-0.0425258
-0.184035
-0.0564761
-0.211717
-0.0717974
-0.239092
-0.0882275
-0.266096
-0.105487
-0.292657
-0.123286
-0.318696
-0.141325
-0.344125
-0.159303
-0.36885
-0.176921
-0.392767
-0.193886
-0.415766
-0.209917
-0.437732
-0.224749
-0.458543
-0.238138
-0.478073
-0.249862
-0.496193
-0.25973
-0.51277
-0.267578
-0.527674
-0.273277
-0.540774
-0.276735
-0.551941
-0.277894
-0.561052
-0.276735
-0.56799
-0.273277
-0.572646
-0.267578
-0.574919
-0.25973
-0.574721
-0.249862
-0.571978
-0.238138
-0.566626
-0.224749
-0.558622
-0.209917
-0.547938
-0.193886
-0.534562
-0.176921
-0.518504
-0.159303
-0.499792
-0.141325
-0.478476
-0.123286
-0.454622
-0.105487
-0.428322
-0.0882275
-0.399683
-0.0717974
-0.368834
-0.0564761
-0.335921
-0.0425258
-0.301111
-0.0301876
-0.264584
-0.0196781
-0.226536
-0.0111854
-0.187178
-0.00486646
-0.146731
-0.000844137
-0.105427
0.000794548
-0.0635049
-1.13043e-13
-0.0212099
-0.0032391
0.0212099
-0.00889551
0.0635049
-0.0169038
0.105427
-0.0271612
0.146731
-0.0395293
0.187178
-0.0538358
0.226536
-0.0698777
0.264584
-0.0874239
0.301111
-0.106219
0.335921
-0.125987
0.368834
-0.146435
0.399683
-0.167261
0.428322
-0.188154
0.454622
-0.208801
0.478476
-0.228892
0.499792
-0.248125
0.518504
-0.26621
0.534562
-0.282875
0.547938
-0.297866
0.558622
-0.310958
0.566626
-0.321951
0.571978
-0.330679
0.574721
-0.33701
0.574919
-0.340848
0.572646
-0.342133
0.56799
-0.340848
0.561052
-0.33701
0.551941
-0.330679
0.540774
-0.321951
0.527674
-0.310958
0.51277
-0.297866
0.496193
-0.282875
0.478073
-0.26621
0.458543
-0.248125
0.437732
-0.228892
0.415766
-0.208801
0.392767
-0.188154
0.36885
-0.167261
0.344125
-0.146435
0.318696
-0.125987
0.292657
-0.106219
0.266096
-0.0874239
0.239092
-0.0698777
0.211717
-0.0538358
0.184035
-0.0395293
0.156102
-0.0271612
0.127971
-0.0169038
0.0996836
-0.00889551
0.0712814
-0.0032391
0.0427998
0.0142717
0.000994704
-0.0162111
-0.000905382
-0.0486274
-0.00564145
-0.0810256
-0.0131102
-0.113391
-0.0231656
-0.145703
-0.0356212
-0.177936
-0.0502533
-0.210059
-0.0668047
-0.242028
-0.0849884
-0.273793
-0.104493
-0.305289
-0.124986
-0.336442
-0.146123
-0.367165
-0.167547
-0.397359
-0.188901
-0.426912
-0.209829
-0.4557
-0.229982
-0.483587
-0.249028
-0.510428
-0.26665
-0.536067
-0.282557
-0.56034
-0.296488
-0.583078
-0.308213
-0.604105
-0.317538
-0.623245
-0.324311
-0.64032
-0.328419
-0.655155
-0.329796
-0.667578
-0.328419
-0.677424
-0.324311
-0.684538
-0.317538
-0.688778
-0.308213
-0.690012
-0.296488
-0.688129
-0.282557
-0.683033
-0.26665
-0.67465
-0.249028
-0.66293
-0.229982
-0.647843
-0.209829
-0.629386
-0.188901
-0.607584
-0.167547
-0.582486
-0.146123
-0.55417
-0.124986
-0.522739
-0.104493
-0.488326
-0.0849884
-0.451088
-0.0668047
-0.411207
-0.0502533
-0.368891
-0.0356212
-0.324369
-0.0231656
-0.277891
-0.0131102
-0.229726
-0.00564145
-0.180157
-0.000905382
-0.129483
0.000994704
-0.0780109
-1.34269e-13
-0.0260573
-0.00390276
0.0260573
-0.010681
0.0780109
-0.0202566
0.129483
-0.0325072
0.180157
-0.0472679
0.229726
-0.0643338
0.277891
-0.0834628
0.324369
-0.10438
0.368891
-0.126781
0.411207
-0.150338
0.451088
-0.174703
0.488326
-0.199515
0.522739
-0.224404
0.55417
-0.248999
0.582486
-0.27293
0.607584
-0.295837
0.629386
-0.317377
0.647843
-0.337224
0.66293
-0.355077
0.67465
-0.370668
0.683033
-0.383759
0.688129
-0.394153
0.690012
-0.401693
0.688778
-0.406262
0.684538
-0.407793
0.677424
-0.406262
0.667578
-0.401693
0.655155
-0.394153
0.64032
-0.383759
0.623245
-0.370668
0.604105
-0.355077
0.583078
-0.337224
0.56034
-0.317377
0.536067
-0.295837
0.510428
-0.27293
0.483587
-0.248999
0.4557
-0.224404
0.426912
-0.199515
0.397359
-0.174703
0.367165
-0.150338
0.336442
-0.126781
0.305289
-0.10438
0.273793
-0.0834628
0.242028
-0.0643338
0.210059
-0.0472679
0.177936
-0.0325072
0.145703
-0.0202566
0.113391
-0.010681
0.0810256
-0.00390276
0.0486274
0.0162111
0.00120813
-0.0178582
-0.000894556
-0.053582
-0.00624107
-0.0893267
-0.0147136
-0.125102
-0.0261453
-0.160912
-0.0403233
-0.196751
-0.056992
-0.232605
-0.0758575
-0.268444
-0.0965919
-0.304227
-0.118839
-0.339897
-0.14222
-0.375378
-0.166339
-0.410579
-0.19079
-0.44539
-0.215165
-0.479683
-0.239055
-0.513314
-0.262063
-0.54612
-0.283808
-0.577924
-0.303928
-0.608534
-0.322092
-0.637746
-0.338
-0.665345
-0.351389
-0.691108
-0.362038
-0.714809
-0.369772
-0.736217
-0.374464
-0.755102
-0.376037
-0.77124
-0.374464
-0.784412
-0.369772
-0.79441
-0.362038
-0.801041
-0.351389
-0.804127
-0.338
-0.803512
-0.322092
-0.799061
-0.303928
-0.790666
-0.283808
-0.778246
-0.262063
-0.761752
-0.239055
-0.741165
-0.215165
-0.716499
-0.19079
-0.687805
-0.166339
-0.655166
-0.14222
-0.6187
-0.118839
-0.578563
-0.0965919
-0.534941
-0.0758575
-0.488055
-0.056992
-0.438156
-0.0403233
-0.385524
-0.0261453
-0.330467
-0.0147136
-0.273315
-0.00624107
-0.21442
-0.000894556
-0.154151
0.00120813
-0.0928901
-1.53912e-13
-0.0310301
-0.00453383
0.0310301
-0.0123558
0.0928901
-0.0233764
0.154151
-0.0374553
0.21442
-0.0544037
0.273315
-0.0739869
0.330467
-0.0959279
0.385524
-0.119912
0.438156
-0.145591
0.488055
-0.17259
0.534941
-0.20051
0.578563
-0.228938
0.6187
-0.257452
0.655166
-0.285625
0.687805
-0.313036
0.716499
-0.339273
0.741165
-0.363942
0.761752
-0.386671
0.778246
-0.407117
0.790666
-0.424971
0.799061
-0.439962
0.803512
-0.451864
0.804127
-0.460497
0.801041
-0.46573
0.79441
-0.467483
0.784412
-0.46573
0.77124
-0.460497
0.755102
-0.451864
0.736217
-0.439962
0.714809
-0.424971
0.691108
-0.407117
0.665345
-0.386671
0.637746
-0.363942
0.608534
-0.339273
0.577924
-0.313036
0.54612
-0.285625
0.513314
-0.257452
0.479683
-0.228938
0.44539
-0.20051
0.410579
-0.17259
0.375378
-0.145591
0.339897
-0.119912
0.304227
-0.0959279
0.268444
-0.0739869
0.232605
-0.0544037
0.196751
-0.0374553
0.160912
-0.0233764
0.125102
-0.0123558
0.0893267
-0.00453383
0.053582
0.0178582
0.00143644
-0.0192263
-0.000801862
-0.0577026
-0.00664096
-0.0962488
-0.0159504
-0.134906
-0.0285455
-0.173706
-0.0441904
-0.212672
-0.0626018
-0.25181
-0.0834536
-0.291112
-0.106383
-0.33055
-0.130993
-0.370075
-0.156866
-0.409615
-0.183562
-0.449076
-0.210631
-0.488341
-0.237618
-0.527265
-0.264073
-0.565684
-0.289554
-0.603409
-0.313638
-0.640228
-0.335924
-0.675912
-0.356045
-0.710213
-0.373667
-0.742868
-0.388499
-0.773604
-0.400297
-0.802138
-0.408866
-0.828181
-0.414064
-0.851447
-0.415806
-0.87165
-0.414064
-0.888513
-0.408866
-0.90177
-0.400297
-0.91117
-0.388499
-0.916484
-0.373667
-0.917504
-0.356045
-0.914053
-0.335924
-0.905983
-0.313638
-0.893179
-0.289554
-0.875566
-0.264073
-0.853107
-0.237618
-0.825804
-0.210631
-0.793705
-0.183562
-0.756897
-0.156866
-0.715515
-0.130993
-0.669734
-0.106383
-0.619773
-0.0834536
-0.565888
-0.0626018
-0.50838
-0.0441904
-0.44758
-0.0285455
-0.383857
-0.0159504
-0.317606
-0.00664096
-0.249252
-0.000801862
-0.179237
0.00143644
-0.108025
-1.71917e-13
-0.0360891
-0.00512734
0.0360891
-0.0139035
0.108025
-0.0262288
0.179237
-0.0419471
0.249252
-0.0608485
0.317606
-0.0826722
0.383857
-0.10711
0.44758
-0.133814
0.50838
-0.162395
0.565888
-0.192437
0.619773
-0.223499
0.669734
-0.255121
0.715515
-0.286833
0.756897
-0.318163
0.793705
-0.348643
0.825804
-0.377815
0.853107
-0.405242
0.875566
-0.43051
0.893179
-0.453239
0.905983
-0.473086
0.914053
-0.48975
0.917504
-0.50298
0.916484
-0.512576
0.91117
-0.518392
0.90177
-0.520341
0.888513
-0.518392
0.87165
-0.512576
0.851447
-0.50298
0.828181
-0.48975
0.802138
-0.473086
0.773604
-0.453239
0.742868
-0.43051
0.710213
-0.405242
0.675912
-0.377815
0.640228
-0.348643
0.603409
-0.318163
0.565684
-0.286833
0.527265
-0.255121
0.488341
-0.223499
0.449076
-0.192437
0.409615
-0.162395
0.370075
-0.133814
0.33055
-0.10711
0.291112
-0.0826722
0.25181
-0.0608485
0.212672
-0.0419471
0.173706
-0.0262288
0.134906
-0.0139035
0.0962488
-0.00512734
0.0577026
0.0192263
0.00168091
-0.0203317
-0.000619066
-0.0610381
-0.00682032
-0.101872
-0.016782
-0.14291
-0.0303047
-0.184221
-0.0471331
-0.225857
-0.0669611
-0.267854
-0.0894358
-0.310226
-0.114164
-0.352962
-0.140719
-0.396026
-0.168645
-0.439354
-0.197467
-0.48285
-0.226699
-0.52639
-0.255848
-0.569816
-0.284427
-0.612941
-0.311957
-0.655551
-0.33798
-0.697399
-0.362064
-0.738216
-0.383808
-0.777709
-0.402854
-0.815564
-0.418885
-0.851453
-0.431636
-0.885034
-0.440898
-0.915958
-0.446517
-0.943874
-0.4484
-0.968434
-0.446517
-0.989294
-0.440898
-1.00613
-0.431636
-1.01862
-0.418885
-1.02649
-0.402854
-1.02947
-0.383808
-1.02733
-0.362064
-1.01989
-0.33798
-1.00699
-0.311957
-0.988532
-0.284427
-0.964448
-0.255848
-0.934731
-0.226699
-0.899423
-0.197467
-0.858617
-0.168645
-0.812458
-0.140719
-0.761144
-0.114164
-0.704923
-0.0894358
-0.644095
-0.0669611
-0.579003
-0.0471331
-0.510037
-0.0303047
-0.437627
-0.016782
-0.362237
-0.00682032
-0.284366
-0.000619066
-0.204536
0.00168091
-0.123291
-1.88236e-13
-0.0411924
-0.0056788
0.0411924
-0.0153094
0.123291
-0.0287834
0.204536
-0.0459311
0.284366
-0.0665247
0.362237
-0.0902812
0.437627
-0.116867
0.510037
-0.145902
0.579003
-0.176969
0.644095
-0.209613
0.704923
-0.243357
0.761144
-0.277703
0.812458
-0.312142
0.858617
-0.34616
0.899423
-0.379252
0.934731
-0.410921
0.964448
-0.440692
0.988532
-0.468119
1.00699
-0.492788
1.01989
-0.514327
1.02733
-0.532413
1.02947
-0.546771
1.02649
-0.557184
1.01862
-0.563496
1.00613
-0.565611
0.989294
-0.563496
0.968434
-0.557184
0.943874
-0.546771
0.915958
-0.532413
0.885034
-0.514327
0.851453
-0.492788
0.815564
-0.468119
0.777709
-0.440692
0.738216
-0.410921
0.697399
-0.379252
0.655551
-0.34616
0.612941
-0.312142
0.569816
-0.277703
0.52639
-0.243357
0.48285
-0.209613
0.439354
-0.176969
0.396026
-0.145902
0.352962
-0.116867
0.310226
-0.0902812
0.267854
-0.0665247
0.225857
-0.0459311
0.184221
-0.0287834
0.14291
-0.0153094
0.101872
-0.0056788
0.0610381
0.0203317
0.00194238
-0.0211937
-0.000339656
-0.0636459
-0.00676226
-0.10629
-0.0171767
-0.149245
-0.0313717
-0.192617
-0.0490774
-0.236495
-0.0699693
-0.280947
-0.0936738
-0.326013
-0.119774
-0.371704
-0.147817
-0.418
-0.177322
-0.464843
-0.207784
-0.512141
-0.238687
-0.559763
-0.269509
-0.607539
-0.299734
-0.655263
-0.328855
-0.70269
-0.356385
-0.749541
-0.381866
-0.795505
-0.404874
-0.840242
-0.425028
-0.883385
-0.441993
-0.924549
-0.455488
-0.963331
-0.465289
-0.999317
-0.471236
-1.03209
-0.473229
-1.06123
-0.471236
-1.08633
-0.465289
-1.107
-0.455488
-1.12286
-0.441993
-1.13355
-0.425028
-1.13876
-0.404874
-1.13822
-0.381866
-1.13167
-0.356385
-1.11894
-0.328855
-1.09987
-0.299734
-1.0744
-0.269509
-1.04249
-0.238687
-1.00417
-0.207784
-0.959546
-0.177322
-0.908771
-0.147817
-0.852066
-0.119774
-0.789708
-0.0936738
-0.722036
-0.0699693
-0.649443
-0.0490774
-0.572376
-0.0313717
-0.491326
-0.0171767
-0.406831
-0.00676226
-0.319464
-0.000339656
-0.229829
0.00194238
-0.138558
-2.02849e-13
-0.0462963
-0.00618421
0.0462963
-0.0165608
0.138558
-0.0310139
0.229829
-0.0493631
0.319464
-0.0713659
0.406831
-0.0967215
0.491326
-0.125075
0.572376
-0.156024
0.649443
-0.189123
0.722036
-0.223891
0.789708
-0.25982
0.852066
-0.29638
0.908771
-0.333032
0.959546
-0.369232
1.00417
-0.40444
1.04249
-0.438131
1.0744
-0.4698
1.09987
-0.498972
1.11894
-0.525209
1.13167
-0.548117
1.13822
-0.56735
1.13876
-0.582619
1.13355
-0.593693
1.12286
-0.600405
1.107
-0.602653
1.08633
-0.600405
1.06123
-0.593693
1.03209
-0.582619
0.999317
-0.56735
0.963331
-0.548117
0.924549
-0.525209
0.883385
-0.498972
0.840242
-0.4698
0.795505
-0.438131
0.749541
-0.40444
0.70269
-0.369232
0.655263
-0.333032
0.607539
-0.29638
0.559763
-0.25982
0.512141
-0.223891
0.464843
-0.189123
0.418
-0.156024
0.371704
-0.125075
0.326013
-0.0967215
0.280947
-0.0713659
0.236495
-0.0493631
0.192617
-0.0310139
0.149245
-0.0165608
0.10629
-0.00618421
0.0636459
0.0211937
0.00222126
-0.0218341
4.10097e-05
-0.0655906
-0.00645419
-0.109609
-0.0171101
-0.154054
-0.0317076
-0.199074
-0.0499661
-0.244798
-0.0715483
-0.291328
-0.0960658
-0.338734
-0.123085
-0.387052
-0.152135
-0.436279
-0.182715
-0.486368
-0.214299
-0.53723
-0.246352
-0.588729
-0.278331
-0.640684
-0.309696
-0.692869
-0.33992
-0.745011
-0.368499
-0.796798
-0.394954
-0.847875
-0.418844
-0.897856
-0.439771
-0.946319
-0.457389
-0.992819
-0.471404
-1.03689
-0.481584
-1.07805
-0.48776
-1.11582
-0.489831
-1.1497
-0.48776
-1.17923
-0.481584
-1.20392
-0.471404
-1.22334
-0.457389
-1.23707
-0.439771
-1.24474
-0.418844
-1.24601
-0.394954
-1.24059
-0.368499
-1.22824
-0.33992
-1.2088
-0.309696
-1.18215
-0.278331
-1.14826
-0.246352
-1.10713
-0.214299
-1.05889
-0.182715
-1.00368
-0.152135
-0.941754
-0.123085
-0.87342
-0.0960658
-0.799054
-0.0715483
-0.7191
-0.0499661
-0.634058
-0.0317076
-0.544488
-0.0171101
-0.450997
-0.00645419
-0.354237
4.10097e-05
-0.254896
0.00222126
-0.153689
-2.15762e-13
-0.0513555
-0.00664013
0.0513555
-0.0176468
0.153689
-0.0328986
0.254896
-0.0522068
0.354237
-0.0753181
0.450997
-0.101918
0.544488
-0.131637
0.634058
-0.164054
0.7191
-0.198704
0.799054
-0.235087
0.87342
-0.272672
0.941754
-0.310907
1.00368
-0.349229
1.05889
-0.38707
1.10713
-0.423869
1.14826
-0.459077
1.18215
-0.492169
1.2088
-0.522649
1.22824
-0.55006
1.24059
-0.57399
1.24601
-0.594082
1.24474
-0.610031
1.23707
-0.621598
1.22334
-0.628608
1.20392
-0.630957
1.17923
-0.628608
1.1497
-0.621598
1.11582
-0.610031
1.07805
-0.594082
1.03689
-0.57399
0.992819
-0.55006
0.946319
-0.522649
0.897856
-0.492169
0.847875
-0.459077
0.796798
-0.423869
0.745011
-0.38707
0.692869
-0.349229
0.640684
-0.310907
0.588729
-0.272672
0.53723
-0.235087
0.486368
-0.198704
0.436279
-0.164054
0.387052
-0.131637
0.338734
-0.101918
0.291328
-0.0753181
0.244798
-0.0522068
0.199074
-0.0328986
0.154054
-0.0176468
0.109609
-0.00664013
0.0655906
0.0218341
0.0025175
-0.0222763
0.0005256
-0.0669423
-0.00588799
-0.111945
-0.0165663
-0.157496
-0.0312856
-0.203791
-0.0497596
-0.250999
-0.0716437
-0.29926
-0.0965409
-0.348677
-0.124008
-0.399311
-0.153563
-0.451179
-0.184694
-0.504247
-0.216864
-0.558429
-0.249525
-0.613589
-0.28212
-0.669532
-0.314098
-0.726014
-0.344921
-0.782735
-0.37407
-0.839348
-0.401058
-0.895458
-0.425432
-0.950627
-0.446786
-1.00438
-0.464764
-1.05621
-0.479067
-1.1056
-0.489456
-1.15198
-0.49576
-1.19481
-0.497872
-1.23353
-0.49576
-1.26757
-0.489456
-1.29642
-0.479067
-1.31955
-0.464764
-1.33647
-0.446786
-1.34676
-0.425432
-1.35002
-0.401058
-1.3459
-0.37407
-1.33414
-0.344921
-1.31452
-0.314098
-1.2869
-0.28212
-1.25122
-0.249525
-1.2075
-0.216864
-1.15583
-0.184694
-1.0964
-0.153563
-1.02945
-0.124008
-0.955343
-0.0965409
-0.874481
-0.0716437
-0.78736
-0.0497596
-0.694537
-0.0312856
-0.596637
-0.0165663
-0.494339
-0.00588799
-0.388372
0.0005256
-0.279507
0.0025175
-0.168548
-2.26909e-13
-0.056324
-0.00704373
0.056324
-0.0185591
0.168548
-0.0344209
0.279507
-0.0544347
0.388372
-0.0783402
0.494339
-0.105815
0.596637
-0.136478
0.694537
-0.169898
0.78736
-0.205599
0.874481
-0.243067
0.955343
-0.281756
1.02945
-0.321102
1.0964
-0.360526
1.15583
-0.399447
1.2075
-0.437289
1.25122
-0.473488
1.2869
-0.507507
1.31452
-0.538837
1.33414
-0.567011
1.3459
-0.591605
1.35002
-0.612252
1.34676
-0.628641
1.33647
-0.640527
1.31955
-0.647731
1.29642
-0.650144
1.26757
-0.647731
1.23353
-0.640527
1.19481
-0.628641
1.15198
-0.612252
1.1056
-0.591605
1.05621
-0.567011
1.00438
-0.538837
0.950627
-0.507507
0.895458
-0.473488
0.839348
-0.437289
0.782735
-0.399447
0.726014
-0.360526
0.669532
-0.321102
0.613589
-0.281756
0.558429
-0.243067
0.504247
-0.205599
0.451179
-0.169898
0.399311
-0.136478
0.348677
-0.105815
0.29926
-0.0783402
0.250999
-0.0544347
0.203791
-0.0344209
0.157496
-0.0185591
0.111945
-0.00704373
0.0669423
0.0222763
0.00283057
-0.0225455
0.00111473
-0.0677757
-0.00506024
-0.11342
-0.0155372
-0.159739
-0.030092
-0.206976
-0.048437
-0.255345
-0.070226
-0.305022
-0.0950598
-0.356146
-0.122493
-0.408806
-0.152041
-0.463037
-0.183187
-0.518821
-0.215393
-0.576079
-0.248106
-0.63467
-0.280766
-0.694392
-0.312819
-0.754979
-0.343722
-0.816109
-0.372954
-0.877397
-0.400022
-0.938408
-0.424474
-0.998657
-0.445898
-1.05761
-0.463937
-1.11472
-0.47829
-1.16937
-0.488716
-1.22095
-0.495042
-1.26884
-0.497162
-1.3124
-0.495042
-1.35101
-0.488716
-1.38406
-0.47829
-1.41096
-0.463937
-1.43118
-0.445898
-1.4442
-0.424474
-1.44957
-0.400022
-1.4469
-0.372954
-1.43587
-0.343722
-1.41624
-0.312819
-1.38783
-0.280766
-1.35056
-0.248106
-1.30444
-0.215393
-1.24957
-0.183187
-1.18613
-0.152041
-1.1144
-0.122493
-1.03476
-0.0950598
-0.947646
-0.070226
-0.85361
-0.048437
-0.753265
-0.030092
-0.647296
-0.0155372
-0.536456
-0.00506024
-0.421551
0.00111473
-0.303434
0.00283057
-0.182996
-2.36322e-13
-0.0611553
-0.00739277
0.0611553
-0.0192916
0.182996
-0.035569
0.303434
-0.0560281
0.421551
-0.0804051
0.536456
-0.108374
0.647296
-0.13955
0.753265
-0.173497
0.85361
-0.209734
0.947646
-0.247742
1.03476
-0.28697
1.1144
-0.326849
1.18613
-0.366794
1.24957
-0.406218
1.30444
-0.44454
1.35056
-0.481192
1.38783
-0.515631
1.41624
-0.547343
1.43587
-0.575857
1.4469
-0.600746
1.44957
-0.621639
1.4442
-0.638222
1.43118
-0.650248
1.41096
-0.657537
1.38406
-0.659979
1.35101
-0.657537
1.3124
-0.650248
1.26884
-0.638222
1.22095
-0.621639
1.16937
-0.600746
1.11472
-0.575857
1.05761
-0.547343
0.998657
-0.515631
0.938408
-0.481192
0.877397
-0.44454
0.816109
-0.406218
0.754979
-0.366794
0.694392
-0.326849
0.63467
-0.28697
0.576079
-0.247742
0.518821
-0.209734
0.463037
-0.173497
0.408806
-0.13955
0.356146
-0.108374
0.305022
-0.0804051
0.255345
-0.0560281
0.206976
-0.035569
0.159739
-0.0192916
0.11342
-0.00739277
0.0677757
0.0225455
0.00315943
-0.0226675
0.00180692
-0.0681679
-0.00397233
-0.11416
-0.0140238
-0.160957
-0.0281264
-0.208849
-0.0459962
-0.258092
-0.0672908
-0.308905
-0.0916158
-0.36146
-0.11853
-0.415874
-0.147554
-0.472206
-0.178177
-0.530451
-0.209866
-0.590536
-0.242072
-0.65232
-0.274242
-0.715591
-0.305827
-0.780068
-0.336289
-0.845399
-0.365112
-0.911171
-0.391807
-0.976906
-0.415926
-1.04207
-0.437063
-1.10608
-0.454862
-1.16832
-0.469024
-1.22812
-0.479313
-1.28481
-0.485556
-1.33768
-0.487649
-1.38603
-0.485556
-1.42916
-0.479313
-1.46641
-0.469024
-1.4971
-0.454862
-1.52063
-0.437063
-1.53643
-0.415926
-1.54398
-0.391807
-1.54286
-0.365112
-1.53269
-0.336289
-1.51318
-0.305827
-1.48414
-0.274242
-1.44547
-0.242072
-1.39716
-0.209866
-1.3393
-0.178177
-1.2721
-0.147554
-1.19585
-0.11853
-1.11095
-0.0916158
-1.01788
-0.0672908
-0.917242
-0.0459962
-0.809695
-0.0281264
-0.695992
-0.0140238
-0.576953
-0.00397233
-0.453461
0.00180692
-0.32645
0.00315943
-0.196896
-2.44032e-13
-0.0658035
-0.00768566
0.0658035
-0.0198405
0.196896
-0.0363366
0.32645
-0.0569772
0.453461
-0.0814994
0.576953
-0.109578
0.695992
-0.140831
0.809695
-0.174824
0.917242
-0.211077
1.01788
-0.249076
1.11095
-0.288272
1.19585
-0.3281
1.2721
-0.367979
1.3393
-0.407324
1.39716
-0.445559
1.44547
-0.48212
1.48414
-0.516466
1.51318
-0.548088
1.53269
-0.576516
1.54286
-0.601328
1.54398
-0.622154
1.53643
-0.638684
1.52063
-0.65067
1.4971
-0.657934
1.46641
-0.660368
1.42916
-0.657934
1.38603
-0.65067
1.33768
-0.638684
1.28481
-0.622154
1.22812
-0.601328
1.16832
-0.576516
1.10608
-0.548088
1.04207
-0.516466
0.976906
-0.48212
0.911171
-0.445559
0.845399
-0.407324
0.780068
-0.367979
0.715591
-0.3281
0.65232
-0.288272
0.590536
-0.249076
0.530451
-0.211077
0.472206
-0.174824
0.415874
-0.140831
0.36146
-0.109578
0.308905
-0.0814994
0.258092
-0.0569772
0.208849
-0.0363366
0.160957
-0.0198405
0.11416
-0.00768566
0.0681679
0.0226675
0.00350259
-0.0226685
0.0025986
-0.0681973
-0.00263043
-0.114296
-0.0120353
-0.161327
-0.0254017
-0.209628
-0.042454
-0.259501
-0.0628597
-0.311204
-0.086235
-0.364942
-0.112151
-0.420863
-0.140141
-0.479046
-0.169707
-0.539502
-0.20033
-0.602166
-0.231477
-0.666895
-0.262607
-0.73347
-0.293187
-0.801593
-0.322691
-0.870888
-0.350617
-0.94091
-0.376489
-1.01114
-0.39987
-1.08101
-0.420364
-1.14987
-0.437624
-1.21705
-0.451359
-1.28182
-0.461339
-1.34344
-0.467394
-1.40115
-0.469424
-1.45416
-0.467394
-1.50171
-0.461339
-1.54306
-0.451359
-1.57748
-0.437624
-1.60429
-0.420364
-1.62286
-0.39987
-1.63263
-0.376489
-1.6331
-0.350617
-1.62386
-0.322691
-1.60459
-0.293187
-1.57506
-0.262607
-1.53516
-0.231477
-1.48486
-0.20033
-1.42425
-0.169707
-1.35355
-0.140141
-1.27307
-0.112151
-1.18322
-0.086235
-1.08454
-0.0628597
-0.977658
-0.042454
-0.863294
-0.0254017
-0.742259
-0.0120353
-0.615441
-0.00263043
-0.483795
0.0025986
-0.348333
0.00350259
-0.210112
-2.50027e-13
-0.0702235
-0.00792146
0.0702235
-0.0202044
0.210112
-0.0367224
0.348333
-0.0572817
0.483795
-0.081624
0.615441
-0.10943
0.742259
-0.140326
0.863294
-0.173885
0.977658
-0.209639
1.08454
-0.247082
1.18322
-0.285679
1.27307
-0.324876
1.35355
-0.364104
1.42425
-0.402794
1.48486
-0.440378
1.53516
-0.476307
1.57506
-0.510051
1.60459
-0.541113
1.62386
-0.569033
1.6331
-0.593398
1.63263
-0.613847
1.62286
-0.630075
1.60429
-0.641843
1.57748
-0.648974
1.54306
-0.651363
1.50171
-0.648974
1.45416
-0.641843
1.40115
-0.630075
1.34344
-0.613847
1.28182
-0.593398
1.21705
-0.569033
1.14987
-0.541113
1.08101
-0.510051
1.01114
-0.476307
0.94091
-0.440378
0.870888
-0.402794
0.801593
-0.364104
0.73347
-0.324876
0.666895
-0.285679
0.602166