/*--------------------------------*- C++ -*----------------------------------*\
  =========                 |
  \\      /  F ield         | OpenFOAM: The Open Source CFD Toolbox
   \\    /   O peration     | Website:  https://openfoam.org
    \\  /    A nd           | Version:  6
     \\/     M anipulation  |
\*---------------------------------------------------------------------------*/
FoamFile
{
    version     2.0;
    format      ascii;
    class       volScalarField;
    location    "1.83";
    object      p;
}
// * * * * * * * * * * * * * * * * * * * * * * * * * * * * * * * * * * * * * //

dimensions      [0 2 -2 0 0 0 0];

internalField   nonuniform List<scalar> 
800
(
82.3104
-11225.2
-220.408
-4364.16
-3896.61
-2733.22
-2455.14
-2574.09
-2509.21
-2323.64
-2750.59
-2445.89
-2370.26
-2890.78
-3009.67
-2430.3
-2039.1
-2143.88
-3771.5
-361.338
859.823
-10800.4
-1128.14
-4654.71
-3880.6
-2961.03
-2527.81
-2662.92
-2424.75
-2485.51
-2813.22
-2504.17
-2392.13
-2989.47
-3010.53
-2465.61
-2055.92
-2202.46
-3855.4
-818.2
284.49
-10511.7
-1667.79
-4637.32
-3829.01
-2683.95
-2578.86
-2681.9
-2342.74
-2462.1
-2828.29
-2398.98
-2423.1
-2961.31
-2977.02
-2427.36
-2034.57
-2211.46
-3874.13
-904.357
-22.0637
-10332.9
-2363.45
-4701.2
-3890.1
-2576.72
-2641.09
-2692.22
-2382.29
-2520.27
-2771.79
-2427.46
-2458.98
-2943.74
-2971.7
-2472.6
-2051.45
-2237.68
-3932.41
-909.82
-249.932
-10096.4
-2782.77
-4803.84
-3886.04
-2667.32
-2646.73
-2656.75
-2467.76
-2536.28
-2758.19
-2407.19
-2482.19
-2885.02
-3001.71
-2512.6
-2099.25
-2267.35
-4032.43
-1120.07
-223.376
-9967.07
-3413.87
-4870.34
-3892.72
-2700.29
-2653.87
-2664.96
-2545.16
-2569.19
-2721.2
-2414.36
-2476.59
-2879.42
-3021.22
-2607
-2187.1
-2347.9
-4171.58
-1394.08
-493.055
-9756.19
-3717.27
-4945.59
-3876.91
-2718.93
-2654.23
-2678.38
-2573.84
-2595.57
-2709.14
-2413.59
-2478.55
-2865.4
-3018.71
-2665.02
-2192.71
-2365.61
-4205.9
-1636.38
-489.396
-9648.32
-4271.17
-5022.03
-3895.31
-2717.07
-2667.25
-2672.99
-2594.4
-2613.52
-2698.94
-2415.47
-2468.2
-2830.41
-2988.98
-2688.77
-2269.49
-2415.94
-4243.85
-1612.73
-740.424
-9440.05
-4475.38
-5051.38
-3889.96
-2751.32
-2681.29
-2674.33
-2589.95
-2624.02
-2694.09
-2418.24
-2467.89
-2825.96
-2977.82
-2721
-2286.38
-2440.56
-4269.61
-1571.66
-688.559
-9343.26
-4987.88
-5109.41
-3904.71
-2760.51
-2703.26
-2674.56
-2584.94
-2629.3
-2692.63
-2422.75
-2473.32
-2824.94
-2968.73
-2706.3
-2343.09
-2489.71
-4259.74
-1448.06
-923.129
-9126.67
-5121.57
-5114.69
-3927.38
-2785.51
-2724.82
-2683.29
-2565.41
-2631.59
-2690.43
-2427.06
-2474.57
-2818.61
-2963
-2719.1
-2366.83
-2510.16
-4245.72
-1359.02
-842.105
-9035.42
-5518.3
-5123.57
-3944.47
-2789.04
-2750.06
-2687.83
-2560.02
-2631.03
-2692.84
-2432.62
-2478.52
-2811.76
-2957.53
-2703.23
-2410.34
-2548.53
-4223.22
-1284.69
-1059.41
-8810.6
-5448.53
-5092.08
-3969.04
-2802.97
-2775.86
-2699.51
-2556.56
-2634.95
-2686.05
-2438.31
-2483
-2805.23
-2950.43
-2703.28
-2432.12
-2562.06
-4201.43
-1243.72
-946.886
-8707.08
-5560.32
-5042.84
-3982
-2803.39
-2802.16
-2707.84
-2564.54
-2635.55
-2684.17
-2443.97
-2488.94
-2789.31
-2951.71
-2688.72
-2470.96
-2595.57
-4179.85
-1201.73
-1145
-8477.46
-5318.11
-4962.41
-3993.99
-2811.72
-2832.44
-2720.1
-2572.63
-2640.15
-2671.07
-2449.65
-2494.12
-2785.86
-2936.57
-2689.3
-2489.44
-2609.41
-4160.99
-1163.9
-1001.3
-8363.91
-5281.7
-4903.95
-4002.5
-2810.15
-2858.54
-2732.25
-2585.52
-2642.16
-2665.84
-2455.41
-2502.52
-2766.74
-2932.7
-2671.54
-2525.06
-2638.57
-4140.27
-1113.87
-1176.76
-8135.04
-5043
-4813.65
-4013.16
-2819.68
-2893.85
-2744.5
-2598.85
-2646.34
-2650.85
-2461.91
-2505.57
-2763.29
-2915.09
-2672.49
-2542.73
-2657.87
-4126.85
-1075
-1002.7
-8020.62
-4994.75
-4790.61
-4015.05
-2820.47
-2920.48
-2760.49
-2611.42
-2646.62
-2643.51
-2466.1
-2518.12
-2743.98
-2908.97
-2657.65
-2573.81
-2684.82
-4105.44
-1030.43
-1150.93
-7791.58
-4827.32
-4706.62
-4027.2
-2828.44
-2959.22
-2773.94
-2624.66
-2647.59
-2631.05
-2472.73
-2514.91
-2739.46
-2889.63
-2656.04
-2590.67
-2707.25
-4090.34
-997.926
-948.557
-7680.7
-4803.71
-4727.14
-4024.08
-2829.67
-2990.26
-2792.34
-2635.01
-2644.81
-2623.7
-2475.23
-2527.32
-2726.41
-2879.82
-2645.83
-2616.03
-2732.34
-4069.22
-954.246
-1065.6
-7447.8
-4722.19
-4655.83
-4037.65
-2828.5
-3027.85
-2808.92
-2643.07
-2643.99
-2615.86
-2478.75
-2523.6
-2720.72
-2859.65
-2639.64
-2631.25
-2755.01
-4050.67
-919.649
-838.003
-7334.56
-4725.19
-4730.37
-4032.7
-2813.99
-3068.84
-2827.27
-2650.14
-2638.44
-2610.32
-2477.39
-2529.71
-2712.64
-2845.52
-2634.22
-2652.99
-2778.85
-4028.32
-868.012
-917.81
-7090.44
-4729.04
-4676.39
-4056.74
-2804.28
-3099.01
-2848.64
-2648.23
-2630.44
-2606.26
-2481.96
-2528.27
-2706.5
-2825.32
-2625.31
-2667.08
-2801.15
-4006.18
-826.344
-664.015
-6948.04
-4759.85
-4785.11
-4067.85
-2769.38
-3144.49
-2868.11
-2650.21
-2621.78
-2605.11
-2481.34
-2530.81
-2699.3
-2808.82
-2620.96
-2685.43
-2825.77
-3981.97
-765.395
-691.231
-6669.26
-4825.13
-4756.56
-4120.36
-2757.21
-3148.75
-2886.58
-2642.42
-2616.28
-2603.84
-2484.58
-2524.46
-2693.34
-2789.38
-2613.23
-2697.72
-2848.34
-3956.4
-716.113
-405.393
-6465.08
-4842.44
-4829.8
-4149.7
-2692.37
-3175.43
-2882.17
-2642.08
-2614.6
-2601.54
-2485.25
-2528.67
-2687.59
-2773.97
-2608.34
-2713.23
-2874.25
-3930.28
-645.747
-383.826
-6139.41
-4876.33
-4870.83
-4262.58
-2637.27
-3169.71
-2900.76
-2639.54
-2615.31
-2600.52
-2493.83
-2520.49
-2681.36
-2758.71
-2603.5
-2721.86
-2898.31
-3906.21
-588.94
-84.1838
-5868.99
-4963.88
-4834.29
-4321.44
-2524.26
-3195.15
-2911.1
-2627.82
-2600.69
-2597.12
-2493.52
-2522.1
-2675.88
-2747.66
-2598.81
-2734.8
-2922.51
-3874.33
-510.269
-79.2927
-5412.43
-4821.41
-4866.77
-4426.02
-2516.56
-3157.41
-2897.37
-2630.12
-2606.96
-2601.15
-2517.96
-2516.94
-2668.15
-2737.35
-2596.08
-2740.53
-2947.11
-3859.7
-447.182
181.265
-5281.38
-4758.86
-4749.96
-4338.88
-2524.8
-3135.39
-2874.1
-2628.17
-2594.27
-2606.76
-2516.66
-2511.72
-2661.57
-2733.34
-2591.25
-2752.21
-2960.93
-3811.89
-365.719
102.526
-5087.02
-4650.81
-4704.85
-4165.5
-2746.04
-3110.83
-2887.72
-2631.86
-2590.15
-2602.04
-2531.53
-2513.22
-2657.42
-2731.54
-2591.15
-2762.04
-2977.68
-3812.99
-302.367
275.522
-4906.17
-4574.34
-4698.86
-4065.93
-2949.26
-3150.44
-2888.23
-2628.87
-2572.12
-2611.38
-2527.97
-2503.76
-2651.66
-2740.38
-2588.73
-2779.18
-2966.86
-3735.21
-230.85
35.4039
-4619.24
-4711.04
-4781.43
-3898.7
-3086.27
-3147.56
-2890.51
-2617.44
-2563.38
-2616.18
-2535.93
-2508.01
-2650.4
-2756.9
-2612.35
-2792.11
-2964.65
-3736.93
-181.039
115.029
-4523.89
-4784
-4816.41
-3996
-3166.89
-3095.15
-2879.53
-2622.14
-2549.95
-2631.78
-2534.26
-2498.41
-2639.57
-2784.66
-2627.16
-2785.64
-2928.59
-3607.35
-134.377
169.971
-4448.73
-4783.7
-4847.32
-4088.91
-3076.83
-3113.41
-2885.93
-2624.03
-2540.14
-2646.64
-2545.89
-2496.76
-2640.95
-2820.14
-2624.74
-2801.02
-2901.49
-3555.48
-109.318
367.884
-4289.31
-4853.41
-4924.44
-4147.32
-3065.03
-3105.01
-2924.53
-2601.68
-2531.65
-2666.32
-2555.49
-2487.68
-2653.12
-2820.64
-2660.41
-2865.84
-2844.65
-3386.69
-88.2547
639.518
-4169.31
-4909.98
-5039.62
-4120.41
-3009.97
-3065.93
-2933.88
-2609.53
-2515.55
-2657.94
-2571.62
-2469.36
-2645.43
-2840.01
-2645.21
-2869.93
-2839.81
-3382.17
-78.8377
842.696
-3905.39
-4898.46
-5046.2
-4152.45
-2996.63
-3044.17
-2912.13
-2619.39
-2532.62
-2634.98
-2582.64
-2481.07
-2640.25
-2887.68
-2641.35
-2829.85
-2852.06
-3339.18
-54.9245
1038.39
-3772
-4840.55
-5084.89
-4119.13
-2947.91
-3034.17
-2907.77
-2612.69
-2525.9
-2610.56
-2583.53
-2477.65
-2641
-2893.42
-2650.14
-2785.12
-2847.65
-3286.21
-25.5021
1145.1
-3499.69
-4808.99
-5157.41
-4170.01
-2993.89
-3014.03
-2913.34
-2604.9
-2522.15
-2601.49
-2582.55
-2478.18
-2626.99
-2915.96
-2643.52
-2790.11
-2868.63
-3138.68
-11.8862
)
;

boundaryField
{
    piston
    {
        type            zeroGradient;
    }
    outlet
    {
        type            zeroGradient;
    }
    walls
    {
        type            zeroGradient;
    }
    front
    {
        type            empty;
    }
    back
    {
        type            empty;
    }
}


// ************************************************************************* //
