/*--------------------------------*- C++ -*----------------------------------*\
  =========                 |
  \\      /  F ield         | OpenFOAM: The Open Source CFD Toolbox
   \\    /   O peration     | Website:  https://openfoam.org
    \\  /    A nd           | Version:  6
     \\/     M anipulation  |
\*---------------------------------------------------------------------------*/
FoamFile
{
    version     2.0;
    format      ascii;
    class       volScalarField;
    location    "3.22";
    object      p;
}
// * * * * * * * * * * * * * * * * * * * * * * * * * * * * * * * * * * * * * //

dimensions      [0 2 -2 0 0 0 0];

internalField   nonuniform List<scalar> 
4214
(
-1.52234
-1.33331
-0.907142
-0.563153
-0.406668
-0.332049
-0.259396
-0.17041
-0.068796
0.0625681
0.284581
0.571688
0.904552
1.18908
1.56329
2.04478
2.80786
3.12738
2.41487
0.600005
-1.55949
-3.36582
-4.35098
-4.74057
-4.64892
-4.35948
-3.9434
-3.29684
-2.59838
-1.8595
-1.31749
-0.979816
-0.788301
-0.680754
-0.602682
-0.545098
-0.534103
-0.642732
-0.988476
-1.36617
-1.23257
-0.760243
-1.11342
-1.17138
-0.947166
-0.786245
-0.692438
-0.589557
-0.452656
-0.284568
-0.0547386
0.240939
0.712116
1.31799
2.07074
3.05871
4.02745
4.8857
4.78297
2.90431
-0.726324
-5.05946
-9.02796
-11.7574
-12.9505
-13.0043
-11.8223
-9.74669
-7.19107
-4.83973
-3.03076
-1.95526
-1.36244
-0.981946
-0.705676
-0.55901
-0.460666
-0.388836
-0.449643
-0.653325
-0.511563
0.0394727
-1.64947
-1.64771
-1.73207
-1.54321
-1.33078
-1.15295
-0.961147
-0.725646
-0.403804
0.0226992
0.545868
1.24632
2.17312
3.34796
4.68911
5.82697
6.44759
5.84255
3.1726
-1.57506
-7.29834
-12.7292
-16.7912
-18.9494
-19.5114
-18.4838
-15.9234
-12.5389
-9.00073
-6.17656
-4.09978
-2.86862
-2.13902
-1.60714
-1.28756
-1.07944
-0.930739
-0.949645
-1.03731
-0.851142
-0.658136
-2.23671
-2.13034
-2.20671
-2.03964
-1.80125
-1.57045
-1.32105
-1.00377
-0.577761
-0.0100551
0.745387
1.65106
2.77408
4.20763
5.76906
6.97424
7.34755
6.26856
3.22431
-2.20309
-8.71366
-15.1131
-20.1674
-23.2282
-24.247
-23.5286
-20.9559
-17.1766
-12.8875
-9.35118
-6.3028
-4.32715
-3.20816
-2.41154
-1.89531
-1.56152
-1.32262
-1.26719
-1.27678
-1.05955
-1.08293
-2.86356
-2.75516
-2.74693
-2.56589
-2.30482
-2.03171
-1.72993
-1.33849
-0.828411
-0.166567
0.705618
1.82018
3.19142
4.79856
6.45127
7.59807
7.71216
6.32219
2.96706
-2.63845
-9.40737
-16.2382
-21.9052
-25.6315
-27.2111
-26.9382
-24.7379
-21.1067
-16.6151
-12.2219
-8.74613
-5.97903
-4.40397
-3.33727
-2.61943
-2.13511
-1.79751
-1.66299
-1.60463
-1.40982
-1.45622
-3.44319
-3.33147
-3.30643
-3.11674
-2.84242
-2.54436
-2.20146
-1.75956
-1.19073
-0.467319
0.456972
1.62823
3.061
4.72809
6.44205
7.60345
7.55016
5.88342
2.39744
-2.91271
-9.67212
-16.3825
-22.22
-26.3239
-28.3955
-28.5576
-26.9059
-23.7896
-19.5242
-14.5922
-10.8174
-7.63397
-5.54355
-4.19769
-3.28864
-2.66814
-2.25547
-2.03051
-1.88986
-1.70321
-1.74507
-4.07052
-3.95831
-3.92819
-3.73605
-3.45565
-3.14462
-2.77998
-2.31135
-1.71191
-0.953543
0.0016937
1.19164
2.63002
4.2997
5.99132
7.08926
6.88547
5.04285
1.54224
-3.3386
-9.72046
-15.8084
-21.367
-25.5352
-27.8956
-28.4736
-27.4211
-25.0096
-21.3897
-16.6913
-12.1822
-8.98342
-6.5355
-4.93834
-3.86449
-3.13696
-2.65804
-2.36854
-2.15942
-1.9751
-2.00414
-4.74173
-4.63356
-4.61623
-4.43967
-4.16992
-3.86389
-3.50404
-3.03738
-2.44138
-1.69141
-0.755729
0.395421
1.77633
3.36246
4.9548
5.97027
5.68381
3.75247
0.332853
-4.19999
-9.63738
-15.056
-19.8428
-23.6297
-25.9925
-26.8598
-26.3106
-24.5137
-21.5714
-17.8446
-13.286
-9.63841
-7.14295
-5.46646
-4.30826
-3.50831
-2.97473
-2.62973
-2.37758
-2.20378
-2.23222
-5.47534
-5.39025
-5.40263
-5.25292
-5.01515
-4.74053
-4.41176
-3.98441
-3.43018
-2.73177
-1.86483
-0.804283
0.45873
1.8949
3.31965
4.20551
3.87033
1.9259
-1.34731
-5.45703
-9.82433
-14.4536
-18.1084
-21.0723
-23.0821
-24.0301
-23.7719
-22.6346
-20.5252
-17.4893
-13.7242
-10.055
-7.23685
-5.60394
-4.47624
-3.68352
-3.15869
-2.79571
-2.52861
-2.38041
-2.39792
-6.27367
-6.23301
-6.32127
-6.20364
-6.01865
-5.80601
-5.5409
-5.18842
-4.72466
-4.12518
-3.37854
-2.46427
-1.38121
-0.160387
1.0265
1.72296
1.32774
-0.554285
-3.60191
-7.21506
-10.6908
-14.16
-16.526
-18.3525
-19.6355
-20.3259
-20.1989
-19.5332
-18.1486
-15.9755
-13.0633
-9.80289
-7.15469
-5.4696
-4.36149
-3.60361
-3.11633
-2.77686
-2.55226
-2.46644
-2.48842
-7.17026
-7.20334
-7.40143
-7.33161
-7.21638
-7.09205
-6.92542
-6.68345
-6.35227
-5.91221
-5.35001
-4.64798
-3.81748
-2.89373
-2.03821
-1.56932
-2.08186
-3.83406
-6.55609
-9.59752
-12.2514
-14.26
-15.4887
-15.9669
-16.1706
-16.1834
-16.0216
-15.6045
-14.8019
-13.3931
-11.3233
-8.80065
-6.68094
-4.97032
-3.98637
-3.33153
-2.93005
-2.65299
-2.4862
-2.45129
-2.49074
-8.20812
-8.34631
-8.62924
-8.66439
-8.64373
-8.63296
-8.60132
-8.51219
-8.36567
-8.13342
-7.82599
-7.41995
-6.93968
-6.41903
-5.97671
-5.80684
-6.47865
-8.05622
-10.3359
-12.6866
-14.4268
-15.0652
-15.0563
-14.1337
-13.0178
-12.19
-11.7027
-11.3228
-10.8466
-10.0611
-8.80657
-7.01563
-5.33815
-4.02579
-3.27152
-2.79091
-2.53665
-2.3748
-2.30626
-2.34076
-2.41738
-9.43881
-9.61784
-9.98202
-10.1777
-10.3067
-10.4525
-10.6113
-10.7138
-10.8133
-10.8358
-10.869
-10.8395
-10.8213
-10.7904
-10.8356
-11.1369
-11.9507
-13.3199
-15.0301
-16.5407
-17.2368
-16.7303
-15.2355
-12.9593
-10.5477
-8.68629
-7.58694
-7.05092
-6.71966
-6.31468
-5.72628
-4.62899
-3.59452
-2.68089
-2.26906
-2.03285
-1.98645
-1.98393
-2.04676
-2.17274
-2.30871
-10.8897
-11.0789
-11.5125
-11.8792
-12.2053
-12.5365
-12.9127
-13.2634
-13.6716
-14.0248
-14.5003
-14.9177
-15.5326
-16.1149
-16.8366
-17.6055
-18.5469
-19.665
-20.6614
-21.1745
-20.7084
-18.9826
-16.1238
-12.507
-8.85715
-5.92618
-4.06563
-3.11866
-2.75956
-2.50494
-2.35976
-1.79337
-1.45781
-1.04521
-1.06847
-1.16057
-1.35958
-1.56271
-1.7729
-2.01155
-2.22642
-12.3316
-12.6628
-13.1828
-13.7217
-14.2866
-14.8589
-15.512
-16.182
-17.0085
-17.7863
-18.8753
-19.8151
-21.2848
-22.4819
-24.0325
-25.196
-26.3132
-26.9664
-27.074
-26.4731
-24.7352
-21.7452
-17.5948
-12.7346
-7.95342
-4.02757
-1.35529
0.165528
0.737408
1.10948
0.866466
1.08015
0.579804
0.49245
0.026238
-0.381499
-0.805532
-1.2075
-1.57768
-1.93061
-2.21882
-13.6897
-14.2927
-14.9207
-15.6384
-16.4144
-17.3122
-18.2639
-19.3874
-20.7186
-22.122
-24.1335
-25.6772
-28.2694
-29.7918
-32.3484
-33.5497
-34.796
-34.7216
-34.0111
-32.2001
-29.1193
-24.8722
-19.4572
-13.5135
-7.712
-2.94989
0.519642
2.71368
3.46821
4.20738
3.38215
3.34737
1.71183
1.33274
0.688059
0.152291
-0.447799
-1.01218
-1.54643
-1.98414
-2.38602
-15.1733
-15.9487
-16.746
-17.5871
-18.6043
-19.8087
-21.1494
-22.7025
-24.7378
-26.7492
-29.9118
-31.8865
-35.7959
-37.3347
-40.842
-41.759
-43.207
-42.4134
-40.8219
-37.8549
-33.3903
-28.1496
-21.2463
-14.5231
-7.9466
-2.47247
1.38148
4.38839
5.09433
6.45745
5.01465
4.92167
2.42607
1.81657
1.19882
0.493062
-0.240492
-0.984703
-1.72789
-2.30683
-2.8065
-3.23904
-2.71955
-2.45067
-2.34485
-2.32461
-2.34423
-2.37258
-2.3743
-2.33865
-2.24914
-2.12215
-1.98829
-1.78908
-1.62983
-1.35591
-1.34866
-1.49936
-3.63964
-3.07571
-2.72797
-2.56252
-2.48347
-2.45704
-2.45496
-2.45013
-2.42697
-2.36921
-2.27203
-2.16482
-1.99072
-1.88002
-1.62018
-1.56985
-1.39963
-3.99027
-3.42106
-3.01402
-2.7736
-2.63504
-2.56299
-2.52701
-2.50557
-2.48267
-2.43884
-2.37744
-2.2976
-2.18237
-2.09467
-1.87884
-1.87473
-1.58999
-4.22606
-3.71717
-3.30417
-3.00843
-2.81997
-2.7085
-2.64026
-2.59647
-2.56418
-2.52585
-2.47837
-2.41114
-2.33212
-2.24331
-2.09749
-2.05881
-1.804
-4.42146
-3.9773
-3.59134
-3.26073
-3.02972
-2.87689
-2.77482
-2.70605
-2.65819
-2.61683
-2.5761
-2.52031
-2.46379
-2.38269
-2.27442
-2.21735
-2.01127
-4.47886
-4.12822
-3.80706
-3.50141
-3.24492
-3.06651
-2.93882
-2.84414
-2.77565
-2.72345
-2.68092
-2.63103
-2.58936
-2.51889
-2.45005
-2.37429
-2.21802
-4.461
-4.18466
-3.93802
-3.68317
-3.45112
-3.25504
-3.10997
-2.99982
-2.91565
-2.84895
-2.79723
-2.74722
-2.71077
-2.6476
-2.61753
-2.53537
-2.43541
-4.38117
-4.13795
-3.93761
-3.7471
-3.57129
-3.41032
-3.26938
-3.14927
-3.05616
-2.98176
-2.9226
-2.86988
-2.82916
-2.77435
-2.75285
-2.67396
-2.62609
-4.24596
-4.04626
-3.87827
-3.71901
-3.57525
-3.45431
-3.35044
-3.25821
-3.17396
-3.09766
-3.03634
-2.98395
-2.94338
-2.89646
-2.8708
-2.80417
-2.79916
-4.07098
-3.89281
-3.76178
-3.63666
-3.52043
-3.42039
-3.33694
-3.26796
-3.2104
-3.16094
-3.11483
-3.07038
-3.03591
-2.99811
-2.97811
-2.92931
-2.93762
-3.84589
-3.70881
-3.6032
-3.50609
-3.41647
-3.33937
-3.27625
-3.22557
-3.1845
-3.15248
-3.12585
-3.10558
-3.08695
-3.06335
-3.0588
-3.02544
-3.03882
-3.60718
-3.47855
-3.40592
-3.33973
-3.27573
-3.22135
-3.17885
-3.14678
-3.12256
-3.10634
-3.09382
-3.08757
-3.08186
-3.07913
-3.08627
-3.07127
-3.09072
-3.28585
-3.19871
-3.14858
-3.10889
-3.07125
-3.04047
-3.0184
-3.00423
-2.99554
-2.99316
-2.99197
-3.00529
-3.01223
-3.03075
-3.05243
-3.05335
-3.10063
-2.97116
-2.87389
-2.83885
-2.81452
-2.79383
-2.78026
-2.77334
-2.77141
-2.7732
-2.78651
-2.79852
-2.82899
-2.84731
-2.88829
-2.92187
-2.94907
-3.02772
-2.53806
-2.48517
-2.45963
-2.44552
-2.43495
-2.43029
-2.4317
-2.44127
-2.45369
-2.47725
-2.49907
-2.54234
-2.56851
-2.62972
-2.66747
-2.71953
-2.81923
-2.14814
-2.06753
-2.03848
-2.02033
-2.00661
-1.99949
-1.9991
-2.01157
-2.02948
-2.0568
-2.08179
-2.13145
-2.16231
-2.23725
-2.26597
-2.33974
-2.44149
-1.62168
-1.58096
-1.55073
-1.52883
-1.51052
-1.49703
-1.48946
-1.48787
-1.49875
-1.52263
-1.54553
-1.5894
-1.6145
-1.69098
-1.69925
-1.79558
-1.88532
-1.13717
-1.05417
-1.00964
-0.97257
-0.941804
-0.917205
-0.898513
-0.885156
-0.87782
-0.876284
-0.883533
-0.915152
-0.929957
-0.991165
-0.985007
-1.08224
-1.10015
-0.433617
-0.38779
-0.343548
-0.298663
-0.258102
-0.221779
-0.190429
-0.163406
-0.140953
-0.123105
-0.110385
-0.106037
-0.0990061
-0.135275
-0.118931
-0.186474
-0.160373
0.18177
0.316895
0.394859
0.468468
0.533361
0.593016
0.646264
0.6942
0.736012
0.772356
0.804667
0.830139
0.857084
0.863167
0.895448
0.860494
0.914407
0.994233
1.08462
1.18226
1.28539
1.38085
1.47195
1.55698
1.63778
1.7142
1.7872
1.85588
1.91819
1.98549
2.02711
2.10944
2.10528
2.2271
1.62619
1.84647
2.00049
2.14526
2.28095
2.41463
2.54515
2.67148
2.79295
2.91152
3.02441
3.13413
3.25084
3.32822
3.47657
3.49794
3.69596
2.54922
2.70144
2.87511
3.06866
3.25261
3.4329
3.60728
3.77737
3.94352
4.1067
4.26467
4.4228
4.58122
4.71132
4.9132
4.96566
5.24094
3.22851
3.56147
3.80758
4.04542
4.27193
4.49622
4.7146
4.92839
5.13813
5.34395
5.54475
5.74617
5.94411
6.12383
6.36232
6.45037
6.80187
4.23646
4.47977
4.75191
5.04032
5.3146
5.5829
5.84366
6.0989
6.34925
6.59429
6.83391
7.07326
7.30554
7.52451
7.78882
7.91647
8.329
4.94554
5.39244
5.72604
6.05258
6.3656
6.67262
6.9714
7.26322
7.54842
7.82698
8.10037
8.37245
8.63529
8.8914
9.18588
9.36029
9.80117
5.9815
6.32293
6.68548
7.0546
7.40716
7.74964
8.08118
8.40344
8.71719
9.02296
9.32352
9.62285
9.91423
10.2019
10.5092
10.7102
11.1612
6.71232
7.23581
7.64878
8.04816
8.43072
8.80168
9.15944
9.50618
9.84433
10.1751
10.499
10.816
11.1181
11.4133
11.7209
11.9327
12.3741
7.72809
8.14675
8.58233
9.01325
9.42272
9.81574
10.1934
10.5596
10.9137
11.2544
11.5836
11.9017
12.2033
12.4977
12.7973
13.0111
13.43
8.45413
9.03113
9.50159
9.9487
10.3733
10.7796
11.1687
11.5406
11.8955
12.2349
12.5604
12.8715
13.1651
13.4526
13.7355
13.9452
14.3347
9.42885
9.89777
10.3787
10.84
11.2727
11.6824
12.0703
12.4391
12.7875
13.1172
13.4317
13.7299
14.01
14.2839
14.5458
14.7468
15.1028
10.1411
10.7374
11.2284
11.6875
12.1167
12.5199
12.8986
13.2538
13.5899
13.9051
14.2022
14.4827
14.7453
15.0001
15.2387
15.4281
15.7472
11.0555
11.5429
12.0304
12.4851
12.9037
13.2922
13.6535
13.9902
14.3043
14.6007
14.8776
15.1362
15.3783
15.6112
15.8251
15.9999
16.2809
11.7437
12.3252
12.8009
13.2357
13.6342
14.001
14.3391
14.6521
14.9424
15.2119
15.4657
15.7006
15.9186
16.1276
16.3177
16.4749
16.7153
12.5985
13.0669
13.523
13.9355
14.3077
14.6468
14.9573
15.2428
15.5062
15.75
15.9759
16.1869
16.3807
16.5627
16.7265
16.8651
17.0662
13.2557
13.7832
14.2057
14.5823
14.9211
15.228
15.5077
15.7637
15.9986
16.2148
16.4139
16.597
16.7676
16.9258
17.0643
17.1811
17.3419
14.044
14.451
14.8366
15.1752
15.4765
15.7482
15.995
16.2201
16.4259
16.6142
16.7864
16.9428
17.0846
17.2162
17.3318
17.4299
17.5541
14.6743
15.1042
15.4392
15.7309
15.9916
16.2266
16.4394
16.6324
16.8076
16.9667
17.1107
17.24
17.3562
17.4596
17.5447
17.6167
17.7121
15.4253
15.7314
16.0174
16.2643
16.4843
16.6819
16.8595
17.0187
17.1615
17.2891
17.4023
17.5015
17.5877
17.66
17.7163
17.7655
17.8293
16.03
16.3288
16.5483
16.7429
16.9198
17.0779
17.2184
17.343
17.4537
17.5511
17.6351
17.7055
17.7623
17.805
17.8376
17.8736
17.9181
18.2331
18.7244
19.2652
19.701
20.1812
20.5822
21.0217
21.3884
21.7733
22.0943
22.4182
22.6871
22.9452
23.1562
23.3445
23.4921
23.6077
23.6871
23.7286
23.7363
23.7039
23.638
23.5332
23.3934
23.2195
23.0071
22.7686
22.4863
22.189
21.841
21.4912
21.0827
20.6873
20.225
19.7929
19.2883
18.8313
18.2885
17.7943
17.1914
16.665
18.3012
18.7629
19.1975
19.6208
20.0315
20.4271
20.8043
21.1627
21.5006
21.8153
22.1066
22.3708
22.6085
22.8157
22.993
23.1374
23.2487
23.3256
23.3671
23.3733
23.3432
23.2778
23.1766
23.0407
22.871
22.6676
22.4337
22.1683
21.876
21.5554
21.2117
20.8436
20.456
20.0485
19.6243
19.1843
18.7322
18.2702
17.794
17.3163
16.8149
18.3782
18.7817
19.167
19.5499
19.9207
20.2817
20.6266
20.9583
21.271
21.5665
21.8396
22.0909
22.3162
22.5154
22.6851
22.8249
22.9324
23.007
23.0475
23.0531
23.0241
22.96
22.8616
22.7293
22.5641
22.3677
22.1408
21.8865
21.6051
21.3008
20.9733
20.6277
20.263
19.885
19.4913
19.0886
18.6734
18.2547
17.8272
17.4036
16.9667
18.4592
18.8162
19.1563
19.5002
19.8342
20.161
20.4777
20.7833
21.075
21.3512
21.6091
21.8468
22.0618
22.2522
22.4155
22.5502
22.6543
22.7265
22.7657
22.7708
22.7423
22.6798
22.5836
22.4547
22.2942
22.1035
21.8843
21.6389
21.3693
21.0781
20.7674
20.4402
20.0983
19.7448
19.3814
19.0112
18.6348
18.2538
17.875
17.4952
17.1057
18.5369
18.8536
19.1534
19.4611
19.7639
20.0612
20.3516
20.634
20.9061
21.1652
21.4088
21.6344
21.8396
22.0219
22.1791
22.309
22.4096
22.4796
22.5177
22.5216
22.4938
22.4326
22.3386
22.2128
22.0564
21.8711
21.6589
21.4219
21.1627
20.8838
20.5879
20.2776
19.9557
19.6251
19.2882
18.9465
18.6004
18.2565
17.9155
17.5786
17.2326
18.6096
18.8878
19.1548
19.4295
19.7036
19.9778
20.2455
20.5071
20.761
21.0047
21.2352
21.4497
21.6458
21.8207
21.9721
22.0975
22.1949
22.2627
22.2997
22.3025
22.2752
22.215
22.123
22
21.8474
21.667
21.4609
21.2317
20.9818
20.7142
20.4314
20.1366
19.8328
19.5226
19.2072
18.8889
18.5725
18.2599
17.9505
17.6514
17.3465
18.677
18.9233
19.1603
19.4068
19.6548
19.905
20.155
20.3992
20.6366
20.866
21.0846
21.2892
21.477
21.6452
21.7912
21.9126
22.007
22.0727
22.1087
22.1104
22.0834
22.0242
21.9338
21.8132
21.664
21.4879
21.2874
21.065
20.8235
20.5658
20.2948
20.0141
19.7264
19.4328
19.1366
18.8419
18.5505
18.265
17.9846
17.7166
17.447
18.7426
18.9596
19.1695
19.3909
19.616
19.8453
20.0758
20.3061
20.5298
20.7464
20.9542
21.1499
21.3304
21.4926
21.6338
21.7515
21.8432
21.907
21.9419
21.9427
21.9159
21.8574
21.7684
21.6499
21.5036
21.3313
21.1356
20.9191
20.6849
20.4358
20.1755
19.9073
19.6323
19.354
19.0765
18.8021
18.5329
18.2716
18.0173
17.7772
17.5373
18.8045
18.9952
19.181
19.3801
19.5845
19.7951
20.0088
20.2236
20.4373
20.6436
20.8417
21.0295
21.2034
21.3604
21.4974
21.6118
21.7011
21.7632
21.7971
21.7972
21.7704
21.7125
21.6246
21.5078
21.3638
21.1948
21.0032
20.7918
20.5638
20.3225
20.0714
19.8125
19.5488
19.2851
19.0238
18.7675
18.5183
18.2786
18.0477
17.8326
17.6194
18.8614
19.0287
19.1933
19.3729
19.5594
19.7536
19.9527
20.1544
20.3562
20.5551
20.7453
20.9257
21.0937
21.2461
21.3795
21.4913
21.5786
21.6395
21.6725
21.672
21.6453
21.5877
21.5006
21.385
21.2427
21.0761
20.8878
20.6807
20.4583
20.2241
19.9802
19.7291
19.4767
19.2255
18.9784
18.7378
18.5057
18.2845
18.0743
17.8817
17.6921
18.9119
19.0585
19.2044
19.3672
19.5383
19.7184
19.9047
20.095
20.2868
20.4771
20.6614
20.8358
20.9985
21.1473
21.2782
21.3881
21.4742
21.5341
21.5665
21.5659
21.5389
21.4815
21.3947
21.2797
21.1384
20.9733
20.7871
20.5832
20.3657
20.1369
19.8983
19.656
19.413
19.1728
18.9379
18.7108
18.4934
18.288
18.0959
17.9233
17.7547
18.9549
19.0833
19.2126
19.3595
19.5165
19.6835
19.8583
20.0388
20.2222
20.4055
20.5857
20.757
20.917
21.0635
21.1928
21.3015
21.3867
21.4461
21.478
21.4773
21.4501
21.3926
21.3058
21.191
21.0501
20.8857
20.7007
20.4986
20.2829
20.0559
19.8222
19.5862
19.351
19.1197
18.8954
18.6806
18.4772
18.2874
18.1113
17.9565
17.8064
18.9885
19.1012
19.2173
19.3502
19.4951
19.6508
19.8158
19.9881
20.1648
20.3426
20.5183
20.6895
20.8498
20.9951
21.1229
21.2304
21.315
21.374
21.4057
21.405
21.3774
21.3197
21.2326
21.1177
20.977
20.8134
20.6293
20.4276
20.2101
19.9843
19.7539
19.5228
19.2934
19.0694
18.8539
18.6496
18.4583
18.2816
18.1202
17.9799
17.8458
19.012
19.1106
19.219
19.3428
19.4797
19.6278
19.7858
19.9508
20.1216
20.2951
20.4675
20.636
20.7948
20.9389
21.0658
21.1728
21.2572
21.3164
21.3479
21.3475
21.3196
21.2614
21.1738
21.0582
20.9173
20.7537
20.57
20.3686
20.1533
19.9297
19.7011
19.4734
19.2488
19.0316
18.8241
18.6274
18.4442
18.2759
18.1239
17.9918
17.8722
19.0303
19.113
19.2128
19.3267
19.4551
19.5965
19.7493
19.9088
20.0758
20.2462
20.4168
20.5828
20.7408
20.8862
21.0156
21.1252
21.2115
21.2718
21.304
21.3045
21.2762
21.2171
21.128
21.0106
20.8669
20.6998
20.5127
20.3102
20.095
19.8722
19.6456
19.4197
19.1987
18.9855
18.7837
18.5927
18.4169
18.2579
18.1168
17.9937
17.8908
19.0575
19.1164
19.1955
19.2923
19.4078
19.5399
19.6861
19.8455
20.0123
20.1809
20.3527
20.5196
20.6831
20.8343
20.9707
21.087
21.1778
21.2412
21.2754
21.2778
21.2488
21.188
21.0961
20.9745
20.8247
20.6495
20.4543
20.2447
20.0243
19.7974
19.5714
19.3443
19.1247
18.9107
18.7087
18.5249
18.3596
18.215
18.0929
17.9929
17.9164
19.1029
19.1267
19.1891
19.2765
19.3853
19.512
19.6534
19.8081
19.9716
20.1433
20.3156
20.4875
20.6516
20.8067
20.9456
21.0642
21.1595
21.227
21.2637
21.2675
21.2382
21.1755
21.0802
20.954
20.8003
20.6227
20.4248
20.2105
19.9875
19.7578
19.5256
19.2976
19.0753
18.8657
18.6695
18.4911
18.3316
18.1945
18.0829
18.0005
17.9585
-2.08886
-2.2355
-2.5994
-3.23058
-3.72705
-4.32781
-4.91913
-5.57941
-6.26749
-7.00948
-7.85341
-8.84437
-9.96358
-11.1013
-12.1467
-13.1135
-14.0376
-2.47468
-3.08678
-3.33912
-4.01057
-4.4596
-5.04561
-5.5992
-6.21564
-6.84333
-7.53691
-8.34485
-9.24235
-10.19
-11.0754
-11.9252
-12.6675
-13.2161
-3.15259
-3.94894
-4.15692
-4.77897
-5.20732
-5.75162
-6.26675
-6.82239
-7.39192
-8.04364
-8.77757
-9.54474
-10.2755
-10.942
-11.5854
-12.2488
-13.0085
-3.92706
-4.7169
-4.9469
-5.5061
-5.91038
-6.3992
-6.86034
-7.34941
-7.87255
-8.47852
-9.10653
-9.70588
-10.2277
-10.7241
-11.1645
-11.599
-12.1338
-4.76103
-5.47149
-5.70365
-6.19369
-6.55729
-6.97984
-7.38267
-7.81726
-8.30778
-8.81854
-9.29451
-9.69535
-10.0783
-10.4403
-10.7806
-11.0391
-11.2756
-5.574
-6.18869
-6.40576
-6.81396
-7.13143
-7.48313
-7.83519
-8.22683
-8.62869
-8.98825
-9.28425
-9.56334
-9.82996
-10.099
-10.3386
-10.588
-10.9697
-6.33486
-6.8331
-7.0344
-7.35319
-7.61575
-7.89843
-8.206
-8.50098
-8.74919
-8.95711
-9.14668
-9.33477
-9.52571
-9.69198
-9.80658
-9.9247
-10.1697
-7.04271
-7.38244
-7.54849
-7.76892
-7.98008
-8.19765
-8.38845
-8.54157
-8.67398
-8.80066
-8.93003
-9.05434
-9.16624
-9.25917
-9.30609
-9.29911
-9.34865
-7.58689
-7.77885
-7.91037
-8.03216
-8.16675
-8.26516
-8.34403
-8.42306
-8.50173
-8.57707
-8.64325
-8.69823
-8.74248
-8.7783
-8.78919
-8.80357
-8.97822
-7.92264
-7.98311
-8.06408
-8.09906
-8.13322
-8.16847
-8.19963
-8.22685
-8.24824
-8.26422
-8.27254
-8.27044
-8.25198
-8.23464
-8.16918
-8.09281
-8.17173
-8.03509
-8.00434
-8.01762
-8.00112
-7.98722
-7.96809
-7.94486
-7.92249
-7.8917
-7.85858
-7.81856
-7.76633
-7.70349
-7.65287
-7.5516
-7.34309
-7.27113
-7.96185
-7.83768
-7.80994
-7.73541
-7.67338
-7.61474
-7.54774
-7.48484
-7.41137
-7.33791
-7.25815
-7.17017
-7.07809
-6.99943
-6.88044
-6.72109
-6.79148
-7.64921
-7.47506
-7.40525
-7.29862
-7.20019
-7.11258
-7.00833
-6.9134
-6.80642
-6.70251
-6.59333
-6.47679
-6.35477
-6.24217
-6.09377
-5.9282
-5.94199
-7.12145
-6.91175
-6.81443
-6.6922
-6.56112
-6.45096
-6.31818
-6.20303
-6.07707
-5.95797
-5.83562
-5.70788
-5.57835
-5.46392
-5.31485
-5.08434
-4.94976
-6.37563
-6.1425
-6.02066
-5.89278
-5.73613
-5.62094
-5.4766
-5.35564
-5.22575
-5.10421
-4.9812
-4.85765
-4.74106
-4.63808
-4.50126
-4.34093
-4.37742
-5.36954
-5.16319
-5.0191
-4.90926
-4.74303
-4.63727
-4.49943
-4.38691
-4.26684
-4.15384
-4.04021
-3.92692
-3.81762
-3.70959
-3.57844
-3.47841
-3.49649
-4.15092
-3.98038
-3.81527
-3.74744
-3.60013
-3.51989
-3.405
-3.31209
-3.21389
-3.12253
-3.0331
-2.94511
-2.86148
-2.78071
-2.68258
-2.57342
-2.49083
-2.67936
-2.62051
-2.47134
-2.45109
-2.33151
-2.27559
-2.19205
-2.12863
-2.06292
-2.00312
-1.94781
-1.89632
-1.85274
-1.81415
-1.7716
-1.75669
-1.81696
-1.07244
-1.09881
-0.994141
-1.00583
-0.929308
-0.912143
-0.869854
-0.844697
-0.820916
-0.800702
-0.784543
-0.770276
-0.76018
-0.750695
-0.741396
-0.747899
-0.794303
0.604013
0.542148
0.592383
0.558675
0.560141
0.540754
0.530111
0.513121
0.49341
0.470748
0.444657
0.415979
0.383598
0.349221
0.315856
0.296653
0.293349
2.42668
2.27914
2.2878
2.19163
2.15765
2.0829
2.01879
1.95015
1.88004
1.80872
1.73481
1.65823
1.5745
1.48342
1.38229
1.27525
1.10037
4.3177
4.07971
4.05948
3.88115
3.80127
3.67081
3.55284
3.43215
3.3082
3.18446
3.05951
2.93465
2.80983
2.69547
2.57803
2.44056
2.23717
6.18902
5.87017
5.81647
5.58505
5.44428
5.26832
5.09788
4.92879
4.75562
4.58155
4.40466
4.22367
4.03846
3.8549
3.66396
3.51346
3.44062
7.99016
7.59486
7.5052
7.23932
7.04789
6.83282
6.61742
6.40498
6.18869
5.9709
5.75133
5.52903
5.30137
5.06428
4.80159
4.53491
4.19182
9.67875
9.23036
9.10262
8.81441
8.58535
8.33944
8.08734
7.83716
7.58232
7.3237
7.06211
6.79764
6.5303
6.26552
6.00167
5.73597
5.35413
11.2474
10.7767
10.6057
10.2951
10.0341
9.76374
9.48338
9.20332
8.9181
8.62692
8.33053
8.02766
7.7157
7.39754
7.0716
6.772
6.54458
12.6573
12.1846
11.9876
11.6685
11.3789
11.0877
10.7872
10.4858
10.1789
9.86388
9.54153
9.21209
8.87404
8.52474
8.14756
7.74841
7.2857
13.8849
13.43
13.2241
12.9107
12.6144
12.3125
11.9971
11.6789
11.3568
11.0258
10.6843
10.3324
9.9706
9.60112
9.22669
8.85047
8.33358
14.9328
14.5085
14.3031
14.0036
13.7122
13.4157
13.1024
12.7788
12.4462
12.1059
11.7544
11.3895
11.0093
10.6131
10.2008
9.78885
9.46039
15.8145
15.4255
15.2257
14.9489
14.6678
14.3834
14.0816
13.7665
13.4391
13.0972
12.7432
12.3749
11.9902
11.588
11.1556
10.6848
10.1682
16.5456
16.1959
16.0074
15.7568
15.4924
15.224
14.939
14.6393
14.325
13.994
13.6466
13.2824
12.8992
12.4974
12.0785
11.6507
11.0711
17.148
16.8402
16.663
16.4378
16.1963
15.9485
15.6845
15.4047
15.1083
14.7955
14.4639
14.1131
13.7402
13.342
12.917
12.4747
12.0991
17.6354
17.3706
17.2096
17.0107
16.7933
16.5677
16.327
16.0699
15.7974
15.507
15.1974
14.8674
14.5143
14.1357
13.7218
13.2546
12.7471
18.0261
17.8041
17.6605
17.4862
17.2937
17.0931
16.8775
16.6462
16.4002
16.1361
15.853
15.5488
15.2208
14.8668
14.4847
14.0812
13.5195
18.333
18.1517
18.0273
17.8793
17.7142
17.5387
17.3479
17.1441
16.9246
16.6888
16.4347
16.1604
15.8629
15.5375
15.1793
14.7894
14.4418
18.5713
18.4288
18.3258
18.2027
18.0617
17.9093
17.7455
17.5674
17.3754
17.1682
16.9443
16.7019
16.4385
16.1511
15.8307
15.4525
15.0315
18.7535
18.6434
18.5585
18.4573
18.3406
18.2154
18.0774
17.9257
17.7608
17.5823
17.389
17.1793
16.9512
16.7027
16.4302
16.1405
15.6931
18.8879
18.8026
18.7407
18.6671
18.5771
18.4758
18.3633
18.2386
18.1019
17.9529
17.7909
17.6147
17.4231
17.2124
16.9808
16.7278
16.511
18.9888
18.9312
18.8877
18.8389
18.7766
18.7029
18.6185
18.523
18.4162
18.2984
18.1692
18.0274
17.8726
17.7024
17.5177
17.2835
17.0535
19.0687
19.023
18.9892
18.9604
18.9239
18.8764
18.8181
18.7495
18.671
18.5833
18.4868
18.3812
18.2648
18.1377
18.0049
17.8509
17.6108
-16.7218
-18.9524
-21.6026
-25.1406
-30.497
-36.4199
-44.1897
-49.8812
-50.2585
-43.8531
-31.7295
-16.2742
-3.1017
4.68228
7.55646
6.47102
3.11446
0.41242
-1.59988
-3.04156
-17.7811
-20.4376
-23.5286
-27.9595
-34.5575
-41.8348
-50.7269
-56.2577
-55.697
-47.9469
-34.2153
-17.9937
-4.25879
4.2179
7.7212
6.56934
3.16184
0.272835
-1.924
-3.47846
-18.8401
-21.8347
-25.3591
-30.7752
-37.5437
-46.5935
-55.1705
-59.8165
-58.4857
-50.1325
-35.8087
-19.71
-5.99733
2.91189
7.19737
6.37522
2.86968
-0.213816
-2.5013
-4.10547
-19.8932
-23.1231
-27.1155
-33.2778
-40.0699
-49.9395
-57.2249
-60.6063
-58.7346
-50.4185
-36.5617
-21.426
-8.27581
0.837575
5.83323
5.49845
2.08219
-1.07697
-3.34726
-4.93492
-20.8809
-24.2625
-28.7352
-34.7494
-42.3916
-51.2534
-56.7804
-59.0518
-56.9053
-49.1108
-36.5734
-23.0759
-10.9864
-1.9626
3.57941
3.88253
0.757829
-2.383
-4.52238
-6.01415
-21.7525
-25.2365
-30.0288
-35.4284
-43.6934
-50.475
-54.3835
-55.8898
-53.6508
-46.7387
-36.1304
-24.6777
-14.0603
-5.48974
0.350947
1.36591
-1.22295
-4.20373
-6.07053
-7.37101
-22.4751
-26.0401
-30.8004
-36.2446
-43.5566
-48.1427
-50.8648
-51.8209
-49.6697
-43.9152
-35.4962
-26.2744
-17.4531
-9.74488
-3.92926
-2.19802
-3.98913
-6.59984
-8.02903
-9.02604
-23.0779
-26.6476
-30.84
-36.5367
-41.8795
-44.882
-46.9229
-47.4501
-45.5728
-41.1264
-34.8866
-27.9078
-21.106
-14.676
-9.28758
-6.92816
-7.71069
-9.6278
-10.4361
-11.0239
-23.6126
-27.0998
-30.7519
-35.8231
-39.1942
-41.3238
-42.9913
-43.2666
-41.808
-38.6695
-34.4306
-29.6194
-24.9267
-20.1258
-15.6202
-12.8288
-12.5747
-13.26
-13.372
-13.4734
-24.0145
-26.9848
-30.5451
-34.3305
-36.3747
-38.0866
-39.4053
-39.6142
-38.6835
-36.7657
-34.2416
-31.3553
-28.6904
-25.7727
-22.5975
-19.8767
-18.438
-17.5985
-17.023
-16.348
-24.4004
-26.7614
-29.9863
-32.2904
-33.7104
-35.3393
-36.4009
-36.6814
-36.285
-35.3958
-34.2846
-33.0629
-32.2021
-31.1371
-29.5877
-27.4758
-25.1836
-22.8296
-21.3853
-19.6946
-24.4533
-26.624
-28.9981
-30.3536
-31.6387
-33.159
-34.0873
-34.5251
-34.623
-34.5525
-34.5125
-34.5723
-35.104
-35.5741
-35.6838
-34.6246
-32.2706
-28.9805
-25.9873
-23.4765
-24.6019
-26.3064
-27.7434
-28.82
-30.2442
-31.5762
-32.4657
-33.0963
-33.6017
-34.1293
-34.8182
-35.7337
-37.1485
-38.7081
-39.9316
-40.1789
-38.5714
-35.224
-30.9338
-27.7979
-25.5706
-26.0316
-26.7857
-27.9514
-29.4093
-30.5701
-31.4721
-32.275
-33.0747
-33.9772
-35.0821
-36.4588
-38.2559
-40.3026
-42.1896
-43.2458
-42.7763
-40.27
-36.2153
-32.217
-26.7654
-26.0298
-26.3848
-27.7068
-29.026
-30.0615
-30.9927
-31.9143
-32.884
-33.9657
-35.2383
-36.7491
-38.5697
-40.6258
-42.6377
-44.091
-44.453
-43.3052
-40.7519
-37.0624
-26.7587
-26.0542
-26.4448
-27.7252
-28.8842
-29.8892
-30.8562
-31.8345
-32.8663
-34.0025
-35.2805
-36.7445
-38.3797
-40.155
-41.9589
-43.4653
-44.2643
-44.1627
-43.3363
-41.4966
-26.1631
-26.0916
-26.8668
-27.9723
-28.9852
-29.9584
-30.9292
-31.9147
-32.935
-34.0136
-35.1901
-36.4742
-37.8592
-39.3171
-40.7858
-42.1085
-43.0062
-43.3267
-43.6077
-43.6745
-25.9133
-26.5141
-27.449
-28.4189
-29.3555
-30.2749
-31.183
-32.0847
-32.9942
-33.9617
-34.9929
-36.0913
-37.2489
-38.4383
-39.61
-40.6861
-41.5368
-42.0414
-42.5593
-43.1402
-26.5452
-27.3627
-28.2559
-29.0937
-29.8858
-30.626
-31.3374
-32.0661
-32.8466
-33.6709
-34.5468
-35.4794
-36.4673
-37.4982
-38.5326
-39.5098
-40.3647
-41.0517
-41.5947
-41.7489
-28.1154
-28.6072
-29.1075
-29.5939
-30.0803
-30.5735
-31.0894
-31.6356
-32.218
-32.8535
-33.5518
-34.3138
-35.1466
-36.0446
-36.979
-37.9101
-38.7732
-39.5128
-40.1088
-40.5478
-40.6703
-40.7224
-40.9148
-39.4249
-36.7803
-33.3206
-29.7946
-26.1502
-22.6019
-19.4026
-16.5461
-14.0044
-11.7629
-9.88638
-8.33741
-7.06387
-6.02614
-5.19672
-4.53653
-4.03683
-40.9065
-40.5589
-40.5151
-38.7681
-35.6164
-31.4831
-28.2302
-24.9225
-21.7006
-18.7976
-16.226
-13.9648
-12.0177
-10.329
-8.88042
-7.67937
-6.686
-5.87123
-5.20404
-4.6821
-41.2036
-40.3851
-39.7145
-37.6119
-33.8804
-29.8642
-26.7114
-23.6279
-20.7098
-18.0837
-15.7457
-13.6777
-11.8787
-10.3254
-9.00548
-7.87621
-6.9251
-6.13433
-5.47666
-4.9512
-41.5419
-40.2942
-38.8425
-36.5015
-32.0591
-28.381
-25.2589
-22.3147
-19.6131
-17.189
-15.0308
-13.1274
-11.4678
-10.0311
-8.79482
-7.73403
-6.83139
-6.06614
-5.41994
-4.88508
-41.9032
-40.3496
-37.8945
-35.1983
-30.3111
-26.8761
-23.808
-20.9572
-18.3993
-16.1279
-14.117
-12.3486
-10.8054
-9.46636
-8.30912
-7.31271
-6.4592
-5.72525
-5.10447
-4.57294
-42.2673
-40.8933
-37.2764
-33.9254
-28.8211
-25.3306
-22.2844
-19.5216
-17.0661
-14.9094
-13.0178
-11.3622
-9.91987
-8.66838
-7.58611
-6.65384
-5.85187
-5.1609
-4.58535
-4.07363
-42.5957
-41.6741
-36.8753
-32.5362
-27.4642
-23.7665
-20.6661
-17.9752
-15.6011
-13.5371
-11.7452
-10.1873
-8.83462
-7.66357
-6.65333
-5.78385
-5.03466
-4.39941
-3.87323
-3.38521
-42.8897
-42.3371
-36.4341
-30.7954
-25.9984
-22.1375
-18.9353
-16.2921
-13.9897
-12.0097
-10.3061
-8.83627
-7.5664
-6.47139
-5.52977
-4.7193
-4.02551
-3.45107
-2.95551
-2.50321
-43.1721
-42.5246
-35.7884
-28.7964
-24.2208
-20.3295
-17.0584
-14.4541
-12.2204
-10.3241
-8.70483
-7.31932
-6.12914
-5.1076
-4.23052
-3.47626
-2.8402
-2.31286
-1.82655
-1.45759
-43.4301
-42.0737
-34.7069
-26.7113
-22.1415
-18.2916
-15.0068
-12.4473
-10.2852
-8.47815
-6.94588
-5.64584
-4.53586
-3.5869
-2.77226
-2.0756
-1.4945
-0.991699
-0.521457
-0.25872
-43.5982
-40.8937
-33.3445
-24.5629
-19.8118
-16.0041
-12.7527
-10.2578
-8.17962
-6.47227
-5.03522
-3.82632
-2.80024
-1.92538
-1.1755
-0.539843
-0.00516119
0.481921
0.901675
1.08205
-43.6223
-38.9972
-31.5927
-22.2779
-17.209
-13.4394
-10.2724
-7.87646
-5.90387
-4.31151
-2.98274
-1.87422
-0.938432
-0.142204
0.537675
1.11062
1.60506
2.06791
2.41126
2.54508
-43.2601
-35.956
-28.6504
-19.57
-14.2922
-10.5932
-7.55965
-5.30513
-3.46657
-2.00762
-0.803222
0.193294
1.03037
1.74118
2.34529
2.85523
3.31141
3.74174
4.01626
4.11648
-42.5113
-31.9813
-24.6994
-16.3146
-11.0642
-7.49667
-4.63065
-2.55631
-0.883052
0.422253
1.48522
2.35711
3.08565
3.70235
4.22418
4.66857
5.08084
5.46628
5.6794
5.77117
-41.9774
-27.654
-20.5456
-12.6755
-7.57188
-4.18195
-1.50626
0.355861
1.83
2.95875
3.86266
4.59591
5.20438
5.71715
6.14966
6.52354
6.88247
7.21213
7.37151