/*--------------------------------*- C++ -*----------------------------------*\
  =========                 |
  \\      /  F ield         | OpenFOAM: The Open Source CFD Toolbox
   \\    /   O peration     | Website:  https://openfoam.org
    \\  /    A nd           | Version:  6
     \\/     M anipulation  |
\*---------------------------------------------------------------------------*/
FoamFile
{
    version     2.0;
    format      ascii;
    class       volScalarField;
    location    "2.24";
    object      k;
}
// * * * * * * * * * * * * * * * * * * * * * * * * * * * * * * * * * * * * * //

dimensions      [0 2 -2 0 0 0 0];

internalField   nonuniform List<scalar> 
4214
(
0.0327954
0.0258912
0.024348
0.0244621
0.0249674
0.025533
0.0261368
0.0268493
0.0277561
0.0289703
0.030594
0.032787
0.0357393
0.0396724
0.0448335
0.0514877
0.0597593
0.0694306
0.079766
0.0908841
0.109051
0.11976
0.0939384
0.0677515
0.0510517
0.0413095
0.0356476
0.0322452
0.0300833
0.028627
0.0275956
0.0268352
0.0262573
0.025804
0.0254387
0.0251068
0.0247501
0.0244055
0.024438
0.0261235
0.0330248
0.0237765
0.0233583
0.023812
0.0244118
0.0249784
0.0255234
0.0261116
0.0268215
0.0277394
0.0289708
0.0306473
0.0329485
0.0361056
0.0404025
0.0461754
0.0538039
0.0635362
0.0750694
0.0872641
0.0990106
0.115673
0.125505
0.0967547
0.0685569
0.0511018
0.0412015
0.0355599
0.0322054
0.0300812
0.0286498
0.0276345
0.0268851
0.0263161
0.0258735
0.0255181
0.0251978
0.024848
0.0244139
0.0238996
0.0235161
0.0239672
0.0226797
0.0232013
0.0238457
0.0244223
0.0249351
0.0254426
0.026013
0.0267197
0.0276461
0.0289003
0.0306284
0.0330337
0.03639
0.0410473
0.0474372
0.0560697
0.067332
0.0809913
0.0956638
0.10869
0.12345
0.131204
0.0993562
0.06924
0.0511743
0.0411621
0.0355419
0.0322196
0.0301166
0.0286968
0.0276876
0.0269423
0.0263773
0.0259399
0.0255892
0.0252767
0.0249462
0.0245396
0.0240126
0.0233872
0.0228738
0.0226672
0.0232961
0.0238803
0.0243753
0.0248288
0.0253015
0.025856
0.026561
0.0274996
0.0287829
0.0305698
0.0330881
0.0366541
0.0416845
0.0487079
0.0583586
0.0712128
0.087238
0.104936
0.119988
0.132778
0.137128
0.10187
0.0699304
0.0513265
0.0412247
0.035613
0.0323016
0.0302
0.0287762
0.0277618
0.0270126
0.0264459
0.0260089
0.0256589
0.0253501
0.0250336
0.0246586
0.0241772
0.0235673
0.0229048
0.0227659
0.0233317
0.0238208
0.0242395
0.0246426
0.0250872
0.0256313
0.0263412
0.0273012
0.0286288
0.0304965
0.0331569
0.03697
0.0424177
0.0501268
0.0608616
0.0753924
0.0939615
0.115179
0.132902
0.143447
0.142884
0.104195
0.0705763
0.0515708
0.0414031
0.0357872
0.0324639
0.0303421
0.028897
0.027864
0.0271009
0.0265249
0.026081
0.0257247
0.0254128
0.0251013
0.024746
0.024304
0.0237439
0.0230921
0.022797
0.0232658
0.023664
0.0240162
0.0243773
0.0248009
0.0253422
0.0260671
0.0270637
0.0284585
0.0304428
0.0332982
0.0374326
0.0433936
0.0519029
0.0638385
0.0801603
0.101452
0.126657
0.147485
0.155445
0.148453
0.106319
0.0712444
0.0519383
0.0417287
0.0360901
0.0327276
0.030561
0.0290744
0.0280073
0.027218
0.0266221
0.0261626
0.0257937
0.0254728
0.0251591
0.0248137
0.0243985
0.0238825
0.0232733
0.0227183
0.023088
0.0234045
0.0237008
0.0240294
0.0244413
0.0249906
0.0257453
0.0268004
0.0282962
0.0304516
0.0335845
0.0381616
0.0447935
0.0542919
0.0676191
0.0858996
0.110151
0.139797
0.163905
0.168557
0.154044
0.108225
0.0719689
0.0524715
0.042228
0.0365434
0.0331132
0.0308752
0.0293253
0.0282066
0.0273765
0.0267486
0.0262632
0.0258728
0.0255354
0.0252122
0.0248679
0.0244687
0.023986
0.0234192
0.0225163
0.0227934
0.0230399
0.0232922
0.0235998
0.024012
0.024584
0.0253879
0.0265316
0.0281754
0.0305802
0.0341101
0.0393101
0.0468454
0.0576121
0.0726079
0.0930886
0.120611
0.155029
0.182369
0.182449
0.159565
0.109972
0.0728157
0.0531895
0.0429264
0.0371743
0.0336442
0.0313046
0.0296675
0.0284789
0.0275936
0.0269209
0.0263982
0.0259762
0.025613
0.0252718
0.0249197
0.0245263
0.0240656
0.0235338
0.0221808
0.022378
0.0225693
0.0227922
0.0230936
0.0235215
0.0241348
0.0250127
0.0262854
0.0281408
0.0309058
0.0349985
0.041076
0.0498336
0.0622511
0.0792838
0.102297
0.133446
0.172917
0.20307
0.196525
0.16448
0.111625
0.0737883
0.0541467
0.0438674
0.0380108
0.0343376
0.0318591
0.0301062
0.0288274
0.0278727
0.0271448
0.0265757
0.0261136
0.0257162
0.0253479
0.0249786
0.0245812
0.0241323
0.0236266
0.0217044
0.0218404
0.0219962
0.0222083
0.0225213
0.0229833
0.0236608
0.0246441
0.0261006
0.028252
0.0315331
0.0364087
0.0437126
0.0541029
0.0686691
0.0881967
0.114196
0.149407
0.194143
0.226044
0.20999
0.169051
0.11319
0.074994
0.0554296
0.045108
0.0390858
0.035209
0.0325418
0.0306338
0.0292343
0.0281874
0.0273879
0.0267612
0.0262516
0.0258154
0.0254176
0.02503
0.0246278
0.0241886
0.023705
0.0210845
0.0211843
0.0213285
0.0215513
0.0218965
0.0224135
0.0231843
0.0243122
0.0260291
0.0285856
0.0325997
0.0385362
0.047534
0.0600521
0.0773987
0.0999492
0.129519
0.169385
0.219183
0.251006
0.222326
0.173255
0.11484
0.0766073
0.0571737
0.0467388
0.0404578
0.0362972
0.03338
0.0312713
0.0297174
0.028553
0.027663
0.0269646
0.026397
0.0259144
0.0254815
0.025071
0.0246605
0.0242293
0.0237683
0.020321
0.0204157
0.0205761
0.0208335
0.0212348
0.0218305
0.0227334
0.0240541
0.0261394
0.0292339
0.0342808
0.0416018
0.0529139
0.0681051
0.0890286
0.115187
0.149095
0.194118
0.248148
0.277339
0.233284
0.177065
0.116857
0.0788966
0.0595794
0.0488945
0.0422197
0.0376695
0.034423
0.0320546
0.0303021
0.0289874
0.0279826
0.027195
0.0265575
0.0260203
0.0255468
0.0251097
0.0246874
0.0242601
0.0238173
0.0194209
0.0195452
0.0197525
0.0200692
0.020555
0.0212554
0.0223444
0.0239123
0.0265203
0.0302956
0.0367891
0.0458224
0.0602722
0.0786628
0.104212
0.134612
0.173864
0.224247
0.280675
0.303963
0.243208
0.18066
0.119648
0.0822315
0.0629056
0.0517358
0.0444799
0.0393954
0.0357178
0.0330147
0.0310088
0.0295037
0.0283549
0.0274577
0.026736
0.0261347
0.0256138
0.0251448
0.0247057
0.0242766
0.0238448
0.0184076
0.018596
0.0188817
0.0192795
0.0198849
0.0207137
0.0220674
0.0239302
0.027284
0.0318535
0.0403717
0.0513556
0.0700654
0.0920388
0.123696
0.158914
0.204686
0.260193
0.315844
0.329946
0.252864
0.184581
0.123829
0.0870503
0.0674508
0.0554277
0.0473627
0.0415462
0.0373124
0.034179
0.0318552
0.0301129
0.0287871
0.0277569
0.0269345
0.0262572
0.0256797
0.0251708
0.0247068
0.0242666
0.0238355
0.0173387
0.0176138
0.018008
0.0184966
0.0192687
0.0202326
0.0219712
0.0241359
0.0285697
0.0339322
0.0453111
0.0582187
0.0827967
0.108378
0.148346
0.188563
0.242268
0.301797
0.351791
0.354449
0.26319
0.189879
0.130281
0.0937801
0.0735508
0.0601475
0.0510372
0.0442025
0.0392741
0.0355742
0.0328602
0.0308242
0.0292841
0.0280943
0.027152
0.026384
0.0257377
0.0251778
0.0246772
0.0242131
0.0237682
0.0163112
0.0166607
0.0171976
0.0177528
0.0187707
0.0198239
0.0221505
0.0245088
0.0305532
0.0364305
0.0519458
0.066185
0.0990834
0.127553
0.17917
0.223643
0.287337
0.347911
0.384992
0.376282
0.275055
0.197303
0.139845
0.102754
0.0816316
0.0661377
0.0558143
0.0474955
0.041768
0.0372442
0.0340706
0.0316454
0.0298542
0.0284701
0.0273871
0.0265095
0.0257805
0.0251543
0.0246019
0.0240952
0.0236169
0.0154322
0.0157666
0.016533
0.0170433
0.0184849
0.0194432
0.0227446
0.0249158
0.0334772
0.0390245
0.0607324
0.0746552
0.119806
0.148979
0.217495
0.263946
0.340324
0.396197
0.411421
0.396061
0.288466
0.20601
0.152749
0.114016
0.0922242
0.0737689
0.062351
0.0517203
0.045343
0.0393689
0.0357986
0.0326296
0.0305919
0.0288956
0.0276611
0.0266377
0.02581
0.0250942
0.0244703
0.0238984
0.0233657
0.0228504
0.0231571
0.0233368
0.0234118
0.0234134
0.0233679
0.0232945
0.0232037
0.0230992
0.0229788
0.0228372
0.0226739
0.0225088
0.0224637
0.0230127
0.0268223
0.0535889
0.0222859
0.02265
0.0228776
0.0229842
0.0230047
0.0229678
0.0228977
0.0228095
0.0227126
0.0226118
0.0225135
0.0224367
0.0224408
0.02273
0.0239378
0.0290692
0.0562221
0.021688
0.022111
0.0223838
0.0225257
0.0225714
0.0225516
0.0224965
0.0224271
0.0223598
0.0223098
0.0222975
0.022368
0.0226241
0.0233454
0.0253382
0.0319746
0.0585922
0.0210543
0.0215297
0.0218527
0.0220356
0.0221153
0.0221245
0.0220987
0.0220666
0.0220536
0.0220875
0.0222112
0.022487
0.0230647
0.024296
0.027153
0.0354443
0.0611365
0.0203614
0.020899
0.0212749
0.0215067
0.0216295
0.0216792
0.0216956
0.0217166
0.0217801
0.0219334
0.0222276
0.0227568
0.0237136
0.0255168
0.0293195
0.0394884
0.0638441
0.0196127
0.0202089
0.0206439
0.0209308
0.0211041
0.0212025
0.0212706
0.0213557
0.0215115
0.021797
0.0222837
0.0230971
0.0244699
0.0268942
0.0317239
0.0436955
0.0666642
0.0187828
0.0194498
0.0199478
0.0202962
0.020527
0.0206795
0.020803
0.0209543
0.0212012
0.0216163
0.0222956
0.0233956
0.0251959
0.0282706
0.0341626
0.0477448
0.0694958
0.0178817
0.0186097
0.0191769
0.0195937
0.0198869
0.0200965
0.0202741
0.0204838
0.0208051
0.0213273
0.0221735
0.0235336
0.0257344
0.0294449
0.0363533
0.0513113
0.0722097
0.0168982
0.0176843
0.01832
0.0188107
0.0191734
0.0194432
0.0196715
0.019926
0.0202953
0.0208848
0.0218426
0.023397
0.0259322
0.0302031
0.0380054
0.054089
0.0746552
0.0158603
0.0166747
0.0173691
0.0179337
0.0183724
0.0187088
0.0189878
0.0192761
0.019666
0.0202747
0.0212698
0.0229142
0.0256521
0.0303346
0.0388549
0.0558203
0.0766964
0.014784
0.0156009
0.016329
0.0169551
0.0174688
0.0178787
0.0182154
0.0185364
0.0189303
0.019517
0.0204729
0.022083
0.0248423
0.0297052
0.0386665
0.0562503
0.078229
0.0137076
0.0144929
0.0152229
0.0158838
0.0164576
0.0169402
0.0173436
0.017708
0.0181076
0.0186541
0.0195197
0.0209899
0.0235716
0.0283241
0.0373342
0.0552358
0.0791265
0.0126734
0.0133909
0.0140876
0.0147506
0.0153587
0.0158978
0.0163678
0.0167884
0.0172108
0.0177267
0.0184907
0.0197706
0.0220548
0.0263821
0.0349332
0.0528724
0.0792804
0.0117159
0.0123438
0.0129769
0.0136053
0.0142108
0.014779
0.0153009
0.0157794
0.0162423
0.0167572
0.0174511
0.0185546
0.0205097
0.0242165
0.0317758
0.0494314
0.0786631
0.0108599
0.0113793
0.0119313
0.0125007
0.0130747
0.0136404
0.0141877
0.0147129
0.0152277
0.0157747
0.0164495
0.0174429
0.019136
0.0223235
0.0289029
0.0452332
0.0773851
0.0101276
0.0105327
0.0109838
0.0114734
0.0119913
0.0125281
0.013076
0.0136304
0.0141955
0.0147975
0.0155074
0.0164858
0.0180823
0.0210734
0.0273015
0.0416144
0.075674
0.00953662
0.00982612
0.0101696
0.0105629
0.0110021
0.0114821
0.0120012
0.0125579
0.0131569
0.0138183
0.0145986
0.0156375
0.0172711
0.0203038
0.0267308
0.0417486
0.0737695
0.00909457
0.00928428
0.00952393
0.00981462
0.010158
0.0105565
0.0110144
0.0115369
0.0121332
0.0128259
0.0136673
0.0147868
0.0165143
0.0196802
0.0263658
0.0415955
0.0717718
0.00879332
0.00890645
0.00905781
0.00925471
0.00950221
0.00980738
0.0101802
0.0106329
0.0111823
0.0118553
0.0127054
0.0138548
0.0156194
0.0188418
0.0257619
0.0418126
0.0699055
0.00861442
0.00867608
0.00876465
0.00888791
0.00905197
0.00926739
0.00954775
0.00991059
0.0103793
0.0109862
0.0117848
0.0128859
0.0145697
0.0176414
0.0245081
0.0415263
0.0683172
0.0085356
0.00856889
0.00861842
0.0086925
0.00879588
0.00893893
0.00913599
0.00940692
0.00977875
0.0102891
0.0109937
0.0119906
0.0135068
0.0162113
0.0224383
0.0394718
0.0669616
0.00853508
0.00855644
0.00858743
0.0086347
0.00870091
0.00879449
0.00892798
0.00912032
0.009399
0.00980396
0.0103939
0.0112609
0.0125845
0.0148514
0.0199486
0.0352144
0.0656204
0.00859671
0.0086197
0.00864605
0.00868294
0.00873099
0.00879625
0.0088883
0.00902294
0.00922479
0.00953213
0.010004
0.0107319
0.0118726
0.0137679
0.0177125
0.0297912
0.0640175
0.00870945
0.00874144
0.00877414
0.00881271
0.00885665
0.00891009
0.00897975
0.00907773
0.00922417
0.0094526
0.00981834
0.010411
0.0113803
0.0129986
0.0161549
0.0252923
0.0620305
0.00886579
0.00891555
0.00896146
0.00900986
0.00905954
0.00911308
0.00917489
0.00925361
0.00936468
0.0095356
0.00981497
0.010287
0.0110974
0.012495
0.0151151
0.0222465
0.0598389
0.00906328
0.00913311
0.00919871
0.00926407
0.00932759
0.00939069
0.00945603
0.00952943
0.00962211
0.00975541
0.00996991
0.0103411
0.0110088
0.0122174
0.0144945
0.0204007
0.0578383
0.00929335
0.0093917
0.00948183
0.00956954
0.00965338
0.00973394
0.00981235
0.00989213
0.00998084
0.0100942
0.0102645
0.0105566
0.0111003
0.0121403
0.0141794
0.0194079
0.0563942
0.00955715
0.00968477
0.00980479
0.00992084
0.0100315
0.0101369
0.0102371
0.0103337
0.0104315
0.010541
0.0106866
0.0109216
0.0113624
0.012249
0.014095
0.018941
0.0556708
0.00984636
0.0100114
0.0101656
0.010315
0.0104586
0.0105958
0.0107262
0.0108498
0.0109689
0.0110898
0.0112297
0.0114302
0.0117911
0.0125404
0.0142069
0.018826
0.0556512
0.0101633
0.0103669
0.0105612
0.01075
0.0109329
0.0111094
0.0112783
0.0114389
0.0115914
0.011739
0.0118922
0.0120815
0.0123886
0.0130208
0.0145105
0.0189672
0.0562427
0.0105033
0.0107525
0.0109917
0.0112259
0.0114552
0.0116786
0.0118949
0.0121027
0.012301
0.0124905
0.0126765
0.0128794
0.0131622
0.0137049
0.0150224
0.0193203
0.0573454
0.0108694
0.0111664
0.0114574
0.0117446
0.012028
0.012307
0.0125803
0.0128463
0.0131034
0.0133505
0.0135896
0.0138325
0.0141245
0.014614
0.0157756
0.019883
0.0588718
0.0112614
0.0116123
0.0119615
0.0123094
0.012656
0.0130005
0.0133417
0.0136781
0.0140082
0.0143303
0.0146442
0.0149556
0.0152949
0.015777
0.0168171
0.0206891
0.0607436
0.0116839
0.0120927
0.0125076
0.0129255
0.0133456
0.0137671
0.0141889
0.0146101
0.0150296
0.0154464
0.0158594
0.0162713
0.0167011
0.0172331
0.0182092
0.021811
0.0628755
0.012139
0.0126136
0.0131015
0.0135991
0.0141045
0.0146163
0.0151339
0.0156572
0.016186
0.016721
0.0172623
0.0178122
0.0183835
0.0190361
0.0200345
0.023367
0.0651578
0.0126314
0.0131797
0.01375
0.014338
0.0149415
0.0155591
0.0161906
0.0168369
0.0174999
0.0181827
0.0188889
0.0196239
0.0203998
0.0212619
0.0224047
0.0255316
0.067452
0.0131626
0.013797
0.0144606
0.0151511
0.015867
0.0166077
0.0173743
0.0181693
0.0189976
0.0198665
0.0207855
0.0217673
0.0228308
0.0240188
0.0254755
0.0285537
0.0696001
0.013734
0.0144684
0.0152401
0.0160483
0.0168934
0.017777
0.0187029
0.0196774
0.0207101
0.0218148
0.0230106
0.0243234
0.0257886
0.0274622
0.0294727
0.0328175
0.0714332
0.014345
0.0151955
0.0160931
0.0170384
0.0180338
0.0190843
0.0201985
0.0213891
0.0226742
0.0240792
0.0256386
0.0274001
0.0294285
0.0318186
0.0347381
0.0389015
0.0728113
0.0149942
0.0159775
0.0170211
0.0181268
0.0192995
0.0205484
0.0218882
0.023341
0.0249388
0.0267263
0.0287659
0.0311425
0.0339677
0.0374313
0.0418091
0.0477142
0.0736652
0.00978748
0.00994975
0.0101765
0.0103644
0.0106419
0.0108617
0.0111904
0.011446
0.0118192
0.0121148
0.0125234
0.0128679
0.0133068
0.0137159
0.0141946
0.0146688
0.0151574
0.0156532
0.0161605
0.0166764
0.0172628
0.0178457
0.0183327
0.0187831
0.0191898
0.0195413
0.0198265
0.0200352
0.0201591
0.0201922
0.0201319
0.0199786
0.0197355
0.0194087
0.0190071
0.0185415
0.0180239
0.0174668
0.0168831
0.0162842
0.0156814
0.0102621
0.0104455
0.0106576
0.0108799
0.0111381
0.0114035
0.0117099
0.0120201
0.0123722
0.0127279
0.0131232
0.0135269
0.0139682
0.0144322
0.014933
0.015449
0.0159698
0.0165065
0.0170575
0.017624
0.0182697
0.0189192
0.0194681
0.0199807
0.0204485
0.0208585
0.0211976
0.0214538
0.021617
0.0216797
0.0216378
0.0214909
0.021242
0.0208977
0.0204673
0.0199629
0.0193979
0.0187865
0.0181432
0.0174816
0.016814
0.0108396
0.0110313
0.0112463
0.0114833
0.0117471
0.0120332
0.0123471
0.0126822
0.0130448
0.0134275
0.0138365
0.0142687
0.0147332
0.0152346
0.0157715
0.0163226
0.0168814
0.0174615
0.0180607
0.0186807
0.0193906
0.0201101
0.0207254
0.0213046
0.0218379
0.0223106
0.0227075
0.0230144
0.0232192
0.0233125
0.0232889
0.0231469
0.0228892
0.0225227
0.0220575
0.021507
0.0208863
0.0202118
0.0194997
0.0187656
0.0180239
0.0115539
0.011749
0.011969
0.0122142
0.0124864
0.0127847
0.0131097
0.0134595
0.0138345
0.0142339
0.01466
0.015117
0.015614
0.0161565
0.0167303
0.0173117
0.0179116
0.0185385
0.0191899
0.0198673
0.020645
0.0214378
0.0221234
0.0227733
0.0233762
0.0239153
0.0243732
0.0247334
0.0249814
0.025106
0.0250997
0.0249602
0.0246897
0.0242953
0.0237882
0.0231833
0.0224977
0.0217498
0.0209585
0.0201415
0.0193152
0.0124532
0.0126423
0.0128597
0.0131056
0.0133803
0.0136831
0.0140133
0.0143704
0.0147545
0.0151673
0.0156139
0.0161035
0.0166449
0.0172307
0.0178314
0.0184413
0.0190856
0.0197626
0.0204698
0.0212083
0.0220569
0.0229255
0.0236849
0.024409
0.0250849
0.0256934
0.0262149
0.0266302
0.0269224
0.0270778
0.0270871
0.0269468
0.0266586
0.0262297
0.0256727
0.025004
0.0242431
0.0234112
0.0225294
0.0216184
0.0206968
0.0135981
0.0137617
0.01396
0.0141925
0.014458
0.0147552
0.0150833
0.0154423
0.0158341
0.0162635
0.0167393
0.0172714
0.0178573
0.0184703
0.0190915
0.0197425
0.0204342
0.0211647
0.0219309
0.0227336
0.0236553
0.0246015
0.0254375
0.0262385
0.0269897
0.0276698
0.0282564
0.0287277
0.0290639
0.0292488
0.0292711
0.0291257
0.028814
0.0283434
0.0277277
0.0269853
0.0261384
0.025211
0.0242275
0.0232113
0.0221836
0.0150683
0.0151773
0.0153311
0.0155291
0.0157691
0.0160491
0.0163683
0.016728
0.0171331
0.0175918
0.0181123
0.0186895
0.0192971
0.0199145
0.0205603
0.0212547
0.0219963
0.0227829
0.023611
0.0244806
0.0254765
0.0265008
0.0274149
0.0282943
0.029122
0.0298744
0.0305264
0.0310532
0.0314321
0.0316441
0.0316758
0.0315204
0.0311787
0.0306586
0.0299752
0.0291491
0.0282054
0.0271715
0.0260751
0.0249429
0.023799
0.0169819
0.0170093
0.0170904
0.0172286
0.0174234
0.0176742
0.0179816
0.0183486
0.0187793
0.0192741
0.0198193
0.0203903
0.0209784
0.0216053
0.0222886
0.0230277
0.023821
0.0246655
0.0255573
0.0264955
0.0275653
0.0286665
0.0296588
0.0306164
0.0315201
0.0323439
0.0330599
0.0336402
0.0340591
0.0342948
0.0343313
0.0341604
0.033782
0.0332046
0.0324446
0.0315252
0.0304747
0.029324
0.0281046
0.026847
0.025578
0.0194131
0.0193819
0.0193977
0.019474
0.0196174
0.0198324
0.0201202
0.0204762
0.0208888
0.0213434
0.0218336
0.0223682
0.0229618
0.0236194
0.0243409
0.0251254
0.025971
0.026874
0.0278299
0.0288366
0.0299783
0.0311533
0.0322214
0.0332547
0.0342316
0.0351236
0.0359
0.03653
0.0369846
0.0372392
0.0372753
0.037083
0.0366615
0.0360196
0.0351754
0.0341546
0.0329889
0.0317131
0.0303628
0.0289722
0.0275713
0.0221939
0.022163
0.0221653
0.0222141
0.0223164
0.0224758
0.0226938
0.022971
0.0233102
0.0237156
0.0241903
0.0247355
0.0253523
0.0260409
0.0268009
0.0276307
0.0285279
0.0294884
0.0305067
0.0315795
0.032788
0.0340304
0.0351692
0.0362727
0.0373168
0.0382709
0.0391014
0.0397747
0.0402588
0.0405263
0.0405562
0.0403369
0.0398668
0.039155
0.0382212
0.0370938
0.0358078
0.034402
0.0329162
0.0313884
0.029852
0.0252341
0.0251777
0.0251548
0.025176
0.0252484
0.0253784
0.0255719
0.0258335
0.0261669
0.026575
0.0270596
0.027622
0.028263
0.0289826
0.0297802
0.0306536
0.0315998
0.032614
0.0336901
0.0348231
0.036089
0.0373881
0.0385882
0.039752
0.0408532
0.0418589
0.0427335
0.0434406
0.0439458
0.0442189
0.0442366
0.0439857
0.0434637
0.04268
0.0416555
0.0404211
0.0390149
0.0374797
0.0358593
0.0341954
0.032525
0.0289082
0.0288111
0.0287553
0.0287505
0.0288028
0.028918
0.0291017
0.0293587
0.029693
0.0301077
0.0306048
0.0311857
0.0318509
0.0326002
0.0334321
0.0343445
0.0353334
0.0363935
0.0375177
0.0386997
0.0400076
0.0413463
0.0425921
0.0437999
0.0449416
0.045983
0.0468865
0.0476141
0.0481291
0.0483991
0.0483992
0.0481143
0.0475411
0.0466889
0.0455795
0.0442456
0.0427282
0.0410732
0.0393278
0.0375376
0.0357423
0.0335072
0.0333599
0.0332643
0.0332292
0.0332596
0.0333603
0.0335359
0.0337907
0.034128
0.0345504
0.0350599
0.0356574
0.036343
0.037116
0.0379746
0.0389155
0.0399344
0.0410251
0.0421797
0.0433905
0.0447159
0.0460674
0.0473336
0.0485598
0.0497167
0.0507695
0.0516799
0.0524089
0.0529188
0.053176
0.053154
0.0528368
0.0522197
0.0513116
0.0501344
0.0487217
0.047116
0.0453653
0.0435193
0.0416262
0.0397288
0.0394137
0.03921
0.0390699
0.039
0.0390047
0.0390878
0.0392526
0.039502
0.0398385
0.0402638
0.0407787
0.0413835
0.0420776
0.0428593
0.0437262
0.0446744
0.0456987
0.046792
0.0479458
0.049151
0.0504541
0.0517768
0.0530233
0.0542279
0.0553613
0.0563892
0.0572742
0.0579779
0.0584632
0.0586965
0.058651
0.0583096
0.0576668
0.0567302
0.0555205
0.0540706
0.0524225
0.0506244
0.0487266
0.0467785
0.0448251
0.0471953
0.0469385
0.046756
0.0466514
0.0466284
0.0466895
0.0468366
0.0470714
0.047395
0.0478075
0.0483086
0.0488974
0.0495722
0.0503305
0.0511688
0.0520825
0.0530657
0.0541111
0.0552092
0.0563502
0.057567
0.0587952
0.0599587
0.0610794
0.0621298
0.0630783
0.0638905
0.0645312
0.0649658
0.0651628
0.0650968
0.0647507
0.0641179
0.0632039
0.0620267
0.0606158
0.0590098
0.0572537
0.0553957
0.0534835
0.0515629
0.0577308
0.0574458
0.0572399
0.0571123
0.0570657
0.0571017
0.0572206
0.0574227
0.0577074
0.0580736
0.0585198
0.0590438
0.0596427
0.0603132
0.0610512
0.0618516
0.0627085
0.0636145
0.0645611
0.0655383
0.0665639
0.0675926
0.0685714
0.06951
0.0703854
0.0711717
0.0718407
0.0723636
0.0727119
0.0728592
0.0727837
0.0724701
0.0719113
0.0711101
0.0700793
0.0688419
0.0674288
0.0658771
0.0642278
0.0625223
0.0608039
0.0724465
0.0722071
0.0720338
0.0719211
0.0718704
0.0718822
0.0719562
0.0720915
0.0722864
0.0725392
0.0728474
0.0732086
0.0736197
0.0740776
0.0745785
0.0751184
0.0756924
0.0762952
0.0769205
0.0775613
0.0782221
0.0788799
0.0795082
0.0801072
0.0806625
0.0811582
0.0815769
0.0819008
0.0821123
0.0821948
0.082134
0.0819195
0.0815454
0.0810117
0.0803245
0.0794963
0.0785452
0.0774938
0.0763678
0.0751942
0.074007
0.0537011
0.026805
0.0228639
0.0222614
0.0222568
0.0223234
0.0223221
0.0222088
0.0219592
0.0215599
0.0209961
0.0202596
0.0193477
0.0182774
0.017111
0.0159645
0.0149335
0.0561389
0.0291394
0.0238009
0.0225213
0.0221602
0.0220308
0.0219165
0.0217379
0.0214568
0.0210509
0.0205024
0.0197935
0.0189122
0.0178695
0.0167241
0.0156006
0.0146624
0.0582933
0.0321789
0.0251681
0.0230724
0.0222543
0.0218518
0.021571
0.0212958
0.0209656
0.0205443
0.0200046
0.01932
0.0184708
0.0174627
0.0163452
0.0152291
0.0143137
0.0606387
0.0356935
0.0269383
0.0239128
0.0225513
0.0218114
0.0213156
0.0209057
0.0205015
0.0200486
0.0195068
0.0188392
0.0180196
0.0170499
0.0159698
0.0148617
0.0138459
0.0631123
0.0395438
0.0290718
0.0250139
0.0230304
0.0218932
0.0211426
0.0205697
0.0200682
0.019567
0.0190105
0.0183502
0.0175551
0.0166245
0.0155921
0.0145298
0.0135685
0.0656561
0.0437024
0.0314873
0.0263041
0.023631
0.0220544
0.0210214
0.0202697
0.0196566
0.0190956
0.0185127
0.0178508
0.0170746
0.0161814
0.0151982
0.0141847
0.013275
0.068139
0.0480649
0.0340576
0.027666
0.0242528
0.0222223
0.0209029
0.0199715
0.0192477
0.0186226
0.0180074
0.0173372
0.0165755
0.0157172
0.0147836
0.013822
0.0129083
0.0704208
0.052355
0.036567
0.0289254
0.02476
0.0223039
0.0207256
0.0196353
0.0188151
0.0181309
0.0174839
0.0168042
0.0160548
0.0152286
0.0143461
0.0134474
0.0125912
0.072371
0.0560169
0.0386532
0.0298473
0.0250033
0.0222087
0.0204315
0.0192238
0.0183328
0.0176041
0.0169319
0.0162449
0.015507
0.0147133
0.0138855
0.0130523
0.0122745
0.0739024
0.0583628
0.0398477
0.0301742
0.0248761
0.0218632
0.0199742
0.018707
0.0177803
0.0170289
0.0163439
0.0156552
0.0149301
0.0141702
0.0133954
0.0126352
0.0119222
0.074972
0.0589739
0.0397321
0.0296483
0.0242936
0.0212321
0.0193378
0.0180752
0.0171518
0.0164003
0.0157149
0.0150315
0.0143273
0.0136064
0.0128866
0.0121933
0.0115593
0.0755062
0.0577675
0.0381395
0.0282398
0.023244
0.0203436
0.018546
0.0173442
0.0164556
0.0157213
0.015045
0.0143766
0.0137011
0.0130249
0.0123645
0.011741
0.0111815
0.0754517
0.0547642
0.0352124
0.0265084
0.0219259
0.0192887
0.017653
0.0165455
0.0157093
0.0150007
0.0143416
0.0136958
0.0130564
0.0124316
0.0118352
0.0112842
0.0107994
0.0748246
0.0500294
0.032267
0.0245607
0.0205165
0.0181866
0.0167276
0.0157186
0.0149329
0.0142505
0.0136126
0.0129969
0.0124018
0.0118349
0.0113069
0.01083
0.0104196
0.0737437
0.0444563
0.0298342
0.0228722
0.0192301
0.017145
0.0158269
0.0148903
0.0141402
0.0134802
0.0128683
0.0122913
0.0117488
0.0112458
0.0107892
0.010387
0.0100498
0.072402
0.0430821
0.0283225
0.0215724
0.0181444
0.0162047
0.0149666
0.0140677
0.0133381
0.0127004
0.0121227
0.0115938
0.0111115
0.0106769
0.0102931
0.00996439
0.00969689
0.0708251
0.0427709
0.0274829
0.0206197
0.0172297
0.0153391
0.0141289
0.0132455
0.0125343
0.0119272
0.0113944
0.0109226
0.0105061
0.010142
0.00983036
0.00957191
0.00936867
0.069137
0.0423001
0.0268086
0.0197677
0.0163589
0.0144848
0.0132911
0.0124275
0.0117467
0.0111832
0.0107056
0.0102973
0.00994904
0.00965505
0.00941195
0.0092179
0.00907226
0.0675161
0.0420128
0.025919
0.0187784
0.015425
0.0136083
0.0124575
0.0116349
0.0110018
0.0104941
0.0100791
0.00973721
0.00945612
0.00922782
0.00904688
0.00890926
0.00881211
0.0661352
0.0415441
0.0245664
0.0175603
0.0144199
0.0127332
0.0116614
0.0109016
0.0103295
0.00988547
0.00953541
0.00925809
0.00903944
0.0088698
0.00874211
0.00865085
0.00859193
0.0650394
0.039751
0.0225779
0.0161845
0.0134212
0.0119155
0.0109442
0.0102593
0.00975553
0.009377
0.00908986
0.00887179
0.00870769
0.00858689
0.00850136
0.00844502
0.00841379
0.0640754
0.035835
0.0201694
0.014856
0.0125348
0.0112116
0.010342
0.00973494
0.00929982
0.00898379
0.00875303
0.00858507
0.00846448
0.00838023
0.00832416
0.00829044
0.00827556
0.0629345
0.0303997
0.0178895
0.0137623
0.011821
0.0106515
0.00987647
0.00934472
0.00897392
0.00871279
0.00852819
0.00839818
0.00830773
0.0082463
0.00820639
0.00818296
0.00817465
0.0613615
0.025819
0.016203
0.0129615
0.0112879
0.0102429
0.00955572
0.00909399
0.00877926
0.00856201
0.00841064
0.00830462
0.00823018
0.00817809
0.0081423
0.00811935
0.0081092
0.0594135
0.022469
0.0151013
0.0124176
0.0109259
0.00998789
0.00938114
0.00898017
0.00870941
0.00852221
0.00838963
0.00829334
0.00822152
0.00816677
0.00812485
0.00809392
0.00807467
0.0574881
0.0203334
0.0144256
0.0120839
0.0107282
0.00988519
0.00934779
0.00899388
0.008752
0.00857969
0.0084515
0.00835186
0.00827118
0.00820388
0.0081472
0.00810018
0.00806621
0.0560537
0.0191715
0.0140792
0.0119346
0.0106902
0.00992938
0.00944593
0.00912199
0.0088922
0.00871952
0.00858253
0.0084685
0.00836988
0.0082826
0.00820496
0.00813753
0.00808342
0.0553765
0.018691
0.0139774
0.0119576
0.0108085
0.0101131
0.00966397
0.00935053
0.00911549
0.00892794
0.0087705
0.00863298
0.00850939
0.00839671
0.00829396
0.00820268
0.00812367
0.0554644
0.0186322
0.0140723
0.012149
0.0110803
0.0104292
0.00999142
0.00966759
0.0094099
0.00919382
0.00900552
0.00883674
0.0086825
0.00854023
0.00840913
0.00828928
0.0081835
0.0562012
0.0188547
0.0143469
0.0125127
0.011506
0.0108732
0.0104211
0.0100648
0.0097669
0.00950905
0.00928019
0.00907311
0.00888312
0.00870748
0.00854513
0.00839561
0.00826428
0.0574596
0.0192875
0.014808
0.01306
0.0120905
0.0114453
0.0109503
0.0105377
0.0101814
0.00986848
0.00958946
0.00933728
0.00910675
0.00889419
0.00869754
0.0085174
0.0083576
0.0591416
0.0199096
0.0154804
0.0138087
0.0128434
0.0121503
0.0115807
0.011086
0.0106517
0.0102697
0.00993041
0.00962598
0.00935012
0.00909761
0.00886461
0.00864963
0.00845353
0.0611606
0.020738
0.0164021
0.014783
0.0137798
0.0129983
0.0123194
0.011714
0.0111796
0.0107128
0.0103022
0.00993751
0.00961082
0.00931496
0.00904418
0.0087948
0.00856593
0.0634155
0.0218264
0.0176256
0.0160142
0.0149204
0.0140056
0.0131796
0.0124311
0.0117705
0.0112006
0.010706
0.010272
0.00988796
0.00954437
0.00923307
0.00894992
0.00869504
0.0657757
0.0232727
0.019222
0.0175445
0.0162937
0.0151953
0.0141814
0.0132527
0.0124336
0.0117382
0.0111447
0.0106306
0.0101819
0.00978587
0.00943068
0.00910858
0.00881498
0.068078
0.0252302
0.0212901
0.0194316
0.0179393
0.0165992
0.0153526
0.0142019
0.0131836
0.0123336
0.0116226
0.0110159
0.0104939
0.0100401
0.00963861
0.00927561
0.00893855
0.0701233
0.0279423
0.0239708
0.0217607
0.0199137
0.0182586
0.0167292
0.0153113
0.0140427
0.0129988
0.0121461
0.0114312
0.0108254
0.0103073
0.00985712
0.00945803
0.00909525
0.0717014
0.0317864
0.0274745
0.024661
0.0222981
0.020227
0.0183533
0.0166221
0.0150444
0.0137534
0.0127247
0.0118813
0.0111789
0.0105882
0.0100838
0.00964348
0.00925066
0.0726398
0.0373352
0.0321192
0.0283318
0.0252148
0.0225756
0.0202711
0.0181805
0.0162344
0.014629
0.0133758
0.0123744
0.0115584
0.0108851
0.0103203
0.00983145
0.00938687
0.0728668
0.0454794
0.0384119
0.033084
0.0288522
0.0254113
0.0225361
0.0200275
0.0176701
0.0156774
0.0141335
0.0129291
0.0119722
0.0112019
0.0105718
0.0100425
0.00957199
0.0148212
0.0162469
0.0189041
0.0250062
0.0410368
0.0825156
0.171336
0.30908
0.449032
0.420082
0.213952
0.127308
0.0834257
0.0571649
0.0422755
0.0340666
0.0294779
0.0267685
0.0249757
0.0235994
0.0145122
0.0160296
0.0189403
0.0258146
0.044297
0.0932033
0.200567
0.369145
0.522551
0.436303
0.221826
0.14273
0.0957963
0.0642065
0.0458227
0.0358784
0.0303943
0.0271952
0.0251222
0.0235616
0.0142638
0.0158787
0.0190635
0.0267691
0.0478981
0.105016
0.233835
0.440597
0.605418
0.46194
0.235852
0.161833
0.111539
0.073692
0.0504582
0.0381556
0.0315294
0.0277159
0.025287
0.0234899
0.0140713
0.0157936
0.0192786
0.0278833
0.0518508
0.117918
0.27128
0.524498
0.692404
0.476264
0.256064
0.185713
0.132175
0.0868386
0.0567731
0.0410421
0.0329022
0.0283199
0.0254499
0.0233628
0.013934
0.0157777
0.0196026
0.0292008
0.0562169
0.13195
0.313206
0.620878
0.779089
0.487123
0.282027
0.217095
0.159819
0.105342
0.065937
0.0448936
0.0345442
0.0289779
0.0255707
0.0231453
0.0138527
0.0158428
0.0200766
0.0308165
0.0611417
0.147237
0.360099
0.730061
0.863136
0.495237
0.311189
0.258029
0.196543
0.131237
0.0798598
0.0505915
0.0366465
0.0296914
0.0256187
0.022807
0.0138335
0.0160183
0.0207856
0.0329098
0.0668932
0.164045
0.412504
0.850353
0.94531
0.503525
0.342559
0.305556
0.243671
0.166306
0.100798
0.0597187
0.0397753
0.0305626
0.0255997
0.0223424
0.0138951
0.0163699
0.0218929
0.0357897
0.0739133
0.182849
0.470835
0.9781
1.02819
0.517018
0.38055
0.367775
0.303084
0.211916
0.130822
0.0745327
0.0451587
0.0319646
0.0256097
0.0217998
0.0140855
0.0170333
0.0236913
0.0399553
0.0828824
0.204459
0.534899
1.10619
1.11042
0.539651
0.429663
0.441949
0.375194
0.270118
0.171674
0.0976302
0.0548629
0.0348462
0.0259614
0.0213231
0.014514
0.0182719
0.0266813
0.0461709
0.0947974
0.230201
0.601593
1.22536
1.18012
0.572076
0.46855
0.52437
0.462049
0.343213
0.225276
0.13165
0.0717533
0.0410505
0.0274539
0.0212309
0.0154142
0.0205719
0.0316752
0.0555464
0.111056