/*--------------------------------*- C++ -*----------------------------------*\
  =========                 |
  \\      /  F ield         | OpenFOAM: The Open Source CFD Toolbox
   \\    /   O peration     | Website:  https://openfoam.org
    \\  /    A nd           | Version:  6
     \\/     M anipulation  |
\*---------------------------------------------------------------------------*/
FoamFile
{
    version     2.0;
    format      ascii;
    class       volScalarField;
    location    "1.36";
    object      p;
}
// * * * * * * * * * * * * * * * * * * * * * * * * * * * * * * * * * * * * * //

dimensions      [1 -1 -2 0 0 0 0];

internalField   nonuniform List<scalar> 
5625
(
1
1
1
1
1
1
1
1
1
1
1
1
1
1
1
1
1
1
1
1
1
1
1
1
1
1
1
1
1
1
1
1
1
1
1
1
1
1
1
1
1
1
1
1
1
1
1
1
1
1
1
1
1
1
1
1
1
1
1
1
1
1
1
1
1
1
1
1
1
1
1
1
1
1
1
1
1
1
1
1
1
1
1
1
1
1
1
1
1
1
1
1
1
1
1
1
1
1
1
1
1
1
1
1
1
1
1
1
1
1
1
1
1
1
1
1
1
1
1
1
1
1
1
1
1
1
1
1
1
1
1
1
1
1
1
1
1
1
1
1
1
1
1
1
1
1
1
1
1
1
1
1
1
1
1
1
1
1
1
1
1
1
1
1
1
1
1
1
1
1
1
1
1
1
1
1
1
1
1
1
1
1
1
1
1
1
1
1
1
1
1
1
1
1
1
1
1
1
1
1
1
1
1
1
1
1
1
1
1
1
1
1
1
1
1
1
1
1
1
1
1
1
1
1
1
1
1
1
1
1
1
1
1
1
1
1
1
1
1
1
1
1
1
1
1
1
1
1
1
1
1
1
1
1
1
1
1
1
1
1
1
1
1
1
1
1
1
1
1
1
1
1
1
1
1
1
1
1
1
1
1
1
1
1
1
1
1
1
1
1
1
1
1
1
1
1
1
1
1
1
1
1
1
1
1
1
1
1
1
1
1
1
1
1
1
1
1
1
1
1
1
1
1
1
1
1
1
1
1
1
1
1
1
1
1
1
1
1
1
1
1
1
1
1
1
1
1
1
1
1
1
1
1
1
1
1
1
1
1
1
1
1
1
1
1
1
1
1
1
1
1
1
1
1
1
1
1
1
1
1
1
1
1
1
1
1
1
1
1
1
1
1
1
1
1
1
1
1
1
1
1
1
1
1
1
1
1
1
1
1
1
1
1
1
1
1
1
1
1
1
1
1
1
1
1
1
1
1
1
1
1
1
1
1
1
1
1
1
1
1
1
1
1
1
1
1
1
1
1
1
1
1
1
1
1
1
1
1
1
1
1
1
1
1
1
1
1
1
1
1
1
1
1
1
1
1
1
1
1
1
1
1
1
1
1
1
1
1
1
1
1
1
1
1
1
1
1
1
1
1
1
1
1
1
1
1
1
1
1
1
1
1
1
1
1
1
1
1
1
1
1
1
1
1
1
1
1
1
1
1
1
1
1
1
1
1
1
1
1
1
1
1
1
1
1
1
1
1
1
1
1
1
1
1
1
1
1
1
1
1
1
1
1
1
1
1
1
1
1
1
1
1
1
1
1
1
1
1
1
1
1
1
1
1
1
1
1
1
1
1
1
1
1
1
1
1
1
1
1
1
1
1
1
1
1
1
1
1
1
1
1
1
1
1
1
1
1
1
1
1
1
1
1
1
1
1
1
1
1
1
1
1
1
1
1
1
1
1
1
1
1
1
1
1
1
1
1
1
1
1
1
1
1
1
1
1
1
1
1
1
1
1
1
1
1
1
1
1
1
1
1
1
1
1
1
1
1
1
1
1
1
1
1
1
1
1
1
1
1
1
1
1
1
1
1
1
1
1
1
1
1
1
1
1
1
1
1
1
1
1
1
1
1
1
1
1
1
1
1
1
1
1
1
1
1
1
1
1
1
1
1
1
1
1
1
1
1
1
1
1
1
1
1
1
1
1
1
1
1
1
1
1
0.999999
1
1
1
1
1
1
1
1
1
1
1
1
1
1
1
1
1
1
1
1
1
1
1
1
1
1
1
1
1
1
1
1
1
1
1
1
1
1
1
1
1
1
1
1
1
1
1
1
1
1
1
1
1
1
1
1
1
1
1
1
1
1
1
1
1
1
1
1
1
1
1
1
1
1
0.999999
1
1
1
1
1
1
1
1
1
1
1
1
1
1
1
1
1
1
1
1
1
1
1
1
1
1
1
1
1
1
1
1
1
1
1
1
1
1
1
1
1
1
1
1
1
1
1
1
1
1
1
1
1
1
1
1
1
1
1
1
1
1
1
1
1
1
1
1
1
1
1
1
0.999999
0.999999
0.999999
0.999999
1
1
1
1
1
1
1
1
1
1
1
1
1
1
1
1
1
1
1
1
1
1
1
1
1
1
1
1
1
1
1
1
1
1
1
1
1
1
1
1
1
1
1
1
1
1
1
1
1
1
1
1
1
1
1
1
1
1
1
1
1
1
1
1
1
1
1
1
1
1
1
0.999999
0.999999
0.999999
0.999999
0.999999
0.999999
1
1
1
1
1
1
1
1
1
1
1
1
1
1
1
1
1
1
1
1
1
1
1
1
1
1
1
1
1
1
1
1
1
1
1
1
1
1
1
1
1
1
1
1
1
1
1
1
1
1
1
1
1
1
1
1
1
1
1
1
1
1
1
1
1
1
1
1
1
0.999999
0.999999
0.999999
0.999999
0.999999
0.999999
0.999999
1
1
1
1
1
1
1
1
1
1
1
1
1
1
1
1
1
1
1
1
1
1
1
1
1
1
1
1
1
1
1
1
1
1
1
1
1
1
1
1
1
1
1
1
1
1
1
1
1
1
1
1
1
1
1
1
1
1
1
1
1
1
1
1
1
1
1
1
0.999998
0.999998
0.999998
0.999998
0.999998
0.999998
0.999999
0.999999
1
1
1
1
1
1
1
1
1
1
1
1
1
1
1
1
1
1
1
1
1
1
1
1
1
1
1
1
1
1
1
1
1
1
1
1
1
1
1
1
1
1
1
1
1
1
1
1
1
1
1
1
1
1
1
1
1
1
1
1
1
1
1
1
1
1
1
0.999997
0.999997
0.999997
0.999997
0.999998
0.999998
0.999999
0.999999
1
1
1
1
1
1
1
1
1
1
1
1
1
1
1
1
1
1
1
1
1
1
1
1
1
1
1
1
1
1
1
1
1
1
1
1
1
1
1
1
1
1
1
1
1
1
1
1
1
1
1
1
1
1
1
1
1
1
1
1
1
1
1
1
1
1
1
0.999996
0.999996
0.999996
0.999996
0.999997
0.999997
0.999998
0.999999
0.999999
1
1
1
1
1
1
1
1
1
1
1
1
1
1
1
1
1
1
1
1
1
1
1
1
1
1
1
1
1
1
1
1
1
1
1
1
1
1
1
1
1
1
1
1
1
1
1
1
1
1
1
1
1
1
1
1
1
1
1
1
1
1
1
1
1
1
0.999994
0.999994
0.999994
0.999995
0.999996
0.999997
0.999997
0.999999
0.999999
1
1
1
1
1
1.00001
1.00001
1.00001
1.00001
1.00001
1.00001
1
1
1
1
1
1
1
1
1
1
1
1
1
1
1
1
1
1
1
1
1
1
1
1
1
1
1
1
1
1
1
1
1
1
1
1
1
1
1
1
1
1
1
1
1
1
1
1
1
1
1
1
1
1
1
0.999992
0.999992
0.999992
0.999993
0.999994
0.999995
0.999996
0.999998
0.999999
1
1
1
1.00001
1.00001
1.00001
1.00001
1.00001
1.00001
1.00001
1.00001
1.00001
1.00001
1.00001
1
1
1
1
1
1
1
1
1
1
1
1
1
1
1
1
1
1
1
1
1
1
1
1
1
1
1
1
1
1
1
1
1
1
1
1
1
1
1
1
1
1
1
1
1
1
1
1
1
1
1
1
0.999989
0.999989
0.999989
0.99999
0.999991
0.999993
0.999995
0.999997
0.999999
1
1
1.00001
1.00001
1.00001
1.00001
1.00001
1.00001
1.00001
1.00001
1.00001
1.00001
1.00001
1.00001
1.00001
1
1
1
1
1
1
1
1
1
1
1
1
1
1
1
1
1
1
1
1
1
1
1
1
1
1
1
1
1
1
1
1
1
1
1
1
1
1
1
1
1
1
1
1
1
1
1
1
1
1
1
0.999986
0.999986
0.999986
0.999987
0.999988
0.999991
0.999993
0.999996
0.999999
1
1.00001
1.00001
1.00001
1.00001
1.00001
1.00001
1.00001
1.00001
1.00001
1.00001
1.00001
1.00001
1.00001
1.00001
1.00001
1.00001
1
1
1
1
1
1
1
1
1
1
1
1
1
1
1
1
1
1
1
1
1
1
1
1
1
1
1
1
1
1
1
1
1
1
1
1
1
1
1
1
1
1
1
1
1
1
1
1
1
0.99998
0.99998
0.999981
0.999982
0.999984
0.999987
0.999991
0.999995
0.999999
1
1.00001
1.00001
1.00001
1.00002
1.00002
1.00002
1.00002
1.00002
1.00002
1.00002
1.00002
1.00001
1.00001
1.00001
1.00001
1.00001
1.00001
1
1
1
1
1
1
1
1
1
1
1
1
1
1
1
1
1
1
1
1
1
1
1
1
1
1
1
1
1
1
1
1
1
1
1
1
1
1
1
1
1
1
1
1
1
1
1
1
0.999974
0.999974
0.999975
0.999977
0.99998
0.999984
0.999988
0.999994
1
1.00001
1.00001
1.00002
1.00002
1.00002
1.00003
1.00003
1.00003
1.00003
1.00003
1.00002
1.00002
1.00002
1.00002
1.00001
1.00001
1.00001
1.00001
1.00001
1
1
1
1
1
1
1
1
1
1
1
1
1
1
1
1
1
1
1
1
1
1
1
1
1
1
1
1
1
1
1
1
1
1
1
1
1
1
1
1
1
1
1
1
1
1
1
0.999967
0.999967
0.999968
0.999971
0.999975
0.99998
0.999986
0.999993
1
1.00001
1.00002
1.00002
1.00003
1.00003
1.00003
1.00004
1.00004
1.00004
1.00003
1.00003
1.00003
1.00003
1.00002
1.00002
1.00001
1.00001
1.00001
1.00001
1
1
1
1
1
1
1
1
1
1
1
1
1
1
1
1
1
1
1
1
1
1
1
1
1
1
1
1
1
1
1
1
1
1
1
1
1
1
1
1
1
1
1
1
1
1
1
0.999958
0.999958
0.99996
0.999964
0.999969
0.999976
0.999984
0.999993
1
1.00001
1.00002
1.00003
1.00004
1.00004
1.00005
1.00005
1.00005
1.00005
1.00005
1.00004
1.00004
1.00003
1.00003
1.00002
1.00002
1.00002
1.00001
1.00001
1.00001
1
1
1
1
1
1
1
1
1
1
1
1
1
1
1
1
1
1
1
1
1
1
1
1
1
1
1
1
1
1
1
1
1
1
1
1
1
1
1
1
1
1
1
1
1
1
0.999947
0.999948
0.999951
0.999956
0.999963
0.999973
0.999983
0.999996
1.00001
1.00002
1.00003
1.00004
1.00005
1.00006
1.00006
1.00006
1.00007
1.00006
1.00006
1.00006
1.00005
1.00004
1.00004
1.00003
1.00002
1.00002
1.00001
1.00001
1.00001
1.00001
1
1
1
1
1
1
1
1
1
1
1
1
1
1
1
1
1
1
1
1
1
1
1
1
1
1
1
1
1
1
1
1
1
1
1
1
1
1
1
1
1
1
1
1
1
0.999936
0.999937
0.999942
0.999949
0.999959
0.999971
0.999985
1
1.00002
1.00003
1.00005
1.00006
1.00007
1.00008
1.00008
1.00009
1.00009
1.00008
1.00008
1.00007
1.00006
1.00006
1.00005
1.00004
1.00003
1.00002
1.00002
1.00001
1.00001
1.00001
1
1
1
1
1
1
0.999999
0.999999
1
1
1
1
1
1
1
1
1
1
1
1
1
1
1
1
1
1
1
1
1
1
1
1
1
1
1
1
1
1
1
1
1
1
1
1
1
0.999925
0.999928
0.999934
0.999944
0.999958
0.999974
0.999993
1.00001
1.00003
1.00005
1.00007
1.00009
1.0001
1.00011
1.00011
1.00012
1.00011
1.00011
1.0001
1.00009
1.00008
1.00007
1.00006
1.00005
1.00004
1.00003
1.00002
1.00002
1.00001
1.00001
1
1
1
1
1
0.999999
0.999999
0.999999
0.999999
0.999999
1
1
1
1
1
1
1
1
1
1
1
1
1
1
1
1
1
1
1
1
1
1
1
1
1
1
1
1
1
1
1
1
1
1
1
0.999915
0.99992
0.99993
0.999944
0.999963
0.999985
1.00001
1.00003
1.00006
1.00008
1.00011
1.00013
1.00014
1.00015
1.00015
1.00015
1.00015
1.00014
1.00013
1.00012
1.00011
1.00009
1.00008
1.00006
1.00005
1.00004
1.00003
1.00002
1.00001
1.00001
1.00001
1
1
1
0.999999
0.999999
0.999999
0.999999
0.999999
0.999999
0.999999
1
1
1
1
1
1
1
1
1
1
1
1
1
1
1
1
1
1
1
1
1
1
1
1
1
1
1
1
1
1
1
1
1
1
0.999908
0.999918
0.999933
0.999954
0.999979
1.00001
1.00004
1.00007
1.00011
1.00014
1.00016
1.00018
1.0002
1.00021
1.00021
1.00021
1.0002
1.00019
1.00017
1.00015
1.00013
1.00012
1.0001
1.00008
1.00006
1.00005
1.00003
1.00002
1.00002
1.00001
1.00001
1
1
1
0.999999
0.999998
0.999999
0.999999
0.999999
0.999999
0.999999
0.999999
1
1
1
1
1
1
1
1
1
1
1
1
1
1
1
1
1
1
1
1
1
1
1
1
1
1
1
1
1
1
1
1
1
0.999911
0.999927
0.999951
0.99998
1.00002
1.00006
1.0001
1.00014
1.00018
1.00022
1.00025
1.00027
1.00029
1.00029
1.00029
1.00029
1.00027
1.00025
1.00023
1.0002
1.00017
1.00015
1.00012
1.0001
1.00008
1.00006
1.00004
1.00003
1.00002
1.00001
1.00001
1
1
0.999999
0.999998
0.999997
0.999998
0.999998
0.999998
0.999999
0.999999
0.999999
0.999999
1
1
1
1
1
1
1
1
1
1
1
1
1
1
1
1
1
1
1
1
1
1
1
1
1
1
1
1
1
1
1
1
0.999928
0.999955
0.999991
1.00003
1.00008
1.00014
1.00019
1.00025
1.0003
1.00034
1.00038
1.0004
1.00041
1.00042
1.00041
1.00039
1.00037
1.00033
1.0003
1.00026
1.00022
1.00019
1.00015
1.00012
1.00009
1.00007
1.00005
1.00003
1.00002
1.00001
1.00001
1
0.999998
0.999997
0.999996
0.999996
0.999996
0.999997
0.999997
0.999998
0.999998
0.999999
0.999999
0.999999
1
1
1
1
1
1
1
1
1
1
1
1
1
1
1
1
1
1
1
1
1
1
1
1
1
1
1
1
1
1
1
0.99997
1.00001
1.00007
1.00013
1.0002
1.00027
1.00034
1.00041
1.00048
1.00053
1.00057
1.00059
1.0006
1.00059
1.00057
1.00054
1.0005
1.00045
1.0004
1.00035
1.00029
1.00024
1.0002
1.00015
1.00012
1.00009
1.00006
1.00004
1.00003
1.00001
1.00001
1
0.999996
0.999995
0.999994
0.999994
0.999995
0.999995
0.999996
0.999997
0.999998
0.999998
0.999999
0.999999
0.999999
1
1
1
1
1
1
1
1
1
1
1
1
1
1
1
1
1
1
1
1
1
1
1
1
1
1
1
1
1
1
1.00005
1.00012
1.0002
1.00029
1.00039
1.00049
1.00058
1.00067
1.00075
1.00081
1.00085
1.00087
1.00087
1.00085
1.00081
1.00075
1.00069
1.00061
1.00054
1.00046
1.00038
1.00031
1.00025
1.00019
1.00015
1.00011
1.00007
1.00005
1.00003
1.00001
1
0.999999
0.999994
0.999992
0.999992
0.999993
0.999993
0.999994
0.999995
0.999996
0.999997
0.999998
0.999998
0.999999
0.999999
0.999999
1
1
1
1
1
1
1
1
1
1
1
1
1
1
1
1
1
1
1
1
1
1
1
1
1
1
1
1
1
1.00019
1.00029
1.00041
1.00054
1.00068
1.00081
1.00094
1.00106
1.00115
1.00122
1.00126
1.00127
1.00126
1.00121
1.00114
1.00105
1.00095
1.00084
1.00072
1.00061
1.00051
1.00041
1.00032
1.00025
1.00018
1.00013
1.00009
1.00006
1.00003
1.00001
1
0.999996
0.999991
0.999989
0.999989
0.99999
0.999991
0.999992
0.999994
0.999995
0.999996
0.999997
0.999998
0.999998
0.999999
0.999999
1
1
1
1
1
1
1
1
1
1
1
1
1
1
1
1
1
1
1
1
1
1
1
1
1
1
1
1
1
1.00041
1.00056
1.00073
1.00092
1.00111
1.00129
1.00146
1.00161
1.00173
1.00181
1.00185
1.00185
1.0018
1.00172
1.00161
1.00147
1.00131
1.00115
1.00098
1.00082
1.00067
1.00054
1.00042
1.00032
1.00023
1.00016
1.00011
1.00007
1.00004
1.00002
1
0.999991
0.999987
0.999985
0.999985
0.999986
0.999988
0.99999
0.999992
0.999994
0.999995
0.999996
0.999997
0.999998
0.999999
0.999999
0.999999
1
1
1
1
1
1
1
1
1
1
1
1
1
1
1
1
1
1
1
1
1
1
1
1
1
1
1
1
1.00074
1.00097
1.00121
1.00147
1.00174
1.00198
1.00221
1.0024
1.00255
1.00264
1.00267
1.00264
1.00256
1.00243
1.00225
1.00204
1.00182
1.00158
1.00134
1.00111
1.0009
1.00072
1.00055
1.00041
1.0003
1.00021
1.00014
1.00008
1.00004
1.00002
0.999998
0.999986
0.999981
0.999979
0.999979
0.999981
0.999984
0.999986
0.999989
0.999991
0.999993
0.999995
0.999996
0.999998
0.999998
0.999999
0.999999
0.999999
1
1
1
1
1
1
1
1
1
1
1
1
1
1
1
1
1
1
1
1
1
1
1
1
1
1
1
1.00123
1.00155
1.0019
1.00226
1.00262
1.00295
1.00325
1.00349
1.00367
1.00377
1.00379
1.00373
1.0036
1.00339
1.00313
1.00283
1.0025
1.00216
1.00183
1.00151
1.00122
1.00096
1.00073
1.00054
1.00039
1.00027
1.00017
1.0001
1.00005
1.00002
0.999995
0.999981
0.999974
0.999972
0.999973
0.999975
0.999979
0.999982
0.999986
0.999989
0.999992
0.999994
0.999995
0.999997
0.999998
0.999999
0.999999
0.999999
1
1
1
1
1
1
1
1
1
1
1
1
1
1
1
1
1
1
1
1
1
1
1
1
1
1
1
1.00192
1.00238
1.00286
1.00334
1.00382
1.00426
1.00464
1.00495
1.00517
1.00528
1.00529
1.00519
1.00498
1.00469
1.00431
1.00389
1.00342
1.00295
1.00248
1.00204
1.00164
1.00128
1.00097
1.00072
1.00051
1.00035
1.00022
1.00013
1.00007
1.00002
0.999992
0.999974
0.999966
0.999964
0.999965
0.999968
0.999973
0.999977
0.999982
0.999986
0.99999
0.999992
0.999994
0.999996
0.999997
0.999998
0.999999
0.999999
0.999999
1
1
1
1
1
1
1
1
1
1
1
1
1
1
1
1
1
1
1
1
1
1
1
1
1
1
1.00287
1.0035
1.00414
1.00479
1.00541
1.00598
1.00647
1.00686
1.00712
1.00725
1.00724
1.00708
1.00679
1.00638
1.00586
1.00528
1.00464
1.00399
1.00335
1.00275
1.0022
1.00172
1.0013
1.00096
1.00068
1.00046
1.00029
1.00017
1.00008
1.00003
0.999989
0.999967
0.999957
0.999954
0.999956
0.99996
0.999966
0.999972
0.999978
0.999983
0.999987
0.999991
0.999993
0.999995
0.999996
0.999998
0.999998
0.999999
0.999999
1
1
1
1
1
1
1
1
1
1
1
1
1
1
1
1
1
1
1
1
1
1
1
1
1
1
1.00414
1.00497
1.00583
1.00667
1.00746
1.00818
1.00879
1.00927
1.00958
1.00973
1.00969
1.00947
1.00908
1.00853
1.00785
1.00706
1.00622
1.00535
1.00449
1.00369
1.00295
1.00229
1.00173
1.00127
1.0009
1.00061
1.00039
1.00023
1.00011
1.00004
0.999988
0.99996
0.999947
0.999943
0.999945
0.999951
0.999958
0.999965
0.999972
0.999979
0.999984
0.999988
0.999992
0.999994
0.999996
0.999997
0.999998
0.999999
0.999999
0.999999
1
1
1
1
1
1
1
1
1
1
1
1
1
1
1
1
1
1
1
1
1
1
1
1
1
1.00578
1.00686
1.00796
1.00902
1.01001
1.01089
1.01163
1.01219
1.01257
1.01273
1.01267
1.01239
1.01189
1.01119
1.01031
1.00931
1.00821
1.00708
1.00596
1.00489
1.00391
1.00305
1.00231
1.00169
1.0012
1.00081
1.00052
1.0003
1.00016
1.00005
0.999991
0.999955
0.999937
0.999931
0.999933
0.999939
0.999948
0.999958
0.999966
0.999974
0.99998
0.999986
0.99999
0.999993
0.999995
0.999996
0.999998
0.999998
0.999999
0.999999
1
1
1
1
1
1
1
1
1
1
1
1
1
1
1
1
1
1
1
1
1
1
1
1
1
1.00785
1.00921
1.01057
1.01186
1.01304
1.01408
1.01494
1.01559
1.01602
1.0162
1.01613
1.0158
1.0152
1.01435
1.01328
1.01204
1.01066
1.00923
1.0078
1.00642
1.00515
1.00402
1.00305
1.00224
1.00158
1.00108
1.00069
1.00041
1.00022
1.00008
0.999999
0.999951
0.999926
0.999919
0.999921
0.999928
0.999938
0.999949
0.999959
0.999968
0.999976
0.999982
0.999987
0.999991
0.999994
0.999996
0.999997
0.999998
0.999999
0.999999
0.999999
1
1
1
1
1
1
1
1
1
1
1
1
1
1
1
1
1
1
1
1
1
1
1
1
1.01036
1.01202
1.01363
1.01514
1.01649
1.01765
1.0186
1.01931
1.01978
1.01998
1.01992
1.01956
1.0189
1.01795
1.01671
1.01524
1.01358
1.01182
1.01004
1.00831
1.00669
1.00524
1.00399
1.00294
1.00209
1.00142
1.00092
1.00056
1.0003
1.00013
1.00002
0.999951
0.999918
0.999906
0.999907
0.999915
0.999927
0.99994
0.999952
0.999963
0.999972
0.999979
0.999985
0.999989
0.999993
0.999995
0.999997
0.999998
0.999999
0.999999
0.999999
1
1
1
1
1
1
1
1
1
1
1
1
1
1
1
1
1
1
1
1
1
1
1
1
1.0133
1.01524
1.01706
1.01872
1.02015
1.02135
1.02231
1.02302
1.0235
1.02373
1.0237
1.02339
1.02275
1.02177
1.02045
1.01881
1.01692
1.01485
1.0127
1.01058
1.00857
1.00675
1.00516
1.00382
1.00273
1.00188
1.00123
1.00075
1.00041
1.00019
1.00004
0.999957
0.999912
0.999894
0.999893
0.999902
0.999914
0.999929
0.999943
0.999956
0.999967
0.999976
0.999982
0.999987
0.999991
0.999994
0.999996
0.999998
0.999998
0.999999
0.999999
1
1
1
1
1
1
1
1
1
1
1
1
1
1
1
1
1
1
1
1
1
1
1
1
1.0166
1.01873
1.02066
1.02231
1.02368
1.02476
1.02559
1.0262
1.02663
1.02689
1.02696
1.02679
1.02631
1.02547
1.02422
1.02256
1.02053
1.01822
1.01574
1.01323
1.01081
1.00857
1.00659
1.00491
1.00353
1.00244
1.00161
1.001
1.00057
1.00027
1.00009
0.999971
0.99991
0.999884
0.999879
0.999888
0.999901
0.999918
0.999934
0.999949
0.999961
0.999971
0.999979
0.999986
0.99999
0.999993
0.999995
0.999997
0.999998
0.999999
0.999999
0.999999
1
1
1
1
1
1
1
1
1
1
1
1
1
1
1
1
1
1
1
1
1
1
1
1.02008
1.02225
1.02407
1.02548
1.02651
1.02722
1.02771
1.02805
1.02835
1.02863
1.02887
1.029
1.02891
1.02846
1.02756
1.02612
1.02417
1.02177
1.01907
1.01621
1.01338
1.01071
1.0083
1.00623
1.00452
1.00315
1.0021
1.00132
1.00077
1.00039
1.00015
0.999997
0.999915
0.999877
0.999867
0.999873
0.999888
0.999907
0.999925
0.999941
0.999955
0.999967
0.999976
0.999983
0.999988
0.999992
0.999995
0.999997
0.999998
0.999999
0.999999
1
1
1
1
1
1
1
1
1
1
1
1
1
1
1
1
1
1
1
1
1
1
1
1
1.02349
1.02542
1.02678
1.02758
1.02788
1.02785
1.02766
1.0275
1.02752
1.0278
1.02832
1.02898
1.0296
1.02993
1.02977
1.02896
1.02743
1.02523
1.02249
1.01942
1.01623
1.01314
1.01029
1.00779
1.00569
1.00401
1.0027
1.00173
1.00103
1.00055
1.00023
1.00004
0.999928
0.999875
0.999857
0.999861
0.999875
0.999895
0.999915
0.999933
0.999949
0.999962
0.999973
0.999981
0.999987
0.999991
0.999994
0.999996
0.999998
0.999998
0.999999
0.999999
1
1
1
1
1
1
1
1
1
1
1
1
1
1
1
1
1
1
1
1
1
1
1
1.02641
1.02768
1.0281
1.02774
1.02677
1.02548
1.02419
1.0232
1.02276
1.02302
1.02396
1.02544
1.02718
1.02881
1.02997
1.03034
1.02974
1.02816
1.02572
1.02266
1.01926
1.0158
1.01253
1.00958
1.00707
1.00503
1.00342
1.00222
1.00135
1.00074
1.00034
1.00009
0.999951
0.999878
0.999851
0.99985
0.999864
0.999883
0.999905
0.999926
0.999943
0.999958
0.999969
0.999978
0.999985
0.99999
0.999993
0.999996
0.999997
0.999998
0.999999
0.999999
1
1
1
1
1
1
1
1
1
1
1
1
1
1
1
1
1
1
1
1
1
1
1
1.02833
1.02835
1.02715
1.02492
1.02198
1.01879
1.01585
1.01363
1.01252
1.01272
1.01424
1.01689
1.02027
1.02385
1.02704
1.02933
1.03038
1.03002
1.02837
1.02567
1.0223
1.01862
1.01496
1.01159
1.00865
1.00621
1.00428
1.00281
1.00174
1.00099
1.00049
1.00017
0.999988
0.999889
0.999849
0.999842
0.999853
0.999872
0.999896
0.999918
0.999937
0.999953
0.999966
0.999976
0.999984
0.999989
0.999992
0.999995
0.999997
0.999998
0.999999
0.999999
1
1
1
1
1
1
1
1
1
1
1
1
1
1
1
1
1
1
1
1
1
1
1
1.02858
1.02659
1.02294
1.01798
1.01223
1.00638
1.00118
0.997289
0.995243
0.995346
0.99763
1.00184
1.00744
1.0137
1.01979
1.02492
1.02847
1.03015
1.02993
1.02811
1.02511
1.02142
1.01752
1.01377
1.0104
1.00755
1.00526
1.0035
1.0022
1.00129
1.00067
1.00028
1.00004
0.999911
0.999853
0.999836
0.999844
0.999864
0.999887
0.999911
0.999931
0.999949
0.999963
0.999973
0.999981
0.999987
0.999991
0.999994
0.999996
0.999998
0.999999
0.999999
0.999999
1
1
1
1
1
1
1
1
1
1
1
1
1
1
1
1
1
1
1
1
1
1
1.02644
1.02152
1.01445
1.00576
0.996292
0.987002
0.978899
0.972883
0.969656
0.96962
0.972837
0.97899
0.987417
0.997153
1.00707
1.01604
1.02314
1.02779
1.02985
1.02955
1.0274
1.02404
1.02009
1.01605
1.0123
1.00904
1.00637
1.0043
1.00275
1.00164
1.00089
1.0004
1.00011
0.999944
0.999863
0.999835
0.999838
0.999856
0.999879
0.999903
0.999926
0.999945
0.99996
0.999971
0.99998
0.999986
0.999991
0.999994
0.999996
0.999998
0.999998
0.999999
0.999999
1
1
1
1
1
1
1
1
1
1
1
1
1
1
1
1
1
1
1
1
1
1
1.0212
1.01232
1.00074
0.987333
0.973227
0.959731
0.948146
0.939605
0.934978
0.934763
0.939058
0.9475
0.959294
0.973252
0.987923
1.00179
1.01354
1.02224
1.02753
1.02955
1.02886
1.02625
1.02251
1.01835
1.01429
1.01065
1.0076
1.00519
1.00337
1.00205
1.00115
1.00056
1.0002
0.999989
0.999883
0.999841
0.999836
0.999851
0.999874
0.999899
0.999921
0.999941
0.999957
0.999969
0.999979
0.999985
0.99999
0.999994
0.999996
0.999998
0.999998
0.999999
0.999999
1
1
1
1
1
1
1
1
1
1
1
1
1
1
1
1
1
1
1
1
1
1
1.0122
0.998288
0.981181
0.962087
0.942547
0.924222
0.908702
0.897339
0.891151
0.890723
0.896189
0.907163
0.922746
0.941545
0.961786
0.981543
0.999025
1.01289
1.02244
1.02767
1.02916
1.02781
1.02464
1.02057
1.0163
1.01233
1.00892
1.00616
1.00406
1.00252
1.00146
1.00075
1.00031
1.00005
0.999912
0.999853
0.999838
0.999848
0.99987
0.999894
0.999918
0.999937
0.999954
0.999967
0.999977
0.999984
0.999989
0.999993
0.999996
0.999997
0.999998
0.999999
0.999999
1
1
1
1
1
1
1
1
1
1
1
1
1
1
1
1
1
1
1
1
1
1
0.999011
0.979061
0.955489
0.929942
0.904384
0.88082
0.861113
0.846782
0.838949
0.838278
0.844935
0.858545
0.878148
0.90219
0.928611
0.955061
0.979251
0.999324
1.01417
1.02356
1.02799
1.0285
1.0263
1.02258
1.01828
1.01405
1.0103
1.00721
1.00481
1.00304
1.0018
1.00096
1.00044
1.00012
0.99995
0.99987
0.999845
0.999849
0.999867
0.999891
0.999915
0.999935
0.999952
0.999966
0.999976
0.999984
0.999989
0.999993
0.999996
0.999997
0.999998
0.999999
0.999999
1
1
1
1
1
1
1
1
1
1
1
1
1
1
1
1
1
1
1
1
1
1
0.981482
0.954639
0.923904
0.891404
0.859533
0.830615
0.806701
0.789426
0.779961
0.779019
0.786807
0.802993
0.82661
0.856017
0.88893
0.922612
0.954254
0.981432
1.00253
1.01697
1.02513
1.02811
1.02735
1.02429
1.02013
1.01575
1.01172
1.00831
1.00562
1.00361
1.00218
1.00121
1.00059
1.00021
0.999999
0.999895
0.999856
0.999853
0.999868
0.99989
0.999913
0.999934
0.999951
0.999965
0.999976
0.999983
0.999989
0.999993
0.999995
0.999997
0.999998
0.999999
0.999999
1
1
1
1
1
1
1
1
1
1
1
1
1
1
1
1
1
1
1
1
1
1
0.959798
0.925463
0.887171
0.847558
0.80942
0.77533
0.747442
0.727422
0.716434
0.715206
0.723988
0.742522
0.769902
0.804485
0.843855
0.884958
0.924489
0.959417
0.98754
1.00783
1.02046
1.02653
1.02767
1.02559
1.02179
1.01739
1.01314
1.00944
1.00647
1.00421
1.00259
1.00147
1.00075
1.00031
1.00006
0.999928
0.999874
0.999862
0.999871
0.999891
0.999913
0.999934
0.999951
0.999964
0.999975
0.999983
0.999989
0.999993
0.999995
0.999997
0.999998
0.999999
0.999999
1
1
1
1
1
1
1
1
1
1
1
1
1
1
1
1
1
1
1
1
1
1
0.934513
0.892392
0.846498
0.799969
0.755939
0.71714
0.685732
0.663325
0.651016
0.649512
0.659099
0.679617
0.710283
0.749552
0.794987
0.843319
0.890809
0.933819
0.969494
0.996267
1.01399
1.02371
1.0272
1.02643
1.02319
1.0189
1.01451
1.01057
1.00733
1.00484
1.00302
1.00176
1.00094
1.00043
1.00013
0.999968
0.999897
0.999874
0.999878
0.999895
0.999915
0.999934
0.999951
0.999965
0.999975
0.999983
0.999988
0.999992
0.999995
0.999997
0.999998
0.999999
0.999999
1
1
1
1
1
1
1
1
1
1
1
1
1
1
1
1
1
1
1
1
1
1
0.906492
0.856627
0.803429
0.750503
0.701235
0.658415
0.62411
0.599791
0.586441
0.584701
0.594882
0.616928
0.650238
0.693459
0.744252
0.799262
0.854406
0.905474
0.948932
0.982589
1.00588
1.01971
1.02592
1.02676
1.02431
1.02027
1.01582
1.01168
1.0082
1.00547
1.00347
1.00207
1.00114
1.00055
1.00021
1.00002
0.999925
0.999891
0.999889
0.999902
0.999919
0.999936
0.999953
0.999966
0.999976
0.999983
0.999989
0.999993
0.999995
0.999997
0.999998
0.999999
0.999999
1
1
1
1
1
1
1
1
1
1
1
1
1
1
1
1
1
1
1
1
1
1
0.87684
0.819593
0.759684
0.701127
0.647467
0.601448
0.564963
0.539277
0.52521
0.523301
0.533863
0.556949
0.592178
0.638466
0.693692
0.754536
0.816694
0.875453
0.926605
0.967284
0.996415
1.01466
1.02391
1.0266
1.02512
1.02145
1.01703
1.01274
1.00904
1.00611
1.00392
1.00238
1.00135
1.00069
1.00029
1.00007
0.999959
0.999912
0.999902
0.99991
0.999924
0.99994
0.999955
0.999967
0.999977
0.999984
0.999989
0.999993
0.999996
0.999997
0.999998
0.999999
0.999999
1
1
1
1
1
1
1
1
1
1
1
1
1
1
1
1
1
1
1
1
1
1
0.846799
0.78279
0.716979
0.65371
0.596591
0.548231
0.510294
0.483788
0.46933
0.46733
0.478078
0.501735
0.538162
0.586598
0.645231
0.710894
0.779177
0.844968
0.903423
0.950982
0.985999
1.00882
1.02128
1.02599
1.02562
1.02244
1.01812
1.01373
1.00985
1.00673
1.00437
1.00269
1.00156
1.00083
1.00038
1.00013
0.999997
0.999937
0.999918
0.99992
0.999931
0.999944
0.999958
0.999969
0.999979
0.999985
0.99999
0.999993
0.999996
0.999997
0.999998
0.999999
0.999999
1
1
1
1
1
1
1
1
1
1
1
1
1
1
1
1
1
1
1
1
1
1
0.817634
0.74768
0.676893
0.609872
0.550211
0.500315
0.461582
0.434738
0.420174
0.418152
0.42892
0.452743
0.489725
0.53946
0.600498
0.669918
0.743307
0.815257
0.880369
0.934408
0.975124
1.00248
1.01821
1.02503
1.02586
1.02324
1.01908
1.01464
1.01061
1.00732
1.00481
1.003
1.00177
1.00097
1.00048
1.00019
1.00004
0.999966
0.999937
0.999933
0.99994
0.999951
0.999962
0.999972
0.99998
0.999986
0.999991
0.999994
0.999996
0.999997
0.999998
0.999999
0.999999
1
1
1
1
1
1
1
1
1
1
1
1
1
1
1
1
1
1
1
1
1
1
0.790544
0.715565
0.640763
0.570901
0.509512
0.458761
0.419755
0.392946
0.378486
0.376485
0.387145
0.410817
0.447847
0.498176
0.560742
0.632916
0.710369
0.787495
0.858431
0.918328
0.964341
0.996011
1.01491
1.02383
1.02588
1.02386
1.0199
1.01545
1.01131
1.00787
1.00522
1.0033
1.00198
1.00111
1.00058
1.00026
1.00008
0.999997
0.999959
0.999948
0.999951
0.999959
0.999968
0.999976
0.999983
0.999988
0.999992
0.999995
0.999997
0.999998
0.999999
0.999999
0.999999
1
1
1
1
1
1
1
1
1
1
1
1
1
1
1
1
1
1
1
1
1
1
0.766584
0.687543
0.609638
0.537737
0.475273
0.424173
0.385261
0.358722
0.344488
0.342528
0.352991
0.376311
0.413036
0.463436
0.526824
0.600886
0.681427
0.76272
0.838536
0.903497
0.954209
0.989794
1.01163
1.02252
1.02575
1.02432
1.02059
1.01615
1.01192
1.00836
1.00559
1.00357
1.00217
1.00125
1.00067
1.00033
1.00013
1.00003
0.999982
0.999965
0.999962
0.999966
0.999973
0.99998
0.999986
0.99999
0.999993
0.999995
0.999997
0.999998
0.999999
0.999999
0.999999
1
1
1
1
1
1
1
1
1
1
1
1
1
1
1
1
1
1
1
1
1
1
0.746623
0.664465
0.584285
0.511
0.447935
0.396807
0.358189
0.332026
0.318065
0.316143
0.326373
0.349243
0.38547
0.435607
0.499304
0.574552
0.65731
0.741792
0.821494
0.890607
0.945266
0.98421
1.00861
1.02125
1.02554
1.02467
1.02115
1.01674
1.01245
1.00879
1.00592
1.00382
1.00235
1.00138
1.00077
1.00039
1.00018
1.00006
1.00001
0.999983
0.999976
0.999976
0.99998
0.999984
0.999989
0.999992
0.999995
0.999996
0.999998
0.999999
0.999999
0.999999
0.999999
1
1
1
1
1
1
1
1
1
1
1
1
1
1
1
1
1
1
1
1
1
1
0.731321
0.646955
0.565217
0.491055
0.427696
0.376694
0.338423
0.312637
0.29893
0.29704
0.30705
0.329473
0.365152
0.414858
0.478528
0.554415
0.638636
0.725388
0.807973
0.880255
0.937993
0.979607
1.00608
1.02016
1.02533
1.02492
1.0216
1.01721
1.01288
1.00915
1.0062
1.00403
1.00251
1.0015
1.00085
1.00046
1.00023
1.0001
1.00003
1
0.999989
0.999986
0.999987
0.999989
0.999992
0.999994
0.999996
0.999997
0.999998
0.999999
0.999999
1
1
1
1
1
1
1
1
1
1
1
1
1
1
1
1
1
1
1
1
1
1
1
1
0.721125
0.635411
0.552742
0.478085
0.414604
0.363749
0.325765
0.300275
0.286767
0.284909
0.294751
0.316815
0.352012
0.401261
0.464709
0.540823
0.625855
0.714015
0.798486
0.872909
0.932779
0.976278
1.00424
1.01935
1.02517
1.0251
1.02192
1.01757
1.01321
1.00942
1.00643
1.00421
1.00265
1.0016
1.00093
1.00052
1.00027
1.00013
1.00006
1.00002
1
0.999996
0.999994
0.999995
0.999996
0.999997
0.999998
0.999999
0.999999
0.999999
1
1
1
1
1
1
1
1
1
1
1
1
1
1
1
1
1
1
1
1
1
1
1
1
1
0.716283
0.630038
0.547001
0.472149
0.408629
0.357861
0.320034
0.29471
0.281323
0.279503
0.289267
0.311118
0.345983
0.394848
0.457986
0.53401
0.619275
0.708024
0.79339
0.868902
0.929905
0.974437
1.00323
1.01894
1.02511
1.02524
1.02214
1.0178
1.01342
1.00961
1.00659
1.00434
1.00275
1.00169
1.001
1.00057
1.00032
1.00017
1.00009
1.00004
1.00002
1.00001
1
1
0.999999
0.999999
1
1
1
1
1
1
1
1
1
1
1
1
1
1
1
1
1
1
1
1
1
1
1
1
1
1
1
1
1
0.716857
0.630863
0.547997
0.47322
0.409715
0.358942
0.321116
0.295813
0.282462
0.280688
0.290481
0.312296
0.347022
0.395636
0.458442
0.534114
0.619075
0.707616
0.792893
0.868424
0.929531
0.974206
1.00313
1.01895
1.02519
1.02535
1.02226
1.01792
1.01353
1.00971
1.00668
1.00442
1.00283
1.00176
1.00106
1.00062
1.00036
1.0002
1.00011
1.00006
1.00003
1.00002
1.00001
1.00001
1
1
1
1
1
1
1
1
1
1
1
1
1
1
1
1
1
1
1
1
1
1
1
1
1
1
1
1
1
1
1
0.722742
0.637765
0.555609
0.481198
0.417788
0.366939
0.328977
0.303563
0.290178
0.288466
0.298391
0.320347
0.355133
0.403636
0.466098
0.541168
0.625297
0.712836
0.797034
0.871516
0.93169
0.975609
1.00397
1.0194
1.0254
1.02542
1.02227
1.0179
1.01352
1.00972
1.0067
1.00446
1.00287
1.0018
1.0011
1.00066
1.00039
1.00023
1.00013
1.00008
1.00005
1.00003
1.00002
1.00001
1.00001
1
1
1
1
1
1
1
1
1
1
1
1
1
1
1
1
1
1
1
1
1
1
1
1
1
1
1
1
1
1
0.733692
0.65049
0.569612
0.495915
0.432747
0.381826
0.343655
0.318042
0.304578
0.302956
0.313109
0.335351
0.37035
0.418839
0.480905
0.555092
0.637829
0.723556
0.805685
0.878055
0.936283
0.97857
1.00569
1.02026
1.02572
1.02544
1.02216
1.01776
1.0134
1.00963
1.00665
1.00444
1.00288
1.00182
1.00113
1.00069
1.00042
1.00025
1.00015
1.0001
1.00006
1.00004
1.00003
1.00002
1.00001
1.00001
1
1
1
1
1
1
1
1
1
1
1
1
1
1
1
1
1
1
1
1
1
1
1
1
1
1
1
1
1
0.749353
0.668671
0.589674
0.517132
0.454457
0.403573
0.365213
0.339392
0.325855
0.324358
0.334814
0.357433
0.392718
0.441193
0.502716
0.575657
0.65639
0.739462
0.818532
0.887761
0.943074
0.98291
1.00816
1.02143
1.02609
1.02539
1.02192
1.01748
1.01315
1.00945
1.00653
1.00438
1.00285
1.00182
1.00115
1.00071
1.00044
1.00028
1.00017
1.00011
1.00007
1.00005
1.00003
1.00002
1.00001
1.00001
1.00001
1
1
1
1
1
1
1
1
1
1
1
1
1
1
1
1
1
1
1
1
1
1
1
1
1
1
1
1
0.769261
0.691857
0.615387
0.544516
0.482716
0.432117
0.393709
0.367766
0.354217
0.352898
0.363694
0.386702
0.422236
0.470563
0.531263
0.602478
0.680513
0.760057
0.835091
0.900194
0.951705
0.988361
1.01119
1.02281
1.02646
1.02522
1.02153
1.01707
1.01279
1.00918
1.00635
1.00427
1.0028
1.0018
1.00115
1.00072
1.00046
1.00029
1.00019
1.00012
1.00008
1.00006
1.00004
1.00003
1.00002
1.00001
1.00001
1
1
1
1
1
1
1
1
1
1
1
1
1
1
1
1
1
1
1
1
1
1
1
1
1
1
1
1
0.792823
0.719478
0.646247
0.577655
0.51723
0.467298
0.429126
0.403255
0.389814
0.388727
0.399852
0.42316
0.458765
0.506656
0.56609
0.634961
0.709521
0.784639
0.8547
0.914785
0.961714
0.994577
1.01456
1.02425
1.02674
1.02491
1.02099
1.01651
1.01232
1.00882
1.00611
1.00411
1.00271
1.00176
1.00113
1.00073
1.00047
1.00031
1.0002
1.00013
1.00009
1.00006
1.00004
1.00003
1.00002
1.00001
1.00001
1.00001
1
1
1
1
1
1
1
1
1
1
1
1
1
1
1
1
1
1
1
1
1
1
1
1
1
1
1
)
;

boundaryField
{
    emptyPatches_empt
    {
        type            empty;
    }
    top_cyc
    {
        type            cyclic;
    }
    bottom_cyc
    {
        type            cyclic;
    }
    inlet_cyc
    {
        type            cyclic;
    }
    outlet_cyc
    {
        type            cyclic;
    }
    procBoundary3to1
    {
        type            processor;
        value           nonuniform List<scalar> 
75
(
0.819312
0.750821
0.681603
0.616003
0.557577
0.508825
0.471289
0.44578
0.432619
0.431809
0.44318
0.466588
0.50194
0.548931
0.606491
0.672276
0.742509
0.812312
0.876538
0.930837
0.972561
1.00117
1.01801
1.02559
1.02685
1.02441
1.02029
1.01582
1.01175
1.00839
1.00581
1.00392
1.0026
1.0017
1.0011
1.00072
1.00047
1.00031
1.00021
1.00014
1.0001
1.00007
1.00005
1.00003
1.00002
1.00001
1.00001
1.00001
1
1
1
1
1
1
1
1
1
1
1
1
1
1
1
1
1
1
1
1
1
1
1
1
1
1
1
)
;
    }
    procBoundary3to1throughtop_cyc
    {
        type            processorCyclic;
        value           nonuniform List<scalar> 
75
(
1
1
1
1
1
1
1
1
1
1
1
1
1
1
1
1
1
1
1
1
1
1
1
1
1
1
1
1
1
1
1
1
1
1
1
1
1
1
1
1
1
1
1
1
1
1
1
1
1
1
1
1
1
1
1
1
1
1
1
1
1
1
1
1
1
1
1
1
1
1
1
1
1
1
1
)
;
    }
    procBoundary3to2
    {
        type            processor;
        value           nonuniform List<scalar> 
75
(
1
1
1
1
1
1
1
1
1
1
1
1
0.999999
0.999999
0.999999
0.999998
0.999997
0.999996
0.999994
0.999992
0.999989