/*--------------------------------*- C++ -*----------------------------------*\
  =========                 |
  \\      /  F ield         | OpenFOAM: The Open Source CFD Toolbox
   \\    /   O peration     | Website:  https://openfoam.org
    \\  /    A nd           | Version:  6
     \\/     M anipulation  |
\*---------------------------------------------------------------------------*/
FoamFile
{
    version     2.0;
    format      ascii;
    class       volScalarField;
    location    "2.9";
    object      p;
}
// * * * * * * * * * * * * * * * * * * * * * * * * * * * * * * * * * * * * * //

dimensions      [1 -1 -2 0 0 0 0];

internalField   nonuniform List<scalar> 
5625
(
1.03383
1.02574
1.01626
1.00584
0.994768
0.983141
0.970883
0.957785
0.943559
0.927958
0.910883
0.892468
0.873169
0.853759
0.835157
0.818323
0.804231
0.793678
0.787217
0.785248
0.787996
0.795302
0.806644
0.821358
0.838656
0.857518
0.876836
0.895734
0.913693
0.93042
0.94576
0.959766
0.972767
0.985255
0.997586
1.0097
1.02105
1.03073
1.03784
1.04174
1.04234
1.04009
1.03577
1.03033
1.02461
1.01922
1.01452
1.01066
1.00763
1.00536
1.0037
1.00252
1.00171
1.00115
1.00078
1.00053
1.00036
1.00025
1.00018
1.00012
1.00009
1.00006
1.00004
1.00003
1.00002
1.00002
1.00001
1.00001
1
1
1
1
1
1
1
1.03656
1.02937
1.02067
1.01094
1.00055
0.989683
0.978374
0.966527
0.95396
0.940505
0.926063
0.910686
0.894707
0.87871
0.863379
0.849479
0.837814
0.829047
0.823631
0.821921
0.824099
0.830003
0.839212
0.85122
0.86538
0.880832
0.89671
0.912401
0.927556
0.941937
0.955392
0.96796
0.979924
0.991662
1.00336
1.01478
1.02525
1.03385
1.03973
1.04243
1.04199
1.03898
1.03423
1.02864
1.02298
1.01779
1.01334
1.00974
1.00695
1.00487
1.00336
1.00229
1.00156
1.00105
1.00072
1.00049
1.00034
1.00024
1.00017
1.00012
1.00009
1.00006
1.00004
1.00003
1.00002
1.00001
1.00001
1.00001
1
1
1
1
1
1
1
1.03906
1.03286
1.02503
1.01606
1.00637
0.996225
0.985757
0.97497
0.963777
0.952078
0.939783
0.926926
0.913759
0.900679
0.888157
0.876793
0.867245
0.860033
0.855523
0.854033
0.855701
0.860374
0.867737
0.877415
0.888884
0.901448
0.914457
0.927502
0.94035
0.952791
0.964675
0.976038
0.987116
0.998171
1.00922
1.01986
1.02934
1.03673
1.0413
1.04275
1.0413
1.03758
1.03247
1.02681
1.02128
1.01632
1.01216
1.00883
1.00628
1.00438
1.00302
1.00207
1.00141
1.00096
1.00066
1.00045
1.00032
1.00022
1.00016
1.00011
1.00008
1.00006
1.00004
1.00003
1.00002
1.00001
1.00001
1.00001
1
1
1
1
1
1
1
1.04122
1.03611
1.02924
1.02111
1.01217
1.00274
0.993037
0.983145
0.973073
0.962774
0.952198
0.941382
0.930499
0.919784
0.90957
0.900337
0.892583
0.886686
0.882955
0.88166
0.882903
0.886554
0.892389
0.900139
0.909383
0.919575
0.930264
0.941194
0.95219
0.963057
0.973652
0.984012
0.994327
1.00473
1.01508
1.02484
1.03318
1.03924
1.04244
1.04264
1.04021
1.03588
1.0305
1.02485
1.01951
1.01484
1.01098
1.00793
1.00562
1.00392
1.0027
1.00185
1.00126
1.00087
1.0006
1.00042
1.00029
1.00021
1.00015
1.00011
1.00008
1.00006
1.00004
1.00003
1.00002
1.00001
1.00001
1.00001
1
1
1
1
1
1
1
1.04292
1.03901
1.0332
1.026
1.01787
1.00918
1.0002
0.991087
0.981931
0.972747
0.963525
0.954304
0.945191
0.93633
0.92797
0.920472
0.914184
0.909371
0.906293
0.905179
0.906087
0.908921
0.913545
0.919759
0.927222
0.935533
0.944405
0.953683
0.96322
0.972824
0.982368
0.991893
1.00153
1.01128
1.02085
1.02958
1.03664
1.04127
1.04305
1.04204
1.03873
1.0339
1.02836
1.02281
1.01772
1.01336
1.00982
1.00706
1.00498
1.00347
1.00239
1.00164
1.00113
1.00078
1.00054
1.00038
1.00027
1.00019
1.00014
1.0001
1.00007
1.00005
1.00004
1.00003
1.00002
1.00001
1.00001
1.00001
1
1
1
1
1
1
1
1.04406
1.04142
1.03678
1.0306
1.02336
1.01545
1.00719
0.998808
0.990435
0.982148
0.973974
0.965969
0.958199
0.950766
0.943857
0.937725
0.932583
0.928629
0.926094
0.925151
0.925811
0.928017
0.931711
0.936739
0.942823
0.949689
0.95718
0.965198
0.97359
0.982176
0.990858
0.999668
1.00866
1.0177
1.02637
1.03392
1.03958
1.0427
1.04307
1.04092
1.03686
1.03166
1.02608
1.02071
1.01592
1.01191
1.00869
1.00622
1.00438
1.00305
1.0021
1.00145
1.001
1.0007
1.00049
1.00035
1.00025
1.00018
1.00013
1.0001
1.00007
1.00005
1.00004
1.00003
1.00002
1.00001
1.00001
1.00001
1
1
1
1
1
1
1
1.04453
1.04322
1.03984
1.03479
1.02853
1.02147
1.01398
1.0063
0.998625
0.991077
0.983731
0.976659
0.96991
0.963558
0.957749
0.952642
0.948368
0.945092
0.943005
0.942208
0.942691
0.944442
0.947446
0.951578
0.956622
0.962412
0.968877
0.975936
0.983426
0.991181
0.999131
1.00729
1.01563
1.02388
1.03148
1.0377
1.04183
1.04341
1.04243
1.03927
1.03461
1.0292
1.0237
1.01859
1.01415
1.0105
1.00762
1.00543
1.00382
1.00265
1.00184
1.00127
1.00088
1.00062
1.00044
1.00031
1.00023
1.00017
1.00012
1.00009
1.00007
1.00005
1.00003
1.00002
1.00002
1.00001
1.00001
1.00001
1
1
1
1
1
1
1
1.04426
1.04429
1.04224
1.03841
1.03324
1.02713
1.02045
1.01349
1.00649
0.999604
0.992948
0.986608
0.980631
0.975089
0.970098
0.965756
0.962144
0.9594
0.957658
0.956967
0.957329
0.958768
0.961278
0.964745
0.969025
0.974037
0.979743
0.986056
0.992813
0.999871
1.00717
1.0147
1.02231
1.02961
1.03599
1.04073
1.04326
1.04333
1.04112
1.03713
1.03206
1.02658
1.02127
1.01649
1.01244
1.00917
1.00662
1.0047
1.0033
1.00229
1.00159
1.0011
1.00077
1.00055
1.00039
1.00028
1.00021
1.00015
1.00011
1.00008
1.00006
1.00004
1.00003
1.00002
1.00002
1.00001
1.00001
1
1
1
1
1
1
1
1
1.04319
1.04453
1.04384
1.04133
1.03734
1.03227
1.02648
1.02031
1.01399
1.00774
1.0017
0.99596
0.990588
0.985676
0.981305
0.977524
0.974409
0.972074
0.970595
0.969987
0.97028
0.971514
0.973669
0.97665
0.980377
0.984823
0.989955
0.995662
1.00179
1.00823
1.01491
1.02176
1.02851
1.0347
1.03968
1.04284
1.04377
1.04243
1.03917
1.03455
1.02925
1.02386
1.01884
1.01445
1.01081
1.00791
1.00569
1.00403
1.00282
1.00196
1.00137
1.00095
1.00067
1.00048
1.00035
1.00025
1.00019
1.00014
1.0001
1.00008
1.00006
1.00004
1.00003
1.00002
1.00001
1.00001
1.00001
1
1
1
1
1
1
1
1
1.0413
1.04386
1.04453
1.04337
1.04066
1.03673
1.03194
1.02662
1.02105
1.01545
1.00999
1.00478
0.999939
0.995541
0.991643
0.988287
0.985558
0.983537
0.982252
0.981715
0.981978
0.983078
0.984978
0.987603
0.990926
0.994948
0.999615
1.0048
1.01035
1.01619
1.02222
1.02829
1.03403
1.03892
1.04237
1.04389
1.04329
1.04072
1.03663
1.03161
1.02628
1.02112
1.01647
1.01251
1.00928
1.00675
1.00483
1.00341
1.00239
1.00167
1.00117
1.00082
1.00058
1.00042
1.00031
1.00023
1.00017
1.00012
1.00009
1.00007
1.00005
1.00004
1.00003
1.00002
1.00001
1.00001
1.00001
1
1
1
1
1
1
1
1
1.03864
1.04226
1.04421
1.04442
1.04303
1.04033
1.03663
1.03226
1.02751
1.02261
1.01776
1.01309
1.00874
1.00478
1.00127
0.998274
0.99586
0.994078
0.992939
0.992476
0.99274
0.993745
0.995447
0.997807
1.00083
1.0045
1.00874
1.01342
1.01841
1.02362
1.02892
1.03405
1.0386
1.04204
1.04388
1.04381
1.04184
1.03828
1.03362
1.02843
1.02324
1.01842
1.0142
1.01069
1.00788
1.0057
1.00406
1.00287
1.00201
1.00141
1.00099
1.0007
1.0005
1.00036
1.00027
1.0002
1.00015
1.00011
1.00008
1.00006
1.00005
1.00003
1.00002
1.00002
1.00001
1.00001
1.00001
1
1
1
1
1
1
1
1
1.03532
1.03975
1.04283
1.04435
1.04431
1.0429
1.04039
1.03706
1.03322
1.02909
1.0249
1.0208
1.01694
1.01341
1.01026
1.00759
1.00545
1.00387
1.00286
1.00247
1.00275
1.00367
1.00521
1.00736
1.01013
1.01347
1.01728
1.02144
1.02583
1.03033
1.03475
1.03878
1.04197
1.04386
1.0441
1.04259
1.0395
1.03522
1.03026
1.02513
1.02023
1.01583
1.01208
1.00902
1.0066
1.00476
1.00338
1.00238
1.00167
1.00118
1.00083
1.00059
1.00043
1.00032
1.00023
1.00018
1.00013
1.0001
1.00008
1.00006
1.00004
1.00003
1.00002
1.00002
1.00001
1.00001
1
1
1
1
1
1
1
1
1
1.03152
1.03645
1.04042
1.04311
1.04438
1.04428
1.04301
1.04082
1.03797
1.0347
1.03125
1.02778
1.02445
1.02136
1.0186
1.01625
1.01436
1.01295
1.01207
1.01177
1.01205
1.0129
1.0143
1.01626
1.01877
1.02175
1.02509
1.02867
1.03237
1.03604
1.03943
1.04219
1.04391
1.04424
1.04302
1.04031
1.0364
1.03171
1.02671
1.02182
1.01732
1.01341
1.01014
1.00751
1.00547
1.00392
1.00279
1.00196
1.00138
1.00098
1.0007
1.0005
1.00037
1.00027
1.0002
1.00015
1.00012
1.00009
1.00007
1.00005
1.00004
1.00003
1.00002
1.00001
1.00001
1.00001
1
1
1
1
1
1
1
1
1
1.02745
1.03256
1.03711
1.04072
1.04315
1.04432
1.04431
1.04331
1.04155
1.03924
1.03661
1.03385
1.0311
1.02851
1.02616
1.02414
1.0225
1.0213
1.02057
1.02034
1.02061
1.02137
1.02263
1.02439
1.02659
1.02915
1.03194
1.03486
1.03777
1.04046
1.04267
1.04405
1.04429
1.04319
1.04075
1.03715
1.03275
1.02794
1.02313
1.01861
1.0146
1.01118
1.00839
1.00618
1.00448
1.0032
1.00227
1.0016
1.00113
1.0008
1.00058
1.00042
1.00031
1.00023
1.00018
1.00013
1.0001
1.00008
1.00006
1.00004
1.00003
1.00002
1.00002
1.00001
1.00001
1.00001
1
1
1
1
1
1
1
1
1
1.02337
1.02834
1.03313
1.03735
1.04068
1.04297
1.04417
1.04437
1.04374
1.04245
1.04073
1.03875
1.03667
1.03463
1.03275
1.0311
1.02975
1.02875
1.02816
1.028
1.02826
1.02893
1.03003
1.03152
1.03334
1.0354
1.03756
1.03972
1.0417
1.04329
1.04423
1.04424
1.04312
1.04083
1.03749
1.03335
1.02878
1.02411
1.01965
1.01561
1.01211
1.0092
1.00685
1.00501
1.00362
1.00258
1.00183
1.00129
1.00092
1.00066
1.00048
1.00035
1.00026
1.0002
1.00015
1.00012
1.00009
1.00007
1.00005
1.00004
1.00003
1.00002
1.00001
1.00001
1.00001
1.00001
1
1
1
1
1
1
1
1
1
1.01948
1.02407
1.02876
1.03324
1.03716
1.04031
1.04255
1.04387
1.04435
1.04412
1.04336
1.04223
1.04089
1.03947
1.0381
1.03686
1.03583
1.03508
1.03464
1.03452
1.03474
1.0353
1.03619
1.03736
1.03873
1.04018
1.04162
1.04292
1.04389
1.04432
1.04401
1.04278
1.04055
1.0374
1.03352
1.02919
1.02472
1.02038
1.01639
1.01287
1.00989
1.00745
1.00551
1.00401
1.00289
1.00206
1.00146
1.00104
1.00074
1.00053
1.00039
1.00029
1.00022
1.00017
1.00013
1.0001
1.00008
1.00006
1.00004
1.00003
1.00002
1.00002
1.00001
1.00001
1.00001
1
1
1
1
1
1
1
1
1
1
1.01593
1.01999
1.02434
1.02873
1.03289
1.03656
1.03957
1.04182
1.0433
1.04408
1.04428
1.04403
1.04347
1.04273
1.04191
1.04113
1.04046
1.03995
1.03966
1.03959
1.03976
1.04017
1.04079
1.04156
1.04239
1.04319
1.04385
1.04423
1.04417
1.04351
1.0421
1.03988
1.03687
1.03323
1.02916
1.02493
1.02078
1.01689
1.01342
1.01044
1.00795
1.00595
1.00437
1.00317
1.00227
1.00162
1.00115
1.00082
1.00059
1.00043
1.00032
1.00024
1.00019
1.00014
1.00011
1.00009
1.00007
1.00005
1.00004
1.00003
1.00002
1.00002
1.00001
1.00001
1.00001
1
1
1
1
1
1
1
1
1
1
1.0128
1.01627
1.02012
1.02418
1.02825
1.03211
1.03554
1.03843
1.0407
1.04234
1.04341
1.04399
1.0442
1.04414
1.04391
1.0436
1.04329
1.04304
1.04289
1.04286
1.04296
1.04319
1.04349
1.04382
1.04408
1.0442
1.04407
1.04358
1.04259
1.04101
1.03878
1.0359
1.03248
1.02869
1.02473
1.0208
1.0171
1.01374
1.0108
1.00832
1.00629
1.00468
1.00342
1.00247
1.00177
1.00126
1.0009
1.00065
1.00047
1.00035
1.00026
1.0002
1.00015
1.00012
1.00009
1.00007
1.00006
1.00004
1.00003
1.00003
1.00002
1.00001
1.00001
1.00001
1
1
1
1
1
1
1
1
1
1
1
1.01012
1.013
1.01628
1.01986
1.0236
1.02734
1.03088
1.03409
1.03685
1.03911
1.04086
1.04215
1.04304
1.0436
1.04392
1.04407
1.04412
1.04412
1.04411
1.0441
1.04412
1.04413
1.04411
1.04399
1.04371
1.04319
1.04237
1.04114
1.03943
1.0372
1.03445
1.03127
1.02777
1.02411
1.02046
1.01699
1.01379
1.01097
1.00855
1.00653
1.0049
1.00362
1.00264
1.0019
1.00136
1.00097
1.0007
1.0005
1.00037
1.00028
1.00021
1.00016
1.00013
1.0001
1.00008
1.00006
1.00005
1.00004
1.00003
1.00002
1.00002
1.00001
1.00001
1.00001
1
1
1
1
1
1
1
1
1
1
1
1.00789
1.01022
1.01294
1.01597
1.01925
1.02264
1.02601
1.02923
1.03218
1.03477
1.03697
1.03876
1.04017
1.04124
1.04201
1.04256
1.04292
1.04313
1.04324
1.04326
1.04318
1.04299
1.04266
1.04215
1.04141
1.04039
1.03903
1.03728
1.03511
1.03254
1.02961
1.02642
1.02309
1.01976
1.01656
1.01358
1.01092
1.0086
1.00664
1.00504
1.00376
1.00276
1.002
1.00144
1.00103
1.00074
1.00053
1.00039
1.00029
1.00022
1.00017
1.00013
1.0001
1.00008
1.00007
1.00005
1.00004
1.00003
1.00002
1.00002
1.00001
1.00001
1.00001
1
1
1
1
1
1
1
1
1
1
1
1
1.00607
1.00793
1.01011
1.0126
1.01536
1.0183
1.02132
1.02432
1.02719
1.02985
1.03222
1.03427
1.036
1.0374
1.0385
1.03933
1.03992
1.04031
1.0405
1.04052
1.04036
1.04002
1.03946
1.03866
1.03759
1.03623
1.03454
1.03252
1.03017
1.02753
1.02468
1.02171
1.01872
1.01583
1.01311
1.01065
1.00848
1.00662
1.00508
1.00382
1.00283
1.00207
1.0015
1.00107
1.00077
1.00055
1.0004
1.0003
1.00022
1.00017
1.00013
1.00011
1.00009
1.00007
1.00005
1.00004
1.00003
1.00003
1.00002
1.00002
1.00001
1.00001
1.00001
1
1
1
1
1
1
1
1
1
1
1
1
1.00461
1.00606
1.00778
1.00978
1.01203
1.01448
1.01706
1.0197
1.02231
1.02481
1.02713
1.02923
1.03106
1.03261
1.03387
1.03487
1.0356
1.03609
1.03634
1.03635
1.03614
1.03569
1.03499
1.03403
1.03279
1.03127
1.02947
1.0274
1.02509
1.02261
1.02001
1.01739
1.01483
1.0124
1.01018
1.00819
1.00646
1.00501
1.00381
1.00285
1.0021
1.00152
1.0011
1.00079
1.00056
1.00041
1.0003
1.00022
1.00017
1.00013
1.00011
1.00009
1.00007
1.00006
1.00005
1.00004
1.00003
1.00002
1.00002
1.00001
1.00001
1.00001
1
1
1
1
1
1
1
1
1
1
1
1
1
1.00346
1.00458
1.00592
1.00748
1.00926
1.01124
1.01337
1.01559
1.01784
1.02005
1.02217
1.02413
1.02589
1.02743
1.02872
1.02976
1.03054
1.03106
1.03133
1.03135
1.03111
1.03061
1.02986
1.02885
1.02759
1.02607
1.02432
1.02238
1.02027
1.01806
1.01582
1.01361
1.01149
1.00952
1.00774
1.00617
1.00483
1.00371
1.0028
1.00208
1.00152
1.0011
1.00079
1.00057
1.00041
1.0003
1.00022
1.00017
1.00013
1.0001
1.00008
1.00007
1.00006
1.00005
1.00004
1.00003
1.00002
1.00002
1.00001
1.00001
1.00001
1.00001
1
1
1
1
1
1
1
1
1
1
1
1
1
1.00257
1.00342
1.00444
1.00565
1.00703
1.00859
1.01029
1.01209
1.01395
1.01581
1.01763
1.01936
1.02094
1.02235
1.02356
1.02454
1.02529
1.0258
1.02606
1.02607
1.02583
1.02535
1.02462
1.02365
1.02246
1.02106
1.01949
1.01776
1.01594
1.01408
1.01221
1.01041
1.00871
1.00716
1.00577
1.00456
1.00354
1.0027
1.00202
1.00149
1.00108
1.00078
1.00056
1.0004
1.00029
1.00021
1.00016
1.00012
1.0001
1.00008
1.00007
1.00005
1.00004
1.00004
1.00003
1.00002
1.00002
1.00001
1.00001
1.00001
1.00001
1
1
1
1
1
1
1
1
1
1
1
1
1
1
1.0019
1.00253
1.0033
1.00421
1.00527
1.00647
1.00779
1.00921
1.0107
1.01221
1.01371
1.01515
1.0165
1.01772
1.01877
1.01964
1.02031
1.02077
1.021
1.021
1.02078
1.02034
1.01968
1.01882
1.01777
1.01655
1.0152
1.01375
1.01224
1.01072
1.00922
1.0078
1.00647
1.00527
1.00421
1.0033
1.00254
1.00192
1.00142
1.00104
1.00075
1.00053
1.00038
1.00027
1.0002
1.00015
1.00011
1.00009
1.00007
1.00006
1.00005
1.00004
1.00004
1.00003
1.00002
1.00002
1.00002
1.00001
1.00001
1.00001
1
1
1
1
1
1
1
1
1
1
1
1
1
1
1
1.00139
1.00186
1.00243
1.00311
1.00391
1.00481
1.00582
1.00691
1.00807
1.00926
1.01045
1.01161
1.01271
1.01371
1.01458
1.01531
1.01588
1.01626
1.01646
1.01646
1.01626
1.01588
1.01531
1.01458
1.01369
1.01268
1.01157
1.01039
1.00919
1.00798
1.00682
1.00571
1.0047
1.0038
1.00301
1.00233
1.00178
1.00133
1.00098
1.0007
1.0005
1.00036
1.00025
1.00018
1.00013
1.0001
1.00008
1.00006
1.00005
1.00005
1.00004
1.00003
1.00003
1.00002
1.00002
1.00002
1.00001
1.00001
1.00001
1.00001
1
1
1
1
1
1
1
1
1
1
1
1
1
1
1
1.00101
1.00136
1.00178
1.00228
1.00287
1.00354
1.00429
1.00512
1.00599
1.0069
1.00783
1.00873
1.00959
1.01038
1.01109
1.01167
1.01212
1.01243
1.01258
1.01258
1.01241
1.01209
1.01162
1.01102
1.0103
1.00949
1.00861
1.00768
1.00674
1.00581
1.00492
1.00409
1.00334
1.00267
1.00209
1.00161
1.00121
1.00089
1.00064
1.00046
1.00032
1.00023
1.00016
1.00011
1.00009
1.00007
1.00005
1.00005
1.00004
1.00003
1.00003
1.00003
1.00002
1.00002
1.00002
1.00001
1.00001
1.00001
1.00001
1
1
1
1
1
1
1
1
1
1
1
1
1
1
1
1
1.00074
1.00099
1.00129
1.00166
1.00209
1.00258
1.00314
1.00374
1.0044
1.00508
1.00577
1.00646
1.00711
1.00772
1.00826
1.00871
1.00906
1.0093
1.00941
1.0094
1.00926
1.009
1.00862
1.00814
1.00758
1.00694
1.00626
1.00555
1.00484
1.00414
1.00348
1.00286
1.00231
1.00183
1.00141
1.00107
1.00079
1.00058
1.00041
1.00028
1.0002
1.00013
1.00009
1.00007
1.00005
1.00004
1.00004
1.00003
1.00003
1.00002
1.00002
1.00002
1.00002
1.00001
1.00001
1.00001
1.00001
1.00001
1
1
1
1
1
1
1
1
1
1
1
1
1
1
1
1
1
1.00054
1.00072
1.00094
1.0012
1.00151
1.00187
1.00227
1.00272
1.00319
1.00369
1.0042
1.00471
1.0052
1.00565
1.00605
1.00638
1.00665
1.00682
1.0069
1.00688
1.00676
1.00656
1.00626
1.00589
1.00546
1.00497
1.00445
1.00392
1.00339
1.00288
1.00239
1.00195
1.00156
1.00121
1.00092
1.00069
1.0005
1.00035
1.00024
1.00016
1.00011
1.00007
1.00005
1.00004
1.00003
1.00002
1.00002
1.00002
1.00002
1.00002
1.00002
1.00001
1.00001
1.00001
1.00001
1.00001
1.00001
1
1
1
1
1
1
1
1
1
1
1
1
1
1
1
1
1
1
1.0004
1.00053
1.00068
1.00087
1.0011
1.00135
1.00164
1.00195
1.00229
1.00266
1.00303
1.00339
1.00374
1.00407
1.00436
1.00461
1.00479
1.00491
1.00496
1.00494
1.00485
1.00468
1.00445
1.00417
1.00384
1.00348
1.0031
1.0027
1.00232
1.00195
1.0016
1.00129
1.00101
1.00077
1.00057
1.00041
1.00029
1.0002
1.00013
1.00008
1.00005
1.00003
1.00002
1.00001
1.00001
1.00001
1.00001
1.00001
1.00001
1.00001
1.00001
1.00001
1.00001
1.00001
1.00001
1.00001
1
1
1
1
1
1
1
1
1
1
1
1
1
1
1
1
1
1
1
1.0003
1.00039
1.0005
1.00063
1.00079
1.00097
1.00118
1.0014
1.00164
1.00189
1.00215
1.00242
1.00267
1.00289
1.0031
1.00327
1.0034
1.00348
1.00351
1.00348
1.0034
1.00328
1.0031
1.00289
1.00264
1.00238
1.0021
1.00182
1.00154
1.00127
1.00103
1.00081
1.00062
1.00046
1.00033
1.00023
1.00015
1.00009
1.00005
1.00003
1.00001
1
1
1
1
1
1.00001
1.00001
1.00001
1.00001
1.00001
1.00001
1.00001
1.00001
1.00001
1
1
1
1
1
1
1
1
1
1
1
1
1
1
1
1
1
1
1
1
1.00022
1.00029
1.00037
1.00046
1.00058
1.0007
1.00084
1.001
1.00117
1.00135
1.00152
1.0017
1.00188
1.00204
1.00218
1.00229
1.00237
1.00242
1.00244
1.00241
1.00234
1.00225
1.00212
1.00196
1.00178
1.00158
1.00138
1.00118
1.00099
1.0008
1.00063
1.00049
1.00036
1.00025
1.00017
1.00011
1.00006
1.00003
1.00001
0.999993
0.999987
0.999986
0.999988
0.999991
0.999995
0.999998
1
1
1
1.00001
1.00001
1.00001
1.00001
1
1
1
1
1
1
1
1
1
1
1
1
1
1
1
1
1
1
1
1
1
1
1.00017
1.00022
1.00028
1.00034
1.00042
1.00051
1.00061
1.00072
1.00083
1.00095
1.00108
1.0012
1.00131
1.00142
1.00151
1.00158
1.00163
1.00166
1.00166
1.00164
1.00159
1.00151
1.00141
1.00129
1.00116
1.00102
1.00088
1.00074
1.0006
1.00048
1.00037
1.00027
1.00018
1.00012
1.00007
1.00003
1
0.999985
0.999977
0.999974
0.999974
0.999978
0.999982
0.999987
0.999992
0.999996
0.999999
1
1
1
1
1
1
1
1
1
1
1
1
1
1
1
1
1
1
1
1
1
1
1
1
1
1
1
1
1.00013
1.00017
1.00021
1.00026
1.00031
1.00037
1.00044
1.00052
1.00059
1.00067
1.00076
1.00084
1.00091
1.00098
1.00104
1.00108
1.00111
1.00113
1.00112
1.00109
1.00105
1.00099
1.00091
1.00083
1.00073
1.00064
1.00054
1.00044
1.00035
1.00026
1.00019
1.00012
1.00007
1.00003
1
0.999983
0.99997
0.999963
0.999962
0.999964
0.999969
0.999974
0.999979
0.999985
0.999989
0.999993
0.999997
0.999999
1
1
1
1
1
1
1
1
1
1
1
1
1
1
1
1
1
1
1
1
1
1
1
1
1
1
1
1.0001
1.00013
1.00016
1.00019
1.00023
1.00028
1.00032
1.00037
1.00043
1.00048
1.00053
1.00058
1.00063
1.00068
1.00071
1.00073
1.00075
1.00075
1.00074
1.00072
1.00068
1.00063
1.00058
1.00051
1.00045
1.00038
1.00031
1.00024
1.00018
1.00012
1.00007
1.00004
1
0.999982
0.999966
0.999957
0.999953
0.999953
0.999956
0.999961
0.999967
0.999973
0.999979
0.999985
0.99999
0.999994
0.999996
0.999998
1
1
1
1
1
1
1
1
1
1
1
1
1
1
1
1
1
1
1
1
1
1
1
1
1
1
1
1.00008
1.0001
1.00013
1.00015
1.00018
1.0002
1.00024
1.00027
1.00031
1.00035
1.00038
1.00041
1.00044
1.00046
1.00048
1.0005
1.0005
1.0005
1.00048
1.00046
1.00043
1.00039
1.00035
1.00031
1.00026
1.00021
1.00016
1.00011
1.00007
1.00004
1.00001
0.999985
0.999967
0.999955
0.999948
0.999945
0.999946
0.999951
0.999956
0.999962
0.999968
0.999975
0.99998
0.999985
0.999989
0.999993
0.999996
0.999998
0.999999
1
1
1
1
1
1
1
1
1
1
1
1
1
1
1
1
1
1
1
1
1
1
1
1
1
1
1.00007
1.00008
1.00009
1.00012
1.00014
1.00016
1.00018
1.0002
1.00023
1.00025
1.00027
1.00029
1.00031
1.00032
1.00033
1.00033
1.00033
1.00032
1.00031
1.00029
1.00027
1.00024
1.0002
1.00017
1.00014
1.0001
1.00007
1.00004
1.00001
0.999988
0.99997
0.999957
0.999948
0.999944
0.999942
0.999943
0.999947
0.999952
0.999958
0.999964
0.999971
0.999976
0.999982
0.999987
0.999991
0.999994
0.999996
0.999998
0.999999
1
1
1
1
1
1
1
1
1
1
1
1
1
1
1
1
1
1
1
1
1
1
1
1
1
1
1.00005
1.00006
1.00008
1.00009
1.0001
1.00012
1.00014
1.00015
1.00017
1.00018
1.0002
1.00021
1.00022
1.00022
1.00023
1.00022
1.00022
1.00021
1.0002
1.00018
1.00016
1.00014
1.00011
1.00009
1.00006
1.00004
1.00001
0.999994
0.999978
0.999964
0.999953
0.999945
0.999941
0.99994
0.999942
0.999946
0.999951
0.999957
0.999963
0.999969
0.999975
0.99998
0.999984
0.999988
0.999991
0.999994
0.999996
0.999998
0.999999
1
1
1
1
1
1
1
1
1
1
1
1
1
1
1
1
1
1
1
1
1
1
1
1
1
1
1.00004
1.00005
1.00006
1.00007
1.00008
1.00009
1.0001
1.00012
1.00013
1.00014
1.00014
1.00015
1.00015
1.00016
1.00016
1.00015
1.00015
1.00014
1.00012
1.00011
1.00009
1.00007
1.00006
1.00004
1.00002
1
0.999985
0.999971
0.99996
0.999952
0.999947
0.999944
0.999944
0.999945
0.999948
0.999952
0.999956
0.999961
0.999967
0.999973
0.999978
0.999983
0.999987
0.99999
0.999993
0.999995
0.999997
0.999998
0.999999
0.999999
1
1
1
1
1
1
1
1
1
1
1
1
1
1
1
1
1
1
1
1
1
1
1
1
1
1.00003
1.00004
1.00005
1.00005
1.00006
1.00007
1.00008
1.00009
1.00009
1.0001
1.00011
1.00011
1.00011
1.00011
1.00011
1.0001
1.0001
1.00009
1.00008
1.00007
1.00005
1.00004
1.00002
1.00001
0.999995
0.999983
0.999972
0.999963
0.999956
0.999951
0.999948
0.999947
0.999947
0.999949
0.999953
0.999958
0.999963
0.999968
0.999973
0.999977
0.999982
0.999985
0.999988
0.999991
0.999994
0.999996
0.999997
0.999998
0.999999
0.999999
1
1
1
1
1
1
1
1
1
1
1
1
1
1
1
1
1
1
1
1
1
1
1
1
1
1.00003
1.00003
1.00004
1.00004
1.00005
1.00006
1.00006
1.00007
1.00007
1.00008
1.00008
1.00008
1.00008
1.00008
1.00008
1.00007
1.00006
1.00006
1.00005
1.00004
1.00003
1.00002
1
0.999993
0.999983
0.999974
0.999967
0.999961
0.999957
0.999954
0.999953
0.999953
0.999955
0.999958
0.999961
0.999964
0.999968
0.999972
0.999977
0.999982
0.999985
0.999988
0.999991
0.999993
0.999995
0.999996
0.999998
0.999998
0.999999
0.999999
1
1
1
1
1
1
1
1
1
1
1
1
1
1
1
1
1
1
1
1
1
1
1
1
1
1.00002
1.00002
1.00003
1.00003
1.00004
1.00004
1.00005
1.00005
1.00006
1.00006
1.00006
1.00006
1.00006
1.00006
1.00005
1.00005
1.00004
1.00004
1.00003
1.00002
1.00001
1
0.999996
0.999987
0.99998
0.999973
0.999967
0.999963
0.999961
0.999959
0.999958
0.999959
0.999961
0.999964
0.999968
0.999971
0.999975
0.999979
0.999982
0.999985
0.999988
0.99999
0.999993
0.999995
0.999996
0.999997
0.999998
0.999999
0.999999
1
1
1
1
1
1
1
1
1
1
1
1
1
1
1
1
1
1
1
1
1
1
1
1
1
1
1.00002
1.00002
1.00002
1.00003
1.00003
1.00003
1.00004
1.00004
1.00004
1.00004
1.00005
1.00005
1.00005
1.00004
1.00004
1.00004
1.00003
1.00003
1.00002
1.00001
1
0.999996
0.99999
0.999985
0.999979
0.999974
0.999971
0.999968
0.999967
0.999966
0.999966
0.999968
0.999969
0.999971
0.999973
0.999976
0.99998
0.999983
0.999986
0.999988
0.99999
0.999992
0.999994
0.999996
0.999997
0.999998
0.999999
0.999999
0.999999
1
1
1
1
1
1
1
1
1
1
1
1
1
1
1
1
1
1
1
1
1
1
1
1
1
1
1.00001
1.00001
1.00002
1.00002
1.00002
1.00003
1.00003
1.00003
1.00003
1.00003
1.00003
1.00003
1.00003
1.00003
1.00003
1.00003
1.00002
1.00002
1.00001
1.00001
1
0.999996
0.99999
0.999985
0.999981
0.999978
0.999975
0.999973
0.999972
0.999971
0.999972
0.999973
0.999975
0.999977
0.99998
0.999982
0.999984
0.999986
0.999988
0.99999
0.999992
0.999994
0.999995
0.999996
0.999997
0.999998
0.999999
0.999999
1
1
1
1
1
1
1
1
1
1
1
1
1
1
1
1
1
1
1
1
1
1
1
1
1
1
1
1.00001
1.00001
1.00001
1.00002
1.00002
1.00002
1.00002
1.00002
1.00003
1.00003
1.00003
1.00003
1.00003
1.00002
1.00002
1.00002
1.00002
1.00001
1.00001
1
0.999998
0.999995
0.999991
0.999987
0.999984
0.999982
0.99998
0.999978
0.999978
0.999978
0.999979
0.999979
0.99998
0.999982
0.999983
0.999986
0.999988
0.99999
0.999991
0.999993
0.999994
0.999995
0.999996
0.999997
0.999998
0.999998
0.999999
0.999999
0.999999
1
1
1
1
1
1
1
1
1
1
1
1
1
1
1
1
1
1
1
1
1
1
1
1
1
1
1.00001
1.00001
1.00001
1.00001
1.00001
1.00002
1.00002
1.00002
1.00002
1.00002
1.00002
1.00002
1.00002
1.00002
1.00002
1.00001
1.00001
1.00001
1.00001
1
0.999998
0.999994
0.999992
0.99999
0.999987
0.999985
0.999983
0.999983
0.999982
0.999982
0.999982
0.999983
0.999985
0.999986
0.999988
0.999989
0.999991
0.999992
0.999993
0.999994
0.999996
0.999997
0.999997
0.999998
0.999999
0.999999
0.999999
1
1
1
1
1
1
1
1
1
1
1
1
1
1
1
1
1
1
1
1
1
1
1
1
1
1
1
1
1.00001
1.00001
1.00001
1.00001
1.00001
1.00001
1.00001
1.00001
1.00001
1.00001
1.00001
1.00001
1.00001
1.00001
1.00001
1.00001
1.00001
1.00001
1
1
0.999998
0.999995
0.999993
0.999992
0.99999
0.999988
0.999987
0.999987
0.999987
0.999987
0.999987
0.999987
0.999988
0.999989
0.99999
0.999991
0.999993
0.999994
0.999995
0.999996
0.999997
0.999997
0.999998
0.999998
0.999999
0.999999
0.999999
1
1
1
1
1
1
1
1
1
1
1
1
1
1
1
1
1
1
1
1
1
1
1
1
1
1
1
1
1
1.00001
1.00001
1.00001
1.00001
1.00001
1.00001
1.00001
1.00001
1.00001
1.00001
1.00001
1.00001
1.00001
1.00001
1.00001
1.00001
1
1
1
0.999998
0.999997
0.999995
0.999993
0.999991
0.999991
0.999991
0.99999
0.999989
0.999989
0.99999
0.999991
0.999992
0.999992
0.999993
0.999994
0.999995
0.999995
0.999996
0.999997
0.999998
0.999998
0.999998
0.999999
0.999999
0.999999
0.999999
1
1
1
1
1
1
1
1
1
1
1
1
1
1
1
1
1
1
1
1
1
1
1
1
1
1
1
1
1
1
1
1.00001
1.00001
1.00001
1.00001
1.00001
1.00001
1.00001
1.00001
1.00001
1.00001
1.00001
1.00001
1.00001
1
1
1
1
0.999998
0.999997
0.999996
0.999995
0.999994
0.999993
0.999993
0.999992
0.999992
0.999993
0.999993
0.999993
0.999993
0.999994
0.999994
0.999995
0.999996
0.999997
0.999997
0.999998
0.999998
0.999999
0.999999
0.999999
0.999999
1
1
1
1
1
1
1
1
1
1
1
1
1
1
1
1
1
1
1
1
1
1
1
1
1
1
1
1
1
1
1
1
1
1
1
1
1
1.00001
1.00001
1.00001
1.00001
1.00001
1.00001
1.00001
1
1
1
1
1
1
0.999999
0.999998
0.999997
0.999996
0.999996
0.999995
0.999994
0.999995
0.999995
0.999994
0.999995
0.999995
0.999996
0.999996
0.999997
0.999997
0.999997
0.999997
0.999998
0.999999
0.999999
0.999999
0.999999
0.999999
1
1
1
1
1
1
1
1
1
1
1
1
1
1
1
1
1
1
1
1
1
1
1
1
1
1
1
1
1
1
1
1
1
1
1
1
1
1
1
1
1
1
1
1
1
1
1
1
1
1
1
1
0.999999
0.999998
0.999997
0.999997
0.999997
0.999997
0.999996
0.999996
0.999996
0.999996
0.999996
0.999996
0.999997
0.999997
0.999997
0.999998
0.999998
0.999999
0.999999
0.999999
0.999999
0.999999
0.999999
1
1
1
1
1
1
1
1
1
1
1
1
1
1
1
1
1
1
1
1
1
1
1
1
1
1
1
1
1
1
1
1
1
1
1
1
1
1
1
1
1
1
1
1
1
1
1
1
1
1
1
0.999999
0.999999
0.999998
0.999998
0.999997
0.999997
0.999997
0.999997
0.999997
0.999997
0.999997
0.999997
0.999997
0.999998
0.999998
0.999998
0.999999
0.999999
0.999999
0.999999
0.999999
0.999999
1
1
1
1
1
1
1
1
1
1
1
1
1
1
1
1
1
1
1
1
1
1
1
1
1
1
1
1
1
1
1
1
1
1
1
1
1
1
1
1
1
1
1
1
1
1
1
1
1
1
1
1
1
1
0.999999
0.999999
0.999999
0.999999
0.999998
0.999998
0.999998
0.999998
0.999998
0.999998
0.999998
0.999998
0.999999
0.999999
0.999999
0.999999
0.999999
0.999999
0.999999
1
1
1
1
1
1
1
1
1
1
1
1
1
1
1
1
1
1
1
1
1
1
1
1
1
1
1
1
1
1
1
1
1
1
1
1
1
1
1
1
1
1
1
1
1
1
1
1
1
1
1
1
1
1
1
1
0.999999
0.999999
0.999999
0.999999
0.999999
0.999998
0.999998
0.999999
0.999999
0.999999
0.999999
0.999999
0.999999
0.999999
0.999999
0.999999
0.999999
0.999999
0.999999
1
1
1
1
1
1
1
1
1
1
1
1
1
1
1
1
1
1
1
1
1
1
1
1
1
1
1
1
1
1
1
1
1
1
1
1
1
1
1
1
1
1
1
1
1
1
1
1
1
1
1
1
1
1
1
1
1
1
0.999999
0.999999
0.999999
0.999999
0.999999
0.999999
0.999999
0.999999
0.999999
0.999999
0.999999
0.999999
0.999999
0.999999
1
1
1
1
1
1
1
1
1
1
1
1
1
1
1
1
1
1
1
1
1
1
1
1
1
1
1
1
1
1
1
1
1
1
1
1
1
1
1
1
1
1
1
1
1
1
1
1
1
1
1
1
1
1
1
1
1
1
1
1
0.999999
0.999999
0.999999
0.999999
0.999999
0.999999
0.999999
0.999999
1
1
1
0.999999
0.999999
0.999999
1
1
1
1
1
1
1
1
1
1
1
1
1
1
1
1
1
1
1
1
1
1
1
1
1
1
1
1
1
1
1
1
1
1
1
1
1
1
1
1
1
1
1
1
1
1
1
1
1
1
1
1
1
1
1
1
1
1
1
1
1
1
1
1
1
1
1
1
0.999999
0.999999
0.999999
1
1
1
1
1
1
1
1
1
1
1
1
1
1
1
1
1
1
1
1
1
1
1
1
1
1
1
1
1
1
1
1
1
1
1
1
1
1
1
1
1
1
1
1
1
1
1
1
1
1
1
1
1
1
1
1
1
1
1
1
1
1
1
1
1
1
1
1
1
1
1
1
1
1
1
1
1
1
1
1
1
1
1
1
1
1
1
1
1
1
1
1
1
1
1
1
1
1
1
1
1
1
1
1
1
1
1
1
1
1
1
1
1
1
1
1
1
1
1
1
1
1
1
1
1
1
1
1
1
1
1
1
1
1
1
1
1
1
1
1
1
0.999999
0.999999
1
1
1
1
0.999999
1
1
1
1
1
1
1
1
1
1
1
1
1
1
1
1
1
1
1
1
1
1
1
1
1
1
1
1
1
1
1
1
1
1
1
1
1
1
1
1
1
1
1
1
1
1
1
1
1
1
1
1
1
1
1
1
1
1
1
1
1
1
1
1
1
1
1
1
1
1
1
1
1
1
1
1
1
1
1
1
1
1
1
1
1
1
1
1
1
1
1
1
1
1
1
1
1
1
1
1
1
1
1
1
1
1
1
1
1
1
1
1
1
1
1
1
1
1
1
1
1
1
1
1
1
1
1
1
1
1
1
1
1
1
1
1
1
1
1
1
1
1
1
1
1
1
1
1
1
1
1
1
1
1
1
1
1
1
1
1
1
1
1
1
1
1
1
1
1
1
1
1
1
1
1
1
1
1
1
1
1
1
1
1
1
1
1
1
1
1
1
1
1
1
1
1
1
1
1
1
1
1
1
1
1
1
1
1
1
1
1
1
1
1
1
1
1
1
1
1
1
1
1
1
1
1
1
1
1
1
1
1
1
1
1
1
1
1
1
1
1
1
1
1
1
1
1
1
1
1
1
1
1
1
1
1
1
1
1
1
1
1
1
1
1
1
1
1
1
1
1
1
1
1
1
1
1
1
1
1
1
1
1
1
1
1
1
1
1
1
1
1
1
1
1
1
1
1
1
1
1
1
1
1
1
1
1
1
1
1
1
1
1
1
1
1
1
1
1
1
1
1
1
1
1
1
1
1
1
1
1
1
1
1
1
1
1
1
1
1
1
1
1
1
1
1
1
1
1
1
1
1
1
1
1
1
1
1
1
1
1
1
1
1
1
1
1
1
1
1
1
1
1
1
1
1
1
1
1
1
1
1
1
1
1
1
1
1
1
1
1
1
1
1
1
1
1
1
1
1
1
1
1
1
1
1
1
1
1
1
1
1
1
1
1
1
1
1
1
1
1
1
1
1
1
1
1
1
1
0.999999
1
1
1
1
1
1
1
1
1
1
1
1
1
1
1
1
1
1
1
1
1
1
1
1
1
1
1
1
1
1
1
1
1
1
1
1
1
1
1
1
1
1
1
1
1
1
1
1
1
1
1
1
1
1
1
1
1
1
1
1
1
1
1
1
1
1
1
1
1
0.999999
0.999999
1
1
1
1
1
1
1
1
0.999999
1
1
1
1
1
1
1
1
1
1
1
1
1
1
1
1
1
1
1
1
1
1
1
1
1
1
1
1
1
1
1
1
1
1
1
1
1
1
1
1
1
1
1
1
1
1
1
1
1
1
1
1
1
1
1
1
1
1
1
1
1
1
1
1
1
1
1
1
0.999999
0.999999
1
0.999999
0.999999
1
1
1
1
1
1
1
1
1
1
1
1
1
1
1
1
1
1
1
1
1
1
1
1
1
1
1
1
1
1
1
1
1
1
1
1
1
1
1
1
1
1
1
1
1
1
1
1
1
1
1
1
1
1
1
1
1
1
1
1
1
1
1
1
0.999999
0.999999
0.999999
1
0.999999
0.999999
0.999999
0.999999
0.999999
1
0.999999
0.999999
0.999999
0.999999
1
1
1
1
1
1
1
1
1
1
1
1
1
1
1
1
1
1
1
1
1
1
1
1
1
1
1
1
1
1
1
1
1
1
1
1
1
1
1
1
1
1
1
1
1
1
1
1
1
1
1
1
1
1
1
1
1
1
1
1
0.999999
1
0.999999
0.999999
0.999999
0.999999
0.999999
0.999999
0.999999
0.999999
0.999999
0.999999
1
1
1
1
1
1
1
1
1
1
1
1
1
1
1
1
1
1
1
1
1
1
1
1
1
1
1
1
1
1
1
1
1
1
1
1
1
1
1
1
1
1
1
1
1
1
1
1
1
1
1
1
1
1
1
1
1
1
1
1
1
1
1
1
0.999999
1
0.999999
0.999999
0.999999
0.999999
0.999999
0.999999
0.999999
0.999999
0.999999
0.999999
0.999999
0.999999
0.999999
1
1
1
1
1
1
1
1
1
1
1
1
1
1
1
1
1
1
1
1
1
1
1
1
1
1
1
1
1
1
1
1
1
1
1
1
1
1
1
1
1
1
1
1
1
1
1
1
1
1
1
1
1
1
1
1
1
1
0.999999
0.999999
0.999999
0.999999
0.999999
0.999999
0.999999
0.999998
0.999999
0.999998
0.999998
0.999998
0.999999
0.999999
0.999999