/*--------------------------------*- C++ -*----------------------------------*\
  =========                 |
  \\      /  F ield         | OpenFOAM: The Open Source CFD Toolbox
   \\    /   O peration     | Website:  https://openfoam.org
    \\  /    A nd           | Version:  6
     \\/     M anipulation  |
\*---------------------------------------------------------------------------*/
FoamFile
{
    version     2.0;
    format      ascii;
    class       surfaceScalarField;
    location    "4.63";
    object      phi;
}
// * * * * * * * * * * * * * * * * * * * * * * * * * * * * * * * * * * * * * //

dimensions      [0 3 -1 0 0 0 0];

internalField   nonuniform List<scalar> 
8193
(
0.118696
-0.216096
-0.106341
0.12468
-0.22174
0.127631
-0.220619
0.129279
-0.218413
0.130498
-0.2167
0.131483
-0.215477
0.132181
-0.214422
0.132539
-0.213321
0.132567
-0.212019
0.132257
-0.210257
0.131651
-0.207776
0.130452
-0.203919
0.128147
-0.198002
0.124121
-0.18946
0.117892
-0.178098
0.109332
-0.164403
0.0985379
-0.149104
0.0859666
-0.133289
0.0724623
-0.118275
0.0590983
-0.105161
0.0471037
-0.0946032
0.0376762
-0.0862377
0.0311392
-0.0790412
0.0265152
-0.0731558
0.0219762
-0.0710329
0.0159993
-0.0741842
0.00680945
-0.0836861
-0.00704149
-0.10003
-0.0256993
-0.122018
-0.0477661
-0.14808
-0.0709401
-0.17651
-0.0921552
-0.204835
-0.107775
-0.228994
-0.11663
-0.242738
-0.120969
-0.246685
-0.123174
-0.244754
-0.124814
-0.242196
-0.12606
-0.240431
-0.126456
-0.238951
-0.124559
-0.236399
-0.228487
-0.119146
0.129251
-0.222668
-0.125837
0.126109
-0.220105
0.122632
-0.217069
0.119688
-0.213919
0.117581
-0.211698
0.116392
-0.210199
0.116196
-0.209111
0.11711
-0.208272
0.119309
-0.207593
0.122764
-0.206609
0.126888
-0.204503
0.130677
-0.200195
0.132853
-0.192718
0.132357
-0.181713
0.128623
-0.16747
0.121745
-0.151119
0.112098
-0.133657
0.100307
-0.116408
0.0873098
-0.100984
0.0737273
-0.0881557
0.0604803
-0.0788619
0.0488995
-0.0731343
0.0401771
-0.069797
0.0342044
-0.0676764
0.0290523
-0.0673894
0.0233038
-0.0709457
0.0152597
-0.0791251
0.00375504
-0.092939
-0.0114811
-0.11207
-0.0301647
-0.135487
-0.0518054
-0.161678
-0.074395
-0.189674
-0.0944608
-0.216864
-0.108006
-0.237512
-0.115304
-0.247952
-0.11891
-0.24981
-0.121403
-0.248305
-0.123722
-0.246488
-0.126342
-0.244311
-0.128784
-0.241365
-0.235506
-0.128426
0.12488
-0.219918
-0.133145
0.115939
-0.214815
0.108033
-0.211004
0.102
-0.208007
0.0976275
-0.205847
0.0951746
-0.204817
0.0950487
-0.204771
0.0976564
-0.205562
0.102904
-0.206609
0.109935
-0.206689
0.117437
-0.204527
0.123845
-0.198789
0.127754
-0.188658
0.128391
-0.174401
0.125655
-0.156963
0.119988
-0.138009
0.111788
-0.118478
0.102031
-0.100255
0.0910964
-0.0843458
0.079467
-0.071607
0.0678042
-0.0631445
0.056762
-0.0589689
0.0472957
-0.0581928
0.0400319
-0.0593013
0.0341595
-0.0614613
0.0282778
-0.0660808
0.0209995
-0.0739408
0.0109116
-0.0860146
-0.0026714
-0.1027
-0.0196083
-0.123779
-0.0393469
-0.148138
-0.0610697
-0.175059
-0.082428
-0.203449
-0.0995925
-0.229037
-0.110485
-0.246391
-0.116448
-0.253705
-0.120282
-0.25472
-0.123493
-0.253769
-0.126488
-0.25189
-0.130098
-0.248237
-0.242228
-0.133577
0.113215
-0.213174
-0.127552
0.100408
-0.207522
0.0893872
-0.203464
0.0807061
-0.200854
0.0750114
-0.199849
0.0726888
-0.200505
0.0743011
-0.202879
0.0798353
-0.206261
0.0881779
-0.208985
0.0974881
-0.209102
0.1063
-0.205715
0.113109
-0.197447
0.116975
-0.18404
0.117838
-0.166631
0.116116
-0.146632
0.112337
-0.125809
0.106846
-0.1049
0.0997924
-0.0855854
0.0920494
-0.0695808
0.0836177
-0.0568565
0.0743774
-0.0483856
0.0647227
-0.0446816
0.0553706
-0.0451682
0.0470679
-0.0483497
0.0402005
-0.0530217
0.0338435
-0.0592713
0.0269378
-0.0677352
0.0182389
-0.0791908
0.00680779
-0.0943305
-0.00779976
-0.113421
-0.0254226
-0.135941
-0.0457226
-0.161338
-0.067516
-0.189349
-0.0875627
-0.217747
-0.102463
-0.241241
-0.111689
-0.255138
-0.117596
-0.260277
-0.122445
-0.261068
-0.126926
-0.260099
-0.131206
-0.257027
-0.250951
-0.135753
0.0945562
-0.203603
-0.11348
0.0781221
-0.198155
0.0647486
-0.194913
0.0548502
-0.193618
0.0490097
-0.19463
0.0478758
-0.198103
0.0515453
-0.203566
0.0588955
-0.209107
0.0675863
-0.211853
0.0759294
-0.210514
0.0830978
-0.205055
0.0880802
-0.193913
0.090967
-0.177925
0.0923986
-0.15877
0.0929816
-0.137815
0.0931018
-0.116593
0.0931333
-0.0958183
0.091924
-0.0756322
0.088384
-0.0578003
0.0834496
-0.0443068
0.0775421
-0.0355989
0.0705464
-0.0316426
0.0626722
-0.0321772
0.0545673
-0.0361356
0.0471917
-0.0426171
0.0403499
-0.0505453
0.0333479
-0.0600499
0.0253844
-0.0717934
0.0154663
-0.0862674
0.00292896
-0.104058
-0.0123953
-0.125131
-0.0305598
-0.149037
-0.0513282
-0.175789
-0.0727628
-0.204848
-0.0912577
-0.232576
-0.104402
-0.253066
-0.113165
-0.263758
-0.119991
-0.267567
-0.126227
-0.268154
-0.132049
-0.266325
-0.260868
-0.137921
0.0680598
-0.192099
-0.090326
0.0493387
-0.187723
0.0346112
-0.186045
0.0244223
-0.186947
0.0192473
-0.190757
0.0189512
-0.19705
0.0225008
-0.204479
0.0275101
-0.209799
0.0327395
-0.211294
0.0379956
-0.208728
0.0414587
-0.200441
0.0439266
-0.187483
0.0466113
-0.171101
0.0502262
-0.152466
0.0549934
-0.132444
0.0607555
-0.112175
0.066905
-0.091913
0.0730295
-0.0719807
0.077351
-0.0527669
0.0786285
-0.036781
0.0771844
-0.0260235
0.0736367
-0.0207466
0.0681344
-0.0202119
0.0616
-0.024118
0.0546989
-0.0313009
0.0478411
-0.0404217
0.0408654
-0.0510335
0.0332739
-0.0634553
0.0244536
-0.0780578
0.0136549
-0.0952832
0.000388777
-0.115349
-0.0155598
-0.138071
-0.0344516
-0.163406
-0.0556967
-0.191651
-0.0765552
-0.221305
-0.0935921
-0.247138
-0.105939
-0.264005
-0.115429
-0.272097
-0.123855
-0.275092
-0.131665
-0.275114
-0.271038
-0.139195
0.0344579
-0.17971
-0.0586506
0.0144021
-0.176839
-0.000989454
-0.177243
-0.0113224
-0.180717
-0.0166723
-0.187154
-0.0182641
-0.195011
-0.0183047
-0.201983
-0.0179535
-0.20589
-0.0177513
-0.205647
-0.0184586
-0.200804
-0.0192345
-0.191303
-0.0178208
-0.17961
-0.0131777
-0.165746
-0.0052499
-0.149889
0.00543137
-0.132308
0.0179164
-0.113713
0.0314099
-0.0945006
0.0448278
-0.0746918
0.0571184
-0.0546969
0.0664254
-0.0362097
0.071582
-0.0219108
0.0726708
-0.013293
0.0708722
-0.0107089
0.0671011
-0.0135848
0.0619283
-0.0204076
0.0558783
-0.0297873
0.0492823
-0.0410794
0.0421237
-0.0542509
0.0340671
-0.0693494
0.0245776
-0.0866123
0.0130988
-0.10623
-0.000795091
-0.12814
-0.0175116
-0.15231
-0.0373168
-0.179167
-0.0588911
-0.208782
-0.0789377
-0.237885
-0.0950672
-0.260407
-0.107767
-0.273639
-0.118826
-0.279937
-0.129102
-0.282326
-0.280313
-0.138797
-0.00520194
-0.167301
-0.0196776
-0.0257145
-0.166041
-0.0413949
-0.168582
-0.0524617
-0.174075
-0.0598065
-0.181777
-0.0652383
-0.189255
-0.0705053
-0.194292
-0.0763434
-0.195735
-0.0827575
-0.193241
-0.0883897
-0.187729
-0.0902166
-0.180808
-0.087239
-0.172915
-0.0790642
-0.16346
-0.0660297
-0.151881
-0.049188
-0.13772
-0.0302189
-0.12105
-0.00994995
-0.103107
0.0104463
-0.083555
0.0299364
-0.0629324
0.0466626
-0.0420986
0.0589975
-0.0239558
0.0665233
-0.0111984
0.0698613
-0.00521194
0.0700624
-0.00584702
0.0677365
-0.0111459
0.0635955
-0.0198171
0.0581976
-0.0310599
0.0518187
-0.0445566
0.0445617
-0.0601791
0.0361266
-0.0777589
0.0260839
-0.0973521
0.0139937
-0.118882
-0.000658589
-0.142233
-0.0184267
-0.167783
-0.0391987
-0.196258
-0.0607803
-0.226456
-0.0801139
-0.253154
-0.0962224
-0.271542
-0.110242
-0.281842
-0.123276
-0.287086
-0.287618
-0.135562
-0.0492247
-0.155159
0.0243158
-0.0696
-0.155599
-0.0856478
-0.159699
-0.0982494
-0.165977
-0.109008
-0.173002
-0.11934
-0.178556
-0.130172
-0.180937
-0.141238
-0.180196
-0.150664
-0.177614
-0.156088
-0.174598
-0.156222
-0.171688
-0.150624
-0.168468
-0.139191
-0.164004
-0.122436
-0.157109
-0.101443
-0.146741
-0.0776916
-0.13257
-0.05301
-0.115467
-0.027286
-0.0970267
-0.00212462
-0.0760595
0.0208409
-0.0533867
0.0400799
-0.0320048
0.0545626
-0.0151019
0.0641109
-0.00491
0.0693621
-0.00209097
0.0710442
-0.00477484
0.0699012
-0.0116843
0.0666343
-0.0219745
0.0617781
-0.0351605
0.0556543
-0.0508999
0.0483351
-0.0687739
0.0395803
-0.0885232
0.0290294
-0.109947
0.0162145
-0.132818
0.000517278
-0.157355
-0.0184964
-0.184458
-0.0399697
-0.214206
-0.0612499
-0.243152
-0.0803636
-0.265792
-0.0973803
-0.280283
-0.113272
-0.28873
-0.292089
-0.128373
-0.0941295
-0.143816
0.0700726
-0.114179
-0.145395
-0.130719
-0.150208
-0.144852
-0.156205
-0.158037
-0.161634
-0.171224
-0.164815
-0.184115
-0.165311
-0.195471
-0.164133
-0.203573
-0.16305
-0.207007
-0.16317
-0.205002
-0.16439
-0.197387
-0.165689
-0.184395
-0.165723
-0.166438
-0.163115
-0.144154
-0.156589
-0.118523
-0.145459
-0.0911221
-0.129987
-0.0638153
-0.111471
-0.0354197
-0.0917568
-0.007591
-0.0688179
0.0172591
-0.0448869
0.0376219
-0.0240488
0.0532945
-0.00983631
0.0640131
-0.00284731
0.0706506
-0.00234688
0.0735439
-0.00652047
0.0734091
-0.0149026
0.0709451
-0.0269918
0.0666205
-0.0422152
0.0607628
-0.0600134
0.053397
-0.0798234
0.0443236
-0.101218
0.0331648
-0.123788
0.019368
-0.147571
0.00241069
-0.173489
-0.0176783
-0.202161
-0.0393338
-0.231663
-0.0603955
-0.25707
-0.0799628
-0.275258
-0.0985037
-0.286943
-0.293227
-0.116313
-0.135488
-0.134315
0.113647
-0.153928
-0.136438
-0.169841
-0.140994
-0.184091
-0.145981
-0.197305
-0.149916
-0.209882
-0.151373
-0.221305
-0.150852
-0.230325
-0.150111
-0.235633
-0.150986
-0.23636
-0.154154
-0.232237
-0.158906
-0.223459
-0.163755
-0.210477
-0.167097
-0.193653
-0.16763
-0.172967
-0.164453
-0.148579
-0.156684
-0.121656
-0.143572
-0.0937412
-0.126023
-0.0656425
-0.106609
-0.0361895
-0.085274
-0.00753984
-0.0609138
0.0176032
-0.0370624
0.0380533
-0.0187657
0.0539735
-0.00796775
0.0656291
-0.00403542
0.0732515
-0.00511974
0.077133
-0.0108175
0.0779468
-0.0210091
0.0762606
-0.0350181
0.0724691
-0.052113
0.0668435
-0.0716078
0.0593752
-0.0927949
0.0498548
-0.11506
0.0378792
-0.138246
0.0229724
-0.163192
0.00493829
-0.190788
-0.0156748
-0.219844
-0.0372105
-0.246524
-0.0583604
-0.267341
-0.0789291
-0.281876
-0.290976
-0.0989532
-0.168072
-0.127508
0.149583
-0.183592
-0.129799
-0.197061
-0.133675
-0.20907
-0.137501
-0.220126
-0.139907
-0.230081
-0.140147
-0.238467
-0.139061
-0.244436
-0.138804
-0.247128
-0.141227
-0.245977
-0.146722
-0.240789
-0.154206
-0.231767
-0.16179
-0.219367
-0.167612
-0.204171
-0.17023
-0.186545
-0.168955
-0.166109
-0.163633
-0.14222
-0.153768
-0.116132
-0.138358
-0.0893997
-0.119664
-0.0616254
-0.0995719
-0.0323945
-0.0769899
-0.00429326
-0.0524449
0.0199364
-0.0308231
0.0399784
-0.0164928
0.0560064
-0.00931002
0.068215
-0.00744712
0.0765645
-0.0102685
0.0813505
-0.0179923
0.0830447
-0.0301198
0.0820657
-0.0458692
0.0787204
-0.0644434
0.0731887
-0.0850085
0.0654434
-0.106741
0.0553374
-0.129361
0.0426005
-0.153578
0.0269267
-0.180238
0.00837836
-0.208508
-0.0121972
-0.235323
-0.0335753
-0.257555
-0.0550766
-0.274222
-0.285585
-0.0765841
-0.187413
-0.123898
0.173015
-0.199262
-0.12603
-0.209343
-0.129035
-0.218051
-0.131697
-0.22567
-0.132788
-0.232263
-0.131806
-0.237618
-0.129889
-0.24138
-0.129344
-0.242913
-0.132315
-0.241582
-0.139195
-0.236867
-0.148786
-0.228785
-0.158658
-0.217768
-0.166528
-0.204201
-0.170989
-0.188633
-0.17118
-0.171568
-0.166979
-0.15211
-0.159281
-0.129985
-0.146447
-0.106027
-0.129626
-0.0811887
-0.110574
-0.0543921
-0.0902216
-0.0263303
-0.0673217
0.000152744
-0.0446059
0.0232694
-0.0274972
0.0427135
-0.0173328
0.0586775
-0.0127852
0.0711766
-0.0130434
0.0800587
-0.018161
0.0855395
-0.0280101
0.0879164
-0.0418929
0.0874539
-0.0589818
0.0843273
-0.078354
0.0786943
-0.0991682
0.0706997
-0.121127
0.0603613
-0.14481
0.0474082
-0.170765
0.0315451
-0.198124
0.0130863
-0.224418
-0.00714
-0.247018
-0.0283364
-0.26489
-0.277798
-0.0501842
-0.192593
-0.123093
0.18208
-0.200736
-0.125017
-0.207118
-0.127265
-0.212259
-0.128743
-0.216443
-0.128492
-0.219991
-0.125992
-0.223036
-0.122591
-0.225775
-0.120546
-0.227682
-0.12273
-0.227661
-0.130113
-0.225132
-0.140977
-0.21932
-0.153086
-0.210592
-0.163006
-0.199054
-0.169583
-0.185425
-0.171334
-0.170417
-0.16813
-0.15408
-0.161521
-0.135788
-0.15053
-0.115521
-0.135692
-0.0940402
-0.117973
-0.0710127
-0.0993935
-0.0457604
-0.0790446
-0.0196881
-0.0575726
0.00496628
-0.0395662
0.0266339
-0.027032
0.0454968
-0.0203945
0.0613697
-0.0184785
0.0739616
-0.021234
0.0831215
-0.028677
0.0889462
-0.0403602
0.0915911
-0.0555169
0.0912361
-0.0732497
0.0881437
-0.0927994
0.0827764
-0.114066
0.0752814
-0.137309
0.0654785
-0.162741
0.0527255
-0.189021
0.0371528
-0.214442
0.0190678
-0.236532
-0.000588079
-0.254876
-0.268499
-0.0215882
-0.185554
-0.124691
0.178653
-0.190258
-0.126388
-0.19342
-0.127807
-0.195392
-0.128186
-0.196695
-0.126428
-0.197697
-0.122188
-0.199306
-0.116294
-0.201523
-0.111922
-0.204669
-0.111636
-0.20703
-0.118444
-0.207886
-0.129632
-0.205623
-0.143856
-0.199789
-0.156513
-0.191071
-0.165301
-0.179317
-0.169568
-0.166383
-0.167164
-0.152275
-0.161479
-0.136845
-0.151682
-0.119513
-0.138727
-0.100978
-0.122297
-0.0815734
-0.104768
-0.0602304
-0.0866329
-0.037199
-0.0672139
-0.0132857
-0.0505428
0.00903913
-0.0369625
0.0293609
-0.0289551
0.0473168
-0.0253997
0.062695
-0.0264005
0.0750465
-0.0317395
0.0841148
-0.041165
0.089876
-0.0541453
0.0925967
-0.0700744
0.0926316
-0.0882809
0.0907225
-0.109049
0.0866293
-0.131652
0.0804287
-0.156611
0.070913
-0.181291
0.0586946
-0.205791
0.0432821
-0.22652
0.0261647
-0.245023
-0.258399
0.00692579
-0.169643
-0.127583
0.165317
-0.171522
-0.129478
-0.172504
-0.129585
-0.171508
-0.129805
-0.171351
-0.12517
-0.16935
-0.120859
-0.170792
-0.109749
-0.171507
-0.104485
-0.176145
-0.0988222
-0.18126
-0.103865
-0.184749
-0.115561
-0.18854
-0.128529
-0.185227
-0.147495
-0.182155
-0.155398
-0.172227
-0.166018
-0.162199
-0.163339
-0.149412
-0.160162
-0.135911
-0.150935
-0.120696
-0.139655
-0.104002
-0.124758
-0.0872416
-0.107438
-0.0686094
-0.091401
-0.0494184
-0.0728487
-0.0279335
-0.0588595
-0.0069887
-0.0452081
0.0133838
-0.0371799
0.0318903
-0.032395
0.0485162
-0.03224
0.0627144
-0.0359675
0.0742033
-0.0435946
0.0829448
-0.0548349
0.0891099
-0.0692925
0.0927686
-0.0861944
0.0949417
-0.106773
0.0941987
-0.127845
0.0917897
-0.152604
0.0852092
-0.174649
0.0766018
-0.198715
0.0638992
-0.216983
0.0501309
-0.236076
-0.247998
0.0332526
-0.148797
0.1458
-0.148733
-0.148569
-0.144882
-0.144089
-0.138707
-0.140111
-0.138671
-0.143807
-0.152244
-0.157786
-0.168745
-0.169172
-0.171773
-0.164843
-0.157219
-0.145945
-0.134075
-0.12087
-0.105333
-0.0901122
-0.07283
-0.0556473
-0.036625
-0.0177606
0.00132703
0.0190568
0.0355989
0.0504685
0.0632712
0.0742796
0.0833945
0.0902967
0.0960978
0.0980761
0.0991597
0.0950314
0.089907
0.0799755
0.0696547
0.0555881
0.264935
0.0436738
0.267533
0.0232203
0.264935
-0.000355124
0.256355
-0.0251477
0.241805
-0.049769
0.222048
-0.0726133
0.198373
-0.0923108
0.172296
-0.108055
0.14531
-0.119496
0.118628
-0.126762
0.0932711
-0.130574
0.0699579
-0.131757
0.0491461
-0.131248
0.0311361
-0.129714
0.0164443
-0.128317
0.0067967
-0.125374
-0.115898
0.268526
0.030946
0.271165
0.0128212
0.268236
-0.00738481
0.259738
-0.028664
0.245925
-0.0498167
0.227407
-0.0695309
0.20521
-0.086795
0.180563
-0.100965
0.154738
-0.111696
0.128881
-0.118964
0.103897
-0.123245
0.0804671
-0.125136
0.0590132
-0.125334
0.0399366
-0.124511
0.0231911
-0.123423
0.010186
-0.121895
-0.112669
0.272569
0.0208495
0.272899
0.00462738
0.269037
-0.0133655
0.260476
-0.031816
0.247248
-0.050012
0.229888
-0.0670913
0.209155
-0.0822226
0.185979
-0.0948923
0.161418
-0.104849
0.136519
-0.11204
0.112077
-0.116667
0.0886844
-0.119123
0.0667928
-0.119968
0.0467596
-0.119795
0.0287475
-0.11919
0.0131997
-0.118289
-0.10932
0.269151
0.0103977
0.269841
-0.00383339
0.266151
-0.0192259
0.258003
-0.034921
0.24568
-0.0505245
0.229618
-0.0652867
0.210443
-0.0785282
0.188893
-0.0898119
0.165779
-0.098933
0.141961
-0.10586
0.118182
-0.110667
0.0950569
-0.113601
0.0729703
-0.114996
0.0522277
-0.115368
0.0330451
-0.115223
0.0156216
-0.114705
-0.105907
0.26699
0.002194
0.265989
-0.0103408
0.261558
-0.0239004
0.253558
-0.0375754
0.241915
-0.0509981
0.226943
-0.063777
0.209151
-0.0753948
0.189137
-0.0854733
0.167535
-0.0938199
0.144976
-0.100376
0.122086
-0.105196
0.0993981
-0.108419
0.0773662
-0.110294
0.0562526
-0.11114
0.0362638
-0.111415
0.0175003
-0.111164
-0.102433
0.257449
-0.00611399
0.256989
-0.0169843
0.25318
-0.0286286
0.24589
-0.0402264
0.235314
-0.0517122
0.221684
-0.062704
0.205386
-0.0728127
0.186919
-0.0817486
0.166827
-0.0893428
0.145643
-0.0955043
0.123853
-0.100224
0.101896
-0.103579
0.0801433
-0.105741
0.0589151
-0.106974
0.0384636
-0.107664
0.0187881
-0.107603
-0.0989584
0.249849
-0.0127278
0.248466
-0.022191
0.244222
-0.0322547
0.237188
-0.0423325
0.227278
-0.0521825
0.214666
-0.0616574
0.199654
-0.0704789
0.18262
-0.0784108
0.163968
-0.085293
0.144121
-0.0910338
0.123487
-0.0955937
0.102444
-0.0990084
0.0813225
-0.101387
0.060369
-0.102902
0.03976
-0.103864
0.0195108
-0.103901
-0.0955439
0.235618
-0.0193453
0.234828
-0.0273942
0.231375
-0.0359346
0.225237
-0.0444739
0.216498
-0.0528541
0.205295
-0.0609677
0.19181
-0.0685652
0.176326
-0.0754922
0.159186
-0.0816338
0.140743
-0.0868946
0.121349
-0.0912176
0.101327
-0.0945961
0.0809655
-0.0970945
0.0605075
-0.0988302
0.0401519
-0.10006
0.0198749
-0.100186
-0.0920808
0.223479
-0.0247523
0.222332
-0.0315903
0.218903
-0.0388606
0.213165
-0.0461175
0.205153
-0.0532512
0.194919
-0.0601604
0.182645
-0.0667117
0.168543
-0.0727672
0.152848
-0.0782222
0.135825
-0.0829967
0.117745
-0.0870301
0.0988785
-0.0903006
0.0794715
-0.0928385
0.0597386
-0.09472
0.0398598
-0.0961583
0.0198396
-0.096372
-0.0885463
0.206233
-0.03004
0.205687
-0.035712
0.202993
-0.041725
0.198188
-0.0477841
0.191311
-0.0537726
0.182432
-0.0596099
0.171642
-0.065174
0.159084
-0.070368
0.14495
-0.0751239
0.12945
-0.0793721
0.112804
-0.0830496
0.095233
-0.0861249
0.076948
-0.0886094
0.0581381
-0.0905475
0.0389623
-0.0921139
0.0194438
-0.0923837
-0.0849293
0.190924
-0.0343764
0.190292
-0.0390671
0.18787
-0.0440689
0.18361
-0.0490959
0.177505
-0.0540675
0.169589
-0.0589344
0.159948
-0.063622
0.148704
-0.0680573
0.135987
-0.072175
0.121943
-0.0759115
0.106732
-0.0792086
0.0905213
-0.0820348
0.0734805
-0.0843938
0.0557693
-0.0863124
0.0375051
-0.0879154
0.0187465
-0.0882109
-0.0812123
0.172337
-0.0384697
0.172213
-0.0422638
0.170413
-0.0462633
0.166949
-0.0503312
0.161838
-0.0543861
0.155108
-0.0583865
0.146813
-0.0622762
0.137027
-0.0659956
0.125825
-0.069475
0.11331
-0.0726723
0.0996045
-0.0755409
0.084846
-0.0780569
0.069174
-0.0802194
0.0527233
-0.0820434
0.0355752
-0.0835931
0.0178088
-0.0838673
-0.07737
0.155411
-0.0417373
0.15525
-0.044786
0.153731
-0.0480026
0.1508
-0.0512668
0.146444
-0.0545332
0.140665
-0.0577731
0.133486
-0.0609453
0.124937
-0.0639943
0.115078
-0.0668741
0.103976
-0.0695458
0.0917221
-0.0719796
0.0784208
-0.0741607
0.0641773
-0.0760827
0.0490962
-0.0777542
0.0332181
-0.0791693
0.0166541
-0.0793917
-0.0734039
0.13683
-0.0447062
0.137035
-0.0470745
0.136011
-0.0495447
0.133727
-0.052066
0.130182
-0.0546161
0.125375
-0.0571671
0.119307
-0.0596746
0.111996
-0.062099
0.103479
-0.0644069
0.093806
-0.0665714
0.0830405
-0.06857
0.0712557
-0.0703942
0.0585279
-0.0720358
0.0449325
-0.0734982
0.0304697
-0.0746951
0.0153082
-0.0748539
-0.0693359
0.119714
-0.0469058
0.119835
-0.048721
0.118985
-0.0506183
0.117125
-0.0525583
0.114214
-0.054513
0.110211
-0.0564573
0.105101
-0.0583665
0.0988861
-0.0602184
0.0915869
-0.0619948
0.0832399
-0.0636816
0.073894
-0.0652661
0.0635931
-0.0667315
0.0523876
-0.0680725
0.0403269
-0.069288
0.0274109
-0.0702386
0.0137983
-0.0703067
-0.0652015
0.101938
-0.0487434
0.10227
-0.0500645
0.10176
-0.0514367
0.100366
-0.0528366
0.0980541
-0.054245
0.0947992
-0.0556433
0.0905882
-0.0570176
0.0854207
-0.0583576
0.0793069
-0.0596534
0.0722635
-0.0608954
0.0643136
-0.0620756
0.0554871
-0.0631814
0.0458226
-0.0642139
0.0353554
-0.0651661
0.0241193
-0.065894
0.0121644
-0.065794
-0.0610309
0.0856079
-0.0498909
0.0858201
-0.0508125
0.0853739
-0.0517666
0.0842234
-0.0527269
0.082328
-0.0536786
0.0796609
-0.0546166
0.0762077
-0.0555385
0.0719615
-0.0564406
0.0669204
-0.0573168
0.0610869
-0.0581609
0.0544692
-0.0589691
0.0470861
-0.0597376
0.0389622
-0.0604718
0.0301385
-0.0611795
0.0206245
-0.0616828
0.0103953
-0.0613421
-0.0568936
0.0690286
-0.0506445
0.0693231
-0.0511976
0.0690543
-0.0517567
0.0681876
-0.0523073
0.0667065
-0.0528526
0.0646008
-0.0533935
0.0618607
-0.0539276
0.0584773
-0.0544517
0.0544453
-0.0549627
0.0497639
-0.0554577
0.0444362
-0.0559364
0.0384736
-0.0564024
0.0318908
-0.0568628
0.02469
-0.0573123
0.0168834
-0.0575815
0.00848222
-0.0570281
-0.0528897
0.0537026
-0.0507095
0.0538126
-0.0509729
0.0535032
-0.0512122
0.0527565
-0.0514403
0.0515586
-0.0516647
0.0498955
-0.051886
0.047755
-0.0521033
0.0451277
-0.0523164
0.0420082
-0.0525253
0.0383949
-0.0527312
0.0342905
-0.0529372
0.0297012
-0.0531499
0.0246311
-0.053374
0.0190549
-0.0535737
0.0129735
-0.0536056
0.00649362
-0.052932
-0.0490679
0.038328
-0.0503408
0.0383919
-0.0502839
0.0381246
-0.0502255
0.0375311
-0.0501715
0.0366104
-0.0501233
0.0353589
-0.0500793
0.0337732
-0.0500386
0.0318507
-0.0500018
0.0295902
-0.0499704
0.0269933
-0.0499479
0.0240644
-0.0499404
0.0208071
-0.0499537
0.0172181
-0.0499851
0.0132878
-0.0499922
0.00900446
-0.0498294
0.00448497
-0.0490871
-0.0454339
0.0238467
-0.0491911
0.0236747
-0.0489333
0.0233186
-0.0486605
0.022774
-0.0483933
0.0220403
-0.0481373
0.0211197
-0.0478936
0.0200159
-0.0476631
0.018733
-0.0474466
0.0172753
-0.0472464
0.0156486
-0.0470675
0.0138595
-0.0469167
0.0119103
-0.0467959
0.00979341
-0.0466924
0.00749659
-0.0465593
0.00502504
-0.0462686
0.0024519
-0.0454789
-0.0420082
0.00938528
-0.0475734
0.00906922
-0.0469911
0.00863716
-0.0465099
0.00812364
-0.0460697
0.00755059
-0.0456636
0.00693275
-0.0452858
0.00628314
-0.044936
0.00561388
-0.044614
0.00493689
-0.0443225
0.00426388
-0.0440664
0.00360322
-0.0438497
0.00295466
-0.0436659
0.00230898
-0.0434938
0.00165327
-0.0432835
0.000983154
-0.0429155
0.000352321
-0.0421072
-0.0388626
-0.00477356
-0.0449162
-0.00537381
-0.0442821
-0.0059301
-0.0436912
-0.00643856
-0.0431417
-0.00687381
-0.0426482
-0.00721069
-0.0422051
-0.00742521
-0.0418112
-0.00749565
-0.0414648
-0.00740253
-0.0411664
-0.00713019
-0.0409181
-0.00667109
-0.040716
-0.00602846
-0.0405438
-0.00521243
-0.0403739
-0.00423397
-0.0401564
-0.00309948
-0.0397771
-0.00178999
-0.0389797
-0.0360557
-0.0189259
-0.0417395
-0.0197211
-0.0408484
-0.0204185
-0.0401416
-0.0209531
-0.0395331
-0.0212762
-0.0390221
-0.0213487
-0.0385936
-0.0211368
-0.0382415
-0.0206118
-0.0379601
-0.0197498
-0.0377456
-0.018535
-0.0375928
-0.0169628
-0.0374876
-0.0150384
-0.0374047
-0.0127698
-0.0373151
-0.010163
-0.0371717
-0.0072218
-0.0368639
-0.00394491
-0.0361415
-0.0336286
-0.0329179
-0.0373266
-0.0340896
-0.0364535
-0.034977
-0.0357572
-0.0355468
-0.0351813
-0.0357537
-0.0347372
-0.0355519
-0.0344114
-0.0349002
-0.0341938
-0.033765
-0.0340723
-0.0321215
-0.0340352
-0.0299559
-0.0340674
-0.027266
-0.0341447
-0.0240565
-0.0342362
-0.0203319
-0.0343145
-0.0160943
-0.0343364
-0.011344
-0.0341949
-0.00607679
-0.0336462
-0.0316041
-0.0472268
-0.0322173
-0.048598
-0.0312144
-0.0496351
-0.0305191
-0.0502351
-0.0300329
-0.0503188
-0.0297443
-0.0498271
-0.0296207
-0.0487133
-0.0296409
-0.0469431
-0.0297815
-0.0444945
-0.0300203
-0.0413576
-0.0303318
-0.0375323
-0.0306833
-0.0330227
-0.031042
-0.0278319
-0.0313834
-0.0219615
-0.0316679
-0.0154109
-0.0317926
-0.00816948
-0.0315263
-0.0300113
-0.061305
-0.0256818
-0.0631496
-0.0247981
-0.0644164
-0.0242887
-0.065048
-0.0240291
-0.0649833
-0.0240134
-0.0641644
-0.024207
-0.0625467
-0.0245773
-0.0600997
-0.0250886
-0.0568072
-0.0257065
-0.052665
-0.0263958
-0.0476773
-0.0271177
-0.0418505
-0.0278395
-0.0351899
-0.028541
-0.027699
-0.0291862
-0.0193759
-0.0296809
-0.0101979
-0.0298174
-0.028883
-0.0759013
-0.0182652
-0.0779214
-0.0174496
-0.0793085
-0.0171227
-0.079923
-0.0171679
-0.0796656
-0.0175407
-0.0784708
-0.0181751
-0.0762964
-0.0190175
-0.0731201
-0.0200151
-0.0689354
-0.0211204
-0.0637477
-0.0222892
-0.0575696
-0.0234787
-0.0504147
-0.0246583
-0.0422941
-0.0258136
-0.0332153
-0.0269155
-0.0231754
-0.0278836
-0.0121413
-0.0285435
-0.0282661
-0.0899717
-0.00927835
-0.0925364
-0.00875932
-0.0941499
-0.00887539
-0.094741
-0.00941753
-0.0942437
-0.010339
-0.0926101
-0.0115582
-0.0898127
-0.0130052
-0.0858443
-0.0146099
-0.0807142
-0.016312
-0.0744431
-0.0180599
-0.0670569
-0.0198097
-0.0585803
-0.0215355
-0.049033
-0.0232324
-0.038426
-0.0248839
-0.0267536
-0.0264301
-0.013975
-0.0277356
-0.0282245
-0.104537
0.00072066
-0.107222
0.000869949
-0.10888
0.000292791
-0.109346
-0.000861408
-0.10853
-0.00247244
-0.106382
-0.00442377
-0.10289
-0.00661144
-0.0980669
-0.00894437
-0.0919453
-0.0113494
-0.0845666
-0.0137693
-0.0759745
-0.0161633
-0.0662076
-0.0185158
-0.0552938
-0.0208367
-0.0432458
-0.0231299
-0.0300515
-0.0253646
-0.0156505
-0.027458
-0.0288204
-0.118111
0.0122481
-0.121319
0.0118379
-0.123118
0.0104724
-0.123453
0.0084874
-0.122263
0.00599245
-0.119535
0.00314428
-0.115282
7.15994e-05
-0.109551
-0.0031115
-0.102404
-0.00631999
-0.0939092
-0.00949625
-0.0841328
-0.0126089
-0.0731284
-0.01566
-0.0609313
-0.0186835
-0.0475548
-0.0217102
-0.0329785
-0.0247483
-0.0171274
-0.0277736
-0.0301268
-0.131625
0.0248426
-0.134945
0.023699
-0.136736
0.0214798
-0.136834
0.0184845
-0.135186
0.0149275
-0.131797
0.0110154
-0.126719
0.00691719
-0.120034
0.00276944
-0.111841
-0.00133345
-0.102242
-0.00533852
-0.0913262
-0.0092328
-0.0791633
-0.0130463
-0.0657947
-0.0168466
-0.0512337
-0.0206982
-0.035452
-0.0246556
-0.0183686
-0.0287517
-0.0322328
-0.143864
0.0387902
-0.14757
0.0366574
-0.149351
0.0332419
-0.149162
0.0290049
-0.146983
0.0241794
-0.142863
0.019031
-0.136903
0.01377
-0.129233
0.00855489
-0.119997
0.00348177
-0.10933
-0.00140935
-0.0973506
-0.00613543
-0.0841398
-0.0107673
-0.0697441
-0.0154154
-0.0541732
-0.0201864
-0.0373953
-0.0251802
-0.0193345
-0.0304777
-0.0352414
-0.155062
0.0536654
-0.158914
0.0503618
-0.160634
0.045595
-0.160098
0.0398751
-0.157326
0.0335677
-0.15242
0.0270088
-0.145542
0.0204551
-0.136881
0.0140841
-0.126632
0.00798429
-0.11497
0.00216713
-0.102035
-0.00342959
-0.0879186
-0.00893126
-0.0726671
-0.0145022
-0.0562837
-0.0202954
-0.0387394
-0.0264468
-0.0199786
-0.0330656
-0.0392597
-0.164596
0.069574
-0.168681
0.0647468
-0.170276
0.0583225
-0.16933
0.0508754
-0.165908
0.0428752
-0.160179
0.0347426
-0.152375
0.0267844
-0.142751
0.01919
-0.131559
0.0120274
-0.11901
0.00525937
-0.10526
-0.00124076
-0.0904066
-0.00766845
-0.0744873
-0.0142499
-0.0574998
-0.0211834
-0.0394251
-0.0286222
-0.020253
-0.0366659
-0.0443917
-0.172189
0.0860718
-0.176468
0.079575
-0.177936
0.0712263
-0.176555
0.0617848
-0.172463
0.0518794
-0.165909
0.0420224
-0.157209
0.0325684
-0.146694
0.0237062
-0.134667
0.0154626
-0.121371
0.00772764
-0.106973
0.000286982
-0.0915621
-0.0071399
-0.0751645
-0.0148439
-0.0577766
-0.0230565
-0.0394066
-0.0319164
-0.0201178
-0.0414628
-0.0507382
-0.177606
0.103111
-0.182072
0.0946008
-0.183382
0.0840386
-0.181558
0.0723586
-0.176806
0.0603519
-0.169467
0.0486409
-0.159945
0.0376236
-0.148648
0.0274707
-0.13593
0.0181405
-0.122056
0.00942061
-0.107187
0.000983974
-0.0913958
-0.00754702
-0.0746952
-0.0165215
-0.0570909
-0.0261772
-0.0386443
-0.0365899
-0.0195364
-0.0476682
-0.0583875
-0.180584
0.120274
-0.185261
0.109569
-0.186453
0.0965243
-0.184221
0.0823597
-0.178861
0.0680724
-0.170818
0.0544012
-0.160591
0.041778
-0.148664
0.0303304
-0.13543
0.0199126
-0.121162
0.0101748
-0.106002
0.000652219
-0.0899932
-0.00913533
-0.0731379
-0.0195752
-0.0554708
-0.0308646
-0.0371386
-0.0429536
-0.0185003
-0.0555199
-0.0674298
-0.181038
0.137404
-0.185969
0.124208
-0.187094
0.108428
-0.184529
0.091563
-0.178662
0.0748399
-0.170042
0.0591283
-0.159271
0.0448804
-0.146898
0.0321459
-0.133348
0.0206319
-0.118877
0.00981148
-0.10359
-0.000940878
-0.0874946
-0.0122023
-0.0705875
-0.0243601
-0.0529619
-0.037501
-0.0349142
-0.0513483
-0.0170156
-0.0652765
-0.0779543
-0.178962
0.154062
-0.184234
0.138263
-0.185399
0.119528
-0.18262
0.099763
-0.17638
0.0804726
-0.167344
0.0626631
-0.156213
0.0467898
-0.143596
0.0327791
-0.129925
0.0201389
-0.115422
0.00812123
-0.100133
-0.00407758
-0.0840209
-0.0171124
-0.0670925
-0.031308
-0.0495396
-0.0465413
-0.0318638
-0.062191
-0.0149844
-0.0771721
-0.0899261
0.0602685
-0.181852
-0.0553577
0.0636528
-0.198244
0.0663142
-0.214643
0.0675935
-0.23046
0.0684594
-0.24528
0.0680817
-0.258535
0.0675273
-0.269784
0.0658471
-0.278605
0.0641374
-0.284704
0.0614379
-0.287847
0.0586291
-0.287898
0.0549938
-0.285014
0.0509867
-0.279147
0.0463046
-0.270737
0.041014
-0.259954
0.0351342
-0.247101
0.0284973
-0.232566
0.0212965
-0.216681
0.013307
-0.199972
0.00476102
-0.182736
-0.00451946
-0.165592
-0.0143308
-0.148751
-0.0247451
-0.132788
-0.0356155
-0.118
-0.0469023
-0.10483
-0.0584964
-0.0935973
-0.0702732
-0.0845906
-0.0821193
-0.0780577
-0.0938247
-0.0741336
-0.105277
-0.0728888
-0.116201
-0.0742891
-0.12647
-0.0781821
-0.135776
-0.0843289
-0.143996
-0.0923644
-0.15081
-0.101863
-0.156138
-0.112302
-0.159667
-0.123139
-0.161385
-0.1338
-0.161012
-0.143727
-0.158645
-0.1524
-0.159406
0.0923652
-0.178383
-0.089357
0.0941071
-0.195164
0.0946629
-0.212033
0.0941989
-0.228465
0.0928112
-0.243955
0.0906225
-0.257945
0.0877392
-0.269965
0.0842335
-0.279549
0.0802001
-0.286416
0.0756643
-0.290258
0.0707162
-0.291002
0.0652669
-0.288624
0.0594189
-0.283269
0.053076
-0.27518
0.0462676
-0.264657
0.0389763
-0.251957
0.0311785
-0.237468
0.0229036
-0.221574
0.0141141
-0.204738
0.00488375
-0.18737
-0.00482763
-0.169971
-0.0149286
-0.152883
-0.0254133
-0.136591
-0.0361941
-0.121466
-0.0472122
-0.107917
-0.0583748
-0.096287
-0.0695701
-0.0868747
-0.080678
-0.0799253
-0.091546
-0.0755965
-0.102012
-0.0739582
-0.111898
-0.0749854
-0.121007
-0.0785367
-0.129143
-0.0843693
-0.1361
-0.0921282
-0.14169
-0.101377
-0.145728
-0.111594
-0.148059
-0.122222
-0.148553
-0.132683
-0.147115
-0.142404
-0.143686
-0.15086
-0.157612
0.11948
-0.171409
-0.117315
0.120171
-0.188591
0.119519
-0.205982
0.117675
-0.223054