/*--------------------------------*- C++ -*----------------------------------*\
  =========                 |
  \\      /  F ield         | OpenFOAM: The Open Source CFD Toolbox
   \\    /   O peration     | Website:  https://openfoam.org
    \\  /    A nd           | Version:  6
     \\/     M anipulation  |
\*---------------------------------------------------------------------------*/
FoamFile
{
    version     2.0;
    format      ascii;
    class       volScalarField;
    location    "4.59";
    object      rho;
}
// * * * * * * * * * * * * * * * * * * * * * * * * * * * * * * * * * * * * * //

dimensions      [1 -3 0 0 0 0 0];

internalField   nonuniform List<scalar> 
5625
(
1.40004
1.40005
1.40008
1.40013
1.4002
1.40029
1.40043
1.4006
1.40084
1.40113
1.40148
1.40191
1.40241
1.40299
1.40364
1.40435
1.40513
1.40595
1.4068
1.40767
1.40855
1.4094
1.41023
1.411
1.41171
1.41233
1.41286
1.41329
1.41361
1.41381
1.41388
1.41383
1.41366
1.41337
1.41297
1.41246
1.41186
1.41117
1.41042
1.40961
1.40878
1.40793
1.40708
1.40625
1.40545
1.4047
1.40401
1.40338
1.40281
1.40231
1.40188
1.40151
1.4012
1.40094
1.40073
1.40056
1.40042
1.40031
1.40023
1.40016
1.40011
1.40008
1.40005
1.40003
1.40002
1.40001
1.4
1.4
1.4
1.4
1.4
1.4
1.4
1.4
1.4
1.40006
1.40009
1.40014
1.40022
1.40032
1.40047
1.40066
1.40092
1.40125
1.40165
1.40215
1.40274
1.40342
1.40419
1.40506
1.406
1.40701
1.40808
1.40918
1.41029
1.41139
1.41247
1.41349
1.41445
1.41531
1.41608
1.41673
1.41724
1.41763
1.41786
1.41795
1.4179
1.41769
1.41734
1.41684
1.41622
1.41548
1.41463
1.41369
1.41268
1.41162
1.41053
1.40943
1.40836
1.40732
1.40633
1.40541
1.40457
1.40381
1.40314
1.40255
1.40205
1.40163
1.40128
1.40099
1.40075
1.40057
1.40042
1.40031
1.40022
1.40015
1.4001
1.40007
1.40004
1.40002
1.40001
1.4
1.4
1.4
1.4
1.4
1.4
1.4
1.4
1.4
1.40011
1.40016
1.40023
1.40034
1.4005
1.40071
1.40099
1.40135
1.40181
1.40237
1.40304
1.40383
1.40474
1.40577
1.4069
1.40812
1.40942
1.41077
1.41215
1.41354
1.4149
1.41621
1.41746
1.4186
1.41964
1.42054
1.4213
1.42191
1.42235
1.42263
1.42274
1.42267
1.42243
1.42202
1.42144
1.42071
1.41983
1.41881
1.41767
1.41644
1.41514
1.41378
1.4124
1.41104
1.4097
1.40843
1.40723
1.40612
1.40512
1.40423
1.40345
1.40278
1.40221
1.40173
1.40134
1.40102
1.40077
1.40057
1.40041
1.40029
1.4002
1.40014
1.40009
1.40005
1.40003
1.40001
1.4
1.4
1.39999
1.39999
1.39999
1.39999
1.4
1.4
1.4
1.40017
1.40024
1.40036
1.40052
1.40074
1.40104
1.40144
1.40194
1.40256
1.40332
1.40423
1.40528
1.40647
1.4078
1.40925
1.4108
1.41243
1.4141
1.4158
1.41747
1.41911
1.42066
1.42211
1.42344
1.42463
1.42566
1.42652
1.4272
1.4277
1.42801
1.42813
1.42806
1.4278
1.42734
1.4267
1.42588
1.42487
1.4237
1.42238
1.42093
1.41938
1.41774
1.41606
1.41437
1.4127
1.41108
1.40955
1.40812
1.40682
1.40565
1.40463
1.40373
1.40297
1.40234
1.40181
1.40138
1.40104
1.40077
1.40056
1.4004
1.40028
1.40019
1.40012
1.40007
1.40004
1.40002
1.4
1.4
1.39999
1.39999
1.39999
1.39999
1.39999
1.39999
1.4
1.40025
1.40037
1.40053
1.40076
1.40108
1.4015
1.40204
1.40272
1.40357
1.40458
1.40576
1.40713
1.40867
1.41036
1.41218
1.4141
1.41609
1.41812
1.42013
1.4221
1.42398
1.42575
1.42738
1.42886
1.43016
1.43127
1.43219
1.43291
1.43344
1.43377
1.4339
1.43383
1.43356
1.43309
1.43242
1.43154
1.43047
1.42919
1.42773
1.4261
1.42432
1.42242
1.42043
1.4184
1.41637
1.41437
1.41246
1.41066
1.40899
1.40749
1.40615
1.40498
1.40398
1.40314
1.40244
1.40187
1.40141
1.40104
1.40076
1.40054
1.40038
1.40025
1.40016
1.4001
1.40006
1.40003
1.40001
1.4
1.39999
1.39999
1.39999
1.39999
1.39999
1.39999
1.39999
1.40037
1.40054
1.40077
1.4011
1.40153
1.40211
1.40284
1.40376
1.40487
1.4062
1.40773
1.40947
1.41141
1.41351
1.41574
1.41807
1.42043
1.42279
1.4251
1.42732
1.4294
1.43132
1.43306
1.4346
1.43594
1.43707
1.43799
1.4387
1.43922
1.43954
1.43967
1.43961
1.43936
1.43891
1.43826
1.4374
1.43632
1.43502
1.4335
1.43177
1.42984
1.42773
1.42548
1.42314
1.42074
1.41835
1.41602
1.41379
1.41171
1.4098
1.40809
1.40659
1.40529
1.40418
1.40326
1.4025
1.40189
1.40141
1.40103
1.40073
1.40051
1.40035
1.40023
1.40014
1.40008
1.40004
1.40001
1.4
1.39999
1.39998
1.39998
1.39998
1.39999
1.39999
1.39999
1.40053
1.40076
1.4011
1.40154
1.40214
1.40292
1.40389
1.4051
1.40655
1.40825
1.4102
1.41238
1.41476
1.41731
1.41997
1.42269
1.4254
1.42804
1.43058
1.43295
1.43513
1.43709
1.43881
1.44031
1.44157
1.4426
1.44343
1.44407
1.44452
1.44479
1.44491
1.44486
1.44466
1.44428
1.44372
1.44296
1.44199
1.44079
1.43934
1.43764
1.43568
1.43348
1.43107
1.42848
1.42577
1.42301
1.42026
1.41758
1.41503
1.41267
1.41052
1.40861
1.40695
1.40552
1.40432
1.40333
1.40253
1.40189
1.40138
1.40099
1.4007
1.40048
1.40031
1.4002
1.40012
1.40006
1.40002
1.4
1.39999
1.39998
1.39998
1.39998
1.39998
1.39999
1.39999
1.40075
1.40107
1.40153
1.40214
1.40294
1.40396
1.40525
1.40681
1.40866
1.4108
1.41323
1.41589
1.41876
1.42176
1.42482
1.42787
1.43084
1.43367
1.43629
1.43867
1.44078
1.44261
1.44416
1.44545
1.44649
1.44732
1.44795
1.44841
1.44873
1.44892
1.449
1.44897
1.44884
1.44858
1.44819
1.44764
1.4469
1.44594
1.44473
1.44323
1.44143
1.43932
1.43691
1.43423
1.43133
1.42827
1.42514
1.42203
1.41901
1.41615
1.41351
1.41113
1.40903
1.40722
1.40568
1.4044
1.40336
1.40252
1.40185
1.40134
1.40094
1.40065
1.40043
1.40028
1.40017
1.40009
1.40004
1.40001
1.39999
1.39998
1.39998
1.39998
1.39998
1.39998
1.39998
1.40104
1.40148
1.40209
1.40291
1.40397
1.40531
1.40696
1.40895
1.41127
1.41393
1.41687
1.42004
1.42337
1.42678
1.43016
1.43343
1.43651
1.43933
1.44184
1.44402
1.44585
1.44735
1.44854
1.44945
1.45012
1.45059
1.45091
1.45112
1.45124
1.4513
1.45132
1.45131
1.45126
1.45118
1.45103
1.45078
1.4504
1.44984
1.44904
1.44796
1.44654
1.44476
1.44259
1.44003
1.43713
1.43395
1.43056
1.42708
1.42362
1.42026
1.4171
1.4142
1.41161
1.40934
1.40739
1.40576
1.40441
1.40333
1.40246
1.40179
1.40127
1.40088
1.40059
1.40038
1.40024
1.40013
1.40006
1.40002
1.39999
1.39998
1.39997
1.39997
1.39997
1.39998
1.39998
1.40142
1.40202
1.40283
1.4039
1.40528
1.407
1.4091
1.41159
1.41445
1.41765
1.42112
1.42478
1.42851
1.43221
1.43576
1.43905
1.44202
1.44459
1.44674
1.44846
1.44978
1.45073
1.45136
1.45172
1.45188
1.45188
1.4518
1.45167
1.45153
1.45143
1.45137
1.45137
1.45143
1.45154
1.45168
1.45181
1.45189
1.45185
1.45164
1.45118
1.45038
1.44919
1.44754
1.4454
1.44277
1.43971
1.43627
1.43259
1.42878
1.42497
1.4213
1.41785
1.41471
1.41192
1.40951
1.40745
1.40575
1.40436
1.40325
1.40237
1.4017
1.40119
1.40081
1.40053
1.40033
1.40019
1.4001
1.40004
1.4
1.39998
1.39997
1.39997
1.39997
1.39997
1.39998
1.40191
1.40271
1.40378
1.40517
1.40693
1.40911
1.41173
1.41477
1.41821
1.42196
1.42593
1.42999
1.43399
1.43778
1.44126
1.44431
1.44687
1.4489
1.45042
1.45144
1.45202
1.45222
1.45213
1.45181
1.45135
1.45082
1.45027
1.44976
1.44935
1.44905
1.44889
1.44889
1.44906
1.44937
1.44981
1.45035
1.45094
1.45152
1.452
1.45231
1.45234
1.45198
1.45114
1.44974
1.44772
1.4451
1.44191
1.43827
1.4343
1.43018
1.42606
1.42208
1.41838
1.41503
1.41208
1.40954
1.40741
1.40565
1.40424
1.40312
1.40225
1.40158
1.40109
1.40072
1.40046
1.40028
1.40015
1.40007
1.40002
1.39999
1.39997
1.39996
1.39996
1.39997
1.39997
1.40255
1.40359
1.40497
1.40675
1.40898
1.41169
1.41489
1.41853
1.42255
1.42681
1.43117
1.43545
1.43948
1.44311
1.4462
1.44869
1.45053
1.45174
1.45237
1.45247
1.45214
1.45147
1.45057
1.44952
1.4484
1.4473
1.44629
1.4454
1.4447
1.44421
1.44395
1.44394
1.44419
1.44469
1.44542
1.44635
1.44744
1.44863
1.44984
1.45099
1.45195
1.45261
1.45282
1.45244
1.45138
1.44957
1.447
1.44373
1.4399
1.43567
1.43125
1.42684
1.4226
1.41867
1.41514
1.41206
1.40943
1.40725
1.40547
1.40405
1.40294
1.40209
1.40145
1.40097
1.40063
1.40039
1.40022
1.40011
1.40004
1.4
1.39997
1.39996
1.39996
1.39996
1.39997
1.40336
1.4047
1.40646
1.4087
1.41147
1.41478
1.4186
1.42285
1.42739
1.43204
1.4366
1.44085
1.4446
1.44771
1.45008
1.45168
1.45252
1.45267
1.45222
1.45128
1.44996
1.44838
1.44666
1.44489
1.44315
1.44153
1.44009
1.43887
1.43791
1.43725
1.4369
1.43688
1.43719
1.43783
1.43879
1.44005
1.44157
1.44331
1.4452
1.44715
1.44905
1.45078
1.45216
1.45302
1.4532
1.45254
1.45097
1.44848
1.44515
1.44114
1.43667
1.43198
1.4273
1.42283
1.41871
1.41504
1.41187
1.40919
1.40699
1.40521
1.40381
1.40273
1.40191
1.4013
1.40086
1.40054
1.40032
1.40017
1.40007
1.40001
1.39998
1.39996
1.39996
1.39996
1.39996
1.40437
1.40608
1.40829
1.41107
1.41445
1.4184
1.42285
1.42764
1.43258
1.4374
1.44187
1.44575
1.44886
1.4511
1.45242
1.45286
1.4525
1.45145
1.44984
1.44783
1.44555
1.44312
1.44066
1.43826
1.43601
1.43396
1.43217
1.43069
1.42953
1.42873
1.4283
1.42826
1.42861
1.42935
1.43047
1.43197
1.43381
1.43598
1.43841
1.44104
1.44378
1.4465
1.44904
1.4512
1.45277
1.45353
1.45331
1.45199
1.44958
1.44619
1.442
1.43729
1.43235
1.42743
1.42276
1.4185
1.41473
1.41151
1.40882
1.40663
1.40489
1.40353
1.40249
1.40171
1.40114
1.40073
1.40045
1.40025
1.40012
1.40004
1.39999
1.39997
1.39995
1.39995
1.39996
1.40563
1.40778
1.41052
1.41391
1.41794
1.42255
1.42756
1.43276
1.43786
1.44256
1.44657
1.4497
1.4518
1.45285
1.45288
1.45199
1.45033
1.44807
1.44536
1.44237
1.43925
1.4361
1.43305
1.43017
1.42753
1.42517
1.42315
1.42148
1.42019
1.4193
1.41882
1.41876
1.41912
1.4199
1.42112
1.42275
1.4248
1.42725
1.43006
1.43319
1.43656
1.44009
1.44363
1.447
1.44996
1.45224
1.45359
1.45378
1.4527
1.45034
1.44685
1.44247
1.43753
1.43234
1.42722
1.4224
1.41804
1.41423
1.41101
1.40835
1.4062
1.40452
1.40322
1.40223
1.40151
1.40098
1.40061
1.40036
1.40019
1.40008
1.40001
1.39997
1.39996
1.39995
1.39995
1.40717
1.40983
1.41318
1.41723
1.42194
1.42714
1.43259
1.43796
1.44291
1.44709
1.45026
1.45226
1.45306
1.45269
1.4513
1.44906
1.44615
1.44278
1.43911
1.43532
1.43153
1.42786
1.42439
1.42119
1.41831
1.41578
1.41362
1.41186
1.41051
1.40958
1.40907
1.40898
1.40933
1.41013
1.41137
1.41305
1.41519
1.41778
1.4208
1.42422
1.42801
1.43211
1.43641
1.44075
1.44493
1.44866
1.45163
1.45351
1.45406
1.45314
1.45077
1.44715
1.44255
1.43737
1.43198
1.42669
1.42177
1.41736
1.41356
1.41037
1.40777
1.40571
1.4041
1.40288
1.40196
1.4013
1.40083
1.4005
1.40027
1.40013
1.40004
1.39999
1.39996
1.39995
1.39995
1.40903
1.41228
1.41629
1.42104
1.42638
1.43205
1.4377
1.44291
1.44731
1.45058
1.45254
1.45313
1.45243
1.45058
1.44779
1.44428
1.44028
1.43599
1.43158
1.4272
1.42296
1.41896
1.41525
1.41189
1.40891
1.40631
1.40413
1.40236
1.401
1.40006
1.39954
1.39944
1.39977
1.40053
1.40174
1.40341
1.40554
1.40815
1.41123
1.41477
1.41877
1.42318
1.42795
1.43298
1.4381
1.44304
1.4475
1.45107
1.45341
1.45422
1.45337
1.45091
1.44709
1.44225
1.43684
1.43126
1.42585
1.42088
1.41648
1.41273
1.40963
1.40713
1.40517
1.40366
1.40253
1.40169
1.40109
1.40067
1.40039
1.4002
1.40008
1.40001
1.39997
1.39995
1.39994
1.41124
1.41515
1.41986
1.42528
1.43114
1.43706
1.44257
1.44724
1.45068
1.45267
1.45314
1.45216
1.44992
1.44665
1.44261
1.43805
1.43318
1.42821
1.42329
1.41854
1.41405
1.4099
1.40611
1.40273
1.39976
1.39721
1.39508
1.39335
1.39203
1.39112
1.3906
1.39049
1.39078
1.39149
1.39263
1.39421
1.39627
1.3988
1.40182
1.40535
1.40938
1.4139
1.41889
1.4243
1.43002
1.43586
1.44152
1.44661
1.4507
1.45337
1.45431
1.45341
1.45076
1.44667
1.44157
1.43593
1.4302
1.42473
1.41976
1.41543
1.41178
1.4088
1.40644
1.4046
1.40321
1.40218
1.40143
1.4009
1.40053
1.40029
1.40013
1.40004
1.39998
1.39995
1.39994
1.41384
1.41845
1.42387
1.42985
1.43603
1.44187
1.44686
1.45056
1.45267
1.45312
1.45197
1.44943
1.44576
1.44125
1.43618
1.4308
1.42532
1.41991
1.41469
1.40977
1.40522
1.40106
1.39734
1.39405
1.3912
1.38877
1.38674
1.38512
1.38388
1.38301
1.3825
1.38237
1.38261
1.38323
1.38426
1.38572
1.38763
1.39002
1.39291
1.39631
1.40024
1.40472
1.40973
1.41527
1.42129
1.42766
1.43417
1.44047
1.44611
1.45058
1.45343
1.45434
1.45325
1.45031
1.44589
1.44051
1.43467
1.42883
1.42335
1.41845
1.41424
1.41074
1.40793
1.40572
1.40403
1.40276
1.40184
1.40118
1.40072
1.40041
1.4002
1.40008
1.4
1.39996
1.39994
1.41685
1.42217
1.42821
1.4346
1.44078
1.44616
1.45021
1.45257
1.45311
1.4519
1.44916
1.44517
1.44027
1.43477
1.42893
1.42299
1.41713
1.41149
1.40618
1.40126
1.39678
1.39275
1.3892
1.3861
1.38344
1.38119
1.37933
1.37785
1.37671
1.3759
1.37541
1.37525
1.37542
1.37593
1.37682
1.3781
1.37981
1.38199
1.38466
1.38786
1.39161
1.39593
1.40083
1.40632
1.41239
1.419
1.426
1.43313
1.43999
1.44604
1.45073
1.45358
1.4543
1.45287
1.44953
1.44475
1.43908
1.43307
1.42719
1.42176
1.41699
1.41295
1.40965
1.40702
1.40499
1.40346
1.40233
1.40152
1.40094
1.40055
1.40029
1.40013
1.40003
1.39997
1.39995
1.42024
1.42625
1.43278
1.43928
1.44509
1.44959
1.45232
1.4531
1.45196
1.44913
1.44494
1.43973
1.43386
1.42762
1.42126
1.41499
1.40895
1.40327
1.39801
1.39323
1.38895
1.38517
1.38187
1.37904
1.37664
1.37464
1.373
1.37168
1.37066
1.36993
1.36947
1.36927
1.36935
1.36972
1.37042
1.37147
1.37293
1.37482
1.37722
1.38014
1.38363
1.38771
1.39239
1.39771
1.40368
1.41029
1.41748
1.42509
1.43279
1.4401
1.44642
1.45115
1.4538
1.45414
1.45222
1.44841
1.44323
1.43729
1.43117
1.42531
1.42
1.41542
1.4116
1.40853
1.40612
1.40429
1.40292
1.40193
1.40122
1.40074
1.40041
1.4002
1.40007
1.39999
1.39996
1.424
1.43058
1.43735
1.44362
1.44865
1.45189
1.45305
1.45213
1.44935
1.44506
1.43965
1.43348
1.42689
1.42016
1.4135
1.40709
1.40105
1.39547
1.3904
1.38588
1.38191
1.37846
1.37551
1.37303
1.37095
1.36925
1.36786
1.36676
1.36589
1.36524
1.3648
1.36456
1.36453
1.36474
1.36521
1.36598
1.36711
1.36866
1.37069
1.37325
1.37639
1.38014
1.38454
1.3896
1.39535
1.40182
1.40898
1.41677
1.42495
1.43315
1.44079
1.4472
1.45176
1.454
1.45378
1.45126
1.44691
1.44133
1.43518
1.42902
1.42325
1.41813
1.41379
1.41024
1.40742
1.40524
1.40361
1.40241
1.40155
1.40096
1.40055
1.40029
1.40012
1.40002
1.39997
1.42804
1.435
1.4417
1.44734
1.4512
1.45291
1.45237
1.4498
1.44554
1.44002
1.43364
1.42676
1.41968
1.41266
1.40588
1.39949
1.39359
1.38825
1.3835
1.37934
1.37577
1.37276
1.37024
1.36818
1.3665
1.36515
1.36407
1.3632
1.36252
1.36198
1.36157
1.36128
1.36113
1.36114
1.36134
1.36178
1.36253
1.36365
1.36522
1.36731
1.37
1.37334
1.37736
1.38208
1.38754
1.39375
1.40074
1.40849
1.41687
1.42561
1.4342
1.44201
1.4483
1.45245
1.45408
1.45313
1.44992
1.44501
1.43908
1.43279
1.42666
1.42106
1.4162
1.41215
1.40889
1.40634
1.40441
1.40298
1.40195
1.40122
1.40073
1.4004
1.40019
1.40006
1.39999
1.43224
1.43931
1.44557
1.45018
1.45258
1.45261
1.45041
1.44633
1.44082
1.43431
1.4272
1.41983
1.41246
1.40532
1.39858
1.39235
1.38672
1.38174
1.37741
1.37373
1.37067
1.36818
1.36618
1.36461
1.3634
1.36246
1.36174
1.36116
1.36068
1.36027
1.3599
1.35957
1.35929
1.35908
1.35898
1.35905
1.35935
1.35997
1.36099
1.36251
1.36463
1.36743
1.37095
1.37523
1.3803
1.38618
1.39289
1.40046
1.40882
1.41781
1.42702
1.43589
1.44366
1.4496
1.45311
1.45391
1.45211
1.44817
1.44272
1.43651
1.43015
1.42415
1.4188
1.41425
1.41053
1.40759
1.40533
1.40364
1.40241
1.40154
1.40094
1.40053
1.40027
1.40011
1.40001
1.43644
1.44328
1.44871
1.45197
1.45275
1.45111
1.44738
1.44201
1.43548
1.42821
1.42058
1.4129
1.40541
1.3983
1.39173
1.3858
1.38056
1.37605
1.37226
1.36917
1.36672
1.36484
1.36345
1.36245
1.36177
1.3613
1.36098
1.36072
1.36048
1.36021
1.3599
1.35953
1.35911
1.35868
1.35826
1.35792
1.35773
1.35779
1.35818
1.35903
1.36046
1.36257
1.36546
1.36917
1.37374
1.37919
1.38554
1.39281
1.401
1.41001
1.41955
1.42915
1.43811
1.44561
1.45093
1.45356
1.45337
1.45065
1.44597
1.44006
1.43365
1.42735
1.42156
1.41653
1.41234
1.40898
1.40637
1.4044
1.40295
1.40191
1.40118
1.40069
1.40037
1.40017
1.40005
1.44045
1.4467
1.45094
1.45266
1.45178
1.44858
1.44351
1.43708
1.42975
1.42192
1.41395
1.40612
1.39865
1.39171
1.38545
1.37993
1.3752
1.37128
1.36815
1.36575
1.364
1.36283
1.36213
1.36178
1.36168
1.36173
1.36183
1.36191
1.36191
1.3618
1.36155
1.36115
1.3606
1.35995
1.35921
1.35846
1.35776
1.35722
1.35693
1.35703
1.35767
1.35897
1.36107
1.36405
1.36798
1.37288
1.37875
1.38563
1.39353
1.40239
1.41203
1.42208
1.43191
1.44072
1.44769
1.45211
1.45365
1.45236
1.44868
1.44332
1.43706
1.43059
1.42444
1.41896
1.41431
1.41051
1.40753
1.40525
1.40356
1.40233
1.40147
1.40088
1.40049
1.40024
1.40009
1.44406
1.44936
1.45219
1.45229
1.44983
1.44525
1.43906
1.43177
1.42382
1.41561
1.40745
1.39961
1.3923
1.38566
1.37982
1.37484
1.37074
1.36753
1.36516
1.36355
1.36262
1.36224
1.36228
1.36262
1.36313
1.36369
1.36422
1.36462
1.36485
1.36488
1.36468
1.36425
1.36359
1.36274
1.36171
1.36058
1.35939
1.35826
1.35728
1.3566
1.35637
1.35677
1.35795
1.36005
1.36317
1.36736
1.37264
1.37901
1.3865
1.39508
1.40464
1.41489
1.42531
1.43516
1.44355
1.44967
1.45296
1.45324
1.45078
1.4462
1.44028
1.43379
1.42738
1.42151
1.41641
1.41218
1.4088
1.4062
1.40424
1.40282
1.4018
1.4011
1.40063
1.40033
1.40014
1.44711
1.45118
1.45247
1.45098
1.44709
1.44132
1.43421
1.42624
1.41785
1.4094
1.40119
1.39348
1.38644
1.38023
1.37493
1.3706
1.36726
1.36487
1.36336
1.36265
1.3626
1.36306
1.36388
1.36491
1.366
1.36703
1.36792
1.36859
1.36899
1.36911
1.36894
1.36848
1.36773
1.36671
1.36546
1.364
1.36241
1.36075
1.35913
1.35769
1.3566
1.35604
1.35622
1.35731
1.35947
1.36279
1.36731
1.37305
1.38002
1.3882
1.39752
1.40777
1.41854
1.42914
1.43872
1.44637
1.45135
1.45327
1.45219
1.4486
1.44322
1.43689
1.43034
1.42413
1.41862
1.41396
1.41019
1.40724
1.40501
1.40336
1.40218
1.40136
1.4008
1.40044
1.40021
1.44945
1.45211
1.45184
1.44889
1.44375
1.43698
1.42912
1.42064
1.41194
1.40339
1.39527
1.3878
1.38116
1.37548
1.37085
1.36729
1.36481
1.36335
1.36281
1.36306
1.36393
1.36524
1.36681
1.36846
1.37003
1.37141
1.37254
1.37335
1.37383
1.37397
1.37379
1.37329
1.37248
1.37138
1.36998
1.36832
1.36642
1.36436
1.36222
1.36012
1.35823
1.35674
1.35589
1.35591
1.35699
1.3593
1.36291
1.36786
1.37417
1.38182
1.39077
1.40086
1.41175
1.42286
1.43338
1.44236
1.44892
1.45249
1.4529
1.45045
1.44581
1.4398
1.43325
1.4268
1.42092
1.41585
1.41168
1.40838
1.40585
1.40396
1.4026
1.40165
1.40099
1.40056
1.40028
1.45104
1.45222
1.45046
1.44619
1.43997
1.43237
1.42392
1.41506
1.4062
1.39767
1.38974
1.38264
1.37651
1.37149
1.36763
1.36496
1.36344
1.36299
1.36348
1.36473
1.36651
1.36861
1.3708
1.3729
1.37478
1.37633
1.3775
1.37829
1.37872
1.3788
1.37857
1.37803
1.37722
1.37611
1.3747
1.37298
1.37096
1.36867
1.36618
1.36358
1.36103
1.35872
1.35689
1.35582
1.35577
1.35695
1.35952
1.36354
1.36904
1.37603
1.38448
1.39425
1.40509
1.41649
1.42771
1.43779
1.4458
1.45095
1.45289
1.45172
1.44798
1.44247
1.43605
1.42946
1.42328
1.41783
1.41327
1.4096
1.40676
1.40463
1.40307
1.40197
1.40121
1.4007
1.40037
1.45187
1.45159
1.44846
1.44303
1.4359
1.42762
1.41871
1.40961
1.4007
1.39231
1.38469
1.37805
1.37255
1.36828
1.36531
1.36362
1.36316
1.36379
1.36533
1.36753
1.37012
1.37284
1.37545
1.37777
1.37969
1.38115
1.38215
1.38273
1.38296
1.38288
1.38256
1.38202
1.38126
1.38028
1.37901
1.37743
1.37549
1.37319
1.37057
1.36769
1.36467
1.3617
1.35902
1.35694
1.35576
1.35578
1.3572
1.36016
1.36473
1.37093
1.37874
1.38806
1.39868
1.41018
1.42186
1.43284
1.4421
1.44874
1.45221
1.4524
1.4497
1.44484
1.43868
1.43207
1.42565
1.41986
1.41492
1.4109
1.40774
1.40535
1.40359
1.40233
1.40145
1.40086
1.40047
1.45201
1.45034
1.44598
1.43955
1.43164
1.42281
1.41357
1.40434
1.3955
1.38735
1.38015
1.37408
1.3693
1.3659
1.3639
1.36328
1.36393
1.36566
1.3682
1.37123
1.37444
1.37753
1.38026
1.38248
1.38412
1.3852
1.38578
1.38595
1.38582
1.3855
1.38506
1.38454
1.38395
1.38324
1.38232
1.38109
1.37949
1.37744
1.37494
1.37203
1.36879
1.36539
1.36205
1.35909
1.35687
1.35572
1.35594
1.35776
1.36129
1.36657
1.37362
1.38236
1.39262
1.40403
1.41599
1.42764
1.43796
1.44597
1.45091
1.4525
1.45095
1.44686
1.44111
1.43458
1.42801
1.42193
1.41664
1.41226
1.40879
1.40612
1.40415
1.40272
1.40172
1.40104
1.40059
1.45155
1.44859
1.44314
1.43584
1.42729
1.41804
1.40859
1.39934
1.39066
1.38285
1.37616
1.37076
1.36679
1.36434
1.3634
1.36391
1.36569
1.36846
1.37186
1.37552
1.37905
1.38216
1.38464
1.3864
1.38744
1.38783
1.38771
1.38724
1.3866
1.38593
1.38533
1.38489
1.38457
1.38431
1.38398
1.38341
1.38245
1.38096
1.37888
1.37622
1.37303
1.36945
1.36569
1.36205
1.35891
1.35667
1.35572
1.35634
1.35873
1.363
1.36918
1.37722
1.38697
1.39815
1.4102
1.42232
1.43352
1.44273
1.44907
1.45206
1.45171
1.44852
1.4433
1.43696
1.43032
1.424
1.41839
1.41368
1.40989
1.40695
1.40474
1.40314
1.40201
1.40123
1.40072
1.45058
1.44645
1.44004
1.432
1.42294
1.41338
1.40381
1.39464
1.38622
1.37884
1.37273
1.36809
1.36502
1.3636
1.36378
1.36543
1.36829
1.37196
1.37601
1.37997
1.38346
1.38621
1.38805
1.38896
1.38902
1.38838
1.38726
1.3859
1.38454
1.38339
1.38259
1.38224
1.38233
1.38274
1.3833
1.38373
1.38379
1.38324
1.38195
1.37987
1.37704
1.37357
1.36965
1.36556
1.3617
1.3585
1.35643
1.35585
1.35707
1.36024
1.36544
1.37267
1.38181
1.39261
1.40459
1.41701
1.42889
1.43914
1.44676
1.45111
1.452
1.44979
1.44521
1.43917
1.43255
1.42606
1.42017
1.41513
1.41103
1.40781
1.40538
1.4036
1.40233
1.40145
1.40086
1.44919
1.44402
1.43677
1.42812
1.41864
1.40887
1.39928
1.39027
1.38219
1.37531
1.36988
1.36607
1.36398
1.36364
1.36497
1.36772
1.37153
1.37589
1.38026
1.38416
1.38721
1.38917
1.38995
1.3896
1.38828
1.38622
1.38374
1.38116
1.37882
1.37701
1.37593
1.3757
1.37631
1.37765
1.37943
1.3813
1.38285
1.38372
1.38367
1.38258
1.38047
1.37743
1.37364
1.36938
1.36502
1.36104
1.35795
1.35623
1.35625
1.35827
1.36243
1.36875
1.37717
1.38747
1.39924
1.41178
1.42417
1.43529
1.44408
1.44972
1.45186
1.45069
1.44683
1.44119
1.43467
1.42807
1.42194
1.41661
1.4122
1.40871
1.40605
1.40408
1.40266
1.40168
1.40101
1.44748
1.44138
1.43342
1.42425
1.41446
1.40457
1.39504
1.38627
1.37859
1.3723
1.36761
1.36469
1.36363
1.36441
1.36685
1.37061
1.37516
1.37991
1.38425
1.38769
1.38986
1.3906
1.38987
1.3878
1.38461
1.38066
1.37637
1.37219
1.36857
1.36589
1.36442
1.36432
1.3656
1.3681
1.37149
1.37527
1.37889
1.38179
1.38354
1.38394
1.38296
1.3807
1.37736
1.37321
1.36863
1.36409
1.36014
1.35736
1.35622
1.35707
1.36013
1.36547
1.37309
1.38279
1.39421
1.40673
1.41946
1.4313
1.44111
1.44795
1.45132
1.45121
1.44816
1.44299
1.43666
1.43001
1.42369
1.41809
1.4134
1.40964
1.40674
1.40458
1.40302
1.40192
1.40118
1.44552
1.4386
1.43003
1.42045
1.41043
1.4005
1.3911
1.38264
1.37544
1.36978
1.36589
1.36392
1.36393
1.36581
1.36929
1.37387
1.37891
1.38371
1.38763
1.39018
1.39104
1.39009
1.38735
1.38301
1.37741
1.37102
1.36442
1.35821
1.35298
1.3492
1.34724
1.34729
1.34937
1.35328
1.35863
1.36483
1.37113
1.37674
1.381
1.38352
1.38418
1.38312
1.38056
1.37683
1.37229
1.36743
1.36284
1.35914
1.3569
1.35659
1.35852
1.36283
1.36956
1.37857
1.38955
1.40192
1.41484
1.42724
1.43793
1.44589
1.45042
1.45139
1.44918
1.44457
1.4385
1.43187
1.4254
1.41957
1.41461
1.41059
1.40746
1.40511
1.40339
1.40218
1.40135
1.4434
1.43577
1.42667
1.41676
1.4066
1.39669
1.38749
1.37939
1.37271
1.36775
1.36471
1.36372
1.36478
1.36772
1.3721
1.37729
1.3825
1.38699
1.39008
1.39132
1.39042
1.38727
1.38195
1.37473
1.36609
1.35667
1.34724
1.33857
1.3314
1.32634
1.3238
1.32403
1.32702
1.33258
1.34025
1.34932
1.35888
1.3679
1.37544
1.38082
1.38378
1.38441
1.38303
1.38001
1.3758
1.37088
1.36586
1.3614
1.35819
1.35677
1.35757
1.36082
1.3666
1.37485
1.38528
1.39739
1.41038
1.42319
1.43463
1.44358
1.44922
1.45125
1.44992
1.44592
1.44017
1.43362
1.42706
1.42102
1.41581
1.41154
1.40819
1.40565
1.40378
1.40245
1.40154
1.44117
1.43292
1.42339
1.41323
1.40299
1.39316
1.3842
1.37651
1.37042
1.36618
1.36401
1.36402
1.36612
1.37
1.3751
1.38062
1.38569
1.3895
1.39138
1.39087
1.3877
1.38179
1.37327
1.36253
1.35021
1.33717
1.32439
1.31286
1.30348
1.29696
1.29379
1.29423
1.2983
1.30574
1.31602
1.32835
1.34167
1.35474
1.36631
1.37537
1.38138
1.38433
1.38456
1.38259
1.37897
1.37424
1.36902
1.36401
1.35995
1.35751
1.35721
1.35938
1.36419
1.37162
1.38143
1.39318
1.40612
1.41922
1.43128
1.44111
1.44778
1.45084
1.45039
1.44704
1.44167
1.43526
1.42864
1.42243
1.417
1.4125
1.40892
1.40619
1.40418
1.40273
1.40173
1.43889
1.43011
1.42022
1.40987
1.39961
1.38992
1.38124
1.37401
1.36852
1.36504
1.36376
1.36474
1.36781
1.37251
1.37811
1.38369
1.38828
1.39105
1.39132
1.38862
1.38266
1.3734
1.36105
1.34613
1.32951
1.31228
1.29568
1.28092
1.26905
1.26091
1.25707
1.25781
1.26312
1.27272
1.28596
1.30192
1.31941
1.33703
1.35327
1.36676
1.37661
1.38257
1.38496
1.38444
1.38168
1.37737
1.37217
1.36681
1.36207
1.35872
1.35738
1.35849
1.36231
1.36887
1.37801
1.38932
1.40211
1.41538
1.42793
1.43853
1.44615
1.45019
1.45062
1.44794
1.44299
1.43676
1.43014
1.4238
1.41817
1.41344
1.40966
1.40675
1.40458
1.40302
1.40193
1.4366
1.42737
1.41719
1.40671
1.39648
1.38696
1.37861
1.37185
1.367
1.36429
1.36389
1.3658
1.36974
1.37509
1.38096
1.38631
1.39012
1.3915
1.38976
1.38441
1.37516
1.36198
1.34518
1.32547
1.30394
1.28199
1.26111
1.24275
1.22812
1.21819
1.21361
1.21471
1.22148
1.23356
1.25017
1.27021
1.2923
1.31489
1.33627
1.35479
1.36918
1.37888
1.38405
1.38541
1.38383
1.38017
1.37519
1.36966
1.36442
1.36029
1.35799
1.35809
1.36091
1.36659
1.37502
1.38583
1.39837
1.41171
1.42465
1.43591
1.44438
1.44934
1.45063
1.44863
1.44414
1.43813
1.43154
1.4251
1.41929
1.41437
1.41038
1.4073
1.40499
1.40331
1.40213
1.43435
1.42475
1.41433
1.40376
1.3936
1.38429
1.37628
1.37002
1.36582
1.36388
1.36433
1.36711
1.3718
1.37761
1.38351
1.38837
1.3911
1.39077
1.38665
1.37822
1.36519
1.34756
1.32574
1.30065
1.27367
1.24648
1.22087
1.19849
1.18076
1.1688
1.16336
1.16486
1.17331
1.18825
1.20875
1.23343
1.26066
1.28865
1.31557
1.33956
1.35905
1.3731
1.38165
1.38538
1.38533
1.38256
1.37798
1.37247
1.36688
1.36211
1.35896
1.3581
1.35996
1.36475
1.37243
1.38269
1.39493
1.40825
1.42147
1.43329
1.44253
1.44834
1.45045
1.44913
1.44512
1.43937
1.43284
1.42633
1.42037
1.41526
1.4111
1.40784
1.40539
1.4036
1.40233
1.43216
1.42226
1.41165
1.40102
1.39097
1.38191
1.37425
1.36849
1.36494
1.36376
1.36501
1.36857
1.37387
1.37996
1.38567
1.38979
1.39118
1.38883
1.38198
1.37009
1.35286
1.3303
1.30296
1.27199
1.23905
1.20613
1.17528
1.1484
1.12715
1.11286
1.10644
1.10837
1.11868
1.13686
1.16178
1.19175
1.22474
1.25869
1.29156
1.32138
1.34637
1.36527
1.37772
1.38428
1.3861
1.38446
1.38048
1.37514
1.36936
1.36409
1.3602
1.35846
1.35939
1.36331
1.37023
1.37991
1.3918
1.40502
1.41843
1.43072
1.44063
1.44723
1.45012
1.44947
1.44593
1.44046
1.43404
1.42749
1.4214
1.41612
1.41178
1.40837
1.40578
1.40389
1.40254
1.43006
1.41993
1.40919
1.39851
1.38858
1.37979
1.3725
1.36723
1.36432
1.36387
1.36586
1.37009
1.37587
1.38205
1.38736
1.39053
1.39035
1.38573
1.37587
1.36021
1.33842
1.31056
1.27729
1.24
1.20064
1.16147
1.12482
1.09293
1.0678
1.051
1.04356
1.04599
1.05832
1.08001
1.10976
1.14556
1.18495
1.22542
1.26468
1.30065
1.33143
1.35553
1.37229
1.38209
1.38612
1.38584
1.38262
1.37759
1.37177
1.36613
1.36163
1.35909
1.35916
1.36223
1.3684
1.37748
1.38898
1.40205
1.41558
1.42824
1.43873
1.44605
1.44967
1.44965
1.4466
1.44143
1.43512
1.42855
1.42236
1.41694
1.41244
1.40888
1.40617
1.40417
1.40274
1.42807
1.41775
1.40693
1.39624
1.38643
1.37793
1.37102
1.3662
1.36391
1.36416
1.3668
1.3716
1.37771
1.38384
1.38856
1.3906
1.38866
1.38158
1.36851
1.34884
1.32224
1.2888
1.24931
1.20537
1.15918
1.11327
1.07034
1.03309
1.00397
0.984745
0.976461
0.979565
0.994051
1.01934
1.05406
1.09594
1.1421
1.18951
1.23551
1.27786
1.31461
1.34413
1.3655
1.37888
1.3854
1.3867
1.38439
1.3798
1.37405
1.36817
1.36316
1.35993
1.35921
1.36147
1.3669
1.37538
1.38646
1.39934
1.41292
1.42588
1.43688
1.44483
1.44912
1.44971
1.44713
1.44226
1.43609
1.42953
1.42326
1.41771
1.41307
1.40937
1.40653
1.40444
1.40293
1.42622
1.41574
1.4049
1.39421
1.38449
1.3763
1.36978
1.36539
1.36366
1.36457
1.36779
1.37302
1.37935
1.38528
1.38928
1.39004
1.38622
1.37657
1.36014
1.33632
1.30478
1.26563
1.21977
1.16899
1.11568
1.06268
1.01321
0.970625
0.937791
0.916576
0.907851
0.911884
0.928585
0.957365
0.996843
1.04464
1.09752
1.15198
1.20487
1.25369
1.29644
1.33143
1.35757
1.37474
1.38399
1.38706
1.38578
1.38172
1.37613
1.37012
1.36472
1.3609
1.35947
1.36098
1.36571
1.3736
1.38424
1.39689
1.41047
1.42366
1.43509
1.44361
1.44851
1.44967
1.44754
1.44296
1.43694
1.43041
1.42408
1.41841
1.41365
1.40983
1.40688
1.40469
1.40312
1.42454
1.41389
1.40308
1.39243
1.38278
1.37487
1.36876
1.36476
1.36353
1.36504
1.36877
1.3743
1.38073
1.38638
1.38954
1.38892
1.38319
1.37093
1.35109
1.32307
1.28656
1.24174
1.18958
1.13194
1.07142
1.01128
0.955438
0.907972
0.872089
0.849533
0.840842
0.846031
0.864912
0.89689
0.940631
0.993771
1.05292
1.11414
1.17377
1.22894
1.27756
1.31791
1.34878
1.36984
1.38197
1.38695
1.3868
1.38335
1.37801
1.37195
1.36626
1.36195
1.35988
1.36071
1.36478
1.3721
1.38231
1.39472
1.40826
1.42162
1.43341
1.44242
1.44787
1.44955
1.44784
1.44356
1.43769
1.43119
1.42482
1.41906
1.41418
1.41025
1.40721
1.40493
1.40329
1.42305
1.41222
1.40146
1.3909
1.3813
1.37361
1.36793
1.3643
1.36347
1.36552
1.3697
1.37542
1.38183
1.38714
1.38942
1.38737
1.37971
1.36491
1.34172
1.30954
1.26819
1.21792
1.15971
1.09548
1.028
0.961073
0.899462
0.847922
0.809825
0.786581
0.778296
0.784738
0.805631
0.840382
0.88772
0.945391
1.01001
1.07736
1.1433
1.2045
1.25868
1.30411
1.33953
1.36442
1.37947
1.38642
1.38748
1.38469
1.37964
1.37361
1.36772
1.363
1.3604
1.36062
1.36408
1.37086
1.38066
1.39281
1.40628
1.41976
1.43185
1.44129
1.44722
1.44937
1.44805
1.44405
1.43833
1.43188
1.42547
1.41964
1.41467
1.41063
1.4075
1.40516
1.40345
1.42178
1.41075
1.4
1.38961
1.38005
1.37249
1.36724
1.364
1.36345
1.36596
1.37056
1.37636
1.38265
1.3876
1.38899
1.3855
1.376
1.35879
1.33241
1.29623
1.25028
1.19494
1.1312
1.06095
0.987149
0.914227
0.847777
0.793131
0.75361
0.730145
0.722403
0.729971
0.752555
0.789578
0.839819
0.901152
0.970299
1.04295
1.11452
1.18123
1.2405
1.29059
1.33021
1.35873
1.37663
1.38557
1.38786
1.38575
1.38102
1.37507
1.36905
1.36403
1.36097
1.36066
1.36358
1.36986
1.37926
1.39116
1.40453
1.4181
1.43043
1.44023
1.44658
1.44915
1.44819
1.44444
1.43887
1.43247
1.42604
1.42015
1.41509
1.41098
1.40777
1.40536
1.4036
1.42072
1.40951
1.39871
1.38853
1.37906
1.37153
1.36663
1.36383
1.36347
1.3663
1.3713
1.37714
1.38319
1.38778
1.38836
1.38348
1.37221
1.35284
1.32356
1.28366
1.23342
1.17352
1.10499
1.02961
0.950512
0.872706
0.802538
0.745727
0.705368
0.681859
0.674507
0.682837
0.70665
0.745426
0.797955
0.862176
0.934949
1.01197
1.08839
1.15993
1.2237
1.27789
1.32126
1.35308
1.37365
1.3845
1.38799
1.38655