/*--------------------------------*- C++ -*----------------------------------*\
  =========                 |
  \\      /  F ield         | OpenFOAM: The Open Source CFD Toolbox
   \\    /   O peration     | Website:  https://openfoam.org
    \\  /    A nd           | Version:  6
     \\/     M anipulation  |
\*---------------------------------------------------------------------------*/
FoamFile
{
    version     2.0;
    format      ascii;
    class       volScalarField;
    location    "2.17";
    object      p;
}
// * * * * * * * * * * * * * * * * * * * * * * * * * * * * * * * * * * * * * //

dimensions      [0 2 -2 0 0 0 0];

internalField   nonuniform List<scalar> 
4214
(
-0.239068
-0.21384
-0.163178
-0.120966
-0.100025
-0.0888286
-0.0799715
-0.0715458
-0.0623297
-0.0527642
-0.0422181
-0.030106
-0.016343
-0.0018514
0.00855361
0.0165166
0.0227061
0.0321054
0.0519762
0.0998605
0.131118
0.127506
0.0974868
0.0683058
0.0487324
0.0338883
0.021558
0.0104385
0.00111593
-0.00729265
-0.014917
-0.021068
-0.0271718
-0.0344453
-0.0417049
-0.0502875
-0.0611083
-0.083013
-0.132474
-0.193895
-0.227928
-0.225777
-0.229547
-0.224526
-0.191371
-0.16586
-0.150522
-0.136462
-0.120533
-0.102521
-0.0824698
-0.0601054
-0.0354753
-0.00865011
0.0188474
0.0456399
0.0766866
0.110011
0.142856
0.174299
0.206728
0.203642
0.197338
0.169445
0.12873
0.0947893
0.0645893
0.0385719
0.0148403
-0.00617313
-0.0242277
-0.0403272
-0.0547006
-0.0683552
-0.0821751
-0.0954669
-0.108072
-0.124288
-0.15555
-0.200085
-0.210841
-0.202661
-0.372819
-0.35736
-0.351877
-0.321537
-0.288154
-0.262492
-0.238086
-0.211243
-0.18144
-0.148232
-0.111086
-0.069803
-0.0247849
0.0214379
0.0725279
0.121562
0.176475
0.231268
0.287054
0.342275
0.353695
0.350495
0.29599
0.222088
0.164273
0.112325
0.0659257
0.0240321
-0.0130065
-0.0438466
-0.0711345
-0.095498
-0.118285
-0.14076
-0.163021
-0.185483
-0.213245
-0.255772
-0.301165
-0.315563
-0.339649
-0.485268
-0.461791
-0.4543
-0.425493
-0.390123
-0.359827
-0.329729
-0.295741
-0.257146
-0.213351
-0.163569
-0.10738
-0.0454594
0.0215099
0.0916791
0.163483
0.241623
0.318629
0.403612
0.465627
0.479466
0.47841
0.406616
0.307898
0.227465
0.154368
0.0879818
0.0286033
-0.022269
-0.0661223
-0.103802
-0.137184
-0.167974
-0.197584
-0.226477
-0.255985
-0.291752
-0.339885
-0.387712
-0.408873
-0.451537
-0.593703
-0.571961
-0.56541
-0.536248
-0.498841
-0.464964
-0.430159
-0.389981
-0.34352
-0.289966
-0.228086
-0.157116
-0.0776729
0.00974654
0.0994843
0.197052
0.299904
0.397751
0.518113
0.590924
0.61321
0.615938
0.520453
0.399808
0.291247
0.19547
0.10816
0.0304844
-0.0353226
-0.0913126
-0.139419
-0.181747
-0.22034
-0.256743
-0.291922
-0.328142
-0.370878
-0.42359
-0.473932
-0.502445
-0.552901
-0.698008
-0.678179
-0.673897
-0.64554
-0.607669
-0.572264
-0.534832
-0.490478
-0.437992
-0.376315
-0.30371
-0.218934
-0.121951
-0.0130173
0.101678
0.222882
0.353667
0.48133
0.629883
0.715478
0.749131
0.772354
0.635791
0.491115
0.353729
0.234056
0.125136
0.0291078
-0.0513722
-0.119564
-0.177908
-0.228879
-0.274817
-0.317431
-0.358245
-0.400264
-0.448588
-0.504922
-0.556943
-0.589873
-0.645396
-0.803829
-0.78652
-0.785128
-0.758743
-0.721528
-0.685833
-0.647192
-0.600201
-0.543226
-0.474876
-0.392874
-0.295307
-0.181536
-0.0521997
0.0889879
0.239131
0.4011
0.578583
0.736981
0.839382
0.885089
0.918941
0.752048
0.579741
0.414927
0.270147
0.139233
0.0248985
-0.0705765
-0.151177
-0.219683
-0.279076
-0.332018
-0.380527
-0.426673
-0.4739
-0.526972
-0.586304
-0.639322
-0.675061
-0.733529
-0.913588
-0.896611
-0.900436
-0.87688
-0.841194
-0.806181
-0.767655
-0.719654
-0.659907
-0.586574
-0.496792
-0.387727
-0.258037
-0.107404
0.0617964
0.245772
0.442499
0.670264
0.8447
0.966965
1.02397
1.04348
0.866811
0.666723
0.474324
0.303362
0.151794
0.0176089
-0.093484
-0.186631
-0.265214
-0.332823
-0.392474
-0.446587
-0.497671
-0.549422
-0.606452
-0.668176
-0.721899
-0.760032
-0.821344
-1.029
-1.01257
-1.01933
-1.00038
-0.967675
-0.934281
-0.897057
-0.849629
-0.788953
-0.712577
-0.617027
-0.498182
-0.353867
-0.181273
0.0173919
0.237466
0.474564
0.743359
0.963798
1.10141
1.17315
1.18326
0.984283
0.753021
0.531509
0.334473
0.158876
0.00605426
-0.120897
-0.226648
-0.315308
-0.390996
-0.45715
-0.516651
-0.572297
-0.627937
-0.688166
-0.751881
-0.806636
-0.846946
-0.910695
-1.15109
-1.13492
-1.14294
-1.12878
-1.10009
-1.06982
-1.03536
-0.990089
-0.930628
-0.853719
-0.755309
-0.629288
-0.4729
-0.279096
-0.0527652
0.213873
0.497502
0.809556
1.09126
1.2438
1.33714
1.3376
1.10812
0.840645
0.586914
0.361592
0.159622
-0.0110932
-0.154038
-0.272561
-0.3713
-0.454833
-0.527198
-0.591793
-0.651621
-0.710577
-0.773286
-0.838954
-0.895905
-0.937725
-1.00261
-1.28061
-1.26156
-1.26989
-1.26365
-1.23817
-1.21192
-1.18259
-1.14099
-1.08488
-1.01036
-0.912851
-0.783711
-0.621141
-0.409232
-0.15971
0.155564
0.500508
0.86366
1.22518
1.39964
1.52333
1.49311
1.23528
0.927545
0.637625
0.382083
0.154444
-0.035652
-0.19493
-0.326169
-0.434697
-0.525747
-0.604068
-0.673512
-0.737207
-0.799042
-0.863735
-0.931296
-0.990957
-1.03448
-1.09932
-1.41255
-1.38951
-1.39836
-1.40096
-1.38146
-1.36097
-1.33891
-1.30337
-1.25193
-1.18202
-1.08869
-0.961157
-0.801528
-0.576039
-0.313571
0.0490445
0.446275
0.894953
1.36041
1.56331
1.72976
1.64521
1.35524
1.00537
0.676546
0.389267
0.138566
-0.0710776
-0.246352
-0.389559
-0.507302
-0.605462
-0.68945
-0.763491
-0.830805
-0.895283
-0.961781
-1.03109
-1.0933
-1.13901
-1.20383
-1.54399
-1.5204
-1.53071
-1.53944
-1.53252
-1.51826
-1.5033
-1.47615
-1.43314
-1.36923
-1.28272
-1.15903
-1.00671
-0.767147
-0.50044
-0.0663923
0.363036
0.893733
1.46415
1.70538
1.92729
1.78363
1.46602
1.0744
0.707562
0.386335
0.107422
-0.121268
-0.311104
-0.465333
-0.59193
-0.69694
-0.786345
-0.864647
-0.935326
-1.00232
-1.07055
-1.14143
-1.20599
-1.25454
-1.31956
-1.68152
-1.66202
-1.67251
-1.6852
-1.69031
-1.68496
-1.67675
-1.65919
-1.62749
-1.57578
-1.50245
-1.38265
-1.23789
-0.974649
-0.71493
-0.198282
0.23327
0.864809
1.54667
1.81587
2.09489
1.9112
1.58107
1.15401
0.714571
0.363223
0.0561621
-0.189782
-0.392898
-0.557361
-0.691887
-0.803024
-0.897457
-0.979752
-1.05356
-1.12296
-1.1928
-1.26506
-1.33211
-1.38509
-1.44972
-1.82423
-1.81762
-1.82891
-1.84377
-1.85539
-1.86179
-1.86206
-1.85404
-1.83228
-1.8016
-1.74963
-1.65164
-1.5582
-1.2661
-1.0712
-0.441407
-0.043473
0.856615
1.68236
1.97786
2.2939
2.04487
1.62245
1.16102
0.675527
0.30897
-0.0208303
-0.279948
-0.497352
-0.67083
-0.813474
-0.930339
-1.02931
-1.11499
-1.19197
-1.2637
-1.33516
-1.40835
-1.47817
-1.53644
-1.60203
-1.97201
-1.9824
-1.99956
-2.01885
-2.03744
-2.05173
-2.06226
-2.06421
-2.04088
-2.04035
-1.99108
-1.98343
-2.04735
-1.75492
-1.77515
-0.859911
-0.687153
0.864014
2.0068
2.26111
2.57712
2.12381
1.52799
1.06859
0.535029
0.195218
-0.155482
-0.409396
-0.638043
-0.809817
-0.962452
-1.07984
-1.18529
-1.27179
-1.35348
-1.42472
-1.49855
-1.57024
-1.64585
-1.70625
-1.77775
-2.12043
-2.15263
-2.18242
-2.20989
-2.2385
-2.25653
-2.2793
-2.29056
-2.25914
-2.28208
-2.22689
-2.31208
-2.52969
-2.32345
-2.4547
-1.31795
-1.40265
0.619271
2.15417
2.35001
2.63977
2.04529
1.31198
0.882571
0.306016
0.00303114
-0.344799
-0.597843
-0.824778
-0.998794
-1.15684
-1.2723
-1.38668
-1.46706
-1.56211
-1.62234
-1.71309
-1.76911
-1.8698
-1.906
-2.01037
-2.06628
-1.87851
-1.71807
-1.57476
-1.44788
-1.33316
-1.22841
-1.13142
-1.04038
-0.953475
-0.870247
-0.789227
-0.707727
-0.62748
-0.53311
-0.458216
-0.382652
-2.17829
-1.97718
-1.8194
-1.68031
-1.55859
-1.4478
-1.34622
-1.25164
-1.16212
-1.0771
-0.996073
-0.916449
-0.840466
-0.768953
-0.683891
-0.620741
-0.512457
-2.22789
-2.06584
-1.92363
-1.79246
-1.676
-1.56932
-1.47131
-1.37952
-1.2924
-1.2101
-1.13064
-1.05274
-0.981176
-0.910122
-0.830607
-0.782185
-0.6734
-2.33558
-2.16257
-2.02459
-1.9006
-1.79113
-1.6903
-1.5972
-1.50933
-1.42603
-1.34722
-1.26989
-1.19515
-1.1274
-1.05565
-0.980531
-0.938249
-0.833227
-2.36172
-2.23607
-2.11913
-2.00718
-1.90607
-1.81208
-1.72464
-1.64164
-1.5632
-1.48855
-1.41438
-1.34398
-1.27968
-1.20841
-1.13925
-1.09813
-0.996739
-2.45084
-2.31711
-2.20994
-2.10662
-2.01487
-1.9295
-1.84912
-1.77237
-1.70003
-1.6304
-1.56068
-1.49575
-1.4352
-1.36641
-1.3036
-1.26106
-1.16585
-2.44848
-2.36199
-2.27883
-2.19369
-2.11367
-2.03879
-1.96724
-1.8985
-1.83349
-1.76981
-1.70608
-1.64761
-1.59125
-1.5271
-1.47111
-1.42715
-1.33993
-2.49823
-2.41164
-2.33968
-2.26877
-2.20036
-2.13611
-2.07471
-2.01542
-1.95885
-1.90251
-1.84632
-1.79485
-1.74347
-1.68665
-1.63896
-1.59468
-1.51642
-2.49302
-2.43627
-2.38107
-2.32587
-2.27183
-2.21899
-2.16733
-2.11851
-2.07189
-2.02442
-1.97717
-1.93378
-1.88837
-1.83963
-1.80155
-1.75894
-1.69074
-2.4839
-2.43925
-2.39717
-2.35806
-2.31988
-2.28094
-2.242
-2.20395
-2.16699
-2.12942
-2.09241
-2.05787
-2.01961
-1.98063
-1.95258
-1.91417
-1.85839
-2.45714
-2.42204
-2.39067
-2.36101
-2.33333
-2.30764
-2.28281
-2.2581
-2.23239
-2.20627
-2.18081
-2.15706
-2.12834
-2.09995
-2.08148
-2.05153
-2.00949
-2.40066
-2.37976
-2.35913
-2.34141
-2.32205
-2.30399
-2.28855
-2.27391
-2.2594
-2.2451
-2.23163
-2.21754
-2.20055
-2.18385
-2.17365
-2.15395
-2.12839
-2.34733
-2.33552
-2.31837
-2.30283
-2.29064
-2.28294
-2.27609
-2.26736
-2.25768
-2.24822
-2.2394
-2.23136
-2.22518
-2.22123
-2.21765
-2.20996
-2.20089
-2.25284
-2.25206
-2.24761
-2.24281
-2.23695
-2.23048
-2.2244
-2.22078
-2.22015
-2.22054
-2.22064
-2.22058
-2.22101
-2.22141
-2.22107
-2.22065
-2.22118
-2.13231
-2.14121
-2.14402
-2.14547
-2.14615
-2.14645
-2.14677
-2.14734
-2.14806
-2.1489
-2.15038
-2.15595
-2.16155
-2.16627
-2.17051
-2.17597
-2.18614
-2.01167
-2.00429
-2.00461
-2.00709
-2.01058
-2.01484
-2.01931
-2.02417
-2.02912
-2.03468
-2.04105
-2.04575
-2.0521
-2.06167
-2.06888
-2.07944
-2.08996
-1.78507
-1.80855
-1.81952
-1.82315
-1.82763
-1.83559
-1.84216
-1.84883
-1.8565
-1.86479
-1.87294
-1.88059
-1.88983
-1.89868
-1.90534
-1.92404
-1.93239
-1.64959
-1.63909
-1.6372
-1.63841
-1.63941
-1.63965
-1.64018
-1.64027
-1.6416
-1.64614
-1.65079
-1.6565
-1.66661
-1.67501
-1.67902
-1.69658
-1.69406
-1.37293
-1.37974
-1.38215
-1.38238
-1.38187
-1.38107
-1.38118
-1.38269
-1.38365
-1.38369
-1.38352
-1.38396
-1.3873
-1.38772
-1.38643
-1.40208
-1.39295
-1.19751
-1.1652
-1.14411
-1.12732
-1.11387
-1.10253
-1.0928
-1.08431
-1.0769
-1.07025
-1.06557
-1.06216
-1.05909
-1.05504
-1.04963
-1.06228
-1.04435
-0.851283
-0.849547
-0.841757
-0.827301
-0.811335
-0.79501
-0.77886
-0.763311
-0.748661
-0.735571
-0.724402
-0.713689
-0.703075
-0.695685
-0.684119
-0.686807
-0.653648
-0.674531
-0.615436
-0.57629
-0.542013
-0.511929
-0.48453
-0.45906
-0.435129
-0.412559
-0.390984
-0.369313
-0.347907
-0.327454
-0.309234
-0.283291
-0.283814
-0.235952
-0.319477
-0.292017
-0.262469
-0.227481
-0.192169
-0.157321
-0.123329
-0.0902089
-0.0579782
-0.026549
0.0042436
0.0340722
0.0622258
0.0867923
0.122867
0.126083
0.189079
-0.116136
-0.0306169
0.0284301
0.0813393
0.129772
0.17633
0.221526
0.264585
0.305546
0.344404
0.381242
0.415846
0.449279
0.478176
0.517735
0.526114
0.601404
0.254165
0.299079
0.346948
0.405035
0.461715
0.516075
0.567638
0.616421
0.662302
0.70524
0.745573
0.783304
0.820418
0.853698
0.897957
0.910753
0.99257
0.47286
0.581514
0.656578
0.725373
0.788155
0.847531
0.903015
0.95457
1.00212
1.04583
1.08654
1.12493
1.16356
1.19952
1.24574
1.26502
1.35189
0.843192
0.901827
0.966832
1.03873
1.10469
1.16586
1.22171
1.27246
1.31823
1.35984
1.39907
1.43696
1.47561
1.512
1.55816
1.57949
1.66788
1.0649
1.18861
1.26826
1.34152
1.40608
1.46536
1.5185
1.56561
1.6074
1.64572
1.68264
1.71881
1.75604
1.79141
1.83621
1.85857
1.94588
1.42815
1.49059
1.55628
1.62672
1.68824
1.74317
1.79101
1.83237
1.86893
1.9032
1.93688
1.97033
2.00519
2.03884
2.0817
2.10524
2.18918
1.64031
1.75955
1.831
1.89518
1.94946
1.99725
2.0378
2.0722
2.10294
2.13248
2.1621
2.19216
2.22398
2.25552
2.29573
2.32004
2.39887
1.97785
2.03026
2.08539
2.14132
2.18749
2.22664
2.25863
2.28534
2.30981
2.33419
2.35937
2.38568
2.41417
2.4434
2.4802
2.5048
2.57731
2.17717
2.27155
2.32312
2.36698
2.40207
2.43102
2.45373
2.47248
2.49052
2.50961
2.53027
2.55276
2.57787
2.60454
2.63764
2.66234
2.72775
2.47316
2.50316
2.53761
2.56952
2.59305
2.61096
2.62413
2.63519
2.64705
2.66089
2.67702
2.69565
2.71738
2.74126
2.77077
2.7954
2.85249
2.65551
2.71199
2.73359
2.7497
2.76015
2.76688
2.77111
2.77536
2.78173
2.79062
2.80227
2.81696
2.83517
2.85595
2.88218
2.9061
2.95338
2.90103
2.89974
2.90254
2.90319
2.90183
2.89917
2.89647
2.89545
2.89683
2.90029
2.90768
2.91863
2.93343
2.95124
2.97437
2.99578
3.03335
3.05876
3.06098
3.04914
3.03625
3.02337
3.01145
3.00131
2.99416
2.99079
2.99116
2.99413
3.00174
3.01346
3.02876
3.04888
3.06663
3.09575
3.23612
3.20442
3.17601
3.15066
3.12731
3.10678
3.08954
3.07647
3.06819
3.06478
3.06547
3.06939
3.07812
3.09047
3.10655
3.12065
3.14411
3.36382
3.32712
3.28562
3.24945
3.2172
3.1895
3.1663
3.14828
3.13573
3.12851
3.12612
3.12737
3.13216
3.14068
3.15133
3.16127
3.18021
3.4871
3.43069
3.37767
3.33268
3.2932
3.25988
3.23208
3.21009
3.19392
3.18317
3.17725
3.17545
3.17676
3.18094
3.18722
3.19427
3.20742
3.58399
3.51928
3.45434
3.40062
3.3542
3.31525
3.28266
3.25612
3.23567
3.22092
3.21138
3.20646
3.2053
3.20653
3.21007
3.21729
3.22835
2.97538
3.20541
3.45606
3.6478
3.83503
3.98756
4.10522
4.21094
4.26935
4.3278
4.34938
4.37569
4.3742
4.37939
4.35967
4.35754
4.3322
4.31998
4.28616
4.26576
4.23046
4.20749
4.17224
4.15205
4.1258
4.10726
4.08814
4.07152
4.05591
4.03981
4.02532
4.00918
3.99171
3.97361
3.94859
3.92491
3.88718
3.85209
3.79614
3.74175
3.66452
2.96748
3.16853
3.36724
3.54719
3.71077
3.85165
3.96641
4.06334
4.13129
4.18414
4.21662
4.24103
4.25046
4.25412
4.25029
4.24615
4.23348
4.21756
4.19537
4.17319
4.14902
4.12462
4.09899
4.07549
4.05423
4.0344
4.0164
3.9999
3.9843
3.96881
3.95311
3.93663
3.91854
3.89807
3.87397
3.84581
3.81133
3.77104
3.72097
3.66396
3.59227
2.94298
3.11759
3.28724
3.44714
3.59505
3.724
3.83558
3.92635
3.9992
4.05403
4.09217
4.1191
4.13564
4.14377
4.14605
4.14405
4.13898
4.12746
4.11115
4.09293
4.07336
4.05263
4.03057
4.00902
3.98965
3.97138
3.95424
3.93813
3.92266
3.90751
3.89163
3.87424
3.85479
3.83261
3.80677
3.77652
3.7406
3.69844
3.64804
3.59064
3.52027
2.90515
3.0567
3.20544
3.35049
3.48506
3.60634
3.71263
3.80236
3.87614
3.93444
3.97887
4.00988
4.03121
4.04443
4.05154
4.05318
4.05081
4.04581
4.03536
4.02147
4.00557
3.98784
3.96887
3.94988
3.93228
3.91539
3.89914
3.88352
3.8682
3.85271
3.83649
3.81897
3.79908
3.77577
3.74854
3.71675
3.67956
3.63642
3.58568
3.52904
3.45977
2.87456
3.00615
3.13434
3.26409
3.38784
3.50176
3.60341
3.69166
3.76602
3.82681
3.87497
3.91164
3.93812
3.95511
3.9663
3.97174
3.97259
3.97033
3.96596
3.95752
3.94521
3.93015
3.91392
3.89751
3.88171
3.86617
3.85088
3.8358
3.8206
3.80482
3.78795
3.7694
3.74855
3.72485
3.69713
3.66432
3.62604
3.58218
3.53118
3.4755
3.4072
2.84983
2.96561
3.07834
3.19194
3.30372
3.4102
3.50725
3.59334
3.66768
3.7302
3.78132
3.82189
3.85301
3.87567
3.89084
3.89931
3.90355
3.90407
3.90231
3.89898
3.89157
3.87915
3.86517
3.85125
3.83724
3.82296
3.80853
3.79392
3.77879
3.7627
3.74515
3.72563
3.70358
3.67842
3.64948
3.61626
3.57777
3.53385
3.48302
3.4284
3.36195
2.83027
2.93335
3.03345
3.13483
3.23413
3.33124
3.42321
3.50661
3.58027
3.64376
3.69718
3.74099
3.77592
3.80284
3.82256
3.83581
3.84343
3.84642
3.84688
3.84561
3.84302
3.83447
3.82234
3.81056
3.79829
3.78518
3.77151
3.75726
3.7421
3.72563
3.70738
3.68691
3.66371
3.63728
3.60711
3.5727
3.53322
3.48893
3.43864
3.38623
3.32227
2.81532
2.90781
2.99711
3.08862
3.17862
3.26626
3.35092
3.43093
3.5032
3.56695
3.62196
3.66835
3.70653
3.73708
3.76071
3.77813
3.78996
3.79689
3.7997
3.79977
3.7987
3.79532
3.78523
3.77501
3.76423
3.75218
3.73908
3.72501
3.70969
3.69273
3.67374
3.6523
3.62793
3.60017
3.56868
3.53323
3.49341
3.44954
3.40054
3.35053
3.28969
2.80566
2.88801
2.96769
3.05038
3.1325
3.21317
3.291
3.3655
3.4358
3.49909
3.55501
3.60338
3.64431
3.67813
3.70532
3.72642
3.74204
3.75271
3.75899
3.76149
3.76116
3.76011
3.75321
3.74436
3.73477
3.72354
3.71074
3.69657
3.68084
3.66321
3.64331
3.62069
3.595
3.56603
3.53364
3.49769
3.45798
3.41495
3.36778
3.32057
3.26378
2.80139
2.87414
2.9449
3.01925
3.09391
3.16822
3.24078
3.31053
3.37679
3.43928
3.49576
3.54564
3.58888
3.62559
3.65604
3.68057
3.6996
3.71364
3.72314
3.72852
3.73036
3.72957
3.726
3.7184
3.70972
3.69906
3.6863
3.67174
3.65531
3.63667
3.61548
3.59156
3.56472
3.53477
3.50169
3.46554
3.42637
3.38467
3.34
3.29603
3.2443
2.80163
2.86531
2.92804
2.9947
3.06247
3.13068
3.1982
3.26402
3.32721
3.38715
3.44336
3.4946
3.53975
3.57896
3.61232
3.64001
3.66229
3.67949
3.69196
3.70012
3.70426
3.70445
3.70296
3.69643
3.68826
3.67785
3.66501
3.64994
3.63255
3.61263
3.59012
3.5649
3.53687
3.50604
3.47253
3.43653
3.39831
3.35837
3.31674
3.27644
3.23083
2.80518
2.86017
2.91564
2.97521
3.03666
3.09924
3.16195
3.22392
3.2843
3.3423
3.39728
3.44856
3.49563
3.53732
3.57346
3.60418
3.62964
3.64996
3.66534
3.67608
3.68244
3.68446
3.68341
3.67793
3.66977
3.659
3.64555
3.62952
3.61083
3.58957
3.56571
3.53921
3.51015
3.47868
3.44508
3.40974
3.3731
3.33563
3.29779
3.26169
3.22286
2.81049
2.85762
2.90647
2.95945
3.01499
3.07231
3.13057
3.18895
3.2466
3.30275
3.3567
3.4079
3.45575
3.49969
3.53909
3.57312
3.60171
3.62498
3.6431
3.65623
3.66459
3.66831
3.66786
3.66329
3.65515
3.64362
3.62874
3.61088
3.59047
3.56747
3.54203
3.5143
3.48441
3.45263
3.41932
3.38507
3.35063
3.3163
3.28278
3.25116
3.21912
2.81476
2.85569
2.89939
2.94711
2.99789
3.05087
3.10526
3.16027
3.2154
3.26989
3.32304
3.37424
3.42285
3.46831
3.50977
3.54672
3.57848
3.60447
3.625
3.64027
3.65036
3.65542
3.65579
3.65198
3.64405
3.63208
3.61624
3.59678
3.57444
3.54948
3.52217
3.49295
3.46212
3.43015
3.39742
3.36467
3.33223
3.3006
3.27078
3.24304
3.21763
2.81713
2.85204
2.89145
2.93481
2.98159
3.03089
3.08182
3.13417
3.18758
3.24093
3.29355
3.34487
3.39414
3.44072
3.48388
3.52295
3.55742
3.58682
3.61024
3.62782
3.63963
3.64597
3.64649
3.64207
3.63298
3.61945
3.60209
3.58133
3.55731
3.53088
3.50226
3.47195
3.44048
3.4084
3.37634
3.34538
3.3152
3.2865
3.26054
3.23702
3.21885
2.82148
2.84727
2.8798
2.91699
2.95844
3.00343
3.0517
3.10264
3.15446
3.20649
3.25858
3.31003
3.36024
3.40868
3.45462
3.49745
3.53619
3.56993
3.5978
3.61879
3.63277
3.64001
3.64039
3.63418
3.62236
3.60545
3.5846
3.56086
3.5342
3.5056
3.47566
3.44472
3.41341
3.38206
3.35112
3.32152
3.29489
3.27151
3.25198
3.23626
3.2252
2.83087
2.84785
2.87358
2.90591
2.94351
2.98535
3.03046
3.07791
3.12755
3.17915
3.23163
3.28421
3.3363
3.38698
3.43552
3.48094
3.52234
3.55887
3.58965
3.61367
3.63004
3.63784
3.63811
3.63147
3.6189
3.60095
3.57804
3.55116
3.52195
3.49077
3.45863
3.4263
3.39434
3.36355
3.3348
3.3084
3.28484
3.26467
3.2487
3.23799
3.23647
-0.403547
-0.46542
-0.549802
-0.642962
-0.733313
-0.82696
-0.922656
-1.0237
-1.13019
-1.24078
-1.35183
-1.46506
-1.58074
-1.70423
-1.83551
-1.96744
-2.08903
-0.520076
-0.608991
-0.678071
-0.762522
-0.840303
-0.924289
-1.01237
-1.10591
-1.205
-1.30761
-1.41218
-1.52033
-1.62941
-1.73986
-1.85071
-1.96103
-2.06062
-0.649968
-0.73942
-0.794198
-0.868712
-0.93926
-1.01638
-1.09913
-1.18609
-1.27794
-1.37264
-1.46905
-1.56844
-1.66542
-1.76115
-1.85559
-1.9526
-2.0443
-0.767941
-0.849736
-0.897724
-0.966497
-1.03392
-1.10515
-1.18275
-1.26387
-1.34867
-1.43555
-1.5237
-1.61305
-1.69771
-1.77963
-1.85911
-1.94286
-2.02202
-0.875167
-0.953235
-0.998354
-1.06148
-1.12622
-1.19243
-1.26498
-1.34056
-1.41775
-1.49592
-1.57499
-1.65279
-1.7252
-1.79451
-1.86175
-1.93317
-1.99493
-0.976458
-1.05139
-1.09572
-1.1536
-1.21545
-1.2774
-1.34481
-1.41418
-1.48253
-1.5511
-1.6213
-1.68736
-1.74877
-1.80647
-1.86164
-1.922
-1.96936
-1.07472
-1.1473
-1.19083
-1.24354
-1.30212
-1.35976
-1.42078
-1.48197
-1.54061
-1.60178
-1.66217
-1.71721
-1.76772
-1.81323
-1.85977
-1.90743
-1.94885
-1.17172
-1.24109
-1.28356
-1.33069
-1.38544
-1.43803
-1.49033
-1.54171
-1.59379
-1.64799
-1.69714
-1.74158
-1.78022
-1.81591
-1.85298
-1.89148
-1.92705
-1.2674
-1.33228
-1.37271
-1.41343
-1.46287
-1.50839
-1.55143
-1.59688
-1.64374
-1.68672
-1.72445
-1.7566
-1.78462
-1.8119
-1.84019
-1.87251
-1.89996
-1.36024
-1.41812
-1.45539
-1.48951
-1.53196
-1.57042
-1.60715
-1.64753
-1.68401
-1.71431
-1.73877
-1.76019
-1.78042
-1.80248
-1.82637
-1.85206
-1.8735
-1.44973
-1.49893
-1.53068
-1.55801
-1.59396
-1.62648
-1.65584
-1.68315
-1.70518
-1.72258
-1.73836
-1.75478
-1.77204
-1.79045
-1.80907
-1.82816
-1.84161
-1.53271
-1.57025
-1.59676
-1.61921
-1.64306
-1.66349
-1.68034
-1.69412
-1.70648
-1.71944
-1.7323
-1.74633
-1.75979
-1.77219
-1.78375
-1.79579
-1.80544
-1.59964
-1.62275
-1.63991
-1.652
-1.66238
-1.67236
-1.68272
-1.69327
-1.70267
-1.7117
-1.72134
-1.72948
-1.73685
-1.74365
-1.74967
-1.75544
-1.76021
-1.6405
-1.64844
-1.65576
-1.66057
-1.66661
-1.6734
-1.67886
-1.68232
-1.68785
-1.69361
-1.69773
-1.70077
-1.70343
-1.70577
-1.70795
-1.70975
-1.70902
-1.65803
-1.65865
-1.65989
-1.6593
-1.65854
-1.65807
-1.65872
-1.65951
-1.65892
-1.6582
-1.65708
-1.65587
-1.65487
-1.65401
-1.65355
-1.65339
-1.65719
-1.6478
-1.64149
-1.63386
-1.62941
-1.62308
-1.61878
-1.61507
-1.6101
-1.60437
-1.59913
-1.59412
-1.58965
-1.58655
-1.58357
-1.581
-1.5799
-1.58221
-1.59515
-1.58451
-1.56929
-1.56317
-1.55543
-1.54521
-1.53646
-1.52812
-1.5201
-1.51296
-1.50714
-1.50287
-1.50012
-1.49856
-1.49832
-1.49745
-1.49439
-1.48151
-1.47283
-1.45599
-1.44728
-1.43735
-1.42659
-1.41777
-1.4101
-1.40396
-1.40059
-1.39902
-1.39899
-1.40189
-1.40555
-1.40925
-1.41399
-1.42387
-1.29417
-1.29658
-1.28328
-1.27749
-1.2718
-1.26599
-1.26325
-1.2623
-1.26206
-1.2641
-1.26808
-1.27115
-1.27377
-1.2779
-1.28438
-1.29252
-1.30513
-1.05358
-1.06173
-1.05647
-1.05921
-1.06197
-1.06518
-1.07044
-1.07694
-1.08397
-1.09072
-1.09791
-1.10707
-1.11734
-1.12801
-1.13849
-1.14577
-1.14797
-0.74794
-0.775255
-0.78238
-0.799451
-0.814135
-0.828072
-0.841593
-0.856104
-0.872722
-0.89036
-0.908981
-0.928816
-0.950048
-0.972857
-0.997722
-1.02377
-1.05767
-0.399429
-0.450273
-0.467049
-0.500648
-0.52872
-0.560186
-0.590167
-0.619191
-0.647658
-0.676381
-0.705701
-0.735553
-0.766154
-0.797875
-0.83152
-0.868123
-0.915473
-0.0299095
-0.106265
-0.130741
-0.18082
-0.222693
-0.267624
-0.313314
-0.359654
-0.40467
-0.447846
-0.489955
-0.531544
-0.573176
-0.614785
-0.654913
-0.688878
-0.713547
0.334386
0.237503
0.202792
0.141417
0.0892002
0.0341502
-0.0221196
-0.0802053
-0.139604
-0.200128
-0.259065
-0.315881
-0.372054
-0.428925
-0.487031
-0.546079
-0.615338
0.677386
0.56917
0.524475
0.457234
0.396912
0.3336
0.26907
0.201994
0.13245
0.0603604
-0.0136279
-0.0871303
-0.157893
-0.226794
-0.295885
-0.371474
-0.469327
1.00292
0.887377
0.833308
0.760491
0.692428
0.621743
0.550102
0.476091
0.399472
0.319559
0.235965
0.148879
0.0624891
-0.0208882
-0.101299
-0.176541
-0.236944
1.29474
1.17909
1.11955
1.04225
0.970224
0.895079
0.818666
0.739454
0.657049
0.570848
0.480591
0.385777
0.286237
0.188099
0.089963
-0.00794844
-0.116593
1.55072
1.43658
1.37698
1.29931
1.22641
1.14996
1.0717
0.990067
0.904491
0.814212
0.718835
0.617666
0.509921
0.402101
0.295631
0.184143
0.0316709
1.77545
1.66563
1.6071
1.53147
1.46001
1.38474
1.30719
1.22576
1.13973
1.0482
0.950521
0.845347
0.731503
0.613385
0.496535
0.379567
0.27987
1.97094
1.86776
1.81131
1.73946
1.67109
1.59894
1.52419
1.44527
1.36124
1.27112
1.17404
1.06822
0.952474
0.826918
0.698444
0.558902
0.419071
2.13952
2.04452
1.9911
1.92427
1.86023
1.79268
1.72244
1.64794
1.56809
1.48183
1.3879
1.28396
1.16896
1.04307
0.912762
0.771283
0.578744
2.28372
2.19819
2.14836
2.0873
2.02839
1.96644
1.90193
1.83338
1.75957
1.67934
1.59108
1.49203
1.38061
1.25572
1.12083
0.983871
0.864485
2.40588
2.33094
2.28503
2.23007
2.17673
2.121
2.0631
2.00164
1.93535
1.86298
1.78274
1.69168
1.58775
1.46943
1.33101
1.17733
1.01897
2.50812
2.4443
2.40286
2.35419
2.30679
2.25768
2.20689
2.15331
2.09565
2.03263
1.96235
1.88158
1.78795
1.68179
1.55749
1.4043
1.18098
2.59246
2.53969
2.5037
2.4615
2.42008
2.37762
2.33412
2.28876
2.24036
2.1877
2.1289
2.06062
1.97982
1.88592
1.77488
1.64414
1.53524
2.66121
2.61919
2.58888
2.55306
2.51738
2.48131
2.44483
2.40752
2.36844
2.32654
2.28016
2.2262
2.16114
2.08387
1.98763
1.8514
1.71428
2.71658
2.68353
2.65891
2.63004
2.60031
2.57028
2.54028
2.51044
2.48032
2.44919
2.41566
2.37668
2.32878
2.27416
2.21053
2.08724
1.88482
2.75962
2.73466
2.71651
2.6956
2.6727
2.64911
2.62575
2.60331
2.58195
2.56135
2.54055
2.51665
2.48685
2.45387
2.41276
2.33327
2.29927
2.79241
2.77716
2.76473
2.75138
2.73639
2.72069
2.70533
2.69115
2.67872
2.66823
2.65942
2.65027
2.63942
2.62726
2.60248
2.55049
2.5444
2.81694
2.80719
2.79901
2.79187
2.78405
2.77574
2.7682
2.76216
2.75864
2.75788
2.76053
2.76575
2.77329
2.78278
2.78987
2.77262
2.69475
-2.26862
-2.36345
-2.4348
-2.51073
-2.50642
-2.48709
-2.48454
-1.6266
-0.383255
1.61401
1.83449
0.820856
-0.143614
-0.822869
-1.23192
-1.50383
-1.69714
-1.84526
-1.98354
-2.12734
-2.39054
-2.51662
-2.61941
-2.72883
-2.7391
-2.8064
-2.76981
-2.2083
-0.898242
1.11797
1.14717
0.333541
-0.483679
-1.11636
-1.50018
-1.75114
-1.92995
-2.06592
-2.18134
-2.30415
-2.5267
-2.68403
-2.82117
-2.96145
-2.99212
-3.17394
-3.07046
-2.80477
-1.45627
0.276882
0.107164
-0.45831
-1.03281
-1.52273
-1.84049
-2.05202
-2.20529
-2.32263
-2.41359
-2.50678
-2.68586
-2.87277
-3.04634
-3.21084
-3.27382
-3.56092
-3.38788
-3.4486
-2.116
-0.938411
-1.39506
-1.72874
-1.84064
-2.07966
-2.28157
-2.42497
-2.53339
-2.61869
-2.68078
-2.73791
-2.86778
-3.08491
-3.2969
-3.47908
-3.59699
-3.90244
-3.7323
-4.0702
-2.87342
-2.53013
-3.37388
-3.58935
-2.96458
-2.85669
-2.86642
-2.89767
-2.93342
-2.97193
-2.99207
-3.0125
-3.07772
-3.32595
-3.57722
-3.77484
-3.96031
-4.19296
-4.1364
-4.65602
-3.77521
-4.37418
-5.7971
-6.07259
-4.60564
-3.99088
-3.6448
-3.49924
-3.42505
-3.39998
-3.35942
-3.33522
-3.32088
-3.59986
-3.89166
-4.10765
-4.34694
-4.4785
-4.61652
-5.17322
-4.79138
-6.35661
-8.52077
-8.97699
-6.82964
-5.56004
-4.67845
-4.2676
-4.04364
-3.91763
-3.79746
-3.71216
-3.59974
-3.91385
-4.24601
-4.47355
-4.75514
-4.79966
-5.1516
-5.61701
-5.81011
-8.30616
-11.2037
-11.9496
-9.54855
-7.38721
-5.99484
-5.23376
-4.8178
-4.55116
-4.31895
-4.15001
-3.9224
-4.27774
-4.64669
-4.88037
-5.20236
-5.18099
-5.71076
-6.07002
-6.8034
-10.0147
-13.5721
-14.6251
-12.4644
-9.44696
-7.5985
-6.42719
-5.76299
-5.32077
-4.93555
-4.665
-4.29933
-4.70141
-5.10379
-5.36073
-5.68556
-5.66459
-6.3168
-6.66807
-7.81424
-11.3598
-15.4056
-16.7665
-15.1935
-11.832
-9.49213
-7.88917
-6.89059
-6.22981
-5.66473
-5.27757
-4.74327
-5.19806
-5.64299
-5.94243
-6.19624
-6.37173
-7.05093
-7.51385
-8.88635
-12.3378
-16.5367
-18.2785
-17.4108
-14.3866
-11.51
-9.5901
-8.2017
-7.2665
-6.52202
-5.99549
-5.27272
-5.79311
-6.30701
-6.67097
-6.8488
-7.35488
-8.00322
-8.62686
-10.0309
-13.1134
-17.1308
-19.1155
-18.9082
-16.6496
-13.6524
-11.3255
-9.6611
-8.45102
-7.5078
-6.82243
-5.90815
-6.51688
-7.11423
-7.52196
-7.88381
-8.60282
-9.26552
-9.97138
-11.1998
-13.7416
-17.2849
-19.3637
-19.554
-18.2175
-15.7795
-13.1224
-11.2242
-9.78844
-8.61979
-7.76218
-6.68595
-7.41262
-8.16421
-8.65018
-9.34735
-10.1634
-10.8264
-11.423
-12.2835
-14.1105
-16.8203
-18.8383
-19.3722
-18.6044
-17.1008
-14.9301
-12.8259
-11.1832
-9.8268
-8.79323
-7.7632
-8.61331
-9.62232
-10.4051
-11.2075
-11.9787
-12.4418
-12.7539
-13.1409
-14.1767
-15.8915
-17.7097
-18.5111
-18.0711
-17.0522
-15.705
-14.1404
-12.5619
-11.1283
-9.93046
-9.32964
-10.3952
-11.7523
-12.5858
-13.2551
-13.7627
-13.8371
-13.7494
-13.6302
-13.9516
-14.8966
-16.186
-17.0747
-16.8713
-16.2313
-15.273
-14.1961
-13.1802
-12.2568
-11.1637
-11.784
-12.7098
-14.0513
-14.6951
-15.0155
-14.9928
-14.7355
-14.2506
-13.7104
-13.4849
-13.813
-14.4953
-15.1735
-15.2045
-14.8491
-14.2097
-13.394
-12.6863
-12.2377
-11.7078
-14.8948
-15.0269
-15.6614
-15.9243
-15.799
-15.4603
-14.9115
-14.1608
-13.374
-12.8136
-12.6665
-12.8222
-13.172
-13.4161
-13.3222
-12.9625
-12.4511
-11.9036
-11.6638
-11.6141
-16.6549
-15.8239
-15.6639
-15.8414
-15.7544
-15.2089
-14.4396
-13.5631
-12.6755
-11.9523
-11.5628
-11.464
-11.592
-11.8707
-12.0557
-12.0251
-11.8516
-11.548
-11.2712
-11.067
-17.2173
-16.0224
-15.3701
-15.1239
-14.7572
-14.226
-13.5024
-12.6219
-11.7203
-10.934
-10.3833
-10.1403
-10.0803
-10.1924
-10.4674
-10.7609
-10.9761
-11.1067
-11.2081
-11.2935
-11.2993
-9.77455
-10.2947
-10.2245
-10.0417
-9.21867
-8.27354
-7.37491
-6.5471
-5.81199
-5.16646
-4.61088
-4.1369
-3.73538
-3.39425
-3.10003
-2.84888
-2.63501
-2.44576
-2.27953
-11.2545
-9.60768
-10.1499
-9.72842
-9.32324
-8.60839
-7.80445
-7.02226
-6.2865
-5.62514
-5.03987
-4.5318
-4.09633
-3.72623
-3.41354
-3.15006
-2.92671
-2.73552
-2.5645
-2.41335
-11.2312
-9.6444
-10.0017
-9.32037
-8.7132
-8.05095
-7.35156
-6.66448
-6.01304
-5.42352
-4.89822
-4.43808
-4.0406
-3.69975
-3.40916
-3.16778
-2.96896
-2.80127
-2.64565
-2.5034
-11.1455
-9.89138
-10.018
-8.98992
-8.23202
-7.54675
-6.9011
-6.28739
-5.70824
-5.18486
-4.7184
-4.3084
-3.95165
-3.64021
-3.37242
-3.14778
-2.9656
-2.812
-2.66598
-2.53503
-10.9612
-10.0547
-10.0056
-8.66374
-7.81191
-7.08531
-6.45333
-5.88887
-5.36645
-4.89916
-4.48611
-4.12449
-3.80922
-3.53164
-3.29021
-3.08526
-2.91699
-2.7695
-2.63397
-2.53264
-10.649
-10.0324
-9.88476
-8.325
-7.36467
-6.62505
-5.99751
-5.46647
-4.9864
-4.56324
-4.19305
-3.86946
-3.58809
-3.35786
-3.14947
-2.96098
-2.81111
-2.6824
-2.57152
-2.48568
-10.1902
-9.83805
-9.59342
-7.96772
-6.86008
-6.14037
-5.5212
-5.01501
-4.57136
-4.18285
-3.8455
-3.55282
-3.30047
-3.08978
-2.91841
-2.7789
-2.64285
-2.51126
-2.40183
-2.3172
-9.57685
-9.35968
-9.13362
-7.52591
-6.32063
-5.60735
-5.00393
-4.51668
-4.10198
-3.74477
-3.43679
-3.17055
-2.94068
-2.74346
-2.57499
-2.43454
-2.32713
-2.24393
-2.14722
-2.04659
-8.86677
-8.62778
-8.42693
-6.90966
-5.71429
-5.00332
-4.42177
-3.95578
-3.56718
-3.23712
-2.955
-2.71234
-2.50348
-2.32385
-2.16894
-2.03647
-1.9295
-1.84218
-1.74604
-1.658
-8.13017
-7.74093
-7.49881
-6.12578
-4.99774
-4.30829
-3.75401
-3.31427
-2.95342
-2.65081
-2.39503
-2.17654
-1.98897
-1.82749
-1.68839
-1.5697
-1.47049
-1.38318
-1.30319
-1.25556
-7.44365
-6.88102
-6.4403
-5.19405
-4.16667
-3.51306
-2.98933
-2.57914
-2.24864
-1.97582
-1.74928