/*--------------------------------*- C++ -*----------------------------------*\
  =========                 |
  \\      /  F ield         | OpenFOAM: The Open Source CFD Toolbox
   \\    /   O peration     | Website:  https://openfoam.org
    \\  /    A nd           | Version:  6
     \\/     M anipulation  |
\*---------------------------------------------------------------------------*/
FoamFile
{
    version     2.0;
    format      ascii;
    class       volScalarField;
    location    "1.55";
    object      rho;
}
// * * * * * * * * * * * * * * * * * * * * * * * * * * * * * * * * * * * * * //

dimensions      [1 -3 0 0 0 0 0];

internalField   nonuniform List<scalar> 
5625
(
1.29615
1.22992
1.1574
1.08257
1.00955
0.942151
0.883637
0.836628
0.803052
0.784058
0.779946
0.790297
0.814334
0.851308
0.900559
0.961046
1.03072
1.10619
1.18301
1.25622
1.3211
1.37397
1.41281
1.43754
1.44987
1.45265
1.44908
1.4421
1.43393
1.42603
1.41919
1.41368
1.40948
1.40643
1.40428
1.40282
1.40184
1.40121
1.40079
1.40053
1.40036
1.40025
1.40017
1.40012
1.40008
1.40006
1.40004
1.40003
1.40002
1.40002
1.40001
1.40001
1.40001
1.40001
1.40001
1.40001
1.40001
1.40001
1.40001
1.40001
1.40001
1.40001
1.40001
1.40001
1.40001
1.40001
1.40001
1.40001
1.40001
1.40001
1.40001
1.40001
1.40001
1.40001
1.40001
1.32152
1.26219
1.19646
1.12798
1.0606
0.997981
0.943363
0.899382
0.868005
0.850376
0.846791
0.856871
0.879864
0.914991
0.961453
1.01801
1.0825
1.15163
1.22123
1.2868
1.34412
1.39001
1.42286
1.44286
1.4518
1.45242
1.4477
1.44028
1.43212
1.42447
1.41795
1.41276
1.40884
1.406
1.40401
1.40265
1.40175
1.40116
1.40078
1.40052
1.40036
1.40025
1.40018
1.40012
1.40009
1.40006
1.40004
1.40003
1.40002
1.40002
1.40001
1.40001
1.40001
1.40001
1.40001
1.40001
1.40001
1.40001
1.40001
1.40001
1.40001
1.40001
1.40001
1.40001
1.40001
1.40001
1.40001
1.40001
1.40001
1.40001
1.40001
1.40001
1.40001
1.40001
1.40001
1.34698
1.29501
1.23663
1.17514
1.11407
1.05691
1.00678
0.966321
0.937458
0.92129
0.918137
0.927689
0.949257
0.982045
1.02514
1.07714
1.13583
1.19801
1.25986
1.31734
1.36676
1.40543
1.43217
1.44744
1.45305
1.45163
1.44588
1.43814
1.43009
1.42275
1.4166
1.41177
1.40815
1.40554
1.40371
1.40248
1.40165
1.40111
1.40075
1.40051
1.40036
1.40025
1.40018
1.40013
1.40009
1.40007
1.40005
1.40003
1.40002
1.40002
1.40001
1.40001
1.40001
1.40001
1.40001
1.40001
1.40001
1.40001
1.40001
1.40001
1.40001
1.40001
1.40001
1.40001
1.40001
1.40001
1.40001
1.40001
1.40001
1.40001
1.40001
1.40001
1.40001
1.40001
1.40001
1.37151
1.32721
1.2766
1.2226
1.1684
1.11725
1.07216
1.03562
1.00948
0.994821
0.991998
1.00079
1.02058
1.05057
1.08977
1.13666
1.189
1.24379
1.29755
1.3467
1.38809
1.41954
1.44026
1.45095
1.45345
1.4502
1.44361
1.4357
1.42786
1.42091
1.41518
1.41073
1.40743
1.40506
1.40341
1.40229
1.40154
1.40104
1.40072
1.4005
1.40035
1.40025
1.40018
1.40013
1.40009
1.40007
1.40005
1.40003
1.40002
1.40002
1.40001
1.40001
1.40001
1.40001
1.40001
1.40001
1.40001
1.40001
1.40001
1.40001
1.40001
1.40001
1.40001
1.40001
1.40001
1.40001
1.40001
1.40001
1.40001
1.40001
1.40001
1.40001
1.40001
1.40001
1.40001
1.39417
1.3576
1.31496
1.26875
1.22181
1.1771
1.13741
1.10507
1.08181
1.06868
1.06612
1.07396
1.09168
1.1185
1.15337
1.19471
1.24034
1.28747
1.333
1.37382
1.40729
1.43172
1.44672
1.45317
1.4529
1.44811
1.44092
1.433
1.42548
1.41898
1.41372
1.40968
1.40669
1.40457
1.40309
1.40209
1.40142
1.40097
1.40068
1.40048
1.40034
1.40024
1.40018
1.40013
1.40009
1.40007
1.40005
1.40003
1.40002
1.40002
1.40001
1.40001
1.40001
1.40001
1.40001
1.40001
1.40001
1.40001
1.40001
1.40001
1.40001
1.40001
1.40001
1.40001
1.40001
1.40001
1.40001
1.40001
1.40001
1.40001
1.40001
1.40001
1.40001
1.40001
1.40001
1.41408
1.38508
1.35036
1.31199
1.27246
1.2344
1.20031
1.17231
1.15202
1.14046
1.13812
1.1449
1.16035
1.18373
1.21398
1.24952
1.28826
1.32768
1.36507
1.39777
1.42365
1.4415
1.45127
1.45397
1.45135
1.44538
1.43784
1.4301
1.42301
1.41702
1.41225
1.40862
1.40597
1.40408
1.40278
1.40189
1.4013
1.4009
1.40064
1.40045
1.40033
1.40024
1.40017
1.40012
1.40009
1.40007
1.40005
1.40003
1.40002
1.40002
1.40001
1.40001
1.40001
1.40001
1.40001
1.40001
1.40001
1.40001
1.40001
1.40001
1.40001
1.40001
1.40001
1.40001
1.40001
1.40001
1.40001
1.40001
1.40001
1.40001
1.40001
1.40001
1.40001
1.40001
1.40001
1.43059
1.40875
1.38161
1.35088
1.31866
1.28722
1.25873
1.2351
1.2178
1.20786
1.20573
1.21141
1.22449
1.24431
1.2698
1.29946
1.33136
1.36326
1.39281
1.41783
1.43669
1.44859
1.45376
1.45332
1.44886
1.44209
1.43447
1.42706
1.4205
1.41507
1.4108
1.40759
1.40525
1.40361
1.40247
1.4017
1.40118
1.40083
1.40059
1.40043
1.40031
1.40023
1.40016
1.40012
1.40009
1.40006
1.40005
1.40003
1.40002
1.40002
1.40001
1.40001
1.40001
1.40001
1.40001
1.40001
1.40001
1.40001
1.40001
1.40001
1.40001
1.40001
1.40001
1.40001
1.40001
1.40001
1.40001
1.40001
1.40001
1.40001
1.40001
1.40001
1.40001
1.40001
1.40001
1.44328
1.42794
1.40784
1.38429
1.35902
1.33392
1.31086
1.2915
1.27719
1.26886
1.26697
1.27155
1.28229
1.29855
1.31934
1.34324
1.36854
1.39329
1.41554
1.43355
1.44612
1.45286
1.45422
1.45131
1.44555
1.43837
1.43091
1.42398
1.41801
1.41316
1.4094
1.4066
1.40457
1.40315
1.40217
1.40151
1.40106
1.40075
1.40054
1.4004
1.40029
1.40021
1.40016
1.40012
1.40008
1.40006
1.40004
1.40003
1.40002
1.40002
1.40001
1.40001
1.40001
1.40001
1.40001
1.40001
1.40001
1.40001
1.40001
1.40001
1.40001
1.40001
1.40001
1.40001
1.40001
1.40001
1.40001
1.40001
1.40001
1.40001
1.40001
1.40001
1.40001
1.40001
1.40001
1.45201
1.44236
1.42853
1.41149
1.39259
1.37338
1.35542
1.34013
1.32869
1.32194
1.32029
1.32384
1.33233
1.34519
1.36146
1.37991
1.39905
1.41725
1.43292
1.44475
1.45195
1.45444
1.45281
1.44811
1.44158
1.43434
1.42726
1.42092
1.41559
1.41133
1.40807
1.40566
1.40394
1.40273
1.40189
1.40133
1.40094
1.40068
1.4005
1.40037
1.40027
1.4002
1.40015
1.40011
1.40008
1.40006
1.40004
1.40003
1.40002
1.40002
1.40001
1.40001
1.40001
1.40001
1.40001
1.40001
1.40001
1.40001
1.40001
1.40001
1.40001
1.40001
1.40001
1.40001
1.40001
1.40001
1.40001
1.40001
1.40001
1.40001
1.40001
1.40001
1.40001
1.40001
1.40001
1.45687
1.45198
1.44352
1.43217
1.41892
1.405
1.39167
1.38012
1.37135
1.36608
1.3647
1.36731
1.37372
1.38339
1.3955
1.40897
1.42255
1.43495
1.44492
1.45155
1.45439
1.45359
1.44982
1.44401
1.43717
1.43017
1.42365
1.41797
1.4133
1.40962
1.40684
1.4048
1.40335
1.40233
1.40164
1.40116
1.40083
1.40061
1.40045
1.40033
1.40025
1.40019
1.40014
1.4001
1.40007
1.40005
1.40004
1.40003
1.40002
1.40002
1.40001
1.40001
1.40001
1.40001
1.40001
1.40001
1.40001
1.40001
1.40001
1.40001
1.40001
1.40001
1.40001
1.40001
1.40001
1.40001
1.40001
1.40001
1.40001
1.40001
1.40001
1.40001
1.40001
1.40001
1.40001
1.45819
1.45709
1.45304
1.44646
1.43803
1.42869
1.41942
1.41118
1.4048
1.40087
1.39976
1.40155
1.40608
1.41289
1.42127
1.43035
1.43914
1.44661
1.45187
1.45434
1.45387
1.45075
1.44562
1.43929
1.43254
1.42602
1.42016
1.41519
1.41118
1.40806
1.40572
1.40402
1.40281
1.40198
1.4014
1.401
1.40073
1.40054
1.4004
1.4003
1.40023
1.40017
1.40013
1.40009
1.40007
1.40005
1.40004
1.40003
1.40002
1.40001
1.40001
1.40001
1.40001
1.40001
1.40001
1.40001
1.40001
1.40001
1.40001
1.40001
1.40001
1.40001
1.40001
1.40001
1.40001
1.40001
1.40001
1.40001
1.40001
1.40001
1.40001
1.40001
1.40001
1.40001
1.40001
1.45654
1.45823
1.45759
1.4548
1.45032
1.44478
1.43894
1.43353
1.42919
1.42643
1.42555
1.42664
1.42954
1.43387
1.43907
1.44446
1.44928
1.45278
1.45438
1.45378
1.45099
1.44641
1.44061
1.43425
1.42791
1.42203
1.4169
1.41264
1.40925
1.40665
1.40472
1.40332
1.40234
1.40166
1.40118
1.40086
1.40064
1.40047
1.40036
1.40027
1.40021
1.40016
1.40012
1.40009
1.40006
1.40005
1.40003
1.40002
1.40002
1.40001
1.40001
1.40001
1.40001
1.40001
1.40001
1.40001
1.40001
1.40001
1.40001
1.40001
1.40001
1.40001
1.40001
1.40001
1.40001
1.40001
1.40001
1.40001
1.40001
1.40001
1.40001
1.40001
1.40001
1.40001
1.40001
1.45259
1.45613
1.45792
1.45798
1.45653
1.45401
1.45092
1.4478
1.44517
1.44338
1.44271
1.4432
1.44472
1.44701
1.44963
1.45208
1.45382
1.45434
1.4533
1.45061
1.44643
1.44114
1.43522
1.42918
1.42345
1.4183
1.41392
1.41034
1.40753
1.4054
1.40384
1.40271
1.40192
1.40137
1.40099
1.40073
1.40055
1.40041
1.40032
1.40024
1.40018
1.40014
1.40011
1.40008
1.40006
1.40004
1.40003
1.40002
1.40002
1.40001
1.40001
1.40001
1.40001
1.40001
1.40001
1.40001
1.40001
1.40001
1.40001
1.40001
1.40001
1.40001
1.40001
1.40001
1.40001
1.40001
1.40001
1.40001
1.40001
1.40001
1.40001
1.40001
1.40001
1.40001
1.40001
1.44712
1.45167
1.45501
1.457
1.45772
1.45742
1.45641
1.45507
1.45375
1.45274
1.45222
1.45223
1.45269
1.4534
1.45406
1.45433
1.45384
1.45231
1.44958
1.44569
1.44086
1.43543
1.42979
1.42432
1.4193
1.41492
1.41126
1.40832
1.40604
1.40433
1.40308
1.40218
1.40156
1.40113
1.40083
1.40062
1.40047
1.40036
1.40028
1.40021
1.40016
1.40012
1.40009
1.40007
1.40005
1.40004
1.40003
1.40002
1.40002
1.40001
1.40001
1.40001
1.40001
1.40001
1.40001
1.40001
1.40001
1.40001
1.40001
1.40001
1.40001
1.40001
1.40001
1.40001
1.40001
1.40001
1.40001
1.40001
1.40001
1.40001
1.40001
1.40001
1.40001
1.40001
1.40001
1.44084
1.44576
1.44986
1.45299
1.4551
1.45629
1.45674
1.45666
1.45631
1.45586
1.45546
1.45512
1.45481
1.4544
1.4537
1.4525
1.45058
1.44781
1.44417
1.43978
1.43486
1.4297
1.4246
1.41984
1.41558
1.41194
1.40895
1.40658
1.40476
1.40341
1.40243
1.40174
1.40125
1.40092
1.40068
1.40052
1.4004
1.40031
1.40024
1.40019
1.40014
1.40011
1.40008
1.40006
1.40005
1.40003
1.40003
1.40002
1.40001
1.40001
1.40001
1.40001
1.40001
1.40001
1.40001
1.40001
1.40001
1.40001
1.40001
1.40001
1.40001
1.40001
1.40001
1.40001
1.40001
1.40001
1.40001
1.40001
1.40001
1.40001
1.40001
1.40001
1.40001
1.40001
1.40001
1.43438
1.43918
1.44347
1.44709
1.44992
1.45198
1.45332
1.45407
1.45435
1.45429
1.45396
1.45342
1.45262
1.45151
1.44997
1.4479
1.44521
1.44186
1.43791
1.43352
1.4289
1.42427
1.41985
1.41583
1.41232
1.40937
1.40698
1.40511
1.40369
1.40264
1.40189
1.40136
1.40099
1.40074
1.40056
1.40043
1.40033
1.40026
1.40021
1.40016
1.40013
1.4001
1.40007
1.40006
1.40004
1.40003
1.40002
1.40002
1.40001
1.40001
1.40001
1.40001
1.40001
1.40001
1.40001
1.40001
1.40001
1.40001
1.40001
1.40001
1.40001
1.40001
1.40001
1.40001
1.40001
1.40001
1.40001
1.40001
1.40001
1.40001
1.40001
1.40001
1.40001
1.40001
1.40001
1.42822
1.43257
1.43666
1.44029
1.44335
1.44578
1.44757
1.44875
1.4494
1.44957
1.44932
1.44866
1.44761
1.44613
1.44419
1.44174
1.43877
1.43533
1.4315
1.42744
1.42334
1.41936
1.41566
1.41237
1.40954
1.40721
1.40534
1.40389
1.40281
1.40201
1.40145
1.40105
1.40078
1.40059
1.40045
1.40035
1.40028
1.40022
1.40018
1.40014
1.40011
1.40008
1.40006
1.40005
1.40004
1.40003
1.40002
1.40002
1.40001
1.40001
1.40001
1.40001
1.40001
1.40001
1.40001
1.40001
1.40001
1.40001
1.40001
1.40001
1.40001
1.40001
1.40001
1.40001
1.40001
1.40001
1.40001
1.40001
1.40001
1.40001
1.40001
1.40001
1.40001
1.40001
1.40001
1.42263
1.4264
1.43003
1.43338
1.43633
1.43877
1.44068
1.44202
1.44282
1.44311
1.4429
1.44223
1.4411
1.43951
1.43747
1.43499
1.43209
1.42886
1.42541
1.42187
1.41838
1.41508
1.41208
1.40945
1.40723
1.40542
1.404
1.4029
1.40209
1.40151
1.40109
1.4008
1.4006
1.40046
1.40036
1.40029
1.40023
1.40019
1.40015
1.40012
1.40009
1.40007
1.40006
1.40004
1.40003
1.40002
1.40002
1.40001
1.40001
1.40001
1.40001
1.40001
1.40001
1.40001
1.40001
1.40001
1.40001
1.40001
1.40001
1.40001
1.40001
1.40001
1.40001
1.40001
1.40001
1.40001
1.40001
1.40001
1.40001
1.40001
1.40001
1.40001
1.40001
1.40001
1.40001
1.4178
1.42091
1.42399
1.4269
1.42953
1.43178
1.43357
1.43489
1.4357
1.43602
1.43585
1.43521
1.43412
1.43259
1.43066
1.42835
1.42574
1.42289
1.41994
1.41697
1.41412
1.41147
1.40911
1.40706
1.40536
1.40399
1.40293
1.40212
1.40153
1.4011
1.40081
1.4006
1.40046
1.40036
1.40029
1.40023
1.40019
1.40016
1.40013
1.4001
1.40008
1.40006
1.40005
1.40004
1.40003
1.40002
1.40002
1.40001
1.40001
1.40001
1.40001
1.40001
1.40001
1.40001
1.40001
1.40001
1.40001
1.40001
1.40001
1.40001
1.40001
1.40001
1.40001
1.40001
1.40001
1.40001
1.40001
1.40001
1.40001
1.40001
1.40001
1.40001
1.40001
1.40001
1.40001
1.41375
1.41625
1.41876
1.42117
1.42339
1.42531
1.42689
1.42806
1.4288
1.4291
1.42895
1.42838
1.4274
1.42603
1.42431
1.42229
1.42005
1.41767
1.41524
1.41285
1.41059
1.40852
1.4067
1.40515
1.40388
1.40286
1.40209
1.40151
1.40109
1.40079
1.40058
1.40044
1.40035
1.40028
1.40023
1.40019
1.40015
1.40013
1.4001
1.40008
1.40007
1.40005
1.40004
1.40003
1.40002
1.40002
1.40001
1.40001
1.40001
1.40001
1.40001
1.40001
1.40001
1.40001
1.40001
1.40001
1.40001
1.40001
1.40001
1.40001
1.40001
1.40001
1.40001
1.40001
1.40001
1.40001
1.40001
1.40001
1.40001
1.40001
1.40001
1.40001
1.40001
1.40001
1.40001
1.41045
1.4124
1.41439
1.41631
1.4181
1.41968
1.42098
1.42196
1.42258
1.42283
1.4227
1.4222
1.42135
1.42018
1.41873
1.41705
1.41521
1.41329
1.41136
1.40949
1.40774
1.40616
1.4048
1.40365
1.40273
1.402
1.40145
1.40104
1.40075
1.40055
1.40041
1.40032
1.40026
1.40021
1.40018
1.40015
1.40013
1.4001
1.40009
1.40007
1.40006
1.40004
1.40003
1.40003
1.40002
1.40002
1.40001
1.40001
1.40001
1.40001
1.40001
1.40001
1.40001
1.40001
1.40001
1.40001
1.40001
1.40001
1.40001
1.40001
1.40001
1.40001
1.40001
1.40001
1.40001
1.40001
1.40001
1.40001
1.40001
1.40001
1.40001
1.40001
1.40001
1.40001
1.40001
1.40784
1.40933
1.41085
1.41234
1.41373
1.41497
1.416
1.41677
1.41727
1.41745
1.41733
1.4169
1.41619
1.41523
1.41405
1.4127
1.41124
1.40974
1.40824
1.40682
1.40551
1.40434
1.40334
1.40251
1.40185
1.40134
1.40096
1.40069
1.4005
1.40037
1.40028
1.40023
1.40019
1.40016
1.40014
1.40012
1.4001
1.40008
1.40007
1.40006
1.40005
1.40004
1.40003
1.40002
1.40002
1.40001
1.40001
1.40001
1.40001
1.40001
1.40001
1.40001
1.40001
1.40001
1.40001
1.40001
1.40001
1.40001
1.40001
1.40001
1.40001
1.40001
1.40001
1.40001
1.40001
1.40001
1.40001
1.40001
1.40001
1.40001
1.40001
1.40001
1.40001
1.40001
1.40001
1.40581
1.40692
1.40806
1.40918
1.41024
1.41117
1.41195
1.41255
1.41291
1.41303
1.41291
1.41256
1.41198
1.41121
1.41027
1.40922
1.40809
1.40695
1.40582
1.40476
1.4038
1.40296
1.40224
1.40166
1.40121
1.40086
1.40061
1.40044
1.40032
1.40024
1.40019
1.40016
1.40013
1.40012
1.4001
1.40009
1.40008
1.40007
1.40006
1.40005
1.40004
1.40003
1.40002
1.40002
1.40002
1.40001
1.40001
1.40001
1.40001
1.40001
1.40001
1.40001
1.40001
1.40001
1.40001
1.40001
1.40001
1.40001
1.40001
1.40001
1.40001
1.40001
1.40001
1.40001
1.40001
1.40001
1.40001
1.40001
1.40001
1.40001
1.40001
1.40001
1.40001
1.40001
1.40001
1.40427
1.40508
1.40592
1.40673
1.40751
1.4082
1.40877
1.40919
1.40945
1.40952
1.40941
1.40911
1.40865
1.40805
1.40732
1.40652
1.40567
1.40481
1.40399
1.40322
1.40253
1.40194
1.40144
1.40105
1.40074
1.40052
1.40036
1.40025
1.40018
1.40014
1.40012
1.4001
1.40009
1.40009
1.40008
1.40007
1.40006
1.40005
1.40005
1.40004
1.40003
1.40003
1.40002
1.40002
1.40001
1.40001
1.40001
1.40001
1.40001
1.40001
1.40001
1.40001
1.40001
1.40001
1.40001
1.40001
1.40001
1.40001
1.40001
1.40001
1.40001
1.40001
1.40001
1.40001
1.40001
1.40001
1.40001
1.40001
1.40001
1.40001
1.40001
1.40001
1.40001
1.40001
1.40001
1.40311
1.4037
1.4043
1.40489
1.40543
1.40593
1.40633
1.40662
1.40678
1.40682
1.40671
1.40646
1.4061
1.40563
1.40509
1.40448
1.40386
1.40323
1.40264
1.40209
1.40161
1.4012
1.40087
1.40061
1.40042
1.40028
1.40019
1.40013
1.40009
1.40008
1.40007
1.40006
1.40006
1.40006
1.40006
1.40005
1.40005
1.40004
1.40004
1.40003
1.40003
1.40002
1.40002
1.40001
1.40001
1.40001
1.40001
1.40001
1.40001
1.40001
1.40001
1.40001
1.40001
1.40001
1.40001
1.40001
1.40001
1.40001
1.40001
1.40001
1.40001
1.40001
1.40001
1.40001
1.40001
1.40001
1.40001
1.40001
1.40001
1.40001
1.40001
1.40001
1.40001
1.40001
1.40001
1.40227
1.40268
1.40309
1.40351
1.40389
1.40423
1.4045
1.40469
1.40479
1.40479
1.40468
1.40449
1.4042
1.40384
1.40343
1.40299
1.40254
1.40209
1.40167
1.40129
1.40097
1.4007
1.40048
1.40032
1.4002
1.40012
1.40007
1.40004
1.40003
1.40003
1.40003
1.40004
1.40004
1.40004
1.40004
1.40004
1.40004
1.40003
1.40003
1.40003
1.40002
1.40002
1.40001
1.40001
1.40001
1.40001
1.40001
1.40001
1.40001
1.40001
1.40001
1.40001
1.40001
1.40001
1.40001
1.40001
1.40001
1.40001
1.40001
1.40001
1.40001
1.40001
1.40001
1.40001
1.40001
1.40001
1.40001
1.40001
1.40001
1.40001
1.40001
1.40001
1.40001
1.40001
1.40001
1.40164
1.40193
1.40222
1.4025
1.40276
1.40299
1.40316
1.40327
1.40332
1.4033
1.40321
1.40304
1.40282
1.40255
1.40225
1.40193
1.4016
1.40129
1.401
1.40074
1.40053
1.40035
1.40021
1.40012
1.40005
1.40002
1.4
1.39999
1.39999
1.4
1.40001
1.40002
1.40002
1.40003
1.40003
1.40003
1.40003
1.40003
1.40002
1.40002
1.40002
1.40001
1.40001
1.40001
1.40001
1.40001
1.40001
1.40001
1.40001
1.40001
1.40001
1.40001
1.40001
1.40001
1.4
1.4
1.40001
1.40001
1.40001
1.40001
1.40001
1.40001
1.40001
1.40001
1.40001
1.40001
1.40001
1.40001
1.40001
1.40001
1.40001
1.40001
1.40001
1.40001
1.40001
1.4012
1.40139
1.40159
1.40178
1.40195
1.40209
1.4022
1.40226
1.40227
1.40224
1.40215
1.40202
1.40184
1.40164
1.40142
1.40119
1.40096
1.40074
1.40055
1.40038
1.40024
1.40013
1.40005
1.4
1.39997
1.39995
1.39995
1.39996
1.39997
1.39998
1.4
1.40001
1.40001
1.40002
1.40002
1.40002
1.40002
1.40002
1.40002
1.40002
1.40001
1.40001
1.40001
1.40001
1.40001
1.40001
1.40001
1.40001
1.40001
1.40001
1.40001
1.40001
1.40001
1.40001
1.40001
1.40001
1.40001
1.40001
1.40001
1.40001
1.40001
1.40001
1.40001
1.40001
1.40001
1.40001
1.40001
1.40001
1.40001
1.40001
1.40001
1.40001
1.40001
1.40001
1.40001
1.40087
1.40101
1.40114
1.40126
1.40137
1.40146
1.40151
1.40154
1.40153
1.40149
1.40141
1.40131
1.40117
1.40102
1.40086
1.40069
1.40053
1.40038
1.40025
1.40014
1.40006
1.39999
1.39995
1.39993
1.39992
1.39992
1.39993
1.39995
1.39996
1.39997
1.39999
1.4
1.40001
1.40001
1.40001
1.40002
1.40002
1.40002
1.40001
1.40001
1.40001
1.40001
1.40001
1.40001
1.40001
1.40001
1.40001
1.40001
1.40001
1.40001
1.40001
1.40001
1.40001
1.40001
1.40001
1.40001
1.40001
1.40001
1.40001
1.40001
1.40001
1.40001
1.40001
1.40001
1.40001
1.40001
1.40001
1.40001
1.40001
1.40001
1.40001
1.40001
1.40001
1.40001
1.40001
1.40064
1.40073
1.40082
1.4009
1.40096
1.40101
1.40104
1.40104
1.40103
1.40098
1.40091
1.40082
1.40072
1.4006
1.40049
1.40037
1.40026
1.40016
1.40007
1.4
1.39995
1.39992
1.3999
1.39989
1.3999
1.39991
1.39992
1.39994
1.39995
1.39997
1.39998
1.39999
1.4
1.40001
1.40001
1.40001
1.40001
1.40001
1.40001
1.40001
1.40001
1.40001
1.40001
1.40001
1.40001
1.40001
1.40001
1.40001
1.40001
1.40001
1.40001
1.40001
1.40001
1.40001
1.40001
1.40001
1.40001
1.40001
1.40001
1.40001
1.40001
1.40001
1.40001
1.40001
1.40001
1.40001
1.40001
1.40001
1.40001
1.40001
1.40001
1.40001
1.40001
1.40001
1.40001
1.40048
1.40054
1.40059
1.40065
1.40068
1.40071
1.40071
1.4007
1.40068
1.40063
1.40058
1.40051
1.40043
1.40034
1.40025
1.40017
1.40009
1.40002
1.39997
1.39993
1.3999
1.39988
1.39988
1.39988
1.39989
1.39991
1.39992
1.39994
1.39996
1.39997
1.39998
1.39999
1.4
1.4
1.40001
1.40001
1.40001
1.40001
1.40001
1.40001
1.40001
1.40001
1.40001
1.40001
1.40001
1.40001
1.40001
1.40001
1.40001
1.40001
1.40001
1.40001
1.40001
1.40001
1.40001
1.40001
1.40001
1.40001
1.40001
1.40001
1.40001
1.40001
1.40001
1.40001
1.40001
1.40001
1.40001
1.40001
1.40001
1.40001
1.40001
1.40001
1.40001
1.40001
1.40001
1.40036
1.4004
1.40044
1.40046
1.40048
1.40049
1.40049
1.40048
1.40045
1.40041
1.40036
1.4003
1.40024
1.40017
1.40011
1.40005
1.39999
1.39995
1.39991
1.39989
1.39988
1.39987
1.39987
1.39988
1.3999
1.39991
1.39993
1.39994
1.39996
1.39997
1.39998
1.39999
1.4
1.4
1.40001
1.40001
1.40001
1.40001
1.40001
1.40001
1.40001
1.40001
1.40001
1.40001
1.40001
1.40001
1.40001
1.40001
1.40001
1.4
1.4
1.40001
1.40001
1.40001
1.40001
1.40001
1.40001
1.40001
1.40001
1.40001
1.40001
1.40001
1.40001
1.40001
1.40001
1.40001
1.40001
1.40001
1.40001
1.40001
1.40001
1.40001
1.40001
1.40001
1.40001
1.40027
1.4003
1.40032
1.40034
1.40035
1.40035
1.40034
1.40032
1.40029
1.40026
1.40022
1.40017
1.40012
1.40007
1.40002
1.39998
1.39994
1.39992
1.39989
1.39988
1.39987
1.39988
1.39988
1.39989
1.39991
1.39992
1.39994
1.39995
1.39996
1.39998
1.39999
1.39999
1.4
1.4
1.4
1.40001
1.40001
1.40001
1.40001
1.40001
1.40001
1.40001
1.40001
1.40001
1.40001
1.40001
1.40001
1.40001
1.40001
1.40001
1.40001
1.40001
1.40001
1.40001
1.40001
1.40001
1.40001
1.40001
1.40001
1.40001
1.40001
1.40001
1.40001
1.40001
1.40001
1.40001
1.40001
1.40001
1.40001
1.40001
1.40001
1.40001
1.40001
1.40001
1.40001
1.40021
1.40023
1.40024
1.40025
1.40026
1.40025
1.40024
1.40022
1.40019
1.40016
1.40013
1.40009
1.40006
1.40002
1.39998
1.39995
1.39992
1.3999
1.39989
1.39988
1.39988
1.39989
1.3999
1.39991
1.39992
1.39993
1.39995
1.39996
1.39997
1.39998
1.39999
1.39999
1.4
1.4
1.4
1.4
1.40001
1.40001
1.40001
1.40001
1.40001
1.40001
1.40001
1.40001
1.40001
1.40001
1.40001
1.40001
1.40001
1.40001
1.40001
1.40001
1.40001
1.40001
1.40001
1.40001
1.40001
1.40001
1.40001
1.40001
1.40001
1.40001
1.40001
1.40001
1.40001
1.40001
1.40001
1.40001
1.40001
1.40001
1.40001
1.40001
1.40001
1.40001
1.40001
1.40016
1.40018
1.40018
1.40019
1.40019
1.40018
1.40017
1.40015
1.40013
1.40011
1.40008
1.40005
1.40002
1.39999
1.39996
1.39994
1.39992
1.39991
1.3999
1.3999
1.3999
1.3999
1.39991
1.39992
1.39993
1.39994
1.39995
1.39997
1.39998
1.39998
1.39999
1.39999
1.4
1.4
1.4
1.40001
1.40001
1.40001
1.40001
1.40001
1.40001
1.40001
1.40001
1.40001
1.40001
1.40001
1.40001
1.40001
1.40001
1.40001
1.40001
1.40001
1.40001
1.40001
1.40001
1.40001
1.40001
1.40001
1.40001
1.40001
1.40001
1.40001
1.40001
1.40001
1.40001
1.40001
1.40001
1.40001
1.40001
1.40001
1.40001
1.40001
1.40001
1.40001
1.40001
1.40013
1.40013
1.40014
1.40014
1.40014
1.40013
1.40012
1.40011
1.40009
1.40007
1.40005
1.40002
1.4
1.39998
1.39996
1.39994
1.39993
1.39992
1.39991
1.39991
1.39991
1.39992
1.39993
1.39993
1.39994
1.39995
1.39996
1.39997
1.39998
1.39999
1.39999
1.4
1.4
1.4
1.4
1.4
1.4
1.40001
1.40001
1.40001
1.40001
1.40001
1.40001
1.40001
1.40001
1.40001
1.40001
1.40001
1.40001
1.40001
1.40001
1.40001
1.40001
1.40001
1.40001
1.40001
1.40001
1.40001
1.40001
1.40001
1.40001
1.40001
1.40001
1.40001
1.40001
1.40001
1.40001
1.40001
1.40001
1.40001
1.40001
1.40001
1.40001
1.40001
1.40001
1.4001
1.4001
1.40011
1.40011
1.4001
1.4001
1.40009
1.40008
1.40006
1.40004
1.40003
1.40001
1.39999
1.39997
1.39996
1.39994
1.39994
1.39993
1.39993
1.39993
1.39993
1.39993
1.39994
1.39995
1.39996
1.39996
1.39997
1.39998
1.39999
1.39999
1.39999
1.4
1.4
1.4
1.4
1.4
1.4
1.4
1.40001
1.40001
1.40001
1.40001
1.40001
1.40001
1.40001
1.40001
1.40001
1.40001
1.40001
1.40001
1.40001
1.40001
1.40001
1.40001
1.40001
1.40001
1.40001
1.40001
1.40001
1.40001
1.40001
1.40001
1.40001
1.40001
1.40001
1.40001
1.40001
1.40001
1.40001
1.40001
1.40001
1.40001
1.40001
1.40001
1.40001
1.40007
1.40008
1.40008
1.40008
1.40008
1.40007
1.40007
1.40006
1.40004
1.40003
1.40002
1.4
1.39999
1.39997
1.39996
1.39995
1.39995
1.39994
1.39994
1.39994
1.39994
1.39995
1.39995
1.39996
1.39997
1.39997
1.39998
1.39998
1.39999
1.39999
1.4
1.4
1.4
1.4
1.4
1.4
1.4
1.40001
1.40001
1.40001
1.40001
1.40001
1.40001
1.40001
1.40001
1.40001
1.40001
1.40001
1.40001
1.40001
1.40001
1.40001
1.4
1.4
1.4
1.40001
1.40001
1.40001
1.40001
1.40001
1.40001
1.40001
1.40001
1.40001
1.40001
1.40001
1.40001
1.40001
1.40001
1.40001
1.40001
1.40001
1.40001
1.40001
1.40001
1.40006
1.40006
1.40006
1.40006
1.40006
1.40006
1.40005
1.40004
1.40003
1.40002
1.40001
1.4
1.39999
1.39998
1.39997
1.39996
1.39996
1.39996
1.39995
1.39995
1.39996
1.39996
1.39996
1.39997
1.39997
1.39998
1.39998
1.39999
1.39999
1.4
1.4
1.4
1.4
1.4
1.4
1.4
1.4
1.40001
1.40001
1.40001
1.40001
1.40001
1.40001
1.40001
1.40001
1.40001
1.40001
1.4
1.4
1.40001
1.40001
1.40001
1.40001
1.40001
1.40001
1.40001
1.40001
1.40001
1.40001
1.40001
1.40001
1.40001
1.40001
1.40001
1.40001
1.40001
1.40001
1.40001
1.40001
1.40001
1.40001
1.40001
1.40001
1.40001
1.40001
1.40005
1.40005
1.40005
1.40005
1.40005
1.40004
1.40004
1.40003
1.40002
1.40002
1.40001
1.4
1.39999
1.39998
1.39998
1.39997
1.39997
1.39997
1.39997
1.39997
1.39997
1.39997
1.39997
1.39998
1.39998
1.39999
1.39999
1.39999
1.39999
1.4
1.4
1.4
1.4
1.4
1.4
1.4
1.4
1.4
1.4
1.40001
1.40001
1.40001
1.4
1.4
1.4
1.40001
1.40001
1.40001
1.40001
1.40001
1.4
1.4
1.4
1.4
1.4
1.40001
1.40001
1.40001
1.40001
1.40001
1.40001
1.40001
1.40001
1.40001
1.40001
1.40001
1.40001
1.40001
1.40001
1.40001
1.40001
1.40001
1.40001
1.40001
1.40001
1.40004
1.40004
1.40004
1.40004
1.40004
1.40003
1.40003
1.40002
1.40002
1.40001
1.40001
1.4
1.39999
1.39999
1.39998
1.39998
1.39998
1.39997
1.39997
1.39998
1.39998
1.39998
1.39998
1.39999
1.39999
1.39999
1.39999
1.4
1.4
1.4
1.4
1.4
1.4
1.4
1.4
1.4
1.4
1.4
1.4
1.4
1.4
1.4
1.40001
1.40001
1.40001
1.40001
1.4
1.4
1.40001
1.40001
1.40001
1.40001
1.40001
1.40001
1.40001
1.40001
1.40001
1.40001
1.40001
1.40001
1.40001
1.40001
1.40001
1.40001
1.40001
1.40001
1.40001
1.40001
1.40001
1.40001
1.40001
1.40001
1.40001
1.40001
1.40001
1.40003
1.40003
1.40003
1.40003
1.40003
1.40003
1.40002
1.40002
1.40001
1.40001
1.40001
1.4
1.4
1.39999
1.39999
1.39999
1.39998
1.39998
1.39998
1.39998
1.39998
1.39999
1.39999
1.39999
1.39999
1.39999
1.4
1.4
1.4
1.4
1.4
1.4
1.4
1.4
1.4
1.4
1.4
1.4
1.4
1.40001
1.40001
1.4
1.4
1.4
1.40001
1.40001
1.40001
1.40001
1.40001
1.4
1.4
1.4
1.4
1.4
1.40001
1.40001
1.40001
1.40001
1.40001
1.40001
1.40001
1.40001
1.40001
1.40001
1.40001
1.40001
1.40001
1.40001
1.40001
1.40001
1.40001
1.40001
1.40001
1.40001
1.40001
1.40002
1.40002
1.40002
1.40002
1.40002
1.40002
1.40002
1.40002
1.40001
1.40001
1.4
1.4
1.4
1.39999
1.39999
1.39999
1.39999
1.39999
1.39999
1.39999
1.39999
1.39999
1.39999
1.39999
1.4
1.4
1.4
1.4
1.4
1.4
1.4
1.4
1.4
1.4
1.4
1.4
1.4
1.40001
1.40001
1.40001
1.40001
1.40001
1.40001
1.40001
1.4
1.4
1.4
1.40001
1.40001
1.40001
1.40001
1.40001
1.40001
1.40001
1.40001
1.40001
1.40001
1.40001
1.40001
1.40001
1.40001
1.40001
1.40001
1.40001
1.40001
1.40001
1.40001
1.40001
1.40001
1.40001
1.40001
1.40001
1.40001
1.40001
1.40001
1.40002
1.40002
1.40002
1.40002
1.40002
1.40002
1.40001
1.40001
1.40001
1.40001
1.4
1.4
1.4
1.4
1.4
1.39999
1.39999
1.39999
1.39999
1.39999
1.39999
1.39999
1.39999
1.4
1.4
1.4
1.4
1.4
1.4
1.4
1.4
1.4
1.4
1.4
1.4
1.4
1.4
1.40001
1.40001
1.40001
1.40001
1.40001
1.40001
1.40001
1.40001
1.40001
1.40001
1.40001
1.4
1.4
1.4
1.4
1.4
1.40001
1.40001
1.40001
1.40001
1.40001
1.40001
1.40001
1.40001
1.40001
1.40001
1.40001
1.40001
1.40001
1.40001
1.40001
1.40001
1.40001
1.40001
1.40001
1.40001
1.40001
1.40001
1.40001
1.40002
1.40001
1.40001
1.40001
1.40001
1.40001
1.40001
1.40001
1.40001
1.4
1.4
1.4
1.4
1.4
1.4
1.4
1.4
1.4
1.4
1.4
1.4
1.4
1.4
1.4
1.4
1.4
1.4
1.4
1.4
1.4
1.4
1.4
1.4
1.4
1.40001
1.40001
1.40001
1.40001
1.4
1.4
1.40001
1.40001
1.40001
1.40001
1.40001
1.40001
1.40001
1.40001
1.40001
1.40001
1.40001
1.40001
1.40001
1.40001
1.40001
1.40001
1.40001
1.40001
1.40001
1.40001
1.40001
1.40001
1.40001
1.40001
1.40001
1.40001
1.40001
1.40001
1.40001
1.40001
1.40001
1.40001
1.40001
1.40001
1.40001
1.40001
1.40001
1.40001
1.40001
1.40001
1.40001
1.40001
1.40001
1.40001
1.4
1.4
1.4
1.4
1.4
1.4
1.4
1.4
1.4
1.4
1.4
1.4
1.4
1.4
1.4
1.4
1.4
1.4
1.4
1.4
1.4
1.4
1.4
1.4
1.4
1.4
1.4
1.4
1.40001
1.4
1.4
1.4
1.4
1.4
1.40001
1.40001
1.40001
1.4
1.4
1.4
1.4
1.40001
1.40001
1.40001
1.40001
1.40001
1.40001
1.40001
1.40001
1.40001
1.40001
1.40001
1.40001
1.40001
1.40001
1.40001
1.40001
1.40001
1.40001
1.40001
1.40001
1.40001
1.40001
1.40001
1.40001
1.40001
1.40001
1.40001
1.40001
1.40001
1.40001
1.40001
1.40001
1.40001
1.40001
1.40001
1.4
1.4
1.4
1.4
1.4
1.4
1.4
1.4
1.4
1.4
1.4
1.4
1.4
1.4
1.4
1.4
1.4
1.4
1.4
1.4
1.4
1.4
1.4
1.4
1.4
1.4
1.4
1.4
1.4
1.40001
1.40001
1.40001
1.40001
1.40001
1.40001
1.40001
1.40001
1.40001
1.40001
1.40001
1.40001
1.40001
1.40001
1.40001
1.40001
1.40001
1.40001
1.40001
1.40001
1.40001
1.40001
1.40001
1.40001
1.40001
1.40001
1.40001
1.40001
1.40001
1.40001
1.40001
1.40001
1.40001
1.40001
1.40001
1.40001
1.40001
1.40001
1.40001
1.40001
1.40001
1.40001
1.40001
1.40001
1.40001
1.4
1.4
1.4
1.4
1.4
1.4
1.4
1.4
1.4
1.4
1.4
1.4
1.4
1.4
1.4
1.4
1.4
1.4
1.4
1.4
1.4
1.4
1.40001
1.40001
1.40001
1.40001
1.40001
1.40001
1.4
1.4
1.4
1.4
1.40001
1.40001
1.40001
1.40001
1.40001
1.40001
1.40001
1.40001
1.40001
1.40001
1.40001
1.40001
1.40001
1.40001
1.40001
1.40001
1.40001
1.40001
1.40001
1.40001
1.40001
1.40001
1.40001
1.40001
1.40001
1.40001
1.40001
1.40001
1.40001
1.40001
1.40001
1.40001
1.40001
1.40001
1.40001
1.40001
1.40001
1.40001
1.40001
1.40001
1.40001
1.40001
1.40001
1.4
1.4
1.4
1.4
1.4
1.4
1.4
1.4
1.4
1.4
1.4
1.4
1.4
1.4
1.4
1.4
1.4
1.4
1.4
1.4
1.4
1.4
1.4
1.4
1.4
1.4
1.4
1.4
1.40001
1.40001
1.40001
1.40001
1.40001
1.40001
1.40001
1.40001
1.40001
1.40001
1.40001
1.40001
1.40001
1.40001
1.40001
1.40001
1.40001
1.40001
1.40001
1.40001
1.40001
1.40001
1.40001
1.40001
1.40001
1.40001
1.40001
1.40001
1.40001
1.40001
1.40001
1.40001
1.40001
1.40001
1.40001
1.40001
1.40001
1.40001
1.40001
1.40001
1.40001
1.40001
1.40001
1.40001
1.40001
1.40001
1.40001
1.40001
1.4
1.4
1.4
1.4
1.4
1.4
1.4
1.4
1.4
1.4
1.4
1.4
1.4
1.4
1.4
1.4
1.4
1.4
1.4
1.40001
1.40001
1.40001
1.40001
1.4
1.4
1.40001
1.40001
1.40001
1.40001
1.40001
1.40001
1.40001
1.40001
1.40001
1.40001
1.40001
1.40001
1.40001
1.40001
1.40001
1.40001
1.40001
1.40001
1.40001
1.40001
1.40001
1.40001
1.40001
1.40001
1.40001
1.40001
1.40001
1.40001
1.40001
1.40001
1.40001
1.40001
1.40001
1.40001
1.40001
1.40001
1.40001
1.40001
1.40001
1.40001
1.40001
1.40001
1.40001
1.40001
1.40001
1.40001
1.40001
1.40001
1.40001
1.4
1.4
1.4
1.4
1.4
1.4
1.4
1.4
1.4
1.4
1.4
1.4
1.4
1.4
1.4
1.4
1.4
1.4
1.40001
1.40001
1.40001
1.4
1.4
1.4
1.4
1.4
1.4
1.40001
1.40001
1.40001
1.4
1.4
1.40001
1.40001
1.40001
1.40001
1.40001
1.40001
1.40001
1.40001
1.40001
1.40001
1.40001
1.40001
1.40001
1.40001
1.40001
1.40001
1.40001
1.40001
1.40001
1.40001
1.40001
1.40001
1.40001
1.40001
1.40001
1.40001
1.40001
1.40001
1.40001
1.40001
1.40001
1.40001
1.40001
1.40001
1.40001
1.40001
1.40001
1.40001
1.40001
1.40001
1.40001
1.40001
1.40001
1.40001
1.4
1.4
1.4
1.4
1.4
1.4
1.4
1.4
1.4
1.4
1.4
1.4
1.4
1.4
1.4
1.4
1.4
1.40001
1.40001
1.40001
1.4
1.4
1.40001
1.40001
1.40001
1.40001
1.40001
1.40001
1.40001
1.40001
1.40001
1.40001