/*--------------------------------*- C++ -*----------------------------------*\
  =========                 |
  \\      /  F ield         | OpenFOAM: The Open Source CFD Toolbox
   \\    /   O peration     | Website:  https://openfoam.org
    \\  /    A nd           | Version:  6
     \\/     M anipulation  |
\*---------------------------------------------------------------------------*/
FoamFile
{
    version     2.0;
    format      ascii;
    class       volVectorField;
    location    "4.1";
    object      U;
}
// * * * * * * * * * * * * * * * * * * * * * * * * * * * * * * * * * * * * * //

dimensions      [0 1 -1 0 0 0 0];

internalField   nonuniform List<vector> 
5625
(
(0.894415 0.447194 0)
(0.894418 0.447191 0)
(0.89442 0.447188 0)
(0.894421 0.447187 0)
(0.894421 0.447186 0)
(0.89442 0.447188 0)
(0.894416 0.447193 0)
(0.894411 0.447202 0)
(0.894402 0.447215 0)
(0.89439 0.447235 0)
(0.894376 0.447261 0)
(0.894359 0.447296 0)
(0.89434 0.44734 0)
(0.89432 0.447392 0)
(0.894299 0.447453 0)
(0.894277 0.447522 0)
(0.894258 0.447599 0)
(0.89424 0.447681 0)
(0.894226 0.447768 0)
(0.894216 0.447856 0)
(0.89421 0.447944 0)
(0.89421 0.448029 0)
(0.894216 0.448109 0)
(0.894228 0.44818 0)
(0.894245 0.448241 0)
(0.894266 0.44829 0)
(0.894291 0.448325 0)
(0.894319 0.448346 0)
(0.894349 0.448351 0)
(0.89438 0.448342 0)
(0.89441 0.448317 0)
(0.894438 0.44828 0)
(0.894464 0.448231 0)
(0.894487 0.448172 0)
(0.894506 0.448105 0)
(0.89452 0.448033 0)
(0.894531 0.447958 0)
(0.894538 0.447881 0)
(0.894541 0.447805 0)
(0.89454 0.447732 0)
(0.894537 0.447662 0)
(0.894531 0.447597 0)
(0.894524 0.447537 0)
(0.894515 0.447483 0)
(0.894505 0.447435 0)
(0.894495 0.447393 0)
(0.894485 0.447357 0)
(0.894475 0.447326 0)
(0.894465 0.4473 0)
(0.894455 0.447278 0)
(0.894447 0.44726 0)
(0.894439 0.447245 0)
(0.894432 0.447233 0)
(0.894425 0.447224 0)
(0.89442 0.447216 0)
(0.894416 0.447211 0)
(0.894412 0.447207 0)
(0.894409 0.447204 0)
(0.894406 0.447202 0)
(0.894404 0.4472 0)
(0.894403 0.447199 0)
(0.894402 0.447199 0)
(0.894401 0.447199 0)
(0.8944 0.447199 0)
(0.8944 0.447199 0)
(0.8944 0.447199 0)
(0.8944 0.447199 0)
(0.8944 0.447199 0)
(0.8944 0.447199 0)
(0.8944 0.4472 0)
(0.8944 0.4472 0)
(0.8944 0.4472 0)
(0.8944 0.4472 0)
(0.8944 0.4472 0)
(0.8944 0.4472 0)
(0.894417 0.447195 0)
(0.89442 0.447193 0)
(0.894421 0.447192 0)
(0.894421 0.447193 0)
(0.89442 0.447196 0)
(0.894416 0.447202 0)
(0.894409 0.447213 0)
(0.894399 0.44723 0)
(0.894386 0.447255 0)
(0.894368 0.447288 0)
(0.894347 0.447331 0)
(0.894323 0.447385 0)
(0.894297 0.447452 0)
(0.894269 0.447531 0)
(0.89424 0.447621 0)
(0.894212 0.447722 0)
(0.894187 0.447832 0)
(0.894165 0.44795 0)
(0.894148 0.448072 0)
(0.894138 0.448196 0)
(0.894134 0.448318 0)
(0.894138 0.448435 0)
(0.89415 0.448542 0)
(0.89417 0.448638 0)
(0.894197 0.448719 0)
(0.89423 0.448783 0)
(0.894267 0.448826 0)
(0.894309 0.448849 0)
(0.894352 0.448851 0)
(0.894396 0.448832 0)
(0.894438 0.448793 0)
(0.894477 0.448735 0)
(0.894512 0.448661 0)
(0.894543 0.448574 0)
(0.894567 0.448476 0)
(0.894586 0.448371 0)
(0.894598 0.448261 0)
(0.894605 0.448151 0)
(0.894607 0.448042 0)
(0.894604 0.447936 0)
(0.894596 0.447837 0)
(0.894586 0.447744 0)
(0.894574 0.44766 0)
(0.89456 0.447584 0)
(0.894544 0.447517 0)
(0.894529 0.447459 0)
(0.894514 0.447409 0)
(0.894499 0.447366 0)
(0.894486 0.447331 0)
(0.894473 0.447301 0)
(0.894461 0.447277 0)
(0.89445 0.447257 0)
(0.894441 0.447242 0)
(0.894432 0.44723 0)
(0.894426 0.44722 0)
(0.89442 0.447213 0)
(0.894415 0.447208 0)
(0.894411 0.447204 0)
(0.894408 0.447202 0)
(0.894405 0.4472 0)
(0.894403 0.447199 0)
(0.894402 0.447198 0)
(0.894401 0.447198 0)
(0.8944 0.447198 0)
(0.8944 0.447198 0)
(0.8944 0.447198 0)
(0.8944 0.447199 0)
(0.8944 0.447199 0)
(0.8944 0.447199 0)
(0.8944 0.447199 0)
(0.8944 0.4472 0)
(0.8944 0.4472 0)
(0.8944 0.4472 0)
(0.8944 0.4472 0)
(0.8944 0.4472 0)
(0.894418 0.447199 0)
(0.89442 0.447199 0)
(0.89442 0.4472 0)
(0.894418 0.447204 0)
(0.894415 0.447212 0)
(0.894407 0.447226 0)
(0.894395 0.447246 0)
(0.894379 0.447275 0)
(0.894358 0.447316 0)
(0.894333 0.447369 0)
(0.894302 0.447436 0)
(0.894268 0.447519 0)
(0.894231 0.447618 0)
(0.894193 0.447734 0)
(0.894154 0.447864 0)
(0.894118 0.448009 0)
(0.894086 0.448166 0)
(0.894059 0.448331 0)
(0.89404 0.448501 0)
(0.894029 0.448672 0)
(0.894029 0.448839 0)
(0.89404 0.448998 0)
(0.894061 0.449143 0)
(0.894093 0.449271 0)
(0.894134 0.449377 0)
(0.894183 0.449459 0)
(0.894239 0.449514 0)
(0.894298 0.44954 0)
(0.89436 0.449536 0)
(0.894421 0.449504 0)
(0.89448 0.449445 0)
(0.894534 0.44936 0)
(0.894583 0.449252 0)
(0.894624 0.449127 0)
(0.894656 0.448987 0)
(0.89468 0.448837 0)
(0.894695 0.448681 0)
(0.894702 0.448524 0)
(0.894701 0.448369 0)
(0.894693 0.44822 0)
(0.89468 0.448079 0)
(0.894664 0.447949 0)
(0.894644 0.44783 0)
(0.894622 0.447724 0)
(0.894599 0.44763 0)
(0.894576 0.447549 0)
(0.894554 0.447479 0)
(0.894533 0.447421 0)
(0.894514 0.447372 0)
(0.894496 0.447332 0)
(0.89448 0.4473 0)
(0.894465 0.447274 0)
(0.894452 0.447253 0)
(0.894441 0.447237 0)
(0.894432 0.447225 0)
(0.894425 0.447216 0)
(0.894418 0.44721 0)
(0.894413 0.447205 0)
(0.894409 0.447202 0)
(0.894406 0.4472 0)
(0.894404 0.447198 0)
(0.894402 0.447198 0)
(0.894401 0.447197 0)
(0.8944 0.447197 0)
(0.8944 0.447198 0)
(0.8944 0.447198 0)
(0.894399 0.447198 0)
(0.894399 0.447199 0)
(0.894399 0.447199 0)
(0.894399 0.447199 0)
(0.8944 0.447199 0)
(0.8944 0.447199 0)
(0.8944 0.4472 0)
(0.8944 0.4472 0)
(0.8944 0.4472 0)
(0.894418 0.447205 0)
(0.894419 0.447208 0)
(0.894417 0.447213 0)
(0.894412 0.447223 0)
(0.894404 0.447238 0)
(0.89439 0.447263 0)
(0.894372 0.447297 0)
(0.894347 0.447345 0)
(0.894315 0.447409 0)
(0.894278 0.44749 0)
(0.894234 0.447591 0)
(0.894186 0.447713 0)
(0.894135 0.447857 0)
(0.894083 0.448023 0)
(0.894032 0.448209 0)
(0.893985 0.448413 0)
(0.893944 0.448631 0)
(0.893912 0.448859 0)
(0.89389 0.449093 0)
(0.893881 0.449325 0)
(0.893887 0.449551 0)
(0.893907 0.449764 0)
(0.893942 0.449958 0)
(0.89399 0.450127 0)
(0.894051 0.450267 0)
(0.894123 0.450372 0)
(0.894203 0.450441 0)
(0.894287 0.45047 0)
(0.894374 0.45046 0)
(0.89446 0.450411 0)
(0.894542 0.450324 0)
(0.894617 0.450203 0)
(0.894683 0.450052 0)
(0.894739 0.449876 0)
(0.894782 0.44968 0)
(0.894813 0.44947 0)
(0.894831 0.449252 0)
(0.894837 0.449033 0)
(0.894833 0.448817 0)
(0.89482 0.448608 0)
(0.894799 0.448412 0)
(0.894772 0.448229 0)
(0.894742 0.448064 0)
(0.894709 0.447916 0)
(0.894675 0.447786 0)
(0.894642 0.447673 0)
(0.89461 0.447577 0)
(0.89458 0.447496 0)
(0.894552 0.447429 0)
(0.894527 0.447375 0)
(0.894505 0.447331 0)
(0.894485 0.447296 0)
(0.894468 0.447269 0)
(0.894454 0.447248 0)
(0.894441 0.447232 0)
(0.894431 0.44722 0)
(0.894423 0.447211 0)
(0.894417 0.447206 0)
(0.894412 0.447201 0)
(0.894408 0.447199 0)
(0.894405 0.447197 0)
(0.894403 0.447197 0)
(0.894401 0.447196 0)
(0.8944 0.447197 0)
(0.8944 0.447197 0)
(0.894399 0.447197 0)
(0.894399 0.447198 0)
(0.894399 0.447198 0)
(0.894399 0.447198 0)
(0.894399 0.447199 0)
(0.894399 0.447199 0)
(0.8944 0.447199 0)
(0.8944 0.4472 0)
(0.8944 0.4472 0)
(0.8944 0.4472 0)
(0.894415 0.447215 0)
(0.894414 0.447222 0)
(0.894409 0.447233 0)
(0.8944 0.447252 0)
(0.894385 0.447279 0)
(0.894363 0.447319 0)
(0.894333 0.447374 0)
(0.894295 0.447448 0)
(0.89425 0.447544 0)
(0.894195 0.447665 0)
(0.894134 0.447813 0)
(0.894067 0.447989 0)
(0.893998 0.448194 0)
(0.893927 0.448427 0)
(0.89386 0.448687 0)
(0.8938 0.448968 0)
(0.893748 0.449267 0)
(0.893709 0.449578 0)
(0.893687 0.449893 0)
(0.893681 0.450205 0)
(0.893695 0.450507 0)
(0.893729 0.450789 0)
(0.893783 0.451044 0)
(0.893855 0.451265 0)
(0.893943 0.451446 0)
(0.894045 0.451581 0)
(0.894158 0.451666 0)
(0.894276 0.4517 0)
(0.894397 0.451681 0)
(0.894516 0.45161 0)
(0.894629 0.451489 0)
(0.894732 0.451323 0)
(0.894823 0.451116 0)
(0.894898 0.450875 0)
(0.894956 0.450607 0)
(0.894996 0.45032 0)
(0.895019 0.450021 0)
(0.895025 0.44972 0)
(0.895016 0.449422 0)
(0.894995 0.449135 0)
(0.894963 0.448864 0)
(0.894923 0.448612 0)
(0.894878 0.448383 0)
(0.89483 0.448179 0)
(0.894781 0.447999 0)
(0.894732 0.447844 0)
(0.894686 0.447711 0)
(0.894643 0.4476 0)
(0.894604 0.447509 0)
(0.894569 0.447434 0)
(0.894539 0.447374 0)
(0.894512 0.447327 0)
(0.894489 0.44729 0)
(0.894469 0.447262 0)
(0.894453 0.447241 0)
(0.89444 0.447226 0)
(0.894429 0.447214 0)
(0.894421 0.447207 0)
(0.894414 0.447202 0)
(0.894409 0.447198 0)
(0.894406 0.447196 0)
(0.894403 0.447195 0)
(0.894401 0.447195 0)
(0.8944 0.447195 0)
(0.894399 0.447196 0)
(0.894399 0.447196 0)
(0.894399 0.447197 0)
(0.894399 0.447197 0)
(0.894399 0.447198 0)
(0.894399 0.447198 0)
(0.894399 0.447199 0)
(0.894399 0.447199 0)
(0.894399 0.447199 0)
(0.8944 0.4472 0)
(0.8944 0.4472 0)
(0.89441 0.447231 0)
(0.894405 0.447244 0)
(0.894395 0.447264 0)
(0.894378 0.447295 0)
(0.894353 0.44734 0)
(0.894319 0.447402 0)
(0.894275 0.447487 0)
(0.894219 0.447597 0)
(0.894152 0.447739 0)
(0.894076 0.447913 0)
(0.89399 0.448124 0)
(0.893899 0.448372 0)
(0.893804 0.448658 0)
(0.893711 0.448981 0)
(0.893624 0.449336 0)
(0.893546 0.449718 0)
(0.893482 0.450121 0)
(0.893437 0.450536 0)
(0.893414 0.450955 0)
(0.893415 0.451367 0)
(0.893441 0.451761 0)
(0.893495 0.452129 0)
(0.893575 0.45246 0)
(0.893679 0.452744 0)
(0.893804 0.452975 0)
(0.893946 0.453147 0)
(0.894102 0.453253 0)
(0.894265 0.453292 0)
(0.894431 0.453263 0)
(0.894593 0.453165 0)
(0.894747 0.453003 0)
(0.894888 0.45278 0)
(0.895011 0.452504 0)
(0.895112 0.452183 0)
(0.895191 0.451824 0)
(0.895245 0.45144 0)
(0.895275 0.451039 0)
(0.895282 0.450633 0)
(0.895267 0.45023 0)
(0.895235 0.449841 0)
(0.895188 0.449471 0)
(0.89513 0.449128 0)
(0.895065 0.448815 0)
(0.894996 0.448535 0)
(0.894926 0.448289 0)
(0.894857 0.448076 0)
(0.894792 0.447894 0)
(0.894731 0.447742 0)
(0.894676 0.447617 0)
(0.894627 0.447515 0)
(0.894585 0.447434 0)
(0.894548 0.44737 0)
(0.894517 0.44732 0)
(0.89449 0.447283 0)
(0.894469 0.447254 0)
(0.894451 0.447234 0)
(0.894437 0.447219 0)
(0.894426 0.447209 0)
(0.894418 0.447202 0)
(0.894412 0.447198 0)
(0.894407 0.447195 0)
(0.894404 0.447194 0)
(0.894401 0.447194 0)
(0.8944 0.447194 0)
(0.894399 0.447195 0)
(0.894398 0.447195 0)
(0.894398 0.447196 0)
(0.894398 0.447197 0)
(0.894398 0.447197 0)
(0.894399 0.447198 0)
(0.894399 0.447198 0)
(0.894399 0.447199 0)
(0.894399 0.447199 0)
(0.894399 0.447199 0)
(0.8944 0.4472 0)
(0.8944 0.447254 0)
(0.894389 0.447276 0)
(0.89437 0.447309 0)
(0.894343 0.447358 0)
(0.894304 0.447428 0)
(0.894252 0.447521 0)
(0.894186 0.447646 0)
(0.894106 0.447807 0)
(0.894012 0.448009 0)
(0.893905 0.448255 0)
(0.893788 0.44855 0)
(0.893665 0.448894 0)
(0.893539 0.449285 0)
(0.893416 0.449722 0)
(0.893303 0.450199 0)
(0.893205 0.450709 0)
(0.893128 0.451241 0)
(0.893076 0.451786 0)
(0.893054 0.452332 0)
(0.893066 0.452865 0)
(0.893111 0.453373 0)
(0.893192 0.453843 0)
(0.893307 0.454263 0)
(0.893452 0.454623 0)
(0.893625 0.454914 0)
(0.89382 0.455128 0)
(0.894031 0.45526 0)
(0.894252 0.455306 0)
(0.894475 0.455265 0)
(0.894694 0.455137 0)
(0.894902 0.454926 0)
(0.895091 0.454638 0)
(0.895257 0.45428 0)
(0.895395 0.453862 0)
(0.895502 0.453395 0)
(0.895576 0.452891 0)
(0.895616 0.452364 0)
(0.895625 0.451826 0)
(0.895604 0.451292 0)
(0.895559 0.450772 0)
(0.895493 0.450277 0)
(0.895411 0.449816 0)
(0.89532 0.449394 0)
(0.895222 0.449014 0)
(0.895124 0.44868 0)
(0.895027 0.44839 0)
(0.894936 0.448143 0)
(0.894851 0.447936 0)
(0.894774 0.447765 0)
(0.894706 0.447627 0)
(0.894647 0.447516 0)
(0.894597 0.447429 0)
(0.894554 0.447362 0)
(0.894519 0.447311 0)
(0.89449 0.447273 0)
(0.894467 0.447245 0)
(0.894448 0.447225 0)
(0.894434 0.447212 0)
(0.894423 0.447203 0)
(0.894414 0.447197 0)
(0.894408 0.447194 0)
(0.894404 0.447192 0)
(0.894401 0.447192 0)
(0.894399 0.447192 0)
(0.894398 0.447193 0)
(0.894398 0.447194 0)
(0.894398 0.447195 0)
(0.894398 0.447196 0)
(0.894398 0.447197 0)
(0.894398 0.447197 0)
(0.894399 0.447198 0)
(0.894399 0.447198 0)
(0.894399 0.447199 0)
(0.894399 0.447199 0)
(0.894399 0.447199 0)
(0.894383 0.447286 0)
(0.894363 0.447322 0)
(0.894333 0.447374 0)
(0.894289 0.447448 0)
(0.894231 0.447551 0)
(0.894154 0.447689 0)
(0.894059 0.447868 0)
(0.893946 0.448096 0)
(0.893815 0.448379 0)
(0.893668 0.448721 0)
(0.893509 0.449124 0)
(0.893344 0.44959 0)
(0.893179 0.450116 0)
(0.89302 0.450697 0)
(0.892877 0.451326 0)
(0.892755 0.451992 0)
(0.892663 0.452683 0)
(0.892607 0.453384 0)
(0.89259 0.45408 0)
(0.892617 0.454756 0)
(0.89269 0.455395 0)
(0.892806 0.455983 0)
(0.892967 0.456505 0)
(0.893166 0.456951 0)
(0.893399 0.457309 0)
(0.89366 0.457571 0)
(0.893941 0.457731 0)
(0.894234 0.457786 0)
(0.89453 0.457732 0)
(0.89482 0.457572 0)
(0.895096 0.457308 0)
(0.895349 0.456947 0)
(0.895571 0.456497 0)
(0.895757 0.455969 0)
(0.895902 0.455375 0)
(0.896003 0.454731 0)
(0.89606 0.454053 0)
(0.896074 0.453358 0)
(0.896048 0.452662 0)
(0.895988 0.451981 0)
(0.895899 0.45133 0)
(0.895788 0.450718 0)
(0.895662 0.450156 0)
(0.895528 0.449649 0)
(0.895391 0.4492 0)
(0.895258 0.44881 0)
(0.895131 0.448477 0)
(0.895013 0.448197 0)
(0.894907 0.447966 0)
(0.894814 0.447778 0)
(0.894733 0.447628 0)
(0.894663 0.44751 0)
(0.894605 0.44742 0)
(0.894557 0.44735 0)
(0.894518 0.447299 0)
(0.894487 0.447262 0)
(0.894462 0.447235 0)
(0.894443 0.447217 0)
(0.894429 0.447205 0)
(0.894418 0.447197 0)
(0.89441 0.447193 0)
(0.894405 0.447191 0)
(0.894401 0.44719 0)
(0.894399 0.44719 0)
(0.894398 0.447191 0)
(0.894397 0.447192 0)
(0.894397 0.447194 0)
(0.894397 0.447195 0)
(0.894397 0.447196 0)
(0.894398 0.447197 0)
(0.894398 0.447197 0)
(0.894398 0.447198 0)
(0.894399 0.447199 0)
(0.894399 0.447199 0)
(0.894399 0.447199 0)
(0.894355 0.447332 0)
(0.894323 0.447387 0)
(0.894275 0.447465 0)
(0.89421 0.447574 0)
(0.894123 0.447723 0)
(0.894014 0.447918 0)
(0.89388 0.44817 0)
(0.893722 0.448487 0)
(0.893542 0.448875 0)
(0.893343 0.449339 0)
(0.893132 0.449881 0)
(0.892915 0.450501 0)
(0.892701 0.451195 0)
(0.8925 0.451954 0)
(0.892321 0.452766 0)
(0.892174 0.453619 0)
(0.892068 0.454495 0)
(0.892009 0.455376 0)
(0.892003 0.456243 0)
(0.892054 0.457078 0)
(0.892162 0.457862 0)
(0.892326 0.458578 0)
(0.892545 0.45921 0)
(0.892811 0.459747 0)
(0.893119 0.460177 0)
(0.893461 0.46049 0)
(0.893827 0.460681 0)
(0.894208 0.460746 0)
(0.894593 0.460682 0)
(0.894971 0.46049 0)
(0.895331 0.460173 0)
(0.895663 0.459736 0)
(0.895957 0.459188 0)
(0.896206 0.458542 0)
(0.896402 0.45781 0)
(0.896543 0.45701 0)
(0.896625 0.456161 0)
(0.89665 0.455282 0)
(0.896622 0.454396 0)
(0.896546 0.453523 0)
(0.89643 0.45268 0)
(0.896283 0.451884 0)
(0.896115 0.451148 0)
(0.895934 0.45048 0)
(0.895749 0.449885 0)
(0.895567 0.449366 0)
(0.895393 0.448921 0)
(0.895232 0.448546 0)
(0.895087 0.448235 0)
(0.894959 0.447983 0)
(0.894848 0.44778 0)
(0.894753 0.447621 0)
(0.894674 0.447499 0)
(0.894609 0.447405 0)
(0.894556 0.447336 0)
(0.894515 0.447285 0)
(0.894482 0.447249 0)
(0.894457 0.447225 0)
(0.894437 0.447208 0)
(0.894423 0.447198 0)
(0.894413 0.447192 0)
(0.894406 0.447189 0)
(0.894401 0.447188 0)
(0.894399 0.447188 0)
(0.894397 0.447189 0)
(0.894396 0.44719 0)
(0.894396 0.447192 0)
(0.894396 0.447193 0)
(0.894397 0.447195 0)
(0.894397 0.447196 0)
(0.894398 0.447197 0)
(0.894398 0.447198 0)
(0.894398 0.447198 0)
(0.894399 0.447199 0)
(0.894399 0.447199 0)
(0.894313 0.447395 0)
(0.894263 0.447476 0)
(0.894192 0.44759 0)
(0.894096 0.447746 0)
(0.893972 0.447956 0)
(0.893817 0.448228 0)
(0.893631 0.448575 0)
(0.893415 0.449006 0)
(0.893173 0.449529 0)
(0.892908 0.450147 0)
(0.892631 0.450863 0)
(0.892351 0.451672 0)
(0.892079 0.452567 0)
(0.891829 0.453537 0)
(0.891611 0.454565 0)
(0.891438 0.455631 0)
(0.89132 0.456715 0)
(0.891265 0.457793 0)
(0.891279 0.458844 0)
(0.891363 0.459846 0)
(0.891519 0.460779 0)
(0.891744 0.461623 0)
(0.892034 0.462365 0)
(0.892382 0.46299 0)
(0.892779 0.463488 0)
(0.893217 0.463851 0)
(0.893683 0.464073 0)
(0.894167 0.464149 0)
(0.894657 0.464078 0)
(0.895139 0.463859 0)
(0.8956 0.463494 0)
(0.896029 0.462988 0)
(0.896414 0.462348 0)
(0.896743 0.461585 0)
(0.897008 0.460714 0)
(0.897202 0.459752 0)
(0.897323 0.458719 0)
(0.897369 0.457641 0)
(0.897345 0.456541 0)
(0.897256 0.455446 0)
(0.897112 0.454379 0)
(0.896924 0.453362 0)
(0.896705 0.452414 0)
(0.896467 0.451548 0)
(0.89622 0.450772 0)
(0.895976 0.450091 0)
(0.895742 0.449503 0)
(0.895525 0.449006 0)
(0.895328 0.448593 0)
(0.895154 0.448255 0)
(0.895002 0.447985 0)
(0.894874 0.447771 0)
(0.894767 0.447606 0)
(0.894679 0.447481 0)
(0.894608 0.447387 0)
(0.894552 0.447319 0)
(0.894508 0.44727 0)
(0.894474 0.447237 0)
(0.894449 0.447214 0)
(0.89443 0.4472 0)
(0.894417 0.447191 0)
(0.894408 0.447187 0)
(0.894402 0.447185 0)
(0.894398 0.447185 0)
(0.894396 0.447187 0)
(0.894395 0.447188 0)
(0.894395 0.44719 0)
(0.894395 0.447192 0)
(0.894395 0.447193 0)
(0.894396 0.447195 0)
(0.894397 0.447196 0)
(0.894397 0.447197 0)
(0.894398 0.447198 0)
(0.894398 0.447198 0)
(0.894399 0.447199 0)
(0.894252 0.447482 0)
(0.894176 0.447598 0)
(0.894072 0.447759 0)
(0.893935 0.447978 0)
(0.893761 0.448266 0)
(0.893547 0.448639 0)
(0.893294 0.449108 0)
(0.893003 0.449684 0)
(0.892681 0.450375 0)
(0.892336 0.451184 0)
(0.891979 0.45211 0)
(0.891624 0.453144 0)
(0.891286 0.454276 0)
(0.890982 0.455487 0)
(0.890725 0.456754 0)
(0.890529 0.458052 0)
(0.890407 0.459355 0)
(0.890365 0.460636 0)
(0.89041 0.461869 0)
(0.890542 0.46303 0)
(0.890759 0.464099 0)
(0.891059 0.465058 0)
(0.891435 0.465893 0)
(0.891878 0.466592 0)
(0.892377 0.467146 0)
(0.892923 0.46755 0)
(0.893503 0.467798 0)
(0.894103 0.467887 0)
(0.894711 0.467814 0)
(0.895311 0.467578 0)
(0.895891 0.46718 0)
(0.896434 0.466622 0)
(0.896928 0.465909 0)
(0.897358 0.465049 0)
(0.897711 0.464053 0)
(0.89798 0.46294 0)
(0.898157 0.461729 0)
(0.898241 0.460447 0)
(0.898232 0.459122 0)
(0.898137 0.457786 0)
(0.897968 0.456468 0)
(0.897737 0.455199 0)
(0.89746 0.454002 0)
(0.897153 0.452899 0)
(0.896832 0.451903 0)
(0.896511 0.451021 0)
(0.896201 0.450256 0)
(0.895911 0.449605 0)
(0.895647 0.449062 0)
(0.895413 0.448616 0)
(0.895209 0.448256 0)
(0.895036 0.447972 0)
(0.894891 0.447752 0)
(0.894773 0.447584 0)
(0.894678 0.447458 0)
(0.894602 0.447366 0)
(0.894543 0.4473 0)
(0.894499 0.447254 0)
(0.894465 0.447224 0)
(0.89444 0.447204 0)
(0.894423 0.447192 0)
(0.894411 0.447186 0)
(0.894403 0.447183 0)
(0.894398 0.447183 0)
(0.894395 0.447184 0)
(0.894394 0.447186 0)
(0.894393 0.447188 0)
(0.894394 0.44719 0)
(0.894394 0.447192 0)
(0.894395 0.447194 0)
(0.894396 0.447195 0)
(0.894397 0.447196 0)
(0.894397 0.447197 0)
(0.894398 0.447198 0)
(0.894398 0.447198 0)
(0.894165 0.447597 0)
(0.894054 0.44776 0)
(0.893906 0.447983 0)
(0.893714 0.448283 0)
(0.893473 0.448675 0)
(0.893183 0.449175 0)
(0.892844 0.449798 0)
(0.89246 0.450555 0)
(0.89204 0.451451 0)
(0.891597 0.452488 0)
(0.891147 0.453661 0)
(0.890708 0.454956 0)
(0.890299 0.456351 0)
(0.889939 0.457823 0)
(0.889648 0.459341 0)
(0.889439 0.460873 0)
(0.889323 0.462388 0)
(0.88931 0.463854 0)
(0.889402 0.465244 0)
(0.889597 0.466535 0)
(0.889892 0.467707 0)
(0.890282 0.468745 0)
(0.890756 0.469639 0)
(0.891304 0.470382 0)
(0.891915 0.470969 0)
(0.892577 0.471395 0)
(0.893277 0.471659 0)
(0.894002 0.471759 0)
(0.894737 0.471693 0)
(0.895466 0.471458 0)
(0.896176 0.471052 0)
(0.89685 0.470474 0)
(0.897471 0.469724 0)
(0.898023 0.468805 0)
(0.898489 0.467725 0)
(0.898857 0.466496 0)
(0.899116 0.465136 0)
(0.899259 0.46367 0)
(0.899286 0.46213 0)
(0.899201 0.460551 0)
(0.899015 0.45897 0)
(0.898743 0.457425 0)
(0.898406 0.45595 0)
(0.898023 0.454573 0)
(0.897615 0.453317 0)
(0.8972 0.452196 0)
(0.896796 0.451215 0)
(0.896415 0.450374 0)
(0.896066 0.449667 0)
(0.895754 0.449084 0)
(0.895483 0.448612 0)
(0.895251 0.448237 0)
(0.895057 0.447945 0)
(0.894899 0.447722 0)
(0.894771 0.447554 0)
(0.89467 0.447431 0)
(0.894591 0.447342 0)
(0.894532 0.447281 0)
(0.894487 0.447239 0)
(0.894454 0.447212 0)
(0.894431 0.447195 0)
(0.894415 0.447186 0)
(0.894404 0.447181 0)
(0.894398 0.44718 0)
(0.894394 0.447181 0)
(0.894392 0.447183 0)
(0.894392 0.447185 0)
(0.894392 0.447188 0)
(0.894393 0.44719 0)
(0.894394 0.447192 0)
(0.894395 0.447194 0)
(0.894396 0.447195 0)
(0.894397 0.447197 0)
(0.894397 0.447197 0)
(0.894398 0.447198 0)
(0.894043 0.44775 0)
(0.893886 0.447974 0)
(0.893679 0.448278 0)
(0.893415 0.448682 0)
(0.893089 0.449204 0)
(0.892701 0.449863 0)
(0.892254 0.450675 0)
(0.891756 0.451651 0)
(0.891219 0.452792 0)
(0.890663 0.454095 0)
(0.890108 0.455547 0)
(0.889579 0.457126 0)
(0.889099 0.458801 0)
(0.888692 0.460537 0)
(0.888378 0.462296 0)
(0.888172 0.464039 0)
(0.888083 0.46573 0)
(0.888118 0.467335 0)
(0.888277 0.468829 0)
(0.888554 0.470191 0)
(0.888943 0.471405 0)
(0.889434 0.472464 0)
(0.890015 0.473363 0)
(0.890674 0.474102 0)
(0.8914 0.474682 0)
(0.892179 0.475103 0)
(0.892998 0.475368 0)
(0.893846 0.475476 0)
(0.894709 0.475426 0)
(0.89557 0.475214 0)
(0.896417 0.474835 0)
(0.897231 0.474283 0)
(0.897995 0.473551 0)
(0.898689 0.472637 0)
(0.899293 0.471537 0)
(0.89979 0.470257 0)
(0.900161 0.46881 0)
(0.900396 0.467214 0)
(0.900488 0.4655 0)
(0.900439 0.463705 0)
(0.900256 0.461873 0)
(0.899957 0.460049 0)
(0.899563 0.458278 0)
(0.8991 0.456601 0)
(0.898595 0.455051 0)
(0.898072 0.45365 0)
(0.897555 0.452413 0)
(0.897063 0.451343 0)
(0.896608 0.450437 0)
(0.896199 0.449685 0)
(0.895841 0.449072 0)
(0.895534 0.448583 0)
(0.895277 0.448199 0)
(0.895065 0.447905 0)
(0.894895 0.447683 0)
(0.89476 0.447519 0)
(0.894656 0.447401 0)
(0.894576 0.447318 0)
(0.894517 0.447261 0)
(0.894473 0.447224 0)
(0.894442 0.4472 0)
(0.894421 0.447187 0)
(0.894407 0.44718 0)
(0.894398 0.447178 0)
(0.894393 0.447178 0)
(0.89439 0.44718 0)
(0.89439 0.447182 0)
(0.89439 0.447185 0)
(0.894391 0.447188 0)
(0.894392 0.44719 0)
(0.894393 0.447193 0)
(0.894395 0.447194 0)
(0.894396 0.447196 0)
(0.894397 0.447197 0)
(0.894398 0.447198 0)
(0.893876 0.44795 0)
(0.893657 0.448253 0)
(0.893374 0.448659 0)
(0.893017 0.449193 0)
(0.892584 0.449878 0)
(0.892074 0.450732 0)
(0.891496 0.451772 0)
(0.890861 0.453005 0)
(0.890189 0.454428 0)
(0.889507 0.456027 0)
(0.888843 0.45778 0)
(0.888226 0.459652 0)
(0.887685 0.461598 0)
(0.887248 0.463574 0)
(0.886934 0.465533 0)
(0.886756 0.467429 0)
(0.886721 0.469225 0)
(0.88683 0.470889 0)
(0.887078 0.472399 0)
(0.887456 0.473742 0)
(0.887951 0.474913 0)
(0.888551 0.475911 0)
(0.889241 0.476742 0)
(0.890008 0.477414 0)
(0.890841 0.477937 0)
(0.891726 0.478318 0)
(0.892654 0.478561 0)
(0.893613 0.478672 0)
(0.894593 0.478649 0)
(0.895579 0.478487 0)
(0.896559 0.478177 0)
(0.897516 0.477707 0)
(0.898431 0.477065 0)
(0.899283 0.476236 0)
(0.90005 0.475209 0)
(0.900705 0.473976 0)
(0.901227 0.472536 0)
(0.901595 0.470902 0)
(0.901794 0.469094 0)
(0.901819 0.46715 0)
(0.901674 0.465112 0)
(0.901372 0.463037 0)
(0.900938 0.460979 0)
(0.900402 0.458993 0)
(0.899796 0.457125 0)
(0.899155 0.455414 0)
(0.898509 0.453883 0)
(0.897884 0.452544 0)
(0.8973 0.4514 0)
(0.896771 0.450443 0)
(0.896304 0.449657 0)
(0.895902 0.449026 0)
(0.895564 0.448528 0)
(0.895285 0.448144 0)
(0.895059 0.447853 0)
(0.894881 0.447637 0)
(0.894742 0.44748 0)
(0.894636 0.447369 0)
(0.894557 0.447293 0)
(0.894499 0.447242 0)
(0.894458 0.44721 0)
(0.89443 0.44719 0)
(0.894411 0.44718 0)
(0.894399 0.447176 0)
(0.894392 0.447175 0)
(0.894389 0.447177 0)
(0.894388 0.447179 0)
(0.894388 0.447183 0)
(0.894389 0.447186 0)
(0.89439 0.447189 0)
(0.894392 0.447191 0)
(0.894393 0.447193 0)
(0.894395 0.447195 0)
(0.894396 0.447196 0)
(0.894397 0.447197 0)
(0.893651 0.448207 0)
(0.893352 0.448609 0)
(0.892971 0.449145 0)
(0.892497 0.449841 0)
(0.89193 0.450722 0)
(0.891272 0.45181 0)
(0.890538 0.453116 0)
(0.889747 0.454643 0)
(0.888927 0.456377 0)
(0.888114 0.45829 0)
(0.887344 0.460344 0)
(0.886654 0.462489 0)
(0.886076 0.464667 0)
(0.885639 0.466822 0)
(0.885358 0.468898 0)
(0.885244 0.47085 0)
(0.885296 0.47264 0)
(0.885508 0.474247 0)
(0.885868 0.475656 0)
(0.88636 0.476867 0)
(0.886968 0.477886 0)
(0.887675 0.478726 0)
(0.888465 0.479405 0)
(0.889325 0.479941 0)
(0.890245 0.480351 0)
(0.891215 0.480652 0)
(0.892227 0.480852 0)
(0.893273 0.480959 0)
(0.894347 0.480971 0)
(0.895438 0.480885 0)
(0.896536 0.480687 0)
(0.897627 0.480361 0)
(0.898693 0.479886 0)
(0.899712 0.479237 0)
(0.900658 0.47839 0)
(0.901502 0.477322 0)
(0.902213 0.476019 0)
(0.902761 0.474474 0)
(0.90312 0.472696 0)
(0.903274 0.470711 0)
(0.903218 0.468561 0)
(0.902958 0.466302 0)
(0.902518 0.464 0)
(0.901929 0.461724 0)
(0.901232 0.459539 0)
(0.900469 0.4575 0)
(0.899681 0.455646 0)
(0.898905 0.454004 0)
(0.89817 0.452584 0)
(0.897496 0.451383 0)
(0.896896 0.45039 0)
(0.896375 0.449586 0)
(0.895935 0.448948 0)
(0.89557 0.448452 0)
(0.895274 0.448073 0)
(0.895039 0.447791 0)
(0.894856 0.447585 0)
(0.894716 0.447438 0)
(0.894612 0.447336 0)
(0.894535 0.447268 0)
(0.894481 0.447224 0)
(0.894443 0.447197 0)
(0.894418 0.447182 0)
(0.894402 0.447175 0)
(0.894392 0.447173 0)
(0.894387 0.447174 0)
(0.894385 0.447176 0)
(0.894385 0.44718 0)
(0.894386 0.447183 0)
(0.894388 0.447186 0)
(0.89439 0.447189 0)
(0.894392 0.447192 0)
(0.894393 0.447194 0)
(0.894395 0.447196 0)
(0.894396 0.447197 0)
(0.893353 0.448535 0)
(0.892952 0.44906 0)
(0.892447 0.449754 0)
(0.891829 0.450646 0)
(0.891098 0.451763 0)
(0.890266 0.453123 0)
(0.889353 0.454732 0)
(0.88839 0.456578 0)
(0.887418 0.458635 0)
(0.886481 0.460856 0)
(0.885626 0.463182 0)
(0.884893 0.465543 0)
(0.884318 0.467871 0)
(0.883925 0.470098 0)
(0.883723 0.472168 0)
(0.883715 0.474039 0)
(0.88389 0.475683 0)
(0.884232 0.477089 0)
(0.88472 0.478261 0)
(0.885333 0.479212 0)
(0.886048 0.479965 0)
(0.886847 0.480549 0)
(0.887715 0.480993 0)
(0.88864 0.481326 0)
(0.889613 0.481573 0)
(0.890631 0.481758 0)
(0.89169 0.481893 0)
(0.892786 0.481989 0)
(0.893919 0.482045 0)
(0.895084 0.482056 0)
(0.896274 0.482008 0)
(0.897479 0.481879 0)
(0.898683 0.481641 0)
(0.899866 0.481261 0)
(0.901001 0.480703 0)
(0.902056 0.479929 0)
(0.902992 0.478905 0)
(0.903769 0.477603 0)
(0.904349 0.476013 0)
(0.904699 0.47414 0)
(0.9048 0.472015 0)
(0.904648 0.46969 0)
(0.904256 0.467234 0)
(0.903657 0.464729 0)
(0.902895 0.462258 0)
(0.902023 0.459898 0)
(0.901092 0.457709 0)
(0.900152 0.455738 0)
(0.899245 0.454009 0)
(0.898401 0.452529 0)
(0.897641 0.451293 0)
(0.896976 0.450282 0)
(0.896409 0.449474 0)
(0.895937 0.448841 0)
(0.895552 0.448356 0)
(0.895245 0.447991 0)
(0.895006 0.447723 0)
(0.894822 0.447531 0)
(0.894685 0.447396 0)
(0.894584 0.447305 0)
(0.894512 0.447245 0)
(0.894461 0.447208 0)
(0.894428 0.447186 0)
(0.894406 0.447175 0)
(0.894393 0.447171 0)
(0.894386 0.447171 0)
(0.894383 0.447173 0)
(0.894383 0.447177 0)
(0.894384 0.447181 0)
(0.894386 0.447184 0)
(0.894388 0.447187 0)
(0.89439 0.44719 0)
(0.894392 0.447193 0)
(0.894394 0.447195 0)
(0.894395 0.447196 0)
(0.892964 0.448946 0)
(0.892435 0.449622 0)
(0.891776 0.450507 0)
(0.890982 0.451632 0)
(0.89006 0.453022 0)
(0.889028 0.454689 0)
(0.887919 0.456626 0)
(0.886781 0.458802 0)
(0.885666 0.461169 0)
(0.884631 0.463656 0)
(0.883729 0.466182 0)
(0.883005 0.468659 0)
(0.88249 0.471008 0)
(0.882197 0.473161 0)
(0.882127 0.475064 0)
(0.882269 0.476689 0)
(0.882599 0.478025 0)
(0.883088 0.47908 0)
(0.883708 0.479876 0)
(0.884431 0.480448 0)
(0.885232 0.480834 0)
(0.886092 0.481077 0)
(0.886999 0.48122 0)
(0.887944 0.4813 0)
(0.888925 0.481349 0)
(0.889942 0.481393 0)
(0.891 0.481451 0)
(0.892101 0.481532 0)
(0.89325 0.481638 0)
(0.894449 0.481761 0)
(0.895696 0.481888 0)
(0.896985 0.481993 0)
(0.898305 0.482044 0)
(0.899638 0.482003 0)
(0.900958 0.481823 0)
(0.902233 0.481453 0)
(0.90342 0.480842 0)
(0.90447 0.47994 0)
(0.90533 0.478709 0)
(0.905951 0.47713 0)
(0.906293 0.475208 0)
(0.906333 0.47298 0)
(0.906071 0.47051 0)
(0.90553 0.467884 0)
(0.904755 0.465202 0)
(0.903804 0.462562 0)
(0.902744 0.460054 0)
(0.90164 0.457746 0)
(0.900547 0.455686 0)
(0.899511 0.453897 0)
(0.898566 0.452383 0)
(0.897728 0.451133 0)
(0.897008 0.450124 0)
(0.896403 0.449328 0)
(0.895908 0.448712 0)
(0.895511 0.448246 0)
(0.8952 0.447901 0)
(0.894961 0.447652 0)
(0.894781 0.447476 0)
(0.894648 0.447355 0)
(0.894553 0.447275 0)
(0.894487 0.447225 0)
(0.894442 0.447194 0)
(0.894413 0.447178 0)
(0.894395 0.447171 0)
(0.894386 0.447169 0)
(0.894381 0.44717 0)
(0.89438 0.447174 0)
(0.894381 0.447178 0)
(0.894383 0.447182 0)
(0.894385 0.447185 0)
(0.894388 0.447189 0)
(0.89439 0.447191 0)
(0.894392 0.447194 0)
(0.894394 0.447195 0)
(0.892464 0.449455 0)
(0.891777 0.450314 0)
(0.890932 0.451424 0)
(0.88993 0.452819 0)
(0.888788 0.454516 0)
(0.887538 0.456514 0)
(0.88623 0.458786 0)
(0.884928 0.461275 0)
(0.883702 0.463902 0)
(0.882617 0.466571 0)
(0.881731 0.469178 0)
(0.881084 0.471624 0)
(0.880696 0.473827 0)
(0.880568 0.475724 0)
(0.880682 0.477281 0)
(0.881009 0.478488 0)
(0.881511 0.47936 0)
(0.882148 0.479926 0)
(0.882884 0.480232 0)
(0.883687 0.480332 0)
(0.884533 0.480281 0)
(0.885404 0.480132 0)
(0.886294 0.479938 0)
(0.887202 0.479741 0)
(0.888132 0.479579 0)
(0.889091 0.479477 0)
(0.890093 0.479457 0)
(0.891148 0.479527 0)
(0.892266 0.479688 0)
(0.893456 0.479932 0)
(0.89472 0.480243 0)
(0.896059 0.480598 0)
(0.897466 0.480962 0)
(0.898926 0.481294 0)
(0.900418 0.481543 0)
(0.901909 0.48165 0)
(0.903358 0.48155 0)
(0.904709 0.481176 0)
(0.9059 0.480461 0)
(0.906862 0.479356 0)
(0.907534 0.477833 0)
(0.907867 0.475899 0)
(0.907837 0.473598 0)
(0.90745 0.47101 0)
(0.906742 0.46824 0)
(0.905774 0.465408 0)
(0.904622 0.46263 0)
(0.903368 0.460005 0)
(0.902088 0.457611 0)
(0.900847 0.455494 0)
(0.899692 0.453675 0)
(0.898655 0.452154 0)
(0.897753 0.450913 0)
(0.896989 0.449924 0)
(0.896359 0.449153 0)
(0.89585 0.448565 0)
(0.895449 0.448127 0)
(0.89514 0.447807 0)
(0.894906 0.44758 0)
(0.894734 0.447422 0)
(0.894609 0.447317 0)
(0.894522 0.447249 0)
(0.894463 0.447207 0)
(0.894424 0.447183 0)
(0.8944 0.447172 0)
(0.894386 0.447168 0)
(0.894379 0.447168 0)
(0.894377 0.447171 0)
(0.894378 0.447175 0)
(0.89438 0.447179 0)
(0.894383 0.447183 0)
(0.894386 0.447187 0)
(0.894388 0.44719 0)
(0.894391 0.447193 0)
(0.894393 0.447195 0)
(0.89183 0.450076 0)