/*--------------------------------*- C++ -*----------------------------------*\
  =========                 |
  \\      /  F ield         | OpenFOAM: The Open Source CFD Toolbox
   \\    /   O peration     | Website:  https://openfoam.org
    \\  /    A nd           | Version:  6
     \\/     M anipulation  |
\*---------------------------------------------------------------------------*/
FoamFile
{
    version     2.0;
    format      ascii;
    class       surfaceScalarField;
    location    "9.3e-05";
    object      phi;
}
// * * * * * * * * * * * * * * * * * * * * * * * * * * * * * * * * * * * * * //

dimensions      [0 3 -1 0 0 0 0];

internalField   nonuniform List<scalar> 
4070
(
0.0994184
-0.0611269
0.0667816
-0.105073
-0.0712505
0.0630682
-0.0820625
0.0902448
-0.0925473
0.100748
-0.00820031
-0.0842744
0.114414
-0.0301399
-0.161163
0.0932157
0.0679469
-0.000271453
-0.070518
0.0707894
-0.0975623
0.115078
-0.0175153
0.0730701
0.030125
-0.103195
-0.0317402
0.10481
0.0644322
0.0362663
-0.100699
0.105941
-0.0415087
-0.0581019
-0.0348784
0.0929802
-0.211276
0.0501137
-0.0829997
0.113967
-0.0309674
-0.028768
0.0284966
0.0638941
0.0379786
-0.101873
0.0266706
-0.110945
-0.145202
0.0476393
-0.0865178
-0.0228791
0.109397
0.100903
-0.00443691
-0.0964665
-0.0317017
0.0955957
0.0474469
-0.105549
-0.0695387
0.100145
-0.0306063
-0.0135856
0.114489
-0.0571688
-0.029349
0.0311259
-0.114126
-0.0812504
0.0117116
0.0902166
-0.0204154
-0.0698011
0.0953485
-5.28572e-05
-0.0952956
-0.0501035
0.14032
0.0280543
0.0672942
0.0849798
0.0252597
0.00262525
-0.112865
0.0753038
0.026561
-0.00866685
-0.093198
-0.000959096
0.0327739
-0.00376044
-0.0614389
-0.0296059
0.0910448
-0.105836
0.128065
-0.0222285
0.0311652
-0.0926041
-0.114168
0.0275811
0.0865866
-0.0308556
-0.0833121
-0.0801109
-0.0124364
0.0612765
0.0265878
-0.0878643
-0.124918
0.0190818
0.0802985
0.0109593
-0.0912578
-0.0208717
0.0821482
-0.0238306
0.104129
-0.0435254
0.0732603
-0.029735
-0.0691462
0.0256209
-0.082167
-0.0107774
0.0929443
0.0178673
-0.100034
-0.109482
0.131657
-0.0221746
0.0909713
-0.0114938
-0.0794776
0.0601411
0.0248218
-0.0849629
0.0153202
0.0595586
-0.0748788
0.00861513
0.0823562
-0.0794304
-0.0300519
-0.0979009
-0.0159588
0.11386
-0.068186
0.0879123
-0.0197263
-0.0779086
0.0932288
0.0230276
-0.120928
-0.0272321
0.0873732
-0.089837
0.021651
-0.0711016
0.111323
-0.0402213
0.0748375
0.031934
-0.106772
0.0866076
-0.0885776
0.00196996
-0.123137
0.107043
0.0160935
-0.123448
0.0265769
0.096871
-0.110751
-0.0123861
0.11273
-0.0224223
-0.0903076
-0.0892821
0.0181805
0.0254659
0.087264
-0.071164
-0.0193013
0.0904653
0.0199538
-0.0911178
-0.0842057
-0.0146059
0.0988117
0.0433175
-0.127523
-0.132237
0.0160948
0.116143
0.125736
-0.0942929
-0.031443
-0.112401
0.0947376
0.0176636
-0.108814
-0.00358709
0.0990142
0.0267216
-0.0811975
0.12137
-0.0401721
-0.131305
0.050107
0.0749406
-0.105334
0.0303937
0.106699
-0.0317583
-0.130577
0.138982
-0.00840535
-0.0288446
0.103682
-0.0690916
0.114834
-0.045742
0.0302502
0.0278913
-0.0581415
-0.0417893
-0.090448
-0.0818774
-0.0038538
0.0857312
-0.0357364
-0.0877115
-0.120743
0.094171
0.0265722
-0.0729231
-0.0425908
0.115514
-0.0759972
0.0979691
-0.021972
0.124915
-0.0306533
-0.094262
0.0809905
0.00561716
-0.0663186
-0.0178274
0.084146
-0.0922936
0.0232021
-0.0864329
-0.0343103
-0.0745771
-0.0315276
0.106105
0.126655
-0.0852583
-0.0413968
-0.117616
0.0983002
0.0193158
0.123709
-0.0330774
-0.0906313
0.118522
-0.076583
-0.0419391
-0.110387
0.03439
0.082055
-0.1008
0.0187453
0.0773814
0.0257915
-0.103173
0.0186611
0.0259331
-0.10051
0.0244755
-0.0973985
-0.0693774
0.103711
-0.0343333
0.074338
-0.102187
0.0278494
0.0678668
-0.108256
0.040389
-0.013961
0.0913423
0.0929013
0.0337538
-0.0855097
-0.0321063
0.076032
-0.0959653
0.0199333
0.0666004
-0.0949264
0.028326
0.026624
0.0970847
0.103165
-0.0271325
0.120571
-0.0208924
-0.0996784
0.0734407
-0.09545
0.0220094
-0.0676734
-0.00775266
0.0754261
0.0937386
-0.0258718
0.0930124
0.0255098
0.00176426
-0.0836417
0.0830196
-0.0527694
0.00763042
0.0983147
-0.0239767
-0.122203
0.0949976
0.0272051
-0.0911209
-0.0310817
0.112909
-0.0690701
-0.0438388
0.0549538
0.0699616
-0.130115
0.115828
0.0142866
0.125707
-0.0228937
-0.102813
0.0940569
-0.012002
-0.140381
0.00980388
0.12314
-0.0253268
-0.0978136
-0.11109
0.0417124
0.0362464
0.0843244
0.119347
-0.0459064
0.122557
-0.0173781
-0.105179
0.0684213
0.0444876
-0.121989
0.0213095
0.100679
0.019604
0.106103
-0.0919095
-0.0300791
0.0906557
-0.0240553
0.0285288
0.0940284
-0.0958144
-0.0343003
0.122789
-0.00990151
-0.112887
0.0250353
0.0981051
0.0632657
0.0911337
-0.154399
-0.127277
0.0244492
0.102827
-0.0788915
-0.0191353
0.0980269
0.0210774
0.101711
-0.0171808
-0.110096
0.028244
-0.107136
0.224144
-0.160879
-0.0209713
0.0284037
-0.0095978
0.0284062
0.134086
0.0566482
-0.0996005
0.208343
0.149887
-0.0388532
0.0378412
-0.0498947
0.071116
-0.0212213
0.0199441
-0.0222239
0.00227983
0.00860436
0.0298072
-0.0384115
-0.0603386
-0.165827
0.226166
0.0246212
0.100894
-0.125515
0.10782
0.0266513
-0.134472
0.0176529
-0.00168103
-0.0159718
-0.0300299
-0.100148
0.130177
0.0269351
-0.126524
0.0995884
-0.050808
-0.139733
0.190541
0.100882
-0.0422365
-0.0586459
0.0193061
0.101925
-0.121231
-0.0399625
-0.145477
0.185439
-0.128965
-0.0727832
0.201748
0.0940047
-0.117769
0.0237638
0.105379
-0.011374
-0.143899
0.0954979
0.0484007
-0.106585
-0.0373141
0.0804962
-0.108191
0.0276944
0.103733
-0.0232373
0.027847
-0.0673489
0.0395019
-0.123761
0.0934941
0.030267
-0.0943032
-0.0294579
-0.0258934
0.0537405
0.167235
-0.0196749
-0.14756
0.0417139
0.125521
-0.0836409
-0.0197831
0.103424
0.158394
0.0129602
-0.171354
-0.0934759
0.00983499
0.145969
-0.104705
-0.0412642
-0.180749
0.139074
0.0416748
-0.108611
-0.0721381
-0.0971295
0.0312124
0.065917
0.106019
0.0399507
-0.0819759
-0.0532821
0.135258
0.0790158
-0.160992
0.0260428
0.100838
-0.126881
-0.389819
0.180051
0.209768
-0.230582
0.187061
0.0435207
0.0445292
-0.0975541
0.0530249
0.0348721
0.0302859
-0.065158
-0.116743
-0.113839
-0.0114462
0.037489
-0.0251192
0.0984626
-0.0733434
0.00919329
-0.399012
0.102818
0.00566205
-0.10848
0.0936446
-0.020839
-0.0728056
0.140102
-0.10523
-0.0957372
0.0371568
0.0585804
0.0386235
0.0641943
0.000147251
0.0934973
0.229958
-0.096026
-0.133932
0.192032
0.037926
0.0560811
0.104267
0.031684
0.0202955
-0.101417
0.102431
0.0487029
0.077434
-0.020196
0.141868
-0.0879432
-0.124102
0.0701773
-0.0941403
-0.193457
0.258829
0.117092
0.0315181
-0.121939
0.0290407
-0.0729871
-0.061966
0.105912
-0.101595
-0.047045
0.16661
-0.0179696
0.0340673
-0.0853414
-0.0552621
0.106536
-0.0748198
-0.168181
0.207839
0.0351622
0.0397764
0.0681318
-0.002696
-0.105212
0.0545582
-0.145752
0.00967346
0.0815207
0.0501257
0.0447504
0.0167975
-0.111674
0.12521
-0.110744
-0.085716
-0.0245138
0.0399172
0.0976317
-0.113035
0.143456
0.0634344
0.0990459
0.119639
0.0367278
0.0623181
0.189152
-0.0646912
0.271754
-0.209391
0.0324799
0.176911
-0.077743
0.245015
0.134444
-0.0317052
-0.160774
-0.0628362
-0.19084
-0.0781177
-0.222545
0.111626
-0.051733
-0.0308519
-0.054933
-0.134796
0.0881337
0.119527
-0.0512743
-0.0341857
-0.083947
0.161311
-0.0375876
0.0528359
-0.120579
-0.00707632
0.161713
0.0225007
-0.129656
-0.0645881
0.173743
-0.059029
0.295954
-0.0288769
0.0597486
-0.117157
0.0328947
0.178062
-0.0848947
-0.0444643
0.0527632
-0.251451
-0.178749
0.041303
0.0433053
0.214824
0.0125408
-0.110273
0.10857
-0.0972272
0.0819021
-0.0662314
0.168883
0.0595227
-0.228406
0.218322
0.0896172
-0.307939
0.24872
-0.053201
-0.195519
0.022259
0.410731
-0.43299
0.194522
0.0716513
-0.266174
0.188727
0.0738215
-0.262549
0.199188
0.0239212
-0.223109
0.0887763
0.212019
-0.300796
0.0410248
-0.0233953
-0.0176295
0.213954
0.0827148
-0.296669
0.152257
0.241368
-0.393625
0.199687
0.067972
-0.267659
0.151928
0.271076
-0.423003
-0.0354215
0.0478993
-0.0124778
0.22367
0.104538
-0.328208
0.233521
0.0977575
-0.331279
0.171537
0.178027
-0.349565
0.293995
0.223471
-0.517466
0.154483
0.252061
-0.406544
0.0634855
-0.0589822
0.209451
0.176616
-0.190556
0.165868
0.241329
0.0740613
-0.160907
0.0613945
-0.0830371
0.190526
0.204798
-0.205354
-0.186068
0.300528
0.0534175
-0.0558376
0.220742
0.213141
0.0738365
-0.286978
0.0859131
0.31149
-0.397403
0.104041
0.190595
-0.0235601
0.00167961
0.169186
0.077854
-0.0652465
0.0615346
0.198234
0.222328
-0.199714
0.0490379
-0.256696
-0.0772125
0.280708
0.297461
-0.257411
-0.017791
0.209239
-0.192223
0.0726006
0.190269
0.269219
-0.0487573
-0.030895
-0.00489552
0.234978
0.0622649
-0.0671104
0.193573
0.208421
0.0613454
-0.195945
0.207928
0.068654
-0.187806
0.051405
-0.0575663
0.218181
0.1576
0.0817572
-0.215436
-0.0260977
0.192972
-0.0614146
0.053743
0.207359
0.330023
0.0531678
-0.230934
0.173222
0.082312
-0.19741
0.2107
0.0694248
0.0509477
0.213998
-0.0412758
0.178839
0.267406
-0.446245
0.210889
0.111393
0.177552
0.239432
-0.416984
0.012876
0.167202
0.113917
0.0527228
0.175946
-0.228669
-0.00792925
-0.256323
0.167863
0.0963894
0.0466104
0.23896
-0.0520497
-0.200825
0.195176
0.0736216
-0.0955379
0.122979
-0.0628623
0.132515
0.230706
-0.185194
0.201696
0.0686093
-0.184392
-0.0726589
-0.108493
0.181152
0.210217
-0.131395
0.14465
0.0157937
0.265958
-0.281752
0.0172873
-0.137721
0.120434
0.148963
0.315876
-0.464839
0.0675586
0.197242
-0.051659
0.213165
0.0700584
-0.283224
0.123887
0.294251
-0.418138
0.161202
0.278837
-0.44004
0.2062
0.0627759
-0.195139
0.0413123
0.11077
-0.159529
0.00744567
0.163595
0.0130205
-0.0145226
0.262033
-0.247511
0.0757085
0.217124
-0.292832
0.0337431
0.322415
-0.0446676
0.19769
-0.159694
-0.0222015
0.233908
-0.0503938
-0.183514
0.203581
-0.212226
0.200016
0.0568165
-0.181124
-0.247035
0.0228719
0.272062
-0.188826
0.203606
0.0897585
0.207689
0.0825778
-0.112715
-0.0663881
-0.113142
0.17953
-0.260899
0.25297
0.210582
0.0873601
-0.297942
-0.205264
0.222433
0.16167
0.0227207
-0.0854537
0.062733
0.199782
0.0931832
-0.195208
-0.0216842
0.225225
0.0624178
0.267636
0.123235
0.169533
-0.0253626
0.0988717
0.142457
-0.0494505
0.0925165
0.196366
-0.149286
0.212771
0.450875
-0.379252
-0.071623
-0.162035
0.26619
-0.0868682
0.123942
0.190198
-0.165177
0.193614
-0.18658
-0.0215558
0.00744652
-0.165267
0.15782
0.168745
-0.208783
0.0400381
0.303322
-0.0374252
-0.265897
0.0454774
0.201219
-0.0707504
-0.0684737
-0.113592
0.182065
0.171521
0.030175
0.00227131
-0.258594
0.16501
0.0591276
-0.0478342
-0.176303
-0.0963195
-0.0626501
0.15897
-0.203576
-0.023083
0.0889379
0.145812
-0.200491
-0.0744918
0.186792
0.268903
-0.0712132
0.0926558
0.072354
0.286953
-0.0193167
0.273149
-0.0838505
0.0727344
0.198202
-0.165079
0.0907642
-0.0593016
-0.137786
0.197088
0.283261
0.0397598
-0.161819
0.0608201
-0.0541745
0.20652
0.221719
-0.0669415
0.0530825
-0.146898
0.214457
0.0789074
0.243312
-0.32222
0.112732
-0.176587
-0.147415
0.145414
0.206808
-0.455827
-0.116476
0.572302
-0.143993
0.103738
-0.153848
0.05011
-0.295093
0.146155
-0.194685
0.297209
0.192987
-0.180769
0.0666888
-0.114352
0.124323
-0.163819
-0.409446
0.125817
-0.130792
0.00497509
-0.0256764
0.0792223
0.258159
-0.199031
0.04195
-0.0586162
0.23379
-0.186749
-0.0853929
0.18604
0.0861019
-0.0458049
0.0324035
0.223983
-0.224582
0.0546279
0.169954
-0.102728
0.188437
0.0620026
-0.147711
-0.129435
0.0289135
0.100522
-0.0621609
0.161033
0.173513
-0.17482
0.110377
-0.130749
-0.340654
0.471403
-0.255016
-0.248704
0.196843
0.0518608
-0.0895444
0.258731
0.137449
0.0709716
-0.139291
-0.161644
0.269004
-0.211354
-0.0576498
-0.140818
-0.00404384
-0.0771131
-0.0999141
0.177027
-0.063722
0.145646
-0.0819241
0.294563
-0.290693
-0.0038699
0.247219
-0.200168
0.0305327
0.169636
0.145391
0.210189
0.0748848
-0.285074
0.0557663
0.152601
-0.208368
0.111062
0.0733682
0.0468881
0.151364
-0.198252
-0.144799
0.0756755
0.191702
-0.180017
0.0707567
0.124324
-0.195081
0.318614
0.055217
0.350638
-0.0641902
-0.286448
-0.147879
0.201622
0.243545
-0.0499313
-0.0472971
-0.170157
0.217454
0.155627
0.0545896
-0.367676
0.264948
-0.176519
0.0177585
0.15876
0.114063
0.172718
-0.0347206
0.174212
0.0402453
0.32283
0.205391
-0.19845
0.0631177
0.0576501
0.249621
0.163262
0.0297255
-0.329644
0.340936
-0.0112918
0.225407
-0.3108
-0.186547
0.121821
0.104149
0.224268
-0.328417
0.300375
-0.221446
-0.0789289
0.0619764
0.216265
-0.0680532
0.0109364
0.132488
-0.228879
0.150647
0.0475543
0.245477
-0.204164
0.200258
0.129765
-0.132853
-0.00425856
0.137111
-0.0370569
0.105741
0.20702
-0.154839
-0.0521806
-0.015279
0.304144
-0.0549575
0.14107
-0.117421
-0.0501922
0.167613
0.191159
0.0312733
-0.186842
0.072781
0.114061
-0.0271511
0.24887
-0.17408
0.0490026
0.217733
-0.049317
0.257333
-0.208016
-0.140235
-0.0225703
0.162805
0.196214
0.314395
-0.00860268
-0.0975293
0.368673
-0.271143
-0.241634
0.324942
-0.0833073
-0.172446
0.0694221
0.207173
0.38569
-0.138471
-0.200521
0.17337
0.247618
-0.262897
0.110643
-0.0578216
-0.015803
0.186596
-0.170793
-0.101745
0.11065
-0.138341
-0.280803
0.237105
0.0436989
-0.237138
-0.010373
-0.0187102
-0.24001
0.0779514
-0.18749
0.175691
-0.147768
0.198716
-0.0561893
-0.148933
0.205122
-0.340463
0.376903
-0.0364403
-0.140043
0.0329476
-0.194982
-0.0267878
-0.149731
-0.12158
-0.117756
-0.00374284
0.121499
0.169104
-0.0963917
-0.0727125
0.252503
-0.0575392
-0.126375
-0.0615686
-0.188324
0.0619492
-0.241372
-0.00918393
-0.168353
-0.188177
0.168207
0.0805435
-0.0465587
0.190283
-0.409725
0.0803585
0.195416
-0.0324617
-0.210447
-0.0422042
0.225863
-0.0932841
0.0693705
0.241353
-0.0385155
0.0899332
0.18245
0.347342
0.0840793
-0.207644
-0.0635361
0.276439
-0.00525877
0.15371
-0.0953385
0.104434
0.139373
0.00307167
-0.142444
0.208793
0.0187204
-0.227514
0.0761316
0.0529027
-0.129034
-0.362519
-0.0726825
0.370669
-0.297987
-0.153341
0.233884
-0.0951166
0.167471
-0.152071
-0.0583755
0.218065
-0.231924
0.0503665
-0.0297966
-0.245355
-0.268861
0.210896
0.0579656
0.155571
0.0438189
-0.19939
0.107151
-0.052073
0.222593
-0.240521
0.0179286
-0.0372472
0.256807
-0.21956
-0.221956
-0.0354814
0.232098
-0.250808
-0.270854
0.00199282
-0.0684879
0.353985
-0.285497
0.25652
-0.047932
0.167719
-0.138619
0.368799
0.277531
-0.00240483
-0.275126
-0.270883
0.249758
0.0500382
0.188033
-0.243415
-0.00691883
0.234294
-0.227376
-0.0721986
0.16189
-0.0896914
-0.147154
-0.0371248
0.184278
0.24362
0.353453
-0.117762
-0.235692
0.216635
0.127795
-0.198618
0.266664
-0.142216
-0.22471
0.146007
0.078703
-0.0922207
-0.0799734
0.172194
0.266887
-0.0103672
-0.0750966
-0.0482052
0.123302
0.208297
0.150428
-0.0437729
-0.106655
-0.0497968
0.293417
-0.242069
0.141329
0.10074
0.341818
-0.086143
-0.255675
-0.0441969
0.157378
0.0768476
0.0339229
0.155769
0.0588631
-0.214632
0.241078
-0.0853087
0.138201
-0.233739
0.0930176
-0.211302
0.184682
0.072651
-0.270958
0.115575
0.155383
0.262809
-0.0500367
-0.212773
-0.148255
0.197258
-0.253055
0.249114
0.00394063
-0.150318
-0.159533
0.123009
0.0448145
0.273131
-0.317946
0.243234
-0.0922685
-0.150965
-0.208368
0.0579902
0.150378
-0.114727
-0.0852501
0.12488
-0.0924922
0.0652969
0.238091
0.221418
-0.09281
-0.186258
0.150409
0.102147
0.141087
-0.18384
-0.0466917
0.347596
-0.237624
-0.109972
0.392345
-0.149372
-0.242973
0.073748
0.125248
-0.198996
0.282637
0.0320619
-0.314699
-0.271772
0.0779361
0.193836
0.222465
0.0571488
0.0538325
-0.147548
0.0578427
0.253699
-0.201953
-0.0517456
-0.137124
0.343369
-0.121215
0.0366028
0.185198
-0.2218
-0.158001
0.0944653
0.230093
-0.325432
0.126085
-0.129133
0.00304831
0.208875
-0.0901216
-0.0516424
-0.163184
0.214826
-0.107841
-0.25484
0.362681
0.127073
0.0853409
-0.0834702
0.0934527
0.227122
0.150951
0.0366071
-0.187558
-0.25871
-0.0342607
0.292971
-0.0174172
0.251955
-0.238008
-0.0139473
0.172794
-0.217131
0.1032
0.0377239
-0.0420013
-0.199491
-0.280043
0.0974702
0.182573
-0.209345
0.0549014
-0.0443931
0.198837
-0.144245
-0.0650998
0.188989
0.274084
-0.0324985
-0.241585
0.0585186
0.277361
-0.284823
0.00746193
-0.352948
0.202129
0.150819
-0.178659
-0.08224
-0.0548624
-0.162376
-0.101277
-0.296127
0.242341
-0.175653
-0.148533
-0.0533757
0.201909
-0.289597
0.195895
-0.258788
-0.167149
-0.0458565
0.213006
-0.188835
0.237912
-0.143418
0.0360947
-0.21128
-0.0576516
-0.278341
0.214185
-0.226
0.182416
0.0435837
0.0912592
0.133965
0.146963
0.0621507
0.141001
-0.013131
0.24906
0.207601
0.0414591
-0.0784189
0.0585773
0.166757
-0.0257559
0.277517
0.0968412
-0.200071
0.0651523
-0.0641503
-0.141878
-0.0581928
-0.0487439
0.183811
-0.0426571
0.210366
-0.167709
-0.183338
0.0548561
0.193141
-0.0646588
-0.209392
0.189793
-0.0286067
-0.23305
-0.0906061
0.216672
-0.253708
0.191136
0.227464
-0.158668
-0.068796
0.0183267
-0.26827
0.249944
-0.280732
0.110881
-0.00337034
0.112486
0.125426
0.289976
-0.273451
-0.0165255
-0.326071
0.252472
0.186084
0.175703
-0.202454
0.108932
-0.200556
-0.067714
0.138646
-0.0547639
0.250952
-0.174916
-0.0467817
0.221698
-0.147219
0.202306
-0.0550871
-0.0695632
0.205239
-0.196222
-0.245098
0.0511675
0.19393
-0.245606
0.157771
0.226481
-0.216782
-0.173156
-0.0307703
-0.190196
0.050372
-0.194617
0.14734
-0.18721
0.0398709
0.0731018
0.199157
-0.0699527
-0.204175
0.0643506
0.259986
0.19247
-0.125855
-0.068762
-0.203919
0.148832
-0.205223
-0.0666144
0.0676622
-0.232349
-0.0132573
-0.0565794
0.242763
-0.0514355
-0.191327
0.168407
-0.0773451
-0.0910616
-0.0737793
-0.157122
0.123417
-0.0610986
-0.143878
0.118122
0.252788
0.0586403
-0.16061
-0.268906
-0.0399701
0.276211
-0.036697
-0.239514
-0.189081
0.200164
-0.183755
0.102416
0.249746
-0.246245
0.0503974
-0.295156
0.333771
-0.0386148
-0.166305
0.202179
-0.0554861
0.0537613
-0.200454
-0.159781
-0.061871
0.0804261
-0.146153
-0.056159
0.202312
0.43571
-0.155472
-0.280238
0.0560258
0.0570117
-0.19889
-0.126488
-0.26321
0.0794541
-0.181093
0.0531841
-0.157503
0.187276
-0.192494
0.0684123
-0.210025
-0.212838
-0.0399229
-0.182622
-0.0650719
0.196189
0.166804
-0.208903
0.0325153
0.00868322
0.155032
-0.163715
-0.159283
0.232069
-0.129653
0.297782
-0.0805992
-0.217182
0.132189
0.180399
-0.229939
0.0495402
-0.208797
0.0621904
-0.0650251
0.211632
-0.108834
0.138395
-0.24014
0.267911
-0.199301
0.218612
-0.213258
0.229928
-0.0166709
0.0598713
-0.24321
0.159189
-0.168719
0.00952926
0.141444
0.140025
-0.198218
-0.0865015
-0.261116
-0.00558879
0.184465
0.156853
-0.178316
0.0214628
0.143383
-0.0229491
0.1263
-0.303169
0.0487244
0.254183
-0.0561135
-0.19807
0.0423969
0.205394
-0.115942
-0.0894518
-0.0779484
0.186791
-0.15239
-0.0344014
0.195998
-0.18778
0.0307774
-0.0389952
0.00110946
-0.0954276
0.25228
-0.0446026
-0.141157
0.204576
-0.0634182
-0.158349
0.152298
0.00605102
0.0438886
-0.0653623
0.208265
-0.149627
-0.258241
-0.199377
0.0104033
0.268856
0.205973
-0.0481483
-0.216738
0.380819
-0.276088
-0.104731
0.162811
0.0256254
0.332529
-0.238888
-0.0936409
-0.120606
0.182324
-0.0617182
-0.240253
0.173919
-0.0290937
0.246428
-0.194087
-0.0523408
-0.166415
-0.0329755
0.10262
0.143807
0.237298
-0.232941
-0.00435642
-0.20338
-0.0647247
0.268105
-0.143923
0.198779
-0.22366
-0.0691059
-0.0770103
0.190705
-0.19994
0.20138
-0.243585
-0.140566
0.133673
-0.171423
-0.140367
-0.222936
0.0748722
0.239719
-0.15762
-0.0640831
0.240409
-0.114224
-0.126185
-0.156221
0.257413
-0.133912
-0.293349
0.427261
-0.226787
0.144747
0.140942
-0.00685223
0.234202
-0.0908189
-0.338512
0.0353433
-0.0698975
0.193345
-0.198568
-0.235404
-0.135032
-0.0743598
0.0554095
-0.265433
0.210023
-0.0570446
0.184617
-0.057506
0.191118
-0.194982
0.0613699
-0.121714
-0.154846
0.174934
-0.12383
-0.0223311
0.17476
0.0414064
-0.0772156
0.0463165
0.221182
-0.144876
0.00845607
-0.16634
0.193653
0.0605303
0.060878
0.179531
-0.235848
0.192979
0.0428684
-0.10069
0.423519
0.191545
-0.280824
0.29791
-0.0170865
-0.218028
0.221103
-0.160225
0.263691
0.010392
-0.181097
0.246151
-0.0501525
0.144663
-0.202169
-0.00456671
0.130867
0.0701046
0.204003
-0.199223
0.107186
-0.0545249
0.195969
-0.163868
-0.050764
-0.0806675
0.0227634
-0.283879
-0.194621
-0.0485885
-0.220181
0.198629
0.115603
-0.183294
0.0676908
0.152776
-0.219394
0.0666182
-0.224386
0.543
0.164691
-0.0233253
-0.252347
0.200618
0.0517286
-0.286569
0.0731583
0.213411
-0.0449199
-0.241649
0.0395458
0.112572
-0.152118
-0.265804
0.28676
-0.0209562
-0.0587934
-0.193553
-0.159764
-0.10604
-0.129933
0.108801
0.23629
-0.183207
-0.0600652
0.189813
0.0663894
-0.196138
0.216146
0.0855182
-0.260141
0.174623
0.412997
-0.160027
-0.0131547
0.165453
0.211553
-0.135208
-0.279902
0.413575
0.147525
0.134209
-0.127449
0.0690808
0.147386
-0.207452
0.0715941
-0.129642
0.237579
0.0479679
0.14929
0.314907
-0.325357
0.0959683
-0.21184
-0.100546
0.169825
-0.0692789
0.30309
-0.0640321
0.280667
-0.120308
-0.247368
-0.263663
0.258074
-0.281803
0.112631
0.0966537
0.20749
0.180476
-0.105838
0.113716
-0.188353
0.195083
0.224194
-0.0723933
0.112771
0.23174
0.0894101
-0.247904
0.220795
-0.173345
-0.0474506
0.0215804
-0.052759
0.190918
-0.0631231
-0.0937212
-0.287278
0.0156383
-0.261243
-0.00923575
0.216574
-0.0313803
0.198682
-0.256804
-0.311003
0.236355
-0.0520048
-0.183843
0.00189212
0.221617
0.154498
0.0965599
-0.251058
0.199988
-0.20859
-0.306836
0.261916
-0.0028829
0.259562
-0.0664212
0.188945
-0.250837
0.0618921
0.160864
-0.184226
0.0233618
0.189993
-0.173595
0.0202087
0.25999
-0.115552
-0.144439
-0.262702
-0.0303551
0.158703
-0.180904
-0.315551
0.106754
0.211805
-0.149829
-0.0869381
-0.278968
-0.0261615
0.178937
0.159741
0.103963
0.240309
-0.0299325
-0.236588
-0.0656668
0.0876686
0.214587
-0.0327892
-0.25779
0.185397
-0.138615
0.0448937
-0.119465
-0.198194
0.0765576
0.241101
0.235884
0.00904621
-0.24493
-0.249068
-0.0266908
-0.0398669
-0.127529
-0.0907928
0.251657
0.168525
-0.075072
-0.055418
-0.0318171
0.0825831
-0.0950609
0.257418
-0.176304
0.241696
-0.0653921
0.189073
-0.0030493
-0.186023
0.0152717
0.153987
0.0264884
-0.141662
0.157301
0.258601
-0.201194
-0.0574069
0.248571
-0.182683
-0.0459852
-0.243734
0.0550532
0.188681
-0.0440223
0.0871147
-0.272443
0.229351
-0.0144692
-0.229265
-0.309849
0.192316
0.117533
-0.125506
-0.146492
0.0686179
-0.0851244
0.197049
-0.0404262
0.200552
0.0610897
-0.246667
0.0588402
0.187827
-0.231395
0.0409342
-0.0520874
-0.1908
-0.254936
0.059695
0.195241
-0.0553393
0.0603252
-0.0985271
0.0855586
-0.170325
-0.247881
0.0346232
0.159696
0.0277744
-0.18747
-0.091668
0.251364
-0.126463
0.221688
0.190185
-0.0148133
-0.254137
0.124303
0.25512
-0.198935
-0.0561854
0.199642
0.0554785
0.245885
-0.071124
0.221156
0.0388343
0.141805
-0.229822
-0.256903
0.212881
0.0200117
-0.00960835
-0.227874
0.179726
0.0522591
-0.0322474
-0.258823
0.25227
0.00655271
-0.213119
-0.214278
0.16959
0.044688
-0.0425942
-0.18528
0.19775
-0.146378
-0.0513722
-0.192432
0.0912349
0.101197
-0.26089
0.19156
-0.245854
0.204386
-0.197723
0.0574277
-0.182934
0.114527
-0.347611
0.147775
-0.167347
0.283375
-0.260503
-0.217249
0.0663415
-0.0593942
-0.169413
0.255631
-0.176746
-0.078885
0.152917
-0.0675763
-0.327294
0.0508475
-0.203237
0.0463162
0.165489
-0.154967
0.392339
-0.237371
-0.0573839
0.183729
-0.190048
0.247196
0.00669707
-0.269594
-0.0954105
-0.220141
-0.199515
0.0578529
0.0805754
0.125719
0.224164
-0.180276
-0.128479
0.165844
0.192262
-0.104772
-0.0700366
-0.215037
0.288632
-0.270672
0.0773647
0.156776
-0.23414
0.25787
-0.152685
-0.267471
0.219605
0.106706
0.315999
-0.294928
-0.0210715
-0.0665994
0.204063
-0.176548
0.189139
-0.0398486
-0.199863
-0.055073
-0.137702
-0.313459
0.188552
-0.0208151
-0.244626
0.0768892
-0.0548276
0.245945
0.0224799
0.174136
0.229309
-0.335147
0.000709463
-0.241239
-0.0456046
0.235418
-0.0603522
-0.0775777
-0.330367
0.316657
0.14886
-0.207008
0.0581475
-0.209679
0.0569363
0.209784
-0.0613939
-0.0881358
0.247354
-0.159219
-0.207613
-0.00297976
-0.192539
0.0609258
-0.196134
-0.0529663
0.214053
-0.0666661
0.148365
-0.0775741
-0.144128
0.206319
0.392039
-0.103407
0.230432
-0.278208
0.0477761
0.185894
-0.263107
-0.179368
0.0630074
-0.242376
-0.193895
-0.201981
0.263326
-0.105765
-0.170121
0.247975
0.00732284
-0.162798
-0.0598239
0.198392
0.0620502
-0.253569
0.0515883
-0.113486
0.105516
-0.152207
-0.205664
-0.110288
-0.20007
-0.0534991
0.0480186
0.211052
0.25345
-0.191238
-0.0622121
0.111561
-0.114541
-0.128744
0.219254
-0.0905106
0.17378
-0.120612
0.0595548
0.281525
-0.0652591
0.115576
0.160915
-0.0553285
-0.251968
0.055446
0.196522
-0.195807
-0.0561605
-0.235474
-0.0958043
-0.282828
0.178193
-0.264752
0.114434
-0.103683
0.233949
0.254859
-0.00750461
-0.150906
-0.089248
-0.0194842
-0.108995
-0.253719
0.0563843
0.197335
-0.195326
-0.0583932
-0.0617736
-0.0791261
0.1409
-0.0740304
0.200622
0.252941
-0.0427783
-0.210163
-0.0315241
0.293929
0.20105
-0.269356
-0.0759266
0.216973
-0.078954
-0.176209
-0.0839325
0.231489
-0.24816
-0.00585984
0.227042
-0.405917
0.277173
0.247304
-0.204435
0.015516
-0.136261
-0.179359
0.060419
0.264148
-0.23689
0.0783639
0.223823
-0.190608
-0.0884313
0.071023
-0.308321
0.300199
0.0147081
-0.0551411
-0.0169752
-0.309385
-0.0159723
-0.0434
0.257398
0.150907
-0.0440802
0.240376
-0.0894698
-0.0612512
0.0619489
0.198944
0.198181
-0.24635
0.094496
-0.417178
0.322682
0.0402685
-0.250926
0.220186
0.0264794
-0.298923
-0.252617
0.0469536
-0.263417
0.111065
0.208757
-0.150641
0.139395
0.0886101
-0.00377396
-0.0783459
0.154901
-0.241829
0.051221
-0.191067
-0.0599905
0.189443
-0.0625564
0.341021
-0.0421128
-0.298908
0.22806
-0.197283
-0.0568096
0.0465563
0.0102533
-0.255597
0.18993
-0.0571356
0.205996
0.0430504
0.167052
-0.0415782
-0.0799188
-0.257813
0.0596186
0.187622
-0.190087
0.0472652
-0.221787
0.27684
-0.160935
0.0307676
-0.278648
-0.157905
0.179771
-0.0822921
0.164692
0.0726319
0.0183958
0.0732822
-0.162336
-0.172905
-0.284613
0.0491386
-0.111837
-0.178841
0.210304
-0.171785
0.0682338
0.0095103
0.215076
-0.254086
0.131722
0.122364
-0.311924
0.116725
-0.394665
-0.256353
0.282156
-0.0258021
-0.194528
-0.05479
0.0501818
-0.140359
0.132637
-0.147688
0.187957
-0.266329
0.238212
0.0281168
0.163473
-0.0431554
-0.223173
-0.147629
-0.150635
0.0912557
0.0661764
0.052566
-0.25212
0.199554
0.24738
-0.0864659
0.177163
-0.140453
0.14424
0.146795
-0.178584
-0.156501
0.392232
-0.134159
0.0270219
0.169776
0.142788
-0.0406408
-0.166197
-0.0613165
0.197293
-0.00659
0.209629
-0.201866
-0.146844
0.11065
-0.172396
-0.196925
0.195667
0.00324064
-0.184346
0.0184693
0.165876
0.113265
0.144828
0.0725557
0.142973
-0.225265
-0.0458461
0.214294
0.310331
0.121734
-0.179125
-0.251745
0.193138
0.0586062
-0.262255
0.0661179
0.245206
-0.191714
-0.053492
-0.147171
-0.259373
-0.222273
0.218499
0.199034
-0.274961
0.225962
-0.205753
-0.0458001
0.202025
0.14126
-0.107337
-0.0571048
0.190023
0.170491
-0.119174
-0.0681915
-0.071859
0.307066
-0.0240223
-0.237879
-0.103391
0.0986931
0.130782
-0.140497
0.231671
0.097507
-0.0447794
-0.0282292
-0.187662
0.0399739
-0.00511757
-0.126185
0.0892363
0.189618
0.269743
0.215169
0.0670316
0.0751035
0.0585231
0.107765
-0.0309292
-0.111756
0.0813945
0.18793
0.113634
-0.166531
0.255575
0.194578
0.0513668
-0.0182623
0.243144
0.198619
-0.198217
0.0570288
0.0560321
-0.257226
-0.0993893
-0.235758
0.24471
0.231684
0.0656956
0.0463438
-0.016564
0.0659284
0.181452
-0.0417609
0.0687456
-0.206082
-0.255581
0.234766
-0.21258
0.23506
-0.154061
0.269395
-0.259866
0.28677
-0.0189002
-0.178757
-0.00806607
-0.00755879
0.049398
-0.189541
0.068902
-0.13969
-0.161144
0.00208076
-0.284669
0.282588
0.255317
-0.212267
0.205929
-0.0393439
0.15271
-0.2561
-0.105689
0.232468
0.151493
-0.193395
0.289099
-0.207407
0.20446
0.158837
0.0539337
-0.270342
-0.180253
0.210402
0.0397564
-0.082673
-0.193993
0.195305
-0.103331
0.0134204
-0.185601
0.260817
-0.0728876
-0.101955
-0.470347
-0.365714
0.0543897
-0.202299
0.0919223
-0.257776
-0.251233
0.409663
0.0728682
-0.202182
0.0839168
0.0655653
-0.201037
-0.201999
0.237642
-0.189889
0.106412
0.0377785
-0.128943
-0.103194
-0.0449502
0.270907
-0.348481
-0.107486
0.262387
0.160046
-0.278697
0.250372
0.171552
0.214931
-0.129008
-0.0689154
-0.38196
0.248815
0.212005
-0.255405
0.227541
0.241666
-0.00709833
-0.152584
0.159682
-0.349567
0.244795
-0.0354766
0.0270627
-0.0672715
-0.260429
0.256572
-0.250793
0.0910542
0.214101
-0.118126
-0.0726601
0.212712
-0.243356
0.333079
0.222486
0.0617182
-0.218004
0.208852
0.181153
-0.203524
-0.0485959
0.126307
-0.00839408
-0.124623
0.213636
-0.205034
0.10973
0.114423
-0.165083
0.0458868
-0.0444625
-0.197805
0.308818
0.141886
0.059736
0.10225
-0.0344847
0.0990641
-0.0087422
-0.0687105
0.208056
0.0937291
0.235253
0.152392
-0.247453
0.181852
-0.189953
-0.0719412
-0.112726
0.0637026
-0.0341269
-0.130265
-0.20767
0.0618367
0.258766
-0.132459
-0.0040753
-0.151564
-0.157451
0.102027
-0.224954
0.265679
-0.201977
-0.210138
0.244271
-0.350239
0.0910072
-0.201476
-0.243892
-0.105675
-0.202595
-0.0582121
0.0594743
0.201332
0.09109
-0.123584
-0.211833
-0.195508
-0.250676
0.0480809
0.18528
-0.0209272
-0.202877
-0.0527041
0.0665067
0.20374
-0.112733
-0.075749
-0.265975
0.0537078
0.193688
-0.015499
0.0295001
0.19804
-0.0211981
-0.190421
-0.0426194
-0.0121272
0.0681492
-0.0160948
0.081334
0.177432
-0.0107822
0.183734
-0.215477
0.0625788
-0.173629
0.10657
0.278559
0.178818
-0.0419078
0.226442
0.133451
0.175169
-0.014573
0.0164677
0.0831278
-0.0591668
-0.0532406
0.336542
-0.0657845
0.222043
0.419416
0.0725991
-0.178742
-0.0668846
0.0984027
-0.126214
-0.0672428
0.131718
-0.0750702
-0.0920039
-0.11702
-0.0577373
-0.0663644
-0.0132081
-0.147599
0.153261
0.0386755
0.0387585
-0.0919677
0.250362
0.104667
-0.125506
0.129704
0.0149202
-0.123531
-0.0548004
-0.033324
-0.0638055
0.0439883
0.00661876
-0.123362
-0.00367085
-0.0920663
0.0241404
-0.128845
0.0348078
-0.0171987
0.0962146
-0.112373
0.0864797
0.0410795
-0.036463
-0.163906
0.0181538
-0.0448849
0.0252099
-0.0767653
0.0939051
-0.0171398
-0.0919299
0.0369134
0.0684653
0.0342379
0.0694956
0.11379
0.0356225
0.00429468
0.102724
-0.00722589
0.0297367
-0.0604034
0.0284482
0.0869729
-0.0710252
-0.163507
0.102592
-0.105336
-0.0385203
-0.0547266
0.054175
-0.0518394
0.0603681
0.0343402
0.0966313
-0.075516
0.0486028
0.126358
-0.118719
0.106757
0.00131622
-0.199982
-0.11486
0.0246138
0.0724556
0.022445
0.0933418
0.0422125
0.0788858
-0.0804384
-0.127498
0.114448
-0.134085
0.131837
0.0881613
0.0800222
-0.0847045
0.0422358
0.0687151