/*--------------------------------*- C++ -*----------------------------------*\
  =========                 |
  \\      /  F ield         | OpenFOAM: The Open Source CFD Toolbox
   \\    /   O peration     | Website:  https://openfoam.org
    \\  /    A nd           | Version:  6
     \\/     M anipulation  |
\*---------------------------------------------------------------------------*/
FoamFile
{
    version     2.0;
    format      ascii;
    class       surfaceScalarField;
    location    "4.71";
    object      meshPhi;
}
// * * * * * * * * * * * * * * * * * * * * * * * * * * * * * * * * * * * * * //

dimensions      [0 3 -1 0 0 0 0];

internalField   nonuniform List<scalar> 
8193
(
0.00198842
-0.00235348
-0.000692986
0.00325718
-0.0044231
0.00444264
-0.00625107
0.00549162
-0.0078095
0.00635852
-0.00908169
0.00700861
-0.010061
0.00742002
-0.0107498
0.0075847
-0.0111573
0.00750817
-0.0112985
0.00720834
-0.0111923
0.00671361
-0.0108603
0.0060605
-0.0103252
0.00529096
-0.00961026
0.00444974
-0.00873861
0.00358182
-0.00773252
0.00273012
-0.00661334
0.00193361
-0.00540136
0.00122569
-0.00411591
0.000633056
-0.00277542
0.000174874
-0.00139767
-0.000137728
-4.41163e-21
-0.000301818
0.00140041
-0.000322556
0.00278628
-0.000212796
0.00414
7.60446e-06
0.0054433
0.000312779
0.00667709
0.000672175
0.00782122
0.00105221
0.0088544
0.00141823
0.0097541
0.00173677
0.0104968
0.00197801
0.011058
0.00211818
0.011413
0.00214202
0.0115375
0.00204473
0.0114085
0.00183343
0.0110057
0.00152779
0.010313
0.00115961
0.00931979
0.000771243
0.00802305
0.000412823
0.0064288
0.000138311
0.00455353
0.00242533
6.203e-07
0.0077957
-0.00727284
-0.00377152
0.0116015
-0.0111495
0.0150376
-0.01446
0.0179707
-0.0171649
0.0202946
-0.0192511
0.0219365
-0.0207283
0.0228596
-0.0216246
0.0230642
-0.0219817
0.0225856
-0.0218501
0.0214894
-0.0212851
0.0198664
-0.0203432
0.017826
-0.0190792
0.0154887
-0.017544
0.01298
-0.015784
0.0104235
-0.0138401
0.00793567
-0.0117477
0.00562102
-0.00953747
0.00356863
-0.00723578
0.00184931
-0.00486556
0.00051377
-0.00244732
-0.000408413
0
-0.000909142
0.00245801
-0.00100148
0.00490797
-0.000718657
0.00732987
-0.000112466
0.00970146
0.000749141
0.0119973
0.00178517
0.0141881
0.00290555
0.0162393
0.00401587
0.0181113
0.0050229
0.0197583
0.00584062
0.0211289
0.00639656
0.0221666
0.00663796
0.022811
0.00653739
0.0230001
0.00609709
0.0226731
0.00535166
0.0217746
0.00436839
0.0202584
0.00324489
0.0180928
0.00210388
0.0152657
0.00108502
0.0117888
0.00770162
0.000334213
0.0171354
-0.0146384
-0.0104936
0.0231862
-0.0198752
0.0284427
-0.0241819
0.0327391
-0.0275281
0.0359564
-0.0299248
0.0380271
-0.0314169
0.0389371
-0.0320754
0.0387237
-0.0319886
0.0374711
-0.031254
0.035303
-0.0299715
0.0323739
-0.0282372
0.0288596
-0.0261394
0.0249476
-0.0237559
0.0208277
-0.0211523
0.0166838
-0.0183821
0.0126867
-0.0154873
0.00898828
-0.0124997
0.00571676
-0.00944263
0.00297363
-0.00633277
0.000831369
-0.00318217
-0.000667642
8.82326e-21
-0.00151146
0.00320557
-0.00171806
0.00642565
-0.00133401
0.00964885
-0.000432414
0.0128595
0.000890096
0.0160358
0.00251734
0.019148
0.0043186
0.0221566
0.00615475
0.0250105
0.00788541
0.0276464
0.00937692
0.0299877
0.0105109
0.031945
0.0111929
0.0334183
0.0113603
0.0342995
0.0109894
0.0344771
0.0101005
0.0338427
0.00875969
0.0322983
0.00707845
0.0297647
0.00520889
0.0261908
0.00333556
0.021562
0.0159074
0.0016637
0.0300473
-0.0240213
-0.0212028
0.0378067
-0.030048
0.0442744
-0.0347902
0.0492986
-0.0382448
0.0527881
-0.0404618
0.0547156
-0.0415334
0.0551152
-0.041582
0.0540788
-0.0407483
0.0517483
-0.0391795
0.0483061
-0.0370204
0.0439647
-0.0344049
0.0389553
-0.0314514
0.0335174
-0.0282591
0.027888
-0.0249072
0.0222928
-0.0214549
0.0169391
-0.0179434
0.0120091
-0.014398
0.00765571
-0.0108314
0.00399941
-0.00724631
0.00112601
-0.00363857
-0.000914224
8.13808e-15
-0.00210665
0.00367895
-0.00247164
0.00740663
-0.00206308
0.0111876
-0.000966224
0.0150201
0.000705473
0.018893
0.00281446
0.0227832
0.00520432
0.0266524
0.00770622
0.030445
0.0101465
0.034085
0.0123552
0.0374755
0.0141757
0.040498
0.0154739
0.0430146
0.0161483
0.0448711
0.0161378
0.0459035
0.0154288
0.0459459
0.0140595
0.044841
0.012121
0.0424519
0.00975537
0.038675
0.00714906
0.0334526
0.0267843
0.00452364
0.0462265
-0.0347235
-0.0358585
0.0549709
-0.0409255
0.0619255
-0.0455418
0.0669895
-0.0486081
0.0701296
-0.0502209
0.0713796
-0.0505234
0.0708359
-0.0496903
0.0686506
-0.0479124
0.0650224
-0.0453829
0.0601861
-0.0422858
0.0544011
-0.0387868
0.0479399
-0.0350274
0.0410773
-0.0311216
0.0340802
-0.0271549
0.0271993
-0.0231859
0.0206616
-0.0192487
0.0146653
-0.0153564
0.00937561
-0.0115056
0.00492193
-0.00768
0.00139635
-0.00385479
-0.00114699
1.76465e-20
-0.00269179
0.00391588
-0.00325877
0.00792263
-0.00290425
0.012045
-0.00171796
0.0162993
0.000179836
0.0206898
0.00264221
0.0252049
0.00550045
0.0298128
0.00857011
0.0344584
0.0116582
0.0390593
0.0145714
0.043504
0.0171253
0.0476509
0.019154
0.0513296
0.0205194
0.0543455
0.0211207
0.0564858
0.0209015
0.0575299
0.0198561
0.057262
0.0180322
0.0554856
0.0155314
0.0520395
0.0125058
0.0468144
0.0397672
0.00915197
0.0650174
-0.0458598
-0.0539896
0.073919
-0.0516597
0.0805995
-0.0556563
0.0850318
-0.057928
0.0872561
-0.0586175
0.0873755
-0.0579156
0.0855501
-0.0560432
0.0819885
-0.0532338
0.076938
-0.0497181
0.0706737
-0.0457105
0.0634876
-0.0413999
0.0556777
-0.0369427
0.0475379
-0.0324601
0.0393487
-0.0280377
0.0313703
-0.0237276
0.0238358
-0.019552
0.016947
-0.0155082
0.010871
-0.0115734
0.0057382
-0.00770989
0.00164136
-0.00386991
-0.00136481
-1.76465e-20
-0.00326321
0.00395487
-0.00407341
0.00804745
-0.00385026
0.0123244
-0.00268195
0.016822
-0.000687432
0.0215623
0.0019869
0.0265478
0.00517143
0.0317572
0.00867861
0.03714
0.0123092
0.0426125
0.0158594
0.0480547
0.0191295
0.0533086
0.0219319
0.0581793
0.0241006
0.0624393
0.0254991
0.0658355
0.0260287
0.0681004
0.0256345
0.0689662
0.0243097
0.0681819
0.0220979
0.0655316
0.0190924
0.0608536
0.0540576
0.0154333
0.0854508
-0.0564675
-0.0747023
0.0936751
-0.0613948
0.0993658
-0.0643991
0.102577
-0.0655979
0.103424
-0.0651738
0.102076
-0.0633564
0.0987471
-0.0604028
0.0936923
-0.0565786
0.0871937
-0.052141
0.079552
-0.047325
0.071076
-0.0423331
0.0620737
-0.0373286
0.0528426
-0.032433
0.0436631
-0.0277265
0.0347917
-0.0232506
0.026456
-0.0190126
0.018852
-0.0149918
0.0121405
-0.0111449
0.00644697
-0.00741204
0.00186034
-0.00372265
-0.00156662
-1.76465e-20
-0.00381667
0.00383406
-0.00490715
0.00785482
-0.00488866
0.0121304
-0.0038433
0.0167174
-0.00188257
0.0216558
0.000855392
0.0269637
0.00420923
0.0326317
0.00799865
0.0386171
0.0120295
0.0448392
0.0160998
0.0511745
0.0200063
0.0574555
0.0235523
0.0634706
0.0265543
0.0689686
0.0288504
0.073666
0.0303064
0.0772589
0.0308223
0.0794381
0.0303368
0.0799078
0.0288307
0.0784056
0.0263278
0.0747235
0.0687271
0.0228951
0.10632
-0.0656273
-0.0967459
0.113123
-0.0693667
0.11723
-0.0711586
0.11877
-0.0711514
0.117922
-0.0695576
0.114907
-0.0666344
0.109982
-0.0626631
0.103431
-0.0579297
0.0955549
-0.0527072
0.0866643
-0.0472409
0.0770698
-0.0417383
0.0670749
-0.0363628
0.0569681
-0.0312307
0.0470178
-0.0264127
0.0374666
-0.0219368
0.0285283
-0.0177944
0.0203853
-0.013946
0.0131868
-0.0103283
0.00704862
-0.00686054
0.00205286
-0.0034505
-0.0017514
1.18221e-14
-0.00434739
0.00359031
-0.00574956
0.00741639
-0.00600234
0.0115662
-0.00517871
0.016115
-0.00337837
0.0211199
-0.000725674
0.0266142
0.00263306
0.0326009
0.00653276
0.039047
0.0107936
0.0458769
0.0152253
0.0529684
0.0196329
0.0601497
0.0238215
0.0672001
0.0276031
0.0738532
0.0308019
0.0798054
0.0332601
0.0847275
0.0348431
0.0882809
0.0354438
0.0901371
0.0349861
0.0899986
0.0334269
0.0876214
0.082835
0.0307581
0.126287
-0.0725773
-0.118627
0.131101
-0.0749883
0.133212
-0.0755069
0.132807
-0.0743026
0.130112
-0.0716062
0.125383
-0.0676911
0.118899
-0.0628513
0.110958
-0.0573823
0.101862
-0.0515626
0.0919186
-0.0456398
0.0814255
-0.0398193
0.0706705
-0.034259
0.0599231
-0.0290661
0.0494306
-0.0242993
0.0394149
-0.0199724
0.0300695
-0.0160604
0.0215587
-0.0125061
0.014016
-0.00922772
0.00754495
-0.00612565
0.0022188
-0.00308874
-0.00191824
-5.44378e-15
-0.00485028
0.00325831
-0.00658855
0.00679999
-0.00717032
0.0107302
-0.00665755
0.0151404
-0.00513559
0.0201028
-0.00271148
0.0256645
0.000487953
0.0318405
0.0043184
0.0386072
0.00862089
0.0458961
0.013225
0.0535886
0.0179524
0.0615135
0.0226211
0.0694463
0.0270496
0.0771134
0.0310608
0.0841998
0.0344867
0.0903617
0.037172
0.0952426
0.0389778
0.0984931
0.0397844
0.0997932
0.0394945
0.0988743
0.0955406
0.0380349
0.144012
-0.0768019
-0.138761
0.146504
-0.0779106
0.146425
-0.0772385
0.144001
-0.0749663
0.13948
-0.0713334
0.133135
-0.0666185
0.125252
-0.061119
0.116121
-0.0551306
0.106038
-0.0489298
0.0952887
-0.0427595
0.0841521
-0.0368182
0.0728902
-0.0312543
0.0617462
-0.026164
0.0509411
-0.0215931
0.0406711
-0.017541
0.0311062
-0.0139676
0.0223896
-0.0107998
0.0146374
-0.00793998
0.00793909
-0.00527229
0.00235831
-0.00266978
-0.00206633
8.82326e-21
-0.00532006
0.00286985
-0.00741088
0.00606809
-0.00836849
0.00971379
-0.00824318
0.0139117
-0.00710472
0.0187466
-0.00504118
0.0242771
-0.00215756
0.0305284
0.00142573
0.0374859
0.00557466
0.0450884
0.0101437
0.0532225
0.0149779
0.06172
0.0199159
0.0703573
0.024792
0.0788591
0.0294391
0.0869067
0.0336917
0.09415
0.0373881
0.100225
0.0403733
0.104771
0.0425012
0.107458
0.0436378
0.108002
0.106195
0.0436629
0.158282
-0.0780851
-0.155638
0.158382
-0.0780519
0.15615
-0.0763811
0.151826
-0.0732567
0.145664
-0.0689187
0.137934
-0.0636434
0.128911
-0.0577238
0.11887
-0.0514495
0.108084
-0.0450892
0.0968134
-0.0388766
0.0853083
-0.0330002
0.0738006
-0.027597
0.0625032
-0.0227513
0.0516077
-0.0184961
0.0412826
-0.0148177
0.0316731
-0.0116627
0.0229005
-0.00894485
0.0150628
-0.00655305
0.00823533
-0.00435877
0.00247176
-0.00222258
-0.00219498
-2.30138e-15
-0.00575142
0.00245327
-0.00820252
0.00527657
-0.0095706
0.00859955
-0.00989437
0.012537
-0.0092281
0.0171832
-0.00764068
0.0226056
-0.00521478
0.0288378
-0.00204594
0.0358726
0.00175846
0.0436554
0.0060803
0.0520783
0.0107919
0.0609778
0.0157571
0.0701336
0.020833
0.079273
0.0258709
0.0880787
0.0307179
0.0962012
0.0352186
0.103275
0.0392162
0.10894
0.0425552
0.112861
0.0450832
0.114753
0.114397
0.0466537
0.16813
-0.0765197
-0.167989
0.166026
-0.0755919
0.161892
-0.0731796
0.15596
-0.0694648
0.148477
-0.0646823
0.139696
-0.0591007
0.129871
-0.0530036
0.119252
-0.0466701
0.108082
-0.0403576
0.0965913
-0.0342883
0.0849979
-0.0286387
0.0735013
-0.023534
0.0622829
-0.0190468
0.0515045
-0.0151983
0.0413072
-0.0119637
0.0318115
-0.00927839
0.0231176
-0.0070456
0.0153062
-0.00514415
0.00843887
-0.00343584
0.00255977
-0.00177215
-0.00230364
-2.11073e-15
-0.00613925
0.002033
-0.00894926
0.00447385
-0.0107492
0.00745939
-0.0115669
0.0111113
-0.0114422
0.0155303
-0.0104258
0.0207901
-0.00857886
0.0269302
-0.00597291
0.0339488
-0.00268902
0.0417968
0.00118233
0.0503714
0.00554159
0.0595138
0.0102804
0.0690089
0.0152817
0.0785888
0.0204205
0.087941
0.0255635
0.0967209
0.0305703
0.104568
0.0352941
0.111126
0.0395832
0.116065
0.0432829
0.119099
0.120012
0.0462383
0.172934
-0.0724745
-0.174919
0.169033
-0.0709338
0.163417
-0.0680562
0.156305
-0.0640186
0.14792
-0.0590468
0.138492
-0.0533988
0.128248
-0.0473456
0.117409
-0.0411534
0.106184
-0.0350665
0.0947744
-0.0292941
0.0833632
-0.0240006
0.072119
-0.0192997
0.0611929
-0.0152529
0.0507182
-0.0118716
0.0408105
-0.00912166
0.0315676
-0.00692991
0.0230703
-0.00519171
0.0153832
-0.00377869
0.0085557
-0.00254608
0.00262316
-0.00133935
-0.00239192
1.94307e-15
-0.00647872
0.00162935
-0.00963707
0.00370022
-0.0118765
0.00635365
-0.0132153
0.00971516
-0.0136802
0.0138892
-0.0133056
0.0189529
-0.0121333
0.0249493
-0.0102128
0.0318802
-0.00760083
0.0397001
-0.00436181
0.0483104
-0.000568354
0.057557
0.00369842
0.0672298
0.00834823
0.0770671
0.0132811
0.0867633
0.0183871
0.0959813
0.0235459
0.104369
0.0286275
0.111578
0.033493
0.117285
0.0379964
0.121213
0.123148
0.0419875
0.172474
-0.0665252
-0.176009
0.167336
-0.0646397
0.160775
-0.0615519
0.152987
-0.057431
0.144173
-0.0524924
0.134534
-0.0469809
0.124268
-0.0411539
0.113565
-0.0352633
0.102606
-0.0295395
0.0915586
-0.0241786
0.0805775
-0.019333
0.0698015
-0.0151056
0.0593543
-0.0115484
0.0493442
-0.0086646
0.0398638
-0.00641272
0.030991
-0.00471339
0.0227897
-0.00345664
0.0153106
-0.00250956
0.00859235
-0.00172353
0.00266291
-0.000940746
-0.00245959
0
-0.00676551
0.00125833
-0.0102527
0.00298761
-0.0129255
0.0053304
-0.0147943
0.00841348
-0.0158744
0.0123424
-0.0161863
0.0171955
-0.0157552
0.0230169
-0.0146112
0.0298101
-0.0127897
0.0375316
-0.0103324
0.0460857
-0.00728743
0.055322
-0.00371111
0.0650357
0.000331249
0.0749713
0.00476408
0.0848308
0.0095006
0.0942861
0.0144422
0.102995
0.0194783
0.11062
0.0244871
0.116847
0.0293373
0.121407
0.124095
0.0338905
0.166947
-0.0593612
-0.171346
0.161205
-0.0573511
0.154281
-0.0542582
0.146348
-0.0502427
0.137582
-0.0455081
0.128158
-0.0402856
0.118247
-0.0348176
0.108013
-0.0293413
0.0976079
-0.024073
0.087173
-0.0191962
0.0768358
-0.0148517
0.0667105
-0.0111327
0.0568972
-0.00808296
0.0474829
-0.00569897
0.038541
-0.00393396
0.0301327
-0.00270439
0.0223078
-0.00189713
0.0151055
-0.00137698
0.00855577
-0.000993725
0.00268017
-0.000588618
-0.00250663
1.66388e-15
-0.00699593
0.000931735
-0.0107839
0.00235957
-0.0138709
0.00442534
-0.0162604
0.00725492
-0.0179587
0.0109529
-0.0189746
0.0155965
-0.0193197
0.0212293
-0.0190079
0.0278545
-0.0180572
0.035429
-0.0164895
0.0438589
-0.0143327
0.0529965
-0.0116216
0.0626414
-0.00839991
0.0725443
-0.00472143
0.0824152
-0.000651816
0.0919354
0.00373061
0.100773
0.00833441
0.108603
0.0130555
0.115121
0.0177787
0.12007
0.12325
0.0223799
0.156938
-0.051685
-0.16151
0.151215
-0.0497047
0.144487
-0.0467482
0.136905
-0.0429656
0.128625
-0.0385475
0.119798
-0.0337106
0.110575
-0.0286822
0.101094
-0.0236845
0.0914856
-0.01892
0.0818676
-0.0145595
0.0723461
-0.0107333
0.0630148
-0.00752551
0.053955
-0.00497317
0.0452361
-0.00306732
0.0369164
-0.00175747
0.0290438
-0.000957613
0.0216568
-0.000553246
0.0147856
-0.00040867
0.00845308
-0.000373933
0.00267621
-0.000291141
-0.00253317
-1.54466e-15
-0.00716704
0.00065729
-0.0112203
0.00183154
-0.0146897
0.00366211
-0.0175736
0.00627222
-0.019871
0.00976369
-0.0215816
0.0142111
-0.0227057
0.0196557
-0.0232448
0.0260988
-0.0232025
0.0334967
-0.0225852
0.0417556
-0.0214042
0.0507298
-0.0196767
0.0602226
-0.0174285
0.0699903
-0.0146954
0.0797505
-0.0115249
0.0891942
-0.00797775
0.0980006
-0.00412818
0.105855
-6.40349e-05
0.112466
0.00411476
0.117586
0.121025
0.00829849
0.14335
-0.147491
0.138186
0.132128
0.125312
0.117878
0.109959
0.101685
0.0931789
0.0845508
0.0759014
0.0673197
0.0588835
0.0506594
0.0427035
0.0350624
0.0277737
0.0208677
0.0143677
0.00829149
0.0026524
-0.00253958
-0.00727678
-0.0115529
-0.0153622
-0.0186985
-0.0215554
-0.0239254
-0.0258002
-0.0271717
-0.028032
-0.0283757
-0.0282007
-0.0275107
-0.0263167
-0.0246398
-0.0225125
-0.0199804
-0.0171028
-0.0139529
-0.0106161
-0.00718826
-0.123159
-0.00632402
-0.119987
0.00707952
-0.113343
0.0193557
-0.103855
0.0295749
-0.0923539
0.0370443
-0.0797578
0.0413731
-0.0669573
0.0425023
-0.054708
0.0406939
-0.0435565
0.0364846
-0.0338068
0.0306069
-0.0255321
0.0238902
-0.0186292
0.0171537
-0.0129033
0.0111044
-0.00816844
0.00625261
-0.00434251
0.00285624
-0.00151912
0.000899657
0.000109626
-0.123066
-0.00552467
-0.120221
0.0059545
-0.114217
0.0165504
-0.105581
0.0255263
-0.0950062
0.0323163
-0.0832704
0.0365738
-0.0711426
0.0381968
-0.0592998
0.0373271
-0.048263
0.0343234
-0.0383624
0.0297124
-0.0297349
0.0241238
-0.0223545
0.0182153
-0.0160893
0.0125979
-0.0107761
0.00776793
-0.00629778
0.00405518
-0.00265256
0.00159137
0.000303051
-0.121186
-0.00473647
-0.118745
0.0049904
-0.113452
0.0140416
-0.105739
0.0218373
-0.0961765
0.0279186
-0.085412
0.0319836
-0.0740999
0.0339082
-0.0628356
0.0337502
-0.0521019
0.0317358
-0.0422354
0.0282304
-0.0334157
0.0236974
-0.0256791
0.0186479
-0.0189536
0.0135878
-0.0131112
0.00896622
-0.00802713
0.00513193
-0.00364
0.00230052
0.000536603
-0.117608
-0.00392412
-0.115617
0.00422882
-0.111072
0.0118773
-0.104318
0.0185684
-0.0958164
0.0239331
-0.0860981
0.027713
-0.075711
0.0297768
-0.0651685
0.0301268
-0.0549068
0.0288933
-0.045253
0.0263186
-0.036411
0.0227318
-0.0284634
0.0185166
-0.0213907
0.0140753
-0.0151054
0.00979182
-0.0094948
0.00599739
-0.00446788
0.00294175
0.000772386
-0.112495
-0.00307089
-0.110969
0.00368686
-0.107175
0.010077
-0.101381
0.0157488
-0.0939538
0.0204083
-0.0853201
0.0238378
-0.0759308
0.0259094
-0.0662204
0.0265911
-0.056573
0.0259466
-0.0472948
0.0241267
-0.038598
0.0213554
-0.0305962
0.01791
-0.023313
0.0140979
-0.0167011
0.010231
-0.0106713
0.00660096
-0.0051269
0.00345585
0.0009812
-0.106062
-0.00217699
-0.104991
0.00335986
-0.101923
0.00863522
-0.0970604
0.0133797
-0.0906874
0.0173616
-0.0831418
0.0204008
-0.0747871
0.0223791
-0.0659838
0.0232461
-0.057062
0.0230209
-0.0482989
0.0217889
-0.0399025
0.0196946
-0.0320043
0.0169295
-0.0246594
0.0137188
-0.0178569
0.010304
-0.0115366
0.00692626
-0.00561259
0.00380925
0.00114343
-0.098567
-0.00125655
-0.0979197
0.00322536
-0.0955282
0.00752519
-0.0915422
0.0114381
-0.0861761
0.0147835
-0.0796906
0.0174147
-0.0723734
0.0192271
-0.0645172
0.0201627
-0.0563992
0.0202131
-0.0482625
0.0194187
-0.0403022
0.0178654
-0.0326555
0.0156789
-0.025399
0.0130161
-0.0185514
0.0100552
-0.0120821
0.00698461
-0.00592573
0.00399117
0.0012487
-0.0902898
-0.000333961
-0.0900173
0.00324774
-0.0882367
0.00670458
-0.0850529
0.00988244
-0.080623
0.0126423
-0.0751436
0.0148668
-0.068837
0.0164663
-0.0619356
0.0173826
-0.0546665
0.017592
-0.0472372
0.0171054
-0.0398231
0.0159681
-0.0325588
0.0142563
-0.0255324
0.0120735
-0.0187845
0.00954413
-0.0123114
0.00680728
-0.00607224
0.00400901
0.00129467
-0.0815125
0.000559967
-0.0815564
0.00338293
-0.0803089
0.00612049
-0.0778395
0.00865804
-0.0742589
0.0108899
-0.0697111
0.0127239
-0.0643635
0.0140855
-0.0583962
0.0149209
-0.0519906
0.0151993
-0.0453188
0.0149141
-0.0385334
0.0140833
-0.0317594
0.0127483
-0.0250887
0.0109721
-0.018576
0.00883641
-0.0122395
0.00643775
-0.00606268
0.00388313
0.00128523
-0.0725039
0.00139155
-0.0728004
0.00358283
-0.0720026
0.00571449
-0.0701523
0.0077024
-0.0673239
0.00946742
-0.063619
0.0109385
-0.0591601
0.0120553
-0.0540828
0.0127709
-0.0485284
0.013053
-0.0426357
0.0128859
-0.0365329
0.0122708
-0.0303317
0.0112255
-0.0241209
0.00978431
-0.017963
0.00799655
-0.0118916
0.00592456
-0.00591143
0.00364148
0.00122845
-0.0635052
0.00212711
-0.0639898
0.00379889
-0.0635573
0.00542679
-0.0622288
0.00694997
-0.0600509
0.00831015
-0.0570921
0.00945358
-0.0534386
0.0103329
-0.0491898
0.0109088
-0.0444523
0.0111514
-0.0393347
0.0110412
-0.0339419
0.01057
-0.0283694
0.00974131
-0.022699
0.00857011
-0.0169947
0.00708262
-0.0112999
0.00531553
-0.00563558
0.00331489
0.0011347
-0.0547199
0.002735
-0.0553307
0.00398478
-0.055182
0.00519947
-0.0542803
0.00633586
-0.0526516
0.00735183
-0.050339
0.00820765
-0.0474008
0.00886716
-0.0439069
0.00929888
-0.0399353
0.00947697
-0.0355685
0.00938205
-0.0308892
0.0090019
-0.0259767
0.00833187
-0.0209027
0.00737514
-0.0157284
0.00614276
-0.0105015
0.00465348
-0.00525375
0.0029333
0.00101494
-0.0463071
0.00318666
-0.046987
0.00409798
-0.0470467
0.0049786
-0.0464826
0.00579848
-0.045306
0.0065279
-0.0435416
0.00713828
-0.0412264
0.00760289
-0.0384072
0.00789753
-0.0351393
0.00800127
-0.031483
0.00789692
-0.0275016
0.00757163
-0.0232585
0.00701723
-0.0188141
0.00623054
-0.0142237
0.0052136
-0.00953478
0.00397364
-0.00478488
0.00252312
0.000879483
-0.0383796
0.00345678
-0.0390781
0.00410032
-0.039278
0.00471518
-0.0389702
0.00528105
-0.0381558
0.00577759
-0.0368467
0.00618493
-0.0350642
0.00648404
-0.032838
0.00665721
-0.0302053
0.00668844
-0.0272087
0.00656381
-0.023895
0.00627186
-0.0203129
0.00580388
-0.0165115
0.00515413
-0.0125383
0.00432009
-0.00843727
0.00330255
-0.00424717
0.0021057
0.000737151
-0.031005
0.00352263
-0.0316781
0.00395766
-0.0319589
0.00436521
-0.0318351
0.00473208
-0.031302
0.00504494
-0.0303628
0.00529058
-0.0290281
0.00545611
-0.0273152
0.00552929
-0.0252476
0.00549869
-0.0228542
0.00535398
-0.0201681
0.00508611
-0.0172256
0.00468753
-0.0140647
0.00415237
-0.0107245
0.00347658
-0.00724316
0.00265807
-0.0036572
0.00169681
0.000594872
-0.0242096
0.00336289
-0.0248201
0.00363887
-0.0251307
0.00388895
-0.0251283
0.00410505
-0.0248054
0.00427897
-0.02416
0.00440248
-0.0231957
0.00446748
-0.0219214
0.00446611
-0.020351
0.00439091
-0.0185029
0.00423491
-0.0163994
0.00399179
-0.0140663
0.00365599
-0.0115319
0.0032228
-0.0088267
0.00268847
-0.00598196
0.00205033
-0.00302937
0.00130683
0.000457594
-0.0179847
0.00295606
-0.0185012
0.00311436
-0.0187984
0.00324965
-0.0188641
0.00335746
-0.0186902
0.0034332
-0.0182724
0.00347228
-0.0176103
0.00347014
-0.0167075
0.00342231
-0.0155712
0.0033245
-0.0142124
0.00317263
-0.0126454
0.0029629
-0.0108873
0.00269189
-0.00895827
0.00235655
-0.0068804
0.00195431
-0.00467773
0.00148311
-0.00237557
0.000941453
0.000328439
-0.0122939
0.00227873
-0.0126898
0.00235446
-0.0129371
0.00241209
-0.0130263
0.00244954
-0.01295
0.00246471
-0.0127037
0.00245549
-0.0122852
0.00241977
-0.0116954
0.00235551
-0.0109373
0.00226073
-0.0100168
0.00213355
-0.00894228
0.00197221
-0.00772439
0.00177508
-0.006376
0.0015407
-0.004912
0.00126784
-0.00334902
0.000955424
-0.00170522
0.000602663
0.000208998
-0.00708017
0.00130397
-0.00733259
0.00132779
-0.00749969
0.00134103
-0.00757517
0.00134303
-0.00755408
0.0013332
-0.00743291
0.0013109
-0.00720964
0.00127557
-0.0068838
0.00122662
-0.00645642
0.00116352
-0.00593011
0.00108577
-0.00530899
0.000992923
-0.00459867
0.000884555
-0.00380618
0.000760313
-0.00293989
0.0006199
-0.00200941
0.000463084
-0.00102553
0.000289704
9.96716e-05
-0.00227386
2.40689e-18
-0.00236264
1.90873e-18
-0.0024239
2.04571e-18
-0.0024554
1.99068e-18
-0.00245532
1.54947e-18
-0.00242234
1.47473e-18
-0.00235559
1.40342e-18
-0.0022547
1.05187e-18
-0.00211981
7.31814e-19
-0.00195159
5.22073e-19
-0.00175119
2.95081e-19
-0.0015203
2.96597e-19
-0.00126107
3.68632e-19
-0.000976135
2.58388e-19
-0.000668581
1.31938e-19
-0.000341908
5.28873e-20
1.05832e-20
0.0022003
-0.00167065
0.00229349
-0.00166715
0.00235972
-0.00164948
0.00239665
-0.00161781
0.00240236
-0.00157237
0.00237538
-0.00151342
0.00231475
-0.00144129
0.00221998
-0.00135635
0.00209109
-0.00125901
0.00192861
-0.0011497
0.00173359
-0.0010289
0.00150758
-0.000897095
0.00125261
-0.000754797
0.000971202
-0.000602523
0.000666312
-0.000440798
0.000341322
-0.000270144
-9.10824e-05
0.00641657
-0.00375147
0.00670886
-0.00371598
0.00692091
-0.00364814
0.00704547
-0.00354912
0.00707656
-0.00342028
0.00700966
-0.00326311
0.00684168
-0.00307925
0.00657106
-0.00287043
0.00619775
-0.00263847
0.00572326
-0.00238524
0.00515059
-0.00211264
0.00448425
-0.0018226
0.00373014
-0.001517
0.00289555
-0.0011977
0.00198902
-0.000866489
0.00102026
-0.000525083
-0.000175075
0.0104422
-0.0062915
0.0109497
-0.00619247
0.011323
-0.0060384
0.0115495
-0.00583251
0.0116193
-0.00557835
0.0115247
-0.00527974
0.0112608
-0.00494074
0.0108251
-0.00456555
0.010218
-0.00415848
0.00944196
-0.00372387
0.00850239
-0.00326602
0.00740685
-0.00278916
0.00616516
-0.00229736
0.00478917
-0.00179449
0.00329258
-0.00128414
0.00169066
-0.000769612
-0.000253837
0.0143317
-0.00934424
0.0150697
-0.00914502
0.0156165
-0.00886315
0.0159546
-0.00850518
0.0160701
-0.00807818
0.0159527
-0.00758965
0.0155962
-0.00704738
0.0149981
-0.0064593
0.0141595
-0.00583337
0.0130854
-0.00517746
0.0117839
-0.00449921
0.0102662
-0.00380589
0.00854631
-0.00310431
0.00664073
-0.00240072
0.00456775
-0.00170067
0.00234723
-0.00100897
-0.00032959
0.0181216
-0.0129657
0.0191041
-0.0126225
0.0198338
-0.0121637
0.0202883
-0.0116009
0.0204503
-0.0109465
0.0203078
-0.0102131
0.0198545
-0.00941399
0.019089
-0.00856222
0.0180148
-0.00767069
0.0166403
-0.00675182
0.0149777
-0.00581737
0.0130428
-0.00487816
0.0108543
-0.00394395
0.00843315
-0.00302322
0.00580171
-0.00212305
0.00298301
-0.00124899
-0.000404975
0.0218258
-0.0172117
0.0230649
-0.0166715
0.0239833
-0.0159772
0.0245539
-0.0151476
0.0247571
-0.0142025
0.0245806
-0.0131621
0.0240195
-0.0120467
0.0230753
-0.0108763
0.0217562
-0.00967013
0.0200755
-0.008446
0.0180511
-0.00722036
0.0157046
-0.00600769
0.0130598
-0.00482032
0.0101422
-0.00366818
0.00697711
-0.0025586
0.00358896
-0.00149627
-0.000483106
0.0254313
-0.022135
0.0269367
-0.0213335
0.0280456
-0.0203336
0.0287268
-0.0191642
0.0289599
-0.0178555
0.0287341
-0.0164379
0.0280483
-0.014941
0.0269097
-0.0133937
0.0253331
-0.0118225
0.0233393
-0.0102518
0.0209538
-0.00870266
0.018205
-0.00719272
0.0151226
-0.00573576
0.0117358
-0.00434147
0.0080717
-0.00301525
0.0041537
-0.00175827
-0.000567554
0.0288943
-0.0277814
0.030673
-0.0266409
0.0319697
-0.0252519
0.0327509
-0.0236576
0.0329969
-0.0219019
0.0327012
-0.0200287
0.0318696
-0.0180799
0.0305178
-0.0160949
0.0286706
-0.0141092
0.0263589
-0.0121536
0.0236176
-0.0102535
0.0204833
-0.00842834
0.0169914
-0.00669127
0.0131742
-0.00504892
0.00905846
-0.00350151
0.00466357
-0.00204313
-0.000662196
0.0321391
-0.034186
0.0341946
-0.0326138
0.0356722
-0.0307375
0.0365376
-0.0286195
0.0367748
-0.0263226
0.0363847
-0.0239077
0.0353835
-0.0214324
0.0337998
-0.0189485
0.0316715
-0.0165014
0.0290424
-0.0141282
0.025959
-0.0118571
0.0224666
-0.00970687
0.0186063
-0.00768667
0.0144117
-0.00579613
0.00990654
-0.004026
0.00510295
-0.00235896
-0.00077083
0.0350573
-0.04137
0.0373899
-0.0392566
0.0390377
-0.0367786
0.0399676
-0.0340243
0.0401707
-0.0310809
0.0396595
-0.0280316
0.0384654
-0.0249526
0.0366338
-0.0219106
0.0342198
-0.0189609
0.031283
-0.0161456
0.0278831
-0.0134933
0.0240743
-0.0110181
0.019902
-0.0087204
0.015399
-0.00658771
0.0105828
-0.00459616
0.00545486
-0.00271252
-0.000896496
0.0375107
-0.049337
0.040118
-0.0465553
0.0419224
-0.0433446
0.0428947
-0.0398271
0.0430371
-0.0361219
0.042379
-0.03234
0.0409718
-0.0285802
0.0388829
-0.0249254
0.0361885
-0.0214404
0.0329666
-0.0181699
0.0292907
-0.0151381
0.0252237
-0.0123492
0.0208129
-0.0097886
0.016087
-0.0074255
0.011054
-0.00521604
0.00570183
-0.00310708
-0.00104045
0.0393365
-0.0580712
0.0422148
-0.054476
0.0441611
-0.0503844
0.0451536
-0.0459632
0.0452105
-0.041372
0.0443835
-0.0367562
0.0427505
-0.032241
0.0404054
-0.0279267
0.0374495
-0.0238853
0.0339811
-0.0201598
0.0300877
-0.0167639
0.0258384
-0.013684
0.0212793
-0.0108833
0.0164313
-0.00830581
0.0112895
-0.00588287
0.00582698
-0.00353939
-0.00120079
0.0403559
-0.0675352
0.0435021
-0.0629639
0.0455774
-0.0578269
0.0465709
-0.0523487
0.0465226
-0.0467403
0.0455132
-0.0411889
0.0436527
-0.0358498
0.0410674
-0.03084
0.0378862
-0.0262356
0.0342289
-0.0220706
0.0301951
-0.0183394
0.0258568
-0.0150018
0.0212546
-0.0119895
0.0163969
-0.00921524
0.0112639
-0.00658255
0.00581512
-0.00399588
-0.00137086
0.0403859
-0.0776704
0.0438001
-0.071944
0.0459962
-0.0655822
0.0469787
-0.0588831
0.0468151
-0.0521217
0.0456221
-0.0455355
0.0435485
-0.0393127
0.0407573
-0.0335858
0.0374075
-0.0284279
0.0336392
-0.0238545
0.0295608
-0.0198294
0.0252421
-0.0162743
0.0207122
-0.0130809
0.0159633
-0.0101254
0.0109601
-0.0072842
0.00565398
-0.00444833
-0.00153745
0.0392535
-0.0883976
0.042942
-0.0813237
0.0452595
-0.0735448
0.0462299
-0.0654524
0.045955
-0.0574006
0.0445945
-0.0496859
0.0423421
-0.0425322
0.0394012
-0.0360826
0.0359617
-0.0303978
0.0321808
-0.0254616
0.0281701
-0.021193
0.0239898
-0.017463
0.0196513
-0.0141148
0.0151278
-0.0109868
0.0103713
-0.00793413
0.00533518
-0.00484952
-0.00167923
0.0368113
-0.0996185
0.04079
-0.0909951
0.043242
-0.0815974
0.0442149
-0.0719339
0.0438511
-0.0624557
0.0423604
-0.0535279
0.0399869
-0.0454109
0.036977
-0.0382508
0.0335494
-0.0320821
0.0298729
-0.0268399
0.026054
-0.0223814
0.0221344
-0.0185136
0.0181017
-0.0150257
0.0139088
-0.0117216
0.00950218
-0.00844997
0.00485496
-0.00512944
-0.0017655
0.0329542
-0.111219
0.0372512
-0.10084
0.0398673
-0.089616
0.0408766
-0.0782019
0.0404687
-0.0671661
0.0389097
-0.0569526
0.0364988
-0.0478564
0.0335254
-0.0400158
0.0302327
-0.0334201
0.0267924
-0.0279344
0.0232946
-0.0233344
0.0197527
-0.0193514
0.0161244
-0.0157189
0.0123452
-0.0122179
0.00836951
-0.00871582
0.00421457
-0.00519288
-0.00175582
0.0276336
-0.123071
0.0322918
-0.110733
0.0351206
-0.0974754
0.0362229
-0.0841335
0.0358407
-0.0714171
0.0343021
-0.0598594
0.0319641
-0.0497863
0.0291568
-0.0413112
0.0261401
-0.0343545
0.0230764
-0.0286851
0.0200255
-0.0239768
0.0169618
-0.0198752
0.0138098
-0.0160639
0.0104952
-0.0123243
0.0070007
-0.0085795
0.00342024
-0.00491928
-0.00160069
0.0208702
-0.135039
0.025948
-0.120548
0.0290588
-0.105055
0.030335
-0.0896145
0.0300746
-0.0751058
0.0286723
-0.0621616
0.026543
-0.0511311
0.0240525
-0.0420807
0.0214653
-0.0348312
0.0189187
-0.029025
0.0164268
-0.0242133
0.013914
-0.0199516
0.0112721
-0.0158901
0.00843124
-0.0118467
0.00543142
-0.00785284
0.00248269
-0.00416546
-0.00124368
0.0127615
-0.146975
0.0183319
-0.130161
0.0218148
-0.112243
0.0233696
-0.0945443
0.0233531
-0.0781456
0.0222282
-0.0637899
0.0204658
-0.0518377
0.0184581
-0.042279
0.0164588
-0.0347978
0.0145605
-0.0288764
0.0127141
-0.0239242
0.0107856
-0.0194108
0.00863976
-0.0149833
0.00623353
-0.0105496
0.003702
-0.00631608
0.00141633
-0.00277215
-0.000625084
-0.0090429
0.0792881
0.00770434
-0.0104149
0.0881734
-0.0118208
0.0969511
-0.0132503
0.105301
-0.0146816
0.112885
-0.0160819
0.119361
-0.0174082
0.124407
-0.0186094
0.127737
-0.019628
0.129115
-0.020403
0.128369
-0.0208717
0.125401
-0.0209722
0.120188
-0.020645
0.11278
-0.0198348
0.103301
-0.0184918
0.0919344
-0.0165721
0.0789204
-0.0140392
0.0645417
-0.0108639
0.0491143
-0.00702538
0.0329776
-0.00251146
0.0164859
0.00268052
0
0.00854289
-0.0161198
0.0150567
-0.03152
0.0221907
-0.0458608
0.0299002
-0.0588227
0.038126
-0.0701144
0.046794
-0.0794807
0.0558146
-0.0867123
0.065083
-0.0916546
0.0744801
-0.0942166
0.0838741
-0.094379
0.0931235
-0.0921988
0.10208
-0.087812