/*--------------------------------*- C++ -*----------------------------------*\
  =========                 |
  \\      /  F ield         | OpenFOAM: The Open Source CFD Toolbox
   \\    /   O peration     | Website:  https://openfoam.org
    \\  /    A nd           | Version:  6
     \\/     M anipulation  |
\*---------------------------------------------------------------------------*/
FoamFile
{
    version     2.0;
    format      ascii;
    class       volScalarField;
    location    "2.9";
    object      mag(U);
}
// * * * * * * * * * * * * * * * * * * * * * * * * * * * * * * * * * * * * * //

dimensions      [0 1 -1 0 0 0 0];

internalField   nonuniform List<scalar> 
10000
(
0.99997
0.99997
0.99997
0.99997
0.99997
0.99997
0.99997
0.99997
0.99997
0.99997
0.99997
0.99997
0.99997
0.99997
0.99997
0.99997
0.99997
0.99997
0.99997
0.99997
0.99997
0.99997
0.99997
0.99997
0.99997
0.99997
0.99997
0.99997
0.99997
0.99997
0.99997
0.99997
0.99997
0.99997
0.99997
0.99997
0.99997
0.99997
0.99997
0.99997
0.99997
0.99997
0.99997
0.99997
0.99997
0.99997
0.99997
0.99997
0.99997
0.99997
0.99997
0.999969
0.999968
0.999966
0.999965
0.999963
0.999962
0.99996
0.999958
0.999958
0.999959
0.999959
0.999962
0.999964
0.999968
0.999971
0.999974
0.999977
0.999979
0.99998
0.99998
0.99998
0.999979
0.999978
0.999976
0.999975
0.999973
0.999973
0.999971
0.999971
0.999971
0.99997
0.99997
0.99997
0.99997
0.99997
0.99997
0.99997
0.99997
0.99997
0.99997
0.99997
0.99997
0.99997
0.99997
0.99997
0.99997
0.99997
0.99997
0.99997
0.99997
0.99997
0.99997
0.99997
0.99997
0.99997
0.99997
0.99997
0.99997
0.99997
0.99997
0.99997
0.99997
0.99997
0.99997
0.99997
0.99997
0.99997
0.99997
0.99997
0.99997
0.99997
0.99997
0.99997
0.99997
0.99997
0.99997
0.99997
0.99997
0.99997
0.99997
0.99997
0.99997
0.99997
0.99997
0.99997
0.99997
0.99997
0.99997
0.99997
0.99997
0.99997
0.99997
0.99997
0.99997
0.99997
0.99997
0.999971
0.99997
0.999971
0.99997
0.999969
0.999968
0.999965
0.999963
0.99996
0.999958
0.999954
0.999953
0.999952
0.999953
0.999955
0.999958
0.999962
0.999967
0.999972
0.999977
0.999981
0.999983
0.999986
0.999986
0.999986
0.999984
0.999982
0.99998
0.999978
0.999976
0.999975
0.999973
0.999972
0.999971
0.999971
0.99997
0.99997
0.99997
0.99997
0.99997
0.99997
0.99997
0.99997
0.99997
0.99997
0.99997
0.99997
0.99997
0.99997
0.99997
0.99997
0.99997
0.99997
0.99997
0.99997
0.99997
0.99997
0.99997
0.99997
0.99997
0.99997
0.99997
0.99997
0.99997
0.99997
0.99997
0.99997
0.99997
0.99997
0.99997
0.99997
0.99997
0.99997
0.99997
0.99997
0.99997
0.99997
0.99997
0.99997
0.99997
0.99997
0.99997
0.99997
0.99997
0.99997
0.99997
0.99997
0.99997
0.99997
0.99997
0.99997
0.99997
0.99997
0.99997
0.99997
0.99997
0.99997
0.99997
0.999971
0.999971
0.999971
0.999971
0.999971
0.999971
0.999969
0.999967
0.999963
0.99996
0.999956
0.999952
0.999948
0.999946
0.999944
0.999945
0.999948
0.999952
0.999958
0.999966
0.999974
0.999981
0.999987
0.999991
0.999993
0.999994
0.999994
0.999992
0.999988
0.999986
0.999982
0.999979
0.999977
0.999974
0.999973
0.999972
0.999971
0.99997
0.99997
0.99997
0.99997
0.99997
0.99997
0.99997
0.99997
0.99997
0.99997
0.99997
0.99997
0.99997
0.99997
0.99997
0.99997
0.99997
0.99997
0.99997
0.99997
0.99997
0.99997
0.99997
0.99997
0.99997
0.99997
0.99997
0.99997
0.99997
0.99997
0.99997
0.99997
0.99997
0.99997
0.99997
0.99997
0.99997
0.99997
0.99997
0.99997
0.99997
0.99997
0.99997
0.99997
0.99997
0.99997
0.99997
0.99997
0.99997
0.99997
0.99997
0.99997
0.99997
0.99997
0.99997
0.99997
0.99997
0.99997
0.99997
0.99997
0.99997
0.99997
0.99997
0.999971
0.999972
0.999972
0.999972
0.999973
0.999971
0.999969
0.999966
0.999962
0.999957
0.99995
0.999944
0.999939
0.999935
0.999933
0.999934
0.999939
0.999946
0.999954
0.999966
0.999976
0.999987
0.999996
1
1.00001
1.00001
1.00001
1
0.999999
0.999993
0.999988
0.999984
0.99998
0.999977
0.999975
0.999972
0.999972
0.999971
0.99997
0.99997
0.99997
0.99997
0.99997
0.99997
0.99997
0.99997
0.99997
0.99997
0.99997
0.99997
0.99997
0.99997
0.99997
0.99997
0.99997
0.99997
0.99997
0.99997
0.99997
0.99997
0.99997
0.99997
0.99997
0.99997
0.99997
0.99997
0.99997
0.99997
0.99997
0.99997
0.99997
0.99997
0.99997
0.99997
0.99997
0.99997
0.99997
0.99997
0.99997
0.99997
0.99997
0.99997
0.99997
0.99997
0.99997
0.99997
0.99997
0.99997
0.99997
0.99997
0.99997
0.99997
0.99997
0.99997
0.99997
0.99997
0.99997
0.99997
0.99997
0.999971
0.999972
0.999973
0.999974
0.999974
0.999975
0.999973
0.99997
0.999966
0.99996
0.999952
0.999943
0.999934
0.999927
0.999921
0.999919
0.99992
0.999927
0.999937
0.999951
0.999966
0.999982
0.999996
1.00001
1.00002
1.00002
1.00002
1.00002
1.00002
1.00001
1
0.999998
0.999991
0.999986
0.999981
0.999976
0.999975
0.999972
0.999971
0.99997
0.99997
0.99997
0.99997
0.99997
0.99997
0.99997
0.99997
0.99997
0.99997
0.99997
0.99997
0.99997
0.99997
0.99997
0.99997
0.99997
0.99997
0.99997
0.99997
0.99997
0.99997
0.99997
0.99997
0.99997
0.99997
0.99997
0.99997
0.99997
0.99997
0.99997
0.99997
0.99997
0.99997
0.99997
0.99997
0.99997
0.99997
0.99997
0.99997
0.99997
0.99997
0.99997
0.99997
0.99997
0.99997
0.99997
0.99997
0.99997
0.99997
0.99997
0.99997
0.99997
0.99997
0.99997
0.99997
0.99997
0.99997
0.99997
0.999971
0.99997
0.999972
0.999974
0.999975
0.999976
0.999977
0.999978
0.999975
0.999972
0.999966
0.999957
0.999947
0.999934
0.999922
0.999911
0.999905
0.999902
0.999904
0.999913
0.999928
0.999947
0.999969
0.999991
1.00001
1.00003
1.00004
1.00005
1.00005
1.00005
1.00004
1.00003
1.00002
1.00001
1
0.999992
0.999986
0.99998
0.999976
0.999973
0.999972
0.99997
0.99997
0.99997
0.99997
0.99997
0.99997
0.99997
0.99997
0.99997
0.99997
0.99997
0.99997
0.99997
0.99997
0.99997
0.99997
0.99997
0.99997
0.99997
0.99997
0.99997
0.99997
0.99997
0.99997
0.99997
0.99997
0.99997
0.99997
0.99997
0.99997
0.99997
0.99997
0.99997
0.99997
0.99997
0.99997
0.99997
0.99997
0.99997
0.99997
0.99997
0.99997
0.99997
0.99997
0.99997
0.99997
0.99997
0.99997
0.99997
0.99997
0.99997
0.99997
0.99997
0.99997
0.99997
0.99997
0.99997
0.99997
0.99997
0.999971
0.999972
0.999973
0.999975
0.999977
0.999979
0.999981
0.999982
0.99998
0.999975
0.999967
0.999954
0.99994
0.999924
0.999907
0.999893
0.999884
0.999882
0.999886
0.9999
0.999921
0.999949
0.999978
1.00001
1.00004
1.00006
1.00008
1.00008
1.00009
1.00008
1.00007
1.00006
1.00004
1.00003
1.00001
1
0.999992
0.999984
0.999979
0.999975
0.999973
0.99997
0.99997
0.999969
0.99997
0.99997
0.99997
0.99997
0.99997
0.99997
0.99997
0.99997
0.99997
0.99997
0.99997
0.99997
0.99997
0.99997
0.99997
0.99997
0.99997
0.99997
0.99997
0.99997
0.99997
0.99997
0.99997
0.99997
0.99997
0.99997
0.99997
0.99997
0.99997
0.99997
0.99997
0.99997
0.99997
0.99997
0.99997
0.99997
0.99997
0.99997
0.99997
0.99997
0.99997
0.99997
0.99997
0.99997
0.99997
0.99997
0.99997
0.99997
0.99997
0.99997
0.99997
0.99997
0.999969
0.999969
0.99997
0.99997
0.999972
0.999972
0.999975
0.999979
0.999982
0.999985
0.999987
0.999988
0.999986
0.99998
0.999968
0.999952
0.999933
0.999911
0.99989
0.999873
0.999862
0.99986
0.999871
0.999891
0.999922
0.99996
1
1.00004
1.00008
1.00011
1.00013
1.00014
1.00014
1.00013
1.00011
1.00009
1.00007
1.00005
1.00003
1.00001
1
0.999989
0.999982
0.999976
0.999973
0.999971
0.99997
0.999969
0.999969
0.999969
0.99997
0.99997
0.99997
0.99997
0.99997
0.99997
0.99997
0.99997
0.99997
0.99997
0.99997
0.99997
0.99997
0.99997
0.99997
0.99997
0.99997
0.99997
0.99997
0.99997
0.99997
0.99997
0.99997
0.99997
0.99997
0.99997
0.99997
0.99997
0.99997
0.99997
0.99997
0.99997
0.99997
0.99997
0.99997
0.99997
0.99997
0.99997
0.99997
0.99997
0.99997
0.99997
0.99997
0.99997
0.99997
0.99997
0.99997
0.99997
0.99997
0.999969
0.999969
0.99997
0.99997
0.99997
0.999973
0.999974
0.999978
0.999982
0.999988
0.999992
0.999996
0.999997
0.999995
0.999986
0.999971
0.99995
0.999924
0.999897
0.99987
0.99985
0.99984
0.999843
0.99986
0.999893
0.999938
0.999992
1.00005
1.0001
1.00015
1.00019
1.00021
1.00022
1.00022
1.0002
1.00018
1.00015
1.00011
1.00008
1.00005
1.00003
1.00001
0.999996
0.999986
0.999978
0.999974
0.99997
0.99997
0.999969
0.999969
0.999969
0.999969
0.99997
0.99997
0.99997
0.99997
0.99997
0.99997
0.99997
0.99997
0.99997
0.99997
0.99997
0.99997
0.99997
0.99997
0.99997
0.99997
0.99997
0.99997
0.99997
0.99997
0.99997
0.99997
0.99997
0.99997
0.99997
0.99997
0.99997
0.99997
0.99997
0.99997
0.99997
0.99997
0.99997
0.99997
0.99997
0.99997
0.99997
0.99997
0.99997
0.99997
0.99997
0.99997
0.99997
0.99997
0.99997
0.99997
0.99997
0.999969
0.999969
0.99997
0.999969
0.99997
0.999971
0.999973
0.999977
0.999981
0.999988
0.999995
1
1.00001
1.00001
1.00001
0.999995
0.999975
0.999948
0.999915
0.999881
0.99985
0.999828
0.999821
0.999832
0.999863
0.999915
0.999981
1.00006
1.00014
1.00021
1.00027
1.00032
1.00034
1.00035
1.00033
1.0003
1.00026
1.00022
1.00017
1.00013
1.00009
1.00005
1.00003
1
0.99999
0.999979
0.999974
0.99997
0.999969
0.999968
0.999968
0.999968
0.999968
0.999969
0.99997
0.99997
0.99997
0.99997
0.99997
0.99997
0.99997
0.99997
0.99997
0.99997
0.99997
0.99997
0.99997
0.99997
0.99997
0.99997
0.99997
0.99997
0.99997
0.99997
0.99997
0.99997
0.99997
0.99997
0.99997
0.99997
0.99997
0.99997
0.99997
0.99997
0.99997
0.99997
0.99997
0.99997
0.99997
0.99997
0.99997
0.99997
0.99997
0.99997
0.99997
0.99997
0.99997
0.99997
0.99997
0.999969
0.999969
0.999969
0.999969
0.999969
0.999969
0.999971
0.999974
0.999979
0.999985
0.999994
1
1.00001
1.00002
1.00002
1.00002
1
0.999978
0.999944
0.999902
0.99986
0.999826
0.999806
0.999807
0.999834
0.999888
0.999969
1.00007
1.00018
1.00029
1.00039
1.00047
1.00052
1.00054
1.00053
1.0005
1.00045
1.00039
1.00032
1.00025
1.00018
1.00013
1.00008
1.00004
1.00001
0.999995
0.999981
0.999973
0.999969
0.999967
0.999966
0.999967
0.999967
0.999968
0.999968
0.999968
0.99997
0.99997
0.99997
0.99997
0.99997
0.99997
0.99997
0.99997
0.99997
0.99997
0.99997
0.99997
0.99997
0.99997
0.99997
0.99997
0.99997
0.99997
0.99997
0.99997
0.99997
0.99997
0.99997
0.99997
0.99997
0.99997
0.99997
0.99997
0.99997
0.99997
0.99997
0.99997
0.99997
0.99997
0.99997
0.99997
0.99997
0.99997
0.99997
0.99997
0.99997
0.99997
0.99997
0.999969
0.999969
0.99997
0.999968
0.999968
0.999968
0.999969
0.999971
0.999975
0.999982
0.999991
1
1.00002
1.00003
1.00004
1.00004
1.00003
1.00001
0.999978
0.999932
0.99988
0.99983
0.999794
0.999779
0.999796
0.99985
0.999941
1.00007
1.00022
1.00038
1.00054
1.00067
1.00077
1.00083
1.00085
1.00082
1.00076
1.00067
1.00057
1.00046
1.00036
1.00027
1.00018
1.00012
1.00007
1.00003
1
0.999982
0.999972
0.999966
0.999964
0.999964
0.999964
0.999966
0.999966
0.999968
0.999968
0.999968
0.99997
0.99997
0.99997
0.99997
0.99997
0.99997
0.99997
0.99997
0.99997
0.99997
0.99997
0.99997
0.99997
0.99997
0.99997
0.99997
0.99997
0.99997
0.99997
0.99997
0.99997
0.99997
0.99997
0.99997
0.99997
0.99997
0.99997
0.99997
0.99997
0.99997
0.99997
0.99997
0.99997
0.99997
0.99997
0.99997
0.99997
0.99997
0.99997
0.99997
0.99997
0.99997
0.999969
0.999968
0.999969
0.999968
0.999967
0.999968
0.999969
0.999972
0.999976
0.999985
0.999997
1.00001
1.00003
1.00005
1.00006
1.00006
1.00005
1.00001
0.999966
0.999905
0.999839
0.999781
0.999743
0.99974
0.999783
0.999878
1.00003
1.00022
1.00045
1.00069
1.00092
1.00111
1.00124
1.00131
1.00131
1.00125
1.00114
1.001
1.00084
1.00068
1.00052
1.00038
1.00027
1.00017
1.0001
1.00004
1.00001
0.999983
0.99997
0.999962
0.99996
0.999961
0.999962
0.999963
0.999965
0.999966
0.999968
0.999968
0.999968
0.99997
0.99997
0.99997
0.99997
0.99997
0.99997
0.99997
0.99997
0.99997
0.99997
0.99997
0.99997
0.99997
0.99997
0.99997
0.99997
0.99997
0.99997
0.99997
0.99997
0.99997
0.99997
0.99997
0.99997
0.99997
0.99997
0.99997
0.99997
0.99997
0.99997
0.99997
0.99997
0.99997
0.99997
0.99997
0.99997
0.99997
0.99997
0.99997
0.99997
0.999969
0.999969
0.999969
0.999968
0.999967
0.999966
0.999966
0.999968
0.99997
0.999977
0.999988
1
1.00002
1.00005
1.00006
1.00008
1.00007
1.00005
1
0.99993
0.999846
0.99976
0.999689
0.999651
0.999663
0.999742
0.999897
1.00013
1.00042
1.00076
1.00112
1.00145
1.00173
1.00192
1.00201
1.002
1.00189
1.00171
1.00148
1.00123
1.00098
1.00075
1.00055
1.00038
1.00024
1.00014
1.00007
1.00002
0.999983
0.999966
0.999958
0.999955
0.999955
0.999958
0.99996
0.999962
0.999965
0.999966
0.999968
0.999968
0.999968
0.99997
0.99997
0.99997
0.99997
0.99997
0.99997
0.99997
0.99997
0.99997
0.99997
0.99997
0.99997
0.99997
0.99997
0.99997
0.99997
0.99997
0.99997
0.99997
0.99997
0.99997
0.99997
0.99997
0.99997
0.99997
0.99997
0.99997
0.99997
0.99997
0.99997
0.99997
0.99997
0.99997
0.99997
0.99997
0.99997
0.99997
0.99997
0.999969
0.999969
0.999969
0.999968
0.999967
0.999966
0.999964
0.999965
0.999966
0.999969
0.999978
0.999991
1.00001
1.00003
1.00006
1.00008
1.00009
1.00007
1.00003
0.99995
0.999846
0.999726
0.999608
0.999514
0.999469
0.999498
0.999619
0.999849
1.00019
1.00062
1.00112
1.00165
1.00214
1.00256
1.00286
1.00299
1.00297
1.00281
1.00253
1.00218
1.00181
1.00143
1.00109
1.00079
1.00054
1.00035
1.0002
1.0001
1.00003
0.999984
0.999961
0.999949
0.999946
0.999949
0.999952
0.999956
0.999959
0.999962
0.999965
0.999967
0.999968
0.999968
0.99997
0.99997
0.99997
0.99997
0.99997
0.99997
0.99997
0.99997
0.99997
0.99997
0.99997
0.99997
0.99997
0.99997
0.99997
0.99997
0.99997
0.99997
0.99997
0.99997
0.99997
0.99997
0.99997
0.99997
0.99997
0.99997
0.99997
0.99997
0.99997
0.99997
0.99997
0.99997
0.99997
0.99997
0.99997
0.99997
0.99997
0.99997
0.999969
0.999969
0.999968
0.999967
0.999966
0.999964
0.999962
0.999961
0.999962
0.999966
0.999976
0.999992
1.00002
1.00004
1.00007
1.00008
1.00008
1.00004
0.999961
0.999837
0.999678
0.999499
0.999325
0.999186
0.999116
0.999145
0.999304
0.999613
1.00008
1.00069
1.00141
1.00218
1.00293
1.00358
1.00405
1.0043
1.0043
1.00408
1.00369
1.00318
1.00263
1.00208
1.00157
1.00113
1.00078
1.0005
1.00029
1.00014
1.00005
0.999987
0.999954
0.99994
0.999936
0.999939
0.999944
0.99995
0.999955
0.99996
0.999963
0.999966
0.999967
0.999968
0.999968
0.99997
0.99997
0.99997
0.99997
0.99997
0.99997
0.99997
0.99997
0.99997
0.99997
0.99997
0.99997
0.99997
0.99997
0.99997
0.99997
0.99997
0.99997
0.99997
0.99997
0.99997
0.99997
0.99997
0.99997
0.99997
0.99997
0.99997
0.99997
0.99997
0.99997
0.99997
0.99997
0.99997
0.99997
0.99997
0.99997
0.999969
0.999969
0.999968
0.999967
0.999966
0.999964
0.999962
0.999958
0.999956
0.999957
0.999962
0.999972
0.999991
1.00002
1.00004
1.00007
1.00007
1.00004
0.99996
0.999819
0.999617
0.999366
0.999089
0.99882
0.998593
0.998451
0.998439
0.998599
0.998967
0.999562
1.00038
1.00138
1.00249
1.00362
1.00463
1.00542
1.00589
1.006
1.00577
1.00526
1.00457
1.00378
1.003
1.00227
1.00163
1.00112
1.00071
1.00042
1.00021
1.00008
0.999992
0.999947
0.999927
0.999923
0.999926
0.999934
0.999942
0.99995
0.999956
0.99996
0.999963
0.999966
0.999967
0.999968
0.999969
0.99997
0.99997
0.99997
0.99997
0.99997
0.99997
0.99997
0.99997
0.99997
0.99997
0.99997
0.99997
0.99997
0.99997
0.99997
0.99997
0.99997
0.99997
0.99997
0.99997
0.99997
0.99997
0.99997
0.99997
0.99997
0.99997
0.99997
0.99997
0.99997
0.99997
0.99997
0.99997
0.99997
0.99997
0.999969
0.999969
0.999968
0.999968
0.999966
0.999964
0.999962
0.999958
0.999953
0.99995
0.999949
0.999954
0.999965
0.999985
1.00001
1.00004
1.00005
1.00002
0.999946
0.999792
0.999551
0.999224
0.998829
0.998392
0.997954
0.997558
0.997255
0.997104
0.997174
0.997525
0.998206
0.999229
1.00057
1.00214
1.00381
1.00539
1.00672
1.00762
1.008
1.00787
1.0073
1.00641
1.00536
1.00427
1.00324
1.00234
1.0016
1.00103
1.00061
1.00032
1.00012
1.00001
0.999942
0.999914
0.999907
0.999911
0.99992
0.999932
0.999942
0.999951
0.999957
0.999962
0.999965
0.999967
0.999968
0.999968
0.99997
0.99997
0.99997
0.99997
0.99997
0.99997
0.99997
0.99997
0.99997
0.99997
0.99997
0.99997
0.99997
0.99997
0.99997
0.99997
0.99997
0.99997
0.99997
0.99997
0.99997
0.99997
0.99997
0.99997
0.99997
0.99997
0.99997
0.99997
0.99997
0.99997
0.99997
0.99997
0.99997
0.99997
0.999969
0.999969
0.999968
0.999967
0.999965
0.999961
0.999958
0.999953
0.999946
0.999941
0.999938
0.999941
0.999952
0.999971
0.999992
1.00001
0.999991
0.99992
0.999761
0.99949
0.99909
0.99857
0.997947
0.997254
0.99653
0.995821
0.995188
0.994717
0.994509
0.994678
0.995323
0.996504
0.998213
1.00036
1.00279
1.00524
1.00743
1.0091
1.01006
1.01026
1.00977
1.00875
1.00742
1.00597
1.00457
1.00332
1.00229
1.00149
1.00089
1.00047
1.0002
1.00003
0.999941
0.999899
0.999888
0.999892
0.999906
0.99992
0.999933
0.999944
0.999953
0.999958
0.999962
0.999966
0.999967
0.999968
0.999969
0.99997
0.99997
0.99997
0.99997
0.99997
0.99997
0.99997
0.99997
0.99997
0.99997
0.99997
0.99997
0.99997
0.99997
0.99997
0.99997
0.99997
0.99997
0.99997
0.99997
0.99997
0.99997
0.99997
0.99997
0.99997
0.99997
0.99997
0.99997
0.99997
0.99997
0.99997
0.99997
0.99997
0.999969
0.999968
0.999968
0.999966
0.999962
0.999958
0.999953
0.999945
0.999937
0.999928
0.999924
0.999924
0.999932
0.999945
0.999956
0.999944
0.999882
0.999727
0.999441
0.998986
0.998349
0.997535
0.996567
0.995469
0.994271
0.993012
0.991768
0.990659
0.989852
0.989543
0.989921
0.991123
0.99319
0.996048
0.99949
1.00318
1.00671
1.00965
1.01167
1.01261
1.0125
1.01153
1.00999
1.00817
1.00633
1.00465
1.00324
1.00212
1.00129
1.00071
1.00032
1.00008
0.99995
0.999889
0.999868
0.999873
0.999887
0.999905
0.999923
0.999937
0.999947
0.999955
0.99996
0.999964
0.999966
0.999967
0.999968
0.99997
0.99997
0.99997
0.99997
0.99997
0.99997
0.99997
0.99997
0.99997
0.99997
0.99997
0.99997
0.99997
0.99997
0.99997
0.99997
0.99997
0.99997
0.99997
0.99997
0.99997
0.99997
0.99997
0.99997
0.99997
0.99997
0.99997
0.99997
0.99997
0.99997
0.99997
0.99997
0.999969
0.999969
0.999968
0.999967
0.999964
0.999961
0.999955
0.999946
0.999937
0.999925
0.999912
0.999903
0.999899
0.9999
0.999903
0.99989
0.999835
0.999692
0.999406
0.998922
0.998196
0.997212
0.995973
0.994492
0.99277
0.990807
0.988631
0.986335
0.984097
0.982189
0.98094
0.980682
0.981673
0.984036
0.987719
0.992481
0.997881
1.00334
1.00824
1.01201
1.01433
1.01511
1.01454
1.01298
1.01086
1.00857
1.00639
1.00451
1.00299
1.00185
1.00104
1.0005
1.00017
0.999977
0.999884
0.99985
0.99985
0.999866
0.999888
0.99991
0.999927
0.999941
0.99995
0.999958
0.999962
0.999965
0.999967
0.999968
0.999969
0.99997
0.99997
0.99997
0.99997
0.99997
0.99997
0.99997
0.99997
0.99997
0.99997
0.99997
0.99997
0.99997
0.99997
0.99997
0.99997
0.99997
0.99997
0.99997
0.99997
0.99997
0.99997
0.99997
0.99997
0.99997
0.99997
0.99997
0.99997
0.99997
0.99997
0.99997
0.999969
0.999969
0.999967
0.999966
0.999963
0.999958
0.99995
0.99994
0.999925
0.999909
0.999892
0.999877
0.999865
0.999854
0.999835
0.999784
0.999656
0.999388
0.998904
0.998131
0.997019
0.995547
0.993708
0.991484
0.988823
0.985671
0.982041
0.978054
0.973991
0.970278
0.967452
0.966053
0.966513
0.969069
0.973703
0.980124
0.987774
0.995879
1.00356
1.00998
1.01453
1.01696
1.01737
1.01619
1.01398
1.01129
1.00858
1.00615
1.00415
1.00262
1.00151
1.00077
1.0003
1.00003
0.999891
0.999836
0.999828
0.999844
0.999869
0.999894
0.999916
0.999933
0.999946
0.999954
0.99996
0.999964
0.999966
0.999967
0.999969
0.99997
0.99997
0.99997
0.99997
0.99997
0.99997
0.99997
0.99997
0.99997
0.99997
0.99997
0.99997
0.99997
0.99997
0.99997
0.99997
0.99997
0.99997
0.99997
0.99997
0.99997
0.99997
0.99997
0.99997
0.99997
0.99997
0.99997
0.99997
0.99997
0.99997
0.99997
0.999969
0.999968
0.999966
0.999965
0.999961
0.999954
0.999945
0.999931
0.999912
0.99989
0.999866
0.999842
0.999818
0.999789
0.999736
0.999621
0.999381
0.998926
0.998157
0.99698
0.995341
0.993209
0.990551
0.987273
0.983235
0.97831
0.972488
0.965963
0.959165
0.952761
0.94757
0.944422
0.943987
0.946638
0.952387
0.960869
0.971368
0.982886
0.994259
1.00433
1.01216
1.0172
1.01942
1.01922
1.0173
1.0144
1.01121
1.00819
1.00563
1.00362
1.00215
1.00114
1.0005
1.00012
0.999918
0.999831
0.999809
0.999822
0.999849
0.999878
0.999904
0.999925
0.999941
0.999951
0.999958
0.999963
0.999966
0.999967
0.999969
0.999969
0.99997
0.99997
0.99997
0.99997
0.99997
0.99997
0.99997
0.99997
0.99997
0.99997
0.99997
0.99997
0.99997
0.99997
0.99997
0.99997
0.99997
0.99997
0.99997
0.99997
0.99997
0.99997
0.99997
0.99997
0.99997
0.99997
0.99997
0.99997
0.99997
0.99997
0.999969
0.999968
0.999966
0.999963
0.999958
0.99995
0.999937
0.999919
0.999896
0.999867
0.999834
0.999797
0.999757
0.999698
0.999592
0.999383
0.998978
0.998259
0.997093
0.995377
0.993047
0.990056
0.9863
0.981567
0.975577
0.968114
0.959175
0.949068
0.938455
0.928332
0.919899
0.914366
0.912699
0.915431
0.92257
0.933616
0.947629
0.963344
0.979303
0.994016
1.00619
1.01493
1.01995
1.02155
1.02048
1.01773
1.01421
1.01064
1.00746
1.0049
1.00299
1.00165
1.00078
1.00026
0.999973
0.999839
0.999797
0.999802
0.999828
0.99986
0.999891
0.999915
0.999934
0.999947
0.999956
0.999962
0.999965
0.999967
0.999968
0.999969
0.99997
0.99997
0.99997
0.99997
0.99997
0.99997
0.99997
0.99997
0.99997
0.99997
0.99997
0.99997
0.99997
0.99997
0.99997
0.99997
0.99997
0.99997
0.99997
0.99997
0.99997
0.99997
0.99997
0.99997
0.99997
0.99997
0.99997
0.99997
0.99997
0.99997
0.999969
0.999967
0.999966
0.999962
0.999955
0.999945
0.999929
0.999907
0.999877
0.999839
0.999795
0.999744
0.999678
0.999576
0.999393
0.999047
0.998412
0.997329
0.995639
0.99323
0.990035
0.98596
0.980773
0.974074
0.965415
0.954497
0.941362
0.926498
0.910886
0.895947
0.883385
0.874891
0.87179
0.874775
0.883785
0.898071
0.916361
0.937053
0.958378
0.97856
0.995984
1.00942
1.01825
1.02257
1.02311
1.021
1.01744
1.01342
1.00964
1.00647
1.00404
1.00232
1.00117
1.00046
1.00006
0.999868
0.999794
0.999787
0.99981
0.999844
0.999877
0.999905
0.999927
0.999943
0.999953
0.99996
0.999964
0.999966
0.999967
0.999969
0.99997
0.99997
0.99997
0.99997
0.99997
0.99997
0.99997
0.99997
0.99997
0.99997
0.99997
0.99997
0.99997
0.99997
0.99997
0.99997
0.99997
0.99997
0.99997
0.99997
0.99997
0.99997
0.99997
0.99997
0.99997
0.99997
0.99997
0.99997
0.99997
0.999969
0.999968
0.999966
0.999964
0.99996
0.999952
0.999939
0.99992
0.999892
0.999854
0.999808
0.999749
0.999677
0.999577
0.999416
0.999123
0.99859
0.997645
0.996084
0.99373
0.990473
0.98624
0.980835
0.973817
0.964543
0.952388
0.937
0.918513
0.897667
0.875842
0.855006
0.837499
0.825622
0.821137
0.82486
0.836539
0.855002
0.878471
0.904898
0.932201
0.958388
0.98164
1.00046
1.01392
1.02181
1.02475
1.0239
1.02069
1.01643
1.01212
1.00833
1.00533
1.00315
1.00167
1.00074
1.0002
0.999923
0.999805
0.999779
0.999795
0.999829
0.999865
0.999896
0.99992
0.999938
0.99995
0.999958
0.999963
0.999966
0.999967
0.999969
0.999969
0.99997
0.99997
0.99997
0.99997
0.99997
0.99997
0.99997
0.99997
0.99997
0.99997
0.99997
0.99997
0.99997
0.99997
0.99997
0.99997
0.99997
0.99997
0.99997
0.99997
0.99997
0.99997
0.99997
0.99997
0.99997
0.99997
0.99997
0.99997
0.999969
0.999968
0.999966
0.999963
0.999958
0.999949
0.999932
0.999909
0.999875
0.99983
0.999772
0.999696
0.999597
0.999452
0.999208
0.998771
0.997986
0.996638
0.994477
0.991319
0.987076
0.98164
0.97464
0.965339
0.952816
0.936288
0.915403
0.890434
0.862418
0.833216
0.805472
0.782344
0.766915
0.761464
0.766869
0.782464
0.806375
0.83608
0.868962
0.902625
0.934969
0.964146
0.988563
1.00705
1.01912
1.02511
1.02613
1.02374
1.01954
1.01482
1.01044
1.00685
1.00416
1.0023
1.0011
1.00039
1.00001
0.999836
0.99978
0.999785
0.999816
0.999853
0.999887
0.999914
0.999933
0.999947
0.999956
0.999961
0.999966
0.999967
0.999969
0.999969
0.99997
0.99997
0.99997
0.99997
0.99997
0.99997
0.99997
0.99997
0.99997
0.99997
0.99997
0.99997
0.99997
0.99997
0.99997
0.99997
0.99997
0.99997
0.99997
0.99997
0.99997
0.99997
0.99997
0.99997
0.99997
0.99997
0.99997
0.99997
0.999969
0.999968
0.999966
0.999962
0.999957
0.999944
0.999926
0.999899
0.999858
0.999804
0.999732
0.999637
0.999502
0.999298
0.998948
0.99832
0.997215
0.995362
0.992477
0.98839
0.983056
0.976279
0.967408
0.955339
0.93888
0.917152
0.88984
0.857382
0.821131
0.7835
0.747961
0.718728
0.699918
0.694431
0.703064
0.724389
0.7554
0.792527
0.832462
0.872549
0.910743
0.945386
0.975009
0.998379
1.01475
1.02417
1.02754
1.02642
1.02259
1.01765
1.01276
1.00858
1.00535
1.00306
1.00156
1.00064
1.00014
0.99989
0.999797
0.999783
0.999808
0.999843
0.999878
0.999907
0.999929
0.999945
0.999954
0.99996
0.999965
0.999966
0.999969
0.999969
0.99997
0.99997
0.99997
0.99997
0.99997
0.99997
0.99997
0.99997
0.99997
0.99997
0.99997
0.99997
0.99997
0.99997
0.99997
0.99997
0.99997
0.99997
0.99997
0.99997
0.99997
0.99997
0.99997
0.99997
0.99997
0.99997
0.99997
0.99997
0.999969
0.999967
0.999966
0.999961
0.999953
0.999941
0.999919
0.999887
0.999841
0.999774
0.999689
0.999571
0.999393
0.999115
0.99863
0.997762
0.996257
0.993798
0.990078
0.984981
0.978495
0.970264
0.959245
0.943937
0.922936
0.895332
0.860878
0.820155
0.774821
0.727888
0.683836
0.648243
0.626609
0.622624
0.636779
0.666303
0.70645
0.75222
0.799552
0.845679
0.888867
0.927912
0.961722
0.989203
1.00948
1.02228
1.0282
1.02865
1.02548
1.02052
1.01522
1.01047
1.00669
1.00395
1.00211
1.00096
1.0003
0.99997
0.999828
0.999792
0.999805
0.999837
0.999872
0.999903
0.999925
0.999941
0.999953
0.99996
0.999964
0.999966
0.999968
0.999969
0.99997
0.99997
0.99997
0.99997
0.99997
0.99997
0.99997
0.99997
0.99997
0.99997
0.99997
0.99997
0.99997
0.99997
0.99997
0.99997
0.99997
0.99997
0.99997
0.99997
0.99997
0.99997
0.99997
0.99997
0.99997
0.99997
0.99997
0.999969
0.999968
0.999967
0.999965
0.99996
0.999951
0.999937
0.999912
0.999876
0.999823
0.999746
0.999645
0.999498
0.999268
0.998896
0.99825
0.997089
0.995106
0.991945
0.987311
0.981171
0.973527
0.963757
0.950343
0.931408
0.905431
0.87155
0.829577
0.780178
0.725258
0.668436
0.615348
0.573307
0.549737
0.549451
0.57228
0.61319
0.664832
0.72037
0.775028
0.826226
0.872905
0.914646
0.950998
0.981217
1.00443
1.02008
1.02839
1.0305
1.02817
1.02337
1.01776
1.0125
1.00817
1.00495
1.00274
1.00134
1.00052
1.00008
0.999879
0.99981
0.999809
0.999835
0.999869
0.999898
0.999922
0.99994
0.999951
0.999959
0.999964
0.999966
0.999968
0.999969
0.999969
0.99997
0.99997
0.99997
0.99997
0.99997
0.99997
0.99997
0.99997
0.99997
0.99997
0.99997
0.99997
0.99997
0.99997
0.99997
0.99997
0.99997
0.99997
0.99997
0.99997
0.99997
0.99997
0.99997
0.99997
0.99997
0.99997
0.99997
0.999968
0.999967
0.999965
0.999958
0.999949
0.999932
0.999905
0.999864
0.999807
0.999717
0.999598
0.999424
0.999131
0.998646
0.997806
0.996301
0.993765
0.989826
0.984245
0.977091
0.968331
0.956973
0.940986
0.918199
0.887095
0.846922
0.797534
0.739586
0.675118
0.608259
0.545811
0.497184
0.472637
0.478853
0.514433
0.57058
0.636248
0.702446
0.763863
0.818523
0.86651
0.908587
0.945237
0.976263
1.00092
1.01843
1.02861
1.03219
1.03072
1.02616
1.02034
1.01461
1.00976
1.00605
1.00346
1.00178
1.00077
1.00022
0.999949
0.999843
0.999822
0.999839
0.999868
0.999897
0.99992
0.999938
0.99995
0.999958
0.999963
0.999966
0.999968
0.999969
0.999969
0.99997
0.99997
0.99997
0.99997
0.99997
0.99997
0.99997
0.99997
0.99997
0.99997
0.99997
0.99997
0.99997
0.99997
0.99997
0.99997
0.99997
0.99997
0.99997
0.99997
0.99997
0.99997
0.99997
0.99997
0.99997
0.99997
0.999969
0.999968
0.999966
0.999964
0.999958
0.999946
0.99993
0.9999
0.999853
0.999792
0.999691
0.99955
0.999346
0.998983
0.998363
0.997301
0.995409
0.992253
0.98749
0.980984
0.972906
0.963108
0.950162
0.931558
0.904937
0.868925
0.822957
0.766893
0.701282
0.628126
0.551766
0.479809
0.423964
0.398911
0.414871
0.468075
0.543611
0.625699
0.703148
0.770386
0.826452
0.87304
0.912542
0.946718
0.976141
1.00032
1.0183
1.02946
1.03405
1.03327
1.02893
1.02294
1.01678
1.01142
1.00723
1.00424
1.00227
1.00107
1.00039
1.00004
0.999889
0.999844
0.999848
0.999871
0.999898
0.99992
0.999938
0.99995
0.999958
0.999963
0.999966
0.999968
0.999969
0.999969
0.99997
0.99997
0.99997
0.99997
0.99997
0.99997
0.99997
0.99997
0.99997
0.99997
0.99997
0.99997
0.99997
0.99997
0.99997
0.99997
0.99997
0.99997
0.99997
0.99997
0.99997
0.99997
0.99997
0.99997
0.99997
0.999969
0.999969
0.999969
0.999966
0.999962
0.999958
0.999945
0.999927
0.999895
0.999845
0.99978
0.99967
0.999503
0.999268
0.99883
0.998052
0.996742
0.994432
0.99061
0.985003
0.977648
0.968789
0.958066
0.943612
0.922526
0.892411
0.852163
0.80149
0.740275
0.668886
0.589048
0.504731
0.423401
0.358714
0.33228
0.36113
0.436798
0.535244
0.635611
0.724756
0.796971
0.852485
0.894933
0.928752
0.957371
0.982425
1.00385
1.02059
1.03156
1.03646
1.036
1.03175
1.02555
1.01898
1.01312
1.00846
1.00508
1.00281
1.00139
1.00058
1.00015
0.999948
0.999874
0.999864
0.999879
0.999901
0.999922
0.999938
0.999949
0.999958
0.999963
0.999966
0.999968
0.999969
0.999969
0.99997
0.99997
0.99997
0.99997
0.99997
0.99997
0.99997
0.99997
0.99997
0.99997
0.99997
0.99997
0.99997
0.99997
0.99997
0.99997
0.99997
0.99997
0.99997
0.99997
0.99997
0.99997
0.99997
0.99997
0.99997
0.99997
0.999969
0.999969
0.999966
0.999964
0.999957
0.999943
0.999926
0.999894
0.999838
0.999771
0.999655
0.999459
0.999191
0.998679
0.997724
0.996138
0.993398
0.988892
0.982453
0.97437
0.964908
0.953411
0.937627
0.914436
0.881527
0.838191
0.784536
0.72056
0.646418
0.563264
0.47388
0.384141
0.308228
0.277093
0.320186
0.421164
0.544299
0.664136
0.765664
0.842748
0.896611
0.932888
0.958336
0.978444
0.99629
1.01251
1.02607
1.03547
1.03976
1.03912
1.03471
1.0282
1.0212
1.01484
1.00971
1.00594
1.00337
1.00175
1.00079
1.00027
1.00002
0.999915
0.999886
0.99989
0.999907
0.999925
0.99994
0.999951
0.999958
0.999962
0.999966
0.999968
0.999969
0.999969
0.99997
0.99997
0.99997
0.99997
0.99997
0.99997
0.99997
0.99997
0.99997
0.99997
0.99997
0.99997
0.99997
0.99997
0.99997
0.99997
0.99997
0.99997
0.99997
0.99997
0.99997
0.99997
0.99997
0.99997
0.99997
0.99997
0.999969
0.999969
0.999966
0.999963
0.999957
0.999944
0.999924
0.999895
0.999834
0.999763
0.999649
0.999423
0.999113
0.998536
0.997391
0.995504
0.992344
0.987167
0.979929
0.971261
0.961414
0.949334
0.932519
0.907851
0.873223
0.828399
0.774058
0.710488
0.637623
0.555674
0.465481
0.370129
0.282003
0.240107
0.293529
0.418308
0.565639
0.705562
0.82065
0.903569
0.955986
0.985329
1.00075
1.01009
1.01823
1.02688
1.03528
1.0416
1.04427
1.0428
1.03787
1.0309
1.02341
1.01655
1.01096
1.00681
1.00395
1.00212
1.00102
1.00041
1.0001
0.999963
0.999913
0.999906
0.999915
0.99993
0.999942
0.999952
0.999958
0.999964
0.999966
0.999968
0.999969
0.999969
0.99997
0.99997
0.99997
0.99997
0.99997