/*--------------------------------*- C++ -*----------------------------------*\
  =========                 |
  \\      /  F ield         | OpenFOAM: The Open Source CFD Toolbox
   \\    /   O peration     | Website:  https://openfoam.org
    \\  /    A nd           | Version:  6
     \\/     M anipulation  |
\*---------------------------------------------------------------------------*/
FoamFile
{
    version     2.0;
    format      ascii;
    class       volScalarField;
    location    "2.15";
    object      rho;
}
// * * * * * * * * * * * * * * * * * * * * * * * * * * * * * * * * * * * * * //

dimensions      [1 -3 0 0 0 0 0];

internalField   nonuniform List<scalar> 
10000
(
1.40001
1.40001
1.40001
1.40001
1.40001
1.40001
1.40001
1.40001
1.40001
1.40001
1.40001
1.40001
1.40001
1.40001
1.40001
1.40001
1.40001
1.40001
1.40001
1.40001
1.40001
1.40001
1.40001
1.40001
1.40001
1.40001
1.4
1.40001
1.4
1.40001
1.40001
1.40001
1.40001
1.40001
1.40001
1.40001
1.40001
1.4
1.40001
1.4
1.40001
1.4
1.40001
1.4
1.4
1.4
1.4
1.4
1.4
1.4
1.4
1.4
1.4
1.4
1.4
1.4
1.4
1.4
1.4
1.40001
1.40001
1.40001
1.40001
1.40001
1.40001
1.40001
1.40001
1.40001
1.40001
1.40001
1.40001
1.40001
1.40001
1.40001
1.40001
1.40001
1.40001
1.40001
1.40001
1.40001
1.40001
1.40001
1.40001
1.40001
1.40001
1.40001
1.40001
1.40001
1.40001
1.40001
1.40001
1.40001
1.40001
1.40001
1.40001
1.40001
1.40001
1.40001
1.40001
1.40001
1.40001
1.40001
1.40001
1.40001
1.40001
1.40001
1.40001
1.40001
1.40001
1.40001
1.40001
1.40001
1.40001
1.40001
1.40001
1.40001
1.40001
1.40001
1.40001
1.40001
1.40001
1.40001
1.40001
1.40001
1.40001
1.40001
1.40001
1.40001
1.40001
1.40001
1.40001
1.40001
1.4
1.40001
1.40001
1.4
1.40001
1.4
1.40001
1.4
1.40001
1.4
1.40001
1.4
1.4
1.4
1.4
1.4
1.4
1.4
1.4
1.4
1.4
1.4
1.4
1.4
1.4
1.4
1.4
1.40001
1.40001
1.40001
1.40001
1.40001
1.40001
1.40001
1.40001
1.40001
1.40001
1.40001
1.40001
1.40001
1.40001
1.40001
1.40001
1.40001
1.40001
1.40001
1.40001
1.40001
1.40001
1.40001
1.40001
1.40001
1.40001
1.40001
1.40001
1.40001
1.40001
1.40001
1.40001
1.40001
1.40001
1.40001
1.40001
1.40001
1.40001
1.40001
1.40001
1.40001
1.40001
1.40001
1.40001
1.40001
1.40001
1.40001
1.40001
1.40001
1.40001
1.40001
1.40001
1.40001
1.40001
1.40001
1.40001
1.40001
1.40001
1.40001
1.40001
1.40001
1.40001
1.40001
1.40001
1.40001
1.40001
1.40001
1.4
1.40001
1.4
1.40001
1.4
1.40001
1.40001
1.40001
1.40001
1.4
1.40001
1.4
1.40001
1.4
1.40001
1.4
1.40001
1.4
1.4
1.4
1.4
1.4
1.4
1.4
1.4
1.4
1.4
1.4
1.4
1.4
1.4
1.4
1.4
1.40001
1.40001
1.40001
1.40001
1.40001
1.40001
1.40001
1.40001
1.40001
1.40001
1.40001
1.40001
1.40001
1.40001
1.40001
1.40001
1.40001
1.40001
1.40001
1.40001
1.40001
1.40001
1.40001
1.40001
1.40001
1.40001
1.40001
1.40001
1.40001
1.40001
1.40001
1.40001
1.40001
1.40001
1.40001
1.40001
1.40001
1.40001
1.40001
1.40001
1.40001
1.40001
1.40001
1.40001
1.40001
1.40001
1.40001
1.40001
1.40001
1.40001
1.40001
1.40001
1.40001
1.40001
1.40001
1.40001
1.40001
1.40001
1.40001
1.40001
1.40001
1.40001
1.40001
1.40001
1.40001
1.40001
1.40001
1.40001
1.40001
1.40001
1.40001
1.40001
1.40001
1.40001
1.40001
1.40001
1.4
1.40001
1.4
1.40001
1.4
1.40001
1.4
1.4
1.4
1.4
1.4
1.4
1.4
1.4
1.4
1.4
1.4
1.4
1.4
1.4
1.4
1.4
1.4
1.4
1.40001
1.40001
1.40001
1.40001
1.40001
1.40001
1.40001
1.40001
1.40001
1.40001
1.40001
1.40001
1.40001
1.40001
1.40001
1.40001
1.40001
1.40001
1.40001
1.40001
1.40001
1.40001
1.40001
1.40001
1.40001
1.40001
1.40001
1.40001
1.40001
1.40001
1.40001
1.40001
1.40001
1.40001
1.40001
1.40001
1.40001
1.40001
1.40001
1.40001
1.40001
1.40001
1.40001
1.40001
1.40001
1.40001
1.40001
1.40001
1.40001
1.40001
1.40001
1.40001
1.40001
1.40001
1.40001
1.40001
1.40001
1.40001
1.40001
1.40001
1.40001
1.40001
1.40001
1.40001
1.40001
1.4
1.40001
1.4
1.40001
1.4
1.40001
1.40001
1.40001
1.40001
1.4
1.40001
1.4
1.40001
1.4
1.40001
1.4
1.40001
1.4
1.4
1.4
1.4
1.4
1.4
1.4
1.4
1.4
1.4
1.4
1.39999
1.39999
1.39999
1.39999
1.4
1.4
1.4
1.40001
1.40001
1.40001
1.40001
1.40002
1.40002
1.40002
1.40002
1.40001
1.40001
1.40001
1.40001
1.40001
1.40001
1.40001
1.40001
1.40001
1.40001
1.40001
1.40001
1.40001
1.40001
1.40001
1.40001
1.40001
1.40001
1.40001
1.40001
1.40001
1.40001
1.40001
1.40001
1.40001
1.40001
1.40001
1.40001
1.40001
1.40001
1.40001
1.40001
1.40001
1.40001
1.40001
1.40001
1.40001
1.40001
1.40001
1.40001
1.40001
1.40001
1.40001
1.40001
1.40001
1.40001
1.40001
1.40001
1.40001
1.40001
1.40001
1.40001
1.40001
1.40001
1.40001
1.4
1.40001
1.4
1.40001
1.4
1.40001
1.4
1.40001
1.40001
1.4
1.40001
1.4
1.40001
1.40001
1.40001
1.4
1.40001
1.4
1.40001
1.4
1.4
1.4
1.4
1.4
1.4
1.4
1.4
1.39999
1.39999
1.39999
1.39999
1.39999
1.39999
1.39999
1.39999
1.4
1.4
1.40001
1.40001
1.40002
1.40002
1.40002
1.40002
1.40002
1.40002
1.40002
1.40002
1.40002
1.40001
1.40001
1.40001
1.40001
1.40001
1.40001
1.40001
1.40001
1.40001
1.40001
1.40001
1.40001
1.40001
1.40001
1.40001
1.40001
1.40001
1.40001
1.40001
1.40001
1.40001
1.40001
1.40001
1.40001
1.40001
1.40001
1.40001
1.40001
1.40001
1.40001
1.40001
1.40001
1.40001
1.40001
1.40001
1.40001
1.40001
1.40001
1.40001
1.40001
1.40001
1.40001
1.40001
1.40001
1.40001
1.40001
1.40001
1.40001
1.40001
1.40001
1.4
1.40001
1.4
1.40001
1.4
1.40001
1.4
1.40001
1.4
1.40001
1.40001
1.4
1.40001
1.4
1.40001
1.40001
1.40001
1.4
1.40001
1.40001
1.4
1.4
1.4
1.4
1.4
1.4
1.4
1.4
1.39999
1.39999
1.39998
1.39998
1.39998
1.39998
1.39998
1.39998
1.39998
1.39999
1.4
1.40001
1.40002
1.40002
1.40003
1.40003
1.40003
1.40003
1.40003
1.40003
1.40002
1.40002
1.40002
1.40001
1.40001
1.40001
1.40001
1.40001
1.40001
1.40001
1.40001
1.40001
1.40001
1.40001
1.40001
1.40001
1.40001
1.40001
1.40001
1.40001
1.40001
1.40001
1.40001
1.40001
1.40001
1.40001
1.40001
1.40001
1.40001
1.40001
1.40001
1.40001
1.40001
1.40001
1.40001
1.40001
1.40001
1.40001
1.40001
1.40001
1.40001
1.40001
1.40001
1.40001
1.40001
1.40001
1.40001
1.40001
1.4
1.40001
1.4
1.40001
1.4
1.40001
1.4
1.40001
1.4
1.40001
1.4
1.40001
1.4
1.40001
1.40001
1.4
1.40001
1.4
1.40001
1.40001
1.40001
1.4
1.40001
1.40001
1.4
1.4
1.4
1.4
1.4
1.4
1.4
1.39999
1.39999
1.39998
1.39997
1.39997
1.39996
1.39996
1.39996
1.39997
1.39997
1.39998
1.4
1.40001
1.40002
1.40003
1.40004
1.40005
1.40005
1.40005
1.40005
1.40004
1.40004
1.40003
1.40002
1.40002
1.40002
1.40001
1.40001
1.40001
1.40001
1.40001
1.40001
1.40001
1.40001
1.40001
1.40001
1.40001
1.40001
1.40001
1.40001
1.40001
1.40001
1.40001
1.40001
1.40001
1.40001
1.40001
1.40001
1.40001
1.40001
1.40001
1.40001
1.40001
1.40001
1.40001
1.40001
1.40001
1.40001
1.40001
1.40001
1.40001
1.40001
1.40001
1.40001
1.40001
1.40001
1.40001
1.40001
1.40001
1.4
1.40001
1.4
1.40001
1.4
1.40001
1.4
1.40001
1.4
1.40001
1.40001
1.40001
1.40001
1.40001
1.40001
1.4
1.40001
1.4
1.40001
1.4
1.40001
1.4
1.40001
1.40001
1.40001
1.4
1.4
1.4
1.4
1.4
1.39999
1.39998
1.39998
1.39997
1.39996
1.39995
1.39995
1.39994
1.39994
1.39995
1.39996
1.39998
1.39999
1.40001
1.40003
1.40005
1.40006
1.40007
1.40007
1.40007
1.40007
1.40006
1.40005
1.40004
1.40003
1.40003
1.40002
1.40002
1.40001
1.40001
1.40001
1.40001
1.40001
1.40001
1.40001
1.40001
1.40001
1.40001
1.40001
1.40001
1.40001
1.40001
1.40001
1.40001
1.40001
1.40001
1.40001
1.40001
1.40001
1.40001
1.40001
1.40001
1.40001
1.40001
1.40001
1.40001
1.40001
1.40001
1.40001
1.40001
1.40001
1.40001
1.40001
1.40001
1.40001
1.40001
1.40001
1.40001
1.4
1.40001
1.4
1.40001
1.4
1.40001
1.4
1.40001
1.4
1.40001
1.40001
1.4
1.40001
1.4
1.40001
1.4
1.40001
1.4
1.40001
1.4
1.40001
1.40001
1.40001
1.4
1.40001
1.40001
1.40001
1.4
1.4
1.4
1.4
1.39999
1.39998
1.39997
1.39996
1.39995
1.39994
1.39993
1.39992
1.39992
1.39992
1.39993
1.39995
1.39997
1.39999
1.40002
1.40005
1.40007
1.40009
1.4001
1.4001
1.4001
1.4001
1.40009
1.40007
1.40006
1.40005
1.40004
1.40003
1.40002
1.40001
1.40001
1.40001
1.40001
1.40001
1.40001
1.40001
1.4
1.4
1.4
1.4
1.40001
1.40001
1.40001
1.40001
1.40001
1.40001
1.40001
1.40001
1.40001
1.40001
1.40001
1.40001
1.40001
1.40001
1.40001
1.40001
1.40001
1.40001
1.40001
1.40001
1.40001
1.40001
1.40001
1.40001
1.40001
1.40001
1.40001
1.40001
1.40001
1.4
1.40001
1.4
1.40001
1.40001
1.40001
1.40001
1.40001
1.40001
1.40001
1.40001
1.4
1.40001
1.40001
1.40001
1.4
1.40001
1.40001
1.40001
1.4
1.40001
1.40001
1.40001
1.40001
1.40001
1.40001
1.40001
1.4
1.4
1.4
1.39999
1.39999
1.39997
1.39996
1.39994
1.39993
1.39991
1.39989
1.39988
1.39988
1.39989
1.3999
1.39993
1.39996
1.4
1.40004
1.40008
1.40011
1.40013
1.40015
1.40015
1.40015
1.40014
1.40012
1.4001
1.40009
1.40007
1.40005
1.40004
1.40003
1.40002
1.40001
1.40001
1.40001
1.40001
1.40001
1.4
1.4
1.4
1.4
1.4
1.4
1.4
1.40001
1.40001
1.40001
1.40001
1.40001
1.40001
1.40001
1.40001
1.40001
1.40001
1.40001
1.40001
1.40001
1.40001
1.40001
1.40001
1.40001
1.40001
1.40001
1.40001
1.40001
1.40001
1.40001
1.40001
1.40001
1.40001
1.40001
1.4
1.40001
1.40001
1.40001
1.40001
1.4
1.40001
1.40001
1.40001
1.4
1.40001
1.4
1.40001
1.40001
1.40001
1.4
1.40001
1.40001
1.40001
1.40001
1.40001
1.40001
1.40001
1.40001
1.40001
1.40001
1.40001
1.40001
1.4
1.4
1.39999
1.39998
1.39996
1.39994
1.39992
1.3999
1.39987
1.39985
1.39984
1.39984
1.39985
1.39988
1.39992
1.39996
1.40002
1.40007
1.40012
1.40017
1.4002
1.40022
1.40022
1.40022
1.4002
1.40018
1.40015
1.40012
1.40009
1.40007
1.40005
1.40004
1.40002
1.40002
1.40001
1.40001
1.40001
1.4
1.4
1.4
1.4
1.4
1.4
1.4
1.4
1.4
1.40001
1.40001
1.40001
1.40001
1.40001
1.40001
1.40001
1.40001
1.40001
1.40001
1.40001
1.40001
1.40001
1.40001
1.40001
1.40001
1.40001
1.40001
1.40001
1.40001
1.40001
1.40001
1.40001
1.40001
1.40001
1.40001
1.40001
1.40001
1.40001
1.4
1.40001
1.4
1.40001
1.40001
1.40001
1.40001
1.40001
1.40001
1.4
1.40001
1.4
1.40001
1.40001
1.4
1.40001
1.4
1.40001
1.40001
1.40001
1.40001
1.40001
1.40001
1.40001
1.40001
1.4
1.4
1.39999
1.39997
1.39995
1.39992
1.39989
1.39986
1.39983
1.39981
1.3998
1.3998
1.39982
1.39986
1.39992
1.39999
1.40006
1.40014
1.40021
1.40026
1.4003
1.40032
1.40033
1.40031
1.40029
1.40025
1.40021
1.40017
1.40013
1.4001
1.40007
1.40005
1.40003
1.40002
1.40001
1.40001
1.40001
1.4
1.4
1.4
1.4
1.4
1.4
1.4
1.4
1.4
1.40001
1.40001
1.40001
1.40001
1.40001
1.40001
1.40001
1.40001
1.40001
1.40001
1.40001
1.40001
1.40001
1.40001
1.40001
1.40001
1.40001
1.40001
1.40001
1.40001
1.40001
1.40001
1.40001
1.40001
1.40001
1.40001
1.40001
1.40001
1.40001
1.4
1.40001
1.4
1.40001
1.40001
1.40001
1.4
1.40001
1.40001
1.4
1.40001
1.40001
1.40001
1.4
1.40001
1.40001
1.40001
1.40001
1.40001
1.40001
1.40001
1.40001
1.40001
1.40001
1.40001
1.4
1.4
1.39998
1.39996
1.39993
1.3999
1.39986
1.39982
1.39978
1.39976
1.39976
1.39977
1.39981
1.39988
1.39996
1.40006
1.40016
1.40026
1.40035
1.40042
1.40046
1.40048
1.40048
1.40045
1.4004
1.40035
1.40029
1.40023
1.40018
1.40013
1.40009
1.40006
1.40004
1.40002
1.40001
1.40001
1.4
1.4
1.4
1.4
1.4
1.4
1.4
1.4
1.4
1.4
1.4
1.40001
1.40001
1.40001
1.40001
1.40001
1.40001
1.40001
1.40001
1.40001
1.40001
1.40001
1.40001
1.40001
1.40001
1.40001
1.40001
1.40001
1.40001
1.40001
1.40001
1.40001
1.40001
1.40001
1.40001
1.40001
1.40001
1.4
1.40001
1.4
1.40001
1.4
1.40001
1.40001
1.40001
1.40001
1.40001
1.40001
1.40001
1.4
1.40001
1.4
1.40001
1.40001
1.40001
1.40001
1.40001
1.40001
1.40001
1.40001
1.40001
1.40001
1.40001
1.40001
1.40001
1.39999
1.39998
1.39995
1.39991
1.39987
1.39982
1.39978
1.39974
1.39973
1.39974
1.39978
1.39985
1.39995
1.40007
1.40021
1.40035
1.40048
1.40059
1.40067
1.40072
1.40072
1.4007
1.40065
1.40058
1.40049
1.4004
1.40032
1.40024
1.40017
1.40012
1.40008
1.40005
1.40003
1.40001
1.40001
1.4
1.4
1.4
1.4
1.4
1.4
1.4
1.4
1.4
1.4
1.4
1.4
1.40001
1.40001
1.40001
1.40001
1.40001
1.40001
1.40001
1.40001
1.40001
1.40001
1.40001
1.40001
1.40001
1.40001
1.40001
1.40001
1.40001
1.40001
1.40001
1.40001
1.40001
1.40001
1.40001
1.40001
1.40001
1.4
1.40001
1.4
1.40001
1.40001
1.40001
1.40001
1.40001
1.4
1.40001
1.40001
1.40001
1.4
1.40001
1.40001
1.4
1.40001
1.40001
1.40001
1.40001
1.40001
1.40001
1.40001
1.40001
1.40002
1.40002
1.40002
1.40001
1.4
1.39998
1.39994
1.3999
1.39985
1.39979
1.39975
1.39972
1.39973
1.39977
1.39985
1.39998
1.40014
1.40033
1.40053
1.40072
1.40088
1.40101
1.40109
1.40113
1.40111
1.40104
1.40094
1.40082
1.40069
1.40056
1.40043
1.40032
1.40023
1.40015
1.4001
1.40005
1.40003
1.40001
1.4
1.4
1.4
1.4
1.4
1.4
1.4
1.4
1.4
1.4
1.4
1.4
1.4
1.4
1.40001
1.40001
1.40001
1.40001
1.40001
1.40001
1.40001
1.40001
1.40001
1.40001
1.40001
1.40001
1.40001
1.40001
1.40001
1.40001
1.40001
1.40001
1.40001
1.40001
1.40001
1.40001
1.40001
1.40001
1.4
1.40001
1.4
1.40001
1.40001
1.4
1.40001
1.40001
1.4
1.40001
1.4
1.40001
1.4
1.40001
1.4
1.40001
1.40001
1.40001
1.40001
1.40001
1.40001
1.40001
1.40001
1.40002
1.40002
1.40003
1.40002
1.40002
1.4
1.39998
1.39994
1.39989
1.39983
1.39978
1.39975
1.39975
1.39979
1.3999
1.40006
1.40028
1.40054
1.40082
1.4011
1.40136
1.40157
1.40172
1.40179
1.40178
1.4017
1.40157
1.40139
1.40119
1.40098
1.40078
1.40059
1.40043
1.4003
1.4002
1.40012
1.40006
1.40003
1.40001
1.4
1.39999
1.39999
1.39999
1.4
1.4
1.4
1.4
1.4
1.4
1.4
1.4
1.4
1.4
1.40001
1.40001
1.40001
1.40001
1.40001
1.40001
1.40001
1.40001
1.40001
1.40001
1.40001
1.40001
1.40001
1.40001
1.40001
1.40001
1.40001
1.40001
1.40001
1.40001
1.40001
1.40001
1.40001
1.40001
1.4
1.40001
1.40001
1.40001
1.40001
1.4
1.40001
1.40001
1.40001
1.4
1.40001
1.4
1.40001
1.4
1.4
1.40001
1.40001
1.40001
1.40001
1.40001
1.40001
1.40002
1.40002
1.40002
1.40003
1.40004
1.40004
1.40003
1.40002
1.39999
1.39994
1.39989
1.39984
1.39981
1.39981
1.39986
1.39999
1.4002
1.4005
1.40086
1.40127
1.4017
1.4021
1.40245
1.40271
1.40286
1.40289
1.40282
1.40263
1.40238
1.40207
1.40173
1.4014
1.40109
1.40082
1.40059
1.4004
1.40025
1.40015
1.40008
1.40003
1.4
1.39999
1.39998
1.39999
1.39999
1.39999
1.4
1.4
1.4
1.4
1.4
1.4
1.4
1.4
1.4
1.4
1.40001
1.40001
1.40001
1.40001
1.40001
1.40001
1.40001
1.40001
1.40001
1.40001
1.40001
1.40001
1.40001
1.40001
1.40001
1.40001
1.40001
1.40001
1.40001
1.40001
1.40001
1.40001
1.40001
1.40001
1.40001
1.40001
1.4
1.40001
1.4
1.40001
1.40001
1.4
1.40001
1.40001
1.4
1.40001
1.40001
1.4
1.40001
1.40001
1.40001
1.40001
1.40001
1.40001
1.40002
1.40003
1.40003
1.40005
1.40005
1.40006
1.40005
1.40004
1.40001
1.39997
1.39992
1.39989
1.3999
1.39997
1.40013
1.40041
1.40081
1.40131
1.4019
1.40254
1.40316
1.40374
1.4042
1.40452
1.40467
1.40463
1.40443
1.40408
1.40362
1.4031
1.40256
1.40203
1.40156
1.40115
1.40081
1.40054
1.40033
1.40019
1.40009
1.40003
1.39999
1.39998
1.39997
1.39997
1.39998
1.39999
1.39999
1.4
1.4
1.4
1.4
1.4
1.4
1.4
1.4
1.4
1.40001
1.40001
1.40001
1.40001
1.40001
1.40001
1.40001
1.40001
1.40001
1.40001
1.40001
1.40001
1.40001
1.40001
1.40001
1.40001
1.40001
1.40001
1.40001
1.40001
1.40001
1.40001
1.40001
1.40001
1.40001
1.4
1.40001
1.40001
1.40001
1.40001
1.40001
1.40001
1.40001
1.40001
1.4
1.40001
1.4
1.40001
1.40001
1.40001
1.40001
1.40001
1.40001
1.40002
1.40003
1.40004
1.40005
1.40006
1.40008
1.40009
1.40009
1.40008
1.40005
1.40002
1.4
1.40002
1.40011
1.40031
1.40066
1.40117
1.40186
1.40269
1.40362
1.40457
1.40549
1.40629
1.40691
1.4073
1.40743
1.40728
1.40688
1.40626
1.4055
1.40465
1.40379
1.40298
1.40225
1.40163
1.40113
1.40074
1.40045
1.40024
1.40011
1.40002
1.39998
1.39996
1.39995
1.39996
1.39997
1.39998
1.39998
1.39999
1.4
1.4
1.4
1.4
1.4
1.4
1.4
1.4
1.4
1.40001
1.40001
1.40001
1.40001
1.40001
1.40001
1.40001
1.40001
1.40001
1.40001
1.40001
1.40001
1.40001
1.40001
1.40001
1.40001
1.40001
1.40001
1.40001
1.40001
1.40001
1.40001
1.40001
1.40001
1.40001
1.40001
1.40001
1.4
1.40001
1.40001
1.4
1.40001
1.40001
1.4
1.40001
1.4
1.40001
1.40001
1.40001
1.40001
1.40001
1.40002
1.40002
1.40003
1.40005
1.40007
1.40009
1.40011
1.40013
1.40013
1.40013
1.40012
1.40012
1.40015
1.40026
1.40049
1.40092
1.40156
1.40246
1.40358
1.40488
1.40628
1.40768
1.40899
1.4101
1.41092
1.41139
1.41147
1.41116
1.41048
1.40948
1.40827
1.40695
1.40563
1.40438
1.40328
1.40235
1.4016
1.40103
1.40061
1.40032
1.40013
1.40002
1.39996
1.39993
1.39993
1.39994
1.39995
1.39996
1.39998
1.39998
1.39999
1.4
1.4
1.4
1.4
1.4
1.4
1.4
1.4
1.40001
1.40001
1.40001
1.40001
1.40001
1.40001
1.40001
1.40001
1.40001
1.40001
1.40001
1.40001
1.40001
1.40001
1.40001
1.40001
1.40001
1.40001
1.40001
1.40001
1.40001
1.40001
1.4
1.40001
1.4
1.40001
1.40001
1.4
1.40001
1.4
1.40001
1.40001
1.4
1.40001
1.40001
1.4
1.40001
1.40001
1.40001
1.40001
1.40001
1.40002
1.40003
1.40005
1.40007
1.40009
1.40012
1.40015
1.40018
1.4002
1.40022
1.40023
1.40028
1.40041
1.40067
1.40116
1.40192
1.40303
1.40447
1.40622
1.40817
1.4102
1.41218
1.41398
1.41546
1.41653
1.4171
1.41713
1.4166
1.41556
1.41407
1.41226
1.41029
1.4083
1.40644
1.40479
1.40341
1.40231
1.40147
1.40087
1.40045
1.40018
1.40002
1.39994
1.3999
1.3999
1.39991
1.39993
1.39995
1.39996
1.39998
1.39999
1.39999
1.4
1.4
1.4
1.4
1.4
1.4
1.4
1.4
1.40001
1.40001
1.40001
1.40001
1.40001
1.40001
1.40001
1.40001
1.40001
1.40001
1.40001
1.40001
1.40001
1.40001
1.40001
1.40001
1.40001
1.40001
1.4
1.40001
1.40001
1.40001
1.40001
1.4
1.40001
1.40001
1.40001
1.40001
1.4
1.40001
1.4
1.40001
1.4
1.40001
1.40001
1.40001
1.40001
1.40001
1.40001
1.40002
1.40003
1.40004
1.40006
1.40009
1.40012
1.40016
1.40021
1.40025
1.40029
1.40034
1.40041
1.40055
1.40083
1.40135
1.40221
1.4035
1.40527
1.40748
1.41006
1.41285
1.41567
1.41835
1.42071
1.42261
1.42394
1.42462
1.42459
1.42384
1.42238
1.42031
1.41776
1.41494
1.41208
1.40937
1.40697
1.40495
1.40335
1.40213
1.40125
1.40065
1.40027
1.40004
1.39992
1.39987
1.39986
1.39988
1.3999
1.39993
1.39995
1.39997
1.39998
1.39999
1.4
1.4
1.4
1.4
1.4
1.4
1.4
1.4
1.40001
1.40001
1.40001
1.40001
1.40001
1.40001
1.40001
1.40001
1.40001
1.40001
1.40001
1.40001
1.40001
1.40001
1.40001
1.40001
1.40001
1.40001
1.4
1.40001
1.4
1.40001
1.4
1.40001
1.4
1.40001
1.40001
1.4
1.40001
1.4
1.4
1.40001
1.40001
1.4
1.40001
1.40001
1.40001
1.40001
1.40001
1.40002
1.40003
1.40005
1.40008
1.40011
1.40016
1.40022
1.40028
1.40034
1.40042
1.40051
1.40066
1.40095
1.40148
1.40239
1.40381
1.40585
1.40851
1.41174
1.41537
1.41915
1.42287
1.42628
1.42921
1.4315
1.43307
1.43384
1.43377
1.43283
1.431
1.42833
1.42497
1.42117
1.41723
1.41344
1.41003
1.40715
1.40484
1.40309
1.40183
1.40096
1.40041
1.40008
1.39991
1.39983
1.39982
1.39984
1.39987
1.3999
1.39993
1.39995
1.39997
1.39998
1.39999
1.4
1.4
1.4
1.4
1.4
1.4
1.4
1.4
1.40001
1.40001
1.40001
1.40001
1.40001
1.40001
1.40001
1.40001
1.40001
1.40001
1.40001
1.40001
1.40001
1.40001
1.40001
1.4
1.40001
1.4
1.40001
1.4
1.40001
1.4
1.40001
1.4
1.40001
1.4
1.4
1.40001
1.4
1.4
1.40001
1.4
1.40001
1.40001
1.40001
1.40001
1.40001
1.40002
1.40003
1.40004
1.40006
1.4001
1.40015
1.40021
1.40028
1.40037
1.40046
1.40058
1.40075
1.40103
1.40155
1.40245
1.40392
1.40613
1.40917
1.41301
1.41748
1.4223
1.42715
1.43171
1.43574
1.43908
1.4416
1.44328
1.44409
1.44403
1.44303
1.441
1.43792
1.43385
1.42906
1.42392
1.41884
1.41418
1.41018
1.40694
1.40447
1.40267
1.40144
1.40065
1.40017
1.39992
1.3998
1.39977
1.39979
1.39983
1.39987
1.39991
1.39994
1.39996
1.39998
1.39999
1.39999
1.4
1.4
1.4
1.4
1.4
1.4
1.4
1.40001
1.40001
1.40001
1.40001
1.40001
1.40001
1.40001
1.40001
1.40001
1.40001
1.40001
1.40001
1.40001
1.40001
1.40001
1.4
1.40001
1.4
1.40001
1.40001
1.40001
1.40001
1.40001
1.4
1.40001
1.4
1.40001
1.40001
1.4
1.40001
1.40001
1.4
1.40001
1.40001
1.40001
1.40001
1.40001
1.40002
1.40003
1.40005
1.40008
1.40012
1.40019
1.40026
1.40036
1.40047
1.40061
1.40079
1.40107
1.40156
1.4024
1.40384
1.40609
1.40935
1.41367
1.41892
1.42478
1.43081
1.43656
1.4417
1.44598
1.44931
1.4517
1.45321
1.45395
1.45396
1.45315
1.45133
1.44828
1.4439
1.43838
1.43212
1.42568
1.41958
1.41421
1.4098
1.40638
1.40387
1.40214
1.40101
1.40033
1.39996
1.39978
1.39973
1.39974
1.39979
1.39984
1.39988
1.39992
1.39995
1.39997
1.39998
1.39999
1.4
1.4
1.4
1.4
1.4
1.4
1.4
1.4
1.40001
1.40001
1.40001
1.40001
1.40001
1.40001
1.40001
1.40001
1.40001
1.40001
1.40001
1.40001
1.40001
1.40001
1.40001
1.40001
1.4
1.40001
1.4
1.40001
1.4
1.40001
1.4
1.40001
1.4
1.40001
1.40001
1.40001
1.4
1.40001
1.40001
1.40001
1.40001
1.40001
1.40001
1.40001
1.40002
1.40004
1.40006
1.4001
1.40016
1.40023
1.40033
1.40045
1.4006
1.40079
1.40107
1.40151
1.40227
1.40359
1.40575
1.40903
1.41363
1.41949
1.4263
1.4335
1.44047
1.44667
1.45174
1.45555
1.45815
1.45977
1.46067
1.46113
1.46129
1.46106
1.46009
1.45787
1.45399
1.44839
1.44145
1.43381
1.42624
1.41934
1.41352
1.40893
1.40551
1.40313
1.40156
1.40059
1.40005
1.39979
1.3997
1.3997
1.39974
1.3998
1.39985
1.3999
1.39994
1.39996
1.39998
1.39999
1.4
1.4
1.4
1.4
1.4
1.4
1.4
1.4
1.40001
1.40001
1.40001
1.40001
1.40001
1.40001
1.40001
1.40001
1.40001
1.40001
1.40001
1.40001
1.40001
1.40001
1.40001
1.4
1.40001
1.4
1.40001
1.4
1.40001
1.40001
1.4
1.40001
1.4
1.40001
1.40001
1.40001
1.4
1.40001
1.40001
1.40001
1.40001
1.40001
1.40001
1.40002
1.40003
1.40005
1.40008
1.40012
1.40019
1.40028
1.4004
1.40056
1.40075
1.40102
1.40141
1.40208
1.40323
1.40518
1.40829
1.41289
1.41908
1.42663
1.43492
1.44312
1.45039
1.45615
1.4601
1.46231
1.46313
1.4631
1.46278
1.46268
1.46308
1.46392
1.46466
1.46441
1.46228
1.45778
1.45105
1.44278
1.43396
1.42553
1.41816
1.4122
1.40768
1.40447
1.40232
1.40099
1.40022
1.39984
1.39968
1.39966
1.3997
1.39976
1.39982
1.39988
1.39992
1.39995
1.39997
1.39999
1.39999
1.4
1.4
1.4
1.4
1.4
1.4
1.4
1.40001
1.40001
1.40001
1.40001
1.40001
1.40001
1.40001
1.40001
1.40001
1.40001
1.40001
1.40001
1.40001
1.4
1.40001
1.40001
1.40001
1.40001
1.4
1.40001
1.40001
1.4
1.40001
1.40001
1.4
1.40001
1.4
1.40001
1.40001
1.4
1.40001
1.40001
1.40001
1.40001
1.40001
1.40002
1.40003
1.40005
1.40009
1.40015
1.40023
1.40034
1.40048
1.40067
1.40092
1.40128
1.40185
1.40282
1.40448
1.40725
1.41157
1.41772
1.42568
1.43487
1.44428
1.45272
1.4592
1.46317
1.46452
1.46367
1.4614
1.45869
1.45647
1.45551
1.45626
1.4587
1.46212
1.46521
1.46644
1.46467
1.45957
1.45172
1.44228
1.43258
1.42368
1.41621
1.41041
1.40621
1.40336
1.40155
1.40049
1.39993
1.39969
1.39963
1.39966
1.39972
1.39979
1.39985
1.3999
1.39994
1.39996
1.39998
1.39999
1.4
1.4
1.4
1.4
1.4
1.4
1.4
1.4
1.40001
1.40001
1.40001
1.40001
1.40001
1.40001
1.40001
1.40001
1.40001
1.40001
1.40001
1.40001
1.4
1.40001
1.40001
1.40001
1.40001
1.40001
1.40001
1.40001
1.40001
1.4
1.40001
1.40001
1.40001
1.4
1.40001
1.40001
1.40001
1.40001
1.40001
1.40001
1.40001
1.40001
1.40002
1.40004
1.40006
1.40011
1.40017
1.40027
1.4004
1.40057
1.4008
1.40112
1.4016
1.40239
1.40375
1.40608
1.40987
1.41562
1.42353
1.43325
1.44374
1.45348
1.46096
1.46513
1.46559
1.46258
1.45702
1.45027
1.44387
1.43913
1.43705
1.43828
1.44285
1.44992
1.45774
1.4641
1.46698
1.46535
1.45942
1.45043
1.44006
1.42985
1.4209
1.41372
1.40839
1.40469
1.40231
1.40088
1.4001
1.39974
1.39962
1.39962
1.39968
1.39976
1.39983
1.39989
1.39993
1.39996
1.39998
1.39999
1.4
1.4
1.4
1.4
1.4
1.4
1.4
1.4
1.40001
1.40001
1.40001
1.40001
1.40001
1.40001
1.40001
1.40001
1.40001
1.40001
1.4
1.40001
1.4
1.40001
1.40001
1.4
1.40001
1.40001
1.4
1.40001
1.40001
1.40001
1.4
1.40001
1.40001
1.4
1.4
1.40001
1.40001
1.40001
1.40001
1.40001
1.40001
1.40001
1.40003
1.40004
1.40007
1.40012
1.4002
1.4003
1.40046
1.40066
1.40094
1.40134
1.40198
1.40305
1.4049
1.40804
1.41306
1.42044
1.43016
1.44139
1.45246
1.46133
1.46629
1.46635
1.46141
1.4522
1.44031
1.42784
1.41688
1.40911
1.40576
1.40762
1.41482
1.42641
1.44026
1.4534
1.46288
1.46674
1.46457
1.45744
1.44734
1.43635
1.4261
1.41753
1.41098
1.40634
1.40327
1.4014
1.40035
1.39983
1.39963
1.3996
1.39966
1.39973
1.39981
1.39987
1.39992
1.39995
1.39997
1.39999
1.39999
1.4
1.4
1.4
1.4
1.4
1.4
1.4
1.40001
1.40001
1.40001
1.40001
1.40001
1.40001
1.40001
1.40001
1.40001
1.40001
1.40001
1.40001
1.40001
1.40001
1.40001
1.40001
1.40001
1.40001
1.40001
1.4
1.40001
1.40001
1.4
1.40001
1.4
1.4
1.40001
1.40001
1.4
1.40001
1.40001
1.40001
1.40001
1.40002
1.40003
1.40005
1.40008
1.40014
1.40022
1.40034
1.40051
1.40075
1.40108
1.40159
1.40241
1.40383
1.40629
1.41039
1.41681
1.42593
1.43732
1.44948
1.46005
1.46658
1.46728
1.46138
1.44918
1.43207
1.41246
1.39325
1.37707
1.36591
1.36118
1.36384
1.37413
1.39104
1.41204
1.43343
1.45125
1.46251
1.46598
1.46235
1.45373
1.44271
1.43154
1.42172
1.41394
1.40828
1.40445
1.40206
1.40069
1.39998
1.39968
1.39961
1.39964
1.39971
1.39979
1.39986
1.39991
1.39994
1.39997
1.39998
1.39999
1.4
1.4
1.4
1.4
1.4
1.4
1.4
1.40001
1.40001
1.40001
1.40001
1.40001
1.40001
1.40001
1.40001
1.40001
1.40001
1.4
1.40001
1.40001
1.40001
1.40001
1.40001
1.4
1.40001
1.4
1.40001
1.40001
1.40001
1.4
1.40001
1.4
1.40001
1.4
1.40001
1.40001
1.40001
1.40001
1.40001
1.40001
1.40002
1.40003
1.40005
1.40009
1.40015
1.40024
1.40038
1.40057
1.40084
1.40124
1.40186
1.40291
1.40475
1.4079
1.41311
1.42105
1.43187
1.44455
1.45677
1.46553
1.46814
1.46293
1.44941
1.42833
1.40191
1.37348
1.34674
1.3248
1.30992
1.30368
1.30726
1.32106
1.34404
1.37323
1.40413
1.43179
1.45211
1.46293
1.4644
1.45858
1.44845
1.43692
1.42611
1.41717
1.41047
1.40583
1.40287
1.40112
1.40019
1.39977
1.39963
1.39963
1.3997
1.39977
1.39984
1.3999
1.39994
1.39996
1.39998
1.39999
1.4
1.4
1.4
1.4
1.4
1.4
1.4
1.40001
1.40001
1.40001
1.40001
1.40001
1.40001
1.40001
1.40001
1.40001
1.40001
1.40001
1.40001
1.40001
1.4
1.40001
1.40001
1.4
1.40001
1.4
1.40001
1.4
1.40001
1.4
1.40001
1.4
1.40001
1.4
1.4
1.40001
1.40001
1.40001
1.40001
1.40001
1.40002
1.40003
1.40006
1.4001
1.40016
1.40026
1.40041
1.40062
1.40092
1.40139
1.40215
1.40346
1.40578
1.40973
1.41614
1.42563
1.43796
1.45132
1.46253
1.46812
1.46543
1.45296
1.43047
1.39925
1.3624
1.32427
1.28931
1.2611
1.24209
1.23409
1.23857
1.25625
1.28602
1.32442
1.36606
1.40487
1.43564
1.45525
1.46322
1.46144
1.45317
1.44193
1.43048
1.42055
1.41284
1.40738
1.40381
1.40165
1.40047
1.3999
1.39968
1.39964
1.39969
1.39976
1.39983
1.39989
1.39993
1.39996
1.39998
1.39999
1.4
1.4
1.4
1.4
1.4
1.4
1.4
1.40001
1.40001
1.40001
1.40001
1.40001
1.40001
1.40001
1.40001
1.40001
1.40001
1.40001
1.40001
1.40001
1.4
1.40001
1.4
1.40001
1.4
1.40001
1.40001
1.40001
1.4
1.40001
1.4
1.40001
1.40001
1.4
1.4
1.40001
1.40001
1.40001
1.40001
1.40001
1.40002
1.40003
1.40006
1.4001
1.40017
1.40027
1.40043
1.40066
1.40099
1.40154
1.40245
1.40405
1.40691
1.41174
1.41939
1.43036
1.44385
1.45711
1.46621
1.46748
1.45845
1.4378
1.4054
1.3631
1.31496
1.26637
1.22254
1.18749
1.16385
1.15367
1.15891
1.18071
1.21796
1.26656
1.32007
1.37121
1.41362
1.44319
1.45881
1.46213
1.45662
1.4463
1.43464
1.42393
1.41532
1.40905
1.40485
1.40226
1.4008
1.40007
1.39976
1.39967
1.3997
1.39976
1.39983
1.39989
1.39993
1.39996
1.39998
1.39999
1.4
1.4
1.4
1.4
1.4
1.4
1.4
1.40001
1.40001
1.40001
1.40001
1.40001
1.40001
1.40001
1.40001
1.40001
1.40001
1.40001
1.40001
1.40001
1.40001
1.40001
1.40001
1.40001
1.40001
1.40001
1.40001
1.4
1.40001
1.4
1.40001
1.4
1.40001
1.4
1.4
1.40001
1.40001
1.40001
1.40001
1.40001
1.40002
1.40003
1.40006
1.4001
1.40017
1.40028
1.40044
1.40068
1.40105
1.40168
1.40276
1.40468
1.40811
1.41386
1.42273
1.435
1.44918
1.46155
1.46758
1.46372
1.4478
1.41847
1.37562
1.32161
1.26152
1.20181
1.14851
1.10606
1.07728
1.06447
1.07026
1.0964
1.14169
1.20125
1.26749
1.33189
1.38687
1.42733
1.45148
1.46073
1.4587
1.4499
1.43843
1.42719
1.4178
1.41077
1.40597
1.40294
1.40119
1.40027
1.39986
1.39973
1.39972
1.39977
1.39983
1.39989
1.39993
1.39996
1.39998
1.39999
1.4
1.4
1.4
1.4
1.4
1.4
1.4
1.4
1.40001
1.40001
1.40001
1.40001
1.40001
1.40001
1.40001
1.40001
1.40001
1.40001
1.4
1.40001
1.40001
1.4
1.40001
1.4
1.4
1.40001
1.4
1.40001
1.4
1.40001
1.40001
1.4
1.4
1.40001
1.4
1.40001
1.40001
1.40001
1.40001
1.40001
1.40002
1.40004
1.40006
1.4001
1.40017
1.40028
1.40044
1.40069
1.40109
1.4018
1.40306
1.40531
1.40934
1.41601
1.42602
1.43932
1.45369
1.46448
1.46678
1.45739
1.43444
1.3964
1.34295
1.2769
1.20443
1.13312
1.06992
1.01974
0.98552
0.969819
0.976084
1.00681
1.06053
1.13134
1.21055
1.28853
1.35654
1.40844
1.44173
1.45749
1.45949
1.45268
1.44175
1.43023
1.42021
1.4125
1.40712
1.40366
1.40162
1.40052
1.39999
1.3998
1.39976
1.39979
1.39984
1.39989
1.39993
1.39996
1.39998
1.39999
1.4
1.4
1.4
1.4
1.4
1.4
1.4
1.40001
1.40001
1.40001
1.40001
1.40001
1.40001
1.40001
1.40001
1.40001
1.40001
1.40001
1.4
1.40001
1.40001
1.4
1.40001
1.40001
1.4
1.40001
1.4
1.4
1.40001
1.4
1.40001
1.40001
1.4
1.40001
1.4
1.40001
1.40001
1.40001
1.40001
1.40001
1.40002
1.40003
1.40006
1.4001
1.40017
1.40027
1.40043
1.40069
1.40111
1.4019
1.40335
1.40593
1.41054
1.41811
1.42913
1.44313
1.45723
1.46598
1.46423
1.44927
1.41955
1.37317
1.30938
1.23139
1.14645
1.06341
0.99027
0.93249
0.892971
0.874521
0.881508
0.917069
0.979246
1.06098
1.15256
1.24352
1.32424
1.38758
1.4302
1.45279
1.45916
1.45466
1.44456
1.43298
1.42247
1.41417
1.40826
1.4044
1.40207
1.40079
1.40015
1.39988
1.39981
1.39982
1.39986
1.3999
1.39994
1.39996
1.39998
1.39999
1.4
1.4
1.4
1.4
1.4
1.4
1.4
1.4
1.40001
1.40001
1.40001
1.40001
1.40001
1.40001
1.40001
1.40001
1.40001
1.40001
1.4
1.40001
1.4
1.40001
1.4
1.40001
1.4
1.40001
1.40001
1.40001
1.4
1.40001
1.4
1.40001
1.40001
1.40001
1.40001
1.4
1.40001
1.40001
1.40001
1.40001
1.40002
1.40003
1.40005
1.40009
1.40015
1.40025
1.40041
1.40067
1.40111
1.40197
1.4036
1.40651
1.41164
1.42005
1.43192
1.44631
1.45979
1.46632
1.46053
1.44024
1.40428
1.35032
1.277
1.18772
1.09077
0.996408
0.913844
0.849085
0.804929
0.78436
0.792504
0.832893
0.902986
0.994623
1.09721
1.19977
1.29206
1.36611
1.41774
1.44711
1.45796
1.45594
1.44685
1.43538
1.42452
1.41573
1.40935
1.40512
1.40253
1.40107
1.40032
1.39999
1.39987
1.39985
1.39988
1.39991
1.39994
1.39997
1.39998
1.39999
1.4
1.4
1.4
1.4
1.4
1.4
1.4
1.40001
1.40001
1.40001
1.40001
1.40001
1.40001
1.40001
1.40001
1.40001
1.40001
1.40001
1.4
1.40001
1.4
1.40001
1.40001
1.4
1.40001
1.40001
1.4
1.40001
1.40001
1.4
1.40001
1.4
1.4
1.40001
1.4
1.4
1.40001
1.40001
1.40001
1.40001
1.40002
1.40003
1.40005
1.40008
1.40014
1.40022
1.40037
1.40063
1.40109
1.402
1.40381
1.40701
1.4126
1.42173
1.43432
1.44882
1.46148
1.46585
1.45633
1.43112
1.38965
1.32925
1.24779
1.14858
1.04082
0.936202
0.845277
0.77458
0.726833
0.705016
0.714485
0.758992
0.83576
0.935781
1.04765
1.15995
1.26212
1.34556
1.40534
1.44103
1.45618
1.45664
1.44866
1.4374
1.42631
1.41713
1.41036
1.40581
1.40298
1.40136
1.40051
1.4001
1.39994
1.3999
1.39991
1.39993
1.39995
1.39997
1.39998
1.39999
1.4
1.4
1.4
1.4
1.4
1.4
1.4
1.40001