/*--------------------------------*- C++ -*----------------------------------*\
  =========                 |
  \\      /  F ield         | OpenFOAM: The Open Source CFD Toolbox
   \\    /   O peration     | Website:  https://openfoam.org
    \\  /    A nd           | Version:  6
     \\/     M anipulation  |
\*---------------------------------------------------------------------------*/
FoamFile
{
    version     2.0;
    format      ascii;
    class       volScalarField;
    location    "1.46";
    object      k;
}
// * * * * * * * * * * * * * * * * * * * * * * * * * * * * * * * * * * * * * //

dimensions      [0 2 -2 0 0 0 0];

internalField   nonuniform List<scalar> 
4214
(
0.0734352
0.0427695
0.0323714
0.0293607
0.0288698
0.0291799
0.0298929
0.0311124
0.0333628
0.0372838
0.0444023
0.0563927
0.077927
0.112921
0.17378
0.260105
0.380614
0.505312
0.566583
0.538125
0.486295
0.399692
0.235797
0.139741
0.0917172
0.0663327
0.0523878
0.0439157
0.0386543
0.0350797
0.0325704
0.0306904
0.0293136
0.0282995
0.0276022
0.0271491
0.0269645
0.0274916
0.0303688
0.0402924
0.0702783
0.0328553
0.0288879
0.0277871
0.0278061
0.0282266
0.0288326
0.0297591
0.0312614
0.0339748
0.038562
0.0467782
0.0604123
0.0848802
0.124468
0.193708
0.291489
0.428538
0.56497
0.614356
0.554833
0.48967
0.392778
0.231618
0.140318
0.0943763
0.0689978
0.0545751
0.0453642
0.0394328
0.0352247
0.0322915
0.0300905
0.0285273
0.0273932
0.0266177
0.0260918
0.0257356
0.0255652
0.0258315
0.0271434
0.0312783
0.0267102
0.0264848
0.0267587
0.0272293
0.0278216
0.028562
0.0297111
0.0315458
0.0348006
0.0401544
0.0496382
0.0651625
0.0929827
0.137801
0.216384
0.326924
0.481654
0.627709
0.656382
0.568719
0.491351
0.38393
0.22929
0.142912
0.0986385
0.0730816
0.0581355
0.0480241
0.0411993
0.0360636
0.0324534
0.0296776
0.0277755
0.0263978
0.025476
0.0248549
0.024447
0.0241979
0.0241501
0.0243014
0.0248597
0.025312
0.0256992
0.0262106
0.0267776
0.0274689
0.0283575
0.0297777
0.0320033
0.0358915
0.0421359
0.0530943
0.0708087
0.102459
0.15323
0.242131
0.366716
0.539895
0.690669
0.693935
0.582984
0.492745
0.375697
0.229596
0.147567
0.10487
0.0791561
0.0637267
0.0526231
0.0446606
0.0382001
0.0335709
0.0298355
0.0273651
0.0255718
0.0244215
0.0236622
0.0231887
0.0229052
0.0228169
0.0228536
0.0228336
0.0245988
0.0251206
0.0257069
0.026338
0.0271535
0.0282311
0.0299843
0.0326733
0.0373119
0.0446061
0.0572911
0.0775599
0.113564
0.171102
0.271236
0.41112
0.602892
0.750931
0.72872
0.597847
0.495409
0.36937
0.232111
0.154412
0.113459
0.0879061
0.0721496
0.0600361
0.0506465
0.0423517
0.0362583
0.0309872
0.0276002
0.0250996
0.0235675
0.0225821
0.0219923
0.0216471
0.021506
0.0215659
0.0214213
0.0239828
0.0245581
0.0252101
0.0259207
0.0269002
0.0282118
0.0303708
0.033615
0.0391511
0.0477001
0.0624102
0.0856773
0.126592
0.191782
0.304101
0.459456
0.667252
0.81086
0.762491
0.614017
0.500462
0.366344
0.237499
0.16378
0.124942
0.100207
0.0844825
0.0714534
0.060305
0.0494535
0.0413367
0.0336758
0.0289253
0.0252687
0.0231171
0.021753
0.0209794
0.0205438
0.0203185
0.0203794
0.0202067
0.0233746
0.0239966
0.0247303
0.0255424
0.0267315
0.0283315
0.0309872
0.0349084
0.0415255
0.0515951
0.0686741
0.095458
0.141921
0.215076
0.339495
0.510741
0.734233
0.871025
0.796274
0.632023
0.508002
0.367511
0.24601
0.176226
0.140052
0.11705
0.10204
0.0883913
0.0750048
0.0606077
0.0498196
0.0385259
0.0318849
0.0264214
0.0233236
0.0213437
0.0202656
0.0196724
0.0193569
0.01936
0.0191837
0.0227795
0.0234487
0.0242827
0.0252208
0.0266742
0.0286332
0.0319009
0.036664
0.0445878
0.0565095
0.0763823
0.106918
0.15902
0.240592
0.377675
0.565022
0.803783
0.932314
0.831065
0.65293
0.519523
0.373595
0.258209
0.192542
0.159857
0.139627
0.126276
0.112674
0.0964908
0.0771461
0.0629562
0.0462262
0.0371327
0.0289443
0.0244891
0.0215517
0.0199976
0.0191449
0.0187044
0.0186053
0.0184248
0.0222105
0.022924
0.0238791
0.0249754
0.0267611
0.0291766
0.0332032
0.039025
0.0485511
0.0625339
0.0853903
0.120065
0.17821
0.268346
0.418327
0.622094
0.876138
0.995817
0.867624
0.677557
0.536488
0.385062
0.274889
0.213755
0.185723
0.169478
0.158821
0.146193
0.126887
0.100591
0.0822182
0.05748
0.0454077
0.0332326
0.0269436
0.0225864
0.0203331
0.0190769
0.0184475
0.0182105
0.0180026
0.0216734
0.0224284
0.0235318
0.024832
0.0270384
0.0300405
0.035027
0.0420657
0.0534034
0.0697965
0.0960552
0.135115
0.199472
0.298073
0.461118
0.68186
0.951618
1.06294
0.908161
0.707385
0.560183
0.402618
0.297084
0.241144
0.219197
0.20843
0.201663
0.190736
0.168266
0.132554
0.109171
0.0728821
0.0574442
0.0395944
0.0309786
0.0246085
0.0214025
0.0195619
0.0186584
0.0182438
0.0179833
0.0211715
0.0219682
0.023259
0.0248242
0.0275769
0.0312665
0.0373762
0.0459002
0.0594332
0.0785548
0.10859
0.152159
0.22273
0.329414
0.505677
0.744078
1.03064
1.13563
0.955326
0.744332
0.59176
0.42725
0.326134
0.276239
0.261956
0.258429
0.256934
0.24835
0.221725
0.174508
0.145165
0.0927093
0.0738066
0.0480943
0.0367545
0.0276473
0.0232473
0.0206149
0.0193495
0.0187199
0.0183824
0.0207082
0.0215537
0.0230891
0.0249769
0.0283618
0.0329053
0.0404422
0.0507136
0.0668749
0.089029
0.123226
0.171279
0.247922
0.362014
0.55165
0.807959
1.11362
1.21624
1.01044
0.790503
0.632224
0.460377
0.363658
0.320788
0.31586
0.321497
0.326589
0.320942
0.288429
0.226701
0.19099
0.116768
0.0947568
0.0584472
0.044247
0.0315382
0.0257874
0.0221369
0.0204492
0.0195772
0.0191505
0.020285
0.0212061
0.0230013
0.0252779
0.0295046
0.0350489
0.0443913
0.0566661
0.0759947
0.101437
0.140247
0.19262
0.275191
0.39573
0.598961
0.872851
1.20076
1.30744
1.07595
0.848304
0.683115
0.503737
0.411601
0.376832
0.383128
0.399892
0.412318
0.410282
0.370149
0.288571
0.246869
0.144587
0.120239
0.0700415
0.0532757
0.0359258
0.0288466
0.0239312
0.02182
0.0206803
0.0201666
0.0199012
0.0208905
0.0230503
0.025757
0.0311025
0.037756
0.0494288
0.0638863
0.0870982
0.115964
0.16004
0.216467
0.305123
0.430916
0.647675
0.938033
1.29132
1.41243
1.15642
0.920898
0.747564
0.559332
0.472622
0.446876
0.466611
0.496681
0.515903
0.518735
0.46931
0.360283
0.312927
0.175809
0.149967
0.0821373
0.0636246
0.0403525
0.0322381
0.0257592
0.0233138
0.0218744
0.0212951
0.0195731
0.0206256
0.0232913
0.0264001
0.0333079
0.0410339
0.0558443
0.072418
0.100577
0.132709
0.183153
0.243238
0.338862
0.468594
0.69905
1.0034
1.3836
1.53563
1.25963
1.01282
0.831793
0.630616
0.55023
0.533689
0.570128
0.616876
0.642295
0.650542
0.590488
0.44362
0.389557
0.210649
0.183671
0.0941693
0.075172
0.0443767
0.0358595
0.0274083
0.0248382
0.0230349
0.0224413
0.0193537
0.0203939
0.0238359
0.0271275
0.0364078
0.0447592
0.0641338
0.0821496
0.117123
0.151736
0.21057
0.273619
0.378385
0.510448
0.754456
1.0685
1.47387
1.68307
1.39594
1.12729
0.940773
0.720879
0.648541
0.637989
0.699002
0.769429
0.797865
0.812804
0.74037
0.541788
0.479389
0.249927
0.221416
0.105882
0.0879418
0.047646
0.0397382
0.0287301
0.0263852
0.0240864
0.0235666
0.0193104
0.0201263
0.0249451
0.027682
0.0410187
0.0484742
0.0752743
0.0925484
0.137935
0.172881
0.243953
0.3087
0.427464
0.559354
0.815207
1.12703
1.54314
1.85411
1.57208
1.25865
1.06538
0.820371
0.772724
0.757211
0.854996
0.960545
0.992634
1.01584
0.928207
0.660279
0.587214
0.29505
0.263849
0.117147
0.102076
0.049899
0.0440169
0.0296437
0.028014
0.0249964
0.0246729
0.024321
0.0233675
0.0223494
0.021293
0.0202469
0.0192888
0.0185188
0.0180717
0.0180235
0.0183857
0.0191479
0.0202435
0.0215964
0.0233597
0.026716
0.0424153
0.155866
0.0243755
0.0234517
0.0224851
0.021493
0.0205098
0.0195961
0.0188389
0.0183411
0.0181845
0.018389
0.0189234
0.0197436
0.0208727
0.0226168
0.0263428
0.0438822
0.162638
0.0246383
0.0237716
0.0228478
0.0218902
0.0209348
0.0200347
0.019263
0.0187013
0.0184159
0.0184404
0.0187585
0.0193735
0.0203592
0.022106
0.0263039
0.0462594
0.168915
0.0247481
0.0239594
0.0231209
0.0222447
0.0213565
0.0205018
0.0197443
0.0191585
0.0188161
0.0187637
0.0189835
0.0194661
0.0203196
0.0220542
0.0266941
0.0492869
0.176402
0.0251296
0.0243926
0.023593
0.0227529
0.0218994
0.0210741
0.0203345
0.0197505
0.0194085
0.0193273
0.0195027
0.0199317
0.0207382
0.0225153
0.0276684
0.0533577
0.185323
0.0252503
0.0246035
0.0239034
0.0231554
0.0223852
0.0216333
0.0209581
0.0204375
0.0201182
0.0200492
0.0202534
0.0207391
0.0216296
0.023565
0.0293879
0.0587731
0.195153
0.0256523
0.0250295
0.0243681
0.0236751
0.0229671
0.0222779
0.0216565
0.021159
0.0208589
0.0208276
0.0211168
0.021771
0.0229296
0.0252616
0.0321108
0.066083
0.205071
0.0257861
0.0252556
0.0246756
0.0240601
0.0234298
0.0228166
0.022265
0.0218336
0.0215954
0.0216353
0.022046
0.0229428
0.0245492
0.0276393
0.0361879
0.076093
0.214848
0.0261824
0.0256453
0.0250817
0.024499
0.0239151
0.0233588
0.0228714
0.0225073
0.0223383
0.0224589
0.0230012
0.0241699
0.026353
0.0306279
0.0418528
0.0893125
0.225243
0.0263296
0.0258855
0.025393
0.0248753
0.0243574
0.0238707
0.0234557
0.0231649
0.0230705
0.0232769
0.023949
0.0253756
0.028169
0.0339428
0.0488786
0.104132
0.236752
0.026709
0.0262399
0.025758
0.0252741
0.0248069
0.0243815
0.024033
0.0238105
0.0237864
0.0240725
0.0248586
0.0265062
0.0298286
0.0370765
0.0562559
0.119852
0.24927
0.0268779
0.026496
0.0260756
0.0256512
0.0252473
0.0248874
0.0246035
0.0244436
0.0244811
0.0248348
0.0257128
0.0275223
0.0312096
0.039561
0.0625773
0.135269
0.261754
0.0272402
0.0268319
0.02643
0.0260497
0.0257017
0.0254007
0.0251741
0.025068
0.0251561
0.0255612
0.0265034
0.0284141
0.0322937
0.0411653
0.0667433
0.148182
0.273263
0.0274407
0.0271131
0.0267735
0.0264549
0.0261667
0.0259214
0.0257461
0.0256864
0.0258152
0.0262567
0.027236
0.0291941
0.0331386
0.0420682
0.0683622
0.155918
0.283003
0.0277984
0.0274567
0.0271528
0.0268854
0.026649
0.0264524
0.0263221
0.0263023
0.0264642
0.0269306
0.0279263
0.0298919
0.0338235
0.0425555
0.0679374
0.156784
0.290641
0.0280343
0.0277819
0.0275448
0.0273337
0.0271459
0.0269935
0.0269038
0.0269193
0.0271091
0.0275938
0.0285934
0.0305449
0.0344302
0.0429209
0.0663846
0.151087
0.296409
0.0284
0.0281612
0.027969
0.0278032
0.0276578
0.0275458
0.0274936
0.0275415
0.0277568
0.0282569
0.0292572
0.0311925
0.0350328
0.0432967
0.0646733
0.141212
0.300682
0.0286907
0.0285483
0.0284116
0.0282895
0.028184
0.0281106
0.0280942
0.0281735
0.0284143
0.0289309
0.0299375
0.0318717
0.0356968
0.0438438
0.0639485
0.130303
0.303226
0.0290813
0.0289723
0.0288755
0.0287922
0.0287253
0.0286898
0.0287088
0.0288201
0.0290886
0.0296272
0.0306538
0.0326159
0.0364904
0.0447098
0.0644686
0.121266
0.303691
0.0294616
0.0294091
0.0293546
0.0293105
0.0292825
0.0292854
0.0293408
0.0294866
0.0297867
0.0303565
0.0314222
0.0334509
0.0374611
0.0459463
0.0657618
0.118223
0.301033
0.029877
0.029863
0.0298482
0.0298438
0.0298558
0.0298978
0.0299916
0.030174
0.03051
0.0311194
0.0322398
0.0343646
0.0385666
0.047415
0.0676526
0.119782
0.296857
0.0303042
0.0303288
0.0303556
0.0303923
0.0304456
0.0305281
0.0306609
0.0308809
0.0312538
0.0319039
0.0330807
0.0353037
0.0397042
0.0489565
0.0698975
0.122782
0.292814
0.0307429
0.0308089
0.0308779
0.0309576
0.0310543
0.0311798
0.0313546
0.0316151
0.032028
0.0327217
0.0339574
0.03628
0.0408804
0.0505432
0.0722177
0.125697
0.289296
0.0311893
0.0312985
0.0314134
0.0315398
0.0316837
0.0318562
0.0320771
0.0323821
0.032838
0.033576
0.0348649
0.0372685
0.0420217
0.051981
0.0741099
0.127431
0.286525
0.0316424
0.0317988
0.0319623
0.0321392
0.032335
0.0325599
0.0328325
0.0331873
0.0336901
0.0344716
0.035802
0.0382525
0.0430779
0.0531633
0.0754583
0.12861
0.284635
0.0320983
0.032305
0.0325226
0.0327556
0.0330095
0.0332937
0.0336256
0.0340377
0.0345929
0.0354187
0.0367803
0.0392464
0.0440779
0.0541795
0.0765497
0.129902
0.283685
0.032556
0.0328179
0.0330939
0.033389
0.0337083
0.0340605
0.0344613
0.0349408
0.0355578
0.0364334
0.037823
0.0402828
0.0450636
0.0550704
0.0773419
0.130698
0.283572
0.0330113
0.0333328
0.0336741
0.0340388
0.0344323
0.0348627
0.0353445
0.035905
0.0365979
0.0375349
0.0389559
0.0413926
0.0460623
0.0558401
0.0777963
0.130989
0.284128
0.0334635
0.0338501
0.0342625
0.0347048
0.0351825
0.0357033
0.0362807
0.0369395
0.0377277
0.0387452
0.0402111
0.0426205
0.047135
0.0565675
0.0780146
0.130977
0.28517
0.033909
0.0343664
0.0348578
0.0353869
0.03596
0.0365853
0.037276
0.0380545
0.0389634
0.0400898
0.0416272
0.044024
0.0483619
0.0573477
0.078051
0.130484
0.286499
0.0343483
0.0348824
0.0354601
0.0360858
0.0367671
0.0375129
0.0383372
0.0392613
0.0403228
0.0415965
0.0432477
0.0456691
0.0498385
0.0583024
0.0780172
0.129533
0.287941
0.0347795
0.035397
0.0360697
0.0368033
0.0376066
0.0384912
0.0394726
0.0405726
0.0418257
0.043296
0.0451216
0.047633
0.0516842
0.0596014
0.0781027
0.128195
0.289351
0.0352049
0.0359124
0.0366891
0.037542
0.0384831
0.039527
0.0406924
0.0420035
0.0434948
0.0452231
0.0473027
0.0500028
0.0540378
0.061456
0.0785723
0.12663
0.290616
0.0356262
0.036431
0.0373216
0.0383073
0.0394044
0.0406297
0.0420097
0.0435731
0.0453576
0.0474183
0.0498532
0.0528773
0.0570617
0.0641287
0.0798007
0.125165
0.291663
0.0360522
0.0369741
0.0380086
0.0391546
0.0404269
0.0418522
0.0434624
0.0453062
0.0474486
0.0499318
0.0528475
0.056372
0.0609465
0.0679408
0.0822929
0.124318
0.292442
0.0365197
0.0375707
0.0387377
0.0400425
0.0415111
0.043176
0.0450767
0.0472642
0.0498143
0.0528301
0.0563821
0.0606311
0.0659214
0.0732828
0.0867142
0.124929
0.292913
0.0369956
0.0381623
0.0394793
0.0409682
0.0426622
0.0446037
0.0468462
0.0494585
0.0525264
0.056209
0.0605941
0.0658525
0.072283
0.0806446
0.0939282
0.128269
0.293019
0.03748
0.0387809
0.0402658
0.0419617
0.0439134
0.046177
0.048825
0.0519526
0.0556862
0.0602165
0.0656939
0.0723318
0.0804537
0.090675
0.10508
0.136276
0.292676
0.0380057
0.0394541
0.0411227
0.0430549
0.0453063
0.0479522
0.0510923
0.0548605
0.0594391
0.0650906
0.0720176
0.0805352
0.0910794
0.104307
0.121727
0.151888
0.291779
0.0385949
0.0402063
0.0420891
0.0442976
0.0469085
0.0500239
0.0537838
0.0583807
0.064082
0.0712505
0.0801308
0.0912248
0.105205
0.123016
0.14616
0.179578
0.290243
0.0710617
0.0747819
0.078333
0.0816882
0.0847686
0.0874748
0.0897256
0.0914476
0.092595
0.0931441
0.0930994
0.0924819
0.0913351
0.0897161
0.0876886
0.0853189
0.0826782
0.0798314
0.0768517
0.0737702
0.0700221
0.066721
0.0639668
0.0613825
0.0589562
0.0566949
0.0546014
0.0526777
0.0509191
0.0493225
0.0478766
0.0465803
0.0454183
0.0443818
0.0434576
0.0426325
0.0419007
0.0412383
0.0406336
0.0400219
0.0393386
0.0770977
0.0812223
0.0851979
0.0889619
0.092403
0.0954078
0.0978752
0.099722
0.100893
0.101365
0.101144
0.10026
0.0987728
0.0967564
0.0942932
0.0914704
0.088374
0.0850901
0.081695
0.0782367
0.0741683
0.070545
0.0675027
0.0646588
0.0620018
0.059537
0.0572652
0.0551865
0.0532939
0.0515813
0.0500393
0.0486581
0.0474264
0.0463286
0.045359
0.0444964
0.0437391
0.0430581
0.0424373
0.0417998
0.0410437
0.0833685
0.0879807
0.0924568
0.0967114
0.100587
0.103958
0.1067
0.108716
0.109939
0.110342
0.109937
0.108766
0.106906
0.104454
0.101515
0.0981981
0.0946107
0.0908539
0.0870162
0.0831513
0.0787488
0.0747839
0.0714334
0.068312
0.0654091
0.0627275
0.0602667
0.0580234
0.0559888
0.0541549
0.0525101
0.0510421
0.0497365
0.0485815
0.047564
0.046671
0.0458875
0.0451974
0.0445672
0.0439179
0.0430883
0.0898568
0.0949789
0.100059
0.104894
0.109283
0.113103
0.116191
0.118431
0.119745
0.120101
0.119515
0.118043
0.115787
0.112866
0.109415
0.105569
0.101457
0.0971958
0.0928869
0.0885891
0.0838338
0.0795105
0.075831
0.0724142
0.069249
0.0663365
0.0636741
0.0612553
0.0590698
0.0571071
0.0553538
0.0537943
0.0524145
0.0512012
0.0501401
0.049217
0.048417
0.0477229
0.047102
0.0464625
0.0455721
0.096594
0.102363
0.108034
0.113446
0.11845
0.122817
0.126325
0.128861
0.13032
0.130663
0.129912
0.12814
0.125473
0.122061
0.118071
0.113666
0.108999
0.104205
0.0993974
0.0946411
0.0895135
0.0848132
0.080784
0.0770529
0.0736086
0.0704502
0.0675726
0.0649665
0.06262
0.0605207
0.0586518
0.0569969
0.0555412
0.0542701
0.0531682
0.0522204
0.0514118
0.0507256
0.0501333
0.0495406
0.0486266
0.103515
0.110002
0.116398
0.122513
0.128139
0.133057
0.137073
0.139997
0.141663
0.142045
0.141162
0.139106
0.136029
0.132117
0.12757
0.122585
0.117339
0.111988
0.106657
0.101417
0.0958978
0.0908022
0.0864032
0.0823388
0.0785982
0.0751783
0.0720712
0.0692653
0.0667476
0.0645025
0.0625113
0.0607571
0.0592244
0.0578968
0.0567583
0.0557934
0.0549873
0.0543246
0.0537844
0.0532848
0.0524325
0.110653
0.11792
0.125109
0.132006
0.138369
0.143947
0.1485
0.151822
0.153768
0.154259
0.153294
0.150991
0.147525
0.14312
0.138015
0.13244
0.126601
0.120675
0.114798
0.109055
0.103125
0.0976165
0.0928287
0.0884128
0.084359
0.0806615
0.0773103
0.074292
0.0715923
0.0691923
0.0670726
0.0652162
0.0636061
0.0622251
0.0610567
0.0600856
0.0592972
0.0586788
0.0582167
0.0578573
0.0572108
0.118106
0.126195
0.13423
0.141969
0.149138
0.155449
0.160625
0.164427
0.166685
0.167318
0.166342
0.163854
0.160034
0.15517
0.149525
0.143364
0.136931
0.130421
0.123988
0.117725
0.11137
0.105434
0.100241
0.0954575
0.0910744
0.0870839
0.0834742
0.0802313
0.077339
0.0747756
0.0725226
0.0705622
0.0688762
0.0674473
0.0662593
0.0652973
0.0645477
0.0640012
0.0636482
0.0634669
0.0631997
0.126052
0.134982
0.143889
0.152505
0.160524
0.167621
0.17348
0.177827
0.180464
0.181296
0.180339
0.177713
0.173639
0.168386
0.162231
0.155517
0.148509
0.141423
0.134434
0.127647
0.120858
0.114484
0.108875
0.103712
0.098986
0.0946891
0.0908087
0.0873306
0.0842353
0.0815025
0.0791133
0.0770492
0.0752919
0.0738245
0.0726317
0.0716996
0.0710179
0.0705792
0.0703769
0.0704074
0.0706208
0.134784
0.144538
0.154306
0.163797
0.172674
0.180576
0.18715
0.192086
0.195159
0.196256
0.19539
0.192692
0.188401
0.18282
0.176278
0.169097
0.161554
0.153922
0.1464
0.139101
0.13188
0.12507
0.119043
0.113495
0.108419
0.103807
0.0996473
0.0959258
0.0926216
0.0897163
0.087191
0.0850271
0.0832074
0.0817161
0.0805391
0.0796655
0.0790891
0.0788043
0.0788093
0.0791076
0.0796674
0.144737
0.155257
0.16583
0.176143
0.185833
0.194508
0.201784
0.207318
0.210858
0.212275
0.211576
0.208896
0.204491
0.198683
0.191824
0.184261
0.176306
0.168225
0.160224
0.152452
0.14482
0.137595
0.131165
0.125241
0.119818
0.114892
0.110453
0.106486
0.102973
0.099898
0.0972421
0.0949883
0.0931212
0.0916271
0.0904945
0.0897175
0.089293
0.0892194
0.0895054
0.0901446
0.0910924
0.15655
0.167724
0.17898
0.189991
0.200375
0.20972
0.217617
0.223702
0.227701
0.22947
0.229009
0.226453
0.222062
0.216169
0.209141
0.20134
0.193094
0.184681
0.176324
0.168183
0.16019
0.152608
0.14582
0.139553
0.133808
0.128586
0.123881
0.119681
0.115972
0.11274
0.109968
0.107643
0.105753
0.104286
0.103236
0.102603
0.102387
0.102596
0.103223
0.104266
0.105698
0.171155
0.182788
0.194517
0.206003
0.216861
0.226669
0.235011
0.241517
0.245902
0.248015
0.247846
0.245525
0.241306
0.235519
0.228529
0.220702
0.21237
0.203818
0.195278
0.186921
0.178698
0.170874
0.163821
0.157286
0.151282
0.145816
0.14089
0.136494
0.132623
0.129265
0.12641
0.124047
0.12217
0.120773
0.119854
0.119424
0.119478
0.120019
0.12105
0.122575
0.124577
0.189927
0.2017
0.213552
0.225147
0.236106
0.246025
0.2545
0.261177
0.265782
0.268164
0.26831
0.266336
0.262476
0.257039
0.250371
0.242821
0.234709
0.226315
0.217873
0.209558
0.201337
0.193484
0.186336
0.179688
0.17356
0.167968
0.162919
0.158415
0.154456
0.151039
0.148161
0.145821
0.144016
0.142748
0.142018
0.141835
0.142201
0.143124
0.144613
0.146672
0.149295
0.214966
0.226339
0.237737
0.248838
0.2593
0.268759
0.276858
0.283287
0.287809
0.29029
0.290717
0.289189
0.285904
0.281129
0.275165
0.268318
0.260878
0.2531
0.245201
0.237355
0.229548
0.222047
0.21513
0.208657
0.202663
0.197173
0.192206
0.187773
0.183885
0.180548
0.177767
0.175548
0.173897
0.172821
0.172329
0.17243
0.173134
0.174451
0.17639
0.178957
0.182155
0.249629
0.259641
0.269592
0.279201
0.288192
0.296283
0.303202
0.308717
0.312657
0.314926
0.315516
0.314505
0.312038
0.308317
0.303569
0.29803
0.291924
0.285459
0.278814
0.272138
0.265447
0.258957
0.252879
0.247144
0.241795
0.23687
0.232396
0.228398
0.224894
0.221903
0.219439
0.217515
0.216147
0.215346
0.215128
0.215503
0.216485
0.218082
0.220302
0.223145
0.226623
0.299586
0.306423
0.313132
0.319518
0.32542
0.330679
0.335152
0.338718
0.341293
0.342835
0.343346
0.342871
0.341492
0.339318
0.336475
0.333094
0.329305
0.325229
0.320976
0.316641
0.312256
0.30795
0.30384
0.299917
0.296223
0.292795
0.289662
0.286852
0.284389
0.282294
0.280589
0.279291
0.278418
0.277984
0.278005
0.278491
0.279452
0.280891
0.282809
0.285195
0.288068
0.158728
0.0436069
0.0279758
0.0251785
0.0241709
0.023469
0.0228061
0.0221551
0.021526
0.020926
0.0203604
0.0198371
0.0193681
0.0189693
0.0186415
0.0184008
0.0182766
0.164782
0.0457658
0.0277222
0.0244137
0.0232442
0.022495
0.0218444
0.0212404
0.0206827
0.0201738
0.0197068
0.019274
0.0188753
0.0185248
0.0182498
0.0180859
0.0180704
0.169711
0.0485075
0.0275935
0.0237198
0.0223792
0.0215722
0.0209163
0.0203378
0.0198307
0.0193948
0.0190249
0.0187125
0.0184497
0.0182334
0.0180739
0.0179948
0.0180428
0.175227
0.051599
0.0276236
0.023161
0.0216466
0.0207775
0.0201096
0.0195438
0.0190613
0.0186562
0.0183233
0.0180611
0.0178736
0.0177694
0.017761
0.0178571
0.0180651
0.181197
0.0549416
0.0278735
0.0228147
0.0211231
0.0201947
0.0195224
0.0189809
0.0185404
0.018189
0.0179188
0.017728
0.0176183
0.017591
0.0176533
0.017815
0.0180742
0.187287
0.0584322
0.0284283
0.0227685
0.0208877
0.0198925
0.0191994
0.0186561
0.0182264
0.0178993
0.017671
0.01754
0.0175044
0.0175557
0.0176783
0.0178661
0.0181207
0.193164
0.0621435
0.0294344
0.0231349
0.021036
0.0199524
0.0192078
0.0186286
0.0181738
0.017836
0.0176207
0.0175363
0.0175835
0.0177545
0.0180313
0.0183856
0.0188001
0.198855
0.066583
0.0311563
0.0240559
0.021655
0.0204061
0.0195497
0.0188873
0.0183688
0.0179865
0.0177456
0.0176547
0.0177119
0.0178989
0.0181905
0.0185574
0.0189726
0.205046
0.0730923
0.0340193
0.0256812
0.0227607
0.0212147
0.0201648
0.0193716
0.0187668
0.0183346
0.0180723
0.017978
0.0180422
0.0182378
0.0185178
0.0188387
0.0191564
0.213002
0.0834296
0.0384648
0.0280716
0.0242819
0.0222672
0.0209443
0.0199897
0.0192935
0.0188149
0.0185367
0.0184485
0.0185383
0.0187856
0.0191525
0.0195926
0.0200705
0.223649
0.0978363
0.0446095
0.0311093
0.0260449
0.0234201
0.0217858
0.0206733
0.0199024
0.0193912
0.0190963
0.0189905
0.0190519
0.0192571
0.0195746
0.0199657
0.0204026
0.236421
0.11301
0.0517805
0.0343774
0.0278117
0.02455
0.0226278
0.0213901
0.0205724
0.0200508
0.0197572
0.0196485
0.0196949
0.0198689
0.0201339
0.0204386
0.0207163
0.249974
0.12773
0.0584309
0.0372396
0.0293471
0.0255743
0.0234404
0.0221215
0.0212823
0.0207637
0.0204784
0.020373
0.0204154
0.0205872
0.0208733
0.0212538
0.0216959
0.262869
0.139486
0.0629234
0.039195
0.0305262
0.0264647
0.0242173
0.0228636
0.0220256
0.0215197
0.0212442
0.0211363
0.0211555
0.0212797
0.0214973
0.0218017
0.0221884
0.273877
0.145277
0.0646041
0.0401808
0.0313675
0.027229
0.0249572
0.0236112
0.0227945
0.0223106
0.0220506
0.0219468
0.0219539
0.0220456
0.0222062
0.0224166
0.0226206
0.282721
0.143952
0.0640128
0.0405897
0.0319939
0.0279041
0.0256701
0.0243661
0.0235882
0.023134
0.0228913
0.0227915
0.0227906
0.0228648
0.0230088
0.0232393
0.0235774
0.289495
0.137012
0.0625824
0.040857
0.0325401
0.0285488
0.0263896
0.0251479
0.0244171
0.0239937
0.0237664
0.0236682
0.0236553
0.0237012
0.0237941
0.0239466
0.024215
0.29413
0.127552
0.0614232
0.041304
0.0331505
0.0292416
0.0271587
0.0259803
0.0252952
0.0248998
0.0246842
0.024584
0.0245577
0.0245794
0.0246311
0.0247041
0.0247742
0.296112
0.119353
0.0614259
0.0420966
0.0339494
0.0300588
0.0280219
0.0268899
0.0262395
0.0258635
0.0256527
0.0255447
0.0255008
0.0254977
0.0255182
0.0255629
0.0256416
0.294793
0.115402
0.0629575
0.0434063
0.0350369
0.0310617
0.0290167
0.0279009
0.0272667
0.0268979
0.0266828
0.0265598
0.0264924
0.0264591
0.0264426
0.0264427
0.0264417
0.292206
0.116212
0.0649693
0.0450697
0.0363701
0.0322431
0.0301473
0.0290211
0.0283859
0.0280122
0.0277841
0.0276396
0.0275432
0.0274745
0.0274184
0.0273757
0.0273263
0.28952
0.119431
0.0675509
0.0469629
0.0378722
0.0335662
0.0314002
0.0302488
0.0296013
0.0292139
0.0289656
0.0287932
0.028662
0.0285529
0.0284527
0.0283641
0.028259
0.287163
0.12292
0.0703353
0.0490166
0.0395256
0.035034
0.0327888
0.0316025
0.030933
0.0305229
0.030246
0.030038
0.0298644
0.0297073
0.0295551
0.0294059
0.0292416
0.285401
0.125821
0.072922
0.0510757
0.0412742
0.0366334
0.0343204
0.0330982
0.0324008
0.0319602
0.0316462
0.0313938
0.0311694
0.030956
0.0307421
0.030527
0.030302
0.284365
0.128042
0.0751038
0.0530037
0.0430529
0.0383435
0.0359977
0.034751
0.0340251
0.0335476
0.0331874
0.0328806
0.0325946
0.032314
0.0320284
0.0317425
0.0314376
0.284099
0.130102
0.0769946
0.0548118
0.044863
0.0401746
0.0378397
0.0365849
0.0358319
0.0353111
0.0348946
0.0345211
0.0341604
0.0337986
0.0334281
0.0330515
0.0326497
0.28452
0.131605
0.0785494
0.0565221
0.0467381
0.0421626
0.0398826
0.0386353
0.0378552
0.037283
0.036798
0.0363434
0.0358927
0.0354341
0.0349627
0.034477
0.0339788
0.285493
0.132545
0.0797393
0.0581575
0.0487249
0.0443591
0.0421755
0.040947
0.0401353
0.0394993
0.0389293
0.0383757
0.0378164
0.0372432
0.0366528
0.0360489
0.0354305
0.286887
0.133157
0.0807154
0.0598343
0.0509193
0.0468436
0.0447846
0.0435759
0.0427205
0.0420021
0.0413258
0.0406504
0.0399593
0.0392476
0.0385142
0.0377673
0.0369942
0.288551
0.133122
0.081538
0.0616858
0.0534457
0.0497173
0.047791
0.046588
0.0456658
0.0448387
0.0440285
0.0432037
0.0423535
0.0414761
0.0405744
0.0396519
0.0387155
0.290367
0.132757
0.0824218
0.0639039
0.0564591
0.0530996
0.0512871
0.0500576
0.0490329
0.0480612
0.0470823
0.0460744
0.0450319
0.0439572
0.0428562
0.0417354
0.0406089
0.292233
0.132049
0.0836185
0.0667274
0.0601418
0.0571255
0.0553758
0.0540665
0.0528895
0.0517277
0.0505375
0.0493055
0.0480313
0.0467208
0.0453817
0.0440278
0.042658
0.294081
0.131305
0.0854746
0.0704393
0.064698
0.0619424
0.0601693
0.0587048
0.0573114
0.0559029
0.0544498
0.0529451
0.0513923
0.0498003
0.0481804
0.0465451
0.0449067
0.29586
0.13091
0.0884478
0.0753741
0.070355
0.0677121
0.0657913
0.0640734
0.0623837
0.0606602
0.0588821
0.0570463
0.055159
0.0532316
0.0512794
0.0493171
0.0473698
0.297525
0.131446
0.0931104
0.0819159
0.0773663
0.0746161
0.072383
0.0702884
0.0682045
0.0660826
0.0639045
0.0616673
0.0593782
0.0570511
0.054704
0.0523588
0.0500317
0.299018
0.133825
0.100184
0.0905098
0.0860228
0.0828657
0.0801111
0.0774861
0.0748866
0.0722635
0.0695933
0.0668692
0.0640973
0.0612932
0.0584788
0.0556792
0.052971
0.300247
0.139371
0.110572
0.101687
0.096675
0.0927205
0.0891778
0.0858269
0.0825577
0.0793041
0.0760277
0.0727126
0.0693609
0.0659887
0.0626222
0.0593071
0.0561172
0.301072
0.150053
0.125411
0.116108
0.109772
0.104511
0.099831
0.0954974
0.091358
0.087309
0.0832851
0.0792533
0.0752072
0.0711612
0.0671442
0.0632465
0.0594687
0.30132
0.168732
0.146187
0.134657
0.125919
0.118666
0.112375
0.106712
0.101437
0.0963814
0.0914361
0.0865389
0.0816671
0.0768282
0.0720519
0.0674472
0.0630055
0.300842
0.199681
0.174977
0.158613
0.145971
0.135757
0.127187
0.119715
0.112949
0.106619
0.100542
0.094611
0.0887727
0.0830171
0.0773636
0.071936
0.0667259
0.0195792
0.0273193
0.0508779
0.102125
0.195261
0.34942
0.622833
1.1856
2.01202
1.43355
0.957512
0.924167
1.20772
1.27174
0.803538
0.347694
0.128007
0.0511518
0.0301707
0.0258074
0.0202374
0.0295252
0.0572417
0.116803
0.224466
0.400762
0.706385
1.2705
2.18677
1.62868
1.13588
1.09434
1.4817
1.59726
0.980946
0.409434
0.146464
0.0568166
0.0319663
0.0265607
0.0212286
0.0325223
0.0653216
0.134664
0.259484
0.463104
0.80442
1.36773
2.4343
2.03628
1.40257
1.30321
1.84163
1.9986
1.20674
0.485956
0.168377
0.0635477
0.0340953
0.0273841
0.0227044
0.0367199
0.0759321
0.157173
0.302612
0.542344
0.924371
1.47189
2.63837
2.44915
1.69181
1.51395
2.24
2.47204
1.49444
0.58177
0.194921
0.071706
0.0366965
0.0283213
0.0248938
0.0428078
0.0903214
0.186636
0.357024
0.64418
1.07337
1.61334
2.71452
2.79575
2.00718
1.73844
2.6418
2.9925
1.85738
0.704523
0.227986
0.0818139
0.0399771
0.029444
0.0281567
0.0519544
0.110421
0.22633
0.42893
0.772113
1.25411
1.79117
2.72577
2.97722
2.32319
1.99872
3.02164
3.5217
2.3104
0.865274
0.27069
0.0946044
0.0442311
0.0308595
0.033067
0.0657785
0.139907
0.279868
0.521364
0.93229
1.48289
2.00929
2.77491
3.01837
2.57816
2.30552
3.38763
4.02674
2.85954
1.07921
0.326653
0.111099
0.0498769
0.0327309
0.0405478
0.085666
0.180049
0.349772
0.64722
1.14518
1.78451
2.27644
2.89146
3.00919
2.70169
2.658
3.74883
4.4939
3.48457
1.35788
0.40141
0.13279
0.0575174
0.0353094
0.0520811
0.114275
0.234422
0.443822
0.819035
1.43736
2.17509
2.61373
3.09613
2.96354
2.68263
2.97068
4.08189
4.90061
4.14415
1.72093
0.503216
0.161921
0.0680411
0.0389885
0.069957
0.155296
0.308664
0.573668
1.05636
1.82252
2.7101
3.11972
3.40652
2.94574
2.6809
3.16402
4.33046
5.21938
4.77602
2.19579
0.646269
0.202025
0.0827361
0.0443798
0.0976773
0.213739
0.410795
0.757793
1.38803
2.36631
3.45791
3.94868
3.85662
2.98589
2.71932
3.26044
4.47642
5.44171
5.29391
2.8122
0.848683
0.25806
0.103499
0.0524469
0.140532
0.297229
0.55452
1.01811
1.84795
3.07798
4.42724
5.07327
4.43423
3.09593
2.78523
3.32678
4.55727
5.57135
5.65444
3.53694
1.12656
0.338054
0.133326
0.0647436
0.206755
0.418269
0.762971
1.38479
2.43863
3.94702
5.55383
6.17245
5.07406
3.29612
2.89663
3.40617
4.56481
5.59349
5.85855
4.28065
1.51243
0.456973
0.17701
0.0837361
0.309782
0.596153
1.0636
1.86422
3.13931
4.88747
6.45134
6.87971
5.66911
3.6312
3.11348
3.55168
4.57003
5.53705
5.9336
4.91015
2.03299
0.631998
0.241964
0.113541
0.471108
0.866806
1.46626
2.42131
3.90001
5.5441
6.77261
7.04309
6.06056
4.10735
3.46892
3.82901
4.69678
5.5533
5.92198
5.26045
2.72243
0.887468
0.342117
0.161227
0.730118
1.24652
1.93741
3.01874
4.48238
5.75713
6.56234
6.74125
6.13939
4.56661
3.98018
4.28128
4.98484
5.61633
5.82294
5.26356
3.44055
1.25253
0.495833
0.239401
1.1246
1.69634
2.45158
3.5999
4.71863
5.58365
6.11779
6.29826
6.01129
5.11512
4.69434
4.92465
5.38289
5.6849
5.62495
5.05521
3.86017
1.75587
0.725563
0.372356
1.60748
2.16676
3.01202
3.89691
4.68693
5.31226
5.74881
6.00813
6.03244
5.73855
5.54714
5.61576
5.71219
5.61469
5.26819
4.65305
3.72444
2.4135
1.04256
0.590728