/*--------------------------------*- C++ -*----------------------------------*\
  =========                 |
  \\      /  F ield         | OpenFOAM: The Open Source CFD Toolbox
   \\    /   O peration     | Website:  https://openfoam.org
    \\  /    A nd           | Version:  6
     \\/     M anipulation  |
\*---------------------------------------------------------------------------*/
FoamFile
{
    version     2.0;
    format      ascii;
    class       volVectorField;
    location    "2.57";
    object      U;
}
// * * * * * * * * * * * * * * * * * * * * * * * * * * * * * * * * * * * * * //

dimensions      [0 1 -1 0 0 0 0];

internalField   nonuniform List<vector> 
5625
(
(0.930198 0.302167 0)
(0.959688 0.269359 0)
(0.99603 0.232761 0)
(1.03926 0.193566 0)
(1.08884 0.153947 0)
(1.1436 0.11682 0)
(1.20196 0.0853819 0)
(1.26219 0.0626671 0)
(1.32251 0.0512158 0)
(1.3812 0.0528615 0)
(1.43655 0.068691 0)
(1.48691 0.0990553 0)
(1.53084 0.143439 0)
(1.56714 0.20031 0)
(1.59489 0.267422 0)
(1.61355 0.342426 0)
(1.62281 0.422774 0)
(1.62217 0.505024 0)
(1.61109 0.585104 0)
(1.58981 0.659558 0)
(1.55936 0.725943 0)
(1.52087 0.782001 0)
(1.47525 0.825062 0)
(1.42371 0.852638 0)
(1.36829 0.863574 0)
(1.31159 0.858612 0)
(1.25614 0.840077 0)
(1.204 0.811086 0)
(1.15666 0.77483 0)
(1.11515 0.734215 0)
(1.07995 0.691785 0)
(1.05094 0.64975 0)
(1.02738 0.610011 0)
(1.00814 0.574092 0)
(0.991956 0.543047 0)
(0.977736 0.517395 0)
(0.964766 0.497119 0)
(0.952738 0.481757 0)
(0.941665 0.470569 0)
(0.931725 0.462698 0)
(0.923106 0.45732 0)
(0.915914 0.453732 0)
(0.910136 0.451379 0)
(0.905655 0.449857 0)
(0.902292 0.448881 0)
(0.89984 0.44826 0)
(0.898097 0.447866 0)
(0.896887 0.447618 0)
(0.896062 0.447461 0)
(0.895509 0.447362 0)
(0.895142 0.4473 0)
(0.894899 0.447262 0)
(0.894739 0.447238 0)
(0.894633 0.447223 0)
(0.894561 0.447213 0)
(0.894512 0.447208 0)
(0.894479 0.447204 0)
(0.894455 0.447202 0)
(0.894439 0.447201 0)
(0.894427 0.447201 0)
(0.894419 0.4472 0)
(0.894413 0.4472 0)
(0.894408 0.4472 0)
(0.894406 0.4472 0)
(0.894404 0.4472 0)
(0.894402 0.4472 0)
(0.894402 0.4472 0)
(0.894401 0.4472 0)
(0.894401 0.4472 0)
(0.8944 0.4472 0)
(0.8944 0.4472 0)
(0.8944 0.4472 0)
(0.8944 0.4472 0)
(0.8944 0.4472 0)
(0.8944 0.4472 0)
(0.925713 0.315558 0)
(0.953451 0.286591 0)
(0.987755 0.254473 0)
(1.02877 0.220086 0)
(1.0762 0.185136 0)
(1.12916 0.152067 0)
(1.18621 0.123741 0)
(1.24562 0.103012 0)
(1.30553 0.0923409 0)
(1.36403 0.0935326 0)
(1.41932 0.107658 0)
(1.46972 0.135058 0)
(1.51378 0.175214 0)
(1.55021 0.226677 0)
(1.57803 0.28745 0)
(1.59669 0.355408 0)
(1.6058 0.428026 0)
(1.60481 0.50197 0)
(1.59343 0.573694 0)
(1.57219 0.640357 0)
(1.54218 0.699743 0)
(1.50436 0.74953 0)
(1.45956 0.787137 0)
(1.40907 0.810463 0)
(1.35501 0.81879 0)
(1.29992 0.813048 0)
(1.2462 0.795418 0)
(1.19577 0.76866 0)
(1.15003 0.735558 0)
(1.10994 0.698672 0)
(1.07592 0.66029 0)
(1.04777 0.622438 0)
(1.02473 0.586873 0)
(1.00568 0.554987 0)
(0.989469 0.527706 0)
(0.975119 0.505434 0)
(0.96204 0.488066 0)
(0.950009 0.475101 0)
(0.939073 0.465803 0)
(0.929393 0.459363 0)
(0.921116 0.455032 0)
(0.914296 0.452184 0)
(0.908876 0.450346 0)
(0.904711 0.449172 0)
(0.901608 0.44843 0)
(0.89936 0.447963 0)
(0.897771 0.447671 0)
(0.896671 0.447489 0)
(0.895923 0.447375 0)
(0.895421 0.447305 0)
(0.895088 0.447261 0)
(0.894867 0.447235 0)
(0.89472 0.44722 0)
(0.894622 0.44721 0)
(0.894555 0.447205 0)
(0.894509 0.447202 0)
(0.894477 0.4472 0)
(0.894454 0.4472 0)
(0.894438 0.447199 0)
(0.894426 0.447199 0)
(0.894418 0.4472 0)
(0.894412 0.4472 0)
(0.894408 0.4472 0)
(0.894406 0.4472 0)
(0.894404 0.4472 0)
(0.894402 0.4472 0)
(0.894402 0.4472 0)
(0.894401 0.4472 0)
(0.894401 0.4472 0)
(0.8944 0.4472 0)
(0.8944 0.4472 0)
(0.8944 0.4472 0)
(0.8944 0.4472 0)
(0.8944 0.4472 0)
(0.8944 0.4472 0)
(0.920621 0.32819 0)
(0.946319 0.302712 0)
(0.978281 0.27468 0)
(1.01663 0.244798 0)
(1.06121 0.214382 0)
(1.11137 0.185419 0)
(1.16594 0.160365 0)
(1.2233 0.141799 0)
(1.28159 0.132019 0)
(1.33885 0.132769 0)
(1.39321 0.145123 0)
(1.44296 0.169453 0)
(1.48654 0.205284 0)
(1.52259 0.251303 0)
(1.55014 0.305768 0)
(1.56863 0.366714 0)
(1.57754 0.431639 0)
(1.57638 0.497451 0)
(1.56514 0.561176 0)
(1.54454 0.620436 0)
(1.51556 0.673082 0)
(1.47896 0.716746 0)
(1.43557 0.749068 0)
(1.38683 0.768398 0)
(1.33491 0.774403 0)
(1.28225 0.76812 0)
(1.23107 0.751549 0)
(1.18311 0.727099 0)
(1.13969 0.697171 0)
(1.10167 0.664008 0)
(1.06938 0.629661 0)
(1.04254 0.595985 0)
(1.02037 0.564587 0)
(1.00183 0.536719 0)
(0.98584 0.513167 0)
(0.971589 0.494213 0)
(0.958608 0.479668 0)
(0.946759 0.468996 0)
(0.936114 0.461479 0)
(0.92682 0.456369 0)
(0.918977 0.452996 0)
(0.912591 0.45082 0)
(0.907569 0.44944 0)
(0.903744 0.448576 0)
(0.900915 0.448038 0)
(0.898877 0.447706 0)
(0.897442 0.447502 0)
(0.896453 0.447377 0)
(0.895782 0.447301 0)
(0.895332 0.447255 0)
(0.895032 0.447228 0)
(0.894832 0.447212 0)
(0.894699 0.447204 0)
(0.894609 0.447199 0)
(0.894547 0.447197 0)
(0.894504 0.447197 0)
(0.894474 0.447197 0)
(0.894452 0.447197 0)
(0.894437 0.447198 0)
(0.894426 0.447198 0)
(0.894418 0.447199 0)
(0.894412 0.447199 0)
(0.894408 0.447199 0)
(0.894405 0.4472 0)
(0.894404 0.4472 0)
(0.894402 0.4472 0)
(0.894401 0.4472 0)
(0.894401 0.4472 0)
(0.894401 0.4472 0)
(0.8944 0.4472 0)
(0.8944 0.4472 0)
(0.8944 0.4472 0)
(0.8944 0.4472 0)
(0.8944 0.4472 0)
(0.8944 0.4472 0)
(0.91522 0.339966 0)
(0.938622 0.317637 0)
(0.967988 0.293263 0)
(1.00338 0.267452 0)
(1.04467 0.24125 0)
(1.09138 0.216246 0)
(1.14256 0.19448 0)
(1.19681 0.17818 0)
(1.25236 0.169417 0)
(1.30733 0.169827 0)
(1.35983 0.180489 0)
(1.40812 0.201807 0)
(1.45053 0.233354 0)
(1.48572 0.27401 0)
(1.51272 0.322283 0)
(1.53088 0.37632 0)
(1.53961 0.433707 0)
(1.53855 0.491724 0)
(1.52794 0.547915 0)
(1.50851 0.60017 0)
(1.48101 0.646323 0)
(1.44607 0.684063 0)
(1.40463 0.711363 0)
(1.35828 0.727038 0)
(1.30921 0.731063 0)
(1.2597 0.724499 0)
(1.21174 0.709128 0)
(1.16691 0.687022 0)
(1.1264 0.660242 0)
(1.09095 0.630745 0)
(1.0608 0.600373 0)
(1.03561 0.570813 0)
(1.0146 0.543522 0)
(0.996778 0.519598 0)
(0.981226 0.49968 0)
(0.967273 0.483924 0)
(0.954578 0.472062 0)
(0.94308 0.463535 0)
(0.932872 0.457658 0)
(0.924073 0.453753 0)
(0.916741 0.451234 0)
(0.910839 0.449649 0)
(0.906243 0.448669 0)
(0.902772 0.44807 0)
(0.900223 0.447707 0)
(0.898398 0.447489 0)
(0.897119 0.447358 0)
(0.896239 0.447282 0)
(0.895643 0.447237 0)
(0.895243 0.447212 0)
(0.894976 0.447198 0)
(0.894797 0.447192 0)
(0.894677 0.44719 0)
(0.894596 0.44719 0)
(0.894539 0.447191 0)
(0.894499 0.447192 0)
(0.894471 0.447194 0)
(0.89445 0.447195 0)
(0.894436 0.447196 0)
(0.894425 0.447197 0)
(0.894417 0.447198 0)
(0.894412 0.447199 0)
(0.894408 0.447199 0)
(0.894405 0.447199 0)
(0.894403 0.4472 0)
(0.894402 0.4472 0)
(0.894401 0.4472 0)
(0.894401 0.4472 0)
(0.894401 0.4472 0)
(0.8944 0.4472 0)
(0.8944 0.4472 0)
(0.8944 0.4472 0)
(0.8944 0.4472 0)
(0.8944 0.4472 0)
(0.8944 0.4472 0)
(0.909811 0.350823 0)
(0.930706 0.331305 0)
(0.957269 0.310177 0)
(0.989497 0.28797 0)
(1.02725 0.265547 0)
(1.07013 0.244188 0)
(1.11736 0.225555 0)
(1.16773 0.211508 0)
(1.21968 0.203845 0)
(1.27145 0.204066 0)
(1.32123 0.21321 0)
(1.36725 0.231668 0)
(1.40785 0.2591 0)
(1.44171 0.29461 0)
(1.46787 0.336915 0)
(1.48553 0.38426 0)
(1.49412 0.434428 0)
(1.49344 0.485125 0)
(1.48384 0.534274 0)
(1.4659 0.579871 0)
(1.44015 0.619772 0)
(1.40722 0.651866 0)
(1.36821 0.674525 0)
(1.32485 0.686969 0)
(1.27925 0.689382 0)
(1.23348 0.682787 0)
(1.18928 0.668727 0)
(1.14806 0.648962 0)
(1.11088 0.62526 0)
(1.07838 0.599334 0)
(1.05066 0.572836 0)
(1.02735 0.54729 0)
(1.00767 0.523998 0)
(0.990748 0.503892 0)
(0.9758 0.487454 0)
(0.962316 0.474719 0)
(0.950078 0.465349 0)
(0.939084 0.45878 0)
(0.929436 0.454374 0)
(0.921224 0.451531 0)
(0.914463 0.449754 0)
(0.90908 0.448673 0)
(0.904928 0.448029 0)
(0.901818 0.447652 0)
(0.899548 0.447435 0)
(0.897932 0.447311 0)
(0.896804 0.447241 0)
(0.89603 0.447204 0)
(0.895507 0.447185 0)
(0.895156 0.447176 0)
(0.89492 0.447174 0)
(0.894762 0.447175 0)
(0.894655 0.447178 0)
(0.894582 0.447182 0)
(0.89453 0.447185 0)
(0.894493 0.447188 0)
(0.894467 0.447191 0)
(0.894448 0.447193 0)
(0.894434 0.447195 0)
(0.894424 0.447196 0)
(0.894417 0.447198 0)
(0.894411 0.447198 0)
(0.894408 0.447199 0)
(0.894405 0.447199 0)
(0.894403 0.4472 0)
(0.894402 0.4472 0)
(0.894401 0.4472 0)
(0.894401 0.4472 0)
(0.894401 0.4472 0)
(0.8944 0.4472 0)
(0.8944 0.4472 0)
(0.8944 0.4472 0)
(0.8944 0.4472 0)
(0.8944 0.4472 0)
(0.8944 0.4472 0)
(0.904668 0.360763 0)
(0.922926 0.343706 0)
(0.946523 0.325418 0)
(0.975447 0.306358 0)
(1.00953 0.287249 0)
(1.04839 0.269129 0)
(1.09137 0.25334 0)
(1.13742 0.241409 0)
(1.18521 0.234863 0)
(1.23313 0.23503 0)
(1.2795 0.24284 0)
(1.32259 0.258655 0)
(1.36084 0.282255 0)
(1.39298 0.312955 0)
(1.41795 0.349613 0)
(1.43493 0.390601 0)
(1.4434 0.43401 0)
(1.44329 0.47793 0)
(1.43486 0.520497 0)
(1.4185 0.559756 0)
(1.39466 0.593695 0)
(1.36405 0.620533 0)
(1.32793 0.639038 0)
(1.28807 0.648727 0)
(1.24642 0.649901 0)
(1.20481 0.643491 0)
(1.16474 0.630816 0)
(1.12747 0.613358 0)
(1.0939 0.592631 0)
(1.06455 0.57015 0)
(1.03942 0.547394 0)
(1.0181 0.525727 0)
(0.999865 0.50628 0)
(0.98395 0.48981 0)
(0.969738 0.476645 0)
(0.95687 0.466701 0)
(0.945235 0.459591 0)
(0.934878 0.454764 0)
(0.925893 0.45164 0)
(0.91834 0.449704 0)
(0.912194 0.44855 0)
(0.907351 0.447888 0)
(0.903649 0.447519 0)
(0.900896 0.447321 0)
(0.898901 0.447219 0)
(0.897487 0.447169 0)
(0.896504 0.447148 0)
(0.895832 0.447141 0)
(0.895377 0.447143 0)
(0.895072 0.447148 0)
(0.894867 0.447154 0)
(0.894728 0.447162 0)
(0.894633 0.447169 0)
(0.894567 0.447175 0)
(0.89452 0.44718 0)
(0.894487 0.447185 0)
(0.894463 0.447189 0)
(0.894445 0.447192 0)
(0.894432 0.447194 0)
(0.894422 0.447196 0)
(0.894415 0.447197 0)
(0.894411 0.447198 0)
(0.894407 0.447199 0)
(0.894405 0.447199 0)
(0.894403 0.447199 0)
(0.894402 0.4472 0)
(0.894401 0.4472 0)
(0.894401 0.4472 0)
(0.8944 0.4472 0)
(0.8944 0.4472 0)
(0.8944 0.4472 0)
(0.8944 0.4472 0)
(0.8944 0.4472 0)
(0.8944 0.4472 0)
(0.8944 0.4472 0)
(0.9 0.369845 0)
(0.915592 0.354895 0)
(0.936155 0.339047 0)
(0.961685 0.322691 0)
(0.992018 0.306432 0)
(1.02679 0.291115 0)
(1.06541 0.277819 0)
(1.10697 0.267789 0)
(1.15029 0.262295 0)
(1.19399 0.262463 0)
(1.23649 0.269091 0)
(1.27621 0.282529 0)
(1.31171 0.302667 0)
(1.34173 0.328948 0)
(1.36521 0.360345 0)
(1.38134 0.395435 0)
(1.38968 0.432637 0)
(1.39012 0.470311 0)
(1.38282 0.506709 0)
(1.36803 0.539981 0)
(1.3462 0.568371 0)
(1.3182 0.590464 0)
(1.28538 0.605365 0)
(1.24941 0.612786 0)
(1.21205 0.613061 0)
(1.17485 0.607016 0)
(1.13912 0.595764 0)
(1.10596 0.580551 0)
(1.07612 0.56268 0)
(1.04999 0.543496 0)
(1.02749 0.524325 0)
(1.00819 0.506368 0)
(0.991426 0.49057 0)
(0.976588 0.477507 0)
(0.963217 0.467353 0)
(0.951093 0.459926 0)
(0.940188 0.454809 0)
(0.930576 0.451483 0)
(0.922337 0.449441 0)
(0.915492 0.448255 0)
(0.909984 0.447608 0)
(0.905686 0.447279 0)
(0.902428 0.447127 0)
(0.900024 0.447067 0)
(0.898291 0.447054 0)
(0.897069 0.447061 0)
(0.896223 0.447077 0)
(0.895646 0.447094 0)
(0.895255 0.44711 0)
(0.894992 0.447125 0)
(0.894815 0.447139 0)
(0.894694 0.447151 0)
(0.894611 0.447161 0)
(0.894553 0.44717 0)
(0.894511 0.447177 0)
(0.894481 0.447183 0)
(0.894458 0.447187 0)
(0.894442 0.447191 0)
(0.89443 0.447193 0)
(0.894421 0.447195 0)
(0.894415 0.447197 0)
(0.89441 0.447198 0)
(0.894407 0.447199 0)
(0.894404 0.447199 0)
(0.894403 0.447199 0)
(0.894402 0.4472 0)
(0.894401 0.4472 0)
(0.894401 0.4472 0)
(0.8944 0.4472 0)
(0.8944 0.4472 0)
(0.8944 0.4472 0)
(0.8944 0.4472 0)
(0.8944 0.4472 0)
(0.8944 0.4472 0)
(0.8944 0.4472 0)
(0.895981 0.378161 0)
(0.908961 0.364971 0)
(0.9265 0.351173 0)
(0.948632 0.337098 0)
(0.975206 0.323242 0)
(1.00589 0.310292 0)
(1.04014 0.299121 0)
(1.07718 0.290732 0)
(1.11596 0.286158 0)
(1.15525 0.286326 0)
(1.19365 0.291911 0)
(1.22976 0.30325 0)
(1.26224 0.320285 0)
(1.28985 0.342541 0)
(1.31159 0.369125 0)
(1.32672 0.398861 0)
(1.33481 0.430422 0)
(1.33568 0.462339 0)
(1.32937 0.492986 0)
(1.31611 0.520728 0)
(1.29645 0.54412 0)
(1.27134 0.56207 0)
(1.24211 0.573926 0)
(1.21029 0.579528 0)
(1.17736 0.579204 0)
(1.14465 0.573662 0)
(1.11331 0.563837 0)
(1.08426 0.550787 0)
(1.05812 0.535646 0)
(1.03516 0.51961 0)
(1.01522 0.503852 0)
(0.997879 0.489401 0)
(0.982584 0.477009 0)
(0.968863 0.46707 0)
(0.956416 0.459619 0)
(0.945142 0.454398 0)
(0.935073 0.450983 0)
(0.92629 0.448908 0)
(0.918848 0.447746 0)
(0.912738 0.447158 0)
(0.907873 0.446904 0)
(0.904112 0.44683 0)
(0.901285 0.44684 0)
(0.899212 0.446884 0)
(0.897726 0.446935 0)
(0.896683 0.446984 0)
(0.895963 0.447025 0)
(0.895473 0.447059 0)
(0.895141 0.447087 0)
(0.894918 0.447109 0)
(0.894766 0.447128 0)
(0.894662 0.447143 0)
(0.89459 0.447156 0)
(0.894538 0.447166 0)
(0.894501 0.447174 0)
(0.894474 0.447181 0)
(0.894454 0.447186 0)
(0.894439 0.44719 0)
(0.894428 0.447193 0)
(0.894419 0.447195 0)
(0.894413 0.447197 0)
(0.894409 0.447198 0)
(0.894406 0.447199 0)
(0.894404 0.447199 0)
(0.894403 0.447199 0)
(0.894402 0.4472 0)
(0.894401 0.4472 0)
(0.894401 0.4472 0)
(0.8944 0.4472 0)
(0.8944 0.4472 0)
(0.8944 0.4472 0)
(0.8944 0.4472 0)
(0.8944 0.4472 0)
(0.8944 0.4472 0)
(0.8944 0.4472 0)
(0.892732 0.38582 0)
(0.90322 0.374084 0)
(0.917826 0.361964 0)
(0.93663 0.349758 0)
(0.959515 0.337885 0)
(0.986182 0.326894 0)
(1.01615 0.31748 0)
(1.04872 0.310446 0)
(1.08299 0.306625 0)
(1.11786 0.306762 0)
(1.15212 0.311424 0)
(1.18451 0.320905 0)
(1.21378 0.335163 0)
(1.2388 0.353789 0)
(1.25865 0.37605 0)
(1.27264 0.40098 0)
(1.28033 0.427432 0)
(1.28145 0.454073 0)
(1.27603 0.479467 0)
(1.26434 0.502253 0)
(1.24701 0.521287 0)
(1.22499 0.535719 0)
(1.19951 0.545062 0)
(1.17189 0.549239 0)
(1.14338 0.548559 0)
(1.1151 0.543623 0)
(1.08804 0.535215 0)
(1.06298 0.524244 0)
(1.0404 0.511709 0)
(1.02044 0.498666 0)
(1.00291 0.486129 0)
(0.987418 0.474941 0)
(0.973546 0.465664 0)
(0.960964 0.458519 0)
(0.949511 0.453422 0)
(0.939172 0.450069 0)
(0.930016 0.448058 0)
(0.922118 0.446984 0)
(0.915504 0.446506 0)
(0.910132 0.446371 0)
(0.905897 0.44641 0)
(0.902653 0.44652 0)
(0.900231 0.446645 0)
(0.898468 0.44676 0)
(0.897211 0.446856 0)
(0.896332 0.446932 0)
(0.895727 0.446991 0)
(0.895316 0.447036 0)
(0.895038 0.447071 0)
(0.894849 0.447098 0)
(0.894721 0.44712 0)
(0.894632 0.447138 0)
(0.894569 0.447152 0)
(0.894524 0.447164 0)
(0.894491 0.447172 0)
(0.894467 0.44718 0)
(0.894449 0.447185 0)
(0.894435 0.447189 0)
(0.894425 0.447192 0)
(0.894418 0.447195 0)
(0.894412 0.447196 0)
(0.894408 0.447198 0)
(0.894406 0.447198 0)
(0.894404 0.447199 0)
(0.894402 0.447199 0)
(0.894402 0.4472 0)
(0.894401 0.4472 0)
(0.894401 0.4472 0)
(0.8944 0.4472 0)
(0.8944 0.4472 0)
(0.8944 0.4472 0)
(0.8944 0.4472 0)
(0.8944 0.4472 0)
(0.8944 0.4472 0)
(0.8944 0.4472 0)
(0.890308 0.392938 0)
(0.898496 0.382392 0)
(0.910336 0.37162 0)
(0.925959 0.360911 0)
(0.945293 0.350619 0)
(0.968086 0.341196 0)
(0.993911 0.333191 0)
(1.02216 0.327236 0)
(1.05203 0.323986 0)
(1.08258 0.324041 0)
(1.11275 0.327857 0)
(1.1414 0.335672 0)
(1.16741 0.347447 0)
(1.18977 0.362851 0)
(1.20766 0.381281 0)
(1.22039 0.401925 0)
(1.22751 0.423774 0)
(1.22877 0.445661 0)
(1.22423 0.46639 0)
(1.21421 0.484871 0)
(1.19932 0.500196 0)
(1.18047 0.511696 0)
(1.15873 0.519004 0)
(1.1352 0.522098 0)
(1.11094 0.521266 0)
(1.0869 0.517017 0)
(1.0639 0.510013 0)
(1.04258 0.501041 0)
(1.0233 0.490986 0)
(1.00609 0.480767 0)
(0.990771 0.471232 0)
(0.977006 0.46303 0)
(0.964502 0.45653 0)
(0.953073 0.451805 0)
(0.942666 0.448684 0)
(0.933328 0.44685 0)
(0.925137 0.445943 0)
(0.918149 0.445633 0)
(0.912364 0.445663 0)
(0.907714 0.445853 0)
(0.904083 0.446094 0)
(0.901323 0.446328 0)
(0.899278 0.446527 0)
(0.897798 0.446687 0)
(0.896748 0.44681 0)
(0.896017 0.446902 0)
(0.895515 0.446971 0)
(0.895175 0.447022 0)
(0.894944 0.447062 0)
(0.894787 0.447092 0)
(0.894679 0.447116 0)
(0.894603 0.447135 0)
(0.89455 0.44715 0)
(0.894511 0.447162 0)
(0.894482 0.447172 0)
(0.89446 0.447179 0)
(0.894444 0.447185 0)
(0.894432 0.447189 0)
(0.894423 0.447192 0)
(0.894416 0.447195 0)
(0.894411 0.447196 0)
(0.894408 0.447198 0)
(0.894405 0.447198 0)
(0.894403 0.447199 0)
(0.894402 0.447199 0)
(0.894401 0.4472 0)
(0.894401 0.4472 0)
(0.894401 0.4472 0)
(0.8944 0.4472 0)
(0.8944 0.4472 0)
(0.8944 0.4472 0)
(0.8944 0.4472 0)
(0.8944 0.4472 0)
(0.8944 0.4472 0)
(0.8944 0.4472 0)
(0.88871 0.39961 0)
(0.89485 0.390058 0)
(0.904153 0.380362 0)
(0.916807 0.370818 0)
(0.932794 0.361752 0)
(0.951919 0.353534 0)
(0.97381 0.346605 0)
(0.997937 0.341457 0)
(1.02362 0.338602 0)
(1.05002 0.338505 0)
(1.07621 0.34152 0)
(1.1012 0.347833 0)
(1.12401 0.357409 0)
(1.14374 0.369972 0)
(1.15962 0.385023 0)
(1.17101 0.401866 0)
(1.1775 0.419633 0)
(1.1789 0.437352 0)
(1.17529 0.454061 0)
(1.16697 0.46889 0)
(1.15454 0.481114 0)
(1.13879 0.490206 0)
(1.12063 0.495899 0)
(1.10096 0.498212 0)
(1.08067 0.497402 0)
(1.06056 0.493905 0)
(1.04131 0.48829 0)
(1.0234 0.481244 0)
(1.00708 0.473542 0)
(0.992341 0.465962 0)
(0.978996 0.459169 0)
(0.966819 0.453622 0)
(0.955633 0.449516 0)
(0.945365 0.446806 0)
(0.936042 0.445272 0)
(0.927741 0.444615 0)
(0.920536 0.444532 0)
(0.914457 0.444771 0)
(0.909477 0.445149 0)
(0.905514 0.445554 0)
(0.902447 0.445923 0)
(0.900133 0.44623 0)
(0.89843 0.446471 0)
(0.897204 0.446654 0)
(0.89634 0.44679 0)
(0.89574 0.44689 0)
(0.895329 0.446963 0)
(0.895049 0.447017 0)
(0.894859 0.447058 0)
(0.89473 0.44709 0)
(0.89464 0.447114 0)
(0.894577 0.447134 0)
(0.894532 0.447149 0)
(0.894498 0.447162 0)
(0.894473 0.447172 0)
(0.894454 0.447179 0)
(0.894439 0.447185 0)
(0.894429 0.447189 0)
(0.89442 0.447192 0)
(0.894414 0.447195 0)
(0.89441 0.447196 0)
(0.894407 0.447198 0)
(0.894405 0.447198 0)
(0.894403 0.447199 0)
(0.894402 0.447199 0)
(0.894401 0.4472 0)
(0.894401 0.4472 0)
(0.894401 0.4472 0)
(0.8944 0.4472 0)
(0.8944 0.4472 0)
(0.8944 0.4472 0)
(0.8944 0.4472 0)
(0.8944 0.4472 0)
(0.8944 0.4472 0)
(0.8944 0.4472 0)
(0.887874 0.405897 0)
(0.892263 0.397217 0)
(0.899317 0.388398 0)
(0.909275 0.379756 0)
(0.922177 0.371603 0)
(0.937891 0.36427 0)
(0.956112 0.358115 0)
(0.976385 0.353523 0)
(0.998125 0.350883 0)
(1.02061 0.35055 0)
(1.04304 0.352797 0)
(1.06455 0.35776 0)
(1.08428 0.36539 0)
(1.10145 0.375457 0)
(1.11536 0.387546 0)
(1.12543 0.401068 0)
(1.13132 0.415298 0)
(1.13289 0.429451 0)
(1.1302 0.442765 0)
(1.12357 0.454548 0)
(1.11349 0.464219 0)
(1.10065 0.471373 0)
(1.08579 0.475828 0)
(1.06966 0.477628 0)
(1.05298 0.476999 0)
(1.03642 0.474315 0)
(1.02051 0.470075 0)
(1.00563 0.464881 0)
(0.99191 0.459389 0)
(0.979322 0.45422 0)
(0.967736 0.44986 0)
(0.95702 0.446586 0)
(0.947103 0.444456 0)
(0.937998 0.443344 0)
(0.929776 0.443017 0)
(0.922522 0.443214 0)
(0.916292 0.443703 0)
(0.911093 0.444303 0)
(0.906876 0.444899 0)
(0.903551 0.445427 0)
(0.900997 0.445863 0)
(0.899085 0.446204 0)
(0.897687 0.446462 0)
(0.896686 0.446652 0)
(0.895983 0.446791 0)
(0.895497 0.446891 0)
(0.895165 0.446964 0)
(0.894939 0.447018 0)
(0.894785 0.447059 0)
(0.89468 0.447091 0)
(0.894606 0.447115 0)
(0.894553 0.447135 0)
(0.894515 0.44715 0)
(0.894486 0.447162 0)
(0.894464 0.447172 0)
(0.894448 0.447179 0)
(0.894435 0.447185 0)
(0.894426 0.447189 0)
(0.894418 0.447193 0)
(0.894413 0.447195 0)
(0.894409 0.447197 0)
(0.894406 0.447198 0)
(0.894404 0.447199 0)
(0.894403 0.447199 0)
(0.894402 0.447199 0)
(0.894401 0.4472 0)
(0.894401 0.4472 0)
(0.8944 0.4472 0)
(0.8944 0.4472 0)
(0.8944 0.4472 0)
(0.8944 0.4472 0)
(0.8944 0.4472 0)
(0.8944 0.4472 0)
(0.8944 0.4472 0)
(0.8944 0.4472 0)
(0.887686 0.411815 0)
(0.890647 0.403955 0)
(0.895782 0.395896 0)
(0.90337 0.387972 0)
(0.913504 0.380501 0)
(0.926115 0.373788 0)
(0.940977 0.368143 0)
(0.957712 0.363876 0)
(0.975816 0.361287 0)
(0.994678 0.360643 0)
(1.01361 0.362142 0)
(1.03186 0.365871 0)
(1.04871 0.371779 0)
(1.06346 0.379668 0)
(1.07549 0.389192 0)
(1.08434 0.399863 0)
(1.08969 0.411096 0)
(1.09144 0.422266 0)
(1.08965 0.432768 0)
(1.08458 0.442049 0)
(1.07666 0.449654 0)
(1.06645 0.455289 0)
(1.05454 0.45884 0)
(1.04155 0.460364 0)
(1.02806 0.460057 0)
(1.01462 0.458242 0)
(1.00163 0.455356 0)
(0.989349 0.451915 0)
(0.977862 0.44845 0)
(0.967142 0.445416 0)
(0.957121 0.443127 0)
(0.947758 0.441708 0)
(0.939067 0.441117 0)
(0.931114 0.441191 0)
(0.923986 0.441717 0)
(0.917757 0.442486 0)
(0.912463 0.443331 0)
(0.908089 0.44414 0)
(0.904576 0.444848 0)
(0.901828 0.44543 0)
(0.899735 0.445886 0)
(0.898178 0.446232 0)
(0.897046 0.446487 0)
(0.89624 0.446673 0)
(0.895677 0.446806 0)
(0.895289 0.446902 0)
(0.895024 0.446972 0)
(0.894844 0.447024 0)
(0.894721 0.447063 0)
(0.894635 0.447094 0)
(0.894575 0.447118 0)
(0.894532 0.447137 0)
(0.894499 0.447152 0)
(0.894475 0.447164 0)
(0.894456 0.447173 0)
(0.894442 0.44718 0)
(0.894431 0.447186 0)
(0.894422 0.44719 0)
(0.894416 0.447193 0)
(0.894411 0.447195 0)
(0.894408 0.447197 0)
(0.894405 0.447198 0)
(0.894404 0.447199 0)
(0.894402 0.447199 0)
(0.894402 0.447199 0)
(0.894401 0.4472 0)
(0.894401 0.4472 0)
(0.8944 0.4472 0)
(0.8944 0.4472 0)
(0.8944 0.4472 0)
(0.8944 0.4472 0)
(0.8944 0.4472 0)
(0.8944 0.4472 0)
(0.8944 0.4472 0)
(0.8944 0.4472 0)
(0.887977 0.417321 0)
(0.889849 0.41029 0)
(0.893424 0.402957 0)
(0.899 0.39566 0)
(0.906727 0.388723 0)
(0.916595 0.382446 0)
(0.928446 0.377112 0)
(0.941986 0.372985 0)
(0.956796 0.370305 0)
(0.972363 0.369276 0)
(0.988102 0.370037 0)
(1.00339 0.37264 0)
(1.01759 0.377031 0)
(1.03011 0.383038 0)
(1.04043 0.390372 0)
(1.04816 0.398637 0)
(1.05303 0.407369 0)
(1.05494 0.416078 0)
(1.05394 0.424286 0)
(1.05026 0.431555 0)
(1.04424 0.437542 0)
(1.03633 0.442037 0)
(1.02699 0.444976 0)
(1.01671 0.446423 0)
(1.00597 0.446552 0)
(0.995188 0.445644 0)
(0.984664 0.444067 0)
(0.974573 0.442239 0)
(0.964976 0.440556 0)
(0.955874 0.439319 0)
(0.947263 0.438692 0)
(0.939169 0.43869 0)
(0.931659 0.439213 0)
(0.924826 0.440096 0)
(0.918754 0.441166 0)
(0.913501 0.44227 0)
(0.90908 0.443302 0)
(0.905462 0.444199 0)
(0.902581 0.444938 0)
(0.900345 0.445522 0)
(0.898654 0.445967 0)
(0.897404 0.446297 0)
(0.896502 0.446536 0)
(0.895863 0.446708 0)
(0.895418 0.446832 0)
(0.895112 0.44692 0)
(0.894903 0.446985 0)
(0.894761 0.447034 0)
(0.894664 0.44707 0)
(0.894596 0.447099 0)
(0.894548 0.447122 0)
(0.894512 0.44714 0)
(0.894485 0.447154 0)
(0.894465 0.447166 0)
(0.894449 0.447174 0)
(0.894436 0.447181 0)
(0.894427 0.447186 0)
(0.894419 0.44719 0)
(0.894414 0.447193 0)
(0.89441 0.447196 0)
(0.894407 0.447197 0)
(0.894405 0.447198 0)
(0.894403 0.447199 0)
(0.894402 0.447199 0)
(0.894401 0.447199 0)
(0.894401 0.4472 0)
(0.894401 0.4472 0)
(0.8944 0.4472 0)
(0.8944 0.4472 0)
(0.8944 0.4472 0)
(0.8944 0.4472 0)
(0.8944 0.4472 0)
(0.8944 0.4472 0)
(0.8944 0.4472 0)
(0.8944 0.4472 0)
(0.888579 0.422366 0)
(0.889674 0.416178 0)
(0.89205 0.409595 0)
(0.895999 0.402917 0)
(0.901708 0.396461 0)
(0.90922 0.390528 0)
(0.918439 0.385389 0)
(0.929155 0.381287 0)
(0.941042 0.378424 0)
(0.953672 0.37696 0)
(0.966557 0.377 0)
(0.979171 0.378578 0)
(0.990986 0.381637 0)
(1.0015 0.386031 0)
(1.01029 0.391518 0)
(1.017 0.397783 0)
(1.02141 0.404461 0)
(1.02343 0.411171 0)
(1.02311 0.417537 0)
(1.02061 0.423226 0)
(1.0162 0.427987 0)
(1.01023 0.431675 0)
(1.00305 0.434252 0)
(0.995058 0.435782 0)
(0.986623 0.436422 0)
(0.978051 0.43641 0)
(0.969564 0.436041 0)
(0.961289 0.435622 0)
(0.953286 0.435417 0)
(0.945594 0.435592 0)
(0.93826 0.436199 0)
(0.931356 0.437187 0)
(0.924974 0.438436 0)
(0.919208 0.439804 0)
(0.91413 0.441163 0)
(0.909778 0.442417 0)
(0.90615 0.443505 0)
(0.903206 0.444406 0)
(0.90088 0.445121 0)
(0.89909 0.445671 0)
(0.897744 0.446082 0)
(0.896756 0.446383 0)
(0.896046 0.446599 0)
(0.895547 0.446754 0)
(0.895201 0.446864 0)
(0.894964 0.446943 0)
(0.894802 0.447002 0)
(0.894692 0.447046 0)
(0.894616 0.44708 0)
(0.894563 0.447107 0)
(0.894524 0.447128 0)
(0.894495 0.447144 0)
(0.894473 0.447157 0)
(0.894456 0.447168 0)
(0.894442 0.447176 0)
(0.894431 0.447183 0)
(0.894423 0.447187 0)
(0.894417 0.447191 0)
(0.894412 0.447194 0)
(0.894408 0.447196 0)
(0.894406 0.447197 0)
(0.894404 0.447198 0)
(0.894403 0.447199 0)
(0.894402 0.447199 0)
(0.894401 0.4472 0)
(0.894401 0.4472 0)
(0.8944 0.4472 0)
(0.8944 0.4472 0)
(0.8944 0.4472 0)
(0.8944 0.4472 0)
(0.8944 0.4472 0)
(0.8944 0.4472 0)
(0.8944 0.4472 0)
(0.8944 0.4472 0)
(0.8944 0.4472 0)
(0.889342 0.426885 0)
(0.889916 0.421552 0)
(0.891428 0.415755 0)
(0.894132 0.409746 0)
(0.898214 0.403802 0)
(0.903769 0.398211 0)
(0.910767 0.39324 0)
(0.919058 0.389119 0)
(0.928398 0.386041 0)
(0.938454 0.384146 0)
(0.948828 0.383517 0)
(0.959087 0.384177 0)
(0.968791 0.386079 0)
(0.977527 0.389099 0)
(0.984934 0.393046 0)
(0.990721 0.397672 0)
(0.994692 0.402694 0)
(0.996763 0.407812 0)
(0.996965 0.412734 0)
(0.995419 0.417213 0)
(0.992323 0.421072 0)
(0.987927 0.424214 0)
(0.98252 0.426622 0)
(0.9764 0.428347 0)
(0.969843 0.429519 0)
(0.963071 0.430328 0)
(0.956246 0.430992 0)
(0.949474 0.43171 0)
(0.942827 0.43263 0)
(0.936377 0.433815 0)
(0.930206 0.435243 0)
(0.924408 0.436836 0)
(0.919079 0.438483 0)
(0.914301 0.440078 0)
(0.910131 0.441535 0)
(0.906589 0.442801 0)
(0.903661 0.443857 0)
(0.901305 0.444702 0)
(0.899457 0.445358 0)
(0.898044 0.445853 0)
(0.896989 0.446218 0)
(0.89622 0.446481 0)
(0.895672 0.446669 0)
(0.895288 0.446804 0)
(0.895023 0.4469 0)
(0.894842 0.446969 0)
(0.894719 0.447021 0)
(0.894634 0.44706 0)
(0.894576 0.44709 0)
(0.894534 0.447114 0)
(0.894503 0.447133 0)
(0.89448 0.447148 0)
(0.894461 0.447161 0)
(0.894447 0.44717 0)
(0.894436 0.447178 0)
(0.894427 0.447184 0)
(0.89442 0.447189 0)
(0.894414 0.447192 0)
(0.89441 0.447195 0)
(0.894407 0.447196 0)
(0.894405 0.447197 0)
(0.894403 0.447198 0)
(0.894402 0.447199 0)
(0.894402 0.447199 0)
(0.894401 0.4472 0)
(0.894401 0.4472 0)
(0.8944 0.4472 0)
(0.8944 0.4472 0)
(0.8944 0.4472 0)
(0.8944 0.4472 0)
(0.8944 0.4472 0)
(0.8944 0.4472 0)
(0.8944 0.4472 0)
(0.8944 0.4472 0)
(0.8944 0.4472 0)
(0.890152 0.430838 0)
(0.890396 0.426344 0)
(0.891314 0.421359 0)
(0.893109 0.416068 0)
(0.895951 0.410706 0)
(0.899951 0.405525 0)
(0.90513 0.400777 0)
(0.9114 0.396689 0)
(0.918587 0.39344 0)
(0.926439 0.391168 0)
(0.934648 0.389959 0)
(0.942864 0.389836 0)
(0.950726 0.390762 0)
(0.957894 0.39264 0)
(0.964069 0.395325 0)
(0.969008 0.398628 0)
(0.972543 0.402327 0)
(0.974594 0.406191 0)
(0.97517 0.410002 0)
(0.97435 0.413582 0)
(0.972274 0.416803 0)
(0.969128 0.419595 0)
(0.965126 0.421948 0)
(0.960491 0.423906 0)
(0.955424 0.425562 0)
(0.950089 0.427049 0)
(0.944613 0.428505 0)
(0.939093 0.430043 0)
(0.933616 0.431717 0)
(0.928271 0.433523 0)
(0.923156 0.435409 0)
(0.918368 0.43729 0)
(0.913997 0.439081 0)
(0.91011 0.440709 0)
(0.906746 0.442129 0)
(0.903912 0.443319 0)
(0.901587 0.444283 0)
(0.899731 0.445039 0)
(0.898286 0.445615 0)
(0.897188 0.446045 0)
(0.896375 0.446358 0)
(0.895786 0.446582 0)
(0.895368 0.446742 0)
(0.895077 0.446855 0)
(0.894877 0.446936 0)
(0.894742 0.446995 0)
(0.894649 0.447039 0)
(0.894586 0.447074 0)
(0.894541 0.4471 0)
(0.894509 0.447122 0)
(0.894485 0.447139 0)
(0.894466 0.447153 0)
(0.894451 0.447164 0)
(0.89444 0.447173 0)
(0.89443 0.44718 0)
(0.894423 0.447185 0)
(0.894417 0.447189 0)
(0.894412 0.447193 0)
(0.894409 0.447195 0)
(0.894406 0.447197 0)
(0.894404 0.447198 0)
(0.894403 0.447199 0)
(0.894402 0.447199 0)
(0.894401 0.447199 0)
(0.894401 0.4472 0)
(0.894401 0.4472 0)
(0.8944 0.4472 0)
(0.8944 0.4472 0)
(0.8944 0.4472 0)
(0.8944 0.4472 0)
(0.8944 0.4472 0)
(0.8944 0.4472 0)
(0.8944 0.4472 0)
(0.8944 0.4472 0)
(0.8944 0.4472 0)
(0.890929 0.434214 0)
(0.890986 0.430511 0)
(0.891505 0.426324 0)
(0.892665 0.421784 0)
(0.894603 0.417074 0)
(0.897424 0.412398 0)
(0.901172 0.407978 0)
(0.905812 0.404026 0)
(0.911231 0.400723 0)
(0.917246 0.398198 0)
(0.923624 0.39654 0)
(0.930095 0.395788 0)
(0.936372 0.395929 0)
(0.942177 0.396896 0)
(0.947259 0.398578 0)
(0.951423 0.400832 0)
(0.954523 0.403493 0)
(0.956481 0.406391 0)
(0.957285 0.409362 0)
(0.95698 0.412279 0)
(0.955664 0.415044 0)
(0.953469 0.417602 0)
(0.950548 0.419941 0)
(0.947059 0.42209 0)
(0.943155 0.424109 0)
(0.93896 0.426075 0)
(0.93458 0.428054 0)
(0.93011 0.430085 0)
(0.925645 0.432168 0)
(0.921279 0.434265 0)
(0.917112 0.436313 0)
(0.913231 0.438244 0)
(0.909712 0.439998 0)
(0.906605 0.441533 0)
(0.903936 0.442831 0)
(0.901706 0.443893 0)
(0.89989 0.444735 0)
(0.89845 0.445386 0)
(0.897337 0.445875 0)
(0.896498 0.446234 0)
(0.89588 0.446494 0)
(0.895437 0.446679 0)
(0.895124 0.446811 0)
(0.894908 0.446905 0)
(0.894761 0.446972 0)
(0.894661 0.447022 0)
(0.894593 0.447059 0)
(0.894546 0.447088 0)
(0.894513 0.447111 0)
(0.894488 0.44713 0)
(0.894469 0.447146 0)
(0.894454 0.447158 0)
(0.894443 0.447168 0)
(0.894433 0.447176 0)
(0.894425 0.447182 0)
(0.894419 0.447187 0)
(0.894414 0.447191 0)
(0.89441 0.447193 0)
(0.894407 0.447195 0)
(0.894405 0.447197 0)
(0.894404 0.447198 0)
(0.894402 0.447199 0)
(0.894402 0.447199 0)
(0.894401 0.447199 0)
(0.894401 0.4472 0)
(0.8944 0.4472 0)
(0.8944 0.4472 0)
(0.8944 0.4472 0)
(0.8944 0.4472 0)
(0.8944 0.4472 0)
(0.8944 0.4472 0)
(0.8944 0.4472 0)
(0.8944 0.4472 0)
(0.8944 0.4472 0)
(0.8944 0.4472 0)
(0.891618 0.437039 0)
(0.891582 0.434044 0)
(0.891866 0.430612 0)
(0.892596 0.426816 0)
(0.893896 0.422788 0)
(0.895851 0.418698 0)
(0.898516 0.414721 0)
(0.901887 0.411038 0)
(0.905898 0.407818 0)
(0.910426 0.405198 0)
(0.915297 0.403266 0)
(0.920309 0.402078 0)
(0.925239 0.401639 0)
(0.92987 0.401913 0)
(0.933997 0.402828 0)
(0.937453 0.40428 0)
(0.940118 0.406149 0)
(0.941915 0.40831 0)
(0.942819 0.410646 0)
(0.94285 0.413058 0)
(0.942068 0.415473 0)
(0.940566 0.417844 0)
(0.938453 0.420149 0)
(0.935843 0.422396 0)
(0.932845 0.424613 0)
(0.929557 0.426829 0)
(0.926074 0.429059 0)
(0.92249 0.431293 0)
(0.918895 0.433501 0)
(0.915384 0.435633 0)
(0.912044 0.437635 0)
(0.908952 0.439455 0)
(0.906168 0.441058 0)
(0.903728 0.442426 0)
(0.901648 0.443557 0)
(0.899921 0.444465 0)
(0.898525 0.445175 0)
(0.897426 0.445716 0)
(0.896582 0.446118 0)
(0.895951 0.446411 0)