/*--------------------------------*- C++ -*----------------------------------*\
  =========                 |
  \\      /  F ield         | OpenFOAM: The Open Source CFD Toolbox
   \\    /   O peration     | Website:  https://openfoam.org
    \\  /    A nd           | Version:  6
     \\/     M anipulation  |
\*---------------------------------------------------------------------------*/
FoamFile
{
    version     2.0;
    format      ascii;
    class       volVectorField;
    location    "3.12";
    object      U;
}
// * * * * * * * * * * * * * * * * * * * * * * * * * * * * * * * * * * * * * //

dimensions      [0 1 -1 0 0 0 0];

internalField   nonuniform List<vector> 
22500
(
(0.8944 0.4472 0)
(0.8944 0.4472 0)
(0.8944 0.4472 0)
(0.8944 0.4472 0)
(0.8944 0.4472 0)
(0.8944 0.4472 0)
(0.8944 0.4472 0)
(0.8944 0.4472 0)
(0.8944 0.4472 0)
(0.8944 0.4472 0)
(0.8944 0.4472 0)
(0.8944 0.4472 0)
(0.8944 0.4472 0)
(0.8944 0.4472 0)
(0.8944 0.4472 0)
(0.8944 0.4472 0)
(0.8944 0.4472 0)
(0.8944 0.4472 0)
(0.8944 0.4472 0)
(0.8944 0.4472 0)
(0.8944 0.4472 0)
(0.8944 0.4472 0)
(0.8944 0.4472 0)
(0.8944 0.4472 0)
(0.8944 0.4472 0)
(0.8944 0.4472 0)
(0.8944 0.4472 0)
(0.8944 0.4472 0)
(0.8944 0.4472 0)
(0.8944 0.4472 0)
(0.8944 0.4472 0)
(0.8944 0.4472 0)
(0.8944 0.4472 0)
(0.8944 0.4472 0)
(0.8944 0.4472 0)
(0.8944 0.4472 0)
(0.8944 0.4472 0)
(0.8944 0.4472 0)
(0.8944 0.4472 0)
(0.8944 0.4472 0)
(0.8944 0.4472 0)
(0.8944 0.4472 0)
(0.8944 0.4472 0)
(0.8944 0.4472 0)
(0.8944 0.4472 0)
(0.8944 0.4472 0)
(0.8944 0.4472 0)
(0.8944 0.4472 0)
(0.8944 0.4472 0)
(0.8944 0.4472 0)
(0.8944 0.4472 0)
(0.8944 0.4472 0)
(0.8944 0.4472 0)
(0.8944 0.4472 0)
(0.8944 0.4472 0)
(0.8944 0.4472 0)
(0.8944 0.4472 0)
(0.8944 0.4472 0)
(0.8944 0.4472 0)
(0.8944 0.4472 0)
(0.8944 0.4472 0)
(0.8944 0.4472 0)
(0.8944 0.4472 0)
(0.8944 0.4472 0)
(0.8944 0.4472 0)
(0.8944 0.4472 0)
(0.8944 0.4472 0)
(0.8944 0.4472 0)
(0.8944 0.447199 0)
(0.894401 0.447199 0)
(0.894401 0.447199 0)
(0.894401 0.447199 0)
(0.894401 0.447198 0)
(0.894402 0.447197 0)
(0.894402 0.447197 0)
(0.894402 0.447196 0)
(0.894403 0.447195 0)
(0.894403 0.447194 0)
(0.894403 0.447193 0)
(0.894403 0.447191 0)
(0.894403 0.44719 0)
(0.894403 0.447189 0)
(0.894403 0.447188 0)
(0.894402 0.447187 0)
(0.894402 0.447186 0)
(0.894401 0.447186 0)
(0.8944 0.447186 0)
(0.894399 0.447186 0)
(0.894398 0.447187 0)
(0.894397 0.447188 0)
(0.894396 0.44719 0)
(0.894395 0.447192 0)
(0.894394 0.447194 0)
(0.894393 0.447197 0)
(0.894393 0.447199 0)
(0.894393 0.447202 0)
(0.894393 0.447205 0)
(0.894393 0.447208 0)
(0.894394 0.44721 0)
(0.894395 0.447212 0)
(0.894396 0.447214 0)
(0.894397 0.447215 0)
(0.894398 0.447216 0)
(0.894399 0.447217 0)
(0.8944 0.447217 0)
(0.894401 0.447216 0)
(0.894402 0.447216 0)
(0.894402 0.447215 0)
(0.894403 0.447214 0)
(0.894403 0.447213 0)
(0.894403 0.447211 0)
(0.894403 0.44721 0)
(0.894403 0.447208 0)
(0.894403 0.447207 0)
(0.894403 0.447206 0)
(0.894402 0.447205 0)
(0.894402 0.447204 0)
(0.894402 0.447203 0)
(0.894402 0.447202 0)
(0.894401 0.447202 0)
(0.894401 0.447201 0)
(0.894401 0.447201 0)
(0.894401 0.447201 0)
(0.8944 0.4472 0)
(0.8944 0.4472 0)
(0.8944 0.4472 0)
(0.8944 0.4472 0)
(0.8944 0.4472 0)
(0.8944 0.4472 0)
(0.8944 0.4472 0)
(0.8944 0.4472 0)
(0.8944 0.4472 0)
(0.8944 0.4472 0)
(0.8944 0.4472 0)
(0.8944 0.4472 0)
(0.8944 0.4472 0)
(0.8944 0.4472 0)
(0.8944 0.4472 0)
(0.8944 0.4472 0)
(0.8944 0.4472 0)
(0.8944 0.4472 0)
(0.8944 0.4472 0)
(0.8944 0.4472 0)
(0.8944 0.4472 0)
(0.8944 0.4472 0)
(0.8944 0.4472 0)
(0.8944 0.4472 0)
(0.8944 0.4472 0)
(0.8944 0.4472 0)
(0.8944 0.4472 0)
(0.8944 0.4472 0)
(0.8944 0.4472 0)
(0.8944 0.4472 0)
(0.8944 0.4472 0)
(0.8944 0.4472 0)
(0.8944 0.4472 0)
(0.8944 0.4472 0)
(0.8944 0.4472 0)
(0.8944 0.4472 0)
(0.8944 0.4472 0)
(0.8944 0.4472 0)
(0.8944 0.4472 0)
(0.8944 0.4472 0)
(0.8944 0.4472 0)
(0.8944 0.4472 0)
(0.8944 0.4472 0)
(0.8944 0.4472 0)
(0.8944 0.4472 0)
(0.8944 0.4472 0)
(0.8944 0.4472 0)
(0.8944 0.4472 0)
(0.8944 0.4472 0)
(0.8944 0.4472 0)
(0.8944 0.4472 0)
(0.8944 0.4472 0)
(0.8944 0.4472 0)
(0.8944 0.4472 0)
(0.8944 0.4472 0)
(0.8944 0.4472 0)
(0.8944 0.4472 0)
(0.8944 0.4472 0)
(0.8944 0.4472 0)
(0.8944 0.4472 0)
(0.8944 0.4472 0)
(0.8944 0.4472 0)
(0.8944 0.4472 0)
(0.8944 0.4472 0)
(0.8944 0.4472 0)
(0.8944 0.4472 0)
(0.8944 0.4472 0)
(0.8944 0.4472 0)
(0.8944 0.4472 0)
(0.8944 0.4472 0)
(0.8944 0.4472 0)
(0.8944 0.4472 0)
(0.8944 0.4472 0)
(0.8944 0.4472 0)
(0.8944 0.4472 0)
(0.8944 0.4472 0)
(0.8944 0.4472 0)
(0.8944 0.4472 0)
(0.8944 0.4472 0)
(0.8944 0.4472 0)
(0.8944 0.4472 0)
(0.8944 0.4472 0)
(0.8944 0.4472 0)
(0.8944 0.4472 0)
(0.8944 0.4472 0)
(0.8944 0.4472 0)
(0.8944 0.4472 0)
(0.8944 0.4472 0)
(0.8944 0.4472 0)
(0.8944 0.4472 0)
(0.8944 0.4472 0)
(0.8944 0.4472 0)
(0.8944 0.4472 0)
(0.8944 0.4472 0)
(0.894401 0.4472 0)
(0.894401 0.447199 0)
(0.894401 0.447199 0)
(0.894401 0.447199 0)
(0.894401 0.447198 0)
(0.894402 0.447198 0)
(0.894402 0.447197 0)
(0.894403 0.447196 0)
(0.894403 0.447195 0)
(0.894404 0.447193 0)
(0.894404 0.447192 0)
(0.894404 0.44719 0)
(0.894404 0.447189 0)
(0.894404 0.447187 0)
(0.894404 0.447185 0)
(0.894403 0.447184 0)
(0.894403 0.447183 0)
(0.894402 0.447182 0)
(0.894401 0.447182 0)
(0.8944 0.447182 0)
(0.894398 0.447182 0)
(0.894397 0.447184 0)
(0.894395 0.447185 0)
(0.894394 0.447188 0)
(0.894393 0.44719 0)
(0.894392 0.447193 0)
(0.894391 0.447197 0)
(0.89439 0.4472 0)
(0.89439 0.447204 0)
(0.894391 0.447208 0)
(0.894391 0.447211 0)
(0.894392 0.447214 0)
(0.894393 0.447217 0)
(0.894395 0.447219 0)
(0.894396 0.447221 0)
(0.894398 0.447222 0)
(0.894399 0.447222 0)
(0.8944 0.447222 0)
(0.894401 0.447222 0)
(0.894402 0.447221 0)
(0.894403 0.44722 0)
(0.894404 0.447218 0)
(0.894404 0.447216 0)
(0.894405 0.447215 0)
(0.894405 0.447213 0)
(0.894404 0.447211 0)
(0.894404 0.447209 0)
(0.894404 0.447208 0)
(0.894403 0.447206 0)
(0.894403 0.447205 0)
(0.894402 0.447204 0)
(0.894402 0.447203 0)
(0.894402 0.447202 0)
(0.894401 0.447202 0)
(0.894401 0.447201 0)
(0.894401 0.447201 0)
(0.894401 0.447201 0)
(0.8944 0.4472 0)
(0.8944 0.4472 0)
(0.8944 0.4472 0)
(0.8944 0.4472 0)
(0.8944 0.4472 0)
(0.8944 0.4472 0)
(0.8944 0.4472 0)
(0.8944 0.4472 0)
(0.8944 0.4472 0)
(0.8944 0.4472 0)
(0.8944 0.4472 0)
(0.8944 0.4472 0)
(0.8944 0.4472 0)
(0.8944 0.4472 0)
(0.8944 0.4472 0)
(0.8944 0.4472 0)
(0.8944 0.4472 0)
(0.8944 0.4472 0)
(0.8944 0.4472 0)
(0.8944 0.4472 0)
(0.8944 0.4472 0)
(0.8944 0.4472 0)
(0.8944 0.4472 0)
(0.8944 0.4472 0)
(0.8944 0.4472 0)
(0.8944 0.4472 0)
(0.8944 0.4472 0)
(0.8944 0.4472 0)
(0.8944 0.4472 0)
(0.8944 0.4472 0)
(0.8944 0.4472 0)
(0.8944 0.4472 0)
(0.8944 0.4472 0)
(0.8944 0.4472 0)
(0.8944 0.4472 0)
(0.8944 0.4472 0)
(0.8944 0.4472 0)
(0.8944 0.4472 0)
(0.8944 0.4472 0)
(0.8944 0.4472 0)
(0.8944 0.4472 0)
(0.8944 0.4472 0)
(0.8944 0.4472 0)
(0.8944 0.4472 0)
(0.8944 0.4472 0)
(0.8944 0.4472 0)
(0.8944 0.4472 0)
(0.8944 0.4472 0)
(0.8944 0.4472 0)
(0.8944 0.4472 0)
(0.8944 0.4472 0)
(0.8944 0.4472 0)
(0.8944 0.4472 0)
(0.8944 0.4472 0)
(0.8944 0.4472 0)
(0.8944 0.4472 0)
(0.8944 0.4472 0)
(0.8944 0.4472 0)
(0.8944 0.4472 0)
(0.8944 0.4472 0)
(0.8944 0.4472 0)
(0.8944 0.4472 0)
(0.8944 0.4472 0)
(0.8944 0.4472 0)
(0.8944 0.4472 0)
(0.8944 0.4472 0)
(0.8944 0.4472 0)
(0.8944 0.4472 0)
(0.8944 0.4472 0)
(0.8944 0.4472 0)
(0.8944 0.4472 0)
(0.8944 0.4472 0)
(0.8944 0.4472 0)
(0.8944 0.4472 0)
(0.8944 0.4472 0)
(0.8944 0.4472 0)
(0.8944 0.4472 0)
(0.8944 0.4472 0)
(0.8944 0.4472 0)
(0.8944 0.4472 0)
(0.8944 0.4472 0)
(0.8944 0.4472 0)
(0.8944 0.4472 0)
(0.8944 0.4472 0)
(0.8944 0.4472 0)
(0.8944 0.4472 0)
(0.8944 0.4472 0)
(0.8944 0.4472 0)
(0.8944 0.4472 0)
(0.8944 0.4472 0)
(0.8944 0.4472 0)
(0.8944 0.4472 0)
(0.894401 0.4472 0)
(0.894401 0.4472 0)
(0.894401 0.447199 0)
(0.894401 0.447199 0)
(0.894402 0.447198 0)
(0.894402 0.447198 0)
(0.894402 0.447197 0)
(0.894403 0.447196 0)
(0.894404 0.447195 0)
(0.894404 0.447193 0)
(0.894405 0.447191 0)
(0.894405 0.44719 0)
(0.894406 0.447188 0)
(0.894406 0.447185 0)
(0.894406 0.447183 0)
(0.894405 0.447182 0)
(0.894405 0.44718 0)
(0.894404 0.447178 0)
(0.894403 0.447178 0)
(0.894401 0.447177 0)
(0.894399 0.447177 0)
(0.894397 0.447178 0)
(0.894395 0.44718 0)
(0.894394 0.447183 0)
(0.894392 0.447186 0)
(0.89439 0.447189 0)
(0.894389 0.447193 0)
(0.894388 0.447198 0)
(0.894387 0.447203 0)
(0.894387 0.447207 0)
(0.894388 0.447212 0)
(0.894389 0.447217 0)
(0.89439 0.44722 0)
(0.894391 0.447224 0)
(0.894393 0.447226 0)
(0.894395 0.447228 0)
(0.894397 0.447229 0)
(0.894399 0.44723 0)
(0.8944 0.44723 0)
(0.894402 0.447229 0)
(0.894403 0.447228 0)
(0.894404 0.447226 0)
(0.894405 0.447224 0)
(0.894406 0.447221 0)
(0.894406 0.447219 0)
(0.894406 0.447217 0)
(0.894406 0.447214 0)
(0.894405 0.447212 0)
(0.894405 0.44721 0)
(0.894404 0.447208 0)
(0.894404 0.447206 0)
(0.894403 0.447205 0)
(0.894403 0.447204 0)
(0.894402 0.447203 0)
(0.894402 0.447202 0)
(0.894401 0.447202 0)
(0.894401 0.447201 0)
(0.894401 0.447201 0)
(0.894401 0.4472 0)
(0.8944 0.4472 0)
(0.8944 0.4472 0)
(0.8944 0.4472 0)
(0.8944 0.4472 0)
(0.8944 0.4472 0)
(0.8944 0.4472 0)
(0.8944 0.4472 0)
(0.8944 0.4472 0)
(0.8944 0.4472 0)
(0.8944 0.4472 0)
(0.8944 0.4472 0)
(0.8944 0.4472 0)
(0.8944 0.4472 0)
(0.8944 0.4472 0)
(0.8944 0.4472 0)
(0.8944 0.4472 0)
(0.8944 0.4472 0)
(0.8944 0.4472 0)
(0.8944 0.4472 0)
(0.8944 0.4472 0)
(0.8944 0.4472 0)
(0.8944 0.4472 0)
(0.8944 0.4472 0)
(0.8944 0.4472 0)
(0.8944 0.4472 0)
(0.8944 0.4472 0)
(0.8944 0.4472 0)
(0.8944 0.4472 0)
(0.8944 0.4472 0)
(0.8944 0.4472 0)
(0.8944 0.4472 0)
(0.8944 0.4472 0)
(0.8944 0.4472 0)
(0.8944 0.4472 0)
(0.8944 0.4472 0)
(0.8944 0.4472 0)
(0.8944 0.4472 0)
(0.8944 0.4472 0)
(0.8944 0.4472 0)
(0.8944 0.4472 0)
(0.8944 0.4472 0)
(0.8944 0.4472 0)
(0.8944 0.4472 0)
(0.8944 0.4472 0)
(0.8944 0.4472 0)
(0.8944 0.4472 0)
(0.8944 0.4472 0)
(0.8944 0.4472 0)
(0.8944 0.4472 0)
(0.8944 0.4472 0)
(0.8944 0.4472 0)
(0.8944 0.4472 0)
(0.8944 0.4472 0)
(0.8944 0.4472 0)
(0.8944 0.4472 0)
(0.8944 0.4472 0)
(0.8944 0.4472 0)
(0.8944 0.4472 0)
(0.8944 0.4472 0)
(0.8944 0.4472 0)
(0.8944 0.4472 0)
(0.8944 0.4472 0)
(0.8944 0.4472 0)
(0.8944 0.4472 0)
(0.8944 0.4472 0)
(0.8944 0.4472 0)
(0.8944 0.4472 0)
(0.8944 0.4472 0)
(0.8944 0.4472 0)
(0.8944 0.4472 0)
(0.8944 0.4472 0)
(0.8944 0.4472 0)
(0.8944 0.4472 0)
(0.8944 0.4472 0)
(0.8944 0.4472 0)
(0.8944 0.4472 0)
(0.8944 0.4472 0)
(0.8944 0.4472 0)
(0.8944 0.4472 0)
(0.8944 0.4472 0)
(0.8944 0.4472 0)
(0.8944 0.4472 0)
(0.8944 0.4472 0)
(0.8944 0.4472 0)
(0.8944 0.4472 0)
(0.8944 0.4472 0)
(0.8944 0.4472 0)
(0.8944 0.4472 0)
(0.8944 0.4472 0)
(0.8944 0.4472 0)
(0.8944 0.4472 0)
(0.894401 0.4472 0)
(0.894401 0.4472 0)
(0.894401 0.447199 0)
(0.894401 0.447199 0)
(0.894402 0.447198 0)
(0.894403 0.447197 0)
(0.894403 0.447196 0)
(0.894404 0.447195 0)
(0.894405 0.447193 0)
(0.894406 0.447191 0)
(0.894406 0.447189 0)
(0.894407 0.447187 0)
(0.894407 0.447184 0)
(0.894407 0.447182 0)
(0.894407 0.447179 0)
(0.894407 0.447177 0)
(0.894406 0.447175 0)
(0.894405 0.447174 0)
(0.894403 0.447173 0)
(0.894401 0.447173 0)
(0.894399 0.447173 0)
(0.894396 0.447175 0)
(0.894393 0.447177 0)
(0.894391 0.447181 0)
(0.894389 0.447185 0)
(0.894386 0.44719 0)
(0.894385 0.447195 0)
(0.894384 0.447201 0)
(0.894383 0.447207 0)
(0.894383 0.447213 0)
(0.894384 0.447219 0)
(0.894385 0.447224 0)
(0.894386 0.447229 0)
(0.894388 0.447233 0)
(0.894391 0.447236 0)
(0.894393 0.447238 0)
(0.894396 0.44724 0)
(0.894398 0.44724 0)
(0.894401 0.447239 0)
(0.894403 0.447238 0)
(0.894405 0.447236 0)
(0.894406 0.447234 0)
(0.894407 0.447231 0)
(0.894408 0.447228 0)
(0.894408 0.447225 0)
(0.894408 0.447222 0)
(0.894408 0.447219 0)
(0.894407 0.447216 0)
(0.894407 0.447213 0)
(0.894406 0.44721 0)
(0.894405 0.447208 0)
(0.894404 0.447206 0)
(0.894404 0.447205 0)
(0.894403 0.447204 0)
(0.894402 0.447203 0)
(0.894402 0.447202 0)
(0.894401 0.447201 0)
(0.894401 0.447201 0)
(0.894401 0.447201 0)
(0.894401 0.4472 0)
(0.8944 0.4472 0)
(0.8944 0.4472 0)
(0.8944 0.4472 0)
(0.8944 0.4472 0)
(0.8944 0.4472 0)
(0.8944 0.4472 0)
(0.8944 0.4472 0)
(0.8944 0.4472 0)
(0.8944 0.4472 0)
(0.8944 0.4472 0)
(0.8944 0.4472 0)
(0.8944 0.4472 0)
(0.8944 0.4472 0)
(0.8944 0.4472 0)
(0.8944 0.4472 0)
(0.8944 0.4472 0)
(0.8944 0.4472 0)
(0.8944 0.4472 0)
(0.8944 0.4472 0)
(0.8944 0.4472 0)
(0.8944 0.4472 0)
(0.8944 0.4472 0)
(0.8944 0.4472 0)
(0.8944 0.4472 0)
(0.8944 0.4472 0)
(0.8944 0.4472 0)
(0.8944 0.4472 0)
(0.8944 0.4472 0)
(0.8944 0.4472 0)
(0.8944 0.4472 0)
(0.8944 0.4472 0)
(0.8944 0.4472 0)
(0.8944 0.4472 0)
(0.8944 0.4472 0)
(0.8944 0.4472 0)
(0.8944 0.4472 0)
(0.8944 0.4472 0)
(0.8944 0.4472 0)
(0.8944 0.4472 0)
(0.8944 0.4472 0)
(0.8944 0.4472 0)
(0.8944 0.4472 0)
(0.8944 0.4472 0)
(0.8944 0.4472 0)
(0.8944 0.4472 0)
(0.8944 0.4472 0)
(0.8944 0.4472 0)
(0.8944 0.4472 0)
(0.8944 0.4472 0)
(0.8944 0.4472 0)
(0.8944 0.4472 0)
(0.8944 0.4472 0)
(0.8944 0.4472 0)
(0.8944 0.4472 0)
(0.8944 0.4472 0)
(0.8944 0.4472 0)
(0.8944 0.4472 0)
(0.8944 0.4472 0)
(0.8944 0.4472 0)
(0.8944 0.4472 0)
(0.8944 0.4472 0)
(0.8944 0.4472 0)
(0.8944 0.4472 0)
(0.8944 0.4472 0)
(0.8944 0.4472 0)
(0.8944 0.4472 0)
(0.8944 0.4472 0)
(0.8944 0.4472 0)
(0.8944 0.4472 0)
(0.8944 0.4472 0)
(0.8944 0.4472 0)
(0.8944 0.4472 0)
(0.8944 0.4472 0)
(0.8944 0.4472 0)
(0.8944 0.4472 0)
(0.8944 0.4472 0)
(0.8944 0.4472 0)
(0.8944 0.4472 0)
(0.8944 0.4472 0)
(0.8944 0.4472 0)
(0.8944 0.4472 0)
(0.8944 0.4472 0)
(0.8944 0.4472 0)
(0.8944 0.4472 0)
(0.8944 0.4472 0)
(0.8944 0.4472 0)
(0.8944 0.4472 0)
(0.8944 0.4472 0)
(0.8944 0.4472 0)
(0.8944 0.4472 0)
(0.894401 0.4472 0)
(0.894401 0.447199 0)
(0.894401 0.447199 0)
(0.894402 0.447198 0)
(0.894403 0.447198 0)
(0.894403 0.447197 0)
(0.894404 0.447195 0)
(0.894405 0.447193 0)
(0.894406 0.447191 0)
(0.894407 0.447189 0)
(0.894408 0.447186 0)
(0.894409 0.447184 0)
(0.894409 0.447181 0)
(0.894409 0.447178 0)
(0.894409 0.447175 0)
(0.894408 0.447172 0)
(0.894407 0.44717 0)
(0.894405 0.447168 0)
(0.894403 0.447168 0)
(0.894401 0.447168 0)
(0.894398 0.447169 0)
(0.894394 0.447172 0)
(0.894391 0.447175 0)
(0.894387 0.44718 0)
(0.894384 0.447186 0)
(0.894382 0.447192 0)
(0.89438 0.4472 0)
(0.894378 0.447207 0)
(0.894378 0.447215 0)
(0.894378 0.447222 0)
(0.894379 0.44723 0)
(0.89438 0.447236 0)
(0.894383 0.447242 0)
(0.894385 0.447246 0)
(0.894388 0.44725 0)
(0.894392 0.447252 0)
(0.894395 0.447253 0)
(0.894398 0.447253 0)
(0.894401 0.447252 0)
(0.894404 0.44725 0)
(0.894406 0.447248 0)
(0.894408 0.447244 0)
(0.894409 0.44724 0)
(0.89441 0.447236 0)
(0.894411 0.447232 0)
(0.894411 0.447228 0)
(0.89441 0.447224 0)
(0.89441 0.44722 0)
(0.894409 0.447216 0)
(0.894408 0.447213 0)
(0.894407 0.447211 0)
(0.894406 0.447208 0)
(0.894405 0.447206 0)
(0.894404 0.447205 0)
(0.894403 0.447203 0)
(0.894402 0.447202 0)
(0.894402 0.447202 0)
(0.894401 0.447201 0)
(0.894401 0.447201 0)
(0.894401 0.4472 0)
(0.8944 0.4472 0)
(0.8944 0.4472 0)
(0.8944 0.4472 0)
(0.8944 0.4472 0)
(0.8944 0.4472 0)
(0.8944 0.4472 0)
(0.8944 0.4472 0)
(0.8944 0.4472 0)
(0.8944 0.4472 0)
(0.8944 0.4472 0)
(0.8944 0.4472 0)
(0.8944 0.4472 0)
(0.8944 0.4472 0)
(0.8944 0.4472 0)
(0.8944 0.4472 0)
(0.8944 0.4472 0)
(0.8944 0.4472 0)
(0.8944 0.4472 0)
(0.8944 0.4472 0)
(0.8944 0.4472 0)
(0.8944 0.4472 0)
(0.8944 0.4472 0)
(0.8944 0.4472 0)
(0.8944 0.4472 0)
(0.8944 0.4472 0)
(0.8944 0.4472 0)
(0.8944 0.4472 0)
(0.8944 0.4472 0)
(0.8944 0.4472 0)
(0.8944 0.4472 0)
(0.8944 0.4472 0)
(0.8944 0.4472 0)
(0.8944 0.4472 0)
(0.8944 0.4472 0)
(0.8944 0.4472 0)
(0.8944 0.4472 0)
(0.8944 0.4472 0)
(0.8944 0.4472 0)
(0.8944 0.4472 0)
(0.8944 0.4472 0)
(0.8944 0.4472 0)
(0.8944 0.4472 0)
(0.8944 0.4472 0)
(0.8944 0.4472 0)
(0.8944 0.4472 0)
(0.8944 0.4472 0)
(0.8944 0.4472 0)
(0.8944 0.4472 0)
(0.8944 0.4472 0)
(0.8944 0.4472 0)
(0.8944 0.4472 0)
(0.8944 0.4472 0)
(0.8944 0.4472 0)
(0.8944 0.4472 0)
(0.8944 0.4472 0)
(0.8944 0.4472 0)
(0.8944 0.4472 0)
(0.8944 0.4472 0)
(0.8944 0.4472 0)
(0.8944 0.4472 0)
(0.8944 0.4472 0)
(0.8944 0.4472 0)
(0.8944 0.4472 0)
(0.8944 0.4472 0)
(0.8944 0.4472 0)
(0.8944 0.4472 0)
(0.8944 0.4472 0)
(0.8944 0.4472 0)
(0.8944 0.4472 0)
(0.8944 0.4472 0)
(0.8944 0.4472 0)
(0.8944 0.4472 0)
(0.8944 0.4472 0)
(0.8944 0.4472 0)
(0.8944 0.4472 0)
(0.8944 0.4472 0)
(0.8944 0.4472 0)
(0.8944 0.4472 0)
(0.8944 0.4472 0)
(0.8944 0.4472 0)
(0.8944 0.4472 0)
(0.8944 0.4472 0)
(0.8944 0.4472 0)
(0.8944 0.4472 0)
(0.8944 0.4472 0)
(0.8944 0.4472 0)
(0.8944 0.4472 0)
(0.8944 0.4472 0)
(0.8944 0.4472 0)
(0.8944 0.4472 0)
(0.894401 0.4472 0)
(0.894401 0.4472 0)
(0.894402 0.447199 0)
(0.894402 0.447198 0)
(0.894404 0.447197 0)
(0.894405 0.447196 0)
(0.894406 0.447194 0)
(0.894407 0.447192 0)
(0.894408 0.44719 0)
(0.894409 0.447187 0)
(0.89441 0.447184 0)
(0.894411 0.44718 0)
(0.894412 0.447177 0)
(0.894412 0.447173 0)
(0.894411 0.44717 0)
(0.89441 0.447167 0)
(0.894409 0.447165 0)
(0.894406 0.447163 0)
(0.894403 0.447163 0)
(0.894399 0.447164 0)
(0.894395 0.447167 0)
(0.894391 0.447171 0)
(0.894386 0.447176 0)
(0.894382 0.447183 0)
(0.894378 0.44719 0)
(0.894375 0.447199 0)
(0.894373 0.447209 0)
(0.894371 0.447219 0)
(0.894371 0.447228 0)
(0.894371 0.447238 0)
(0.894372 0.447247 0)
(0.894374 0.447254 0)
(0.894378 0.447261 0)
(0.894381 0.447266 0)
(0.894385 0.44727 0)
(0.89439 0.447272 0)
(0.894394 0.447273 0)
(0.894398 0.447272 0)
(0.894402 0.44727 0)
(0.894406 0.447267 0)
(0.894409 0.447263 0)
(0.894411 0.447258 0)
(0.894413 0.447253 0)
(0.894414 0.447247 0)
(0.894414 0.447241 0)
(0.894414 0.447236 0)
(0.894414 0.44723 0)
(0.894413 0.447225 0)
(0.894412 0.447221 0)
(0.89441 0.447217 0)
(0.894409 0.447213 0)
(0.894408 0.44721 0)
(0.894406 0.447208 0)
(0.894405 0.447206 0)
(0.894404 0.447204 0)
(0.894403 0.447203 0)
(0.894402 0.447202 0)
(0.894402 0.447201 0)
(0.894401 0.447201 0)
(0.894401 0.4472 0)
(0.894401 0.4472 0)
(0.8944 0.4472 0)
(0.8944 0.4472 0)
(0.8944 0.4472 0)
(0.8944 0.4472 0)
(0.8944 0.4472 0)
(0.8944 0.4472 0)
(0.8944 0.4472 0)
(0.8944 0.4472 0)
(0.8944 0.4472 0)
(0.8944 0.4472 0)
(0.8944 0.4472 0)
(0.8944 0.4472 0)
(0.8944 0.4472 0)
(0.8944 0.4472 0)
(0.8944 0.4472 0)
(0.8944 0.4472 0)
(0.8944 0.4472 0)
(0.8944 0.4472 0)
(0.8944 0.4472 0)
(0.8944 0.4472 0)
(0.8944 0.4472 0)
(0.8944 0.4472 0)
(0.8944 0.4472 0)
(0.8944 0.4472 0)
(0.8944 0.4472 0)
(0.8944 0.4472 0)
(0.8944 0.4472 0)
(0.8944 0.4472 0)
(0.8944 0.4472 0)
(0.8944 0.4472 0)
(0.8944 0.4472 0)
(0.8944 0.4472 0)
(0.8944 0.4472 0)
(0.8944 0.4472 0)
(0.8944 0.4472 0)
(0.8944 0.4472 0)
(0.8944 0.4472 0)
(0.8944 0.4472 0)
(0.8944 0.4472 0)
(0.8944 0.4472 0)
(0.8944 0.4472 0)
(0.8944 0.4472 0)
(0.8944 0.4472 0)
(0.8944 0.4472 0)
(0.8944 0.4472 0)
(0.8944 0.4472 0)
(0.8944 0.4472 0)
(0.8944 0.4472 0)
(0.8944 0.4472 0)
(0.8944 0.4472 0)
(0.8944 0.4472 0)
(0.8944 0.4472 0)
(0.8944 0.4472 0)
(0.8944 0.4472 0)
(0.8944 0.4472 0)
(0.8944 0.4472 0)
(0.8944 0.4472 0)
(0.8944 0.4472 0)
(0.8944 0.4472 0)
(0.8944 0.4472 0)
(0.8944 0.4472 0)
(0.8944 0.4472 0)
(0.8944 0.4472 0)
(0.8944 0.4472 0)
(0.8944 0.4472 0)
(0.8944 0.4472 0)
(0.8944 0.4472 0)
(0.8944 0.4472 0)
(0.8944 0.4472 0)
(0.8944 0.4472 0)
(0.8944 0.4472 0)
(0.8944 0.4472 0)
(0.8944 0.4472 0)
(0.8944 0.4472 0)
(0.8944 0.4472 0)
(0.8944 0.4472 0)
(0.8944 0.4472 0)
(0.8944 0.4472 0)
(0.8944 0.4472 0)
(0.8944 0.4472 0)
(0.8944 0.4472 0)
(0.8944 0.4472 0)
(0.8944 0.4472 0)
(0.8944 0.4472 0)
(0.8944 0.4472 0)
(0.8944 0.4472 0)
(0.8944 0.4472 0)
(0.8944 0.4472 0)
(0.894401 0.4472 0)
(0.894401 0.4472 0)
(0.894402 0.447199 0)
(0.894402 0.447199 0)
(0.894403 0.447198 0)
(0.894404 0.447197 0)
(0.894406 0.447195 0)
(0.894407 0.447193 0)
(0.894409 0.44719 0)
(0.89441 0.447188 0)
(0.894412 0.447184 0)
(0.894413 0.44718 0)
(0.894414 0.447176 0)
(0.894415 0.447172 0)
(0.894414 0.447169 0)
(0.894414 0.447165 0)
(0.894412 0.447162 0)
(0.894409 0.44716 0)
(0.894406 0.447159 0)
(0.894402 0.44716 0)
(0.894397 0.447163 0)
(0.894392 0.447167 0)
(0.894386 0.447173 0)
(0.89438 0.447181 0)
(0.894375 0.447191 0)
(0.89437 0.447202 0)
(0.894366 0.447213 0)
(0.894363 0.447226 0)
(0.894362 0.447239 0)
(0.894361 0.447251 0)
(0.894362 0.447263 0)
(0.894364 0.447273 0)
(0.894367 0.447282 0)
(0.894372 0.44729 0)
(0.894377 0.447295 0)
(0.894382 0.447299 0)
(0.894388 0.4473 0)
(0.894394 0.4473 0)
(0.894399 0.447298 0)
(0.894404 0.447294 0)
(0.894409 0.447289 0)
(0.894412 0.447283 0)
(0.894415 0.447276 0)
(0.894417 0.447268 0)
(0.894418 0.447261 0)
(0.894419 0.447253 0)
(0.894419 0.447246 0)
(0.894418 0.447239 0)
(0.894417 0.447232 0)
(0.894415 0.447226 0)
(0.894413 0.447221 0)
(0.894412 0.447217 0)
(0.89441 0.447213 0)
(0.894408 0.44721 0)
(0.894407 0.447207 0)
(0.894405 0.447205 0)
(0.894404 0.447203 0)
(0.894403 0.447202 0)
(0.894402 0.447201 0)
(0.894402 0.447201 0)
(0.894401 0.4472 0)
(0.894401 0.4472 0)
(0.8944 0.4472 0)
(0.8944 0.4472 0)
(0.8944 0.4472 0)
(0.8944 0.4472 0)
(0.8944 0.4472 0)
(0.8944 0.4472 0)
(0.8944 0.4472 0)
(0.8944 0.4472 0)
(0.8944 0.4472 0)
(0.8944 0.4472 0)
(0.8944 0.4472 0)
(0.8944 0.4472 0)
(0.8944 0.4472 0)
(0.8944 0.4472 0)
(0.8944 0.4472 0)
(0.8944 0.4472 0)
(0.8944 0.4472 0)
(0.8944 0.4472 0)
(0.8944 0.4472 0)
(0.8944 0.4472 0)
(0.8944 0.4472 0)
(0.8944 0.4472 0)
(0.8944 0.4472 0)
(0.8944 0.4472 0)
(0.8944 0.4472 0)
(0.8944 0.4472 0)
(0.8944 0.4472 0)
(0.8944 0.4472 0)
(0.8944 0.4472 0)
(0.8944 0.4472 0)
(0.8944 0.4472 0)
(0.8944 0.4472 0)
(0.8944 0.4472 0)
(0.8944 0.4472 0)
(0.8944 0.4472 0)
(0.8944 0.4472 0)
(0.8944 0.4472 0)
(0.8944 0.4472 0)
(0.8944 0.4472 0)
(0.8944 0.4472 0)
(0.8944 0.4472 0)
(0.8944 0.4472 0)
(0.8944 0.4472 0)
(0.8944 0.4472 0)
(0.8944 0.4472 0)
(0.8944 0.4472 0)
(0.8944 0.4472 0)
(0.8944 0.4472 0)
(0.8944 0.4472 0)
(0.8944 0.4472 0)
(0.8944 0.4472 0)
(0.8944 0.4472 0)
(0.8944 0.4472 0)
(0.8944 0.4472 0)
(0.8944 0.4472 0)
(0.8944 0.4472 0)
(0.8944 0.4472 0)
(0.8944 0.4472 0)
(0.8944 0.4472 0)
(0.8944 0.4472 0)
(0.8944 0.4472 0)
(0.8944 0.4472 0)
(0.8944 0.4472 0)
(0.8944 0.4472 0)
(0.8944 0.4472 0)
(0.8944 0.4472 0)
(0.8944 0.4472 0)
(0.8944 0.4472 0)
(0.8944 0.4472 0)
(0.8944 0.4472 0)
(0.8944 0.4472 0)
(0.8944 0.4472 0)
(0.8944 0.4472 0)
(0.8944 0.4472 0)
(0.8944 0.4472 0)
(0.8944 0.4472 0)
(0.8944 0.4472 0)
(0.8944 0.4472 0)
(0.8944 0.4472 0)
(0.8944 0.4472 0)
(0.8944 0.4472 0)
(0.8944 0.4472 0)
(0.8944 0.4472 0)
(0.8944 0.4472 0)
(0.8944 0.4472 0)
(0.8944 0.447201 0)
(0.8944 0.447201 0)
(0.8944 0.4472 0)
(0.894401 0.4472 0)
(0.894401 0.4472 0)
(0.894402 0.4472 0)
(0.894403 0.447199 0)
(0.894404 0.447198 0)
(0.894406 0.447196 0)
(0.894407 0.447195 0)
(0.894409 0.447192 0)
(0.894411 0.447189 0)
(0.894413 0.447186 0)
(0.894415 0.447182 0)
(0.894416 0.447177 0)
(0.894417 0.447172 0)
(0.894418 0.447168 0)
(0.894417 0.447164 0)
(0.894416 0.44716 0)
(0.894413 0.447158 0)
(0.89441 0.447157 0)
(0.894405 0.447158 0)
(0.894399 0.44716 0)
(0.894392 0.447165 0)
(0.894385 0.447173 0)
(0.894378 0.447182 0)
(0.894371 0.447194 0)
(0.894364 0.447207 0)
(0.894358 0.447223 0)
(0.894354 0.447239 0)
(0.89435 0.447255 0)
(0.894349 0.447272 0)
(0.894349 0.447287 0)
(0.894351 0.447302 0)
(0.894354 0.447314 0)
(0.894359 0.447325 0)
(0.894365 0.447333 0)
(0.894372 0.447338 0)
(0.894379 0.447341 0)
(0.894386 0.44734 0)
(0.894394 0.447338 0)
(0.894401 0.447334 0)
(0.894407 0.447327 0)
(0.894413 0.447319 0)
(0.894417 0.44731 0)
(0.894421 0.4473 0)
(0.894423 0.447289 0)
(0.894425 0.447279 0)
(0.894425 0.447268 0)
(0.894425 0.447258 0)
(0.894424 0.447249 0)
(0.894422 0.447241 0)
(0.89442 0.447233 0)
(0.894417 0.447226 0)
(0.894415 0.447221 0)
(0.894413 0.447216 0)
(0.894411 0.447212 0)
(0.894409 0.447209 0)
(0.894407 0.447206 0)
(0.894405 0.447204 0)
(0.894404 0.447202 0)
(0.894403 0.447201 0)
(0.894402 0.447201 0)
(0.894401 0.4472 0)
(0.894401 0.4472 0)
(0.894401 0.4472 0)
(0.8944 0.4472 0)
(0.8944 0.4472 0)
(0.8944 0.4472 0)
(0.8944 0.4472 0)
(0.8944 0.4472 0)
(0.8944 0.4472 0)
(0.8944 0.4472 0)
(0.8944 0.4472 0)
(0.8944 0.4472 0)
(0.8944 0.4472 0)
(0.8944 0.4472 0)
(0.8944 0.4472 0)
(0.8944 0.4472 0)
(0.8944 0.4472 0)
(0.8944 0.4472 0)
(0.8944 0.4472 0)
(0.8944 0.4472 0)
(0.8944 0.4472 0)
(0.8944 0.4472 0)
(0.8944 0.4472 0)
(0.8944 0.4472 0)
(0.8944 0.4472 0)
(0.8944 0.4472 0)
(0.8944 0.4472 0)
(0.8944 0.4472 0)
(0.8944 0.4472 0)
(0.8944 0.4472 0)
(0.8944 0.4472 0)
(0.8944 0.4472 0)
(0.8944 0.4472 0)
(0.8944 0.4472 0)
(0.8944 0.4472 0)
(0.8944 0.4472 0)
(0.8944 0.4472 0)
(0.8944 0.4472 0)
(0.8944 0.4472 0)
(0.8944 0.4472 0)
(0.8944 0.4472 0)
(0.8944 0.4472 0)
(0.8944 0.4472 0)
(0.8944 0.4472 0)
(0.8944 0.4472 0)
(0.8944 0.4472 0)
(0.8944 0.4472 0)
(0.8944 0.4472 0)
(0.8944 0.4472 0)
(0.8944 0.4472 0)
(0.8944 0.4472 0)
(0.8944 0.4472 0)
(0.8944 0.4472 0)
(0.8944 0.4472 0)
(0.8944 0.4472 0)
(0.8944 0.4472 0)
(0.8944 0.4472 0)
(0.8944 0.4472 0)
(0.8944 0.4472 0)
(0.8944 0.4472 0)
(0.8944 0.4472 0)
(0.8944 0.4472 0)
(0.8944 0.4472 0)
(0.8944 0.4472 0)
(0.8944 0.4472 0)
(0.8944 0.4472 0)
(0.8944 0.4472 0)
(0.8944 0.4472 0)
(0.8944 0.4472 0)
(0.8944 0.4472 0)
(0.8944 0.4472 0)
(0.8944 0.4472 0)
(0.8944 0.4472 0)
(0.8944 0.4472 0)
(0.8944 0.4472 0)
(0.8944 0.4472 0)
(0.8944 0.4472 0)
(0.8944 0.4472 0)
(0.8944 0.4472 0)
(0.8944 0.4472 0)
(0.8944 0.4472 0)
(0.8944 0.4472 0)
(0.8944 0.4472 0)
(0.8944 0.4472 0)
(0.8944 0.4472 0)
(0.8944 0.4472 0)
(0.8944 0.447201 0)
(0.8944 0.447201 0)
(0.8944 0.447201 0)
(0.894401 0.447201 0)
(0.894401 0.447201 0)
(0.894402 0.4472 0)
(0.894403 0.4472 0)
(0.894404 0.447199 0)
(0.894405 0.447198 0)
(0.894407 0.447196 0)
(0.894409 0.447194 0)
(0.894411 0.447191 0)
(0.894413 0.447187 0)
(0.894416 0.447183 0)
(0.894418 0.447179 0)
(0.89442 0.447174 0)
(0.894421 0.447169 0)
(0.894421 0.447164 0)
(0.89442 0.447161 0)
(0.894417 0.447158 0)
(0.894413 0.447156 0)
(0.894408 0.447157 0)
(0.894402 0.447161 0)
(0.894394 0.447166 0)
(0.894385 0.447175 0)
(0.894376 0.447187 0)
(0.894367 0.447202 0)
(0.894358 0.447219 0)
(0.894349 0.447238 0)
(0.894342 0.44726 0)
(0.894337 0.447282 0)
(0.894333 0.447304 0)
(0.894332 0.447325 0)
(0.894333 0.447345 0)
(0.894336 0.447362 0)
(0.894341 0.447377 0)
(0.894348 0.447389 0)
(0.894356 0.447397 0)
(0.894366 0.447401 0)
(0.894376 0.447402 0)
(0.894385 0.447399 0)
(0.894395 0.447393 0)
(0.894404 0.447384 0)
(0.894412 0.447373 0)
(0.894419 0.44736 0)
(0.894424 0.447347 0)
(0.894429 0.447332 0)
(0.894431 0.447317 0)
(0.894433 0.447303 0)
(0.894433 0.447289 0)
(0.894432 0.447275 0)
(0.894431 0.447263 0)
(0.894429 0.447252 0)
(0.894426 0.447242 0)
(0.894423 0.447233 0)
(0.894419 0.447225 0)
(0.894416 0.447219 0)
(0.894414 0.447214 0)
(0.894411 0.44721 0)
(0.894409 0.447207 0)
(0.894407 0.447205 0)
(0.894405 0.447203 0)
(0.894404 0.447202 0)
(0.894402 0.447201 0)
(0.894402 0.4472 0)
(0.894401 0.4472 0)
(0.894401 0.4472 0)
(0.8944 0.4472 0)
(0.8944 0.4472 0)
(0.8944 0.4472 0)
(0.8944 0.4472 0)
(0.8944 0.4472 0)
(0.8944 0.4472 0)
(0.8944 0.4472 0)
(0.8944 0.4472 0)
(0.8944 0.4472 0)
(0.8944 0.4472 0)
(0.8944 0.4472 0)
(0.8944 0.4472 0)
(0.8944 0.4472 0)
(0.8944 0.4472 0)
(0.8944 0.4472 0)
(0.8944 0.4472 0)
(0.8944 0.4472 0)
(0.8944 0.4472 0)
(0.8944 0.4472 0)
(0.8944 0.4472 0)
(0.8944 0.4472 0)
(0.8944 0.4472 0)
(0.8944 0.4472 0)
(0.8944 0.4472 0)
(0.8944 0.4472 0)
(0.8944 0.4472 0)
(0.8944 0.4472 0)
(0.8944 0.4472 0)
(0.8944 0.4472 0)
(0.8944 0.4472 0)
(0.8944 0.4472 0)
(0.8944 0.4472 0)
(0.8944 0.4472 0)
(0.8944 0.4472 0)
(0.8944 0.4472 0)
(0.8944 0.4472 0)
(0.8944 0.4472 0)
(0.8944 0.4472 0)
(0.8944 0.4472 0)
(0.8944 0.4472 0)
(0.8944 0.4472 0)
(0.8944 0.4472 0)
(0.8944 0.4472 0)
(0.8944 0.4472 0)
(0.8944 0.4472 0)
(0.8944 0.4472 0)
(0.8944 0.4472 0)
(0.8944 0.4472 0)
(0.8944 0.4472 0)
(0.8944 0.4472 0)
(0.8944 0.4472 0)
(0.8944 0.4472 0)
(0.8944 0.4472 0)
(0.8944 0.4472 0)
(0.8944 0.4472 0)
(0.8944 0.4472 0)
(0.8944 0.4472 0)
(0.8944 0.4472 0)
(0.8944 0.4472 0)
(0.8944 0.4472 0)
(0.8944 0.4472 0)
(0.8944 0.4472 0)
(0.8944 0.4472 0)
(0.8944 0.4472 0)
(0.8944 0.4472 0)
(0.8944 0.4472 0)
(0.8944 0.4472 0)
(0.8944 0.4472 0)
(0.8944 0.4472 0)
(0.8944 0.4472 0)
(0.8944 0.4472 0)
(0.8944 0.4472 0)
(0.8944 0.4472 0)
(0.8944 0.4472 0)
(0.8944 0.4472 0)
(0.8944 0.4472 0)
(0.8944 0.4472 0)
(0.8944 0.4472 0)
(0.8944 0.4472 0)
(0.8944 0.4472 0)
(0.8944 0.4472 0)
(0.8944 0.4472 0)
(0.8944 0.447201 0)
(0.8944 0.447201 0)
(0.8944 0.447201 0)
(0.8944 0.447201 0)
(0.894401 0.447201 0)
(0.894401 0.447201 0)
(0.894402 0.447201 0)
(0.894403 0.4472 0)
(0.894405 0.447199 0)
(0.894406 0.447198 0)
(0.894408 0.447196 0)
(0.894411 0.447193 0)
(0.894414 0.44719 0)
(0.894417 0.447186 0)
(0.894419 0.447181 0)
(0.894421 0.447176 0)
(0.894423 0.447171 0)
(0.894424 0.447167 0)
(0.894423 0.447162 0)
(0.894421 0.44716 0)
(0.894418 0.447158 0)
(0.894412 0.447159 0)
(0.894404 0.447163 0)
(0.894395 0.447171 0)
(0.894385 0.447182 0)
(0.894373 0.447197 0)
(0.894361 0.447216 0)
(0.894349 0.447238 0)
(0.894338 0.447264 0)
(0.894327 0.447292 0)
(0.894319 0.447321 0)
(0.894313 0.447351 0)
(0.89431 0.447381 0)
(0.89431 0.447408 0)
(0.894312 0.447433 0)
(0.894317 0.447455 0)
(0.894325 0.447472 0)
(0.894335 0.447484 0)
(0.894347 0.447491 0)
(0.89436 0.447493 0)
(0.894373 0.44749 0)
(0.894386 0.447482 0)
(0.894399 0.447471 0)
(0.89441 0.447456 0)
(0.89442 0.447438 0)
(0.894429 0.447418 0)
(0.894435 0.447397 0)
(0.89444 0.447376 0)
(0.894443 0.447355 0)
(0.894444 0.447334 0)
(0.894444 0.447315 0)
(0.894443 0.447297 0)
(0.89444 0.44728 0)
(0.894437 0.447266 0)
(0.894433 0.447253 0)
(0.894429 0.447241 0)
(0.894425 0.447232 0)
(0.894421 0.447224 0)
(0.894417 0.447217 0)
(0.894414 0.447212 0)
(0.894411 0.447208 0)
(0.894408 0.447205 0)
(0.894406 0.447203 0)
(0.894404 0.447202 0)
(0.894403 0.447201 0)
(0.894402 0.4472 0)
(0.894401 0.447199 0)
(0.894401 0.447199 0)
(0.8944 0.447199 0)
(0.8944 0.447199 0)
(0.8944 0.447199 0)
(0.8944 0.447199 0)
(0.8944 0.4472 0)
(0.8944 0.4472 0)
(0.8944 0.4472 0)
(0.8944 0.4472 0)
(0.8944 0.4472 0)
(0.8944 0.4472 0)
(0.8944 0.4472 0)
(0.8944 0.4472 0)
(0.8944 0.4472 0)
(0.8944 0.4472 0)
(0.8944 0.4472 0)
(0.8944 0.4472 0)
(0.8944 0.4472 0)
(0.8944 0.4472 0)
(0.8944 0.4472 0)
(0.8944 0.4472 0)
(0.8944 0.4472 0)
(0.8944 0.4472 0)
(0.8944 0.4472 0)