/*--------------------------------*- C++ -*----------------------------------*\
  =========                 |
  \\      /  F ield         | OpenFOAM: The Open Source CFD Toolbox
   \\    /   O peration     | Website:  https://openfoam.org
    \\  /    A nd           | Version:  6
     \\/     M anipulation  |
\*---------------------------------------------------------------------------*/
FoamFile
{
    version     2.0;
    format      ascii;
    class       volScalarField;
    location    "2.08";
    object      nut;
}
// * * * * * * * * * * * * * * * * * * * * * * * * * * * * * * * * * * * * * //

dimensions      [0 2 -1 0 0 0 0];

internalField   nonuniform List<scalar> 
4214
(
0.00427355
0.00559017
0.0077525
0.00963774
0.0107042
0.0110501
0.0109229
0.0105235
0.00999786
0.00945682
0.00898353
0.00863735
0.00845579
0.00845852
0.00865232
0.00903801
0.00962083
0.010447
0.0116965
0.0138456
0.0172782
0.017956
0.0146042
0.0117301
0.0100512
0.00931189
0.00919756
0.0094651
0.00993908
0.010492
0.0110304
0.0114889
0.0118252
0.0120087
0.0120012
0.0117312
0.0110617
0.00978984
0.00782408
0.00564792
0.00430697
0.00544942
0.00758378
0.00943539
0.0106138
0.0111402
0.0111799
0.0108907
0.010404
0.00983072
0.00926572
0.00878661
0.008451
0.00829693
0.00834591
0.0086067
0.00907835
0.00975502
0.0106532
0.0119157
0.0140263
0.0175704
0.0185697
0.0150012
0.0118886
0.010051
0.00922064
0.00905203
0.00928822
0.00974787
0.0103011
0.0108534
0.0113386
0.0117154
0.0119598
0.0120517
0.0119583
0.0116113
0.0108868
0.00961781
0.00774073
0.0055913
0.00709218
0.00902628
0.0103783
0.0111151
0.0113538
0.0112241
0.0108372
0.0102926
0.00968468
0.00910164
0.00861898
0.00829476
0.00816908
0.00826698
0.00860156
0.0091743
0.00997115
0.0109779
0.0122825
0.0143346
0.0179053
0.0191734
0.0153998
0.012054
0.0100582
0.0091356
0.00891075
0.0091119
0.00955249
0.0101011
0.0106628
0.0111707
0.011583
0.0118773
0.0120416
0.0120597
0.011894
0.0114652
0.0106375
0.00925432
0.00730279
0.00850887
0.0100182
0.0109541
0.0113992
0.0114598
0.0112253
0.0107751
0.0101903
0.00955673
0.00895965
0.00847477
0.00816193
0.00806433
0.0082117
0.00862362
0.009308
0.0102487
0.0114049
0.0127992
0.0148002
0.0183323
0.0197913
0.0158033
0.0122237
0.0100716
0.00905783
0.00877569
0.00893861
0.0093555
0.00989446
0.0104608
0.0109873
0.0114307
0.0117682
0.0119903
0.0120889
0.012043
0.0118019
0.011268
0.0102955
0.00875623
0.00956289
0.0106626
0.011292
0.0115434
0.0114902
0.0111896
0.0106987
0.0100869
0.00943528
0.00882864
0.00834399
0.00804368
0.00797458
0.00817189
0.00866345
0.00946632
0.0105698
0.0119151
0.0134575
0.0154408
0.0188704
0.0204036
0.0161984
0.0123917
0.0100896
0.00898748
0.00864763
0.00876904
0.0091571
0.00968056
0.010246
0.0107863
0.0112565
0.0116322
0.0119032
0.0120647
0.0121049
0.0119914
0.0116554
0.0109822
0.00983032
0.0102825
0.0110494
0.0114597
0.0115813
0.0114552
0.0111137
0.0105982
0.00997001
0.00930807
0.00869755
0.00821734
0.00793254
0.00789397
0.00814275
0.00871557
0.00964181
0.0109222
0.0124919
0.014245
0.0162679
0.0195548
0.0210131
0.0165784
0.0125523
0.0101107
0.00892497
0.00852752
0.00860403
0.00895777
0.00945949
0.0100181
0.0105671
0.0110602
0.0114702
0.0117851
0.0120002
0.0121082
0.0120879
0.0118909
0.0114313
0.0105888
0.0107198
0.0112346
0.0114907
0.0115252
0.0113534
0.0109883
0.0104601
0.00982509
0.00916111
0.00855427
0.00808522
0.00782165
0.00781827
0.00812231
0.00877977
0.00983379
0.0113019
0.0131257
0.0151493
0.0172816
0.0204049
0.0216133
0.0169343
0.0126996
0.0101335
0.00887072
0.00841575
0.0084429
0.00875533
0.00922781
0.00977317
0.0103259
0.010838
0.0112795
0.0116357
0.0119004
0.0120675
0.0121221
0.0120291
0.0117249
0.0111169
0.0109184
0.0112514
0.0114015
0.0113792
0.0111797
0.0108027
0.0102709
0.00963776
0.00898088
0.00838728
0.00793888
0.00770548
0.00774546
0.00811209
0.00886077
0.010049
0.0117148
0.0138177
0.0161647
0.0184736
0.0214284
0.0221963
0.0172563
0.0128303
0.0101573
0.00882598
0.0083127
0.00828307
0.00854257
0.00897284
0.00949429
0.0100453
0.0105754
0.0110492
0.0114473
0.0117617
0.0119875
0.0121104
0.0121014
0.0119137
0.0114811
0.0109113
0.0111208
0.0112015
0.0111439
0.0109288
0.0105474
0.0100186
0.00939528
0.0087555
0.00818678
0.00777145
0.00758087
0.0076767
0.008118
0.00896935
0.0103024
0.0121777
0.014582
0.0172963
0.0198401
0.0226123
0.0227507
0.0175328
0.0129391
0.0101826
0.00879389
0.00822087
0.00812268
0.00830805
0.00866469
0.00912095
0.00962668
0.0101424
0.0106396
0.0110991
0.0114967
0.0118117
0.0120251
0.0121103
0.0120278
0.0117297
0.010725
0.0108584
0.0108983
0.0108204
0.0105969
0.0102151
0.00969395
0.00908806
0.00847641
0.00794629
0.00757958
0.00744867
0.00761801
0.00815204
0.00912386
0.0106183
0.0127195
0.0154474
0.0185618
0.0213773
0.0239298
0.023255
0.0177491
0.0130205
0.0102111
0.00878002
0.00814949
0.00797632
0.00807782
0.00835512
0.00874804
0.00921187
0.00972048
0.010246
0.0107506
0.0112076
0.0115932
0.0118827
0.012047
0.0120531
0.0118679
0.0103864
0.0104811
0.0105007
0.0104116
0.0101821
0.00980092
0.00929109
0.00871085
0.00813979
0.00766456
0.00736565
0.00731621
0.00758293
0.00823469
0.00935228
0.0110314
0.0133826
0.0164561
0.0199889
0.0230805
0.0253278
0.0237037
0.0178886
0.0130695
0.0102431
0.00878852
0.00811014
0.00786951
0.00789357
0.00809219
0.00841326
0.00882889
0.00931547
0.00983928
0.0103701
0.0108772
0.011329
0.0116923
0.0119318
0.0120142
0.0119162
0.0099266
0.0100085
0.0100196
0.00992158
0.0096841
0.009303
0.00880855
0.00826405
0.00774854
0.00734809
0.0071409
0.00720081
0.00759602
0.00839797
0.00969465
0.0115888
0.0142185
0.0176591
0.021611
0.0249421
0.0267204
0.024045
0.0179371
0.013084
0.01028
0.00882202
0.00810573
0.00780253
0.00775002
0.00786779
0.0081144
0.00847304
0.00891851
0.00942722
0.00997126
0.0105179
0.011029
0.0114617
0.0117711
0.0119193
0.011888
0.0093792
0.00946126
0.00946494
0.00935296
0.00910259
0.00872217
0.00825014
0.00775567
0.0073149
0.00701475
0.00692975
0.00713395
0.00769703
0.00868827
0.0102055
0.0123494
0.0152913
0.0191177
0.0234559
0.0269385
0.0279908
0.0242371
0.0178903
0.0130716
0.0103325
0.00889129
0.00814638
0.00778413
0.00765568
0.00769158
0.00786346
0.00815459
0.0085497
0.00903099
0.00957423
0.0101465
0.0107046
0.0111958
0.0115642
0.0117647
0.0117812
0.00877455
0.00885399
0.00883977
0.008704
0.00843679
0.00806379
0.00762724
0.00720466
0.00686467
0.00669848
0.00677501
0.00716494
0.00794471
0.00916732
0.0109553
0.0133831
0.0166748
0.0208901
0.0255276
0.029014
0.0290089
0.0242438
0.0177673
0.0130595
0.0104254
0.00901677
0.00824829
0.00782777
0.0076237
0.00757889
0.00767164
0.00789105
0.00822819
0.00867063
0.00919819
0.00977898
0.0103661
0.0108981
0.0113082
0.0115442
0.0115896
0.00812751
0.00818378
0.00813276
0.00796761
0.00768813
0.00734287
0.00696368
0.00664691
0.00644419
0.00645408
0.0067436
0.0073611
0.00841998
0.00990807
0.0120321
0.0147638
0.0184537
0.0230173
0.0277757
0.0310871
0.029612
0.0240438
0.0176203
0.0130989
0.0106022
0.00922986
0.00843632
0.00795369
0.00767027
0.00754159
0.00755187
0.00769549
0.00796781
0.00836066
0.00885737
0.00942737
0.0100211
0.0105703
0.0109995
0.0112505
0.0113058
0.00740287
0.00741284
0.00731623
0.00714205
0.00687017
0.00659512
0.00630577
0.00614311
0.00613072
0.00635599
0.00693323
0.00779778
0.00923145
0.01098
0.0135479
0.0165496
0.0207083
0.0254842
0.0300395
0.0329981
0.0296496
0.0236357
0.0175334
0.0132596
0.0109244
0.00956153
0.00873014
0.00817532
0.00780613
0.00758789
0.0075113
0.00757424
0.00777517
0.00810839
0.00855964
0.00909874
0.00967434
0.0102132
0.0106345
0.0108763
0.010921
0.00649106
0.00649514
0.00638307
0.00626903
0.0060313
0.00589353
0.00574536
0.00577628
0.00605246
0.00647249
0.00749285
0.00852065
0.0105413
0.0124067
0.0156724
0.0187304
0.0235474
0.0281658
0.0320249
0.0345022
0.0291207
0.0230599
0.0176591
0.0136125
0.0114932
0.0100362
0.00916215
0.00850003
0.00803596
0.00772022
0.00755102
0.00752646
0.0076488
0.00791182
0.00830305
0.00879081
0.00932226
0.00982128
0.0102054
0.0104125
0.0104263
0.0102717
0.0107959
0.0111923
0.0114682
0.0116306
0.011684
0.011629
0.011461
0.0111677
0.0107269
0.0101044
0.0092551
0.00813319
0.0067288
0.00515952
0.00391184
0.00459609
0.00992237
0.010459
0.0108726
0.0111639
0.0113348
0.0113844
0.0113086
0.011099
0.0107405
0.0102112
0.00948382
0.00853162
0.00734588
0.00597654
0.00460569
0.00368667
0.00419428
0.00947231
0.0100258
0.0104624
0.0107773
0.0109664
0.0110228
0.0109374
0.0106979
0.0102871
0.00968543
0.0088755
0.00785228
0.00664491
0.00535018
0.00417482
0.0034874
0.00382049
0.00895574
0.00952155
0.00998057
0.0103215
0.0105345
0.0106069
0.0105243
0.0102696
0.00982386
0.00917039
0.00830233
0.00723676
0.00603637
0.00483051
0.00382575
0.0032994
0.00349602
0.00839344
0.00896574
0.00944196
0.00980736
0.0100469
0.0101428
0.0100754
0.00982232
0.00936232
0.00868022
0.00777865
0.00669469
0.00551876
0.00440178
0.00353655
0.003122
0.00321766
0.00780465
0.00837339
0.00885949
0.00924469
0.00951051
0.0096352
0.00959417
0.00935989
0.008907
0.00822022
0.0073084
0.00622477
0.00508283
0.00404651
0.00329167
0.00295614
0.00298191
0.0071996
0.00775744
0.00824503
0.00864367
0.00893295
0.00908875
0.00908265
0.00888246
0.00845731
0.00778918
0.00688872
0.00582046
0.00471665
0.00374955
0.0030803
0.0028027
0.00278527
0.00659056
0.00712838
0.00760942
0.00801442
0.00832252
0.00850875
0.00854277
0.00838858
0.0080097
0.00738193
0.00651343
0.00547424
0.00440939
0.00349913
0.00289501
0.00266202
0.00262443
0.00598354
0.00649531
0.00696226
0.0073665
0.0076878
0.00790164
0.00797738
0.00787725
0.00755993
0.00699273
0.00617648
0.00517946
0.00415321
0.00328735
0.00273124
0.00253468
0.00249631
0.00538937
0.00586648
0.00631229
0.00670885
0.00703712
0.00727406
0.00739032
0.00734839
0.00710393
0.00661601
0.00587256
0.00493157
0.00394391
0.00311002
0.00258685
0.00242187
0.00239805
0.0048138
0.00525089
0.00566841
0.00605006
0.0063784
0.00663252
0.00678555
0.0068021
0.00663768
0.00624456
0.00559515
0.00472703
0.00378047
0.00296664
0.0024615
0.00232444
0.00232693
0.00427024
0.00465857
0.00504036
0.00539939
0.0057198
0.00598338
0.00616664
0.00623788
0.00615499
0.00586753
0.00533284
0.00455978
0.00366329
0.00285967
0.00235552
0.00224127
0.00228022
0.00376396
0.00410068
0.0044396
0.00476779
0.00507124
0.00533445
0.00553789
0.00565475
0.00564787
0.00546855
0.00506469
0.00441413
0.00358897
0.00279359
0.00227281
0.00216913
0.00225494
0.00330639
0.00358674
0.00387809
0.00416817
0.00444516
0.00469664
0.0049071
0.00505522
0.00511042
0.00503029
0.00476174
0.00425933
0.0035414
0.00277011
0.00222034
0.0021056
0.00224788
0.00290053
0.00312563
0.00336633
0.00361315
0.00385615
0.00408517
0.00428834
0.00444993
0.00454653
0.00454443
0.00439771
0.00405369
0.00348537
0.00278116
0.00220375
0.00204584
0.00225587
0.00255064
0.00272258
0.00291328
0.00311478
0.00331882
0.00351738
0.00370165
0.00386002
0.00397554
0.00402327
0.00396853
0.00376591
0.0033706
0.00279703
0.00223333
0.00199437
0.00227636
0.00225349
0.00237809
0.002522
0.00267947
0.00284405
0.00300911
0.00316777
0.00331153
0.00342842
0.00350091
0.00350422
0.00340552
0.00316564
0.00276227
0.00228857
0.00204225
0.00230836
0.00200908
0.00209203
0.00219348
0.00230974
0.00243635
0.00256828
0.00270005
0.00282513
0.00293476
0.00301654
0.0030533
0.00302271
0.00289823
0.00265749
0.00233969
0.00217634
0.00235205
0.00181282
0.00186267
0.00192786
0.00200714
0.00209832
0.00219846
0.00230389
0.00240985
0.00250984
0.00259485
0.00265268
0.00266803
0.00262382
0.00250887
0.00235294
0.00233583
0.00240869
0.00166052
0.00168555
0.00172249
0.00177103
0.00183092
0.00190144
0.00198119
0.00206767
0.00215673
0.00224211
0.00231499
0.00236439
0.00237851
0.00235404
0.00232241
0.00244274
0.00248081
0.00154345
0.0015523
0.00156954
0.00159533
0.00163038
0.00167545
0.00173118
0.00179757
0.00187332
0.00195514
0.00203723
0.00211139
0.00216839
0.00220762
0.00226126
0.00248792
0.0025721
0.00145374
0.00145271
0.00145777
0.00146863
0.00148626
0.00151203
0.00154769
0.00159507
0.00165549
0.00172893
0.001813
0.00190207
0.00198794
0.00206698
0.00216574
0.00245877
0.00268471
0.00138433
0.001378
0.001376
0.00137794
0.00138463
0.0013974
0.00141825
0.00144981
0.00149501
0.00155651
0.00163556
0.00173014
0.00183335
0.00193572
0.00204704
0.00235568
0.00281862
0.0013301
0.00132082
0.00131503
0.00131193
0.00131209
0.00131664
0.00132743
0.00134711
0.00137923
0.00142806
0.00149778
0.00159045
0.00170241
0.00182014
0.0019281
0.0021761
0.00295859
0.00128667
0.0012766
0.00126885
0.00126291
0.00125926
0.0012588
0.00126302
0.00127427
0.00129603
0.00133312
0.00139154
0.00147698
0.00159064
0.0017203
0.00183137
0.00198765
0.00309146
0.00125306
0.00124207
0.00123321
0.00122574
0.00121992
0.00121641
0.00121638
0.00122177
0.00123565
0.00126273
0.00130971
0.00138485
0.00149458
0.00163278
0.00175923
0.00185409
0.00321696
0.00122538
0.00121485
0.00120552
0.0011972
0.00119012
0.00118475
0.00118198
0.00118331
0.00119131
0.00121018
0.00124658
0.00131009
0.00141154
0.00155362
0.00170248
0.00178772
0.00334707
0.00120437
0.00119353
0.00118394
0.00117521
0.00116745
0.00116098
0.00115643
0.00115495
0.00115859
0.00117091
0.00119799
0.00124966
0.00133971
0.00147987
0.00165162
0.00176988
0.00349604
0.00118719
0.00117688
0.00116732
0.00115847
0.00115042
0.00114337
0.00113773
0.00113436
0.00113482
0.00114201
0.00116118
0.00120155
0.00127822
0.00141035
0.00159939
0.00177594
0.00367133
0.00117445
0.00116419
0.00115478
0.00114606
0.00113803
0.00113079
0.00112461
0.00112009
0.00111837
0.0011217
0.00113438
0.00116455
0.00122705
0.00134582
0.00154243
0.00178703
0.00387268
0.00116457
0.00115472
0.00114565
0.00113725
0.00112949
0.00112241
0.00111616
0.00111113
0.00110814
0.00110882
0.00111651
0.00113797
0.00118669
0.00128829
0.00148105
0.00179118
0.00409576
0.00115754
0.0011479
0.0011393
0.0011314
0.00112413
0.00111752
0.00111163
0.00110671
0.00110327
0.00110247
0.00110673
0.0011213
0.00115764
0.00124036
0.00141827
0.00178025
0.0043351
0.00115251
0.00114321
0.00113518
0.00112791
0.00112134
0.00111548
0.00111036
0.0011061
0.00110302
0.00110184
0.00110422
0.00111396
0.00114009
0.00120433
0.00135888
0.00174921
0.00458502
0.00114914
0.00114018
0.0011328
0.00112629
0.00112061
0.00111577
0.00111178
0.00110871
0.0011067
0.00110617
0.00110813
0.00111515
0.0011338
0.00118171
0.00130815
0.00169719
0.0048394
0.00114691
0.00113846
0.00113181
0.00112618
0.00112156
0.00111799
0.00111548
0.00111405
0.00111375
0.00111476
0.00111763
0.00112392
0.00113804
0.00117303
0.00127073
0.00162857
0.0050912
0.00114549
0.00113779
0.00113194
0.00112732
0.00112396
0.00112191
0.00112118
0.0011218
0.00112376
0.0011271
0.00113203
0.00113936
0.00115177
0.00117802
0.00124994
0.00155287
0.00533226
0.00114465
0.001138
0.00113304
0.00112961
0.0011277
0.00112741
0.00112878
0.00113183
0.00113655
0.00114289
0.00115086
0.00116076
0.001174
0.00119587
0.00124766
0.00148257
0.00555233
0.00114438
0.00113895
0.00113506
0.00113299
0.00113277
0.00113451
0.0011383
0.00114418
0.00115213
0.0011621
0.00117399
0.0011878
0.0012041
0.00122569
0.00126477
0.00143058
0.0057395
0.00114479
0.00114054
0.00113796
0.00113746
0.00113918
0.00114326
0.00114983
0.00115896
0.00117067
0.00118492
0.0012016
0.00122059
0.00124201
0.00126711
0.00130172
0.00140896
0.00588069
0.00114596
0.00114282
0.00114175
0.00114305
0.00114697
0.00115373
0.00116348
0.00117636
0.00119245
0.00121174
0.00123419
0.00125971
0.00128837
0.00132074
0.00135922
0.00142933
0.0059649
0.00116979
0.00117655
0.0011874
0.00119469
0.0012062
0.00121394
0.00122568
0.00123361
0.00124487
0.00125246
0.00126222
0.00126865
0.00127568
0.00127987
0.00128297
0.00128382
0.0012828
0.00128059
0.00127721
0.00127231
0.00126276
0.00125224
0.0012458
0.00123996
0.00123423
0.00122848
0.00122264
0.00121672
0.0012107
0.00120461
0.00119848
0.00119235
0.00118627
0.0011803
0.00117452
0.001169
0.00116382
0.00115905
0.00115477
0.00115104
0.0011479
0.0011863
0.00119512
0.00120511
0.00121444
0.00122495
0.00123462
0.00124524
0.00125475
0.00126468
0.00127314
0.00128122
0.00128745
0.00129245
0.00129544
0.00129669
0.0012961
0.00129398
0.00129084
0.00128672
0.00128126
0.00127134
0.00126063
0.00125397
0.00124788
0.00124191
0.0012359
0.00122981
0.0012236
0.00121727
0.00121082
0.00120429
0.00119771
0.00119111
0.00118456
0.00117811
0.00117185
0.00116585
0.00116018
0.00115493
0.00115014
0.00114589
0.00120616
0.00121597
0.00122617
0.00123636
0.00124686
0.00125713
0.00126741
0.00127702
0.00128608
0.00129392
0.00130054
0.00130549
0.00130878
0.0013103
0.00131012
0.00130818
0.00130504
0.00130109
0.00129633
0.00129043
0.00128034
0.00126962
0.00126282
0.00125658
0.00125045
0.00124427
0.00123799
0.00123157
0.00122501
0.00121831
0.00121147
0.00120453
0.00119751
0.00119048
0.00118348
0.00117659
0.00116989
0.00116344
0.00115734
0.00115164
0.0011464
0.00122929
0.00123975
0.00125032
0.00126087
0.00127138
0.00128158
0.00129134
0.00130028
0.0013082
0.00131475
0.00131979
0.00132314
0.0013248
0.00132483
0.00132339
0.00132012
0.00131609
0.00131144
0.00130618
0.00129998
0.0012899
0.00127934
0.00127252
0.00126621
0.00125999
0.00125373
0.00124735
0.00124083
0.00123413
0.00122725
0.0012202
0.001213
0.00120567
0.00119826
0.00119083
0.00118344
0.00117616
0.00116907
0.00116226
0.00115579
0.00114973
0.00125587
0.00126666
0.00127735
0.00128783
0.00129798
0.00130756
0.00131635
0.00132408
0.0013305
0.00133543
0.00133875
0.00134043
0.00134052
0.00133908
0.00133624
0.00133199
0.00132724
0.00132206
0.00131644
0.00131007
0.0013002
0.00128998
0.00128323
0.00127695
0.00127075
0.00126449
0.00125811
0.00125156
0.00124482
0.00123786
0.0012307
0.00122333
0.0012158
0.00120812
0.00120037
0.0011926
0.00118488
0.0011773
0.00116994
0.00116287
0.00115616
0.00128562
0.00129632
0.00130667
0.00131657
0.00132585
0.00133431
0.00134171
0.00134784
0.00135252
0.00135566
0.00135723
0.00135726
0.00135588
0.00135322
0.00134889
0.00134393
0.00133865
0.00133312
0.00132731
0.00132093
0.00131145
0.00130174
0.00129517
0.00128902
0.00128294
0.00127678
0.00127049
0.00126401
0.00125731
0.00125038
0.00124319
0.00123576
0.00122812
0.00122029
0.00121233
0.0012043
0.00119629
0.00118836
0.0011806
0.00117311
0.00116595
0.00131749
0.0013276
0.00133714
0.00134599
0.00135399
0.00136093
0.00136664
0.00137096
0.00137381
0.00137516
0.00137504
0.00137356
0.00137081
0.00136669
0.0013615
0.00135609
0.00135053
0.00134485
0.00133903
0.00133281
0.00132391
0.00131485
0.00130859
0.00130268
0.0012968
0.00129085
0.00128474
0.00127842
0.00127186
0.00126503
0.00125792
0.00125053
0.00124287
0.00123499
0.00122694
0.00121878
0.00121059
0.00120246
0.00119448
0.00118675
0.00117936
0.00134998
0.00135898
0.00136729
0.00137478
0.00138122
0.00138644
0.00139034
0.00139283
0.00139388
0.00139355
0.00139191
0.00138909
0.00138496
0.00137968
0.00137422
0.00136867
0.0013631
0.00135751
0.00135188
0.00134599
0.00133784
0.00132961
0.00132375
0.00131819
0.00131263
0.00130697
0.00130113
0.00129507
0.00128873
0.0012821
0.00127514
0.00126787
0.0012603
0.00125247
0.00124443
0.00123625
0.00122802
0.00121983
0.00121179
0.001204
0.00119657
0.00137591
0.00138662
0.00139478
0.00140117
0.00140612
0.00140965
0.00141177
0.00141251
0.00141194
0.00141017
0.00140718
0.00140287
0.00139782
0.00139259
0.00138727
0.00138195
0.00137665
0.00137141
0.00136619
0.00136081
0.00135359
0.0013463
0.00134098
0.00133586
0.00133072
0.00132544
0.00131997
0.00131424
0.00130821
0.00130184
0.00129512
0.00128805
0.00128065
0.00127296
0.00126503
0.00125694
0.00124879
0.00124067
0.00123271
0.00122503
0.00121775
0.00138605
0.00140003
0.00141064
0.00141832
0.00142349
0.00142655
0.00142782
0.00142755
0.00142581
0.00142279
0.00141909
0.00141491
0.00141043
0.00140577
0.00140103
0.00139629
0.00139159
0.00138695
0.00138235
0.00137766
0.00137152
0.0013653
0.00136061
0.00135604
0.0013514
0.00134659
0.00134156
0.00133624
0.00133058
0.00132455
0.00131814
0.00131135
0.0013042
0.00129673
0.001289
0.0012811
0.00127313
0.0012652
0.00125744
0.00125001
0.00124301
0.00138513
0.00139988
0.00141185
0.00142105
0.00142765
0.00143192
0.0014342
0.00143482
0.00143413
0.00143242
0.00142993
0.0014269
0.00142349
0.00141984
0.00141607
0.00141224
0.00140842
0.00140463
0.00140086
0.00139702
0.00139207
0.001387
0.00138304
0.0013791
0.00137504
0.00137078
0.00136625
0.0013614
0.00135619
0.00135057
0.00134453
0.00133809
0.00133126
0.00132408
0.00131664
0.001309
0.0013013
0.00129364
0.00128618
0.00127907
0.00127244
0.00138907
0.00140264
0.00141422
0.00142368
0.00143104
0.00143642
0.00144002
0.00144211
0.00144294
0.00144275
0.00144176
0.00144017
0.00143814
0.0014358
0.00143325
0.00143059
0.00142786
0.0014251
0.00142231
0.00141944
0.00141574
0.00141187
0.00140871
0.00140548
0.00140207
0.00139841
0.00139445
0.00139013
0.00138541
0.00138025
0.00137466
0.00136863
0.00136219
0.00135539
0.00134829
0.001341
0.00133363
0.00132631
0.00131919
0.00131242
0.00130618
0.00140152
0.00141321
0.00142355
0.00143238
0.00143967
0.00144547
0.00144986
0.001453
0.00145507
0.00145625
0.00145669
0.00145654
0.00145593
0.00145497
0.00145376
0.00145236
0.00145083
0.00144919
0.00144746
0.00144561
0.00144315
0.00144048
0.00143815
0.00143567
0.00143296
0.00142995
0.0014266
0.00142286
0.0014187
0.00141407
0.00140899
0.00140345
0.00139748
0.00139112
0.00138446
0.00137759
0.00137062
0.00136368
0.00135691
0.00135046
0.00134456
0.00142417
0.00143369
0.00144242
0.00145011
0.00145673
0.00146232
0.0014669
0.00147057
0.00147342
0.00147557
0.00147712
0.00147817
0.0014788
0.00147909
0.0014791
0.0014789
0.00147852
0.00147797
0.00147728
0.00147642
0.00147511
0.00147355
0.00147205
0.00147033
0.00146833
0.001466
0.0014633
0.00146019
0.00145664
0.00145262
0.00144813
0.00144317
0.00143777
0.00143197
0.00142585
0.0014195
0.00141301
0.00140651
0.00140012
0.00139398
0.00138841
0.00145902
0.0014662
0.00147317
0.00147943
0.00148501
0.00148991
0.00149417
0.00149783
0.00150093
0.00150355
0.00150574
0.00150756
0.00150905
0.00151025
0.00151121
0.00151195
0.00151249
0.00151285
0.00151303
0.00151301
0.00151266
0.00151204
0.0015113
0.00151029
0.00150899
0.00150734
0.00150532
0.00150289
0.00150002
0.0014967
0.00149292
0.00148868
0.00148401
0.00147894
0.00147354
0.00146788
0.00146204
0.00145613
0.00145025
0.00144451
0.00143941
0.00150922
0.00151385
0.00151889
0.00152352
0.00152774
0.00153157
0.00153503
0.00153815
0.00154095
0.00154346
0.00154571
0.00154773
0.00154952
0.00155112
0.00155253
0.00155376
0.00155483
0.00155572
0.00155644
0.00155698
0.00155727
0.00155732
0.00155717
0.00155677
0.00155608
0.00155509
0.00155375
0.00155206
0.00154997
0.00154749
0.0015446
0.00154131
0.00153762
0.00153358
0.00152922
0.00152459
0.00151977
0.00151481
0.00150981
0.00150483
0.00150069
0.0015799
0.00158154
0.00158439
0.00158704
0.0015895
0.00159179
0.00159392
0.0015959
0.00159774
0.00159946
0.00160106
0.00160254
0.00160392
0.00160519
0.00160637
0.00160744
0.0016084
0.00160926
0.00161
0.00161061
0.00161108
0.0016114
0.00161155
0.00161153
0.00161132
0.00161089
0.00161024
0.00160934
0.00160819
0.00160676
0.00160507
0.00160309
0.00160085
0.00159836
0.00159564
0.00159271
0.00158962
0.0015864
0.0015831
0.00157976
0.00157771
0.00463144
0.00380737
0.00496787
0.00651058
0.00793689
0.00907282
0.00987632
0.0103609
0.0105583
0.0105036
0.0102367
0.00980391
0.00925495
0.00863862
0.0079942
0.0073089
0.00643274
0.00421819
0.0036284
0.00451122
0.00588686
0.00728522
0.00847047
0.00934487
0.00988983
0.0101265
0.0100918
0.0098344
0.00940738
0.00886615
0.00826337
0.00764298
0.00702766
0.00629896
0.00383345
0.00345865
0.00414666
0.00535527
0.0066911
0.00789157
0.00881237
0.00940292
0.00967108
0.00965502
0.00940942
0.00899296
0.00846449
0.00787869
0.00728165
0.00670516
0.00610834
0.00349887
0.00328945
0.00383719
0.00489353
0.00615019
0.00734126
0.00828726
0.00890851
0.00919962
0.00919933
0.00896665
0.00856443
0.00805329
0.00748812
0.00691556
0.00637103
0.00585705
0.00321119
0.00312453
0.00356924
0.00449271
0.00566316
0.00682631
0.00777838
0.00841503
0.0087193
0.00873019
0.00851014
0.00812458
0.00763435
0.00709336
0.00654743
0.00603321
0.00557204
0.002967
0.00296711
0.0033338
0.00414455
0.0052297
0.00635142
0.00729308
0.00792979
0.00823633
0.00825248
0.00804338
0.00767554
0.00720887
0.00669524
0.00617858
0.00569517
0.00527066
0.0027629
0.0028202
0.00312619
0.00384369
0.00484927
0.00592192
0.00683803
0.00745934
0.00775635
0.00777073
0.00756961
0.00721939
0.00677802
0.00629439
0.00580977
0.00535878
0.0049681
0.00259569
0.00268645
0.00294344
0.00358593
0.00452122
0.00554117
0.00641825
0.00700868
0.00728372
0.00728847
0.00709151
0.00675808
0.0063431
0.00589171
0.00544169
0.00502518
0.00466859
0.00246237
0.00256851
0.00278389
0.00336838
0.00424476
0.00521066
0.00603634
0.00658023
0.00682062
0.00680783
0.0066112
0.00629361
0.00590582
0.00548854
0.00507541
0.00469539
0.00437354
0.0023601
0.00246827
0.00264638
0.00318924
0.00401882
0.00492953
0.00569108
0.00617289
0.00636667
0.0063295
0.00613033
0.00582809
0.00546843
0.00508688
0.0047125
0.00437063
0.00408381
0.00228604
0.00238687
0.00253193
0.00304809
0.00384142
0.00469325
0.00537622
0.00578115
0.00591883
0.00585303
0.00565041
0.00536417
0.0050339
0.00468951
0.00435516
0.00405247
0.00380177
0.00223723
0.00232407
0.00244222
0.00294487
0.00370816
0.00449195
0.00507997
0.0053958
0.00547244
0.00537783
0.00517347
0.0049053
0.0046061
0.00429989
0.0040061
0.00374294
0.00352854
0.00221059
0.0022738
0.00237727
0.00287842
0.00361018
0.004309
0.00478541
0.00500597
0.00502339
0.00490459
0.00470293
0.004456
0.00418949
0.00392181
0.00366841
0.00344443
0.0032653
0.002203
0.00222138
0.00233512
0.00284552
0.00353149
0.00412087
0.00447449
0.00460336
0.00457083
0.00443655
0.00424372
0.00402138
0.00378865
0.00355941
0.00334558
0.00315966
0.00301502
0.00221137
0.00214836
0.00232413
0.00283718
0.00344639
0.00390265
0.00413513
0.00418664
0.00411868
0.0039795
0.00380175
0.00360689
0.0034087
0.00321703
0.00304107
0.00289132
0.00277953
0.00223317
0.00211199
0.00233427
0.00283039
0.00332428
0.0036386
0.00376704
0.00376275
0.00367559
0.00354148
0.0033842
0.00321874
0.00305453
0.0028985
0.00275796
0.00264177
0.00255948
0.00226677
0.00215215
0.00237493
0.00279326
0.00314328
0.00333131
0.00338373
0.0033457
0.00325334
0.00313199
0.00299819
0.00286207
0.00272991
0.00260668
0.0024985
0.00241284
0.00235764
0.00231182
0.0022717
0.00241805
0.00270296
0.0029119
0.00300427
0.00300737
0.00295239
0.00286388
0.0027591
0.00264911
0.00254048
0.00243735
0.00234353
0.00226424
0.00220578
0.00217477
0.00236926
0.002439
0.00242966
0.00256532
0.0026609
0.00268684
0.0026589
0.0025966
0.00251597
0.00242819
0.00234017
0.00225595
0.00217825
0.00211015
0.0020561
0.00202105
0.00200978
0.00244084
0.00254031
0.00239253
0.00240742
0.00242059
0.00240004
0.00235141
0.00228617
0.00221404
0.00214156
0.0020725
0.00200904
0.00195299
0.00190688
0.00187421
0.00185839
0.0018625
0.00253007
0.00255669
0.00231427
0.00224908
0.00220562
0.00215245
0.00208956
0.00202322
0.00195865
0.00189886
0.00184535
0.00179903
0.00176105
0.00173329
0.0017181
0.00171738
0.00173253
0.00264128
0.00250403
0.00220145
0.00209611
0.00201913
0.00194464
0.00187236
0.00180598
0.0017477
0.00169813
0.00165714
0.00162471
0.00160133
0.00158812
0.00158636
0.00159698
0.00161987
0.0027787
0.0023951
0.00206893
0.00195462
0.00186053
0.00177289
0.00169512
0.00162987
0.00157725
0.00153613
0.00150524
0.00148375
0.00147151
0.00146882
0.00147609
0.00149423
0.00152434
0.00292788
0.00220738
0.00193649
0.00183198
0.00172807
0.00163225
0.00155212
0.00148933
0.00144227
0.00140844
0.00138572
0.00137263
0.00136837
0.00137251
0.00138484
0.00140593
0.00143979
0.00307075
0.00199668
0.00182614
0.00172955
0.00161776
0.00151755
0.00143823
0.00137967
0.00133853
0.00131125
0.00129501
0.00128791
0.0012887
0.00129657
0.00131093
0.0013316
0.00136093
0.0032014
0.00183575
0.00174659
0.00164522
0.00152614
0.00142509
0.00134961
0.00129688
0.00126194
0.00124038
0.001229
0.00122566
0.00122903
0.00123829
0.00125294
0.00127257
0.00129509
0.00333093
0.00174945
0.00169192
0.00157525
0.00145052
0.00135221
0.00128306
0.00123722
0.00120833
0.00119148
0.00118335
0.00118183
0.00118568
0.00119434
0.00120784
0.00122729
0.00125603
0.00347815
0.001726
0.00165244
0.00151577
0.00138868
0.00129647
0.00123545
0.0011969
0.00117353
0.00116032
0.0011541
0.00115299
0.00115591
0.00116241
0.00117255
0.00118727
0.00121085
0.00365569
0.00173895
0.00161904
0.00146342
0.0013386
0.00125546
0.0012036
0.00117214
0.00115348
0.00114289
0.00113764
0.00113616
0.00113768
0.00114191
0.00114884
0.00115839
0.00116937
0.00386408
0.00176587
0.00158474
0.00141593
0.00129866
0.00122691
0.00118455
0.00115957
0.00114469
0.00113582
0.00113076
0.00112837
0.00112818
0.0011302
0.00113486
0.0011431
0.0011564
0.00409686
0.00179166
0.00154551
0.00137257
0.00126795
0.00120904
0.0011759
0.00115655
0.00114454
0.00113662
0.00113119
0.00112749
0.00112527
0.00112459
0.00112592
0.00113027
0.00114042
0.00434681
0.00180506
0.00150042
0.0013342
0.00124622
0.00120054
0.00117584
0.00116112
0.00115109
0.00114343
0.00113722
0.00113209
0.00112792
0.00112483
0.00112307
0.00112297
0.00112469
0.00460797
0.00179713
0.00145174
0.00130279
0.00123355
0.00120043
0.00118299
0.0011718
0.00116286
0.0011548
0.0011474
0.00114063
0.00113457
0.0011294
0.00112549
0.00112337
0.00112384
0.00487413
0.0017629
0.00140424
0.00128052
0.00122997
0.00120784
0.00119621
0.00118753
0.00117892
0.00116983
0.00116076
0.00115208
0.00114395
0.0011366
0.00113034
0.00112573
0.00112375
0.00513752
0.00170368
0.00136373
0.00126904
0.00123518
0.00122178
0.00121448
0.00120748
0.00119863
0.00118796
0.0011768
0.00116591
0.00115558
0.001146
0.00113741
0.00113026
0.00112534
0.00538848
0.00162803
0.00133541
0.0012691
0.00124842
0.0012412
0.00123688
0.00123098
0.00122159
0.00120887
0.00119518
0.00118177
0.00116905
0.00115718
0.00114629
0.0011366
0.00112868
0.00561507
0.00154992
0.00132293
0.00128043
0.00126855
0.00126505
0.00126255
0.0012574
0.00124746
0.00123238
0.00121571
0.00119941
0.00118404
0.00116982
0.00115679
0.001145
0.00113442
0.00580343
0.00148506
0.00132834
0.00130203
0.00129442
0.00129242
0.00129083
0.00128621
0.00127596
0.00125835
0.00123828
0.00121867
0.00120029
0.00118345
0.00116819
0.00115467
0.00114374
0.00593838
0.00144828
0.00135242
0.00133302
0.00132522
0.00132257
0.0013212
0.00131717
0.0013068
0.00128665