/*--------------------------------*- C++ -*----------------------------------*\
  =========                 |
  \\      /  F ield         | OpenFOAM: The Open Source CFD Toolbox
   \\    /   O peration     | Website:  https://openfoam.org
    \\  /    A nd           | Version:  6
     \\/     M anipulation  |
\*---------------------------------------------------------------------------*/
FoamFile
{
    version     2.0;
    format      ascii;
    class       volScalarField;
    location    "2.08";
    object      p;
}
// * * * * * * * * * * * * * * * * * * * * * * * * * * * * * * * * * * * * * //

dimensions      [0 2 -2 0 0 0 0];

internalField   nonuniform List<scalar> 
4214
(
-0.216634
-0.191476
-0.14212
-0.10412
-0.0867635
-0.0783798
-0.0711026
-0.0628346
-0.0540421
-0.0449848
-0.0353329
-0.0236651
-0.011152
0.000493659
0.010078
0.0168196
0.0254128
0.0411243
0.0717427
0.112264
0.132877
0.126582
0.0957298
0.0666499
0.0492645
0.037515
0.0261695
0.014864
0.00390202
-0.00670533
-0.0161515
-0.023963
-0.0316281
-0.0396898
-0.0480444
-0.0551275
-0.0641244
-0.0827033
-0.124617
-0.177388
-0.20767
-0.166287
-0.189466
-0.186461
-0.155074
-0.131813
-0.118787
-0.107991
-0.0952333
-0.0801263
-0.0629556
-0.0437515
-0.0222455
0.00136211
0.0264901
0.051895
0.0815753
0.113764
0.147075
0.1839
0.203681
0.199775
0.201847
0.175241
0.144829
0.117112
0.0900573
0.0620335
0.0349052
0.00933434
-0.0142495
-0.0355981
-0.0537266
-0.0693865
-0.0848296
-0.098616
-0.109514
-0.123054
-0.148939
-0.184444
-0.186403
-0.159572
-0.29105
-0.285594
-0.287938
-0.261671
-0.231813
-0.209093
-0.188936
-0.165738
-0.138683
-0.108678
-0.0754973
-0.0388912
0.00106484
0.0428715
0.083778
0.132731
0.185344
0.239723
0.300731
0.345107
0.353877
0.357005
0.310218
0.253096
0.201823
0.154767
0.10798
0.0625013
0.0192325
-0.02078
-0.0576367
-0.0897323
-0.118249
-0.145588
-0.169786
-0.191871
-0.216568
-0.251011
-0.281898
-0.278518
-0.284255
-0.382679
-0.365985
-0.366738
-0.344142
-0.311937
-0.283188
-0.255883
-0.224917
-0.189145
-0.148973
-0.104121
-0.0541896
0.000720262
0.0585623
0.119806
0.183689
0.256946
0.331237
0.416035
0.471416
0.483342
0.490851
0.433099
0.354941
0.284929
0.217726
0.152008
0.088544
0.0285212
-0.0270776
-0.0777253
-0.122437
-0.162491
-0.199497
-0.232833
-0.263679
-0.297963
-0.337998
-0.365431
-0.365764
-0.389203
-0.469691
-0.454686
-0.45812
-0.435172
-0.398125
-0.363843
-0.330141
-0.291521
-0.246754
-0.196064
-0.139144
-0.0753406
-0.00513724
0.0703646
0.151538
0.232757
0.324885
0.415558
0.532196
0.600979
0.618059
0.629942
0.561823
0.460973
0.370197
0.282181
0.196804
0.114845
0.0378089
-0.0337369
-0.0983929
-0.155989
-0.207681
-0.254598
-0.296981
-0.337394
-0.381816
-0.428362
-0.455332
-0.459854
-0.487425
-0.556532
-0.542722
-0.551078
-0.526085
-0.483831
-0.445166
-0.406604
-0.361511
-0.308649
-0.248254
-0.179834
-0.102522
-0.0169659
0.0762914
0.17501
0.279942
0.391975
0.50161
0.644102
0.729004
0.754102
0.769258
0.693081
0.572552
0.457396
0.347364
0.241368
0.140358
0.0468462
-0.0410812
-0.119599
-0.190034
-0.253122
-0.309448
-0.360249
-0.409789
-0.463271
-0.515409
-0.545561
-0.552885
-0.586241
-0.648215
-0.635723
-0.649864
-0.622115
-0.575239
-0.532517
-0.489733
-0.43893
-0.378538
-0.308849
-0.229163
-0.138407
-0.0366053
0.076003
0.194376
0.324231
0.460309
0.604536
0.753169
0.857532
0.895062
0.911305
0.826564
0.687561
0.546761
0.41331
0.285652
0.164775
0.0537411
-0.0502497
-0.142689
-0.225974
-0.300416
-0.366264
-0.425748
-0.484338
-0.545939
-0.60334
-0.637992
-0.64735
-0.686998
-0.749015
-0.736312
-0.752864
-0.723543
-0.673457
-0.627214
-0.580719
-0.525017
-0.457888
-0.379502
-0.288959
-0.184885
-0.0666883
0.0645442
0.205934
0.362955
0.526889
0.715963
0.865409
0.987173
1.03999
1.06606
0.963645
0.805031
0.638006
0.479713
0.329132
0.188015
0.0571241
-0.0623832
-0.168788
-0.264902
-0.35058
-0.426044
-0.494364
-0.561394
-0.63009
-0.693067
-0.732909
-0.746303
-0.792009
-0.860832
-0.846952
-0.861747
-0.832581
-0.78106
-0.731897
-0.682073
-0.622171
-0.5491
-0.462649
-0.361644
-0.244199
-0.109106
0.0432496
0.212011
0.394711
0.590514
0.817272
0.981167
1.11928
1.19114
1.23138
1.10535
0.925478
0.730648
0.545887
0.370848
0.208561
0.0562604
-0.0788615
-0.199868
-0.30907
-0.406078
-0.491361
-0.568378
-0.642741
-0.717674
-0.787113
-0.833171
-0.851262
-0.901717
-0.985249
-0.966998
-0.978654
-0.950542
-0.899224
-0.848118
-0.795548
-0.732224
-0.654212
-0.560682
-0.450024
-0.319596
-0.167336
0.00802508
0.206656
0.419684
0.660421
0.906368
1.10372
1.2573
1.34918
1.39084
1.25057
1.04731
0.823583
0.610115
0.40979
0.223145
0.0503641
-0.101538
-0.238483
-0.361122
-0.46936
-0.564427
-0.649759
-0.730438
-0.810858
-0.887276
-0.941041
-0.96425
-1.01717
-1.12225
-1.09853
-1.1052
-1.0785
-1.02896
-0.977173
-0.922717
-0.856985
-0.775452
-0.676467
-0.557944
-0.416087
-0.248099
-0.0498844
0.177725
0.434459
0.715984
0.996213
1.24023
1.40813
1.52331
1.56046
1.40226
1.16956
0.914834
0.670384
0.442759
0.229049
0.0358162
-0.135009
-0.288382
-0.424052
-0.543189
-0.647913
-0.741284
-0.827827
-0.913232
-0.996136
-1.05779
-1.08703
-1.14196
-1.2696
-1.24125
-1.2435
-1.21771
-1.17139
-1.12077
-1.06577
-0.998925
-0.915625
-0.813207
-0.68939
-0.538674
-0.358689
-0.139235
0.11614
0.417111
0.741415
1.08387
1.38937
1.57444
1.71865
1.74652
1.56135
1.29193
1.00203
0.726991
0.468951
0.225607
0.00874718
-0.182215
-0.351386
-0.499821
-0.62993
-0.744299
-0.84563
-0.93813
-1.02843
-1.11696
-1.18576
-1.22169
-1.27945
-1.4245
-1.39414
-1.39552
-1.37114
-1.32926
-1.28177
-1.22788
-1.1612
-1.07769
-0.973396
-0.846416
-0.688117
-0.497694
-0.253819
0.0281565
0.372659
0.7476
1.14537
1.53285
1.74166
1.92287
1.93038
1.72256
1.41426
1.08569
0.77483
0.475623
0.204519
-0.0352717
-0.246621
-0.4315
-0.593068
-0.734264
-0.858191
-0.967419
-1.06613
-1.16133
-1.25463
-1.3296
-1.3728
-1.43408
-1.59433
-1.56055
-1.56223
-1.54152
-1.50413
-1.46045
-1.40901
-1.34417
-1.26289
-1.15895
-1.03225
-0.865671
-0.661754
-0.383303
-0.0745183
0.334481
0.734269
1.18656
1.6538
1.89316
2.13212
2.10968
1.88113
1.53589
1.16436
0.801011
0.461043
0.161273
-0.100821
-0.331439
-0.532637
-0.70759
-0.859792
-0.992959
-1.10971
-1.21456
-1.31442
-1.41172
-1.49189
-1.54275
-1.60778
-1.78944
-1.74976
-1.74444
-1.72715
-1.69477
-1.6541
-1.60776
-1.54662
-1.47406
-1.37666
-1.2646
-1.0966
-0.904152
-0.586583
-0.292853
0.221429
0.628287
1.23674
1.81312
2.08216
2.39479
2.30277
2.0271
1.64701
1.19314
0.788813
0.412112
0.0886905
-0.19916
-0.448683
-0.666986
-0.854845
-1.01861
-1.16041
-1.28493
-1.39557
-1.5001
-1.60057
-1.68539
-1.74342
-1.81155
-2.00007
-1.96579
-1.95292
-1.92894
-1.91773
-1.87382
-1.84126
-1.77746
-1.72005
-1.63456
-1.56783
-1.42707
-1.36202
-0.980911
-0.820089
-0.0574917
0.237196
1.29061
2.13806
2.39438
2.73978
2.5003
2.08564
1.65614
1.14506
0.733716
0.315892
-0.0169424
-0.337299
-0.599806
-0.839992
-1.03368
-1.21302
-1.35676
-1.49229
-1.60305
-1.71335
-1.81181
-1.90584
-1.96845
-2.04239
-2.21613
-2.20928
-2.21859
-2.17561
-2.18934
-2.13309
-2.12409
-2.04948
-1.99342
-1.91717
-1.90257
-1.818
-1.91936
-1.43866
-1.4315
-0.452045
-0.383352
1.11605
2.33198
2.58619
2.90108
2.56126
2.01471
1.57874
1.01125
0.598156
0.128159
-0.206325
-0.552157
-0.816733
-1.08999
-1.27283
-1.49265
-1.61085
-1.78867
-1.86483
-2.01687
-2.07528
-2.22541
-2.23993
-2.37941
-2.40634
-2.163
-1.95632
-1.76286
-1.5962
-1.44424
-1.30616
-1.17904
-1.06043
-0.948231
-0.842328
-0.739052
-0.640176
-0.550511
-0.447813
-0.385956
-0.331253
-2.56315
-2.27443
-2.07045
-1.8814
-1.71927
-1.57076
-1.43525
-1.30994
-1.19182
-1.08103
-0.97586
-0.871536
-0.777983
-0.684744
-0.578564
-0.532226
-0.426972
-2.57388
-2.36727
-2.18737
-2.01068
-1.85682
-1.71428
-1.58304
-1.46009
-1.34341
-1.23433
-1.1277
-1.02365
-0.93393
-0.832894
-0.728577
-0.68734
-0.558561
-2.70394
-2.46633
-2.29371
-2.12913
-1.9843
-1.84989
-1.72493
-1.60642
-1.4942
-1.3887
-1.28285
-1.18228
-1.09505
-0.990158
-0.88935
-0.845842
-0.705416
-2.69457
-2.53522
-2.38975
-2.24323
-2.10975
-1.98516
-1.86793
-1.75564
-1.64956
-1.54846
-1.44547
-1.34998
-1.26521
-1.15913
-1.0627
-1.01619
-0.870205
-2.79244
-2.61145
-2.47689
-2.34676
-2.22478
-2.11188
-2.00459
-1.90071
-1.80263
-1.70775
-1.60997
-1.52111
-1.44017
-1.33615
-1.24623
-1.19598
-1.05058
-2.76509
-2.65197
-2.54495
-2.43534
-2.32885
-2.22901
-2.13324
-2.03962
-1.95126
-1.86398
-1.7734
-1.69305
-1.61678
-1.51774
-1.43691
-1.38293
-1.24417
-2.82748
-2.70376
-2.607
-2.51154
-2.42079
-2.33303
-2.24945
-2.16803
-2.09076
-2.01243
-1.93164
-1.86059
-1.78944
-1.70069
-1.63039
-1.57332
-1.44622
-2.79799
-2.72434
-2.64922
-2.57162
-2.49636
-2.42268
-2.35029
-2.28164
-2.21622
-2.14882
-2.07987
-2.01832
-1.95421
-1.87827
-1.81967
-1.76277
-1.65024
-2.79426
-2.72544
-2.66778
-2.60974
-2.55076
-2.49223
-2.43393
-2.37615
-2.32286
-2.26778
-2.21184
-2.16137
-2.10582
-2.04247
-1.99747
-1.94406
-1.84824
-2.75449
-2.70991
-2.66364
-2.61997
-2.57792
-2.5357
-2.4924
-2.44971
-2.4073
-2.36313
-2.32165
-2.28386
-2.23836
-2.18909
-2.15662
-2.11016
-2.03355
-2.70623
-2.67515
-2.64274
-2.60901
-2.5769
-2.54623
-2.51706
-2.48883
-2.45998
-2.42976
-2.40025
-2.37226
-2.34017
-2.30841
-2.28712
-2.25097
-2.19687
-2.65486
-2.62569
-2.59837
-2.57645
-2.55264
-2.52956
-2.51015
-2.49096
-2.4721
-2.45426
-2.43727
-2.42035
-2.4019
-2.38365
-2.37095
-2.34709
-2.31634
-2.56547
-2.5534
-2.5345
-2.51526
-2.49899
-2.48759
-2.47756
-2.46564
-2.45345
-2.44261
-2.43229
-2.42251
-2.41431
-2.40826
-2.40289
-2.39422
-2.38495
-2.46735
-2.46344
-2.45433
-2.44457
-2.43401
-2.4227
-2.41113
-2.40282
-2.39865
-2.3967
-2.39501
-2.3933
-2.39301
-2.39366
-2.39395
-2.39251
-2.3952
-2.34717
-2.34457
-2.3416
-2.33827
-2.33427
-2.32958
-2.32488
-2.32078
-2.31745
-2.31368
-2.31158
-2.3123
-2.31584
-2.32161
-2.32475
-2.33025
-2.33699
-2.19701
-2.19951
-2.20106
-2.2021
-2.20289
-2.20208
-2.20091
-2.19961
-2.1984
-2.19757
-2.19754
-2.19815
-2.20253
-2.20734
-2.20948
-2.22647
-2.22901
-2.06792
-2.05372
-2.04451
-2.03665
-2.03286
-2.03153
-2.03097
-2.03104
-2.03137
-2.03186
-2.03251
-2.03339
-2.03827
-2.0449
-2.04542
-2.0627
-2.05925
-1.83186
-1.83753
-1.83973
-1.8405
-1.83723
-1.83131
-1.82488
-1.82049
-1.81861
-1.81747
-1.81671
-1.81645
-1.81695
-1.81794
-1.8154
-1.82772
-1.81923
-1.67806
-1.64777
-1.62867
-1.61458
-1.60376
-1.59607
-1.59019
-1.58356
-1.5758
-1.56876
-1.56136
-1.55473
-1.55005
-1.54653
-1.54015
-1.54993
-1.53438
-1.39111
-1.38697
-1.37748
-1.36407
-1.3487
-1.33334
-1.3186
-1.30439
-1.29052
-1.2771
-1.2665
-1.25662
-1.24539
-1.23468
-1.21862
-1.22054
-1.18823
-1.24528
-1.18785
-1.14911
-1.11883
-1.09133
-1.06548
-1.04067
-1.01664
-0.993509
-0.97148
-0.950476
-0.93047
-0.9095
-0.895146
-0.870181
-0.868309
-0.821529
-0.942112
-0.919876
-0.888725
-0.85326
-0.816182
-0.780457
-0.747089
-0.715349
-0.685173
-0.656209
-0.627183
-0.599773
-0.572205
-0.549518
-0.515792
-0.508435
-0.442356
-0.773183
-0.692683
-0.631396
-0.582015
-0.535614
-0.491153
-0.449471
-0.409878
-0.371911
-0.335571
-0.300497
-0.267013
-0.233491
-0.20307
-0.16189
-0.147818
-0.0615623
-0.45873
-0.418987
-0.363901
-0.308129
-0.253488
-0.201443
-0.152606
-0.106137
-0.0614632
-0.0185511
0.0229988
0.0632373
0.10377
0.141669
0.188333
0.210622
0.313518
-0.277831
-0.173251
-0.0968648
-0.0344435
0.0260788
0.084296
0.138965
0.191036
0.241303
0.289885
0.337254
0.38363
0.430556
0.475717
0.528898
0.559228
0.671935
0.032107
0.0925961
0.165329
0.233666
0.299325
0.362006
0.420944
0.477155
0.531542
0.584329
0.636048
0.68697
0.738645
0.788868
0.847207
0.884429
1.00058
0.218543
0.340598
0.424137
0.494707
0.563059
0.628355
0.689665
0.748178
0.804872
0.860014
0.914174
0.967632
1.02196
1.07506
1.13624
1.17863
1.29341
0.518462
0.592032
0.671718
0.744738
0.81429
0.880179
0.942016
1.00102
1.05817
1.11379
1.16848
1.22253
1.27747
1.33122
1.39268
1.43729
1.54837
0.703245
0.829147
0.911814
0.982878
1.05121
1.11568
1.17608
1.23377
1.28967
1.34414
1.39779
1.4509
1.50487
1.55778
1.61803
1.66403
1.76882
0.985355
1.06114
1.13697
1.20641
1.27195
1.33324
1.39061
1.44544
1.49862
1.5506
1.60194
1.65299
1.70487
1.75604
1.81353
1.85933
1.95495
1.1604
1.279
1.35146
1.41494
1.47541
1.53182
1.58469
1.6354
1.68478
1.73326
1.78139
1.82952
1.87852
1.9273
1.98107
2.02568
2.10871
1.42276
1.48737
1.54992
1.60778
1.6616
1.71148
1.75847
1.80385
1.84841
1.8926
1.93687
1.98153
2.0272
2.07292
2.12228
2.16399
2.23351
1.5859
1.68226
1.73666
1.78536
1.83113
1.87338
1.91345
1.95255
1.99139
2.03046
2.07016
2.11075
2.15252
2.19447
2.23861
2.27612
2.33133
1.81836
1.86253
1.90563
1.94535
1.98228
2.01642
2.04931
2.08199
2.115
2.1488
2.18371
2.21988
2.2572
2.29444
2.33235
2.36416
2.40568
1.96471
2.02842
2.05923
2.08663
2.11341
2.13879
2.16412
2.19036
2.21789
2.24695
2.27762
2.30972
2.34268
2.37512
2.40681
2.43126
2.46101
2.16502
2.17814
2.19641
2.21214
2.22804
2.24412
2.26137
2.28071
2.30257
2.32703
2.35374
2.3819
2.41019
2.43701
2.46193
2.47984
2.50172
2.29959
2.32116
2.32501
2.32896
2.33485
2.34226
2.35184
2.36431
2.38016
2.39927
2.42089
2.44371
2.46607
2.48638
2.50317
2.51416
2.53158
2.46597
2.45192
2.44347
2.43835
2.43631
2.4365
2.43953
2.44612
2.45632
2.46937
2.48403
2.49903
2.51321
2.52567
2.53547
2.54284
2.55501
2.57873
2.56425
2.54293
2.52768
2.51714
2.50999
2.50683
2.50739
2.51224
2.51963
2.52784
2.53592
2.54331
2.54975
2.55581
2.56321
2.57429
2.23549
2.38689
2.56461
2.69114
2.83493
2.94818
3.05738
3.15225
3.22772
3.30114
3.34883
3.4006
3.42894
3.46009
3.47626
3.4949
3.50338
3.51267
3.51499
3.51789
3.51069
3.50244
3.4875
3.47212
3.45489
3.43579
3.41598
3.39296
3.36929
3.34145
3.31162
3.27757
3.23899
3.19624
3.14623
3.09101
3.0274
2.95519
2.87706
2.7838
2.69349
2.24238
2.37649
2.51796
2.64454
2.76937
2.87855
2.9788
3.06718
3.14218
3.20893
3.26109
3.30793
3.34211
3.37177
3.39241
3.40946
3.42144
3.42977
3.43454
3.43647
3.43355
3.42506
3.41252
3.39735
3.38088
3.36265
3.34266
3.32072
3.29654
3.26973
3.23983
3.20662
3.16909
3.12741
3.07983
3.0272
2.96697
2.90091
2.82559
2.74486
2.6521
2.25071
2.37238
2.491
2.60459
2.7145
2.81473
2.90821
2.99041
3.06405
3.12698
3.18115
3.22626
3.26348
3.29342
3.31698
3.33439
3.34731
3.35635
3.36197
3.36466
3.36411
3.35692
3.3458
3.33168
3.31613
3.29856
3.27901
3.2574
3.2334
3.20674
3.17702
3.14397
3.10698
3.06578
3.01963
2.96834
2.91106
2.84806
2.77772
2.7029
2.61588
2.2513
2.35997
2.46299
2.56592
2.66437
2.75728
2.84365
2.92209
2.99264
3.05454
3.10838
3.15406
3.19234
3.22363
3.24873
3.26807
3.2821
3.29166
3.29794
3.30131
3.30208
3.29672
3.28682
3.27379
3.25904
3.24206
3.22293
3.20163
3.17788
3.15143
3.122
3.0893
3.05295
3.01259
2.96785
2.91842
2.86385
2.80427
2.73835
2.66934
2.5879
2.25244
2.34821
2.43811
2.53039
2.62054
2.7068
2.78759
2.86222
2.92998
2.99052
3.04373
3.0897
3.12873
3.16121
3.18765
3.20848
3.22415
3.23501
3.24168
3.2456
3.24699
3.24359
3.23484
3.22288
3.20889
3.19243
3.17365
3.15258
3.129
3.10274
3.07358
3.04128
3.00553
2.96606
2.92262
2.87505
2.82298
2.76664
2.70458
2.64057
2.56504
2.25682
2.34108
2.42093
2.50278
2.5834
2.66319
2.73894
2.80982
2.87497
2.93394
2.98646
3.03248
3.0721
3.10558
3.13323
3.15538
3.17244
3.1848
3.19267
3.1968
3.19848
3.19693
3.18925
3.17822
3.16489
3.14886
3.13032
3.10936
3.08585
3.05973
3.03085
2.99897
2.96385
2.9253
2.8831
2.83712
2.78707
2.73339
2.67502
2.61681
2.54738
2.26413
2.3377
2.40838
2.48195
2.55455
2.6262
2.69682
2.76401
2.82662
2.88399
2.93573
2.98167
3.02176
3.05608
3.08482
3.10822
3.12659
3.14026
3.14951
3.15444
3.15621
3.15596
3.14939
3.13917
3.12638
3.11066
3.09223
3.07122
3.0475
3.02127
2.99243
2.96084
2.92636
2.88877
2.84785
2.80354
2.75587
2.70557
2.65151
2.59859
2.53515
2.27295
2.33772
2.40013
2.46591
2.53182
2.59729
2.66146
2.72433
2.78428
2.83998
2.89087
2.93661
2.97704
3.0121
3.04186
3.06645
3.08608
3.10101
3.11151
3.11776
3.11981
3.11997
3.11467
3.10518
3.09281
3.07728
3.05875
3.0375
3.01405
2.98813
2.95961
2.92839
2.89437
2.85743
2.81762
2.77514
2.73002
2.68307
2.63329
2.58561
2.52837
2.28313
2.34059
2.39576
2.4544
2.51384
2.57378
2.63306
2.69098
2.74739
2.80129
2.85121
2.89666
2.93734
2.97308
3.00382
3.02958
3.05046
3.06663
3.07831
3.08569
3.08868
3.08887
3.08467
3.07579
3.06374
3.04827
3.02959
3.00864
2.9853
2.95941
2.93095
2.89985
2.86613
2.82997
2.79149
2.75096
2.70856
2.66517
2.61997
2.57779
2.52738
2.29426
2.34492
2.39372
2.44616
2.49982
2.5545
2.60935
2.6635
2.71625
2.76733
2.8162
2.86129
2.90219
2.93858
2.97028
2.99719
3.01931
3.03672
3.04956
3.05799
3.06203
3.0623
3.05897
3.05059
3.03872
3.02319
3.00479
2.98391
2.96043
2.93436
2.90571
2.87466
2.8414
2.80609
2.769
2.7305
2.69094
2.65117
2.61064
2.57381
2.53055
2.30509
2.34955
2.39278
2.43978
2.48842
2.5385
2.58926
2.64005
2.69008
2.73865
2.78542
2.83003
2.87115
2.90815
2.94078
2.96884
2.99222
3.01089
3.02491
3.03436
3.03936
3.03998
3.03723
3.02918
3.01738
3.00187
2.98359
2.96258
2.93884
2.91242
2.8836
2.85265
2.81979
2.78534
2.74969
2.71328
2.67656
2.64038
2.60453
2.5726
2.53602
2.31519
2.35392
2.39231
2.43439
2.47858
2.52459
2.57174
2.61944
2.66704
2.71382
2.75911
2.80249
2.84348
2.8812
2.91482
2.94411
2.96883
2.98882
3.00406
3.01456
3.0204
3.02159
3.01913
3.01125
2.99926
2.98366
2.96511
2.94365
2.91939
2.89254
2.8635
2.83257
2.8001
2.76653
2.7324
2.69823
2.66454
2.632
2.60081
2.5733
2.5432
2.32464
2.35791
2.39195
2.42955
2.46973
2.51207
2.55602
2.60103
2.64647
2.69168
2.73593
2.7786
2.81926
2.85734
2.89227
2.92292
2.94897
2.97028
2.98675
2.99829
3.00495
3.00672
3.00442
2.99665
2.98447
2.9687
2.94955
2.92716
2.90208
2.87457
2.84513
2.81414
2.78207
2.74944
2.71683
2.6849
2.65421
2.62521
2.59839
2.57472
2.55077
2.33231
2.36056
2.39125
2.42533
2.46238
2.50182
2.54318
2.58589
2.62937
2.67316
2.71659
2.75894
2.79962
2.838
2.8734
2.90523
2.93254
2.95506
2.97269
2.98527
2.9927
2.995
2.99273
2.9851
2.97304
2.95715
2.9375
2.9144
2.88856
2.86021
2.83019
2.79901
2.76722
2.73555
2.7045
2.67448
2.64606
2.61973
2.59626
2.5755
2.5572
2.33777
2.36107
2.38873
2.41974
2.45403
2.49102
2.5302
2.57087
2.61288
2.65582
2.69872
2.74094
2.78188
2.82074
2.85683
2.88954
2.91842
2.94254
2.96158
2.97529
2.98351
2.98625
2.98375
2.9758
2.96328
2.94661
2.92601
2.90202
2.87523
2.84636
2.81583
2.78457
2.75299
2.72188
2.69221
2.66401
2.63783
2.61417
2.59382
2.5761
2.56263
2.34395
2.36091
2.38332
2.40973
2.44019
2.47415
2.51109
2.55071
2.59239
2.63475
2.67727
2.71972
2.76122
2.80122
2.83905
2.87399
2.90523
2.93201
2.95328
2.96849
2.97768
2.98075
2.97778
2.96869
2.95454
2.93577
2.913
2.88724
2.85867
2.82885
2.79764
2.76619
2.73512
2.70457
2.67558
2.64934
2.62628
2.60665
2.59091
2.57831
2.56998
2.35429
2.36349
2.38055
2.40362
2.43159
2.46366
2.49915
2.53737
2.57748
2.61925
2.66225
2.7054
2.74802
2.78937
2.82857
2.86484
2.89741
2.92553
2.94834
2.96522
2.97543
2.97873
2.97527
2.96577
2.95096
2.93133
2.90746
2.8801
2.8503
2.81855
2.78638
2.75406
2.72277
2.69351
2.66644
2.64201
2.62071
2.60323
2.59
2.58173
2.58221
-0.342879
-0.37658
-0.444487
-0.528606
-0.608699
-0.698219
-0.792827
-0.895023
-1.00637
-1.1253
-1.25089
-1.38117
-1.51836
-1.67048
-1.83781
-2.00573
-2.18045
-0.42454
-0.496291
-0.547684
-0.633024
-0.710051
-0.79496
-0.88857
-0.987762
-1.09558
-1.21038
-1.33176
-1.45899
-1.59365
-1.73639
-1.88343
-2.02682
-2.1809
-0.530791
-0.619964
-0.664604
-0.745924
-0.824694
-0.906659
-0.999696
-1.09681
-1.20024
-1.30979
-1.42406
-1.54251
-1.66654
-1.79437
-1.92582
-2.06464
-2.23713
-0.639993
-0.73283
-0.779725
-0.85714
-0.937289
-1.0164
-1.10627
-1.20004
-1.29783
-1.4012
-1.50802
-1.61781
-1.73224
-1.84692
-1.96518
-2.08962
-2.22377
-0.754493
-0.850599
-0.899321
-0.972736
-1.05317
-1.1297
-1.21527
-1.30497
-1.39662
-1.49268
-1.59075
-1.69038
-1.79318
-1.89451
-1.99802
-2.10531
-2.21512
-0.87361
-0.969779
-1.02132
-1.08978
-1.1687
-1.2424
-1.32258
-1.40698
-1.49155
-1.57885
-1.66719
-1.75631
-1.84619
-1.93461
-2.02385
-2.11625
-2.21089
-0.997372
-1.09245
-1.14489
-1.208
-1.28384
-1.35396
-1.42768
-1.50536
-1.58187
-1.65894
-1.73653
-1.81517
-1.89161
-1.96767
-2.04383
-2.1208
-2.19698
-1.12464
-1.21613
-1.26826
-1.32567
-1.39702
-1.46268
-1.52848
-1.59676
-1.66369
-1.73012
-1.79747
-1.8639
-1.92868
-1.99343
-2.05685
-2.12054
-2.18127
-1.25426
-1.34001
-1.38971
-1.44138
-1.50617
-1.56514
-1.62139
-1.67866
-1.73508
-1.79146
-1.84843
-1.90388
-1.95813
-2.01115
-2.0606
-2.11238
-2.16141
-1.38294
-1.4599
-1.50621
-1.55103
-1.60607
-1.65426
-1.69787
-1.7464
-1.79538
-1.84265
-1.88888
-1.93405
-1.97679
-2.01641
-2.05708
-2.09939
-2.13769
-1.50642
-1.56965
-1.61058
-1.64672
-1.68832
-1.72624
-1.76284
-1.80415
-1.84393
-1.88091
-1.91608
-1.94875
-1.97988
-2.01099
-2.04253
-2.07659
-2.10984
-1.61668
-1.66489
-1.69666
-1.72416
-1.75626
-1.7882
-1.82049
-1.85073
-1.87816
-1.90234
-1.92592
-1.94888
-1.96895
-1.99152
-2.0175
-2.04416
-2.07057
-1.70717
-1.74249
-1.76389
-1.78766
-1.81212
-1.8336
-1.8524
-1.86959
-1.88581
-1.90153
-1.917
-1.93239
-1.9488
-1.96758
-1.98743
-2.00768
-2.02697
-1.78123
-1.80113
-1.81558
-1.82275
-1.83139
-1.84114
-1.85074
-1.86164
-1.8727
-1.8824
-1.89386
-1.90801
-1.92164
-1.93485
-1.94818
-1.9623
-1.97273
-1.81404
-1.81789
-1.82264
-1.82342
-1.82594
-1.82976
-1.83353
-1.8376
-1.84366
-1.85157
-1.85967
-1.86744
-1.87519
-1.88325
-1.89146
-1.90019
-1.91027
-1.79952
-1.79884
-1.79343
-1.79223
-1.792
-1.79195
-1.79297
-1.79489
-1.79753
-1.80076
-1.80428
-1.80815
-1.81213
-1.81611
-1.81993
-1.82364
-1.82913
-1.74761
-1.74643
-1.73496
-1.7318
-1.72877
-1.72679
-1.72638
-1.7264
-1.72688
-1.72796
-1.72951
-1.73149
-1.73381
-1.73644
-1.73951
-1.74255
-1.74401
-1.65097
-1.65162
-1.63766
-1.63571
-1.6332
-1.6297
-1.62893
-1.62857
-1.62864
-1.62922
-1.63027
-1.63178
-1.63421
-1.63779
-1.64293
-1.64977
-1.66083
-1.49456
-1.49885
-1.49119
-1.49083
-1.49039
-1.49019
-1.49091
-1.49235
-1.49446
-1.49673
-1.4991
-1.50205
-1.50645
-1.51252
-1.51904
-1.52577
-1.53604
-1.28258
-1.29013
-1.29057
-1.29416
-1.29712
-1.30097
-1.30558
-1.31101
-1.31737
-1.32545
-1.33611
-1.34849
-1.36015
-1.37102
-1.38212
-1.39152
-1.39832
-1.01142
-1.03265
-1.04049
-1.05443
-1.06599
-1.07844
-1.09175
-1.10696
-1.1232
-1.13882
-1.15365
-1.16927
-1.18735
-1.20817
-1.23144
-1.25724
-1.29385
-0.700149
-0.737415
-0.751805
-0.779443
-0.802988
-0.827221
-0.852166
-0.875949
-0.89955
-0.924562
-0.950313
-0.976169
-1.0023
-1.02851
-1.0547
-1.08311
-1.12291
-0.37816
-0.434336
-0.456381
-0.489938
-0.520395
-0.553992
-0.587689
-0.622071
-0.657455
-0.694135
-0.73239
-0.770716
-0.808875
-0.84634
-0.88167
-0.913715
-0.936246
-0.0474825
-0.123673
-0.153204
-0.196898
-0.236302
-0.278175
-0.320496
-0.36387
-0.408262
-0.45389
-0.500622
-0.548628
-0.599158
-0.651238
-0.703676
-0.760473
-0.8268
0.280942
0.187764
0.150449
0.0974757
0.049317
-0.000869941
-0.0515284
-0.103584
-0.157102
-0.212027
-0.267952
-0.32564
-0.385215
-0.443292
-0.502221
-0.571347
-0.655512
0.595121
0.493918
0.44702
0.385848
0.3302
0.27228
0.213984
0.154212
0.0927713
0.0297209
-0.035139
-0.103232
-0.173473
-0.242495
-0.314928
-0.386161
-0.417948
0.886664
0.782099
0.727136
0.660511
0.598213
0.534314
0.470022
0.404174
0.336531
0.267153
0.195688
0.120625
0.0426106
-0.037546
-0.127815
-0.22579
-0.312425
1.14199
1.03963
0.982116
0.912583
0.84745
0.780312
0.71243
0.642582
0.570472
0.49623
0.419569
0.338744
0.254913
0.172704
0.086222
-0.0242943
-0.151595
1.36281
1.26507
1.20906
1.14029
1.07493
1.00703
0.938001
0.866566
0.792403
0.715648
0.635598
0.549703
0.459635
0.370709
0.275973
0.176764
0.120056
1.55432
1.46248
1.40928
1.34321
1.27949
1.21285
1.14467
1.07372
0.999686
0.922834
0.842254
0.754914
0.663186
0.569727
0.454078
0.320592
0.226035
1.71901
1.63431
1.5841
1.52188
1.46136
1.39759
1.33196
1.26326
1.19114
1.11604
1.03665
0.949525
0.858846
0.770834
0.665361
0.525055
0.380028
1.85888
1.78245
1.73575
1.67815
1.62173
1.56199
1.50013
1.43505
1.36649
1.29493
1.21853
1.13348
1.04416
0.954787
0.848029
0.735436
0.691589
1.97594
1.90885
1.86632
1.81386
1.76198
1.70693
1.64969
1.58927
1.52542
1.45864
1.38713
1.30759
1.22356
1.13469
1.02024
0.891384
0.801038
2.07244
2.01554
1.97709
1.93025
1.88339
1.83368
1.78182
1.72697
1.66886
1.60792
1.54239
1.46907
1.39178
1.3137
1.2166
1.08139
0.917767
2.15019
2.10362
2.07006
2.02945
1.98809
1.94408
1.89797
1.84922
1.79759
1.74349
1.68516
1.61918
1.54878
1.47685
1.38742
1.28769
1.25593
2.21132
2.1751
2.14749
2.113
2.07698
2.03864
1.99828
1.95559
1.91049
1.86349
1.8131
1.75629
1.69602
1.63197
1.54285
1.43794
1.37947
2.25859
2.23096
2.20892
2.18104
2.15063
2.11795
2.08317
2.04626
2.00746
1.96754
1.92522
1.87751
1.82797
1.77969
1.71439
1.61389
1.46894
2.29459
2.27306
2.25763
2.23737
2.21344
2.18696
2.15837
2.12779
2.09568
2.06317
2.02926
1.99099
1.95206
1.91465
1.86102
1.80515
1.81972
2.32237
2.30834
2.29758
2.28486
2.26897
2.25069
2.23046
2.20808
2.18393
2.15947
2.13423
2.10606
2.07884
2.05077
1.99963
1.95681
1.98616
2.3438
2.33359
2.32536
2.3181
2.30944
2.29903
2.28695
2.27262
2.25635
2.23986
2.22325
2.20526
2.18907
2.17434
2.14797
2.10961
2.0422
-2.38407
-2.40372
-2.38823
-2.33134
-2.19114
-2.08877
-1.53732
-0.83269
0.265466
2.02823
2.40888
1.4855
0.398542
-0.487734
-1.13591
-1.59886
-1.92144
-2.15801
-2.34946
-2.5167
-2.54584
-2.60124
-2.61892
-2.58866
-2.49548
-2.545
-1.85116
-1.53881
-0.247983
1.72117
1.90799
1.03403
-0.000320577
-0.874991
-1.50825
-1.95004
-2.25005
-2.4618
-2.62354
-2.76274
-2.72205
-2.8143
-2.87356
-2.86377
-2.84732
-3.10762
-2.3259
-2.34203
-0.874873
1.09953
1.07848
0.273705
-0.636504
-1.42473
-1.99556
-2.38911
-2.64904
-2.82182
-2.94143
-3.03795
-2.92469
-3.05085
-3.15424
-3.15618
-3.25443
-3.57938
-3.09524
-3.2989
-1.68247
0.0549054
-0.218933
-0.962839
-1.62038
-2.20964
-2.6378
-2.9395
-3.12558
-3.23585
-3.29671
-3.33725
-3.14519
-3.30864
-3.45671
-3.47693
-3.73096
-4.00929
-4.09197
-4.22617
-2.71448
-1.48875
-2.10428
-2.77765
-3.03804
-3.34326
-3.49224
-3.63302
-3.70572
-3.72682
-3.70673
-3.6831
-3.39133
-3.59413
-3.77906
-3.85059
-4.26927
-4.4625
-5.11446
-5.13553
-3.95597
-3.46493
-4.54479
-5.22491
-5.09905
-4.92101
-4.60497
-4.49558
-4.40985
-4.30858
-4.18373
-4.08368
-3.66521
-3.90469
-4.11192
-4.26107
-4.74775
-4.98995
-6.05567
-6.01004
-5.32887
-5.71031
-7.4066
-8.29792
-8.01466
-6.93358
-6.06625
-5.55064
-5.24439
-4.98842
-4.73624
-4.5453
-3.97034
-4.24009
-4.45895
-4.7107
-5.12423
-5.62138
-6.82261
-6.77414
-6.68507
-7.99561
-10.4259
-11.6441
-11.3014
-9.29202
-7.93897
-6.84365
-6.22989
-5.77389
-5.37673
-5.07918
-4.31243
-4.60773
-4.86053
-5.18175
-5.4888
-6.28501
-7.27749
-7.3891
-7.91638
-10.0968
-13.1225
-14.5834
-14.3674
-12.0432
-9.94951
-8.37532
-7.37612
-6.68224
-6.11579
-5.69102
-4.69443
-5.00773
-5.31758
-5.58856
-5.85467
-6.85439
-7.55676
-7.91635
-9.02501
-11.7792
-15.1586
-16.864
-16.88
-14.7029
-12.0043
-10.1603
-8.7095
-7.72552
-6.95967
-6.38671
-5.11031
-5.42061
-5.77842
-5.97619
-6.34336
-7.30876
-7.88296
-8.47843
-10.0025
-12.9737
-16.504
-18.4434
-18.6575
-16.8984
-14.2041
-11.9288
-10.1659
-8.87696
-7.89624
-7.16344
-5.56355
-5.87277
-6.27433
-6.4551
-6.9791
-7.75415
-8.35402
-9.13583
-10.8501
-13.7712
-17.2002
-19.3063
-19.7023
-18.4543
-16.1743
-13.5699
-11.6387
-10.1046
-8.89809
-8.00542
-6.07989
-6.43294
-6.83353
-7.07167
-7.72769
-8.37085
-9.03914
-9.91393
-11.5799
-14.2646
-17.4318
-19.5383
-20.0643
-19.2895
-17.577
-15.2177
-13.002
-11.3292
-9.94024
-8.89585
-6.70773
-7.10927
-7.51948
-7.96281
-8.6192
-9.27521
-9.94723
-10.771
-12.1732
-14.4876
-17.062
-19.0112
-19.6903
-19.1515
-17.8785
-16.1793
-14.2175
-12.4408
-10.9722
-9.80108
-7.5241
-7.95165
-8.4948
-9.07901
-9.74337
-10.3824
-10.9527
-11.5788
-12.5527
-14.2939
-16.2104
-17.9129
-18.7125
-18.3906
-17.4042
-16.0452
-14.598
-13.1631
-11.8572
-10.6656
-8.64992
-9.03639
-9.82094
-10.4735
-11.0437
-11.5059
-11.8516
-12.1777
-12.6678
-13.7124
-15.036
-16.3493
-17.1716
-16.9933
-16.3438
-15.263
-14.0952
-13.0438
-12.2276
-11.3828
-10.3019
-10.6085
-11.3654
-11.9363
-12.2453
-12.4194
-12.4692
-12.4616
-12.5123
-12.9091
-13.6355
-14.4652
-15.1732
-15.1588
-14.7505
-14.0206
-13.0562
-12.2701
-11.8962
-11.4374
-12.5323
-12.455
-12.7379
-13.0594
-13.0559
-12.9419
-12.7163
-12.3865
-12.0731
-11.9652
-12.1502
-12.5671
-13.0686
-13.2123
-13.0339
-12.6009
-11.9795
-11.3425
-11.0513
-10.9356
-14.4567
-13.7216
-13.3954
-13.466
-13.346
-12.9871
-12.4754
-11.9028
-11.3597
-10.9827
-10.873
-10.973
-11.2547
-11.5269
-11.6128
-11.5139
-11.2504
-10.8401
-10.5286
-10.3523
-15.3476
-14.2725
-13.4768
-13.1087
-12.7314
-12.2504
-11.6455
-10.9607
-10.3004
-9.78031
-9.49043
-9.40878
-9.48133
-9.7463
-10.0366
-10.2639
-10.3925
-10.4198
-10.4349
-10.4693
-10.4782
-9.24694
-9.5753
-9.96586
-10.2002
-9.74533
-9.0833
-8.30574
-7.52027
-6.78321
-6.10604
-5.4996
-4.96495
-4.49596
-4.08486
-3.73251
-3.42648
-3.15551
-2.89987
-2.66817
-10.7852
-9.1952
-9.57657
-9.55654
-9.47644
-9.04646
-8.44682
-7.78892
-7.10687
-6.45557
-5.85285
-5.31091
-4.83034
-4.40825
-4.03939
-3.72286
-3.45662
-3.22252
-2.99407
-2.78341
-11.1075
-9.44589
-9.59732
-9.25617
-8.92125
-8.46559
-7.89533
-7.31399
-6.7141
-6.13933
-5.60427
-5.11879
-4.68749
-4.30662
-3.97268
-3.68707
-3.44911
-3.2403
-3.03078
-2.83781
-11.2954
-9.90962
-9.84386
-9.10044
-8.49267
-7.95956
-7.38913
-6.85583
-6.32227
-5.81415
-5.34145
-4.90849
-4.52212
-4.17919
-3.87712
-3.6188
-3.4056
-3.21472
-3.01702
-2.84095
-11.3575
-10.3758
-10.1451
-8.95982
-8.10152
-7.49053
-6.91219
-6.40536
-5.921
-5.46832
-5.05214
-4.67268
-4.32952
-4.02294
-3.7511
-3.51756
-3.31983
-3.14736
-2.97873
-2.83168
-11.2754
-10.6755
-10.3579
-8.76173
-7.73022
-7.04123
-6.44728
-5.95095
-5.49984
-5.08937
-4.71949
-4.38738
-4.09189
-3.82593
-3.58547
-3.38086
-3.20694
-3.04953
-2.90058
-2.7787
-11.0091
-10.6686
-10.3061
-8.47781
-7.34417
-6.5925
-5.97882
-5.48359
-5.05328
-4.67266
-4.33654
-4.03869
-3.77921
-3.55476
-3.35274
-3.17121
-3.01654
-2.88689
-2.76736
-2.66324
-10.5788
-10.4371
-10.0656
-8.15009
-6.88842
-6.11145
-5.48835
-4.99332
-4.57742
-4.21877
-3.90841
-3.63834
-3.40377
-3.20059
-3.0257
-2.8778
-2.75422
-2.63434
-2.50826
-2.40575
-9.99339
-9.90213
-9.61452
-7.75597
-6.36324
-5.57571
-4.95864
-4.46966
-4.06766
-3.72782
-3.43838
-3.18968
-2.97506
-2.78964
-2.62934
-2.49058
-2.37585
-2.28722
-2.20118
-2.12154
-9.33483
-9.10303
-8.90606
-7.17058
-5.77042
-4.97823
-4.37696
-3.90247
-3.51823
-3.19816
-2.92921
-2.70075
-2.50509
-2.33701
-2.19266
-2.06868