/*--------------------------------*- C++ -*----------------------------------*\
  =========                 |
  \\      /  F ield         | OpenFOAM: The Open Source CFD Toolbox
   \\    /   O peration     | Website:  https://openfoam.org
    \\  /    A nd           | Version:  6
     \\/     M anipulation  |
\*---------------------------------------------------------------------------*/
FoamFile
{
    version     2.0;
    format      ascii;
    class       volScalarField;
    location    "1.64";
    object      nut;
}
// * * * * * * * * * * * * * * * * * * * * * * * * * * * * * * * * * * * * * //

dimensions      [0 2 -1 0 0 0 0];

internalField   nonuniform List<scalar> 
4214
(
0.00420936
0.00293977
0.00283436
0.00309126
0.00324133
0.00316952
0.00305424
0.00311209
0.0034858
0.00427928
0.00561372
0.00767112
0.0107798
0.0155611
0.0229909
0.0336402
0.0456753
0.0522578
0.0471312
0.0365701
0.0268974
0.0179949
0.0119659
0.00862352
0.00675336
0.00558224
0.00477202
0.00413268
0.00361703
0.00323453
0.00300743
0.00293401
0.00301604
0.00321087
0.0034245
0.00355211
0.00346192
0.00313516
0.00277953
0.00285741
0.00416728
0.0022629
0.00268167
0.00304975
0.003192
0.00311585
0.00296268
0.00291694
0.00312712
0.00369867
0.00473063
0.0063531
0.00876126
0.0123125
0.0176847
0.025898
0.0373089
0.0492958
0.053989
0.0468596
0.0360235
0.0262305
0.0177478
0.0122227
0.00915671
0.00742523
0.00630457
0.00546292
0.0047107
0.0040167
0.00342366
0.00297612
0.00268659
0.00260513
0.00267457
0.00284914
0.00305488
0.00317717
0.00313542
0.00289323
0.00250853
0.00216262
0.00280617
0.0030353
0.00310704
0.00303646
0.00288314
0.00277411
0.00285552
0.00324316
0.00403368
0.00532947
0.00726915
0.010059
0.0140903
0.0201067
0.0291435
0.0412158
0.0527386
0.0552356
0.0465581
0.0356141
0.0257312
0.0176723
0.0126351
0.0098797
0.00834662
0.00734172
0.0065226
0.00568507
0.00480753
0.00397436
0.00326344
0.00271086
0.00243895
0.00233135
0.0023953
0.00256801
0.00275308
0.00287166
0.00286944
0.00274356
0.0025251
0.00291075
0.00294744
0.00290465
0.00279049
0.00266331
0.00265057
0.00288574
0.00347074
0.00450461
0.00609255
0.00837931
0.0115807
0.0161281
0.0228414
0.032725
0.0453012
0.0559363
0.0561695
0.0462613
0.0353159
0.0254236
0.0177843
0.0132302
0.0108361
0.00957689
0.00876821
0.00803512
0.00714592
0.00607985
0.00496497
0.00392427
0.00303536
0.00254139
0.00221153
0.00212406
0.00220103
0.00236463
0.00253182
0.00262788
0.00263654
0.00258492
0.00274757
0.00273318
0.00266909
0.00256545
0.0024995
0.00260751
0.00301749
0.00382298
0.00512983
0.0070407
0.00970455
0.0133468
0.0184503
0.025911
0.0366434
0.0494845
0.0587887
0.0567385
0.0460954
0.0351672
0.0253436
0.0181277
0.0140678
0.0120931
0.011193
0.0106744
0.0101062
0.00921163
0.00795793
0.00651202
0.0050506
0.00371225
0.00294022
0.00231866
0.00204332
0.0019808
0.0020716
0.00223288
0.00236856
0.00243609
0.00245019
0.00253762
0.00252161
0.00246148
0.00238634
0.00240297
0.00265252
0.00326199
0.00431587
0.00592963
0.00819431
0.0112642
0.0153771
0.0210857
0.0293424
0.0408663
0.0536689
0.0612185
0.0570506
0.0461717
0.0352168
0.0255283
0.0187562
0.015218
0.0137334
0.0132939
0.0131777
0.0128726
0.0120365
0.0106064
0.00878126
0.00678964
0.00484575
0.00370228
0.00267436
0.0021633
0.00191906
0.00189724
0.00201246
0.00215614
0.00225351
0.00229127
0.00235589
0.00234584
0.00229327
0.00225796
0.00237981
0.0027939
0.003634
0.00496776
0.00692511
0.0095724
0.0130768
0.017693
0.0240551
0.0331456
0.0453434
0.0577446
0.0631599
0.0573528
0.0464982
0.035528
0.0260371
0.0197328
0.0167565
0.0158447
0.0159877
0.0164161
0.0165022
0.0158167
0.0142427
0.0120065
0.00936321
0.00661051
0.00494267
0.00332297
0.00250262
0.00201872
0.00184778
0.00188151
0.00200729
0.0021233
0.00217752
0.00221526
0.00220703
0.00216311
0.00218238
0.0024378
0.00304235
0.00415141
0.00579695
0.00813606
0.0111912
0.0151596
0.0203191
0.0273852
0.0373149
0.0499783
0.0615818
0.0646982
0.0578918
0.0471149
0.0361791
0.026934
0.0211251
0.0187647
0.0185132
0.019394
0.0205463
0.0212107
0.0208201
0.0191838
0.0165466
0.0131266
0.00930781
0.00686763
0.00435628
0.00310502
0.00228267
0.00192222
0.00184172
0.00192292
0.00204708
0.00212099
0.00210989
0.00209821
0.00206927
0.00216334
0.00258797
0.00340989
0.00483358
0.00681808
0.00957984
0.0130635
0.0175317
0.0232748
0.0310905
0.0418102
0.0546393
0.0650739
0.0660776
0.0588557
0.0481129
0.0372573
0.0282831
0.0230113
0.0213036
0.0218256
0.0236265
0.0257454
0.0272672
0.0274388
0.0259107
0.0229753
0.018676
0.0134802
0.00988663
0.00598281
0.00407904
0.00272412
0.00211633
0.00188719
0.00189805
0.00201524
0.00210946
0.00203007
0.0020122
0.00201407
0.00220616
0.00284415
0.00390654
0.00569887
0.00803843
0.0112694
0.0151986
0.0202119
0.026585
0.0351686
0.0465487
0.0591745
0.0681992
0.0676155
0.0602688
0.0496025
0.0388527
0.0301649
0.0254505
0.0244144
0.02584
0.0287811
0.0322021
0.0350145
0.0362139
0.0351015
0.0321425
0.0269636
0.0200596
0.0147871
0.00866696
0.00569761
0.00340115
0.00243898
0.00200768
0.00192443
0.00201708
0.00212622
0.00196679
0.00194421
0.00200473
0.00231524
0.00322143
0.00453489
0.00676172
0.00945383
0.0132163
0.0176048
0.0232236
0.0302639
0.039582
0.0514043
0.0634692
0.0709962
0.0695062
0.0622396
0.0517136
0.0410685
0.0326721
0.0284665
0.0281088
0.0305614
0.0348975
0.0400521
0.0447853
0.0478401
0.0476034
0.0450903
0.039248
0.0304405
0.0229126
0.0133317
0.00857457
0.00449129
0.00295183
0.00219933
0.00199263
0.00204301
0.00215707
0.0019135
0.0018927
0.00205202
0.0024899
0.00373319
0.00528302
0.00803098
0.0110459
0.0154334
0.0202915
0.0265902
0.034307
0.0442476
0.056221
0.0674763
0.0736413
0.0718873
0.0649017
0.0545996
0.0440431
0.0358746
0.0320373
0.0323426
0.0358853
0.0418138
0.0490873
0.0563669
0.0622854
0.063845
0.0627171
0.0567992
0.0462825
0.0361513
0.0215252
0.0139073
0.00641929
0.00384903
0.00248466
0.00209992
0.00208497
0.0021927
0.00186733
0.0018588
0.00216726
0.00271937
0.00438658
0.00611721
0.00951005
0.0127817
0.0179407
0.0232662
0.0303251
0.0386795
0.0490453
0.0608714
0.0709687
0.076559
0.0749332
0.0683802
0.0584309
0.0478996
0.0397504
0.0360745
0.036935
0.0414462
0.0488383
0.0584627
0.0689342
0.0794381
0.083479
0.0849372
0.0800006
0.0687046
0.0563819
0.0352987
0.0235991
0.0100096
0.00558771
0.00293861
0.00226161
0.00213774
0.00222364
0.00183096
0.00184485
0.00235821
0.00297916
0.0051755
0.00697694
0.0111959
0.014613
0.0207662
0.0265291
0.0344159
0.0432891
0.0538334
0.0649801
0.074325
0.0799006
0.0787658
0.0729019
0.0633703
0.0527582
0.0442828
0.0403289
0.0414094
0.0464926
0.0548978
0.0669329
0.0807576
0.0970485
0.104106
0.109366
0.10683
0.0967375
0.0840169
0.056509
0.0398456
0.0166002
0.00905868
0.00371502
0.00252048
0.0022029
0.00224451
0.00181405
0.00185309
0.00262491
0.00323443
0.00607235
0.00777962
0.0130747
0.0164732
0.0239349
0.0300555
0.0388139
0.0480509
0.0581923
0.0687506
0.0776146
0.0835462
0.0832982
0.0786462
0.0699528
0.0593004
0.0500164
0.0448125
0.0453361
0.050475
0.0599877
0.0750317
0.0908685
0.110967
0.12214
0.131216
0.132426
0.126257
0.115443
0.0852992
0.0640396
0.0277864
0.0156811
0.00505724
0.00295665
0.00229032
0.00226
0.00183226
0.00188628
0.00295866
0.00345634
0.00702316
0.00844305
0.0151161
0.0182714
0.0274645
0.033785
0.0434176
0.0526782
0.0623576
0.0725258
0.0808269
0.0872249
0.0881821
0.0848986
0.0779192
0.0680337
0.0581897
0.0512604
0.0495642
0.055792
0.0655166
0.0824461
0.0985938
0.119712
0.13509
0.148309
0.153961
0.152297
0.145019
0.116277
0.0940308
0.0441223
0.0270202
0.00715235
0.00368886
0.00241073
0.00228725
0.00190412
0.00195006
0.00335186
0.00365045
0.00796105
0.00892413
0.0172545
0.0199032
0.0313705
0.0376053
0.0479906
0.0574043
0.066332
0.0765919
0.0842737
0.0918534
0.0943609
0.0930224
0.0874836
0.0779456
0.0698737
0.059563
0.0579094
0.0575613
0.0697442
0.0876754
0.102809
0.125866
0.141817
0.160776
0.169219
0.173418
0.16999
0.14406
0.126234
0.0612444
0.0438918
0.00891536
0.00482237
0.00252389
0.00234592
0.00243656
0.00242415
0.0024134
0.00239059
0.0023537
0.00230471
0.00224976
0.00219803
0.00215961
0.00215441
0.00220382
0.0023189
0.00246525
0.00251616
0.00226061
0.00212847
0.00898791
0.00247985
0.00248508
0.00247636
0.00245226
0.0024135
0.00236287
0.00230562
0.00224786
0.002198
0.00216821
0.00217636
0.00223688
0.00232682
0.00235382
0.00213223
0.00204967
0.00919045
0.00252022
0.00251096
0.00249273
0.00246524
0.00242774
0.00238134
0.00232835
0.00227261
0.00222073
0.00218244
0.00217059
0.00219753
0.00225084
0.00226093
0.00207001
0.0020495
0.00930258
0.00251784
0.00250808
0.00249084
0.0024662
0.00243359
0.00239337
0.00234696
0.00229708
0.00224809
0.002207
0.00218439
0.00219124
0.00222249
0.0022257
0.00206592
0.00212081
0.00938414
0.00250511
0.00249464
0.00247959
0.00245941
0.00243314
0.00240049
0.00236211
0.00231947
0.00227564
0.00223612
0.00220938
0.00220533
0.00222361
0.00222613
0.00210451
0.00225919
0.00944146
0.00250034
0.00248975
0.00247592
0.00245836
0.00243615
0.00240888
0.00237673
0.00234045
0.00230202
0.0022656
0.00223825
0.00222919
0.00224128
0.00224743
0.00216718
0.0024432
0.0094786
0.00248587
0.00247787
0.0024672
0.00245344
0.00243575
0.00241368
0.00238719
0.0023566
0.00232326
0.00229056
0.00226478
0.00225479
0.00226558
0.00227835
0.00223772
0.00264065
0.00948866
0.00248097
0.00247275
0.00246273
0.00245047
0.00243514
0.00241621
0.00239347
0.00236698
0.00233776
0.00230879
0.00228585
0.00227758
0.00229028
0.00231103
0.00230486
0.00281812
0.00944733
0.00246827
0.00246245
0.00245472
0.00244478
0.00243196
0.00241575
0.00239595
0.00237256
0.0023466
0.00232096
0.00230121
0.00229581
0.00231202
0.00234125
0.00236392
0.00295707
0.00933033
0.00246295
0.00245646
0.00244879
0.00243948
0.00242771
0.00241294
0.00239487
0.00237358
0.00235016
0.00232752
0.00231109
0.00230916
0.00232946
0.00236688
0.00241399
0.0030555
0.00913219
0.00245079
0.00244614
0.00243989
0.00243171
0.00242096
0.0024072
0.00239029
0.00237054
0.00234929
0.00232951
0.00231651
0.00231838
0.002343
0.00238798
0.00245679
0.00312189
0.00886189
0.00244483
0.00243892
0.00243207
0.00242363
0.00241279
0.00239915
0.00238276
0.00236419
0.00234496
0.00232809
0.00231874
0.00232473
0.00235399
0.00240648
0.00249618
0.00316738
0.00854123
0.00243238
0.00242789
0.00242164
0.00241329
0.00240229
0.00238861
0.00237266
0.0023553
0.00233824
0.0023245
0.00231915
0.00232973
0.00236427
0.00242493
0.00253724
0.00320452
0.00819029
0.00242573
0.00241931
0.00241171
0.00240223
0.00239039
0.00237639
0.00236089
0.00234494
0.00233032
0.00232007
0.00231922
0.00233513
0.00237616
0.00244707
0.00258602
0.00324136
0.00782493
0.00241282
0.0024073
0.00239947
0.00238927
0.00237686
0.00236289
0.00234827
0.00233415
0.00232241
0.00231618
0.00232055
0.00234298
0.00239249
0.00247737
0.00264747
0.00328698
0.0074548
0.00240539
0.00239716
0.00238734
0.00237578
0.00236281
0.00234922
0.00233591
0.00232409
0.00231577
0.00231428
0.00232492
0.00235566
0.00241668
0.00252066
0.00272766
0.00335194
0.00708472
0.00239219
0.00238417
0.00237363
0.00236152
0.00234874
0.00233619
0.0023248
0.00231588
0.00231171
0.00231594
0.00233448
0.00237601
0.00245254
0.00258178
0.00283109
0.00344387
0.00671748
0.00238377
0.00237258
0.00236038
0.00234791
0.00233583
0.00232486
0.00231593
0.00231059
0.0023115
0.00232289
0.00235152
0.00240714
0.00250395
0.00266463
0.00295886
0.00356303
0.00635555
0.00237066
0.00235938
0.00234718
0.00233539
0.00232473
0.00231591
0.00231008
0.00230918
0.00231644
0.00233696
0.00237843
0.00245202
0.00257409
0.00277108
0.00310783
0.00370026
0.00599731
0.0023614
0.00234783
0.00233562
0.00232494
0.00231612
0.00230991
0.0023079
0.00231255
0.00232784
0.00235982
0.00241729
0.00251285
0.00266437
0.00289902
0.00326932
0.00383561
0.00564471
0.00234933
0.00233667
0.00232582
0.00231678
0.00231018
0.00230722
0.00230995
0.00232153
0.00234682
0.00239284
0.00246952
0.00259052
0.00277361
0.00304261
0.00342904
0.0039433
0.00529502
0.00234049
0.00232777
0.00231829
0.00231109
0.00230711
0.00230809
0.00231665
0.00233672
0.00237407
0.00243667
0.00253532
0.00268376
0.00289728
0.0031918
0.003572
0.00400786
0.00495579
0.00233125
0.00232066
0.0023129
0.00230773
0.00230687
0.0023126
0.00232817
0.00235832
0.00240967
0.00249098
0.0026133
0.00278895
0.00302817
0.00333449
0.00368481
0.00402243
0.00463145
0.00232483
0.00231561
0.00230937
0.00230651
0.0023093
0.00232061
0.00234432
0.00238594
0.00245277
0.00255388
0.00269965
0.00289939
0.00315613
0.00345793
0.00375551
0.00396933
0.00432907
0.00231982
0.00231215
0.00230742
0.00230714
0.00231407
0.00233164
0.00236435
0.00241845
0.00250152
0.00262213
0.0027887
0.0030059
0.00326846
0.00355031
0.00378728
0.003894
0.00406641
0.00231665
0.00230981
0.00230672
0.00230929
0.00232067
0.00234482
0.00238665
0.00245272
0.00255062
0.00268815
0.0028714
0.00310067
0.00336364
0.00362442
0.00381085
0.00383774
0.00385606
0.00231424
0.00230817
0.0023066
0.00231191
0.00232754
0.00235784
0.0024081
0.00248509
0.00259611
0.00274793
0.00294441
0.00318213
0.00344342
0.00368593
0.00383358
0.00380201
0.00370319
0.00231222
0.00230671
0.00230649
0.00231416
0.00233349
0.00236912
0.00242662
0.00251277
0.00263451
0.00279766
0.00300429
0.00324832
0.0035087
0.0037397
0.00386364
0.00379556
0.00361394
0.00231045
0.00230525
0.0023059
0.00231532
0.00233743
0.00237709
0.00244001
0.00253289
0.00266235
0.00283353
0.00304754
0.00329712
0.00356
0.00378967
0.00390811
0.0038272
0.00359581
0.00230872
0.00230343
0.00230443
0.00231472
0.00233835
0.00238026
0.00244617
0.00254267
0.00267615
0.00285158
0.00307015
0.00332518
0.00359571
0.00383699
0.00397141
0.00390444
0.00365764
0.00230693
0.00230117
0.00230179
0.00231188
0.00233547
0.00237741
0.00244332
0.00253957
0.00267251
0.00284751
0.00306698
0.00332683
0.00361031
0.00387767
0.00405307
0.00403193
0.00380914
0.00230503
0.00229831
0.00229783
0.00230654
0.00232831
0.00236777
0.00243019
0.00252162
0.00264847
0.00281693
0.00303168
0.00329317
0.00359236
0.00389935
0.00414416
0.0042098
0.00406037
0.00230303
0.00229498
0.0022926
0.0022987
0.00231678
0.00235106
0.00240633
0.002488
0.00260243
0.0027567
0.00295833
0.00321408
0.00352577
0.0038796
0.00422239
0.00443122
0.00442121
0.00230097
0.00229128
0.0022864
0.00228869
0.00230112
0.00232731
0.0023716
0.00243898
0.00253532
0.00266766
0.0028455
0.00308223
0.00339292
0.00378756
0.00424741
0.00466803
0.0049007
0.00229888
0.00228759
0.00228007
0.00227812
0.00228395
0.0023002
0.0023302
0.00237872
0.00245157
0.00255643
0.00270213
0.00290345
0.00318965
0.00359837
0.00416663
0.00486519
0.00550647
0.00229646
0.00228386
0.00227414
0.00226864
0.00226887
0.00227674
0.00229486
0.00232591
0.00237395
0.00244542
0.00255121
0.00270542
0.00294117
0.0033179
0.00393865
0.00493504
0.00624418
0.00229345
0.00227984
0.00226845
0.0022603
0.0022565
0.00225851
0.00226751
0.00228515
0.00231393
0.00235819
0.00242598
0.00253182
0.00270391
0.0030043
0.00357861
0.00477626
0.00711697
0.00228945
0.00227515
0.00226265
0.00225272
0.00224658
0.00224497
0.0022487
0.00225877
0.00227666
0.002305
0.00234889
0.00241886
0.00253478
0.00274463
0.00318683
0.004349
0.00812508
0.00228376
0.0022689
0.00225564
0.00224492
0.00223775
0.00223488
0.00223715
0.00224549
0.00226113
0.00228584
0.00232274
0.00237818
0.0024609
0.00259873
0.00288649
0.00377021
0.00926558
0.00227698
0.00226094
0.00224692
0.00223595
0.0022288
0.00222653
0.00223035
0.00224171
0.00226233
0.00229415
0.00233955
0.00239888
0.00247526
0.00257903
0.00275091
0.00324884
0.0105321
0.00255356
0.00258197
0.0026078
0.00263045
0.00265029
0.00266715
0.00268103
0.00269173
0.00269925
0.00270355
0.00270461
0.00270239
0.00269688
0.00268808
0.00267594
0.00266044
0.00264157
0.00261946
0.00259438
0.0025661
0.0025247
0.00248838
0.00245779
0.00242918
0.00240284
0.00237919
0.00235834
0.00234043
0.00232538
0.00231292
0.00230281
0.00229452
0.00228789
0.0022823
0.00227753
0.00227311
0.00226901
0.0022656
0.0022642
0.0022667
0.00227316
0.00259135
0.00262205
0.00264894
0.00267248
0.00269293
0.00271018
0.00272408
0.00273451
0.00274142
0.00274478
0.00274459
0.00274082
0.00273349
0.00272261
0.00270819
0.00269025
0.00266886
0.00264423
0.00261668
0.00258623
0.00254304
0.00250461
0.00247172
0.00244078
0.00241214
0.00238622
0.00236321
0.00234322
0.00232622
0.00231191
0.00230013
0.00229032
0.00228233
0.00227547
0.00226954
0.00226395
0.00225864
0.0022538
0.00225081
0.00225187
0.00225767
0.0026268
0.00265938
0.00268751
0.00271222
0.00273362
0.00275151
0.00276568
0.00277603
0.0027825
0.00278508
0.00278377
0.00277858
0.00276955
0.00275673
0.00274019
0.00271999
0.00269629
0.00266935
0.00263955
0.00260708
0.00256249
0.00252221
0.0024872
0.00245409
0.00242329
0.00239522
0.00237012
0.00234812
0.00232917
0.0023131
0.00229961
0.00228836
0.00227895
0.00227094
0.00226386
0.00225726
0.0022508
0.00224458
0.00223974
0.00223882
0.00224335
0.00265933
0.00269348
0.00272319
0.00274945
0.00277211
0.0027909
0.00280559
0.00281608
0.0028223
0.00282429
0.00282204
0.00281561
0.00280506
0.0027905
0.00277204
0.00274981
0.00272403
0.00269502
0.00266321
0.00262891
0.00258325
0.00254139
0.00250447
0.00246937
0.00243657
0.0024065
0.00237942
0.00235549
0.00233469
0.00231687
0.00230178
0.00228907
0.00227837
0.00226923
0.00226119
0.00225374
0.00224639
0.00223893
0.00223212
0.00222859
0.0022314
0.00268851
0.00272426
0.00275599
0.00278413
0.00280834
0.00282827
0.00284371
0.00285455
0.00286076
0.00286236
0.0028594
0.00285193
0.0028401
0.00282402
0.00280388
0.00277987
0.00275228
0.00272145
0.00268787
0.00265193
0.00260556
0.00256237
0.00252377
0.00248691
0.0024523
0.00242038
0.00239147
0.00236574
0.0023432
0.00232373
0.0023071
0.00229303
0.00228113
0.00227099
0.00226215
0.0022541
0.00224622
0.00223795
0.00222941
0.00222279
0.00222288
0.00271413
0.00275198
0.00278616
0.00281643
0.00284238
0.00286367
0.00288006
0.00289148
0.00289788
0.00289933
0.00289588
0.00288764
0.00287477
0.00285745
0.00283591
0.0028104
0.00278127
0.0027489
0.00271381
0.00267644
0.00262967
0.00258545
0.00254541
0.00250703
0.00247084
0.0024373
0.00240674
0.00237937
0.00235523
0.00233423
0.0023162
0.00230087
0.0022879
0.0022769
0.00226745
0.00225907
0.0022511
0.00224274
0.00223329
0.00222368
0.00221946
0.00273631
0.00277712
0.00281405
0.00284663
0.00287447
0.00289727
0.00291478
0.00292696
0.00293377
0.00293529
0.00293161
0.00292286
0.00290924
0.00289098
0.00286834
0.00284165
0.00281128
0.00277767
0.00274134
0.00270281
0.00265591
0.00261097
0.00256978
0.00253015
0.00249264
0.00245771
0.00242573
0.00239693
0.00237137
0.00234903
0.00232976
0.00231333
0.00229944
0.00228777
0.00227792
0.00226946
0.00226184
0.0022542
0.00224522
0.00223394
0.00222402
0.00275745
0.00280036
0.00284018
0.00287516
0.00290497
0.00292935
0.0029481
0.00296118
0.00296858
0.00297039
0.00296673
0.00295775
0.00294369
0.00292481
0.00290142
0.00287388
0.00284261
0.00280808
0.00277084
0.00273144
0.00268469
0.00263936
0.00259734
0.00255678
0.00251824
0.00248221
0.00244908
0.0024191
0.00239237
0.0023689
0.00234859
0.00233127
0.00231669
0.00230454
0.00229451
0.00228624
0.00227931
0.00227303
0.00226604
0.00225583
0.00224097
0.00277894
0.00282315
0.00286518
0.00290255
0.00293433
0.00296031
0.00298035
0.00299441
0.00300253
0.00300482
0.00300142
0.0029925
0.00297833
0.00295918
0.00293542
0.00290742
0.00287562
0.00284054
0.00280275
0.00276281
0.00271652
0.00267118
0.00262868
0.00258753
0.00254831
0.00251152
0.00247756
0.0024467
0.00241908
0.00239476
0.0023737
0.00235575
0.00234072
0.00232837
0.00231842
0.0023106
0.00230459
0.0023
0.00229593
0.0022899
0.00227526
0.00280113
0.00284717
0.00289013
0.00292953
0.00296316
0.00299066
0.00301193
0.00302699
0.00303591
0.00303883
0.00303591
0.00302734
0.00301339
0.00299437
0.00297063
0.00294259
0.00291071
0.00287552
0.00283759
0.00279754
0.00275205
0.00270711
0.00266455
0.00262322
0.00258372
0.00254655
0.00251214
0.00248076
0.00245261
0.00242778
0.00240628
0.00238802
0.00237287
0.00236063
0.00235108
0.00234402
0.00233921
0.00233643
0.00233535
0.00233487
0.00232886
0.00282537
0.00287281
0.00291709
0.00295696
0.0029922
0.00302101
0.00304338
0.00305936
0.00306909
0.00307272
0.00307047
0.00306251
0.00304914
0.00303065
0.00300741
0.00297982
0.00294836
0.00291356
0.00287601
0.00283635
0.00279209
0.00274803
0.00270591
0.0026649
0.00262559
0.00258851
0.0025541
0.00252264
0.00249437
0.00246944
0.0024479
0.00242971
0.0024148
0.00240304
0.00239427
0.00238833
0.00238507
0.00238432
0.00238605
0.00239013
0.00239607
0.00285342
0.00290162
0.00294663
0.00298708
0.00302233
0.00305217
0.00307534
0.00309205
0.00310249
0.00310686
0.00310541
0.00309832
0.00308587
0.00306836
0.00304613
0.00301957
0.00298913
0.00295536
0.00291883
0.00288018
0.0028377
0.00279513
0.00275406
0.00271396
0.00267543
0.00263901
0.00260514
0.00257413
0.00254626
0.00252172
0.00250059
0.00248292
0.00246869
0.00245782
0.00245023
0.00244582
0.00244447
0.00244616
0.00245091
0.0024587
0.00246911
0.00288772
0.00293568
0.00298053
0.00302075
0.00305572
0.00308508
0.00310866
0.00312575
0.00313667
0.00314171
0.00314112
0.00313511
0.00312395
0.0031079
0.00308726
0.00306239
0.00303373
0.00300175
0.00296705
0.00293024
0.00289026
0.00284995
0.00281071
0.0027723
0.00273531
0.00270027
0.00266763
0.00263774
0.0026109
0.00258732
0.00256718
0.00255054
0.00253746
0.00252794
0.00252192
0.00251939
0.00252031
0.00252479
0.0025329
0.00254417
0.00255795
0.00293171
0.00297792
0.00302125
0.00305999
0.00309362
0.00312179
0.00314439
0.00316133
0.00317235
0.00317784
0.00317809
0.00317334
0.00316381
0.00314974
0.00313137
0.003109
0.003083
0.00305383
0.003022
0.0029881
0.00295162
0.0029146
0.00287826
0.00284258
0.00280813
0.00277544
0.00274495
0.00271703
0.00269202
0.00267016
0.00265166
0.00263666
0.00262526
0.0026175
0.00261342
0.00261304
0.0026164
0.00262384
0.00263459
0.00264834
0.00266552
0.00299048
0.00303258
0.00307232
0.0031077
0.00313832
0.00316392
0.00318443
0.00319996
0.00321046
0.00321601
0.00321696
0.00321356
0.00320601
0.00319448
0.00317916
0.00316025
0.00313807
0.00311297
0.00308541
0.00305589
0.0030243
0.00299203
0.00296008
0.0029286
0.00289811
0.00286912
0.00284206
0.00281731
0.00279521
0.00277604
0.00276002
0.00274735
0.00273816
0.00273255
0.0027306
0.00273238
0.00273813
0.00274731
0.00275977
0.00277525
0.00279465
0.00307171
0.00310602
0.00313891
0.00316803
0.0031931
0.00321402
0.00323076
0.00324343
0.00325226
0.00325721
0.00325854
0.0032565
0.00325124
0.00324287
0.00323149
0.00321725
0.00320034
0.00318102
0.00315962
0.00313654
0.00311187
0.00308648
0.00306112
0.003036
0.00301159
0.00298832
0.00296658
0.00294673
0.00292909
0.00291394
0.0029015
0.00289198
0.00288553
0.00288228
0.00288235
0.00288579
0.00289244
0.00290214
0.00291469
0.00292983
0.0029491
0.00318743
0.00320808
0.00322889
0.00324717
0.00326281
0.00327578
0.00328615
0.00329401
0.00329951
0.00330281
0.00330395
0.00330311
0.0033004
0.00329585
0.00328951
0.00328143
0.0032717
0.00326045
0.00324786
0.00323415
0.00321945
0.00320419
0.00318878
0.00317342
0.00315842
0.00314408
0.00313066
0.00311844
0.00310764
0.00309847
0.00309112
0.00308574
0.00308246
0.0030814
0.00308257
0.00308595
0.00309145
0.00309897
0.00310833
0.00311929
0.00313408
0.00874797
0.00209091
0.00245497
0.00280294
0.002735
0.00253494
0.00234427
0.00219857
0.00209617
0.00202662
0.00197969
0.00194758
0.00192467
0.00190713
0.00189266
0.00188029
0.00186943
0.00881965
0.00200211
0.00230501
0.0025753
0.00251159
0.00235192
0.00220307
0.0020922
0.00201759
0.00197043
0.001942
0.00192521
0.00191431
0.00190481
0.0018941
0.00188266
0.00187089
0.00880731
0.00195618
0.00218895
0.00240045
0.00234128
0.00221054
0.00209248
0.00200766
0.00195365
0.0019228
0.00190793
0.00190338
0.00190425
0.00190573
0.00190338
0.00189434
0.00187941
0.00877509
0.00195727
0.00211314
0.00227778
0.0022197
0.0021083
0.00201245
0.00194712
0.00190856
0.00188943
0.00188363
0.00188712
0.00189715
0.00191155
0.00192817
0.00194471
0.00195935
0.00873841
0.00201582
0.00207938
0.00220039
0.00213816
0.00203857
0.00195831
0.00190742
0.00188068
0.00187064
0.0018715
0.00187961
0.00189276
0.00190941
0.00192827
0.00194779
0.00196597
0.00871622
0.00213872
0.00208353
0.00215815
0.00208771
0.0019948
0.00192493
0.00188368
0.00186457
0.00186018
0.00186498
0.00187559
0.00189008
0.00190715
0.00192587
0.00194558
0.001965
0.00871672
0.00232089
0.00211593
0.00214032
0.00206014
0.00197126
0.0019086
0.00187373
0.00185915
0.00185757
0.00186379
0.00187467
0.00188846
0.00190402
0.00192043
0.00193706
0.0019537
0.00872876
0.00254105
0.00216454
0.00213807
0.00204862
0.00196245
0.00190497
0.00187437
0.00186239
0.00186196
0.00186821
0.00187834
0.00189086
0.00190504
0.00192042
0.00193647
0.00195259
0.00872259
0.00276335
0.00221836
0.00214559
0.00204821
0.00196389
0.00191002
0.00188211
0.00187143
0.00187115
0.00187677
0.00188573
0.00189667
0.00190893
0.00192231
0.00193685
0.00195243
0.00866436
0.00295078
0.00227007
0.00215948
0.00205563
0.00197248
0.00192096
0.00189457
0.00188417
0.00188322
0.00188755
0.00189488
0.00190397
0.00191416
0.00192506
0.00193652
0.00194849
0.00853176
0.0030833
0.00231702
0.00217766
0.00206859
0.001986
0.00193582
0.00191016
0.00189958
0.0018976
0.00190028
0.00190555
0.00191241
0.00192043
0.00192934
0.00193895
0.0019492
0.00832339
0.00316516
0.00236072
0.00219908
0.00208549
0.00200283
0.0019531
0.0019276
0.00191673
0.00191402
0.00191554
0.00191926
0.00192428
0.00193026
0.00193703
0.00194444
0.00195222
0.00805541
0.0032154
0.00240576
0.00222408
0.00210575
0.00202213
0.00197188
0.00194581
0.00193435
0.00193093
0.00193158
0.0019342
0.00193795
0.00194262
0.00194822
0.00195482
0.00196232
0.00774843
0.00325283
0.00245757
0.0022546
0.00212985
0.00204396
0.00199214
0.00196471
0.00195218
0.00194787
0.00194769
0.00194928
0.0019516
0.00195441
0.00195785
0.00196221
0.00196785
0.0074191
0.00329477
0.00252273
0.00229397
0.0021593
0.00206907
0.00201433
0.0019846
0.00197044
0.00196506
0.00196425
0.0019654
0.00196708
0.00196877
0.00197041
0.00197212
0.0019738
0.00707909
0.00335552
0.00260835
0.00234696
0.0021969
0.00209911
0.00203945
0.00200613
0.00198939
0.00198234
0.00198061
0.00198143
0.00198307
0.00198473
0.0019863
0.00198818
0.00199091
0.00673398
0.00344476
0.00272028
0.00241894
0.00224639
0.00213649
0.00206911
0.00203045
0.00200992
0.00200033
0.00199697
0.00199693
0.00199819
0.00199946
0.00200012
0.00200044
0.00200166
0.00638587
0.00356129
0.00286102
0.00251474
0.00231224
0.00218446
0.00210551
0.00205909
0.00203326
0.00202005
0.00201438
0.00201299
0.00201371
0.0020149
0.00201521
0.00201373
0.0020104
0.00603708
0.00369329
0.00302641
0.0026373
0.00239883
0.0022468
0.00215149
0.00209397
0.00206069
0.00204248
0.00203346
0.00202997
0.00202963
0.00203078
0.00203193
0.00203172
0.00202976
0.00569014
0.00382697
0.00320544
0.00278548
0.00250891
0.00232705
0.00221011
0.00213747
0.00209388
0.00206874
0.00205508
0.00204846
0.00204608
0.00204609
0.00204699
0.00204701
0.00204512
0.00534856
0.00393775
0.00338544
0.00295323
0.00264214
0.00242726
0.002284
0.00219192
0.00213466
0.00210021
0.00208029
0.00206948
0.00206424
0.00206238
0.00206231
0.00206185
0.00205704
0.00501777
0.00400653
0.00354933
0.00312936
0.00279389
0.00254686
0.00237439
0.00225908
0.00218468
0.00213816
0.00211
0.00209366
0.00208467
0.00208034
0.00207897
0.0020789
0.00207596
0.00470298
0.00402257
0.00368032
0.00329858
0.00295449
0.00268122
0.0024798
0.00233909
0.00224472
0.00218351
0.00214501
0.00212156
0.00210773
0.00210017
0.00209646
0.00209508
0.00209359
0.00440909
0.00398032
0.00376603
0.0034456
0.0031114
0.00282215
0.00259578
0.00242995
0.0023142
0.00223637
0.00218569
0.00215366
0.00213393
0.00212229
0.00211554
0.00211212
0.0021096
0.00414921
0.00391554
0.00381442
0.00356215
0.00325153
0.0029578
0.00271357
0.00252604
0.00238987
0.00229508
0.00223132
0.00218971
0.00216323
0.00214683
0.00213691
0.00213134
0.00212701
0.00393784
0.0038616
0.00384962
0.00365658
0.00337209
0.00308008
0.00282399
0.00261918
0.00246535
0.00235505
0.00227882
0.00222774
0.00219433
0.00217297
0.00215961
0.00215138
0.00214547
0.0037808
0.00382792
0.00388077
0.003733
0.0034714
0.00318377
0.00292052
0.00270314
0.00253546
0.00241237
0.00232545
0.00226598
0.00222626
0.00220027
0.0021835
0.00217245
0.00216495
0.00368507
0.00382349
0.0039169
0.00379652
0.00354945
0.00326512
0.00299768
0.00277219
0.00259512
0.002463
0.00236821
0.00230233
0.00225761
0.00222786
0.00220823
0.00219521
0.00218596
0.00365887
0.0038566
0.00396551
0.00385125
0.00360629
0.00332117
0.00305095
0.0028215
0.00263994
0.00250333
0.00240438
0.00233486
0.00228707
0.0022548
0.0022331
0.00221843
0.00220755
0.00371163
0.00393709
0.00403204
0.00389855
0.00364034
0.00334869
0.00307655
0.00284743
0.0026668
0.00253087
0.00243211
0.00236229
0.00231386
0.00228073
0.00225802
0.00224189
0.00222994
0.00385363
0.00407116
0.00411566
0.00393402
0.00364644
0.0033433
0.00307129
0.0028478
0.00267422
0.00254465
0.00245077
0.00238422
0.00233777
0.00230559
0.00228305
0.00226661
0.00225395
0.0040956
0.00425825
0.00420547
0.00394483
0.00361511
0.00329995
0.00303345
0.00282277
0.00266317
0.00254581
0.00246138
0.0024015
0.00235944
0.00232981
0.00230836
0.00229218
0.00227865
0.00444809
0.00448658
0.00427683
0.00390977
0.00353498
0.00321577
0.00296509
0.00277639
0.00263794
0.0025381
0.00246687
0.00241637
0.0023805
0.00235449
0.00233478
0.00231872
0.00230454
0.00492084
0.00472491
0.00428927
0.00380461
0.00339992
0.00309534
0.00287489
0.00271773
0.0026064
0.00252767
0.0024719
0.00243214
0.00240318
0.00238114
0.0023633
0.00234752
0.00233278
0.00552217
0.00491557
0.00419555
0.00361794
0.0032202
0.00295581
0.0027796
0.00266063
0.00257906
0.00252224
0.00248198
0.00245253
0.00242989
0.00241127
0.00239471
0.00237915
0.00236371
0.00625829
0.0049712
0.00396887
0.00337097
0.00302814
0.0028256
0.00270064
0.00262022
0.00256648
0.00252913
0.00250184
0.00248053
0.0024625
0.00244603
0.00243041
0.00241474
0.00239778
0.00713257
0.00480192
0.00364105
0.00312038
0.00286788
0.00273364
0.00265614
0.00260804
0.00257586
0.00255248
0.00253384
0.00251741
0.00250167
0.00248651
0.00247053
0.00245233
0.00243176
0.00814505
0.00438898
0.00330379
0.00293003
0.00277326
0.00269682
0.00265427
0.00262733
0.0026079
0.00259194
0.00257719
0.00256225
0.00254728
0.00253043
0.00251087
0.00248889
0.00246449
0.00929207
0.00384651
0.00305429
0.00283714
0.00275461
0.00271441
0.00269016
0.00267251
0.00265754