/*--------------------------------*- C++ -*----------------------------------*\
  =========                 |
  \\      /  F ield         | OpenFOAM: The Open Source CFD Toolbox
   \\    /   O peration     | Website:  https://openfoam.org
    \\  /    A nd           | Version:  6
     \\/     M anipulation  |
\*---------------------------------------------------------------------------*/
FoamFile
{
    version     2.0;
    format      ascii;
    class       volScalarField;
    location    "2.57";
    object      rho;
}
// * * * * * * * * * * * * * * * * * * * * * * * * * * * * * * * * * * * * * //

dimensions      [1 -3 0 0 0 0 0];

internalField   nonuniform List<scalar> 
5625
(
1.4
1.4
1.4
1.4
1.4
1.4
1.4
1.4
1.4
1.4
1.4
1.4
1.4
1.4
1.4
1.4
1.4
1.40001
1.40001
1.40001
1.40001
1.40001
1.40001
1.40001
1.40001
1.40001
1.40001
1.40001
1.40001
1.40001
1.40001
1.40001
1.40001
1.40001
1.40001
1.40001
1.40001
1.40001
1.40001
1.40001
1.40001
1.40001
1.40001
1.40001
1.40001
1.40001
1.40001
1.40001
1.40001
1.40001
1.40001
1.40001
1.40001
1.40001
1.40001
1.40001
1.40001
1.40001
1.40001
1.40001
1.40001
1.40001
1.40001
1.40001
1.40001
1.40001
1.40001
1.40001
1.40001
1.40001
1.40001
1.40001
1.40001
1.40001
1.40001
1.4
1.4
1.4
1.4
1.4
1.4
1.4
1.4
1.4
1.4
1.4
1.4
1.4
1.4
1.4
1.4
1.4
1.40001
1.40001
1.40001
1.40001
1.40001
1.40001
1.40001
1.40001
1.40001
1.40001
1.40001
1.40001
1.40001
1.40001
1.40001
1.40001
1.40001
1.40001
1.40001
1.40001
1.40001
1.40001
1.40001
1.40001
1.40001
1.40001
1.40001
1.40001
1.40001
1.40001
1.40001
1.40001
1.40001
1.40001
1.40001
1.40001
1.40001
1.40001
1.40001
1.40001
1.40001
1.40001
1.40001
1.40001
1.40001
1.40001
1.40001
1.40001
1.40001
1.40001
1.40001
1.40001
1.40001
1.40001
1.40001
1.40001
1.40001
1.40001
1.4
1.4
1.4
1.4
1.4
1.4
1.4
1.4
1.4
1.4
1.4
1.4
1.4
1.4
1.4
1.4
1.4
1.40001
1.40001
1.40001
1.40001
1.40001
1.40001
1.40001
1.40001
1.40001
1.40001
1.40001
1.40001
1.40001
1.40001
1.40001
1.40001
1.40001
1.40001
1.40001
1.40001
1.40001
1.40001
1.40001
1.40001
1.40001
1.40001
1.40001
1.40001
1.40001
1.40001
1.40001
1.40001
1.40001
1.40001
1.40001
1.40001
1.40001
1.40001
1.40001
1.40001
1.40001
1.40001
1.40001
1.40001
1.40001
1.40001
1.40001
1.40001
1.40001
1.40001
1.40001
1.40001
1.40001
1.40001
1.40001
1.40001
1.40001
1.40001
1.4
1.4
1.4
1.4
1.4
1.4
1.4
1.4
1.4
1.4
1.4
1.4
1.4
1.4
1.4
1.4
1.4
1.40001
1.40001
1.40001
1.40001
1.40001
1.40001
1.40001
1.40001
1.40001
1.40001
1.40001
1.40001
1.40001
1.40001
1.40001
1.40001
1.40001
1.40001
1.40001
1.40001
1.40001
1.40001
1.40001
1.40001
1.40001
1.40001
1.40001
1.40001
1.40001
1.40001
1.40001
1.40001
1.40001
1.40001
1.40001
1.40001
1.40001
1.40001
1.40001
1.40001
1.40001
1.40001
1.40001
1.40001
1.40001
1.40001
1.40001
1.40001
1.40001
1.40001
1.40001
1.40001
1.40001
1.40001
1.40001
1.40001
1.40001
1.40001
1.4
1.4
1.4
1.4
1.4
1.39999
1.39999
1.39999
1.39999
1.39999
1.4
1.4
1.4
1.4
1.4
1.4
1.4
1.40001
1.40001
1.40001
1.40001
1.40001
1.40001
1.40002
1.40002
1.40002
1.40002
1.40002
1.40002
1.40001
1.40001
1.40001
1.40001
1.40001
1.40001
1.40001
1.40001
1.40001
1.40001
1.40001
1.40001
1.40001
1.40001
1.40001
1.40001
1.40001
1.40001
1.40001
1.40001
1.40001
1.40001
1.40001
1.40001
1.40001
1.40001
1.40001
1.40001
1.40001
1.40001
1.40001
1.40001
1.40001
1.40001
1.40001
1.40001
1.40001
1.40001
1.40001
1.40001
1.40001
1.40001
1.40001
1.40001
1.40001
1.40001
1.4
1.4
1.39999
1.39999
1.39999
1.39999
1.39999
1.39999
1.39999
1.39999
1.39999
1.39999
1.4
1.4
1.4
1.4
1.4
1.40001
1.40001
1.40001
1.40001
1.40002
1.40002
1.40002
1.40002
1.40002
1.40002
1.40002
1.40002
1.40002
1.40002
1.40002
1.40001
1.40001
1.40001
1.40001
1.40001
1.40001
1.40001
1.40001
1.40001
1.40001
1.40001
1.40001
1.40001
1.40001
1.40001
1.40001
1.40001
1.40001
1.40001
1.40001
1.40001
1.40001
1.40001
1.40001
1.40001
1.40001
1.40001
1.40001
1.40001
1.40001
1.40001
1.40001
1.40001
1.40001
1.40001
1.40001
1.40001
1.40001
1.40001
1.40001
1.40001
1.40001
1.40001
1.39999
1.39999
1.39999
1.39999
1.39999
1.39999
1.39999
1.39999
1.39999
1.39999
1.39999
1.39999
1.39999
1.39999
1.4
1.4
1.40001
1.40001
1.40001
1.40002
1.40002
1.40002
1.40002
1.40002
1.40003
1.40003
1.40003
1.40002
1.40002
1.40002
1.40002
1.40002
1.40002
1.40002
1.40001
1.40001
1.40001
1.40001
1.40001
1.40001
1.40001
1.40001
1.40001
1.40001
1.40001
1.40001
1.40001
1.40001
1.40001
1.40001
1.40001
1.40001
1.40001
1.40001
1.40001
1.40001
1.40001
1.40001
1.40001
1.40001
1.40001
1.40001
1.40001
1.40001
1.40001
1.40001
1.40001
1.40001
1.40001
1.40001
1.40001
1.40001
1.40001
1.40001
1.40001
1.39999
1.39999
1.39999
1.39999
1.39998
1.39998
1.39998
1.39998
1.39998
1.39998
1.39998
1.39999
1.39999
1.39999
1.4
1.4
1.40001
1.40001
1.40002
1.40002
1.40002
1.40003
1.40003
1.40003
1.40003
1.40003
1.40003
1.40003
1.40003
1.40003
1.40003
1.40002
1.40002
1.40002
1.40002
1.40001
1.40001
1.40001
1.40001
1.40001
1.40001
1.40001
1.40001
1.40001
1.40001
1.40001
1.40001
1.40001
1.40001
1.40001
1.40001
1.40001
1.40001
1.40001
1.40001
1.40001
1.40001
1.40001
1.40001
1.40001
1.40001
1.40001
1.40001
1.40001
1.40001
1.40001
1.40001
1.40001
1.40001
1.40001
1.40001
1.40001
1.40001
1.40001
1.40001
1.39999
1.39998
1.39998
1.39998
1.39998
1.39998
1.39997
1.39997
1.39997
1.39998
1.39998
1.39998
1.39999
1.39999
1.4
1.4
1.40001
1.40001
1.40002
1.40003
1.40003
1.40003
1.40004
1.40004
1.40004
1.40004
1.40004
1.40004
1.40004
1.40004
1.40003
1.40003
1.40003
1.40002
1.40002
1.40002
1.40002
1.40001
1.40001
1.40001
1.40001
1.40001
1.40001
1.40001
1.40001
1.40001
1.40001
1.40001
1.40001
1.40001
1.40001
1.40001
1.40001
1.40001
1.40001
1.40001
1.40001
1.40001
1.40001
1.40001
1.40001
1.40001
1.40001
1.40001
1.40001
1.40001
1.40001
1.40001
1.40001
1.40001
1.40001
1.40001
1.40001
1.40001
1.40001
1.39998
1.39998
1.39998
1.39997
1.39997
1.39997
1.39997
1.39997
1.39997
1.39997
1.39997
1.39998
1.39998
1.39999
1.4
1.4
1.40001
1.40002
1.40003
1.40003
1.40004
1.40005
1.40005
1.40005
1.40005
1.40005
1.40005
1.40005
1.40005
1.40004
1.40004
1.40004
1.40003
1.40003
1.40003
1.40002
1.40002
1.40002
1.40001
1.40001
1.40001
1.40001
1.40001
1.40001
1.40001
1.40001
1.40001
1.40001
1.40001
1.40001
1.40001
1.40001
1.40001
1.40001
1.40001
1.40001
1.40001
1.40001
1.40001
1.40001
1.40001
1.40001
1.40001
1.40001
1.40001
1.40001
1.40001
1.40001
1.40001
1.40001
1.40001
1.40001
1.40001
1.40001
1.40001
1.39998
1.39997
1.39997
1.39996
1.39996
1.39996
1.39996
1.39996
1.39996
1.39996
1.39997
1.39997
1.39998
1.39999
1.4
1.40001
1.40002
1.40003
1.40004
1.40005
1.40005
1.40006
1.40006
1.40007
1.40007
1.40007
1.40007
1.40006
1.40006
1.40006
1.40005
1.40005
1.40004
1.40004
1.40003
1.40003
1.40002
1.40002
1.40002
1.40001
1.40001
1.40001
1.40001
1.40001
1.40001
1.40001
1.40001
1.40001
1.40001
1.4
1.4
1.4
1.4
1.4
1.40001
1.40001
1.40001
1.40001
1.40001
1.40001
1.40001
1.40001
1.40001
1.40001
1.40001
1.40001
1.40001
1.40001
1.40001
1.40001
1.40001
1.40001
1.40001
1.40001
1.40001
1.39997
1.39996
1.39996
1.39996
1.39995
1.39995
1.39995
1.39995
1.39995
1.39996
1.39996
1.39997
1.39998
1.39999
1.40001
1.40002
1.40003
1.40004
1.40006
1.40007
1.40008
1.40008
1.40009
1.40009
1.40009
1.40009
1.40009
1.40008
1.40008
1.40007
1.40007
1.40006
1.40005
1.40004
1.40004
1.40003
1.40003
1.40002
1.40002
1.40002
1.40001
1.40001
1.40001
1.40001
1.40001
1.40001
1.40001
1.40001
1.40001
1.4
1.4
1.4
1.4
1.4
1.4
1.4
1.4
1.40001
1.40001
1.40001
1.40001
1.40001
1.40001
1.40001
1.40001
1.40001
1.40001
1.40001
1.40001
1.40001
1.40001
1.40001
1.40001
1.40001
1.40001
1.39996
1.39996
1.39995
1.39995
1.39994
1.39994
1.39994
1.39994
1.39995
1.39996
1.39997
1.39998
1.39999
1.40001
1.40002
1.40004
1.40005
1.40007
1.40008
1.40009
1.4001
1.40011
1.40012
1.40012
1.40012
1.40012
1.40011
1.40011
1.4001
1.40009
1.40008
1.40007
1.40006
1.40006
1.40005
1.40004
1.40003
1.40003
1.40002
1.40002
1.40001
1.40001
1.40001
1.40001
1.40001
1.40001
1.40001
1.40001
1.4
1.4
1.4
1.4
1.4
1.4
1.4
1.4
1.4
1.4
1.40001
1.40001
1.40001
1.40001
1.40001
1.40001
1.40001
1.40001
1.40001
1.40001
1.40001
1.40001
1.40001
1.40001
1.40001
1.40001
1.40001
1.39995
1.39995
1.39994
1.39994
1.39993
1.39993
1.39993
1.39994
1.39995
1.39996
1.39997
1.39999
1.40001
1.40003
1.40005
1.40007
1.40009
1.40011
1.40012
1.40014
1.40015
1.40016
1.40016
1.40016
1.40016
1.40016
1.40015
1.40014
1.40013
1.40012
1.40011
1.40009
1.40008
1.40007
1.40006
1.40005
1.40004
1.40003
1.40003
1.40002
1.40002
1.40001
1.40001
1.40001
1.40001
1.40001
1.40001
1.40001
1.4
1.4
1.4
1.4
1.4
1.4
1.4
1.4
1.4
1.4
1.4
1.40001
1.40001
1.40001
1.40001
1.40001
1.40001
1.40001
1.40001
1.40001
1.40001
1.40001
1.40001
1.40001
1.40001
1.40001
1.40001
1.39994
1.39994
1.39993
1.39993
1.39993
1.39993
1.39993
1.39994
1.39996
1.39997
1.39999
1.40002
1.40004
1.40007
1.4001
1.40012
1.40015
1.40017
1.40019
1.4002
1.40021
1.40022
1.40022
1.40022
1.40022
1.40021
1.4002
1.40018
1.40017
1.40015
1.40013
1.40012
1.4001
1.40009
1.40007
1.40006
1.40005
1.40004
1.40003
1.40002
1.40002
1.40001
1.40001
1.40001
1.40001
1.40001
1.40001
1.4
1.4
1.4
1.4
1.4
1.4
1.4
1.4
1.4
1.4
1.4
1.4
1.4
1.40001
1.40001
1.40001
1.40001
1.40001
1.40001
1.40001
1.40001
1.40001
1.40001
1.40001
1.40001
1.40001
1.40001
1.40001
1.39994
1.39993
1.39993
1.39992
1.39993
1.39993
1.39994
1.39996
1.39998
1.40001
1.40004
1.40007
1.40011
1.40014
1.40018
1.40021
1.40024
1.40027
1.40029
1.4003
1.40031
1.40031
1.40031
1.40031
1.40029
1.40028
1.40026
1.40024
1.40022
1.4002
1.40017
1.40015
1.40013
1.40011
1.40009
1.40007
1.40006
1.40005
1.40004
1.40003
1.40002
1.40002
1.40001
1.40001
1.40001
1.40001
1.40001
1.4
1.4
1.4
1.4
1.4
1.4
1.4
1.4
1.4
1.4
1.4
1.4
1.4
1.40001
1.40001
1.40001
1.40001
1.40001
1.40001
1.40001
1.40001
1.40001
1.40001
1.40001
1.40001
1.40001
1.40001
1.40001
1.39993
1.39993
1.39992
1.39993
1.39993
1.39995
1.39997
1.4
1.40003
1.40007
1.40011
1.40016
1.40021
1.40026
1.4003
1.40034
1.40038
1.40041
1.40043
1.40045
1.40045
1.40045
1.40044
1.40043
1.40041
1.40038
1.40035
1.40032
1.40029
1.40025
1.40022
1.40019
1.40016
1.40014
1.40011
1.40009
1.40007
1.40006
1.40004
1.40003
1.40003
1.40002
1.40001
1.40001
1.40001
1.40001
1.4
1.4
1.4
1.4
1.4
1.4
1.4
1.4
1.4
1.4
1.4
1.4
1.4
1.4
1.4
1.40001
1.40001
1.40001
1.40001
1.40001
1.40001
1.40001
1.40001
1.40001
1.40001
1.40001
1.40001
1.40001
1.40001
1.39993
1.39993
1.39993
1.39994
1.39996
1.39999
1.40002
1.40007
1.40012
1.40018
1.40024
1.40031
1.40037
1.40044
1.4005
1.40055
1.4006
1.40063
1.40065
1.40067
1.40066
1.40065
1.40063
1.4006
1.40057
1.40052
1.40048
1.40043
1.40038
1.40034
1.40029
1.40025
1.40021
1.40017
1.40014
1.40011
1.40009
1.40007
1.40005
1.40004
1.40003
1.40002
1.40001
1.40001
1.40001
1.40001
1.4
1.4
1.4
1.4
1.4
1.4
1.4
1.4
1.4
1.4
1.4
1.4
1.4
1.4
1.4
1.4
1.40001
1.40001
1.40001
1.40001
1.40001
1.40001
1.40001
1.40001
1.40001
1.40001
1.40001
1.40001
1.40001
1.39994
1.39994
1.39996
1.39998
1.40001
1.40006
1.40011
1.40018
1.40026
1.40035
1.40044
1.40053
1.40063
1.40071
1.40079
1.40086
1.40092
1.40096
1.40098
1.40098
1.40097
1.40095
1.4009
1.40085
1.40079
1.40073
1.40066
1.40059
1.40051
1.40045
1.40038
1.40032
1.40027
1.40022
1.40018
1.40014
1.40011
1.40009
1.40006
1.40005
1.40003
1.40002
1.40002
1.40001
1.40001
1.4
1.4
1.4
1.4
1.4
1.4
1.4
1.4
1.4
1.4
1.4
1.4
1.4
1.4
1.4
1.4
1.4
1.40001
1.40001
1.40001
1.40001
1.40001
1.40001
1.40001
1.40001
1.40001
1.40001
1.40001
1.40001
1.40001
1.39996
1.39998
1.4
1.40005
1.4001
1.40018
1.40027
1.40037
1.40049
1.40062
1.40075
1.40088
1.40101
1.40113
1.40123
1.40132
1.40139
1.40143
1.40145
1.40145
1.40142
1.40136
1.4013
1.40121
1.40112
1.40101
1.40091
1.4008
1.4007
1.4006
1.40051
1.40043
1.40035
1.40029
1.40023
1.40018
1.40014
1.40011
1.40008
1.40006
1.40004
1.40003
1.40002
1.40001
1.40001
1.4
1.4
1.4
1.4
1.4
1.4
1.4
1.4
1.4
1.4
1.4
1.4
1.4
1.4
1.4
1.4
1.4
1.4
1.40001
1.40001
1.40001
1.40001
1.40001
1.40001
1.40001
1.40001
1.40001
1.40001
1.40001
1.40001
1.4
1.40004
1.40009
1.40016
1.40026
1.40037
1.40051
1.40066
1.40083
1.40102
1.4012
1.40139
1.40157
1.40173
1.40187
1.40198
1.40207
1.40211
1.40213
1.4021
1.40205
1.40196
1.40185
1.40172
1.40157
1.40142
1.40126
1.40111
1.40095
1.40081
1.40068
1.40057
1.40046
1.40037
1.4003
1.40023
1.40018
1.40013
1.4001
1.40007
1.40005
1.40003
1.40002
1.40001
1.4
1.4
1.4
1.4
1.4
1.4
1.4
1.4
1.4
1.4
1.4
1.4
1.4
1.4
1.4
1.4
1.4
1.4
1.4
1.4
1.40001
1.40001
1.40001
1.40001
1.40001
1.40001
1.40001
1.40001
1.40001
1.40001
1.40001
1.40007
1.40014
1.40023
1.40034
1.40049
1.40066
1.40087
1.4011
1.40134
1.4016
1.40187
1.40212
1.40237
1.40259
1.40277
1.40292
1.40302
1.40307
1.40307
1.40302
1.40293
1.40279
1.40262
1.40243
1.40221
1.40198
1.40175
1.40153
1.40131
1.40111
1.40093
1.40076
1.40062
1.40049
1.40039
1.4003
1.40023
1.40017
1.40012
1.40008
1.40005
1.40003
1.40002
1.40001
1.4
1.4
1.4
1.4
1.4
1.4
1.4
1.4
1.4
1.4
1.4
1.4
1.4
1.4
1.4
1.4
1.4
1.4
1.4
1.4
1.40001
1.40001
1.40001
1.40001
1.40001
1.40001
1.40001
1.40001
1.40001
1.40001
1.40001
1.40019
1.40029
1.40044
1.40062
1.40084
1.4011
1.40139
1.40172
1.40207
1.40244
1.4028
1.40316
1.40349
1.40378
1.40403
1.40421
1.40434
1.40439
1.40438
1.4043
1.40415
1.40395
1.4037
1.40341
1.40309
1.40277
1.40244
1.40212
1.40181
1.40152
1.40126
1.40103
1.40083
1.40066
1.40051
1.40039
1.40029
1.40021
1.40015
1.4001
1.40007
1.40004
1.40002
1.40001
1.4
1.4
1.39999
1.39999
1.39999
1.39999
1.4
1.4
1.4
1.4
1.4
1.4
1.4
1.4
1.4
1.4
1.4
1.4
1.4
1.4
1.4
1.40001
1.40001
1.40001
1.40001
1.40001
1.40001
1.40001
1.40001
1.40001
1.40001
1.40036
1.40053
1.40075
1.40102
1.40134
1.40172
1.40214
1.4026
1.40309
1.4036
1.4041
1.40458
1.40502
1.40541
1.40573
1.40597
1.40613
1.40618
1.40615
1.40602
1.4058
1.40551
1.40515
1.40474
1.4043
1.40384
1.40337
1.40292
1.40249
1.40209
1.40172
1.4014
1.40112
1.40088
1.40068
1.40052
1.40038
1.40028
1.40019
1.40013
1.40008
1.40005
1.40002
1.40001
1.4
1.39999
1.39999
1.39999
1.39999
1.39999
1.39999
1.4
1.4
1.4
1.4
1.4
1.4
1.4
1.4
1.4
1.4
1.4
1.4
1.4
1.4
1.40001
1.40001
1.40001
1.40001
1.40001
1.40001
1.40001
1.40001
1.40001
1.40001
1.40062
1.40088
1.4012
1.40159
1.40206
1.40259
1.40318
1.40382
1.40449
1.40517
1.40585
1.40649
1.40707
1.40758
1.408
1.40831
1.4085
1.40856
1.4085
1.40831
1.408
1.40759
1.4071
1.40653
1.40592
1.40528
1.40464
1.40401
1.40341
1.40286
1.40235
1.40191
1.40152
1.40119
1.40091
1.40069
1.40051
1.40036
1.40025
1.40017
1.40011
1.40006
1.40003
1.40001
1.4
1.39999
1.39999
1.39998
1.39999
1.39999
1.39999
1.39999
1.4
1.4
1.4
1.4
1.4
1.4
1.4
1.4
1.4
1.4
1.4
1.4
1.4
1.4
1.40001
1.40001
1.40001
1.40001
1.40001
1.40001
1.40001
1.40001
1.40001
1.401
1.40137
1.40184
1.40239
1.40305
1.40378
1.40459
1.40546
1.40636
1.40727
1.40816
1.409
1.40976
1.41042
1.41095
1.41134
1.41157
1.41164
1.41154
1.41128
1.41087
1.41032
1.40965
1.40889
1.40806
1.4072
1.40633
1.40547
1.40465
1.40389
1.4032
1.40259
1.40206
1.40161
1.40123
1.40092
1.40068
1.40048
1.40033
1.40022
1.40014
1.40008
1.40004
1.40001
1.39999
1.39998
1.39998
1.39998
1.39998
1.39998
1.39999
1.39999
1.39999
1.4
1.4
1.4
1.4
1.4
1.4
1.4
1.4
1.4
1.4
1.4
1.4
1.4
1.40001
1.40001
1.40001
1.40001
1.40001
1.40001
1.40001
1.40001
1.40001
1.40152
1.40206
1.40271
1.40348
1.40438
1.40538
1.40647
1.40762
1.40881
1.40999
1.41114
1.41222
1.41319
1.41403
1.4147
1.41518
1.41547
1.41554
1.4154
1.41506
1.41452
1.4138
1.41292
1.41193
1.41084
1.40969
1.40853
1.40739
1.40629
1.40527
1.40434
1.40351
1.40279
1.40218
1.40166
1.40125
1.40091
1.40065
1.40045
1.4003
1.40018
1.4001
1.40005
1.40001
1.39999
1.39998
1.39997
1.39997
1.39997
1.39998
1.39998
1.39999
1.39999
1.39999
1.4
1.4
1.4
1.4
1.4
1.4
1.4
1.4
1.4
1.4
1.4
1.4
1.4
1.40001
1.40001
1.40001
1.40001
1.40001
1.40001
1.40001
1.40001
1.40224
1.40298
1.40388
1.40494
1.40614
1.40747
1.4089
1.41041
1.41194
1.41345
1.41491
1.41626
1.41747
1.4185
1.41932
1.41992
1.42026
1.42034
1.42016
1.41973
1.41905
1.41814
1.41703
1.41576
1.41436
1.41288
1.41137
1.40987
1.40843
1.40707
1.40583
1.40473
1.40376
1.40293
1.40224
1.40168
1.40123
1.40087
1.4006
1.4004
1.40025
1.40014
1.40007
1.40002
1.39999
1.39997
1.39997
1.39996
1.39997
1.39997
1.39997
1.39998
1.39998
1.39999
1.39999
1.4
1.4
1.4
1.4
1.4
1.4
1.4
1.4
1.4
1.4
1.4
1.4
1.40001
1.40001
1.40001
1.40001
1.40001
1.40001
1.40001
1.40001
1.4032
1.40421
1.40543
1.40683
1.40841
1.41015
1.412
1.41391
1.41584
1.41773
1.41952
1.42118
1.42264
1.42388
1.42486
1.42556
1.42597
1.42606
1.42584
1.42532
1.42449
1.42339
1.42203
1.42046
1.41871
1.41686
1.41494
1.41302
1.41116
1.40939
1.40777
1.40631
1.40503
1.40393
1.40301
1.40226
1.40165
1.40118
1.40082
1.40054
1.40034
1.4002
1.4001
1.40003
1.39999
1.39997
1.39996
1.39996
1.39996
1.39996
1.39997
1.39997
1.39998
1.39999
1.39999
1.39999
1.4
1.4
1.4
1.4
1.4
1.4
1.4
1.4
1.4
1.4
1.4
1.4
1.40001
1.40001
1.40001
1.40001
1.40001
1.40001
1.40001
1.40446
1.40582
1.40742
1.40925
1.4113
1.41351
1.41583
1.41821
1.42057
1.42286
1.42501
1.42696
1.42868
1.43012
1.43125
1.43205
1.43251
1.43261
1.43237
1.43176
1.43081
1.42952
1.42793
1.42606
1.42396
1.42169
1.41932
1.41692
1.41457
1.41232
1.41023
1.40834
1.40667
1.40523
1.40402
1.40302
1.40222
1.40159
1.4011
1.40074
1.40047
1.40028
1.40014
1.40006
1.4
1.39997
1.39995
1.39995
1.39995
1.39995
1.39996
1.39997
1.39997
1.39998
1.39999
1.39999
1.39999
1.4
1.4
1.4
1.4
1.4
1.4
1.4
1.4
1.4
1.4
1.4
1.40001
1.40001
1.40001
1.40001
1.40001
1.40001
1.40001
1.40609
1.40787
1.40994
1.41229
1.41486
1.41761
1.42046
1.42333
1.42614
1.42882
1.43129
1.43352
1.43544
1.43703
1.43827
1.43915
1.43965
1.43977
1.4395
1.43885
1.43782
1.4364
1.43461
1.43248
1.43005
1.42738
1.42455
1.42164
1.41874
1.41594
1.4133
1.41089
1.40875
1.40689
1.40531
1.40401
1.40296
1.40212
1.40148
1.401
1.40064
1.40039
1.40021
1.40009
1.40002
1.39997
1.39995
1.39994
1.39994
1.39994
1.39995
1.39996
1.39997
1.39998
1.39998
1.39999
1.39999
1.4
1.4
1.4
1.4
1.4
1.4
1.4
1.4
1.4
1.4
1.4
1.4
1.40001
1.40001
1.40001
1.40001
1.40001
1.40001
1.40815
1.41044
1.41307
1.416
1.41917
1.42249
1.42588
1.42923
1.43245
1.43546
1.43819
1.44059
1.44263
1.44429
1.44557
1.44647
1.44698
1.4471
1.44685
1.4462
1.44515
1.44369
1.44181
1.43952
1.43685
1.43384
1.43059
1.42717
1.42371
1.4203
1.41705
1.41405
1.41135
1.40898
1.40696
1.40527
1.40391
1.40282
1.40198
1.40134
1.40087
1.40054
1.4003
1.40014
1.40004
1.39998
1.39995
1.39993
1.39993
1.39993
1.39994
1.39995
1.39996
1.39997
1.39998
1.39998
1.39999
1.39999
1.4
1.4
1.4
1.4
1.4
1.4
1.4
1.4
1.4
1.4
1.4
1.40001
1.40001
1.40001
1.40001
1.40001
1.40001
1.41071
1.41359
1.41685
1.42043
1.42422
1.42812
1.43201
1.43577
1.43929
1.4425
1.44534
1.44777
1.44978
1.45138
1.45259
1.45341
1.45389
1.45401
1.45379
1.45322
1.45226
1.45089
1.44907
1.44679
1.44404
1.44085
1.43728
1.43343
1.42943
1.42542
1.42152
1.41786
1.41452
1.41156
1.40901
1.40687
1.40511
1.40372
1.40263
1.4018
1.40118
1.40074
1.40043
1.40021
1.40008
1.39999
1.39995
1.39993
1.39992
1.39992
1.39993
1.39994
1.39995
1.39996
1.39997
1.39998
1.39999
1.39999
1.4
1.4
1.4
1.4
1.4
1.4
1.4
1.4
1.4
1.4
1.4
1.40001
1.40001
1.40001
1.40001
1.40001
1.40001
1.41383
1.41738
1.42132
1.42557
1.42997
1.43438
1.43866
1.44268
1.44632
1.44953
1.45225
1.45449
1.45627
1.45762
1.4586
1.45925
1.45961
1.45972
1.45957
1.45914
1.45841
1.4573
1.45576
1.45372
1.45114
1.44799
1.44432
1.44022
1.4358
1.43124
1.4267
1.42235
1.41831
1.41468
1.41152
1.40883
1.40662
1.40484
1.40344
1.40238
1.40158
1.401
1.40059
1.40032
1.40013
1.40002
1.39996
1.39992
1.39991
1.39991
1.39992
1.39993
1.39994
1.39996
1.39997
1.39998
1.39998
1.39999
1.39999
1.4
1.4
1.4
1.4
1.4
1.4
1.4
1.4
1.4
1.4
1.4
1.40001
1.40001
1.40001
1.40001
1.40001
1.41754
1.42181
1.42646
1.43134
1.43626
1.44104
1.44552
1.44955
1.45304
1.45595
1.45827
1.46004
1.46133
1.46222
1.4628
1.46315
1.46333
1.46339
1.46334
1.46315
1.46277
1.46213
1.46111
1.4596
1.4575
1.45473
1.45128
1.44718
1.44256
1.4376
1.43251
1.42749
1.42273
1.41838
1.41453
1.41122
1.40847
1.40623
1.40447
1.40311
1.40209
1.40135
1.40082
1.40045
1.40021
1.40006
1.39997
1.39992
1.39991
1.3999
1.39991
1.39992
1.39994
1.39995
1.39996
1.39997
1.39998
1.39999
1.39999
1.4
1.4
1.4
1.4
1.4
1.4
1.4
1.4
1.4
1.4
1.4
1.40001
1.40001
1.40001
1.40001
1.40001
1.42186
1.42687
1.43218
1.43759
1.44285
1.44776
1.45213
1.45584
1.45883
1.46109
1.46268
1.46368
1.46422
1.46443
1.46444
1.46436
1.46428
1.46427
1.46433
1.46445
1.46456
1.46457
1.46432
1.46365
1.46239
1.46038
1.45754
1.45383
1.44934
1.44425
1.43877
1.43319
1.42774
1.42265
1.41806
1.41407
1.4107
1.40793
1.40573
1.40402
1.40273
1.40178
1.4011
1.40063
1.40032
1.40012
1.4
1.39993
1.3999
1.39989
1.3999
1.39991
1.39993
1.39994
1.39995
1.39997
1.39998
1.39998
1.39999
1.39999
1.4
1.4
1.4
1.4
1.4
1.4
1.4
1.4
1.4
1.4
1.40001
1.40001
1.40001
1.40001
1.40001
1.42676
1.43246
1.43832
1.44405
1.44938
1.45408
1.45797
1.46096
1.46304
1.46428
1.46479
1.46474
1.46428
1.46362
1.46292
1.46231
1.46192
1.4618
1.46199
1.46247
1.46317
1.46397
1.4647
1.46514
1.46506
1.46423
1.46244
1.45957
1.45565
1.45079
1.44523
1.43927
1.43326
1.42746
1.42212
1.41738
1.41333
1.40996
1.40726
1.40514
1.40353
1.40233
1.40147
1.40087
1.40046
1.4002
1.40004
1.39995
1.3999
1.39989
1.39989
1.3999
1.39992
1.39993
1.39995
1.39996
1.39997
1.39998
1.39999
1.39999
1.4
1.4
1.4
1.4
1.4
1.4
1.4
1.4
1.4
1.4
1.40001
1.40001
1.40001
1.40001
1.40001
1.43215
1.43842
1.44461
1.45036
1.45539
1.45946
1.46243
1.46428
1.46507
1.46495
1.46409
1.46274
1.46112
1.45945
1.45794
1.45674
1.45599
1.45576
1.45609
1.45696
1.45829
1.45997
1.46181
1.46356
1.46494
1.46563
1.46532
1.46379
1.46091
1.45675
1.4515
1.44549
1.4391
1.43271
1.42665
1.42116
1.41638
1.41235
1.40907
1.40648
1.40449
1.403
1.40192
1.40117
1.40065
1.40031
1.4001
1.39998
1.39991
1.39989
1.39988
1.39989
1.39991
1.39992
1.39994
1.39995
1.39997
1.39998
1.39998
1.39999
1.4
1.4
1.4
1.4
1.4
1.4
1.4
1.4
1.4
1.4
1.4
1.40001
1.40001
1.40001
1.40001
1.43788
1.44451
1.45071
1.45611
1.46039
1.46337
1.46499
1.46531
1.46447
1.46271
1.46029
1.45749
1.4546
1.45187
1.44951
1.44771
1.44659
1.44625
1.44671
1.44797
1.44995
1.45254
1.45554
1.4587
1.4617
1.46416
1.46568
1.4659
1.46458
1.46162
1.45716
1.45149
1.44503
1.43825
1.43158
1.42537
1.41983
1.4151
1.41119
1.40806
1.40564
1.40382
1.40248
1.40153
1.40088
1.40045
1.40018
1.40002
1.39993
1.39989
1.39988
1.39988
1.3999
1.39991
1.39993
1.39995
1.39996
1.39997
1.39998
1.39999
1.39999
1.4
1.4
1.4
1.4
1.4
1.4
1.4
1.4
1.4
1.4
1.40001
1.40001
1.40001
1.40001
1.44373
1.4504
1.45623
1.46081
1.46389
1.46536
1.46524
1.46371
1.46101
1.45744
1.45335
1.44906
1.44489
1.44109
1.43791
1.43552
1.43405
1.4336
1.4342
1.43584
1.43845
1.44192
1.44607
1.45065
1.45532
1.45966
1.46323
1.46553
1.46618
1.46493
1.46176
1.45689
1.45075
1.44387
1.43677
1.42992
1.42366
1.41819
1.41361
1.4099
1.40699
1.40478
1.40315
1.40198
1.40117
1.40063
1.40028
1.40007
1.39995
1.39989
1.39987
1.39988
1.39989
1.39991
1.39993
1.39994
1.39996
1.39997
1.39998
1.39999
1.39999
1.4
1.4
1.4
1.4
1.4
1.4
1.4
1.4
1.4
1.4
1.40001
1.40001
1.40001
1.40001
1.44942
1.45575
1.46075
1.46407
1.46552
1.4651
1.46296
1.45938
1.4547
1.44928
1.44351
1.43774
1.43232
1.4275
1.42353
1.42058
1.4188
1.41826
1.419
1.421
1.42422
1.42854
1.43379
1.43972
1.44602
1.45226
1.45794
1.46251
1.46542
1.46628
1.46488
1.46132
1.45595
1.44931
1.44204
1.43471
1.42779
1.42161
1.41633
1.41199
1.40855
1.40591
1.40394
1.40252
1.40152
1.40085
1.40042
1.40015
1.39999
1.39991
1.39988
1.39987
1.39988
1.3999
1.39992
1.39994
1.39995
1.39997
1.39998
1.39998
1.39999
1.4
1.4
1.4
1.4
1.4
1.4
1.4
1.4
1.4
1.4
1.40001
1.40001
1.40001
1.40001
1.45464
1.46019
1.46392
1.46555
1.46502
1.46247
1.45816
1.45245
1.44576
1.43851
1.4311
1.42392
1.41729
1.41149
1.40676
1.40329
1.4012
1.40058
1.40147
1.40385
1.40766
1.4128
1.41911
1.42634
1.43419
1.44225
1.45002
1.45688
1.46223
1.46548
1.46624
1.46444
1.4603
1.45432
1.44718
1.43959
1.43215
1.4253
1.41932
1.41433
1.41031
1.4072
1.40485
1.40315
1.40194
1.40112
1.40058
1.40024
1.40004
1.39993
1.39988
1.39987
1.39988
1.39989
1.39991
1.39993
1.39995
1.39996
1.39997
1.39998
1.39999
1.39999
1.4
1.4
1.4
1.4
1.4
1.4
1.4
1.4
1.4
1.4
1.40001
1.40001
1.40001
1.45907
1.46341
1.46546
1.46509
1.46236
1.45754
1.451
1.44318
1.43453
1.4255
1.41652
1.40795
1.40014
1.39337
1.38789
1.38388
1.38148
1.38079
1.38184
1.3846
1.38904
1.39501
1.40236
1.41086
1.42021
1.43002
1.43978
1.4489
1.4567
1.46248
1.46568
1.46601
1.46352
1.45862
1.45199
1.44441
1.43661
1.42919
1.42255
1.4169
1.41228
1.40865
1.4059
1.40387
1.40243
1.40144
1.40078
1.40036
1.40011
1.39997
1.3999
1.39987
1.39987
1.39989
1.3999
1.39992
1.39994
1.39996
1.39997
1.39998
1.39999
1.39999
1.4
1.4
1.4
1.4
1.4
1.4
1.4
1.4
1.4
1.4
1.40001
1.40001
1.40001
1.46244
1.46519
1.46526
1.46266
1.45762
1.45052
1.44178
1.43191
1.42137
1.41061
1.40006
1.3901
1.38107
1.37327
1.36697
1.36238
1.35965
1.35888
1.36011
1.36331
1.36842
1.37529
1.38375
1.39355
1.40439
1.41589
1.42758
1.43887
1.44907
1.4574
1.46318
1.46591
1.46543
1.46201
1.45625
1.44898
1.44105
1.4332
1.42596
1.41966
1.41444
1.41027
1.40707
1.4047
1.40299
1.40181
1.40101
1.4005
1.40019
1.40001
1.39992
1.39988
1.39987
1.39988
1.3999
1.39992
1.39994
1.39995
1.39997
1.39998
1.39999
1.39999
1.4
1.4
1.4
1.4
1.4
1.4
1.4
1.4
1.4
1.4
1.40001
1.40001
1.40001
1.46457
1.46542
1.4633
1.4584
1.45104
1.4417
1.43084
1.41899
1.40659
1.3941
1.38194
1.37048
1.36011
1.35115
1.34392
1.33864
1.33552
1.33466
1.33611
1.33983
1.34572
1.35362
1.3633
1.3745
1.3869
1.40012
1.41371
1.4271
1.43961
1.45046
1.45885
1.46413
1.46593
1.46432
1.45979
1.45315
1.44534
1.43722
1.42948
1.42258
1.41675
1.41204
1.40837
1.40562
1.40363
1.40223
1.40129
1.40067
1.40029
1.40006
1.39994
1.39989
1.39987
1.39988
1.3999
1.39992
1.39993
1.39995
1.39996
1.39998
1.39998
1.39999
1.4
1.4
1.4
1.4
1.4
1.4
1.4
1.4
1.4
1.4
1.40001
1.40001
1.40001
1.46536
1.46411
1.45973
1.45252
1.44291
1.43141
1.41851
1.4047
1.39043
1.37612
1.36219
1.34906
1.33713
1.32681
1.31845
1.31236
1.30877
1.30781
1.30954
1.3139
1.32075
1.32986
1.34097
1.35375
1.36785
1.38288
1.39839
1.41385
1.42862
1.44191
1.45288
1.46076
1.465
1.46546
1.46248
1.45678
1.44935
1.44115
1.43305
1.42561
1.4192
1.41393
1.40978
1.40664
1.40434
1.40271
1.4016
1.40087
1.40041
1.40013
1.39998
1.39991
1.39988
1.39988
1.39989
1.39991
1.39993
1.39995
1.39996
1.39997
1.39998
1.39999
1.39999
1.4
1.4
1.4
1.4
1.4
1.4
1.4
1.4
1.4
1.40001
1.40001
1.40001
1.46483
1.4614
1.45475
1.44529
1.43352
1.41995
1.40505
1.38927
1.37302
1.35671
1.34077
1.32567
1.31189
1.29992
1.29021
1.28313
1.27897
1.27792
1.28001
1.28518
1.29322
1.30383
1.31665
1.33128
1.34729
1.36428
1.3818
1.39935
1.41633
1.43198
1.44548
1.45596
1.46273
1.46544
1.46424
1.45977
1.45297
1.44491
1.43657
1.42869
1.42174
1.41593
1.41129
1.40774
1.40512
1.40324
1.40195
1.40109
1.40055
1.40021
1.40003
1.39993
1.39989
1.39988
1.39989
1.39991
1.39993
1.39995
1.39996
1.39997
1.39998
1.39999
1.39999
1.4
1.4
1.4
1.4
1.4
1.4
1.4
1.4
1.4
1.4
1.40001
1.40001
1.46307
1.45745
1.4486
1.437
1.42317
1.40758
1.39068
1.37283
1.35441
1.33583
1.31755
1.30011
1.28411
1.27014
1.25877
1.2505
1.24568
1.24453
1.2471
1.25329
1.26282
1.27529
1.2902
1.30703
1.32526
1.34444
1.36411
1.3838
1.40297
1.42094
1.43688
1.44991
1.45922
1.46428
1.46506
1.46204
1.45611
1.4484
1.43999
1.43177
1.42433
1.418
1.41288
1.40891
1.40595
1.40382
1.40234
1.40134
1.4007
1.40031
1.40008
1.39996
1.39991
1.39989
1.39989
1.39991
1.39993
1.39994
1.39996
1.39997
1.39998
1.39999
1.39999
1.4
1.4
1.4
1.4
1.4
1.4
1.4
1.4
1.4
1.4
1.40001
1.40001
1.46025
1.45249
1.44154
1.42791
1.41209
1.39452
1.37554
1.35546
1.33461
1.3134
1.29236
1.27214
1.25346
1.2371
1.22376
1.21405
1.20843
1.20719
1.21037
1.21783
1.22922
1.24398
1.26145
1.28093
1.30177
1.32344
1.34546
1.3674
1.38878
1.40901
1.42731
1.44281
1.45463
1.46209
1.46496
1.46357
1.45873
1.45156
1.44323
1.43478
1.42693
1.42012
1.41453
1.41014
1.40684
1.40444
1.40276
1.40162
1.40088
1.40042
1.40014
1.4
1.39993
1.3999
1.3999
1.39991
1.39993
1.39994
1.39996
1.39997
1.39998
1.39999
1.39999
1.4
1.4
1.4
1.4
1.4
1.4
1.4
1.4
1.4
1.4
1.40001
1.40001
1.45654
1.44676
1.43383
1.41826
1.40052
1.38093
1.35976
1.33722
1.3136
1.28934
1.26506
1.24155
1.21972
1.20052
1.18483
1.17343
1.16688
1.16552
1.16944
1.17845
1.19209
1.20964
1.23022
1.2529
1.27684
1.30138
1.32601
1.35034
1.37398
1.39642
1.417
1.43488
1.44912
1.45897
1.464
1.46438
1.46079
1.45433
1.44625
1.43768
1.42949
1.42225
1.41621
1.41142
1.40777
1.40509
1.4032
1.40191
1.40107
1.40054
1.40022
1.40004
1.39995
1.39991
1.39991
1.39991
1.39993
1.39994
1.39996
1.39997
1.39998
1.39999
1.39999
1.4
1.4
1.4
1.4
1.4
1.4
1.4
1.4
1.4
1.4
1.40001
1.40001
1.45216
1.44047
1.42567
1.40826
1.38861
1.36695
1.34343
1.31816
1.2914
1.26363
1.23559
1.20826
1.18275
1.16025
1.14184
1.12847
1.12083
1.11933
1.12409
1.13491
1.15121
1.17208
1.19637
1.22286
1.25046
1.27833
1.3059
1.33282
1.35878
1.38343
1.4062
1.42633
1.44291
1.45507
1.46228
1.4645
1.46229
1.45669
1.44899
1.44042
1.43198
1.42436
1.4179
1.41271
1.40872
1.40577
1.40367
1.40223
1.40127
1.40067
1.4003
1.40009
1.39998
1.39993
1.39991
1.39992
1.39993
1.39994
1.39996
1.39997
1.39998
1.39999
1.39999
1.4
1.4
1.4
1.4
1.4
1.4
1.4
1.4
1.4
1.4
1.40001
1.40001
1.44731
1.43383
1.41728
1.3981
1.37653
1.35272
1.32665
1.29836
1.26807
1.23632
1.204
1.17231
1.14261
1.11635
1.09487
1.07928
1.0704
1.06872
1.07441
1.08726
1.1066
1.1313
1.1599
1.19083
1.22268
1.25438
1.28528
1.31502
1.34342
1.37025
1.39512
1.41738
1.43617
1.45057
1.45991
1.46399
1.46325
1.45863
1.45143
1.44297
1.43436
1.42642
1.41958
1.41401
1.40969
1.40647
1.40416
1.40256
1.40149
1.40081
1.40039
1.40014
1.40001
1.39995
1.39992
1.39992
1.39993
1.39995
1.39996
1.39997
1.39998
1.39999
1.39999
1.4
1.4
1.4
1.4
1.4
1.4
1.4
1.4
1.4
1.4
1.40001
1.40001
1.44215
1.42702
1.40883
1.38791
1.36443
1.33836
1.30957
1.27797
1.24377
1.20759
1.1705
1.13395
1.09962
1.06923
1.04439
1.0264
1.01615
1.01424
1.02089
1.03591
1.05858
1.08755
1.121
1.15696
1.19364
1.22968
1.26429
1.29711
1.32807
1.35711
1.38401
1.40827
1.42911
1.44562
1.45701
1.46295
1.46371
1.46015
1.45355
1.4453
1.4366
1.42839
1.42121
1.41529
1.41065
1.40717
1.40465
1.4029
1.40172
1.40095
1.40048
1.4002
1.40005
1.39997
1.39994
1.39993
1.39994
1.39995
1.39996
1.39997
1.39998
1.39999
1.39999
1.4
1.4
1.4
1.4
1.4
1.4
1.4
1.4
1.4
1.4
1.40001
1.40001
1.43687
1.42022
1.40047
1.37787
1.35244
1.32403
1.29235
1.25722
1.21879
1.1778
1.13553
1.09371
1.0544
1.01965
0.991302
0.970789
0.959095
0.956864
0.964431
0.981685