/*--------------------------------*- C++ -*----------------------------------*\
  =========                 |
  \\      /  F ield         | OpenFOAM: The Open Source CFD Toolbox
   \\    /   O peration     | Website:  https://openfoam.org
    \\  /    A nd           | Version:  6
     \\/     M anipulation  |
\*---------------------------------------------------------------------------*/
FoamFile
{
    version     2.0;
    format      ascii;
    class       volScalarField;
    location    "2.34";
    object      epsilon;
}
// * * * * * * * * * * * * * * * * * * * * * * * * * * * * * * * * * * * * * //

dimensions      [0 2 -3 0 0 0 0];

internalField   nonuniform List<scalar> 
4214
(
0.187118
0.0758995
0.0313985
0.0156157
0.010804
0.00961567
0.00952424
0.00985189
0.0105402
0.0117792
0.01403
0.0180113
0.0250581
0.0370895
0.057207
0.0897685
0.142402
0.234659
0.418576
0.771369
1.2396
1.61615
2.01364
2.61468
3.47033
4.46792
4.84714
4.088
2.75511
1.53498
0.731758
0.290231
0.0973425
0.0303844
0.0138417
0.0107699
0.0112467
0.0158948
0.0322162
0.0790604
0.200268
0.0962179
0.039771
0.019087
0.0122302
0.0102799
0.00989482
0.0100391
0.010491
0.0113503
0.0128831
0.015704
0.0206428
0.0293498
0.043892
0.0676099
0.104393
0.159908
0.246654
0.402953
0.714611
1.1848
1.582
1.89762
2.55565
3.53682
4.72088
5.25569
4.47264
3.00003
1.65718
0.784984
0.313116
0.107934
0.0348954
0.0149982
0.0109418
0.0104879
0.0117291
0.0167012
0.0308361
0.0651402
0.0333621
0.0194693
0.0133135
0.0110067
0.010349
0.0103257
0.0106189
0.0112109
0.0123269
0.014311
0.0180208
0.0243963
0.0356004
0.0538606
0.0830224
0.12655
0.18843
0.275337
0.410453
0.662952
1.08278
1.46898
1.709
2.29357
3.44012
4.94344
5.72571
4.93722
3.28841
1.788
0.837371
0.333815
0.117217
0.0389664
0.0163966
0.0112797
0.0104391
0.0106849
0.0122494
0.0165177
0.0256614
0.0206322
0.0147667
0.0120062
0.0109696
0.0107483
0.0108966
0.0113286
0.0121153
0.013638
0.0163137
0.0213954
0.0298731
0.0447292
0.0682721
0.105234
0.158574
0.230959
0.324227
0.449993
0.657896
1.02432
1.42333
1.65467
2.15974
3.34963
5.10759
6.1737
5.42564
3.60724
1.93384
0.89435
0.354982
0.126344
0.0427271
0.0179639
0.0117235
0.0105836
0.0105152
0.0111485
0.0130046
0.0168929
0.0160186
0.0131133
0.0117427
0.0112744
0.0112825
0.0115637
0.0121793
0.0132576
0.0154204
0.0191222
0.0262904
0.0377603
0.0578201
0.0885631
0.136145
0.202599
0.289353
0.393516
0.517145
0.691399
0.994571
1.37644
1.6162
2.04609
3.22684
5.21621
6.60716
5.94367
3.96037
2.09614
0.956962
0.377285
0.135733
0.0464821
0.0194939
0.012281
0.0107948
0.0105654
0.0108352
0.0117583
0.0137189
0.0141397
0.0126238
0.0119357
0.0117679
0.0119349
0.0123581
0.0132442
0.0147718
0.0179616
0.023149
0.0334566
0.049126
0.0765112
0.116841
0.178522
0.261819
0.367066
0.486095
0.612571
0.762594
1.00478
1.34675
1.58852
1.95758
3.1011
5.292
7.02845
6.48878
4.35182
2.27951
1.02829
0.402329
0.146151
0.0504948
0.0211403
0.0128809
0.0110568
0.0106933
0.0107998
0.0113048
0.0124082
0.0134925
0.0126926
0.0123763
0.0123964
0.0127072
0.0133088
0.0146279
0.0168372
0.0216446
0.0290055
0.0439324
0.0654021
0.10296
0.155743
0.235736
0.339888
0.468106
0.605857
0.738291
0.87015
1.05601
1.34246
1.57139
1.89352
2.99133
5.36076
7.44918
7.0623
4.78389
2.48698
1.11055
0.431372
0.158306
0.0550442
0.0230277
0.0135424
0.0113678
0.0108589
0.0108769
0.0111761
0.0118554
0.0134902
0.0130785
0.0129907
0.0131458
0.0136241
0.014479
0.0164961
0.0197065
0.0270237
0.037457
0.0591882
0.0884663
0.139947
0.208465
0.311929
0.441253
0.597854
0.759152
0.900337
1.01703
1.15142
1.37363
1.57294
1.86015
2.92042
5.44978
7.88974
7.66676
5.25489
2.71911
1.20576
0.465382
0.172846
0.0604134
0.0252983
0.0143223
0.0117257
0.0110565
0.0110073
0.0111943
0.0116457
0.0138709
0.0136813
0.0137467
0.0140155
0.0147341
0.0159529
0.0190815
0.0237006
0.03485
0.049497
0.0811212
0.120628
0.190872
0.278674
0.412066
0.571656
0.764391
0.956791
1.11108
1.21482
1.30129
1.45191
1.60425
1.8523
2.89414
5.58828
8.37916
8.30532
5.75795
2.97172
1.31411
0.504695
0.190243
0.0668346
0.0281077
0.015274
0.0121625
0.0112834
0.0111727
0.0112879
0.0116068
0.014514
0.0144561
0.0146332
0.0150169
0.0161089
0.0178334
0.0226969
0.029202
0.0460989
0.0663413
0.112041
0.164523
0.259717
0.370438
0.542441
0.739066
0.981168
1.21799
1.39424
1.49018
1.52278
1.59328
1.67903
1.88332
2.92933
5.81721
8.95598
8.98065
6.27381
3.23497
1.43208
0.548613
0.210624
0.0744207
0.0316037
0.0164548
0.0127151
0.0115489
0.0113721
0.0114293
0.0116652
0.0153463
0.0153663
0.0156514
0.0161629
0.0178483
0.0202346
0.0277442
0.0366413
0.061982
0.0893776
0.154553
0.222892
0.351034
0.488343
0.711926
0.955633
1.27102
1.57596
1.7881
1.86571
1.83296
1.81049
1.80935
1.9687
3.0465
6.19122
9.66829
9.69482
6.77957
3.49336
1.55409
0.594906
0.233533
0.0830534
0.0358847
0.0179123
0.0134278
0.0118692
0.0116128
0.0116116
0.0117909
0.0163201
0.01638
0.0168081
0.017467
0.0200896
0.0232804
0.034724
0.0464937
0.0839295
0.119881
0.211546
0.298299
0.470142
0.637949
0.934307
1.24097
1.67196
2.08391
2.34867
2.40278
2.26939
2.12
2.0033
2.1159
3.27455
6.79536
10.577
10.4376
7.24601
3.71979
1.66836
0.639101
0.257643
0.0922383
0.0409293
0.0196565
0.0143468
0.0122632
0.0119081
0.0118397
0.0119759
0.017399
0.0174738
0.0181263
0.0189518
0.0230187
0.0271212
0.0442433
0.0593055
0.113505
0.158906
0.285995
0.392961
0.623758
0.826726
1.23174
1.62604
2.24404
2.81884
3.15895
3.17263
2.87268
2.54149
2.26594
2.33256
3.65845
7.77281
11.7574
11.1621
7.62901
3.87615
1.75839
0.674409
0.280524
0.100943
0.0464913
0.021614
0.0155035
0.0127477
0.0122779
0.0121251
0.0122243
0.0185576
0.0186374
0.0196539
0.0206704
0.026877
0.03199
0.0570102
0.0756887
0.152072
0.207371
0.381058
0.508849
0.821482
1.06597
1.63889
2.15646
3.07331
3.87571
4.29073
4.21032
3.63706
3.07454
2.59084
2.63478
4.31591
9.36554
13.2476
11.8566
7.86255
3.91859
1.80752
0.692381
0.298668
0.107499
0.0519834
0.0235697
0.0168836
0.013329
0.0127454
0.0124835
0.0125495
0.0197806
0.0198714
0.0214702
0.0227167
0.0319671
0.0381221
0.0738183
0.0959026
0.201577
0.265725
0.500566
0.648097
1.078
1.37296
2.20862
2.89295
4.26243
5.34136
5.76342
5.48145
4.49079
3.69525
2.95198
3.03236
5.53194
11.7642
14.8728
12.2182
7.83651
3.8088
1.80517
0.684176
0.308187
0.109723
0.056446
0.0251328
0.0183882
0.0139885
0.0133299
0.0129343
0.0129692
0.0210699
0.0211724
0.0237095
0.0251208
0.0387804
0.0456255
0.0959376
0.120267
0.264034
0.334008
0.649776
0.813605
1.41569
1.76812
3.01807
3.90323
5.88836
7.23551
7.42923
6.80426
5.24854
4.23348
3.3641
3.5663
7.44915
14.6656
16.1585
11.9333
7.48724
3.5283
1.75747
0.642829
0.307324
0.105502
0.0588358
0.0258069
0.0198198
0.0146752
0.0140364
0.0134971
0.0135018
0.0224538
0.022548
0.0266172
0.027941
0.0480905
0.0546426
0.12503
0.148916
0.34181
0.412028
0.836197
1.01001
1.86823
2.27605
4.16347
5.24002
7.90327
9.43011
8.85056
7.78302
5.6375
4.1537
3.4462
4.10509
10.363
17.8483
16.2068
10.7427
6.81222
3.07454
1.6953
0.563624
0.302446
0.0935798
0.0590489
0.0251968
0.0209637
0.0153121
0.0148586
0.0141787
0.0141698
0.0144203
0.0137173
0.0131635
0.0127439
0.0124356
0.0122215
0.0120925
0.0120519
0.0121236
0.0123708
0.0129419
0.0141812
0.0169332
0.0235328
0.0426532
0.142954
0.497785
0.0145662
0.013943
0.0134438
0.0130641
0.012796
0.0126326
0.0125735
0.0126317
0.012846
0.0133059
0.014207
0.0159833
0.0196623
0.0280136
0.0515904
0.175427
0.640404
0.0151035
0.0143985
0.0138611
0.0134816
0.0132423
0.0131341
0.0131608
0.0133459
0.0137478
0.0144887
0.0158213
0.0182877
0.0231288
0.0336464
0.0629793
0.218182
0.799638
0.0153406
0.0147369
0.0142622
0.0139311
0.0137455
0.0137102
0.0138428
0.0141851
0.0148214
0.0159153
0.0177909
0.0211157
0.0273821
0.0405617
0.0773272
0.272102
0.993695
0.0160371
0.0153209
0.014801
0.0144733
0.0143258
0.0143622
0.0146098
0.0151297
0.0160382
0.0175508
0.0200761
0.0244305
0.032405
0.0488315
0.0951923
0.340093
1.22575
0.0163666
0.015774
0.0153236
0.0150471
0.0149551
0.0150683
0.0154331
0.0161366
0.017335
0.0193051
0.0225555
0.0280779
0.0380197
0.0583178
0.116875
0.422731
1.49801
0.0171982
0.0164708
0.0159763
0.0157043
0.0156453
0.015819
0.0162842
0.017154
0.0186261
0.0210456
0.025035
0.0317868
0.0438644
0.0685687
0.141972
0.515764
1.80262
0.0176315
0.0170527
0.0166307
0.0164007
0.0163768
0.0165957
0.0171337
0.0181289
0.0198188
0.022618
0.0272698
0.0351844
0.0493873
0.0786919
0.168107
0.60601
2.12359
0.0185915
0.0178673
0.0174085
0.017176
0.0171605
0.0173959
0.0179665
0.0190262
0.0208435
0.0238926
0.0290292
0.03788
0.0539417
0.0875496
0.191555
0.682712
2.43647
0.0191466
0.0186041
0.0182173
0.0180085
0.0179947
0.0182226
0.0187839
0.0198403
0.0216761
0.0248037
0.0301656
0.0395753
0.056955
0.0938068
0.208222
0.736821
2.71087
0.0202379
0.0195552
0.0191452
0.0189265
0.0188943
0.019091
0.019605
0.0205954
0.0223435
0.0253705
0.0306619
0.0401574
0.0580889
0.0965744
0.215468
0.759104
2.9158
0.0209595
0.0204827
0.0201379
0.0199264
0.019871
0.0200214
0.0204616
0.0213394
0.0229171
0.0256924
0.0306407
0.0397419
0.0573817
0.0958029
0.212865
0.74674
3.02774
0.0221667
0.0215903
0.0212447
0.0210258
0.0209423
0.0210398
0.0213926
0.0221327
0.0234925
0.025921
0.0303317
0.0386505
0.0552517
0.0921433
0.202168
0.70438
3.03574
0.0230977
0.022737
0.0224454
0.0222311
0.0221235
0.0221697
0.0224353
0.0230335
0.0241636
0.026212
0.029993
0.0372938
0.0523293
0.0866264
0.186851
0.641954
2.93833
0.0244358
0.0240294
0.0237591
0.0235518
0.0234285
0.0234321
0.0236196
0.0240865
0.0250019
0.0266896
0.0298478
0.036078
0.0493172
0.0805029
0.170897
0.572657
2.75447
0.0256551
0.0254134
0.0251853
0.0249962
0.0248694
0.0248432
0.0249674
0.0253226
0.0260515
0.0274231
0.030025
0.0352536
0.0466954
0.0746239
0.156218
0.505306
2.51053
0.0271062
0.026914
0.0267307
0.0265723
0.0264577
0.0264191
0.0264996
0.0267683
0.0273451
0.0284554
0.0305921
0.0349567
0.0447642
0.0695492
0.143481
0.444987
2.23402
0.0286555
0.0285302
0.0284034
0.0282894
0.0282026
0.0281695
0.0282268
0.0284331
0.028889
0.0297834
0.0315262
0.0351337
0.0434117
0.0649877
0.130595
0.391929
1.9657
0.0303159
0.0302701
0.0302132
0.0301592
0.0301178
0.0301104
0.0301671
0.0303373
0.0307049
0.0314281
0.032847
0.0358107
0.0427211
0.0612039
0.118947
0.346989
1.72202
0.032098
0.0321453
0.0321759
0.0321996
0.0322231
0.0322633
0.0323444
0.0325068
0.0328209
0.0334181
0.0345823
0.0370208
0.0427696
0.0584919
0.108957
0.308294
1.50921
0.0340151
0.0341755
0.0343105
0.0344322
0.0345424
0.0346546
0.034787
0.0349725
0.0352684
0.0357846
0.0367583
0.0387809
0.0435705
0.0568923
0.100729
0.277086
1.32882
0.0360854
0.0363766
0.0366393
0.0368827
0.0371052
0.0373167
0.0375304
0.0377719
0.0380877
0.038569
0.0394147
0.0411233
0.0451523
0.0564947
0.0947158
0.251715
1.17934
0.0383245
0.0387777
0.0391926
0.0395847
0.0399482
0.0402898
0.0406181
0.0409521
0.0413283
0.0418216
0.0425984
0.0440817
0.0475164
0.0572397
0.0906992
0.231376
1.05733
0.040763
0.0414013
0.0420017
0.042576
0.0431155
0.0436238
0.0441053
0.0445729
0.0450544
0.0456096
0.0463768
0.047715
0.0506919
0.0590855
0.088464
0.214806
0.958746
0.0434185
0.0442911
0.0451129
0.0459076
0.0466637
0.0473816
0.0480615
0.0487108
0.0493487
0.0500216
0.0508426
0.0521142
0.0547513
0.0620501
0.0879026
0.201533
0.879545
0.0463522
0.0474792
0.0485705
0.0496351
0.050659
0.0516395
0.052573
0.0534617
0.054317
0.0551725
0.0561184
0.0574057
0.059813
0.0662098
0.0889863
0.191433
0.81607
0.0495681
0.051029
0.0524426
0.0538336
0.0551855
0.0564924
0.0577466
0.058945
0.0600917
0.0612085
0.0623638
0.063761
0.0660533
0.0717185
0.0917749
0.184282
0.765235
0.0531659
0.0549843
0.0567914
0.0585831
0.0603404
0.0620541
0.0637127
0.0653083
0.0668382
0.0683137
0.0697832
0.0714055
0.0737171
0.0788307
0.0964972
0.180163
0.724548
0.0571484
0.0594391
0.0617136
0.0639898
0.0662443
0.0684632
0.0706304
0.0727331
0.0747621
0.0767196
0.0786362
0.0806305
0.0831297
0.0879008
0.103481
0.178983
0.692025
0.0616371
0.0644489
0.0672995
0.0701703
0.0730388
0.0758864
0.0786934
0.0814421
0.0841182
0.0867161
0.0892524
0.0918108
0.0947191
0.0994147
0.113244
0.18108
0.666152
0.0666533
0.0701396
0.0736767
0.077272
0.080896
0.084526
0.0881378
0.0917096
0.0952234
0.0986684
0.102052
0.105431
0.109048
0.114032
0.126546
0.187116
0.645796
0.0723345
0.0765894
0.080976
0.085462
0.0900215
0.0946275
0.0992533
0.103875
0.108474
0.113038
0.117572
0.12212
0.12686
0.132644
0.144472
0.198238
0.630149
0.0787167
0.0839521
0.089363
0.0949446
0.100663
0.10649
0.112397
0.118361
0.124368
0.130413
0.136511
0.142708
0.14915
0.156469
0.16855
0.216255
0.618667
0.0859487
0.0923321
0.0990139
0.105952
0.113117
0.120478
0.128009
0.135696
0.143536
0.151549
0.159776
0.168298
0.177273
0.187196
0.200958
0.243953
0.611036
0.0940739
0.1019
0.110133
0.118754
0.127728
0.137026
0.14663
0.156541
0.166785
0.177427
0.188572
0.200383
0.213103
0.227222
0.24486
0.285622
0.607138
0.103239
0.112781
0.122933
0.133647
0.144895
0.156653
0.168919
0.181723
0.195145
0.209332
0.224511
0.24101
0.259288
0.280032
0.304988
0.348027
0.607005
0.113488
0.125149
0.137647
0.150961
0.165068
0.179959
0.195661
0.212261
0.229929
0.248953
0.269777
0.293044
0.319644
0.350827
0.388641
0.442142
0.610766
0.124964
0.139149
0.154523
0.171055
0.188746
0.207624
0.227775
0.249386
0.272784
0.298503
0.327357
0.360548
0.399806
0.447592
0.507492
0.586356
0.618536
0.137725
0.154971
0.17383
0.194321
0.216485
0.24042
0.266329
0.294574
0.325766
0.360865
0.401338
0.449386
0.508294
0.582991
0.680937
0.812313
0.630249
0.151997
0.17285
0.195901
0.221211
0.24891
0.279225
0.312561
0.349601
0.391447
0.439818
0.497357
0.568111
0.658328
0.777866
0.942748
1.17808
0.645349
0.0561826
0.0575512
0.0591791
0.0610279
0.0631753
0.0656614
0.0684872
0.0717385
0.0754471
0.0796902
0.0844589
0.0898572
0.0959148
0.102692
0.110206
0.118524
0.127642
0.137644
0.148501
0.16043
0.175707
0.190716
0.205078
0.219086
0.232597
0.245184
0.256375
0.265657
0.272563
0.276715
0.277845
0.275862
0.270836
0.263026
0.252808
0.240644
0.227059
0.212565
0.197655
0.182756
0.168208
0.0625767
0.063947
0.0656376
0.0675353
0.0698209
0.0724233
0.0754678
0.0789551
0.0829735
0.0875858
0.0928335
0.0987867
0.105497
0.113037
0.121448
0.130784
0.141091
0.15242
0.164807
0.178448
0.195945
0.213256
0.229953
0.24654
0.262712
0.277991
0.291773
0.303431
0.312349
0.318014
0.320086
0.318418
0.313081
0.304335
0.29262
0.278495
0.262594
0.245553
0.227979
0.210395
0.193242
0.0707314
0.0720831
0.0737247
0.0756762
0.0780019
0.0807528
0.0839805
0.0877438
0.0920995
0.0971239
0.102888
0.109457
0.116899
0.125293
0.134711
0.145211
0.156857
0.169712
0.183833
0.199434
0.219431
0.239389
0.258831
0.278352
0.297616
0.316004
0.332783
0.347173
0.358421
0.365878
0.369069
0.367763
0.362006
0.352085
0.338518
0.321983
0.303251
0.283113
0.26231
0.241496
0.221207
0.0810484
0.0822905
0.0838614
0.0857976
0.0881729
0.0910419
0.0944691
0.0985167
0.103248
0.108737
0.115069
0.122333
0.130602
0.139969
0.150524
0.16235
0.175521
0.190115
0.206212
0.224049
0.24686
0.269849
0.292452
0.315355
0.338146
0.360098
0.380335
0.397902
0.41186
0.421379
0.425834
0.424887
0.41855
0.407143
0.391278
0.371781
0.349596
0.325696
0.300999
0.276308
0.252279
0.0940963
0.0951622
0.0966059
0.0984926
0.100893
0.103871
0.107498
0.111844
0.116986
0.122999
0.129976
0.138024
0.147238
0.157718
0.169575
0.182916
0.197834
0.214424
0.232782
0.253174
0.279168
0.30562
0.331832
0.358595
0.385415
0.411444
0.435637
0.456838
0.473886
0.485734
0.491573
0.490936
0.483793
0.470501
0.45179
0.428665
0.402286
0.373851
0.344488
0.315183
0.286733
0.110766
0.111554
0.112791
0.114564
0.116946
0.120013
0.123837
0.128501
0.134091
0.140698
0.148417
0.157363
0.167662
0.179429
0.192789
0.207871
0.224799
0.243682
0.264635
0.28795
0.31755
0.347955
0.378269
0.409416
0.440812
0.471465
0.500139
0.525442
0.545957
0.56038
0.567684
0.567251
0.558994
0.543321
0.521106
0.493572
0.462142
0.428285
0.393385
0.358644
0.32502
0.132285
0.132641
0.133548
0.135121
0.137427
0.140542
0.144559
0.149565
0.155655
0.162932
0.171508
0.181502
0.193058
0.206319
0.221427
0.238532
0.257775
0.279301
0.303244
0.329897
0.36359
0.398495
0.433455
0.469556
0.506105
0.54195
0.575634
0.605502
0.629837
0.647044
0.655837
0.655426
0.645661
0.62701
0.600523
0.567686
0.530238
0.489975
0.448579
0.407504
0.367895
0.160427
0.160125
0.160525
0.161758
0.163899
0.167022
0.171217
0.176585
0.183233
0.191276
0.200841
0.212062
0.225087
0.240087
0.257226
0.276677
0.298618
0.323222
0.350648
0.381151
0.419406
0.459421
0.499616
0.541269
0.583565
0.625166
0.664372
0.69923
0.727689
0.74782
0.758052
0.757397
0.745637
0.723317
0.691694
0.652569
0.608052
0.56032
0.511402
0.463041
0.416586
0.197811
0.196522
0.196151
0.196844
0.198673
0.20172
0.206068
0.211821
0.219095
0.228017
0.238725
0.251374
0.266127
0.283169
0.302696
0.324905
0.35
0.37818
0.409631
0.444627
0.487892
0.533676
0.579716
0.627526
0.676144
0.724027
0.769206
0.809399
0.842193
0.865295
0.876819
0.875565
0.861244
0.834491
0.79681
0.75036
0.697679
0.641377
0.583879
0.527244
0.47305
0.24835
0.245605
0.244082
0.243939
0.24524
0.248068
0.252506
0.258649
0.26662
0.276553
0.288597
0.302922
0.319712
0.339167
0.361504
0.386948
0.415724
0.448052
0.484137
0.52427
0.57314
0.625284
0.677766
0.732294
0.787738
0.842326
0.8938
0.939534
0.976728
1.00271
1.01527
1.01297
0.995471
0.963505
0.918846
0.864058
0.802148
0.736206
0.669085
0.603194
0.540352
0.317981
0.313124
0.309913
0.30851
0.30897
0.311363
0.31577
0.322282
0.331011
0.342097
0.355699
0.371992
0.391179
0.413477
0.439115
0.468337
0.501386
0.538492
0.579866
0.62579
0.680848
0.739861
0.799291
0.860967
0.923566
0.985075
1.04294
1.09418
1.13561
1.1642
1.17739
1.17356
1.15227
1.11438
1.06195
0.997963
0.925916
0.8494
0.771723
0.695657
0.623283
0.415921
0.40806
0.402426
0.399175
0.398345
0.399988
0.404171
0.410976
0.420502
0.432882
0.448274
0.46686
0.488843
0.514453
0.543925
0.577507
0.615441
0.657955
0.705242
0.757543
0.819227
0.885406
0.952049
1.02101
1.09075
1.15901
1.22295
1.27928
1.32447
1.35513
1.36843
1.36254
1.33698
1.2927
1.23203
1.15835
1.07562
0.987934
0.899037
0.812073
0.729392
0.556842
0.544832
0.535813
0.529934
0.527207
0.527655
0.53132
0.538262
0.548567
0.562346
0.579739
0.600921
0.626088
0.655457
0.689253
0.727711
0.771044
0.819447
0.873063
0.932052
1.00041
1.07357
1.14717
1.22296
1.29917
1.37335
1.4424
1.50279
1.55072
1.58259
1.59532
1.58696
1.55696
1.50635
1.43764
1.35451
1.26133
1.16256
1.06238
0.964265
0.870828
0.764831
0.747361
0.733823
0.724375
0.718993
0.717662
0.720391
0.727203
0.738149
0.75331
0.772793
0.796732
0.825293
0.858656
0.897006
0.94052
0.989354
1.04362
1.10337
1.16864
1.24283
1.32177
1.40102
1.48203
1.56288
1.64095
1.71304
1.77548
1.82442
1.85615
1.86754
1.85656
1.82262
1.76672
1.69142
1.60052
1.49855
1.39023
1.27996
1.17153
1.06775
1.08081
1.05687
1.03783
1.02394
1.01516
1.01141
1.01268
1.01891
1.03013
1.04634
1.0676
1.09398
1.12555
1.16243
1.2047
1.25246
1.30573
1.3645
1.42868
1.4981
1.57538
1.65683
1.73832
1.82081
1.90231
1.98021
2.05139
2.11234
2.15938
2.189
2.19822
2.18507
2.1489
2.09058
2.01247
1.91813
1.81189
1.69837
1.58198
1.46659
1.35506
1.57704
1.5475
1.52333
1.50513
1.49286
1.48643
1.48575
1.49075
1.50134
1.51748
1.5391
1.56618
1.59867
1.63655
1.67976
1.72825
1.78189
1.8405
1.90381
1.97145
2.04498
2.12151
2.19764
2.27375
2.348
2.41806
2.48125
2.53462
2.57508
2.59971
2.60601
2.59226
2.55782
2.50325
2.43032
2.34187
2.24148
2.13308
2.02057
1.9075
1.79631
2.38696
2.35953
2.33585
2.31755
2.30464
2.2971
2.29481
2.29768
2.30556
2.31832
2.33582
2.35791
2.38443
2.41521
2.45008
2.48883
2.5312
2.57691
2.6256
2.67683
2.73103
2.78657
2.84135
2.89527
2.94704
2.99513
3.03783
3.0733
3.09965
3.11508
3.11803
3.10738
3.0826
3.04382
2.99192
2.92842
2.8554
2.77523
2.69043
2.60344
2.51499
0.439131
0.246688
0.0614796
0.0311231
0.0209852
0.016734
0.0149339
0.0143303
0.0143972
0.0148611
0.0155681
0.0164648
0.0175021
0.0186327
0.0198138
0.021018
0.0222372
0.587654
0.308979
0.0768725
0.0379005
0.0248748
0.0192172
0.0166499
0.0156176
0.015405
0.015664
0.0162388
0.0170382
0.0179973
0.0190585
0.0201671
0.0212759
0.0223653
0.76327
0.391646
0.096506
0.0459249
0.0293612
0.0220412
0.0185679
0.0170162
0.016489
0.0165562
0.0169974
0.0176932
0.0185689
0.019565
0.0206224
0.0216776
0.0226577
0.988183
0.481919
0.119663
0.0551148
0.0344705
0.0252662
0.0207577
0.0185968
0.0177048
0.0175419
0.0178262
0.0184059
0.0191908
0.0201179
0.0211345
0.0221961
0.0232741
1.26672
0.582175
0.145927
0.0652654
0.0400636
0.0287827
0.0231208
0.0202918
0.0190024
0.0185902
0.0187045
0.0191569
0.0198376
0.0206728
0.0215999
0.0225599
0.0235079
1.60396
0.686398
0.173868
0.0759081
0.0458465
0.0323577
0.0255153
0.0220147
0.0203262
0.0196665
0.0196149
0.0199437
0.0205245
0.0212766
0.0221355
0.02303
0.0238563
1.98757
0.784949
0.201254
0.0861619
0.0512512
0.0356773
0.0277462
0.0236383
0.021601
0.0207269
0.0205303
0.0207476
0.0212354
0.0219086
0.0227119
0.0236018
0.024523
2.4026
0.86682
0.224047
0.0945544
0.0556744
0.0383941
0.0296087
0.0250496
0.0227639
0.0217375
0.0214308
0.0215559
0.021958
0.0225466
0.0232652
0.0240756
0.0249311
2.81305
0.915652
0.237638
0.099934
0.0586154
0.0402494
0.0309735
0.0261888
0.0237845
0.0226807
0.0223076
0.0223665
0.0226986
0.0232123
0.0238514
0.0245791
0.0253036
3.16531
0.923521
0.240123
0.101846
0.0598597
0.041162
0.0318203
0.0270524
0.0246653
0.0235578
0.0231602
0.0231779
0.0234562
0.0239071
0.0244789
0.025164
0.0259247
3.41578
0.891791
0.232534
0.100648
0.0595184
0.0412231
0.0322203
0.0276898
0.0254361
0.0243858
0.0239971
0.0239935
0.0242307
0.0246257
0.025125
0.0257329
0.0264583
3.53933
0.82928
0.218001
0.0970443
0.0579335
0.0406455
0.0323119
0.0281825
0.0261425
0.02519
0.0248328
0.0248221
0.025028
0.0253751
0.0258071
0.0263245
0.0268952
3.52491
0.747082
0.200091
0.091985
0.0555266
0.0397115
0.0322594
0.0286215
0.0268341
0.0259988
0.025684
0.025674
0.0258546
0.0261598
0.0265349
0.0269901
0.0275302
3.38149
0.655259
0.181559
0.0860854
0.0527821
0.0386936
0.0322107
0.0290863
0.0275556
0.0268391
0.0265678
0.0265603
0.0267172
0.0269818
0.0273018
0.027688
0.0281625
3.13655
0.56306
0.165198
0.0799062
0.0501101
0.0378152
0.032282
0.0296398
0.0283438
0.0277345
0.0275012
0.0274928
0.027624
0.0278457
0.0281112
0.0284274
0.0287592
2.82368
0.481636
0.151933
0.0742242
0.0478248
0.037227
0.0325478
0.0303261
0.0292289
0.0287058
0.028499
0.0284819
0.0285823
0.0287572
0.0289681
0.0292204
0.0294792
2.47984
0.423535
0.140338
0.0695835
0.0461761
0.0370347
0.033055
0.0311686
0.0302254
0.0297633
0.0295686
0.0295333
0.0295956
0.0297188
0.0298722
0.0300571
0.0302438
2.1458
0.38367
0.129313
0.0655739
0.0449822
0.0371517
0.0337721
0.0321606
0.0313382
0.030917
0.0307197
0.0306552
0.0306708
0.0307349
0.0308232
0.0309356
0.0310477
1.8493
0.350501
0.119564
0.0622814
0.0442975
0.0376066
0.0347254
0.0333287
0.0325902
0.0321853
0.031967
0.0318583
0.031815
0.0318103
0.0318265
0.0318621
0.0318924
1.59683
0.320588
0.111014
0.0598112
0.0441636
0.0384275
0.0359381
0.0346937
0.033999
0.0335822
0.0333207
0.0331498
0.0330326
0.0329472
0.0328798
0.0328263
0.0327708
1.38776
0.289365
0.103059
0.0580552
0.044556
0.0396162
0.0374225
0.0362717
0.0355799
0.0351203
0.0347905
0.0345365
0.0343278
0.0341464
0.0339819
0.0338301
0.0336824
1.21784
0.259984
0.0961575
0.0570665
0.0454714
0.0411794
0.0391926
0.0380774
0.0373462
0.0368106
0.0363848
0.0360238
0.035703
0.0354087
0.0351336
0.0348752
0.0346261
1.08156
0.236307
0.0911731
0.0570508
0.0469788
0.0431573
0.0412792
0.0401347
0.0393164
0.038666
0.0381116
0.0376159
0.0371597
0.0367328
0.0363299
0.0359483
0.0355877
0.973145
0.215823
0.0877756
0.0579342
0.0490729
0.0455651
0.0437031
0.0424645
0.0415073
0.0406983
0.0399782
0.039317
0.0386997
0.0381186
0.0375697
0.0370535
0.03657
0.887279
0.200352
0.0860537
0.0597264
0.0517826
0.0484387
0.046497
0.0450918
0.0439364
0.0429196
0.0419922
0.0411302
0.0403223
0.0395628
0.0388499
0.0381861
0.0375662
0.819395
0.188621
0.0858889
0.0624499
0.0551588
0.0518287
0.0497026
0.0480487
0.0466271
0.0453454
0.0441625
0.0430595
0.0420273
0.0410611
0.0401603
0.0393226
0.0385523
0.765748
0.180333
0.0872679
0.0661745
0.0592804
0.0558033
0.0533735
0.0513747
0.0496073
0.0479943
0.0465012
0.0451116
0.0438172
0.0426137
0.0414992
0.0404727
0.0395398
0.723347
0.175059
0.0902637
0.071029
0.0642632
0.0604541
0.057578
0.0551194
0.0529124
0.0508909
0.0490238
0.0472951
0.0456958
0.0442202
0.0428662
0.0416369
0.040526
0.689804
0.172609
0.0950539
0.0772051
0.0702654
0.0659011
0.0624043
0.0593471
0.056588
0.0540667
0.0517514
0.0496234
0.0476702
0.0458826
0.0442573
0.0427884
0.0414787
0.663272
0.173089
0.101964
0.084984
0.0775012
0.0723021
0.0679679
0.0641411
0.0606937
0.0575635
0.0547126
0.0521154
0.0497526
0.047609
0.0456766
0.043947
0.0424268
0.642333
0.17695
0.111506
0.0947618
0.0862587
0.0798662
0.07442
0.0696099
0.0653066
0.0614355
0.057945
0.0547967
0.05196
0.0494098
0.0471318
0.0451259
0.0433778
0.62592
0.185049
0.124435
0.107088
0.0969296
0.0888737
0.0819607
0.0758959
0.0705274
0.0657535
0.061498
0.0577016
0.0543163
0.0513009
0.0486332
0.0462988
0.0442874
0.613254
0.19881
0.141865
0.122735
0.110054
0.0997053
0.0908583
0.0831875
0.076488
0.0706096
0.0654359
0.0608754
0.0568536
0.0533063
0.050196
0.0474986
0.0452135
0.603821
0.220508
0.165416
0.142798
0.126389
0.112886
0.101477
0.0917369
0.083363
0.0761247
0.0698427
0.0643767
0.0596136
0.0554562
0.0518437
0.0487629
0.0461878
0.597352
0.253799
0.1975
0.168878
0.14702
0.129157
0.114322
0.101888
0.0913872
0.0824595
0.0748291
0.0682824
0.0626513
0.0577912
0.0536113
0.050075
0.0471287
0.593788
0.304537
0.241798
0.203375
0.173543
0.149583
0.130106
0.114121
0.100884
0.0898336
0.0805448
0.0726962
0.0660402
0.0603664
0.0555379
0.0514789
0.0481549
0.593222
0.382365
0.30413
0.250012
0.208379
0.175751
0.149876
0.129128
0.112315
0.0985553
0.0871985
0.0777609
0.0698798
0.0632546
0.057677
0.0530613
0.0493644
0.595798
0.503762
0.394113
0.314774
0.255327
0.210098
0.175207
0.147937
0.126354
0.109072
0.0950887
0.0836786
0.0743089
0.0665554
0.0601117
0.0548441
0.0505842
0.601535
0.69786
0.528342
0.407714
0.320597
0.256515
0.20857
0.17213
0.144026
0.122053
0.10466
0.0907483
0.0795305
0.0704095
0.0629432
0.0568679
0.0520168
0.610074
1.01902
0.737257
0.546657
0.414821
0.32146
0.253955
0.204223
0.166949
0.138563
0.116626
0.0994552
0.0858778
0.0750464
0.0663287
0.0593329
0.0538763
0.0240099
0.0311742
0.0651836
0.181793
0.499474
1.24108
2.93136
6.91739
11.5573
8.36787
4.3448
5.5724
18.4844
8.71329
2.47385
0.433948
0.071736
0.022785
0.015787
0.0149546
0.0251154
0.03504
0.07915
0.224238
0.609529
1.54075
3.84589
9.12987
13.0998
8.4063
5.21302
7.37967
17.1562
7.46682
1.97409
0.352073
0.0677693
0.0241903
0.0166074
0.0154721
0.0264707
0.0401649
0.0972476
0.276594
0.744209
1.92091
5.01717
11.3233
13.5648
8.33417
6.30218
9.46118
15.8699
6.18013
1.47061
0.284121
0.0682379
0.0269462
0.0177664
0.0160715
0.0282184
0.047102
0.120887
0.341227
0.909571
2.41149
6.49534
13.038
13.172
8.24811
7.77151
11.7436
13.5446
4.81347
1.06604
0.249926
0.0767383
0.0320127
0.0195133
0.016803
0.0305861
0.0566861
0.152
0.421369
1.11436
3.05249
8.20644
13.9345
12.3612
8.27958
9.05409
12.3825
10.4543
3.52824
0.870903
0.263638
0.0972905
0.0406616
0.0222622
0.0177596
0.0339452
0.0701818
0.193249
0.521634
1.37237
3.83037
9.91998
14.1383
11.4692
8.49142
9.54427
11.1651
7.41133
2.53133
0.825985
0.325103
0.133406
0.0548835
0.026679
0.0190884
0.038909
0.0895208
0.248368
0.649226
1.70272
4.75407
11.4425
13.9047
10.7439
8.53635
9.10231
8.82796
5.00978
2.01976
0.918134
0.436338
0.1913
0.0777436
0.0338691
0.0210506
0.0465059
0.117651
0.322473
0.814225
2.13425
5.81474
12.6301
13.4614
10.1165
8.20309
7.90427
6.37639
3.60558
1.94441
1.12394
0.602606
0.279524
0.114253
0.0457679
0.0241258
0.058495
0.159108
0.422899
1.02786
2.68807
6.96787
13.4004
12.9703
9.43088
7.45483
6.44344
4.81229
3.10157
2.13042
1.40743
0.825959
0.409927
0.172866
0.0660133
0.0292669
0.0779214
0.220907
0.560422
1.30902
3.34134
8.1541
13.7299
12.5424
8.86755
6.75398
5.31152
3.98387
3.11842
2.45435
1.75775
1.11367
0.598503
0.268031
0.101681
0.0385205
0.110075
0.313674
0.751686
1.68472
4.103
9.18786
13.6758
12.2501
8.69657
6.38889
4.70698
3.71339
3.28197
2.90588
2.21383
1.48804
0.868329
0.422987
0.166675
0.0564459
0.164223
0.453935
1.0179
2.18731
4.90686
9.87042
13.3658
12.0679
8.83406
6.43992
4.617
3.8383
3.82178
3.54605
2.82818
2.00221
1.25593
0.671681
0.286593
0.0933126
0.256593
0.66772
1.39345
2.80518
5.65027
10.1218
12.8886
11.8656
8.90592
6.51366
4.85
4.39173
4.67626
4.50496
3.72047
2.75296
1.82872
1.06632
0.505369
0.171835
0.415517
0.99501
1.92813
3.52443
6.1857
9.91927
12.2346
11.551
9.02414
6.7986
5.29463
5.05879
5.63165
5.66145
4.91538
3.84142
2.69791
1.69762
0.896338
0.340145
0.691509
1.49651
2.63872
4.22795
6.35678
9.39996
11.421
11.1078
9.14464
7.08544
5.88316
5.57811
6.20253
6.65637
6.25466
5.29678
4.01385
2.71413
1.58865
0.695847
1.16977
2.26922
3.50342
4.69283
6.13912
8.66406
10.4221
10.5214
9.14249
7.52115
6.54447
6.20719
6.58801
7.20253
7.336
6.77152
5.78546
4.364
2.81029
1.43528
2.01079
3.37941
4.28172
4.65169
5.69545
7.80051
9.31023
9.78817
9.14091
8.10302
7.34932
7.03394
7.22983
7.60281
7.88131
7.77968
7.42728
6.60917
4.96816
2.96305
3.41957
4.66015
4.4953
4.1887
5.20353
6.89398
8.19402
9.00208
9.08733
8.70022
8.26925
7.98388
7.88812
7.9551
8.08617
8.18523
8.32852
8.49352
7.91208
6.07269
5.25976
5.10732
3.81645
3.71414
4.87276
6.22469
7.54205
8.61545
9.20139
9.33966
9.23509
9.00691
8.75385
8.50092
8.4294
8.5379
8.71914
9.12319
9.71974
10.1628
2.14521
2.35253
2.52051
3.80585
6.14114
8.20645
11.1103
13.3572
15.0914
16.0013
16.1322
15.694
14.877
13.7378
12.5573
11.4652
10.2904
8.82885
6.8144
3.58743
2.5069
12.0148
3.75554
1.14169
0.379691
0.139613
0.0634022
0.0384502
0.0293179
0.0251746
0.0227652
0.0210852
0.0198014
0.0187855
0.0179621
0.0172779
0.0166943
0.0161846
0.015717
0.0152793
2.07543
7.30284
1.89331
0.568762
0.19056
0.0768978
0.042246
0.0309578
0.0264253
0.023972
0.022295
0.0210115
0.0199847
0.0191458
0.0184477
0.0178549
0.0173376
0.0168747
0.0164347
0.0160098
1.54426
4.59664
1.03555
0.301225
0.106539
0.0505812
0.0339159
0.028167
0.0254515
0.023736
0.0224498
0.0214177
0.0205671
0.0198545
0.0192491
0.0187254
0.0182598
0.0178333
0.0174141
0.0169926
1.12948
2.60575
0.560002
0.168127
0.0680896