/*--------------------------------*- C++ -*----------------------------------*\
  =========                 |
  \\      /  F ield         | OpenFOAM: The Open Source CFD Toolbox
   \\    /   O peration     | Website:  https://openfoam.org
    \\  /    A nd           | Version:  6
     \\/     M anipulation  |
\*---------------------------------------------------------------------------*/
FoamFile
{
    version     2.0;
    format      ascii;
    class       volVectorField;
    location    "2.89";
    object      U;
}
// * * * * * * * * * * * * * * * * * * * * * * * * * * * * * * * * * * * * * //

dimensions      [0 1 -1 0 0 0 0];

internalField   nonuniform List<vector> 
5625
(
(0.894438 0.371391 0)
(0.912418 0.352913 0)
(0.935067 0.331058 0)
(0.962659 0.305687 0)
(0.995627 0.276914 0)
(1.03431 0.245427 0)
(1.07865 0.212674 0)
(1.12805 0.180816 0)
(1.18142 0.152469 0)
(1.23735 0.130355 0)
(1.29426 0.11698 0)
(1.35046 0.114333 0)
(1.40419 0.12367 0)
(1.45384 0.145597 0)
(1.49797 0.18007 0)
(1.53521 0.226064 0)
(1.56442 0.281705 0)
(1.58487 0.344958 0)
(1.59608 0.413685 0)
(1.59736 0.484881 0)
(1.58805 0.554814 0)
(1.56827 0.620267 0)
(1.53898 0.679002 0)
(1.50139 0.728952 0)
(1.45657 0.767723 0)
(1.40577 0.793202 0)
(1.35087 0.80445 0)
(1.29442 0.802052 0)
(1.23908 0.787859 0)
(1.18705 0.764425 0)
(1.13976 0.734472 0)
(1.09807 0.700495 0)
(1.06249 0.664617 0)
(1.03327 0.628603 0)
(1.01023 0.593928 0)
(0.992712 0.561836 0)
(0.979623 0.533325 0)
(0.969604 0.509087 0)
(0.961328 0.489453 0)
(0.953753 0.474371 0)
(0.946266 0.463435 0)
(0.938695 0.455996 0)
(0.931192 0.451285 0)
(0.92406 0.448543 0)
(0.91761 0.447116 0)
(0.912056 0.446499 0)
(0.907485 0.446335 0)
(0.903873 0.446393 0)
(0.901119 0.446537 0)
(0.899084 0.446698 0)
(0.89762 0.446839 0)
(0.896592 0.446952 0)
(0.895883 0.447035 0)
(0.895402 0.447093 0)
(0.895078 0.447132 0)
(0.894862 0.447157 0)
(0.894718 0.447174 0)
(0.894621 0.447184 0)
(0.894554 0.44719 0)
(0.894509 0.447193 0)
(0.894477 0.447196 0)
(0.894455 0.447197 0)
(0.894438 0.447198 0)
(0.894427 0.447199 0)
(0.894419 0.447199 0)
(0.894413 0.447199 0)
(0.894409 0.4472 0)
(0.894406 0.4472 0)
(0.894404 0.4472 0)
(0.894403 0.4472 0)
(0.894402 0.4472 0)
(0.894401 0.4472 0)
(0.894401 0.4472 0)
(0.8944 0.4472 0)
(0.8944 0.4472 0)
(0.891121 0.377699 0)
(0.907634 0.361589 0)
(0.928744 0.342624 0)
(0.954591 0.320746 0)
(0.98546 0.296099 0)
(1.02166 0.2692 0)
(1.06327 0.241146 0)
(1.10991 0.213665 0)
(1.16072 0.188984 0)
(1.21443 0.169547 0)
(1.26947 0.157655 0)
(1.32408 0.155148 0)
(1.37648 0.163261 0)
(1.42507 0.18268 0)
(1.4683 0.213369 0)
(1.5047 0.254311 0)
(1.53315 0.303875 0)
(1.55298 0.360331 0)
(1.56357 0.421558 0)
(1.56419 0.484613 0)
(1.55451 0.546293 0)
(1.53501 0.604057 0)
(1.50667 0.655914 0)
(1.47048 0.699707 0)
(1.4274 0.733113 0)
(1.3787 0.754397 0)
(1.32637 0.763028 0)
(1.2729 0.759755 0)
(1.22075 0.746284 0)
(1.17185 0.724843 0)
(1.12746 0.697773 0)
(1.08838 0.667219 0)
(1.05511 0.63503 0)
(1.02784 0.602775 0)
(1.00634 0.571797 0)
(0.989927 0.543256 0)
(0.97748 0.518083 0)
(0.967707 0.496909 0)
(0.959396 0.480008 0)
(0.951651 0.467279 0)
(0.943996 0.458289 0)
(0.936354 0.452386 0)
(0.928917 0.448832 0)
(0.921979 0.446925 0)
(0.91581 0.446075 0)
(0.910576 0.445842 0)
(0.906321 0.445924 0)
(0.902992 0.446138 0)
(0.900476 0.446379 0)
(0.898628 0.446597 0)
(0.897306 0.446773 0)
(0.896381 0.446907 0)
(0.895745 0.447003 0)
(0.895313 0.44707 0)
(0.895023 0.447115 0)
(0.894828 0.447145 0)
(0.894697 0.447164 0)
(0.894608 0.447176 0)
(0.894547 0.447184 0)
(0.894504 0.447189 0)
(0.894474 0.447193 0)
(0.894453 0.447195 0)
(0.894437 0.447197 0)
(0.894426 0.447198 0)
(0.894418 0.447199 0)
(0.894412 0.447199 0)
(0.894408 0.447199 0)
(0.894406 0.4472 0)
(0.894404 0.4472 0)
(0.894402 0.4472 0)
(0.894402 0.4472 0)
(0.894401 0.4472 0)
(0.894401 0.4472 0)
(0.8944 0.4472 0)
(0.8944 0.4472 0)
(0.887824 0.383433 0)
(0.902674 0.369463 0)
(0.922001 0.35313 0)
(0.945893 0.334396 0)
(0.974506 0.313425 0)
(1.00803 0.290654 0)
(1.04656 0.266943 0)
(1.08987 0.243653 0)
(1.13731 0.222622 0)
(1.18782 0.205936 0)
(1.23992 0.195621 0)
(1.29192 0.193368 0)
(1.3421 0.200414 0)
(1.38883 0.217465 0)
(1.43045 0.244441 0)
(1.46548 0.280429 0)
(1.49289 0.324114 0)
(1.51195 0.373962 0)
(1.5219 0.427857 0)
(1.52213 0.483094 0)
(1.51266 0.537065 0)
(1.49412 0.587695 0)
(1.46732 0.633037 0)
(1.43304 0.670887 0)
(1.39221 0.699164 0)
(1.34623 0.716571 0)
(1.29713 0.722911 0)
(1.2473 0.718995 0)
(1.19893 0.706352 0)
(1.1537 0.686899 0)
(1.11271 0.662626 0)
(1.07669 0.635365 0)
(1.0461 0.606719 0)
(1.0211 0.578083 0)
(1.00139 0.550685 0)
(0.986242 0.525599 0)
(0.974557 0.503684 0)
(0.965122 0.485505 0)
(0.956864 0.471267 0)
(0.949043 0.460812 0)
(0.941323 0.453677 0)
(0.933715 0.449216 0)
(0.92644 0.446729 0)
(0.919774 0.445573 0)
(0.913944 0.445229 0)
(0.909067 0.445323 0)
(0.90515 0.44561 0)
(0.902116 0.445948 0)
(0.899841 0.446263 0)
(0.898181 0.446524 0)
(0.896999 0.446726 0)
(0.896175 0.446874 0)
(0.895609 0.44698 0)
(0.895225 0.447052 0)
(0.894967 0.447102 0)
(0.894793 0.447134 0)
(0.894675 0.447156 0)
(0.894594 0.44717 0)
(0.894538 0.44718 0)
(0.894499 0.447186 0)
(0.894471 0.44719 0)
(0.894451 0.447193 0)
(0.894436 0.447195 0)
(0.894425 0.447197 0)
(0.894418 0.447198 0)
(0.894412 0.447199 0)
(0.894408 0.447199 0)
(0.894406 0.447199 0)
(0.894404 0.4472 0)
(0.894402 0.4472 0)
(0.894402 0.4472 0)
(0.894401 0.4472 0)
(0.894401 0.4472 0)
(0.8944 0.4472 0)
(0.8944 0.4472 0)
(0.884709 0.388605 0)
(0.897775 0.376504 0)
(0.915135 0.362517 0)
(0.936878 0.346591 0)
(0.963075 0.32887 0)
(0.993813 0.30974 0)
(1.02912 0.289903 0)
(1.06883 0.270451 0)
(1.11246 0.252869 0)
(1.1591 0.238871 0)
(1.20746 0.230189 0)
(1.25601 0.228351 0)
(1.30316 0.234534 0)
(1.34725 0.249376 0)
(1.38661 0.272795 0)
(1.41983 0.304091 0)
(1.44593 0.342221 0)
(1.46405 0.385739 0)
(1.4734 0.432615 0)
(1.47359 0.480542 0)
(1.46485 0.527435 0)
(1.44774 0.571437 0)
(1.42282 0.610568 0)
(1.39077 0.642729 0)
(1.3526 0.666213 0)
(1.30984 0.680145 0)
(1.26453 0.684555 0)
(1.21885 0.68023 0)
(1.17471 0.668502 0)
(1.13352 0.651 0)
(1.09627 0.629404 0)
(1.06361 0.605272 0)
(1.03596 0.579991 0)
(1.01343 0.554805 0)
(0.995646 0.530838 0)
(0.981854 0.509084 0)
(0.970989 0.490324 0)
(0.961944 0.475039 0)
(0.953802 0.46336 0)
(0.94599 0.455066 0)
(0.938305 0.449667 0)
(0.930833 0.446527 0)
(0.923811 0.444994 0)
(0.917489 0.444493 0)
(0.912047 0.444577 0)
(0.907557 0.44494 0)
(0.903992 0.445389 0)
(0.901258 0.44582 0)
(0.899223 0.446187 0)
(0.897748 0.446478 0)
(0.896703 0.446696 0)
(0.895976 0.446853 0)
(0.895479 0.446964 0)
(0.895141 0.44704 0)
(0.894913 0.447091 0)
(0.894758 0.447126 0)
(0.894653 0.447149 0)
(0.89458 0.447165 0)
(0.89453 0.447176 0)
(0.894493 0.447183 0)
(0.894467 0.447188 0)
(0.894448 0.447192 0)
(0.894434 0.447194 0)
(0.894424 0.447196 0)
(0.894417 0.447197 0)
(0.894412 0.447198 0)
(0.894408 0.447199 0)
(0.894405 0.447199 0)
(0.894403 0.447199 0)
(0.894402 0.4472 0)
(0.894401 0.4472 0)
(0.894401 0.4472 0)
(0.894401 0.4472 0)
(0.8944 0.4472 0)
(0.8944 0.4472 0)
(0.881904 0.393266 0)
(0.893138 0.38274 0)
(0.908429 0.370782 0)
(0.927874 0.357315 0)
(0.951518 0.342443 0)
(0.979379 0.326492 0)
(1.01142 0.310044 0)
(1.04746 0.293989 0)
(1.08708 0.279515 0)
(1.12953 0.268015 0)
(1.1737 0.260939 0)
(1.21829 0.25962 0)
(1.26181 0.265098 0)
(1.30265 0.277926 0)
(1.33924 0.29809 0)
(1.3703 0.325098 0)
(1.39483 0.358058 0)
(1.41184 0.395602 0)
(1.42065 0.435935 0)
(1.42108 0.477182 0)
(1.41336 0.517592 0)
(1.39783 0.555382 0)
(1.37491 0.58861 0)
(1.3453 0.61544 0)
(1.31015 0.634588 0)
(1.27106 0.645512 0)
(1.22995 0.648355 0)
(1.18875 0.643828 0)
(1.1491 0.633067 0)
(1.11219 0.61745 0)
(1.07887 0.598387 0)
(1.04974 0.577195 0)
(1.02517 0.555081 0)
(1.00518 0.533159 0)
(0.989371 0.512461 0)
(0.976941 0.493899 0)
(0.966897 0.478165 0)
(0.958261 0.465649 0)
(0.950286 0.456392 0)
(0.942564 0.450111 0)
(0.93501 0.446297 0)
(0.927771 0.444337 0)
(0.921085 0.443632 0)
(0.91517 0.443681 0)
(0.910156 0.444113 0)
(0.906074 0.444684 0)
(0.902868 0.445253 0)
(0.900431 0.445749 0)
(0.898632 0.44615 0)
(0.897336 0.446456 0)
(0.896421 0.446682 0)
(0.895788 0.446843 0)
(0.895354 0.446955 0)
(0.89506 0.447032 0)
(0.894861 0.447085 0)
(0.894725 0.447121 0)
(0.894632 0.447145 0)
(0.894566 0.447161 0)
(0.89452 0.447173 0)
(0.894487 0.447181 0)
(0.894463 0.447187 0)
(0.894445 0.447191 0)
(0.894432 0.447194 0)
(0.894423 0.447196 0)
(0.894416 0.447197 0)
(0.894411 0.447198 0)
(0.894407 0.447199 0)
(0.894405 0.447199 0)
(0.894403 0.447199 0)
(0.894402 0.4472 0)
(0.894401 0.4472 0)
(0.894401 0.4472 0)
(0.894401 0.4472 0)
(0.8944 0.4472 0)
(0.8944 0.4472 0)
(0.879535 0.397503 0)
(0.888924 0.38825 0)
(0.902111 0.37798 0)
(0.919194 0.366606 0)
(0.940203 0.354189 0)
(0.965122 0.340981 0)
(0.993871 0.327459 0)
(1.02625 0.314341 0)
(1.06187 0.30258 0)
(1.10006 0.293305 0)
(1.13991 0.287717 0)
(1.18029 0.286932 0)
(1.21983 0.291817 0)
(1.25705 0.302873 0)
(1.29057 0.320159 0)
(1.31922 0.343302 0)
(1.3419 0.371502 0)
(1.35767 0.403539 0)
(1.366 0.437927 0)
(1.36678 0.473132 0)
(1.36008 0.507573 0)
(1.34607 0.539529 0)
(1.32519 0.567243 0)
(1.29823 0.589238 0)
(1.26642 0.6046 0)
(1.23131 0.613001 0)
(1.19466 0.614614 0)
(1.15813 0.610052 0)
(1.12306 0.60028 0)
(1.09049 0.586457 0)
(1.06115 0.569764 0)
(1.0356 0.551316 0)
(1.01413 0.532164 0)
(0.996673 0.513317 0)
(0.982774 0.49572 0)
(0.971649 0.480197 0)
(0.962385 0.467342 0)
(0.954156 0.457438 0)
(0.94639 0.450434 0)
(0.938834 0.445991 0)
(0.931509 0.443589 0)
(0.924596 0.442647 0)
(0.918323 0.442635 0)
(0.912864 0.443126 0)
(0.908305 0.443825 0)
(0.90464 0.444546 0)
(0.901793 0.445194 0)
(0.899649 0.445728 0)
(0.898076 0.446144 0)
(0.896949 0.446455 0)
(0.896158 0.446681 0)
(0.895611 0.446841 0)
(0.895237 0.446952 0)
(0.894983 0.447028 0)
(0.89481 0.447081 0)
(0.894692 0.447117 0)
(0.89461 0.447142 0)
(0.894552 0.447159 0)
(0.894511 0.447171 0)
(0.894481 0.447179 0)
(0.894459 0.447185 0)
(0.894442 0.44719 0)
(0.89443 0.447193 0)
(0.894421 0.447195 0)
(0.894415 0.447197 0)
(0.89441 0.447198 0)
(0.894407 0.447199 0)
(0.894405 0.447199 0)
(0.894403 0.447199 0)
(0.894402 0.4472 0)
(0.894401 0.4472 0)
(0.894401 0.4472 0)
(0.894401 0.4472 0)
(0.8944 0.4472 0)
(0.8944 0.4472 0)
(0.877708 0.401401 0)
(0.88528 0.393145 0)
(0.896377 0.38423 0)
(0.911092 0.374577 0)
(0.929454 0.364215 0)
(0.951427 0.353328 0)
(0.976902 0.34229 0)
(1.00567 0.331667 0)
(1.03734 0.322221 0)
(1.07137 0.314872 0)
(1.10695 0.31059 0)
(1.14306 0.310279 0)
(1.1785 0.314664 0)
(1.21199 0.324192 0)
(1.24233 0.338948 0)
(1.26836 0.358617 0)
(1.289 0.3825 0)
(1.30346 0.409582 0)
(1.31132 0.438654 0)
(1.31237 0.468391 0)
(1.30653 0.497327 0)
(1.29396 0.523888 0)
(1.27518 0.546607 0)
(1.25107 0.564371 0)
(1.22282 0.576529 0)
(1.19188 0.582859 0)
(1.15978 0.583526 0)
(1.12791 0.579061 0)
(1.09739 0.57028 0)
(1.06909 0.558149 0)
(1.04368 0.543657 0)
(1.02164 0.527753 0)
(1.00317 0.511365 0)
(0.988136 0.495408 0)
(0.976027 0.480745 0)
(0.966096 0.468101 0)
(0.957544 0.457955 0)
(0.94971 0.450479 0)
(0.942196 0.44553 0)
(0.934888 0.44272 0)
(0.927882 0.441533 0)
(0.92138 0.44144 0)
(0.91558 0.441979 0)
(0.910614 0.442806 0)
(0.906525 0.443693 0)
(0.903279 0.444511 0)
(0.900783 0.445201 0)
(0.898918 0.445749 0)
(0.897559 0.446166 0)
(0.896592 0.446473 0)
(0.895915 0.446692 0)
(0.895448 0.446847 0)
(0.895129 0.446954 0)
(0.894912 0.447028 0)
(0.894764 0.44708 0)
(0.894661 0.447115 0)
(0.89459 0.44714 0)
(0.894539 0.447157 0)
(0.894502 0.447169 0)
(0.894474 0.447178 0)
(0.894454 0.447184 0)
(0.894439 0.447189 0)
(0.894428 0.447192 0)
(0.89442 0.447195 0)
(0.894414 0.447196 0)
(0.89441 0.447198 0)
(0.894407 0.447198 0)
(0.894404 0.447199 0)
(0.894403 0.447199 0)
(0.894402 0.4472 0)
(0.894401 0.4472 0)
(0.894401 0.4472 0)
(0.8944 0.4472 0)
(0.8944 0.4472 0)
(0.8944 0.4472 0)
(0.8765 0.40506 0)
(0.882324 0.397558 0)
(0.891383 0.389688 0)
(0.903784 0.381395 0)
(0.919542 0.372691 0)
(0.938612 0.363708 0)
(0.960877 0.354724 0)
(0.986123 0.34618 0)
(1.014 0.338679 0)
(1.04399 0.332949 0)
(1.07541 0.329755 0)
(1.10734 0.32983 0)
(1.13876 0.333783 0)
(1.16857 0.341985 0)
(1.19568 0.354499 0)
(1.21897 0.371063 0)
(1.23753 0.391114 0)
(1.25067 0.413816 0)
(1.25796 0.438145 0)
(1.2591 0.462924 0)
(1.25399 0.48684 0)
(1.24286 0.508556 0)
(1.2263 0.526916 0)
(1.20518 0.541088 0)
(1.18061 0.550585 0)
(1.15386 0.555238 0)
(1.12624 0.555198 0)
(1.09889 0.55093 0)
(1.07275 0.543124 0)
(1.04855 0.532581 0)
(1.02691 0.520125 0)
(1.00821 0.506576 0)
(0.992561 0.492767 0)
(0.979749 0.479531 0)
(0.969247 0.467636 0)
(0.960369 0.457699 0)
(0.95245 0.450072 0)
(0.945002 0.444808 0)
(0.93779 0.441682 0)
(0.93081 0.440277 0)
(0.924211 0.440098 0)
(0.918189 0.440677 0)
(0.912909 0.441631 0)
(0.908459 0.442692 0)
(0.904845 0.443696 0)
(0.902008 0.444562 0)
(0.899847 0.445263 0)
(0.898246 0.445805 0)
(0.897087 0.446209 0)
(0.896266 0.446503 0)
(0.895693 0.446712 0)
(0.895299 0.446859 0)
(0.89503 0.446961 0)
(0.894846 0.447032 0)
(0.89472 0.447081 0)
(0.894632 0.447115 0)
(0.89457 0.447139 0)
(0.894525 0.447156 0)
(0.894492 0.447169 0)
(0.894468 0.447177 0)
(0.89445 0.447184 0)
(0.894436 0.447189 0)
(0.894426 0.447192 0)
(0.894418 0.447195 0)
(0.894413 0.447196 0)
(0.894409 0.447198 0)
(0.894406 0.447198 0)
(0.894404 0.447199 0)
(0.894403 0.447199 0)
(0.894402 0.4472 0)
(0.894401 0.4472 0)
(0.894401 0.4472 0)
(0.8944 0.4472 0)
(0.8944 0.4472 0)
(0.8944 0.4472 0)
(0.87595 0.408587 0)
(0.88014 0.401632 0)
(0.887257 0.394522 0)
(0.897426 0.387253 0)
(0.910673 0.379835 0)
(0.926946 0.372355 0)
(0.946121 0.365016 0)
(0.967987 0.358157 0)
(0.992224 0.352239 0)
(1.01837 0.347817 0)
(1.0458 0.345495 0)
(1.07375 0.345866 0)
(1.10131 0.349417 0)
(1.12754 0.356434 0)
(1.15144 0.366959 0)
(1.17203 0.380797 0)
(1.18853 0.397492 0)
(1.20032 0.416336 0)
(1.20693 0.436435 0)
(1.20805 0.45677 0)
(1.20366 0.47623 0)
(1.19405 0.493739 0)
(1.17981 0.5084 0)
(1.16173 0.519579 0)
(1.14079 0.526891 0)
(1.1181 0.530204 0)
(1.09474 0.52966 0)
(1.07166 0.525666 0)
(1.04963 0.518809 0)
(1.0293 0.509753 0)
(1.01117 0.499186 0)
(0.995555 0.487829 0)
(0.982466 0.476435 0)
(0.971621 0.465757 0)
(0.962508 0.456466 0)
(0.954531 0.449045 0)
(0.947175 0.443715 0)
(0.940118 0.440418 0)
(0.933263 0.438859 0)
(0.926692 0.438615 0)
(0.920576 0.439231 0)
(0.915092 0.440309 0)
(0.910363 0.441547 0)
(0.906436 0.442749 0)
(0.903287 0.443808 0)
(0.900841 0.444681 0)
(0.898996 0.445367 0)
(0.897638 0.445887 0)
(0.896662 0.44627 0)
(0.895973 0.446545 0)
(0.895494 0.44674 0)
(0.895166 0.446876 0)
(0.894941 0.446971 0)
(0.894786 0.447037 0)
(0.89468 0.447083 0)
(0.894605 0.447116 0)
(0.894551 0.447139 0)
(0.894512 0.447156 0)
(0.894483 0.447168 0)
(0.894461 0.447177 0)
(0.894445 0.447184 0)
(0.894433 0.447189 0)
(0.894424 0.447192 0)
(0.894417 0.447195 0)
(0.894412 0.447196 0)
(0.894408 0.447198 0)
(0.894405 0.447198 0)
(0.894404 0.447199 0)
(0.894402 0.447199 0)
(0.894402 0.4472 0)
(0.894401 0.4472 0)
(0.894401 0.4472 0)
(0.8944 0.4472 0)
(0.8944 0.4472 0)
(0.8944 0.4472 0)
(0.876053 0.412063 0)
(0.87877 0.405502 0)
(0.884078 0.398921 0)
(0.892144 0.392375 0)
(0.90301 0.385896 0)
(0.916629 0.379545 0)
(0.932876 0.373468 0)
(0.95155 0.367914 0)
(0.972349 0.363224 0)
(0.994864 0.359818 0)
(1.01855 0.358167 0)
(1.04274 0.358732 0)
(1.06666 0.361877 0)
(1.08946 0.367819 0)
(1.11028 0.376602 0)
(1.12829 0.388066 0)
(1.1428 0.40182 0)
(1.15322 0.417261 0)
(1.1591 0.433634 0)
(1.16021 0.450088 0)
(1.1566 0.465714 0)
(1.14858 0.479661 0)
(1.13666 0.491242 0)
(1.12154 0.499955 0)
(1.10407 0.50549 0)
(1.0852 0.507748 0)
(1.0658 0.506876 0)
(1.04664 0.503228 0)
(1.02839 0.497297 0)
(1.0116 0.489636 0)
(0.996679 0.480833 0)
(0.983827 0.47153 0)
(0.972977 0.46241 0)
(0.963811 0.45414 0)
(0.955858 0.447273 0)
(0.948638 0.442154 0)
(0.941791 0.43887 0)
(0.935147 0.43726 0)
(0.928715 0.436993 0)
(0.922628 0.437658 0)
(0.917057 0.438859 0)
(0.912148 0.440275 0)
(0.907981 0.44168 0)
(0.904568 0.442943 0)
(0.901865 0.444003 0)
(0.899786 0.444851 0)
(0.898231 0.445502 0)
(0.897096 0.445988 0)
(0.896283 0.446341 0)
(0.895713 0.446594 0)
(0.895317 0.446772 0)
(0.895046 0.446897 0)
(0.89486 0.446984 0)
(0.894732 0.447045 0)
(0.894643 0.447088 0)
(0.894579 0.447119 0)
(0.894534 0.447141 0)
(0.8945 0.447157 0)
(0.894474 0.447169 0)
(0.894455 0.447178 0)
(0.894441 0.447184 0)
(0.89443 0.447189 0)
(0.894421 0.447192 0)
(0.894415 0.447195 0)
(0.894411 0.447196 0)
(0.894407 0.447198 0)
(0.894405 0.447198 0)
(0.894403 0.447199 0)
(0.894402 0.447199 0)
(0.894401 0.4472 0)
(0.894401 0.4472 0)
(0.894401 0.4472 0)
(0.8944 0.4472 0)
(0.8944 0.4472 0)
(0.8944 0.4472 0)
(0.876764 0.415553 0)
(0.878204 0.40929 0)
(0.881882 0.403066 0)
(0.88801 0.396992 0)
(0.896658 0.391143 0)
(0.907795 0.385582 0)
(0.92131 0.380414 0)
(0.937007 0.37581 0)
(0.954613 0.372021 0)
(0.973759 0.369358 0)
(0.993972 0.368177 0)
(1.01466 0.368813 0)
(1.03517 0.371531 0)
(1.05478 0.376501 0)
(1.07273 0.38376 0)
(1.08832 0.393154 0)
(1.10093 0.404337 0)
(1.11003 0.416816 0)
(1.11525 0.429981 0)
(1.11643 0.443128 0)
(1.11366 0.455527 0)
(1.10721 0.466516 0)
(1.0975 0.475563 0)
(1.08516 0.482265 0)
(1.0709 0.486373 0)
(1.05551 0.487831 0)
(1.03969 0.486786 0)
(1.02409 0.48355 0)
(1.00924 0.478528 0)
(0.995622 0.472185 0)
(0.983532 0.465045 0)
(0.973074 0.457688 0)
(0.964113 0.45072 0)
(0.956329 0.444705 0)
(0.949323 0.44006 0)
(0.942745 0.436991 0)
(0.936384 0.435463 0)
(0.93019 0.435242 0)
(0.924247 0.435981 0)
(0.918708 0.437309 0)
(0.913725 0.438899 0)
(0.909406 0.440508 0)
(0.905795 0.44198 0)
(0.902877 0.443237 0)
(0.90059 0.444258 0)
(0.898849 0.445055 0)
(0.897556 0.445657 0)
(0.896618 0.4461 0)
(0.895951 0.446419 0)
(0.895485 0.446647 0)
(0.895163 0.446807 0)
(0.894941 0.446919 0)
(0.894789 0.446998 0)
(0.894684 0.447054 0)
(0.89461 0.447094 0)
(0.894556 0.447122 0)
(0.894517 0.447143 0)
(0.894488 0.447158 0)
(0.894466 0.44717 0)
(0.894449 0.447178 0)
(0.894436 0.447184 0)
(0.894427 0.447189 0)
(0.894419 0.447192 0)
(0.894413 0.447195 0)
(0.894409 0.447196 0)
(0.894406 0.447198 0)
(0.894404 0.447198 0)
(0.894403 0.447199 0)
(0.894402 0.447199 0)
(0.894401 0.4472 0)
(0.894401 0.4472 0)
(0.894401 0.4472 0)
(0.8944 0.4472 0)
(0.8944 0.4472 0)
(0.8944 0.4472 0)
(0.877987 0.419076 0)
(0.878393 0.413089 0)
(0.880656 0.407111 0)
(0.885041 0.401326 0)
(0.891665 0.395855 0)
(0.900523 0.390784 0)
(0.911519 0.386202 0)
(0.924481 0.382231 0)
(0.939162 0.379047 0)
(0.955224 0.376875 0)
(0.972254 0.37596 0)
(0.989754 0.376542 0)
(1.00715 0.378815 0)
(1.02383 0.382904 0)
(1.03915 0.388813 0)
(1.05251 0.396392 0)
(1.06336 0.405358 0)
(1.07127 0.415318 0)
(1.07595 0.425774 0)
(1.07728 0.436152 0)
(1.07533 0.445877 0)
(1.07035 0.454441 0)
(1.06268 0.461427 0)
(1.05286 0.466513 0)
(1.0415 0.469509 0)
(1.0292 0.470397 0)
(1.01656 0.469325 0)
(1.0041 0.466558 0)
(0.992251 0.462438 0)
(0.981391 0.457369 0)
(0.971726 0.451819 0)
(0.963267 0.446311 0)
(0.955844 0.441369 0)
(0.949167 0.437431 0)
(0.942932 0.434775 0)
(0.93692 0.433468 0)
(0.931046 0.433376 0)
(0.92535 0.434229 0)
(0.919955 0.435694 0)
(0.915009 0.437455 0)
(0.910635 0.43926 0)
(0.906904 0.440939 0)
(0.903828 0.442397 0)
(0.901371 0.443599 0)
(0.899466 0.44455 0)
(0.898027 0.445278 0)
(0.896968 0.445821 0)
(0.896204 0.446217 0)
(0.895664 0.446501 0)
(0.895287 0.446702 0)
(0.895028 0.446843 0)
(0.89485 0.446943 0)
(0.894727 0.447014 0)
(0.894641 0.447064 0)
(0.89458 0.4471 0)
(0.894535 0.447127 0)
(0.894502 0.447146 0)
(0.894477 0.44716 0)
(0.894458 0.447171 0)
(0.894443 0.447179 0)
(0.894432 0.447185 0)
(0.894423 0.447189 0)
(0.894417 0.447193 0)
(0.894412 0.447195 0)
(0.894408 0.447197 0)
(0.894406 0.447198 0)
(0.894404 0.447199 0)
(0.894403 0.447199 0)
(0.894402 0.447199 0)
(0.894401 0.4472 0)
(0.894401 0.4472 0)
(0.8944 0.4472 0)
(0.8944 0.4472 0)
(0.8944 0.4472 0)
(0.8944 0.4472 0)
(0.879592 0.422613 0)
(0.879227 0.416938 0)
(0.88033 0.411176 0)
(0.883207 0.405571 0)
(0.888026 0.400295 0)
(0.894826 0.395472 0)
(0.903541 0.391202 0)
(0.914026 0.387584 0)
(0.926054 0.384736 0)
(0.939332 0.382811 0)
(0.953499 0.381978 0)
(0.968127 0.382395 0)
(0.982723 0.384202 0)
(0.996763 0.38747 0)
(1.00971 0.392172 0)
(1.02106 0.398179 0)
(1.03036 0.405266 0)
(1.03724 0.413114 0)
(1.04147 0.421309 0)
(1.04297 0.429398 0)
(1.0418 0.436942 0)
(1.03813 0.443548 0)
(1.03228 0.448882 0)
(1.0247 0.452696 0)
(1.01588 0.454861 0)
(1.00629 0.45539 0)
(0.996399 0.454424 0)
(0.986635 0.452191 0)
(0.977359 0.448984 0)
(0.968832 0.445161 0)
(0.961171 0.441147 0)
(0.954324 0.437396 0)
(0.948114 0.434328 0)
(0.942312 0.432251 0)
(0.936723 0.431301 0)
(0.931243 0.43143 0)
(0.925881 0.43244 0)
(0.920731 0.434055 0)
(0.915929 0.435983 0)
(0.911601 0.437976 0)
(0.907834 0.439852 0)
(0.904667 0.441505 0)
(0.90209 0.442887 0)
(0.900054 0.443997 0)
(0.89849 0.444858 0)
(0.89732 0.445508 0)
(0.896464 0.445987 0)
(0.89585 0.446334 0)
(0.895419 0.446582 0)
(0.895119 0.446757 0)
(0.894913 0.446881 0)
(0.894771 0.446968 0)
(0.894672 0.44703 0)
(0.894603 0.447075 0)
(0.894553 0.447108 0)
(0.894516 0.447131 0)
(0.894488 0.447149 0)
(0.894467 0.447163 0)
(0.894451 0.447173 0)
(0.894438 0.44718 0)
(0.894428 0.447186 0)
(0.894421 0.44719 0)
(0.894415 0.447193 0)
(0.89441 0.447195 0)
(0.894407 0.447197 0)
(0.894405 0.447198 0)
(0.894403 0.447199 0)
(0.894402 0.447199 0)
(0.894402 0.447199 0)
(0.894401 0.4472 0)
(0.894401 0.4472 0)
(0.8944 0.4472 0)
(0.8944 0.4472 0)
(0.8944 0.4472 0)
(0.8944 0.4472 0)
(0.881418 0.426083 0)
(0.880549 0.420805 0)
(0.88077 0.415304 0)
(0.882408 0.409855 0)
(0.885678 0.40468 0)
(0.890667 0.399947 0)
(0.897351 0.395777 0)
(0.905617 0.392272 0)
(0.915275 0.389523 0)
(0.926073 0.387634 0)
(0.937695 0.386714 0)
(0.94977 0.386866 0)
(0.961882 0.388174 0)
(0.97359 0.390663 0)
(0.984451 0.394293 0)
(0.99404 0.398952 0)
(1.00198 0.404458 0)
(1.00797 0.410543 0)
(1.01183 0.416874 0)
(1.01349 0.423101 0)
(1.01299 0.428892 0)
(1.01047 0.433939 0)
(1.00621 0.437979 0)
(1.00056 0.440828 0)
(0.993905 0.442415 0)
(0.986618 0.442779 0)
(0.979063 0.442046 0)
(0.971576 0.440414 0)
(0.964432 0.438141 0)
(0.957802 0.435551 0)
(0.951729 0.433015 0)
(0.946134 0.430901 0)
(0.940867 0.429514 0)
(0.935774 0.429027 0)
(0.930757 0.429454 0)
(0.925807 0.430669 0)
(0.920992 0.432448 0)
(0.916428 0.434537 0)
(0.91224 0.4367 0)
(0.908527 0.438757 0)
(0.905345 0.440591 0)
(0.902706 0.442147 0)
(0.900582 0.443412 0)
(0.898921 0.444407 0)
(0.897657 0.445168 0)
(0.896719 0.445735 0)
(0.896037 0.446149 0)
(0.895552 0.446447 0)
(0.895212 0.44666 0)
(0.894976 0.44681 0)
(0.894815 0.446917 0)
(0.894703 0.446992 0)
(0.894626 0.447047 0)
(0.89457 0.447086 0)
(0.89453 0.447115 0)
(0.8945 0.447137 0)
(0.894476 0.447153 0)
(0.894458 0.447165 0)
(0.894444 0.447175 0)
(0.894433 0.447182 0)
(0.894425 0.447187 0)
(0.894418 0.447191 0)
(0.894413 0.447194 0)
(0.894409 0.447196 0)
(0.894406 0.447197 0)
(0.894404 0.447198 0)
(0.894403 0.447199 0)
(0.894402 0.447199 0)
(0.894401 0.447199 0)
(0.894401 0.4472 0)
(0.894401 0.4472 0)
(0.8944 0.4472 0)
(0.8944 0.4472 0)
(0.8944 0.4472 0)
(0.8944 0.4472 0)
(0.883318 0.429389 0)
(0.882175 0.424604 0)
(0.881797 0.419469 0)
(0.882491 0.414231 0)
(0.884493 0.409151 0)
(0.887941 0.404438 0)
(0.892862 0.400239 0)
(0.899182 0.396674 0)
(0.906752 0.393842 0)
(0.915358 0.391819 0)
(0.924737 0.390673 0)
(0.934574 0.390463 0)
(0.944515 0.39123 0)
(0.954194 0.392977 0)
(0.96324 0.395654 0)
(0.971298 0.399157 0)
(0.978057 0.403328 0)
(0.983281 0.407948 0)
(0.98682 0.41276 0)
(0.988607 0.417499 0)
(0.98867 0.421904 0)
(0.987135 0.425736 0)
(0.984214 0.428798 0)
(0.980179 0.430965 0)
(0.975325 0.432206 0)
(0.969944 0.432574 0)
(0.964315 0.432185 0)
(0.958688 0.431213 0)
(0.953253 0.429893 0)
(0.94811 0.428506 0)
(0.943257 0.427355 0)
(0.938617 0.42671 0)
(0.934088 0.426752 0)
(0.929593 0.427535 0)
(0.925117 0.428986 0)
(0.92071 0.430937 0)
(0.916471 0.433175 0)
(0.912514 0.435487 0)
(0.908939 0.437699 0)
(0.905818 0.439693 0)
(0.90318 0.441405 0)
(0.901018 0.442815 0)
(0.899297 0.443939 0)
(0.897964 0.444809 0)
(0.896958 0.445466 0)
(0.896217 0.44595 0)
(0.895682 0.446302 0)
(0.895304 0.446554 0)
(0.895041 0.446733 0)
(0.894859 0.446861 0)
(0.894733 0.446951 0)
(0.894646 0.447016 0)
(0.894585 0.447063 0)
(0.894541 0.447097 0)
(0.894509 0.447123 0)
(0.894484 0.447142 0)
(0.894465 0.447157 0)
(0.89445 0.447168 0)
(0.894438 0.447177 0)
(0.894429 0.447183 0)
(0.894421 0.447188 0)
(0.894416 0.447192 0)
(0.894411 0.447194 0)
(0.894408 0.447196 0)
(0.894406 0.447197 0)
(0.894404 0.447198 0)
(0.894403 0.447199 0)
(0.894402 0.447199 0)
(0.894401 0.4472 0)
(0.894401 0.4472 0)
(0.8944 0.4472 0)
(0.8944 0.4472 0)
(0.8944 0.4472 0)
(0.8944 0.4472 0)
(0.8944 0.4472 0)
(0.885162 0.432445 0)
(0.883933 0.428224 0)
(0.8832 0.423559 0)
(0.883239 0.418654 0)
(0.884278 0.413747 0)
(0.886478 0.40907 0)
(0.889914 0.404812 0)
(0.894564 0.401114 0)
(0.900328 0.398085 0)
(0.907035 0.395803 0)
(0.914465 0.394321 0)
(0.922356 0.393677 0)
(0.930416 0.39388 0)
(0.938337 0.394914 0)
(0.945813 0.396731 0)
(0.95255 0.399236 0)
(0.958298 0.402286 0)
(0.962862 0.405703 0)
(0.966109 0.409293 0)
(0.967978 0.412854 0)
(0.968493 0.416183 0)
(0.967754 0.419094 0)
(0.965926 0.421452 0)
(0.963205 0.423183 0)
(0.959806 0.424281 0)
(0.955951 0.424801 0)
(0.951852 0.42485 0)
(0.947686 0.424585 0)
(0.943573 0.424206 0)
(0.939559 0.423946 0)
(0.935625 0.424027 0)
(0.931719 0.424612 0)
(0.927795 0.425772 0)
(0.923843 0.427474 0)
(0.919901 0.429596 0)
(0.916052 0.431965 0)
(0.912399 0.434396 0)
(0.909041 0.436731 0)
(0.906053 0.438854 0)
(0.90348 0.440696 0)
(0.901333 0.442234 0)
(0.899592 0.443475 0)
(0.89822 0.444447 0)
(0.897167 0.445189 0)
(0.896379 0.445743 0)
(0.895803 0.44615 0)
(0.89539 0.446443 0)
(0.8951 0.446652 0)
(0.894899 0.446801 0)
(0.89476 0.446908 0)
(0.894665 0.446984 0)
(0.894599 0.447038 0)
(0.894551 0.447078 0)
(0.894517 0.447108 0)
(0.894491 0.447131 0)
(0.894471 0.447148 0)
(0.894455 0.447161 0)
(0.894443 0.447171 0)
(0.894432 0.447179 0)
(0.894424 0.447185 0)
(0.894418 0.447189 0)
(0.894413 0.447192 0)
(0.89441 0.447195 0)
(0.894407 0.447196 0)
(0.894405 0.447198 0)
(0.894403 0.447198 0)
(0.894402 0.447199 0)
(0.894401 0.447199 0)
(0.894401 0.4472 0)
(0.894401 0.4472 0)
(0.8944 0.4472 0)
(0.8944 0.4472 0)
(0.8944 0.4472 0)
(0.8944 0.4472 0)
(0.8944 0.4472 0)
(0.886856 0.435187 0)
(0.885672 0.431559 0)
(0.884785 0.427446 0)
(0.884417 0.422993 0)
(0.884778 0.418388 0)
(0.886032 0.413853 0)
(0.888284 0.409595 0)
(0.891555 0.40578 0)
(0.895793 0.402533 0)
(0.900878 0.399946 0)
(0.906639 0.398079 0)
(0.912863 0.396962 0)
(0.919307 0.396598 0)
(0.92572 0.39696 0)
(0.931845 0.398 0)
(0.937446 0.399632 0)
(0.942317 0.401738 0)
(0.946293 0.404176 0)
(0.94926 0.406796 0)
(0.951166 0.409438 0)
(0.952024 0.41195 0)
(0.951905 0.414195 0)
(0.950926 0.416085 0)
(0.949226 0.417582 0)
(0.946959 0.418696 0)
(0.944285 0.419477 0)
(0.941354 0.420021 0)
(0.938286 0.420462 0)
(0.935153 0.420962 0)
(0.931975 0.421688 0)
(0.928738 0.422775 0)
(0.925423 0.424292 0)
(0.922029 0.42623 0)
(0.918593 0.428502 0)
(0.915185 0.430972 0)
(0.911896 0.433486 0)
(0.908819 0.435904 0)
(0.906031 0.438117 0)
(0.903585 0.440058 0)
(0.901505 0.441696 0)
(0.899788 0.443034 0)
(0.89841 0.444096 0)
(0.897334 0.444916 0)
(0.896515 0.445536 0)
(0.895907 0.445995 0)
(0.895467 0.446329 0)
(0.895154 0.446569 0)
(0.894935 0.446741 0)
(0.894784 0.446863 0)
(0.89468 0.44695 0)
(0.894609 0.447013 0)
(0.894559 0.447059 0)
(0.894523 0.447093 0)
(0.894496 0.447119 0)
(0.894476 0.447138 0)
(0.89446 0.447153 0)
(0.894447 0.447165 0)
(0.894436 0.447174 0)
(0.894428 0.447181 0)
(0.894421 0.447186 0)
(0.894416 0.44719 0)
(0.894411 0.447193 0)
(0.894408 0.447195 0)
(0.894406 0.447197 0)
(0.894404 0.447198 0)
(0.894403 0.447199 0)
(0.894402 0.447199 0)
(0.894401 0.447199 0)
(0.894401 0.4472 0)
(0.894401 0.4472 0)
(0.8944 0.4472 0)
(0.8944 0.4472 0)
(0.8944 0.4472 0)
(0.8944 0.4472 0)
(0.8944 0.4472 0)
(0.888347 0.437575 0)
(0.887283 0.434539 0)
(0.886384 0.431011 0)
(0.885814 0.42709 0)
(0.885746 0.422918 0)
(0.886337 0.418675 0)
(0.887695 0.414547 0)
(0.889879 0.410711 0)
(0.892879 0.407314 0)
(0.896619 0.404462 0)
(0.900973 0.402232 0)
(0.90578 0.400663 0)
(0.910848 0.399765 0)
(0.915972 0.399513 0)
(0.920943 0.399861 0)
(0.925565 0.400743 0)
(0.929667 0.402063 0)
(0.933113 0.403712 0)
(0.935805 0.405567 0)
(0.937693 0.407506 0)
(0.93878 0.409415 0)
(0.939107 0.411204 0)
(0.938749 0.412814 0)
(0.937801 0.414226 0)
(0.936372 0.415455 0)
(0.934574 0.41655 0)
(0.932505 0.417588 0)
(0.930239 0.418672 0)
(0.92782 0.419915 0)
(0.925261 0.421415 0)
(0.922566 0.42323 0)
(0.919748 0.425357 0)
(0.916842 0.427737 0)
(0.913909 0.430265 0)
(0.911029 0.432816 0)
(0.908283 0.435269 0)
(0.905749 0.437527 0)
(0.903482 0.439526 0)
(0.901519 0.441232 0)
(0.899867 0.442643 0)
(0.898517 0.443775 0)
(0.897445 0.444662 0)
(0.896615 0.445339 0)
(0.89599 0.445845 0)
(0.89553 0.446218 0)
(0.895198 0.446488 0)
(0.894965 0.446681 0)
(0.894803 0.44682 0)
(0.894692 0.446918 0)
(0.894616 0.446989 0)
(0.894564 0.44704 0)
(0.894526 0.447078 0)
(0.894499 0.447107 0)
(0.894479 0.447129 0)
(0.894462 0.447146 0)
(0.894449 0.447159 0)
(0.894439 0.447169 0)
(0.89443 0.447177 0)
(0.894423 0.447183 0)
(0.894418 0.447188 0)
(0.894413 0.447191 0)
(0.89441 0.447194 0)
(0.894407 0.447196 0)
(0.894405 0.447197 0)
(0.894403 0.447198 0)
(0.894402 0.447199 0)
(0.894402 0.447199 0)
(0.894401 0.447199 0)
(0.894401 0.4472 0)
(0.8944 0.4472 0)
(0.8944 0.4472 0)
(0.8944 0.4472 0)
(0.8944 0.4472 0)
(0.8944 0.4472 0)
(0.8944 0.4472 0)
(0.889617 0.4396 0)
(0.888704 0.437115 0)
(0.887878 0.434175 0)
(0.887248 0.430829 0)
(0.886949 0.427175 0)
(0.887114 0.423345 0)
(0.887853 0.419498 0)
(0.889226 0.415793 0)
(0.891259 0.412381 0)
(0.893922 0.409385 0)
(0.897129 0.406891 0)
(0.90076 0.404955 0)
(0.904671 0.403603 0)
(0.908702 0.402828 0)
(0.912687 0.402598 0)
(0.916462 0.402858 0)
(0.919887 0.403537 0)
(0.922846 0.404553 0)
(0.925253 0.405813 0)
(0.927061 0.407223 0)
(0.928261 0.4087 0)
(0.928873 0.410187 0)
(0.928936 0.411645 0)
(0.928511 0.413062 0)
(0.92767 0.414452 0)