/*--------------------------------*- C++ -*----------------------------------*\
  =========                 |
  \\      /  F ield         | OpenFOAM: The Open Source CFD Toolbox
   \\    /   O peration     | Website:  https://openfoam.org
    \\  /    A nd           | Version:  6
     \\/     M anipulation  |
\*---------------------------------------------------------------------------*/
FoamFile
{
    version     2.0;
    format      ascii;
    class       volScalarField;
    location    "4.19";
    object      rho;
}
// * * * * * * * * * * * * * * * * * * * * * * * * * * * * * * * * * * * * * //

dimensions      [1 -3 0 0 0 0 0];

internalField   nonuniform List<scalar> 
10000
(
1.4
1.4
1.4
1.4
1.40001
1.4
1.40001
1.40001
1.4
1.40001
1.40001
1.4
1.40001
1.4
1.40001
1.4
1.40001
1.4
1.40001
1.40001
1.40001
1.4
1.40001
1.4
1.40001
1.40001
1.4
1.40001
1.40001
1.4
1.40001
1.4
1.4
1.40001
1.40001
1.40001
1.40001
1.40001
1.40001
1.40001
1.40001
1.40001
1.40001
1.40001
1.40002
1.40001
1.40001
1.4
1.39999
1.39998
1.39996
1.39994
1.39993
1.39994
1.39997
1.40004
1.40016
1.40034
1.40058
1.40087
1.40121
1.40158
1.40197
1.40236
1.40273
1.40306
1.40332
1.40351
1.40362
1.40364
1.40357
1.40343
1.40322
1.40296
1.40265
1.40233
1.40201
1.4017
1.4014
1.40114
1.4009
1.4007
1.40053
1.40039
1.40028
1.4002
1.40013
1.40009
1.40005
1.40003
1.40002
1.40001
1.4
1.4
1.4
1.4
1.4
1.4
1.4
1.4
1.4
1.4
1.4
1.4
1.4
1.4
1.4
1.40001
1.4
1.40001
1.40001
1.40001
1.4
1.40001
1.4
1.40001
1.40001
1.4
1.40001
1.4
1.40001
1.4
1.40001
1.40001
1.4
1.40001
1.40001
1.4
1.40001
1.4
1.40001
1.40001
1.40001
1.40001
1.40001
1.40001
1.40001
1.40001
1.40001
1.40001
1.40001
1.40001
1.40002
1.40002
1.40002
1.40002
1.40002
1.40001
1.4
1.39998
1.39997
1.39996
1.39997
1.40001
1.4001
1.40025
1.40048
1.40079
1.40118
1.40165
1.40218
1.40276
1.40334
1.40392
1.40445
1.4049
1.40526
1.40551
1.40564
1.40563
1.40551
1.40526
1.40492
1.4045
1.40403
1.40352
1.40302
1.40253
1.40208
1.40167
1.40131
1.40101
1.40076
1.40055
1.40039
1.40027
1.40018
1.40011
1.40007
1.40004
1.40002
1.40001
1.4
1.4
1.4
1.4
1.4
1.4
1.4
1.4
1.4
1.4
1.4
1.4
1.4
1.4
1.4
1.40001
1.4
1.40001
1.4
1.40001
1.40001
1.4
1.40001
1.4
1.40001
1.4
1.4
1.40001
1.4
1.40001
1.4
1.40001
1.40001
1.4
1.40001
1.40001
1.4
1.40001
1.40001
1.4
1.40001
1.40001
1.40001
1.40001
1.40001
1.40001
1.40001
1.40001
1.40001
1.40002
1.40002
1.40003
1.40003
1.40003
1.40003
1.40002
1.40001
1.4
1.39999
1.4
1.40005
1.40016
1.40034
1.40062
1.40101
1.40152
1.40215
1.40288
1.40369
1.40454
1.40539
1.40621
1.40695
1.40758
1.40806
1.40839
1.40853
1.4085
1.40828
1.40791
1.40739
1.40675
1.40604
1.40528
1.40451
1.40377
1.40308
1.40246
1.40192
1.40146
1.40109
1.40079
1.40056
1.40038
1.40025
1.40015
1.40009
1.40005
1.40002
1.4
1.4
1.39999
1.39999
1.4
1.4
1.4
1.4
1.4
1.4
1.4
1.4
1.4
1.4
1.4
1.4
1.40001
1.4
1.4
1.40001
1.4
1.40001
1.40001
1.40001
1.40001
1.4
1.40001
1.4
1.40001
1.40001
1.4
1.40001
1.4
1.40001
1.40001
1.4
1.40001
1.40001
1.4
1.4
1.40001
1.4
1.40001
1.40001
1.40001
1.40001
1.40001
1.40001
1.40001
1.40002
1.40002
1.40003
1.40004
1.40004
1.40004
1.40004
1.40004
1.40003
1.40003
1.40004
1.4001
1.40021
1.40042
1.40075
1.40123
1.40187
1.40267
1.40364
1.40473
1.40591
1.40713
1.40833
1.40946
1.41046
1.4113
1.41193
1.41234
1.41251
1.41243
1.41212
1.41157
1.41083
1.40992
1.40889
1.40779
1.40666
1.40557
1.40454
1.40362
1.40282
1.40214
1.40159
1.40114
1.4008
1.40054
1.40035
1.40021
1.40012
1.40006
1.40002
1.4
1.39999
1.39999
1.39999
1.39999
1.39999
1.4
1.4
1.4
1.4
1.4
1.4
1.4
1.4
1.4
1.4
1.4
1.40001
1.4
1.40001
1.40001
1.4
1.40001
1.4
1.40001
1.4
1.40001
1.4
1.40001
1.4
1.40001
1.4
1.40001
1.4
1.40001
1.4
1.40001
1.40001
1.40001
1.4
1.40001
1.40001
1.40001
1.40001
1.40001
1.40001
1.40001
1.40001
1.40002
1.40002
1.40003
1.40004
1.40005
1.40006
1.40006
1.40006
1.40006
1.40007
1.40009
1.40014
1.40026
1.40049
1.40086
1.40142
1.40219
1.40319
1.40441
1.40583
1.4074
1.40906
1.41074
1.41236
1.41385
1.41516
1.41623
1.41702
1.41752
1.41771
1.41759
1.41715
1.41643
1.41544
1.41421
1.4128
1.41127
1.40969
1.40813
1.40665
1.40531
1.40413
1.40313
1.40231
1.40166
1.40116
1.40078
1.4005
1.4003
1.40017
1.40008
1.40003
1.4
1.39999
1.39998
1.39998
1.39998
1.39999
1.39999
1.4
1.4
1.4
1.4
1.4
1.4
1.4
1.4
1.4
1.4
1.4
1.4
1.40001
1.40001
1.40001
1.40001
1.40001
1.40001
1.40001
1.40001
1.40001
1.40001
1.4
1.40001
1.40001
1.4
1.4
1.40001
1.4
1.40001
1.40001
1.4
1.4
1.40001
1.40001
1.40001
1.40001
1.40001
1.40001
1.40001
1.40002
1.40002
1.40003
1.40004
1.40005
1.40007
1.40008
1.40009
1.40009
1.4001
1.40013
1.40018
1.40031
1.40055
1.40095
1.40157
1.40246
1.40365
1.40514
1.40692
1.40894
1.41111
1.41334
1.41555
1.41763
1.4195
1.4211
1.42239
1.42333
1.4239
1.42411
1.42394
1.4234
1.42251
1.42128
1.41973
1.41791
1.4159
1.41378
1.41164
1.40959
1.40769
1.406
1.40456
1.40337
1.40242
1.40168
1.40113
1.40072
1.40044
1.40024
1.40012
1.40004
1.4
1.39998
1.39997
1.39997
1.39998
1.39998
1.39999
1.39999
1.4
1.4
1.4
1.4
1.4
1.4
1.4
1.4
1.4
1.4
1.4
1.4
1.40001
1.4
1.40001
1.4
1.40001
1.4
1.40001
1.4
1.40001
1.4
1.40001
1.40001
1.40001
1.4
1.40001
1.4
1.4
1.40001
1.40001
1.4
1.40001
1.40001
1.40001
1.40001
1.40001
1.40001
1.40001
1.40002
1.40003
1.40004
1.40006
1.40007
1.40009
1.40011
1.40012
1.40014
1.40017
1.40023
1.40035
1.40058
1.40099
1.40166
1.40264
1.40401
1.40577
1.40792
1.41041
1.41314
1.416
1.41887
1.42161
1.42412
1.42631
1.42814
1.42957
1.43059
1.43119
1.43139
1.43119
1.43059
1.42959
1.42819
1.4264
1.42424
1.42176
1.41907
1.41629
1.41354
1.41095
1.40861
1.40658
1.40489
1.40352
1.40246
1.40165
1.40106
1.40065
1.40036
1.40018
1.40007
1.4
1.39997
1.39996
1.39996
1.39997
1.39997
1.39998
1.39999
1.39999
1.39999
1.4
1.4
1.4
1.4
1.4
1.4
1.4
1.4
1.40001
1.4
1.40001
1.4
1.4
1.40001
1.4
1.40001
1.4
1.40001
1.40001
1.40001
1.4
1.40001
1.4
1.4
1.40001
1.4
1.4
1.40001
1.4
1.40001
1.40001
1.40001
1.40001
1.40001
1.40001
1.40001
1.40002
1.40003
1.40004
1.40005
1.40007
1.4001
1.40012
1.40014
1.40017
1.4002
1.40026
1.40038
1.4006
1.40101
1.40169
1.40273
1.40423
1.40624
1.40875
1.41172
1.41504
1.41857
1.42214
1.42558
1.42875
1.43155
1.4339
1.43577
1.43718
1.43814
1.43868
1.43884
1.43862
1.43803
1.43706
1.43566
1.43381
1.43149
1.4287
1.42554
1.42213
1.41865
1.41526
1.41213
1.40935
1.407
1.40507
1.40356
1.40241
1.40156
1.40096
1.40055
1.40028
1.40011
1.40002
1.39997
1.39995
1.39995
1.39995
1.39996
1.39997
1.39998
1.39999
1.39999
1.39999
1.4
1.4
1.4
1.4
1.4
1.4
1.4
1.4
1.4
1.40001
1.40001
1.40001
1.40001
1.4
1.40001
1.40001
1.40001
1.40001
1.40001
1.4
1.40001
1.4
1.40001
1.40001
1.40001
1.4
1.40001
1.40001
1.4
1.40001
1.40001
1.40001
1.40001
1.40001
1.40002
1.40002
1.40003
1.40005
1.40007
1.4001
1.40013
1.40016
1.40019
1.40023
1.40029
1.4004
1.40061
1.40099
1.40165
1.40271
1.4043
1.40649
1.40933
1.41276
1.41668
1.42089
1.42519
1.42934
1.43316
1.43649
1.43927
1.44145
1.44308
1.44421
1.44491
1.44525
1.4453
1.44508
1.44461
1.44384
1.44272
1.44113
1.43898
1.43622
1.43286
1.42902
1.42489
1.4207
1.41668
1.41302
1.40985
1.40721
1.4051
1.40348
1.40228
1.40142
1.40083
1.40044
1.40019
1.40005
1.39997
1.39994
1.39993
1.39994
1.39995
1.39996
1.39997
1.39998
1.39998
1.39999
1.4
1.4
1.4
1.4
1.4
1.4
1.4
1.4
1.4
1.40001
1.4
1.40001
1.4
1.40001
1.40001
1.40001
1.40001
1.4
1.40001
1.4
1.4
1.40001
1.4
1.40001
1.40001
1.40001
1.4
1.40001
1.40001
1.40001
1.40001
1.40001
1.40001
1.40001
1.40002
1.40003
1.40004
1.40006
1.40009
1.40012
1.40016
1.4002
1.40025
1.40032
1.40042
1.4006
1.40095
1.40157
1.4026
1.4042
1.40651
1.40959
1.41345
1.41793
1.42283
1.42785
1.4327
1.43712
1.44089
1.44394
1.44622
1.44779
1.44877
1.44928
1.44946
1.44944
1.44931
1.44911
1.44886
1.44851
1.44797
1.44706
1.4456
1.44339
1.44035
1.4365
1.43202
1.42718
1.42231
1.4177
1.41357
1.41006
1.4072
1.40497
1.40329
1.40208
1.40124
1.40068
1.40032
1.40011
1.39999
1.39994
1.39992
1.39992
1.39993
1.39995
1.39996
1.39997
1.39998
1.39999
1.39999
1.4
1.4
1.4
1.4
1.4
1.4
1.4
1.4
1.40001
1.4
1.40001
1.40001
1.4
1.40001
1.4
1.40001
1.4
1.40001
1.40001
1.4
1.40001
1.40001
1.4
1.40001
1.4
1.40001
1.4
1.40001
1.40001
1.40001
1.40001
1.40001
1.40002
1.40002
1.40004
1.40006
1.40008
1.40012
1.40016
1.40021
1.40026
1.40033
1.40043
1.40059
1.4009
1.40145
1.4024
1.40395
1.40628
1.40952
1.4137
1.4187
1.42425
1.42999
1.43552
1.44047
1.44459
1.44771
1.44983
1.45104
1.45149
1.45139
1.45095
1.45037
1.44982
1.44942
1.44924
1.4493
1.44955
1.44988
1.45008
1.44986
1.44888
1.44687
1.44369
1.43943
1.43435
1.42886
1.42336
1.41823
1.41372
1.40996
1.40697
1.40468
1.403
1.40182
1.40103
1.40052
1.4002
1.40003
1.39994
1.39991
1.3999
1.39992
1.39993
1.39995
1.39997
1.39997
1.39998
1.39999
1.4
1.4
1.4
1.4
1.4
1.4
1.4
1.4
1.40001
1.4
1.40001
1.4
1.40001
1.4
1.40001
1.4
1.40001
1.4
1.40001
1.4
1.40001
1.4
1.40001
1.4
1.40001
1.4
1.40001
1.40001
1.40001
1.40001
1.40001
1.40001
1.40002
1.40003
1.40005
1.40007
1.4001
1.40015
1.4002
1.40026
1.40033
1.40043
1.40058
1.40084
1.40131
1.40216
1.40358
1.40583
1.4091
1.41349
1.4189
1.42505
1.43149
1.43768
1.44314
1.44749
1.45055
1.45227
1.4528
1.45236
1.45124
1.44972
1.44809
1.44658
1.4454
1.44468
1.4445
1.44489
1.44582
1.4472
1.4488
1.45029
1.45119
1.45101
1.44939
1.44619
1.44156
1.43593
1.42983
1.42379
1.41825
1.41347
1.40957
1.40653
1.40426
1.40264
1.40153
1.40081
1.40036
1.4001
1.39996
1.3999
1.39989
1.3999
1.39992
1.39994
1.39996
1.39996
1.39998
1.39999
1.39999
1.4
1.4
1.4
1.4
1.4
1.4
1.4
1.40001
1.4
1.4
1.40001
1.4
1.40001
1.40001
1.4
1.40001
1.4
1.40001
1.4
1.40001
1.40001
1.4
1.4
1.40001
1.4
1.40001
1.40001
1.40001
1.40001
1.40001
1.40002
1.40002
1.40004
1.40006
1.40009
1.40013
1.40018
1.40025
1.40033
1.40042
1.40056
1.40078
1.40117
1.40189
1.40315
1.40521
1.40837
1.41281
1.4185
1.42517
1.43226
1.43912
1.44508
1.44964
1.45251
1.45368
1.4533
1.45169
1.44922
1.44627
1.44321
1.44032
1.43787
1.43605
1.43499
1.43478
1.43546
1.43702
1.43941
1.44247
1.44587
1.44906
1.4514
1.45221
1.45105
1.44782
1.44284
1.43667
1.43004
1.42357
1.41775
1.41283
1.4089
1.40591
1.40374
1.40223
1.40122
1.40059
1.40021
1.40001
1.39991
1.39988
1.39988
1.3999
1.39992
1.39994
1.39995
1.39997
1.39998
1.39999
1.4
1.4
1.4
1.4
1.4
1.4
1.4
1.40001
1.4
1.40001
1.40001
1.40001
1.4
1.40001
1.4
1.40001
1.40001
1.40001
1.4
1.40001
1.4
1.40001
1.4
1.40001
1.4
1.40001
1.40001
1.40001
1.40001
1.40001
1.40002
1.40003
1.40005
1.40007
1.40011
1.40016
1.40023
1.40031
1.4004
1.40053
1.40072
1.40104
1.40163
1.40269
1.4045
1.40741
1.4117
1.41749
1.42454
1.43224
1.43978
1.44629
1.45108
1.45378
1.45431
1.45291
1.44997
1.44597
1.4414
1.4367
1.43221
1.42823
1.42498
1.42262
1.42127
1.42101
1.42187
1.42388
1.42706
1.43133
1.43647
1.44198
1.44712
1.45099
1.45277
1.45199
1.44865
1.44324
1.43657
1.42949
1.42273
1.41677
1.41186
1.40802
1.40518
1.40316
1.4018
1.40092
1.40039
1.40009
1.39994
1.39988
1.39987
1.39988
1.39991
1.39993
1.39994
1.39996
1.39997
1.39999
1.39999
1.4
1.4
1.4
1.4
1.4
1.4
1.4
1.4
1.4
1.40001
1.4
1.4
1.40001
1.4
1.4
1.40001
1.4
1.40001
1.4
1.40001
1.40001
1.40001
1.4
1.40001
1.40001
1.40001
1.40001
1.40001
1.40001
1.40002
1.40004
1.40006
1.40009
1.40014
1.4002
1.40027
1.40037
1.40049
1.40066
1.40092
1.40139
1.40225
1.40376
1.40631
1.41028
1.41592
1.42315
1.43137
1.4396
1.44676
1.45191
1.45452
1.45449
1.45207
1.44778
1.44222
1.43598
1.42959
1.42349
1.41796
1.41323
1.40946
1.40675
1.4052
1.40487
1.40578
1.408
1.4116
1.41662
1.423
1.4304
1.43814
1.44521
1.45048
1.453
1.45234
1.44869
1.44279
1.43563
1.42822
1.42132
1.41539
1.41062
1.40699
1.40437
1.40256
1.40138
1.40064
1.40022
1.39999
1.39989
1.39986
1.39987
1.39989
1.39992
1.39993
1.39995
1.39997
1.39998
1.39999
1.4
1.4
1.4
1.4
1.4
1.4
1.4
1.40001
1.4
1.40001
1.4
1.40001
1.40001
1.40001
1.4
1.40001
1.4
1.4
1.40001
1.4
1.40001
1.4
1.40001
1.40001
1.40001
1.40001
1.40001
1.40001
1.40002
1.40003
1.40004
1.40007
1.40011
1.40016
1.40024
1.40033
1.40044
1.40059
1.40082
1.40119
1.40185
1.40307
1.40519
1.40867
1.41392
1.42106
1.42962
1.43854
1.44645
1.45217
1.45492
1.4545
1.45121
1.44567
1.43863
1.4308
1.42283
1.4152
1.40826
1.40222
1.3972
1.39326
1.39045
1.38881
1.38838
1.38921
1.39137
1.39498
1.4002
1.40713
1.41567
1.42534
1.4352
1.44394
1.45022
1.45307
1.45217
1.44798
1.4415
1.43392
1.42632
1.41944
1.4137
1.40921
1.40588
1.40354
1.40198
1.40099
1.4004
1.40008
1.39992
1.39986
1.39986
1.39987
1.3999
1.39992
1.39994
1.39996
1.39998
1.39999
1.39999
1.4
1.4
1.4
1.4
1.4
1.4
1.40001
1.4
1.40001
1.4
1.4
1.40001
1.40001
1.4
1.40001
1.40001
1.4
1.40001
1.4
1.40001
1.40001
1.4
1.40001
1.40001
1.40001
1.40001
1.40001
1.40002
1.40003
1.40005
1.40008
1.40013
1.40019
1.40028
1.40039
1.40053
1.40072
1.40101
1.40152
1.40246
1.40415
1.40704
1.41167
1.41839
1.427
1.43651
1.44531
1.45184
1.45503
1.45455
1.45066
1.44409
1.43574
1.42648
1.41707
1.40809
1.39993
1.39283
1.38686
1.38202
1.37827
1.37559
1.37396
1.37342
1.37401
1.37584
1.37908
1.38397
1.39077
1.39961
1.41028
1.42207
1.43373
1.44366
1.45039
1.453
1.45144
1.44649
1.43941
1.43151
1.42389
1.41722
1.41182
1.40772
1.40477
1.40276
1.40145
1.40066
1.4002
1.39997
1.39987
1.39985
1.39986
1.39989
1.3999
1.39993
1.39995
1.39997
1.39998
1.39999
1.4
1.4
1.4
1.4
1.4
1.4
1.40001
1.4
1.40001
1.40001
1.4
1.40001
1.40001
1.4
1.40001
1.40001
1.4
1.4
1.40001
1.4
1.40001
1.40001
1.40001
1.40001
1.40001
1.40001
1.40001
1.40002
1.40004
1.40006
1.4001
1.40015
1.40023
1.40033
1.40045
1.40062
1.40086
1.40125
1.40195
1.40324
1.40553
1.40939
1.41538
1.42364
1.43347
1.44319
1.45082
1.45486
1.45473
1.45063
1.44335
1.43394
1.42344
1.41276
1.40259
1.3934
1.38545
1.37883
1.37347
1.36925
1.366
1.36364
1.36209
1.36138
1.36157
1.36282
1.36535
1.36948
1.37557
1.38394
1.39467
1.40737
1.421
1.43396
1.44442
1.45089
1.45267
1.45008
1.44423
1.43659
1.42854
1.42109
1.4148
1.40988
1.40625
1.40371
1.40204
1.40099
1.40038
1.40006
1.3999
1.39985
1.39985
1.39988
1.39989
1.39992
1.39995
1.39997
1.39998
1.39999
1.4
1.4
1.4
1.4
1.4
1.4
1.4
1.40001
1.4
1.40001
1.4
1.40001
1.40001
1.4
1.40001
1.40001
1.40001
1.4
1.4
1.4
1.40001
1.40001
1.40001
1.40001
1.40001
1.40001
1.40002
1.40003
1.40004
1.40007
1.40012
1.40018
1.40026
1.40038
1.40053
1.40072
1.40103
1.40155
1.40249
1.40422
1.40728
1.41229
1.41978
1.4295
1.43998
1.44892
1.45426
1.45499
1.45116
1.4436
1.43345
1.42194
1.41014
1.3989
1.38879
1.38015
1.37308
1.36751
1.36323
1.35996
1.35745
1.35552
1.35408
1.35312
1.35275
1.35316
1.35466
1.35764
1.36257
1.3699
1.37993
1.39258
1.40714
1.42219
1.43578
1.44598
1.45144
1.45185
1.44796
1.4412
1.43315
1.42515
1.41808
1.41233
1.40797
1.40486
1.40277
1.40143
1.40062
1.40018
1.39996
1.39987
1.39985
1.39987
1.39988
1.39991
1.39994
1.39996
1.39998
1.39999
1.39999
1.4
1.4
1.4
1.4
1.4
1.4
1.4
1.4
1.40001
1.4
1.4
1.40001
1.4
1.40001
1.4
1.40001
1.4
1.4
1.40001
1.4
1.40001
1.40001
1.40001
1.40001
1.40001
1.40002
1.40003
1.40005
1.40008
1.40013
1.40021
1.4003
1.40043
1.4006
1.40084
1.40122
1.40191
1.40317
1.40546
1.40943
1.41578
1.42481
1.43561
1.44588
1.45295
1.45513
1.45217
1.44482
1.43434
1.42209
1.40933
1.39708
1.38607
1.37677
1.36934
1.36372
1.35967
1.35682
1.35475
1.3531
1.35165
1.3503
1.34903
1.34793
1.34726
1.34741
1.3489
1.3523
1.35816
1.36694
1.37881
1.39337
1.40951
1.42538
1.43881
1.4479
1.45166
1.45031
1.44502
1.43747
1.42924
1.42154
1.41502
1.40993
1.4062
1.40363
1.40196
1.40093
1.40034
1.40003
1.3999
1.39985
1.39986
1.39988
1.39991
1.39993
1.39996
1.39997
1.39998
1.39999
1.4
1.4
1.4
1.4
1.4
1.4
1.4
1.4
1.4
1.40001
1.4
1.40001
1.4
1.40001
1.4
1.40001
1.4
1.4
1.40001
1.40001
1.40001
1.40001
1.40001
1.40001
1.40001
1.40002
1.40004
1.40006
1.40009
1.40015
1.40023
1.40034
1.40048
1.40069
1.40097
1.40146
1.40235
1.404
1.40697
1.41201
1.41982
1.43025
1.4415
1.45053
1.45478
1.45337
1.44686
1.43653
1.42388
1.41035
1.39714
1.38518
1.37512
1.36726
1.3616
1.3579
1.35572
1.3545
1.35372
1.35295
1.35196
1.35067
1.34904
1.34716
1.34527
1.34382
1.34347
1.34495
1.34896
1.35608
1.36664
1.38051
1.39688
1.41414
1.43007
1.44242
1.44959
1.45113
1.44784
1.44126
1.43318
1.42507
1.41788
1.41208
1.40772
1.40464
1.40259
1.4013
1.40055
1.40014
1.39994
1.39987
1.39986
1.39988
1.3999
1.39993
1.39995
1.39997
1.39998
1.39999
1.4
1.4
1.4
1.4
1.4
1.4
1.40001
1.4
1.4
1.40001
1.4
1.4
1.40001
1.4
1.4
1.40001
1.40001
1.4
1.40001
1.40001
1.4
1.40001
1.40001
1.40001
1.40002
1.40002
1.40004
1.40007
1.4001
1.40017
1.40026
1.40038
1.40053
1.40077
1.40112
1.40173
1.40289
1.40501
1.40877
1.41503
1.42432
1.43579
1.44661
1.45342
1.45432
1.44938
1.4398
1.42719
1.41313
1.39905
1.38609
1.37509
1.36658
1.36071
1.35728
1.35581
1.35565
1.35608
1.35648
1.35645
1.35581
1.35456
1.35267
1.35014
1.3471
1.34397
1.34153
1.34073
1.34247
1.34752
1.35634
1.369
1.38494
1.40279
1.42047
1.43553
1.44589
1.45047
1.44952
1.44436
1.4368
1.42854
1.42083
1.41437
1.40938
1.40577
1.40332
1.40175
1.4008
1.40027
1.40001
1.3999
1.39987
1.39988
1.3999
1.39992
1.39995
1.39997
1.39998
1.39999
1.4
1.4
1.4
1.4
1.4
1.4
1.40001
1.4
1.40001
1.40001
1.40001
1.4
1.40001
1.40001
1.40001
1.4
1.40001
1.4
1.40001
1.40001
1.4
1.40001
1.40001
1.40001
1.40002
1.40002
1.40004
1.40008
1.40012
1.40018
1.40029
1.40041
1.40059
1.40087
1.4013
1.40206
1.40352
1.40621
1.41089
1.41845
1.4291
1.441
1.45047
1.45439
1.45185
1.44378
1.43178
1.41757
1.40277
1.38877
1.37665
1.36718
1.36075
1.35731
1.3564
1.35727
1.35901
1.36078
1.36197
1.36228
1.36173
1.36047
1.35854
1.35581
1.35214
1.34771
1.34325
1.33992
1.33898
1.34149
1.34811
1.35908
1.37404
1.39186
1.41059
1.42775
1.44092
1.44847
1.45007
1.44666
1.43996
1.43183
1.42378
1.41675
1.41116
1.40702
1.40414
1.40226
1.4011
1.40044
1.40009
1.39993
1.39988
1.39988
1.3999
1.39992
1.39994
1.39996
1.39998
1.39999
1.39999
1.4
1.4
1.4
1.4
1.4
1.4
1.4
1.40001
1.4
1.40001
1.40001
1.4
1.40001
1.4
1.40001
1.4
1.40001
1.4
1.40001
1.4
1.40001
1.40001
1.40001
1.40002
1.40003
1.40004
1.40009
1.40013
1.40019
1.40032
1.40045
1.40063
1.40096
1.4015
1.40243
1.40426
1.40761
1.4133
1.42219
1.4339
1.44549
1.45284
1.45357
1.44788
1.43725
1.42343
1.4082
1.39322
1.37984
1.36909
1.36164
1.35771
1.35699
1.35867
1.36164
1.36474
1.36708
1.36817
1.36799
1.36694
1.36549
1.36385
1.36174
1.35857
1.35395
1.34825
1.34266
1.33884
1.33834
1.34223
1.351
1.36446
1.38167
1.40085
1.41952
1.43506
1.44537
1.44956
1.44812
1.44257
1.43484
1.42664
1.41916
1.41301
1.40834
1.40504
1.40284
1.40145
1.40064
1.4002
1.39999
1.3999
1.3999
1.3999
1.39992
1.39994
1.39996
1.39998
1.39999
1.39999
1.4
1.4
1.4
1.4
1.4
1.4
1.40001
1.4
1.40001
1.40001
1.4
1.4
1.40001
1.4
1.40001
1.4
1.40001
1.4
1.40001
1.4
1.40001
1.40001
1.40001
1.40002
1.40003
1.40004
1.40009
1.40015
1.4002
1.40034
1.4005
1.40068
1.40106
1.40173
1.40287
1.4051
1.40919
1.41598
1.4261
1.4384
1.44897
1.45373
1.45136
1.44296
1.43032
1.41521
1.39945
1.38474
1.37246
1.36354
1.35852
1.35738
1.35943
1.3634
1.36773
1.37102
1.37241
1.37177
1.36965
1.36703
1.36494
1.36389
1.36354
1.3627
1.36002
1.35494
1.34831
1.34206
1.3384
1.33908
1.34508
1.35648
1.37253
1.39157
1.4112
1.42864
1.44141
1.44812
1.44877
1.4446
1.4375
1.42933
1.42152
1.41489
1.40973
1.406
1.40346
1.40184
1.40087
1.40033
1.40005
1.39993
1.39992
1.39991
1.39992
1.39994
1.39996
1.39998
1.39999
1.39999
1.4
1.4
1.4
1.4
1.4
1.4
1.40001
1.4
1.40001
1.4
1.40001
1.4
1.40001
1.4
1.40001
1.4
1.40001
1.4
1.40001
1.4
1.4
1.40002
1.4
1.40002
1.40004
1.40004
1.4001
1.40016
1.4002
1.40035
1.40054
1.40073
1.40115
1.40199
1.40337
1.40603
1.41094
1.41887
1.43001
1.44233
1.45133
1.45338
1.44817
1.43754
1.42338
1.40741
1.39151
1.3775
1.36672
1.36
1.35769
1.35941
1.36395
1.3694
1.37364
1.37506
1.37306
1.36824
1.36206
1.35637
1.3529
1.35267
1.35536
1.35917
1.36145
1.36012
1.35496
1.34779
1.34151
1.33886
1.34162
1.35039
1.3647
1.38306
1.40311
1.42196
1.43686
1.44593
1.44869
1.44604
1.43976
1.4318
1.42379
1.41676
1.41115
1.407
1.40413
1.40227
1.40113
1.40048
1.40013
1.39997
1.39994
1.39992
1.39993
1.39994
1.39996
1.39997
1.39999
1.39999
1.4
1.4
1.4
1.4
1.4
1.4
1.40001
1.4
1.4
1.4
1.40001
1.40001
1.4
1.40001
1.4
1.4
1.40001
1.4
1.40001
1.40001
1.4
1.40002
1.40001
1.40001
1.40005
1.40004
1.40009
1.40018
1.40021
1.40034
1.40059
1.40079
1.40124
1.40226
1.40395
1.40705
1.4128
1.42188
1.43375
1.44554
1.45265
1.4521
1.44442
1.43194
1.41667
1.40022
1.38452
1.37153
1.3626
1.35837
1.35886
1.36321
1.3695
1.37495
1.37678
1.37326
1.36458
1.35259
1.34001
1.32969
1.32409
1.32482
1.33176
1.34258
1.35322
1.35957
1.35955
1.35419
1.34682
1.34133
1.3407
1.3464
1.35844
1.37556
1.3955
1.4153
1.43195
1.44316
1.44797
1.44692
1.4416
1.43401
1.42593
1.41857
1.41255
1.40802
1.40483
1.40272
1.40141
1.40064
1.40023
1.40002
1.39997
1.39994
1.39993
1.39995
1.39996
1.39998
1.39999
1.39999
1.4
1.4
1.4
1.4
1.4
1.4
1.4
1.40001
1.4
1.40001
1.40001
1.40001
1.4
1.40001
1.4
1.4
1.40001
1.4
1.40001
1.40001
1.4
1.40002
1.40001
1.40001
1.40006
1.40005
1.40007
1.4002
1.40023
1.40031
1.40062
1.40086
1.40132
1.40255
1.40459
1.40814
1.41473
1.4249
1.43716
1.44796
1.45308
1.45021
1.44038
1.42638
1.41036
1.39378
1.37854
1.36683
1.36001
1.3584
1.36153
1.36791
1.37468
1.37792
1.37414
1.36198
1.34305
1.32108
1.30022
1.28409
1.2758
1.27762
1.28982
1.30967
1.33173
1.34962
1.35887
1.35887
1.35284
1.34574
1.34206
1.34451
1.35387
1.36928
1.38861
1.40889
1.4269
1.43998
1.44673
1.44729
1.44302
1.43593
1.42789
1.4203
1.41393
1.40904
1.40554
1.40319
1.4017
1.40082
1.40033
1.40008
1.40001
1.39996
1.39995
1.39995
1.39996
1.39998
1.39999
1.39999
1.4
1.4
1.4
1.4
1.4
1.4
1.4
1.40001
1.4
1.40001
1.4
1.40001
1.40001
1.4
1.40001
1.4
1.40001
1.4
1.4
1.40001
1.4
1.40001
1.40002
1.4
1.40006
1.40006
1.40005
1.40021
1.40026
1.40028
1.40063
1.40097
1.4014
1.40281
1.40529
1.40931
1.41664
1.4278
1.44018
1.44967
1.45282
1.44797
1.43631
1.42102
1.40456
1.38815
1.37357
1.36329
1.35873
1.35971
1.36507
1.37247
1.37788
1.37612
1.36317
1.3387
1.30656
1.2727
1.24248
1.21986
1.2084
1.21136
1.22968
1.26022
1.29603
1.32858
1.35076
1.35978
1.35799
1.3511
1.34517
1.3445
1.35096
1.36429
1.38259
1.40293
1.42192
1.43659
1.44511
1.44722
1.44406
1.43754
1.42964
1.4219
1.41524
1.41003
1.40624
1.40366
1.40201
1.40101
1.40044
1.40015
1.40005
1.39998
1.39996
1.39996
1.39997
1.39998
1.39999
1.39999
1.4
1.4
1.4
1.4
1.4
1.4
1.4
1.40001
1.4
1.40001
1.40001
1.4
1.4
1.40001
1.4
1.4
1.40001
1.40001
1.4
1.40001
1.4
1.40001
1.40003
1.39999
1.40005
1.40009
1.40003
1.40019
1.4003
1.40024
1.40061
1.40108
1.40151
1.40303
1.40602
1.41054
1.41848
1.43045
1.44279
1.45081
1.45203
1.44555
1.43242
1.416
1.39931
1.38337
1.36959
1.36075
1.35847
1.36187
1.36873
1.37575
1.37765
1.36801
1.34273
1.30316
1.25593
1.20922
1.16903
1.13918
1.12386
1.1279
1.1533
1.19614
1.24757
1.29688
1.33467
1.35576
1.36106
1.35644
1.3494
1.34602
1.34956
1.36056
1.37752
1.39755
1.41717
1.43313
1.44322
1.4468
1.44474
1.43886
1.43117
1.42335
1.41646
1.41097
1.40692
1.40413
1.40231
1.4012
1.40056
1.40022
1.40009
1.40001
1.39997
1.39997
1.39997
1.39998
1.39999
1.39999
1.4
1.4
1.4
1.4
1.4
1.40001
1.4
1.40001
1.4
1.40001
1.4
1.40001
1.4
1.40001
1.4
1.4
1.40001
1.40001
1.4
1.40001
1.4
1.4
1.40004
1.39999
1.40003
1.40012
1.40002
1.40014
1.40034
1.40023
1.40054
1.4012
1.40166
1.40321
1.40672
1.41183
1.4202
1.43275
1.44502
1.45155
1.45084
1.44306
1.42886
1.41145
1.3946
1.37939
1.36652
1.359
1.35888
1.36439
1.37181
1.3768
1.37309
1.35338
1.31374
1.25747
1.19411
1.13384
1.08286
1.04467
1.02457
1.02977
1.06344
1.12037
1.18906
1.25648
1.31137
1.34661
1.36135
1.361
1.35415
1.34867
1.34943
1.35801
1.37338
1.39282
1.41277
1.42974
1.44119
1.44611
1.44512
1.43989
1.43248
1.42465
1.41758
1.41185
1.40757
1.40458
1.40262
1.4014
1.40068
1.40029
1.40014
1.40003
1.39999
1.39998
1.39998
1.39998
1.39999
1.4
1.4
1.4
1.4
1.4
1.4
1.4
1.4
1.40001
1.40001
1.4
1.40001
1.4
1.4
1.40001
1.40001
1.4
1.40001
1.40001
1.4
1.40001
1.40001
1.39999
1.40004
1.4
1.4
1.40013
1.40003
1.40007
1.40037
1.40026
1.40043
1.40127
1.40187
1.40336
1.40731
1.41314
1.42181
1.43463
1.44687
1.45206
1.44943
1.44056
1.42577
1.4075
1.3904
1.37611
1.36431
1.35783
1.35955
1.3668
1.37378
1.37512
1.3643
1.33353
1.27887
1.20523
1.12495
1.05015
0.987229
0.93976
0.914688
0.921625
0.964641
1.03695
1.124
1.21017
1.28263
1.3329
1.3586
1.36423
1.35889
1.35205
1.35032
1.35647
1.37012
1.38876
1.4088
1.42653
1.43912
1.44525
1.44525
1.44067
1.43356
1.42576
1.41857
1.41264
1.40816
1.405
1.4029
1.40159
1.40081
1.40037
1.40019
1.40007
1.40001
1.39999
1.39999
1.39999
1.39999
1.4
1.4
1.4
1.4
1.4
1.4
1.4
1.40001
1.4
1.4
1.40001
1.4
1.40001
1.40001
1.4
1.40001
1.4
1.40001
1.40001
1.4
1.40001
1.40002
1.39998
1.40003
1.40003
1.39997
1.40012
1.40007
1.4
1.40035
1.40032
1.40032
1.40126
1.40212
1.40353
1.40776
1.41439
1.42334
1.43608
1.4483
1.45251
1.44798
1.43806
1.42315
1.40431
1.3867
1.37334
1.36286
1.35709
1.36009
1.36872
1.37445
1.37086
1.35222
1.31075
1.24172
1.15077
1.05287
0.962499
0.887107
0.831048
0.802626
0.812463
0.864772
0.951875
1.0569
1.16142
1.2509
1.31596
1.35311
1.36578
1.36309
1.35572
1.3519
1.35577
1.36767
1.38538
1.40531
1.42359
1.43712
1.44429
1.44518
1.44122
1.43442
1.42669
1.41942
1.41334
1.40869
1.40539
1.40317
1.40177
1.40092
1.40045
1.40024
1.4001
1.40003
1.4
1.39999
1.39999
1.4
1.4
1.4
1.4
1.4
1.4
1.4
1.4
1.40001
1.4
1.4
1.40001
1.4
1.40001
1.4
1.4
1.40001
1.4
1.40001
1.40001
1.4
1.4
1.40002
1.39999
1.40002
1.40005
1.39996
1.40008
1.40012
1.39996
1.40027
1.4004
1.40026
1.40116
1.40237
1.40376
1.40804
1.41544
1.42481
1.43718
1.44925
1.45296
1.44677
1.4356
1.4209
1.402
1.38358
1.37084
1.36202
1.35675
1.36017
1.36984
1.37407
1.36481
1.33828
1.28751
1.206
1.09888
0.983438
0.877435
0.79081
0.729382
0.701159
0.715064
0.774719
0.873256
0.993322
1.11413
1.21902
1.29762
1.34568
1.3657
1.36641
1.35925
1.35386
1.35568
1.36589
1.38262
1.40231
1.42097
1.43526
1.4433
1.44497
1.44157
1.43508
1.42744
1.42012
1.41393
1.40916
1.40573
1.40341
1.40193
1.40104
1.40052
1.40029
1.40013
1.40005
1.40002
1.4
1.4
1.4
1.4
1.4
1.4
1.4
1.4
1.4
1.4
1.40001
1.4
1.4
1.40001
1.4
1.40001
1.4
1.4
1.40001
1.4
1.40001
1.40001
1.4
1.4
1.40002
1.4
1.4
1.40005
1.39997
1.40003
1.40014
1.39996
1.40016
1.40044
1.40027
1.401
1.40251
1.40408
1.40821
1.41619
1.42617
1.43809
1.44972
1.45334
1.44603
1.43335
1.4188
1.40055
1.38129
1.36842
1.3615
1.35687
1.35966
1.36988
1.3731
1.35821
1.32394
1.26567
1.17492
1.05469
0.923763
0.803929
0.709219
0.647221
0.623327
0.641821
0.705235
0.809549
0.93934
1.07246
1.18984
1.27982
1.33742
1.36433
1.36872
1.36231
1.35585
1.35596
1.36466
1.38044
1.39983
1.41872
1.43359
1.44234
1.44467
1.44175
1.43554
1.42801
1.42067
1.41441
1.40954
1.40601
1.40362
1.40208
1.40114
1.40059
1.40033
1.40016
1.40007
1.40003
1.40001
1.4
1.4
1.4
1.4
1.4
1.4
1.4
1.4
1.40001
1.4
1.40001
1.4
1.4
1.4
1.40001
1.40001
1.4
1.40001
1.4
1.40001
1.40001
1.40001
1.4
1.40001
1.40001
1.39999
1.40004
1.4
1.39999
1.40012
1.4
1.40006
1.40041
1.40034
1.40085
1.40251
1.40441
1.40839
1.41658
1.42728
1.43894
1.44982
1.45352
1.44583
1.43162
1.41672
1.3997
1.38012
1.36612
1.36081
1.35754
1.35879
1.36857
1.3719
1.35258
1.31067
1.24618
1.15029
1.02251
0.881035
0.751298
0.652213
0.593528
0.57673
0.59943
0.662544
0.766396
0.899644
1.03999
1.166
1.26434
1.3294
1.36215
1.37002
1.36469
1.35761
1.3564
1.36382
1.37877
1.39784
1.41687
1.43217
1.44147
1.44432
1.4418
1.43582
1.4284
1.42107
1.41476
1.40983
1.40624
1.40379
1.40221
1.40123
1.40066
1.40037
1.40019
1.40009
1.40004
1.40002
1.40001
1.40001
1.4
1.4
1.4
1.4
1.4
1.4
1.40001
1.4
1.40001
1.40001
1.4
1.4
1.4
1.40001
1.4
1.40001
1.4
1.4
1.40001
1.4
1.40001
1.40001
1.40001
1.4
1.40002
1.40001
1.39998
1.40007
1.40004
1.4
1.4003
1.40041
1.40078
1.40237
1.40465
1.40861
1.41668
1.42797
1.43976
1.44981
1.45338
1.44602
1.43076
1.41476
1.39897
1.38016
1.36439
1.35946
1.3585
1.35823
1.36591
1.37024
1.34922
1.30039
1.22969
1.13185
1.00329
0.858839
0.724879
0.624377
0.570003
0.560188
0.585871
0.645722
0.744406
0.875779
1.01858
1.14924
1.25266
1.32264
1.35967
1.37044
1.36626
1.35894
1.3568
1.36325
1.37753
1.39633
1.41544
1.43103
1.44073
1.44396
1.44173
1.43594
1.42861
1.42131
1.41499
1.41003
1.40641
1.40392
1.40231
1.40131
1.40071
1.40041
1.40022
1.40011
1.40006
1.40003
1.40002
1.40001
1.40001
1.40001
1.40001
1.4
1.40001
1.4
1.40001
1.4
1.4
1.40001
1.40001
1.40001
1.4
1.40001
1.4
1.40001
1.4
1.4
1.40001
1.4
1.40001
1.40001
1.4
1.40001
1.40001
1.40001
1.39999
1.40002
1.40003
1.4
1.40017
1.40041
1.40079
1.40218
1.40469
1.40885
1.41664
1.42815
1.4404
1.44991
1.45302
1.44629
1.43087
1.4134
1.39797
1.38101
1.36394
1.35743
1.35894
1.35867
1.36262
1.36738
1.34835
1.29546
1.21801
1.11848
0.993636
0.85366
0.721924
0.622787
0.571586
0.565918
0.59284
0.648733
0.740682
0.867043
1.00849
1.14025
1.24562
1.3179
1.35736
1.37013
1.36698
1.35969
1.35703
1.36285
1.37668
1.3953
1.41444
1.43021
1.44015
1.44361
1.44157
1.43591
1.42866
1.4214
1.4151
1.41013
1.40651
1.40401
1.40238
1.40137
1.40076
1.40044
1.40024
1.40013
1.40007
1.40004
1.40002
1.40001
1.40001
1.40001
1.40001
1.40001
1.40001
1.4
1.40001
1.4
1.4
1.40001
1.4
1.40001
1.4
1.40001
1.4
1.40001
1.4
1.4
1.40001
1.4
1.40001
1.40001
1.4
1.40001
1.40001
1.39999
1.40001
1.39999
1.39999
1.40002
1.40009
1.40031
1.40081
1.40204
1.40453
1.40894
1.41657
1.42792
1.44061
1.45017
1.45277
1.44641
1.43166
1.41317
1.39686
1.3818
1.3651
1.35562
1.35791
1.35989
1.36033
1.36305
1.34836
1.29706
1.21476
1.11169
0.990072
0.857806
0.733572
0.639825
0.591541
0.586864
0.613403
0.66639
0.752681
0.872963
1.0101
1.13946
1.24362
1.31561
1.35562
1.36932
1.36689
1.35983
1.35702
1.36257
1.3762
1.39473
1.41388
1.42973
1.43975
1.4433
1.44133
1.43574
1.42855
1.42134
1.41508
1.41015
1.40654
1.40406
1.40243
1.40141
1.4008
1.40047
1.40026
1.40015
1.40008
1.40005
1.40003
1.40002
1.40001
1.40001
1.40001
1.40001
1.40001
1.40001
1.4
1.40001
1.4
1.40001
1.4
1.40001
1.4
1.40001
1.4
1.40001
1.40001
1.4
1.40001
1.4
1.4
1.40001
1.4
1.4
1.40001
1.39998
1.4
1.39999
1.39994
1.4
1.40006
1.40019
1.40075
1.40197
1.40428
1.40877
1.41643
1.42749
1.44031
1.45037
1.45289
1.44652
1.43262
1.41413
1.3964
1.38195
1.36717
1.35536
1.3555
1.36036
1.36026
1.35894
1.34721
1.303
1.22236
1.11675
0.99568
0.869639
0.755444
0.671399
0.627356
0.62197
0.646908
0.697747
0.779464
0.893164
1.02362
1.14726
1.24696
1.316
1.35466
1.36819
1.36609
1.35937
1.35675
1.36241
1.37609
1.39465
1.4138
1.4296
1.43955
1.44303
1.44102
1.43543
1.42828
1.42113
1.41494
1.41006
1.40651
1.40406
1.40245
1.40144
1.40083
1.40049
1.40028
1.40016
1.40009
1.40005
1.40003
1.40002
1.40001
1.40001