/*--------------------------------*- C++ -*----------------------------------*\
  =========                 |
  \\      /  F ield         | OpenFOAM: The Open Source CFD Toolbox
   \\    /   O peration     | Website:  https://openfoam.org
    \\  /    A nd           | Version:  6
     \\/     M anipulation  |
\*---------------------------------------------------------------------------*/
FoamFile
{
    version     2.0;
    format      ascii;
    class       volScalarField;
    location    "3.24";
    object      p;
}
// * * * * * * * * * * * * * * * * * * * * * * * * * * * * * * * * * * * * * //

dimensions      [0 2 -2 0 0 0 0];

internalField   nonuniform List<scalar> 
4214
(
-0.278216
-0.231547
-0.137979
-0.0748386
-0.0525166
-0.0416091
-0.0329284
-0.0235994
-0.0156752
-0.00710626
0.00010779
0.00460844
0.0038479
-0.00341454
-0.0319199
-0.0284902
0.0112802
0.0974915
0.150401
0.153697
0.100775
0.0319394
-0.0302623
-0.0720054
-0.102706
-0.118626
-0.132015
-0.144839
-0.15458
-0.160368
-0.161744
-0.159348
-0.155615
-0.151625
-0.149068
-0.149737
-0.156736
-0.182421
-0.247303
-0.330989
-0.368119
-0.179554
-0.220312
-0.202365
-0.146838
-0.113429
-0.0917143
-0.0729799
-0.05535
-0.0396574
-0.0251128
-0.0113747
0.00302425
0.0157486
0.0366003
-0.00231673
-0.0182976
-0.0109094
0.0880616
0.190438
0.230499
0.183624
0.0803153
-0.0439301
-0.158027
-0.238009
-0.273779
-0.285253
-0.28707
-0.284035
-0.27769
-0.269154
-0.258829
-0.248399
-0.239518
-0.233755
-0.232624
-0.238057
-0.259869
-0.300233
-0.307293
-0.266057
-0.365076
-0.341098
-0.30606
-0.239506
-0.190281
-0.155079
-0.12466
-0.0964638
-0.0701264
-0.0446073
-0.0199069
0.00682895
0.0301343
0.0648823
0.030941
0.0225265
0.0686208
0.222342
0.337627
0.348557
0.251183
0.0785487
-0.125642
-0.31212
-0.446994
-0.514472
-0.540995
-0.548077
-0.542893
-0.529736
-0.511513
-0.490444
-0.469368
-0.451038
-0.43768
-0.430696
-0.432545
-0.449671
-0.475063
-0.467917
-0.465696
-0.479612
-0.42414
-0.38218
-0.315961
-0.258498
-0.213496
-0.174062
-0.137282
-0.102062
-0.0669398
-0.0301487
0.0079302
0.0448411
0.0866218
0.0833066
0.0802224
0.156773
0.342513
0.447144
0.421409
0.269519
0.0355724
-0.252448
-0.51601
-0.708219
-0.804343
-0.840938
-0.844629
-0.828134
-0.799883
-0.764507
-0.726447
-0.689495
-0.656717
-0.630967
-0.612366
-0.600407
-0.604192
-0.617343
-0.605193
-0.61069
-0.585004
-0.518358
-0.462889
-0.391204
-0.326499
-0.273198
-0.225739
-0.18091
-0.137056
-0.0921417
-0.0433928
0.00707754
0.0608339
0.11991
0.148659
0.157917
0.275309
0.486143
0.553471
0.46857
0.263923
-0.0600351
-0.447232
-0.797087
-1.05109
-1.17311
-1.21456
-1.20309
-1.16723
-1.11514
-1.05531
-0.994041
-0.93621
-0.885317
-0.844647
-0.810782
-0.784049
-0.77558
-0.778399
-0.749436
-0.744257
-0.679269
-0.604274
-0.540362
-0.463953
-0.393268
-0.333141
-0.278736
-0.226522
-0.174442
-0.119918
-0.0600775
0.00547264
0.0781736
0.158697
0.218921
0.253968
0.41595
0.642536
0.644666
0.479528
0.195949
-0.226339
-0.731544
-1.18179
-1.50094
-1.63889
-1.66447
-1.62263
-1.55029
-1.46125
-1.3669
-1.27507
-1.19169
-1.1206
-1.06016
-1.00846
-0.966952
-0.942553
-0.930286
-0.890695
-0.86689
-0.769115
-0.686984
-0.617079
-0.536404
-0.460271
-0.394135
-0.333494
-0.274332
-0.214223
-0.15011
-0.0785349
0.0036579
0.0957869
0.198269
0.293609
0.368182
0.580317
0.808611
0.730635
0.465603
0.071969
-0.481001
-1.13126
-1.70507
-2.09665
-2.23041
-2.20346
-2.10516
-1.97399
-1.83137
-1.69199
-1.56311
-1.45116
-1.35401
-1.2713
-1.20085
-1.14423
-1.10529
-1.07359
-1.02254
-0.989079
-0.853552
-0.76623
-0.692056
-0.608479
-0.527852
-0.45635
-0.389987
-0.324228
-0.256205
-0.18247
-0.0988828
-0.00115245
0.112588
0.24048
0.372706
0.498877
0.761384
0.985124
0.802181
0.407989
-0.122359
-0.847131
-1.68243
-2.39621
-2.86014
-2.96443
-2.85216
-2.6545
-2.43416
-2.21846
-2.02432
-1.85097
-1.7013
-1.57457
-1.46826
-1.37959
-1.309
-1.25542
-1.20568
-1.14639
-1.11739
-0.929143
-0.842224
-0.765694
-0.680334
-0.596294
-0.520071
-0.448382
-0.376317
-0.300488
-0.217058
-0.121053
-0.00645039
0.129571
0.284329
0.451976
0.641688
0.949557
1.16275
0.860393
0.307835
-0.396943
-1.34927
-2.43743
-3.32522
-3.80504
-3.84946
-3.62509
-3.28026
-2.93738
-2.62387
-2.35711
-2.12656
-1.9343
-1.77512
-1.64471
-1.5388
-1.45531
-1.38787
-1.3245
-1.26805
-1.25188
-0.998612
-0.914944
-0.838039
-0.752084
-0.665849
-0.585706
-0.509099
-0.431025
-0.347548
-0.25432
-0.145443
-0.0131512
0.14631
0.329234
0.538283
0.791006
1.13645
1.33308
0.918995
0.167198
-0.755966
-1.9927
-3.36682
-4.50605
-5.04587
-4.93835
-4.53603
-3.99163
-3.49103
-3.03508
-2.67624
-2.37969
-2.14161
-1.94881
-1.79466
-1.67217
-1.57551
-1.49472
-1.42307
-1.37113
-1.35054
-1.0649
-0.985361
-0.909776
-0.82441
-0.737133
-0.653927
-0.572857
-0.489082
-0.398187
-0.295196
-0.173321
-0.0234995
0.15938
0.375428
0.629054
0.935953
1.31066
1.49297
0.982466
-0.00432798
-1.19192
-2.76151
-4.44023
-5.82206
-6.49679
-6.27281
-5.58329
-4.78575
-4.06651
-3.43001
-2.96846
-2.59813
-2.31337
-2.0884
-1.9127
-1.77529
-1.66637
-1.57507
-1.49899
-1.44737
-1.41366
-1.13268
-1.05677
-0.982871
-0.898865
-0.811472
-0.72602
-0.641001
-0.551865
-0.45387
-0.341395
-0.207054
-0.0407982
0.162917
0.415724
0.709581
1.06547
1.45927
1.62756
1.04205
-0.179214
-1.67756
-3.60172
-5.65316
-7.34122
-7.98876
-7.56774
-6.71312
-5.66557
-4.66899
-3.79501
-3.22557
-2.77177
-2.44019
-2.18839
-1.9951
-1.84665
-1.7279
-1.6298
-1.55047
-1.4953
-1.45073
-1.20882
-1.13398
-1.06088
-0.978231
-0.891153
-0.803996
-0.715479
-0.621307
-0.516699
-0.39535
-0.249912
-0.0692317
0.155252
0.439075
0.776339
1.17515
1.57323
1.71578
1.10084
-0.322383
-2.11908
-4.42863
-6.823
-8.7522
-9.4409
-8.82425
-7.82921
-6.48624
-5.27773
-4.15053
-3.4395
-2.90427
-2.52929
-2.25849
-2.04731
-1.89033
-1.76284
-1.6601
-1.5773
-1.517
-1.46557
-1.30152
-1.22358
-1.14904
-1.06688
-0.979992
-0.89135
-0.799735
-0.701074
-0.590388
-0.461296
-0.305609
-0.113578
0.127818
0.437541
0.808261
1.25744
1.63568
1.76915
1.14425
-0.434633
-2.52929
-5.19748
-7.82657
-9.88172
-10.6235
-9.85505
-8.78782
-6.9999
-5.68777
-4.41054
-3.59788
-3.0056
-2.59006
-2.31399
-2.08058
-1.91869
-1.78263
-1.67699
-1.58977
-1.52403
-1.46736
-1.4153
-1.33154
-1.25306
-1.17037
-1.08292
-0.992728
-0.897523
-0.794824
-0.677986
-0.542034
-0.378547
-0.177234
0.0696649
0.395896
0.778043
1.25518
1.63466
1.80684
1.16759
-0.524878
-2.87448
-5.78159
-8.56399
-10.6336
-11.4858
-10.5443
-9.58399
-7.27135
-5.99422
-4.54133
-3.67508
-3.06687
-2.59095
-2.33461
-2.07985
-1.92569
-1.7833
-1.67985
-1.58998
-1.52285
-1.46288
-1.55653
-1.46359
-1.37963
-1.29387
-1.20706
-1.11363
-1.01832
-0.909804
-0.794394
-0.649331
-0.490793
-0.277256
-0.0389794
0.287595
0.657868
1.15563
1.58476
1.8586
1.2453
-0.454529
-2.83903
-5.83397
-8.53257
-10.8255
-11.9512
-10.9069
-10.2201
-7.4269
-6.24809
-4.64908
-3.57577
-3.01956
-2.38319
-2.21673
-1.96851
-1.86806
-1.73115
-1.65201
-1.55785
-1.50047
-1.43517
-1.72841
-1.62961
-1.54235
-1.45229
-1.36536
-1.26898
-1.17315
-1.0609
-0.946022
-0.797865
-0.640105
-0.426904
-0.188664
0.121641
0.493011
0.976389
1.46251
1.79993
1.22419
-0.322973
-2.66582
-5.71176
-8.21716
-10.6414
-11.7126
-10.9286
-10.349
-7.31957
-6.24124
-4.54189
-3.31992
-2.81307
-2.17281
-2.09176
-1.87336
-1.80373
-1.67879
-1.6182
-1.51423
-1.46564
-1.39313
-1.34988
-1.37744
-1.39787
-1.40205
-1.40066
-1.38865
-1.36476
-1.32792
-1.26432
-1.18013
-1.0922
-1.00609
-0.912965
-0.809839
-0.698261
-0.596713
-0.552373
-1.2957
-1.32862
-1.35592
-1.36486
-1.36845
-1.3638
-1.34655
-1.32262
-1.28675
-1.22274
-1.14254
-1.06861
-0.996971
-0.923947
-0.836805
-0.761139
-0.667669
-1.25617
-1.28647
-1.31478
-1.32732
-1.33434
-1.33442
-1.32482
-1.30742
-1.28658
-1.25341
-1.19584
-1.13489
-1.07642
-1.01874
-0.951179
-0.896383
-0.803328
-1.20979
-1.24382
-1.27652
-1.29384
-1.30511
-1.30895
-1.3056
-1.29398
-1.27811
-1.26164
-1.23032
-1.18302
-1.13727
-1.09209
-1.03999
-0.993522
-0.922149
-1.17072
-1.20442
-1.23862
-1.26037
-1.27664
-1.28452
-1.28568
-1.28083
-1.27009
-1.25765
-1.24436
-1.21817
-1.18391
-1.15031
-1.11203
-1.07699
-1.01981
-1.1298
-1.16396
-1.20073
-1.22638
-1.24721
-1.26048
-1.26602
-1.266
-1.26115
-1.25271
-1.24303
-1.23259
-1.21514
-1.19125
-1.16435
-1.14037
-1.09539
-1.09024
-1.12419
-1.1618
-1.19059
-1.21528
-1.23341
-1.2449
-1.24971
-1.24973
-1.24615
-1.24039
-1.23276
-1.22496
-1.21442
-1.19961
-1.18537
-1.15484
-1.05058
-1.08306
-1.12123
-1.1521
-1.1797
-1.20185
-1.21854
-1.22949
-1.23524
-1.23609
-1.23484
-1.23174
-1.22628
-1.22102
-1.21721
-1.21054
-1.19415
-1.00852
-1.0406
-1.07788
-1.10973
-1.13941
-1.16482
-1.18579
-1.20204
-1.21372
-1.22089
-1.22497
-1.22606
-1.22559
-1.22417
-1.22237
-1.21918
-1.21442
-0.965886
-0.994747
-1.0308
-1.06304
-1.0942
-1.12204
-1.14647
-1.16708
-1.18374
-1.19648
-1.20616
-1.21315
-1.21732
-1.22044
-1.22326
-1.22405
-1.2242
-0.917459
-0.945397
-0.979734
-1.01156
-1.04334
-1.07272
-1.09975
-1.12383
-1.14469
-1.16234
-1.1768
-1.18837
-1.19856
-1.206
-1.21231
-1.21733
-1.22525
-0.867333
-0.890512
-0.923448
-0.954411
-0.986003
-1.01605
-1.04463
-1.07083
-1.09466
-1.11613
-1.13484
-1.15109
-1.16568
-1.17766
-1.18833
-1.19739
-1.21316
-0.806833
-0.830472
-0.860888
-0.89015
-0.921016
-0.951055
-0.980198
-1.00778
-1.03372
-1.05774
-1.07976
-1.09966
-1.11771
-1.13538
-1.15009
-1.16183
-1.18432
-0.746398
-0.762483
-0.790287
-0.817265
-0.846789
-0.876011
-0.905047
-0.933567
-0.960755
-0.986311
-1.01084
-1.03373
-1.05468
-1.07572
-1.0938
-1.10869
-1.13759
-0.671291
-0.688394
-0.712582
-0.735418
-0.761228
-0.788274
-0.81629
-0.84443
-0.872152
-0.899482
-0.926064
-0.950359
-0.973104
-0.997691
-1.01868
-1.03732
-1.07201
-0.604061
-0.607717
-0.625187
-0.643276
-0.664369
-0.687147
-0.71146
-0.736831
-0.762894
-0.789689
-0.816649
-0.842587
-0.868819
-0.896041
-0.918536
-0.939893
-0.978138
-0.517746
-0.520912
-0.531176
-0.542816
-0.557462
-0.573879
-0.592041
-0.611731
-0.632796
-0.655312
-0.678783
-0.70245
-0.727598
-0.754107
-0.777163
-0.803068
-0.841391
-0.436088
-0.432015
-0.433712
-0.436569
-0.441501
-0.449292
-0.459873
-0.472482
-0.486523
-0.501989
-0.518328
-0.535309
-0.554873
-0.57449
-0.590233
-0.617822
-0.64466
-0.328256
-0.325372
-0.322255
-0.319223
-0.317839
-0.318008
-0.319216
-0.321103
-0.324488
-0.329578
-0.335768
-0.34345
-0.353773
-0.362994
-0.371684
-0.394673
-0.394787
-0.229626
-0.211019
-0.196653
-0.183912
-0.172935
-0.163089
-0.154311
-0.146597
-0.140032
-0.134606
-0.130253
-0.126973
-0.12493
-0.123301
-0.121211
-0.128453
-0.118829
-0.0892944
-0.0719882
-0.0526627
-0.0312363
-0.0102786
0.0102369
0.0300279
0.0490349
0.0671674
0.084356
0.100666
0.116312
0.130646
0.144505
0.161496
0.168301
0.20197
0.0133342
0.0558955
0.0915366
0.126107
0.159255
0.191769
0.223652
0.254935
0.28564
0.315954
0.346408
0.37795
0.410285
0.443986
0.484294
0.504136
0.565263
0.161975
0.20227
0.245493
0.291089
0.33628
0.381136
0.42557
0.469891
0.514765
0.561278
0.610415
0.662248
0.713722
0.765088
0.82277
0.855172
0.941291
0.271244
0.340766
0.40156
0.461357
0.51971
0.577478
0.63527
0.694446
0.756594
0.822716
0.889709
0.957475
1.02437
1.08982
1.15919
1.20164
1.30753
0.430634
0.49729
0.566868
0.638761
0.709945
0.781045
0.853677
0.930155
1.01062
1.09169
1.17241
1.2524
1.33035
1.4055
1.48244
1.5329
1.64952
0.549864
0.648484
0.735746
0.821785
0.906362
0.991624
1.08033
1.17408
1.26781
1.36032
1.45067
1.53852
1.62296
1.7034
1.78451
1.84135
1.96165
0.718879
0.814973
0.912257
1.01092
1.10872
1.20851
1.31324
1.41908
1.52243
1.62218
1.71766
1.8088
1.89526
1.97688
2.05842
2.11764
2.23715
0.850903
0.980351
1.09401
1.20568
1.31627
1.42991
1.54753
1.66133
1.76987
1.87234
1.96856
2.05891
2.14368
2.22321
2.30229
2.36121
2.47617
1.0317
1.15861
1.28228
1.4056
1.52821
1.65443
1.7794
1.89694
2.00622
2.1072
2.20036
2.28664
2.36694
2.44202
2.51651
2.57326
2.68111
1.18094
1.34072
1.47746
1.61082
1.74354
1.87926
2.00645
2.12295
2.22872
2.32455
2.41165
2.49148
2.56542
2.63444
2.70304
2.75676
2.85578
1.3795
1.53458
1.67898
1.82076
1.96191
2.1011
2.22579
2.33683
2.43544
2.52328
2.60218
2.67402
2.7405
2.80266
2.86473
2.91486
3.00409
1.55218
1.7368
1.88873
2.03567
2.18196
2.3175
2.43492
2.5367
2.62531
2.70315
2.77254
2.8356
2.89415
2.94921
3.00465
3.05077
3.12975
1.77656
1.95041
2.10479
2.25445
2.40089
2.52633
2.632
2.72147
2.79808
2.86473
2.92396
2.97797
3.02853
3.07659
3.12559
3.16738
3.23607
1.97984
2.17579
2.3298
2.47795
2.61419
2.72508
2.81565
2.89069
2.9541
3.00902
3.05799
3.1031
3.14589
3.18722
3.22993
3.26707
3.32595
2.23741
2.41149
2.56002
2.70143
2.8194
2.91159
2.98464
3.04403
3.09379
3.13698
3.17597
3.21262
3.24814
3.28331
3.31994
3.35215
3.40191
2.47589
2.65885
2.79694
2.91924
3.01333
3.08383
3.13792
3.18117
3.2174
3.24935
3.279
3.30781
3.33668
3.36626
3.39729
3.42518
3.46625
2.76781
2.9128
3.03363
3.12715
3.19394
3.24106
3.27571
3.30299
3.32626
3.3478
3.36898
3.39072
3.41349
3.43767
3.46297
3.48661
3.52032
3.03644
3.17553
3.26506
3.32353
3.36075
3.38419
3.40004
3.41237
3.42379
3.43584
3.44917
3.46445
3.48162
3.50035
3.5194
3.53753
3.56384
3.35133
3.43648
3.48323
3.50544
3.51263
3.51325
3.51175
3.51075
3.51194
3.51559
3.5213
3.53035
3.54198
3.55522
3.56853
3.58167
3.59801
3.63575
3.68486
3.68298
3.66886
3.64835
3.62723
3.60889
3.59495
3.58601
3.58156
3.58121
3.58433
3.59016
3.59769
3.60537
3.61394
3.62381
4.407
4.48191
4.53986
4.59542
4.63568
4.67416
4.70408
4.73166
4.75679
4.7794
4.80324
4.82486
4.84702
4.87121
4.89579
4.92841
4.95863
5.00433
5.03999
5.09465
5.13524
5.19538
5.24058
5.30351
5.34548
5.40189
5.4332
5.47765
5.48361
5.48718
5.46992
5.44154
5.38918
5.32087
5.2258
5.09437
4.92557
4.70954
4.47873
4.19971
3.9343
4.32775
4.40352
4.4642
4.51704
4.56102
4.59882
4.6313
4.66006
4.68626
4.71068
4.73341
4.75564
4.77863
4.8029
4.82937
4.85792
4.89023
4.92559
4.96503
5.00677
5.04966
5.09562
5.14091
5.18722
5.22861
5.26916
5.30019
5.325
5.32936
5.32377
5.3039
5.26838
5.2156
5.14567
5.04897
4.92265
4.76536
4.57932
4.36985
4.14327
3.90785
4.25464
4.33092
4.39218
4.4466
4.49249
4.53246
4.56712
4.59794
4.62529
4.64948
4.67193
4.69412
4.71676
4.74043
4.76571
4.79297
4.82289
4.8555
4.8918
4.92969
4.96863
5.00734
5.04659
5.08359
5.11822
5.14893
5.17223
5.1845
5.18473
5.17357
5.14888
5.1098
5.05598
4.98222
4.88468
4.76257
4.6166
4.44829
4.26254
4.06553
3.86534
4.19106
4.26762
4.32926
4.3849
4.43258
4.47444
4.51092
4.54252
4.5697
4.59442
4.61766
4.64024
4.66281
4.68597
4.71024
4.73609
4.76389
4.79391
4.8265
4.86108
4.89478
4.92778
4.95925
4.98914
5.01631
5.03867
5.05255
5.05615
5.05161
5.03527
5.00665
4.96561
4.90796
4.83083
4.73368
4.61618
4.47935
4.3258
4.15949
3.98825
3.81823
4.13418
4.21099
4.27282
4.32974
4.37886
4.42189
4.45881
4.49094
4.51963
4.54561
4.56969
4.59259
4.61498
4.63747
4.66061
4.68489
4.71064
4.73803
4.76712
4.79791
4.82744
4.85448
4.87955
4.90306
4.92317
4.93677
4.94179
4.94076
4.93035
4.90968
4.87866
4.8331
4.77145
4.69297
4.59714
4.48437
4.35628
4.21563
4.0673
3.92016
3.77274
4.08286
4.15842
4.22015
4.27772
4.3276
4.37168
4.41032
4.44445
4.47481
4.50215
4.52712
4.55043
4.57274
4.59469
4.61682
4.63959
4.66332
4.68814
4.714
4.74078
4.76629
4.78757
4.80751
4.82513
4.83727
4.84275
4.84337
4.83677
4.82162
4.79819
4.76165
4.71177
4.64767
4.56869
4.47492
4.36734
4.24776
4.11973
3.99017
3.8617
3.73179
4.03654
4.1099
4.17013
4.22785
4.27876
4.32451
4.36515
4.40135
4.43361
4.4625
4.48863
4.51264
4.53516
4.55682
4.5782
4.59973
4.62168
4.64409
4.66686
4.68967
4.71046
4.72775
4.74293
4.75323
4.75864
4.75996
4.75582
4.74509
4.72585
4.69622
4.65532
4.60233
4.53658
4.45799
4.36711
4.26511
4.15429
4.04107
3.92627
3.81268
3.69729
3.99732
4.06744
4.12561
4.18258
4.23379
4.28061
4.32285
4.36086
4.39492
4.42545
4.45295
4.47795
4.50106
4.52286
4.54385
4.56444
4.5849
4.60525
4.62529
4.6445
4.66121
4.67482
4.68351
4.6885
4.69024
4.68772
4.67967
4.66344
4.63865
4.60445
4.55997
4.50459
4.43812
4.36081
4.27338
4.17732
4.07806
3.97661
3.87379
3.7728
3.67002
3.96499
4.03065
4.08606
4.14141
4.19221
4.23954
4.28289
4.32239
4.35813
4.39032
4.41933
4.44558
4.46959
4.49189
4.51298
4.53315
4.5526
4.57134
4.58903
4.60524
4.6185
4.62668
4.63123
4.63319
4.63213
4.62488
4.61104
4.58981
4.56054
4.5225
4.47515
4.41824
4.35186
4.27637
4.19282
4.10568
4.01564
3.9239
3.83152
3.74156
3.65006
3.93915
3.9993
4.05128
4.10417
4.15387
4.20103
4.24507
4.28576
4.32302
4.35689
4.38757
4.4154
4.44076
4.46408
4.48575
4.50602
4.52489
4.54227
4.55775
4.5711
4.58056
4.5851
4.5878
4.58677
4.58067
4.56856
4.55001
4.52442
4.49124
4.45003
4.40054
4.34278
4.27685
4.20371
4.12677
4.0467
3.96442
3.88128
3.79824
3.71793
3.63668
3.91948
3.97309
4.021
4.07069
4.1187
4.16513
4.20934
4.25087
4.28948
4.32503
4.35757
4.38728
4.41436
4.43909
4.46168
4.48221
4.5007
4.51703
4.53089
4.54234
4.54778
4.5514
4.5511
4.546
4.53543
4.51899
4.49624
4.46679
4.43031
4.38658
4.3355
4.27702
4.21231
4.14379
4.07211
3.99808
3.92275
3.84727
3.77252
3.70076
3.62913
3.90583
3.9522
3.99525
4.04076
4.08614
4.13092
4.17453
4.21636
4.25593
4.29298
4.32729
4.35886
4.38778
4.41416
4.4381
4.45964
4.47865
4.4949
4.50807
4.51781
4.52215
4.52339
4.51976
4.51079
4.49621
4.47574
4.44913
4.41619
4.37676
4.33076
4.27795
4.21993
4.15817
4.09336
4.02625
3.95771
3.88868
3.82015
3.75297
3.68907
3.62645
3.89731
3.93626
3.97402
4.01453
4.05624
4.09865
4.141
4.18252
4.22256
4.26076
4.29672
4.33036
4.36164
4.39043
4.41662
4.44005
4.46048
4.47739
4.49017
4.49831
4.50166
4.50035
4.49362
4.48123
4.46302
4.43883
4.40854
4.37205
4.32909
4.28044
4.22752
4.17105
4.11177
4.05031
3.98739
3.92382
3.8605
3.79835
3.73823
3.68158
3.62678
3.89179
3.92334
3.95661
3.99272
4.03116
4.07129
4.11197
4.1528
4.19307
4.23236
4.27027
4.30645
4.34054
4.37213
4.40087
4.42616
4.44744
4.46428
4.47636
4.48318
4.48524
4.48185
4.47257
4.45728
4.43589
4.40825
4.37412
4.33393
4.28877
4.23934
4.18665
4.13129
4.07393
4.01525
3.95593
3.89676
3.83842
3.78151
3.72708
3.67624
3.62798
3.88989
3.91308
3.9414
3.973
4.00816
4.04503
4.08366
4.12361
4.1639
4.20397
4.24327
4.28125
4.31735
4.35112
4.38205
4.40933
4.43253
4.45099
4.46406
4.4714
4.4727
4.46763
4.4559
4.43747
4.4124
4.38068
4.34337
4.30114
4.25464
4.20468
4.15206
4.09742
4.04139
3.98472
3.92802
3.87219
3.81798
3.76559
3.71594
3.67
3.62855
3.89559
3.90872
3.92787
3.95183
3.98049
4.01329
4.04976
4.08786
4.1271
4.16681
4.20657
4.24599
4.28451
4.32155
4.35621
4.38782
4.41563
4.43822
4.45433
4.46381
4.46468
4.45759
4.44246
4.41931
4.38884
4.35229
4.31058
4.26482
4.21612
4.16499
4.11212
4.05819
4.00363
3.94902
3.89486
3.84156
3.79073
3.74368
3.70068
3.66234
3.63082
3.90661
3.90949
3.92242
3.94157
3.96585
3.99464
4.02686
4.06241
4.1006
4.14061
4.18187
4.22371
4.26548
4.30621
4.34483
4.38014
4.41037
4.4344
4.45139
4.46098
4.46162
4.45211
4.43338
4.40655
4.37255
4.33274
4.28815
4.23977
4.18856
4.13557
4.0814
4.02682
3.97259
3.91931
3.86789
3.81901
3.77279
3.73021
3.69267
3.6617
3.63972
-0.41273
-0.477954
-0.560924
-0.665707
-0.75905
-0.847892
-0.927824
-0.999383
-1.0628
-1.12142
-1.17937
-1.24191
-1.3153
-1.40437
-1.51284
-1.64752
-1.81297
-0.546213
-0.671052
-0.748625
-0.845438
-0.924516
-0.999609
-1.06567
-1.12489
-1.17867
-1.22954
-1.28182
-1.34112
-1.4125
-1.49932
-1.60487
-1.73097
-1.89231
-0.737376
-0.864198
-0.926791
-1.00834
-1.07454
-1.13728
-1.19294
-1.24274
-1.28891
-1.33427
-1.38373
-1.44238
-1.51339
-1.59915
-1.70342
-1.83131
-1.98581
-0.930608
-1.03899
-1.09198
-1.15945
-1.21479
-1.26593
-1.31207
-1.35365
-1.39367
-1.43614
-1.48518
-1.54364
-1.61346
-1.69662
-1.79717
-1.91921
-2.06282
-1.11173
-1.19902
-1.24447
-1.29942
-1.34534
-1.38678
-1.42497
-1.46061
-1.49748
-1.53962
-1.58898
-1.64675
-1.71455
-1.79398
-1.88776
-1.99819
-2.13093
-1.27807
-1.34858
-1.38704
-1.43102
-1.4685
-1.50164
-1.53356
-1.56629
-1.60258
-1.64453
-1.69295
-1.74858
-1.81285
-1.88733
-1.97568
-2.07937
-2.19672
-1.43267
-1.49041
-1.52187
-1.55527
-1.58504
-1.61201
-1.64066
-1.67241
-1.70768
-1.74773
-1.79325
-1.8446
-1.90295
-1.97023
-2.04892
-2.13347
-2.22328
-1.5765
-1.62278
-1.64682
-1.67096
-1.69594
-1.72007
-1.74639
-1.7761
-1.80865
-1.84484
-1.88571
-1.93138
-1.98282
-2.04318
-2.10851
-2.17737
-2.25223
-1.7048
-1.74167
-1.76066
-1.7788
-1.80034
-1.82166
-1.84438
-1.87059
-1.89939
-1.9306
-1.96546
-2.0051
-2.04983
-2.09785
-2.14869
-2.20191
-2.26218
-1.81964
-1.84686
-1.86294
-1.87666
-1.89424
-1.91198
-1.92993
-1.95083
-1.97454
-2.00065
-2.02979
-2.06072
-2.09297
-2.12546
-2.15864
-2.19424
-2.22973
-1.91806
-1.93623
-1.94763
-1.95596
-1.96895
-1.98386
-1.99855
-2.01412
-2.03084
-2.04795
-2.06565
-2.08437
-2.10442
-2.12639
-2.15077
-2.17636
-2.20266
-1.98548
-1.99365
-2.00016
-2.00483
-2.01118
-2.01881
-2.02627
-2.03387
-2.04239
-2.05201
-2.06232
-2.07444
-2.08868
-2.10474
-2.12342
-2.14546
-2.17653
-2.01454
-2.0148
-2.01568
-2.0168
-2.01862
-2.02131
-2.02424
-2.02717
-2.03037
-2.03411
-2.03857
-2.04402
-2.0508
-2.05909
-2.0694
-2.08156
-2.09735
-2.009
-2.00216
-1.99964
-1.99885
-1.99777
-1.99671
-1.9957
-1.99472
-1.99385
-1.99321
-1.99297
-1.99348
-1.99499
-1.99743
-2.00075
-2.00313
-2.0045
-1.95645
-1.94503
-1.93883
-1.93574
-1.9307
-1.92618
-1.92267
-1.91967
-1.91689
-1.91433
-1.91235
-1.91133
-1.91156
-1.91381
-1.91874
-1.92624
-1.94453
-1.84689
-1.83193
-1.82138
-1.81702
-1.80976
-1.80354
-1.79859
-1.79345
-1.78923
-1.78592
-1.78304
-1.78074
-1.77911
-1.77822
-1.7784
-1.77922
-1.78393
-1.67203
-1.66353
-1.64785
-1.6442
-1.63685
-1.62906
-1.62514
-1.62238
-1.61972
-1.61743
-1.61556
-1.61401
-1.61262
-1.61109
-1.60916
-1.60543
-1.59914
-1.42636
-1.42942
-1.41261
-1.4124
-1.4114
-1.40804
-1.407
-1.40683
-1.40752
-1.40924
-1.41204
-1.416
-1.42131
-1.42824
-1.43765
-1.44952
-1.47025
-1.12447
-1.13492
-1.12099
-1.12435
-1.12707
-1.12878
-1.13161
-1.13542
-1.13993
-1.14517
-1.15117
-1.1579
-1.16537
-1.17353
-1.18282
-1.1925
-1.2065
-0.772745
-0.795217
-0.784385
-0.79151
-0.797558
-0.803694
-0.811455
-0.820218
-0.829881
-0.840409
-0.851634
-0.863285
-0.874963
-0.885861
-0.895213
-0.899717
-0.897656
-0.367759
-0.406784
-0.40349
-0.417751
-0.428345
-0.439811
-0.453993
-0.469597
-0.486801
-0.505803
-0.52675
-0.549893
-0.575635
-0.604285
-0.637261
-0.673155
-0.719571
0.0707121
0.01762
0.0163821
-0.0078856
-0.026375
-0.0456827
-0.0673523
-0.0901253
-0.114294
-0.139942
-0.167112
-0.195869
-0.226435
-0.259185
-0.296327
-0.338108
-0.395765
0.524386
0.459147
0.454299
0.419622
0.39134
0.362115
0.331351
0.299955
0.267289
0.233155
0.197517
0.160593
0.122802
0.0853534
0.0494342
0.0220579
0.00759118
0.97028
0.894319
0.887697
0.844904
0.811565
0.774838
0.735694
0.696026
0.655124
0.612499
0.567485
0.519252
0.466414
0.407935
0.34225
0.273189
0.191238
1.39454
1.31052
1.30116
1.25387
1.21703
1.1762
1.13305
1.08902
1.04321
0.995779
0.946635
0.895871
0.842948
0.787309
0.722731
0.644534
0.52811
1.78768
1.69827
1.68611
1.63737
1.59923
1.55678
1.51163
1.46541
1.41696
1.36601
1.31198
1.25471
1.19434
1.13396
1.07623
1.03405
1.01838
2.14376
2.05203
2.03788
1.98962
1.95114
1.90881
1.86439
1.81873
1.77094
1.72076
1.66738
1.60988
1.54568
1.47268
1.38493
1.29102
1.18879
2.46048
2.36999
2.35361
2.30684
2.26962
2.22892
2.18685
2.1436
2.09821
2.05051
2.00001
1.94671
1.88985
1.82984
1.75954
1.67162
1.51191
2.73614
2.64938
2.63178
2.58735
2.55246
2.51513
2.47684
2.43774
2.39678
2.35356
2.30714
2.25677
2.20121
2.14267
2.0833
2.03926
2.01725
2.97222
2.89089
2.87292
2.83213
2.80003
2.76705
2.73354
2.69969
2.66462
2.62792
2.58877
2.5463
2.49804
2.44166
2.3687
2.28125
2.18567
3.17236
3.09759
3.07973
3.04358
3.01432
2.98579
2.95754
2.92954
2.90103
2.87153
2.84029
2.80686
2.7702
2.73068
2.68184
2.61835
2.4739
3.34099
3.2735
3.25452
3.22305
3.1974
3.17321
3.15029
3.12841
3.10693
3.08532
3.06273
3.03827
3.01025
2.97896
2.94517
2.92563
2.90859
3.48025
3.42068
3.40081
3.37375
3.35197
3.33208
3.31433
3.29825
3.28356
3.27003
3.25685
3.24327
3.22743
3.20752
3.17625
3.12677
3.06952
3.59322
3.54193
3.52232
3.49904
3.4813
3.46576
3.4526
3.44178
3.43347
3.42784
3.42337
3.41966
3.4163
3.41326
3.40478
3.39083
3.31825
3.68302
3.641
3.62267
3.60258
3.5883
3.57645
3.56756
3.56313
3.56081
3.56098
3.56399
3.56919
3.57594
3.58411
3.59305
3.61216
3.6209
3.75405
3.72044
3.70406
3.68681
3.67496
3.66647
3.66278
3.66177
3.66434
3.67077
3.681
3.69453
3.71059
3.72826
3.74482
3.75568
3.75818
3.80899
3.78195
3.76786
3.75408
3.74486
3.74099
3.74002
3.7429
3.75029
3.76239
3.77919
3.80039
3.82547
3.85413
3.88506
3.91973
3.93994
3.849
3.82813
3.81777
3.80867
3.80391
3.80293
3.80548
3.81236
3.82409
3.84104
3.86336
3.89095
3.92335
3.96016
4.00061
4.04993
4.09829
3.87769
3.86415
3.85702
3.85254
3.85105
3.85276
3.85864
3.86921
3.88501
3.9065
3.93391
3.96727
4.00635
4.05054
4.09852
4.1476
4.19779
3.899
3.88801
3.8813
3.87982
3.88065
3.88501
3.89409
3.90861
3.92892
3.95545
3.98903
4.02904
4.07455
4.12589
4.18331
4.24719
4.31992
-1.81262
-1.63851
-1.4515
-1.23807
-0.969427
-0.595236
-0.0295319
0.852793
1.42844
-1.14196
-6.77075
-10.4564
-10.1561
-6.09991
-3.89288
-2.66311
-2.16058
-1.83865
-1.64148
-1.48714
-1.94487
-1.78419
-1.61154
-1.41282
-1.15991
-0.812038
-0.296376
0.453819
0.820697
-1.72748
-6.82849
-9.48063
-9.26316
-5.65428
-3.74241
-2.54449
-2.11623
-1.8434
-1.65727
-1.50613
-2.10658
-1.96257
-1.81182
-1.63268
-1.40516
-1.1041
-0.670932
-0.0888089
-0.000551512
-2.76476
-7.21545
-8.63222
-7.87164
-4.80318
-3.26487
-2.39224
-2.06996
-1.85487
-1.68432
-1.5375
-2.30502
-2.18371
-2.06138
-1.90807
-1.72361
-1.49779
-1.19311
-0.850658
-1.2185
-4.2664
-7.92633
-8.07116
-6.25938
-3.77432
-2.6605
-2.19257
-2.01144
-1.86049
-1.71602
-1.57779
-2.54927
-2.45995
-2.36787
-2.25707
-2.13983
-2.02464
-1.90516
-1.91078
-2.92692
-6.298
-8.88737
-7.78933
-4.68976
-2.70131
-2.04649
-2.00427
-1.95268
-1.87533
-1.75791
-1.63049
-2.85105
-2.79737
-2.74972
-2.70196
-2.68149
-2.71444
-2.84691
-3.39407
-5.27868
-8.98838
-10.1994
-7.85768
-3.38137
-1.68429
-1.50489
-1.82756
-1.90266
-1.89597
-1.81354
-1.70005
-3.22351
-3.20721
-3.22881
-3.26673
-3.39126
-3.63544
-4.15278
-5.40558
-8.3937
-12.3082
-12.0734
-8.11158
-2.4391
-0.751717
-0.992365
-1.59927
-1.85441
-1.92565
-1.88732
-1.79293
-3.67152
-3.71155
-3.83947
-4.00582
-4.32621
-4.87786
-5.98977
-8.06924
-12.1694
-15.7287
-14.2295
-8.54697
-1.93511
-0.0131708
-0.517754
-1.33997
-1.83338
-1.97888
-1.98338
-1.9077
-4.21252
-4.34126
-4.6096
-4.94564
-5.51114
-6.49642
-8.40018
-11.2774
-16.0349
-18.7559
-16.0715
-9.09152
-1.95389
0.339185
-0.187645
-1.109
-1.84512
-2.07814
-2.11695
-2.05228
-4.86344
-5.1182
-5.56641
-6.10126
-6.95619
-8.43715
-10.9268
-14.8856
-19.5067
-20.9379
-17.2428
-9.70389
-2.49916
0.194715
-0.144215
-1.10265
-1.94728
-2.24788
-2.31344
-2.24944
-5.628
-6.05206
-6.72698
-7.49901
-8.73942
-10.7327
-13.7778
-18.159
-21.905
-22.0294
-17.9055
-10.3588
-3.54663
-0.494126
-0.422985
-1.2915
-2.16289
-2.49471
-2.56832
-2.52013
-6.52501
-7.14825
-8.08303
-9.21061
-10.9517
-13.3303
-16.8768
-20.7032
-22.9804
-22.34
-18.0727
-11.0246
-5.00489
-1.84667
-1.22641
-1.84487
-2.53011
-2.86868
-2.91991
-2.8951
-7.58044
-8.44047
-9.69347
-11.2651
-13.2348
-16.0323
-19.3894
-21.8053
-22.8748
-21.6434
-17.529
-11.665
-6.7996
-3.86434
-2.75043
-2.96827
-3.33486
-3.5643
-3.448
-3.40724
-8.85652
-10.0169
-11.5444
-13.3384
-15.5986
-18.2052
-20.1989
-21.429
-21.8866
-20.1786
-16.636
-12.2895
-8.81067
-6.44023
-5.16073
-4.90816
-4.9081
-4.72486
-4.24708
-4.14386
-10.3946
-11.8351
-13.5691
-15.3817
-17.1701
-18.5701
-19.6297
-20.2803
-20.3466
-18.5684
-15.8688
-12.9571
-10.8446
-9.29924
-8.37415
-7.89293
-7.40797
-6.66933
-5.75081
-5.32921
-12.16
-13.6276
-14.9109
-16.0177
-16.9774
-17.8048
-18.4184
-18.7324
-18.462
-16.9487
-15.1571
-13.5299
-12.586
-11.9918
-11.8255
-11.6256
-11.0304
-9.94486
-8.27469
-7.17929
-13.6543
-14.1897
-14.6796
-15.3483
-16.028
-16.561
-16.8794
-16.991
-16.5619
-15.4957
-14.4648
-13.7745
-13.7019
-14.0334
-14.55
-14.9555
-14.9567
-13.9641
-11.8521
-10.4177
-13.8083
-13.7662
-14.0217
-14.5438
-14.9416
-15.2163
-15.3421
-15.2755
-14.8734
-14.2604
-13.7757
-13.6218
-13.9717
-14.7737
-15.7408
-16.6031
-17.1367
-17.0383
-15.8274
-15.1919
-12.9882
-13.3477
-13.7435
-14.0224
-14.2143
-14.2648
-14.1108
-13.8852
-13.5869
-13.242
-13.0541
-13.1259
-13.5605
-14.4009
-15.5439
-16.6313
-17.3578
-17.6161
-17.6293
-18.0166
-13.2882
-13.1866
-13.1609
-13.1054
-12.9783
-12.7822
-12.5418
-12.2937
-12.0686
-11.9502
-11.9948
-12.2326
-12.6952
-13.4044
-14.3094
-15.2456
-16.0092
-16.5135
-16.9842
-17.7854
-16.5906
-16.4018
-13.4321
-9.86331
-7.46449
-5.64015
-4.37456
-3.51816
-2.92712
-2.51133
-2.20478
-1.98261
-1.80914
-1.67441
-1.57405
-1.49933
-1.4447
-1.40454
-1.37668
-1.35981
-16.3319
-16.2548
-13.451
-9.65608
-7.39559
-5.54506
-4.33519
-3.4962
-2.90032
-2.46837
-2.14142
-1.89414
-1.70833
-1.56753
-1.46237
-1.38555
-1.33003
-1.29029
-1.26777
-1.25401
-15.7716
-15.7724
-13.2139
-9.36285
-7.29827
-5.48201
-4.28273
-3.43502
-2.81882
-2.37492
-2.04287
-1.79229
-1.60323
-1.45984
-1.35297
-1.27538
-1.21906
-1.18237
-1.16877
-1.15743
-15.208
-15.2688
-12.8954
-9.08048
-7.15752
-5.41142
-4.2301
-3.37628
-2.74668
-2.28787
-1.94811
-1.6931
-1.50146
-1.35754
-1.25007
-1.17028
-1.11368
-1.08431
-1.0753
-1.06026
-14.5641
-14.6571
-12.4809
-8.86669
-6.98673
-5.32809
-4.17676
-3.33227
-2.70049
-2.23305
-1.87843
-1.61057
-1.40974
-1.262
-1.15212
-1.07009
-1.01692
-0.989992
-0.980285
-0.958759
-13.8668
-13.9718
-11.9851
-8.62107
-6.78873
-5.22842
-4.11337
-3.28541
-2.65674
-2.18471
-1.82402
-1.54897
-1.33964
-1.18068
-1.0621
-0.977479
-0.922811
-0.895679
-0.879032
-0.844777
-13.1049
-13.1719
-11.4129
-8.31294
-6.5643
-5.11114
-4.03881
-3.23359
-2.61309
-2.14008
-1.77505
-1.49343
-1.27692
-1.11088
-0.982282
-0.888567
-0.827485
-0.794396
-0.764447
-0.716851
-12.2909
-12.2386
-10.759
-7.96319
-6.30386
-4.96541
-3.94599
-3.17084
-2.5646
-2.09488
-1.72781
-1.44061
-1.21655
-1.04151
-0.903555
-0.79981
-0.725963
-0.679145
-0.633322
-0.578332
-11.4549
-11.2392
-9.95945
-7.54016
-5.99605
-4.77813
-3.82389
-3.08761
-2.50287
-2.04169
-1.67572
-1.38448
-1.15273
-0.967052
-0.816882
-0.699436
-0.611725
-0.544703
-0.484915
-0.430736
-10.6314
-10.2668
-9.05111
-7.03077
-5.63277
-4.53706
-3.65876
-2.9706
-2.41528
-1.9688
-1.60814
-1.31534
-1.07656
-0.879723
-0.716161
-0.583295
-0.47848
-0.388844
-0.31716
-0.263481
-9.83805
-9.40929
-8.13605
-6.45073
-5.2114
-4.23323