/*--------------------------------*- C++ -*----------------------------------*\
  =========                 |
  \\      /  F ield         | OpenFOAM: The Open Source CFD Toolbox
   \\    /   O peration     | Website:  https://openfoam.org
    \\  /    A nd           | Version:  6
     \\/     M anipulation  |
\*---------------------------------------------------------------------------*/
FoamFile
{
    version     2.0;
    format      ascii;
    class       volScalarField;
    location    "4.3";
    object      p;
}
// * * * * * * * * * * * * * * * * * * * * * * * * * * * * * * * * * * * * * //

dimensions      [1 -1 -2 0 0 0 0];

internalField   nonuniform List<scalar> 
10000
(
0.999999
0.999999
1
1
1
1
1
1
1
1
1
1
1
1
1
1
1
1
1
1
1
1
0.999999
1
1
1
1
1
1
1
1
1
1
1
1
1
1
1
1
1
1
1.00001
1.00001
1.00001
1.00002
1.00002
1.00003
1.00003
1.00003
1.00002
1.00002
1.00002
1.00002
1.00003
1.00006
1.00012
1.0002
1.00032
1.00046
1.00063
1.00082
1.00103
1.00124
1.00145
1.00164
1.00182
1.00197
1.00208
1.00216
1.00219
1.00219
1.00214
1.00206
1.00193
1.00178
1.00161
1.00142
1.00123
1.00104
1.00085
1.00067
1.00051
1.00038
1.00026
1.00017
1.0001
1.00005
1.00001
0.999992
0.999981
0.999977
0.999977
0.99998
0.999983
0.999987
0.99999
0.999993
0.999995
0.999997
0.999998
0.999998
0.999999
0.999999
1
1
1
1
1
1
1
1
1
1
1
0.999999
1
1
1
1
1
1
1
1
1
1
0.999999
1
1
1
1
0.999999
1
1
1
1
1
1
1
1
1
1.00001
1.00001
1.00001
1.00002
1.00003
1.00004
1.00004
1.00005
1.00005
1.00004
1.00004
1.00004
1.00006
1.0001
1.00017
1.00027
1.00041
1.00058
1.00079
1.00103
1.00128
1.00154
1.0018
1.00203
1.00225
1.00242
1.00255
1.00264
1.00268
1.00267
1.00261
1.00251
1.00238
1.0022
1.002
1.00178
1.00156
1.00133
1.00111
1.0009
1.00071
1.00054
1.00039
1.00027
1.00017
1.0001
1.00005
1.00001
0.999991
0.999979
0.999975
0.999974
0.999977
0.999981
0.999985
0.999988
0.999992
0.999994
0.999996
0.999997
0.999998
0.999998
0.999999
0.999999
1
1
1
1
1
1
0.999999
1
0.999999
1
0.999999
1
1
1
0.999999
1
1
0.999998
1
1
0.999998
1
1
0.999999
1
1
0.999999
1
1
1
0.999999
1
1
1
1
1
1.00001
1.00001
1.00002
1.00003
1.00004
1.00006
1.00006
1.00007
1.00007
1.00007
1.00007
1.0001
1.00014
1.00022
1.00035
1.00052
1.00074
1.001
1.00129
1.00161
1.00193
1.00225
1.00254
1.0028
1.00301
1.00317
1.00327
1.00332
1.0033
1.00322
1.0031
1.00293
1.00272
1.00248
1.00222
1.00196
1.00169
1.00142
1.00118
1.00094
1.00074
1.00056
1.00041
1.00028
1.00018
1.0001
1.00005
1.00001
0.99999
0.999978
0.999973
0.999972
0.999974
0.999978
0.999982
0.999986
0.99999
0.999993
0.999995
0.999996
0.999997
0.999998
0.999998
0.999999
0.999999
1
1
1
1
1
1
1
1
1
1
0.999999
1
1
0.999998
1
1
0.999996
1
1
0.999997
1
1
1
0.999998
1
1
1
1
1
1
1
1
1
1
1.00001
1.00001
1.00002
1.00003
1.00005
1.00006
1.00008
1.00009
1.0001
1.0001
1.00011
1.00013
1.00018
1.00028
1.00043
1.00064
1.00092
1.00125
1.00162
1.00202
1.00243
1.00283
1.00321
1.00353
1.00379
1.00399
1.00411
1.00415
1.00412
1.00402
1.00386
1.00365
1.00338
1.00309
1.00279
1.00246
1.00213
1.00182
1.00153
1.00124
1.00099
1.00077
1.00057
1.00042
1.00029
1.00018
1.00011
1.00005
1.00001
0.99999
0.999976
0.999971
0.99997
0.999972
0.999976
0.99998
0.999984
0.999988
0.999991
0.999993
0.999995
0.999996
0.999997
0.999998
0.999999
0.999999
1
0.999999
1
1
1
1
0.999998
1
0.999998
1
1
1
0.999997
1
1
0.999994
1
1
0.999997
0.999999
1
1
1
0.999999
0.999999
1
1
0.999998
0.999998
1
1
1
1
1
1.00001
1.00002
1.00003
1.00004
1.00006
1.00009
1.00011
1.00013
1.00013
1.00014
1.00017
1.00023
1.00033
1.00051
1.00077
1.00111
1.00153
1.00201
1.00253
1.00306
1.00358
1.00406
1.00448
1.00482
1.00506
1.00521
1.00526
1.00521
1.00507
1.00486
1.00459
1.00426
1.00389
1.0035
1.0031
1.0027
1.00233
1.00196
1.0016
1.00132
1.00104
1.00079
1.0006
1.00043
1.00029
1.00019
1.00011
1.00005
1.00001
0.999989
0.999975
0.999969
0.999967
0.999969
0.999973
0.999977
0.999981
0.999985
0.999989
0.999991
0.999994
0.999994
0.999996
0.999997
0.999998
0.999998
0.999999
0.999999
1
1
0.999999
1
0.999997
1
0.999999
0.999998
1
1
0.999992
1.00001
1
0.999989
1.00001
1.00001
0.99999
0.999999
1.00001
1
0.999995
1
1
1
1
0.999999
0.999999
1
1
1
1
1.00001
1.00001
1.00002
1.00004
1.00006
1.00009
1.00012
1.00015
1.00017
1.00018
1.00021
1.00026
1.00038
1.00058
1.00088
1.0013
1.00183
1.00244
1.00311
1.00381
1.00449
1.00513
1.00568
1.00614
1.00647
1.00666
1.00673
1.00667
1.00649
1.00621
1.00585
1.00543
1.00495
1.00444
1.00394
1.00346
1.00299
1.0025
1.00208
1.00174
1.00136
1.00107
1.00084
1.0006
1.00044
1.0003
1.00019
1.00011
1.00005
1.00001
0.999988
0.999974
0.999967
0.999965
0.999967
0.99997
0.999974
0.999978
0.999983
0.999986
0.999989
0.999992
0.999992
0.999994
0.999996
0.999997
0.999998
0.999999
0.999999
0.999999
0.999999
1
0.999999
1
0.999998
1
0.999995
1.00001
0.999995
0.999995
1.00001
0.999989
0.999997
1.00001
0.999998
0.999992
1
1.00001
0.999998
0.999994
1
1.00001
1
0.999995
0.999999
1
1
1
1
1
1.00001
1.00001
1.00003
1.00005
1.00008
1.00012
1.00016
1.00019
1.00022
1.00024
1.00029
1.0004
1.00061
1.00096
1.00146
1.00211
1.00289
1.00376
1.00467
1.00558
1.00643
1.00719
1.00781
1.00827
1.00856
1.00867
1.0086
1.00838
1.00801
1.00754
1.007
1.00638
1.00572
1.00508
1.00445
1.00384
1.00323
1.00271
1.00227
1.00179
1.00144
1.00114
1.00082
1.00064
1.00046
1.00029
1.0002
1.00011
1.00005
1.00001
0.999987
0.999973
0.999965
0.999963
0.999964
0.999967
0.999971
0.999975
0.99998
0.999984
0.999987
0.99999
0.99999
0.999992
0.999994
0.999995
0.999997
0.999997
0.999999
0.999998
0.999999
1
0.999995
1
0.999998
0.999997
1
1.00001
0.999983
1.00001
1.00001
0.99998
1.00001
1.00002
0.999984
0.999995
1.00001
1
0.999991
1
1
1
1
0.999996
0.999997
1.00001
1
0.999998
1
1.00001
1.00001
1.00002
1.00004
1.00007
1.00011
1.00016
1.00021
1.00025
1.00027
1.00031
1.00041
1.00061
1.00097
1.00154
1.00232
1.00329
1.0044
1.0056
1.00681
1.00796
1.009
1.00987
1.01054
1.01098
1.01118
1.01115
1.01089
1.01044
1.00985
1.00913
1.00832
1.00746
1.00662
1.00581
1.005
1.00422
1.00354
1.00295
1.00237
1.00193
1.00153
1.00111
1.00091
1.00065
1.00043
1.00033
1.00019
1.00011
1.00006
1.00001
0.999988
0.99997
0.999963
0.99996
0.999961
0.999963
0.999967
0.999972
0.999976
0.99998
0.999984
0.999987
0.999987
0.99999
0.999992
0.999993
0.999996
0.999995
0.999999
0.999996
1
1
0.999997
1
1
0.999987
1.00002
0.999993
0.999983
1.00003
0.999982
0.999988
1.00002
0.999997
0.999985
1.00001
1.00001
0.999997
0.999991
1
1.00001
1
0.999993
1
1
1
1
0.999999
1
1.00001
1.00001
1.00002
1.00005
1.00009
1.00014
1.0002
1.00026
1.0003
1.00034
1.00041
1.00058
1.00092
1.00152
1.0024
1.00356
1.00496
1.0065
1.0081
1.00965
1.01108
1.0123
1.01328
1.01396
1.01435
1.01441
1.01417
1.01366
1.01292
1.01201
1.01099
1.00988
1.00876
1.00767
1.0066
1.00558
1.00469
1.0039
1.00316
1.00256
1.00206
1.00154
1.00124
1.00094
1.00061
1.00051
1.00031
1.00019
1.00013
1.00005
1.00002
0.999983
0.999969
0.999959
0.999956
0.999957
0.999959
0.999963
0.999968
0.999972
0.999976
0.99998
0.999984
0.999983
0.999987
0.999989
0.999991
0.999994
0.999994
0.999997
0.999996
1
0.999994
1
1
0.999994
1
1.00001
0.999969
1.00002
1.00001
0.999969
1.00001
1.00002
0.999981
0.999986
1.00002
1
0.999984
1
1
1
1
0.999992
1
1
1
0.999996
1
1
1
1.00001
1.00003
1.00006
1.00011
1.00017
1.00025
1.00031
1.00036
1.00041
1.00053
1.00081
1.00138
1.00231
1.00363
1.00531
1.00725
1.00932
1.01137
1.0133
1.015
1.01641
1.01747
1.01815
1.01843
1.0183
1.01779
1.01697
1.01589
1.0146
1.01317
1.01172
1.01029
1.00884
1.00747
1.00627
1.00523
1.00428
1.00346
1.00277
1.00211
1.00169
1.00133
1.00085
1.00074
1.00048
1.0003
1.00023
1.00011
1.00005
1.00002
0.99998
0.999966
0.999955
0.999952
0.999952
0.999954
0.999958
0.999962
0.999967
0.999972
0.999976
0.99998
0.999979
0.999982
0.999986
0.999988
0.99999
0.999994
0.999992
0.999998
0.999997
0.999994
1
1
0.999984
1.00002
1
0.999971
1.00004
0.999992
0.999969
1.00003
1
0.999976
1
1.00001
0.999998
0.999989
0.999995
1.00002
1
0.999987
0.999996
1.00001
0.999998
1
1
1
1
1.00001
1.00001
1.00004
1.00007
1.00013
1.00021
1.0003
1.00037
1.00042
1.00049
1.00069
1.00115
1.00203
1.00343
1.00535
1.00768
1.01027
1.01292
1.01547
1.01777
1.01974
1.02131
1.02244
1.02308
1.02324
1.02289
1.02209
1.02087
1.01935
1.01763
1.01579
1.01387
1.01202
1.01025
1.00856
1.0071
1.00582
1.00472
1.00379
1.00292
1.0023
1.00185
1.00125
1.00105
1.00075
1.00044
1.00039
1.00021
1.0001
1.0001
0.999977
1
0.999953
0.999955
0.999946
0.999946
0.999948
0.999952
0.999956
0.999961
0.999966
0.99997
0.999975
0.999974
0.999976
0.999982
0.999984
0.999985
0.999994
0.999987
0.999998
0.999993
0.999994
1.00001
0.999985
1.00001
1.00002
0.999952
1.00005
0.999991
0.999966
1.00004
0.999993
0.999995
0.99999
1.00001
1.00001
0.999981
1
1.00001
1
1
0.999995
0.999988
1.00002
1
0.999987
1.00001
1.00001
0.999996
1.00001
1.00001
1.00004
1.00008
1.00015
1.00024
1.00035
1.00042
1.00048
1.00059
1.0009
1.00163
1.00296
1.00498
1.00765
1.01077
1.01408
1.01733
1.02033
1.02296
1.02516
1.02686
1.02803
1.02864
1.02866
1.02809
1.02698
1.0254
1.02343
1.02115
1.0188
1.01644
1.01402
1.01183
1.00993
1.00811
1.00647
1.00515
1.00411
1.00323
1.00258
1.00185
1.00139
1.00116
1.00065
1.00058
1.00035
1.00021
1.00015
1.00003
1.00005
0.999949
0.999977
0.999939
0.999944
0.99994
0.999942
0.999945
0.999949
0.999954
0.999959
0.999964
0.999968
0.999967
0.999971
0.999975
0.99998
0.999981
0.999987
0.99999
0.999989
0.999993
0.999998
0.999992
0.999999
0.999991
1.00003
0.999954
1.00002
1.00005
0.9999
1.00006
1.00005
0.999901
1.00004
1.00003
0.999962
1
0.999996
1.00002
1.00001
0.999965
1.00001
1.00001
0.999987
1.00001
0.999997
0.999994
1.00001
0.999996
1.00001
1.00002
1.00004
1.00009
1.00018
1.00028
1.00039
1.00047
1.00053
1.00071
1.0012
1.0023
1.00423
1.00707
1.01064
1.01462
1.01864
1.02239
1.02573
1.02856
1.03088
1.03265
1.03386
1.03447
1.03443
1.03372
1.03236
1.03043
1.02809
1.0254
1.02236
1.01932
1.0165
1.01376
1.01134
1.00924
1.00731
1.00579
1.00453
1.00361
1.0027
1.00196
1.00171
1.00096
1.00085
1.00064
1.0003
1.00024
1.00022
0.999967
1.00008
0.999952
0.999963
0.999946
0.999935
0.999936
0.999935
0.999938
0.999942
0.999947
0.999952
0.999957
0.999962
0.999958
0.999965
0.999968
0.999974
0.999979
0.999975
0.999994
0.999979
0.999991
1
0.999973
1.00001
1.00002
0.999922
1.00011
0.999922
0.999985
1.0001
0.999866
1.00009
0.999993
0.99992
1.0001
0.999966
0.999942
1.00007
0.999988
0.999993
0.999994
0.999985
1.00004
0.999988
0.999979
1.00002
0.999991
0.999993
1.00001
1
1.00002
1.00006
1.0001
1.0002
1.00031
1.00042
1.00051
1.00059
1.00086
1.00161
1.00322
1.00594
1.00976
1.01435
1.01916
1.02372
1.02775
1.03115
1.03397
1.03625
1.03801
1.03924
1.03988
1.03986
1.03917
1.0378
1.03575
1.03307
1.03
1.02669
1.02298
1.01936
1.01614
1.01307
1.01046
1.00847
1.00666
1.00501
1.0038
1.00292
1.00237
1.00158
1.00124
1.00098
1.00046
1.0005
1.00027
1.00008
1.0002
0.999875
1.0001
0.999889
0.99997
0.999924
0.999931
0.999929
0.999931
0.999935
0.999939
0.999944
0.999948
0.999955
0.99995
0.999957
0.999962
0.999965
0.999974
0.999973
0.999979
0.999988
0.999986
0.999975
1.00003
0.999924
1.00008
0.999932
0.999966
1.00018
0.999733
1.00015
1.00013
0.999685
1.00022
1.00003
0.99983
1.00013
0.999955
0.999985
1.00006
0.999927
1.00002
1.00002
0.999976
1.00003
0.999975
1
1.00002
0.99998
1.00001
1.00002
1.00001
1.00006
1.00011
1.00022
1.00034
1.00045
1.00054
1.00066
1.00107
1.00217
1.00444
1.00816
1.01312
1.0187
1.02414
1.02889
1.03278
1.03587
1.03835
1.04035
1.04196
1.04316
1.0439
1.04409
1.04366
1.04257
1.04084
1.03839
1.03509
1.0313
1.02734
1.0229
1.01875
1.01533
1.01227
1.00968
1.00736
1.0057
1.00437
1.00329
1.00243
1.0017
1.00156
1.00081
1.00064
1.0005
1.00038
0.999945
1.0003
0.999942
0.999955
1.00003
0.99989
0.999953
0.999917
0.999925
0.999924
0.999927
0.99993
0.999936
0.999939
0.999946
0.999944
0.999945
0.999956
0.999958
0.999963
0.999978
0.999958
0.999996
0.999977
0.999977
0.999993
1.00004
0.999862
1.0002
0.999817
1.00002
1.00022
0.999621
1.00032
0.99995
0.999725
1.00039
0.999828
0.999829
1.00029
0.999881
0.999943
1.00008
0.999948
1.00006
0.99997
0.999981
1.00004
0.999961
1.00001
1.00001
0.999986
1.00002
1.00002
1.00005
1.00012
1.00023
1.00035
1.00047
1.00057
1.00076
1.00136
1.00292
1.00605
1.01096
1.01711
1.0235
1.02914
1.03353
1.03671
1.03901
1.04076
1.04221
1.04344
1.04447
1.04528
1.04583
1.04603
1.04574
1.04477
1.04303
1.04039
1.03651
1.03201
1.02747
1.0224
1.01779
1.01419
1.01097
1.0086
1.0067
1.00499
1.00364
1.00263
1.00223
1.00117
1.00105
1.00102
1.00023
1.00034
1.00042
0.999745
1.00038
0.999772
1.00005
0.999923
0.999922
0.999925
0.999914
0.999917
0.999918
0.999921
0.999926
0.999931
0.999935
0.999934
0.99994
0.999943
0.999953
0.999957
0.999961
0.999975
0.999965
0.999966
1.00006
0.999833
1.00018
0.999886
0.999874
1.0004
0.999459
1.00031
1.00021
0.999335
1.00062
0.999886
0.999633
1.00046
0.99976
0.999956
1.00024
0.999745
1.00009
1.00007
0.999911
1.00005
0.999949
1.00003
1.00001
0.999956
1.00004
0.999998
0.999992
1.00003
1.00005
1.00012
1.00025
1.00036
1.00049
1.00061
1.00089
1.00175
1.00391
1.0081
1.01434
1.02159
1.02836
1.03354
1.03688
1.03877
1.03981
1.04047
1.04103
1.0416
1.04222
1.04295
1.04385
1.04486
1.04583
1.04638
1.04608
1.0447
1.04197
1.03747
1.03231
1.02707
1.02143
1.01643
1.01285
1.01011
1.00757
1.00547
1.00423
1.00339
1.00225
1.00155
1.00137
1.00064
1.0008
1.00002
1.00068
0.999847
1.00004
1.00022
0.999744
1.00007
0.999874
0.99993
0.999909
0.99991
0.999909
0.999914
0.999915
0.999924
0.999925
0.999919
0.999937
0.999936
0.999941
0.999958
0.999937
1
0.999915
1.00003
0.999925
1.00009
0.999773
1.0003
0.999722
1.00002
1.00036
0.99933
1.00063
0.999834
0.999527
1.00081
0.999482
0.999806
1.00066
0.999521
1
1.00024
0.999796
1.00012
0.999943
0.999981
1.00005
0.999945
1.00005
0.999973
0.99999
1.00004
0.999969
1.00002
1.00007
1.00012
1.00025
1.00037
1.00049
1.00066
1.00107
1.00225
1.00517
1.01064
1.01825
1.02627
1.03275
1.0367
1.03832
1.03842
1.03787
1.03714
1.03651
1.03605
1.03593
1.03636
1.03757
1.03961
1.04224
1.04488
1.0469
1.04751
1.04648
1.04342
1.03782
1.03175
1.02611
1.02028
1.01533
1.01145
1.00874
1.00676
1.00493
1.00346
1.00243
1.00242
1.00135
1.00057
1.00106
1.00053
0.999743
1.0009
0.999501
1.00028
0.999959
0.999878
0.999982
0.99989
0.999913
0.999903
0.999902
0.999907
0.999909
0.999912
0.999923
0.999918
0.99992
0.999938
0.999938
0.999934
0.999971
0.999931
0.999983
1.00001
0.999803
1.00026
0.999798
0.999823
1.0006
0.999164
1.00053
1.00023
0.999018
1.00109
0.999598
0.999498
1.00088
0.999421
1
1.00045
0.999429
1.0003
1.00011
0.999749
1.00013
0.999964
1.00004
0.999974
0.999984
1.00005
0.999943
1.00003
1
0.999993
1.00008
1.00012
1.00023
1.00037
1.0005
1.00073
1.0013
1.0029
1.00677
1.01368
1.02252
1.03073
1.03611
1.03809
1.03748
1.03556
1.03326
1.03099
1.02889
1.02705
1.02576
1.02546
1.02659
1.02936
1.03365
1.03898
1.04414
1.04783
1.04923
1.04833
1.04475
1.03805
1.03084
1.0246
1.01851
1.01376
1.01056
1.00832
1.00589
1.00375
1.00316
1.00233
1.00128
1.00178
1.00003
1.00128
0.999843
1.00027
1.00053
0.999477
1.0004
0.999771
0.999978
0.999917
0.999903
0.999905
0.999903
0.9999
0.99991
0.999903
0.999919
0.999929
0.99991
0.999928
0.999945
0.999916
0.999995
0.999855
1.00011
0.999796
1.00018
0.999669
1.00038
0.999672
0.999956
1.00051
0.999141
1.00079
0.999741
0.999459
1.00108
0.99912
0.999945
1.00097
0.998971
1.00026
1.00046
0.999427
1.00033
0.999923
0.999892
1.00015
0.999936
1.00001
0.999965
1.00004
0.999981
0.999979
1.00003
0.999998
1.00005
1.00011
1.00022
1.00035
1.00052
1.00084
1.0016
1.0037
1.00873
1.01714
1.02686
1.0345
1.03798
1.03745
1.03443
1.0305
1.0265
1.02263
1.01889
1.0154
1.01264
1.01125
1.01187
1.01466
1.01958
1.02665
1.0352
1.04351
1.04909
1.05103
1.0502
1.04591
1.03798
1.02979
1.02305
1.01708
1.01238
1.00909
1.00722
1.00587
1.00383
1.00214
1.00192
1.00182
1.00084
1.00018
1.00143
0.999267
1.00077
0.999995
0.999833
1.00018
0.999842
0.999969
0.999915
0.999909
0.999913
0.999903
0.99991
0.999911
0.999905
0.999922
0.999929
0.999916
0.999923
0.999976
0.999879
1.00003
0.999891
0.999913
1.0002
0.999716
0.999886
1.00065
0.998992
1.00069
1.00013
0.998974
1.00132
0.999304
0.999542
1.00121
0.999009
1.00013
1.00067
0.998984
1.00076
0.999955
0.999472
1.00051
0.999807
1
1.00006
0.999927
1.00004
0.999991
1
0.999999
0.999995
1.00001
1.00004
1.00008
1.00021
1.00035
1.00054
1.00098
1.00197
1.0047
1.01106
1.02089
1.03089
1.03716
1.03812
1.03487
1.02958
1.02387
1.01835
1.01291
1.00743
1.00218
0.997791
0.99521
0.995149
0.997844
1.00318
1.01079
1.02092
1.03317
1.04449
1.0513
1.05269
1.05118
1.04612
1.03756
1.02915
1.02167
1.01551
1.0107
1.00842
1.00679
1.00509
1.00297
1.0032
1.00057
1.0025
1.00008
1.00079
1.00097
0.999281
1.00105
0.999608
1.00017
1
0.999934
0.999963
0.999927
0.999923
0.999922
0.999908
0.999925
0.999905
0.999902
0.999947
0.999923
0.999911
0.999986
0.99984
1.00014
0.99969
1.00027
0.999581
1.00047
0.999572
0.999932
1.00062
0.999074
1.00071
0.9998
0.999563
1.00094
0.999018
1.00027
1.00087
0.998509
1.0009
1.00032
0.998984
1.00087
0.999584
0.999998
1.0003
0.999678
1.00016
0.999946
1.00001
1.00004
0.999931
1.00006
0.999975
0.999968
1.00008
1.00006
1.0002
1.00038
1.0006
1.00116
1.00241
1.00591
1.01372
1.02468
1.03427
1.03845
1.03657
1.03075
1.02353
1.01641
1.0096
1.00269
0.995546
0.988569
0.982593
0.978637
0.977254
0.978919
0.983876
0.991901
1.00265
1.01673
1.03364
1.04825
1.05529
1.05517
1.05168
1.04507
1.03563
1.02759
1.02084
1.0153
1.01038
1.00666
1.00574
1.00517
1.00307
1.00218
1.00109
1.00228
0.999647
1.00151
1.00021
0.999975
1.00062
0.999824
1.00017
0.99999
0.99998
0.999971
0.99994
0.999943
0.999926
0.999924
0.999935
0.999927
0.99993
0.999942
0.999957
0.999861
1.00008
0.999766
1.0001
0.999994
0.999734
1.00005
1.00048
0.998987
1.00081
0.999923
0.999304
1.00101
0.99925
0.999928
1.00096
0.998816
1.00047
1.00056
0.998802
1.0012
0.999423
0.999664
1.00082
0.999405
1.00021
0.999947
0.999966
1.00009
0.999911
1.0001
0.999886
1.00003
1.00005
0.999914
1.00008
1.00007
1.00016
1.00039
1.00067
1.00135
1.00292
1.00734
1.01662
1.02826
1.03673
1.03835
1.03366
1.02561
1.01692
1.00879
1.00095
0.992772
0.984231
0.97594
0.969006
0.964195
0.961609
0.961221
0.963369
0.969074
0.978328
0.991386
1.01046
1.03384
1.05327
1.06107
1.0594
1.05313
1.04376
1.03389
1.02552
1.01985
1.01406
1.01056
1.00646
1.00615
1.00309
1.00449
1.00113
1.00188
1.00164
0.999704
1.00191
0.999586
1.00062
1.00022
1.00006
1.00014
1.00002
1.00002
0.999987
0.999963
0.999966
0.999932
0.999956
0.999984
0.999914
0.99996
0.999967
0.999868
1.00009
0.999717
1.00025
0.999591
1.00048
0.999392
1.00018
1.00052
0.999032
1.00062
0.999972
0.999711
1.00034
0.999525
1.00044
1.0002
0.998842
1.00137
0.999677
0.999
1.00135
0.99919
1.0002
1.00021
0.999592
1.00028
0.999932
1.00004
0.999912
1.00007
0.999981
0.999937
1.0001
0.999925
1.00003
1.00011
1.00013
1.00037
1.00076
1.00156
1.00352
1.00897
1.01958
1.0314
1.03815
1.03704
1.02979
1.01998
1.01033
1.00154
0.992958
0.983848
0.974404
0.965677
0.958935
0.954751
0.952815
0.952247
0.952701
0.954777
0.959628
0.967214
0.979609
1.00169
1.03068
1.05487
1.06555
1.06416
1.05656
1.04432
1.0325
1.02327
1.0179
1.01428
1.01063
1.00627
1.00575
1.00349
1.0042
1.00103
1.00258
1.00088
1.00057
1.00131
1
1.0006
1.0002
1.00018
1.00014
1.00007
1.00005
1.00001
0.999997
0.999981
0.999949
0.999991
0.999968
0.999955
0.999921
1.00007
0.999726
1.00023
0.999774
0.999894
1.00017
1.00011
0.999206
1.00092
0.999621
0.99973
1.00038
0.999683
1.00026
1.0001
0.999261
1.00083
1.00001
0.99896
1.00143
0.998955
1.00013
1.00084
0.998905
1.00057
0.999952
0.999888
1.00016
0.999901
0.999963
1.00003
1.00005
0.999948
1.00004
0.99995
0.999977
1.00011
1.0001
1.00038
1.00086
1.00177
1.00424
1.01076
1.02245
1.03392
1.03858
1.03483
1.02538
1.01431
1.00411
0.995024
0.986059
0.976457
0.966927
0.958926
0.953757
0.951476
0.951024
0.951402
0.952351
0.953798
0.956568
0.960647
0.965045
0.974404
0.995905
1.02601
1.05163
1.06466
1.0657
1.0582
1.04632
1.03288
1.02379
1.0161
1.01362
1.00949
1.00832
1.00439
1.00444
1.00345
1.0015
1.00302
1.00033
1.0015
1.00075
1.00048
1.00055
1.00029
1.00027
1.00018
1.00012
1.00009
1.00003
1.00003
0.999978
0.999977
1.00003
0.99995
0.999951
1.00003
0.999838
1.00011
0.999737
1.00035
0.999378
1.00052
1.00001
0.999213
1.0008
0.999835
0.999784
0.999906
1.00024
1.0002
0.999511
0.99983
1.00121
0.998753
0.999892
1.00148
0.998456
1.0007
1
0.99959
1.0006
0.999583
1.00009
1.00004
0.999937
1.00008
0.999956
0.99998
1.00003
0.99994
0.999991
1.0001
1.00003
1.00042
1.00099
1.00202
1.00506
1.01262
1.02509
1.03577
1.03821
1.03201
1.02078
1.00889
0.99852
0.989515
0.98053
0.9711
0.962491
0.956515
0.954297
0.95461
0.954957
0.954108
0.95263
0.952256
0.954328
0.959653
0.965652
0.969732
0.978236
0.99819
1.0248
1.04775
1.05994
1.06258
1.05691
1.04676
1.03417
1.02414
1.01647
1.01364
1.00923
1.00844
1.00468
1.00505
1.00292
1.00231
1.00256
1.00092
1.00149
1.0008
1.00069
1.00056
1.00039
1.00032
1.00022
1.00017
1.00011
1.00006
1.00005
1.00004
1.00002
0.999994
1.00002
0.999826
1.00024
0.999689
1.00006
1.0001
0.999861
0.999652
1.00081
0.999249
1.00013
1.0001
1.00003
1.0002
0.999319
1.0003
1.00079
0.99894
0.999937
1.00129
0.998521
1.00083
1.00013
0.999014
1.00111
0.999481
1.00008
1.00001
0.999853
1.00022
0.999862
1.00013
0.999918
0.999897
1.00013
0.999904
0.999979
1.00018
0.999957
1.00045
1.00113
1.00228
1.00593
1.01449
1.02739
1.03703
1.03725
1.02884
1.01624
1.00389
0.99372
0.985122
0.976578
0.968151
0.961592
0.959144
0.961082
0.964447
0.965454
0.962415
0.956319
0.949885
0.946285
0.948523
0.956939
0.966589
0.974248
0.985983
1.00609
1.02909
1.04742
1.05688
1.05752
1.05305
1.04379
1.0346
1.02462
1.01804
1.01269
1.01054
1.00786
1.00555
1.00535
1.00269
1.00321
1.00203
1.00155
1.00141
1.00094
1.00082
1.0006
1.00047
1.00036
1.00026
1.0002
1.00012
1.0001
1.00012
1.00001
1.00005
0.999987
0.999963
0.999995
0.999956
1.00012
0.999559
1.00055
0.999593
0.999762
1.0008
0.999256
1.00021
0.999843
1.00038
0.999999
0.999204
1.00077
1.0004
0.998484
1.00121
1.0004
0.998356
1.00134
0.999677
0.999819
1.0003
0.999581
1.00028
0.999955
1.00009
0.999818
1.00005
1.00009
0.999828
1.00018
0.999923
0.999856
1.00021
0.999971
1.00047
1.00128
1.00257
1.00684
1.01629
1.02932
1.0378
1.03588
1.02556
1.01192
0.999415
0.98975
0.981874
0.974323
0.967682
0.964417
0.966859
0.974142
0.981346
0.983923
0.980784
0.972935
0.961915
0.950108
0.94153
0.941448
0.950873
0.963838
0.976868
0.993306
1.01343
1.03376
1.04901
1.05626
1.05489
1.04945
1.04097
1.03283
1.02403
1.01895
1.01311
1.01102
1.00773
1.00624
1.00526
1.00332
1.00324
1.0022
1.0018
1.00145
1.00108
1.00088
1.00066
1.00052
1.00039
1.00028
1.00022
1.00012
1.00013
1.00009
1.00005
0.999975
1.00012
0.999772
1.00014
1
0.999884
0.999894
1.00043
0.999233
1.00056
0.999962
0.999756
1.00034
0.999171
1.00099
1.00014
0.998402
1.00139
1.0004
0.998344
1.00133
0.999633
0.999585
1.00095
0.999125
1.0002
1.00018
0.99993
1.00006
0.999962
0.999905
0.999997
1.00016
0.99988
1.00007
0.999974
0.999852
1.00016
0.999964
1.00047
1.00141
1.0029
1.0078
1.018
1.03087
1.03817
1.03429
1.02229
1.00793
0.995513
0.986576
0.979776
0.973597
0.969518
0.97039
0.97817
0.990691
1.00152
1.00661
1.00629
1.0009
0.990148
0.974453
0.956412
0.941662
0.937175
0.945213
0.960507
0.978902
0.999272
1.01898
1.03642
1.04969
1.05537
1.05388
1.04719
1.0392
1.03097
1.02416
1.01815
1.01405
1.01111
1.00791
1.00686
1.00498
1.00395
1.00321
1.00238
1.00196
1.00149
1.00118
1.00091
1.00069
1.00054
1.00039
1.00029
1.0002
1.00016
1.00014
1.00004
1.00008
0.999969
1.00007
0.99992
0.999852
1.00039
0.999534
1.00016
1.00035
0.999082
1.00095
0.99944
1.00017
1.00029
0.998978
1.0012
0.999789
0.998819
1.00168
0.99918
0.999239
1.00163
0.999005
0.999922
1.00035
0.999734
1.00042
0.999732
0.999885
1.00009
1.00004
1.00009
0.999943
0.99991
1.00004
0.999932
0.999939
1.00017
0.999926
1.00041
1.00159
1.00325
1.00875
1.01957
1.03207
1.03828
1.03261
1.01916
1.00437
0.992137
0.984196
0.97864
0.974111
0.973106
0.978038
0.990012
1.00487
1.01568
1.02117
1.02326
1.02159
1.01458
1.00193
0.984866
0.965037
0.946212
0.936262
0.940586
0.957037
0.980872
1.00524
1.02434
1.03824
1.04856
1.05324
1.05174
1.04555
1.03829
1.0297
1.02385
1.01788
1.01441
1.01119
1.00835
1.0069
1.0052
1.00413
1.00327
1.00251
1.002
1.00153
1.0012
1.00091
1.00069
1.00052
1.00036
1.00029
1.00024
1.00014
1.00009
1.00007
0.999962
1.00011
0.999955
0.999917
0.99999
1.00021
0.999502
1.00067
0.999538
0.999781
1.00076
0.99899
1.00104
0.999642
0.998864
1.002
0.999085
0.998918
1.00178
0.999152
0.999863
1.00047
0.999319
1.00064
0.999914
0.999807
1.00001
0.999942
1.00021
0.999896
1.00009
0.99991
0.999856
1.00015
0.999949
0.999855
1.00018
0.999961
1.00039
1.00181
1.00361
1.00967
1.02094
1.03299
1.03822
1.03095
1.01629
1.0012
0.989309
0.982493
0.978235
0.975518
0.977434
0.985428
0.998863
1.01103
1.01555
1.01611
1.01712
1.01724
1.01445
1.00841
0.999333
0.98755
0.971378
0.952402
0.939841
0.941075
0.95645
0.981795
1.00812
1.02784
1.04063
1.04802
1.05074
1.04885
1.04356
1.03646
1.02942
1.02309
1.01794
1.01439
1.01108
1.00871
1.00686
1.00531
1.00421
1.00325
1.00255
1.00197
1.00152
1.00116
1.00087
1.00065
1.00047
1.00033
1.00029
1.00018
1.00014
1.00003
1.00009
0.999933
1.00007
1.00009
0.999678
1.00032
0.99987
0.999646
1.00094
0.998886
1.00059
1.00025
0.99892
1.0014
0.999382
0.999221
1.00148
0.998934
1.00011
1.00083
0.998815
1.00052
1.00031
0.999722
1.00003
0.999746
1.00021
1.00011
1.00007
0.999772
0.999915
1.00013
0.999964
1.0001
0.999993
0.999775
1.00013
0.999997
1.00043
1.00199
1.004
1.01055
1.0221
1.03372
1.03801
1.02944
1.01371
0.998458
0.986998
0.981302
0.978405
0.97725
0.981368
0.990811
1.0021
1.00604
0.998703
0.989955
0.987279
0.989122
0.992946
0.996171
0.994938
0.989514
0.981999
0.970458
0.955799
0.946017
0.946725
0.959679
0.983286
1.00933
1.02934
1.04134
1.04755
1.04906
1.04611
1.04147
1.03459
1.02861
1.02238
1.01773
1.01412
1.01103
1.00866
1.00679
1.00527
1.00413
1.00319
1.00246
1.00188
1.00143
1.00107
1.00078
1.00058
1.00039
1.00031
1.00022
1.00014
1.00008
1.00005
1
0.999979
1.00007
0.999994
0.999821
1.0004
0.999381
1.00037
1.00036
0.999038
1.001
0.999477
0.999593
1.00131
0.998741
1.00003
1.00124
0.998795
1.00015
1.00042
0.999784
1.00022
0.99963
1.00002
1.00021
1.00007
0.999933
0.999844
1.00002
1.00005
1.00009
0.999996
0.999947
0.999942
0.999871
1.00014
0.999979
1.00044
1.00208
1.00446
1.01136
1.02311
1.03431
1.03767
1.0282
1.0115
0.996079
0.985179
0.980529
0.978871
0.978784
0.98399
0.992887
0.99829
0.989284
0.96633
0.945566
0.936806
0.941115
0.956391
0.975752
0.988326
0.990286
0.985346
0.976892
0.965163
0.953409
0.948498
0.953112
0.967127
0.98822
1.01041
1.02889
1.04094
1.04643
1.047
1.04395
1.03912
1.03303
1.02715
1.02173
1.01726
1.01369
1.01074
1.00843
1.00655
1.00509
1.00393
1.00301
1.00229
1.00172
1.00128
1.00094
1.00067
1.00048
1.00037
1.00024
1.00014
1.00012
1.00003
1.00006
0.999977
0.999942
1.00018
0.999748
1.00018
1.00018
0.999255
1.00087
0.999655
0.999549
1.001
0.999202
0.999816
1.001
0.999208
1.00006
1.00029
0.999643
1.00043
0.999866
0.999691
1.00012
1.00019
1.00009
0.999817
0.999895
0.999978
1.00011
1.00018
0.999938
0.999845
0.999966
0.999957
0.999951
1.00014
0.999953
1.00045
1.00218
1.00498
1.01204
1.024
1.03474
1.03723
1.02731
1.00963
0.994038
0.983943
0.97988
0.979439
0.979964
0.984529
0.990996
0.987565
0.961901
0.919779
0.884004
0.865571
0.86865
0.892246
0.928779
0.964456
0.988108
0.996247
0.99093
0.978567
0.963525
0.952053
0.950242
0.958178
0.97342
0.993149
1.01319
1.02919
1.03954
1.04464
1.04477
1.04193
1.03671
1.03142
1.02572
1.02074
1.01651
1.01306
1.01023
1.00797
1.00616
1.00474
1.00361
1.00272
1.00203
1.0015
1.00109
1.00077
1.00055
1.00041
1.00027
1.00017
1.00009
1.00007
1.00002
1.00006
0.999924
1.00007
1.00001
0.999765
1.00047
0.999689
0.99974
1.00064
0.999514
0.99999
1.00049
0.999416
1.00021
1.00034
0.99937
1.00033
1.00029
0.999605
0.999918
1.00016
1.00017
0.999967
0.999822
0.999907
1.00009
1.00022
0.999966
0.999882
0.999931
0.999919
1.00012
1.00002
0.999886
1.00005
0.99997
1.00051
1.00234
1.00547
1.01263
1.02477
1.03498
1.03687
1.02674
1.00809
0.992492
0.983093
0.979125
0.980243
0.980649
0.982732
0.985923
0.971768
0.92651
0.861831
0.806707
0.773054
0.768087
0.794183
0.841771
0.898424
0.949037
0.98506
0.999401
0.995524
0.983821
0.968678
0.956391
0.953449
0.961942
0.978966
0.998251
1.01562
1.02955
1.03865
1.04296
1.04247
1.03951
1.03474
1.02938
1.0242
1.01948
1.01551
1.0122
1.00951
1.00733
1.00561
1.00425
1.00318
1.00236
1.00172
1.00124
1.00088
1.0006
1.00044
1.00029
1.00019
1.0001
1.00006
1.00003
1.00002
1.00005
0.999908
1.00016
0.999823
0.999952
1.0004
0.999553
1.00011
1.00027
0.999584
1.00014
1.00038
0.999488
1.00002
1.00042
0.999799
0.999848
1.00004
1.00007
1.00013
0.999956
0.99979
0.999959
1.00024
1.00004
0.999944
0.999942
0.999856
1.00007
1.00007
1.00007
0.999944
0.999835
1.00002
1.00002
1.00058
1.00247
1.00586
1.01327
1.02535
1.03513
1.03665
1.02628
1.00718
0.991386
0.98229
0.978587
0.981072
0.980784
0.979553
0.97906
0.953813
0.889206
0.800208
0.718694
0.664034
0.645142
0.669797
0.724786
0.796703
0.871171
0.93588
0.98018
0.99677
0.995334
0.985097
0.970639
0.960338
0.959934
0.969017
0.984289
1.00211
1.01824
1.03035
1.03785
1.04096
1.04046
1.03704
1.03248
1.02738
1.02245
1.01802
1.01426
1.01113
1.00858
1.00653
1.00492
1.00366
1.00268
1.00194
1.00138
1.00096
1.00066
1.00047
1.00029
1.00019
1.00012
1.00006
1.00004
0.999992
1.00007
0.999909
1.0001
1.00004
0.999755
1.00021
1.00006
0.999778
1.00011
1.00013
0.999797
0.999998
1.00021
0.999858
0.999994
1.00008
0.999807
1.00014
1.00021
0.999719
0.999878
1.0002
1.00003
1.00008
0.999932
0.99978
1.00007
1.0001
1.00009
0.999984
0.999915
0.999873
0.999913
1.0001
0.999997
1.00063
1.0026
1.00622
1.01392
1.0257
1.03529
1.03647
1.02597
1.00708
0.990466
0.981579
0.97853
0.981279
0.98099
0.976302
0.970798
0.936575
0.858072
0.749317
0.635024
0.550933
0.514473
0.531696
0.590814
0.675896
0.771763
0.860909
0.936504
0.983982
0.99829
0.993606
0.981404
0.969842
0.964173
0.965706
0.975034
0.990129
1.00647
1.02063
1.03088
1.03731
1.03936
1.0382
1.03473
1.03012
1.02522
1.02052
1.01636
1.0128
1.00987
1.00749
1.00561
1.00414
1.00301
1.00215
1.00152
1.00104
1.00071
1.00049
1.00031
1.00018
1.00012
1.00007
1.00003
1.00004
0.999967
1.00007
0.999917
1.00009
1.00003
0.999828
1.00013
1.00003
0.99992
1.00002
1.00008
0.999839
1.00007
1.00018
0.99971
1.00002
1.00031
0.999817