/*--------------------------------*- C++ -*----------------------------------*\
  =========                 |
  \\      /  F ield         | OpenFOAM: The Open Source CFD Toolbox
   \\    /   O peration     | Website:  https://openfoam.org
    \\  /    A nd           | Version:  6
     \\/     M anipulation  |
\*---------------------------------------------------------------------------*/
FoamFile
{
    version     2.0;
    format      ascii;
    class       volScalarField;
    location    "2.73";
    object      p;
}
// * * * * * * * * * * * * * * * * * * * * * * * * * * * * * * * * * * * * * //

dimensions      [1 -1 -2 0 0 0 0];

internalField   nonuniform List<scalar> 
22500
(
1
1
1
1
1
1
1
1
1
1
1
1
1
1
1
1
1
1
1
1
1
1
1
1
1
1
1
1
1
1
1
1
1
1
1
1
1
1
1
1
1
1
1
1
1
1
1
1
1
1
1
1
1
1
1
1
1
1
1
1
1
1
1
1
1
1
1
1
1
1
1
0.999999
1
0.999999
1
0.999999
1
1
0.999999
0.999999
1
0.999999
1
1
1
1
1
1
1
1
1
1
1
1
1
1
1
1
1
1
1
1
0.999999
0.999999
0.999999
0.999998
0.999998
0.999998
0.999998
0.999998
0.999998
0.999998
0.999998
0.999998
0.999998
0.999999
0.999999
0.999999
1
1
1
1
1
1
1
1
1
1
1
1
1
1
1
1
1
1
1
1
1
1
1
1
1
1
1
1
1
1
1
1
1
1
1
1
1
1
1
1
1
1
1
1
1
1
1
1
1
1
1
1
1
1
1
1
1
1
1
1
1
1
1
1
1
1
1
1
1
1
1
1
1
1
1
1
1
1
1
1
1
1
1
1
1
1
1
1
1
1
1
1
1
1
1
1
1
1
1
1
1
1
1
1
1
1
0.999999
0.999999
0.999999
0.999999
0.999999
0.999999
0.999999
1
0.999999
1
1
1
1
1
1
1
1
1
1
1
1
1
1
1
1
1
1
0.999999
0.999998
0.999998
0.999997
0.999997
0.999997
0.999997
0.999997
0.999997
0.999998
0.999998
0.999998
0.999998
0.999998
0.999998
0.999998
0.999999
0.999999
0.999999
1
1
1
1
1
1
1
1
1
1
1
1
1
1
1
1
1
1
1
1
1
1
1
1
1
1
1
1
1
1
1
1
1
1
1
1
1
1
1
1
1
1
1
1
1
1
1
1
1
1
1
1
1
1
1
1
1
1
1
1
1
1
1
1
1
1
1
1
1
1
1
1
1
1
1
1
1
1
1
1
1
1
1
1
1
1
1
1
1
1
1
1
1
1
1
1
1
1
1
1
1
0.999999
0.999999
0.999999
0.999999
0.999999
0.999999
0.999999
0.999999
0.999999
0.999999
0.999999
1
1
1
1
1
1
1
1
1
1
1
1
1
1
1
1
1
1
0.999999
0.999998
0.999998
0.999997
0.999996
0.999995
0.999995
0.999995
0.999995
0.999995
0.999996
0.999997
0.999997
0.999997
0.999997
0.999997
0.999997
0.999998
0.999998
0.999999
1
1
1
1
1
1
1
1
1
1
1
1
1
1
1
1
1
1
1
1
1
1
1
1
1
1
1
1
1
1
1
1
1
1
1
1
1
1
1
1
1
1
1
1
1
1
1
1
1
1
1
1
1
1
1
1
1
1
1
1
1
1
1
1
1
1
1
1
1
1
1
1
1
1
1
1
1
1
1
1
1
1
1
1
1
1
1
1
1
1
1
1
1
1
1
1
1
1
1
1
1
1
0.999999
0.999999
0.999999
0.999999
0.999998
0.999999
0.999999
0.999998
0.999999
0.999999
0.999999
1
1
1
1
1
1
1
1.00001
1.00001
1.00001
1.00001
1.00001
1.00001
1
1
1
1
0.999999
0.999998
0.999997
0.999995
0.999994
0.999993
0.999993
0.999993
0.999992
0.999991
0.999992
0.999994
0.999996
0.999997
0.999997
0.999997
0.999996
0.999996
0.999997
0.999998
0.999999
0.999999
1
1
1
1
1
1
1
1
1
1
1
1
1
1
1
1
1
1
1
1
1
1
1
1
1
1
1
1
1
1
1
1
1
1
1
1
1
1
1
1
1
1
1
1
1
1
1
1
1
1
1
1
1
1
1
1
1
1
1
1
1
0.999999
1
1
1
0.999999
1
1
1
1
0.999999
0.999999
1
1
1
1
1
1
1
1
1
1
1
1
1
1
1
1
1
1
1
1
1
1
1
1
1
1
1
0.999999
0.999999
0.999999
0.999999
0.999998
0.999998
0.999998
0.999998
0.999998
0.999998
0.999999
0.999999
1
1
1
1
1
1.00001
1.00001
1.00001
1.00001
1.00001
1.00001
1.00001
1.00001
1.00001
1
1
1
0.999998
0.999995
0.999995
0.999995
0.999992
0.99999
0.999991
0.999992
0.999991
0.999989
0.999986
0.999987
0.999991
0.999995
0.999998
0.999998
0.999997
0.999996
0.999996
0.999996
0.999997
0.999999
0.999999
1
1
1
1
1
1
1
1
1
1
1
1
1
1
1
1
1
1
1
1
1
1
1
1
1
1
1
1
1
1
1
1
1
1
1
1
1
1
1
1
1
1
1
1
1
1
1
1
1
1
1
1
1
1
1
0.999999
1
1
0.999999
1
1
1
0.999997
1
1
1
0.999998
0.999999
1
1
1
1
1
1
1
1
1
1
1
1
1
1
1
1
1
1
1
1
1
1
1
1
1
1
1
1
1
1
1
0.999999
0.999999
0.999999
0.999998
0.999998
0.999998
0.999998
0.999998
0.999998
0.999998
0.999999
0.999999
1
1
1
1.00001
1.00001
1.00001
1.00001
1.00001
1.00001
1.00001
1.00001
1.00001
1.00001
1.00001
1
1
1
0.999994
0.999992
0.999993
0.999992
0.999986
0.999983
0.999987
0.999992
0.999993
0.999988
0.999982
0.999981
0.999986
0.999994
0.999999
1
0.999998
0.999996
0.999995
0.999996
0.999997
0.999998
1
1
1
1
1
1
1
1
1
1
1
1
1
1
1
1
1
1
1
1
1
1
1
1
1
1
1
1
1
1
1
1
1
1
1
1
1
1
1
1
1
1
1
1
1
1
1
1
1
1
0.999999
1
1
0.999999
1
1
0.999999
0.999998
1
1
0.999992
0.999997
1.00001
1
0.999992
0.999997
1.00001
1
0.999996
0.999993
0.999994
0.999996
0.999999
1
1
1
1
1
1
1
1
1
1
1
1
1
1
1
1
1
1
1
1
1
1
1
1
1
1
0.999999
0.999998
0.999998
0.999998
0.999997
0.999997
0.999997
0.999997
0.999997
0.999998
0.999998
0.999998
1
1
1
1.00001
1.00001
1.00001
1.00001
1.00002
1.00002
1.00002
1.00002
1.00002
1.00002
1.00002
1.00001
1.00001
1.00001
0.999999
0.999986
0.999987
0.999993
0.999989
0.999975
0.999969
0.999979
0.999994
1
0.999992
0.999979
0.999974
0.99998
0.999991
1
1
1
0.999997
0.999995
0.999995
0.999997
0.999998
1
1
1
1
1
1
1
1
1
1
1
1
1
1
1
1
1
1
1
1
1
1
1
1
1
1
1
1
1
1
1
1
1
1
1
1
1
1
1
1
1
1
1
1
1
0.999999
1
1
0.999999
1
0.999999
1
1
0.999999
0.999998
1
1.00001
0.999992
0.999998
1.00002
1.00001
0.999982
0.999998
1.00002
1.00001
0.999984
0.99999
1.00001
1.00002
1.00002
1.00001
1
0.999998
0.999996
0.999996
0.999998
0.999999
1
1
1
1
1
1
1
1
1
1
1
1
1
1
1
1
1
1
1
1
1
0.999999
0.999998
0.999998
0.999998
0.999997
0.999997
0.999996
0.999996
0.999996
0.999996
0.999997
0.999998
1
1
1.00001
1.00001
1.00001
1.00002
1.00002
1.00003
1.00003
1.00003
1.00003
1.00003
1.00003
1.00003
1.00002
1.00001
1.00001
1.00002
0.999995
0.999974
0.999981
0.999997
0.999991
0.999964
0.999947
0.99996
0.99999
1.00001
1
0.999982
0.999967
0.999969
0.999984
0.999999
1.00001
1
1
0.999997
0.999996
0.999997
0.999999
1
1
1
1
1
1
1
1
1
1
1
1
1
1
1
1
1
1
1
1
1
1
1
1
1
1
1
1
1
1
1
1
1
1
1
1
1
1
1
1
1
1
1
0.999999
1
0.999998
1
0.999998
1
1
0.999999
0.999999
1
1.00001
0.999992
0.999986
1.00002
1
0.999946
0.99998
1.00004
0.999998
0.999955
0.999987
1.00003
1.00002
0.999985
0.999964
0.99997
0.999985
1
1.00001
1.00001
1.00001
1
1
1
1
1
1
1
1
1
1
1
1
1
1
1
1
1
1
1
1
1
1
1
0.999999
0.999998
0.999998
0.999998
0.999996
0.999996
0.999996
0.999995
0.999996
0.999996
0.999997
0.999999
1
1.00001
1.00001
1.00001
1.00002
1.00003
1.00004
1.00004
1.00005
1.00005
1.00006
1.00006
1.00004
1.00006
1.00006
1.00002
1.00001
1.00003
1.00003
0.99999
0.999955
0.999972
1.00001
1.00001
0.999966
0.99992
0.999922
0.99997
1.00002
1.00003
0.999998
0.999967
0.999956
0.999971
0.999992
1.00001
1.00001
1.00001
1
0.999998
0.999998
0.999999
1
1
1
1
1
1
1
1
1
1
1
1
1
1
1
1
1
1
1
1
1
1
1
1
1
1
1
1
1
1
1
1
1
1
1
1
1
1
0.999999
1
0.999998
1
0.999998
1
1
0.999995
1.00001
0.999995
1
0.999998
1
1
0.999982
1.00003
1.00002
0.999953
1.00001
1.00011
1.00003
0.999946
1.00001
1.00009
1.00002
0.999945
0.999959
1.00002
1.00005
1.00005
1.00002
0.999989
0.999976
0.999977
0.999985
0.999994
0.999998
1
1
1
1
1
1
1
1
1
1
1
1
1
1
1
1
1
1
1
1
1
0.999999
0.999998
0.999998
0.999997
0.999996
0.999995
0.999995
0.999995
0.999995
0.999997
0.999998
1
1.00001
1.00001
1.00002
1.00003
1.00004
1.00006
1.00007
1.00008
1.00009
1.00009
1.0001
1.00011
1.00009
1.00007
1.0001
1.00009
1.00003
1
1.00005
1.00007
0.999993
0.999924
0.999939
1.00002
1.00006
1.00001
0.999911
0.999865
0.999912
1.00001
1.00005
1.00004
0.999979
0.999948
0.99995
0.999975
0.999998
1.00001
1.00001
1
1
0.999999
0.999999
0.999999
1
1
1
1
1
1
1
1
1
1
1
1
1
1
1
1
1
1
1
1
1
1
1
1
1
1
1
1
1
1
1
1
1
1
1
1
1
0.999998
1
0.999994
1.00001
0.999991
1.00001
0.999996
0.999999
1.00001
0.999999
1.00001
0.999974
1.00001
1.00002
0.999939
0.999975
1.00008
0.99996
0.999825
0.999951
1.00007
0.999947
0.999862
0.99997
1.00008
1.00006
0.999982
0.999935
0.999946
0.999988
1.00003
1.00004
1.00004
1.00002
1.00001
1
1
0.999999
0.999999
1
1
1
1
1
1
1
1
1
1
1
1
1
1
1
1
1
1
0.999999
0.999999
0.999998
0.999997
0.999997
0.999995
0.999995
0.999996
0.999997
1
1
1.00001
1.00002
1.00003
1.00004
1.00007
1.00008
1.0001
1.00013
1.00014
1.00016
1.00017
1.00017
1.00018
1.00019
1.00014
1.00012
1.00017
1.00015
1.00002
0.999984
1.00007
1.00013
1.00003
0.99988
0.999839
0.999962
1.00012
1.00013
0.999971
0.999811
0.999811
0.999949
1.00007
1.00009
1.00002
0.999957
0.999936
0.999952
0.99998
1
1.00001
1.00001
1
0.999999
0.999998
0.999998
0.999998
0.999999
0.999999
1
1
1
1
1
1
1
1
1
1
1
1
1
1
1
1
1
1
1
1
1
1
1
1
1
1
1
1
1
0.999999
1
0.999997
1
0.999996
1
0.999999
0.999996
1.00001
0.999983
1.00002
0.999981
1.00002
0.999965
1.00001
1.00004
0.999957
0.999986
1.0001
1.00003
0.9999
1.0001
1.00025
1.00005
0.99996
1.00012
1.00017
1.00003
0.999911
0.999921
1
1.00005
1.00004
0.999991
0.99995
0.999939
0.999955
0.99998
0.999996
1
1
1
1
1
1
1
1
1
1
1
1
1
1
1
1
1
1
1
1
1
1
1
0.999999
0.999999
0.999997
0.999997
0.999997
0.999997
1
1
1.00001
1.00002
1.00003
1.00005
1.00007
1.00009
1.00013
1.00016
1.00019
1.00023
1.00026
1.00028
1.00031
1.00031
1.00029
1.00033
1.00032
1.0002
1.00018
1.00029
1.00025
1.00003
0.99992
1.00005
1.00022
1.00017
0.999883
0.999646
0.999759
1.00013
1.00033
1.00016
0.999816
0.999703
0.999819
1.00004
1.00013
1.0001
1.00001
0.999948
0.999938
0.999958
0.999983
0.999999
1
1
1
0.999998
0.999997
0.999997
0.999998
1
1
1
1
1
1
1
1
1
1
1
1
1
1
1
1
1
1
1
1
1
1
1
1
1
1
1
1
0.999998
1
0.999995
1.00001
0.999987
1.00002
0.999976
1.00003
0.999971
1.00003
0.999982
1.00001
0.999993
0.999998
1.00007
0.999932
0.999974
1.00004
1.00003
0.999836
0.99999
1.0001
0.999785
0.999724
0.999947
0.999936
0.999815
0.999828
0.999963
1.00009
1.00008
1.00002
0.999991
1
1.00004
1.00006
1.00006
1.00004
1.00001
0.999999
0.999995
0.999996
0.999999
0.999999
0.999999
1
1
1
1
1
1
1
1
1
1
1
1
1
1
1
1
1
1
0.999999
0.999999
0.999998
0.999998
1
1
1.00001
1.00002
1.00003
1.00005
1.00007
1.00011
1.00015
1.0002
1.00025
1.00031
1.00037
1.00042
1.00048
1.00051
1.00054
1.00057
1.00053
1.00048
1.00055
1.0005
1.00027
1.00022
1.00043
1.00044
1.00007
0.999754
0.999879
1.00034
1.00054
1.00009
0.999403
0.999327
0.999937
1.00054
1.00048
0.999984
0.99963
0.999662
0.999911
1.00012
1.00016
1.00009
1.00001
0.999957
0.999951
0.999966
0.999984
0.999996
1
1
0.999998
0.999997
0.999997
0.999999
1
1
1
1
1
1
1
1
1
1
1
1
1
1
1
1
1
1
1
1
1
1
1
1
1
1
0.999999
1
0.999999
1
0.999997
1.00001
0.999989
1.00002
0.999972
1.00004
0.99995
1.00005
0.999944
1.00008
0.999888
0.999999
1.00005
1.0001
0.999877
1.00001
1.00024
0.999939
1.00001
1.0003
1.00021
1.00012
1.00019
1.0002
1.00012
1.00003
0.999948
0.999926
0.999934
0.999956
0.999959
0.99994
0.999943
0.99996
0.999984
1
1.00001
1.00001
1
1
1
1
1
1
1
1
1
1
1
1
1
1
1
1
1
1
1
1
1
1
1
0.999999
1
1
1.00001
1.00001
1.00003
1.00005
1.00007
1.00011
1.00016
1.00022
1.00029
1.00039
1.00047
1.00058
1.00068
1.00076
1.00085
1.00091
1.00092
1.00095
1.00097
1.00082
1.00074
1.00089
1.00077
1.0003
1.00017
1.00058
1.00081
1.00031
0.999457
0.99934
1.0003
1.00118
1.00072
0.999331
0.998712
0.999389
1.00054
1.00078
1.00036
0.999708
0.999545
0.999696
0.999968
1.00014
1.00016
1.00009
1.00002
0.999972
0.999964
0.999975
0.999989
0.999996
0.999998
0.999998
0.999997
0.999999
1
1
1
1
1
1
1
1
1
1
1
1
1
1
1
1
1
1
1
1
1
1
1
1
0.999999
1
0.999996
1.00001
0.999986
1.00002
0.99997
1.00004
0.99995
1.00006
0.999938
1.00006
0.999954
1.00005
0.999943
1
1.00012
1.00001
0.999848
0.999871
1.00028
0.999812
0.999827
1.00003
0.999841
0.999743
0.999853
0.999796
0.9997
0.999888
0.999993
0.999948
1.00001
1.00009
1.00009
1.00008
1.00007
1.00005
1.00003
1.00001
0.999992
0.999984
0.999987
0.999996
0.999997
0.999997
1
1
1
0.999999
1
1
1
1
1
1
1
1
1
1
1
1
1
1
1
1
1
1
1
1.00001
1.00002
1.00004
1.00006
1.0001
1.00015
1.00022
1.00031
1.00043
1.00055
1.00071
1.00087
1.00103
1.0012
1.00135
1.00144
1.00156
1.00159
1.00153
1.00158
1.00154
1.00116
1.00104
1.00136
1.0012
1.0003
0.99986
1.0006
1.0015
1.00097
0.999114
0.998228
0.999705
1.00186
1.00183
0.999869
0.998191
0.998603
1.00002
1.00093
1.00074
1.00012
0.999605
0.999527
0.999711
0.999964
1.00012
1.00014
1.00008
1.00002
0.999983
0.999979
0.999986
0.999993
0.999996
0.999997
0.999999
1
1
1
1
1
1
1
1
1
1
1
1
1
1
1
1
1
1
1
1
1
1
1
0.999998
1
0.999992
1.00001
0.999979
1.00003
0.999952
1.00007
0.999912
1.00011
0.999876
1.00014
0.999842
1.00013
0.999847
1.00022
0.999801
0.99996
0.999877
1.00052
0.999826
0.999817
1.00021
1.00013
1.00011
1.00021
1.00018
1.00006
1.00033
1.00027
0.999901
0.999944
1.00008
0.999982
0.999903
0.999924
0.99991
0.999943
0.999989
0.999996
1.00003
1.00003
1.00002
1.00001
1
1
0.999997
1
1
1
0.999999
1
1
1
1
1
1
1
1
1
1
1
1.00001
1
1
1
1
1.00001
1.00001
1.00001
1.00002
1.00004
1.00008
1.00013
1.00019
1.00029
1.00042
1.00057
1.00077
1.00099
1.00124
1.00152
1.00178
1.00203
1.00228
1.00243
1.00254
1.00264
1.00255
1.00237
1.00246
1.00228
1.0015
1.00129
1.002
1.00195
1.00033
0.99902
1.00012
1.0025
1.00248
0.999201
0.996627
0.998207
1.00192
1.00315
1.00122
0.998412
0.998012
0.999018
1.00056
1.00096
1.00069
1.00006
0.999593
0.999521
0.999717
0.999965
1.0001
1.00011
1.00006
1.00001
0.999993
0.999988
0.999991
0.999995
0.999998
1
1
1
1
1
1
1
1
1
1
1
1
1
1
1
1
1
1
1
1
1
1
0.999998
1
0.999995
1.00001
0.999993
1.00001
0.999993
1
1
0.999983
1.00003
0.999953
1.00006
0.999957
1.0001
0.999889
0.99999
1.00006
1.00034
0.999737
0.999504
1.00035
1.00005
0.999891
0.99975
0.999897
0.999688
1.00009
0.99993
0.999552
1.00006
1.00024
1.00002
1
1.00006
1.00009
1.00006
1.00005
1.00002
0.999985
0.999976
0.999951
0.999969
0.999988
0.999984
1.00001
1
0.999996
0.999999
1
1
0.999997
0.999999
1
1
1
0.999999
1
1
1
1
1
1
1.00001
1.00001
1.00001
1.00001
1.00001
1.00001
1.00001
1.00003
1.00005
1.00009
1.00014
1.00023
1.00036
1.00052
1.00074
1.00101
1.00132
1.0017
1.0021
1.00252
1.00296
1.00334
1.00368
1.00397
1.00407
1.00414
1.00418
1.00378
1.00341
1.00364
1.00324
1.0017
1.00123
1.00277
1.00336
1.0006
0.997412
0.998695
1.00342
1.00492
1.00056
0.995381
0.995934
1.0003
1.00391
1.00287
1.00002
0.997969
0.998228
0.999395
1.00071
1.00108
1.00073
1.00006
0.999593
0.999562
0.999774
0.999983
1.00008
1.00007
1.00004
1.00001
0.999994
0.999993
0.999996
0.999999
1
1
1
1
1
1
1
1
1
1
1
1
1
1
1
1
1
1
1
1
0.999999
1
1
0.999991
1.00002
0.99996
1.00007
0.99989
1.00017
0.999767
1.0003
0.999652
1.00039
0.999559
1.00039
0.999574
1.00047
0.99967
1.0001
0.999423
1.00094
0.999878
0.999949
0.999726
1.00044
0.99992
1.00034
1.00024
0.99958
1.00034
1.00022
0.999578
0.99981
0.999986
0.999863
0.999884
0.999942
0.999958
1.00002
0.999999
1.00003
1.00006
1.00003
1.00003
1.00002
0.999997
0.99999
1
1.00001
0.999993
1
1
0.999997
1
1
1
1
0.999997
1
1
1
1
1
1
1.00001
1.00001
1.00001
1.00001
1.00001
1.00002
1.00003
1.00005
1.00009
1.00015
1.00026
1.00041
1.00062
1.00089
1.00125
1.00168
1.00219
1.00277
1.00341
1.00405
1.00471
1.00531
1.00578
1.00619
1.00641
1.00632
1.00633
1.00615
1.00517
1.00459
1.00515
1.0045
1.00155
1.00041
1.00352
1.00577
1.00172
0.995361
0.995728
1.00297
1.00771
1.00366
0.996079
0.993721
0.997091
1.00262
1.00382
1.00244
0.999217
0.997945
0.998172
0.999559
1.0009
1.00119
1.00067
0.999988
0.999642
0.999684
0.999871
1.00001
1.00005
1.00004
1.00001
1
0.999997
0.999998
1
1
1
1
1
1
1
1
1
1
1
1
1
1
1
1
1
1
1
1
0.999996
1.00001
0.999977
1.00004
0.999936
1.0001
0.99986
1.00019
0.999763
1.00026
0.999737
1.00024
0.999797
1.00023
0.999943
0.999908
0.999959
1.00006
1.00056
0.999575
0.999397
1.00016
1.00051
0.999675
0.999649
1.0004
0.999318
1.00026
1.00017
0.999717
1.00014
1.00048
1.00018
0.999986
1.00028
1.0002
0.999945
1.00003
0.999986
0.999956
0.999969
0.999936
0.999975
0.999963
0.999995
1.00003
0.99999
0.999999
1
1
1
0.999998
1
0.999998
0.999999
1
1
1
1
1
1.00001
1.00001
1.00001
1.00001
1.00001
1.00001
1.00001
1.00002
1.00002
1.00003
1.00005
1.00008
1.00015
1.00026
1.00043
1.00068
1.00102
1.00146
1.00202
1.0027
1.00349
1.00436
1.00532
1.0063
1.00723
1.00812
1.00883
1.0093
1.00969
1.00963
1.00919
1.0091
1.00854
1.00653
1.0056
1.00715
1.00635
1.00097
0.998364
1.00373
1.00907
1.00437
0.994176
0.991624
0.999575
1.0088
1.00772
1.00046
0.993004
0.993989
0.998575
1.00338
1.00375
1.00192
0.998708
0.997551
0.998219
0.99986
1.00102
1.00102
1.00042
0.99993
0.999766
0.999835
0.999946
1.00001
1.00002
1.00001
1
1
0.999999
0.999999
1
1
1
1
1
1
1
1
1
1
1
1
1
1
1
0.999999
1
0.999993
1.00001
0.999979
1.00003
0.99997
1.00003
0.999977
1
1.00006
0.999826
1.00032
0.999554
1.0006
0.999189
1.00079
0.999033
1.00119
0.999271
1.00023
0.998742
1.00179
0.999878
0.999941
0.998764
1.00146
0.999417
1.00041
0.999889
0.999821
1.0001
0.999953
0.999771
0.999535
0.999869
0.999956
0.999663
0.999855
1.00011
0.999974
0.999998
1.00009
1.00001
1.00005
1.00006
0.999987
0.999988
0.999987
1.00001
0.999997
0.999987
1.00001
0.999992
0.999998
1.00001
1
1
0.999991
1
1.00001
1
1.00001
1
1.00001
1.00001
1.00001
1.00001
1.00001
1.00002
1.00002
1.00003
1.00004
1.00008
1.00014
1.00025
1.00043
1.0007
1.00109
1.00162
1.0023
1.00315
1.00417
1.00534
1.00663
1.008
1.00941
1.01073
1.01194
1.01298
1.01362
1.01399
1.01416
1.01349
1.01251
1.01241
1.01123
1.00747
1.00614
1.00975
1.0092
1.00015
0.99477
1.00215
1.01201
1.00924
0.996411
0.98784
0.993214
1.00555
1.0109
1.00693
0.996578
0.992868
0.99409
1.00039
1.00376
1.00387
1.00115
0.998089
0.997507
0.998705
1.00017
1.00083
1.00064
1.0002
0.99994
0.999887
0.99993
0.99998
1
1.00001
1
1
0.999999
0.999999
0.999999
1
1
1
1
1
1
1
1
1
1
1
1
0.999998
1
0.999995
1
1
0.999985
1.00004
0.999922
1.00013
0.999785
1.00035
0.999457
1.00072
0.999123
1.00102
0.998852
1.00128
0.999066
1.00072
0.999191
1.00018
1.00071
1.00012
0.999117
0.99917
1.0014
0.999733
1
0.99997
0.999243
1.00066
1.0001
1.00013
0.999655
1.00061
1.00023
1.00007
1.00033
1.00002
1.00006
1.00008
0.99987
1.00002
0.999971
0.999922
0.999993
0.99996
1.00005
1.00001
0.999978
1.00001
0.999993
1.00002
1.00001
0.999994
0.999995
0.999995
1.00001
1
0.999995
0.999998
0.999997
1.00001
1
1
1.00001
1
1.00001
1.00001
1.00002
1.00002
1.00003
1.00004
1.00007
1.00012
1.00022
1.0004
1.00068
1.0011
1.0017
1.00249
1.00351
1.00476
1.00623
1.00789
1.00972
1.01161
1.01352
1.01536
1.01695
1.0183
1.01929
1.01963
1.01971
1.0194
1.01768
1.01595
1.01626
1.01418
1.0073
1.00569
1.01269
1.01319
1.00034
0.990485
0.997601
1.01176
1.01502
1.00414
0.987859
0.98627
0.996167
1.01127
1.0113
1.0043
0.99448
0.993038
0.995529
1.00195
1.0043
1.00325
1.00019
0.997977
0.998122
0.999349
1.00026
1.00049
1.00031
1.00007
0.999965
0.999956
0.999977
0.999995
1
1
0.999999
0.999999
0.999999
1
1
1
1
1
1
1
1
1
1
1
1
1
1
0.999991
1.00002
0.999955
1.00007
0.999893
1.00015
0.999772
1.00035
0.999526
1.00054
0.999527
1.0004
0.999692
0.999909
1.00045
0.998999
1.00153
0.998505
1.00132
0.998272
1.00188
0.998657
1.00115
0.99891
1.00191
0.997256
1.00125
1.00026
1.0009
0.998137
1.00038
1.0005
0.99945
0.999954
0.999624
0.999822
1.00027
0.999894
0.999793
1.00023
0.999979
0.999955
1.00014
0.999944
0.999985
1.00001
0.999967
1.00005
0.999976
0.999963
0.999998
1.00001
1.00003
0.999984
0.999999
1
0.999999
1.00001
1
1
1.00001
0.999998
0.999999
1
1.00001
1.00002
1.00002
1.00002
1.00003
1.00004
1.00006
1.0001
1.00019
1.00035
1.00062
1.00105
1.00168
1.00255
1.00372
1.00518
1.00694
1.00899
1.01127
1.01371
1.01625
1.01872
1.0211
1.02317
1.02483
1.0261
1.02672
1.02646
1.02613
1.0251
1.02161
1.01913
1.02065
1.01722
1.00582
1.0036
1.01498
1.01836
1.00354
0.987922
0.989831
1.00488
1.01904
1.01532
0.994984
0.982108
0.985695
1.00454
1.01148
1.01027
1.00005
0.994314
0.993631
0.997602
1.00305
1.00395
1.00195
0.999569
0.998538
0.998979
0.999786
1.00018
1.00021
1.00011
1.00002
0.999988
0.999988
0.999992
0.999996
0.999997
0.999998
0.999999
1
1
1
1
1
1
1
1
1
1
1
0.999999
1.00001
0.999986
1.00002
0.999969
1.00004
0.999962
1.00005
0.999903
1.00015
0.999844
1
1.00032
0.999259
1.00115
0.998324
1.0027
0.997054
1.00256
0.996999
1.00297
0.99908
0.999885
0.998467
1.00137
1.00206
0.996902
0.999717
1.00149
1.00177
0.99788
0.998602
1.00195
1.00029
1.00006
0.998837
1.00093
1.00036
0.999777
0.999957
0.99992
1.00019
1
0.999789
1.0001
0.999997
0.999945
1.0001
0.999948
0.999978
1.00001
1.00005
1.00005
0.999922
0.999983
1.00001
1
1.00001
0.999979
0.999999
1
0.999997
1.00001
1
1
1
1
1.00002
1.00002
1.00003
1.00004
1.00004
1.00006
1.00009
1.00016
1.00029
1.00053
1.00094
1.00157
1.00249
1.00374
1.00538
1.00741
1.00982
1.01256
1.01556
1.01868
1.02188
1.02496
1.02779
1.03033
1.03235
1.03375
1.03472
1.03464
1.03356
1.03288
1.0308
1.02445
1.02164
1.02579
1.02047
1.00359
0.999503
1.01398
1.02291
1.01126
0.991213
0.981682
0.990044
1.01703
1.02467
1.00984
0.9819
0.982458
0.992789
1.00777
1.00878
1.00708
0.997617
0.994435
0.995247
0.999442
1.00295
1.00264
1.00077
0.999529
0.999268
0.999588
0.999948
1.00008
1.00007
1.00003
1.00001
0.999994
0.999992
0.999994
0.999997
0.999999
1
1
1
1
1
1
1
1
1
1
1
0.999997
0.999996
1
1.00001
0.999984
1.00002
1
0.999966
1.00002
1.00013
0.99949
1.00108
0.998353
1.00214
0.997376
1.00295
0.996784
1.00209
0.999621
1.00068
0.999495
0.997296
1.00382
0.999366
1.00031
0.995699
1.00407
0.999681
1.00165
0.995071
1.00219
1.00073
1.00243
0.995888
1.00016
1.00194
0.999592
0.999388
0.99979
1.00039
1.0001
0.999864
0.999841
1.00027
0.99996
0.999841
1.00015
0.999917
1.00004
1.00007
0.99982
1
1.00009
1.00006
0.999989
0.999943
1.00004
1
0.999982
1.00001
0.999996
1
0.999985
0.999984
0.999997
1
1.00002
1.00002
1.00003
1.00003
1.00005
1.00005
1.00008
1.00012
1.00023
1.00043
1.00079
1.00139
1.00229
1.00359
1.00534
1.00758
1.01031
1.01347
1.01697
1.02071
1.02454
1.02828
1.03186
1.03505
1.03784
1.0401
1.04173
1.04272
1.04323
1.04214
1.0401
1.0396
1.03588
1.02563
1.02307
1.03095
1.0246
1.00222
0.993592
1.00744
1.02333
1.02195
1.00383
0.977236
0.973408
1.00578
1.02786
1.02262
0.991257
0.985853
0.987633
0.999234
1.00483
1.0072
1.00424
0.996471
0.995259
0.997444
1.00038
1.0019
1.00132
1.00019
0.99972
0.999731
0.999875
0.999994
1.00003
1.00002
1
0.999995
0.999994
0.999996
0.999999
1
1
1
1
1
1
1
1
0.999999
1
0.999998
1
0.999991
1.00001
0.999989
0.999993
1.00003
0.999979
0.99987
1.00051
0.998911
1.00169
0.997917
1.00207
0.998255
1.00129
1.00006
0.998252
1.00341
0.995146
1.00509
0.994802
1.00551
0.996116
1.00201
0.997737
1.00126
1.00298
0.997217
0.997654
1.00059
1.00597
0.996842
0.995112
1.00335
1.0026
0.99919
0.996499
1.00234
1.00079
0.999065
0.999998
0.999917
1.00025
1.00003
0.999735
1.00019
1.00003
0.999802
1.00011
1.00008
1.00007
0.999868
0.999829
1.00012
1.00004
0.999988
1.00002
0.999998
1.00002
1
1.00003
1.00003
0.999997
0.999993
0.999999
1.00002
1.00003
1.00003
1.00003
1.00004
1.00005
1.00007
1.00011
1.00018
1.00033
1.00063
1.00115
1.002
1.00327
1.00506
1.00744
1.0104
1.01392
1.01789
1.02218
1.02658
1.03095
1.03504
1.03878
1.04204
1.04478
1.04701
1.0488
1.04988
1.05054
1.05063
1.04829
1.04558
1.04612
1.03989
1.02438
1.02239
1.03475
1.03026
1.00531
0.988247
0.994392
1.01535
1.03114
1.02457
0.979832
0.964049
0.98701
1.02729
1.01935
1.00665
0.99189
0.994814
0.990639
1.00063
1.00393
1.00578
1.0018
0.996632
0.996939
0.999156
1.0005
1.00084
1.00048
1.00003
0.999889
0.999932
0.999975
0.999995
1
0.999996
0.999995
0.999997
0.999999
1
1
1
1
1
1
1
1
1
1
0.999998
1
0.999994
1.00002
0.999978
0.999988
1.00016
0.999486
1.00104
0.998457
1.0017
0.998735
1.00025
1.00128
0.996903
1.00469
0.993012
1.00874
0.992017
1.00708
0.99238
1.00616
0.999235
0.997383
0.99912
1.00254
1.0046
0.990379
1.00196
1.00405
1.00529
0.988721
1.00135
1.00388
1.00547
0.991147
0.99968
1.00492
0.999647
0.997738
0.999842
1.00156
0.999612
0.999627
1.00003
1.00017
1.00005
0.999836
1.00022
0.99978
0.999826
1.00036
1.00007
0.999905
0.99989
0.999924
1.00006
0.999968
0.999982
0.999999
0.999971
1
1.00001
1.00003
1.00003
1.00003
1.00003
1.00003
1.00003
1.00003
1.00004
1.00006
1.00009
1.00014
1.00025
1.00047
1.0009
1.00164
1.00282
1.00457
1.00697
1.01008
1.01388
1.01825
1.02302
1.02796
1.03282
1.03735
1.0414
1.0448
1.04763
1.04988
1.05179
1.05334
1.05478
1.05555
1.05641
1.0564
1.05247
1.04962
1.05198
1.04293
1.02129
1.01837
1.03501
1.03634
1.01457
0.988562
0.979518
0.996383
1.0339
1.04292
0.991651
0.965169
0.974467
1.01713
1.0082
1.00874
1.00252
1.00157
0.994206
0.992311
1.00238
1.00396
1.00311
1.00032
0.997963
0.998524
0.99986
1.00029
1.00025
1.00014
1.00002
0.999969
0.999977
0.999986
0.99999
0.999995
0.999998
1
1
1
1
1
1
1
1
1
1
1
0.999999
1
0.999982
1.00007
0.999803
1.00046
0.999176
1.00111
0.999033
1.00011
1.00147
0.99654
1.00547
0.992779
1.00844
0.991859
1.00774
0.993465
1.00189
1.00204
0.997763
1.00463
0.989226
1.01198
0.994594
1.003
0.991638
1.00701
1.00369
0.99595
0.993843
1.00139
1.01121
0.99609
0.989673
1.00462
1.00651
0.998551
0.992592
1.00467
1.00193
0.997442
1.00022
1.00037
1.0001
1.00002
0.999624
1.00015
1.0003
0.999869
0.999895
0.999765
1.00011
1.00036
0.999944
0.999959
0.999992
0.999962
1.00002
0.99997
0.999969
0.999937
0.999928
0.999996
1.00003
1.00004
1.00002
1.00001
1.00002
1.00003
1.00006
1.00008
1.00012
1.00019
1.00035
1.00067
1.00127
1.00231
1.00391
1.00624
1.00938
1.01334
1.01802
1.02321
1.02864
1.03394
1.03884
1.043
1.04634
1.04879
1.05052
1.05177
1.05292
1.05405
1.0555
1.05719
1.05841
1.06021
1.06026
1.05407
1.05193
1.05772
1.04614
1.01739
1.01008
1.028
1.04039
1.02961
0.99722
0.969123
0.971765
1.03054
1.04591
1.00955
0.967744
0.988882
0.997941
1.00181
0.993207
1.01193
1.00393
1.00101
0.992818
0.995619
1.00329
1.00284
1.00086
0.999827
0.999223
0.999441
0.999988
1.00014
1.00006
1.00002
0.999998
0.999981
0.999984
0.999993
0.999998
1
1
1
1
1
1
1
1
0.999998
1
0.999997
1
1
1.00015
0.999726
1.00042
0.99956
1.00005
1.00103
0.997222
1.00477
0.993711
1.00698
0.993457
1.00476
0.998151
0.997611
1.00643
0.990019
1.01494
0.982058
1.01727
0.984135
1.01384
0.98912
1.00756
0.99495
1.00152
1.006
0.991933
0.997731
1.00452
1.01267
0.983473
0.996963
1.00691
1.01199
0.9852
0.996897
1.00926
1.00077
0.995031
0.999449
1.00352
0.998796
0.999188
1.00071
0.999889
0.99996
0.999704
1.00035
1.00033
0.999541
0.999793
0.99997
1.00013
1.0002
0.999981
1.00005
1.00005
1.00007
1.00009
0.999979
0.999968
0.999981
0.999991
1
0.99999
0.999994
1.00003
1.00005
1.00009
1.00011
1.00015
1.00026
1.00048
1.00094
1.00177
1.00317
1.00532
1.00834
1.01234
1.0172
1.02274
1.0286
1.03436
1.03957
1.04385
1.04697
1.0488
1.0496
1.0496
1.04938
1.04927
1.04999
1.05122
1.05371
1.05644
1.05885
1.06242
1.06268
1.05309
1.05174
1.06216
1.05038
1.01612
1.00046
1.0127
1.0356
1.0437
1.01664
0.966968
0.953869
1.02097
1.03513
1.01966
0.974111
1.01182
0.997437
0.992366
0.985556
1.00371
1.01245
0.999329
0.998257
0.995878
0.998289
1.00218
1.00147
0.999955
0.999773
0.999864
0.99987
0.999985
1.00004
1
0.999985
0.99999
0.999994
0.999998
1
1
1
1
1
0.999999
1
1
0.999997
1.00001
0.999981
1.00004
0.999928
0.999958
0.999896
1.00056
0.998484
1.00295
0.995599
1.00509
0.995716
1.002
1.00141
0.994213
1.01125
0.984556
1.01838
0.978862
1.02181
0.981299
1.01416
0.989084
1.00426
1.00738
0.987256
1.00972
0.991309
1.0156
0.977679
1.01204
1.00497
1.00168
0.983039
1.00223
1.0171
0.999163
0.981279
1.00457
1.01193
0.999347
0.986442
1.00709
1.00476
0.994941
0.999909
1.0014
0.99972
1.00005
0.99997
0.999741
1.00001
1.00012
1.00046
0.999998
0.999482
0.999871
0.999946
1.00001
0.999999
0.999924
1.00009
1.00008
1.00007
1.00009
1.00001
0.999982
0.999967
0.999982
1.00002
1.00006
1.00009
1.00011
1.00014
1.00019
1.00035
1.00066
1.00129
1.00243
1.00428
1.00709
1.01094
1.01586
1.02163
1.02787
1.03407
1.03966
1.04413
1.04703
1.04829
1.0479
1.04636
1.04422
1.04221
1.04085
1.04078
1.04232
1.04488
1.04939
1.05401
1.05803
1.06464
1.06386
1.04855
1.04769
1.06467
1.05633
1.02053
0.992368
0.992893
1.02341
1.04816
1.03769
0.968702
0.958629
1.00702
1.02726
0.994522
0.995245
1.01358
1.02225
0.981963
0.990028
0.992205
1.01005
1.00679
0.996133
0.998302
0.999149
0.999425
1.00068
1.00063
0.999936
0.999864
1.00002
0.999989
0.999966
0.99999
0.999996
0.999996
1
1
1
1
1
1
0.999998
1.00001
0.999991
1.00001
0.999981
1.00003
0.999959
1.00006
0.999415
1.00117
0.99804
1.0026
0.997624
1.00063
1.00279
0.992932
1.01126
0.985255
1.0176
0.981267
1.0155
0.989616
1.00766
0.999113
0.987637
1.02112
0.978358
1.02577
0.965516
1.03459
0.97573
1.01433
0.986156
1.01445
0.999328
0.991675
0.994996
1.00579
1.01837
0.982141
0.99011
1.00766
1.0201
0.982307
0.990957
1.01326
1.00332
0.992181
0.998129
1.0064
0.998163
0.997836
1.00164
0.99985
1.00009
0.999754
0.999407
1.0005
1.00046
1.00023
0.999929
0.999781
0.99996
0.999844
0.999852
0.999871
0.999862
1.00005
1.00007
1
0.999992
0.999976
1.00003
1.00008
1.00009
1.00011
1.00011
1.00017
1.00026
1.00046
1.00091
1.00175
1.00328
1.00571
1.00926
1.01406
1.01991
1.02646
1.0331
1.03915
1.04392
1.04686
1.04764
1.04625
1.04314
1.03889
1.03451
1.03068
1.02844
1.02761
1.02939
1.03275
1.03778
1.04492
1.05151
1.05675
1.06787
1.06485
1.04272
1.03915
1.05991
1.06079
1.03267
0.994201
0.974741
1.00185
1.04512
1.05001
0.969805
0.97858
0.998428
1.02926
0.956837
1.00055
1.01348
1.02932
0.994632
0.983351
0.999816
0.998054
1.00616
1.0029
0.996955
0.998944
1.00037
0.999903
0.999978
1.00023
1.00005
0.999918
0.999975
0.999996
0.999988
0.999997
1.00001
1.00001
1
1
1
0.999998
1
0.999999
0.999998
1.00001
0.999975
1.00005
0.999888
1.00026
1.0007
0.999339
0.999912
1.00205
0.994703
1.00909
0.988042
1.01283
0.988493
1.00861
0.996824
0.995153
1.01526
0.976621
1.02821
0.963709
1.04478
0.957194
1.03442
0.973189
1.01837
0.991737
0.996983
1.01475
0.978747
1.02678
0.967524
1.02084
0.994271
1.01954
0.968987
1.00325
1.01612
1.00977
0.973323
1.00134
1.01588
1.00365
0.980584
1.00631
1.00928
0.993059
0.998468
1.00319
0.999511
0.999008
1.00072
1.00031
0.999495
0.999273
0.999939
1.00052
1.00026
1.0003
1.00017
1.00007
1.00009
0.999835
0.999869
0.999984
0.999987
1.00002
1.00004
1.00006
1.00009
1.0001
1.00007
1.00009
1.00013
1.00019
1.00034
1.00061
1.00121
1.00237
1.00434
1.00747
1.0119
1.01766
1.0244
1.03146
1.03805
1.0433
1.0465
1.04714
1.04512
1.04064
1.03453
1.02771
1.02131
1.01623
1.01321
1.01263
1.01411
1.01901
1.02486
1.03242
1.04217
1.0489
1.05663
1.07298
1.06689
1.03557
1.02793
1.04766
1.06043
1.04405
1.00205
0.97174
0.981627
1.0411
1.03627
0.974925
0.993116
1.02414
1.01267
0.961425
0.968064
1.02678
1.01285
1.01329
0.984164
0.993684
1.00525
0.998856
1.00142
1.00149
0.998786
0.999278
1.00039
1.00017
0.999854
0.999986
1.00003
0.999974
0.999981
1
1.00001
1.00001
1
1
1
0.999997
1.00001
0.999984
1.00003
0.999955
1.00008
0.999858
1.00027
0.99952
1.00104
0.997484
1.00471
0.993028
1.00808
0.993342
1.00247
1.00367
0.989752
1.01748
0.974187
1.03285
0.965063
1.03394
0.968138
1.02744
0.985485
0.998678
1.01173
0.974402
1.0433
0.950426
1.04489
0.960807
1.0371
0.96117
1.02931
0.996044
0.998833
0.982299
1.00925
1.01943
0.990604
0.980274
1.00684
1.02292
0.987881
0.98293
1.0144
1.00731
0.9907
0.995351
1.00862
0.998961
0.996155
1.00232