/*--------------------------------*- C++ -*----------------------------------*\
  =========                 |
  \\      /  F ield         | OpenFOAM: The Open Source CFD Toolbox
   \\    /   O peration     | Website:  https://openfoam.org
    \\  /    A nd           | Version:  6
     \\/     M anipulation  |
\*---------------------------------------------------------------------------*/
FoamFile
{
    version     2.0;
    format      ascii;
    class       surfaceScalarField;
    location    "2.04";
    object      phi;
}
// * * * * * * * * * * * * * * * * * * * * * * * * * * * * * * * * * * * * * //

dimensions      [0 3 -1 0 0 0 0];

internalField   nonuniform List<scalar> 
8193
(
0.08952
-0.178814
-0.0915448
0.0855839
-0.183107
0.0810457
-0.186142
0.076344
-0.188974
0.0716327
-0.191815
0.0669301
-0.194474
0.0622098
-0.196701
0.0574809
-0.198287
0.052774
-0.199146
0.0481212
-0.19927
0.0435442
-0.198693
0.0390627
-0.19748
0.0346798
-0.195699
0.030444
-0.193509
0.0264525
-0.19112
0.0228081
-0.18876
0.0194762
-0.186534
0.0161369
-0.184278
0.0121856
-0.181304
0.00688879
-0.178169
0.000583336
-0.17694
-0.0054265
-0.176372
-0.0103391
-0.177545
-0.0142187
-0.176577
-0.0176747
-0.172564
-0.0212209
-0.168614
-0.0249347
-0.165897
-0.02879
-0.164147
-0.0327511
-0.162924
-0.0368176
-0.16201
-0.0410361
-0.161358
-0.045418
-0.160984
-0.04997
-0.160828
-0.0546771
-0.160822
-0.0595132
-0.160936
-0.0644796
-0.161213
-0.0696571
-0.161939
-0.0750692
-0.163399
-0.080594
-0.165674
-0.0857897
-0.168411
-0.170496
-0.0895081
0.102781
-0.178372
-0.100718
0.102664
-0.184143
0.101583
-0.189633
0.0997286
-0.194808
0.0970874
-0.199628
0.093656
-0.203873
0.0894698
-0.207305
0.0846283
-0.209762
0.0792516
-0.211175
0.073459
-0.211538
0.0673455
-0.210874
0.0609822
-0.209241
0.0544441
-0.206737
0.0478574
-0.203601
0.0414067
-0.200133
0.0352936
-0.196611
0.0295776
-0.193037
0.0239753
-0.18894
0.0178522
-0.183316
0.0101993
-0.176389
0.00115669
-0.171409
-0.00760537
-0.1687
-0.015124
-0.168669
-0.0213907
-0.166518
-0.0269173
-0.160859
-0.0322291
-0.154822
-0.0374476
-0.150018
-0.0425581
-0.146351
-0.0475242
-0.143441
-0.0523237
-0.141088
-0.0569587
-0.139256
-0.0614649
-0.137958
-0.0658284
-0.137214
-0.0700203
-0.136996
-0.0740196
-0.137291
-0.0777971
-0.138167
-0.0814204
-0.139827
-0.0850001
-0.14252
-0.0886353
-0.146337
-0.0922314
-0.151112
-0.156675
-0.0947336
0.11963
-0.178867
-0.113973
0.123266
-0.186428
0.125216
-0.193835
0.12555
-0.200725
0.124272
-0.206936
0.121463
-0.212282
0.11727
-0.21656
0.11188
-0.21963
0.105495
-0.221426
0.0982989
-0.221927
0.0904516
-0.22114
0.0820893
-0.219115
0.0733516
-0.215975
0.064413
-0.21202
0.0555012
-0.207633
0.0468742
-0.203156
0.0386305
-0.198461
0.0305599
-0.192804
0.0221195
-0.184885
0.0122455
-0.174437
0.000862907
-0.165735
-0.010214
-0.161023
-0.0199641
-0.15995
-0.0283644
-0.156751
-0.0358582
-0.149602
-0.0428767
-0.141679
-0.0495665
-0.134907
-0.055922
-0.129377
-0.061899
-0.124776
-0.0674674
-0.120923
-0.0726027
-0.117808
-0.0773329
-0.115422
-0.0816424
-0.113858
-0.0854995
-0.113134
-0.0888627
-0.113274
-0.0917003
-0.114359
-0.0940271
-0.116567
-0.0959458
-0.120076
-0.0976085
-0.124943
-0.0990553
-0.13112
-0.138757
-0.100012
0.142257
-0.180326
-0.133259
0.148728
-0.189327
0.152672
-0.197989
0.154205
-0.205998
0.15346
-0.213148
0.150606
-0.219246
0.145867
-0.224109
0.139498
-0.227607
0.131757
-0.229665
0.122892
-0.230248
0.113125
-0.229347
0.102655
-0.227
0.0916781
-0.223349
0.0804
-0.218727
0.0691141
-0.21363
0.0580906
-0.20841
0.0474504
-0.202819
0.0370013
-0.195831
0.0262846
-0.185912
0.014253
-0.172236
0.000658572
-0.159909
-0.012647
-0.153304
-0.0245391
-0.15137
-0.0349818
-0.147282
-0.044367
-0.138816
-0.0530742
-0.129187
-0.0612549
-0.120577
-0.0689029
-0.113259
-0.0759714
-0.106991
-0.0824177
-0.101614
-0.0882185
-0.0971274
-0.0933664
-0.0935355
-0.0978501
-0.0909641
-0.101631
-0.0894862
-0.104667
-0.0891571
-0.106913
-0.0900902
-0.108366
-0.0924452
-0.109091
-0.0963578
-0.109194
-0.101866
-0.108741
-0.108982
-0.117884
-0.107782
0.169894
-0.182054
-0.15857
0.177982
-0.191934
0.182895
-0.201367
0.184793
-0.210064
0.183883
-0.217811
0.180411
-0.224405
0.174665
-0.229668
0.166953
-0.23347
0.157585
-0.235725
0.14686
-0.236379
0.135055
-0.235409
0.122424
-0.232843
0.109216
-0.228836
0.095661
-0.223722
0.0821051
-0.218144
0.0687952
-0.212377
0.0558487
-0.206077
0.0430826
-0.197946
0.0301146
-0.186278
0.0159685
-0.169683
0.000309507
-0.153935
-0.0150286
-0.145601
-0.0288755
-0.142994
-0.041235
-0.138136
-0.052427
-0.128512
-0.0627769
-0.117356
-0.0724234
-0.107056
-0.0813631
-0.0980528
-0.0895489
-0.0901706
-0.0969345
-0.0832737
-0.103495
-0.0773646
-0.109202
-0.0724774
-0.11404
-0.068749
-0.117965
-0.0663102
-0.120923
-0.0652543
-0.12287
-0.0657099
-0.123798
-0.0678328
-0.123741
-0.0717401
-0.12276
-0.077474
-0.120911
-0.0850755
-0.0946683
-0.11833
0.201707
-0.183187
-0.18927
0.210325
-0.193494
0.215268
-0.203334
0.216749
-0.212418
0.215034
-0.220527
0.210432
-0.227452
0.20328
-0.23301
0.19393
-0.237059
0.182728
-0.239492
0.170008
-0.240243
0.156093
-0.239279
0.141288
-0.236623
0.125888
-0.232437
0.110171
-0.227057
0.0944677
-0.221206
0.0790031
-0.21508
0.063854
-0.208212
0.0488789
-0.199115
0.0336865
-0.185859
0.0174464
-0.166643
-0.000170903
-0.147765
-0.0173695
-0.13794
-0.0329931
-0.134864
-0.0471177
-0.129349
-0.0600171
-0.1187
-0.0719471
-0.106187
-0.0830251
-0.0943586
-0.0932469
-0.0837934
-0.102567
-0.074377
-0.110939
-0.0659935
-0.118337
-0.0586479
-0.124728
-0.0524012
-0.13008
-0.0474125
-0.13435
-0.04385
-0.137476
-0.0418478
-0.139408
-0.0415543
-0.140128
-0.0431191
-0.139655
-0.0466495
-0.138022
-0.0522055
-0.135276
-0.0598436
-0.0696496
-0.131529
0.236691
-0.18291
-0.224326
0.244839
-0.193345
0.248971
-0.203357
0.249354
-0.21265
0.246294
-0.220991
0.240141
-0.228166
0.231271
-0.233981
0.220061
-0.238271
0.206883
-0.240912
0.192099
-0.241821
0.176065
-0.240964
0.159129
-0.238367
0.141622
-0.23419
0.123889
-0.228806
0.106184
-0.222867
0.0887014
-0.216537
0.0714547
-0.209196
0.0543587
-0.19928
0.0369707
-0.184531
0.0186557
-0.162976
-0.000823074
-0.141335
-0.0196863
-0.130361
-0.0368977
-0.127026
-0.0526287
-0.120949
-0.0671189
-0.109386
-0.0805469
-0.0956835
-0.0930014
-0.0824936
-0.104474
-0.0705083
-0.114922
-0.059661
-0.124304
-0.049853
-0.132593
-0.0410896
-0.139754
-0.0334577
-0.145746
-0.0271431
-0.150524
-0.0223407
-0.154023
-0.0192229
-0.156191
-0.0179553
-0.157002
-0.0186844
-0.156458
-0.0215182
-0.154573
-0.0265355
-0.151383
-0.0337985
-0.0433569
-0.146993
0.273753
-0.180567
-0.262492
0.280576
-0.190973
0.2832
-0.201039
0.281922
-0.210462
0.277078
-0.218989
0.269045
-0.2264
0.258219
-0.232488
0.244998
-0.237065
0.22977
-0.239982
0.212917
-0.241146
0.194817
-0.240524
0.175851
-0.238152
0.156385
-0.234193
0.136778
-0.229032
0.117232
-0.223189
0.0978819
-0.216782
0.0786465
-0.209001
0.0594762
-0.198341
0.0398785
-0.182119
0.0195099
-0.158539
-0.00169922
-0.134612
-0.0220088
-0.12292
-0.0406021
-0.119528
-0.0577789
-0.112954
-0.0737307
-0.100576
-0.0885601
-0.085841
-0.102317
-0.0714657
-0.114989
-0.0582164
-0.126539
-0.0460624
-0.13693
-0.0349169
-0.146141
-0.0247828
-0.154134
-0.0157774
-0.160863
-0.00811097
-0.166279
-0.00200143
-0.170318
0.00234853
-0.172928
0.00475979
-0.174082
0.00508769
-0.17377
0.00321491
-0.171991
-0.000955237
-0.168768
-0.00748974
-0.016394
-0.164201
0.311758
-0.175674
-0.302453
0.316563
-0.186013
0.317122
-0.196112
0.313745
-0.20566
0.306789
-0.214396
0.296641
-0.222088
0.28371
-0.228513
0.268404
-0.233459
0.251121
-0.236757
0.232257
-0.238303
0.212206
-0.238068
0.191365
-0.2361
0.170119
-0.232567
0.148801
-0.227818
0.127597
-0.222251
0.106524
-0.215837
0.0854069
-0.207599
0.0641533
-0.196136
0.0423244
-0.178444
0.0199267
-0.15319
-0.0028614
-0.127577
-0.0243745
-0.115691
-0.0441351
-0.112423
-0.062594
-0.105375
-0.0798733
-0.0922657
-0.0959891
-0.0766572
-0.110952
-0.0612801
-0.124751
-0.0469329
-0.137353
-0.0336117
-0.148733
-0.0212335
-0.158872
-0.00980438
-0.167728
0.000526489
-0.175255
0.00952931
-0.181401
0.0169668
-0.186108
0.0226148
-0.189329
0.0262841
-0.191032
0.0278244
-0.191196
0.0271085
-0.189819
0.0240285
-0.186925
0.0185208
0.0105993
-0.18259
0.349533
-0.167929
-0.342837
0.351798
-0.17825
0.349884
-0.188433
0.344108
-0.198169
0.334829
-0.20719
0.322439
-0.21525
0.307347
-0.222111
0.289964
-0.227541
0.270695
-0.23135
0.249941
-0.233428
0.228105
-0.23375
0.205586
-0.23237
0.182765
-0.229452
0.159946
-0.225288
0.137251
-0.220115
0.114562
-0.213687
0.0916814
-0.204968
0.0682845
-0.192456
0.0442335
-0.173352
0.0198242
-0.146778
-0.004376
-0.120225
-0.0268194
-0.108775
-0.0475468
-0.105741
-0.0671322
-0.0982053
-0.0856008
-0.0844428
-0.102871
-0.0681303
-0.118921
-0.0519451
-0.133745
-0.0366747
-0.147323
-0.0223357
-0.159645
-0.00884179
-0.170691
0.00378469
-0.180415
0.015361
-0.188767
0.0256442
-0.195699
0.034385
-0.201162
0.0413477
-0.205115
0.0463318
-0.207523
0.0491759
-0.208361
0.0497439
-0.207627
0.0479247
-0.205349
0.043661
0.0369718
-0.201587
0.385868
-0.157216
-0.382223
0.385257
-0.167629
0.380629
-0.178
0.372297
-0.188033
0.360616
-0.197452
0.345971
-0.205998
0.328763
-0.213418
0.309397
-0.219463
0.288281
-0.223932
0.265818
-0.226706
0.242408
-0.227759
0.218441
-0.227145
0.194275
-0.225011
0.170165
-0.221563
0.14614
-0.216836
0.121947
-0.210318
0.0972965
-0.200966
0.0717299
-0.187123
0.0454787
-0.166706
0.0191154
-0.139193
-0.00627548
-0.112605
-0.0293913
-0.102253
-0.0509152
-0.0994784
-0.071491
-0.0914112
-0.0910078
-0.0770873
-0.109281
-0.0602635
-0.126269
-0.0434785
-0.141986
-0.0274681
-0.156439
-0.012258
-0.169638
0.00223506
-0.181541
0.0159346
-0.192095
0.0286402
-0.201261
0.0401143
-0.208997
0.0500988
-0.215264
0.0583464
-0.220024
0.0646459
-0.223244
0.0688237
-0.224899
0.0707344
-0.224988
0.0702684
-0.223541
0.067376
0.0620767
-0.220611
0.419543
-0.143618
-0.419154
0.415923
-0.154264
0.408523
-0.16496
0.397638
-0.175423
0.383612
-0.185373
0.366815
-0.194538
0.347631
-0.202649
0.32646
-0.209448
0.303703
-0.214725
0.279761
-0.218358
0.255023
-0.220308
0.229861
-0.220624
0.20459
-0.21941
0.179396
-0.216759
0.154172
-0.212435
0.128544
-0.205678
0.102047
-0.195375
0.0743555
-0.180035
0.0459287
-0.158371
0.0177289
-0.130385
-0.00855651
-0.104838
-0.0321332
-0.0961614
-0.054345
-0.093567
-0.0758059
-0.084923
-0.096227
-0.0701741
-0.115334
-0.0530665
-0.133092
-0.0359027
-0.149543
-0.0193431
-0.16475
-0.00339486
-0.178708
0.011956
-0.191363
0.0265797
-0.202678
0.0402922
-0.212618
0.0528491
-0.221144
0.0639825
-0.228219
0.0734393
-0.233812
0.0810003
-0.237895
0.0864801
-0.240447
0.0897264
-0.241472
0.0906319
-0.240998
0.0891505
0.0853047
-0.239079
0.449391
-0.127425
-0.452212
0.442851
-0.138448
0.432804
-0.149611
0.419528
-0.160639
0.403346
-0.171249
0.384607
-0.181158
0.363681
-0.190086
0.340953
-0.197769
0.316817
-0.203994
0.291666
-0.208634
0.265868
-0.211627
0.239776
-0.213014
0.213638
-0.212812
0.187548
-0.21097
0.161221
-0.2069
0.13415
-0.199637
0.105778
-0.188036
0.0759531
-0.171035
0.0454349
-0.148274
0.0156267
-0.120418
-0.0111795
-0.0971288
-0.0350775
-0.0904634
-0.0579641
-0.0878409
-0.0802401
-0.078632
-0.101417
-0.0636756
-0.12117
-0.0465565
-0.1395
-0.0292545
-0.156526
-0.0123124
-0.172324
0.00422046
-0.186871
0.0202556
-0.200151
0.0356706
-0.212129
0.0502614
-0.222764
0.0637692
-0.232016
0.0759269
-0.239857
0.0864787
-0.246258
0.0951999
-0.251197
0.101895
-0.254663
0.106407
-0.256663
0.10863
-0.257229
0.10852
0.106103
-0.256417
0.474406
-0.109118
-0.480151
0.465234
-0.120633
0.452838
-0.132381
0.437473
-0.144085
0.41944
-0.155463
0.399064
-0.166216
0.376701
-0.176066
0.352722
-0.184742
0.327513
-0.192036
0.301452
-0.197805
0.274883
-0.201957
0.24813
-0.204522
0.221333
-0.205345
0.194491
-0.204249
0.167084
-0.200148
0.138535
-0.192039
0.108249
-0.178777
0.0762974
-0.159987
0.0438893
-0.136466
0.0128229
-0.109481
-0.0140673
-0.0897442
-0.0382776
-0.0849938
-0.0619308
-0.0820299
-0.0849791
-0.0724005
-0.106771
-0.0575514
-0.126986
-0.0407406
-0.145705
-0.023545
-0.163104
-0.00641409
-0.179246
0.0104905
-0.194194
0.0270801
-0.207936
0.0431567
-0.220433
0.058488
-0.231638
0.0728037
-0.241515
0.085842
-0.250032
0.0973428
-0.257166
0.107083
-0.262899
0.114856
-0.267231
0.120509
-0.270174
0.12393
-0.271766
0.125078
0.123978
-0.272061
0.493822
-0.0893039
-0.502027
0.482474
-0.101391
0.468164
-0.113798
0.451122
-0.126244
0.431623
-0.138449
0.409982
-0.150113
0.386535
-0.160952
0.361658
-0.170713
0.335709
-0.179159
0.309073
-0.186166
0.28203
-0.191544
0.254896
-0.195359
0.227565
-0.197054
0.200076
-0.196608
0.171443
-0.191927
0.141459
-0.182808
0.109165
-0.167376
0.0752387
-0.146907
0.0413431
-0.1232
0.00939632
-0.0977946
-0.0172051
-0.0828932
-0.0419342
-0.0793748
-0.0665098
-0.0758016
-0.0902183
-0.0661596
-0.112445
-0.0517996
-0.132878
-0.0356777
-0.151763
-0.0188164
-0.169256
-0.00174988
-0.185563
0.0154062
-0.200718
0.0323931
-0.214736
0.0489959
-0.22757
0.0649151
-0.239191
0.0798969
-0.249546
0.0936526
-0.258614
0.105942
-0.266362
0.116524
-0.272783
0.125203
-0.277877
0.131818
-0.281661
0.136257
-0.284175
0.138478
0.1385
-0.285476
0.507129
-0.0686948
-0.517168
0.49421
-0.0813947
0.478464
-0.0943906
0.46026
-0.107667
0.439683
-0.120614
0.417238
-0.133316
0.393051
-0.14508
0.367703
-0.156088
0.341329
-0.165644
0.314508
-0.174064
0.287223
-0.180559
0.260018
-0.185768
0.232103
-0.187808
0.204155
-0.188141
0.173871
-0.181711
0.142811
-0.172195
0.108333
-0.153535
0.0729172
-0.132146
0.0381469
-0.108949
0.00543454
-0.0853239
-0.0209823
-0.0763129
-0.0466276
-0.0730425
-0.0722076
-0.0689006
-0.0961834
-0.0601234
-0.118717
-0.0463643
-0.139046
-0.0315045
-0.157904
-0.0150715
-0.175199
0.0015747
-0.191488
0.0189693
-0.206554
0.03608
-0.220683
0.0531926
-0.233615
0.0694632
-0.245511
0.0850539
-0.256141
0.09928
-0.265631
0.112249
-0.273806
0.12341
-0.280777
0.132838
-0.286441
0.140142
-0.290927
0.145424
-0.294165
0.148421
0.149371
-0.296329
0.513889
-0.525249
0.500136
0.483436
0.464696
0.443466
0.420774
0.396215
0.370865
0.344379
0.317725
0.290381
0.263194
0.234709
0.20635
0.174356
0.142508
0.106234
0.0700042
0.0344725
0.00104276
-0.0262576
-0.0528846
-0.079223
-0.103019
-0.125364
-0.145273
-0.164061
-0.180827
-0.197027
-0.211556
-0.225731
-0.238301
-0.250492
-0.260928
-0.270918
-0.279017
-0.28664
-0.292331
-0.297585
-0.300992
-0.304063
-0.177652
-0.28021
-0.190297
-0.273968
-0.197089
-0.264807
-0.198031
-0.253385
-0.193279
-0.240016
-0.183216
-0.225134
-0.168439
-0.209195
-0.149748
-0.192658
-0.128126
-0.175982
-0.104709
-0.159631
-0.0807553
-0.144063
-0.0576054
-0.129737
-0.0365938
-0.117129
-0.0190994
-0.106505
-0.00627982
-0.0981112
0.00137678
-0.0922096
-0.0828376
-0.174301
-0.25711
-0.186754
-0.251673
-0.194028
-0.243969
-0.196028
-0.234333
-0.192857
-0.222994
-0.184791
-0.210313
-0.172292
-0.196652
-0.155986
-0.182379
-0.136658
-0.167854
-0.115226
-0.153445
-0.0927349
-0.139503
-0.0702943
-0.126416
-0.0490811
-0.114571
-0.030364
-0.104092
-0.0151158
-0.0954552
-0.00451108
-0.0886368
-0.0772974
-0.168913
-0.233817
-0.181253
-0.229609
-0.18892
-0.223251
-0.191843
-0.215209
-0.190073
-0.205677
-0.183809
-0.194952
-0.173394
-0.183329
-0.159312
-0.171099
-0.142175
-0.158548
-0.12272
-0.14596
-0.101788
-0.133602
-0.0802882
-0.121808
-0.0592276
-0.110854
-0.0396665
-0.100792
-0.0225429
-0.0921771
-0.00901183
-0.0847142
-0.0722232
-0.16192
-0.211708
-0.174011
-0.208126
-0.181979
-0.202921
-0.185695
-0.196287
-0.185162
-0.188356
-0.18051
-0.179367
-0.171989
-0.169555
-0.159963
-0.159157
-0.144899
-0.148403
-0.127372
-0.137506
-0.108047
-0.126671
-0.0876635
-0.116178
-0.0670628
-0.1062
-0.0471037
-0.0967669
-0.0286506
-0.0884081
-0.012736
-0.080627
-0.0675925
-0.153296
-0.189935
-0.165189
-0.18735
-0.173383
-0.1832
-0.177763
-0.177817
-0.178301
-0.171303
-0.175073
-0.163849
-0.168253
-0.155643
-0.158106
-0.146879
-0.144982
-0.137745
-0.129319
-0.128401
-0.111629
-0.119009
-0.0924975
-0.109795
-0.0726046
-0.100851
-0.0526529
-0.0921856
-0.0333863
-0.0842823
-0.0156924
-0.0764854
-0.0633978
-0.1435
-0.169743
-0.155053
-0.167569
-0.16337
-0.164304
-0.168292
-0.160013
-0.169749
-0.154749
-0.16777
-0.148653
-0.162465
-0.141872
-0.154019
-0.134563
-0.142691
-0.126882
-0.128804
-0.118952
-0.112744
-0.110906
-0.0949635
-0.102924
-0.075995
-0.0950336
-0.0563936
-0.0872326
-0.0367874
-0.0799349
-0.0179257
-0.0723602
-0.0596588
-0.132571
-0.150326
-0.143793
-0.148882
-0.152156
-0.146395
-0.157503
-0.143054
-0.15974
-0.138888
-0.158853
-0.13399
-0.154894
-0.128473
-0.147986
-0.122463
-0.13831
-0.116085
-0.1261
-0.109438
-0.11164
-0.102634
-0.0952696
-0.0958171
-0.0773959
-0.0889687
-0.0584356
-0.0820907
-0.0389171
-0.075495
-0.0194451
-0.0683294
-0.0563684
-0.120982
-0.132819
-0.1317
-0.131534
-0.139983
-0.129649
-0.145631
-0.1271
-0.148513
-0.123878
-0.148571
-0.12003
-0.145812
-0.115633
-0.140295
-0.110784
-0.132139
-0.105579
-0.121506
-0.100095
-0.108597
-0.0944354
-0.0936677
-0.0887051
-0.0770116
-0.082868
-0.0589289
-0.0769369
-0.0398685
-0.0710873
-0.0202728
-0.0644832
-0.0534891
-0.108881
-0.116543
-0.119016
-0.11565
-0.127092
-0.114214
-0.132899
-0.112299
-0.136283
-0.109862
-0.137146
-0.106914
-0.135445
-0.103497
-0.131192
-0.0996808
-0.124443
-0.0955331
-0.115299
-0.0911114
-0.103896
-0.0865035
-0.0904185
-0.0817834
-0.0750695
-0.0769176
-0.0580579
-0.0719279
-0.0397445
-0.0668521
-0.0204649
-0.060892
-0.0509762
-0.0967304
-0.102351
-0.106095
-0.10143
-0.113776
-0.100274
-0.119568
-0.0988064
-0.123281
-0.0969847
-0.124787
-0.0947757
-0.123998
-0.0921943
-0.12088
-0.0892781
-0.115438
-0.0860712
-0.10771
-0.0826166
-0.0977741
-0.0789783
-0.0857566
-0.0752011
-0.0717905
-0.0712594
-0.0560174
-0.0671826
-0.0386934
-0.0629082
-0.0200997
-0.0576254
-0.048792
-0.0848253
-0.0898848
-0.0932941
-0.0889885
-0.100403
-0.0879791
-0.105954
-0.0868076
-0.109785
-0.0854114
-0.111734
-0.0837656
-0.11168
-0.0818586
-0.109548
-0.0796963
-0.105297
-0.0773004
-0.0989155
-0.0747018
-0.0904214
-0.0719472
-0.079881
-0.0690482
-0.0673699
-0.065984
-0.0529732
-0.0627883
-0.0368667
-0.059321
-0.0192664
-0.0547435
-0.0469138
-0.0735481
-0.0793802
-0.0809922
-0.078425
-0.0873593
-0.0774531
-0.0924773
-0.0764392
-0.0961802
-0.075323
-0.0983216
-0.0740689
-0.0987778
-0.0726523
-0.0974432
-0.0710713
-0.0942323
-0.0693383
-0.0890905
-0.0674648
-0.0819946
-0.0654771
-0.072945
-0.0633754
-0.0619544
-0.0611384
-0.049064
-0.0587829
-0.0343828
-0.0561128
-0.0180635
-0.052257
-0.0453432
-0.0630922
-0.0706673
-0.0695334
-0.0696738
-0.0750545
-0.068743
-0.0795552
-0.0678161
-0.0829211
-0.0668529
-0.0850233
-0.0658386
-0.0857264
-0.064762
-0.0849251
-0.0635992
-0.0825347
-0.0623495
-0.0784768
-0.0610271
-0.0726854
-0.0596549
-0.0650949
-0.0582421
-0.0556508
-0.0567654
-0.0443751
-0.0551754
-0.0312954
-0.0532797
-0.0165337
-0.0501228
-0.0440539
-0.0535392
-0.0636839
-0.0589778
-0.0626829
-0.0636727
-0.0617642
-0.0675247
-0.0608949
-0.0704257
-0.0600468
-0.0722822
-0.0591955
-0.0730081
-0.058327
-0.0725059
-0.0574345
-0.0706869
-0.0565143
-0.0674652
-0.0555842
-0.0627702
-0.0546585
-0.0565241
-0.053761
-0.0486345
-0.0528901
-0.0390548
-0.0519586
-0.0277094
-0.0508109
-0.0146979
-0.0483241
-0.0429758
-0.0454151
-0.0583794
-0.0497898
-0.057459
-0.0535315
-0.0565779
-0.0566053
-0.0557293
-0.0589404
-0.0549235
-0.0604458
-0.0541586
-0.0610356
-0.0534192
-0.0606277
-0.0526984
-0.059145
-0.0519916
-0.0565282
-0.0513036
-0.0527098
-0.0506616
-0.0476207
-0.0500962
-0.0411755
-0.049628
-0.0332824
-0.0491818
-0.0238937
-0.048564
-0.012679
-0.046941
-0.0421045
-0.0381623
-0.0543755
-0.0417901
-0.053634
-0.0448023
-0.052899
-0.0471792
-0.0521681
-0.0489011
-0.0514528
-0.0499378
-0.0507638
-0.0502418
-0.050105
-0.0497597
-0.0494776
-0.0484294
-0.0488888
-0.0461954
-0.0483398
-0.0430088
-0.0478545
-0.0388192
-0.0474688
-0.0335754
-0.0472083
-0.0272057
-0.0470223
-0.0196746
-0.0466858
-0.0104708
-0.0458456
-0.0413813
-0.0316336
-0.051627
-0.0345701
-0.0511098
-0.0369749
-0.0505533
-0.038823
-0.0499829
-0.0400921
-0.0494079
-0.040759
-0.0488409
-0.0407968
-0.0482909
-0.0401768
-0.047762
-0.0388743
-0.0472594
-0.0368579
-0.0467929
-0.0341037
-0.0463813
-0.0305905
-0.04606
-0.0262997
-0.045855
-0.0211903
-0.0457407
-0.0151913
-0.0455256
-0.00819056
-0.0449007
-0.0408252
-0.0253322
-0.0501885
-0.0276263
-0.0498079
-0.0294969
-0.0494298
-0.0309055
-0.0490392
-0.0318255
-0.0486337
-0.0322355
-0.0482209
-0.0321155
-0.0478092
-0.031446
-0.0474026
-0.0302108
-0.0470044
-0.0283984
-0.0466206
-0.0260045
-0.0462641
-0.0230407
-0.0459561
-0.0195276
-0.0457153
-0.0154772
-0.0455264
-0.0109123
-0.0451894
-0.00594811
-0.0443049
-0.0405346
-0.019227
-0.0500093
-0.0207895
-0.0498043
-0.0220545
-0.0495796
-0.0229975
-0.0493364
-0.0235867
-0.0490794
-0.0237915
-0.0488148
-0.0235875
-0.0485451
-0.0229548
-0.04827
-0.0218794
-0.0479875
-0.0203548
-0.0476964
-0.0183869
-0.0473981
-0.0160009
-0.047095
-0.013249
-0.0467801
-0.0102033
-0.046419
-0.00695081
-0.0457981
-0.0036975
-0.0444004
-0.0405382
-0.0135638
-0.0514224
-0.0142209
-0.0512787
-0.014729
-0.0511541
-0.0150582
-0.0510169
-0.0151903
-0.0508601
-0.0151077
-0.0506888
-0.0147911
-0.0505073
-0.0142201
-0.0503164
-0.0133765
-0.0501117
-0.0122486
-0.0498856
-0.0108366
-0.0496281
-0.00916065
-0.0493216
-0.00727311
-0.0489274
-0.00527669
-0.0483612
-0.00328115
-0.0474027
-0.00154052
-0.0453913
-0.0409488
-0.00756636
-0.054151
-0.00737137
-0.0542045
-0.0070961
-0.0542011
-0.00675773
-0.0541508
-0.00636109
-0.0540588
-0.00590666
-0.0539342
-0.00539295
-0.0537828
-0.00481859
-0.0536052
-0.00418156
-0.0533973
-0.00348062
-0.0531506
-0.0027164
-0.052853
-0.001892
-0.0524843
-0.00103528
-0.0519809
-0.000223973
-0.0512086
0.000430734
-0.0499137
0.000589318
-0.0472071
-0.0417986
-0.00201168
-0.0589105
-0.000645273
-0.0589479
0.000609674
-0.0589592
0.00176815
-0.0589286
0.00282173
-0.0588371
0.00375205
-0.0586835
0.00453968
-0.0584723
0.00516592
-0.0582042
0.00561578
-0.0578784
0.00587896
-0.0574908
0.00594726
-0.0570308
0.00580837
-0.0564737
0.00546327
-0.0557686
0.00488964
-0.0547577
0.00402924
-0.0531507
0.00257839
-0.0498129
-0.0432198
0.0036409
-0.0651074
0.00598325
-0.0653787
0.00820901
-0.0654814
0.0102399
-0.06546
0.0120222
-0.0653197
0.01351
-0.0650667
0.0146593
-0.0647065
0.0154259
-0.0642395
0.0157673
-0.0636658
0.0156466
-0.0629859
0.0150357
-0.0621976
0.0139102
-0.0612792
0.0122747
-0.0602077
0.0101555
-0.0588466
0.00758684
-0.0569123
0.00443898
-0.0531053
-0.0453182
0.00856493
-0.0736828
0.0121867
-0.0738813
0.0154843
-0.0739461
0.0184433
-0.0738745
0.0210056
-0.0736271
0.0231018
-0.0731985
0.0246646
-0.0725956
0.0256273
-0.0718187
0.0259239
-0.0708673
0.0254902
-0.0697432
0.0242687
-0.0684498
0.0222216
-0.066984
0.0193322
-0.0653428
0.0156299
-0.0634346
0.0112322
-0.0610625
0.00621596
-0.0568852
-0.048136
0.013292
-0.0838703
0.0179693
-0.0843235
0.0223258
-0.0844288
0.0262308
-0.084274
0.0295916
-0.0838573
0.0323169
-0.0831736
0.0343163
-0.0822299
0.0355024
-0.0810284
0.0357905
-0.0795701
0.0350996
-0.0778594
0.0333541
-0.0759037
0.0304877
-0.0737077
0.0264544
-0.0712874
0.0212545
-0.0685955
0.0150294
-0.0655747
0.00798758
-0.0609493
-0.0516128
0.0172173
-0.0966877
0.0231853
-0.0970359
0.0286427
-0.0970637
0.0335141
-0.0967673
0.0376882
-0.096108
0.0410528
-0.0950786
0.0435001
-0.0936894
0.0449255
-0.0919443
0.0452286
-0.089847
0.0443147
-0.0874059
0.0420961
-0.0846338
0.0384939
-0.081542
0.0334406
-0.0781559
0.0269047
-0.0744626
0.0189543
-0.0705017
0.0098855
-0.0652236
-0.055525
0.0207985
-0.111365
0.0278937
-0.111948
0.034449
-0.111937
0.0402919
-0.111443
0.0452854
-0.110463
0.0492979
-0.108992
0.0522018
-0.107044
0.0538758
-0.104627
0.0542054
-0.101748
0.0530849
-0.0984232
0.0504183
-0.0946728
0.0461217
-0.0905173
0.0401218
-0.0859905
0.032371
-0.0811023
0.0228682
-0.0759364
0.0118954
-0.0697232
-0.0596224
0.0236004
-0.128881
0.0320126
-0.129328
0.0397137
-0.129171
0.0465634
-0.128408
0.0524022
-0.127012
0.0570794
-0.124987
0.0604508
-0.12235
0.0623791
-0.119113
0.0627368
-0.115292
0.0614091
-0.110912
0.0582955
-0.106003
0.0533127
-0.100602
0.0463933
-0.0947541
0.0374925
-0.0884887
0.0265869
-0.0819076
0.013889
-0.074474
-0.0637333
0.02593
-0.148524
0.0355803
-0.149158
0.0444569
-0.148851
0.0523423
-0.147737
0.059053
-0.14582
0.0644145
-0.143111
0.0682613
-0.139631
0.0704405
-0.135403
0.0708143
-0.130454
0.0692624
-0.124821
0.0656845
-0.118554
0.0600036
-0.111705
0.0521668
-0.104342
0.0421484
-0.0965163
0.0299452
-0.0883494
0.0157136
-0.0794601
-0.0677799
0.0274914
-0.17116
0.0385246
-0.171609
0.0486298
-0.171051
0.0575974
-0.16949
0.0652122
-0.166925
0.0712733
-0.163373
0.0755942
-0.158867
0.0780073
-0.153444
0.0783684
-0.14715
0.0765577
-0.140041
0.0724824
-0.132189
0.0660813
-0.123674
0.0573259
-0.114592
0.0462216
-0.105023
0.0328125
-0.0951227
0.0172476
-0.0846111
-0.0717398
0.0284184
-0.196077
0.0408144
-0.196646
0.0521912
-0.195792
0.0622724
-0.193671
0.0708105
-0.190306
0.0775735
-0.185723
0.0823521
-0.179974
0.0849663
-0.173118
0.0852696
-0.165228
0.0831505
-0.156391
0.0785338
-0.146709
0.0713863
-0.136297
0.0617161
-0.125287
0.0495793
-0.113804
0.0350773
-0.102043
0.0184039
-0.0898114
-0.0756054
0.028508
-0.223996
0.0423647
-0.224301
0.0550516
-0.223041
0.0662741
-0.220227
0.0757418
-0.215877
0.0831917
-0.210042
0.0883941
-0.202796
0.0911598
-0.194234
0.0913456
-0.184465
0.0888565
-0.17362
0.0836481
-0.161842
0.0757291
-0.149294
0.065162
-0.136157
0.0520719
-0.12261
0.036631
-0.108893
0.0191151
-0.0949123
-0.079361
0.0277637
-0.254116
0.0430806
-0.254453
0.0571099
-0.252699
0.0694846
-0.249027
0.0798736
-0.24348
0.0879812
-0.236133
0.0935582
-0.227101
0.0964105
-0.216521
0.0964052
-0.204559
0.0934747
-0.191398
0.0876193
-0.177245
0.0789069
-0.162322
0.0674753
-0.146871
0.0535371
-0.131145
0.0373595
-0.11543
0.0193251
-0.099748
-0.0829717
0.0260562
-0.286994
0.0428815
-0.286959
0.05826
-0.28458
0.071783
-0.279864
0.0830677
-0.272871
0.0917861
-0.263719
0.0976722
-0.252573
0.100532
-0.239632
0.100251
-0.225128
0.0968013
-0.209324
0.0902428
-0.192504
0.080723
-0.174971
0.0684756
-0.157046
0.0538208
-0.139064
0.0371468
-0.121377
0.0189741
-0.104135
-0.086391
0.0233326
-0.321686
0.0416676
-0.321568
0.0584079
-0.318432
0.073065
-0.312453
0.0852074
-0.303731
0.0944735
-0.29244
0.100584
-0.278813
0.103353
-0.263129
0.102697
-0.245711
0.0986416
-0.226917
0.0913238
-0.207135
0.0809902
-0.186771
0.0679931
-0.166244
0.052786
-0.145988
0.035905
-0.126435
0.0180219
-0.107873
-0.0895494
0.0195349
-0.358556
0.0393839
-0.357956
0.0574695
-0.353909
0.0732365
-0.346431
0.0861905
-0.335665
0.0959334
-0.321863
0.102174
-0.305348
0.104743
-0.286502
0.103599
-0.265766
0.0988408
-0.243623
0.0907019
-0.220587
0.0795504
-0.19719
0.0658807
-0.173976
0.0503044
-0.151492
0.0335297
-0.130271
0.016405
-0.110744
-0.0923902
0.0146027
-0.39651
0.0359543
-0.395721
0.0553717
-0.390601
0.0722084
-0.381357
0.0859126
-0.368203
0.0960478
-0.351482
0.102314
-0.331633
0.104565
-0.309174
0.102816
-0.284693
0.0972536
-0.258827
0.0882293
-0.232248
0.0762587
-0.205646
0.0620075
-0.179714
0.0462728
-0.155131
0.0299586
-0.132545
0.0141084
-0.112539
-0.0948376
0.00858279
-0.435696
0.0313872
-0.434359
0.0520867
-0.428005
0.0699356
-0.416717
0.0843085
-0.400798
0.0947289
-0.380716
0.100892
-0.357054
0.102683
-0.330498
0.10019
-0.301822
0.0937074
-0.271855
0.0837304
-0.241462
0.0709462
-0.211521
0.0562192
-0.182905
0.0405648
-0.156453
0.0251158
-0.132941
0.0111062
-0.113073
-0.0968282
0.00147368
-0.47494
0.0257006
-0.473334
0.0476417
-0.465577
0.0664406
-0.451945
0.0813948
-0.43286
0.0919835
-0.408937
0.0978989
-0.380942
0.0990702
-0.349774
0.0956742
-0.316433
0.0881367
-0.281985
0.0771257
-0.247531
0.0635367
-0.214177
0.0484642
-0.183002
0.033162
-0.155021
0.0189987
-0.131147
0.00740671
-0.112176
-0.0983015
-0.00659051
-0.514169
0.0189826
-0.512022
0.0421041
-0.502714
0.0617908
-0.486444
0.0772421
-0.46377
0.0878864
-0.435495
0.0934147
-0.402614
0.093808
-0.366285
0.0893499
-0.32779
0.0806256
-0.288486
0.0685079
-0.249757
0.0541353
-0.212982
0.0388689
-0.179479
0.024226
-0.150443
0.0117948
-0.126894
0.00313101
-0.109634
-0.0991141
-0.28528
0.147753
0.289438
-0.280358
0.149267
-0.274156
0.14891
-0.267039
0.146268
-0.25867
0.141593
-0.249312
0.134665
-0.238772
0.125743
-0.227225
0.114807
-0.214587
0.10212
-0.200961
0.0878119
-0.186321
0.0721567
-0.170719
0.055388
-0.154159
0.0377841
-0.136661
0.0196374
-0.118236
0.00121991
-0.0988825
-0.0171605
-0.0786204
-0.0352397
-0.0574288
-0.0527459
-0.0353265
-0.0694343
-0.0122937
-0.085078
0.011646
-0.0994727
0.0364979
-0.11244
0.062219
-0.123827
0.0887748
-0.133513
0.116103
-0.141404
0.144118
-0.147438
0.172715
-0.151583
0.201749
-0.153844
0.231064
-0.154255
0.260448
-0.152881
0.289698
-0.149824
0.318537
-0.145208
0.346732
-0.139192
0.373946
-0.131951
0.399951
-0.123689
0.42436
-0.114615
0.447004
-0.104959
0.467455
-0.0949458
0.485675
-0.0847995
0.501189
-0.0747363
-0.0649591
-0.28556
0.135319
0.289286
-0.280838
0.137841
-0.274933
0.138324
-0.26795
0.136625
-0.259779
0.132758
-0.250499
0.126675
-0.240069
0.118496
-0.228548
0.108289
-0.215937
0.096248
-0.202278
0.0825363
-0.187591
0.0674022
-0.171904
0.0510806
-0.155246
0.0338521
-0.137629
0.0159902
-0.119077
-0.00221788
-0.0995918
-0.0204905
-0.0791787
-0.0385549
-0.0578366
-0.0561485
-0.0355656
-0.0730263
-0.0123676
-0.0889629
0.0117502
-0.103754
0.0367721
-0.11722
0.0626712
-0.129207
0.0894022
-0.139589
0.116901
-0.148266
0.145081
-0.15517
0.173828
-0.160262
0.203
-0.163534
0.232424
-0.165009
0.261898
-0.164741
0.291189
-0.162815
0.320042
-0.159342
0.348175
-0.154465
0.375293
-0.148345
0.401088
-0.14117
0.425256
-0.133135
0.447497
-0.124457
0.467526
-0.115348
0.485094
-0.106028
0.49998
-0.0967
-0.0875714
-0.282802
0.118939
0.285961
-0.278557
0.12271
-0.273136
0.124361
-0.266537
0.12381
-0.258721
0.121016
-0.249723
0.115985
-0.239538
0.108779
-0.22821
0.0995054
-0.215751
0.0883167
-0.202208
0.0753995
-0.187604
0.0609778
-0.171978
0.0452962
-0.155355
0.0286203
-0.137759
0.0112236
-0.119206
-0.00661454
-0.0997089
-0.0246175
-0.079273
-0.042516
-0.0579019
-0.0600519
-0.0355981
-0.0769828
-0.0123667
-0.0930842