/*--------------------------------*- C++ -*----------------------------------*\
  =========                 |
  \\      /  F ield         | OpenFOAM: The Open Source CFD Toolbox
   \\    /   O peration     | Website:  https://openfoam.org
    \\  /    A nd           | Version:  6
     \\/     M anipulation  |
\*---------------------------------------------------------------------------*/
FoamFile
{
    version     2.0;
    format      ascii;
    class       volScalarField;
    location    "3.8";
    object      k;
}
// * * * * * * * * * * * * * * * * * * * * * * * * * * * * * * * * * * * * * //

dimensions      [0 2 -2 0 0 0 0];

internalField   nonuniform List<scalar> 
4214
(
0.0710323
0.0358656
0.0232554
0.018606
0.0170884
0.017103
0.0182606
0.0207368
0.0250587
0.0320306
0.0426951
0.0583055
0.080344
0.110702
0.152154
0.2087
0.28389
0.375566
0.471193
0.551892
0.606809
0.637217
0.657667
0.69962
0.804983
1.01824
1.32815
1.42126
1.20967
0.828158
0.463286
0.221182
0.098019
0.0457812
0.026044
0.0191719
0.017383
0.0184245
0.0231238
0.0363857
0.0737246
0.0225732
0.0181859
0.0165691
0.0161493
0.0164643
0.0175264
0.019641
0.023363
0.0294873
0.0390304
0.0531859
0.0732441
0.100479
0.136034
0.18088
0.235804
0.300778
0.373059
0.444862
0.505037
0.546272
0.570635
0.591807
0.637096
0.751348
0.987866
1.32246
1.42486
1.21067
0.828825
0.467836
0.228077
0.103974
0.0496282
0.0281061
0.0199751
0.0170094
0.0160979
0.0162083
0.0172747
0.0201657
0.0169325
0.01606
0.015862
0.0161642
0.0170532
0.0188406
0.0220721
0.0275353
0.0362498
0.0494289
0.0683972
0.0944491
0.12863
0.17143
0.222459
0.28022
0.341992
0.403703
0.459915
0.504669
0.534354
0.551287
0.566734
0.607285
0.723311
0.980666
1.32866
1.41943
1.18762
0.800609
0.449504
0.22219
0.104741
0.0518987
0.0299458
0.0211323
0.0176445
0.0163157
0.0159208
0.0160155
0.0165362
0.0159049
0.0157514
0.0159953
0.0167293
0.0182472
0.02108
0.026019
0.0341089
0.0466087
0.0649156
0.0904329
0.124357
0.167362
0.219168
0.278154
0.341185
0.403936
0.461702
0.510136
0.545735
0.566886
0.57575
0.582846
0.616964
0.737748
1.02618
1.37449
1.42854
1.15855
0.758344
0.418501
0.208464
0.101797
0.0528291
0.0314845
0.0223498
0.0184707
0.016846
0.016221
0.0160682
0.01619
0.015675
0.0158797
0.0164927
0.0177912
0.0202967
0.0248161
0.0324425
0.044509
0.0625039
0.0879435
0.122176
0.166081
0.219674
0.281637
0.349051
0.417574
0.482211
0.538541
0.583391
0.614541
0.630799
0.633313
0.631683
0.659089
0.789451
1.1177
1.43897
1.42839
1.10669
0.6939
0.372911
0.18688
0.0950488
0.0521558
0.0325038
0.0234889
0.019375
0.0175122
0.0167078
0.0164016
0.0163294
0.0158031
0.016321
0.0174357
0.0196622
0.0238372
0.0311319
0.0429945
0.0610422
0.0869167
0.12209
0.167592
0.223628
0.289163
0.361594
0.436811
0.509815
0.575821
0.631418
0.67461
0.7037
0.716901
0.714398
0.705135
0.730494
0.892672
1.25383
1.51362
1.41
1.02882
0.610838
0.318729
0.161529
0.0862661
0.0503733
0.0330499
0.0245082
0.0203216
0.018281
0.0173278
0.01691
0.0167298
0.016199
0.0171455
0.0191205
0.0229969
0.0300571
0.0419259
0.0604167
0.0873382
0.124278
0.172335
0.23178
0.301674
0.379592
0.461663
0.543074
0.618859
0.685229
0.739958
0.78166
0.80865
0.818921
0.811616
0.79643
0.832339
1.05717
1.41814
1.57542
1.35697
0.920358
0.513827
0.262046
0.13628
0.077258
0.0481449
0.0332891
0.0254168
0.0212925
0.0191356
0.0180611
0.0175507
0.0172968
0.0168905
0.0186154
0.0222088
0.0290909
0.0411418
0.0604847
0.0891868
0.128973
0.180941
0.245256
0.320852
0.405245
0.4946
0.584346
0.669692
0.746401
0.81194
0.864191
0.902682
0.926089
0.931492
0.918343
0.902136
0.983642
1.27232
1.58148
1.59554
1.2565
0.783613
0.412383
0.210198
0.114946
0.069833
0.0463058
0.0335573
0.0263278
0.022321
0.0200858
0.0189089
0.0183089
0.0179956
0.018078
0.0213755
0.0280877
0.040444
0.0610397
0.0923816
0.136414
0.194171
0.265512
0.348923
0.441488
0.539247
0.637622
0.732184
0.818973
0.894487
0.95552
1.0027
1.03523
1.05132
1.04833
1.02935
1.0323
1.1971
1.50946
1.70234
1.54629
1.10185
0.629053
0.319322
0.169572
0.100043
0.0652304
0.0456164
0.0342861
0.0274617
0.0235115
0.0211828
0.0198962
0.019186
0.0188022
0.020367
0.0268852
0.0395824
0.0617824
0.0967144
0.146766
0.212883
0.294335
0.388724
0.492282
0.60032
0.708358
0.812155
0.907928
0.992828
1.06136
1.11497
1.15265
1.17359
1.17665
1.16275
1.14622
1.21525
1.45597
1.71821
1.73744
1.4136
0.90647
0.481518
0.24838
0.143874
0.092694
0.0643489
0.0469055
0.0360831
0.0292027
0.0250753
0.0225308
0.0210744
0.0202028
0.01972
0.0253026
0.038301
0.0622857
0.101772
0.159973
0.237883
0.333834
0.44391
0.562667
0.684397
0.803837
0.917626
1.02221
1.11343
1.18879
1.24721
1.28662
1.30658
1.30807
1.29378
1.27307
1.29576
1.45977
1.71794
1.83868
1.65045
1.20183
0.703164
0.366794
0.206392
0.13365
0.0936369
0.0685724
0.0515513
0.0400016
0.0322381
0.0273957
0.0243182
0.0225418
0.0214134
0.0207786
0.036556
0.0621368
0.106817
0.175544
0.26963
0.386232
0.518897
0.659464
0.799953
0.934465
1.0591
1.17215
1.2686
1.34853
1.40873
1.44622
1.45984
1.45184
1.42827
1.39934
1.40075
1.51395
1.7433
1.88344
1.78544
1.42524
0.934248
0.528683
0.298926
0.192674
0.138955
0.105057
0.0808256
0.0621901
0.0480185
0.0378442
0.031186
0.0268914
0.0244795
0.0229146
0.022035
0.0620649
0.110883
0.19208
0.307603
0.453206
0.618624
0.791008
0.958769
1.11401
1.25284
1.37302
1.4736
1.55345
1.60996
1.63954
1.64027
1.61524
1.57352
1.52804
1.51181
1.59247
1.77782
1.89193
1.85212
1.58713
1.1541
0.716919
0.422325
0.27637
0.205003
0.162812
0.132527
0.107026
0.0840234
0.0641181
0.0486459
0.0379324
0.0309627
0.0272657
0.0248794
0.0236015
0.116887
0.206014
0.349049
0.533958
0.747131
0.967441
1.17557
1.3611
1.51856
1.64746
1.74758
1.8189
1.86102
1.87256
1.85156
1.80056
1.72921
1.65935
1.6241
1.67625
1.81296
1.88903
1.8755
1.6863
1.33561
0.924981
0.591461
0.396532
0.302219
0.25092
0.215207
0.187143
0.15852
0.127378
0.0965198
0.0703058
0.0509758
0.0380904
0.0317664
0.0276612
0.0257192
0.226309
0.379644
0.624533
0.902666
1.196
1.46915
1.6981
1.88267
2.01734
2.10873
2.15741
2.16826
2.14601
2.09125
2.00534
1.89493
1.78378
1.72791
1.75436
1.84273
1.88263
1.87181
1.73578
1.46414
1.11311
0.783301
0.55506
0.433886
0.376266
0.34273
0.316472
0.287571
0.255367
0.211443
0.161345
0.114586
0.0778072
0.0515735
0.0400072
0.0319657
0.028862
0.433111
0.670709
1.08591
1.46611
1.84384
2.15062
2.36395
2.50732
2.56639
2.57422
2.52978
2.45179
2.34977
2.21635
2.06734
1.90811
1.81697
1.80913
1.85827
1.87769
1.86445
1.76317
1.55492
1.26883
0.970671
0.735594
0.593025
0.528881
0.503564
0.499718
0.487535
0.46627
0.431456
0.371282
0.288754
0.204182
0.135478
0.0777511
0.056897
0.0390746
0.0340771
0.820773
1.09626
1.82917
2.23489
2.71314
2.98109
3.09213
3.13679
3.03587
2.93668
2.76517
2.59509
2.42307
2.2148
2.05182
1.92589
1.86891
1.85961
1.85885
1.83657
1.75923
1.59903
1.38025
1.13102
0.921791
0.774265
0.717796
0.70754
0.734365
0.757963
0.782018
0.773672
0.737631
0.663151
0.534238
0.37305
0.26444
0.12572
0.0945472
0.0506721
0.0437824
0.034072
0.0297665
0.0266298
0.0244092
0.0227634
0.0214669
0.0203596
0.0193795
0.0185141
0.017756
0.0171124
0.0166433
0.0164061
0.0166004
0.0177715
0.0278378
0.184604
0.0322473
0.0284942
0.0259969
0.0242219
0.0228482
0.0217081
0.0207004
0.0197849
0.0189629
0.0182395
0.0176196
0.0171605
0.0169228
0.0171026
0.0182408
0.0283819
0.184738
0.0292858
0.0271747
0.0254592
0.0240875
0.0229433
0.0219496
0.0210571
0.0202289
0.0194605
0.018769
0.0181711
0.0177088
0.0174696
0.0176473
0.01878
0.0290482
0.185856
0.0285635
0.0266604
0.0252254
0.0240802
0.0231004
0.0222255
0.0214248
0.0206704
0.0199564
0.0192961
0.0187132
0.0182597
0.0180217
0.0182086
0.0193702
0.0298935
0.188419
0.0273208
0.0261071
0.0250422
0.0241149
0.0232787
0.0225074
0.0217848
0.0210965
0.0204337
0.0198081
0.0192461
0.0188038
0.0185754
0.0187887
0.0200217
0.0309073
0.19224
0.0270514
0.025945
0.0250218
0.0242205
0.0234879
0.0227974
0.022138
0.0215027
0.0208854
0.0202948
0.0197582
0.0193354
0.0191283
0.0193856
0.0207504
0.0321595
0.197118
0.0265536
0.0257656
0.0250315
0.0243528
0.0237098
0.023088
0.0224828
0.0218914
0.0213135
0.0207581
0.0202524
0.0198579
0.0196881
0.0200139
0.0215801
0.0336806
0.202876
0.0265012
0.0257833
0.025131
0.0245264
0.0239476
0.0233812
0.0228219
0.0222687
0.0217259
0.021206
0.0207371
0.0203818
0.0202678
0.0206947
0.022546
0.0355124
0.209311
0.0263775
0.0258059
0.025252
0.0247176
0.0241946
0.0236756
0.0231568
0.0226393
0.022131
0.0216484
0.0212228
0.0209199
0.0208839
0.0214572
0.0236946
0.0377295
0.21621
0.0264365
0.0259206
0.0254203
0.0249339
0.0244534
0.023973
0.0234901
0.0230077
0.0225364
0.0220958
0.0217218
0.0214877
0.0215586
0.0223328
0.0250713
0.0404629
0.223384
0.0265129
0.026059
0.0256102
0.0251662
0.0247225
0.0242757
0.0238261
0.02338
0.0229507
0.0225604
0.0222501
0.0221058
0.0223202
0.0233632
0.0267184
0.0437663
0.230708
0.0266337
0.0262322
0.0258247
0.025416
0.0250037
0.0245874
0.0241712
0.0237649
0.0233846
0.0230557
0.0228265
0.0227999
0.0232045
0.0245983
0.0286944
0.047549
0.238253
0.0268275
0.0264454
0.0260654
0.0256847
0.0253001
0.024914
0.0245343
0.0241741
0.0238522
0.0235989
0.0234736
0.0236004
0.0242542
0.0260926
0.0310605
0.0518682
0.246058
0.0269896
0.0266625
0.0263199
0.0259697
0.0256145
0.0252624
0.0249259
0.0246212
0.0243705
0.0242118
0.0242194
0.0245443
0.025517
0.027899
0.0338662
0.0567597
0.254046
0.0272637
0.0269338
0.0266072
0.0262801
0.0259549
0.0256426
0.0253588
0.0251221
0.0249599
0.0249207
0.0250973
0.025675
0.027046
0.030075
0.0371615
0.0622517
0.26222
0.0274623
0.0271935
0.0269054
0.0266125
0.0263266
0.026065
0.0258468
0.0256945
0.0256432
0.0257542
0.0261443
0.0270383
0.0288923
0.0326673
0.040976
0.0683141
0.27038
0.0278013
0.0275181
0.0272444
0.0269819
0.026742
0.0265426
0.0264053
0.0263577
0.0264441
0.0267428
0.0273988
0.0286777
0.0311002
0.0357069
0.0453137
0.0748007
0.278273
0.0280397
0.0278261
0.0275995
0.0273863
0.0272075
0.0270863
0.0270487
0.0271295
0.0273857
0.027916
0.0288949
0.0306298
0.0337001
0.0392041
0.0501271
0.0816502
0.285786
0.0284352
0.0282058
0.0280052
0.0278422
0.0277346
0.0277069
0.0277893
0.0280256
0.0284882
0.0292977
0.030659
0.0329189
0.0367032
0.0431438
0.0553449
0.0889087
0.292839
0.0287207
0.0285735
0.0284371
0.0283455
0.0283263
0.0284103
0.0286351
0.0290566
0.0297645
0.0309023
0.0327045
0.0355508
0.0400979
0.0474851
0.0609072
0.0964993
0.299345
0.0291667
0.0290137
0.028924
0.0289068
0.0289872
0.0291991
0.0295886
0.0302256
0.0312179
0.0327324
0.0350291
0.0385123
0.0438484
0.0521615
0.0667212
0.104259
0.304776
0.0295072
0.0294496
0.029442
0.0295181
0.0297128
0.0300691
0.030645
0.0315264
0.03284
0.0347738
0.0376085
0.0417621
0.0478919
0.0570827
0.0726595
0.111997
0.309119
0.0299954
0.0299485
0.0300087
0.03018
0.030497
0.0310104
0.0317915
0.0329425
0.0346081
0.0369942
0.0403952
0.0452305
0.0521246
0.0621162
0.0785416
0.119298
0.311562
0.0303902
0.0304465
0.0306017
0.0308791
0.0313265
0.0320073
0.0330076
0.034446
0.036483
0.039338
0.0433105
0.0488079
0.0564059
0.0670905
0.0841175
0.125754
0.312674
0.0309031
0.0309896
0.0312261
0.0316074
0.0321873
0.0330399
0.0342657
0.0359982
0.0384106
0.0417301
0.0462538
0.0523667
0.0605913
0.0718558
0.0893131
0.131164
0.31347
0.0313383
0.0315305
0.0318635
0.0323514
0.0330633
0.0340862
0.0355353
0.0375569
0.0403338
0.0440968
0.0491352
0.0558068
0.0645839
0.0763424
0.0941734
0.136082
0.314077
0.0318558
0.0320968
0.0325141
0.0331023
0.0339409
0.0351275
0.0367893
0.0390838
0.042201
0.0463716
0.0518744
0.0590416
0.0683067
0.080508
0.098708
0.140558
0.315292
0.0323168
0.0326622
0.033168
0.0338528
0.0348102
0.0361479
0.0380044
0.0405456
0.0439663
0.0484955
0.0544023
0.0619998
0.0716995
0.0843253
0.102919
0.144627
0.317194
0.0328298
0.0332419
0.0338257
0.0345996
0.0356653
0.0371374
0.0391628
0.0419145
0.0455901
0.0504163
0.0566554
0.0646123
0.0746986
0.0877546
0.106796
0.148292
0.319516
0.0333162
0.0338249
0.034486
0.0353434
0.0365051
0.0380908
0.0402536
0.0431707
0.0470412
0.0520894
0.0585757
0.0668104
0.0772315
0.0907328
0.110316
0.151602
0.321766
0.0338388
0.0344213
0.0351539
0.0360891
0.0373345
0.0390114
0.0412755
0.0443059
0.0483011
0.0534837
0.0601171
0.0685315
0.07922
0.093174
0.113428
0.154674
0.323254
0.0343767
0.0350301
0.0358362
0.0368469
0.0381656
0.0399124
0.0422415
0.0453301
0.0493745
0.0545954
0.0612631
0.0697405
0.0806022
0.0949845
0.116035
0.157587
0.323209
0.0349528
0.0356612
0.036545
0.0376326
0.0390201
0.0408216
0.0431853
0.0462827
0.0503049
0.0554708
0.0620587
0.0704722
0.0813837
0.0961145
0.118028
0.160293
0.3211
0.0355638
0.036344
0.0372936
0.0384701
0.0399306
0.0417842
0.0441683
0.0472446
0.0511963
0.0562385
0.0626549
0.0708897
0.0817168
0.0966661
0.119371
0.162747
0.316975
0.0362155
0.0370832
0.0381285
0.0393916
0.0409388
0.0428655
0.0452853
0.0483489
0.0522306
0.0571411
0.0633591
0.0713359
0.0819156
0.0967843
0.119935
0.164386
0.312505
0.0369234
0.0378922
0.0390535
0.0404457
0.0421221
0.0441596
0.046666
0.0497775
0.0536534
0.0584879
0.064554
0.0723091
0.0826097
0.0972196
0.120366
0.16537
0.308163
0.0377021
0.0387949
0.0401005
0.041661
0.0435247
0.0457571
0.0484535
0.0517412
0.0557752
0.0607414
0.0668951
0.0746628
0.0848515
0.099165
0.121829
0.166323
0.304153
0.0385661
0.0398141
0.0413054
0.0430909
0.0452242
0.0477695
0.0508166
0.0544911
0.0589509
0.0643831
0.0710319
0.0792838
0.089853
0.10424
0.126302
0.168983
0.300572
0.0395183
0.0409658
0.0426982
0.0447829
0.0472911
0.0503004
0.0539066
0.05824
0.0634702
0.0698051
0.0775085
0.0869642
0.0988112
0.114291
0.136525
0.176564
0.297429
0.0405463
0.0422417
0.0442816
0.0467528
0.0497544
0.0533946
0.057793
0.0630952
0.0694936
0.0772473
0.0867055
0.0983498
0.112874
0.131384
0.156143
0.194576
0.29468
0.0612377
0.0637707
0.0661923
0.0684935
0.0706494
0.0726216
0.074377
0.0758856
0.0771219
0.0780606
0.0786837
0.0789789
0.0789444
0.0785867
0.0779214
0.0769728
0.075771
0.074351
0.0727509
0.0710007
0.0689031
0.0666922
0.0647929
0.0629281
0.0611162
0.0593665
0.0576891
0.0560904
0.0545735
0.0531417
0.0517907
0.050519
0.0493185
0.0481876
0.047121
0.0461166
0.0451661
0.0442607
0.0433829
0.042511
0.0416198
0.0658941
0.0686605
0.0713028
0.0738051
0.0761351
0.0782487
0.0801073
0.0816773
0.0829331
0.0838485
0.0844072
0.0846003
0.0844312
0.0839117
0.0830643
0.0819183
0.0805104
0.078879
0.0770678
0.075112
0.0728247
0.0704413
0.068358
0.0663205
0.064346
0.0624457
0.0606296
0.0589036
0.057273
0.0557374
0.0542962
0.0529426
0.0516712
0.0504767
0.0493565
0.0483055
0.0473166
0.0463776
0.0454685
0.0445574
0.043605
0.0709017
0.0739394
0.0768421
0.0795811
0.0821139
0.0843927
0.086373
0.0880176
0.0892996
0.0901946
0.0906877
0.0907744
0.0904629
0.0897719
0.0887298
0.0873729
0.0857432
0.083885
0.0818467
0.0796692
0.0771789
0.0746091
0.0723301
0.0701079
0.0679607
0.0659009
0.0639379
0.0620792
0.0603283
0.0586868
0.0571514
0.0557158
0.0543726
0.0531173
0.0519465
0.0508547
0.049834
0.0488715
0.0479442
0.0470114
0.046013
0.0762883
0.0796374
0.0828467
0.085863
0.0886338
0.0911057
0.0932303
0.0949667
0.096286
0.0971666
0.097596
0.0975742
0.0971149
0.0962437
0.0949955
0.0934138
0.0915472
0.0894458
0.087164
0.0847484
0.0820399
0.0792699
0.0767817
0.0743626
0.0720322
0.0698033
0.0676858
0.0656874
0.0638117
0.06206
0.0604284
0.0589101
0.0574966
0.0561836
0.0549668
0.0538408
0.0527975
0.0518239
0.0508965
0.049968
0.0489539
0.0821088
0.085804
0.0893629
0.092703
0.0957536
0.0984526
0.100748
0.102598
0.10397
0.104845
0.105216
0.105086
0.104476
0.103417
0.101952
0.100133
0.0980138
0.095653
0.0931111
0.0904406
0.0874983
0.0845135
0.0818025
0.079174
0.076649
0.0742414
0.0719613
0.0698165
0.0678109
0.0659457
0.0642163
0.0626154
0.0611341
0.0597676
0.0585112
0.0573599
0.0563055
0.0553362
0.0544305
0.0535397
0.0525581
0.0884551
0.0925186
0.0964571
0.100166
0.103545
0.106513
0.109012
0.110999
0.112444
0.113328
0.113648
0.113413
0.112651
0.111399
0.109709
0.107639
0.105254
0.102619
0.0998006
0.0968587
0.0936666
0.0904524
0.0875043
0.0846537
0.081923
0.0793269
0.0768758
0.0745782
0.0724379
0.070456
0.0686277
0.0669455
0.0653999
0.0639858
0.0626985
0.0615331
0.0604818
0.0595353
0.0586761
0.057861
0.0569751
0.0954358
0.0998918
0.104228
0.108338
0.112095
0.115382
0.118123
0.120278
0.121818
0.122729
0.12301
0.122679
0.121766
0.12032
0.118398
0.116068
0.113405
0.110481
0.107372
0.104143
0.100686
0.0972275
0.0940287
0.0909435
0.0879958
0.0852015
0.0825716
0.0801149
0.0778355
0.0757346
0.0738072
0.0720461
0.0704414
0.0689876
0.0676803
0.0665151
0.065485
0.0645834
0.0637983
0.063097
0.0623728
0.103175
0.10806
0.112817
0.117347
0.121517
0.125176
0.128207
0.130563
0.132226
0.133186
0.133448
0.133031
0.131975
0.130335
0.128179
0.125584
0.122634
0.119411
0.115999
0.112471
0.108734
0.105019
0.101557
0.0982253
0.0950503
0.0920489
0.0892329
0.0866116
0.0841897
0.0819685
0.0799433
0.0781071
0.0764506
0.0749675
0.0736542
0.0725071
0.0715207
0.0706913
0.0700113
0.0694589
0.0689483
0.111843
0.117197
0.122406
0.127372
0.131973
0.136047
0.13942
0.142015
0.143832
0.144869
0.145132
0.144648
0.143462
0.141636
0.13925
0.136391
0.133152
0.129625
0.125903
0.122067
0.11804
0.114058
0.110323
0.106736
0.103326
0.10011
0.0971021
0.0943124
0.0917461
0.0894051
0.0872854
0.0853804
0.0836817
0.0821829
0.0808814
0.0797749
0.0788605
0.0781368
0.0775975
0.0772267
0.0769592
0.1217
0.12755
0.133241
0.138663
0.143697
0.1482
0.151963
0.154837
0.15684
0.157984
0.158277
0.15775
0.156454
0.154461
0.151859
0.148745
0.145224
0.141399
0.137369
0.133224
0.128903
0.124651
0.120638
0.116791
0.11314
0.109706
0.106504
0.103545
0.100836
0.0983784
0.0961705
0.0942062
0.0924788
0.0909818
0.0897143
0.0886764
0.0878688
0.0872903
0.0869325
0.0867785
0.0867734
0.133143
0.139487
0.145669
0.151556
0.157018
0.161933
0.166109
0.169295
0.171513
0.172794
0.173148
0.17261
0.171235
0.169104
0.166314
0.162972
0.159192
0.155087
0.150765
0.146325
0.141718
0.137201
0.132917
0.128813
0.124925
0.121277
0.117884
0.11476
0.111914
0.109349
0.107064
0.105055
0.103317
0.101844
0.100639
0.099704
0.0990441
0.0986548
0.0985219
0.0986257
0.0989163
0.146755
0.153556
0.160197
0.166524
0.172392
0.177674
0.182235
0.185748
0.188196
0.189638
0.190085
0.189573
0.188163
0.185941
0.183011
0.179488
0.175496
0.171155
0.166582
0.161881
0.157018
0.152258
0.147727
0.143387
0.139279
0.135431
0.131863
0.12859
0.125623
0.122967
0.120624
0.118592
0.116869
0.115451
0.114341
0.113551
0.113084
0.112928
0.113064
0.113473
0.11411
0.163391
0.170561
0.177572
0.184256
0.190453
0.196024
0.200878
0.20469
0.207357
0.208965
0.20953
0.209086
0.207698
0.205454
0.202461
0.198841
0.194719
0.190224
0.185477
0.180589
0.175536
0.170585
0.165861
0.161334
0.15705
0.153044
0.149337
0.145948
0.142892
0.140177
0.137809
0.135788
0.134115
0.132789
0.131818
0.13122
0.13099
0.131108
0.131557
0.132316
0.133351
0.184329
0.191694
0.198897
0.205758
0.212118
0.217828
0.222809
0.226817
0.22964
0.231384
0.232074
0.231744
0.230453
0.228283
0.225342
0.22175
0.217635
0.213125
0.208342
0.203403
0.198298
0.193276
0.188467
0.183851
0.179481
0.175396
0.171625
0.16819
0.165111
0.162399
0.160062
0.158104
0.156531
0.155348
0.154565
0.154204
0.154247
0.154674
0.155467
0.156605
0.158062
0.211534
0.218768
0.225828
0.232533
0.238738
0.244302
0.249135
0.253114
0.255938
0.257734
0.258531
0.258347
0.257236
0.255272
0.252554
0.249191
0.245304
0.241015
0.23644
0.23169
0.226779
0.221915
0.217233
0.212726
0.208451
0.204452
0.200765
0.197418
0.194435
0.191834
0.189627
0.187824
0.186427
0.185446
0.184905
0.184815
0.185147
0.185887
0.187015
0.188506
0.190341
0.248161
0.25464
0.260931
0.266873
0.272347
0.277242
0.281471
0.285
0.287538
0.289207
0.290017
0.289983
0.289147
0.287567
0.285323
0.282502
0.279205
0.27553
0.27158
0.267449
0.263166
0.258889
0.254737
0.250722
0.246901
0.243319
0.240017
0.237028
0.234378
0.232092
0.230187
0.228677
0.22757
0.226871
0.226607
0.22678
0.22736
0.228335
0.22968
0.231366
0.233382
0.299517
0.304017
0.308347
0.312398
0.316101
0.319395
0.322225
0.324584
0.326324
0.327496
0.328109
0.328173
0.32771
0.326757
0.325358
0.323566
0.321441
0.319044
0.316438
0.313685
0.310818
0.307922
0.305079
0.30231
0.299659
0.297164
0.294861
0.292779
0.290944
0.28938
0.288104
0.287129
0.286467
0.286121
0.286108
0.286421
0.287042
0.287955
0.289136
0.290556
0.292211
0.17666
0.0346091
0.019136
0.0165605
0.0157935
0.0156217
0.015774
0.0161322
0.0166308
0.0173527
0.0187768
0.0225842
0.0333864
0.060462
0.115678
0.203698
0.310272
0.179268
0.0353062
0.0191761
0.0167105
0.0159761
0.0158205
0.0159778
0.0163195
0.0167734
0.0173844
0.0184417
0.0209896
0.0280849
0.0467942
0.0891229
0.167176
0.280084
0.182135
0.0348365
0.0191719
0.0168787
0.016182
0.0160439
0.0162043
0.0165252
0.0169382
0.0174466
0.0181663
0.0195209
0.0228151
0.0315705
0.0538589
0.105002
0.208484
0.185698
0.0343519
0.0192467
0.0170827
0.0164173
0.0162939
0.0164504
0.0167508
0.0171273
0.0175603
0.018071
0.018727
0.0196533
0.0210634
0.0233338
0.0270427
0.032912
0.189748
0.0338788
0.0194102
0.0173356
0.0166911
0.0165763
0.0167238
0.0170031
0.0173471
0.0177304
0.0181582
0.0186647
0.0193156
0.0202036
0.0214396
0.0231374
0.0252862
0.194154
0.0336385
0.0196989
0.0176513
0.0170125
0.0168949
0.017029
0.017286
0.0175996
0.017941
0.0183054
0.0187057
0.0191767
0.0197866
0.0206515
0.0219706
0.0240734
0.19885
0.0338023
0.0201424
0.018047
0.0173872
0.017255
0.0173707
0.0176045
0.0178908
0.0181988
0.0185182
0.0188492
0.0191957
0.0195674
0.0199811
0.0204565
0.0210322
0.203812
0.0345048
0.0207781
0.0185351
0.0178212
0.0176618
0.0177529
0.0179616
0.0182229
0.0185051
0.0187956
0.0190931
0.0194005
0.0197205
0.020057
0.0204147
0.0207976
0.209027
0.035889
0.0216284
0.0191277
0.0183247
0.0181214
0.0181801
0.0183605
0.0185966
0.018856
0.0191234
0.019395
0.0196739
0.019965
0.0202724
0.0205964
0.0209259
0.214629
0.0380155
0.0227078
0.0198485
0.0189109
0.0186417
0.0186578
0.0188055
0.0190151
0.0192527
0.0195007
0.0197517
0.0200057
0.0202681
0.0205482
0.02086
0.0212241
0.220954
0.040701
0.0240687
0.0207294
0.0195982
0.0192339
0.0191935
0.0193017
0.0194821
0.0196974
0.0199283
0.020164
0.0204
0.0206356
0.0208731
0.0211186
0.0213909
0.228034
0.0440067
0.0257724
0.0218128
0.020413
0.0199145
0.0197975
0.0198558
0.020001
0.0201911
0.0204041
0.0206275
0.0208548
0.0210825
0.0213072
0.0215185
0.0216868
0.235749
0.0479627
0.0278884
0.0231521
0.0213915
0.0207072
0.0204856
0.0204782
0.0205787
0.0207367
0.0209264
0.0211329
0.0213481
0.0215702
0.0218045
0.0220641
0.022368
0.243869
0.0525898
0.0304833
0.0248097
0.0225802
0.0216441
0.0212792
0.0211843
0.0212262
0.0213431
0.0215026
0.0216857
0.0218794
0.0220747
0.0222675
0.0224633
0.0226874
0.252206
0.0579063
0.0336198
0.0268539
0.0240351
0.0227661
0.022207
0.0219934
0.0219577
0.0220205
0.0221415
0.0222981
0.0224744
0.022657
0.0228322
0.0229813
0.0230682
0.260579
0.0638763
0.0373418
0.0293517
0.0258189
0.0241227
0.0233053
0.022931
0.0227906
0.0227802
0.022848
0.0229654
0.0231152
0.0232856
0.0234704
0.0236724
0.0239037
0.268771
0.0704176
0.0416621
0.032359
0.0279948
0.0257692
0.0246176
0.0240297
0.0237487
0.0236413
0.0236372
0.0236989
0.023803
0.0239315
0.0240698
0.0242123
0.0243821
0.276535
0.0773802
0.0465444
0.0359045
0.0306157
0.0277602
0.0261903
0.0253263
0.0248602
0.0246248
0.0245285
0.0245203
0.0245712
0.0246592
0.0247601
0.0248403
0.0248464
0.2837
0.084573
0.0519091
0.0399839
0.0337153
0.0301417
0.0280686
0.0268585
0.0261544
0.0257524
0.0255353
0.0254361
0.0254172
0.0254567
0.0255387
0.0256494
0.025781
0.290125
0.0917954
0.0576365
0.0445502
0.0372981
0.0329428
0.030289
0.0286615
0.0276614
0.0270481
0.0266768
0.0264601
0.0263459
0.0263042
0.0263136
0.0263574
0.0264491
0.29573
0.0988974
0.0635915
0.0495225
0.0413335
0.0361664
0.0328709
0.0307605
0.0294058
0.0285339
0.0279724
0.0276122
0.0273851
0.0272507
0.0271796
0.0271288
0.0270259
0.300631
0.105835
0.0696398
0.0547914
0.0457574
0.0397864
0.0358119
0.0331653
0.0314019
0.0302238
0.0294335
0.0289
0.028538
0.0282986
0.0281554
0.0280833
0.0280616
0.304919
0.112569
0.0756554
0.0602255
0.0504703
0.0437404
0.0390792
0.0358624
0.0336478
0.0321218
0.031066
0.0303286
0.029806
0.0294343
0.0291767
0.0290061
0.0289531
0.308716
0.119097
0.0815499
0.0657015
0.0553578
0.0479414
0.0426143
0.0388166
0.0361245
0.0342196
0.0328682
0.0319014
0.0311989
0.03068
0.0302932
0.0299859
0.0296933
0.312142
0.125415
0.08727
0.0711147
0.0603018
0.0522857
0.0463375
0.0419719
0.0387957
0.036495
0.0348279
0.0336124
0.0327128
0.0320363
0.0315279
0.0311431
0.0308703
0.315316
0.131517
0.0928061
0.0763918
0.0651966
0.0566656
0.0501567
0.0452567
0.0416095
0.038913
0.0369231
0.0354475
0.0343377
0.033489
0.0328334
0.0323258
0.0320171
0.318353
0.137312
0.0981611
0.0814807
0.0699477
0.0609739
0.0539724
0.0485889
0.0445036
0.0414298
0.0391245
0.0373889
0.0360667
0.0350407
0.0342267
0.0335487
0.0329615
0.321437
0.142691
0.103349
0.0863389
0.074464
0.0651004
0.0576783
0.0518786
0.0474084
0.0439951
0.0413985
0.0394176
0.0378897
0.0366871
0.0357243
0.0349329
0.034309
0.324489
0.147623
0.10838
0.090934
0.0786722
0.0689555
0.0611864
0.0550496
0.0502641
0.0465655
0.0437173
0.0415171
0.0397965
0.0384248
0.0373119
0.0363913
0.0357412
0.327212
0.152215
0.113259
0.0952235
0.0825106
0.0724719
0.0644345
0.058051
0.0530329
0.0491169
0.0460677
0.0436817
0.0417898
0.0402611
0.0389941
0.0379004
0.0369517
0.329017
0.156724
0.117937
0.0991248
0.0859122
0.0756014
0.0673905
0.0608643
0.0557078
0.0516512
0.0484578
0.045925
0.0438863
0.042209
0.0407923
0.0395647
0.0385097
0.329262
0.16142
0.122284
0.102521
0.0888226
0.0783345
0.070072
0.0635209
0.0583265
0.0542072
0.0509251
0.0482815
0.0461141
0.0442957
0.0427336
0.0413593
0.0402606
0.327508
0.166325
0.126088
0.105313
0.0912477
0.0807395
0.0725746
0.0661236
0.0609869
0.0568723
0.0535444
0.0508125
0.0485239
0.046562
0.0448371
0.0432729
0.0418614
0.323955
0.170911
0.129198
0.107542
0.0933493
0.083028
0.0751146
0.0688711
0.063861
0.059789
0.0564301
0.0536079
0.0511856
0.0490566
0.0471408
0.0453858
0.0437678
0.320087
0.174034
0.131287
0.109471
0.0955737
0.0856203
0.0780651
0.0720755
0.0672002
0.0631539
0.0597322
0.0567805
0.054178
0.0518351
0.0496907
0.0477019
0.0459095
0.316236
0.176
0.133098
0.111707
0.0984636
0.0891422
0.0819561
0.0761476
0.0713172
0.0672009
0.0636231
0.06045
0.0575826
0.054952
0.0525105
0.0502088
0.0480305
0.312553
0.17771
0.135994
0.115664
0.10316
0.0942646
0.0873208
0.0815493
0.076546
0.0721689
0.0682646
0.0647236
0.0614701
0.0584506
0.0556205
0.0529367
0.0503726
0.309082
0.181131
0.142092
0.123024
0.110919
0.101967
0.0947418
0.0885894
0.0831699
0.0782502
0.0737789
0.0696787
0.0658869
0.0623547
0.0590329
0.0558839
0.0528789
0.3058
0.189601
0.15419
0.135633
0.122903
0.112982
0.104729
0.09759
0.0912501
0.0855121
0.0802228
0.0753387
0.0708412
0.0666635
0.0627434
0.0590389
0.0555159
0.302651
0.208632
0.175805
0.155396
0.140097
0.127791
0.1175
0.108646
0.10085
0.093854
0.0874934
0.0816576
0.0762843
0.0713378
0.0667272
0.0623975
0.0583265
1.55439
3.05439
3.77354
3.62406
3.11311
2.5546
2.11395
1.90885
1.79359
1.66225
1.40268
1.08006
0.915952
0.956848
1.11709
1.24846
1.08095
0.614721
0.195382
0.0662258
2.15075
3.95164
4.40841
3.78899
2.94516
2.29752
1.98514
1.84261
1.7329
1.58809
1.37627
1.17413
1.1168
1.28643
1.62708
1.88967
1.64634
0.950165
0.295939
0.0870675
2.85568
4.86094
4.83471
3.6561
2.61709
2.0892
1.86048
1.76377
1.67867
1.55387
1.40504
1.29814
1.35885
1.67389
2.18721
2.55862
2.34061
1.42951
0.448161
0.11736
3.62662
5.71894
5.02873
3.35161
2.38034
1.94008
1.7843
1.72068
1.65155
1.5567
1.46597
1.4493
1.62217
2.06199
2.68395
3.13013
3.06252
2.05754
0.67161
0.161085
4.39737
6.46056
5.03031
3.14629
2.21027
1.8382
1.72965
1.69252
1.64484
1.58373
1.54696
1.60695
1.8663
2.39152
3.06798
3.58445
3.76074
2.80954
0.993405
0.224641
5.08965
7.09044
5.10164
3.06506
2.12303
1.78265
1.69521
1.67478
1.64907
1.62115
1.62987
1.7477
2.06636
2.6364
3.31594
3.95451
4.39757
3.63967
1.44709
0.316114
5.62985
7.66038
5.43957
3.14617
2.12281
1.7652
1.6745
1.66114
1.65462
1.6535
1.69621
1.84893
2.20196
2.80523
3.46731
4.23679
4.93488
4.45913
2.03796
0.447601
5.95669
8.23078
6.1601
3.49146
2.23309
1.79054
1.66597
1.64631
1.65073
1.66591
1.72028
1.8791
2.2565
2.85438
3.54815
4.4368
5.33999
5.18993
2.77609
0.637303
6.01537
8.73532
7.2252
4.32417
2.54575
1.88719
1.68323
1.6372
1.64317
1.66426
1.7164
1.89836
2.30793
2.85155
3.57253
4.54102
5.58817
5.75517
3.60325
0.914877
5.72585
8.97721
8.44297
5.74569
3.36467
2.23942
1.80286
1.67373
1.65736
1.68619
1.7665
1.97238
2.30623
2.82975
3.59102
4.61608
5.71499
6.13761
4.43511
1.29599
5.04488
8.77733
9.45663
7.59642
5.12298
3.29983
2.33009
1.92526
1.79715
1.80309
1.88821
2.06251
2.3732
2.89369
3.66757
4.6903
5.78126
6.34364
5.18816
1.8203
4.05573
7.96396
9.82157
9.25398
7.38487
5.30361
3.75097
2.81513
2.35146
2.18386
2.18239
2.30189
2.59295
3.1007
3.83977
4.79098
5.7893
6.39134
5.7303
2.48962
2.93366
6.51949
9.17945
9.85644
9.00098
7.4362
5.7921
4.49947
3.62927
3.12204
2.89021
2.87337
3.07311
3.48562
4.11933
4.92077
5.74791
6.29359
6.02374
3.27867
1.91801
4.71109
7.52296
9.01893
9.11965
8.3282
7.16585
6.01644
5.07905
4.40704
3.9766
3.78395
3.81407
4.05487
4.48767
5.05661
5.64217
6.05857
6.0441
4.11747
1.23962
3.1368
5.49902
7.21731
7.91976
7.8266
7.28903
6.55915
5.85642
5.27362
4.87798
4.65242
4.57103
4.63418
4.83899
5.132
5.45254
5.69178
5.69157
4.8305
0.975875
2.24169
3.95137
5.42081
6.26462
6.56292
6.50204
6.2546
5.9392
5.63804
5.40805
5.23946
5.11775
5.04869
5.03438
5.07002
5.14484
5.2307
5.24908
4.99042
1.08882
2.01854
3.17371
4.19969
4.9134
5.35033
5.57462
5.66842
5.67155
5.61657
5.53129
5.42015
5.2861
5.13953
4.99068
4.84051
4.72479
4.68224
4.70925
4.71111
1.55252
2.21724
2.93748
3.58052
4.15044
4.62161
4.9702
5.19643
5.32007
5.37234
5.3549
5.25876
5.10127
4.89579
4.65864
4.41152
4.19123
4.0546
4.07192
4.2256
2.0516
2.26926
2.70794
3.23279
3.73967
4.1572
4.45191
4.64407
4.74829
4.78192
4.7361
4.61474
4.43632
4.21573
3.96442
3.70916
3.47633
3.32405
3.31661
3.57971
1.0978
1.2093
1.49031
1.82781
2.1019
2.3016
2.43354
2.51154
2.54509
2.54184
2.49802
2.42197
2.32292
2.21013
2.09457
1.98477
1.89042
1.82657
1.8213
1.9608
1.80864
3.52765
4.16068
4.48544
4.09734
2.82816
1.82533
1.17078
0.764902
0.510029
0.353071
0.253226
0.186347
0.140036
0.107387
0.0839307
0.0668755
0.0544455
0.0453961
0.0388817