/*--------------------------------*- C++ -*----------------------------------*\
  =========                 |
  \\      /  F ield         | OpenFOAM: The Open Source CFD Toolbox
   \\    /   O peration     | Website:  https://openfoam.org
    \\  /    A nd           | Version:  6
     \\/     M anipulation  |
\*---------------------------------------------------------------------------*/
FoamFile
{
    version     2.0;
    format      ascii;
    class       volScalarField;
    location    "4.61";
    object      epsilon;
}
// * * * * * * * * * * * * * * * * * * * * * * * * * * * * * * * * * * * * * //

dimensions      [0 2 -3 0 0 0 0];

internalField   nonuniform List<scalar> 
4214
(
0.0219413
0.0105613
0.00536299
0.00306734
0.00226483
0.0023064
0.00298267
0.00438071
0.00679077
0.0106038
0.0161729
0.0234723
0.0321357
0.0407651
0.0475227
0.0514957
0.0525932
0.0526246
0.0556034
0.0664375
0.0878923
0.118847
0.15355
0.18406
0.202176
0.207333
0.20226
0.205691
0.248545
0.317321
0.356938
0.331058
0.255776
0.167804
0.0942485
0.0444169
0.0180905
0.00747618
0.00513719
0.00764876
0.0160479
0.00986429
0.00519977
0.00307331
0.00229935
0.00237883
0.00317761
0.00486923
0.00788911
0.0128649
0.0204277
0.0309072
0.0436726
0.0574356
0.0693568
0.0769311
0.0794664
0.0774763
0.0731475
0.0698622
0.0718813
0.0830157
0.103195
0.128421
0.153985
0.173244
0.181626
0.181815
0.187591
0.22048
0.290531
0.354371
0.35771
0.297667
0.209409
0.125744
0.0638932
0.0274807
0.010583
0.00454097
0.0034178
0.00475998
0.0034709
0.00256138
0.00218998
0.0024024
0.00333474
0.0053205
0.00899354
0.0152871
0.0252607
0.0395943
0.0579851
0.0782038
0.0972286
0.110556
0.116003
0.114001
0.10581
0.0945489
0.083809
0.0771129
0.0775816
0.0863461
0.100957
0.118187
0.135277
0.148782
0.158732
0.171145
0.197732
0.256448
0.332378
0.367228
0.333651
0.252745
0.162495
0.0888447
0.0410626
0.0163948
0.0062537
0.0030244
0.00256265
0.00229831
0.00214033
0.0024227
0.00344467
0.00568303
0.00997025
0.0175937
0.0301679
0.0489929
0.0739939
0.103102
0.131251
0.15346
0.164585
0.164395
0.155158
0.138814
0.119823
0.10209
0.0885333
0.0809119
0.0807857
0.0872338
0.0976845
0.110642
0.124384
0.137879
0.153575
0.178836
0.22514
0.302756
0.363292
0.361073
0.296231
0.204346
0.119943
0.0597031
0.0253501
0.00968487
0.00389587
0.00224093
0.00208532
0.00241242
0.00348676
0.00590624
0.0106953
0.0194858
0.0344921
0.057894
0.090193
0.129276
0.169923
0.203388
0.223934
0.227854
0.218215
0.198961
0.172778
0.146955
0.122197
0.101826
0.0877438
0.0807393
0.0804732
0.0853134
0.0940212
0.105678
0.119617
0.136659
0.16137
0.202126
0.266674
0.341947
0.373227
0.334827
0.24918
0.156798
0.0839046
0.0381962
0.015244
0.00584067
0.00265318
0.00240384
0.0034509
0.005947
0.0110751
0.0207702
0.0377238
0.0650233
0.104535
0.154398
0.20978
0.259812
0.292939
0.305894
0.298339
0.276751
0.246556
0.20941
0.173295
0.142359
0.116971
0.0975673
0.0850986
0.0793024
0.0792053
0.0837336
0.0921929
0.104333
0.120679
0.14418
0.180815
0.236509
0.3085
0.367096
0.362494
0.293588
0.198534
0.113927
0.0556599
0.0235683
0.00915859
0.00374651
0.0033693
0.00581725
0.0110133
0.0210422
0.0391823
0.0694337
0.115073
0.175816
0.246207
0.317132
0.368775
0.394035
0.39281
0.37045
0.336574
0.297479
0.251976
0.20635
0.165376
0.132809
0.109026
0.0925257
0.0824893
0.0781651
0.0787551
0.0837467
0.0930076
0.107166
0.128438
0.161163
0.210366
0.276232
0.344362
0.37383
0.332153
0.242865
0.149371
0.0782124
0.0353335
0.0143185
0.00571855
0.00547895
0.0103103
0.019967
0.0379635
0.0690984
0.118222
0.187575
0.27304
0.36394
0.440723
0.484809
0.491322
0.467028
0.42681
0.384088
0.342768
0.298988
0.248268
0.197967
0.155539
0.124558
0.103313
0.0895037
0.0815401
0.0785558
0.0801193
0.0861916
0.0974057
0.11568
0.144482
0.188214
0.248635
0.317148
0.367485
0.358785
0.285683
0.188821
0.10577
0.0510396
0.0218253
0.00887585
0.00910515
0.0176295
0.0340106
0.0633589
0.111829
0.18417
0.280266
0.390364
0.494012
0.564599
0.584496
0.558541
0.5062
0.449185
0.400585
0.362056
0.328003
0.290595
0.241037
0.187671
0.147261
0.119361
0.10146
0.0903124
0.0838004
0.0817858
0.0844549
0.0924199
0.107371
0.132356
0.171378
0.226825
0.293518
0.351809
0.369799
0.321304
0.229317
0.13734
0.0707391
0.0320632
0.0135325
0.0143671
0.0278337
0.052834
0.0959548
0.164102
0.261021
0.381992
0.50881
0.610675
0.657971
0.642065
0.580542
0.50344
0.435248
0.386119
0.353675
0.330024
0.306967
0.276723
0.231416
0.177088
0.140932
0.118437
0.103698
0.0945674
0.0895004
0.0888812
0.0935716
0.105146
0.126538
0.161565
0.212795
0.276706
0.337706
0.368474
0.344843
0.26596
0.17064
0.0936461
0.0450586
0.0198889
0.0205389
0.0393581
0.073284
0.129958
0.216339
0.334127
0.473024
0.605757
0.69433
0.711415
0.660119
0.57022
0.477633
0.404914
0.358363
0.332153
0.317246
0.305882
0.290929
0.265566
0.219765
0.167609
0.139064
0.122129
0.11012
0.102881
0.0996338
0.101545
0.110281
0.128765
0.16077
0.208788
0.26973
0.330038
0.366045
0.35474
0.29276
0.201728
0.117788
0.0601407
0.0278632
0.0258744
0.0489621
0.089706
0.156334
0.25572
0.387742
0.537254
0.669994
0.744383
0.737405
0.661751
0.554419
0.453161
0.378388
0.334304
0.312875
0.3045
0.301556
0.297091
0.285535
0.259992
0.207728
0.164672
0.145019
0.130249
0.120942
0.11624
0.116295
0.123234
0.140074
0.170627
0.216913
0.275114
0.33206
0.366912
0.359688
0.306008
0.223173
0.140094
0.0755374
0.0368825
0.0283542
0.0532042
0.0967072
0.167489
0.272846
0.41235
0.568797
0.704185
0.77466
0.757602
0.670155
0.551935
0.443382
0.364706
0.318865
0.299915
0.295956
0.299735
0.303834
0.302401
0.290416
0.259071
0.202848
0.173701
0.155805
0.143782
0.138234
0.13806
0.144991
0.162456
0.1937
0.239616
0.294615
0.344959
0.37258
0.361421
0.309819
0.231829
0.152966
0.0885058
0.0456109
0.0270942
0.050699
0.0923318
0.160936
0.265138
0.406384
0.569671
0.715284
0.796854
0.784467
0.696356
0.569572
0.450181
0.361985
0.308726
0.288935
0.287079
0.296626
0.309221
0.317976
0.318602
0.303317
0.262746
0.215099
0.18975
0.174257
0.168153
0.169606
0.179243
0.200184
0.234424
0.280019
0.329096
0.367425
0.381142
0.358419
0.303629
0.228106
0.154892
0.0931725
0.0514956
0.0229777
0.0429423
0.0789937
0.139842
0.23637
0.372777
0.542461
0.703753
0.812946
0.817926
0.74157
0.608445
0.473836
0.370974
0.301394
0.276116
0.271814
0.284783
0.305289
0.325139
0.33976
0.340189
0.323167
0.280541
0.243486
0.223226
0.214682
0.217944
0.233399
0.260033
0.296706
0.337693
0.374098
0.392195
0.385415
0.345206
0.285364
0.210988
0.145664
0.0889229
0.051592
0.0179454
0.0330608
0.0619173
0.110844
0.195696
0.317565
0.492759
0.663441
0.817812
0.847039
0.798662
0.668274
0.51417
0.396922
0.298563
0.263709
0.250406
0.261363
0.285481
0.31323
0.344606
0.36161
0.372327
0.358274
0.331718
0.307533
0.296352
0.299883
0.316881
0.344246
0.375712
0.401521
0.41543
0.403363
0.373715
0.313441
0.252968
0.179762
0.126478
0.0756622
0.0461896
0.013914
0.0235464
0.0470849
0.0797473
0.156426
0.245669
0.434289
0.580717
0.805841
0.855088
0.851713
0.752383
0.564669
0.450794
0.302907
0.25825
0.228432
0.231073
0.253547
0.277922
0.322941
0.351673
0.396267
0.411471
0.429699
0.427035
0.422767
0.427536
0.438887
0.452051
0.457576
0.44816
0.429103
0.37821
0.335335
0.256004
0.208794
0.135384
0.101437
0.0547245
0.0370366
0.016496
0.0230114
0.0261415
0.0256048
0.0222931
0.017854
0.0132372
0.00916444
0.00601449
0.00385714
0.0025593
0.00191117
0.00174251
0.00206116
0.00331202
0.0085932
0.0372385
0.00996914
0.0123971
0.0135309
0.0130536
0.0113981
0.00924702
0.00704492
0.00511416
0.00362152
0.00259747
0.00198574
0.00170401
0.00170977
0.00210609
0.00341244
0.00865411
0.0350715
0.0043059
0.00568304
0.00638286
0.00629228
0.00567655
0.00480102
0.00387528
0.00304863
0.00240196
0.00195767
0.00170238
0.00161826
0.00172807
0.00218517
0.00355708
0.00908971
0.0334873
0.00293643
0.00329133
0.00348197
0.00341153
0.00316151
0.00281167
0.00244171
0.00211078
0.00185259
0.00168
0.00159625
0.00161333
0.00178605
0.00229591
0.00374968
0.00960741
0.0329659
0.00232031
0.00235723
0.00235978
0.00229554
0.0021814
0.00203837
0.00189187
0.0017625
0.00166386
0.00160473
0.00159574
0.00166272
0.00187673
0.00243674
0.00398994
0.0103154
0.0334974
0.00221183
0.00212661
0.00205213
0.00197808
0.00190101
0.00182376
0.00175206
0.00169188
0.0016492
0.00163173
0.0016537
0.00174757
0.00199326
0.00260341
0.00427221
0.011184
0.0351243
0.00231957
0.00220663
0.00210618
0.00201546
0.00193357
0.0018611
0.0017995
0.00175101
0.0017196
0.00171298
0.00174711
0.00185773
0.00213016
0.00278922
0.00458199
0.0121656
0.0377355
0.00233995
0.00223756
0.00214718
0.00206732
0.0019964
0.00193402
0.00188114
0.0018401
0.00181555
0.00181636
0.00186012
0.00198496
0.00228095
0.00298547
0.00490163
0.0131444
0.041127
0.00251839
0.00241563
0.00231966
0.00223096
0.00215015
0.0020786
0.00201829
0.00197224
0.00194554
0.00194735
0.00199565
0.00212979
0.00244342
0.00318514
0.00521032
0.0140442
0.0452645
0.0025479
0.00246175
0.00238212
0.00230932
0.00224345
0.00218506
0.00213581
0.0020989
0.00207984
0.00208844
0.00214382
0.00228706
0.0026151
0.00338562
0.00549856
0.0148534
0.0503944
0.00276032
0.00267149
0.00258827
0.00251026
0.00243774
0.00237205
0.0023157
0.00227266
0.00224931
0.00225629
0.00231339
0.00246229
0.00280071
0.0035911
0.00576836
0.0156193
0.056907
0.00280549
0.00273936
0.00267503
0.00261318
0.00255467
0.00250114
0.00245545
0.0024222
0.00240839
0.00242515
0.00249279
0.00265317
0.00300387
0.00380949
0.00603388
0.0163867
0.0650988
0.00303903
0.00295728
0.00288199
0.00281178
0.0027467
0.00268844
0.00264039
0.00260756
0.00259711
0.00262022
0.00269714
0.00286931
0.00323297
0.00405246
0.0063185
0.0172014
0.0751136
0.00310688
0.00305757
0.00300444
0.00295011
0.00289765
0.0028508
0.00281406
0.00279286
0.00279457
0.00283072
0.0029223
0.00311121
0.0034931
0.00433285
0.00665311
0.0181217
0.086963
0.00335898
0.00328241
0.00321306
0.00314982
0.00309419
0.0030489
0.0030174
0.00300415
0.00301599
0.00306482
0.00317254
0.00338202
0.00378952
0.00466448
0.00707593
0.0192316
0.100522
0.0034509
0.00341371
0.00336755
0.00332083
0.00327965
0.00324825
0.00323027
0.00323031
0.00325594
0.00332061
0.0034482
0.00368408
0.00412859
0.00506565
0.00764383
0.0206676
0.115487
0.00371718
0.00364277
0.00358138
0.00353278
0.00349728
0.00347518
0.00346801
0.00347994
0.0035194
0.00360141
0.00375232
0.00402171
0.00451961
0.00556198
0.0084298
0.0225737
0.131362
0.00383365
0.00380406
0.00377055
0.00374367
0.00372615
0.00371924
0.00372579
0.00375169
0.00380732
0.00390995
0.00408951
0.00440305
0.00497968
0.00619451
0.0095334
0.0250825
0.147378
0.00410507
0.00404016
0.00400557
0.00398845
0.00398294
0.00398839
0.00400813
0.00404927
0.00412381
0.00425171
0.00446824
0.00484313
0.0055386
0.00702546
0.0110767
0.0282569
0.162359
0.00425329
0.00424733
0.00424644
0.00425062
0.00426103
0.00428117
0.00431668
0.00437643
0.00447468
0.00463548
0.00490299
0.00536779
0.00624431
0.00814007
0.0131794
0.0322724
0.175003
0.00452988
0.00451151
0.00452144
0.00453954
0.00456495
0.00460164
0.00465627
0.00473952
0.00486892
0.00507516
0.00541683
0.00601671
0.00716344
0.00963726
0.0159446
0.0375136
0.184275
0.00475833
0.00478784
0.004818
0.00485355
0.00489718
0.00495434
0.00503323
0.00514738
0.00531965
0.00559139
0.00604309
0.00684273
0.00837339
0.0116136
0.0194976
0.0443266
0.189518
0.00504379
0.00509241
0.00514165
0.00519722
0.00526287
0.00534539
0.0054553
0.0056104
0.0058415
0.00620507
0.00680977
0.00787596
0.00988501
0.0140015
0.0235417
0.0515606
0.193598
0.00535332
0.00542204
0.00549424
0.00557401
0.00566623
0.00577964
0.00592806
0.00613491
0.00644101
0.00692015
0.0077105
0.00908263
0.0116041
0.0165906
0.0276471
0.0582954
0.198525
0.00568912
0.00578429
0.00588265
0.00599064
0.00611459
0.00626543
0.00646095
0.00673112
0.00712766
0.00774189
0.00873974
0.010436
0.0134692
0.0192729
0.0316642
0.0644511
0.204098
0.00605727
0.00618095
0.00631151
0.00645372
0.00661589
0.00681162
0.00706307
0.00740705
0.00790583
0.00866673
0.00987966
0.0118956
0.0154083
0.02194
0.0354626
0.0699713
0.209892
0.00646198
0.00662227
0.00678967
0.00697226
0.00717946
0.00742762
0.00774298
0.00816858
0.00877589
0.00968547
0.0111063
0.0134169
0.0173527
0.0245019
0.0389503
0.0748201
0.215303
0.00691012
0.00711141
0.00732439
0.00755509
0.00781528
0.00812343
0.00850933
0.00902093
0.0097367
0.0107868
0.0123934
0.0149537
0.0192302
0.0268532
0.041973
0.0787313
0.219549
0.00741055
0.00766321
0.00792813
0.0082149
0.00853572
0.00891119
0.00937275
0.00997143
0.0107897
0.0119631
0.0137205
0.0164687
0.0209832
0.0289137
0.0444326
0.0816078
0.221835
0.00805951
0.00834706
0.00865019
0.00898049
0.00935723
0.00980707
0.0103487
0.0110336
0.0119445
0.0132175
0.0150815
0.0179421
0.022572
0.0306129
0.0462018
0.0831837
0.221416
0.0087838
0.00915297
0.00953545
0.00994027
0.0103781
0.0108694
0.0114667
0.0122317
0.0132248
0.0145715
0.016493
0.0193823
0.0239904
0.0319179
0.0471976
0.0832754
0.217749
0.00955302
0.0100139
0.0104928
0.010996
0.0115361
0.0121321
0.0128138
0.013627
0.0146756
0.0160749
0.0180095
0.0208474
0.0252976
0.0328824
0.0474575
0.0818908
0.210641
0.0104143
0.0109888
0.0115844
0.0122077
0.0128683
0.0135827
0.0143764
0.0152906
0.016393
0.0178168
0.0197389
0.0224682
0.0266508
0.0336911
0.0471889
0.0792501
0.2003
0.0113796
0.0120951
0.0128388
0.0136142
0.0144287
0.0152948
0.0162332
0.0172781
0.0184842
0.0199422
0.0218594
0.0244723
0.0283398
0.0347079
0.0468286
0.0758334
0.187286
0.0124641
0.0133553
0.0142856
0.0152566
0.0162724
0.017341
0.0184776
0.0197086
0.0210799
0.0226732
0.0246283
0.0271981
0.0308113
0.0365167
0.047112
0.0724631
0.172389
0.013677
0.0147883
0.0159562
0.01718
0.0184613
0.0198049
0.0212214
0.0227322
0.0243761
0.0262211
0.0283831
0.0310985
0.0346806
0.0399581
0.0491636
0.0704729
0.156485
0.0150299
0.0164148
0.0178834
0.019434
0.021066
0.0227825
0.0245927
0.0265172
0.0285953
0.0308962
0.0335381
0.0367399
0.0407372
0.0461588
0.0546017
0.0719713
0.140397
0.0165287
0.0182533
0.0201024
0.0220739
0.0241672
0.0263858
0.0287421
0.0312637
0.0340043
0.0370587
0.0405897
0.0448127
0.0499728
0.0565927
0.0656986
0.0803299
0.124798
0.0181771
0.0203206
0.0226487
0.0251609
0.0278583
0.0307485
0.033853
0.0372181
0.0409317
0.0451524
0.0501609
0.0561913
0.0636605
0.0732153
0.0856851
0.101118
0.110175
0.0199704
0.0226278
0.0255567
0.0287613
0.0322485
0.036035
0.0401608
0.0447078
0.0498286
0.0557984
0.0631363
0.0721205
0.0836129
0.0988256
0.119356
0.144264
0.0968499
0.00707638
0.00717036
0.00731011
0.00752088
0.00781294
0.0081788
0.00860546
0.00908167
0.00960641
0.0101826
0.0108183
0.011519
0.01229
0.0131332
0.0140491
0.0150373
0.0160978
0.0172317
0.0184416
0.0197322
0.021671
0.0238187
0.0253227
0.0267101
0.0279802
0.0291446
0.0302108
0.0311675
0.0319844
0.0326186
0.0330218
0.033149
0.0329643
0.0324466
0.0315931
0.0304191
0.0289585
0.02726
0.0253937
0.0234587
0.0215993
0.00776498
0.00784469
0.00798983
0.00822751
0.00856219
0.00897866
0.00945742
0.00998624
0.010565
0.0111997
0.0119002
0.0126735
0.013526
0.0144605
0.0154795
0.0165842
0.0177777
0.0190641
0.0204482
0.021938
0.0241244
0.0265469
0.0283484
0.0300595
0.0316599
0.0331467
0.0345181
0.0357583
0.0368313
0.0376857
0.0382622
0.0385031
0.0383616
0.0378095
0.0368417
0.035477
0.033755
0.0317307
0.0294719
0.0270752
0.0247073
0.00861156
0.00867765
0.00883902
0.00911935
0.00951105
0.00998711
0.0105221
0.0111049
0.0117388
0.0124343
0.0132029
0.0140539
0.0149942
0.0160289
0.0171621
0.0183981
0.019743
0.0212041
0.0227893
0.0245092
0.0269736
0.0297023
0.0318467
0.0339378
0.035938
0.0378246
0.0395808
0.0411793
0.0425745
0.0437029
0.0444909
0.0448654
0.0447664
0.0441572
0.0430315
0.0414156
0.0393621
0.0369399
0.0342196
0.03128
0.0282724
0.00965223
0.00971411
0.00991356
0.01026
0.0107245
0.0112661
0.0118571
0.0124917
0.0131799
0.0139371
0.0147773
0.0157116
0.0167481
0.0178938
0.0191557
0.0205413
0.0220602
0.023723
0.0255407
0.0275272
0.0303053
0.033378
0.0359158
0.0384483
0.0409233
0.0432966
0.0455293
0.0475754
0.0493718
0.0508374
0.0518795
0.0524057
0.0523398
0.0516361
0.0502885
0.0483353
0.0458513
0.0429315
0.039664
0.0361075
0.0323436
0.0109363
0.0110213
0.0112973
0.0117393
0.0122883
0.0128932
0.0135325
0.0142125
0.0149524
0.0157724
0.0166889
0.0177141
0.0188576
0.0201289
0.0215382
0.0230966
0.024817
0.0267136
0.0288013
0.0310973
0.0342309
0.0376929
0.0406821
0.0437235
0.0467539
0.0497077
0.052519
0.0551138
0.0574025
0.0592773
0.0606188
0.0613105
0.0612569
0.0604028
0.0587455
0.0563414
0.0532963
0.0497461
0.0458168
0.0415663
0.0369629
0.0125405
0.012709
0.0131184
0.0136818
0.0143118
0.0149631
0.0156346
0.0163505
0.0171395
0.0180255
0.0190256
0.0201528
0.0214186
0.022835
0.0244156
0.0261752
0.0281304
0.0302995
0.0327014
0.0353578
0.0388963
0.0428019
0.0463099
0.0499356
0.0536081
0.0572414
0.0607395
0.0639926
0.0668726
0.0692335
0.0709195
0.0717825
0.0717047
0.0706224
0.0685416
0.065545
0.0617803
0.0574362
0.0526974
0.0476568
0.0421679
0.0145993
0.0149638
0.0155685
0.0162522
0.0169299
0.017593
0.0182749
0.019018
0.0198571
0.0208161
0.0219115
0.023157
0.0245656
0.0261524
0.0279342
0.0299299
0.03216
0.0346476
0.0374165
0.0404931
0.0444949
0.0489086
0.0530137
0.057309
0.0617172
0.0661335
0.0704293
0.0744516
0.0780228
0.0809452
0.0830142
0.0840412
0.0838831
0.0824703
0.0798256
0.0760696
0.0714045
0.066083
0.0603616
0.0544048
0.0480106
0.0173689
0.0180956
0.0189152
0.0196563
0.0203111
0.0209406
0.0216133
0.0223811
0.023277
0.0243212
0.0255289
0.026914
0.0284919
0.0302802
0.0322996
0.0345731
0.0371264
0.0399874
0.0431859
0.0467533
0.0512871
0.0562851
0.0610775
0.0661382
0.0713832
0.0766884
0.0818904
0.086787
0.0911404
0.0946877
0.0971625
0.0983267
0.098009
0.0961386
0.092766
0.0880648
0.0823059
0.0758166
0.0689306
0.0619046
0.0545904
0.0213395
0.0225744
0.0234981
0.0241519
0.0246919
0.0252487
0.0259033
0.0267003
0.0276637
0.0288088
0.0301491
0.0316997
0.033478
0.0355051
0.0378054
0.0404069
0.0433409
0.046641
0.050343
0.0544838
0.0596297
0.0652996
0.0708808
0.0768121
0.0830001
0.0892988
0.0955069
0.101367
0.106572
0.110783
0.113659
0.114907
0.114326
0.11185
0.107572
0.101733
0.0946873
0.0868474
0.078624
0.0703651
0.0620926
0.0273688
0.0290019
0.0297225
0.0301034
0.0304561
0.0309208
0.0315559
0.0323866
0.0334266
0.034687
0.0361811
0.0379252
0.0399395
0.0422484
0.0448809
0.0478701
0.0512532
0.05507
0.0593617
0.0641703
0.0700204
0.0764595
0.0829388
0.0898502
0.0970854
0.104472
0.111767
0.11865
0.124739
0.129611
0.132848
0.134093
0.133122
0.129885
0.124525
0.117368
0.108863
0.0995138
0.0898053
0.0801618
0.0708167
0.0366875
0.0380203
0.038138
0.0381231
0.0382586
0.0386189
0.0392237
0.0400808
0.0411971
0.0425819
0.0442487
0.0462154
0.048505
0.0511456
0.0541704
0.0576176
0.0615298
0.0659525
0.0709316
0.0765121
0.0831656
0.0904764
0.097962
0.105955
0.114325
0.122868
0.131291
0.139208
0.146158
0.151633
0.155138
0.156262
0.154764
0.150616
0.144029
0.135416
0.125327
0.114351
0.103053
0.0918999
0.0811807
0.0505628
0.0504109
0.0497274
0.0492935
0.0491827
0.049398
0.0499341
0.0507898
0.0519685
0.0534782
0.0553326
0.0575511
0.0601587
0.0631866
0.0666718
0.0706564
0.075187
0.0803125
0.0860819
0.0925402
0.100092
0.108367
0.116947
0.126092
0.135642
0.145351
0.154873
0.163757
0.171464
0.177411
0.181039
0.181897
0.179741
0.174577
0.166682
0.156556
0.144843
0.13219
0.119278
0.106479
0.0946655
0.0697498
0.0677744
0.0663465
0.0654394
0.0649849
0.0649635
0.065357
0.0661584
0.0673673
0.0689899
0.0710389
0.073534
0.076501
0.0799726
0.0839876
0.0885894
0.0938257
0.0997453
0.106395
0.113815
0.12233
0.131618
0.141322
0.151611
0.16229
0.173068
0.183543
0.193204
0.201452
0.20765
0.211201
0.211642
0.20874
0.202541
0.193383
0.181824
0.16858
0.154334
0.139853
0.125915
0.112755
0.0963511
0.0934709
0.0911495
0.0895765
0.0886053
0.0882066
0.0883455
0.0890086
0.0901893
0.0918902
0.0941216
0.0969008
0.100252
0.104206
0.108798
0.11407
0.120065
0.126824
0.134385
0.142776
0.152223
0.162456
0.173174
0.184437
0.196014
0.207568
0.218654
0.22872
0.237139
0.24326
0.246492
0.246391
0.242756
0.235665
0.225487
0.212824
0.198307
0.183
0.167487
0.152324
0.137924
0.136608
0.13266
0.129447
0.126938
0.12525
0.124301
0.124039
0.124444
0.1255
0.127203
0.129558
0.132576
0.136274
0.140676
0.145808
0.1517
0.15838
0.165875
0.174202
0.183362
0.193477
0.204321
0.215638
0.227381
0.239282
0.250981
0.262015
0.27184
0.279853
0.285451
0.288102
0.287421
0.283248
0.275688
0.265038
0.252016
0.2373
0.221583
0.205523
0.189682
0.174459
0.199534
0.194592
0.190436
0.187138
0.184686
0.183052
0.182265
0.182279
0.183065
0.184612
0.186917
0.189979
0.1938
0.198388
0.20375
0.209893
0.216821
0.22453
0.233006
0.242215
0.252171
0.262691
0.27356
0.284643
0.295669
0.306294
0.316105
0.324633
0.331384
0.335881
0.337713
0.336595
0.332392
0.325243
0.315475
0.303526
0.289937
0.275278
0.260098
0.244885
0.229963
0.301147
0.29645
0.292297
0.288886
0.28623
0.284335
0.283195
0.282803
0.283151
0.28423
0.286019
0.288502
0.291665
0.295493
0.299967
0.305067
0.310767
0.317032
0.323817
0.331063
0.338711
0.346635
0.354677
0.362694
0.370481
0.377802
0.384388
0.389953
0.394209
0.396888
0.39776
0.396669
0.393581
0.388554
0.381744
0.373385
0.363769
0.353218
0.342055
0.330588
0.318924
0.0482352
0.0205373
0.00510783
0.00269049
0.00209132
0.00217596
0.0027822
0.00400095
0.00602775
0.00880229
0.0118988
0.014447
0.0154994
0.0146862
0.0125058
0.00988903
0.00744973
0.0508139
0.0200022
0.00502314
0.00269388
0.00210546
0.00211708
0.00249753
0.00323391
0.00436209
0.00580285
0.00730402
0.00844283
0.00880786
0.0082923
0.00718618
0.00595941
0.00499245
0.0508693
0.0190626
0.0049505
0.00270692
0.00212677
0.00208157
0.00231093
0.00275337
0.00338311
0.00412751
0.00484093
0.00532686
0.00542671
0.00514107
0.00464803
0.0042079
0.00407803
0.0503664
0.0178437
0.00489244
0.00273495
0.00215738
0.00206842
0.00219716
0.00245979
0.00281221
0.0031992
0.00354077
0.00375018
0.00377718
0.00364871
0.00346002
0.00331409
0.00323869
0.0495199
0.0165759
0.00486019
0.0027813
0.00220157
0.00207845
0.00214033
0.00229505
0.00249637
0.00270536
0.00288031
0.00298587
0.00301162
0.00298207
0.00294485
0.00294115
0.0029825
0.0488835
0.015479
0.00486693
0.00285036
0.00226226
0.0021111
0.00212807
0.002219
0.00234031
0.00246425
0.0025693
0.0026424
0.00268472
0.00271261
0.00274931
0.00281345
0.00291543
0.0489232
0.0146296
0.00491101
0.00294415
0.00234211
0.00216593
0.00215175
0.0022048
0.0022848
0.00237023
0.00244904
0.00251658
0.00257601
0.00263651
0.00270824
0.00279673
0.00289938
0.0500185
0.0140512
0.00498544
0.00305961
0.00244184
0.00224263
0.00220531
0.00223495
0.00229361
0.00236226
0.00243244
0.0025017
0.00257174
0.00264626
0.00272813
0.00281713
0.00290986
0.0524309
0.0137414
0.00507895
0.003188
0.00255884
0.00233977
0.00228325
0.00229649
0.00234107
0.00240062
0.00246622
0.00253483
0.00260615
0.00268059
0.00275814
0.00283798
0.00291923
0.0563837
0.0136948
0.00518902
0.00332298
0.00269077
0.00245856
0.00238692
0.0023876
0.00242323
0.00247667
0.00254078
0.00261194
0.00268851
0.00277031
0.00285744
0.00294973
0.00304637
0.0620726
0.0139061
0.00532605
0.00346636
0.00283648
0.0025991
0.00251754
0.00250743
0.00253413
0.0025812
0.00264005
0.002706
0.00277674
0.00285049
0.00292568
0.00300092
0.00307538
0.0696306
0.0143687
0.00550846
0.00362855
0.0029953
0.00275333
0.00266598
0.00264895
0.00266762
0.00270598
0.00275557
0.00281136
0.00287008
0.00292955
0.00298833
0.00304548
0.0030999
0.0791043
0.0150806
0.005757
0.00382638
0.00317489
0.00291609
0.00281413
0.00278559
0.00279557
0.00282763
0.00287312
0.00292716
0.00298675
0.00304992
0.00311548
0.00318291
0.00325231
0.0904308
0.01605
0.00609491
0.00407705
0.00339139
0.00310535
0.00298105
0.00293457
0.00292971
0.0029487
0.00298202
0.00302426
0.00307211
0.00312331
0.00317632
0.00323049
0.00328671
0.103388
0.0173051
0.00655417
0.00439485
0.00365216
0.00332661
0.0031726
0.0031036
0.0030812
0.00308581
0.00310671
0.00313778
0.00317534
0.00321674
0.00325922
0.00329916
0.00333147
0.117626
0.0189143
0.00718181
0.00479831
0.00396518
0.00358444
0.0033919
0.00329461
0.00325072
0.00323835
0.00324523
0.00326445
0.00329238
0.00332738
0.00336885
0.00341648
0.00346995
0.132704
0.0209998
0.00804524
0.00531464
0.00434205
0.00388513
0.00364316
0.00351055
0.00344013
0.00340687
0.00339643
0.00340029
0.00341357
0.00343372
0.00345977
0.00349158
0.00353041
0.147869
0.0237023
0.00923665
0.0059854
0.00480145
0.0042382
0.00393204
0.00375549
0.00365257
0.0035942
0.0035636
0.00355063
0.00354908
0.00355531
0.0035671
0.00358194
0.00359325
0.16211
0.0272099
0.0108725
0.00687061
0.00537272
0.00465847
0.00426653
0.00403423
0.00389131
0.00380244
0.00374772
0.00371514
0.00369723
0.00368966
0.0036907
0.00370133
0.00372517
0.174343
0.0317173
0.013077
0.0080469
0.00609829
0.0051682
0.00465843
0.00435333
0.00416033
0.00403424
0.00395051
0.00389451
0.00385706
0.00383227
0.00381658
0.00380891
0.00381327
0.183132
0.0374029
0.0159617
0.00959895
0.00703244
0.00579851
0.00512491
0.00472214
0.00446488
0.0042928
0.00417408
0.00409034
0.00403024
0.00398639
0.00395372
0.0039281
0.00390247
0.187966
0.0446315
0.0196257
0.0116028
0.00823249
0.00658656
0.00568802
0.00515313
0.0048119
0.00458204
0.00442075
0.00430404
0.00421744
0.00415178
0.00410103
0.0040615
0.00403289
0.191847
0.0520251
0.0237824
0.0140172
0.00972181
0.00756417
0.00637271
0.00566282
0.00521143
0.00490781
0.00469388
0.0045375
0.00441969
0.0043287
0.00425687
0.00419919
0.00415185
0.196732
0.0586957
0.0278852
0.0165659
0.0113684
0.00867196
0.00715285
0.00623914
0.00565689
0.00526567
0.00499012
0.00478813
0.00463503
0.00451579
0.00442068
0.00434338
0.00427935
0.202374
0.064793
0.0318085
0.0191373
0.0130986
0.00986889
0.00800834
0.00687299
0.00614408
0.00565322
0.00530753
0.00505405
0.00486161
0.0047112
0.0045907
0.0044923
0.00441035
0.208361
0.0702252
0.0354553
0.0216272
0.0148359
0.0111066
0.00891085
0.00754871
0.00666472
0.00606604
0.00564353
0.00533355
0.00509814
0.00491394
0.00476614
0.00464514
0.00454431
0.214053
0.0749554
0.0387352
0.0239442
0.0165078
0.0123338
0.00982714
0.00824624
0.00720729
0.00649777
0.00599472
0.00562489
0.00534381
0.0051238
0.00494723
0.00480266
0.00468244
0.218618
0.0787745
0.0415188
0.0259944
0.018044
0.0135003
0.0107237
0.00894432
0.00775916
0.0069417
0.00635832
0.00592779
0.00559995
0.0053431
0.00513697
0.00496831
0.00482797
0.221144
0.081412
0.0436511
0.0276745
0.0193733
0.0145573
0.0115691
0.0096242
0.00831106
0.00739622
0.00673865
0.00625086
0.00587765
0.00558403
0.00534739
0.00515263
0.00498907
0.220805
0.0826195
0.0449908
0.0288927
0.0204338
0.0154644
0.0123617
0.010331
0.00894488
0.00796082
0.00723593
0.006683
0.00624798
0.00589952
0.0056146
0.00537736
0.00517684
0.217023
0.0822393
0.0454479
0.029594
0.0211922
0.0162426
0.0130943
0.0109867
0.00951946
0.00846141
0.00767295
0.00706702
0.00658708
0.00619359
0.00586322
0.00558622
0.00535176
0.209587
0.08026
0.0450258
0.0297879
0.0216795
0.0168265
0.0136988
0.011572
0.0100621
0.00895008
0.00810409
0.00744148
0.00690896
0.00647153
0.00610559
0.00579055
0.0055198
0.198694
0.0768574
0.043871
0.0295869
0.0219366
0.0173084
0.0142732
0.0121625
0.0106264
0.00946615
0.00856226
0.0078394
0.00724863
0.00675737
0.00634344
0.00599118
0.00568608
0.184912
0.0724547
0.0423191
0.0292403
0.0221792
0.0178333
0.0149127
0.0128229
0.0112564
0.0100395
0.00906762
0.00827433
0.0076159
0.00706255
0.00659346
0.00619359
0.00585136
0.169076
0.0678013
0.0409702
0.0291826
0.022702
0.0185994
0.0157495
0.0136405
0.0120095
0.0107076
0.00964444
0.00876191
0.00802075
0.00739346
0.0068601
0.00640568
0.0060183
0.152156
0.0641217
0.0407836
0.030082
0.0239255
0.0198736
0.0169539
0.0147243
0.012955
0.0115143
0.0103205
0.0093196
0.0084741
0.0077569
0.00714766
0.00663029
0.00619185
0.135113
0.0633518
0.0431771
0.0328571
0.0263863
0.0219794
0.0187246
0.0161971
0.0141694
0.0125074
0.0111254
0.00996566
0.00898715
0.00815973
0.0074603
0.00687039
0.0063744
0.118789
0.0686136
0.0501389
0.0386948
0.0307234
0.0252811
0.021277
0.0181889
0.0157322
0.0137358
0.0120896
0.0107191
0.00957175
0.00860941
0.00780291
0.0071291
0.0065685
0.103799
0.0850644
0.0645038
0.0491589
0.0377659
0.0302458
0.0248794
0.0208542
0.0177329
0.0152521
0.0132443
0.0115986
0.0102393
0.00911286
0.00817977
0.00740907
0.0067754
0.090531
0.122105
0.0906706
0.0667325
0.0498213
0.0378842
0.0299922
0.0244213
0.020295
0.0171276
0.0146321
0.0126303
0.0110059
0.00968039
0.00859769
0.00771545
0.00699949
0.0135987
0.0444596
0.149493
0.42892
0.825766
0.880265
0.554263
0.268699
0.201816
0.226937
0.294845
0.392282
0.490878
0.511507
0.487261
0.411544
0.29367
0.171439
0.0792711
0.0278497
0.0121101
0.0352871
0.116265
0.366904
0.815103
0.964875
0.626888
0.280067
0.183546
0.187737
0.229713
0.30771
0.410346
0.429887
0.392927
0.313498
0.212759
0.120491
0.0557675
0.0208673
0.0119198
0.0303167
0.0891444
0.298563
0.780495
1.07222
0.731742
0.309189
0.178374
0.163477
0.177413
0.217062
0.281178
0.292752
0.262218
0.203065
0.134807
0.0762015
0.036747
0.0155298
0.0127392
0.0294408
0.0708308
0.228807
0.704513
1.18732
0.874979
0.361678
0.188299
0.157888
0.151221
0.158435
0.178986
0.173664
0.150365
0.114676
0.0769763
0.0457401
0.0247294
0.0127003
0.0143002
0.0319057
0.0626427
0.168314
0.585718
1.26286
1.05411
0.44213
0.213094
0.16894
0.150361
0.137152
0.128234
0.105976
0.0856226
0.0656284
0.0466752
0.0311975
0.0201855
0.0126552
0.0165093
0.0367793
0.0636899
0.126226
0.437982
1.25261
1.26572
0.558814
0.253774
0.193582
0.167446
0.144046
0.122456
0.0939653
0.0684447
0.0523255
0.0397564
0.0298278
0.0220921
0.0153597
0.0195859
0.0434646
0.0715589
0.106687
0.290413
1.12665
1.49126
0.723393
0.313433
0.231226
0.197304
0.16852
0.140933
0.112202
0.0820479
0.0618981
0.0484092
0.0380318
0.0295677
0.0210613
0.0239709
0.0522462
0.0838417
0.106478
0.17942
0.881416
1.82289
0.976111
0.401042
0.285313
0.241514
0.204694
0.172854
0.142331
0.111882
0.0864157
0.0683113
0.0545885
0.04325
0.0309067
0.0296422
0.0638371
0.100049
0.117438
0.137465
0.611787
1.82539
1.43084
0.561584
0.364822
0.306187
0.258809
0.218101
0.18369
0.151338
0.122829
0.0998547
0.0812732
0.0657031
0.0474071
0.0372285
0.0791588
0.120934
0.133887
0.137266
0.442733
1.55587
1.45756
0.963223
0.518304
0.40239
0.341585
0.2892
0.244051
0.206406
0.173362
0.145539
0.12189
0.101158
0.075306
0.0477496
0.100582
0.14948
0.155951
0.141654
0.331419
1.24163