/*--------------------------------*- C++ -*----------------------------------*\
  =========                 |
  \\      /  F ield         | OpenFOAM: The Open Source CFD Toolbox
   \\    /   O peration     | Website:  https://openfoam.org
    \\  /    A nd           | Version:  6
     \\/     M anipulation  |
\*---------------------------------------------------------------------------*/
FoamFile
{
    version     2.0;
    format      ascii;
    class       volScalarField;
    location    "2.78";
    object      p;
}
// * * * * * * * * * * * * * * * * * * * * * * * * * * * * * * * * * * * * * //

dimensions      [0 2 -2 0 0 0 0];

internalField   nonuniform List<scalar> 
4214
(
-2.15368
-1.89698
-1.4011
-0.96546
-0.772766
-0.710665
-0.685842
-0.672331
-0.667596
-0.689075
-0.766728
-0.874913
-1.10537
-1.14244
-1.08606
-0.93262
-0.559016
0.0367236
0.855298
1.53724
1.5852
1.15056
0.598612
0.0379372
-0.381051
-0.628814
-0.756186
-0.80546
-0.82294
-0.828405
-0.830531
-0.827095
-0.824542
-0.828628
-0.838582
-0.856942
-0.909028
-1.10981
-1.58273
-2.11354
-2.43734
-1.35199
-1.67421
-1.75215
-1.4684
-1.27148
-1.19369
-1.15506
-1.12867
-1.11583
-1.14024
-1.18157
-1.31778
-1.80119
-2.10637
-2.96151
-3.44678
-3.08989
-1.94868
-0.297895
1.07864
1.51768
1.00458
0.135106
-0.726823
-1.35052
-1.71888
-1.92036
-1.99334
-1.99657
-1.94877
-1.88808
-1.82156
-1.75928
-1.7118
-1.67809
-1.63021
-1.63729
-1.81255
-2.11916
-1.95205
-1.64216
-2.68133
-2.6104
-2.69771
-2.48626
-2.27012
-2.15244
-2.09158
-2.05503
-2.04069
-2.08684
-2.14191
-2.45975
-3.04733
-3.46731
-4.46324
-4.59036
-3.73866
-2.17604
-0.411103
0.771342
1.09786
0.518651
-0.550237
-1.72748
-2.65781
-3.22297
-3.5325
-3.64182
-3.64341
-3.56598
-3.46198
-3.3453
-3.23011
-3.13897
-3.07543
-2.99751
-3.01355
-3.19637
-3.43198
-3.19197
-3.23005
-3.63313
-3.42035
-3.49158
-3.32849
-3.11834
-2.98307
-2.9095
-2.8667
-2.85477
-2.90672
-2.97532
-3.46521
-3.94105
-4.68908
-5.51142
-5.31082
-4.073
-2.37126
-0.866022
-0.0860306
-0.0764852
-0.798511
-1.9965
-3.30982
-4.36418
-5.00598
-5.33251
-5.42554
-5.38679
-5.25364
-5.08232
-4.894
-4.70756
-4.55114
-4.4297
-4.2976
-4.26694
-4.39608
-4.54961
-4.20872
-4.35641
-4.60689
-4.37972
-4.36862
-4.2176
-4.0158
-3.8685
-3.77957
-3.72518
-3.70922
-3.75636
-3.90492
-4.41215
-4.70897
-5.66664
-6.14221
-5.52964
-4.11176
-2.53416
-1.62009
-1.4285
-1.89798
-2.84308
-4.17272
-5.56023
-6.63546
-7.2565
-7.51489
-7.54126
-7.41259
-7.18938
-6.92524
-6.64526
-6.37176
-6.13307
-5.94087
-5.75796
-5.65225
-5.72594
-5.83046
-5.48177
-5.61489
-5.49842
-5.27443
-5.23782
-5.0886
-4.893
-4.73803
-4.63252
-4.55864
-4.52186
-4.53794
-4.71418
-5.05555
-5.47565
-6.32082
-6.37158
-5.45543
-3.9715
-2.83679
-2.72131
-3.32474
-4.38293
-5.67291
-7.18477
-8.61233
-9.59328
-10.087
-10.1953
-10.0495
-9.75801
-9.38387
-8.98401
-8.58034
-8.19342
-7.84647
-7.56205
-7.30808
-7.09287
-7.09869
-7.14875
-6.72323
-6.81806
-6.40951
-6.19105
-6.13195
-5.97576
-5.77806
-5.61159
-5.48418
-5.38065
-5.3054
-5.26864
-5.32657
-5.52483
-6.12376
-6.62456
-6.28497
-5.12294
-3.79762
-3.348
-4.19178
-5.75173
-7.51236
-9.2904
-11.0883
-12.5429
-13.3212
-13.6301
-13.5151
-13.0674
-12.5169
-11.9131
-11.3194
-10.7495
-10.215
-9.73207
-9.33304
-8.98348
-8.65548
-8.55625
-8.55726
-8.05055
-8.09537
-7.31724
-7.1058
-7.03378
-6.87053
-6.66549
-6.48218
-6.3263
-6.18335
-6.0579
-5.96248
-5.94
-6.00134
-6.51062
-6.58438
-5.92478
-4.72728
-3.78734
-4.14801
-6.05771
-8.65521
-11.2527
-13.6617
-15.8684
-17.3997
-17.9079
-17.9452
-17.5461
-16.7008
-15.7732
-14.8372
-13.9698
-13.1749
-12.4495
-11.8008
-11.2602
-10.7809
-10.3318
-10.1268
-10.0178
-9.41355
-9.37629
-8.23846
-8.04099
-7.95704
-7.78237
-7.56399
-7.35712
-7.16446
-6.97084
-6.77994
-6.61233
-6.50461
-6.4652
-6.6352
-6.31652
-5.45371
-4.38776
-3.97299
-5.25546
-8.26489
-11.9613
-15.5139
-18.6775
-21.3471
-23.087
-23.5111
-23.1766
-22.3957
-21.0501
-19.6113
-18.2268
-16.9861
-15.8881
-14.9218
-14.0753
-13.3579
-12.7115
-12.1364
-11.8194
-11.5459
-10.8914
-10.6846
-9.17026
-8.99164
-8.90285
-8.71711
-8.48219
-8.24725
-8.01066
-7.75545
-7.47641
-7.20473
-6.92502
-6.72472
-6.52642
-5.92781
-5.0099
-4.23028
-4.44284
-6.63949
-10.728
-15.5483
-20.1364
-24.1621
-27.373
-29.3236
-29.8331
-29.4989
-28.1779
-26.1584
-24.0851
-22.1337
-20.4145
-18.9335
-17.6663
-16.5755
-15.6347
-14.7984
-14.0941
-13.6213
-13.1479
-12.4411
-12.0819
-10.1198
-9.97433
-9.88905
-9.69699
-9.44213
-9.1782
-8.89374
-8.56132
-8.18702
-7.76523
-7.31294
-6.84845
-6.31989
-5.54764
-4.72349
-4.35691
-5.23596
-8.26502
-13.345
-19.2473
-24.8755
-29.8038
-33.668
-36.0364
-36.7546
-36.2193
-34.4225
-31.9102
-29.1782
-26.5816
-24.2905
-22.3254
-20.6771
-19.2777
-18.0788
-17.0299
-16.1642
-15.4921
-14.8378
-14.0372
-13.6142
-11.1305
-11.0249
-10.951
-10.7442
-10.4692
-10.1726
-9.83637
-9.42425
-8.95095
-8.37904
-7.72167
-6.9866
-6.21266
-5.34461
-4.72732
-4.83319
-6.36364
-10.0971
-16.0141
-22.8627
-29.4287
-35.1837
-39.6891
-42.541
-43.5685
-43.0594
-41.057
-38.1114
-34.7757
-31.505
-28.5797
-26.0369
-23.9278
-22.155
-20.6602
-19.3677
-18.3
-17.4129
-16.5706
-15.7097
-15.2938
-12.2628
-12.1692
-12.1059
-11.8845
-11.5914
-11.2585
-10.8664
-10.3665
-9.78119
-9.03368
-8.20961
-7.21454
-6.26973
-5.39967
-5.06235
-5.67778
-7.81455
-12.0976
-18.6231
-26.2021
-33.5223
-39.9563
-45.0268
-48.3605
-49.7836
-49.4917
-47.5361
-44.3781
-40.6027
-36.6911
-33.1383
-29.9758
-27.35
-25.1566
-23.3419
-21.77
-20.472
-19.3548
-18.3424
-17.4455
-16.9563
-13.5448
-13.4329
-13.3571
-13.1359
-12.8379
-12.4781
-12.0343
-11.4406
-10.7378
-9.78787
-8.80299
-7.55766
-6.58165
-5.81202
-5.82356
-6.92181
-9.57383
-14.24
-21.0899
-29.1146
-36.9504
-43.8615
-49.3609
-53.1005
-54.914
-54.9513
-53.2785
-50.1684
-46.2517
-41.8168
-37.8091
-34.1011
-30.9233
-28.2271
-26.0918
-24.213
-22.6649
-21.31
-20.1223
-19.1111
-18.3622
-15.0308
-14.8638
-14.7762
-14.5542
-14.2764
-13.9163
-13.4672
-12.8258
-12.0723
-10.9699
-9.89283
-8.29277
-7.40864
-6.63813
-7.07047
-8.57589
-11.6318
-16.5116
-23.3759
-31.5122
-39.5669
-46.737
-52.4883
-56.5157
-58.7089
-59.0142
-57.8478
-54.9512
-51.3079
-46.5538
-42.5176
-38.3595
-34.7109
-31.3301
-28.8111
-26.5955
-24.7389
-23.1555
-21.7475
-20.5642
-19.5566
-16.7068
-16.5566
-16.488
-16.2507
-16.0465
-15.6764
-15.3083
-14.7281
-14.1449
-13.0606
-12.1673
-9.94292
-9.22878
-7.92156
-8.85449
-10.5254
-13.9458
-18.8731
-25.4892
-33.4141
-41.2913
-48.531
-54.3543
-58.5568
-61.192
-61.6512
-61.1357
-58.3659
-55.3991
-50.5406
-47.0238
-42.0802
-38.382
-34.4013
-31.2543
-28.6376
-26.2641
-24.56
-22.8799
-21.5937
-20.3476
-18.4685
-18.4475
-18.4655
-18.221
-18.1504
-17.7316
-17.4469
-16.9753
-16.6029
-15.6794
-15.109
-12.4589
-12.0301
-9.94297
-11.5558
-12.7619
-16.6459
-21.2065
-27.1115
-34.7334
-41.8924
-49.2312
-54.921
-59.2948
-62.212
-62.7941
-62.7896
-60.1431
-57.942
-53.1776
-50.4043
-44.4017
-41.4119
-36.8776
-33.2824
-30.0454
-27.2697
-25.4692
-23.6473
-22.285
-20.9934
-19.8955
-19.3057
-18.6672
-17.8543
-16.8384
-15.6884
-14.3563
-12.995
-11.6894
-10.5389
-9.41322
-8.33286
-7.20147
-6.23471
-5.06221
-4.36843
-3.83274
-18.8335
-18.3813
-17.9517
-17.3497
-16.603
-15.7376
-14.7428
-13.6096
-12.4516
-11.3789
-10.3703
-9.42474
-8.38628
-7.54991
-6.38426
-5.89124
-4.753
-17.9076
-17.5493
-17.2279
-16.8053
-16.2608
-15.6388
-14.9404
-14.0804
-13.1222
-12.152
-11.2572
-10.4369
-9.52985
-8.79311
-7.75229
-7.33345
-5.99296
-16.9948
-16.7231
-16.544
-16.259
-15.8598
-15.4227
-14.9257
-14.3515
-13.6292
-12.8235
-12.0246
-11.3092
-10.5382
-9.88805
-8.99078
-8.57243
-7.33321
-16.1741
-15.9772
-15.8654
-15.6966
-15.4339
-15.113
-14.7803
-14.3971
-13.9373
-13.3503
-12.6891
-12.0639
-11.4401
-10.8871
-10.1438
-9.74479
-8.67496
-15.3724
-15.2267
-15.2139
-15.1291
-14.9673
-14.7593
-14.5229
-14.2764
-13.9933
-13.6502
-13.1993
-12.6754
-12.1796
-11.7158
-11.1484
-10.7858
-9.92116
-14.6037
-14.5244
-14.5722
-14.5467
-14.4662
-14.3561
-14.214
-14.0444
-13.8674
-13.6735
-13.4398
-13.1192
-12.7467
-12.3677
-11.9786
-11.672
-11.0688
-13.8449
-13.7832
-13.9475
-13.9687
-13.9419
-13.9065
-13.8461
-13.7582
-13.6481
-13.5283
-13.4083
-13.2644
-13.0763
-12.8098
-12.5808
-12.3371
-11.9758
-13.0847
-13.0745
-13.276
-13.3622
-13.3875
-13.4205
-13.4206
-13.401
-13.3653
-13.3149
-13.2502
-13.1788
-13.1097
-13.0142
-12.9138
-12.7287
-12.5756
-12.3398
-12.3218
-12.5884
-12.7151
-12.7815
-12.8678
-12.9323
-12.9738
-13.0024
-13.0172
-13.0148
-13.0042
-12.987
-12.9619
-12.9447
-12.8835
-12.885
-11.5471
-11.5946
-11.8512
-12.01
-12.1159
-12.2406
-12.3501
-12.4413
-12.5223
-12.5957
-12.6554
-12.7084
-12.7535
-12.7832
-12.8361
-12.8319
-12.9182
-10.8043
-10.8064
-11.0943
-11.2672
-11.3918
-11.5399
-11.6787
-11.8042
-11.9223
-12.0386
-12.143
-12.2485
-12.3466
-12.4306
-12.5354
-12.5772
-12.7612
-9.95783
-10.0432
-10.2895
-10.4675
-10.609
-10.7685
-10.9221
-11.0672
-11.2074
-11.3504
-11.4818
-11.623
-11.751
-11.8821
-12.0321
-12.1147
-12.3519
-9.20962
-9.21334
-9.46258
-9.63548
-9.7726
-9.92974
-10.0857
-10.2365
-10.3848
-10.5388
-10.6819
-10.843
-10.9826
-11.1438
-11.305
-11.4173
-11.6854
-8.30863
-8.40293
-8.5932
-8.75085
-8.88402
-9.02956
-9.17572
-9.31943
-9.46272
-9.61311
-9.75545
-9.91993
-10.0535
-10.2302
-10.382
-10.528
-10.7974
-7.55376
-7.54083
-7.70553
-7.84162
-7.95161
-8.07413
-8.20138
-8.32765
-8.45403
-8.58717
-8.71496
-8.86413
-8.98466
-9.16339
-9.28565
-9.44337
-9.67226
-6.62374
-6.68052
-6.78162
-6.88962
-6.98007
-7.0735
-7.17193
-7.27125
-7.37162
-7.47802
-7.5804
-7.70062
-7.79467
-7.94942
-8.02217
-8.19088
-8.36862
-5.85349
-5.81324
-5.85858
-5.91844
-5.9698
-6.02468
-6.08589
-6.14951
-6.21633
-6.28841
-6.3574
-6.4425
-6.50627
-6.62698
-6.65447
-6.80798
-6.86574
-4.86681
-4.87457
-4.87593
-4.88962
-4.90406
-4.91895
-4.93875
-4.96111
-4.98728
-5.01688
-5.04753
-5.09506
-5.12106
-5.19776
-5.18867
-5.29493
-5.26701
-3.97922
-3.88856
-3.85146
-3.81818
-3.78875
-3.76202
-3.73896
-3.71838
-3.70073
-3.68551
-3.6726
-3.66577
-3.65064
-3.65767
-3.62815
-3.68192
-3.62111
-2.88843
-2.84626
-2.78371
-2.71005
-2.63608
-2.56218
-2.49179
-2.42308
-2.35644
-2.29065
-2.22618
-2.16583
-2.09464
-2.06287
-1.97321
-1.98166
-1.84132
-2.05542
-1.84674
-1.70285
-1.57453
-1.4569
-1.33527
-1.21526
-1.09637
-0.979261
-0.861911
-0.747547
-0.635056
-0.5107
-0.432547
-0.26302
-0.242316
-0.0163606
-0.888529
-0.778175
-0.622904
-0.439693
-0.26615
-0.0941389
0.0745748
0.241298
0.406575
0.57154
0.732955
0.896146
1.06358
1.2002
1.41884
1.47214
1.77394
-0.0899626
0.249358
0.48285
0.709213
0.926434
1.14298
1.35609
1.5666
1.77518
1.98186
2.18476
2.39053
2.59514
2.77963
3.02993
3.11979
3.49361
1.08663
1.30578
1.56093
1.83413
2.0975
2.35656
2.60999
2.85942
3.10567
3.34815
3.58645
3.82663
4.0601
4.27949
4.54971
4.67663
5.09659
1.88623
2.31059
2.62993
2.93944
3.23801
3.5318
3.81893
4.10069
4.37758
4.64877
4.91523
5.18128
5.43657
5.68433
5.97348
6.1396
6.57745
3.00999
3.31818
3.65577
4.00147
4.33367
4.65668
4.97051
5.27685
5.57583
5.86683
6.15192
6.43445
6.70721
6.98006
7.27698
7.46592
7.90141
3.78393
4.27142
4.65667
5.02554
5.37987
5.72366
6.05641
6.3791
6.69152
6.99446
7.2923
7.58683
7.86931
8.14646
8.43637
8.63318
9.04901
4.8385
5.2089
5.60531
5.99625
6.3683
6.72566
7.0691
7.39977
7.71869
8.0286
8.33016
8.6213
8.89682
9.16792
9.44248
9.63583
10.0218
5.57988
6.09844
6.51901
6.91679
7.29517
7.65692
8.00227
8.33287
8.65043
8.95497
9.24701
9.52613
9.78907
10.0481
10.3005
10.4863
10.8382
6.5503
6.95307
7.37439
7.77766
8.15606
8.51379
8.85257
9.17446
9.48054
9.77116
10.0472
10.3091
10.5556
10.797
11.0256
11.2008
11.5158
7.24919
7.7671
8.18933
8.58231
8.9502
9.29548
9.61976
9.92519
10.2131
10.4847
10.7411
10.9818
11.2078
11.4272
11.6317
11.7944
12.0719
8.13322
8.53601
8.9462
9.32726
9.67835
10.004
10.3071
10.5902
10.855
11.1023
11.3366
11.5552
11.7592
11.9561
12.1366
12.2824
12.5209
8.7892
9.27165
9.66232
10.0172
10.3431
10.6429
10.9199
11.1766
11.4153
11.6379
11.8451
12.0399
12.2205
12.3936
12.5514
12.6812
12.8816
9.5927
9.95913
10.3231
10.6501
10.9455
11.2147
11.462
11.6901
11.9013
12.0975
12.2802
12.4499
12.6077
12.756
12.8894
13.0011
13.1663
10.2023
10.6138
10.9387
11.2257
11.4849
11.7201
11.9357
12.1341
12.3176
12.4876
12.6454
12.7908
12.9263
13.0537
13.1653
13.2578
13.3889
10.9246
11.2158
11.4989
11.7449
11.965
12.1645
12.3476
12.5164
12.6725
12.817
12.9505
13.073
13.1843
13.288
13.3797
13.457
13.56
11.4941
11.7964
12.0259
12.2233
12.4027
12.5662
12.7169
12.8559
12.9846
13.1034
13.2125
13.3119
13.402
13.4834
13.55
13.6059
13.6873
12.1637
12.3459
12.5234
12.6746
12.8139
12.9419
13.0598
13.1687
13.2693
13.3614
13.4449
13.5196
13.5859
13.6428
13.6878
13.7287
13.7844
12.698
12.8631
12.9739
13.0739
13.1719
13.2629
13.3476
13.4267
13.5001
13.5672
13.6269
13.6787
13.7219
13.756
13.7836
13.8168
13.8628
10.181
10.7746
11.4449
11.9897
12.5893
13.09
13.6437
14.1159
14.625
15.0595
15.5117
15.8991
16.2881
16.6218
16.943
17.2169
17.4662
17.6748
17.8498
17.9885
18.0881
18.1538
18.1784
18.1695
18.1211
18.038
17.9203
17.7643
17.5821
17.3563
17.1152
16.8236
16.5296
16.1774
15.837
15.4308
15.0545
14.6076
14.2017
13.7069
13.2554
10.3637
10.9225
11.4534
11.981
12.4908
12.9876
13.4723
13.9398
14.3893
14.8179
15.2261
15.609
15.9682
16.2982
16.6008
16.8712
17.1106
17.3156
17.4865
17.622
17.7209
17.7843
17.8108
17.801
17.7557
17.6758
17.5622
17.4152
17.2379
17.0298
16.7947
16.5321
16.2458
15.9362
15.6057
15.2564
14.8884
14.5052
14.11
13.7056
13.2782
10.5443
11.0307
11.5006
11.973
12.4367
12.8961
13.341
13.7759
14.1943
14.5989
14.9834
15.3495
15.6917
16.0106
16.3018
16.5651
16.7975
16.9982
17.1654
17.2983
17.396
17.4585
17.4858
17.4762
17.4331
17.357
17.2477
17.1078
16.9381
16.7416
16.5186
16.2732
16.005
15.719
15.4138
15.0951
14.7602
14.4157
14.0569
13.6989
13.3237
10.7086
11.1418
11.5642
11.9866
12.408
12.8245
13.2339
13.636
14.0282
14.4086
14.7739
15.1224
15.451
15.7577
16.0398
16.2953
16.5219
16.718
16.8819
17.0127
17.1089
17.1714
17.1989
17.1902
17.149
17.0766
16.9723
16.8385
16.6771
16.4903
16.2801
16.049
15.799
15.5328
15.2521
14.9596
14.6564
14.3458
14.0258
13.7056
13.3737
10.8587
11.2444
11.6196
11.9984
12.379
12.7629
13.143
13.5172
13.8846
14.2436
14.5911
14.9241
15.2398
15.5358
15.8093
16.0578
16.279
16.4709
16.6319
16.7606
16.8557
16.918
16.9456
16.9389
16.8994
16.8305
16.7308
16.6029
16.4491
16.2716
16.0728
15.8552
15.6213
15.3735
15.1143
14.8463
14.5713
14.2915
14.0045
13.7224
13.4276
10.9944
11.3353
11.6671
12.0105
12.3574
12.7091
13.0628
13.4151
13.7612
14.1006
14.4315
14.7507
15.0548
15.341
15.6066
15.8488
16.0651
16.2533
16.4116
16.5386
16.6327
16.6949
16.7226
16.7184
16.6805
16.6149
16.5196
16.3972
16.2504
16.0816
15.8933
15.6881
15.4687
15.2377
14.998
14.7518
14.4997
14.2445
13.9884
13.7388
13.4778
11.1149
11.4155
11.7124
12.0236
12.3407
12.6651
12.9936
13.324
13.6537
13.9765
14.2922
14.5986
14.8923
15.1699
15.4285
15.6651
15.8771
16.0622
16.2182
16.3436
16.4371
16.4991
16.527
16.5255
16.4893
16.4265
16.3352
16.218
16.0777
15.9167
15.7379
15.5439
15.3377
15.1221
14.8997
14.6715
14.4399
14.2096
13.9795
13.7585
13.528
11.2214
11.4891
11.755
12.0374
12.3279
12.6278
12.9341
13.2445
13.5565
13.8671
14.1702
14.4651
14.7495
15.0198
15.2723
15.5042
15.7125
15.8948
16.0489
16.1731
16.2661
16.3281
16.3564
16.3571
16.3229
16.2626
16.175
16.0625
15.9279
15.7741
15.6037
15.4197
15.2254
15.0236
14.8155
14.6039
14.3925
14.1838
13.9776
13.7814
13.5786
11.3177
11.5557
11.7939
12.0504
12.3172
12.5951
12.8815
13.1743
13.4707
13.7679
14.0624
14.3482
14.6245
14.8883
15.1357
15.3636
15.5688
15.7489
15.9015
16.0249
16.1176
16.1796
16.2088
16.211
16.1787
16.1208
16.0364
15.9281
15.7987
15.6511
15.4882
15.3133
15.1296
14.9387
14.7434
14.548
14.3542
14.165
13.9801
13.8061
13.6281
11.4023
11.6139
11.8274
12.0611
12.3075
12.5667
12.836
13.1134
13.3962
13.6815
13.9662
14.246
14.5154
14.7732
15.0162
15.2408
15.4438
15.6223
15.774
15.897
15.9897
16.052
16.082
16.0853
16.0548
15.9989
15.9172
15.8124
15.6874
15.5453
15.3894
15.2227
15.0477
14.8662
14.6835
14.502
14.3237
14.1515
13.985
13.8308
13.6748
11.4745
11.6627
11.8538
12.0675
12.2968
12.5401
12.7947
13.0588
13.3298
13.6049
13.881
14.1543
14.419
14.672
14.9113
15.1338
15.3356
15.5135
15.665
15.788
15.881
15.9438
15.9745
15.9786
15.9496
15.8951
15.8154
15.7132
15.5917
15.4541
15.3043
15.1444
14.9761
14.8047
14.6329
14.4635
14.2987
14.141
13.9905
13.854
13.7175
11.5335
11.701
11.8723
12.0684
12.2805
12.5084
12.7495
13.002
13.2633
13.5303
13.7996
14.0675
14.3308
14.5824
14.8204
15.0422
15.2436
15.4215
15.5733
15.6967
15.7902
15.8535
15.885
15.8897
15.8618
15.8083
15.73
15.6296
15.5106
15.3762
15.23
15.0738
14.912
14.7483
14.5858
14.4271
14.2746
14.1303
13.9947
13.8739
13.7546
11.578
11.7274
11.8829
12.0631
12.2607
12.4753
12.7052
12.9482
13.2013
13.4618
13.726
13.9903
14.251
14.5052
14.7449
14.9665
15.1676
15.3454
15.4976
15.6217
15.7159
15.7797
15.812
15.817
15.7901
15.7373
15.6601
15.5615
15.4444
15.3117
15.1658
15.0122
14.8558
14.6983
14.5437
14.3942
14.2522
14.1193
13.997
13.8888
13.7844
11.6072
11.7409
11.8875
12.0574
12.246
12.452
12.6739
12.9089
13.1542
13.4088
13.6693
13.9311
14.1901
14.4427
14.682
14.9036
15.1049
15.2833
15.4364
15.5615
15.6567
15.7211
15.7542
15.7592
15.7328
15.6803
15.6038
15.5063
15.3906
15.2593
15.1162
14.9658
14.8133
14.6612
14.5134
14.3708
14.2361
14.1109
13.9975
13.8967
13.8058
11.6265
11.7426
11.8794
12.0372
12.2155
12.4127
12.6273
12.8563
13.0978
13.3496
13.6078
13.868
14.1271
14.3787
14.6193
14.8442
15.0499
15.2323
15.3882
15.5154
15.6122
15.6776
15.7111
15.7156
15.6888
15.6351
15.557
15.4573
15.3399
15.2089
15.0674
14.9199
14.7699
14.6217
14.4784
14.3408
14.2128
14.0957
13.9914
13.8994
13.8232
11.6512
11.7374
11.8499
11.9874
12.1499
12.3353
12.5416
12.7678
13.0117
13.2645
13.5229
13.7849
14.0481
14.3033
14.5527
14.7865
15.0014
15.1921
15.3535
15.4845
15.5841
15.6508
15.6846
15.6873
15.6584
15.6014
15.5184
15.4124
15.2889
15.1533
15.0083
14.8614
14.7114
14.5652
14.4218
14.2895
14.1699
14.065
13.9767
13.904
13.8501
11.6926
11.7438
11.8376
11.9635
12.1178
12.2975
12.4996
12.7212
12.9586
13.2101
13.4716
13.7384
14.0036
14.2664
14.5178
14.7562
14.9743
15.1683
15.3351
15.4708
15.5732
15.6411
15.6748
15.6756
15.6438
15.5825
15.4959
15.3878
15.2622
15.1232
14.9776
14.8264
14.6766
14.5298
14.3919
14.2644
14.1496
14.0508
13.9714
13.9151
13.8964
-3.17409
-3.50834
-4.05129
-4.98015
-5.73302
-6.56881
-7.36448
-8.20683
-9.05184
-9.92275
-10.8125
-11.7767
-12.8744
-14.1027
-15.4437
-16.82
-18.2508
-3.83255
-4.77364
-5.18581
-6.10932
-6.7711
-7.58387
-8.32083
-9.10903
-9.89308
-10.6993
-11.5347
-12.467
-13.5069
-14.6335
-15.8322
-17.0247
-18.1608
-4.85833
-5.97967
-6.34745
-7.20241
-7.80921
-8.54961
-9.23213
-9.95288
-10.6732
-11.4096
-12.1835
-13.0683
-14.0175
-15.0254
-16.0639
-17.1137
-18.2482
-6.02883
-7.08823
-7.46814
-8.23977
-8.81652
-9.48391
-10.1141
-10.7654
-11.4194
-12.0889
-12.8104
-13.6228
-14.4714
-15.3484
-16.1989
-17.0101
-17.8766
-7.21391
-8.20333
-8.57519
-9.25376
-9.78431
-10.3713
-10.9401
-11.5177
-12.1004
-12.7056
-13.3785
-14.1035
-14.8491
-15.5977
-16.2964
-16.9279
-17.5677
-8.40294
-9.26111
-9.62317
-10.204
-10.6865
-11.1969
-11.6979
-12.2016
-12.7164
-13.2659
-13.8801
-14.5054
-15.1254
-15.7082
-16.2424
-16.788
-17.4149
-9.54145
-10.2754
-10.6158
-11.0962
-11.5179
-11.9474
-12.3761
-12.8089
-13.2656
-13.7698
-14.2941
-14.8035
-15.2765
-15.6911
-16.0897
-16.4858
-16.9339
-10.638
-11.2149
-11.5192
-11.8973
-12.2527
-12.6056
-12.9667
-13.3415
-13.7507
-14.1784
-14.5853
-14.9529
-15.2775
-15.5984
-15.9094
-16.1954
-16.4991
-11.63
-12.051
-12.3103
-12.5973
-12.8829
-13.1634
-13.4622
-13.7881
-14.1197
-14.4256
-14.6893
-14.9297
-15.17
-15.4081
-15.6483
-15.9125
-16.2568
-12.4778
-12.7543
-12.9573
-13.1564
-13.3771
-13.5999
-13.8465
-14.0792
-14.2823
-14.4601
-14.6295
-14.7968
-14.9653
-15.1376
-15.3005
-15.4722
-15.7125
-13.1354
-13.2804
-13.4281
-13.5508
-13.7117
-13.873
-14.0117
-14.1334
-14.2449
-14.3561
-14.4695
-14.59
-14.7166
-14.8409
-14.9449
-15.0299
-15.1544
-13.5619
-13.5973
-13.6979
-13.7772
-13.8467
-13.9114
-13.9693
-14.0334
-14.1016
-14.1749
-14.2507
-14.3291
-14.4097
-14.4897
-14.5633
-14.6528
-14.8425
-13.7443
-13.7353
-13.7611
-13.7756
-13.7922
-13.8146
-13.8347
-13.8601
-13.8847
-13.913
-13.9419
-13.9722
-14.0041
-14.035
-14.0561
-14.0915
-14.1997
-13.744
-13.6681
-13.6499
-13.6247
-13.5921
-13.5831
-13.557
-13.5492
-13.5362
-13.5325
-13.5296
-13.5294
-13.5313
-13.5345
-13.5166
-13.4789
-13.5018
-13.5036
-13.3802
-13.3238
-13.2738
-13.1999
-13.1673
-13.1115
-13.0803
-13.0453
-13.0205
-12.9973
-12.9783
-12.9665
-12.9596
-12.9449
-12.9573
-13.0627
-12.9849
-12.8489
-12.7599
-12.7075
-12.6068
-12.5653
-12.4981
-12.4559
-12.4105
-12.374
-12.3402
-12.3115
-12.29
-12.2714
-12.2492
-12.2614
-12.3256
-12.1956
-12.0712
-11.9503
-11.9229
-11.8216
-11.7855
-11.7235
-11.684
-11.6412
-11.6062
-11.5791
-11.5617
-11.5537
-11.55
-11.5419
-11.5371
-11.5426
-11.1005
-11.0609
-10.9431
-10.946
-10.862
-10.8367
-10.786
-10.7603
-10.7411
-10.7341
-10.7365
-10.7438
-10.7573
-10.7775
-10.806
-10.8511
-10.9491
-9.80999
-9.83693
-9.75167
-9.76802
-9.71664
-9.72068
-9.71342
-9.71897
-9.72898
-9.74425
-9.76453
-9.78804
-9.815
-9.84515
-9.88096
-9.92687
-10.0001
-8.37674
-8.43719
-8.39626
-8.43317
-8.43919
-8.46895
-8.49459
-8.52814
-8.56621
-8.6088
-8.65629
-8.70889
-8.76841
-8.83302
-8.90032
-8.9474
-8.97708
-6.68591
-6.83193
-6.82703
-6.92537
-6.97275
-7.05315
-7.12523
-7.2036
-7.28581
-7.37109
-7.46075
-7.55498
-7.65808
-7.76998
-7.89308
-8.02105
-8.22153
-4.84876
-5.0861
-5.11307
-5.29357
-5.38303
-5.51995
-5.64806
-5.77941
-5.91571
-6.05375
-6.1948
-6.33765
-6.48252
-6.61924
-6.76034
-6.92065
-7.14071
-2.96553
-3.2937
-3.35507
-3.59481
-3.74656
-3.93265
-4.11581
-4.29865
-4.48672
-4.67737
-4.87243
-5.07326
-5.2805
-5.48804
-5.70544
-5.88617
-5.99394
-1.09924
-1.51483
-1.61507
-1.89543
-2.10293
-2.33356
-2.56601
-2.79693
-3.03278
-3.27157
-3.51366
-3.75989
-4.01318
-4.27742
-4.57005
-4.86792
-5.2424
0.699682
0.216799
0.0724847
-0.236295
-0.486994
-0.755168
-1.03022
-1.30475
-1.58507
-1.87054
-2.16047
-2.45458
-2.75319
-3.05068
-3.34857
-3.64778
-4.07186
2.41432
1.90001
1.7038
1.36211
1.07037
0.76924
0.458258
0.146971
-0.169912
-0.493786
-0.82453
-1.16325
-1.51295
-1.87048
-2.2387
-2.58335
-2.85203
3.98741
3.46254
3.23614
2.87942
2.55025
2.21833
1.87836
1.53794
1.19185
0.837332
0.474249
0.102307
-0.280135
-0.674713
-1.10106
-1.55125
-2.07174
5.38339
4.86901
4.62981
4.27446
3.93743
3.59163
3.22997
2.86265
2.49035
2.11071
1.72104
1.31949
0.905607
0.483326
0.0534352
-0.375876
-0.959764
6.5941
6.10688
5.86602
5.52031
5.18347
4.8394
4.47664
4.10249
3.7161
3.317
2.90779
2.48543
2.04533
1.58735
1.11053
0.637725
0.242216
7.63115
7.17806
6.94009
6.61373
6.28492
5.94975
5.59508
5.2253
4.84063
4.43965
4.02102
3.5874
3.13571
2.66424
2.15821
1.61153
1.0098
8.50572
8.09241
7.86402
7.56299
7.24901
6.92896
6.58909
6.23167
5.85784
5.46445
5.04997
4.61489
4.15852
3.68097
3.1823
2.6743
1.9942
9.23663
8.86757
8.65207
8.37841
8.08606
7.78588
7.46597
7.12765
6.77012
6.39039
5.99021
5.56572
5.11527
4.6356
4.12408
3.59271
3.12879
9.84064
9.51738
9.31742
9.07255
8.80577
8.52848
8.23254
7.91708
7.5807
7.2247
6.84444
6.4389
6.00554
5.54188
5.03638
4.47078
3.8554
10.3298
10.0548
9.87459
9.65766
9.41804
9.16761
8.89899
8.60965
8.30188
7.97218
7.61801
7.23747
6.82734
6.38552
5.90895
5.40789
4.72478
10.721
10.4937
10.3348
10.148
9.93976
9.71818
9.47703
9.2172
8.93862
8.63826
8.3141
7.96363
7.58329
7.16822
6.71217
6.21884
5.76596
11.0275
10.8475
10.7138
10.5567
10.377
10.182
9.97033
9.74186
9.4936
9.22456
8.93262
8.61542
8.26981
7.89258
7.47289
6.98527
6.44305
11.2609
11.1245
11.0135
10.8827
10.732
10.5692
10.39
10.1918
9.97485
9.7381
9.47986
9.19789
8.88949
8.55181
8.18046
7.78608
7.20368
11.4328
11.3304
11.249
11.1528
11.0361
10.9033
10.7551
10.5894
10.4058
10.2033
9.98059
9.7357
9.46687
9.1689
8.83835
8.4777
8.15023
11.5577
11.491
11.4376
11.375
11.2943
11.1972
11.0842
10.9545
10.8073
10.642
10.4571
10.2511
10.0231
9.76899
9.48621
9.13872
8.79085
11.6499
11.6059
11.5695
11.535
11.4884
11.4253
11.3458
11.2501
11.1379
11.0094
10.8638
10.6988
10.5139
10.3076
10.0805
9.81787
9.44483
-19.8603
-19.9801
-19.7064
-18.9187
-17.3694
-14.7076
-13.4946
-16.7287
-24.7911
-37.1434
-50.0593
-59.1096
-62.2597
-59.9612
-53.7677
-44.4721
-36.7163
-30.0447
-25.8321
-22.5564
-21.1419
-21.5378
-21.5281
-21.0646
-19.9582
-18.3272
-17.9923
-21.3936
-28.394
-38.7201
-49.4358
-57.6483
-60.8079
-59.1465
-54.2301
-45.9088
-37.5008
-30.8549
-26.5064
-23.1802
-22.5591
-23.2633
-23.5969
-23.596
-22.977
-22.3668
-22.9731
-26.487
-32.1911
-40.1523
-48.3299
-55.4058
-58.2542
-56.9457
-52.9865
-46.2326
-37.6429
-31.4913
-27.0302
-23.6968
-24.1254
-25.1752
-25.9485
-26.6091
-26.5388
-27.0876
-28.5283
-31.8645
-36.2419
-41.7726
-47.327
-52.6855
-54.9261
-53.8967
-50.7654
-45.634
-37.8225
-32.1644
-27.3929
-24.074
-25.8346
-27.2537
-28.5427
-30.0264
-30.6865
-32.3525
-34.4535
-37.3427
-40.2848
-43.4081
-46.5414
-49.8116
-51.1612
-50.2903
-47.7202
-43.9452
-37.7234
-32.1088
-27.364
-24.2871
-27.6829
-29.4898
-31.3615
-33.5585
-35.4253
-38.0163
-40.4638
-42.6326
-44.0829
-44.9363
-45.8697
-47.0513
-47.3644
-46.447
-44.2052
-41.2382
-36.6022
-31.2554
-27.2081
-24.3826
-29.6506
-31.8976
-34.4995
-37.1569
-40.4898
-43.7608
-46.1443
-47.3633
-47.3462
-46.3051
-45.3799
-44.5571
-43.832
-42.6988
-40.6862
-38.2287
-34.9847
-30.3299
-27.1515
-24.3371
-31.7003
-34.4708
-37.9193
-40.975
-45.5571
-49.122
-50.9946
-51.1522
-49.859
-47.3312
-45.0178
-42.5522
-40.8289
-39.3475
-37.4613
-35.2476
-33.0164
-29.5028
-26.7564
-24.0846
-33.818
-37.157
-41.0979
-45.0439
-50.217
-53.4772
-54.528
-53.7101
-51.4562
-47.9281
-44.6192
-41.0983
-38.5327
-36.6364
-34.7422
-32.5592
-30.7377
-28.3084
-25.727
-23.8299
-36.028
-39.9467
-43.7836
-48.9355
-53.7524
-56.2329
-56.4553
-54.9194
-52.0906
-48.0511
-44.0847
-40.0901
-36.9778
-34.6978
-32.7032
-30.4724
-28.6521
-27.0764
-24.8822
-23.6746
-38.2508
-42.3635
-46.5799
-52.0832
-55.7521
-57.2272
-56.8223
-54.9153
-51.8377
-47.7251
-43.507
-39.4173
-36.0687
-33.533
-31.432
-29.223
-27.2684
-26.0205
-24.3781
-23.2501
-40.3905
-44.1802
-49.1363
-53.7284
-56.1093
-56.7378
-55.9347
-53.9026
-50.8855
-47.0269
-42.947
-39.0066
-35.6748
-33.054
-30.9192
-28.7983
-26.6958
-25.3482
-24.1949
-22.7614
-42.1902
-46.203
-50.8451
-53.6551
-55.0089
-55.1974
-54.215
-52.2527
-49.4834
-46.0475
-42.3554
-38.7728
-35.6063
-33.0233
-30.9205
-28.9421
-26.8339
-25.33
-24.5965
-23.3147
-44.2951
-47.9256
-50.7909
-52.4979
-53.1529
-53.1104
-52.0622
-50.2754
-47.851
-44.9086
-41.7308
-38.628
-35.8117
-33.451
-31.4809
-29.6782
-27.7463
-26.1202
-25.3996
-24.7218
-46.8921
-48.4569
-49.6984
-50.5886
-50.9951
-50.7616
-49.7678
-48.2183
-46.1722
-43.7342
-41.107
-38.518
-36.1376
-34.0537
-32.2672
-30.6622
-28.9907
-27.347
-26.5184
-26.3894
-47.9469
-47.7956
-47.9983
-48.546
-48.8231
-48.4622
-47.5771
-46.2746
-44.5923
-42.6227
-40.5133
-38.4207
-36.4686
-34.6913
-33.124
-31.72
-30.327
-28.8563
-27.9028
-27.984
-46.8405
-46.1243
-46.2324
-46.6508
-46.8021
-46.407
-45.6484
-44.5691
-43.2045
-41.6358
-39.9686
-38.3068
-36.7403
-35.2719
-33.9183
-32.6867
-31.5202
-30.3244
-29.3426
-29.2416
-44.6055
-44.6358
-44.8592
-45.107
-45.1538
-44.7427
-44.0694
-43.1515
-42.0295
-40.7714
-39.4515
-38.1332
-36.8813
-35.7166
-34.5852
-33.5076
-32.4936
-31.5096
-30.6201
-30.1413
-43.4783
-43.8279
-44.1137
-44.2128
-44.0424
-43.5149
-42.797
-41.9196
-40.9189
-39.8477
-38.7612
-37.6992
-36.6874
-35.7668
-34.9344
-34.1297
-33.3252
-32.5323
-31.7454
-31.098
-43.315
-43.2649
-43.1347
-42.8211
-42.3624
-41.7593
-41.0206
-40.1772
-39.2825
-38.3888
-37.5321
-36.7234
-35.9795
-35.3109
-34.7119
-34.1747
-33.6725
-33.1683
-32.6678
-32.2115
-32.0179
-30.7711
-29.5674
-28.2296
-26.2964
-24.2286
-22.7591
-22.1323
-22.0051
-21.9599
-21.9745
-21.9402
-21.9608
-21.946
-21.8398
-21.6252
-21.3264
-20.9525
-20.5118
-19.9966
-32.0364
-30.9878
-29.8427
-28.4621
-26.4687
-24.5427
-22.8003
-21.7078
-21.1881
-20.83
-20.5751
-20.3639
-20.1653
-19.9567
-19.7193
-19.4376
-19.1133
-18.745
-18.3471
-17.8971
-32.3132
-31.5
-30.3269
-28.2698
-26.1699
-23.9934
-22.0845
-20.9124
-20.1714
-19.6133
-19.1684
-18.7928
-18.4539
-18.1339
-17.8177
-17.492
-17.1563
-16.8035
-16.4526
-16.0685
-32.5364
-31.9026
-30.774
-28.1447
-25.825
-23.106
-21.2641
-20.0535
-19.1106
-18.3677
-17.7698
-17.2641
-16.8203
-16.4209
-16.0519
-15.7009
-15.367
-15.0359
-14.7317
-14.4045
-32.6671
-31.8891
-30.6213
-27.8965
-25.1709
-22.0549
-20.302
-18.9858
-17.8927
-17.0189
-16.3077
-15.709
-15.195
-14.7458
-14.3459
-13.9841
-13.6578
-13.3475
-13.0878
-12.8068
-32.7281
-31.7644
-30.01
-27.3227
-23.9104
-21.0905
-19.2089
-17.7293
-16.5367
-15.5739
-14.7803
-14.1162
-13.5541
-13.0719
-12.6537
-12.2896
-11.9709
-11.6823
-11.4645
-11.2135
-32.7292
-31.6598
-29.1741
-26.4772
-22.2969
-19.8388
-17.9196
-16.3194
-15.0428
-14.0148
-13.1672
-12.4612
-11.869
-11.3678
-10.9418
-10.5793
-10.2658
-10.0037
-9.81209
-9.57036
-32.7064
-31.7372
-28.5969
-25.4884
-20.8729
-18.3706
-16.4017
-14.7488
-13.4138
-12.3414
-11.4621
-10.7338
-10.1266
-9.61781
-9.19134
-8.83013
-8.5243
-8.28876
-8.08703
-7.8555
-32.6667
-31.887
-28.0378
-24.0291
-19.5114
-16.7884
-14.6894
-13.0124
-11.6472
-10.5524
-9.66055
-8.9271
-8.31897
-7.81361
-7.39175
-7.03439
-6.74438
-6.51956
-6.2833
-6.12083
-32.656
-31.8241
-27.0778
-21.9116
-17.8606
-15.021
-12.7914
-11.1065
-9.73872
-8.64709
-7.76205
-7.04001
-6.44494
-5.95287
-5.54107
-5.19635
-4.92609
-4.68898
-4.43995
-4.38343
-32.7132
-31.2864
-25.7258
-19.5424
-15.8074
-13.0027
-10.7105
-9.03556
-7.68909
-6.62692
-5.76945
-5.07607
-4.50807
-4.03895
-3.64591
-3.32376
-3.0667
-2.81153
-2.59984
-2.60957
-32.7593
-29.8973
-24.1696
-17.1881
-13.4539
-10.7235
-8.43944
-6.80356
-5.50411
-4.49767
-3.69048
-3.04416
-2.51763
-2.08264
-1.71991
-1.42596
-1.17369
-0.910292
-0.760365
-0.804474
-32.6097
-27.476
-22.2849
-14.8106
-10.8462
-8.18526
-5.97469
-4.41979
-3.1974
-2.27207
-1.53839
-0.957528
-0.487107
-0.0989225
0.222065
0.483599
0.727915
0.979778
1.0696
1.01741
-31.9213
-24.0493
-19.2406
-12.1069
-7.99955
-5.4222
-3.33095
-1.90088
-0.788382
0.0325893
0.671619
1.17008
1.57015
1.89828