/*--------------------------------*- C++ -*----------------------------------*\
  =========                 |
  \\      /  F ield         | OpenFOAM: The Open Source CFD Toolbox
   \\    /   O peration     | Website:  https://openfoam.org
    \\  /    A nd           | Version:  6
     \\/     M anipulation  |
\*---------------------------------------------------------------------------*/
FoamFile
{
    version     2.0;
    format      ascii;
    class       volScalarField;
    location    "4.97";
    object      rho;
}
// * * * * * * * * * * * * * * * * * * * * * * * * * * * * * * * * * * * * * //

dimensions      [1 -3 0 0 0 0 0];

internalField   nonuniform List<scalar> 
22500
(
1.39999
1.39999
1.39999
1.39999
1.4
1.4
1.4
1.4
1.4
1.4
1.4
1.4
1.4
1.4
1.4
1.40001
1.4
1.40001
1.40001
1.40001
1.4
1.40001
1.4
1.4
1.40001
1.40001
1.4
1.40001
1.40001
1.4
1.40001
1.40001
1.4
1.4
1.40001
1.4
1.4
1.40001
1.4
1.40001
1.4
1.40001
1.4
1.4
1.4
1.40001
1.4
1.40001
1.40001
1.4
1.40001
1.40001
1.40001
1.4
1.40001
1.40001
1.40001
1.40001
1.40001
1.40001
1.40001
1.40001
1.40002
1.40002
1.40002
1.40003
1.40003
1.40003
1.40004
1.40004
1.40005
1.40006
1.40007
1.4001
1.40013
1.40019
1.40027
1.40039
1.40056
1.40081
1.40114
1.40158
1.40215
1.40287
1.40376
1.40483
1.40608
1.40753
1.40917
1.41098
1.41293
1.41501
1.41717
1.41936
1.42156
1.42372
1.42579
1.42776
1.42958
1.43125
1.43274
1.43404
1.43516
1.43609
1.43684
1.4374
1.43779
1.438
1.43803
1.4379
1.43759
1.43709
1.43642
1.43555
1.43448
1.43321
1.43175
1.4301
1.42827
1.42629
1.42418
1.422
1.41977
1.41755
1.41538
1.4133
1.41135
1.40957
1.40795
1.40652
1.40528
1.40422
1.40332
1.40258
1.40198
1.40149
1.40111
1.40081
1.40058
1.4004
1.40028
1.40018
1.40011
1.40007
1.40003
1.40001
1.4
1.39999
1.39999
1.39999
1.39999
1.39999
1.39999
1.39999
1.39999
1.4
1.4
1.4
1.4
1.4
1.4
1.4
1.4
1.4
1.4
1.4
1.40001
1.4
1.40001
1.4
1.4
1.40001
1.40001
1.4
1.40001
1.40001
1.4
1.40001
1.4
1.40001
1.4
1.40001
1.4
1.40001
1.4
1.40001
1.4
1.4
1.40001
1.40001
1.4
1.4
1.40001
1.4
1.4
1.40001
1.40001
1.4
1.40001
1.40001
1.4
1.40001
1.40001
1.40001
1.40001
1.40001
1.40001
1.40001
1.40001
1.40001
1.40001
1.40002
1.40002
1.40002
1.40003
1.40003
1.40004
1.40004
1.40005
1.40006
1.40007
1.40008
1.4001
1.40013
1.40019
1.40027
1.40039
1.40056
1.40081
1.40115
1.40161
1.40221
1.40298
1.40393
1.4051
1.40649
1.40811
1.40994
1.41199
1.41422
1.41659
1.41907
1.42159
1.42412
1.42659
1.42896
1.4312
1.43327
1.43514
1.43681
1.43827
1.43952
1.44056
1.44141
1.44208
1.44258
1.44292
1.4431
1.44314
1.44303
1.44277
1.44235
1.44176
1.44098
1.44001
1.43882
1.43741
1.43577
1.4339
1.43182
1.42955
1.42713
1.42461
1.42204
1.41947
1.41698
1.4146
1.41238
1.41035
1.40854
1.40695
1.40557
1.40441
1.40344
1.40264
1.402
1.40149
1.40109
1.40078
1.40055
1.40038
1.40025
1.40016
1.40009
1.40005
1.40002
1.4
1.39999
1.39999
1.39999
1.39998
1.39998
1.39999
1.39999
1.39999
1.39999
1.4
1.4
1.4
1.4
1.4
1.4
1.4
1.4
1.4
1.4
1.4
1.4
1.4
1.40001
1.4
1.40001
1.40001
1.4
1.40001
1.40001
1.4
1.40001
1.40001
1.4
1.40001
1.40001
1.4
1.40001
1.40001
1.40001
1.4
1.40001
1.4
1.4
1.40001
1.4
1.4
1.40001
1.4
1.4
1.40001
1.4
1.4
1.40001
1.4
1.40001
1.40001
1.40001
1.40001
1.40001
1.40001
1.40001
1.40001
1.40001
1.40002
1.40002
1.40002
1.40003
1.40003
1.40004
1.40004
1.40005
1.40006
1.40007
1.40008
1.40011
1.40014
1.40019
1.40027
1.40038
1.40055
1.4008
1.40114
1.40161
1.40223
1.40304
1.40405
1.40531
1.40681
1.40859
1.41063
1.41291
1.41541
1.41809
1.42088
1.42374
1.42658
1.42936
1.432
1.43448
1.43674
1.43876
1.44053
1.44205
1.44334
1.44439
1.44524
1.44591
1.44641
1.44677
1.44702
1.44715
1.44718
1.44711
1.44693
1.44664
1.44621
1.44563
1.44487
1.4439
1.4427
1.44124
1.4395
1.43749
1.43521
1.43269
1.42997
1.42713
1.42421
1.42131
1.41848
1.4158
1.41331
1.41105
1.40905
1.4073
1.4058
1.40455
1.40351
1.40267
1.402
1.40147
1.40106
1.40075
1.40052
1.40034
1.40022
1.40013
1.40007
1.40003
1.40001
1.39999
1.39999
1.39998
1.39998
1.39998
1.39998
1.39999
1.39999
1.39999
1.39999
1.4
1.4
1.4
1.4
1.4
1.4
1.4
1.4
1.4
1.4
1.4
1.40001
1.4
1.40001
1.4
1.40001
1.4
1.4
1.40001
1.40001
1.4
1.40001
1.40001
1.4
1.40001
1.40001
1.4
1.4
1.40001
1.4
1.4
1.40001
1.40001
1.4
1.40001
1.4
1.4
1.40001
1.4
1.40001
1.4
1.40001
1.40001
1.40001
1.40001
1.40001
1.40001
1.40001
1.40001
1.40001
1.40001
1.40001
1.40002
1.40002
1.40002
1.40003
1.40003
1.40004
1.40005
1.40005
1.40006
1.40007
1.40009
1.40011
1.40014
1.40019
1.40026
1.40037
1.40054
1.40078
1.40112
1.40158
1.40222
1.40305
1.40411
1.40543
1.40705
1.40897
1.41119
1.41371
1.41648
1.41945
1.42257
1.42574
1.4289
1.43195
1.43484
1.4375
1.43989
1.44198
1.44376
1.44524
1.44644
1.44738
1.44809
1.44861
1.44898
1.44923
1.44939
1.44949
1.44953
1.44954
1.44952
1.44946
1.44935
1.44916
1.44888
1.44846
1.44786
1.44703
1.44594
1.44455
1.44282
1.44074
1.43833
1.43561
1.43263
1.42948
1.42623
1.42299
1.41984
1.41687
1.41412
1.41164
1.40945
1.40756
1.40596
1.40462
1.40353
1.40266
1.40196
1.40143
1.40101
1.4007
1.40047
1.40031
1.40019
1.40011
1.40005
1.40002
1.4
1.39998
1.39998
1.39997
1.39998
1.39998
1.39998
1.39999
1.39999
1.39999
1.39999
1.4
1.4
1.4
1.4
1.4
1.4
1.4
1.4
1.4
1.4
1.4
1.40001
1.4
1.40001
1.40001
1.4
1.40001
1.4
1.40001
1.4
1.40001
1.40001
1.4
1.4
1.40001
1.40001
1.4
1.40001
1.40001
1.4
1.40001
1.40001
1.40001
1.4
1.40001
1.40001
1.4
1.4
1.40001
1.40001
1.4
1.40001
1.40001
1.40001
1.40001
1.40001
1.40001
1.40001
1.40001
1.40001
1.40001
1.40002
1.40002
1.40003
1.40003
1.40004
1.40005
1.40005
1.40006
1.40008
1.40009
1.40011
1.40014
1.40019
1.40025
1.40036
1.40051
1.40074
1.40107
1.40153
1.40216
1.403
1.40409
1.40547
1.40718
1.40922
1.41162
1.41435
1.41738
1.42065
1.42408
1.42756
1.43101
1.43433
1.43741
1.44021
1.44265
1.44472
1.44641
1.44773
1.44871
1.4494
1.44983
1.45006
1.45014
1.45011
1.45003
1.44993
1.44983
1.44976
1.44974
1.44977
1.44984
1.44995
1.45006
1.45015
1.45017
1.45007
1.44979
1.44926
1.44843
1.44724
1.44563
1.44359
1.44111
1.43824
1.43504
1.4316
1.42805
1.42449
1.42103
1.41776
1.41477
1.41208
1.40973
1.40772
1.40602
1.40463
1.4035
1.4026
1.4019
1.40136
1.40095
1.40065
1.40043
1.40027
1.40016
1.40008
1.40003
1.4
1.39999
1.39998
1.39997
1.39997
1.39997
1.39998
1.39998
1.39999
1.39999
1.39999
1.4
1.4
1.4
1.4
1.4
1.4
1.4
1.4
1.4
1.4
1.4
1.4
1.40001
1.4
1.40001
1.4
1.4
1.40001
1.4
1.40001
1.4
1.40001
1.4
1.40001
1.4
1.40001
1.4
1.4
1.40001
1.4
1.4
1.40001
1.40001
1.4
1.4
1.40001
1.40001
1.4
1.40001
1.40001
1.4
1.40001
1.40001
1.40001
1.40001
1.40001
1.40001
1.40001
1.40001
1.40001
1.40002
1.40002
1.40002
1.40003
1.40004
1.40004
1.40005
1.40006
1.40008
1.40009
1.40011
1.40014
1.40018
1.40024
1.40034
1.40049
1.4007
1.40101
1.40146
1.40208
1.40292
1.40402
1.40543
1.4072
1.40935
1.41189
1.41483
1.4181
1.42165
1.42537
1.42916
1.43289
1.43643
1.43968
1.44255
1.44498
1.44694
1.44843
1.44948
1.45013
1.45042
1.45043
1.45023
1.44987
1.44943
1.44895
1.44849
1.44809
1.44778
1.44758
1.44752
1.44759
1.44779
1.44812
1.44855
1.44905
1.44957
1.45005
1.45043
1.45063
1.45056
1.45013
1.44926
1.44789
1.44597
1.44351
1.44054
1.43715
1.43346
1.42961
1.42574
1.42199
1.41846
1.41524
1.41238
1.40989
1.40777
1.40601
1.40457
1.40342
1.40251
1.40181
1.40128
1.40088
1.40058
1.40037
1.40023
1.40012
1.40006
1.40002
1.39999
1.39998
1.39997
1.39997
1.39997
1.39997
1.39998
1.39998
1.39999
1.39999
1.39999
1.4
1.4
1.4
1.4
1.4
1.4
1.4
1.4
1.4
1.4
1.4
1.4
1.40001
1.4
1.40001
1.4
1.40001
1.4
1.40001
1.4
1.40001
1.40001
1.4
1.40001
1.4
1.40001
1.4
1.40001
1.40001
1.40001
1.4
1.40001
1.4
1.4
1.4
1.40001
1.4
1.4
1.40001
1.40001
1.4
1.40001
1.40001
1.40001
1.40001
1.40001
1.40001
1.40001
1.40001
1.40002
1.40002
1.40003
1.40004
1.40004
1.40005
1.40006
1.40008
1.40009
1.40011
1.40014
1.40018
1.40024
1.40032
1.40045
1.40065
1.40095
1.40137
1.40197
1.40279
1.40388
1.4053
1.4071
1.40933
1.412
1.4151
1.4186
1.42242
1.42643
1.43051
1.4345
1.43825
1.44162
1.44452
1.44687
1.44864
1.44985
1.45052
1.45072
1.45052
1.45
1.44924
1.44833
1.44735
1.44636
1.44541
1.44457
1.44387
1.44334
1.44301
1.4429
1.443
1.44333
1.44386
1.44459
1.44548
1.44649
1.44757
1.44865
1.44964
1.45045
1.45097
1.45107
1.45065
1.44961
1.4479
1.44551
1.44248
1.43894
1.43502
1.43089
1.42674
1.42271
1.41895
1.41553
1.41251
1.40991
1.40772
1.40591
1.40445
1.40329
1.40239
1.40169
1.40118
1.40079
1.40051
1.40032
1.40018
1.40009
1.40003
1.4
1.39998
1.39997
1.39996
1.39996
1.39997
1.39997
1.39998
1.39998
1.39999
1.39999
1.39999
1.4
1.4
1.4
1.4
1.4
1.4
1.4
1.4
1.4
1.40001
1.4
1.4
1.40001
1.4
1.4
1.40001
1.4
1.40001
1.40001
1.4
1.40001
1.4
1.40001
1.4
1.40001
1.40001
1.4
1.40001
1.40001
1.40001
1.4
1.40001
1.4
1.40001
1.4
1.40001
1.4
1.40001
1.40001
1.40001
1.40001
1.40001
1.40001
1.40001
1.40001
1.40001
1.40001
1.40002
1.40002
1.40003
1.40003
1.40004
1.40005
1.40006
1.40007
1.40009
1.40011
1.40014
1.40017
1.40022
1.4003
1.40042
1.4006
1.40087
1.40127
1.40183
1.40262
1.40368
1.40509
1.4069
1.40917
1.41193
1.41518
1.41888
1.42294
1.42723
1.43159
1.43582
1.43976
1.44323
1.44612
1.44834
1.44986
1.45071
1.45093
1.4506
1.44982
1.44868
1.4473
1.44577
1.44417
1.44258
1.44108
1.43971
1.43852
1.43756
1.43684
1.43638
1.43622
1.43634
1.43675
1.43745
1.43842
1.43965
1.44109
1.44271
1.44444
1.4462
1.4479
1.44942
1.45062
1.45135
1.45146
1.45083
1.44938
1.44711
1.44406
1.44038
1.43624
1.43186
1.42744
1.42318
1.4192
1.41562
1.41247
1.40979
1.40755
1.40573
1.40426
1.40312
1.40223
1.40156
1.40106
1.4007
1.40044
1.40026
1.40014
1.40006
1.40001
1.39998
1.39997
1.39996
1.39996
1.39996
1.39997
1.39997
1.39998
1.39998
1.39999
1.39999
1.4
1.4
1.4
1.4
1.4
1.4
1.4
1.4
1.4
1.4
1.40001
1.40001
1.4
1.40001
1.4
1.40001
1.4
1.4
1.40001
1.4
1.40001
1.40001
1.4
1.40001
1.4
1.40001
1.4
1.40001
1.40001
1.4
1.4
1.4
1.40001
1.4
1.40001
1.40001
1.40001
1.40001
1.40001
1.40001
1.40001
1.40001
1.40001
1.40001
1.40001
1.40001
1.40001
1.40002
1.40002
1.40003
1.40004
1.40005
1.40006
1.40007
1.40009
1.40011
1.40013
1.40017
1.40021
1.40028
1.40039
1.40055
1.4008
1.40116
1.40168
1.40242
1.40344
1.40481
1.4066
1.40888
1.41169
1.41505
1.41891
1.42319
1.42773
1.43236
1.43684
1.44096
1.44452
1.44737
1.44943
1.45066
1.4511
1.45082
1.44992
1.44851
1.44672
1.44467
1.44248
1.44023
1.43803
1.43593
1.434
1.43229
1.43083
1.42965
1.42878
1.42823
1.42801
1.42814
1.42861
1.42942
1.43057
1.43204
1.43381
1.43585
1.43811
1.44053
1.44302
1.44548
1.44777
1.44971
1.45112
1.45182
1.45164
1.45048
1.44834
1.44528
1.44146
1.43712
1.4325
1.42784
1.42336
1.41921
1.4155
1.41228
1.40955
1.40729
1.40547
1.40403
1.40291
1.40205
1.40141
1.40094
1.40061
1.40037
1.40021
1.4001
1.40004
1.39999
1.39998
1.39996
1.39996
1.39996
1.39996
1.39997
1.39997
1.39998
1.39999
1.39999
1.39999
1.4
1.4
1.4
1.4
1.4
1.4
1.4
1.4
1.4
1.4
1.40001
1.4
1.40001
1.4
1.4
1.40001
1.4
1.40001
1.4
1.40001
1.40001
1.40001
1.4
1.40001
1.40001
1.4
1.4
1.40001
1.4
1.4
1.40001
1.40001
1.4
1.4
1.40001
1.4
1.40001
1.40001
1.40001
1.40001
1.40001
1.40001
1.40001
1.40001
1.40001
1.40002
1.40002
1.40003
1.40004
1.40004
1.40006
1.40007
1.40009
1.4001
1.40013
1.40016
1.4002
1.40026
1.40036
1.4005
1.40072
1.40104
1.40152
1.4022
1.40316
1.40448
1.40622
1.40847
1.41128
1.4147
1.41869
1.42315
1.42794
1.43283
1.43755
1.44185
1.4455
1.44831
1.4502
1.45113
1.45114
1.45034
1.44884
1.44679
1.44434
1.44163
1.43878
1.43589
1.43308
1.4304
1.42792
1.42568
1.42373
1.42208
1.42077
1.4198
1.41918
1.41893
1.41905
1.41954
1.42041
1.42165
1.42327
1.42524
1.42756
1.43019
1.43309
1.4362
1.43943
1.44266
1.44573
1.44844
1.45055
1.45185
1.45213
1.45126
1.44924
1.44615
1.4422
1.43765
1.4328
1.42793
1.42327
1.41898
1.41519
1.41192
1.40918
1.40694
1.40515
1.40375
1.40267
1.40185
1.40125
1.40082
1.40051
1.4003
1.40016
1.40007
1.40001
1.39999
1.39997
1.39996
1.39996
1.39996
1.39996
1.39997
1.39998
1.39998
1.39999
1.39999
1.4
1.4
1.4
1.4
1.4
1.4
1.4
1.4
1.4
1.4
1.4
1.4
1.40001
1.4
1.4
1.40001
1.4
1.4
1.40001
1.4
1.4
1.40001
1.40001
1.4
1.40001
1.40001
1.4
1.40001
1.40001
1.4
1.4
1.40001
1.4
1.4
1.4
1.40001
1.40001
1.40001
1.40001
1.40001
1.40001
1.40001
1.40001
1.40001
1.40002
1.40002
1.40003
1.40003
1.40004
1.40005
1.40006
1.40008
1.4001
1.40012
1.40015
1.40019
1.40024
1.40033
1.40045
1.40064
1.40093
1.40135
1.40198
1.40286
1.4041
1.40576
1.40794
1.41073
1.41415
1.41822
1.42283
1.42783
1.43297
1.43794
1.44244
1.44619
1.44899
1.45072
1.45135
1.45094
1.44962
1.44754
1.44487
1.44178
1.43842
1.43494
1.43146
1.42807
1.42485
1.42185
1.41913
1.41672
1.41463
1.41289
1.41151
1.41049
1.40984
1.40957
1.40967
1.41016
1.41104
1.41232
1.41398
1.41605
1.4185
1.42133
1.42451
1.42802
1.43178
1.43573
1.43971
1.44355
1.44702
1.44982
1.4517
1.4524
1.45178
1.44984
1.44669
1.44258
1.43782
1.43276
1.4277
1.4229
1.41853
1.41469
1.41142
1.4087
1.40651
1.40477
1.40343
1.40241
1.40165
1.40109
1.4007
1.40042
1.40023
1.40011
1.40004
1.40001
1.39997
1.39996
1.39995
1.39995
1.39996
1.39997
1.39997
1.39998
1.39998
1.39999
1.39999
1.4
1.4
1.4
1.4
1.4
1.4
1.4
1.4
1.4
1.40001
1.4
1.40001
1.40001
1.4
1.40001
1.4
1.4
1.40001
1.40001
1.40001
1.4
1.40001
1.4
1.4
1.40001
1.40001
1.4
1.4
1.40001
1.4
1.4
1.40001
1.40001
1.4
1.40001
1.40001
1.40001
1.40001
1.40001
1.40001
1.40001
1.40001
1.40001
1.40002
1.40002
1.40003
1.40004
1.40005
1.40006
1.40007
1.40009
1.40011
1.40014
1.40018
1.40023
1.4003
1.4004
1.40057
1.40082
1.40119
1.40175
1.40256
1.40369
1.40525
1.40733
1.41003
1.41342
1.41751
1.42222
1.4274
1.43278
1.43801
1.44273
1.44663
1.44944
1.45104
1.45141
1.45061
1.44881
1.44618
1.44292
1.43922
1.43527
1.43121
1.42718
1.42326
1.41955
1.4161
1.41295
1.41013
1.40765
1.40553
1.40378
1.40239
1.40137
1.40071
1.40043
1.40052
1.40098
1.40183
1.40308
1.40472
1.40678
1.40925
1.41214
1.41543
1.41912
1.42318
1.42756
1.43217
1.43688
1.44146
1.44564
1.44909
1.45148
1.45254
1.4521
1.45017
1.44691
1.44261
1.43764
1.43238
1.42717
1.42227
1.41785
1.41402
1.41079
1.40814
1.40602
1.40436
1.40309
1.40214
1.40144
1.40093
1.40058
1.40033
1.40017
1.40007
1.40003
1.39999
1.39996
1.39995
1.39995
1.39995
1.39996
1.39997
1.39998
1.39998
1.39999
1.39999
1.39999
1.4
1.4
1.4
1.4
1.4
1.4
1.4
1.4
1.4
1.40001
1.4
1.40001
1.4
1.4
1.40001
1.4
1.40001
1.4
1.4
1.40001
1.40001
1.4
1.40001
1.40001
1.40001
1.4
1.40001
1.4
1.40001
1.4
1.40001
1.4
1.40001
1.40001
1.40001
1.40001
1.40001
1.40001
1.40001
1.40001
1.40001
1.40002
1.40002
1.40003
1.40003
1.40004
1.40005
1.40007
1.40009
1.40011
1.40013
1.40016
1.40021
1.40027
1.40036
1.4005
1.40072
1.40104
1.40153
1.40224
1.40327
1.4047
1.40665
1.40923
1.41252
1.41657
1.42134
1.42665
1.43225
1.43774
1.44272
1.4468
1.44969
1.45122
1.45138
1.45026
1.44802
1.44489
1.44109
1.43684
1.43234
1.42776
1.42323
1.41885
1.4147
1.41085
1.40732
1.40414
1.40133
1.39889
1.39682
1.39512
1.39377
1.39278
1.39215
1.39186
1.39193
1.39235
1.39315
1.39432
1.39589
1.39787
1.40027
1.4031
1.40637
1.41008
1.41422
1.41879
1.42374
1.42897
1.43435
1.43962
1.44446
1.44849
1.45131
1.45262
1.45227
1.45026
1.44682
1.4423
1.43711
1.43167
1.42634
1.42139
1.41699
1.4132
1.41005
1.4075
1.40548
1.40392
1.40274
1.40186
1.40122
1.40077
1.40046
1.40025
1.40012
1.40007
1.4
1.39997
1.39995
1.39995
1.39995
1.39996
1.39996
1.39997
1.39998
1.39998
1.39999
1.39999
1.4
1.4
1.4
1.4
1.4
1.4
1.4
1.4
1.4
1.4
1.4
1.40001
1.40001
1.4
1.40001
1.4
1.40001
1.40001
1.4
1.4
1.40001
1.4
1.4
1.40001
1.40001
1.4
1.40001
1.40001
1.40001
1.4
1.40001
1.40001
1.4
1.40001
1.40001
1.40001
1.40001
1.40001
1.40001
1.40001
1.40001
1.40002
1.40002
1.40003
1.40004
1.40005
1.40006
1.40008
1.4001
1.40012
1.40015
1.40019
1.40025
1.40033
1.40044
1.40062
1.4009
1.40132
1.40194
1.40286
1.40415
1.40594
1.40835
1.4115
1.41544
1.42018
1.42559
1.43137
1.43713
1.4424
1.44673
1.44976
1.45131
1.45133
1.44995
1.44734
1.44377
1.4395
1.43476
1.42977
1.42472
1.41974
1.41494
1.41041
1.4062
1.40235
1.39887
1.39578
1.39308
1.39075
1.38879
1.38718
1.38592
1.38499
1.38438
1.3841
1.38414
1.38451
1.38523
1.3863
1.38774
1.38958
1.39184
1.39454
1.39768
1.40129
1.40537
1.40993
1.41497
1.42044
1.42627
1.43228
1.43818
1.44361
1.4481
1.45124
1.45269
1.45229
1.45011
1.44642
1.44164
1.43623
1.43065
1.42525
1.4203
1.41596
1.41227
1.40924
1.40681
1.40491
1.40346
1.40238
1.40159
1.40102
1.40063
1.40036
1.40018
1.40012
1.40003
1.39998
1.39996
1.39995
1.39995
1.39995
1.39996
1.39997
1.39997
1.39998
1.39999
1.39999
1.4
1.4
1.4
1.4
1.4
1.4
1.4
1.4
1.4
1.4
1.4
1.4
1.40001
1.4
1.40001
1.4
1.40001
1.4
1.40001
1.40001
1.4
1.40001
1.40001
1.40001
1.4
1.40001
1.4
1.4
1.40001
1.4
1.4
1.40001
1.40001
1.4
1.40001
1.40001
1.40001
1.40001
1.40001
1.40001
1.40001
1.40002
1.40003
1.40003
1.40004
1.40006
1.40007
1.40009
1.40011
1.40014
1.40017
1.40022
1.40029
1.40039
1.40054
1.40077
1.40113
1.40166
1.40246
1.4036
1.40522
1.40743
1.41038
1.41416
1.4188
1.42422
1.43015
1.43616
1.44175
1.44639
1.44966
1.45131
1.4513
1.44974
1.44685
1.44292
1.43824
1.43306
1.42764
1.42216
1.41678
1.4116
1.40673
1.4022
1.39806
1.39433
1.39101
1.3881
1.38557
1.38342
1.38162
1.38015
1.37899
1.37814
1.37757
1.37729
1.3773
1.3776
1.37821
1.37914
1.38042
1.38208
1.38415
1.38664
1.3896
1.39302
1.39694
1.40136
1.40631
1.41179
1.41777
1.42416
1.43076
1.43724
1.44315
1.448
1.45131
1.45274
1.45216
1.4497
1.4457
1.44064
1.43502
1.42933
1.42392
1.41903
1.41479
1.41124
1.40837
1.40609
1.40434
1.40301
1.40204
1.40133
1.40083
1.40049
1.40027
1.40019
1.40007
1.4
1.39996
1.39995
1.39994
1.39995
1.39995
1.39996
1.39997
1.39998
1.39998
1.39999
1.39999
1.4
1.4
1.4
1.4
1.4
1.4
1.4
1.4
1.4
1.40001
1.4
1.40001
1.40001
1.4
1.4
1.40001
1.40001
1.4
1.40001
1.4
1.4
1.40001
1.40001
1.4
1.40001
1.4
1.4
1.40001
1.40001
1.40001
1.40001
1.40001
1.4
1.40001
1.40001
1.40001
1.40001
1.40001
1.40001
1.40002
1.40002
1.40003
1.40004
1.40005
1.40006
1.40008
1.4001
1.40013
1.40016
1.4002
1.40026
1.40034
1.40047
1.40066
1.40096
1.4014
1.40208
1.40308
1.40451
1.4065
1.40921
1.41276
1.41723
1.42258
1.42858
1.43483
1.44075
1.44577
1.44936
1.45124
1.4513
1.44968
1.4466
1.44239
1.43736
1.43182
1.42601
1.42014
1.41439
1.40887
1.40367
1.39886
1.39447
1.39051
1.387
1.38392
1.38125
1.37896
1.37703
1.37544
1.37414
1.37312
1.37235
1.37183
1.37155
1.37152
1.37173
1.3722
1.37296
1.37404
1.37547
1.37729
1.37953
1.38223
1.38541
1.38909
1.3933
1.39805
1.40338
1.40929
1.41578
1.42271
1.42986
1.43684
1.44314
1.4482
1.45151
1.45275
1.45185
1.44901
1.44464
1.4393
1.43351
1.42775
1.42238
1.4176
1.41352
1.41016
1.40747
1.40537
1.40376
1.40257
1.4017
1.40109
1.40066
1.40037
1.40027
1.40012
1.40003
1.39998
1.39995
1.39994
1.39994
1.39995
1.39996
1.39997
1.39998
1.39998
1.39999
1.39999
1.4
1.4
1.4
1.4
1.4
1.4
1.4
1.4
1.4
1.4
1.4
1.4
1.40001
1.4
1.40001
1.4
1.4
1.40001
1.4
1.4
1.40001
1.4
1.40001
1.40001
1.40001
1.4
1.40001
1.40001
1.4
1.4
1.40001
1.40001
1.4
1.40001
1.40001
1.40001
1.40001
1.40001
1.40001
1.40002
1.40002
1.40003
1.40004
1.40005
1.40007
1.40009
1.40011
1.40014
1.40018
1.40023
1.4003
1.4004
1.40056
1.4008
1.40118
1.40175
1.4026
1.40383
1.4056
1.40804
1.4113
1.41552
1.4207
1.42669
1.43311
1.43938
1.44482
1.44885
1.45106
1.45134
1.44976
1.4466
1.4422
1.4369
1.43104
1.42489
1.41868
1.41258
1.40673
1.40123
1.39615
1.39152
1.38737
1.3837
1.38049
1.37772
1.37536
1.37337
1.37172
1.37036
1.36926
1.3684
1.36775
1.36728
1.367
1.3669
1.367
1.36731
1.36787
1.3687
1.36984
1.37135
1.37328
1.37565
1.37852
1.38191
1.38584
1.39034
1.39542
1.40113
1.4075
1.41449
1.42196
1.42962
1.43702
1.44357
1.44867
1.4518
1.45268
1.45132
1.44801
1.44325
1.43763
1.43171
1.42595
1.42067
1.41607
1.4122
1.40905
1.40656
1.40465
1.40321
1.40216
1.4014
1.40087
1.40051
1.40037
1.40018
1.40006
1.4
1.39996
1.39994
1.39994
1.39995
1.39995
1.39996
1.39997
1.39998
1.39999
1.39999
1.39999
1.4
1.4
1.4
1.4
1.4
1.4
1.4
1.4
1.4
1.40001
1.4
1.40001
1.4
1.40001
1.40001
1.4
1.40001
1.4
1.40001
1.40001
1.40001
1.4
1.40001
1.4
1.4
1.40001
1.40001
1.4
1.40001
1.40001
1.40001
1.40001
1.40001
1.40001
1.40001
1.40001
1.40001
1.40002
1.40002
1.40003
1.40003
1.40005
1.40006
1.40008
1.4001
1.40013
1.40016
1.40021
1.40026
1.40035
1.40048
1.40067
1.40098
1.40145
1.40216
1.40321
1.40474
1.40689
1.40984
1.41373
1.41865
1.42453
1.43104
1.43761
1.44352
1.44807
1.45075
1.45136
1.44998
1.44685
1.44236
1.43688
1.43076
1.42431
1.41778
1.41136
1.40519
1.3994
1.39405
1.38919
1.38486
1.38104
1.37773
1.3749
1.37252
1.37053
1.3689
1.36758
1.3665
1.36565
1.36497
1.36444
1.36403
1.36375
1.36359
1.36356
1.36368
1.36399
1.36452
1.36532
1.36646
1.36798
1.36996
1.37244
1.37546
1.37905
1.38322
1.38801
1.39344
1.39957
1.40641
1.41392
1.42192
1.43004
1.43775
1.4444
1.44935
1.45211
1.45246
1.45052
1.44668
1.44151
1.43565
1.42965
1.42396
1.41885
1.41447
1.41084
1.40794
1.40568
1.40396
1.40269
1.40177
1.40112
1.40067
1.4005
1.40026
1.40011
1.40002
1.39997
1.39995
1.39994
1.39994
1.39995
1.39996
1.39997
1.39998
1.39998
1.39999
1.39999
1.4
1.4
1.4
1.4
1.4
1.4
1.4
1.4
1.4
1.4
1.4
1.4
1.40001
1.40001
1.4
1.40001
1.40001
1.4
1.4
1.40001
1.40001
1.4
1.40001
1.4
1.40001
1.4
1.40001
1.4
1.40001
1.40001
1.40001
1.40001
1.40001
1.40001
1.40001
1.40001
1.40001
1.40002
1.40002
1.40003
1.40004
1.40005
1.40007
1.40009
1.40011
1.40014
1.40018
1.40023
1.4003
1.40041
1.40057
1.40081
1.40119
1.40177
1.40265
1.40395
1.40581
1.40841
1.41193
1.41651
1.42214
1.42862
1.43543
1.4418
1.44695
1.45023
1.45134
1.45029
1.44734
1.44286
1.43727
1.43096
1.42426
1.41744
1.41071
1.40423
1.39815
1.39253
1.38744
1.38292
1.37897
1.37558
1.37272
1.37035
1.36843
1.36689
1.36568
1.36473
1.36399
1.36341
1.36294
1.36255
1.36223
1.36195
1.36171
1.36154
1.36145
1.36147
1.36166
1.36207
1.36275
1.3638
1.36528
1.36727
1.36982
1.37298
1.37676
1.38119
1.38629
1.39211
1.39869
1.40604
1.4141
1.42259
1.4311
1.43899
1.44555
1.45015
1.45233
1.452
1.44938
1.44498
1.43943
1.43339
1.4274
1.42184
1.41696
1.41284
1.4095
1.40686
1.40483
1.40332
1.40221
1.40142
1.40087
1.40066
1.40036
1.40017
1.40005
1.39999
1.39996
1.39994
1.39994
1.39995
1.39996
1.39997
1.39997
1.39998
1.39999
1.39999
1.4
1.4
1.4
1.4
1.4
1.4
1.4
1.4
1.4
1.4
1.40001
1.4
1.40001
1.4
1.40001
1.4
1.40001
1.4
1.4
1.40001
1.40001
1.4
1.4
1.40001
1.4
1.4
1.40001
1.4
1.40001
1.40001
1.40001
1.40001
1.40001
1.40001
1.40001
1.40001
1.40001
1.40002
1.40002
1.40003
1.40004
1.40006
1.40007
1.4001
1.40012
1.40016
1.4002
1.40026
1.40035
1.40047
1.40067
1.40097
1.40144
1.40216
1.40324
1.40482
1.40707
1.41018
1.41433
1.41962
1.42593
1.43285
1.43964
1.44542
1.44942
1.45119
1.45064
1.448
1.44367
1.43808
1.43165
1.42474
1.41765
1.41063
1.40385
1.39745
1.39156
1.38623
1.38151
1.37742
1.37395
1.37108
1.36877
1.36695
1.36556
1.36454
1.3638
1.36329
1.36292
1.36265
1.36242
1.36221
1.36197
1.3617
1.3614
1.36107
1.36075
1.36047
1.36027
1.36023
1.36041
1.3609
1.36179
1.36317
1.36514
1.36774
1.37103
1.37502
1.37972
1.38517
1.39142
1.3985
1.40641
1.41501
1.42398
1.43276
1.44066
1.44693
1.45094
1.45237
1.45122
1.44787
1.44291
1.43704
1.4309
1.42499
1.41965
1.41504
1.41124
1.40819
1.40583
1.40404
1.40273
1.40178
1.40111
1.40085
1.40048
1.40025
1.4001
1.40001
1.39997
1.39995
1.39994
1.39995
1.39995
1.39996
1.39997
1.39998
1.39998
1.39999
1.39999
1.4
1.4
1.4
1.4
1.4
1.4
1.4
1.4
1.4
1.4
1.40001
1.40001
1.4
1.40001
1.4
1.4
1.40001
1.4
1.40001
1.40001
1.40001
1.4
1.40001
1.40001
1.4
1.40001
1.4
1.40001
1.4
1.40001
1.40001
1.40001
1.40001
1.40001
1.40001
1.40001
1.40002
1.40003
1.40004
1.40005
1.40006
1.40008
1.40011
1.40014
1.40018
1.40023
1.40029
1.4004
1.40055
1.40079
1.40116
1.40174
1.40262
1.40393
1.40584
1.40853
1.41221
1.41704
1.42303
1.4299
1.43701
1.44343
1.44824
1.45081
1.45093
1.44878
1.44473
1.43924
1.43278
1.42572
1.41841
1.4111
1.40401
1.39731
1.39111
1.38552
1.38059
1.37635
1.37279
1.36991
1.36766
1.36597
1.36479
1.36402
1.36357
1.36337
1.36333
1.36338
1.36345
1.36348
1.36345
1.36331
1.36306
1.36269
1.36222
1.36166
1.36106
1.36047
1.35995
1.35957
1.35944
1.35966
1.36033
1.36158
1.36351
1.36616
1.36959
1.3738
1.37881
1.38465
1.39138
1.39903
1.40753
1.41667
1.42603
1.43494
1.44264
1.44837
1.45159
1.45208
1.45003
1.44593
1.44048
1.43437
1.42823
1.42249
1.41742
1.41315
1.40968
1.40696
1.40487
1.40332
1.40219
1.4014
1.40107
1.40063
1.40034
1.40015
1.40004
1.39998
1.39995
1.39994
1.39994
1.39995
1.39996
1.39997
1.39998
1.39998
1.39999
1.39999
1.4
1.4
1.4
1.4
1.4
1.4
1.4
1.4
1.4
1.4
1.40001
1.4
1.40001
1.40001
1.4
1.4
1.40001
1.4
1.40001
1.40001
1.4
1.4
1.4
1.40001
1.4
1.40001
1.4
1.40001
1.40001
1.40001
1.40001
1.40001
1.40001
1.40001
1.40001
1.40002
1.40002
1.40003
1.40004
1.40005
1.40007
1.40009
1.40012
1.40015
1.40019
1.40025
1.40033
1.40046
1.40064
1.40093
1.40139
1.4021
1.40316
1.40474
1.40702
1.4102
1.41451
1.42004
1.42668
1.43394
1.4409
1.44656
1.45008
1.45106
1.44957
1.44597
1.44072
1.43432
1.42719
1.41969
1.41212
1.40473
1.3977
1.39119
1.38531
1.38013
1.37571
1.37204
1.36913
1.36694
1.3654
1.36444
1.36396
1.36387
1.36406
1.36443
1.3649
1.36536
1.36577
1.36607
1.36621
1.36618
1.36595
1.36552
1.36491
1.36414
1.36324
1.36225
1.36125
1.3603
1.35952
1.35901
1.3589
1.35933
1.36044
1.36231
1.36503
1.36862
1.37309
1.37846
1.38476
1.39204
1.4003
1.40941
1.41905
1.42867
1.43752
1.44478
1.44973
1.45194
1.45138
1.44838
1.44358
1.43772
1.43148
1.42543
1.41995
1.41522
1.41132
1.40821
1.40581
1.404
1.40267
1.40173
1.40133
1.4008
1.40044
1.40022
1.40008
1.4
1.39996
1.39995
1.39994
1.39995
1.39996
1.39996
1.39997
1.39998
1.39999
1.39999
1.4
1.4
1.4
1.4
1.4
1.4
1.4
1.4
1.4
1.40001
1.4
1.40001
1.4
1.4
1.40001
1.4
1.40001
1.40001
1.4
1.4
1.4
1.40001
1.4
1.40001
1.40001
1.40001
1.4
1.40001
1.40001
1.4
1.40001
1.40001
1.40001
1.40001
1.40001
1.40002
1.40002
1.40003
1.40004
1.40006
1.40008
1.4001
1.40013
1.40017
1.40021
1.40028
1.40038
1.40052
1.40075
1.4011
1.40166
1.40251
1.40379
1.40568
1.40837
1.41211
1.41707
1.4233
1.43048
1.43784
1.44431
1.44887
1.45089
1.45027
1.44729
1.44244
1.43622
1.42909
1.42147
1.41367
1.40599
1.39863
1.39178
1.38558
1.38012
1.37547
1.37165
1.36868
1.36652
1.36511
1.36437
1.36421
1.36451
1.36514
1.36599
1.36694
1.36789
1.36876
1.36948
1.37
1.3703
1.37035
1.37014
1.36966
1.36894
1.36798
1.36681
1.36547
1.36403
1.36255
1.36113
1.35989
1.35896
1.35851
1.35869
1.35965
1.36151
1.36433
1.36812
1.3729
1.37869
1.38552
1.39343
1.40234
1.41205
1.4221
1.43181
1.44036
1.4469
1.45082
1.45186
1.45016
1.44624
1.44083
1.43467
1.42843
1.42259
1.41744
1.4131
1.4096
1.40685
1.40476
1.40322
1.40211
1.40163
1.40099
1.40057
1.4003
1.40013
1.40003
1.39998
1.39995
1.39994
1.39995
1.39995
1.39996
1.39997
1.39998
1.39998
1.39999
1.39999
1.4
1.4
1.4
1.4
1.4
1.4
1.4
1.4
1.40001
1.4
1.4
1.40001
1.4
1.40001
1.40001
1.4
1.40001
1.40001
1.4
1.4
1.40001
1.4
1.40001
1.40001
1.40001
1.40001
1.40001
1.40001
1.4
1.40001
1.40001
1.40001
1.40001
1.40002
1.40002
1.40003
1.40004
1.40005
1.40006
1.40008
1.40011
1.40014
1.40018
1.40023
1.40031
1.40043
1.4006
1.40087
1.4013
1.40196
1.40299
1.40451
1.40675
1.40991
1.41424
1.41989
1.42676
1.43427
1.44143
1.44706
1.45026
1.45071
1.44857
1.44429
1.4384
1.43139
1.42371
1.41574
1.40778
1.4001
1.39289
1.38633
1.38055
1.37562
1.3716
1.36851
1.36633
1.36502
1.36449
1.36463
1.36533
1.36642
1.36778
1.36925
1.37073
1.3721
1.37329
1.37425
1.37494
1.37533
1.37542
1.37522
1.37471
1.3739
1.37281
1.37144
1.36984
1.36804
1.3661
1.36412
1.3622
1.36048
1.35913
1.35833
1.35829
1.35916
1.36105
1.36401
1.36807
1.37324
1.37954
1.387
1.39559
1.40518
1.41542
1.42573
1.43529
1.44324
1.44879
1.45147
1.45121
1.44837
1.44362
1.43772
1.43142
1.42531
1.41977
1.41501
1.4111
1.408
1.40562
1.40384
1.40254
1.40196
1.40122
1.40072
1.40039
1.40019
1.40006
1.39999
1.39996
1.39995
1.39995
1.39995
1.39996
1.39997
1.39998
1.39998
1.39999
1.39999
1.4
1.4
1.4
1.4
1.4
1.4
1.4
1.4
1.4
1.40001
1.4
1.40001
1.40001
1.4
1.40001
1.4
1.40001
1.40001
1.4
1.4
1.40001
1.4
1.40001
1.4
1.40001
1.40001
1.4
1.40001
1.40001
1.40001
1.40001
1.40001
1.40001
1.40002
1.40002
1.40003
1.40004
1.40005
1.40007
1.40009
1.40012
1.40015
1.4002
1.40026
1.40035
1.40048
1.40069
1.40101
1.40153
1.40232
1.40354
1.40534
1.40796
1.41164
1.41661
1.42293
1.43031
1.43792
1.44453
1.44902
1.45074
1.44966
1.44616
1.44077
1.43401
1.42638
1.4183
1.4101
1.4021
1.39453
1.38758
1.38142
1.37616
1.37187
1.36859
1.36633
1.36505
1.36468
1.3651
1.36617
1.36772
1.36959
1.37161
1.37362
1.3755
1.37717
1.37855
1.37963
1.38037
1.38079
1.38088
1.38066
1.38012
1.37928
1.37812
1.37666
1.3749
1.37287
1.37061
1.36818
1.3657
1.36328
1.3611
1.35935
1.35827
1.35807
1.35891
1.3609
1.3641
1.36852
1.37417
1.38107
1.38924
1.39856
1.4088
1.41946
1.42979
1.43892
1.44596
1.45025
1.45151
1.44991
1.446
1.44054
1.43433
1.42805
1.42218
1.41703
1.41272
1.40925
1.40656
1.40452
1.40303
1.40234
1.40148
1.40089
1.4005
1.40026
1.4001
1.40002
1.39997
1.39995
1.39995
1.39995
1.39996
1.39997
1.39997
1.39998
1.39999
1.39999
1.4
1.4
1.4
1.4
1.4
1.4
1.4
1.4
1.4
1.40001
1.40001
1.4
1.40001
1.40001
1.4
1.40001
1.40001
1.40001
1.4
1.4
1.40001
1.4
1.40001
1.4
1.4
1.40001
1.4
1.40001
1.40001
1.40001
1.40001
1.40001
1.40001
1.40002
1.40002
1.40003
1.40004
1.40005
1.40007
1.4001
1.40013
1.40016
1.40022
1.40029
1.40039
1.40054
1.40079
1.40117
1.40179
1.40273
1.40416
1.40628
1.40933
1.41356
1.41918
1.42613
1.43385
1.44125
1.44701
1.45016
1.45038
1.4479
1.44321
1.43687
1.42942
1.42131
1.41294
1.40464
1.39669
1.38934
1.38277
1.37711
1.37247
1.36893
1.3665
1.36517
1.36487
1.3655
1.36691
1.36889
1.37126
1.3738
1.37634
1.37871
1.38083
1.3826
1.38401
1.38505
1.38574
1.38609
1.38613
1.38587
1.38534
1.38451
1.38339
1.38194
1.38017
1.37806
1.37564
1.37295
1.37007
1.3671
1.36422
1.36161
1.35953
1.35824
1.35796
1.35887
1.36106
1.3646
1.36948
1.37573
1.38335
1.39229
1.40236
1.41316
1.42403
1.43411
1.44246
1.44827
1.45107
1.45082
1.44792
1.44308
1.4371
1.43076
1.42464
1.41913
1.41443
1.4106
1.40758
1.40528
1.40357
1.40276
1.40177
1.40109
1.40063
1.40033
1.40015
1.40004
1.39999
1.39996
1.39995
1.39995
1.39996
1.39997
1.39997
1.39998
1.39999
1.39999
1.4
1.4
1.4
1.4
1.4
1.4
1.4
1.40001
1.4
1.4
1.40001
1.4
1.4
1.40001
1.4
1.40001
1.40001
1.4
1.40001
1.4
1.40001
1.4
1.40001
1.40001
1.4
1.40001
1.40001
1.40001
1.40001
1.40001
1.40001
1.40001
1.40001
1.40002
1.40003
1.40003
1.40005
1.40006
1.40008
1.4001
1.40014
1.40018
1.40023
1.40031
1.40043
1.40061
1.4009
1.40136
1.40208
1.40319
1.40487
1.40733
1.41085
1.41567
1.42193
1.4294
1.43724
1.44413
1.44879
1.45053
1.44932
1.44557
1.43985
1.43273
1.42472
1.41625
1.4077
1.39941
1.39164
1.3846
1.37849
1.37344
1.36953
1.36683
1.36534