/*--------------------------------*- C++ -*----------------------------------*\
  =========                 |
  \\      /  F ield         | OpenFOAM: The Open Source CFD Toolbox
   \\    /   O peration     | Website:  https://openfoam.org
    \\  /    A nd           | Version:  6
     \\/     M anipulation  |
\*---------------------------------------------------------------------------*/
FoamFile
{
    version     2.0;
    format      ascii;
    class       volVectorField;
    location    "1.43";
    object      U;
}
// * * * * * * * * * * * * * * * * * * * * * * * * * * * * * * * * * * * * * //

dimensions      [0 1 -1 0 0 0 0];

internalField   nonuniform List<vector> 
5625
(
(1.19924 -0.180767 0)
(1.25259 -0.183755 0)
(1.3035 -0.164235 0)
(1.35009 -0.122946 0)
(1.39088 -0.0618167 0)
(1.42482 0.0163775 0)
(1.45127 0.108459 0)
(1.46993 0.211092 0)
(1.48086 0.320898 0)
(1.48465 0.4344 0)
(1.48228 0.548027 0)
(1.4748 0.658406 0)
(1.46281 0.762211 0)
(1.44616 0.85547 0)
(1.42416 0.933238 0)
(1.3963 0.990589 0)
(1.3628 1.02431 0)
(1.3247 1.03396 0)
(1.28342 1.02178 0)
(1.2403 0.991685 0)
(1.19649 0.948232 0)
(1.15303 0.895967 0)
(1.11105 0.83906 0)
(1.07167 0.78116 0)
(1.03596 0.725266 0)
(1.0047 0.673616 0)
(0.978298 0.627663 0)
(0.956747 0.588118 0)
(0.939719 0.555082 0)
(0.926664 0.528218 0)
(0.916925 0.506909 0)
(0.909845 0.490395 0)
(0.904814 0.477883 0)
(0.901316 0.468602 0)
(0.898932 0.461862 0)
(0.897335 0.457067 0)
(0.896283 0.453724 0)
(0.895599 0.451439 0)
(0.895159 0.449906 0)
(0.894879 0.448899 0)
(0.894702 0.448249 0)
(0.89459 0.447836 0)
(0.89452 0.44758 0)
(0.894475 0.447423 0)
(0.894447 0.447329 0)
(0.89443 0.447273 0)
(0.894419 0.447241 0)
(0.894412 0.447223 0)
(0.894407 0.447213 0)
(0.894404 0.447207 0)
(0.894403 0.447203 0)
(0.894402 0.447202 0)
(0.894401 0.447201 0)
(0.894401 0.4472 0)
(0.8944 0.4472 0)
(0.8944 0.4472 0)
(0.8944 0.4472 0)
(0.8944 0.4472 0)
(0.8944 0.4472 0)
(0.8944 0.4472 0)
(0.8944 0.4472 0)
(0.8944 0.4472 0)
(0.8944 0.4472 0)
(0.8944 0.4472 0)
(0.8944 0.4472 0)
(0.8944 0.4472 0)
(0.8944 0.4472 0)
(0.8944 0.4472 0)
(0.8944 0.4472 0)
(0.8944 0.4472 0)
(0.8944 0.4472 0)
(0.8944 0.4472 0)
(0.8944 0.4472 0)
(0.8944 0.4472 0)
(0.8944 0.4472 0)
(1.22439 -0.148323 0)
(1.28209 -0.153152 0)
(1.33734 -0.136372 0)
(1.38813 -0.098535 0)
(1.43287 -0.0413844 0)
(1.47041 0.0324692 0)
(1.49999 0.119987 0)
(1.52122 0.217904 0)
(1.5341 0.322852 0)
(1.53912 0.431271 0)
(1.53714 0.539552 0)
(1.52906 0.644343 0)
(1.51541 0.742363 0)
(1.49603 0.829755 0)
(1.47032 0.901898 0)
(1.43796 0.954393 0)
(1.39944 0.984555 0)
(1.35609 0.992273 0)
(1.30955 0.979824 0)
(1.26138 0.950967 0)
(1.21295 0.910012 0)
(1.16546 0.861198 0)
(1.12012 0.808372 0)
(1.0781 0.754857 0)
(1.0404 0.703343 0)
(1.00772 0.655818 0)
(0.98033 0.613558 0)
(0.958121 0.577184 0)
(0.940659 0.546776 0)
(0.927317 0.522026 0)
(0.917388 0.502375 0)
(0.910176 0.487132 0)
(0.905055 0.475572 0)
(0.901492 0.466994 0)
(0.899059 0.460761 0)
(0.897428 0.456325 0)
(0.89635 0.453232 0)
(0.895646 0.451118 0)
(0.895192 0.4497 0)
(0.894902 0.448768 0)
(0.894717 0.448167 0)
(0.8946 0.447787 0)
(0.894527 0.44755 0)
(0.89448 0.447405 0)
(0.89445 0.447319 0)
(0.894431 0.447267 0)
(0.89442 0.447238 0)
(0.894412 0.447221 0)
(0.894408 0.447211 0)
(0.894405 0.447206 0)
(0.894403 0.447203 0)
(0.894402 0.447201 0)
(0.894401 0.447201 0)
(0.894401 0.4472 0)
(0.8944 0.4472 0)
(0.8944 0.4472 0)
(0.8944 0.4472 0)
(0.8944 0.4472 0)
(0.8944 0.4472 0)
(0.8944 0.4472 0)
(0.8944 0.4472 0)
(0.8944 0.4472 0)
(0.8944 0.4472 0)
(0.8944 0.4472 0)
(0.8944 0.4472 0)
(0.8944 0.4472 0)
(0.8944 0.4472 0)
(0.8944 0.4472 0)
(0.8944 0.4472 0)
(0.8944 0.4472 0)
(0.8944 0.4472 0)
(0.8944 0.4472 0)
(0.8944 0.4472 0)
(0.8944 0.4472 0)
(0.8944 0.4472 0)
(1.24093 -0.112192 0)
(1.30209 -0.118948 0)
(1.36095 -0.105187 0)
(1.41533 -0.0712077 0)
(1.46351 -0.0185524 0)
(1.50421 0.0503802 0)
(1.53658 0.132687 0)
(1.56013 0.225198 0)
(1.5748 0.324541 0)
(1.58097 0.427111 0)
(1.57937 0.529347 0)
(1.57076 0.627976 0)
(1.55557 0.719756 0)
(1.53364 0.800932 0)
(1.50451 0.867212 0)
(1.46813 0.914743 0)
(1.42529 0.941385 0)
(1.37754 0.947356 0)
(1.32673 0.934955 0)
(1.2746 0.907736 0)
(1.22264 0.869702 0)
(1.17219 0.824743 0)
(1.12452 0.776354 0)
(1.08078 0.727515 0)
(1.04191 0.680612 0)
(1.0085 0.637388 0)
(0.980694 0.598957 0)
(0.958275 0.565862 0)
(0.940722 0.538169 0)
(0.927349 0.515603 0)
(0.917417 0.497666 0)
(0.91021 0.48374 0)
(0.905092 0.473169 0)
(0.901531 0.465319 0)
(0.899097 0.459613 0)
(0.89746 0.455551 0)
(0.896376 0.452719 0)
(0.895667 0.450782 0)
(0.895208 0.449485 0)
(0.894914 0.448633 0)
(0.894726 0.448083 0)
(0.894606 0.447734 0)
(0.894531 0.447518 0)
(0.894483 0.447386 0)
(0.894452 0.447307 0)
(0.894433 0.447261 0)
(0.894421 0.447234 0)
(0.894413 0.447218 0)
(0.894408 0.44721 0)
(0.894405 0.447205 0)
(0.894403 0.447203 0)
(0.894402 0.447201 0)
(0.894401 0.447201 0)
(0.894401 0.4472 0)
(0.8944 0.4472 0)
(0.8944 0.4472 0)
(0.8944 0.4472 0)
(0.8944 0.4472 0)
(0.8944 0.4472 0)
(0.8944 0.4472 0)
(0.8944 0.4472 0)
(0.8944 0.4472 0)
(0.8944 0.4472 0)
(0.8944 0.4472 0)
(0.8944 0.4472 0)
(0.8944 0.4472 0)
(0.8944 0.4472 0)
(0.8944 0.4472 0)
(0.8944 0.4472 0)
(0.8944 0.4472 0)
(0.8944 0.4472 0)
(0.8944 0.4472 0)
(0.8944 0.4472 0)
(0.8944 0.4472 0)
(0.8944 0.4472 0)
(1.24874 -0.0729763 0)
(1.31224 -0.0815715 0)
(1.37378 -0.0709427 0)
(1.43098 -0.0411114 0)
(1.48197 0.00664499 0)
(1.52533 0.070145 0)
(1.56007 0.146653 0)
(1.58563 0.233089 0)
(1.60189 0.326093 0)
(1.60911 0.422106 0)
(1.60789 0.517689 0)
(1.59883 0.609668 0)
(1.58227 0.694831 0)
(1.55807 0.769527 0)
(1.52596 0.829815 0)
(1.48619 0.872407 0)
(1.43985 0.8957 0)
(1.38872 0.900202 0)
(1.33478 0.888198 0)
(1.27986 0.863003 0)
(1.22555 0.828263 0)
(1.17328 0.787483 0)
(1.12433 0.743782 0)
(1.07983 0.699798 0)
(1.04062 0.65762 0)
(1.00716 0.618767 0)
(0.979489 0.584209 0)
(0.957286 0.55442 0)
(0.939965 0.529462 0)
(0.926804 0.509098 0)
(0.917043 0.492892 0)
(0.909966 0.480296 0)
(0.904941 0.470727 0)
(0.901442 0.463616 0)
(0.899048 0.458446 0)
(0.897436 0.454764 0)
(0.896366 0.452196 0)
(0.895664 0.450441 0)
(0.895209 0.449266 0)
(0.894916 0.448493 0)
(0.894728 0.447996 0)
(0.894608 0.447681 0)
(0.894532 0.447486 0)
(0.894484 0.447368 0)
(0.894453 0.447296 0)
(0.894434 0.447254 0)
(0.894421 0.44723 0)
(0.894413 0.447217 0)
(0.894408 0.447209 0)
(0.894405 0.447205 0)
(0.894403 0.447202 0)
(0.894402 0.447201 0)
(0.894401 0.447201 0)
(0.894401 0.4472 0)
(0.8944 0.4472 0)
(0.8944 0.4472 0)
(0.8944 0.4472 0)
(0.8944 0.4472 0)
(0.8944 0.4472 0)
(0.8944 0.4472 0)
(0.8944 0.4472 0)
(0.8944 0.4472 0)
(0.8944 0.4472 0)
(0.8944 0.4472 0)
(0.8944 0.4472 0)
(0.8944 0.4472 0)
(0.8944 0.4472 0)
(0.8944 0.4472 0)
(0.8944 0.4472 0)
(0.8944 0.4472 0)
(0.8944 0.4472 0)
(0.8944 0.4472 0)
(0.8944 0.4472 0)
(0.8944 0.4472 0)
(0.8944 0.4472 0)
(1.24819 -0.0314855 0)
(1.31272 -0.0416678 0)
(1.37579 -0.0341103 0)
(1.43487 -0.00854815 0)
(1.48789 0.0340216 0)
(1.53326 0.0916757 0)
(1.56989 0.161864 0)
(1.59712 0.241615 0)
(1.61474 0.327649 0)
(1.62289 0.416527 0)
(1.62203 0.504975 0)
(1.61265 0.589916 0)
(1.59496 0.668171 0)
(1.56886 0.736214 0)
(1.53434 0.790492 0)
(1.49196 0.828293 0)
(1.44311 0.848519 0)
(1.38972 0.851907 0)
(1.33386 0.840671 0)
(1.27739 0.817843 0)
(1.22196 0.786684 0)
(1.16902 0.750296 0)
(1.11986 0.711416 0)
(1.07553 0.672339 0)
(1.03676 0.634884 0)
(1.0039 0.600365 0)
(0.976869 0.56963 0)
(0.955273 0.5431 0)
(0.938478 0.520839 0)
(0.925742 0.502648 0)
(0.916309 0.488152 0)
(0.909474 0.476872 0)
(0.904621 0.468296 0)
(0.901239 0.46192 0)
(0.898922 0.457282 0)
(0.89736 0.453979 0)
(0.896322 0.451675 0)
(0.895639 0.450101 0)
(0.895195 0.449047 0)
(0.894909 0.448355 0)
(0.894724 0.44791 0)
(0.894606 0.447628 0)
(0.894532 0.447454 0)
(0.894484 0.447348 0)
(0.894453 0.447285 0)
(0.894434 0.447248 0)
(0.894421 0.447226 0)
(0.894413 0.447215 0)
(0.894408 0.447208 0)
(0.894405 0.447204 0)
(0.894403 0.447202 0)
(0.894402 0.447201 0)
(0.894401 0.4472 0)
(0.894401 0.4472 0)
(0.8944 0.4472 0)
(0.8944 0.4472 0)
(0.8944 0.4472 0)
(0.8944 0.4472 0)
(0.8944 0.4472 0)
(0.8944 0.4472 0)
(0.8944 0.4472 0)
(0.8944 0.4472 0)
(0.8944 0.4472 0)
(0.8944 0.4472 0)
(0.8944 0.4472 0)
(0.8944 0.4472 0)
(0.8944 0.4472 0)
(0.8944 0.4472 0)
(0.8944 0.4472 0)
(0.8944 0.4472 0)
(0.8944 0.4472 0)
(0.8944 0.4472 0)
(0.8944 0.4472 0)
(0.8944 0.4472 0)
(0.8944 0.4472 0)
(1.24013 0.0113472 0)
(1.30427 -5.08221e-05 0)
(1.36758 0.00464796 0)
(1.42741 0.0259711 0)
(1.48151 0.0632261 0)
(1.52815 0.114753 0)
(1.56609 0.178219 0)
(1.59458 0.250812 0)
(1.61328 0.329389 0)
(1.62224 0.410716 0)
(1.62174 0.491694 0)
(1.61215 0.569325 0)
(1.5936 0.640469 0)
(1.56607 0.701789 0)
(1.52982 0.750168 0)
(1.48575 0.783448 0)
(1.43547 0.800976 0)
(1.38103 0.803641 0)
(1.3245 0.793526 0)
(1.26774 0.773338 0)
(1.2124 0.74594 0)
(1.15993 0.714024 0)
(1.11156 0.679956 0)
(1.06826 0.645713 0)
(1.03066 0.612862 0)
(0.998975 0.582545 0)
(0.973036 0.555504 0)
(0.952386 0.53212 0)
(0.936368 0.512462 0)
(0.924242 0.496374 0)
(0.91527 0.483535 0)
(0.908771 0.473535 0)
(0.904155 0.465925 0)
(0.900937 0.460264 0)
(0.89873 0.456145 0)
(0.897241 0.453211 0)
(0.896248 0.451165 0)
(0.895594 0.449768 0)
(0.895168 0.448833 0)
(0.894893 0.44822 0)
(0.894715 0.447826 0)
(0.894601 0.447577 0)
(0.894528 0.447423 0)
(0.894482 0.44733 0)
(0.894452 0.447274 0)
(0.894433 0.447242 0)
(0.894421 0.447223 0)
(0.894413 0.447213 0)
(0.894408 0.447207 0)
(0.894405 0.447203 0)
(0.894403 0.447202 0)
(0.894402 0.447201 0)
(0.894401 0.4472 0)
(0.894401 0.4472 0)
(0.8944 0.4472 0)
(0.8944 0.4472 0)
(0.8944 0.4472 0)
(0.8944 0.4472 0)
(0.8944 0.4472 0)
(0.8944 0.4472 0)
(0.8944 0.4472 0)
(0.8944 0.4472 0)
(0.8944 0.4472 0)
(0.8944 0.4472 0)
(0.8944 0.4472 0)
(0.8944 0.4472 0)
(0.8944 0.4472 0)
(0.8944 0.4472 0)
(0.8944 0.4472 0)
(0.8944 0.4472 0)
(0.8944 0.4472 0)
(0.8944 0.4472 0)
(0.8944 0.4472 0)
(0.8944 0.4472 0)
(0.8944 0.4472 0)
(1.22575 0.0545564 0)
(1.28811 0.0423664 0)
(1.3503 0.0445332 0)
(1.40964 0.0618095 0)
(1.46377 0.0937733 0)
(1.51082 0.13906 0)
(1.54941 0.195582 0)
(1.57867 0.260726 0)
(1.59814 0.331568 0)
(1.60771 0.405101 0)
(1.60756 0.478402 0)
(1.59788 0.548551 0)
(1.57877 0.612488 0)
(1.55035 0.667143 0)
(1.51316 0.709866 0)
(1.46839 0.739007 0)
(1.41785 0.754254 0)
(1.36357 0.756577 0)
(1.3076 0.747871 0)
(1.25176 0.730501 0)
(1.19765 0.706915 0)
(1.14669 0.679413 0)
(1.10003 0.650013 0)
(1.05854 0.620405 0)
(1.02273 0.591938 0)
(0.992705 0.565605 0)
(0.968227 0.542062 0)
(0.948798 0.521657 0)
(0.933759 0.504469 0)
(0.922391 0.490378 0)
(0.913985 0.479119 0)
(0.907897 0.470338 0)
(0.903573 0.463653 0)
(0.900555 0.458676 0)
(0.898484 0.455054 0)
(0.897084 0.452475 0)
(0.89615 0.450677 0)
(0.895534 0.44945 0)
(0.895131 0.448629 0)
(0.89487 0.448091 0)
(0.894701 0.447745 0)
(0.894592 0.447528 0)
(0.894523 0.447394 0)
(0.894479 0.447312 0)
(0.89445 0.447264 0)
(0.894432 0.447235 0)
(0.89442 0.447219 0)
(0.894413 0.44721 0)
(0.894408 0.447205 0)
(0.894405 0.447203 0)
(0.894403 0.447201 0)
(0.894402 0.447201 0)
(0.894401 0.4472 0)
(0.894401 0.4472 0)
(0.8944 0.4472 0)
(0.8944 0.4472 0)
(0.8944 0.4472 0)
(0.8944 0.4472 0)
(0.8944 0.4472 0)
(0.8944 0.4472 0)
(0.8944 0.4472 0)
(0.8944 0.4472 0)
(0.8944 0.4472 0)
(0.8944 0.4472 0)
(0.8944 0.4472 0)
(0.8944 0.4472 0)
(0.8944 0.4472 0)
(0.8944 0.4472 0)
(0.8944 0.4472 0)
(0.8944 0.4472 0)
(0.8944 0.4472 0)
(0.8944 0.4472 0)
(0.8944 0.4472 0)
(0.8944 0.4472 0)
(0.8944 0.4472 0)
(1.20644 0.0972462 0)
(1.26578 0.0846764 0)
(1.32558 0.0847122 0)
(1.3832 0.0982514 0)
(1.43626 0.125124 0)
(1.48278 0.164243 0)
(1.52128 0.213785 0)
(1.55074 0.271404 0)
(1.57057 0.334436 0)
(1.58053 0.400109 0)
(1.58064 0.465662 0)
(1.57097 0.52827 0)
(1.55163 0.585036 0)
(1.52292 0.633221 0)
(1.48566 0.67065 0)
(1.44125 0.696105 0)
(1.39156 0.709512 0)
(1.33862 0.711827 0)
(1.28436 0.704722 0)
(1.23053 0.69021 0)
(1.17867 0.670349 0)
(1.13013 0.647068 0)
(1.08596 0.62207 0)
(1.04693 0.596797 0)
(1.01341 0.57241 0)
(0.985422 0.549777 0)
(0.962688 0.529483 0)
(0.94469 0.511849 0)
(0.930781 0.496965 0)
(0.92028 0.484741 0)
(0.912517 0.474961 0)
(0.906897 0.467326 0)
(0.902902 0.461509 0)
(0.900113 0.457178 0)
(0.898197 0.454025 0)
(0.8969 0.451781 0)
(0.896033 0.450216 0)
(0.89546 0.449148 0)
(0.895085 0.448436 0)
(0.894841 0.447969 0)
(0.894683 0.44767 0)
(0.894582 0.447481 0)
(0.894517 0.447366 0)
(0.894475 0.447295 0)
(0.894448 0.447254 0)
(0.89443 0.44723 0)
(0.894419 0.447216 0)
(0.894412 0.447209 0)
(0.894407 0.447205 0)
(0.894404 0.447202 0)
(0.894403 0.447201 0)
(0.894402 0.4472 0)
(0.894401 0.4472 0)
(0.894401 0.4472 0)
(0.8944 0.4472 0)
(0.8944 0.4472 0)
(0.8944 0.4472 0)
(0.8944 0.4472 0)
(0.8944 0.4472 0)
(0.8944 0.4472 0)
(0.8944 0.4472 0)
(0.8944 0.4472 0)
(0.8944 0.4472 0)
(0.8944 0.4472 0)
(0.8944 0.4472 0)
(0.8944 0.4472 0)
(0.8944 0.4472 0)
(0.8944 0.4472 0)
(0.8944 0.4472 0)
(0.8944 0.4472 0)
(0.8944 0.4472 0)
(0.8944 0.4472 0)
(0.8944 0.4472 0)
(0.8944 0.4472 0)
(0.8944 0.4472 0)
(1.18356 0.138654 0)
(1.23892 0.126081 0)
(1.29523 0.124409 0)
(1.35002 0.134609 0)
(1.40095 0.156723 0)
(1.44602 0.189923 0)
(1.48363 0.232667 0)
(1.51267 0.282894 0)
(1.53239 0.338219 0)
(1.54245 0.396114 0)
(1.5427 0.453978 0)
(1.53313 0.50913 0)
(1.51392 0.558919 0)
(1.48557 0.600984 0)
(1.4491 0.633575 0)
(1.40606 0.655818 0)
(1.35829 0.667781 0)
(1.30772 0.670338 0)
(1.25617 0.664907 0)
(1.20529 0.65316 0)
(1.15654 0.636801 0)
(1.11116 0.617428 0)
(1.07009 0.596471 0)
(1.03399 0.575155 0)
(1.00313 0.554484 0)
(0.977464 0.535222 0)
(0.95667 0.517894 0)
(0.940242 0.502797 0)
(0.927564 0.490027 0)
(0.917997 0.479521 0)
(0.910929 0.471106 0)
(0.90581 0.464531 0)
(0.902172 0.459518 0)
(0.89963 0.455786 0)
(0.897882 0.453069 0)
(0.896696 0.451135 0)
(0.895903 0.449788 0)
(0.895378 0.44887 0)
(0.895033 0.448257 0)
(0.894809 0.447856 0)
(0.894663 0.4476 0)
(0.89457 0.447439 0)
(0.894509 0.44734 0)
(0.89447 0.447281 0)
(0.894444 0.447245 0)
(0.894428 0.447225 0)
(0.894418 0.447214 0)
(0.894411 0.447207 0)
(0.894407 0.447204 0)
(0.894404 0.447202 0)
(0.894403 0.447201 0)
(0.894402 0.4472 0)
(0.894401 0.4472 0)
(0.894401 0.4472 0)
(0.8944 0.4472 0)
(0.8944 0.4472 0)
(0.8944 0.4472 0)
(0.8944 0.4472 0)
(0.8944 0.4472 0)
(0.8944 0.4472 0)
(0.8944 0.4472 0)
(0.8944 0.4472 0)
(0.8944 0.4472 0)
(0.8944 0.4472 0)
(0.8944 0.4472 0)
(0.8944 0.4472 0)
(0.8944 0.4472 0)
(0.8944 0.4472 0)
(0.8944 0.4472 0)
(0.8944 0.4472 0)
(0.8944 0.4472 0)
(0.8944 0.4472 0)
(0.8944 0.4472 0)
(0.8944 0.4472 0)
(0.8944 0.4472 0)
(1.15843 0.178166 0)
(1.20911 0.165917 0)
(1.2611 0.162951 0)
(1.31214 0.170272 0)
(1.36001 0.188068 0)
(1.40274 0.215746 0)
(1.4387 0.252043 0)
(1.46666 0.29519 0)
(1.48579 0.343081 0)
(1.49561 0.393414 0)
(1.49586 0.44378 0)
(1.48651 0.491725 0)
(1.46782 0.534903 0)
(1.44047 0.571317 0)
(1.40563 0.59958 0)
(1.36486 0.619064 0)
(1.3199 0.629898 0)
(1.27256 0.632828 0)
(1.22454 0.629019 0)
(1.17735 0.619826 0)
(1.13235 0.606634 0)
(1.09067 0.590763 0)
(1.05315 0.573411 0)
(1.02031 0.555625 0)
(0.992341 0.538275 0)
(0.969152 0.522034 0)
(0.950408 0.507371 0)
(0.935622 0.494562 0)
(0.924225 0.483704 0)
(0.91563 0.474759 0)
(0.909281 0.467584 0)
(0.904682 0.461975 0)
(0.90141 0.457698 0)
(0.899123 0.454512 0)
(0.897549 0.452194 0)
(0.896481 0.450544 0)
(0.895765 0.449397 0)
(0.89529 0.448615 0)
(0.894978 0.448094 0)
(0.894773 0.447754 0)
(0.894641 0.447536 0)
(0.894555 0.4474 0)
(0.8945 0.447317 0)
(0.894464 0.447266 0)
(0.894441 0.447237 0)
(0.894426 0.44722 0)
(0.894417 0.447211 0)
(0.89441 0.447206 0)
(0.894406 0.447203 0)
(0.894404 0.447201 0)
(0.894402 0.447201 0)
(0.894401 0.4472 0)
(0.894401 0.4472 0)
(0.894401 0.4472 0)
(0.8944 0.4472 0)
(0.8944 0.4472 0)
(0.8944 0.4472 0)
(0.8944 0.4472 0)
(0.8944 0.4472 0)
(0.8944 0.4472 0)
(0.8944 0.4472 0)
(0.8944 0.4472 0)
(0.8944 0.4472 0)
(0.8944 0.4472 0)
(0.8944 0.4472 0)
(0.8944 0.4472 0)
(0.8944 0.4472 0)
(0.8944 0.4472 0)
(0.8944 0.4472 0)
(0.8944 0.4472 0)
(0.8944 0.4472 0)
(0.8944 0.4472 0)
(0.8944 0.4472 0)
(0.8944 0.4472 0)
(0.8944 0.4472 0)
(1.13219 0.215315 0)
(1.17779 0.203659 0)
(1.22488 0.199802 0)
(1.27149 0.204721 0)
(1.31556 0.218709 0)
(1.3552 0.241375 0)
(1.38881 0.27171 0)
(1.4151 0.30822 0)
(1.43318 0.349074 0)
(1.44244 0.39221 0)
(1.44258 0.435445 0)
(1.4336 0.476593 0)
(1.41584 0.513646 0)
(1.3901 0.544953 0)
(1.35758 0.569399 0)
(1.31978 0.58651 0)
(1.27833 0.596421 0)
(1.23487 0.599739 0)
(1.19094 0.597384 0)
(1.14797 0.59043 0)
(1.10716 0.579998 0)
(1.06954 0.567173 0)
(1.0358 0.55296 0)
(1.00639 0.538259 0)
(0.981421 0.523824 0)
(0.960771 0.510246 0)
(0.944111 0.497945 0)
(0.930985 0.48717 0)
(0.920874 0.478019 0)
(0.913252 0.470471 0)
(0.907623 0.464411 0)
(0.903544 0.459672 0)
(0.900641 0.456056 0)
(0.89861 0.453364 0)
(0.897211 0.451405 0)
(0.896261 0.450012 0)
(0.895622 0.449044 0)
(0.895198 0.448385 0)
(0.894919 0.447947 0)
(0.894737 0.447661 0)
(0.894618 0.447479 0)
(0.894541 0.447365 0)
(0.894491 0.447296 0)
(0.894458 0.447254 0)
(0.894437 0.44723 0)
(0.894424 0.447216 0)
(0.894415 0.447209 0)
(0.89441 0.447204 0)
(0.894406 0.447202 0)
(0.894404 0.447201 0)
(0.894402 0.4472 0)
(0.894401 0.4472 0)
(0.894401 0.4472 0)
(0.894401 0.4472 0)
(0.8944 0.4472 0)
(0.8944 0.4472 0)
(0.8944 0.4472 0)
(0.8944 0.4472 0)
(0.8944 0.4472 0)
(0.8944 0.4472 0)
(0.8944 0.4472 0)
(0.8944 0.4472 0)
(0.8944 0.4472 0)
(0.8944 0.4472 0)
(0.8944 0.4472 0)
(0.8944 0.4472 0)
(0.8944 0.4472 0)
(0.8944 0.4472 0)
(0.8944 0.4472 0)
(0.8944 0.4472 0)
(0.8944 0.4472 0)
(0.8944 0.4472 0)
(0.8944 0.4472 0)
(0.8944 0.4472 0)
(0.8944 0.4472 0)
(1.1058 0.249721 0)
(1.14615 0.238892 0)
(1.18806 0.234514 0)
(1.22981 0.237514 0)
(1.26956 0.248246 0)
(1.30557 0.266474 0)
(1.33627 0.291421 0)
(1.36041 0.321852 0)
(1.37702 0.356187 0)
(1.38548 0.392617 0)
(1.38547 0.42923 0)
(1.37702 0.464134 0)
(1.36056 0.495636 0)
(1.3369 0.52238 0)
(1.30722 0.543465 0)
(1.27289 0.558506 0)
(1.23541 0.5676 0)
(1.19623 0.571214 0)
(1.15677 0.570056 0)
(1.1183 0.564971 0)
(1.08192 0.556856 0)
(1.04849 0.546608 0)
(1.01863 0.535073 0)
(0.992679 0.52302 0)
(0.970706 0.511104 0)
(0.952568 0.499844 0)
(0.937956 0.489607 0)
(0.926455 0.480619 0)
(0.917602 0.472975 0)
(0.910929 0.466661 0)
(0.906001 0.461591 0)
(0.902429 0.457622 0)
(0.899886 0.454595 0)
(0.898105 0.452342 0)
(0.896878 0.450703 0)
(0.896042 0.44954 0)
(0.895481 0.448731 0)
(0.895108 0.448182 0)
(0.894861 0.447817 0)
(0.894699 0.44758 0)
(0.894594 0.447429 0)
(0.894526 0.447335 0)
(0.894481 0.447278 0)
(0.894452 0.447243 0)
(0.894433 0.447224 0)
(0.894421 0.447213 0)
(0.894414 0.447207 0)
(0.894409 0.447204 0)
(0.894405 0.447202 0)
(0.894403 0.447201 0)
(0.894402 0.4472 0)
(0.894401 0.4472 0)
(0.894401 0.4472 0)
(0.8944 0.4472 0)
(0.8944 0.4472 0)
(0.8944 0.4472 0)
(0.8944 0.4472 0)
(0.8944 0.4472 0)
(0.8944 0.4472 0)
(0.8944 0.4472 0)
(0.8944 0.4472 0)
(0.8944 0.4472 0)
(0.8944 0.4472 0)
(0.8944 0.4472 0)
(0.8944 0.4472 0)
(0.8944 0.4472 0)
(0.8944 0.4472 0)
(0.8944 0.4472 0)
(0.8944 0.4472 0)
(0.8944 0.4472 0)
(0.8944 0.4472 0)
(0.8944 0.4472 0)
(0.8944 0.4472 0)
(0.8944 0.4472 0)
(0.8944 0.4472 0)
(1.08001 0.281105 0)
(1.11518 0.271283 0)
(1.15187 0.266717 0)
(1.18859 0.268255 0)
(1.22375 0.27629 0)
(1.25577 0.2907 0)
(1.2832 0.310894 0)
(1.30483 0.335869 0)
(1.31971 0.364298 0)
(1.32722 0.394635 0)
(1.32708 0.425247 0)
(1.31933 0.45454 0)
(1.30444 0.481093 0)
(1.28319 0.503791 0)
(1.25665 0.521898 0)
(1.22606 0.535079 0)
(1.19276 0.543379 0)
(1.15806 0.547134 0)
(1.1232 0.546879 0)
(1.08933 0.543273 0)
(1.0574 0.537037 0)
(1.02816 0.528913 0)
(1.00212 0.519617 0)
(0.97954 0.509805 0)
(0.960463 0.500041 0)
(0.94474 0.490771 0)
(0.932089 0.482322 0)
(0.92214 0.474887 0)
(0.914484 0.468554 0)
(0.908715 0.46332 0)
(0.904453 0.459114 0)
(0.901363 0.455823 0)
(0.899163 0.453313 0)
(0.897621 0.451445 0)
(0.896556 0.450088 0)
(0.895832 0.449126 0)
(0.895344 0.448457 0)
(0.895019 0.448004 0)
(0.894804 0.447704 0)
(0.894663 0.447509 0)
(0.894571 0.447385 0)
(0.894511 0.447309 0)
(0.894472 0.447262 0)
(0.894446 0.447235 0)
(0.89443 0.447219 0)
(0.894419 0.44721 0)
(0.894412 0.447205 0)
(0.894408 0.447203 0)
(0.894405 0.447201 0)
(0.894403 0.4472 0)
(0.894402 0.4472 0)
(0.894401 0.4472 0)
(0.894401 0.4472 0)
(0.8944 0.4472 0)
(0.8944 0.4472 0)
(0.8944 0.4472 0)
(0.8944 0.4472 0)
(0.8944 0.4472 0)
(0.8944 0.4472 0)
(0.8944 0.4472 0)
(0.8944 0.4472 0)
(0.8944 0.4472 0)
(0.8944 0.4472 0)
(0.8944 0.4472 0)
(0.8944 0.4472 0)
(0.8944 0.4472 0)
(0.8944 0.4472 0)
(0.8944 0.4472 0)
(0.8944 0.4472 0)
(0.8944 0.4472 0)
(0.8944 0.4472 0)
(0.8944 0.4472 0)
(0.8944 0.4472 0)
(0.8944 0.4472 0)
(0.8944 0.4472 0)
(1.0554 0.309267 0)
(1.08566 0.300571 0)
(1.11726 0.296104 0)
(1.14901 0.29661 0)
(1.17954 0.302477 0)
(1.20745 0.313683 0)
(1.23144 0.329789 0)
(1.25039 0.349993 0)
(1.26342 0.373201 0)
(1.26994 0.398133 0)
(1.26969 0.423427 0)
(1.26277 0.447753 0)
(1.24959 0.46994 0)
(1.23088 0.489064 0)
(1.20759 0.504504 0)
(1.18082 0.515965 0)
(1.15174 0.523441 0)
(1.12149 0.527158 0)
(1.09119 0.527515 0)
(1.06183 0.525025 0)
(1.03422 0.520272 0)
(1.00901 0.513867 0)
(0.986614 0.506415 0)
(0.967233 0.498475 0)
(0.950887 0.490525 0)
(0.937433 0.48295 0)
(0.926615 0.476027 0)
(0.918113 0.469926 0)
(0.911573 0.464725 0)
(0.906645 0.460424 0)
(0.903005 0.456967 0)
(0.900365 0.454263 0)
(0.898484 0.452202 0)
(0.897165 0.450669 0)
(0.896254 0.449555 0)
(0.895632 0.448767 0)
(0.895214 0.448221 0)
(0.894935 0.447851 0)
(0.89475 0.447606 0)
(0.894629 0.447448 0)
(0.894549 0.447348 0)
(0.894497 0.447287 0)
(0.894463 0.447249 0)
(0.894441 0.447227 0)
(0.894426 0.447214 0)
(0.894417 0.447207 0)
(0.894411 0.447204 0)
(0.894407 0.447202 0)
(0.894404 0.447201 0)
(0.894403 0.4472 0)
(0.894402 0.4472 0)
(0.894401 0.4472 0)
(0.894401 0.4472 0)
(0.8944 0.4472 0)
(0.8944 0.4472 0)
(0.8944 0.4472 0)
(0.8944 0.4472 0)
(0.8944 0.4472 0)
(0.8944 0.4472 0)
(0.8944 0.4472 0)
(0.8944 0.4472 0)
(0.8944 0.4472 0)
(0.8944 0.4472 0)
(0.8944 0.4472 0)
(0.8944 0.4472 0)
(0.8944 0.4472 0)
(0.8944 0.4472 0)
(0.8944 0.4472 0)
(0.8944 0.4472 0)
(0.8944 0.4472 0)
(0.8944 0.4472 0)
(0.8944 0.4472 0)
(0.8944 0.4472 0)
(0.8944 0.4472 0)
(0.8944 0.4472 0)
(1.03243 0.334116 0)
(1.05811 0.326602 0)
(1.08496 0.322446 0)
(1.11198 0.322284 0)
(1.13803 0.326484 0)
(1.16191 0.335076 0)
(1.18248 0.347747 0)
(1.19874 0.363874 0)
(1.20991 0.38258 0)
(1.21545 0.402822 0)
(1.21516 0.423484 0)
(1.20911 0.44348 0)
(1.19767 0.461847 0)
(1.1815 0.477815 0)
(1.16141 0.490858 0)
(1.13836 0.500705 0)
(1.11335 0.507313 0)
(1.0874 0.510825 0)
(1.06146 0.511537 0)
(1.03636 0.509849 0)
(1.01283 0.506236 0)
(0.991383 0.501202 0)
(0.972371 0.495253 0)
(0.955949 0.48886 0)
(0.942117 0.482428 0)
(0.930744 0.47628 0)
(0.921607 0.470651 0)
(0.914429 0.465685 0)
(0.908909 0.461448 0)
(0.90475 0.457945 0)
(0.901678 0.455129 0)
(0.899448 0.452928 0)
(0.897859 0.451251 0)
(0.896745 0.450005 0)
(0.895974 0.449101 0)
(0.895448 0.448461 0)
(0.895094 0.448019 0)
(0.894857 0.447721 0)
(0.894699 0.447524 0)
(0.894596 0.447396 0)
(0.894528 0.447316 0)
(0.894483 0.447267 0)
(0.894454 0.447238 0)
(0.894435 0.447221 0)
(0.894423 0.447211 0)
(0.894415 0.447205 0)
(0.894409 0.447203 0)
(0.894406 0.447201 0)
(0.894404 0.4472 0)
(0.894402 0.4472 0)
(0.894401 0.4472 0)
(0.894401 0.4472 0)
(0.894401 0.4472 0)
(0.8944 0.4472 0)
(0.8944 0.4472 0)
(0.8944 0.4472 0)
(0.8944 0.4472 0)
(0.8944 0.4472 0)
(0.8944 0.4472 0)
(0.8944 0.4472 0)
(0.8944 0.4472 0)
(0.8944 0.4472 0)
(0.8944 0.4472 0)
(0.8944 0.4472 0)
(0.8944 0.4472 0)
(0.8944 0.4472 0)
(0.8944 0.4472 0)
(0.8944 0.4472 0)
(0.8944 0.4472 0)
(0.8944 0.4472 0)
(0.8944 0.4472 0)
(0.8944 0.4472 0)
(0.8944 0.4472 0)
(0.8944 0.4472 0)
(0.8944 0.4472 0)
(1.01136 0.355659 0)
(1.0329 0.349322 0)
(1.05541 0.345616 0)
(1.07808 0.345082 0)
(1.09996 0.348042 0)
(1.12005 0.354557 0)
(1.13737 0.364418 0)
(1.15108 0.377144 0)
(1.16048 0.39205 0)
(1.16511 0.408301 0)
(1.16479 0.425 0)
(1.1596 0.441266 0)
(1.14985 0.456312 0)
(1.13609 0.469503 0)
(1.11902 0.480391 0)
(1.09947 0.488725 0)
(1.07828 0.494438 0)
(1.05633 0.497616 0)
(1.03442 0.498476 0)
(1.01328 0.497337 0)
(0.993485 0.494582 0)
(0.975482 0.490631 0)
(0.959545 0.4859 0)
(0.945799 0.48078 0)
(0.934235 0.475607 0)
(0.924735 0.470651 0)
(0.917108 0.466109 0)
(0.911118 0.462098 0)
(0.906514 0.458677 0)
(0.903045 0.455848 0)
(0.900482 0.453575 0)
(0.898622 0.451798 0)
(0.897295 0.450447 0)
(0.896364 0.449444 0)
(0.895721 0.448718 0)
(0.895281 0.448204 0)
(0.894984 0.44785 0)
(0.894785 0.447611 0)
(0.894653 0.447454 0)
(0.894566 0.447354 0)
(0.894508 0.44729 0)
(0.894471 0.447251 0)
(0.894446 0.447229 0)
(0.89443 0.447216 0)
(0.894419 0.447208 0)
(0.894412 0.447204 0)
(0.894408 0.447202 0)
(0.894405 0.447201 0)
(0.894403 0.4472 0)
(0.894402 0.4472 0)
(0.894401 0.4472 0)
(0.894401 0.4472 0)
(0.8944 0.4472 0)
(0.8944 0.4472 0)
(0.8944 0.4472 0)
(0.8944 0.4472 0)
(0.8944 0.4472 0)
(0.8944 0.4472 0)
(0.8944 0.4472 0)
(0.8944 0.4472 0)
(0.8944 0.4472 0)
(0.8944 0.4472 0)
(0.8944 0.4472 0)
(0.8944 0.4472 0)
(0.8944 0.4472 0)
(0.8944 0.4472 0)
(0.8944 0.4472 0)
(0.8944 0.4472 0)
(0.8944 0.4472 0)
(0.8944 0.4472 0)
(0.8944 0.4472 0)
(0.8944 0.4472 0)
(0.8944 0.4472 0)
(0.8944 0.4472 0)
(0.8944 0.4472 0)
(0.992358 0.374015 0)
(1.01022 0.368792 0)
(1.02886 0.365614 0)
(1.04764 0.364917 0)
(1.06577 0.366988 0)
(1.08242 0.371898 0)
(1.09678 0.379503 0)
(1.10814 0.389452 0)
(1.11592 0.401212 0)
(1.11973 0.414123 0)
(1.11941 0.427475 0)
(1.11501 0.440565 0)
(1.10682 0.452755 0)
(1.09528 0.463522 0)
(1.08099 0.472486 0)
(1.06462 0.47942 0)
(1.04691 0.484243 0)
(1.02859 0.487009 0)
(1.01034 0.487878 0)
(0.992749 0.487102 0)
(0.976316 0.48499 0)
(0.961392 0.481886 0)
(0.948197 0.478132 0)
(0.936829 0.47405 0)
(0.927272 0.469914 0)
(0.919429 0.465948 0)
(0.913134 0.46231 0)
(0.908194 0.459098 0)
(0.904397 0.456358 0)
(0.901537 0.454093 0)
(0.899423 0.452275 0)
(0.897889 0.450856 0)
(0.896796 0.449776 0)
(0.896027 0.448977 0)
(0.895494 0.448399 0)
(0.895131 0.44799 0)
(0.894886 0.44771 0)
(0.894721 0.447521 0)
(0.894611 0.447398 0)
(0.894538 0.447318 0)
(0.894491 0.447269 0)
(0.894459 0.447239 0)
(0.894439 0.447221 0)
(0.894425 0.447211 0)
(0.894416 0.447205 0)
(0.894411 0.447203 0)
(0.894407 0.447201 0)
(0.894404 0.4472 0)
(0.894403 0.4472 0)
(0.894402 0.4472 0)
(0.894401 0.4472 0)
(0.894401 0.4472 0)
(0.8944 0.4472 0)
(0.8944 0.4472 0)
(0.8944 0.4472 0)
(0.8944 0.4472 0)
(0.8944 0.4472 0)
(0.8944 0.4472 0)
(0.8944 0.4472 0)
(0.8944 0.4472 0)
(0.8944 0.4472 0)
(0.8944 0.4472 0)
(0.8944 0.4472 0)
(0.8944 0.4472 0)
(0.8944 0.4472 0)
(0.8944 0.4472 0)
(0.8944 0.4472 0)
(0.8944 0.4472 0)
(0.8944 0.4472 0)
(0.8944 0.4472 0)
(0.8944 0.4472 0)
(0.8944 0.4472 0)
(0.8944 0.4472 0)
(0.8944 0.4472 0)
(0.8944 0.4472 0)
(0.975499 0.389394 0)
(0.99015 0.385179 0)
(1.00542 0.382543 0)
(1.02079 0.38183 0)
(1.03561 0.383281 0)
(1.04922 0.386971 0)
(1.06097 0.392804 0)
(1.07025 0.400518 0)
(1.07659 0.40971 0)
(1.07967 0.419873 0)
(1.07936 0.430445 0)
(1.07569 0.440866 0)
(1.06889 0.450626 0)
(1.05933 0.4593 0)
(1.04752 0.466571 0)
(1.034 0.472234 0)
(1.01939 0.476211 0)
(1.00429 0.478534 0)
(0.989273 0.479323 0)
(0.974823 0.478778 0)
(0.961338 0.477148 0)
(0.949109 0.474708 0)
(0.93831 0.471738 0)
(0.929017 0.468498 0)
(0.921213 0.465213 0)
(0.914811 0.46206 0)
(0.909677 0.459167 0)
(0.905649 0.456614 0)
(0.902554 0.454439 0)
(0.900222 0.452642 0)
(0.8985 0.4512 0)
(0.897249 0.450077 0)
(0.896357 0.449223 0)
(0.895731 0.448592 0)
(0.895296 0.448136 0)
(0.895 0.447816 0)
(0.894799 0.447595 0)
(0.894664 0.447448 0)
(0.894574 0.447351 0)
(0.894514 0.44729 0)
(0.894475 0.447252 0)
(0.894449 0.447229 0)
(0.894432 0.447215 0)
(0.894421 0.447208 0)
(0.894414 0.447204 0)
(0.894409 0.447202 0)
(0.894406 0.4472 0)
(0.894404 0.4472 0)
(0.894402 0.4472 0)
(0.894401 0.4472 0)
(0.894401 0.4472 0)
(0.894401 0.4472 0)
(0.8944 0.4472 0)
(0.8944 0.4472 0)
(0.8944 0.4472 0)
(0.8944 0.4472 0)
(0.8944 0.4472 0)
(0.8944 0.4472 0)
(0.8944 0.4472 0)
(0.8944 0.4472 0)
(0.8944 0.4472 0)
(0.8944 0.4472 0)
(0.8944 0.4472 0)
(0.8944 0.4472 0)
(0.8944 0.4472 0)
(0.8944 0.4472 0)
(0.8944 0.4472 0)
(0.8944 0.4472 0)
(0.8944 0.4472 0)
(0.8944 0.4472 0)
(0.8944 0.4472 0)
(0.8944 0.4472 0)
(0.8944 0.4472 0)
(0.8944 0.4472 0)
(0.8944 0.4472 0)
(0.960758 0.402075 0)
(0.972657 0.398741 0)
(0.985036 0.396613 0)
(0.997467 0.395971 0)
(1.00945 0.396999 0)
(1.02045 0.399771 0)
(1.02993 0.404228 0)
(1.03741 0.410172 0)
(1.04251 0.4173 0)
(1.04497 0.425225 0)
(1.04465 0.433512 0)
(1.04162 0.441719 0)
(1.03605 0.449441 0)
(1.02823 0.456336 0)
(1.01857 0.462142 0)
(1.00754 0.466687 0)
(0.995633 0.469897 0)
(0.983347 0.471787 0)
(0.97114 0.472452 0)
(0.95941 0.472049 0)
(0.948477 0.470777 0)
(0.938573 0.468859 0)
(0.929838 0.466518 0)
(0.922327 0.46396 0)
(0.916025 0.461366 0)
(0.910858 0.458877 0)
(0.906717 0.456596 0)
(0.90347 0.454583 0)
(0.900974 0.452869 0)
(0.899096 0.451456 0)
(0.897707 0.450323 0)
(0.8967 0.449441 0)
(0.895981 0.448773 0)
(0.895476 0.448279 0)
(0.895125 0.447924 0)
(0.894886 0.447674 0)
(0.894724 0.447503 0)
(0.894615 0.447389 0)
(0.894542 0.447315 0)
(0.894493 0.447267 0)
(0.894461 0.447238 0)
(0.89444 0.447221 0)
(0.894427 0.447211 0)
(0.894418 0.447206 0)
(0.894412 0.447202 0)
(0.894407 0.447201 0)
(0.894405 0.4472 0)
(0.894403 0.4472 0)
(0.894402 0.4472 0)
(0.894401 0.4472 0)
(0.894401 0.4472 0)
(0.8944 0.4472 0)
(0.8944 0.4472 0)
(0.8944 0.4472 0)
(0.8944 0.4472 0)
(0.8944 0.4472 0)
(0.8944 0.4472 0)
(0.8944 0.4472 0)
(0.8944 0.4472 0)
(0.8944 0.4472 0)
(0.8944 0.4472 0)
(0.8944 0.4472 0)
(0.8944 0.4472 0)
(0.8944 0.4472 0)
(0.8944 0.4472 0)
(0.8944 0.4472 0)
(0.8944 0.4472 0)
(0.8944 0.4472 0)
(0.8944 0.4472 0)
(0.8944 0.4472 0)
(0.8944 0.4472 0)
(0.8944 0.4472 0)
(0.8944 0.4472 0)
(0.8944 0.4472 0)
(0.8944 0.4472 0)
(0.948075 0.412374 0)
(0.957625 0.409779 0)
(0.967556 0.408107 0)
(0.977515 0.407572 0)
(0.987096 0.408319 0)
(0.995884 0.410406 0)
(1.00345 0.413798 0)
(1.00941 0.418355 0)
(1.01345 0.423844 0)
(1.01537 0.429971 0)
(1.01508 0.436404 0)
(1.0126 0.442801 0)
(1.00808 0.44884 0)
(1.00175 0.454248 0)