# vtk DataFile Version 2.0
top_cyc
ASCII
DATASET POLYDATA
POINTS 202 float
-10 7.5 0 -10 7.5 1 -9.8 7.5 1 -9.8 7.5
0 -9.6 7.5 1 -9.6 7.5 0 -9.4 7.5 1
-9.4 7.5 0 -9.2 7.5 1 -9.2 7.5 0 -9
7.5 1 -9 7.5 0 -8.8 7.5 1 -8.8 7.5
0 -8.6 7.5 1 -8.6 7.5 0 -8.4 7.5 1
-8.4 7.5 0 -8.2 7.5 1 -8.2 7.5 0 -8
7.5 1 -8 7.5 0 -7.8 7.5 1 -7.8 7.5
0 -7.6 7.5 1 -7.6 7.5 0 -7.4 7.5 1
-7.4 7.5 0 -7.2 7.5 1 -7.2 7.5 0 -7
7.5 1 -7 7.5 0 -6.8 7.5 1 -6.8 7.5
0 -6.6 7.5 1 -6.6 7.5 0 -6.4 7.5 1
-6.4 7.5 0 -6.2 7.5 1 -6.2 7.5 0 -6
7.5 1 -6 7.5 0 -5.8 7.5 1 -5.8 7.5
0 -5.6 7.5 1 -5.6 7.5 0 -5.4 7.5 1
-5.4 7.5 0 -5.2 7.5 1 -5.2 7.5 0 -5
7.5 1 -5 7.5 0 -4.8 7.5 1 -4.8 7.5
0 -4.6 7.5 1 -4.6 7.5 0 -4.4 7.5 1
-4.4 7.5 0 -4.2 7.5 1 -4.2 7.5 0 -4
7.5 1 -4 7.5 0 -3.8 7.5 1 -3.8 7.5
0 -3.6 7.5 1 -3.6 7.5 0 -3.4 7.5 1
-3.4 7.5 0 -3.2 7.5 1 -3.2 7.5 0 -3
7.5 1 -3 7.5 0 -2.8 7.5 1 -2.8 7.5
0 -2.6 7.5 1 -2.6 7.5 0 -2.4 7.5 1
-2.4 7.5 0 -2.2 7.5 1 -2.2 7.5 0 -2
7.5 1 -2 7.5 0 -1.8 7.5 1 -1.8 7.5
0 -1.6 7.5 1 -1.6 7.5 0 -1.4 7.5 1
-1.4 7.5 0 -1.2 7.5 1 -1.2 7.5 0 -1
7.5 1 -1 7.5 0 -0.8 7.5 1 -0.8 7.5
0 -0.6 7.5 1 -0.6 7.5 0 -0.4 7.5 1
-0.4 7.5 0 -0.2 7.5 1 -0.2 7.5 0 1.23261e-11
7.5 1 1.23261e-11 7.5 0 0.2 7.5 1 0.2 7.5
0 0.4 7.5 1 0.4 7.5 0 0.6 7.5 1
0.6 7.5 0 0.8 7.5 1 0.8 7.5 0 1
7.5 1 1 7.5 0 1.2 7.5 1 1.2 7.5
0 1.4 7.5 1 1.4 7.5 0 1.6 7.5 1
1.6 7.5 0 1.8 7.5 1 1.8 7.5 0 2
7.5 1 2 7.5 0 2.2 7.5 1 2.2 7.5
0 2.4 7.5 1 2.4 7.5 0 2.6 7.5 1
2.6 7.5 0 2.8 7.5 1 2.8 7.5 0 3
7.5 1 3 7.5 0 3.2 7.5 1 3.2 7.5
0 3.4 7.5 1 3.4 7.5 0 3.6 7.5 1
3.6 7.5 0 3.8 7.5 1 3.8 7.5 0 4
7.5 1 4 7.5 0 4.2 7.5 1 4.2 7.5
0 4.4 7.5 1 4.4 7.5 0 4.6 7.5 1
4.6 7.5 0 4.8 7.5 1 4.8 7.5 0 5
7.5 1 5 7.5 0 5.2 7.5 1 5.2 7.5
0 5.4 7.5 1 5.4 7.5 0 5.6 7.5 1
5.6 7.5 0 5.8 7.5 1 5.8 7.5 0 6
7.5 1 6 7.5 0 6.2 7.5 1 6.2 7.5
0 6.4 7.5 1 6.4 7.5 0 6.6 7.5 1
6.6 7.5 0 6.8 7.5 1 6.8 7.5 0 7
7.5 1 7 7.5 0 7.2 7.5 1 7.2 7.5
0 7.4 7.5 1 7.4 7.5 0 7.6 7.5 1
7.6 7.5 0 7.8 7.5 1 7.8 7.5 0 8
7.5 1 8 7.5 0 8.2 7.5 1 8.2 7.5
0 8.4 7.5 1 8.4 7.5 0 8.6 7.5 1
8.6 7.5 0 8.8 7.5 1 8.8 7.5 0 9
7.5 1 9 7.5 0 9.2 7.5 1 9.2 7.5
0 9.4 7.5 1 9.4 7.5 0 9.6 7.5 1
9.6 7.5 0 9.8 7.5 1 9.8 7.5 0 10
7.5 1 10 7.5 0 
POLYGONS 100 500
4 0 1 2 3 4 3 2 4 5 4
5 4 6 7 4 7 6 8 9 4
9 8 10 11 4 11 10 12 13 4
13 12 14 15 4 15 14 16 17 4
17 16 18 19 4 19 18 20 21 4
21 20 22 23 4 23 22 24 25 4
25 24 26 27 4 27 26 28 29 4
29 28 30 31 4 31 30 32 33 4
33 32 34 35 4 35 34 36 37 4
37 36 38 39 4 39 38 40 41 4
41 40 42 43 4 43 42 44 45 4
45 44 46 47 4 47 46 48 49 4
49 48 50 51 4 51 50 52 53 4
53 52 54 55 4 55 54 56 57 4
57 56 58 59 4 59 58 60 61 4
61 60 62 63 4 63 62 64 65 4
65 64 66 67 4 67 66 68 69 4
69 68 70 71 4 71 70 72 73 4
73 72 74 75 4 75 74 76 77 4
77 76 78 79 4 79 78 80 81 4
81 80 82 83 4 83 82 84 85 4
85 84 86 87 4 87 86 88 89 4
89 88 90 91 4 91 90 92 93 4
93 92 94 95 4 95 94 96 97 4
97 96 98 99 4 99 98 100 101 4
101 100 102 103 4 103 102 104 105 4
105 104 106 107 4 107 106 108 109 4
109 108 110 111 4 111 110 112 113 4
113 112 114 115 4 115 114 116 117 4
117 116 118 119 4 119 118 120 121 4
121 120 122 123 4 123 122 124 125 4
125 124 126 127 4 127 126 128 129 4
129 128 130 131 4 131 130 132 133 4
133 132 134 135 4 135 134 136 137 4
137 136 138 139 4 139 138 140 141 4
141 140 142 143 4 143 142 144 145 4
145 144 146 147 4 147 146 148 149 4
149 148 150 151 4 151 150 152 153 4
153 152 154 155 4 155 154 156 157 4
157 156 158 159 4 159 158 160 161 4
161 160 162 163 4 163 162 164 165 4
165 164 166 167 4 167 166 168 169 4
169 168 170 171 4 171 170 172 173 4
173 172 174 175 4 175 174 176 177 4
177 176 178 179 4 179 178 180 181 4
181 180 182 183 4 183 182 184 185 4
185 184 186 187 4 187 186 188 189 4
189 188 190 191 4 191 190 192 193 4
193 192 194 195 4 195 194 196 197 4
197 196 198 199 4 199 198 200 201 
CELL_DATA 100
FIELD attributes 7
patchID 1 100 float
1 1 1 1 1 1 1 1 1 1 1
1 1 1 1 1 1 1 1 1 1
1 1 1 1 1 1 1 1 1 1
1 1 1 1 1 1 1 1 1 1
1 1 1 1 1 1 1 1 1 1
1 1 1 1 1 1 1 1 1 1
1 1 1 1 1 1 1 1 1 1
1 1 1 1 1 1 1 1 1 1
1 1 1 1 1 1 1 1 1 1
1 1 1 1 1 1 1 1 1 
mag(U) 1 100 float
0.99997 0.99997 0.99997 0.99997 0.99997 0.99997 0.99997 0.99997 0.99997 0.99997 0.99997
0.99997 0.99997 0.99997 0.99997 0.99997 0.99997 0.99997 0.99997 0.99997 0.99997
0.99997 0.99997 0.99997 0.99997 0.99997 0.99997 0.99997 0.99997 0.99997 0.99997
0.99997 0.99997 0.99997 0.99997 0.99997 0.99997 0.99997 0.99997 0.999969 0.999969
0.999969 0.999969 0.99997 0.999972 0.999973 0.999976 0.999979 0.999983 0.999987 0.999992
0.999995 0.999996 0.999996 0.99999 0.999982 0.999973 0.999963 0.999954 0.99995 0.999954
0.999968 0.999991 1.00003 1.00007 1.00013 1.0002 1.00026 1.00032 1.00038 1.00042
1.00045 1.00046 1.00046 1.00045 1.00041 1.00039 1.00034 1.00029 1.00024 1.0002
1.00015 1.00012 1.00008 1.00005 1.00003 1.00001 0.999994 0.999984 0.999978 0.999973
0.99997 0.99997 0.999969 0.999969 0.999969 0.999969 0.999969 0.99997 0.99997 
p 1 100 float
1 1 1 1 1 1 1 1 1 1 1
1 1 1 1 1 1 1 1 1 1
1 1 1 1 1 1 1 1 1 1
1 1 1 1 1 1 1 1 1 1
1 1 1 1 1 1 0.999996 0.999987 0.999977 0.999963
0.999948 0.999934 0.999925 0.999924 0.999937 0.999969 1.00002 1.0001 1.0002 1.00032
1.00046 1.0006 1.00075 1.00089 1.00101 1.00112 1.00119 1.00124 1.00125 1.00122
1.00118 1.0011 1.00101 1.00091 1.0008 1.00069 1.00058 1.00048 1.00039 1.00031
1.00024 1.00018 1.00013 1.0001 1.00006 1.00004 1.00003 1.00002 1.00001 1
1 0.999999 0.999999 0.999999 0.999999 0.999999 1 1 1 
T 1 100 float
1 1 1 1 1 1 1 1 1 1 1
1 1 1 1 1 1 1 1 1 1
1 1 1 1 1 1 1 1 1 1
1 1 1 1 1 1 1 1 1 1
1 1 1 1 1 1 1 1 1 1
1 1 1 1 1 1 1 1 1 1
1 1 1 1 1 1 1 1 1 1
1 1 1 1 1 1 1 1 1 1
1 1 1 1 1 1 1 1 1 1
1 1 1 1 1 1 1 1 1 
e 1 100 float
1006.29 1006.29 1006.29 1006.29 1006.29 1006.29 1006.29 1006.29 1006.29 1006.29 1006.29
1006.29 1006.29 1006.29 1006.29 1006.29 1006.29 1006.29 1006.29 1006.29 1006.29
1006.29 1006.29 1006.29 1006.29 1006.29 1006.29 1006.29 1006.29 1006.29 1006.29
1006.29 1006.29 1006.29 1006.29 1006.29 1006.29 1006.29 1006.29 1006.29 1006.29
1006.29 1006.29 1006.29 1006.29 1006.29 1006.29 1006.29 1006.29 1006.29 1006.29
1006.29 1006.29 1006.29 1006.29 1006.29 1006.29 1006.29 1006.29 1006.29 1006.29
1006.29 1006.29 1006.29 1006.29 1006.29 1006.29 1006.29 1006.29 1006.29 1006.29
1006.29 1006.29 1006.29 1006.29 1006.29 1006.29 1006.29 1006.29 1006.29 1006.29
1006.29 1006.29 1006.29 1006.29 1006.29 1006.29 1006.29 1006.29 1006.29 1006.29
1006.29 1006.29 1006.29 1006.29 1006.29 1006.29 1006.29 1006.29 1006.29 
rho 1 100 float
1.4 1.4 1.4 1.4 1.40001 1.4 1.40001 1.4 1.40001 1.4 1.40001
1.4 1.40001 1.4 1.4 1.4 1.40001 1.4 1.40001 1.4 1.40001
1.4 1.40001 1.40001 1.4 1.4 1.40001 1.4 1.4 1.40001 1.4
1.4 1.40001 1.40001 1.4 1.40001 1.40001 1.40001 1.40001 1.40001 1.40001
1.40001 1.40001 1.40001 1.40001 1.40001 1.4 1.4 1.39999 1.39997 1.39996
1.39994 1.39991 1.3999 1.3999 1.39991 1.39997 1.40004 1.40015 1.40029 1.40045
1.40065 1.40085 1.40105 1.40126 1.40143 1.40157 1.40167 1.40173 1.40175 1.40172
1.40165 1.40155 1.40142 1.40128 1.40112 1.40097 1.40082 1.40068 1.40055 1.40043
1.40033 1.40026 1.40019 1.40013 1.40009 1.40006 1.40004 1.40003 1.40001 1.40001
1.4 1.4 1.4 1.4 1.4 1.4 1.4 1.4 1.4 
U 3 100 float
0.8944 0.4472 0 0.8944 0.4472 0 0.8944 0.4472 0 0.8944 0.4472
0 0.8944 0.4472 0 0.8944 0.4472 0 0.8944 0.4472 0
0.8944 0.4472 0 0.8944 0.4472 0 0.8944 0.4472 0 0.8944
0.4472 0 0.8944 0.4472 0 0.8944 0.4472 0 0.8944 0.4472
0 0.8944 0.4472 0 0.8944 0.4472 0 0.8944 0.4472 0
0.8944 0.4472 0 0.8944 0.4472 0 0.8944 0.4472 0 0.8944
0.4472 0 0.8944 0.4472 0 0.8944 0.4472 0 0.8944 0.4472
0 0.8944 0.4472 0 0.8944 0.4472 0 0.8944 0.4472 0
0.8944 0.4472 0 0.8944 0.4472 0 0.8944 0.4472 0 0.8944
0.4472 0 0.8944 0.4472 0 0.8944 0.4472 0 0.8944 0.4472
0 0.8944 0.4472 0 0.8944 0.4472 0 0.8944 0.4472 0
0.8944 0.4472 0 0.8944 0.447201 0 0.8944 0.447201 0 0.894399
0.447201 0 0.894399 0.447201 0 0.894399 0.447203 0 0.894399 0.447203
0 0.8944 0.447204 0 0.894402 0.447204 0 0.894404 0.447204 0
0.894409 0.447202 0 0.894416 0.447198 0 0.894424 0.447192 0 0.894434
0.447182 0 0.894444 0.44717 0 0.894451 0.447158 0 0.894455 0.447147
0 0.894453 0.447141 0 0.894442 0.447145 0 0.894423 0.447161 0
0.894395 0.447195 0 0.894358 0.447249 0 0.894315 0.447325 0 0.894271
0.447421 0 0.89423 0.447536 0 0.894194 0.447662 0 0.894169 0.447794
0 0.894157 0.447926 0 0.89416 0.448046 0 0.894177 0.44815 0
0.894209 0.448229 0 0.894252 0.44828 0 0.894302 0.448301 0 0.894356
0.44829 0 0.894409 0.448251 0 0.894458 0.448186 0 0.894499 0.448103
0 0.89453 0.448006 0 0.894552 0.447903 0 0.894563 0.447798 0
0.894566 0.447697 0 0.89456 0.447603 0 0.894548 0.447518 0 0.894532
0.447444 0 0.894513 0.447383 0 0.894494 0.447333 0 0.894475 0.447293
0 0.894458 0.447262 0 0.894443 0.447239 0 0.894431 0.447224 0
0.894421 0.447212 0 0.894413 0.447206 0 0.894408 0.447201 0 0.894404
0.447199 0 0.894402 0.447199 0 0.894401 0.447199 0 0.8944 0.447199
0 0.8944 0.447199 0 0.8944 0.447199 0 0.8944 0.447199 0
0.8944 0.447199 0 0.8944 0.4472 0 0.8944 0.4472 0 
POINT_DATA  202
FIELD attributes 6
mag(U) 1 202 float
0.99997 0.99997 0.99997 0.99997 0.99997 0.99997 0.99997 0.99997 0.99997 0.99997 0.99997
0.99997 0.99997 0.99997 0.99997 0.99997 0.99997 0.99997 0.99997 0.99997 0.99997
0.99997 0.99997 0.99997 0.99997 0.99997 0.99997 0.99997 0.99997 0.99997 0.99997
0.99997 0.99997 0.99997 0.99997 0.99997 0.99997 0.99997 0.99997 0.99997 0.99997
0.99997 0.99997 0.99997 0.99997 0.99997 0.99997 0.99997 0.99997 0.99997 0.99997
0.99997 0.99997 0.99997 0.99997 0.99997 0.99997 0.99997 0.99997 0.99997 0.99997
0.99997 0.99997 0.99997 0.99997 0.99997 0.99997 0.99997 0.99997 0.99997 0.99997
0.99997 0.99997 0.99997 0.99997 0.99997 0.99997 0.99997 0.99997 0.99997 0.999969
0.999969 0.999969 0.999969 0.999969 0.999969 0.99997 0.99997 0.999971 0.999971 0.999973
0.999973 0.999974 0.999974 0.999977 0.999977 0.999981 0.999981 0.999985 0.999985 0.99999
0.99999 0.999994 0.999994 0.999996 0.999996 0.999996 0.999996 0.999993 0.999993 0.999986
0.999986 0.999978 0.999978 0.999968 0.999968 0.999958 0.999958 0.999951 0.999951 0.999951
0.999951 0.999961 0.999961 0.99998 0.99998 1.00001 1.00001 1.00005 1.00005 1.00011
1.00011 1.00017 1.00017 1.00023 1.00023 1.00029 1.00029 1.00035 1.00035 1.0004
1.0004 1.00043 1.00043 1.00046 1.00046 1.00046 1.00046 1.00045 1.00045 1.00043
1.00043 1.0004 1.0004 1.00036 1.00036 1.00031 1.00031 1.00027 1.00027 1.00022
1.00022 1.00017 1.00017 1.00013 1.00013 1.0001 1.0001 1.00006 1.00006 1.00004
1.00004 1.00002 1.00002 0.999999 0.999999 0.999989 0.999989 0.999981 0.999981 0.999976
0.999976 0.999972 0.999972 0.99997 0.99997 0.999969 0.999969 0.999969 0.999969 0.999969
0.999969 0.999969 0.999969 0.999969 0.999969 0.99997 0.99997 0.99997 0.99997 0.99997
0.99997 
p 1 202 float
1 1 1 1 1 1 1 1 1 1 1
1 1 1 1 1 1 1 1 1 1
1 1 1 1 1 1 1 1 1 1
1 1 1 1 1 1 1 1 1 1
1 1 1 1 1 1 1 1 1 1
1 1 1 1 1 1 1 1 1 1
1 1 1 1 1 1 1 1 1 1
1 1 1 1 1 1 1 1 1 1
1 1 1 1 1 1 1 1 1 1
1 1 1 0.999998 0.999998 0.999991 0.999991 0.999982 0.999982 0.99997
0.99997 0.999955 0.999955 0.999941 0.999941 0.999929 0.999929 0.999924 0.999924 0.999931
0.999931 0.999953 0.999953 0.999995 0.999995 1.00006 1.00006 1.00015 1.00015 1.00026
1.00026 1.00039 1.00039 1.00053 1.00053 1.00068 1.00068 1.00082 1.00082 1.00095
1.00095 1.00107 1.00107 1.00116 1.00116 1.00121 1.00121 1.00124 1.00124 1.00124
1.00124 1.0012 1.0012 1.00114 1.00114 1.00106 1.00106 1.00096 1.00096 1.00085
1.00085 1.00075 1.00075 1.00064 1.00064 1.00053 1.00053 1.00043 1.00043 1.00035
1.00035 1.00028 1.00028 1.00021 1.00021 1.00015 1.00015 1.00011 1.00011 1.00008
1.00008 1.00005 1.00005 1.00003 1.00003 1.00002 1.00002 1.00001 1.00001 1.00001
1.00001 1 1 0.999999 0.999999 0.999999 0.999999 0.999999 0.999999 0.999999
0.999999 0.999999 0.999999 0.999999 0.999999 1 1 1 1 1
1 
T 1 202 float
1 1 1 1 1 1 1 1 1 1 1
1 1 1 1 1 1 1 1 1 1
1 1 1 1 1 1 1 1 1 1
1 1 1 1 1 1 1 1 1 1
1 1 1 1 1 1 1 1 1 1
1 1 1 1 1 1 1 1 1 1
1 1 1 1 1 1 1 1 1 1
1 1 1 1 1 1 1 1 1 1
1 1 1 1 1 1 1 1 1 1
1 1 1 1 1 1 1 1 1 1
1 1 1 1 1 1 1 1 1 1
1 1 1 1 1 1 1 1 1 1
1 1 1 1 1 1 1 1 1 1
1 1 1 1 1 1 1 1 1 1
1 1 1 1 1 1 1 1 1 1
1 1 1 1 1 1 1 1 1 1
1 1 1 1 1 1 1 1 1 1
1 1 1 1 1 1 1 1 1 1
1 1 1 1 1 1 1 1 1 1
1 1 1 1 1 1 1 1 1 1
1 
e 1 202 float
1006.29 1006.29 1006.29 1006.29 1006.29 1006.29 1006.29 1006.29 1006.29 1006.29 1006.29
1006.29 1006.29 1006.29 1006.29 1006.29 1006.29 1006.29 1006.29 1006.29 1006.29
1006.29 1006.29 1006.29 1006.29 1006.29 1006.29 1006.29 1006.29 1006.29 1006.29
1006.29 1006.29 1006.29 1006.29 1006.29 1006.29 1006.29 1006.29 1006.29 1006.29
1006.29 1006.29 1006.29 1006.29 1006.29 1006.29 1006.29 1006.29 1006.29 1006.29
1006.29 1006.29 1006.29 1006.29 1006.29 1006.29 1006.29 1006.29 1006.29 1006.29
1006.29 1006.29 1006.29 1006.29 1006.29 1006.29 1006.29 1006.29 1006.29 1006.29
1006.29 1006.29 1006.29 1006.29 1006.29 1006.29 1006.29 1006.29 1006.29 1006.29
1006.29 1006.29 1006.29 1006.29 1006.29 1006.29 1006.29 1006.29 1006.29 1006.29
1006.29 1006.29 1006.29 1006.29 1006.29 1006.29 1006.29 1006.29 1006.29 1006.29
1006.29 1006.29 1006.29 1006.29 1006.29 1006.29 1006.29 1006.29 1006.29 1006.29
1006.29 1006.29 1006.29 1006.29 1006.29 1006.29 1006.29 1006.29 1006.29 1006.29
1006.29 1006.29 1006.29 1006.29 1006.29 1006.29 1006.29 1006.29 1006.29 1006.29
1006.29 1006.29 1006.29 1006.29 1006.29 1006.29 1006.29 1006.29 1006.29 1006.29
1006.29 1006.29 1006.29 1006.29 1006.29 1006.29 1006.29 1006.29 1006.29 1006.29
1006.29 1006.29 1006.29 1006.29 1006.29 1006.29 1006.29 1006.29 1006.29 1006.29
1006.29 1006.29 1006.29 1006.29 1006.29 1006.29 1006.29 1006.29 1006.29 1006.29
1006.29 1006.29 1006.29 1006.29 1006.29 1006.29 1006.29 1006.29 1006.29 1006.29
1006.29 1006.29 1006.29 1006.29 1006.29 1006.29 1006.29 1006.29 1006.29 1006.29
1006.29 1006.29 1006.29 1006.29 1006.29 1006.29 1006.29 1006.29 1006.29 1006.29
1006.29 
rho 1 202 float
1.4 1.4 1.4 1.4 1.4 1.4 1.4 1.4 1.4 1.4 1.4
1.4 1.4 1.4 1.40001 1.40001 1.40001 1.40001 1.40001 1.40001 1.40001
1.40001 1.40001 1.40001 1.40001 1.40001 1.40001 1.40001 1.4 1.4 1.4
1.4 1.40001 1.40001 1.4 1.4 1.4 1.4 1.40001 1.40001 1.40001
1.40001 1.40001 1.40001 1.40001 1.40001 1.40001 1.40001 1.40001 1.40001 1.4
1.4 1.40001 1.40001 1.40001 1.40001 1.4 1.4 1.40001 1.40001 1.40001
1.40001 1.4 1.4 1.40001 1.40001 1.40001 1.40001 1.40001 1.40001 1.40001
1.40001 1.40001 1.40001 1.40001 1.40001 1.40001 1.40001 1.40001 1.40001 1.40001
1.40001 1.40001 1.40001 1.40001 1.40001 1.40001 1.40001 1.40001 1.40001 1.40001
1.40001 1.40001 1.40001 1.4 1.4 1.39999 1.39999 1.39998 1.39998 1.39996
1.39996 1.39995 1.39995 1.39992 1.39992 1.3999 1.3999 1.3999 1.3999 1.39991
1.39991 1.39994 1.39994 1.4 1.4 1.40009 1.40009 1.40022 1.40022 1.40037
1.40037 1.40055 1.40055 1.40075 1.40075 1.40095 1.40095 1.40115 1.40115 1.40134
1.40134 1.4015 1.4015 1.40162 1.40162 1.4017 1.4017 1.40174 1.40174 1.40173
1.40173 1.40168 1.40168 1.4016 1.4016 1.40148 1.40148 1.40135 1.40135 1.4012
1.4012 1.40105 1.40105 1.40089 1.40089 1.40075 1.40075 1.40061 1.40061 1.40049
1.40049 1.40039 1.40039 1.4003 1.4003 1.40023 1.40023 1.40016 1.40016 1.40011
1.40011 1.40008 1.40008 1.40005 1.40005 1.40003 1.40003 1.40002 1.40002 1.40001
1.40001 1.40001 1.40001 1.4 1.4 1.4 1.4 1.4 1.4 1.4
1.4 1.4 1.4 1.4 1.4 1.4 1.4 1.4 1.4 1.4
1.4 
U 3 202 float
0.8944 0.4472 0 0.8944 0.4472 0 0.8944 0.4472 0 0.8944 0.4472
0 0.8944 0.4472 0 0.8944 0.4472 0 0.8944 0.4472 0
0.8944 0.4472 0 0.8944 0.4472 0 0.8944 0.4472 0 0.8944
0.4472 0 0.8944 0.4472 0 0.8944 0.4472 0 0.8944 0.4472
0 0.8944 0.4472 0 0.8944 0.4472 0 0.8944 0.4472 0
0.8944 0.4472 0 0.8944 0.4472 0 0.8944 0.4472 0 0.8944
0.4472 0 0.8944 0.4472 0 0.8944 0.4472 0 0.8944 0.4472
0 0.8944 0.4472 0 0.8944 0.4472 0 0.8944 0.4472 0
0.8944 0.4472 0 0.8944 0.4472 0 0.8944 0.4472 0 0.8944
0.4472 0 0.8944 0.4472 0 0.8944 0.4472 0 0.8944 0.4472
0 0.8944 0.4472 0 0.8944 0.4472 0 0.8944 0.4472 0
0.8944 0.4472 0 0.8944 0.4472 0 0.8944 0.4472 0 0.8944
0.4472 0 0.8944 0.4472 0 0.8944 0.4472 0 0.8944 0.4472
0 0.8944 0.4472 0 0.8944 0.4472 0 0.8944 0.4472 0
0.8944 0.4472 0 0.8944 0.4472 0 0.8944 0.4472 0 0.8944
0.4472 0 0.8944 0.4472 0 0.8944 0.4472 0 0.8944 0.4472
0 0.8944 0.4472 0 0.8944 0.4472 0 0.8944 0.4472 0
0.8944 0.4472 0 0.8944 0.4472 0 0.8944 0.4472 0 0.8944
0.4472 0 0.8944 0.4472 0 0.8944 0.4472 0 0.8944 0.4472
0 0.8944 0.4472 0 0.8944 0.4472 0 0.8944 0.4472 0
0.8944 0.4472 0 0.8944 0.4472 0 0.8944 0.4472 0 0.8944
0.4472 0 0.8944 0.4472 0 0.8944 0.4472 0 0.8944 0.4472
0 0.8944 0.4472 0 0.8944 0.4472 0 0.8944 0.4472 0
0.8944 0.4472 0 0.8944 0.447201 0 0.8944 0.447201 0 0.894399
0.447201 0 0.894399 0.447201 0 0.894399 0.447201 0 0.894399 0.447201
0 0.894399 0.447202 0 0.894399 0.447202 0 0.894399 0.447203 0
0.894399 0.447203 0 0.8944 0.447204 0 0.8944 0.447204 0 0.894401
0.447204 0 0.894401 0.447204 0 0.894403 0.447204 0 0.894403 0.447204
0 0.894407 0.447203 0 0.894407 0.447203 0 0.894413 0.4472 0
0.894413 0.4472 0 0.89442 0.447195 0 0.89442 0.447195 0 0.894429
0.447187 0 0.894429 0.447187 0 0.894439 0.447176 0 0.894439 0.447176
0 0.894448 0.447164 0 0.894448 0.447164 0 0.894453 0.447152 0
0.894453 0.447152 0 0.894454 0.447144 0 0.894454 0.447144 0 0.894448
0.447143 0 0.894448 0.447143 0 0.894433 0.447153 0 0.894433 0.447153
0 0.894409 0.447178 0 0.894409 0.447178 0 0.894376 0.447222 0
0.894376 0.447222 0 0.894337 0.447287 0 0.894337 0.447287 0 0.894293
0.447373 0 0.894293 0.447373 0 0.894251 0.447478 0 0.894251 0.447478
0 0.894212 0.447599 0 0.894212 0.447599 0 0.894181 0.447728 0
0.894181 0.447728 0 0.894163 0.44786 0 0.894163 0.44786 0 0.894158
0.447986 0 0.894158 0.447986 0 0.894169 0.448098 0 0.894169 0.448098
0 0.894193 0.448189 0 0.894193 0.448189 0 0.89423 0.448254 0
0.89423 0.448254 0 0.894277 0.44829 0 0.894277 0.44829 0 0.894329
0.448296 0 0.894329 0.448296 0 0.894382 0.44827 0 0.894382 0.44827
0 0.894433 0.448218 0 0.894433 0.448218 0 0.894478 0.448145 0
0.894478 0.448145 0 0.894514 0.448054 0 0.894514 0.448054 0 0.894541
0.447954 0 0.894541 0.447954 0 0.894558 0.44785 0 0.894558 0.44785
0 0.894565 0.447747 0 0.894565 0.447747 0 0.894563 0.44765 0
0.894563 0.44765 0 0.894554 0.44756 0 0.894554 0.44756 0 0.89454
0.447482 0 0.89454 0.447482 0 0.894523 0.447414 0 0.894523 0.447414
0 0.894503 0.447358 0 0.894503 0.447358 0 0.894484 0.447313 0
0.894484 0.447313 0 0.894466 0.447277 0 0.894466 0.447277 0 0.89445
0.44725 0 0.89445 0.44725 0 0.894437 0.447231 0 0.894437 0.447231
0 0.894426 0.447218 0 0.894426 0.447218 0 0.894417 0.447209 0
0.894417 0.447209 0 0.89441 0.447203 0 0.89441 0.447203 0 0.894406
0.447201 0 0.894406 0.447201 0 0.894403 0.447199 0 0.894403 0.447199
0 0.894401 0.447199 0 0.894401 0.447199 0 0.8944 0.447199 0
0.8944 0.447199 0 0.8944 0.447199 0 0.8944 0.447199 0 0.8944
0.447199 0 0.8944 0.447199 0 0.8944 0.447199 0 0.8944 0.447199
0 0.8944 0.447199 0 0.8944 0.447199 0 0.8944 0.4472 0
0.8944 0.4472 0 0.8944 0.4472 0 0.8944 0.4472 0 0.8944
0.4472 0 0.8944 0.4472 0 
