/*--------------------------------*- C++ -*----------------------------------*\
  =========                 |
  \\      /  F ield         | OpenFOAM: The Open Source CFD Toolbox
   \\    /   O peration     | Website:  https://openfoam.org
    \\  /    A nd           | Version:  6
     \\/     M anipulation  |
\*---------------------------------------------------------------------------*/
FoamFile
{
    version     2.0;
    format      ascii;
    class       surfaceScalarField;
    location    "1.79";
    object      phi;
}
// * * * * * * * * * * * * * * * * * * * * * * * * * * * * * * * * * * * * * //

dimensions      [0 3 -1 0 0 0 0];

internalField   nonuniform List<scalar> 
8193
(
0.108181
-0.191557
-0.0989815
0.114946
-0.193695
0.12003
-0.194846
0.12368
-0.195717
0.125962
-0.196501
0.126783
-0.19706
0.125967
-0.197112
0.123488
-0.19653
0.119393
-0.195372
0.113777
-0.1937
0.106783
-0.191616
0.0985417
-0.189174
0.0891808
-0.186383
0.0788213
-0.183263
0.0676453
-0.179978
0.0558858
-0.176844
0.0437491
-0.17437
0.03127
-0.173036
0.0183876
-0.173258
0.00514817
-0.174669
-0.00829613
-0.175621
-0.0216853
-0.173864
-0.0341831
-0.171438
-0.04568
-0.167979
-0.0566961
-0.164401
-0.0674795
-0.162097
-0.0778263
-0.161075
-0.0874834
-0.161001
-0.0961014
-0.161456
-0.103533
-0.162187
-0.109714
-0.163174
-0.114582
-0.164472
-0.118054
-0.166082
-0.120067
-0.167902
-0.120539
-0.169809
-0.119521
-0.171598
-0.117305
-0.173369
-0.114089
-0.175555
-0.109832
-0.178353
-0.104341
-0.181504
-0.184294
-0.0967979
0.127644
-0.201912
-0.119061
0.133924
-0.204305
0.13877
-0.20635
0.142196
-0.207864
0.143992
-0.208786
0.143922
-0.208931
0.141882
-0.208139
0.137952
-0.206461
0.132262
-0.204007
0.124995
-0.200902
0.116341
-0.197266
0.106464
-0.193146
0.0955405
-0.188586
0.083795
-0.183677
0.0715036
-0.17866
0.0589455
-0.173884
0.0462556
-0.169741
0.0333595
-0.166531
0.0200357
-0.164551
0.00623118
-0.163635
-0.0078792
-0.162389
-0.0219268
-0.158787
-0.0348663
-0.155577
-0.0462992
-0.151774
-0.0568216
-0.147329
-0.0669355
-0.143757
-0.0766991
-0.141539
-0.0860149
-0.140525
-0.0946051
-0.140505
-0.102265
-0.141178
-0.10888
-0.142462
-0.114429
-0.14434
-0.118875
-0.14685
-0.122136
-0.14995
-0.124098
-0.153566
-0.124672
-0.157473
-0.124021
-0.161522
-0.122486
-0.165966
-0.120274
-0.171122
-0.117378
-0.176932
-0.183428
-0.113016
0.146747
-0.21188
-0.138698
0.153062
-0.21496
0.157826
-0.217659
0.160765
-0.219301
0.161607
-0.219806
0.160241
-0.219127
0.156732
-0.217271
0.151227
-0.214364
0.143933
-0.210581
0.135074
-0.206069
0.124853
-0.20094
0.113481
-0.195267
0.101197
-0.18914
0.0882911
-0.182723
0.0750687
-0.176298
0.0617844
-0.170187
0.0485185
-0.164635
0.0351428
-0.159759
0.0214204
-0.155774
0.00729104
-0.152717
-0.00701199
-0.149513
-0.0211476
-0.144271
-0.0343926
-0.140147
-0.046023
-0.136182
-0.0563338
-0.131335
-0.0659583
-0.126807
-0.0751859
-0.123449
-0.08402
-0.121424
-0.0923261
-0.120683
-0.0999365
-0.120985
-0.106731
-0.122223
-0.112645
-0.124344
-0.117686
-0.127339
-0.121832
-0.131208
-0.125028
-0.135927
-0.127158
-0.141342
-0.128145
-0.147269
-0.1282
-0.153675
-0.127696
-0.160711
-0.126822
-0.168491
-0.177629
-0.125169
0.167899
-0.221715
-0.160067
0.173989
-0.225331
0.177977
-0.228007
0.179717
-0.229248
0.17907
-0.228959
0.176047
-0.227222
0.170804
-0.224179
0.163564
-0.22002
0.154571
-0.214939
0.144066
-0.209092
0.132293
-0.202599
0.119513
-0.19557
0.106019
-0.188143
0.0921313
-0.180529
0.0781525
-0.173016
0.0642896
-0.165853
0.0505698
-0.159127
0.0368273
-0.152788
0.0228257
-0.147003
0.00849344
-0.141998
-0.00587773
-0.137085
-0.0199626
-0.130429
-0.0333188
-0.125325
-0.0451906
-0.121153
-0.0554715
-0.116242
-0.0647778
-0.111096
-0.0735372
-0.106777
-0.0819106
-0.103735
-0.0899055
-0.1021
-0.0974161
-0.101765
-0.104323
-0.102657
-0.110553
-0.104699
-0.116088
-0.107844
-0.120955
-0.112066
-0.125143
-0.11739
-0.12857
-0.123745
-0.131139
-0.130972
-0.132873
-0.138919
-0.134013
-0.147517
-0.134821
-0.156859
-0.167776
-0.135327
0.190399
-0.230977
-0.183145
0.195479
-0.234556
0.198107
-0.236737
0.198164
-0.23715
0.195652
-0.235801
0.190718
-0.232896
0.183596
-0.228659
0.17455
-0.2233
0.163847
-0.217017
0.151752
-0.209975
0.138547
-0.202315
0.124533
-0.194182
0.110032
-0.185753
0.0953648
-0.177252
0.0807938
-0.168934
0.0664627
-0.160946
0.0523598
-0.153243
0.0383253
-0.145649
0.0241512
-0.138303
0.00976028
-0.131582
-0.00454109
-0.125205
-0.0184149
-0.117388
-0.031681
-0.111288
-0.0437061
-0.106757
-0.0541054
-0.101898
-0.0632545
-0.096473
-0.0716688
-0.0914241
-0.0796326
-0.087453
-0.0872745
-0.0848644
-0.0945839
-0.0837097
-0.1015
-0.0839867
-0.107923
-0.0856752
-0.113824
-0.0886735
-0.119205
-0.0929398
-0.124141
-0.0984419
-0.128602
-0.105223
-0.132507
-0.113184
-0.135807
-0.122146
-0.138581
-0.131914
-0.141045
-0.14244
-0.154549
-0.143413
0.213574
-0.238872
-0.207602
0.216976
-0.241885
0.217641
-0.243166
0.215569
-0.242488
0.210913
-0.239986
0.203914
-0.235937
0.194844
-0.230586
0.183988
-0.224147
0.171627
-0.216822
0.158057
-0.208786
0.143584
-0.200208
0.128534
-0.191258
0.11323
-0.18213
0.0979624
-0.17303
0.0829343
-0.164144
0.068228
-0.155518
0.0538134
-0.147013
0.0395695
-0.138382
0.0253289
-0.129737
0.0109998
-0.121551
-0.00312956
-0.113938
-0.0166926
-0.105213
-0.0297063
-0.0981676
-0.041698
-0.0931603
-0.0522294
-0.0882764
-0.0613875
-0.0827701
-0.0696127
-0.0772482
-0.0772736
-0.0725007
-0.0845978
-0.068991
-0.0916744
-0.0669261
-0.0985131
-0.0663995
-0.105032
-0.067499
-0.111179
-0.0701084
-0.116948
-0.0741523
-0.122415
-0.0795319
-0.127627
-0.0863263
-0.13257
-0.0945085
-0.137171
-0.103959
-0.141439
-0.11441
-0.145489
-0.125702
-0.138526
-0.149569
0.236452
-0.244537
-0.232534
0.237523
-0.246578
0.235757
-0.246751
0.231291
-0.244929
0.224367
-0.241329
0.215263
-0.236248
0.204266
-0.22993
0.191674
-0.222593
0.177786
-0.21444
0.162917
-0.205666
0.147388
-0.196453
0.131522
-0.186984
0.115616
-0.177442
0.0999101
-0.167989
0.0845433
-0.158728
0.0695495
-0.149618
0.0548976
-0.140472
0.0405224
-0.131025
0.0263071
-0.121357
0.0121383
-0.11196
-0.00173742
-0.103326
-0.0149366
-0.0939211
-0.0275819
-0.0860469
-0.0394161
-0.0804577
-0.0499739
-0.0754617
-0.0592077
-0.0699102
-0.0673798
-0.0641152
-0.0748564
-0.0587776
-0.0819408
-0.0544385
-0.0888052
-0.0514508
-0.0955146
-0.0500295
-0.102062
-0.0503488
-0.108357
-0.0523874
-0.114393
-0.0560008
-0.120226
-0.0610361
-0.125933
-0.0675615
-0.131569
-0.0755787
-0.137138
-0.0850252
-0.142624
-0.095655
-0.148064
-0.107255
-0.120349
-0.153659
0.257878
-0.247197
-0.256692
0.256188
-0.248121
0.251759
-0.247185
0.244814
-0.244322
0.235621
-0.239772
0.224465
-0.233834
0.211649
-0.226757
0.197477
-0.218754
0.182263
-0.210038
0.166325
-0.20081
0.149979
-0.191258
0.13352
-0.181552
0.1172
-0.171845
0.101199
-0.16224
0.0855996
-0.15276
0.0704049
-0.143297
0.0555951
-0.133661
0.0411605
-0.12361
0.0270438
-0.113195
0.0131113
-0.102845
-0.00044643
-0.0933905
-0.0132617
-0.0834905
-0.0254793
-0.0749468
-0.0370273
-0.0687443
-0.0475303
-0.0635074
-0.0568122
-0.0579011
-0.0650113
-0.051936
-0.0724145
-0.0461771
-0.0793586
-0.0411282
-0.0860741
-0.037261
-0.0926713
-0.0349229
-0.0992165
-0.0343443
-0.1056
-0.0356905
-0.111815
-0.0387246
-0.117904
-0.0432539
-0.12392
-0.0493437
-0.12996
-0.0569567
-0.136108
-0.0660479
-0.142396
-0.0764267
-0.148862
-0.0878712
-0.10077
-0.155679
0.276758
-0.246404
-0.278662
0.272155
-0.246282
0.26505
-0.244387
0.255687
-0.240671
0.244331
-0.235374
0.23128
-0.228809
0.21684
-0.221225
0.201324
-0.212836
0.185044
-0.20385
0.168305
-0.194463
0.151394
-0.18485
0.134559
-0.175154
0.117998
-0.165487
0.101832
-0.155887
0.0861039
-0.146313
0.0708012
-0.136618
0.055918
-0.126631
0.041489
-0.116167
0.0275221
-0.105264
0.0138775
-0.0942156
0.000683492
-0.0841359
-0.0117472
-0.0738796
-0.0235296
-0.0648334
-0.0347117
-0.0580606
-0.045054
-0.0524846
-0.0543437
-0.0467547
-0.062595
-0.0406658
-0.0700085
-0.0346072
-0.0769156
-0.0289626
-0.0835755
-0.0242866
-0.090133
-0.0210515
-0.0966647
-0.0195653
-0.103117
-0.0201332
-0.109492
-0.0224716
-0.115757
-0.0264291
-0.121955
-0.0320012
-0.128189
-0.039097
-0.134588
-0.0476475
-0.14123
-0.0575126
-0.148248
-0.0684191
-0.0806813
-0.155842
0.292218
-0.242031
-0.29725
0.284785
-0.241071
0.275153
-0.238446
0.263553
-0.234105
0.250252
-0.228309
0.235553
-0.221388
0.219771
-0.21359
0.203214
-0.205117
0.186172
-0.196157
0.168916
-0.186889
0.151688
-0.17746
0.134679
-0.167974
0.11803
-0.1585
0.101814
-0.149022
0.0860541
-0.139461
0.07074
-0.129649
0.0558827
-0.119451
0.0415352
-0.108737
0.0277501
-0.0975566
0.014419
-0.0860573
0.00160743
-0.0755376
-0.0104565
-0.0650263
-0.0218291
-0.0556363
-0.0326232
-0.048385
-0.0427353
-0.0424217
-0.0519775
-0.03649
-0.0602659
-0.0302902
-0.0677607
-0.0239766
-0.0747506
-0.0178137
-0.0814867
-0.0124026
-0.0881232
-0.00832119
-0.094691
-0.00600903
-0.101223
-0.00577649
-0.107716
-0.00738527
-0.114085
-0.0107679
-0.120365
-0.0158068
-0.126642
-0.0223656
-0.13304
-0.0303345
-0.139696
-0.0395652
-0.146826
-0.0497021
-0.0610345
-0.154667
0.303609
-0.234199
-0.311572
0.293602
-0.232683
0.281724
-0.229591
0.268181
-0.22488
0.25325
-0.218863
0.237249
-0.211889
0.220484
-0.204192
0.20324
-0.195937
0.185766
-0.187279
0.168281
-0.178364
0.150967
-0.169308
0.13396
-0.160175
0.11735
-0.150998
0.101177
-0.141722
0.0854653
-0.132262
0.0702166
-0.122442
0.0554725
-0.112178
0.0412743
-0.101354
0.0277192
-0.0900857
0.0147215
-0.0783498
0.00228694
-0.0675468
-0.00944806
-0.0568468
-0.0204634
-0.0472558
-0.0308957
-0.0396436
-0.0407476
-0.0333024
-0.049889
-0.0271166
-0.0582107
-0.020774
-0.065875
-0.0141654
-0.0731157
-0.00749142
-0.080127
-0.00140028
-0.0870292
0.0034487
-0.093785
0.0064517
-0.100419
0.00735397
-0.106944
0.00637575
-0.113301
0.00350983
-0.119515
-0.00104922
-0.125647
-0.0071274
-0.131827
-0.0145504
-0.13826
-0.0230921
-0.145148
-0.0323992
-0.0427437
-0.152707
0.310485
-0.223238
-0.320985
0.298313
-0.221475
0.284583
-0.218178
0.269493
-0.213362
0.253349
-0.207428
0.23647
-0.200724
0.219132
-0.193428
0.201573
-0.18566
0.183989
-0.177531
0.166543
-0.169151
0.149359
-0.160603
0.132515
-0.151911
0.116067
-0.143095
0.100033
-0.13407
0.0844481
-0.124779
0.0693296
-0.115042
0.0547452
-0.104836
0.040734
-0.0940263
0.0274046
-0.082812
0.0147196
-0.0710329
0.00265012
-0.0601084
-0.00878578
-0.0492646
-0.0195
-0.0395863
-0.0296329
-0.0317234
-0.0392532
-0.0250468
-0.0483057
-0.0185728
-0.0567084
-0.0120227
-0.0646634
-0.00501034
-0.0723723
0.0022565
-0.079937
0.00902343
-0.0873752
0.0145408
-0.0945591
0.0180534
-0.101343
0.0192839
-0.107838
0.0187034
-0.114016
0.0161634
-0.119924
0.0119289
-0.125661
0.00622709
-0.131388
-0.000709577
-0.13729
-0.00862764
-0.143553
-0.0171709
-0.0266009
-0.15037
0.312652
-0.209688
-0.325099
0.29885
-0.207946
0.28376
-0.204672
0.267617
-0.200026
0.250757
-0.194492
0.23347
-0.188358
0.215976
-0.181715
0.198453
-0.174639
0.18104
-0.167195
0.163843
-0.159463
0.146943
-0.1515
0.130373
-0.143292
0.114189
-0.134886
0.0983814
-0.126143
0.0830234
-0.117099
0.0681282
-0.107524
0.0537897
-0.0974856
0.0400059
-0.0867667
0.0268897
-0.07569
0.0144355
-0.0639868
0.00264244
-0.0530908
-0.0085496
-0.0421774
-0.0189937
-0.0325463
-0.0288798
-0.024518
-0.0383369
-0.0175314
-0.0473777
-0.0107256
-0.0560022
-0.00384105
-0.0645023
0.00379447
-0.0729572
0.0117544
-0.0813419
0.0191746
-0.089575
0.0252436
-0.0973373
0.0289635
-0.104573
0.0303164
-0.111138
0.0296795
-0.117063
0.0270783
-0.122396
0.0227913
-0.127343
0.0172039
-0.132173
0.0106093
-0.137131
0.00324095
-0.142371
-0.00463627
-0.0132648
-0.148062
0.310248
-0.194273
-0.323886
0.295432
-0.192689
0.279555
-0.189634
0.262925
-0.185433
0.24589
-0.180598
0.228654
-0.175251
0.211377
-0.169432
0.194176
-0.163166
0.177134
-0.156481
0.16032
-0.14944
0.143776
-0.142078
0.127525
-0.134365
0.11163
-0.126398
0.0960855
-0.117976
0.0810111
-0.109269
0.0663693
-0.0999031
0.0523357
-0.090168
0.0388234
-0.0795939
0.0259885
-0.0687566
0.013756
-0.0571656
0.00217995
-0.0463926
-0.00882228
-0.0354839
-0.0190394
-0.0260408
-0.028744
-0.0179068
-0.0380969
-0.0106387
-0.0472559
-0.00338495
-0.0563343
0.00406409
-0.0656956
0.012625
-0.0751076
0.0212707
-0.0845607
0.0293541
-0.0937556
0.0357698
-0.102416
0.0395386
-0.110289
0.0406607
-0.117105
0.0394942
-0.122744
0.0362129
-0.127226
0.0312314
-0.130988
0.0253505
-0.134385
0.018784
-0.137907
0.0119003
-0.141677
0.00459715
-0.0032561
-0.145925
0.303791
-0.177807
-0.317793
0.288622
-0.176358
0.27258
-0.173684
0.256071
-0.170198
0.239368
-0.166261
0.22257
-0.161805
0.205779
-0.156866
0.189079
-0.151438
0.172512
-0.145507
0.156156
-0.139172
0.140018
-0.132397
0.124149
-0.125203
0.108601
-0.117692
0.0933403
-0.109587
0.078558
-0.101294
0.0641175
-0.0921176
0.0503222
-0.0827994
0.0369318
-0.0723354
0.0243313
-0.061936
0.0122396
-0.0504534
0.000942622
-0.0400346
-0.00991635
-0.0290908
-0.0199363
-0.019988
-0.0295278
-0.0117643
-0.0388521
-0.00423233
-0.0482061
0.00359011
-0.0579664
0.0119868
-0.0682499
0.0216094
-0.0788119
0.0310647
-0.0893637
0.0396569
-0.0996515
0.0463109
-0.109296
0.0499181
-0.117943
0.0505003
-0.125053
0.0482269
-0.130447
0.0436291
-0.13375
0.0369259
-0.136157
0.0304827
-0.137578
0.0232335
-0.139207
0.016827
-0.14108
0.0100058
0.00296732
-0.143559
0.29409
-0.160638
-0.308109
0.279346
-0.159743
0.263694
-0.157394
0.247942
-0.154975
0.231871
-0.151802
0.215787
-0.148319
0.199587
-0.144141
0.183485
-0.139574
0.167388
-0.13429
0.151526
-0.128714
0.135752
-0.122433
0.120308
-0.115859
0.1051
-0.108769
0.0901481
-0.101007
0.0758028
-0.0933149
0.0614652
-0.0840606
0.0481593
-0.0756168
0.0346281
-0.0647083
0.0225205
-0.05546
0.0101508
-0.0433981
-0.000924327
-0.03392
-0.0119233
-0.0226688
-0.0218851
-0.0141968
-0.0315263
-0.00587046
-0.0409076
0.00183599
-0.0504988
0.0103088
-0.0607759
0.0198323
-0.0718384
0.0306778
-0.0836479
0.0413087
-0.0951061
0.0499654
-0.10674
0.057194
-0.116869
0.0596739
-0.126278
0.0598887
-0.133093
0.0553467
-0.13816
0.0492967
-0.140061
0.0396904
-0.140783
0.0322965
-0.139991
0.0237288
-0.139414
0.0176984
-0.139251
0.0114186
0.00531475
-0.139928
0.282134
-0.295795
0.268687
0.253959
0.239381
0.224088
0.208747
0.193083
0.177496
0.161782
0.146387
0.13089
0.115885
0.100983
0.0864074
0.0724719
0.0583492
0.0455252
0.0320559
0.0202652
0.00766665
-0.00330077
-0.0143553
-0.0243307
-0.0344841
-0.044497
-0.0560548
-0.0666414
-0.0794602
-0.0898157
-0.102573
-0.113201
-0.123432
-0.133089
-0.13786
-0.143525
-0.141866
-0.142636
-0.138978
-0.13744
-0.13482
-0.134192
-0.0122652
-0.121255
-0.022794
-0.127894
-0.0306837
-0.132237
-0.0354462
-0.135933
-0.0377397
-0.13893
-0.0383289
-0.141576
-0.0376849
-0.144067
-0.0361909
-0.146125
-0.0341095
-0.147486
-0.0315147
-0.147804
-0.0283739
-0.146666
-0.024687
-0.143818
-0.0204997
-0.139197
-0.0157617
-0.133002
-0.0105428
-0.124927
-0.00414946
-0.115759
-0.0992562
-0.00544244
-0.110206
-0.0154535
-0.116756
-0.0232482
-0.121613
-0.0287583
-0.125989
-0.0321318
-0.129667
-0.033814
-0.132741
-0.0342534
-0.135442
-0.0336618
-0.137761
-0.0323089
-0.139402
-0.0303194
-0.14018
-0.0276789
-0.139829
-0.0243609
-0.138105
-0.0204094
-0.134864
-0.0159178
-0.130234
-0.0108771
-0.123984
-0.00519703
-0.116947
-0.101621
0.00129928
-0.100023
-0.0080289
-0.106658
-0.015719
-0.111653
-0.0217374
-0.116276
-0.0259228
-0.120473
-0.0284974
-0.123994
-0.0298351
-0.126949
-0.0301326
-0.129535
-0.0295516
-0.131515
-0.0282236
-0.132749
-0.0261684
-0.133095
-0.0233684
-0.132349
-0.0198438
-0.130327
-0.0156797
-0.12708
-0.0108754
-0.122447
-0.0055056
-0.11716
-0.103335
0.00789689
-0.0912588
-0.000984728
-0.0973379
-0.00831773
-0.102565
-0.0144562
-0.107119
-0.0191976
-0.111533
-0.0225304
-0.115395
-0.024616
-0.11867
-0.0257354
-0.121458
-0.0259359
-0.123777
-0.0253146
-0.125455
-0.0239083
-0.126421
-0.0217026
-0.126529
-0.0187009
-0.12558
-0.0149681
-0.123561
-0.0105541
-0.120316
-0.00550128
-0.11657
-0.104273
0.0141768
-0.0833237
0.00606146
-0.0890844
-0.00106453
-0.0941522
-0.00716786
-0.0986132
-0.0122151
-0.103027
-0.0160985
-0.107077
-0.0188671
-0.110597
-0.0206759
-0.1136
-0.0216005
-0.116203
-0.0216832
-0.11828
-0.0209615
-0.119779
-0.019422
-0.120616
-0.0170463
-0.120599
-0.0138604
-0.119673
-0.00992607
-0.117643
-0.00528419
-0.115251
-0.104409
0.0202206
-0.0764433
0.0125905
-0.0815853
0.00582097
-0.0865149
-8.16069e-05
-0.0908628
-0.00522823
-0.0950907
-0.00947037
-0.0991606
-0.0127671
-0.102817
-0.0151451
-0.106022
-0.0167249
-0.108814
-0.0174852
-0.111225
-0.0174478
-0.113172
-0.0166056
-0.114608
-0.0149182
-0.115383
-0.012376
-0.115415
-0.00901741
-0.114464
-0.00490968
-0.113239
-0.10377
0.0258002
-0.070258
0.0188643
-0.0750177
0.0124054
-0.0795609
0.00665132
-0.0837567
0.00152535
-0.0877772
-0.00290983
-0.091739
-0.006569
-0.0954237
-0.00943302
-0.0987422
-0.0115455
-0.101684
-0.0129112
-0.104332
-0.0135207
-0.106629
-0.0133627
-0.108539
-0.0123867
-0.10996
-0.0105567
-0.110803
-0.00785097
-0.110814
-0.00440798
-0.110548
-0.102399
0.0309102
-0.064922
0.0244378
-0.06912
0.0183928
-0.0733489
0.0128749
-0.0773266
0.00787035
-0.0811235
0.00337638
-0.0848793
-0.000509238
-0.0884878
-0.00373056
-0.09183
-0.00626542
-0.0948732
-0.00815188
-0.0976506
-0.00934297
-0.100201
-0.0098189
-0.102469
-0.00953666
-0.104386
-0.00844868
-0.105872
-0.00646764
-0.106722
-0.00380187
-0.107196
-0.100352
0.0354268
-0.0601696
0.0295424
-0.0639879
0.0238624
-0.0677881
0.0185629
-0.0715026
0.0136961
-0.0750862
0.0092284
-0.0786027
0.00523113
-0.0820599
0.00177389
-0.0853467
-0.00110047
-0.088413
-0.00339049
-0.09126
-0.00507143
-0.093958
-0.00611187
-0.0964683
-0.00647188
-0.0987367
-0.00610657
-0.100697
-0.00490865
-0.102211
-0.00307773
-0.103239
-0.097655
0.0392365
-0.0561592
0.0338253
-0.0594804
0.0285819
-0.0629124
0.0235836
-0.0663197
0.0188906
-0.0696466
0.0145238
-0.0729247
0.0105106
-0.0761757
0.00692362
-0.0793413
0.00381955
-0.0823631
0.00123379
-0.0852284
-0.000850336
-0.0879633
-0.0023825
-0.0906032
-0.00332259
-0.0930909
-0.00363322
-0.0953638
-0.00321453
-0.0973529
-0.00221256
-0.0987777
-0.0942911
0.0424019
-0.0527055
0.0375332
-0.0556437
0.0326912
-0.0586526
0.0279848
-0.0617257
0.0234894
-0.0647786
0.0192508
-0.0678186
0.015281
-0.070839
0.0116424
-0.073838
0.00839064
-0.0767565
0.0055639
-0.0795703
0.00317262
-0.0822842
0.00122451
-0.084937
-0.000232188
-0.087518
-0.00115643
-0.0899636
-0.00146762
-0.0922499
-0.00128792
-0.093899
-0.0903085
0.044754
-0.0499529
0.0404007
-0.0524311
0.0360321
-0.0550517
0.0316936
-0.0577591
0.0274554
-0.0604975
0.0233777
-0.0632681
0.0195088
-0.0660563
0.0158755
-0.0688436
0.0125353
-0.0716057
0.00952646
-0.0743045
0.00687522
-0.0769375
0.00458078
-0.0795217
0.00267733
-0.0820864
0.00121093
-0.084585
0.00023274
-0.0870037
-0.000357823
-0.0887178
-0.0857907
0.046486
-0.047773
0.0426886
-0.0498676
0.0387797
-0.0520714
0.0348174
-0.0543962
0.0308788
-0.0568076
0.0270123
-0.0592809
0.0232681
-0.0618063
0.0196811
-0.0643532
0.0162805
-0.0668955
0.0131158
-0.0694186
0.0102224
-0.07191
0.00762598
-0.0743811
0.00533698
-0.0768498
0.00339695
-0.079305
0.00181481
-0.0817045
0.00054076
-0.083369
-0.0808411
0.047407
-0.0462791
0.04418
-0.0479566
0.0408113
-0.0497731
0.0373205
-0.0517059
0.0337576
-0.0537527
0.030176
-0.0558937
0.0266117
-0.0581045
0.0231051
-0.0603606
0.0196947
-0.0626367
0.0164144
-0.0649164
0.0133114
-0.0672035
0.010422
-0.0695015
0.00776949
-0.0718183
0.00539393
-0.0741631
0.00326983
-0.0764314
0.0013995
-0.0779752
-0.0755555
0.0477478
-0.0453954
0.0451156
-0.0467159
0.0422827
-0.0481386
0.0392846
-0.0496892
0.0361517
-0.0513612
0.0329149
-0.0531365
0.0296028
-0.0549897
0.0262427
-0.0568966
0.0228744
-0.0588462
0.0195416
-0.0608281
0.0162752
-0.0628351
0.0131122
-0.0648793
0.0100937
-0.0669747
0.00728287
-0.0691555
0.00466471
-0.0712414
0.00222486
-0.0725878
-0.0700094
0.0473826
-0.0451597
0.0453283
-0.046127
0.0430756
-0.0472044
0.040626
-0.0483881
0.0379867
-0.0496777
0.0351668
-0.0510576
0.0321811
-0.0525094
0.0290559
-0.0540208
0.0258197
-0.0555847
0.0225022
-0.0571927
0.0191347
-0.0588408
0.0157519
-0.0605463
0.0123922
-0.0623281
0.00912477
-0.0642536
0.00601857
-0.0661436
0.00299014
-0.0672033
-0.0642936
0.0464305
-0.045554
0.0449739
-0.0462135
0.043278
-0.0469451
0.0413559
-0.0477741
0.0392075
-0.0486873
0.0368283
-0.0496647
0.0342211
-0.0506959
0.0313964
-0.0517767
0.0283668
-0.0529028
0.0251477
-0.0540695
0.0217601
-0.0552792
0.0182302
-0.0565555
0.0146023
-0.0579364
0.0109245
-0.0594944
0.00725538
-0.0610619
0.00361918
-0.0618115
-0.0585652
0.0449846
-0.0465123
0.0440193
-0.0468786
0.0428318
-0.0473165
0.0414025
-0.0478119
0.039713
-0.0483527
0.0377542
-0.048928
0.0355225
-0.0495334
0.0330163
-0.0501667
0.0302345
-0.0508245
0.0271783
-0.0515049
0.0238572
-0.0522188
0.0202887
-0.0529989
0.0165054
-0.0538985
0.0125269
-0.054978
0.0083518
-0.05605
0.00420989
-0.0565187
-0.0528764
0.0429391
-0.0480997
0.0425121
-0.0481842
0.0417988
-0.0482951
0.0407983
-0.0484435
0.039502
-0.0486101
0.0379021
-0.0487841
0.0359932
-0.0489637
0.03377
-0.0491469
0.0312281
-0.0493311
0.0283676
-0.0495193
0.025194
-0.0497278
0.0217156
-0.0499925
0.0179389
-0.0503652
0.0138375
-0.0508741
0.00939259
-0.0513394
0.00471009
-0.0512911
-0.0473258
0.0407013
-0.0501527
0.040627
-0.0499658
0.0402845
-0.049794
0.0396357
-0.0496046
0.0386605
-0.0493958
0.037353
-0.0491713
0.0357093
-0.0489306
0.0337255
-0.0486718
0.0314007
-0.0483955
0.0287394
-0.0481097
0.0257486
-0.0478335
0.0224314
-0.047599
0.0187721
-0.0474391
0.0147092
-0.0473368
0.0101798
-0.047111
0.00501634
-0.0461871
-0.042111
0.0379779
-0.0528554
0.0383752
-0.0523689
0.0383999
-0.0518325
0.0380603
-0.0512713
0.0373624
-0.0506814
0.0363043
-0.0500577
0.0348856
-0.0494016
0.0331101
-0.048715
0.030985
-0.0480016
0.028519
-0.0472711
0.0257172
-0.046539
0.0225703
-0.0458228
0.019037
-0.0451235
0.015032
-0.0443801
0.0104767
-0.0434185
0.00514434
-0.0415161
-0.0374107
0.0354155
-0.0560214
0.0360906
-0.0552312
0.0364149
-0.0543708
0.0363586
-0.0534421
0.0359121
-0.0524612
0.0350777
-0.0514346
0.0338612
-0.050367
0.0322706
-0.0492625
0.0303164
-0.0481272
0.0280074
-0.0469688
0.0253435
-0.0457939
0.0223046
-0.0446001
0.0188399
-0.0433577
0.0148729
-0.0419799
0.0103389
-0.0403046
0.00510621
-0.0375424
-0.0333878
0.0326296
-0.0599423
0.0337873
-0.0587935
0.0344793
-0.0575093
0.0347364
-0.0561756
0.0345678
-0.0547864
0.033975
-0.0533406
0.0329678
-0.0518512
0.0315606
-0.0503264
0.0297647
-0.0487692
0.0275846
-0.0471809
0.0250134
-0.0455562
0.0220255
-0.0438744
0.0185757
-0.0420858
0.0146336
-0.040119
0.0101199
-0.0377627
0.0051232
-0.0343957
-0.0299807
0.030218
-0.0644711
0.0317227
-0.0629587
0.0327807
-0.0612813
0.0333788
-0.0595303
0.0335124
-0.0577086
0.0331853
-0.0558232
0.0324054
-0.0538912
0.0311821
-0.0519222
0.0295239
-0.0499186
0.0274348
-0.0478769
0.0249077
-0.0457813
0.0219245
-0.0435996
0.018473
-0.0412886
0.0145353
-0.0387712
0.0100584
-0.0358011
0.00517455
-0.0319429
-0.0271433
0.0277677
-0.0699015
0.0298207
-0.067968
0.0313269
-0.0658048
0.032318
-0.0635902
0.0327997
-0.0613012
0.0327737
-0.0589409
0.0322469
-0.0565318
0.0312182
-0.0540755
0.0296865
-0.0515744
0.0276487
-0.0490234
0.025101
-0.0464062
0.0220416
-0.0436929
0.0184819
-0.0408537
0.0144366
-0.0378151
0.00990378
-0.0343147
0.00506095
-0.0300968
-0.0250228
0.0256163
-0.0761765
0.028141
-0.0737832
0.0301251
-0.0711435
0.0315418
-0.0684174
0.0323937
-0.0656114
0.0326718
-0.0627175
0.0323731
-0.0597638
0.0314963
-0.0567544
0.0300366
-0.0536885
0.0279941
-0.0505661
0.0253748
-0.0473772
0.0221971
-0.0441049
0.0185002
-0.0407405
0.0143266
-0.0372146
0.00973441
-0.0332806
0.00496208
-0.0288639
-0.0235784
0.0233667
-0.0834543
0.026488
-0.0805633
0.0289798
-0.0773568
0.0308309
-0.0740454
0.0320451
-0.0706512
0.032616
-0.0671559
0.0325284
-0.0635797
0.0317751
-0.0599351
0.0303566
-0.0562294
0.0282837
-0.0524733
0.0255799
-0.0486707
0.022289
-0.0448252
0.0184754
-0.0409495
0.0142081
-0.0369797
0.00960208
-0.0327156
0.00488319
-0.0281944
-0.0227535
0.0210154
-0.0917911
0.0246872
-0.0882895
0.0276893
-0.084469
0.0299952
-0.0805109
0.031575
-0.0764343
0.032414
-0.0722367
0.0325016
-0.0679432
0.031837
-0.0635765
0.0304342
-0.0591599
0.0283233
-0.0547208
0.025552
-0.0502816
0.0221885
-0.0458673
0.0183153
-0.0415058
0.0140207
-0.0371399
0.00944616
-0.0326237
0.00476491
-0.0280269
-0.0225379
0.0182902
-0.101221
0.0226017
-0.0970674
0.0261344
-0.092511
0.0288694
-0.0877925
0.0307772
-0.0829214
0.0318434
-0.077911
0.0320665
-0.0728003
0.0314614
-0.0676297
0.0300641
-0.0624441
0.0279293
-0.0572912
0.0251298
-0.0522124
0.0217543
-0.0472497
0.017896
-0.0424369
0.0136538
-0.0377233
0.0091705
-0.0330085
0.00456944
-0.0283437
-0.0229442
0.0151211
-0.111849
0.0200404
-0.106867
0.0240872
-0.101461
0.0272255
-0.0958529
0.0294266
-0.0900594
0.0306846
-0.0841185
0.0310139
-0.0780906
0.0304543
-0.0720427
0.0290693
-0.0660452
0.0269409
-0.0601653
0.0241642
-0.0544592
0.0208435
-0.0489792
0.0170815
-0.0437592
0.0129852
-0.0387542
0.00868348
-0.0338868
0.00428205
-0.0291862
-0.0239827
0.0112532
-0.123536
0.0167907
-0.117684
0.0213397
-0.111285
0.0248605
-0.104641
0.0273259
-0.0977815
0.0287466
-0.0907849
0.0291627
-0.0837427
0.0286447
-0.0767536
0.0272865
-0.0699132
0.0251963
-0.0633048
0.0224892
-0.0569933
0.0192836
-0.0510358
0.0156959
-0.0454661
0.011836
-0.0402339
0.00782155
-0.0352711
0.00380266
-0.030641
-0.025745
0.00652498
-0.136472
0.0126809
-0.12948
0.0177166
-0.121922
0.0215956
-0.114078
0.0242977
-0.105999
0.0258576
-0.0978186
0.0263473
-0.089668
0.0258706
-0.0816799
0.0245513
-0.073972
0.022523
-0.0666398
0.019923
-0.0597537
0.0168878
-0.0533719
0.0135509
-0.0475271
0.0100378
-0.0421626
0.00649244
-0.03723
0.00310448
-0.0328397
-0.0283306
0.000752079
-0.150387
0.00753502
-0.142205
0.013054
-0.133299
0.0172708
-0.124068
0.0201884
-0.114605
0.0218718
-0.10511
0.0224279
-0.095758
0.0219949
-0.0867164
0.0207278
-0.0781219
0.0187893
-0.0700801
0.0163451
-0.0626665
0.0135582
-0.0559393
0.0105882
-0.0499292
0.0075906
-0.0445769
0.00472682
-0.0398417
0.00217442
-0.0358508
-0.0318329
-0.00618567
-0.165513
0.00122928
-0.155777
0.00721993
-0.145309
0.0117621
-0.134491
0.0148838
-0.123474
0.016684
-0.112531
0.0173077
-0.101886
0.0169304
-0.0917413
0.0157429
-0.0822509
0.013943
-0.0735309
0.0117306
-0.0656611
0.00929729
-0.0586937
0.00682395
-0.0526505
0.0044897
-0.0474721
0.00247314
-0.0431179
0.000939142
-0.0397021
-0.0364006
-0.0144299
-0.181415
-0.00636918
-0.170096
0.000106957
-0.157841
0.00497616
-0.145218
0.00830356
-0.132467
0.0102275
-0.11994
0.0109345
-0.107914
0.010642
-0.0966232
0.00958176
-0.0862421
0.00798954
-0.0768934
0.00609603
-0.0686544
0.00411617
-0.0615637
0.00224892
-0.0556289
0.000697469
-0.0507955
-0.000325526
-0.0470331
-0.00062082
-0.0444419
-0.0421862
-0.024008
-0.19841
-0.0152893
-0.185033
-0.00832596
-0.170749
-0.0031198
-0.156099
0.000426132
-0.14143
0.00249331
-0.127183
0.0033155
-0.113691
0.00315488
-0.101224
0.00228504
-0.0899706
0.000976718
-0.080054
-0.000513706
-0.0715399
-0.00194981
-0.0644492
-0.00310716
-0.0587785
-0.00374588
-0.0544892
-0.00360737
-0.0515688
-0.00244798
-0.0501012
-0.0492725
-0.0349581
-0.215872
-0.0255414
-0.200465
-0.0180515
-0.183896
-0.0124787
-0.16698
-0.00868211
-0.150203
-0.00643313
-0.134098
-0.0054488
-0.119063
-0.00542124
-0.105394
-0.00603737
-0.0932913
-0.00699588
-0.0828698
-0.00801398
-0.0741793
-0.00882353
-0.0672276
-0.00916053
-0.0620074
-0.00874312
-0.0584972
-0.00727597
-0.056696
-0.00447942
-0.0566689
-0.0576714
-0.0472322
-0.23422
-0.0371056
-0.216213
-0.0290653
-0.197107
-0.0230805
-0.1777
-0.018978
-0.158627
-0.0164861
-0.14053
-0.0152778
-0.123868
-0.0150034
-0.108967
-0.0153116
-0.0960343
-0.0158662
-0.0851726
-0.0163467
-0.0764188
-0.0164402
-0.0697735
-0.0158374
-0.0652251
-0.0142205
-0.0627581
-0.0112687
-0.0623704
-0.00667516
-0.0641079
-0.0673525
-0.0607604
-0.252591
-0.0498858
-0.23211
-0.0412591
-0.210205
-0.0348226
-0.188076
-0.0303685
-0.16652
-0.0275859
-0.146293
-0.026106
-0.127919
-0.0255347
-0.111759
-0.0254775
-0.0980237
-0.0255534
-0.086808
-0.0253964
-0.078134
-0.0246528
-0.0719904
-0.0229821
-0.068349
-0.0200485
-0.0671851
-0.0155149
-0.0684914
-0.00902686
-0.0723229
-0.0782814
-0.0752393
-0.271606
-0.0635412
-0.248012
-0.0542188
-0.22307
-0.0472243
-0.197979
-0.0423277
-0.173733
-0.0391819
-0.151216
-0.0373681
-0.131036
-0.0364366
-0.113592
-0.035941
-0.0990971
-0.035457
-0.0876276
-0.0345864
-0.0791801
-0.0329478
-0.0737236
-0.0301727
-0.0712123
-0.025902
-0.0716041
-0.0197626
-0.074896
-0.0113665
-0.0811454
-0.0902667
-0.0819762
0.0361982
0.0847457
-0.0797977
0.0348141
-0.0775816
0.032488
-0.0757793
0.0291345
-0.0738583
0.0246423
-0.0721329
0.0189189
-0.0701586
0.0119004
-0.0681955
0.00356834
-0.0658519
-0.0061217
-0.0633231
-0.0171139
-0.0602806
-0.0293479
-0.0568774
-0.0427108
-0.0528377
-0.0570466
-0.0482794
-0.0721924
-0.0429918
-0.0879037
-0.0370492
-0.103996
-0.0303105
-0.120181
-0.0227823
-0.136251
-0.0144436
-0.15197
-0.00521408
-0.167054
0.00480769
-0.181412
0.015772
-0.194638
0.0274531
-0.206825
0.0399992
-0.217557
0.0532067
-0.226773
0.0671262
-0.23423
0.0816229
-0.23979
0.0965234
-0.243358
0.111911
-0.244705
0.12731
-0.243913
0.143068
-0.240717
0.15843
-0.235278
0.173929
-0.227579
0.18868
-0.217822
0.203292
-0.206205
0.216862
-0.19301
0.230008
-0.178535
0.241846
-0.16313
0.25303
-0.147196
0.262703
-0.131083
-0.115164
-0.0762436
0.0325075
0.0782634
-0.0744259
0.0314209
-0.0727723
0.0293862
-0.0712146
0.0262894
-0.0696912
0.0220265
-0.0681339
0.0164985
-0.0664782
0.00964435
-0.0646346
0.00141955
-0.062539
-0.00819708
-0.0601175
-0.019162
-0.0572981
-0.0314162
-0.054023
-0.0448362
-0.0502186
-0.0592856
-0.0458463
-0.0745705
-0.0408351
-0.0904835
-0.0351592
-0.106799
-0.0287591
-0.123268
-0.0216066
-0.139656
-0.0136847
-0.155722
-0.00494736
-0.171214
0.00456659
-0.185965
0.014904
-0.199661
0.0259705
-0.21226
0.0377831
-0.223466
0.0502569
-0.233123
0.0633341
-0.241026
0.0769334
-0.247023
0.0909172
-0.250971
0.105226
-0.252728
0.11966
-0.252246
0.134169
-0.249418
0.148518
-0.244223
0.1626
-0.23678
0.176238
-0.227224
0.189311
-0.215802
0.201642
-0.202743
0.213109
-0.18839
0.223581
-0.173074
0.232943
-0.157195