/*--------------------------------*- C++ -*----------------------------------*\
  =========                 |
  \\      /  F ield         | OpenFOAM: The Open Source CFD Toolbox
   \\    /   O peration     | Website:  https://openfoam.org
    \\  /    A nd           | Version:  6
     \\/     M anipulation  |
\*---------------------------------------------------------------------------*/
FoamFile
{
    version     2.0;
    format      ascii;
    class       volVectorField;
    location    "2.25";
    object      U;
}
// * * * * * * * * * * * * * * * * * * * * * * * * * * * * * * * * * * * * * //

dimensions      [0 1 -1 0 0 0 0];

internalField   nonuniform List<vector> 
5625
(
(0.8944 0.4472 0)
(0.8944 0.4472 0)
(0.8944 0.4472 0)
(0.8944 0.4472 0)
(0.8944 0.447199 0)
(0.8944 0.4472 0)
(0.8944 0.4472 0)
(0.8944 0.447199 0)
(0.8944 0.447199 0)
(0.8944 0.447199 0)
(0.8944 0.4472 0)
(0.8944 0.4472 0)
(0.8944 0.4472 0)
(0.8944 0.4472 0)
(0.8944 0.4472 0)
(0.8944 0.4472 0)
(0.8944 0.4472 0)
(0.8944 0.4472 0)
(0.8944 0.4472 0)
(0.8944 0.4472 0)
(0.8944 0.4472 0)
(0.8944 0.4472 0)
(0.8944 0.4472 0)
(0.8944 0.447201 0)
(0.8944 0.447201 0)
(0.8944 0.447201 0)
(0.8944 0.4472 0)
(0.8944 0.4472 0)
(0.8944 0.4472 0)
(0.8944 0.4472 0)
(0.8944 0.4472 0)
(0.8944 0.4472 0)
(0.8944 0.4472 0)
(0.8944 0.4472 0)
(0.8944 0.4472 0)
(0.8944 0.4472 0)
(0.8944 0.4472 0)
(0.8944 0.4472 0)
(0.8944 0.4472 0)
(0.8944 0.4472 0)
(0.8944 0.4472 0)
(0.8944 0.4472 0)
(0.8944 0.4472 0)
(0.8944 0.4472 0)
(0.8944 0.4472 0)
(0.8944 0.4472 0)
(0.8944 0.4472 0)
(0.8944 0.4472 0)
(0.8944 0.4472 0)
(0.8944 0.4472 0)
(0.8944 0.4472 0)
(0.8944 0.4472 0)
(0.8944 0.4472 0)
(0.8944 0.4472 0)
(0.8944 0.4472 0)
(0.8944 0.4472 0)
(0.8944 0.4472 0)
(0.8944 0.4472 0)
(0.8944 0.4472 0)
(0.8944 0.4472 0)
(0.8944 0.4472 0)
(0.8944 0.4472 0)
(0.8944 0.4472 0)
(0.8944 0.4472 0)
(0.8944 0.4472 0)
(0.8944 0.4472 0)
(0.8944 0.4472 0)
(0.8944 0.4472 0)
(0.8944 0.4472 0)
(0.8944 0.4472 0)
(0.8944 0.4472 0)
(0.8944 0.4472 0)
(0.8944 0.4472 0)
(0.8944 0.4472 0)
(0.8944 0.4472 0)
(0.8944 0.4472 0)
(0.8944 0.4472 0)
(0.8944 0.4472 0)
(0.8944 0.447199 0)
(0.8944 0.447199 0)
(0.8944 0.447199 0)
(0.8944 0.447199 0)
(0.8944 0.447199 0)
(0.8944 0.447199 0)
(0.8944 0.447199 0)
(0.8944 0.4472 0)
(0.8944 0.4472 0)
(0.8944 0.4472 0)
(0.8944 0.4472 0)
(0.8944 0.4472 0)
(0.8944 0.4472 0)
(0.8944 0.4472 0)
(0.8944 0.4472 0)
(0.8944 0.4472 0)
(0.8944 0.4472 0)
(0.8944 0.447201 0)
(0.8944 0.447201 0)
(0.8944 0.447201 0)
(0.8944 0.447201 0)
(0.8944 0.447201 0)
(0.8944 0.447201 0)
(0.8944 0.447201 0)
(0.8944 0.447201 0)
(0.8944 0.4472 0)
(0.8944 0.4472 0)
(0.8944 0.4472 0)
(0.8944 0.4472 0)
(0.8944 0.4472 0)
(0.8944 0.4472 0)
(0.8944 0.4472 0)
(0.8944 0.4472 0)
(0.8944 0.4472 0)
(0.8944 0.4472 0)
(0.8944 0.4472 0)
(0.8944 0.4472 0)
(0.8944 0.4472 0)
(0.8944 0.4472 0)
(0.8944 0.4472 0)
(0.8944 0.4472 0)
(0.8944 0.4472 0)
(0.8944 0.4472 0)
(0.8944 0.4472 0)
(0.8944 0.4472 0)
(0.8944 0.4472 0)
(0.8944 0.4472 0)
(0.8944 0.4472 0)
(0.8944 0.4472 0)
(0.8944 0.4472 0)
(0.8944 0.4472 0)
(0.8944 0.4472 0)
(0.8944 0.4472 0)
(0.8944 0.4472 0)
(0.8944 0.4472 0)
(0.8944 0.4472 0)
(0.8944 0.4472 0)
(0.8944 0.4472 0)
(0.8944 0.4472 0)
(0.8944 0.4472 0)
(0.8944 0.4472 0)
(0.8944 0.4472 0)
(0.8944 0.4472 0)
(0.8944 0.4472 0)
(0.8944 0.4472 0)
(0.8944 0.4472 0)
(0.8944 0.4472 0)
(0.8944 0.4472 0)
(0.8944 0.4472 0)
(0.8944 0.4472 0)
(0.8944 0.4472 0)
(0.8944 0.4472 0)
(0.8944 0.447199 0)
(0.8944 0.447199 0)
(0.8944 0.447199 0)
(0.8944 0.447199 0)
(0.8944 0.447199 0)
(0.8944 0.447199 0)
(0.8944 0.447199 0)
(0.8944 0.447199 0)
(0.8944 0.447199 0)
(0.8944 0.447199 0)
(0.8944 0.447199 0)
(0.8944 0.447199 0)
(0.8944 0.4472 0)
(0.8944 0.4472 0)
(0.8944 0.4472 0)
(0.8944 0.4472 0)
(0.8944 0.4472 0)
(0.8944 0.447201 0)
(0.8944 0.447201 0)
(0.8944 0.447201 0)
(0.8944 0.447201 0)
(0.8944 0.447201 0)
(0.8944 0.447201 0)
(0.8944 0.447201 0)
(0.8944 0.447201 0)
(0.8944 0.447201 0)
(0.8944 0.447201 0)
(0.8944 0.447201 0)
(0.8944 0.447201 0)
(0.8944 0.4472 0)
(0.8944 0.4472 0)
(0.8944 0.4472 0)
(0.8944 0.4472 0)
(0.8944 0.4472 0)
(0.8944 0.4472 0)
(0.8944 0.4472 0)
(0.8944 0.4472 0)
(0.8944 0.4472 0)
(0.8944 0.4472 0)
(0.8944 0.4472 0)
(0.8944 0.4472 0)
(0.8944 0.4472 0)
(0.8944 0.4472 0)
(0.8944 0.4472 0)
(0.8944 0.4472 0)
(0.8944 0.4472 0)
(0.8944 0.4472 0)
(0.8944 0.4472 0)
(0.8944 0.4472 0)
(0.8944 0.4472 0)
(0.8944 0.4472 0)
(0.8944 0.4472 0)
(0.8944 0.4472 0)
(0.8944 0.4472 0)
(0.8944 0.4472 0)
(0.8944 0.4472 0)
(0.8944 0.4472 0)
(0.8944 0.4472 0)
(0.8944 0.4472 0)
(0.8944 0.4472 0)
(0.8944 0.4472 0)
(0.8944 0.4472 0)
(0.8944 0.4472 0)
(0.8944 0.4472 0)
(0.8944 0.4472 0)
(0.8944 0.4472 0)
(0.8944 0.4472 0)
(0.8944 0.4472 0)
(0.8944 0.4472 0)
(0.8944 0.4472 0)
(0.8944 0.4472 0)
(0.8944 0.4472 0)
(0.8944 0.4472 0)
(0.8944 0.4472 0)
(0.8944 0.4472 0)
(0.8944 0.447199 0)
(0.8944 0.447199 0)
(0.8944 0.447199 0)
(0.8944 0.447199 0)
(0.8944 0.447199 0)
(0.8944 0.447199 0)
(0.8944 0.447199 0)
(0.8944 0.447199 0)
(0.8944 0.447199 0)
(0.8944 0.447199 0)
(0.8944 0.447199 0)
(0.8944 0.447199 0)
(0.894399 0.447199 0)
(0.894399 0.4472 0)
(0.894399 0.4472 0)
(0.894399 0.4472 0)
(0.894399 0.4472 0)
(0.894399 0.447201 0)
(0.8944 0.447201 0)
(0.8944 0.447201 0)
(0.8944 0.447201 0)
(0.8944 0.447201 0)
(0.8944 0.447201 0)
(0.8944 0.447201 0)
(0.8944 0.447201 0)
(0.8944 0.447201 0)
(0.8944 0.447201 0)
(0.8944 0.447201 0)
(0.8944 0.447201 0)
(0.8944 0.447201 0)
(0.8944 0.447201 0)
(0.8944 0.447201 0)
(0.8944 0.4472 0)
(0.8944 0.4472 0)
(0.8944 0.4472 0)
(0.8944 0.4472 0)
(0.8944 0.4472 0)
(0.8944 0.4472 0)
(0.8944 0.4472 0)
(0.8944 0.4472 0)
(0.8944 0.4472 0)
(0.8944 0.4472 0)
(0.8944 0.4472 0)
(0.8944 0.4472 0)
(0.8944 0.4472 0)
(0.8944 0.4472 0)
(0.8944 0.4472 0)
(0.8944 0.4472 0)
(0.8944 0.4472 0)
(0.8944 0.4472 0)
(0.8944 0.4472 0)
(0.8944 0.4472 0)
(0.8944 0.4472 0)
(0.8944 0.4472 0)
(0.8944 0.4472 0)
(0.8944 0.4472 0)
(0.8944 0.4472 0)
(0.8944 0.4472 0)
(0.8944 0.4472 0)
(0.8944 0.4472 0)
(0.8944 0.4472 0)
(0.8944 0.4472 0)
(0.8944 0.4472 0)
(0.8944 0.4472 0)
(0.8944 0.4472 0)
(0.8944 0.4472 0)
(0.8944 0.4472 0)
(0.8944 0.4472 0)
(0.8944 0.4472 0)
(0.8944 0.4472 0)
(0.8944 0.4472 0)
(0.8944 0.4472 0)
(0.8944 0.4472 0)
(0.8944 0.4472 0)
(0.8944 0.4472 0)
(0.8944 0.447199 0)
(0.8944 0.447199 0)
(0.8944 0.447199 0)
(0.8944 0.447198 0)
(0.8944 0.447198 0)
(0.8944 0.447198 0)
(0.8944 0.447198 0)
(0.8944 0.447198 0)
(0.8944 0.447198 0)
(0.8944 0.447198 0)
(0.894399 0.447199 0)
(0.894399 0.447199 0)
(0.894399 0.447199 0)
(0.894399 0.4472 0)
(0.894399 0.4472 0)
(0.894399 0.4472 0)
(0.894399 0.447201 0)
(0.894399 0.447201 0)
(0.894399 0.447201 0)
(0.8944 0.447202 0)
(0.8944 0.447202 0)
(0.8944 0.447202 0)
(0.8944 0.447202 0)
(0.8944 0.447202 0)
(0.8944 0.447202 0)
(0.8944 0.447202 0)
(0.8944 0.447202 0)
(0.8944 0.447201 0)
(0.8944 0.447201 0)
(0.8944 0.447201 0)
(0.8944 0.447201 0)
(0.8944 0.447201 0)
(0.8944 0.447201 0)
(0.8944 0.4472 0)
(0.8944 0.4472 0)
(0.8944 0.4472 0)
(0.8944 0.4472 0)
(0.8944 0.4472 0)
(0.8944 0.4472 0)
(0.8944 0.4472 0)
(0.8944 0.4472 0)
(0.8944 0.4472 0)
(0.8944 0.4472 0)
(0.8944 0.4472 0)
(0.8944 0.4472 0)
(0.8944 0.4472 0)
(0.8944 0.4472 0)
(0.8944 0.4472 0)
(0.8944 0.4472 0)
(0.8944 0.4472 0)
(0.8944 0.4472 0)
(0.8944 0.4472 0)
(0.8944 0.4472 0)
(0.8944 0.4472 0)
(0.8944 0.4472 0)
(0.8944 0.4472 0)
(0.8944 0.4472 0)
(0.8944 0.4472 0)
(0.8944 0.4472 0)
(0.8944 0.4472 0)
(0.8944 0.4472 0)
(0.8944 0.4472 0)
(0.8944 0.4472 0)
(0.8944 0.4472 0)
(0.8944 0.4472 0)
(0.8944 0.4472 0)
(0.8944 0.4472 0)
(0.8944 0.4472 0)
(0.8944 0.4472 0)
(0.8944 0.4472 0)
(0.8944 0.4472 0)
(0.8944 0.4472 0)
(0.8944 0.4472 0)
(0.8944 0.4472 0)
(0.8944 0.4472 0)
(0.894401 0.447198 0)
(0.8944 0.447198 0)
(0.8944 0.447198 0)
(0.8944 0.447198 0)
(0.8944 0.447197 0)
(0.8944 0.447197 0)
(0.8944 0.447197 0)
(0.8944 0.447197 0)
(0.8944 0.447197 0)
(0.8944 0.447198 0)
(0.894399 0.447198 0)
(0.894399 0.447198 0)
(0.894399 0.447199 0)
(0.894399 0.447199 0)
(0.894399 0.4472 0)
(0.894399 0.4472 0)
(0.894399 0.447201 0)
(0.894399 0.447202 0)
(0.894399 0.447202 0)
(0.894399 0.447202 0)
(0.8944 0.447203 0)
(0.8944 0.447203 0)
(0.8944 0.447203 0)
(0.8944 0.447203 0)
(0.8944 0.447203 0)
(0.8944 0.447203 0)
(0.8944 0.447202 0)
(0.894401 0.447202 0)
(0.894401 0.447202 0)
(0.894401 0.447202 0)
(0.894401 0.447201 0)
(0.8944 0.447201 0)
(0.8944 0.447201 0)
(0.8944 0.447201 0)
(0.8944 0.447201 0)
(0.8944 0.4472 0)
(0.8944 0.4472 0)
(0.8944 0.4472 0)
(0.8944 0.4472 0)
(0.8944 0.4472 0)
(0.8944 0.4472 0)
(0.8944 0.4472 0)
(0.8944 0.4472 0)
(0.8944 0.4472 0)
(0.8944 0.4472 0)
(0.8944 0.4472 0)
(0.8944 0.4472 0)
(0.8944 0.4472 0)
(0.8944 0.4472 0)
(0.8944 0.4472 0)
(0.8944 0.4472 0)
(0.8944 0.4472 0)
(0.8944 0.4472 0)
(0.8944 0.4472 0)
(0.8944 0.4472 0)
(0.8944 0.4472 0)
(0.8944 0.4472 0)
(0.8944 0.4472 0)
(0.8944 0.4472 0)
(0.8944 0.4472 0)
(0.8944 0.4472 0)
(0.8944 0.4472 0)
(0.8944 0.4472 0)
(0.8944 0.4472 0)
(0.8944 0.4472 0)
(0.8944 0.4472 0)
(0.8944 0.4472 0)
(0.8944 0.4472 0)
(0.8944 0.4472 0)
(0.8944 0.4472 0)
(0.8944 0.4472 0)
(0.8944 0.4472 0)
(0.8944 0.4472 0)
(0.8944 0.4472 0)
(0.8944 0.4472 0)
(0.894401 0.447198 0)
(0.894401 0.447197 0)
(0.894401 0.447197 0)
(0.894401 0.447197 0)
(0.8944 0.447197 0)
(0.8944 0.447196 0)
(0.8944 0.447196 0)
(0.8944 0.447196 0)
(0.894399 0.447196 0)
(0.894399 0.447197 0)
(0.894399 0.447197 0)
(0.894399 0.447198 0)
(0.894398 0.447198 0)
(0.894398 0.447199 0)
(0.894398 0.4472 0)
(0.894398 0.447201 0)
(0.894398 0.447201 0)
(0.894399 0.447202 0)
(0.894399 0.447203 0)
(0.894399 0.447203 0)
(0.894399 0.447203 0)
(0.8944 0.447204 0)
(0.8944 0.447204 0)
(0.8944 0.447204 0)
(0.8944 0.447204 0)
(0.8944 0.447204 0)
(0.894401 0.447203 0)
(0.894401 0.447203 0)
(0.894401 0.447203 0)
(0.894401 0.447202 0)
(0.894401 0.447202 0)
(0.894401 0.447202 0)
(0.894401 0.447201 0)
(0.8944 0.447201 0)
(0.8944 0.447201 0)
(0.8944 0.447201 0)
(0.8944 0.4472 0)
(0.8944 0.4472 0)
(0.8944 0.4472 0)
(0.8944 0.4472 0)
(0.8944 0.4472 0)
(0.8944 0.4472 0)
(0.8944 0.4472 0)
(0.8944 0.4472 0)
(0.8944 0.4472 0)
(0.8944 0.4472 0)
(0.8944 0.4472 0)
(0.8944 0.4472 0)
(0.8944 0.4472 0)
(0.8944 0.4472 0)
(0.8944 0.4472 0)
(0.8944 0.4472 0)
(0.8944 0.4472 0)
(0.8944 0.4472 0)
(0.8944 0.4472 0)
(0.8944 0.4472 0)
(0.8944 0.4472 0)
(0.8944 0.4472 0)
(0.8944 0.4472 0)
(0.8944 0.4472 0)
(0.8944 0.4472 0)
(0.8944 0.4472 0)
(0.8944 0.4472 0)
(0.8944 0.4472 0)
(0.8944 0.4472 0)
(0.8944 0.4472 0)
(0.8944 0.4472 0)
(0.8944 0.4472 0)
(0.8944 0.4472 0)
(0.8944 0.4472 0)
(0.8944 0.4472 0)
(0.8944 0.4472 0)
(0.8944 0.4472 0)
(0.8944 0.4472 0)
(0.8944 0.4472 0)
(0.894401 0.447197 0)
(0.894401 0.447196 0)
(0.894401 0.447196 0)
(0.894401 0.447195 0)
(0.8944 0.447195 0)
(0.8944 0.447195 0)
(0.8944 0.447195 0)
(0.894399 0.447195 0)
(0.894399 0.447195 0)
(0.894399 0.447196 0)
(0.894398 0.447196 0)
(0.894398 0.447197 0)
(0.894398 0.447198 0)
(0.894397 0.447199 0)
(0.894397 0.4472 0)
(0.894397 0.447201 0)
(0.894397 0.447202 0)
(0.894398 0.447203 0)
(0.894398 0.447204 0)
(0.894398 0.447204 0)
(0.894399 0.447205 0)
(0.894399 0.447205 0)
(0.8944 0.447205 0)
(0.8944 0.447205 0)
(0.8944 0.447205 0)
(0.894401 0.447205 0)
(0.894401 0.447205 0)
(0.894401 0.447204 0)
(0.894401 0.447204 0)
(0.894401 0.447203 0)
(0.894401 0.447203 0)
(0.894401 0.447202 0)
(0.894401 0.447202 0)
(0.894401 0.447201 0)
(0.894401 0.447201 0)
(0.8944 0.447201 0)
(0.8944 0.447201 0)
(0.8944 0.4472 0)
(0.8944 0.4472 0)
(0.8944 0.4472 0)
(0.8944 0.4472 0)
(0.8944 0.4472 0)
(0.8944 0.4472 0)
(0.8944 0.4472 0)
(0.8944 0.4472 0)
(0.8944 0.4472 0)
(0.8944 0.4472 0)
(0.8944 0.4472 0)
(0.8944 0.4472 0)
(0.8944 0.4472 0)
(0.8944 0.4472 0)
(0.8944 0.4472 0)
(0.8944 0.4472 0)
(0.8944 0.4472 0)
(0.8944 0.4472 0)
(0.8944 0.4472 0)
(0.8944 0.4472 0)
(0.8944 0.4472 0)
(0.8944 0.4472 0)
(0.8944 0.4472 0)
(0.8944 0.4472 0)
(0.8944 0.4472 0)
(0.8944 0.4472 0)
(0.8944 0.4472 0)
(0.8944 0.4472 0)
(0.8944 0.4472 0)
(0.8944 0.4472 0)
(0.8944 0.4472 0)
(0.8944 0.4472 0)
(0.8944 0.4472 0)
(0.8944 0.4472 0)
(0.8944 0.4472 0)
(0.8944 0.4472 0)
(0.8944 0.4472 0)
(0.8944 0.4472 0)
(0.894401 0.447196 0)
(0.894401 0.447195 0)
(0.894401 0.447194 0)
(0.894401 0.447194 0)
(0.894401 0.447193 0)
(0.8944 0.447193 0)
(0.8944 0.447193 0)
(0.894399 0.447193 0)
(0.894398 0.447193 0)
(0.894398 0.447194 0)
(0.894397 0.447195 0)
(0.894397 0.447196 0)
(0.894396 0.447197 0)
(0.894396 0.447198 0)
(0.894396 0.4472 0)
(0.894396 0.447201 0)
(0.894396 0.447203 0)
(0.894397 0.447204 0)
(0.894397 0.447205 0)
(0.894397 0.447206 0)
(0.894398 0.447207 0)
(0.894399 0.447207 0)
(0.894399 0.447207 0)
(0.8944 0.447207 0)
(0.8944 0.447207 0)
(0.894401 0.447207 0)
(0.894401 0.447206 0)
(0.894401 0.447206 0)
(0.894401 0.447205 0)
(0.894401 0.447204 0)
(0.894401 0.447204 0)
(0.894401 0.447203 0)
(0.894401 0.447203 0)
(0.894401 0.447202 0)
(0.894401 0.447202 0)
(0.894401 0.447201 0)
(0.894401 0.447201 0)
(0.8944 0.447201 0)
(0.8944 0.4472 0)
(0.8944 0.4472 0)
(0.8944 0.4472 0)
(0.8944 0.4472 0)
(0.8944 0.4472 0)
(0.8944 0.4472 0)
(0.8944 0.4472 0)
(0.8944 0.4472 0)
(0.8944 0.4472 0)
(0.8944 0.4472 0)
(0.8944 0.4472 0)
(0.8944 0.4472 0)
(0.8944 0.4472 0)
(0.8944 0.4472 0)
(0.8944 0.4472 0)
(0.8944 0.4472 0)
(0.8944 0.4472 0)
(0.8944 0.4472 0)
(0.8944 0.4472 0)
(0.8944 0.4472 0)
(0.8944 0.4472 0)
(0.8944 0.4472 0)
(0.8944 0.4472 0)
(0.8944 0.4472 0)
(0.8944 0.4472 0)
(0.8944 0.4472 0)
(0.8944 0.4472 0)
(0.8944 0.4472 0)
(0.8944 0.4472 0)
(0.8944 0.4472 0)
(0.8944 0.4472 0)
(0.8944 0.4472 0)
(0.8944 0.4472 0)
(0.8944 0.4472 0)
(0.8944 0.4472 0)
(0.8944 0.4472 0)
(0.8944 0.4472 0)
(0.894402 0.447194 0)
(0.894402 0.447193 0)
(0.894402 0.447192 0)
(0.894401 0.447191 0)
(0.894401 0.447191 0)
(0.8944 0.44719 0)
(0.894399 0.44719 0)
(0.894398 0.44719 0)
(0.894397 0.447191 0)
(0.894396 0.447192 0)
(0.894396 0.447193 0)
(0.894395 0.447194 0)
(0.894394 0.447196 0)
(0.894394 0.447198 0)
(0.894394 0.4472 0)
(0.894394 0.447202 0)
(0.894394 0.447204 0)
(0.894395 0.447205 0)
(0.894395 0.447207 0)
(0.894396 0.447208 0)
(0.894397 0.447209 0)
(0.894398 0.44721 0)
(0.894399 0.44721 0)
(0.894399 0.44721 0)
(0.8944 0.44721 0)
(0.894401 0.447209 0)
(0.894401 0.447209 0)
(0.894402 0.447208 0)
(0.894402 0.447207 0)
(0.894402 0.447206 0)
(0.894402 0.447205 0)
(0.894402 0.447204 0)
(0.894402 0.447203 0)
(0.894401 0.447203 0)
(0.894401 0.447202 0)
(0.894401 0.447202 0)
(0.894401 0.447201 0)
(0.894401 0.447201 0)
(0.8944 0.447201 0)
(0.8944 0.4472 0)
(0.8944 0.4472 0)
(0.8944 0.4472 0)
(0.8944 0.4472 0)
(0.8944 0.4472 0)
(0.8944 0.4472 0)
(0.8944 0.4472 0)
(0.8944 0.4472 0)
(0.8944 0.4472 0)
(0.8944 0.4472 0)
(0.8944 0.4472 0)
(0.8944 0.4472 0)
(0.8944 0.4472 0)
(0.8944 0.4472 0)
(0.8944 0.4472 0)
(0.8944 0.4472 0)
(0.8944 0.4472 0)
(0.8944 0.4472 0)
(0.8944 0.4472 0)
(0.8944 0.4472 0)
(0.8944 0.4472 0)
(0.8944 0.4472 0)
(0.8944 0.4472 0)
(0.8944 0.4472 0)
(0.8944 0.4472 0)
(0.8944 0.4472 0)
(0.8944 0.4472 0)
(0.8944 0.4472 0)
(0.8944 0.4472 0)
(0.8944 0.4472 0)
(0.8944 0.4472 0)
(0.8944 0.4472 0)
(0.8944 0.4472 0)
(0.8944 0.4472 0)
(0.8944 0.4472 0)
(0.8944 0.4472 0)
(0.894403 0.447192 0)
(0.894402 0.447191 0)
(0.894402 0.447189 0)
(0.894401 0.447188 0)
(0.8944 0.447188 0)
(0.894399 0.447187 0)
(0.894398 0.447187 0)
(0.894397 0.447187 0)
(0.894396 0.447188 0)
(0.894395 0.447189 0)
(0.894393 0.447191 0)
(0.894392 0.447193 0)
(0.894392 0.447195 0)
(0.894391 0.447197 0)
(0.894391 0.4472 0)
(0.894391 0.447203 0)
(0.894391 0.447205 0)
(0.894392 0.447208 0)
(0.894393 0.44721 0)
(0.894394 0.447211 0)
(0.894395 0.447213 0)
(0.894396 0.447213 0)
(0.894398 0.447214 0)
(0.894399 0.447214 0)
(0.8944 0.447213 0)
(0.894401 0.447213 0)
(0.894401 0.447212 0)
(0.894402 0.447211 0)
(0.894402 0.447209 0)
(0.894402 0.447208 0)
(0.894402 0.447207 0)
(0.894402 0.447206 0)
(0.894402 0.447204 0)
(0.894402 0.447203 0)
(0.894402 0.447203 0)
(0.894401 0.447202 0)
(0.894401 0.447202 0)
(0.894401 0.447201 0)
(0.894401 0.447201 0)
(0.894401 0.447201 0)
(0.8944 0.4472 0)
(0.8944 0.4472 0)
(0.8944 0.4472 0)
(0.8944 0.4472 0)
(0.8944 0.4472 0)
(0.8944 0.4472 0)
(0.8944 0.4472 0)
(0.8944 0.4472 0)
(0.8944 0.4472 0)
(0.8944 0.4472 0)
(0.8944 0.4472 0)
(0.8944 0.4472 0)
(0.8944 0.4472 0)
(0.8944 0.4472 0)
(0.8944 0.4472 0)
(0.8944 0.4472 0)
(0.8944 0.4472 0)
(0.8944 0.4472 0)
(0.8944 0.4472 0)
(0.8944 0.4472 0)
(0.8944 0.4472 0)
(0.8944 0.4472 0)
(0.8944 0.4472 0)
(0.8944 0.4472 0)
(0.8944 0.4472 0)
(0.8944 0.4472 0)
(0.8944 0.4472 0)
(0.8944 0.4472 0)
(0.8944 0.4472 0)
(0.8944 0.4472 0)
(0.8944 0.4472 0)
(0.8944 0.4472 0)
(0.8944 0.4472 0)
(0.8944 0.4472 0)
(0.8944 0.4472 0)
(0.894403 0.447189 0)
(0.894403 0.447188 0)
(0.894402 0.447186 0)
(0.894401 0.447185 0)
(0.8944 0.447184 0)
(0.894399 0.447183 0)
(0.894397 0.447183 0)
(0.894395 0.447183 0)
(0.894394 0.447184 0)
(0.894392 0.447186 0)
(0.89439 0.447188 0)
(0.894389 0.44719 0)
(0.894387 0.447194 0)
(0.894387 0.447197 0)
(0.894386 0.447201 0)
(0.894387 0.447204 0)
(0.894387 0.447208 0)
(0.894388 0.447211 0)
(0.894389 0.447213 0)
(0.894391 0.447216 0)
(0.894393 0.447217 0)
(0.894394 0.447218 0)
(0.894396 0.447219 0)
(0.894398 0.447219 0)
(0.894399 0.447218 0)
(0.894401 0.447217 0)
(0.894402 0.447216 0)
(0.894402 0.447214 0)
(0.894403 0.447213 0)
(0.894403 0.447211 0)
(0.894403 0.447209 0)
(0.894403 0.447207 0)
(0.894403 0.447206 0)
(0.894403 0.447205 0)
(0.894402 0.447204 0)
(0.894402 0.447203 0)
(0.894401 0.447202 0)
(0.894401 0.447201 0)
(0.894401 0.447201 0)
(0.894401 0.447201 0)
(0.894401 0.4472 0)
(0.8944 0.4472 0)
(0.8944 0.4472 0)
(0.8944 0.4472 0)
(0.8944 0.4472 0)
(0.8944 0.4472 0)
(0.8944 0.4472 0)
(0.8944 0.4472 0)
(0.8944 0.4472 0)
(0.8944 0.4472 0)
(0.8944 0.4472 0)
(0.8944 0.4472 0)
(0.8944 0.4472 0)
(0.8944 0.4472 0)
(0.8944 0.4472 0)
(0.8944 0.4472 0)
(0.8944 0.4472 0)
(0.8944 0.4472 0)
(0.8944 0.4472 0)
(0.8944 0.4472 0)
(0.8944 0.4472 0)
(0.8944 0.4472 0)
(0.8944 0.4472 0)
(0.8944 0.4472 0)
(0.8944 0.4472 0)
(0.8944 0.4472 0)
(0.8944 0.4472 0)
(0.8944 0.4472 0)
(0.8944 0.4472 0)
(0.8944 0.4472 0)
(0.8944 0.4472 0)
(0.8944 0.4472 0)
(0.8944 0.4472 0)
(0.8944 0.4472 0)
(0.8944 0.4472 0)
(0.894404 0.447186 0)
(0.894403 0.447184 0)
(0.894402 0.447182 0)
(0.894401 0.44718 0)
(0.894399 0.447179 0)
(0.894397 0.447178 0)
(0.894395 0.447177 0)
(0.894392 0.447178 0)
(0.89439 0.447179 0)
(0.894388 0.447182 0)
(0.894385 0.447184 0)
(0.894383 0.447188 0)
(0.894381 0.447192 0)
(0.89438 0.447197 0)
(0.89438 0.447201 0)
(0.89438 0.447206 0)
(0.894381 0.447211 0)
(0.894382 0.447215 0)
(0.894384 0.447219 0)
(0.894386 0.447222 0)
(0.894389 0.447224 0)
(0.894391 0.447225 0)
(0.894394 0.447225 0)
(0.894396 0.447225 0)
(0.894398 0.447224 0)
(0.8944 0.447223 0)
(0.894402 0.447221 0)
(0.894403 0.447219 0)
(0.894404 0.447217 0)
(0.894404 0.447214 0)
(0.894404 0.447212 0)
(0.894404 0.44721 0)
(0.894404 0.447208 0)
(0.894403 0.447206 0)
(0.894403 0.447205 0)
(0.894402 0.447204 0)
(0.894402 0.447203 0)
(0.894402 0.447202 0)
(0.894401 0.447201 0)
(0.894401 0.447201 0)
(0.894401 0.447201 0)
(0.8944 0.4472 0)
(0.8944 0.4472 0)
(0.8944 0.4472 0)
(0.8944 0.4472 0)
(0.8944 0.4472 0)
(0.8944 0.4472 0)
(0.8944 0.4472 0)
(0.8944 0.4472 0)
(0.8944 0.4472 0)
(0.8944 0.4472 0)
(0.8944 0.4472 0)
(0.8944 0.4472 0)
(0.8944 0.4472 0)
(0.8944 0.4472 0)
(0.8944 0.4472 0)
(0.8944 0.4472 0)
(0.8944 0.4472 0)
(0.8944 0.4472 0)
(0.8944 0.4472 0)
(0.8944 0.4472 0)
(0.8944 0.4472 0)
(0.8944 0.4472 0)
(0.8944 0.4472 0)
(0.8944 0.4472 0)
(0.8944 0.4472 0)
(0.8944 0.4472 0)
(0.8944 0.4472 0)
(0.8944 0.4472 0)
(0.8944 0.4472 0)
(0.8944 0.4472 0)
(0.8944 0.4472 0)
(0.8944 0.4472 0)
(0.8944 0.4472 0)
(0.8944 0.4472 0)
(0.894405 0.447182 0)
(0.894404 0.447179 0)
(0.894403 0.447176 0)
(0.894401 0.447174 0)
(0.894398 0.447172 0)
(0.894396 0.447172 0)
(0.894392 0.447171 0)
(0.894388 0.447172 0)
(0.894385 0.447174 0)
(0.894381 0.447177 0)
(0.894378 0.447181 0)
(0.894375 0.447186 0)
(0.894373 0.447192 0)
(0.894371 0.447197 0)
(0.89437 0.447204 0)
(0.894371 0.44721 0)
(0.894372 0.447216 0)
(0.894374 0.447221 0)
(0.894377 0.447226 0)
(0.89438 0.447229 0)
(0.894384 0.447232 0)
(0.894387 0.447234 0)
(0.894391 0.447234 0)
(0.894394 0.447234 0)
(0.894397 0.447232 0)
(0.8944 0.44723 0)
(0.894402 0.447228 0)
(0.894403 0.447225 0)
(0.894404 0.447222 0)
(0.894405 0.447219 0)
(0.894405 0.447216 0)
(0.894405 0.447213 0)
(0.894405 0.44721 0)
(0.894405 0.447208 0)
(0.894404 0.447206 0)
(0.894403 0.447205 0)
(0.894403 0.447203 0)
(0.894402 0.447202 0)
(0.894402 0.447202 0)
(0.894401 0.447201 0)
(0.894401 0.447201 0)
(0.894401 0.4472 0)
(0.8944 0.4472 0)
(0.8944 0.4472 0)
(0.8944 0.4472 0)
(0.8944 0.4472 0)
(0.8944 0.4472 0)
(0.8944 0.4472 0)
(0.8944 0.4472 0)
(0.8944 0.4472 0)
(0.8944 0.4472 0)
(0.8944 0.4472 0)
(0.8944 0.4472 0)
(0.8944 0.4472 0)
(0.8944 0.4472 0)
(0.8944 0.4472 0)
(0.8944 0.4472 0)
(0.8944 0.4472 0)
(0.8944 0.4472 0)
(0.8944 0.4472 0)
(0.8944 0.4472 0)
(0.8944 0.4472 0)
(0.8944 0.4472 0)
(0.8944 0.4472 0)
(0.8944 0.4472 0)
(0.8944 0.4472 0)
(0.8944 0.4472 0)
(0.8944 0.4472 0)
(0.8944 0.4472 0)
(0.8944 0.4472 0)
(0.8944 0.4472 0)
(0.8944 0.4472 0)
(0.8944 0.4472 0)
(0.8944 0.4472 0)
(0.8944 0.4472 0)
(0.894406 0.447177 0)
(0.894404 0.447173 0)
(0.894402 0.447169 0)
(0.8944 0.447167 0)
(0.894396 0.447165 0)
(0.894392 0.447164 0)
(0.894387 0.447164 0)
(0.894382 0.447165 0)
(0.894377 0.447168 0)
(0.894372 0.447172 0)
(0.894367 0.447177 0)
(0.894363 0.447184 0)
(0.89436 0.447191 0)
(0.894358 0.447199 0)
(0.894357 0.447207 0)
(0.894357 0.447216 0)
(0.894359 0.447224 0)
(0.894362 0.44723 0)
(0.894366 0.447236 0)
(0.89437 0.447241 0)
(0.894375 0.447244 0)
(0.894381 0.447246 0)
(0.894386 0.447246 0)
(0.89439 0.447245 0)
(0.894395 0.447243 0)
(0.894398 0.447241 0)
(0.894401 0.447237 0)
(0.894403 0.447233 0)
(0.894405 0.447229 0)
(0.894406 0.447225 0)
(0.894406 0.447221 0)
(0.894406 0.447217 0)
(0.894406 0.447213 0)
(0.894406 0.447211 0)
(0.894405 0.447208 0)
(0.894404 0.447206 0)
(0.894404 0.447204 0)
(0.894403 0.447203 0)
(0.894402 0.447202 0)
(0.894402 0.447201 0)
(0.894401 0.447201 0)
(0.894401 0.447201 0)
(0.894401 0.4472 0)
(0.8944 0.4472 0)
(0.8944 0.4472 0)
(0.8944 0.4472 0)
(0.8944 0.4472 0)
(0.8944 0.4472 0)
(0.8944 0.4472 0)
(0.8944 0.4472 0)
(0.8944 0.4472 0)
(0.8944 0.4472 0)
(0.8944 0.4472 0)
(0.8944 0.4472 0)
(0.8944 0.4472 0)
(0.8944 0.4472 0)
(0.8944 0.4472 0)
(0.8944 0.4472 0)
(0.8944 0.4472 0)
(0.8944 0.4472 0)
(0.8944 0.4472 0)
(0.8944 0.4472 0)
(0.8944 0.4472 0)
(0.8944 0.4472 0)
(0.8944 0.4472 0)
(0.8944 0.4472 0)
(0.8944 0.4472 0)
(0.8944 0.4472 0)
(0.8944 0.4472 0)
(0.8944 0.4472 0)
(0.8944 0.4472 0)
(0.8944 0.4472 0)
(0.8944 0.4472 0)
(0.8944 0.4472 0)
(0.8944 0.4472 0)
(0.894406 0.44717 0)
(0.894405 0.447166 0)
(0.894401 0.447162 0)
(0.894397 0.447159 0)
(0.894392 0.447156 0)
(0.894386 0.447155 0)
(0.894379 0.447155 0)
(0.894372 0.447157 0)
(0.894364 0.447161 0)
(0.894357 0.447167 0)
(0.89435 0.447175 0)
(0.894345 0.447183 0)
(0.89434 0.447193 0)
(0.894337 0.447204 0)
(0.894336 0.447214 0)
(0.894337 0.447225 0)
(0.89434 0.447235 0)
(0.894344 0.447244 0)
(0.894349 0.447251 0)
(0.894356 0.447256 0)
(0.894363 0.44726 0)
(0.89437 0.447262 0)
(0.894378 0.447262 0)
(0.894384 0.447261 0)
(0.89439 0.447258 0)
(0.894396 0.447254 0)
(0.8944 0.447249 0)
(0.894403 0.447243 0)
(0.894406 0.447238 0)
(0.894407 0.447232 0)
(0.894408 0.447227 0)
(0.894408 0.447222 0)
(0.894408 0.447217 0)
(0.894407 0.447213 0)
(0.894406 0.44721 0)
(0.894405 0.447208 0)
(0.894405 0.447206 0)
(0.894404 0.447204 0)
(0.894403 0.447202 0)
(0.894402 0.447201 0)
(0.894401 0.447201 0)
(0.894401 0.4472 0)
(0.894401 0.4472 0)
(0.8944 0.4472 0)
(0.8944 0.4472 0)
(0.8944 0.4472 0)
(0.8944 0.4472 0)
(0.8944 0.4472 0)
(0.8944 0.4472 0)
(0.8944 0.4472 0)
(0.8944 0.4472 0)
(0.8944 0.4472 0)
(0.8944 0.4472 0)
(0.8944 0.4472 0)
(0.8944 0.4472 0)
(0.8944 0.4472 0)
(0.8944 0.4472 0)
(0.8944 0.4472 0)
(0.8944 0.4472 0)
(0.8944 0.4472 0)
(0.8944 0.4472 0)
(0.8944 0.4472 0)
(0.8944 0.4472 0)
(0.8944 0.4472 0)
(0.8944 0.4472 0)
(0.8944 0.4472 0)
(0.8944 0.4472 0)
(0.8944 0.4472 0)
(0.8944 0.4472 0)
(0.8944 0.4472 0)
(0.8944 0.4472 0)
(0.8944 0.4472 0)
(0.8944 0.4472 0)
(0.8944 0.4472 0)
(0.8944 0.4472 0)
(0.894407 0.447163 0)
(0.894403 0.447157 0)
(0.894399 0.447152 0)
(0.894393 0.447149 0)
(0.894385 0.447146 0)
(0.894376 0.447145 0)
(0.894367 0.447146 0)
(0.894356 0.447149 0)
(0.894345 0.447155 0)
(0.894335 0.447163 0)
(0.894326 0.447173 0)
(0.894318 0.447185 0)
(0.894312 0.447198 0)
(0.894308 0.447212 0)
(0.894307 0.447226 0)
(0.894308 0.44724 0)
(0.894312 0.447252 0)
(0.894318 0.447263 0)
(0.894326 0.447272 0)
(0.894335 0.447279 0)
(0.894345 0.447283 0)
(0.894355 0.447285 0)
(0.894365 0.447284 0)
(0.894375 0.447281 0)
(0.894384 0.447277 0)
(0.894391 0.447271 0)
(0.894398 0.447264 0)
(0.894402 0.447257 0)
(0.894406 0.447249 0)
(0.894408 0.447242 0)
(0.894409 0.447235 0)
(0.89441 0.447228 0)
(0.894409 0.447222 0)
(0.894409 0.447217 0)
(0.894408 0.447213 0)
(0.894407 0.44721 0)
(0.894406 0.447207 0)
(0.894404 0.447205 0)
(0.894403 0.447203 0)
(0.894403 0.447202 0)
(0.894402 0.447201 0)
(0.894401 0.4472 0)
(0.894401 0.4472 0)
(0.894401 0.4472 0)
(0.8944 0.4472 0)
(0.8944 0.4472 0)
(0.8944 0.4472 0)
(0.8944 0.4472 0)
(0.8944 0.4472 0)
(0.8944 0.4472 0)
(0.8944 0.4472 0)
(0.8944 0.4472 0)
(0.8944 0.4472 0)
(0.8944 0.4472 0)
(0.8944 0.4472 0)
(0.8944 0.4472 0)
(0.8944 0.4472 0)
(0.8944 0.4472 0)
(0.8944 0.4472 0)
(0.8944 0.4472 0)
(0.8944 0.4472 0)
(0.8944 0.4472 0)
(0.8944 0.4472 0)
(0.8944 0.4472 0)
(0.8944 0.4472 0)
(0.8944 0.4472 0)
(0.8944 0.4472 0)
(0.8944 0.4472 0)
(0.8944 0.4472 0)
(0.8944 0.4472 0)
(0.8944 0.4472 0)
(0.8944 0.4472 0)
(0.8944 0.4472 0)
(0.8944 0.4472 0)
(0.8944 0.4472 0)
(0.894405 0.447155 0)
(0.8944 0.447148 0)
(0.894394 0.447142 0)
(0.894385 0.447138 0)
(0.894373 0.447135 0)
(0.89436 0.447135 0)
(0.894346 0.447137 0)
(0.894332 0.447142 0)
(0.894317 0.447151 0)
(0.894303 0.447162 0)
(0.894289 0.447176 0)
(0.894279 0.447192 0)
(0.89427 0.447209 0)
(0.894265 0.447228 0)
(0.894264 0.447246 0)
(0.894266 0.447264 0)
(0.894272 0.447279 0)
(0.89428 0.447293 0)
(0.894291 0.447304 0)
(0.894304 0.447311 0)
(0.894318 0.447316 0)
(0.894333 0.447316 0)
(0.894347 0.447314 0)
(0.894361 0.44731 0)
(0.894373 0.447303 0)
(0.894384 0.447295 0)
(0.894393 0.447285 0)
(0.8944 0.447275 0)
(0.894405 0.447264 0)
(0.894409 0.447254 0)
(0.894411 0.447245 0)
(0.894411 0.447237 0)
(0.894411 0.447229 0)
(0.89441 0.447222 0)
(0.894409 0.447216 0)
(0.894408 0.447212 0)
(0.894407 0.447208 0)
(0.894406 0.447206 0)
(0.894404 0.447204 0)
(0.894403 0.447202 0)
(0.894402 0.447201 0)
(0.894402 0.4472 0)
(0.894401 0.4472 0)
(0.894401 0.4472 0)
(0.8944 0.4472 0)
(0.8944 0.4472 0)
(0.8944 0.4472 0)
(0.8944 0.4472 0)
(0.8944 0.4472 0)
(0.8944 0.4472 0)
(0.8944 0.4472 0)
(0.8944 0.4472 0)
(0.8944 0.4472 0)
(0.8944 0.4472 0)
(0.8944 0.4472 0)
(0.8944 0.4472 0)
(0.8944 0.4472 0)
(0.8944 0.4472 0)
(0.8944 0.4472 0)
(0.8944 0.4472 0)
(0.8944 0.4472 0)
(0.8944 0.4472 0)
(0.8944 0.4472 0)
(0.8944 0.4472 0)
(0.8944 0.4472 0)
(0.8944 0.4472 0)
(0.8944 0.4472 0)
(0.8944 0.4472 0)
(0.8944 0.4472 0)
(0.8944 0.4472 0)
(0.8944 0.4472 0)
(0.8944 0.4472 0)
(0.8944 0.4472 0)
(0.8944 0.4472 0)
(0.8944 0.4472 0)
(0.894402 0.447145 0)
(0.894394 0.447137 0)
(0.894384 0.447131 0)
(0.894371 0.447126 0)
(0.894354 0.447124 0)
(0.894336 0.447125 0)
(0.894316 0.447129 0)
(0.894295 0.447138 0)
(0.894274 0.44715 0)
(0.894254 0.447166 0)
(0.894236 0.447185 0)
(0.894221 0.447208 0)
(0.89421 0.447231 0)
(0.894203 0.447255 0)
(0.894201 0.447278 0)
(0.894205 0.447301 0)
(0.894213 0.44732 0)
(0.894225 0.447337 0)
(0.894241 0.447349 0)
(0.894259 0.447358 0)
(0.894279 0.447362 0)
(0.8943 0.447361 0)
(0.89432 0.447357 0)
(0.89434 0.447349 0)
(0.894357 0.447339 0)
(0.894372 0.447327 0)
(0.894385 0.447313 0)
(0.894395 0.447299 0)
(0.894403 0.447285 0)
(0.894408 0.447271 0)
(0.894411 0.447258 0)
(0.894413 0.447247 0)
(0.894413 0.447237 0)
(0.894413 0.447228 0)
(0.894411 0.447221 0)
(0.89441 0.447215 0)
(0.894408 0.44721 0)
(0.894407 0.447207 0)
(0.894405 0.447204 0)
(0.894404 0.447202 0)
(0.894403 0.447201 0)
(0.894402 0.4472 0)
(0.894401 0.4472 0)
(0.894401 0.447199 0)
(0.8944 0.447199 0)
(0.8944 0.447199 0)
(0.8944 0.447199 0)
(0.8944 0.4472 0)
(0.8944 0.4472 0)
(0.8944 0.4472 0)
(0.8944 0.4472 0)
(0.8944 0.4472 0)
(0.8944 0.4472 0)
(0.8944 0.4472 0)
(0.8944 0.4472 0)
(0.8944 0.4472 0)
(0.8944 0.4472 0)
(0.8944 0.4472 0)
(0.8944 0.4472 0)
(0.8944 0.4472 0)
(0.8944 0.4472 0)
(0.8944 0.4472 0)
(0.8944 0.4472 0)
(0.8944 0.4472 0)
(0.8944 0.4472 0)
(0.8944 0.4472 0)
(0.8944 0.4472 0)
(0.8944 0.4472 0)
(0.8944 0.4472 0)
(0.8944 0.4472 0)
(0.8944 0.4472 0)
(0.8944 0.4472 0)
(0.8944 0.4472 0)
(0.8944 0.4472 0)
(0.8944 0.4472 0)
(0.894395 0.447134 0)
(0.894383 0.447126 0)
(0.894368 0.447119 0)
(0.894348 0.447114 0)
(0.894325 0.447113 0)
(0.894299 0.447117 0)
(0.89427 0.447125 0)
(0.89424 0.447138 0)
(0.89421 0.447156 0)
(0.894182 0.447179 0)
(0.894156 0.447206 0)
(0.894135 0.447236 0)
(0.89412 0.447268 0)
(0.894112 0.447299 0)
(0.89411 0.44733 0)
(0.894115 0.447359 0)
(0.894127 0.447383 0)
(0.894144 0.447403 0)
(0.894167 0.447417 0)
(0.894193 0.447426 0)
(0.894222 0.447428 0)
(0.894251 0.447425 0)
(0.89428 0.447417 0)
(0.894308 0.447404 0)
(0.894333 0.447389 0)
(0.894354 0.44737 0)
(0.894372 0.447351 0)
(0.894387 0.447331 0)
(0.894398 0.447312 0)
(0.894406 0.447293 0)
(0.894411 0.447276 0)
(0.894414 0.44726 0)
(0.894415 0.447247 0)
(0.894415 0.447236 0)
(0.894414 0.447226 0)
(0.894412 0.447219 0)
(0.89441 0.447213 0)
(0.894408 0.447208 0)
(0.894406 0.447205 0)
(0.894405 0.447203 0)
(0.894403 0.447201 0)
(0.894402 0.4472 0)
(0.894401 0.447199 0)
(0.894401 0.447199 0)
(0.8944 0.447199 0)
(0.8944 0.447199 0)
(0.8944 0.447199 0)
(0.8944 0.447199 0)
(0.8944 0.447199 0)
(0.8944 0.4472 0)
(0.8944 0.4472 0)
(0.8944 0.4472 0)
(0.8944 0.4472 0)
(0.8944 0.4472 0)
(0.8944 0.4472 0)
(0.8944 0.4472 0)
(0.8944 0.4472 0)
(0.8944 0.4472 0)
(0.8944 0.4472 0)
(0.8944 0.4472 0)
(0.8944 0.4472 0)
(0.8944 0.4472 0)
(0.8944 0.4472 0)
(0.8944 0.4472 0)
(0.8944 0.4472 0)