/*--------------------------------*- C++ -*----------------------------------*\
  =========                 |
  \\      /  F ield         | OpenFOAM: The Open Source CFD Toolbox
   \\    /   O peration     | Website:  https://openfoam.org
    \\  /    A nd           | Version:  6
     \\/     M anipulation  |
\*---------------------------------------------------------------------------*/
FoamFile
{
    version     2.0;
    format      ascii;
    class       surfaceScalarField;
    location    "1.86";
    object      meshPhi;
}
// * * * * * * * * * * * * * * * * * * * * * * * * * * * * * * * * * * * * * //

dimensions      [0 3 -1 0 0 0 0];

internalField   nonuniform List<scalar> 
44700
(
-0.000495435
0.000694645
-0.000985486
0.00208294
-0.00146926
0.0034673
-0.00194599
0.00484574
-0.00241497
0.00621628
-0.00287542
0.00757509
-0.00332668
0.00892116
-0.00376814
0.0102525
-0.00419914
0.0115646
-0.00461913
0.0128572
-0.00502762
0.0141286
-0.00542405
0.0153733
-0.00580799
0.0165923
-0.00617904
0.0177838
-0.00653675
0.0189418
-0.0068808
0.020068
-0.00721088
0.0211609
-0.00752664
0.0222139
-0.00782785
0.0232297
-0.00811427
0.0242068
-0.00838565
0.0251382
-0.00864182
0.0260275
-0.00888263
0.0268735
-0.00910788
0.0276686
-0.00931748
0.0284174
-0.00951132
0.0291188
-0.00968926
0.0297651
-0.00985125
0.0303614
-0.00999722
0.0309071
-0.0101271
0.0313941
-0.0102408
0.0318285
-0.0103384
0.0322097
-0.0104197
0.0325297
-0.0104848
0.0327951
-0.0105337
0.0330056
-0.0105662
0.0331533
-0.0105825
0.0332453
-0.0105825
0.0332816
-0.0105662
0.0332544
-0.0105337
0.0331714
-0.0104848
0.0330327
-0.0104197
0.032831
-0.0103384
0.032574
-0.0102408
0.0322622
-0.0101271
0.0318889
-0.00999722
0.0314618
-0.00985125
0.0309817
-0.00968926
0.0304424
-0.00951132
0.0298519
-0.00931748
0.0292109
-0.00910788
0.028514
-0.00888263
0.0277691
-0.00864182
0.0269772
-0.00838565
0.0261336
-0.00811427
0.025246
-0.00782785
0.0243156
-0.00752664
0.0233386
-0.00721088
0.0223223
-0.0068808
0.021268
-0.00653675
0.020173
-0.00617904
0.0190439
-0.00580799
0.0178825
-0.00542405
0.0166867
-0.00502762
0.0154628
-0.00461913
0.0142126
-0.00419914
0.0129351
-0.00376814
0.0116358
-0.00332669
0.0103164
-0.00287542
0.00897783
-0.00241496
0.00762371
-0.001946
0.00625612
-0.00146926
0.00487737
-0.000985475
0.00349002
-0.000495446
0.0020965
4.54129e-14
0.00069924
0.00050001
-0.00069924
0.0010037
-0.0020965
0.00151014
-0.00349002
0.00201839
-0.00487737
0.00252747
-0.00625612
0.00303638
-0.00762371
0.00354411
-0.00897783
0.00404963
-0.0103164
0.00455184
-0.0116358
0.0050497
-0.0129351
0.00554217
-0.0142126
0.00602809
-0.0154628
0.00650641
-0.0166867
0.00697608
-0.0178825
0.00743595
-0.0190439
0.00788497
-0.020173
0.00832211
-0.021268
0.00874626
-0.0223223
0.00915642
-0.0233386
0.00955162
-0.0243156
0.00993082
-0.025246
0.0102931
-0.0261336
0.0106376
-0.0269772
0.0109633
-0.0277691
0.0112695
-0.028514
0.0115553
-0.0292109
0.0118201
-0.0298519
0.0120631
-0.0304424
0.0122836
-0.0309817
0.0124812
-0.0314618
0.0126553
-0.0318889
0.0128053
-0.0322622
0.012931
-0.032574
0.0130319
-0.032831
0.0131079
-0.0330327
0.0131586
-0.0331714
0.013184
-0.0332544
0.013184
-0.0332816
0.0131586
-0.0332453
0.0131079
-0.0331533
0.0130319
-0.0330056
0.012931
-0.0327951
0.0128053
-0.0325297
0.0126553
-0.0322097
0.0124812
-0.0318285
0.0122836
-0.0313941
0.0120631
-0.0309071
0.0118201
-0.0303614
0.0115553
-0.0297651
0.0112695
-0.0291188
0.0109633
-0.0284174
0.0106376
-0.0276686
0.0102931
-0.0268735
0.00993082
-0.0260275
0.00955162
-0.0251382
0.00915642
-0.0242068
0.00874626
-0.0232297
0.00832211
-0.0222139
0.00788497
-0.0211609
0.00743595
-0.020068
0.00697608
-0.0189418
0.00650641
-0.0177838
0.00602809
-0.0165923
0.00554217
-0.0153733
0.0050497
-0.0141286
0.00455184
-0.0128572
0.00404963
-0.0115646
0.0035441
-0.0102525
0.00303638
-0.00892116
0.00252748
-0.00757509
0.00201837
-0.00621628
0.00151014
-0.00484574
0.00100371
-0.0034673
0.000499999
-0.00208294
-0.000694645
-0.00148545
0.00138352
-0.00295478
0.00414859
-0.0044053
0.00690591
-0.00583475
0.00965156
-0.00724098
0.0123816
-0.00862163
0.0150886
-0.00997477
0.0177704
-0.0112986
0.0204232
-0.012591
0.0230378
-0.0138504
0.0256142
-0.0150754
0.0281487
-0.0162642
0.0306304
-0.0174156
0.0330614
-0.0185284
0.0354381
-0.0196012
0.0377484
-0.020633
0.0399961
-0.0216229
0.042178
-0.0225699
0.0442807
-0.0234733
0.0463099
-0.0243323
0.0482627
-0.0251463
0.0501248
-0.0259146
0.0519036
-0.0266369
0.0535965
-0.0273126
0.0551885
-0.0279412
0.0566887
-0.0285226
0.0580948
-0.0290564
0.0593913
-0.0295423
0.0605888
-0.0299801
0.0616856
-0.0303697
0.0626657
-0.0307109
0.0635411
-0.0310035
0.0643105
-0.0312475
0.0649581
-0.0314428
0.0654969
-0.0315893
0.0659262
-0.031687
0.0662303
-0.0317359
0.0664232
-0.0317359
0.0665047
-0.031687
0.0664596
-0.0315893
0.0663028
-0.0314428
0.0660345
-0.0312475
0.0656401
-0.0310035
0.0651351
-0.0307109
0.0645202
-0.0303697
0.0637819
-0.0299801
0.062936
-0.0295423
0.0619835
-0.0290564
0.0609122
-0.0285226
0.0597379
-0.0279412
0.0584623
-0.0273126
0.0570743
-0.0266369
0.0555897
-0.0259146
0.0540104
-0.0251463
0.0523272
-0.0243323
0.0505553
-0.0234733
0.048697
-0.0225699
0.046745
-0.0216229
0.0447134
-0.020633
0.0426055
-0.0196012
0.0404152
-0.0185284
0.0381563
-0.0174156
0.0358319
-0.0162642
0.0334383
-0.0150754
0.0309878
-0.0138504
0.028484
-0.012591
0.0259251
-0.0112986
0.0233222
-0.0099748
0.0206786
-0.00862163
0.0179962
-0.00724095
0.0152824
-0.00583478
0.0125413
-0.0044053
0.00977759
-0.00295474
0.00699652
-0.00148548
0.00420295
1.34933e-13
0.00140181
0.00149914
-0.00140181
0.00300929
-0.00420295
0.00452766
-0.00699652
0.00605143
-0.00977759
0.00757768
-0.0125413
0.0091034
-0.0152824
0.0106255
-0.0179962
0.012141
-0.0206786
0.0136466
-0.0233222
0.0151391
-0.0259251
0.0166154
-0.028484
0.0180721
-0.0309878
0.019506
-0.0334383
0.0209139
-0.0358319
0.0222924
-0.0381563
0.0236384
-0.0404152
0.0249488
-0.0426055
0.0262202
-0.0447134
0.0274497
-0.046745
0.0286343
-0.048697
0.029771
-0.0505553
0.0308569
-0.0523272
0.0318894
-0.0540104
0.0328658
-0.0555897
0.0337835
-0.0570743
0.0346403
-0.0584623
0.0354339
-0.0597379
0.0361622
-0.0609122
0.0368234
-0.0619835
0.0374156
-0.062936
0.0379372
-0.0637819
0.038387
-0.0645202
0.0387637
-0.0651351
0.0390663
-0.0656401
0.0392939
-0.0660345
0.039446
-0.0663028
0.0395221
-0.0664596
0.0395221
-0.0665047
0.039446
-0.0664232
0.0392939
-0.0662303
0.0390663
-0.0659262
0.0387637
-0.0654969
0.038387
-0.0649581
0.0379372
-0.0643105
0.0374156
-0.0635411
0.0368234
-0.0626657
0.0361622
-0.0616856
0.0354339
-0.0605888
0.0346403
-0.0593913
0.0337835
-0.0580948
0.0328658
-0.0566887
0.0318894
-0.0551885
0.0308569
-0.0535965
0.029771
-0.0519036
0.0286343
-0.0501248
0.0274497
-0.0482627
0.0262202
-0.0463099
0.0249488
-0.0442807
0.0236384
-0.042178
0.0222924
-0.0399961
0.0209139
-0.0377484
0.019506
-0.0354381
0.0180721
-0.0330614
0.0166154
-0.0306304
0.0151391
-0.0281487
0.0136466
-0.0256142
0.012141
-0.0230378
0.0106255
-0.0204232
0.0091034
-0.0177704
0.00757771
-0.0150886
0.00605139
-0.0123816
0.00452766
-0.00965156
0.00300932
-0.00690591
0.00149911
-0.00414859
-0.00138352
-0.00247289
0.00206545
-0.00491903
0.00619346
-0.00733393
0.01031
-0.00971384
0.0144093
-0.0120552
0.0184856
-0.014354
0.0225276
-0.0166071
0.0265325
-0.0188114
0.0304946
-0.0209635
0.0344002
-0.0230608
0.0382492
-0.0251008
0.0420363
-0.0270806
0.0457452
-0.0289982
0.0493791
-0.0308515
0.0529327
-0.0326382
0.0563877
-0.0343569
0.0597502
-0.0360058
0.0630151
-0.0375832
0.0661625
-0.039088
0.069201
-0.0405191
0.0721263
-0.041875
0.0749167
-0.043155
0.0775836
-0.0443583
0.0801229
-0.0454839
0.0825121
-0.0465313
0.0847649
-0.0475
0.0868778
-0.0483893
0.0888275
-0.0491989
0.0906298
-0.0499285
0.092282
-0.0505776
0.0937603
-0.051146
0.0950825
-0.0516336
0.0962466
-0.0520402
0.0972287
-0.0523656
0.0980484
-0.0526098
0.0987044
-0.0527726
0.0991731
-0.052854
0.0994756
-0.052854
0.0996113
-0.0527726
0.0995573
-0.0526098
0.0993359
-0.0523656
0.0989472
-0.0520402
0.0983695
-0.0516336
0.0976258
-0.051146
0.096717
-0.0505776
0.0956228
-0.0499285
0.0943667
-0.0491989
0.0929504
-0.0483893
0.0913553
-0.0475
0.0896051
-0.0465313
0.0877022
-0.0454839
0.0856301
-0.0443583
0.0834121
-0.043155
0.0810515
-0.041875
0.078534
-0.0405191
0.0758825
-0.039088
0.0731007
-0.0375832
0.0701771
-0.0360058
0.0671334
-0.0343569
0.0639741
-0.0326382
0.0606905
-0.0308515
0.0573028
-0.0289982
0.0538161
-0.0270806
0.0502246
-0.0251008
0.0465469
-0.0230608
0.0427886
-0.0209635
0.0389467
-0.0188114
0.0350381
-0.0166071
0.0310679
-0.014354
0.0270389
-0.0120551
0.0229622
-0.00971389
0.0188442
-0.00733393
0.0146918
-0.00491897
0.0105132
-0.00247295
0.00631554
2.21768e-13
0.00210643
0.00249561
-0.00210643
0.00500945
-0.00631554
0.00753692
-0.0105132
0.0100733
-0.0146918
0.0126137
-0.0188442
0.0151532
-0.0229622
0.0176866
-0.0270389
0.0202089
-0.0310679
0.0227146
-0.0350381
0.0251986
-0.0389467
0.0276555
-0.0427886
0.0300797
-0.0465469
0.0324658
-0.0502246
0.0348088
-0.0538161
0.0371027
-0.0573028
0.0393425
-0.0606905
0.041523
-0.0639741
0.0436386
-0.0671334
0.0456844
-0.0701771
0.0476555
-0.0731007
0.0495467
-0.0758825
0.0513536
-0.078534
0.0530715
-0.0810515
0.054696
-0.0834121
0.0562229
-0.0856301
0.0576485
-0.0877022
0.0589688
-0.0896051
0.0601805
-0.0913553
0.0612805
-0.0929504
0.0622657
-0.0943667
0.0631336
-0.0956228
0.063882
-0.096717
0.0645086
-0.0976258
0.065012
-0.0983695
0.0653907
-0.0989472
0.0656438
-0.0993359
0.0657704
-0.0995573
0.0657704
-0.0996113
0.0656438
-0.0994756
0.0653907
-0.0991731
0.065012
-0.0987044
0.0645086
-0.0980484
0.063882
-0.0972287
0.0631336
-0.0962466
0.0622657
-0.0950825
0.0612805
-0.0937603
0.0601805
-0.092282
0.0589688
-0.0906298
0.0576485
-0.0888275
0.0562229
-0.0868778
0.054696
-0.0847649
0.0530715
-0.0825121
0.0513536
-0.0801229
0.0495467
-0.0775836
0.0476555
-0.0749167
0.0456844
-0.0721263
0.0436386
-0.069201
0.041523
-0.0661625
0.0393425
-0.0630151
0.0371027
-0.0597502
0.0348088
-0.0563877
0.0324658
-0.0529327
0.0300797
-0.0493791
0.0276555
-0.0457452
0.0251986
-0.0420363
0.0227146
-0.0382492
0.0202089
-0.0344002
0.0176866
-0.0304946
0.0151532
-0.0265325
0.0126138
-0.0225276
0.0100732
-0.0184856
0.00753692
-0.0144093
0.00500951
-0.01031
0.00249555
-0.00619346
-0.00206545
-0.00345606
0.0027393
-0.00687489
0.00821412
-0.0102502
0.0136739
-0.0135768
0.019111
-0.0168497
0.0245179
-0.0200633
0.0298798
-0.0232131
0.035193
-0.0262948
0.04045
-0.0293038
0.0456327
-0.0322364
0.0507411
-0.0350888
0.0557681
-0.0378574
0.0606924
-0.040539
0.065518
-0.0431309
0.070238
-0.0456298
0.0748284
-0.0480336
0.0792969
-0.0503399
0.0836371
-0.0525465
0.0878225
-0.0546515
0.0918644
-0.0566534
0.0957571
-0.0585504
0.0994719
-0.0603412
0.103024
-0.0620247
0.106408
-0.0635997
0.109593
-0.0650653
0.112598
-0.0664207
0.115419
-0.0676652
0.118023
-0.0687981
0.120433
-0.069819
0.122644
-0.0707274
0.124624
-0.071523
0.126398
-0.0722054
0.127963
-0.0727744
0.129285
-0.0732298
0.130393
-0.0735716
0.131283
-0.0737994
0.131924
-0.0739134
0.132344
-0.0739134
0.132543
-0.0737994
0.132489
-0.0735716
0.132212
-0.0732298
0.131713
-0.0727744
0.130961
-0.0722054
0.129988
-0.071523
0.128795
-0.0707274
0.127355
-0.069819
0.125698
-0.0687981
0.123827
-0.0676652
0.121717
-0.0664207
0.1194
-0.0650653
0.116878
-0.0635997
0.11413
-0.0620247
0.111186
-0.0603412
0.108052
-0.0585504
0.104707
-0.0566534
0.101182
-0.0546515
0.0974823
-0.0525465
0.0935926
-0.0503399
0.0895415
-0.0480336
0.0853351
-0.0456298
0.0809617
-0.0431309
0.0764485
-0.040539
0.0718022
-0.0378574
0.0670149
-0.0350888
0.0621118
-0.0322364
0.0571
-0.0293038
0.0519761
-0.0262948
0.0467621
-0.0232131
0.0414652
-0.0200633
0.0360893
-0.0168496
0.030649
-0.0135769
0.0251531
-0.0102502
0.0196111
-0.00687481
0.0140335
-0.00345613
0.00843039
3.0576e-13
0.00281181
0.00348763
-0.00281181
0.00700059
-0.00843039
0.0105324
-0.0140335
0.0140765
-0.0196111
0.0176261
-0.0251531
0.0211743
-0.030649
0.0247138
-0.0360893
0.0282377
-0.0414652
0.0317382
-0.0467621
0.0352082
-0.0519761
0.0386403
-0.0571
0.0420266
-0.0621118
0.0453596
-0.0670149
0.0486322
-0.0718022
0.0518362
-0.0764485
0.0549645
-0.0809617
0.0580098
-0.0853351
0.0609645
-0.0895415
0.0638216
-0.0935926
0.0665743
-0.0974823
0.0692154
-0.101182
0.0717386
-0.104707
0.0741376
-0.108052
0.076406
-0.111186
0.0785382
-0.11413
0.0805288
-0.116878
0.0823724
-0.1194
0.0840644
-0.121717
0.0856003
-0.123827
0.0869759
-0.125698
0.0881878
-0.127355
0.0892326
-0.128795
0.0901076
-0.129988
0.0908104
-0.130961
0.0913392
-0.131713
0.0916925
-0.132212
0.0918694
-0.132489
0.0918694
-0.132543
0.0916925
-0.132344
0.0913392
-0.131924
0.0908104
-0.131283
0.0901076
-0.130393
0.0892326
-0.129285
0.0881878
-0.127963
0.0869759
-0.126398
0.0856003
-0.124624
0.0840644
-0.122644
0.0823724
-0.120433
0.0805288
-0.118023
0.0785382
-0.115419
0.076406
-0.112598
0.0741376
-0.109593
0.0717386
-0.106408
0.0692154
-0.103024
0.0665743
-0.0994719
0.0638216
-0.0957571
0.0609645
-0.0918644
0.0580098
-0.0878225
0.0549645
-0.0836371
0.0518362
-0.0792969
0.0486322
-0.0748284
0.0453596
-0.070238
0.0420266
-0.065518
0.0386403
-0.0606924
0.0352082
-0.0557681
0.0317382
-0.0507411
0.0282377
-0.0456327
0.0247138
-0.04045
0.0211743
-0.035193
0.0176262
-0.0298798
0.0140764
-0.0245179
0.0105324
-0.019111
0.00700067
-0.0136739
0.00348755
-0.00821412
-0.0027393
-0.00443324
0.00340398
-0.00881902
0.0102073
-0.0131493
0.016992
-0.0174173
0.0237489
-0.0216167
0.0304688
-0.0257403
0.0371332
-0.0297823
0.0437376
-0.0337373
0.050273
-0.0375992
0.0567168
-0.0413632
0.0630693
-0.0450247
0.0693216
-0.0485787
0.0754474
-0.0520214
0.0814515
-0.055349
0.0873257
-0.0585577
0.0930399
-0.0616442
0.0986039
-0.064606
0.10401
-0.0674397
0.109224
-0.0701433
0.114262
-0.0727145
0.119116
-0.0751511
0.123749
-0.0774515
0.128182
-0.0796143
0.132406
-0.0816376
0.136385
-0.0835205
0.140141
-0.085262
0.143669
-0.086861
0.146928
-0.0883167
0.149947
-0.0896286
0.152719
-0.0907959
0.155205
-0.0918183
0.157434
-0.0926953
0.159404
-0.0934265
0.161073
-0.0940118
0.162474
-0.094451
0.163605
-0.0947438
0.164426
-0.0948903
0.164973
-0.0948903
0.165242
-0.0947438
0.165197
-0.094451
0.164874
-0.0940118
0.164273
-0.0934265
0.163358
-0.0926953
0.162166
-0.0918183
0.160698
-0.0907959
0.158921
-0.0896286
0.156874
-0.0883167
0.154558
-0.086861
0.151943
-0.085262
0.149068
-0.0835205
0.145937
-0.0816376
0.142522
-0.0796143
0.138862
-0.0774515
0.134961
-0.0751511
0.130797
-0.0727145
0.126407
-0.0701433
0.121797
-0.0674397
0.116948
-0.064606
0.111896
-0.0616442
0.106649
-0.0585577
0.101192
-0.055349
0.095558
-0.0520214
0.0897568
-0.0485787
0.0837782
-0.0450247
0.0776535
-0.0413632
0.0713918
-0.0375992
0.0649888
-0.0337373
0.0584723
-0.0297824
0.0518512
-0.0257403
0.0451305
-0.0216166
0.0383285
-0.0174174
0.0314564
-0.0131493
0.0245261
-0.00881892
0.0175509
-0.00443334
0.0105435
3.86803e-13
0.00351663
0.00447346
-0.00351663
0.00897912
-0.0105435
0.0135087
-0.0175509
0.0180537
-0.0245261
0.0226056
-0.0314564
0.0271553
-0.0383285
0.0316937
-0.0451305
0.0362118
-0.0518512
0.0406997
-0.0584723
0.0451482
-0.0649888
0.049548
-0.0713918
0.0538888
-0.0776535
0.0581612
-0.0837782
0.0623558
-0.0897568
0.0664624
-0.095558
0.0704718
-0.101192
0.0743747
-0.106649
0.0781613
-0.111896
0.0818227
-0.116948
0.0853502
-0.121797
0.0887346
-0.126407
0.0919678
-0.130797
0.0950417
-0.134961
0.0979483
-0.138862
0.10068
-0.142522
0.103231
-0.145937
0.105593
-0.149068
0.107761
-0.151943
0.109728
-0.154558
0.111491
-0.156874
0.113043
-0.158921
0.114382
-0.160698
0.115503
-0.162166
0.116403
-0.163358
0.117081
-0.164273
0.117533
-0.164874
0.11776
-0.165197
0.11776
-0.165242
0.117533
-0.164973
0.117081
-0.164426
0.116403
-0.163605
0.115503
-0.162474
0.114382
-0.161073
0.113043
-0.159404
0.111491
-0.157434
0.109728
-0.155205
0.107761
-0.152719
0.105593
-0.149947
0.103231
-0.146928
0.10068
-0.143669
0.0979483
-0.140141
0.0950417
-0.136385
0.0919678
-0.132406
0.0887346
-0.128182
0.0853502
-0.123749
0.0818227
-0.119116
0.0781613
-0.114262
0.0743747
-0.109224
0.0704718
-0.10401
0.0664624
-0.0986039
0.0623558
-0.0930399
0.0581612
-0.0873257
0.0538888
-0.0814515
0.049548
-0.0754474
0.0451482
-0.0693216
0.0406997
-0.0630693
0.0362118
-0.0567168
0.0316936
-0.050273
0.0271553
-0.0437376
0.0226057
-0.0371332
0.0180536
-0.0304688
0.0135087
-0.0237489
0.00897922
-0.016992
0.00447336
-0.0102073
-0.00340398
-0.00540275
0.00405841
-0.0107481
0.0121697
-0.0160262
0.0202592
-0.0212289
0.0283158
-0.0263483
0.0363287
-0.0313758
0.0442761
-0.0363043
0.0521527
-0.0411271
0.0599479
-0.0458367
0.0676349
-0.0504274
0.0752141
-0.0548934
0.082675
-0.0592288
0.0899863
-0.0634286
0.0971539
-0.0674886
0.104168
-0.0714036
0.110993
-0.07517
0.11764
-0.0787844
0.1241
-0.0822429
0.130334
-0.0855427
0.136358
-0.0886813
0.142164
-0.0916558
0.147709
-0.0944642
0.153015
-0.0971047
0.158076
-0.0995752
0.162844
-0.101874
0.167348
-0.104001
0.171581
-0.105954
0.175495
-0.107732
0.179122
-0.109334
0.182456
-0.11076
0.18545
-0.112008
0.188138
-0.11308
0.190516
-0.113973
0.192536
-0.114688
0.194237
-0.115224
0.195615
-0.115582
0.196623
-0.115761
0.197303
-0.115761
0.197652
-0.115582
0.197624
-0.115224
0.197264
-0.114688
0.196571
-0.113973
0.195501
-0.11308
0.1941
-0.112008
0.192368
-0.11076
0.190265
-0.109334
0.187837
-0.107732
0.185088
-0.105954
0.181978
-0.104001
0.178556
-0.101874
0.174826
-0.0995752
0.170755
-0.0971047
0.166388
-0.0944642
0.161731
-0.0916558
0.156758
-0.0886813
0.151511
-0.0855427
0.146
-0.0822429
0.140201
-0.0787844
0.134156
-0.07517
0.127876
-0.0714036
0.121342
-0.0674886
0.114595
-0.0634286
0.107646
-0.0592288
0.100483
-0.0548934
0.0931426
-0.0504274
0.0856369
-0.0458367
0.0779604
-0.0411271
0.0701466
-0.0363044
0.0622061
-0.0313758
0.0541452
-0.0263482
0.0459861
-0.0212291
0.0377421
-0.0160262
0.0294275
-0.010748
0.0210587
-0.00540287
0.012651
4.6475e-13
0.00421956
0.00545133
-0.00421956
0.0109415
-0.012651
0.0164603
-0.0210587
0.0219976
-0.0294275
0.0275428
-0.0377421
0.033085
-0.0459861
0.038613
-0.0541452
0.0441159
-0.0622061
0.0495817
-0.0701466
0.0549991
-0.0779604
0.0603569
-0.0856369
0.0656425
-0.0931426
0.0708445
-0.100483
0.0759516
-0.107646
0.0809512
-0.114595
0.0858322
-0.121342
0.0905834
-0.127876
0.0951928
-0.134156
0.0996495
-0.140201
0.103943
-0.146
0.108062
-0.151511
0.111997
-0.156758
0.115739
-0.161731
0.119276
-0.166388
0.122601
-0.170755
0.125704
-0.174826
0.128579
-0.178556
0.131217
-0.181978
0.133611
-0.185088
0.135756
-0.187837
0.137645
-0.190265
0.139274
-0.192368
0.140637
-0.1941
0.141733
-0.195501
0.142557
-0.196571
0.143108
-0.197264
0.143384
-0.197624
0.143384
-0.197652
0.143108
-0.197303
0.142557
-0.196623
0.141733
-0.195615
0.140637
-0.194237
0.139274
-0.192536
0.137645
-0.190516
0.135756
-0.188138
0.133611
-0.18545
0.131217
-0.182456
0.128579
-0.179122
0.125704
-0.175495
0.122601
-0.171581
0.119276
-0.167348
0.115739
-0.162844
0.111997
-0.158076
0.108062
-0.153015
0.103943
-0.147709
0.0996495
-0.142164
0.0951928
-0.136358
0.0905834
-0.130334
0.0858322
-0.1241
0.0809512
-0.11764
0.0759516
-0.110993
0.0708445
-0.104168
0.0656425
-0.0971539
0.0603569
-0.0899863
0.0549991
-0.082675
0.0495817
-0.0752141
0.0441159
-0.0676349
0.0386129
-0.0599479
0.033085
-0.0521527
0.0275429
-0.0442761
0.0219975
-0.0363287
0.0164603
-0.0283158
0.0109416
-0.0202592
0.00545121
-0.0121697
-0.00405841
-0.00636291
0.00470158
-0.0126588
0.0140985
-0.0188762
0.0234702
-0.0250053
0.0328044
-0.0310369
0.0420884
-0.0369608
0.0512973
-0.0427687
0.0604251
-0.0484526
0.0694596
-0.0540037
0.0783698
-0.0594151
0.0871563
-0.0646803
0.0958071
-0.0697918
0.104286
-0.0747441
0.1126
-0.0795319
0.120738
-0.0841493
0.128658
-0.0885919
0.136374
-0.0928556
0.143875
-0.0969358
0.151116
-0.100829
0.158115
-0.104533
0.164863
-0.108043
0.171311
-0.111357
0.177485
-0.114474
0.183374
-0.11739
0.188926
-0.120104
0.194174
-0.122615
0.199108
-0.12492
0.203675
-0.127019
0.207909
-0.128911
0.211806
-0.130595
0.215308
-0.132069
0.218457
-0.133334
0.221247
-0.134389
0.223622
-0.135234
0.225627
-0.135867
0.227257
-0.13629
0.228458
-0.136501
0.229278
-0.136501
0.229714
-0.13629
0.229713
-0.135867
0.229324
-0.135234
0.228548
-0.134389
0.227334
-0.133334
0.225733
-0.132069
0.223748
-0.130595
0.22133
-0.128911
0.218533
-0.127019
0.21536
-0.12492
0.211768
-0.122615
0.20781
-0.120104
0.203492
-0.11739
0.198775
-0.114474
0.193713
-0.111357
0.188312
-0.108043
0.182539
-0.104533
0.176448
-0.100829
0.170045
-0.0969358
0.163306
-0.0928556
0.156279
-0.0885919
0.148976
-0.0841493
0.141375
-0.0795319
0.133524
-0.0747441
0.125436
-0.0697918
0.117097
-0.0646803
0.10855
-0.0594151
0.0998079
-0.0540037
0.0908658
-0.0484526
0.0817623
-0.0427688
0.0725101
-0.0369608
0.0631163
-0.0310368
0.053607
-0.0250055
0.0439979
-0.0188762
0.0343059
-0.0126587
0.0245502
-0.00636306
0.0147486
5.39496e-13
0.00491922
0.00641951
-0.00491922
0.0128841
-0.0147486
0.0193819
-0.0245502
0.0259009
-0.0343059
0.0324286
-0.0439979
0.0389521
-0.053607
0.0454585
-0.0631163
0.0519347
-0.0725101
0.0583668
-0.0817623
0.0647415
-0.0908658
0.0710455
-0.0998079
0.0772642
-0.10855
0.0833841
-0.117097
0.0893919
-0.125436
0.0952729
-0.133524
0.101014
-0.141375
0.106602
-0.148976
0.112023
-0.156279
0.117264
-0.163306
0.122314
-0.170045
0.127157
-0.176448
0.131784
-0.182539
0.136183
-0.188312
0.140342
-0.193713
0.144251
-0.198775
0.1479
-0.203492
0.15128
-0.20781
0.154381
-0.211768
0.157196
-0.21536
0.159717
-0.218533
0.161937
-0.22133
0.163852
-0.223748
0.165455
-0.225733
0.166743
-0.227334
0.167712
-0.228548
0.168359
-0.229324
0.168683
-0.229713
0.168683
-0.229714
0.168359
-0.229278
0.167712
-0.228458
0.166743
-0.227257
0.165455
-0.225627
0.163852
-0.223622
0.161937
-0.221247
0.159717
-0.218457
0.157196
-0.215308
0.154381
-0.211806
0.15128
-0.207909
0.1479
-0.203675
0.144251
-0.199108
0.140342
-0.194174
0.136183
-0.188926
0.131784
-0.183374
0.127157
-0.177485
0.122314
-0.171311
0.117264
-0.164863
0.112023
-0.158115
0.106602
-0.151116
0.101014
-0.143875
0.0952729
-0.136374
0.0893919
-0.128658
0.0833841
-0.120738
0.0772642
-0.1126
0.0710455
-0.104286
0.0647415
-0.0958071
0.0583668
-0.0871563
0.0519347
-0.0783698
0.0454583
-0.0694596
0.0389521
-0.0604251
0.0324287
-0.0512973
0.0259008
-0.0420884
0.0193819
-0.0328044
0.0128843
-0.0234702
0.00641937
-0.0140985
-0.00470158
-0.00731206
0.00533252
-0.0145479
0.0159905
-0.0216944
0.0266203
-0.0287402
0.0372079
-0.0356747
0.0477392
-0.0424863
0.0581862
-0.0491651
0.0685422
-0.0557022
0.0787933
-0.0620874
0.0889048
-0.0683127
0.0988774
-0.0743703
0.108698
-0.080252
0.118325
-0.0859512
0.127766
-0.0914617
0.13701
-0.0967767
0.146008
-0.101891
0.154777
-0.1068
0.163304
-0.111498
0.171538
-0.115982
0.1795
-0.120247
0.187179
-0.12429
0.194519
-0.128109
0.201549
-0.131699
0.208259
-0.135059
0.214589
-0.138186
0.220575
-0.14108
0.226206
-0.143737
0.231421
-0.146156
0.236261
-0.148337
0.240718
-0.150277
0.244729
-0.151977
0.24834
-0.153436
0.251543
-0.154652
0.254276
-0.155625
0.256589
-0.156356
0.258477
-0.156843
0.259877
-0.157086
0.260844
-0.157086
0.261374
-0.156843
0.261406
-0.156356
0.260998
-0.155625
0.260149
-0.154652
0.258799
-0.153436
0.25701
-0.151977
0.254781
-0.150277
0.252059
-0.148337
0.248904
-0.146156
0.24532
-0.143737
0.241256
-0.14108
0.236775
-0.138186
0.231881
-0.135059
0.226531
-0.131699
0.220786
-0.128109
0.214652
-0.12429
0.208094
-0.120247
0.201169
-0.115982
0.193888
-0.111498
0.18622
-0.1068
0.178223
-0.101891
0.169908
-0.0967767
0.161251
-0.0914617
0.152309
-0.0859512
0.143092
-0.080252
0.133588
-0.0743703
0.123844
-0.0683127
0.113877
-0.0620874
0.10368
-0.0557022
0.093297
-0.0491653
0.0827428
-0.0424863
0.072026
-0.0356746
0.0611762
-0.0287404
0.0502116
-0.0216944
0.0391517
-0.0145478
0.0280184
-0.00731222
0.0168323
6.10927e-13
0.00561424
0.00737628
-0.00561424
0.0148036
-0.0168323
0.0222682
-0.0280184
0.0297564
-0.0391517
0.0372538
-0.0502116
0.0447456
-0.0611762
0.0522171
-0.072026
0.0596533
-0.0827428
0.0670381
-0.093297
0.0743563
-0.10368
0.0815928
-0.113877
0.0887306
-0.123844
0.0957546
-0.133588
0.102649
-0.143092
0.109398
-0.152309
0.115986
-0.161251
0.122398
-0.169908
0.128617
-0.178223
0.13463
-0.18622
0.140423
-0.193888
0.145979
-0.201169
0.151287
-0.208094
0.156332
-0.214652
0.161102
-0.220786
0.165585
-0.226531
0.16977
-0.231881
0.173646
-0.236775
0.177202
-0.241256
0.18043
-0.24532
0.183321
-0.248904
0.185867
-0.252059
0.188063
-0.254781
0.189901
-0.25701
0.191378
-0.258799
0.192489
-0.260149
0.193231
-0.260998
0.193602
-0.261406
0.193602
-0.261374
0.193231
-0.260844
0.192489
-0.259877
0.191378
-0.258477
0.189901
-0.256589
0.188063
-0.254276
0.185867
-0.251543
0.183321
-0.24834
0.18043
-0.244729
0.177202
-0.240718
0.173646
-0.236261
0.16977
-0.231421
0.165585
-0.226206
0.161102
-0.220575
0.156332
-0.214589
0.151287
-0.208259
0.145979
-0.201549
0.140423
-0.194519
0.13463
-0.187179
0.128617
-0.1795
0.122398
-0.171538
0.115986
-0.163304
0.109398
-0.154777
0.102649
-0.146008
0.0957546
-0.13701
0.0887306
-0.127766
0.0815928
-0.118325
0.0743563
-0.108698
0.0670381
-0.0988774
0.0596533
-0.0889048
0.052217
-0.0787933
0.0447456
-0.0685422
0.0372539
-0.0581862
0.0297562
-0.0477392
0.0222682
-0.0372079
0.0148037
-0.0266203
0.00737612
-0.0159905
-0.00533252
-0.00824855
0.00595027
-0.0164122
0.0178431
-0.024476
0.0297047
-0.0324273
0.0415197
-0.0402541
0.0532727
-0.0479431
0.0649324
-0.0554833
0.0764916
-0.0628645
0.0879351
-0.0700752
0.0992242
-0.0771062
0.11036
-0.083949
0.121327
-0.0905938
0.132081
-0.0970333
0.142629
-0.10326
0.152959
-0.109268
0.163017
-0.115049
0.172821
-0.120598
0.182357
-0.12591
0.191568
-0.13098
0.200478
-0.135804
0.209075
-0.140377
0.217295
-0.144696
0.225172
-0.148758
0.232693
-0.15256
0.239791
-0.156099
0.246507
-0.159373
0.252829
-0.16238
0.258689
-0.165118
0.264131
-0.167586
0.269146
-0.169783
0.273664
-0.171707
0.277736
-0.173359
0.281354
-0.174735
0.284447
-0.175838
0.287071
-0.176665
0.28922
-0.177216
0.290825
-0.177492
0.291944
-0.177492
0.292575
-0.177216
0.292649
-0.176665
0.292229
-0.175838
0.291315
-0.174735
0.289841
-0.173359
0.287873
-0.171707
0.285412
-0.169783
0.282397
-0.167586
0.278896
-0.165118
0.274912
-0.16238
0.27039
-0.159373
0.265397
-0.156099
0.259941
-0.15256
0.253971
-0.148758
0.247556
-0.144696
0.240703
-0.140377
0.233372
-0.135804
0.225627
-0.13098
0.217481
-0.12591
0.208899
-0.120598
0.199944
-0.115049
0.190631
-0.109268
0.180933
-0.10326
0.170911
-0.0970333
0.16058
-0.0905938
0.149923
-0.083949
0.138997
-0.0771062
0.127817
-0.0700752
0.116377
-0.0628645
0.104728
-0.0554835
0.0928841
-0.0479431
0.0808566
-0.0402539
0.0686787
-0.0324275
0.0563709
-0.024476
0.0439551
-0.016412
0.0314564
-0.00824873
0.0188979
6.78961e-13
0.00630324
0.00831995
-0.00630324
0.0166964
-0.0188979
0.0251139
-0.0314564
0.033557
-0.0439551
0.0420094
-0.0563709
0.0504548
-0.0686787
0.0588762
-0.0808566
0.0672568
-0.0928841
0.0755787
-0.104728
0.0838247
-0.116377
0.0919779
-0.127817
0.100019
-0.138997
0.107931
-0.149923
0.115697
-0.16058
0.123298
-0.170911
0.130717
-0.180933
0.137938
-0.190631
0.144941
-0.199944
0.151711
-0.208899
0.158232
-0.217481
0.164488
-0.225627
0.170462
-0.233372
0.176142
-0.240703
0.181511
-0.247556
0.186557
-0.253971
0.191267
-0.259941
0.195629
-0.265397
0.199631
-0.27039
0.203263
-0.274912
0.206516
-0.278896
0.209382
-0.282397
0.211852
-0.285412
0.213921
-0.287873
0.215582
-0.289841
0.216833
-0.291315
0.217668
-0.292229
0.218086
-0.292649
0.218086
-0.292575
0.217668
-0.291944
0.216833
-0.290825
0.215582
-0.28922
0.213921
-0.287071
0.211852
-0.284447
0.209382
-0.281354
0.206516
-0.277736
0.203263
-0.273664
0.199631
-0.269146
0.195629
-0.264131
0.191267
-0.258689
0.186557
-0.252829
0.181511
-0.246507
0.176142
-0.239791
0.170462
-0.232693
0.164488
-0.225172
0.158232
-0.217295
0.151711
-0.209075
0.144941
-0.200478
0.137938
-0.191568
0.130717
-0.182357
0.123298
-0.172821
0.115697
-0.163017
0.107931
-0.152959
0.100019
-0.142629
0.0919779
-0.132081
0.0838247
-0.121327
0.0755787
-0.11036
0.0672568
-0.0992242
0.058876
-0.0879351
0.0504548
-0.0764916
0.0420096
-0.0649324
0.0335568
-0.0532727
0.0251139
-0.0415197
0.0166966
-0.0297047
0.00831976
-0.0178431
-0.00595027
-0.00917075
0.00655395
-0.0182484
0.0196534
-0.0272164
0.0327189
-0.0360605
0.0457336
-0.0447675
0.0586807
-0.0533224
0.0715261
-0.0617131
0.0842619
-0.0699281
0.0968717
-0.0779546
0.109313
-0.0857822
0.121587
-0.0934014
0.133677
-0.100801
0.145534
-0.107974
0.157167
-0.114911
0.168561
-0.121604
0.179658
-0.128045
0.190478
-0.13423
0.201005
-0.140151
0.211176
-0.145803
0.221018
-0.151182
0.230517
-0.156281
0.239604
-0.161098
0.248315
-0.165628
0.256635
-0.169869
0.264493
-0.173817
0.271931
-0.17747
0.278936
-0.180825
0.285434
-0.183881
0.291472
-0.186636
0.297042
-0.189088
0.302065
-0.191236
0.306597
-0.193079
0.31063
-0.194616
0.314084
-0.195846
0.317021
-0.19677
0.319435
-0.197385
0.321247
-0.197693
0.322525
-0.197693
0.323263
-0.197385
0.323385
-0.19677
0.322962
-0.195846
0.321992
-0.194616
0.320402
-0.193079
0.318266
-0.191236
0.315584
-0.189088
0.312287
-0.186636
0.308452
-0.183881
0.304081
-0.180825
0.299113
-0.17747
0.293623
-0.173817
0.287618
-0.169869
0.281042
-0.165628
0.273971
-0.161098
0.266415
-0.156281
0.258325
-0.151182
0.249776
-0.145803
0.240779
-0.140151
0.231298
-0.13423
0.221402
-0.128045
0.211106
-0.121604
0.200381
-0.114911
0.189295
-0.107974
0.177865
-0.100801
0.166071
-0.0934014
0.153977
-0.0857822
0.1416
-0.0779546
0.128933
-0.0699281
0.116031
-0.0617133
0.102913
-0.0533224
0.0895903
-0.0447673
0.0760993
-0.0360607
0.0624632
-0.0272164
0.0487066
-0.0182482
0.0348573
-0.00917096
0.0209413
7.43498e-13
0.00698481
0.00924883
-0.00698481
0.0185592
-0.0209413
0.0279139
-0.0348573
0.0372957
-0.0487066
0.0466868
-0.0624632
0.0560687
-0.0760993
0.065423
-0.0895903
0.0747308
-0.102913
0.0839723
-0.116031
0.0931285
-0.128933
0.102181
-0.1416
0.111107
-0.153977
0.11989
-0.166071
0.12851
-0.177865
0.136945
-0.189295
0.145178
-0.200381
0.15319
-0.211106
0.16096
-0.221402
0.168471
-0.231298
0.175706
-0.240779
0.182644
-0.249776
0.189271
-0.258325
0.195571
-0.266415
0.201525
-0.273971
0.207121
-0.281042
0.212344
-0.287618
0.217181
-0.293623
0.221618
-0.299113