/*--------------------------------*- C++ -*----------------------------------*\
  =========                 |
  \\      /  F ield         | OpenFOAM: The Open Source CFD Toolbox
   \\    /   O peration     | Website:  https://openfoam.org
    \\  /    A nd           | Version:  6
     \\/     M anipulation  |
\*---------------------------------------------------------------------------*/
FoamFile
{
    version     2.0;
    format      ascii;
    class       surfaceScalarField;
    location    "2.96";
    object      phi;
}
// * * * * * * * * * * * * * * * * * * * * * * * * * * * * * * * * * * * * * //

dimensions      [0 3 -1 0 0 0 0];

internalField   nonuniform List<scalar> 
8193
(
0.0947587
-0.179989
-0.090473
0.0959396
-0.179766
0.0956399
-0.177447
0.094651
-0.175143
0.0931561
-0.173429
0.0911753
-0.172223
0.0887151
-0.171454
0.0857887
-0.171139
0.0824511
-0.171338
0.0788183
-0.172154
0.0750097
-0.173653
0.0711084
-0.175819
0.067064
-0.178396
0.0625912
-0.180885
0.0571149
-0.182249
0.0498549
-0.181419
0.0395553
-0.175993
0.0258646
-0.163861
0.0103559
-0.14705
-0.00279776
-0.135458
-0.0123438
-0.139352
-0.0215025
-0.150582
-0.0302127
-0.15919
-0.0378986
-0.166087
-0.0449656
-0.171871
-0.0518133
-0.176663
-0.0585731
-0.180875
-0.065204
-0.184865
-0.0715962
-0.188652
-0.0776145
-0.192107
-0.0831404
-0.195053
-0.0880866
-0.197348
-0.0923878
-0.19892
-0.0959865
-0.199765
-0.0988272
-0.199904
-0.100844
-0.199357
-0.101999
-0.198206
-0.102164
-0.196556
-0.101057
-0.19449
-0.0980239
-0.191529
-0.185926
-0.0912588
0.108563
-0.172253
-0.105007
0.109463
-0.166988
0.109732
-0.16204
0.109519
-0.157656
0.108647
-0.154094
0.107061
-0.151393
0.104766
-0.149535
0.101801
-0.148559
0.0982701
-0.148573
0.0943127
-0.149692
0.0900489
-0.151935
0.0854595
-0.155118
0.0803205
-0.158748
0.0741688
-0.162054
0.0664703
-0.163892
0.0558907
-0.16236
0.0412428
-0.155164
0.0233564
-0.142178
0.0055219
-0.127851
-0.00815732
-0.122859
-0.0187769
-0.132233
-0.0295927
-0.145626
-0.0396891
-0.157215
-0.0490297
-0.166994
-0.0580871
-0.175016
-0.0670859
-0.181611
-0.0761138
-0.187292
-0.0850368
-0.192602
-0.0936597
-0.197588
-0.101763
-0.202111
-0.109143
-0.205952
-0.115631
-0.208907
-0.121081
-0.210863
-0.125362
-0.211791
-0.128346
-0.211704
-0.129907
-0.210625
-0.129944
-0.208624
-0.128383
-0.205811
-0.125212
-0.202242
-0.12012
-0.197788
-0.192422
-0.111138
0.120203
-0.158609
-0.116925
0.122238
-0.150517
0.123621
-0.143729
0.124256
-0.137801
0.123962
-0.132898
0.122683
-0.129171
0.120452
-0.126675
0.117359
-0.125482
0.113534
-0.12572
0.109097
-0.127463
0.104102
-0.130638
0.0984641
-0.13489
0.0918612
-0.139461
0.0838412
-0.143415
0.073802
-0.145429
0.0602545
-0.142681
0.0428925
-0.13403
0.0231191
-0.121025
0.00440603
-0.110155
-0.010273
-0.111564
-0.0230429
-0.125153
-0.0356049
-0.140966
-0.0474342
-0.155373
-0.0587991
-0.167542
-0.0700196
-0.17744
-0.0812877
-0.185491
-0.092567
-0.192402
-0.103737
-0.198769
-0.114545
-0.204735
-0.124721
-0.210152
-0.134005
-0.214765
-0.14216
-0.218325
-0.148971
-0.220678
-0.154235
-0.221778
-0.15775
-0.221635
-0.159307
-0.220289
-0.158719
-0.217807
-0.155863
-0.214264
-0.150691
-0.209686
-0.143075
-0.204078
-0.19788
-0.132487
0.13393
-0.140861
-0.129899
0.13708
-0.131125
0.139221
-0.122943
0.140278
-0.115906
0.140162
-0.110151
0.13885
-0.105868
0.136398
-0.10317
0.132928
-0.102168
0.128567
-0.102967
0.123389
-0.10556
0.117406
-0.109784
0.110463
-0.115087
0.102195
-0.120475
0.0923549
-0.1251
0.0798474
-0.126763
0.0634783
-0.122516
0.0434806
-0.112617
0.0219532
-0.100453
0.00247484
-0.0939673
-0.0132464
-0.101406
-0.0277614
-0.118382
-0.0417905
-0.136741
-0.0552706
-0.153609
-0.068529
-0.167732
-0.0818056
-0.179133
-0.0952001
-0.188346
-0.108635
-0.196223
-0.121959
-0.203403
-0.134913
-0.210108
-0.147189
-0.21621
-0.158477
-0.221434
-0.168479
-0.225494
-0.17692
-0.228207
-0.183535
-0.229504
-0.188062
-0.229397
-0.190237
-0.22794
-0.189808
-0.225206
-0.186564
-0.221268
-0.180326
-0.216163
-0.170941
-0.209926
-0.202965
-0.158358
0.149407
-0.120006
-0.144529
0.153206
-0.109227
0.155682
-0.100099
0.156806
-0.0924027
0.156551
-0.0862519
0.154928
-0.0818469
0.152018
-0.0793436
0.147941
-0.078862
0.142793
-0.0804576
0.136617
-0.0840425
0.129427
-0.0893968
0.121006
-0.0957111
0.111065
-0.101895
0.099368
-0.107127
0.0843178
-0.107825
0.0653249
-0.102023
0.0432506
-0.0914095
0.0206814
-0.0810732
0.000795559
-0.0795247
-0.0160998
-0.0921164
-0.0321596
-0.111975
-0.0476069
-0.132854
-0.0627737
-0.151743
-0.0779116
-0.167441
-0.0931972
-0.180019
-0.108609
-0.190179
-0.124073
-0.198798
-0.139438
-0.206558
-0.154457
-0.213757
-0.168803
-0.220314
-0.18213
-0.225954
-0.194092
-0.230373
-0.204356
-0.23336
-0.212601
-0.234831
-0.21851
-0.234797
-0.221772
-0.233318
-0.222088
-0.23048
-0.219184
-0.226366
-0.212801
-0.221044
-0.202716
-0.214571
-0.207221
-0.188914
0.166625
-0.0966883
-0.161248
0.170558
-0.0852472
0.172945
-0.0756418
0.173778
-0.0677228
0.173063
-0.0615847
0.170852
-0.0574479
0.167225
-0.0554647
0.162274
-0.0557411
0.156061
-0.0582746
0.148643
-0.0629462
0.140055
-0.069491
0.130117
-0.0768608
0.118649
-0.0839437
0.104914
-0.0893393
0.0874117
-0.088683
0.0662115
-0.0815609
0.0426823
-0.0709399
0.0195692
-0.0632672
-0.000720997
-0.0666959
-0.0188544
-0.0834856
-0.0362101
-0.10603
-0.0530972
-0.129129
-0.0699828
-0.149592
-0.0870284
-0.166501
-0.10422
-0.180072
-0.121521
-0.191007
-0.138879
-0.20017
-0.156168
-0.208288
-0.17316
-0.215734
-0.189534
-0.222498
-0.20492
-0.228332
-0.21893
-0.23293
-0.231183
-0.236066
-0.24131
-0.237639
-0.248947
-0.237657
-0.253738
-0.236188
-0.255342
-0.233328
-0.25343
-0.22918
-0.247699
-0.223838
-0.237895
-0.217364
-0.209996
-0.223875
0.18513
-0.0713401
-0.179872
0.188738
-0.0596893
0.190619
-0.0500284
0.190798
-0.0422778
0.189328
-0.0365339
0.186266
-0.0329891
0.181672
-0.0317728
0.175611
-0.0329659
0.168137
-0.0365352
0.159316
-0.0423464
0.149257
-0.0501595
0.137898
-0.0587343
0.124901
-0.0666645
0.108968
-0.071573
0.0893254
-0.0696053
0.0664727
-0.0616035
0.0421206
-0.0517316
0.0188081
-0.0472501
-0.00198481
-0.0552371
-0.0212624
-0.0754521
-0.0398078
-0.100492
-0.058254
-0.125288
-0.0769442
-0.146918
-0.0958534
-0.164809
-0.114874
-0.179239
-0.133953
-0.190826
-0.153073
-0.200377
-0.172153
-0.208652
-0.191008
-0.216106
-0.209337
-0.22282
-0.226761
-0.228603
-0.242866
-0.233169
-0.257229
-0.236289
-0.269437
-0.237848
-0.279091
-0.237847
-0.2858
-0.236357
-0.289183
-0.233491
-0.288871
-0.229374
-0.284526
-0.224115
-0.275872
-0.217774
-0.210613
-0.262676
0.204483
-0.044452
-0.199921
0.207275
-0.0330207
0.208267
-0.0237215
0.207492
-0.0165087
0.205012
-0.0114786
0.200881
-0.00878608
0.195129
-0.00851228
0.187805
-0.0107335
0.178979
-0.0154136
0.16874
-0.0224198
0.157199
-0.0315156
0.14439
-0.0413665
0.12964
-0.049846
0.111697
-0.0539857
0.090426
-0.0510337
0.0665608
-0.0426914
0.0419178
-0.034193
0.0185511
-0.0330249
-0.00286955
-0.0448689
-0.0231667
-0.0679783
-0.0429946
-0.0951029
-0.0631111
-0.121055
-0.083651
-0.143516
-0.104415
-0.162228
-0.125207
-0.177441
-0.145969
-0.189615
-0.166722
-0.199448
-0.187454
-0.207714
-0.208036
-0.214956
-0.228208
-0.221367
-0.247602
-0.226841
-0.265791
-0.231139
-0.282321
-0.234042
-0.296748
-0.23543
-0.30864
-0.235291
-0.317581
-0.233696
-0.323165
-0.230769
-0.325
-0.226661
-0.322724
-0.221492
-0.316018
-0.215338
-0.208469
-0.304624
0.223934
-0.0165712
-0.220566
0.225546
-0.00579815
0.225359
0.0027666
0.223412
0.00911811
0.219753
0.0131758
0.2144
0.0148397
0.207385
0.0140414
0.198755
0.0107079
0.188541
0.00490973
0.176903
-0.00332937
0.163924
-0.013685
0.149518
-0.0246386
0.133007
-0.0334627
0.113515
-0.0369791
0.0911895
-0.0334517
0.0668995
-0.0252949
0.0423253
-0.0185458
0.0188863
-0.020421
-0.00319468
-0.0353958
-0.0244878
-0.0609197
-0.0457718
-0.0895215
-0.0676804
-0.116144
-0.0901174
-0.139181
-0.112737
-0.158606
-0.135268
-0.174574
-0.157636
-0.187326
-0.179903
-0.197401
-0.20213
-0.205548
-0.224268
-0.212397
-0.246117
-0.218273
-0.267343
-0.223181
-0.287521
-0.226958
-0.306186
-0.229419
-0.322867
-0.230442
-0.337112
-0.230003
-0.348486
-0.228167
-0.356576
-0.225064
-0.360985
-0.22086
-0.361344
-0.21569
-0.357305
-0.209666
-0.203087
-0.348556
0.242677
0.011594
-0.240786
0.242901
0.0213295
0.241389
0.0288519
0.23817
0.0340884
0.233252
0.0370021
0.226637
0.0375237
0.218338
0.0355934
0.208384
0.0311419
0.196819
0.0242383
0.183829
0.01478
0.169436
0.00326776
0.153475
-0.00858529
0.135482
-0.0177439
0.114941
-0.0209701
0.0920623
-0.0172495
0.0678052
-0.0097386
0.0434797
-0.00481995
0.0199766
-0.00928465
-0.0028197
-0.0265938
-0.0252179
-0.0539952
-0.0481191
-0.0834143
-0.071903
-0.110302
-0.0962725
-0.133716
-0.120763
-0.153777
-0.145034
-0.1705
-0.168969
-0.183877
-0.192649
-0.194231
-0.21621
-0.20223
-0.239698
-0.208573
-0.262996
-0.213727
-0.285827
-0.217835
-0.307797
-0.220843
-0.328441
-0.222619
-0.34728
-0.223057
-0.363845
-0.222126
-0.377693
-0.219879
-0.388413
-0.216435
-0.395618
-0.211971
-0.398945
-0.206639
-0.398042
-0.200594
-0.194178
-0.392576
0.259935
0.0391966
-0.259576
0.258732
0.0476324
0.255908
0.0538783
0.251432
0.057859
0.245289
0.0595428
0.23746
0.058886
0.227946
0.0558278
0.216767
0.050296
0.20402
0.0422962
0.18977
0.0317686
0.174036
0.0192693
0.156717
0.00663905
0.137544
-0.00291351
0.116318
-0.00621669
0.0933591
-0.00276956
0.0694871
0.00377291
0.0455599
0.00699533
0.0218776
0.000668219
-0.00163006
-0.0182934
-0.0252958
-0.0468675
-0.0499212
-0.0765019
-0.0756047
-0.103339
-0.10191
-0.126958
-0.128291
-0.147573
-0.154338
-0.165045
-0.179857
-0.179128
-0.204898
-0.189882
-0.229651
-0.197813
-0.254267
-0.203638
-0.278734
-0.207961
-0.302862
-0.211091
-0.32631
-0.213106
-0.348645
-0.213961
-0.369392
-0.213586
-0.388076
-0.211954
-0.404252
-0.209102
-0.417508
-0.205138
-0.427477
-0.200224
-0.433805
-0.194545
-0.436161
-0.188278
-0.181792
-0.434253
0.275056
0.0653312
-0.276111
0.272554
0.0723262
0.268523
0.077202
0.262903
0.0798834
0.255671
0.0803244
0.246806
0.0784966
0.236288
0.0743575
0.224107
0.067839
0.210362
0.0588461
0.195023
0.0474627
0.178118
0.03419
0.159638
0.0209125
0.13957
0.0108476
0.118021
0.00704694
0.0953644
0.00975111
0.0721043
0.0151725
0.0485848
0.0170595
0.0247718
0.00956356
0.000499882
-0.0102648
-0.0245517
-0.0392425
-0.0509126
-0.0686005
-0.0784518
-0.0951321
-0.106647
-0.118794
-0.134917
-0.139846
-0.162796
-0.158015
-0.189984
-0.172872
-0.216424
-0.184211
-0.242307
-0.19227
-0.267864
-0.197703
-0.293212
-0.201212
-0.318271
-0.203282
-0.342795
-0.204144
-0.366407
-0.203876
-0.388663
-0.20247
-0.4091
-0.199924
-0.427272
-0.196269
-0.442762
-0.191607
-0.455207
-0.186077
-0.464294
-0.179854
-0.469707
-0.173166
-0.166364
-0.471206
0.287554
0.0891016
-0.289775
0.283981
0.0946549
0.278956
0.0981861
0.272412
0.0996136
0.264313
0.0988806
0.254643
0.0959557
0.243393
0.0908065
0.230545
0.0833865
0.216043
0.0736498
0.199866
0.061653
0.181996
0.0479
0.162578
0.0341184
0.141891
0.0233914
0.120309
0.0186788
0.098184
0.020243
0.075684
0.0244812
0.0526911
0.0254292
0.0288073
0.0175197
0.00374353
-0.00230235
-0.0226896
-0.0309487
-0.050686
-0.0596392
-0.0799451
-0.0856521
-0.10991
-0.109189
-0.140013
-0.130506
-0.169762
-0.149239
-0.198758
-0.164847
-0.226756
-0.176948
-0.253844
-0.185432
-0.280284
-0.190753
-0.306301
-0.193632
-0.331943
-0.194718
-0.357098
-0.194383
-0.381488
-0.192864
-0.404747
-0.190242
-0.426436
-0.186587
-0.446122
-0.181941
-0.463385
-0.176412
-0.477859
-0.170113
-0.489241
-0.163199
-0.497248
-0.155926
-0.148594
-0.501699
0.297117
0.109681
-0.300168
0.292763
0.113936
0.287031
0.116244
0.279852
0.116541
0.271186
0.114763
0.261011
0.110876
0.249319
0.104852
0.236063
0.0966933
0.221166
0.0863965
0.204511
0.0740641
0.186003
0.0601862
0.165919
0.0461174
0.14482
0.0346612
0.12334
0.0287059
0.101844
0.02878
0.0801962
0.0317851
0.0578643
0.03215
0.0340755
0.024551
0.00833947
0.00565226
-0.0193011
-0.0219867
-0.0487125
-0.0496707
-0.0794664
-0.074964
-0.110987
-0.0982052
-0.14278
-0.119555
-0.174335
-0.138649
-0.205246
-0.154827
-0.23503
-0.167763
-0.263594
-0.176935
-0.291083
-0.182542
-0.317762
-0.185167
-0.343769
-0.185569
-0.369171
-0.184177
-0.393843
-0.181412
-0.417548
-0.177468
-0.439913
-0.172551
-0.460526
-0.166758
-0.478978
-0.160211
-0.494921
-0.152997
-0.508022
-0.145289
-0.518045
-0.137295
-0.12927
-0.524853
0.303592
0.126409
-0.307139
0.29879
0.129592
0.29268
0.130873
0.285202
0.130222
0.276294
0.127593
0.265944
0.122922
0.254115
0.116224
0.240765
0.107517
0.22575
0.0969094
0.208932
0.0845063
0.190241
0.0707344
0.169859
0.056699
0.148513
0.044662
0.127174
0.0372647
0.10625
0.0356021
0.0855022
0.0372184
0.0640231
0.0372127
0.040637
0.0305298
0.0146435
0.0133604
-0.0139529
-0.0124374
-0.0444228
-0.0388878
-0.0763855
-0.063198
-0.109147
-0.0860095
-0.142394
-0.10709
-0.175532
-0.126343
-0.208165
-0.142888
-0.23994
-0.156342
-0.270399
-0.166267
-0.299414
-0.172515
-0.326974
-0.175531
-0.35345
-0.175679
-0.378915
-0.173673
-0.403548
-0.16982
-0.427178
-0.164661
-0.449629
-0.158416
-0.470513
-0.151403
-0.489503
-0.143704
-0.506233
-0.135478
-0.52042
-0.126848
-0.531811
-0.118038
-0.109244
-0.540267
0.306971
0.138881
-0.310765
0.30203
0.141215
0.295832
0.141739
0.288413
0.140295
0.279583
0.137087
0.269442
0.131783
0.257777
0.124723
0.244729
0.115586
0.229932
0.104996
0.213455
0.0926341
0.194848
0.0794501
0.174657
0.0655545
0.153201
0.0534399
0.132113
0.0444343
0.111389
0.0412677
0.0915878
0.0409207
0.0709243
0.0408377
0.0481915
0.0353842
0.0228963
0.0200389
-0.00635151
-0.00243937
-0.037266
-0.0277459
-0.0701462
-0.0504954
-0.103749
-0.0728617
-0.138138
-0.0932928
-0.172804
-0.112251
-0.206889
-0.12919
-0.240641
-0.142599
-0.272649
-0.153685
-0.303937
-0.159843
-0.332614
-0.164419
-0.360297
-0.164252
-0.385748
-0.1629
-0.410465
-0.157928
-0.433536
-0.152285
-0.45567
-0.144576
-0.476098
-0.13661
-0.494986
-0.127553
-0.511731
-0.118363
-0.526291
-0.108639
-0.5383
-0.0989746
-0.0893
-0.547705
0.30706
-0.311106
0.302794
0.296372
0.289674
0.280774
0.271562
0.260043
0.248063
0.233475
0.21817
0.199769
0.180778
0.158487
0.138296
0.11596
0.0979622
0.0777354
0.0570834
0.0333532
0.00409214
-0.0269093
-0.0602294
-0.0943391
-0.129288
-0.165252
-0.200465
-0.236638
-0.269833
-0.303478
-0.33284
-0.362537
-0.387978
-0.413501
-0.435779
-0.457746
-0.476947
-0.495376
-0.511084
-0.525396
-0.536969
-0.546547
0.0280058
-0.500634
-0.00404781
-0.502575
-0.033104
-0.49724
-0.0579619
-0.485234
-0.0774515
-0.466808
-0.0906925
-0.442111
-0.0972946
-0.411572
-0.0975109
-0.376308
-0.0922641
-0.338053
-0.0828297
-0.298897
-0.0704716
-0.260752
-0.0562826
-0.224943
-0.0412154
-0.192289
-0.0263695
-0.163182
-0.013159
-0.137554
-0.00228182
-0.115919
-0.0896114
0.0205033
-0.455792
-0.00934452
-0.45802
-0.0367183
-0.454284
-0.0605756
-0.445001
-0.0799085
-0.430426
-0.0938055
-0.410645
-0.101602
-0.385869
-0.103195
-0.356679
-0.0991481
-0.324162
-0.0905904
-0.289856
-0.0788476
-0.255482
-0.0650922
-0.222518
-0.0502355
-0.192035
-0.0352015
-0.164399
-0.0208052
-0.139627
-0.00826424
-0.117804
-0.0890256
0.0136516
-0.412023
-0.0140123
-0.414566
-0.0395393
-0.412101
-0.0620475
-0.405037
-0.0807243
-0.393586
-0.0947426
-0.377877
-0.103427
-0.357994
-0.106429
-0.334215
-0.103909
-0.307131
-0.0965903
-0.277736
-0.0856132
-0.24734
-0.0721849
-0.217356
-0.0573466
-0.189022
-0.0419519
-0.16288
-0.0265457
-0.139245
-0.012163
-0.117693
-0.0881352
0.00766633
-0.370173
-0.0178087
-0.372722
-0.0414375
-0.371247
-0.0625009
-0.365939
-0.0803137
-0.357
-0.0941751
-0.344596
-0.103436
-0.328781
-0.107619
-0.30968
-0.106588
-0.287559
-0.100694
-0.262937
-0.0907493
-0.236672
-0.0778302
-0.209921
-0.0630507
-0.183883
-0.0472873
-0.159337
-0.0311249
-0.136883
-0.0153412
-0.115891
-0.086975
0.00250544
-0.330395
-0.0207676
-0.332954
-0.0424474
-0.332225
-0.0619266
-0.328302
-0.0786247
-0.32138
-0.0919966
-0.311607
-0.101459
-0.299091
-0.106519
-0.283885
-0.106864
-0.266087
-0.102509
-0.245902
-0.0938863
-0.223778
-0.0817879
-0.200523
-0.0672378
-0.177105
-0.0511864
-0.15438
-0.0343716
-0.133157
-0.0175044
-0.112829
-0.0852964
-0.00171708
-0.293158
-0.0228654
-0.295575
-0.0426362
-0.29539
-0.0604788
-0.29258
-0.0759255
-0.287272
-0.0885251
-0.279612
-0.0978199
-0.26973
-0.103358
-0.257685
-0.104775
-0.243502
-0.101872
-0.227227
-0.0947382
-0.209036
-0.0838165
-0.189385
-0.0698699
-0.168931
-0.0537826
-0.148411
-0.0364858
-0.128588
-0.0188998
-0.108866
-0.0830847
-0.00510752
-0.258574
-0.0241617
-0.26088
-0.0420432
-0.261051
-0.0582448
-0.259113
-0.0723528
-0.25511
-0.0839909
-0.249163
-0.0928111
-0.241384
-0.0984442
-0.231864
-0.100543
-0.22062
-0.098822
-0.207642
-0.0931416
-0.19297
-0.0836273
-0.176804
-0.070712
-0.159498
-0.0550795
-0.141544
-0.0376609
-0.12346
-0.0195529
-0.104487
-0.0803167
-0.00756615
-0.226877
-0.0246721
-0.228977
-0.0407314
-0.229404
-0.0553315
-0.228133
-0.0680871
-0.22519
-0.0786742
-0.220645
-0.086807
-0.21458
-0.0922224
-0.207073
-0.0946263
-0.19818
-0.0937284
-0.187896
-0.0892867
-0.176222
-0.0812031
-0.163218
-0.0696141
-0.149013
-0.054932
-0.133826
-0.0379603
-0.117791
-0.0196632
-0.0999887
-0.0771183
-0.00928015
-0.198064
-0.0244847
-0.200009
-0.0387871
-0.200577
-0.0518208
-0.199808
-0.0632531
-0.197699
-0.0727788
-0.1943
-0.0801486
-0.189643
-0.0851453
-0.183782
-0.0875599
-0.176773
-0.0871452
-0.168655
-0.0836391
-0.159451
-0.0768553
-0.149152
-0.0667144
-0.137786
-0.0533596
-0.125356
-0.0373279
-0.111604
-0.0193782
-0.0953947
-0.0736996
-0.0101528
-0.17222
-0.0236198
-0.173932
-0.0362727
-0.174595
-0.0478104
-0.174208
-0.0579523
-0.172755
-0.0664443
-0.170264
-0.0730552
-0.166751
-0.0775828
-0.162246
-0.0798456
-0.156789
-0.0796486
-0.150439
-0.0767942
-0.143229
-0.0710861
-0.135152
-0.0623552
-0.126216
-0.0505434
-0.116316
-0.0358621
-0.104932
-0.0187926
-0.090661
-0.0702944
-0.0104121
-0.14921
-0.0221893
-0.150765
-0.0332664
-0.151454
-0.043382
-0.15134
-0.0522926
-0.150391
-0.0597783
-0.148617
-0.0656429
-0.146014
-0.0697034
-0.142603
-0.0717837
-0.138422
-0.071717
-0.133527
-0.0693321
-0.127957
-0.0644533
-0.121718
-0.0569614
-0.114762
-0.0467107
-0.107018
-0.0336378
-0.097887
-0.017889
-0.0857604
-0.0670441
-0.00995377
-0.129053
-0.0202042
-0.13036
-0.0298252
-0.131056
-0.0386082
-0.131143
-0.0463547
-0.130579
-0.0528844
-0.12936
-0.0580234
-0.127478
-0.0616055
-0.12495
-0.0634773
-0.121806
-0.0635045
-0.118084
-0.0615449
-0.113838
-0.0574331
-0.109097
-0.0510167
-0.103809
-0.0421637
-0.0978821
-0.0307261
-0.0907387
-0.0165973
-0.0807329
-0.0639447
-0.00900215
-0.11149
-0.0177595
-0.112654
-0.025995
-0.11331
-0.0335311
-0.113517
-0.0401964
-0.113232
-0.0458344
-0.112435
-0.0502901
-0.111121
-0.0534134
-0.109304
-0.0550653
-0.107005
-0.0551272
-0.104247
-0.0535007
-0.101063
-0.050074
-0.097502
-0.0446718
-0.0935761
-0.0371469
-0.0891706
-0.0272744
-0.0837877
-0.0149503
-0.0756638
-0.0609529
-0.00743915
-0.0965358
-0.0148447
-0.0974499
-0.0218034
-0.0980534
-0.0281762
-0.0983328
-0.0338313
-0.0982386
-0.0386375
-0.097753
-0.042459
-0.0968763
-0.0451636
-0.0956215
-0.0466277
-0.0940025
-0.0467409
-0.0920305
-0.0454108
-0.0897247
-0.0425623
-0.0871183
-0.0380988
-0.0842472
-0.03186
-0.0810632
-0.0235127
-0.0772443
-0.0130648
-0.0706883
-0.0580762
-0.00545613
-0.0838412
-0.0115444
-0.0846318
-0.0172775
-0.0851589
-0.0225533
-0.0854529
-0.0272605
-0.0854745
-0.0312859
-0.0852086
-0.034513
-0.0846603
-0.0368298
-0.0838396
-0.0381319
-0.0827539
-0.038322
-0.0814093
-0.0373105
-0.0798191
-0.0350214
-0.0780046
-0.0313899
-0.0759925
-0.0263125
-0.0737755
-0.0196698
-0.0710495
-0.0110437
-0.0660135
-0.0553663
-0.00293403
-0.0734571
-0.00780597
-0.0740069
-0.0124125
-0.0744394
-0.0166656
-0.0747197
-0.020482
-0.0748045
-0.0237723
-0.074686
-0.0264423
-0.0743744
-0.0284015
-0.0738774
-0.0295653
-0.0731977
-0.0298524
-0.0723391
-0.0291847
-0.0713131
-0.0274907
-0.070136
-0.0247105
-0.0688242
-0.0207949
-0.0673615
-0.0157491
-0.0653909
-0.00893472
-0.0617568
-0.0528732
6.45191e-06
-0.0649893
-0.0037022
-0.0654266
-0.00722107
-0.0657636
-0.0105002
-0.0659965
-0.0134737
-0.0660984
-0.0160708
-0.0660668
-0.0182204
-0.0659133
-0.019854
-0.0656435
-0.020906
-0.0652582
-0.0213117
-0.0647611
-0.0210088
-0.0641624
-0.0199406
-0.0634739
-0.018063
-0.0627002
-0.0153487
-0.0618099
-0.0116952
-0.0605223
-0.00673849
-0.0579447
-0.0506068
0.00343289
-0.0585257
0.000842788
-0.0587551
-0.00165827
-0.0589738
-0.00402229
-0.0591404
-0.00620308
-0.0592265
-0.00815073
-0.0592339
-0.00981637
-0.0591736
-0.0111531
-0.0590498
-0.0121146
-0.0588636
-0.0126546
-0.058619
-0.0127284
-0.0583255
-0.0122949
-0.057992
-0.0113223
-0.0576148
-0.00978825
-0.0571536
-0.00759557
-0.0564034
-0.00449455
-0.0546251
-0.0485847
0.00737759
-0.0536981
0.00582183
-0.0538273
0.00428404
-0.0539382
0.00278421
-0.0540271
0.00134983
-0.0540737
9.25603e-06
-0.054081
-0.00121004
-0.0540597
-0.00228092
-0.0540139
-0.0031757
-0.0539457
-0.00386629
-0.0538601
-0.00432613
-0.0537653
-0.00453219
-0.0536675
-0.00446814
-0.0535564
-0.00412174
-0.0533881
-0.00343039
-0.0530087
-0.00220455
-0.0518063
-0.0468021
0.0117872
-0.0506162
0.0112571
-0.0505692
0.0106474
-0.0505598
0.00996679
-0.0505541
0.00922604
-0.0505342
0.00843661
-0.0505041
0.00760862
-0.0504735
0.0067521
-0.0504466
0.00587762
-0.0504264
0.00499563
-0.050418
0.00411503
-0.0504281
0.00324089
-0.0504591
0.00237614
-0.0504989
0.00152113
-0.0505012
0.000713898
-0.0503494
5.85106e-05
-0.0494979
-0.0453088
0.0169176
-0.0489864
0.0173393
-0.0488604
0.0175968
-0.0487355
0.0176813
-0.0486295
0.0175869
-0.0485274
0.0173032
-0.0484291
0.0168212
-0.0483458
0.0161339
-0.0482836
0.0152344
-0.0482457
0.0141158
-0.0482371
0.0127696
-0.0482626
0.0111839
-0.0483209
0.00934549
-0.0483987
0.00724408
-0.0484514
0.0048947
-0.048388
0.0023447
-0.0476941
-0.0440899
0.0225834
-0.048978
0.0239598
-0.0486769
0.0250644
-0.0484239
0.0258782
-0.0482012
0.026378
-0.0479899
0.0265398
-0.0477892
0.0263407
-0.0476111
0.0257583
-0.0474621
0.0247699
-0.0473446
0.0233527
-0.0472628
0.0214828
-0.0472199
0.0191339
-0.0472116
0.0162809
-0.0472243
0.012902
-0.0472163
0.00900416
-0.0471235
0.00458598
-0.0464225
-0.0431856
0.0290558
-0.0502897
0.0313093
-0.0499354
0.0331889
-0.0495527
0.0346605
-0.0492033
0.0356905
-0.0488687
0.0362345
-0.0485369
0.0362509
-0.0482218
0.0357022
-0.0479338
0.034552
-0.047675
0.0327635
-0.0474482
0.0302997
-0.0472551
0.0271236
-0.0470898
0.0232014
-0.0469402
0.018505
-0.0467685
0.0130333
-0.0465354
0.00677511
-0.0457052
-0.0426287
0.0361347
-0.0531968
0.0392794
-0.0526626
0.0419356
-0.0521436
0.0440464
-0.051644
0.0455569
-0.0511466
0.0464168
-0.0506428
0.0465757
-0.0501458
0.0459835
-0.0496644
0.0445912
-0.0492002
0.0423513
-0.0487557
0.0392182
-0.0483319
0.0351481
-0.0479224
0.0301025
-0.0475176
0.0240505
-0.0470847
0.0169839
-0.0466032
0.00890231
-0.0455427
-0.0424445
0.0441199
-0.0573998
0.0480873
-0.0568197
0.051429
-0.0561433
0.0540869
-0.0554761
0.0560009
-0.0547975
0.0570993
-0.0540857
0.0573158
-0.0533572
0.0565905
-0.0526249
0.0548659
-0.0518896
0.0520869
-0.0511534
0.0482023
-0.0504179
0.0431665
-0.0496782
0.0369406
-0.0489278
0.0294966
-0.0481401
0.0208264
-0.0473105
0.0109489
-0.0459303
-0.0426533
0.0527194
-0.0632243
0.0575093
-0.0624489
0.0615435
-0.0616104
0.0647285
-0.0607394
0.066984
-0.0598259
0.0682392
-0.058855
0.068424
-0.0578404
0.0674704
-0.0567934
0.0653154
-0.0557158
0.061902
-0.0546109
0.0571797
-0.053482
0.0511057
-0.0523266
0.0436466
-0.0511421
0.0347826
-0.0499095
0.0245105
-0.0486349
0.0129094
-0.0468855
-0.0432502
0.0622047
-0.0703652
0.0677485
-0.0695325
0.0723688
-0.0684999
0.0759715
-0.0673945
0.0784774
-0.0662177
0.0797952
-0.0649378
0.0798442
-0.0635742
0.0785539
-0.0621432
0.075862
-0.0606486
0.0717137
-0.0590952
0.0660644
-0.0574892
0.0588816
-0.0558334
0.0501456
-0.0541306
0.0398558
-0.052373
0.0280239
-0.0505715
0.0147256
-0.0483488
-0.0442495
0.0722209
-0.0791772
0.078513
-0.078119
0.0837141
-0.0768721
0.0877028
-0.0754849
0.0903805
-0.0739764
0.0916636
-0.0723231
0.0914709
-0.0705397
0.0897325
-0.0686465
0.0863925
-0.066653
0.0814061
-0.0645664
0.0747412
-0.062397
0.0663826
-0.0601549
0.0563306
-0.0578489
0.0446039
-0.0554799
0.0312466
-0.0530745
0.0163493
-0.0502923
-0.0456656
0.0829728
-0.0893309
0.0899316
-0.0881785
0.0956025
-0.0866805
0.0998538
-0.0849621
0.102595
-0.0830758
0.103729
-0.0809811
0.103171
-0.0786984
0.10086
-0.076258
0.0967515
-0.0736769
0.0908147
-0.0709648
0.0830393
-0.0681408
0.0734358
-0.0652238
0.0620353
-0.0622317
0.0488909
-0.0591754
0.0340817
-0.0560963
0.0177323
-0.0526877
-0.0475039
0.0940431
-0.101179
0.101664
-0.0997497
0.107772
-0.0979505
0.112234
-0.0958426
0.11494
-0.0934923
0.115804
-0.0908705
0.114752
-0.0879977
0.111736
-0.0849136
0.106729
-0.0816451
0.0997267
-0.0782096
0.0907495
-0.0746362
0.0798438
-0.0709556
0.0670824
-0.0671979
0.0525646
-0.0633871
0.0364176
-0.059579
0.0188146
-0.0555006
-0.0497657
0.10555
-0.114364
0.113725
-0.112755
0.120152
-0.110607
0.12469
-0.108049
0.127232
-0.105162
0.127688
-0.10192
0.125998
-0.0983551
0.122133
-0.0945211
0.116093
-0.0904573
0.107908
-0.0861929
0.0976398
-0.0817707
0.0853838
-0.0772381
0.0712673
-0.0726415
0.0554504
-0.0680221
0.038123
-0.0634508
0.0195245
-0.058692
-0.0524533
0.116993
-0.129177
0.125726
-0.127209
0.132429
-0.124637
0.136964
-0.121541
0.13922
-0.11801
0.139128
-0.114036
0.136651
-0.109665
0.131787
-0.104961
0.124574
-0.0999822
0.115088
-0.0947745
0.103446
-0.0894007
0.0898054
-0.0839299
0.0743636
-0.0784303
0.057358
-0.0729664
0.0390571
-0.0676261
0.0197854
-0.0622177
-0.0555719
0.128433
-0.145216
0.137599
-0.142972
0.144446
-0.139912
0.148836
-0.136196
0.150663
-0.131919
0.149867
-0.127092
0.14644
-0.121784
0.140417
-0.116076
0.131884
-0.11005
0.120978
-0.103777
0.107884
-0.0973466
0.0928403
-0.0908576
0.0761322
-0.0844064
0.0580904
-0.0780871
0.039078
-0.0720071
0.0195248
-0.0660315
-0.0591249
0.139338
-0.162704
0.148932
-0.159998
0.15587
-0.156358
0.160013
-0.151906
0.16127
-0.146751
0.159611
-0.14093
0.155063
-0.134534
0.147713
-0.127671
0.137709
-0.120453
0.125265
-0.112987
0.110655
-0.105398
0.0942163
-0.0978219
0.0763382
-0.0903915
0.0574613
-0.0832365
0.0380595
-0.0764883
0.0186809
-0.0700811
-0.0631066
0.1497
-0.181178
0.159592
-0.178081
0.166481
-0.173784
0.17023
-0.168489
0.170758
-0.162321
0.168061
-0.155349
0.16221
-0.147697
0.153356
-0.139512
0.141728
-0.130947
0.127636
-0.122157
0.111465
-0.113314
0.0936682
-0.104601
0.0747584
-0.0961909
0.0553001
-0.0882566
0.0358894
-0.0809565
0.017195
-0.0743012
-0.0675071
0.158999
-0.20079
0.169183
-0.19711
0.175962
-0.192045
0.179197
-0.185765
0.178836
-0.178419
0.174917
-0.170115
0.167574
-0.16102
0.157038
-0.15133
0.14364
-0.141258
0.127807
-0.131016
0.110055
-0.120836
0.0909704
-0.110953
0.0712066
-0.101593
0.0514651
-0.0929733
0.032473
-0.0852848
0.0150209
-0.0786164
-0.0723101
0.167188
-0.221007
0.177537
-0.216813
0.184071
-0.210896
0.186648
-0.203496
0.185231
-0.194797
0.179903
-0.184962
0.170877
-0.174218
0.158485
-0.162833
0.143182
-0.151089
0.125535
-0.139273
0.106207
-0.127685
0.0859409
-0.116625
0.0655444
-0.106376
0.0458638
-0.0972048
0.0277601
-0.0893359
0.0121432
-0.0829398
-0.0774786
0.173772
-0.241907
0.184292
-0.237018
0.190513
-0.230121
0.1923
-0.22143
0.189654
-0.211179
0.182732
-0.199598
0.171837
-0.18699
0.157426
-0.173709
0.140098
-0.160126
0.120578
-0.146617
0.0997022
-0.133564
0.0783883
-0.121345
0.0576122
-0.110305
0.0383746
-0.100762
0.0216767
-0.0929796
0.00852165
-0.0871857
-0.0829988
0.178738
-0.2629
0.189305
-0.25739
0.195087
-0.249422
0.195936
-0.239276
0.191892
-0.227266
0.183187
-0.213712
0.170241
-0.199014
0.153654
-0.183631
0.13419
-0.168042
0.112761
-0.152728
0.0903945
-0.138174
0.0682001
-0.124839
0.0473321
-0.113143
0.0289506
-0.103452
0.0141977
-0.0960801
0.00415874
-0.0912828
-0.0888604
0.18168
-0.284032
0.192336
-0.277728
0.197624
-0.268541
0.197423
-0.256756
0.191834
-0.242768
0.181182
-0.227001
0.166018
-0.20997
0.14711
-0.192269
0.125418
-0.174505
0.102066
-0.157288
0.0782964
-0.141217
0.0554275
-0.126847
0.0348026
-0.114672
0.0177519
-0.105123
0.00552969
-0.0985383
-0.000767427
-0.0951384
-0.0949061
-0.504049
-0.0582053
0.516512
-0.489135
-0.0705576
-0.471302
-0.0833245
-0.45132
-0.0962893
-0.428892
-0.109177
-0.404776
-0.121729
-0.378817
-0.133676
-0.351711
-0.144749
-0.323421
-0.154695
-0.294524
-0.1633
-0.265064
-0.170339
-0.235489
-0.175653
-0.205881
-0.179084
-0.176561
-0.180532
-0.147623
-0.179913
-0.119264
-0.177191
-0.0915792
-0.172357
-0.064662
-0.165439
-0.0385974
-0.156489
-0.0134035
-0.145595
0.010861
-0.132874
0.0342115
-0.118469
0.0565961
-0.102585
0.0780384
-0.0854048
0.0985212
-0.0671502
0.118033
-0.048071
0.13659
-0.0284198
0.154141
-0.00848477
0.17073
0.011453
0.186256
0.0310854
0.200793
0.0501305
0.214204
0.0682658
0.226585
0.0852612
0.237769
0.100792
0.247885
0.114707
0.256741
0.126702
0.264522
0.13674
0.271021
0.144554
0.276498
0.150252
0.280717
0.153622
0.154904
-0.496286
-0.0796611
0.507203
-0.482422
-0.0914765
-0.465764
-0.10363
-0.44654
-0.115883
-0.424993
-0.127987
-0.401414
-0.139673
-0.376102
-0.150692
-0.349373
-0.160782
-0.321531
-0.169711
-0.292897
-0.177256
-0.263747
-0.183234
-0.234358
-0.187477
-0.204965
-0.189862
-0.175785
-0.190286
-0.146996
-0.188692
-0.118755
-0.185047
-0.0911792
-0.179358
-0.0643681
-0.171658
-0.0383901
-0.162013
-0.0132944
-0.150513
0.0108834
-0.13728
0.0341237
-0.12246
0.0564073
-0.106252
0.0777329
-0.088852
0.0980924
-0.0704712
0.117476
-0.0513564
0.135879
-0.0317644
0.153283
-0.01197
0.169674
0.00773977
0.185022
0.0270728
0.199307
0.0457381
0.212479
0.0634425
0.22453
0.0799211
0.235397
0.0949037
0.24509
0.10818
0.253543
0.11953
0.260796
0.128822
0.26679
0.135906
0.271611
0.140763
0.275209
0.143341
0.143707
-0.482321
-0.100141
0.49123
-0.470239
-0.111425
-0.45517
-0.122954
-0.437337
-0.134506
-0.417015
-0.145825
-0.3945
-0.156658
-0.370122
-0.166756
-0.344205
-0.175875
-0.317081
-0.183796
-0.289067
-0.19031
-0.260468
-0.195247
-0.231562
-0.198459
-0.202603
-0.199833
-0.173811
-0.199287
-0.145375
-0.196772
-0.117455
-0.192272
-0.0901797
-0.185802
-0.0636484
-0.177407
-0.0379369
-0.167158
-0.0130986
-0.155155
0.0108289
-0.14152
0.0338223
-0.126406
0.0558609