/*--------------------------------*- C++ -*----------------------------------*\
  =========                 |
  \\      /  F ield         | OpenFOAM: The Open Source CFD Toolbox
   \\    /   O peration     | Website:  https://openfoam.org
    \\  /    A nd           | Version:  6
     \\/     M anipulation  |
\*---------------------------------------------------------------------------*/
FoamFile
{
    version     2.0;
    format      ascii;
    class       volScalarField;
    location    "3.3";
    object      rho;
}
// * * * * * * * * * * * * * * * * * * * * * * * * * * * * * * * * * * * * * //

dimensions      [1 -3 0 0 0 0 0];

internalField   nonuniform List<scalar> 
10000
(
1.40001
1.40001
1.40001
1.40001
1.40001
1.40001
1.40001
1.40001
1.40001
1.4
1.40001
1.4
1.40001
1.4
1.40001
1.4
1.40001
1.4
1.40001
1.4
1.40001
1.4
1.40001
1.4
1.40001
1.4
1.40001
1.40001
1.4
1.40001
1.4
1.40001
1.40001
1.40001
1.40001
1.40001
1.40001
1.40001
1.40001
1.40001
1.40001
1.40001
1.40001
1.40001
1.40001
1.4
1.4
1.4
1.4
1.39999
1.39999
1.39998
1.39998
1.39997
1.39997
1.39996
1.39996
1.39996
1.39997
1.39998
1.39999
1.4
1.40002
1.40003
1.40005
1.40006
1.40007
1.40007
1.40007
1.40007
1.40006
1.40005
1.40004
1.40003
1.40002
1.40001
1.4
1.4
1.39999
1.39999
1.39999
1.39999
1.4
1.4
1.4
1.4
1.4
1.4
1.4
1.4
1.4
1.4
1.4
1.4
1.40001
1.40001
1.40001
1.40001
1.40001
1.40001
1.40001
1.40001
1.40001
1.40001
1.40001
1.40001
1.40001
1.40001
1.40001
1.4
1.40001
1.40001
1.40001
1.40001
1.4
1.40001
1.40001
1.40001
1.4
1.40001
1.4
1.40001
1.4
1.40001
1.4
1.40001
1.4
1.40001
1.40001
1.4
1.40001
1.40001
1.40001
1.4
1.40001
1.40001
1.40001
1.40001
1.40001
1.40001
1.40001
1.40001
1.40001
1.40001
1.40001
1.4
1.4
1.4
1.4
1.39999
1.39998
1.39998
1.39997
1.39996
1.39996
1.39995
1.39995
1.39995
1.39996
1.39997
1.39998
1.4
1.40002
1.40004
1.40005
1.40007
1.40008
1.40009
1.40009
1.40008
1.40007
1.40007
1.40005
1.40004
1.40003
1.40001
1.40001
1.4
1.4
1.39999
1.39999
1.39999
1.39999
1.4
1.4
1.4
1.4
1.4
1.4
1.4
1.4
1.4
1.4
1.4
1.4
1.4
1.40001
1.40001
1.40001
1.40001
1.40001
1.40001
1.40001
1.40001
1.40001
1.40001
1.40001
1.40001
1.40001
1.40001
1.40001
1.40001
1.4
1.40001
1.4
1.40001
1.4
1.40001
1.4
1.40001
1.4
1.40001
1.4
1.40001
1.4
1.40001
1.4
1.40001
1.40001
1.4
1.40001
1.40001
1.40001
1.4
1.40001
1.40001
1.40001
1.40001
1.40001
1.40001
1.40001
1.40001
1.40001
1.40001
1.40001
1.40001
1.4
1.4
1.39999
1.39999
1.39998
1.39997
1.39996
1.39995
1.39994
1.39994
1.39994
1.39994
1.39995
1.39996
1.39997
1.39999
1.40001
1.40004
1.40006
1.40008
1.40009
1.4001
1.40011
1.4001
1.4001
1.40008
1.40007
1.40006
1.40004
1.40003
1.40001
1.4
1.4
1.39999
1.39999
1.39999
1.39999
1.39999
1.4
1.4
1.4
1.4
1.4
1.4
1.4
1.4
1.4
1.4
1.4
1.4
1.40001
1.40001
1.40001
1.40001
1.40001
1.40001
1.40001
1.40001
1.40001
1.40001
1.40001
1.40001
1.40001
1.40001
1.4
1.40001
1.4
1.40001
1.40001
1.4
1.40001
1.40001
1.40001
1.40001
1.40001
1.4
1.40001
1.4
1.4
1.40001
1.4
1.40001
1.40001
1.4
1.40001
1.40001
1.40001
1.4
1.40001
1.40001
1.40001
1.40001
1.40001
1.40001
1.40001
1.40001
1.40001
1.40001
1.40001
1.40001
1.4
1.4
1.39999
1.39998
1.39997
1.39996
1.39995
1.39994
1.39993
1.39993
1.39992
1.39993
1.39994
1.39995
1.39997
1.39999
1.40001
1.40004
1.40006
1.40009
1.4001
1.40012
1.40013
1.40013
1.40012
1.40011
1.40009
1.40008
1.40006
1.40004
1.40002
1.40001
1.4
1.39999
1.39999
1.39999
1.39999
1.39999
1.39999
1.4
1.4
1.4
1.4
1.4
1.4
1.4
1.4
1.4
1.4
1.4
1.4
1.40001
1.40001
1.40001
1.40001
1.40001
1.40001
1.40001
1.40001
1.40001
1.40001
1.40001
1.4
1.40001
1.4
1.40001
1.4
1.40001
1.40001
1.4
1.40001
1.4
1.40001
1.4
1.40001
1.4
1.40001
1.4
1.4
1.40001
1.40001
1.4
1.40001
1.40001
1.4
1.40001
1.40001
1.40001
1.40001
1.40001
1.40001
1.40001
1.40001
1.40001
1.40001
1.40002
1.40002
1.40002
1.40002
1.40001
1.40001
1.4
1.39999
1.39998
1.39996
1.39995
1.39994
1.39993
1.39992
1.39991
1.39991
1.39992
1.39993
1.39994
1.39996
1.39998
1.40001
1.40004
1.40007
1.4001
1.40012
1.40014
1.40015
1.40015
1.40015
1.40014
1.40012
1.4001
1.40008
1.40006
1.40004
1.40002
1.40001
1.4
1.39999
1.39999
1.39999
1.39999
1.39999
1.39999
1.4
1.4
1.4
1.4
1.4
1.4
1.4
1.4
1.4
1.4
1.4
1.40001
1.40001
1.40001
1.40001
1.40001
1.40001
1.40001
1.40001
1.40001
1.40001
1.40001
1.4
1.40001
1.4
1.40001
1.4
1.40001
1.4
1.40001
1.4
1.4
1.40001
1.4
1.4
1.40001
1.4
1.40001
1.4
1.4
1.40001
1.4
1.40001
1.40001
1.4
1.40001
1.40001
1.40001
1.40001
1.40001
1.40001
1.40001
1.40002
1.40002
1.40002
1.40003
1.40003
1.40003
1.40003
1.40002
1.40001
1.4
1.39999
1.39997
1.39996
1.39994
1.39993
1.39992
1.39991
1.3999
1.39991
1.39991
1.39992
1.39994
1.39996
1.39998
1.40001
1.40004
1.40008
1.40011
1.40014
1.40016
1.40017
1.40018
1.40018
1.40017
1.40016
1.40014
1.40011
1.40009
1.40006
1.40004
1.40002
1.4
1.39999
1.39999
1.39999
1.39999
1.39999
1.39999
1.39999
1.4
1.4
1.4
1.4
1.4
1.4
1.4
1.4
1.4
1.4
1.4
1.40001
1.40001
1.40001
1.40001
1.40001
1.40001
1.40001
1.40001
1.4
1.40001
1.4
1.40001
1.40001
1.40001
1.40001
1.4
1.40001
1.40001
1.4
1.40001
1.4
1.40001
1.4
1.40001
1.4
1.40001
1.40001
1.4
1.4
1.40001
1.4
1.40001
1.40001
1.40001
1.40001
1.40001
1.40001
1.40001
1.40002
1.40002
1.40003
1.40004
1.40004
1.40005
1.40005
1.40005
1.40004
1.40004
1.40002
1.40001
1.39999
1.39997
1.39995
1.39994
1.39992
1.39991
1.39991
1.3999
1.39991
1.39991
1.39992
1.39994
1.39996
1.39999
1.40002
1.40005
1.40009
1.40012
1.40016
1.40018
1.4002
1.40022
1.40022
1.40022
1.4002
1.40018
1.40015
1.40012
1.40009
1.40006
1.40004
1.40002
1.4
1.39999
1.39999
1.39998
1.39998
1.39999
1.39999
1.39999
1.4
1.4
1.4
1.4
1.4
1.4
1.4
1.4
1.4
1.4
1.40001
1.40001
1.40001
1.40001
1.40001
1.40001
1.40001
1.40001
1.40001
1.40001
1.40001
1.40001
1.40001
1.4
1.40001
1.4
1.40001
1.4
1.40001
1.40001
1.4
1.40001
1.4
1.40001
1.40001
1.4
1.40001
1.4
1.4
1.40001
1.4
1.40001
1.40001
1.40001
1.40001
1.40002
1.40002
1.40002
1.40003
1.40004
1.40005
1.40006
1.40007
1.40008
1.40008
1.40008
1.40007
1.40006
1.40004
1.40002
1.4
1.39998
1.39996
1.39994
1.39993
1.39992
1.39992
1.39992
1.39992
1.39993
1.39994
1.39996
1.39998
1.40001
1.40004
1.40007
1.40011
1.40015
1.40018
1.40021
1.40024
1.40026
1.40027
1.40026
1.40025
1.40023
1.4002
1.40017
1.40013
1.4001
1.40007
1.40004
1.40001
1.39999
1.39999
1.39998
1.39998
1.39998
1.39999
1.39999
1.39999
1.4
1.4
1.4
1.4
1.4
1.4
1.4
1.4
1.4
1.4
1.40001
1.40001
1.40001
1.40001
1.40001
1.40001
1.40001
1.40001
1.40001
1.4
1.40001
1.4
1.40001
1.4
1.40001
1.4
1.4
1.40001
1.4
1.40001
1.40001
1.40001
1.4
1.40001
1.4
1.4
1.40001
1.40001
1.4
1.40001
1.40001
1.40001
1.40001
1.40002
1.40003
1.40003
1.40004
1.40006
1.40007
1.40009
1.4001
1.40011
1.40012
1.40012
1.40012
1.40011
1.40009
1.40007
1.40005
1.40003
1.4
1.39999
1.39997
1.39996
1.39995
1.39995
1.39996
1.39996
1.39997
1.39999
1.4
1.40002
1.40005
1.40008
1.40011
1.40015
1.40018
1.40022
1.40025
1.40029
1.40031
1.40032
1.40032
1.40032
1.4003
1.40026
1.40023
1.40019
1.40014
1.40011
1.40007
1.40003
1.40001
1.39999
1.39998
1.39997
1.39998
1.39998
1.39998
1.39999
1.39999
1.4
1.4
1.4
1.4
1.4
1.4
1.4
1.4
1.4
1.40001
1.40001
1.40001
1.40001
1.40001
1.40001
1.40001
1.4
1.40001
1.4
1.40001
1.4
1.40001
1.4
1.40001
1.4
1.40001
1.4
1.4
1.40001
1.4
1.40001
1.4
1.40001
1.4
1.4
1.40001
1.4
1.4
1.40001
1.40001
1.40002
1.40002
1.40003
1.40004
1.40006
1.40008
1.4001
1.40012
1.40014
1.40016
1.40018
1.40019
1.40019
1.40018
1.40017
1.40015
1.40012
1.4001
1.40008
1.40006
1.40005
1.40003
1.40003
1.40003
1.40003
1.40004
1.40004
1.40005
1.40007
1.40008
1.4001
1.40011
1.40014
1.40017
1.4002
1.40024
1.40027
1.40031
1.40035
1.40037
1.40039
1.4004
1.40039
1.40037
1.40035
1.40031
1.40025
1.4002
1.40015
1.40011
1.40007
1.40003
1.4
1.39998
1.39997
1.39997
1.39997
1.39998
1.39998
1.39999
1.39999
1.4
1.4
1.4
1.4
1.4
1.4
1.4
1.4
1.40001
1.4
1.40001
1.40001
1.40001
1.40001
1.40001
1.40001
1.40001
1.4
1.40001
1.4
1.40001
1.40001
1.4
1.4
1.40001
1.4
1.40001
1.40001
1.4
1.4
1.40001
1.4
1.4
1.40001
1.40001
1.4
1.40001
1.40001
1.40002
1.40002
1.40004
1.40005
1.40007
1.4001
1.40013
1.40016
1.40019
1.40022
1.40025
1.40027
1.40028
1.40028
1.40027
1.40025
1.40023
1.40021
1.40019
1.40018
1.40017
1.40016
1.40016
1.40016
1.40016
1.40017
1.40018
1.40019
1.40019
1.4002
1.40021
1.40022
1.40023
1.40025
1.40027
1.4003
1.40032
1.40037
1.4004
1.40042
1.40046
1.40049
1.40049
1.40048
1.40048
1.40045
1.4004
1.40036
1.40029
1.40022
1.40016
1.40011
1.40007
1.40003
1.4
1.39998
1.39997
1.39996
1.39997
1.39997
1.39998
1.39999
1.39999
1.4
1.4
1.4
1.4
1.4
1.4
1.4
1.40001
1.4
1.40001
1.40001
1.4
1.40001
1.4
1.40001
1.4
1.40001
1.4
1.40001
1.4
1.40001
1.4
1.40001
1.4
1.40001
1.40001
1.4
1.40001
1.40001
1.40001
1.39999
1.40002
1.40001
1.4
1.40001
1.40002
1.40002
1.40003
1.40003
1.40006
1.40009
1.40012
1.40016
1.40021
1.40025
1.40029
1.40034
1.40037
1.40039
1.4004
1.4004
1.40039
1.40038
1.40037
1.40036
1.40035
1.40035
1.40036
1.40037
1.40038
1.40039
1.4004
1.40041
1.40042
1.40042
1.40042
1.40042
1.40042
1.40042
1.40042
1.40042
1.40043
1.40044
1.40047
1.4005
1.40051
1.40056
1.40059
1.40058
1.40062
1.40064
1.4006
1.40055
1.40053
1.40049
1.40041
1.40033
1.40025
1.40017
1.40011
1.40006
1.40002
1.4
1.39998
1.39996
1.39996
1.39997
1.39997
1.39998
1.39999
1.39999
1.4
1.4
1.4
1.4
1.4
1.4
1.4
1.40001
1.4
1.40001
1.4
1.40001
1.4
1.40001
1.4
1.40001
1.4
1.40001
1.4
1.40001
1.4
1.40001
1.4
1.40001
1.4
1.4
1.40001
1.40001
1.39999
1.40002
1.40001
1.4
1.4
1.40002
1.40002
1.40003
1.40003
1.40007
1.40009
1.40015
1.40018
1.40024
1.4003
1.40037
1.40043
1.40048
1.40052
1.40054
1.40056
1.40056
1.40057
1.40057
1.40058
1.4006
1.40062
1.40065
1.40068
1.40072
1.40075
1.40077
1.40079
1.40079
1.4008
1.4008
1.40078
1.40077
1.40075
1.40073
1.40071
1.40069
1.40067
1.40069
1.40069
1.40066
1.40073
1.40076
1.40072
1.40078
1.40081
1.40077
1.40076
1.40076
1.4007
1.40061
1.40056
1.40047
1.40038
1.40028
1.40018
1.40011
1.40005
1.40001
1.39998
1.39997
1.39996
1.39996
1.39997
1.39998
1.39998
1.39999
1.4
1.4
1.4
1.4
1.4
1.4
1.4
1.40001
1.4
1.40001
1.40001
1.40001
1.40001
1.4
1.40001
1.4
1.40001
1.4
1.40001
1.4
1.40001
1.4
1.40001
1.40001
1.4
1.40001
1.40001
1.39999
1.40001
1.40002
1.39999
1.4
1.40002
1.40002
1.40002
1.40004
1.40006
1.40011
1.40015
1.4002
1.40028
1.40035
1.40043
1.40051
1.40058
1.40064
1.40069
1.40074
1.40077
1.4008
1.40084
1.40088
1.40093
1.401
1.40107
1.40115
1.40122
1.40128
1.40134
1.40137
1.40139
1.40139
1.40138
1.40136
1.40132
1.40128
1.40124
1.40119
1.40114
1.40108
1.40108
1.40104
1.40096
1.40103
1.40103
1.40094
1.40104
1.40106
1.40098
1.401
1.40104
1.40099
1.40088
1.40084
1.40076
1.40065
1.40054
1.40041
1.40031
1.4002
1.40009
1.40003
1.4
1.39997
1.39996
1.39996
1.39997
1.39997
1.39998
1.39999
1.39999
1.4
1.4
1.4
1.4
1.4
1.4
1.4
1.40001
1.4
1.40001
1.4
1.40001
1.4
1.40001
1.4
1.40001
1.4
1.40001
1.4
1.40001
1.4
1.40001
1.4
1.40001
1.40002
1.39999
1.4
1.40003
1.39998
1.40001
1.40001
1.40004
1.4
1.40005
1.40005
1.40012
1.40013
1.40024
1.40027
1.4004
1.40047
1.40058
1.40068
1.40077
1.40084
1.40092
1.40099
1.40106
1.40115
1.40124
1.40136
1.40149
1.40163
1.40178
1.40192
1.40205
1.40216
1.40223
1.40228
1.4023
1.40229
1.40225
1.4022
1.40213
1.40205
1.40197
1.40188
1.40176
1.40172
1.40164
1.40147
1.40153
1.40151
1.40133
1.40145
1.40143
1.4013
1.40139
1.4014
1.40132
1.40123
1.40123
1.40117
1.40102
1.40089
1.40073
1.40062
1.40048
1.40031
1.40021
1.40011
1.40002
1.39997
1.39996
1.39995
1.39996
1.39996
1.39997
1.39998
1.39999
1.4
1.4
1.4
1.4
1.4
1.4
1.4
1.4
1.40001
1.40001
1.4
1.40001
1.4
1.40001
1.4
1.4
1.40001
1.4
1.40001
1.4
1.40001
1.4
1.4
1.40002
1.4
1.39999
1.40004
1.39999
1.39999
1.40003
1.40002
1.4
1.40003
1.40005
1.40011
1.40013
1.40021
1.40029
1.40039
1.4005
1.40064
1.40075
1.40086
1.40098
1.40109
1.40121
1.40134
1.40149
1.40166
1.40187
1.4021
1.40235
1.40262
1.40287
1.4031
1.4033
1.40346
1.40356
1.40362
1.40363
1.40359
1.40352
1.40341
1.4033
1.40315
1.40301
1.40285
1.40274
1.4026
1.40236
1.40237
1.40228
1.40199
1.40213
1.40205
1.40181
1.40198
1.40194
1.4018
1.40173
1.40173
1.40169
1.40151
1.40139
1.40123
1.40108
1.40087
1.40064
1.40052
1.40035
1.40018
1.40009
1.40002
1.39996
1.39994
1.39994
1.39995
1.39996
1.39998
1.39999
1.39999
1.4
1.4
1.4
1.4
1.4
1.40001
1.4
1.4
1.40001
1.4
1.40001
1.40001
1.4
1.40001
1.4
1.40001
1.4
1.40001
1.4
1.40001
1.39999
1.40002
1.4
1.39999
1.40002
1.40001
1.39997
1.40005
1.40001
1.40001
1.39999
1.40009
1.40004
1.40016
1.40014
1.40031
1.40033
1.40055
1.4006
1.40081
1.40091
1.40108
1.40123
1.40141
1.4016
1.40184
1.40212
1.40244
1.40281
1.40322
1.40364
1.40407
1.40446
1.40482
1.40511
1.40532
1.40547
1.40553
1.40552
1.40544
1.40532
1.40514
1.40493
1.40474
1.40448
1.40428
1.40409
1.40374
1.40367
1.40354
1.4031
1.4032
1.40307
1.40268
1.40291
1.40277
1.40254
1.40254
1.40248
1.40241
1.40218
1.40206
1.40192
1.40172
1.40149
1.40121
1.40102
1.40074
1.40047
1.40034
1.40019
1.40006
1.39999
1.39996
1.39994
1.39995
1.39996
1.39997
1.39998
1.39999
1.4
1.4
1.4
1.4
1.4
1.4
1.40001
1.4
1.40001
1.40001
1.4
1.40001
1.4
1.40001
1.40001
1.4
1.40001
1.4
1.40001
1.4
1.40001
1.40002
1.39999
1.40002
1.40002
1.39996
1.40004
1.40001
1.4
1.39998
1.40008
1.40004
1.40011
1.40012
1.40026
1.40031
1.40047
1.4006
1.40077
1.40093
1.40113
1.40134
1.40156
1.40185
1.40216
1.40257
1.40304
1.40359
1.40419
1.40484
1.4055
1.40613
1.40672
1.40722
1.40763
1.40793
1.40811
1.40818
1.40813
1.40801
1.40779
1.40754
1.40723
1.40692
1.40657
1.40629
1.40586
1.40564
1.40543
1.40485
1.40488
1.40469
1.40408
1.40435
1.40412
1.40371
1.4038
1.40362
1.40347
1.40323
1.40309
1.40293
1.40261
1.40235
1.40205
1.4018
1.40142
1.40106
1.40083
1.40052
1.40027
1.40014
1.40004
1.39997
1.39995
1.39994
1.39995
1.39996
1.39998
1.39998
1.39999
1.4
1.4
1.4
1.4
1.4
1.40001
1.40001
1.4
1.40001
1.4
1.40001
1.40001
1.4
1.40001
1.4
1.40001
1.40001
1.4
1.4
1.40002
1.39999
1.40002
1.40001
1.39999
1.4
1.40005
1.39997
1.4
1.40005
1.40006
1.40003
1.40015
1.40013
1.40035
1.40032
1.40061
1.40062
1.40097
1.40105
1.40141
1.40164
1.40201
1.40243
1.40297
1.4036
1.40435
1.40521
1.40613
1.40709
1.40805
1.40896
1.40978
1.41048
1.41103
1.41142
1.41166
1.41172
1.41164
1.41146
1.41114
1.41078
1.41036
1.40987
1.40949
1.40894
1.40851
1.40825
1.40751
1.40736
1.40715
1.40631
1.40652
1.40621
1.40555
1.40575
1.40543
1.40515
1.40492
1.40463
1.40444
1.40399
1.4037
1.40334
1.4029
1.40243
1.402
1.40168
1.40119
1.40078
1.40053
1.40027
1.40008
1.39999
1.39994
1.39992
1.39993
1.39995
1.39996
1.39998
1.39999
1.4
1.4
1.4
1.40001
1.40001
1.4
1.40001
1.4
1.4
1.40001
1.4
1.40001
1.4
1.4
1.40001
1.4
1.40001
1.4
1.40001
1.4
1.39999
1.40003
1.39998
1.4
1.40005
1.39997
1.40001
1.40001
1.40009
1.39996
1.40013
1.40008
1.40025
1.40027
1.40047
1.40058
1.40082
1.40105
1.40133
1.40166
1.40209
1.40261
1.40325
1.40408
1.40503
1.40615
1.40739
1.40872
1.41007
1.41141
1.41266
1.41377
1.41471
1.41545
1.41596
1.41626
1.41633
1.41623
1.41596
1.41555
1.41505
1.41449
1.4139
1.41328
1.41262
1.41221
1.41138
1.41095
1.41073
1.40965
1.40968
1.40938
1.40842
1.40868
1.40821
1.4077
1.40756
1.4071
1.4068
1.40617
1.40573
1.40532
1.40466
1.40408
1.40349
1.40292
1.40223
1.40167
1.40128
1.40081
1.40044
1.40021
1.40004
1.39995
1.39992
1.39992
1.39993
1.39995
1.39997
1.39998
1.39999
1.4
1.4
1.4
1.40001
1.4
1.4
1.40001
1.4
1.40001
1.4
1.4
1.40001
1.4
1.40001
1.40001
1.4
1.40001
1.4
1.39999
1.40003
1.39998
1.40001
1.40001
1.40003
1.39995
1.40005
1.40004
1.39999
1.40004
1.40009
1.40014
1.40025
1.40026
1.40057
1.40058
1.40103
1.40112
1.40169
1.40199
1.40271
1.40339
1.40439
1.40551
1.40691
1.40846
1.41018
1.41201
1.41384
1.41563
1.41728
1.41875
1.41999
1.42095
1.42162
1.422
1.4221
1.42199
1.42163
1.42114
1.42052
1.41981
1.41909
1.41824
1.41763
1.41678
1.41596
1.41569
1.41451
1.4142
1.41394
1.41265
1.41283
1.41234
1.41152
1.41145
1.41075
1.41035
1.4097
1.40901
1.40842
1.40743
1.40667
1.4059
1.40501
1.40405
1.40321
1.40252
1.40175
1.40115
1.40073
1.40037
1.40013
1.4
1.39993
1.39991
1.39992
1.39994
1.39996
1.39998
1.39999
1.4
1.4
1.4
1.4
1.40001
1.4
1.40001
1.4
1.4
1.40001
1.4
1.40001
1.40001
1.4
1.40001
1.4
1.40001
1.4
1.40001
1.40001
1.39998
1.40003
1.4
1.39998
1.40003
1.40003
1.40002
1.39993
1.40015
1.40002
1.40021
1.40015
1.40039
1.40051
1.40076
1.40105
1.40141
1.40193
1.40258
1.40339
1.40446
1.40577
1.40735
1.40921
1.4113
1.4136
1.41598
1.41837
1.42068
1.4228
1.42468
1.42625
1.42747
1.42833
1.42882
1.42899
1.42885
1.42848
1.42793
1.42721
1.4264
1.42551
1.42467
1.4238
1.42273
1.42229
1.42114
1.42037
1.42015
1.41872
1.41863
1.41812
1.41698
1.41706
1.4163
1.41567
1.41499
1.41401
1.41329
1.41201
1.41086
1.40969
1.40833
1.40708
1.40587
1.40474
1.40353
1.40251
1.40174
1.40105
1.40055
1.40023
1.40003
1.39993
1.3999
1.39991
1.39993
1.39995
1.39997
1.39999
1.39999
1.4
1.4
1.4
1.40001
1.40001
1.4
1.40001
1.4
1.40001
1.40001
1.4
1.40001
1.4
1.4
1.40001
1.4
1.40001
1.40001
1.39998
1.40004
1.39998
1.40002
1.39996
1.4001
1.39995
1.39997
1.40008
1.40004
1.40009
1.40007
1.40025
1.40039
1.40049
1.4009
1.4011
1.40178
1.40223
1.40329
1.40422
1.40575
1.40738
1.40951
1.41188
1.41462
1.41752
1.42054
1.42356
1.42643
1.42906
1.43137
1.43328
1.43478
1.43582
1.43643
1.43668
1.43658
1.43625
1.43566
1.43491
1.43409
1.43318
1.43229
1.43119
1.43049
1.42951
1.42841
1.42816
1.42678
1.42634
1.42599
1.42459
1.42457
1.42385
1.42314
1.4227
1.42149
1.42055
1.41903
1.41746
1.41587
1.41384
1.41203
1.41018
1.4084
1.40665
1.40504
1.40372
1.4025
1.40154
1.40086
1.40037
1.40008
1.39994
1.39989
1.39988
1.39991
1.39994
1.39996
1.39998
1.39999
1.39999
1.40001
1.40001
1.4
1.40001
1.4
1.40001
1.40001
1.4
1.40001
1.4
1.4
1.40001
1.4
1.40001
1.4
1.40001
1.4
1.40001
1.40002
1.39998
1.40001
1.40004
1.4
1.39993
1.40004
1.40011
1.39991
1.40012
1.40006
1.40031
1.40032
1.40056
1.40095
1.40131
1.40204
1.40276
1.40391
1.40531
1.40706
1.40926
1.41183
1.41485
1.41822
1.42181
1.42551
1.42916
1.43262
1.43575
1.43845
1.44067
1.44237
1.44355
1.44428
1.4446
1.44459
1.44428
1.44377
1.44311
1.44236
1.44157
1.44062
1.43984
1.43907
1.43794
1.43762
1.43657
1.43582
1.43559
1.43429
1.43423
1.43357
1.43256
1.43241
1.43155
1.43091
1.42957
1.42768
1.42569
1.42297
1.42036
1.41755
1.41467
1.41202
1.40949
1.4073
1.40531
1.40362
1.40232
1.40132
1.40063
1.40021
1.39997
1.39987
1.39986
1.39988
1.39992
1.39995
1.39997
1.39999
1.39999
1.4
1.40001
1.4
1.4
1.40001
1.4
1.40001
1.4
1.4
1.40001
1.4
1.4
1.40001
1.4
1.40001
1.4
1.4
1.40002
1.39997
1.40003
1.4
1.40006
1.39987
1.4001
1.40004
1.39993
1.40002
1.40005
1.40019
1.40013
1.40039
1.40067
1.40096
1.40158
1.40221
1.40337
1.40456
1.4064
1.40842
1.4112
1.41423
1.41792
1.42192
1.42624
1.43062
1.43489
1.43889
1.44243
1.44541
1.4478
1.44956
1.45078
1.45153
1.45188
1.45193
1.45169
1.45132
1.45082
1.45023
1.44964
1.44902
1.44847
1.4477
1.4474
1.44679
1.44608
1.44608
1.44516
1.44504
1.44478
1.44391
1.44394
1.4433
1.44304
1.44272
1.4416
1.44007
1.43719
1.43386
1.42999
1.42562
1.42153
1.41748
1.4138
1.41053
1.40761
1.40527
1.40338
1.40197
1.40101
1.40038
1.40004
1.39988
1.39984
1.39986
1.39989
1.39994
1.39996
1.39998
1.4
1.39999
1.4
1.40001
1.4
1.40001
1.40001
1.4
1.40001
1.4
1.40001
1.40001
1.4
1.40001
1.4
1.40001
1.4
1.40002
1.39999
1.40001
1.40002
1.40001
1.39995
1.40003
1.40009
1.39991
1.39996
1.40013
1.39998
1.40013
1.40013
1.40041
1.40069
1.40097
1.40182
1.40243
1.40384
1.40526
1.40733
1.40987
1.41297
1.41665
1.42084
1.42557
1.43056
1.43557
1.44041
1.44483
1.44863
1.45168
1.45398
1.45561
1.45667
1.45727
1.45753
1.45754
1.45736
1.45705
1.45675
1.45642
1.45614
1.45593
1.4556
1.45551
1.45546
1.45517
1.45549
1.45525
1.45524
1.45538
1.45492
1.45534
1.45513
1.45478
1.45489
1.4548
1.45493
1.45388
1.45166
1.44812
1.44297
1.43743
1.43143
1.42547
1.42008
1.41516
1.41102
1.40761
1.40491
1.40292
1.40153
1.40065
1.40015
1.39992
1.39983
1.39984
1.39988
1.39992
1.39996
1.39997
1.39999
1.4
1.4
1.4
1.40001
1.4
1.40001
1.4
1.4
1.40001
1.4
1.40001
1.40001
1.4
1.40001
1.4
1.40001
1.40001
1.39999
1.40003
1.39999
1.39998
1.39999
1.40011
1.39986
1.40003
1.40006
1.39999
1.40001
1.40003
1.40026
1.40029
1.40065
1.40114
1.40179
1.40282
1.40406
1.40594
1.40817
1.41112
1.41459
1.41883
1.4235
1.42889
1.4345
1.44011
1.44538
1.45006
1.4539
1.45673
1.45867
1.45987
1.4605
1.46074
1.46071
1.46052
1.46021
1.45989
1.4597
1.45962
1.4596
1.4597
1.45994
1.46031
1.46064
1.4613
1.46168
1.46196
1.46252
1.46255
1.46307
1.46329
1.46316
1.46339
1.46339
1.46406
1.46506
1.46589
1.46573
1.46313
1.45866
1.45229
1.44446
1.43655
1.42882
1.42183
1.41591
1.41099
1.40717
1.40431
1.40233
1.40108
1.40034
1.39998
1.39984
1.39982
1.39986
1.3999
1.39994
1.39997
1.39998
1.4
1.4
1.4
1.40001
1.4
1.4
1.40001
1.4
1.40001
1.40001
1.4
1.40001
1.4
1.40001
1.4
1.40001
1.39999
1.40003
1.39999
1.39998
1.40002
1.40005
1.39992
1.39998
1.40007
1.39997
1.39993
1.40007
1.40001
1.4002
1.40032
1.40064
1.40122
1.4017
1.40308
1.40424
1.40645
1.40885
1.41203
1.41598
1.42056
1.42578
1.43165
1.4379
1.44399
1.44957
1.45432
1.45793
1.46025
1.46152
1.462
1.46193
1.46156
1.46098
1.46034
1.45968
1.45913
1.45885
1.45882
1.45897
1.45934
1.45992
1.46057
1.4614
1.46224
1.46297
1.46392
1.46441
1.46478
1.46498
1.46495
1.46539
1.46555
1.46572
1.4665
1.46832
1.47124
1.47363
1.47457
1.47265
1.46713
1.45933
1.44995
1.44
1.43069
1.42244
1.41559
1.41022
1.40624
1.40348
1.40169
1.40063
1.40009
1.39987
1.39982
1.39984
1.39989
1.39993
1.39997
1.39998
1.39999
1.4
1.40001
1.4
1.40001
1.4
1.40001
1.40001
1.4
1.40001
1.4
1.40001
1.40001
1.4
1.40001
1.4
1.40001
1.40002
1.39996
1.40004
1.40003
1.39994
1.4
1.40008
1.3999
1.4
1.39999
1.39999
1.40005
1.40009
1.40039
1.40057
1.40107
1.40186
1.40292
1.40456
1.40656
1.40933
1.41267
1.41693
1.4219
1.42752
1.43379
1.4406
1.4471
1.45285
1.45749
1.46065
1.46222
1.46254
1.46204
1.46103
1.45978
1.45839
1.45703
1.4557
1.45467
1.45408
1.45386
1.45392
1.45418
1.45472
1.45553
1.45652
1.45754
1.45852
1.45903
1.4591
1.45887
1.45825
1.45785
1.45744
1.45693
1.45672
1.45721
1.4594
1.46356
1.46945
1.47516
1.47798
1.47704
1.47185
1.46289
1.45209
1.44084
1.43031
1.42131
1.41412
1.40874
1.40496
1.40249
1.40103
1.40026
1.39992
1.39982
1.39983
1.39988
1.39992
1.39996
1.39998
1.39999
1.4
1.40001
1.4
1.4
1.40001
1.4
1.40001
1.4
1.4
1.40001
1.4
1.40001
1.4
1.40001
1.4
1.40003
1.39997
1.40003
1.40003
1.39994
1.40004
1.40006
1.39992
1.40003
1.40001
1.39997
1.39995
1.4001
1.40007
1.40025
1.40049
1.40098
1.40186
1.40275
1.40458
1.40654
1.40955
1.41302
1.41742
1.42281
1.42869
1.4353
1.4425
1.44942
1.45526
1.45962
1.46218
1.46284
1.46201
1.46032
1.45815
1.4558
1.45336
1.45102
1.44876
1.44703
1.44589
1.44516
1.44467
1.44457
1.44491
1.44561
1.44634
1.44675
1.44661
1.44588
1.4447
1.44286
1.44055
1.43809
1.43595
1.43463
1.43395
1.43419
1.43629
1.44162
1.45043
1.46092
1.47078
1.47698
1.47725
1.47202
1.4626
1.45081
1.43876
1.4278
1.4187
1.41172
1.40676
1.40351
1.40155
1.40049
1.4
1.39984
1.39982
1.39986
1.39992
1.39995
1.39998
1.39999
1.4
1.4
1.40001
1.4
1.40001
1.40001
1.4
1.40001
1.4
1.40001
1.4
1.4
1.40001
1.4
1.40001
1.4
1.4
1.40005
1.39993
1.40003
1.40007
1.39988
1.40006
1.40005
1.39989
1.40001
1.40002
1.39999
1.40005
1.40012
1.40051
1.4009
1.40159
1.40277
1.40421
1.40654
1.40939
1.41306
1.41754
1.42317
1.42936
1.43612
1.44362
1.45096
1.45688
1.46087
1.46275
1.46244
1.46038
1.45733
1.45382
1.45021
1.44653
1.44305
1.43967
1.43707
1.43521
1.43365
1.43243
1.43168
1.43134
1.43115
1.4307
1.42969
1.42789
1.4252
1.42161
1.4173
1.41277
1.40864
1.40572
1.40417
1.40361
1.40397
1.40617
1.41186
1.42208
1.43663
1.45281
1.4664
1.47446
1.47545
1.46963
1.45923
1.44676
1.43437
1.42356
1.41501
1.40881
1.40468
1.40216
1.40077
1.40011
1.39987
1.39982
1.39986
1.39991
1.39995
1.39997
1.39999
1.4
1.4
1.4
1.40001
1.4
1.40001
1.4
1.4
1.40001
1.4
1.40001
1.4
1.40001
1.4
1.40001
1.39999
1.40005
1.39995
1.40002
1.40008
1.39988
1.40005
1.40007
1.39984
1.40003
1.40002
1.39996
1.3999
1.40007
1.40014
1.40042
1.40076
1.4014
1.40253
1.40394
1.40616
1.40905
1.41276
1.41727
1.423
1.42953
1.43636
1.44402
1.45175
1.45785
1.46149
1.46266
1.46141
1.4581
1.45357
1.4486
1.44359
1.43863
1.43391
1.42927
1.42588
1.4233
1.42055
1.41801
1.41616
1.415
1.41395
1.41229
1.40931
1.40484
1.39926
1.39331
1.38769
1.38261
1.37819
1.37483
1.37296
1.37266
1.37369
1.37635
1.38208
1.39293
1.40947
1.42967
1.44989
1.46565
1.47348
1.47284
1.46529
1.45352
1.44049
1.42839
1.41842
1.411
1.40596
1.40283
1.40109
1.40024
1.39991
1.39983
1.39985
1.3999
1.39994
1.39997
1.39999
1.4
1.40001
1.4
1.40001
1.40001
1.4
1.40001
1.4
1.40001
1.4
1.40001
1.40001
1.4
1.40001
1.4
1.40002
1.4
1.39998
1.40008
1.39992
1.40001
1.40014
1.39983
1.40003
1.40007
1.39989
1.39994
1.40001
1.40002
1.40011
1.40023
1.40061
1.40122
1.40206
1.40368
1.40552
1.40854
1.41219
1.41667
1.4224
1.42919
1.43617
1.44379
1.45183
1.45829
1.46169
1.46217
1.46007
1.45556
1.44948
1.44292
1.43645
1.43027
1.4242
1.4185
1.41473
1.41081
1.40604
1.40236
1.40068
1.39961
1.39731
1.39278
1.38627
1.37888
1.37167
1.36523
1.35955
1.35439
1.34965
1.34582
1.34378
1.3439
1.34579
1.34924
1.35536
1.36626
1.38342
1.40632
1.43138
1.4533
1.46782
1.47288
1.46897
1.45887
1.44589
1.43287
1.42169
1.41314
1.40723
1.40352
1.40143
1.40039
1.39996
1.39984
1.39985
1.3999
1.39994
1.39997
1.39999
1.4
1.4
1.40001
1.4
1.40001
1.4
1.40001
1.40001
1.4
1.40001
1.4
1.40001
1.4
1.40001
1.4
1.40002
1.39997
1.40007
1.39995
1.39998
1.40013
1.39986
1.40001
1.40015
1.39988
1.39997
1.40002
1.40001
1.39991
1.40006
1.40015
1.40046
1.40095
1.40175
1.40309
1.40504
1.4077
1.41144
1.41584
1.42139
1.42835
1.43559
1.44309
1.45129
1.45826
1.46167
1.46153
1.45865
1.45308
1.44544
1.43715
1.4292
1.42183
1.41456
1.40841
1.40379
1.39752
1.39166
1.38925
1.38859
1.38569
1.37895
1.36999
1.36101
1.35309
1.34632
1.34029
1.33464
1.32949
1.32526
1.3224
1.32128
1.32194
1.32397
1.32725
1.3328
1.34296
1.3601
1.38429
1.41244
1.43947
1.46
1.47046
1.47058
1.46266
1.45021
1.43672
1.42464
1.41514
1.40844
1.4042
1.40177
1.40054
1.40002
1.39986
1.39985
1.39989
1.39994
1.39997
1.39999
1.4
1.4
1.40001
1.4
1.4
1.40001
1.4
1.40001
1.4
1.40001
1.40001
1.4
1.40001
1.4
1.40001
1.39999
1.40003
1.4
1.39996
1.40011
1.39991
1.39995
1.40016
1.39987
1.39995
1.40009
1.39997
1.3999
1.39997
1.40001
1.40013
1.40031
1.40068
1.40151
1.40246
1.40444
1.40679
1.41042
1.41478
1.42011
1.42705
1.43461
1.44208
1.45022
1.45773
1.46153
1.46096
1.45729
1.45085
1.44175
1.4316
1.42207
1.41361
1.40563
1.39907
1.39265
1.38512
1.38088
1.37992
1.37685
1.36846
1.35699
1.34643
1.33844
1.33219
1.32671
1.32195
1.31812
1.31505
1.31253
1.31063
1.30965
1.30971
1.31063
1.31241
1.31617
1.32457
1.34035
1.36438
1.39447
1.42537
1.45079
1.46622
1.47033
1.46483
1.45337
1.43983
1.42712
1.41686
1.40952
1.40481
1.40208
1.40068
1.40008
1.39988
1.39986
1.3999
1.39994
1.39997
1.39999
1.4
1.4
1.4
1.40001
1.4
1.40001
1.40001
1.4
1.40001
1.4
1.40001
1.4
1.40001
1.40001
1.4
1.40001
1.40002
1.39995
1.40009
1.39996
1.39995
1.40016
1.3999
1.39992
1.4001
1.39996
1.39991
1.39997
1.40003
1.39993
1.40006
1.40019
1.40049
1.40111
1.40209
1.40355
1.40593
1.40916
1.41353
1.41867
1.42536
1.43322
1.44086
1.44879
1.45669
1.46124
1.4606
1.45614
1.44895
1.43864
1.42654
1.41524
1.40594
1.39751
1.39016
1.38242
1.37594
1.37317
1.36996
1.36157
1.349
1.33693
1.32817
1.32222
1.31738
1.31318
1.31044
1.30935
1.30855
1.30668
1.30389
1.30147
1.30048
1.30085
1.30204
1.30466
1.31118
1.32495
1.34795
1.37864
1.41188
1.44108
1.46079
1.46857
1.46558
1.45537
1.44205
1.42899
1.41822
1.4104
1.40531
1.40234
1.40081
1.40014
1.3999
1.39987
1.3999
1.39994
1.39997
1.39999
1.4
1.4
1.4
1.4
1.40001
1.4
1.40001
1.4
1.40001
1.40001
1.4
1.40001
1.4
1.4
1.40001
1.40001
1.39998
1.40004
1.39999
1.39994
1.40013
1.39995
1.39992
1.40015
1.39999
1.3999
1.4
1.4
1.39993
1.39995
1.39998
1.40011
1.40036
1.40068
1.40168
1.40282
1.40495
1.40788
1.41207
1.41711
1.42344
1.43139
1.43943
1.44722
1.45519
1.46066
1.46049
1.45535
1.44736
1.43622
1.42227
1.40896
1.39882
1.39004
1.3821
1.37444
1.36904
1.36479
1.35753
1.34629
1.33359
1.32221
1.3128
1.30476
1.29796
1.29262
1.28874
1.28588
1.28326
1.28033
1.27777
1.27719
1.27961
1.28428
1.28941
1.29437
1.3012
1.3139
1.33553
1.36572
1.40011
1.43196
1.45496
1.46585
1.46518
1.45623
1.44333
1.43021
1.41915
1.41101
1.40567
1.40254
1.40092
1.40019
1.39993
1.39988
1.39991
1.39994
1.39997
1.39999
1.4
1.4
1.40001
1.4
1.40001
1.40001
1.4
1.40001
1.4
1.40001
1.4
1.4
1.40001
1.40001
1.40001
1.4
1.40002
1.40001
1.39995
1.40009
1.39996
1.39991
1.40013
1.4
1.39992
1.40003
1.40002
1.39993
1.39992
1.40001
1.39995
1.40001
1.40023
1.40049
1.40109
1.40228
1.40392
1.40663
1.41045
1.41542
1.42143
1.42916
1.43766
1.44563
1.45342
1.45965
1.46052
1.45507
1.44612
1.43446
1.41908
1.40348
1.39216
1.3833
1.37536
1.36824
1.36202
1.35507
1.34639
1.3352
1.32123
1.30462
1.28645
1.26903
1.25408
1.24095
1.22801
1.2156
1.20634
1.203
1.20681
1.2175
1.23352
1.25179
1.26854
1.28165
1.29264
1.30617
1.32693
1.3563
1.39094
1.42423
1.44946
1.46271
1.46389
1.4561
1.44375
1.43075
1.4196
1.41131
1.40587
1.40267
1.40099
1.40023
1.39996
1.3999
1.39992
1.39995
1.39997
1.39999
1.4
1.4
1.4
1.40001
1.4
1.40001
1.4
1.40001
1.40001
1.4
1.40001
1.4
1.40001
1.40001
1.4
1.40001
1.4
1.39998
1.40005
1.39999
1.39994
1.40011
1.4
1.3999
1.40002
1.40002
1.39997
1.39999
1.39998
1.39993
1.39997
1.39997
1.40006
1.40037
1.40068
1.40165
1.40305
1.40538
1.40879
1.41356
1.41941
1.42672
1.43543
1.44393
1.45162
1.45819
1.46041
1.45539
1.44537
1.43317
1.41707
1.39922
1.38606
1.37721
1.36976
1.36277
1.35455
1.34617
1.3383
1.32473
1.30248
1.27237
1.23734
1.20193
1.16927
1.13889
1.10969
1.08446
1.06967
1.07103
1.08955
1.12169
1.16157
1.20251
1.23823
1.26503
1.28398
1.30067
1.3217
1.35038
1.38466
1.41847
1.44493
1.45962
1.46206
1.45518
1.44335
1.4306
1.41955
1.41133
1.4059
1.40271
1.40103
1.40027
1.39998
1.39992
1.39993
1.39996
1.39998
1.39999
1.4
1.4
1.4
1.4
1.40001
1.4
1.40001
1.4
1.40001
1.4
1.4
1.40001
1.4
1.4
1.40001
1.4
1.4
1.40002
1.39999
1.39997
1.40007
1.4
1.39993
1.40004
1.40003
1.39996
1.39998
1.40001
1.39997
1.39991
1.39996
1.39999
1.39995
1.40015
1.40052
1.40107
1.40228
1.4042
1.4072
1.41156
1.41732
1.42428
1.43281
1.44194
1.44996
1.45651
1.45987
1.4561
1.4454
1.43224
1.41606
1.39665
1.38082
1.37144
1.36493
1.35774
1.34768
1.33834
1.32937
1.30871
1.27211
1.22264
1.16373
1.10146
1.04321
0.99233
0.949121
0.916729
0.902741
0.91416
0.951862
1.00966
1.07753
1.14495
1.20291
1.24611
1.27528
1.29688
1.31926
1.34763
1.38138
1.41504
1.44178