/*--------------------------------*- C++ -*----------------------------------*\
  =========                 |
  \\      /  F ield         | OpenFOAM: The Open Source CFD Toolbox
   \\    /   O peration     | Website:  https://openfoam.org
    \\  /    A nd           | Version:  6
     \\/     M anipulation  |
\*---------------------------------------------------------------------------*/
FoamFile
{
    version     2.0;
    format      ascii;
    class       volVectorField;
    location    "238";
    object      U;
}
// * * * * * * * * * * * * * * * * * * * * * * * * * * * * * * * * * * * * * //

dimensions      [0 1 -1 0 0 0 0];

internalField   nonuniform List<vector> 
322
(
(0.947874 0.0857219 0.0614601)
(0.945646 0.0847267 0.0607785)
(0.94456 0.0838259 0.0601329)
(0.942554 0.0828283 0.0594399)
(0.941506 0.0819497 0.0587768)
(0.939803 0.080986 0.0580817)
(0.938829 0.0801427 0.0574413)
(0.937518 0.0792091 0.0567893)
(0.93668 0.0783606 0.0561261)
(0.935786 0.0775299 0.0555701)
(0.947876 0.100763 0.0319409)
(0.945667 0.0996013 0.0315873)
(0.944588 0.0985322 0.0312372)
(0.942584 0.0973541 0.0308776)
(0.941534 0.0962902 0.0305179)
(0.939828 0.0951376 0.0301552)
(0.938852 0.0941179 0.0298256)
(0.937541 0.093023 0.0295057)
(0.936702 0.0920111 0.0291621)
(0.935824 0.0910625 0.028902)
(0.947859 0.105608 -0.00042513)
(0.945651 0.104415 -0.000426995)
(0.944573 0.103307 -0.000464239)
(0.942573 0.102081 -0.000472452)
(0.941526 0.100951 -0.000511794)
(0.939818 0.0997293 -0.000517722)
(0.938836 0.0986326 -0.000526055)
(0.937523 0.0974753 -0.000486562)
(0.936677 0.0963895 -0.000495918)
(0.935798 0.0954075 -0.000426492)
(0.935203 0.0942802 -0.000457166)
(0.947874 0.100189 -0.0331139)
(0.945663 0.0990752 -0.0327238)
(0.944584 0.0980364 -0.0324119)
(0.942584 0.0968904 -0.0320413)
(0.941543 0.0958218 -0.0317426)
(0.93984 0.0946635 -0.0313804)
(0.938862 0.0936125 -0.0310676)
(0.937548 0.0925071 -0.0306752)
(0.9367 0.0914544 -0.0303559)
(0.935812 0.0905193 -0.0299842)
(0.935203 0.0894344 -0.0296587)
(0.947858 0.085254 -0.0620448)
(0.945647 0.0843095 -0.0613091)
(0.94456 0.0834251 -0.060673)
(0.942555 0.0824576 -0.0599585)
(0.941508 0.0815506 -0.0593488)
(0.939807 0.0805754 -0.0586637)
(0.938829 0.0796831 -0.0580644)
(0.937516 0.0787503 -0.0573755)
(0.936672 0.077841 -0.0567618)
(0.935779 0.0770423 -0.0561352)
(0.935163 0.0761012 -0.055489)
(0.961166 0.215646 0.159686)
(0.959615 0.213107 0.157904)
(0.960206 0.210574 0.156205)
(0.958765 0.20798 0.154518)
(0.959495 0.205456 0.152872)
(0.958266 0.203011 0.151143)
(0.959184 0.20073 0.14942)
(0.958185 0.198486 0.147542)
(0.959179 0.196407 0.145671)
(0.958465 0.194257 0.143887)
(0.961651 0.257193 0.0878451)
(0.960128 0.254076 0.086848)
(0.960745 0.251009 0.0858665)
(0.959283 0.247823 0.0849359)
(0.959991 0.244752 0.0840428)
(0.958688 0.241683 0.0831475)
(0.959583 0.238887 0.0822884)
(0.958592 0.236119 0.0813375)
(0.959604 0.233635 0.0803355)
(0.958979 0.231218 0.079385)
(0.961203 0.270788 0.00399073)
(0.959667 0.267642 0.00383914)
(0.960314 0.264484 0.00372403)
(0.95891 0.261193 0.00364944)
(0.959636 0.257888 0.00364007)
(0.95832 0.254568 0.00362696)
(0.959123 0.251405 0.00366698)
(0.958082 0.248358 0.00367036)
(0.959018 0.245518 0.00361907)
(0.958381 0.242989 0.00362754)
(0.959384 0.240294 0.00340827)
(0.961627 0.259201 -0.0807349)
(0.960061 0.256355 -0.0797235)
(0.960684 0.25353 -0.0788194)
(0.959298 0.250578 -0.0778952)
(0.960101 0.247578 -0.0770464)
(0.958861 0.244448 -0.0761651)
(0.959712 0.241385 -0.0753324)
(0.958661 0.23831 -0.0744259)
(0.959581 0.235419 -0.0736451)
(0.958882 0.232783 -0.0727236)
(0.959873 0.230104 -0.0720994)
(0.961374 0.22162 -0.156653)
(0.959825 0.219153 -0.154712)
(0.960424 0.216779 -0.152844)
(0.958986 0.214314 -0.150959)
(0.959743 0.211851 -0.149179)
(0.958531 0.209245 -0.147467)
(0.959396 0.206669 -0.145826)
(0.95838 0.203988 -0.144194)
(0.959293 0.201419 -0.142625)
(0.958581 0.199024 -0.14099)
(0.959516 0.196576 -0.139483)
(0.994609 0.322055 0.231861)
(0.995063 0.317532 0.228831)
(0.996984 0.313102 0.225844)
(0.997229 0.308924 0.223047)
(0.999053 0.305027 0.220253)
(0.999107 0.301487 0.217728)
(1.0011 0.2983 0.215007)
(1.00112 0.295193 0.212465)
(1.00318 0.292244 0.209541)
(0.995025 0.37461 0.123777)
(0.995348 0.369365 0.122113)
(0.997311 0.364223 0.120519)
(0.997566 0.359158 0.119089)
(0.999475 0.354225 0.117814)
(0.999478 0.349525 0.116691)
(1.00131 0.345195 0.115653)
(1.00139 0.34123 0.11451)
(1.00329 0.337489 0.113269)
(0.994105 0.39442 0.0103808)
(0.994283 0.389272 0.00952576)
(0.996173 0.384096 0.00859663)
(0.996502 0.378991 0.0078682)
(0.998471 0.373843 0.00736292)
(0.998594 0.36881 0.0072937)
(1.00035 0.363832 0.00746374)
(1.00026 0.35922 0.00794442)
(1.00213 0.354816 0.0082868)
(1.00204 0.350993 0.00876794)
(1.00415 0.347018 0.00852688)
(0.995196 0.373174 -0.117743)
(0.995454 0.368603 -0.116322)
(0.997217 0.363975 -0.115262)
(0.997416 0.359356 -0.114244)
(0.999419 0.354692 -0.113436)
(0.999616 0.350016 -0.112334)
(1.00156 0.34535 -0.111205)
(1.00145 0.340758 -0.109522)
(1.00326 0.336304 -0.107988)
(1.00304 0.332271 -0.105982)
(1.00492 0.328276 -0.104544)
(0.993574 0.325494 -0.21409)
(0.99396 0.321374 -0.211119)
(0.995859 0.317435 -0.208416)
(0.99599 0.313536 -0.205998)
(0.99789 0.309746 -0.203955)
(0.998109 0.305897 -0.202022)
(1.00012 0.302025 -0.200206)
(1.00021 0.298105 -0.198074)
(1.00211 0.294147 -0.195886)
(1.00196 0.290453 -0.193287)
(1.00378 0.286848 -0.190649)
(1.0175 0.364977 0.290925)
(1.01817 0.359709 0.286856)
(1.01886 0.354531 0.283263)
(1.01949 0.349457 0.280113)
(1.02003 0.344765 0.27712)
(1.0205 0.340387 0.274146)
(1.02104 0.336537 0.270846)
(1.02153 0.332815 0.267409)
(1.02214 0.329411 0.263628)
(1.0183 0.443965 0.141526)
(1.01873 0.437876 0.13913)
(1.01927 0.431561 0.136964)
(1.01988 0.425376 0.135132)
(1.02039 0.419297 0.133685)
(1.02094 0.413639 0.132653)
(1.02114 0.408152 0.131702)
(1.02169 0.403307 0.130769)
(1.02172 0.398409 0.129486)
(1.01868 0.471301 -0.0105869)
(1.01915 0.465176 -0.011113)
(1.01957 0.458817 -0.0112328)
(1.02018 0.452534 -0.0114978)
(1.02071 0.446024 -0.0114576)
(1.02133 0.439966 -0.0114435)
(1.02186 0.433971 -0.0109678)
(1.02219 0.428592 -0.0104898)
(1.02274 0.423477 -0.00972109)
(1.02281 0.418545 -0.00928676)
(1.0234 0.414118 -0.00892477)
(1.01802 0.436574 -0.148139)
(1.01887 0.43172 -0.146413)
(1.01946 0.42663 -0.145061)
(1.02001 0.421465 -0.143786)
(1.02062 0.415734 -0.142668)
(1.02109 0.409875 -0.141405)
(1.02169 0.403929 -0.14008)
(1.02217 0.398198 -0.13842)
(1.02245 0.392941 -0.13655)
(1.02311 0.38813 -0.13436)
(1.02296 0.383473 -0.132438)
(1.01891 0.375178 -0.294069)
(1.01948 0.370629 -0.290108)
(1.02012 0.366349 -0.285977)
(1.02052 0.362234 -0.282399)
(1.021 0.358048 -0.278765)
(1.02151 0.353474 -0.275926)
(1.02193 0.34878 -0.272809)
(1.02262 0.343785 -0.270387)
(1.02296 0.338941 -0.267314)
(1.02354 0.334363 -0.264634)
(1.02392 0.33014 -0.261169)
(1.01039 0.29739 0.270898)
(1.01025 0.293655 0.26844)
(1.00874 0.289185 0.266429)
(1.00846 0.28414 0.26475)
(1.00694 0.27909 0.261873)
(1.00705 0.274356 0.258889)
(1.00564 0.270091 0.254386)
(1.00571 0.266645 0.250764)
(1.00424 0.263557 0.246276)
(1.00917 0.343863 0.157881)
(1.00926 0.340935 0.155949)
(1.00806 0.338074 0.154331)
(1.00786 0.335461 0.153177)
(1.0064 0.33203 0.152457)
(1.00639 0.328374 0.151534)
(1.00515 0.323865 0.150423)
(1.00543 0.319324 0.148376)
(1.00433 0.314641 0.146022)
(1.00907 0.394291 0.049383)
(1.00959 0.389003 0.0465657)
(1.00867 0.384589 0.0431136)
(1.00881 0.380566 0.0408107)
(1.00725 0.377316 0.0392199)
(1.00703 0.37387 0.0392971)
(1.00531 0.370552 0.0394653)
(1.00513 0.366557 0.0409708)
(1.00362 0.362121 0.041191)
(1.00373 0.357469 0.0426339)
(1.00232 0.352332 0.0418683)
(1.0078 0.380372 -0.0773189)
(1.00765 0.373999 -0.0754877)
(1.00663 0.367577 -0.0742288)
(1.00702 0.362118 -0.0741054)
(1.00618 0.357073 -0.0745574)
(1.00637 0.353521 -0.0750785)
(1.0052 0.350002 -0.0753991)
(1.00517 0.347793 -0.0750167)
(1.0037 0.344537 -0.0742899)
(1.00386 0.342269 -0.0732169)
(1.00226 0.338131 -0.0719816)
(1.01011 0.353293 -0.179752)
(1.00921 0.349226 -0.176211)
(1.00762 0.344489 -0.17314)
(1.00728 0.339064 -0.170374)
(1.00599 0.333324 -0.168642)
(1.00607 0.32782 -0.167111)
(1.00457 0.32267 -0.166422)
(1.00478 0.318634 -0.16545)
(1.00298 0.314831 -0.164664)
(1.00317 0.312195 -0.163306)
(1.00158 0.30902 -0.161823)
(1.01778 0.363784 0.28958)
(1.0163 0.389078 0.250933)
(1.01664 0.386241 0.249202)
(1.01902 0.347828 0.27145)
(1.01929 0.346675 0.270375)
(1.01939 0.405568 0.244871)
(1.01976 0.40347 0.242194)
(1.01842 0.358543 0.285683)
(1.01693 0.383325 0.247659)
(1.01726 0.380421 0.246093)
(1.01968 0.343039 0.267808)
(1.01994 0.341935 0.266927)
(1.01986 0.399876 0.241805)
(1.0203 0.397733 0.239282)
(1.01916 0.353286 0.282325)
(1.0176 0.377631 0.244629)
(1.01803 0.37463 0.243265)
(1.02027 0.338444 0.264619)
(1.02048 0.337293 0.263931)
(1.02033 0.39427 0.238922)
(1.02061 0.392121 0.23657)
(1.01967 0.348327 0.27927)
(1.01834 0.371987 0.241993)
(1.01861 0.369013 0.240878)
(1.0208 0.333956 0.261892)
(1.02096 0.332875 0.261278)
(1.0207 0.388766 0.236359)
(1.02095 0.386691 0.234263)
(1.02022 0.34364 0.276367)
(1.01893 0.366644 0.239532)
(1.01925 0.363787 0.238545)
(1.02122 0.329697 0.259237)
(1.02133 0.328613 0.25862)
(1.02097 0.383489 0.23401)
(1.02108 0.381524 0.231981)
(1.02068 0.339525 0.2732)
(1.01948 0.361601 0.237213)
(1.01964 0.359009 0.236199)
(1.02164 0.325636 0.256522)
(1.0218 0.324786 0.255697)
(1.02118 0.378405 0.231696)
(1.02133 0.376631 0.229605)
(1.02123 0.335651 0.269897)
(1.01995 0.357164 0.234587)
(1.0203 0.354858 0.233476)
(1.02206 0.321955 0.253428)
(1.02216 0.321107 0.252534)
(1.02137 0.373707 0.229097)
(1.02154 0.372114 0.226876)
(1.02177 0.332193 0.266213)
(1.02052 0.353035 0.231845)
(1.02071 0.350974 0.230546)
(1.02249 0.318422 0.250135)
(1.02274 0.317855 0.24901)
(1.02162 0.369254 0.226278)
(1.02185 0.367845 0.223845)
(1.02234 0.328643 0.262485)
(1.02105 0.34936 0.228681)
(1.02148 0.347441 0.227207)
(1.023 0.315202 0.246508)
(1.02311 0.31453 0.245421)
(1.02189 0.36516 0.223079)
(1.02217 0.363843 0.220495)
)
;

boundaryField
{
    inlet
    {
        type            codedFixedValue;
        value           nonuniform 0();
        name            swirl;
        code            #{
            const vector axis(1, 0, 0);

            vectorField v(2.0*this->patch().Cf() ^ axis);
            v.replace(vector::X, 1.0);
            operator==(v);
        #};
    }
    outlet
    {
        type            inletOutlet;
        inletValue      nonuniform 0();
        value           nonuniform 0();
    }
    side1
    {
        type            cyclicAMI;
        value           nonuniform List<vector> 
74
(
(0.947866 0.0738833 0.0733571)
(0.96127 0.186149 0.190653)
(0.994092 0.268073 0.278678)
(1.01795 0.3424 0.317751)
(1.01025 0.238571 0.312096)
(0.945646 0.0730179 0.072544)
(0.95972 0.183909 0.188528)
(0.994511 0.264325 0.275102)
(1.01858 0.337549 0.313529)
(1.00973 0.234933 0.308833)
(0.94456 0.0722495 0.071779)
(0.960315 0.181709 0.186492)
(0.996421 0.260759 0.27164)
(1.01926 0.332704 0.309717)
(1.00818 0.231162 0.305459)
(0.942554 0.0713934 0.0709487)
(0.958875 0.179469 0.184416)
(0.996609 0.257461 0.268291)
(1.01982 0.328107 0.30626)
(1.00787 0.227257 0.301907)
(0.941507 0.0706492 0.0701637)
(0.959619 0.177317 0.182362)
(0.998471 0.254491 0.265)
(1.02034 0.323751 0.302887)
(1.00647 0.223866 0.297598)
(0.939805 0.0698248 0.0693286)
(0.958398 0.175239 0.180194)
(0.998608 0.251754 0.261813)
(1.02082 0.319863 0.299404)
(1.00656 0.220733 0.293354)
(0.938829 0.0691035 0.0685622)
(0.95929 0.173278 0.178044)
(1.00061 0.249253 0.258516)
(1.02132 0.316247 0.29566)
(1.0051 0.218256 0.288528)
(0.937517 0.0682923 0.0677698)
(0.958282 0.17134 0.175765)
(1.00067 0.246633 0.255285)
(1.02188 0.312939 0.291727)
(1.00525 0.216048 0.284699)
(0.936676 0.0675612 0.0669835)
(0.959236 0.169516 0.173545)
(1.00265 0.244065 0.251844)
(1.0224 0.30964 0.287607)
(1.00361 0.21411 0.280553)
(0.935782 0.0668325 0.0663062)
(0.958523 0.167624 0.171456)
(1.01814 0.341587 0.316834)
(1.01916 0.328454 0.306674)
(1.01898 0.329208 0.307377)
(1.01876 0.336754 0.312729)
(1.01978 0.323984 0.302845)
(1.01961 0.324706 0.303421)
(1.01946 0.331855 0.309078)
(1.02035 0.319519 0.299404)
(1.02022 0.320272 0.299854)
(1.01994 0.327336 0.305685)
(1.02081 0.315392 0.296245)
(1.0207 0.316099 0.296646)
(1.02047 0.322984 0.302373)
(1.02121 0.311348 0.293058)
(1.02114 0.312056 0.293461)
(1.02094 0.319275 0.298759)
(1.0217 0.307862 0.289563)
(1.02159 0.308419 0.290102)
(1.02145 0.315643 0.295013)
(1.02208 0.304379 0.28587)
(1.02201 0.304933 0.286454)
(1.02204 0.312514 0.290911)
(1.0227 0.301414 0.281836)
(1.02254 0.301785 0.282572)
(1.02253 0.309116 0.286828)
(1.02306 0.298176 0.277812)
(1.02298 0.298616 0.278523)
)
;
    }
    side2
    {
        type            cyclicAMI;
        value           nonuniform List<vector> 
55
(
(0.947866 0.0733571 -0.0738833)
(0.96127 0.190653 -0.186149)
(0.994092 0.278678 -0.268073)
(1.01857 0.312051 -0.335275)
(1.01025 0.312096 -0.238571)
(0.945646 0.072544 -0.0730179)
(0.95972 0.188528 -0.183909)
(0.994511 0.275102 -0.264325)
(1.01919 0.308026 -0.330614)
(1.00973 0.308833 -0.234933)
(0.94456 0.071779 -0.0722495)
(0.960315 0.186492 -0.181709)
(0.996421 0.27164 -0.260759)
(1.01983 0.304411 -0.325958)
(1.00818 0.305459 -0.231162)
(0.942554 0.0709487 -0.0713934)
(0.958875 0.184416 -0.179469)
(0.996609 0.268291 -0.257461)
(1.02033 0.301109 -0.321608)
(1.00787 0.301907 -0.227257)
(0.941507 0.0701637 -0.0706492)
(0.959619 0.182362 -0.177317)
(0.998471 0.265 -0.254491)
(1.0208 0.297847 -0.317413)
(1.00647 0.297598 -0.223866)
(0.939805 0.0693286 -0.0698248)
(0.958398 0.180194 -0.175239)
(0.998608 0.261813 -0.251754)
(1.02127 0.29436 -0.313735)
(1.00656 0.293354 -0.220733)
(0.938829 0.0685622 -0.0691035)
(0.95929 0.178044 -0.173278)
(1.00061 0.258516 -0.249253)
(1.02172 0.290653 -0.310182)
(1.0051 0.288528 -0.218256)
(0.937517 0.0677698 -0.0682923)
(0.958282 0.175765 -0.17134)
(1.00067 0.255285 -0.246633)
(1.0223 0.286666 -0.307047)
(1.00525 0.284699 -0.216048)
(0.936676 0.0669835 -0.0675612)
(0.959236 0.173545 -0.169516)
(1.00265 0.251844 -0.244065)
(1.02275 0.282598 -0.303772)
(1.00361 0.280553 -0.21411)
(0.935782 0.0663062 -0.0668325)
(0.958523 0.171456 -0.167624)
(1.00252 0.248673 -0.241218)
(1.02326 0.278665 -0.300613)
(1.0035 0.277819 -0.212273)
(0.935181 0.0654834 -0.0660602)
(0.959485 0.169271 -0.165804)
(1.00441 0.245434 -0.238212)
(1.02371 0.274974 -0.297115)
(1.00193 0.27455 -0.210366)
)
;
    }
    walls
    {
        type            noSlip;
    }
    procBoundary3to2
    {
        type            processor;
        value           nonuniform List<vector> 
38
(
(0.935199 0.0766314 0.0548656)
(0.935225 0.0899952 0.0285152)
(0.935225 0.0899952 0.0285152)
(0.934559 0.0934831 -0.000397492)
(0.934567 0.0886742 -0.0293365)
(0.934537 0.0754535 -0.0549496)
(0.959454 0.192125 0.141966)
(1.00308 0.289149 0.206894)
(0.959984 0.228689 0.0782236)
(1.00342 0.334139 0.111657)
(0.959984 0.228689 0.0782236)
(0.959091 0.23818 0.00349868)
(0.959519 0.227968 -0.0711367)
(0.959115 0.194657 -0.137968)
(1.00308 0.289149 0.206894)
(1.00342 0.334139 0.111657)
(1.00342 0.334139 0.111657)
(1.00533 0.33042 0.110004)
(1.00398 0.343678 0.0087846)
(1.00474 0.32474 -0.102887)
(1.00345 0.283517 -0.188203)
(1.02261 0.325803 0.259965)
(1.02241 0.39429 0.127914)
(1.02241 0.39429 0.127914)
(1.02245 0.389799 0.126079)
(1.02344 0.409372 -0.00873671)
(1.02381 0.379564 -0.130205)
(1.02404 0.325958 -0.258355)
(1.00383 0.26124 0.243444)
(1.00463 0.310339 0.143007)
(1.00463 0.310339 0.143007)
(1.00306 0.306274 0.140141)
(1.00249 0.347815 0.0426587)
(1.00262 0.335317 -0.0712388)
(1.00176 0.306657 -0.159869)
(1.0217 0.345678 0.225508)
(1.02339 0.311896 0.243012)
(1.02218 0.361178 0.219833)
)
;
    }
    procBoundary3to4
    {
        type            processor;
        value           nonuniform List<vector> 
28
(
(0.94895 0.0865963 0.0620694)
(0.948983 0.10178 0.0322718)
(0.948965 0.106656 -0.000417415)
(0.948975 0.101176 -0.0334564)
(0.948949 0.0860902 -0.0626794)
(0.960658 0.218107 0.161348)
(0.961151 0.260159 0.088833)
(0.960744 0.27374 0.00408544)
(0.961169 0.261953 -0.0817348)
(0.960845 0.223974 -0.158442)
(0.992857 0.326826 0.234925)
(0.993409 0.379885 0.125567)
(0.992487 0.399552 0.0110401)
(0.993347 0.377863 -0.119264)
(0.991537 0.329752 -0.217129)
(1.01713 0.369098 0.294009)
(1.01783 0.449726 0.14428)
(1.01798 0.477568 -0.0102684)
(1.01715 0.441642 -0.150116)
(1.01823 0.380396 -0.298287)
(1.01103 0.299829 0.274927)
(1.01004 0.347912 0.159556)
(1.00981 0.399922 0.051698)
(1.00961 0.38672 -0.0795032)
(1.01197 0.356765 -0.183263)
(1.01606 0.391993 0.252684)
(1.01869 0.35159 0.274343)
(1.0194 0.409204 0.245229)
)
;
    }
}


// ************************************************************************* //
