/*--------------------------------*- C++ -*----------------------------------*\
  =========                 |
  \\      /  F ield         | OpenFOAM: The Open Source CFD Toolbox
   \\    /   O peration     | Website:  https://openfoam.org
    \\  /    A nd           | Version:  6
     \\/     M anipulation  |
\*---------------------------------------------------------------------------*/
FoamFile
{
    version     2.0;
    format      ascii;
    class       volScalarField;
    location    "1.08";
    object      epsilon;
}
// * * * * * * * * * * * * * * * * * * * * * * * * * * * * * * * * * * * * * //

dimensions      [0 2 -3 0 0 0 0];

internalField   nonuniform List<scalar> 
4214
(
0.0250396
0.0131131
0.00886935
0.00734684
0.00677777
0.00654144
0.00642399
0.00635448
0.00630991
0.00628238
0.00626843
0.00626652
0.00627606
0.00629632
0.00632595
0.00636302
0.00640571
0.00645205
0.00649726
0.00653779
0.0065055
0.00651738
0.00660942
0.00668542
0.0067134
0.00669189
0.00663537
0.00656296
0.00649016
0.00642672
0.00637759
0.00634464
0.00632877
0.00633211
0.00636227
0.0064429
0.006644
0.00717129
0.00862373
0.0127311
0.0244037
0.0103279
0.00800792
0.00708085
0.00669981
0.00652894
0.00643863
0.00638104
0.00634039
0.0063124
0.00629574
0.0062899
0.00629503
0.006312
0.00634136
0.00638293
0.00643583
0.00649847
0.00656954
0.00664406
0.00671715
0.00668569
0.00673521
0.00689578
0.00700759
0.00702891
0.00697099
0.00686539
0.00674361
0.00662738
0.00652851
0.00645161
0.00639709
0.00636344
0.00634911
0.00635413
0.0063833
0.00645379
0.00661443
0.00699558
0.00793879
0.010328
0.00785712
0.00703291
0.00668989
0.00653668
0.00645733
0.0064072
0.00637052
0.00634318
0.00632505
0.00631671
0.00631859
0.00633185
0.00635832
0.00639981
0.00645755
0.00653204
0.00662308
0.00673086
0.00685115
0.00697877
0.00696045
0.00708145
0.00733769
0.00748089
0.00746983
0.00734422
0.0071619
0.00696964
0.00679518
0.00665113
0.00654054
0.00646142
0.00640976
0.00638131
0.00637267
0.00638272
0.0064154
0.00648671
0.00664147
0.00699806
0.00786352
0.00708908
0.00672537
0.00656589
0.00648652
0.00643868
0.00640411
0.00637711
0.0063574
0.00634642
0.00634538
0.00635549
0.00637858
0.00641749
0.00647548
0.00655557
0.00666037
0.00679209
0.00695401
0.00714457
0.00736121
0.00738252
0.00762458
0.00799982
0.00815136
0.00806277
0.00782453
0.00753011
0.0072424
0.00699317
0.00679345
0.00664285
0.00653571
0.00646475
0.00642291
0.00640413
0.00640402
0.00642099
0.00645927
0.00653592
0.00669922
0.00707804
0.00679875
0.0066146
0.00652684
0.00647704
0.00644254
0.00641539
0.00639416
0.00638022
0.00637565
0.0063823
0.00640203
0.00643755
0.00649292
0.00657319
0.00668381
0.00683056
0.00701967
0.00725993
0.00755618
0.0079146
0.00802578
0.00845706
0.0089601
0.00906843
0.00883319
0.00842322
0.00797426
0.00756302
0.00722116
0.00695472
0.00675744
0.00661845
0.00652628
0.00647061
0.00644271
0.00643563
0.00644449
0.00646778
0.00651069
0.00659337
0.00677384
0.00667925
0.00657605
0.00652134
0.00648584
0.00645856
0.00643633
0.00641976
0.0064112
0.00641339
0.00642895
0.00646062
0.00651232
0.0065897
0.00670014
0.00685241
0.00705681
0.00732582
0.00767751
0.00812962
0.00870898
0.00899827
0.00970435
0.0103129
0.0102861
0.00980662
0.00915099
0.00849848
0.00793291
0.00747947
0.0071347
0.00688374
0.0067088
0.00659315
0.00652262
0.00648562
0.00647281
0.00647683
0.00649264
0.00651919
0.00656334
0.00665089
0.00663256
0.00656966
0.00653189
0.00650452
0.00648225
0.00646438
0.00645273
0.00645037
0.00646087
0.00648783
0.00653535
0.00660888
0.00671612
0.00686749
0.0070762
0.00735888
0.00773722
0.0082442
0.00892158
0.00983798
0.0104513
0.0115289
0.012167
0.0118611
0.0110081
0.0100182
0.0091073
0.00835436
0.00776941
0.00733416
0.0070221
0.00680666
0.00666479
0.00657778
0.0065309
0.00651243
0.00651292
0.00652488
0.00654343
0.00656831
0.00660936
0.00662039
0.00657891
0.00655101
0.00652965
0.00651252
0.00650015
0.0064948
0.00650075
0.00652298
0.00656653
0.00663674
0.00674063
0.00688859
0.00709515
0.00737929
0.00776617
0.00829069
0.00900901
0.0100053
0.0114249
0.0125914
0.0141342
0.0146452
0.0138526
0.012463
0.0110361
0.00980691
0.00883147
0.00809405
0.00755536
0.00717407
0.00691293
0.00674143
0.00663566
0.00657734
0.00655234
0.00654936
0.0065591
0.00657414
0.00658998
0.00660798
0.00662708
0.00659945
0.00657981
0.00656539
0.00655661
0.0065557
0.00656628
0.00659163
0.00663462
0.00670097
0.00679919
0.00694062
0.00714068
0.0074187
0.00780033
0.0083216
0.00903581
0.0100342
0.0114729
0.0136272
0.0156869
0.0177641
0.0178804
0.0163221
0.0141995
0.012219
0.0106066
0.00937116
0.00845893
0.00780254
0.00734279
0.00702975
0.00682432
0.00669664
0.00662448
0.00659114
0.00658365
0.00659136
0.00660522
0.00661802
0.00662624
0.00664363
0.00662344
0.00660912
0.00660154
0.00660263
0.00661544
0.0066442
0.00669433
0.00677229
0.00688176
0.00702998
0.00723367
0.00750922
0.00788183
0.00838783
0.00907864
0.010033
0.0113943
0.0134368
0.016638
0.0200652
0.0226945
0.022013
0.0193372
0.0162529
0.0135873
0.0115213
0.00998467
0.00887308
0.00808265
0.00753351
0.00716087
0.00691599
0.00676218
0.0066728
0.00662835
0.00661424
0.00661882
0.00663206
0.00664514
0.00665158
0.00666361
0.00664824
0.0066401
0.00664211
0.00665718
0.00668891
0.00674223
0.00682368
0.00694144
0.00710542
0.0073222
0.00760737
0.00798867
0.00849575
0.00917174
0.0100832
0.0113424
0.0131691
0.0160272
0.0206794
0.0260852
0.0292213
0.0271918
0.0229786
0.0186748
0.0151729
0.0125753
0.0106897
0.00935063
0.00840637
0.00775437
0.0073122
0.00702069
0.00683519
0.00672414
0.00666483
0.00664093
0.00663994
0.00665139
0.00666574
0.00667479
0.00668593
0.00667501
0.00667487
0.00669003
0.00672412
0.00678129
0.00686728
0.00698999
0.00715967
0.00738914
0.00769439
0.00808406
0.0085986
0.00927676
0.0101723
0.0113674
0.0130142
0.0154358
0.0193879
0.0259844
0.0340784
0.0376489
0.0335832
0.0273551
0.0215475
0.0170277
0.0138083
0.0115134
0.00991336
0.00878972
0.0080177
0.00749277
0.00714515
0.00692066
0.00678225
0.00670324
0.00666533
0.00665505
0.00666176
0.00667586
0.0066886
0.00670987
0.00670484
0.00671575
0.00674858
0.00680785
0.00689847
0.00702721
0.00720362
0.0074404
0.00775371
0.00816398
0.0086924
0.00936937
0.0102569
0.0114207
0.0129646
0.0150944
0.0182668
0.0236741
0.0327677
0.0442611
0.0482969
0.0414055
0.0326246
0.0250072
0.0192336
0.0152857
0.0124973
0.0105948
0.00925633
0.00834225
0.00771611
0.00729979
0.0070264
0.00685341
0.00674874
0.00669167
0.00666724
0.00666461
0.00667445
0.00668831
0.00673604
0.00674004
0.00676629
0.00682239
0.00691425
0.00704801
0.00723188
0.00747737
0.00779988
0.00821928
0.00876072
0.00945629
0.0103325
0.0114712
0.0129537
0.0149129
0.0176349
0.0217348
0.029059
0.041196
0.0566435
0.0615277
0.0509819
0.0390166
0.0292773
0.0219138
0.0171149
0.0137021
0.0114476
0.00984041
0.00875684
0.00800235
0.00750081
0.00716426
0.00694744
0.00680945
0.00672727
0.006683
0.00666537
0.00666506
0.0066743
0.0067671
0.00678498
0.00683205
0.00691809
0.00705121
0.00723966
0.0074937
0.0078273
0.0082589
0.00881226
0.00951737
0.010412
0.0115328
0.012965
0.0148172
0.017256
0.0207149
0.0259271
0.0357663
0.0513893
0.0709807
0.0777974
0.0628144
0.0468483
0.034724
0.0252395
0.0194754
0.0152124
0.0125565
0.0105891
0.00930727
0.00838034
0.00777429
0.00735184
0.00707955
0.00689711
0.00678314
0.0067125
0.00667408
0.00665697
0.00665432
0.00680849
0.00684685
0.00692171
0.00704557
0.00722988
0.0074862
0.00782802
0.00827244
0.00884141
0.00956273
0.0104709
0.0116099
0.0130268
0.0148099
0.0171043
0.0200798
0.0245213
0.0309702
0.0441557
0.0634828
0.0867832
0.0976561
0.0776789
0.0565064
0.0419521
0.029419
0.0226814
0.0171314
0.0140696
0.0115588
0.010072
0.00888648
0.00816564
0.00761376
0.0072761
0.00702803
0.00687585
0.00676905
0.00670508
0.00666445
0.00664348
0.00687201
0.00693802
0.00704909
0.00721983
0.00746719
0.00780593
0.00825644
0.00883803
0.00957986
0.0105111
0.0116748
0.0131158
0.0148962
0.0170827
0.0199823
0.0234475
0.0294444
0.0369999
0.0549062
0.0777086
0.103379
0.121685
0.0967666
0.0683331
0.0519907
0.034618
0.0273098
0.0195318
0.0162783
0.0127805
0.0112085
0.00954154
0.00876711
0.00797077
0.00759331
0.00722053
0.00703919
0.00686814
0.00678221
0.00670562
0.00666597
0.00663359
0.00663387
0.00665951
0.006686
0.00669867
0.00669289
0.00667312
0.00664911
0.00663314
0.00664163
0.0066998
0.00685464
0.00720668
0.0080049
0.00999719
0.0163828
0.0572035
0.00661495
0.00663013
0.00665986
0.00668535
0.00669541
0.00668874
0.00667211
0.00665656
0.00665651
0.00669301
0.00680128
0.00704794
0.00757424
0.00872166
0.0114743
0.0195785
0.0640496
0.00660043
0.00662458
0.0066543
0.00667639
0.00668297
0.00667565
0.00666305
0.00665805
0.00667838
0.00675161
0.00692553
0.00729101
0.00803714
0.00960705
0.0132248
0.0233549
0.0716114
0.00658894
0.00661471
0.00664131
0.00665853
0.00666167
0.00665465
0.00664766
0.00665572
0.00670106
0.00681952
0.00707439
0.00758507
0.00859505
0.010657
0.0152396
0.0274775
0.0805873
0.00657583
0.00659943
0.00662106
0.00663319
0.00663365
0.00662811
0.00662817
0.00665157
0.00672574
0.00689639
0.00724486
0.00792329
0.00923575
0.0118528
0.017501
0.0320243
0.0911293
0.00655963
0.00657852
0.0065945
0.00660211
0.00660112
0.00659839
0.00660685
0.00664714
0.00675225
0.00697886
0.0074284
0.00828945
0.00993284
0.0131576
0.0199709
0.0370067
0.103323
0.00653973
0.00655286
0.00656346
0.00656768
0.00656668
0.006568
0.00658575
0.00664322
0.00677891
0.00706065
0.00761095
0.00865746
0.0106435
0.014509
0.0225725
0.0423596
0.117152
0.00651682
0.006524
0.00653016
0.0065324
0.00653277
0.00653913
0.00656647
0.00663999
0.00680305
0.00713372
0.00777492
0.00899386
0.0113103
0.0158176
0.0251808
0.0479428
0.132445
0.0064919
0.00649399
0.00649693
0.00649867
0.00650161
0.00651368
0.00655019
0.00663735
0.00682202
0.00719029
0.00790263
0.00926311
0.0118678
0.0169726
0.0276228
0.0535088
0.148837
0.00646703
0.00646491
0.00646603
0.00646855
0.00647499
0.00649309
0.00653779
0.00663539
0.00683424
0.007225
0.00798041
0.00943448
0.0122531
0.0178545
0.0296863
0.0586967
0.165745
0.00644348
0.00643878
0.0064393
0.00644366
0.0064542
0.00647829
0.00652996
0.00663467
0.0068399
0.00723663
0.00800233
0.00948919
0.0124178
0.0183545
0.03115
0.0630749
0.182376
0.00642354
0.00641721
0.00641821
0.00642509
0.00644003
0.00646973
0.00652721
0.00663615
0.00684107
0.00722876
0.00797227
0.00942589
0.0123399
0.0183963
0.031824
0.0662519
0.197796
0.00640782
0.00640136
0.00640362
0.0064135
0.00643276
0.00646754
0.0065298
0.00664097
0.00684122
0.007209
0.00790391
0.00926361
0.0120329
0.017954
0.0315793
0.067883
0.211012
0.00639799
0.00639189
0.00639595
0.00640893
0.00643224
0.0064715
0.00653772
0.00665016
0.006844
0.00718711
0.00781859
0.00904076
0.0115496
0.0170655
0.0303405
0.0675903
0.221068
0.006394
0.00638899
0.006395
0.00641096
0.00643796
0.00648114
0.00655072
0.00666416
0.00685213
0.00717198
0.00773922
0.00880721
0.0109822
0.0158616
0.0281944
0.0651742
0.227153
0.00639684
0.00639298
0.00640068
0.0064192
0.00644942
0.00649596
0.00656839
0.00668285
0.00686667
0.00716861
0.00768252
0.00860939
0.0104383
0.0145394
0.0253814
0.0606399
0.228662
0.00640659
0.00640414
0.00641312
0.00643368
0.00646659
0.00651596
0.00659077
0.00670627
0.00688764
0.00717791
0.00765492
0.00847485
0.0100061
0.013317
0.0222609
0.0542014
0.225191
0.00642391
0.0064233
0.00643331
0.00645536
0.00649041
0.00654219
0.00661907
0.00673562
0.0069157
0.00719906
0.00765419
0.00840757
0.0097309
0.0123852
0.0193433
0.0464595
0.21655
0.00644952
0.00645167
0.00646302
0.00648632
0.0065232
0.00657722
0.00665621
0.00677411
0.00695384
0.00723325
0.00767614
0.00839392
0.00960102
0.011825
0.0171268
0.0386114
0.202849
0.00648415
0.00649116
0.00650535
0.00653042
0.00656933
0.0066259
0.00670756
0.00682769
0.00700836
0.00728605
0.00772189
0.00842038
0.00957149
0.0115756
0.0158256
0.0320901
0.184675
0.0065295
0.00654436
0.00656447
0.00659357
0.00663591
0.00669618
0.00678182
0.00690577
0.00708936
0.00736771
0.00779973
0.00848545
0.00960525
0.0115088
0.0152758
0.0280725
0.163389
0.0065872
0.00661421
0.00664517
0.00668295
0.00673252
0.00679957
0.00689212
0.00702302
0.00721274
0.00749512
0.00792686
0.00860388
0.00970005
0.0115509
0.0151855
0.0270796
0.140968
0.00666084
0.00670554
0.0067538
0.00680707
0.0068702
0.00694926
0.0070527
0.0071932
0.00739063
0.00767701
0.00810592
0.00876825
0.00983014
0.0116184
0.0151505
0.0265194
0.121454
0.00675461
0.00682283
0.00689574
0.00697325
0.00705884
0.00715819
0.00727959
0.00743545
0.00764455
0.00793663
0.00836142
0.0090036
0.0100208
0.0117299
0.015162
0.0262004
0.105187
0.00687721
0.00697303
0.00707912
0.00719072
0.00730944
0.00743974
0.00758912
0.00776908
0.00799689
0.00829944
0.00872165
0.00934066
0.0103041
0.011917
0.0152371
0.0261644
0.091975
0.00701917
0.00716096
0.00731039
0.0074664
0.00762919
0.0078016
0.00798983
0.00820405
0.00845964
0.00878006
0.00920425
0.00980034
0.0107042
0.0122089
0.0153889
0.0263627
0.0814504
0.00722025
0.00739783
0.00759658
0.00780497
0.00802032
0.00824341
0.00847888
0.00873539
0.0090265
0.00937216
0.00980478
0.0103823
0.0112274
0.0126238
0.0156567
0.0268319
0.0732296
0.00742646
0.00767779
0.00793752
0.00820494
0.00847743
0.00875472
0.00904041
0.00934204
0.00967132
0.0100456
0.010492
0.0110598
0.0118586
0.0131679
0.0160993
0.0278418
0.067153
0.00773069
0.00801964
0.00833602
0.00866146
0.00898919
0.00931762
0.00964958
0.00999243
0.0103568
0.0107592
0.0112229
0.0117957
0.0125794
0.0138575
0.0167861
0.0292366
0.0631807
0.0080085
0.00839456
0.00877832
0.00916058
0.00953777
0.00990974
0.0102802
0.0106582
0.0110547
0.0114878
0.011982
0.012586
0.0134098
0.0147536
0.0178312
0.0306427
0.061252
0.00842024
0.00883131
0.00926198
0.00968902
0.0101049
0.0105113
0.0109147
0.0113271
0.0117633
0.012243
0.0127967
0.0134817
0.0144234
0.0159467
0.0193211
0.0326069
0.0614327
0.00875474
0.00927047
0.00975873
0.0102253
0.0106723
0.0111086
0.0115464
0.012002
0.0124964
0.0130569
0.0137221
0.0145573
0.0156976
0.0174822
0.0211594
0.034165
0.0636681
0.00924204
0.00975577
0.0102677
0.0107581
0.0112294
0.0116951
0.0121743
0.0126904
0.0132747
0.0139688
0.0148201
0.0158902
0.0173064
0.0194014
0.0232758
0.034853
0.0674329
0.00959544
0.0102031
0.0107544
0.0112687
0.0117644
0.012265
0.0127995
0.0134044
0.0141305
0.0150392
0.0161781
0.0175958
0.019407
0.021913
0.0260062
0.0360451
0.0717745
0.0100985
0.0106759
0.0112291
0.0117545
0.0122727
0.0128172
0.0134331
0.0141769
0.015123
0.0163548
0.017922
0.0198563
0.0222496
0.0253696
0.02996
0.0392501
0.0756327
0.0104324
0.011083
0.0116592
0.0122005
0.0127496
0.0133628
0.0141087
0.0150616
0.0163219
0.0180218
0.0202072
0.0228877
0.0261401
0.0302169
0.0357822
0.0454375
0.078782
0.0109003
0.0114993
0.0120615
0.0126116
0.0132087
0.0139335
0.014872
0.0161103
0.0178006
0.0201639
0.0232233
0.0269671
0.0314815
0.0370443
0.0443227
0.0556208
0.0813057
0.0111918
0.011837
0.0124093
0.0129893
0.0136736
0.0145654
0.0157634
0.0173687
0.0196496
0.0229653
0.0272434
0.0324732
0.0388185
0.0466745
0.0568466
0.0715585
0.0831143
0.011593
0.0121688
0.01273
0.0133605
0.0141755
0.0152913
0.0168158
0.0188976
0.0220153
0.026703
0.0326285
0.0399009
0.0489188
0.0603741
0.0754767
0.0967428
0.0838602
0.0118213
0.0124255
0.0130188
0.0137429
0.0147395
0.0161355
0.0180744
0.0207865
0.0251219
0.0317517
0.0398291
0.0499504
0.0630011
0.0803104
0.10408
0.138113
0.0830979
0.0163597
0.0169273
0.017513
0.0181133
0.0187212
0.0193277
0.0199219
0.0204915
0.0210236
0.0215055
0.0219247
0.0222702
0.0225326
0.0227045
0.0227813
0.0227608
0.0226437
0.0224338
0.0221386
0.0217708
0.0213354
0.0208097
0.0202163
0.0195703
0.0188893
0.0181855
0.0174735
0.0167744
0.0161775
0.0155518
0.0150669
0.0145468
0.0141741
0.0137666
0.0134905
0.0131758
0.012972
0.0127122
0.012547
0.0122921
0.0121295
0.0179026
0.0185843
0.0192898
0.0200111
0.020738
0.0214582
0.0221578
0.0228225
0.0234372
0.0239877
0.0244606
0.024844
0.0251284
0.0253065
0.0253741
0.0253298
0.0251756
0.0249166
0.0245619
0.0241263
0.023616
0.0230042
0.0223219
0.0215842
0.0208094
0.0200107
0.0191777
0.0183802
0.0176223
0.0168981
0.0162387
0.0156252
0.0150921
0.0146101
0.0142079
0.0138498
0.0135587
0.0132924
0.0130772
0.0128637
0.0126812
0.0197731
0.0205997
0.0214509
0.0223155
0.0231801
0.0240295
0.0248475
0.0256173
0.0263225
0.0269473
0.0274772
0.0278999
0.0282056
0.0283872
0.0284412
0.0283672
0.0281684
0.0278514
0.0274273
0.0269128
0.0263134
0.0256019
0.0248194
0.0239799
0.0231028
0.0222021
0.0212593
0.0203431
0.0194589
0.0186136
0.0178168
0.0170732
0.0163959
0.0157862
0.0152527
0.0147892
0.0143963
0.0140602
0.0137779
0.013531
0.0133129
0.0220457
0.0230452
0.024067
0.0250967
0.026118
0.0271131
0.0280636
0.0289507
0.0297562
0.0304628
0.0310551
0.0315201
0.0318477
0.0320313
0.0320678
0.0319582
0.031707
0.0313227
0.0308181
0.0302123
0.0295084
0.0286821
0.0277859
0.0268314
0.0258396
0.0248259
0.0237949
0.0227218
0.0217067
0.0207391
0.019817
0.018945
0.0181318
0.0173849
0.0167121
0.0161165
0.0155987
0.0151535
0.0147741
0.0144484
0.0141657
0.0248005
0.0260015
0.0272197
0.028438
0.0296375
0.030798
0.0318985
0.0329183
0.0338373
0.0346366
0.0352995
0.0358122
0.0361644
0.0363497
0.0363661
0.0362155
0.0359043
0.0354429
0.0348464
0.0341357
0.0333112
0.0323541
0.0313285
0.0302434
0.0291215
0.0279798
0.0268317
0.0255992
0.0244455
0.0233441
0.0222929
0.0212941
0.0203522
0.0194731
0.0186639
0.0179304
0.0172761
0.0167006
0.0161998
0.0157651
0.0153864
0.0281369
0.0295703
0.0310137
0.0324481
0.0338517
0.0352016
0.0364746
0.0376474
0.0386975
0.0396043
0.0403495
0.0409184
0.0413004
0.0414894
0.0414843
0.0412885
0.0409103
0.0403623
0.039662
0.0388327
0.0378714
0.036767
0.0355951
0.0343621
0.0330924
0.0318048
0.0305146
0.0291934
0.0278239
0.0265468
0.0253461
0.0242108
0.0231381
0.02213
0.0211905
0.0203244
0.0195355
0.0188254
0.0181925
0.0176312
0.017134
0.0321893
0.0338899
0.0355924
0.0372756
0.0389149
0.0404846
0.0419583
0.0433098
0.044514
0.0455477
0.046391
0.0470282
0.0474482
0.0476454
0.0476195
0.0473758
0.0469247
0.0462815
0.0454662
0.0445046
0.0433909
0.0421228
0.0407872
0.0393881
0.037952
0.0364995
0.0350479
0.0336117
0.0320637
0.0305656
0.029167
0.0278601
0.0266351
0.0254869
0.0244143
0.0234185
0.022501
0.0216624
0.0209012
0.0202128
0.0195889
0.0371493
0.039157
0.0411584
0.0431297
0.0450432
0.0468696
0.0485787
0.0501407
0.0515273
0.0527125
0.0536744
0.0543959
0.0548656
0.0550782
0.055035
0.0547429
0.054215
0.0534694
0.0525291
0.0514229
0.0501426
0.0486958
0.0471798
0.0455971
0.0439761
0.04234
0.0407085
0.0390982
0.0375232
0.0358081
0.0341033
0.0325488
0.0311167
0.0297897
0.0285586
0.0274188
0.0263679
0.0254035
0.0245223
0.0237544
0.0231726
0.0432971
0.0456586
0.0480054
0.0503112
0.0525441
0.0546706
0.056656
0.0584663
0.060069
0.0614352
0.0625405
0.0633665
0.0639014
0.0641406
0.0640865
0.0637488
0.063143
0.0622906
0.0612182
0.0599574
0.0584993
0.0568616
0.0551509
0.0533692
0.0515473
0.0497114
0.0478837
0.0460839
0.0443288
0.0426324
0.0409003
0.0390781
0.0372645
0.0356035
0.0341203
0.0327944
0.0316419
0.0306958
0.0299949
0.0295503
0.0293089
0.0510525
0.0538206
0.0565658
0.0592585
0.061862
0.0643375
0.0666452
0.0687461
0.0706032
0.0721842
0.073462
0.0744167
0.0750363
0.0753169
0.0752628
0.0748861
0.0742058
0.0732468
0.0720395
0.0706191
0.068977
0.0671414
0.0652267
0.0632354
0.0612015
0.0591542
0.0571193
0.0551197
0.0531755
0.0513041
0.0495208
0.0478389
0.0462704
0.0447511
0.0433241
0.0420649
0.0410044
0.040149
0.0394872
0.0389867
0.0385983
0.0610568
0.0642882
0.0674884
0.0706234
0.0736513
0.0765271
0.0792053
0.0816412
0.0837932
0.085625
0.087107
0.0882178
0.0889452
0.0892866
0.0892482
0.0888451
0.0880998
0.0870413
0.085704
0.0841267
0.0823031
0.0802716
0.0781522
0.0759495
0.0737005
0.0714384
0.0691926
0.0669899
0.0648541
0.0628062
0.0608648
0.0590464
0.0573654
0.0558337
0.0544601
0.0532495
0.0522017
0.0513112
0.0505671
0.049953
0.049441
0.0743118
0.0780603
0.0817681
0.0853969
0.0888986
0.0922216
0.0953141
0.0981256
0.10061
0.102727
0.104444
0.105739
0.1066
0.107025
0.107024
0.106614
0.105823
0.104682
0.103231
0.101513
0.0995244
0.0973137
0.0950033
0.0926011
0.0901475
0.0876794
0.0852303
0.0828304
0.0805071
0.0782844
0.0761838
0.0742236
0.0724187
0.0707798
0.0693125
0.0680164
0.0668855
0.0659089
0.0650716
0.0643539
0.0637242
0.0924267
0.0967265
0.100974
0.105128
0.109133
0.112931
0.116464
0.119675
0.122515
0.124939
0.126914
0.128417
0.129435
0.129971
0.130034
0.129648
0.128841
0.127652
0.126122
0.124298
0.122184
0.119834
0.117369
0.114802
0.112176
0.109531
0.106904
0.104327
0.101829
0.0994387
0.097177
0.0950628
0.0931101
0.0913274
0.0897171
0.0882754
0.0869938
0.0858597
0.0848568
0.0839637
0.0831461
0.118072
0.122902
0.127666
0.132322
0.136807
0.141057
0.145009
0.148603
0.151784
0.154508
0.156738
0.158454
0.159644
0.160312
0.160472
0.160148
0.159375
0.158193
0.156646
0.154784
0.152617
0.150205
0.147661
0.145002
0.142273
0.139515
0.136765
0.134058
0.131424
0.12889
0.126478
0.124206
0.122086
0.120127
0.118328
0.116685
0.115192
0.113835
0.112599
0.111463
0.110388
0.155855
0.161067
0.16619
0.171195
0.176013
0.180576
0.184818
0.188678
0.1921
0.19504
0.197464
0.199352
0.200696
0.201501
0.201785
0.201574
0.200903
0.199814
0.198353
0.196568
0.194477
0.19214
0.189653
0.187039
0.18434
0.181597
0.178844
0.176115
0.173439
0.170839
0.168339
0.165952
0.163693
0.161567
0.159576
0.157718
0.155987
0.154373
0.152862
0.151438
0.150049
0.214097
0.21925
0.224277
0.229187
0.233912
0.238387
0.242548
0.246337
0.249705
0.252611
0.255026
0.256934
0.25833
0.259221
0.259626
0.259571
0.259089
0.258219
0.257002
0.255482
0.253681
0.251651
0.249464
0.247145
0.244731
0.242253
0.239744
0.237229
0.234734
0.23228
0.229883
0.227557
0.225314
0.223159
0.221097
0.219126
0.217244
0.215443
0.213713
0.212044
0.210347
0.308612
0.312644
0.316455
0.320179
0.323764
0.327162
0.330325
0.333212
0.335787
0.338021
0.339896
0.341401
0.342534
0.343304
0.343724
0.343813
0.343596
0.343101
0.342355
0.34139
0.340223
0.338888
0.337427
0.335857
0.334201
0.332481
0.330717
0.328924
0.327118
0.325311
0.323515
0.321738
0.319988
0.318267
0.31658
0.314926
0.313304
0.311711
0.310139
0.308581
0.306847
0.058333
0.0160995
0.00984568
0.00795967
0.00722553
0.00690422
0.00675759
0.00669326
0.00667085
0.00667107
0.00668366
0.00670251
0.00672384
0.00674567
0.00676822
0.00679497
0.00683666
0.0653997
0.0193633
0.0113582
0.00870141
0.00761687
0.00712225
0.00688457
0.00677079
0.00672122
0.00670657
0.0067114
0.00672659
0.00674608
0.00676573
0.00678329
0.00679993
0.00682216
0.0732287
0.0233727
0.0132081
0.00964927
0.0081271
0.00740483
0.00704351
0.0068611
0.00677319
0.00673757
0.00673153
0.00674174
0.00675933
0.00677782
0.00679284
0.0068035
0.0068119
0.0825138
0.0277191
0.0153526
0.0107894
0.00875268
0.00775154
0.00723435
0.00696345
0.00682543
0.006762
0.00674128
0.00674443
0.0067592
0.00677673
0.00679068
0.00679791
0.00680086
0.0934035
0.0324918
0.0177638
0.0120946
0.00947573
0.00815161
0.0074507
0.00707422
0.00687575
0.00677842
0.00673945
0.00673356
0.00674442
0.00676069
0.0067742
0.00678036
0.0067803
0.10596
0.0376862
0.0203838
0.0135151
0.0102617
0.00858335
0.00768012
0.00718715
0.00692183
0.0067867
0.00672694
0.00671026
0.00671599
0.00673027
0.00674356
0.00675039
0.00674951
0.120116
0.0432381
0.0231249
0.0149786
0.0110599
0.00901465
0.00790436
0.00729348
0.00696092
0.00678763
0.00670641
0.00667785
0.00667728
0.00668851
0.00670106
0.00670863
0.00671021
0.135649
0.0489823
0.0258527
0.0163874
0.0118057
0.00940648
0.0081022
0.00738362
0.00699061
0.00678293
0.00668173
0.00664117
0.00663336
0.00664037
0.00665113
0.00665911
0.00666386
0.152149
0.0546458
0.0283863
0.0176256
0.0124287
0.00971936
0.00825389
0.00744969
0.00700984
0.00677524
0.00665745
0.00660574
0.00659013
0.00659193
0.00659995
0.00660813
0.00661519
0.168994
0.0598613
0.0305097
0.0185706
0.0128628
0.00992051
0.00834547
0.00748773
0.00701962
0.00676794
0.00663807
0.00657669
0.00655304
0.00654875
0.00655298
0.00656011
0.00656899
0.185351
0.0641959
0.0319964
0.0191098
0.0130574
0.00999072
0.0083724
0.0074991
0.00702325
0.0067648
0.00662741
0.00655798
0.00652642
0.00651542
0.00651504
0.00652003
0.00653057
0.200227
0.0672151
0.0326479
0.019164
0.0129898
0.00993023
0.00834158
0.00749079
0.00702584
0.00676922
0.00662796
0.00655177
0.00651268
0.00649479
0.00648939
0.00649208
0.00650311
0.212574
0.0685833
0.0323411
0.0187087
0.0126758
0.00976246
0.00827154
0.00747436
0.00703346
0.00678377
0.00664057
0.00655847
0.00651223
0.00648756
0.00647679
0.00647652
0.00648704
0.221347
0.0679249
0.0309958
0.0177834
0.0121754
0.009534
0.00819023
0.00746365
0.00705163
0.00680984
0.00666486
0.00657706
0.00652406
0.00649305
0.00647726
0.00647396
0.00648513
0.225627
0.0650798
0.0287415
0.0165492
0.0116026
0.0093082
0.00812732
0.00747005
0.00708322
0.00684694
0.00669923
0.00660574
0.00654649
0.00650998
0.00649043
0.00648588
0.00649872
0.224797
0.060152
0.0258825
0.0152414
0.011083
0.00913843
0.00810101
0.00749752
0.00712739
0.00689302
0.0067417
0.00664295
0.00657858
0.00653811
0.00651669
0.0065129
0.0065292
0.218659
0.0535624
0.0228634
0.0141009
0.0107078
0.009049
0.00811302
0.0075429
0.00718134
0.00694664
0.00679211
0.0066897
0.00662231
0.00658029
0.00655948
0.00655841
0.00657941
0.207477
0.0462076
0.0202398
0.0133056
0.0105046
0.00903048
0.00815265
0.00760064
0.00724388
0.00700953
0.00685414
0.00675094
0.00668353
0.00664293
0.00662517
0.00662879
0.00665306
0.191963
0.0395002
0.0184571
0.012883
0.0104328
0.00905473
0.00820909
0.00767
0.00731974
0.00708943
0.00693712
0.0068367
0.00677218
0.006735
0.00672102
0.00672834
0.00675472
0.173293
0.0349047
0.0176096
0.0127176
0.0104282
0.00910129
0.00828258
0.00776049
0.00742287
0.00720226
0.00705735
0.00696235
0.00690177
0.00686712
0.00685419
0.00686028
0.00688442
0.153262
0.0333931
0.0174171
0.0126638
0.0104507
0.00917058
0.00838797
0.0078933
0.00757676
0.00737122
0.00723587
0.00714569
0.00708599
0.00704904
0.00703113
0.00703032
0.00704511
0.134314
0.0346341
0.0175728
0.0126712
0.0105089
0.00929013
0.00855799
0.00810186
0.00781182
0.00762167
0.00749233
0.00740086
0.00733441
0.00728659
0.00725487
0.00723865
0.00723883
0.119499
0.0361435
0.0176424
0.0126515
0.0105916
0.00947063
0.00881207
0.00840616
0.00814518
0.0079669
0.00783656
0.00773499
0.0076522
0.00758374
0.00752871
0.00748757
0.00746571
0.108146
0.0373451
0.017562
0.0126392
0.0107483
0.00975645
0.0091851
0.00883018
0.00859151
0.00841478
0.00827213
0.00814949
0.00804026
0.00794233
0.00785703
0.00778616
0.00773367
0.098973
0.0375514
0.0173161
0.012692
0.0110287
0.010182
0.00969658
0.0093821
0.0091519
0.00896329
0.00879656
0.00864265
0.00849799
0.00836267
0.00823989
0.00813244
0.00804895
0.0905122
0.0363204
0.0169713
0.0128705
0.0114616
0.0107564
0.0103416
0.0100503
0.00981347
0.00960153
0.00940203
0.00920982
0.00902343
0.00884441
0.00867637
0.00852219
0.00839698
0.0818341
0.0341681
0.0166884
0.0132159
0.0120497
0.0114638
0.011096
0.0108101
0.0105556
0.0103136
0.0100772
0.0098438
0.00961277
0.00938597
0.00916758
0.00896286
0.00877798
0.0731485
0.0321683
0.0166455
0.0137591
0.0127853
0.0122806
0.0119343
0.0116396
0.0113601
0.0110849
0.0108105
0.0105353
0.0102587
0.00998252
0.00971122
0.00945183
0.00921622
0.0654954
0.0303703
0.0170213
0.0145462
0.0136785
0.013205
0.0128539
0.0125359
0.0122236
0.0119103
0.0115947
0.0112759
0.0109534
0.0106272
0.0103003
0.00997828
0.00968295
0.0602387
0.0293743
0.0179627
0.0156337
0.0147656
0.0142688
0.013882
0.0135201
0.0131591
0.0127955
0.0124296
0.0120611
0.0116886
0.0113112
0.0109293
0.0105451
0.0101655
0.0585378
0.0301625
0.0194789
0.0170571
0.0160943
0.0155207
0.0150599
0.0146228
0.0141871
0.0137518
0.0133191
0.0128887
0.0124585
0.0120258
0.0115881
0.0111448
0.0106979
0.060579
0.031802
0.0214416
0.0188434
0.017722
0.017017
0.0164332
0.0158771
0.0153294
0.0147923
0.014269
0.013759
0.0132588
0.0127634
0.012267
0.0117633
0.0112442
0.0650594
0.0333315
0.0238503
0.0210802
0.0197434
0.0188389
0.0180649
0.0173297
0.0166188
0.0159381
0.0152912
0.0146764
0.0140882
0.0135186
0.0129578
0.0123934
0.0117878
0.0699447
0.0354332
0.0269705
0.0239742
0.0223209
0.0211097
0.0200491
0.0190531
0.0181112
0.0172306
0.0164142
0.0156581
0.0149541
0.014291
0.0136547
0.0130279
0.01234
0.0739239
0.0392031
0.0312653
0.0278369
0.0256853
0.0240034
0.0225162
0.0211465
0.0198841
0.018731
0.0176852
0.0167383
0.0158785
0.0150914
0.0143588
0.0136571
0.0128794
0.0769303
0.0456296
0.0373537
0.0330903
0.030134
0.0277349
0.0256289
0.0237359
0.0220349
0.0205152
0.0191635
0.017963
0.0168958
0.0159428
0.0150819
0.0142774
0.0134113
0.079348
0.0559084
0.0461268
0.0403348
0.0360728
0.0325861
0.0295882
0.0269693
0.0246761
0.02267
0.0209163
0.0193842
0.0180462
0.0168755
0.0158446
0.0148976
0.0139527
0.0812739
0.0719999
0.0589621
0.0504659
0.0440862
0.0389473
0.0346619
0.0310336
0.0279397
0.02529
0.0230142
0.0210563
0.0193713
0.0179218
0.0166715
0.015538
0.0145096
0.0824449
0.0975409
0.0781407
0.0648921
0.0550536
0.0473784
0.0412128
0.036168
0.0319859
0.0284848
0.0255328
0.0230328
0.0209118
0.0191126
0.0175864
0.0162301
0.0150933
0.0825017
0.139744
0.107778
0.0859917
0.0703745
0.0587194
0.0497537
0.0426899
0.0370144
0.0323821
0.0285558
0.0253698
0.0227057
0.0204764
0.0186086
0.0170102
0.015706
0.00703131
0.00740244
0.00814895
0.00945664
0.011558
0.0147527
0.0195122
0.0272499
0.0440032
0.0945929
0.151077
0.0823971
0.0406212
0.0221746
0.0140335
0.0101731
0.00831115
0.00741151
0.00697162
0.00675326
0.00720786
0.00771788
0.0086923
0.0103549
0.0129765
0.0168916
0.0227249
0.0323856
0.053459
0.117978
0.191786
0.10324
0.0497364
0.0262538
0.0159224
0.0110575
0.00873709
0.00762779
0.00708561
0.00681249
0.00747202
0.00815486
0.00941625
0.0115301
0.0148241
0.0197052
0.0270876
0.0393087
0.0659521
0.148168
0.243576
0.131022
0.0622449
0.0319535
0.0185728
0.012281
0.0093129
0.00791697
0.00724133
0.00689941
0.00785358
0.00875783
0.0103884
0.0130924
0.0172882
0.0235013
0.0330562
0.0486493
0.0828024
0.187906
0.309654
0.168417
0.0795181
0.039994
0.0223501
0.0140102
0.0101073
0.008307
0.00745165
0.00702106
0.00839437
0.00958983
0.0117054
0.0151971
0.0206211
0.0287465
0.0413376
0.061734
0.106354
0.241267
0.394261
0.218881
0.103408
0.0514012
0.0278014
0.0165035
0.0112282
0.00884137
0.00773607
0.00718756
0.00916174
0.010751
0.0135191
0.0180818
0.0252035