/*--------------------------------*- C++ -*----------------------------------*\
  =========                 |
  \\      /  F ield         | OpenFOAM: The Open Source CFD Toolbox
   \\    /   O peration     | Website:  https://openfoam.org
    \\  /    A nd           | Version:  6
     \\/     M anipulation  |
\*---------------------------------------------------------------------------*/
FoamFile
{
    version     2.0;
    format      ascii;
    class       surfaceVectorField;
    location    "1.08";
    object      Uf;
}
// * * * * * * * * * * * * * * * * * * * * * * * * * * * * * * * * * * * * * //

dimensions      [0 1 -1 0 0 0 0];

internalField   nonuniform List<vector> 
8193
(
(4.97292 0.00281585 0)
(4.99406 -0.00818471 0)
(4.9567 -0.013291 0)
(4.96567 0.0218801 0)
(4.98492 0.0122226 3.41208e-21)
(4.95478 0.0436817 -3.3202e-21)
(4.972 0.0346855 3.6333e-21)
(4.95202 0.0631134 -5.25388e-20)
(4.96479 0.0538072 1.56636e-20)
(4.95774 0.0789082 2.50317e-21)
(4.96594 0.0704021 6.19337e-21)
(4.97156 0.0919534 7.06311e-22)
(4.97453 0.0850954 -2.59381e-21)
(4.99085 0.101862 1.42406e-20)
(4.99069 0.0974129 1.79678e-21)
(5.00941 0.109847 -9.11672e-22)
(5.00906 0.107049 -7.21205e-22)
(5.02224 0.116747 -2.67844e-22)
(5.02362 0.114787 2.25465e-21)
(5.02821 0.122318 -1.86764e-22)
(5.03082 0.121253 -6.53902e-22)
(5.03009 0.125511 1.3846e-22)
(5.03176 0.125925 4.01914e-22)
(5.03154 0.124742 6.92114e-23)
(5.03014 0.127251 -2.1043e-23)
(5.03436 0.119494 3.95869e-22)
(5.02956 0.124279 1.06315e-22)
(5.03809 0.110309 -1.12902e-22)
(5.03087 0.117066 -5.6414e-24)
(5.04137 0.0980145 0)
(5.03286 0.106222 0)
(5.0433 0.0833474 0)
(5.03411 0.0925771 3.40468e-22)
(5.04405 0.0669178 -1.0662e-23)
(5.03411 0.0768314 0)
(5.0443 0.0490318 -3.5116e-23)
(5.03346 0.0596023 -1.07051e-23)
(5.04377 0.0301951 1.0549e-23)
(5.03285 0.0407988 1.05217e-23)
(5.04323 0.0103802 0)
(5.03079 0.0214293 0)
(5.04203 -0.00995139 5.86289e-22)
(5.03033 0.000226906 0)
(5.03959 -0.0294088 6.02257e-22)
(5.02808 -0.0201086 -6.17291e-21)
(5.03723 -0.0478416 -3.33879e-23)
(5.02607 -0.0394702 2.06469e-21)
(5.03491 -0.0650415 -1.10595e-23)
(5.02424 -0.0577353 -1.0995e-23)
(5.0325 -0.0804381 -2.68208e-22)
(5.02292 -0.0746725 2.85633e-22)
(5.02964 -0.0932987 -9.41257e-22)
(5.02196 -0.0890962 5.91242e-21)
(5.02593 -0.103241 8.56498e-24)
(5.02071 -0.10063 -1.19502e-22)
(5.02126 -0.110097 -3.02713e-22)
(5.01871 -0.109154 1.28885e-22)
(5.01587 -0.113762 -3.63835e-22)
(5.01604 -0.114682 3.09673e-22)
(5.00993 -0.114246 5.31116e-23)
(5.01299 -0.117148 -1.26967e-22)
(5.00298 -0.111845 3.23754e-22)
(5.00935 -0.116549 -7.7845e-23)
(4.99395 -0.107093 -1.85066e-21)
(5.00408 -0.113052 2.64622e-21)
(4.98197 -0.100512 -2.85113e-22)
(4.99592 -0.107019 9.9471e-22)
(4.96743 -0.0922784 -1.91663e-21)
(4.98464 -0.0988271 -2.96515e-21)
(4.95233 -0.0822881 2.84225e-20)
(4.97138 -0.0886726 4.45824e-22)
(4.94025 -0.0700964 -3.73253e-20)
(4.95861 -0.0766707 4.18804e-21)
(4.93412 -0.0558168 9.07998e-20)
(4.95009 -0.0632386 -7.39596e-21)
(4.9349 -0.0388634 -9.82631e-20)
(4.94784 -0.0485903 2.27344e-20)
(4.94008 -0.0193328 -7.10937e-21)
(4.95301 -0.03203 -1.69525e-20)
(4.936 -0.000787279 -1.58594e-22)
(4.96141 -0.0121837 1.03404e-20)
(4.96037 0.0081655 -4.61193e-21)
(4.90225 0.0167419 -1.37336e-22)
(5.00465 0.00961173 3.37575e-21)
(5.01394 0.00201686 0)
(5.01468 -0.0158875 -3.84464e-20)
(4.98819 0.0293526 6.92911e-21)
(4.99595 0.0213777 5.49936e-21)
(4.97762 0.0470143 7.73051e-21)
(4.98336 0.0407627 1.22775e-20)
(4.97489 0.0636608 7.80874e-21)
(4.97743 0.0572491 1.58252e-20)
(4.97955 0.0787234 2.4178e-20)
(4.97873 0.0727132 1.06557e-20)
(4.99118 0.0925219 -1.46129e-21)
(4.98722 0.0876478 -8.90473e-22)
(5.00681 0.103797 1.08792e-21)
(5.00153 0.100869 4.98811e-21)
(5.02158 0.112668 5.92185e-23)
(5.01737 0.111331 -3.5782e-21)
(5.03085 0.119656 1.31889e-22)
(5.02943 0.119136 2.85394e-21)
(5.03333 0.124854 1.03827e-21)
(5.03446 0.124964 1.27905e-21)
(5.03146 0.1277 -9.98248e-23)
(5.03345 0.128744 1.04463e-22)
(5.02872 0.126812 1.61139e-23)
(5.02948 0.129464 2.7583e-22)
(5.02739 0.121795 2.94758e-23)
(5.0265 0.126311 -2.01175e-22)
(5.02755 0.112792 2.95802e-23)
(5.0255 0.119155 7.0508e-23)
(5.028 0.100504 3.40146e-22)
(5.02554 0.108341 0)
(5.02775 0.0857448 3.42003e-22)
(5.02527 0.0946728 7.76847e-22)
(5.02673 0.0691996 0)
(5.02411 0.0788559 -7.59656e-22)
(5.02552 0.0511539 0)
(5.02242 0.0615171 -3.70719e-23)
(5.02367 0.0318601 0)
(5.02087 0.0424951 3.63329e-21)
(5.02195 0.0112942 0)
(5.01781 0.022482 -1.66794e-22)
(5.02055 -0.00980373 -5.86853e-22)
(5.01675 0.000572702 0)
(5.0187 -0.0298132 1.45225e-21)
(5.01491 -0.0202309 2.70935e-21)
(5.0171 -0.0488924 2.05798e-21)
(5.01321 -0.0401007 9.17024e-22)
(5.01604 -0.0668649 2.8403e-22)
(5.01183 -0.0590953 0)
(5.01578 -0.082822 1.63143e-21)
(5.01162 -0.0766061 2.80708e-21)
(5.01588 -0.0959882 1.52085e-21)
(5.01238 -0.091391 1.74244e-21)
(5.01563 -0.106203 0)
(5.0131 -0.103241 -1.42063e-21)
(5.01478 -0.113542 2.99389e-22)
(5.01314 -0.112204 -1.53357e-21)
(5.01352 -0.117981 -1.14716e-22)
(5.01266 -0.118366 6.49862e-22)
(5.01183 -0.119426 -3.64528e-22)
(5.01203 -0.121627 -1.5953e-22)
(5.00908 -0.117742 -2.86232e-22)
(5.01112 -0.121845 5.51755e-22)
(5.00413 -0.1131 8.89442e-22)
(5.00873 -0.118939 8.31331e-22)
(4.99614 -0.105646 1.06017e-21)
(5.00366 -0.112971 -9.09029e-22)
(4.98546 -0.0958434 -1.2526e-21)
(4.99529 -0.104184 -4.70125e-22)
(4.97383 -0.0842667 -3.08854e-22)
(4.98439 -0.0929907 -2.18372e-21)
(4.96384 -0.0713289 6.33328e-22)
(4.97318 -0.0800964 0)
(4.95841 -0.0578533 1.05349e-20)
(4.96462 -0.0664614 1.76142e-20)
(4.95972 -0.0437383 3.89969e-21)
(4.96138 -0.0527301 1.0838e-20)
(4.96794 -0.028832 5.35854e-22)
(4.96499 -0.0385055 -2.61482e-20)
(4.97842 -0.0121896 -1.89426e-19)
(4.97394 -0.0220235 2.6616e-20)
(4.98414 -0.00406105 -2.45288e-20)
(4.98106 0.0119999 3.11578e-20)
(5.0101 0.0212513 -3.57427e-21)
(5.02248 0.0125693 2.4874e-20)
(5.03137 0.00320259 4.82603e-20)
(4.99384 0.0360783 -7.33172e-21)
(5.00346 0.0277721 -6.89156e-20)
(4.98533 0.0513286 -7.15632e-21)
(4.99426 0.0454958 3.49513e-20)
(4.98377 0.0672389 3.60957e-21)
(4.99076 0.0617071 -2.77633e-20)
(4.98877 0.0827957 2.24611e-20)
(4.99284 0.0772216 1.86833e-20)
(4.99959 0.0969654 -5.65672e-21)
(5.00073 0.0924611 -8.48354e-21)
(5.0136 0.108725 -4.69012e-21)
(5.01301 0.106119 -1.00566e-20)
(5.02632 0.1178 -3.20384e-21)
(5.02597 0.116902 1.9474e-21)
(5.03375 0.124384 2.43878e-21)
(5.03507 0.124642 -3.07135e-21)
(5.03474 0.128784 1.64761e-21)
(5.03764 0.129889 2.28395e-21)
(5.03136 0.13055 1.46665e-22)
(5.03444 0.1327 4.38659e-22)
(5.02704 0.128998 -5.07239e-23)
(5.02831 0.132549 4.37247e-22)
(5.02408 0.123716 -2.25222e-22)
(5.02314 0.12897 -4.94753e-22)
(5.02267 0.114688 -2.34267e-23)
(5.01996 0.121687 -2.34039e-23)
(5.02178 0.102423 -3.84194e-22)
(5.01807 0.110838 0)
(5.02046 0.0876617 -9.87426e-22)
(5.01627 0.0971061 -1.01328e-21)
(5.01853 0.0710159 -9.02638e-22)
(5.01391 0.0811377 -7.62174e-22)
(5.01642 0.0527606 3.5246e-21)
(5.01114 0.0635135 4.08776e-22)
(5.01361 0.0329469 3.54059e-21)
(5.00849 0.0440764 3.19095e-21)
(5.01115 0.0116493 -1.6744e-22)
(5.0043 0.0232314 -4.79165e-21)
(5.00967 -0.00994989 3.28362e-21)
(5.00282 0.000636424 -1.22022e-22)
(5.00804 -0.030412 -1.85898e-21)
(5.00143 -0.0205524 -1.31196e-21)
(5.00664 -0.0501311 -5.19633e-21)
(4.99994 -0.0409662 -8.21191e-22)
(5.0062 -0.0686917 2.50968e-21)
(4.99902 -0.0604988 6.92089e-21)
(5.00716 -0.0850267 -1.97887e-22)
(5.00004 -0.0784107 -8.90164e-22)
(5.00875 -0.0985293 -4.33816e-21)
(5.00256 -0.0937496 7.76145e-21)
(5.01 -0.109147 -2.7886e-21)
(5.00519 -0.106303 1.19777e-21)
(5.01068 -0.116965 -9.9376e-22)
(5.00721 -0.115977 2.22348e-21)
(5.01113 -0.121961 5.55469e-22)
(5.00885 -0.122775 -8.6966e-22)
(5.01148 -0.124003 9.75815e-23)
(5.01057 -0.126632 4.09782e-22)
(5.01113 -0.122964 -6.44927e-22)
(5.01234 -0.127443 4.42143e-22)
(5.00891 -0.11872 -2.91111e-21)
(5.01303 -0.125083 2.90985e-22)
(5.00372 -0.111369 -2.23777e-21)
(5.01136 -0.119467 -5.91112e-22)
(4.99545 -0.101227 9.19782e-22)
(5.00644 -0.110681 5.38785e-21)
(4.98537 -0.0889383 4.50103e-22)
(4.99849 -0.0991191 -8.30913e-21)
(4.97589 -0.0753643 1.37061e-20)
(4.98912 -0.0856531 9.08125e-21)
(4.96967 -0.0613335 1.76909e-20)
(4.98092 -0.0714855 2.32478e-20)
(4.96876 -0.0474062 -1.8951e-20)
(4.9766 -0.0574599 1.49798e-20)
(4.97406 -0.0340235 1.95276e-21)
(4.97778 -0.0431883 -1.82071e-20)
(4.98514 -0.0206828 -1.48515e-19)
(4.98422 -0.0277457 -4.81137e-21)
(4.99622 -0.0133774 -1.93303e-20)
(4.99866 -0.00438246 -1.47214e-20)
(5.01842 0.0258634 1.35476e-19)
(5.02969 0.0205443 4.68396e-21)
(5.03883 0.0105239 -6.73961e-21)
(5.00522 0.0411062 -1.44653e-19)
(5.01367 0.0347157 -1.9603e-20)
(4.99935 0.0561938 1.43094e-20)
(5.00691 0.0518236 3.05738e-21)
(4.99935 0.0719319 -6.68856e-21)
(5.00529 0.0679919 -2.38977e-20)
(5.00444 0.0876485 1.09428e-20)
(5.00787 0.0834812 1.15897e-20)
(5.01377 0.102154 -4.97095e-21)
(5.01482 0.0987274 2.00488e-21)
(5.025 0.114374 -4.46991e-21)
(5.02483 0.112544 -8.85247e-21)
(5.03434 0.123679 7.15576e-22)
(5.03462 0.123541 9.25773e-21)
(5.03851 0.130066 -2.47888e-21)
(5.04047 0.131281 -2.9962e-21)
(5.03679 0.13379 -7.10348e-23)
(5.04029 0.136047 5.27172e-22)
(5.03112 0.134706 -3.01684e-22)
(5.03477 0.137997 -3.73857e-22)
(5.02452 0.132555 -5.77641e-23)
(5.02661 0.137042 7.35171e-23)
(5.01922 0.126969 -1.7534e-22)
(5.01941 0.132974 -1.64798e-21)
(5.01563 0.11783 0)
(5.01417 0.125466 2.5659e-21)
(5.01289 0.105487 -9.0352e-22)
(5.01038 0.114473 -1.09307e-21)
(5.0101 0.0905499 -9.10602e-22)
(5.00699 0.100514 2.31663e-21)
(5.00694 0.0735775 4.44766e-22)
(5.00335 0.0841616 0)
(5.00365 0.0548414 1.38955e-21)
(4.99942 0.0659542 -7.24081e-22)
(4.99965 0.0342838 -3.64742e-21)
(4.99552 0.0457996 -2.09139e-21)
(4.99644 0.0121125 -4.72959e-21)
(4.99016 0.0239568 1.13485e-20)
(4.99505 -0.0100493 -3.41889e-21)
(4.98848 0.000751556 -1.21874e-22)
(4.99377 -0.0309724 -1.87642e-22)
(4.98764 -0.0207694 8.1043e-21)
(4.99273 -0.0511253 1.0033e-20)
(4.98633 -0.0412462 4.29417e-21)
(4.99323 -0.0700578 4.56589e-21)
(4.98588 -0.0606394 8.19218e-21)
(4.99576 -0.0869754 7.2908e-21)
(4.98795 -0.0788752 -1.10896e-20)
(4.99926 -0.101401 1.21293e-20)
(4.99198 -0.0954328 5.6525e-21)
(5.00259 -0.113029 6.0892e-21)
(4.9965 -0.109561 -9.54282e-22)
(5.00547 -0.121712 1.96663e-21)
(5.00062 -0.120608 1.0924e-21)
(5.0083 -0.127391 -8.07311e-22)
(5.0045 -0.128383 1.64195e-21)
(5.01129 -0.130021 8.49028e-22)
(5.00862 -0.132924 -2.23692e-22)
(5.01394 -0.129522 6.15815e-22)
(5.01304 -0.134289 1.06e-21)
(5.01515 -0.125757 6.93297e-22)
(5.01683 -0.132444 -1.33608e-21)
(5.0137 -0.118678 4.61855e-21)
(5.01872 -0.127255 7.39291e-22)
(5.00903 -0.108482 -4.91106e-21)
(5.01761 -0.118669 -1.78824e-21)
(5.00172 -0.0958059 6.72851e-22)
(5.01312 -0.106974 -2.95547e-21)
(4.99359 -0.0817079 1.86502e-20)
(5.00609 -0.0930568 7.59543e-21)
(4.98723 -0.0672687 2.8394e-20)
(4.99859 -0.0783454 2.19329e-20)
(4.98509 -0.0531239 1.74851e-20)
(4.99341 -0.0640015 -2.87673e-21)
(4.98841 -0.039349 -7.70724e-20)
(4.99279 -0.0496892 3.34666e-20)
(4.99684 -0.0254885 -2.41196e-20)
(4.99745 -0.0344438 -2.18721e-20)
(5.0075 -0.0206477 8.84533e-21)
(5.00925 -0.0116498 -1.18575e-21)
(5.02757 0.0347502 2.9106e-20)
(5.03885 0.0303374 7.18669e-21)
(5.04509 0.0203336 4.69286e-20)
(5.01706 0.0491929 1.33145e-19)
(5.0255 0.0433146 2.41051e-20)
(5.01308 0.0636306 -3.42057e-20)
(5.02067 0.0594296 -3.38705e-20)
(5.01395 0.0789203 0)
(5.02064 0.0753799 -3.08489e-21)
(5.01862 0.0945822 5.51572e-21)
(5.02363 0.0909236 -2.74626e-21)
(5.02622 0.109269 5.53642e-21)
(5.02945 0.106205 2.88158e-21)
(5.03463 0.121683 4.81461e-21)
(5.03693 0.120144 -1.29846e-21)
(5.0407 0.131036 4.84356e-21)
(5.04331 0.131317 -1.42577e-20)
(5.04187 0.137171 0)
(5.04563 0.139029 0)
(5.03772 0.140224 4.26247e-23)
(5.0424 0.143352 -4.09876e-21)
(5.03003 0.140323 2.21137e-22)
(5.03444 0.144576 1.93067e-21)
(5.02156 0.137499 -1.51289e-21)
(5.0243 0.142938 5.58933e-22)
(5.01437 0.13148 8.22861e-22)
(5.0152 0.138381 -1.48046e-21)
(5.00889 0.122079 1.75378e-21)
(5.00798 0.130545 2.41872e-21)
(5.00444 0.109467 2.16274e-21)
(5.00228 0.119233 -1.09837e-21)
(5.0002 0.0941143 3.29111e-21)
(4.99723 0.104772 -9.968e-22)
(4.99579 0.0765035 -1.16771e-21)
(4.99218 0.0876459 6.31891e-21)
(4.99125 0.0569343 -4.36603e-21)
(4.98702 0.0683825 1.58969e-21)
(4.98601 0.035408 1.28745e-20)
(4.98182 0.0470607 -4.57678e-21)
(4.98217 0.0124069 1.61252e-20)
(4.97543 0.0241599 -1.10305e-20)
(4.98103 -0.0101194 1.1358e-20)
(4.97386 0.00067342 8.09807e-22)
(4.98017 -0.0309782 1.2577e-20)
(4.97383 -0.0207352 -1.17724e-21)
(4.97945 -0.0506036 1.97418e-21)
(4.97294 -0.0399203 1.15792e-21)
(4.98057 -0.0693547 -7.67259e-21)
(4.97261 -0.0580668 2.75017e-21)
(4.98415 -0.0872329 -1.29187e-20)
(4.97491 -0.0768395 4.30961e-22)
(4.9892 -0.103517 -8.18477e-21)
(4.97986 -0.0957441 -4.26765e-21)
(4.99453 -0.117063 -6.27552e-21)
(4.98626 -0.112654 -1.0976e-20)
(4.99966 -0.127207 5.90409e-22)
(4.99288 -0.125945 -2.23994e-21)
(5.00485 -0.133848 2.20671e-21)
(4.9994 -0.135182 -1.23463e-21)
(5.01036 -0.137124 3.04352e-22)
(5.00615 -0.14059 1.3186e-21)
(5.01585 -0.137145 -6.70375e-22)
(5.0133 -0.142502 -8.79746e-22)
(5.02035 -0.13384 -1.27279e-21)
(5.02018 -0.141076 1.88113e-21)
(5.02264 -0.127111 -6.4094e-21)
(5.02568 -0.136242 0)
(5.02176 -0.117032 2.26498e-23)
(5.02863 -0.127886 6.72234e-21)
(5.01759 -0.10414 4.08825e-21)
(5.02813 -0.116159 -7.54407e-21)
(5.0112 -0.0895232 1.02354e-20)
(5.02413 -0.101854 -2.17757e-21)
(5.00482 -0.0745241 1.18973e-21)
(5.0179 -0.0864866 -1.05897e-20)
(5.00127 -0.0601562 2.08671e-20)
(5.01202 -0.071546 -5.80394e-21)
(5.00271 -0.0466034 -5.58905e-21)
(5.0094 -0.0571227 4.19602e-20)
(5.00951 -0.0333117 -7.28665e-20)
(5.01201 -0.0423571 3.78447e-20)
(5.02051 -0.0292219 -2.78728e-20)
(5.02044 -0.0198913 7.76787e-20)
(5.03852 0.0436535 -3.0142e-21)
(5.04908 0.0407654 7.28266e-20)
(5.0534 0.0306626 2.58189e-20)
(5.0305 0.0571827 -2.30758e-20)
(5.0387 0.0528197 -5.67679e-20)
(5.02832 0.0713535 -3.056e-21)
(5.03599 0.0682636 1.64565e-21)
(5.03005 0.08656 -1.9377e-20)
(5.0373 0.0840998 4.53219e-20)
(5.03432 0.102346 -9.37451e-21)
(5.04043 0.099741 2.05267e-20)
(5.04003 0.117272 5.24722e-22)
(5.04475 0.115014 -1.96074e-20)
(5.04533 0.129873 -1.64903e-20)
(5.04928 0.128938 -8.25095e-21)
(5.04773 0.139253 -1.67642e-20)
(5.05192 0.140113 -7.20198e-22)
(5.04541 0.14513 -4.08608e-21)
(5.05044 0.147679 4.97671e-21)
(5.03839 0.147665 -1.18961e-21)
(5.04396 0.151603 4.73443e-21)
(5.02847 0.147186 2.50202e-21)
(5.03352 0.152323 -9.52199e-22)
(5.01806 0.143847 6.06435e-22)
(5.02144 0.150261 8.72763e-23)
(5.00892 0.137422 -1.60161e-22)
(5.01049 0.145327 9.56296e-22)
(5.00147 0.12764 -1.61725e-22)
(5.00128 0.137078 -3.72955e-22)
(4.99518 0.114488 -4.08615e-21)
(4.99356 0.125187 1.07682e-21)
(4.98933 0.0982898 1.91092e-21)
(4.98666 0.109765 -6.86166e-21)
(4.98354 0.079488 8.94301e-21)
(4.98003 0.0912196 6.54786e-21)
(4.97773 0.0585229 1.44408e-21)
(4.97355 0.0701653 -7.80271e-21)
(4.9714 0.0357548 -2.76172e-20)
(4.96724 0.0470611 -1.57641e-20)
(4.96726 0.0121739 -2.5639e-20)
(4.96028 0.0231814 -1.35766e-20)
(4.96679 -0.0101336 -1.0941e-20)
(4.95934 3.92653e-05 1.29958e-21)
(4.96672 -0.0296552 -1.18908e-20)
(4.9608 -0.0201068 -3.08456e-20)
(4.96621 -0.0472276 2.20774e-21)
(4.96066 -0.0360086 1.80229e-20)
(4.96705 -0.0654547 1.09094e-20)
(4.9593 -0.0520075 1.45692e-21)
(4.9707 -0.0852692 8.70839e-21)
(4.96014 -0.0722448 1.68761e-21)
(4.97699 -0.104817 -7.18344e-21)
(4.96512 -0.0950421 1.89688e-20)
(4.98467 -0.121462 -7.17405e-21)
(4.97359 -0.116086 1.11017e-22)
(4.99266 -0.133841 -4.05667e-21)
(4.98338 -0.132542 0)
(5.00073 -0.141848 -1.89957e-21)
(4.99326 -0.143779 -4.02822e-21)
(5.00906 -0.145891 9.01734e-23)
(5.00313 -0.150287 -2.83881e-21)
(5.0175 -0.146361 2.92219e-22)
(5.01323 -0.152739 -1.75311e-21)
(5.02537 -0.143377 2.00591e-21)
(5.02324 -0.151573 -1.68501e-21)
(5.03156 -0.136882 1.26902e-20)
(5.03236 -0.146891 -5.68991e-21)
(5.03489 -0.126886 -1.13102e-21)
(5.0395 -0.138615 2.60867e-20)
(5.03455 -0.113805 -1.34654e-20)
(5.04339 -0.126818 -2.06441e-23)
(5.03068 -0.0986742 -2.29506e-20)
(5.04313 -0.112175 -1.34571e-20)
(5.02486 -0.0829714 -1.69744e-20)
(5.03899 -0.096188 -1.50553e-20)
(5.01998 -0.0680317 1.55663e-20)
(5.03293 -0.0805362 8.21434e-21)
(5.01914 -0.0543776 4.26251e-20)
(5.02821 -0.0657022 3.87801e-20)
(5.02395 -0.0416098 -7.9079e-20)
(5.02804 -0.0511232 5.16823e-21)
(5.03459 -0.0386488 -3.04145e-20)
(5.03381 -0.0288762 -1.41566e-19)
(5.05102 0.0542643 1.51886e-19)
(5.0613 0.0524471 5.1992e-20)
(5.06344 0.0419381 8.89367e-20)
(5.04551 0.0672347 2.19084e-20)
(5.05389 0.063871 -9.21745e-22)
(5.04505 0.0812376 5.01974e-20)
(5.05325 0.0789738 -6.12371e-20)
(5.04734 0.0963396 7.20271e-20)
(5.0554 0.0947203 -9.33074e-21)
(5.05068 0.112031 6.39862e-21)
(5.05811 0.110291 -2.08613e-21)
(5.05391 0.126893 -2.72508e-20)
(5.06042 0.125334 2.83008e-21)
(5.0556 0.139365 5.25769e-21)
(5.06157 0.138965 -2.17875e-20)
(5.05404 0.148513 1.79947e-20)
(5.06018 0.149899 2.11908e-20)
(5.04815 0.15404 7.58435e-21)
(5.05476 0.157239 2.94339e-21)
(5.03832 0.156212 1.93268e-21)
(5.04502 0.160908 3.12689e-22)
(5.02625 0.155414 -1.29347e-21)
(5.03215 0.161431 -2.61298e-21)
(5.01399 0.151748 6.60194e-22)
(5.01811 0.159217 -2.93414e-22)
(5.00295 0.144914 7.3738e-22)
(5.00521 0.153989 -2.90288e-21)
(4.99345 0.134532 8.44737e-22)
(4.99386 0.145161 2.93529e-21)
(4.98512 0.120392 -1.65578e-21)
(4.98385 0.132262 -6.71824e-21)
(4.97745 0.102664 -2.6084e-21)
(4.97478 0.115168 2.54348e-21)
(4.97015 0.0818312 -9.6048e-21)
(4.96632 0.0942334 4.3179e-21)
(4.96319 0.0586935 -2.48862e-20)
(4.95855 0.0703484 -6.49247e-21)
(4.95627 0.0343979 -2.22658e-21)
(4.95164 0.0447431 3.00077e-21)
(4.95249 0.0107223 1.23412e-20)
(4.94509 0.0201232 1.19345e-20)
(4.95348 -0.0102263 -1.84292e-20)
(4.94571 -0.00175276 -1.08594e-22)
(4.95481 -0.0265053 -1.16882e-21)
(4.94979 -0.0187777 -6.98993e-22)
(4.95379 -0.0406405 1.71933e-20)
(4.95039 -0.0297617 -3.11358e-21)
(4.95244 -0.0587104 -7.54453e-21)
(4.94576 -0.0436212 2.32093e-20)
(4.95461 -0.0819653 1.1816e-20)
(4.9427 -0.0669071 6.15879e-21)
(4.96178 -0.106266 2.61456e-20)
(4.9468 -0.0950411 2.20363e-21)
(4.97236 -0.127096 7.25298e-21)
(4.95773 -0.121239 -1.8525e-20)
(4.98403 -0.142391 0)
(4.97167 -0.141485 -9.26645e-21)
(4.9957 -0.152124 -4.7465e-21)
(4.98584 -0.155066 -1.19999e-20)
(5.0073 -0.157043 -4.62856e-21)
(4.99954 -0.16281 -4.22879e-21)
(5.0189 -0.157859 -4.23883e-21)
(5.01302 -0.165751 2.22024e-21)
(5.03015 -0.154968 -9.62074e-21)
(5.02633 -0.164641 -6.99988e-21)
(5.04025 -0.148466 7.32918e-21)
(5.03906 -0.159841 -1.56713e-20)
(5.04796 -0.138398 2.68716e-20)
(5.05038 -0.151418 3.04888e-20)
(5.05193 -0.125108 -1.80625e-21)
(5.05888 -0.139459 -2.78491e-21)
(5.05135 -0.109535 -5.37199e-21)
(5.06298 -0.124549 2.78687e-21)
(5.04685 -0.0931871 6.21594e-21)
(5.06183 -0.108105 1.84641e-20)
(5.04095 -0.0776285 3.17025e-20)
(5.05641 -0.0918298 5.90606e-23)
(5.03747 -0.0637457 -3.35749e-20)
(5.04978 -0.0764277 -1.77149e-20)
(5.03961 -0.0513277 -2.41837e-20)
(5.04618 -0.0617257 7.18814e-20)
(5.04987 -0.0497897 -4.52452e-20)
(5.04831 -0.0392557 4.21829e-20)
(5.06573 0.0663202 2.86874e-20)
(5.07609 0.0656519 0)
(5.07537 0.0544952 0)
(5.06273 0.0788862 -3.18734e-20)
(5.07151 0.0767447 6.40939e-20)
(5.06359 0.0927053 -1.18254e-19)
(5.07259 0.0917768 -6.35012e-20)
(5.06576 0.107688 -8.09067e-20)
(5.07496 0.107406 -2.56542e-20)
(5.06753 0.123138 -3.98299e-21)
(5.07649 0.122696 6.95284e-21)
(5.0678 0.137669 4.76443e-21)
(5.07618 0.137301 4.25043e-20)
(5.06563 0.149806 -1.40632e-20)
(5.07356 0.150434 -4.24374e-20)
(5.06005 0.158641 1.31597e-20)
(5.06797 0.16097 1.07744e-21)
(5.05061 0.163984 2.66269e-22)
(5.05865 0.168091 -5.6743e-22)
(5.03797 0.166091 -5.639e-21)
(5.04577 0.171718 -1.39694e-22)
(5.02368 0.165272 -1.96049e-21)
(5.0305 0.172326 -3.48434e-21)
(5.00942 0.161443 -3.70268e-21)
(5.01438 0.170148 -6.21851e-22)
(4.99623 0.154114 -1.74263e-21)
(4.99923 0.164612 -5.0833e-21)
(4.98437 0.142758 -4.54239e-21)
(4.98536 0.154908 -1.64872e-21)
(4.97362 0.126942 -3.50827e-21)
(4.97259 0.140372 -1.1805e-22)
(4.96378 0.106686 9.14656e-21)
(4.96084 0.120608 -2.41437e-21)
(4.95486 0.082656 8.02614e-21)
(4.95023 0.0959833 1.14981e-20)
(4.94716 0.0563785 1.99819e-20)
(4.94137 0.0679691 1.90796e-20)
(4.94065 0.0303248 1.64037e-20)
(4.93493 0.0392004 3.68927e-20)
(4.93847 0.00725918 -5.96301e-22)
(4.93041 0.0142237 -2.70313e-20)
(4.94214 -0.0107943 1.69825e-20)
(4.93408 -0.00535056 -5.96855e-22)
(4.94546 -0.0221069 -2.64575e-21)
(4.94203 -0.017443 1.77654e-20)
(4.94243 -0.032572 3.88273e-21)
(4.94254 -0.0234153 -1.5403e-20)
(4.9361 -0.0517435 3.69558e-20)
(4.93156 -0.0364924 2.23368e-20)
(4.93498 -0.0799413 -3.54835e-21)
(4.92204 -0.0644013 1.28877e-20)
(4.94284 -0.109979 -4.22981e-20)
(4.92454 -0.0985583 1.36587e-20)
(4.95712 -0.135554 -3.48165e-20)
(4.93849 -0.130139 -2.89748e-20)
(4.97354 -0.154057 -2.18598e-20)
(4.95762 -0.154213 5.67186e-21)
(4.98974 -0.165635 -1.18509e-20)
(4.97715 -0.170099 -2.52689e-21)
(5.00529 -0.171412 2.10601e-21)
(4.9955 -0.178992 6.37409e-21)
(5.02041 -0.172419 -2.47904e-21)
(5.01295 -0.182264 1.4936e-21)
(5.03518 -0.169373 -1.41932e-20)
(5.02981 -0.180984 2.26934e-21)
(5.04916 -0.162609 6.83257e-21)
(5.04617 -0.175805 -1.09814e-20)
(5.06128 -0.152309 9.7522e-22)
(5.06155 -0.167029 1.57634e-20)
(5.06989 -0.138815 2.22938e-21)
(5.07465 -0.154848 -1.59225e-20)
(5.07334 -0.122951 2.65905e-20)
(5.08349 -0.139809 1.59156e-20)
(5.07111 -0.106121 1.709e-20)
(5.08625 -0.123187 2.1749e-20)
(5.06491 -0.0899655 -4.92835e-20)
(5.08265 -0.106527 -2.58143e-20)
(5.05873 -0.0756532 9.06397e-20)
(5.07492 -0.090504 -3.40851e-20)
(5.05727 -0.0632557 -2.30912e-20)
(5.06774 -0.0752891 1.47943e-19)
(5.06736 -0.0635155 -1.25774e-19)
(5.06365 -0.0516882 -4.50528e-20)
(5.08338 0.0803427 3.50969e-20)
(5.09423 0.0808875 -9.56509e-20)
(5.09008 0.0688014 0)
(5.08251 0.0927746 8.06989e-20)
(5.0922 0.0920306 3.53198e-20)
(5.08398 0.106567 2.78416e-20)
(5.09429 0.10708 -2.67359e-21)
(5.08524 0.121428 6.13382e-20)
(5.09597 0.12243 3.08208e-20)
(5.08472 0.136446 5.33512e-20)
(5.09533 0.137256 -3.91278e-20)
(5.08158 0.150367 4.12522e-21)
(5.09173 0.151332 4.81872e-20)
(5.07535 0.161957 -3.00936e-20)
(5.08507 0.16392 -4.84156e-20)
(5.06574 0.170445 -4.72252e-21)
(5.07528 0.174039 -3.47135e-21)
(5.05282 0.17571 3.66279e-21)
(5.06224 0.181024 3.03048e-20)
(5.03737 0.177938 -7.70521e-22)
(5.04636 0.184802 -7.91962e-22)
(5.02075 0.17724 -1.35559e-21)
(5.02867 0.185669 -3.94344e-21)
(5.00423 0.173273 -1.97055e-21)
(5.01019 0.183564 -6.27099e-22)
(4.98848 0.165229 -6.13681e-21)
(4.99229 0.177567 1.78845e-22)
(4.9737 0.152345 1.21729e-21)
(4.97526 0.16655 -6.07462e-21)
(4.95994 0.133921 -1.27093e-22)
(4.95898 0.149552 1.41739e-20)
(4.94744 0.109839 -1.07819e-21)
(4.94382 0.12588 -2.41123e-20)
(4.93689 0.0811834 2.30536e-20)
(4.93071 0.0960502 1.66529e-20)
(4.92929 0.0507612 3.62935e-20)
(4.92132 0.0625398 4.50939e-21)
(4.92482 0.0228838 -5.92028e-21)
(4.91709 0.030162 -6.27869e-21)
(4.92609 0.00115099 -2.707e-20)
(4.9168 0.0051906 1.08905e-21)
(4.93396 -0.0127244 0)
(4.92541 -0.0114032 0)
(4.93915 -0.0188404 5.02774e-21)
(4.93794 -0.0180998 0)
(4.93185 -0.0270448 5.16847e-21)
(4.93665 -0.0201035 5.0177e-21)
(4.91768 -0.049135 9.37854e-22)
(4.91635 -0.0361545 -3.95127e-20)
(4.9117 -0.0829608 2.99433e-20)
(4.89844 -0.0692045 -4.17009e-20)
(4.92028 -0.118674 2.68097e-20)
(4.89893 -0.108795 -7.48588e-21)
(4.93909 -0.148711 1.21783e-20)
(4.91637 -0.144942 4.56105e-22)
(4.96132 -0.170127 2.48719e-20)
(4.94163 -0.172156 3.49547e-20)
(4.98301 -0.183306 1.53499e-20)
(4.96747 -0.189834 1.37918e-20)
(5.00324 -0.189713 5.37332e-21)
(4.99129 -0.199504 -4.15759e-21)
(5.02235 -0.190687 5.17332e-21)
(5.01329 -0.202813 -1.88998e-21)
(5.04079 -0.187245 3.9744e-21)
(5.03404 -0.20111 5.03725e-21)
(5.05857 -0.180003 -2.74423e-21)
(5.05406 -0.195316 -1.32779e-20)
(5.07494 -0.169366 -9.10808e-22)
(5.07327 -0.186011 1.81022e-20)
(5.08825 -0.155744 0)
(5.0907 -0.173571 -1.89708e-20)
(5.0963 -0.139849 1.11512e-20)
(5.10435 -0.15856 3.49609e-21)
(5.09747 -0.122864 -1.65343e-20)
(5.11178 -0.142092 -1.53448e-20)
(5.09225 -0.106301 -1.08115e-20)
(5.11143 -0.125421 5.38169e-20)
(5.08411 -0.091435 6.1673e-20)
(5.10418 -0.108947 -6.65643e-20)
(5.0786 -0.0785937 -1.06389e-19)
(5.09431 -0.0929345 -2.3869e-20)
(5.08929 -0.0807545 7.54531e-20)
(5.08116 -0.0669665 -6.75072e-20)
(5.10455 0.0966685 -9.62056e-20)
(5.11642 0.0984223 -4.47252e-20)
(5.10855 0.0851597 -1.28681e-19)
(5.10505 0.109062 0)
(5.11616 0.109858 1.38098e-19)
(5.1062 0.122782 0)
(5.11818 0.124826 -8.35967e-22)
(5.10559 0.137383 -6.43074e-20)
(5.11804 0.139735 4.8154e-22)
(5.10198 0.151883 -3.99003e-20)
(5.11432 0.154029 -2.74915e-20)
(5.09498 0.165187 3.75457e-21)
(5.10691 0.167632 2.56893e-20)
(5.08465 0.176311 -2.20687e-20)
(5.09613 0.179821 -4.92852e-20)
(5.07118 0.184645 3.43962e-20)
(5.08232 0.189721 2.93143e-21)
(5.05493 0.19004 2.42069e-20)
(5.06575 0.196807 1.83406e-20)
(5.03666 0.192534 -7.09027e-21)
(5.04694 0.200953 -7.77647e-21)
(5.01746 0.192006 -2.4289e-21)
(5.02666 0.202168 -3.50175e-21)
(4.9982 0.187783 1.34664e-21)
(5.00538 0.20007 0)
(4.97921 0.178666 1.10862e-22)
(4.98399 0.193389 4.93866e-21)
(4.96069 0.163536 5.44159e-21)
(4.96285 0.180559 1.42958e-22)
(4.94303 0.141388 -8.29336e-21)
(4.94201 0.160201 5.8046e-21)
(4.92727 0.112028 -8.47342e-21)
(4.92247 0.131346 -1.63981e-20)
(4.91531 0.0772928 -1.39227e-21)
(4.90658 0.0948837 -3.27099e-21)
(4.90924 0.0418767 -3.66452e-20)
(4.89773 0.0547213 -1.04418e-20)
(4.90913 0.0121982 9.19316e-22)
(4.89809 0.0184511 5.01501e-21)
(4.91618 -0.00793127 2.78271e-20)
(4.90446 -0.00654282 2.77171e-20)
(4.92959 -0.0175007 0)
(4.91995 -0.0204503 0)
(4.93555 -0.0196057 0)
(4.93721 -0.0237261 3.79234e-21)
(4.92107 -0.0287823 -4.15038e-20)
(4.93151 -0.025966 5.83887e-20)
(4.89712 -0.0562323 -8.30415e-20)
(4.89961 -0.0485672 -9.70135e-20)
(4.88574 -0.0949837 -7.92304e-20)
(4.87337 -0.0856052 4.85378e-20)
(4.89512 -0.134981 -3.33159e-20)
(4.8716 -0.128443 2.56895e-21)
(4.91904 -0.16828 2.37628e-20)
(4.89262 -0.167366 3.13019e-20)
(4.9479 -0.191696 2.38062e-20)
(4.92458 -0.196404 8.65122e-21)
(4.9759 -0.20585 -5.50243e-21)
(4.95739 -0.214935 -4.35777e-21)
(5.00147 -0.212436 -9.8629e-21)
(4.98732 -0.224754 -3.97746e-21)
(5.02503 -0.213066 -1.03318e-21)
(5.0144 -0.227679 2.01959e-21)
(5.04734 -0.208978 -1.13139e-20)
(5.03936 -0.22526 0)
(5.0688 -0.201064 7.94697e-21)
(5.06305 -0.218614 -2.89118e-20)
(5.08909 -0.189982 -4.73669e-22)
(5.0858 -0.208594 5.91772e-20)
(5.10686 -0.176277 -1.76295e-20)
(5.10709 -0.195792 -1.75229e-20)
(5.11978 -0.160584 -2.4384e-20)
(5.12523 -0.180852 3.45362e-21)
(5.12543 -0.143812 5.55707e-20)
(5.13769 -0.164758 -1.31624e-19)
(5.12294 -0.127157 1.17581e-20)
(5.14198 -0.148412 1.5018e-19)
(5.11455 -0.111765 -1.50584e-19)
(5.13742 -0.131783 -2.08995e-21)
(5.10572 -0.0981732 1.61287e-19)
(5.1269 -0.115031 -1.48393e-19)
(5.11813 -0.101972 1.18035e-20)
(5.10354 -0.0857918 2.38742e-19)
(5.12956 0.115449 1.89569e-19)
(5.14309 0.118214 2.17893e-19)
(5.13169 0.103658 4.82213e-20)
(5.13023 0.127874 1.9969e-19)
(5.14322 0.130134 -6.08045e-20)
(5.1299 0.141404 -8.55376e-21)
(5.1438 0.144955 -4.32727e-20)
(5.12645 0.155641 3.42459e-20)
(5.14079 0.159399 9.14649e-20)
(5.11913 0.16968 3.42644e-20)
(5.13333 0.173246 3.39517e-20)
(5.10805 0.182548 -2.34521e-20)
(5.12185 0.186551 0)
(5.09372 0.193456 -2.15528e-20)
(5.10701 0.198602 7.32599e-21)
(5.07662 0.201908 -3.27231e-21)
(5.08942 0.208596 3.90633e-21)
(5.05719 0.207684 -1.20455e-20)
(5.0695 0.216086 -7.27651e-21)
(5.03599 0.210588 -5.90451e-21)
(5.04767 0.220825 -6.40339e-21)
(5.01376 0.210209 -1.08769e-21)
(5.02443 0.222475 1.63904e-20)
(4.99098 0.205572 3.572e-21)
(4.9997 0.220346 5.37698e-21)
(4.96778 0.195035 4.86908e-21)
(4.97384 0.212817 -4.88482e-21)
(4.94436 0.176967 3.98557e-22)
(4.94732 0.197783 1.93671e-20)
(4.92167 0.150046 -8.80034e-22)
(4.92056 0.173377 -1.56373e-20)
(4.90202 0.114161 -1.22135e-20)
(4.89556 0.138451 5.8873e-21)
(4.88924 0.0722175 -1.23061e-20)
(4.87674 0.0944659 -1.3198e-20)
(4.88678 0.0311924 3.11191e-20)
(4.86994 0.0469729 -1.64005e-20)
(4.89363 -0.000532533 3.12963e-20)
(4.87762 0.00644207 -3.11308e-20)
(4.90847 -0.0197526 0)
(4.89282 -0.0192932 -8.77604e-21)
(4.92769 -0.0274657 3.7751e-21)
(4.91605 -0.0320715 0)
(4.93316 -0.0303662 6.21536e-20)
(4.93719 -0.0381932 3.76824e-21)
(4.90993 -0.0452972 2.77856e-21)
(4.92535 -0.0497518 -6.38573e-21)
(4.87578 -0.0777675 3.48267e-20)
(4.88256 -0.077517 6.59878e-21)
(4.85931 -0.119033 1.3003e-19)
(4.84935 -0.116208 9.415e-20)
(4.86922 -0.160683 6.76806e-20)
(4.845 -0.158884 -2.16037e-20)
(4.8983 -0.195367 1.61405e-20)
(4.86893 -0.198183 6.12192e-20)
(4.9342 -0.219418 -2.12961e-20)
(4.90764 -0.227467 -2.57628e-20)
(4.96899 -0.233639 -3.54098e-21)
(4.94766 -0.245669 -1.30434e-20)
(5.00038 -0.239787 7.82987e-21)
(4.98413 -0.254851 2.25208e-22)
(5.02877 -0.23968 3.01286e-21)
(5.01661 -0.256895 6.45601e-21)
(5.05511 -0.234668 -1.77915e-20)
(5.04606 -0.253424 -7.71205e-21)
(5.08011 -0.225856 2.22039e-20)
(5.07349 -0.245669 -1.75337e-20)
(5.10388 -0.214146 4.00657e-20)
(5.09949 -0.234683 1.30475e-20)
(5.12557 -0.200249 5.08972e-22)
(5.12403 -0.221281 5.11703e-22)
(5.14316 -0.184788 -1.06319e-19)
(5.14601 -0.206227 0)
(5.15396 -0.168434 -4.79661e-20)
(5.16326 -0.190431 -1.09142e-19)
(5.15602 -0.152013 1.48994e-19)
(5.17299 -0.174491 6.95058e-20)
(5.14994 -0.136358 -4.46066e-20)
(5.17324 -0.157975 -1.39287e-20)
(5.14003 -0.1219 -2.15457e-19)
(5.16514 -0.140788 1.57646e-19)
(5.1552 -0.126696 -1.2849e-19)
(5.13378 -0.10828 -2.17555e-19)
(5.15829 0.136529 7.17067e-20)
(5.17419 0.139963 -4.91993e-21)
(5.15998 0.124129 1.56101e-19)
(5.15761 0.149151 -2.89473e-19)
(5.17297 0.152608 -9.01935e-20)
(5.15455 0.162516 7.17055e-20)
(5.17065 0.167354 -1.5129e-19)
(5.14747 0.176423 8.47162e-20)
(5.16392 0.181462 -5.02572e-20)
(5.13608 0.190161 -3.34838e-22)
(5.15237 0.195078 5.14915e-20)
(5.12092 0.202892 3.11339e-20)
(5.13681 0.208364 5.45472e-21)