/*--------------------------------*- C++ -*----------------------------------*\
  =========                 |
  \\      /  F ield         | OpenFOAM: The Open Source CFD Toolbox
   \\    /   O peration     | Website:  https://openfoam.org
    \\  /    A nd           | Version:  6
     \\/     M anipulation  |
\*---------------------------------------------------------------------------*/
FoamFile
{
    version     2.0;
    format      ascii;
    class       volScalarField;
    location    "3.69";
    object      rho;
}
// * * * * * * * * * * * * * * * * * * * * * * * * * * * * * * * * * * * * * //

dimensions      [1 -3 0 0 0 0 0];

internalField   nonuniform List<scalar> 
10000
(
1.40001
1.40001
1.40001
1.40001
1.40001
1.40001
1.40001
1.40001
1.40001
1.40001
1.4
1.40001
1.4
1.40001
1.4
1.40001
1.4
1.40001
1.4
1.40001
1.4
1.40001
1.4
1.40001
1.4
1.4
1.40001
1.4
1.40001
1.40001
1.4
1.4
1.40001
1.40001
1.4
1.40001
1.40001
1.40001
1.40001
1.40001
1.40001
1.40001
1.40001
1.40001
1.40001
1.40001
1.40001
1.40001
1.4
1.39999
1.39998
1.39997
1.39996
1.39995
1.39994
1.39993
1.39993
1.39993
1.39995
1.39997
1.4
1.40004
1.40009
1.40014
1.4002
1.40025
1.4003
1.40034
1.40037
1.40038
1.40038
1.40037
1.40035
1.40031
1.40027
1.40022
1.40017
1.40012
1.40008
1.40005
1.40002
1.4
1.39999
1.39999
1.39999
1.39999
1.39999
1.39999
1.39999
1.4
1.4
1.4
1.4
1.4
1.4
1.4
1.4
1.4
1.4
1.40001
1.40001
1.40001
1.40001
1.40001
1.40001
1.40001
1.40001
1.40001
1.4
1.40001
1.4
1.40001
1.4
1.40001
1.4
1.40001
1.4
1.40001
1.4
1.40001
1.4
1.40001
1.4
1.40001
1.4
1.4
1.40001
1.4
1.40001
1.40001
1.4
1.4
1.40001
1.4
1.40001
1.40001
1.40001
1.40001
1.40001
1.40001
1.40001
1.40001
1.40001
1.40001
1.40001
1.40001
1.40001
1.40001
1.4
1.39999
1.39998
1.39997
1.39995
1.39994
1.39993
1.39993
1.39993
1.39995
1.39999
1.40003
1.4001
1.40017
1.40025
1.40035
1.40044
1.40053
1.40062
1.40069
1.40074
1.40077
1.40078
1.40076
1.40072
1.40066
1.40059
1.4005
1.4004
1.40031
1.40023
1.40016
1.40009
1.40005
1.40001
1.39999
1.39998
1.39998
1.39998
1.39998
1.39999
1.39999
1.4
1.4
1.4
1.4
1.4
1.4
1.4
1.4
1.4
1.4
1.40001
1.40001
1.40001
1.40001
1.40001
1.40001
1.4
1.40001
1.4
1.40001
1.4
1.40001
1.4
1.40001
1.4
1.40001
1.4
1.40001
1.4
1.40001
1.4
1.40001
1.4
1.40001
1.4
1.40001
1.40001
1.4
1.40001
1.40001
1.40001
1.4
1.40001
1.4
1.40001
1.40001
1.40001
1.40001
1.40001
1.40001
1.40001
1.40001
1.40001
1.40001
1.40001
1.40001
1.40001
1.40001
1.4
1.39999
1.39998
1.39996
1.39995
1.39994
1.39994
1.39995
1.39998
1.40004
1.40011
1.40022
1.40034
1.40049
1.40065
1.40081
1.40099
1.40115
1.4013
1.40143
1.40152
1.40158
1.40159
1.40156
1.40149
1.40138
1.40123
1.40107
1.4009
1.40072
1.40055
1.4004
1.40027
1.40016
1.40009
1.40003
1.4
1.39998
1.39997
1.39997
1.39998
1.39998
1.39999
1.4
1.4
1.4
1.4
1.4
1.4
1.4
1.4
1.4
1.4
1.40001
1.40001
1.40001
1.40001
1.40001
1.4
1.40001
1.4
1.40001
1.4
1.40001
1.40001
1.4
1.40001
1.40001
1.4
1.40001
1.4
1.40001
1.4
1.40001
1.4
1.40001
1.4
1.40001
1.40001
1.4
1.40001
1.40001
1.40001
1.4
1.40001
1.40001
1.40001
1.40001
1.40001
1.40001
1.40001
1.40001
1.40001
1.40001
1.40001
1.40002
1.40002
1.40002
1.40002
1.40002
1.40001
1.4
1.39998
1.39997
1.39996
1.39996
1.39999
1.40003
1.40012
1.40024
1.40041
1.40062
1.40087
1.40116
1.40147
1.40179
1.40212
1.40243
1.40271
1.40294
1.40311
1.40321
1.40323
1.40317
1.40302
1.40281
1.40253
1.40222
1.40188
1.40154
1.40121
1.40091
1.40065
1.40043
1.40026
1.40014
1.40005
1.4
1.39998
1.39997
1.39997
1.39998
1.39998
1.39999
1.39999
1.4
1.4
1.4
1.4
1.4
1.4
1.4
1.4
1.40001
1.40001
1.40001
1.40001
1.40001
1.4
1.40001
1.4
1.40001
1.4
1.40001
1.40001
1.4
1.40001
1.4
1.40001
1.40001
1.40001
1.4
1.40001
1.4
1.40001
1.40001
1.4
1.40001
1.4
1.4
1.40001
1.4
1.40001
1.4
1.40001
1.40001
1.40001
1.40001
1.40001
1.40001
1.40001
1.40001
1.40001
1.40001
1.40002
1.40002
1.40003
1.40003
1.40003
1.40002
1.40002
1.4
1.39999
1.39999
1.4
1.40003
1.4001
1.40022
1.40041
1.40066
1.401
1.40142
1.4019
1.40245
1.40305
1.40367
1.40428
1.40487
1.4054
1.40584
1.40617
1.40636
1.4064
1.40628
1.40601
1.40559
1.40507
1.40446
1.40381
1.40315
1.40251
1.40193
1.40141
1.40098
1.40063
1.40037
1.40019
1.40007
1.4
1.39997
1.39996
1.39996
1.39997
1.39998
1.39999
1.39999
1.4
1.4
1.4
1.4
1.4
1.4
1.4
1.4
1.4
1.40001
1.40001
1.40001
1.4
1.40001
1.4
1.40001
1.4
1.40001
1.40001
1.4
1.40001
1.4
1.40001
1.4
1.40001
1.4
1.40001
1.4
1.40001
1.4
1.4
1.40001
1.4
1.40001
1.4
1.40001
1.40001
1.4
1.40001
1.40001
1.40001
1.40001
1.40001
1.40001
1.40001
1.40001
1.40001
1.40002
1.40002
1.40003
1.40004
1.40004
1.40004
1.40004
1.40003
1.40002
1.40002
1.40004
1.40008
1.40018
1.40034
1.40059
1.40096
1.40145
1.40208
1.40284
1.40373
1.40473
1.40582
1.40694
1.40806
1.40914
1.41012
1.41094
1.41156
1.41195
1.41207
1.4119
1.41144
1.41073
1.40979
1.40868
1.40746
1.40621
1.405
1.40388
1.40289
1.40205
1.40138
1.40086
1.40049
1.40024
1.40009
1.4
1.39997
1.39996
1.39996
1.39997
1.39998
1.39999
1.4
1.4
1.4
1.4
1.4
1.4
1.4
1.40001
1.4
1.40001
1.4
1.40001
1.4
1.40001
1.4
1.40001
1.4
1.40001
1.40001
1.4
1.40001
1.4
1.40001
1.4
1.40001
1.4
1.40001
1.4
1.40001
1.4
1.40001
1.4
1.40001
1.4
1.4
1.40001
1.4
1.4
1.40001
1.40001
1.40001
1.40001
1.40001
1.40001
1.40001
1.40001
1.40002
1.40003
1.40003
1.40004
1.40005
1.40006
1.40006
1.40005
1.40005
1.40006
1.40008
1.40013
1.40025
1.40045
1.40077
1.40125
1.40191
1.40279
1.40388
1.4052
1.40673
1.40844
1.41028
1.41219
1.4141
1.41593
1.41761
1.41903
1.42014
1.4209
1.42121
1.42106
1.42044
1.41939
1.41791
1.41607
1.41398
1.41178
1.40959
1.40751
1.40565
1.40407
1.40279
1.40181
1.40109
1.40059
1.40027
1.40009
1.39999
1.39996
1.39995
1.39996
1.39997
1.39998
1.39999
1.4
1.4
1.4
1.4
1.4
1.4
1.4
1.4
1.40001
1.40001
1.40001
1.40001
1.40001
1.40001
1.40001
1.40001
1.40001
1.4
1.40001
1.40001
1.4
1.40001
1.4
1.40001
1.4
1.40001
1.4
1.40001
1.40001
1.4
1.4
1.40001
1.4
1.40001
1.40001
1.4
1.40001
1.40001
1.4
1.40001
1.40001
1.40001
1.40001
1.40001
1.40002
1.40003
1.40004
1.40005
1.40006
1.40007
1.40008
1.40008
1.40008
1.40009
1.40012
1.40018
1.40031
1.40054
1.40092
1.40151
1.40234
1.40347
1.40492
1.40672
1.40885
1.4113
1.41399
1.41687
1.41984
1.42279
1.42561
1.42816
1.43034
1.4321
1.43331
1.43394
1.43398
1.43338
1.43213
1.4302
1.42765
1.42458
1.42113
1.41749
1.41392
1.41062
1.40775
1.4054
1.40356
1.4022
1.40126
1.40064
1.40027
1.40007
1.39998
1.39995
1.39995
1.39996
1.39997
1.39999
1.39999
1.4
1.4
1.4
1.4
1.4
1.4
1.4
1.40001
1.40001
1.40001
1.40001
1.40001
1.40001
1.40001
1.40001
1.40001
1.4
1.40001
1.4
1.40001
1.4
1.4
1.40001
1.4
1.40001
1.4
1.40001
1.40001
1.4
1.40001
1.40001
1.4
1.40001
1.4
1.40001
1.40001
1.4
1.40001
1.40001
1.40001
1.40001
1.40002
1.40002
1.40003
1.40004
1.40005
1.40006
1.40008
1.40009
1.4001
1.40011
1.40013
1.40016
1.40022
1.40036
1.40061
1.40103
1.4017
1.40268
1.40405
1.40585
1.40813
1.41089
1.4141
1.41771
1.42162
1.42572
1.42986
1.4339
1.43767
1.44101
1.44383
1.44603
1.44754
1.44845
1.44874
1.44841
1.44738
1.44558
1.44295
1.43939
1.43494
1.42981
1.42437
1.41902
1.41414
1.40999
1.40669
1.40423
1.40249
1.40134
1.40063
1.40023
1.40003
1.39995
1.39994
1.39995
1.39996
1.39998
1.39999
1.4
1.4
1.4
1.4
1.4
1.4
1.4
1.40001
1.4
1.40001
1.4
1.40001
1.40001
1.40001
1.40001
1.4
1.40001
1.4
1.40001
1.40001
1.4
1.40001
1.40001
1.4
1.40001
1.4
1.40001
1.40001
1.4
1.40001
1.4
1.40001
1.40001
1.4
1.40001
1.4
1.4
1.40001
1.40001
1.40001
1.40001
1.40002
1.40003
1.40004
1.40005
1.40007
1.40009
1.40011
1.40012
1.40014
1.40016
1.40019
1.40026
1.40039
1.40065
1.4011
1.40182
1.40291
1.40447
1.40658
1.4093
1.41266
1.41662
1.4211
1.42598
1.43111
1.4363
1.44137
1.4461
1.45028
1.45376
1.45645
1.45826
1.45938
1.45997
1.46017
1.46015
1.4599
1.45929
1.45799
1.45552
1.45158
1.4461
1.43935
1.43188
1.42443
1.41769
1.41208
1.40777
1.40467
1.4026
1.4013
1.40055
1.40016
1.39998
1.39993
1.39993
1.39995
1.39997
1.39998
1.39999
1.4
1.4
1.4
1.4
1.4
1.40001
1.4
1.40001
1.40001
1.4
1.40001
1.4
1.40001
1.4
1.40001
1.4
1.40001
1.4
1.40001
1.4
1.40001
1.40001
1.4
1.40001
1.40001
1.40001
1.4
1.40001
1.40001
1.4
1.40001
1.4
1.40001
1.40001
1.4
1.40001
1.40001
1.40001
1.40001
1.40002
1.40003
1.40004
1.40005
1.40007
1.40009
1.40012
1.40014
1.40016
1.40019
1.40023
1.40029
1.40042
1.40067
1.40112
1.40186
1.40302
1.40471
1.40706
1.41016
1.41404
1.41866
1.42392
1.42965
1.4356
1.44155
1.44723
1.4524
1.45678
1.46017
1.4624
1.46341
1.46335
1.46266
1.46159
1.46073
1.46051
1.46111
1.46253
1.46422
1.4654
1.46506
1.46229
1.4567
1.44865
1.43917
1.42951
1.42078
1.41368
1.40841
1.40479
1.40249
1.40114
1.40041
1.40007
1.39994
1.39992
1.39993
1.39996
1.39998
1.39999
1.4
1.4
1.4
1.4
1.4
1.40001
1.4
1.40001
1.4
1.40001
1.40001
1.40001
1.4
1.40001
1.4
1.40001
1.40001
1.4
1.40001
1.4
1.40001
1.4
1.40001
1.4
1.40001
1.4
1.4
1.40001
1.4
1.40001
1.40001
1.40001
1.40001
1.4
1.4
1.40002
1.4
1.40002
1.40001
1.40003
1.40004
1.40005
1.40007
1.40009
1.40012
1.40015
1.40018
1.40022
1.40026
1.40032
1.40044
1.40068
1.40111
1.40185
1.40302
1.40477
1.40728
1.41065
1.41495
1.42013
1.42606
1.43247
1.43904
1.44541
1.45126
1.45625
1.46013
1.4626
1.46344
1.46256
1.46003
1.45634
1.45202
1.44774
1.44453
1.44282
1.44331
1.4463
1.45156
1.45838
1.46502
1.46943
1.46981
1.46537
1.45668
1.44535
1.4335
1.42289
1.41448
1.40846
1.40453
1.40217
1.40088
1.40025
1.39999
1.39991
1.39991
1.39994
1.39997
1.39998
1.39999
1.4
1.4
1.4
1.4
1.4
1.4
1.40001
1.4
1.4
1.40001
1.4
1.40001
1.4
1.4
1.40001
1.4
1.40001
1.4
1.40001
1.40001
1.4
1.40001
1.4
1.40001
1.4
1.40001
1.40001
1.39998
1.40002
1.39999
1.40001
1.40001
1.4
1.40002
1.4
1.40002
1.40001
1.40003
1.40003
1.40005
1.40007
1.40009
1.40013
1.40016
1.4002
1.40024
1.40028
1.40035
1.40046
1.40068
1.40108
1.40178
1.40293
1.40469
1.40725
1.41079
1.41539
1.42102
1.42748
1.43444
1.44145
1.448
1.45366
1.45803
1.46085
1.46182
1.46073
1.45737
1.45182
1.44439
1.43587
1.42689
1.41877
1.41225
1.40793
1.40681
1.40933
1.41622
1.42749
1.44178
1.45657
1.46824
1.47369
1.47147
1.4625
1.44955
1.43576
1.4236
1.41427
1.40789
1.40393
1.40171
1.40059
1.4001
1.39993
1.3999
1.39992
1.39995
1.39998
1.39999
1.4
1.4
1.4
1.4
1.4
1.4
1.40001
1.4
1.40001
1.40001
1.4
1.40001
1.4
1.40001
1.4
1.40001
1.40001
1.4
1.40001
1.4
1.40001
1.4
1.40001
1.4
1.4
1.40003
1.39999
1.40001
1.40001
1.4
1.39999
1.40003
1.39997
1.40005
1.39999
1.40003
1.40002
1.40003
1.40005
1.40006
1.4001
1.40013
1.40017
1.40021
1.40026
1.40031
1.40037
1.40048
1.40068
1.40104
1.40169
1.40277
1.40448
1.40703
1.41062
1.41539
1.42133
1.42822
1.43563
1.44296
1.44959
1.45488
1.45843
1.45991
1.4592
1.45604
1.45038
1.44204
1.43144
1.41913
1.40612
1.39339
1.38232
1.3731
1.3667
1.36335
1.36333
1.36804
1.3787
1.39612
1.41901
1.44332
1.4635
1.47463
1.47482
1.46568
1.4512
1.43583
1.42269
1.41303
1.40676
1.4031
1.40119
1.40031
1.39998
1.39989
1.3999
1.39994
1.39997
1.39998
1.4
1.4
1.4
1.4
1.4
1.40001
1.4
1.4
1.40001
1.4
1.40001
1.4
1.4
1.40001
1.4
1.40001
1.4
1.40001
1.40001
1.40001
1.4
1.40001
1.4
1.4
1.40001
1.40002
1.39996
1.40005
1.39998
1.40003
1.39999
1.40002
1.40002
1.39998
1.40006
1.39998
1.40006
1.40004
1.40007
1.40009
1.40013
1.40018
1.40022
1.40027
1.40033
1.40039
1.40049
1.40067
1.40099
1.40158
1.40258
1.4042
1.40666
1.4102
1.41502
1.42113
1.42833
1.43611
1.44376
1.45043
1.45539
1.45811
1.45831
1.45598
1.45105
1.44357
1.43334
1.42067
1.40605
1.39057
1.37526
1.36145
1.34968
1.34035
1.3341
1.32984
1.32759
1.32787
1.33249
1.34483
1.36686
1.39728
1.43038
1.45824
1.47426
1.47593
1.46595
1.45
1.43364
1.42028
1.41098
1.40529
1.40218
1.40069
1.40009
1.3999
1.39989
1.39992
1.39995
1.39998
1.39999
1.4
1.4
1.4
1.4
1.40001
1.4
1.40001
1.40001
1.4
1.40001
1.4
1.40001
1.4
1.40001
1.40001
1.4
1.40001
1.4
1.4
1.40001
1.40001
1.39999
1.40001
1.40003
1.39997
1.40002
1.40002
1.39999
1.39999
1.40004
1.39995
1.40011
1.39993
1.40006
1.40003
1.40002
1.40008
1.40007
1.40014
1.40017
1.40023
1.40029
1.40035
1.40041
1.40051
1.40067
1.40095
1.40147
1.40238
1.40387
1.40619
1.4096
1.41435
1.4205
1.4279
1.43602
1.44397
1.45079
1.45556
1.45762
1.45676
1.45303
1.44677
1.43797
1.42692
1.41326
1.39787
1.3813
1.3654
1.35098
1.33932
1.32978
1.32323
1.31882
1.31599
1.31431
1.31207
1.31005
1.31191
1.323
1.34718
1.38284
1.42263
1.45579
1.47387
1.47494
1.46327
1.44607
1.42951
1.4168
1.40849
1.40373
1.40134
1.4003
1.39994
1.39987
1.3999
1.39994
1.39997
1.39999
1.4
1.4
1.4
1.4
1.40001
1.4
1.40001
1.4
1.40001
1.40001
1.4
1.40001
1.4
1.40001
1.4
1.40001
1.40001
1.4
1.4
1.40002
1.39998
1.40001
1.40002
1.40001
1.39995
1.40009
1.39994
1.40005
1.39997
1.40005
1.39998
1.39999
1.40007
1.39994
1.40013
1.40003
1.4001
1.40011
1.40019
1.40023
1.4003
1.40035
1.40043
1.40052
1.40067
1.40091
1.40137
1.40217
1.40352
1.40567
1.40888
1.41345
1.41953
1.42701
1.43537
1.44368
1.45079
1.45555
1.45729
1.45567
1.45092
1.44355
1.43403
1.42262
1.40911
1.39383
1.37739
1.36147
1.34754
1.33704
1.32973
1.32498
1.32203
1.31946
1.31864
1.31879
1.31767
1.31403
1.30838
1.30615
1.31494
1.34014
1.37954
1.42273
1.45702
1.47364
1.47181
1.45778
1.43987
1.42407
1.41281
1.40596
1.40233
1.40067
1.40004
1.39988
1.39988
1.39992
1.39996
1.39998
1.39999
1.4
1.4
1.40001
1.4
1.40001
1.40001
1.4
1.40001
1.4
1.40001
1.4
1.4
1.40001
1.4
1.40001
1.4
1.4
1.40002
1.4
1.39999
1.40003
1.40001
1.39997
1.40003
1.40003
1.39997
1.4
1.40005
1.39994
1.40014
1.3999
1.40011
1.39999
1.40003
1.40014
1.40008
1.4002
1.40021
1.40031
1.40037
1.40045
1.40053
1.40067
1.40088
1.40127
1.40197
1.40318
1.40512
1.40811
1.41242
1.41831
1.42573
1.43425
1.44292
1.45042
1.4555
1.45717
1.45518
1.44981
1.44164
1.4316
1.42003
1.40733
1.3927
1.37717
1.36131
1.34805
1.33802
1.33273
1.33028
1.33044
1.32979
1.32838
1.32712
1.32643
1.327
1.32636
1.32136
1.31322
1.30874
1.31785
1.34518
1.38657
1.42994
1.46122
1.47266
1.46616
1.44986
1.43221
1.41813
1.40892
1.40375
1.40124
1.40022
1.3999
1.39987
1.39991
1.39995
1.39998
1.39999
1.4
1.4
1.4
1.4
1.40001
1.4
1.40001
1.4
1.4
1.40001
1.4
1.40001
1.4
1.40001
1.40001
1.40001
1.4
1.40002
1.39998
1.40003
1.4
1.40001
1.39996
1.40008
1.39991
1.40008
1.39993
1.40009
1.39995
1.4
1.40007
1.39998
1.40014
1.40001
1.40016
1.40015
1.40024
1.40028
1.40037
1.40044
1.40055
1.40067
1.40085
1.40119
1.40179
1.40284
1.40459
1.40731
1.41132
1.41692
1.42417
1.43273
1.44169
1.44973
1.45529
1.45728
1.4553
1.44961
1.44104
1.4305
1.41892
1.40673
1.39354
1.3791
1.36379
1.35025
1.34045
1.33592
1.33485
1.33601
1.33707
1.33649
1.33435
1.33004
1.32631
1.32632
1.32829
1.32864
1.32371
1.31612
1.31423
1.32719
1.3588
1.40178
1.44169
1.46567
1.46936
1.45784
1.4403
1.42412
1.41253
1.4056
1.40205
1.40051
1.39998
1.39986
1.39989
1.39994
1.39997
1.39999
1.4
1.4
1.4
1.40001
1.4
1.4
1.40001
1.4
1.40001
1.4
1.40001
1.40001
1.4
1.40001
1.40001
1.39999
1.40002
1.4
1.4
1.4
1.4
1.40001
1.40003
1.40003
1.39997
1.4
1.40005
1.39991
1.40014
1.3999
1.40009
1.4
1.40008
1.40011
1.40011
1.4003
1.40026
1.40039
1.40044
1.40056
1.40066
1.40084
1.40112
1.40163
1.40254
1.40408
1.40652
1.4102
1.41542
1.42239
1.43087
1.44007
1.44861
1.45487
1.45752
1.45584
1.45023
1.4415
1.43071
1.41896
1.40695
1.39511
1.38212
1.36825
1.35394
1.3434
1.33789
1.33823
1.33976
1.34049
1.33708
1.3319
1.32452
1.31659
1.31151
1.31117
1.31571
1.32181
1.32368
1.32013
1.31532
1.31987
1.3417
1.37899
1.42105
1.45367
1.46742
1.46271
1.44738
1.43025
1.41662
1.40785
1.4031
1.40092
1.4001
1.39988
1.39987
1.39992
1.39996
1.39998
1.39999
1.4
1.4
1.40001
1.4
1.40001
1.4
1.40001
1.40001
1.4
1.40002
1.39999
1.40002
1.4
1.4
1.4
1.40003
1.39997
1.40003
1.39997
1.40006
1.39993
1.40006
1.39993
1.40011
1.39992
1.40012
1.39996
1.39999
1.40007
1.40006
1.40006
1.4001
1.40019
1.40013
1.40029
1.40037
1.40049
1.40056
1.40068
1.40082
1.40105
1.4015
1.40227
1.4036
1.40577
1.40908
1.4139
1.42047
1.42873
1.43805
1.44707
1.45414
1.45763
1.45674
1.45145
1.44279
1.432
1.42006
1.40803
1.3966
1.38544
1.37329
1.35967
1.34747
1.33973
1.33897
1.3413
1.34277
1.33718
1.32511
1.3081
1.29036
1.27692
1.27145
1.27527
1.28852
1.30435
1.31589
1.31809
1.31401
1.31481
1.32972
1.36125
1.40249
1.44002
1.46188
1.4644
1.45278
1.43596
1.42089
1.41042
1.40439
1.40146
1.40028
1.39992
1.39987
1.39991
1.39995
1.39998
1.39999
1.4
1.4
1.4
1.40001
1.40001
1.4
1.40001
1.39999
1.40002
1.4
1.40001
1.40001
1.39999
1.40002
1.40002
1.39998
1.40002
1.39999
1.40002
1.40002
1.39996
1.40006
1.4
1.39993
1.40008
1.39991
1.40011
1.39998
1.40001
1.40011
1.40007
1.40008
1.40024
1.40035
1.40025
1.40044
1.40055
1.40069
1.40081
1.40103
1.40138
1.40203
1.40317
1.40505
1.40801
1.41238
1.41848
1.42639
1.43568
1.44512
1.45297
1.4575
1.45766
1.45312
1.44479
1.434
1.42216
1.40994
1.39834
1.38817
1.37793
1.36645
1.35333
1.34331
1.33903
1.34094
1.34263
1.33796
1.32159
1.29501
1.26109
1.2286
1.20479
1.19612
1.20721
1.23539
1.27089
1.30138
1.31533
1.31519
1.31222
1.32003
1.34608
1.38572
1.42619
1.45435
1.46359
1.45637
1.44087
1.42505
1.41315
1.40587
1.40212
1.40052
1.39998
1.39987
1.3999
1.39994
1.39997
1.39999
1.4
1.4
1.4
1.40001
1.4
1.40001
1.4
1.4
1.40001
1.39999
1.40003
1.39998
1.40002
1.40001
1.39998
1.40001
1.40004
1.39993
1.40011
1.39988
1.40008
1.40001
1.40004
1.39993
1.40011
1.4
1.39991
1.4001
1.40011
1.39989
1.40029
1.40011
1.40016
1.4004
1.40049
1.40055
1.40062
1.40081
1.401
1.40128
1.40183
1.40278
1.40439
1.40699
1.4109
1.41648
1.42393
1.433
1.44272
1.45134
1.45703
1.45832
1.455
1.44732
1.43668
1.42482
1.41264
1.40078
1.39023
1.38158
1.37253
1.36095
1.34887
1.34084
1.34019
1.34181
1.33899
1.32212
1.29037
1.24309
1.18919
1.13731
1.09916
1.08472
1.101
1.14457
1.20658
1.26618
1.30555
1.31915
1.31593
1.31634
1.33477
1.37069
1.41246
1.4456
1.46088
1.45829
1.44482
1.42887
1.41587
1.40745
1.4029
1.40082
1.40007
1.39988
1.39989
1.39993
1.39997
1.39999
1.4
1.4
1.40001
1.4
1.40001
1.40001
1.4
1.40002
1.39999
1.40002
1.4
1.4
1.40004
1.39996
1.40002
1.40006
1.39989
1.4001
1.40003
1.39988
1.40015
1.39994
1.39989
1.40018
1.39992
1.40007
1.40008
1.3999
1.40026
1.4
1.4001
1.40036
1.40029
1.40033
1.40059
1.4007
1.40079
1.40093
1.40122
1.40165
1.40243
1.4038
1.40603
1.40948
1.41452
1.42139
1.43008
1.43988
1.44919
1.45601
1.45872
1.45668
1.45011
1.44007
1.42799
1.41588
1.40391
1.39269
1.38385
1.37684
1.36866
1.35659
1.34546
1.34012
1.34125
1.34035
1.32689
1.29445
1.24167
1.17243
1.09496
1.02106
0.966572
0.946104
0.965548
1.02416
1.11017
1.20067
1.27422
1.31333
1.32159
1.32013
1.33009
1.35935
1.39991
1.43634
1.45679
1.45872
1.44772
1.4322
1.41847
1.40905
1.40372
1.40118
1.40019
1.39991
1.39988
1.39992
1.39996
1.39998
1.4
1.4
1.4
1.4
1.40001
1.4
1.40001
1.4
1.4
1.40002
1.39998
1.40004
1.39998
1.4
1.40008
1.39989
1.40003
1.40018
1.39974
1.40015
1.40005
1.39991
1.40002
1.40008
1.40001
1.3998
1.40021
1.40011
1.39977
1.40052
1.39997
1.4003
1.40046
1.40053
1.40056
1.40074
1.40096
1.40113
1.40147
1.40214
1.40325
1.40515
1.40816
1.4126
1.41885
1.42701
1.43665
1.44647
1.45442
1.45863
1.45805
1.45287
1.4438
1.43198
1.4194
1.4075
1.39613
1.38579
1.37902
1.37384
1.36549
1.35325
1.343
1.34045
1.3411
1.33402
1.30582
1.25374
1.17863
1.08885
0.989744
0.895883
0.825965
0.799249
0.823597
0.897613
1.003
1.12003
1.22291
1.29006
1.31892
1.32436
1.33057
1.35329
1.39029
1.42769
1.45197
1.45799
1.44963
1.43495
1.42085
1.41062
1.40457
1.40157
1.40033
1.39995
1.39988
1.39992
1.39996
1.39998
1.4
1.4
1.4
1.40001
1.4
1.40001
1.40001
1.4
1.40002
1.39999
1.40001
1.40001
1.39997
1.40007
1.39994
1.39997
1.40023
1.39978
1.39993
1.40034
1.39976
1.39996
1.40022
1.39988
1.39999
1.40016
1.39986
1.40031
1.39987
1.40017
1.40042
1.40023
1.40048
1.40061
1.40075
1.40083
1.40106
1.4014
1.40187
1.40278
1.40436
1.4069
1.41078
1.41634
1.42384
1.43309
1.44316
1.45212
1.45789
1.45902
1.45536
1.44747
1.43668
1.42372
1.41121
1.39994
1.38909
1.38035
1.37572
1.37185
1.36248
1.35059
1.34224
1.3408
1.33831
1.32059
1.27619
1.20228
1.10793
1.00078
0.8884
0.781664
0.701793
0.669761
0.699718
0.785731
0.909561
1.04817
1.17158
1.26008
1.30677
1.32277
1.33139
1.35091
1.38412
1.42067
1.44715
1.45649
1.45067
1.43706
1.4229
1.41209
1.40542
1.40197
1.40049
1.39999
1.39989
1.39991
1.39995
1.39998
1.39999
1.4
1.4
1.4
1.4
1.40001
1.4
1.40001
1.40001
1.4
1.40002
1.39998
1.40002
1.40001
1.39993
1.40019
1.39987
1.39983
1.40043
1.39981
1.39983
1.40017
1.40003
1.39996
1.39988
1.40033
1.39994
1.39978
1.40068
1.39986
1.40044
1.4004
1.40054
1.40061
1.40087
1.40107
1.40124
1.40165
1.4024
1.40365
1.40578
1.40906
1.41391
1.42065
1.42931
1.43929
1.44907
1.45633
1.45937
1.45743
1.45109
1.44121
1.42912
1.41574
1.40364
1.39315
1.38276
1.37626
1.37407
1.36974
1.3595
1.3487
1.34339
1.34033
1.3305
1.29984
1.23859
1.14661
1.03679
0.91964
0.802542
0.692998
0.609276
0.574765
0.606559
0.699689
0.838798
0.993008
1.13277
1.23659
1.2951
1.31907
1.3307
1.34913
1.38005
1.41558
1.44305
1.45464
1.45097
1.43855
1.42455
1.41338
1.40622
1.40239
1.40067
1.40005
1.3999
1.39991
1.39994
1.39997
1.39999
1.4
1.4
1.4
1.40001
1.4
1.4
1.40001
1.4
1.40001
1.4
1.4
1.40003
1.39996
1.40007
1.39998
1.39985
1.40027
1.40001
1.39962
1.40029
1.40014
1.39978
1.40004
1.40023
1.39976
1.40021
1.4
1.40028
1.40029
1.40013
1.40057
1.40057
1.40082
1.4009
1.40116
1.40146
1.40201
1.40306
1.40476
1.40747
1.41161
1.41753
1.4254
1.43497
1.44515
1.45386
1.45883
1.45897
1.45434
1.44578
1.43455
1.42161
1.40816
1.39699
1.38676
1.3774
1.37363
1.37327
1.36689
1.35632
1.34879
1.34554
1.33745
1.31599
1.27225
1.19714
1.09315
0.972909
0.852631
0.738489
0.635002
0.553114
0.517836
0.546494
0.642357
0.787981
0.951446
1.10404
1.2199
1.28825
1.31785
1.33065
1.34789
1.37725
1.41197
1.43989
1.45287
1.45081
1.43948
1.42582
1.41446
1.40693
1.40278
1.40085
1.40011
1.39992
1.39991
1.39994
1.39997
1.39999
1.4
1.4
1.4
1.4
1.4
1.40001
1.40001
1.4
1.40001
1.4
1.40001
1.40001
1.39998
1.40006
1.3999
1.40014
1.40003
1.39969
1.40027
1.40008
1.39984
1.40002
1.40007
1.40011
1.39983
1.4001
1.40056
1.39966
1.40045
1.40036
1.40055
1.40065
1.40089
1.40104
1.40125
1.40174
1.40255
1.40388
1.40607
1.40948
1.41452
1.42151
1.43035
1.44046
1.45022
1.45725
1.45964
1.45709
1.45016
1.43999
1.42778
1.41443
1.40125
1.39111
1.38066
1.37304
1.37273
1.37204
1.36326
1.35356
1.35113
1.34699
1.32999
1.29525
1.23995
1.15679
1.04637
0.922138
0.80263
0.696556
0.603737
0.530472
0.496341
0.520959
0.613229
0.756425
0.924339
1.08397
1.20682
1.282
1.31684
1.33195
1.34863
1.37615
1.40954
1.43739
1.45129
1.45042
1.43998
1.42671
1.4153
1.40754
1.40313
1.40102
1.40018
1.39994
1.39991
1.39994
1.39997
1.39999
1.4
1.4
1.4
1.4
1.4
1.40001
1.4
1.40001
1.40001
1.4
1.40002
1.39997
1.40004
1.39998
1.40002
1.4
1.39993
1.40008
1.40011
1.39985
1.39999
1.40017
1.39996
1.39977
1.40038
1.40006
1.4
1.40021
1.40031
1.40063
1.40049
1.40077
1.40085
1.40114
1.4015
1.40214
1.40314
1.40483
1.40759
1.41178
1.41772
1.42564
1.43521
1.44543
1.45423
1.45917
1.45904
1.45415
1.44541
1.43403
1.42127
1.40756
1.39535
1.38558
1.37499
1.37006
1.37265
1.36961
1.3591
1.35332
1.35402
1.34493
1.31625
1.27078
1.20784
1.12051
1.00745
0.884145
0.769879
0.674013
0.593835
0.532605
0.50293
0.52614
0.610545
0.747814
0.915235
1.07578
1.20001
1.27702
1.31484
1.33278
1.35015
1.37652
1.40851
1.43574
1.44993
1.44982
1.4401
1.42723
1.4159
1.40802
1.40343
1.40118
1.40025
1.39996
1.39992
1.39994
1.39997
1.39998
1.4
1.4
1.4
1.4
1.40001
1.4
1.40001
1.4
1.4
1.4
1.40001
1.39999
1.40005
1.39994
1.40003
1.40002
1.40003
1.40001
1.39987
1.40018
1.40001
1.39986
1.40002
1.40015
1.40014
1.40004
1.39982
1.4006
1.4003
1.40037
1.40059
1.4008
1.40097
1.40126
1.40176
1.4025
1.40379
1.40593
1.4093
1.41423
1.421
1.4297
1.4397
1.4496
1.45703
1.45978
1.45747
1.45058
1.44047
1.42816
1.41514
1.4013
1.3904
1.38023
1.36993
1.36888
1.37182
1.36568
1.35623
1.35599
1.35523
1.33671
1.2974
1.24559
1.1792
1.08924
0.975805
0.855901
0.749774
0.665282
0.599363
0.550219
0.528193
0.552326
0.631266
0.763044
0.924209
1.08034
1.20246
1.27797
1.31483
1.33305
1.35126
1.37766
1.4088
1.43509
1.44891
1.44907
1.43987
1.4274
1.41625
1.40835
1.40368
1.40132
1.40032
1.39999
1.39992
1.39994
1.39996
1.39998
1.39999
1.4
1.4
1.40001
1.4
1.40001
1.40001
1.4
1.4
1.40001
1.39999
1.40004
1.39996
1.40002
1.40004
1.40003
1.39989
1.40003
1.40017
1.39989
1.39988
1.40006
1.40017
1.40017
1.39972
1.40005
1.40042
1.40022
1.40029
1.40037
1.40067
1.4008
1.40107
1.40142
1.40199
1.40293
1.40456
1.40715
1.41106
1.41666
1.42418
1.43348
1.44358
1.45279
1.45866
1.45942
1.45527
1.44687
1.4355
1.42273
1.40931
1.39595
1.38624
1.37486
1.3664
1.36861
1.36889
1.36106
1.35692
1.35937
1.35193
1.32259
1.2775
1.22264
1.15333
1.06104
0.949623
0.835683
0.738336
0.664912
0.611913
0.574708
0.563798
0.593781
0.674816
0.801875
0.95243
1.09845
1.21329
1.28403
1.31785
1.33479
1.35305
1.37948
1.40988
1.43513
1.44826
1.44828
1.43936
1.42726
1.41635
1.40854
1.40385
1.40143
1.40038
1.40001
1.39993
1.39994
1.39996
1.39998
1.4
1.4
1.4
1.40001
1.4
1.40001
1.4
1.40001
1.4
1.40001
1.4
1.40001
1.39998
1.40006
1.39998
1.39994
1.40006
1.40011
1.39992
1.3998
1.40022
1.40017
1.39991
1.3998
1.40008
1.40027
1.4003
1.39999
1.40027
1.40058
1.40066
1.40082
1.40111
1.40153
1.40224
1.40347
1.4054
1.40835
1.41274
1.41895
1.42709
1.43676
1.44672
1.455
1.45934
1.45848
1.45279
1.44334
1.43072
1.41789
1.40378
1.39178
1.38231
1.36985
1.36523
1.36735
1.36366
1.35828
1.36037
1.36033
1.34287
1.30667
1.25974
1.2024
1.1285
1.0347
0.927239
0.821502
0.73399
0.67133
0.628125
0.602428
0.604707
0.647639
0.737256
0.861796
1.00153
1.13233
1.23214
1.29271
1.32226
1.33819
1.35623
1.38225
1.41171
1.43571
1.44784
1.44744
1.43861
1.42685
1.41624
1.40859
1.40395
1.40152
1.40044
1.40004
1.39994
1.39994
1.39996
1.39998
1.39999
1.4
1.40001
1.4
1.40001
1.4
1.40001
1.4
1.40001
1.4
1.40001
1.39999
1.40003
1.39998
1.39999
1.40002
1.40008
1.39992
1.39987
1.40024
1.40008
1.39981
1.39993
1.40003
1.40035
1.4001
1.39988
1.40017
1.40044
1.4005
1.4006
1.40079
1.40117
1.4017
1.40254
1.40394
1.40615
1.40947
1.41429
1.42095
1.42954
1.4394
1.44907
1.45638
1.45931
1.45721
1.45042
1.44006
1.42658
1.41337
1.39886
1.3888
1.3779
1.36672
1.36533
1.36378
1.35824
1.35857
1.36292
1.35634
1.33123
1.29322
1.24474
1.18279
1.10436
1.01112
0.909354
0.813027
0.736597
0.684272
0.649995
0.635772
0.651737
0.709428
0.807014
0.930744
1.06135
1.17587
1.2578
1.30479
1.32752
1.34184
1.36016
1.38608
1.41451
1.43692
1.44765
1.44654
1.43766
1.42619
1.41592
1.40851
1.40398
1.40157
1.40048
1.40007
1.39995
1.39995
1.39997
1.39998
1.39999
1.4
1.4
1.40001
1.40001
1.4
1.40001
1.4
1.40001
1.4
1.40001
1.4
1.40001
1.39999
1.40002
1.40002
1.39997
1.39995
1.4001
1.4001
1.39979
1.39999
1.40011
1.4002
1.39997
1.39986
1.40009
1.40039
1.40036
1.40034
1.40054
1.40081
1.40123
1.40189
1.4028
1.40431
1.40679
1.41048
1.41558
1.42249
1.43133
1.44131
1.45068
1.45712
1.45887
1.45583
1.4484
1.43714
1.42341
1.40892
1.39525
1.38591
1.37374
1.36612
1.36451
1.35895
1.35536
1.35952
1.3612
1.34857
1.3214
1.28269
1.23062
1.16342
1.08291
0.992104
0.897613
0.812177
0.7477
0.704535
0.67952
0.676615
0.706065
0.7744
0.875527
0.996349
1.11674
1.21629
1.28311
1.31818
1.3338
1.34586
1.36458
1.39074
1.41806
1.43859
1.44761
1.44554
1.43649
1.4253
1.41542
1.40831
1.40394
1.4016
1.40051
1.40009
1.39997
1.39995
1.39997
1.39998
1.39999
1.4
1.4
1.40001
1.4
1.40001
1.4
1.40001
1.4
1.40001
1.4
1.40001
1.4
1.40002
1.4
1.40001
1.39998
1.40002
1.40008
1.39988
1.39999
1.40014
1.40002
1.4
1.39984
1.40012
1.40027
1.4002
1.40012
1.40031
1.40055
1.4009
1.40127
1.40191
1.40296
1.40463
1.4073
1.41122
1.41651
1.42352
1.43241
1.44243
1.45164
1.45741
1.4583
1.45447
1.44679
1.43488
1.42101
1.40509
1.39271
1.38235
1.37132
1.36636
1.36223
1.35579
1.35455
1.35774
1.35534
1.34081
1.3138
1.27272
1.21637
1.14635
1.06615
0.979513
0.894217
0.821586
0.768498
0.733411
0.716647
0.724177
0.765207
0.840394
0.94265
1.05722
1.16478
1.24913
1.30241
1.32823
1.33949
1.35069
1.36991
1.39605
1.42204
1.44045
1.44755
1.44439
1.4351
1.4242
1.41475
1.40799
1.40383
1.40159
1.40053
1.40011
1.39998
1.39996
1.39997
1.39998
1.4
1.4
1.40001
1.4
1.40001
1.4
1.40001
1.40001
1.4
1.40001
1.4
1.4
1.40001
1.4
1.40001
1.40001
1.39999
1.40004
1.39999
1.39994
1.40011
1.39999
1.39998
1.39992
1.40008
1.40016
1.40007
1.39997
1.40017
1.40035
1.40057
1.40081
1.40116
1.40189
1.40314
1.40487
1.40752
1.41156
1.41708
1.42409
1.43279
1.44275
1.45197
1.45743
1.45779
1.45332
1.4455
1.43346
1.41921
1.40258
1.39033
1.37895
1.37029
1.36574
1.36048
1.35514
1.35325
1.35315
1.3485
1.3339
1.30555
1.26191
1.20356
1.13309
1.05462
0.974599
0.901329
0.842406
0.799146
0.770759
0.760291
0.776964
0.827154
0.908379
1.01036
1.11637
1.20965
1.27785
1.31729
1.33481
1.34362
1.35567
1.37604
1.40201
1.42636
1.44239
1.44739
1.44306
1.43351
1.4229
1.41393
1.40758
1.40367
1.40156
1.40055
1.40013
1.39999
1.39997
1.39998
1.39999
1.39999
1.4
1.4
1.4
1.40001
1.4
1.40001
1.4
1.40001
1.40001
1.4
1.40001
1.4
1.4
1.40002
1.39999
1.40002
1.40002
1.39995
1.40005
1.40003
1.39994
1.40001
1.40001
1.40011
1.39996
1.39998
1.40009
1.4002
1.40029
1.40043
1.40067
1.40109
1.40187
1.40315
1.4049
1.40747
1.41154
1.41721
1.42419
1.43256
1.44232
1.45167
1.45727
1.45745
1.45252
1.44445
1.43281
1.41811
1.40152
1.38802
1.37638
1.3692
1.36473
1.36014
1.35515
1.35123
1.34845
1.34214
1.32574
1.29561
1.25128
1.19293
1.12303
1.04873
0.978708
0.919312
0.872675
0.837553
0.814332
0.809885
0.835092
0.893727
0.979729
1.07818
1.17293
1.25071
1.30294
1.32968
1.3402
1.34743
1.36088
1.38272
1.40849
1.43091
1.4443
1.44707
1.44151
1.43171
1.42145
1.413
1.40709
1.40347
1.4015
1.40055
1.40015
1.40001
1.39997
1.39998
1.39999
1.4
1.4
1.4
1.40001
1.4
1.40001
1.4
1.40001
1.40001
1.4
1.40001
1.40001
1.4
1.40001
1.4
1.4
1.40002
1.39998
1.40001
1.40004
1.39996
1.40002
1.4
1.40004
1.39997
1.40001
1.40001
1.40009
1.40011
1.40017
1.40028
1.40061
1.40108
1.40171
1.40292
1.40476
1.40729
1.41116
1.41683
1.42379
1.43184
1.44128
1.45073
1.45686
1.45735
1.45217
1.44374
1.43257
1.41784
1.40172
1.38633
1.37447
1.36772
1.36379
1.36002
1.35517
1.35009
1.34492
1.33542
1.31639
1.28558
1.24145
1.18316
1.11581
1.04972
0.992394
0.945854
0.908649
0.879432
0.861237
0.864828
0.899824
0.96627
1.05266
1.14295
1.22359
1.28473
1.32195
1.33857
1.34468
1.35188
1.36715
1.39021
1.41531
1.4354
1.44593
1.44642
1.43968
1.42972
1.41987
1.41198
1.40655
1.40323
1.40142
1.40054
1.40016
1.40002
1.39998
1.39999
1.39999
1.4
1.4
1.4
1.4
1.40001
1.4
1.40001
1.4
1.40001
1.4
1.40001
1.4
1.40001
1.40001
1.4
1.40002
1.4
1.4
1.40002
1.39999
1.4
1.40002
1.39999
1.40001
1.39998
1.40001
1.40002
1.4
1.40005