/*--------------------------------*- C++ -*----------------------------------*\
  =========                 |
  \\      /  F ield         | OpenFOAM: The Open Source CFD Toolbox
   \\    /   O peration     | Website:  https://openfoam.org
    \\  /    A nd           | Version:  6
     \\/     M anipulation  |
\*---------------------------------------------------------------------------*/
FoamFile
{
    version     2.0;
    format      ascii;
    class       volScalarField;
    location    "3.2";
    object      k;
}
// * * * * * * * * * * * * * * * * * * * * * * * * * * * * * * * * * * * * * //

dimensions      [0 2 -2 0 0 0 0];

internalField   nonuniform List<scalar> 
4214
(
0.0267318
0.0183598
0.0157141
0.0152188
0.0155031
0.0161411
0.0171067
0.0185851
0.0209729
0.0248097
0.030914
0.0404035
0.054637
0.0751657
0.103767
0.142413
0.189327
0.225132
0.210589
0.161921
0.127022
0.103467
0.0871929
0.0737463
0.061688
0.0512101
0.0424525
0.0353756
0.0298227
0.0255925
0.0224621
0.0202029
0.0186016
0.0174693
0.0166622
0.0160753
0.0156556
0.0154773
0.0159828
0.0186289
0.027258
0.0164821
0.0147606
0.0143947
0.0145908
0.0150546
0.0157342
0.0167128
0.0181924
0.0205322
0.0243092
0.0303607
0.0399252
0.0546309
0.0764957
0.107974
0.15157
0.20497
0.240662
0.216332
0.16302
0.131431
0.10987
0.092882
0.0773762
0.0634655
0.0516247
0.0419532
0.0342947
0.0284074
0.0240218
0.0208555
0.0186331
0.017108
0.0160764
0.015379
0.0148965
0.0145487
0.0143123
0.0142797
0.0148349
0.0170426
0.0141776
0.0137484
0.0138278
0.0141447
0.014628
0.0153052
0.016279
0.0177481
0.020053
0.0237478
0.0297214
0.0393142
0.054433
0.0776573
0.112265
0.16179
0.221586
0.255346
0.220516
0.165312
0.137356
0.117282
0.0986409
0.0808685
0.0651509
0.0520341
0.041486
0.03325
0.0270161
0.0224572
0.0192374
0.0170371
0.0155768
0.0146314
0.0140298
0.0136483
0.0134039
0.0132537
0.0132098
0.0133983
0.0142152
0.0132603
0.0131891
0.0133784
0.0137141
0.0141896
0.014854
0.015813
0.0172593
0.0195254
0.0231638
0.0290736
0.0386884
0.0541974
0.0788198
0.116803
0.172757
0.239514
0.271351
0.226346
0.170474
0.146096
0.125999
0.104842
0.0846916
0.0672873
0.0529812
0.0415533
0.0326698
0.0259932
0.021166
0.0178137
0.0155758
0.014138
0.013249
0.0127214
0.0124235
0.0122694
0.0122116
0.0122401
0.0124041
0.0128965
0.0126573
0.012718
0.0129409
0.0132737
0.0137342
0.0143795
0.0153148
0.0167275
0.0189427
0.0225109
0.0283537
0.0379984
0.0539191
0.0800065
0.121612
0.184551
0.258523
0.287496
0.232303
0.177452
0.156782
0.135635
0.111671
0.0893465
0.0705025
0.0550958
0.0427076
0.0329972
0.0256672
0.020379
0.0167411
0.0143551
0.012864
0.01198
0.0114904
0.0112489
0.0111621
0.0111781
0.0112785
0.0114828
0.0119
0.0121465
0.012265
0.0124981
0.0128219
0.0132638
0.0138842
0.0147879
0.0161577
0.0183123
0.0218
0.0275619
0.0372169
0.0535373
0.0811466
0.126664
0.197273
0.278908
0.304697
0.239642
0.186768
0.169559
0.146528
0.119773
0.0956509
0.0756849
0.0592439
0.0457072
0.0348318
0.026477
0.0203993
0.0162223
0.0135111
0.0118506
0.0108965
0.0103947
0.0101726
0.0101228
0.0101857
0.0103359
0.0105785
0.0109807
0.0116674
0.0118124
0.0120453
0.0123558
0.0127754
0.0133655
0.0142302
0.0155492
0.0176358
0.0210362
0.0267082
0.0363562
0.0530627
0.0822409
0.131867
0.210663
0.300741
0.323339
0.248921
0.198595
0.184467
0.159203
0.129993
0.104588
0.0838806
0.0664514
0.0514623
0.038899
0.028945
0.0215746
0.0164772
0.0131795
0.0111842
0.0100582
0.00948019
0.00923303
0.00918463
0.0092619
0.00943134
0.00968885
0.0100763
0.011197
0.0113495
0.0115723
0.0118628
0.0122536
0.0128067
0.0136264
0.0148905
0.016907
0.0202182
0.0257946
0.0354209
0.052486
0.0832202
0.137016
0.224278
0.323844
0.344239
0.261096
0.213174
0.201846
0.174507
0.143423
0.117292
0.0962367
0.0778574
0.0610277
0.0460725
0.0337147
0.0243331
0.0177675
0.0135107
0.0109501
0.00951611
0.00878294
0.00846088
0.00837731
0.00843657
0.00859334
0.00883531
0.00918601
0.0107164
0.0108528
0.0110433
0.0112956
0.0116469
0.012161
0.012941
0.0141585
0.0161122
0.019337
0.0248094
0.0343845
0.051733
0.0838567
0.141595
0.237231
0.347523
0.368109
0.277165
0.230665
0.222234
0.193564
0.16136
0.13501
0.113924
0.0946169
0.0755387
0.057355
0.0415707
0.0292157
0.0204279
0.0146901
0.0112456
0.00931745
0.00832789
0.00787341
0.00771897
0.00773276
0.00785154
0.00805236
0.00834367
0.0101924
0.0102902
0.0104516
0.0106832
0.0110137
0.0114997
0.0122387
0.0133988
0.0152734
0.0183875
0.0237136
0.0331583
0.0506193
0.0837262
0.144733
0.247966
0.370324
0.395185
0.298329
0.251353
0.246406
0.217759
0.185354
0.15917
0.138153
0.117837
0.096114
0.0738149
0.0534244
0.0368954
0.0248997
0.0169676
0.0122026
0.00952182
0.00814035
0.00748069
0.00721767
0.00716316
0.00722761
0.00737256
0.00759233
0.00968509
0.00978926
0.00994662
0.0101635
0.010469
0.0109165
0.0115992
0.0126769
0.0144293
0.0173642
0.022446
0.0316057
0.0488636
0.0822631
0.145352
0.254569
0.389989
0.424962
0.325539
0.27566
0.275234
0.248609
0.217209
0.191708
0.170377
0.148614
0.123761
0.096475
0.0702392
0.0481503
0.031747
0.0206784
0.0140147
0.0102195
0.00826133
0.00729581
0.00687784
0.00673206
0.00673162
0.00681497
0.00696192
0.00918639
0.00930316
0.00946121
0.00966793
0.0099508
0.0103632
0.0109919
0.011984
0.0136003
0.0163173
0.0210586
0.0297188
0.0463207
0.0791016
0.142636
0.255461
0.403884
0.456838
0.356843
0.304054
0.309289
0.287366
0.258614
0.23408
0.212456
0.188296
0.159459
0.126242
0.0929177
0.0637699
0.0416448
0.0262451
0.0169605
0.0115477
0.0087639
0.00734587
0.0067094
0.00644154
0.00636616
0.00638656
0.00646667
0.00867638
0.00880752
0.00897122
0.00917589
0.00944657
0.00982983
0.0104091
0.0113207
0.0128006
0.0152849
0.0196282
0.0276194
0.0431391
0.0743534
0.136481
0.250247
0.409348
0.488903
0.391584
0.337442
0.348179
0.334396
0.310313
0.287877
0.265201
0.238525
0.204425
0.163956
0.122272
0.0844052
0.0553279
0.0341375
0.0214208
0.0136959
0.00977074
0.00768028
0.00673639
0.00629683
0.00613173
0.00608702
0.00610903
0.00815936
0.00830479
0.00847617
0.00868237
0.0089466
0.00931162
0.00985022
0.0106899
0.0120421
0.0142957
0.0182166
0.0254291
0.0395403
0.0683518
0.127312
0.238361
0.403479
0.516002
0.439627
0.375638
0.390475
0.388928
0.371785
0.354626
0.332074
0.301329
0.260119
0.210489
0.159115
0.110411
0.0735372
0.0447644
0.0278905
0.0168894
0.0114734
0.00837507
0.00700753
0.00631144
0.00603263
0.00591367
0.00588477
0.00764715
0.00780495
0.00798406
0.00819361
0.00845512
0.00880776
0.00931777
0.0100967
0.0113363
0.0133757
0.0168825
0.0232804
0.0358661
0.0617614
0.116508
0.221318
0.385809
0.529877
0.499921
0.422858
0.433316
0.44876
0.440099
0.432412
0.412509
0.377869
0.327931
0.266455
0.204493
0.141697
0.0970632
0.0582715
0.0369941
0.0213213
0.0141583
0.00952231
0.00761258
0.00650941
0.00608445
0.00586458
0.00578743
0.00715427
0.00732106
0.00750638
0.00771946
0.00798038
0.00832526
0.00881432
0.00954667
0.010691
0.0125409
0.0156856
0.0213382
0.0329337
0.0561191
0.107758
0.202499
0.358881
0.522929
0.549677
0.476901
0.468408
0.502582
0.507607
0.515132
0.503335
0.467716
0.409017
0.331317
0.259935
0.177483
0.127002
0.0742261
0.0495518
0.0269766
0.0182539
0.0111751
0.00870946
0.00691474
0.00632459
0.00593743
0.00581279
0.00669885
0.00686875
0.00705715
0.00727252
0.00753403
0.00787451
0.00834979
0.0090482
0.0101241
0.0118431
0.0150643
0.0203258
0.0337697
0.0549583
0.108441
0.187041
0.326573
0.486858
0.560374
0.509707
0.484026
0.528036
0.560812
0.595462
0.596615
0.568615
0.504185
0.40312
0.327923
0.215853
0.165283
0.0911099
0.0668154
0.03324
0.024458
0.0131743
0.0105882
0.00749559
0.00683892
0.00611305
0.00596435
0.00581957
0.0057415
0.00575921
0.00589748
0.0061715
0.00659393
0.00717169
0.00790128
0.00876381
0.0097208
0.0107201
0.011732
0.0128087
0.014167
0.0165295
0.0233323
0.0506933
0.00579028
0.00572828
0.00576018
0.00589921
0.00616075
0.00655881
0.0071039
0.00779969
0.00863966
0.00960497
0.0106718
0.0118274
0.0131435
0.0149138
0.0180518
0.0264228
0.0530011
0.00577088
0.00573207
0.00577607
0.00591743
0.00617327
0.00656017
0.00709325
0.00778655
0.00864795
0.00968074
0.0108849
0.0122769
0.0139606
0.0162956
0.0203912
0.0308539
0.0545788
0.00577594
0.0057502
0.00580348
0.0059486
0.00620382
0.00658963
0.00712832
0.00784405
0.00876246
0.0099108
0.0113218
0.0130535
0.0152523
0.0183341
0.0235743
0.0357078
0.0562792
0.00579129
0.0057778
0.00583953
0.00598936
0.00624646
0.00663562
0.00718952
0.00794588
0.00894955
0.0102546
0.0119324
0.0140923
0.0169416
0.0209567
0.0274926
0.0408789
0.0581815
0.0058145
0.00581282
0.00588181
0.00603343
0.00629071
0.00668486
0.00725653
0.00805808
0.0091559
0.0106344
0.0126072
0.0152488
0.0188525
0.0239814
0.0320607
0.0470772
0.0603551
0.00584653
0.00585355
0.00592541
0.0060763
0.00633168
0.00672625
0.00730836
0.00814406
0.00932158
0.010958
0.0132124
0.0163301
0.020727
0.027117
0.0371076
0.0546502
0.0628137
0.00588358
0.00589698
0.00596871
0.00611581
0.00636408
0.00675027
0.00732781
0.00817313
0.00939323
0.0111359
0.0136084
0.0171243
0.022252
0.0299448
0.0421292
0.0629119
0.0655294
0.00592656
0.00594193
0.00601095
0.00615041
0.00638528
0.00675215
0.0073059
0.0081281
0.00933776
0.0111065
0.0136836
0.0174524
0.0231039
0.0319108
0.0461737
0.0701689
0.068468
0.00597313
0.00598818
0.00605209
0.00618031
0.00639588
0.00673305
0.00724429
0.00801012
0.00915245
0.0108543
0.0133918
0.0171992
0.0230279
0.0324954
0.048195
0.0744226
0.0715195
0.00602282
0.00603612
0.006093
0.00620731
0.00639936
0.00669941
0.00715432
0.00783779
0.00886521
0.0104164
0.0127734
0.0163897
0.0220572
0.0314606
0.0476182
0.0746304
0.074528
0.00607591
0.00608652
0.00613524
0.00623424
0.00640086
0.0066606
0.00705281
0.00764035
0.00852441
0.0098686
0.0119391
0.0151779
0.0203611
0.0289985
0.0446538
0.0713035
0.0772884
0.00613301
0.00614058
0.00618075
0.00626433
0.00640583
0.00662614
0.0069568
0.00744824
0.00818311
0.00929937
0.0110304
0.0137787
0.0182643
0.0258978
0.0399962
0.0657167
0.0795973
0.00619472
0.00619946
0.00623152
0.00630059
0.00641889
0.00660352
0.00687926
0.00728491
0.0078841
0.00878525
0.0101786
0.0124072
0.0161089
0.0225419
0.0345667
0.0589354
0.0813146
0.00626183
0.00626455
0.00628943
0.00634558
0.00644348
0.00659748
0.00682731
0.00716274
0.00765117
0.00837318
0.00947338
0.0112243
0.0141612
0.0193962
0.0295641
0.0517741
0.0823615
0.00633487
0.00633678
0.00635606
0.00640138
0.00648199
0.00661043
0.00680325
0.00708419
0.00748922
0.00807709
0.00895248
0.0103182
0.0125978
0.0167437
0.0251256
0.0449929
0.0826564
0.00641445
0.00641729
0.00643284
0.00646969
0.00653618
0.00664369
0.00680688
0.00704609
0.00739062
0.00788546
0.00860655
0.00969867
0.0114762
0.0147112
0.021528
0.0387573
0.0820843
0.00650072
0.00650639
0.00652071
0.00655182
0.00660749
0.00669825
0.00683765
0.00704429
0.00734418
0.0077753
0.00839702
0.00931405
0.010748
0.0132769
0.0186959
0.0331783
0.0805496
0.00659396
0.00660462
0.0066203
0.00664874
0.00669703
0.00677502
0.00689552
0.00707614
0.00734143
0.00772647
0.00828333
0.00909493
0.0103181
0.0123515
0.0165974
0.0289977
0.0780721
0.00669403
0.0067117
0.00673169
0.00676076
0.00680535
0.00687462
0.00698077
0.00714069
0.00737807
0.00772701
0.00823736
0.00898385
0.0100903
0.0118277
0.0152079
0.0254723
0.0747693
0.00680101
0.00682783
0.00685475
0.00688789
0.00693259
0.00699723
0.00709331
0.00723705
0.00745147
0.00777009
0.0082424
0.00894156
0.00997984
0.0115557
0.0143564
0.0226779
0.0709061
0.00691485
0.00695261
0.00698922
0.00702973
0.00707849
0.00714279
0.00723323
0.00736521
0.00756095
0.0078533
0.00829162
0.0089496
0.00993858
0.0114273
0.0138866
0.0206444
0.0668586
0.00703578
0.00708648
0.00713507
0.00718597
0.00724254
0.00731081
0.00740026
0.00752513
0.00770651
0.00797627
0.00838329
0.00900203
0.00994626
0.0113796
0.0136555
0.0193068
0.0630282
0.0071641
0.00722909
0.00729203
0.00735612
0.00742398
0.00750038
0.00759347
0.00771606
0.0078877
0.00813867
0.00851655
0.00909594
0.0099939
0.0113804
0.0135599
0.0185063
0.0597235
0.00730014
0.00738147
0.00746052
0.00754017
0.00762237
0.00771075
0.00781206
0.00793749
0.00810463
0.00834145
0.00869331
0.0092338
0.0100827
0.0114214
0.0135476
0.0180926
0.0571007
0.00744419
0.00754308
0.00764042
0.00773805
0.00783747
0.00794147
0.00805555
0.00818925
0.00835795
0.00858675
0.00891767
0.00942168
0.0102198
0.0115061
0.0135971
0.0179336
0.0552166
0.00759556
0.00771457
0.00783192
0.0079497
0.00806907
0.00819225
0.00832372
0.00847153
0.00864885
0.00887752
0.00919523
0.00966835
0.0104164
0.0116451
0.0137048
0.0179707
0.0540713
0.00775385
0.00789417
0.00803381
0.00817421
0.00831645
0.00846251
0.0086163
0.00878472
0.0089789
0.00921737
0.00953265
0.00998467
0.0106878
0.0118553
0.0138779
0.0181575
0.0536409
0.00791742
0.00808133
0.00824492
0.00841018
0.00857824
0.00875115
0.00893271
0.00912909
0.00934981
0.0096101
0.00993704
0.0103823
0.0110518
0.0121593
0.0141347
0.0184753
0.0538703
0.0080837
0.00827292
0.00846276
0.00865543
0.00885254
0.00905669
0.00927206
0.00950455
0.00976287
0.0100597
0.0104164
0.0108751
0.0115289
0.0125848
0.0145019
0.0189211
0.0546902
0.00825386
0.00846848
0.00868577
0.00890802
0.00913746
0.00937741
0.00963321
0.00991149
0.0102205
0.0105712
0.0109796
0.011477
0.0121409
0.0131622
0.0150134
0.0195002
0.056023
0.00841998
0.00866426
0.00891153
0.00916586
0.00943088
0.00971235
0.0100168
0.0103517
0.010726
0.0111504
0.0116361
0.0122031
0.0129099
0.0139243
0.0157101
0.0202283
0.0577923
0.00859295
0.00886263
0.00913943
0.00942776
0.00973303
0.0100624
0.0104244
0.0108281
0.0112845
0.0118056
0.0123982
0.0130704
0.0138603
0.0149061
0.0166414
0.0211364
0.0599171
0.0087548
0.00905771
0.00936799
0.00969422
0.0100446
0.0104292
0.0108591
0.0113457
0.0119036
0.0125484
0.0132822
0.0140996
0.0150191
0.0161474
0.0178678
0.0222802
0.0623056
0.00893056
0.0092572
0.00960022
0.0099667
0.0103675
0.0108159
0.0113258
0.0119114
0.0125938
0.0133957
0.0143103
0.0153175
0.0164193
0.0176957
0.019466
0.0237541
0.0648415
0.00908865
0.00945456
0.00983478
0.010246
0.0107042
0.0112265
0.0118303
0.012534
0.0133701
0.0143711
0.0155123
0.0167582
0.0181033
0.0196124
0.0215392
0.0257123
0.0673685
0.00927521
0.00966046
0.0100756
0.0105351
0.0110584
0.0116664
0.0123801
0.0132256
0.0142542
0.0155078
0.0169268
0.0184657
0.020129
0.0219842
0.0242326
0.0283993
0.0696845
0.00943693
0.00986394
0.0103209
0.0108357
0.0114341
0.0121414
0.0129844
0.0140038
0.0152783
0.0168505
0.0186005
0.0204961
0.0225786
0.0249402
0.0277597
0.0321954
0.0715553
0.00963947
0.0100793
0.010576
0.0111523
0.0118362
0.0126582
0.0136569
0.0148969
0.0164889
0.0184525
0.0205853
0.0229225
0.0255732
0.0286791
0.0324427
0.0376911
0.0727457
0.00980454
0.010291
0.0108398
0.0114875
0.0122691
0.0132276
0.0144242
0.0159522
0.0179488
0.0203669
0.0229374
0.0258489
0.0292994
0.0335128
0.0387943
0.0458099
0.073102
0.0151922
0.0157281
0.0162612
0.0167827
0.0172832
0.0177526
0.0181809
0.0185583
0.0188759
0.0191261
0.0193032
0.0194035
0.0194258
0.019371
0.0192425
0.0190457
0.0187879
0.0184772
0.0181229
0.0177314
0.0172736
0.0167613
0.0163074
0.0158509
0.0153958
0.0149407
0.0144937
0.0140272
0.0136521
0.0132057
0.0128768
0.0124532
0.0121603
0.0117696
0.0115102
0.0111619
0.0109352
0.0106353
0.0104399
0.0101885
0.0100206
0.0162524
0.0168432
0.0174293
0.0180009
0.0185472
0.019057
0.0195188
0.0199219
0.0202564
0.0205142
0.0206893
0.0207783
0.0207803
0.0206971
0.0205332
0.0202953
0.019992
0.019633
0.0192286
0.0187863
0.0182728
0.0177106
0.0172137
0.0167192
0.0162286
0.0157445
0.0152516
0.0147737
0.0143351
0.0139031
0.0135058
0.0131056
0.0127458
0.0123818
0.0120615
0.0117399
0.0114615
0.011186
0.0109491
0.0107186
0.0105193
0.0173923
0.0180459
0.0186931
0.0193226
0.0199221
0.0204789
0.0209803
0.021414
0.0217694
0.0220376
0.0222124
0.0222904
0.0222715
0.0221583
0.0219568
0.021675
0.0213229
0.020912
0.0204537
0.0199569
0.0193844
0.0187685
0.0182255
0.0176891
0.0171605
0.016643
0.0161157
0.0155994
0.0151272
0.0146797
0.0142542
0.0138433
0.0134549
0.0130818
0.0127342
0.0124049
0.0121031
0.0118216
0.0115667
0.0113318
0.0111197
0.0186192
0.0193446
0.0200616
0.0207576
0.0214186
0.0220302
0.022578
0.0230483
0.0234293
0.0237114
0.0238881
0.0239563
0.0239164
0.0237723
0.0235312
0.0232029
0.0227992
0.022333
0.0218176
0.0212628
0.020628
0.0199553
0.0193628
0.018781
0.0182113
0.0176572
0.0171056
0.0165489
0.0160319
0.0155598
0.0151138
0.0146882
0.014283
0.0138972
0.0135333
0.0131915
0.0128742
0.0125811
0.0123131
0.0120684
0.0118459
0.0199449
0.0207511
0.0215474
0.0223192
0.0230508
0.0237256
0.0243275
0.0248411
0.0252533
0.0255536
0.0257352
0.0257952
0.025735
0.0255595
0.0252776
0.0249009
0.0244431
0.0239189
0.0233433
0.0227275
0.0220277
0.0212956
0.0206504
0.0200198
0.0194059
0.0188126
0.0182426
0.0176565
0.0170836
0.0165675
0.016098
0.0156572
0.0152401
0.014845
0.014472
0.0141218
0.0137955
0.013494
0.0132176
0.0129652
0.0127404
0.021387
0.0222835
0.0231686
0.0240258
0.0248373
0.0255844
0.0262486
0.0268128
0.0272623
0.0275857
0.0277759
0.0278303
0.0277509
0.0275444
0.0272212
0.0267949
0.0262813
0.0256971
0.025059
0.0243798
0.0236132
0.0228199
0.0221189
0.0214368
0.0207759
0.0201407
0.0195342
0.0189387
0.0183301
0.0177537
0.0172398
0.0167775
0.0163486
0.0159465
0.0155694
0.0152168
0.0148889
0.0145874
0.0143173
0.0140824
0.0138816
0.0229715
0.0239673
0.0249505
0.0259026
0.0268034
0.0276317
0.0283667
0.0289891
0.0294825
0.0298344
0.0300374
0.0300893
0.0299929
0.0297565
0.0293924
0.0289164
0.0283464
0.0277011
0.0269992
0.0262552
0.025421
0.0245654
0.0238065
0.0230706
0.0223607
0.0216813
0.0210362
0.0204276
0.0198218
0.0192058
0.0186271
0.0181123
0.0176554
0.0172419
0.0168634
0.0165175
0.0162055
0.0159301
0.0156927
0.0154957
0.0153404
0.0247357
0.0258386
0.0269284
0.0279842
0.0289832
0.0299013
0.0307151
0.0314031
0.0319469
0.032333
0.0325535
0.0326065
0.0324961
0.032232
0.0318287
0.031304
0.0306781
0.0299721
0.0292066
0.0283976
0.0274967
0.026579
0.0257612
0.0249703
0.0242097
0.0234849
0.0227999
0.0221578
0.0215601
0.0209778
0.0203871
0.0198185
0.0193079
0.0188635
0.0184782
0.018145
0.0178609
0.0176267
0.0174444
0.0173164
0.0172425
0.026732
0.0279486
0.0291518
0.0303186
0.031423
0.0324382
0.0333379
0.034098
0.0346982
0.0351239
0.0353667
0.0354251
0.0353044
0.0350159
0.0345763
0.0340056
0.0333264
0.0325619
0.0317346
0.0308626
0.0298976
0.0289201
0.0280438
0.0271977
0.0263864
0.0256159
0.024891
0.0242151
0.0235903
0.0230179
0.0224904
0.0219867
0.0215007
0.0210493
0.0206542
0.0203289
0.0200769
0.0198962
0.0197827
0.0197307
0.0197284
0.0290348
0.0303688
0.0316897
0.0329719
0.0341865
0.0353037
0.036294
0.0371309
0.0377922
0.0382619
0.0385315
0.0385998
0.0384733
0.0381651
0.0376939
0.037082
0.0363543
0.0355359
0.0346514
0.0337207
0.0326973
0.0316649
0.0307326
0.0298333
0.0289728
0.028158
0.027394
0.0266849
0.0260335
0.0254414
0.0249097
0.0244387
0.0240281
0.0236744
0.0233732
0.0231236
0.0229276
0.022786
0.0226959
0.0226496
0.022633
0.0317496
0.0332006
0.0346391
0.0360368
0.037362
0.0385815
0.0396634
0.0405784
0.0413026
0.041819
0.0421186
0.0422012
0.0420742
0.0417525
0.0412567
0.0406113
0.0398429
0.0389789
0.0380454
0.0370639
0.0359916
0.0349128
0.0339303
0.0329828
0.0320773
0.0312214
0.0304209
0.0296805
0.0290034
0.0283917
0.0278469
0.0273693
0.0269587
0.0266139
0.0263329
0.0261128
0.0259491
0.0258364
0.0257679
0.0257361
0.0257305
0.0350287
0.0365895
0.0381382
0.0396442
0.0410729
0.0423883
0.0435559
0.0445445
0.0453287
0.0458909
0.046222
0.0463223
0.0462007
0.0458735
0.0453629
0.0446953
0.0438988
0.0430022
0.042033
0.0410141
0.0399078
0.0387962
0.0377743
0.0367881
0.0358457
0.0349554
0.0341237
0.0333557
0.0326553
0.032025
0.0314663
0.0309798
0.030565
0.0302207
0.0299443
0.0297321
0.0295795
0.0294807
0.0294293
0.0294187
0.0294393
0.0390967
0.0407482
0.0423878
0.0439824
0.0454952
0.0468881
0.0481249
0.0491731
0.0500066
0.0506076
0.0509675
0.0510875
0.0509775
0.0506549
0.0501433
0.0494701
0.0486642
0.0477552
0.0467712
0.0457362
0.0446188
0.0434962
0.0424533
0.041445
0.0404803
0.0395681
0.0387155
0.0379282
0.0372105
0.0365653
0.0359945
0.0354988
0.035078
0.0347307
0.0344546
0.0342464
0.0341018
0.0340158
0.033983
0.0339976
0.0340511
0.0442934
0.0459957
0.0476857
0.049328
0.0508847
0.0523171
0.0535884
0.0546664
0.0555254
0.0561485
0.0565282
0.0566664
0.056574
0.0562692
0.0557757
0.0551209
0.0543337
0.0534431
0.0524767
0.0514587
0.0503659
0.0492664
0.0482331
0.0472309
0.0462695
0.0453584
0.044505
0.0437156
0.0429947
0.0423459
0.0417714
0.0412724
0.0408494
0.0405015
0.0402272
0.0400241
0.0398889
0.0398178
0.0398063
0.0398494
0.0399401
0.0511498
0.0528248
0.0544865
0.0560981
0.0576226
0.0590228
0.0602637
0.0613155
0.062155
0.0627672
0.0631464
0.0632956
0.0632262
0.0629558
0.0625072
0.0619061
0.0611795
0.0603542
0.0594559
0.0585072
0.0574939
0.056472
0.055499
0.0545509
0.0536381
0.0527697
0.0519536
0.0511959
0.0505016
0.0498748
0.0493183
0.0488341
0.0484234
0.0480865
0.0478229
0.0476316
0.0475105
0.0474568
0.0474675
0.0475381
0.0476648
0.0605257
0.0620241
0.0635081
0.0649423
0.0662941
0.0675314
0.068625
0.0695504
0.0702892
0.0708304
0.0711706
0.0713139
0.0712707
0.0710567
0.0706913
0.0701962
0.0695938
0.0689062
0.0681548
0.0673586
0.0665118
0.0656549
0.0648268
0.0640156
0.0632306
0.0624802
0.0617713
0.0611099
0.0605009
0.0599484
0.0594559
0.059026
0.0586607
0.0583614
0.058129
0.0579633
0.0578639
0.0578294
0.0578578
0.0579458
0.0580938
0.0738744
0.0749071
0.0759285
0.07691
0.0778297
0.0786671
0.0794039
0.0800252
0.0805208
0.0808849
0.0811168
0.0812202
0.0812026
0.0810747
0.0808489
0.0805391
0.0801593
0.0797235
0.0792448
0.0787351
0.0781955
0.0776466
0.0771076
0.0765762
0.0760588
0.075561
0.0750878
0.0746433
0.0742315
0.0738556
0.0735186
0.0732229
0.0729708
0.072764
0.072604
0.0724918
0.0724278
0.072412
0.0724432
0.0725196
0.0726471
0.0493464
0.0212669
0.0157272
0.0139019
0.0129453
0.0122661
0.0116914
0.0111714
0.0106692
0.0101657
0.00965166
0.00912376
0.00858464
0.00804254
0.0075105
0.00700433
0.0065443
0.051334
0.0235132
0.0169244
0.0144113
0.0131002
0.0122355
0.0115691
0.0109874
0.0104408
0.00990438
0.00936653
0.00882432
0.00828189
0.00774864
0.00723767
0.00676388
0.00634491
0.0524421
0.02669
0.0187632
0.0154718
0.0137075
0.012576
0.0117261
0.0110126
0.0103674
0.00975585
0.00916238
0.00858344
0.00802307
0.00748994
0.00699533
0.0065514
0.00617098
0.0534012
0.0312251
0.0214402
0.0172056
0.01487
0.0133376
0.0122008
0.0112724
0.0104619
0.00972441
0.00903932
0.0084001
0.00780783
0.00726731
0.00678534
0.00636893
0.00602619
0.054372
0.0375256
0.025206
0.0197164
0.0166008
0.0145247
0.012985
0.0117492
0.0107035
0.00979091
0.00898233
0.00826423
0.00763054
0.00707861
0.00660769
0.00621773
0.00591103
0.0556074
0.0434595
0.0298175
0.0229191
0.0188358
0.0160617
0.0139992
0.0123688
0.0110296
0.00990655
0.0089566
0.00815307
0.00747782
0.00691698
0.00645975
0.0060978
0.00582553
0.0571784
0.0495789
0.0347913
0.0265173
0.0213476
0.0177533
0.0150779
0.0129981
0.0113392
0.01
0.0089148
0.00803743
0.007333
0.00677362
0.00633714
0.00600647
0.00576901
0.0590794
0.0572187
0.0402649
0.0302355
0.0238073
0.0193082
0.0159901
0.0134667
0.0115148
0.00999475
0.00881031
0.00789097
0.00718244
0.00664204
0.00623684
0.00594207
0.00574094
0.0613434
0.0661547
0.0459687
0.0336779
0.0258164
0.020398
0.0164958
0.0136142
0.0114569
0.00983383
0.00861391
0.00770075
0.00702154
0.00652112
0.00615861
0.00590477
0.00574016
0.0639861
0.0747599
0.0507746
0.0360852
0.0268696
0.0207053
0.0164101
0.0133422
0.0111205
0.0095036
0.00832742
0.00747415
0.0068578
0.00641608
0.00610508
0.00589486
0.00576601
0.0669875
0.0804226
0.0531891
0.0366529
0.0265622
0.0200547
0.0156806
0.0126588
0.0105395
0.00904391
0.00798629
0.00723787
0.00670874
0.0063371
0.0060815
0.00591468
0.00581998
0.0702159
0.0810419
0.0522371
0.0350177
0.0248486
0.0185379
0.0144377
0.011692
0.00982253
0.00853737
0.0076475
0.00702764
0.0065948
0.00629469
0.00609247
0.00596598
0.00590184
0.0734711
0.0766569
0.0481483
0.0315379
0.0221274
0.0165014
0.0129558
0.0106473
0.00911328
0.008077
0.0073666
0.00687397
0.00653111
0.00629538
0.00614009
0.00604854
0.00601054
0.0765039
0.0691757
0.0420863
0.0270656
0.0190468
0.0143945
0.0115395
0.00972194
0.00853041
0.00772859
0.00717699
0.00679225
0.00652399
0.00634129
0.00622487
0.0061622
0.00614566
0.0790352
0.060642
0.0354225
0.0226993
0.0162272
0.0125889
0.0104084
0.00903479
0.00813127
0.00751547
0.00708541
0.00678236
0.00657122
0.00643016
0.00634484
0.00630542
0.00630489
0.0807814
0.0521268
0.0291182
0.0189819
0.0139966
0.0112678
0.00964397
0.00860829
0.00791097
0.00742416
0.00707855
0.00683402
0.00666565
0.00655689
0.00649582
0.00647419
0.00648503
0.081493
0.0441572
0.0241469
0.0161957
0.0124624
0.0104385
0.00920732
0.00839338
0.00782728
0.0074241
0.00713646
0.00693495
0.00679961
0.00671614
0.00667355
0.00666418
0.00668173
0.080996
0.0370081
0.0203544
0.0143137
0.0115436
0.00999402
0.00900171
0.00831824
0.00783284
0.00748628
0.00724192
0.00707459
0.00696594
0.00690237
0.00687329
0.0068717
0.00689016
0.0792484
0.0313318
0.017763
0.0132018
0.0110703
0.00979173
0.00892963
0.00832336
0.00789363
0.00759159
0.00738361
0.00724531
0.00715856
0.00711009
0.00708985
0.00709186
0.00710795
0.0763675
0.0270245
0.0161529
0.012619
0.0108505
0.00971038
0.00892378
0.00837393
0.00799205
0.00773065
0.00755573
0.00744261
0.0073734
0.00733537
0.00731955
0.00732066
0.00733201
0.0726601
0.0238871
0.015167
0.0123203
0.0107411
0.00967878
0.00895188
0.00845621
0.00812236
0.00790072
0.00775629
0.00766457
0.00760854
0.00757674
0.00756161
0.00755924
0.00756273
0.068585
0.0216464
0.0146287
0.0121603
0.0106745
0.0096745
0.00901012
0.00857273
0.00828813
0.00810443
0.00798665
0.00791157
0.00786395
0.00783412
0.00781606
0.00780766
0.00780059
0.0646249
0.0201753
0.0143312
0.0120515
0.0106301
0.00970028
0.0091072
0.00873188
0.00849546
0.00834561
0.00824912
0.00818521
0.00814101
0.00810871
0.00808374
0.00806495
0.00804569
0.0611532
0.0192852
0.0141496
0.0119683
0.0106168
0.00977182
0.00925701
0.00894356
0.00875075
0.00862845
0.00854684
0.00848834
0.00844255
0.00840351
0.00836807
0.00833624
0.00830171
0.0583633
0.0187942
0.0140348
0.0119207
0.010657
0.00990844
0.00947322
0.00921653
0.00905961
0.00895691
0.00888302
0.00882375
0.00877113
0.00872099
0.00867146
0.00862337
0.0085685
0.0563175
0.01854
0.013979
0.0119329
0.0107752
0.0101276
0.00976682
0.00955753
0.0094265
0.00933434
0.00926043
0.00919384
0.00912889
0.00906298
0.00899465
0.00892397
0.00884551
0.0550065
0.0184638
0.0139921
0.0120321
0.010992
0.0104425
0.0101457
0.00997149
0.00985489
0.00976348
0.00968127
0.00960049
0.00951742
0.00943048
0.0093387
0.00924311
0.00913935
0.0543885
0.0185279
0.0140934
0.0122414
0.0113245
0.0108633
0.0106158
0.0104622
0.0103475
0.0102463
0.0101469
0.0100446
0.00993704
0.00982381
0.00970472
0.00958111
0.00944501
0.0544051
0.0187157
0.0143053
0.0125839
0.0117871
0.0113983
0.0111823
0.0110333
0.0109069
0.0107846
0.0106588
0.0105269
0.0103883
0.0102432
0.0100916
0.00993345
0.00976008
0.0549843
0.0190341
0.0146578
0.0130819
0.0123936
0.0120561
0.0118507
0.0116886
0.0115361
0.0113808
0.0112188
0.0110492
0.0108725
0.0106893
0.0104996
0.0103029
0.0100912
0.0560569
0.0194981
0.0151855
0.0137607
0.0131586
0.012846
0.0126279
0.0124336
0.0122397
0.012039
0.0118304
0.0116143
0.0113918
0.0111638
0.0109304
0.010691
0.010435
0.05756
0.0201338
0.0159298
0.0146482
0.0140999
0.0137802
0.0135231
0.0132762
0.0130246
0.0127654
0.012499
0.0122269
0.0119501
0.0116697
0.0113857
0.011096
0.0107917
0.0594356
0.0209858
0.016943
0.0157772
0.0152394
0.0148746
0.0145501
0.014228
0.013901
0.0135688
0.0132324
0.0128934
0.0125528
0.0122114
0.0118685
0.0115219
0.0111685
0.0616187
0.0221259
0.0182902
0.0171896
0.0166063
0.0161525
0.0157275
0.0153055
0.0148831
0.0144611
0.0140405
0.0136222
0.0132066
0.0127939
0.0123833
0.0119738
0.0115672
0.0640207
0.0236653
0.0200561
0.0189405
0.0182409
0.0176458
0.0170814
0.0165303
0.0159885
0.0154569
0.0149351
0.0144226
0.0139188
0.0134232
0.0129353
0.012456
0.0119899
0.0665096
0.0257731
0.0223544
0.021106
0.0201998
0.0193985
0.0186467
0.0179297
0.0172391
0.0165732
0.0159294
0.0153048
0.0146974
0.0141061
0.013531
0.0129748
0.012444
0.0689065
0.0287045
0.0253449
0.0237946
0.0225627
0.0214705
0.0204685
0.0195374
0.0186608
0.0178295
0.0170378
0.0162796
0.0155509
0.0148502
0.014178
0.0135366
0.0129298
0.0710049
0.0328462
0.0292588
0.0271624
0.0254407
0.0239416
0.0226045
0.0213946
0.0202836
0.0192472
0.0182757
0.0173586
0.0164895
0.015665
0.0148836
0.014145
0.0134479
0.072602
0.0387935
0.0344419
0.0314391
0.0289896
0.0269186
0.025128
0.0235522
0.0221415
0.0208504
0.0196603
0.0185561
0.0175256
0.0165604
0.0156537
0.0148011
0.0139992
0.0735608
0.0474877
0.0414393
0.0369704
0.0334325
0.0305469
0.0281345
0.0260728
0.024275
0.022667
0.0212143
0.0198913
0.0186738
0.0175442
0.0164904
0.0155043
0.0145812
0.00653247
0.00696966
0.00762016
0.00894234
0.0122717
0.0227662
0.059473
0.173413
0.411691
0.50983
0.549324
0.672121
0.676839
0.477713
0.25195
0.105245
0.0380384
0.0146663
0.00795929
0.00628381
0.00632632
0.00677082
0.00747425
0.00891336
0.0124221
0.0226751
0.0549285
0.150706
0.365209
0.508918
0.550336
0.727737
0.807525
0.574772
0.298922
0.123583
0.0440633
0.0163981
0.00842719
0.00642004
0.00616734
0.00661133
0.00736821
0.00891812
0.0125403
0.0222228
0.0499079
0.12867
0.317156
0.503429
0.552567
0.746196
0.93777
0.683089
0.351776
0.143801
0.0505826
0.0182691
0.00894142
0.00657189
0.00606334
0.0065075
0.00732031
0.00898556
0.01271
0.0218913
0.0461129
0.110551
0.266786
0.472125
0.538494
0.714447
1.05995
0.803593
0.410913
0.165972
0.0575023
0.020242
0.00949183
0.00673852
0.00602017
0.00647194
0.00734771
0.00915048
0.0130779
0.0224421
0.0458036
0.100921
0.223798
0.416918
0.508464
0.676535
1.159
0.934159
0.47647
0.18969
0.0647365
0.0222725
0.0100655
0.00691871
0.00604231
0.0065163
0.00747659
0.00948933
0.0140199
0.0253498
0.0522125
0.104702
0.198586
0.353838
0.46674
0.638869
1.23211
1.07165
0.549325
0.215051
0.0721635
0.0243126
0.0106478
0.00710992
0.00613529
0.00665642
0.00775777
0.0102005
0.0164288
0.0330133
0.0688151
0.125239
0.199521
0.314511
0.42418
0.600723
1.28253
1.21038
0.628231
0.241756
0.079665
0.0263192
0.011227
0.00731052
0.00630749
0.00692075
0.00828645
0.0117545
0.0218513
0.0480462
0.0975631
0.162399
0.226238
0.301159
0.40233
0.583988
1.32205
1.34365
0.709666