/*--------------------------------*- C++ -*----------------------------------*\
  =========                 |
  \\      /  F ield         | OpenFOAM: The Open Source CFD Toolbox
   \\    /   O peration     | Website:  https://openfoam.org
    \\  /    A nd           | Version:  6
     \\/     M anipulation  |
\*---------------------------------------------------------------------------*/
FoamFile
{
    version     2.0;
    format      ascii;
    class       volScalarField;
    location    "1.68";
    object      p;
}
// * * * * * * * * * * * * * * * * * * * * * * * * * * * * * * * * * * * * * //

dimensions      [1 -1 -2 0 0 0 0];

internalField   nonuniform List<scalar> 
5835
(
1.47434
1.00068
2.13894
1.00824
1.00329
1.00012
1
1.00224
1
1.00257
1
1.00535
1.00006
1.00001
1.08312
1
3.03587
2.95466
1.00022
1.00001
3.37354
1.00005
3.22793
1.0341
1.00003
1
1.08791
1
1.00267
1
1.00035
1.00011
1
1.00001
1.00025
1
1.00013
1.00004
1
1
1.00035
1
1.00003
1
1.00001
1.00028
1.00002
1.00019
1.00022
1
1
1
1.00001
1
1.00003
1.00001
1
1
1.00002
1.00007
1.00027
1
1.00222
1.00033
1
1.00011
1
1.00006
1
1.00014
1
1
1.00005
1
1.00008
1.00001
1
1.00014
1.00002
1.00012
1
1.00024
1.00085
2.19023
1.41476
1
1.00562
1.00024
1.00216
1.00728
1.00002
1.00331
1
1.00008
1
1.00013
1.00048
1.00066
1.02284
1
1.00015
1
1
1.00024
1.01554
1.00014
1
1.03324
1
1.0004
1.00048
1.00015
1.01788
1.00052
1.0003
1.00019
1.00029
1.00044
1.00019
1.00552
1.00492
1
1
1
1.00021
1.00044
1.00077
1.00066
1.00104
1
1.00061
1.00003
1.00009
1.00007
1.00053
1.00004
4.3883
1
4.5313
1.00022
1
1.00013
4.11376
4.29435
5.00207
4.89419
1.89622
2.21697
1.00063
1.00183
2.34463
1.00107
1
1.00089
1.28468
1.24831
1.02096
1
1.00056
1.15286
1.00182
1
1.00023
1
1.03287
1.00049
1.00143
1.01165
1.00005
1.00131
1.00006
1
1.00064
1
1.0003
1
1.00042
1.02362
1.00082
1.00313
1.00074
1.00031
1.0001
1
1.00125
1
1.00048
1
1.00069
1.00013
1.00003
1.00002
1.00027
1.00018
1.00052
1.00002
1.00002
1.00005
1
1.00002
3.90668
3.7112
1.00008
1.00003
1
1.0001
1.00003
1.00157
1.00001
1
1
1.00025
1.00031
1.00033
1
1.00003
1.00023
1.00005
1
1
1.00042
1
1
1.00197
1.00035
1.00009
1
4.9917
1
1.00007
1.00017
1.00043
1.00009
1.00053
1
1.00074
2.33046
1
2.18458
1.00086
1.00013
1.00145
1.00013
1.00009
1.0002
1
1.00035
1
1
1.00037
1.00004
1.00045
1.00033
1
1.00095
1.00116
1.00021
1.00759
1
1.00082
1.00016
1.02998
1.0291
1.0001
1.03974
1
1.00017
1
1.03887
1.02791
1
1.00012
1.00025
1.00065
1.00037
1
1.00005
1.00009
1.00058
1.00003
1
1
1.12593
1.00029
1.00003
1.00023
1.00011
1.00002
1.00045
1
3.09596
1.50999
1.00084
1.6062
1.00006
1
1.00139
1.00005
1.00022
2.94643
1
4.46663
4.74309
2.8435
1.41844
2.87595
1.00009
2.78074
1
1.88542
4.64895
1.74223
3.36274
1.08489
1.0001
1.00012
1
1.03062
1.00001
1.0011
1.00104
1
1.00012
1.07647
1.00008
1.13431
1
1
3.30252
1.00077
1
1.05188
1
1.00011
1
1
1.00006
1
1
1.00015
1.00012
3.47454
1.02565
3.38616
1.00019
1
1.00024
1.00004
1
1.00012
1.09899
1
1
1.0015
1
1.00169
1.00218
1.00013
1.08391
1
1.00985
1.00045
1.00008
1.00035
1.17918
1.00008
1
1
1.0016
1.00009
1.00079
1.00019
1.00117
1.0001
1.02142
1.00016
1
1
1.0001
1.00002
1.00002
1
1.00017
1.00002
1
1.00006
1.00019
1.00007
1
1
1.00025
1
1
1.00009
1.00008
1.00021
1.00144
1
1.00002
1.00014
1.00012
1.00009
1.00038
1.00004
1.0014
1.00264
1
1
1.01639
1
1.00089
1.00007
1.00046
1.00618
1
1.00117
1.03047
1.00034
1.00037
1.00036
1.00103
1.00043
1.00018
1.00097
1
1.00031
1.00115
1.00034
1.0001
1.00009
1.00026
1.00183
1.00193
1.00179
1.00071
1.00028
1
1
1
1.00182
1
1
1
1.00101
1.00041
1.00055
1.00012
1.00007
1
1.00036
1
1.00053
1
1
1.00148
1
1
1.0007
1.00036
1.00069
1.00008
1.00012
1.00193
1
1.0012
1.00084
1.00038
1.00048
1.00046
1.0001
1.00001
1.00263
1
1.00425
1.00018
1.00055
1
1.00188
1
1.00009
1.00142
1.00173
1
1
1
1.00048
1.00049
1.00036
1.0002
1
1
1
1
1.00008
1.00124
1.00035
1
1.0001
1.00085
1.00025
1.0476
1
1.00035
1.00006
1
1.0006
1.0003
1
1.00741
1.00015
1.00093
1
1.00016
1.01673
1.00031
1.00015
4.78131
1.0005
1
4.28845
4.28163
4.24913
1.00017
1
1
1.00095
2.30815
1.74081
1.00059
1.00107
1.00187
2.29998
3.8778
1.00002
4.93218
1
1.00002
1.00066
2.30153
1
1.13752
1.00095
3.93654
1.0001
1.2048
1.01986
1.00083
1.00003
1
1.00061
1.00132
1.023
1
1.00916
1
1.00055
1.00006
1.00005
1.00006
1.00004
1.00063
1.00047
4.82028
1.00079
1.00153
1.00016
1
1.00147
1
1
1.00144
1.0006
1
1
1.00029
1.00003
3.44936
1.00012
1.0004
1.00021
1.00001
1.00002
1
1
1.00011
1.00048
1
1.0001
1
1
1
1
1.0001
1.00085
1.00015
1
1.00008
1
1.00025
1.00105
1.00003
1.00023
1
1.00049
1.20087
1.00013
1.0001
1.00121
1
1
1
1.02595
1.03351
1.03274
1
1.03447
1
1.00042
1.00126
3.52211
1.00006
1.03489
1.00057
1.00023
1.05766
1.00014
2.61222
1.00013
1.71806
1.9771
1.00017
1.00008
2.7805
2.67179
1.72232
1.00009
1.00001
1
1.00024
1.06859
4.22949
1.00006
1.13654
1
1
1.00012
1.00009
4.40438
3.39652
1
1.03995
1.00004
2.52472
1.00005
1.00097
1.00057
2.91949
1.03206
3.08688
1.00028
1
1.00052
1.03136
1.03378
1.00005
1.00018
1.00008
1
1.00313
1.09885
1.00144
1
1.08995
1
1.00117
1.00004
1.00028
1.00003
1.00011
1
1.00005
1
1.00009
1
1.0001
1
1.00062
1.00002
1.00005
1.00019
1.00749
1.00131
1.00114
1
1.00005
1
1
1
1
1.00051
1.00006
1.00079
1
1
1.01788
1.01774
1.00247
1
1.00042
1.00008
1.00011
1.00022
1.00003
1
1.00044
1.0005
1
1.00018
1
1.00118
1.00196
1.00229
1.00009
1.00116
1.00041
1.00142
1.00146
1.00019
1
1
1
1
1.00015
1
1.0002
1.00036
1
1.00086
1
1
1
1.00218
1.00031
1.00135
1
1
1.00037
1.00008
1.00119
1.00009
1
1.00485
1
1
1.00037
1.00006
1
1.00016
1.00127
1
1.00225
1.00118
1.00271
1.00002
1.00078
1
1
1.0002
1.00078
1.00021
1.0003
1
1.00189
1
1.00066
1
1
1.00049
1.00064
1.0002
1.00069
1.0009
1.0002
1.00031
1.00067
1.00039
1.00005
1.00001
1.00002
1.00003
1.00217
1.00052
1.00006
1.00015
1.00071
1.00218
1.00118
1.00035
1.00005
1.00029
1.00035
1.00014
1.00083
1.00021
1.00096
1
1.00024
1.00002
1.00055
1.00017
1.00024
1
1.0002
1.00017
1.00014
1.00004
1
1.00104
1
1.00022
1.00015
1
1
1.00047
1.00065
1.00112
1.00123
1.43583
1.62593
1.85177
1.38351
1.0006
1
1
1
1.00016
1.00021
1.00017
1.00005
1.00009
1
1.00005
1.00019
1.0001
1.00005
1.00017
1.00011
1.00009
1.00002
1.00019
1
1.00065
1.00031
1.00117
1.00438
1.00112
1.13177
1.00101
1.00216
1.0106
1.00082
1
1
1.21511
1
1.0001
1.00027
1.00047
1.00115
1.00099
1.00066
1.00297
1.00121
1.00046
1.00068
1
1.00672
1.00038
1
1.00193
1
1.00012
1.23486
1.02234
1.00176
1.00035
1
1.00403
1.0126
1
1.63178
1.001
2.63115
1
1.00296
1.00114
1.00018
1
1.00121
1.00006
1.00105
1.00094
1.21648
1.22132
1.00148
1.00173
1.01702
1
1.18848
1
1.01013
1.00231
1.00004
5.66448
5.9913
1.0001
1.00029
1.00001
5.34993
6.16276
6.35614
1.00064
4.97434
1.00008
1
1.00049
6.11188
4.81399
1.00021
5.85946
4.49032
1.00004
1.00004
1
5.9641
1.00012
1.00002
6.08519
1
4.99932
1.00006
1
1
5.34278
4.60777
5.12197
1.00012
1
1.00044
4.49601
5.79534
5.92892
4.94617
4.66587
1.00003
1.00004
5.68741
1.00011
1.00003
4.59884
4.74797
5.3686
1.00003
5.1655
1.00006
1.02939
1.00007
1.0005
1.00055
1.00005
1.00061
1.00013
1.00223
1.00198
1.00191
1.22033
1.23421
1.00087
1.00069
1.02278
1.00028
1.00159
4.2143
1.00006
1.00003
3.9
1.00013
1.01087
1.00032
1
1
1.00086
1.00006
1.00019
1.00071
1.00038
1.00011
1.00065
1
1.00077
1.00004
1.00006
1
1.00004
1.00138
1
1.00018
1.00002
1
1
1.00054
1
1.00018
1.00028
1.0004
1.00003
1.00544
1.00091
1
1.0001
1
1.20824
2.56885
1
1.00002
1.04166
2.64806
1
1.24524
1.05439
1
1.00012
1
1.00084
1
1
1
1.00048
1.00003
1.00002
1
1.00007
1.00011
1.00019
1.00023
1.00011
1.00135
1.00007
1
1.00042
1.00152
1.00038
1.02729
1.38015
1.00016
1.00066
1.00011
1
1.0012
1.00124
1
1.00012
1.00067
1.00009
1
1
1.00105
1.00001
1.00055
1
1.00064
1.00065
1
1.00017
1.0006
1.00019
1.00175
1
1.00081
1
1.00097
1
1.00055
1
1.00041
1.00003
1.00027
1
1.00087
1
1.00066
1.00273
1.00005
1.00057
1.00069
1.00028
1.00059
1
1.00022
1
1.00107
1.00009
1.00007
1.00086
1
1.00234
1.00067
1
1
1.00012
1.00048
1
1.0009
1.00174
1.00107
1.00011
1.001
1
1.00166
1.00288
1.00097
1.00005
1.00008
1
1.00142
1
1
1.00002
1
1.00005
1
1
1.00021
1.00147
1
1.00062
1
1.0004
1.00024
1
1.00024
1.00026
1
1.00019
1.00568
1.00011
1.00031
1.00088
1
1
1
1.00022
1.00002
1.00058
1.00043
1.00043
1.00023
1
1
1
1.00011
1
1.00033
1
1.00223
1.00035
1
1.00043
1.00018
1.00032
1.00085
1.00135
1
1
1.00101
1.00025
1.00007
1.00043
1
1.0002
1.00046
1.00027
1
1.00043
1.00026
1.00011
1
1.0015
1.00207
1.00024
1
1.00037
1.00055
1.0016
1.00008
1
1.00109
1.00011
1.0002
1.00576
1
1.00095
1.00019
1
1.00048
1.00039
1.00032
1.00048
1.00025
1
1.00018
1
1.00026
1.00061
1.00136
1.00112
1.00004
1.00012
1.00068
1
1
1.00069
1.00004
1.00079
1.01141
1.00042
1.00048
1.00074
1.00023
1
1.00619
1
1.00136
1.0005
1.00022
1.00113
1.00003
1.09376
1.00225
1.00633
1
1.00025
1.00012
1.00073
1.00017
1.00006
1.00067
1.06311
1.00085
1
1.00005
1.00427
1.00058
1.00007
1
1.00276
1.00033
1.00014
1.00022
1.00265
1.0454
1.00022
1.00191
1
1.00014
1.00145
1.00003
1.00009
1
1
1.04174
1.00277
1.00024
1.00014
1
1.00023
1.00048
1.00005
1.00005
1.02912
1.0004
1.00139
1.00041
1.00045
1.00005
1.00086
1.00009
1.00907
1.0015
1
1.00011
1.00102
1.0072
1.00074
1
1.00723
1
1.00712
1.00063
1.0022
1.00669
1
1.00032
1.00007
1.00015
1.00024
1.00001
1.00016
1
1.00033
1.00002
1.00139
1
1.06813
1.00676
1.00011
1
1.00605
1.32015
2.02254
1.00011
1.00001
1.00009
1.00006
1
1
1.00006
1
1.00012
1.0093
5.59674
1.00025
1
1
1.1358
1.38247
1
1.00002
1.90351
1.0013
1
1.00002
1.21174
1.00018
1.00012
1.16265
2.16325
3.63115
1
4.71323
1.53047
1.00043
3.91591
1.00015
2.26055
3.83023
1.32642
2.37398
2.38827
1.00086
1.46678
1.02991
2.44033
1.00054
1.09069
1.23179
1.63634
1
1
1
1.00007
1
3.56071
2.69674
1.00006
1.00022
1.00009
1.10552
1.41293
1.00043
1.00016
1.40134
1
1.00014
2.6995
1.00016
1.00008
1.00001
1.43005
1.40818
1.00099
1.0003
1.20091
1.00053
1.18319
1
1.09894
1
1
1.00822
1.02974
1.00001
1.00025
1.19924
1
1.00237
1.00019
1.00026
1
1
1
1.00033
1.00051
1.00023
1.76424
1.00005
1.0001
1.00065
1.34742
1.0002
1
1.00002
1.00081
1
1.00036
1.00699
1
1
1.00124
1.00025
1.00093
1.00041
1.00083
1.00041
1.00065
1.10928
1
1
1.04721
1
1
1.00002
1.00178
1.75606
1.60484
1
1.00076
1
1.00052
1
1.00006
1.1125
1.00148
1.00064
1.00009
1
1.00014
1
1.00038
1.00071
1.86886
1.00025
1.00027
1
1.00448
1.00001
1
1.07793
1.06518
1.00842
1.00025
1.00011
1.00083
1.32501
2.20667
1.00195
1.00008
1
1.00039
1.0004
1.00383
1.00117
1.00018
1
1.00221
1
1.00221
1.00042
1.00006
1.00037
1
1.00008
1.00001
1.00004
1.00005
1.00018
1
1.00007
1.00032
1.00012
1.00002
1.00001
1.00015
1.00024
1.00003
1
1.00039
1.00034
1
1.00007
1.00002
1
1.00005
1
1.00013
1.00028
1
1.00003
1.00001
1.00013
1.00023
1
1
1.00001
1.00022
1.00022
1.00008
1.00004
1
1
1
1.00035
1.00007
1.00012
1.00051
1.00017
1.00004
1
1.00007
1.00006
1
1.00033
1.00016
2.19111
1.00006
1
1.00761
1.0003
1.00058
1
1.00037
1.00005
1.00067
1.00023
1.00017
1.00039
1.01779
1.00456
1
1.01235
1.00057
1.00065
1.00041
1.0006
1.00015
1.0005
1.00121
1.00031
1
1.0003
1.00045
1
1.00053
1.00122
1
1.00059
1
1.00037
1
1.00049
1.00022
1
1
1.00025
1.00063
1.00033
1.00026
1.00071
1.00009
1
1.00024
1
1.00083
1.918
1.0006
1.00002
1.00075
1.00136
1
1.00112
1.00063
1.00028
4.18946
1.00003
1.0001
1.0003
1
1.00056
1.00021
1.00048
3.11404
1.00142
1
1.00032
1.00019
1.00179
1.00163
1.00076
1.00081
1.07524
1.00115
1.00075
1
5.48042
1.00005
1.00005
2.20774
1.00004
1.11792
1.00042
1
1.00004
1.00027
1.00018
1.00435
1.00048
1.00129
1.00118
1.00058
1.0001
1.00001
1.00124
1.00028
1.00074
1.00289
1.00268
1.00095
1.01194
1
1.00222
1.00056
1.00019
1
1.00028
1.00012
1.00885
1.00037
1.00042
1
1
1
1.00003
1.0001
1
1.00362
1
1.0007
1.00038
1
1.00026
1.00055
1.00029
1.00007
1.00015
1.00045
1
1.00106
1.00017
1.00049
1.00006
1.00751
1.00078
1
1.00024
1.00014
1.00347
1.00108
1.02392
1
1.00992
1.00059
1.00089
1
1
1
1.00007
1.01709
1.0005
1
1.00003
1.00003
1.00017
1.00023
1.00001
1.00019
1.00014
1.04962
1.10606
1.00002
1.00013
1.00041
1.00004
1.00005
1
1.00008
1.00008
1.00008
1.06286
1.00006
2.61743
1.00014
1.00006
1.00006
1.03542
1.00039
1.09704
1
1.00007
1
1.00002
3.24327
1.00041
1
1
1.07042
1.00007
1.00009
1.00034
1
1.00001
1.00012
1.00004
1.00138
1
1.00062
1.00004
1.00017
5.98753
1.00016
4.16011
1.00008
1
1.00011
1.00004
1
1.00018
1
1
1.00024
1.00031
1.00026
1.00045
1.00002
1.00035
1
1.00018
1.00027
1
1
1.00035
1.00026
1
1
1.00096
1.00042
1.00023
1
1.08042
1.00011
5.77746
1.00002
2.70498
1.00003
1.00036
1
1.30013
1
4.26703
1
3.13909
1.00031
1.94933
3.17815
1.67794
1.17643
1.00212
1.00156
4.02644
1.00026
1.00071
4.97016
1.00081
1.00183
3.61593
1.00037
2.89678
3.1613
1.00024
1.00147
1.00019
3.45514
1.00043
1.90743
1.00045
5.91432
1.00002
3.2204
1.00012
1.00524
1.00075
1
1.00071
1.00001
1
1.00022
1.00137
1.00139
1.00123
1.00675
1
1.00004
1.00045
1.73147
1.12726
1
1
5.38794
5.83564
1.00011
1.0007
5.90948
6.68187
1.00025
1.00001
5.74687
6.20218
1.00042
5.69658
6.58402
1.00013
1.00015
1
6.91367
6.58202
1.00065
6.9003
1
6.84876
1.00001
1.00049
5.54919
6.01621
5.87716
1
1.00001
6.04764
5.95801
1
5.69552
1.00002
5.64543
1
1
5.67437
5.54778
1
1
5.96409
1
1.00006
6.10062
5.98528
1
1
6.19132
6.04178
1.00066
1.00032
7.13528
6.88368
1
6.32218
6.4343
1
1.00051
7.16549
1.00064
6.98705
7.08907
1.00038
1.00062
7.29791
1.00025
6.83258
1.00019
6.82982
6.68104
1.00009
1.00008
6.60365
1.13256
1.00081
1.00117
1.12621
1.00022
1.00155
1.00093
1
1.00325
1.00111
1
1.83725
1.28924
1.00304
1.00033
1.00075
1.00012
6.2157
1
1.00001
5.94655
1.00006
6.35391
7.00381
1.00027
5.74586
1.00069
5.49529
1
6.4273
1
1.00029
1.00013
6.97864
6.98027
5.87635
6.33925
1.00045
1.00022
1
1
6.1238
1.00109
1
1.00001
1.00023
1.00002
1
6.13894
5.40391
5.90594
6.20662
5.31646
6.48878
1
1.00086
6.70306
1
5.8002
7.35513
5.94133
1.00038
1.00011
6.46739
1
6.30489
1.00005
6.36268
6.1131
1.00003
1.00045
1
1.00174
1.0012
1
1
1
1.50064
1.0764
1.0003
1
1
1.00054
1.00014
1.00051
1.00307
1.00106
1.03492
1.48806
4.45623
1.00004
1.00002
1.00002
4.81883
1.00003
4.83362
5.13987
1.00003
1.00084
1.00015
1
1.00054
1.00099
1.00017
1.00015
1.00042
1.0002
1
1.00004
1
1.00016
1.00046
1
1
1.00022
1
1.00003
1.00001
1
1
1.00062
1
1.00016
1.00046
1.00036
1.00012
1.00064
1.00016
1.00021
1
1.00012
1.00002
1.71072
1
1.3403
1.37614
1
1
1
1.7339
1.01078
1
1.00013
1.00077
1.00007
1.00604
1
1.00027
1
1.00005
1.00001
1.00033
1
1.00003
1.00014
1
1
1.00012
1
1.00039
1.00061
1.0005
1.00131
1.00019
1
1.00015
1
1.00013
1.0002
1.00015
1.00066
1.00076
1
1
1.00068
1.00013
1.00069
1.00036
1.00002
1.00051
1
1
1.00048
1.00007
1
1.00014
1.00049
1.00099
1.00016
1
1.00031
1.00087
1.00006
1.00033
1.00093
1.00089
1.0007
1
1
1
1
1.00021
1.00015
1
1.00024
1
1.00014
1.00127
1.0003
1.00034
1
1
1.00076
1.0014
1.00112
1
1
1.00068
1.00024
1.00091
1
1.00091
1.00047
1.00024
1.00451
1.00026
1
1.00408
1
1
1
1
1.00039
1.00006
1
1.00087
1.004
1.00004
1.00101
1
1.00052
1.00019
1
1
1
1
1.00185
1.00116
1.00046
1
1.0005
1
1
1.00105
1.00054
1
1.00094
1.00201
1.00038
1.00027
1
1.00008
1.00003
1.00006
1.00079
1.00056
1.00062
1.00014
1.00002
1
1
1
1
1.00018
1
1.00054
1.0003
1.00031
1.00038
1.00038
1.00006
1.00056
1.00013
1.00183
1.00045
1.00018
1.00119
1.00008
1.00028
1.00028
1
1.00132
1.00003
1.00017
1.00029
1
1
1.00054
1.00081
1
1
1.00027
1.00012
1.00007
1.00114
1.00039
1.00017
1.00172
1.00015
1.00034
1.00016
1
1
1.00029
1.00061
1.00059
1.00161
1.00017
1.00463
1
1.00032
1
1
1.00003
1.00029
1.00002
1.00043
1.00001
1
1
1
1.00006
1.00087
1.00042
1.00047
1.00008
1.00026
1
1.00307
1
1.00007
1.00041
1.00004
1.00122
1
1
1
1.00103
1
1
1.00002
1.00109
1.00027
1.00015
1.00038
1
1.00312
1.00015
1.00072
1
1
1
1
1
1
1.00046
1.00074
1.00397
1.00005
1
1.00163
1.00068
1.00089
1.00003
1.00143
1.00015
1
1.00047
1.00036
1.00118
1
1.0009
1.00039
1.00091
1.00023
1.00047
1.00052
1
1.00006
1
1.00073
1.00079
1.0006
1.00089
1.00054
1.00003
1.00075
1
1.00024
1.00059
1.00007
1
1.0001
1
1
1.00055
1
1.00044
1
1.00116
1.00031
1.00033
1.00016
1.0004
1.00063
1.00009
1.00537
1
1.00019
1.00042
1
1.00064
1.00358
1
1.0014
1.00037
1.00088
1.00101
1.00029
1.00048
1.00017
1.00363
1
1.00025
1
1.00014
1
1.00188
1.00135
1.00002
1.0001
1.00088
1.00067
1.00044
1
1
1
1.00296
1
1.00168
1.0026
1.10036
1.00001
1
1
1
1.00139
1.082
1
1.00498
1
1.00023
1.00052
1.08347
1.00054
1
1
1.0003
1.0662
1.0001
1.00056
1.00061
1.00004
1.00053
1
1.00013
1.00345
1
1.00035
1.00055
1.00003
1.00063
1.00247
1
1.00067
1
1.00057
1
1
1.00211
1
1
1.00051
1.00165
1
1.00074
1.00037
1.00009
1.0027
1.00004
1
1.00022
1.0022
1.0004
1.00005
1.00044
1
1.00056
1.00008
1
1.00002
1.0029
1
1.01875
1.00037
1
1.00036
1.00106
1.00131
1.00016
1.00011
1.0003
1
1.00033
1.00125
1
1
1.00049
1.00406
1.00044
1.00088
1
1.00006
1
1.00126
1
1
1.00025
1.00004
1.00103
1.00008
1
1
1.00557
1.00063
1.00066
1.00011
1.00004
1.00003
1
1.00098
1.00145
1
1.00617
1
1
1.01036
1.00009
1.00089
1.00096
1.00022
1
1.00068
1.00084
1
1.0011
1.00005
1.00099
1
1.00425
1.00012
1
1.00109
1.00022
1.00064
1
1.00023
1.00192
1
1
1
1.00013
1.00134
1
1
1.55525
1.00004
1.00002
1
1
1.44564
1.29039
1.24369
1
1
1.43932
1.58472
1
1
1
1.00008
1.34295
1.41414
1.00006
1
1.00007
1
1.00027
1.10158
1.00003
1
1.00011
1
2.56514
1
1
1.06964
1.00006
1
3.04427
2.45968
3.34708
1
1.48516
3.17654
1
1
2.88453
2.61079
1.32636
1.29833
1.00055
2.86067
1.32126
1.45206
1.00003
1
1
3.02591
1.01953
1.0005
1
1.0012
2.97489
1
1.00057
1.00007
1.00006
1.00029
1.00021
1
2.77163
3.39764
1.00054
1.00003
1.10782
1.34056
1.50258
1.49993
1.00072
1.66429
1.89793
1.00016
1.00001
1.00049
1.28088
1.00046
1
1.00008
1.00044
1.59374
1
1.00461
1.00062
1.00022
1
1.00059
1.00013
1.00018
1.00922
1
1.06696
1
1.21025
1.24891
1.00005
1
1.00069
1.00012
1.00057
1.31307
1.0001
1.241
1
1.00075
1.00002
1.21476
1.00007
1.0005
1.5489
1.35787
1
1.00019
1.00009
1.00112
1.0008
1.41578
1.50247
1.0007
1.00047
1
1
1
1.00001
1.00058
1.00044
1.00002
1
1
1.00006
1.00005
1.00002
1
1
1
1.00036
1.00009
1.00011
1
1.00054
1.00024
1
1
1.00009
1.00004
1.00007
1.00121
1
1
1.00039
1.00001
1
1.00006
1
1.00018
1.00005
1.00014
1.00029
1.00047
1.00054
1
1
1
1.00004
1.00021
1.00031
1.00006
1.00009
1
1.00012
1.00014
1
1
1.00003
1.00043
1.00003
1.00063
1
1.00019
1.00025
1
1.00005
1
1.00017
1.00002
1.00018
1.00001
1.00042
1.00014
1.0001
1
1.00032
1.00001
1.00064
1.00018
1.00009
1.00002
1.00004
1.00025
1.00014
1.00019
1.00003
1.00061
1.00047
1
1
1.00015
1.07141
1
1.06894
1
1.00214
1
1.00134
1.00009
1
1
1.00011
1.00009
1
1.00224
1.00155
1.00033
1
1
1
1.00022
1.13293
1
1.0723
1.00271
1.00296
1.00012
1
1.00012
1.00031
1.00011
1.52829
1.08424
1.00038
1.00029
1.37232
1.45721
1.00049
1
1.00007
1
1.00015
1.87254
1.75564
1.0014
1
1.11051
1.00125
1.56853
1.40872
1.0001
1
1
1.01372
1.00009
1.00275
1.00051
1
1.00005
1.0123
1
1.00413
1.00113
1
1
1.08976
1.00065
1.00288
1.00007
1.00144
1.00035
1.00033
1.06727
1.00083
1.00037
1.01295
1.01555
1.00011
1
1.00008
1.00017
1.00052
1
1.00616
1
1.00025
1.00044
1.00015
1
1
1.00017
1.00001
1.00046
1
1.00001
1.00018
1
1.00019
1.00019
1.00038
1.00003
1.00051
1.00015
1.00012
1.00117
1.00291
1.00111
1.00044
1.00068
1.0004
1.0004
1.00014
1.00018
1
1.00828
1.00083
1.00048
1.00044
1.00788
1.00025
1
1.00292
1.00522
1.00723
1.00978
1.00048
1.00059
1.00047
1.00092
1.00048
1.00097
1
1.00054
1
1.00014
1.00038
1.00032
1.00031
1.00071
1.00001
1.00017
1.00007
1.00007
1.00059
1.0001
1.00009
1
1.0006
1.00066
1.00015
1
1
1.00024
1.00026
1.00077
1.00006
1.00015
1
1.00079
1
1.00135
1.00011
1.00062
1.00011
1.00026
1
1.00012
1.00023
1.00062
1.00015
1
1.00112
1.00009
1.00077
1.7658
1.00088
1.74065
1.00015
1
1
1
3.65185
4.08552
1
1.00023
1.00018
3.24797
3.49258
1.00063
1.00129
1
1.00058
1
1.00046
1.00117
1.00142
1.00055
1.00007
1.00006
1.00146
1
1.00153
1.00028
1.00013
1.00016
1.00141
1.00005
1.00074
1.00146
1.00057
1.00037
1.00024
1.00155
1.00068
1.0029
1
1.00169
1
1
1.00094
1
1.00002
1.00009
1
1.00111
1.00022
1.00046
1
1.00031
1.00348
1.00054
1
1
1.00039
1.00021
1.00264
1
1.00567
1
1.00569
1.00083
1.00051
1.0006
1.00455
1
1.00323
1.00191
1.002
1.001
1
1.00579
1.00079
1.00101
1.00076
1.00078
1.00122
1.00532
1.00077
1.00034
1
1.0007
1.00019
1.00056
1
1.00028
1.00008
1
1
1.00003
1.00022
1
1.00003
1
1.00013
1
1.00009
1
1.00002
1
1.00026
1.00002
1
1.00004
1.00029
1.00058
1.00001
1.00031
1.00028
1
1.00021
1.00005
1
1
1
1.00094
1
1.00007
1.00019
1.00002
1.00002
1.00022
1.00045
1.00003
1.00007
1.00002
1.00014
1
1
1
1.00007
1.00008
1
1.00003
1.00008
1.00002
1.0001
1.00655
1.0006
1.00005
1.00065
1.00039
1.0001
1.047
1
1.03539
1
1.62404
1.00005
1.00011
2.04688
1.80652
1.00002
1.01027
1.00096
1.00008
1.00014
1.00002
1.00028
1.0001
1.00028
1.00003
1.00015
1.00133
1.00415
1.00004
1
1.00007
1.00022
1
1
1.00006
1.00035
1.00007
1.00016
1
1.00007
1
1.00087
1.00574
1
1
1.00009
1.00025
1
1.00006
1.00002
1.00009
1
1.00007
1.00013
1.10378
1.00037
1.0005
1.00011
1.00003
1.00011
1.01989
1.00018
1.09651
1.05264
1.00018
1.01921
1.00036
1
1
1.00005
1
1.06761
1.0001
1.08276
1.00004
1.00011
1.0005
1.00026
1.03828
1
1
1.00059
1.00061
1.00059
1
1.00063
1
1.08315
1
1.00056
1.00033
1.00036
1.04602
1.00003
1.00016
1.00019
1.00026
1.00036
1.00042
1
1.00043
1.00033
1.00022
1.00013
1
1.00016
1
1
1
3.95791
3.93797
3.41771
1
3.44316
1
1.00015
1.6244
1.50765
1.00193
1.00163
1.3254
1
1.24399
1.2853
1.00075
1.0005
4.08448
3.61409
3.04594
1.00126
1.00055
3.10037
3.14842
1.00041
3.47453
1.00119
2.64956
1.00079
1.00026
2.43251
1.00025
2.26832
1.00016
2.04188
1.00016
1.00017
1.00011
1.00064
1.00104
1.00556
1.00009
1.00023
1.00017
1.67699
1.13894
1.00046
1
1.00052
1.00066
1.00022
1.00242
1
1.04838
1.57589
1.0003
1
1.00214
1.00308
1
1.00048
1
1.56567
1.09792
1
1.00009
1.0017
1.00091
1.00053
1.003
1
1.0001
1
1.00013
1.68893
1.06076
1.00469
1.00057
1.00184
1.00083
1.00031
1.0004
1.00043
1
1.05919
1.77112
1.00151
1
1
1.00153
1.00082
1.00155
1.00226
1
1.0001
1.00064
1.00007
1
1
1
1.00038
1
1
1.54301
1.5764
1.05237
1.07777
1
1.00026
5.81526
1.00001
5.92896
1.00009
1.00225
1
1
1.00025
1.0006
1.0004
1.79341
1.00228
2.66139
1.01455
1.00483
2.0127
1.00038
1.00087
1.00226
1.00161
1.00066
1
1
1
1.00005
1.38289
4.48758
4.59118
6.29099
7.37927
5.66722
6.49394
4.27204
4.13909
7.24652
6.09286
6.31543
5.49926
1.00027
1.00048
1.00001
1.00065
1
1.00035
1.00001
1
1.00046
1.00089
1.00012
1.00045
1.00213
1.00146
1
1
1.90244
1.00126
1
1
1
1
1
1.00196
1.00107
1.00053
1
1
1
1.00017
1.00038
1.00043
1.00084
1.00049
1.00126
1.00153
1.00084
1.00201
1.00191
1.00084
1.00036
1.0005
1.00161
1.00107
1.00117
1
1.00033
1.00145
1.00029
1.00047
1
1
1
1
1.00005
1.00045
1
1.00011
1.02821
1.05256
1.0263
1.00183
1.00271
1.00068
1.00016
1.00201
1.00284
1.00025
1
1.00012
1
1
1
1.00206
1.00389
1.00106
1.0017
1.00081
1.00198
1.00086
1.00097
1.00107
1.00095
1
1.00021
1.00032
1.00051
1.0007
1.00118
1.00116
1.00012
1.00066
1.00014
1.00002
1.00039
1.00038
1.0003
1.00026
1.00015
1.00045
1
1
1.00021
1.00015
1.00034
1.0003
1.00047
1.00018
1.00032
1.0006
1.0002
1
1
1.00003
1
1.00025
1.00021
1.00066
1.00186
1.00017
1.00025
1.00015
1.0007
1
1.00153
1.00062
1.00005
1
1
1
1
1.00005
1.00002
1.00008
1.00002
1.00012
1
1
1.0013
1.00171
1
1
1.00089
1.00138
1
1
1.00025
1.00006
1.0002
1.00004
1.0012
1.00139
1.00167
1.00181
1.00092
1.00047
1.00007
1.00016
1.00003
1.00006
1.00009
1
1
1.00006
1.00017
1.00012
1.00032
1.00021
1.28247
1.13961
1.74936
1.47042
1.79473
1.62526
1.00004
1
1.00008
1
1.00006
1.00009
1.17277
1.46661
1.01744
1.09841
1.08996
1.35701
1.00003
1.00002
1
1.00001
1.00009
1
1.00009
1
1
1
1
1
1.00014
1.00033
1
1.00014
1.00014
1
1.00023
1.00037
1.00029
1.00071
1.00052
1.00017
1.00011
1.00002
1.00016
1
1.00026
1
1
1.0002
1.00035
1.00031
1.00061
1.00037
1.00041
1
1.00021
1.00024
1.0005
1
1.00021
1.00004
1.00005
1.00001
1
1.00005
1.00065
1.00028
1
1.00015
1.00048
1.00089
1
1
1
1.00001
1.00001
1.00038
1.00042
1.00018
1.00031
1.00026
1.0008
1.00038
1.0004
1.00097
1.00084
1.00111
4.4782
3.45121
4.01404
4.1601
1.00063
1.00058
1.00056
1.00077
1.00022
1
1.00055
1.00033
1.00103
1.00037
1
1.00038
1.00006
1.00059
1.00026
1.00022
1
1.00009
1.0001
1.00003
1.00002
1.00021
1.00068
1.00047
1.00057
1.00046
1.00026
1.00017
1.00027
1.00061
1.00079
1.0013
1.00046
1.00019
1.00047
1.00059
1.00053
1.0006
1.00099
1.00105
1.00175
1.00085
1
1.00012
1.00014
1.00059
1
1
1.00028
1.0008
1.00104
1.00128
1.0007
1.00057
1.00055
1.00036
1.0005
1.00042
1.00004
1.0001
1.00008
1
1.00005
1.00079
1.00007
1.00032
1.00022
1.00041
1.0002
1.00061
1.00011
1.00044
1.00131
1.00133
1.00106
1.00171
1.00009
1
1
1
1
1.00003
1.30133
1.08518
1.14724
1.00003
1
1
1
1.00007
1
1.00032
1.00032
1
1.00014
1
1
1.00034
1.00467
1.00202
1.00129
1.00132
1.00346
1.00085
1.00521
1.00072
1.00092
1
1
1.00035
1
1
1.02029
1.05416
1.0121
1.02446
1.00611
1
1
1.00004
1.00006
1
1
1.0002
1.00033
1.00046
1.00044
1.00041
1.00017
1
1
1.00011
1
1.00035
1.00009
1.00004
1
1
1.00007
1.00017
1.00015
1.00017
1.00029
1.00118
1.00152
1.0012
1.0007
1.00065
1
1
1.00241
1
1.00277
1.00118
1.00016
1
1
1
1
1.00007
1
1.00341
1.00052
1.0059
1.00188
1.00152
1.00059
1.00343
1
1.00121
1.00228
1
1
1
1.00001
1
1.00024
1
1
1
1.00005
1
1
1.09493
1.03354
1.14354
1.04129
1.19094
1.03612
1.09471
1.02086
1.00133
1.00001
1
1.0003
1
1.00024
1
1.00023
1.00029
1
1.00008
1
1.00005
1.0012
1.00048
1.00104
1.0014
1.00017
1.00094
1.02079
1.05582
1.01309
1.02515
1.01492
1.01952
1.00084
1.0004
1.00067
1.00108
1.00127
1.0007
1.0001
1.00004
1.00012
1.00002
1.00008
1.00002
1
1
1.00011
1.00012
1
1.00007
1
1
1.10256
1.03446
1.37175
1.2221
1.54375
1.40054
2.54808
2.002
6.09178
4.59445
4.80135
3.44457
2.4346
1.94985
6.03638
4.53091
4.67233
3.40524
2.47018
1.26609
2.3623
2.03426
4.40582
2.07903
1.00009
1.00002
1.00009
1.00005
1.0001
1.00004
1.15886
1.04696
1.02144
1
1.08742
1.01427
1.00001
1.00001
1.00003
1.00058
1.00056
1.00032
1.00026
1.00029
1.0003
1
1.00032
1.00012
1.00016
1.00003
1.0001
1.00008
1.00017
1.00025
1.00018
1.00013
1.00023
1.0003
1.00023
3.03162
2.11648
2.00057
1.75089
2.54286
1.89176
3.13952
4.12704
3.00901
3.71827
1.00021
1.00008
1.00094
1.00014
1.00016
1
1.61813
2.35498
1.39779
1.69092
1.49969
1.67474
1.00014
1.00039
1.00103
1
1.00095
1
3.87452
3.66764
6.5862
5.70861
6.83545
6.1126
1.02435
1.10866
1.00183
1.02783
1
1
1
1.00066
1.00043
1.00032
1.00013
3.43536
3.08247
6.79078
5.4565
5.61849
4.82504
2.22546
4.45432
2.97462
5.47235
2.11149
4.38359
1.06928
1.25077
1
1.05753
1.01318
1.02629
1.00012
1
1.00008
1.00002
1
1
1.00206
1.00092
1.00074
1.00046
1.00149
1.0017
1.00196
1.0016
1.00002
1.00033
1.00032
1.00012
1.00019
2.95453
2.86743
1.43417
5.1442
2.59819
1.00044
1.00301
1.00002
1.00025
1.00073
2.93142
2.46418
6.5446
5.03995
5.18434
3.9031
1.00018
1.00029
1.00019
1.00007
1.00014
1
1.00015
1.00007
2.79019
2.32151
6.01595
4.72372
4.93394
3.70438
1.00028
1
1.00008
1.00057
1.00033
1.00026
1.0008
1.00154
1.0017
1.0015
1.00156
1.00158
1.00562
1.0007
1.00006
1.00033
1.00008
1.00145
1.00166
1
1.00006
1.00027
1
1.0001
1
1
1
1
1
1
1.00009
1.00025
1
1.00003
1
1.00002
1
1.00011
1
1.00017
1.00029
1
1
1
1
1.00021
1.00008
1
1
1
1
1.00129
1.00076
1.00139
1.00011
1.00067
1.0003
1.00117
1.00067
1.00102
1.00111
1.00079
1.00003
1
1
1
1.00005
1.0001
1.00038
1.00101
1.00082
1.00076
1.00084
1.00082
1.00138
1.00133
1.00252
1.00304
1.00014
1.00015
1
1
1
1.00005
1.00023
1
1.00016
1
1.0002
1
1.00411
1.00295
1.12551
1.00005
1
1.00055
1.00074
1.00291
1
1
1
1
1
1
1
1.00043
1.00124
1.00025
1.00015
1
1.00023
1
1
1.0015
1.00146
1.00027
1.00176
1
1
1.00005
1
1
1.00001
1
1.00023
1.00014
1.00013
1
1.00036
1.00013
1
1.00073
1
1.00076
1
1.00038
1.0009
1.00071
1.00093
1
1.00008
1
1.00014
1
1
1.00027
1.00003
1
1.00047
1
1.00006
1
1.00038
1
1.0003
1.00061
1.00062
1.00024
1
1.00006
1.0001
1
1
1.00013
1.00006
1.00152
1.0029
1.00135
1.00213
1.00031
1.00043
1.0006
1.0003
1.00213
1.0012
1.00132
1.00278
1
1
1
1.00003
1.00006
1.00033
1.0007
1.00131
1.00007
1
1
1.00018
1.18349
1.28526
1.00083
1.00031
1.00033
1.00037
1.00004
1.00014
1.00012
1.00088
1.00048
1.00054
1
1.00042
1
1.00053
1.00027
1.00005
1
1.00004
1.00017
1
1.00009
1.00009
1
1
1
1.00203
1.00245
1.00102
1
1.00133
1.00076
1.00068
1.00181
1.00117
1.0015
1.00001
1.00008
1.00016
1
1.00007
1
1.0012
1.00063
1
1.00163
1.0003
1.00159
1.00096
1.00175
1.00257
1.00142
1
1.00036
1
1.00026
1.00039
1.00091
1
1.00063
1.0002
1.0005
1.00109
1.00085
1.00082
1.00161
1.00168
1.00208
1.0011
1.00213
1.00224
1.00029
1
1.00025
1
1
1.00004
1.00188
1.00028
1.00005
1.00025
1.00013
1
1.00008
1
1.00017
1.00074
1.00019
1
1.0002
1
1
1.00143
1.00034
1.00262
1.00066
1.00252
1.00209
1.00015
1
1
1.00052
1
1
1
1
1
1.00021
1
1
1
1.00011
1.00042
1.00201
1.00019
1.00078
1
1.00036
1.00037
1.00037
1.00018
1.00015
1.00021
1.00086
1.00226
1
1.00041
1
1.00002
1.00007
1.00048
1.00064
1.00029
1.00039
1.00084
1.0007
1.00394
1
1.00204
1.00027
1.00157
1.00097
1.00303
1.00088
1.00166
1.00209
1.00149
1.00022
1
1.00191
1
1
1.00286
1.00113
1
1.00254
1
1
1.00004
1
1.00022
1
1
1.00072
1
1.00052
1.00003
1
1.00016
1
1.00028
1.00008
1.00083
1.0004
1.00252
1
1.00031
1.00036
1.0007
1
1
1.00014
1.00006
1
1.00005
1
1
1
1
1
1
1.00016
1.00008
1
1
1.00018
1
1.00015
1.00017
1.0002
1.00055
1.00087
1.00011
1.00159
1.00282
1.00169
1.00157
1.00036
1.00049
1.00012
1
1.00004
1.00026
1
1
1.00015
1.00003
1.00032
1.00019
1
1.00015
1.00004
1.00032
1.00018
1.00009
1.00024
1.00087
1.00168
1.00035
1.00002
1.00006
1.00012
1.00006
1
1
1
1.00003
1
1.00004
1
1.00013
1
1
1
1.00143
1
1
1.0001
1.00031
1.00037
1.00034
1
1.00002
1.00056
1.00006
1
1
1.00075
1.00051
1
1.00015
1.00061
1.0002
1.00014
1
1
1
1
1.00044
1.00066
1.00061
1.00032
1.00054
1.00055
1
1.00117
1.00086
1.00423
1.00348
1.0001
1.00004
1.00037
1.00075
1.00033
1.00012
1.00033
1.00083
1
1.00011
1.00019
1.0004
1
1.00003
1
1
1
1
1.00113
1.00012
1.00006
1.00001
1.00008
1
1.00184
1.0037
1.00088
1.00239
1.0012
1.00058
1.0005
1.00004
1
1
1.00008
1
1.00003
1
1.00007
1.00024
1.00033
1.00043
1.0002
1
1
1.00106
1.00197
1.00131
1.00164
1.00056
1
1.00004
1
1.00004
1
1.00008
1.00068
1.00143
1.00151
1.00163
1.00096
1.00072
1.00076
1.00326
1.00062
1.00169
1.00084
1.00136
1.00087
1.00076
1.00123
1.00042
1.00041
1.00082
1
1.00078
1.00077
1.00118
1.00037
1.00002
1
1.00004
1.00022
1
1.00013
1
1
1
1.00015
1
1
1
1.00018
1
1.0001
1.00033
1.00002
1
1.00029
1.00005
1.00043
1.0008
1.00028
1.0002
1.00025
1.00021
1.00026
1
1
1.00039
1.00034
1.00088
1.00048
1.0011
1.00087
1.00003
1.00015
1
1.00006
1
1
1.00329
1.00048
1.00164
1.00069
1.00008
1.0001