/*--------------------------------*- C++ -*----------------------------------*\
  =========                 |
  \\      /  F ield         | OpenFOAM: The Open Source CFD Toolbox
   \\    /   O peration     | Website:  https://openfoam.org
    \\  /    A nd           | Version:  6
     \\/     M anipulation  |
\*---------------------------------------------------------------------------*/
FoamFile
{
    version     2.0;
    format      ascii;
    class       volScalarField;
    location    "1.6";
    object      nut;
}
// * * * * * * * * * * * * * * * * * * * * * * * * * * * * * * * * * * * * * //

dimensions      [0 2 -1 0 0 0 0];

internalField   nonuniform List<scalar> 
4214
(
0.00423613
0.00306803
0.00311171
0.00355901
0.00383305
0.00375043
0.00352434
0.00343098
0.00364022
0.00425226
0.00537568
0.00718489
0.0100231
0.0145099
0.0215908
0.0317263
0.0433104
0.0504153
0.0469159
0.0382446
0.0296577
0.0202078
0.0129614
0.00891166
0.00670512
0.0053863
0.00456388
0.00399842
0.00361033
0.0033701
0.00329344
0.0033651
0.00355908
0.00384174
0.00409233
0.00420679
0.0040367
0.00355458
0.00301753
0.00295983
0.00416701
0.00239394
0.0029582
0.00350382
0.00376317
0.00369785
0.00346703
0.00329253
0.00335233
0.00375633
0.00459061
0.00597359
0.00809817
0.011347
0.0164001
0.0242503
0.0351813
0.0469426
0.0525166
0.0468636
0.0377994
0.0288233
0.0196702
0.013011
0.00924121
0.00714204
0.00583596
0.00496466
0.00428708
0.00373215
0.00329542
0.0030199
0.00288515
0.00292481
0.00310768
0.00335396
0.0035932
0.00370305
0.00360272
0.00325107
0.00273007
0.00227441
0.00309201
0.00346749
0.00363545
0.00359048
0.00339245
0.00318647
0.0031385
0.00337529
0.00398678
0.00505855
0.00672149
0.00918529
0.0128755
0.0185365
0.0271959
0.0388752
0.0504736
0.0540757
0.0468643
0.0374213
0.0281246
0.0193052
0.0131861
0.0097132
0.00777088
0.00653894
0.00567332
0.00491947
0.00420344
0.00355904
0.00306851
0.00269126
0.00255244
0.00257353
0.00272891
0.00296442
0.00317041
0.00327763
0.0032342
0.00303393
0.00271895
0.00330197
0.00341577
0.00340585
0.00327747
0.00308715
0.00297413
0.00308039
0.003507
0.0043404
0.00566778
0.00763219
0.0104579
0.0146187
0.020925
0.0304139
0.0427339
0.0537944
0.0551881
0.0468454
0.0371288
0.0275938
0.0191073
0.013491
0.0103492
0.00862945
0.00754861
0.00675391
0.00596359
0.00508781
0.00421097
0.00347016
0.00279185
0.00246179
0.00228191
0.00229869
0.00245762
0.00266461
0.00284385
0.00292979
0.00290804
0.00280125
0.00315033
0.00316851
0.00310843
0.00297584
0.00284117
0.00284834
0.00312497
0.003755
0.0048292
0.00643253
0.00872005
0.0119285
0.0165882
0.0235797
0.0339084
0.0466766
0.0567373
0.0559287
0.0469537
0.036954
0.0272595
0.0191026
0.0139702
0.011201
0.00977755
0.0089356
0.00828908
0.00751006
0.00647753
0.00533132
0.00428089
0.00319894
0.00265639
0.00222863
0.00207501
0.00210899
0.00225992
0.00244943
0.00258912
0.00264684
0.00263142
0.0029002
0.00289865
0.00283201
0.00272344
0.00266922
0.00281479
0.0032786
0.00412925
0.00546711
0.00736678
0.00999775
0.0136076
0.0187946
0.0265049
0.0376577
0.050612
0.05927
0.0565018
0.0471559
0.0369263
0.0271499
0.0193263
0.0146796
0.0123376
0.0112977
0.0107964
0.0103894
0.00968091
0.00850012
0.00704028
0.00559993
0.00395723
0.00316672
0.00241535
0.00205996
0.00193271
0.00198506
0.00214218
0.00229866
0.00239457
0.00241453
0.00266324
0.00266171
0.00259899
0.00252891
0.00257656
0.00287797
0.00355034
0.00464174
0.00626876
0.00848266
0.0114753
0.0155033
0.0212479
0.0297082
0.0416057
0.0544198
0.0613267
0.0571066
0.0475019
0.0370933
0.0273036
0.0198263
0.0156855
0.0138423
0.013287
0.0132462
0.0131913
0.012629
0.0113142
0.00949417
0.00756718
0.00514475
0.00405052
0.00285266
0.00225301
0.00192792
0.00184778
0.00193579
0.00208271
0.00220117
0.00224306
0.0024676
0.00246688
0.00241102
0.00239414
0.00256818
0.00304401
0.00395202
0.00530465
0.00724713
0.00978826
0.0131592
0.0176205
0.0239532
0.0331771
0.0456776
0.0579831
0.0629859
0.0578725
0.048057
0.0375182
0.0277728
0.0206619
0.0170676
0.0158031
0.01585
0.016419
0.0168629
0.0165477
0.0151212
0.0128998
0.0103751
0.00688589
0.00539461
0.00355993
0.002658
0.00208742
0.00184569
0.00183302
0.001944
0.00207388
0.00213823
0.00231253
0.00230933
0.00226614
0.00232134
0.00265138
0.00332038
0.00449679
0.00612729
0.00841182
0.0112866
0.0150529
0.0199629
0.0269156
0.0368846
0.0497683
0.0611861
0.0644451
0.0588763
0.0489013
0.0382777
0.0286167
0.0219053
0.0189123
0.0183032
0.019102
0.020463
0.0216042
0.0217029
0.0202087
0.0175676
0.0143215
0.00939546
0.00734137
0.00457125
0.00328483
0.00239722
0.00196596
0.00182791
0.00187768
0.00200412
0.00209115
0.00218999
0.00218211
0.00216537
0.00231423
0.00283594
0.00371361
0.00519674
0.00711229
0.00976679
0.0129744
0.0171582
0.0225363
0.0301316
0.0407768
0.0537466
0.0638838
0.0660438
0.0602175
0.0501267
0.0394574
0.0299014
0.0236429
0.0212884
0.0214263
0.0231502
0.02554
0.0276623
0.028473
0.0270181
0.0239999
0.0199261
0.0130722
0.0101696
0.00596912
0.00416794
0.00284047
0.00218762
0.00190472
0.00187474
0.0019804
0.00208484
0.00209154
0.00208001
0.00211427
0.00237642
0.00313293
0.00422544
0.00605973
0.00825282
0.0113105
0.0148442
0.0194782
0.0253442
0.0335883
0.0447545
0.0573289
0.0663595
0.0679297
0.0620028
0.0518428
0.0411547
0.0317228
0.0259497
0.024241
0.0252429
0.0280885
0.0318197
0.0353326
0.0373743
0.036179
0.0329346
0.0279848
0.0186266
0.014445
0.00797715
0.00542176
0.00341643
0.00249155
0.0020412
0.00192105
0.00199236
0.00210464
0.00201022
0.00200052
0.00212207
0.00250814
0.00355241
0.00484803
0.00708702
0.00953103
0.013038
0.0168888
0.0220204
0.0283927
0.0372457
0.0485721
0.0604196
0.0689292
0.0702068
0.0643469
0.0542015
0.0434733
0.0341855
0.0288485
0.0278076
0.029789
0.0339725
0.0394425
0.0449461
0.0489679
0.0483844
0.0452763
0.0395856
0.0271827
0.0211798
0.0110825
0.00734031
0.00417754
0.00288121
0.00221886
0.00200044
0.00202931
0.00214084
0.0019414
0.00194323
0.00219891
0.00270193
0.0040999
0.0055599
0.0082724
0.0109201
0.0149458
0.019107
0.0247893
0.0317029
0.0408454
0.0519831
0.0634273
0.0716669
0.0729923
0.0673589
0.057372
0.0465664
0.03735
0.0323121
0.0319583
0.0350049
0.040672
0.0481898
0.0561044
0.063509
0.06397
0.0617457
0.0557521
0.0401143
0.0317831
0.0161532
0.0105269
0.00527408
0.00340428
0.00243402
0.00210201
0.00208031
0.00218467
0.00188403
0.00190784
0.00235144
0.00293821
0.00477166
0.00632404
0.00960247
0.0123886
0.0170318
0.0215192
0.0277805
0.0349985
0.0442917
0.0552852
0.0663845
0.0745891
0.0763642
0.0712468
0.06153
0.0505797
0.0412435
0.0362303
0.036469
0.0405569
0.0476613
0.0574554
0.0681645
0.0806675
0.0827198
0.0821937
0.0765829
0.0585303
0.0476165
0.0244687
0.0159986
0.00701786
0.00419406
0.00269914
0.00222136
0.00213731
0.00222777
0.00184222
0.00189165
0.00257703
0.00318317
0.00555025
0.00709069
0.0110574
0.0139164
0.0192829
0.0240165
0.030873
0.0383982
0.0477277
0.0584968
0.0692299
0.0776112
0.0802219
0.0761442
0.0669947
0.0559457
0.0462015
0.0406146
0.0410523
0.0459803
0.0543654
0.067077
0.0801379
0.0983763
0.102509
0.104753
0.100207
0.0823822
0.0689758
0.037547
0.025193
0.00976201
0.00546454
0.0030262
0.00236148
0.0021949
0.00226455
0.00182546
0.00188866
0.0028578
0.0033913
0.00640099
0.00781262
0.0125907
0.0153785
0.0217069
0.0266226
0.0341793
0.0419536
0.0511949
0.0617157
0.071926
0.080673
0.0843619
0.0818016
0.073893
0.0630842
0.0530552
0.0463832
0.0459172
0.0513784
0.0611213
0.0779377
0.0917219
0.113093
0.12067
0.126762
0.124378
0.10875
0.0950045
0.054915
0.0392334
0.0135177
0.00758656
0.00339669
0.00253045
0.00225027
0.00229079
0.00184627
0.00189372
0.00316122
0.00352445
0.00723768
0.00832585
0.0142707
0.0167326
0.0244773
0.0293453
0.0377474
0.0456873
0.0545682
0.0649933
0.0743252
0.0840638
0.0890525
0.0894147
0.0824443
0.0717069
0.0620971
0.0519765
0.052211
0.0528078
0.0666511
0.0870193
0.100818
0.125198
0.134796
0.146411
0.146184
0.13405
0.122701
0.0742621
0.0589232
0.0175387
0.0112349
0.00363977
0.00273527
0.00229809
0.00230818
0.00246437
0.00242771
0.00239143
0.00234945
0.00230055
0.00224649
0.00219373
0.00215142
0.0021327
0.002161
0.00225782
0.00242768
0.00262013
0.00267604
0.00237362
0.00217065
0.00875285
0.00250542
0.0024834
0.00245085
0.0024096
0.00236052
0.00230517
0.00224854
0.00219727
0.00216099
0.00215553
0.00219926
0.00230128
0.00242267
0.00244764
0.00219118
0.00204655
0.00883344
0.00250909
0.00248866
0.00246023
0.00242386
0.00237959
0.00232882
0.00227433
0.00222106
0.00217733
0.00215495
0.002168
0.00222467
0.00229836
0.00230021
0.00207795
0.00199566
0.00884505
0.00250598
0.00248683
0.0024614
0.0024295
0.00239067
0.00234557
0.00229616
0.00224612
0.00220128
0.00217066
0.00216579
0.0021943
0.00223914
0.0022288
0.00203378
0.00201511
0.00883811
0.00249095
0.00247515
0.00245446
0.00242852
0.00239663
0.00235892
0.00231659
0.00227205
0.00222976
0.00219681
0.00218262
0.00219479
0.00222274
0.00221038
0.00204742
0.00211148
0.00881626
0.00248759
0.00247273
0.00245439
0.00243205
0.00240494
0.00237301
0.00233687
0.0022981
0.0022599
0.00222782
0.00220982
0.00221344
0.00223313
0.00222591
0.00210434
0.00228055
0.00878323
0.00247635
0.00246467
0.00245018
0.00243239
0.00241055
0.00238439
0.00235419
0.00232092
0.00228706
0.00225731
0.00223889
0.00223939
0.00225694
0.00225902
0.00218543
0.00250273
0.00874408
0.00247325
0.00246209
0.0024489
0.0024332
0.00241423
0.00239165
0.00236556
0.00233662
0.0023069
0.00228059
0.00226437
0.00226588
0.00228556
0.00229908
0.00227391
0.00274292
0.00868855
0.00246395
0.00245522
0.00244452
0.00243144
0.00241527
0.00239572
0.00237284
0.00234727
0.00232104
0.00229816
0.00228509
0.00228952
0.00231357
0.00233895
0.00235608
0.00296158
0.00859401
0.00246029
0.00245145
0.00244128
0.00242919
0.00241443
0.00239663
0.00237583
0.00235278
0.00232952
0.00231
0.0023005
0.0023087
0.00233794
0.00237458
0.00242642
0.00313474
0.00844337
0.002451
0.00244398
0.00243528
0.00242444
0.00241083
0.00239425
0.00237496
0.00235392
0.00233331
0.00231704
0.00231124
0.0023235
0.00235785
0.00240444
0.00248436
0.00325748
0.00823132
0.00244657
0.00243871
0.00242968
0.00241875
0.00240524
0.00238908
0.00237076
0.00235144
0.00233338
0.00232038
0.00231836
0.00233472
0.00237397
0.00242939
0.00253304
0.00333579
0.00796911
0.00243657
0.00243004
0.00242155
0.00241066
0.0023971
0.00238124
0.00236386
0.00234631
0.00233087
0.00232122
0.00232306
0.00234358
0.00238761
0.00245141
0.00257724
0.00338276
0.00767477
0.0024313
0.00242307
0.00241329
0.00240138
0.00238727
0.00237155
0.00235519
0.00233956
0.00232687
0.0023207
0.00232658
0.0023515
0.00240074
0.00247373
0.00262389
0.00341277
0.00736595
0.00242053
0.00241293
0.00240273
0.00239017
0.00237583
0.00236065
0.00234564
0.00233216
0.0023224
0.00231993
0.00233016
0.00236013
0.00241583
0.00250067
0.00267994
0.00343792
0.00705552
0.00241421
0.00240392
0.00239182
0.00237824
0.00236386
0.00234952
0.00233614
0.00232503
0.00231843
0.00231998
0.00233519
0.00237141
0.00243585
0.00253708
0.00275037
0.00347113
0.00675005
0.00240277
0.00239229
0.00237949
0.00236573
0.00235197
0.00233894
0.00232746
0.00231896
0.00231585
0.00232198
0.00234327
0.00238759
0.00246424
0.00258787
0.00284104
0.00352768
0.00645224
0.00239504
0.00238146
0.00236747
0.00235388
0.00234112
0.00232962
0.00232026
0.00231467
0.00231557
0.00232723
0.00235621
0.00241135
0.00250461
0.00265747
0.00295512
0.00361898
0.00616332
0.00238322
0.00236946
0.00235584
0.0023432
0.00233176
0.00232198
0.00231501
0.0023128
0.00231853
0.00233715
0.00237597
0.0024454
0.00256031
0.00274855
0.00309198
0.00374477
0.00588204
0.00237429
0.00235889
0.0023458
0.00233426
0.0023242
0.0023163
0.0023121
0.00231397
0.0023257
0.00235303
0.00240439
0.00249196
0.00263344
0.00286077
0.0032458
0.0038858
0.00560822
0.0023633
0.00234924
0.00233747
0.00232709
0.00231847
0.00231275
0.00231188
0.00231875
0.00233788
0.00237598
0.00244278
0.00255221
0.0027238
0.00298967
0.00340332
0.0040101
0.00533808
0.002355
0.00234168
0.00233092
0.00232163
0.00231464
0.0023115
0.00231463
0.00232755
0.0023556
0.00240658
0.00249154
0.00262556
0.00282812
0.00312662
0.0035485
0.00409129
0.00507766
0.00234728
0.0023359
0.00232597
0.00231777
0.00231268
0.00231262
0.0023205
0.00234052
0.00237896
0.00244464
0.0025496
0.00270908
0.00294032
0.00326082
0.00366782
0.00411392
0.00482967
0.00234215
0.0023316
0.00232235
0.00231543
0.00231255
0.00231605
0.00232943
0.00235758
0.00240763
0.00248914
0.00261432
0.00279702
0.00304991
0.00337821
0.00375689
0.00411851
0.00461436
0.00233882
0.0023285
0.00231992
0.0023144
0.00231387
0.0023211
0.00234011
0.00237644
0.00243788
0.00253448
0.00267828
0.00288146
0.00315212
0.00348455
0.00383733
0.00412545
0.00444431
0.0023363
0.00232616
0.00231825
0.00231402
0.00231569
0.00232645
0.00235079
0.0023948
0.00246683
0.00257722
0.00273763
0.00295855
0.0032439
0.00357953
0.00391244
0.00414606
0.00432298
0.00233457
0.00232451
0.00231703
0.00231383
0.00231739
0.00233119
0.00236013
0.00241078
0.00249188
0.00261397
0.00278836
0.00302421
0.00332236
0.00366288
0.003985
0.00418263
0.00425416
0.00233339
0.00232321
0.00231598
0.00231346
0.00231835
0.00233441
0.00236683
0.00242251
0.00251049
0.0026415
0.00282677
0.00307485
0.00338505
0.00373444
0.00405764
0.00424002
0.00424227
0.00233272
0.00232226
0.0023149
0.00231259
0.00231811
0.00233537
0.00236974
0.0024283
0.00252031
0.00265674
0.00284913
0.00310648
0.00342849
0.00379231
0.00413112
0.00432255
0.00429268
0.00233244
0.00232146
0.00231369
0.00231105
0.00231635
0.00233353
0.00236798
0.0024268
0.00251932
0.0026568
0.00285157
0.00311425
0.0034473
0.00383159
0.00420272
0.00443135
0.00441179
0.00233254
0.00232088
0.00231232
0.00230878
0.00231296
0.00232867
0.00236112
0.00241722
0.00250613
0.0026394
0.00283046
0.00309274
0.00343413
0.00384374
0.00426558
0.00456564
0.00460675
0.00233294
0.00232044
0.00231085
0.0023059
0.00230812
0.002321
0.00234935
0.00239963
0.0024805
0.00260354
0.00278334
0.00303693
0.00338011
0.00381618
0.00430649
0.0047213
0.00488503
0.00233358
0.0023202
0.00230937
0.00230264
0.00230223
0.00231117
0.0023336
0.00237524
0.00244391
0.00255059
0.00271061
0.00294448
0.00327748
0.0037325
0.0043024
0.00488192
0.00525397
0.00233428
0.00231999
0.00230784
0.00229907
0.00229537
0.00229902
0.00231366
0.00234434
0.00239815
0.00248486
0.00261786
0.00281959
0.00312461
0.00357868
0.00422299
0.00501646
0.0057203
0.00233498
0.00231992
0.00230651
0.0022958
0.00228904
0.00228825
0.00229588
0.0023155
0.00235251
0.0024153
0.00251726
0.0026768
0.00293407
0.00335456
0.00403928
0.00507438
0.0062895
0.00233487
0.00231911
0.00230473
0.00229252
0.00228371
0.00227954
0.00228165
0.00229233
0.00231508
0.0023557
0.00242444
0.00254005
0.00273637
0.00308715
0.00374466
0.00498737
0.00696537
0.00233366
0.00231733
0.00230209
0.00228898
0.00227881
0.00227249
0.00227106
0.00227593
0.00228919
0.00231442
0.00235833
0.00243449
0.00257055
0.00283088
0.00338217
0.00469392
0.00774954
0.00233101
0.00231408
0.00229828
0.00228457
0.00227369
0.00226641
0.00226356
0.00226614
0.00227548
0.00229369
0.00232464
0.00237661
0.0024673
0.00264224
0.0030412
0.00420483
0.00864137
0.00232626
0.00230882
0.00229258
0.00227852
0.00226747
0.00226029
0.0022579
0.00226139
0.00227204
0.00229143
0.00232174
0.00236733
0.00243639
0.00255337
0.00280666
0.00364526
0.00963791
0.00231939
0.00230126
0.00228458
0.00227031
0.00225953
0.00225336
0.0022531
0.00226025
0.00227658
0.00230419
0.00234518
0.00239874
0.00246903
0.00256465
0.00272156
0.00318556
0.0107338
0.00255044
0.00257903
0.00260465
0.00262694
0.00264625
0.00266247
0.00267559
0.00268547
0.00269214
0.00269561
0.0026959
0.00269305
0.00268711
0.00267816
0.00266621
0.00265133
0.00263355
0.00261298
0.00258987
0.00256415
0.00252506
0.002491
0.00246328
0.00243771
0.00241455
0.00239413
0.00237648
0.00236168
0.00234958
0.00233995
0.00233238
0.00232642
0.00232177
0.00231786
0.0023145
0.00231129
0.0023083
0.00230597
0.00230566
0.00230902
0.00231579
0.00259121
0.00262196
0.00264855
0.00267164
0.00269146
0.00270795
0.00272096
0.00273043
0.00273636
0.00273877
0.00273771
0.00273321
0.00272537
0.00271427
0.00269997
0.00268255
0.00266213
0.00263888
0.0026131
0.00258491
0.00254386
0.00250744
0.00247723
0.00244919
0.00242356
0.00240071
0.00238075
0.00236372
0.00234955
0.00233792
0.00232857
0.00232093
0.00231478
0.00230947
0.00230482
0.00230032
0.00229603
0.00229228
0.00229052
0.00229256
0.0022983
0.00262958
0.00266204
0.00268983
0.00271406
0.00273477
0.0027518
0.00276498
0.00277425
0.00277961
0.00278112
0.00277884
0.00277282
0.00276319
0.00275005
0.00273352
0.00271373
0.00269084
0.00266511
0.00263687
0.00260634
0.00256376
0.00252521
0.00249271
0.00246231
0.00243433
0.00240914
0.0023869
0.00236768
0.0023514
0.00233783
0.00232661
0.00231736
0.00230964
0.00230303
0.00229707
0.00229142
0.00228585
0.00228065
0.00227702
0.00227718
0.00228173
0.00266466
0.0026986
0.00272805
0.00275386
0.00277584
0.00279373
0.00280734
0.00281666
0.00282167
0.00282248
0.00281914
0.00281178
0.00280052
0.00278553
0.00276695
0.00274498
0.00271984
0.00269184
0.00266137
0.00262872
0.00258493
0.00254455
0.00250993
0.00247734
0.00244714
0.00241972
0.00239528
0.00237393
0.00235559
0.00234007
0.00232704
0.00231615
0.00230696
0.00229904
0.00229195
0.00228525
0.00227862
0.00227204
0.0022664
0.00226404
0.00226704
0.00269577
0.00273141
0.00276309
0.00279091
0.00281449
0.00283353
0.00284787
0.00285749
0.0028624
0.00286274
0.00285858
0.00285008
0.00283741
0.00282078
0.00280038
0.00277646
0.00274931
0.00271929
0.00268683
0.00265228
0.00260757
0.00256567
0.00252914
0.00249455
0.0024623
0.0024328
0.00240629
0.00238289
0.00236256
0.00234515
0.00233037
0.00231789
0.0023073
0.00229818
0.00229009
0.00228258
0.0022752
0.00226761
0.00226012
0.00225477
0.00225532
0.00272274
0.00276065
0.00279504
0.00282519
0.00285066
0.00287114
0.00288649
0.00289667
0.00290175
0.00290186
0.00289714
0.00288776
0.00287394
0.00285593
0.00283397
0.00280837
0.00277948
0.0027477
0.00271351
0.00267731
0.00263195
0.00258884
0.00255065
0.00251429
0.0024802
0.0024488
0.00242036
0.00239505
0.00237286
0.00235366
0.00233723
0.00232325
0.00231137
0.00230118
0.00229226
0.00228419
0.00227646
0.0022685
0.00225988
0.00225158
0.00224824
0.00274567
0.00278685
0.00282415
0.00285688
0.00288446
0.00290662
0.00292321
0.00293423
0.00293972
0.00293989
0.00293488
0.00292491
0.00291023
0.00289114
0.00286793
0.00284096
0.00281062
0.00277737
0.00274173
0.00270412
0.00265841
0.00261441
0.00257483
0.00253695
0.00250126
0.00246819
0.00243804
0.00241101
0.00238711
0.00236629
0.00234834
0.00233301
0.00231998
0.00230888
0.00229934
0.00229097
0.00228331
0.00227572
0.00226723
0.00225714
0.00224858
0.00276793
0.00281072
0.0028509
0.0028863
0.00291616
0.00294016
0.00295819
0.00297024
0.00297641
0.00297689
0.00297189
0.00296164
0.00294643
0.00292659
0.00290248
0.00287447
0.00284303
0.00280864
0.00277185
0.00273314
0.00268736
0.0026428
0.00260213
0.00256305
0.00252604
0.00249157
0.00245996
0.00243144
0.00240607
0.00238381
0.00236455
0.00234807
0.00233409
0.00232229
0.00231237
0.00230396
0.00229672
0.00229012
0.00228315
0.00227374
0.00226054
0.00278925
0.00283442
0.00287623
0.00291395
0.00294616
0.00297208
0.00299165
0.0030049
0.00301193
0.00301299
0.00300828
0.00299808
0.0029827
0.00296249
0.00293785
0.00290921
0.00287704
0.00284189
0.00280431
0.00276484
0.0027193
0.00267456
0.00263315
0.0025932
0.00255521
0.00251967
0.00248691
0.00245719
0.00243062
0.00240722
0.0023869
0.00236952
0.00235484
0.00234262
0.00233258
0.00232444
0.00231791
0.00231269
0.00230813
0.00230221
0.00228891
0.00281073
0.00285803
0.00290185
0.00294104
0.00297499
0.00300284
0.00302396
0.00303847
0.00304651
0.00304834
0.0030442
0.00303437
0.0030192
0.00299904
0.00297432
0.00294548
0.00291305
0.00287756
0.00283963
0.00279981
0.00275488
0.00271036
0.00266863
0.00262821
0.00258964
0.00255341
0.00251988
0.00248933
0.00246191
0.00243769
0.00241665
0.00239869
0.00238364
0.00237132
0.00236151
0.00235397
0.0023485
0.00234491
0.00234295
0.00234181
0.00233587
0.00283384
0.00288281
0.00292824
0.00296889
0.00300397
0.003033
0.0030556
0.00307132
0.00308042
0.00308316
0.00307983
0.0030707
0.00305612
0.00303647
0.00301216
0.00298366
0.00295149
0.00291622
0.00287846
0.0028388
0.0027949
0.0027511
0.00270953
0.00266913
0.00263046
0.00259401
0.00256017
0.00252923
0.00250139
0.00247677
0.00245541
0.00243726
0.00242224
0.00241021
0.00240101
0.00239449
0.00239048
0.00238888
0.0023896
0.00239264
0.00239744
0.00286043
0.0029104
0.00295681
0.00299831
0.00303418
0.00306389
0.00308718
0.00310396
0.00311404
0.00311775
0.0031154
0.00310727
0.0030937
0.00307505
0.00305172
0.00302416
0.0029929
0.0029585
0.00292157
0.00288273
0.00284041
0.00279793
0.00275714
0.00271738
0.0026792
0.00264311
0.00260952
0.00257873
0.00255101
0.0025265
0.00250531
0.00248745
0.00247291
0.00246162
0.00245349
0.00244842
0.00244633
0.00244716
0.00245097
0.00245781
0.00246714
0.00289307
0.00294299
0.00298941
0.00303087
0.00306672
0.00309649
0.00311995
0.00313704
0.00314788
0.0031525
0.00315123
0.00314435
0.00313219
0.00311508
0.00309337
0.00306749
0.00303793
0.00300523
0.00296998
0.0029328
0.00289279
0.00285241
0.0028132
0.00277487
0.00273795
0.00270297
0.00267034
0.00264041
0.00261345
0.00258969
0.00256926
0.00255226
0.00253873
0.00252867
0.00252205
0.00251886
0.0025191
0.00252276
0.00253014
0.00254053
0.00255367
0.00293535
0.0029836
0.00302859
0.00306868
0.0031033
0.00313209
0.00315488
0.00317168
0.00318262
0.00318792
0.00318772
0.00318229
0.00317194
0.00315693
0.00313759
0.00311426
0.00308737
0.00305742
0.00302496
0.00299056
0.00295389
0.00291666
0.00288013
0.00284429
0.00280968
0.0027768
0.0027461
0.00271792
0.0026926
0.00267037
0.00265143
0.00263595
0.00262401
0.00261569
0.00261101
0.00261004
0.00261282
0.00261961
0.00262973
0.00264307
0.00265995
0.00299249
0.00303658
0.00307795
0.00311466
0.00314628
0.00317255
0.00319341
0.00320893
0.00321929
0.00322472
0.00322542
0.00322156
0.00321338
0.0032011
0.00318496
0.00316523
0.00314224
0.0031164
0.00308819
0.00305812
0.00302621
0.00299363
0.00296133
0.0029295
0.00289868
0.00286933
0.00284189
0.00281673
0.00279419
0.00277453
0.00275801
0.00274481
0.00273508
0.00272895
0.00272649
0.00272787
0.00273306
0.00274184
0.00275405
0.00276946
0.00278895
0.00307242
0.00310841
0.0031427
0.00317297
0.00319893
0.00322044
0.00323752
0.00325032
0.00325903
0.00326388
0.00326507
0.00326277
0.00325709
0.0032482
0.00323623
0.00322137
0.00320384
0.00318391
0.00316194
0.00313833
0.0031133
0.00308756
0.00306177
0.00303624
0.00301142
0.00298772
0.00296554
0.00294523
0.00292712
0.00291148
0.00289856
0.00288857
0.00288166
0.00287801
0.00287774
0.00288083
0.00288722
0.00289679
0.00290938
0.00292475
0.00294444
0.0031874
0.00320907
0.00323079
0.00324981
0.00326602
0.00327938
0.00328998
0.00329794
0.00330343
0.00330664
0.00330771
0.00330676
0.00330384
0.00329903
0.00329238
0.00328396
0.00327388
0.00326227
0.00324931
0.00323524
0.00322026
0.00320472
0.00318898
0.00317329
0.00315796
0.00314327
0.00312951
0.00311694
0.00310578
0.00309627
0.00308858
0.00308292
0.00307939
0.00307808
0.00307905
0.00308228
0.00308774
0.00309532
0.00310487
0.00311617
0.00313148
0.00859348
0.00214947
0.00259269
0.00308131
0.00308078
0.00286941
0.00263495
0.00243755
0.00228507
0.00217047
0.00208503
0.00202185
0.001976
0.00194393
0.00192285
0.00190975
0.0019008
0.00857607
0.0020339
0.00240396
0.00279355
0.00278255
0.00261468
0.00243247
0.00228109
0.00216665
0.00208358
0.00202434
0.00198269
0.00195392
0.00193439
0.00192125
0.00191216
0.00190435
0.0084843
0.001957
0.00225155
0.00256139
0.00254515
0.00240992
0.00226588
0.00214808
0.00206148
0.00200172
0.00196262
0.00193878
0.00192575
0.00191953
0.00191634
0.00191298
0.00190695
0.00837579
0.00192096
0.00214065
0.0023878
0.00236835
0.00225627
0.00213994
0.00204708
0.00198094
0.00193723
0.00191063
0.00189701
0.00189348
0.0018979
0.00190833
0.00192273
0.00193925
0.00826084
0.00193578
0.00207521
0.00227062
0.00224556
0.00214771
0.00205084
0.00197727
0.00192832
0.00189909
0.00188412
0.00187937
0.00188227
0.00189123
0.00190513
0.00192258
0.00194179
0.00815555
0.002014
0.0020561
0.00220249
0.00216711
0.00207567
0.00199058
0.00192956
0.00189204
0.00187265
0.00186578
0.00186735
0.0018748
0.00188658
0.00190212
0.00192079
0.00194128
0.00807609
0.00216564
0.00207886
0.00217231
0.00212275
0.00203313
0.00195536
0.00190253
0.00187219
0.00185854
0.00185602
0.00186063
0.00186986
0.00188219
0.00189655
0.00191221
0.00192887
0.00802817
0.00238761
0.0021334
0.00216756
0.00210204
0.00201213
0.00193933
0.00189224
0.00186668
0.00185644
0.00185609
0.00186178
0.00187121
0.00188312
0.00189687
0.00191193
0.00192775
0.00799663
0.00265577
0.00220603
0.00217782
0.00209681
0.00200579
0.00193638
0.00189314
0.00187054
0.0018621
0.0018626
0.00186839
0.0018773
0.00188811
0.00190036
0.00191394
0.00192871
0.00795096
0.00292506
0.00228239
0.0021962
0.00210177
0.00200951
0.00194241
0.00190173
0.00188078
0.00187291
0.00187318
0.00187828
0.0018862
0.0018958
0.00190644
0.00191783
0.00192987
0.00786094
0.00314722
0.00235144
0.00221877
0.0021135
0.00202008
0.00195449
0.00191544
0.00189533
0.00188727
0.00188645
0.00188984
0.00189572
0.00190321
0.00191186
0.00192139
0.00193174
0.00771119
0.00329733
0.00240913
0.00224317
0.00212949
0.00203501
0.00197025
0.00193215
0.00191258
0.00190444
0.00190291
0.00190503
0.00190916
0.00191456
0.00192088
0.0019279
0.00193534
0.00750617
0.00338428
0.00245988
0.00226859
0.00214822
0.00205265
0.00198806
0.00195017
0.00193067
0.00192232
0.00192032
0.00192166
0.00192478
0.00192907
0.00193442
0.00194084
0.00194825
0.00726211
0.00342784
0.00250933
0.00229627
0.00216942
0.0020724
0.00200733
0.00196897
0.00194896
0.00194007
0.00193746
0.00193795
0.00193979
0.00194227
0.00194538
0.00194946
0.00195496
0.00699697
0.00345229
0.00256517
0.00232912
0.00219385
0.00209431
0.00202798
0.00198851
0.00196747
0.00195782
0.0019547
0.00195486
0.00195623
0.00195773
0.00195905
0.00196025
0.00196139
0.00672422
0.00348012
0.0026359
0.00237164
0.00222368
0.00211943
0.00205052
0.00200905
0.0019863
0.00197537
0.00197141
0.00197127
0.00197273
0.00197448
0.00197601
0.00197756
0.00197976
0.00645063
0.00353077
0.00272954
0.00242935
0.00226217
0.00214955
0.002076
0.00203132
0.00200607
0.0019932
0.00198782
0.00198678
0.00198785
0.00198941
0.00199044
0.00199078
0.00199156
0.00617827
0.00361539
0.00285211
0.00250761
0.00231347
0.00218733
0.00210605
0.00205635
0.00202759
0.00201211
0.00200488
0.00200256
0.002003
0.00200448
0.00200546
0.00200453
0.00200093
0.00590831
0.00372933
0.00300204
0.00261063
0.00238211
0.00223615
0.0021429
0.00208556
0.00205172
0.00203275
0.00202303
0.00201901
0.00201841
0.0020197
0.00202153
0.00202232
0.00202053
0.00564195
0.00386424
0.00316978
0.00273889
0.00247149
0.00229943
0.00218922
0.00212077
0.00207966
0.00205586
0.00204287
0.00203653
0.00203428
0.00203448
0.00203595
0.00203733
0.00203635
0.00538146
0.00399118
0.00334507
0.0028884
0.00258246
0.00237959
0.00224746
0.00216398
0.00211283
0.00208243
0.00206508
0.0020558
0.00205146
0.00205013
0.00205057
0.00205161
0.00204864
0.00513071
0.00408061
0.00351049
0.0030496
0.00271191
0.00247692
0.00231912
0.00221686
0.00215266
0.0021135
0.00209034
0.00207724
0.00207027
0.00206713
0.00206634
0.00206726
0.00206588
0.00489266
0.00411136
0.00364731
0.00320851
0.00285212
0.00258829
0.00240361
0.0022799
0.00219997
0.00214985
0.0021193
0.00210126
0.00209097
0.00208561
0.0020831
0.00208254
0.00208169
0.00468411
0.00412429
0.00375815
0.00335363
0.00299098
0.00270497
0.00249562
0.00235032
0.00225352
0.00219111
0.00215199
0.00212812
0.00211389
0.00210579
0.00210123
0.00209901
0.00209745
0.00451783
0.00414478
0.003858
0.00348538
0.00312144
0.00281832
0.00258763
0.00242247
0.00230946
0.00223481
0.00218689
0.00215691
0.0021385
0.00212751
0.00212095
0.00211737
0.00211439
0.004397
0.00417279
0.00394849
0.00360135
0.00323751
0.00292128
0.00267322
0.0024913
0.00236418
0.00227857
0.00222255
0.00218677
0.00216428
0.00215038
0.00214177
0.00213644
0.00213225
0.00432578
0.00421479
0.00403246
0.00370024
0.00333448
0.00300769
0.00274639
0.00255176
0.00241386
0.00231971
0.00225725
0.00221673
0.0021908
0.00217436
0.0021638
0.00215661
0.00215133
0.00430927
0.00427756
0.00411279
0.00378099
0.00340836
0.00307224
0.00280182
0.00259931
0.00245496
0.00235569
0.00228925
0.00224564
0.00221735
0.00219908
0.00218699
0.00217864
0.00217215
0.00435341
0.00436339
0.00418951
0.00384097
0.00345484
0.00311022
0.00283525
0.00263044
0.0024848
0.00238459
0.00231726
0.00227272
0.00224348
0.00222419
0.00221102
0.00220162
0.00219377
0.00446515
0.00447583
0.00426021
0.00387521
0.00346889
0.00311764
0.00284386
0.0026433
0.00250221
0.00240568
0.00234087
0.00229778
0.00226918
0.00224984
0.00223616
0.00222558
0.00221667
0.00465214
0.00461412
0.00431752
0.00387572
0.00344512
0.00309204
0.00282713
0.00263831
0.00250792
0.00241971
0.00236069
0.00232131
0.00229479
0.00227633
0.00226265
0.00225152
0.00224171
0.00492239
0.00477037
0.00434673
0.00383136
0.00337909
0.00303389
0.00278786
0.00261877
0.0025049
0.00242902
0.00237848
0.00234458
0.00232119
0.00230416
0.00229068
0.00227909
0.00226786
0.00528393
0.00492788
0.00432622
0.00373147
0.00327114
0.00294908
0.00273326
0.00259124
0.00249836
0.00243743
0.00239701
0.00236944
0.00234961
0.00233415
0.00232083
0.00230823
0.00229548
0.00574406
0.00505346
0.00422945
0.00357212
0.00313055
0.0028503
0.00267484
0.00256473
0.00249482
0.00244961
0.00241937
0.00239791
0.00238131
0.00236703
0.00235356
0.0023398
0.00232541
0.00630894
0.00509664
0.00403768
0.00336592
0.00297819
0.002756
0.00262639
0.00254879
0.00250085
0.00246985
0.0024483
0.00243168
0.00241726
0.00240338
0.00238903
0.00237444
0.00235902
0.00698285
0.00499385
0.00375914
0.00314608
0.00284267
0.00268562
0.00260011
0.0025511
0.00252109
0.00250084
0.0024853
0.00247154
0.00245786
0.00244357
0.00242892
0.00241236
0.00239354
0.00776773
0.004699
0.00344272
0.00295731
0.00275015
0.00265286
0.00260309
0.00257495
0.00255679
0.00254289
0.00253025
0.00251717
0.00250279
0.00248757
0.00246976
0.00244939
0.00242669
0.00866293
0.00423669
0.00316258
0.00283622
0.0027147
0.00266187
0.00263498
0.00261847
0.00260584
0.00259405
0.00258148
0.00256719
0.00255134
0.00253246
0.00251077
0.00248644
0.00245964
0.00966504
0.00372177
0.00298013
0.00279807
0.00273529