/*--------------------------------*- C++ -*----------------------------------*\
  =========                 |
  \\      /  F ield         | OpenFOAM: The Open Source CFD Toolbox
   \\    /   O peration     | Website:  https://openfoam.org
    \\  /    A nd           | Version:  6
     \\/     M anipulation  |
\*---------------------------------------------------------------------------*/
FoamFile
{
    version     2.0;
    format      ascii;
    class       volScalarField;
    location    "3.8";
    object      rho;
}
// * * * * * * * * * * * * * * * * * * * * * * * * * * * * * * * * * * * * * //

dimensions      [1 -3 0 0 0 0 0];

internalField   nonuniform List<scalar> 
10000
(
1.4
1.40001
1.40001
1.40001
1.4
1.40001
1.40001
1.4
1.40001
1.40001
1.4
1.40001
1.4
1.40001
1.4
1.40001
1.4
1.40001
1.4
1.40001
1.4
1.40001
1.4
1.40001
1.40001
1.4
1.40001
1.40001
1.40001
1.40001
1.40001
1.4
1.4
1.4
1.40001
1.40001
1.40001
1.40001
1.40001
1.40001
1.40001
1.40001
1.40001
1.40001
1.40001
1.40001
1.40001
1.40001
1.4
1.4
1.39999
1.39997
1.39996
1.39995
1.39993
1.39993
1.39993
1.39995
1.39997
1.40001
1.40006
1.40012
1.40019
1.40026
1.40034
1.40041
1.40048
1.40053
1.40058
1.4006
1.40061
1.40059
1.40056
1.40051
1.40045
1.40039
1.40031
1.40024
1.40018
1.40012
1.40007
1.40004
1.40001
1.4
1.39999
1.39998
1.39998
1.39999
1.39999
1.39999
1.4
1.4
1.4
1.4
1.4
1.4
1.4
1.4
1.4
1.4
1.4
1.4
1.40001
1.4
1.40001
1.40001
1.4
1.40001
1.4
1.40001
1.4
1.40001
1.40001
1.40001
1.4
1.40001
1.4
1.40001
1.4
1.40001
1.4
1.40001
1.4
1.40001
1.4
1.4
1.40001
1.4
1.40001
1.4
1.40001
1.4
1.40001
1.4
1.40001
1.40001
1.40001
1.40001
1.40001
1.40001
1.40001
1.40001
1.40001
1.40001
1.40001
1.40001
1.40001
1.40001
1.40001
1.4
1.39998
1.39997
1.39996
1.39994
1.39994
1.39995
1.39997
1.40001
1.40008
1.40016
1.40026
1.40038
1.40051
1.40064
1.40078
1.40091
1.40103
1.40112
1.40119
1.40124
1.40124
1.40121
1.40115
1.40107
1.40095
1.40082
1.40069
1.40055
1.40042
1.4003
1.4002
1.40012
1.40006
1.40002
1.4
1.39998
1.39998
1.39998
1.39998
1.39999
1.39999
1.4
1.4
1.4
1.4
1.4
1.4
1.4
1.4
1.4
1.4
1.4
1.40001
1.40001
1.4
1.40001
1.4
1.40001
1.4
1.40001
1.40001
1.40001
1.40001
1.4
1.40001
1.40001
1.40001
1.4
1.40001
1.4
1.40001
1.40001
1.4
1.40001
1.40001
1.4
1.4
1.40001
1.4
1.4
1.40001
1.4
1.40001
1.4
1.40001
1.4
1.40001
1.40001
1.40001
1.40001
1.40001
1.40001
1.40001
1.40002
1.40002
1.40002
1.40002
1.40002
1.40001
1.4
1.39999
1.39997
1.39996
1.39996
1.39998
1.40002
1.40008
1.40019
1.40033
1.40051
1.40071
1.40095
1.4012
1.40146
1.40172
1.40196
1.40217
1.40235
1.40247
1.40253
1.40253
1.40247
1.40234
1.40216
1.40194
1.40169
1.40143
1.40117
1.40091
1.40068
1.40048
1.40032
1.40019
1.4001
1.40004
1.4
1.39998
1.39997
1.39997
1.39998
1.39998
1.39999
1.39999
1.4
1.4
1.4
1.4
1.4
1.4
1.4
1.4
1.4
1.4
1.40001
1.4
1.40001
1.4
1.40001
1.4
1.40001
1.40001
1.4
1.40001
1.4
1.40001
1.4
1.40001
1.4
1.40001
1.4
1.40001
1.4
1.4
1.40001
1.4
1.40001
1.4
1.40001
1.4
1.4
1.40001
1.4
1.4
1.40001
1.40001
1.40001
1.40001
1.40001
1.40001
1.40001
1.40001
1.40001
1.40002
1.40002
1.40002
1.40003
1.40003
1.40003
1.40002
1.40001
1.4
1.39999
1.39999
1.40002
1.40008
1.40018
1.40034
1.40056
1.40086
1.40121
1.40163
1.40209
1.40258
1.40308
1.40357
1.40402
1.40442
1.40474
1.40496
1.40506
1.40505
1.40491
1.40466
1.4043
1.40387
1.40339
1.40288
1.40236
1.40188
1.40143
1.40104
1.40072
1.40046
1.40027
1.40013
1.40005
1.4
1.39997
1.39997
1.39997
1.39997
1.39998
1.39999
1.39999
1.4
1.4
1.4
1.4
1.4
1.4
1.4
1.4
1.4
1.40001
1.4
1.40001
1.4
1.40001
1.4
1.40001
1.40001
1.4
1.40001
1.4
1.40001
1.4
1.40001
1.4
1.40001
1.4
1.40001
1.4
1.40001
1.4
1.40001
1.4
1.40001
1.40001
1.4
1.40001
1.40001
1.4
1.40001
1.40001
1.40001
1.40001
1.40001
1.40001
1.40001
1.40001
1.40001
1.40002
1.40002
1.40003
1.40003
1.40004
1.40004
1.40004
1.40003
1.40002
1.40002
1.40003
1.40006
1.40014
1.40029
1.40052
1.40084
1.40129
1.40185
1.40252
1.40331
1.40417
1.40508
1.40601
1.40692
1.40776
1.40849
1.40908
1.40948
1.40968
1.40966
1.40941
1.40894
1.40828
1.40748
1.40657
1.4056
1.40463
1.4037
1.40285
1.40211
1.40149
1.401
1.40062
1.40035
1.40017
1.40005
1.39999
1.39997
1.39996
1.39996
1.39997
1.39998
1.39999
1.4
1.4
1.4
1.4
1.4
1.4
1.4
1.4
1.4
1.40001
1.4
1.40001
1.4
1.40001
1.4
1.40001
1.40001
1.40001
1.40001
1.4
1.40001
1.4
1.40001
1.4
1.40001
1.4
1.40001
1.4
1.40001
1.4
1.40001
1.4
1.40001
1.4
1.4
1.40001
1.4
1.40001
1.4
1.40001
1.40001
1.40001
1.40001
1.40001
1.40001
1.40001
1.40002
1.40002
1.40003
1.40004
1.40005
1.40005
1.40006
1.40006
1.40005
1.40005
1.40007
1.40011
1.40021
1.40039
1.40069
1.40113
1.40175
1.40256
1.40357
1.40478
1.40615
1.40766
1.40926
1.41088
1.41246
1.41392
1.41521
1.41623
1.41696
1.41735
1.41736
1.41698
1.41624
1.41517
1.4138
1.4122
1.41048
1.40873
1.40703
1.40546
1.40409
1.40293
1.402
1.40129
1.40077
1.40041
1.40018
1.40005
1.39998
1.39996
1.39995
1.39996
1.39997
1.39998
1.39999
1.4
1.4
1.4
1.4
1.4
1.4
1.4
1.4
1.40001
1.4
1.40001
1.4
1.40001
1.4
1.40001
1.40001
1.40001
1.4
1.40001
1.40001
1.4
1.40001
1.4
1.40001
1.4
1.40001
1.40001
1.4
1.4
1.40001
1.4
1.40001
1.4
1.40001
1.4
1.4
1.40001
1.4
1.40001
1.40001
1.40001
1.40001
1.40001
1.40001
1.40001
1.40002
1.40003
1.40004
1.40005
1.40006
1.40007
1.40008
1.40008
1.40009
1.40011
1.40015
1.40026
1.40047
1.40083
1.40138
1.40218
1.40326
1.40465
1.40636
1.40836
1.41062
1.41309
1.41566
1.41826
1.42077
1.42309
1.42511
1.42673
1.42792
1.42859
1.42871
1.4283
1.42734
1.42584
1.42383
1.42139
1.41865
1.41575
1.41283
1.41007
1.40761
1.40551
1.40381
1.4025
1.40154
1.40087
1.40044
1.40017
1.40003
1.39997
1.39995
1.39995
1.39996
1.39997
1.39998
1.39999
1.4
1.4
1.4
1.4
1.4
1.4
1.4
1.40001
1.4
1.40001
1.40001
1.40001
1.40001
1.40001
1.40001
1.40001
1.4
1.40001
1.40001
1.4
1.40001
1.4
1.40001
1.4
1.4
1.40001
1.4
1.40001
1.4
1.4
1.40001
1.4
1.40001
1.4
1.40001
1.40001
1.4
1.4
1.40001
1.40001
1.40001
1.40001
1.40001
1.40002
1.40003
1.40004
1.40005
1.40007
1.40008
1.4001
1.40011
1.40012
1.40014
1.40019
1.4003
1.40053
1.40092
1.40156
1.40252
1.40387
1.40564
1.40788
1.41057
1.41367
1.41711
1.42078
1.42456
1.4283
1.43185
1.43506
1.43779
1.43998
1.44154
1.44245
1.44277
1.44247
1.44153
1.4399
1.43757
1.43456
1.43088
1.42668
1.42221
1.41776
1.41362
1.40999
1.40699
1.40465
1.40292
1.40171
1.40091
1.40042
1.40014
1.4
1.39995
1.39994
1.39995
1.39996
1.39998
1.39999
1.4
1.4
1.4
1.4
1.4
1.4
1.4
1.40001
1.4
1.40001
1.40001
1.40001
1.40001
1.40001
1.40001
1.40001
1.4
1.40001
1.4
1.40001
1.40001
1.4
1.40001
1.4
1.40001
1.40001
1.4
1.40001
1.4
1.40001
1.4
1.40001
1.4
1.40001
1.40001
1.40001
1.4
1.4
1.40001
1.40001
1.40001
1.40001
1.40002
1.40003
1.40004
1.40005
1.40007
1.40009
1.40011
1.40013
1.40015
1.40018
1.40022
1.40033
1.40055
1.40096
1.40166
1.40273
1.40429
1.40642
1.40917
1.41254
1.41649
1.42092
1.42568
1.43063
1.43555
1.44026
1.44454
1.4482
1.45113
1.45329
1.45468
1.45546
1.45576
1.45563
1.45511
1.4541
1.45245
1.44989
1.44622
1.44143
1.43572
1.42947
1.42318
1.41734
1.41234
1.40833
1.40531
1.40318
1.40176
1.40087
1.40035
1.40009
1.39997
1.39993
1.39994
1.39995
1.39997
1.39998
1.39999
1.4
1.4
1.4
1.4
1.4
1.4
1.4
1.4
1.40001
1.40001
1.40001
1.40001
1.4
1.40001
1.4
1.40001
1.40001
1.4
1.40001
1.4
1.40001
1.4
1.4
1.40001
1.4
1.40001
1.4
1.4
1.4
1.40001
1.40001
1.4
1.40001
1.40001
1.4
1.4
1.40001
1.40001
1.40001
1.40001
1.40001
1.40002
1.40003
1.40005
1.40007
1.40009
1.40012
1.40015
1.40017
1.4002
1.40025
1.40035
1.40056
1.40096
1.40166
1.40279
1.4045
1.4069
1.41009
1.41408
1.41882
1.42417
1.42994
1.43586
1.44171
1.44719
1.45206
1.45606
1.45902
1.46087
1.46168
1.46171
1.46138
1.46092
1.46072
1.46092
1.46141
1.46189
1.46172
1.46031
1.45712
1.45192
1.44493
1.43682
1.42852
1.42083
1.41435
1.40931
1.40568
1.40322
1.40167
1.40075
1.40026
1.40002
1.39994
1.39992
1.39994
1.39996
1.39997
1.39999
1.4
1.4
1.4
1.4
1.4
1.4
1.4
1.4
1.40001
1.4
1.40001
1.4
1.40001
1.40001
1.4
1.40001
1.4
1.40001
1.4
1.4
1.40001
1.4
1.40001
1.4
1.4
1.40001
1.39999
1.40001
1.4
1.40001
1.4
1.4
1.40001
1.4
1.40001
1.40001
1.40001
1.40001
1.40001
1.40002
1.40002
1.40003
1.40005
1.40007
1.40009
1.40013
1.40016
1.40019
1.40023
1.40028
1.40036
1.40055
1.40091
1.40158
1.40271
1.40447
1.40705
1.41057
1.41507
1.4205
1.42666
1.43325
1.43993
1.44632
1.45207
1.45687
1.4604
1.46242
1.46283
1.46168
1.45933
1.45638
1.45343
1.45111
1.45013
1.45067
1.45294
1.45661
1.46091
1.46478
1.46675
1.46567
1.46105
1.45328
1.44348
1.43312
1.42357
1.41569
1.40976
1.40566
1.40302
1.40144
1.40057
1.40014
1.39996
1.39991
1.39992
1.39994
1.39996
1.39998
1.39999
1.4
1.4
1.4
1.4
1.4
1.4
1.40001
1.4
1.4
1.40001
1.4
1.40001
1.4
1.40001
1.4
1.40001
1.4
1.40001
1.4
1.40001
1.4
1.40001
1.4
1.40001
1.40001
1.39999
1.40002
1.40001
1.39999
1.40002
1.4
1.40001
1.40001
1.39999
1.40001
1.4
1.40001
1.40001
1.40002
1.40003
1.40004
1.40006
1.40009
1.40013
1.40016
1.40021
1.40025
1.4003
1.40038
1.40053
1.40085
1.40145
1.40252
1.40426
1.40689
1.41059
1.41547
1.42144
1.42826
1.43554
1.44274
1.44936
1.45493
1.45906
1.46142
1.46173
1.4598
1.45571
1.44978
1.44275
1.43549
1.42882
1.42379
1.42095
1.42075
1.42385
1.4301
1.4393
1.45015
1.46055
1.46819
1.47098
1.46804
1.45995
1.4486
1.43634
1.42512
1.4161
1.40957
1.40524
1.40261
1.40112
1.40037
1.40004
1.39992
1.3999
1.39993
1.39995
1.39997
1.39999
1.4
1.4
1.4
1.4
1.4
1.4
1.40001
1.4
1.40001
1.40001
1.4
1.40001
1.40001
1.4
1.40001
1.4
1.40001
1.40001
1.4
1.40001
1.4
1.40001
1.4
1.40002
1.39999
1.40001
1.40001
1.40001
1.39998
1.40003
1.4
1.39999
1.40003
1.4
1.40001
1.40001
1.40001
1.40001
1.40003
1.40004
1.40006
1.40008
1.40012
1.40016
1.40022
1.40026
1.40032
1.40039
1.40052
1.40078
1.4013
1.40226
1.40389
1.40645
1.41019
1.41527
1.42163
1.429
1.43682
1.44442
1.45108
1.45619
1.45931
1.46012
1.45837
1.45387
1.44665
1.43701
1.42573
1.41384
1.4024
1.39245
1.38487
1.37981
1.37808
1.37998
1.38613
1.39733
1.41309
1.43196
1.45077
1.46563
1.47331
1.47249
1.46432
1.45158
1.43762
1.42514
1.41546
1.40874
1.4045
1.40205
1.40077
1.40018
1.39995
1.3999
1.39991
1.39994
1.39996
1.39998
1.39999
1.4
1.4
1.4
1.4
1.40001
1.4
1.4
1.40001
1.4
1.4
1.40001
1.4
1.40001
1.40001
1.4
1.40001
1.4
1.40001
1.4
1.40001
1.4
1.40001
1.40001
1.39998
1.40003
1.39999
1.40001
1.40001
1.4
1.40003
1.39997
1.4
1.40002
1.39999
1.40002
1.40001
1.40002
1.40004
1.40005
1.40007
1.40011
1.40016
1.40021
1.40027
1.40033
1.4004
1.40051
1.40072
1.40115
1.40197
1.40343
1.40582
1.40945
1.41455
1.42114
1.4289
1.43721
1.44518
1.45185
1.45647
1.45851
1.45774
1.45402
1.44729
1.43748
1.42498
1.41041
1.39509
1.38014
1.3668
1.35584
1.34749
1.34178
1.33888
1.33826
1.34124
1.34913
1.36364
1.38537
1.41207
1.43928
1.46128
1.47366
1.47471
1.46608
1.45194
1.43674
1.42361
1.41385
1.40739
1.40354
1.40145
1.40044
1.40003
1.3999
1.39989
1.39992
1.39995
1.39997
1.39999
1.4
1.4
1.4
1.4
1.40001
1.4
1.40001
1.40001
1.4
1.40001
1.40001
1.4
1.40001
1.4
1.40001
1.40001
1.4
1.40001
1.4
1.40001
1.39999
1.40003
1.39999
1.4
1.40004
1.39999
1.39998
1.40007
1.39994
1.40005
1.40001
1.39998
1.40004
1.40001
1.39999
1.40002
1.40003
1.40004
1.40007
1.4001
1.40015
1.40021
1.40027
1.40034
1.40041
1.4005
1.40067
1.40101
1.40169
1.40294
1.40508
1.40846
1.4134
1.42001
1.42805
1.4368
1.44516
1.452
1.45627
1.45742
1.45528
1.44996
1.44157
1.43016
1.41596
1.39961
1.38243
1.36594
1.35145
1.33977
1.33103
1.32482
1.32107
1.31857
1.31669
1.31573
1.31664
1.3231
1.3383
1.3636
1.39635
1.43034
1.45808
1.47343
1.47481
1.4651
1.44966
1.43379
1.42074
1.41154
1.40577
1.40253
1.40089
1.40018
1.39993
1.39988
1.3999
1.39994
1.39997
1.39998
1.39999
1.4
1.4
1.4
1.4
1.4
1.40001
1.4
1.4
1.40001
1.4
1.4
1.40001
1.4
1.40001
1.4
1.40001
1.4
1.40002
1.39998
1.40002
1.40002
1.39996
1.40006
1.39997
1.40002
1.39998
1.40006
1.39998
1.39997
1.40006
1.39995
1.40001
1.40005
1.4
1.40001
1.40005
1.40005
1.40009
1.40014
1.40019
1.40026
1.40034
1.40041
1.4005
1.40064
1.4009
1.40144
1.40247
1.40431
1.40734
1.41196
1.4184
1.42652
1.43562
1.44451
1.45169
1.45595
1.45657
1.45341
1.44688
1.43739
1.42523
1.41046
1.39369
1.37587
1.35917
1.34494
1.33468
1.32785
1.32394
1.32169
1.32088
1.32014
1.31951
1.3169
1.31255
1.30921
1.31175
1.32552
1.3524
1.38919
1.42738
1.45747
1.47311
1.47304
1.46144
1.44495
1.42918
1.417
1.4089
1.40412
1.40161
1.40045
1.4
1.39988
1.39988
1.39992
1.39996
1.39998
1.39999
1.4
1.4
1.4
1.4
1.4
1.40001
1.4
1.4
1.40001
1.4
1.40001
1.4
1.4
1.40001
1.4
1.40001
1.40002
1.39999
1.4
1.40004
1.39997
1.39999
1.40008
1.39994
1.40001
1.40006
1.39991
1.40011
1.39992
1.40004
1.40005
1.39992
1.40004
1.40003
1.40001
1.40005
1.40009
1.40012
1.40018
1.40026
1.40033
1.40041
1.4005
1.40062
1.40082
1.40123
1.40205
1.40357
1.4062
1.41036
1.41642
1.42441
1.43377
1.44318
1.45099
1.45562
1.45613
1.45247
1.44508
1.43485
1.4224
1.40795
1.39157
1.37412
1.35749
1.34392
1.33502
1.33101
1.33055
1.33159
1.33263
1.33278
1.33284
1.33308
1.33154
1.32734
1.31978
1.31235
1.31166
1.32456
1.35288
1.3914
1.43063
1.45989
1.47257
1.46909
1.45528
1.43839
1.4236
1.41295
1.40632
1.40266
1.40088
1.40014
1.3999
1.39987
1.3999
1.39994
1.39997
1.39999
1.39999
1.4
1.4
1.4
1.4
1.40001
1.4
1.40001
1.4
1.4
1.40001
1.4
1.40002
1.4
1.40001
1.40001
1.40001
1.39996
1.40007
1.39997
1.39996
1.40007
1.39997
1.40001
1.39996
1.40013
1.39988
1.40005
1.40006
1.39988
1.40013
1.40001
1.39996
1.40007
1.40007
1.40002
1.40012
1.40017
1.40024
1.40032
1.40041
1.4005
1.4006
1.40076
1.40107
1.40169
1.40291
1.40511
1.40873
1.41424
1.42188
1.43126
1.44118
1.44981
1.4552
1.45616
1.45241
1.44464
1.43392
1.4213
1.40735
1.392
1.37556
1.35909
1.34576
1.33734
1.33528
1.33719
1.34153
1.34479
1.34624
1.34434
1.34211
1.3399
1.33966
1.33889
1.33431
1.32557
1.31729
1.31727
1.33183
1.36219
1.40184
1.43908
1.46358
1.47065
1.46278
1.44713
1.43078
1.41778
1.40912
1.40409
1.40152
1.40037
1.39996
1.39987
1.39989
1.39993
1.39996
1.39998
1.39999
1.4
1.4
1.4
1.4
1.40001
1.4
1.40001
1.4
1.40001
1.4
1.40001
1.40001
1.4
1.40001
1.40002
1.39997
1.40003
1.40003
1.39993
1.40005
1.40007
1.39989
1.40007
1.4
1.39994
1.40011
1.39986
1.40014
1.39998
1.39991
1.40013
1.39996
1.40001
1.40012
1.4001
1.40012
1.40021
1.40029
1.40038
1.40049
1.4006
1.40073
1.40096
1.40142
1.40236
1.40413
1.40718
1.41203
1.41907
1.42823
1.4385
1.44799
1.45455
1.45643
1.45313
1.4454
1.43442
1.42165
1.40802
1.39383
1.37867
1.36308
1.34914
1.34031
1.3384
1.34219
1.34778
1.3517
1.35249
1.34958
1.34402
1.33725
1.33234
1.3325
1.33512
1.33645
1.3331
1.32564
1.31973
1.32409
1.3445
1.37848
1.41717
1.44937
1.46633
1.46626
1.4542
1.43784
1.42308
1.41243
1.40588
1.40236
1.40072
1.40007
1.39988
1.39987
1.39991
1.39995
1.39998
1.39999
1.4
1.4
1.4
1.40001
1.4
1.40001
1.4
1.40001
1.40001
1.4
1.40002
1.39999
1.40001
1.40002
1.4
1.39996
1.4001
1.3999
1.40006
1.40004
1.39995
1.40002
1.39998
1.40016
1.3998
1.40016
1.39996
1.39989
1.40018
1.3999
1.40001
1.40012
1.4
1.40001
1.40019
1.40018
1.40026
1.40036
1.40047
1.40058
1.40071
1.40089
1.40123
1.40193
1.4033
1.40579
1.4099
1.41618
1.42482
1.43518
1.44548
1.45336
1.45666
1.45444
1.44708
1.4362
1.42328
1.4097
1.3962
1.38258
1.36834
1.35419
1.34388
1.3402
1.34439
1.3511
1.35566
1.35274
1.34441
1.33174
1.31983
1.30914
1.30567
1.30885
1.31803
1.32778
1.3321
1.32845
1.3217
1.32084
1.33363
1.36128
1.39826
1.43402
1.45826
1.46588
1.45886
1.44403
1.42842
1.4161
1.40801
1.40343
1.40118
1.40024
1.39992
1.39987
1.3999
1.39994
1.39997
1.39998
1.4
1.4
1.4
1.40001
1.4
1.40001
1.4
1.40001
1.39999
1.40002
1.4
1.4
1.40001
1.40003
1.39994
1.40009
1.39996
1.39998
1.40007
1.39997
1.39993
1.40013
1.3999
1.40002
1.40006
1.3999
1.40016
1.39997
1.39998
1.40009
1.39992
1.40012
1.40012
1.40004
1.40017
1.40029
1.40032
1.40043
1.40056
1.40069
1.40084
1.40108
1.4016
1.40264
1.4046
1.40798
1.41338
1.42123
1.43131
1.44221
1.45143
1.45651
1.45587
1.44955
1.43897
1.42603
1.41239
1.39897
1.38641
1.3738
1.36072
1.3487
1.34237
1.34396
1.35125
1.35672
1.3532
1.33788
1.31307
1.28589
1.2619
1.24799
1.24727
1.26033
1.28447
1.31011
1.32713
1.33135
1.32542
1.31972
1.32522
1.3472
1.38195
1.4193
1.4486
1.46277
1.46113
1.44891
1.43339
1.41986
1.41038
1.4047
1.40176
1.40046
1.39999
1.39988
1.39989
1.39993
1.39997
1.39998
1.4
1.4
1.40001
1.4
1.40001
1.4
1.40001
1.4
1.4
1.40002
1.39998
1.40002
1.40002
1.39997
1.40001
1.40008
1.39986
1.40016
1.39989
1.40003
1.40008
1.39992
1.40012
1.39983
1.40017
1.39988
1.39999
1.40009
1.39992
1.40009
1.40005
1.39998
1.4001
1.40017
1.40014
1.40033
1.40046
1.40054
1.40065
1.40079
1.401
1.40136
1.40212
1.40361
1.40632
1.4108
1.41767
1.42709
1.43817
1.44861
1.45562
1.45701
1.45238
1.44256
1.42978
1.41595
1.4024
1.38994
1.37876
1.36743
1.35531
1.34599
1.34357
1.3492
1.35514
1.35328
1.33487
1.30098
1.25502
1.20842
1.16903
1.14826
1.14886
1.1755
1.2199
1.26985
1.31118
1.33328
1.33437
1.32565
1.32239
1.33654
1.36728
1.40507
1.43823
1.45794
1.46145
1.45241
1.43772
1.4235
1.41283
1.40612
1.40247
1.40075
1.40008
1.3999
1.39988
1.39993
1.39995
1.39998
1.39999
1.4
1.40001
1.4
1.40001
1.4
1.40001
1.4
1.40002
1.39999
1.40001
1.40002
1.39999
1.39997
1.40012
1.39985
1.40011
1.39998
1.39995
1.4001
1.40001
1.39984
1.40016
1.40004
1.39992
1.40004
1.4001
1.39992
1.4
1.40003
1.40012
1.39998
1.40008
1.40027
1.40023
1.40027
1.40051
1.40067
1.40078
1.40092
1.4012
1.40174
1.40285
1.40493
1.40855
1.41435
1.42278
1.43354
1.44484
1.45371
1.45751
1.455
1.44672
1.43441
1.42037
1.4066
1.39368
1.38277
1.37318
1.36301
1.35175
1.34505
1.34642
1.35288
1.35301
1.33653
1.29818
1.23977
1.17047
1.10119
1.04675
1.01629
1.01975
1.05756
1.12185
1.1989
1.27073
1.31913
1.3394
1.3365
1.32839
1.33294
1.35629
1.39207
1.42755
1.45185
1.46018
1.45457
1.4413
1.42688
1.41527
1.40761
1.40325
1.40111
1.40022
1.39992
1.39989
1.39991
1.39995
1.39997
1.39998
1.4
1.4
1.4
1.40001
1.4
1.40001
1.40001
1.4
1.4
1.40003
1.39998
1.39999
1.40008
1.39995
1.39995
1.40018
1.39974
1.40026
1.39995
1.39979
1.40024
1.39994
1.39998
1.39993
1.4001
1.39996
1.40009
1.40003
1.39999
1.40008
1.40013
1.4001
1.40024
1.40046
1.40044
1.40051
1.40071
1.40089
1.4011
1.40147
1.40226
1.40384
1.40667
1.41139
1.41862
1.42858
1.44015
1.45065
1.45696
1.457
1.45086
1.43971
1.42577
1.41142
1.3982
1.38646
1.3773
1.36959
1.35983
1.34961
1.34507
1.3494
1.35259
1.34194
1.30544
1.24338
1.15937
1.06614
0.975939
0.906185
0.869347
0.877293
0.926793
1.01099
1.11259
1.20963
1.28511
1.32909
1.34111
1.33714
1.33581
1.35116
1.38228
1.41771
1.44518
1.45772
1.45551
1.44401
1.42983
1.41762
1.40911
1.40407
1.40151
1.40037
1.39998
1.39989
1.3999
1.39995
1.39996
1.39999
1.4
1.4
1.40001
1.4
1.4
1.40001
1.40001
1.4
1.40002
1.4
1.39999
1.40004
1.40001
1.3999
1.4002
1.3998
1.4001
1.40011
1.39976
1.40004
1.40028
1.39986
1.39983
1.4001
1.40029
1.39964
1.40007
1.40016
1.39996
1.39997
1.40022
1.40024
1.40014
1.40038
1.40065
1.40068
1.40078
1.40097
1.40128
1.40186
1.40298
1.40514
1.40888
1.41487
1.42358
1.43479
1.44636
1.45505
1.45804
1.45444
1.44515
1.43209
1.41718
1.40327
1.39085
1.38065
1.37352
1.36739
1.35754
1.34814
1.34599
1.35038
1.34686
1.3202
1.26183
1.17456
1.06895
0.956377
0.851404
0.768645
0.728389
0.739808
0.80354
0.907377
1.03042
1.14893
1.24694
1.30851
1.33599
1.33995
1.33925
1.35029
1.37651
1.41001
1.43888
1.45461
1.45552
1.44592
1.43229
1.41975
1.41058
1.40493
1.40193
1.40055
1.40004
1.3999
1.3999
1.39994
1.39996
1.39999
1.39999
1.40001
1.4
1.4
1.40001
1.4
1.4
1.40001
1.40001
1.39999
1.40002
1.40003
1.39992
1.4001
1.4
1.39986
1.40036
1.39961
1.40002
1.40043
1.39974
1.39976
1.40027
1.40012
1.39981
1.40017
1.39987
1.4001
1.40012
1.40007
1.40005
1.40031
1.40039
1.40033
1.40055
1.40081
1.40095
1.40116
1.40153
1.40237
1.40396
1.40682
1.41159
1.41893
1.42906
1.44099
1.45163
1.45766
1.4571
1.45026
1.43861
1.42425
1.40915
1.39597
1.38467
1.37599
1.37145
1.36583
1.35574
1.34708
1.34739
1.3479
1.33387
1.28882
1.20956
1.10063
0.979116
0.856541
0.744693
0.656647
0.612983
0.626097
0.699139
0.817502
0.958232
1.09846
1.21398
1.29076
1.32919
1.33888
1.34054
1.34997
1.37308
1.40458
1.43365
1.45138
1.45485
1.44712
1.43425
1.42159
1.41194
1.40578
1.40237
1.40076
1.40011
1.39992
1.39991
1.39993
1.39996
1.39997
1.39999
1.4
1.4
1.40001
1.4
1.4
1.40001
1.40001
1.4
1.4
1.40004
1.39996
1.40002
1.40007
1.39988
1.40019
1.39982
1.39994
1.40035
1.39995
1.3996
1.40013
1.40036
1.39997
1.39944
1.40046
1.40009
1.39983
1.4001
1.40026
1.40017
1.40016
1.40049
1.40061
1.4006
1.4008
1.40104
1.40136
1.40191
1.40305
1.40519
1.40888
1.4148
1.42352
1.43479
1.44668
1.45553
1.4584
1.45456
1.44498
1.43175
1.41656
1.40181
1.38964
1.37937
1.37262
1.37047
1.36467
1.35374
1.34723
1.3478
1.34134
1.31234
1.25102
1.15422
1.03147
0.900823
0.77751
0.667146
0.581079
0.534866
0.546896
0.621095
0.745695
0.897806
1.05307
1.18321
1.27613
1.32449
1.34009
1.34228
1.34949
1.37033
1.40054
1.42963
1.44855
1.4538
1.44768
1.43568
1.42312
1.41315
1.40656
1.40282
1.40098
1.40019
1.39995
1.3999
1.39992
1.39995
1.39998
1.4
1.39999
1.40001
1.4
1.4
1.40001
1.4
1.40001
1.4
1.40001
1.40001
1.39995
1.4001
1.39996
1.39996
1.40009
1.39981
1.40035
1.39996
1.39952
1.40021
1.40053
1.39964
1.39969
1.4004
1.3999
1.40011
1.39999
1.40006
1.40006
1.40032
1.4003
1.40032
1.40063
1.40084
1.40093
1.40111
1.40153
1.40238
1.40396
1.4067
1.41132
1.41848
1.42845
1.4404
1.45144
1.45784
1.45754
1.45083
1.43917
1.42484
1.40935
1.39524
1.3843
1.37468
1.37055
1.37006
1.36329
1.35181
1.34854
1.34659
1.329
1.28377
1.21023
1.10354
0.97417
0.841248
0.722811
0.621734
0.542492
0.496844
0.504995
0.575149
0.698215
0.854273
1.01519
1.15737
1.26069
1.31803
1.34018
1.34455
1.35071
1.36912
1.39761
1.42641
1.44615
1.45271
1.44784
1.43663
1.42433
1.41418
1.40728
1.40325
1.40118
1.40029
1.39998
1.39991
1.39993
1.39995
1.39998
1.39999
1.4
1.4
1.4
1.40001
1.4
1.40001
1.4
1.4
1.40003
1.39995
1.40007
1.4
1.39992
1.40005
1.40002
1.40012
1.39987
1.39981
1.40014
1.40036
1.39983
1.39962
1.40009
1.40061
1.39964
1.39987
1.40023
1.40016
1.40009
1.40017
1.40046
1.40049
1.40058
1.40082
1.40102
1.40133
1.40191
1.403
1.40505
1.4085
1.41413
1.4225
1.43345
1.44547
1.45498
1.45864
1.45547
1.44637
1.43319
1.41817
1.40264
1.38966
1.3796
1.37083
1.36932
1.3699
1.36111
1.35113
1.34987
1.34296
1.31018
1.25175
1.17034
1.06269
0.932603
0.802601
0.690901
0.602666
0.534217
0.494746
0.500828
0.564532
0.680608
0.832336
0.993912
1.1419
1.24939
1.31151
1.33693
1.34472
1.35236
1.36957
1.39616
1.42403
1.44406
1.45162
1.44776
1.43723
1.4252
1.41501
1.4079
1.40363
1.4014
1.40039
1.40001
1.39992
1.39993
1.39995
1.39997
1.39999
1.4
1.4
1.40001
1.4
1.40001
1.4
1.4
1.40001
1.4
1.4
1.40006
1.39992
1.4
1.40019
1.39987
1.39993
1.4
1.4001
1.40022
1.39983
1.39957
1.4004
1.40039
1.39952
1.4
1.40014
1.40012
1.40005
1.40029
1.40021
1.40033
1.40063
1.40074
1.4008
1.40106
1.40155
1.40237
1.40376
1.40631
1.41056
1.41721
1.42666
1.43821
1.44973
1.45722
1.45819
1.45258
1.44161
1.42728
1.41191
1.39655
1.38506
1.37539
1.36789
1.36875
1.36885
1.35888
1.35201
1.35083
1.33419
1.28701
1.21985
1.13683
1.03147
0.905241
0.780828
0.678189
0.602149
0.547016
0.517636
0.526534
0.584937
0.692951
0.834892
0.991862
1.1362
1.24521
1.30966
1.33606
1.34419
1.35246
1.36994
1.39584
1.42286
1.44261
1.45054
1.44741
1.4375
1.42577
1.41563
1.4084
1.40396
1.40159
1.40049
1.40006
1.39994
1.39992
1.39995
1.39997
1.39999
1.39999
1.4
1.4
1.4
1.40001
1.4
1.4
1.40001
1.39998
1.40006
1.39993
1.40002
1.40011
1.39993
1.39987
1.40012
1.40019
1.39986
1.39989
1.39994
1.40021
1.40021
1.39977
1.39966
1.40037
1.40021
1.39996
1.40004
1.40018
1.40037
1.40038
1.40052
1.40071
1.40094
1.40126
1.4018
1.40282
1.40463
1.40777
1.4128
1.42038
1.43069
1.44249
1.45299
1.4583
1.45681
1.4493
1.4368
1.42175
1.40602
1.3913
1.3812
1.37174
1.36588
1.36839
1.36628
1.35761
1.35432
1.34983
1.31987
1.26239
1.19175
1.1112
1.0082
0.887131
0.769051
0.676413
0.611715
0.57095
0.553026
0.567547
0.624846
0.727039
0.860546
1.00745
1.14208
1.24706
1.3106
1.33766
1.34532
1.3529
1.37035
1.39607
1.42251
1.44179
1.44967
1.44688
1.43745
1.42606
1.41603
1.40877
1.40424
1.40176
1.40058
1.4001
1.39995
1.39993
1.39995
1.39997
1.39998
1.4
1.4
1.4
1.40001
1.4
1.40001
1.4
1.4
1.40002
1.39999
1.39999
1.40006
1.39999
1.39985
1.4002
1.40009
1.39974
1.40003
1.4001
1.40004
1.40016
1.39967
1.39984
1.40048
1.40012
1.39975
1.40001
1.40027
1.40018
1.40031
1.40047
1.40051
1.40069
1.40103
1.40143
1.40209
1.4034
1.40569
1.40937
1.41509
1.42347
1.4344
1.44612
1.45523
1.45848
1.45479
1.44598
1.43217
1.41677
1.40053
1.38695
1.37793
1.36864
1.36519
1.367
1.36275
1.35791
1.35737
1.34441
1.3027
1.24
1.17039
1.09016
0.989272
0.873499
0.76385
0.679687
0.625687
0.597401
0.591361
0.613372
0.674752
0.774857
0.903318
1.03923
1.16311
1.2571
1.31321
1.33803
1.3466
1.35478
1.37184
1.39691
1.42262
1.44132
1.44898
1.44629
1.43715
1.42607
1.41623
1.40901
1.40445
1.4019
1.40066
1.40014
1.39997
1.39994
1.39995
1.39997
1.39998
1.4
1.4
1.40001
1.4
1.40001
1.4
1.40001
1.4
1.40002
1.39997
1.40006
1.39997
1.39996
1.40009
1.40005
1.39984
1.39999
1.40022
1.39995
1.39994
1.39991
1.39997
1.40032
1.40007
1.39967
1.4
1.40026
1.4002
1.40018
1.40022
1.40039
1.4006
1.40083
1.4011
1.40156
1.40245
1.40406
1.40677
1.41097
1.41732
1.42634
1.43759
1.449
1.45665
1.45799
1.45256
1.44272
1.42805
1.41238
1.39545
1.38362
1.37484
1.3665
1.36557
1.36403
1.35925
1.35976
1.35839
1.3352
1.28627
1.22368
1.15465
1.07172
0.971819
0.862638
0.762944
0.687875
0.644353
0.626806
0.631189
0.662375
0.729537
0.830523
0.954205
1.08125
1.19368
1.27475
1.32055
1.33949
1.34701
1.35639
1.374
1.39862
1.42347
1.44126
1.44837
1.44558
1.43664
1.42585
1.41623
1.40913
1.40459
1.40202
1.40074
1.40018
1.39999
1.39994
1.39995
1.39997
1.39999
1.39999
1.4
1.4
1.40001
1.40001
1.4
1.40001
1.40001
1.39999
1.40002
1.4
1.39999
1.40002
1.40005
1.39991
1.40001
1.40016
1.39991
1.39991
1.40009
1.39993
1.40025
1.39996
1.39972
1.39999
1.40041
1.40011
1.39993
1.40011
1.40032
1.40046
1.40059
1.40076
1.40115
1.40183
1.40288
1.40468
1.40777
1.41252
1.41937
1.42876
1.44013
1.45108
1.45753
1.45702
1.45048
1.43951
1.42483
1.40837
1.39115
1.38102
1.37161
1.36605
1.36573
1.36029
1.35721
1.36108
1.35502
1.32495
1.27468
1.21396
1.14186
1.05563
0.957598
0.857123
0.767455
0.702942
0.669453
0.662038
0.675461
0.715643
0.787132
0.888303
1.00604
1.12392
1.22323
1.29262
1.33007
1.34358
1.34833
1.35773
1.3764
1.40112
1.42507
1.4417
1.44792
1.44478
1.43594
1.42542
1.41606
1.40913
1.40465
1.4021
1.4008
1.40022
1.4
1.39995
1.39996
1.39997
1.39998
1.4
1.4
1.4
1.40001
1.4
1.40001
1.4
1.40001
1.4
1.40002
1.39998
1.40003
1.4
1.39999
1.40001
1.40004
1.4
1.39992
1.40007
1.39999
1.40008
1.39999
1.39976
1.4001
1.40034
1.39992
1.39985
1.4001
1.40027
1.40033
1.4004
1.4005
1.40074
1.40127
1.40209
1.40324
1.40524
1.40871
1.41393
1.42115
1.43064
1.44197
1.45244
1.458
1.45591
1.4486
1.43659
1.42255
1.40467
1.38828
1.37809
1.36897
1.36684
1.36478
1.35764
1.35684
1.35908
1.34802
1.31655
1.26907
1.20786
1.13168
1.04382
0.950669
0.859876
0.781386
0.72802
0.704007
0.703909
0.724402
0.770489
0.845542
0.945723
1.0581
1.16481
1.25021
1.30727
1.33643
1.34645
1.35059
1.36026
1.37943
1.40412
1.42711
1.44242
1.44757
1.44392
1.43506
1.42479
1.41573
1.40901
1.40465
1.40214
1.40084
1.40025
1.40002
1.39996
1.39996
1.39997
1.39998
1.4
1.39999
1.40001
1.4
1.40001
1.4
1.40001
1.4
1.40001
1.4
1.40001
1.4
1.40001
1.4
1.40001
1.40002
1.39998
1.4
1.40005
1.39999
1.40006
1.3998
1.40016
1.40014
1.39995
1.39981
1.4001
1.40024
1.40021
1.40014
1.40024
1.40057
1.4009
1.40135
1.40221
1.40359
1.40578
1.40946
1.41505
1.42258
1.43197
1.44311
1.45318
1.45818
1.45505
1.44681
1.43441
1.42065
1.40202
1.38654
1.3746
1.3676
1.36714
1.36349
1.35749
1.35616
1.35367
1.34014
1.31112
1.26595
1.20316
1.1254
1.03959
0.953475
0.87279
0.806621
0.764683
0.748827
0.752642
0.776349
0.825381
0.903306
1.00291
1.10945
1.20474
1.27727
1.32173
1.34149
1.34746
1.35204
1.3634
1.38331
1.40765
1.42947
1.44327
1.4472
1.44292
1.43399
1.42397
1.41524
1.40878
1.40459
1.40215
1.40087
1.40028
1.40005
1.39997
1.39997
1.39998
1.39999
1.39999
1.4
1.4
1.4
1.40001
1.4
1.40001
1.40001
1.4
1.40001
1.40001
1.4
1.40002
1.39999
1.40001
1.40002
1.39996
1.40005
1.40001
1.4
1.39991
1.40007
1.40012
1.39992
1.39984
1.40016
1.40015
1.40003
1.40003
1.40012
1.40033
1.40064
1.40084
1.40125
1.4023
1.40396
1.40622
1.40992
1.41579
1.42358
1.43282
1.44358
1.45338
1.45813
1.4546
1.44529
1.43295
1.4189
1.40096
1.38515
1.3718
1.36659
1.36612
1.36338
1.35868
1.3542
1.34775
1.33354
1.30622
1.26178
1.19978
1.12447
1.04391
0.965689
0.895965
0.842509
0.811588
0.800769
0.805303
0.829255
0.881339
0.96198
1.05993
1.15724
1.24021
1.30048
1.33457
1.34708
1.34935
1.35358
1.36653
1.38768
1.41174
1.43216
1.44425
1.4468
1.4418
1.43276
1.42298
1.41461
1.40846
1.40446
1.40212
1.40089
1.4003
1.40006
1.39998
1.39998
1.39998
1.39999
1.4
1.4
1.4
1.40001
1.4
1.40001
1.40001
1.4
1.40001
1.4
1.4
1.40002
1.39999
1.40001
1.40002
1.39998
1.40001
1.40005
1.39995
1.4
1.40002
1.4001
1.39987
1.39999
1.40008
1.40006
1.39998
1.39997
1.40009
1.40021
1.40028
1.40047
1.40078
1.40127
1.40235
1.40413
1.40648
1.41015
1.41614
1.4241
1.43321
1.4435
1.45307
1.45792
1.45452
1.44437
1.43194
1.41758
1.40103
1.38436
1.37034
1.3649
1.36467
1.36383
1.35933
1.35271
1.34377
1.32789
1.2998
1.25651
1.19804
1.12818
1.05451
0.985231
0.927273
0.886484
0.864056
0.854329
0.857166
0.882895
0.940323
1.02386
1.11638
1.20134
1.26994
1.31714
1.34216
1.35012
1.35132
1.35638
1.37066
1.39259
1.41619
1.43506
1.44528
1.44633
1.44054
1.43136
1.42185
1.41387
1.40805
1.40428
1.40207
1.40089
1.40032
1.40008
1.4
1.39998
1.39999
1.39999
1.4
1.4
1.4
1.4
1.40001
1.4
1.4
1.40001
1.40001
1.4
1.40001
1.4
1.4
1.40002
1.39999
1.4
1.40004
1.39997
1.40001
1.40002
1.40003
1.39995
1.40001
1.40002
1.40003
1.39997
1.39999
1.40001
1.40009
1.40015
1.40013
1.40036
1.40082
1.40131
1.40222
1.40406
1.4066
1.4102
1.41608
1.42406
1.43316
1.44305
1.45232
1.45751
1.45465
1.44427
1.43135
1.41678
1.40159
1.38466
1.36998
1.3632
1.36313
1.36311
1.35959
1.35282
1.34171
1.32279
1.29323
1.25164
1.19778
1.13434
1.0685
1.00945
0.96402
0.934324
0.915611
0.903539
0.90644
0.938855
1.00364
1.08714
1.17003
1.24125
1.29551
1.33014
1.34628
1.35038
1.35208
1.35956
1.37585
1.39829
1.42095
1.43797
1.44615
1.44565
1.43908
1.42981
1.4206
1.41303
1.40758
1.40406
1.40199
1.40088
1.40033
1.4001
1.40001
1.39999
1.39999
1.39999
1.4
1.4
1.4
1.4
1.4
1.40001
1.4
1.40001
1.4
1.40001
1.40001
1.4
1.40001
1.4
1.4
1.40002
1.4
1.39999
1.40003
1.4
1.40001
1.39999
1.40003
1.4
1.39998
1.4