/*--------------------------------*- C++ -*----------------------------------*\
  =========                 |
  \\      /  F ield         | OpenFOAM: The Open Source CFD Toolbox
   \\    /   O peration     | Website:  https://openfoam.org
    \\  /    A nd           | Version:  6
     \\/     M anipulation  |
\*---------------------------------------------------------------------------*/
FoamFile
{
    version     2.0;
    format      ascii;
    class       volVectorField;
    location    "4.29";
    object      U;
}
// * * * * * * * * * * * * * * * * * * * * * * * * * * * * * * * * * * * * * //

dimensions      [0 1 -1 0 0 0 0];

internalField   nonuniform List<vector> 
5625
(
(0.894415 0.4472 0)
(0.894418 0.4472 0)
(0.894419 0.447201 0)
(0.894418 0.447205 0)
(0.894414 0.447212 0)
(0.894408 0.447224 0)
(0.894397 0.447242 0)
(0.894382 0.447269 0)
(0.894362 0.447307 0)
(0.894338 0.447358 0)
(0.894308 0.447423 0)
(0.894273 0.447503 0)
(0.894234 0.447601 0)
(0.894193 0.447717 0)
(0.894151 0.447851 0)
(0.89411 0.448002 0)
(0.894071 0.448167 0)
(0.894036 0.448345 0)
(0.894009 0.448531 0)
(0.893989 0.448723 0)
(0.89398 0.448915 0)
(0.893981 0.449104 0)
(0.893995 0.449282 0)
(0.89402 0.449446 0)
(0.894056 0.44959 0)
(0.894102 0.449712 0)
(0.894158 0.449807 0)
(0.89422 0.449872 0)
(0.894286 0.449905 0)
(0.894355 0.449907 0)
(0.894425 0.449876 0)
(0.894492 0.449814 0)
(0.894553 0.449724 0)
(0.894608 0.449608 0)
(0.894656 0.449471 0)
(0.894694 0.449317 0)
(0.894723 0.449149 0)
(0.894741 0.448973 0)
(0.89475 0.448795 0)
(0.894751 0.448617 0)
(0.894743 0.448444 0)
(0.89473 0.44828 0)
(0.894711 0.448126 0)
(0.894689 0.447985 0)
(0.894664 0.447857 0)
(0.894638 0.447744 0)
(0.894611 0.447645 0)
(0.894585 0.447559 0)
(0.894561 0.447487 0)
(0.894538 0.447426 0)
(0.894517 0.447376 0)
(0.894498 0.447335 0)
(0.894481 0.447301 0)
(0.894466 0.447275 0)
(0.894453 0.447254 0)
(0.894442 0.447238 0)
(0.894432 0.447225 0)
(0.894425 0.447216 0)
(0.894418 0.44721 0)
(0.894413 0.447205 0)
(0.894409 0.447202 0)
(0.894406 0.4472 0)
(0.894404 0.447198 0)
(0.894402 0.447198 0)
(0.894401 0.447197 0)
(0.8944 0.447197 0)
(0.8944 0.447198 0)
(0.8944 0.447198 0)
(0.894399 0.447198 0)
(0.894399 0.447199 0)
(0.894399 0.447199 0)
(0.8944 0.447199 0)
(0.8944 0.447199 0)
(0.8944 0.447199 0)
(0.8944 0.4472 0)
(0.894416 0.447206 0)
(0.894416 0.447208 0)
(0.894415 0.447213 0)
(0.894412 0.447221 0)
(0.894404 0.447235 0)
(0.894393 0.447257 0)
(0.894376 0.447289 0)
(0.894352 0.447332 0)
(0.894322 0.447391 0)
(0.894285 0.447469 0)
(0.894242 0.447566 0)
(0.894193 0.447686 0)
(0.894139 0.447828 0)
(0.894083 0.447995 0)
(0.894026 0.448185 0)
(0.89397 0.448396 0)
(0.89392 0.448627 0)
(0.893877 0.448872 0)
(0.893843 0.449128 0)
(0.893822 0.44939 0)
(0.893815 0.44965 0)
(0.893823 0.449902 0)
(0.893847 0.45014 0)
(0.893886 0.450358 0)
(0.893941 0.450548 0)
(0.894009 0.450707 0)
(0.894089 0.450829 0)
(0.894178 0.450911 0)
(0.894272 0.450951 0)
(0.894368 0.450947 0)
(0.894465 0.450901 0)
(0.894557 0.450813 0)
(0.894643 0.450687 0)
(0.894718 0.450527 0)
(0.894783 0.450336 0)
(0.894834 0.450123 0)
(0.894872 0.449891 0)
(0.894895 0.449649 0)
(0.894905 0.449401 0)
(0.894903 0.449155 0)
(0.89489 0.448916 0)
(0.894869 0.448687 0)
(0.89484 0.448474 0)
(0.894806 0.448278 0)
(0.894769 0.448101 0)
(0.89473 0.447944 0)
(0.894692 0.447806 0)
(0.894654 0.447688 0)
(0.894619 0.447588 0)
(0.894586 0.447504 0)
(0.894557 0.447435 0)
(0.89453 0.447379 0)
(0.894507 0.447334 0)
(0.894486 0.447298 0)
(0.894469 0.44727 0)
(0.894454 0.447249 0)
(0.894442 0.447232 0)
(0.894431 0.44722 0)
(0.894423 0.447212 0)
(0.894417 0.447206 0)
(0.894412 0.447202 0)
(0.894408 0.447199 0)
(0.894405 0.447198 0)
(0.894403 0.447197 0)
(0.894401 0.447197 0)
(0.8944 0.447197 0)
(0.8944 0.447197 0)
(0.894399 0.447197 0)
(0.894399 0.447198 0)
(0.894399 0.447198 0)
(0.894399 0.447198 0)
(0.894399 0.447199 0)
(0.894399 0.447199 0)
(0.8944 0.447199 0)
(0.8944 0.4472 0)
(0.894413 0.447215 0)
(0.894413 0.447221 0)
(0.894409 0.447231 0)
(0.894401 0.447247 0)
(0.894388 0.447271 0)
(0.894368 0.447307 0)
(0.894341 0.447357 0)
(0.894305 0.447426 0)
(0.89426 0.447515 0)
(0.894207 0.44763 0)
(0.894145 0.447772 0)
(0.894076 0.447944 0)
(0.894002 0.448147 0)
(0.893925 0.448381 0)
(0.893849 0.448646 0)
(0.893777 0.448938 0)
(0.893712 0.449253 0)
(0.893658 0.449587 0)
(0.893619 0.449932 0)
(0.893596 0.450282 0)
(0.893593 0.450628 0)
(0.893611 0.450962 0)
(0.89365 0.451275 0)
(0.89371 0.451559 0)
(0.89379 0.451807 0)
(0.893888 0.452011 0)
(0.894 0.452167 0)
(0.894124 0.452271 0)
(0.894255 0.452319 0)
(0.894389 0.452309 0)
(0.894521 0.452244 0)
(0.894648 0.452123 0)
(0.894765 0.451952 0)
(0.894868 0.451736 0)
(0.894956 0.451479 0)
(0.895025 0.451191 0)
(0.895075 0.450878 0)
(0.895106 0.450549 0)
(0.895118 0.450213 0)
(0.895113 0.449878 0)
(0.895093 0.449551 0)
(0.89506 0.449239 0)
(0.895017 0.448945 0)
(0.894968 0.448676 0)
(0.894914 0.448432 0)
(0.894858 0.448216 0)
(0.894803 0.448027 0)
(0.894749 0.447864 0)
(0.894699 0.447726 0)
(0.894652 0.447611 0)
(0.894611 0.447516 0)
(0.894574 0.44744 0)
(0.894542 0.447378 0)
(0.894514 0.44733 0)
(0.89449 0.447292 0)
(0.89447 0.447264 0)
(0.894453 0.447242 0)
(0.89444 0.447226 0)
(0.894429 0.447215 0)
(0.894421 0.447207 0)
(0.894414 0.447202 0)
(0.894409 0.447199 0)
(0.894406 0.447197 0)
(0.894403 0.447196 0)
(0.894401 0.447195 0)
(0.8944 0.447195 0)
(0.894399 0.447196 0)
(0.894399 0.447196 0)
(0.894399 0.447197 0)
(0.894399 0.447197 0)
(0.894399 0.447198 0)
(0.894399 0.447198 0)
(0.894399 0.447199 0)
(0.894399 0.447199 0)
(0.894399 0.447199 0)
(0.894409 0.447228 0)
(0.894405 0.44724 0)
(0.894396 0.447257 0)
(0.894381 0.447284 0)
(0.894359 0.447324 0)
(0.894328 0.44738 0)
(0.894286 0.447457 0)
(0.894233 0.447559 0)
(0.894169 0.447691 0)
(0.894092 0.447857 0)
(0.894006 0.44806 0)
(0.893911 0.448302 0)
(0.893811 0.448585 0)
(0.893707 0.448909 0)
(0.893606 0.44927 0)
(0.893513 0.449666 0)
(0.893431 0.450091 0)
(0.893365 0.450536 0)
(0.893319 0.450994 0)
(0.893297 0.451454 0)
(0.893301 0.451907 0)
(0.893333 0.45234 0)
(0.893393 0.452745 0)
(0.893482 0.45311 0)
(0.893596 0.453426 0)
(0.893732 0.453687 0)
(0.893888 0.453883 0)
(0.894057 0.454012 0)
(0.894236 0.454069 0)
(0.894418 0.454053 0)
(0.894598 0.453965 0)
(0.894769 0.453806 0)
(0.894927 0.453582 0)
(0.895068 0.453297 0)
(0.895186 0.45296 0)
(0.895281 0.45258 0)
(0.895349 0.452166 0)
(0.89539 0.45173 0)
(0.895406 0.451282 0)
(0.895397 0.450834 0)
(0.895368 0.450394 0)
(0.895321 0.449973 0)
(0.89526 0.449577 0)
(0.89519 0.449211 0)
(0.895113 0.448879 0)
(0.895034 0.448584 0)
(0.894955 0.448326 0)
(0.89488 0.448104 0)
(0.894809 0.447915 0)
(0.894743 0.447757 0)
(0.894685 0.447628 0)
(0.894633 0.447523 0)
(0.894589 0.44744 0)
(0.894551 0.447374 0)
(0.894518 0.447324 0)
(0.894492 0.447285 0)
(0.89447 0.447256 0)
(0.894452 0.447235 0)
(0.894438 0.44722 0)
(0.894427 0.447209 0)
(0.894418 0.447202 0)
(0.894412 0.447198 0)
(0.894407 0.447195 0)
(0.894404 0.447194 0)
(0.894401 0.447194 0)
(0.8944 0.447194 0)
(0.894399 0.447195 0)
(0.894399 0.447195 0)
(0.894398 0.447196 0)
(0.894398 0.447197 0)
(0.894398 0.447197 0)
(0.894399 0.447198 0)
(0.894399 0.447198 0)
(0.894399 0.447199 0)
(0.894399 0.447199 0)
(0.8944 0.447248 0)
(0.894391 0.447267 0)
(0.894375 0.447296 0)
(0.894351 0.447339 0)
(0.894315 0.4474 0)
(0.894268 0.447485 0)
(0.894206 0.447599 0)
(0.894129 0.447747 0)
(0.894037 0.447936 0)
(0.89393 0.44817 0)
(0.89381 0.448453 0)
(0.893681 0.448788 0)
(0.893546 0.449176 0)
(0.89341 0.449615 0)
(0.893279 0.4501 0)
(0.893159 0.450627 0)
(0.893056 0.451188 0)
(0.892977 0.451771 0)
(0.892926 0.452366 0)
(0.892906 0.452961 0)
(0.892922 0.45354 0)
(0.892975 0.454092 0)
(0.893065 0.454604 0)
(0.89319 0.455064 0)
(0.893348 0.45546 0)
(0.893535 0.455784 0)
(0.893746 0.456028 0)
(0.893974 0.456187 0)
(0.894213 0.456256 0)
(0.894456 0.456233 0)
(0.894696 0.456119 0)
(0.894925 0.455917 0)
(0.895137 0.455631 0)
(0.895326 0.455268 0)
(0.895486 0.454837 0)
(0.895613 0.454348 0)
(0.895706 0.453815 0)
(0.895764 0.453249 0)
(0.895786 0.452665 0)
(0.895775 0.452077 0)
(0.895735 0.451497 0)
(0.895671 0.450938 0)
(0.895587 0.45041 0)
(0.895489 0.449921 0)
(0.895383 0.449475 0)
(0.895272 0.449077 0)
(0.895163 0.448728 0)
(0.895057 0.448426 0)
(0.894958 0.44817 0)
(0.894867 0.447956 0)
(0.894786 0.44778 0)
(0.894715 0.447638 0)
(0.894653 0.447524 0)
(0.894601 0.447435 0)
(0.894557 0.447367 0)
(0.894521 0.447314 0)
(0.894491 0.447275 0)
(0.894467 0.447247 0)
(0.894449 0.447227 0)
(0.894434 0.447213 0)
(0.894423 0.447204 0)
(0.894415 0.447198 0)
(0.894409 0.447194 0)
(0.894404 0.447193 0)
(0.894401 0.447192 0)
(0.8944 0.447192 0)
(0.894399 0.447193 0)
(0.894398 0.447194 0)
(0.894398 0.447195 0)
(0.894398 0.447196 0)
(0.894398 0.447197 0)
(0.894398 0.447197 0)
(0.894399 0.447198 0)
(0.894399 0.447198 0)
(0.894399 0.447199 0)
(0.894385 0.447275 0)
(0.894368 0.447307 0)
(0.894342 0.447352 0)
(0.894303 0.447417 0)
(0.89425 0.447509 0)
(0.894179 0.447633 0)
(0.89409 0.447796 0)
(0.89398 0.448007 0)
(0.893851 0.448271 0)
(0.893704 0.448596 0)
(0.893541 0.448984 0)
(0.893367 0.449438 0)
(0.893189 0.449958 0)
(0.893012 0.450542 0)
(0.892844 0.451182 0)
(0.892693 0.45187 0)
(0.892568 0.452595 0)
(0.892475 0.453344 0)
(0.89242 0.454101 0)
(0.892408 0.454851 0)
(0.892442 0.455577 0)
(0.892524 0.456264 0)
(0.892652 0.456896 0)
(0.892826 0.457461 0)
(0.89304 0.457945 0)
(0.89329 0.45834 0)
(0.893569 0.458636 0)
(0.89387 0.458827 0)
(0.894184 0.458909 0)
(0.894503 0.45888 0)
(0.894818 0.458741 0)
(0.89512 0.458493 0)
(0.895399 0.458141 0)
(0.89565 0.457693 0)
(0.895864 0.457158 0)
(0.896036 0.456548 0)
(0.896163 0.455877 0)
(0.896244 0.455161 0)
(0.896277 0.454417 0)
(0.896267 0.453662 0)
(0.896216 0.452913 0)
(0.896132 0.452186 0)
(0.89602 0.451494 0)
(0.895888 0.450849 0)
(0.895743 0.450259 0)
(0.895593 0.449729 0)
(0.895442 0.449262 0)
(0.895297 0.448857 0)
(0.89516 0.448513 0)
(0.895035 0.448224 0)
(0.894924 0.447986 0)
(0.894825 0.447794 0)
(0.894741 0.44764 0)
(0.894669 0.447519 0)
(0.894609 0.447426 0)
(0.89456 0.447356 0)
(0.89452 0.447303 0)
(0.894488 0.447265 0)
(0.894463 0.447237 0)
(0.894444 0.447219 0)
(0.894429 0.447206 0)
(0.894419 0.447198 0)
(0.894411 0.447193 0)
(0.894405 0.447191 0)
(0.894402 0.44719 0)
(0.894399 0.447191 0)
(0.894398 0.447191 0)
(0.894397 0.447192 0)
(0.894397 0.447194 0)
(0.894397 0.447195 0)
(0.894397 0.447196 0)
(0.894398 0.447197 0)
(0.894398 0.447197 0)
(0.894398 0.447198 0)
(0.894399 0.447199 0)
(0.894361 0.447314 0)
(0.894333 0.447362 0)
(0.894292 0.44743 0)
(0.894233 0.447526 0)
(0.894154 0.447658 0)
(0.894052 0.447835 0)
(0.893925 0.448065 0)
(0.893772 0.448357 0)
(0.893594 0.44872 0)
(0.893395 0.449161 0)
(0.893177 0.449683 0)
(0.892947 0.450287 0)
(0.892715 0.450973 0)
(0.892489 0.451735 0)
(0.892278 0.452562 0)
(0.892092 0.453442 0)
(0.891943 0.454361 0)
(0.891838 0.4553 0)
(0.891784 0.45624 0)
(0.891786 0.457162 0)
(0.891847 0.458048 0)
(0.891968 0.458879 0)
(0.892148 0.459638 0)
(0.892382 0.460311 0)
(0.892666 0.460886 0)
(0.892993 0.461351 0)
(0.893355 0.4617 0)
(0.893742 0.461924 0)
(0.894146 0.462021 0)
(0.894556 0.461988 0)
(0.894961 0.461825 0)
(0.895351 0.461533 0)
(0.895714 0.461118 0)
(0.896042 0.460584 0)
(0.896325 0.459944 0)
(0.896556 0.459207 0)
(0.896731 0.45839 0)
(0.896845 0.45751 0)
(0.896899 0.456586 0)
(0.896893 0.455641 0)
(0.896834 0.454694 0)
(0.896728 0.453767 0)
(0.896584 0.452878 0)
(0.896411 0.452043 0)
(0.896219 0.451273 0)
(0.896017 0.450578 0)
(0.895814 0.449962 0)
(0.895617 0.449425 0)
(0.895432 0.448967 0)
(0.895261 0.448581 0)
(0.895109 0.448262 0)
(0.894974 0.448003 0)
(0.894859 0.447796 0)
(0.894761 0.447634 0)
(0.89468 0.447508 0)
(0.894613 0.447413 0)
(0.894559 0.447342 0)
(0.894517 0.44729 0)
(0.894483 0.447253 0)
(0.894458 0.447227 0)
(0.894438 0.44721 0)
(0.894424 0.447199 0)
(0.894414 0.447193 0)
(0.894407 0.44719 0)
(0.894402 0.447188 0)
(0.894399 0.447188 0)
(0.894397 0.447189 0)
(0.894396 0.447191 0)
(0.894396 0.447192 0)
(0.894396 0.447193 0)
(0.894397 0.447195 0)
(0.894397 0.447196 0)
(0.894398 0.447197 0)
(0.894398 0.447197 0)
(0.894398 0.447198 0)
(0.894326 0.447369 0)
(0.894282 0.447438 0)
(0.894219 0.447537 0)
(0.894133 0.447675 0)
(0.894019 0.447861 0)
(0.893874 0.448107 0)
(0.893697 0.448425 0)
(0.893488 0.448823 0)
(0.893247 0.449313 0)
(0.89298 0.449901 0)
(0.892693 0.45059 0)
(0.892396 0.45138 0)
(0.892099 0.452266 0)
(0.891814 0.453239 0)
(0.891556 0.454284 0)
(0.891335 0.455385 0)
(0.891163 0.456519 0)
(0.891051 0.457666 0)
(0.891005 0.458802 0)
(0.891031 0.459903 0)
(0.891131 0.46095 0)
(0.891304 0.461922 0)
(0.891547 0.462803 0)
(0.891856 0.463578 0)
(0.892224 0.464234 0)
(0.892642 0.464763 0)
(0.8931 0.465158 0)
(0.893588 0.465414 0)
(0.894095 0.465525 0)
(0.89461 0.465491 0)
(0.895119 0.46531 0)
(0.895612 0.464984 0)
(0.896075 0.464515 0)
(0.896497 0.463908 0)
(0.896866 0.46317 0)
(0.897174 0.462314 0)
(0.897412 0.461354 0)
(0.897575 0.460308 0)
(0.897661 0.459198 0)
(0.897671 0.458047 0)
(0.897609 0.456882 0)
(0.897483 0.455728 0)
(0.897304 0.45461 0)
(0.897084 0.453549 0)
(0.896836 0.452564 0)
(0.896572 0.451667 0)
(0.896304 0.450866 0)
(0.896041 0.450164 0)
(0.895792 0.44956 0)
(0.895562 0.44905 0)
(0.895356 0.448627 0)
(0.895174 0.448282 0)
(0.895017 0.448006 0)
(0.894885 0.447788 0)
(0.894775 0.447619 0)
(0.894685 0.447491 0)
(0.894612 0.447395 0)
(0.894555 0.447325 0)
(0.89451 0.447275 0)
(0.894476 0.44724 0)
(0.89445 0.447217 0)
(0.894432 0.447202 0)
(0.894418 0.447193 0)
(0.894409 0.447188 0)
(0.894402 0.447186 0)
(0.894398 0.447186 0)
(0.894396 0.447187 0)
(0.894395 0.447188 0)
(0.894395 0.44719 0)
(0.894395 0.447192 0)
(0.894396 0.447193 0)
(0.894396 0.447195 0)
(0.894397 0.447196 0)
(0.894397 0.447197 0)
(0.894398 0.447198 0)
(0.894274 0.447441 0)
(0.894207 0.447541 0)
(0.894114 0.447682 0)
(0.89399 0.447875 0)
(0.89383 0.448133 0)
(0.893629 0.448469 0)
(0.893387 0.448898 0)
(0.893104 0.449433 0)
(0.892785 0.450081 0)
(0.892434 0.450851 0)
(0.892063 0.451744 0)
(0.891685 0.452756 0)
(0.891314 0.453876 0)
(0.890965 0.455092 0)
(0.890656 0.456382 0)
(0.890401 0.457721 0)
(0.890213 0.459083 0)
(0.890103 0.460441 0)
(0.890078 0.461768 0)
(0.890142 0.463038 0)
(0.890296 0.464229 0)
(0.890536 0.465322 0)
(0.890859 0.466301 0)
(0.891256 0.467153 0)
(0.89172 0.46787 0)
(0.89224 0.468444 0)
(0.892805 0.468872 0)
(0.893404 0.469149 0)
(0.894024 0.469273 0)
(0.894654 0.469243 0)
(0.895279 0.469055 0)
(0.895888 0.468711 0)
(0.896465 0.46821 0)
(0.896998 0.467554 0)
(0.897472 0.466748 0)
(0.897876 0.465799 0)
(0.898198 0.464719 0)
(0.89843 0.463525 0)
(0.898567 0.462238 0)
(0.898607 0.460885 0)
(0.898554 0.459495 0)
(0.898416 0.458098 0)
(0.898205 0.456727 0)
(0.897935 0.455411 0)
(0.897622 0.454175 0)
(0.897285 0.453038 0)
(0.896937 0.452013 0)
(0.896593 0.451109 0)
(0.896264 0.450326 0)
(0.895959 0.44966 0)
(0.895683 0.449105 0)
(0.89544 0.44865 0)
(0.895229 0.448283 0)
(0.89505 0.447994 0)
(0.894902 0.447769 0)
(0.894781 0.447597 0)
(0.894683 0.447469 0)
(0.894606 0.447374 0)
(0.894547 0.447307 0)
(0.894501 0.44726 0)
(0.894467 0.447228 0)
(0.894442 0.447207 0)
(0.894424 0.447195 0)
(0.894412 0.447188 0)
(0.894403 0.447184 0)
(0.894398 0.447184 0)
(0.894395 0.447184 0)
(0.894394 0.447186 0)
(0.894394 0.447188 0)
(0.894394 0.44719 0)
(0.894394 0.447192 0)
(0.894395 0.447193 0)
(0.894396 0.447195 0)
(0.894397 0.447196 0)
(0.894397 0.447197 0)
(0.894199 0.447539 0)
(0.894101 0.44768 0)
(0.893969 0.447875 0)
(0.893794 0.448139 0)
(0.893572 0.44849 0)
(0.893298 0.448942 0)
(0.892973 0.449513 0)
(0.892598 0.450216 0)
(0.89218 0.45106 0)
(0.891729 0.452049 0)
(0.891259 0.453183 0)
(0.890788 0.454451 0)
(0.890336 0.455836 0)
(0.889922 0.457316 0)
(0.889566 0.458863 0)
(0.889285 0.460444 0)
(0.889094 0.462026 0)
(0.889001 0.463576 0)
(0.889015 0.465066 0)
(0.889135 0.466468 0)
(0.88936 0.467762 0)
(0.889685 0.468931 0)
(0.890101 0.469963 0)
(0.890599 0.47085 0)
(0.891169 0.471589 0)
(0.891798 0.472176 0)
(0.892476 0.472612 0)
(0.893189 0.472896 0)
(0.893927 0.473027 0)
(0.894676 0.473005 0)
(0.895422 0.472827 0)
(0.896154 0.47249 0)
(0.896856 0.471992 0)
(0.897513 0.471329 0)
(0.89811 0.470501 0)
(0.89863 0.469509 0)
(0.899059 0.468359 0)
(0.899385 0.467062 0)
(0.899598 0.465638 0)
(0.899693 0.46411 0)
(0.899669 0.462512 0)
(0.899534 0.460877 0)
(0.8993 0.459246 0)
(0.898983 0.457655 0)
(0.898604 0.45614 0)
(0.898183 0.454729 0)
(0.897743 0.453443 0)
(0.897301 0.452297 0)
(0.896874 0.451297 0)
(0.896475 0.45044 0)
(0.896112 0.44972 0)
(0.895789 0.449127 0)
(0.895508 0.448647 0)
(0.89527 0.448265 0)
(0.895072 0.447967 0)
(0.894909 0.44774 0)
(0.894779 0.447568 0)
(0.894676 0.447442 0)
(0.894596 0.447351 0)
(0.894535 0.447288 0)
(0.89449 0.447244 0)
(0.894456 0.447216 0)
(0.894433 0.447198 0)
(0.894416 0.447188 0)
(0.894405 0.447183 0)
(0.894398 0.447181 0)
(0.894394 0.447182 0)
(0.894393 0.447183 0)
(0.894392 0.447185 0)
(0.894392 0.447188 0)
(0.894393 0.44719 0)
(0.894394 0.447192 0)
(0.894395 0.447194 0)
(0.894396 0.447195 0)
(0.894397 0.447196 0)
(0.894094 0.447668 0)
(0.893955 0.447862 0)
(0.893769 0.448128 0)
(0.893528 0.448485 0)
(0.893226 0.448953 0)
(0.89286 0.449551 0)
(0.89243 0.450297 0)
(0.891941 0.451205 0)
(0.891405 0.452283 0)
(0.890835 0.45353 0)
(0.890253 0.454938 0)
(0.889683 0.45649 0)
(0.889148 0.458158 0)
(0.888674 0.459908 0)
(0.888283 0.461702 0)
(0.887994 0.463502 0)
(0.88782 0.465266 0)
(0.887769 0.46696 0)
(0.887845 0.468553 0)
(0.888044 0.470021 0)
(0.888361 0.471347 0)
(0.888786 0.47252 0)
(0.889308 0.473536 0)
(0.889915 0.474395 0)
(0.890594 0.4751 0)
(0.891333 0.475655 0)
(0.89212 0.476064 0)
(0.892944 0.476333 0)
(0.893793 0.476463 0)
(0.894656 0.476455 0)
(0.895521 0.476305 0)
(0.896375 0.476009 0)
(0.897205 0.475559 0)
(0.897994 0.474946 0)
(0.898726 0.474163 0)
(0.899383 0.473201 0)
(0.899944 0.472058 0)
(0.900393 0.470737 0)
(0.900714 0.469248 0)
(0.900896 0.46761 0)
(0.900933 0.465854 0)
(0.900828 0.464017 0)
(0.900591 0.462144 0)
(0.90024 0.460281 0)
(0.899798 0.458475 0)
(0.899292 0.456767 0)
(0.898749 0.455189 0)
(0.898194 0.453764 0)
(0.897651 0.452507 0)
(0.897137 0.45142 0)
(0.896665 0.4505 0)
(0.896242 0.449737 0)
(0.895874 0.449115 0)
(0.895559 0.448618 0)
(0.895296 0.448228 0)
(0.89508 0.447928 0)
(0.894906 0.447701 0)
(0.894769 0.447534 0)
(0.894663 0.447413 0)
(0.894581 0.447327 0)
(0.894521 0.447268 0)
(0.894477 0.447229 0)
(0.894445 0.447204 0)
(0.894423 0.44719 0)
(0.894408 0.447182 0)
(0.894399 0.447179 0)
(0.894394 0.447179 0)
(0.894391 0.44718 0)
(0.89439 0.447183 0)
(0.89439 0.447185 0)
(0.894391 0.447188 0)
(0.894392 0.44719 0)
(0.894393 0.447193 0)
(0.894395 0.447194 0)
(0.894396 0.447196 0)
(0.89395 0.447837 0)
(0.893756 0.4481 0)
(0.893501 0.448456 0)
(0.893174 0.44893 0)
(0.892771 0.449545 0)
(0.892288 0.450322 0)
(0.891729 0.45128 0)
(0.891104 0.452432 0)
(0.89043 0.453781 0)
(0.889728 0.455319 0)
(0.889026 0.457026 0)
(0.888355 0.458872 0)
(0.887747 0.460819 0)
(0.88723 0.462818 0)
(0.886828 0.464822 0)
(0.886559 0.466782 0)
(0.886433 0.468656 0)
(0.886456 0.470406 0)
(0.886622 0.472008 0)
(0.886926 0.473442 0)
(0.887354 0.474701 0)
(0.887893 0.475785 0)
(0.888528 0.476697 0)
(0.889243 0.477448 0)
(0.890026 0.478051 0)
(0.890865 0.478518 0)
(0.891749 0.478861 0)
(0.892666 0.479088 0)
(0.89361 0.479206 0)
(0.89457 0.479215 0)
(0.895539 0.479114 0)
(0.896505 0.478894 0)
(0.897456 0.478543 0)
(0.898377 0.478048 0)
(0.899251 0.47739 0)
(0.900057 0.476552 0)
(0.900774 0.47552 0)
(0.901377 0.474281 0)
(0.901843 0.472836 0)
(0.902153 0.471192 0)
(0.902294 0.46937 0)
(0.90226 0.467407 0)
(0.902056 0.465349 0)
(0.901698 0.463249 0)
(0.901211 0.461167 0)
(0.900626 0.459157 0)
(0.899978 0.457267 0)
(0.8993 0.455535 0)
(0.898623 0.453985 0)
(0.897973 0.452631 0)
(0.897369 0.451473 0)
(0.896824 0.450504 0)
(0.896345 0.449709 0)
(0.895934 0.449069 0)
(0.895588 0.448564 0)
(0.895304 0.448173 0)
(0.895074 0.447877 0)
(0.894892 0.447656 0)
(0.894751 0.447495 0)
(0.894644 0.447381 0)
(0.894563 0.447302 0)
(0.894504 0.447249 0)
(0.894462 0.447215 0)
(0.894433 0.447194 0)
(0.894413 0.447183 0)
(0.894401 0.447178 0)
(0.894394 0.447177 0)
(0.89439 0.447178 0)
(0.894388 0.44718 0)
(0.894388 0.447183 0)
(0.894389 0.447186 0)
(0.89439 0.447189 0)
(0.894392 0.447191 0)
(0.894393 0.447193 0)
(0.894395 0.447195 0)
(0.893757 0.448056 0)
(0.893491 0.448405 0)
(0.893145 0.448875 0)
(0.89271 0.449494 0)
(0.89218 0.450289 0)
(0.891555 0.451282 0)
(0.890842 0.452492 0)
(0.890059 0.453925 0)
(0.889229 0.455576 0)
(0.888387 0.457425 0)
(0.887568 0.459438 0)
(0.88681 0.461567 0)
(0.886152 0.463757 0)
(0.885623 0.465947 0)
(0.885247 0.46808 0)
(0.885039 0.470103 0)
(0.885003 0.471973 0)
(0.885134 0.47366 0)
(0.885423 0.475144 0)
(0.885854 0.476421 0)
(0.886408 0.477495 0)
(0.887066 0.478377 0)
(0.887811 0.479087 0)
(0.888626 0.479646 0)
(0.889497 0.480076 0)
(0.890414 0.480399 0)
(0.891368 0.480633 0)
(0.892352 0.480792 0)
(0.893361 0.480884 0)
(0.894391 0.480914 0)
(0.895437 0.480878 0)
(0.896491 0.480767 0)
(0.897545 0.480565 0)
(0.898586 0.480252 0)
(0.899598 0.479803 0)
(0.90056 0.47919 0)
(0.901448 0.478383 0)
(0.902232 0.477357 0)
(0.902882 0.476092 0)
(0.903369 0.47458 0)
(0.903666 0.472828 0)
(0.903758 0.47086 0)
(0.903641 0.468718 0)
(0.903322 0.46646 0)
(0.902825 0.464153 0)
(0.902184 0.461869 0)
(0.90144 0.459672 0)
(0.900637 0.45762 0)
(0.899815 0.455753 0)
(0.899011 0.454098 0)
(0.898253 0.452666 0)
(0.897561 0.451454 0)
(0.896946 0.450451 0)
(0.896415 0.449638 0)
(0.895966 0.448992 0)
(0.895594 0.448488 0)
(0.895293 0.448104 0)
(0.895055 0.447816 0)
(0.894869 0.447605 0)
(0.894726 0.447454 0)
(0.89462 0.447349 0)
(0.894542 0.447278 0)
(0.894486 0.447231 0)
(0.894447 0.447202 0)
(0.894421 0.447186 0)
(0.894404 0.447178 0)
(0.894394 0.447175 0)
(0.894389 0.447175 0)
(0.894386 0.447177 0)
(0.894386 0.44718 0)
(0.894387 0.447183 0)
(0.894388 0.447187 0)
(0.89439 0.447189 0)
(0.894392 0.447192 0)
(0.894393 0.447194 0)
(0.893499 0.448335 0)
(0.893142 0.448792 0)
(0.892682 0.449403 0)
(0.892112 0.450199 0)
(0.891427 0.45121 0)
(0.890631 0.452458 0)
(0.88974 0.453955 0)
(0.88878 0.4557 0)
(0.887789 0.457672 0)
(0.88681 0.459834 0)
(0.88589 0.462129 0)
(0.885075 0.464492 0)
(0.884407 0.466849 0)
(0.883915 0.469129 0)
(0.883617 0.47127 0)
(0.88352 0.473217 0)
(0.883619 0.474938 0)
(0.883898 0.476412 0)
(0.884337 0.477635 0)
(0.884911 0.478619 0)
(0.885596 0.479384 0)
(0.886369 0.479957 0)
(0.887208 0.480372 0)
(0.888099 0.480662 0)
(0.889028 0.480857 0)
(0.889989 0.480989 0)
(0.890976 0.481079 0)
(0.891988 0.481147 0)
(0.893024 0.481204 0)
(0.894085 0.481254 0)
(0.895171 0.481296 0)
(0.89628 0.481319 0)
(0.897407 0.481304 0)
(0.898544 0.481227 0)
(0.899678 0.481058 0)
(0.90079 0.480757 0)
(0.901854 0.480286 0)
(0.902838 0.479601 0)
(0.903705 0.478664 0)
(0.904415 0.477445 0)
(0.904929 0.475927 0)
(0.905215 0.474116 0)
(0.905253 0.47204 0)
(0.90504 0.46975 0)
(0.904591 0.467319 0)
(0.903938 0.464828 0)
(0.903128 0.462363 0)
(0.902212 0.460003 0)
(0.901244 0.457812 0)
(0.900274 0.455834 0)
(0.899341 0.454097 0)
(0.898477 0.452608 0)
(0.897702 0.451363 0)
(0.897025 0.450344 0)
(0.896448 0.449527 0)
(0.895968 0.448886 0)
(0.895577 0.448394 0)
(0.895266 0.448022 0)
(0.895022 0.447748 0)
(0.894836 0.447551 0)
(0.894695 0.447412 0)
(0.894592 0.447317 0)
(0.894518 0.447254 0)
(0.894467 0.447215 0)
(0.894432 0.447191 0)
(0.894409 0.447179 0)
(0.894395 0.447173 0)
(0.894388 0.447173 0)
(0.894384 0.447174 0)
(0.894384 0.447177 0)
(0.894384 0.447181 0)
(0.894386 0.447184 0)
(0.894388 0.447187 0)
(0.89439 0.44719 0)
(0.894392 0.447193 0)
(0.893162 0.448685 0)
(0.892689 0.449277 0)
(0.892088 0.450059 0)
(0.891353 0.451067 0)
(0.890482 0.452331 0)
(0.889489 0.45387 0)
(0.8884 0.455685 0)
(0.887255 0.457757 0)
(0.886107 0.460046 0)
(0.885013 0.462489 0)
(0.88403 0.465006 0)
(0.88321 0.46751 0)
(0.882592 0.469914 0)
(0.882201 0.47214 0)
(0.882043 0.474128 0)
(0.882113 0.475835 0)
(0.882391 0.477241 0)
(0.882849 0.478346 0)
(0.883454 0.479165 0)
(0.884174 0.479731 0)
(0.884979 0.480081 0)
(0.885844 0.480258 0)
(0.886747 0.480307 0)
(0.887676 0.480273 0)
(0.888622 0.480195 0)
(0.889581 0.480105 0)
(0.890554 0.480032 0)
(0.891546 0.479998 0)
(0.892563 0.480013 0)
(0.893611 0.480085 0)
(0.894694 0.480209 0)
(0.895818 0.480377 0)
(0.896981 0.48057 0)
(0.898182 0.48076 0)
(0.899411 0.480913 0)
(0.900653 0.480987 0)
(0.901883 0.480932 0)
(0.903072 0.480694 0)
(0.904176 0.480216 0)
(0.905148 0.479444 0)
(0.905935 0.478335 0)
(0.906487 0.476866 0)
(0.906764 0.475041 0)
(0.906743 0.472892 0)
(0.906423 0.470484 0)
(0.905828 0.467904 0)
(0.905004 0.465254 0)
(0.90401 0.462636 0)
(0.902912 0.460139 0)
(0.901775 0.457836 0)
(0.900656 0.455775 0)
(0.899599 0.453982 0)
(0.898637 0.452462 0)
(0.897786 0.451205 0)
(0.897055 0.450187 0)
(0.896442 0.449382 0)
(0.89594 0.448758 0)
(0.895537 0.448285 0)
(0.895221 0.447933 0)
(0.894978 0.447677 0)
(0.894795 0.447496 0)
(0.89466 0.447371 0)
(0.894563 0.447287 0)
(0.894494 0.447233 0)
(0.894448 0.447201 0)
(0.894417 0.447182 0)
(0.894399 0.447174 0)
(0.894388 0.447171 0)
(0.894383 0.447172 0)
(0.894381 0.447175 0)
(0.894382 0.447178 0)
(0.894383 0.447182 0)
(0.894386 0.447185 0)
(0.894388 0.447189 0)
(0.89439 0.447191 0)
(0.892727 0.449121 0)
(0.89211 0.449875 0)
(0.891337 0.450861 0)
(0.890404 0.452118 0)
(0.889319 0.45367 0)
(0.888106 0.455528 0)
(0.886809 0.457676 0)
(0.885486 0.460069 0)
(0.884207 0.462638 0)
(0.883043 0.46529 0)
(0.882059 0.467922 0)
(0.881306 0.47043 0)
(0.880816 0.472718 0)
(0.880599 0.474714 0)
(0.880647 0.476369 0)
(0.880933 0.47766 0)
(0.881423 0.478593 0)
(0.882074 0.479189 0)
(0.882844 0.47949 0)
(0.883693 0.479543 0)
(0.884589 0.479407 0)
(0.885506 0.479138 0)
(0.886427 0.478788 0)
(0.887342 0.47841 0)
(0.888251 0.478046 0)
(0.889155 0.477733 0)
(0.890062 0.477498 0)
(0.890983 0.477362 0)
(0.891932 0.477339 0)
(0.892919 0.477432 0)
(0.893956 0.47764 0)
(0.895053 0.477952 0)
(0.896214 0.478351 0)
(0.897442 0.47881 0)
(0.898733 0.479295 0)
(0.900075 0.479763 0)
(0.90145 0.480162 0)
(0.90283 0.480429 0)
(0.904174 0.480496 0)
(0.905428 0.48029 0)
(0.906531 0.479742 0)
(0.907414 0.478794 0)
(0.908015 0.477415 0)
(0.908283 0.475608 0)
(0.908195 0.473414 0)
(0.907755 0.470912 0)
(0.906999 0.468209 0)
(0.905989 0.465425 0)
(0.9048 0.462681 0)
(0.903515 0.460078 0)
(0.902209 0.457694 0)
(0.900946 0.455581 0)
(0.899774 0.453761 0)
(0.898723 0.452235 0)
(0.897809 0.450987 0)
(0.897036 0.449989 0)
(0.896398 0.449209 0)
(0.895883 0.448612 0)
(0.895477 0.448166 0)
(0.895163 0.447839 0)
(0.894925 0.447605 0)
(0.894749 0.447442 0)
(0.894621 0.447332 0)
(0.894532 0.44726 0)
(0.89447 0.447215 0)
(0.89443 0.447189 0)
(0.894404 0.447176 0)
(0.894389 0.44717 0)
(0.894382 0.44717 0)
(0.894379 0.447172 0)
(0.894379 0.447175 0)
(0.89438 0.447179 0)
(0.894383 0.447183 0)
(0.894386 0.447187 0)
(0.894388 0.44719 0)
(0.892175 0.449655 0)
(0.891381 0.450602 0)
(0.890402 0.451828 0)
(0.88924 0.453367 0)
(0.887914 0.455238 0)
(0.88647 0.457429 0)
(0.884972 0.4599 0)
(0.883501 0.462572 0)
(0.882143 0.465341 0)
(0.880982 0.468086 0)
(0.880082 0.470681 0)
(0.879485 0.473014 0)
(0.879207 0.474998 0)
(0.879238 0.476575 0)
(0.879545 0.477723 0)
(0.880082 0.478447 0)
(0.880795 0.478778 0)
(0.881631 0.478768 0)
(0.882539 0.478479 0)
(0.883477 0.477977 0)
(0.884412 0.477332 0)
(0.885325 0.47661 0)
(0.886202 0.475869 0)
(0.887042 0.475163 0)
(0.887852 0.474535 0)
(0.888642 0.47402 0)
(0.889428 0.473644 0)
(0.890229 0.473426 0)
(0.891062 0.473376 0)
(0.891947 0.473497 0)
(0.892899 0.473785 0)
(0.893932 0.474232 0)
(0.895056 0.47482 0)
(0.896277 0.475526 0)
(0.897597 0.476318 0)
(0.899008 0.477158 0)
(0.900497 0.477996 0)
(0.902043 0.478769 0)
(0.903609 0.479406 0)
(0.905144 0.479823 0)
(0.906582 0.47993 0)
(0.907842 0.479639 0)
(0.908838 0.47888 0)
(0.909492 0.477614 0)
(0.909748 0.475842 0)
(0.90958 0.473619 0)
(0.909003 0.47104 0)
(0.908069 0.468233 0)
(0.906859 0.465342 0)
(0.905469 0.462501 0)
(0.903995 0.459824 0)
(0.902526 0.457394 0)
(0.90113 0.455261 0)
(0.899856 0.453443 0)
(0.898732 0.451937 0)
(0.89777 0.450719 0)
(0.896969 0.449757 0)
(0.896318 0.449015 0)
(0.8958 0.448456 0)
(0.895398 0.448042 0)
(0.895092 0.447744 0)
(0.894864 0.447534 0)
(0.894699 0.447391 0)
(0.894582 0.447296 0)
(0.894501 0.447236 0)
(0.894447 0.4472 0)
(0.894413 0.44718 0)
(0.894392 0.447171 0)
(0.894381 0.447168 0)
(0.894377 0.44717 0)
(0.894376 0.447173 0)
(0.894377 0.447177 0)
(0.89438 0.447181 0)
(0.894383 0.447185 0)
(0.894386 0.447188 0)
(0.891483 0.450302 0)
(0.890477 0.451474 0)
(0.889258 0.452973 0)
(0.887838 0.454823 0)
(0.886258 0.457027 0)
(0.884588 0.459543 0)
(0.88292 0.462294 0)
(0.881358 0.465161 0)
(0.880003 0.468005 0)
(0.878942 0.470679 0)
(0.878228 0.47305 0)
(0.877885 0.475014 0)
(0.8779 0.476504 0)
(0.878234 0.477493 0)
(0.878832 0.477993 0)
(0.879625 0.478041 0)
(0.880544 0.477698 0)
(0.881528 0.47704 0)
(0.882522 0.476147 0)
(0.883486 0.475098 0)
(0.884391 0.473969 0)
(0.885226 0.472832 0)
(0.885987 0.471745 0)
(0.886682 0.470759 0)
(0.887327 0.469914 0)
(0.887942 0.469243 0)
(0.888554 0.468766 0)
(0.889186 0.468497 0)
(0.889864 0.468442 0)
(0.890611 0.468601 0)
(0.891449 0.46897 0)
(0.892392 0.469538 0)
(0.893456 0.470289 0)
(0.894647 0.471204 0)
(0.89597 0.472257 0)
(0.897423 0.473413 0)
(0.898998 0.474631 0)
(0.900678 0.475857 0)
(0.902437 0.477024 0)
(0.90423 0.478046 0)
(0.905995 0.478827 0)
(0.907646 0.479258 0)
(0.909084 0.479233 0)
(0.910203 0.478666 0)
(0.910909 0.477512 0)
(0.911139 0.475777 0)
(0.910872 0.473528 0)
(0.910138 0.470881 0)
(0.909008 0.467989 0)
(0.907587 0.465014 0)
(0.905991 0.462108 0)
(0.904335 0.459392 0)
(0.902713 0.45695 0)
(0.9012 0.454829 0)
(0.899842 0.453043 0)
(0.898663 0.45158 0)
(0.89767 0.450413 0)
(0.896856 0.449503 0)
(0.896205 0.44881 0)
(0.895695 0.448294 0)
(0.895305 0.447918 0)
(0.895013 0.447652 0)
(0.8948 0.447468 0)
(0.894648 0.447344 0)
(0.894542 0.447265 0)
(0.894471 0.447216 0)
(0.894426 0.447188 0)
(0.894398 0.447174 0)
(0.894383 0.447168 0)
(0.894375 0.447168 0)
(0.894373 0.447171 0)
(0.894374 0.447175 0)