/*--------------------------------*- C++ -*----------------------------------*\
  =========                 |
  \\      /  F ield         | OpenFOAM: The Open Source CFD Toolbox
   \\    /   O peration     | Website:  https://openfoam.org
    \\  /    A nd           | Version:  6
     \\/     M anipulation  |
\*---------------------------------------------------------------------------*/
FoamFile
{
    version     2.0;
    format      ascii;
    class       volScalarField;
    location    "4.44";
    object      rho;
}
// * * * * * * * * * * * * * * * * * * * * * * * * * * * * * * * * * * * * * //

dimensions      [1 -3 0 0 0 0 0];

internalField   nonuniform List<scalar> 
5625
(
1.40001
1.40002
1.40003
1.40005
1.40008
1.40014
1.40021
1.40031
1.40045
1.40062
1.40083
1.40109
1.40139
1.40174
1.40214
1.40257
1.40305
1.40355
1.40407
1.40461
1.40514
1.40566
1.40615
1.4066
1.40701
1.40737
1.40765
1.40787
1.408
1.40806
1.40803
1.40792
1.40774
1.40748
1.40716
1.40678
1.40635
1.40588
1.40539
1.40489
1.40438
1.40389
1.40341
1.40295
1.40253
1.40214
1.4018
1.40149
1.40122
1.40099
1.40079
1.40063
1.40049
1.40038
1.40029
1.40022
1.40016
1.40012
1.40009
1.40006
1.40004
1.40003
1.40002
1.40001
1.40001
1.4
1.4
1.4
1.4
1.4
1.4
1.4
1.4
1.4
1.4
1.40003
1.40004
1.40006
1.4001
1.40016
1.40024
1.40036
1.40051
1.40071
1.40096
1.40126
1.40162
1.40205
1.40253
1.40307
1.40367
1.4043
1.40498
1.40567
1.40637
1.40707
1.40774
1.40838
1.40897
1.40949
1.40994
1.4103
1.41057
1.41074
1.41081
1.41077
1.41063
1.41039
1.41005
1.40963
1.40913
1.40857
1.40796
1.40731
1.40664
1.40596
1.4053
1.40465
1.40403
1.40346
1.40293
1.40246
1.40203
1.40167
1.40135
1.40108
1.40085
1.40067
1.40051
1.40039
1.40029
1.40022
1.40016
1.40011
1.40008
1.40005
1.40003
1.40002
1.40001
1.4
1.4
1.4
1.4
1.4
1.4
1.4
1.4
1.4
1.4
1.4
1.40005
1.40008
1.40012
1.40018
1.40027
1.4004
1.40057
1.40079
1.40108
1.40143
1.40185
1.40236
1.40294
1.4036
1.40433
1.40512
1.40596
1.40684
1.40775
1.40865
1.40955
1.41041
1.41121
1.41195
1.41261
1.41317
1.41362
1.41395
1.41416
1.41424
1.41419
1.41401
1.41371
1.41328
1.41275
1.41212
1.4114
1.41062
1.40978
1.40891
1.40802
1.40714
1.40629
1.40547
1.4047
1.40399
1.40334
1.40277
1.40227
1.40184
1.40147
1.40116
1.4009
1.40069
1.40053
1.40039
1.40029
1.40021
1.40015
1.4001
1.40007
1.40004
1.40002
1.40001
1.4
1.4
1.4
1.4
1.4
1.4
1.4
1.4
1.4
1.4
1.4
1.40009
1.40013
1.4002
1.40029
1.40043
1.40062
1.40087
1.40118
1.40158
1.40207
1.40266
1.40334
1.40413
1.40501
1.40597
1.40701
1.4081
1.40924
1.41039
1.41154
1.41266
1.41373
1.41473
1.41563
1.41643
1.41711
1.41766
1.41806
1.41831
1.4184
1.41834
1.41813
1.41776
1.41724
1.41659
1.41581
1.41493
1.41394
1.41289
1.41179
1.41066
1.40952
1.40841
1.40734
1.40632
1.40538
1.40452
1.40376
1.40308
1.40249
1.40199
1.40157
1.40122
1.40094
1.40071
1.40053
1.40039
1.40028
1.4002
1.40013
1.40009
1.40005
1.40003
1.40002
1.4
1.4
1.4
1.39999
1.39999
1.39999
1.4
1.4
1.4
1.4
1.4
1.40014
1.40021
1.40031
1.40046
1.40066
1.40093
1.40128
1.40172
1.40227
1.40294
1.40373
1.40465
1.40569
1.40684
1.40809
1.40942
1.41082
1.41224
1.41368
1.4151
1.41646
1.41776
1.41896
1.42004
1.42099
1.42178
1.42242
1.42289
1.42318
1.42329
1.42322
1.42297
1.42254
1.42194
1.42117
1.42025
1.41919
1.418
1.41672
1.41536
1.41395
1.41252
1.4111
1.40973
1.40842
1.40719
1.40606
1.40505
1.40415
1.40337
1.40269
1.40213
1.40166
1.40127
1.40096
1.40072
1.40052
1.40038
1.40026
1.40018
1.40012
1.40007
1.40004
1.40002
1.40001
1.4
1.39999
1.39999
1.39999
1.39999
1.39999
1.4
1.4
1.4
1.4
1.40022
1.40033
1.40048
1.40069
1.40097
1.40135
1.40184
1.40245
1.4032
1.40409
1.40515
1.40635
1.4077
1.40917
1.41076
1.41244
1.41417
1.41592
1.41766
1.41936
1.42098
1.4225
1.42389
1.42513
1.4262
1.4271
1.42782
1.42834
1.42866
1.42879
1.42872
1.42844
1.42797
1.4273
1.42644
1.42539
1.42417
1.42279
1.42128
1.41966
1.41796
1.41621
1.41446
1.41273
1.41107
1.4095
1.40805
1.40673
1.40555
1.40451
1.40362
1.40287
1.40224
1.40172
1.4013
1.40097
1.40071
1.40051
1.40036
1.40024
1.40016
1.4001
1.40006
1.40003
1.40001
1.4
1.39999
1.39999
1.39999
1.39999
1.39999
1.39999
1.39999
1.4
1.4
1.40034
1.40049
1.4007
1.401
1.4014
1.40192
1.40259
1.40341
1.40441
1.40559
1.40696
1.40851
1.41023
1.41209
1.41407
1.41612
1.41821
1.4203
1.42234
1.4243
1.42615
1.42785
1.42939
1.43075
1.43191
1.43287
1.43363
1.43418
1.43452
1.43466
1.43459
1.43431
1.43382
1.43311
1.4322
1.43108
1.42975
1.42822
1.42652
1.42467
1.42269
1.42062
1.41852
1.41642
1.41436
1.4124
1.41056
1.40887
1.40735
1.406
1.40483
1.40384
1.403
1.40232
1.40176
1.40131
1.40096
1.40069
1.40049
1.40033
1.40022
1.40014
1.40008
1.40004
1.40002
1.4
1.39999
1.39999
1.39998
1.39999
1.39999
1.39999
1.39999
1.39999
1.4
1.40049
1.40071
1.40101
1.40142
1.40197
1.40268
1.40357
1.40466
1.40598
1.40751
1.40926
1.41122
1.41336
1.41565
1.41804
1.42048
1.42292
1.42532
1.42763
1.4298
1.4318
1.43362
1.43522
1.43662
1.43779
1.43875
1.43949
1.44003
1.44036
1.4405
1.44044
1.44018
1.43971
1.43903
1.43814
1.43702
1.43567
1.43408
1.43228
1.43026
1.42806
1.42572
1.42329
1.42081
1.41834
1.41594
1.41367
1.41155
1.40962
1.4079
1.40639
1.40509
1.404
1.4031
1.40236
1.40177
1.4013
1.40094
1.40066
1.40045
1.4003
1.40019
1.40011
1.40006
1.40002
1.4
1.39999
1.39998
1.39998
1.39998
1.39998
1.39999
1.39999
1.39999
1.39999
1.4007
1.401
1.40142
1.40199
1.40273
1.40367
1.40485
1.40628
1.40797
1.40992
1.41212
1.41454
1.41714
1.41987
1.42267
1.42547
1.42822
1.43086
1.43333
1.4356
1.43764
1.43945
1.441
1.44231
1.44339
1.44425
1.4449
1.44537
1.44566
1.44577
1.44573
1.44551
1.44512
1.44455
1.44376
1.44276
1.44151
1.44
1.43822
1.43618
1.43389
1.43137
1.42868
1.42587
1.42301
1.42017
1.41743
1.41483
1.41244
1.41027
1.40836
1.4067
1.40529
1.40411
1.40314
1.40236
1.40175
1.40127
1.4009
1.40062
1.40042
1.40027
1.40016
1.40009
1.40004
1.40001
1.39999
1.39998
1.39998
1.39998
1.39998
1.39998
1.39999
1.39999
1.39999
1.40098
1.4014
1.40197
1.40273
1.40371
1.40496
1.40648
1.40831
1.41045
1.41288
1.41558
1.4185
1.42157
1.42472
1.42788
1.43097
1.43391
1.43664
1.43912
1.44133
1.44324
1.44486
1.4462
1.44728
1.44813
1.44878
1.44925
1.44958
1.44977
1.44985
1.44982
1.44968
1.44942
1.44902
1.44846
1.4477
1.44671
1.44545
1.44389
1.44201
1.4398
1.43728
1.43448
1.43146
1.42829
1.42506
1.42185
1.41876
1.41586
1.41319
1.4108
1.40871
1.40691
1.4054
1.40415
1.40314
1.40233
1.4017
1.40121
1.40084
1.40057
1.40037
1.40023
1.40013
1.40006
1.40002
1.4
1.39998
1.39997
1.39997
1.39997
1.39998
1.39998
1.39999
1.39999
1.40135
1.40191
1.40268
1.40369
1.40498
1.40658
1.40853
1.41083
1.41348
1.41645
1.41967
1.42308
1.42659
1.43009
1.43349
1.4367
1.43965
1.44228
1.44456
1.44648
1.44804
1.44928
1.45022
1.45091
1.45139
1.45171
1.45191
1.45202
1.45208
1.45209
1.45208
1.45204
1.45196
1.45182
1.45157
1.45119
1.45062
1.44979
1.44867
1.44719
1.44532
1.44304
1.44036
1.43732
1.434
1.43049
1.42689
1.42333
1.41991
1.4167
1.41379
1.4112
1.40894
1.40703
1.40543
1.40413
1.40308
1.40226
1.40162
1.40114
1.40077
1.40051
1.40032
1.40019
1.4001
1.40004
1.4
1.39998
1.39997
1.39997
1.39997
1.39997
1.39998
1.39998
1.39999
1.40183
1.40259
1.4036
1.40491
1.40657
1.40862
1.41106
1.41391
1.41712
1.42063
1.42437
1.42821
1.43204
1.43573
1.43918
1.44229
1.44499
1.44726
1.44908
1.45047
1.45147
1.45212
1.45248
1.45263
1.45263
1.45252
1.45236
1.45221
1.45209
1.45202
1.45202
1.45208
1.45221
1.45237
1.45252
1.45262
1.4526
1.45239
1.45192
1.45108
1.44983
1.44808
1.44582
1.44305
1.43982
1.43623
1.4324
1.42846
1.42456
1.42082
1.41735
1.4142
1.41143
1.40904
1.40704
1.40538
1.40404
1.40298
1.40215
1.40152
1.40105
1.4007
1.40045
1.40027
1.40015
1.40007
1.40002
1.39999
1.39997
1.39997
1.39996
1.39997
1.39997
1.39998
1.39998
1.40246
1.40345
1.40477
1.40645
1.40856
1.41111
1.41412
1.41756
1.42135
1.42539
1.42956
1.4337
1.43766
1.44131
1.44454
1.44725
1.44942
1.45104
1.45213
1.45275
1.45298
1.45288
1.45254
1.45204
1.45146
1.45087
1.45032
1.44986
1.44954
1.44937
1.44937
1.44954
1.44988
1.45036
1.45094
1.45158
1.4522
1.45272
1.45305
1.45308
1.45269
1.45178
1.45027
1.44811
1.44531
1.44194
1.43812
1.43399
1.42973
1.42551
1.42148
1.41776
1.41442
1.4115
1.40901
1.40693
1.40524
1.40389
1.40283
1.40201
1.4014
1.40094
1.40061
1.40038
1.40022
1.40011
1.40004
1.4
1.39997
1.39996
1.39996
1.39996
1.39997
1.39997
1.39998
1.40325
1.40454
1.40623
1.40836
1.41099
1.41413
1.41775
1.42179
1.42612
1.4306
1.43504
1.43926
1.44309
1.44638
1.44905
1.45105
1.45238
1.45308
1.45323
1.45291
1.45222
1.45127
1.45016
1.44898
1.44781
1.44673
1.44578
1.44503
1.4445
1.44423
1.44422
1.44448
1.44501
1.44579
1.44678
1.44794
1.4492
1.45049
1.4517
1.45271
1.45337
1.45355
1.4531
1.45191
1.44993
1.44715
1.44366
1.43962
1.43521
1.43065
1.42614
1.42186
1.41792
1.41442
1.41139
1.40884
1.40673
1.40503
1.40369
1.40264
1.40185
1.40126
1.40083
1.40052
1.40031
1.40017
1.40007
1.40001
1.39998
1.39996
1.39996
1.39996
1.39996
1.39997
1.39997
1.40426
1.40591
1.40803
1.41069
1.41391
1.41768
1.42194
1.42654
1.43131
1.43604
1.44051
1.4445
1.44784
1.45043
1.45221
1.45319
1.45344
1.45303
1.45209
1.45073
1.4491
1.44729
1.44543
1.4436
1.44189
1.44036
1.43907
1.43805
1.43734
1.43697
1.43694
1.43727
1.43795
1.43897
1.4403
1.44191
1.44375
1.44574
1.4478
1.44979
1.45158
1.45298
1.45382
1.4539
1.45309
1.4513
1.44857
1.44498
1.44073
1.43606
1.43122
1.42645
1.42195
1.41784
1.41423
1.41113
1.40854
1.40643
1.40475
1.40343
1.40243
1.40167
1.40112
1.40072
1.40044
1.40024
1.40012
1.40004
1.39999
1.39997
1.39995
1.39995
1.39996
1.39996
1.39997
1.40551
1.40758
1.41023
1.41349
1.41736
1.42178
1.42662
1.43168
1.43669
1.4414
1.44556
1.44895
1.45144
1.45298
1.45359
1.45333
1.45233
1.45073
1.44867
1.44631
1.44378
1.4412
1.43869
1.43631
1.43415
1.43227
1.43069
1.42947
1.42863
1.42817
1.42812
1.42849
1.42927
1.43045
1.43204
1.43399
1.43627
1.43884
1.44161
1.44448
1.44731
1.44993
1.45213
1.45365
1.4543
1.45387
1.4523
1.44959
1.44589
1.44144
1.43651
1.43142
1.42642
1.42174
1.41752
1.41383
1.4107
1.40813
1.40605
1.40441
1.40314
1.40218
1.40148
1.40096
1.4006
1.40035
1.40018
1.40007
1.40001
1.39997
1.39995
1.39995
1.39995
1.39996
1.39996
1.40704
1.40962
1.41286
1.41678
1.42133
1.42636
1.43168
1.43698
1.44194
1.44628
1.44973
1.45214
1.45345
1.45368
1.45292
1.45132
1.44905
1.44629
1.44321
1.43996
1.43669
1.43349
1.43046
1.42768
1.4252
1.42306
1.42131
1.41995
1.41901
1.4185
1.41843
1.4188
1.41963
1.42092
1.42265
1.42481
1.42739
1.43036
1.43365
1.4372
1.4409
1.44458
1.44804
1.45103
1.45325
1.45444
1.45438
1.45297
1.45026
1.44642
1.44174
1.43656
1.43124
1.42606
1.42125
1.41696
1.41325
1.41015
1.40761
1.40559
1.40402
1.40282
1.40193
1.40128
1.40081
1.40049
1.40027
1.40013
1.40004
1.39998
1.39996
1.39995
1.39995
1.39995
1.39996
1.4089
1.41206
1.41596
1.42057
1.42576
1.4313
1.43688
1.44212
1.44667
1.45022
1.4526
1.4537
1.45358
1.45235
1.45018
1.44728
1.44384
1.44007
1.43614
1.43219
1.42835
1.42471
1.42134
1.41831
1.41564
1.41337
1.41152
1.41009
1.40911
1.40856
1.40847
1.40884
1.40968
1.41099
1.41278
1.41504
1.41777
1.42096
1.42457
1.42857
1.43287
1.43737
1.44188
1.44616
1.44991
1.45278
1.45445
1.45468
1.45337
1.45058
1.44655
1.44164
1.43622
1.4307
1.42537
1.42049
1.41618
1.41251
1.40947
1.40702
1.40509
1.40361
1.40249
1.40167
1.40108
1.40066
1.40038
1.40019
1.40008
1.4
1.39997
1.39995
1.39994
1.39994
1.39995
1.41112
1.41493
1.41953
1.42482
1.43055
1.4364
1.44194
1.44674
1.45046
1.45285
1.45382
1.45341
1.45176
1.44907
1.44557
1.44151
1.4371
1.43253
1.42796
1.42353
1.41933
1.41544
1.4119
1.40875
1.40602
1.40372
1.40185
1.40042
1.39943
1.39887
1.39877
1.39911
1.39992
1.4012
1.40296
1.40522
1.40798
1.41124
1.41499
1.41921
1.42387
1.42889
1.43415
1.43945
1.44451
1.44896
1.45239
1.45444
1.45485
1.45352
1.45058
1.44631
1.44113
1.43549
1.4298
1.42439
1.41949
1.41523
1.41164
1.4087
1.40637
1.40455
1.40318
1.40216
1.40141
1.40089
1.40053
1.40028
1.40013
1.40003
1.39998
1.39995
1.39994
1.39994
1.39995
1.41373
1.41825
1.42355
1.42943
1.43553
1.44138
1.44649
1.45044
1.45294
1.45386
1.45324
1.45125
1.44811
1.44409
1.43946
1.43446
1.42932
1.42419
1.41922
1.41451
1.41014
1.40616
1.40259
1.39946
1.39677
1.39452
1.3927
1.39131
1.39034
1.38979
1.38967
1.38997
1.39072
1.39192
1.3936
1.39578
1.39847
1.40168
1.40542
1.40969
1.41448
1.41976
1.42545
1.43144
1.43748
1.44324
1.4483
1.45218
1.45447
1.45492
1.45345
1.45025
1.44569
1.44023
1.43439
1.42858
1.42314
1.41829
1.41412
1.41066
1.40787
1.40568
1.404
1.40275
1.40183
1.40117
1.40071
1.4004
1.4002
1.40007
1.4
1.39996
1.39994
1.39994
1.39994
1.41676
1.42199
1.42794
1.43425
1.44042
1.44589
1.45016
1.45287
1.45386
1.45314
1.4509
1.4474
1.44293
1.4378
1.43229
1.42661
1.42097
1.41551
1.41034
1.40555
1.40117
1.39724
1.39377
1.39075
1.38819
1.38605
1.38434
1.38302
1.3821
1.38156
1.38142
1.38166
1.38232
1.38341
1.38495
1.38698
1.38951
1.39258
1.39621
1.40039
1.40515
1.41048
1.41635
1.4227
1.42937
1.4361
1.44248
1.44802
1.4522
1.45457
1.45488
1.45313
1.44958
1.44467
1.43895
1.43293
1.42706
1.42166
1.41691
1.4129
1.40962
1.407
1.40498
1.40345
1.40233
1.40151
1.40094
1.40055
1.40029
1.40013
1.40003
1.39997
1.39994
1.39994
1.39994
1.42019
1.42611
1.43256
1.43904
1.44492
1.44961
1.45265
1.45382
1.45313
1.45076
1.44699
1.44217
1.43662
1.43064
1.4245
1.41839
1.41248
1.40688
1.40169
1.39696
1.39271
1.38895
1.38567
1.38286
1.38049
1.37853
1.37696
1.37575
1.37489
1.37437
1.37419
1.37436
1.3749
1.37582
1.37718
1.37899
1.3813
1.38416
1.38758
1.39158
1.39619
1.40142
1.40728
1.41374
1.42072
1.42804
1.43539
1.44228
1.44816
1.45245
1.4547
1.45471
1.45254
1.44856
1.44327
1.43729
1.43115
1.42529
1.41999
1.41542
1.41161
1.40854
1.40613
1.40429
1.40292
1.40193
1.40122
1.40073
1.40041
1.4002
1.40007
1.39999
1.39995
1.39994
1.39993
1.42399
1.4305
1.43724
1.44354
1.44872
1.45222
1.45373
1.45321
1.45084
1.44694
1.44185
1.43595
1.42958
1.42301
1.41646
1.41013
1.40414
1.39858
1.39352
1.38898
1.38498
1.38149
1.37849
1.37596
1.37384
1.37211
1.37072
1.36964
1.36886
1.36836
1.36814
1.36821
1.36859
1.36931
1.37042
1.37196
1.37398
1.37653
1.37966
1.3834
1.38777
1.3928
1.39851
1.40489
1.41194
1.41955
1.42749
1.43538
1.44266
1.4487
1.4529
1.45482
1.45434
1.45163
1.44714
1.44149
1.43529
1.4291
1.42332
1.41819
1.41384
1.41028
1.40745
1.40527
1.40363
1.40242
1.40156
1.40096
1.40055
1.40029
1.40012
1.40002
1.39997
1.39994
1.39993
1.42809
1.435
1.44172
1.44745
1.45153
1.45353
1.45335
1.45114
1.44722
1.44198
1.43583
1.42911
1.42216
1.41522
1.40848
1.4021
1.3962
1.39082
1.38602
1.38179
1.37813
1.37501
1.37238
1.37018
1.36839
1.36692
1.36576
1.36484
1.36415
1.36368
1.36341
1.36336
1.36355
1.36403
1.36484
1.36603
1.36767
1.36983
1.37258
1.37595
1.38
1.38474
1.3902
1.39639
1.40333
1.41099
1.41922
1.42774
1.43608
1.44359
1.44958
1.45345
1.45484
1.4537
1.45034
1.44533
1.43933
1.43299
1.42682
1.42119
1.41631
1.41224
1.40896
1.40639
1.40445
1.40301
1.40196
1.40123
1.40073
1.4004
1.40019
1.40006
1.39998
1.39995
1.39993
1.43236
1.43942
1.44574
1.4505
1.45316
1.45349
1.4516
1.44782
1.44255
1.43623
1.42925
1.42196
1.41465
1.40752
1.40077
1.3945
1.38882
1.38375
1.37932
1.37552
1.3723
1.36964
1.36745
1.36568
1.36426
1.36312
1.36221
1.36149
1.36091
1.36047
1.36015
1.35997
1.35995
1.36014
1.36059
1.36137
1.36255
1.36422
1.36647
1.36938
1.37298
1.37734
1.38245
1.38836
1.39508
1.40262
1.4109
1.41975
1.42879
1.43744
1.44498
1.45069
1.45399
1.45463
1.45269
1.44864
1.44312
1.43684
1.43043
1.42438
1.41898
1.4144
1.41064
1.40767
1.40539
1.40368
1.40244
1.40155
1.40094
1.40053
1.40027
1.40011
1.40001
1.39996
1.39994
1.43665
1.44352
1.44904
1.4525
1.45354
1.45216
1.44868
1.44352
1.43714
1.42998
1.42241
1.41474
1.40725
1.40011
1.39349
1.38747
1.38214
1.3775
1.37356
1.37029
1.36762
1.3655
1.36384
1.36256
1.36158
1.36082
1.36022
1.35972
1.35928
1.35888
1.35851
1.35819
1.35794
1.35781
1.35785
1.35815
1.3588
1.35989
1.36154
1.36383
1.36687
1.3707
1.37537
1.3809
1.3873
1.39459
1.40276
1.4117
1.42113
1.43058
1.43937
1.44671
1.45187
1.45437
1.45407
1.45126
1.4465
1.44052
1.43405
1.42768
1.42183
1.41674
1.41251
1.4091
1.40646
1.40446
1.40299
1.40193
1.4012
1.4007
1.40037
1.40017
1.40004
1.39998
1.39994
1.44076
1.44706
1.45145
1.45337
1.45271
1.44973
1.44484
1.43853
1.43126
1.42347
1.4155
1.40764
1.40012
1.39312
1.38676
1.38114
1.37627
1.37219
1.36885
1.36621
1.36419
1.36271
1.36165
1.36094
1.36045
1.36012
1.35985
1.3596
1.35931
1.35897
1.35856
1.35809
1.35761
1.35714
1.35676
1.35654
1.35659
1.35702
1.35795
1.35952
1.36184
1.36501
1.36908
1.3741
1.38007
1.38702
1.39494
1.40378
1.41337
1.42333
1.43305
1.44175
1.44862
1.45296
1.45442
1.45307
1.44933
1.44391
1.43757
1.43102
1.4248
1.41925
1.41453
1.41068
1.40765
1.40534
1.40361
1.40237
1.40149
1.40089
1.4005
1.40024
1.40009
1.4
1.39995
1.44448
1.44986
1.45284
1.45312
1.45084
1.4464
1.44031
1.43307
1.42513
1.4169
1.4087
1.40079
1.3934
1.38667
1.38071
1.37559
1.37133
1.36791
1.36529
1.36339
1.36211
1.36135
1.36097
1.36086
1.36091
1.36102
1.36111
1.3611
1.36097
1.36069
1.36024
1.35965
1.35893
1.35814
1.35733
1.35659
1.35601
1.35573
1.35587
1.3566
1.35808
1.36042
1.36375
1.3681
1.37351
1.37999
1.38755
1.39616
1.40571
1.41592
1.42628
1.43606
1.4444
1.45049
1.45375
1.454
1.45152
1.44689
1.4409
1.43434
1.42785
1.42188
1.4167
1.4124
1.40897
1.40632
1.40432
1.40287
1.40183
1.40112
1.40064
1.40033
1.40014
1.40003
1.39997
1.44762
1.45179
1.45322
1.45187
1.4481
1.44241
1.43532
1.42735
1.41892
1.41041
1.40212
1.39432
1.38718
1.38085
1.37542
1.37093
1.36739
1.36475
1.36295
1.36189
1.36144
1.36145
1.36179
1.36231
1.36289
1.36342
1.36383
1.36404
1.36404
1.3638
1.36332
1.36261
1.3617
1.36062
1.35943
1.3582
1.35702
1.35603
1.35536
1.3552
1.35573
1.35712
1.35953
1.36306
1.36775
1.37362
1.38069
1.38894
1.39829
1.40855
1.41929
1.42987
1.43944
1.4471
1.4521
1.45405
1.45298
1.44937
1.44394
1.43754
1.43091
1.4246
1.41899
1.41425
1.41041
1.4074
1.40511
1.40343
1.40222
1.40138
1.40081
1.40044
1.40021
1.40007
1.39999
1.45006
1.45282
1.45265
1.44979
1.4447
1.43794
1.43005
1.42151
1.41275
1.40411
1.39588
1.38831
1.38156
1.37575
1.37097
1.36723
1.36452
1.36278
1.3619
1.36175
1.36217
1.36298
1.36402
1.36513
1.36616
1.36703
1.36767
1.36803
1.3681
1.36787
1.36735
1.36656
1.3655
1.36421
1.36272
1.36109
1.3594
1.35777
1.35634
1.35529
1.35484
1.3552
1.35657
1.35911
1.36292
1.36804
1.37447
1.38222
1.39124
1.40136
1.41226
1.42339
1.43393
1.44296
1.44959
1.45323
1.4537
1.45127
1.44661
1.44055
1.43391
1.42736
1.42138
1.41621
1.41195
1.40857
1.40598
1.40405
1.40266
1.40168
1.40101
1.40057
1.40028
1.40011
1.40001
1.45172
1.45297
1.45128
1.44704
1.44081
1.43317
1.42464
1.4157
1.40673
1.3981
1.39006
1.38284
1.37659
1.37143
1.36742
1.36454
1.36278
1.36202
1.36213
1.36293
1.36422
1.36578
1.36742
1.36898
1.37032
1.37138
1.3721
1.37248
1.37253
1.37227
1.37171
1.37088
1.36976
1.36837
1.36672
1.36484
1.36279
1.36067
1.35859
1.35674
1.35535
1.35466
1.35493
1.35638
1.35915
1.36335
1.36901
1.37612
1.38465
1.39448
1.40536
1.4168
1.42806
1.43823
1.44634
1.45162
1.45366
1.45257
1.44885
1.4433
1.4368
1.43012
1.42382
1.41826
1.41359
1.40984
1.40693
1.40474
1.40315
1.40201
1.40123
1.40071
1.40038
1.40017
1.40005
1.4526
1.45235
1.44924
1.44379
1.4366
1.42823
1.41921
1.40999
1.40097
1.39246
1.38472
1.37797
1.37235
1.36795
1.36481
1.36291
1.36217
1.36246
1.36359
1.36531
1.36738
1.36954
1.3716
1.37338
1.37479
1.3758
1.37641
1.37666
1.37659
1.37625
1.37567
1.37485
1.37379
1.37246
1.37084
1.36892
1.36672
1.3643
1.36177
1.35929
1.35707
1.3554
1.35457
1.35487
1.35651
1.35966
1.36439
1.37072
1.37862
1.38802
1.3987
1.41025
1.42201
1.43309
1.44249
1.4493
1.45292
1.45323
1.4506
1.44573
1.43952
1.43281
1.42628
1.42036
1.41531
1.41119
1.40795
1.40549
1.40368
1.40238
1.40148
1.40088
1.40048
1.40023
1.40008
1.45275
1.45107
1.44669
1.44018
1.43217
1.42323
1.41385
1.40449
1.39552
1.38725
1.37993
1.37376
1.36887
1.36533
1.36316
1.36232
1.36268
1.36404
1.36613
1.36866
1.37131
1.37383
1.37599
1.37769
1.37887
1.37956
1.37983
1.37976
1.37946
1.379
1.37842
1.37772
1.37688
1.37581
1.37446
1.37275
1.37067
1.36822
1.36549
1.36259
1.35975
1.35724
1.35539
1.35454
1.355
1.357
1.36068
1.36609
1.37324
1.38207
1.39239
1.40387
1.41592
1.42769
1.43818
1.44638
1.45153
1.45329
1.45184
1.4478
1.44202
1.43541
1.42872
1.4225
1.41709
1.4126
1.40903
1.4063
1.40426
1.40279
1.40176
1.40106
1.4006
1.4003
1.40013
1.45227
1.44927
1.44374
1.43633
1.42764
1.41825
1.40864
1.39925
1.39045
1.38252
1.37572
1.37023
1.36616
1.36358
1.36248
1.36275
1.36422
1.36658
1.36951
1.37261
1.37556
1.37807
1.37998
1.38121
1.38181
1.38186
1.38152
1.38095
1.3803
1.37967
1.37914
1.3787
1.37827
1.37773
1.37694
1.37577
1.37412
1.37196
1.36931
1.36628
1.36306
1.35991
1.35719
1.35529
1.35458
1.35539
1.35792
1.36231
1.36858
1.37669
1.38652
1.39777
1.40991
1.42217
1.43355
1.44298
1.44956
1.45277
1.45258
1.44948
1.44426
1.43786
1.43111
1.42465
1.41891
1.41407
1.41017
1.40715
1.40488
1.40323
1.40206
1.40126
1.40073
1.40039
1.40018
1.45125
1.44704
1.44052
1.43233
1.4231
1.41338
1.40365
1.39433
1.38579
1.37831
1.37212
1.36739
1.36424
1.36271
1.36272
1.36412
1.36663
1.36987
1.37338
1.37674
1.37958
1.38166
1.38287
1.38322
1.38283
1.38189
1.38066
1.37936
1.37821
1.37738
1.37695
1.3769
1.37714
1.37745
1.3776
1.37736
1.37653
1.37502
1.37282
1.36999
1.36668
1.36315
1.35976
1.35695
1.35514
1.35476
1.35611
1.35938
1.36466
1.37195
1.38116
1.39202
1.40409
1.41665
1.42872
1.43921
1.44711
1.45172
1.45282
1.45075
1.44621
1.44013
1.43341
1.42678
1.42075
1.41558
1.41136
1.40805
1.40554
1.4037
1.40239
1.40149
1.40088
1.40048
1.40024
1.4498
1.44451
1.43712
1.42828
1.41862
1.40868
1.39892
1.38978
1.38158
1.37462
1.36913
1.36526
1.3631
1.36265
1.3638
1.36629
1.36971
1.37357
1.37733
1.38052
1.3828
1.38397
1.384
1.383
1.38117
1.37884
1.37635
1.37404
1.37221
1.3711
1.37081
1.37133
1.37252
1.37408
1.37564
1.37683
1.37733
1.37694
1.37558
1.37331
1.37026
1.36666
1.36286
1.35933
1.35656
1.35505
1.35519
1.3573
1.36151
1.36788
1.37634
1.3867
1.39855
1.41123
1.42381
1.43519
1.44427
1.45021
1.45261
1.45161
1.44785
1.44219
1.43559
1.42886
1.42259
1.41712
1.41258
1.40899
1.40624
1.4042
1.40274
1.40172
1.40104
1.40059
1.4003
1.44801
1.44176
1.43361
1.42425
1.41426
1.40419
1.3945
1.3856
1.37783
1.37147
1.36675
1.3638
1.36269
1.36336
1.36562
1.36907
1.37317
1.37732
1.38092
1.38348
1.3847
1.38443
1.38275
1.37984
1.37606
1.37183
1.36765
1.36398
1.36124
1.35974
1.35963
1.3609
1.36336
1.36662
1.37017
1.37341
1.37586
1.37716
1.37716
1.37588
1.37346
1.37012
1.36622
1.36222
1.35866
1.35612
1.35512
1.35603
1.35912
1.36449
1.37212
1.38186
1.39335
1.40599
1.41891
1.43101
1.44113
1.44831
1.45197
1.45209
1.44917
1.44402
1.43763
1.43087
1.4244
1.41865
1.41383
1.40995
1.40696
1.40473
1.40311
1.40198
1.40121
1.4007
1.40037
1.44596
1.43886
1.43009
1.42029
1.41006
1.39995
1.3904
1.38183
1.37455
1.36886
1.36496
1.36299
1.36295
1.36473
1.36799
1.37221
1.37669
1.38074
1.38372
1.38514
1.38476
1.38249
1.37847
1.37304
1.36667
1.35997
1.35359
1.34818
1.34427
1.34226
1.34235
1.34455
1.34861
1.35407
1.36021
1.36625
1.37142
1.37513
1.37711
1.37733
1.37595
1.37324
1.36956
1.36538
1.36126
1.35786
1.35579
1.35554
1.35747
1.36178
1.3685
1.37752
1.38854
1.40101
1.41412
1.42677
1.43779
1.4461
1.45097
1.45221
1.45017
1.44562
1.43951
1.43278
1.42617
1.42018
1.41508
1.41093
1.4077
1.40527
1.4035
1.40225
1.40139
1.40082
1.40045
1.44373
1.4359
1.42659
1.41645
1.40608
1.39599
1.38665
1.37846
1.37174
1.36677
1.36374
1.36277
1.36381
1.36662
1.37073
1.37545
1.37996
1.38348
1.38535
1.38511
1.38253
1.37761
1.37058
1.3619
1.35224
1.34243
1.33334
1.32579
1.32046
1.31783
1.31815
1.32144
1.32742
1.33552
1.3449
1.3545
1.36324
1.37023
1.37496
1.37731
1.37747
1.37577
1.37264
1.36857
1.36416
1.36009
1.35708
1.35573
1.35652
1.35973
1.36547
1.3737
1.38415
1.39634
1.40949
1.42255
1.43433
1.44365
1.44966
1.452
1.45088
1.44697
1.44122
1.43458
1.42788
1.42169
1.41633
1.41193
1.40846
1.40583
1.40391
1.40253
1.40158
1.40095
1.40053
1.4414
1.43293
1.42317
1.41278
1.40232
1.39232
1.38325
1.3755
1.36937
1.36516
1.36304
1.36308
1.36514
1.36887
1.37362
1.37854
1.38269
1.38522
1.38549
1.38302
1.37762
1.36933
1.35852
1.34583
1.33217
1.31864
1.30634
1.2963
1.28932
1.28598
1.28657
1.29111
1.29928
1.31043
1.32358
1.33745
1.35062
1.36184
1.37023
1.37547
1.37775
1.3775
1.37525
1.37159
1.36715
1.36265
1.35886
1.35652
1.3562
1.35831
1.36304
1.37041
1.38021
1.39202
1.40509
1.41843
1.43081
1.44103
1.44809
1.4515
1.4513
1.44808
1.44274
1.43626
1.42951
1.42315
1.41756
1.41292
1.40922
1.4064
1.40432
1.40282
1.40178
1.40108
1.40062
1.43902
1.42999
1.41988
1.4093
1.39881
1.38896
1.38021
1.37293
1.36744
1.36401
1.36281
1.36383
1.36684
1.37132
1.37646
1.38124
1.38463
1.38573
1.38387
1.37859
1.36968
1.35729
1.34191
1.32445
1.30612
1.2883
1.27237
1.25954
1.25075
1.24664
1.24755
1.25348
1.2641
1.27865
1.29602
1.31474
1.33309
1.34942
1.36241
1.37143
1.37654
1.37824
1.37725
1.37428
1.37006
1.36536
1.36099
1.35778
1.35643
1.35746
1.36117
1.36763
1.37673
1.38806
1.40096
1.41445
1.42732
1.43831
1.44634
1.45076
1.45148
1.44896
1.44407
1.43779
1.43105
1.42456
1.41876
1.41389
1.40999
1.40698
1.40473
1.40312
1.40199
1.40122
1.40071
1.43664
1.42714
1.41673
1.40603
1.39558
1.3859
1.3775
1.37073
1.3659
1.36326
1.36297
1.36492
1.36876
1.37381
1.37905
1.38335
1.38559
1.38482
1.38031
1.37161
1.35853
1.3413
1.32062
1.2977
1.27409
1.25151
1.23159
1.21572
1.20495
1.20002
1.2013
1.2088
1.22213
1.24043
1.26243
1.28645
1.31055
1.3327
1.35116
1.36485
1.37356
1.37782
1.3785
1.37653
1.37277
1.36808
1.36332
1.3594
1.35712
1.35712
1.35981
1.36536
1.37369
1.38449
1.39712
1.41066
1.4239
1.43555
1.44445
1.44981
1.45142
1.44963
1.44522
1.43919
1.43249
1.4259
1.41993
1.41485
1.41074
1.40755
1.40515
1.40342
1.4022
1.40136
1.40081
1.43431
1.42441
1.41376
1.40299
1.39261
1.38315
1.37512
1.36889
1.36472
1.36287
1.36344
1.36625
1.37078
1.37617
1.38125
1.38475
1.38546
1.38237
1.37472
1.36203
1.34413
1.32139
1.29476
1.26579
1.23642
1.20869
1.18445
1.16527
1.15235
1.14651
1.1482
1.15743
1.17377
1.19622
1.22327
1.25303
1.28332
1.31182
1.3364
1.35552
1.36862
1.37607
1.37889
1.37824
1.37518
1.3707
1.36574
1.36127
1.35817
1.35722
1.35892
1.36354
1.3711
1.38131
1.39361
1.40709
1.4206
1.4328
1.44248
1.44872
1.45118
1.4501
1.44619
1.44043
1.43382
1.42716
1.42104
1.41578
1.41147
1.40811
1.40557
1.40372
1.40241
1.40151
1.40091
1.43206
1.42182
1.41097
1.40018
1.38992
1.3807
1.37305
1.36736
1.36386
1.36276
1.36415
1.36772
1.37278
1.37829
1.38294
1.38533
1.38416
1.37835
1.36711
1.34992
1.32667
1.29786
1.26475
1.22928
1.19376
1.16049
1.13158
1.1088
1.09352
1.08667
1.08878
1.0999
1.11954
1.14654
1.17913
1.21508
1.25194
1.28718
1.31835
1.3435
1.36163
1.3729
1.37833
1.37932
1.3772
1.37313
1.36814
1.36327
1.3595
1.35767
1.35843
1.36215
1.36891
1.37851
1.39041
1.40378
1.41746
1.43012
1.44047
1.44751
1.45078
1.45039
1.44699
1.44154
1.43503
1.42834
1.4221
1.41666
1.41218
1.40865
1.40598
1.40401
1.40262
1.40165
1.40101
1.42992
1.41941
1.4084
1.39761
1.3875
1.37853
1.37126
1.36612
1.36327
1.36289
1.36501
1.36924
1.37466
1.38007
1.38405
1.38507
1.38171
1.37284
1.35763
1.33554
1.30652
1.27124
1.23129
1.18899
1.14697
1.1078
1.07385
1.04719
1.02939
1.02151
1.0241
1.03725
1.0604
1.09227
1.13078
1.17333
1.21713
1.2594
1.29745
1.32902
1.3527
1.3683
1.37679
1.37975
1.37879
1.37529
1.37043
1.36532
1.36099
1.3584
1.3583
1.36114
1.36711
1.37607
1.38755
1.40074
1.41452
1.42754
1.43848
1.44624
1.45026
1.45053
1.44764
1.4425
1.43613
1.42943
1.42308
1.4175
1.41286
1.40918
1.40637
1.4043
1.40282
1.4018
1.40111
1.4279
1.41718
1.40604
1.39527
1.38534
1.37664
1.36974
1.36512
1.36291
1.36318
1.36595
1.37071
1.37635
1.38147
1.38456
1.38399
1.37821
1.36601
1.34655
1.3193
1.28424
1.24227
1.19529
1.14596
1.09714
1.05173
1.01249
0.981872
0.961666
0.952935
0.956179
0.971438
0.998163
1.03496
1.07953
1.12887
1.1798
1.22923
1.2743
1.31248
1.34202
1.36236
1.3743
1.37953
1.37993
1.37715
1.37255
1.36732
1.36258
1.35933
1.35844
1.36046
1.36567
1.37399
1.38502
1.39798
1.41179
1.42509
1.43653
1.44494
1.44964
1.45055
1.44815
1.44333
1.4371
1.43042
1.424
1.41828
1.4135
1.40968
1.40675
1.40458
1.40302
1.40194
1.4012
1.42603
1.41517
1.40392
1.39316
1.38343
1.37501
1.36845
1.36433
1.36273
1.36358
1.36689
1.37207
1.37779
1.38245
1.38448
1.38216
1.37381
1.35812
1.33425
1.30171
1.26055
1.21188
1.15788
1.10142
1.04562
0.993817
0.949355
0.915114
0.892968
0.883817
0.887971
0.905383
0.935504
0.976942
1.02728
1.08324
1.14118
1.19768
1.24967
1.29444
1.32993
1.35525
1.37094
1.37868
1.38062
1.37868
1.37445
1.36922
1.36417
1.36039
1.35879
1.36006
1.36453
1.37223
1.3828
1.39551
1.40929
1.42281
1.43467
1.44365
1.44897
1.45046
1.44853
1.44402
1.43796
1.43131
1.42483
1.41901
1.41409
1.41015
1.4071
1.40484
1.40321
1.40207
1.4013
1.4243
1.41336
1.40204
1.39127
1.38175
1.37364
1.36738
1.36369
1.36267
1.36406
1.36778
1.37327
1.37895
1.38303
1.38387
1.37972
1.36873
1.3495
1.32119
1.28338
1.23628
1.18114
1.12031
1.05681
0.994099
0.936135
0.886968
0.849829
0.826468
0.817435
0.822752
0.842247
0.875379
0.920844
0.976277
1.03825
1.10275
1.16596
1.22452
1.2756
1.31692
1.34725
1.36683
1.37728
1.38089
1.37989
1.37611
1.37097
1.36572
1.3615
1.3593
1.35987
1.36367
1.37077
1.38088
1.39332
1.40703
1.42071
1.43292
1.4424
1.44828
1.4503
1.44881
1.44461
1.43871
1.4321
1.42558
1.41966
1.41464
1.41058
1.40744
1.40509
1.40339
1.4022
1.40139
1.42273
1.41174
1.40042
1.38962
1.38026
1.37249
1.36653
1.36318
1.36268
1.36456
1.36859
1.37426
1.37985
1.38325
1.38281
1.37682
1.36325
1.34053
1.30786
1.26499
1.2123
1.15114
1.08391
1.01375
0.944582
0.881135
0.828153
0.789028
0.765172
0.756676
0.763259
0.784629
0.820255
0.868964
0.928563
0.995648
1.06597
1.13526
1.19986
1.25677
1.30356
1.33873
1.36219
1.37541
1.38078
1.38079
1.37751
1.37253
1.36717
1.3626
1.35989
1.35987
1.36304
1.36958
1.37925
1.3914
1.40503
1.41882
1.43132
1.44121
1.44758
1.45008
1.44899
1.44508
1.43934
1.43279
1.42624
1.42025
1.41513
1.41097
1.40774
1.40531
1.40356
1.40232
1.40147
1.42135
1.41031
1.39906
1.38823
1.37895
1.37152
1.36587
1.36276
1.36271
1.36505
1.36928
1.37501
1.38046
1.38317
1.38143
1.37364
1.35766
1.33164
1.29482
1.24721
1.18944
1.12293
1.05002
0.973953
0.899192
0.831277
0.775498
0.735192
0.711307
0.703482
0.711205
0.734112
0.771687
0.822869
0.885683
0.95688
1.03209
1.10669
1.17663
1.23873
1.29046
1.3301
1.35727
1.37322
1.38036
1.3814
1.37865
1.37387
1.36847
1.36366
1.36053
1.35998
1.36261
1.36864
1.37788