/*--------------------------------*- C++ -*----------------------------------*\
  =========                 |
  \\      /  F ield         | OpenFOAM: The Open Source CFD Toolbox
   \\    /   O peration     | Website:  https://openfoam.org
    \\  /    A nd           | Version:  6
     \\/     M anipulation  |
\*---------------------------------------------------------------------------*/
FoamFile
{
    version     2.0;
    format      ascii;
    class       volScalarField;
    location    "3.19";
    object      p;
}
// * * * * * * * * * * * * * * * * * * * * * * * * * * * * * * * * * * * * * //

dimensions      [1 -1 -2 0 0 0 0];

internalField   nonuniform List<scalar> 
10000
(
1
1
1
1
1
1
1
1
1
1
1
1
1
1
1
1
1
1
1
1
1
1
1
1
1
1
1
1
1
1
1
1
1
1
1
1
1
1
1
1
1
1
1
1
1
0.999999
0.999997
0.999995
0.999992
0.999988
0.999983
0.999978
0.999971
0.999965
0.999959
0.999955
0.999951
0.999951
0.999955
0.999961
0.999969
0.999981
0.999993
1.00001
1.00002
1.00003
1.00004
1.00005
1.00006
1.00006
1.00006
1.00006
1.00005
1.00005
1.00004
1.00003
1.00002
1.00002
1.00001
1.00001
1.00001
1
1
1
1
1
1
1
1
1
1
1
1
1
1
1
1
1
1
1
1
1
1
1
1
1
1
1
1
1
1
1
1
1
1
1
1
1
1
1
1
1
1
1
1
1
1
1
1
1
1
1
1
1
1
1
1
1
1
1
1
1
1
1
0.999999
0.999998
0.999996
0.999993
0.999989
0.999983
0.999976
0.999968
0.999959
0.999951
0.999943
0.999938
0.999935
0.999936
0.999942
0.999951
0.999965
0.999981
1
1.00002
1.00004
1.00006
1.00007
1.00008
1.00009
1.00009
1.00009
1.00008
1.00008
1.00007
1.00006
1.00005
1.00004
1.00003
1.00002
1.00001
1.00001
1.00001
1
1
1
1
1
1
1
1
1
1
1
1
1
1
1
1
1
1
1
1
1
1
1
1
1
1
1
1
1
1
1
1
1
1
1
1
1
1
1
1
1
1
1
1
1
1
1
1
1
1
1
1
1
1
1
1
1
1
1
1
1
1
0.999999
0.999997
0.999995
0.99999
0.999984
0.999976
0.999967
0.999956
0.999945
0.999934
0.999925
0.999919
0.999917
0.999921
0.999931
0.999947
0.999967
0.999991
1.00002
1.00004
1.00007
1.00009
1.00011
1.00012
1.00013
1.00013
1.00013
1.00012
1.00011
1.00009
1.00008
1.00006
1.00005
1.00004
1.00003
1.00002
1.00001
1.00001
1.00001
1
1
1
1
1
1
1
1
1
1
1
1
1
1
1
1
1
1
1
1
1
1
1
1
1
1
1
1
1
1
1
1
1
1
1
1
1
1
1
1
1
1
1
1
1
1
1
1
1
1
1
1
1
1
1
1
1
1
1
1
1
0.999999
0.999997
0.999993
0.999986
0.999978
0.999968
0.999955
0.999941
0.999927
0.999914
0.999905
0.9999
0.999902
0.999911
0.999928
0.999953
0.999984
1.00002
1.00006
1.00009
1.00013
1.00015
1.00018
1.00019
1.0002
1.0002
1.00019
1.00017
1.00016
1.00013
1.00011
1.00009
1.00007
1.00005
1.00004
1.00003
1.00002
1.00001
1.00001
1
1
1
1
1
1
1
1
1
1
1
1
1
1
1
1
1
1
1
1
1
1
1
1
1
1
1
1
1
1
1
1
1
1
1
1
1
1
1
1
1
1
1
1
1
1
1
1
1
1
1
1
1
1
1
1
1
1
1
1
1
0.999999
0.999996
0.999991
0.999983
0.999972
0.999958
0.999942
0.999925
0.999908
0.999894
0.999886
0.999886
0.999896
0.999915
0.999946
0.999985
1.00003
1.00008
1.00013
1.00018
1.00023
1.00026
1.00028
1.0003
1.0003
1.00029
1.00027
1.00025
1.00022
1.00019
1.00016
1.00013
1.0001
1.00007
1.00005
1.00004
1.00003
1.00002
1.00001
1
1
1
1
1
1
1
1
1
1
1
1
1
1
1
1
1
1
1
1
1
1
1
1
1
1
1
1
1
1
1
1
1
1
1
1
1
1
1
1
1
1
1
1
1
1
1
1
1
1
1
1
1
1
1
1
1
1
1
1
1
0.999999
0.999995
0.999989
0.999978
0.999964
0.999947
0.999928
0.999908
0.999891
0.999879
0.999877
0.999887
0.999912
0.99995
1
1.00007
1.00014
1.00021
1.00028
1.00035
1.0004
1.00044
1.00046
1.00047
1.00046
1.00044
1.0004
1.00036
1.00032
1.00027
1.00022
1.00018
1.00014
1.0001
1.00007
1.00005
1.00003
1.00002
1.00001
1.00001
1
1
0.999999
0.999999
0.999999
0.999999
0.999999
1
1
1
1
1
1
1
1
1
1
1
1
1
1
1
1
1
1
1
1
1
1
1
1
1
1
1
1
1
1
1
1
1
1
1
1
1
1
1
1
1
1
1
1
1
1
1
1
1
1
1
1
1
1
0.999995
0.999987
0.999974
0.999957
0.999936
0.999915
0.999895
0.999881
0.999878
0.999889
0.99992
0.999972
1.00004
1.00013
1.00023
1.00034
1.00045
1.00054
1.00063
1.00069
1.00073
1.00075
1.00074
1.00071
1.00066
1.0006
1.00053
1.00046
1.00038
1.00031
1.00025
1.00019
1.00014
1.0001
1.00007
1.00004
1.00003
1.00001
1.00001
1
1
0.999999
0.999998
0.999998
0.999999
0.999999
0.999999
1
1
1
1
1
1
1
1
1
1
1
1
1
1
1
1
1
1
1
1
1
1
1
1
1
1
1
1
1
1
1
1
1
1
1
1
1
1
1
1
1
1
1
1
1
1
1
1
1
1.00001
1.00001
1.00001
1
0.999997
0.999986
0.999971
0.999951
0.999929
0.999907
0.999892
0.999889
0.999904
0.999944
1.00001
1.00011
1.00024
1.00038
1.00054
1.0007
1.00086
1.00099
1.0011
1.00117
1.00121
1.0012
1.00117
1.0011
1.00101
1.0009
1.00078
1.00066
1.00055
1.00044
1.00034
1.00026
1.00019
1.00013
1.00009
1.00006
1.00003
1.00002
1.00001
1
0.999998
0.999997
0.999997
0.999997
0.999998
0.999998
0.999999
0.999999
1
1
1
1
1
1
1
1
1
1
1
1
1
1
1
1
1
1
1
1
1
1
1
1
1
1
1
1
1
1
1
1
1
1
1
1
1
1
1
1
1
1
1
1
1
1
1.00001
1.00001
1.00001
1.00001
1.00001
1.00001
1
0.999988
0.99997
0.99995
0.999928
0.999913
0.999911
0.999931
0.999983
1.00007
1.00021
1.00038
1.00059
1.00083
1.00107
1.00132
1.00154
1.00172
1.00186
1.00194
1.00197
1.00193
1.00184
1.00171
1.00154
1.00136
1.00116
1.00097
1.00079
1.00063
1.00048
1.00036
1.00026
1.00018
1.00012
1.00007
1.00004
1.00002
1.00001
0.999999
0.999996
0.999995
0.999995
0.999995
0.999996
0.999997
0.999998
0.999999
0.999999
1
1
1
1
1
1
1
1
1
1
1
1
1
1
1
1
1
1
1
1
1
1
1
1
1
1
1
1
1
1
1
1
1
1
1
1
1
1
1
1
1
1
1
1
1.00001
1.00001
1.00001
1.00001
1.00002
1.00002
1.00001
1.00001
0.999993
0.999975
0.999957
0.999942
0.999942
0.999969
1.00003
1.00015
1.00033
1.00056
1.00086
1.0012
1.00157
1.00195
1.0023
1.00262
1.00288
1.00305
1.00314
1.00314
1.00305
1.00287
1.00264
1.00236
1.00205
1.00174
1.00144
1.00116
1.00091
1.00069
1.00051
1.00036
1.00025
1.00016
1.0001
1.00005
1.00002
1.00001
0.999997
0.999992
0.999991
0.999991
0.999993
0.999994
0.999996
0.999997
0.999998
0.999999
0.999999
1
1
1
1
1
1
1
1
1
1
1
1
1
1
1
1
1
1
1
1
1
1
1
1
1
1
1
1
1
1
1
1
1
1
1
1
1
1
1
1
1
1
1.00001
1.00001
1.00001
1.00002
1.00002
1.00003
1.00003
1.00002
1.00002
1.00001
0.99999
0.999979
0.999982
1.00001
1.00009
1.00024
1.00046
1.00077
1.00117
1.00165
1.00218
1.00274
1.0033
1.00382
1.00427
1.00461
1.00484
1.00493
1.00489
1.00471
1.00442
1.00404
1.00359
1.0031
1.00261
1.00214
1.0017
1.00132
1.00099
1.00073
1.00051
1.00034
1.00022
1.00013
1.00007
1.00003
1.00001
0.999992
0.999987
0.999986
0.999987
0.999989
0.999992
0.999994
0.999996
0.999997
0.999998
0.999999
0.999999
1
1
1
1
1
1
1
1
1
1
1
1
1
1
1
1
1
1
1
1
1
1
1
1
1
1
1
1
1
1
1
1
1
1
1
1
1
1
1
1
1
1.00001
1.00001
1.00002
1.00002
1.00003
1.00004
1.00004
1.00004
1.00004
1.00003
1.00002
1.00003
1.00007
1.00016
1.00033
1.0006
1.00099
1.00151
1.00215
1.00289
1.00369
1.00452
1.00532
1.00605
1.00666
1.00712
1.00741
1.00751
1.00741
1.00712
1.00667
1.00608
1.00539
1.00465
1.0039
1.00318
1.00252
1.00194
1.00145
1.00105
1.00073
1.00049
1.00031
1.00018
1.00009
1.00004
1
0.999986
0.999979
0.999978
0.99998
0.999984
0.999988
0.999991
0.999994
0.999996
0.999997
0.999998
0.999999
0.999999
1
1
1
1
1
1
1
1
1
1
1
1
1
1
1
1
1
1
1
1
1
1
1
1
1
1
1
1
1
1
1
1
1
1
1
1
1
1
1
1.00001
1.00001
1.00002
1.00002
1.00003
1.00004
1.00005
1.00006
1.00006
1.00006
1.00006
1.00008
1.00012
1.00022
1.00041
1.00072
1.00119
1.00183
1.00265
1.00363
1.00473
1.0059
1.00707
1.00818
1.00917
1.00999
1.01059
1.01094
1.01104
1.01087
1.01045
1.0098
1.00894
1.00795
1.00686
1.00576
1.00469
1.00371
1.00285
1.00212
1.00152
1.00105
1.0007
1.00044
1.00025
1.00013
1.00005
1
0.99998
0.99997
0.999969
0.999972
0.999977
0.999982
0.999987
0.999991
0.999994
0.999996
0.999998
0.999999
0.999999
1
1
1
1
1
1
1
1
1
1
1
1
1
1
1
1
1
1
1
1
1
1
1
1
1
1
1
1
1
1
1
1
1
1
1
1
1
1
1.00001
1.00001
1.00002
1.00002
1.00003
1.00005
1.00006
1.00008
1.00009
1.0001
1.00011
1.00012
1.00017
1.00027
1.00047
1.00082
1.00135
1.00211
1.00312
1.00436
1.0058
1.00736
1.00899
1.01057
1.01205
1.01333
1.01437
1.01511
1.01554
1.01564
1.0154
1.01483
1.01395
1.0128
1.01143
1.00993
1.00837
1.00684
1.00542
1.00417
1.0031
1.00222
1.00154
1.00102
1.00063
1.00037
1.00019
1.00007
1.00001
0.999973
0.999958
0.999956
0.999961
0.999968
0.999975
0.999982
0.999987
0.999992
0.999995
0.999997
0.999998
0.999999
0.999999
1
1
1
1
1
1
1
1
1
1
1
1
1
1
1
1
1
1
1
1
1
1
1
1
1
1
1
1
1
1
1
1
1
1
1
1
1
1.00001
1.00001
1.00002
1.00003
1.00005
1.00006
1.00008
1.0001
1.00012
1.00014
1.00017
1.00022
1.00032
1.00052
1.00088
1.00146
1.00232
1.0035
1.005
1.00679
1.0088
1.01094
1.01308
1.01513
1.01698
1.01854
1.01978
1.02065
1.02113
1.02122
1.02091
1.02022
1.01915
1.01771
1.01596
1.01398
1.01189
1.00979
1.00781
1.00603
1.0045
1.00324
1.00224
1.00148
1.00093
1.00054
1.00028
1.00012
1.00002
0.999968
0.999946
0.999942
0.999947
0.999956
0.999966
0.999975
0.999983
0.999988
0.999992
0.999995
0.999997
0.999998
0.999999
0.999999
1
1
1
1
1
1
1
1
1
1
1
1
1
1
1
1
1
1
1
1
1
1
1
1
1
1
1
1
1
1
1
1
1
1
1
1.00001
1.00001
1.00002
1.00003
1.00004
1.00006
1.00009
1.00011
1.00014
1.00017
1.00021
1.00026
1.00036
1.00055
1.00091
1.0015
1.00242
1.00374
1.00548
1.00762
1.0101
1.01278
1.01554
1.01822
1.02068
1.02283
1.0246
1.02594
1.02685
1.02734
1.02741
1.02708
1.02633
1.02515
1.02353
1.02147
1.01906
1.01641
1.01367
1.01102
1.00857
1.00644
1.00466
1.00325
1.00216
1.00137
1.00081
1.00043
1.00019
1.00005
0.999969
0.999934
0.999926
0.999931
0.999942
0.999955
0.999967
0.999977
0.999984
0.99999
0.999994
0.999996
0.999998
0.999999
0.999999
1
1
1
1
1
1
1
1
1
1
1
1
1
1
1
1
1
1
1
1
1
1
1
1
1
1
1
1
1
1
1
1
1
1
1
1.00001
1.00001
1.00002
1.00004
1.00006
1.00008
1.00011
1.00015
1.00019
1.00023
1.00029
1.00039
1.00057
1.0009
1.00148
1.00242
1.00382
1.00574
1.0082
1.01113
1.01438
1.01777
1.02111
1.02421
1.02694
1.0292
1.03096
1.03222
1.03303
1.03344
1.03347
1.03316
1.03248
1.03137
1.02978
1.02763
1.02496
1.02186
1.01851
1.01513
1.01192
1.00906
1.00662
1.00465
1.00313
1.002
1.0012
1.00066
1.00031
1.0001
0.999981
0.999926
0.999909
0.999913
0.999926
0.999942
0.999957
0.999969
0.999979
0.999986
0.999991
0.999995
0.999997
0.999998
0.999999
0.999999
1
1
1
1
1
1
1
1
1
1
1
1
1
1
1
1
1
1
1
1
1
1
1
1
1
1
1
1
1
1
1
1
1
1.00001
1.00001
1.00002
1.00003
1.00005
1.00008
1.00011
1.00015
1.00019
1.00025
1.00031
1.00041
1.00057
1.00087
1.00141
1.00232
1.00373
1.00576
1.00847
1.01179
1.01559
1.01962
1.02362
1.02734
1.0306
1.03326
1.03528
1.03671
1.03762
1.03811
1.0383
1.03825
1.03802
1.03757
1.03681
1.03559
1.03375
1.03119
1.02794
1.02416
1.02013
1.01614
1.01244
1.00921
1.00655
1.00446
1.00289
1.00176
1.00099
1.00049
1.00018
1.00001
0.999927
0.999895
0.999894
0.999908
0.999926
0.999945
0.99996
0.999973
0.999982
0.999989
0.999993
0.999996
0.999998
0.999999
0.999999
0.999999
1
1
1
1
1
1
1
1
1
1
1
1
1
1
1
1
1
1
1
1
1
1
1
1
1
1
1
1
1
1
1
1
1.00001
1.00001
1.00002
1.00004
1.00006
1.0001
1.00014
1.00019
1.00025
1.00032
1.00041
1.00056
1.00083
1.00131
1.00213
1.00349
1.00553
1.00837
1.01201
1.01629
1.02093
1.02559
1.02991
1.03363
1.03657
1.03868
1.03999
1.04066
1.04087
1.04079
1.0406
1.04041
1.04031
1.04027
1.04016
1.03975
1.03874
1.03686
1.03399
1.03021
1.0258
1.02113
1.0166
1.0125
1.00902
1.00622
1.00409
1.00254
1.00147
1.00076
1.00032
1.00007
0.99994
0.999886
0.999876
0.999888
0.999909
0.999931
0.99995
0.999966
0.999977
0.999985
0.999991
0.999995
0.999997
0.999998
0.999999
0.999999
1
1
1
1
1
1
1
1
1
1
1
1
1
1
1
1
1
1
1
1
1
1
1
1
1
1
1
1
1
1
1
1
1.00001
1.00002
1.00003
1.00005
1.00008
1.00012
1.00017
1.00023
1.00031
1.00041
1.00055
1.00077
1.00118
1.0019
1.00313
1.00508
1.00793
1.01175
1.01641
1.02161
1.0269
1.03181
1.03595
1.03907
1.04107
1.04202
1.0421
1.04158
1.04075
1.03986
1.03915
1.03877
1.03882
1.03931
1.04011
1.04092
1.04131
1.0408
1.03904
1.03593
1.03166
1.02665
1.02144
1.01648
1.0121
1.0085
1.00568
1.0036
1.00214
1.00116
1.00054
1.00017
0.999976
0.999887
0.999861
0.999869
0.99989
0.999915
0.999938
0.999957
0.999971
0.999982
0.999988
0.999993
0.999996
0.999998
0.999999
0.999999
1
1
1
1
1
1
1
1
1
1
1
1
1
1
1
1
1
0.999999
1
1
1
1
1
1
1
1
1
1
1
1
1
1.00001
1.00001
1.00002
1.00004
1.00006
1.0001
1.00015
1.00021
1.00029
1.00038
1.00051
1.00071
1.00105
1.00166
1.00271
1.00447
1.00718
1.01101
1.01591
1.02158
1.02748
1.03298
1.03753
1.04078
1.04257
1.04296
1.04219
1.0406
1.03857
1.03648
1.03465
1.03333
1.03271
1.03291
1.03396
1.03578
1.03807
1.04031
1.04183
1.04198
1.04037
1.037
1.03223
1.02669
1.02103
1.01579
1.0113
1.0077
1.00497
1.00302
1.0017
1.00084
1.00033
1.00004
0.999904
0.999854
0.999851
0.999871
0.999898
0.999925
0.999947
0.999965
0.999977
0.999986
0.999991
0.999995
0.999997
0.999998
0.999999
0.999999
1
1
1
1
1
1
1
1
1
1
1
1
1
1
1
1
1
1
1
1
1
1
1
1
1
1
1
1
1
1
1.00001
1.00002
1.00003
1.00005
1.00008
1.00012
1.00018
1.00026
1.00035
1.00047
1.00065
1.00093
1.00141
1.00229
1.00379
1.00623
1.00987
1.01481
1.0208
1.02725
1.03337
1.03841
1.04184
1.04341
1.04317
1.0414
1.03853
1.03503
1.03138
1.028
1.02523
1.02333
1.02246
1.02276
1.02432
1.0271
1.03087
1.03513
1.03907
1.04179
1.04253
1.04094
1.0372
1.03192
1.02592
1.01996
1.0146
1.01015
1.0067
1.00417
1.00241
1.00126
1.00055
1.00015
0.999943
0.999857
0.999839
0.999854
0.999882
0.999911
0.999937
0.999957
0.999972
0.999982
0.999989
0.999994
0.999996
0.999998
0.999999
0.999999
1
1
1
1
1
1
1
1
1
1
1
1
1
1
1
1
1
1
1
1
1
1
1
1
1
1
1
1
1
1.00001
1.00001
1.00002
1.00003
1.00006
1.0001
1.00015
1.00022
1.0003
1.00042
1.00057
1.00081
1.00119
1.00188
1.00311
1.00519
1.00846
1.01318
1.01927
1.02617
1.03294
1.03858
1.04233
1.04381
1.04303
1.04028
1.03608
1.03102
1.02568
1.02055
1.01605
1.01249
1.0101
1.00901
1.00937
1.01129
1.01482
1.01986
1.02597
1.03236
1.03795
1.04165
1.04267
1.04083
1.03656
1.03076
1.0244
1.0183
1.01302
1.00877
1.00558
1.00332
1.00181
1.00086
1.00031
1.00001
0.999876
0.999834
0.999839
0.999866
0.999897
0.999926
0.999949
0.999967
0.999979
0.999987
0.999992
0.999996
0.999998
0.999998
0.999999
1
1
1
1
1
1
1
1
1
1
1
1
1
1
1
1
1
1
1
1
1
1
1
1
1
1
1
1
1
1.00001
1.00001
1.00002
1.00004
1.00007
1.00011
1.00017
1.00025
1.00036
1.00049
1.00069
1.001
1.00153
1.00248
1.00416
1.00694
1.0112
1.01709
1.02422
1.03162
1.03802
1.04233
1.04398
1.04287
1.03931
1.0339
1.02734
1.02033
1.01345
1.00717
1.00186
0.997748
0.995011
0.993758
0.994116
0.996241
1.00027
1.0062
1.01376
1.02227
1.03062
1.03749
1.04166
1.04248
1.04004
1.03511
1.02881
1.02225
1.01621
1.01118
1.00728
1.00445
1.00251
1.00127
1.00053
1.00012
0.999915
0.99984
0.99983
0.999852
0.999884
0.999915
0.999941
0.999961
0.999975
0.999985
0.999991
0.999995
0.999997
0.999998
0.999999
0.999999
1
1
1
1
1
1
1
1
1
1
1
1
1
1
1
1
1
1
1
1
1
1
1
1
1
1
1
1
1.00001
1.00001
1.00003
1.00005
1.00008
1.00013
1.0002
1.00029
1.00041
1.00058
1.00082
1.00123
1.00195
1.00323
1.00546
1.00909
1.01445
1.02148
1.02934
1.03661
1.0418
1.04397
1.0429
1.03886
1.03251
1.02464
1.01608
1.00755
0.999575
0.992537
0.98671
0.982272
0.979322
0.977941
0.978254
0.98045
0.984733
0.991212
0.999762
1.00987
1.02055
1.03038
1.03786
1.04181
1.04187
1.03852
1.03286
1.02619
1.01961
1.01385
1.00922
1.00578
1.00337
1.00179
1.00082
1.00026
0.99998
0.999859
0.999829
0.999842
0.999872
0.999905
0.999933
0.999955
0.999971
0.999982
0.999989
0.999994
0.999996
0.999998
0.999999
0.999999
1
1
1
1
1
1
1
1
1
1
1
1
1
1
1
1
1
1
1
1
1
1
1
1
1
1
1
1
1.00001
1.00002
1.00003
1.00006
1.00009
1.00015
1.00023
1.00033
1.00047
1.00067
1.00098
1.00151
1.00246
1.00416
1.00705
1.01163
1.01814
1.02613
1.0342
1.04055
1.04372
1.04318
1.03911
1.03219
1.02332
1.01345
1.00341
0.993847
0.985174
0.977669
0.971522
0.966852
0.963725
0.962208
0.962437
0.964636
0.969057
0.975876
0.985078
0.996311
1.00875
1.02108
1.03163
1.03885
1.04185
1.04067
1.03623
1.02991
1.02306
1.01669
1.01138
1.0073
1.00438
1.00241
1.00118
1.00046
1.00007
0.999896
0.999837
0.999837
0.999863
0.999895
0.999925
0.99995
0.999967
0.99998
0.999988
0.999993
0.999996
0.999997
0.999999
0.999999
1
1
1
1
1
1
1
1
1
1
1
1
1
1
1
1
1
1
1
1
1
1
1
1
1
1
1
1.00001
1.00001
1.00002
1.00004
1.00006
1.0001
1.00017
1.00025
1.00037
1.00053
1.00077
1.00116
1.00184
1.00308
1.00526
1.00892
1.01454
1.02214
1.03071
1.03831
1.04296
1.04354
1.04003
1.03305
1.02358
1.01268
1.00135
0.990328
0.980101
0.970945
0.963035
0.956516
0.951506
0.948093
0.94638
0.946527
0.948774
0.953383
0.960546
0.970289
0.98237
0.99614
1.01044
1.02363
1.03394
1.04001
1.0414
1.03867
1.03315
1.02636
1.0196
1.01368
1.00898
1.00552
1.00314
1.00162
1.0007
1.0002
0.999953
0.999856
0.999838
0.999857
0.999888
0.999919
0.999944
0.999964
0.999977
0.999986
0.999992
0.999995
0.999997
0.999999
0.999999
1
1
1
1
1
1
1
1
1
1
1
1
1
1
1
1
1
1
1
1
1
1
1
1
1
1
1
1.00001
1.00001
1.00002
1.00004
1.00007
1.00012
1.00018
1.00028
1.00041
1.0006
1.00088
1.00136
1.00223
1.0038
1.00655
1.01105
1.01774
1.02623
1.03487
1.04127
1.04362
1.04135
1.03495
1.0254
1.01386
1.00149
0.989189
0.977513
0.966744
0.956996
0.948387
0.941109
0.935386
0.931432
0.929446
0.929628
0.932174
0.937265
0.945024
0.955455
0.968366
0.983247
0.99913
1.01452
1.02757
1.03662
1.04074
1.04009
1.03577
1.02939
1.02245
1.01604
1.01077
1.00678
1.00397
1.00213
1.001
1.00036
1.00003
0.999889
0.999848
0.999856
0.999883
0.999914
0.99994
0.99996
0.999975
0.999985
0.999991
0.999995
0.999997
0.999998
0.999999
1
1
1
1
1
1
1
1
1
1
1
1
1
1
1
1
1
1
1
1
1
1
1
1
1
1
1
1.00001
1.00001
1.00002
1.00004
1.00008
1.00012
1.0002
1.0003
1.00044
1.00066
1.001
1.00159
1.00267
1.00464
1.00802
1.01342
1.02111
1.03016
1.03826
1.04286
1.04259
1.03753
1.02857
1.01689
1.00382
0.990443
0.977489
0.965234
0.953686
0.942809
0.932764
0.923944
0.91685
0.911961
0.909671
0.910222
0.913662
0.919902
0.928832
0.940353
0.954298
0.970289
0.987555
1.00479
1.02023
1.03203
1.03888
1.04048
1.03768
1.032
1.02513
1.01839
1.01261
1.00811
1.00488
1.00271
1.00134
1.00055
1.00013
0.999936
0.999867
0.999861
0.999882
0.99991
0.999937
0.999958
0.999973
0.999983
0.99999
0.999994
0.999997
0.999998
0.999999
1
1
1
1
1
1
1
1
1
1
1
1
1
1
1
1
1
1
1
1
1
1
1
1
1
1
1
1.00001
1.00001
1.00003
1.00005
1.00008
1.00013
1.00021
1.00033
1.00047
1.00071
1.00113
1.00184
1.00316
1.00558
1.00965
1.01594
1.02447
1.03368
1.04068
1.04308
1.04017
1.0326
1.02149
1.00817
0.993996
0.979956
0.966451
0.953361
0.940363
0.927314
0.914585
0.903006
0.893568
0.887195
0.884625
0.886189
0.891622
0.900244
0.911402
0.924739
0.940118
0.957353
0.975929
0.994787
1.0123
1.02658
1.03603
1.03996
1.03886
1.03415
1.02756
1.02065
1.01446
1.0095
1.00584
1.00333
1.00173
1.00078
1.00025
0.999998
0.999895
0.999872
0.999885
0.99991
0.999935
0.999956
0.999972
0.999982
0.99999
0.999994
0.999996
0.999998
0.999999
1
1
1
1
1
1
1
1
1
1
1
1
1
1
1
1
1
1
1
1
1
1
1
1
1
1
1
1.00001
1.00002
1.00003
1.00005
1.00009
1.00014
1.00021
1.00034
1.0005
1.00077
1.00127
1.00213
1.0037
1.00659
1.01139
1.01853
1.02765
1.03658
1.04208
1.04214
1.03678
1.02708
1.01426
0.999701
0.984757
0.970209
0.955996
0.941452
0.925844
0.909025
0.891827
0.875793
0.862638
0.853959
0.851095
0.854615
0.863774
0.876805
0.891974
0.908366
0.925855
0.944589
0.964459
0.984755
1.00408
1.02056
1.03243
1.03865
1.03937
1.03579
1.02969
1.02276
1.01627
1.01089
1.00683
1.00399
1.00215
1.00103
1.0004
1.00007
0.999933
0.999889
0.999892
0.999912
0.999935
0.999955
0.999971
0.999982
0.999989
0.999994
0.999996
0.999998
0.999999
1
1
1
1
1
1
1
1
1
1
1
1
1
1
1
1
1
1
1
1
1
1
1
1
1
1
1
1.00001
1.00002
1.00003
1.00005
1.00009
1.00014
1.00021
1.00035
1.00053
1.00081
1.0014
1.00243
1.00428
1.00767
1.01321
1.02109
1.0305
1.03879
1.04258
1.04035
1.03281
1.02137
1.00725
0.991779
0.976262
0.961183
0.945854
0.928866
0.909015
0.886296
0.862289
0.839558
0.82081
0.808615
0.805277
0.81189
0.827104
0.84745
0.869334
0.890755
0.911491
0.932195
0.953409
0.974973
0.995832
1.01424
1.02831
1.03672
1.03928
1.03696
1.03148
1.02467
1.01797
1.01225
1.00782
1.00467
1.00259
1.0013
1.00055
1.00016
0.99998
0.999913
0.999903
0.999917
0.999937
0.999956
0.999971
0.999982
0.999989
0.999994
0.999996
0.999998
0.999999
1
1
1
1
1
1
1
1
1
1
1
1
1
1
1
1
1
1
1
1
1
1
1
1
1
1
1
1.00001
1.00002
1.00003
1.00005
1.00009
1.00015
1.00021
1.00036
1.00056
1.00085
1.00153
1.00276
1.00488
1.00875
1.01503
1.02351
1.03292
1.04031
1.04237
1.03803
1.02861
1.01581
1.00074
0.984574
0.968535
0.952738
0.935671
0.914949
0.888831
0.857632
0.823996
0.79188
0.765349
0.748235
0.744125
0.754945
0.778748
0.809835
0.841882
0.871063
0.896763
0.920255
0.943024
0.965727
0.987848
1.00788
1.02389
1.03434
1.03869
1.03767
1.03293
1.02635
1.01954
1.01354
1.00879
1.00535
1.00304
1.00158
1.00072
1.00026
1.00004
0.999944
0.999919
0.999925
0.999941
0.999958
0.999972
0.999982
0.999989
0.999994
0.999996
0.999998
0.999999
1
1
1
1
1
1
1
1
1
1
1
1
1
1
1
1
1
1
1
1
1
1
1
1
1
1
1
1.00001
1.00001
1.00003
1.00005
1.00008
1.00015
1.0002
1.00034
1.00059
1.00089
1.00165
1.0031
1.00549
1.00981
1.01677
1.02573
1.03487
1.04122
1.04168
1.03546
1.02443
1.0106
0.994881
0.978158
0.961515
0.944678
0.925126
0.899246
0.864667
0.822189
0.775964
0.731929
0.695896
0.67297
0.667939
0.6837
0.717972
0.762765
0.808408
0.84841
0.881218
0.908664
0.933417
0.957241
0.980385
1.00173
1.0194
1.03166
1.03771
1.038
1.03405
1.02779
1.02096
1.01474
1.00972
1.00601
1.00348
1.00187
1.0009
1.00037
1.0001
0.999979
0.999939
0.999936
0.999947
0.999961
0.999974
0.999983
0.99999
0.999994
0.999997
0.999998
0.999999
1
1
1
1
1
1
1
1
1
1
1
1
1
1
1
1
1
1
1
1
1
1
1
1
1
1
1
1.00001
1.00001
1.00003
1.00004
1.00007
1.00015
1.00019
1.00032
1.0006
1.00094
1.00173
1.00342
1.00612
1.01081
1.01838
1.02771
1.0364
1.04165
1.04071
1.0329
1.02046
1.00586
0.989771
0.972558
0.955115
0.936826
0.914068
0.881741
0.836696
0.780451
0.719371
0.66215
0.616469
0.588075
0.582288
0.602889
0.647849
0.707598
0.769126
0.822547
0.864579
0.897279
0.924587
0.949626
0.973624
0.995996
1.01503
1.02888
1.03647
1.03801
1.03487
1.02898
1.02219
1.01582
1.01057
1.00663
1.00391
1.00215
1.00108
1.00048
1.00017
1.00002
0.999963
0.99995
0.999955
0.999966
0.999976
0.999985
0.99999
0.999994
0.999997
0.999998
0.999999
1
1
1
1
1
1
1
1
1
1
1
1
1
1
1
1
1
1
1
1
1
1
1
1
1
1
1
1.00001
1.00001
1.00003
1.00004
1.00006
1.00014
1.00019
1.00028
1.00061
1.00099
1.0018
1.0037
1.00673
1.01171
1.01976
1.02942
1.03757
1.0417
1.03961
1.03053
1.01687
1.00166
0.985432
0.967791
0.949278
0.929091
0.902598
0.863035
0.806283
0.734915
0.658419
0.588885
0.535344
0.502983
0.496733
0.521029
0.57486
0.6484
0.726073
0.794266
0.847081
0.886154
0.916566
0.942944
0.967676
0.990837
1.01096
1.02614
1.03509
1.03778
1.03542
1.02993
1.02323
1.01676
1.01133
1.0072
1.00431
1.00242
1.00126
1.00059
1.00024
1.00006
0.99999
0.999967
0.999965
0.999972
0.99998
0.999987
0.999992
0.999995
0.999997
0.999999
0.999999
1
1
1
1
1
1
1
1
1
1
1
1
1
1
1
1
1
1
1
1
1
1
1
1
1
1
1
1.00001
1.00001
1.00002
1.00004
1.00004
1.00012
1.00018
1.00024
1.00058
1.00104
1.00185
1.00392
1.0073
1.01251
1.02088
1.03084
1.0385
1.0415
1.03848
1.02851
1.01378
0.998002
0.98183
0.96389
0.94405
0.921517
0.891085
0.844364
0.776077
0.690116
0.599785
0.520635
0.462003
0.427497
0.420939
0.447109
0.506609
0.590756
0.682677
0.76531
0.829486
0.875607
0.909495
0.937277
0.96262
0.986355
1.00731
1.02358
1.03368
1.03738
1.03575
1.03065
1.02407
1.01755
1.01198
1.0077
1.00467
1.00267
1.00143
1.0007
1.00031
1.00011
1.00002
0.999985
0.999977
0.999979
0.999984
0.999989
0.999993
0.999996
0.999998
0.999999
0.999999
1
1
1
1
1
1
1
1
1
1
1
1
1
1
1
1
1
1
1
1
1
1
1
1
1
1
1
1.00001
1.00001
1.00001
1.00004
1.00003
1.00009
1.00018
1.0002
1.00052
1.00108
1.00189
1.00404
1.00778
1.01322
1.02171
1.03193
1.03928
1.04121
1.03736
1.02691
1.01136
0.994907
0.978872
0.960893
0.939626
0.914348
0.880067
0.827297
0.749456
0.651516
0.55057
0.464997
0.403699
0.368462
0.361634
0.387923
0.449686
0.540334
0.643024
0.738082
0.812955
0.866131
0.903584
0.932729
0.958532
0.982631
1.00419
1.0213
1.03235
1.0369
1.0359
1.03117
1.02472
1.01818
1.01251
1.00812
1.00498
1.00289
1.00158
1.00081
1.00038
1.00016
1.00005
1.00001
0.999989
0.999987
0.999989
0.999992
0.999995
0.999997
0.999999
0.999999
1
1
1
1
1
1
1
1
1
1
1
1
1
1
1
1
1
1
1
1
1
1
1
1
0.999999
1
1
1
1
1
1.00001
1.00003
1.00003
1.00005
1.00015
1.00018
1.00045
1.00109
1.00195
1.00408
1.00812
1.01384
1.02229
1.03265
1.03994
1.04098
1.03631
1.02572
1.00971
0.992458
0.976428
0.958771
0.936335
0.908085
0.870149
0.81316
0.729299
0.623691
0.516106
0.426766
0.364247
0.32914
0.322221
0.347503
0.408764
0.5019
0.611145
0.715321
0.79896
0.858348
0.899051
0.929382
0.955463
0.979723
1.00166
1.01939
1.03117
1.03641
1.03592
1.03149
1.02518
1.01864
1.01292
1.00844
1.00522
1.00307
1.00171
1.0009
1.00045
1.0002
1.00008
1.00003
1
0.999995
0.999994
0.999995
0.999997
0.999998
0.999999
1
1
1
1
1
1
1
1
1
1
1
1
1
1
1
1
1
1
1
1
1
1
1
1
1
0.999999
1
1
1
1
1
1
1.00002
1.00002
1.00002
1.00011
1.00016
1.00036
1.00104
1.00201
1.00407
1.00827
1.01431
1.02268
1.03299
1.04045
1.04097
1.03545
1.02483
1.00888
0.99084
0.974423
0.957349
0.934502
0.903519
0.862048
0.80258
0.71677
0.608721
0.498732
0.407669
0.344557
0.309988
0.303369
0.327325
0.386307
0.478577
0.590157
0.69949
0.789024
0.852976
0.896136
0.927284
0.953426
0.977661
0.999777
1.01791
1.03021
1.03594
1.03584
1.03165
1.02545
1.01894
1.01319
1.00867
1.00541
1.00321
1.00182
1.00098
1.00051
1.00025
1.00011
1.00005
1.00002
1
1
0.999999
0.999999
0.999999
1
1
1
1
1
1
1
1
1
1
1
1
1
1
1
1
1
1
1
1
1
1
1
1
1
1
0.999999
1
1
0.999999
1
1
0.999999
1
1.00001
1
1.00006
1.00014
1.0003
1.00094
1.00202
1.00404
1.00822
1.01455
1.02292
1.03301
1.04071
1.04122
1.03495
1.02417
1.00873
0.990269
0.972985
0.95635
0.93415
0.901536
0.85685
0.795796
0.711139
0.605512
0.497296
0.406514
0.343221
0.309227
0.303287
0.326282
0.382301
0.471349
0.581578
0.692082
0.784231
0.8506
0.895055
0.926467
0.952409
0.976448
0.998576
1.01692
1.02952
1.03556
1.03569
1.03167
1.02554
1.01907
1.01333
1.0088
1.00552
1.00331
1.0019
1.00105
1.00056
1.00029
1.00014
1.00007
1.00003
1.00001
1.00001
1
1
1
1
1
1
1
1
1
1
1
1
1
1
1
1
1
1
1
1
1
1
1
1
1
1
1
1
1
1
1
1
0.999998
1
0.999997
0.999995
0.999992
0.999991
0.999984
1.00001
1.0001
1.00025
1.00081
1.00196
1.004
1.00802
1.01451
1.023
1.03283
1.04068
1.04165
1.03502
1.02381
1.009
0.990798
0.972503
0.955656
0.934835
0.90255
0.85596
0.793653
0.711292
0.610997
0.50788
0.419721
0.357273
0.324002
0.318931
0.341523
0.394684
0.479207
0.585305
0.693469
0.784995
0.851466
0.895887
0.926924
0.952383
0.976076
0.998069
1.01644
1.02914
1.03529
1.0355
1.03154
1.02547
1.01903
1.01332
1.00882
1.00557
1.00337
1.00196
1.0011
1.0006
1.00032
1.00017
1.00009
1.00004
1.00002
1.00001
1.00001
1
1
1
1
1
1
1
1
1
1
1
1
1
1
1
1
1
1
1
1
1
1
1
1
1
1
1
1
1
1
1
0.999998
0.999998
0.999994
0.99999
0.999984
0.999972
0.999967
0.999971
1.00004
1.00021
1.00069
1.00181
1.0039
1.00775
1.01417
1.02283
1.03253
1.04041
1.04204
1.03567
1.02401
1.0095
0.992146
0.973379
0.955648
0.935974
0.905954
0.860194
0.797848
0.717788
0.623273
0.52683
0.443611
0.384036
0.35241
0.348367
0.370753
0.421166
0.500385
0.600322
0.703271
0.791247
0.855551
0.898572
0.928587
0.953306
0.97653
0.998266
1.01649
1.02909
1.03513
1.03528
1.03128
1.02522
1.01883
1.01319
1.00875
1.00554
1.00337
1.00199
1.00114
1.00064
1.00035
1.00019
1.0001
1.00006
1.00003
1.00002
1.00001
1.00001
1
1
1
1
1
1
1
1
1
1
1
1
1
1
1
1
1
1
1
1
1
1
1
1
1
1
1
1
0.999999
0.999999
0.999997
0.999997
0.99999
0.999984
0.999976
0.999956
0.999943
0.999942
0.999972
1.00014
1.00058
1.00161
1.00368
1.00742
1.0136
1.02229
1.03209
1.04002
1.04227
1.03671
1.02501
1.01038
0.993855
0.975552
0.957064
0.937626
0.910496
0.868623
0.809283
0.732605
0.643606
0.55417
0.477705
0.42324
0.394484
0.391505
0.413339
0.460654
0.533687
0.625601
0.720782
0.802603
0.862656
0.902982
0.931365
0.955129
0.977799
0.999171
1.01708
1.02936
1.03511
1.03502
1.03089
1.02481
1.01847
1.01292
1.00857
1.00544
1.00333
1.00198
1.00115
1.00066
1.00037
1.00021
1.00012
1.00007
1.00004
1.00002
1.00001
1.00001
1
1
1
1
1
1
1
1
1
1
1
1
1
1
1
1
1
1
1
1
1
1
1
1
1
1
1
1
0.999999
0.999999
0.999997
0.999995
0.99999
0.999978
0.99997
0.999945
0.999917
0.999914
0.999921
1.00005
1.00048
1.0014
1.00336
1.007
1.01289
1.02141
1.03137
1.03959
1.0424
1.03784
1.02676
1.012
0.995793
0.978434
0.960191
0.940657
0.915687
0.879106
0.826256
0.756046
0.674067
0.592789
0.524714
0.476533
0.450714
0.44811
0.468595
0.512181
0.578051
0.660091
0.745051
0.81835
0.872352
0.908897
0.935159
0.957814
0.979875
1.00078
1.01821
1.02995
1.03518
1.03471
1.03036
1.02423
1.01796
1.01252
1.0083
1.00528
1.00325
1.00195
1.00115
1.00067
1.00039
1.00023
1.00013
1.00008
1.00004
1.00003
1.00002
1.00001
1
1
1
1
1
1
1
1
1
1
1
1
1
1
1
1
1
1
1
1
1
1
1
1
1
1
0.999999
1
1
0.999999
0.999996
0.999994
0.999988
0.999974
0.999962
0.999937
0.999897
0.999881
0.999883
0.999968
1.00035
1.0012
1.00298
1.00643
1.01208
1.02026
1.03025
1.03902
1.04255
1.03895
1.02891
1.01456
0.998328
0.981585
0.964415
0.945611
0.92231
0.890478
0.845542
0.784943
0.713454
0.643428
0.585374
0.543126
0.519017
0.515666
0.533958
0.573127
0.630976
0.701708
0.774508
0.837395
0.883971
0.915985
0.939844
0.961337
0.982757
1.0031
1.01984
1.03082
1.03533
1.03432
1.02969
1.02349
1.01729
1.01201
1.00795
1.00506
1.00313
1.0019
1.00113
1.00067
1.0004
1.00024
1.00014
1.00008
1.00005
1.00003
1.00002
1.00001
1.00001
1
1
1
1
1
1
1
1
1
1
1
1
1
1
1
1
1
1
0.999999
1
1
0.999999
1
1
1
1
0.999999
1
0.999999
0.999996
0.999993
0.999988
0.999973
0.999955
0.99993
0.999884
0.99985
0.999846
0.999899
1.00021
1.00099
1.00259
1.00574
1.01111
1.01894
1.02876
1.03808
1.04266
1.04013
1.03121
1.01779
1.00182
0.985257
0.969035
0.951832
0.930824
0.903088
0.865397
0.815505
0.757547
0.701621
0.653963
0.616606
0.593587
0.589364
0.605156
0.639205
0.688227
0.746881
0.806654
0.858232
0.896709
0.92388
0.945298
0.965679
0.986449
1.0061
1.02195
1.03191
1.03551
1.03383
1.02885
1.02257
1.01648
1.01138
1.00752
1.00479
1.00298
1.00182
1.0011
1.00066
1.0004
1.00024
1.00015
1.00009
1.00005
1.00003
1.00002
1.00001
1.00001
1
1
1
1
1
1
1
1
1
1
1
1
1
1
1
1
1
1
1
1
1
1
1
1
1
1
0.999999
1
0.999999
0.999995
0.999993
0.999986
0.999971
0.999952
0.999921
0.999876
0.99983
0.999807
0.999844
1.00008
1.00075
1.00219
1.00501
1.00997
1.01743
1.027
1.0367
1.04251
1.04139
1.03368
1.02133
1.00611
0.989878
0.974147
0.958435
0.940233
0.916725
0.885796
0.8465
0.802566
0.760041
0.721209
0.688588
0.667905
0.6639
0.677254
0.705489
0.745058
0.791553
0.838569
0.879114
0.909709
0.932254
0.951444
0.970841
0.990943
1.00973
1.02444
1.03314
1.03562
1.03317
1.02782
1.02149
1.01554
1.01066
1.00702
1.00447
1.00279
1.00172
1.00105
1.00064
1.0004
1.00024
1.00015
1.00009
1.00006
1.00003
1.00002
1.00001
1.00001
1
1
1
1
1
1
1
1
1
1
1
1
1
1
1
1
1
1
1
1
1
1
1
1
1
1
0.999999
1
0.999998
0.999996
0.999992
0.999985
0.999971
0.99995
0.999917
0.999869
0.999817
0.999775
0.999791
0.999972
1.00052
1.00177
1.00427
1.00874
1.0157
1.02498
1.03491
1.04187
1.04248
1.03633
1.02513
1.01085