/*--------------------------------*- C++ -*----------------------------------*\
  =========                 |
  \\      /  F ield         | OpenFOAM: The Open Source CFD Toolbox
   \\    /   O peration     | Website:  https://openfoam.org
    \\  /    A nd           | Version:  6
     \\/     M anipulation  |
\*---------------------------------------------------------------------------*/
FoamFile
{
    version     2.0;
    format      ascii;
    class       volScalarField;
    location    "4.13";
    object      mag(U);
}
// * * * * * * * * * * * * * * * * * * * * * * * * * * * * * * * * * * * * * //

dimensions      [0 1 -1 0 0 0 0];

internalField   nonuniform List<scalar> 
10000
(
0.99997
0.99997
0.99997
0.99997
0.99997
0.99997
0.99997
0.99997
0.99997
0.99997
0.99997
0.99997
0.99997
0.99997
0.99997
0.99997
0.99997
0.99997
0.99997
0.99997
0.99997
0.99997
0.99997
0.99997
0.99997
0.99997
0.99997
0.99997
0.99997
0.99997
0.99997
0.99997
0.99997
0.99997
0.99997
0.99997
0.99997
0.99997
0.999969
0.999969
0.99997
0.999969
0.99997
0.99997
0.999971
0.999974
0.999977
0.999982
0.999987
0.999993
0.999999
1
1.00001
1
1
0.999991
0.999982
0.999973
0.999969
0.999973
0.999989
1.00002
1.00007
1.00013
1.00021
1.0003
1.0004
1.0005
1.00059
1.00067
1.00073
1.00077
1.00078
1.00077
1.00074
1.00069
1.00063
1.00056
1.00048
1.0004
1.00033
1.00026
1.0002
1.00014
1.0001
1.00006
1.00003
1.00001
0.999994
0.999983
0.999976
0.999972
0.99997
0.999968
0.999968
0.999968
0.999968
0.999969
0.999969
0.99997
0.99997
0.99997
0.99997
0.99997
0.99997
0.99997
0.99997
0.99997
0.99997
0.99997
0.99997
0.99997
0.99997
0.99997
0.99997
0.99997
0.99997
0.99997
0.99997
0.99997
0.99997
0.99997
0.99997
0.99997
0.99997
0.99997
0.99997
0.99997
0.99997
0.99997
0.99997
0.99997
0.99997
0.99997
0.99997
0.99997
0.99997
0.999969
0.999969
0.99997
0.999969
0.999969
0.99997
0.99997
0.999972
0.999975
0.999979
0.999986
0.999993
1
1.00001
1.00001
1.00002
1.00001
1.00001
0.999999
0.999991
0.999987
0.999991
1.00001
1.00005
1.00011
1.0002
1.00031
1.00044
1.00059
1.00074
1.00089
1.00102
1.00113
1.00121
1.00126
1.00127
1.00124
1.00118
1.00109
1.00098
1.00086
1.00073
1.00061
1.00049
1.00038
1.00029
1.00021
1.00015
1.00009
1.00005
1.00002
1
0.999987
0.999977
0.999972
0.999969
0.999967
0.999967
0.999967
0.999968
0.999968
0.999968
0.999969
0.999968
0.99997
0.99997
0.99997
0.99997
0.99997
0.99997
0.99997
0.99997
0.99997
0.99997
0.99997
0.99997
0.99997
0.99997
0.99997
0.99997
0.99997
0.99997
0.99997
0.99997
0.99997
0.99997
0.99997
0.99997
0.99997
0.99997
0.99997
0.99997
0.99997
0.99997
0.99997
0.99997
0.99997
0.99997
0.99997
0.99997
0.999969
0.999969
0.999969
0.999969
0.999969
0.999969
0.99997
0.999973
0.999977
0.999983
0.999991
1
1.00001
1.00002
1.00003
1.00003
1.00002
1.00002
1.00001
1
1.00001
1.00003
1.00007
1.00015
1.00026
1.00041
1.00059
1.0008
1.00102
1.00125
1.00147
1.00167
1.00183
1.00194
1.002
1.002
1.00194
1.00183
1.00168
1.0015
1.0013
1.0011
1.00091
1.00073
1.00057
1.00043
1.00031
1.00022
1.00014
1.00008
1.00004
1.00001
0.999992
0.999979
0.999971
0.999968
0.999966
0.999965
0.999966
0.999966
0.999968
0.999968
0.999968
0.999968
0.999968
0.99997
0.99997
0.99997
0.99997
0.99997
0.99997
0.99997
0.99997
0.99997
0.99997
0.99997
0.99997
0.99997
0.99997
0.99997
0.99997
0.99997
0.99997
0.99997
0.99997
0.99997
0.99997
0.99997
0.99997
0.99997
0.99997
0.99997
0.99997
0.99997
0.99997
0.99997
0.99997
0.99997
0.999969
0.999969
0.999969
0.999969
0.999968
0.999969
0.999968
0.999969
0.99997
0.999974
0.999979
0.999986
0.999996
1.00001
1.00002
1.00003
1.00004
1.00003
1.00003
1.00002
1.00001
1.00001
1.00003
1.00008
1.00017
1.0003
1.00049
1.00073
1.00101
1.00132
1.00166
1.00199
1.00231
1.00259
1.00282
1.00298
1.00306
1.00305
1.00296
1.00279
1.00255
1.00227
1.00197
1.00166
1.00136
1.00109
1.00084
1.00063
1.00046
1.00032
1.00021
1.00013
1.00007
1.00003
0.999998
0.999981
0.99997
0.999965
0.999963
0.999963
0.999964
0.999965
0.999966
0.999967
0.999968
0.999968
0.999968
0.999968
0.99997
0.99997
0.99997
0.99997
0.99997
0.99997
0.99997
0.99997
0.99997
0.99997
0.99997
0.99997
0.99997
0.99997
0.99997
0.99997
0.99997
0.99997
0.99997
0.99997
0.99997
0.99997
0.99997
0.99997
0.99997
0.99997
0.99997
0.99997
0.99997
0.99997
0.99997
0.99997
0.999969
0.999969
0.999969
0.999968
0.999967
0.999967
0.999967
0.999967
0.999969
0.999974
0.999981
0.99999
1
1.00002
1.00003
1.00004
1.00004
1.00004
1.00002
1.00001
1
1.00001
1.00006
1.00015
1.0003
1.00052
1.00081
1.00117
1.00159
1.00205
1.00252
1.003
1.00345
1.00386
1.00418
1.00441
1.00453
1.00453
1.0044
1.00415
1.00381
1.00339
1.00294
1.00248
1.00203
1.00161
1.00125
1.00094
1.00068
1.00047
1.00031
1.00019
1.00011
1.00005
1.00001
0.999983
0.99997
0.999962
0.99996
0.999959
0.999961
0.999963
0.999965
0.999966
0.999967
0.999967
0.999968
0.999968
0.99997
0.99997
0.99997
0.99997
0.99997
0.99997
0.99997
0.99997
0.99997
0.99997
0.99997
0.99997
0.99997
0.99997
0.99997
0.99997
0.99997
0.99997
0.99997
0.99997
0.99997
0.99997
0.99997
0.99997
0.99997
0.99997
0.99997
0.99997
0.99997
0.99997
0.99997
0.99997
0.999969
0.999968
0.999968
0.999968
0.999966
0.999966
0.999966
0.999966
0.999969
0.999974
0.999982
0.999994
1.00001
1.00002
1.00004
1.00004
1.00004
1.00002
1
0.999979
0.999973
1
1.00008
1.00024
1.00048
1.00081
1.00124
1.00176
1.00235
1.00299
1.00365
1.0043
1.00492
1.00548
1.00594
1.00627
1.00646
1.00648
1.00633
1.00601
1.00554
1.00496
1.00431
1.00364
1.00298
1.00238
1.00183
1.00137
1.001
1.00069
1.00046
1.00029
1.00016
1.00008
1.00002
0.999988
0.999969
0.999959
0.999955
0.999955
0.999957
0.99996
0.999962
0.999964
0.999966
0.999966
0.999967
0.999968
0.999968
0.99997
0.99997
0.99997
0.99997
0.99997
0.99997
0.99997
0.99997
0.99997
0.99997
0.99997
0.99997
0.99997
0.99997
0.99997
0.99997
0.99997
0.99997
0.99997
0.99997
0.99997
0.99997
0.99997
0.99997
0.99997
0.99997
0.99997
0.99997
0.99997
0.999969
0.999969
0.999969
0.999968
0.999967
0.999967
0.999965
0.999964
0.999964
0.999963
0.999967
0.999973
0.999983
0.999996
1.00001
1.00003
1.00004
1.00003
1.00002
0.999984
0.999945
0.999913
0.99991
0.999962
1.0001
1.00034
1.0007
1.00118
1.00179
1.00249
1.00328
1.00413
1.00499
1.00585
1.00667
1.00741
1.00804
1.00853
1.00883
1.00893
1.00879
1.00842
1.00784
1.00708
1.0062
1.00526
1.00433
1.00346
1.00268
1.00201
1.00146
1.00102
1.00068
1.00043
1.00025
1.00013
1.00005
0.999996
0.999968
0.999954
0.999949
0.999949
0.999951
0.999955
0.999959
0.999962
0.999964
0.999964
0.999966
0.999967
0.999968
0.999969
0.99997
0.99997
0.99997
0.99997
0.99997
0.99997
0.99997
0.99997
0.99997
0.99997
0.99997
0.99997
0.99997
0.99997
0.99997
0.99997
0.99997
0.99997
0.99997
0.99997
0.99997
0.99997
0.99997
0.99997
0.99997
0.99997
0.99997
0.99997
0.999969
0.999969
0.999968
0.999967
0.999966
0.999965
0.999963
0.999962
0.999961
0.99996
0.999964
0.999971
0.999982
0.999997
1.00001
1.00002
1.00002
1
0.999963
0.999903
0.999838
0.999791
0.999794
0.999883
1.00009
1.00044
1.00095
1.00161
1.00241
1.00333
1.00433
1.00539
1.00646
1.00753
1.00855
1.0095
1.01034
1.01102
1.01151
1.01176
1.01172
1.01137
1.01072
1.0098
1.00868
1.00744
1.00617
1.00496
1.00386
1.00291
1.00212
1.00149
1.001
1.00064
1.00038
1.0002
1.00008
1.00001
0.999971
0.99995
0.999942
0.999942
0.999945
0.99995
0.999955
0.999958
0.999962
0.999963
0.999965
0.999967
0.999968
0.999968
0.99997
0.99997
0.99997
0.99997
0.99997
0.99997
0.99997
0.99997
0.99997
0.99997
0.99997
0.99997
0.99997
0.99997
0.99997
0.99997
0.99997
0.99997
0.99997
0.99997
0.99997
0.99997
0.99997
0.99997
0.99997
0.99997
0.99997
0.99997
0.999969
0.999968
0.999968
0.999967
0.999965
0.999963
0.99996
0.999958
0.999956
0.999956
0.999959
0.999967
0.999978
0.999992
1
1.00001
0.999987
0.999939
0.99986
0.999758
0.999655
0.999587
0.9996
0.99974
1.00004
1.00053
1.00121
1.00207
1.00307
1.00418
1.00536
1.0066
1.00784
1.00908
1.01029
1.01144
1.01251
1.01344
1.01419
1.0147
1.01489
1.01469
1.01409
1.01309
1.01177
1.01023
1.0086
1.00698
1.00548
1.00416
1.00304
1.00215
1.00146
1.00094
1.00057
1.00031
1.00014
1.00004
0.999978
0.999948
0.999935
0.999933
0.999937
0.999943
0.999949
0.999954
0.999959
0.99996
0.999963
0.999966
0.999967
0.999968
0.999969
0.99997
0.99997
0.99997
0.99997
0.99997
0.99997
0.99997
0.99997
0.99997
0.99997
0.99997
0.99997
0.99997
0.99997
0.99997
0.99997
0.99997
0.99997
0.99997
0.99997
0.99997
0.99997
0.99997
0.99997
0.99997
0.99997
0.999969
0.999969
0.999969
0.999967
0.999966
0.999963
0.999961
0.999957
0.999953
0.99995
0.999949
0.999953
0.999959
0.999971
0.99998
0.999982
0.999965
0.999915
0.99982
0.999682
0.999517
0.999362
0.99927
0.999303
0.999512
0.999933
1.00058
1.00143
1.00246
1.00362
1.00487
1.00616
1.00748
1.00881
1.01014
1.01148
1.01279
1.01408
1.0153
1.01639
1.01728
1.01786
1.01802
1.01767
1.01679
1.0154
1.01364
1.01164
1.00958
1.00761
1.00583
1.00431
1.00307
1.0021
1.00137
1.00084
1.00048
1.00023
1.00008
0.999994
0.999947
0.999928
0.999924
0.999928
0.999935
0.999943
0.999949
0.999955
0.999957
0.999961
0.999965
0.999966
0.999967
0.999968
0.999969
0.99997
0.99997
0.99997
0.99997
0.99997
0.99997
0.99997
0.99997
0.99997
0.99997
0.99997
0.99997
0.99997
0.99997
0.99997
0.99997
0.99997
0.99997
0.99997
0.99997
0.99997
0.99997
0.99997
0.99997
0.999969
0.999969
0.999968
0.999968
0.999966
0.999964
0.999961
0.999957
0.999951
0.999946
0.999942
0.99994
0.999941
0.999947
0.999955
0.999957
0.999941
0.99989
0.999787
0.99962
0.999396
0.999144
0.998924
0.998808
0.998872
0.999171
0.999727
1.00053
1.00153
1.00267
1.0039
1.00516
1.00642
1.00768
1.00895
1.01025
1.01159
1.013
1.01447
1.01598
1.01747
1.01887
1.02004
1.0208
1.02099
1.0205
1.01931
1.01751
1.01526
1.0128
1.01032
1.00802
1.006
1.00432
1.00298
1.00197
1.00123
1.00072
1.00037
1.00015
1.00003
0.999955
0.999923
0.999914
0.999916
0.999925
0.999934
0.999943
0.999951
0.999953
0.999958
0.999962
0.999965
0.999967
0.999968
0.999968
0.99997
0.99997
0.99997
0.99997
0.99997
0.99997
0.99997
0.99997
0.99997
0.99997
0.99997
0.99997
0.99997
0.99997
0.99997
0.99997
0.99997
0.99997
0.99997
0.99997
0.99997
0.99997
0.99997
0.99997
0.999969
0.999969
0.999968
0.999967
0.999965
0.999962
0.999957
0.999952
0.999945
0.999937
0.999931
0.999927
0.999927
0.999928
0.999928
0.999913
0.999866
0.999762
0.99958
0.999307
0.998963
0.998599
0.998303
0.998173
0.998289
0.998697
0.999388
1.00031
1.00139
1.00253
1.00367
1.00476
1.0058
1.0068
1.00781
1.0089
1.01012
1.01151
1.01309
1.01486
1.01678
1.01877
1.02068
1.0223
1.02336
1.02364
1.02302
1.02151
1.01926
1.01653
1.0136
1.01075
1.00816
1.00595
1.00417
1.00279
1.00178
1.00106
1.00057
1.00026
1.00008
0.999972
0.999923
0.999906
0.999906
0.999914
0.999925
0.999937
0.999945
0.999949
0.999956
0.99996
0.999964
0.999966
0.999967
0.999968
0.999969
0.99997
0.99997
0.99997
0.99997
0.99997
0.99997
0.99997
0.99997
0.99997
0.99997
0.99997
0.99997
0.99997
0.99997
0.99997
0.99997
0.99997
0.99997
0.99997
0.99997
0.99997
0.99997
0.99997
0.999969
0.999969
0.999967
0.999966
0.999963
0.99996
0.999953
0.999946
0.999936
0.999927
0.999917
0.999911
0.999906
0.999901
0.999885
0.999842
0.999745
0.99956
0.99926
0.998839
0.998337
0.99784
0.997471
0.997348
0.997543
0.99807
0.99887
0.999844
1.00087
1.00184
1.00268
1.00337
1.00394
1.00445
1.005
1.0057
1.00664
1.00789
1.00949
1.01146
1.01379
1.01639
1.01914
1.0218
1.02404
1.0255
1.02591
1.02515
1.02329
1.02057
1.01735
1.014
1.01083
1.00803
1.0057
1.00388
1.00251
1.00153
1.00086
1.00043
1.00016
1.00001
0.999931
0.999899
0.999894
0.999902
0.999914
0.999927
0.999939
0.999944
0.999952
0.999958
0.999962
0.999965
0.999967
0.999968
0.999969
0.99997
0.99997
0.99997
0.99997
0.99997
0.99997
0.99997
0.99997
0.99997
0.99997
0.99997
0.99997
0.99997
0.99997
0.99997
0.99997
0.99997
0.99997
0.99997
0.99997
0.99997
0.99997
0.999969
0.999969
0.999969
0.999967
0.999965
0.999962
0.999956
0.999949
0.999939
0.999926
0.999913
0.9999
0.999888
0.999877
0.999859
0.999819
0.999732
0.999558
0.999254
0.998789
0.998172
0.997476
0.996839
0.996416
0.996335
0.996637
0.997275
0.998126
0.99903
0.999829
1.0004
1.0007
1.00073
1.00057
1.00035
1.00022
1.00034
1.00086
1.00186
1.00341
1.00552
1.0082
1.01139
1.01499
1.01877
1.02238
1.02536
1.02726
1.02777
1.0268
1.02454
1.02134
1.01767
1.01397
1.01055
1.00763
1.00528
1.00348
1.00217
1.00126
1.00066
1.00028
1.00007
0.99995
0.999899
0.999885
0.99989
0.999903
0.999918
0.999932
0.999937
0.999948
0.999955
0.99996
0.999964
0.999966
0.999967
0.999968
0.999969
0.99997
0.99997
0.99997
0.99997
0.99997
0.99997
0.99997
0.99997
0.99997
0.99997
0.99997
0.99997
0.99997
0.99997
0.99997
0.99997
0.99997
0.99997
0.99997
0.99997
0.999969
0.999969
0.999969
0.999968
0.999966
0.999963
0.999959
0.999952
0.999943
0.999929
0.999913
0.999896
0.999879
0.99986
0.999838
0.9998
0.999723
0.999567
0.999282
0.998809
0.998122
0.997259
0.996347
0.995583
0.995154
0.995164
0.995594
0.99631
0.997113
0.997783
0.998138
0.998061
0.997529
0.996613
0.995455
0.994254
0.993234
0.992617
0.992591
0.993277
0.994736
0.99698
0.99999
1.00373
1.00813
1.01301
1.01804
1.02271
1.02645
1.02872
1.02921
1.02794
1.02521
1.02153
1.01747
1.0135
1.00995
1.00701
1.0047
1.00299
1.00179
1.00098
1.00046
1.00016
0.999988
0.999907
0.99988
0.999878
0.999892
0.999907
0.999924
0.999931
0.999943
0.999952
0.999958
0.999963
0.999965
0.999967
0.999968
0.999969
0.99997
0.99997
0.99997
0.99997
0.99997
0.99997
0.99997
0.99997
0.99997
0.99997
0.99997
0.99997
0.99997
0.99997
0.99997
0.99997
0.99997
0.99997
0.99997
0.99997
0.999969
0.99997
0.999968
0.999967
0.999966
0.999961
0.999955
0.999947
0.999935
0.999917
0.999898
0.999876
0.999851
0.999823
0.999785
0.999716
0.999583
0.99933
0.998886
0.998185
0.997214
0.996063
0.994938
0.994098
0.993733
0.99389
0.994449
0.995179
0.995797
0.996035
0.995695
0.994679
0.993011
0.990831
0.988372
0.985925
0.983806
0.982308
0.981667
0.98203
0.983442
0.985881
0.989287
0.993604
0.99877
1.00467
1.01103
1.0174
1.02312
1.02748
1.02993
1.03022
1.02851
1.02526
1.02113
1.01676
1.01264
1.00908
1.00621
1.00404
1.00247
1.0014
1.00071
1.00029
1.00005
0.999929
0.99988
0.999871
0.999881
0.999898
0.999915
0.999923
0.999937
0.999948
0.999956
0.999961
0.999964
0.999966
0.999967
0.999969
0.99997
0.99997
0.99997
0.99997
0.99997
0.99997
0.99997
0.99997
0.99997
0.99997
0.99997
0.99997
0.99997
0.99997
0.99997
0.99997
0.99997
0.99997
0.99997
0.99997
0.99997
0.999969
0.999968
0.999967
0.999964
0.999959
0.999952
0.999941
0.999925
0.999905
0.99988
0.999851
0.999818
0.999776
0.999714
0.999601
0.999387
0.998996
0.998338
0.99734
0.996024
0.994567
0.993274
0.992447
0.992239
0.992588
0.993258
0.993902
0.994162
0.993731
0.992402
0.990111
0.986939
0.983122
0.979008
0.975013
0.971564
0.969054
0.967773
0.96788
0.969387
0.972206
0.9762
0.981242
0.987245
0.994124
1.00171
1.00963
1.01728
1.02386
1.02858
1.03092
1.03077
1.02848
1.02469
1.02017
1.0156
1.01146
1.00801
1.00531
1.00333
1.00195
1.00104
1.00047
1.00014
0.999968
0.99989
0.999866
0.99987
0.999887
0.999906
0.999916
0.999932
0.999945
0.999953
0.99996
0.999963
0.999966
0.999967
0.999969
0.999969
0.99997
0.99997
0.99997
0.99997
0.99997
0.99997
0.99997
0.99997
0.99997
0.99997
0.99997
0.99997
0.99997
0.99997
0.99997
0.99997
0.99997
0.99997
0.99997
0.99997
0.999969
0.999967
0.999966
0.999962
0.999957
0.999948
0.999934
0.999915
0.99989
0.999859
0.999822
0.999777
0.999717
0.99962
0.999444
0.999117
0.998541
0.997601
0.996234
0.994531
0.992792
0.991424
0.990735
0.990776
0.991347
0.992071
0.992495
0.992184
0.990793
0.988121
0.984137
0.979007
0.973088
0.966879
0.960963
0.955924
0.952275
0.950377
0.950384
0.952249
0.955776
0.960702
0.966783
0.973852
0.981815
0.990574
0.999896
1.00929
1.01798
1.02506
1.02975
1.03163
1.0308
1.02782
1.02351
1.01871
1.01409
1.01006
1.00682
1.00437
1.00263
1.00146
1.00072
1.00027
1.00003
0.999912
0.999869
0.999864
0.999878
0.999897
0.999909
0.999926
0.999941
0.999951
0.999958
0.999962
0.999965
0.999967
0.999969
0.999969
0.99997
0.99997
0.99997
0.99997
0.99997
0.99997
0.99997
0.99997
0.99997
0.99997
0.99997
0.99997
0.99997
0.99997
0.99997
0.99997
0.99997
0.99997
0.99997
0.999969
0.999968
0.999967
0.999964
0.999961
0.999953
0.999943
0.999926
0.999903
0.999872
0.999835
0.999788
0.999728
0.999642
0.999499
0.999236
0.998758
0.997936
0.996638
0.994836
0.992738
0.990799
0.989502
0.989088
0.989458
0.990245
0.990932
0.990956
0.989802
0.987089
0.982621
0.97642
0.968757
0.960147
0.951292
0.942997
0.93606
0.931154
0.928722
0.9289
0.931533
0.936257
0.942625
0.950222
0.958756
0.968069
0.9781
0.988739
0.999666
1.01025
1.01957
1.02669
1.03087
1.03193
1.03023
1.02653
1.02179
1.01684
1.01231
1.00853
1.00559
1.00345
1.00198
1.00103
1.00045
1.00012
0.99995
0.99988
0.999862
0.999871
0.999889
0.999903
0.999921
0.999937
0.999948
0.999956
0.999961
0.999964
0.999966
0.999967
0.999969
0.999969
0.99997
0.99997
0.99997
0.99997
0.99997
0.99997
0.99997
0.99997
0.99997
0.99997
0.99997
0.99997
0.99997
0.99997
0.99997
0.99997
0.99997
0.99997
0.999968
0.999969
0.999966
0.999963
0.99996
0.99995
0.999937
0.999918
0.99989
0.999852
0.999806
0.999749
0.999669
0.999549
0.999344
0.998963
0.998287
0.997152
0.995422
0.993142
0.990693
0.988697
0.987644
0.987635
0.988379
0.989339
0.989851
0.989234
0.98689
0.982395
0.975565
0.966488
0.955574
0.943542
0.931362
0.920138
0.910954
0.904699
0.901911
0.902684
0.90668
0.913281
0.921768
0.931506
0.942034
0.953106
0.964651
0.976658
0.988989
1.00121
1.01253
1.02194
1.02852
1.03174
1.03169
1.02901
1.02465
1.01961
1.0147
1.01041
1.00698
1.00441
1.00261
1.00142
1.00067
1.00024
1.00001
0.999902
0.999866
0.999867
0.999882
0.999898
0.999916
0.999932
0.999945
0.999954
0.99996
0.999963
0.999966
0.999967
0.999969
0.999969
0.99997
0.99997
0.99997
0.99997
0.99997
0.99997
0.99997
0.99997
0.99997
0.99997
0.99997
0.99997
0.99997
0.99997
0.99997
0.99997
0.99997
0.99997
0.999968
0.999968
0.999966
0.999962
0.999957
0.999947
0.999929
0.999908
0.999876
0.99983
0.999776
0.999705
0.999599
0.999433
0.999147
0.998616
0.997685
0.996165
0.993935
0.991175
0.988488
0.986621
0.98599
0.986485
0.987606
0.988646
0.988789
0.987221
0.983247
0.976404
0.966517
0.953768
0.938734
0.9224
0.906088
0.8913
0.879503
0.871874
0.869063
0.871069
0.877273
0.886664
0.898138
0.910756
0.923876
0.937162
0.950533
0.964052
0.977747
0.991404
1.00443
1.0159
1.02476
1.03023
1.0321
1.03077
1.02713
1.02226
1.01712
1.01242
1.00851
1.0055
1.00334
1.00188
1.00095
1.00039
1.00009
0.999937
0.999877
0.999866
0.999878
0.999893
0.999912
0.999929
0.999942
0.999952
0.999958
0.999963
0.999966
0.999967
0.999969
0.999969
0.99997
0.99997
0.99997
0.99997
0.99997
0.99997
0.99997
0.99997
0.99997
0.99997
0.99997
0.99997
0.99997
0.99997
0.99997
0.99997
0.99997
0.99997
0.999968
0.999967
0.999966
0.99996
0.999954
0.999943
0.999922
0.999898
0.99986
0.999806
0.999741
0.999657
0.999518
0.999292
0.9989
0.998182
0.996934
0.994953
0.992181
0.989
0.986245
0.984716
0.984655
0.985705
0.987158
0.988135
0.987655
0.984749
0.978617
0.96875
0.954998
0.937645
0.91748
0.89582
0.874447
0.8554
0.84066
0.831771
0.829512
0.833703
0.843288
0.856677
0.872209
0.888546
0.904847
0.920735
0.936177
0.95133
0.966376
0.981314
0.99578
1.00899
1.01991
1.02757
1.03146
1.03172
1.02909
1.02465
1.01948
1.01447
1.01013
1.0067
1.00417
1.00242
1.00128
1.00058
1.00019
0.999986
0.999898
0.999872
0.999876
0.999891
0.999909
0.999927
0.99994
0.99995
0.999958
0.999962
0.999966
0.999967
0.999969
0.999969
0.99997
0.99997
0.99997
0.99997
0.99997
0.99997
0.99997
0.99997
0.99997
0.99997
0.99997
0.99997
0.99997
0.99997
0.99997
0.99997
0.99997
0.99997
0.999968
0.999966
0.999966
0.999959
0.999952
0.99994
0.999914
0.999886
0.999845
0.999782
0.999702
0.999601
0.999423
0.99912
0.998598
0.997649
0.99602
0.99351
0.990198
0.986718
0.984103
0.9831
0.983708
0.985314
0.987011
0.987735
0.986316
0.981617
0.97272
0.959069
0.940544
0.917549
0.891116
0.862984
0.835535
0.811525
0.79362
0.783836
0.783061
0.790806
0.805359
0.824295
0.845177
0.866141
0.886137
0.904837
0.922376
0.9391
0.955374
0.971399
0.987029
1.00167
1.01435
1.02401
1.0299
1.03188
1.03047
1.02669
1.02169
1.0165
1.01181
1.00797
1.00507
1.00302
1.00166
1.00081
1.00032
1.00005
0.999929
0.999883
0.999879
0.999892
0.999908
0.999924
0.999939
0.999949
0.999957
0.999962
0.999965
0.999966
0.999968
0.999969
0.999969
0.99997
0.99997
0.99997
0.99997
0.99997
0.99997
0.99997
0.99997
0.99997
0.99997
0.99997
0.99997
0.99997
0.99997
0.99997
0.999969
0.99997
0.999968
0.999965
0.999966
0.999957
0.999947
0.999937
0.999907
0.999872
0.999831
0.999757
0.999659
0.999538
0.999316
0.998915
0.998231
0.997011
0.994937
0.991849
0.98805
0.98445
0.982184
0.981846
0.983169
0.985294
0.987107
0.987345
0.984625
0.977624
0.965306
0.947061
0.9228
0.893051
0.859137
0.823315
0.788744
0.759131
0.738048
0.728097
0.730214
0.743385
0.764932
0.791296
0.819019
0.845561
0.86965
0.891115
0.910444
0.928344
0.945459
0.962209
0.978644
0.994346
1.00844
1.01984
1.02759
1.0313
1.03125
1.02832
1.02367
1.01845
1.01349
1.0093
1.00604
1.00369
1.00209
1.00108
1.00047
1.00014
0.999971
0.999902
0.999885
0.999896
0.999909
0.999924
0.999937
0.999948
0.999956
0.999961
0.999965
0.999966
0.999968
0.999969
0.999969
0.99997
0.99997
0.99997
0.99997
0.99997
0.99997
0.99997
0.99997
0.99997
0.99997
0.99997
0.99997
0.99997
0.99997
0.99997
0.999969
0.99997
0.999969
0.999964
0.999966
0.999957
0.999943
0.999936
0.999902
0.999856
0.999818
0.999736
0.999612
0.999468
0.999197
0.998675
0.997795
0.996264
0.993689
0.990004
0.985824
0.982314
0.980574
0.980978
0.983015
0.985594
0.987374
0.986857
0.982444
0.972616
0.956208
0.932558
0.901601
0.863994
0.821386
0.776668
0.733994
0.698295
0.674317
0.665371
0.672326
0.693299
0.724245
0.760137
0.796278
0.829336
0.857788
0.881723
0.902179
0.920453
0.937647
0.954472
0.971171
0.987462
1.00256
1.01535
1.02476
1.03013
1.03148
1.02952
1.02538
1.02026
1.01513
1.01064
1.00705
1.0044
1.00256
1.00137
1.00065
1.00024
1.00002
0.999928
0.999896
0.999903
0.999911
0.999924
0.999937
0.999948
0.999955
0.999961
0.999964
0.999967
0.999968
0.999969
0.999969
0.99997
0.99997
0.99997
0.99997
0.99997
0.99997
0.99997
0.99997
0.99997
0.99997
0.99997
0.99997
0.99997
0.999969
0.99997
0.999968
0.999969
0.99997
0.999962
0.999965
0.999958
0.999937
0.999931
0.9999
0.999839
0.999801
0.999719
0.999561
0.999386
0.999066
0.998402
0.997284
0.995406
0.992295
0.988031
0.983616
0.980402
0.979312
0.980475
0.983198
0.986157
0.987733
0.986177
0.979675
0.966516
0.945398
0.915605
0.877088
0.830635
0.778266
0.723631
0.672062
0.629995
0.60367
0.597316
0.611565
0.643156
0.686124
0.733638
0.779654
0.820025
0.852982
0.878915
0.89957
0.917071
0.933203
0.949112
0.965269
0.981509
0.997092
1.01088
1.02164
1.0285
1.03123
1.03031
1.02679
1.02189
1.01669
1.01195
1.00807
1.00513
1.00306
1.0017
1.00085
1.00035
1.00009
0.999962
0.999913
0.999914
0.999915
0.999926
0.999937
0.999947
0.999955
0.99996
0.999964
0.999966
0.999968
0.999969
0.999969
0.99997
0.99997
0.99997
0.99997
0.99997
0.99997
0.99997
0.99997
0.99997
0.99997
0.99997
0.99997
0.99997
0.99997
0.99997
0.999969
0.999967
0.999972
0.999961
0.999963
0.999961
0.999931
0.999926
0.999902
0.999825
0.999781
0.999708
0.999513
0.99929
0.998924
0.998101
0.996701
0.994443
0.990791
0.986
0.981508
0.978767
0.9784
0.980295
0.983653
0.986921
0.988123
0.985243
0.97629
0.959376
0.933046
0.896536
0.849818
0.79384
0.731052
0.665914
0.604975
0.556351
0.528263
0.526336
0.550794
0.596171
0.653812
0.714773
0.77171
0.819829
0.85721
0.884559
0.904376
0.919766
0.933427
0.947134
0.961687
0.977036
0.99245
1.00672
1.01848
1.0266
1.0306
1.03073
1.0279
1.02331
1.01813
1.01322
1.00907
1.00588
1.00358
1.00204
1.00106
1.00048
1.00016
1
0.999935
0.999928
0.999923
0.999929
0.999939
0.999948
0.999955
0.999961
0.999964
0.999966
0.999968
0.999969
0.999969
0.99997
0.99997
0.99997
0.99997
0.99997
0.99997
0.99997
0.99997
0.99997
0.99997
0.99997
0.99997
0.99997
0.999969
0.99997
0.99997
0.999965
0.999973
0.999961
0.999957
0.999966
0.999928
0.999915
0.999909
0.999815
0.999755
0.999702
0.999472
0.99918
0.998766
0.997781
0.996052
0.993383
0.989221
0.983993
0.979559
0.97742
0.977809
0.980384
0.984319
0.987826
0.988499
0.984042
0.97235
0.951395
0.919566
0.876045
0.820898
0.755322
0.682264
0.606841
0.536459
0.480848
0.451119
0.455487
0.493518
0.556112
0.630919
0.706658
0.774906
0.830589
0.871895
0.899901
0.917804
0.929719
0.939401
0.949454
0.961143
0.974591
0.989051
1.00321
1.01552
1.02461
1.02972
1.03085
1.02873
1.02452
1.01943
1.0144
1.01005
1.00661
1.00411
1.00239
1.00129
1.00062
1.00025
1.00005
0.999961
0.999945
0.999932
0.999934
0.999941
0.999949
0.999955
0.999961
0.999964
0.999966
0.999968
0.999969
0.999969
0.99997
0.99997
0.99997
0.99997
0.99997
0.99997
0.99997
0.99997
0.99997
0.99997
0.99997
0.99997
0.99997
0.999969
0.99997
0.999971
0.999964
0.999974
0.999964
0.99995
0.99997
0.99993
0.9999
0.999916
0.999815
0.999722
0.999696
0.999446
0.999056
0.998585
0.997455
0.995357
0.992241
0.987632
0.98208
0.977799
0.976336
0.977504
0.980696
0.985128
0.988819
0.988853
0.982623
0.968023
0.942956
0.90564
0.855242
0.792084
0.717864
0.636032
0.55179
0.472368
0.408691
0.376331
0.388561
0.443743
0.526851
0.620874
0.712157
0.791446
0.853821
0.898003
0.925608
0.940465
0.947587
0.951818
0.956732
0.964216
0.974642
0.987269
1.00064
1.013
1.02271
1.0287
1.03072
1.02931
1.02552
1.02057
1.01549
1.01097
1.00733
1.00463
1.00275
1.00153
1.00077
1.00034
1.0001
0.999992
0.999966
0.999943
0.999941
0.999945
0.999951
0.999957
0.999961
0.999964
0.999966
0.999968
0.999969
0.99997
0.999969
0.99997
0.99997
0.99997
0.99997
0.99997
0.99997
0.99997
0.99997
0.99997
0.99997
0.99997
0.99997
0.999969
0.999969
0.999972
0.999962
0.999972
0.99997
0.999945
0.99997
0.99994
0.999884
0.999919
0.999832
0.999687
0.999682
0.999442
0.998931
0.998375
0.997127
0.994648
0.991037
0.986059
0.980325
0.976242
0.975466
0.977438
0.981194
0.986019
0.98985
0.98921
0.981114
0.963586
0.934611
0.892222
0.83565
0.765841
0.685396
0.59812
0.508208
0.421066
0.34771
0.309798
0.33
0.40495
0.510806
0.62535
0.732564
0.82237
0.890244
0.935886
0.961775
0.972394
0.9735
0.970933
0.969299
0.971249
0.977515
0.987388
0.99926
1.01112
1.02106
1.02768
1.03045
1.02967
1.02631
1.02154
1.01646
1.01181
1.008
1.00513
1.0031
1.00176
1.00093
1.00043
1.00016
1.00003
0.999988
0.999957
0.999948
0.999949
0.999954
0.999958
0.999962
0.999965
0.999967
0.999968
0.999969
0.99997
0.999969
0.99997
0.99997
0.99997
0.99997
0.99997
0.99997
0.99997
0.99997
0.99997
0.99997
0.99997
0.99997
0.999969
0.999967
0.999974
0.999963
0.999968
0.999977
0.99994
0.999964
0.999956
0.999871
0.999911
0.999861
0.999661
0.999649
0.999455
0.998824
0.998127
0.996794
0.993962
0.989803
0.984524
0.978772
0.974901
0.974745
0.977546
0.981854
0.986945
0.990872
0.989627
0.979712
0.959417
0.927048
0.880481
0.819146
0.745182
0.662603
0.575118
0.484526
0.392845
0.30925
0.260516
0.28448
0.378418
0.507196
0.642797
0.766379
0.866558
0.939053
0.984838
1.0077
1.01296
1.00702
0.996534
0.987134
0.982332
0.983347
0.989564
0.999222
1.01004
1.01979
1.02676
1.03009
1.02988
1.02692
1.02236
1.0173
1.01257
1.00862
1.00559
1.00344
1.00199
1.00108
1.00053
1.00023
1.00006
1.00001
0.999973
0.999957
0.999955
0.999958
0.99996
0.999963
0.999966
0.999967
0.999968
0.999969
0.999969
0.99997
0.99997
0.99997
0.99997
0.99997
0.99997
0.99997
0.99997
0.99997
0.99997
0.99997
0.999969
0.999971
0.99997
0.999966
0.999974
0.999966
0.999962
0.999982
0.999943
0.999952
0.999974
0.99987
0.999889
0.999899
0.999657
0.999597
0.999475
0.998756
0.997852
0.996446
0.993341
0.988594
0.983028
0.977428
0.973792
0.974118
0.97775
0.982658
0.987889
0.991836
0.990172
0.97868
0.95596
0.921018
0.871685
0.807748
0.733225
0.653885
0.572528
0.487412
0.396579
0.305777
0.241568
0.257895
0.363684
0.512727
0.669097
0.809753
0.920965
0.997989
1.04308
1.06184
1.0608
1.04705
1.02788
1.0098
0.997262
0.992071
0.993808
1.00059
1.00984
1.01901
1.02602
1.02973
1.02996
1.02736
1.02301
1.01801
1.01322
1.00916
1.00602
1.00375
1.00221
1.00123
1.00063
1.00029
1.0001
1.00004
0.999989
0.999968
0.999961
0.999961
0.999963
0.999965
0.999966
0.999967
0.999968
0.999969
0.99997
0.99997
0.99997
0.99997
0.99997
0.99997
0.99997
0.99997
0.99997
0.99997
0.99997
0.99997
0.99997
0.99997
0.99997
0.999967
0.999972
0.99997
0.999958
0.999983
0.999951
0.999937
0.999987
0.999885
0.99986
0.999928
0.999687
0.999531
0.999479
0.998743
0.997577
0.996063
0.992805
0.987478
0.981573
0.976265
0.972929
0.973554
0.977943
0.98357
0.98887
0.992707
0.990891
0.978309
0.953685
0.917218
0.867006
0.803293
0.732424
0.661878
0.592572
0.51865
0.434541
0.342845
0.265817
0.261509
0.363813
0.525926
0.700747
0.858724
0.982113
1.0643
1.10839
1.12219
1.11406
1.09196
1.06369
1.03644
1.01551
1.0034
0.999984
1.00331
1.01054
1.01875
1.02553
1.02941
1.02997
1.02767
1.0235
1.01858
1.01377
1.00963
1.00639
1.00403
1.00241
1.00136
1.00072
1.00035
1.00014
1.00007
1.00001
0.999979
0.999968
0.999965
0.999965
0.999966
0.999967
0.999968
0.999969
0.999969
0.99997
0.99997
0.99997
0.99997
0.99997
0.99997
0.99997
0.99997
0.99997
0.99997
0.99997
0.99997
0.99997
0.99997
0.99997
0.999967
0.99997
0.999973
0.999956
0.999979
0.999964
0.999926
0.999986
0.999916
0.999835
0.999937
0.999749
0.999479
0.999445
0.998779
0.997347
0.995638
0.992342
0.98653
0.980187
0.975211
0.972313
0.973075
0.978025
0.984505
0.989941
0.993489
0.991779
0.978861
0.953053
0.916182
0.867289
0.807022
0.743841
0.686494
0.633428
0.574707
0.501864
0.415957
0.33593
0.311304
0.393005
0.554229
0.73987
0.912273
1.04775
1.13562
1.1786
1.18675
1.17078
1.13989
1.10235
1.0658
1.03621
1.0168
1.00778
1.00723
1.01206
1.019
1.02531
1.02917
1.02992
1.02785
1.02386
1.019
1.0142
1.01002
1.0067
1.00427
1.00259
1.00149
1.00081
1.00041
1.00018
1.00009
1.00002
0.99999
0.999975
0.999969
0.999968
0.999968
0.999968
0.999968
0.999969
0.999969
0.99997
0.99997
0.99997
0.99997
0.99997
0.99997
0.99997
0.99997
0.99997
0.99997
0.99997
0.99997
0.99997
0.99997
0.99997
0.999968
0.999969
0.999975
0.999959
0.999971
0.999976
0.999926
0.999973
0.999951
0.99983
0.999917
0.999824
0.999466
0.999373
0.998831
0.99721
0.9952
0.991908
0.985807
0.978939
0.974181
0.971881
0.972747
0.97794
0.985312
0.991142
0.994268
0.992775
0.98047
0.954454
0.91821
0.872834
0.819239
0.766869
0.72518
0.690441
0.64924
0.591
0.516855
0.444676
0.414145
0.473783
0.618257
0.798711
0.975081
1.11811
1.21036
1.25169
1.2535
1.229
1.18893
1.14211
1.09642
1.0583
1.03152
1.01675
1.01209
1.01427
1.01972