/*--------------------------------*- C++ -*----------------------------------*\
  =========                 |
  \\      /  F ield         | OpenFOAM: The Open Source CFD Toolbox
   \\    /   O peration     | Website:  https://openfoam.org
    \\  /    A nd           | Version:  6
     \\/     M anipulation  |
\*---------------------------------------------------------------------------*/
FoamFile
{
    version     2.0;
    format      ascii;
    class       volScalarField;
    location    "3.5";
    object      p;
}
// * * * * * * * * * * * * * * * * * * * * * * * * * * * * * * * * * * * * * //

dimensions      [1 -1 -2 0 0 0 0];

internalField   nonuniform List<scalar> 
10000
(
1
1
1
1
1
1
1
1
1
1
1
1
1
1
1
1
1
1
1
1
1
1
1
1
1
1
1
1
1
1
1
1
1
1
1
1
1
1
1
1
1
1
1
1
1
0.999998
0.999996
0.999993
0.999987
0.99998
0.999972
0.999961
0.999949
0.999938
0.999927
0.999919
0.999915
0.999916
0.999923
0.999937
0.999956
0.99998
1.00001
1.00004
1.00007
1.0001
1.00012
1.00014
1.00016
1.00017
1.00017
1.00016
1.00015
1.00014
1.00013
1.00011
1.00009
1.00007
1.00006
1.00004
1.00003
1.00002
1.00002
1.00001
1.00001
1
1
1
1
1
1
1
1
1
1
1
1
1
1
1
1
1
1
1
1
1
1
1
1
1
1
1
1
1
1
1
1
1
1
1
1
1
1
1
1
1
1
1
1
1
1
1
1
1
1
1
1
1
1
1
1
1
1
1
1
0.999998
0.999995
0.99999
0.999984
0.999974
0.999963
0.999949
0.999935
0.999921
0.99991
0.999903
0.999902
0.999909
0.999925
0.999949
0.99998
1.00002
1.00006
1.0001
1.00014
1.00018
1.00021
1.00023
1.00025
1.00025
1.00025
1.00024
1.00023
1.0002
1.00018
1.00015
1.00013
1.0001
1.00008
1.00006
1.00004
1.00003
1.00002
1.00001
1.00001
1
1
1
1
1
1
1
1
1
1
1
1
1
1
1
1
1
1
1
1
1
1
1
1
1
1
1
1
1
1
1
1
1
1
1
1
1
1
1
1
1
1
1
1
1
1
1
1
1
1
1
1
1
1
1
1
1
1
1
1
0.999998
0.999994
0.999988
0.999979
0.999967
0.999952
0.999936
0.999919
0.999905
0.999895
0.999893
0.999901
0.99992
0.999951
0.999992
1.00004
1.0001
1.00016
1.00022
1.00028
1.00032
1.00036
1.00038
1.0004
1.0004
1.00038
1.00036
1.00033
1.0003
1.00026
1.00022
1.00018
1.00014
1.00011
1.00008
1.00006
1.00004
1.00003
1.00002
1.00001
1.00001
1
1
1
1
0.999999
1
1
1
1
1
1
1
1
1
1
1
1
1
1
1
1
1
1
1
1
1
1
1
1
1
1
1
1
1
1
1
1
1
1
1
1
1
1
1
1
1
1
1
1
1
1
1
1
1
1
1
1
1
1
0.999998
0.999993
0.999986
0.999974
0.999959
0.999941
0.999923
0.999906
0.999894
0.999891
0.9999
0.999925
0.999966
1.00002
1.00009
1.00018
1.00027
1.00036
1.00044
1.00051
1.00057
1.00061
1.00063
1.00063
1.00062
1.00059
1.00054
1.00049
1.00043
1.00037
1.00031
1.00025
1.0002
1.00015
1.00011
1.00008
1.00006
1.00004
1.00002
1.00001
1.00001
1
1
0.999999
0.999999
0.999999
0.999999
0.999999
1
1
1
1
1
1
1
1
1
1
1
1
1
1
1
1
1
1
1
1
1
1
1
1
1
1
1
1
1
1
1
1
1
1
1
1
1
1
1
1
1
1
1
1
1
1
1
1
1
1
1
1
1
0.999994
0.999983
0.99997
0.999952
0.999932
0.999914
0.999901
0.999898
0.99991
0.999942
0.999997
1.00008
1.00018
1.0003
1.00043
1.00056
1.00069
1.00081
1.00091
1.00098
1.00102
1.00103
1.00101
1.00097
1.0009
1.00082
1.00073
1.00063
1.00053
1.00044
1.00035
1.00028
1.00021
1.00016
1.00011
1.00008
1.00005
1.00003
1.00002
1.00001
1
1
0.999998
0.999998
0.999998
0.999998
0.999999
0.999999
0.999999
1
1
1
1
1
1
1
1
1
1
1
1
1
1
1
1
1
1
1
1
1
1
1
1
1
1
1
1
1
1
1
1
1
1
1
1
1
1
1
1
1
1
1
1
1
1
1.00001
1.00001
1.00001
1.00001
1
0.999995
0.999983
0.999967
0.999948
0.999929
0.999916
0.999913
0.99993
0.999972
1.00005
1.00015
1.00029
1.00047
1.00066
1.00087
1.00107
1.00126
1.00142
1.00155
1.00164
1.00167
1.00166
1.00161
1.00151
1.00139
1.00125
1.00109
1.00093
1.00078
1.00063
1.0005
1.00039
1.00029
1.00021
1.00015
1.0001
1.00006
1.00004
1.00002
1.00001
1
0.999998
0.999997
0.999997
0.999997
0.999997
0.999998
0.999999
0.999999
0.999999
1
1
1
1
1
1
1
1
1
1
1
1
1
1
1
1
1
1
1
1
1
1
1
1
1
1
1
1
1
1
1
1
1
1
1
1
1
1
1
1
1
1
1
1
1.00001
1.00001
1.00001
1.00001
1.00001
1.00001
0.999999
0.999985
0.999969
0.999951
0.999938
0.999937
0.999959
1.00001
1.00011
1.00025
1.00044
1.00068
1.00097
1.00127
1.00159
1.00189
1.00217
1.00239
1.00256
1.00266
1.00269
1.00264
1.00253
1.00236
1.00214
1.0019
1.00164
1.00139
1.00115
1.00092
1.00072
1.00055
1.00041
1.0003
1.00021
1.00014
1.00008
1.00005
1.00002
1.00001
1
0.999996
0.999994
0.999994
0.999995
0.999996
0.999997
0.999998
0.999999
0.999999
0.999999
1
1
1
1
1
1
1
1
1
1
1
1
1
1
1
1
1
1
1
1
1
1
1
1
1
1
1
1
1
1
1
1
1
1
1
1
1
1
1
1
1
1
1.00001
1.00001
1.00001
1.00002
1.00002
1.00002
1.00001
1.00001
0.999992
0.999978
0.999967
0.999968
0.999995
1.00006
1.00018
1.00036
1.00062
1.00094
1.00134
1.00178
1.00225
1.00272
1.00316
1.00355
1.00387
1.00409
1.00421
1.00421
1.00411
1.00391
1.00362
1.00327
1.00288
1.00248
1.00208
1.0017
1.00135
1.00105
1.0008
1.00059
1.00042
1.00029
1.00019
1.00011
1.00006
1.00003
1.00001
0.999998
0.999992
0.99999
0.999991
0.999992
0.999994
0.999995
0.999997
0.999998
0.999999
0.999999
0.999999
1
1
1
1
1
1
1
1
1
1
1
1
1
1
1
1
1
1
1
1
1
1
1
1
1
1
1
1
1
1
1
1
1
1
1
1
1
1
1
1
1.00001
1.00001
1.00001
1.00002
1.00002
1.00003
1.00003
1.00003
1.00002
1.00001
1
1.00001
1.00004
1.00011
1.00025
1.00048
1.0008
1.00123
1.00176
1.00237
1.00304
1.00373
1.00441
1.00505
1.00559
1.00602
1.00631
1.00644
1.00642
1.00624
1.00592
1.00547
1.00493
1.00434
1.00371
1.0031
1.00252
1.002
1.00154
1.00116
1.00084
1.00059
1.0004
1.00026
1.00016
1.00009
1.00004
1.00001
0.999995
0.999987
0.999985
0.999986
0.999988
0.999991
0.999993
0.999995
0.999997
0.999998
0.999999
0.999999
1
1
1
1
1
1
1
1
1
1
1
1
1
1
1
1
1
1
1
1
1
1
1
1
1
1
1
1
1
1
1
1
1
1
1
1
1
1
1
1.00001
1.00001
1.00002
1.00002
1.00003
1.00004
1.00004
1.00004
1.00004
1.00004
1.00004
1.00005
1.00008
1.00016
1.00032
1.00059
1.00098
1.00151
1.00219
1.00301
1.00392
1.00491
1.0059
1.00686
1.00772
1.00846
1.00902
1.00939
1.00954
1.00948
1.00921
1.00873
1.00809
1.0073
1.00642
1.00551
1.00459
1.00373
1.00295
1.00226
1.00169
1.00122
1.00085
1.00057
1.00037
1.00022
1.00012
1.00005
1.00001
0.999991
0.999981
0.999978
0.999979
0.999983
0.999986
0.99999
0.999993
0.999995
0.999997
0.999998
0.999999
0.999999
1
1
1
1
1
1
1
1
1
1
1
1
1
1
1
1
1
1
1
1
1
1
1
1
1
1
1
1
1
1
1
1
1
1
1
1
1
1.00001
1.00001
1.00001
1.00002
1.00003
1.00004
1.00005
1.00006
1.00007
1.00007
1.00007
1.00009
1.00012
1.00021
1.00038
1.00068
1.00113
1.00177
1.00261
1.00365
1.00485
1.00617
1.00755
1.00891
1.0102
1.01134
1.01229
1.013
1.01346
1.01363
1.01353
1.01315
1.0125
1.01162
1.01054
1.00932
1.00802
1.00671
1.00546
1.00432
1.00332
1.00247
1.00178
1.00124
1.00083
1.00053
1.00032
1.00017
1.00007
1.00002
0.999987
0.999973
0.999969
0.999971
0.999975
0.999981
0.999986
0.99999
0.999993
0.999995
0.999997
0.999998
0.999999
0.999999
1
1
1
1
1
1
1
1
1
1
1
1
1
1
1
1
1
1
1
1
1
1
1
1
1
1
1
1
1
1
1
1
1
1
1
1
1.00001
1.00001
1.00002
1.00003
1.00004
1.00006
1.00007
1.00008
1.0001
1.00011
1.00013
1.00017
1.00026
1.00043
1.00074
1.00124
1.00197
1.00296
1.00423
1.00574
1.00744
1.00927
1.01112
1.0129
1.01455
1.01597
1.01713
1.01798
1.0185
1.01869
1.01855
1.01807
1.01726
1.01615
1.01476
1.01316
1.01142
1.00962
1.00788
1.00626
1.00482
1.0036
1.0026
1.00181
1.00121
1.00077
1.00046
1.00025
1.00011
1.00003
0.999985
0.999964
0.999958
0.99996
0.999966
0.999973
0.99998
0.999986
0.99999
0.999994
0.999996
0.999997
0.999998
0.999999
0.999999
1
1
1
1
1
1
1
1
1
1
1
1
1
1
1
1
1
1
1
1
1
1
1
1
1
1
1
1
1
1
1
1
1
1
1.00001
1.00001
1.00002
1.00003
1.00004
1.00006
1.00008
1.0001
1.00012
1.00014
1.00016
1.00021
1.00029
1.00046
1.00078
1.0013
1.00209
1.00322
1.0047
1.00652
1.00863
1.01094
1.01333
1.01568
1.01788
1.01984
1.0215
1.0228
1.02373
1.02428
1.02447
1.0243
1.02376
1.02285
1.02158
1.01994
1.01798
1.01578
1.01345
1.01112
1.00891
1.00692
1.0052
1.00377
1.00264
1.00177
1.00114
1.00068
1.00038
1.00018
1.00006
0.999989
0.999956
0.999946
0.999947
0.999955
0.999964
0.999973
0.999981
0.999987
0.999991
0.999994
0.999996
0.999998
0.999999
0.999999
0.999999
1
1
1
1
1
1
1
1
1
1
1
1
1
1
1
1
1
1
1
1
1
1
1
1
1
1
1
1
1
1
1
1
1
1.00001
1.00001
1.00002
1.00004
1.00005
1.00008
1.0001
1.00013
1.00016
1.00019
1.00024
1.00032
1.00048
1.00078
1.0013
1.00213
1.00334
1.005
1.00712
1.00963
1.01244
1.0154
1.01835
1.02115
1.02366
1.02581
1.02753
1.02883
1.02972
1.03023
1.03038
1.03019
1.02967
1.02878
1.0275
1.02577
1.0236
1.02104
1.01822
1.01528
1.0124
1.00973
1.00737
1.0054
1.00381
1.00258
1.00167
1.00102
1.00057
1.00028
1.0001
1
0.999952
0.999933
0.999933
0.999941
0.999952
0.999964
0.999974
0.999982
0.999988
0.999992
0.999995
0.999997
0.999998
0.999999
0.999999
1
1
1
1
1
1
1
1
1
1
1
1
1
1
1
1
1
1
1
1
1
1
1
1
1
1
1
1
1
1
1
1
1.00001
1.00001
1.00002
1.00003
1.00005
1.00007
1.0001
1.00013
1.00017
1.00021
1.00026
1.00034
1.00049
1.00077
1.00126
1.00207
1.00332
1.00511
1.00746
1.01035
1.01365
1.01719
1.02076
1.02415
1.02719
1.02977
1.03182
1.03336
1.03442
1.03507
1.0354
1.03545
1.03527
1.03487
1.03419
1.03315
1.03163
1.02955
1.0269
1.02376
1.0203
1.01675
1.01334
1.01024
1.00758
1.0054
1.0037
1.00242
1.0015
1.00086
1.00044
1.00018
1.00003
0.999955
0.999923
0.999917
0.999925
0.999939
0.999953
0.999966
0.999976
0.999984
0.99999
0.999993
0.999996
0.999998
0.999998
0.999999
0.999999
1
1
1
1
1
1
1
1
1
1
1
1
1
1
1
1
1
1
1
1
1
1
1
1
1
1
1
1
1
1
1
1.00001
1.00002
1.00003
1.00004
1.00006
1.00009
1.00013
1.00017
1.00022
1.00028
1.00036
1.00049
1.00074
1.00118
1.00194
1.00317
1.005
1.00751
1.01071
1.01447
1.01857
1.02275
1.02672
1.03025
1.03316
1.0354
1.03696
1.03793
1.03844
1.03862
1.0386
1.03848
1.03833
1.03815
1.03789
1.03741
1.03651
1.03499
1.0327
1.02964
1.02595
1.02188
1.01776
1.01387
1.01042
1.00753
1.00522
1.00346
1.00218
1.00128
1.00069
1.00031
1.00009
0.99997
0.999917
0.999903
0.999909
0.999924
0.999941
0.999956
0.999969
0.999979
0.999986
0.999991
0.999995
0.999997
0.999998
0.999999
0.999999
1
1
1
1
1
1
1
1
1
1
1
1
1
1
1
1
1
1
1
1
1
1
1
1
1
1
1
1
1
1
1.00001
1.00001
1.00002
1.00003
1.00005
1.00008
1.00012
1.00016
1.00021
1.00028
1.00036
1.00048
1.0007
1.00108
1.00176
1.00291
1.00469
1.00726
1.01067
1.01481
1.01944
1.02421
1.02874
1.0327
1.03587
1.03812
1.03949
1.04008
1.04008
1.03971
1.03918
1.03865
1.03828
1.03815
1.03829
1.03863
1.03902
1.03919
1.03878
1.03747
1.0351
1.03168
1.02747
1.02285
1.01823
1.01395
1.01024
1.00721
1.00485
1.00311
1.00187
1.00104
1.0005
1.00018
1.00001
0.999921
0.999891
0.999892
0.999907
0.999926
0.999945
0.999961
0.999974
0.999983
0.999989
0.999993
0.999996
0.999997
0.999998
0.999999
1
1
1
1
1
1
1
1
1
1
1
1
1
1
1
1
1
1
1
1
1
1
1
1
1
1
1
1
1
1
1.00001
1.00001
1.00003
1.00004
1.00007
1.0001
1.00015
1.0002
1.00027
1.00035
1.00047
1.00065
1.00097
1.00156
1.00257
1.00422
1.00673
1.01021
1.01462
1.01971
1.02505
1.03013
1.03452
1.03786
1.04002
1.041
1.04095
1.04013
1.03882
1.03733
1.03591
1.03478
1.0341
1.03397
1.03444
1.03548
1.03694
1.03851
1.03972
1.04007
1.03913
1.03671
1.03296
1.02826
1.02314
1.01811
1.01356
1.00972
1.00665
1.00434
1.00267
1.00153
1.00079
1.00033
1.00007
0.99994
0.999887
0.999877
0.99989
0.999911
0.999933
0.999952
0.999967
0.999978
0.999986
0.999991
0.999995
0.999996
0.999998
0.999999
0.999999
1
1
1
1
1
1
1
1
1
1
1
1
1
1
1
1
1
1
1
1
1
1
1
1
1
1
1
1
1.00001
1.00001
1.00002
1.00003
1.00005
1.00008
1.00013
1.00018
1.00025
1.00033
1.00044
1.0006
1.00087
1.00135
1.0022
1.00366
1.00598
1.00937
1.0139
1.01934
1.0252
1.03085
1.03567
1.03921
1.04121
1.04169
1.04083
1.03896
1.03646
1.03368
1.03099
1.02866
1.02691
1.02591
1.02576
1.02652
1.02822
1.03075
1.03383
1.03696
1.03947
1.04067
1.04008
1.03758
1.03345
1.02829
1.02275
1.01744
1.01275
1.0089
1.00591
1.00372
1.00219
1.00118
1.00055
1.00018
0.99998
0.999892
0.999867
0.999874
0.999895
0.999919
0.999942
0.999959
0.999973
0.999983
0.999989
0.999993
0.999995
0.999997
0.999999
0.999999
1
1
1
1
1
1
1
1
1
1
1
1
1
1
1
1
1
1
1
1
1
1
1
1
1
1
1
1
1.00001
1.00001
1.00002
1.00004
1.00006
1.0001
1.00015
1.00022
1.0003
1.0004
1.00055
1.00077
1.00115
1.00185
1.00307
1.0051
1.00825
1.01268
1.0183
1.02462
1.03085
1.03618
1.03998
1.04189
1.04187
1.04016
1.03714
1.0333
1.0291
1.02495
1.02117
1.01806
1.01579
1.01451
1.01431
1.01527
1.01745
1.02085
1.02527
1.03028
1.03514
1.03895
1.04089
1.04047
1.03773
1.03316
1.02756
1.02171
1.01625
1.01158
1.00786
1.00505
1.00306
1.00171
1.00085
1.00033
1.00005
0.999914
0.999864
0.999861
0.99988
0.999905
0.99993
0.999951
0.999967
0.999979
0.999987
0.999992
0.999994
0.999997
0.999998
0.999999
0.999999
1
1
1
1
1
1
1
1
1
1
1
1
1
1
1
1
1
1
1
1
1
1
1
1
1
1
1
1.00001
1.00002
1.00003
1.00005
1.00008
1.00012
1.00018
1.00026
1.00036
1.00049
1.00067
1.00098
1.00152
1.0025
1.00419
1.00695
1.01108
1.01665
1.02326
1.03007
1.03603
1.04025
1.04222
1.04184
1.03935
1.03522
1.03006
1.02441
1.01879
1.01356
1.00901
1.00536
1.00274
1.00126
1.00098
1.00201
1.00445
1.00839
1.01377
1.02029
1.02728
1.03376
1.03861
1.04094
1.04038
1.03719
1.03212
1.02612
1.02009
1.01466
1.01016
1.00668
1.00414
1.00239
1.00125
1.00055
1.00016
0.999957
0.999872
0.999853
0.999866
0.999892
0.999919
0.999942
0.999961
0.999975
0.999984
0.99999
0.999993
0.999996
0.999998
0.999999
0.999999
1
1
1
1
1
1
1
1
1
1
1
1
1
1
1
1
1
1
1
1
1
1
1
1
1
1
1.00001
1.00001
1.00002
1.00003
1.00006
1.00009
1.00015
1.00021
1.0003
1.00042
1.00058
1.00083
1.00124
1.00199
1.00333
1.00562
1.00925
1.01449
1.02116
1.02845
1.03514
1.04002
1.04231
1.04182
1.03876
1.0337
1.02732
1.02032
1.01331
1.00672
1.00086
0.995922
0.992033
0.989267
0.987673
0.987307
0.988272
0.990722
0.994828
1.00068
1.00816
1.01675
1.02554
1.03327
1.03867
1.0409
1.03981
1.03596
1.03035
1.02407
1.01803
1.01279
1.00859
1.00545
1.00324
1.00177
1.00085
1.00031
1.00003
0.999895
0.999853
0.999856
0.999879
0.999908
0.999933
0.999954
0.99997
0.999981
0.999988
0.999992
0.999995
0.999997
0.999999
0.999999
1
1
1
1
1
1
1
1
1
1
1
1
1
1
1
1
1
1
1
1
1
1
1
1
1
1
1.00001
1.00001
1.00002
1.00004
1.00007
1.00011
1.00017
1.00025
1.00035
1.00049
1.00069
1.00101
1.00157
1.00259
1.00439
1.0074
1.01204
1.01842
1.02598
1.03342
1.03919
1.04217
1.04192
1.03863
1.03289
1.02552
1.01733
1.00905
1.00123
0.994214
0.988189
0.983234
0.979379
0.976628
0.974984
0.974488
0.97526
0.977502
0.981465
0.987356
0.99522
1.00477
1.01524
1.0254
1.03378
1.03908
1.04066
1.03868
1.03403
1.02793
1.02153
1.01565
1.01076
1.00699
1.00427
1.00241
1.00123
1.00052
1.00013
0.999937
0.999863
0.999852
0.99987
0.999897
0.999925
0.999948
0.999965
0.999978
0.999986
0.999991
0.999995
0.999997
0.999998
0.999999
0.999999
1
1
1
1
1
1
1
1
1
1
1
1
1
1
1
1
1
1
1
1
1
1
1
1
1
1.00001
1.00001
1.00003
1.00005
1.00008
1.00013
1.00019
1.00028
1.0004
1.00057
1.00082
1.00123
1.00197
1.00332
1.00568
1.00954
1.01528
1.02272
1.03076
1.03761
1.04166
1.04213
1.03905
1.03301
1.02491
1.01573
1.00634
0.997391
0.989335
0.98238
0.976566
0.971857
0.968195
0.965532
0.963841
0.963161
0.96363
0.965503
0.969097
0.974716
0.982535
0.992455
1.00394
1.0159
1.02682
1.03511
1.0396
1.03999
1.03686
1.03142
1.02498
1.01865
1.01313
1.00872
1.00546
1.00318
1.0017
1.00078
1.00027
1
0.999885
0.999854
0.999863
0.999889
0.999917
0.999941
0.999961
0.999975
0.999984
0.999989
0.999994
0.999996
0.999998
0.999999
0.999999
1
1
1
1
1
1
1
1
1
1
1
1
1
1
1
1
1
1
1
1
1
1
1
1
1
1.00001
1.00002
1.00003
1.00005
1.00009
1.00014
1.00022
1.00032
1.00045
1.00065
1.00096
1.00149
1.00246
1.00422
1.00723
1.01204
1.01889
1.02713
1.03504
1.04052
1.04222
1.03989
1.03405
1.02562
1.0157
1.00533
0.995347
0.986302
0.978477
0.971913
0.966506
0.962114
0.958631
0.956
0.954204
0.953288
0.953406
0.954839
0.957961
0.963147
0.970666
0.980566
0.992513
1.00564
1.01852
1.02942
1.03679
1.03981
1.03865
1.03431
1.0282
1.02165
1.01561
1.01061
1.00679
1.00407
1.00225
1.00111
1.00044
1.00009
0.999922
0.999864
0.999861
0.999882
0.99991
0.999935
0.999956
0.999972
0.999982
0.999988
0.999993
0.999996
0.999998
0.999999
0.999999
1
1
1
1
1
1
1
1
1
1
1
1
1
1
1
1
1
1
1
1
1
1
1
1
1
1.00001
1.00002
1.00003
1.00006
1.0001
1.00016
1.00024
1.00035
1.0005
1.00074
1.00112
1.0018
1.00304
1.00528
1.00905
1.01487
1.02271
1.03133
1.03842
1.04187
1.04089
1.03581
1.02755
1.01725
1.00609
0.995139
0.985113
0.976401
0.969086
0.963012
0.957937
0.953665
0.950121
0.947324
0.945326
0.944196
0.944061
0.945165
0.947878
0.952622
0.959751
0.969427
0.981487
0.995277
1.00955
1.02258
1.03258
1.03826
1.03932
1.03646
1.03103
1.02452
1.01813
1.0126
1.00825
1.00507
1.00289
1.0015
1.00066
1.0002
0.999976
0.999885
0.999866
0.999879
0.999905
0.999931
0.999952
0.999969
0.99998
0.999987
0.999992
0.999996
0.999998
0.999999
0.999999
1
1
1
1
1
1
1
1
1
1
1
1
1
1
1
1
1
1
1
1
1
1
1
1
1.00001
1.00001
1.00002
1.00004
1.00007
1.00011
1.00017
1.00026
1.00039
1.00056
1.00083
1.00131
1.00216
1.00372
1.00651
1.01111
1.01793
1.02654
1.03498
1.04059
1.04162
1.03796
1.03045
1.02024
1.00861
0.996776
0.985746
0.976083
0.96795
0.961166
0.955356
0.950173
0.945476
0.941356
0.938035
0.935729
0.93456
0.934556
0.935775
0.938441
0.942949
0.949739
0.959115
0.971084
0.985197
1.00041
1.0151
1.02735
1.03555
1.03893
1.03781
1.03337
1.02716
1.0206
1.01464
1.00979
1.00615
1.00361
1.00194
1.00092
1.00035
1.00005
0.999917
0.999877
0.999881
0.999902
0.999927
0.999949
0.999966
0.999979
0.999986
0.999992
0.999995
0.999997
0.999999
0.999999
1
1
1
1
1
1
1
1
1
1
1
1
1
1
1
1
1
1
1
1
1
1
1
1
1.00001
1.00001
1.00002
1.00004
1.00007
1.00012
1.00018
1.00028
1.00042
1.00061
1.00093
1.00152
1.00257
1.00449
1.00789
1.01337
1.02111
1.03011
1.03782
1.04149
1.04
1.03388
1.02436
1.01271
1.00025
0.98821
0.977487
0.968426
0.960871
0.954299
0.948096
0.941896
0.935782
0.930205
0.925773
0.923018
0.922187
0.923129
0.925472
0.92899
0.933862
0.940588
0.949692
0.961438
0.97562
0.991414
1.00734
1.02148
1.03196
1.03762
1.03837
1.03515
1.02948
1.02292
1.01666
1.01137
1.00729
1.00438
1.00244
1.00122
1.00052
1.00014
0.999961
0.999895
0.999887
0.999903
0.999925
0.999947
0.999964
0.999977
0.999985
0.999991
0.999995
0.999997
0.999998
0.999999
1
1
1
1
1
1
1
1
1
1
1
1
1
1
1
1
1
1
1
1
1
1
1
1
1.00001
1.00001
1.00003
1.00004
1.00007
1.00013
1.00019
1.00029
1.00045
1.00067
1.00103
1.00175
1.00304
1.00535
1.0094
1.01577
1.02426
1.03322
1.0397
1.04125
1.03735
1.02912
1.01803
1.00539
0.992532
0.98065
0.970477
0.962052
0.954773
0.947663
0.939866
0.931141
0.922027
0.913592
0.907073
0.903558
0.9036
0.906834
0.912111
0.918248
0.924799
0.932189
0.941265
0.952727
0.966753
0.982808
0.999602
1.01525
1.02775
1.03556
1.03822
1.03637
1.03143
1.02505
1.0186
1.01294
1.00846
1.00519
1.00297
1.00155
1.00071
1.00024
1.00002
0.999922
0.999898
0.999906
0.999926
0.999946
0.999963
0.999976
0.999985
0.999991
0.999995
0.999997
0.999998
0.999999
0.999999
1
1
1
1
1
1
1
1
1
1
1
1
1
1
1
1
1
1
1
1
1
1
1
1.00001
1.00001
1.00003
1.00005
1.00007
1.00014
1.0002
1.00029
1.00048
1.00073
1.00114
1.002
1.00356
1.00628
1.011
1.01822
1.02722
1.03571
1.04068
1.0401
1.03407
1.02408
1.01181
0.998594
0.985678
0.974187
0.964647
0.95666
0.948993
0.940078
0.928837
0.915339
0.900885
0.887505
0.877386
0.872495
0.873985
0.881341
0.892264
0.903903
0.914502
0.924071
0.933819
0.945133
0.958832
0.974838
0.992137
1.00894
1.02314
1.03294
1.03747
1.03706
1.033
1.02695
1.02042
1.01447
1.00963
1.00603
1.00353
1.0019
1.00092
1.00037
1.00008
0.999956
0.999914
0.999913
0.999928
0.999947
0.999963
0.999976
0.999985
0.999991
0.999995
0.999997
0.999998
0.999999
1
1
1
1
1
1
1
1
1
1
1
1
1
1
1
1
1
1
1
1
1
1
1
1
1.00001
1.00001
1.00003
1.00005
1.00007
1.00014
1.00022
1.00029
1.00049
1.00079
1.00124
1.00225
1.00412
1.00728
1.01263
1.02061
1.02987
1.03756
1.04087
1.03835
1.03048
1.01905
1.00595
0.99249
0.979775
0.968783
0.95978
0.951776
0.942667
0.930127
0.912867
0.89153
0.868646
0.847669
0.832063
0.824952
0.828404
0.841925
0.861809
0.882793
0.900913
0.915153
0.926966
0.938662
0.952037
0.967741
0.98519
1.00278
1.01837
1.02992
1.03622
1.03728
1.03418
1.02857
1.02208
1.01593
1.01078
1.00686
1.0041
1.00227
1.00115
1.0005
1.00016
0.999997
0.999936
0.999924
0.999933
0.999949
0.999964
0.999976
0.999985
0.999991
0.999995
0.999997
0.999998
0.999999
1
1
1
1
1
1
1
1
1
1
1
1
1
1
1
1
1
1
1
1
1
1
1
1
1.00001
1.00001
1.00002
1.00006
1.00007
1.00013
1.00023
1.00029
1.00049
1.00086
1.00136
1.00249
1.00471
1.00832
1.01424
1.02285
1.03216
1.03882
1.04045
1.03624
1.02684
1.01425
1.00059
0.987169
0.974821
0.964298
0.95555
0.946828
0.934872
0.916373
0.88988
0.857065
0.82241
0.791329
0.768668
0.758675
0.764491
0.785898
0.817809
0.852116
0.881794
0.903964
0.919932
0.933031
0.946372
0.961659
0.978963
0.996995
1.01364
1.02669
1.03462
1.0371
1.03501
1.02992
1.02356
1.01727
1.01187
1.00767
1.00466
1.00265
1.00139
1.00065
1.00024
1.00005
0.999962
0.999938
0.99994
0.999952
0.999966
0.999977
0.999986
0.999991
0.999995
0.999997
0.999998
0.999999
1
1
1
1
1
1
1
1
1
1
1
1
1
1
1
1
1
1
1
1
1
1
1
1
1.00001
1.00001
1.00002
1.00006
1.00007
1.00011
1.00023
1.00029
1.00047
1.00092
1.00149
1.00272
1.00529
1.00937
1.01577
1.02485
1.03406
1.0396
1.03962
1.03397
1.02337
1.00981
0.995795
0.982639
0.970756
0.960535
0.951581
0.941257
0.924833
0.897761
0.858606
0.810878
0.761974
0.719574
0.689483
0.676577
0.684964
0.714987
0.760622
0.811084
0.855845
0.88929
0.911874
0.927781
0.941662
0.956599
0.973568
0.991741
1.00913
1.02341
1.03278
1.0366
1.03551
1.03101
1.02484
1.01848
1.01288
1.00844
1.00521
1.00302
1.00163
1.0008
1.00033
1.0001
0.999993
0.999955
0.99995
0.999958
0.999969
0.999979
0.999987
0.999992
0.999995
0.999997
0.999999
0.999999
1
1
1
1
1
1
1
1
1
1
1
1
1
1
1
1
1
1
1
1
1
1
1
1
1.00001
1.00002
1.00001
1.00006
1.00007
1.00009
1.00023
1.00029
1.00044
1.00096
1.00164
1.00293
1.00583
1.01042
1.0172
1.02655
1.0356
1.04006
1.03852
1.03168
1.0202
1.00587
0.991592
0.978849
0.967484
0.957293
0.947527
0.934645
0.912198
0.874179
0.819583
0.754879
0.691223
0.638275
0.601839
0.586633
0.597448
0.635448
0.694432
0.76173
0.823502
0.870785
0.902285
0.922519
0.937679
0.952475
0.969025
0.987116
1.00498
1.02022
1.03084
1.03588
1.03575
1.03184
1.02591
1.01955
1.01379
1.00915
1.00573
1.00337
1.00186
1.00095
1.00043
1.00016
1.00003
0.999976
0.999962
0.999965
0.999973
0.999981
0.999989
0.999993
0.999996
0.999998
0.999999
0.999999
1
1
1
1
1
1
1
1
1
1
1
1
1
1
1
1
1
1
1
1
1
1
1
1
1.00001
1.00002
1.00001
1.00005
1.00008
1.00006
1.00021
1.00031
1.0004
1.00097
1.00179
1.00314
1.00628
1.01141
1.0185
1.02792
1.0368
1.04032
1.03732
1.02945
1.01743
1.00253
0.987968
0.975695
0.9649
0.95443
0.943157
0.926849
0.897308
0.846967
0.775806
0.694259
0.617474
0.55627
0.51539
0.498709
0.511366
0.555553
0.6257
0.708304
0.78692
0.84915
0.891175
0.917064
0.934256
0.949182
0.965301
0.983156
1.00127
1.01726
1.0289
1.03502
1.03577
1.03244
1.02679
1.02045
1.01459
1.00978
1.00619
1.0037
1.00208
1.00109
1.00052
1.00022
1.00006
0.999999
0.999976
0.999973
0.999978
0.999984
0.999991
0.999994
0.999997
0.999998
0.999999
0.999999
1
1
1
1
1
1
1
1
1
1
1
1
1
1
1
1
1
1
1
1
1
1
1
1
1
1.00002
1.00001
1.00003
1.00008
1.00005
1.00017
1.00032
1.00037
1.00093
1.00194
1.00335
1.00664
1.01227
1.01968
1.02898
1.03765
1.04051
1.0362
1.02736
1.01508
0.999856
0.984928
0.973033
0.962885
0.951924
0.938454
0.91807
0.88125
0.818918
0.73231
0.636087
0.548984
0.482124
0.438613
0.421105
0.43472
0.482758
0.560969
0.655926
0.749413
0.826011
0.879068
0.911455
0.931303
0.946638
0.962357
0.97987
0.998064
1.01458
1.02707
1.0341
1.03564
1.03284
1.02746
1.02119
1.01526
1.01033
1.00661
1.004
1.00229
1.00123
1.00061
1.00028
1.0001
1.00002
0.999992
0.999983
0.999984
0.999987
0.999994
0.999996
0.999997
0.999998
0.999999
1
1
1
1
1
1
1
1
1
1
1
1
1
1
1
1
1
1
1
1
1
1
1
1
1
1
1.00002
1.00001
1.00001
1.00008
1.00004
1.00011
1.00032
1.00037
1.00086
1.00204
1.00358
1.00689
1.01294
1.02074
1.0298
1.03816
1.04066
1.03532
1.02547
1.01311
0.997905
0.982527
0.970717
0.96129
0.949886
0.93371
0.908852
0.86554
0.793463
0.694628
0.58717
0.49266
0.422179
0.377395
0.35958
0.373269
0.422755
0.505684
0.609448
0.714723
0.803669
0.866992
0.905959
0.928791
0.944758
0.960134
0.977246
0.995388
1.01227
1.02541
1.0332
1.0354
1.03308
1.02796
1.02176
1.01579
1.01078
1.00695
1.00426
1.00247
1.00136
1.0007
1.00033
1.00014
1.00005
1.00001
0.999993
0.99999
0.999991
0.999996
0.999997
0.999998
0.999999
0.999999
1
1
1
1
1
1
1
1
1
1
1
1
1
1
1
1
1
1
1
1
1
1
1
1
1
1
1.00001
1.00001
1
1.00006
1.00005
1.00006
1.00029
1.00038
1.00079
1.00206
1.0038
1.00708
1.01337
1.0216
1.03047
1.03838
1.04075
1.03482
1.02392
1.01141
0.996627
0.980893
0.968683
0.959891
0.948472
0.929557
0.900022
0.851535
0.773318
0.667003
0.552493
0.453188
0.380465
0.335439
0.317941
0.331122
0.379887
0.464169
0.57291
0.686288
0.7846
0.856326
0.901098
0.926788
0.943466
0.958557
0.975252
0.993258
1.01037
1.02399
1.03237
1.03511
1.03318
1.02828
1.02217
1.01619
1.01112
1.00723
1.00446
1.00262
1.00147
1.00078
1.00039
1.00018
1.00007
1.00003
1
0.999997
0.999996
0.999999
0.999999
0.999999
0.999999
1
1
1
1
1
1
1
1
1
1
1
1
1
1
1
1
1
1
1
1
0.999999
1
1
1
1
1
1
1
1.00001
0.999996
1.00003
1.00005
1.00003
1.00022
1.0004
1.00073
1.00198
1.00396
1.00724
1.01354
1.02219
1.03105
1.03841
1.04071
1.03471
1.02293
1.00996
0.995835
0.980148
0.967064
0.958437
0.947679
0.926841
0.892738
0.840134
0.759447
0.651042
0.534205
0.432693
0.358765
0.314176
0.297609
0.310214
0.356818
0.439514
0.549347
0.666765
0.770859
0.848391
0.897501
0.92546
0.942722
0.95755
0.973842
0.991669
1.0089
1.02286
1.03166
1.0348
1.03317
1.02844
1.02241
1.01645
1.01135
1.00742
1.00462
1.00274
1.00156
1.00085
1.00044
1.00022
1.0001
1.00004
1.00002
1
1
1
1
1
1
1
1
1
1
1
1
1
1
1
1
1
1
1
1
1
1
1
1
1
1
0.999999
1
1
0.999999
1
1
1
1
1
0.999995
1.00001
1.00003
1.00001
1.00014
1.00037
1.00071
1.00185
1.00401
1.00738
1.01352
1.02241
1.03152
1.03842
1.04052
1.03488
1.02266
1.00889
0.995261
0.980242
0.966218
0.956863
0.947155
0.926151
0.888497
0.832271
0.751336
0.645344
0.530842
0.430023
0.356016
0.312136
0.296755
0.309143
0.353282
0.432625
0.540313
0.657784
0.763804
0.844112
0.895659
0.924969
0.942515
0.957053
0.972976
0.990615
1.00789
1.02206
1.03112
1.03451
1.03307
1.02847
1.0225
1.01656
1.01147
1.00753
1.00472
1.00283
1.00163
1.0009
1.00048
1.00025
1.00012
1.00006
1.00003
1.00001
1.00001
1
1
1
1
1
1
1
1
1
1
1
1
1
1
1
1
1
1
1
1
1
1
1
1
1
1
1
0.999999
1
0.999999
0.999999
0.999999
0.999995
0.999994
0.999988
1
1
1.00007
1.00031
1.0007
1.00172
1.0039
1.00744
1.0134
1.02227
1.03174
1.03853
1.0403
1.03511
1.02311
1.0085
0.994777
0.98083
0.966496
0.95558
0.946409
0.927214
0.888604
0.829648
0.748838
0.647204
0.538202
0.440972
0.368638
0.325963
0.31176
0.324267
0.366356
0.441828
0.545345
0.659654
0.76401
0.843978
0.895839
0.925394
0.942823
0.95702
0.972622
0.990092
1.00735
1.0216
1.03077
1.03426
1.0329
1.02835
1.02243
1.01653
1.01147
1.00756
1.00476
1.00288
1.00168
1.00095
1.00052
1.00028
1.00015
1.00008
1.00004
1.00002
1.00001
1.00001
1
1
1
1
1
1
1
1
1
1
1
1
1
1
1
1
1
1
1
1
1
1
1
1
1
1
0.999998
1
0.999998
0.999996
0.999998
0.999989
0.999985
0.999979
0.999968
0.99998
1.00003
1.00021
1.00065
1.00162
1.00369
1.00734
1.01321
1.02185
1.0316
1.03867
1.04026
1.03533
1.02402
1.00907
0.994623
0.981443
0.967788
0.955402
0.945506
0.928871
0.892928
0.834095
0.753743
0.656061
0.553228
0.461566
0.393215
0.353075
0.340236
0.35288
0.3932
0.464672
0.562744
0.671481
0.771206
0.848027
0.898118
0.926748
0.943617
0.957419
0.972766
0.990105
1.0073
1.0215
1.03062
1.03406
1.03266
1.02811
1.02222
1.01637
1.01137
1.00751
1.00474
1.00289
1.0017
1.00098
1.00055
1.0003
1.00017
1.00009
1.00005
1.00003
1.00001
1.00001
1.00001
1
1
1
1
1
1
1
1
1
1
1
1
1
1
1
1
1
1
1
1
1
1
1
1
1
0.999999
0.999999
0.999999
0.999994
0.999996
0.999985
0.999974
0.999972
0.999946
0.999943
0.999997
1.00013
1.00055
1.00151
1.00343
1.00703
1.01288
1.02128
1.03106
1.03867
1.04051
1.0357
1.02508
1.01049
0.995306
0.982002
0.969406
0.956774
0.94548
0.930348
0.89947
0.845333
0.768192
0.674542
0.577451
0.492296
0.429805
0.393396
0.381958
0.394407
0.432829
0.499901
0.591173
0.692074
0.784557
0.855828
0.902339
0.928984
0.944875
0.958244
0.973417
0.990669
1.00776
1.02179
1.03069
1.03391
1.03236
1.02775
1.02186
1.01607
1.01115
1.00737
1.00467
1.00286
1.0017
1.00099
1.00057
1.00032
1.00018
1.0001
1.00006
1.00003
1.00002
1.00001
1.00001
1
1
1
1
1
1
1
1
1
1
1
1
1
1
0.999999
1
0.999999
1
1
0.999999
1
0.999999
1
1
1
0.999999
0.999999
0.999999
0.999992
0.999993
0.999985
0.999964
0.999959
0.999934
0.999903
0.999957
1.00007
1.00042
1.00136
1.00318
1.00658
1.01233
1.02057
1.03025
1.03835
1.04092
1.03643
1.02625
1.01237
0.997084
0.983052
0.970796
0.959078
0.947349
0.932496
0.906321
0.860195
0.790997
0.704435
0.61462
0.537295
0.481298
0.448096
0.437099
0.448646
0.484795
0.546821
0.629713
0.720383
0.803093
0.866683
0.908124
0.931959
0.946576
0.959516
0.974606
0.991811
1.00873
1.02245
1.03096
1.03381
1.03199
1.02725
1.02136
1.01565
1.01084
1.00716
1.00455
1.0028
1.00168
1.00099
1.00058
1.00034
1.00019
1.00011
1.00007
1.00004
1.00002
1.00001
1.00001
1
1
1
1
1
1
1
1
1
1
1
1
1
1
1
1
1
1
1
1
1
1
1
1
1
0.999999
0.999999
0.999998
0.999993
0.999988
0.999983
0.99996
0.999943
0.999923
0.999876
0.999903
1.00001
1.0003
1.00115
1.0029
1.00606
1.01154
1.01965
1.02926
1.03769
1.04121
1.03756
1.02776
1.01442
0.999642
0.985181
0.972331
0.961327
0.950659
0.936632
0.913788
0.875636
0.817569
0.742855
0.664755
0.597655
0.54759
0.515833
0.504053
0.514102
0.547497
0.603623
0.676551
0.75482
0.825586
0.87977
0.915016
0.935484
0.948692
0.961277
0.976385
0.993565
1.01024
1.02349
1.03141
1.03373
1.03154
1.02662
1.02072
1.0151
1.01042
1.00688
1.00438
1.00271
1.00164
1.00098
1.00058
1.00034
1.0002
1.00012
1.00007
1.00004
1.00002
1.00002
1.00001
1.00001
1
1
1
1
1
1
1
1
1
1
1
1
1
1
1
1
1
1
1
1
1
0.999999
1
1
0.999999
0.999999
0.999998
0.999993
0.999987
0.999979
0.999959
0.999931
0.999908
0.999862
0.999852
0.999951
1.00021
1.00093
1.00255
1.00551
1.0106
1.01844
1.02806
1.03681
1.04124
1.03881
1.02979
1.0168
1.00253
0.988269
0.974843
0.963604
0.954088
0.942218
0.922789
0.891352
0.844654
0.784932
0.722523
0.666927
0.621857
0.591049
0.578815
0.587511
0.617584
0.666671
0.72821
0.792604
0.850142
0.893995
0.922499
0.939396
0.95123
0.963595
0.978818
0.995963
1.01227
1.02485
1.03201
1.03364
1.03098
1.02584
1.01994
1.01443
1.00992
1.00653
1.00416
1.00259
1.00158
1.00095
1.00057
1.00035
1.00021
1.00013
1.00008
1.00005
1.00003
1.00002
1.00001
1.00001
1
1
1
1
1
1
1
1
1
1
1
1
1
1
1
1
1
1
1
1
1
0.999999
1
1
0.999999
0.999999
0.999997
0.999993
0.999986
0.999976
0.999956
0.999928
0.999891
0.999849
0.999819
0.999879
1.00011
1.00072
1.00215
1.0049
1.0096
1.01699
1.02653
1.03571
1.04104
1.03994
1.03214
1.01977
1.00577
0.991812
0.978425
0.966765
0.957421
0.947562
0.932158
0.907618
0.872259
0.828011
0.780844
0.73524
0.695334
0.667512
0.656583
0.664254