/*--------------------------------*- C++ -*----------------------------------*\
  =========                 |
  \\      /  F ield         | OpenFOAM: The Open Source CFD Toolbox
   \\    /   O peration     | Website:  https://openfoam.org
    \\  /    A nd           | Version:  6
     \\/     M anipulation  |
\*---------------------------------------------------------------------------*/
FoamFile
{
    version     2.0;
    format      ascii;
    class       surfaceScalarField;
    location    "1.45";
    object      meshPhi;
}
// * * * * * * * * * * * * * * * * * * * * * * * * * * * * * * * * * * * * * //

dimensions      [0 3 -1 0 0 0 0];

internalField   nonuniform List<scalar> 
11670
(
0.153342
-0.0679208
0.126761
-0.247506
0.0957328
-0.0159432
0.0298465
-0.0802402
0.219117
-0.0627882
0.0730168
-0.235562
0.503631
-0.233602
0.462107
-0.779575
0.353216
-0.0674178
0.23921
-0.545381
-0.00989545
0.00369897
0.00338175
0.00211092
-0.994664
0.16018
-0.214873
1.05503
0.332485
0.0673576
0.000991778
-0.341676
-0.391947
-0.0548661
0.0220222
0.392477
0.459497
-0.143149
0.229527
-0.501767
-0.874736
0.0630648
-0.440654
1.25488
0.00673068
0.00564185
-0.0100977
0.0141029
-0.00301439
-0.00152066
-0.0221026
0.0106105
-0.0129073
0.00578017
0.0104756
-0.0234531
0.00561084
-0.00475554
0.0297554
-0.0107821
-0.00289487
0.00100314
-0.0126309
0.00520135
0.0029919
-0.000806631
0.00959877
-0.00420944
0.00269556
0.00156129
-0.00423642
0.00589543
-0.00605753
-0.000664355
-0.0177203
0.0111291
-0.00399836
-0.00120998
0.00412292
-0.00607598
0.00046153
0.000956453
0.0122953
-0.00454383
-0.0034297
-0.00159448
0.00364876
-0.00365386
0.00267963
0.00124893
-0.00395525
0.00575184
0.00994907
5.91384e-05
0.0168869
-0.0107917
-0.000818033
-0.00103145
-0.0139661
0.0051644
-0.0122293
0.00687838
0.0105766
-0.0351145
-0.00106063
0.0024729
-0.0111424
0.0345332
-0.019295
0.00409767
-0.0254482
0.0166604
0.00906391
0.000898634
-0.0172166
0.0272474
0.0122675
-0.0145191
0.0172018
-0.0551046
0.0128698
-0.000469097
-0.0214299
0.0341197
-0.0254935
0.00675402
-0.0312517
0.0207237
0.0194813
-0.0224755
0.0213972
-0.0681231
0.00644312
0.0138079
0.0336687
-0.0225412
0.028801
-0.0257868
-0.0232738
0.0741982
-0.035761
0.0327414
0.0232685
-0.0743756
-0.00367064
-0.0165142
-0.03351
0.022536
-0.0129935
0.00705406
-0.0496168
0.0227621
0.021945
-0.00555487
0.0334147
-0.0222986
-0.0175993
0.0256023
-0.0258594
0.0815787
0.00165988
-0.0134833
-0.0311691
0.0195755
-0.00550601
0.00703609
0.053562
-0.0189504
0.0211364
-0.030258
0.0186037
-0.0606654
0.0217678
-0.000461802
-0.0177475
0.0240624
-0.0157071
0.00725304
0.0135314
-0.0269154
0.00497495
0.000980601
0.0292343
-0.0136952
-0.00200063
-0.00442517
-0.0324783
0.0137056
0.0152211
-0.00615717
-0.013521
0.0296641
-0.000912576
-0.00367321
-0.0120891
0.00759247
0.00600685
0.00172802
-0.00686748
0.00847139
0.0029181
-0.00642156
0.00721553
-0.0236608
0.000695914
-7.27522e-05
0.0221915
-0.00733297
0.00028235
0.000131991
-3.33835e-05
0.000798269
-0.00025263
0.000151329
-0.00175071
-4.10784e-05
-6.22181e-15
4.59768e-15
0
0
-0.00462148
-0.00910035
0.00657402
-0.00561893
0.00642002
0.00464563
0.00812146
-0.00672736
0.00404115
-0.00359912
-0.0269987
0.00883136
-0.00028997
-0.00212216
-0.00768169
0.0220075
-0.0181516
0.00349735
-0.0241462
0.0166177
0.0170402
-0.000712986
-0.0153957
0.0222381
0.012459
-0.0147082
0.0171578
-0.0555695
-0.00663071
0.0105571
0.0597882
-0.0191296
-6.30302e-05
-0.0086116
-0.0228681
0.0143622
0.0116867
-0.0185921
0.0136491
-0.0453155
-0.00568462
0.00444275
0.0509396
-0.0148015
0.0146859
0.00145471
-0.0137558
0.0174012
0.00365272
-0.0171476
0.0233209
-0.0371298
0.0294393
-0.00256988
-0.0223495
0.0293066
-0.0187903
0.0168089
0.0808335
-0.0240486
-0.0156102
0.0181958
-0.0226284
0.0733677
0.0241556
-0.00458764
0.0324372
-0.0219161
-0.0315637
0.00533645
0.0217436
-0.0287063
0.0243825
-0.0226362
-0.0787683
0.0233966
-0.024717
0.00629959
-0.0304796
0.0206984
0.0196275
-0.0224129
0.0213711
-0.0686946
0.00882963
0.0156225
-0.0205267
0.0265544
0.0239017
-0.0257343
0.0749159
-0.0220872
0.0225683
0.00596205
0.0209394
-0.017345
-0.000485107
-0.0192491
-0.0213452
0.015655
0.0196206
-0.0275477
0.0246923
-0.0682916
0.00547355
-0.0116927
-0.0198056
0.0567416
-0.00394299
-0.00076351
0.122879
-0.00135678
-0.0172364
0.228589
0.0158747
-0.0238387
0.137442
0.0798858
-0.0904818
-0.97562
0.0571669
-0.00747974
0.290195
-0.000708127
-0.00153785
-0.00673302
-0.125573
0.118738
0.382558
0.0984981
-0.110157
0.478369
0.052083
-0.137085
-0.332952
0.0160249
-0.025316
0.50297
0.110252
-0.0957737
-0.878506
0.0258662
0.0447997
-0.606241
0.519183
-0.206185
-0.0194339
-0.0303407
0.249552
1.5674e-05
0.00179856
0.00374478
-0.00195998
-0.0135261
-0.00309055
0.0756645
-0.0511016
0.0248248
-0.103918
-0.0735301
0.162805
-0.0409961
0.194212
0.113372
-0.255601
-0.0339588
0.126045
0.098168
-0.199104
-0.0395476
-0.0403833
0.161934
-0.0885637
-0.106323
-0.606241
0.488917
0.00254591
0.000475107
-0.0137923
0.0103283
0.00101337
0.014136
-0.00891173
0.00471337
0.0189369
-0.0825388
-0.0483519
0.104029
0.0102776
0.017087
-0.0145621
-0.0185449
0.0274477
-0.0204186
0.00985223
-0.00684892
0.0634549
-0.045774
0.00739096
-0.0167698
0.0113504
0.0262034
-0.189059
0.12086
-0.0305944
0.161638
-0.096914
0.00107832
0.00414844
-0.00168395
0.058119
-0.202059
0.114177
-0.152871
-0.0682659
0.176108
-0.0367537
-0.0271827
0.0582959
0.0221977
-0.0147538
0.00617534
-0.0138386
0.0299105
0.00659863
-0.0145308
0.000279238
-0.00729236
0.000393653
0.0365448
0.0663946
0.000354673
-0.0365448
-0.0858199
-0.0114615
-0.102365
0.175136
-0.250268
-0.102924
0.242863
-0.0149197
-0.0122867
0.0188572
0.00177618
-0.0352432
-0.0123989
0.0261494
-0.103547
-0.0490268
-0.165754
0.304717
-0.282097
-0.15502
0.319958
-0.15104
-0.0534908
-0.200469
0.431015
-0.300761
-0.197782
0.373519
0.0651509
-0.0875141
-0.0659279
0.111105
-0.00103191
-0.0650734
0.15407
-0.157445
0.232672
0.113428
-0.202292
-0.0500859
0.112435
-0.233431
-3.58228e-05
0.00729489
2.53188e-06
-0.000467525
0.00628834
2.39227e-06
0.000467525
-0.211336
0.211517
-0.215357
0.0129903
0.0402005
0.17175
0.311233
-0.0184496
-0.0386681
-0.242929
0.076078
0.00103446
-0.0219934
-0.0663696
0.223965
-0.010776
-0.0265555
-0.174534
-0.0756366
0.00889153
-0.00127242
0.0570889
-0.127096
0.00807254
0.0216416
0.107236
0.124851
-0.00474016
-0.01479
-0.0929853
-0.0416963
0.00382048
0.00778256
0.0396856
0.0377768
5.35899e-05
-0.0114811
-0.0371239
-0.0616954
0.00553027
0.0005484
0.0446527
0.0775721
0.00212108
-0.0237341
-0.0633882
-0.0791914
0.010287
-0.00415004
0.0650382
0.259559
-0.0956227
0.0289602
-0.216
-0.285466
-0.0479257
0.0826756
0.225907
0.668307
-0.10423
-0.0256644
-0.503949
-0.369077
0.0221205
0.0686925
0.308645
0.276502
0.000345565
-0.0987538
-0.190397
-0.926979
0.10631
0.0872748
0.749331
0.90208
-0.10723
-0.0966156
-0.685558
0.370866
-0.0142995
-0.0807649
-0.24557
0.122043
0.0097903
-0.0604272
-0.102457
-0.451412
0.132762
0.14437
0.167452
-0.602437
0.107997
0.203382
0.281357
1.31228
-0.29131
0.033362
-1.01019
-0.930475
-0.15473
0.427634
0.601445
0.46844
-0.00547503
-0.211431
-0.281046
0.17148
-1.35354
0.232762
0.964838
0.84287
-0.213669
-0.117404
-0.476411
0.566284
-0.183551
0.0728024
-0.386266
-0.257586
-0.368149
1.54756
-0.912122
-0.944753
-0.0507091
0.23202
0.743689
1.01505
-0.243559
-0.0330777
-0.700754
-0.958818
-0.0321469
0.267397
0.766307
0.552261
-0.263164
-0.0511654
-0.258095
-1.09696
0.406229
0.104331
0.620766
-0.270363
-0.0679837
0.145473
0.272158
0.24794
0.0414203
-0.157653
-0.197024
-0.941413
0.449827
0.24139
0.23549
-1.07489
-0.162606
0.368835
0.807953
0.733012
-0.232651
-0.159726
-0.329002
0.755404
-0.223489
0.0863856
-0.567699
-0.410038
0.155301
0.0293942
0.200793
0.495007
-0.157723
0.071756
-0.346582
0.797163
-0.242095
0.0471471
-0.623269
0.822514
-0.128812
-0.30389
-0.401894
0.567779
0.10009
-0.290794
-0.429306
0.00745547
0.210814
-0.732209
0.556733
-0.21066
0.00457154
0.103854
0.145595
-0.259495
-0.00164083
0.0549237
0.184666
0.0845671
-0.0262931
0.00244251
-0.0820376
-0.614559
-0.0936294
0.226406
0.541109
0.63805
-0.291204
0.130527
-0.53423
-0.253815
-0.0606539
0.131107
0.255004
-0.306857
0.0738424
0.14595
0.0807058
0.205011
-0.0859315
-0.0747132
-0.0540721
-0.0073653
0.0566177
-0.0327361
0
-0.00210296
0.00174884
-4.48941e-19
-0.00219736
0.00255148
-7.73076e-16
3.74342e-16
-0.00309722
0.0494316
-0.0292494
0.0468751
0.127097
-0.62884
0.449878
0.470842
-0.0829837
-0.0524147
-0.342727
-1.19948e-13
0.00159959
-0.00379225
1.68425e-13
5.18949e-14
-0.00165435
0.000737034
-4.70351e-14
0.0237194
-4.49001e-05
-0.00230186
-0.0130787
0.0826976
-0.0205501
0.000188195
-0.0394929
0.0315514
5.4693e-05
-0.0027135
-0.0176569
-0.0237194
8.61502e-05
0.000576393
0.0130776
-0.0315534
-8.86712e-06
0.00452448
0.0176569
0.000239986
0.0060673
-0.00404915
-3.06938e-05
6.28003e-07
-0.00382665
0.000803653
-5.25288e-06
-4.45281e-06
0.000637254
-0.0048315
3.45065e-07
-0.00688399
0.0107726
-5.24491e-05
0.000245887
0.177413
-0.011762
-0.0369111
-0.129823
-0.625361
0.025045
0.230047
0.371866
0.025922
0.022231
-0.180932
0.134085
0.712638
-0.0127385
-0.166549
-0.508134
-0.930596
0.425607
0.249637
0.243823
0.202257
-0.0314264
-0.0423475
-0.112368
-1.04003
0.306179
-0.0991186
0.782796
-0.251631
0.0120113
0.0828582
0.171285
-0.408484
0.151606
0.0515388
0.184423
0.386789
0.0508434
-0.11334
-0.270705
0.000506378
0.0124375
-0.00772009
-4.94485e-05
-7.10049e-05
-0.00844416
0.0142646
0.000471015
0.00221236
-0.00816139
0.000993889
0.00235375
-0.162098
-0.0198863
0.0430326
0.121771
0.0673075
0.0596402
-0.473502
0.362456
0.611195
-0.090491
-0.0589587
-0.447216
0.190173
-0.0667444
0.0153034
-0.158251
0.766659
-0.198723
-0.387782
-0.201016
0.196417
-0.00164472
-0.631324
0.468003
-0.16263
0.0267629
-0.00972047
0.0807526
0.598717
0.0846385
-0.228808
-0.502093
0.0780577
-0.00916127
-0.0294408
-0.0438554
0.306513
-0.0244255
-0.0403203
-0.237616
-0.35508
0.0148641
0.0620141
0.283715
0.189603
-0.0274728
-0.101527
-0.0859789
-0.211514
0.100514
-0.039952
0.212979
-0.0269626
-0.077883
0.416306
-0.297829
-0.571698
0.0746904
0.0466259
0.461354
0.699879
-0.0647754
-0.0597075
-0.56412
-0.995039
0.164662
0.0909169
0.743225
0.259918
-0.061227
-0.00688531
-0.195783
-0.0994309
-0.140038
0.951382
-0.710919
0.00951377
0.0505822
-0.30139
0.239203
-0.819175
0.195486
0.6193
0.363799
0.00610353
-0.087135
-0.254375
0.247913
0.095624
-1.21096
0.86263
-0.461082
0.11287
-0.0297695
0.336263
-0.173919
-0.015815
0.0362443
0.0908162
-0.390702
0.101299
0.0220046
0.284393
0.47093
0.0154854
-0.390915
-0.31996
0.0987623
2.1128e-05
0.251885
1.14419
-0.0921977
-0.21428
-0.846343
0.157482
0.0237476
-0.0644847
-0.15639
0.109798
-0.0101504
-0.0566204
-0.135061
-0.0133037
0.0359641
0.0660621
1.35293
-0.0776859
-0.249085
-1.02753
0.131438
-0.0180374
0.00372961
-0.0662591
1.25291
-0.0465469
-0.244721
-0.969395
0.0950944
-0.0196261
-0.00571246
-0.0437959
-1.40004
0.248101
0.100457
1.05421
0.123077
0.00631886
-0.0117815
-0.062577
0.0299683
-0.108192
0.00818984
0.0244343
0.984793
-0.0188999
-0.212672
-0.762744
-1.45642
0.234038
0.061968
1.15655
0.250462
-0.00830357
-0.0890684
-0.153438
-0.718233
0.16262
0.231914
0.324695
0.659581
-0.188546
-0.17659
-0.298171
-0.258018
0.00616725
0.100054
0.15985
-0.707733
0.0311844
0.279491
0.391097
0.425327
-0.150326
-0.0465086
-0.201179
-0.0304194
-0.0755062
0.196125
-0.0950862
-0.193159
0.0506932
0.0479585
0.0936481
0.0826322
0.134999
-1.00924
0.799807
0.903678
-0.114999
-0.0998059
-0.684186
-0.00999051
0.0153932
4.29533e-12
-3.40176e-12
-3.09882e-12
0.0154826
-0.0108914
2.77997e-12
0.174181
-0.0418645
-0.0386588
-0.0882468
-0.162481
0.0287023
0.0620728
0.0826032
-1.13707
0.193762
0.0338461
0.903373
1.21014
-0.421457
-0.090735
-0.697721
-0.0736194
0.00849327
0.000169629
0.059322
0.0813291
0.00140828
-0.0215596
-0.0677459
-0.631879
0.104802
0.0518814
0.479147
-0.0627748
-0.0800043
0.706888
-0.561255
-0.55076
0.144705
0.253233
0.144743
-0.170073
0.077099
0.0338219
0.0424984
-0.256219
0.0638511
0.0143144
0.213423
0.0340636
0.0288664
-0.121939
0.0591192
0.0566451
0.00116437
-0.0263117
-0.036323
-0.0446872
-0.0195318
0.119358
-0.0578679
0.206724
-0.100312
-0.0286333
-0.0911627
0.0797739
-0.00191331
-0.0209822
-0.0600095
0.140264
-0.0304747
-0.0935481
-0.0350225
0.00878343
0.00920144
-0.0827495
0.0627615
0.239061
-0.00453908
-0.0786755
-0.150537
-0.143024
0.0810719
0.0419685
0.0366809
0.409378
-0.181952
-0.133236
-0.107962
0.172271
-0.0504438
-0.0644815
-0.0444299
0.00120656
-0.034438
0.0786625
-0.0492922
0.233289
-0.0339775
-0.0735586
-0.139773
0.677832
-0.252819
-0.0425654
-0.390899
-0.0783296
0.0175724
0.0105099
0.0436774
-0.205627
0.033259
0.0718721
0.0906419
-0.0295977
-0.0471958
0.304335
-0.225397
-0.24465
0.00617606
0.0493825
0.187317
-0.0790544
0.00669517
0.0112825
0.0609433
-0.00262277
-0.016439
0.0834416
-0.0657662
-0.253993
0.01391
0.0486448
0.200221
0.120867
0.0019098
-0.0312419
-0.0706315
0.338431
-0.0218667
-0.0397331
-0.266833
-0.040589
0.00432849
0.0123155
0.017296
-0.350134
0.0184591
0.076785
0.258259
0.190419
-0.0187699
-0.013019
-0.162463
0.25596
0.000322672
-0.0488167
-0.189561
0.0748681
0.000225861
-0.0284883
-0.0471146
-0.27661
0.0673429
-0.000813884
0.233069
0.0453512
-0.00430452
-0.00769961
-0.0261384
0.521761
-0.0196327
-0.103779
-0.360596
-0.162524
0.00309044
0.0532617
0.102528
-0.148258
-0.00606557
0.0308468
0.0948643
0.75204
-0.407095
0.0499825
-0.420897
-0.713316
0.0470233
0.219999
0.461675
-0.0754178
0.0240606
0.164387
-0.153325
-0.238789
0.0324617
0.0864634
0.167718
-0.178544
-0.0122775
0.0575609
0.180425
0.273833
-0.169983
0.0693284
-0.237137
0.00138322
-0.127089
0.117341
-0.369848
0.00632349
0.255816
0.195239
-0.0371703
-0.138727
-0.0544343
0.143185
-0.123869
-0.684273
-0.0581466
0.336707
0.375285
0.212025
-0.131568
0.0667873
-0.212844
0.219948
-0.00849529
-0.0738698
-0.137359
0.223031
0.17198
-1.45113
1.06553
0.666698
-0.163364
0.00128209
-0.514833
-0.304151
0.111153
-0.038673
0.281026
1.23083
-0.258544
-0.132134
-0.803128
-0.625828
-0.081213
0.223319
0.424457
0.818682
-0.34375
0.054907
-0.493875
-0.8916
0.539424
0.246972
0.0663464
-0.257389
-0.0291258
0.0733362
0.179672
0.419671
-0.0885666
0.00478084
-0.293452
0.320558
-0.13615
0.0573613
-0.281673
0.0615278
-0.00242968
-0.00835412
-0.0446303
-0.0378222
0.00327894
0.00610561
0.0375017
0.0417208
-0.00751547
-0.00349397
-0.0391319
0.226721
0.00900009
-0.0456169
-0.152885
-0.1278
0.00166048
0.0257576
0.0930018
-0.278893
0.0488185
0.0195967
0.176541
-0.294976
-0.000209373
1.0269
-0.751412
0.408431
-0.0576383
-0.150478
-0.238918
0.473135
-0.210313
0.0689736
-0.376143
0.517419
-0.106694
-0.0618686
-0.307013
-0.385706
-0.0863134
0.149234
0.264259
-0.317849
0.0455537
0.127315
0.160475
0.459615
0.0729388
-0.220357
-0.367133
0.823397
0.0682942
-0.235676
-0.69548
-0.446882
-0.0664017
0.204053
0.376488
1.16514
-0.208182
-0.241518
-0.730877
-1.22123
0.212094
0.14704
0.881809
0.302601
0.0212171
-0.0727216
-0.203167
-0.760984
0.00706521
0.143444
0.60298
0.39248
0.0459062
-0.106524
-0.289807
1.53249
-0.165753
-0.231442
-1.13115
-0.602172
0.198533
0.501005
-0.0430411
-0.245993
0.339546
-0.0867527
-0.34162
-0.0677541
0.117176
0.256606
-1.11818
0.0359308
0.255938
0.813045
-0.48387
0.188965
0.00282538
0.303416
-0.728727
0.054905
0.275133
0.418265
-0.766408
0.240086
0.34844
0.201322
1.08936
0.0778619
-0.308971
-0.887492
1.04219
-0.00999542
-0.27695
-0.711639
-0.0918428
0.215747
-0.584618
0.416596
0.776593
-0.248566
0.085342
-0.544977
0.294426
-0.106533
-0.831779
0.583382
-1.0056
0.26787
-0.0359348
0.741825
0.760042
-0.339244
-0.000489993
-0.465383
-0.752663
0.182737
0.00197971
0.594577
0.342843
-0.0218352
-0.0591154
-0.214135
-0.363771
0.00492725
0.123548
0.232388
-0.132492
0.0122739
0.0319873
0.103167
0.15744
-0.0226366
-0.0153343
-0.107411
0.11119
-0.0319969
-0.0194781
-0.0777422
1.41216e-12
0.000815287
-0.00431294
-1.18652e-12
-0.00906942
-0.00579396
0.0142711
0.00299352
0.0151768
0.0630494
-0.16189
0.0865014
-0.000664996
-0.00558683
0.00535105
-9.11219e-13
-0.00278192
0.000743367
1.16305e-12
0.19353
-0.0610456
-0.00150902
-0.142808
0.00638064
0.00464454
-0.0143051
0.00758746
-0.00194193
-0.00134021
0.00794742
-0.000962516
5.14641e-06
0.000341964
-0.00506624
-4.22977e-07
0.00219129
0.0387276
-0.17208
0.121252
-0.123908
0.0319659
0.0513099
0.0310211
-0.534902
0.0649378
0.0989423
0.36034
0.176444
-0.00242968
-0.0651621
-0.128139
-0.14944
0.0400836
0.0307253
0.0886532
0.128188
-0.0811812
-0.0269512
-0.0320925
0.489611
-0.152637
-0.0155528
-0.326371
-0.39
0.116822
0.0896221
0.190967
-7.64932e-07
-0.00450538
0.000654427
6.06476e-06
1.40112e-12
0.0013982
-0.00281854
-2.82781e-13
-0.146557
0.0316198
0.00378778
0.0943935
-0.0709775
0.0190526
0.0116881
0.0253034
0.0825729
-0.0214583
-0.00511701
-0.0464568
0.101313
-0.0108557
-0.0237373
-0.0562939
0.336143
-0.193855
0.0946936
-0.299897
-0.404647
0.0778488
0.226296
0.153078
-1.13115
0.167059
0.278379
0.709165
-0.484923
0.266916
0.0628061
0.124644
0.857799
-0.251385
-0.00469148
-0.546047
0.800881
0.0617815
-0.628066
0.086815
0.12873
-0.255738
0.0640253
0.290111
-0.0498006
-0.0360483
-0.167928
-0.280759
0.0810791
-0.0286069
0.1808
-1.36598
0.328255
-0.0804477
1.08976
0.930234
-0.383213
-0.288142
-0.244193
-1.00937
0.358438
0.408419
0.257706
0.500856
0.0508582
-1.2456
0.683876
0.922893
-0.00747214
-0.169798
-0.720178
-1.04595
0.383687
0.0188008
0.621897
0.275672
-0.181631
-0.0452003
-0.0699103
-0.525587
-0.130388
0.214772
0.378411
-0.2065
0.108305
-0.043662
0.203055
-0.190958
-0.114148
0.434704
-0.10883
-0.287063
-0.0349509
0.118388
0.180066
0.819126
-0.195227
-0.438932
-0.209468
0.327696
0.031559
-0.75495
0.42673
1.08605
-0.337843
-0.0713431
-0.67092
1.08986
-0.406587
-0.400384
-0.278288
-0.282945
0.0536027
0.141696
0.0718712
-0.494323
0.230878
-0.0397193
0.267594
0.495783
0.0770234
-0.149132
-0.356993
-0.162024
0.0682954
-0.0198402
0.161039
0.229739
0.0356072
-0.0984994
-0.214116
0.781392
-0.340984
-0.241177
-0.203188
-1.21353
0.425191
0.0953626
0.694519
0.45918
0.259857
-0.984017
0.251389
-0.365312
-0.00447041
0.296955
0.788715
-0.262821
-0.162793
-0.358764
-0.771097
0.316974
0.262202
0.200509
0.355625
0.0404579
-0.0861742
-0.259864
-0.488837
0.133681
-0.0221574
0.340334
1.16664
-0.0297664
-0.206396
-0.941061
-0.115963
0.494284
-0.375909
0.485806
-0.110723
-0.0680165
-0.293235
-1.41645
0.236481
0.0320118
1.13967
0.0133465
-0.28395
1.12234
-0.808953
-1.08693
0.389712
-0.18506
0.827085
0.332025
-0.0223248
-1.50256
1.16908
1.09823
-0.0879045
-0.202696
-0.79004
0.745093
0.0864408
-0.23036
-0.540107
-1.20957
0.350375
-0.0549734
0.876935
1.28566
-0.125819
-0.167061
-0.985997
-0.391342
0.0941776
0.106415
0.190408
1.36138
-0.063991
-0.437134
-0.858891
-0.352866
0.106587
-0.0435474
0.236919
-0.883668
0.26321
-0.024023
0.689433
0.753236
0.148492
-0.340345
-0.613514
1.14002
0.0153963
-0.29626
-0.88301
0.228521
0.059043
-0.955362
0.69053
-0.246293
-0.154919
0.533109
-0.136525
-0.491542
0.204503
-0.0910871
0.448003
0.30545
-0.0211706
-0.0499996
-0.192812
0.0803915
-0.329199
0.910381
-0.70505
-1.41458
0.169865
0.122453
1.13327
0.435326
0.080271
-0.265361
-0.29284
-0.379143
0.231066
-0.0327806
0.222363
-0.530982
0.222413
0.17914
0.135983
-0.0237755
-0.533848
0.384166
-0.0445525
0.274776
-0.876601
0.619942
1.14145
-0.216482
-0.0126308
-0.868085
0.552106
-0.196782
-0.419283
-0.442603
-0.0990247
0.179667
0.306161
-0.941147
0.423822
0.298787
0.240242
0.846714
-0.297842
0.0525675
-0.631634
-0.725892
0.00837052
0.167687
0.590567
-0.631119
-0.147026
0.274127
0.436504
0.769883
-0.206954
0.0520254
-0.556469
0.495133
-0.13299
-0.116736
-0.239916
0.260457
-0.0434489
-0.0317852
-0.150609
0.289169
-0.165281
0.0633681
-0.240425
-0.045315
-0.0651034
0.400282
-0.28205
-1.07273
0.20319
0.0597911
0.801334
-0.481205
-0.066169
0.174729
0.4391
0.383528
-0.234374
0.104576
-0.318986
0.350257
-0.119348
-0.0418985
-0.169733
0.787571
-0.140758
-0.176239
-0.498627
-0.455914
0.129863
0.0803841
0.272897
-0.263967
0.0895502
0.00865059
0.134803
-0.0125489
-0.0492749
0.194053
-0.107824
0.0923438
0.0321114
-0.427156
0.315204
-0.0366158
-0.183861
1.05374
-0.847135
-0.433675
0.211062
0.0966031
0.108457
0.309015
0.027371
-0.077592
-0.223688
0.617207
0.0243155
-0.260776
-0.402681
-0.271529
0.0678941
-0.00401223
0.17374
0.255244
-0.0703815
-0.143144
-0.0638128
-0.249764
0.0854595
-0.0212425
0.227157
0.611133
-0.613865
-0.0043698
0.0225056
-0.0766018
0.174375
0.0940524
-0.43817
-0.154384
0.685526
-0.396397
-0.1123
0.425366
-0.143852
0.240644
0.0152157
-0.0438015
0.083349
-0.404462
-0.0113698
0.0408815
-0.0189022
0.138788
0.0265276
-0.0871945
-0.0621656
0.0905449
-0.0123962
0.0488208
-0.150595
0.283541
-0.454439
0.200392
-0.00505579
0.0234025
0.214451
-0.348945
-0.038924
0.0444193
-0.134585
0.119171
-0.480615
-0.0283134
0.00932075
0.0813311
-0.0121703
-0.0303857
-0.161166
0.0115234
0.0317538
0.193765
-0.0165293
0.0123749
-0.0885253
0.00957491
-0.00259562
0.0555172
0.00160538
-0.0209236
-0.0547534
-0.00645738
-0.0185233
-0.089842
0.00715545
0.0170442
0.114369
0.00704399
0.00127554
0.318515
-0.0262352
0.0194273
-0.887887
-0.0150024
0.0661637
0.206585
0.0859349
-0.137355
0.264931
0.0393426
-0.0459798
0.717536
0.0363173
0.0355756
0.336499
-0.0349647
-0.0372349
-0.263082
-0.0810826
0.0124514
-0.238226
0.000323662
-0.00847939
-0.0271841
0.00218338
0.00473712
0.0375208
0.0122643
-0.00116938
0.0592294
0.0190831
-0.0142234
-0.348109
0.0197601
-0.00440539
0.105556
-0.0961084
-0.0754436
-0.815733
0.0745914
-0.00579537
0.182674
-0.145422
0.181212
0.857571
0.179977
-0.279905
0.508696
-0.221494
-0.124154
-1.04515
0.00386313
-0.000263704
0.0213441
-0.00176454
-0.00563172
-0.0227043
-0.0210905
0.0253346
0.069464
-0.363797
0.258824
0.850405
0.117273
-0.511716
1.16986
0.0317724
-0.02245
0.177946
0.0450163
-0.0335111
-0.296802
0.39934
-0.391032
-1.02274
0.300284
-0.199484
-0.984086
-0.220644
0.297408
-0.722343
0.0117754
-0.00515837
0.0520532
0.241745
-0.267166
0.524406
-0.145291
0.146858
1.35443
0.182863
-0.255817
0.730252
0.000777091
-0.00370713
2.57915e-13
0.00121069
-0.00100167
0.00257431
-0.00356192
0.000922438
-4.51479e-07
-0.00177342
-0.00447065
-0.000250003
0.00401542
-0.0073899
-1.43799
0.37683
-0.37439
-1.15009
0.00251831
-0.0304543
-0.0595995
-0.257317
0.186729
0.89153
0.234164
-0.244996
0.474609
0.00225049
-0.00318992
0.007308
-0.00643263
-6.85377e-05
0.000196567
0.516482
-0.131728
-1.37206
-0.310039
0.0174964
1.07251
-0.140012
0.2447
-0.579079
0.0922106
-0.195118
-0.448328
0.188232
-0.0776283
0.442262
-0.28899
0.196894
0.648241
0.064775
0.113903
0.731131
-0.0138457
0.041013
0.159687
-0.0583017
0.0424151
0.17631
3.69319e-05
0.00932929
0.022706
-0.00187585
-0.00391724
-0.0213441
-0.06328
-0.0460671
-0.44908
0.00275712
-0.010563
-1.1175
-0.0519656
-0.214872
1.46685
0.0462306
-0.0314477
-0.195248
0.0628308
0.0463917
0.51708
-0.00823429
0.0136991
5.10508e-05
0.117939
-0.0933917
-0.265824
-0.0581194
-0.0639099
-0.50296
0.184845
-0.168952
0.713071
0.264698
-0.249615
-1.10994
0.0898562
-0.0879362
0.740963
-0.140222
0.15486
1.10531
0.186292
-0.222382
0.555654
-0.113787
0.146415
0.411881
0.206575
-0.141466
-0.540259
-0.190541
0.226807
-0.897676
-0.0174393
0.0145125
-0.751366
-0.0845693
0.218894
1.39538
0.0206324
-0.104657
-0.416674
0.118417
-0.015795
0.332815
-0.0549077
0.0376557
-0.257737
0.0795564
-0.0812441
-0.151602
0.103234
-0.136014
0.171494
0.066813
-0.082876
-0.150496
0.0321875
-0.0176596
-0.379712
0.0482995
-0.0278094
0.148471
-0.022717
0.154864
-0.595443
-0.0478456
0.0149836
-0.118998
-0.0205173
0.0272335
0.165989
0.0523781
0.0318943
-0.703934
0.0139905
-0.00793615
3.0869e-12
0.0339938
-0.0226126
0.0967238
0.0889747
0.0416141
0.57748
-0.0893934
0.00307992
0.991095
0.101169
-0.108555
-0.945986
-0.131333
-0.03805
0.816753
0.000589193
-0.0166192
0.326513
0.0392653
0.150743
-0.91016
0.0691967
-0.118675
0.134775
0.0406382
-0.0546302
-0.12219
-0.0786186
0.1057
-0.150052
-0.00410219
-0.000651488
-0.0375378
0.00148613
0.00473058
0.0271793
0.00542181
0.100094
-0.822546
0.0589958
-0.0172281
-0.174659
0.0347321
-0.0596585
0.258005
0.0570296
-0.0753967
-0.387982
-0.0210969
0.00107234
-0.0586439
0.0108925
-0.000166458
0.340981
-0.0295931
0.00193946
-0.0608248
-0.0265517
0.0335892
0.189683
-0.0228391
0.0442638
0.250108
-0.0757886
0.125408
-0.27141
0.069675
-0.0615451
0.373479
-0.00206522
0.0249908
0.228736
-0.0117036
0.00355047
-0.232676
-0.0394442
0.0477802
-0.249403
-0.0108598
0.00647563
-0.0531288
-0.160062
0.0664544
0.246088
0.0754774
-0.148511
0.269969
0.115462
-0.0872617
-0.269305
0.0417512
-0.0525298
0.580533
-0.00123129
-0.00351486
-0.0727604
-0.0143113
0.00596765
0.0463546
0.0183069
-0.0507808
-0.180226
0.00627748
0.0329754
0.144749
0.0402412
-0.00556041
-0.280279
0.0417236
-0.0597143
0.114159
0.0652734
-0.0703385
-0.202956
0.00146312
0.00303393
0.0718942
-0.00229183
-0.00184038
0.0617867
-0.013848
-0.0172292
-0.137197
0.0506592
0.0522628
-0.777517
-0.00125859
0.0124502
0.059807
0.0247353
-0.0150898
-0.351101
-0.00096048
0.00936886
0.0660628
0.0215907
-0.0388187
-0.10557
-0.287453
0.0363643
-1.13401
0.0153736
-0.0218476
0.220595
-0.0339041
0.0379087
0.937475
0.0196788
-0.0120645
-0.146429
-0.00495249
-0.00161501
0.0769466
-0.0777513
0.0722609
0.118089
0.0756989
-0.254458
-0.891404
0.0896145
-0.0302334
0.219524
0.040837
-0.0873305
-0.199222
-0.127162
0.197785
-0.434591
0.0145552
-0.0392227
-0.0885419
0.090919
-0.111592
-0.238309
-0.184014
0.191716
0.319114
-0.170197
0.141095
0.43248
0.129682
-0.0506693
-0.356191
-0.139745
0.0966539
-0.315977
-0.202199
0.230387
0.728788
0.0788747
-0.138075
0.502499
0.181079
-0.135487
0.327081
0.0729853
-0.0430224
-0.150327
0.000868151
-0.00290283
4.38107e-13
0.00293153
-0.00164675
0.00775746
-0.00208992
-0.00388933
-4.66193e-06
0.00189311
-0.0284448
-0.14503
0.00327869
-0.001879
-0.0025982
0.00067894
-0.00449278
-1.47288e-12
-0.00384183
-0.00235845
0.000644948
-0.00430692
0.000864601
5.50256e-07
-0.00200845
0.00218028
-0.00632161
-0.0759923
0.152468
0.341663
0.0404759
-0.00195287
0.113529
0.0849132
0.0965469
-0.543912
-0.00303243
0.000738543
-7.35277e-13
-0.0442562
0.0210711
0.0981788
-0.0232494
0.0267764
-0.105002
0.27803
-0.198736
-0.601483
0.211328
-0.141712
0.777836
0.275307
-0.0829223
-1.23016
0.0256974
-0.112014
0.559617
-0.11105
0.045519
-0.230474
-0.0605998
0.103527
0.23523
-0.338133
0.102757
0.752567
-0.150062
0.0795402
-0.276186
-0.0851815
0.138845
0.216904
-0.250027
0.25708
-0.554109
-0.368512
0.344151
0.697276
0.343801
-0.358091
0.965649
0.256352
-0.19422
0.982061
-0.0122133
0.266061
0.983257
0.00142049
-0.149702
-0.571017
0.179406
-0.0225088
0.6821
0.360316
-0.202945
-1.22119
0.230238
-0.060212
0.792876
0.143971
-0.269852
-0.459428
0.247555
-0.299618
-0.651167
-0.121048
0.0864746
-0.344818
0.178122
-0.0959172
0.493888
-0.179028
0.0900858
-0.347649
-0.109421
0.178314
0.348786
-0.28862
0.16004
1.02356
0.190774
-0.0831338
-0.430881
-0.144942
0.170966
0.61921
-0.255743
0.132464
1.40069
0.27128
-0.419192
1.27029
0.298382
-0.296323
-1.17086
-0.0626755
0.0553984
-0.713926
-0.0877737
0.0847056
1.11106
0.0467933
-0.0160757
0.146643
0.0329609
-0.0573513
0.187539
-0.0771078
0.0703749
0.782667
0.0948179
0.203472
-1.49742
-0.113515
0.0964742
-0.521114
0.027584
-0.0930971
-0.256287
0.107183
-0.0286691
0.325942
-0.148699
0.204407
0.511709
-0.166078
0.299398
-0.71244
0.191239
-0.443081
1.00317
-0.140359
0.223459
1.06292
0.055843
-0.121865
0.578535
-0.104634
0.106349
-1.12769
0.0754625
0.112467
-0.576796
0.193197
0.072852
1.01959
-0.0692827
-0.184763
-1.16365
-0.128985
0.0652872
1.4212
-0.262986
-0.214577
1.57871
-0.0213783
-0.0357107
0.850605
0.0340165
-0.0411678
-1.37655
-0.376542
0.364295
-1.13616
-0.0558217
0.00355546
-1.02669
0.100865
-0.108814
1.1995
0.311095
-0.0922294
0.887728
0.122316
-0.329199
-1.04094
-0.267971
0.238645
0.5257
0.0925989
-0.244572
-0.674044
0.229879
-0.0808673
0.649267
0.297931
-0.383612
0.751316
0.15559
-0.0971473
-0.716183
0.207902
-0.227636
-0.492879
0.265628
-0.225088
-0.504533
0.140528
-0.185999
-0.351816
-0.0859909
-0.14211
0.738803
-0.189158
0.180622
0.353154
0.136797
-0.136349
0.395375
0.135539
-0.128295
-0.298911
-0.102053
0.11894
0.204915
0.0709495
-0.153266
0.4267
0.160077
0.0732013
-0.746822
-0.0219473
0.343684
-1.20234
0.317181
-0.338308
0.803424
0.162288
-0.0598038
-0.579876
-0.060428
0.089141
0.315865
0.0884014
-0.156574
0.63245
0.317199
-0.330118
-0.702664
-0.246892
0.15816
0.935147
0.075022
-0.0804814
0.209078
0.0528893
-0.0663458
-0.179528
0.122304
-0.0918005
-0.372235
-0.127056
0.0788639
-0.34485
-0.149122
0.178844
0.271432
0.255649
-0.108755
-0.538919
0.0883481
-0.210899
0.529306
0.263981
-0.347034
0.793952
0.242585
-0.120379
-0.481739
1.90634
0.277711
-1.11112
0.0474577
0.840558
-0.000607723
-0.930547
0.598548
-0.671048
0.200443
0.444247
1.81553
-0.700032
-0.779901
1.09106
0.850569
0.00587258
-0.482223
-0.320053
-0.361768
1.55901e-14
0.0190772
-0.0208311
-0.0190772
0.0173233
5.98887e-16
-1.90743e-14
-0.0204513
-3.46793e-14
0.017703
-2.43498
-0.106092
1.56234
0.0397456
0.536937
-0.329476
-0.211999
0.387202
-0.109992
0.0117416
0.167482
0.244444
0.333513
-0.814064
-1.01135
-0.645334
0.762691
-2.26421
1.34729
-0.0520893
0.222764
-0.386056
0.123599
0.0688306
-0.375332
0.711986
-0.0198917
-0.294659
-0.124051
0.482564
0.617009
-0.326776
-0.276489
0.0208616
-1.15342
2.46979
0.229995
0.300193
-0.317058
0.156368
0.0807386
0.293588
1.48999
-1.11092
1.4486
-0.446132
-0.78826
0.28606
0.443903
0.941675
0.717229
-0.00299777
0.44017
-0.191229
0.54102
-0.305228
-0.243309
0.160284
-0.365686
0.383112
-0.114385
0.38666
-0.208114
0.0300332
-0.431208
0.183704
0.250649
-0.530004
0.335198
0.111777
-0.223284
-0.276584
-0.200929
-1.19737
2.22918
-1.02664
1.77955
-0.398475
-0.390191
-1.09083
-0.0214307
0.258499
0.299697
0.221327
0.345587
-1.76322
0.451868
1.31558
0.883517
-1.49912
-0.0808265
0.991771
0.0458178
1.21967
-0.577989
-0.710477
-0.798446
0.367698
0.733734
-0.0823608
-0.324725
0.264355
0.207061
0.264194
0.0137327
-0.10336
0.103139
-0.133657
-0.123636
-0.00990826
0.840352
-1.5408
0.763824
0.00189441
0.795791
-0.334803
-0.475627
1.10353
-0.624769
0.00946539
-0.229544
0.158494
0.089551
-0.00633315
0.245664