/*--------------------------------*- C++ -*----------------------------------*\
  =========                 |
  \\      /  F ield         | OpenFOAM: The Open Source CFD Toolbox
   \\    /   O peration     | Website:  https://openfoam.org
    \\  /    A nd           | Version:  6
     \\/     M anipulation  |
\*---------------------------------------------------------------------------*/
FoamFile
{
    version     2.0;
    format      ascii;
    class       volScalarField;
    location    "1.01";
    object      p;
}
// * * * * * * * * * * * * * * * * * * * * * * * * * * * * * * * * * * * * * //

dimensions      [1 -1 -2 0 0 0 0];

internalField   nonuniform List<scalar> 
5835
(
1.15895
1
1.14062
1.00058
1.00817
1.00004
1.00393
1
1.00445
1
1.00539
1.01954
1.00024
1.00048
1.07121
1.00005
3.02787
2.92802
1
1
3.31055
1
3.19649
1.03143
1.00002
1.00025
1.08672
1.00018
1.00311
1.00162
1.00017
1
1.00046
1.00041
1
1.00047
1
1.00051
1.00023
1.00017
1
1.00007
1.00031
1.00018
1.00037
1.00001
1.00021
1
1
1.00008
1.00014
1.00008
1
1.00006
1
1.00005
1.00015
1.00028
1
1
1
1.00041
1.00166
1
1.00036
1
1.00016
1.00069
1.00029
1
1
1.00019
1
1.00061
1
1.00074
1.0005
1
1.00012
1.00006
1.00156
1
1
1.17807
1.17594
1.00518
1.00441
1
1
1
1.00429
1
1.00875
1.00137
1.00155
1
1.00018
1
1.002
1.00393
1.00264
1.00149
1.00057
1.00026
1.07534
1.00017
1.00085
1.07847
1.00019
1.00121
1.00053
1
1.00143
1
1.0001
1
1
1
1
1.03048
1.03661
1.00047
1.00048
1.00224
1.00112
1.00004
1
1
1
1.00241
1.00106
1.00007
1
1.00061
1
1.00065
3.62426
1.00047
3.66493
1
1.00028
1
3.61901
3.58252
3.64626
3.60959
1.23683
1.26309
1.00018
1
1.23097
1
1.00249
1
1.17436
1.00324
1.00244
1.00367
1.00015
1.01202
1
1.00227
1.00063
1.00302
1
1
1
1.00263
1.00058
1
1.00009
1.00402
1.00182
1.00446
1.0013
1.00166
1.00029
1.00498
1.00405
1.00208
1
1.00005
1.00071
1.00071
1
1.00491
1
1.00146
1.00021
1
1.00003
1.00007
1.00001
1.00058
1
1.00013
1.00013
1
1.00033
1.00003
3.57322
3.59067
1.00016
1.0001
1.00027
1.00002
1.00107
1
1
1.00155
1.00347
1.0001
1.00243
1.00019
1.00088
1.00085
1
1.00022
1.00011
1
1
1.00087
1.00183
1.00011
1
1.00223
1.0021
3.49423
1.00116
1.00038
1.00099
1
1.00016
1
1.00083
1
1.21459
1.00055
1.18625
1.00022
1
1
1.00064
1.00104
1
1.00392
1
1.00214
1.00096
1.00007
1.00113
1.00003
1
1.00594
1.00023
1
1.00003
1.01337
1.00553
1.00104
1
1.25693
1.20659
1.0003
1.24424
1.00346
1.0011
1.00108
1.22418
1.2578
1.00022
1.00014
1
1
1.00051
1.00303
1
1.00049
1
1.00067
1.00369
1.00079
1.21307
1
1.00031
1.00084
1.00022
1.00052
1
1
3.74786
1.23912
1.00394
1.24586
1.00061
1.00155
1
1
1.00044
3.71932
1.0008
3.57702
3.63119
3.50247
1.25219
3.63488
1
3.61041
1.00141
1.25726
3.75291
1.27971
3.20016
1.24287
1.00087
1.00061
1.00168
1.21502
1.00069
1
1
1.00234
1
1.20017
1.00037
1.23256
1.00261
1.00157
3.88275
1
1.00547
1.01507
1.00163
1.00037
1.00233
1.00266
1.00022
1.00066
1.00171
1.00006
1
3.50899
1.01125
3.64902
1.00008
1.00233
1.00251
1.00216
1.00202
1.00024
1.01477
1.00289
1.00269
1
1.00648
1
1.00023
1
1.01708
1.0036
1
1
1
1.00113
1.0127
1.0012
1.00442
1.003
1.00031
1
1.00101
1.00009
1
1.00157
1
1.0012
1
1.00004
1
1.00057
1.00009
1.00035
1
1.00031
1.00015
1.00087
1.00015
1.00008
1.00006
1
1.00062
1.00093
1.00089
1.00016
1.00021
1.00026
1
1.00034
1.00004
1.00002
1.00009
1
1.00004
1.00059
1
1
1.00222
1.00108
1.00136
1.00176
1
1
1
1
1.00659
1
1.0011
1.00021
1.00104
1
1
1.00025
1.0023
1.00298
1.00124
1.00114
1.00523
1.00067
1.00149
1.00129
1
1.01033
1
1
1.00275
1
1.0052
1.00532
1.00074
1.01053
1.01792
1.00075
1.00266
1.01137
1.00145
1.0008
1.00158
1.00167
1.00121
1
1.01302
1
1.00486
1.00094
1
1.00483
1.00491
1
1.00175
1
1.00106
1.0002
1.00897
1.00274
1
1.00207
1
1
1.01202
1.00267
1.00168
1
1.00227
1.00873
1.00118
1.00037
1.00256
1.00523
1.00376
1.00142
1
1
1.00466
1.00079
1.00308
1
1
1.00091
1
1.00165
1.00157
1.00128
1.00118
1.00101
1
1
1.00362
1
1
1.00031
1.00218
1.00198
1
1.00034
1.03442
1.00004
1
1.00092
1.03545
1
1
1.00351
1
1.00477
1.00029
1.00271
3.34152
1
1.00045
3.38696
3.47943
3.43429
1
1.0003
1.00117
1.00016
1.23229
1.18781
1.00025
1
1
1.22832
3.41543
1.00005
3.46576
1.00072
1.00033
1.00004
1.20201
1.00223
1.01301
1
3.47179
1
1.14146
1.00446
1.00297
1.00133
1.00114
1.00043
1
1.00042
1.00078
1.00417
1.00439
1.00024
1.00005
1.00017
1.00009
1.00006
1.00117
1.00223
3.50384
1.00011
1.00111
1
1
1
1.00526
1.00195
1
1.00033
1.00491
1.00282
1
1.00184
3.36746
1
1
1.00089
1.0014
1
1.00112
1.00041
1.00174
1
1.00491
1.00354
1.00107
1.00156
1.00185
1.00099
1.0002
1
1
1.00351
1.00094
1.00374
1
1
1.00006
1
1
1
1.00099
1.0001
1.00069
1.00023
1.00036
1.00095
1.00113
1.25633
1.00031
1.22142
1.00143
1.22774
1.00133
1
1
3.44817
1
1.27853
1
1.00007
1.1861
1
3.43704
1
1.28974
1.25946
1
1.00412
3.44068
3.32921
1.28322
1
1.00093
1.00174
1
1.24777
3.38052
1.00015
1.20837
1.00148
1.00108
1.00116
1.00107
3.44365
3.20122
1.00102
1.25133
1.00047
3.39947
1.00043
1
1.00008
3.44798
1.00046
3.42522
1
1.00156
1.0001
1.01232
1.01178
1
1
1.00157
1.00346
1.00012
1.01641
1
1.00242
1.01653
1.00261
1
1.00004
1
1.00014
1.00005
1.00021
1.00019
1.00008
1.00001
1.00037
1.0015
1.00079
1.00048
1.00009
1.00029
1
1.00002
1.00017
1
1.0005
1.00033
1.00168
1.00312
1
1.00044
1
1.00124
1
1.00261
1.00627
1
1.00175
1
1.00571
1.00048
1.00078
1
1.00175
1.0002
1.00214
1.00207
1
1.00563
1.00122
1.00741
1.00114
1.00049
1
1.00014
1
1.00438
1
1.01138
1
1.00091
1.00132
1.00277
1.00568
1.0187
1.00108
1.0029
1
1.01407
1.00998
1.00454
1.0099
1.00661
1.00922
1.00119
1
1.01055
1.00484
1
1.00236
1
1.00138
1.00548
1.00719
1.00169
1.00107
1
1.00165
1.00293
1.00112
1
1.00403
1.00704
1
1
1.00147
1
1.00104
1.00105
1.00133
1
1.00167
1
1.00147
1
1.00508
1
1.00102
1.00264
1
1
1.00043
1
1
1.00066
1.00069
1
1.0004
1.00003
1.00013
1.00017
1.00009
1
1
1.00048
1.00032
1
1
1.00015
1.0014
1.00289
1
1
1.00061
1
1.00026
1.00552
1.00279
1.00226
1.00263
1.00102
1
1.00048
1.00307
1.0013
1
1.00023
1.00061
1
1
1.00276
1
1
1.00465
1.00268
1.00109
1.00095
1
1.00047
1.19995
1.38628
1.47283
1.19579
1.00086
1.00057
1.0007
1.00026
1.00021
1
1
1
1.0006
1.00087
1.00077
1
1
1.00087
1.00001
1
1.00004
1.00135
1
1.00188
1
1.00026
1.00017
1
1
1.00897
1
1.0005
1.01835
1.00007
1.00593
1.0047
1.01862
1.00208
1.00305
1.00258
1
1
1.0067
1.00353
1.00003
1
1.00112
1
1.00201
1.01659
1.0009
1.00202
1.00196
1.00149
1
1.01609
1.01365
1
1.00067
1.01075
1
1
1.00676
1.33415
1
1.35057
1.00551
1
1
1.00011
1.00097
1
1.00071
1.0013
1.00081
1.01343
1.0116
1
1
1.01318
1.00241
1.00752
1.00371
1.0102
1
1.00008
5.2068
5.34056
1.00013
1.00019
1.00002
5.20047
5.24271
5.34596
1
5.15034
1
1.00083
1.00008
5.33223
5.4259
1
5.2404
5.2142
1.00012
1.00003
1.00035
5.34433
1.00013
1.0001
5.33114
1.00068
5.53569
1.00074
1.00031
1.00027
5.68931
5.30134
5.04607
1.00032
1.00045
1.00023
5.10098
5.24155
5.12657
5.10632
5.22851
1.00007
1.00035
5.23879
1
1.00037
5.29759
5.28258
5.21711
1.00003
5.32615
1.00016
1.00072
1.00074
1
1
1.00004
1.00067
1.00091
1.00186
1
1
1.01693
1.01232
1.00042
1.00081
1.01409
1
1
4.06658
1.00008
1.00009
3.98337
1.00013
1.04002
1.00003
1.00068
1.00239
1
1.00123
1.00006
1
1
1.0014
1
1.00017
1
1.00145
1.00137
1.00034
1.001
1.00093
1.00037
1.00003
1.00011
1.00016
1.00083
1
1.0013
1.00012
1.0003
1
1.00095
1.00671
1
1.00115
1.00118
1.00225
1.24797
2.57984
1.00107
1.00021
1.04728
2.57733
1.00059
1.19318
1.0476
1.00157
1.00104
1.00066
1
1.00037
1.00017
1.00033
1
1.00069
1.00028
1.00015
1.00014
1.00001
1.00049
1.00243
1
1.02674
1.00004
1.00053
1
1.0002
1.00105
1.03117
1.02634
1.00182
1
1.00224
1.00216
1
1
1.00372
1.00173
1
1.00046
1.00283
1.00069
1
1.00389
1.00049
1.00231
1
1.00016
1.00209
1.00134
1.00006
1.00066
1
1.00207
1
1.00248
1
1.00228
1.00014
1.00403
1.00044
1.00095
1
1.00532
1
1.00355
1.00017
1
1.00023
1
1.00052
1.00055
1
1.00718
1.00073
1.0015
1
1.00276
1.00164
1
1.00168
1.00112
1.00032
1.00438
1.00406
1.00063
1.00085
1.00436
1.00267
1
1
1.0037
1
1.00977
1
1
1.00097
1.00142
1.00299
1.00381
1.00014
1.00421
1.00138
1.00116
1.00439
1.00171
1.00833
1.00571
1.00024
1.00168
1.00231
1
1.00126
1.00055
1
1.00242
1.00013
1.00026
1.00117
1.00105
1
1.00016
1.00252
1
1.00157
1.00208
1.00632
1.00395
1.00242
1.00003
1.00101
1.00081
1.00709
1.00853
1.0013
1.00395
1.00118
1.00448
1.00117
1.00661
1
1
1.00355
1.00019
1.00023
1
1.00095
1
1.00261
1.00971
1
1.00256
1.00457
1.00138
1.00197
1.00094
1.0008
1.00264
1.00257
1.00051
1.00331
1.00217
1.00124
1
1
1
1.00099
1.00088
1.00135
1
1.00277
1.00183
1
1.00119
1.00212
1
1.00121
1
1.00161
1.00288
1.0046
1
1.002
1.00064
1.00076
1.00162
1.00131
1.00153
1.00098
1
1
1
1.00243
1.00045
1
1.00235
1.00496
1
1.00161
1.00437
1
1
1.0019
1.00186
1.00067
1.00201
1
1.00256
1
1.0006
1
1.00078
1.00022
1.00219
1
1.00065
1.00249
1.00179
1.00146
1.00004
1.001
1.00123
1
1
1
1.00387
1.00066
1
1.0008
1.00052
1.00164
1.00096
1.00022
1.00038
1.00068
1.00006
1.00082
1.00119
1.00078
1.0032
1.00275
1
1.00146
1.00235
1.00527
1.00214
1.00633
1
1.00245
1.00281
1.00123
1.00247
1.00049
1.0004
1.00318
1.00553
1
1
1
1.00074
1.00199
1
1.00025
1.01294
1
1.00212
1.00218
1
1.01437
1.00729
1.00275
1.02526
1.00242
1.03699
1
1.01711
1.00272
1.01531
1.0019
1.00032
1.00104
1.00276
1.00061
1.00225
1.00577
1.00148
1
1
1.02395
1
1.00207
1.00155
1.00278
1
1.38748
2.13131
1.00062
1.00023
1
1.00027
1.00002
1.0013
1.00001
1.00134
1.00056
1.07391
5.26787
1.00033
1.00171
1.00102
1.58021
1.55051
1.0028
1.00011
2.56369
1
1.00249
1.00042
1.02191
1.00013
1.00073
1.47441
1.68428
2.51891
1.00402
5.22645
2.25384
1.00284
3.08033
1.00127
2.02756
2.41668
1.58657
2.0275
1.70454
1.00396
1.09102
1.06569
1.66552
1.00191
1.53242
1.58339
2.42691
1.001
1
1.00269
1.00082
1
2.32571
1.49396
1.00084
1.00048
1.00144
1.06704
1.31092
1.00131
1
1.09471
1.01862
1.00036
1.62315
1.0045
1.00002
1
2.35236
1.0272
1
1.00048
1.03464
1.0008
1.05128
1.00086
1.03487
1.00571
1.00255
1.00139
1.01767
1.0016
1.00056
1.76192
1.0023
1
1.00119
1.00014
1.00559
1.00174
1.00353
1
1
1.00096
2.83322
1.00023
1.00364
1.00039
2.26088
1
1.00344
1.00009
1
1.0016
1.00037
1.07348
1.00017
1.00123
1.00003
1.00144
1
1.00032
1
1.00153
1.02822
1.62148
1.00012
1.0757
1.44974
1.00247
1.0016
1.00034
1.03993
2.39312
2.40359
1.0001
1
1.00281
1
1.00036
1
1.52372
1
1
1
1.00106
1
1.00075
1
1
2.30829
1
1
1.00151
1.04138
1.00267
1.00166
1.48366
1
1.09719
1.00118
1.00072
1
1.51667
2.92004
1.00017
1.00097
1.0001
1
1
1.04456
1.00039
1.00086
1
1.03746
1.00186
1
1.05341
1.00057
1.00011
1.00083
1.00046
1.00008
1.00004
1.0006
1.00004
1.00025
1.00002
1.00002
1
1.00004
1.00175
1
1
1
1.00135
1.00032
1.00031
1.00029
1.0008
1.00022
1
1
1.00034
1
1.00009
1.00091
1.00011
1.00028
1
1.0003
1.00032
1.00056
1.00022
1.00015
1
1.00022
1.00003
1.00075
1.00022
1.00027
1.0001
1.00017
1
1.00011
1.00041
1
1.0001
1.00038
1.00006
1.00118
1
1.0004
2.45364
1
1.00114
1.03138
1
1
1.04141
1
1.00113
1.00031
1.00315
1.00088
1.00058
1.08917
1.03564
1.00057
1.11177
1
1
1.00128
1
1.00154
1
1.00212
1.00103
1.00612
1.00006
1.00247
1.00661
1
1
1.0027
1
1.00216
1
1.0061
1
1
1.00139
1.00431
1.0001
1
1.00019
1
1.00035
1.00352
1.00809
1.00026
1.00041
1.00001
1.07505
1
1.00052
1
1
1.00503
1
1
1
2.41834
1.00073
1.00003
1.00058
1.00562
1
1.00211
1
1.54457
1
1.00251
1.00103
1.00017
1.00065
1.00373
1.00207
1.00049
1.00371
1
1
1.00168
5.43799
1.00001
1.00007
2.21884
1.00093
1
1.00286
1.00983
1.00007
1
1.0021
1.001
1.00117
1
1
1
1.00074
1.0002
1.0003
1.00012
1
1.00024
1
1.00121
1.00323
1.00634
1
1
1.00004
1.00315
1.00097
1.00048
1.00137
1.00134
1.00007
1.00086
1.0005
1.00614
1.00088
1.00037
1.00112
1.00142
1.00083
1
1.00036
1.00071
1.00122
1.00004
1
1.00146
1.001
1
1.00109
1.00072
1.00003
1.00022
1.00011
1.00014
1.00012
1.00052
1.0004
1.00016
1.00027
1
1.00391
1.00039
1.00214
1.00002
1.00042
1.00134
1.00052
1.00098
1.00044
1.00174
1
1.0004
1.00003
1.00007
1
1
1.00026
1.00004
1.00014
1.00188
1.00092
1.00006
1.00038
1.00024
1
1.00026
1.00026
1
1.00006
1.00012
1.06718
1
2.44158
1.00026
1.00017
1.00051
1.00335
1.00023
1.00503
1.00077
1.00049
1.00018
1.00158
1.5668
1.00098
1.00033
1.0003
1.00487
1
1
1.00016
1.0001
1.00069
1.00016
1.00011
1
1.00037
1.00034
1.00091
1.00014
5.5937
1.00081
2.32123
1.00055
1.00023
1.00041
1.00016
1.00025
1.00034
1.00213
1.00173
1
1.00018
1.00015
1.0006
1.00097
1.0001
1.0025
1
1.00004
1.00172
1.00239
1.00023
1.00097
1.00037
1.00405
1.00002
1.00077
1
1.00043
1.03914
1.00014
5.48888
1.00005
2.25317
1.00011
1.00171
1.00153
1.029
1.00123
2.49689
1.00241
1.53107
1.00084
1.05815
1.60264
1.08249
1.02803
1
1
2.15139
1.00117
1.00017
3.03167
1
1
2.48952
1.00013
1.73403
2.46799
1
1
1.00005
2.20024
1.00028
1.50848
1.00002
5.47534
1.00012
2.27364
1.0002
1.00217
1
1.0031
1.00011
1.0001
1.00277
1.00019
1
1.00059
1.00054
1.00607
1.00573
1.00344
1
1.03927
1.03848
1.00006
1.00006
5.58495
6.01265
1
1
5.88922
6.359
1
1
6.28427
6.10706
1.00009
6.28526
6.27838
1
1
1.00016
6.24857
6.05235
1.00008
6.46543
1.00039
6.28701
1.00018
1
6.03525
6.463
6.21959
1.00018
1.00008
6.39967
6.34212
1.0001
6.45663
1.00019
6.27394
1.00035
1.0002
6.23723
6.01875
1.00031
1.00014
6.54441
1.00064
1.00029
6.32157
6.46691
1.0002
1.00008
6.32226
6.2925
1
1.00019
6.43066
6.29089
1.00008
6.32997
6.3234
1.00006
1.00039
6.399
1
6.33615
6.44775
1.00001
1
6.5516
1
6.34263
1
6.37246
6.33233
1.00001
1.00001
6.3401
1.01
1.00161
1
1.00618
1.00202
1
1.00104
1.00271
1.00314
1.00091
1.00194
1.03119
1.05615
1.00934
1
1.00056
1.00016
6.02118
1.00009
1.00008
5.95798
1.00009
6.01545
6.48056
1.00002
6.21548
1
5.95673
1.00042
6.0911
1.00017
1.00035
1.00019
6.38605
6.69493
6.18794
6.8043
1.00029
1
1.00017
1
6.30493
1
1.00014
1.00007
1.00036
1
1.00022
5.75643
5.85523
6.48974
5.90514
5.72146
6.40897
1
1.00013
6.22068
1.00015
6.46922
6.47604
6.33759
1
1.00008
6.04003
1.00039
6.50398
1.00005
6.06313
6.03165
1.00005
1.00153
1.00114
1
1.00224
1.00496
1.00289
1.00382
1.0238
1.02818
1.00001
1.00044
1.00307
1
1.00346
1
1
1.00024
1.03453
1.02818
4.57222
1.00004
1.00001
1.00004
4.92552
1.00005
4.73246
4.97194
1.00288
1
1.00102
1
1.00131
1
1.00104
1
1
1.00122
1
1.00154
1.00012
1.00168
1
1.00104
1
1
1.0005
1
1.00007
1.00018
1.00099
1
1.00141
1
1
1
1.00154
1
1
1.00099
1
1.00163
1.00025
1.67478
1
1.40469
1.30531
1.00155
1.00041
1
1.61767
1.01096
1.00199
1.00087
1
1.00113
1.00687
1.00062
1
1.0015
1.00008
1.00019
1
1.0007
1.00001
1
1.00003
1.0003
1
1
1.00097
1
1.00084
1
1
1.00102
1.0003
1.00082
1.00209
1.0001
1.00223
1.00023
1
1.00272
1.00202
1.00029
1.0018
1
1.00043
1.00159
1.00006
1.00253
1.00286
1
1.0028
1.00063
1.00012
1
1
1.00208
1.00142
1.00428
1
1.0011
1.00281
1
1.00029
1.00031
1.00164
1.00217
1.00179
1.00204
1.0006
1.00008
1.00522
1.00038
1
1.0013
1
1
1.00033
1.00104
1.00066
1
1
1
1.00652
1.00313
1.0001
1.00207
1.00035
1.00136
1
1
1
1
1
1.00485
1
1.0038
1.0014
1.00156
1.00258
1.00105
1.00199
1.00038
1.00105
1
1.00349
1
1.00414
1.00019
1.00279
1.00255
1.00389
1.0031
1.00447
1
1
1.00029
1.00628
1.00151
1.0015
1.00455
1
1.00476
1.0066
1.0008
1
1.00196
1.00536
1.00564
1
1.00167
1.00184
1.00009
1
1
1.00122
1.00302
1.00438
1.0025
1.00023
1.00157
1
1.00147
1
1
1.00198
1
1.00057
1.00168
1
1.00099
1
1.00066
1.00253
1.00062
1.00086
1.00023
1
1.00392
1
1
1.00124
1.00138
1.00075
1.00191
1.00205
1
1.00262
1.00185
1.0024
1.00068
1.00079
1
1
1
1
1.0003
1.00017
1.00149
1.00166
1.00378
1.00087
1.00097
1
1
1
1
1.00679
1.00068
1.0021
1.00679
1.00291
1.00008
1.0025
1.00602
1.00304
1.00408
1.00418
1.00337
1.00226
1
1.00068
1.00174
1.00183
1.00139
1.00436
1
1.00243
1.00326
1.00103
1.00242
1.00002
1.00301
1.00215
1.00237
1.00274
1.00206
1.00145
1.00104
1
1.00097
1
1.00367
1
1
1.00291
1.00026
1.00144
1.00199
1.00213
1.00172
1.00164
1.00421
1.00087
1
1
1
1.00241
1
1.00093
1
1.00327
1
1
1.00057
1.00109
1.00217
1
1.0009
1
1
1.0003
1.00173
1.00157
1.00071
1.00176
1.00085
1.0002
1.00081
1
1.00141
1.00093
1.00083
1.00165
1.00099
1.00157
1.00015
1.00086
1.00202
1.00115
1.00161
1.00136
1.0043
1.00043
1.00324
1.00633
1.00694
1
1.00407
1
1.00382
1
1
1.00203
1
1.00328
1.00011
1.00168
1.00226
1
1.00194
1.00216
1
1.00066
1
1
1.00041
1
1.00206
1
1.00268
1.00123
1.00121
1.00031
1.00246
1
1
1
1.00042
1.00164
1
1.00038
1.00328
1.00328
1.00316
1.00073
1.00282
1.00073
1
1.00065
1.00193
1.00268
1.0049
1.00349
1.00009
1.00282
1.00232
1
1.00275
1.00219
1
1
1.00349
1.00352
1.00297
1.00297
1.00103
1.00061
1
1
1.00129
1.00181
1.00161
1.00086
1
1.00121
1.00103
1
1.00124
1
1.00025
1.00374
1
1.00118
1
1.00164
1.0037
1
1.00217
1.0022
1.00052
1
1.00112
1
1.00127
1.00116
1.00115
1.0017
1.00148
1.00076
1
1
1.00106
1.0001
1.00131
1.00091
1.002
1.00082
1.00008
1
1.00139
1.00176
1.0027
1.00641
1.0021
1.00046
1
1.0016
1.00176
1.00019
1.00174
1
1
1.00322
1.00242
1
1.00007
1.00039
1
1.00139
1.00019
1.00627
1
1.00592
1.00708
1.00101
1.00125
1
1.00342
1.0049
1.00264
1.00018
1
1
1.00067
1.00014
1.0013
1.00771
1
1
1.00282
1.00052
1.00778
1.00165
1.0038
1.00116
1.00056
1.00038
1.00145
1.00132
1
1.00014
1.00408
1
1.00017
1
1.00269
1
1.001
1.00396
1
1.00227
1.00052
1
1.00128
1
1.00122
1.00405
1.00198
1.00093
1.00001
1.00021
1.00137
1.5975
1.00038
1.00033
1.00039
1
1.52956
1.70035
1.71085
1.00097
1
1.57532
1.73701
1.00097
1.00259
1.02462
1.00035
1.97477
1.92669
1
1
1
1.00158
1
1.63773
1.0002
1.00137
1.00034
1.01204
1.91491
1.00066
1.00146
1.60278
1.00008
1.00099
2.21687
1.90016
1.69355
1.00244
1.73777
2.12594
1
1.73642
1.5833
1.7968
1.67442
1.10231
1.00354
2.24889
1.07756
1.87146
1.00043
1
1.00046
1.99145
1.80182
1.00033
1.00165
1.00447
1.64943
1
1
1
1.00047
1.00068
1.00072
1
1.84106
1.81852
1
1.00168
1.05394
1.01205
1.38439
1.31529
1.00006
1.45205
1.57226
1.00047
1.00058
1.00089
1.01965
1
1.00031
1.00131
1.00069
1.01816
1.0043
1.00389
1
1.00123
1.00093
1.00002
1.00163
1.00015
1.00767
1.00172
1.03622
1.00199
1.06755
1.06087
1.00056
1.00101
1.00009
1.00143
1
2.00757
1.00066
1.96907
1.00141
1.00009
1.00112
1.01917
1
1.00108
2.45588
2.32029
1.0003
1.00007
1.00118
1
1
1.03841
1.01729
1.00006
1
1.00103
1.01073
1
1.00081
1
1.00004
1.00002
1.00013
1.00021
1
1
1.00008
1.00008
1.00049
1.00146
1
1.00068
1.00094
1.0022
1.00077
1
1.00059
1.00042
1.00109
1.00004
1.0008
1
1.00074
1.00004
1.00039
1.00036
1.0013
1
1
1
1.00053
1
1
1.00039
1
1
1
1.00026
1.00022
1
1
1
1.00067
1.00049
1.00007
1.00065
1.00075
1.00024
1
1
1.00017
1.00046
1.00035
1
1.00019
1
1.00009
1.00003
1.00035
1.00013
1.00031
1.00003
1.00021
1.00055
1
1.00017
1.00042
1.00083
1.00012
1.00036
1
1.00137
1
1.00047
1.00128
1
1
1
1
1.00038
1.00076
1.00003
1.5591
1
1.58074
1.00174
1
1.00288
1
1.00172
1.00155
1.69285
1
1.00002
1.73071
1
1
1
1.00128
1.00295
1.00194
1
1.68089
1.00068
1.54427
1
1
1.0011
1.00133
1.00025
1
1.00013
2.01137
1.81103
1
1.00045
1.64894
1.63808
1
1.0018
1.0002
1
1.0002
2.51892
2.39026
1.01942
1.01553
1.00294
1.00019
1.80641
1.78438
1
1.00002
1.01487
1.05681
1.00124
1.0101
1.01014
1.00224
1.00179
1.01833
1.00104
1.00442
1
1.019
1.01187
1.00175
1.00083
1.06469
1.06044
1
1
1.00097
1
1
1.00042
1.08075
1.08578
1
1.00126
1.00089
1.00024
1
1.04109
1.08919
1.00017
1
1
1.00059
1.00053
1.00079
1
1
1.00114
1.00249
1
1.0008
1.00161
1.00001
1
1
1.00299
1.00002
1.00012
1.00162
1.00248
1.04995
1.047
1.00069
1.00011
1.00011
1.0035
1.00041
1
1.00069
1.06031
1
1.00096
1.00085
1.06152
1
1.00005
1.04598
1.05787
1.03784
1.03446
1
1.00006
1.00381
1
1.00042
1
1.00012
1.00009
1.00067
1.00062
1.00108
1
1.00032
1
1
1
1.00009
1.00058
1.00053
1
1.0012
1.00419
1
1
1
1.00201
1.00166
1.00047
1
1
1
1.00312
1.00677
1
1.00193
1.00025
1.00175
1
1.00135
1.00003
1.00134
1
1.00517
1.00013
1
1.00388
1
1.00367
1.00047
1.0228
1
1.01437
1
1
1.00536
1.00085
1.75214
1.96925
1.00094
1.00058
1.00066
1.59323
1.7031
1
1
1.00533
1
1.00672
1.00051
1
1.00056
1
1.00019
1.00113
1
1.00487
1
1
1.00079
1.00067
1
1
1.00048
1
1.00081
1.00006
1.00012
1.0001
1.00238
1
1.00396
1
1.0034
1.00271
1.00093
1.00069
1.00185
1.00027
1.0018
1
1.00286
1.00192
1.00392
1
1.00221
1
1.00457
1
1.00237
1
1.00192
1.00262
1.00147
1.00346
1
1.00121
1.00021
1
1
1.00545
1.00234
1
1
1
1.00712
1.00358
1
1
1.00114
1.00052
1
1
1.00003
1.00123
1.00109
1
1.00027
1
1.00035
1.00056
1.00019
1.00112
1.00057
1.0009
1.00021
1.00008
1
1.00071
1.00052
1.00032
1
1.0007
1.00046
1.00035
1
1.00033
1.00086
1.00087
1.00013
1
1
1
1
1.00042
1.00007
1.0001
1.00186
1.00182
1.00221
1
1.00001
1
1.00019
1.00032
1.0003
1.00031
1
1.0008
1
1.0006
1.00009
1
1.00061
1.00051
1
1.00004
1.00025
1.00011
1
1.00015
1
1.00316
1
1.0007
1.00019
1.00003
1
1.03737
1.00019
1.05121
1.0002
1.60889
1.0001
1
1.83142
1.75133
1.00006
1.00246
1
1
1
1.00108
1.0003
1
1.00043
1.001
1
1
1.00277
1
1.00004
1.00039
1.00034
1
1.00006
1
1.00082
1
1.00025
1.00162
1.00048
1.00003
1.00029
1.00106
1.00028
1.00108
1.00079
1.00044
1.00064
1.00045
1
1.00017
1.00034
1.00012
1.00017
1.00517
1.00012
1.00021
1.00061
1.00017
1.00009
1.00265
1
1.00225
1.00226
1.00017
1.00016
1.00029
1.00153
1.0014
1.00004
1.00101
1.00135
1.0006
1.00446
1.00076
1.00118
1
1
1.0037
1.00139
1.00171
1.00052
1.00035
1
1.00051
1
1.00083
1.00389
1.00218
1.0007
1
1
1.00113
1.00076
1.001
1.00017
1
1
1
1.00177
1.00158
1
1
1.00126
1.00117
1.00083
1.00175
1.00151
1.00162
1.82861
1.83857
1.64586
1.00232
1.6631
1.0024
1.00104
1.01511
1.01242
1
1
1.05129
1.00192
1.0392
1.04089
1.00034
1.00098
2.22846
2.30854
1.94647
1.00031
1.0003
1.83581
1.80917
1.00015
1.91951
1
1.83714
1
1.00007
1.79357
1
1.66089
1.0002
1.61243
1
1.00025
1.00231
1.0032
1.00031
1.00733
1.00197
1.00017
1.00168
1.0272
1.03775
1.00068
1.0033
1.00013
1.00397
1.00116
1.00004
1.00231
1.03787
1.02748
1.00252
1.00063
1
1.00509
1.0028
1
1.00228
1.02776
1.03259
1.00057
1.0005
1
1.00107
1
1.00129
1.00599
1.00091
1.00366
1.00001
1.01774
1.00835
1
1
1.00127
1
1.00026
1.00172
1.00542
1.00472
1.02794
1.03089
1
1.00202
1.00283
1
1.00042
1.00145
1.00192
1.00074
1.00035
1.00085
1.00145
1.00367
1.00223
1.00293
1
1.00392
1.00281
1.01654
1.03333
1.01023
1.03135
1.00047
1.00008
5.87992
1
5.91528
1
1.00802
1.00038
1.00249
1.00002
1.00126
1.00032
1.31523
1
1.32959
1.0016
1.00384
1.07956
1.00109
1.00093
1
1.00214
1
1.00352
1.00603
1.00547
1.0002
1.09897
2.82228
3.2586
5.35173
6.76966
4.36345
5.51751
3.25674
2.82395
6.76848
5.36907
5.52311
4.36935
1.00053
1
1.00043
1
1.00074
1.00012
1.0012
1.00125
1.00022
1
1.00057
1.00025
1
1
1.00184
1.00254
1.25315
1.00102
1.00365
1.00287
1.00179
1.00277
1.00371
1
1
1.00217
1.00262
1.00053
1.00011
1.00047
1
1
1
1.0005
1
1
1.00063
1
1
1
1.00301
1.00116
1.00019
1.00249
1.00151
1.00481
1.00073
1
1.00086
1.00087
1.00131
1.00207
1.00126
1.0012
1.0002
1
1.00033
1
1.00284
1.00559
1.00054
1
1
1.00152
1.00403
1.00001
1
1.00031
1.00132
1.00018
1.00073
1.00041
1.00145
1
1.00004
1.00015
1.00064
1.00327
1
1.00036
1.00058
1.0009
1.00121
1
1
1.00027
1
1
1
1.00023
1.00134
1.00006
1
1.00027
1
1
1
1
1.00014
1
1.0001
1.00046
1
1
1
1
1.0003
1.00006
1.0006
1
1.00041
1.00043
1.00057
1.00001
1
1
1
1.00078
1.00158
1.00264
1.00265
1.00342
1.00275
1.00113
1
1.00018
1.00024
1.00063
1.00058
1.00061
1.00035
1.00022
1.00069
1.00017
1.00064
1.00002
1.00108
1.00111
1
1
1.00326
1.0049
1.0009
1
1
1.00074
1.00034
1.00005
1.0001
1.00032
1
1
1
1
1
1.00051
1.00003
1
1.00007
1.00009
1.00008
1.00013
1.00024
1.00029
1.00006
1.00008
1
1.00004
1.20796
1.10448
1.58992
1.38586
1.68386
1.55255
1.00016
1.00023
1
1.00027
1.0001
1.00011
1.26001
1.58678
1.04312
1.14822
1.13072
1.41906
1.00005
1.0001
1.00012
1.00013
1.00008
1.00152
1.00075
1.00104
1.00169
1.00147
1.00209
1.00013
1.00018
1.00018
1.00027
1.00008
1.00013
1.00024
1.00011
1.00001
1
1
1
1
1
1.00005
1.00008
1.00018
1
1.00018
1.0002
1.00043
1
1
1
1.00011
1
1.00072
1
1
1
1.00059
1.00014
1.00089
1.00012
1
1.0007
1
1
1.00167
1.00233
1.00229
1.00048
1.00014
1.00051
1.00038
1.00047
1.00045
1.00057
1
1
1
1
1.00021
1
1.0004
1.00029
1
1
1
3.37821
1.92284
2.94176
2.7125
1.00078
1.00109
1.00157
1.00076
1.00022
1.00251
1.00105
1.00128
1
1
1.00208
1.00189
1.00224
1.0027
1.00005
1
1.00092
1.00018
1.00022
1
1
1.00071
1.00001
1
1
1.00007
1
1
1
1.00004
1.00018
1
1
1.00038
1
1
1.00003
1
1
1
1
1.00038
1.00359
1.00413
1.00295
1.00147
1.00434
1.00504
1.00087
1.00007
1
1
1
1.00012
1.00103
1.0013
1.0019
1.00116
1.00094
1.00056
1.00059
1.00044
1.00117
1.00044
1.00028
1
1.00023
1
1.00013
1
1.00012
1
1
1
1
1
1.00038
1.00103
1.00091
1.00085
1.00071
1.00041
1.01063
1.00111
1.00511
1
1.00113
1.00095
1.00151
1.00086
1.00103
1.00006
1.00027
1.00046
1.0004
1.00074
1.0009
1
1.00233
1
1
1
1
1
1.00014
1.00012
1.00057
1.00397
1.00212
1.00084
1.00315
1.00249
1
1
1
1.00044
1.00405
1.00051
1.00024
1.00061
1.00011
1.00066
1.00013
1.00032
1.00008
1
1
1
1.00015
1.00459
1.00271
1.00153
1.0027
1.00359
1.00152
1.00482
1.00242
1
1.00128
1.00121
1.00176
1
1.00049
1
1
1.00067
1.00123
1.00257
1.00343
1.00936
1
1.00832
1
1.00106
1.00072
1.00124
1.00094
1.0038
1.00069
1.00365
1.00002
1.00207
1.00252
1.00214
1.00129
1.00009
1.00013
1.00184
1.00287
1.00063
1
1.00213
1.00266
1.0032
1.00249
1.00339
1.00215
1.00259
1.00091
1
1.00051
1.00203
1.00252
1.31381
1.14735
1.47142
1.19461
1.52451
1.19554
1.34463
1.16995
1.00017
1.00028
1.00111
1.00071
1.00047
1.00055
1.00076
1.00035
1.00035
1.00047
1
1.00001
1
1
1.00032
1.00033
1
1.00073
1
1.00202
1
1.00031
1.00088
1.00141
1.00207
1.00241
1.00044
1.00068
1
1
1
1
1.00019
1.00031
1.00051
1
1.0002
1.00052
1.00029
1.00025
1
1.00007
1.00025
1.00044
1.00041
1.26606
1.13805
1.77743
1.53199
2.08772
1.8609
3.25366
2.91611
6.76673
5.40392
5.56035
4.37632
3.25303
2.89736
6.75
5.39184
5.56069
4.37065
3.0093
1.7911
2.8611
2.61735
5.01895
2.63555
1.00029
1
1.00022
1.00008
1.00006
1.00009
1.68967
1.24377
1.15492
1.0184
1.43362
1.1064
1.00024
1
1.0003
1
1.00009
1.00017
1.00098
1.00164
1.00003
1.00125
1.00038
1
1.00006
1
1.00008
1
1
1.00059
1
1.00097
1.0005
1.00078
1.00004
1.57787
1.21545
1.14797
1.03216
1.38761
1.10897
2.23729
3.46601
2.17798
3.1867
1.00013
1.00057
1
1.00054
1.00036
1.00073
1.14149
1.41335
1.02487
1.12416
1.04555
1.07431
1
1
1
1.00101
1
1.00084
3.48016
3.06348
6.37371
5.38485
6.63103
5.80559
1.16597
1.42874
1.05873
1.17266
1.01397
1.00123
1.0009
1.00017
1.0004
1.00039
1.00055
3.18445
2.6848
6.75661
5.23226
5.33081
4.48155
2.49988
4.80261
3.28012
5.79081
2.39061
4.75528
1.11342
1.34532
1.00553
1.08684
1.02004
1.03444
1
1.00111
1.00143
1.00216
1.00281
1.00274
1
1.0004
1.00018
1.00059
1
1
1
1
1.00044
1
1
1
1.00006
3.68701
3.64723
2.24045
5.61622
3.21375
1.00183
1
1.00326
1.00151
1.00028
3.26459
2.94082
6.78056
5.41766
5.58783
4.38904
1
1
1
1.00001
1
1.00042
1
1
3.29545
2.9479
6.54637
5.26794
5.46752
4.32498
1.00034
1.00255
1.00013
1
1
1.00111
1.0004
1
1
1.00001
1.0002
1.00141
1.00001
1
1.00087
1.0009
1.00408
1
1
1.00504
1.00201
1.00096
1.00312
1
1.00315
1.0005
1.00213
1.00215
1.00262
1.00211
1.0013
1
1.00162
1.00139
1.00203
1.0007
1.00461
1.00338
1.00309
1.0009
1.0005
1.00182
1.00411
1.00342
1.00152
1.00097
1.00006
1.00299
1.00115
1.00295
1.00222
1.00107
1.00043
1
1.00151
1.00058
1.00051
1
1
1
1
1.00011
1.00056
1.0012
1.00215
1.00185
1.00201
1.00114
1.00082
1
1.00001
1.0001
1
1.00007
1.00059
1.00065
1.00017
1
1.00039
1.00194
1.0011
1.00085
1.00138
1.00117
1.00073
1.00221
1.00158
1
1.0022
1.00141
1
1.00038
1.00863
1
1.00234
1.00035
1.00023
1
1.00102
1.00172
1.00094
1.00275
1.0006
1.00303
1.00221
1.00038
1
1.00128
1.00151
1.00132
1.00126
1.0021
1.00352
1
1
1.00252
1
1.00319
1.0016
1.00162
1.00061
1.00053
1.00017
1.0002
1
1.00073
1
1.0009
1
1.00001
1.00109
1.0002
1.00075
1
1.00117
1.00083
1.00037
1.00038
1.0002
1.00111
1
1.00021
1.00009
1.00104
1.00039
1.00006
1.00004
1.00008
1.00007
1.00033
1.00023
1.00107
1.00079
1.00133
1.00069
1.0006
1.00038
1.00018
1.00023
1.00016
1.00072
1.00037
1.00089
1.00015
1.00055
1.00097
1
1.00039
1
1.00019
1
1
1.00038
1
1.00008
1
1
1.00038
1.00012
1.00159
1.00131
1.00108
1
1
1
1.00007
1.0031
1.0006
1
1.00208
1.00928
1
1
1
1.00033
1.00185
1.00127
1.00041
1
1.00156
1.00046
1.00276
1.00007
1.0009
1
1.00172
1
1.00104
1
1.00063
1.00047
1.00006
1
1.00139
1.00376
1.00387
1
1
1.00151
1.00355
1
1.00007
1.00044
1
1
1
1.00157
1.00158
1.00052
1.00372
1.00123
1.00414
1.00001
1.00012
1.0013
1
1.00106
1
1.00055
1
1
1
1.00351
1.00321
1.00277
1
1.00019
1.00124
1.00221
1.00153
1.00373
1.00083
1
1.00006
1.00024
1
1
1
1
1
1
1.00221
1.00658
1.00114
1.00168
1.00263
1.00092
1
1.00081
1.00103
1.00173
1.00286
1.00224
1.00243
1.00307
1.00125
1
1.00109
1.00191
1.00028
1.00143
1.00147
1.00041
1.00298
1
1.00289
1
1
1.00289
1.00465
1.00569
1.00328
1.00552
1.00547
1.00492
1.00556
1.00128
1
1.0023
1.00093
1.0022
1.00018
1.00028
1
1.00091
1.00062
1.00261
1
1
1
1.00156
1.001
1.00014
1.00737
1.02671
1.00206
1.00619
1.00375
1.00526
1.00051
1
1
1
1
1
1.01885
1.03963
1.01328
1.02226
1.01319
1.02235
1.01828
1.03932
1.0005
1
1
1
1.00385
1.0073
1
1.00329
1.00188
1
1
1.00564
1
1.00349
1.00193
1.00314
1.00326
1.00232
1.00241
1.00187
1.00002
1.00199
1
1.00245
1.00077
1.00024
1.00271
1.00169
1.00138
1
1.00877
1.03172
1.00264
1.00928
1.00544
1.00654
1.00315
1.00318
1
1
1.00159
1.00331
1.00165
1.00231
1.00214
1.00315
1.00141
1.00207
1.00114
1.00066
1.0026
1.00196
1.00197
1.00345
1.00539
1.00325
1.00267
1
1
1.00144
1
1
1
1
1.00036
1
1.00242
1.00373
1.00279
1.00079
1.00054
1.00055
1
1
1
1.00031
1.00021
1.0016
1
1.00072
1
1
1.00054
1
1
1
1
1.00119
1.00145
1.00167
1.00141
1.00194
1.00086
1.00217
1.00291
1.00292
1.00216
1.00145
1.00105
1.00031
1.00163
1
1.00144
1.00082
1.00261
1.00319
1
1.00039
1.00179
1.00159
1
1.00373
1.00112
1.00115
1.00021
1.00015
1.00329
1.0019
1
1.00268
1.00177
1.00408
1.00756
1.0081
1.01071
1.00344
1.00226
1.00035
1.00151
1.00295
1.00717
1.00775
1.00253
1.00275
1
1
1.00093
1.00133
1.0007
1.0003
1.00125
1.00127
1.00032
1
1
1.00046
1
1
1.00086
1.00298
1.004
1.01405
1.00429
1.0079
1.00294
1
1
1.00094
1.00124
1.00489
1.00484
1.01358
1.0009
1.0045
1
1
1
1.00289
1.00171
1.00103
1.00224
1.00187
1.00243
1.00149
1.00086
1.00152
1.00097
1.00172
1.00207
1.00282
1.0028
1.0002
1
1
1
1.00096
1.0012
1.00269
1.00225
1.00297
1.00205
1.00128
1.00054
1
1
1
1
1.00014
1.00458
1.01037
1.00127
1.00414
1.00147
1.00312
1
1.00015
1
1.00029
1.00101
1
1.00264
1
1.00079
1.00008
1
1.00097
1.00071
1.00098
1.00003
1.00058
1
1
1.00126
1.00141
1.00074
1.00075
1.00066
1.0017
1
1.00183
1.00028
1.00008
1.00019
1.00213
1.00085
1.00103
1
1.00011
1.00133
1
1
1.00083
1.00076
1.00091
1.00118
1.00004
1
1
1.00021
1
1
1.00018
1.00015
1
1
1
1.00027
1.0025
1.00122
1.00289
1.00245
1.00038
1.00044
1.00031
1.0003
1.00235
1.00176
1.00129
1.00057
1.00171
1.00108