/*--------------------------------*- C++ -*----------------------------------*\
  =========                 |
  \\      /  F ield         | OpenFOAM: The Open Source CFD Toolbox
   \\    /   O peration     | Website:  https://openfoam.org
    \\  /    A nd           | Version:  6
     \\/     M anipulation  |
\*---------------------------------------------------------------------------*/
FoamFile
{
    version     2.0;
    format      ascii;
    class       surfaceScalarField;
    location    "4.39";
    object      phi;
}
// * * * * * * * * * * * * * * * * * * * * * * * * * * * * * * * * * * * * * //

dimensions      [0 3 -1 0 0 0 0];

internalField   nonuniform List<scalar> 
8193
(
0.0849713
-0.190694
-0.0876593
0.0752028
-0.200612
0.0637846
-0.202754
0.0531448
-0.203511
0.0440736
-0.204639
0.0366695
-0.205964
0.0309272
-0.207077
0.0268433
-0.20773
0.0243484
-0.207703
0.0232842
-0.206756
0.0234005
-0.204606
0.0243696
-0.20098
0.0258295
-0.195672
0.0274199
-0.188577
0.0287702
-0.17967
0.0295256
-0.169088
0.0295092
-0.157186
0.0290843
-0.144321
0.0291097
-0.130019
0.0297423
-0.112926
0.0294165
-0.093183
0.0269215
-0.0741995
0.0237954
-0.0617939
0.022363
-0.0589258
0.0224716
-0.0634483
0.0230985
-0.0790067
0.0229114
-0.105838
0.0210646
-0.141259
0.0171866
-0.180233
0.0114787
-0.2162
0.00454615
-0.243048
-0.0027599
-0.252947
-0.0102568
-0.249316
-0.0183453
-0.239772
-0.0275636
-0.231344
-0.0381285
-0.225489
-0.050188
-0.221083
-0.0640637
-0.217698
-0.0795745
-0.215471
-0.0944162
-0.213904
-0.205972
-0.104535
0.0789422
-0.187285
-0.0893293
0.0625382
-0.191723
0.0469656
-0.195068
0.0335992
-0.198242
0.022688
-0.201884
0.0142641
-0.205609
0.00834318
-0.209002
0.00492679
-0.211812
0.00394138
-0.213756
0.00518585
-0.214479
0.00832073
-0.21357
0.0128931
-0.210656
0.0183853
-0.20548
0.0242569
-0.197925
0.0299061
-0.187919
0.0346866
-0.175565
0.037949
-0.161229
0.0394069
-0.145642
0.0400399
-0.129609
0.0417696
-0.112729
0.0449625
-0.0936015
0.0472589
-0.0729222
0.0467145
-0.0569375
0.0442546
-0.0514897
0.0417213
-0.0553617
0.0393077
-0.0705628
0.0363022
-0.096438
0.0321461
-0.130471
0.0266882
-0.168042
0.0201862
-0.203012
0.0131093
-0.229489
0.00623769
-0.23996
-0.000392205
-0.237105
-0.00728781
-0.227998
-0.0151128
-0.21951
-0.0242115
-0.213409
-0.0348103
-0.208675
-0.0473983
-0.204605
-0.0626266
-0.20115
-0.0805517
-0.19838
-0.1942
-0.0962679
0.0602698
-0.178483
-0.0798434
0.0407576
-0.183031
0.0233485
-0.188348
0.00884992
-0.194141
-0.00276205
-0.200231
-0.0114092
-0.206355
-0.0169368
-0.212191
-0.0193235
-0.217371
-0.0186742
-0.2215
-0.0152321
-0.2241
-0.00936459
-0.224652
-0.00154116
-0.222694
0.0076336
-0.217845
0.0174111
-0.209856
0.0268456
-0.198471
0.0350401
-0.183852
0.0412317
-0.166509
0.0450584
-0.147583
0.0468302
-0.128565
0.0480653
-0.110269
0.0509351
-0.0919613
0.0552517
-0.0719878
0.0581894
-0.0539685
0.0578718
-0.0447074
0.0557071
-0.0462839
0.0521779
-0.0597941
0.0475997
-0.084428
0.0419215
-0.117315
0.0353089
-0.154062
0.0281328
-0.188747
0.020851
-0.21557
0.014224
-0.227328
0.0081908
-0.225881
0.00218433
-0.217797
-0.00450739
-0.209795
-0.0123127
-0.203915
-0.0215165
-0.199268
-0.0325167
-0.195014
-0.0459205
-0.190866
-0.0624847
-0.186716
-0.182075
-0.0813178
0.0365107
-0.16939
-0.0596662
0.015495
-0.175625
-0.0027806
-0.183056
-0.0179003
-0.191229
-0.029639
-0.199799
-0.0377886
-0.208508
-0.0422718
-0.216925
-0.0430928
-0.22462
-0.04039
-0.231083
-0.0344002
-0.235752
-0.0254285
-0.238057
-0.0139011
-0.237425
-0.0005553
-0.233178
0.013536
-0.224742
0.0270095
-0.21158
0.0386361
-0.193996
0.0474608
-0.172785
0.0530285
-0.149595
0.0558
-0.12684
0.0568321
-0.105942
0.0583008
-0.0872919
0.0621532
-0.0690188
0.0668382
-0.0512545
0.0691063
-0.0391149
0.0685058
-0.037489
0.0651058
-0.0480053
0.0596275
-0.0705178
0.0526883
-0.102063
0.0449223
-0.138277
0.036924
-0.173205
0.0292092
-0.200977
0.0225406
-0.214643
0.0167844
-0.215166
0.0113537
-0.208658
0.00548854
-0.201659
-0.00127685
-0.19649
-0.00925905
-0.192393
-0.0188808
-0.188396
-0.0306782
-0.184071
-0.0450865
-0.179369
-0.173809
-0.0624958
0.00854546
-0.16135
-0.0333566
-0.0132662
-0.169643
-0.0317323
-0.179323
-0.0465783
-0.189894
-0.0575567
-0.201012
-0.0645341
-0.21233
-0.067457
-0.223362
-0.0663833
-0.233586
-0.0614359
-0.242447
-0.0527372
-0.249401
-0.0404389
-0.25386
-0.0249561
-0.255003
-0.00731905
-0.251546
0.0109655
-0.242446
0.0282162
-0.227
0.0430676
-0.205837
0.0543637
-0.179965
0.0615299
-0.151621
0.0651087
-0.124343
0.0661787
-0.100097
0.0664658
-0.0799271
0.0686409
-0.0629166
0.073218
-0.0470492
0.0774123
-0.0341526
0.0790316
-0.0297189
0.0770141
-0.0365184
0.0716625
-0.0557811
0.0640379
-0.0853137
0.0553638
-0.120924
0.0465545
-0.156359
0.0382812
-0.185513
0.0313602
-0.201583
0.0256368
-0.204566
0.0204951
-0.200108
0.0151457
-0.194566
0.0091057
-0.190556
0.0020628
-0.187469
-0.00635666
-0.184247
-0.0166332
-0.180321
-0.0293049
-0.175548
-0.169435
-0.0448719
-0.0228105
-0.155067
-0.00230709
-0.0443559
-0.16554
-0.062104
-0.177497
-0.0758324
-0.19047
-0.0853619
-0.204104
-0.0906406
-0.217951
-0.09168
-0.231486
-0.0885459
-0.244154
-0.081267
-0.255455
-0.0697747
-0.264959
-0.0541051
-0.271985
-0.0348179
-0.275199
-0.0133932
-0.272407
0.00841099
-0.262293
0.0287604
-0.244085
0.0464482
-0.219043
0.0601457
-0.188058
0.0692253
-0.154075
0.0739221
-0.121496
0.0754302
-0.0932526
0.0752059
-0.0706585
0.075689
-0.0537867
0.0789152
-0.0402253
0.0836805
-0.0285715
0.0872512
-0.0227984
0.0872336
-0.0260271
0.083187
-0.0414521
0.0758278
-0.0680486
0.0667049
-0.102467
0.0572355
-0.138334
0.0483823
-0.169095
0.041069
-0.187914
0.0352002
-0.19377
0.0301152
-0.19174
0.0250116
-0.188031
0.0193895
-0.185549
0.0129467
-0.183862
0.00536749
-0.181871
-0.00375103
-0.178887
-0.0149036
-0.174635
-0.168605
-0.0285567
-0.0561327
-0.151093
0.0319379
-0.0763824
-0.163721
-0.0925123
-0.177912
-0.104383
-0.193195
-0.111932
-0.209169
-0.115187
-0.22532
-0.11423
-0.241097
-0.109051
-0.256053
-0.0995161
-0.269834
-0.0854065
-0.282104
-0.0668483
-0.291851
-0.0447416
-0.296976
-0.0209089
-0.294366
0.00316492
-0.283053
0.0256509
-0.26192
0.0456037
-0.233115
0.0615531
-0.197008
0.073059
-0.157575
0.0797531
-0.119295
0.082711
-0.0865449
0.0831085
-0.0607458
0.0829
-0.0427548
0.0846767
-0.0308041
0.0888901
-0.0213604
0.0937443
-0.0161589
0.0958734
-0.0167616
0.0937368
-0.0282
0.0876444
-0.0513109
0.0787797
-0.0836298
0.0690051
-0.119471
0.0596882
-0.151794
0.0519452
-0.173517
0.0458263
-0.182554
0.0406365
-0.183234
0.0355768
-0.181654
0.0301174
-0.180972
0.023967
-0.180978
0.0168644
-0.180577
0.00847863
-0.178975
-0.00160159
-0.175777
-0.170489
-0.0137274
-0.0895524
-0.149856
0.0673996
-0.107543
-0.164529
-0.121285
-0.180789
-0.130745
-0.198144
-0.135974
-0.216136
-0.137087
-0.234214
-0.134179
-0.251868
-0.127208
-0.268811
-0.115827
-0.285005
-0.0998355
-0.299983
-0.0795333
-0.312242
-0.0564034
-0.318504
-0.0319219
-0.31567
-0.00699763
-0.30334
0.0165254
-0.279466
0.0381042
-0.247497
0.0562168
-0.206826
0.070764
-0.16285
0.0802935
-0.1187
0.0859241
-0.0813254
0.0884185
-0.0517948
0.0890568
-0.0314885
0.0902307
-0.0197568
0.0935963
-0.0123392
0.0989474
-0.00911819
0.103088
-0.00867616
0.103292
-0.0165277
0.0990435
-0.0357281
0.0912188
-0.0652192
0.0817312
-0.100361
0.0722626
-0.133891
0.0641866
-0.158425
0.0577891
-0.170789
0.0524218
-0.174379
0.0472915
-0.175138
0.0418281
-0.176436
0.0357372
-0.178318
0.0287984
-0.179737
0.0207485
-0.179826
0.0112768
-0.178104
-0.174117
0.000160673
-0.12079
-0.151619
0.101618
-0.135789
-0.168101
-0.146628
-0.186124
-0.153384
-0.205164
-0.156207
-0.224716
-0.155264
-0.244238
-0.150627
-0.263333
-0.142179
-0.281924
-0.12971
-0.300077
-0.113184
-0.317162
-0.0929473
-0.331301
-0.0707543
-0.337815
-0.0468788
-0.335086
-0.0222755
-0.322036
0.0010741
-0.295588
0.0231894
-0.261194
0.043047
-0.217202
0.0616577
-0.171044
0.0762469
-0.122065
0.0850868
-0.0782633
0.0900532
-0.0443146
0.0927607
-0.0213423
0.0946108
-0.00848956
0.0978247
-0.00232358
0.103315
-0.0014273
0.108914
-0.00131337
0.111479
-0.0065328
0.109573
-0.0218594
0.10358
-0.0480649
0.0950912
-0.0817284
0.0859744
-0.115874
0.0778387
-0.142862
0.0712442
-0.158475
0.0657169
-0.165073
0.0604975
-0.168307
0.0549728
-0.171681
0.0488224
-0.175515
0.0418462
-0.178859
0.0338488
-0.180817
0.0245901
-0.180827
-0.178504
0.0139407
-0.147422
-0.156355
0.131848
-0.159023
-0.174287
-0.166761
-0.193641
-0.170806
-0.213865
-0.171376
-0.234428
-0.168657
-0.254849
-0.162696
-0.274882
-0.153394
-0.294619
-0.140699
-0.314085
-0.124983
-0.332237
-0.106537
-0.347285
-0.0865106
-0.353692
-0.064425
-0.351473
-0.0414833
-0.337865
-0.0195301
-0.30915
0.00208008
-0.273267
0.0226322
-0.227202
0.0428616
-0.179836
0.0623647
-0.129375
0.0775864
-0.0806667
0.0871721
-0.0405885
0.0929873
-0.0134884
0.0967709
0.00161133
0.101013
0.00738528
0.106866
0.00657798
0.113486
0.00566437
0.118261
0.00185025
0.119005
-0.0100776
0.115415
-0.0327848
0.108632
-0.0643047
0.100528
-0.0984005
0.0927535
-0.12722
0.0861744
-0.145764
0.0806143
-0.155348
0.0753863
-0.161108
0.0698562
-0.16659
0.0636601
-0.172367
0.056582
-0.177612
0.0484909
-0.181486
0.0392008
-0.183337
-0.182843
0.028632
-0.167152
-0.163669
0.155364
-0.175345
-0.182597
-0.180136
-0.202766
-0.181757
-0.223613
-0.180452
-0.244617
-0.176413
-0.265373
-0.169691
-0.285793
-0.160289
-0.306028
-0.148269
-0.32606
-0.13432
-0.344222
-0.118511
-0.359351
-0.101108
-0.365715
-0.0828149
-0.362888
-0.0633772
-0.349066
-0.0438107
-0.319259
-0.0231822
-0.283351
-0.00277524
-0.236108
0.0184901
-0.188775
0.0410925
-0.138951
0.0617645
-0.0877408
0.077757
-0.0425409
0.0883223
-0.00970387
0.0956145
0.00884074
0.102194
0.0153545
0.109226
0.0139676
0.116928
0.0120933
0.123548
0.00889633
0.126988
-0.000503803
0.126237
-0.0198711
0.121854
-0.0488188
0.115422
-0.0821446
0.108571
-0.112049
0.102373
-0.132979
0.097012
-0.145363
0.091952
-0.153611
0.0865666
-0.161167
0.0804552
-0.168815
0.0733864
-0.175876
0.0652
-0.181553
0.0558142
-0.185237
-0.186573
0.0451518
-0.178146
-0.172761
0.169858
-0.183343
-0.192191
-0.185684
-0.212651
-0.185434
-0.233572
-0.18282
-0.254496
-0.178074
-0.275033
-0.171269
-0.29527
-0.162562
-0.315287
-0.152003
-0.335184
-0.140377
-0.352564
-0.127676
-0.367058
-0.114302
-0.37253
-0.100715
-0.368492
-0.0857253
-0.354788
-0.069473
-0.325095
-0.0511635
-0.290227
-0.0309766
-0.243973
-0.00926606
-0.1974
0.0150401
-0.149533
0.0396662
-0.0981269
0.061402
-0.0496449
0.0778323
-0.0112376
0.0901597
0.0115425
0.100399
0.0201378
0.10964
0.0195966
0.118901
0.017391
0.127292
0.0145854
0.133267
0.00694232
0.135575
-0.0096082
0.134145
-0.0358711
0.130042
-0.0677894
0.12472
-0.0979576
0.119407
-0.120603
0.114576
-0.135399
0.109939
-0.145989
0.104932
-0.155532
0.0991364
-0.164941
0.0922865
-0.173669
0.0842094
-0.180985
0.0748289
-0.186344
-0.189383
0.0640999
-0.179349
-0.182495
0.173845
-0.182308
-0.201965
-0.182944
-0.222271
-0.181555
-0.242792
-0.178318
-0.263215
-0.173551
-0.283029
-0.167348
-0.302558
-0.160055
-0.321644
-0.151598
-0.340815
-0.142945
-0.356638
-0.13377
-0.370042
-0.124889
-0.373748
-0.116068
-0.368316
-0.106044
-0.354618
-0.0938721
-0.326005
-0.078984
-0.292916
-0.0605503
-0.249393
-0.0387031
-0.205539
-0.0138256
-0.160125
0.0130961
-0.110303
0.0394116
-0.0608723
0.0618644
-0.0183798
0.0798615
0.00895357
0.0948293
0.0205446
0.107258
0.0223698
0.118663
0.0208649
0.129018
0.0186277
0.137448
0.0122556
0.142949
-0.00220242
0.144888
-0.025935
0.143711
-0.0559702
0.140535
-0.0855837
0.136617
-0.109146
0.132715
-0.12583
0.128815
-0.138504
0.124481
-0.149896
0.119299
-0.160927
0.112963
-0.171134
0.105293
-0.179889
0.0961822
-0.186686
-0.191199
0.0855971
-0.170565
-0.191523
0.166823
-0.172292
-0.210653
-0.172143
-0.230507
-0.17046
-0.250281
-0.167325
-0.269949
-0.163178
-0.288658
-0.15809
-0.307118
-0.152685
-0.324629
-0.146694
-0.342621
-0.141223
-0.356292
-0.135758
-0.368192
-0.131043
-0.369785
-0.127284
-0.362166
-0.122459
-0.348435
-0.115151
-0.32133
-0.103975
-0.291256
-0.087936
-0.251858
-0.0671051
-0.212172
-0.0429663
-0.169553
-0.0148999
-0.123253
0.0142853
-0.0746461
0.0415889
-0.0300891
0.0651381
0.00106539
0.0851466
0.0161412
0.101461
0.021474
0.115493
0.0219252
0.128132
0.0206042
0.139159
0.0152044
0.147927
0.0021937
0.153536
-0.0193765
0.15574
-0.0471946
0.155207
-0.0754598
0.153149
-0.0990888
0.150571
-0.117049
0.147766
-0.13149
0.144433
-0.14454
0.140191
-0.157021
0.134684
-0.168479
0.127764
-0.178466
0.119264
-0.186424
-0.192151
0.109172
-0.152451
-0.19845
0.149291
-0.15403
-0.217008
-0.15405
-0.236283
-0.152914
-0.255121
-0.150624
-0.273912
-0.147714
-0.291294
-0.144162
-0.308546
-0.140911
-0.324019
-0.137423
-0.340627
-0.135064
-0.351674
-0.133392
-0.361518
-0.132428
-0.361161
-0.133593
-0.350296
-0.133797
-0.33653
-0.131291
-0.311257
-0.124218
-0.284985
-0.111147
-0.250926
-0.0920935
-0.216672
-0.0694542
-0.177187
-0.0415906
-0.135761
-0.0116841
-0.0889478
0.0189102
-0.044932
0.0469024
-0.011136
0.0710508
0.00770997
0.0915578
0.0164896
0.108701
0.0199797
0.124032
0.0200067
0.137998
0.0153551
0.150185
0.00334539
0.159648
-0.0164523
0.165443
-0.0417353
0.167873
-0.0679547
0.168001
-0.090793
0.167128
-0.109456
0.165752
-0.125282
0.163746
-0.139771
0.160728
-0.153469
0.156317
-0.165907
0.150421
-0.176898
0.142815
-0.185722
-0.192415
0.133547
-0.126424
-0.202018
0.122696
-0.128846
-0.219967
-0.129931
-0.238669
-0.130069
-0.256575
-0.129299
-0.274448
-0.1281
-0.290502
-0.12654
-0.306448
-0.125609
-0.319721
-0.124676
-0.334871
-0.12498
-0.343334
-0.12681
-0.350421
-0.12895
-0.348641
-0.134428
-0.333439
-0.139306
-0.319386
-0.141129
-0.296388
-0.138611
-0.273782
-0.129046
-0.246194
-0.112942
-0.217997
-0.0919773
-0.182983
-0.0650508
-0.147222
-0.0359137
-0.102412
-0.00371789
-0.061342
0.0276453
-0.0266976
0.0544918
-0.00342234
0.0775557
0.00894186
0.0974333
0.0153006
0.115916
0.0162748
0.13325
0.0121848
0.149272
0.000749381
0.16277
-0.0174235
0.172007
-0.0395132
0.177681
-0.0634111
0.179955
-0.0842717
0.181304
-0.103607
0.18155
-0.120102
0.181222
-0.135952
0.17956
-0.1504
0.176437
-0.163588
0.171689
-0.175271
0.165053
-0.184595
-0.191985
0.156687
-0.0944751
0.0892215
-0.098534
-0.101389
-0.103392
-0.104626
-0.105558
-0.106231
-0.107745
-0.109326
-0.111716
-0.116447
-0.121076
-0.129903
-0.138657
-0.145206
-0.146168
-0.140386
-0.127315
-0.108919
-0.0843632
-0.055917
-0.0237968
0.00904507
0.0384741
0.0637153
0.0858553
0.107008
0.127424
0.145963
0.162595
0.174136
0.183089
0.18763
0.191946
0.193966
0.195528
0.195238
0.193321
0.189739
0.183844
0.176412
0.212727
0.155432
0.220377
0.139432
0.222683
0.120198
0.219851
0.0996488
0.212621
0.0793446
0.201835
0.060508
0.188404
0.0435879
0.173123
0.028614
0.15657
0.0152301
0.139061
0.00279585
0.12065
-0.00944513
0.101286
-0.0222269
0.0809313
-0.0361289
0.0598277
-0.0512853
0.0383427
-0.0677523
0.018884
-0.0825506
-0.089068
0.213945
0.134984
0.220735
0.122084
0.222754
0.106291
0.220163
0.0891197
0.213398
0.0719052
0.203225
0.0555787
0.190377
0.0406597
0.175559
0.0272382
0.159309
0.0151462
0.141973
0.00395506
0.123709
-0.0068982
0.104522
-0.0179961
0.0843455
-0.0298556
0.0632033
-0.0427206
0.0411852
-0.056741
0.0198305
-0.0704221
-0.0765146
0.211629
0.114544
0.218006
0.104559
0.220067
0.0918464
0.217876
0.077767
0.211746
0.063445
0.202297
0.0495363
0.190222
0.0365204
0.176093
0.024635
0.160404
0.0138111
0.143491
0.00379736
0.125536
-0.00581006
0.106611
-0.0154741
0.0866938
-0.0256241
0.0657957
-0.0365468
0.0438963
-0.0483763
0.0216402
-0.0603058
-0.0654427
0.207236
0.0950663
0.21301
0.0873815
0.214959
0.0773436
0.213127
0.065949
0.207739
0.0541715
0.199174
0.0425398
0.187951
0.0314188
0.174643
0.0210174
0.159662
0.0114464
0.143338
0.00255144
0.125865
-0.00592241
0.107322
-0.0143157
0.0877065
-0.022975
0.0669916
-0.0321667
0.0451842
-0.0420658
0.0225138
-0.0521018
-0.0561903
0.199669
0.0762175
0.20512
0.0705701
0.207166
0.0628633
0.205795
0.0538505
0.201156
0.0443641
0.193585
0.0347693
0.183452
0.0254201
0.171101
0.0165699
0.156966
0.00825644
0.141383
0.000440093
0.124553
-0.00698999
0.106575
-0.0142594
0.0874515
-0.0216172
0.0671608
-0.0293013
0.0456722
-0.0374815
0.0230368
-0.0456753
-0.0485025
0.190424
0.0586297
0.195393
0.054537
0.197388
0.0488042
0.196382
0.041815
0.192457
0.0343071
0.185802
0.0265617
0.176699
0.018853
0.16548
0.011404
0.152415
0.00432855
0.137745
-0.0023702
0.121689
-0.00876968
0.104405
-0.0150241
0.0859191
-0.0212452
0.0662225
-0.0276303
0.0452795
-0.0343215
0.0230263
-0.0408092
-0.0423186
0.178805
0.0421828
0.183353
0.0394305
0.18542
0.0352497
0.184841
0.0299854
0.181636
0.0242044
0.175919
0.0181111
0.16789
0.0119042
0.157778
0.00579296
0.145828
-0.000111323
0.132266
-0.00577492
0.11726
-0.011205
0.100893
-0.0164641
0.0832479
-0.0216544
0.0643513
-0.02691
0.0441729
-0.0323138
0.0226145
-0.0372857
-0.0374732
0.166052
0.0271254
0.170194
0.0253967
0.172154
0.0225385
0.171829
0.018697
0.169215
0.0143516
0.164358
0.00966953
0.157369
0.00479354
0.148406
-0.000100335
0.137638
-0.00490399
0.12523
-0.00956512
0.111327
-0.0140648
0.0960409
-0.0184216
0.0794401
-0.0226873
0.0615584
-0.0269543
0.0423485
-0.0312189
0.021681
-0.0348152
-0.0339618
0.151843
0.0135729
0.155476
0.0126547
0.157414
0.0107009
0.157394
0.00801601
0.155342
0.00489974
0.151293
0.00141904
0.145307
-0.00229795
0.137475
-0.00609962
0.127916
-0.00989444
0.11675
-0.0136236
0.104089
-0.017251
0.0900254
-0.0207685
0.0746304
-0.0241986
0.0579384
-0.0275901
0.0399049
-0.0308549
0.020437
-0.0332734
-0.0316188
0.13705
0.00143778
0.140354
0.00109871
0.142106
-2.6151e-05
0.142202
-0.00179361
0.140599
-0.00395865
0.137256
-0.0064495
0.132175
-0.00917368
0.125409
-0.012023
0.11703
-0.0149198
0.10712
-0.017805
0.0957583
-0.0206357
0.0830216
-0.0233912
0.0689709
-0.0260735
0.053635
-0.0286922
0.0369799
-0.0310908
0.0189311
-0.0325039
-0.0302859
0.121775
-0.00909779
0.124553
-0.00904062
0.126189
-0.00967799
0.126444
-0.0107377
0.125223
-0.0121147
0.122496
-0.0137969
0.118245
-0.0156987
0.112483
-0.0177364
0.105248
-0.0198514
0.0965881
-0.0219915
0.0865604
-0.024114
0.0752205
-0.0261921
0.0626143
-0.0282117
0.0487656
-0.0301553
0.0336533
-0.0318156
0.0172611
-0.0324272
-0.0297667
0.10623
-0.0182965
0.108708
-0.0179876
0.110129
-0.0181535
0.110414
-0.0186831
0.109504
-0.0194901
0.107318
-0.020533
0.103812
-0.0217635
0.0989826
-0.0231307
0.0928395
-0.0245864
0.0854067
-0.0260877
0.076718
-0.027597
0.0668094
-0.0290846
0.0557116
-0.0305268
0.0434463
-0.0318917
0.0300192
-0.0329515
0.0154462
-0.0329462
-0.0299049
0.0909997
-0.0260255
0.0929937
-0.0255834
0.0942057
-0.0254837
0.0944948
-0.0256281
0.0937904
-0.025998
0.092033
-0.0265606
0.0891742
-0.0272756
0.0851861
-0.0281097
0.0800591
-0.0290293
0.0737985
-0.0300029
0.0664201
-0.031
0.0579441
-0.031991
0.0483881
-0.0329459
0.0377748
-0.0338338
0.0261268
-0.0344229
0.01347
-0.0339524
-0.0306171
0.0755139
-0.0326413
0.0772318
-0.0320808
0.0782764
-0.0317551
0.0785943
-0.0316403
0.0781091
-0.031693
0.0767551
-0.0318894
0.0744895
-0.0322103
0.0712816
-0.0326316
0.0671107
-0.0331277
0.0619705
-0.0336786
0.0558662
-0.0342624
0.0488081
-0.0348518
0.0408082
-0.0354152
0.031886
-0.0359262
0.0220733
-0.0361618
0.0114038
-0.03536
-0.0318007
0.0606763
-0.037841
0.0619159
-0.037335
0.0627218
-0.036954
0.0629848
-0.0366926
0.0626339
-0.0365445
0.0616125
-0.0364992
0.0598739
-0.0365458
0.0573823
-0.0366695
0.0541115
-0.0368525
0.0500472
-0.0370848
0.045186
-0.0373532
0.0395322
-0.0376359
0.0330929
-0.0379017
0.025876
-0.0381225
0.0179206
-0.038104
0.00927463
-0.0370902
-0.0333724
0.0455577
-0.0422342
0.0466032
-0.0416942
0.0472723
-0.0412463
0.0475269
-0.0408948
0.0473224
-0.040626
0.0466159
-0.0404303
0.0453692
-0.0403005
0.0435511
-0.0402276
0.041138
-0.0402004
0.0381117
-0.0402125
0.0344615
-0.0402567
0.0301899
-0.0403233
0.0253019
-0.0403812
0.019798
-0.0403963
0.0137168
-0.0402104
0.00710768
-0.039076
-0.0352625
0.0310853
-0.0454093
0.0317153
-0.0450006
0.0321632
-0.0446118
0.0323664
-0.0442675
0.0322747
-0.0439658
0.0318482
-0.0437071
0.0310523
-0.0434887
0.0298614
-0.0433101
0.028259
-0.0431679
0.026222
-0.0430483
0.0237384
-0.0429545
0.0208064
-0.0428852
0.0174501
-0.0428344
0.0136605
-0.0427334
0.00946528
-0.0424592
0.00490765
-0.0412786
-0.0374284
0.0162297
-0.0479611
0.0167124
-0.0475811
0.0170646
-0.0472343
0.0172721
-0.046924
0.0173133
-0.0466405
0.0171668
-0.0463839
0.0168116
-0.0461518
0.01623
-0.0459461
0.0154078
-0.0457668
0.0143352
-0.0456033
0.0130047
-0.0454609
0.0114117
-0.04534
0.0095677
-0.0452501
0.00748479
-0.0451223
0.00518468
-0.0448421
0.00268839
-0.0436745
-0.0398385
0.00175963
-0.0494655
0.00188199
-0.0492713
0.00204457
-0.0490684
0.00221608
-0.0488718
0.00237509
-0.0486814
0.00250468
-0.0485016
0.00259125
-0.0483329
0.0026203
-0.0481761
0.00257835
-0.0480319
0.00246579
-0.0479033
0.00227966
-0.0477915
0.00202146
-0.0477013
0.00168407
-0.0476329
0.00129473
-0.0475512
0.000870103
-0.0473308
0.000447673
-0.0462568
-0.0424828
-0.0132863
-0.0504418
-0.0132807
-0.0503506
-0.0131781
-0.0502789
-0.0129697
-0.0502178
-0.0126509
-0.0501631
-0.0122213
-0.0501148
-0.0116815
-0.0500723
-0.011032
-0.0500362
-0.0102737
-0.0500069
-0.0094093
-0.0499854
-0.00843942
-0.0499747
-0.00736208
-0.0499821
-0.0061697
-0.0500133
-0.00485653
-0.0500314
-0.00344281
-0.0498845
-0.00179119
-0.0490155
-0.0453421
-0.0281568
-0.0504981
-0.0284594
-0.0506483
-0.0285013
-0.0508004
-0.0282856
-0.0509502
-0.0278079
-0.0511011
-0.0270631
-0.0512535
-0.026046
-0.0514072
-0.0247518
-0.0515621
-0.0231768
-0.0517179
-0.0213178
-0.0518748
-0.0191732
-0.0520347
-0.016743
-0.0522034
-0.0140256
-0.0523883
-0.0110128
-0.0525595
-0.00771537
-0.0525464
-0.00401058
-0.0519257
-0.048391
-0.043883
-0.0500838
-0.0442606
-0.0504021
-0.0443114
-0.0507712
-0.0439998
-0.0511585
-0.043297
-0.0515605
-0.0421816
-0.0519706
-0.0406368
-0.052384
-0.0386498
-0.0527966
-0.0362118
-0.0532049
-0.0333171
-0.0536062
-0.0299632
-0.0539995
-0.0261518
-0.0543873
-0.0218872
-0.0547748
-0.0171649
-0.0551416
-0.011956
-0.0553424
-0.006202
-0.0549843
-0.0516063
-0.0595968
-0.0487424
-0.0602612
-0.049389
-0.0604152
-0.0500832
-0.0600382
-0.050796
-0.0591042
-0.0515295
-0.0575894
-0.0522751
-0.0554739
-0.0530246
-0.0527428
-0.0537697
-0.0493863
-0.0545022
-0.0454
-0.0552149
-0.0407844
-0.055903
-0.0355453
-0.0565644
-0.0296923
-0.0572018
-0.023225
-0.0578063
-0.0161311
-0.0582454
-0.00835729
-0.058169
-0.0549679
-0.0763867
-0.0469394
-0.0770883
-0.0478332
-0.0771986
-0.0488547
-0.0766518
-0.0499354
-0.0753978
-0.0510629
-0.0733996
-0.0522155
-0.0706303
-0.0533762
-0.0670721
-0.0545285
-0.0627159
-0.0556563
-0.0575616
-0.0567453
-0.051616
-0.0577849
-0.0448929
-0.0587677
-0.0374076
-0.0596971
-0.0291641
-0.060577
-0.0201669
-0.0612765
-0.0104699
-0.0613986
-0.0584631
-0.0932861
-0.0440713
-0.0942731
-0.0454493
-0.0944297
-0.0469543
-0.0937239
-0.0485218
-0.092118
-0.0501456
-0.0895793
-0.0518006
-0.0860839
-0.0534624
-0.0816182
-0.0551053
-0.0761801
-0.0567042
-0.069778
-0.058236
-0.0624305
-0.0596822
-0.0541646
-0.0610295
-0.0450084
-0.0622825
-0.0349844
-0.0634539
-0.0241195
-0.0644111
-0.0125179
-0.064683
-0.0620764
-0.11135
-0.0407316
-0.112326
-0.0424886
-0.112374
-0.0444867
-0.1114
-0.0466107
-0.109339
-0.048824
-0.106154
-0.0510791
-0.101822
-0.0533361
-0.0963389
-0.0555557
-0.0897131
-0.0577006
-0.0819683
-0.059737
-0.0731401
-0.0616371
-0.0632737
-0.0633815
-0.052419
-0.0649737
-0.0406245
-0.0664318
-0.0279418
-0.0676238
-0.0144496
-0.0680555
-0.0657649
-0.129521
-0.0361355
-0.13077
-0.0386166
-0.130773
-0.0413348
-0.129496
-0.0441777
-0.126902
-0.0471159
-0.122968
-0.0500916
-0.117686
-0.0530503
-0.111068
-0.0559377
-0.103146
-0.0587025
-0.0939637
-0.0612991
-0.0835815
-0.0636903
-0.0720698
-0.0658504
-0.0595046
-0.0677823
-0.0459609
-0.0695096
-0.031512
-0.0709077
-0.0162442
-0.0714743
-0.0694962
-0.148664
-0.0310496
-0.149835
-0.0341365
-0.149623
-0.0376124
-0.147921
-0.0412872
-0.144671
-0.0450828
-0.139858
-0.0489067
-0.133492
-0.0526793
-0.125612
-0.0563258
-0.116276
-0.0597788
-0.105563
-0.0629801
-0.0935622
-0.065884
-0.0803769
-0.0684602
-0.0661138
-0.0707127
-0.0508789
-0.0726724
-0.0347659
-0.0742332
-0.0178493
-0.0749182
-0.0732243
-0.167654
-0.0245675
-0.169026
-0.0287262
-0.168623
-0.0332485
-0.166418
-0.0379639
-0.162393
-0.0427885
-0.156563
-0.0476068
-0.148972
-0.0523129
-0.139695
-0.0568088
-0.128831
-0.0610091
-0.116499
-0.0648438
-0.102833
-0.0682611
-0.0879708
-0.0712306
-0.0720561
-0.0737613
-0.055225
-0.0758978
-0.037588
-0.0775674
-0.0192077
-0.0783484
-0.076891
-0.187094
-0.0175925
-0.188314
-0.0227082
-0.18755
-0.0283749
-0.184703
-0.0343035
-0.179758
-0.0403352
-0.172757
-0.0463032
-0.163788
-0.0520643
-0.152976
-0.0574926
-0.140475
-0.0624838
-0.126455
-0.0669585
-0.111099
-0.0708639
-0.0945895
-0.0741765
-0.0771076
-0.0769184
-0.058819
-0.0791569
-0.0398499
-0.0808676
-0.0202653
-0.081698
-0.080436
-0.20587
-0.00920616
-0.207168
-0.0158387
-0.206004
-0.0230097
-0.202392
-0.0304048
-0.196372
-0.0378495
-0.188038
-0.0451314
-0.177539
-0.0520658
-0.165064
-0.0584959
-0.150832
-0.0642997
-0.13508
-0.0693928
-0.118045
-0.0737299
-0.099959
-0.0773055
-0.081041
-0.0801662
-0.0614846
-0.0824128
-0.0414343
-0.0840798
-0.0209624
-0.0848952
-0.0837952
-0.22426
-0.000380616
-0.225289
-0.00847342
-0.22357
-0.0173082
-0.219047
-0.0264087
-0.211793
-0.0354833
-0.201967
-0.044247
-0.189793
-0.052464
-0.175543
-0.0599452
-0.159516
-0.0665544
-0.142021
-0.0722109
-0.123361
-0.076889
-0.103818
-0.0806162
-0.0836462
-0.0834785
-0.0630658
-0.0856225
-0.0422383
-0.0871492
-0.0212396
-0.0878804
-0.086904
-0.241169
0.00972252
-0.242143
-0.000433038
-0.239782
-0.0113839
-0.234205
-0.0224794
-0.225559
-0.033414
-0.214089
-0.043823
-0.200115
-0.0534158
-0.184004
-0.0619703
-0.166151
-0.0693426
-0.146947
-0.075469
-0.126763
-0.0803621
-0.105931
-0.0841002
-0.0847393
-0.0868265
-0.0634272
-0.0887458
-0.0421706
-0.0900316
-0.0210419
-0.0906152
-0.0897017
-0.256718
0.0201705
-0.25726
0.00783922
-0.254138
-0.00541337
-0.247369
-0.0188031
-0.237187
-0.0318323
-0.223944
-0.0440403
-0.208074
-0.055075
-0.19006
-0.0646893
-0.170395
-0.072747
-0.149562
-0.0792158
-0.128004
-0.0841637
-0.106098
-0.0877478
-0.0841611
-0.090188
-0.0624456
-0.0917589
-0.0411378
-0.0927082
-0.0203197
-0.093074
-0.0921344
-0.269772
0.0315678
-0.270116
0.0164777
-0.266134
0.000417991
-0.258057
-0.015576
-0.246225
-0.0309293
-0.231115
-0.0450728
-0.213291
-0.057591
-0.193367
-0.0682169
-0.171956
-0.0768369
-0.149629
-0.0834826
-0.126888
-0.0883068
-0.104163
-0.0915569
-0.0817877
-0.0935573
-0.0600246
-0.0946619
-0.0390708
-0.0951854
-0.0190372
-0.0952502
-0.0941625
-0.28043
0.0431671
-0.280267
0.0250396
-0.275361
0.00592695
-0.265897
-0.0129895
-0.252335
-0.0308925
-0.235296
-0.0470926
-0.215499
-0.0611052
-0.193703
-0.0726567
-0.170643
-0.0816824
-0.146989
-0.0883051
-0.123304
-0.0927998
-0.100041
-0.0955404
-0.0775539
-0.0969563
-0.0561124
-0.0974895
-0.0359328
-0.0975029
-0.0171802
-0.0971607
-0.0957729
-0.28773
0.0552558
-0.28731
0.0336057
-0.28146
0.0109397
-0.27057
-0.0112228
-0.255236
-0.0319016
-0.236251
-0.0502564
-0.214509
-0.0657392
-0.19093
-0.0780903
-0.166377
-0.0873274
-0.141611
-0.0937063
-0.117249
-0.0976598
-0.0937589
-0.0997221
-0.0714951
-0.10044
-0.0507366
-0.100326
-0.0317363
-0.0997555
-0.0147492
-0.0988699
-0.0969816
-0.291807
0.0673683
-0.290967
0.0418103
-0.284188
0.0152868
-0.271863
-0.0104555
-0.254761
-0.0341149
-0.233865
-0.0546937
-0.210265
-0.0715822
-0.185051
-0.0845651
-0.159218
-0.0937889
-0.133604
-0.0996911
-0.108861
-0.102906
-0.085465
-0.10415
-0.0637552
-0.104103
-0.0440221
-0.103309
-0.0265681
-0.102106
-0.0117761
-0.10052
-0.0978488
-0.292084
0.0795359
-0.291064
0.0496602
-0.283405
0.0188053
-0.269702
-0.0108242
-0.250896
-0.0376545
-0.228185
-0.0604926
-0.202874
-0.0786835
-0.17623
-0.0920951
-0.149373
-0.101059
-0.123203
-0.106259
-0.0983853
-0.108573
-0.0753825
-0.10892
-0.0545247
-0.108096
-0.0361144
-0.106642
-0.0205422
-0.104766
-0.00831775
-0.10232
-0.0984862
-0.288731
0.0915009
-0.287543
0.0569077
-0.279144
0.0214006
-0.264173
-0.0124345
-0.243788
-0.0425962
-0.219424
-0.0676922
-0.192611
-0.0870418
-0.164794
-0.100654
-0.1372
-0.109115
-0.110773
-0.113418
-0.0861633
-0.114737
-0.0638014
-0.114198
-0.0440089
-0.112672
-0.0271306
-0.11063
-0.0136616
-0.108063
-0.00435367
-0.104489
-0.0989583
0.15835
-0.1303
-0.154459
0.159465
-0.134232
0.159648
-0.138701
0.157536
-0.143086
0.154455
-0.147362
0.149628
-0.151128
0.143729
-0.154296
0.136705
-0.156457
0.128515
-0.157481
0.119697
-0.156979
0.109803
-0.154953
0.099673
-0.151285
0.0886827
-0.146171
0.0776318
-0.139406
0.0659838
-0.131467
0.054404
-0.122358
0.0424814
-0.112617
0.0307102
-0.102452
0.0187369
-0.0923429
0.00696584
-0.0826581
-0.00490065
-0.0738077
-0.0165239
-0.0662115
-0.0281021
-0.0602085
-0.0393737
-0.056142
-0.0504226
-0.0542953
-0.0610434
-0.0549382
-0.0712332
-0.0582395
-0.0808109
-0.0643241
-0.0896993
-0.0732013
-0.0977387
-0.0848026
-0.104785
-0.0989451
-0.110696
-0.11533
-0.1153
-0.133552
-0.118471
-0.153102
-0.120044
-0.173391
-0.119913
-0.193754
-0.117981
-0.213502
-0.114169
-0.231931
-0.108483
-0.248392
-0.100895
-0.262279
-0.273138
0.174796
-0.125429
-0.171731
0.175894
-0.129821
0.174939
-0.134626
0.17217
-0.139511
0.16771
-0.14431
0.161785
-0.148694
0.154509
-0.152446
0.146085
-0.155231
0.136625
-0.156817
0.126354
-0.156925
0.115381
-0.15544
0.103893
-0.152323
0.0919443
-0.147649
0.0797938
-0.141419
0.0674373
-0.133861
0.0550892
-0.125208
0.0427538
-0.115797
0.0305612
-0.105974
0.0185234
-0.0961067
0.0067153
-0.0866358
-0.00483209
-0.077933
-0.0160615
-0.0704483
-0.0269347
-0.0645035
-0.0373882
-0.0604678
-0.0473567
-0.0586245
-0.0567642
-0.0592518
-0.0655252
-0.0625239
-0.0735479
-0.0685678
-0.0807193
-0.0774094
-0.0869184
-0.0889842
-0.0920163
-0.103114
-0.0958744
-0.119508
-0.0983517
-0.137763
-0.0993208
-0.157361
-0.0986627
-0.177708
-0.0962739
-0.198133
-0.0920792
-0.217931
-0.0860323
-0.236386
-0.0781283
-0.252825
-0.0683991
-0.266628
-0.277334
0.185411
-0.119685
-0.181623
0.186718
-0.124224
0.185698
-0.129278
0.182598
-0.134573
0.177586
-0.139831
0.170911
-0.144782
0.16275
-0.149116
0.153328
-0.15253