/*--------------------------------*- C++ -*----------------------------------*\
  =========                 |
  \\      /  F ield         | OpenFOAM: The Open Source CFD Toolbox
   \\    /   O peration     | Website:  https://openfoam.org
    \\  /    A nd           | Version:  6
     \\/     M anipulation  |
\*---------------------------------------------------------------------------*/
FoamFile
{
    version     2.0;
    format      ascii;
    class       surfaceScalarField;
    location    "3.08";
    object      meshPhi;
}
// * * * * * * * * * * * * * * * * * * * * * * * * * * * * * * * * * * * * * //

dimensions      [0 3 -1 0 0 0 0];

internalField   nonuniform List<scalar> 
19800
(
0.00180317
0.00326522
0.00360354
0.00978281
0.00539393
0.0162619
0.00716715
0.0226769
0.00891602
0.0290025
0.0106334
0.035214
0.0123123
0.0412867
0.0139458
0.0471968
0.0155271
0.052921
0.0170495
0.0584366
0.0185068
0.063722
0.0198927
0.0687563
0.0212014
0.0735197
0.0224273
0.0779934
0.0235652
0.0821596
0.0246102
0.086002
0.0255577
0.0895054
0.0264037
0.0926559
0.0271445
0.095441
0.0277769
0.0978498
0.0282982
0.0998727
0.028706
0.101502
0.0289985
0.10273
0.0291746
0.103553
0.0292334
0.103968
0.0291746
0.103972
0.0289985
0.103566
0.028706
0.102752
0.0282982
0.101531
0.0277769
0.0999097
0.0271445
0.0978939
0.0264037
0.0954914
0.0255577
0.0927118
0.0246102
0.089566
0.0235652
0.0860663
0.0224273
0.0822266
0.0212014
0.078062
0.0198927
0.0735889
0.0185068
0.068825
0.0170495
0.063789
0.0155271
0.0585009
0.0139458
0.0529816
0.0123123
0.0472527
0.0106334
0.0413371
0.00891602
0.0352581
0.00716715
0.0290396
0.00539393
0.0227063
0.00360354
0.0162832
0.00180317
0.00979577
-1.08845e-13
0.00326957
-0.00179883
-0.00326957
-0.00358624
-0.00979577
-0.00535526
-0.0162832
-0.00709903
-0.0227063
-0.00881084
-0.0290396
-0.0104842
-0.0352581
-0.0121126
-0.0413371
-0.0136902
-0.0472527
-0.0152108
-0.0529816
-0.016669
-0.0585009
-0.0180593
-0.063789
-0.0193766
-0.068825
-0.0206161
-0.0735889
-0.0217734
-0.078062
-0.0228443
-0.0822266
-0.023825
-0.0860663
-0.0247119
-0.089566
-0.025502
-0.0927118
-0.0261924
-0.0954914
-0.0267807
-0.0978939
-0.0272649
-0.0999097
-0.0276432
-0.101531
-0.0279144
-0.102752
-0.0280775
-0.103566
-0.028132
-0.103972
-0.0280775
-0.103968
-0.0279144
-0.103553
-0.0276432
-0.10273
-0.0272649
-0.101502
-0.0267807
-0.0998727
-0.0261924
-0.0978498
-0.025502
-0.095441
-0.0247119
-0.0926559
-0.023825
-0.0895054
-0.0228443
-0.086002
-0.0217734
-0.0821596
-0.0206161
-0.0779934
-0.0193766
-0.0735197
-0.0180593
-0.0687563
-0.016669
-0.063722
-0.0152108
-0.0584366
-0.0136902
-0.052921
-0.0121126
-0.0471968
-0.0104842
-0.0412867
-0.00881084
-0.035214
-0.00709903
-0.0290025
-0.00535526
-0.0226769
-0.00358624
-0.0162619
-0.00179883
-0.00978281
-0.00326522
0.00540237
0.00651324
0.0107963
0.0195141
0.0161603
0.0324383
0.0214728
0.045235
0.0267122
0.0578538
0.0318574
0.0702452
0.0368872
0.0823604
0.0417808
0.0941517
0.046518
0.105573
0.051079
0.116579
0.0554446
0.127126
0.0595965
0.137173
0.0635171
0.146681
0.0671896
0.155611
0.0705983
0.163928
0.0737287
0.171601
0.0765672
0.178597
0.0791016
0.18489
0.0813209
0.190455
0.0832153
0.19527
0.0847768
0.199314
0.0859984
0.202573
0.0868748
0.205034
0.0874021
0.206685
0.0875782
0.207521
0.0874021
0.207539
0.0868748
0.206737
0.0859984
0.205119
0.0847768
0.202691
0.0832153
0.199462
0.0813209
0.195445
0.0791016
0.190656
0.0765672
0.185113
0.0737287
0.178839
0.0705983
0.171857
0.0671896
0.164195
0.0635171
0.155884
0.0595965
0.146956
0.0554446
0.137447
0.051079
0.127393
0.046518
0.116835
0.0417808
0.105814
0.0368872
0.0943746
0.0318574
0.0825612
0.0267122
0.0704208
0.0214728
0.0580014
0.0161603
0.0453523
0.0107963
0.0325234
0.00540237
0.0195658
-3.2168e-13
0.00653054
-0.00538941
-0.00653054
-0.0107447
-0.0195658
-0.0160449
-0.0325234
-0.0212695
-0.0453523
-0.0263984
-0.0580014
-0.031412
-0.0704208
-0.0362913
-0.0825612
-0.041018
-0.0943746
-0.0455743
-0.105814
-0.0499434
-0.116835
-0.0541092
-0.127393
-0.0580563
-0.137447
-0.0617705
-0.146956
-0.0652382
-0.155884
-0.0684471
-0.164195
-0.0713856
-0.171857
-0.0740432
-0.178839
-0.0764106
-0.185113
-0.0784794
-0.190656
-0.0802424
-0.195445
-0.0816932
-0.199462
-0.0828269
-0.202691
-0.0836396
-0.205119
-0.0841283
-0.206737
-0.0842914
-0.207539
-0.0841283
-0.207521
-0.0836396
-0.206685
-0.0828269
-0.205034
-0.0816932
-0.202573
-0.0802424
-0.199314
-0.0784794
-0.19527
-0.0764106
-0.190455
-0.0740432
-0.18489
-0.0713856
-0.178597
-0.0684471
-0.171601
-0.0652382
-0.163928
-0.0617705
-0.155611
-0.0580563
-0.146681
-0.0541092
-0.137173
-0.0499434
-0.127126
-0.0455743
-0.116579
-0.041018
-0.105573
-0.0362913
-0.0941517
-0.031412
-0.0823604
-0.0263984
-0.0702452
-0.0212695
-0.0578538
-0.0160449
-0.045235
-0.0107447
-0.0324383
-0.00538941
-0.0195141
-0.00651324
0.00898017
0.00973132
0.0179461
0.0291558
0.0268622
0.0484659
0.0356924
0.0675858
0.0444012
0.0864405
0.052953
0.104956
0.0613129
0.12306
0.0694464
0.14068
0.0773198
0.157749
0.0849002
0.174198
0.0921558
0.189963
0.099056
0.204982
0.105572
0.219195
0.111675
0.232547
0.11734
0.244985
0.122542
0.256459
0.12726
0.266925
0.131471
0.276341
0.135159
0.284669
0.138308
0.291876
0.140903
0.297933
0.142933
0.302817
0.144389
0.306507
0.145265
0.308989
0.145558
0.310252
0.145265
0.31029
0.144389
0.309104
0.142933
0.306697
0.140903
0.303079
0.138308
0.298263
0.135159
0.292268
0.131471
0.285118
0.12726
0.276839
0.122542
0.267465
0.11734
0.257032
0.111675
0.245581
0.105572
0.233158
0.099056
0.219811
0.0921558
0.205593
0.0849002
0.190559
0.0773198
0.174771
0.0694464
0.158289
0.0613129
0.141179
0.052953
0.123509
0.0444012
0.105349
0.0356924
0.0867705
0.0268622
0.067848
0.0179461
0.0486562
0.00898017
0.0292712
-5.24399e-13
0.00976999
-0.0089588
-0.00976999
-0.017861
-0.0292712
-0.0266718
-0.0486562
-0.0353572
-0.067848
-0.0438836
-0.0867705
-0.0522185
-0.105349
-0.0603303
-0.123509
-0.0681884
-0.141179
-0.0757635
-0.158289
-0.0830275
-0.174771
-0.0899534
-0.190559
-0.096516
-0.205593
-0.102691
-0.219811
-0.108457
-0.233158
-0.113792
-0.245581
-0.118678
-0.257032
-0.123097
-0.267465
-0.127034
-0.276839
-0.130474
-0.285118
-0.133405
-0.292268
-0.135817
-0.298263
-0.137702
-0.303079
-0.139054
-0.306697
-0.139866
-0.309104
-0.140138
-0.31029
-0.139866
-0.310252
-0.139054
-0.308989
-0.137702
-0.306507
-0.135817
-0.302817
-0.133405
-0.297933
-0.130474
-0.291876
-0.127034
-0.284669
-0.123097
-0.276341
-0.118678
-0.266925
-0.113792
-0.256459
-0.108457
-0.244985
-0.102691
-0.232547
-0.096516
-0.219195
-0.0899534
-0.204982
-0.0830275
-0.189963
-0.0757635
-0.174198
-0.0681884
-0.157749
-0.0603303
-0.14068
-0.0522185
-0.12306
-0.0438836
-0.104956
-0.0353572
-0.0864405
-0.0266718
-0.0675858
-0.017861
-0.0484659
-0.0089588
-0.0291558
-0.00973132
0.0125224
0.0129069
0.0250247
0.0386701
0.0374569
0.0642819
0.0497692
0.089642
0.0619118
0.114651
0.0738354
0.139211
0.0854909
0.163226
0.0968306
0.186601
0.107807
0.209245
0.118375
0.231069
0.12849
0.251986
0.13811
0.271916
0.147193
0.290779
0.155701
0.3085
0.163598
0.325011
0.17085
0.340245
0.177425
0.354142
0.183296
0.366647
0.188437
0.377711
0.192825
0.387288
0.196442
0.395341
0.199272
0.401837
0.201302
0.406751
0.202523
0.41006
0.202931
0.411753
0.202523
0.411821
0.201302
0.410264
0.199272
0.407086
0.196442
0.402299
0.192825
0.395922
0.188437
0.38798
0.183296
0.378502
0.177425
0.367525
0.17085
0.355093
0.163598
0.341254
0.155701
0.326062
0.147193
0.309577
0.13811
0.291864
0.12849
0.272992
0.118375
0.253037
0.107807
0.232077
0.0968306
0.210196
0.0854909
0.187479
0.0738354
0.164017
0.0619118
0.139903
0.0497692
0.115232
0.0374569
0.0901039
0.0250247
0.0646171
0.0125224
0.0388734
-7.16254e-13
0.012975
-0.012493
-0.012975
-0.0249073
-0.0388734
-0.0371947
-0.0646171
-0.0493073
-0.0901039
-0.0611987
-0.115232
-0.0728232
-0.139903
-0.084137
-0.164017
-0.0950972
-0.187479
-0.105663
-0.210196
-0.115795
-0.232077
-0.125456
-0.253037
-0.13461
-0.272992
-0.143224
-0.291864
-0.151267
-0.309577
-0.15871
-0.326062
-0.165525
-0.341254
-0.17169
-0.355093
-0.177182
-0.367525
-0.18198
-0.378502
-0.18607
-0.38798
-0.189436
-0.395922
-0.192066
-0.402299
-0.193951
-0.407086
-0.195084
-0.410264
-0.195463
-0.411821
-0.195084
-0.411753
-0.193951
-0.41006
-0.192066
-0.406751
-0.189436
-0.401837
-0.18607
-0.395341
-0.18198
-0.387288
-0.177182
-0.377711
-0.17169
-0.366647
-0.165525
-0.354142
-0.15871
-0.340245
-0.151267
-0.325011
-0.143224
-0.3085
-0.13461
-0.290779
-0.125456
-0.271916
-0.115795
-0.251986
-0.105663
-0.231069
-0.0950972
-0.209245
-0.084137
-0.186601
-0.0728232
-0.163226
-0.0611987
-0.139211
-0.0493073
-0.114651
-0.0371947
-0.089642
-0.0249073
-0.0642819
-0.012493
-0.0386701
-0.0129069
0.016015
0.0160276
0.0320037
0.04802
0.0479023
0.0798248
0.0636469
0.111318
0.0791739
0.142375
0.0944203
0.172877
0.109324
0.202702
0.123822
0.231734
0.137857
0.25986
0.151368
0.286969
0.1643
0.312955
0.176597
0.337715
0.188209
0.361152
0.199086
0.383174
0.209181
0.403694
0.218451
0.422629
0.226857
0.439907
0.234361
0.455456
0.240933
0.469217
0.246542
0.481132
0.251165
0.491155
0.254782
0.499245
0.257377
0.505369
0.258938
0.509502
0.25946
0.511626
0.258938
0.511731
0.257377
0.509816
0.254782
0.505887
0.251165
0.499959
0.246542
0.492053
0.240933
0.4822
0.234361
0.470438
0.226857
0.456811
0.218451
0.441374
0.209181
0.424187
0.199086
0.405316
0.188209
0.384836
0.176597
0.362827
0.1643
0.339377
0.151368
0.314577
0.137857
0.288527
0.123822
0.261328
0.109324
0.233089
0.0944203
0.203923
0.0791739
0.173944
0.0636469
0.143273
0.0479023
0.112031
0.0320037
0.0803425
0.016015
0.0483339
-8.96602e-13
0.0161327
-0.015978
-0.0161327
-0.0318561
-0.0483339
-0.0475723
-0.0803425
-0.0630656
-0.112031
-0.0782764
-0.143273
-0.0931466
-0.173944
-0.10762
-0.203923
-0.121641
-0.233089
-0.135158
-0.261328
-0.148121
-0.288527
-0.160481
-0.314577
-0.172193
-0.339377
-0.183215
-0.362827
-0.193506
-0.384836
-0.203029
-0.405316
-0.211751
-0.424187
-0.219639
-0.441374
-0.226666
-0.456811
-0.232807
-0.470438
-0.238041
-0.4822
-0.242348
-0.492053
-0.245713
-0.499959
-0.248126
-0.505887
-0.249576
-0.509816
-0.250061
-0.511731
-0.249576
-0.511626
-0.248126
-0.509502
-0.245713
-0.505369
-0.242348
-0.499245
-0.238041
-0.491155
-0.232807
-0.481132
-0.226666
-0.469217
-0.219639
-0.455456
-0.211751
-0.439907
-0.203029
-0.422629
-0.193506
-0.403694
-0.183215
-0.383174
-0.172193
-0.361152
-0.160481
-0.337715
-0.148121
-0.312955
-0.135158
-0.286969
-0.121641
-0.25986
-0.10762
-0.231734
-0.0931466
-0.202702
-0.0782764
-0.172877
-0.0630656
-0.142375
-0.0475723
-0.111318
-0.0318561
-0.0798248
-0.015978
-0.04802
-0.0160276
0.0194443
0.0190813
0.0388556
0.0571694
0.0581567
0.0950345
0.0772699
0.132529
0.0961183
0.169506
0.114625
0.205822
0.132715
0.241335
0.150312
0.275905
0.167346
0.309398
0.183744
0.341682
0.199438
0.372631
0.214362
0.402123
0.228454
0.430041
0.241652
0.456277
0.253902
0.480726
0.265151
0.503291
0.27535
0.523883
0.284456
0.54242
0.292429
0.558827
0.299235
0.57304
0.304845
0.584999
0.309233
0.594658
0.312381
0.601976
0.314276
0.606922
0.314908
0.609476
0.314276
0.609625
0.312381
0.607367
0.309233
0.60271
0.304845
0.59567
0.299235
0.586273
0.292429
0.574555
0.284456
0.56056
0.27535
0.544343
0.265151
0.525966
0.253902
0.505501
0.241652
0.483028
0.228454
0.458635
0.214362
0.432418
0.199438
0.404481
0.183744
0.374933
0.167346
0.343892
0.150312
0.311481
0.132715
0.277828
0.114625
0.243067
0.0961183
0.207337
0.0772699
0.17078
0.0581567
0.133541
0.0388556
0.095769
0.0194443
0.0576148
-1.06496e-12
0.0192305
-0.0194002
-0.0192305
-0.03868
-0.0576148
-0.0577641
-0.095769
-0.0765784
-0.133541
-0.0950506
-0.17078
-0.11311
-0.207337
-0.130688
-0.243067
-0.147717
-0.277828
-0.164136
-0.311481
-0.179881
-0.343892
-0.194895
-0.374933
-0.209123
-0.404481
-0.222512
-0.432418
-0.235014
-0.458635
-0.246584
-0.483028
-0.25718
-0.505501
-0.266764
-0.525966
-0.275302
-0.544343
-0.282763
-0.56056
-0.289122
-0.574555
-0.294355
-0.586273
-0.298445
-0.59567
-0.301376
-0.60271
-0.303139
-0.607367
-0.303727
-0.609625
-0.303139
-0.609476
-0.301376
-0.606922
-0.298445
-0.601976
-0.294355
-0.594658
-0.289122
-0.584999
-0.282763
-0.57304
-0.275302
-0.558827
-0.266764
-0.54242
-0.25718
-0.523883
-0.246584
-0.503291
-0.235014
-0.480726
-0.222512
-0.456277
-0.209123
-0.430041
-0.194895
-0.402123
-0.179881
-0.372631
-0.164136
-0.341682
-0.147717
-0.309398
-0.130688
-0.275905
-0.11311
-0.241335
-0.0950506
-0.205822
-0.0765784
-0.169506
-0.0577641
-0.132529
-0.03868
-0.0950345
-0.0194002
-0.0571694
-0.0190813
0.0227965
0.0220562
0.0455531
0.0660827
0.0681792
0.109852
0.090584
0.153194
0.112677
0.195938
0.134368
0.23792
0.15557
0.278975
0.176194
0.318942
0.196156
0.357666
0.215372
0.394995
0.233762
0.430783
0.25125
0.464888
0.267761
0.497178
0.283226
0.527524
0.297578
0.555807
0.310757
0.581915
0.322706
0.605744
0.333374
0.627198
0.342715
0.646192
0.350688
0.66265
0.357259
0.676505
0.3624
0.6877
0.366088
0.696189
0.368307
0.701936
0.369048
0.704917
0.368307
0.705116
0.366088
0.702532
0.3624
0.697172
0.357259
0.689054
0.350688
0.678209
0.342715
0.664677
0.333374
0.648511
0.322706
0.629771
0.310757
0.60853
0.297578
0.584872
0.283226
0.558887
0.267761
0.530679
0.25125
0.500358
0.233762
0.468043
0.215372
0.433863
0.196156
0.397952
0.176194
0.360453
0.15557
0.321515
0.134368
0.281293
0.112677
0.239947
0.090584
0.197642
0.0681792
0.154547
0.0455531
0.110835
0.0227965
0.0666786
-1.22076e-12
0.0222559
-0.0227461
-0.0222559
-0.0453523
-0.0666786
-0.0677302
-0.110835
-0.0897931
-0.154547
-0.111456
-0.197642
-0.132636
-0.239947
-0.153252
-0.281293
-0.173226
-0.321515
-0.192484
-0.360453
-0.210954
-0.397952
-0.228567
-0.433863
-0.245258
-0.468043
-0.260966
-0.500358
-0.275635
-0.530679
-0.289209
-0.558887
-0.301642
-0.584872
-0.312887
-0.60853
-0.322905
-0.629771
-0.331661
-0.648511
-0.339122
-0.664677
-0.345263
-0.678209
-0.350062
-0.689054
-0.353502
-0.697172
-0.355571
-0.702532
-0.356261
-0.705116
-0.355571
-0.704917
-0.353502
-0.701936
-0.350062
-0.696189
-0.345263
-0.6877
-0.339122
-0.676505
-0.331661
-0.66265
-0.322905
-0.646192
-0.312887
-0.627198
-0.301642
-0.605744
-0.289209
-0.581915
-0.275635
-0.555807
-0.260966
-0.527524
-0.245258
-0.497178
-0.228567
-0.464888
-0.210954
-0.430783
-0.192484
-0.394995
-0.173226
-0.357666
-0.153252
-0.318942
-0.132636
-0.278975
-0.111456
-0.23792
-0.0897931
-0.195938
-0.0677302
-0.153194
-0.0453523
-0.109852
-0.0227461
-0.0660827
-0.0220562
0.0260584
0.0249409
0.0520696
0.0747259
0.07793
0.12422
0.103536
0.173232
0.128784
0.22157
0.153571
0.269047
0.177798
0.315478
0.201363
0.36068
0.22417
0.404479
0.246124
0.446703
0.267134
0.487186
0.287111
0.52577
0.305972
0.562302
0.323637
0.59664
0.34003
0.628646
0.355083
0.658196
0.368731
0.685169
0.380915
0.70946
0.391582
0.730971
0.400688
0.749614
0.408193
0.765314
0.414064
0.778007
0.418275
0.787639
0.42081
0.794171
0.421656
0.797572
0.42081
0.797828
0.418275
0.794934
0.414064
0.788897
0.408193
0.77974
0.400688
0.767495
0.391582
0.752209
0.380915
0.733938
0.368731
0.712754
0.355083
0.688737
0.34003
0.661981
0.323637
0.63259
0.305972
0.600679
0.287111
0.566373
0.267134
0.529809
0.246124
0.491129
0.22417
0.450488
0.201363
0.408047
0.177798
0.363974
0.153571
0.318445
0.128784
0.271642
0.103536
0.223752
0.07793
0.174965
0.0520696
0.125478
0.0260584
0.0754887
-1.36357e-12
0.0251966
-0.0260025
-0.0251966
-0.0518467
-0.0754887
-0.0774317
-0.125478
-0.102658
-0.174965
-0.127429
-0.223752
-0.151648
-0.271642
-0.175225
-0.318445
-0.198069
-0.363974
-0.220095
-0.408047
-0.241221
-0.450488
-0.261368
-0.491129
-0.280461
-0.529809
-0.298431
-0.566373
-0.315212
-0.600679
-0.330742
-0.63259
-0.344967
-0.661981
-0.357833
-0.688737
-0.369296
-0.712754
-0.379315
-0.733938
-0.387852
-0.752209
-0.39488
-0.767495
-0.400371
-0.77974
-0.404307
-0.788897
-0.406675
-0.794934
-0.407465
-0.797828
-0.406675
-0.797572
-0.404307
-0.794171
-0.400371
-0.787639
-0.39488
-0.778007
-0.387852
-0.765314
-0.379315
-0.749614
-0.369296
-0.730971
-0.357833
-0.70946
-0.344967
-0.685169
-0.330742
-0.658196
-0.315212
-0.628646
-0.298431
-0.59664
-0.280461
-0.562302
-0.261368
-0.52577
-0.241221
-0.487186
-0.220095
-0.446703
-0.198069
-0.404479
-0.175225
-0.36068
-0.151648
-0.315478
-0.127429
-0.269047
-0.102658
-0.22157
-0.0774317
-0.173232
-0.0518467
-0.12422
-0.0260025
-0.0747259
-0.0249409
0.0292172
0.0277244
0.0583794
0.0830657
0.0873703
0.138085
0.116074
0.192568
0.144374
0.246304
0.172157
0.299084
0.199308
0.350702
0.225717
0.400958
0.251275
0.449656
0.275876
0.496606
0.299417
0.541623
0.3218
0.584531
0.342931
0.625162
0.362721
0.663356
0.381086
0.698961
0.397948
0.731837
0.413235
0.761852
0.426883
0.788886
0.438832
0.812831
0.449031
0.83359
0.457437
0.851078
0.464012
0.865224
0.46873
0.875967
0.471568
0.883263
0.472516
0.887078
0.471568
0.887394
0.46873
0.884206
0.464012
0.877523
0.457437
0.867368
0.449031
0.853777
0.438832
0.8368
0.426883
0.816502
0.413235
0.79296
0.397948
0.766265
0.381086
0.736519
0.362721
0.703839
0.342931
0.668352
0.3218
0.630198
0.299417
0.589528
0.275876
0.546501
0.251275
0.501288
0.225717
0.454069
0.199308
0.405033
0.172157
0.354373
0.144374
0.302294
0.116074
0.249002
0.0873703
0.194712
0.0583794
0.139641
0.0292172
0.0840093
-1.49301e-12
0.0280406
-0.0291566
-0.0280406
-0.0581379
-0.0840093
-0.0868306
-0.139641
-0.115123
-0.194712
-0.142906
-0.249002
-0.170074
-0.302294
-0.196522
-0.354373
-0.22215
-0.405033
-0.246862
-0.454069
-0.270565
-0.501288
-0.293171
-0.546501
-0.314597
-0.589528
-0.334762
-0.630198
-0.353595
-0.668352
-0.371025
-0.703839
-0.38699
-0.736519
-0.401432
-0.766265
-0.414298
-0.79296
-0.425544
-0.816502
-0.435128
-0.8368
-0.443016
-0.853777
-0.449181
-0.867368
-0.4536
-0.877523
-0.456257
-0.884206
-0.457144
-0.887394
-0.456257
-0.887078
-0.4536
-0.883263
-0.449181
-0.875967
-0.443016
-0.865224
-0.435128
-0.851078
-0.425544
-0.83359
-0.414298
-0.812831
-0.401432
-0.788886
-0.38699
-0.761852
-0.371025
-0.731837
-0.353595
-0.698961
-0.334762
-0.663356
-0.314597
-0.625162
-0.293171
-0.584531
-0.270565
-0.541623
-0.246862
-0.496606
-0.22215
-0.449656
-0.196522
-0.400958
-0.170074
-0.350702
-0.142906
-0.299084
-0.115123
-0.246304
-0.0868306
-0.192568
-0.0581379
-0.138085
-0.0291566
-0.0830657
-0.0277244
0.0322603
0.030396
0.0644573
0.0910702
0.0964626
0.151392
0.128148
0.211127
0.159386
0.270044
0.190051
0.327915
0.220016
0.384514
0.24916
0.439622
0.277362
0.493024
0.304507
0.544512
0.330481
0.593884
0.355175
0.640947
0.378487
0.685516
0.400319
0.727415
0.420577
0.766479
0.439177
0.802553
0.45604
0.835493
0.471092
0.865167
0.484271
0.891455
0.49552
0.914252
0.50479
0.933463
0.512042
0.949009
0.517244
0.960826
0.520375
0.968861
0.52142
0.97308
0.520375
0.97346
0.517244
0.969997
0.512042
0.962698
0.50479
0.95159
0.49552
0.93671
0.484271
0.918115
0.471092
0.895873
0.45604
0.87007
0.439177
0.840803
0.420577
0.808188
0.400319
0.772349
0.378487
0.733427
0.355175
0.691576
0.330481
0.646959
0.304507
0.599754
0.277362
0.550146
0.24916
0.498335
0.220016
0.444525
0.190051
0.388932
0.159386
0.331778
0.128148
0.273291
0.0964626
0.213707
0.0644573
0.153265
0.0322603
0.0922058
-1.6089e-12
0.0307765
-0.032196
-0.0307765
-0.0642011
-0.0922058
-0.09589
-0.153265
-0.12714
-0.213707
-0.157829
-0.273291
-0.18784
-0.331778
-0.217059
-0.388932
-0.245375
-0.444525
-0.27268
-0.498335
-0.298872
-0.550146
-0.323854
-0.599754
-0.347533
-0.646959
-0.369821
-0.691576
-0.390636
-0.733427
-0.409903
-0.772349
-0.427551
-0.808188
-0.443516
-0.840803
-0.45774
-0.87007
-0.470172
-0.895873
-0.480768
-0.918115
-0.48949
-0.93671
-0.496306
-0.95159
-0.501191
-0.962698
-0.50413
-0.969997
-0.505111
-0.97346
-0.50413
-0.97308
-0.501191
-0.968861
-0.496306
-0.960826
-0.48949
-0.949009
-0.480768
-0.933463
-0.470172
-0.914252
-0.45774
-0.891455
-0.443516
-0.865167
-0.427551
-0.835493
-0.409903
-0.802553
-0.390636
-0.766479
-0.369821
-0.727415
-0.347533
-0.685516
-0.323854
-0.640947
-0.298872
-0.593884
-0.27268
-0.544512
-0.245375
-0.493024
-0.217059
-0.439622
-0.18784
-0.384514
-0.157829
-0.327915
-0.12714
-0.270044
-0.09589
-0.211127
-0.0642011
-0.151392
-0.032196
-0.0910702
-0.030396
0.0351758
0.0329455
0.0702793
0.0987092
0.105171
0.164091
0.139711
0.228839
0.17376
0.292701
0.207181
0.35543
0.239838
0.416784
0.271597
0.476524
0.302328
0.534417
0.331903
0.590238
0.360202
0.643769
0.387104
0.6948
0.412499
0.74313
0.43628
0.78857
0.458346
0.83094
0.478605
0.870071
0.49697
0.905807
0.513364
0.938006
0.527716
0.966537
0.539966
0.991284
0.550061
1.01215
0.557958
1.02904
0.563623
1.04188
0.567032
1.05063
0.56817
1.05524
0.567032
1.05569
0.563623
1.05197
0.557958
1.04408
0.550061
1.03207
0.539966
1.01596
0.527716
0.995827
0.513364
0.971732
0.49697
0.943772
0.478605
0.912053
0.458346
0.876697
0.43628
0.837843
0.412499
0.795641
0.387104
0.750257
0.360202
0.70187
0.331903
0.650672
0.302328
0.596864
0.271597
0.540662
0.239838
0.48229
0.207181
0.42198
0.17376
0.359973
0.139711
0.29652
0.105171
0.231873
0.0702793
0.166294
0.0351758
0.100045
-1.71133e-12
0.033393
-0.0351088
-0.033393
-0.0700124
-0.100045
-0.104574
-0.166294
-0.13866
-0.231873
-0.172138
-0.29652
-0.204879
-0.359973
-0.236758
-0.42198
-0.267654
-0.48229
-0.29745
-0.540662
-0.326034
-0.596864
-0.353298
-0.650672
-0.379143
-0.70187
-0.403471
-0.750257
-0.426193
-0.795641
-0.447226
-0.837843
-0.466493
-0.876697
-0.483923
-0.912053
-0.499454
-0.943772
-0.513029
-0.971732
-0.524599
-0.995827
-0.534122
-1.01596
-0.541565
-1.03207
-0.5469
-1.04408
-0.550109
-1.05197
-0.55118
-1.05569
-0.550109
-1.05524
-0.5469
-1.05063
-0.541565
-1.04188
-0.534122
-1.02904
-0.524599
-1.01215
-0.513029
-0.991284
-0.499454
-0.966537
-0.483923
-0.938006
-0.466493
-0.905807
-0.447226
-0.870071
-0.426193
-0.83094
-0.403471
-0.78857
-0.379143
-0.74313
-0.353298
-0.6948
-0.326034
-0.643769
-0.29745
-0.590238
-0.267654
-0.534417
-0.236758
-0.476524
-0.204879
-0.416784
-0.172138
-0.35543
-0.13866
-0.292701
-0.104574
-0.228839
-0.0700124
-0.164091
-0.0351088
-0.0987092
-0.0329455
0.037952
0.0353633
0.0758223
0.105953
0.11346
0.176135
0.150716
0.245636
0.187439
0.314188
0.223481
0.381526
0.258695
0.44739
0.292939
0.511523
0.326071
0.573677
0.357955
0.63361
0.38846
0.691087
0.417459
0.745884
0.44483
0.797785
0.47046
0.846586
0.494241
0.892095
0.516072
0.93413
0.535862
0.972523
0.553527
1.00712
0.568991
1.03778
0.58219
1.06439
0.593067
1.08682
0.601575
1.10499
0.607678
1.11882
0.611351
1.12825
0.612577
1.13323
0.611351
1.13375
0.607678
1.12979
0.601575
1.12136
0.593067
1.10849
0.58219
1.09122
0.568991
1.06963
0.553527
1.04378
0.535862
1.01377
0.516072
0.979726
0.494241
0.941772
0.47046
0.900056
0.44483
0.854741
0.417459
0.806005
0.38846
0.754038
0.357955
0.699048
0.326071
0.641252
0.292939
0.58088
0.258695
0.518173
0.223481
0.453382
0.187439
0.386766
0.150716
0.318592
0.11346
0.249135
0.0758223
0.178675
0.037952
0.107494
-1.79974e-12
0.0358794
-0.0378833
-0.0358794
-0.075549
-0.107494
-0.112849
-0.178675
-0.14964
-0.249135
-0.185777
-0.318592
-0.221122
-0.386766
-0.25554
-0.453382
-0.2889
-0.518173
-0.321074
-0.58088
-0.351943
-0.641252
-0.381389
-0.699048
-0.409304
-0.754038
-0.435582
-0.806005
-0.460128
-0.854741
-0.48285
-0.900056
-0.503666
-0.941772
-0.522498
-0.979726
-0.539279
-1.01377
-0.553947
-1.04378
-0.566449
-1.06963
-0.57674
-1.09122
-0.584783
-1.10849
-0.590549
-1.12136
-0.594017
-1.12979
-0.595174
-1.13375
-0.594017
-1.13323
-0.590549
-1.12825
-0.584783
-1.11882
-0.57674
-1.10499
-0.566449
-1.08682
-0.553947
-1.06439
-0.539279
-1.03778
-0.522498
-1.00712
-0.503666
-0.972523
-0.48285
-0.93413
-0.460128
-0.892095
-0.435582
-0.846586
-0.409304
-0.797785
-0.381389
-0.745884
-0.351943
-0.691087
-0.321074
-0.63361
-0.2889
-0.573677
-0.25554
-0.511523
-0.221122
-0.44739
-0.185777
-0.381526
-0.14964
-0.314188
-0.112849
-0.245636
-0.075549
-0.176135
-0.0378833
-0.105953
-0.0353633
0.040578
0.0376403
0.0810645
0.112776
0.121299
0.187476
0.16112
0.261454
0.200368
0.334424
0.238884
0.406103
0.276513
0.476215
0.3131
0.544487
0.348498
0.610655
0.382559
0.674462
0.415144
0.735658
0.446117
0.794004
0.47535
0.849271
0.502722
0.901241
0.528117
0.94971
0.551429
0.994483
0.57256
1.03538
0.591421
1.07225
0.607932
1.10492
0.622023
1.13328
0.633635
1.15719
0.642718
1.17657
0.649234
1.19133
0.653155
1.20141
0.654463
1.20675
0.653155
1.20734
0.649234
1.20315
0.642718
1.19421
0.633635
1.18054
0.622023
1.16219
0.607932
1.13922
0.591421
1.11172
0.57256
1.07979
0.551429
1.04355
0.528117
1.00315
0.502722
0.958738
0.47535
0.910489
0.446117
0.858592
0.415144
0.803251
0.382559
0.744686
0.348498
0.683128
0.3131
0.618823
0.276513
0.552028
0.238884
0.48301
0.200368
0.412045
0.16112
0.339418
0.121299
0.265423
0.0810645
0.190357
0.040578
0.114522
-1.8744e-12
0.0382256
-0.0405088
-0.0382256
-0.080789
-0.114522
-0.120683
-0.190357
-0.160035
-0.265423
-0.198693
-0.339418
-0.236507
-0.412045
-0.273333
-0.48301
-0.309029
-0.552028
-0.343461
-0.618823
-0.376499
-0.683128
-0.408017
-0.744686
-0.437897
-0.803251
-0.466029
-0.858592
-0.492308
-0.910489
-0.516636
-0.958738
-0.538924
-1.00315
-0.55909
-1.04355
-0.57706
-1.07979
-0.592768
-1.11172
-0.606157
-1.13922
-0.617179
-1.16219
-0.625793
-1.18054
-0.631969
-1.19421
-0.635683
-1.20315
-0.636922
-1.20734
-0.635683
-1.20675
-0.631969
-1.20141
-0.625793
-1.19133
-0.617179
-1.17657
-0.606157
-1.15719
-0.592768
-1.13328
-0.57706
-1.10492
-0.55909
-1.07225
-0.538924
-1.03538
-0.516636
-0.994483
-0.492308
-0.94971
-0.466029
-0.901241
-0.437897
-0.849271
-0.408017
-0.794004
-0.376499
-0.735658
-0.343461
-0.674462
-0.309029
-0.610655
-0.273333
-0.544487
-0.236507
-0.476215
-0.198693
-0.406103
-0.160035
-0.334424
-0.120683
-0.261454
-0.080789
-0.187476
-0.0405088
-0.112776
-0.0376403
0.0430434
0.0397678
0.0859852
0.11915
0.128655
0.198074
0.170881
0.276235
0.212496
0.353333
0.253331
0.429068
0.29322
0.50315
0.332002
0.575291
0.369519
0.645211
0.405617
0.712639
0.440147
0.777311
0.472966
0.838976
0.50394
0.897391
0.532938
0.952325
0.559841
1.00356
0.584536
1.0509
0.606919
1.09414
0.626896
1.13313
0.644384
1.16769
0.659308
1.19768
0.671606
1.22299
0.681225
1.24351
0.688126
1.25914
0.692278
1.26983
0.693663
1.27551
0.692278
1.27616
0.688126
1.27178
0.681225
1.26236
0.671606
1.24794
0.659308
1.22857
0.644384
1.20432
0.626896
1.17528
0.606919
1.14155
0.584536
1.10327
0.559841
1.06058
0.532938
1.01365
0.50394
0.962657
0.472966
0.907804
0.440147
0.849308
0.405617
0.787398
0.369519
0.722321
0.332002
0.654337
0.29322
0.583716
0.253331
0.510741
0.212496
0.435706
0.170881
0.358913
0.128655
0.280669
0.0859852
0.201292
0.0430434
0.121102
-1.93555e-12
0.0404217
-0.0429748
-0.0404217
-0.0857118
-0.121102
-0.128044
-0.201292
-0.169805
-0.280669
-0.210834
-0.358913
-0.250972
-0.435706
-0.290065
-0.510741
-0.327964
-0.583716
-0.364523
-0.654337
-0.399604
-0.722321
-0.433076
-0.787398
-0.464811
-0.849308
-0.494692
-0.907804
-0.522607
-0.962657
-0.548451
-1.01365
-0.57213
-1.06058
-0.593555
-1.10327
-0.612648
-1.14155
-0.62934
-1.17528
-0.643567
-1.20432
-0.65528
-1.22857
-0.664434
-1.24794
-0.670996
-1.26236
-0.674944
-1.27178
-0.676261
-1.27616
-0.674944
-1.27551
-0.670996
-1.26983
-0.664434
-1.25914
-0.65528
-1.24351
-0.643567
-1.22299
-0.62934
-1.19768
-0.612648
-1.16769
-0.593555
-1.13313
-0.57213
-1.09414
-0.548451
-1.0509
-0.522607
-1.00356
-0.494692
-0.952325
-0.464811
-0.897391
-0.433076
-0.838976
-0.399604
-0.777311
-0.364523
-0.712639
-0.327964
-0.645211
-0.290065
-0.575291
-0.250972
-0.50315
-0.210834
-0.429068
-0.169805
-0.353333
-0.128044
-0.276235
-0.0857118
-0.198074
-0.0429748
-0.11915
-0.0397678
0.0453386
0.0417379
0.0905649
0.125053
0.135499
0.207888
0.179962
0.289923
0.223776
0.370843
0.266763
0.450335
0.308752
0.528094
0.34957
0.603818
0.389053
0.677214
0.427039
0.747997
0.463371
0.81589
0.497901
0.88063
0.530486
0.941961
0.56099
0.999643
0.589289
1.05345
0.615262
1.10316
0.638803
1.14858
0.659813
1.18953
0.678204
1.22584
0.693898
1.25736
0.70683
1.28396
0.716945
1.30553
0.7242
1.32198
0.728566
1.33323
0.730023
1.33923
0.728566
1.33995
0.7242
1.33538
0.716945
1.32553
0.70683
1.31042
0.693898
1.29011
0.678204
1.26468
0.659813
1.23421
0.638803
1.19882
0.615262
1.15864
0.589289
1.11383
0.56099
1.06457
0.530486
1.01103
0.497901
0.953442
0.463371
0.89202
0.427039
0.82701
0.389053
0.758671
0.34957
0.687274
0.308752
0.613106
0.266763
0.536463
0.223776
0.457653
0.179962
0.376994
0.135499
0.294811
0.0905649
0.211436
0.0453386
0.127205
-1.9831e-12
0.0424588
-0.0452716
-0.0424588
-0.090298
-0.127205
-0.134903
-0.211436
-0.178911
-0.294811
-0.222153
-0.376994
-0.264461
-0.457653
-0.305672
-0.536463
-0.345627
-0.613106
-0.384175
-0.687274
-0.421169
-0.758671
-0.456468
-0.82701
-0.489939
-0.89202
-0.521457
-0.953442
-0.550904
-1.01103
-0.578169
-1.06457
-0.60315
-1.11383
-0.625757
-1.15864
-0.645903
-1.19882
-0.663516
-1.23421
-0.67853
-1.26468
-0.690891
-1.29011
-0.700551
-1.31042
-0.707477
-1.32553
-0.711643
-1.33538
-0.713033
-1.33995
-0.711643
-1.33923
-0.707477
-1.33323
-0.700551
-1.32198
-0.690891
-1.30553
-0.67853
-1.28396
-0.663516
-1.25736
-0.645903
-1.22584
-0.625757
-1.18953
-0.60315
-1.14858
-0.578169
-1.10316
-0.550904
-1.05345
-0.521457
-0.999643
-0.489939
-0.941961
-0.456468
-0.88063
-0.421169
-0.81589
-0.384175
-0.747997
-0.345627
-0.677214
-0.305672
-0.603818
-0.264461
-0.528094
-0.222153
-0.450335
-0.178911
-0.370843
-0.134903
-0.289923
-0.090298
-0.207888
-0.0452716
-0.125053
-0.0417379
0.0474545
0.0435432
0.0947856
0.130462
0.141805
0.216881
0.188327
0.302466
0.234163
0.386889
0.27913
0.469824
0.323047
0.550953
0.365735
0.629961
0.407023
0.706543
0.44674
0.780401
0.484726
0.851248
0.520823
0.918807
0.554884
0.982813
0.586769
1.04302
0.616345
1.09917
0.643489
1.15107
0.66809
1.19848
0.690044
1.24124
0.70926
1.27915
0.725658
1.31207
0.739169
1.33986
0.749737
1.3624
0.757318
1.3796
0.761879
1.39137
0.763401
1.39767
0.761879
1.39845
0.757318
1.39371
0.749737
1.38346
0.739169
1.36773
0.725658
1.34656
0.70926
1.32004
0.690044
1.28827
0.66809
1.25135
0.643489
1.20944
0.616345
1.16269
0.586769
1.11129
0.554884
1.05542
0.520823
0.995318
0.484726
0.931213
0.44674
0.86336
0.407023
0.792028
0.365735
0.717501
0.323047
0.640078
0.27913
0.560069
0.234163