/*--------------------------------*- C++ -*----------------------------------*\
  =========                 |
  \\      /  F ield         | OpenFOAM: The Open Source CFD Toolbox
   \\    /   O peration     | Website:  https://openfoam.org
    \\  /    A nd           | Version:  6
     \\/     M anipulation  |
\*---------------------------------------------------------------------------*/
FoamFile
{
    version     2.0;
    format      ascii;
    class       volScalarField;
    location    "1.94";
    object      p;
}
// * * * * * * * * * * * * * * * * * * * * * * * * * * * * * * * * * * * * * //

dimensions      [1 -1 -2 0 0 0 0];

internalField   nonuniform List<scalar> 
24166
(
0.997677
1.00303
1
1
1
1
1
1
1.0015
1
1.00005
1.0008
1.00217
0.997545
1.00017
1
1.00007
1.00008
1
0.999952
0.999997
0.999998
1
1
1.00092
1
1
0.98082
1
1
1.00445
1
1
1
1
1.01952
1
1.05475
1
0.794995
1.00002
1
1
1
1.00003
1
1.00426
1.00787
1
1.03524
1
1.00004
1
1.00006
0.999994
1.01504
1.01849
1
1
1.00001
0.580523
0.999924
1
1
1
1
1
1.01343
1.05634
1
1
1.00003
1
1
1
1
0.999996
1.0136
1
0.999999
1.04234
1
1
1.03995
1.00017
1
0.999946
1
1
0.999994
1
1
0.999462
1
0.999877
1.00012
1
1.00002
0.999995
1
1
1
1.00011
1
1
1
1
0.999996
1
0.999999
1
1
1
0.982761
1.00789
0.999999
1
1
0.999964
1
1
1
1.00198
1
1.02011
0.999953
1
1
1
1
0.999987
1.00335
1.0067
1.01125
1
1.00001
1
1.03363
1
0.999997
1.00943
1
1.04125
1
0.997823
1
1
1
0.967401
1
1
1
1
1.00001
1
1
1
1
1
1.00001
0.968835
1.01978
1
1
1
1
0.896935
1
1
1
1
1
1
0.999729
1
1.00035
1
1
1.00003
1.00152
1
1
1.04202
1
1
1
1
1
1
1
0.999999
1.00912
1
0.999128
1
0.999963
1.00099
1
1.00009
0.999995
1
1
1
1.00411
1
1
1
1
1
1.05579
1.01629
1
0.999874
1.00002
1
1
1
1
1.04425
1
1
0.999149
1
1
1.01919
1
1
1
1.00004
1
1.00244
0.999987
1.00007
1
1.01178
1
0.999993
1
1
1
1
1
1
1
1.00001
1
1.00002
0.999923
1
1
0.999907
0.999999
0.999999
1.03629
1
1
1
1.00049
1
1.00001
1
1
1
1.00002
1
1
0.999999
1
1
1
0.999976
0.929726
1
1.00225
1
1
1
0.893952
0.999997
1
1.00891
1
0.828006
1
1
1
1
1
0.999977
1
0.981418
1
1
1
1.00005
0.802829
1
1
1.0007
1
1
1.00001
1.00059
1
1
1
1
1.00004
1.00199
1
1.00497
1.00001
1
0.65915
1.00141
1
0.999853
1
0.999974
1
1
1
1.02664
1
1
0.999999
1
1
1
1.04337
1
1.00001
1
1.00041
1
1.0064
1
1
1.00002
1.00209
1
1
1
1
1
1
1
1
1
1
1
1
1
1
1
1
1
1
0.92576
1.00672
1
1
1
1.00706
1
1
0.99697
1
1
1
1.00023
1
1
1
1
0.999928
1
1.00038
1
1
1
1
1
1.00029
1.0009
1
1
1.00101
1
1.02185
1
1
1.00037
0.987099
1.02791
1.00035
1
1
1
1
1
1
1.0004
0.999886
1
1
1
1.00125
1
1
1.00108
1
1
0.999998
1
0.999832
1.00211
1
0.999996
1
1
0.988766
1
1
1
1
0.999306
1
1
1.00046
0.99996
1.02579
1
1.00001
1
1
1
1
1
1.00003
1.00001
1
0.965117
1
1
0.999979
1.01796
0.999999
1.06168
1.02573
1
1
1
0.998185
1.00111
0.999974
0.977314
1
1
1
0.726388
1
0.998603
1.00334
1
1
0.999999
1
0.999996
1
1
1.00074
1
1
1
1.0018
1
1
1
1.00002
1
1.0063
1
1
1.01257
1
0.999707
1
1
1
1
1
1
1
1.02808
1.0265
1
1.00003
1
0.996332
1
0.999162
1.01652
0.661051
1
1.00007
1.00001
1
1
1.00031
1
1
1
1
0.999777
1.00252
1.00105
1.00002
1
1
1
1
1.00808
1.0203
1
1
1
1
1
1.02423
1
0.99965
1
1
1
1
0.598946
1
1.00016
0.999999
1
1
0.999827
1
1.03394
0.999996
1.04343
1
1.00002
1.00042
1.02193
1
1
1
1
1
1
1.01674
1
0.814017
0.686079
1
1
0.999368
1
1.02448
0.51451
1.00001
1
1
1
1.00922
0.999996
1
1.00179
1
0.999986
1
1
1
0.999308
1
1
1
0.999995
1
1
1.00329
1.00138
1.04744
1
1.00004
1
1
0.75554
1
0.999998
0.996826
1
1
0.997942
1
1
0.999545
1
0.999016
1.00002
1
0.999601
1
1.00192
1
0.999997
1
1.00031
1
1
1.03735
0.989399
1
0.984436
1
1.00065
0.999997
1
1
0.99966
1
1.02205
1
1
1.01029
1
0.979131
1
1
1.02899
1
1
1.01353
1
1
1.00051
0.999959
1.05446
1
0.999922
0.999995
0.999927
1
1
1
1
1
1.00003
1
1
1
1
1
1
0.999453
1
1
1
1.00015
0.991404
1
1.00001
1
1
1.00235
1
1
1
0.857722
0.999999
1
1.00001
1
1
1
1
1
1
1
1
1
1.00001
1.00245
1.00549
1.00001
1
0.999998
1
1
0.996559
0.999998
1.00595
1.01773
1
1
1
1
1.01219
1
0.999994
1.05194
1
1
1
0.997957
1
1
1
1
0.999075
1.04564
1
1.01218
0.998183
1.0352
1
1
0.999693
1
1.03091
1
0.999963
1
1.00001
1
1.00065
1.00971
1.02855
1.00002
0.999982
1
1
1
0.999987
1
0.999988
1
0.775283
1.00646
1
1
1
1
1
1
1
1
1.01893
1
1
1
1.00015
1
1
1
1
1
1.03051
1
1
1
1
1.0005
1
1
1
1
1
1.00001
1
1
1.03587
0.999997
1
1
1.00001
1
1
1
0.999994
1
1
1
1
1.04061
1
1
1
1
0.999998
1
1
1
1
0.821728
1.01585
1
1.03447
0.999998
1.00649
1
1
1
1
1
1
1
1
1
1.00375
0.999961
1
1
1
1
0.999995
1
1
1.02783
0.999992
1
1
1
1
0.999698
1
1
0.999997
1
0.999996
1.00289
1
1
1.00084
0.998703
1
1.01626
1
1
1
1
1
1
1
1
0.999999
1.00068
1.00118
1
0.999313
1
1
1
1
0.999972
1
1
1
1.00076
1
1.02321
1
1.00278
0.999996
1
1
0.99964
1.05577
1
0.999998
1
0.999351
1
1
1
1.00009
1
0.999999
1
1
0.999994
1
0.98392
1
1
1.00964
1
1
1.00045
1
1.00001
1
1
0.999998
1
1
0.999947
1
1
0.990341
0.925188
1
0.999644
1
1
1.00001
1
1
1
1
1
0.999998
1.03782
1
1
1.00002
0.999908
1.01529
1.00002
1.00071
0.999999
1.00001
1
1
1
1
1.00001
0.98533
1.00022
1.1173
1
1.00399
0.999996
0.999995
1.04047
1.01358
1
1.00002
0.999998
1
1
1.00001
0.708948
0.99974
1.02037
1
1
0.998275
0.998572
1.00478
1
1
1
0.998194
1
1
1
1.01778
1.00001
1
0.989828
1
1
1
1
1.00001
1
1
1
1
1
0.997593
0.999935
1.00022
1
1.04714
1
1
1
1.00794
1
0.999999
1.01875
0.999994
1.02159
1
1
1
1
1
1
1.00126
1
1.00308
1
1.00009
1.01376
0.99998
1
1
1
1
1
1.03443
1.00001
1.00002
1.00003
1.00556
1.01263
1.01464
1
1
1
1
1.00052
1
1
0.999996
1
1.00271
0.999995
1
1
0.974761
1
0.999984
1
1
1
1
1
1
1.02786
1.00138
1
0.999848
1.02702
1
1
1
1.00415
1
1
0.999999
1.00001
1
1
0.999996
0.999975
0.999999
1
1.00025
1
1
0.999999
1
0.999999
1.00007
1.00227
1
1.00204
1.02161
1
0.999997
1
0.952972
1
1.00015
1
1
1
0.48651
1.00002
0.996718
1
1
1
0.9999
1
1.00016
1
1
1
0.999535
1
1
1
1
1
1.00093
1
1
1
1.02425
0.999975
0.994187
0.99998
1
0.999998
1.00001
1
1
1
1.00017
1.0007
1
0.999999
1.00002
0.998369
1.002
1
1
1
1
1.00081
1
1
1
1
1
0.441101
1
0.482765
1
1
1
1.00021
1.00002
0.999994
0.999281
1.01918
0.999996
1
1.00638
1
1.01104
1.00058
1
1
0.996737
1
0.999451
1.04268
0.999999
0.999968
1
1
1
1
1.08257
0.996397
1
0.999999
1.00418
1
1
1.00639
0.322747
1
1
1.00005
1
1
1.01984
1.01003
1
1
0.999999
0.999997
1
1
1
1
1
1
1
1
1
0.999892
1
0.999998
1.00979
1.00012
1
1
0.993223
1
1
1
1
0.999977
1
1
1
1.00295
1
1.02818
0.99974
0.999991
1
1.00607
1
1
0.967801
1
1.00078
0.999995
1.00359
1
0.999999
1
1
1
1
1
0.82987
1
1.001
1
1
1
1
1
1
1
1
1
1
1.00029
1.00005
1
1.05772
1
1.01338
1.00002
1
1
1
1
1
0.999981
0.999622
1.00001
1.00046
1.03192
1
0.999999
1
1
1
1
1
1
1
1.08924
1.01035
0.418741
1
1
1.00026
1
0.440821
1
0.999681
1
1
1.00029
0.860258
1
1
1
0.999929
1.00285
0.999999
1
1
1
1.01051
1
0.999999
0.999986
1.02945
1
1
1.02457
0.999994
0.9828
1.00003
1
0.999995
1
1
1
1
1
1
1
1
1.00938
1
1
1
1
0.998611
1.00667
1
1
1
1
1
0.999985
1
1.00002
0.991599
1.00003
0.999995
1
1
0.929295
1.00006
1.00001
1
0.638246
1.00019
1
1
0.999999
1
1
1
0.999997
1
1
1
1.02893
1
1
0.999996
1
1.00235
1.00001
1.00006
1
1.01017
1
1
1
1
1
1
1.01573
1
1
1
1
1
1
0.999943
1.00038
1.00303
1.00125
1
0.999985
1
1.00005
1
0.999997
0.999995
1
1
0.999999
0.953539
1.04228
1
1
1
1.03689
1
0.338207
1.00026
1
1
1.00096
0.999205
1
1
1
1.00157
1.02052
1
0.999974
0.999663
0.999993
1
1
1.00026
1
1
0.999974
1
1
0.999987
1
1
1
1
1.00274
1
1
1.00025
1.01584
1.00004
1.00208
1
1
1.00303
1.025
0.999998
0.999998
1.02518
0.920566
0.380703
1
1
1
1
1
0.999999
1
1
0.999722
1
1
1.03146
1
0.999997
1
1
1
0.999461
1
1
1
1
1.00044
1
1
1
0.999999
0.999799
1
0.998371
1
1
1
1
1
1
1
1
0.99977
0.367723
0.999996
1.00005
1
1
1
1
1
1
1.02749
1
1
1
1
1.019
1.00027
1
1
0.999991
1
0.999994
1
1.01846
0.999684
1
1
1
0.999904
1.02178
1
1
1
1.00085
1
1
1
1
1.03477
1
1.00082
0.999994
1
1.06011
1.00067
1
0.996508
1.00002
1.05716
1
1.04177
1
1
0.999659
1
1
1
1
1
0.999994
1
1
0.999994
1
0.999952
1
1.00036
1.00001
1.01205
1
1.00004
1.03153
1.03141
1.00407
0.999936
1.00002
0.99177
1
1.00242
1.00003
0.996146
1
1
0.999975
1.00749
1
1.00034
1
1
1.00018
1
1
0.999062
1
1
1
1.00001
1.00562
1.00001
1.00001
1
1
0.999981
0.999997
1
1.06267
1
1
1
1
0.999999
0.999991
1
0.999842
1
1
1.00007
1
1
1
1
1.00001
0.999021
1
1.00044
1
1.01103
1
1
1
0.999998
1
1
0.999998
0.999999
1
1
1.00007
1.02406
1
1
1
1
1
1
1
1
1
1
1.02505
1
0.999997
1.03174
1.05204
1
1
1.00098
1
1
1.02173
1
0.999988
1
0.999998
1
1.00755
1
0.999447
1.04695
1
1
1
1
1
1
0.975704
1
0.999926
1
1
1
1
1
0.987449
1.00289
0.998087
0.999998
1
0.734285
1.01279
0.999999
1.00267
1
1
1.02376
1
0.999998
1
1
1
1
1
1
1
1
1
1
0.999999
1
1
1
1
0.999999
1
1.00092
0.999996
1
1.00001
1
0.999236
1
1
1
0.999994
1.00175
1
1.05811
1
1.00016
1
1
1.00001
1.03092
1.00016
0.99997
1
1
0.999966
1
1.02931
1
1
1
1
1.00669
1
1.01027
1
1
1
1.01845
1
1
0.99743
1
1
1
1
1
1.04065
0.999998
1.00173
1.04207
0.999998
1.00381
1
1
0.999966
1
1
1
1
1.03119
1
1
1
1.00389
1.00002
1.00169
1.00006
1
1
1
1
1
1.02166
1
0.875407
1
1.01627
1
1
1.00067
1.00008
1
1
0.999944
1
1.0001
1
1
1.00004
0.999899
1
0.999427
0.999998
0.999998
1
0.999164
1
1
1
1.00413
1.03284
1.00001
1
1.008
0.999997
1
1
1.02333
1
1
0.999961
1
1
1
1.00494
1
1
1
1
1
1
1
0.992943
1
1
1
0.999998
1.00386
1
1.00709
1.00002
1
1.00266
0.999995
0.999342
1.00001
0.999998
1
1
1
1
1.00001
1
1
0.999975
1
1
1
1.02485
1
1
1.0039
1
1
1
1
0.999209
0.9941
1
1
1
1
1
1
0.997955
1.02118
1
0.999994
0.999999
1.00006
1
0.996486
1
0.999933
1
1
1.0477
1.00299
1.00001
1.00628
1.01989
1.04958
1.06236
1.00001
1.00003
0.99251
1.0062
1.07104
1
1
0.994576
1
1
1.04233
0.999997
1
1.01127
1
1.0558
1
1
0.999999
1.02364
1
1
1
1
1.0005
0.996788
1
0.999994
1
1
1.00116
1
1
1
1
1.01553
1
1
1.00001
1.013
1
1
1
1
1.19807
1
0.999994
1.0483
1.00334
0.999894
1
1.00359
1.00336
0.999954
1.01131
0.999174
1
1
1
1
1
1
1
1
1
1
1
1
0.999999
0.999985
1.02568
0.999998
1
0.99171
0.998792
1.00087
1.00373
1
1
1
0.999976
0.979767
0.991102
1.02986
1
1
0.999998
1.00001
1.01687
1
1.00023
1.02042
1
0.612093
1
1
1
1
1.00011
1
1
1
0.877196
1.00015
1.00281
1
1
1
1
1
0.588547
1
0.999093
1
1
1
1
1
1
1
1
1
1.00215
1.00133
1
1
0.964724
1
1.00007
1
1
1
1
1
1
0.99778
1.00466
0.999053
0.999998
1
1
1
1
1.00205
1
1.00172
1
1
1.00106
1
1
1.01181
0.982201
1.0057
1.01344
1
1
1
1
0.999998
1.00081
1.00051
1.00348
0.999999
1.00001
1
1.00268
1.02246
1
1
1
0.999924
1
1.00001
1
1.00008
1.00761
0.99998
1.00045
1
1
0.999994
1
1
1.00071
1
1
1.01393
0.998288
1
1.01484
1
1
0.999699
1
1.03203
1
1
1.03904
0.792161
1
1.02461
1.00252
1
1
1
1
1
1
1
0.999954
1
1
0.979253
1.00438
1.00014
1
1
0.999997
1
1
1.00077
0.997927
0.999889
0.884553
1
1
1.00538
1
1
1
1
1
1
0.999992
1
1
0.776947
1
1
1.00058
1
1
1
0.999996
1
1
1
1
1
1
1
1.00177
1
1
1.0248
0.999341
1
1
0.99999
0.999999
1
1
1
1
1
0.999986
1
1
1
1.00205
1
1
1
0.999781
0.999998
0.999997
0.999974
1
0.877497
1
1
1
0.999988
1.00002
0.999987
1.00011
1
1
1
0.998147
1
0.695926
1
1
1
0.999942
1.00016
1
1
1.04856
1
0.999979
1
1.05203
0.999243
1.00146
1
1
1.02521
1
1.00675
1
1
1
1.00003
1
0.999999
1.04499
1
1
1
1
1.00005
1
1
0.999991
1
0.999994
1
0.999915
0.751499
1.00397
1.00042
1
1.00003
0.999998
1
1
1
0.99891
0.999995
1
1
1
1
0.999475
1.00157
1.00001
1
1
1
1
1.0164
1
1.00228
0.99967
1
1
0.990298
1.00003
1
1
1
1
1
1
1
1
1
1
1.00411
1
0.999906
1.00254
1
1.00004
1
1
1.01724
1.09219
0.994276
1
1
1
1
0.999999
1
0.999985
1.00002
0.999989
1
1.05971
1
1.0002
1.00032
1
1.00032
1.01545
1.03624
1
1.04466
1.00001
1.00511
1
1
1.00004
1
0.999993
1
1.07249
1
1
0.99791
0.856002
1
0.975896
1
0.999996
1.00003
1
1.00001
1
1
1
1
1
1
1
1
0.996596
1
1.00416
0.896968
1.00491
1
1
1.00402
1.00637
1
1
0.999773
1.03682
1.00349
1
1
1
0.601451
1.00344
1
1
1
1
1
1
0.999999
0.997301
1.00029
1.04918
0.971619
1
1.01568
1
0.991917
1
1
1.02141
0.999999
0.999999
1
1.00378
0.999989
1
1
1
1
1.00153
1.00001
1
1
1
1.00076
1.01945
1
0.999998
1
1
1
1.01267
1
1
1.02463
1.00001
1
1
0.999014
1
1
0.999997
1
1
0.999734
1
1.00445
1
1
1
1
1
1
1.00016
1
1.00721
1.02475
1.02079
1
1
1.00017
1.00184
1.00587
1
1.06467
1
1.00002
0.95879
1
0.922766
1
1
1
1
1
1.00075
1
1.0336
1
0.992201
1
0.99997
1
1
1
1
1
1
0.999654
1
1.00001
1
1.02512
0.999997
1.00193
1
1
1.00111
1
1
1
1.05626
1.01108
0.999951
1
1
1
0.999636
1
1
1.01072
1.00391
1
1.02147
1
1.00002
0.999983
0.999966
1
1
0.99327
0.999998
1.00002
1
1
1
1.00002
1
1
1
1
1
1
1
1.00002
1.00382
1
0.841601
1.00007
1
0.999968
1.00082
0.992017
1
0.990062
1
1
1
1
1
1.00119
1
1
1
1.01257
1.00001
1
1.00088
1
1.00013
1
1
1.03114
1.05214
1
1
1.0004
1
1.0233
1
1
0.99366
1
1
0.976137
0.999969
0.999998
1
1
1
1
1.05275
1
0.860241
1.00244
1
0.999639
1
0.999999
1
1
1.03753
0.999939
1
1
1
1
1
1.00076
1
1
1
0.999843
1.01053
1.00195
1
1.00073
1
1.00025
1.00196
1
1
1
1
0.983089
1
1.02525
1.00029
1
1
1
1
1
1
1.00002
1
1
1
1
1
1
1
1
1.11757
0.999953
1.03642
0.999944
0.999727
1.00007
1
0.999791
0.399045
1.00009
1
1.01203
1
1.00007
1.00096
1.00502
1
1
0.999856
1
1
1
1
1.00009
1
1.05256
1
1.00096
1
1
0.999976
1
0.999998
1
1
1
1.00002
0.999113
1
1.00001
0.670178
1
0.601236
1.00179
0.999997
1.00076
0.999999
1.00013
0.999771
1
1.00829
0.999996
1
0.999996
1
1
1.00218
1.00094
1
1
1.08225
1
0.999999
0.998224
1.00423
1
0.997657
1
1
1
1.00876
1
1
1
1
0.992457
0.999992
1
0.827818
1
1
0.689869
1
1.03828
1.00001
1.00002
1
1
1
1
1
1
1
1
1
0.999975
0.999947
1
0.597744
1
1
0.998274
1
1.00001
1
1
0.997671
1
1.00001
1
1
1
1
1
1
1
1
0.999999
1
1
1
1.00024
0.998612
1.00014
1
1.00195
1.00117
1.00001
0.999999
1
1.00003
1.00269
1
1
1
1.00345
1
1
0.45324
1
1
1
1
1
1.00001
1
0.999956
1
0.998791
1
0.999997
1.00088
1
1.00001
1.03716
1
1
1.02192
0.741532
1
1.00004
1
1
1
0.990346
0.99997
1
1.00051
0.775224
0.474135
1
0.838606
1
1
1
1
1
1
1.00016
1
0.458368
0.999971
1.00003
0.999997
1
1
1.00002
1
1
0.999996
1
1.00015
1.00001
0.999999
1
1
1
1
1
0.839231
1
0.999997
1
1
0.877442
1
0.999966
1
1
0.99999
1.0033
1.00096
1
1
1
1
1
1.00006
0.999622
1
1
1
1
1
1
0.999988
1
1
1
1.006
1
1.05156
1
1
1
1.00783
1
1
1.00047
1
1.00001
1.00001
1
1
1
0.999999
1.00004
1
0.99999
0.999996
0.999999
1
0.443093
1
1.00022
1
1
1.02653
0.99995
1.00243
1.0214
0.986301
1
1.04653
1
0.31856
1
1.00217
1
1
1
1
1.00899
1.0053
1.00001
1
1.04554
1.00326
1.00091
1
0.988071
1
1
1
1.00017
0.999239
1.00001
0.292529
1
1
1.00004
1.00009
1.04493
1
1
1
1.00151
1
0.999961
0.999869
1.00001
1
1
1
1
0.998414
0.999985
1.04549
0.355953
0.999998
1
1
1
0.999593
0.996607
1.00002
0.999441
1
1
1.00011
1
1
1
0.999829
1.00728
1.00875
1.00001
1
0.999857
0.999869
0.981117
1
1.00453
1
0.953168
1
1.00044
0.999999
0.999985
1
1.02924
0.875216
1
1
1
1.00002
0.989533
1
0.999998
1
1
1.00714
1
1
1.00001
1.0007
1
1
1.00038
1.00042
1
1
0.616796
1
1.00004
1
1
1
1
1
0.999997
1
1.00001
1
1
1
1
1
1.00001
1
1
0.999893
1
1
1.00068
1
0.989741
1
1
1
1.00003
1
0.991787
1
1
0.999999
1
1
1
1
1
1.02233
1
1
1
0.3604
1
1.0063
1
1.0248
1
1
1
0.842193
1
1
1.00031
1
1
1.00174
0.999447
0.987903
0.384942
1
1
1
1.13878
1
1
1.00199
1
1
1
0.999998
1
1.00001
1.01072
1
1
1
1
1.0053
0.999999
1
1
0.99952
1
1
1
1
1
1
1
1.00003
1
1
1
1
1
1.00002
1.00002
1
1
1
1
1
1.00429
0.999999
1
1
1
1.00006
0.74164
1
1.00002
0.999999
0.999994
1
0.999963
1
1.00008
1.00171
1
1
1.11241
1.0231
1
0.995069
1
1
0.408926
1
1
1
1
1
1.00002
0.402958
1
1
1
1
1
1.00016
1
1
0.992349
1
0.999999
1
1
1
0.999719
1.00042
1
1
1
0.999997
1
1
1
1
1
1
0.982725
1.00733
0.999994
1
1
1.0452
1
1
1
0.999999
1
1
0.999982
1
1.02614
1
1
1
1
1
1
1.00434
0.99997
1
1
1.01559
1
1
1
1.00895
1
1
1
1
1
1
1
0.999999
1.00012
0.513499
1
1
1
1
1.00003
1
1
1
1
0.999757
1.00001
1
1
1
1
1
0.917861
1
1
1
1
1
1
0.891462
1
1.01138
1
1
1.01214
0.993094
1
0.999999
1
0.984997
1.00001
1
1
1
1
1
1.00258
1
1.00056
1
1
1
1
1.00034
1
1.02787
0.999997
1.00003
1.0515
1
1
1.00016
1
1.00195
0.999999
1
1
1
1.00001
1
1
1
1
1.00063
1
1
1.03418
1
1
1.00113
0.949926
1.02544
1
1.00152
1
0.999998
0.96327
1.00681
1
1.00001
1.00007
1
1.00003
1.00003
1
1
1
1
1.0028
1
1
1.00119
1
1.03277
1
1
1
1
0.860436
1
1
1
1.00002
1
1
1
1.02851
0.984124
1
1
1
1
1
0.999975
1
0.856368
0.762604
1.00175
1
0.999709
1
1.00011
1.00311
0.999993
1
0.998506
1
1
1
0.586794
1
1
1.04014
0.999536
0.999998
0.992966
0.999871
0.999953
1
1.03389
1
1
0.999933
1
1
1
1
1.00001
1
1
1.00005
1
1
1.04305
1
1
1
1
0.98215
1
1.00011
1
0.999995
1
1
0.999999
1
1
1
1.00003
1
1
1
0.569242
1
1
1
1
1
0.999999
1.00022
1
1
1
1
1
1.00182
1
1
1
1.01215
1
1
0.999987
1
0.999979
1.00003
1
0.989395
1
1
0.997525
0.99984
1.00049
1
1
1
1
1
0.399403
1.0024
0.999808
1.00003
1
1
1
1
0.999998
0.999172
1
0.988097
1
1.00048
1
0.999999
1
1
1
1
1
1
1
0.999756
0.999977
1.02246
1.00099
1
1.00852
0.999671
0.999193
1
1
0.999455
0.999998
0.99999
1.01464
1
1
1
1.00613
1.04183
1
1
1
1
1
1
1.00008
0.999999
1
0.760456
1
1
1.00016
1
1.04896
1
0.999999
1
1
1
1.00004
1
1
1
1
1.00001
1
0.999993
0.999972
1
0.999987
1
0.999997
1
1
1
1
1
1
0.996135
1
1.00009
1
1
1.00072
1.00009
1
1
1
1.01159
1
1
1.03114
1
1.00103
1.00444
1
1
1
1.0103
1
1.00124
1.00023
0.999987
0.999986
1.01094
1.00005
1
0.999997
1
1.00005
1
1
0.999927
0.99995
0.999985
0.696643
1.00001
1.00003
1
1
1
1
1.00002
1
1.00032
1.03641
1
1
1
1
1
1
1
1
1
1
1
1
1
1
1
0.999998
1
1
0.999999
1.00001
1
1
1
0.538931
1
1
1
1
0.999979
1
1
1.00001
1.00042
1
1.00005
1
1
1
1
1
1.00017
0.999998
1
1
1.00028
1
1
1
0.995042
1
1
1
1.00001
1
1
1
1
0.999987
0.999872
1
1
1
1
1
1
0.999371
1
0.999998
1
1
1
0.767923
0.999999
1
1
1
1
1.00001
0.999622
1
1
1.02741
1.00312
1
1
1
1
1
1
1
1
1
0.999999
1
1
1
1
1
1
1
1
1
1
1
1.00008
0.731525
1.00863
1
1
0.999735
1
0.775221
1
1
1
1
1
1
1.00078
1
1.00001
1
1.00604
1.00003
0.999986
1
1
0.999993
1
1
1
1
1.00005
1
1
1.00001
1.00037
0.999998
1
1
0.999884
1
1
1
1
1
0.999994
1.00006
1.00021
1
1.00001
0.999978
0.999988
0.999993
1
1
1
1
1
1.00154
1
1
0.999948
0.99995
1
1
1
1.00412
0.906768
1
1
1
0.999993
1
0.999982
1
0.999998
1
1
1
1
1
1
0.972061
1
1
1
1.00001
1
1.04108
0.999997
1
0.995118
1
1
1
1
0.99961
1
1
1.00248
1
1
1.20912
0.999743
1
1
1.04222
0.999785
1
1
1
0.981628
1.00463
1
1
0.999989
1
0.999997
0.999632
1
0.99998
0.999996
1
1.02107
1
1
1
1
0.984921
0.305607
1
0.99994
1.0395
1
1
1
1
1
0.746347
1.00017
1
1
1
1
1.03075
1
1
1.00005
1
1
1
0.999957
1
1
1
1
1
1
1.00009
1
0.999936
0.901842
0.999754
0.999999
1
0.989804
1
1.00009
1
1.00375
1
1
1.03344
1
1
0.991647
1
1
1.00005
1
1
0.999716
1.00478
1
1.01637
1
1
1
1
1.04403
1
1
1
1
1.00004
0.999035
1.00111
1
1
0.999992
1.00001
0.999088
1
1.00262
1
1
1
1
1.04761
1.00005
1
1
1
1
1
1
1
1.0501
1
0.985543
1
1
1
1
1.00001
1
0.905601
1.00385
1
1
1.03222
1
1
1
1
0.986922
1
1.04673
1
1
1
1
1
1
1
0.99998
1
1.00003
1
1
1
1
0.991507
0.999998
1
1
1
1
1.00017
1
1
1.02332
0.996575
0.996329
1
0.982069
0.999828
1
1
1.05257
1
1.00001
1
1.00007
1.03108
1
1
1.00003
1.00377
1
1
0.999985
0.997667
1
1.05308
0.99998
1
1
1
0.999999
1
1
0.999998
1
1
1
1
1
1.00003
0.999997
1
0.746947
1
0.99992
1
1.00015
0.999969
1
1
1.00001
1
1
1.00001
0.999994
1
1
0.887596
1
1
1
1
1
1
0.708399
1.03929
1.04777
1.00043
1
1
1
1
1
1
0.99999
1
1
1
1.00001
1.00116
1
1.00052
0.999982
1
1.00165
1
1.00792
1.00076
0.986936
0.999998
1
1.00013
1
1
0.999999
1
1.00001
1
0.999997
1.0178
0.999839
1
1.00008
1
0.998766
1
1
1
0.999883
1
1
1
1
1.02627
0.999933
1
1
0.922674
1
1.00007
1
1
1
1
1
1
1
1
1
1
1
1
1
1
1
1
1
1
1.00057
1
1.02261
1
1
1
1
1
1
0.999997
1
1
1
1.01301
1
1
1
1.00002
0.999992
1.00001
0.999537
1
1.00003
1.02564
1
1.05391
1.00012
1
1
1
1
0.999998
0.999999
1
0.997976
1.00352
0.99984
1
1
1.00006
1
0.99992
1
1
0.986681
0.999976
0.828631
0.999997
1.00008
1
1
0.999862
0.999997
1
1
1
1
0.999983
0.999589
0.999987
1.03219
0.999965
1
1
1
1
1
1
1
1.00012
1
1
1
1.03836
1.0004
0.999997
1.02409
1
1
0.999999
1
0.998359
1.00207
0.999987
1
1
1
1.00004
1
1
1.05074
1
1
0.928133
0.999686
1
1
1.00401
1
1
1
0.971151
1
1
0.999184
1
1.00008
1.00646
1.01333
0.999982
1.00823
1
0.975259
0.999092
0.477091
1
1
1.00001
1
0.999998
1
1
1
0.999999
1
1
1.00019
0.716301
0.999804
1
1.00442
1
1.00086
1.00235
1.0001
1
1.02912
1
1
1
1.00422
0.999975
1
0.998325
1
0.999999
1
1
1
1.00027
1
1.00001
1
1
1
0.618043
1
1
1
0.480436
1
0.999909
1
1
1
1
1
1
1
1
1.00007
0.999662
0.993133
1
1.00646
1
1
1
1
1.01387
0.999912
1
0.759454
1
0.999997
1
1
0.999688
1.0004
1.01486
1.00562
1
1.00003
1.00017
0.988382
0.999958
1
1
1
0.999994
1.01126
1
1
1
1
1
1.04196
1.00158
1
0.992851
1
1
0.999566
1.00327
1.04096
1
0.999961
1
1
1
1.00012
1
1
1
1.04356
1
1
1
1
1.01417
1
0.98735
0.999999
0.999997
1.00017
1
1
0.997703
1
0.826006
1
1
1
1
1
1
1
1
1
1.00683
1
1
1
1
1
1
1
1.00001
0.967947
1
0.998492
1
1
1.01603
1.00045
1.00024
1
1
1
0.383512
1
1.00361
1
1.00089
1
0.999999
1
1
1
1
1
1
0.999974
1
1
1
1
1
1
1
1
1.01247
1
1.00478
1
1.00065
0.999999
1
1
1.02197
1
1
1
1
1.00847
0.999073
1
1.00048
0.999998
1.00014
1.04769
1
1
1.00032
1
1
1
1
1.03736
1
1
1
1.00001
1.001
1
1
1.00001
1
1
1.00011
1.0008
1
1
1
1.00024
1.0097
1.02482
1
1
1.00017
1
1.02341
1
0.999424
1
1
1
1
1.02814
0.996374
1.01494
0.999982
1
1
1
1
0.999999
1
1
1
1.00487
1
1
1
1.03464
1.0303
1.02078
0.922383
1
0.948943
1
1
1
0.999967
1
0.999972
0.993435
1
1.00084
1
1
1.05889
1.04982
1
1
1.00215
0.999497
1.03113
1
1.00022
0.379456
0.931587
1
1
0.999997
1
1.0032
0.98733
1.0048
1
1
1.01735
1
0.999991
0.943416
1
0.471416
1
1.0266
1
1.00001
0.589103
1
1
1
1.04164
1
0.622613
1
0.913524
1
0.999998
0.436754
1
1
1
0.999998
0.999809
1
1.01129
1
0.999999
0.997687
1.00035
0.999999
1
1
1
1.0156
1
1.00018
0.999272
1.00006
1.00009
1.05185
1.00007
1
0.995135
1
1
1.03775
1
1.01754
1.00007
1
0.999948
0.999557
1.01181
1
0.999562
1
1.00039
1.0003
1
0.779499
1.04415
0.999999
1.04547
1.0174
1
1
1
1.00001
1
1.00002
0.999985
1
1
1.00273
1
1.00001
1
1.00167
0.999976
1.0041
1
1
1
1
1
0.859176
0.999994
1
0.9995
1
1
1
0.902282
1
1
0.999579
1.00037
1
0.999997
1.00005
1.00052
1
1.00001
1
1.02219
1
1
1
1
1
0.940543
1.00189
1
1
0.999987
1.024
1.00013
1
1
0.999997
1
1.01981
1
1.00001
1
1
1
1
1
1
1.00004
0.999988
1
1
1
0.9674
0.994694
0.995778
1
1
1.05212
1
1
1
1
0.732142
1
1
1
1
1.00001
1
0.518087
1
1
1
0.988728
1
1
1
1.00001
1
0.786568
1.02025
1.04428
1
0.998192
0.96868
1
1.01076
0.977196
0.998891
1
1
1
1
1
1
1
0.999825
1.0007
1
1.01259
0.999986
0.999998
1
0.999982
1
1.00036
1
0.999971
0.999999
0.99998
1.00003
0.999996
1
1
1
1.00001
1.00923
1.04552
1
1
1
1
0.828602
1
1
1
1
1
0.999993
1.01106
1
1.0058
1
1
1
1
1
0.999963
1
1
1.04911
1
1.00009
1.00015
1
1
1
1
1
1
1
1
0.999985
1.02743
1
1
1.00002
1
0.89136
1
1
1
1
1
1
1
1.00616
1
1
0.997691
1
1
1
1
1
1
1
1
1
1.00274
0.999628
1.00001
1.00625
1
1.00001
1
1
1
1.02812
0.99969
1.00107
0.999987
1
0.999997
1
1
1.00006
1
1
0.805826
1.00027
0.999999
1
1.0002
1.02175
1
1.00004
1
1
1
0.999996
1
1
1
1
0.756796
0.974981
0.99998
1
1
1
0.845423
1
0.999996
0.999999
1.00068
1
1
1
0.608555
1
1
1.01464
1
0.995883
1
1
1
1.00032
1
1
1
1
1
1.00144
1
1
1
0.999927
1
1
1.00003
1
1
1.00034
0.539337
1.00001
0.999981
1
1
1
1
1.00113
1
1
0.999962
0.999996
1
0.999999
1
1
1
1
1.00008
1
1
0.999986
1
1
1
1
1
0.999999
1
1
1
1
1
1
1
1.00002
1
1
1
1.00002
0.999998
0.911946
1.00023
1
1
1
1
0.99997
1
1
1.00682
1.0162
1
1.03768
1
1.00055
1.00943
0.999994
1
0.609347
1
1
1
0.999999
0.999997
0.860845
1
1
1
0.999684
1
1
1
1
1.00008
1
1
1
1.00003
1
1.00001
1
1
0.999934
0.999998
0.993542
1.01691
1
1
0.75858
1
1
1
1
1.01682
1
1
1
1
1
0.996884
1.00409
1
1
1
0.986808
1.01296
1
1
0.989023
1
0.998438
1.00399
1
1
1.00002
1
1.0247
1.00001
1
1.00329
1
1.00704
0.996046
1
0.999774
1.00161
1.00001
0.988253
1
1
1
1
1
1
1.00005
0.994623
1.00005
0.999553
1
1
0.999978
1.00688
1
1
1
1
1
1
1.00001
1
1
1
0.999998
1
1
1
1
0.374493
1
1
1
0.999998
1
1
1
1
1
1.01333
1
1
1
1.00001
1
1
1
0.712446
1
1
1
1
1
0.999999
0.999331
1
0.999373
1
1
0.99987
1
1
1
1.00103
1
0.999998
1.00001
1
0.988556
0.292025
1.00093
1.08471
1
1
1.00008
1.02917
1.00006
1
1
1
1.01409
1
1
1
1.00046
1
1
1.00001
0.999998
1
1
1
1.00115
1
1.00002
1
1
0.65942
1
1.00001
1.01694
0.999998
1
1
1
1
1
1
1.05223
1
1
1
1
0.93426
1
1
0.999985
1
1
1
0.883336
1
1
0.999999
1.00691
1.03415
1
1
1
1
1
1.06428
0.980169
0.999999
1
1
1
1
0.999989
1
1.01011
1
1
1.00006
0.999969
1
1
1
1.00013
1
1
0.999999
1
1
1
1.00003
0.999999
0.99999
1
1
1
0.790271
1
1.00001
1.00032
1
1.01853
1.00711
1
1
1
1.00006
1
0.954449
1
1.00002
1
0.999673
1
1.00001
1.00211
0.999999
1.00122
1
1.00387
1.00157
1
1
1
1
0.999995
1
1.00018
1
1.00036
1.01417
1
1
0.912269
1
1
1
1
1.00002
1.02909
1.00025
1
1.05294
1
1
1.00054
1
1
1
0.895941
1
1
1
1
1
0.999127
1.00007
1
1
1.03409
1.00268
1
0.999943
0.999881
1.00416
1
0.999999
1.00001
1
1
0.999991
1
0.726853
0.999922
1
1
1
1.00005
1.00006
0.999999
1
0.999965
1
0.999426
0.999916
0.999998
1
0.999967
1.0065
1
1
0.661411
1
1
1.00017
1
1
1.00024
1
0.969945
1.00006
0.986705
1
0.387182
1.00045
1
1
0.919453
0.721333
0.999988
0.523829
0.837535
1
1.00021
1
1.01784
1
1
1
1
1.00852
1
0.996726
1
0.999989
1
1
1.00526
1
1
0.999966
0.476521
1
0.999596
1.00086
1
1
1
1.00009
1
1.07298
1
0.786184
1.00748
0.999996
0.999996
1
0.959178
1.00057
1
1
1.00008
1.00085
1
1
0.999947
1.00007
1.03712
1
1.00005
1
1.03656
1
1.00001
1
1.00649
1
1.02685
1.00007
1
1.00004
1
0.999996
1.00037
1.02072
1
1.01395
1
1
0.999999
0.999998
1
1
1
1
1.00021
1
0.999991
1
1
0.944128
1.00002
0.999998
1.00002
1
1
1
0.984321
1
1
1
0.999999
1
1.00023
1
1
1.00124
1
1.00089
1
1.00138
1.04356
0.281155
1
1
1
1
1
1.0001
1.02829
1
0.999813
0.999929
0.920517
1
0.999984
1
1
1
1.02474
1
0.99981
0.999991
1
1.00115
0.999641
1
1
1.00671
0.999978
1.00002
1.00042
1
0.999995
1
1
1.01433
1
1
1
1
1
1
1
0.982036
1
1
0.789711
1
1
0.999993
1
1
1.02394
1
1
1
1
1.00071
1
1.00007
1.0262
1
1
1
0.999982
1
1
1
0.941517
1.03865
1
1.04108
0.99999
1
1
1.00317
1.00031
1.04829
1.00001
0.999999
1
1
1
1
1
1
1
1
1.00548
0.986646
1.00026
1
0.999116
1.00174
1
1
0.999998
1
0.999991
1
1.00469
1
1
0.999996
1
1
0.997286
1
1
1
1
1
1
1.00065
1
1
1
1.00013
1
1
0.999996
1.0006
1
0.999999
1
1
1
1.01269
1.00005
1
1
1
1
1
1.00733
0.999636
1
0.999993
1
0.999959
1.00124
1
0.999992
1
0.999157
1
1
1
1.00012
1
1.00001
0.997404
1.01281
1
1
0.995556
0.980874
0.971023
1
1
1
1
0.999999
1
1
1
1.00032
1.00013
0.999958
1
1
1.00001
1
1
1
1
1.0002
1
1
1.00061
1.04676
1
1.00463
1.00126
1
1
1
1
0.999352
1
1
1
1
1
1
1
0.999995
1
1
1
1.00001
1.00003
1
1
1
1.00906
1
1.00088
1.00185
1
1
1
1
1
1.00001
1
0.770096
0.999289
1
0.9999
1.00001
0.999876
1.01937
0.997168
1
1
1.00001
1
0.999985
1
1
1
1
0.971159
1.00015
1
1
1
1
1
1.04148
1
1
1
1
1.0169
0.999999
1
1
1.02311
1
1.00372
1.01179
1.06859
1
0.9997
1
1
1
0.537896
1
1
0.999995
1
1.00766
1
1.00002
0.995045
1
1
1
1.00001
0.999955
1.00026
1
1.01581
1
1
1
0.999988
1
1
1
1
1
1
1.01064
1
1
1
0.999981
1
1
1
1
1.00013
1.00108
1
0.999614
1
0.999949
1.02197
1
1.10945
1.00023
0.466898
1.00001
0.999841
0.999968
0.741467
1
0.999949
1
0.995413
1
0.999965
1.00153
1.0001
0.991254
1
1
1
0.99996
0.989285
1
1.00001
1
1.00004
1
1
1
1
1
1
1.02018
1
0.999997
1.00006
1
1
1.01326
1
0.999995
0.999997
1
1
1.07888
1
1.00059
1.00001
1
1
0.977298
0.999999
1
1
1
1
1
0.710018
1
1
1.00036
1.00575
0.999999
1
1.00003
1.00001
1.00038
1.00008
1
1
1
1.00455
1
1
1
1.03357
1.03398
1.00003
1
1
1
1
1
1
1.00001
1.0003
1
1
1
1
0.999939
1.03175
1.00082
1
1.00003
1
0.999999
0.999996
1
1.00001
1
1.00024
1
1
1
1
1
0.999999
0.999888
1
1
1.00003
1.00032
1
1
1
1
1
1
1.00001
1.00773
1.00611
1
1
1
1
1.00002
0.987505
1.00005
1
1.00036
1
1
1
1.02388
1
1
1.00155
1
1
1
1.03143
1
1.0001
1.01862
1.00346
1
1.02637
0.410901
1.00076
1
1
1
1.00428
0.98308
1
1.00034
1
1
1.00378
1
1
1.0027
1.00002
1
1
1.00299
0.999564
1.00229
1.00004
1
1.00009
1.00219
1
1
1
1
1
1.00333
1
1
0.999985
1.07843
1
1
1
1
1
1.00002
1
1.00183
1.00026
1
0.999967
1.01327
1
1.01829
0.999781
1
1.00427
0.403555
1.04216
1
1
1
1
1
1
1.0025
0.999999
0.999983
1.00192
1
1.00023
1.02097
1
1
0.999998
0.999245
1.01613
1
1
1.0387
1
1
1
1
1
1.00429
1
1
1
1.00007
1
1
1
1
1
1
1
0.99717
1
1
1
1
1
0.999992
1
1
1
1
0.999765
1
1
1
1
1.00036
1
1.00446
1
1
1
1.00267
0.999988
1
1.02835
1
1.00006
1
1
1.03774
1
1
0.999999
1
1
1.00462
1.01722
1.09586
0.753874
1
1
1
1.00001
1.00072
1
1.0014
0.999993
1
0.934144
0.682898
0.999999
1
1
1
0.999966
1
0.999762
1
0.999956
1
1
1
0.962501
1
1
1
0.999999
1.00027
1
1
1
1
1
1
1.00667
1.01583
1
1
1
1.02655
1
1
1
1.00011
1.00048
0.999993
1
1.03575
0.999999
1
1
1
0.999995
0.999904
0.999999
1
1
1
1
1.00307
1
1
1
1
1
1
1.00001
1.02103
1
1.00047
0.968069
0.901671
1
1
1
1
1.00082
1
1
1.03999
1
1
0.999246
1
0.924942
0.999973
1
1
0.999996
1
1
1
1
1.01172
1
1
1
1
1
1
1.00184
0.993416
1
1
0.70151
0.999998
1
1
1.02172
0.446855
1
1
0.999991
1.00108
1
1
1
0.999049
1
0.921476
1
1
1
1
1.00019
1
1.00001
1.06769
1
1
1
1.02154
1
1
1
1.00861
0.999998
1
1
1.00089
1
1
0.913029
1
1
0.999995
1.02325
1
1
1
1
1.0246
1
1.00061
1.00001
1.00006
0.999996
1
1
0.888237
1
1.01361
1
1
1
1.0002
1
1
1
1
1
1.00481
1.00028
1
1.00347
1
0.624825
1
1
1
0.999601
1.0131
1
0.999999
1
1.00048
1
1
1
1.01572
1
1.01218
1
0.999921
1
1
1
1
1
1
0.999998
1
0.999999
1
1.11043
1
1
0.687467
1
1
1.03395
0.999999
0.993036
0.298821
1
1
1.00063
1
1
1
1
1
1
0.999965
1
1.00058
1.07262
0.999788
1
1
1
1
1
1.00001
0.999994
1
1
1
1.01925
1
1
1
0.340634
1
1
1
1
1
0.995139
1
1
1
1
1.00498
1
1
0.999995
0.749551
1
1.00014
1
1
1
1
0.999818
0.818554
1.01233
1
0.993095
1
1
1
1
0.999976
1.00001
1
1
1.00569
1
0.999999
1.00003
1
0.999999
1
1.04807
1.00001
1
0.999598
1.00003
1.00013
1.00003
1.01066
1
1
1
1
0.570302
1
1.01406
1
0.992264
1.00933
1
1
1
1
1
0.998777
1
1.0092
1
0.999965
0.999999
1
1.0006
0.999988
1
1
1
1.00003
0.999951
1
0.999978
1.01387
1
1
1
1
1.00538
0.999975
1
1.00041
1
1
1
1
1
1.01046
1.00118
1
1.00333
1.01782
1.00003
1
0.999973
1.01358
1.00064
0.804237
1
1
1.00029
1.00005
1.00039
1.00004
1
0.999996
1
1
1
1
1
1.00002
1.0005
1
1
1
1
1.00001
1
1
1
1
1
1
0.999985
1
1.00069
1.00015
1.00023
1
1
1
1.00032
0.999992
1
1
1
1
0.999983
1.01425
1
0.99999
1
1
1
0.990627
1
1.00001
1
1
0.999978
0.999989
1
1.00033
1
1
1
1
1.00663
1
1.00002
1
1
1.00373
1
1
1
0.918097
0.994093
0.999999
1
1.00004
1.00514
0.328989
0.999993
0.999991
1.00316
1
1
1.00098
1.00024
1
1
0.999998
0.997732
1.00137
1
0.99862
0.999991
1
0.99162
1
1
1.06303
0.355845
0.999993
1
1
0.999998
0.999985
1
1
0.999998
0.999991
1
1.00006
0.999976
1
1.01556
1
1
1
0.999998
1
0.999952
1.00001
1
1
0.47681
1
1
1
0.640145
1
1
1.00322
1
1
1.00189
1
1
1
1
1
1.01331
1
1
1
1
1.00004
1
1.00019
1.00147
1
1
0.999999
1
1
1
0.906701
0.864755
1.04544
0.999993
1
1
1
1
1.00006
1
1
1
1.00004
0.998308
1
0.997249
1
1
1
1
1
1