/*--------------------------------*- C++ -*----------------------------------*\
  =========                 |
  \\      /  F ield         | OpenFOAM: The Open Source CFD Toolbox
   \\    /   O peration     | Website:  https://openfoam.org
    \\  /    A nd           | Version:  6
     \\/     M anipulation  |
\*---------------------------------------------------------------------------*/
FoamFile
{
    version     2.0;
    format      ascii;
    class       volScalarField;
    location    "2.21";
    object      p;
}
// * * * * * * * * * * * * * * * * * * * * * * * * * * * * * * * * * * * * * //

dimensions      [0 2 -2 0 0 0 0];

internalField   nonuniform List<scalar> 
4214
(
-0.252158
-0.224881
-0.172915
-0.12839
-0.105878
-0.0935374
-0.0843001
-0.0741141
-0.0639126
-0.0538167
-0.0429862
-0.0306189
-0.0164136
-0.00130218
0.00938934
0.0179765
0.0241567
0.031645
0.0458019
0.0947503
0.130323
0.129282
0.0993991
0.0683219
0.0500466
0.0335491
0.0207162
0.00947655
0.000182433
-0.00754727
-0.0148243
-0.0203043
-0.0253804
-0.0317941
-0.0401725
-0.0486241
-0.0598512
-0.0825495
-0.134895
-0.200934
-0.236473
-0.246988
-0.248268
-0.240533
-0.205508
-0.178881
-0.161902
-0.14623
-0.128686
-0.109224
-0.0876253
-0.0636252
-0.0372618
-0.00870592
0.0201738
0.0510293
0.0804278
0.113642
0.146076
0.175348
0.209094
0.207931
0.198316
0.16992
0.129124
0.0906532
0.057397
0.0320048
0.00977
-0.00987681
-0.0257679
-0.0405602
-0.0534722
-0.0654748
-0.0784057
-0.0923124
-0.106167
-0.123417
-0.155525
-0.204725
-0.22056
-0.215725
-0.405508
-0.387595
-0.377774
-0.344039
-0.309283
-0.281883
-0.25534
-0.226554
-0.194949
-0.159772
-0.120393
-0.076581
-0.0290333
0.0203988
0.0751387
0.126691
0.182456
0.237685
0.293775
0.343897
0.357312
0.34632
0.294045
0.220157
0.155823
0.100457
0.0547999
0.0149899
-0.019319
-0.0472037
-0.0717723
-0.0934569
-0.11381
-0.134845
-0.157118
-0.180776
-0.209773
-0.254072
-0.307637
-0.329047
-0.357196
-0.528077
-0.502298
-0.489496
-0.456478
-0.420285
-0.388491
-0.356041
-0.319849
-0.279169
-0.233043
-0.180484
-0.121039
-0.0556201
0.0151515
0.0878883
0.167535
0.248758
0.326887
0.414522
0.46918
0.484599
0.473504
0.401639
0.301432
0.213609
0.137371
0.0716938
0.0149343
-0.0317865
-0.0716806
-0.105351
-0.134976
-0.162616
-0.190306
-0.218937
-0.249536
-0.286565
-0.337293
-0.393802
-0.425645
-0.474858
-0.645436
-0.621485
-0.608922
-0.575486
-0.53783
-0.502826
-0.465782
-0.42352
-0.375071
-0.319162
-0.254282
-0.179544
-0.0955206
-0.0029279
0.0924772
0.196502
0.306676
0.407738
0.530892
0.596767
0.621633
0.630339
0.514184
0.389994
0.272297
0.173206
0.0863698
0.0120103
-0.0484556
-0.0992915
-0.142128
-0.17956
-0.214133
-0.248029
-0.282581
-0.319582
-0.363592
-0.419697
-0.479422
-0.521057
-0.58216
-0.75673
-0.735307
-0.724899
-0.692796
-0.655449
-0.61954
-0.580319
-0.534288
-0.480196
-0.416425
-0.340895
-0.252082
-0.149759
-0.0341134
0.0874738
0.217232
0.357205
0.497305
0.643373
0.722412
0.757103
0.786785
0.625732
0.47257
0.328506
0.205449
0.0971227
0.00635415
-0.0683385
-0.130176
-0.181978
-0.226913
-0.267949
-0.307475
-0.347266
-0.389694
-0.439251
-0.499428
-0.561489
-0.609906
-0.679368
-0.867031
-0.849196
-0.842077
-0.812964
-0.777245
-0.741929
-0.702333
-0.654459
-0.596648
-0.526877
-0.44245
-0.340976
-0.221617
-0.0846013
0.0653042
0.226927
0.399681
0.593483
0.750701
0.848047
0.892051
0.907821
0.733846
0.552059
0.382374
0.234124
0.105052
-0.003152
-0.0916405
-0.164533
-0.225179
-0.277368
-0.324483
-0.369229
-0.413798
-0.460959
-0.515082
-0.578368
-0.641922
-0.69473
-0.768295
-0.978474
-0.963028
-0.960262
-0.935887
-0.903274
-0.869979
-0.831728
-0.784025
-0.724666
-0.651032
-0.559807
-0.447442
-0.312439
-0.153245
0.0260497
0.222811
0.432154
0.67312
0.865413
0.979373
1.03368
1.03219
0.842052
0.630592
0.433144
0.259596
0.11077
-0.0160424
-0.118797
-0.202709
-0.272068
-0.331277
-0.384141
-0.433723
-0.482564
-0.533722
-0.59144
-0.656833
-0.721026
-0.776248
-0.85139
-1.09215
-1.07881
-1.0808
-1.06197
-1.03371
-1.00391
-0.968554
-0.922838
-0.864346
-0.78948
-0.694194
-0.573243
-0.424659
-0.243025
-0.0336925
0.203348
0.456062
0.740428
0.988283
1.11687
1.18775
1.17731
0.955528
0.710289
0.481504
0.283936
0.110506
-0.0333536
-0.150403
-0.245298
-0.323289
-0.389301
-0.447602
-0.501651
-0.554271
-0.608735
-0.669118
-0.735737
-0.799941
-0.85589
-0.929534
-1.20986
-1.19738
-1.20341
-1.19091
-1.16747
-1.14248
-1.11244
-1.0704
-1.01523
-0.942214
-0.846678
-0.720503
-0.562443
-0.360127
-0.125008
0.163838
0.472042
0.796512
1.11042
1.26122
1.35691
1.32219
1.07401
0.790271
0.529594
0.303392
0.105589
-0.0560482
-0.187453
-0.293353
-0.379856
-0.4524
-0.515795
-0.573908
-0.629816
-0.686931
-0.74913
-0.816327
-0.880314
-0.936259
-1.00764
-1.32942
-1.31523
-1.32349
-1.32369
-1.30445
-1.2852
-1.26252
-1.22713
-1.1778
-1.1088
-1.01668
-0.890091
-0.730643
-0.512111
-0.261618
0.0771237
0.443713
0.83425
1.24519
1.41795
1.54655
1.4685
1.19169
0.86875
0.569214
0.313322
0.0932123
-0.0859237
-0.231596
-0.348259
-0.442939
-0.521673
-0.589847
-0.651681
-0.710482
-0.769733
-0.833104
-0.900505
-0.964395
-1.02035
-1.09013
-1.44944
-1.43466
-1.4451
-1.45264
-1.44609
-1.43309
-1.41814
-1.39165
-1.35034
-1.28918
-1.20244
-1.07991
-0.928149
-0.699432
-0.4498
-0.04704
0.372606
0.851359
1.36659
1.57771
1.7499
1.60859
1.29794
0.929044
0.596654
0.313314
0.0701079
-0.125934
-0.28517
-0.411871
-0.514281
-0.598816
-0.671422
-0.736615
-0.79794
-0.85893
-0.923084
-0.990616
-1.05485
-1.1113
-1.18061
-1.56938
-1.55757
-1.56966
-1.58332
-1.58995
-1.58755
-1.58062
-1.56441
-1.5338
-1.48243
-1.40701
-1.28904
-1.14712
-0.907999
-0.659239
-0.176064
0.253647
0.830854
1.4583
1.709
1.9275
1.73129
1.39472
0.988779
0.610765
0.300453
0.0320592
-0.17963
-0.350912
-0.486629
-0.59619
-0.686104
-0.762893
-0.831197
-0.894809
-0.957245
-1.02195
-1.08965
-1.15456
-1.21206
-1.28143
-1.69387
-1.68966
-1.70368
-1.72229
-1.73747
-1.74732
-1.75105
-1.7468
-1.72836
-1.69267
-1.63484
-1.52342
-1.39925
-1.13771
-0.897245
-0.348057
0.0924433
0.801759
1.52624
1.80606
2.06237
1.84058
1.49198
1.04961
0.607121
0.269416
-0.0236714
-0.249463
-0.432051
-0.576322
-0.692112
-0.786841
-0.867196
-0.93812
-1.00374
-1.06751
-1.13275
-1.20064
-1.26641
-1.32584
-1.39586
-1.82158
-1.82853
-1.84883
-1.87261
-1.8953
-1.91475
-1.92918
-1.93899
-1.93007
-1.91872
-1.87443
-1.79688
-1.73824
-1.45728
-1.31751
-0.627548
-0.216139
0.780251
1.65585
1.9513
2.22875
1.94915
1.4885
1.03329
0.54783
0.204209
-0.105604
-0.340747
-0.533605
-0.684008
-0.80591
-0.905227
-0.989159
-1.06269
-1.13019
-1.19512
-1.26097
-1.32898
-1.39605
-1.4587
-1.52902
-1.94967
-1.97406
-2.00267
-2.03465
-2.06474
-2.09358
-2.1177
-2.13663
-2.13187
-2.14952
-2.10326
-2.11691
-2.17802
-1.97458
-2.07435
-1.06842
-0.918276
0.769876
1.97473
2.20198
2.47775
1.95346
1.34164
0.901384
0.373548
0.0691535
-0.247049
-0.47485
-0.671933
-0.819313
-0.947614
-1.04537
-1.13412
-1.20751
-1.278
-1.34249
-1.40973
-1.4766
-1.54775
-1.61161
-1.68479
-2.07255
-2.12101
-2.16169
-2.20566
-2.24711
-2.28283
-2.31949
-2.34336
-2.3451
-2.38196
-2.33753
-2.41661
-2.55992
-2.51412
-2.75272
-1.54904
-1.61452
0.520236
2.12545
2.26034
2.47364
1.82706
1.07627
0.681587
0.128307
-0.135606
-0.431715
-0.660184
-0.849352
-0.998408
-1.12685
-1.22566
-1.31538
-1.38725
-1.46262
-1.52326
-1.5986
-1.65856
-1.74313
-1.79488
-1.88385
-1.9482
-1.77524
-1.62834
-1.50095
-1.39065
-1.29261
-1.20434
-1.12376
-1.0492
-0.978589
-0.909178
-0.835802
-0.753262
-0.665696
-0.56509
-0.48505
-0.401999
-2.04106
-1.86567
-1.72176
-1.59843
-1.49232
-1.39776
-1.31239
-1.23428
-1.16188
-1.09428
-1.03109
-0.968442
-0.900116
-0.826239
-0.73572
-0.661784
-0.545058
-2.0978
-1.94779
-1.81636
-1.69956
-1.5978
-1.50676
-1.42454
-1.34911
-1.27902
-1.21381
-1.1528
-1.09442
-1.03696
-0.976192
-0.899498
-0.837822
-0.723805
-2.18616
-2.03498
-1.90904
-1.79853
-1.70263
-1.61639
-1.53824
-1.46616
-1.39908
-1.33665
-1.27756
-1.22098
-1.16838
-1.11577
-1.05261
-1.00209
-0.901475
-2.22204
-2.10413
-1.99604
-1.89596
-1.80711
-1.72644
-1.65293
-1.58479
-1.52141
-1.46227
-1.40562
-1.35179
-1.30231
-1.25216
-1.19815
-1.15864
-1.07348
-2.29779
-2.17932
-2.08063
-1.98794
-1.90679
-1.83311
-1.76532
-1.7021
-1.64339
-1.58825
-1.53496
-1.48497
-1.43883
-1.39064
-1.343
-1.3089
-1.23568
-2.30575
-2.2237
-2.146
-2.06915
-1.99759
-1.93247
-1.87194
-1.81518
-1.76225
-1.71188
-1.66304
-1.6178
-1.57533
-1.53053
-1.48876
-1.45601
-1.39144
-2.33741
-2.26427
-2.19979
-2.13725
-2.07723
-2.0209
-1.96886
-1.9197
-1.87344
-1.82888
-1.78568
-1.74595
-1.70763
-1.66736
-1.632
-1.60056
-1.5442
-2.33238
-2.28144
-2.23389
-2.18673
-2.14043
-2.09564
-2.0518
-2.01094
-1.97306
-1.93589
-1.89951
-1.86608
-1.83263
-1.79804
-1.76983
-1.74017
-1.69201
-2.31584
-2.27944
-2.24216
-2.20895
-2.1779
-2.14724
-2.11622
-2.08603
-2.05652
-2.02699
-1.99877
-1.97257
-1.94511
-1.91751
-1.89652
-1.87057
-1.83257
-2.29111
-2.259
-2.23068
-2.20619
-2.18397
-2.16342
-2.14448
-2.12584
-2.10717
-2.0886
-2.07097
-2.05352
-2.03391
-2.01386
-2.00077
-1.98139
-1.95372
-2.23736
-2.21875
-2.19829
-2.18276
-2.17013
-2.15617
-2.14235
-2.13009
-2.11968
-2.11063
-2.10258
-2.09403
-2.08406
-2.07545
-2.06867
-2.05764
-2.04317
-2.17434
-2.16752
-2.15684
-2.14581
-2.13496
-2.12624
-2.12128
-2.11879
-2.11549
-2.11139
-2.10683
-2.10187
-2.09786
-2.09529
-2.09319
-2.09105
-2.08973
-2.0819
-2.07906
-2.07718
-2.07523
-2.07342
-2.07169
-2.06965
-2.06733
-2.06691
-2.06791
-2.07056
-2.07256
-2.07493
-2.07691
-2.07847
-2.08106
-2.08626
-1.94321
-1.95663
-1.96386
-1.9682
-1.97234
-1.976
-1.97924
-1.98225
-1.98556
-1.98878
-1.99071
-1.99349
-2.0009
-2.0082
-2.0135
-2.02031
-2.03188
-1.83366
-1.826
-1.82382
-1.82509
-1.82866
-1.83349
-1.83965
-1.84638
-1.85321
-1.86038
-1.86777
-1.87584
-1.88283
-1.89056
-1.89826
-1.91
-1.92267
-1.58232
-1.60792
-1.63104
-1.64357
-1.647
-1.64922
-1.65235
-1.65947
-1.6669
-1.67546
-1.68436
-1.69268
-1.70263
-1.71265
-1.71956
-1.73657
-1.74613
-1.44448
-1.42953
-1.42573
-1.42552
-1.4277
-1.43214
-1.43546
-1.43781
-1.44017
-1.44234
-1.44585
-1.45175
-1.46172
-1.46928
-1.47379
-1.49111
-1.48877
-1.15553
-1.16052
-1.16253
-1.16202
-1.16074
-1.15943
-1.15819
-1.15754
-1.15804
-1.15929
-1.16044
-1.16166
-1.16386
-1.16404
-1.16302
-1.17915
-1.17012
-0.968929
-0.935696
-0.913524
-0.895679
-0.881233
-0.868795
-0.858164
-0.849308
-0.841601
-0.834703
-0.828736
-0.823828
-0.820877
-0.817808
-0.813359
-0.826419
-0.808384
-0.604727
-0.60267
-0.594357
-0.579377
-0.563201
-0.546737
-0.530822
-0.515179
-0.50003
-0.486005
-0.47343
-0.462458
-0.453779
-0.445928
-0.434931
-0.438365
-0.406012
-0.414346
-0.354905
-0.313999
-0.277928
-0.246744
-0.218372
-0.192199
-0.167766
-0.144863
-0.123385
-0.103168
-0.0832177
-0.0638838
-0.0453466
-0.0198147
-0.0212512
0.0260718
-0.0372385
-0.00993382
0.0203363
0.056094
0.0914075
0.126073
0.159524
0.191817
0.223045
0.253341
0.2828
0.311881
0.340142
0.365767
0.399905
0.402384
0.464916
0.178207
0.264563
0.324727
0.378183
0.426032
0.471385
0.51474
0.556619
0.597223
0.636152
0.673515
0.709755
0.744183
0.774207
0.812314
0.821698
0.896093
0.570163
0.612733
0.659931
0.716368
0.770709
0.823231
0.8732
0.921091
0.966987
1.01104
1.05332
1.09413
1.13347
1.16872
1.21391
1.228
1.30923
0.798491
0.905345
0.980985
1.04904
1.10945
1.16669
1.22061
1.27182
1.32044
1.36673
1.4109
1.45319
1.49422
1.53121
1.57791
1.59501
1.6789
1.19253
1.24774
1.30863
1.37635
1.43862
1.49735
1.55195
1.60324
1.65148
1.697
1.74007
1.78093
1.82069
1.85648
1.90151
1.9183
2.00182
1.4208
1.54245
1.62178
1.69189
1.75272
1.80947
1.86178
1.91047
1.95581
1.99821
2.03803
2.07559
2.11226
2.14524
2.18751
2.20495
2.2854
1.80843
1.86535
1.92585
1.99029
2.04727
2.09961
2.14709
2.19079
2.23113
2.26859
2.30362
2.33664
2.36909
2.39858
2.43748
2.45537
2.53103
2.02989
2.143
2.21216
2.27079
2.32029
2.36527
2.40571
2.4426
2.47641
2.50768
2.53695
2.56469
2.59228
2.61809
2.65273
2.67109
2.74151
2.38544
2.43096
2.47972
2.52804
2.56871
2.60475
2.6366
2.6654
2.6917
2.71609
2.73914
2.76135
2.784
2.80645
2.83678
2.85544
2.92031
2.59618
2.68134
2.72735
2.7633
2.7922
2.81751
2.83957
2.85943
2.87778
2.89517
2.91207
2.9289
2.94704
2.96651
2.99318
3.01225
3.07102
2.90347
2.92613
2.95078
2.97324
2.98974
3.00348
3.01519
3.02586
3.03637
3.0472
3.05851
3.07043
3.08462
3.10142
3.12487
3.14435
3.19657
3.09556
3.13927
3.15184
3.15809
3.16031
3.16242
3.16464
3.16739
3.17099
3.17537
3.18165
3.18946
3.20026
3.2144
3.23515
3.25435
3.29852
3.34031
3.3319
3.32273
3.31415
3.30507
3.29692
3.29029
3.2856
3.28312
3.28313
3.2851
3.28868
3.29658
3.30837
3.32667
3.34406
3.38033
3.49916
3.48976
3.4684
3.44705
3.42688
3.40916
3.39434
3.38279
3.37465
3.37
3.36873
3.3702
3.37519
3.38514
3.40108
3.41598
3.44524
3.67045
3.63031
3.59284
3.55977
3.52957
3.50328
3.48114
3.4635
3.45031
3.44143
3.43676
3.43637
3.43877
3.44657
3.45938
3.47189
3.49582
3.79478
3.7478
3.69823
3.65489
3.61615
3.58276
3.55464
3.5321
3.51475
3.50226
3.49445
3.49138
3.49215
3.49653
3.50499
3.5141
3.53329
3.90676
3.84504
3.78458
3.73278
3.68672
3.64747
3.61454
3.58813
3.56729
3.55178
3.54141
3.536
3.53495
3.53671
3.54127
3.54775
3.56095
3.99997
3.92642
3.85565
3.79605
3.74386
3.69939
3.6613
3.62974
3.60488
3.58602
3.57287
3.56516
3.56201
3.56206
3.56402
3.57088
3.58197
3.26086
3.52995
3.8153
4.04196
4.25798
4.43097
4.56505
4.67387
4.74039
4.79891
4.82462
4.84831
4.84885
4.85257
4.83252
4.82203
4.78333
4.75899
4.71357
4.68173
4.63433
4.60407
4.56006
4.53427
4.49904
4.47749
4.45375
4.43594
4.41865
4.40181
4.38694
4.37107
4.35576
4.33957
4.3189
4.29893
4.26738
4.23802
4.18921
4.14257
4.07169
3.25841
3.49107
3.71776
3.9263
4.11331
4.27347
4.40296
4.50855
4.58129
4.63766
4.67382
4.69887
4.70991
4.71287
4.70887
4.69676
4.6729
4.64649
4.61442
4.58288
4.54928
4.51704
4.48511
4.4561
4.42933
4.40532
4.38436
4.36526
4.34797
4.33218
4.31643
4.30042
4.28372
4.26551
4.24469
4.22034
4.19076
4.15551
4.11146
4.06015
3.99477
3.23032
3.42877
3.62434
3.80897
3.97831
4.12558
4.25111
4.35263
4.43251
4.49022
4.53241
4.56151
4.57956
4.58782
4.58771
4.58263
4.56771
4.54695
4.52206
4.49621
4.4695
4.4414
4.41358
4.38702
4.36304
4.34116
4.32137
4.30337
4.28683
4.27122
4.25596
4.23987
4.22198
4.20196
4.17898
4.15222
4.12039
4.08273
4.03711
3.98444
3.91873
3.18954
3.35969
3.52976
3.69631
3.85071
3.98925
4.10961
4.21034
4.29217
4.35595
4.40282
4.4363
4.45929
4.47295
4.47789
4.47621
4.47054
4.45702
4.43861
4.41807
4.39696
4.37352
4.34913
4.32559
4.30421
4.28439
4.26603
4.24902
4.233
4.21747
4.20188
4.18556
4.16765
4.1468
4.12225
4.09347
4.0596
4.02005
3.97303
3.91986
3.854
3.15337
3.301
3.44734
3.59518
3.73692
3.86696
3.98244
4.08191
4.16491
4.23199
4.28443
4.32336
4.34995
4.36806
4.37814
4.38125
4.37935
4.37408
4.36308
4.34802
4.33078
4.312
4.29117
4.27096
4.25204
4.2342
4.21736
4.20142
4.18598
4.17055
4.15455
4.13738
4.11831
4.09669
4.07155
4.04175
4.0063
3.96516
3.9168
3.8633
3.79713
3.1203
3.25152
3.38019
3.50965
3.63743
3.7589
3.86923
3.96656
4.04999
4.11947
4.17559
4.21949
4.25218
4.27425
4.2885
4.29629
4.29872
4.29719
4.29294
4.28502
4.27234
4.25687
4.23948
4.22258
4.20609
4.19009
4.17468
4.1597
4.14476
4.12935
4.11292
4.09486
4.07456
4.05137
4.02458
3.9936
3.95761
3.91592
3.86695
3.81348
3.74788
3.09125
3.20903
3.32397
3.43995
3.55368
3.66489
3.76954
3.86396
3.9469
4.01785
4.07694
4.12474
4.16217
4.19017
4.2097
4.22119
4.22766
4.22985
4.22902
4.22616
4.22019
4.20817
4.1936
4.17984
4.16578
4.15151
4.13736
4.12318
4.10857
4.09306
4.07612
4.05718
4.03565
4.01097
3.98252
3.9498
3.91208
3.86922
3.81998
3.7677
3.70413
3.06803
3.17369
3.27656
3.38164
3.485
3.58569
3.68295
3.77385
3.85543
3.92694
3.98813
4.03918
4.08063
4.11324
4.13788
4.15525
4.16634
4.1717
4.17383
4.17356
4.17182
4.16559
4.15372
4.14232
4.13049
4.1178
4.10465
4.09103
4.07656
4.06077
4.04319
4.02325
4.00036
3.97401
3.9438
3.90949
3.87069
3.82755
3.77889
3.72837
3.66735
3.05155
3.14604
3.23797
3.33294
3.42731
3.52
3.60951
3.69524
3.77501
3.84632
3.9088
3.9624
4.00732
4.04401
4.07311
4.09532
4.11133
4.12172
4.12745
4.12914
4.12916
4.1278
4.11967
4.10999
4.09995
4.08856
4.07604
4.0626
4.04794
4.0316
4.01307
3.99179
3.96737
3.93954
3.908
3.87265
3.83334
3.79042
3.74301
3.69475
3.63738
3.04158
3.12557
3.20768
3.29334
3.37924
3.46459
3.5479
3.62803
3.7043
3.77529
3.83854
3.89405
3.94186
3.98218
4.01536
4.04185
4.06224
4.07708
4.08692
4.09233
4.09428
4.09405
4.09048
4.08265
4.07399
4.0636
4.05142
4.03777
4.02249
4.0051
3.98518
3.96248
3.93666
3.90747
3.87483
3.83879
3.79949
3.75736
3.71193
3.6665
3.61375
3.03725
3.11114
3.18447
3.26168
3.33992
3.41839
3.49588
3.57131
3.64367
3.71225
3.77628
3.83354
3.88382
3.92725
3.96404
3.99447
4.01891
4.03778
4.05153
4.06059
4.06541
4.06637
4.06539
4.05948
4.05173
4.04195
4.02996
4.0159
3.99966
3.98091
3.95951
3.93523
3.90792
3.8775
3.84405
3.80774
3.76893
3.72812
3.68532
3.6433
3.59617
3.03767
3.10189
3.16703
3.23635
3.30749
3.37961
3.45162
3.52258
3.59157
3.65774
3.72044
3.77895
3.83186
3.87824
3.91842
3.95258
3.98094
4.00371
4.02115
4.0336
4.04135
4.04465
4.04429
4.03997
4.03256
4.0226
4.01011
3.99511
3.97746
3.95722
3.93425
3.90845
3.87981
3.84845
3.81459
3.77864
3.74111
3.70244
3.66315
3.62527
3.58453
3.04059
3.09632
3.15393
3.21585
3.28032
3.34649
3.41345
3.48026
3.54603
3.60996
3.67138
3.72972
3.78417
3.83403
3.87828
3.91634
3.94849
3.9749
3.99575
4.01125
4.02161
4.0271
4.02787
4.02467
4.01754
4.00693
3.99293
3.97597
3.9564
3.93419
3.90937
3.88206
3.85233
3.82041
3.78661
3.75153
3.71584
3.68024
3.64521
3.61189
3.57772
3.04336
3.09225
3.14393
3.1999
3.25897
3.3202
3.38265
3.44561
3.50849
3.57047
3.63089
3.68909
3.74441
3.79618
3.84344
3.88557
3.92154
3.95128
3.97512
3.99325
4.00584
4.01322
4.01513
4.01281
4.00615
3.99529
3.98038
3.96159
3.93977
3.9153
3.88832
3.8592
3.82826
3.79592
3.76253
3.7287
3.69478
3.66185
3.63052
3.60109
3.57353
3.04468
3.08666
3.13334
3.18431
3.23882
3.29575
3.35434
3.41444
3.47532
3.53594
3.59572
3.65397
3.70995
3.763
3.81228
3.85705
3.89685
3.93073
3.95814
3.97915
3.99392
4.00278
4.00543
4.00249
3.99473
3.98219
3.96543
3.94511
3.92147
3.89522
3.86672
3.83633
3.80457
3.77195
3.73906
3.70675
3.67569
3.64539
3.61787
3.59278
3.57271
3.04749
3.0793
3.11823
3.16225
3.21075
3.26303
3.31885
3.37705
3.4359
3.49503
3.55409
3.61238
3.66939
3.72449
3.77696
3.82618
3.87104
3.91053
3.94345
3.96874
3.98631
3.99616
3.99886
3.99471
3.98397
3.96746
3.94653
3.92284
3.89637
3.86772
3.83765
3.8065
3.77484
3.74293
3.71128
3.6805
3.65259
3.62802
3.60724
3.59045
3.57875
3.05656
3.07877
3.11027
3.14877
3.19276
3.24115
3.29282
3.34698
3.40362
3.46216
3.52156
3.58117
3.64027
3.69796
3.75352
3.80585
3.85396
3.89685
3.93343
3.96257
3.98309
3.99397
3.99681
3.99162
3.97998
3.96234
3.93971
3.91273
3.88313
3.85168
3.81919
3.78643
3.75396
3.7225
3.69282
3.66557
3.64078
3.6198
3.60309
3.59179
3.58992
-0.428323
-0.501152
-0.591919
-0.691697
-0.78782
-0.884616
-0.981364
-1.08023
-1.18092
-1.28156
-1.38079
-1.48428
-1.59007
-1.70458
-1.82118
-1.93453
-2.03338
-0.559601
-0.659747
-0.736857
-0.826137
-0.908874
-0.994004
-1.0792
-1.16638
-1.25543
-1.34523
-1.43616
-1.53217
-1.6289
-1.72575
-1.81886
-1.91272
-1.99209
-0.705738
-0.803253
-0.867464
-0.944883
-1.01645
-1.09055
-1.16552
-1.24262
-1.32196
-1.40233
-1.48472
-1.57025
-1.65405
-1.7355
-1.81455
-1.89395
-1.96447
-0.839537
-0.924927
-0.980261
-1.04731
-1.10948
-1.17378
-1.24013
-1.30886
-1.37994
-1.45257
-1.52797
-1.60275
-1.67449
-1.74125
-1.80824
-1.87753
-1.93626
-0.957709
-1.0317
-1.07802
-1.13504
-1.18896
-1.24492
-1.30442
-1.36627
-1.42987
-1.49557
-1.56262
-1.62702
-1.68788
-1.74412
-1.80108
-1.85712
-1.90407
-1.05972
-1.12343
-1.16181
-1.21077
-1.25909
-1.30941
-1.36368
-1.41901
-1.47497
-1.53484
-1.59281
-1.64689
-1.69657
-1.74389
-1.79125
-1.83661
-1.87529
-1.14709
-1.20489
-1.23861
-1.28147
-1.3259
-1.37143
-1.4196
-1.46787
-1.51869
-1.57127
-1.61947
-1.66357
-1.70186
-1.74088
-1.77694
-1.81745
-1.85169
-1.22661
-1.27992
-1.31099
-1.34837
-1.3892
-1.42953
-1.47069
-1.51402
-1.55986
-1.60283
-1.64086
-1.67294
-1.70316
-1.73235
-1.76332
-1.79759
-1.82487
-1.30084
-1.3498
-1.37882
-1.41082
-1.4472
-1.48226
-1.51869
-1.55813
-1.59491
-1.62723
-1.65286
-1.67563
-1.69815
-1.72222
-1.74859
-1.77598
-1.79716
-1.37146
-1.41522
-1.44163
-1.46871
-1.50051
-1.53117
-1.56263
-1.59229
-1.61731
-1.63687
-1.65398
-1.67202
-1.69113
-1.71165
-1.73237
-1.75189
-1.76747
-1.43968
-1.4772
-1.49968
-1.52068
-1.54807
-1.57192
-1.59222
-1.60954
-1.62366
-1.63707
-1.65115
-1.66652
-1.68253
-1.69781
-1.7118
-1.72491
-1.73319
-1.50223
-1.52875
-1.54758
-1.56241
-1.57781
-1.59118
-1.60187
-1.61245
-1.62388
-1.63498
-1.64644
-1.65756
-1.6675
-1.6765
-1.68507
-1.69285
-1.69949
-1.5472
-1.56125
-1.57244
-1.57958
-1.58642
-1.59518
-1.60412
-1.612
-1.6195
-1.62733
-1.63356
-1.63876
-1.64318
-1.64683
-1.64994
-1.65228
-1.65584
-1.57447
-1.57776
-1.5826
-1.5869
-1.59131
-1.59571
-1.59858
-1.60204
-1.60559
-1.6077
-1.6087
-1.60883
-1.60836
-1.60752
-1.60644
-1.60473
-1.60229
-1.58719
-1.58646
-1.58588
-1.58462
-1.58186
-1.58035
-1.57976
-1.57792
-1.57486
-1.57058
-1.56628
-1.56193
-1.55776
-1.55474
-1.5528
-1.5528
-1.55698
-1.57671
-1.56745
-1.55836
-1.55198
-1.54573
-1.5396
-1.53205
-1.52391
-1.51574
-1.50757
-1.49977
-1.49247
-1.48727
-1.48457
-1.48349
-1.48302
-1.48516
-1.52044
-1.50546
-1.49169
-1.48293
-1.47089
-1.45886
-1.44802
-1.43747
-1.42724
-1.41761
-1.41014
-1.40539
-1.40314
-1.40204
-1.39973
-1.39573
-1.39114
-1.40193
-1.38916
-1.37107
-1.36059
-1.34908
-1.33674
-1.32634
-1.31755
-1.31105
-1.30741
-1.30629
-1.3064
-1.30591
-1.30552
-1.30796
-1.31322
-1.32369
-1.20732
-1.20897
-1.19278
-1.18607
-1.17976
-1.17326
-1.17006
-1.16955
-1.16976
-1.17068
-1.17164
-1.17323
-1.17713
-1.18253
-1.19012
-1.19989
-1.2143
-0.95742
-0.965721
-0.958326
-0.960994
-0.964444
-0.968277
-0.973384
-0.978631
-0.984907
-0.993157
-1.00245
-1.01275
-1.02386
-1.03525
-1.04631
-1.05434
-1.05651
-0.642319
-0.671871
-0.678464
-0.695149
-0.708679
-0.722749
-0.738541
-0.755742
-0.77388
-0.793195
-0.813641
-0.835252
-0.858146
-0.882475
-0.90884
-0.936301
-0.970609
-0.274564
-0.332218
-0.34981
-0.389432
-0.421967
-0.454083
-0.48529
-0.515894
-0.546685
-0.57786
-0.609715
-0.642337
-0.675856
-0.710598
-0.747759
-0.788785
-0.839855
0.121574
0.0345444
0.00741842
-0.052346
-0.103025
-0.154478
-0.206602
-0.256518
-0.303942
-0.349574
-0.394434
-0.43925
-0.484332
-0.529312
-0.573018
-0.61093
-0.636882
0.512627
0.401984
0.362859
0.291029
0.226691
0.161164
0.0942287
0.0270642
-0.0399734
-0.10494
-0.166578
-0.226353
-0.286196
-0.3473
-0.410224
-0.473173
-0.543516
0.880296
0.754884
0.702379
0.626442
0.553645
0.477622
0.39955
0.319614
0.23823
0.156161
0.0753913
-0.00106044
-0.0751215
-0.148864
-0.22425
-0.305223
-0.409008
1.21717
1.08824
1.02758
0.944623
0.866358
0.783803
0.698648
0.610129
0.518413
0.423941
0.327713
0.233215
0.143013
0.05517
-0.0311023
-0.111058
-0.176138
1.5085
1.3818
1.31947
1.23486
1.15531
1.07083
0.98306
0.890541
0.793019
0.69048
0.583676
0.473838
0.367537
0.263428
0.157533
0.052697
-0.0602021
1.7611
1.6388
1.57763
1.49517
1.41749
1.33465
1.24802
1.15562
1.05667
0.950486
0.837167
0.717599
0.5972
0.480638
0.364206
0.24214
0.0805724
1.98167
1.8664
1.8063
1.72756
1.65333
1.5743
1.49138
1.4023
1.30572
1.20026
1.08523
0.960581
0.828301
0.699195
0.572258
0.446257
0.338015
2.17426
2.06673
2.00895
1.93497
1.86477
1.79054
1.71283
1.62928
1.53796
1.43685
1.32448
1.19957
1.06122
0.921721
0.780929
0.634211
0.478363
2.34129
2.24254
2.18791
2.11967
2.05454
1.986
1.91417
1.83696
1.75249
1.65847
1.55235
1.43142
1.2936
1.14808
1.00193
0.847404
0.6316
2.4852
2.3963
2.34515
2.28317
2.22375
2.16168
2.09678
2.0271
1.95058
1.86489
1.76743
1.6547
1.52304
1.37411
1.22297
1.07017
0.925929
2.60805
2.52998
2.48274
2.4271
2.3737
2.31853
2.26122
2.19998
2.13273
2.05706
1.97011
1.86818
1.74714
1.60299
1.44875
1.28253
1.09839
2.71204
2.64514
2.6024
2.55317
2.50599
2.45789
2.40845
2.35619
2.2991
2.23477
2.16022
2.07145
1.96376
1.83285
1.68535
1.52639
1.28384
2.79917
2.74327
2.70591
2.66316
2.62203
2.58086
2.53926
2.4961
2.44957
2.39738
2.33661
2.26323
2.17207
2.05822
1.91879
1.77
1.62466
2.87159
2.82646
2.79451
2.75812
2.72274
2.68808
2.65391
2.61951
2.58344
2.54366
2.4975
2.44116
2.36924
2.27669
2.15782
2.00796
1.83578
2.93104
2.89515
2.8687
2.83923
2.80983
2.78131
2.75394
2.72764
2.70151
2.674
2.64277
2.60427
2.55305
2.48588
2.40231
2.27418
2.05578
2.97781
2.9508
2.93094
2.90924
2.88662
2.86457
2.84398
2.8254
2.80863
2.79281
2.77603
2.75531
2.7257
2.68481
2.63061
2.53853
2.45081
3.01352
2.99734
2.98373
2.96946
2.9544
2.93981
2.92682
2.91621
2.90835
2.90333
2.89968
2.89596
2.88839
2.87414
2.84683
2.7863
2.72343
3.04022
3.03056
3.02223
3.01462
3.00666
2.99911
2.99371
2.991
2.99166
2.99677
3.00609
3.01871
3.03225
3.04433
3.05219
3.03768
2.94529
-2.21781
-2.34271
-2.44604
-2.55312
-2.60727
-2.58951
-2.61522
-1.74984
-0.513044
1.51069
1.55464
0.626646
-0.275549
-0.86531
-1.20693
-1.43073
-1.59678
-1.7306
-1.85902
-1.99835
-2.33063
-2.48527
-2.62137
-2.76289
-2.83424
-2.88795
-2.85406
-2.25337
-0.991513
0.945691
0.803365
0.121817
-0.625795
-1.14662
-1.45397
-1.6524
-1.80266
-1.92574
-2.03353
-2.15364
-2.45922
-2.64339
-2.8145
-2.98854
-3.08237
-3.22752
-3.10075
-2.77406
-1.4561
0.0499318
-0.286813
-0.691263
-1.16165
-1.52976
-1.76753
-1.92288
-2.04612
-2.15293
-2.24055
-2.33587
-2.61025
-2.82409
-3.03116
-3.23338
-3.3573
-3.5693
-3.35866
-3.29018
-1.96016
-1.18753
-1.81559
-1.97253
-1.92134
-2.05306
-2.17495
-2.26214
-2.33985
-2.4188
-2.48474
-2.55031
-2.78492
-3.03034
-3.2748
-3.50209
-3.6617
-3.86641
-3.63692
-3.75945
-2.54747
-2.73927
-3.79006
-3.81972
-2.97006
-2.77505
-2.71254
-2.69671
-2.70328
-2.73779
-2.77255
-2.80831
-2.98984
-3.26768
-3.55206
-3.80291
-3.99072
-4.15358
-3.96314
-4.1961
-3.3058
-4.49038
-6.16668
-6.25693
-4.48051
-3.8142
-3.43529
-3.25915
-3.15677
-3.12648
-3.11235
-3.11746
-3.23087
-3.54182
-3.87144
-4.14322
-4.35288
-4.49652
-4.35465
-4.61304
-4.19752
-6.36026
-8.76328
-9.04188
-6.49541
-5.24432
-4.39946
-3.98069
-3.73919
-3.61111
-3.52223
-3.47784
-3.51034
-3.86213
-4.24175
-4.53378
-4.78545
-4.88863
-4.82116
-5.03786
-5.16098
-8.16148
-11.2656
-11.8656
-9.03382
-6.97259
-5.62964
-4.88694
-4.47169
-4.2164
-4.02223
-3.90069
-3.83693
-4.23832
-4.66802
-4.98415
-5.30124
-5.29404
-5.3857
-5.55529
-6.16295
-9.72731
-13.4996
-14.4485
-11.8736
-8.9065
-7.14917
-6.01738
-5.37559
-4.96471
-4.62753
-4.39631
-4.22353
-4.68359
-5.16193
-5.50714
-5.88817
-5.80297
-6.10348
-6.28227
-7.25944
-10.9946
-15.257
-16.5637
-14.6418
-11.1656
-8.97251
-7.40706
-6.47079
-5.86379
-5.34437
-4.9923
-4.68663
-5.21797
-5.75844
-6.16244
-6.52927
-6.58462
-7.03138
-7.34062
-8.49401
-11.971
-16.3287
-18.0664
-16.9492
-13.7659
-10.9077
-9.00875
-7.75603
-6.89071
-6.18982
-5.7007
-5.24168
-5.86002
-6.49083
-7.01968
-7.32477
-7.71907
-8.21907
-8.72198
-9.85685
-12.8096
-16.9103
-18.8966
-18.5519
-16.1403
-13.0516
-10.774
-9.20074
-8.06063
-7.16598
-6.5256
-5.90343
-6.63734
-7.37652
-7.98215
-8.55001
-9.20984
-9.7717
-10.3522
-11.2719
-13.5221
-17.0494
-19.128
-19.2928
-17.847
-15.3106
-12.6948
-10.8119
-9.42105
-8.28463
-7.47593
-6.71178
-7.63329
-8.59729
-9.323
-10.2871
-11.0928
-11.6363
-12.0449
-12.5871
-13.997
-16.565
-18.5988
-19.1354
-18.3946
-16.879
-14.6838
-12.5677
-10.8997
-9.55876
-8.55447
-7.83865
-9.02117
-10.3568
-11.511
-12.4728
-13.2015
-13.5106
-13.5586
-13.6143
-14.1816
-15.6825
-17.462
-18.295
-17.9
-16.9631
-15.6663
-14.0928
-12.4784
-10.9987
-9.78089
-9.57217
-11.069
-12.9018
-13.977
-14.7043
-15.1616
-15.0438
-14.6943
-14.2239
-14.1369
-14.7882
-15.9712
-16.8763
-16.7334
-16.1627
-15.2938
-14.2745
-13.2529
-12.2701
-11.1216
-12.3877
-13.6064
-15.3674
-16.1914
-16.4599
-16.3367
-15.8609
-15.1499
-14.3221
-13.7977
-13.8251
-14.317
-14.9862
-15.112
-14.8157
-14.2492
-13.5037
-12.812
-12.3512
-11.8055
-15.721
-15.9814
-16.7507
-17.0855
-16.9859
-16.5726
-15.8835
-14.9301
-13.9295
-13.1396
-12.811
-12.774
-13.0539
-13.3597
-13.318
-13.0311
-12.5797
-12.0752
-11.8284
-11.7759
-17.2337
-16.4152
-16.3519
-16.6057
-16.6074
-16.0229
-15.2
-14.2148
-13.1815
-12.2921
-11.7442
-11.5531
-11.5763
-11.8357
-12.057
-12.0875
-11.9757
-11.7107
-11.4163
-11.1726
-17.4358
-16.3275
-15.8138
-15.7285
-15.4208
-14.8869
-14.1461
-13.2236
-12.2311
-11.3317
-10.657
-10.2985
-10.1811
-10.1937
-10.4236
-10.7352
-10.9877
-11.1445
-11.2628
-11.3737
-11.4585
-9.83263
-10.4136
-10.2691
-9.95577
-9.08409
-8.07878
-7.14367
-6.30284
-5.56449
-4.92131
-4.36929
-3.90315
-3.51466
-3.18407
-2.9022
-2.66431
-2.46413
-2.29289
-2.14639
-11.323
-9.5519
-10.2073
-9.74835
-9.21839
-8.47705
-7.63583
-6.82158
-6.07191
-5.40449
-4.81811
-4.31128
-3.88016
-3.51773
-3.2157
-2.96121
-2.74612
-2.56513
-2.40873
-2.27324
-11.214
-9.52765
-9.98671
-9.30562
-8.60263
-7.91368
-7.19511
-6.48403
-5.81925
-5.22274
-4.69466
-4.2345
-3.83901
-3.50197
-3.21841
-2.9839
-2.79221
-2.63055
-2.48676
-2.35978
-11.0738
-9.69189
-9.91385
-8.9382
-8.14384
-7.42344
-6.7526
-6.11946
-5.52814
-4.99792
-4.52851
-4.11857
-3.7619
-3.45288
-3.18902
-2.97081
-2.78989
-2.6392
-2.50712
-2.39378
-10.8322
-9.7892
-9.81099
-8.57958
-7.68662
-6.95715
-6.30417
-5.72495
-5.19267
-4.71929
-4.30286
-3.9384
-3.62691
-3.3533
-3.11295
-2.91189
-2.7453
-2.6037
-2.4795
-2.38375
-10.4571
-9.74573
-9.62007
-8.21972
-7.20062
-6.48198
-5.84046
-5.29779
-4.81112
-4.3831
-4.00943
-3.68304
-3.40204
-3.17573
-2.97666
-2.78896
-2.6383
-2.51341
-2.40695
-2.32434
-9.95206
-9.51121
-9.28331
-7.84468
-6.69816
-5.97772
-5.35204
-4.83725
-4.3863
-3.99415
-3.65474
-3.36114
-3.10904
-2.89728
-2.72449
-2.58959
-2.46988
-2.34817
-2.22797
-2.13228
-9.32176
-8.99438
-8.77167
-7.32565
-6.13392
-5.42814
-4.82628
-4.33581
-3.91711
-3.5571
-3.24722
-2.97995
-2.75005
-2.55309
-2.38427
-2.2404
-2.12423
-2.03818
-1.95383
-1.8568
-8.62484
-8.25328
-8.01015
-6.63399
-5.49732
-4.80001
-4.22407
-3.75918
-3.36924
-3.03792
-2.75493
-2.51173
-2.30247
-2.12255
-1.96735
-1.83431
-1.7258
-1.63645
-1.54046
-1.45206
-7.93131
-7.41313
-7.04448
-5.80626
-4.745
-4.06989
-3.52268
-3.08674
-2.72661
-2.4243
-2.16867
-1.9506
-1.76315
-1.60148
-1.46214
-1.34336
-1.24321
-1.15496
-1.07876
-1.03077
-7.27647
-6.64209
-5.94877
-4.8157
-3.86784
-3.22817
-2.70974
-2.30399
-1.97502
-1.70406
-1.47944