/*--------------------------------*- C++ -*----------------------------------*\
  =========                 |
  \\      /  F ield         | OpenFOAM: The Open Source CFD Toolbox
   \\    /   O peration     | Website:  https://openfoam.org
    \\  /    A nd           | Version:  6
     \\/     M anipulation  |
\*---------------------------------------------------------------------------*/
FoamFile
{
    version     2.0;
    format      ascii;
    class       volVectorField;
    location    "4.74";
    object      U;
}
// * * * * * * * * * * * * * * * * * * * * * * * * * * * * * * * * * * * * * //

dimensions      [0 1 -1 0 0 0 0];

internalField   nonuniform List<vector> 
5625
(
(0.895534 0.446772 0)
(0.895187 0.446913 0)
(0.894947 0.447009 0)
(0.894781 0.447073 0)
(0.894667 0.447115 0)
(0.894589 0.447144 0)
(0.894535 0.447162 0)
(0.894496 0.447174 0)
(0.894469 0.447182 0)
(0.89445 0.447188 0)
(0.894435 0.447191 0)
(0.894426 0.447194 0)
(0.894418 0.447196 0)
(0.894413 0.447197 0)
(0.894409 0.447198 0)
(0.894406 0.447199 0)
(0.894404 0.447199 0)
(0.894404 0.4472 0)
(0.894402 0.4472 0)
(0.894401 0.447199 0)
(0.894401 0.4472 0)
(0.8944 0.4472 0)
(0.8944 0.447199 0)
(0.8944 0.4472 0)
(0.8944 0.4472 0)
(0.8944 0.4472 0)
(0.8944 0.4472 0)
(0.894401 0.4472 0)
(0.894399 0.4472 0)
(0.894401 0.4472 0)
(0.894399 0.447199 0)
(0.894401 0.447202 0)
(0.894399 0.447199 0)
(0.894402 0.4472 0)
(0.894398 0.4472 0)
(0.894401 0.4472 0)
(0.894399 0.4472 0)
(0.8944 0.4472 0)
(0.894399 0.4472 0)
(0.894401 0.4472 0)
(0.8944 0.447201 0)
(0.8944 0.447198 0)
(0.8944 0.447201 0)
(0.8944 0.4472 0)
(0.894402 0.447201 0)
(0.894399 0.447199 0)
(0.894404 0.447202 0)
(0.894402 0.4472 0)
(0.894406 0.447201 0)
(0.894407 0.447203 0)
(0.894411 0.447199 0)
(0.894416 0.447204 0)
(0.894424 0.447206 0)
(0.894431 0.447207 0)
(0.894444 0.447208 0)
(0.894453 0.447211 0)
(0.894467 0.447215 0)
(0.894476 0.447214 0)
(0.894475 0.447213 0)
(0.894461 0.447207 0)
(0.894411 0.447187 0)
(0.894306 0.447148 0)
(0.894111 0.447074 0)
(0.893769 0.446945 0)
(0.893212 0.446725 0)
(0.89234 0.446373 0)
(0.891015 0.445831 0)
(0.889087 0.445011 0)
(0.88639 0.443823 0)
(0.882802 0.442194 0)
(0.878414 0.440114 0)
(0.873707 0.437756 0)
(0.8695 0.435503 0)
(0.866604 0.43377 0)
(0.865465 0.432801 0)
(0.895407 0.446797 0)
(0.895101 0.446929 0)
(0.894889 0.447018 0)
(0.894743 0.447078 0)
(0.894642 0.447118 0)
(0.894572 0.447144 0)
(0.894523 0.447162 0)
(0.894489 0.447174 0)
(0.894464 0.447182 0)
(0.894446 0.447188 0)
(0.894433 0.447191 0)
(0.894424 0.447194 0)
(0.894417 0.447196 0)
(0.894412 0.447197 0)
(0.894408 0.447198 0)
(0.894406 0.447199 0)
(0.894404 0.447199 0)
(0.894403 0.4472 0)
(0.894402 0.447199 0)
(0.894401 0.4472 0)
(0.894401 0.4472 0)
(0.8944 0.4472 0)
(0.8944 0.4472 0)
(0.8944 0.4472 0)
(0.8944 0.4472 0)
(0.8944 0.4472 0)
(0.8944 0.4472 0)
(0.8944 0.4472 0)
(0.8944 0.4472 0)
(0.8944 0.4472 0)
(0.8944 0.4472 0)
(0.8944 0.4472 0)
(0.894399 0.4472 0)
(0.894401 0.4472 0)
(0.894399 0.447199 0)
(0.894401 0.447201 0)
(0.894398 0.4472 0)
(0.894402 0.4472 0)
(0.894398 0.4472 0)
(0.8944 0.447199 0)
(0.894401 0.447201 0)
(0.8944 0.447199 0)
(0.894401 0.4472 0)
(0.894399 0.4472 0)
(0.894402 0.447201 0)
(0.8944 0.4472 0)
(0.894403 0.447201 0)
(0.894402 0.447201 0)
(0.894406 0.447199 0)
(0.894406 0.447204 0)
(0.894412 0.447201 0)
(0.894414 0.447203 0)
(0.894423 0.447206 0)
(0.89443 0.447207 0)
(0.89444 0.44721 0)
(0.894454 0.447212 0)
(0.894463 0.447215 0)
(0.894475 0.447218 0)
(0.894479 0.447219 0)
(0.894468 0.447212 0)
(0.894431 0.447199 0)
(0.894346 0.447166 0)
(0.894183 0.447102 0)
(0.893894 0.446988 0)
(0.893413 0.446794 0)
(0.892658 0.446477 0)
(0.891508 0.445981 0)
(0.889811 0.445232 0)
(0.887412 0.444133 0)
(0.884172 0.442593 0)
(0.880082 0.440574 0)
(0.875479 0.438183 0)
(0.871086 0.435753 0)
(0.867735 0.433719 0)
(0.865991 0.432408 0)
(0.895289 0.446824 0)
(0.895021 0.446946 0)
(0.894835 0.447029 0)
(0.894707 0.447084 0)
(0.894618 0.447121 0)
(0.894556 0.447146 0)
(0.894512 0.447163 0)
(0.894481 0.447174 0)
(0.894459 0.447182 0)
(0.894443 0.447188 0)
(0.894431 0.447191 0)
(0.894422 0.447194 0)
(0.894416 0.447196 0)
(0.894411 0.447197 0)
(0.894408 0.447198 0)
(0.894406 0.447199 0)
(0.894404 0.447199 0)
(0.894403 0.447199 0)
(0.894402 0.4472 0)
(0.894401 0.4472 0)
(0.894401 0.4472 0)
(0.8944 0.4472 0)
(0.8944 0.4472 0)
(0.8944 0.4472 0)
(0.8944 0.4472 0)
(0.8944 0.4472 0)
(0.8944 0.4472 0)
(0.8944 0.447201 0)
(0.8944 0.447199 0)
(0.894399 0.4472 0)
(0.894401 0.447201 0)
(0.894399 0.447199 0)
(0.894401 0.447201 0)
(0.894399 0.4472 0)
(0.8944 0.4472 0)
(0.8944 0.4472 0)
(0.894399 0.4472 0)
(0.894401 0.4472 0)
(0.8944 0.447201 0)
(0.8944 0.447199 0)
(0.8944 0.4472 0)
(0.8944 0.447201 0)
(0.8944 0.447199 0)
(0.8944 0.447201 0)
(0.894401 0.4472 0)
(0.894401 0.4472 0)
(0.894402 0.4472 0)
(0.894404 0.447201 0)
(0.894403 0.447201 0)
(0.894408 0.447201 0)
(0.89441 0.447204 0)
(0.894414 0.447203 0)
(0.89442 0.447205 0)
(0.89443 0.447207 0)
(0.894437 0.44721 0)
(0.89445 0.447214 0)
(0.894462 0.447216 0)
(0.894473 0.44722 0)
(0.894481 0.447221 0)
(0.894473 0.44722 0)
(0.894448 0.447208 0)
(0.89438 0.447182 0)
(0.894242 0.44713 0)
(0.894003 0.447028 0)
(0.893596 0.446859 0)
(0.892944 0.44658 0)
(0.891952 0.44613 0)
(0.890477 0.445452 0)
(0.888364 0.444448 0)
(0.885471 0.443015 0)
(0.881724 0.44109 0)
(0.877317 0.438719 0)
(0.872839 0.436163 0)
(0.869107 0.433852 0)
(0.866784 0.432181 0)
(0.89518 0.446851 0)
(0.894947 0.446963 0)
(0.894785 0.447039 0)
(0.894673 0.44709 0)
(0.894595 0.447125 0)
(0.894541 0.447148 0)
(0.894502 0.447164 0)
(0.894475 0.447174 0)
(0.894454 0.447182 0)
(0.89444 0.447187 0)
(0.894429 0.447192 0)
(0.894421 0.447194 0)
(0.894415 0.447196 0)
(0.89441 0.447197 0)
(0.894407 0.447198 0)
(0.894405 0.447198 0)
(0.894404 0.447199 0)
(0.894402 0.447199 0)
(0.894402 0.4472 0)
(0.894401 0.4472 0)
(0.894401 0.4472 0)
(0.894401 0.4472 0)
(0.8944 0.4472 0)
(0.8944 0.4472 0)
(0.8944 0.4472 0)
(0.8944 0.4472 0)
(0.8944 0.4472 0)
(0.8944 0.4472 0)
(0.8944 0.4472 0)
(0.894399 0.4472 0)
(0.894401 0.4472 0)
(0.894399 0.4472 0)
(0.894401 0.447199 0)
(0.894399 0.4472 0)
(0.894401 0.4472 0)
(0.894399 0.4472 0)
(0.894401 0.447201 0)
(0.894399 0.447199 0)
(0.894401 0.447201 0)
(0.8944 0.447201 0)
(0.894399 0.447198 0)
(0.894401 0.447201 0)
(0.894399 0.447201 0)
(0.894401 0.447199 0)
(0.8944 0.447201 0)
(0.894401 0.4472 0)
(0.894401 0.447201 0)
(0.894404 0.4472 0)
(0.894402 0.447202 0)
(0.894408 0.4472 0)
(0.894408 0.447205 0)
(0.894413 0.447204 0)
(0.894419 0.447203 0)
(0.894427 0.447208 0)
(0.894436 0.447211 0)
(0.894446 0.447214 0)
(0.894461 0.447217 0)
(0.894471 0.447223 0)
(0.894478 0.447223 0)
(0.894478 0.447225 0)
(0.89446 0.447217 0)
(0.894406 0.447196 0)
(0.894295 0.447153 0)
(0.894095 0.447067 0)
(0.893756 0.446919 0)
(0.893202 0.446675 0)
(0.89235 0.446278 0)
(0.891078 0.445667 0)
(0.889239 0.444759 0)
(0.886685 0.443448 0)
(0.883306 0.441644 0)
(0.879176 0.439341 0)
(0.874728 0.436723 0)
(0.870711 0.43418 0)
(0.867854 0.432155 0)
(0.895082 0.446879 0)
(0.89488 0.446981 0)
(0.89474 0.44705 0)
(0.894643 0.447097 0)
(0.894575 0.447128 0)
(0.894527 0.44715 0)
(0.894493 0.447165 0)
(0.894467 0.447175 0)
(0.89445 0.447183 0)
(0.894436 0.447187 0)
(0.894426 0.447191 0)
(0.894419 0.447194 0)
(0.894413 0.447195 0)
(0.89441 0.447197 0)
(0.894406 0.447198 0)
(0.894405 0.447198 0)
(0.894403 0.447199 0)
(0.894402 0.447199 0)
(0.894402 0.447199 0)
(0.894401 0.4472 0)
(0.894401 0.4472 0)
(0.8944 0.4472 0)
(0.894401 0.4472 0)
(0.8944 0.4472 0)
(0.8944 0.4472 0)
(0.8944 0.4472 0)
(0.8944 0.4472 0)
(0.894401 0.4472 0)
(0.8944 0.447201 0)
(0.8944 0.4472 0)
(0.8944 0.4472 0)
(0.8944 0.447201 0)
(0.894399 0.447199 0)
(0.894401 0.4472 0)
(0.894399 0.4472 0)
(0.8944 0.4472 0)
(0.8944 0.4472 0)
(0.8944 0.447199 0)
(0.8944 0.4472 0)
(0.894401 0.4472 0)
(0.894399 0.4472 0)
(0.8944 0.447198 0)
(0.8944 0.447202 0)
(0.8944 0.447199 0)
(0.894401 0.447201 0)
(0.8944 0.4472 0)
(0.894402 0.4472 0)
(0.894403 0.4472 0)
(0.894404 0.447202 0)
(0.894404 0.447202 0)
(0.89441 0.4472 0)
(0.894412 0.447206 0)
(0.894418 0.447205 0)
(0.894424 0.447207 0)
(0.894435 0.447212 0)
(0.894443 0.447213 0)
(0.894457 0.447219 0)
(0.894468 0.447223 0)
(0.894477 0.447227 0)
(0.894481 0.447228 0)
(0.894467 0.447225 0)
(0.894427 0.447208 0)
(0.894341 0.447173 0)
(0.894175 0.447104 0)
(0.893891 0.446975 0)
(0.893428 0.446761 0)
(0.892703 0.446417 0)
(0.891617 0.445876 0)
(0.890032 0.445063 0)
(0.887804 0.443879 0)
(0.884801 0.442217 0)
(0.88101 0.440028 0)
(0.876707 0.437416 0)
(0.872524 0.434705 0)
(0.869208 0.432349 0)
(0.894992 0.446907 0)
(0.894819 0.446998 0)
(0.894698 0.447061 0)
(0.894614 0.447103 0)
(0.894556 0.447133 0)
(0.894513 0.447152 0)
(0.894483 0.447166 0)
(0.894461 0.447176 0)
(0.894445 0.447183 0)
(0.894433 0.447188 0)
(0.894424 0.447192 0)
(0.894417 0.447194 0)
(0.894412 0.447196 0)
(0.894408 0.447197 0)
(0.894406 0.447198 0)
(0.894404 0.447199 0)
(0.894403 0.447199 0)
(0.894402 0.447199 0)
(0.894401 0.4472 0)
(0.894401 0.447199 0)
(0.8944 0.4472 0)
(0.8944 0.4472 0)
(0.8944 0.4472 0)
(0.8944 0.4472 0)
(0.894401 0.4472 0)
(0.8944 0.4472 0)
(0.8944 0.4472 0)
(0.8944 0.4472 0)
(0.894399 0.4472 0)
(0.894401 0.4472 0)
(0.894399 0.447199 0)
(0.894401 0.447201 0)
(0.894399 0.447199 0)
(0.894401 0.4472 0)
(0.894398 0.4472 0)
(0.894402 0.4472 0)
(0.894398 0.4472 0)
(0.894402 0.447199 0)
(0.894399 0.447201 0)
(0.8944 0.447199 0)
(0.894401 0.447201 0)
(0.8944 0.447199 0)
(0.894401 0.4472 0)
(0.894399 0.4472 0)
(0.894402 0.447199 0)
(0.8944 0.447202 0)
(0.894403 0.4472 0)
(0.8944 0.4472 0)
(0.894405 0.447202 0)
(0.894404 0.447203 0)
(0.894409 0.4472 0)
(0.894409 0.447203 0)
(0.894418 0.447208 0)
(0.894423 0.447206 0)
(0.89443 0.44721 0)
(0.894441 0.447215 0)
(0.894452 0.447219 0)
(0.894466 0.447224 0)
(0.894475 0.447228 0)
(0.89448 0.44723 0)
(0.894475 0.447231 0)
(0.894444 0.44722 0)
(0.894375 0.44719 0)
(0.894243 0.447135 0)
(0.894011 0.447029 0)
(0.893623 0.446844 0)
(0.893014 0.446544 0)
(0.892092 0.446072 0)
(0.890739 0.445354 0)
(0.888819 0.444295 0)
(0.886191 0.442793 0)
(0.882777 0.440757 0)
(0.87872 0.438215 0)
(0.874505 0.435413 0)
(0.870838 0.432779 0)
(0.894912 0.446933 0)
(0.894764 0.447015 0)
(0.894661 0.447072 0)
(0.894589 0.44711 0)
(0.894538 0.447137 0)
(0.894501 0.447155 0)
(0.894475 0.447168 0)
(0.894455 0.447177 0)
(0.89444 0.447184 0)
(0.89443 0.447188 0)
(0.894421 0.447192 0)
(0.894416 0.447194 0)
(0.894411 0.447197 0)
(0.894408 0.447197 0)
(0.894405 0.447198 0)
(0.894404 0.447199 0)
(0.894402 0.447199 0)
(0.894402 0.4472 0)
(0.894401 0.447199 0)
(0.894401 0.4472 0)
(0.894401 0.4472 0)
(0.8944 0.4472 0)
(0.8944 0.4472 0)
(0.8944 0.4472 0)
(0.8944 0.4472 0)
(0.8944 0.4472 0)
(0.8944 0.4472 0)
(0.8944 0.4472 0)
(0.8944 0.4472 0)
(0.8944 0.4472 0)
(0.8944 0.4472 0)
(0.8944 0.447199 0)
(0.8944 0.447201 0)
(0.8944 0.447199 0)
(0.8944 0.4472 0)
(0.894401 0.447201 0)
(0.894399 0.447199 0)
(0.894401 0.4472 0)
(0.894399 0.4472 0)
(0.894401 0.447199 0)
(0.8944 0.4472 0)
(0.894399 0.447201 0)
(0.894401 0.447198 0)
(0.8944 0.447202 0)
(0.8944 0.4472 0)
(0.894401 0.447199 0)
(0.894402 0.447202 0)
(0.894401 0.4472 0)
(0.894403 0.4472 0)
(0.894405 0.447203 0)
(0.894407 0.447203 0)
(0.894409 0.447201 0)
(0.894414 0.447206 0)
(0.894422 0.447208 0)
(0.894427 0.447209 0)
(0.894437 0.447215 0)
(0.894449 0.447217 0)
(0.89446 0.447225 0)
(0.894474 0.44723 0)
(0.894478 0.447233 0)
(0.894477 0.447234 0)
(0.894457 0.447229 0)
(0.894405 0.447208 0)
(0.894298 0.447161 0)
(0.894108 0.447074 0)
(0.893791 0.44692 0)
(0.893285 0.446661 0)
(0.892508 0.446254 0)
(0.891364 0.445625 0)
(0.889726 0.444693 0)
(0.887455 0.443353 0)
(0.884441 0.441497 0)
(0.880714 0.439091 0)
(0.876597 0.436283 0)
(0.87271 0.433444 0)
(0.89484 0.446959 0)
(0.894715 0.447032 0)
(0.894627 0.447082 0)
(0.894566 0.447117 0)
(0.894522 0.447141 0)
(0.89449 0.447158 0)
(0.894467 0.44717 0)
(0.89445 0.447178 0)
(0.894436 0.447184 0)
(0.894427 0.447189 0)
(0.89442 0.447192 0)
(0.894414 0.447195 0)
(0.89441 0.447196 0)
(0.894407 0.447198 0)
(0.894405 0.447198 0)
(0.894404 0.447199 0)
(0.894402 0.4472 0)
(0.894402 0.447199 0)
(0.894401 0.4472 0)
(0.894401 0.4472 0)
(0.894401 0.4472 0)
(0.8944 0.4472 0)
(0.894401 0.4472 0)
(0.8944 0.4472 0)
(0.8944 0.447199 0)
(0.8944 0.4472 0)
(0.8944 0.4472 0)
(0.8944 0.4472 0)
(0.8944 0.4472 0)
(0.8944 0.4472 0)
(0.894401 0.4472 0)
(0.894399 0.447199 0)
(0.894401 0.447201 0)
(0.894399 0.4472 0)
(0.894401 0.4472 0)
(0.894399 0.447199 0)
(0.894401 0.4472 0)
(0.894398 0.447201 0)
(0.894402 0.447199 0)
(0.894398 0.447201 0)
(0.894401 0.447199 0)
(0.894401 0.447202 0)
(0.894398 0.447199 0)
(0.894402 0.4472 0)
(0.8944 0.447201 0)
(0.894401 0.447198 0)
(0.8944 0.447202 0)
(0.894403 0.4472 0)
(0.8944 0.447201 0)
(0.894406 0.447201 0)
(0.894404 0.447203 0)
(0.894411 0.447204 0)
(0.894412 0.447204 0)
(0.894419 0.447206 0)
(0.894427 0.447212 0)
(0.894433 0.447212 0)
(0.894446 0.447218 0)
(0.894455 0.447224 0)
(0.894467 0.447229 0)
(0.894479 0.447236 0)
(0.894477 0.447237 0)
(0.894464 0.447234 0)
(0.894426 0.447222 0)
(0.894344 0.447185 0)
(0.89419 0.447113 0)
(0.893932 0.446986 0)
(0.893514 0.446768 0)
(0.892868 0.446418 0)
(0.89191 0.445878 0)
(0.890523 0.445066 0)
(0.888587 0.443884 0)
(0.885974 0.442223 0)
(0.882631 0.440005 0)
(0.878736 0.437281 0)
(0.874777 0.434328 0)
(0.894777 0.446983 0)
(0.894671 0.447048 0)
(0.894597 0.447092 0)
(0.894545 0.447124 0)
(0.894507 0.447145 0)
(0.894479 0.447161 0)
(0.89446 0.447172 0)
(0.894444 0.447179 0)
(0.894433 0.447186 0)
(0.894424 0.447189 0)
(0.894418 0.447192 0)
(0.894413 0.447195 0)
(0.894409 0.447196 0)
(0.894407 0.447197 0)
(0.894405 0.447199 0)
(0.894403 0.447198 0)
(0.894402 0.447199 0)
(0.894401 0.4472 0)
(0.894401 0.447199 0)
(0.8944 0.4472 0)
(0.8944 0.4472 0)
(0.8944 0.4472 0)
(0.8944 0.4472 0)
(0.8944 0.4472 0)
(0.894401 0.4472 0)
(0.894399 0.4472 0)
(0.8944 0.4472 0)
(0.894401 0.4472 0)
(0.894399 0.4472 0)
(0.8944 0.4472 0)
(0.894401 0.4472 0)
(0.8944 0.4472 0)
(0.8944 0.447199 0)
(0.8944 0.4472 0)
(0.894401 0.4472 0)
(0.894399 0.447199 0)
(0.8944 0.447201 0)
(0.894399 0.447199 0)
(0.894402 0.447201 0)
(0.894399 0.4472 0)
(0.8944 0.447199 0)
(0.894401 0.447199 0)
(0.894399 0.447202 0)
(0.8944 0.447198 0)
(0.8944 0.447201 0)
(0.894401 0.447201 0)
(0.8944 0.447198 0)
(0.894402 0.447202 0)
(0.894403 0.447201 0)
(0.894403 0.4472 0)
(0.894405 0.447202 0)
(0.894409 0.447205 0)
(0.894412 0.447203 0)
(0.894416 0.447206 0)
(0.894423 0.447211 0)
(0.894432 0.447212 0)
(0.894442 0.447219 0)
(0.894451 0.447224 0)
(0.894463 0.447229 0)
(0.894474 0.447234 0)
(0.894477 0.447242 0)
(0.894468 0.44724 0)
(0.894443 0.447228 0)
(0.89438 0.447206 0)
(0.894257 0.447148 0)
(0.894049 0.447042 0)
(0.89371 0.446863 0)
(0.893176 0.446567 0)
(0.892378 0.446105 0)
(0.891221 0.445405 0)
(0.889584 0.444378 0)
(0.88735 0.442919 0)
(0.884422 0.44092 0)
(0.880852 0.438355 0)
(0.876972 0.4354 0)
(0.894721 0.447006 0)
(0.894633 0.447063 0)
(0.89457 0.447102 0)
(0.894526 0.44713 0)
(0.894494 0.44715 0)
(0.89447 0.447163 0)
(0.894453 0.447174 0)
(0.894439 0.447181 0)
(0.894429 0.447186 0)
(0.894421 0.44719 0)
(0.894416 0.447193 0)
(0.894411 0.447195 0)
(0.894408 0.447197 0)
(0.894405 0.447197 0)
(0.894404 0.447199 0)
(0.894403 0.447199 0)
(0.894402 0.447199 0)
(0.894401 0.4472 0)
(0.894401 0.4472 0)
(0.8944 0.4472 0)
(0.8944 0.4472 0)
(0.8944 0.4472 0)
(0.8944 0.4472 0)
(0.8944 0.4472 0)
(0.8944 0.447199 0)
(0.8944 0.447201 0)
(0.8944 0.447199 0)
(0.8944 0.4472 0)
(0.8944 0.447201 0)
(0.8944 0.447199 0)
(0.8944 0.447199 0)
(0.894401 0.447202 0)
(0.894399 0.447199 0)
(0.894401 0.4472 0)
(0.8944 0.4472 0)
(0.8944 0.4472 0)
(0.8944 0.447199 0)
(0.8944 0.447201 0)
(0.894399 0.4472 0)
(0.894402 0.447199 0)
(0.894398 0.447202 0)
(0.8944 0.447198 0)
(0.894402 0.447201 0)
(0.894399 0.447201 0)
(0.894401 0.447198 0)
(0.894401 0.447203 0)
(0.894401 0.447199 0)
(0.8944 0.4472 0)
(0.894403 0.447202 0)
(0.894402 0.447201 0)
(0.894406 0.447202 0)
(0.894407 0.447202 0)
(0.89441 0.447205 0)
(0.894416 0.447206 0)
(0.894421 0.447208 0)
(0.894427 0.447214 0)
(0.894439 0.447216 0)
(0.894448 0.447223 0)
(0.894457 0.44723 0)
(0.894468 0.447235 0)
(0.894475 0.447241 0)
(0.894473 0.447245 0)
(0.894453 0.447238 0)
(0.894405 0.447219 0)
(0.894313 0.447176 0)
(0.894146 0.447091 0)
(0.89387 0.446945 0)
(0.893436 0.4467 0)
(0.89278 0.446307 0)
(0.891819 0.445712 0)
(0.890452 0.444831 0)
(0.888566 0.443563 0)
(0.886052 0.4418 0)
(0.882876 0.439461 0)
(0.879212 0.436609 0)
(0.894672 0.447027 0)
(0.894599 0.447077 0)
(0.894547 0.447112 0)
(0.894509 0.447136 0)
(0.894482 0.447154 0)
(0.894462 0.447166 0)
(0.894446 0.447175 0)
(0.894435 0.447183 0)
(0.894426 0.447187 0)
(0.894419 0.447191 0)
(0.894414 0.447194 0)
(0.89441 0.447195 0)
(0.894407 0.447197 0)
(0.894405 0.447198 0)
(0.894403 0.447198 0)
(0.894403 0.447199 0)
(0.894402 0.447199 0)
(0.894401 0.447199 0)
(0.894401 0.4472 0)
(0.894401 0.4472 0)
(0.8944 0.4472 0)
(0.894401 0.4472 0)
(0.894399 0.4472 0)
(0.894401 0.4472 0)
(0.8944 0.4472 0)
(0.8944 0.4472 0)
(0.894401 0.447201 0)
(0.8944 0.447199 0)
(0.894399 0.4472 0)
(0.894401 0.4472 0)
(0.894399 0.4472 0)
(0.8944 0.4472 0)
(0.894401 0.4472 0)
(0.894399 0.4472 0)
(0.894399 0.4472 0)
(0.894402 0.4472 0)
(0.894398 0.4472 0)
(0.894401 0.4472 0)
(0.8944 0.4472 0)
(0.8944 0.4472 0)
(0.8944 0.4472 0)
(0.8944 0.4472 0)
(0.894399 0.447199 0)
(0.894401 0.447202 0)
(0.8944 0.447199 0)
(0.894399 0.447199 0)
(0.894402 0.447203 0)
(0.894401 0.447198 0)
(0.894402 0.447201 0)
(0.894404 0.447201 0)
(0.894403 0.447202 0)
(0.894407 0.447202 0)
(0.894409 0.447204 0)
(0.894413 0.447207 0)
(0.894419 0.447207 0)
(0.894425 0.447212 0)
(0.894434 0.447216 0)
(0.894443 0.447221 0)
(0.894453 0.447229 0)
(0.894464 0.447235 0)
(0.894472 0.44724 0)
(0.89447 0.447246 0)
(0.89446 0.447246 0)
(0.894426 0.44723 0)
(0.894353 0.4472 0)
(0.894223 0.447134 0)
(0.894005 0.447013 0)
(0.893655 0.446813 0)
(0.893118 0.446488 0)
(0.892328 0.445986 0)
(0.891195 0.445237 0)
(0.889623 0.444151 0)
(0.887499 0.44262 0)
(0.884744 0.440544 0)
(0.881412 0.437894 0)
(0.89463 0.447047 0)
(0.894569 0.44709 0)
(0.894526 0.447121 0)
(0.894495 0.447142 0)
(0.894471 0.447158 0)
(0.894454 0.447169 0)
(0.89444 0.447177 0)
(0.894431 0.447184 0)
(0.894423 0.447188 0)
(0.894417 0.447191 0)
(0.894412 0.447194 0)
(0.894409 0.447196 0)
(0.894406 0.447197 0)
(0.894405 0.447198 0)
(0.894403 0.447198 0)
(0.894402 0.447199 0)
(0.894401 0.447199 0)
(0.894401 0.4472 0)
(0.8944 0.4472 0)
(0.894401 0.4472 0)
(0.8944 0.4472 0)
(0.8944 0.4472 0)
(0.8944 0.4472 0)
(0.894399 0.4472 0)
(0.894401 0.4472 0)
(0.894399 0.4472 0)
(0.8944 0.4472 0)
(0.8944 0.447201 0)
(0.8944 0.447199 0)
(0.8944 0.4472 0)
(0.8944 0.447201 0)
(0.8944 0.447199 0)
(0.8944 0.447201 0)
(0.8944 0.4472 0)
(0.894401 0.447199 0)
(0.894399 0.447201 0)
(0.8944 0.4472 0)
(0.8944 0.447199 0)
(0.8944 0.447201 0)
(0.8944 0.4472 0)
(0.894401 0.4472 0)
(0.8944 0.447201 0)
(0.894399 0.4472 0)
(0.894401 0.4472 0)
(0.894401 0.447202 0)
(0.8944 0.447197 0)
(0.8944 0.447202 0)
(0.894401 0.447201 0)
(0.894401 0.4472 0)
(0.894403 0.447201 0)
(0.894403 0.447202 0)
(0.894405 0.447202 0)
(0.89441 0.447204 0)
(0.89441 0.447207 0)
(0.894417 0.447206 0)
(0.894423 0.44721 0)
(0.894428 0.447217 0)
(0.89444 0.447219 0)
(0.894451 0.447226 0)
(0.894456 0.447235 0)
(0.894467 0.447241 0)
(0.894473 0.447245 0)
(0.894462 0.447247 0)
(0.894439 0.447241 0)
(0.894385 0.447217 0)
(0.894284 0.447167 0)
(0.894112 0.447072 0)
(0.893831 0.44691 0)
(0.893399 0.446644 0)
(0.892758 0.446226 0)
(0.89183 0.445596 0)
(0.890527 0.444677 0)
(0.888755 0.443368 0)
(0.886419 0.44156 0)
(0.883489 0.439181 0)
(0.894594 0.447065 0)
(0.894544 0.447102 0)
(0.894508 0.447129 0)
(0.894482 0.447148 0)
(0.894462 0.447162 0)
(0.894447 0.447172 0)
(0.894435 0.447179 0)
(0.894427 0.447185 0)
(0.89442 0.447189 0)
(0.894415 0.447192 0)
(0.89441 0.447194 0)
(0.894408 0.447196 0)
(0.894405 0.447197 0)
(0.894404 0.447198 0)
(0.894403 0.447199 0)
(0.894402 0.447199 0)
(0.894401 0.447199 0)
(0.894401 0.4472 0)
(0.8944 0.4472 0)
(0.894401 0.4472 0)
(0.8944 0.4472 0)
(0.8944 0.4472 0)
(0.8944 0.4472 0)
(0.8944 0.4472 0)
(0.8944 0.447199 0)
(0.8944 0.447201 0)
(0.8944 0.4472 0)
(0.8944 0.4472 0)
(0.8944 0.4472 0)
(0.8944 0.4472 0)
(0.8944 0.4472 0)
(0.8944 0.447201 0)
(0.8944 0.447199 0)
(0.8944 0.447201 0)
(0.894399 0.4472 0)
(0.894401 0.4472 0)
(0.8944 0.4472 0)
(0.8944 0.4472 0)
(0.894401 0.4472 0)
(0.894398 0.4472 0)
(0.894401 0.4472 0)
(0.8944 0.447199 0)
(0.8944 0.447202 0)
(0.8944 0.447198 0)
(0.894401 0.4472 0)
(0.894401 0.447202 0)
(0.8944 0.447198 0)
(0.894402 0.447203 0)
(0.894401 0.4472 0)
(0.894401 0.4472 0)
(0.894405 0.447203 0)
(0.894403 0.447202 0)
(0.894408 0.447203 0)
(0.894411 0.447205 0)
(0.894413 0.447208 0)
(0.894421 0.447209 0)
(0.894426 0.447215 0)
(0.894434 0.447219 0)
(0.894445 0.447224 0)
(0.894453 0.447233 0)
(0.89446 0.44724 0)
(0.894468 0.447245 0)
(0.894465 0.44725 0)
(0.894447 0.447246 0)
(0.894409 0.44723 0)
(0.894333 0.447195 0)
(0.894197 0.447121 0)
(0.893977 0.44699 0)
(0.893632 0.446775 0)
(0.893112 0.446434 0)
(0.892359 0.44591 0)
(0.891294 0.445139 0)
(0.889834 0.444033 0)
(0.887884 0.44249 0)
(0.885374 0.440409 0)
(0.894562 0.447081 0)
(0.894522 0.447114 0)
(0.894492 0.447136 0)
(0.89447 0.447153 0)
(0.894453 0.447165 0)
(0.894441 0.447175 0)
(0.894431 0.447181 0)
(0.894423 0.447187 0)
(0.894417 0.44719 0)
(0.894413 0.447193 0)
(0.894409 0.447195 0)
(0.894407 0.447197 0)
(0.894405 0.447198 0)
(0.894403 0.447198 0)
(0.894402 0.447199 0)
(0.894402 0.447199 0)
(0.894401 0.4472 0)
(0.894401 0.4472 0)
(0.894401 0.4472 0)
(0.8944 0.4472 0)
(0.894401 0.4472 0)
(0.8944 0.4472 0)
(0.8944 0.4472 0)
(0.8944 0.4472 0)
(0.8944 0.4472 0)
(0.8944 0.4472 0)
(0.894401 0.4472 0)
(0.894399 0.4472 0)
(0.894401 0.4472 0)
(0.8944 0.4472 0)
(0.894399 0.4472 0)
(0.894401 0.4472 0)
(0.8944 0.4472 0)
(0.8944 0.4472 0)
(0.894401 0.4472 0)
(0.894399 0.4472 0)
(0.894401 0.447201 0)
(0.894399 0.447199 0)
(0.894401 0.4472 0)
(0.8944 0.447201 0)
(0.8944 0.447199 0)
(0.8944 0.447201 0)
(0.894399 0.4472 0)
(0.894401 0.447201 0)
(0.894399 0.447199 0)
(0.894401 0.447201 0)
(0.8944 0.4472 0)
(0.894402 0.4472 0)
(0.8944 0.447202 0)
(0.894403 0.4472 0)
(0.894402 0.447202 0)
(0.894406 0.447202 0)
(0.894404 0.447203 0)
(0.89441 0.447204 0)
(0.894413 0.447207 0)
(0.894416 0.447209 0)
(0.894425 0.447212 0)
(0.894429 0.447219 0)
(0.894438 0.447223 0)
(0.89445 0.447229 0)
(0.894455 0.447238 0)
(0.894463 0.447244 0)
(0.894464 0.44725 0)
(0.894452 0.44725 0)
(0.894425 0.44724 0)
(0.894368 0.447213 0)
(0.894264 0.447161 0)
(0.894091 0.447058 0)
(0.893818 0.446883 0)
(0.893406 0.446609 0)
(0.892799 0.446182 0)
(0.891935 0.445539 0)
(0.890742 0.444617 0)
(0.889137 0.443319 0)
(0.887038 0.441537 0)
(0.894536 0.447096 0)
(0.894503 0.447124 0)
(0.894478 0.447144 0)
(0.89446 0.447158 0)
(0.894446 0.447169 0)
(0.894435 0.447177 0)
(0.894427 0.447183 0)
(0.89442 0.447188 0)
(0.894415 0.447191 0)
(0.894411 0.447194 0)
(0.894408 0.447196 0)
(0.894405 0.447197 0)
(0.894404 0.447198 0)
(0.894402 0.447198 0)
(0.894402 0.447199 0)
(0.894401 0.447199 0)
(0.894401 0.447199 0)
(0.894401 0.4472 0)
(0.8944 0.4472 0)
(0.8944 0.4472 0)
(0.8944 0.4472 0)
(0.894401 0.4472 0)
(0.894399 0.4472 0)
(0.894401 0.4472 0)
(0.8944 0.4472 0)
(0.8944 0.4472 0)
(0.8944 0.4472 0)
(0.8944 0.4472 0)
(0.8944 0.4472 0)
(0.8944 0.4472 0)
(0.8944 0.4472 0)
(0.8944 0.4472 0)
(0.8944 0.4472 0)
(0.8944 0.4472 0)
(0.894401 0.4472 0)
(0.894399 0.4472 0)
(0.894401 0.447199 0)
(0.8944 0.447201 0)
(0.8944 0.4472 0)
(0.8944 0.447199 0)
(0.8944 0.4472 0)
(0.8944 0.4472 0)
(0.8944 0.4472 0)
(0.894401 0.4472 0)
(0.8944 0.447201 0)
(0.894399 0.447199 0)
(0.894402 0.447202 0)
(0.894399 0.447198 0)
(0.894401 0.447201 0)
(0.894402 0.447202 0)
(0.894402 0.447199 0)
(0.894403 0.447203 0)
(0.894405 0.447203 0)
(0.894409 0.447203 0)
(0.89441 0.447207 0)
(0.894414 0.447208 0)
(0.894421 0.44721 0)
(0.894428 0.447217 0)
(0.894433 0.447222 0)
(0.894441 0.447226 0)
(0.894453 0.447235 0)
(0.894457 0.447243 0)
(0.894459 0.447247 0)
(0.894456 0.447253 0)
(0.894436 0.447247 0)
(0.894392 0.447228 0)
(0.894314 0.44719 0)
(0.894183 0.447112 0)
(0.893969 0.446974 0)
(0.893641 0.446754 0)
(0.893157 0.44641 0)
(0.892468 0.445886 0)
(0.891501 0.445121 0)
(0.890192 0.444042 0)
(0.888465 0.442543 0)
(0.894513 0.44711 0)
(0.894486 0.447133 0)
(0.894466 0.44715 0)
(0.894451 0.447163 0)
(0.894439 0.447173 0)
(0.89443 0.447179 0)
(0.894423 0.447185 0)
(0.894417 0.447189 0)
(0.894413 0.447192 0)
(0.894409 0.447194 0)
(0.894407 0.447196 0)
(0.894405 0.447197 0)
(0.894403 0.447198 0)
(0.894403 0.447199 0)
(0.894401 0.447199 0)
(0.894401 0.4472 0)
(0.894401 0.4472 0)
(0.8944 0.4472 0)
(0.894401 0.4472 0)
(0.8944 0.4472 0)
(0.8944 0.4472 0)
(0.8944 0.4472 0)
(0.8944 0.4472 0)
(0.8944 0.4472 0)
(0.8944 0.4472 0)
(0.8944 0.447201 0)
(0.8944 0.447199 0)
(0.8944 0.4472 0)
(0.8944 0.4472 0)
(0.8944 0.4472 0)
(0.8944 0.4472 0)
(0.8944 0.4472 0)
(0.8944 0.4472 0)
(0.894399 0.4472 0)
(0.8944 0.4472 0)
(0.894401 0.4472 0)
(0.894398 0.447199 0)
(0.894402 0.4472 0)
(0.894398 0.4472 0)
(0.894401 0.4472 0)
(0.8944 0.4472 0)
(0.894399 0.447199 0)
(0.894401 0.447201 0)
(0.894399 0.4472 0)
(0.8944 0.4472 0)
(0.8944 0.447201 0)
(0.8944 0.447199 0)
(0.894401 0.447202 0)
(0.8944 0.447199 0)
(0.8944 0.4472 0)
(0.894403 0.447203 0)
(0.894402 0.447199 0)
(0.894405 0.447204 0)
(0.894405 0.447203 0)
(0.89441 0.447204 0)
(0.894413 0.447209 0)
(0.894417 0.447209 0)
(0.894423 0.447214 0)
(0.89443 0.447219 0)
(0.894439 0.447226 0)
(0.894444 0.447232 0)
(0.894452 0.44724 0)
(0.894456 0.447246 0)
(0.894455 0.447251 0)
(0.894442 0.447251 0)
(0.89441 0.447241 0)
(0.894352 0.44721 0)
(0.894252 0.447153 0)
(0.894087 0.447049 0)
(0.89383 0.446874 0)
(0.893449 0.446596 0)
(0.892901 0.446178 0)
(0.892128 0.445555 0)
(0.891069 0.44466 0)
(0.889666 0.44342 0)
(0.894494 0.447121 0)
(0.894472 0.447141 0)
(0.894456 0.447156 0)
(0.894443 0.447167 0)
(0.894433 0.447175 0)
(0.894425 0.447182 0)
(0.894419 0.447186 0)
(0.894415 0.447191 0)
(0.894411 0.447193 0)
(0.894408 0.447195 0)
(0.894406 0.447196 0)
(0.894404 0.447198 0)
(0.894403 0.447198 0)
(0.894402 0.447199 0)
(0.894401 0.447199 0)
(0.894401 0.447199 0)
(0.894401 0.4472 0)
(0.8944 0.447199 0)
(0.8944 0.4472 0)
(0.894401 0.447199 0)
(0.8944 0.447201 0)
(0.8944 0.4472 0)
(0.8944 0.4472 0)
(0.8944 0.447201 0)
(0.8944 0.447199 0)
(0.8944 0.447201 0)
(0.8944 0.4472 0)
(0.8944 0.4472 0)
(0.8944 0.4472 0)
(0.8944 0.4472 0)
(0.8944 0.4472 0)
(0.894401 0.4472 0)
(0.894399 0.4472 0)
(0.894401 0.4472 0)
(0.894399 0.447199 0)
(0.894401 0.447201 0)
(0.8944 0.4472 0)
(0.8944 0.447199 0)
(0.894401 0.447201 0)
(0.894399 0.4472 0)
(0.894401 0.447199 0)
(0.8944 0.447201 0)
(0.894399 0.4472 0)
(0.894402 0.4472 0)
(0.894398 0.4472 0)
(0.894401 0.4472 0)
(0.8944 0.447198 0)
(0.8944 0.447202 0)
(0.8944 0.447201 0)
(0.894401 0.447198 0)
(0.894403 0.447203 0)
(0.894401 0.447202 0)
(0.894406 0.447199 0)
(0.894404 0.447206 0)
(0.894409 0.447203 0)
(0.89441 0.447206 0)
(0.894416 0.447212 0)
(0.894421 0.44721 0)
(0.894424 0.447217 0)
(0.894434 0.447226 0)
(0.89444 0.447228 0)
(0.894445 0.447236 0)
(0.894453 0.447247 0)
(0.894452 0.447248 0)
(0.894443 0.447251 0)
(0.894424 0.447248 0)
(0.894381 0.447227 0)
(0.894303 0.447184 0)
(0.894176 0.447107 0)
(0.893981 0.44697 0)
(0.893682 0.446752 0)
(0.893248 0.446417 0)
(0.892638 0.445917 0)
(0.891796 0.445189 0)
(0.890661 0.444168 0)
(0.894477 0.447132 0)
(0.89446 0.447149 0)
(0.894447 0.447161 0)
(0.894437 0.447171 0)
(0.894428 0.447178 0)
(0.894422 0.447184 0)
(0.894416 0.447188 0)
(0.894412 0.447191 0)
(0.894409 0.447194 0)
(0.894407 0.447196 0)
(0.894405 0.447197 0)
(0.894403 0.447198 0)
(0.894403 0.447199 0)
(0.894401 0.447199 0)
(0.894401 0.4472 0)
(0.894401 0.447199 0)
(0.894401 0.4472 0)
(0.8944 0.4472 0)
(0.8944 0.4472 0)
(0.8944 0.4472 0)
(0.8944 0.4472 0)
(0.8944 0.4472 0)
(0.894399 0.4472 0)
(0.8944 0.4472 0)
(0.8944 0.4472 0)
(0.8944 0.4472 0)
(0.894401 0.4472 0)
(0.8944 0.4472 0)
(0.8944 0.447199 0)
(0.8944 0.4472 0)
(0.894399 0.4472 0)
(0.894401 0.447199 0)
(0.894399 0.447201 0)
(0.8944 0.4472 0)
(0.8944 0.447199 0)
(0.894399 0.4472 0)
(0.894401 0.4472 0)
(0.8944 0.4472 0)
(0.8944 0.447199 0)
(0.894401 0.447201 0)
(0.894399 0.447199 0)
(0.8944 0.447201 0)
(0.894401 0.447199 0)
(0.894399 0.4472 0)
(0.894401 0.447201 0)
(0.894399 0.4472 0)
(0.894402 0.4472 0)
(0.894398 0.4472 0)
(0.894402 0.447201 0)
(0.894402 0.447201 0)
(0.8944 0.4472 0)
(0.894402 0.447202 0)
(0.894404 0.447202 0)
(0.894405 0.447201 0)
(0.894404 0.447206 0)
(0.894411 0.447205 0)
(0.894412 0.447207 0)
(0.894417 0.447214 0)
(0.894423 0.447214 0)
(0.894427 0.44722 0)
(0.894436 0.447227 0)
(0.894443 0.447234 0)
(0.894444 0.44724 0)
(0.894449 0.447248 0)
(0.894445 0.447252 0)
(0.894428 0.447249 0)
(0.8944 0.447237 0)
(0.894343 0.447208 0)
(0.894246 0.447149 0)
(0.894096 0.447048 0)
(0.893867 0.446878 0)
(0.893526 0.446611 0)
(0.893045 0.446214 0)
(0.892383 0.445633 0)
(0.891482 0.444803 0)
(0.894464 0.447142 0)
(0.89445 0.447156 0)
(0.894439 0.447167 0)
(0.89443 0.447175 0)
(0.894424 0.447181 0)
(0.894418 0.447186 0)
(0.894414 0.44719 0)
(0.894411 0.447192 0)
(0.894408 0.447195 0)
(0.894406 0.447196 0)
(0.894404 0.447197 0)
(0.894403 0.447198 0)
(0.894402 0.447199 0)
(0.894401 0.447199 0)
(0.894401 0.447199 0)
(0.894401 0.4472 0)
(0.8944 0.447199 0)
(0.8944 0.4472 0)
(0.8944 0.4472 0)
(0.8944 0.4472 0)
(0.8944 0.4472 0)
(0.8944 0.4472 0)
(0.8944 0.4472 0)
(0.8944 0.4472 0)
(0.8944 0.447201 0)
(0.8944 0.447199 0)
(0.8944 0.4472 0)
(0.8944 0.4472 0)
(0.894401 0.447199 0)
(0.894399 0.447201 0)
(0.894401 0.447199 0)
(0.894399 0.4472 0)
(0.8944 0.4472 0)
(0.8944 0.4472 0)
(0.8944 0.447201 0)
(0.894399 0.447199 0)
(0.894401 0.4472 0)
(0.8944 0.4472 0)
(0.894399 0.4472 0)
(0.894401 0.4472 0)
(0.8944 0.447199 0)
(0.894399 0.447201 0)
(0.894401 0.4472 0)
(0.894399 0.4472 0)
(0.8944 0.4472 0)
(0.8944 0.447199 0)
(0.894399 0.447201 0)
(0.894402 0.4472 0)
(0.894398 0.447199 0)
(0.894403 0.447201 0)
(0.8944 0.447201 0)