/*--------------------------------*- C++ -*----------------------------------*\
  =========                 |
  \\      /  F ield         | OpenFOAM: The Open Source CFD Toolbox
   \\    /   O peration     | Website:  https://openfoam.org
    \\  /    A nd           | Version:  6
     \\/     M anipulation  |
\*---------------------------------------------------------------------------*/
FoamFile
{
    version     2.0;
    format      ascii;
    class       volVectorField;
    location    "4.53";
    object      U;
}
// * * * * * * * * * * * * * * * * * * * * * * * * * * * * * * * * * * * * * //

dimensions      [0 1 -1 0 0 0 0];

internalField   nonuniform List<vector> 
5625
(
(0.894847 0.447053 0)
(0.894713 0.447103 0)
(0.89462 0.447136 0)
(0.894556 0.447157 0)
(0.894512 0.447171 0)
(0.89448 0.44718 0)
(0.894458 0.447186 0)
(0.894441 0.447191 0)
(0.89443 0.447193 0)
(0.894421 0.447196 0)
(0.894415 0.447197 0)
(0.894411 0.447198 0)
(0.894407 0.447199 0)
(0.894405 0.447199 0)
(0.894403 0.4472 0)
(0.894402 0.4472 0)
(0.894401 0.4472 0)
(0.894401 0.4472 0)
(0.894401 0.4472 0)
(0.894401 0.4472 0)
(0.8944 0.4472 0)
(0.894401 0.4472 0)
(0.8944 0.4472 0)
(0.894399 0.4472 0)
(0.894401 0.4472 0)
(0.8944 0.4472 0)
(0.8944 0.4472 0)
(0.8944 0.4472 0)
(0.8944 0.4472 0)
(0.894401 0.447201 0)
(0.894398 0.4472 0)
(0.894401 0.4472 0)
(0.8944 0.447201 0)
(0.8944 0.4472 0)
(0.894399 0.4472 0)
(0.894401 0.4472 0)
(0.894399 0.4472 0)
(0.8944 0.4472 0)
(0.894401 0.4472 0)
(0.8944 0.447199 0)
(0.8944 0.447201 0)
(0.8944 0.4472 0)
(0.8944 0.4472 0)
(0.894401 0.447199 0)
(0.894401 0.447201 0)
(0.894401 0.447199 0)
(0.894404 0.447201 0)
(0.894403 0.447202 0)
(0.894405 0.447199 0)
(0.89441 0.447203 0)
(0.894412 0.447202 0)
(0.894417 0.447203 0)
(0.894426 0.447205 0)
(0.894435 0.447207 0)
(0.894445 0.447209 0)
(0.894457 0.447212 0)
(0.894472 0.447212 0)
(0.894476 0.447214 0)
(0.894477 0.447211 0)
(0.894454 0.447202 0)
(0.894391 0.447178 0)
(0.89427 0.447132 0)
(0.894038 0.447047 0)
(0.893645 0.446896 0)
(0.893008 0.446648 0)
(0.892015 0.446255 0)
(0.890532 0.445647 0)
(0.888397 0.44474 0)
(0.885443 0.44345 0)
(0.881597 0.441706 0)
(0.877031 0.439531 0)
(0.872292 0.437145 0)
(0.86823 0.434943 0)
(0.865625 0.433305 0)
(0.864842 0.432454 0)
(0.894802 0.447059 0)
(0.894683 0.447105 0)
(0.8946 0.447137 0)
(0.894543 0.447157 0)
(0.894503 0.447171 0)
(0.894474 0.44718 0)
(0.894454 0.447186 0)
(0.894439 0.447191 0)
(0.894428 0.447193 0)
(0.89442 0.447195 0)
(0.894414 0.447197 0)
(0.89441 0.447197 0)
(0.894407 0.447199 0)
(0.894404 0.447199 0)
(0.894403 0.447199 0)
(0.894402 0.447199 0)
(0.894401 0.4472 0)
(0.894401 0.447199 0)
(0.8944 0.4472 0)
(0.8944 0.4472 0)
(0.8944 0.4472 0)
(0.8944 0.4472 0)
(0.8944 0.4472 0)
(0.8944 0.4472 0)
(0.8944 0.4472 0)
(0.8944 0.4472 0)
(0.8944 0.4472 0)
(0.8944 0.4472 0)
(0.894399 0.4472 0)
(0.894401 0.4472 0)
(0.8944 0.4472 0)
(0.8944 0.4472 0)
(0.894399 0.4472 0)
(0.894402 0.447201 0)
(0.894398 0.447199 0)
(0.894402 0.447201 0)
(0.894399 0.447199 0)
(0.894401 0.4472 0)
(0.894399 0.4472 0)
(0.894401 0.447199 0)
(0.894399 0.4472 0)
(0.894401 0.447201 0)
(0.8944 0.4472 0)
(0.8944 0.4472 0)
(0.894402 0.4472 0)
(0.8944 0.447201 0)
(0.894404 0.447201 0)
(0.894402 0.4472 0)
(0.894407 0.447202 0)
(0.894406 0.4472 0)
(0.894414 0.447204 0)
(0.894415 0.447203 0)
(0.894425 0.447204 0)
(0.894432 0.447208 0)
(0.894445 0.447209 0)
(0.894456 0.447213 0)
(0.894468 0.447216 0)
(0.894478 0.447216 0)
(0.89448 0.447217 0)
(0.894464 0.447211 0)
(0.894416 0.44719 0)
(0.894315 0.447152 0)
(0.894121 0.447077 0)
(0.893783 0.446946 0)
(0.893237 0.446722 0)
(0.892377 0.446364 0)
(0.891076 0.445812 0)
(0.88919 0.444976 0)
(0.886554 0.443767 0)
(0.883049 0.442109 0)
(0.878748 0.439975 0)
(0.874067 0.437522 0)
(0.869767 0.435115 0)
(0.86666 0.433166 0)
(0.86525 0.431971 0)
(0.89476 0.447065 0)
(0.894654 0.447109 0)
(0.894582 0.447138 0)
(0.89453 0.447158 0)
(0.894495 0.447171 0)
(0.894468 0.44718 0)
(0.89445 0.447186 0)
(0.894436 0.44719 0)
(0.894426 0.447193 0)
(0.894418 0.447195 0)
(0.894413 0.447197 0)
(0.894409 0.447198 0)
(0.894406 0.447198 0)
(0.894405 0.447199 0)
(0.894403 0.447199 0)
(0.894402 0.4472 0)
(0.894401 0.4472 0)
(0.894401 0.4472 0)
(0.8944 0.4472 0)
(0.894401 0.4472 0)
(0.8944 0.4472 0)
(0.8944 0.4472 0)
(0.8944 0.4472 0)
(0.8944 0.4472 0)
(0.8944 0.4472 0)
(0.8944 0.4472 0)
(0.8944 0.4472 0)
(0.8944 0.4472 0)
(0.8944 0.4472 0)
(0.8944 0.4472 0)
(0.8944 0.4472 0)
(0.8944 0.4472 0)
(0.8944 0.4472 0)
(0.8944 0.4472 0)
(0.8944 0.4472 0)
(0.8944 0.4472 0)
(0.894399 0.4472 0)
(0.894401 0.4472 0)
(0.894398 0.4472 0)
(0.894402 0.447201 0)
(0.894399 0.447199 0)
(0.8944 0.447199 0)
(0.894401 0.447201 0)
(0.894399 0.447199 0)
(0.894402 0.4472 0)
(0.894401 0.4472 0)
(0.894403 0.447201 0)
(0.894402 0.447201 0)
(0.894406 0.447202 0)
(0.894406 0.4472 0)
(0.894411 0.447203 0)
(0.894417 0.447205 0)
(0.894422 0.447204 0)
(0.89443 0.447208 0)
(0.894442 0.447211 0)
(0.894454 0.447212 0)
(0.894465 0.447219 0)
(0.894479 0.447219 0)
(0.894481 0.447221 0)
(0.894472 0.447216 0)
(0.894438 0.447203 0)
(0.894353 0.447172 0)
(0.894193 0.447106 0)
(0.89391 0.446991 0)
(0.89344 0.446796 0)
(0.892702 0.446475 0)
(0.891576 0.445974 0)
(0.889924 0.445215 0)
(0.887594 0.4441 0)
(0.884444 0.442541 0)
(0.88046 0.440489 0)
(0.875927 0.438025 0)
(0.871489 0.435453 0)
(0.867952 0.433209 0)
(0.86593 0.431652 0)
(0.89472 0.447072 0)
(0.894628 0.447113 0)
(0.894564 0.44714 0)
(0.894519 0.447158 0)
(0.894486 0.447171 0)
(0.894463 0.44718 0)
(0.894446 0.447186 0)
(0.894433 0.44719 0)
(0.894424 0.447193 0)
(0.894417 0.447195 0)
(0.894412 0.447197 0)
(0.894409 0.447198 0)
(0.894406 0.447198 0)
(0.894404 0.447199 0)
(0.894403 0.447199 0)
(0.894402 0.447199 0)
(0.894401 0.4472 0)
(0.894401 0.4472 0)
(0.894401 0.4472 0)
(0.8944 0.4472 0)
(0.8944 0.4472 0)
(0.8944 0.4472 0)
(0.8944 0.4472 0)
(0.8944 0.4472 0)
(0.8944 0.4472 0)
(0.8944 0.4472 0)
(0.8944 0.4472 0)
(0.894399 0.4472 0)
(0.894401 0.4472 0)
(0.8944 0.4472 0)
(0.8944 0.4472 0)
(0.894399 0.447201 0)
(0.894401 0.447199 0)
(0.894398 0.4472 0)
(0.894402 0.4472 0)
(0.894399 0.4472 0)
(0.894401 0.4472 0)
(0.8944 0.4472 0)
(0.8944 0.4472 0)
(0.894401 0.4472 0)
(0.8944 0.447201 0)
(0.894399 0.447199 0)
(0.894401 0.4472 0)
(0.894401 0.4472 0)
(0.8944 0.447201 0)
(0.894402 0.4472 0)
(0.894401 0.4472 0)
(0.894403 0.447202 0)
(0.894404 0.447201 0)
(0.894408 0.447203 0)
(0.894407 0.447201 0)
(0.894418 0.447205 0)
(0.89442 0.447206 0)
(0.894428 0.447207 0)
(0.89444 0.447212 0)
(0.894452 0.447214 0)
(0.894462 0.447217 0)
(0.894476 0.447224 0)
(0.894483 0.447223 0)
(0.894477 0.447223 0)
(0.894453 0.447213 0)
(0.894385 0.447186 0)
(0.894255 0.447135 0)
(0.894021 0.447035 0)
(0.893622 0.446865 0)
(0.892991 0.446582 0)
(0.892027 0.446132 0)
(0.890593 0.44545 0)
(0.888554 0.444437 0)
(0.885761 0.442995 0)
(0.882133 0.441053 0)
(0.877832 0.438631 0)
(0.873366 0.435959 0)
(0.869492 0.433455 0)
(0.866901 0.431528 0)
(0.894684 0.44708 0)
(0.894604 0.447117 0)
(0.894547 0.447143 0)
(0.894507 0.44716 0)
(0.894478 0.447172 0)
(0.894457 0.44718 0)
(0.894442 0.447186 0)
(0.89443 0.44719 0)
(0.894422 0.447193 0)
(0.894416 0.447195 0)
(0.894411 0.447197 0)
(0.894408 0.447198 0)
(0.894405 0.447199 0)
(0.894404 0.447199 0)
(0.894402 0.4472 0)
(0.894402 0.447199 0)
(0.894401 0.4472 0)
(0.894401 0.4472 0)
(0.8944 0.4472 0)
(0.8944 0.4472 0)
(0.8944 0.4472 0)
(0.8944 0.4472 0)
(0.8944 0.4472 0)
(0.8944 0.4472 0)
(0.8944 0.4472 0)
(0.8944 0.4472 0)
(0.8944 0.4472 0)
(0.8944 0.4472 0)
(0.8944 0.447199 0)
(0.894401 0.447201 0)
(0.894399 0.4472 0)
(0.8944 0.4472 0)
(0.894401 0.4472 0)
(0.894399 0.4472 0)
(0.894401 0.4472 0)
(0.894399 0.447199 0)
(0.894401 0.4472 0)
(0.894399 0.4472 0)
(0.894401 0.447201 0)
(0.894399 0.447199 0)
(0.894401 0.447201 0)
(0.8944 0.4472 0)
(0.894399 0.447199 0)
(0.894402 0.447201 0)
(0.894399 0.4472 0)
(0.894402 0.4472 0)
(0.894401 0.447201 0)
(0.894402 0.4472 0)
(0.894404 0.447201 0)
(0.894409 0.447202 0)
(0.894407 0.447202 0)
(0.894413 0.447203 0)
(0.894422 0.447207 0)
(0.894427 0.447208 0)
(0.894436 0.44721 0)
(0.894448 0.447216 0)
(0.894462 0.447218 0)
(0.894471 0.447225 0)
(0.894483 0.447227 0)
(0.894481 0.447229 0)
(0.894463 0.447221 0)
(0.894414 0.447201 0)
(0.894305 0.447159 0)
(0.894113 0.447075 0)
(0.893783 0.446929 0)
(0.893247 0.446681 0)
(0.892425 0.446285 0)
(0.891199 0.445679 0)
(0.889431 0.444768 0)
(0.88698 0.443455 0)
(0.883734 0.441649 0)
(0.87974 0.439322 0)
(0.875357 0.436618 0)
(0.871258 0.433906 0)
(0.868168 0.431628 0)
(0.894651 0.447087 0)
(0.894581 0.447122 0)
(0.894532 0.447145 0)
(0.894497 0.447161 0)
(0.894471 0.447173 0)
(0.894452 0.447181 0)
(0.894438 0.447186 0)
(0.894428 0.44719 0)
(0.89442 0.447193 0)
(0.894414 0.447195 0)
(0.89441 0.447197 0)
(0.894407 0.447197 0)
(0.894405 0.447199 0)
(0.894404 0.447199 0)
(0.894402 0.447199 0)
(0.894402 0.4472 0)
(0.894401 0.4472 0)
(0.8944 0.4472 0)
(0.894401 0.4472 0)
(0.8944 0.4472 0)
(0.8944 0.4472 0)
(0.8944 0.4472 0)
(0.8944 0.4472 0)
(0.8944 0.4472 0)
(0.894401 0.4472 0)
(0.894399 0.4472 0)
(0.8944 0.4472 0)
(0.8944 0.4472 0)
(0.8944 0.4472 0)
(0.894401 0.4472 0)
(0.894399 0.447201 0)
(0.894401 0.447199 0)
(0.894399 0.4472 0)
(0.894401 0.447201 0)
(0.894399 0.447199 0)
(0.894401 0.447201 0)
(0.894399 0.4472 0)
(0.894401 0.4472 0)
(0.894399 0.4472 0)
(0.8944 0.447199 0)
(0.8944 0.447201 0)
(0.894401 0.4472 0)
(0.894399 0.447199 0)
(0.894401 0.4472 0)
(0.894401 0.447201 0)
(0.8944 0.447199 0)
(0.894404 0.447202 0)
(0.894401 0.447199 0)
(0.894404 0.447202 0)
(0.894405 0.447201 0)
(0.894411 0.447204 0)
(0.89441 0.447203 0)
(0.894419 0.447205 0)
(0.894425 0.447209 0)
(0.894433 0.447211 0)
(0.894445 0.447214 0)
(0.894457 0.447221 0)
(0.894469 0.447224 0)
(0.894479 0.44723 0)
(0.894483 0.447232 0)
(0.894471 0.447228 0)
(0.894434 0.447215 0)
(0.89435 0.44718 0)
(0.894191 0.447111 0)
(0.89392 0.446987 0)
(0.893473 0.446775 0)
(0.892776 0.446431 0)
(0.891735 0.445894 0)
(0.89022 0.445087 0)
(0.888095 0.443909 0)
(0.885234 0.442259 0)
(0.881603 0.440069 0)
(0.877416 0.437407 0)
(0.873218 0.434562 0)
(0.869725 0.43197 0)
(0.89462 0.447095 0)
(0.89456 0.447126 0)
(0.894518 0.447148 0)
(0.894487 0.447163 0)
(0.894464 0.447174 0)
(0.894447 0.447181 0)
(0.894435 0.447187 0)
(0.894425 0.44719 0)
(0.894418 0.447194 0)
(0.894413 0.447195 0)
(0.894409 0.447197 0)
(0.894406 0.447198 0)
(0.894404 0.447198 0)
(0.894403 0.447199 0)
(0.894402 0.447199 0)
(0.894402 0.447199 0)
(0.894401 0.4472 0)
(0.894401 0.4472 0)
(0.8944 0.4472 0)
(0.8944 0.4472 0)
(0.8944 0.4472 0)
(0.8944 0.4472 0)
(0.8944 0.4472 0)
(0.8944 0.4472 0)
(0.8944 0.4472 0)
(0.8944 0.4472 0)
(0.8944 0.4472 0)
(0.8944 0.4472 0)
(0.8944 0.4472 0)
(0.894401 0.4472 0)
(0.894399 0.4472 0)
(0.894401 0.4472 0)
(0.894399 0.4472 0)
(0.894401 0.4472 0)
(0.894399 0.4472 0)
(0.894401 0.4472 0)
(0.894398 0.4472 0)
(0.894402 0.4472 0)
(0.894398 0.4472 0)
(0.894402 0.4472 0)
(0.894398 0.4472 0)
(0.894402 0.4472 0)
(0.894401 0.447201 0)
(0.894398 0.4472 0)
(0.894403 0.447201 0)
(0.894399 0.447199 0)
(0.894402 0.447201 0)
(0.894402 0.447201 0)
(0.894404 0.4472 0)
(0.894403 0.447202 0)
(0.89441 0.447202 0)
(0.89441 0.447206 0)
(0.894417 0.447204 0)
(0.894422 0.447207 0)
(0.894431 0.447213 0)
(0.894442 0.447213 0)
(0.894452 0.447221 0)
(0.894466 0.447225 0)
(0.894477 0.44723 0)
(0.894482 0.447235 0)
(0.894477 0.447235 0)
(0.894449 0.447224 0)
(0.894385 0.447199 0)
(0.894257 0.447145 0)
(0.894034 0.447037 0)
(0.893666 0.44686 0)
(0.893085 0.446565 0)
(0.892206 0.446097 0)
(0.890921 0.445389 0)
(0.8891 0.444346 0)
(0.886612 0.442862 0)
(0.883376 0.440845 0)
(0.879481 0.438295 0)
(0.875323 0.435401 0)
(0.871548 0.432563 0)
(0.894593 0.447103 0)
(0.894542 0.447131 0)
(0.894504 0.447151 0)
(0.894478 0.447165 0)
(0.894457 0.447175 0)
(0.894443 0.447182 0)
(0.894431 0.447187 0)
(0.894423 0.447191 0)
(0.894416 0.447194 0)
(0.894412 0.447195 0)
(0.894408 0.447197 0)
(0.894406 0.447198 0)
(0.894404 0.447198 0)
(0.894403 0.447199 0)
(0.894402 0.447199 0)
(0.894401 0.4472 0)
(0.894401 0.4472 0)
(0.894401 0.4472 0)
(0.8944 0.4472 0)
(0.894401 0.4472 0)
(0.8944 0.4472 0)
(0.8944 0.4472 0)
(0.8944 0.4472 0)
(0.8944 0.4472 0)
(0.8944 0.4472 0)
(0.8944 0.447201 0)
(0.8944 0.447199 0)
(0.8944 0.447201 0)
(0.8944 0.4472 0)
(0.8944 0.447199 0)
(0.894401 0.4472 0)
(0.8944 0.4472 0)
(0.8944 0.447199 0)
(0.894399 0.4472 0)
(0.894401 0.4472 0)
(0.894399 0.447199 0)
(0.8944 0.447201 0)
(0.8944 0.447199 0)
(0.8944 0.4472 0)
(0.8944 0.447201 0)
(0.8944 0.447199 0)
(0.894399 0.447201 0)
(0.894401 0.4472 0)
(0.8944 0.4472 0)
(0.8944 0.4472 0)
(0.894402 0.447202 0)
(0.8944 0.447198 0)
(0.894403 0.447201 0)
(0.894403 0.447202 0)
(0.894404 0.447201 0)
(0.894405 0.447202 0)
(0.894413 0.447204 0)
(0.894414 0.447206 0)
(0.89442 0.447206 0)
(0.894429 0.447211 0)
(0.894438 0.447215 0)
(0.894449 0.44722 0)
(0.894461 0.447226 0)
(0.894473 0.447229 0)
(0.89448 0.447238 0)
(0.894479 0.44724 0)
(0.89446 0.447232 0)
(0.894411 0.447214 0)
(0.894311 0.447171 0)
(0.894132 0.447086 0)
(0.89383 0.446935 0)
(0.893348 0.446685 0)
(0.892614 0.446284 0)
(0.891535 0.44567 0)
(0.889991 0.444756 0)
(0.887859 0.443442 0)
(0.885026 0.441623 0)
(0.881493 0.439242 0)
(0.877506 0.436392 0)
(0.873593 0.433399 0)
(0.894568 0.447111 0)
(0.894524 0.447136 0)
(0.894492 0.447155 0)
(0.894469 0.447167 0)
(0.894451 0.447177 0)
(0.894438 0.447183 0)
(0.894428 0.447188 0)
(0.89442 0.447192 0)
(0.894415 0.447193 0)
(0.894411 0.447196 0)
(0.894408 0.447197 0)
(0.894405 0.447198 0)
(0.894404 0.447199 0)
(0.894403 0.447199 0)
(0.894401 0.4472 0)
(0.894401 0.4472 0)
(0.8944 0.4472 0)
(0.894401 0.4472 0)
(0.8944 0.4472 0)
(0.8944 0.4472 0)
(0.8944 0.4472 0)
(0.8944 0.4472 0)
(0.8944 0.4472 0)
(0.8944 0.4472 0)
(0.8944 0.4472 0)
(0.8944 0.4472 0)
(0.8944 0.4472 0)
(0.894399 0.4472 0)
(0.894401 0.447201 0)
(0.8944 0.4472 0)
(0.894399 0.4472 0)
(0.894401 0.447201 0)
(0.8944 0.4472 0)
(0.894399 0.4472 0)
(0.894402 0.447201 0)
(0.894398 0.447199 0)
(0.894402 0.4472 0)
(0.894399 0.4472 0)
(0.894401 0.4472 0)
(0.894399 0.447199 0)
(0.894402 0.4472 0)
(0.894398 0.4472 0)
(0.894401 0.4472 0)
(0.894402 0.447201 0)
(0.894397 0.447199 0)
(0.894403 0.447201 0)
(0.8944 0.447201 0)
(0.894401 0.447199 0)
(0.894403 0.447203 0)
(0.894404 0.447202 0)
(0.894404 0.447202 0)
(0.894411 0.447203 0)
(0.894412 0.447205 0)
(0.89442 0.447208 0)
(0.894426 0.447209 0)
(0.894434 0.447215 0)
(0.894445 0.44722 0)
(0.894457 0.447226 0)
(0.894469 0.447231 0)
(0.894475 0.447237 0)
(0.894479 0.447241 0)
(0.89447 0.44724 0)
(0.89443 0.447227 0)
(0.894352 0.447193 0)
(0.894212 0.447126 0)
(0.893967 0.447002 0)
(0.893572 0.446793 0)
(0.892967 0.446452 0)
(0.892067 0.445924 0)
(0.89077 0.445137 0)
(0.888962 0.443989 0)
(0.886527 0.442375 0)
(0.883399 0.440204 0)
(0.879695 0.437491 0)
(0.8758 0.434451 0)
(0.894546 0.447118 0)
(0.894509 0.447141 0)
(0.894481 0.447158 0)
(0.894461 0.447169 0)
(0.894446 0.447178 0)
(0.894434 0.447184 0)
(0.894425 0.447188 0)
(0.894418 0.447192 0)
(0.894413 0.447194 0)
(0.894409 0.447196 0)
(0.894407 0.447198 0)
(0.894404 0.447198 0)
(0.894403 0.447199 0)
(0.894402 0.447199 0)
(0.894401 0.447199 0)
(0.894401 0.4472 0)
(0.894401 0.4472 0)
(0.8944 0.4472 0)
(0.8944 0.4472 0)
(0.8944 0.4472 0)
(0.8944 0.4472 0)
(0.8944 0.4472 0)
(0.8944 0.4472 0)
(0.8944 0.4472 0)
(0.8944 0.4472 0)
(0.894399 0.4472 0)
(0.894401 0.4472 0)
(0.8944 0.4472 0)
(0.8944 0.447199 0)
(0.894401 0.447201 0)
(0.894399 0.4472 0)
(0.8944 0.447199 0)
(0.8944 0.447201 0)
(0.8944 0.4472 0)
(0.8944 0.447199 0)
(0.8944 0.447201 0)
(0.8944 0.4472 0)
(0.8944 0.4472 0)
(0.894401 0.447199 0)
(0.894398 0.447201 0)
(0.894401 0.4472 0)
(0.894401 0.447199 0)
(0.894398 0.447201 0)
(0.894401 0.4472 0)
(0.894401 0.447201 0)
(0.894399 0.447198 0)
(0.894402 0.447202 0)
(0.894401 0.4472 0)
(0.894402 0.4472 0)
(0.894405 0.447202 0)
(0.894406 0.447202 0)
(0.894407 0.447203 0)
(0.894413 0.447204 0)
(0.894417 0.447207 0)
(0.894422 0.447211 0)
(0.894432 0.447212 0)
(0.894442 0.44722 0)
(0.89445 0.447225 0)
(0.894464 0.447231 0)
(0.894474 0.447238 0)
(0.894476 0.447243 0)
(0.894472 0.447244 0)
(0.894447 0.447237 0)
(0.894387 0.447212 0)
(0.894275 0.447159 0)
(0.894079 0.447061 0)
(0.89376 0.446886 0)
(0.893265 0.446601 0)
(0.892521 0.446158 0)
(0.891441 0.445482 0)
(0.889928 0.44449 0)
(0.887864 0.443083 0)
(0.885154 0.441152 0)
(0.881815 0.438644 0)
(0.878085 0.435669 0)
(0.894527 0.447125 0)
(0.894495 0.447146 0)
(0.894471 0.447161 0)
(0.894454 0.447172 0)
(0.89444 0.447179 0)
(0.89443 0.447185 0)
(0.894422 0.447189 0)
(0.894416 0.447192 0)
(0.894412 0.447195 0)
(0.894408 0.447196 0)
(0.894406 0.447197 0)
(0.894404 0.447198 0)
(0.894403 0.447199 0)
(0.894402 0.447199 0)
(0.894401 0.4472 0)
(0.894401 0.4472 0)
(0.8944 0.4472 0)
(0.8944 0.4472 0)
(0.8944 0.4472 0)
(0.8944 0.4472 0)
(0.8944 0.4472 0)
(0.8944 0.4472 0)
(0.8944 0.4472 0)
(0.894401 0.4472 0)
(0.894399 0.4472 0)
(0.8944 0.4472 0)
(0.8944 0.447199 0)
(0.8944 0.447201 0)
(0.8944 0.447199 0)
(0.8944 0.4472 0)
(0.8944 0.447201 0)
(0.8944 0.447199 0)
(0.894399 0.4472 0)
(0.894401 0.447201 0)
(0.8944 0.447199 0)
(0.8944 0.447201 0)
(0.8944 0.4472 0)
(0.894401 0.447199 0)
(0.894399 0.447201 0)
(0.894401 0.447199 0)
(0.894399 0.4472 0)
(0.8944 0.447201 0)
(0.8944 0.4472 0)
(0.8944 0.447199 0)
(0.894401 0.447202 0)
(0.894399 0.4472 0)
(0.894402 0.447199 0)
(0.894402 0.447203 0)
(0.894402 0.447199 0)
(0.894403 0.447202 0)
(0.894406 0.447202 0)
(0.894406 0.447202 0)
(0.89441 0.447206 0)
(0.894417 0.447206 0)
(0.89442 0.447209 0)
(0.894427 0.447214 0)
(0.894438 0.447217 0)
(0.894447 0.447223 0)
(0.894459 0.447231 0)
(0.894468 0.447237 0)
(0.894473 0.447244 0)
(0.894473 0.447247 0)
(0.894457 0.447242 0)
(0.89441 0.447228 0)
(0.894325 0.447187 0)
(0.894173 0.447108 0)
(0.893916 0.446968 0)
(0.893513 0.446734 0)
(0.892906 0.446361 0)
(0.892019 0.44579 0)
(0.89076 0.444945 0)
(0.889031 0.443734 0)
(0.886728 0.442046 0)
(0.883803 0.439794 0)
(0.880363 0.436991 0)
(0.894509 0.447133 0)
(0.894482 0.447151 0)
(0.894462 0.447164 0)
(0.894447 0.447174 0)
(0.894435 0.447181 0)
(0.894426 0.447186 0)
(0.894419 0.44719 0)
(0.894414 0.447193 0)
(0.89441 0.447195 0)
(0.894407 0.447197 0)
(0.894405 0.447197 0)
(0.894404 0.447198 0)
(0.894402 0.447199 0)
(0.894402 0.447199 0)
(0.894401 0.4472 0)
(0.894401 0.447199 0)
(0.8944 0.4472 0)
(0.8944 0.4472 0)
(0.8944 0.4472 0)
(0.8944 0.4472 0)
(0.8944 0.4472 0)
(0.8944 0.4472 0)
(0.8944 0.4472 0)
(0.8944 0.4472 0)
(0.8944 0.4472 0)
(0.8944 0.4472 0)
(0.8944 0.4472 0)
(0.8944 0.4472 0)
(0.894401 0.4472 0)
(0.894399 0.4472 0)
(0.8944 0.4472 0)
(0.8944 0.447201 0)
(0.894399 0.447199 0)
(0.894401 0.4472 0)
(0.8944 0.447201 0)
(0.8944 0.447199 0)
(0.894401 0.4472 0)
(0.894399 0.4472 0)
(0.8944 0.4472 0)
(0.8944 0.4472 0)
(0.894399 0.447201 0)
(0.8944 0.4472 0)
(0.894401 0.4472 0)
(0.8944 0.4472 0)
(0.8944 0.447199 0)
(0.894401 0.447202 0)
(0.8944 0.447199 0)
(0.894401 0.4472 0)
(0.894402 0.447202 0)
(0.894402 0.447199 0)
(0.894404 0.447204 0)
(0.894407 0.447201 0)
(0.894408 0.447205 0)
(0.894414 0.447206 0)
(0.894419 0.447207 0)
(0.894423 0.447214 0)
(0.894435 0.447215 0)
(0.894442 0.447222 0)
(0.894451 0.447231 0)
(0.894464 0.447235 0)
(0.894472 0.447241 0)
(0.894471 0.44725 0)
(0.894461 0.447249 0)
(0.89443 0.447236 0)
(0.894364 0.447209 0)
(0.894243 0.447148 0)
(0.894042 0.447038 0)
(0.893719 0.446845 0)
(0.893228 0.446536 0)
(0.892504 0.446063 0)
(0.891469 0.445353 0)
(0.890037 0.444319 0)
(0.888109 0.442869 0)
(0.885604 0.440895 0)
(0.88254 0.438343 0)
(0.894494 0.447139 0)
(0.894471 0.447155 0)
(0.894454 0.447167 0)
(0.894441 0.447176 0)
(0.894431 0.447182 0)
(0.894423 0.447187 0)
(0.894417 0.447191 0)
(0.894412 0.447194 0)
(0.894409 0.447195 0)
(0.894407 0.447197 0)
(0.894404 0.447198 0)
(0.894403 0.447198 0)
(0.894402 0.447199 0)
(0.894401 0.447199 0)
(0.894401 0.4472 0)
(0.894401 0.4472 0)
(0.8944 0.4472 0)
(0.8944 0.4472 0)
(0.8944 0.4472 0)
(0.8944 0.4472 0)
(0.8944 0.4472 0)
(0.8944 0.4472 0)
(0.8944 0.4472 0)
(0.8944 0.4472 0)
(0.8944 0.4472 0)
(0.8944 0.4472 0)
(0.8944 0.447201 0)
(0.8944 0.447199 0)
(0.8944 0.4472 0)
(0.8944 0.4472 0)
(0.894399 0.4472 0)
(0.894401 0.4472 0)
(0.8944 0.4472 0)
(0.894399 0.4472 0)
(0.894401 0.4472 0)
(0.8944 0.4472 0)
(0.8944 0.4472 0)
(0.894401 0.4472 0)
(0.894398 0.4472 0)
(0.894401 0.4472 0)
(0.894401 0.4472 0)
(0.894398 0.4472 0)
(0.894402 0.4472 0)
(0.8944 0.4472 0)
(0.894399 0.4472 0)
(0.894401 0.4472 0)
(0.894401 0.447202 0)
(0.8944 0.447199 0)
(0.894403 0.447202 0)
(0.894401 0.4472 0)
(0.894404 0.447201 0)
(0.894406 0.447204 0)
(0.894409 0.447203 0)
(0.894409 0.447206 0)
(0.894418 0.447208 0)
(0.894422 0.447211 0)
(0.894428 0.447217 0)
(0.89444 0.44722 0)
(0.894447 0.447227 0)
(0.894456 0.447235 0)
(0.894467 0.447242 0)
(0.894468 0.447248 0)
(0.894464 0.447252 0)
(0.894442 0.447245 0)
(0.894391 0.447224 0)
(0.894302 0.447181 0)
(0.894144 0.447093 0)
(0.893888 0.44694 0)
(0.893492 0.44669 0)
(0.892909 0.446299 0)
(0.892068 0.445706 0)
(0.89089 0.444838 0)
(0.889295 0.443609 0)
(0.887195 0.441914 0)
(0.884547 0.439659 0)
(0.89448 0.447146 0)
(0.894461 0.44716 0)
(0.894447 0.447171 0)
(0.894436 0.447178 0)
(0.894427 0.447184 0)
(0.89442 0.447188 0)
(0.894415 0.447192 0)
(0.894411 0.447194 0)
(0.894408 0.447196 0)
(0.894406 0.447197 0)
(0.894404 0.447198 0)
(0.894403 0.447199 0)
(0.894402 0.447199 0)
(0.894401 0.447199 0)
(0.894401 0.447199 0)
(0.894401 0.4472 0)
(0.8944 0.4472 0)
(0.894401 0.4472 0)
(0.8944 0.4472 0)
(0.8944 0.4472 0)
(0.8944 0.4472 0)
(0.8944 0.4472 0)
(0.8944 0.4472 0)
(0.894399 0.4472 0)
(0.8944 0.4472 0)
(0.8944 0.4472 0)
(0.8944 0.4472 0)
(0.8944 0.447201 0)
(0.894401 0.447199 0)
(0.894399 0.447201 0)
(0.8944 0.4472 0)
(0.8944 0.4472 0)
(0.894399 0.447201 0)
(0.894401 0.447199 0)
(0.8944 0.4472 0)
(0.8944 0.4472 0)
(0.8944 0.447199 0)
(0.894399 0.447201 0)
(0.894401 0.4472 0)
(0.8944 0.4472 0)
(0.8944 0.4472 0)
(0.8944 0.4472 0)
(0.8944 0.447199 0)
(0.8944 0.4472 0)
(0.8944 0.447201 0)
(0.8944 0.447199 0)
(0.894401 0.447201 0)
(0.894401 0.447201 0)
(0.894399 0.447199 0)
(0.894405 0.447203 0)
(0.894401 0.4472 0)
(0.894405 0.447202 0)
(0.894408 0.447205 0)
(0.89441 0.447202 0)
(0.894414 0.44721 0)
(0.894419 0.447209 0)
(0.894425 0.447214 0)
(0.894433 0.447221 0)
(0.894444 0.447224 0)
(0.894451 0.447233 0)
(0.894458 0.447241 0)
(0.894467 0.447247 0)
(0.894462 0.447252 0)
(0.894449 0.447252 0)
(0.894416 0.447237 0)
(0.894341 0.447204 0)
(0.894222 0.447138 0)
(0.894024 0.447018 0)
(0.893708 0.446818 0)
(0.893241 0.446499 0)
(0.892566 0.446013 0)
(0.891608 0.445294 0)
(0.8903 0.444261 0)
(0.888566 0.442825 0)
(0.886334 0.440887 0)
(0.894469 0.447151 0)
(0.894453 0.447164 0)
(0.89444 0.447173 0)
(0.894431 0.44718 0)
(0.894423 0.447186 0)
(0.894417 0.44719 0)
(0.894413 0.447192 0)
(0.894409 0.447195 0)
(0.894407 0.447196 0)
(0.894405 0.447198 0)
(0.894403 0.447198 0)
(0.894402 0.447199 0)
(0.894402 0.447199 0)
(0.894401 0.4472 0)
(0.894401 0.447199 0)
(0.8944 0.4472 0)
(0.894401 0.4472 0)
(0.8944 0.4472 0)
(0.8944 0.4472 0)
(0.8944 0.4472 0)
(0.8944 0.4472 0)
(0.8944 0.4472 0)
(0.8944 0.4472 0)
(0.8944 0.4472 0)
(0.894399 0.4472 0)
(0.894401 0.4472 0)
(0.8944 0.447199 0)
(0.8944 0.4472 0)
(0.8944 0.4472 0)
(0.8944 0.4472 0)
(0.8944 0.4472 0)
(0.8944 0.4472 0)
(0.8944 0.4472 0)
(0.8944 0.4472 0)
(0.8944 0.4472 0)
(0.8944 0.4472 0)
(0.8944 0.447199 0)
(0.894399 0.447201 0)
(0.894402 0.4472 0)
(0.894398 0.447199 0)
(0.894401 0.447201 0)
(0.8944 0.4472 0)
(0.8944 0.4472 0)
(0.8944 0.4472 0)
(0.8944 0.4472 0)
(0.894401 0.447201 0)
(0.8944 0.447199 0)
(0.8944 0.447202 0)
(0.894401 0.447199 0)
(0.894403 0.4472 0)
(0.894402 0.447203 0)
(0.894404 0.447201 0)
(0.894407 0.447202 0)
(0.894409 0.447207 0)
(0.894411 0.447205 0)
(0.89442 0.44721 0)
(0.894421 0.447214 0)
(0.894428 0.447217 0)
(0.894439 0.447224 0)
(0.894446 0.44723 0)
(0.894453 0.447238 0)
(0.89446 0.447246 0)
(0.894462 0.447251 0)
(0.894452 0.447253 0)
(0.894427 0.447247 0)
(0.894376 0.447224 0)
(0.894282 0.447172 0)
(0.894128 0.447081 0)
(0.893882 0.446925 0)
(0.893511 0.446667 0)
(0.892971 0.446271 0)
(0.892206 0.445685 0)
(0.891144 0.444831 0)
(0.889725 0.443626 0)
(0.887879 0.441986 0)
(0.894458 0.447157 0)
(0.894445 0.447168 0)
(0.894434 0.447176 0)
(0.894426 0.447183 0)
(0.89442 0.447187 0)
(0.894415 0.447191 0)
(0.894411 0.447193 0)
(0.894408 0.447195 0)
(0.894406 0.447197 0)
(0.894404 0.447197 0)
(0.894403 0.447199 0)
(0.894402 0.447199 0)
(0.894401 0.447199 0)
(0.894401 0.4472 0)
(0.894401 0.4472 0)
(0.8944 0.447199 0)
(0.8944 0.4472 0)
(0.8944 0.447199 0)
(0.8944 0.4472 0)
(0.8944 0.4472 0)
(0.8944 0.4472 0)
(0.8944 0.4472 0)
(0.8944 0.4472 0)
(0.8944 0.4472 0)
(0.8944 0.4472 0)
(0.8944 0.4472 0)
(0.8944 0.4472 0)
(0.8944 0.4472 0)
(0.894401 0.4472 0)
(0.8944 0.4472 0)
(0.8944 0.4472 0)
(0.8944 0.4472 0)
(0.8944 0.4472 0)
(0.8944 0.4472 0)
(0.8944 0.447199 0)
(0.894399 0.447201 0)
(0.894401 0.4472 0)
(0.8944 0.4472 0)
(0.894399 0.4472 0)
(0.894402 0.4472 0)
(0.894398 0.447199 0)
(0.894401 0.447201 0)
(0.8944 0.447199 0)
(0.8944 0.4472 0)
(0.894401 0.4472 0)
(0.8944 0.447201 0)
(0.894401 0.447199 0)
(0.8944 0.447201 0)
(0.894402 0.447201 0)
(0.8944 0.447198 0)
(0.894404 0.447202 0)
(0.894403 0.447202 0)
(0.894403 0.447202 0)
(0.89441 0.447204 0)
(0.894409 0.447206 0)
(0.894414 0.447208 0)
(0.894422 0.447212 0)
(0.894424 0.447216 0)
(0.894431 0.447219 0)
(0.894442 0.447231 0)
(0.894448 0.447234 0)
(0.894454 0.447241 0)
(0.894459 0.447251 0)
(0.894453 0.447254 0)
(0.894434 0.44725 0)
(0.894398 0.447236 0)
(0.894329 0.447201 0)
(0.894208 0.44713 0)
(0.89402 0.447008 0)
(0.89373 0.446807 0)
(0.8933 0.446489 0)
(0.89269 0.446012 0)
(0.891843 0.445317 0)
(0.890696 0.444323 0)
(0.889188 0.442953 0)
(0.894449 0.447162 0)
(0.894438 0.447172 0)
(0.894429 0.447179 0)
(0.894422 0.447184 0)
(0.894417 0.447189 0)
(0.894412 0.447192 0)
(0.89441 0.447194 0)
(0.894406 0.447196 0)
(0.894405 0.447197 0)
(0.894403 0.447198 0)
(0.894403 0.447199 0)
(0.894402 0.447199 0)
(0.894401 0.4472 0)
(0.894401 0.447199 0)
(0.894401 0.4472 0)
(0.8944 0.4472 0)
(0.8944 0.447199 0)
(0.8944 0.447201 0)
(0.8944 0.4472 0)
(0.8944 0.4472 0)
(0.8944 0.4472 0)
(0.8944 0.4472 0)
(0.894399 0.4472 0)
(0.8944 0.4472 0)
(0.8944 0.4472 0)
(0.8944 0.4472 0)
(0.8944 0.4472 0)
(0.8944 0.4472 0)
(0.8944 0.4472 0)
(0.8944 0.4472 0)
(0.8944 0.4472 0)
(0.8944 0.4472 0)
(0.8944 0.4472 0)
(0.8944 0.4472 0)
(0.894399 0.4472 0)
(0.8944 0.4472 0)
(0.8944 0.4472 0)
(0.8944 0.4472 0)
(0.894399 0.4472 0)
(0.894401 0.4472 0)
(0.8944 0.4472 0)
(0.894399 0.447201 0)
(0.894401 0.447199 0)
(0.894399 0.4472 0)
(0.8944 0.447201 0)
(0.894402 0.447199 0)
(0.894398 0.447202 0)
(0.894401 0.447199 0)
(0.894402 0.4472 0)
(0.894401 0.447203 0)
(0.894401 0.4472 0)
(0.894403 0.447201 0)
(0.894405 0.447203 0)
(0.894404 0.447204 0)
(0.894412 0.447204 0)
(0.89441 0.447208 0)
(0.894419 0.447209 0)
(0.894422 0.447216 0)
(0.894427 0.44722 0)
(0.894438 0.447224 0)
(0.894442 0.447233 0)
(0.894448 0.44724 0)
(0.894455 0.447246 0)
(0.894451 0.447254 0)
(0.89444 0.447253 0)
(0.894414 0.447243 0)
(0.894362 0.447221 0)
(0.894272 0.44717 0)
(0.894126 0.447073 0)
(0.893901 0.446919 0)
(0.893566 0.446671 0)
(0.893085 0.446285 0)
(0.892411 0.445721 0)
(0.891495 0.444919 0)
(0.890279 0.443792 0)
(0.894441 0.447167 0)
(0.894432 0.447175 0)
(0.894425 0.447182 0)
(0.894419 0.447186 0)
(0.894414 0.44719 0)
(0.894411 0.447193 0)
(0.894408 0.447195 0)
(0.894406 0.447196 0)
(0.894404 0.447197 0)
(0.894403 0.447198 0)
(0.894402 0.447199 0)
(0.894401 0.447199 0)
(0.894401 0.447199 0)
(0.8944 0.4472 0)
(0.894401 0.4472 0)
(0.8944 0.4472 0)
(0.8944 0.4472 0)
(0.8944 0.4472 0)
(0.8944 0.4472 0)
(0.8944 0.4472 0)
(0.8944 0.4472 0)
(0.8944 0.4472 0)
(0.8944 0.4472 0)
(0.8944 0.4472 0)
(0.8944 0.4472 0)
(0.8944 0.4472 0)
(0.8944 0.4472 0)
(0.8944 0.4472 0)
(0.8944 0.4472 0)
(0.8944 0.4472 0)
(0.894401 0.4472 0)
(0.8944 0.4472 0)
(0.894399 0.4472 0)
(0.894402 0.447199 0)
(0.894399 0.447201 0)
(0.894401 0.447199 0)
(0.8944 0.4472 0)
(0.8944 0.447201 0)
(0.8944 0.447199 0)
(0.8944 0.447201 0)
(0.8944 0.4472 0)
(0.8944 0.447199 0)
(0.8944 0.447201 0)
(0.894399 0.447199 0)
(0.8944 0.4472 0)
(0.8944 0.447201 0)
(0.8944 0.4472 0)
(0.8944 0.447201 0)
(0.894401 0.447199 0)
(0.8944 0.447202 0)
(0.894404 0.447201 0)
(0.894401 0.4472 0)
(0.894405 0.447202 0)
(0.894403 0.447204 0)
(0.894408 0.447204 0)
(0.894412 0.447206 0)
(0.894412 0.44721 0)
(0.89442 0.447212 0)
(0.894425 0.447217 0)
(0.894429 0.447223 0)
(0.894438 0.447229 0)
(0.894446 0.447238 0)
(0.894446 0.447243 0)
(0.894449 0.447249 0)
(0.894444 0.447256 0)
(0.894422 0.447249 0)
(0.894385 0.447231 0)
(0.894318 0.447197 0)
(0.894208 0.447129 0)
(0.894035 0.447006 0)
(0.893775 0.446811 0)
(0.893399 0.446513 0)
(0.89287 0.446061 0)
(0.892145 0.44541 0)
(0.891176 0.444501 0)
(0.894435 0.447171 0)
(0.894427 0.447178 0)
(0.894421 0.447184 0)
(0.894416 0.447188 0)
(0.894412 0.447191 0)
(0.894409 0.447194 0)
(0.894407 0.447195 0)
(0.894405 0.447197 0)
(0.894404 0.447198 0)
(0.894402 0.447199 0)
(0.894402 0.447199 0)
(0.894401 0.447199 0)
(0.894401 0.447199 0)
(0.8944 0.4472 0)
(0.8944 0.4472 0)
(0.8944 0.4472 0)
(0.8944 0.4472 0)
(0.8944 0.4472 0)
(0.8944 0.4472 0)
(0.8944 0.4472 0)
(0.8944 0.4472 0)
(0.8944 0.4472 0)
(0.8944 0.4472 0)
(0.8944 0.4472 0)
(0.8944 0.4472 0)
(0.8944 0.4472 0)
(0.894399 0.4472 0)
(0.8944 0.4472 0)
(0.8944 0.447201 0)
(0.8944 0.4472 0)
(0.894401 0.4472 0)
(0.894399 0.447201 0)
(0.894401 0.447199 0)
(0.894399 0.4472 0)
(0.8944 0.4472 0)
(0.894401 0.4472 0)
(0.894399 0.4472 0)
(0.8944 0.4472 0)
(0.8944 0.447201 0)
(0.8944 0.447199 0)
(0.894399 0.447201 0)
(0.894401 0.4472 0)
(0.8944 0.447199 0)
(0.8944 0.447202 0)
(0.894401 0.447198 0)
(0.894399 0.447201 0)
(0.894401 0.4472 0)
(0.8944 0.4472 0)
(0.894401 0.447201 0)
(0.894401 0.4472 0)
(0.8944 0.447201 0)
(0.894404 0.447202 0)
(0.894402 0.447201 0)
(0.894405 0.447202 0)
(0.894405 0.447204 0)
(0.89441 0.447206 0)
(0.894411 0.447207 0)
(0.894417 0.447212 0)
(0.894421 0.447215 0)
(0.894426 0.447221 0)
(0.894433 0.447227 0)
(0.894438 0.447231 0)
(0.894443 0.447241 0)