/*--------------------------------*- C++ -*----------------------------------*\
  =========                 |
  \\      /  F ield         | OpenFOAM: The Open Source CFD Toolbox
   \\    /   O peration     | Website:  https://openfoam.org
    \\  /    A nd           | Version:  6
     \\/     M anipulation  |
\*---------------------------------------------------------------------------*/
FoamFile
{
    version     2.0;
    format      ascii;
    class       volVectorField;
    location    "8.25";
    object      U;
}
// * * * * * * * * * * * * * * * * * * * * * * * * * * * * * * * * * * * * * //

dimensions      [0 1 -1 0 0 0 0];

internalField   nonuniform List<vector> 
4096
(
(0.02966 -0.0345703 0.117864)
(0.0288548 -0.016695 0.1602)
(0.0220351 0.00360074 0.181461)
(0.0110575 0.0208698 0.176657)
(-0.00149436 0.0310556 0.144592)
(-0.0133405 0.0329872 0.0893874)
(-0.0231831 0.0281508 0.0204604)
(-0.0305734 0.0193027 -0.0496089)
(-0.0352215 0.00897381 -0.108449)
(-0.0364948 -0.00147173 -0.146849)
(-0.0335734 -0.0119334 -0.160126)
(-0.0260572 -0.0228046 -0.147956)
(-0.0145058 -0.0337968 -0.113462)
(-0.000586471 -0.0431872 -0.0621988)
(0.0131922 -0.0480729 -0.00127161)
(0.0240491 -0.0455937 0.0614377)
(0.0128632 -0.0116914 0.101431)
(0.0110263 0.0111307 0.137675)
(0.00538837 0.0375739 0.154015)
(-0.00243041 0.0611945 0.146295)
(-0.0105946 0.0770327 0.113784)
(-0.0177891 0.083205 0.06065)
(-0.0235364 0.0806689 -0.00410768)
(-0.0278712 0.0718229 -0.0687146)
(-0.0306966 0.0590778 -0.121758)
(-0.0314387 0.0440438 -0.15486)
(-0.0293034 0.0274868 -0.163926)
(-0.023878 0.00998697 -0.149055)
(-0.015601 -0.00710163 -0.113722)
(-0.00583504 -0.0210909 -0.0637551)
(0.00344135 -0.0283396 -0.00628033)
(0.010177 -0.0255853 0.0512006)
(-0.00522448 0.00970727 0.0820248)
(-0.0093167 0.0358131 0.110259)
(-0.0143542 0.0664866 0.120428)
(-0.0189531 0.0946594 0.109552)
(-0.0220932 0.114794 0.0775737)
(-0.0235078 0.124477 0.028607)
(-0.0236285 0.124181 -0.0291935)
(-0.0231072 0.11591 -0.0854697)
(-0.0222683 0.101872 -0.130329)
(-0.020912 0.0837778 -0.156585)
(-0.0185928 0.0628451 -0.160859)
(-0.0151098 0.0403779 -0.143628)
(-0.0108347 0.0185562 -0.108585)
(-0.00669133 0.000840668 -0.0616369)
(-0.00384171 -0.00852128 -0.00972788)
(-0.00323987 -0.00593487 0.040233)
(-0.0220787 0.0261838 0.0625573)
(-0.0292466 0.0533341 0.0820714)
(-0.0342301 0.085655 0.0857306)
(-0.0358873 0.115914 0.0719339)
(-0.0339772 0.138398 0.0413939)
(-0.0292084 0.150418 -0.00195037)
(-0.0228796 0.152073 -0.0511127)
(-0.0163222 0.144989 -0.0975425)
(-0.0104693 0.131093 -0.133182)
(-0.00576498 0.11201 -0.15219)
(-0.00238268 0.0891164 -0.151902)
(-0.000524242 0.0640777 -0.13304)
(-0.000551678 0.0395436 -0.0993149)
(-0.00286114 0.0194478 -0.0565225)
(-0.00759176 0.00842648 -0.0112931)
(-0.0143461 0.0102987 0.0301169)
(-0.0351373 0.035093 0.0461601)
(-0.0457636 0.0605918 0.0576383)
(-0.051232 0.0915228 0.0554888)
(-0.0506222 0.121 0.0394873)
(-0.0443266 0.143549 0.0110847)
(-0.0338153 0.156484 -0.0260618)
(-0.0210923 0.159681 -0.066279)
(-0.00814311 0.154432 -0.102929)
(0.00338404 0.142324 -0.129813)
(0.0122247 0.124703 -0.142388)
(0.0174039 0.10276 -0.13857)
(0.0181783 0.0780827 -0.119124)
(0.0141299 0.0533358 -0.0875519)
(0.00540526 0.0325262 -0.0493539)
(-0.00703895 0.0203868 -0.010788)
(-0.0213733 0.0208334 0.0224629)
(-0.0421707 0.0350485 0.0356282)
(-0.0562215 0.0560882 0.0410901)
(-0.062752 0.0825223 0.0348116)
(-0.0609841 0.108307 0.0177128)
(-0.0516924 0.128589 -0.0081649)
(-0.0367846 0.140938 -0.0394979)
(-0.018707 0.145168 -0.0718505)
(2.92257e-05 0.142317 -0.100302)
(0.0170714 0.133612 -0.120267)
(0.0302845 0.119952 -0.128259)
(0.0378223 0.102002 -0.122562)
(0.0383248 0.0808101 -0.103764)
(0.031242 0.0585457 -0.0749286)
(0.0171794 0.0388285 -0.0411036)
(-0.00191688 0.0261525 -0.00815751)
(-0.0229311 0.0244008 0.0186331)
(-0.0417049 0.0261735 0.0328307)
(-0.0587572 0.0404066 0.0353007)
(-0.0669571 0.0597244 0.0272775)
(-0.0655218 0.0793235 0.010391)
(-0.0552777 0.0952626 -0.0129538)
(-0.0381735 0.105577 -0.0397342)
(-0.0167552 0.110181 -0.0664652)
(0.00617649 0.109976 -0.0894924)
(0.0277111 0.105872 -0.105371)
(0.0449363 0.0982237 -0.111302)
(0.055188 0.0869071 -0.10568)
(0.0564872 0.0720085 -0.0887292)
(0.0480669 0.0547236 -0.0629122)
(0.0308017 0.0378357 -0.0326995)
(0.00732366 0.025274 -0.00356671)
(-0.0183546 0.0207674 0.0194246)
(-0.0334534 0.0100543 0.0382597)
(-0.0527004 0.0162418 0.0412275)
(-0.0630871 0.0269262 0.0341171)
(-0.0636387 0.0387562 0.0187054)
(-0.0548717 0.0488628 -0.0024993)
(-0.0383595 0.0558899 -0.0266598)
(-0.0163633 0.0600062 -0.0507952)
(0.00834777 0.0621414 -0.0718874)
(0.0325732 0.0630072 -0.0870145)
(0.0528531 0.0624292 -0.0936083)
(0.0658812 0.0593613 -0.0899317)
(0.0691377 0.0526564 -0.0757422)
(0.0615629 0.0421844 -0.0528422)
(0.0440295 0.0295519 -0.0250703)
(0.0193889 0.0178709 0.0024872)
(-0.00803883 0.0106064 0.0248162)
(-0.0186166 -0.0106344 0.0508958)
(-0.0388803 -0.0121665 0.0576996)
(-0.0516615 -0.0100782 0.0539616)
(-0.0556223 -0.00630204 0.0410111)
(-0.0506457 -0.00263434 0.021196)
(-0.0375607 0.000239101 -0.00266946)
(-0.0179871 0.00287591 -0.0275795)
(0.00567578 0.00641603 -0.0504336)
(0.0302701 0.011558 -0.0681429)
(0.0521144 0.0177358 -0.0778892)
(0.0675458 0.0230271 -0.0775975)
(0.0736738 0.0250001 -0.0665651)
(0.0691162 0.0220776 -0.0460139)
(0.0544571 0.0145504 -0.0192033)
(0.0322337 0.00459271 0.00913381)
(0.00639717 -0.00468848 0.0339033)
(0.000200683 -0.0327026 0.0684739)
(-0.0196189 -0.0400557 0.0817542)
(-0.0344902 -0.0449068 0.0832541)
(-0.0426177 -0.0480543 0.0733302)
(-0.0430333 -0.0503822 0.0539189)
(-0.0355748 -0.0519314 0.0279649)
(-0.020974 -0.0516688 -0.000982272)
(-0.000998607 -0.0480833 -0.0290266)
(0.0215448 -0.0402874 -0.0522292)
(0.0431118 -0.0290209 -0.0670632)
(0.0600408 -0.0168675 -0.0709639)
(0.0693309 -0.00734859 -0.0628686)
(0.0693326 -0.00332636 -0.0436267)
(0.060126 -0.0057102 -0.016097)
(0.0434676 -0.0132153 0.0152324)
(0.0223301 -0.0231526 0.0450832)
(0.0195975 -0.0529861 0.088046)
(0.00175308 -0.0631769 0.109375)
(-0.0143607 -0.0720776 0.117126)
(-0.0265107 -0.0798357 0.110323)
(-0.032813 -0.0867181 0.0902779)
(-0.0320327 -0.092229 0.060159)
(-0.0239349 -0.0948394 0.0244751)
(-0.00953752 -0.092572 -0.0114773)
(0.00891436 -0.084198 -0.0423257)
(0.0283305 -0.070404 -0.0634521)
(0.0454181 -0.0541188 -0.0717037)
(0.0573759 -0.0395608 -0.0658056)
(0.0624292 -0.0304641 -0.0465109)
(0.0600725 -0.0285813 -0.0165554)
(0.0509978 -0.0332983 0.01962)
(0.0367972 -0.0423406 0.0564378)
(0.0362824 -0.0686971 0.106605)
(0.0217045 -0.0784319 0.136326)
(0.00553551 -0.0879392 0.150381)
(-0.0096855 -0.0973017 0.146341)
(-0.0212546 -0.106561 0.124758)
(-0.0269535 -0.114867 0.0890418)
(-0.0256654 -0.120249 0.0449022)
(-0.0176899 -0.12026 -0.000570327)
(-0.00462375 -0.113266 -0.040183)
(0.0111199 -0.0997283 -0.067986)
(0.0269195 -0.0825864 -0.080197)
(0.0404561 -0.0662696 -0.0754693)
(0.0500097 -0.0548262 -0.0547226)
(0.0545396 -0.0503452 -0.0208741)
(0.053616 -0.0525409 0.0214244)
(0.0473285 -0.0594623 0.0661595)
(0.047808 -0.0776354 0.121551)
(0.0372389 -0.0840407 0.158802)
(0.0221919 -0.0908648 0.178295)
(0.00531551 -0.0987042 0.176271)
(-0.0100958 -0.107811 0.152512)
(-0.0210726 -0.117233 0.110633)
(-0.0258256 -0.124687 0.0575902)
(-0.0240747 -0.127336 0.00237976)
(-0.0167836 -0.123169 -0.0458787)
(-0.00557739 -0.112321 -0.079863)
(0.00777515 -0.0974455 -0.0951954)
(0.021618 -0.0827082 -0.0905634)
(0.0344343 -0.0719081 -0.0672402)
(0.044775 -0.0669449 -0.0285776)
(0.0512228 -0.0674786 0.0203166)
(0.0525046 -0.0717124 0.0728681)
(0.0528428 -0.0783963 0.130937)
(0.0462869 -0.0794658 0.173819)
(0.0332057 -0.0809986 0.19712)
(0.0161672 -0.0845727 0.196083)
(-0.00125383 -0.0910705 0.169842)
(-0.0156742 -0.0997286 0.122172)
(-0.0249242 -0.108147 0.0611376)
(-0.0283413 -0.113245 -0.00253837)
(-0.0263401 -0.112723 -0.0580174)
(-0.019753 -0.106334 -0.0967945)
(-0.00945586 -0.0962168 -0.114026)
(0.00360491 -0.0858779 -0.108516)
(0.0181876 -0.0784055 -0.0819876)
(0.0325807 -0.0750782 -0.0383785)
(0.044628 -0.0751654 0.0165946)
(0.052019 -0.07682 0.0757534)
(0.0510684 -0.0706354 0.133565)
(0.0477951 -0.0653376 0.1794)
(0.0370275 -0.0599256 0.204367)
(0.0211271 -0.0572452 0.203151)
(0.00361803 -0.0591336 0.174474)
(-0.0121005 -0.0653023 0.122245)
(-0.0238173 -0.073463 0.0553645)
(-0.0307127 -0.0804747 -0.0141598)
(-0.0327824 -0.0838519 -0.0742608)
(-0.0301604 -0.0829559 -0.115649)
(-0.0229228 -0.0792375 -0.133242)
(-0.0113837 -0.0752686 -0.126042)
(0.00348969 -0.0731171 -0.0962552)
(0.0198623 -0.0731568 -0.0484403)
(0.0351379 -0.0740293 0.0110638)
(0.0463918 -0.0736524 0.0745728)
(0.0429641 -0.0552866 0.129046)
(0.0416938 -0.0434465 0.174713)
(0.0331188 -0.0304445 0.198975)
(0.0193463 -0.0204781 0.196442)
(0.00354945 -0.0165046 0.165724)
(-0.0112595 -0.0189231 0.110846)
(-0.0231742 -0.0257715 0.0411817)
(-0.03145 -0.0340278 -0.0306088)
(-0.0358359 -0.0411332 -0.0919201)
(-0.0359512 -0.0460633 -0.133216)
(-0.0312798 -0.0494919 -0.149463)
(-0.0216697 -0.0529082 -0.139959)
(-0.0078564 -0.057207 -0.107386)
(0.00833705 -0.061721 -0.0568645)
(0.0241941 -0.0643358 0.00477243)
(0.0366334 -0.0626073 0.0695771)
(-0.0304141 -0.00797483 0.0848948)
(-0.0144344 0.00198005 0.125382)
(-0.00112724 0.0137342 0.14391)
(0.00835415 0.0235733 0.135914)
(0.0130497 0.0287215 0.101062)
(0.0119442 0.0284817 0.0444372)
(0.00421805 0.0242155 -0.0239809)
(-0.00997849 0.0183882 -0.091763)
(-0.0288038 0.0132425 -0.147331)
(-0.0488006 0.0096633 -0.18249)
(-0.0659083 0.00685521 -0.193312)
(-0.0767769 0.0032148 -0.17973)
(-0.0796437 -0.00212655 -0.144693)
(-0.0745354 -0.00828171 -0.0934073)
(-0.0629672 -0.0128531 -0.0327183)
(-0.0473692 -0.0132051 0.0294888)
(-0.0489274 0.0152751 0.0713465)
(-0.0338832 0.0303407 0.105221)
(-0.0195948 0.047891 0.118393)
(-0.00739909 0.0633825 0.107316)
(0.00116357 0.0733415 0.0722197)
(0.00431681 0.0765189 0.0181531)
(0.00055239 0.0738217 -0.0455339)
(-0.0104765 0.0673515 -0.107435)
(-0.0272648 0.0592095 -0.157026)
(-0.0465816 0.0505731 -0.186893)
(-0.0644641 0.0414564 -0.193571)
(-0.077488 0.0313982 -0.177314)
(-0.0836385 0.0206704 -0.141399)
(-0.082534 0.0110362 -0.0913629)
(-0.0751501 0.00538987 -0.0341798)
(-0.0632781 0.0064544 0.0225626)
(-0.064676 0.0344093 0.0600453)
(-0.0519383 0.0528213 0.0854694)
(-0.0374634 0.0742729 0.092172)
(-0.022749 0.0937116 0.0779274)
(-0.00990212 0.107246 0.0436406)
(-0.00143881 0.113253 -0.00585005)
(0.000420958 0.112252 -0.0622622)
(-0.00532065 0.105962 -0.115747)
(-0.0178244 0.0962358 -0.157272)
(-0.0345327 0.0843357 -0.18046)
(-0.0520018 0.0707936 -0.182403)
(-0.0669844 0.0559808 -0.163665)
(-0.0772261 0.0410573 -0.127803)
(-0.081732 0.028508 -0.0805776)
(-0.0805913 0.0216666 -0.0289234)
(-0.0745681 0.0233614 0.0200961)
(-0.0754008 0.0463154 0.0526362)
(-0.0660095 0.0656941 0.0691909)
(-0.0521326 0.0885013 0.0693955)
(-0.0353986 0.10958 0.0524438)
(-0.0183898 0.124963 0.0199136)
(-0.00423706 0.13288 -0.0237242)
(0.0041952 0.133577 -0.0715275)
(0.00518175 0.128412 -0.115485)
(-0.00134397 0.118895 -0.148262)
(-0.0138465 0.106126 -0.164601)
(-0.0297554 0.0907641 -0.162128)
(-0.0462458 0.0735727 -0.141611)
(-0.0608839 0.0562219 -0.106738)
(-0.0719335 0.0416684 -0.0633449)
(-0.0783423 0.0335713 -0.0182098)
(-0.0795643 0.0348771 0.0222121)
(-0.079354 0.0491189 0.050368)
(-0.073919 0.0666603 0.0591312)
(-0.0613801 0.0878637 0.0539157)
(-0.043445 0.107915 0.0352122)
(-0.0230102 0.123124 0.00515647)
(-0.00360928 0.131808 -0.0322525)
(0.0114048 0.13408 -0.0714726)
(0.0196097 0.13099 -0.106328)
(0.0199341 0.123651 -0.131131)
(0.0126964 0.112758 -0.141668)
(-0.000645751 0.0986682 -0.135964)
(-0.0179027 0.0820053 -0.114804)
(-0.0365755 0.0644593 -0.0817791)
(-0.0541738 0.0491066 -0.0426218)
(-0.0684006 0.0397539 -0.00388078)
(-0.0772835 0.0394758 0.0285429)
(-0.0756137 0.0425038 0.0538263)
(-0.0742427 0.0553825 0.0571359)
(-0.0636917 0.0720174 0.0484709)
(-0.0456667 0.0883616 0.0292911)
(-0.0231615 0.101315 0.00209499)
(0.000161109 0.109491 -0.0296116)
(0.020698 0.113021 -0.0615313)
(0.0354843 0.112749 -0.0890566)
(0.0425155 0.10939 -0.107871)
(0.0408878 0.10306 -0.114581)
(0.0308617 0.0934112 -0.107422)
(0.0138465 0.0803757 -0.0869726)
(-0.00774908 0.0651059 -0.056487)
(-0.0308066 0.0503668 -0.0213975)
(-0.0518841 0.0398824 0.012029)
(-0.0676888 0.0368597 0.038302)
(-0.0643503 0.0277292 0.0626924)
(-0.0665983 0.0336798 0.0636698)
(-0.0585118 0.0433275 0.0540168)
(-0.0416881 0.0537165 0.0356893)
(-0.0189755 0.0625591 0.0113217)
(0.00613991 0.068932 -0.0160004)
(0.0301061 0.073134 -0.0428845)
(0.0496891 0.075952 -0.0658136)
(0.0621942 0.0777893 -0.0813907)
(0.0656894 0.0781104 -0.0867196)
(0.0593337 0.0755724 -0.0800426)
(0.0437182 0.0689379 -0.0615657)
(0.0209936 0.0582867 -0.0340154)
(-0.00535481 0.04563 -0.00234912)
(-0.0310627 0.0343583 0.0275011)
(-0.051868 0.027798 0.0502879)
(-0.0470054 0.00731459 0.0756677)
(-0.0518619 0.00523383 0.0776455)
(-0.046409 0.00659433 0.0694944)
(-0.0320268 0.00968221 0.0531269)
(-0.0111853 0.0131221 0.0310924)
(0.0131 0.0165511 0.00621598)
(0.0376519 0.020576 -0.0185423)
(0.0593174 0.0261039 -0.0401343)
(0.0750879 0.0333919 -0.0555108)
(0.0823695 0.0413173 -0.0618943)
(0.0794985 0.0474283 -0.0573663)
(0.0663458 0.049024 -0.0417043)
(0.0446711 0.0447245 -0.0170405)
(0.017975 0.0354346 0.0122466)
(-0.00916325 0.0239923 0.0406096)
(-0.0320724 0.0137972 0.0629021)
(-0.0262842 -0.0155191 0.0906499)
(-0.0322461 -0.0251957 0.0966555)
(-0.0291451 -0.0319185 0.0921391)
(-0.0180672 -0.036222 0.0784368)
(-0.000926496 -0.0386104 0.0578154)
(0.0199609 -0.038869 0.0330472)
(0.0420694 -0.035984 0.00720227)
(0.0626734 -0.0287538 -0.0164434)
(0.0788781 -0.016857 -0.0345536)
(0.0879029 -0.00182063 -0.0440706)
(0.0876889 0.0128889 -0.0428009)
(0.0776307 0.0230804 -0.0301641)
(0.0590514 0.0257922 -0.00778939)
(0.0351101 0.0206673 0.0205087)
(0.0101151 0.00986245 0.0495793)
(-0.0115177 -0.00323216 0.0742719)
(-0.00577596 -0.037444 0.105136)
(-0.0110557 -0.052796 0.117518)
(-0.00951877 -0.0658892 0.118168)
(-0.0019422 -0.076349 0.107391)
(0.0104007 -0.0839825 0.0869965)
(0.0260052 -0.0880617 0.0599073)
(0.043153 -0.0871283 0.0298356)
(0.0597945 -0.0795609 0.000976185)
(0.0735285 -0.0647795 -0.0224194)
(0.0818803 -0.0444689 -0.0366302)
(0.0829 -0.0228407 -0.0391146)
(0.0758653 -0.00532178 -0.0290916)
(0.0617335 0.00373913 -0.00790551)
(0.0430589 0.00283059 0.0210446)
(0.0233569 -0.00656337 0.0529342)
(0.0061715 -0.0211607 0.0825153)
(0.0108601 -0.0554521 0.116734)
(0.00800623 -0.0735682 0.136927)
(0.00915356 -0.0902199 0.143547)
(0.0137762 -0.104548 0.135562)
(0.0212145 -0.11594 0.114185)
(0.0307465 -0.123286 0.0826388)
(0.0414573 -0.124714 0.0457138)
(0.0520675 -0.118138 0.00910279)
(0.0609275 -0.102595 -0.0214997)
(0.0662885 -0.0796927 -0.0413931)
(0.0667945 -0.0540214 -0.0476392)
(0.062001 -0.0317794 -0.0394206)
(0.0526653 -0.0182353 -0.0180553)
(0.040623 -0.015703 0.0132334)
(0.0282618 -0.0232162 0.0497773)
(0.0178257 -0.0376781 0.0861117)
(0.0208461 -0.0670888 0.123625)
(0.021759 -0.0847877 0.152018)
(0.0237974 -0.101741 0.16462)
(0.0265687 -0.117101 0.158967)
(0.0298957 -0.130172 0.135605)
(0.0336822 -0.139648 0.098142)
(0.0376697 -0.143333 0.0527044)
(0.041296 -0.138719 0.00684378)
(0.0437817 -0.12443 -0.0319842)
(0.0443941 -0.101817 -0.0579176)
(0.0427439 -0.0754689 -0.0675946)
(0.0389925 -0.051797 -0.0602658)
(0.0338871 -0.0363794 -0.037426)
(0.0285699 -0.0318366 -0.00237512)
(0.0242001 -0.037462 0.0401391)
(0.0215594 -0.0503681 0.0842768)
(0.0228846 -0.0706322 0.124865)
(0.0282304 -0.0851177 0.160741)
(0.0322225 -0.099319 0.17853)
(0.0344597 -0.112869 0.174468)
(0.0350419 -0.125343 0.148482)
(0.0342499 -0.135461 0.104579)
(0.0322414 -0.140848 0.0502748)
(0.0290215 -0.138688 -0.00495755)
(0.0246816 -0.127234 -0.0518736)
(0.0196453 -0.107466 -0.0834594)
(0.0146919 -0.0836243 -0.0959447)
(0.0107755 -0.0617892 -0.0886782)
(0.00877565 -0.0472443 -0.0634298)
(0.00925217 -0.0424167 -0.0237719)
(0.0122365 -0.0465767 0.0252332)
(0.0171417 -0.0570137 0.077215)
(0.017174 -0.0653354 0.120469)
(0.0268396 -0.0745913 0.162034)
(0.0334 -0.0836473 0.183458)
(0.0363252 -0.092985 0.180024)
(0.0357526 -0.102768 0.151192)
(0.0320438 -0.111977 0.101348)
(0.0254923 -0.118244 0.039242)
(0.0164712 -0.118602 -0.0239827)
(0.0058514 -0.111023 -0.0775733)
(-0.0048 -0.0960381 -0.113579)
(-0.0135191 -0.0772474 -0.127905)
(-0.0185319 -0.0599469 -0.11999)
(-0.0187576 -0.0486372 -0.0918933)
(-0.01407 -0.0451571 -0.0475721)
(-0.00533102 -0.0485191 0.00743252)
(0.00578463 -0.0561234 0.0661401)
(0.00502159 -0.05169 0.111306)
(0.0181897 -0.0545938 0.155844)
(0.0274213 -0.0569972 0.178757)
(0.0319874 -0.0604487 0.174846)
(0.0318317 -0.0659296 0.143357)
(0.027095 -0.0728915 0.0890035)
(0.0179274 -0.0791648 0.0214341)
(0.00485119 -0.081807 -0.0470569)
(-0.0106586 -0.0786116 -0.104745)
(-0.0260574 -0.0696185 -0.143125)
(-0.0383532 -0.0575676 -0.157939)
(-0.0450521 -0.0466442 -0.148721)
(-0.0448547 -0.0402441 -0.117811)
(-0.0378966 -0.0393722 -0.0695931)
(-0.0256225 -0.0426305 -0.0101387)
(-0.0104042 -0.0474594 0.0530233)
(-0.0116092 -0.0315517 0.0988476)
(0.00374453 -0.0278101 0.143057)
(0.0153192 -0.0229822 0.164987)
(0.0221676 -0.0197423 0.159497)
(0.0238475 -0.0199904 0.125906)
(0.0200163 -0.0237864 0.0691722)
(0.0104331 -0.0293197 -0.000622192)
(-0.00445537 -0.033828 -0.0707324)
(-0.0228276 -0.0350336 -0.12915)
(-0.041472 -0.0324829 -0.167289)
(-0.0566655 -0.027938 -0.180942)
(-0.0653751 -0.0242986 -0.169799)
(-0.0660767 -0.0237001 -0.136487)
(-0.058967 -0.0262048 -0.0858174)
(-0.045717 -0.0299268 -0.024325)
(-0.0289552 -0.0322893 0.0401264)
(-0.0778188 0.0197037 0.0382741)
(-0.0462547 0.0221259 0.0726548)
(-0.0148024 0.0255165 0.0874458)
(0.0124301 0.0277846 0.0789558)
(0.0312717 0.0273971 0.0474646)
(0.0380226 0.0242199 -0.00203712)
(0.0304529 0.0196597 -0.0606415)
(0.00894163 0.0160577 -0.117821)
(-0.0229876 0.0154934 -0.164155)
(-0.0593596 0.0184536 -0.193176)
(-0.0934747 0.0232903 -0.201815)
(-0.119697 0.0271877 -0.189965)
(-0.134462 0.0280605 -0.159884)
(-0.136426 0.0258449 -0.115755)
(-0.126148 0.0223002 -0.0633303)
(-0.105626 0.0197471 -0.00949815)
(-0.0971571 0.0374584 0.0298808)
(-0.0664679 0.0448285 0.0575206)
(-0.0342779 0.053532 0.0668189)
(-0.00479492 0.0608239 0.0551913)
(0.017441 0.0646546 0.0235149)
(0.0281981 0.064458 -0.0233022)
(0.0246646 0.0611995 -0.0770743)
(0.00663414 0.0567746 -0.128356)
(-0.0229317 0.0530273 -0.168771)
(-0.0584883 0.0507377 -0.192584)
(-0.0934806 0.0491898 -0.197146)
(-0.122078 0.0468662 -0.182634)
(-0.140275 0.0428857 -0.151627)
(-0.146188 0.0379725 -0.108651)
(-0.139827 0.0341748 -0.0596316)
(-0.122659 0.0336608 -0.0112195)
(-0.110914 0.0493944 0.028639)
(-0.0825708 0.0598217 0.0478453)
(-0.0505579 0.0719375 0.0506594)
(-0.0191212 0.0826277 0.0358247)
(0.00690463 0.0895706 0.00484648)
(0.0228257 0.0919307 -0.037648)
(0.0252269 0.090308 -0.0845593)
(0.0131052 0.0861415 -0.127912)
(-0.0115641 0.0809129 -0.160666)
(-0.0442055 0.0754269 -0.177982)
(-0.0788739 0.0695315 -0.177723)
(-0.10977 0.0626441 -0.160428)
(-0.132392 0.0548298 -0.129054)
(-0.144036 0.0474869 -0.0884625)
(-0.143778 0.0429631 -0.0446285)
(-0.132175 0.0433683 -0.00372257)
(-0.116912 0.0535384 0.0345896)
(-0.0921179 0.064558 0.0451989)
(-0.0612145 0.0775926 0.0417171)
(-0.028424 0.089512 0.0242193)
(0.00124098 0.0980109 -0.00524074)
(0.0227575 0.102185 -0.0424739)
(0.0321689 0.102395 -0.0816542)
(0.0275863 0.099668 -0.116432)
(0.00973379 0.0950322 -0.14119)
(-0.0181783 0.0890162 -0.152008)
(-0.0512268 0.0815481 -0.14722)
(-0.0839236 0.0724596 -0.127668)
(-0.11132 0.0623671 -0.0966171)
(-0.129731 0.0531452 -0.0591862)
(-0.13701 0.0474216 -0.0213099)
(-0.132508 0.0473613 0.0114244)
(-0.113937 0.0493194 0.0468509)
(-0.0934656 0.0581678 0.0502044)
(-0.0645329 0.069316 0.0417398)
(-0.031274 0.0799919 0.022655)
(0.00126576 0.0881953 -0.00461499)
(0.0279189 0.0931621 -0.0364109)
(0.0443382 0.0951696 -0.068176)
(0.0478132 0.0949417 -0.0951084)
(0.0377623 0.0930267 -0.112908)
(0.0158417 0.0894125 -0.118452)
(-0.014342 0.0835899 -0.110401)
(-0.0479071 0.0751822 -0.0897093)
(-0.0796275 0.0648335 -0.0597587)
(-0.104829 0.0545938 -0.0257798)
(-0.120017 0.0473017 0.00639696)
(-0.123188 0.0453001 0.03173)
(-0.10208 0.037631 0.0637086)
(-0.0861249 0.0416784 0.0622824)
(-0.0598261 0.0482433 0.0509455)
(-0.0271721 0.0552428 0.0316471)
(0.00691486 0.0612251 0.00698855)
(0.0373375 0.0657531 -0.0199102)
(0.0595881 0.0691979 -0.0455831)
(0.0703501 0.0721429 -0.0664965)
(0.0679042 0.074724 -0.0793936)
(0.0524085 0.0762263 -0.0817272)
(0.0260454 0.0752504 -0.072281)
(-0.00714778 0.0705737 -0.0518882)
(-0.0419215 0.0622649 -0.0237925)
(-0.0727876 0.052155 0.00686448)
(-0.09499 0.0431653 0.0344162)
(-0.105229 0.0379295 0.054237)
(-0.0828746 0.0205793 0.0827674)
(-0.0709436 0.0178561 0.0796054)
(-0.0475987 0.0177528 0.0678199)
(-0.0166334 0.0191049 0.0496486)
(0.0172961 0.0211659 0.0276454)
(0.0493784 0.0239649 0.00447058)
(0.0752217 0.0281382 -0.0171761)
(0.0912374 0.0343328 -0.0345929)
(0.0949289 0.0424321 -0.0451652)
(0.0852589 0.0510004 -0.0466413)
(0.0631162 0.0574536 -0.0377411)
(0.0315948 0.0591943 -0.0189963)
(-0.00430646 0.0551366 0.00670815)
(-0.038626 0.0464628 0.0345282)
(-0.0656782 0.0359987 0.059038)
(-0.0811615 0.026741 0.0758743)
(-0.0591896 0.000982923 0.101231)
(-0.0500952 -0.0093418 0.0993836)
(-0.0295513 -0.0171142 0.0894205)
(-0.00113264 -0.0224981 0.0733842)
(0.0308769 -0.0254881 0.0536004)
(0.0621324 -0.0255219 0.0324327)
(0.0886313 -0.0215643 0.0122494)
(0.106899 -0.0127001 -0.00452694)
(0.114148 0.00092298 -0.0154336)
(0.108648 0.017276 -0.0182093)
(0.0903646 0.0325165 -0.0113899)
(0.0615451 0.0423771 0.00484325)
(0.0267248 0.0442065 0.0280617)
(-0.00810267 0.0381784 0.05387)
(-0.0368581 0.0268322 0.0771691)
(-0.0547477 0.0135247 0.093731)
(-0.0348779 -0.0182134 0.116294)
(-0.0268717 -0.0355781 0.118414)
(-0.00844544 -0.0506585 0.112091)
(0.0170345 -0.0626988 0.0987204)
(0.0457047 -0.0710111 0.0802583)
(0.0737955 -0.0745186 0.0589864)
(0.0979021 -0.0717227 0.0374414)
(0.115019 -0.0612823 0.0183866)
(0.122581 -0.0431509 0.00467546)
(0.118773 -0.01972 -0.00110995)
(0.103185 0.00406185 0.00272979)
(0.077514 0.0222726 0.0162721)
(0.0457462 0.0305817 0.0374805)
(0.0134726 0.0279831 0.0624452)
(-0.0134622 0.0165832 0.086447)
(-0.0304034 1.20943e-05 0.105302)
(-0.0141128 -0.0343931 0.125573)
(-0.00518822 -0.056948 0.133693)
(0.0122555 -0.0776617 0.132258)
(0.0350081 -0.0950928 0.121646)
(0.0596061 -0.108043 0.10333)
(0.082865 -0.115019 0.0797293)
(0.10207 -0.114076 0.0540437)
(0.11493 -0.10337 0.0299891)
(0.119541 -0.0824879 0.0113431)
(0.114601 -0.0539226 0.00130599)
(0.0999461 -0.0234074 0.00183002)
(0.0771426 0.00179688 0.0130858)
(0.0496881 0.0159088 0.0332471)
(0.022449 0.0168327 0.0587997)
(0.000468085 0.00619757 0.0853769)
(-0.0123462 -0.0122398 0.108753)
(-0.000465022 -0.0454787 0.127503)
(0.0112379 -0.0705284 0.14291)
(0.0290523 -0.0942691 0.147019)
(0.0498356 -0.114921 0.138942)
(0.0704362 -0.131022 0.1196)
(0.0881624 -0.140819 0.0917301)
(0.100948 -0.142003 0.059595)
(0.107313 -0.132242 0.0283622)
(0.106323 -0.110674 0.0031604)
(0.0976812 -0.0796592 -0.0119538)
(0.0820187 -0.0453164 -0.0147537)
(0.0612083 -0.0157201 -0.00511249)
(0.0384163 0.00240428 0.0151595)
(0.017627 0.00620211 0.0427744)
(0.00270265 -0.00309756 0.0735916)
(-0.00363433 -0.0217681 0.103222)
(0.00395585 -0.0499906 0.121638)
(0.0197726 -0.0745986 0.144761)
(0.0392124 -0.0983977 0.154437)
(0.0590931 -0.119665 0.148452)
(0.0764353 -0.136962 0.127169)
(0.0888674 -0.148464 0.0937584)
(0.0948203 -0.151625 0.0537873)
(0.0935965 -0.143718 0.0141477)
(0.0853828 -0.123429 -0.018466)
(0.0712178 -0.0928208 -0.0390264)
(0.0529188 -0.0579834 -0.0450005)
(0.0329878 -0.0271961 -0.036342)
(0.0144298 -0.00748634 -0.0149546)
(0.000340143 -0.00200374 0.0159283)
(-0.00673716 -0.00975298 0.0521957)
(-0.00545732 -0.027162 0.0891264)
(-0.00112578 -0.0471377 0.108814)
(0.0193836 -0.0686737 0.139091)
(0.0413297 -0.0897538 0.153655)
(0.061392 -0.109087 0.149115)
(0.0765982 -0.12554 0.125366)
(0.0846785 -0.137414 0.0860686)
(0.0843494 -0.14209 0.0381215)
(0.0755725 -0.136583 -0.00987318)
(0.0596815 -0.119196 -0.0497214)
(0.0391876 -0.0915694 -0.0754803)
(0.0172711 -0.0593849 -0.0842947)
(-0.00278345 -0.0305352 -0.0761383)
(-0.0180133 -0.011726 -0.0530051)
(-0.0261168 -0.00594158 -0.0181972)
(-0.0257913 -0.0122329 0.0239958)
(-0.0170146 -0.0272586 0.0683461)
(-0.0143878 -0.037018 0.0910756)
(0.0105987 -0.0535091 0.126871)
(0.0354234 -0.0696841 0.144906)
(0.0565619 -0.0849724 0.140952)
(0.0708879 -0.098784 0.114624)
(0.0760101 -0.109731 0.0700684)
(0.0707001 -0.115296 0.0153362)
(0.0554 -0.112409 -0.0395721)
(0.0324835 -0.099092 -0.0853001)
(0.00587706 -0.0764715 -0.115216)
(-0.019913 -0.0494857 -0.126179)
(-0.0408251 -0.0251399 -0.118094)
(-0.0538721 -0.00931753 -0.0929833)
(-0.0573837 -0.00448378 -0.0542901)
(-0.0510684 -0.00958514 -0.00664389)
(-0.0359852 -0.0215461 0.0441162)
(-0.0334893 -0.0208235 0.0713298)
(-0.00490672 -0.0311008 0.11001)
(0.0226824 -0.040986 0.129438)
(0.04553 -0.0507975 0.125031)
(0.0602258 -0.0606418 0.0963745)
(0.0640611 -0.0695893 0.0480376)
(0.0556457 -0.0753897 -0.0111389)
(0.0356767 -0.0750669 -0.0703016)
(0.00732377 -0.0664787 -0.119466)
(-0.0243274 -0.0501847 -0.15166)
(-0.0536616 -0.0301165 -0.163572)
(-0.0759454 -0.0120238 -0.155003)
(-0.0881072 -0.000637015 -0.127974)
(-0.0888859 0.00231299 -0.0861186)
(-0.0786734 -0.00192439 -0.0344844)
(-0.059256 -0.0105477 0.0205122)
(-0.0556184 -0.000865505 0.0527752)
(-0.0247688 -0.00457687 0.0910243)
(0.00510582 -0.00765484 0.109365)
(0.0300542 -0.0113451 0.103401)
(0.0462999 -0.0164993 0.0729552)
(0.0506749 -0.0227242 0.0228948)
(0.0414413 -0.0281605 -0.0376389)
(0.0192835 -0.030089 -0.0976137)
(-0.0122125 -0.0263317 -0.147034)
(-0.0472369 -0.0168813 -0.17899)
(-0.079416 -0.00451884 -0.190183)
(-0.103487 0.00646429 -0.180382)
(-0.1162 0.0126543 -0.151661)
(-0.116416 0.0131487 -0.107901)
(-0.104823 0.00943872 -0.0545462)
(-0.083526 0.00406585 0.00159773)
(-0.10446 0.0441509 -0.0130924)
(-0.0616325 0.040372 0.012457)
(-0.0175573 0.0366157 0.02341)
(0.0214462 0.0321296 0.017126)
(0.049007 0.0264713 -0.00594818)
(0.0598105 0.0201102 -0.0419083)
(0.051024 0.0146399 -0.0841784)
(0.0235279 0.0123955 -0.125282)
(-0.0178116 0.0153573 -0.158722)
(-0.0653048 0.0236967 -0.180066)
(-0.110603 0.035079 -0.187075)
(-0.146704 0.0456897 -0.179395)
(-0.168955 0.0523819 -0.158301)
(-0.175117 0.0541793 -0.126561)
(-0.165059 0.0521635 -0.0882682)
(-0.140441 0.0482866 -0.048546)
(-0.124014 0.0503087 -0.0147344)
(-0.0819567 0.051081 0.00429893)
(-0.0372395 0.0522795 0.00987174)
(0.00379374 0.0526327 0.000421839)
(0.0345802 0.0512614 -0.0230093)
(0.0494423 0.0481878 -0.0565714)
(0.0450006 0.044447 -0.0943395)
(0.0214071 0.0417564 -0.12982)
(-0.0172707 0.0417273 -0.157489)
(-0.0639466 0.0448136 -0.173656)
(-0.110417 0.0497197 -0.176566)
(-0.149329 0.0540584 -0.1662)
(-0.175386 0.0559392 -0.14414)
(-0.18566 0.0551238 -0.11345)
(-0.179439 0.052876 -0.0783685)
(-0.157934 0.0509054 -0.0437985)
(-0.136763 0.0503832 -0.00570609)
(-0.0968911 0.053715 0.00522851)
(-0.0523766 0.0579404 0.0044763)
(-0.00950819 0.0615296 -0.0082971)
(0.0250505 0.0633849 -0.0314789)
(0.0453219 0.0632392 -0.0614535)
(0.0473227 0.0616671 -0.0932092)
(0.030212 0.0597811 -0.121478)
(-0.00321958 0.0586886 -0.141875)
(-0.0470611 0.0588026 -0.15156)
(-0.0937084 0.059424 -0.149387)
(-0.135626 0.0591799 -0.135843)
(-0.166727 0.0571744 -0.112993)
(-0.183058 0.0538256 -0.0842656)
(-0.182923 0.05064 -0.0539438)
(-0.166734 0.0492296 -0.0264469)
(-0.140358 0.0443163 0.0123663)
(-0.103897 0.0477314 0.0151573)
(-0.0605251 0.0525161 0.00835066)
(-0.0164016 0.0571914 -0.00721994)
(0.0218191 0.060699 -0.0294952)
(0.0479733 0.0626913 -0.0552438)
(0.0575246 0.0634562 -0.0804905)
(0.0485566 0.0636082 -0.101256)
(0.0223275 0.0636802 -0.114292)
(-0.0168337 0.0636977 -0.117565)
(-0.0623594 0.0629851 -0.110488)
(-0.106818 0.0605886 -0.094047)
(-0.143368 0.0561941 -0.0708085)
(-0.166837 0.0507159 -0.0445727)
(-0.174251 0.0459452 -0.0196036)
(-0.164934 0.0435677 0.000286413)
(-0.133752 0.0332158 0.0366575)
(-0.101536 0.0341218 0.0327109)
(-0.0602082 0.03681 0.0212303)
(-0.0157388 0.0401564 0.00397542)
(0.0253409 0.0433971 -0.016744)
(0.0568363 0.0463333 -0.0381802)
(0.0738183 0.0491963 -0.0573807)
(0.0734154 0.0522988 -0.0715524)
(0.0553641 0.0556345 -0.0784365)
(0.0222429 0.0585656 -0.0766303)
(-0.0207543 0.0598461 -0.0659161)
(-0.0666635 0.0582348 -0.0475981)
(-0.108104 0.0534456 -0.0246045)
(-0.138687 0.046625 -0.00102191)
(-0.154023 0.0398503 0.0189356)
(-0.152188 0.0350601 0.0320383)
(-0.117642 0.0190865 0.063568)
(-0.0899044 0.0152132 0.0553075)
(-0.0512813 0.0133965 0.0412575)
(-0.00752184 0.0131107 0.0237379)
(0.0350651 0.0140923 0.00508787)
(0.0704243 0.0165024 -0.01246)
(0.0934739 0.0207659 -0.0268345)
(0.100677 0.0271584 -0.0361885)
(0.090515 0.0352903 -0.0389914)
(0.0639308 0.0437326 -0.0342255)
(0.0246122 0.0501813 -0.0217948)
(-0.0212723 0.0524021 -0.00305783)
(-0.0661479 0.0494974 0.0189387)
(-0.102631 0.042479 0.039989)
(-0.125001 0.0336492 0.0559646)
(-0.130109 0.0253608 0.0640935)
(-0.0944668 0.00436157 0.0891945)
(-0.0707073 -0.00581984 0.0794741)
(-0.0350161 -0.0138689 0.0651675)
(0.00707539 -0.0195692 0.0487349)
(0.0495446 -0.0225613 0.0323452)
(0.0866263 -0.0221712 0.0177693)
(0.113352 -0.0175578 0.00645607)
(0.125912 -0.00819985 -0.000335256)
(0.121995 0.00537692 -0.00146086)
(0.101302 0.021002 0.00397508)
(0.0661648 0.035035 0.0161561)
(0.0217898 0.0436913 0.0338871)
(-0.0244342 0.0448538 0.0542478)
(-0.0645428 0.038983 0.0731213)
(-0.0918226 0.0284741 0.086532)
(-0.102139 0.0161972 0.0920118)
(-0.0680138 -0.00862724 0.109843)
(-0.0469941 -0.0255998 0.101426)
(-0.0139138 -0.0405925 0.0889383)
(0.0258803 -0.0526163 0.0745626)
(0.0666682 -0.0606647 0.0601478)
(0.103075 -0.0634851 0.0471423)
(0.130483 -0.0596734 0.0367368)
(0.145221 -0.0482285 0.03006)
(0.144755 -0.0295384 0.0282713)
(0.128145 -0.00632223 0.0323969)