/*--------------------------------*- C++ -*----------------------------------*\
  =========                 |
  \\      /  F ield         | OpenFOAM: The Open Source CFD Toolbox
   \\    /   O peration     | Website:  https://openfoam.org
    \\  /    A nd           | Version:  6
     \\/     M anipulation  |
\*---------------------------------------------------------------------------*/
FoamFile
{
    version     2.0;
    format      ascii;
    class       surfaceScalarField;
    location    "10";
    object      phi;
}
// * * * * * * * * * * * * * * * * * * * * * * * * * * * * * * * * * * * * * //

dimensions      [0 3 -1 0 0 0 0];

internalField   nonuniform List<scalar> 
11520
(
-0.00021491
-0.000345285
-0.000174969
-0.000102544
-0.000200068
-3.44595e-05
-6.10486e-06
-5.28361e-05
0.00010249
5.81245e-05
7.26625e-05
0.000214502
7.95863e-05
0.000156005
0.000283273
5.57744e-05
0.000184279
0.000297196
-7.83297e-06
0.000154343
0.000253611
-9.99667e-05
7.24112e-05
0.000159262
-0.000206403
-4.8211e-05
2.92065e-05
-0.000312112
-0.000189664
-0.000115587
-0.000402573
-0.000331598
-0.000251927
-0.000464996
-0.00045331
-0.000358767
-0.000489901
-0.000536564
-0.000420866
-0.000472774
-0.000568554
-0.000430555
-0.00041516
-0.000543994
-0.000387619
-0.000465896
-0.000298393
-0.000252396
-0.000408098
-0.000266433
-0.000117841
-0.000267778
-0.00015592
6.7044e-06
-0.000116401
-3.93647e-05
0.000101284
2.22876e-05
6.62029e-05
0.000150424
0.000126178
0.000143982
0.00014636
0.000178916
0.000180441
9.04588e-05
0.000172937
0.000168161
-7.63588e-06
0.000110347
0.000107795
-0.000132371
1.62831e-06
8.72046e-06
-0.00026496
-0.000136709
-0.000112162
-0.000385848
-0.000284449
-0.000233886
-0.000477193
-0.000419949
-0.000336339
-0.000525417
-0.000522917
-0.000404584
-0.000523323
-0.000577565
-0.000430731
-0.000471122
-0.000575261
-0.00041336
-0.000515932
-0.000356051
-0.000261643
-0.000445731
-0.000334452
-0.000115417
-0.000317528
-0.000257135
2.74632e-05
-0.000167882
-0.000165062
0.000144992
-1.95783e-05
-7.04032e-05
0.000218179
0.000104489
1.25067e-05
0.000234744
0.00018503
6.93147e-05
0.000191744
0.000209767
8.85898e-05
9.61541e-05
0.000175455
6.49295e-05
-3.66307e-05
8.79139e-05
1.30853e-06
-0.00018564
-3.94868e-05
-9.06236e-05
-0.000327769
-0.000187909
-0.000193277
-0.000441417
-0.000335299
-0.000288204
-0.000509858
-0.000459242
-0.000360952
-0.000523625
-0.000540506
-0.0004032
-0.000481426
-0.000566445
-0.000412006
-0.000533126
-0.000388022
-0.000237833
-0.000451709
-0.000364325
-9.16907e-05
-0.000341171
-0.000318128
5.74179e-05
-0.000199083
-0.000251061
0.000187271
-4.64351e-05
-0.000170669
0.000277204
9.40869e-05
-8.81959e-05
0.000311835
0.000201192
-1.7474e-05
0.000284454
0.000258353
2.76126e-05
0.000198858
0.000256664
3.67895e-05
6.89029e-05
0.000196267
7.07099e-06
-8.41106e-05
8.60998e-05
-5.54166e-05
-0.000235488
-5.74501e-05
-0.000137107
-0.000361655
-0.000212589
-0.000221794
-0.000444096
-0.000355121
-0.000295758
-0.000471842
-0.000462528
-0.000350243
-0.000442225
-0.000518154
-0.000380839
-0.000514045
-0.000385666
-0.000181197
-0.000426324
-0.000349161
-4.60066e-05
-0.000336282
-0.000326785
9.70148e-05
-0.000206263
-0.000281038
0.000227191
-5.48932e-05
-0.000215902
0.000324147
9.62613e-05
-0.000139491
0.000371212
0.000225039
-6.39035e-05
0.000359079
0.000311683
-3.46269e-06
0.00028849
0.000342158
2.8816e-05
0.000170791
0.000310795
2.5579e-05
2.5844e-05
0.000221515
-1.18389e-05
-0.000122148
8.7532e-05
-7.39015e-05
-0.00024959
-7.02728e-05
-0.000146971
-0.00033771
-0.000226527
-0.000218326
-0.000375019
-0.000356014
-0.000278928
-0.000357924
-0.0004386
-0.000323192
-0.000462692
-0.00034748
-9.8971e-05
-0.000375855
-0.000292501
1.6827e-05
-0.000305874
-0.000282594
0.000143072
-0.000190172
-0.000250502
0.000262074
-4.48282e-05
-0.000198407
0.000355541
0.000110391
-0.000131959
0.000407412
0.000253572
-6.07765e-05
0.000407331
0.00036306
2.36089e-06
0.00035369
0.000420852
4.42919e-05
0.000254905
0.000416182
5.5698e-05
0.000128008
0.000348127
3.47282e-05
-5.18009e-06
0.000226506
-1.24428e-05
-0.000122908
7.08037e-05
-7.47056e-05
-0.000207647
-9.31204e-05
-0.000140499
-0.00024844
-0.00023819
-0.000200681
-0.000241405
-0.00034167
-0.000248873
-0.00038914
-0.000280573
-4.95589e-06
-0.000310147
-0.000206962
8.61338e-05
-0.000256623
-0.000196187
0.00018772
-0.000154932
-0.000167387
0.000286062
-1.88156e-05
-0.000123083
0.000366363
0.000134134
-6.76921e-05
0.000414864
0.000283224
-8.23656e-06
0.00042179
0.000406317
4.55608e-05
0.000384256
0.000483028
8.28548e-05
0.000307867
0.000498869
9.50214e-05
0.00020597
0.000448975
7.91554e-05
9.65336e-05
0.000340112
3.93211e-05
-2.11686e-06
0.000190173
-1.5412e-05
-7.50303e-05
2.4869e-05
-7.4564e-05
-0.000112763
-0.000127819
-0.000128994
-0.00011182
-0.00024367
-0.000171876
-0.000306589
-0.000198675
8.34736e-05
-0.000239854
-0.000109711
0.000147702
-0.000196639
-8.51742e-05
0.000220056
-0.000106426
-4.86753e-05
0.000291198
1.88554e-05
-5.14626e-06
0.000350741
0.000163878
4.07608e-05
0.000388536
0.000309942
8.42139e-05
0.000396822
0.000435826
0.00011937
0.000372599
0.000520547
0.000139549
0.000319174
0.00054772
0.000139157
0.000245908
0.000510022
0.000116425
0.000165999
0.000412027
7.49035e-05
9.3201e-05
0.000270186
2.25345e-05
3.88381e-05
0.000109553
-3.08982e-05
1.00351e-05
-4.1992e-05
-7.62207e-05
9.3184e-06
-0.000160042
-0.000106449
-0.00022824
-0.000117722
0.000149736
-0.000174489
-1.73457e-05
0.000187991
-0.000133854
3.12825e-05
0.000230038
-5.10258e-05
8.4876e-05
0.000270883
6.3115e-05
0.000134508
0.000304959
0.000195354
0.000174
0.000326559
0.000329581
0.000200049
0.000331006
0.000446806
0.00021087
0.000316212
0.000527301
0.000204967
0.000283872
0.000554833
0.000181389
0.000239534
0.000521449
0.000141317
0.000191324
0.00043077
8.94092e-05
0.000147845
0.00029824
3.36501e-05
0.000116176
0.00014788
-1.62358e-05
0.000100617
6.45023e-06
-5.09007e-05
0.000102336
-0.000102876
-6.34707e-05
-0.00016503
-5.13795e-05
0.000182183
-0.000121688
5.74973e-05
0.000198469
-7.54976e-05
0.000136556
0.000212876
4.8404e-06
0.000213341
0.000224169
0.000108572
0.000274099
0.00023147
0.000224202
0.0003103
0.000233839
0.000338594
0.00031952
0.00023032
0.000436183
0.000303751
0.000220494
0.000500293
0.000266898
0.000205168
0.000516908
0.000213422
0.000186637
0.000479361
0.000148638
0.000168272
0.000391689
7.96689e-05
0.000153633
0.000268901
1.57079e-05
0.000145537
0.000133697
-3.28762e-05
0.000145386
1.07225e-05
-5.64257e-05
0.000152856
-7.94724e-05
-4.85008e-05
-0.000124587
-8.39155e-06
0.000176721
-8.73739e-05
0.000107035
0.000178315
-2.83805e-05
0.00021821
0.000171776
5.44579e-05
0.000320177
0.000158475
0.000149512
0.000394351
0.000141474
0.000246347
0.000429571
0.000124342
0.000334859
0.000423756
0.00011001
0.000403819
0.00038206
0.00010022
0.000441181
0.000313369
9.56198e-05
0.000437005
0.000227563
9.61566e-05
0.000387641
0.000134633
0.000101408
0.000298789
4.50661e-05
0.000110762
0.000185544
-2.98172e-05
0.00012346
6.90409e-05
-7.84707e-05
0.000138449
-2.90373e-05
-9.09442e-05
0.000154062
-9.19026e-05
-6.16477e-05
-0.000111137
7.79522e-06
0.000137123
-7.6062e-05
0.000127418
0.000134289
9.03076e-07
0.000267744
0.00011735
9.07216e-05
0.000392903
8.85976e-05
0.000179967
0.000480205
5.35949e-05
0.000258355
0.000516006
1.94908e-05
0.000318396
0.000498072
-7.23088e-06
0.000353563
0.000433796
-2.24162e-05
0.000357504
0.000336107
-2.47653e-05
0.000325744
0.000219722
-1.54006e-05
0.00025895
9.92765e-05
3.04018e-06
0.000165394
-1.09661e-05
2.7381e-05
6.06284e-05
-9.70663e-05
5.46381e-05
-3.59357e-05
-0.000146107
8.2206e-05
-0.000106096
-0.000148084
0.000107434
-0.000137434
-9.87053e-05
-0.000125906
-2.18657e-06
7.29048e-05
-9.05876e-05
0.000117345
7.76646e-05
6.62629e-06
0.000279776
6.352e-05
0.000106925
0.000422975
3.16668e-05
0.00019443
0.000521397
-1.18677e-05
0.000257976
0.000559302
-5.79659e-05
0.000291715
0.000533719
-9.74319e-05
0.000293375
0.000453027
-0.000123645
0.000262505
0.000332793
-0.000133742
0.000200711
0.000191505
-0.000128283
0.000113645
4.79191e-05
-0.000110052
1.26314e-05
-8.0011e-05
-8.26587e-05
-8.6086e-05
-0.000175703
-4.95253e-05
-0.000164752
-0.000225033
-1.36558e-05
-0.000208608
-0.000218314
2.1753e-05
-0.000209477
-0.000152863
-0.000167426
-3.53387e-05
-4.22878e-06
-0.000131051
7.73518e-05
1.97028e-05
-1.44261e-05
0.000251797
2.18616e-05
9.85341e-05
0.00040583
3.85052e-07
0.000189272
0.00051259
-4.05478e-05
0.000244796
0.000554726
-9.19379e-05
0.00025949
0.000527827
-0.000143162
0.000233987
0.000439717
-0.000185309
0.000172853
0.000306795
-0.000213035
8.33965e-05
0.000149784
-0.000224571
-2.38285e-05
-9.44334e-06
-0.000220592
-0.000134393
-0.00014981
-0.000202863
-0.000231165
-0.000252478
-0.000173385
-0.00029761
-0.000302506
-0.000134416
-0.000321693
-0.000290842
-8.92833e-05
-0.000298554
-0.000216374
-0.000231397
-8.75259e-05
-8.34974e-05
-0.000193463
1.02592e-05
-3.18109e-05
-6.10601e-05
0.000184926
-2.36395e-06
6.51582e-05
0.000341558
-1.5333e-06
0.000164201
0.000453609
-2.90569e-05
0.000220621
0.000502664
-7.82269e-05
0.000227483
0.000482194
-0.00013857
0.000186287
0.000397814
-0.000199384
0.000104707
0.000264678
-0.000252197
-5.64421e-06
0.000103801
-0.000291388
-0.000130151
-6.13233e-05
-0.000313534
-0.000251616
-0.000207501
-0.000316567
-0.000351812
-0.000314319
-0.000299487
-0.000414611
-0.000366444
-0.000262852
-0.000429364
-0.000355539
-0.000209765
-0.000392951
-0.0002816
-0.000310223
-0.000153675
-0.000156192
-7.75472e-05
-7.31321e-05
8.53453e-05
-1.02756e-05
0.000236116
2.08824e-05
0.000350105
1.5356e-05
0.000408515
-2.42318e-05
0.000402264
-8.91974e-05
0.0003333
-0.000167943
0.000213445
-0.000248803
6.17995e-05
-0.000321428
-9.83938e-05
-0.000377013
-0.000243182
-0.000408335
-0.000351403
-0.000410342
-0.000407664
-0.00038123
-0.000404147
-0.000323515
-0.000341175
-0.000227052
-0.000276066
-0.000343828
-0.000181442
-0.000168086
-0.000216765
-6.1943e-05
-6.07658e-05
-7.6276e-05
6.5827e-05
2.86838e-05
5.62549e-05
0.000181922
8.60626e-05
0.000160092
0.0002671
0.000102959
0.000218905
0.000306749
7.79122e-05
0.0002237
0.000294007
1.57591e-05
0.000174002
0.000231129
-7.39457e-05
7.74545e-05
0.000128937
-0.000178383
-5.14027e-05
4.59102e-06
-0.000282657
-0.000192892
-0.000121841
-0.000371327
-0.000324984
-0.000231173
-0.000430659
-0.000427152
-0.000308148
-0.00045111
-0.000484105
-0.000342984
-0.00042913
-0.000487983
-0.000331612
-0.000438792
-0.000275464
-0.000356937
-0.000427239
-0.000290455
-0.000225968
-0.000302664
-0.000200989
-9.08584e-05
-0.000156208
-9.45425e-05
2.79416e-05
-9.81656e-06
1.34744e-05
0.000112058
0.000114051
0.000105906
0.000148417
0.00019608
0.000166907
0.000131511
0.000223487
0.000185281
6.40303e-05
0.000192119
0.000157159
-4.38894e-05
0.000106856
8.72387e-05
-0.000176126
-1.93385e-05
-1.19898e-05
-0.000312558
-0.000167225
-0.000123121
-0.000431925
-0.000313991
-0.000227965
-0.000515507
-0.000436908
-0.000311246
-0.000550577
-0.000517248
-0.000362517
-0.000532397
-0.000543265
-0.000376258
-0.000511593
-0.000351277
-0.000409025
-0.000493827
-0.000381391
-0.000265183
-0.000379054
-0.000324587
-0.000111518
-0.000232091
-0.000242843
2.96032e-05
-7.46609e-05
-0.00014668
0.000136808
6.9715e-05
-5.03624e-05
0.00019309
0.000179058
3.00553e-05
0.000188902
0.000236455
7.98096e-05
0.000124047
0.000232919
8.89844e-05
7.97107e-06
0.000168793
5.54472e-05
-0.000141437
5.35908e-05
-1.41444e-05
-0.000300456
-9.53443e-05
-0.000106139
-0.000443542
-0.000255151
-0.000203958
-0.00054814
-0.000400876
-0.000292385
-0.000598813
-0.000509733
-0.000360042
-0.000589329
-0.000565135
-0.00039962
-0.000559279
-0.000407113
-0.000420695
-0.000531711
-0.000435593
-0.000275996
-0.000432885
-0.000408997
-0.000115821
-0.000291468
-0.000351859
3.71457e-05
-0.000128118
-0.000270179
0.00016012
3.3465e-05
-0.00017492
0.000233493
0.00016941
-8.11996e-05
0.000244373
0.000259046
-5.85758e-06
0.000189464
0.000288231
3.63856e-05
7.64012e-05
0.000251788
3.71389e-05
-7.6978e-05
0.000154464
-2.91044e-06
-0.000245546
1.05087e-05
-7.43919e-05
-0.000401666
-0.000157989
-0.000162836
-0.000520679
-0.000324288
-0.000253333
-0.000585332
-0.0004617
-0.000333623
-0.000587869
-0.000548719
-0.000394718
-0.000572792
-0.000430175
-0.000386186
-0.000535068
-0.000441489
-0.000252218
-0.000455823
-0.000437815
-9.81833e-05
-0.000325142
-0.000401399
5.4526e-05
-0.00016193
-0.000334799
0.000183464
1.08545e-05
-0.000245818
0.00026811
0.000168511
-0.00014765
0.000293475
0.000287552
-5.73349e-05
0.000253546
0.000349197
7.77962e-06
0.000153427
0.000342654
3.48313e-05
9.20247e-06
0.000267349
1.95006e-05
-0.000154918
0.000133702
-3.29746e-05
-0.00031161
-3.77184e-05
-0.000110549
-0.000436084
-0.000219134
-0.000199007
-0.000510455
-0.000380716
-0.000285541
-0.000525767
-0.000496688
-0.000359911
-0.000550138
-0.000414028
-0.000308961
-0.00050505
-0.000398597
-0.000194874
-0.000445667
-0.000406838
-5.80504e-05
-0.000328758
-0.000383709
8.27681e-05
-0.00017114
-0.000330015
0.000207091
5.70985e-06
-0.000251137
0.00029524
0.000177372
-0.000157787
0.000331693
0.000318838
-6.53791e-05
0.000308606
0.000407861
8.7151e-06
0.000228383
0.000428813
4.97613e-05
0.00010408
0.000376079
5.03027e-05
-4.30407e-05
0.000256103
1.22766e-05
-0.000188194
8.74279e-05
-5.46984e-05
-0.000308358
-0.000101992
-0.000137478
-0.0003863
-0.000280302
-0.000223152
-0.000412472
-0.000418602
-0.000300787
-0.000496568
-0.000361577
-0.000202136
-0.000448546
-0.000317277
-0.000113518
-0.000405925
-0.000324546
-1.82978e-06
-0.000303107
-0.000304727
0.000117745
-0.000154876
-0.000258922
0.000227909
1.91946e-05
-0.000191341
0.000311351
0.000195903
-0.000110209
0.000353589
0.000350095
-2.79331e-05
0.000346134
0.000457636
4.05347e-05
0.000289051
0.000499526
8.13926e-05
0.000191703
0.000466172
8.64091e-05
7.09642e-05
0.000360547
5.56158e-05
-5.26747e-05
0.000199024
-3.36939e-06
-0.000159559
8.96097e-06
-7.86326e-05
-0.000234304
-0.000177016
-0.000157536
-0.000267498
-0.000328323
-0.00022896
-0.00042257
-0.000284224
-8.54779e-05
-0.000375728
-0.000214564
-2.41779e-05
-0.00034409
-0.000208309
5.8274e-05
-0.000253201
-0.000181032
0.000150629
-0.000116198
-0.00013618
0.000239522
4.93552e-05
-7.82926e-05
0.000311101
0.000222142
-1.36056e-05
0.000353236
0.000378119
4.92119e-05
0.000358004
0.000492969
9.94477e-05
0.000323838
0.000546191
0.000126657
0.000256378
0.000525875
0.000124183
0.000167375
0.000432599
9.18546e-05
7.19204e-05
0.00028086
3.61525e-05
-1.48344e-05
9.68602e-05
-3.20426e-05
-8.02967e-05
-8.7241e-05
-0.000100533
-0.000115887
-0.000240775
-0.000158406
-0.000340897
-0.000197769
1.97065e-05
-0.000297633
-0.000108703
5.52507e-05
-0.000269608
-7.87438e-05
0.000108204
-0.000186763
-3.45159e-05
0.000171129
-6.1171e-05
1.65573e-05
0.000234827
9.14576e-05
6.81997e-05
0.000289511
0.000252118
0.000115389
0.000326283
0.000398926
0.00015329
0.000338778
0.000509023
0.000176418
0.000324623
0.000562396
0.000179339
0.00028617
0.000546776
0.000158869
0.000230022
0.000461834
0.000116322
0.000165501
0.000320841
5.81918e-05
0.00010271
0.000148542
-5.12698e-06
5.08965e-05
-2.44995e-05
-6.18288e-05
1.73039e-05
-0.000169164
-0.000101489
-0.000263881
-0.000117537
9.57028e-05
-0.000224582
-1.50507e-05
0.000110111
-0.000192437
4.49764e-05
0.000136978
-0.000112911
0.000112622
0.000172076
2.27192e-06
0.000175558
0.000210131
0.000138914
0.00022479
0.000245542
0.00028052
0.000255707
0.000273073
0.000408219
0.000266926
0.000288552
0.000502068
0.000258374
0.000289552
0.000544428
0.00023039
0.000275863
0.00052463
0.000184473
0.000249535
0.000443039
0.000124791
0.000214495
0.000312548
5.90409e-05
0.000175962
0.000156349
-2.15015e-06
0.000139805
2.4319e-06
-4.72001e-05
0.000111715
-0.000123146
-6.64297e-05
-0.000201722
-5.50407e-05
0.000131922
-0.000165539
5.55361e-05
0.000132622
-0.000122383
0.000147455
0.000140339
-4.14126e-05
0.000240961
0.000152992
6.52468e-05
0.000318724
0.000168488
0.000184373
0.000368616
0.000185053
0.000301932
0.000385779
0.000201087
0.000402665
0.000371579
0.0002149
0.000470742
0.000330882
0.000224623
0.000492502
0.000269767
0.000228409
0.000460579
0.000194898
0.000224869
0.000377461
0.000114184
0.000213648
0.000256478
3.74744e-05
0.000195989
0.000119271
-2.37341e-05
0.000174923
-9.48024e-06
-5.79661e-05
0.000154696
-0.000107989
-5.65767e-05
-0.000161783
-1.69137e-05
0.000126008
-0.000127949
9.63432e-05
0.000122801
-6.87742e-05
0.000217342
0.000121446
1.7844e-05
0.000335001
0.000120549
0.00011868
0.000427669
0.000119937
0.000220785
0.000480206
0.000120753
0.000312204
0.000486984
0.000124557
0.000381476
0.000451182
0.000132135
0.000417658
0.000381612
0.000142719
0.000412219
0.000289421
0.000153949
0.000362329
0.000186297
0.000162587
0.000273637
8.422e-05
0.000165764
0.000160523
-4.28876e-06
0.00016231
4.31539e-05
-6.65354e-05
0.000153462
-5.75132e-05
-9.12025e-05
0.000142372
-0.000124624
-7.09801e-05
-0.000148566
-5.55537e-06
8.25411e-05
-0.000117458
0.000103692
8.6576e-05
-3.98061e-05
0.000246773
8.83263e-05
5.57373e-05
0.000383331
8.53931e-05
0.000154323
0.000488687
7.78127e-05
0.000242483
0.000545185
6.81952e-05
0.000309566
0.000545974
6.03284e-05
0.000347502
0.000494867
5.72346e-05
0.000350342
0.000403204
5.97901e-05
0.000315157
0.000286012
6.64658e-05
0.000244262
0.00015931
7.41567e-05
0.000147004
3.8931e-05
7.97195e-05
3.91863e-05
-5.99289e-05
8.15647e-05
-6.02958e-05
-0.000123428
8.04535e-05
-0.000134109
-0.000140607
7.88954e-05
-0.000170261
-0.000105669
-0.000163896
-2.04909e-05
1.02462e-05
-0.000137113
7.62291e-05
3.22985e-05
-4.12248e-05
0.000231164
4.95421e-05
6.54404e-05
0.000378883
5.69665e-05
0.000166156
0.000493333
5.29153e-05
0.000246185
0.000555075
3.963e-05
0.000295086
0.000555593
2.18078e-05
0.00030709
0.000497952
4.23912e-06
0.000280475
0.00039423
-1.00349e-05
0.000217535
0.00026168
-2.02571e-05
0.000125597
0.000119444
-2.72492e-05
1.77224e-05
-1.35355e-05
-3.20285e-05
-8.86681e-05
-0.000119844
-3.45123e-05
-0.000175499
-0.00018482
-3.30914e-05
-0.000228325
-0.000198048
-2.54888e-05
-0.000239097
-0.00015514
-0.000206831
-5.95485e-05
-8.06871e-05
-0.000186096
1.5228e-05
-3.23044e-05
-7.46449e-05
0.000169963
1.06899e-05
4.41736e-05
0.000319831
3.94892e-05
0.000151773
0.000439193
4.90599e-05
0.000231593
0.000507686
3.93912e-05
0.000272176
0.000514772
1.45486e-05
0.000268428
0.000461319
-1.96292e-05
0.000221238
0.000358093
-5.76248e-05
0.000136829
0.000222503
-9.51199e-05
2.66449e-05
7.51237e-05
-0.000128703
-9.30071e-05
-6.31885e-05
-0.000155103
-0.000203023
-0.000173564
-0.000170724
-0.000285406
-0.000240915
-0.000171989
-0.000327223
-0.000255376
-0.000156525
-0.000322681
-0.00021348
-0.000273106
-0.000119224
-0.000179818
-7.41577e-05
-0.000101056
6.8206e-05
-2.6249e-05
0.000211101
3.14846e-05
0.000331019
6.26581e-05
0.000407637
6.34839e-05
0.00042826
3.58752e-05
0.000390287
-1.42609e-05
0.000301102
-7.90547e-05
0.000175942
-0.000149899
3.47577e-05
-0.000217824
-0.000101184
-0.000273753
-0.000212437
-0.000309284
-0.000283773
-0.000318067
-0.000305603
-0.000297327
-0.000274599
-0.000194052
-0.000283063
-0.000272981
-0.000157932
-0.00019212
-0.000174359
-7.15225e-05
-8.78112e-05
-5.69566e-05
3.23491e-05
1.39397e-05
6.27204e-05
0.000137517
9.73308e-05
0.000166889
0.000226478
0.000149491
0.000239209
0.000283959
0.000162659
0.000267654
0.000300253
0.000135119
0.000246721
0.000273214
7.10675e-05
0.000178642
0.000208375
-2.00455e-05
7.36044e-05
0.000117315
-0.000124577
-5.13266e-05
1.4924e-05
-0.00022646
-0.000175186
-8.34937e-05
-0.000309814
-0.000277676
-0.000164407
-0.000361801
-0.000343488
-0.000217264
-0.000374763
-0.000364474
-0.000235047
-0.000339451
-0.000214733
-0.000402981
-0.00037294
-0.000272399
-0.000287838
-0.000275078
-0.000215412
-0.000155782
-0.00015035
-0.000133205
-2.57353e-05
-1.63158e-05
-3.75363e-05
8.30236e-05
0.000107448
5.65885e-05
0.00015371
0.000201988
0.000133442
0.000174857
0.000252042
0.000179745
0.000142342
0.000248813
0.000187582
6.02877e-05
0.00019179
0.000156145
-5.91288e-05
8.9335e-05
9.16959e-05
-0.000197106
-4.22274e-05
5.75639e-06
-0.000331228
-0.000181306
-8.77227e-05
-0.0004398
-0.000305317
-0.000175033
-0.000506172
-0.000395186
-0.000244446
-0.000521433
-0.000438443
-0.000287028
-0.000430245
-0.000297034
-0.00049826
-0.000468045
-0.000376855
-0.000368277
-0.000378378
-0.000351271
-0.000216841
-0.000251426
-0.000293203
-6.48643e-05
-0.000105173
-0.0002098
6.57902e-05
3.9451e-05
-0.00011302
0.000155075
0.00016101
-1.8252e-05
0.000188001
0.000240609
5.8317e-05
0.000157608
0.000265073
0.000103117
6.69405e-05
0.00022948
0.000108425
-7.05186e-05
0.000138456
7.41938e-05
-0.000232474
5.93131e-06
7.65789e-06
-0.000391821
-0.00014686
-7.90569e-05
-0.000522334
-0.000295128
-0.000172062
-0.000604079
-0.000415288
-0.000258195
-0.000626529
-0.000489296
-0.000326318
-0.000507264
-0.000367794
-0.000550561
-0.00054129
-0.000450696
-0.000417789
-0.000466407
-0.000453739
-0.000258715
-0.000343381
-0.000418978
-9.48796e-05
-0.000189793
-0.000349395
5.05762e-05
-2.71569e-05
-0.000253768
0.000155513
0.00012123
-0.000146356
0.00020219
0.000233107
-4.50321e-05
0.000180866
0.00029061
3.21722e-05
9.26698e-05
0.000283473
7.13422e-05
-4.9309e-05
0.000211274
6.625e-05
-0.000221597
8.42361e-05
1.95918e-05
-0.000394884
-7.77582e-05
-5.86517e-05
-0.000540447
-0.000248266
-0.000154632
-0.000636117
-0.000399331
-0.000253911
-0.000669623
-0.000507129
-0.000343379
-0.000556232
-0.00041192
-0.000547512
-0.000580127
-0.000478607
-0.000424251
-0.00052427
-0.000503212
-0.000270454
-0.000410855
-0.000487722
-0.000106794
-0.000256296
-0.000431956
4.38239e-05
-8.17747e-05
-0.000341819
0.000158674
8.85366e-05
-0.000229807
0.000218501
0.00022989
-0.000113944
0.000211345
0.000320241
-1.46944e-05
0.000135948
0.000343955
4.97462e-05
3.415e-06
0.000295072
6.8236e-05
-0.000164081
0.000179362
3.93954e-05
-0.000337812
1.45156e-05
-2.90914e-05
-0.00048895
-0.000172272
-0.000123863
-0.00059449
-0.000349579
-0.000229753
-0.000640657
-0.000488544
-0.000332328
-0.000568587
-0.000418864
-0.000487416
-0.00057925
-0.000455657
-0.000383769
-0.000543269
-0.000491486
-0.00024683
-0.000443185
-0.000488319
-9.5086e-05
-0.000293763
-0.000444292
5.02474e-05
-0.000115065
-0.00036318
0.00016742
6.89563e-05
-0.000255379
0.000237144
0.00023233
-0.000137544
0.000246224
0.000350033
-3.01571e-05
0.000191045
0.000401942
4.6953e-05
7.95778e-05
0.000376983
7.98591e-05
-6.943e-05
0.000276427
6.42193e-05
-0.0002304
0.000115253
5.53338e-06
-0.000376704
-7.96168e-05
-8.38281e-05
-0.000486048
-0.000274694
-0.000188694
-0.000543736
-0.000437506
-0.000294137
-0.000543423
-0.000386877
-0.00038075
-0.000540958
-0.000388452
-0.000302997
-0.00052217
-0.000423398
-0.000191184
-0.000436349
-0.000423376
-6.07013e-05
-0.000296511
-0.000386657
7.00242e-05
-0.000121113
-0.000316018
0.000181551
6.70283e-05
-0.000219808
0.000256001
0.000242059
-0.000112112
0.000280145
0.000377576
-1.11526e-05
0.000248527
0.000450547
6.44062e-05
0.000165505
0.000446044
0.000100369
4.49864e-05
0.00036154
9.10212e-05
-9.25198e-05
0.000209231
4.01587e-05
-0.000224482
1.48574e-05
-4.1145e-05
-0.000330753
-0.000187601
-0.000138356
-0.000396525
-0.000363881
-0.000236814
-0.000486894
-0.000323645
-0.000247525
-0.000473421
-0.000291929
-0.000197666
-0.000466328
-0.00031401
-0.000115004
-0.000393016
-0.000307027
-1.14406e-05
-0.000264967
-0.000271287
9.80005e-05
-9.8892e-05
-0.000209955
0.000197075
8.41332e-05
-0.000129785
0.000270442
0.000259512
-4.16078e-05
0.000306003
0.000401109
4.03541e-05
0.000297289
0.000484926
0.000100991
0.000245235
0.000494033
0.000128248
0.00015837
0.000423433
0.000116827
5.10758e-05
0.000282986
6.96921e-05
-5.94544e-05
9.66527e-05
-3.30775e-06
-0.000156357
-0.00010259
-8.86415e-05
-0.000225547
-0.000280634
-0.000172462
-0.000409816
-0.000243041
-0.00011189
-0.00038808
-0.000184089
-8.80544e-05
-0.000385549
-0.000183359
-3.43562e-05
-0.000321064
-0.000160166
4.06908e-05
-0.000204984
-0.000118473
0.000125588
-5.23821e-05
-6.32078e-05
0.00020768
0.000117698
-2.67481e-07
0.00027483
0.000282759
6.28929e-05
0.00031694
0.000418384
0.000117033
0.00032743
0.000501542
0.000152233
0.000304473
0.000515387
0.000160472
0.000251499
0.000454171
0.000138557
0.000176615
0.000326315
8.97476e-05
9.12066e-05
0.000153789
2.31449e-05
8.21331e-06
-3.26669e-05
-4.8759e-05
-5.96855e-05
-0.000200962
-0.000113263
-0.00032481
-0.000160292
3.654e-06
-0.000297333
-8.14947e-05
6.50125e-06
-0.000291865
-5.15552e-05
3.51477e-05
-0.000231578
-5.51008e-06
8.39267e-05
-0.000126214
4.80087e-05
0.000144562
1.05182e-05
0.000101254
0.000207924
0.000161679
0.000148365
0.00026527
0.000307433
0.000184906
0.000308977
0.000426226
0.000206825
0.000333081
0.000497682
0.000210147
0.000333901
0.000506991
0.000192049
0.00031065
0.000449452
0.000152761
0.00026585
0.000333167
9.69883e-05
0.000205438
0.000178253
3.37981e-05
0.000138395
1.23298e-05
-2.51547e-05
7.563e-05
-0.00013613
-6.84964e-05
-0.000244017
-8.8161e-05
8.25385e-05
-0.000213062
3.00388e-06
7.19364e-05
-0.000197943
6.41357e-05
8.26066e-05
-0.000137157
0.00013587
0.000110804
-4.03699e-05
0.000204682
0.000150779
7.9678e-05
0.000259481
0.000196459
0.000208043
0.000293735
0.000242266
0.000327875
0.00030533
0.000283121
0.000421311
0.000294942
0.000314177
0.00047192
0.000264473
0.000330856
0.00046852
0.00021669
0.000329466
0.000408997
0.000156029
0.000308329
0.000302237
8.95424e-05
0.000269054
0.000166837
2.69566e-05
0.000217293
2.6774e-05
-2.06486e-05
0.000162187
-9.4263e-05
-4.33377e-05
-0.000177747
-3.52731e-05
0.000116027
-0.000145914
6.05068e-05
0.000101373
-0.000116132
0.000150185
0.00010368
-5.07061e-05
0.000246243
0.000119891
4.02497e-05
0.000330839
0.000145705
0.000144467
0.000389603
0.000177238
0.000248681
0.000414814
0.000211463
0.000339058
0.000405774
0.000245605
0.000401883
0.000366897
0.000276241
0.000425502
0.000305202
0.00029889
0.00040342
0.000228747
0.00030857
0.000337201
0.000146335
0.000301322
0.000237376
6.78196e-05
0.000276193
0.000121424
4.00626e-06
0.000236659
9.534e-06
-3.4429e-05
0.000190439
-7.99818e-05
-3.90409e-05
-0.000133961
-6.24161e-06
0.000102812
-0.000104856
8.53267e-05
9.44824e-05
-5.76727e-05
0.000196643
9.96206e-05
1.56494e-05
0.000311838
0.000114465
0.000104109
0.000409983
0.000134787
0.000195338
0.000473992
0.000157632
0.000277177
0.000494633
0.000181554
0.000338444
0.000471559
0.000205605
0.000369523
0.000411513
0.000228007
0.000363785
0.000325327
0.000245443
0.00031987
0.000225424
0.000253483
0.000243563
0.000124529
0.000248167
0.000147572
3.5191e-05
0.000228132
4.86959e-05
-3.06646e-05
0.000196167
-3.63855e-05
-6.27217e-05
0.00015907
-9.46093e-05
-5.39445e-05
-0.000118184
-2.7032e-06
4.71553e-05
-9.65101e-05
7.43332e-05
5.52117e-05
-3.16214e-05
0.000197056
7.44916e-05
5.18991e-05
0.000323353
9.92058e-05
0.000141842
0.000430886
0.000123705
0.000225152
0.000500761
0.000144448
0.000289966
0.000522061
0.000160322
0.000326904
0.000493619
0.000171537
0.00032976
0.000422778
0.000178121
0.000296478
0.000322403
0.000179013
0.000230599
0.000207823
0.000172276
0.000142097
9.46668e-05
0.000156344
4.60839e-05
-2.42417e-06
0.000131699
-4.08002e-05
-7.06787e-05
0.000101977
-0.000104584
-0.000100127
7.35719e-05
-0.000136519
-8.48251e-05
-0.000133346
-2.44202e-05
-4.31133e-05
-0.000123989
2.70681e-05
-1.05291e-05
-4.33548e-05
0.000149113
3.24947e-05
5.17169e-05
0.000276989
7.71326e-05
0.00014761
0.000388788
0.000115004
0.000230043
0.000464923
0.000140468
0.000286509
0.000492765
0.000151367
0.000308162
0.000469161
0.000148235
0.000290872
0.000400114
0.000132903
0.000235951
0.00029836
0.000107518
0.000150898
0.00018021
7.43966e-05
4.92874e-05
6.27431e-05
3.65546e-05
-5.14122e-05
-3.82254e-05
-1.6369e-06
-0.00013406
-0.000109464
-3.43403e-05
-0.000186042
-0.000141215
-5.51293e-05
-0.000201186
-0.000128024
-0.000179153
-6.97938e-05
-0.000157591
-5.32002e-05
-9.58338e-05
5.60899e-05
-2.29114e-05
0.000176021
4.87911e-05
0.00028686
0.000107308
0.000369506
0.000143702
0.000409796
0.000153489
0.000401595
0.000136563
0.000347634
9.62672e-05
0.000258161
3.84685e-05
0.000148238
-2.90336e-05
3.46985e-05
-9.703e-05
-6.64626e-05
-0.000155747
-0.000141829
-0.000196128
-0.000181509
-0.000211334
-0.000179708
-0.000135403
-0.000234533
-0.000145567
-0.000107367
-0.000170177
-8.15719e-05
-6.00841e-05
-8.21546e-05
-2.58847e-07
9.62143e-06
1.68452e-05
8.85814e-05
9.0939e-05
0.000111763
0.000172928
0.000170372
0.000187585
0.000239766
0.00023444
0.000232056
0.000277262
0.000272577
0.000237892
0.000277315
0.000279248
0.000204045
0.000237872
0.000254643
0.000135909
0.000164428
0.000203916
4.44824e-05
6.98579e-05
0.000135517
-5.55448e-05
-2.82581e-05
5.9479e-05
-0.000148503
-0.000112387
-1.38156e-05
-0.000220535
-0.000169666
-7.44694e-05
-0.000261611
-0.000193941
-0.000113894
-0.000184828
-0.000125815
-0.000383951
-0.000255044
-0.000214652
-0.000294005
-0.000191304
-0.000195625
-0.00017793
-0.000102357
-0.000147183
-5.14256e-05
6.9687e-07
-7.6156e-05
6.7462e-05
0.000104053
6.57624e-06
0.000160531
0.000192387
8.77509e-05
0.000212361
0.000251046
0.000154131
0.000213314
0.00026887
0.000195075
0.000161837
0.000240978
0.000204515
6.54697e-05
0.00017072
0.000181772
-5.99707e-05
6.99119e-05
0.000131143
-0.000193289
-4.33831e-05
6.07202e-05
-0.000312416
-0.000149301
-1.89921e-05
-0.00039902
-0.000231028
-9.64801e-05
-0.000441499
-0.000277844
-0.000160646
-0.000285514
-0.000202165
-0.000517103
-0.000373497
-0.000321458
-0.000409988
-0.000317468
-0.000332222
-0.000273195
-0.000225607
-0.000306746
-0.00012469
-0.000109852
-0.000247755
1.51101e-05
1.44394e-05
-0.000163207
0.000125328
0.000129597
-6.56794e-05
0.000187643
0.0002177
2.9347e-05
0.000189876
0.000263543
0.000106211
0.000129222
0.000257877
0.00015218
1.4093e-05
0.00020003
0.000160012
-0.000136483
9.89672e-05
0.000129178
-0.000296452
-2.79946e-05
6.55239e-05
-0.000438636
-0.000158903
-2.02751e-05
-0.000540775
-0.000272197
-0.000114888
-0.000589326
-0.00035108
-0.000204531
-0.000385761
-0.000276714
-0.000609865
-0.000479997
-0.000407553
-0.000497479
-0.000438353
-0.000445241
-0.000351268
-0.000349479
-0.000441317
-0.000190266
-0.000225438
-0.000394812
-3.62059e-05
-8.25213e-05
-0.000310867
8.83281e-05
5.97179e-05
-0.000201011
0.000162864
0.000180286
-8.21533e-05
0.000172893