/*--------------------------------*- C++ -*----------------------------------*\
  =========                 |
  \\      /  F ield         | OpenFOAM: The Open Source CFD Toolbox
   \\    /   O peration     | Website:  https://openfoam.org
    \\  /    A nd           | Version:  6
     \\/     M anipulation  |
\*---------------------------------------------------------------------------*/
FoamFile
{
    version     2.0;
    format      ascii;
    class       volScalarField;
    location    "2.85";
    object      mag(U);
}
// * * * * * * * * * * * * * * * * * * * * * * * * * * * * * * * * * * * * * //

dimensions      [0 1 -1 0 0 0 0];

internalField   nonuniform List<scalar> 
10000
(
0.99997
0.99997
0.99997
0.99997
0.99997
0.99997
0.99997
0.99997
0.99997
0.99997
0.99997
0.99997
0.99997
0.99997
0.99997
0.99997
0.99997
0.99997
0.99997
0.99997
0.99997
0.99997
0.99997
0.99997
0.99997
0.99997
0.99997
0.99997
0.99997
0.99997
0.99997
0.99997
0.99997
0.99997
0.99997
0.99997
0.99997
0.99997
0.99997
0.99997
0.99997
0.99997
0.99997
0.99997
0.99997
0.99997
0.99997
0.99997
0.99997
0.99997
0.99997
0.999969
0.999968
0.999966
0.999966
0.999964
0.999962
0.999962
0.999961
0.99996
0.999961
0.999962
0.999964
0.999966
0.999969
0.999972
0.999974
0.999976
0.999977
0.999979
0.999979
0.999978
0.999977
0.999976
0.999975
0.999974
0.999973
0.999971
0.999971
0.999971
0.99997
0.99997
0.99997
0.99997
0.99997
0.99997
0.99997
0.99997
0.99997
0.99997
0.99997
0.99997
0.99997
0.99997
0.99997
0.99997
0.99997
0.99997
0.99997
0.99997
0.99997
0.99997
0.99997
0.99997
0.99997
0.99997
0.99997
0.99997
0.99997
0.99997
0.99997
0.99997
0.99997
0.99997
0.99997
0.99997
0.99997
0.99997
0.99997
0.99997
0.99997
0.99997
0.99997
0.99997
0.99997
0.99997
0.99997
0.99997
0.99997
0.99997
0.99997
0.99997
0.99997
0.99997
0.99997
0.99997
0.99997
0.99997
0.99997
0.99997
0.99997
0.99997
0.99997
0.99997
0.99997
0.99997
0.99997
0.99997
0.99997
0.99997
0.99997
0.999969
0.999968
0.999966
0.999963
0.999961
0.999958
0.999956
0.999956
0.999955
0.999956
0.999958
0.99996
0.999964
0.999969
0.999973
0.999977
0.999979
0.999982
0.999983
0.999983
0.999983
0.999981
0.99998
0.999978
0.999976
0.999975
0.999973
0.999972
0.999971
0.999971
0.99997
0.99997
0.99997
0.99997
0.99997
0.99997
0.99997
0.99997
0.99997
0.99997
0.99997
0.99997
0.99997
0.99997
0.99997
0.99997
0.99997
0.99997
0.99997
0.99997
0.99997
0.99997
0.99997
0.99997
0.99997
0.99997
0.99997
0.99997
0.99997
0.99997
0.99997
0.99997
0.99997
0.99997
0.99997
0.99997
0.99997
0.99997
0.99997
0.99997
0.99997
0.99997
0.99997
0.99997
0.99997
0.99997
0.99997
0.99997
0.99997
0.99997
0.99997
0.99997
0.99997
0.99997
0.99997
0.99997
0.99997
0.99997
0.99997
0.99997
0.99997
0.99997
0.99997
0.99997
0.999971
0.99997
0.99997
0.999971
0.99997
0.99997
0.999969
0.999966
0.999964
0.999961
0.999957
0.999954
0.999951
0.999948
0.999947
0.999949
0.999951
0.999956
0.999962
0.999968
0.999974
0.99998
0.999984
0.999988
0.99999
0.999991
0.99999
0.999987
0.999985
0.999983
0.99998
0.999978
0.999975
0.999974
0.999972
0.999971
0.999971
0.99997
0.99997
0.99997
0.99997
0.99997
0.99997
0.99997
0.99997
0.99997
0.99997
0.99997
0.99997
0.99997
0.99997
0.99997
0.99997
0.99997
0.99997
0.99997
0.99997
0.99997
0.99997
0.99997
0.99997
0.99997
0.99997
0.99997
0.99997
0.99997
0.99997
0.99997
0.99997
0.99997
0.99997
0.99997
0.99997
0.99997
0.99997
0.99997
0.99997
0.99997
0.99997
0.99997
0.99997
0.99997
0.99997
0.99997
0.99997
0.99997
0.99997
0.99997
0.99997
0.99997
0.99997
0.99997
0.99997
0.99997
0.99997
0.99997
0.99997
0.99997
0.99997
0.99997
0.99997
0.999972
0.999971
0.999971
0.999971
0.99997
0.999969
0.999966
0.999962
0.999957
0.999952
0.999946
0.999942
0.999939
0.999938
0.999939
0.999943
0.99995
0.999958
0.999968
0.999977
0.999986
0.999992
0.999998
1
1
1
0.999997
0.999993
0.999989
0.999985
0.999981
0.999977
0.999975
0.999974
0.999972
0.999971
0.99997
0.99997
0.99997
0.99997
0.99997
0.99997
0.99997
0.99997
0.99997
0.99997
0.99997
0.99997
0.99997
0.99997
0.99997
0.99997
0.99997
0.99997
0.99997
0.99997
0.99997
0.99997
0.99997
0.99997
0.99997
0.99997
0.99997
0.99997
0.99997
0.99997
0.99997
0.99997
0.99997
0.99997
0.99997
0.99997
0.99997
0.99997
0.99997
0.99997
0.99997
0.99997
0.99997
0.99997
0.99997
0.99997
0.99997
0.99997
0.99997
0.99997
0.99997
0.99997
0.99997
0.99997
0.99997
0.99997
0.99997
0.99997
0.99997
0.99997
0.99997
0.99997
0.999971
0.999971
0.999972
0.999973
0.999974
0.999973
0.999972
0.999969
0.999966
0.99996
0.999953
0.999945
0.999937
0.999931
0.999926
0.999924
0.999926
0.999932
0.999942
0.999954
0.999967
0.999982
0.999994
1
1.00001
1.00002
1.00002
1.00001
1.00001
1
0.999998
0.999992
0.999987
0.999982
0.999978
0.999975
0.999973
0.999972
0.99997
0.99997
0.99997
0.99997
0.99997
0.99997
0.99997
0.99997
0.99997
0.99997
0.99997
0.99997
0.99997
0.99997
0.99997
0.99997
0.99997
0.99997
0.99997
0.99997
0.99997
0.99997
0.99997
0.99997
0.99997
0.99997
0.99997
0.99997
0.99997
0.99997
0.99997
0.99997
0.99997
0.99997
0.99997
0.99997
0.99997
0.99997
0.99997
0.99997
0.99997
0.99997
0.99997
0.99997
0.99997
0.99997
0.99997
0.99997
0.99997
0.99997
0.99997
0.99997
0.99997
0.99997
0.99997
0.99997
0.99997
0.99997
0.99997
0.99997
0.999971
0.99997
0.999972
0.999973
0.999974
0.999975
0.999976
0.999975
0.999974
0.99997
0.999964
0.999956
0.999947
0.999935
0.999924
0.999915
0.999909
0.999908
0.999911
0.999919
0.999933
0.99995
0.99997
0.99999
1.00001
1.00002
1.00003
1.00004
1.00004
1.00003
1.00003
1.00002
1.00001
1
0.999994
0.999987
0.999982
0.999977
0.999975
0.999972
0.99997
0.99997
0.99997
0.99997
0.99997
0.99997
0.99997
0.99997
0.99997
0.99997
0.99997
0.99997
0.99997
0.99997
0.99997
0.99997
0.99997
0.99997
0.99997
0.99997
0.99997
0.99997
0.99997
0.99997
0.99997
0.99997
0.99997
0.99997
0.99997
0.99997
0.99997
0.99997
0.99997
0.99997
0.99997
0.99997
0.99997
0.99997
0.99997
0.99997
0.99997
0.99997
0.99997
0.99997
0.99997
0.99997
0.99997
0.99997
0.99997
0.99997
0.99997
0.99997
0.99997
0.99997
0.99997
0.99997
0.99997
0.99997
0.99997
0.99997
0.999971
0.999972
0.999973
0.999975
0.999976
0.999979
0.99998
0.999979
0.999977
0.999973
0.999965
0.999954
0.999939
0.999924
0.999909
0.999897
0.999889
0.999888
0.999893
0.999906
0.999925
0.99995
0.999977
1
1.00003
1.00005
1.00006
1.00007
1.00007
1.00006
1.00005
1.00004
1.00003
1.00002
1
0.999995
0.999987
0.999981
0.999976
0.999973
0.999971
0.99997
0.99997
0.99997
0.99997
0.99997
0.99997
0.99997
0.99997
0.99997
0.99997
0.99997
0.99997
0.99997
0.99997
0.99997
0.99997
0.99997
0.99997
0.99997
0.99997
0.99997
0.99997
0.99997
0.99997
0.99997
0.99997
0.99997
0.99997
0.99997
0.99997
0.99997
0.99997
0.99997
0.99997
0.99997
0.99997
0.99997
0.99997
0.99997
0.99997
0.99997
0.99997
0.99997
0.99997
0.99997
0.99997
0.99997
0.99997
0.99997
0.99997
0.99997
0.99997
0.99997
0.99997
0.99997
0.99997
0.999969
0.99997
0.99997
0.999971
0.999973
0.999975
0.999977
0.99998
0.999983
0.999985
0.999985
0.999983
0.999975
0.999965
0.99995
0.999931
0.999911
0.999891
0.999875
0.999865
0.999865
0.999874
0.999893
0.999921
0.999956
0.999993
1.00003
1.00006
1.00009
1.00011
1.00011
1.00011
1.0001
1.00009
1.00007
1.00005
1.00004
1.00002
1
0.999993
0.999985
0.999979
0.999975
0.999972
0.99997
0.999969
0.999969
0.999969
0.99997
0.99997
0.99997
0.99997
0.99997
0.99997
0.99997
0.99997
0.99997
0.99997
0.99997
0.99997
0.99997
0.99997
0.99997
0.99997
0.99997
0.99997
0.99997
0.99997
0.99997
0.99997
0.99997
0.99997
0.99997
0.99997
0.99997
0.99997
0.99997
0.99997
0.99997
0.99997
0.99997
0.99997
0.99997
0.99997
0.99997
0.99997
0.99997
0.99997
0.99997
0.99997
0.99997
0.99997
0.99997
0.99997
0.99997
0.99997
0.99997
0.99997
0.99997
0.999969
0.99997
0.99997
0.999971
0.999972
0.999974
0.999977
0.999981
0.999986
0.999989
0.999993
0.999993
0.99999
0.999981
0.999966
0.999946
0.999921
0.999894
0.999869
0.99985
0.999839
0.999842
0.999857
0.999887
0.999928
0.999976
1.00003
1.00008
1.00012
1.00015
1.00017
1.00018
1.00018
1.00016
1.00014
1.00011
1.00009
1.00006
1.00004
1.00002
1
0.999989
0.999981
0.999975
0.999972
0.99997
0.999969
0.999969
0.999969
0.999969
0.999969
0.99997
0.99997
0.99997
0.99997
0.99997
0.99997
0.99997
0.99997
0.99997
0.99997
0.99997
0.99997
0.99997
0.99997
0.99997
0.99997
0.99997
0.99997
0.99997
0.99997
0.99997
0.99997
0.99997
0.99997
0.99997
0.99997
0.99997
0.99997
0.99997
0.99997
0.99997
0.99997
0.99997
0.99997
0.99997
0.99997
0.99997
0.99997
0.99997
0.99997
0.99997
0.99997
0.99997
0.99997
0.99997
0.99997
0.99997
0.999969
0.999969
0.99997
0.999969
0.99997
0.999971
0.999974
0.999976
0.999981
0.999986
0.999993
0.999999
1
1
1
0.999988
0.999968
0.999941
0.99991
0.999875
0.999845
0.999823
0.999814
0.999822
0.999849
0.999895
0.999955
1.00002
1.00009
1.00016
1.00022
1.00026
1.00028
1.00028
1.00027
1.00025
1.00021
1.00017
1.00013
1.0001
1.00006
1.00003
1.00001
0.999996
0.999984
0.999976
0.999972
0.99997
0.999968
0.999968
0.999968
0.999968
0.999969
0.999969
0.99997
0.99997
0.99997
0.99997
0.99997
0.99997
0.99997
0.99997
0.99997
0.99997
0.99997
0.99997
0.99997
0.99997
0.99997
0.99997
0.99997
0.99997
0.99997
0.99997
0.99997
0.99997
0.99997
0.99997
0.99997
0.99997
0.99997
0.99997
0.99997
0.99997
0.99997
0.99997
0.99997
0.99997
0.99997
0.99997
0.99997
0.99997
0.99997
0.99997
0.99997
0.99997
0.99997
0.99997
0.99997
0.999969
0.999969
0.999969
0.999969
0.99997
0.99997
0.999971
0.999974
0.999978
0.999985
0.999992
1
1.00001
1.00002
1.00002
1.00001
0.999996
0.99997
0.999934
0.999893
0.999851
0.999814
0.999792
0.999789
0.99981
0.999856
0.999925
1.00001
1.00011
1.00021
1.0003
1.00037
1.00042
1.00044
1.00043
1.00041
1.00037
1.00031
1.00025
1.0002
1.00014
1.0001
1.00006
1.00003
1
0.999988
0.999978
0.999971
0.999969
0.999967
0.999967
0.999967
0.999968
0.999968
0.999968
0.999969
0.99997
0.99997
0.99997
0.99997
0.99997
0.99997
0.99997
0.99997
0.99997
0.99997
0.99997
0.99997
0.99997
0.99997
0.99997
0.99997
0.99997
0.99997
0.99997
0.99997
0.99997
0.99997
0.99997
0.99997
0.99997
0.99997
0.99997
0.99997
0.99997
0.99997
0.99997
0.99997
0.99997
0.99997
0.99997
0.99997
0.99997
0.99997
0.99997
0.99997
0.99997
0.99997
0.99997
0.999969
0.999969
0.99997
0.999969
0.999969
0.999969
0.99997
0.999972
0.999975
0.999981
0.99999
1
1.00001
1.00003
1.00003
1.00003
1.00003
1
0.999967
0.999921
0.999867
0.999816
0.999775
0.999754
0.999763
0.999805
0.999883
0.999992
1.00012
1.00027
1.0004
1.00052
1.00061
1.00067
1.00068
1.00066
1.00061
1.00054
1.00046
1.00037
1.00029
1.00021
1.00014
1.00009
1.00004
1.00001
0.999991
0.999978
0.99997
0.999966
0.999965
0.999965
0.999966
0.999966
0.999968
0.999968
0.999968
0.99997
0.99997
0.99997
0.99997
0.99997
0.99997
0.99997
0.99997
0.99997
0.99997
0.99997
0.99997
0.99997
0.99997
0.99997
0.99997
0.99997
0.99997
0.99997
0.99997
0.99997
0.99997
0.99997
0.99997
0.99997
0.99997
0.99997
0.99997
0.99997
0.99997
0.99997
0.99997
0.99997
0.99997
0.99997
0.99997
0.99997
0.99997
0.99997
0.99997
0.99997
0.99997
0.99997
0.999969
0.999969
0.999969
0.999969
0.999968
0.999969
0.99997
0.999972
0.999977
0.999985
0.999996
1.00001
1.00003
1.00004
1.00005
1.00005
1.00004
1
0.999954
0.999892
0.999823
0.99976
0.999716
0.999701
0.999729
0.999807
0.999932
1.0001
1.0003
1.00051
1.00071
1.00087
1.00099
1.00105
1.00106
1.00101
1.00092
1.0008
1.00067
1.00054
1.00041
1.0003
1.0002
1.00012
1.00007
1.00002
0.999996
0.999978
0.999968
0.999963
0.999962
0.999962
0.999963
0.999965
0.999966
0.999967
0.999968
0.999968
0.99997
0.99997
0.99997
0.99997
0.99997
0.99997
0.99997
0.99997
0.99997
0.99997
0.99997
0.99997
0.99997
0.99997
0.99997
0.99997
0.99997
0.99997
0.99997
0.99997
0.99997
0.99997
0.99997
0.99997
0.99997
0.99997
0.99997
0.99997
0.99997
0.99997
0.99997
0.99997
0.99997
0.99997
0.99997
0.99997
0.99997
0.99997
0.99997
0.99997
0.99997
0.999969
0.999969
0.999969
0.999968
0.999968
0.999966
0.999967
0.999969
0.999972
0.999978
0.999988
1
1.00002
1.00004
1.00006
1.00007
1.00006
1.00004
0.99999
0.99992
0.999834
0.999743
0.999664
0.999613
0.99961
0.999667
0.999794
0.99999
1.00025
1.00054
1.00085
1.00114
1.00138
1.00155
1.00162
1.00161
1.00152
1.00137
1.00118
1.00098
1.00078
1.00059
1.00042
1.00029
1.00018
1.0001
1.00004
1
0.999977
0.999964
0.999958
0.999957
0.999958
0.99996
0.999962
0.999964
0.999966
0.999967
0.999968
0.999968
0.99997
0.99997
0.99997
0.99997
0.99997
0.99997
0.99997
0.99997
0.99997
0.99997
0.99997
0.99997
0.99997
0.99997
0.99997
0.99997
0.99997
0.99997
0.99997
0.99997
0.99997
0.99997
0.99997
0.99997
0.99997
0.99997
0.99997
0.99997
0.99997
0.99997
0.99997
0.99997
0.99997
0.99997
0.99997
0.99997
0.99997
0.99997
0.99997
0.99997
0.999969
0.999968
0.999968
0.999967
0.999966
0.999965
0.999966
0.999967
0.99997
0.999979
0.999991
1.00001
1.00003
1.00006
1.00008
1.00008
1.00007
1.00002
0.999945
0.99984
0.999718
0.999592
0.999486
0.999425
0.999431
0.999525
0.999718
1.00001
1.00039
1.00083
1.0013
1.00173
1.00209
1.00233
1.00244
1.00241
1.00227
1.00203
1.00174
1.00143
1.00113
1.00085
1.00061
1.00041
1.00025
1.00014
1.00006
1.00001
0.999975
0.999958
0.999951
0.99995
0.999952
0.999955
0.999959
0.999962
0.999964
0.999966
0.999967
0.999968
0.999968
0.99997
0.99997
0.99997
0.99997
0.99997
0.99997
0.99997
0.99997
0.99997
0.99997
0.99997
0.99997
0.99997
0.99997
0.99997
0.99997
0.99997
0.99997
0.99997
0.99997
0.99997
0.99997
0.99997
0.99997
0.99997
0.99997
0.99997
0.99997
0.99997
0.99997
0.99997
0.99997
0.99997
0.99997
0.99997
0.99997
0.99997
0.99997
0.999969
0.999969
0.999968
0.999967
0.999966
0.999965
0.999963
0.999963
0.999964
0.999968
0.999978
0.999994
1.00002
1.00004
1.00007
1.00008
1.00008
1.00004
0.999964
0.99984
0.999681
0.999499
0.999315
0.999163
0.999072
0.999077
0.999203
0.999473
0.999888
1.00044
1.00108
1.00177
1.00242
1.00297
1.00336
1.00354
1.00352
1.00332
1.00297
1.00254
1.00208
1.00163
1.00122
1.00087
1.00058
1.00036
1.0002
1.00009
1.00001
0.999971
0.999949
0.999941
0.99994
0.999944
0.999949
0.999953
0.999958
0.999962
0.999964
0.999967
0.999968
0.999968
0.99997
0.99997
0.99997
0.99997
0.99997
0.99997
0.99997
0.99997
0.99997
0.99997
0.99997
0.99997
0.99997
0.99997
0.99997
0.99997
0.99997
0.99997
0.99997
0.99997
0.99997
0.99997
0.99997
0.99997
0.99997
0.99997
0.99997
0.99997
0.99997
0.99997
0.99997
0.99997
0.99997
0.99997
0.99997
0.99997
0.99997
0.999969
0.999969
0.999968
0.999967
0.999966
0.999964
0.999962
0.99996
0.999958
0.999959
0.999964
0.999975
0.999993
1.00002
1.00005
1.00007
1.00008
1.00005
0.99997
0.999834
0.999635
0.999385
0.999106
0.998825
0.998584
0.998423
0.998388
0.998522
0.998857
0.999408
1.00016
1.00108
1.00209
1.00308
1.00395
1.0046
1.00495
1.00499
1.00475
1.00428
1.00367
1.00301
1.00235
1.00175
1.00125
1.00083
1.00052
1.00029
1.00013
1.00003
0.99997
0.99994
0.999928
0.999927
0.999933
0.999941
0.999948
0.999954
0.999959
0.999963
0.999966
0.999967
0.999968
0.999968
0.99997
0.99997
0.99997
0.99997
0.99997
0.99997
0.99997
0.99997
0.99997
0.99997
0.99997
0.99997
0.99997
0.99997
0.99997
0.99997
0.99997
0.99997
0.99997
0.99997
0.99997
0.99997
0.99997
0.99997
0.99997
0.99997
0.99997
0.99997
0.99997
0.99997
0.99997
0.99997
0.99997
0.99997
0.99997
0.999969
0.999969
0.999969
0.999968
0.999967
0.999965
0.999962
0.999959
0.999955
0.999952
0.999952
0.999958
0.999969
0.99999
1.00002
1.00004
1.00006
1.00004
0.999965
0.999819
0.999586
0.999266
0.998872
0.998433
0.997986
0.997578
0.997265
0.997107
0.997173
0.997521
0.998186
0.999174
1.00044
1.00189
1.00339
1.00477
1.00587
1.00656
1.00679
1.00658
1.00601
1.0052
1.00429
1.00336
1.00251
1.00179
1.0012
1.00075
1.00042
1.0002
1.00006
0.999972
0.999929
0.999913
0.999912
0.999919
0.999929
0.999939
0.999948
0.999955
0.999959
0.999963
0.999966
0.999967
0.999968
0.999969
0.99997
0.99997
0.99997
0.99997
0.99997
0.99997
0.99997
0.99997
0.99997
0.99997
0.99997
0.99997
0.99997
0.99997
0.99997
0.99997
0.99997
0.99997
0.99997
0.99997
0.99997
0.99997
0.99997
0.99997
0.99997
0.99997
0.99997
0.99997
0.99997
0.99997
0.99997
0.99997
0.99997
0.99997
0.999969
0.999969
0.999968
0.999967
0.999966
0.999962
0.999958
0.999954
0.999948
0.999943
0.999942
0.999947
0.999958
0.999979
1
1.00002
1.00001
0.999945
0.999798
0.999539
0.999154
0.998643
0.998024
0.997329
0.9966
0.99589
0.99527
0.994829
0.994673
0.994904
0.995603
0.996809
0.998491
1.00054
1.00277
1.00495
1.0068
1.00812
1.00878
1.00877
1.00819
1.0072
1.006
1.00475
1.00357
1.00255
1.00172
1.00108
1.00062
1.0003
1.0001
0.999982
0.99992
0.999896
0.999893
0.999903
0.999915
0.999928
0.999941
0.999949
0.999957
0.999961
0.999965
0.999966
0.999968
0.999968
0.99997
0.99997
0.99997
0.99997
0.99997
0.99997
0.99997
0.99997
0.99997
0.99997
0.99997
0.99997
0.99997
0.99997
0.99997
0.99997
0.99997
0.99997
0.99997
0.99997
0.99997
0.99997
0.99997
0.99997
0.99997
0.99997
0.99997
0.99997
0.99997
0.99997
0.99997
0.99997
0.99997
0.99997
0.999969
0.999968
0.999967
0.999966
0.999963
0.999959
0.999954
0.999947
0.999939
0.999932
0.999929
0.99993
0.99994
0.999956
0.99997
0.999965
0.999911
0.999771
0.999501
0.999066
0.998448
0.997646
0.996682
0.995583
0.994388
0.993153
0.991967
0.990961
0.990302
0.990171
0.990729
0.992074
0.994211
0.997025
1.00028
1.00363
1.00669
1.00909
1.01059
1.0111
1.01073
1.00967
1.0082
1.00657
1.00499
1.00359
1.00244
1.00155
1.00091
1.00046
1.00017
1
0.999915
0.999879
0.999873
0.999882
0.999899
0.999916
0.999931
0.999943
0.999952
0.999958
0.999962
0.999966
0.999967
0.999968
0.999969
0.99997
0.99997
0.99997
0.99997
0.99997
0.99997
0.99997
0.99997
0.99997
0.99997
0.99997
0.99997
0.99997
0.99997
0.99997
0.99997
0.99997
0.99997
0.99997
0.99997
0.99997
0.99997
0.99997
0.99997
0.99997
0.99997
0.99997
0.99997
0.99997
0.99997
0.99997
0.99997
0.999969
0.999969
0.999968
0.999967
0.999965
0.999961
0.999956
0.999948
0.999939
0.999928
0.999917
0.99991
0.999908
0.999912
0.999918
0.999912
0.999865
0.999739
0.999473
0.999014
0.998315
0.997352
0.996123
0.994643
0.992919
0.990976
0.988863
0.9867
0.98468
0.983069
0.982177
0.982292
0.983616
0.98621
0.989967
0.994595
0.999625
1.00449
1.00862
1.01158
1.01315
1.01337
1.01249
1.01087
1.00888
1.00685
1.00499
1.00344
1.00222
1.00132
1.00069
1.00029
1.00005
0.999921
0.999865
0.999851
0.999861
0.999879
0.999901
0.99992
0.999935
0.999946
0.999955
0.99996
0.999964
0.999966
0.999967
0.999969
0.99997
0.99997
0.99997
0.99997
0.99997
0.99997
0.99997
0.99997
0.99997
0.99997
0.99997
0.99997
0.99997
0.99997
0.99997
0.99997
0.99997
0.99997
0.99997
0.99997
0.99997
0.99997
0.99997
0.99997
0.99997
0.99997
0.99997
0.99997
0.99997
0.999969
0.99997
0.99997
0.999969
0.999969
0.999967
0.999966
0.999963
0.999958
0.999951
0.999941
0.999928
0.999913
0.999897
0.999884
0.999876
0.999869
0.999857
0.999814
0.999701
0.999454
0.999
0.998261
0.99718
0.995727
0.99389
0.991654
0.988989
0.985879
0.982371
0.978624
0.974935
0.971727
0.969504
0.968742
0.969796
0.972816
0.977709
0.984112
0.991414
0.998831
1.00553
1.0108
1.01421
1.01566
1.0154
1.01389
1.01165
1.00917
1.0068
1.00475
1.00311
1.00189
1.00103
1.00047
1.00013
0.999944
0.999857
0.999831
0.999837
0.999858
0.999883
0.999907
0.999926
0.999941
0.999951
0.999958
0.999962
0.999965
0.999967
0.999968
0.999969
0.99997
0.99997
0.99997
0.99997
0.99997
0.99997
0.99997
0.99997
0.99997
0.99997
0.99997
0.99997
0.99997
0.99997
0.99997
0.99997
0.99997
0.99997
0.99997
0.99997
0.99997
0.99997
0.99997
0.99997
0.99997
0.99997
0.99997
0.99997
0.99997
0.99997
0.99997
0.999969
0.999968
0.999967
0.999965
0.999962
0.999955
0.999946
0.999932
0.999915
0.999894
0.999872
0.999852
0.999831
0.999808
0.999763
0.999663
0.999443
0.999019
0.998286
0.99715
0.995541
0.993414
0.990733
0.98742
0.983374
0.978515
0.972891
0.966738
0.960509
0.954865
0.95058
0.948398
0.948881
0.952297
0.958553
0.967196
0.977438
0.988245
0.998477
1.00709
1.01332
1.01689
1.01794
1.017
1.01477
1.01194
1.00903
1.00642
1.00429
1.00266
1.0015
1.00073
1.00026
0.999992
0.999861
0.999815
0.999815
0.999836
0.999865
0.999893
0.999916
0.999933
0.999946
0.999955
0.999961
0.999965
0.999966
0.999968
0.999969
0.99997
0.99997
0.99997
0.99997
0.99997
0.99997
0.99997
0.99997
0.99997
0.99997
0.99997
0.99997
0.99997
0.99997
0.99997
0.99997
0.99997
0.99997
0.99997
0.99997
0.99997
0.99997
0.99997
0.99997
0.99997
0.99997
0.99997
0.99997
0.99997
0.99997
0.99997
0.999969
0.999968
0.999966
0.999964
0.999958
0.999951
0.999939
0.999922
0.999899
0.999872
0.999841
0.999809
0.999773
0.999722
0.999629
0.999438
0.999061
0.99838
0.99726
0.995585
0.99327
0.990253
0.986429
0.98162
0.975602
0.968229
0.959566
0.949976
0.94015
0.931074
0.923891
0.919703
0.919337
0.92318
0.93112
0.942553
0.956459
0.97152
0.986268
0.99929
1.00947
1.01621
1.01947
1.01979
1.01801
1.01504
1.01168
1.00849
1.00578
1.00366
1.00213
1.0011
1.00045
1.00008
0.999884
0.999808
0.999796
0.999814
0.999845
0.999877
0.999904
0.999926
0.999941
0.999952
0.999958
0.999963
0.999966
0.999967
0.999969
0.99997
0.99997
0.99997
0.99997
0.99997
0.99997
0.99997
0.99997
0.99997
0.99997
0.99997
0.99997
0.99997
0.99997
0.99997
0.99997
0.99997
0.99997
0.99997
0.99997
0.99997
0.99997
0.99997
0.99997
0.99997
0.99997
0.99997
0.99997
0.99997
0.99997
0.99997
0.999969
0.999967
0.999966
0.999962
0.999956
0.999945
0.999931
0.999909
0.99988
0.999845
0.999802
0.999757
0.999697
0.999605
0.999438
0.999117
0.998518
0.997482
0.995842
0.993464
0.990249
0.986087
0.98076
0.973919
0.965192
0.954367
0.941571
0.92736
0.912753
0.899168
0.888235
0.881509
0.880129
0.884604
0.894722
0.909633
0.927991
0.948141
0.968288
0.986684
1.00185
1.01283
1.01932
1.02174
1.02102
1.0183
1.01465
1.01091
1.00759
1.00493
1.00295
1.00159
1.00072
1.00021
0.999934
0.999814
0.999783
0.999796
0.999826
0.999861
0.999893
0.999918
0.999936
0.999949
0.999957
0.999962
0.999965
0.999967
0.999969
0.999969
0.99997
0.99997
0.99997
0.99997
0.99997
0.99997
0.99997
0.99997
0.99997
0.99997
0.99997
0.99997
0.99997
0.99997
0.99997
0.99997
0.99997
0.99997
0.99997
0.99997
0.99997
0.99997
0.99997
0.99997
0.99997
0.99997
0.99997
0.99997
0.99997
0.999969
0.999968
0.999967
0.999965
0.99996
0.999953
0.99994
0.999921
0.999894
0.999859
0.999814
0.999759
0.999691
0.999599
0.99945
0.999178
0.998676
0.997774
0.996265
0.993957
0.990703
0.986387
0.980799
0.973531
0.964016
0.951719
0.936391
0.91827
0.898185
0.877574
0.858408
0.842945
0.833302
0.830994
0.836597
0.849677
0.868964
0.892643
0.91865
0.944875
0.96932
0.990229
1.00631
1.01695
1.02236
1.02342
1.02145
1.01781
1.01365
1.00973
1.00646
1.00398
1.00223
1.00109
1.0004
1.00002
0.99984
0.999779
0.99978
0.999809
0.999846
0.999881
0.999909
0.99993
0.999945
0.999954
0.999961
0.999964
0.999966
0.999968
0.999969
0.99997
0.99997
0.99997
0.99997
0.99997
0.99997
0.99997
0.99997
0.99997
0.99997
0.99997
0.99997
0.99997
0.99997
0.99997
0.99997
0.99997
0.99997
0.99997
0.99997
0.99997
0.99997
0.99997
0.99997
0.99997
0.99997
0.99997
0.99997
0.99997
0.999969
0.999968
0.999966
0.999963
0.999958
0.999949
0.999933
0.999911
0.999878
0.999834
0.999778
0.999706
0.999612
0.999477
0.999248
0.998835
0.998088
0.996788
0.99468
0.991549
0.987255
0.981635
0.974315
0.964612
0.951703
0.93491
0.913998
0.889369
0.862183
0.83439
0.808657
0.788037
0.775371
0.772595
0.78026
0.79749
0.822337
0.852305
0.88483
0.917529
0.948274
0.975204
0.996824
1.01223
1.02133
1.02487
1.02422
1.02097
1.01659
1.01214
1.00826
1.00522
1.00303
1.00156
1.00066
1.00015
0.99989
0.999789
0.999773
0.999796
0.999833
0.999869
0.999901
0.999924
0.999941
0.999952
0.999959
0.999963
0.999966
0.999967
0.999969
0.99997
0.99997
0.99997
0.99997
0.99997
0.99997
0.99997
0.99997
0.99997
0.99997
0.99997
0.99997
0.99997
0.99997
0.99997
0.99997
0.99997
0.99997
0.99997
0.99997
0.99997
0.99997
0.99997
0.99997
0.99997
0.99997
0.99997
0.99997
0.99997
0.999969
0.999968
0.999966
0.999962
0.999957
0.999945
0.999927
0.9999
0.99986
0.999807
0.999738
0.999646
0.999519
0.999326
0.998993
0.998393
0.997331
0.99553
0.992687
0.988592
0.983118
0.976012
0.966636
0.953968
0.936928
0.914753
0.887263
0.855059
0.819663
0.783626
0.750477
0.7243
0.70887
0.706604
0.717853
0.740938
0.772846
0.810142
0.849678
0.888876
0.925666
0.958303
0.9853
1.00557
1.01873
1.02525
1.02642
1.02397
1.01961
1.01475
1.01029
1.00667
1.00398
1.00215
1.001
1.00032
0.999971
0.999818
0.999776
0.999788
0.999822
0.99986
0.999893
0.999918
0.999937
0.99995
0.999957
0.999962
0.999966
0.999967
0.999969
0.999969
0.99997
0.99997
0.99997
0.99997
0.99997
0.99997
0.99997
0.99997
0.99997
0.99997
0.99997
0.99997
0.99997
0.99997
0.99997
0.99997
0.99997
0.99997
0.99997
0.99997
0.99997
0.99997
0.99997
0.99997
0.99997
0.99997
0.99997
0.99997
0.999969
0.999967
0.999966
0.999961
0.999954
0.999941
0.99992
0.999889
0.999842
0.999778
0.999695
0.999579
0.999409
0.999144
0.998678
0.997842
0.996384
0.993973
0.990274
0.985103
0.978353
0.969605
0.957851
0.941698
0.919869
0.891577
0.856731
0.816113
0.771612
0.726451
0.685217
0.653338
0.635838
0.635696
0.652769
0.684012
0.724792
0.770435
0.817188
0.862441
0.904435
0.941823
0.973368
0.997987
1.01504
1.0247
1.02801
1.02668
1.02262
1.0175
1.01251
1.0083
1.0051
1.00286
1.00141
1.00055
1.00009
0.999868
0.999791
0.999788
0.999815
0.999852
0.999886
0.999913
0.999934
0.999947
0.999957
0.999962
0.999966
0.999967
0.999969
0.999969
0.99997
0.99997
0.99997
0.99997
0.99997
0.99997
0.99997
0.99997
0.99997
0.99997
0.99997
0.99997
0.99997
0.99997
0.99997
0.99997
0.99997
0.99997
0.99997
0.99997
0.99997
0.99997
0.99997
0.99997
0.99997
0.99997
0.99997
0.999969
0.999968
0.999967
0.999965
0.99996
0.999951
0.999937
0.999912
0.999877
0.999824
0.999749
0.99965
0.999506
0.999285
0.998929
0.998301
0.997171
0.995237
0.992115
0.987461
0.981156
0.973087
0.962572
0.94815
0.928082
0.900985
0.866125
0.823487
0.77398
0.719813
0.664913
0.615116
0.577597
0.559118
0.563414
0.589381
0.631709
0.683411
0.738266
0.792006
0.842287
0.888008
0.928527
0.963134
0.990943
1.01118
1.02368
1.02915
1.02911
1.02554
1.0203
1.01486
1.01008
1.00635
1.00368
1.00192
1.00084
1.00024
0.999941
0.999821
0.999796
0.999815
0.999848
0.999882
0.99991
0.999931
0.999946
0.999955
0.999962
0.999965
0.999966
0.999969
0.999969
0.99997
0.99997
0.99997
0.99997
0.99997
0.99997
0.99997
0.99997
0.99997
0.99997
0.99997
0.99997
0.99997
0.99997
0.99997
0.99997
0.99997
0.99997
0.99997
0.99997
0.99997
0.99997
0.99997
0.99997
0.99997
0.99997
0.99997
0.99997
0.999968
0.999967
0.999965
0.999958
0.999949
0.999932
0.999906
0.999865
0.999807
0.999719
0.999602
0.999429
0.999144
0.998678
0.997857
0.996382
0.993891
0.989973
0.984311
0.976872
0.967497
0.955134
0.937835
0.913595
0.881053
0.839582
0.789209
0.730874
0.666991
0.602126
0.543437
0.500313
0.482138
0.493878
0.532685
0.589597
0.654363
0.719008
0.77898
0.832619
0.87992
0.921313
0.956886
0.986148
1.00832
1.0229
1.03018
1.03139
1.02838
1.02313
1.0173
1.01199
1.00772
1.0046
1.00249
1.00118
1.00043
1.00004
0.999868
0.999816
0.999821
0.999848
0.99988
0.999908
0.999929
0.999945
0.999954
0.999961
0.999965
0.999967
0.999968
0.999969
0.99997
0.99997
0.99997
0.99997
0.99997
0.99997
0.99997
0.99997
0.99997
0.99997
0.99997
0.99997
0.99997
0.99997
0.99997
0.99997
0.99997
0.99997
0.99997
0.99997
0.99997
0.99997
0.99997
0.99997
0.99997
0.99997
0.99997
0.999969
0.999968
0.999966
0.999964
0.999958
0.999947
0.999929
0.999899
0.999854
0.999792
0.999691
0.999555
0.99935
0.998992
0.998395
0.997351
0.99548
0.992362
0.987593
0.980925
0.972418
0.961796
0.947569
0.927329
0.898927
0.861159
0.813572
0.756183
0.689837
0.616974
0.542494
0.474627
0.425424
0.408554
0.431333
0.487692
0.562948
0.642775
0.717455
0.782468
0.837284
0.883463
0.922917
0.956833
0.985323
1.0077
1.02319
1.03161
1.03375
1.03122
1.02598
1.01981
1.01398
1.00918
1.0056
1.00314
1.00158
1.00066
1.00017
0.999932
0.999846
0.999834
0.999852
0.999881
0.999907
0.999928
0.999943
0.999953
0.99996
0.999964
0.999967
0.999968
0.999969
0.99997
0.99997
0.99997
0.99997
0.99997
0.99997
0.99997
0.99997
0.99997
0.99997
0.99997
0.99997
0.99997
0.99997
0.99997
0.99997
0.99997
0.99997
0.99997
0.99997
0.99997
0.99997
0.99997
0.99997
0.99997
0.99997
0.999969
0.999969
0.999969
0.999966
0.999963
0.999957
0.999945
0.999928
0.999894
0.999845
0.999779
0.999666
0.999508
0.999272
0.998833
0.99808
0.99679
0.994485
0.990686
0.985042
0.977433
0.967981
0.956217
0.940207
0.917166
0.884953
0.842668
0.790097
0.727232
0.654714
0.574713
0.491836
0.414525
0.357615
0.341995
0.379577
0.458244
0.555138
0.651618
0.73643
0.805271
0.859024
0.901197
0.935606
0.96489
0.990006
1.01052
1.0254
1.03398
1.0365
1.0342
1.02888
1.02236
1.01604
1.01071
1.00666
1.00384
1.00201
1.00092
1.00031
1.00001
0.99989
0.999855
0.999863
0.999886
0.999909
0.999929
0.999943
0.999954
0.99996
0.999964
0.999967
0.999968
0.999969
0.99997
0.99997
0.99997
0.99997
0.99997
0.99997
0.99997
0.99997
0.99997
0.99997
0.99997
0.99997
0.99997
0.99997
0.99997
0.99997
0.99997
0.99997
0.99997
0.99997
0.99997
0.99997
0.99997
0.99997
0.99997
0.99997
0.999969
0.999969
0.999969
0.999966
0.999964
0.999956
0.999944
0.999925
0.999892
0.999837
0.99977
0.999649
0.999461
0.999194
0.998673
0.997745
0.996183
0.993427
0.988915
0.982406
0.973974
0.963746
0.950997
0.933406
0.907967
0.872688
0.827109
0.771375
0.705501
0.629836
0.545901
0.457083
0.370534
0.302982
0.286292
0.341143
0.445248
0.565724
0.680003
0.775323
0.847409
0.898513
0.934277
0.960748
0.982408
1.0014
1.01774
1.03026
1.03779
1.03994
1.03746
1.03189
1.02496
1.01812
1.01227
1.00776
1.00457
1.00248
1.0012
1.00048
1.00011
0.999943
0.999884
0.999878
0.999893
0.999913
0.999931
0.999945
0.999954
0.999961
0.999964
0.999967
0.999968
0.999969
0.99997
0.99997
0.99997
0.99997
0.99997
0.99997
0.99997
0.99997
0.99997
0.99997
0.99997
0.99997
0.99997
0.99997
0.99997
0.99997
0.99997
0.99997
0.99997
0.99997
0.99997
0.99997
0.99997
0.99997
0.99997
0.99997
0.99997
0.999969
0.999969
0.999966
0.999963
0.999957
0.999943
0.999924
0.999891
0.999833
0.999763
0.999638
0.999421
0.999119
0.998521
0.997398
0.995546
0.992344
0.987118
0.979782
0.97068
0.95989
0.946361
0.927538
0.900391
0.863189
0.81603
0.759588
0.694025
0.619311
0.535861
0.444972
0.351077
0.270358
0.246755
0.316834
0.445914
0.59013
0.723058
0.829878
0.905708
0.953791
0.981844
0.998313
1.00985
1.02014
1.03001
1.03832
1.04344
1.04433
1.04116
1.03507
1.02761
1.02022
1.01384
1.00888
1.00533
1.00297
1.00151
1.00067
1.00022
1.00001
0.999922
0.9999
0.999905
0.99992
0.999935
0.999947
0.999955
0.999961
0.999964
0.999967
0.999968
0.999969
0.99997
0.99997
0.99997
0.99997
0.99997
0.99997
0.99997
0.99997
0.99997
0.99997