/*--------------------------------*- C++ -*----------------------------------*\
  =========                 |
  \\      /  F ield         | OpenFOAM: The Open Source CFD Toolbox
   \\    /   O peration     | Website:  https://openfoam.org
    \\  /    A nd           | Version:  6
     \\/     M anipulation  |
\*---------------------------------------------------------------------------*/
FoamFile
{
    version     2.0;
    format      ascii;
    class       volScalarField;
    location    "2.72";
    object      rho;
}
// * * * * * * * * * * * * * * * * * * * * * * * * * * * * * * * * * * * * * //

dimensions      [1 -3 0 0 0 0 0];

internalField   nonuniform List<scalar> 
24166
(
1.40402
1.4402
1.40001
1.4
1.40001
1.40001
1.4
1.40001
1.45888
1.40001
1.40009
1.39899
1.39519
1.40094
1.40292
1.40008
1.40253
1.40029
1.39999
1.40036
1.40001
1.39997
1.40001
1.40001
1.45432
1.40001
1.40002
1.31907
1.39999
1.40001
1.33102
1.40001
1.40001
1.4
1.4
1.46542
1.40001
1.45203
1.40001
0.847226
1.39998
1.40001
1.40001
1.39999
1.3999
1.40001
1.44096
1.44037
1.40001
1.48499
1.4
1.39978
1.40001
1.40251
1.40001
1.4463
1.52145
1.40001
1.40001
1.40001
0.742158
1.40009
1.40001
1.40001
1.4
1.40001
1.40001
1.89527
1.6923
1.40001
1.40005
1.39975
1.40001
1.40001
1.40001
1.39997
1.39999
1.48514
1.40001
1.40014
1.24131
1.4
1.4
1.29719
1.40096
1.40001
1.40134
1.40001
1.40001
1.40003
1.40001
1.4
1.40047
1.40001
1.39962
1.39963
1.4
1.40031
1.3999
1.40004
1.4
1.40001
1.39944
1.40001
1.40001
1.40001
1.40001
1.4002
1.40001
1.40005
1.40001
1.40001
1.4
1.45619
1.52645
1.39984
1.4
1.40001
1.39986
1.40001
1.4
1.40001
1.39564
1.40001
1.42386
1.40022
1.4
1.40001
1.40001
1.40001
1.05632
1.40415
1.41132
1.42567
1.40005
1.40004
1.40001
1.19081
1.4
1.40007
1.42057
1.40001
1.32305
1.40001
1.35466
1.40004
1.40001
1.39987
1.05022
1.40001
1.4
1.40001
1.4
1.39998
1.40001
1.40001
1.4
1.40001
1.40001
1.39994
1.4603
1.42636
1.40001
1.4001
1.40001
1.40001
1.35907
1.40001
1.4
1.40001
1.40001
1.40001
1.40001
1.39965
1.40001
1.40878
1.40001
1.40001
1.40017
1.53939
1.4
1.40001
1.41839
1.40001
1.40001
1.40001
1.40001
1.4
1.4
1.4
1.40001
1.44209
1.40004
1.40152
1.40002
1.40006
1.40744
1.40001
1.42118
1.40007
1.40001
1.40001
1.40001
1.40269
1.4
1.40001
1.40001
1.40001
1.40001
1.13688
1.45247
1.4
1.40883
1.40021
1.40001
1.4
1.40001
1.40001
1.46157
1.40001
1.40001
1.39865
1.40001
1.40001
1.39404
1.40001
1.40001
1.40001
1.40069
1.40001
1.40572
1.4016
1.39916
1.40001
1.42841
1.40001
1.39979
1.40001
1.4
1.40001
1.4
1.40001
1.40001
1.40001
1.40028
1.4
1.39993
1.39999
1.39915
1.4
1.39956
1.40001
1.40007
1.39973
1.40001
1.40001
1.40001
1.40347
1.40001
1.40007
1.40001
1.4
1.4
1.40031
1.40001
1.4003
1.40001
1.40001
1.4
1.4
1.40339
1.39202
1.40001
1.4045
1.4
1.4001
1.40001
0.567897
1.40006
1.40001
1.44119
1.4
1.27079
1.40001
1.4
1.4
1.40001
1.40001
1.39973
1.40001
1.21951
1.40001
1.40001
1.40001
1.39975
1.21735
1.40001
1.40001
1.39613
1.40001
1.40001
1.40229
1.40182
1.40001
1.4
1.40001
1.40001
1.39966
1.38667
1.40001
1.35734
1.39993
1.40001
1.25275
1.40423
1.4
1.39994
1.40001
1.39995
1.39926
1.4
1.40001
1.4287
1.40001
1.4
1.40004
1.40001
1.40001
1.4
1.45679
1.40001
1.39999
1.40001
1.44495
1.40001
1.40777
1.40001
1.4
1.40586
1.46329
1.40001
1.40001
1.40001
1.40001
1.4
1.4
1.40001
1.40001
1.40001
1.40001
1.40001
1.40001
1.40001
1.40001
1.4
1.40001
1.40001
1.4
1.34151
1.42305
1.40001
1.40001
1.4
1.40446
1.40001
1.4
1.38462
1.40001
1.40001
1.40001
1.44568
1.40001
1.40001
1.40002
1.40001
1.40013
1.40001
1.40149
1.40001
1.40001
1.40026
1.40001
1.40001
1.40043
1.44944
1.4
1.40001
1.40104
1.4
1.19755
1.40001
1.39999
1.43785
1.40739
1.45651
1.40291
1.39998
1.40001
1.40001
1.40001
1.40001
1.40001
1.43654
1.40097
1.4
1.4
1.40001
1.39311
1.40001
1.4
1.40331
1.40001
1.40001
1.40002
1.40001
1.39931
1.41082
1.40001
1.39999
1.40001
1.40001
1.44413
1.40001
1.40001
1.40001
1.40001
1.40109
1.40001
1.40001
1.41032
1.40016
1.33552
1.40001
1.4
1.40045
1.40001
1.40001
1.4
1.40001
1.40258
1.40324
1.40001
1.3872
1.40001
1.40001
1.40004
1.42952
1.40014
1.4378
1.42287
1.4
1.4
1.40001
1.40297
1.46506
1.39979
1.47739
1.40001
1.40001
1.4
0.877675
1.40001
1.39971
1.49676
1.40001
1.40001
1.39999
1.40001
1.40287
1.39999
1.40006
1.45735
1.40001
1.40001
1.40001
1.40199
1.40001
1.4
1.40001
1.40294
1.40001
1.47148
1.40001
1.4
1.36197
1.4
1.39894
1.40001
1.40001
1.40001
1.40001
1.40001
1.40001
1.40001
1.3884
1.43508
1.40001
1.39985
1.4
1.41568
1.40001
1.40327
1.47332
0.93492
1.40001
1.39968
1.39997
1.40001
1.4
1.39884
1.40001
1.40001
1.4
1.40012
1.39919
1.44304
1.4023
1.40442
1.39999
1.40001
1.40002
1.40001
1.4404
1.4393
1.4
1.40001
1.4
1.40001
1.4
1.29336
1.4
1.4014
1.40001
1.39998
1.40003
1.40001
0.791201
1.40002
1.4069
1.40002
1.40001
1.40001
1.43974
1.40001
1.40488
1.40029
1.45809
1.40001
1.40523
1.40238
1.37295
1.4
1.4001
1.4
1.40001
1.40001
1.40001
1.41195
1.40001
1.64435
0.655874
1.40001
1.4
1.40318
1.4
1.44996
0.743725
1.40007
1.4
1.40001
1.40001
1.42541
1.40001
1.40001
1.3997
1.40001
1.40333
1.4
1.39998
1.40001
1.39842
1.40001
1.40001
1.40001
1.40003
1.40001
1.40002
1.37408
1.40022
1.36064
1.40001
1.39508
1.4
1.4
1.33382
1.39999
1.40001
1.46877
1.40001
1.40001
1.40302
1.4
1.40001
1.39767
1.40001
1.41202
1.40324
1.40139
1.40809
1.40001
1.39512
1.40001
1.40013
1.40001
1.41202
1.40001
1.40001
1.42939
1.35184
1.40001
1.40139
1.40001
1.40922
1.39999
1.40001
1.4
1.39826
1.4
1.46923
1.40001
1.4
1.42126
1.40001
1.64731
1.40001
1.40002
1.46505
1.40001
1.40001
1.40008
1.40001
1.40001
1.39841
1.40098
1.37341
1.4
1.40055
1.40201
1.39984
1.40018
1.40001
1.40001
1.40001
1.40001
1.40707
1.40001
1.40001
1.40001
1.40001
1.39998
1.40001
1.39815
1.40001
1.40001
1.40001
1.39702
1.40727
1.40001
1.40017
1.40001
1.40001
1.56218
1.40001
1.40001
1.39999
1.41718
1.40034
1.4
1.40416
1.4
1.4
1.40001
1.40001
1.40015
1.40001
1.40001
1.40001
1.40001
1.39987
1.39714
1.45735
1.40341
1.40001
1.40001
1.4
1.40001
1.41778
1.40043
1.47109
1.37474
1.40001
1.4
1.40001
1.40001
1.40978
1.40001
1.40024
1.26802
1.40001
1.40001
1.4
1.414
1.40001
1.40001
1.4
1.40001
1.40001
1.34765
1.40002
1.43053
1.40657
1.33909
1.39997
1.40001
1.40024
1.40001
1.44746
1.40001
1.39982
1.40001
1.40035
1.40001
1.40363
1.43523
1.37636
1.40459
1.39975
1.4
1.40001
1.40001
1.40043
1.40001
1.39979
1.41078
1.31275
1.42309
1.40001
1.4
1.4
1.4
1.4
1.40001
1.40001
1.40001
1.37802
1.40001
1.40001
1.39999
1.40087
1.40001
1.40001
1.40001
1.4
1.40001
1.3483
1.4
1.40001
1.40001
1.40001
1.39849
1.40001
1.40001
1.40001
1.40002
1.40001
1.40003
1.40001
1.40001
1.68942
1.40001
1.40001
1.4
1.40028
1.4
1.4
1.40001
1.39986
1.40001
1.40001
1.40001
1.40001
1.37405
1.40001
1.40001
1.40001
1.4
1.39994
1.4
1.40001
1.40001
1.40001
1.34071
1.43992
1.40001
1.47186
1.39998
1.45983
1.4
1.40001
1.4
1.4
1.40001
1.40001
1.4
1.40001
1.40001
1.04058
1.40055
1.40009
1.40001
1.40001
1.40006
1.40002
1.40001
1.40001
1.26419
1.40015
1.40001
1.40001
1.40001
1.40001
1.40019
1.4
1.40001
1.3999
1.40001
1.39986
1.26428
1.40001
1.40213
1.38826
1.39638
1.4
1.4025
1.40001
1.40062
1.40001
1.40001
1.40001
1.40001
1.40001
1.40001
1.39999
1.39862
1.42234
1.40001
1.39543
1.40002
1.4
1.40001
1.40001
1.40162
1.40001
1.4
1.4
1.40069
1.40001
1.4442
1.40001
1.41031
1.40513
1.40001
1.40001
1.3989
1.46967
1.40001
1.40176
1.40001
1.39827
1.40001
1.40001
1.40001
1.40012
1.4
1.40001
1.40001
1.4
1.40008
1.40001
1.47494
1.4
1.40001
1.45552
1.40001
1.39942
1.40279
1.40001
1.4
1.4
1.4
1.4041
1.4
1.40001
1.40005
1.40001
1.40001
1.34674
1.36075
1.40001
1.40213
1.40001
1.40001
1.40049
1.39999
1.4
1.40001
1.4
1.40001
1.40004
1.32168
1.40001
1.40001
1.40004
1.39917
1.38444
1.39935
1.39984
1.4
1.40313
1.4
1.40001
1.40049
1.40001
1.40096
1.39472
1.40101
1.56491
1.40001
1.40236
1.39999
1.4
1.43898
1.36305
1.40001
1.39994
1.40002
1.40001
1.40001
1.40001
0.944219
1.39875
1.24935
1.40001
1.40001
1.41074
1.39824
1.46442
1.40001
1.40001
1.40001
1.40712
1.4
1.40001
1.4
1.36848
1.39983
1.40001
1.39017
1.40016
1.40001
1.40001
1.40001
1.39992
1.40001
1.40001
1.40001
1.4
1.40003
1.38434
1.40013
1.40084
1.40001
1.27005
1.4
1.40001
1.40001
1.47886
1.40001
1.4
1.18544
1.40056
1.48072
1.40001
1.40001
1.4
1.40001
1.40001
1.40001
1.45303
1.40002
1.38781
1.40001
1.42344
1.44059
1.40082
1.40001
1.40001
1.4
1.40001
1.40001
1.49665
1.40007
1.4004
1.40017
1.40523
1.43357
1.4359
1.40001
1.4
1.40001
1.40002
1.40194
1.4
1.40001
1.40009
1.40001
1.40522
1.40015
1.40001
1.4
1.75429
1.4
1.40004
1.39999
1.40001
1.40001
1.40001
1.40001
1.40001
1.38917
1.3127
1.40001
1.40042
1.41942
1.4
1.40001
1.40001
1.4388
1.4
1.40001
1.39998
1.4
1.40001
1.39996
1.39999
1.40089
1.40001
1.4
1.42662
1.4
1.40001
1.40002
1.40001
1.40001
1.39973
1.42862
1.40001
1.46379
1.34705
1.40001
1.40002
1.40001
1.4213
1.40001
1.42766
1.40001
1.40002
1.4
1.11733
1.39962
1.4091
1.40001
1.40001
1.40001
1.40023
1.40001
1.42105
1.40002
1.40001
1.40001
1.39958
1.40001
1.4
1.40001
1.40001
1.40001
1.40256
1.4
1.4
1.40001
1.47652
1.40003
1.39655
1.40011
1.39999
1.4001
1.4
1.40001
1.40002
1.40001
1.39977
1.41287
1.40018
1.40017
1.40014
1.36252
1.38354
1.40001
1.40001
1.4
1.40001
1.40886
1.4
1.4
1.40001
1.4
1.40001
0.560641
1.4
0.605927
1.40001
1.40015
1.40001
1.39948
1.40007
1.4002
1.40214
1.44434
1.40132
1.40001
1.41599
1.40001
1.41682
1.42531
1.40001
1.40001
1.39914
1.40001
1.40237
1.44817
1.40001
1.40004
1.4
1.4
1.40001
1.40001
1.50103
1.40441
1.40001
1.40001
1.40171
1.40001
1.40001
1.46134
0.877163
1.4
1.40001
1.40465
1.4
1.40003
1.11963
1.45267
1.4
1.4
1.39998
1.4001
1.4
1.40001
1.40024
1.39997
1.40001
1.40001
1.4
1.40004
1.40405
1.39979
1.40001
1.40005
1.45712
1.4232
1.40001
1.4
1.40254
1.40001
1.40001
1.40001
1.40001
1.40001
1.40001
1.4
1.40001
1.4597
1.40001
1.45549
1.40023
1.40051
1.40001
1.44737
1.40001
1.4
1.62034
1.40001
1.45614
1.39991
1.45061
1.40001
1.40001
1.40001
1.4
1.40001
1.39994
1.40001
1.36736
1.40001
1.42893
1.40001
1.40001
1.40001
1.40001
1.40001
1.40001
1.40001
1.40001
1.40001
1.40001
1.43029
1.41284
1.4
1.80076
1.40001
1.25554
1.39975
1.40001
1.40034
1.40001
1.40001
1.40001
1.40003
1.40024
1.39998
1.41117
1.47835
1.4
1.39999
1.40001
1.39998
1.40001
1.40001
1.40001
1.4
1.40001
1.20473
1.44526
0.919119
1.4
1.40001
1.43878
1.4
1.07737
1.40001
1.39977
1.40001
1.4
1.40055
1.36169
1.40003
1.40001
1.40001
1.40086
1.40857
1.40001
1.4
1.40013
1.40001
1.3778
1.40001
1.4
1.40063
1.43621
1.40001
1.40001
1.43322
1.40005
1.3879
1.40019
1.40001
1.40004
1.40001
1.40001
1.40001
1.40012
1.40001
1.4
1.40001
1.40001
1.40562
1.40001
1.40009
1.40001
1.40001
1.40841
1.46303
1.40001
1.40001
1.40001
1.4
1.40001
1.40044
1.40001
1.39999
1.50093
1.40013
1.4003
1.40001
1.40001
1.44358
1.40008
1.40218
1.40001
0.983064
1.43139
1.40001
1.40001
1.40001
1.4
1.40001
1.4
1.4
1.40001
1.40001
1.4
1.38713
1.40038
1.40001
1.39986
1.40001
1.39348
1.40162
1.39968
1.4
1.45601
1.40001
1.40001
1.40001
1.4
1.40002
1.40001
1.45767
1.39988
1.40001
1.4
1.40001
1.40022
1.4
1.40009
1.42652
1.45417
1.41822
1.40001
1.3998
1.39999
1.41536
1.40001
1.40006
1.40003
1.40001
1.40001
1.40105
1.44886
1.23295
1.40001
1.40001
1.40001
1.41209
1.40001
1.01531
1.3987
1.40001
1.40001
1.41435
1.40037
1.4
1.40002
1.40001
1.43105
1.41762
1.40001
1.39995
1.39926
1.39987
1.4
1.40023
1.35783
1.40001
1.4
1.40004
1.4
1.40001
1.40031
1.40004
1.40001
1.40002
1.4
1.41838
1.4
1.40001
1.39894
1.45374
1.39955
1.43076
1.4
1.40062
1.40189
1.41616
1.40001
1.39997
1.45282
1.98496
0.647719
1.40001
1.40001
1.40001
1.40001
1.40001
1.40005
1.40001
1.40001
1.40113
1.40001
1.4
1.3171
1.40001
1.40001
1.40001
1.40001
1.40001
1.39147
1.4
1.40001
1.40001
1.40001
1.43019
1.40003
1.40001
1.40001
1.40001
1.39733
1.4
1.40415
1.40057
1.40001
1.40001
1.4
1.40024
1.39999
1.40001
1.40001
1.39909
0.572215
1.40006
1.41721
1.4
1.4
1.4
1.40001
1.4
1.4
1.50269
1.40001
1.40001
1.4
1.40001
1.3392
1.3994
1.4
1.40001
1.40016
1.4
1.40036
1.40001
1.43438
1.39438
1.40001
1.40001
1.4
1.39906
1.12405
1.40001
1.4
1.40001
1.41856
1.40001
1.40001
1.40001
1.40001
1.33586
1.4
1.40649
1.39982
1.40001
1.30545
1.40101
1.4
1.406
1.40003
1.29775
1.40001
1.37738
1.40719
1.40001
1.40188
1.40001
1.40001
1.40001
1.40001
1.4
1.41679
1.40001
1.40001
1.40051
1.4
1.40053
1.40001
1.4033
1.39988
1.43338
1.40001
1.41917
1.17995
1.36388
1.41924
1.39905
1.40078
1.43596
1.40001
1.39727
1.4012
1.39993
1.40001
1.40001
1.40035
1.41522
1.40001
1.39905
1.40001
1.40001
1.40082
1.4
1.40001
1.39612
1.40001
1.40001
1.40001
1.39997
1.38676
1.40093
1.40068
1.4
1.40001
1.40044
1.39999
1.40001
1.32006
1.40001
1.40001
1.40158
1.40001
1.40244
1.41683
1.40006
1.39976
1.40001
1.39999
1.4214
1.40001
1.4
1.40001
1.39999
1.40537
1.40114
1.40001
1.40943
1.40001
1.33035
1.4
1.4
1.40001
1.39999
1.40001
1.40001
1.40145
1.40001
1.40001
1.40001
1.40905
1.5287
1.40001
1.4
1.40002
1.40001
1.40001
1.4
1.4
1.40001
1.4
1.4
1.25667
1.40001
1.4
1.37656
1.35833
1.40001
1.4
1.42646
1.40001
1.40001
1.40372
1.40001
1.40021
1.40001
1.40001
1.39999
1.40272
1.40001
1.37701
1.40699
1.40067
1.40001
1.40001
1.40001
1.40001
1.40001
1.40395
1.40001
1.41036
1.40001
1.40001
1.40001
1.4
1.4
1.36348
1.39704
1.41018
1.39998
1.40001
1.43554
1.43641
1.39999
1.40033
1.40001
1.40001
1.14734
1.40001
1.40036
1.4
1.40001
1.40001
1.40001
1.40001
1.40001
1.4
1.40001
1.40001
1.4
1.39999
1.40001
1.40001
1.4
1.4
1.39998
1.40001
1.40882
1.40001
1.40001
1.39999
1.40001
1.39688
1.40001
1.4
1.40001
1.39996
1.40552
1.40604
1.53959
1.4
1.39957
1.4
1.4
1.40035
1.41976
1.4007
1.40002
1.40268
1.40001
1.40556
1.40001
1.40805
1.4
1.4
1.40001
1.40001
1.45844
1.4
1.30886
1.40001
1.4
1.40001
1.4448
1.40001
1.39997
1.40204
1.40002
1.40001
1.40001
1.40001
1.40002
1.29181
1.40008
1.4341
1.23164
1.40008
1.43213
1.4
1.40001
1.40123
1.40001
1.40001
1.40001
1.40001
1.39889
1.4
1.40001
1.4
1.39433
1.39988
1.42199
1.4007
1.40001
1.40001
1.4
1.4
1.40001
1.43401
1.40001
1.35375
1.40001
1.54897
1.40346
1.40001
1.39903
1.39913
1.40001
1.40001
1.40032
1.40001
1.3989
1.39993
1.40001
1.40039
1.39985
1.40003
1.40083
1.40017
1.39998
1.40001
1.43521
1.40001
1.40001
1.40001
1.43757
1.48342
1.39992
1.40002
1.61025
1.40851
1.40224
1.40001
1.29588
1.40001
1.40001
1.40003
1.40001
1.40001
1.40001
1.43746
1.4
1.4
1.40001
1.40001
1.40001
1.40001
1.4
1.41829
1.40001
1.40001
1.40001
1.4
1.40654
1.40001
1.41217
1.39994
1.4
1.39391
1.40004
1.39906
1.39991
1.40014
1.40002
1.40001
1.4
1.40001
1.40165
1.39998
1.39995
1.40116
1.40001
1.40001
1.40001
1.40351
1.4
1.40001
1.39867
1.39996
1.40004
1.40001
1.40001
1.39996
1.36206
1.40001
1.40001
1.40001
1.40049
1.40001
1.40001
1.40055
1.50985
1.40001
1.39996
1.39999
1.40103
1.40001
1.75406
1.40001
1.40014
1.40001
1.40001
1.31072
1.42545
1.40144
1.38343
1.23767
1.27491
1.4224
1.40054
1.39985
1.39568
1.42777
1.50204
1.4
1.40001
1.44364
1.40001
1.40001
1.44147
1.40011
1.4
1.41594
1.39999
1.42282
1.40001
1.40001
1.4001
1.4607
1.40001
1.40001
1.40001
1.40001
1.40206
1.44427
1.40001
1.39997
1.4
1.4
1.42083
1.4
1.40006
1.40001
1.40001
1.46058
1.40001
1.40001
1.40284
1.38134
1.40001
1.4
1.40001
1.40001
1.16583
1.40001
1.39998
1.43895
1.44908
1.3989
1.40001
1.39633
1.40624
1.40145
1.46501
1.40416
1.40001
1.40001
1.40001
1.4
1.40001
1.4
1.39994
1.40254
1.4
1.40001
1.40001
1.4
1.40002
1.40034
1.47925
1.40176
1.4
1.39356
1.38779
1.40147
1.44485
1.40001
1.40001
1.40001
1.3999
1.43496
1.40135
1.4535
1.40001
1.40001
1.40005
1.40005
1.43919
1.40001
1.43362
1.2944
1.40001
0.673305
1.40001
1.40001
1.40001
1.40001
1.39977
1.40001
1.40001
1.40001
2.52683
1.42731
1.40455
1.40001
1.4
1.40001
1.40001
1.40001
0.687825
1.40001
1.40398
1.40001
1.40003
1.4
1.40032
1.40001
1.4
1.40001
1.40001
1.40001
1.46375
1.40372
1.40001
1.40001
1.3743
1.4
1.40136
1.4
1.40001
1.4
1.39997
1.40001
1.40001
1.15076
1.4532
1.40941
1.40001
1.40001
1.40001
1.4
1.40001
1.46347
1.40061
1.42504
1.4
1.40001
1.40815
1.40001
1.40001
1.43701
1.40403
1.42614
1.42327
1.40001
1.40018
1.40001
1.40004
1.40216
1.4026
1.44986
1.42986
1.4
1.39992
1.40001
1.39783
1.09073
1.40003
1.40001
1.40001
1.40114
1.40001
1.40182
1.40006
1.42607
1.42669
1.40006
1.41933
1.40001
1.40001
1.39996
1.40001
1.40001
1.44119
1.40001
1.4
1.41952
1.40479
1.40001
1.40432
1.40012
1.40095
1.40006
1.40001
1.39127
1.40001
1.4
1.41944
1.31808
1.40001
1.42892
1.4568
1.4
1.4
1.40001
1.40001
1.40001
1.40001
1.40008
1.40089
1.4
1.40001
1.44639
1.19435
1.40123
1.40001
1.4
1.40014
1.40009
1.40011
1.43508
1.39764
1.40054
1.30877
1.40001
1.4
1.40404
1.40001
1.40001
1.40001
1.4
1.4
1.40003
1.40587
1.40001
1.40001
1.34627
1.4
1.40001
1.40219
1.40001
1.40044
1.40001
1.39994
1.40001
1.40001
1.40001
1.4
1.40001
1.40001
1.40001
1.4237
1.40001
1.40001
1.37019
1.39917
1.40001
1.4
1.40131
1.4
1.4
1.40001
1.40001
1.40001
1.40001
1.40064
1.40001
1.40001
1.40001
1.43512
1.40001
1.40001
1.4
1.40457
1.40002
1.40007
1.39956
1.40001
1.27401
1.40001
1.4
1.4
1.40001
1.42268
1.40055
1.40004
1.40001
1.40001
1.40001
1.40093
1.4
1.30687
1.40001
1.40001
1.4
1.39986
1.39915
1.40001
1.40001
1.38204
1.40001
1.4013
1.40001
1.45007
1.40263
1.41773
1.40001
1.40001
1.46208
1.40001
1.44342
1.40001
1.40001
1.40001
1.39989
1.40001
1.4
1.41417
1.40001
1.40001
1.40005
1.4
1.39989
1.4
1.40001
1.39994
1.4
1.39988
1.40001
1.40007
1.55444
1.38318
1.42105
1.40001
1.39986
1.40007
1.40001
1.40001
1.40001
1.38024
1.40732
1.40001
1.40001
1.40406
1.40001
1.39732
1.44927
1.4
1.4
1.40001
1.40001
1.40001
1.36049
1.4005
1.38941
1.40093
1.40001
1.40001
1.40213
1.39943
1.40001
1.4
1.40001
1.40001
1.40001
1.40003
1.40001
1.40001
1.4
1.4
1.40842
1.40001
1.3996
1.46298
1.40002
1.39968
1.4
1.4
1.45734
1.48632
1.40163
1.4
1.40001
1.40001
1.4
1.4
1.40001
1.40018
1.41478
1.40227
1.40001
1.47007
1.40001
1.40102
1.40118
1.40001
1.3995
1.38208
1.38641
1.40001
1.28275
1.40003
1.45597
1.4
1.4
1.39953
1.4
1.40002
1.40001
1.35846
1.40002
1.4023
1.39927
1.05834
1.40001
1.4252
1.40001
1.40002
1.40003
1.40001
1.40005
1.4
1.4
1.4
1.40001
1.40001
1.4
1.40001
1.40001
1.38895
1.40002
1.39944
1.34286
1.38031
1.40001
1.40001
1.44253
1.32555
1.40001
1.40001
1.39946
1.44098
1.45271
1.39949
1.40001
1.40001
1.29857
1.37119
1.40001
1.40001
1.40001
1.40001
1.40001
1.40001
1.39999
1.39475
1.41111
1.4906
1.32728
1.40119
1.24159
1.40001
1.39512
1.40002
1.4
1.39895
1.4
1.40056
1.40001
1.39671
1.40002
1.40001
1.4
1.4
1.40001
1.40445
1.40005
1.40001
1.40001
1.40001
1.40049
1.23272
1.4
1.40006
1.4
1.40001
1.40001
1.45871
1.40001
1.4
1.43723
1.4009
1.40001
1.40001
1.41292
1.40001
1.40001
1.40002
1.40001
1.40001
1.39994
1.40001
1.46848
1.40001
1.39999
1.4
1.40001
1.40001
1.40001
1.44411
1.40001
1.45382
1.38322
1.39757
1.40001
1.40001
1.40309
1.4133
1.41066
1.40001
1.39792
1.40001
1.40008
1.20632
1.40001
1.17227
1.40001
1.40001
1.4
1.40001
1.40001
1.43118
1.40001
1.46944
1.40001
1.39115
1.40001
1.39981
1.40001
1.40001
1.4
1.40001
1.40001
1.40001
1.39936
1.4
1.40001
1.40001
1.5556
1.40005
1.39702
1.4
1.40001
1.40712
1.4
1.40001
1.40001
1.43369
1.45369
1.40006
1.40001
1.40001
1.40001
1.3999
1.40001
1.40001
1.19045
1.45123
1.40001
1.43624
1.40001
1.411
1.406
1.39987
1.40001
1.40001
1.4311
1.40001
1.40133
1.40001
1.4
1.40001
1.42142
1.40001
1.40001
1.40001
1.4
1.4
1.40001
1.4
1.39948
1.45935
1.40001
1.26994
1.39965
1.4
1.40035
1.4586
1.40352
1.40001
1.43072
1.40001
1.4
1.40001
1.40001
1.40001
1.42232
1.4
1.4
1.40003
1.39549
1.39989
1.40001
1.40934
1.4
1.41144
1.40001
1.40001
1.41286
1.40651
1.40001
1.4
1.40223
1.40001
1.2713
1.4
1.40001
1.44468
1.40001
1.4
1.42403
1.39993
1.39998
1.4
1.40001
1.4
1.40001
1.40845
1.40001
1.23661
1.40432
1.40001
1.39862
1.40001
1.40028
1.40001
1.40001
1.312
1.40161
1.40001
1.4
1.4
1.4
1.4
1.45242
1.4
1.40001
1.4
1.40183
1.45388
1.40238
1.40001
1.43254
1.4
1.40138
1.40327
1.4
1.40001
1.4
1.40001
1.40409
1.4
1.47255
1.42156
1.40001
1.40001
1.40003
1.40001
1.40001
1.40001
1.40017
1.40001
1.4
1.40001
1.40001
1.40001
1.40001
1.40008
1.4
1.48673
1.40037
1.44325
1.40009
1.40129
1.4029
1.40001
1.40182
0.666065
1.40114
1.40001
1.11007
1.4
1.39944
1.39169
1.45354
1.40001
1.4
1.40257
1.40001
1.40001
1.4
1.4
1.39971
1.40001
1.45616
1.40232
1.45429
1.40001
1.40143
1.40008
1.40001
1.40001
1.40001
1.4
1.40001
1.41629
1.42346
1.40001
1.40117
1.30615
1.40126
1.13989
1.45637
1.41866
1.40779
1.40019
1.41415
1.40145
1.40001
1.4596
1.40005
1.4
1.40004
1.40001
1.4
1.45193
1.44168
1.40001
1.4
1.36397
1.40001
1.4
1.4086
1.45793
1.40001
1.39134
1.40001
1.4
1.4
1.38798
1.4
1.40001
1.40001
1.40001
1.35535
1.40013
1.4
1.53971
1.4
1.40001
1.61348
1.40001
1.34856
1.40003
1.39994
1.40001
1.40001
1.40001
1.40001
1.40002
1.40001
1.40001
1.39994
1.40001
1.40001
1.40001
1.40001
1.04565
1.40001
1.40001
1.40248
1.40001
1.40237
1.40001
1.40001
1.39064
1.40001
1.39997
1.40001
1.4
1.40002
1.4
1.40001
1.40001
1.39999
1.40001
1.40012
1.40001
1.40001
1.40016
1.4007
1.39706
1.39982
1.40001
1.44759
1.452
1.39994
1.39998
1.40001
1.40033
1.44625
1.40001
1.40001
1.40001
1.45447
1.40001
1.4
1.20438
1.40001
1.40001
1.40001
1.40001
1.40001
1.40176
1.40001
1.40017
1.40001
1.37457
1.40001
1.40003
1.39805
1.40001
1.39993
1.43601
1.40001
1.40001
1.3059
1.34562
1.40001
1.39973
1.4
1.40001
1.40001
1.46156
1.39989
1.40002
1.42486
1.35611
1.10307
1.4
0.938533
1.40005
1.40001
1.40001
1.40001
1.40001
1.4
1.42871
1.40323
1.20103
1.39986
1.40793
1.40012
1.40001
1.40001
1.4
1.40001
1.40001
1.40008
1.40001
1.40114
1.4
1.40072
1.4
1.40001
1.40001
1.40001
1.40001
1.48698
1.40002
1.40023
1.4
1.40001
0.93197
1.40001
1.40026
1.40001
1.40001
1.40004
1.44532
1.41007
1.40001
1.40001
1.40001
1.40001
1.40001
1.40089
1.39826
1.40001
1.40001
1.40001
1.40001
1.40002
1.40001
1.41465
1.40001
1.40001
1.40001
1.45924
1.40001
1.35244
1.40001
1.40001
1.40001
1.45815
1.40001
1.40001
1.40179
1.40001
1.4066
1.40005
1.4
1.40001
1.40001
1.40003
1.40747
1.40001
1.39969
1.4
1.39999
1.4
1.00577
1.40001
1.41521
1.40001
1.40005
1.39076
1.39987
1.46794
1.49445
1.40371
1.40001
1.5469
1.4
0.794105
1.40001
1.39208
1.40001
1.40001
1.4
1.40001
1.47822
1.3904
1.42217
1.40001
1.30329
1.40904
1.40526
1.40001
1.394
1.40004
1.40001
1.40001
1.40013
1.40305
1.39996
0.77409
1.40001
1.40001
1.39996
1.39917
1.30026
1.40431
1.40001
1.40001
1.40862
1.4
1.40059
1.40064
1.40001
1.40001
1.40001
1.40001
1.40001
1.38861
1.39969
1.43621
1.0324
1.4
1.40001
1.40001
1.40001
1.4027
1.40029
1.40092
1.40011
1.40002
1.40001
1.42365
1.40001
1.40001
1.40001
1.40105
1.46606
1.42294
1.40004
1.40001
1.4004
1.40326
1.31832
1.40001
1.15312
1.4
1.12293
1.40001
1.40162
1.39998
1.404
1.40001
1.66988
0.92613
1.39999
1.40001
1.40001
1.40392
1.42003
1.40001
1.4
1.40001
1.4
1.45496
1.40001
1.4
1.40437
1.4105
1.40001
1.40001
1.40791
1.46589
1.40001
1.40004
1.32468
1.40001
1.40001
1.40001
1.40001
1.40001
1.40001
1.40001
1.40011
1.4
1.40056
1.40001
1.40001
1.40001
1.40001
1.40001
1.39991
1.40001
1.40001
1.40129
1.4
1.40121
1.40051
1.40002
1.44016
1.40001
1.40001
1.40001
1.4001
1.40001
1.46555
1.4
1.40001
1.40012
1.40001
1.40001
1.40001
1.40001
1.40001
1.42969
1.40001
1.4
1.40002
0.9101
1.4
1.41409
1.40001
1.41499
1.4
1.39998
1.40001
0.865056
1.40001
1.4
1.40977
1.40001
1.39999
1.45155
1.39771
1.60136
0.908921
1.40001
1.40001
1.40001
1.40087
1.40001
1.40001
1.41271
1.4
1.40001
1.40001
1.40012
1.40001
1.39999
1.39469
1.40001
1.40001
1.4
1.40001
1.50341
1.39999
1.40001
1.40001
1.40012
1.40001
1.40001
1.40001
1.39994
1.4
1.4
1.40001
1.40391
1.40001
1.40001
1.40001
1.40001
1.40001
1.40023
1.40313
1.40001
1.40001
1.40002
1.40001
1.40001
1.42325
1.40002
1.40001
1.40001
1.40001
1.41927
1.53753
1.40001
1.40088
1.4001
1.4049
1.4
1.39981
1.40001
1.39426
1.43365
1.40004
1.40001
1.53522
1.39033
1.40001
1.40267
1.40001
1.40001
1.1122
1.40001
1.40001
1.39987
1.40001
1.40001
1.40395
0.905647
1.40001
1.40001
1.40001
1.40001
1.40001
1.4003
1.40001
1.40001
1.44087
1.40001
1.40007
1.40001
1.40001
1.4
1.3979
1.40199
1.40001
1.4
1.40001
1.4002
1.4
1.40001
1.40001
1.4
1.40001
1.40001
1.38489
1.42505
1.40004
1.40001
1.40001
1.3911
1.40001
1.40001
1.40002
1.40001
1.40001
1.40001
1.40095
1.40001
1.55054
1.40001
1.40001
1.40001
1.40002
1.40001
1.4
1.4472
1.40839
1.40001
1.4
1.42389
1.4
1.4
1.40001
1.46749
1.40001
1.40001
1.40001
1.4
1.40001
1.40001
1.40001
1.40004
1.39861
0.998159
1.40001
1.4
1.40001
1.40001
1.40063
1.40001
1.40001
1.4
1.40001
1.39883
1.39998
1.40001
1.4
1.4
1.40001
1.40001
0.924384
1.40001
1.4
1.40001
1.40001
1.40001
1.40001
1.29441
1.40001
1.43784
1.4
1.40013
1.46589
1.39647
1.40001
1.40004
1.40001
1.59114
1.40005
1.40001
1.40001
1.40001
1.40001
1.40001
1.44637
1.4
1.4001
1.40076
1.4
1.4
1.40001
1.44392
1.40001
1.27688
1.39996
1.40073
1.30726
1.40001
1.40001
1.41401
1.40001
1.4629
1.40001
1.40001
1.40001
1.39999
1.40334
1.40001
1.40001
1.40001
1.40001
1.40965
1.4
1.40003
1.42148
1.40001
1.40001
1.42636
0.941664
1.41022
1.40001
1.4354
1.4
1.40014
1.51104
1.36409
1.40001
1.39998
1.408
1.40001
1.4001
1.40042
1.40001
1.40001
1.40001
1.4
1.38938
1.4
1.40001
1.4549
1.40001
1.44688
1.40001
1.40001
1.40001
1.40001
1.49541
1.40001
1.40001
1.40001
1.39986
1.40001
1.4
1.4
1.3178
1.39116
1.40001
1.40001
1.40001
1.40003
1.40001
1.39985
1.40001
1.51943
0.804053
1.4165
1.4
1.39976
1.40001
1.39997
1.35992
1.40001
1.40001
1.41738
1.40001
1.4
1.40001
0.499787
1.40001
1.40001
1.4798
1.39939
1.40003
1.40436
1.40255
1.40001
1.39999
1.24404
1.40001
1.4
1.40001
1.39998
1.40001
1.40063
1.4
1.40018
1.40001
1.4
1.40114
1.40001
1.4
1.31606
1.40001
1.40001
1.40001
1.4
1.42984
1.4
1.39772
1.40001
1.40018
1.40001
1.40001
1.40014
1.40001
1.40086
1.39999
1.39957
1.39997
1.40001
1.40001
0.6424
1.4
1.40001
1.4
1.40001
1.40072
1.40054
1.4132
1.40001
1.39999
1.4
1.4
1.40001
1.39215
1.40001
1.40016
1.4
1.46149
1.40001
1.40001
1.39999
1.40001
1.40622
1.4002
1.40001
1.43243
1.40001
1.40001
1.39774
1.42103
1.39952
1.4
1.40001
1.40001
1.40001
1.40004
1.177
1.44249
1.40031
1.40882
1.40001
1.40001
1.40001
1.40001
1.39999
1.39782
1.4
1.25248
1.39999
1.44373
1.40001
1.40003
1.40001
1.4
1.40001
1.40001
1.40001
1.40001
1.40001
1.39961
1.4
1.42838
1.4455
1.4
1.30182
1.39921
1.39981
1.40001
1.40001
1.3995
1.40002
1.40001
1.40151
1.4
1.40001
1.40001
1.4184
1.46833
1.40001
1.40001
1.40001
1.40001
1.40006
1.40001
1.39386
1.4
1.40001
1.19387
1.4
1.40001
1.40051
1.40001
1.19548
1.40001
1.4
1.40001
1.40001
1.4
1.39909
1.4
1.40001
1.40001
1.40001
1.39999
1.40009
1.40001
1.40927
1.40002
1.39996
1.39999
1.4
1.40008
1.4
1.40001
1.40001
1.40001
1.40001
1.37345
1.40001
1.4172
1.40001
1.40001
1.41126
1.40004
1.4
1.40001
1.40001
1.41971
1.40001
1.40001
1.27823
1.40001
1.4208
1.47406
1.4
1.40001
1.40001
1.42
1.40001
1.40601
1.43149
1.39996
1.39999
1.42946
1.40703
1.40004
1.40405
1.40005
1.4003
1.40023
1.40001
1.3861
1.40042
1.39968
0.644755
1.40032
1.40742
1.40001
1.40001
1.39999
1.40001
1.40004
1.40001
1.40024
1.33006
1.40001
1.40001
1.40001
1.40001
1.4
1.40001
1.40001
1.40001
1.40001
1.40001
1.40001
1.40001
1.40001
1.40001
1.40001
1.4
1.4
1.40001
1.40009
1.40018
1.4
1.40001
1.40001
1.07743
1.40007
1.40001
1.40001
1.40001
1.40045
1.40001
1.4
1.40044
1.44541
1.4
1.41378
1.40001
1.40001
1.4
1.40001
1.39999
1.43177
1.4
1.40001
1.40001
1.39746
1.40001
1.40003
1.40001
2.0086
1.4
1.4
1.40001
1.4035
1.40005
1.40001
1.40001
1.40005
1.40055
1.39874
1.40001
1.40001
1.40001
1.40001
1.40001
1.40001
1.39538
1.4
1.40002
1.40001
1.40001
1.40001
0.766153
1.40006
1.40001
1.40001
1.4
1.40001
1.40012
1.3992
1.40001
1.4
1.41141
1.4005
1.402
1.4
1.4
1.40001
1.40001
1.40001
1.40001
1.40001
1.40001
1.4
1.4
1.4
1.40032
1.40001
1.40001
1.40001
1.40001
1.40001
1.40001
1.40001
1.40001
1.42154
1.11058
1.35221
1.4
1.4
1.40196
1.40001
1.17233
1.40001
1.4
1.4
1.40001
1.40001
1.40001
1.39389
1.4
1.40011
1.40001
1.45705
1.40929
1.40605
1.40001
1.40001
1.40004
1.40001
1.39996
1.4
1.4
1.3998
1.4
1.40001
1.40006
1.44318
1.40001
1.40001
1.4
1.39778
1.40001
1.40001
1.40001
1.40001
1.39999
1.39993
1.39897
1.40381
1.40001
1.40095
1.40006
1.40429
1.40002
1.39997
1.40001
1.40001
1.40001
1.39996
1.42101
1.40045
1.40008
1.40002
1.39965
1.40001
1.4
1.40001
1.38312
1.67238
1.40001
1.40001
1.4
1.39996
1.40001
1.40114
1.40001
1.40001
1.40001
1.4
1.40001
1.4
1.4
1.40001
1.38945
1.40002
1.40001
1.40001
1.40202
1.40001
1.40514
1.40002
1.40001
1.32366
1.40001
1.40001
1.40001
1.4
1.40102
1.40001
1.40001
1.3933
1.40001
1.4
1.9283
1.40156
1.4
1.40001
1.32248
1.39877
1.40001
1.40001
1.40001
1.33307
1.35634
1.40085
1.4
1.39993
1.40006
1.40023
1.39723
1.40001
1.39984
1.40009
1.40001
1.46544
1.40001
1.40004
1.40001
1.40001
1.33494
0.890168
1.4002
1.39988
1.25367
1.40001
1.40001
1.4
1.40001
1.40001
1.26304
1.39992
1.4
1.40001
1.40001
1.40001
1.1701
1.40001
1.40001
1.42157
1.4
1.40002
1.4
1.39917
1.40001
1.40001
1.40001
1.40001
1.4
1.40001
1.39978
1.40001
1.40012
1.13482
1.41694
1.40055
1.40001
1.3623
1.40001
1.39994
1.40001
1.39635
1.40001
1.40001
1.39395
1.40001
1.40001
1.42441
1.40001
1.40001
1.41328
1.40001
1.4
1.40137
1.45648
1.40001
1.46009
1.40001
1.40001
1.40001
1.40001
1.27854
1.4
1.40001
1.40001
1.40001
1.41943
1.40124
1.40625
1.40001
1.40001
1.40234
1.40202
1.40319
1.40001
1.41654
1.40001
1.40001
1.40001
1.40001
1.31171
1.40202
1.40001
1.40001
1.4
1.40001
1.40001
1.40001
1.4
1.4422
1.4
1.45756
1.40001
1.4
1.40007
1.40001
1.40005
1.40001
1.42822
1.40632
1.40001
1.39999
1.47683
1.40001
1.40001
1.4
1.40001
1.40129
1.40001
1.52779
1.4
1.4
1.40001
1.40014
1.40001
1.40001
1.4
1.40023
1.40001
1.40555
1.40001
1.40001
1.4
1.40001
1.42943
1.40312
1.40001
1.40001
1.40001
1.40001
1.40087
1.40001
1.40001
1.431
1.37781
1.39237
1.4
1.33118
1.40037
1.40001
1.40001
1.50129
1.40003
1.39994
1.40001
1.39997
1.52855
1.4
1.4
1.40041
1.45418
1.40001
1.40001
1.4039
1.38085
1.40001
1.08818
1.40028
1.40001
1.40001
1.40001
1.40003
1.40001
1.4
1.40127
1.40001
1.4
1.39926
1.40001
1.4
1.4003
1.40003
1.4
0.791614
1.4
1.40021
1.40001
1.40106
1.4029
1.40001
1.40001
1.4
1.4
1.4
1.4
1.40213
1.4
1.40001
1.08899
1.4
1.40001
1.4
1.40001
1.40001
1.40001
1.2166
1.40705
1.40182
1.40353
1.40013
1.40002
1.40001
1.40001
1.4
1.40001
1.4002
1.40001
1.40001
1.40001
1.40002
1.44668
1.40001
1.42339
1.40024
1.40001
1.40511
1.40035
1.37594
1.45852
1.42656
1.39999
1.39999
1.41863
1.40001
1.40002
1.39996
1.40001
1.40208
1.4
1.4
1.45288
1.39951
1.40004
1.40869
1.4
1.39568
1.40001
1.40001
1.40001
1.39984
1.40001
1.4
1.40001
1.40001
1.40606
1.39989
1.40001
1.40001
1.106