/*--------------------------------*- C++ -*----------------------------------*\
  =========                 |
  \\      /  F ield         | OpenFOAM: The Open Source CFD Toolbox
   \\    /   O peration     | Website:  https://openfoam.org
    \\  /    A nd           | Version:  6
     \\/     M anipulation  |
\*---------------------------------------------------------------------------*/
FoamFile
{
    version     2.0;
    format      ascii;
    class       surfaceVectorField;
    location    "1.23";
    object      rhoUf;
}
// * * * * * * * * * * * * * * * * * * * * * * * * * * * * * * * * * * * * * //

dimensions      [1 -2 -1 0 0 0 0];

internalField   nonuniform List<vector> 
11670
(
(-0.000120948 -2.05822e-06 0.00013701)
(-0.000111148 -2.64237e-05 4.1317e-05)
(-0.000225685 -6.00782e-05 0.000207379)
(-0.0001171 -3.84506e-05 0.000177708)
(-7.76885e-09 1.05491e-08 6.45259e-08)
(3.76169e-08 -2.05286e-08 3.33483e-08)
(6.70596e-08 -8.14321e-09 3.88567e-08)
(3.48409e-08 8.94515e-09 3.77533e-08)
(-0.00024665 -9.97059e-06 -0.000267175)
(-0.000195338 -7.28402e-05 -8.33747e-05)
(-0.000378105 -0.000115019 -0.000335448)
(-0.000204529 -3.30167e-05 -0.000241311)
(-1.62584e-06 -1.01494e-07 1.74373e-06)
(-1.31456e-06 -2.05391e-07 7.75271e-07)
(-2.07025e-06 -8.44773e-07 1.9544e-06)
(-1.3968e-06 -3.45761e-07 1.66414e-06)
(-4.13014e-05 3.58499e-06 -8.9347e-07)
(-3.28516e-05 2.72138e-06 -4.82912e-06)
(-3.7311e-05 2.24358e-06 3.35928e-06)
(-5.21877e-05 2.97949e-06 2.00977e-06)
(5.46242e-08 -9.35177e-09 -6.22576e-08)
(5.57842e-08 -4.79045e-09 -8.06709e-08)
(2.92481e-08 -3.31071e-08 -5.78439e-08)
(7.93866e-08 -3.68634e-08 -6.0689e-08)
(3.77771e-08 2.49546e-08 1.24839e-07)
(-1.15528e-07 1.65687e-07 2.20493e-07)
(1.3908e-07 -1.04772e-07 9.15621e-08)
(9.00322e-08 6.1055e-08 1.64172e-07)
(-1.38987e-07 4.78393e-10 7.15228e-08)
(4.90041e-08 -1.53938e-08 3.54226e-08)
(2.70095e-08 -5.01486e-08 1.44391e-08)
(8.7081e-09 -5.68929e-09 2.06497e-08)
(-2.60263e-07 2.67157e-09 -2.3024e-10)
(3.85569e-08 -4.54659e-08 -3.07453e-08)
(2.38731e-07 -1.94521e-09 2.59043e-08)
(-1.21698e-08 -3.59513e-08 4.1199e-08)
(2.318e-07 -6.75343e-08 1.39963e-07)
(4.17291e-08 6.5896e-09 1.43183e-07)
(-1.36066e-08 1.91947e-09 7.35257e-08)
(6.93218e-08 -3.84513e-08 7.52733e-08)
(6.02991e-07 -4.30277e-08 4.22376e-07)
(4.10877e-07 9.48747e-08 5.36223e-07)
(-1.70207e-09 1.61429e-07 7.55667e-07)
(2.02351e-07 -1.43929e-07 8.41532e-07)
(-4.95514e-05 -3.79243e-05 2.50939e-05)
(-3.18243e-06 -4.31699e-06 1.01844e-05)
(-6.05175e-06 -3.07095e-06 1.60551e-05)
(-7.3086e-06 -5.42321e-06 3.50407e-05)
(-8.54869e-09 3.35796e-08 -2.32533e-08)
(-2.02203e-08 -7.89634e-09 -7.01034e-08)
(1.04527e-08 1.30734e-08 -5.33655e-08)
(-9.43919e-09 1.02892e-08 -5.17065e-08)
(-5.53091e-08 -4.52119e-09 4.63247e-08)
(-1.91835e-07 9.18184e-08 1.14582e-08)
(-1.25067e-07 8.05645e-08 -2.34847e-08)
(-1.44237e-07 3.60984e-08 -1.94392e-09)
(-2.06186e-05 -9.13751e-06 -2.92786e-05)
(-6.59751e-05 -3.02622e-05 -4.08404e-05)
(-2.13675e-05 -1.05451e-05 -3.88205e-05)
(-1.42181e-05 -8.36514e-06 -2.36888e-05)
(8.64663e-08 -3.36924e-08 -2.04384e-08)
(1.72869e-08 2.69749e-08 4.19654e-08)
(4.88745e-08 -1.25559e-08 8.30376e-09)
(4.87163e-08 -9.6151e-09 1.80399e-08)
(-0.00114888 0.00100755 -0.000749297)
(-0.000438293 0.000275879 7.33953e-05)
(-0.000401299 0.000586365 -0.000438768)
(-0.000371882 0.00060116 -0.000344822)
(-0.00135898 -0.00118251 0.000801466)
(-0.000420091 -0.00029469 -3.63322e-05)
(-0.000403276 -0.000529669 0.000342481)
(-0.000425497 -0.000562484 0.000533262)
(-3.40565e-07 5.8314e-08 -1.08073e-07)
(-3.59332e-07 3.70391e-08 -1.31213e-08)
(-4.43389e-07 9.52616e-08 -1.20293e-07)
(-3.86475e-07 7.64249e-08 -8.17748e-08)
(2.61329e-08 -1.35012e-08 -9.28866e-09)
(1.01405e-08 2.72238e-08 -3.42127e-09)
(-2.77806e-08 1.42629e-08 -1.55059e-08)
(-3.29295e-08 8.72853e-09 -1.23721e-08)
(-0.000700088 -0.000234385 -2.04508e-05)
(-0.00150888 -0.000385609 -0.00111199)
(-0.00058441 -0.000519438 -0.000592741)
(-0.000487011 -0.000503385 -0.000423671)
(-2.14484e-08 1.47365e-08 -1.49669e-09)
(-6.023e-08 8.56475e-09 -4.82753e-09)
(-4.51692e-08 7.30744e-09 8.99558e-09)
(-4.06662e-08 5.28688e-09 9.97126e-09)
(-0.000527048 0.000180466 0.000123912)
(-0.00137114 0.000542964 0.00121607)
(-0.000381988 0.000622774 0.000370176)
(-0.00041278 0.000458698 0.00052383)
(-4.53582e-05 4.3337e-05 -2.17362e-05)
(-2.36172e-06 -6.74447e-06 -9.48853e-06)
(-9.00462e-06 3.42392e-06 -2.73712e-05)
(-7.8852e-06 9.25299e-06 -1.42619e-05)
(-9.52415e-09 -7.20604e-09 5.47286e-09)
(8.45018e-09 -2.72879e-09 -4.91214e-09)
(6.86608e-09 -8.79571e-09 -1.43527e-08)
(5.48719e-10 -3.89271e-09 -1.15301e-08)
(-1.48892e-08 -4.34283e-08 7.70381e-09)
(4.33188e-08 -4.47977e-08 3.39747e-08)
(5.04056e-08 -4.72894e-08 -7.85705e-09)
(1.26647e-07 -5.37419e-08 2.60626e-08)
(-2.00848e-05 1.77379e-07 2.12125e-05)
(-6.68116e-05 5.47463e-05 3.58075e-05)
(-1.60801e-05 1.89085e-05 1.64734e-05)
(-2.13067e-05 1.1075e-05 2.87775e-05)
(2.71156e-07 -6.47709e-09 -1.22996e-07)
(1.36786e-08 6.89925e-08 -9.49865e-09)
(1.59278e-07 1.55615e-08 -8.02152e-08)
(1.38876e-07 4.74011e-08 -6.62783e-08)
(-1.02553e-07 3.72399e-07 -2.45213e-08)
(-2.51642e-06 -1.51905e-06 1.52944e-06)
(-2.52587e-07 -3.23507e-08 6.38664e-07)
(-3.01346e-07 -8.12122e-08 1.07925e-06)
(-2.47767e-07 5.10282e-08 7.87852e-08)
(-2.26323e-07 8.30947e-08 -2.7638e-08)
(-3.00428e-07 1.37157e-07 -4.9669e-08)
(-3.0687e-07 6.57615e-08 -1.22753e-08)
(1.68845e-08 -1.67523e-08 2.15548e-08)
(-4.95192e-08 -2.75487e-08 -2.64565e-09)
(-4.4481e-09 -1.40972e-08 3.16001e-08)
(-8.62659e-09 -7.56914e-09 4.62496e-08)
(2.9546e-07 -4.68201e-08 -6.44228e-09)
(1.95385e-07 1.00665e-07 2.94861e-09)
(2.26015e-07 -1.02994e-08 8.87956e-09)
(1.84705e-07 2.03884e-08 1.39157e-09)
(1.43598e-09 3.49491e-08 -1.29641e-07)
(1.36417e-07 -3.05315e-08 3.83741e-08)
(3.26936e-08 3.3072e-08 -6.07669e-08)
(-4.3764e-08 2.26094e-08 -2.96992e-08)
(5.15569e-08 -1.93894e-08 -2.18852e-08)
(-2.53495e-08 -1.7056e-08 -1.12789e-08)
(2.23962e-09 -1.66863e-08 -1.23062e-10)
(3.46118e-09 -1.53992e-08 3.47873e-09)
(-2.0022e-08 3.28103e-09 2.13451e-08)
(3.8878e-09 2.9729e-09 6.50016e-09)
(1.5213e-08 -4.73512e-09 1.40125e-08)
(1.90508e-08 -1.71718e-09 1.10799e-08)
(3.05577e-08 8.01054e-08 2.0012e-07)
(9.67714e-08 8.86468e-08 2.40697e-08)
(4.31946e-08 4.97686e-09 1.2248e-07)
(-5.11331e-09 5.56073e-08 1.18359e-07)
(4.41682e-07 -3.71363e-08 1.05102e-09)
(1.83105e-07 -1.90243e-08 -7.6866e-08)
(2.27428e-07 -3.84483e-08 -8.40639e-08)
(1.91998e-07 -6.98365e-08 -7.72724e-08)
(1.09594e-08 -1.36471e-08 -6.40063e-08)
(1.82444e-07 -3.65763e-08 5.7489e-08)
(1.13544e-07 -1.89368e-08 -3.08577e-08)
(8.19371e-08 -3.85987e-08 -5.14796e-08)
(-6.26855e-09 -1.28849e-08 1.82112e-08)
(5.97065e-08 -8.18402e-09 1.88678e-08)
(3.47763e-08 -5.6801e-09 1.70899e-09)
(2.87305e-08 -1.06375e-08 -2.08826e-11)
(1.26478e-08 4.00457e-09 -1.04441e-08)
(3.77518e-08 -4.53798e-09 5.71008e-09)
(4.47128e-08 -1.25343e-08 -6.84382e-09)
(6.33005e-08 -2.28318e-09 -1.02473e-08)
(8.86505e-07 -9.95275e-08 5.72681e-08)
(6.39364e-07 -1.11969e-07 -1.67314e-07)
(9.23261e-07 -2.06506e-07 -1.06732e-07)
(8.00075e-07 -2.00932e-07 -8.47823e-08)
(3.73336e-08 -8.00137e-09 3.48871e-08)
(3.29969e-08 -5.87112e-09 -2.90385e-08)
(4.90964e-08 -6.34086e-09 1.7418e-08)
(3.72366e-08 -1.5821e-08 1.35958e-08)
(-2.38885e-08 8.36101e-08 1.37733e-07)
(-3.69759e-08 5.91639e-08 -6.16563e-08)
(-7.14098e-08 4.40665e-08 5.8467e-08)
(-1.34221e-07 7.73301e-08 8.55074e-08)
(-4.75367e-08 2.10799e-08 -3.79705e-08)
(-2.59068e-08 2.21954e-08 -1.85774e-08)
(-4.20992e-08 6.36327e-09 -1.22501e-08)
(-5.38651e-08 1.71928e-08 -1.55863e-08)
(2.94816e-09 -4.17288e-08 7.7406e-09)
(-5.26356e-08 3.37203e-08 -3.10441e-08)
(-3.97179e-08 2.99731e-08 -2.60322e-08)
(-4.87916e-08 8.51253e-09 -2.92781e-08)
(-4.57147e-08 1.49929e-08 -3.43171e-09)
(-6.75286e-08 2.08791e-08 -1.67224e-08)
(-4.16819e-08 1.53324e-08 -7.01119e-10)
(-3.18e-08 1.3499e-08 1.58729e-09)
(3.32367e-08 -1.54999e-08 2.29198e-08)
(-4.79185e-08 -5.93983e-10 -3.40826e-08)
(-5.73785e-09 5.04236e-09 -8.29308e-09)
(-8.29336e-09 6.37658e-09 -8.21166e-09)
(-1.76237e-07 4.65185e-08 -2.20046e-09)
(-1.21486e-07 3.64088e-08 7.84865e-09)
(-9.5142e-08 3.37642e-08 1.08496e-08)
(-1.52231e-07 4.6985e-08 1.47984e-08)
(-2.61909e-07 6.58517e-09 9.50113e-09)
(-2.59496e-07 5.76187e-08 -7.51697e-08)
(-3.24389e-07 6.62051e-08 -6.51899e-08)
(-2.79761e-07 5.85364e-08 -4.82342e-08)
(-9.27792e-09 -5.43908e-09 -9.48713e-09)
(-1.61589e-08 -7.12359e-09 -1.48069e-08)
(-3.69125e-09 2.345e-09 -7.93539e-09)
(-1.28238e-09 -4.91162e-09 -7.67346e-09)
(5.53851e-08 -5.59854e-08 4.69543e-08)
(5.02118e-09 -1.91942e-08 1.09194e-08)
(3.72126e-08 -3.19419e-08 1.01215e-08)
(8.16932e-08 -3.8099e-08 3.46722e-08)
(2.89622e-09 -3.73803e-09 8.30125e-09)
(3.81715e-10 -1.26936e-09 -1.67728e-08)
(-6.74697e-09 5.66502e-09 9.49501e-09)
(-8.71869e-09 1.64778e-08 1.15083e-08)
(1.19209e-08 -1.63372e-08 1.51554e-08)
(-3.86822e-09 -6.35514e-09 1.25015e-08)
(9.16625e-09 -6.81243e-09 8.58212e-09)
(1.0132e-08 -6.17526e-09 1.47308e-08)
(6.16993e-09 -6.0431e-09 -5.257e-09)
(1.56554e-08 -7.43463e-09 -9.01846e-09)
(2.07759e-10 1.01719e-09 -1.13534e-08)
(-1.07142e-09 4.35959e-09 -7.42146e-09)
(9.73847e-09 -1.0514e-08 -5.89498e-09)
(-2.68365e-08 5.94103e-10 -5.91877e-09)
(-2.71316e-09 -5.69179e-10 -1.01164e-09)
(-2.14544e-09 -1.85601e-09 -2.34929e-09)
(5.48381e-08 -2.33177e-08 -3.2901e-08)
(4.17032e-08 -8.41903e-10 8.83866e-08)
(1.03943e-07 -1.0969e-08 2.81458e-08)
(9.80677e-08 -9.85681e-09 3.2329e-08)
(6.082e-08 -9.81573e-09 -3.43871e-08)
(2.45983e-08 -7.32742e-09 2.13741e-09)
(8.20706e-08 3.35275e-09 -8.32096e-09)
(7.59573e-08 -9.21088e-09 3.45756e-09)
(-8.73141e-08 2.73384e-08 -3.66741e-08)
(-4.28228e-08 1.04679e-08 2.81167e-08)
(-6.05817e-08 2.90705e-08 -1.61891e-08)
(-3.28089e-08 2.6311e-08 -1.0537e-08)
(-3.41247e-08 1.87705e-08 -3.29689e-09)
(-5.4271e-08 7.29053e-09 -1.01501e-09)
(-3.31423e-08 1.04883e-08 -2.33845e-10)
(-4.77673e-08 1.27128e-08 -1.21067e-09)
(-2.25787e-07 1.87007e-08 -4.2807e-08)
(-2.49284e-08 -6.01304e-08 -4.62632e-09)
(-1.4655e-07 1.04043e-08 -3.88414e-08)
(-1.20312e-07 -2.00385e-08 -2.32636e-08)
(-8.41962e-07 9.31688e-07 2.42786e-07)
(-1.16721e-07 -6.31362e-08 2.21858e-07)
(-1.54159e-07 2.45865e-07 2.63473e-07)
(-1.78301e-07 8.96575e-08 5.09838e-07)
(2.49974e-08 -1.52525e-08 -1.04913e-08)
(-1.03982e-07 -1.3991e-08 8.57197e-08)
(-7.99136e-09 -3.41516e-08 -2.05856e-09)
(3.27117e-08 -2.26585e-08 4.54169e-08)
(-3.20912e-07 2.60213e-08 -3.28797e-07)
(-1.1058e-06 3.75e-07 -4.01433e-07)
(-2.1177e-07 3.55402e-08 -2.94734e-07)
(-2.0823e-07 2.21323e-07 -1.67008e-07)
(-6.49322e-07 4.35949e-08 2.28999e-08)
(-5.94402e-07 1.17457e-07 -1.72886e-07)
(-7.6872e-07 1.67969e-07 -1.55382e-07)
(-6.64642e-07 1.57483e-07 -1.18097e-07)
(1.1873e-07 -1.04163e-07 8.09115e-08)
(7.79549e-08 -5.11088e-08 -3.95532e-08)
(1.38891e-07 -7.42014e-08 -4.77733e-09)
(3.01007e-07 -1.04057e-07 2.95049e-08)
(-9.40574e-09 4.74007e-09 2.20333e-08)
(3.38312e-08 -2.09423e-08 5.34733e-09)
(-2.49939e-09 -4.84284e-09 1.3899e-08)
(-7.04201e-09 4.11521e-09 1.10343e-08)
(6.01514e-08 -1.16341e-08 -5.42371e-09)
(-1.45274e-08 1.37805e-08 -3.83124e-09)
(1.79395e-08 8.00451e-09 1.63307e-09)
(1.50113e-08 3.95659e-09 1.19121e-09)
(-1.52295e-07 -1.29931e-07 1.89355e-07)
(-1.44624e-07 -3.66275e-10 4.54509e-08)
(-1.73787e-07 -6.2466e-08 6.60636e-08)
(-1.62041e-07 -4.63008e-08 7.97211e-08)
(2.71568e-08 4.82244e-09 -2.12728e-08)
(-9.57676e-08 3.39788e-08 -8.66243e-09)
(-5.35928e-10 1.44377e-08 -4.99002e-09)
(-7.51828e-09 1.61524e-08 -8.81387e-09)
(-8.47514e-08 1.8593e-08 3.516e-08)
(-7.00081e-09 -4.2347e-09 -1.83714e-08)
(-4.97792e-08 -1.3302e-08 1.83649e-08)
(-3.00241e-08 -5.78746e-09 1.06563e-08)
(-4.12379e-08 -8.20698e-09 -3.88921e-09)
(-6.14157e-08 1.99711e-08 1.96711e-08)
(-6.14496e-08 1.97757e-08 3.63758e-09)
(-8.8765e-08 8.7139e-09 6.44738e-10)
(-2.58163e-10 1.55706e-08 -7.56395e-09)
(-6.05958e-08 3.47333e-09 9.29625e-09)
(-3.62141e-08 1.12806e-08 -1.47719e-08)
(-2.79238e-08 1.57414e-08 -1.36509e-08)
(-2.73845e-07 1.77567e-08 3.68145e-10)
(-1.43492e-07 -1.18886e-07 -4.59329e-08)
(-1.48724e-07 -4.84231e-08 -3.51075e-08)
(-1.92252e-07 -2.42375e-09 -3.76188e-08)
(-2.35933e-08 -1.9101e-08 6.83711e-08)
(-1.71366e-07 4.58253e-09 -8.14742e-08)
(1.36913e-08 -7.38651e-09 -1.20185e-08)
(-4.54019e-08 -4.0394e-08 3.17413e-08)
(-1.77285e-07 6.27457e-08 -6.28879e-08)
(7.14718e-08 -1.18004e-07 -1.34202e-08)
(-5.85332e-08 -2.45965e-08 -1.52016e-08)
(-3.62248e-08 -7.26338e-08 -5.94821e-09)
(3.96137e-08 -2.33166e-08 -1.89317e-08)
(-8.11856e-08 5.29606e-08 -4.24745e-08)
(-2.92882e-08 -4.15675e-08 -3.02789e-08)
(2.06434e-08 -3.21691e-08 -1.60237e-08)
(-4.81722e-09 -3.63433e-09 6.59554e-10)
(-1.9553e-08 2.88104e-08 2.95506e-08)
(6.23564e-09 1.38533e-08 -4.66305e-09)
(1.69328e-08 2.2583e-09 -2.25425e-09)
(8.98917e-08 -3.02961e-08 -3.24681e-09)
(4.31258e-08 -3.79392e-08 -2.19378e-09)
(9.81844e-09 -3.01162e-09 -8.20834e-09)
(-9.78844e-10 7.43893e-10 -1.26593e-08)
(3.80512e-08 9.95849e-09 -4.28752e-08)
(-6.86226e-08 5.62315e-09 -3.03801e-08)
(-9.09521e-08 2.59832e-08 -1.84595e-08)
(-7.81858e-08 2.57614e-08 -1.79222e-08)
(-8.73146e-07 1.77724e-07 8.77038e-08)
(-7.3803e-07 1.54403e-07 -3.58647e-07)
(-9.60087e-07 2.31878e-07 -1.29738e-07)
(-9.24088e-07 2.22452e-07 -1.16622e-07)
(4.48136e-07 -1.962e-07 1.98388e-07)
(3.09539e-07 -7.71837e-08 -1.7434e-07)
(3.25042e-07 -1.36265e-07 -2.46408e-08)
(3.66843e-07 -9.30553e-08 9.60815e-09)
(5.64985e-08 4.42037e-09 1.10234e-08)
(4.46935e-09 -3.13787e-09 -2.89617e-08)
(2.95629e-08 3.23383e-09 -2.08474e-09)
(3.69116e-08 1.6102e-09 -2.47453e-09)
(-6.37704e-08 -1.36741e-08 1.99174e-08)
(1.14388e-07 -5.11696e-08 7.41462e-08)
(-6.31983e-08 6.97471e-09 6.60068e-08)
(-0.00039723 -3.12062e-06 -0.000301905)
(-0.000208678 -8.20383e-07 -9.64636e-05)
(-0.000231616 -3.3554e-06 -0.000299153)
(-0.000173344 -5.77017e-06 0.000139594)
(-7.7447e-05 4.31967e-06 4.9879e-05)
(-0.000100984 2.74819e-06 0.000136168)
(3.56488e-07 -4.54216e-08 2.79199e-08)
(3.83685e-07 -1.21701e-07 6.62909e-08)
(-6.39818e-08 4.68836e-08 7.56365e-08)
(-1.18126e-05 1.08232e-06 2.44885e-07)
(-1.22001e-05 1.42886e-06 7.96355e-07)
(-1.96005e-05 1.35926e-06 9.095e-07)
(1.83511e-08 -1.04661e-08 -2.01332e-08)
(-9.24574e-08 -1.17184e-08 -3.42918e-08)
(1.37169e-08 -2.19891e-08 -3.82454e-08)
(-1.58336e-07 1.74892e-08 1.17625e-07)
(-1.34383e-08 -5.06734e-08 8.90005e-09)
(-2.09366e-07 2.24829e-08 1.11595e-07)
(-2.3751e-06 -3.97104e-07 1.38523e-06)
(-7.6919e-07 -7.60474e-08 6.42038e-07)
(-1.47186e-06 -1.20722e-07 1.58066e-06)
(-3.31272e-07 8.99578e-08 -2.49602e-07)
(5.99159e-08 6.25085e-08 -5.48741e-08)
(-4.3795e-07 4.79279e-08 -1.82698e-08)
(2.43e-07 -8.83277e-09 4.52778e-08)
(-1.46757e-07 9.85094e-08 1.06283e-07)
(3.98577e-07 -9.46612e-08 1.56354e-07)
(4.87442e-07 5.70734e-09 9.05925e-08)
(1.05524e-07 1.55247e-07 1.53737e-07)
(5.9664e-07 -1.07939e-08 1.58806e-07)
(-2.05411e-07 2.20164e-07 -1.92714e-07)
(-1.69854e-07 3.00479e-08 -1.85808e-07)
(-3.80954e-07 2.84289e-07 3.80055e-09)
(-3.79422e-07 2.09487e-07 -9.27094e-08)
(-1.93172e-07 -3.65326e-08 -9.22759e-08)
(-3.38674e-08 9.847e-08 -2.10955e-07)
(-6.71225e-09 -5.79293e-08 -1.15153e-07)
(1.05273e-07 -4.77534e-08 -5.22018e-08)
(4.45828e-09 -3.01925e-08 5.93567e-09)
(2.59143e-08 -2.03826e-08 -4.51646e-09)
(1.63776e-08 -2.11901e-08 -1.27344e-09)
(1.96901e-08 -1.89286e-08 -5.35284e-10)
(-3.19318e-08 -1.00327e-09 6.35872e-08)
(-6.04363e-08 9.22699e-09 6.25039e-08)
(-4.09266e-08 2.87105e-08 6.23461e-08)
(-2.92494e-08 1.49251e-08 6.8393e-08)
(-9.98904e-08 4.41831e-08 -1.32196e-07)
(6.88172e-09 3.92089e-08 -9.1848e-08)
(-3.08968e-08 8.54387e-08 -9.46354e-08)
(-3.27032e-08 7.68523e-08 -5.18618e-08)
(-4.72765e-06 -1.00309e-06 2.52431e-07)
(-5.14548e-06 -7.62916e-07 -1.726e-06)
(-6.59042e-06 -1.85948e-06 -1.20525e-06)
(-5.23753e-06 -5.51962e-07 -1.03052e-06)
(1.69124e-07 -3.75313e-08 -1.39012e-07)
(-2.51122e-07 9.87383e-09 -2.15869e-07)
(-4.78359e-08 2.74782e-09 -2.12912e-07)
(-3.03721e-07 -4.27445e-08 -1.08732e-07)
(-6.00926e-08 5.17655e-08 1.02588e-07)
(-6.25547e-08 6.27265e-08 -1.27094e-07)
(-3.22167e-08 -3.62946e-08 -1.91957e-07)
(1.64281e-08 4.30095e-08 -6.5741e-08)
(-3.8499e-07 -4.40919e-08 1.19415e-07)
(-3.80428e-07 -5.62743e-08 4.21075e-08)
(-4.01494e-07 3.51665e-08 1.20383e-07)
(-7.64024e-08 -1.23745e-08 -8.85467e-09)
(-1.00809e-07 -4.73489e-08 -1.46704e-08)
(-1.2313e-07 -4.34221e-08 7.84677e-09)
(-1.28613e-07 -3.7524e-08 -2.10906e-08)
(-2.84194e-08 -8.07472e-09 -3.00709e-08)
(-4.63967e-08 -2.37371e-09 -2.65266e-08)
(-3.15594e-08 1.04838e-08 -4.10564e-08)
(-3.1721e-08 2.799e-08 -2.40329e-08)
(-2.05445e-05 -5.52965e-07 1.23764e-06)
(-2.68299e-05 -3.5941e-06 -2.98351e-06)
(-1.59067e-05 3.49493e-07 2.30725e-06)
(-1.51221e-05 -3.1694e-06 -9.67743e-07)
(2.01514e-08 -1.39402e-08 1.01211e-08)
(9.35255e-09 -2.24373e-08 -4.75076e-09)
(1.36398e-08 -1.08891e-08 -1.13387e-08)
(7.89072e-08 -3.79717e-08 8.00359e-09)
(8.39746e-08 -2.63381e-08 1.74202e-08)
(1.5382e-07 -2.97197e-08 3.61199e-08)
(6.40206e-09 -3.35948e-09 2.3798e-08)
(-3.1569e-05 1.94996e-06 9.14046e-07)
(-2.00416e-05 -7.44072e-07 -4.90071e-06)
(-1.82709e-05 3.52098e-06 1.4362e-06)
(-4.53813e-08 3.52053e-08 -4.38585e-08)
(-5.05629e-08 2.28364e-08 -2.18282e-08)
(-4.88004e-08 3.29194e-08 -1.65895e-08)
(3.56584e-07 -5.8068e-08 -5.88421e-08)
(1.54733e-07 1.23876e-07 -5.65564e-08)
(6.26999e-08 2.29228e-08 8.46409e-09)
(-1.64321e-07 1.91262e-08 -8.95711e-08)
(-1.62708e-07 4.94778e-08 -7.44935e-08)
(-8.06211e-08 1.85281e-08 -1.18537e-07)
(-2.8782e-08 -2.11078e-08 6.27604e-09)
(-7.99205e-09 -3.54468e-08 6.59109e-10)
(6.73108e-11 -3.07814e-08 2.97929e-09)
(-3.89333e-06 -5.46138e-07 1.82619e-06)
(-4.78648e-06 -4.59945e-07 1.52864e-06)
(-5.1555e-06 -1.40866e-06 2.24379e-06)
(9.35186e-08 4.93409e-08 3.41611e-07)
(6.0937e-08 3.46376e-08 3.00806e-07)
(1.39802e-07 4.4077e-08 3.23272e-07)
(7.19859e-09 -1.71997e-08 3.21883e-08)
(-9.81533e-09 -1.06036e-08 3.22487e-08)
(-5.72116e-09 -6.14587e-09 1.84709e-08)
(-4.30982e-10 -8.65086e-09 9.56298e-10)
(-1.45811e-07 -5.52157e-08 -3.94566e-10)
(-1.56697e-07 -3.37044e-08 -3.88151e-08)
(-6.22878e-08 -7.37585e-08 4.89601e-09)
(8.37727e-09 5.86495e-08 -4.24589e-08)
(3.08109e-08 2.66314e-08 -1.88195e-08)
(1.57043e-07 4.33982e-08 6.87534e-09)
(1.02631e-08 -2.24281e-08 -3.65125e-08)
(-5.77289e-09 -5.59816e-08 -1.4595e-08)
(5.17749e-08 -3.70973e-08 -4.53432e-08)
(2.77027e-08 -1.98857e-08 -2.97316e-08)
(8.81737e-09 -7.66437e-09 -1.25032e-08)
(2.08473e-08 4.64673e-09 -2.29245e-08)
(1.51738e-08 1.20857e-08 1.24228e-08)
(-5.96793e-06 3.37929e-07 1.78181e-06)
(-1.68608e-05 -1.03771e-06 -5.05701e-06)
(-1.29326e-06 3.60349e-06 3.16134e-06)
(-8.07735e-06 5.10181e-07 2.37691e-07)
(-9.6688e-06 1.17226e-07 4.59388e-06)
(-2.98055e-06 -1.39977e-06 1.61906e-06)
(-6.37485e-06 -6.56074e-07 2.13075e-06)
(1.61566e-08 -3.00669e-08 -5.81485e-09)
(1.18596e-07 -5.85406e-09 1.2009e-09)
(-1.81338e-08 2.14205e-08 -5.10915e-08)
(-5.2587e-08 2.95582e-08 -8.63456e-09)
(1.30352e-07 -1.06283e-07 -2.6756e-08)
(1.48554e-07 -5.89231e-08 2.7796e-08)
(7.43189e-08 -6.70462e-08 3.8725e-08)
(2.10368e-07 1.47256e-08 1.47034e-08)
(2.09593e-07 -7.83491e-08 -1.57826e-07)
(2.94609e-07 -6.35794e-09 1.30877e-07)
(2.20499e-07 8.02726e-09 1.67553e-07)
(2.27849e-07 2.7654e-08 9.75419e-08)
(4.82134e-07 4.38892e-08 2.28774e-07)
(4.03594e-07 6.71701e-09 -1.80205e-07)
(-3.57344e-08 3.96962e-08 -5.39329e-08)
(-7.48287e-09 3.43929e-08 1.55947e-08)
(1.27446e-07 -1.75641e-08 -7.0431e-08)
(9.19472e-08 5.39212e-08 -5.05462e-08)
(-1.277e-07 9.78661e-08 -2.35397e-08)
(-1.02485e-07 4.74292e-08 5.47882e-08)
(-1.36593e-07 3.76683e-08 -5.76883e-08)
(1.74352e-08 1.19344e-09 3.99722e-09)
(-2.71147e-08 -4.10082e-09 -1.92641e-09)
(-1.41384e-08 -5.37385e-10 -2.01011e-08)
(-2.18444e-08 5.30274e-09 -2.88163e-08)
(5.38073e-08 1.62662e-08 2.15611e-08)
(6.18255e-08 -1.70538e-08 2.34057e-08)
(7.73353e-08 -3.18971e-10 2.92262e-08)
(-4.20956e-07 5.52441e-08 -7.76334e-08)
(-3.95898e-07 -2.11186e-08 -1.4696e-07)
(-8.22725e-07 1.38559e-08 -2.8179e-07)
(-7.29427e-07 3.46375e-08 -3.13716e-09)
(-4.63256e-07 2.53848e-07 1.12317e-07)
(-4.79976e-07 1.14827e-07 1.11734e-07)
(-5.78724e-07 7.5616e-08 -6.46704e-08)
(-5.7111e-09 -3.6094e-08 1.8466e-08)
(3.05625e-10 -1.56635e-08 -4.34417e-11)
(5.97719e-09 -7.82982e-09 5.2301e-09)
(-6.3916e-09 -1.49846e-08 -4.47507e-10)
(-8.68488e-09 -4.28075e-08 1.07956e-08)
(1.53003e-08 -2.9052e-08 1.6269e-08)
(2.22117e-09 -3.40548e-08 1.39053e-08)
(-1.08027e-07 1.20121e-07 -2.07025e-07)
(6.36053e-08 1.99986e-07 -1.38013e-07)
(-1.96595e-07 -7.10542e-08 -6.03882e-08)
(9.80508e-08 -6.30333e-08 1.46656e-08)
(-2.70234e-07 -1.10574e-08 5.61986e-08)
(-1.75269e-07 5.39796e-09 4.73136e-09)
(-1.70271e-07 -1.15692e-07 1.2126e-07)
(1.50256e-07 -1.29203e-07 4.77762e-08)
(-1.52911e-07 -9.12911e-08 1.42038e-07)
(-7.08443e-08 -1.00825e-07 4.12358e-08)
(-0.000787936 9.46609e-05 -0.000136526)
(-0.00212029 0.000319612 -0.00137952)
(-0.00094812 -1.61346e-05 0.00017057)
(-0.000821286 0.000235383 -0.000675129)
(-2.89167e-08 1.86283e-08 1.25304e-08)
(9.3305e-08 -4.61813e-08 7.77604e-09)
(-5.55198e-08 -9.70198e-09 -3.50343e-09)
(-1.81234e-08 -1.48415e-08 3.0253e-09)
(-0.00108468 0.000326867 0.000523544)
(-0.00190353 -0.000323555 0.00163333)
(-0.00111747 -3.38729e-05 -0.00043798)
(-0.000706629 -0.000156547 0.00095914)
(-5.41593e-08 -4.94305e-08 -3.59724e-08)
(9.61049e-08 -4.8221e-08 1.89273e-08)
(-8.27219e-08 -5.58786e-09 -4.36755e-08)
(-6.88574e-08 -1.10792e-08 -1.86481e-08)
(-9.94947e-09 6.68146e-09 1.81863e-08)
(3.74804e-08 -2.05967e-08 8.68562e-09)
(-7.45392e-09 -9.89382e-09 7.0259e-09)
(1.79962e-10 -9.56403e-09 1.36574e-08)
(-2.37645e-08 -1.88425e-08 -2.02395e-08)
(4.03939e-08 -1.75629e-08 7.86505e-09)
(-3.08653e-08 3.07229e-11 -2.3181e-08)
(-3.51864e-08 7.29205e-10 -1.2551e-08)
(-0.000692449 -2.23954e-06 -0.000220294)
(-0.00178989 0.000299529 -0.00134521)
(-0.000846353 -1.56891e-07 0.000252168)
(-0.000691567 0.000222413 -0.000627101)
(-0.000723437 0.00011258 0.000222155)
(-0.00162934 -0.000398545 0.0014597)
(-0.000867864 -2.592e-06 -0.00023315)
(-0.000618367 -0.000152328 0.00067987)
(-0.00120411 0.000303656 6.87751e-05)
(-0.00243261 0.00020621 0.00140818)
(-0.00115844 4.76278e-05 -0.000206213)
(-0.00112017 0.000363347 0.000687535)
(-0.00126626 0.000510245 -0.000499828)
(-0.0019893 -0.000347504 -0.00134386)
(-0.00126578 6.33208e-05 0.000356858)
(-0.000810854 -7.31488e-05 -0.00105451)
(-0.000238336 -7.13327e-07 0.000169096)
(-0.000224835 4.10006e-06 3.7215e-05)
(-0.000571848 2.48674e-06 0.000296654)
(-0.000199696 1.51828e-07 0.000247536)
(-0.000316017 8.23308e-05 -0.000231893)
(-0.000285429 7.42122e-06 6.96792e-06)
(-0.000587593 -5.63458e-05 -0.00028246)
(-0.00024889 2.70936e-05 -0.0002909)
(2.34414e-07 -1.31286e-07 -7.26614e-08)
(1.08235e-08 -4.6495e-08 3.96154e-08)
(2.63406e-08 -3.95398e-08 -3.67515e-08)
(2.40104e-07 -9.53304e-08 -5.07155e-08)
(-3.71547e-07 1.35354e-07 3.21633e-08)
(-4.47729e-07 7.65593e-08 1.39198e-07)
(-4.28029e-07 1.01335e-07 -2.14926e-08)
(-2.68067e-07 6.42819e-08 7.59369e-08)
(-0.000221015 -1.77109e-05 0.000186243)
(-0.000493309 2.33121e-05 0.000238412)
(-0.000249322 -2.08164e-05 4.84722e-05)
(-0.000185576 -1.53034e-05 0.000241875)
(3.24999e-07 -7.58923e-08 -4.00783e-08)
(-8.65258e-08 3.53394e-08 -6.51784e-08)
(-1.25377e-07 4.91739e-08 -3.60727e-08)
(2.5223e-07 -6.29324e-08 -3.93107e-08)
(-3.08948e-07 4.72067e-08 9.36176e-08)
(-3.0848e-07 9.27135e-08 6.66042e-08)
(-3.53416e-07 9.24319e-08 1.08041e-08)
(1.56315e-08 -1.44385e-08 8.9799e-08)
(2.21193e-08 -2.81052e-09 -3.55568e-08)
(-3.75739e-08 1.42185e-08 -4.23161e-08)
(1.111e-07 -5.79846e-08 -5.1746e-08)
(1.67686e-08 1.86977e-09 -4.38129e-08)
(-9.58857e-05 -5.21872e-06 -9.32898e-05)
(-0.000212518 7.12006e-06 -0.000118639)
(-8.8883e-05 2.31194e-06 -3.07897e-05)
(-8.38972e-05 -2.05944e-07 -0.000116403)
(-3.89803e-05 -4.95861e-06 2.04414e-05)
(-2.75789e-05 8.21169e-07 -5.77587e-07)
(-6.66197e-05 -7.11641e-06 2.52835e-05)
(-2.63161e-05 -1.88095e-08 2.67886e-05)
(-2.73206e-06 3.37804e-07 -1.03901e-06)
(-2.53308e-06 5.65643e-07 -6.66844e-07)
(-3.81233e-06 2.31413e-08 -1.25219e-06)
(-1.98755e-06 3.02183e-07 -1.22921e-06)
(2.81572e-07 -1.27374e-07 -5.40166e-08)
(7.63547e-08 -9.30419e-08 -5.18834e-08)
(-3.57899e-08 -8.55746e-08 2.68537e-08)
(2.59015e-07 -1.49291e-07 -3.41436e-09)
(5.67826e-07 -1.12133e-08 -2.06518e-07)
(2.04117e-07 9.93484e-08 -2.77681e-07)
(5.93747e-07 -1.22111e-07 -1.33444e-07)
(6.32961e-07 -9.26079e-08 -1.67547e-07)
(-2.91792e-05 -6.76788e-06 1.90171e-05)
(-6.55413e-05 -3.52515e-06 1.32989e-05)
(-2.69035e-05 -4.00822e-06 2.33404e-06)
(-2.3329e-05 -4.3358e-06 2.306e-05)
(-6.36718e-08 1.88275e-08 -1.81597e-07)
(2.52753e-07 6.29109e-08 -3.05575e-07)
(7.13947e-07 -4.7459e-08 -1.61268e-07)
(2.30492e-07 -3.39479e-08 -2.23528e-07)
(-1.83097e-08 -1.6543e-07 -6.36391e-08)
(-1.15822e-07 -1.3113e-07 1.64832e-08)
(-1.59926e-07 -4.52388e-08 -1.39643e-07)
(2.62689e-08 -1.42579e-07 -3.0467e-08)
(1.76099e-08 1.46812e-07 -3.58638e-09)
(8.18925e-08 4.88565e-08 5.58902e-08)
(1.79274e-08 8.49232e-08 5.76034e-08)
(1.82164e-08 1.19725e-07 -2.28225e-08)
(-4.77454e-07 6.35566e-08 -4.14727e-07)
(3.03039e-07 1.02196e-07 2.93791e-07)
(3.21323e-07 1.47e-07 -8.8484e-08)
(4.07788e-07 2.17854e-08 -1.55595e-07)
(-4.43086e-06 1.4421e-06 -3.78426e-06)
(-3.8305e-06 5.67589e-07 -1.8949e-07)
(-7.7635e-06 4.5273e-07 -3.59571e-06)
(-3.35551e-06 9.52807e-07 -3.71736e-06)
(-1.34773e-07 5.35803e-08 -7.93939e-08)
(-1.49742e-07 7.04554e-08 1.86735e-08)
(-1.65785e-07 4.59218e-08 7.47291e-09)
(-1.34058e-07 5.42595e-08 -4.59377e-08)
(-4.05116e-07 1.19215e-07 2.78726e-07)
(-5.15276e-07 6.8335e-08 1.82597e-07)
(-5.78994e-07 7.27806e-08 1.73657e-07)
(-3.78485e-07 6.19157e-08 3.62199e-07)
(-1.58031e-06 -5.25708e-07 -3.1781e-07)
(-1.84495e-06 -2.14062e-07 2.20732e-07)
(-3.85162e-06 -1.1896e-07 -1.10554e-06)
(-1.01264e-06 -4.30694e-07 -7.27073e-07)
(-1.84565e-07 1.18967e-07 -5.6689e-08)
(-4.78398e-08 2.81085e-08 -2.48186e-07)
(-3.30484e-07 6.84084e-08 -6.54493e-08)
(-1.80493e-07 1.17804e-07 -1.61742e-08)
(-4.78979e-08 5.78968e-09 -8.60558e-08)
(2.50926e-08 -1.27349e-08 2.7312e-08)
(-5.48374e-08 3.1749e-08 1.89636e-08)
(-6.94562e-08 5.59339e-09 -9.54175e-08)
(2.03595e-07 -1.32054e-07 3.03669e-07)
(2.05032e-07 -7.69586e-08 3.83804e-08)
(1.44049e-08 9.08468e-08 -1.30471e-07)
(-4.46589e-08 4.93566e-08 1.52589e-07)
(-2.18547e-06 5.237e-07 2.50881e-07)
(-3.75237e-06 5.75174e-07 6.97418e-08)
(-3.60245e-06 1.13238e-06 -2.66001e-08)
(-8.69435e-07 2.23786e-07 2.48471e-07)
(4.79186e-07 -1.40595e-07 3.57928e-08)
(2.71594e-07 6.99657e-08 -1.79151e-07)
(2.595e-07 2.68176e-08 -1.82335e-08)
(8.22526e-07 -1.70557e-07 -5.43296e-08)
(-1.44398e-07 9.85646e-08 -2.00788e-08)
(-2.29404e-07 3.94268e-08 6.5485e-08)
(-2.22611e-07 9.91434e-08 -1.26107e-07)
(-5.86642e-08 4.52981e-08 4.97597e-09)
(-3.98297e-08 8.91764e-08 1.84131e-07)
(3.74392e-08 -1.51807e-08 2.05813e-07)
(9.54627e-09 4.1101e-08 6.17015e-08)
(4.05716e-08 4.44174e-08 8.93703e-08)
(3.63239e-07 -6.56746e-08 -8.84585e-08)
(2.51904e-08 7.80096e-08 -2.4845e-07)
(7.00833e-08 -2.13698e-08 5.50898e-08)
(4.92321e-07 -9.49911e-08 -8.1746e-08)
(2.19772e-08 8.17062e-08 2.12131e-08)
(4.49467e-08 2.58422e-08 5.55039e-08)
(1.36285e-07 -1.12219e-08 9.27288e-08)
(2.25742e-08 5.98724e-08 4.39019e-08)
(-2.79254e-06 -3.5237e-07 1.86335e-06)
(-3.03803e-06 -2.32409e-08 5.68513e-07)
(-6.82683e-06 5.11448e-07 1.71001e-06)
(-2.45597e-06 -2.0135e-07 2.29714e-06)
(6.12439e-07 -7.64493e-08 -1.42355e-08)
(-5.36405e-07 1.85575e-07 -1.1056e-07)
(-1.50165e-07 8.32326e-08 3.70655e-07)
(6.13579e-07 -7.38432e-08 -8.87245e-08)
(-5.95075e-07 -1.4688e-07 -8.11573e-07)
(-2.66935e-06 -6.14778e-07 -1.76431e-06)
(-3.67682e-07 -3.52763e-07 -3.47405e-07)
(-7.14434e-07 -2.74794e-07 -1.44622e-06)
(-4.84061e-08 4.53862e-08 1.52454e-08)
(-5.64737e-08 3.5085e-08 2.4558e-08)
(4.33117e-08 4.54998e-08 -5.48632e-08)
(2.66488e-08 3.24194e-08 -3.66577e-08)
(1.42768e-09 2.64953e-08 -3.63185e-09)
(-1.6201e-08 1.96315e-08 5.69449e-08)
(2.48635e-08 -1.09494e-08 5.31521e-08)
(6.30607e-09 2.02406e-08 -2.956e-09)
(1.55651e-07 1.09108e-09 -8.81578e-08)
(3.74407e-08 5.73328e-09 -3.69546e-08)
(8.43331e-08 2.5104e-08 -6.02595e-08)
(1.808e-07 -2.74665e-08 -6.67201e-08)
(-8.40211e-08 3.44217e-08 -1.45884e-09)
(-2.49874e-07 7.1859e-08 -2.57549e-08)
(-2.05781e-07 9.76615e-08 8.09353e-09)
(-2.3288e-07 9.12477e-08 7.90397e-09)
(-1.77508e-07 5.368e-08 -1.08797e-07)
(-8.92097e-08 -4.46875e-08 1.13437e-07)
(-1.42647e-07 2.29569e-08 -5.17344e-08)
(-1.75942e-07 3.23407e-08 -1.47683e-07)
(-6.34e-07 2.23342e-07 -2.10221e-07)
(-1.1247e-06 2.92975e-07 -3.53735e-07)
(-1.04012e-06 2.88618e-07 -7.31827e-10)
(-6.28525e-07 1.58746e-07 -1.9732e-07)
(3.80264e-08 -1.06449e-08 -6.71851e-08)
(3.0544e-08 -7.5011e-09 2.27298e-08)
(1.2509e-07 -6.12396e-08 1.48187e-08)
(1.59576e-08 6.86948e-09 -3.50983e-08)
(-1.27458e-06 2.53102e-07 6.82659e-08)
(-1.08606e-06 3.0163e-07 -2.51589e-10)
(-1.59973e-06 2.26732e-07 3.03845e-08)
(-5.95154e-07 1.12863e-07 1.35528e-07)
(-6.39889e-07 1.31987e-07 8.81977e-09)
(-7.04857e-07 8.09503e-08 -1.0331e-07)
(-1.17461e-06 3.7492e-07 7.19349e-08)
(-1.86646e-07 2.60039e-08 7.10642e-08)
(-3.71305e-08 2.41018e-08 3.03312e-09)
(-3.86464e-08 1.52941e-08 7.77089e-09)
(-6.5554e-08 1.33165e-08 7.38926e-09)
(-5.50633e-09 -1.52897e-08 -3.34128e-09)
(-7.07079e-09 -6.48097e-09 -9.22236e-09)
(4.23757e-09 -6.8972e-09 -6.71257e-09)
(-4.51522e-09 -1.23441e-08 -5.0351e-09)
(3.16335e-09 5.06443e-10 -1.09208e-09)
(1.53347e-08 1.65559e-09 2.51427e-09)
(1.45821e-08 -1.70589e-09 1.05094e-08)
(1.06041e-08 -2.99825e-09 1.16346e-08)
(3.70757e-08 7.15188e-09 -2.07339e-08)
(1.48985e-08 -4.26282e-09 -3.87853e-08)
(2.98244e-08 -6.04374e-09 -2.80068e-08)
(1.13782e-07 -3.80282e-08 -6.40298e-08)
(8.30968e-08 7.30773e-08 9.04382e-08)
(4.09708e-07 -6.32344e-08 -6.26852e-08)
(5.13606e-07 -1.10688e-07 -4.55194e-08)
(-3.76028e-07 1.47526e-07 1.18632e-07)
(-4.13286e-07 1.10822e-07 -9.06218e-09)
(-4.79249e-07 2.37476e-07 2.03049e-07)
(-2.19226e-07 1.17987e-07 1.17894e-07)