/*--------------------------------*- C++ -*----------------------------------*\
  =========                 |
  \\      /  F ield         | OpenFOAM: The Open Source CFD Toolbox
   \\    /   O peration     | Website:  https://openfoam.org
    \\  /    A nd           | Version:  6
     \\/     M anipulation  |
\*---------------------------------------------------------------------------*/
FoamFile
{
    version     2.0;
    format      ascii;
    class       volVectorField;
    location    "2.7";
    object      U;
}
// * * * * * * * * * * * * * * * * * * * * * * * * * * * * * * * * * * * * * //

dimensions      [0 1 -1 0 0 0 0];

internalField   nonuniform List<vector> 
4214
(
(10.4951 -0.287618 0)
(10.9094 -0.0413379 -5.52287e-19)
(11.0364 0.170533 1.4734e-19)
(11.0793 0.34498 4.1808e-19)
(11.1153 0.508339 2.34325e-19)
(11.157 0.671012 -1.37126e-20)
(11.2082 0.83637 -2.54795e-19)
(11.268 1.00845 -1.27571e-19)
(11.3298 1.19047 1.30265e-19)
(11.3888 1.38475 0)
(11.459 1.59877 1.27014e-20)
(11.5661 1.85306 1.78167e-19)
(11.7009 2.16145 -1.77807e-19)
(11.7708 2.48127 0)
(11.5949 2.77543 -1.21794e-19)
(10.9559 2.90862 1.23853e-19)
(9.73813 2.7321 -1.39776e-20)
(8.1058 2.19357 -1.01437e-20)
(6.37909 1.27529 0)
(5.026 0.0528556 -1.67505e-21)
(4.83266 -1.07954 0)
(6.20017 -1.66981 3.07413e-21)
(7.82516 -1.99405 0)
(8.84253 -2.2517 -2.77972e-21)
(9.31924 -2.3764 1.39832e-21)
(9.53852 -2.38359 3.95997e-20)
(9.68546 -2.30699 -3.90831e-20)
(9.83121 -2.18406 0)
(9.9828 -2.03606 -1.47436e-19)
(10.1233 -1.87172 1.45321e-19)
(10.2394 -1.69594 -1.431e-20)
(10.3301 -1.51407 0)
(10.4004 -1.33044 1.37382e-19)
(10.4544 -1.14739 -1.34387e-19)
(10.4924 -0.964507 -2.77231e-19)
(10.5203 -0.780316 -1.46874e-20)
(10.5389 -0.593823 3.04441e-19)
(10.5509 -0.402821 3.90859e-19)
(10.5435 -0.195753 1.53138e-19)
(10.4364 0.0556205 -5.10462e-19)
(10.0223 0.345253 0)
(11.2783 -0.00089027 0)
(11.3285 0.17732 3.56483e-20)
(11.3342 0.337384 -9.3091e-20)
(11.3393 0.462664 -4.97132e-19)
(11.3588 0.59173 5.84756e-19)
(11.4 0.733702 0)
(11.458 0.885221 0)
(11.5245 1.04612 2.25936e-19)
(11.5916 1.21763 -2.3076e-19)
(11.6651 1.40194 -2.50089e-19)
(11.7756 1.61183 2.41666e-19)
(11.9398 1.87311 6.65687e-20)
(12.0993 2.17297 -1.76873e-20)
(12.089 2.46552 0)
(11.7289 2.69259 0)
(10.7068 2.62238 0)
(9.0563 2.18863 1.75174e-19)
(7.0494 1.36771 -8.1177e-21)
(5.05785 0.21234 -1.00401e-19)
(3.74295 -1.06422 -1.15664e-20)
(4.0341 -1.89406 2.34281e-20)
(5.71768 -2.22806 1.39204e-20)
(7.4354 -2.47216 -8.50778e-22)
(8.56456 -2.68236 -3.99327e-20)
(9.20104 -2.76428 1.52978e-21)
(9.54486 -2.7306 0)
(9.76302 -2.61699 0)
(9.94578 -2.46045 0)
(10.1203 -2.28586 1.44328e-20)
(10.2816 -2.10164 -7.24807e-20)
(10.417 -1.90985 3.3896e-19)
(10.523 -1.71436 -3.17865e-19)
(10.6045 -1.51904 -3.0357e-19)
(10.6675 -1.32683 2.96878e-19)
(10.7163 -1.13783 0)
(10.7537 -0.951389 0)
(10.7876 -0.771527 4.55461e-19)
(10.8295 -0.60382 -5.34115e-19)
(10.8748 -0.436338 1.09684e-19)
(10.9034 -0.225798 -3.8864e-20)
(10.8706 -0.0127172 1.92698e-18)
(11.4035 0.0816863 -2.22086e-18)
(11.3862 0.222788 -8.81104e-19)
(11.407 0.367194 9.99372e-19)
(11.4259 0.490984 0)
(11.4564 0.615762 7.3179e-19)
(11.5058 0.750691 -2.04564e-20)
(11.5694 0.894965 -8.31123e-19)
(11.6389 1.04831 0)
(11.711 1.2114 -3.12238e-19)
(11.8021 1.38829 4.53257e-19)
(11.9443 1.59743 -5.20788e-19)
(12.1258 1.85408 4.75937e-19)
(12.2583 2.11876 0)
(12.1574 2.37 0)
(11.6055 2.48124 -3.68673e-19)
(10.3158 2.2823 5.23109e-19)
(8.43669 1.70533 -1.44435e-19)
(6.28997 0.778322 -4.28027e-20)
(4.27492 -0.435351 -2.4003e-20)
(3.18045 -1.63168 -4.41099e-21)
(3.75584 -2.31223 0)
(5.55664 -2.58032 1.44113e-20)
(7.2744 -2.81411 -1.36928e-20)
(8.45428 -2.99108 -3.14338e-21)
(9.16591 -3.04023 4.02301e-20)
(9.57351 -2.97487 2.28313e-19)
(9.82843 -2.83047 -3.05004e-19)
(10.0258 -2.64479 0)
(10.2057 -2.44592 0)
(10.372 -2.24381 6.65052e-19)
(10.5141 -2.03899 -7.77305e-19)
(10.6267 -1.83335 5.76252e-19)
(10.7124 -1.62951 -7.3531e-19)
(10.7779 -1.43022 0)
(10.828 -1.23579 -1.04787e-18)
(10.8658 -1.0452 -4.65698e-21)
(10.8964 -0.862954 1.10042e-18)
(10.9302 -0.692979 3.11658e-19)
(10.9638 -0.522483 9.56064e-19)
(10.9827 -0.320473 -1.03985e-18)
(11.0324 -0.12648 2.61468e-18)
(11.5204 0.192759 -2.53268e-18)
(11.5153 0.287013 3.29289e-19)
(11.542 0.416253 0)
(11.5685 0.531545 1.16945e-18)
(11.605 0.645208 -1.19947e-18)
(11.6586 0.768042 -1.16017e-18)
(11.7258 0.901307 1.18798e-18)
(11.7985 1.04392 -9.64649e-19)
(11.8788 1.19499 4.91576e-19)
(11.9948 1.36148 -6.87998e-19)
(12.1698 1.56586 7.0026e-19)
(12.359 1.80183 -8.85124e-19)
(12.4423 2.02681 8.9782e-19)
(12.2199 2.21917 0)
(11.385 2.2215 -8.31998e-19)
(9.77523 1.87203 7.02772e-19)
(7.64108 1.17039 1.4881e-19)
(5.33781 0.160087 4.73553e-20)
(3.33423 -1.07525 -1.26738e-19)
(2.53984 -2.15215 -2.3688e-20)
(3.45743 -2.70911 0)
(5.33787 -2.96793 3.73162e-20)
(7.05977 -3.21759 -1.54963e-20)
(8.31182 -3.37813 3.48296e-20)
(9.1282 -3.39815 -4.10674e-20)
(9.62479 -3.29524 3.6078e-19)
(9.93245 -3.10992 -2.74458e-19)
(10.1509 -2.88464 0)
(10.3375 -2.65202 9.03406e-19)
(10.5083 -2.42409 -8.87116e-19)
(10.6575 -2.20066 1.06443e-18)
(10.7781 -1.98101 -8.59961e-19)
(10.8696 -1.76566 9.93818e-19)
(10.9385 -1.55728 -3.35837e-19)
(10.9917 -1.35655 1.52344e-18)
(11.0328 -1.16177 -1.48674e-18)
(11.0664 -0.97864 -1.4764e-18)
(11.1012 -0.810679 1.12173e-18)
(11.1335 -0.641831 0)
(11.149 -0.447401 -3.88214e-19)
(11.1886 -0.300517 2.97902e-18)
(11.6336 0.23664 -7.65258e-19)
(11.6268 0.33095 -1.85189e-18)
(11.6535 0.448879 1.98838e-18)
(11.6875 0.555128 -1.53219e-18)
(11.7322 0.658927 1.5718e-18)
(11.7914 0.770728 1.9815e-18)
(11.8615 0.89272 -1.58568e-18)
(11.9375 1.02302 1.1814e-18)
(12.03 1.15955 -8.40711e-19)
(12.175 1.31496 0)
(12.3712 1.50732 0)
(12.5418 1.70329 0)
(12.5254 1.88712 3.30515e-19)
(12.154 2.00809 -1.4674e-18)
(10.9937 1.88166 -4.44824e-20)
(9.0842 1.40891 8.64764e-19)
(6.75431 0.626619 1.25277e-19)
(4.35877 -0.421995 3.95676e-21)
(2.46792 -1.62125 -2.51058e-19)
(2.00586 -2.57021 -2.91505e-21)
(3.19392 -3.05382 -1.04789e-21)
(5.11549 -3.34887 -4.28317e-21)
(6.85273 -3.62696 -7.18364e-20)
(8.18665 -3.78408 -1.15334e-19)
(9.11123 -3.78357 2.67491e-19)
(9.70115 -3.64636 5.33537e-19)
(10.0657 -3.41799 -2.69898e-19)
(10.3053 -3.14759 -1.20212e-18)
(10.4936 -2.87443 9.68546e-19)
(10.6611 -2.61411 0)
(10.8111 -2.36756 0)
(10.9359 -2.13112 0)
(11.0309 -1.90229 -1.11877e-18)
(11.1011 -1.68315 6.19573e-19)
(11.1541 -1.47463 -2.0657e-18)
(11.1945 -1.27406 1.45028e-18)
(11.227 -1.08676 1.96561e-18)
(11.2568 -0.918123 -1.91546e-18)
(11.2854 -0.751095 1.3451e-18)
(11.3032 -0.558423 -1.43617e-18)
(11.3468 -0.400406 8.9049e-19)
(11.7378 0.292268 4.30055e-19)
(11.7377 0.368851 -2.87505e-18)
(11.7694 0.472746 9.52523e-19)
(11.8103 0.56886 5.26013e-19)
(11.8606 0.662056 0)
(11.9228 0.762027 9.33731e-20)
(11.9941 0.871255 0)
(12.0738 0.986659 -4.7548e-19)
(12.183 1.10655 2.15524e-18)
(12.3556 1.24949 -2.28025e-18)
(12.5558 1.41573 1.18764e-18)
(12.6778 1.56354 1.45144e-18)
(12.5675 1.70497 -1.12043e-18)
(11.9501 1.74073 0)
(10.4536 1.49488 0)
(8.2833 0.933925 0)
(5.80315 0.113887 2.01588e-19)
(3.36683 -0.931956 1.58467e-19)
(1.65675 -2.05598 1.54074e-19)
(1.52241 -2.89274 0)
(2.91413 -3.35379 0)
(4.85175 -3.71044 0)
(6.62112 -4.02879 -1.142e-19)
(8.05333 -4.19942 -1.51722e-19)
(9.10252 -4.19199 -1.22866e-19)
(9.80184 -4.02796 0)
(10.2349 -3.75836 -1.18914e-19)
(10.503 -3.43991 0)
(10.6918 -3.12006 -2.0296e-18)
(10.8505 -2.8205 1.63371e-18)
(10.9946 -2.54498 1.58119e-18)
(11.1185 -2.28768 -3.06733e-18)
(11.2147 -2.04307 2.93981e-18)
(11.2848 -1.8114 -2.20629e-18)
(11.3358 -1.5937 0)
(11.3744 -1.38706 -1.3947e-19)
(11.4051 -1.19392 0)
(11.4305 -1.02253 -6.70937e-19)
(11.4543 -0.858019 3.54619e-18)
(11.4684 -0.671276 -1.05974e-18)
(11.5077 -0.526484 -1.70516e-18)
(11.8356 0.321685 0)
(11.8423 0.39152 -1.64656e-21)
(11.8796 0.485146 2.82731e-18)
(11.9255 0.571074 -5.3662e-19)
(11.9793 0.653032 2.32823e-18)
(12.0425 0.740716 -1.2006e-18)
(12.114 0.835976 -2.43541e-18)
(12.1994 0.934289 1.36978e-18)
(12.3279 1.03697 -5.9056e-19)
(12.5192 1.16147 0)
(12.7004 1.28628 -1.56557e-18)
(12.7368 1.39476 3.32189e-18)
(12.5242 1.49004 -1.7587e-18)
(11.5881 1.42766 5.45647e-19)
(9.77598 1.08711 -1.63102e-18)
(7.40319 0.482631 5.69412e-19)
(4.82243 -0.333023 0)
(2.40415 -1.33884 3.1563e-19)
(0.913706 -2.36838 -4.1879e-19)
(1.07162 -3.11995 0)
(2.59848 -3.59927 0)
(4.54008 -4.02859 0)
(6.35716 -4.39616 -2.39627e-19)
(7.90213 -4.5968 5.05145e-19)
(9.09358 -4.59991 0)
(9.91922 -4.42141 1.65899e-18)
(10.4366 -4.11864 5.12831e-20)
(10.7451 -3.75496 -6.22245e-19)
(10.9381 -3.38563 -2.15706e-18)
(11.0839 -3.04117 4.21587e-18)
(11.2124 -2.72984 -2.05642e-18)
(11.3268 -2.44665 0)
(11.4197 -2.18369 -2.8678e-18)
(11.487 -1.9378 1.61678e-18)
(11.5339 -1.70945 -3.33251e-18)
(11.5677 -1.4958 1.68534e-18)
(11.5931 -1.29593 3.09722e-18)
(11.6137 -1.11986 6.83716e-19)
(11.6313 -0.956284 2.18025e-18)
(11.6384 -0.771194 -5.48612e-18)
(11.6726 -0.624637 1.22546e-18)
(11.9272 0.344433 -1.38446e-18)
(11.944 0.404737 -2.62343e-18)
(11.9859 0.487827 -1.43762e-18)
(12.034 0.562614 0)
(12.0881 0.632841 0)
(12.1502 0.707866 6.56211e-19)
(12.2213 0.787863 0)
(12.3144 0.867851 8.08186e-19)
(12.4603 0.952603 -2.25712e-18)
(12.6558 1.04782 -8.12123e-19)
(12.7853 1.12899 1.70599e-18)
(12.7505 1.20862 1.98015e-18)
(12.354 1.24561 -2.01665e-18)
(11.0731 1.09246 -2.91654e-18)
(8.99807 0.696433 6.52632e-19)
(6.48186 0.0923606 1.71569e-18)
(3.84666 -0.684043 -5.05604e-20)
(1.49592 -1.62076 -2.46532e-19)
(0.234514 -2.55322 -3.7954e-19)
(0.625339 -3.24989 -6.7812e-20)
(2.22976 -3.77215 -1.07223e-19)
(4.17062 -4.27545 2.08108e-19)
(6.0457 -4.69845 -5.86378e-19)
(7.71483 -4.94445 -7.74488e-20)
(9.06647 -4.97717 1.44244e-18)
(10.0376 -4.80229 8.24101e-19)
(10.663 -4.4812 -6.07346e-19)
(11.0327 -4.08281 8.33175e-19)
(11.2414 -3.66669 -2.75605e-18)
(11.3725 -3.27349 2.70804e-18)
(11.4754 -2.91939 2.52847e-18)
(11.5696 -2.60475 -3.82285e-18)
(11.6514 -2.3203 -1.22053e-18)
(11.7125 -2.05873 3.21799e-18)
(11.7531 -1.81856 0)
(11.7793 -1.59652 -9.00455e-19)
(11.7965 -1.39003 2.02107e-18)
(11.8115 -1.20857 0)
(11.8227 -1.04415 1.8791e-18)
(11.8193 -0.862267 1.49563e-18)
(11.8426 -0.718579 1.68257e-18)
(12.0159 0.354529 -1.65968e-19)
(12.0403 0.407856 -3.20953e-18)
(12.0839 0.48111 2.93399e-18)
(12.1316 0.544411 0)
(12.1837 0.60301 0)
(12.2429 0.66527 0)
(12.3134 0.729225 0)
(12.4149 0.790882 0)
(12.5703 0.854657 1.80935e-18)
(12.7492 0.913987 -3.70902e-18)
(12.8082 0.96387 0)
(12.7039 1.0132 0)
(12.0327 0.980659 -1.19846e-18)
(10.4403 0.767211 2.45729e-18)
(8.16319 0.360112 -2.40555e-18)
(5.55816 -0.208987 2.26031e-18)
(2.90796 -0.919017 -8.7812e-20)
(0.656001 -1.76699 4.96906e-19)
(-0.395173 -2.60899 0)
(0.164371 -3.27691 3.89219e-19)
(1.80106 -3.84979 1.68514e-19)
(3.73901 -4.42121 -7.03716e-19)
(5.67637 -4.90176 -5.05054e-19)
(7.47371 -5.20322 0)
(8.99415 -5.2799 -3.86547e-18)
(10.1329 -5.13716 3.82813e-18)
(10.8995 -4.81981 2.7515e-19)
(11.3591 -4.4053 1.72857e-19)
(11.6008 -3.95043 -1.79386e-18)
(11.7218 -3.50942 0)
(11.7933 -3.10897 0)
(11.8548 -2.75744 7.53232e-20)
(11.9145 -2.44767 1.33769e-18)
(11.9633 -2.16891 0)
(11.9949 -1.91617 0)
(12.0107 -1.68452 0)
(12.0168 -1.47131 -2.06157e-18)
(12.0238 -1.28462 0)
(12.0268 -1.11614 4.28395e-18)
(12.0125 -0.936127 -1.86173e-18)
(12.023 -0.790875 2.31581e-19)
(12.1 0.357355 -1.06024e-17)
(12.1281 0.404169 5.11167e-18)
(12.1711 0.466382 1.6864e-18)
(12.2167 0.518356 3.60706e-18)
(12.2649 0.566136 -7.38247e-18)
(12.32 0.616063 1.7891e-18)
(12.3904 0.664379 -2.03165e-18)
(12.4981 0.7084 0)
(12.649 0.748515 -4.17138e-18)
(12.7867 0.775705 2.05929e-18)
(12.7931 0.802375 2.16928e-18)
(12.5578 0.81005 1.20789e-18)
(11.5763 0.720747 -3.74344e-18)
(9.73217 0.486913 1.30792e-18)
(7.31566 0.10471 -1.17516e-18)
(4.66552 -0.4026 1.42105e-19)
(2.03195 -1.02599 6.10734e-19)
(-0.110462 -1.77407 -1.11058e-18)
(-0.990085 -2.534 3.67681e-19)
(-0.318749 -3.18785 -9.63528e-19)
(1.31199 -3.80925 0)
(3.24445 -4.43766 2.08199e-19)
(5.24375 -4.97384 1.09249e-18)
(7.1652 -5.33175 1.48457e-18)
(8.84912 -5.44531 3.74706e-18)
(10.1749 -5.38405 -2.33997e-21)
(11.121 -5.10012 -1.90027e-18)
(11.7029 -4.69185 2.32334e-18)
(12.0037 -4.21416 -6.65252e-18)
(12.1304 -3.73502 6.61003e-18)
(12.1728 -3.29061 3.82929e-18)
(12.1921 -2.89893 -1.85397e-18)
(12.2161 -2.56 1.79951e-18)
(12.2429 -2.26206 0)
(12.2604 -1.99601 0)
(12.2634 -1.75447 8.53902e-18)
(12.2567 -1.53517 -1.05875e-17)
(12.2525 -1.34319 5.07894e-18)
(12.2433 -1.16845 -2.24273e-18)
(12.2198 -0.989346 2.30475e-18)
(12.2177 -0.842651 -4.0087e-18)
(12.1779 0.349818 -6.06106e-18)
(12.2057 0.391472 0)
(12.2466 0.443983 -2.11615e-18)
(12.2888 0.486971 0)
(12.3317 0.525515 0)
(12.3827 0.564211 2.03285e-18)
(12.4529 0.598463 2.07997e-18)
(12.5621 0.626379 -2.33892e-18)
(12.6939 0.644661 4.56965e-18)
(12.7945 0.645899 1.31623e-18)
(12.7258 0.644747 0)
(12.2761 0.609374 3.82527e-18)
(11.0222 0.499219 -3.98646e-18)
(8.99142 0.280816 2.61717e-18)
(6.48976 -0.050365 -1.25558e-18)
(3.82982 -0.477494 3.02804e-18)
(1.23663 -1.00148 -1.82438e-18)
(-0.801009 -1.64397 1.27433e-18)
(-1.55389 -2.32737 -1.23089e-18)
(-0.830814 -2.97148 -6.68344e-20)
(0.768962 -3.63141 0)
(2.6905 -4.30056 9.7083e-20)
(4.7429 -4.88441 -7.77953e-19)
(6.77564 -5.30513 3.84275e-18)
(8.61516 -5.47554 -5.16072e-18)
(10.1413 -5.4857 4.80423e-18)
(11.2896 -5.27905 -5.68169e-18)
(12.0282 -4.90235 -2.73373e-19)
(12.4244 -4.42691 -2.33256e-18)
(12.5851 -3.92769 2.97559e-18)
(12.6137 -3.45043 0)
(12.5897 -3.0207 0)
(12.5647 -2.65041 -8.2567e-18)
(12.5557 -2.33091 4.11911e-18)
(12.55 -2.05052 -3.82026e-18)
(12.5378 -1.79972 -3.08934e-18)
(12.5172 -1.57541 0)
(12.497 -1.37842 0)
(12.4714 -1.19726 2.92577e-18)
(12.4387 -1.01819 0)
(12.4272 -0.870883 -2.28695e-18)
(12.2481 0.333761 -8.81416e-18)
(12.2744 0.371632 -4.4051e-18)
(12.3119 0.41768 9.07201e-18)
(12.3489 0.454007 -7.04706e-18)
(12.3853 0.484998 2.26869e-18)
(12.4328 0.514115 2.5233e-18)
(12.5015 0.536257 0)
(12.6048 0.550548 -2.11606e-19)
(12.7062 0.549126 -2.44835e-18)
(12.741 0.528759 -7.79106e-18)
(12.569 0.50223 -6.42292e-20)
(11.9057 0.444288 2.71225e-18)
(10.4328 0.347305 -1.37052e-18)
(8.25761 0.167566 -1.32286e-18)
(5.71038 -0.0962601 4.3355e-20)
(3.06907 -0.433391 6.60506e-19)
(0.532772 -0.850095 -2.74506e-18)
(-1.41445 -1.3847 2.35078e-18)
(-2.09114 -1.99351 5.13376e-19)
(-1.36578 -2.62377 -6.94512e-19)
(0.185039 -3.30176 0)
(2.08612 -3.98884 -9.43443e-19)
(4.16958 -4.59931 1.24708e-18)
(6.28622 -5.07036 -2.22381e-18)
(8.27232 -5.35262 -6.65333e-18)
(10.0027 -5.46229 1.53579e-17)
(11.3616 -5.30104 -7.87444e-18)
(12.2893 -4.98987 1.12792e-17)
(12.8228 -4.55068 -1.72827e-17)
(13.0566 -4.05701 3.11287e-18)
(13.1008 -3.56718 1.19342e-17)
(13.0477 -3.10941 2.53535e-19)
(12.9672 -2.70955 9.82376e-18)
(12.9078 -2.36723 -4.20771e-18)
(12.8648 -2.07207 -5.62918e-19)
(12.8324 -1.81349 -4.12649e-18)
(12.7948 -1.58376 1.09061e-17)
(12.756 -1.38233 -6.88626e-18)
(12.7116 -1.19696 -1.59291e-19)
(12.6672 -1.02025 -6.00368e-18)
(12.6482 -0.876087 1.13446e-17)
(12.3133 0.315504 -2.52413e-18)
(12.3361 0.351131 0)
(12.368 0.391402 -2.43394e-18)
(12.3984 0.423276 2.48879e-18)
(12.4282 0.448748 2.53717e-18)
(12.4725 0.470563 2.79009e-18)
(12.5352 0.483175 -2.65345e-18)
(12.6234 0.487032 5.44388e-18)
(12.6779 0.468692 8.02605e-20)
(12.6425 0.434982 2.75968e-18)
(12.3328 0.399155 2.79828e-18)
(11.4831 0.345978 -4.2493e-18)
(9.82556 0.283653 4.69315e-20)
(7.55492 0.15343 2.71655e-18)
(4.99811 -0.0339721 -2.71166e-18)
(2.39625 -0.279546 1.32227e-18)
(-0.0723928 -0.586434 -9.34524e-20)
(-1.94938 -1.01061 -2.03461e-18)
(-2.59794 -1.54196 2.50998e-18)
(-1.90996 -2.14597 -1.31253e-18)
(-0.421399 -2.81762 0)
(1.44765 -3.49724 -5.36799e-19)
(3.53598 -4.10788 2.83802e-18)
(5.69905 -4.60218 -1.53469e-19)
(7.79431 -4.94301 3.02458e-18)
(9.70168 -5.12334 -4.94212e-18)
(11.2755 -5.12229 -4.93337e-18)
(12.4259 -4.90656 5.38502e-19)
(13.143 -4.54413 1.67085e-17)
(13.4974 -4.08678 -3.00794e-19)
(13.5959 -3.61213 -6.45373e-18)
(13.5482 -3.14579 -5.88248e-18)
(13.4208 -2.72483 -1.71771e-17)
(13.3053 -2.36178 5.4675e-18)
(13.2079 -2.05173 -1.00738e-17)
(13.1445 -1.78688 1.34403e-17)
(13.0848 -1.5532 -3.9196e-18)
(13.0279 -1.34897 0)
(12.964 -1.16118 3.41355e-18)
(12.9062 -0.989515 0)
(12.8765 -0.851697 3.33599e-18)
(12.3766 0.298143 -8.40077e-18)
(12.3935 0.331623 -5.53676e-18)
(12.4185 0.368523 5.69581e-18)
(12.4413 0.398425 0)
(12.4646 0.420645 0)
(12.5057 0.438268 0)
(12.5566 0.445724 -6.14985e-18)
(12.6218 0.442848 3.2245e-18)
(12.6017 0.416868 -6.0391e-18)
(12.5033 0.386504 3.11685e-18)
(12.0495 0.358718 0)
(11.0443 0.319536 2.97625e-18)
(9.22733 0.30812 4.42219e-20)
(6.90742 0.233813 3.10913e-20)
(4.36605 0.12843 -2.8889e-18)
(1.82224 -0.0300292 3.10942e-18)
(-0.573135 -0.230735 -2.81336e-18)
(-2.40048 -0.542581 1.02522e-18)
(-3.06339 -0.989237 0)
(-2.44595 -1.55074 1.26002e-18)
(-1.0299 -2.19535 -6.43408e-19)
(0.794375 -2.84898 -1.04826e-18)
(2.86525 -3.44162 0)
(5.03964 -3.94363 3.42764e-18)
(7.1924 -4.33548 -9.60914e-18)
(9.21733 -4.60106 1.29746e-17)
(10.9825 -4.71447 3.28946e-19)
(12.3772 -4.62458 1.15082e-17)
(13.3193 -4.37157 -1.00699e-17)
(13.8491 -3.98104 -9.21451e-18)
(14.041 -3.55162 0)
(14.0538 -3.10465 7.17188e-18)
(13.9074 -2.68068 -6.91097e-19)
(13.7501 -2.3036 -6.5347e-18)
(13.5847 -1.98111 1.12612e-17)
(13.4755 -1.71015 0)
(13.3825 -1.47538 0)
(13.3057 -1.2711 0)
(13.2243 -1.08659 7.962e-18)
(13.1497 -0.921551 -7.7483e-18)
(13.0971 -0.785205 1.07541e-17)
(12.44 0.282712 -3.17648e-18)
(12.4508 0.316117 0)
(12.4691 0.3518 0)
(12.4832 0.381242 0)
(12.5017 0.402774 0)
(12.5388 0.419696 6.73832e-18)
(12.5731 0.427009 -3.63407e-18)
(12.5954 0.426251 -6.71268e-18)
(12.5268 0.404959 -1.66546e-19)
(12.3701 0.387302 -3.56334e-18)
(11.7352 0.38368 -3.54567e-18)
(10.6186 0.360517 1.51388e-18)
(8.65453 0.415302 -3.14163e-18)
(6.33365 0.401162 1.47256e-18)
(3.81583 0.380365 1.50023e-18)
(1.34839 0.297657 1.88451e-18)
(-0.969166 0.191851 -2.15265e-18)
(-2.76401 -0.00932266 1.20991e-18)
(-3.47645 -0.360174 -9.74832e-19)
(-2.9607 -0.861161 3.36579e-19)
(-1.62547 -1.46352 -7.44733e-19)
(0.138451 -2.08019 4.06894e-19)
(2.17213 -2.64561 0)
(4.32324 -3.14055 4.00754e-18)
(6.48798 -3.56344 -1.55091e-17)
(8.5739 -3.87858 7.65524e-18)
(10.4721 -4.09332 -6.80778e-18)
(12.1008 -4.12841 -6.25028e-18)
(13.2827 -4.00904 -1.16268e-17)
(14.0598 -3.714 4.90989e-18)
(14.374 -3.35475 1.0457e-17)
(14.5192 -2.95477 9.30769e-18)
(14.391 -2.55757 1.59435e-17)
(14.2291 -2.17667 -7.02801e-19)
(13.9937 -1.85412 -1.8572e-17)
(13.8244 -1.57293 1.21629e-17)
(13.6816 -1.34573 0)
(13.5743 -1.13989 5.13731e-18)
(13.4778 -0.967639 0)
(13.3821 -0.806851 0)
(13.2992 -0.676806 4.05099e-18)
(12.5048 0.269814 6.80918e-18)
(12.5135 0.30268 0)
(12.5249 0.341201 0)
(12.5297 0.370844 -1.11972e-17)
(12.5479 0.395354 7.55361e-18)
(12.5774 0.413873 0)
(12.5915 0.424986 0)
(12.5893 0.432783 0)
(12.4644 0.42641 1.18851e-17)
(12.2731 0.434411 -3.14923e-19)
(11.4158 0.472798 2.74623e-20)
(10.2818 0.507112 1.07751e-17)
(8.11831 0.612069 -5.1386e-18)
(5.85937 0.655945 3.33483e-18)
(3.33148 0.710395 -3.5814e-18)
(0.958496 0.690389 -2.19701e-18)
(-1.28056 0.657622 -4.78104e-19)
(-3.0303 0.554273 1.41227e-18)
(-3.79471 0.295662 2.21091e-18)
(-3.42166 -0.108301 -1.2214e-18)
(-2.18454 -0.657847 0)
(-0.514135 -1.23131 -2.07704e-18)
(1.47625 -1.76905 2.04111e-18)
(3.57552 -2.24379 4.55061e-18)
(5.71825 -2.67322 9.22499e-18)
(7.82228 -3.0146 -8.70556e-18)
(9.74898 -3.29163 5.12739e-19)
(11.5964 -3.44242 1.53389e-17)
(12.9573 -3.45148 -2.07776e-17)
(14.0926 -3.28603 2.40117e-17)
(14.5304 -3.01315 -2.26077e-17)
(14.8885 -2.66674 -1.92939e-17)
(14.81 -2.33265 9.35786e-19)
(14.6965 -1.95015 8.46051e-18)
(14.4122 -1.66761 0)
(14.1753 -1.36268 0)
(13.9779 -1.16923 1.15616e-17)
(13.8125 -0.948106 -1.09028e-17)
(13.7051 -0.807898 0)
(13.5878 -0.636843 0)
(13.4801 -0.52939 -8.51765e-18)
(12.5757 0.259364 -3.64434e-18)
(12.585 0.285784 0)
(12.5881 0.340026 0)
(12.5854 0.362902 -3.76146e-19)
(12.6073 0.40088 0)
(12.6209 0.419563 8.63572e-18)
(12.6107 0.438324 -8.88536e-18)
(12.597 0.447858 0)
(12.3955 0.487041 -9.02114e-18)
(12.2284 0.514928 0)
(11.0561 0.650663 4.51933e-18)
(10.0913 0.737148 -4.00217e-18)
(7.55896 0.905692 -5.99449e-18)
(5.55667 1.00934 1.95396e-18)
(2.87241 1.10764 -2.09428e-19)
(0.622408 1.15263 4.78675e-18)
(-1.62511 1.11615 -1.25154e-18)
(-3.31397 1.07435 0)
(-4.22952 0.986943 0)
(-3.94902 0.693916 1.56227e-18)
(-2.81877 0.219271 0)
(-1.23192 -0.341293 -2.20428e-18)
(0.790485 -0.861078 -4.78435e-18)
(2.83555 -1.34238 0)
(4.87122 -1.72344 -1.47956e-17)
(7.04559 -2.09213 1.92336e-17)
(8.80759 -2.36401 -1.8306e-17)
(10.9234 -2.63134 8.39195e-18)
(12.2504 -2.71864 -2.3452e-17)
(13.9235 -2.73088 4.28777e-17)
(14.4095 -2.55797 -1.35195e-17)
(15.0604 -2.248 0)
(15.064 -2.00974 1.07234e-17)
(15.0689 -1.58746 -8.68167e-18)
(14.8163 -1.41485 -1.54563e-17)
(14.4925 -1.06279 1.50826e-17)
(14.2973 -0.95049 0)
(14.0105 -0.686837 2.69944e-19)
(13.9147 -0.615029 0)
(13.7531 -0.407324 0)
(13.658 -0.35172 4.47891e-18)
(13.5093 -0.180079 -4.42631e-18)
(13.3847 -0.397717 0)
(13.2359 -0.560469 0)
(13.0681 -0.68116 -7.80552e-18)
(12.8846 -0.761603 -3.40981e-18)
(12.6843 -0.80039 -6.30601e-18)
(12.4778 -0.810485 -2.92487e-19)
(12.2799 -0.795576 -2.82387e-18)
(12.1019 -0.753958 -2.29573e-18)
(11.9416 -0.691249 2.29387e-18)
(11.7861 -0.600241 0)
(11.6295 -0.517533 0)
(11.4757 -0.379035 3.20009e-18)
(11.3326 -0.321384 -4.9955e-18)
(11.1906 -0.0542472 -4.76953e-18)
(10.7804 -0.0402252 -3.28984e-18)
(9.42356 0.522404 2.08483e-19)
(13.4311 -0.132811 -8.71243e-18)
(13.3043 -0.285928 0)
(13.187 -0.420343 0)
(13.0583 -0.533498 -1.2014e-17)
(12.9157 -0.615932 -3.86809e-18)
(12.7585 -0.66852 -7.08097e-18)
(12.5859 -0.692819 3.13639e-18)
(12.4121 -0.695213 -3.13152e-18)
(12.2497 -0.673063 2.61935e-18)
(12.103 -0.63089 -2.61455e-18)
(11.961 -0.558287 -4.74815e-18)
(11.8204 -0.492799 0)
(11.6768 -0.371444 -3.38043e-18)
(11.5516 -0.334464 3.54561e-18)
(11.4081 -0.0869851 2.47024e-18)
(11.0611 -0.190026 -2.84742e-18)
(9.6328 0.355201 0)
(13.2974 0.0116076 1.84265e-17)
(13.2245 -0.165661 4.17178e-18)
(13.1355 -0.302792 0)
(13.033 -0.409845 8.39536e-18)
(12.9179 -0.490457 0)
(12.7913 -0.547114 7.54928e-18)
(12.651 -0.579737 -3.44989e-18)
(12.5047 -0.593809 3.44032e-18)
(12.3622 -0.587547 0)
(12.2287 -0.561608 2.73696e-18)
(12.1002 -0.506387 -2.22425e-19)
(11.9739 -0.45116 2.05426e-19)
(11.8442 -0.349154 3.36046e-18)
(11.7311 -0.319751 -5.74512e-18)
(11.5977 -0.0913101 9.45299e-19)
(11.2553 -0.227475 3.37926e-18)
(9.83894 0.36777 -3.79322e-19)
(13.2311 0.0427046 -4.30606e-18)
(13.1496 -0.0845352 -9.30031e-18)
(13.0779 -0.196273 -8.72664e-18)
(12.9985 -0.293148 -8.51301e-18)
(12.9083 -0.372939 4.10699e-18)
(12.8082 -0.431192 -1.20784e-17)
(12.7002 -0.470199 -3.75658e-18)
(12.5851 -0.491806 3.74093e-18)
(12.4667 -0.498836 0)
(12.3476 -0.487359 0)
(12.232 -0.451107 -9.0492e-18)
(12.1203 -0.406976 5.57843e-18)
(12.0066 -0.325377 -2.68326e-18)
(11.9058 -0.296681 0)
(11.7864 -0.114583 0)
(11.4554 -0.22915 0)
(10.0786 0.307241 -3.85515e-18)
(13.1137 0.159125 1.92312e-17)
(13.0728 0.0133815 4.66373e-18)
(13.0215 -0.0993007 4.74838e-18)
(12.9594 -0.190172 9.13825e-18)
(12.8869 -0.266033 0)
(12.8076 -0.325277 1.69604e-17)
(12.7262 -0.367175 0)
(12.6423 -0.393729 -7.91089e-18)
(12.5507 -0.40794 3.67812e-18)
(12.4501 -0.40817 -1.43831e-17)
(12.3476 -0.389774 9.98673e-18)
(12.2498 -0.357215 6.53194e-18)
(12.1522 -0.294108 0)
(12.0652 -0.263687 1.35904e-18)
(11.9612 -0.116096 -1.35113e-18)
(11.6443 -0.199472 -2.92673e-19)
(10.33 0.264257 -3.82976e-19)
(13.0535 0.178612 -1.01502e-17)
(13.0016 0.0730521 0)
(12.9607 -0.0164639 -4.75094e-18)
(12.914 -0.097141 4.71343e-18)
(12.8569 -0.16891 0)
(12.7948 -0.227968 -9.01569e-18)
(12.7343 -0.27189 4.3025e-18)
(12.6754 -0.302169 8.34952e-18)
(12.6104 -0.320271 -4.14099e-18)
(12.5331 -0.328287 3.8741e-18)
(12.4476 -0.323863 3.81775e-18)
(12.3632 -0.303601 -5.1874e-18)
(12.2812 -0.261456 -1.73001e-18)
(12.2089 -0.228012 0)
(12.1209 -0.122246 0)
(11.8218 -0.164866 3.4878e-19)
(10.5735 0.209426 4.63461e-18)
(12.9452 0.27114 5.08753e-18)
(12.9271 0.14937 4.89482e-18)
(12.9006 0.0596703 -4.93794e-18)
(12.8647 -0.0149145 9.74397e-18)
(12.8207 -0.0823026 -4.85811e-18)
(12.774 -0.139493 4.74401e-18)
(12.73 -0.184485 -4.62515e-18)
(12.6878 -0.217735 4.49984e-18)
(12.6422 -0.239495 8.71395e-18)
(12.5882 -0.250994 -4.28006e-18)
(12.5253 -0.254604 -4.03663e-18)
(12.4572 -0.245455 7.98649e-18)
(12.3906 -0.224305 3.84967e-18)
(12.3317 -0.191685 1.92751e-18)
(12.2596 -0.122826 6.19173e-18)
(11.9814 -0.12612 2.20065e-18)
(10.8019 0.152658 3.68573e-18)
(12.8886 0.279705 -1.06566e-17)
(12.8582 0.190907 4.94936e-18)
(12.837 0.122989 -5.13595e-18)
(12.8099 0.056985 5.07362e-18)
(12.7785 -0.00651145 -9.9621e-18)
(12.7474 -0.0606192 9.84104e-18)
(12.7177 -0.104799 -4.89551e-18)
(12.6869 -0.140315 -4.81438e-18)
(12.6524 -0.165618 0)
(12.6146 -0.181858 4.474e-18)
(12.5731 -0.187731 0)
(12.5261 -0.186683 5.43004e-20)
(12.4767 -0.180822 9.9964e-20)
(12.4306 -0.153829 1.34321e-19)
(12.3723 -0.117523 -2.80967e-18)
(12.1176 -0.0900407 -7.54764e-19)
(11.0088 0.0904456 -3.45024e-18)
(12.7849 0.35108 0)
(12.782 0.249131 -2.77883e-19)
(12.7722 0.181182 5.1953e-18)
(12.7532 0.118654 -1.04009e-17)
(12.7328 0.058328 1.55282e-17)
(12.7151 0.00782779 -5.09166e-18)
(12.6976 -0.0344242 5.08968e-18)
(12.6762 -0.070207 -5.05487e-18)
(12.6502 -0.09833 4.77528e-18)
(12.6218 -0.119311 -4.76529e-18)
(12.5935 -0.130148 0)
(12.5641 -0.134909 -9.07164e-18)
(12.5334 -0.131518 -4.42255e-18)
(12.5027 -0.115087 -4.2867e-18)
(12.4512 -0.106564 1.05046e-18)
(12.2247 -0.0597671 -4.56348e-18)
(11.1839 0.032176 -5.05984e-19)
(12.7278 0.350587 1.13385e-17)
(12.7088 0.276862 -1.67306e-17)
(12.702 0.227134 5.1715e-18)
(12.6921 0.170493 5.55847e-18)
(12.6833 0.113753 -1.08334e-17)
(12.677 0.0666506 5.27639e-18)
(12.6685 0.0257043 5.28982e-18)
(12.655 -0.010294 -5.19302e-18)
(12.6376 -0.0387871 -5.09436e-18)
(12.6181 -0.0623406 0)
(12.5984 -0.0781975 2.42752e-18)
(12.5786 -0.0907456 2.40629e-18)
(12.5606 -0.090458 -2.31732e-18)
(12.5461 -0.0851316 -1.15621e-18)
(12.5067 -0.0844144 -1.1315e-18)
(12.3004 -0.0367685 -4.97622e-18)
(11.3187 -0.0122899 5.45275e-19)
(12.6234 0.407005 -5.59499e-18)
(12.6267 0.320931 -5.70619e-18)
(12.6286 0.268583 -2.07442e-19)
(12.628 0.214671 0)
(12.629 0.161348 0)
(12.631 0.116879 -5.44974e-18)
(12.6288 0.0774036 5.3458e-18)
(12.6218 0.0410953 0)
(12.6125 0.0114285 0)
(12.602 -0.0148031 0)
(12.5911 -0.0326577 0)
(12.5794 -0.0502084 -4.89399e-18)
(12.5702 -0.0562643 7.36003e-18)
(12.5641 -0.0623641 -3.60436e-18)
(12.5383 -0.0623104 1.18222e-18)
(12.3456 -0.0232056 4.6437e-18)
(11.4125 -0.0407418 0)
(12.5633 0.400015 3.25312e-18)
(12.5483 0.338251 0)
(12.5519 0.300513 -2.7776e-18)
(12.5595 0.25185 2.9608e-18)
(12.568 0.201891 -5.57855e-18)
(12.5747 0.159707 -2.68145e-18)
(12.5767 0.121276 -2.65002e-18)
(12.5755 0.0848706 -2.61754e-18)
(12.5731 0.0545188 7.99538e-20)
(12.57 0.0257283 -2.53687e-18)
(12.5668 0.00612241 -5.09632e-18)
(12.5632 -0.016834 5.22986e-18)
(12.5684 -0.0248197 -2.50369e-18)
(12.5655 -0.0393003 -2.42876e-18)
(12.5514 -0.0450683 -2.40149e-18)
(12.3625 -0.0159367 -2.36679e-18)
(11.4722 -0.0540173 -2.36306e-18)
(12.4548 0.446665 6.05446e-18)
(12.4623 0.372524 -5.76349e-18)
(12.4747 0.329334 2.9508e-18)
(12.4885 0.283491 2.92491e-18)
(12.5001 0.23674 8.67149e-20)
(12.5083 0.196286 7.14306e-20)
(12.5131 0.158872 5.55672e-18)
(12.5162 0.122724 1.70059e-19)
(12.519 0.091886 2.7429e-18)
(12.5215 0.0609981 5.34949e-18)
(12.524 0.0402004 7.46257e-20)
(12.5269 0.0115959 2.62363e-18)
(12.5315 0.00356683 -2.46054e-18)
(12.5382 -0.0220346 -1.14365e-18)
(12.5484 -0.0264278 3.74259e-18)
(12.3505 -0.0137219 2.47114e-18)
(11.504 -0.0657891 2.46253e-18)
(12.3909 0.434415 -5.91261e-18)
(12.3819 0.381553 5.96685e-18)
(12.3958 0.35136 0)
(12.4122 0.309889 2.87122e-18)
(12.424 0.265671 -2.563e-18)
(12.4324 0.226973 0)
(12.4391 0.190688 -2.60622e-18)
(12.4453 0.155068 2.77257e-18)
(12.4514 0.123847 -2.65474e-18)
(12.4575 0.0914325 2.58667e-18)
(12.4636 0.069507 2.58243e-18)
(12.4711 0.0353962 -2.51935e-18)
(12.4813 0.028877 2.57615e-18)
(12.4915 -0.00904167 3.78658e-18)
(12.4917 -0.00706844 -1.21602e-18)
(12.3114 -0.0178002 0)
(11.5083 -0.0715207 0)
(12.2821 0.474335 3.1234e-18)
(12.2967 0.410284 0)
(12.3157 0.371577 0)
(12.3308 0.332067 0)
(12.3406 0.290588 2.86109e-18)
(12.3484 0.253087 2.70873e-18)
(12.356 0.217675 2.79446e-18)
(12.3636 0.182731 -2.5814e-18)
(12.3711 0.151145 -2.57365e-18)
(12.379 0.117969 2.50116e-18)
(12.3871 0.094841 1.24888e-18)
(12.3971 0.0567144 -1.21555e-18)
(12.4093 0.0516163 0)
(12.4231 -0.0003461 -1.20096e-18)
(12.4215 0.0142028 1.17144e-18)
(12.2518 -0.0241716 0)
(11.4839 -0.0627507 0)
(12.2173 0.460075 0)
(12.217 0.414692 2.84355e-18)
(12.2314 0.386667 -1.42763e-18)
(12.2429 0.350738 0)
(12.2504 0.311185 0)
(12.2575 0.275003 0)
(12.2649 0.240577 -2.53316e-18)
(12.2723 0.206366 2.45057e-18)
(12.2797 0.174441 1.14055e-18)
(12.2877 0.141111 -1.19665e-18)
(12.296 0.116338 2.33855e-18)
(12.307 0.0762692 -1.14341e-18)
(12.3193 0.0715409 0)
(12.3339 0.00890361 5.63569e-19)
(12.3308 0.036528 4.87895e-19)
(12.1691 -0.0360634 -2.75781e-19)
(11.4311 -0.0374693 2.69823e-19)
(12.1146 0.497532 1.32422e-18)
(12.1319 0.440473 8.58763e-20)
(12.1433 0.401752 -1.44917e-18)
(12.1504 0.366641 1.27358e-18)
(12.1554 0.329501 -7.19102e-20)
(12.1607 0.294034 -2.32351e-18)
(12.1665 0.260175 2.25021e-18)
(12.1724 0.22674 0)
(12.1784 0.194683 -2.30729e-18)
(12.1851 0.161593 -1.30923e-20)
(12.1923 0.135007 1.06319e-18)
(12.2023 0.0949656 0)
(12.2134 0.0877041 0)
(12.2274 0.0186665 0)
(12.2187 0.0583129 -8.13936e-19)
(12.0665 -0.0491368 -3.6931e-19)
(11.3524 -0.00688515 1.21773e-19)
(12.048 0.487133 -7.84058e-19)
(12.0476 0.444165 1.33051e-18)
(12.0502 0.41352 -1.28214e-18)
(12.0531 0.380405 -1.16313e-18)
(12.0556 0.345297 -1.20756e-18)
(12.0582 0.310864 2.23954e-18)
(12.0613 0.277681 -7.52729e-20)
(12.0645 0.244865 -2.03778e-18)