/*--------------------------------*- C++ -*----------------------------------*\
  =========                 |
  \\      /  F ield         | OpenFOAM: The Open Source CFD Toolbox
   \\    /   O peration     | Website:  https://openfoam.org
    \\  /    A nd           | Version:  6
     \\/     M anipulation  |
\*---------------------------------------------------------------------------*/
FoamFile
{
    version     2.0;
    format      ascii;
    class       volScalarField;
    location    "1.3";
    object      p;
}
// * * * * * * * * * * * * * * * * * * * * * * * * * * * * * * * * * * * * * //

dimensions      [0 2 -2 0 0 0 0];

internalField   nonuniform List<scalar> 
4214
(
-1.1623
-0.967446
-0.725714
-0.529086
-0.432392
-0.386996
-0.351682
-0.304579
-0.249006
-0.187691
-0.125616
-0.0667586
-0.00386466
0.0719265
0.140303
0.204239
0.250302
0.309231
0.523846
0.579948
0.65324
0.566992
0.422683
0.32224
0.249419
0.190112
0.128123
0.052385
-0.0143102
-0.0775637
-0.133628
-0.192211
-0.25295
-0.309672
-0.356063
-0.393155
-0.439513
-0.53701
-0.734942
-0.975942
-1.16756
-0.969995
-1.03411
-1.06602
-0.906749
-0.76743
-0.677847
-0.604599
-0.523331
-0.432856
-0.334665
-0.229701
-0.100463
0.0355373
0.193983
0.363101
0.546922
0.728097
0.886696
1.15833
1.13369
1.21914
1.1603
1.02049
0.834718
0.651481
0.469229
0.301078
0.137666
-0.0133786
-0.147784
-0.263376
-0.3645
-0.458796
-0.543627
-0.618104
-0.688195
-0.77455
-0.912249
-1.07215
-1.03687
-0.964043
-1.76292
-1.68708
-1.67997
-1.51156
-1.32114
-1.17205
-1.03609
-0.887598
-0.723839
-0.550985
-0.353916
-0.127967
0.106507
0.369854
0.651469
0.936728
1.24451
1.5258
1.84578
1.99039
2.09717
2.00058
1.77032
1.42708
1.13062
0.831352
0.54843
0.27283
0.0158704
-0.210957
-0.425681
-0.609335
-0.775256
-0.930126
-1.06956
-1.19748
-1.34062
-1.52756
-1.69395
-1.69491
-1.76238
-2.32861
-2.20351
-2.18114
-2.00396
-1.78201
-1.58496
-1.39561
-1.19272
-0.970214
-0.723132
-0.440553
-0.131964
0.20194
0.564568
0.953056
1.35075
1.77895
2.15621
2.53023
2.78625
2.91514
2.80011
2.52126
2.03764
1.61692
1.19785
0.802283
0.421711
0.0681935
-0.252322
-0.550342
-0.814436
-1.04872
-1.25661
-1.44851
-1.62665
-1.81448
-2.02954
-2.20019
-2.21222
-2.3267
-2.95331
-2.8048
-2.73042
-2.51508
-2.25556
-2.01312
-1.77367
-1.50981
-1.21545
-0.886534
-0.520513
-0.123747
0.312047
0.781008
1.28187
1.80055
2.34367
2.86416
3.33156
3.64046
3.77559
3.62538
3.26953
2.67682
2.1234
1.58449
1.0738
0.584162
0.130534
-0.286596
-0.670631
-1.01962
-1.32874
-1.60418
-1.84767
-2.0746
-2.30544
-2.55475
-2.75882
-2.81676
-2.95161
-3.53784
-3.37126
-3.26254
-3.01574
-2.7214
-2.43846
-2.14493
-1.81695
-1.45104
-1.04221
-0.592937
-0.102507
0.433494
1.01176
1.62976
2.27647
2.9492
3.64736
4.17688
4.52355
4.65999
4.46012
3.97904
3.32729
2.65098
1.9862
1.35384
0.750924
0.19447
-0.319752
-0.793177
-1.22325
-1.60617
-1.94768
-2.25172
-2.52457
-2.79092
-3.07082
-3.30322
-3.38898
-3.53862
-4.15369
-3.96091
-3.81282
-3.53498
-3.2005
-2.87323
-2.52485
-2.13302
-1.69551
-1.20792
-0.6693
-0.0784388
0.557431
1.24903
1.99099
2.77007
3.58687
4.40794
5.04524
5.44913
5.5888
5.35489
4.78623
4.033
3.2094
2.40677
1.63865
0.918492
0.255581
-0.362743
-0.930882
-1.44218
-1.89913
-2.30672
-2.66982
-2.99159
-3.29662
-3.61158
-3.86895
-3.98909
-4.16261
-4.78546
-4.56516
-4.38567
-4.07057
-3.69987
-3.32725
-2.92383
-2.46881
-1.96057
-1.39466
-0.763435
-0.0676963
0.676561
1.48549
2.36118
3.28566
4.24713
5.16434
5.94951
6.42297
6.56437
6.30053
5.65865
4.76421
3.79033
2.83157
1.91858
1.07709
0.304918
-0.429903
-1.09699
-1.68936
-2.21963
-2.69253
-3.11313
-3.48378
-3.82844
-4.17517
-4.45849
-4.60757
-4.80683
-5.45677
-5.20927
-5.00114
-4.64565
-4.23646
-3.81699
-3.35827
-2.84026
-2.26081
-1.61366
-0.89287
-0.0864522
0.787277
1.71808
2.73614
3.8278
4.95514
6.01729
6.92514
7.45199
7.58932
7.28668
6.55535
5.51129
4.3844
3.25366
2.18894
1.22063
0.303632
-0.542524
-1.30352
-1.98028
-2.58461
-3.12225
-3.59915
-4.01826
-4.40256
-4.77954
-5.09547
-5.27309
-5.49452
-6.17328
-5.90804
-5.66874
-5.27549
-4.82738
-4.36158
-3.84822
-3.26729
-2.61569
-1.88589
-1.07472
-0.155548
0.862169
1.94111
3.10502
4.37823
5.69151
6.93307
7.96067
8.53672
8.66663
8.31993
7.49713
6.30005
4.98747
3.67004
2.4417
1.3258
0.246764
-0.715715
-1.57356
-2.33635
-3.01587
-3.61747
-4.14908
-4.6147
-5.03689
-5.44398
-5.79272
-5.99147
-6.23454
-6.94095
-6.67587
-6.41324
-5.98436
-5.49905
-4.98989
-4.42344
-3.77926
-3.05394
-2.23762
-1.32705
-0.302864
0.840774
2.11401
3.44385
4.91071
6.42952
7.86822
9.03654
9.67117
9.79306
9.39073
8.46194
7.09562
5.57558
4.05574
2.64838
1.31671
0.101075
-0.972127
-1.93709
-2.78874
-3.54457
-4.20934
-4.79397
-5.30294
-5.75913
-6.19344
-6.56889
-6.78583
-7.02513
-7.77968
-7.53184
-7.26522
-6.80862
-6.28836
-5.73806
-5.11974
-4.4113
-3.60985
-2.70305
-1.68868
-0.540217
0.727734
2.18263
3.72092
5.40628
7.15185
8.80224
10.1199
10.8146
10.928
10.4591
9.40922
7.85374
6.10986
4.36839
2.72627
1.20608
-0.154673
-1.35389
-2.43117
-3.37348
-4.20696
-4.93461
-5.57123
-6.12067
-6.60735
-7.06693
-7.4626
-7.67358
-7.87951
-8.74213
-8.51305
-8.25591
-7.78277
-7.22919
-6.63681
-5.96674
-5.19396
-4.31419
-3.31287
-2.18769
-0.902577
0.519512
2.14707
3.92951
5.86391
7.83938
9.69587
11.1459
11.8785
11.9741
11.4408
10.2812
8.54171
6.57146
4.5903
2.67747
0.985697
-0.553232
-1.88869
-3.08736
-4.12335
-5.03608
-5.82597
-6.5129
-7.10043
-7.61605
-8.09856
-8.50465
-8.69364
-8.86699
-9.90135
-9.65304
-9.39612
-8.92071
-8.34496
-7.71354
-6.9962
-6.16415
-5.20982
-4.11344
-2.87125
-1.43279
0.161193
2.01613
4.01397
6.25305
8.46077
10.522
12.0758
12.8109
12.8751
12.2744
11.0253
9.11813
6.91579
4.66943
2.50853
0.608471
-1.14055
-2.62485
-3.95733
-5.08713
-6.07734
-6.92327
-7.65366
-8.27043
-8.80711
-9.29803
-9.70104
-9.87742
-10.0536
-11.3401
-11.0239
-10.7456
-10.2798
-9.71788
-9.05414
-8.31064
-7.41847
-6.4109
-5.21859
-3.88088
-2.28226
-0.544891
1.57855
3.7717
6.37212
8.81116
11.1916
12.9154
13.7081
13.7967
13.0273
11.6047
9.45772
6.89456
4.42207
1.91567
-0.14063
-2.13263
-3.71994
-5.18883
-6.38308
-7.44632
-8.32372
-9.09087
-9.71019
-10.2567
-10.7226
-11.115
-11.2947
-11.5064
-13.2543
-12.8252
-12.5559
-12.0521
-11.5639
-10.8314
-10.1166
-9.11457
-8.11099
-6.79025
-5.44645
-3.67932
-1.95605
0.485984
2.70235
5.82948
8.46417
11.4453
13.5266
14.5895
14.915
13.7039
11.8579
9.28635
6.09848
3.4382
0.389197
-1.62629
-3.92222
-5.41834
-7.0215
-8.18235
-9.33295
-10.1802
-11.0091
-11.5828
-12.1734
-12.5632
-12.9894
-13.0947
-13.3698
-15.5959
-15.1106
-14.9109
-14.3092
-13.9166
-13.105
-12.4129
-11.323
-10.2937
-8.89779
-7.50789
-5.65094
-3.90635
-1.2274
1.02491
4.57875
7.39082
10.9093
13.2907
14.7364
15.295
13.6153
11.2542
8.24639
4.4786
1.66103
-1.8446
-3.80554
-6.35859
-7.76761
-9.41811
-10.5486
-11.7265
-12.555
-13.415
-13.956
-14.6183
-14.8479
-15.3195
-15.3103
-15.6551
-15.6864
-13.8556
-12.2353
-10.8511
-9.65645
-8.64226
-7.76973
-6.97515
-6.25368
-5.60838
-4.99609
-4.41694
-3.81497
-3.2752
-2.64545
-2.24224
-1.87485
-15.8489
-14.209
-12.7232
-11.4331
-10.3047
-9.32597
-8.50499
-7.74582
-7.03006
-6.3748
-5.74996
-5.18522
-4.58417
-4.09115
-3.43031
-3.13217
-2.42948
-15.7344
-14.3935
-13.1459
-11.9905
-10.9413
-9.998
-9.20934
-8.49335
-7.81323
-7.17786
-6.56616
-6.00842
-5.42126
-4.93812
-4.28302
-3.99858
-3.19984
-15.7048
-14.5889
-13.4974
-12.4626
-11.5068
-10.6325
-9.87928
-9.21124
-8.57028
-7.96432
-7.38236
-6.84417
-6.28674
-5.80915
-5.17548
-4.87845
-4.06473
-15.4676
-14.5814
-13.7347
-12.8608
-12.007
-11.2141
-10.4994
-9.88088
-9.29454
-8.73993
-8.19382
-7.68344
-7.15267
-6.70359
-6.11404
-5.81305
-5.01049
-15.319
-14.5544
-13.885
-13.1714
-12.4353
-11.7301
-11.0695
-10.4958
-9.96873
-9.46938
-8.96241
-8.4958
-8.0002
-7.59549
-7.05434
-6.77324
-6.00473
-14.9575
-14.3896
-13.8747
-13.3578
-12.7727
-12.1703
-11.5861
-11.0478
-10.5712
-10.1259
-9.67694
-9.26839
-8.81624
-8.45491
-7.95499
-7.70626
-7.00891
-14.7081
-14.2057
-13.7875
-13.3894
-12.9725
-12.5078
-12.0247
-11.5469
-11.1062
-10.7144
-10.3296
-9.96361
-9.58837
-9.27465
-8.82272
-8.60271
-7.99144
-14.2511
-13.8971
-13.5956
-13.3026
-12.9965
-12.6828
-12.3343
-11.9601
-11.5765
-11.2276
-10.9022
-10.6112
-10.2838
-9.99774
-9.64415
-9.44362
-8.92
-13.9452
-13.6064
-13.3503
-13.1255
-12.8957
-12.6655
-12.4403
-12.2011
-11.9294
-11.6454
-11.3544
-11.1159
-10.8602
-10.6521
-10.3775
-10.2003
-9.80825
-13.4296
-13.2056
-13.0347
-12.8729
-12.704
-12.5377
-12.374
-12.2145
-12.0553
-11.8887
-11.6948
-11.5027
-11.2864
-11.1443
-10.9535
-10.8319
-10.5658
-13.1011
-12.8744
-12.7258
-12.5947
-12.4603
-12.3301
-12.2089
-12.0969
-11.9899
-11.8889
-11.7865
-11.6902
-11.5642
-11.4665
-11.3255
-11.261
-11.117
-12.5211
-12.3951
-12.3183
-12.2471
-12.1632
-12.0754
-11.9905
-11.9112
-11.8371
-11.7708
-11.7096
-11.664
-11.6112
-11.5822
-11.5168
-11.4903
-11.4412
-12.1325
-11.9866
-11.9147
-11.8593
-11.8032
-11.7498
-11.7021
-11.6604
-11.6248
-11.5955
-11.5694
-11.5539
-11.5364
-11.5344
-11.5187
-11.5344
-11.5469
-11.4986
-11.4341
-11.405
-11.3837
-11.3569
-11.331
-11.3104
-11.2964
-11.2887
-11.2863
-11.2848
-11.3013
-11.3009
-11.3378
-11.337
-11.3903
-11.4622
-11.0374
-10.9368
-10.8956
-10.8688
-10.8457
-10.828
-10.8165
-10.8114
-10.8126
-10.8236
-10.8347
-10.8671
-10.8767
-10.9501
-10.9758
-11.0455
-11.1363
-10.3428
-10.3077
-10.2851
-10.2681
-10.2511
-10.2365
-10.226
-10.2199
-10.2186
-10.228
-10.2452
-10.2791
-10.2965
-10.3671
-10.3763
-10.468
-10.5576
-9.78898
-9.70058
-9.65342
-9.61573
-9.58488
-9.56008
-9.54083
-9.52635
-9.51669
-9.51219
-9.51506
-9.53357
-9.54189
-9.59873
-9.59669
-9.68876
-9.71401
-8.94564
-8.91084
-8.87138
-8.82929
-8.79036
-8.7549
-8.72381
-8.6967
-8.67378
-8.65496
-8.64103
-8.63374
-8.62552
-8.65065
-8.63373
-8.70326
-8.68317
-8.2423
-8.10529
-8.02601
-7.95248
-7.88828
-7.82912
-7.77576
-7.72764
-7.68537
-7.64718
-7.61341
-7.58543
-7.55734
-7.54759
-7.51148
-7.53681
-7.49051
-7.29047
-7.2115
-7.1224
-7.02496
-6.93267
-6.84268
-6.75694
-6.675
-6.59728
-6.52288
-6.45266
-6.38708
-6.31786
-6.26993
-6.19011
-6.19239
-6.0704
-6.59165
-6.36503
-6.20983
-6.06554
-5.92948
-5.79506
-5.66524
-5.53905
-5.41689
-5.29771
-5.18352
-5.07151
-4.95588
-4.87324
-4.72347
-4.69729
-4.4912
-5.56194
-5.42606
-5.25257
-5.05679
-4.87137
-4.69049
-4.51567
-4.34482
-4.17747
-4.01287
-3.85247
-3.69184
-3.53222
-3.39494
-3.19169
-3.13353
-2.84944
-4.83419
-4.48673
-4.24105
-4.00415
-3.77765
-3.55346
-3.33479
-3.12046
-2.90988
-2.70277
-2.49997
-2.29672
-2.09668
-1.91122
-1.67301
-1.57823
-1.2182
-3.738
-3.50588
-3.23479
-2.9483
-2.67515
-2.40812
-2.14824
-1.89367
-1.64357
-1.39817
-1.15764
-0.917469
-0.683774
-0.462155
-0.199048
-0.065348
0.347776
-2.98756
-2.54054
-2.21044
-1.88858
-1.57898
-1.27546
-0.97976
-0.690615
-0.407565
-0.130966
0.140246
0.410064
0.671053
0.925323
1.21601
1.38919
1.82521
-1.89788
-1.572
-1.215
-0.853124
-0.507007
-0.171254
0.154145
0.470683
0.778701
1.07825
1.37168
1.66321
1.94727
2.22949
2.53032
2.72419
3.16837
-1.14306
-0.630047
-0.226401
0.161452
0.533108
0.893316
1.24113
1.57741
1.90323
2.22086
2.53391
2.84158
3.13558
3.42205
3.72048
3.92556
4.3577
-0.0958135
0.300625
0.721214
1.13562
1.52946
1.90728
2.2697
2.61876
2.95727
3.28538
3.60241
3.90877
4.19898
4.4831
4.77204
4.97723
5.38273
0.641823
1.19539
1.64522
2.07065
2.4748
2.86084
3.22943
3.58295
3.92179
4.24532
4.55584
4.85281
5.13276
5.40766
5.67773
5.87653
6.25044
1.62766
2.06429
2.51895
2.9538
3.3617
3.74723
4.11248
4.45945
4.78924
5.1013
5.39811
5.67999
5.94498
6.20463
6.45181
6.64045
6.97924
2.33724
2.89878
3.35869
3.7868
4.18744
4.56341
4.91669
5.24955
5.56227
5.85787
6.13637
6.39873
6.64472
6.88372
7.10712
7.28435
7.58535
3.24922
3.69371
4.145
4.56452
4.95119
5.30993
5.64391
5.95577
6.24686
6.51995
6.77715
7.01736
7.2421
7.45871
7.6575
7.81937
8.08168
3.9252
4.45939
4.89476
5.2908
5.65445
5.98912
6.29822
6.58466
6.8508
7.09823
7.33026
7.54649
7.74722
7.93991
8.11528
8.25991
8.4826
4.76481
5.18047
5.59201
5.9625
6.29738
6.60261
6.88273
7.14087
7.37955
7.60093
7.80638
7.99834
8.17542
8.34191
8.49172
8.61805
8.80276
5.40172
5.87172
6.24638
6.57836
6.87798
7.14984
7.39845
7.6268
7.8372
8.03158
8.21138
8.37657
8.53111
8.67494
8.80092
8.90651
9.05353
6.1657
6.51186
6.84638
7.13835
7.39923
7.63539
7.85122
8.04917
8.23118
8.3987
8.55269
8.69337
8.82079
8.9393
9.04367
9.13199
9.24604
6.7688
7.13364
7.41522
7.65894
7.87892
8.07863
8.26106
8.42782
8.58061
8.7205
8.84798
8.96321
9.06705
9.16005
9.23632
9.30073
9.38938
7.48653
7.72673
7.95689
8.15461
8.33435
8.49758
8.64581
8.78025
8.90245
9.01296
9.11187
9.19937
9.27594
9.34084
9.39161
9.43693
9.49683
8.05849
8.28841
8.45065
8.59681
8.73426
8.85925
8.97155
9.07353
9.16594
9.2485
9.32065
9.38199
9.43202
9.47044
9.50055
9.53529
9.58046
7.92445
8.4594
9.05906
9.54394
10.0774
10.523
11.0172
11.4354
11.881
12.2582
12.6461
12.9747
13.2991
13.5726
13.8288
14.0413
14.2257
14.3718
14.4822
14.5576
14.5935
14.5956
14.5578
14.4856
14.3764
14.2303
14.0538
13.8359
13.5974
13.311
13.0163
12.6661
12.3216
11.9131
11.5258
11.0666
10.6503
10.1545
9.70337
9.14984
8.65944
8.05872
8.56078
9.03708
9.50462
9.95822
10.4018
10.8293
11.2398
11.6317
12.0022
12.3515
12.675
12.9738
13.2431
13.4841
13.6928
13.8697
14.0123
14.1203
14.1931
14.2295
14.2304
14.1948
14.124
14.0181
13.8779
13.7054
13.5003
13.2663
13.0025
12.7134
12.398
12.0607
11.7015
11.3232
10.9277
10.5154
10.0914
9.65596
9.21076
8.7421
8.19059
8.62615
9.0464
9.46948
9.88241
10.288
10.6794
11.06
11.4236
11.7722
12.1
12.4084
12.6921
12.9515
13.1826
13.3851
13.5563
13.6952
13.8006
13.8714
13.9075
13.9083
13.8741
13.8052
13.7025
13.5672
13.4002
13.204
12.979
12.729
12.4538
12.1582
11.8413
11.5086
11.1583
10.7963
10.4197
10.0346
9.64099
9.24607
8.83621
8.31529
8.70337
9.07799
9.45437
9.82756
10.195
10.5547
10.906
11.246
11.5726
11.883
12.1754
12.447
12.6956
12.9187
13.1143
13.2806
13.4158
13.5185
13.5879
13.6232
13.6244
13.5912
13.5244
13.4249
13.294
13.133
12.9441
12.729
12.4902
12.2297
11.9503
11.6539
11.3432
11.0201
10.6875
10.3464
9.99952
9.64508
9.29543
8.93144
8.42969
8.77401
9.10562
9.44246
9.78089
10.118
10.4494
10.7747
11.0925
11.3999
11.6941
11.9725
12.2324
12.4714
12.6868
12.8764
13.0379
13.1696
13.27
13.3379
13.3725
13.3741
13.3419
13.2772
13.1807
13.0539
12.8985
12.7166
12.5103
12.2822
12.0347
11.7705
11.4919
11.2018
10.9028
10.5972
10.286
9.97038
9.65343
9.34392
9.02054
8.53315
8.83579
9.1306
9.43469
9.74123
10.0507
10.3597
10.6631
10.9604
11.2503
11.5298
11.7956
12.0449
12.2751
12.4834
12.6674
12.8246
12.9531
13.0513
13.1179
13.152
13.1538
13.1228
13.0599
12.9662
12.8433
12.693
12.5176
12.3194
12.1011
11.8654
11.615
11.3526
11.0814
10.8035
10.5201
10.2328
9.94755
9.66301
9.38619
9.10233
8.62554
8.89319
9.15623
9.43093
9.71018
9.99432
10.2801
10.5665
10.8469
11.1208
11.3866
11.6411
11.881
12.1033
12.3053
12.4842
12.6376
12.7633
12.8595
12.9249
12.9586
12.9607
12.9306
12.8694
12.7783
12.659
12.5133
12.3438
12.1529
11.9435
11.7183
11.4803
11.2329
10.9783
10.7176
10.454
10.1912
9.93176
9.67527
9.42839
9.17622
8.71013
8.94756
9.18236
9.43114
9.6857
9.94736
10.2129
10.4804
10.7478
11.0085
11.262
11.5062
11.7378
11.9533
12.1498
12.3243
12.4742
12.5974
12.6919
12.7563
12.7896
12.792
12.7628
12.7032
12.6144
12.4982
12.3567
12.1924
12.0079
11.8062
11.5904
11.3638
11.1294
10.8883
10.6435
10.3994
10.1577
9.92139
9.68998
9.47015
9.24704
8.78768
8.99796
9.20753
9.43278
9.66554
9.90709
10.1546
10.406
10.6586
10.91
11.1537
11.3889
11.6131
11.8227
12.0143
12.185
12.3321
12.4532
12.5463
12.6099
12.643
12.6455
12.6171
12.5588
12.472
12.3586
12.2207
12.0609
11.8821
11.6872
11.4798
11.2631
11.0387
10.8095
10.5802
10.3532
10.1305
9.91486
9.70581
9.51015
9.31307
8.85691
9.0431
9.23022
9.43471
9.6488
9.87308
10.1049
10.3422
10.5823
10.8225
11.0595
11.2873
11.5047
11.709
11.8965
12.0642
12.2091
12.3287
12.4208
12.4838
12.5167
12.5194
12.4916
12.4344
12.3492
12.2378
12.1028
11.9469
11.7729
11.5844
11.3846
11.1756
10.9598
10.7427
10.5268
10.3147
10.1085
9.91087
9.7213
9.547
9.37302
8.91694
9.0818
9.24894
9.43563
9.63363
9.84301
10.0613
10.2863
10.5156
10.7463
10.9754
11.198
11.4099
11.6097
11.7942
11.9599
12.1035
12.2222
12.3137
12.3765
12.4094
12.4123
12.3849
12.3284
12.2441
12.1342
12.0012
11.8479
11.6779
11.4949
11.3011
11.0981
10.8917
10.6849
10.4806
10.2815
10.0896
9.90745
9.73475
9.57938
9.42582
8.96683
9.1129
9.26224
9.43234
9.61512
9.81055
10.0165
10.231
10.4514
10.6746
10.8973
11.1166
11.3263
11.5241
11.7069
11.8714
12.0143
12.1326
12.224
12.2868
12.3198
12.3227
12.2956
12.2395
12.1558
12.0467
11.9149
11.7635
11.5958
11.4156
11.2244
11.0271
10.8278
10.6295
10.4352
10.2477
10.069
9.90113
9.7444
9.60593
9.47036
9.00506
9.13481
9.26985
9.4251
9.59486
9.7783
9.97382
10.1796
10.3926
10.61
10.8279
11.0438
11.254
11.4531
11.6352
11.7986
11.9407
12.0588
12.1503
12.2133
12.2465
12.2495
12.2225
12.1665
12.0831
11.9748
11.8442
11.6942
11.5273
11.3461
11.1567
10.9639
10.7702
10.5787
10.3927
10.2152
10.0479
9.89239
9.74982
9.62494
9.50501
9.03083
9.14595
9.27283
9.41858
9.57995
9.75536
9.94337
10.1413
10.3477
10.5603
10.7749
10.9886
11.1964
11.394
11.5758
11.7387
11.8807
11.9992
12.0912
12.1546
12.188
12.1911
12.1641
12.1079
12.0243
11.9162
11.7862
11.6369
11.4707
11.2922
11.1053
10.9155
10.7261
10.5407
10.3623
10.192
10.0325
9.88512
9.75177
9.6348
9.52892
9.04934
9.14768
9.26556
9.40064
9.55284
9.72081
9.90317
10.0953
10.2978
10.507
10.7197
10.9313
11.1386
11.3348
11.519
11.6857
11.8311
11.9519
12.0455
12.11
12.1441
12.1472
12.1195
12.0623
11.9772
11.8666
11.7337
11.5818
11.4156
11.2377
11.053
10.8653
10.6791
10.4978
10.3248
10.1595
10.0069
9.86827
9.74502
9.63696
9.54704
9.07551
9.14794
9.24302
9.35932
9.49732
9.65504
9.83021
10.0221
10.2253
10.433
10.6467
10.8583
11.0701
11.2718
11.4632
11.6382
11.7911
11.917
12.0141
12.0811
12.1164
12.1192
12.09
12.0301
11.9413
11.825
11.6847
11.5258
11.3538
11.171
10.9857
10.7979
10.6127
10.4318
10.2584
10.0997
9.95644
9.83109
9.72551
9.63896
9.5737
9.11829
9.15608
9.23381
9.33982
9.47044
9.62239
9.79242
9.97904
10.1778
10.3881
10.6027
10.8206
11.0332
11.2407
11.4351
11.612
11.7674
11.898
11.9995
12.0691
12.1055
12.1081
12.0772
12.014
11.9207
11.8009
11.6584
11.4969
11.3206
11.1371
10.9467
10.7567
10.5697
10.3909
10.2231
10.0698
9.93214
9.81369
9.71775
9.64805
9.61707
-1.85831
-2.22783
-2.62921
-3.25995
-3.79772
-4.39018
-4.95703
-5.56222
-6.20909
-6.93281
-7.72463
-8.5819
-9.54952
-10.7178
-12.0918
-13.6764
-15.4658
-2.41041
-3.11968
-3.41517
-4.07572
-4.57118
-5.17051
-5.73324
-6.35817
-7.01113
-7.72194
-8.4772
-9.28938
-10.2374
-11.3628
-12.6441
-14.0939
-15.5946
-3.17898
-3.98666
-4.27083
-4.92912
-5.41593
-6.00657
-6.56555
-7.17882
-7.8121
-8.49468
-9.2162
-9.9968
-10.9261
-11.9892
-13.1717
-14.5929
-16.249
-4.04962
-4.87584
-5.17285
-5.81267
-6.29621
-6.86097
-7.40526
-7.99375
-8.60177
-9.24783
-9.92441
-10.6656
-11.5496
-12.5206
-13.5639
-14.6687
-15.9411
-5.0047
-5.822
-6.12505
-6.7246
-7.18557
-7.72366
-8.2411
-8.79611
-9.36471
-9.96476
-10.5928
-11.301
-12.1185
-13.0013
-13.9423
-14.8912
-15.804
-6.01355
-6.80044
-7.08954
-7.64445
-8.06198
-8.57098
-9.04842
-9.56475
-10.0834
-10.6286
-11.2055
-11.8745
-12.6087
-13.3912
-14.1957
-15.0387
-15.998
-7.0426
-7.7647
-8.02416
-8.54197
-8.91698
-9.38403
-9.81278
-10.2804
-10.7434
-11.2321
-11.7665
-12.3754
-13.0189
-13.6798
-14.3025
-14.8928
-15.549
-8.06338
-8.70114
-8.93358
-9.40399
-9.73611
-10.134
-10.5187
-10.9257
-11.3316
-11.7735
-12.2757
-12.8085
-13.3548
-13.8882
-14.365
-14.8087
-15.2513
-9.03095
-9.59119
-9.80164
-10.1814
-10.4865
-10.8386
-11.1496
-11.4901
-11.8456
-12.2569
-12.6864
-13.1164
-13.528
-13.9007
-14.2708
-14.6829
-15.2084
-9.96891
-10.4068
-10.5983
-10.9043
-11.1309
-11.4098
-11.6675
-11.9664
-12.2898
-12.6261
-12.9495
-13.2477
-13.5214
-13.7917
-14.0445
-14.3029
-14.6497
-10.8086
-11.1202
-11.2578
-11.4794
-11.6448
-11.876
-12.0888
-12.3417
-12.5814
-12.8065
-13.0112
-13.2138
-13.4212
-13.6276
-13.8199
-14.0026
-14.196
-11.4663
-11.6547
-11.7358
-11.8998
-12.0164
-12.1934
-12.3432
-12.4953
-12.6337
-12.7745
-12.919
-13.0694
-13.2255
-13.3909
-13.5654
-13.7752
-14.0632
-11.8983
-11.9834
-12.0234
-12.1302
-12.1989
-12.2876
-12.3598
-12.446
-12.5336
-12.6274
-12.7298
-12.8395
-12.9559
-13.073
-13.182
-13.3094
-13.5025
-12.107
-12.1198
-12.1286
-12.1703
-12.1855
-12.2213
-12.2578
-12.3066
-12.3615
-12.4248
-12.4951
-12.5708
-12.6495
-12.7263
-12.794
-12.8535
-12.9309
-12.1287
-12.084
-12.0481
-12.0584
-12.0476
-12.0581
-12.0647
-12.081
-12.1038
-12.137
-12.1794
-12.23
-12.2885
-12.3534
-12.4261
-12.5279
-12.691
-11.9068
-11.8345
-11.7773
-11.7669
-11.7108
-11.7127
-11.6956
-11.6979
-11.7066
-11.7234
-11.7479
-11.7792
-11.8167
-11.8583
-11.9034
-11.9707
-12.0789
-11.4229
-11.3448
-11.2655
-11.2679
-11.2082
-11.1958
-11.1745
-11.1765
-11.1848
-11.1988
-11.2188
-11.2443
-11.2747
-11.3084
-11.3427
-11.376
-11.4098
-10.6581
-10.6393
-10.5554
-10.5597
-10.5108
-10.5127
-10.5137
-10.5221
-10.5359
-10.5552
-10.5806
-10.6124
-10.6517
-10.6996
-10.7594
-10.8367
-10.9536
-9.69371
-9.71452
-9.64926
-9.66762
-9.65427
-9.66851
-9.68221
-9.70241
-9.72735
-9.75658
-9.79054
-9.82892
-9.87228
-9.92053
-9.97611
-10.0403
-10.125
-8.54345
-8.5907
-8.56681
-8.60596
-8.61801
-8.64877
-8.67959
-8.71666
-8.75905
-8.80738
-8.86198
-8.92199
-8.98862
-9.06022
-9.13434
-9.18872
-9.22434
-7.13965
-7.26342
-7.26135
-7.34439
-7.39403
-7.46551
-7.53356
-7.60654
-7.68415
-7.76568
-7.852
-7.94326
-8.0426
-8.14974
-8.26761
-8.39505
-8.58871
-5.56082
-5.77149
-5.79803
-5.94995
-6.03397
-6.15246
-6.26752
-6.3853
-6.50873
-6.63539
-6.76566
-6.89871
-7.03453
-7.16461
-7.29931
-7.44649
-7.65169
-3.90027
-4.19126
-4.24993
-4.4586
-4.59829
-4.76192
-4.92668
-5.09146
-5.2611
-5.43431
-5.61239
-5.79663
-5.98767
-6.18053
-6.38324
-6.55643
-6.6624
-2.23975
-2.60968
-2.70544
-2.9514
-3.14114
-3.34659
-3.55555
-3.76409
-3.97705
-4.19345
-4.41359
-4.63826
-4.87008
-5.11312
-5.38286
-5.65822
-5.99967
-0.632638
-1.06115
-1.19713
-1.47008
-1.69846
-1.93946
-2.18716
-2.43535
-2.68879
-2.94736
-3.21059
-3.47831
-3.7507
-4.02306
-4.29608
-4.57197
-4.9649
0.894611
0.439871
0.261238
-0.0425979
-0.306834
-0.577642
-0.857264
-1.13822
-1.42449
-1.71744
-2.01718
-2.32494
-2.64319
-2.96956
-3.30631
-3.62388
-3.86805
2.29064
1.82444
1.624
1.30932
1.0144
0.716686
0.411924
0.105921
-0.205779
-0.525609
-0.853778
-1.19078
-1.53797
-1.89767
-2.28649
-2.69746
-3.17387
3.53434
3.07808
2.8641
2.55066
2.25098
1.94252
1.61975
1.29118
0.95715
0.615749
0.264613
-0.0980333
-0.472597
-0.856353
-1.24706
-1.64192
-2.17784
4.61208
4.18184
3.96634
3.66079
3.36152
3.05567
2.73292
2.39936
2.05432
1.69708
1.32969
0.949435
0.552362
0.137837
-0.294245
-0.727677
-1.08158
5.52986
5.13095
4.9206
4.63316
4.34183
4.04505
3.73063
3.40214
3.05993
2.70237
2.32821
1.93938
1.53324
1.10799
0.650461
0.154567
-0.387437
6.30287
5.93999
5.73921
5.47483
5.19804
4.91581
4.61565
4.29955
3.96831
3.61879
3.2501
2.86186
2.45326
2.02421
1.57484
1.11443
0.495868
6.94809
6.62486
6.43545
6.19564
5.93929
5.6757
5.3945
5.09689
4.78155
4.44638
4.09175
3.71479
3.31341
2.88429
2.42512
1.94601
1.5293
7.47902
7.19654
7.02207
6.80804
6.57481
6.3325
6.07392
5.7975
5.50246
5.19001
4.85515
4.49706
4.11306
3.70048
3.2487
2.74038
2.1855
7.90862
7.66837
7.51192
7.32264
7.11407
6.89654
6.66256
6.41021
6.14271
5.85465
5.54487
5.21106
4.85003
4.45946
4.03635
3.58879
2.97299
8.25204
8.05297
7.91567
7.75328
7.57259
7.38035
7.17115
6.94718
6.70558
6.44523
6.16377
5.85869
5.52653
5.16245
4.7605
4.32296
3.92202
8.52112
8.36297
8.24783
8.11129
7.95526
7.78668
7.60534
7.40837
7.19482
6.96339
6.71202
6.43843
6.13951
5.81197
5.44565
5.01614
4.53587
8.72709
8.6056
8.50963
8.39626
8.26645
8.1267
7.97255
7.80286
7.61757
7.41564
7.19548
6.9549
6.69125
6.40172
6.08193
5.74025
5.22626
8.87996
8.78665
8.71644
8.63334
8.53213
8.41812
8.29123
8.15012
7.99438
7.82331
7.63569
7.42951
7.20298
6.95138
6.67133
6.36421
6.08644
8.9932
8.93079
8.88277
8.82803
8.75767
8.67386
8.57732
8.46735
8.34349
8.20534
8.05194
7.88153
7.69303
7.48289
7.24942
6.95839
6.66526
9.0797
9.03487
8.99943
8.96785
8.92662
8.87199
8.80415
8.72344
8.63005
8.5242
8.40568
8.27298
8.1244
7.95879
7.77832
7.56846
7.25798
-16.9914
-16.4584
-15.4855
-13.8933
-11.5287
-8.11293
-3.26969
2.93079
9.30274
12.9018
11.5255
6.0169
-0.662254
-6.32037
-10.6351
-13.3633
-15.2119
-16.3682
-16.9721
-17.1881
-18.5627
-18.3403
-17.6635
-16.3417
-14.2137
-10.998
-6.23447
-0.000864999
6.54564
10.4556
8.83587
2.71393
-4.31702
-9.81351
-13.8979
-16.2923
-17.7931
-18.6056
-18.86
-18.7645
-20.3332
-20.4818
-20.1976
-19.2719
-17.5653
-14.7526
-10.3453
-4.36006
2.18349
6.22362
4.46576
-2.04224
-9.461
-14.6446
-17.9767
-19.9057
-20.8411
-21.1754
-20.9858
-20.5127
-22.3496
-22.9449
-23.1657
-22.7999
-21.7658
-19.6214
-16.0061
-10.6971
-4.27644
0.00358591
-1.79461
-8.66277
-16.3519
-21.1717
-23.3583
-24.4439
-24.4638
-24.132
-23.3991
-22.4752
-24.6213
-25.7476
-26.5977
-27.0228
-27.0312
-26.0155
-23.6775
-19.191
-12.9399
-8.29509
-9.94503
-17.0788
-24.7
-29.0835
-30.3254
-30.0558
-28.7464
-27.4816
-26.1024
-24.6567
-27.1656
-28.9096
-30.5284
-32.0199
-33.4861
-34.1727
-33.1613
-29.5942
-23.6447
-18.5567
-19.6694
-26.7918
-34.204
-37.8915
-38.1
-36.3383
-33.7992
-31.2717
-29.0885
-27.0659
-29.9848
-32.4316
-35.0164
-37.9022
-40.9105
-43.329
-43.7872
-41.2856
-35.5831
-30.0334
-30.2602
-36.9196
-43.9417
-47.4787
-46.597
-42.9188
-39.5166
-35.545
-32.3309
-29.6875
-33.0602
-36.3185
-40.1207
-44.4698
-48.8221
-53.1889
-55.0026
-52.8626
-47.4239
-41.5704
-40.838
-46.7151
-52.9779
-56.2452
-55.1107
-50.4414
-45.0902
-40.2313
-35.8472
-32.4912
-36.3613
-40.5861
-45.7092
-51.1032
-57.4715
-62.7773
-64.8468
-62.9791
-57.9724
-51.9757
-50.5214
-55.3108
-60.5237
-63.4018
-62.4209
-57.7282
-50.728
-45.1828
-39.6683
-35.439
-39.8831
-45.1571
-51.2609
-57.845
-65.4195
-70.5963
-72.3823
-70.7091
-66.3026
-60.5666
-58.5361
-62.0469
-66.1746
-68.5001
-67.7909
-63.7173
-56.7254
-49.6181
-43.6152
-38.4937
-43.6161
-49.7735
-56.4403
-64.389
-71.4954
-75.8593
-77.2327
-75.7987
-72.0533
-66.9465
-64.3388
-66.7174
-69.8753
-71.583
-70.9983
-67.7612
-61.8536
-53.9679
-47.3416
-41.5868
-47.3488
-53.8226
-61.4556
-69.3693
-75.1685
-78.6054
-79.6887
-78.5131
-75.343
-70.8649
-68.1118
-69.4389
-71.7056
-72.9096
-72.3486
-69.7907
-65.0418
-58.1932
-50.774
-44.6642
-50.7899
-57.7577
-65.5886
-72.0934
-76.5371
-79.2978
-80.1952
-79.1875
-76.4187
-72.4741
-70.0371
-70.3415
-71.836
-72.6741
-72.0635
-69.7539
-66.0748
-61.0386
-54.1607
-47.5301
-54.5079
-61.2453
-67.153
-71.9867
-75.8441
-78.2561
-78.9918
-77.9943
-75.3914
-71.8465
-69.6289
-69.3422
-70.3444
-70.9818
-70.3961
-68.3799
-65.1318
-61.0515
-56.5897
-50.5878
-58.1248
-61.904
-65.8486
-70.0884
-73.519
-75.5747
-76.1016
-74.9293
-72.2995
-69.0029
-66.7706
-66.3705
-67.1965
-67.8484
-67.3647
-65.6926
-62.8355
-59.3859
-56.2802
-52.7318
-57.9697
-59.7176
-62.6358
-66.5799
-69.5939
-71.1514
-71.4642
-69.927
-67.1494
-64.0164
-61.924
-61.6119
-62.4514
-63.3005
-63.0028
-61.8108
-59.4274
-56.2547
-53.8723
-52.0343
-53.7853
-55.2629
-58.2775
-61.8139
-64.1557
-65.1936
-65.0841
-63.1115
-60.2345
-57.3535
-55.643
-55.4658
-56.4187
-57.5409
-57.6244
-56.8881
-55.1785
-52.4112
-50.0071
-48.7582
-48.131
-50.8038
-53.9153
-56.4966
-57.9274
-58.4376
-57.4538
-55.2047
-52.4408
-49.9912
-48.7111
-48.6851
-49.7855
-51.1469
-51.933
-51.6703
-50.681
-48.8057
-46.4103
-44.1903
-44.9419
-47.8673
-50.3959
-51.8261
-52.3701
-51.8793
-49.9925
-47.5545
-44.9581
-42.8703
-41.8903
-42.1085
-43.3695
-45.0113
-46.4727
-47.1025
-46.8881
-45.9507
-44.1113
-41.6355
-44.1705
-45.1714
-45.7874
-46.0158
-45.4695
-43.932
-41.8942
-39.7678
-37.6894
-36.0835
-35.395
-35.6455
-36.7397
-38.2784
-39.8117
-41.124
-41.9078
-41.909
-41.6158
-41.0815
-40.6617
-38.0211
-39.6905
-44.145
-45.5864
-45.4614
-44.1718
-42.3001
-40.0645
-37.6471
-35.1215
-32.5648
-30.0688
-27.7039
-25.507
-23.4891
-21.6523
-19.9883
-18.502
-17.1561
-40.1631
-37.0749
-37.8931
-41.2256
-42.5871
-41.9116
-40.5337
-38.7666
-36.6731
-34.4728
-32.2446
-30.0326
-27.8928
-25.8697
-23.9875
-22.2547
-20.6761
-19.2425
-17.9626
-16.7887
-40.33
-37.6101
-37.2683
-38.8743
-39.5015
-38.1347
-36.9462
-35.4075
-33.5322
-31.5763
-29.6176
-27.686
-25.8253
-24.0711
-22.4425
-20.944
-19.5801
-18.3369
-17.2306
-16.1995
-40.9678
-38.469
-37.3094
-37.6325
-37.3833
-35.3862
-34.0564
-32.5349
-30.7836
-28.9847
-27.208
-25.4852
-23.8456
-22.3096
-20.8874
-19.5803
-18.3927
-17.3052
-16.3448
-15.4319
-41.4084
-39.4215
-37.3437
-36.6729
-35.2177
-33.2202
-31.5753
-29.9328
-28.2494
-26.5731
-24.9442
-23.3911
-21.931
-20.5734
-19.3224
-18.1776
-17.1399
-16.1874
-15.3573
-14.5487
-41.6981
-40.3893
-37.4477
-35.857
-32.9558
-31.1228
-29.3318
-27.5709
-25.8976
-24.301
-22.7868
-21.3693
-20.0553
-18.8462
-17.741
-16.7378
-15.8303
-15.0048
-14.2992
-13.594
-41.9012
-41.1175
-37.7621
-34.9968
-31.1948
-29.0945
-27.1563
-25.3287
-23.6505
-22.1088
-20.6874
-19.3827
-18.191
-17.108
-16.1293
-15.2491
-14.4566
-13.7559
-13.1581
-12.5485
-42.0151
-41.4654
-37.6958
-33.7706
-29.6629
-27.1465
-25.0033
-23.1309
-21.4506
-19.9533
-18.6091
-17.4002
-16.3131
-15.3386
-14.4687
-13.6925
-13.0036
-12.4166
-11.8925
-11.3833
-42.1719
-41.4332
-37.198
-31.9411
-27.9957
-25.1727
-22.8222
-20.9154
-19.2446
-17.7939
-16.5197
-15.3964
-14.4019
-13.5224
-12.7448
-12.0563
-11.4597
-10.9546
-10.4697
-10.0955
-42.4762
-41.1773
-36.1345
-29.7507
-25.9947
-23.0569
-20.5694
-18.6429
-16.9949
-15.5996
-14.3955
-13.3535
-12.4444
-11.6499
-10.9524
-10.3424
-9.82427
-9.3659
-8.92111
-8.68241
-42.8201
-40.4513
-34.7748
-27.534
-23.7261
-20.7551
-18.2048
-16.2828
-14.6745
-13.3476
-12.2199
-11.2605
-10.4344
-9.71912
-9.09551
-8.55876
-8.10239
-7.67625
-7.30364
-7.15922
-43.0058
-39.136
-33.3183
-25.3228
-21.2276
-18.2375
-15.6913
-13.8114
-12.2666
-11.0249
-9.98532
-9.11438
-8.37319
-7.73594
-7.18511
-6.71676
-6.30747
-5.91029
-5.61901
-5.53847
-43.0155
-36.7774
-31.1076
-22.8969
-18.4722
-15.4866
-13.0079
-11.2167
-9.76587
-8.62875
-7.69256
-6.9197
-6.26876
-5.71248
-5.23608
-4.83196
-4.4629
-4.10099
-3.88525
-3.83974
-42.565
-33.3552
-27.7092
-19.997
-15.4491
-12.523
-10.1577
-8.50002
-7.17644
-6.16508
-5.34919
-4.68557
-4.13249
-3.66317