/*--------------------------------*- C++ -*----------------------------------*\
  =========                 |
  \\      /  F ield         | OpenFOAM: The Open Source CFD Toolbox
   \\    /   O peration     | Website:  https://openfoam.org
    \\  /    A nd           | Version:  6
     \\/     M anipulation  |
\*---------------------------------------------------------------------------*/
FoamFile
{
    version     2.0;
    format      ascii;
    class       volVectorField;
    location    "4.62";
    object      U;
}
// * * * * * * * * * * * * * * * * * * * * * * * * * * * * * * * * * * * * * //

dimensions      [0 1 -1 0 0 0 0];

internalField   nonuniform List<vector> 
5625
(
(0.865938 0.432537 0)
(0.868258 0.433219 0)
(0.871707 0.43451 0)
(0.875939 0.436251 0)
(0.880666 0.43828 0)
(0.885649 0.440427 0)
(0.890699 0.442523 0)
(0.895717 0.444369 0)
(0.900677 0.445738 0)
(0.905556 0.4464 0)
(0.910389 0.446112 0)
(0.915311 0.444631 0)
(0.920524 0.441738 0)
(0.926299 0.437228 0)
(0.93299 0.430935 0)
(0.940993 0.422858 0)
(0.950764 0.413178 0)
(0.962829 0.402203 0)
(0.977569 0.390438 0)
(0.995085 0.37858 0)
(1.01538 0.367402 0)
(1.0384 0.357774 0)
(1.06376 0.350718 0)
(1.09047 0.347123 0)
(1.11732 0.347453 0)
(1.14318 0.351993 0)
(1.16701 0.361025 0)
(1.18762 0.374394 0)
(1.20385 0.391272 0)
(1.21482 0.410653 0)
(1.22018 0.431705 0)
(1.21998 0.453478 0)
(1.21425 0.474703 0)
(1.20297 0.494088 0)
(1.1864 0.510607 0)
(1.16543 0.523573 0)
(1.14129 0.532699 0)
(1.11517 0.538134 0)
(1.08806 0.540302 0)
(1.06093 0.539688 0)
(1.03465 0.536783 0)
(1.0099 0.532115 0)
(0.987054 0.526227 0)
(0.966397 0.519572 0)
(0.94822 0.512464 0)
(0.932795 0.505109 0)
(0.920244 0.497686 0)
(0.910461 0.490386 0)
(0.903158 0.483392 0)
(0.898007 0.476828 0)
(0.894764 0.47073 0)
(0.893304 0.465052 0)
(0.893586 0.459712 0)
(0.895547 0.454639 0)
(0.899008 0.449821 0)
(0.903608 0.445324 0)
(0.908799 0.441292 0)
(0.913907 0.437916 0)
(0.918245 0.435385 0)
(0.921251 0.433829 0)
(0.922599 0.433277 0)
(0.92226 0.433636 0)
(0.920468 0.434713 0)
(0.917634 0.436259 0)
(0.91423 0.438022 0)
(0.910687 0.439793 0)
(0.907333 0.441422 0)
(0.90437 0.442826 0)
(0.901892 0.443976 0)
(0.899907 0.444877 0)
(0.898374 0.445561 0)
(0.897225 0.446063 0)
(0.896385 0.446423 0)
(0.895784 0.446675 0)
(0.89536 0.446848 0)
(0.865768 0.431768 0)
(0.867532 0.432182 0)
(0.870506 0.433279 0)
(0.874346 0.434907 0)
(0.878762 0.436895 0)
(0.883507 0.439084 0)
(0.888376 0.441315 0)
(0.893249 0.443397 0)
(0.898067 0.445137 0)
(0.902804 0.446335 0)
(0.907489 0.446767 0)
(0.91222 0.44621 0)
(0.917142 0.444473 0)
(0.922463 0.441368 0)
(0.928456 0.436766 0)
(0.935461 0.430661 0)
(0.943902 0.423143 0)
(0.954179 0.41441 0)
(0.966506 0.404871 0)
(0.981032 0.39511 0)
(0.997953 0.385788 0)
(1.01725 0.377661 0)
(1.03838 0.371532 0)
(1.06052 0.36806 0)
(1.08294 0.367726 0)
(1.10483 0.370968 0)
(1.1251 0.377987 0)
(1.14256 0.388464 0)
(1.15635 0.401783 0)
(1.16589 0.417387 0)
(1.17082 0.434614 0)
(1.17088 0.45244 0)
(1.16588 0.469689 0)
(1.15586 0.485394 0)
(1.14132 0.49885 0)
(1.1232 0.509564 0)
(1.10252 0.517334 0)
(1.08019 0.522265 0)
(1.057 0.524623 0)
(1.03379 0.524704 0)
(1.01133 0.522841 0)
(0.990172 0.51944 0)
(0.970647 0.514923 0)
(0.95304 0.509632 0)
(0.937653 0.503799 0)
(0.924737 0.497596 0)
(0.914367 0.491203 0)
(0.906408 0.484819 0)
(0.900588 0.478627 0)
(0.896633 0.472741 0)
(0.894366 0.467187 0)
(0.893717 0.461925 0)
(0.894665 0.456888 0)
(0.897141 0.452036 0)
(0.900935 0.447397 0)
(0.905653 0.443077 0)
(0.910724 0.439257 0)
(0.915483 0.436149 0)
(0.91929 0.433943 0)
(0.921665 0.432749 0)
(0.922384 0.432561 0)
(0.921507 0.433248 0)
(0.919332 0.434588 0)
(0.916293 0.436319 0)
(0.912846 0.438193 0)
(0.909383 0.440011 0)
(0.906186 0.441644 0)
(0.903415 0.443027 0)
(0.901131 0.444142 0)
(0.899323 0.445007 0)
(0.897939 0.445657 0)
(0.89691 0.446131 0)
(0.896162 0.44647 0)
(0.895629 0.446706 0)
(0.895255 0.446868 0)
(0.865846 0.431126 0)
(0.867007 0.43122 0)
(0.869461 0.43207 0)
(0.872873 0.433525 0)
(0.876942 0.43542 0)
(0.881408 0.4376 0)
(0.886064 0.439908 0)
(0.890774 0.442165 0)
(0.895447 0.444193 0)
(0.900034 0.445822 0)
(0.904561 0.446857 0)
(0.909091 0.447097 0)
(0.913731 0.446347 0)
(0.918644 0.444448 0)
(0.924052 0.441325 0)
(0.930239 0.436951 0)
(0.937515 0.431317 0)
(0.946138 0.424562 0)
(0.95634 0.417056 0)
(0.968405 0.409261 0)
(0.982503 0.40167 0)
(0.998427 0.394894 0)
(1.0157 0.38961 0)
(1.03392 0.386405 0)
(1.05258 0.385761 0)
(1.07083 0.388037 0)
(1.08763 0.393295 0)
(1.10214 0.401305 0)
(1.11378 0.411765 0)
(1.12195 0.42429 0)
(1.12613 0.438168 0)
(1.12597 0.452434 0)
(1.1214 0.466216 0)
(1.1126 0.478871 0)
(1.10014 0.489866 0)
(1.08481 0.498778 0)
(1.06739 0.505435 0)
(1.04852 0.509894 0)
(1.02891 0.512293 0)
(1.0093 0.512795 0)
(0.990342 0.511631 0)
(0.972475 0.509121 0)
(0.956006 0.505591 0)
(0.94122 0.501293 0)
(0.928414 0.496397 0)
(0.917804 0.491058 0)
(0.909419 0.485456 0)
(0.903104 0.479793 0)
(0.898616 0.47424 0)
(0.89574 0.468897 0)
(0.89436 0.463779 0)
(0.89445 0.458846 0)
(0.896001 0.45405 0)
(0.898925 0.449383 0)
(0.902977 0.444912 0)
(0.907726 0.440785 0)
(0.912586 0.437213 0)
(0.916912 0.43442 0)
(0.920126 0.432586 0)
(0.921839 0.431793 0)
(0.921932 0.431989 0)
(0.920551 0.433007 0)
(0.918045 0.434598 0)
(0.914857 0.436493 0)
(0.911416 0.438451 0)
(0.908071 0.440294 0)
(0.905055 0.441912 0)
(0.902487 0.443257 0)
(0.900401 0.444328 0)
(0.898768 0.445149 0)
(0.897529 0.445761 0)
(0.896615 0.446205 0)
(0.895954 0.446519 0)
(0.895485 0.446738 0)
(0.895156 0.446889 0)
(0.866207 0.430646 0)
(0.866722 0.430373 0)
(0.868609 0.430919 0)
(0.871551 0.432143 0)
(0.875236 0.433888 0)
(0.879389 0.436003 0)
(0.883799 0.438326 0)
(0.888317 0.440691 0)
(0.89283 0.442939 0)
(0.89727 0.44491 0)
(0.901633 0.446427 0)
(0.905963 0.447313 0)
(0.910343 0.447403 0)
(0.914899 0.44657 0)
(0.919797 0.444724 0)
(0.925253 0.441778 0)
(0.931501 0.437727 0)
(0.938762 0.432748 0)
(0.947284 0.427111 0)
(0.957291 0.421082 0)
(0.968811 0.415036 0)
(0.981672 0.409544 0)
(0.995692 0.405192 0)
(1.01063 0.402434 0)
(1.02594 0.401643 0)
(1.04078 0.403117 0)
(1.05447 0.40695 0)
(1.06644 0.413059 0)
(1.07609 0.421264 0)
(1.08275 0.431168 0)
(1.08595 0.442091 0)
(1.08551 0.453311 0)
(1.08143 0.464262 0)
(1.07393 0.474466 0)
(1.06351 0.483448 0)
(1.05076 0.490844 0)
(1.03622 0.496508 0)
(1.02044 0.500452 0)
(1.00403 0.502719 0)
(0.987657 0.503388 0)
(0.971842 0.502631 0)
(0.956943 0.500699 0)
(0.94324 0.497838 0)
(0.931018 0.494226 0)
(0.920556 0.489994 0)
(0.912023 0.485287 0)
(0.905406 0.480285 0)
(0.900547 0.475185 0)
(0.897237 0.47014 0)
(0.895319 0.465228 0)
(0.894735 0.460453 0)
(0.895492 0.455779 0)
(0.897578 0.451176 0)
(0.900875 0.446672 0)
(0.905098 0.442374 0)
(0.909781 0.438469 0)
(0.914334 0.43519 0)
(0.918145 0.432766 0)
(0.920711 0.431354 0)
(0.921747 0.430993 0)
(0.921234 0.431587 0)
(0.919397 0.432928 0)
(0.916621 0.434748 0)
(0.913343 0.436778 0)
(0.909958 0.438792 0)
(0.906766 0.440634 0)
(0.903951 0.442217 0)
(0.901595 0.443511 0)
(0.899707 0.444528 0)
(0.898245 0.4453 0)
(0.897146 0.44587 0)
(0.896341 0.446281 0)
(0.895761 0.446571 0)
(0.895352 0.446772 0)
(0.895066 0.44691 0)
(0.866875 0.430371 0)
(0.866721 0.429687 0)
(0.867996 0.429868 0)
(0.870417 0.430803 0)
(0.873673 0.432341 0)
(0.877481 0.434327 0)
(0.881617 0.436601 0)
(0.885914 0.439009 0)
(0.890243 0.441406 0)
(0.894522 0.443633 0)
(0.898726 0.445526 0)
(0.902876 0.446933 0)
(0.907022 0.447725 0)
(0.911247 0.447784 0)
(0.915686 0.44698 0)
(0.920519 0.445228 0)
(0.925929 0.442581 0)
(0.932091 0.43918 0)
(0.939195 0.435138 0)
(0.947386 0.430616 0)
(0.956685 0.426003 0)
(0.967056 0.421796 0)
(0.978418 0.418377 0)
(0.990484 0.416061 0)
(1.00272 0.415224 0)
(1.01458 0.416175 0)
(1.02563 0.419013 0)
(1.03534 0.423686 0)
(1.04305 0.430031 0)
(1.04821 0.437686 0)
(1.05057 0.446141 0)
(1.05 0.454923 0)
(1.0465 0.46363 0)
(1.04026 0.471835 0)
(1.03166 0.479113 0)
(1.02113 0.48518 0)
(1.00909 0.489922 0)
(0.995995 0.4933 0)
(0.982417 0.495288 0)
(0.968905 0.495921 0)
(0.955871 0.495339 0)
(0.943605 0.493738 0)
(0.932367 0.491293 0)
(0.922438 0.488128 0)
(0.914066 0.484349 0)
(0.907369 0.480096 0)
(0.9023 0.475549 0)
(0.898706 0.470889 0)
(0.896421 0.466245 0)
(0.895347 0.461672 0)
(0.895474 0.457164 0)
(0.896822 0.452691 0)
(0.899367 0.448249 0)
(0.902954 0.443902 0)
(0.90725 0.439798 0)
(0.911765 0.436157 0)
(0.915913 0.433229 0)
(0.919132 0.431231 0)
(0.92101 0.430285 0)
(0.921368 0.430381 0)
(0.920288 0.431372 0)
(0.918057 0.433018 0)
(0.91508 0.435038 0)
(0.911775 0.437169 0)
(0.908494 0.439208 0)
(0.905485 0.441024 0)
(0.902886 0.442553 0)
(0.900748 0.443783 0)
(0.899056 0.444738 0)
(0.897759 0.445456 0)
(0.896793 0.445982 0)
(0.896088 0.446358 0)
(0.895585 0.446623 0)
(0.89523 0.446806 0)
(0.894983 0.446932 0)
(0.867865 0.430333 0)
(0.867037 0.429204 0)
(0.867663 0.428969 0)
(0.869516 0.429551 0)
(0.872295 0.430817 0)
(0.875717 0.432613 0)
(0.879546 0.434777 0)
(0.883594 0.437162 0)
(0.887717 0.439628 0)
(0.891823 0.442025 0)
(0.89587 0.444203 0)
(0.899848 0.446026 0)
(0.903771 0.447381 0)
(0.907701 0.44814 0)
(0.911763 0.448185 0)
(0.916089 0.447479 0)
(0.92079 0.446064 0)
(0.926005 0.443961 0)
(0.931905 0.441208 0)
(0.938606 0.438021 0)
(0.94614 0.434757 0)
(0.954498 0.43171 0)
(0.963582 0.429107 0)
(0.973123 0.427281 0)
(0.982764 0.426613 0)
(0.992181 0.427317 0)
(1.00098 0.429436 0)
(1.00862 0.43296 0)
(1.01455 0.437786 0)
(1.01848 0.443637 0)
(1.02021 0.450162 0)
(1.01961 0.45704 0)
(1.01665 0.463938 0)
(1.01148 0.470463 0)
(1.00442 0.476271 0)
(0.995776 0.481162 0)
(0.985865 0.485036 0)
(0.975108 0.48781 0)
(0.963999 0.489417 0)
(0.95298 0.489877 0)
(0.942367 0.489307 0)
(0.932401 0.487854 0)
(0.923333 0.485636 0)
(0.915425 0.482738 0)
(0.908884 0.479255 0)
(0.903779 0.475327 0)
(0.900041 0.471124 0)
(0.89753 0.466808 0)
(0.89613 0.46248 0)
(0.895795 0.458173 0)
(0.896547 0.453872 0)
(0.89841 0.449561 0)
(0.901332 0.445264 0)
(0.905112 0.441085 0)
(0.909377 0.437213 0)
(0.913615 0.433894 0)
(0.917262 0.431381 0)
(0.919825 0.429865 0)
(0.920992 0.429423 0)
(0.920695 0.429986 0)
(0.919102 0.431362 0)
(0.91655 0.433282 0)
(0.913446 0.435462 0)
(0.910177 0.437657 0)
(0.907043 0.439688 0)
(0.904243 0.441452 0)
(0.901873 0.44291 0)
(0.899952 0.444066 0)
(0.89845 0.444953 0)
(0.897311 0.445613 0)
(0.896469 0.446093 0)
(0.895859 0.446435 0)
(0.895425 0.446675 0)
(0.89512 0.44684 0)
(0.894907 0.446953 0)
(0.869185 0.430566 0)
(0.867696 0.42897 0)
(0.867652 0.428272 0)
(0.868892 0.42844 0)
(0.871143 0.42937 0)
(0.874133 0.43091 0)
(0.877619 0.432898 0)
(0.881389 0.435192 0)
(0.885282 0.437655 0)
(0.889201 0.440142 0)
(0.893086 0.442513 0)
(0.896887 0.444648 0)
(0.900602 0.446433 0)
(0.904296 0.447749 0)
(0.908055 0.448503 0)
(0.911935 0.448671 0)
(0.916022 0.448232 0)
(0.92047 0.447155 0)
(0.925423 0.445525 0)
(0.930934 0.443561 0)
(0.937014 0.441462 0)
(0.943673 0.43937 0)
(0.950842 0.437528 0)
(0.95833 0.436285 0)
(0.965905 0.435899 0)
(0.973301 0.436465 0)
(0.980135 0.438053 0)
(0.985968 0.44073 0)
(0.990471 0.444422 0)
(0.993444 0.448907 0)
(0.994698 0.453945 0)
(0.994069 0.45931 0)
(0.991543 0.464711 0)
(0.98728 0.469814 0)
(0.981502 0.474364 0)
(0.974426 0.478222 0)
(0.966327 0.481284 0)
(0.957583 0.483437 0)
(0.948605 0.484604 0)
(0.939728 0.484807 0)
(0.931192 0.484144 0)
(0.923213 0.482715 0)
(0.916029 0.480593 0)
(0.909878 0.477837 0)
(0.904914 0.474541 0)
(0.901166 0.470845 0)
(0.898552 0.466908 0)
(0.896959 0.462863 0)
(0.896316 0.458785 0)
(0.896621 0.454686 0)
(0.897917 0.450548 0)
(0.900216 0.446374 0)
(0.903425 0.442223 0)
(0.907295 0.438243 0)
(0.911414 0.434657 0)
(0.915263 0.431729 0)
(0.918321 0.429698 0)
(0.92018 0.428718 0)
(0.920636 0.428805 0)
(0.919727 0.429833 0)
(0.917694 0.431565 0)
(0.914905 0.433717 0)
(0.911751 0.436011 0)
(0.908576 0.438228 0)
(0.905629 0.440219 0)
(0.903057 0.44191 0)
(0.900919 0.443282 0)
(0.899212 0.444355 0)
(0.897894 0.445168 0)
(0.896903 0.445769 0)
(0.896175 0.446203 0)
(0.895652 0.44651 0)
(0.895281 0.446725 0)
(0.895021 0.446874 0)
(0.89484 0.446975 0)
(0.870826 0.431088 0)
(0.868721 0.429029 0)
(0.867994 0.427831 0)
(0.868581 0.427532 0)
(0.870263 0.428058 0)
(0.872778 0.429269 0)
(0.875873 0.431015 0)
(0.879327 0.433154 0)
(0.882971 0.435542 0)
(0.886689 0.438034 0)
(0.890391 0.440512 0)
(0.894013 0.442866 0)
(0.897552 0.444969 0)
(0.90105 0.44671 0)
(0.90453 0.448027 0)
(0.908024 0.448876 0)
(0.911638 0.4492 0)
(0.915504 0.448994 0)
(0.919679 0.448356 0)
(0.924183 0.447409 0)
(0.929072 0.446232 0)
(0.934384 0.444965 0)
(0.940046 0.443869 0)
(0.945907 0.443193 0)
(0.951794 0.443064 0)
(0.957487 0.443577 0)
(0.962682 0.444862 0)
(0.967088 0.446979 0)
(0.970497 0.449839 0)
(0.972721 0.453281 0)
(0.973559 0.457164 0)
(0.97288 0.461315 0)
(0.970718 0.465482 0)
(0.967209 0.469405 0)
(0.962495 0.472906 0)
(0.956737 0.475872 0)
(0.950181 0.478187 0)
(0.943157 0.479732 0)
(0.93599 0.480446 0)
(0.928923 0.480357 0)
(0.92215 0.479538 0)
(0.91587 0.478052 0)
(0.910307 0.475938 0)
(0.90566 0.473246 0)
(0.902034 0.470069 0)
(0.899422 0.466547 0)
(0.897744 0.46282 0)
(0.89692 0.458994 0)
(0.896922 0.455113 0)
(0.897781 0.451176 0)
(0.899542 0.447172 0)
(0.902191 0.44313 0)
(0.905588 0.439149 0)
(0.909433 0.435418 0)
(0.913285 0.432188 0)
(0.916639 0.429726 0)
(0.919035 0.428244 0)
(0.920163 0.42784 0)
(0.919934 0.428465 0)
(0.918478 0.429935 0)
(0.916094 0.43198 0)
(0.913155 0.434311 0)
(0.910026 0.43667 0)
(0.906998 0.438866 0)
(0.904268 0.440787 0)
(0.901938 0.442384 0)
(0.900034 0.443658 0)
(0.898534 0.444642 0)
(0.897388 0.445381 0)
(0.896534 0.445921 0)
(0.895912 0.446309 0)
(0.895467 0.446583 0)
(0.895152 0.446774 0)
(0.894933 0.446905 0)
(0.894779 0.446996 0)
(0.872751 0.431899 0)
(0.870112 0.42941 0)
(0.868723 0.4277 0)
(0.868634 0.426889 0)
(0.869703 0.426944 0)
(0.871693 0.427756 0)
(0.874349 0.42919 0)
(0.877449 0.431102 0)
(0.880817 0.433339 0)
(0.884307 0.435767 0)
(0.887805 0.438273 0)
(0.891257 0.440744 0)
(0.894645 0.443053 0)
(0.897952 0.445107 0)
(0.901175 0.446852 0)
(0.904372 0.448227 0)
(0.907639 0.449169 0)
(0.911023 0.449687 0)
(0.914538 0.44984 0)
(0.918247 0.449673 0)
(0.922238 0.449253 0)
(0.926511 0.448735 0)
(0.930964 0.448317 0)
(0.935498 0.448126 0)
(0.94002 0.448246 0)
(0.944361 0.448814 0)
(0.94829 0.449961 0)
(0.951606 0.451694 0)
(0.95415 0.453926 0)
(0.955746 0.456581 0)
(0.956223 0.459581 0)
(0.955516 0.462768 0)
(0.953681 0.465931 0)
(0.950806 0.468891 0)
(0.946976 0.471525 0)
(0.942323 0.473724 0)
(0.937074 0.475367 0)
(0.931505 0.476349 0)
(0.925857 0.476633 0)
(0.92031 0.476249 0)
(0.915023 0.475246 0)
(0.910185 0.473656 0)
(0.905998 0.471499 0)
(0.902618 0.468826 0)
(0.900106 0.465733 0)
(0.898431 0.462351 0)
(0.897524 0.458798 0)
(0.897341 0.45515 0)
(0.897891 0.451428 0)
(0.899222 0.447623 0)
(0.901369 0.443742 0)
(0.904276 0.439846 0)
(0.907751 0.436078 0)
(0.911448 0.432663 0)
(0.914913 0.429872 0)
(0.917676 0.427956 0)
(0.919358 0.427082 0)
(0.919757 0.427277 0)
(0.918894 0.428426 0)
(0.916978 0.430296 0)
(0.914339 0.432597 0)
(0.911341 0.435048 0)
(0.908306 0.437418 0)
(0.90547 0.439555 0)
(0.90298 0.441377 0)
(0.900896 0.442863 0)
(0.899221 0.444032 0)
(0.897918 0.444923 0)
(0.896933 0.445585 0)
(0.896206 0.446067 0)
(0.895679 0.44641 0)
(0.895303 0.446652 0)
(0.895039 0.44682 0)
(0.894854 0.446936 0)
(0.894726 0.447015 0)
(0.874903 0.432977 0)
(0.87185 0.430131 0)
(0.869851 0.427924 0)
(0.869086 0.426567 0)
(0.869506 0.426096 0)
(0.87092 0.426445 0)
(0.873094 0.427494 0)
(0.875801 0.429097 0)
(0.878851 0.43111 0)
(0.882081 0.433405 0)
(0.885371 0.435861 0)
(0.888649 0.43835 0)
(0.891871 0.440768 0)
(0.894992 0.443044 0)
(0.898018 0.445104 0)
(0.900999 0.44686 0)
(0.903972 0.448268 0)
(0.906943 0.449345 0)
(0.909956 0.450111 0)
(0.913093 0.450574 0)
(0.916393 0.450802 0)
(0.919809 0.450926 0)
(0.923289 0.451056 0)
(0.926811 0.45126 0)
(0.930304 0.451642 0)
(0.933608 0.452337 0)
(0.936553 0.45342 0)
(0.939015 0.454872 0)
(0.940869 0.456654 0)
(0.941959 0.458742 0)
(0.94217 0.461071 0)
(0.941485 0.463496 0)
(0.939946 0.465857 0)
(0.937597 0.468037 0)
(0.934496 0.469955 0)
(0.930772 0.471502 0)
(0.926629 0.472557 0)
(0.922281 0.473038 0)
(0.917897 0.472935 0)
(0.913612 0.472277 0)
(0.90957 0.471088 0)
(0.905948 0.469373 0)
(0.902918 0.467152 0)
(0.900591 0.46448 0)
(0.898991 0.461456 0)
(0.898078 0.458196 0)
(0.897801 0.454793 0)
(0.89815 0.451294 0)
(0.899163 0.447705 0)
(0.900891 0.444019 0)
(0.903339 0.440268 0)
(0.906403 0.436554 0)
(0.909834 0.433064 0)
(0.913254 0.430053 0)
(0.916217 0.427792 0)
(0.918311 0.426496 0)
(0.919253 0.42627 0)
(0.918958 0.427065 0)
(0.917539 0.428702 0)
(0.915265 0.430911 0)
(0.912475 0.433397 0)
(0.909504 0.435902 0)
(0.906623 0.438233 0)
(0.904015 0.440273 0)
(0.901778 0.441975 0)
(0.899941 0.443338 0)
(0.898486 0.444396 0)
(0.897367 0.445193 0)
(0.896529 0.44578 0)
(0.895915 0.446204 0)
(0.895473 0.446505 0)
(0.89516 0.446716 0)
(0.89494 0.446863 0)
(0.894786 0.446964 0)
(0.894678 0.447034 0)
(0.877202 0.434278 0)
(0.873885 0.431188 0)
(0.87137 0.428533 0)
(0.86996 0.426621 0)
(0.869714 0.425585 0)
(0.870512 0.425411 0)
(0.872156 0.426 0)
(0.874425 0.427218 0)
(0.877114 0.428934 0)
(0.880052 0.431018 0)
(0.883112 0.433336 0)
(0.886201 0.435765 0)
(0.889245 0.438218 0)
(0.892204 0.440616 0)
(0.895074 0.442861 0)
(0.897868 0.444872 0)
(0.900585 0.446632 0)
(0.903242 0.448143 0)
(0.905898 0.449379 0)
(0.908601 0.450339 0)
(0.911337 0.451087 0)
(0.914086 0.45171 0)
(0.91686 0.452266 0)
(0.919641 0.452813 0)
(0.922339 0.453457 0)
(0.924832 0.454293 0)
(0.927026 0.455346 0)
(0.928843 0.456604 0)
(0.930171 0.458075 0)
(0.930886 0.459754 0)
(0.930929 0.461566 0)
(0.930305 0.463392 0)
(0.929031 0.465124 0)
(0.927121 0.466693 0)
(0.924632 0.468025 0)
(0.921694 0.469018 0)
(0.918478 0.46957 0)
(0.915138 0.46963 0)
(0.911792 0.4692 0)
(0.908552 0.468299 0)
(0.905552 0.466933 0)
(0.902952 0.465097 0)
(0.900884 0.462812 0)
(0.899419 0.460143 0)
(0.898553 0.457188 0)
(0.89825 0.454044 0)
(0.898486 0.450776 0)
(0.899279 0.447408 0)
(0.900681 0.443936 0)
(0.902728 0.440372 0)
(0.905383 0.436781 0)
(0.908487 0.433311 0)
(0.911744 0.430186 0)
(0.91476 0.427678 0)
(0.917122 0.426035 0)
(0.918496 0.42542 0)
(0.918709 0.425856 0)
(0.917783 0.427223 0)
(0.91591 0.429286 0)
(0.913391 0.431756 0)
(0.910553 0.434351 0)
(0.907688 0.436846 0)
(0.90501 0.43909 0)
(0.902653 0.441003 0)
(0.900675 0.442566 0)
(0.899077 0.443799 0)
(0.897828 0.444743 0)
(0.896879 0.445447 0)
(0.896174 0.445962 0)
(0.895661 0.446332 0)
(0.895294 0.446593 0)
(0.895035 0.446776 0)
(0.894853 0.446903 0)
(0.894726 0.446991 0)
(0.894637 0.447052 0)
(0.879544 0.435728 0)
(0.876146 0.432534 0)
(0.873252 0.429533 0)
(0.871262 0.427104 0)
(0.870357 0.42548 0)
(0.870515 0.424727 0)
(0.871585 0.424787 0)
(0.873363 0.425551 0)
(0.875646 0.426894 0)
(0.878257 0.428682 0)
(0.88106 0.430783 0)
(0.883936 0.433082 0)
(0.886799 0.435484 0)
(0.889604 0.437892 0)
(0.892329 0.440216 0)
(0.894951 0.442403 0)
(0.897463 0.444424 0)
(0.899897 0.446232 0)
(0.902291 0.447791 0)
(0.904649 0.449119 0)
(0.906959 0.450271 0)
(0.909237 0.451282 0)
(0.911501 0.452177 0)
(0.913716 0.45302 0)
(0.9158 0.453896 0)
(0.91769 0.454851 0)
(0.919344 0.455891 0)
(0.920694 0.45703 0)
(0.921638 0.458293 0)
(0.922097 0.459667 0)
(0.922049 0.461076 0)
(0.921504 0.462434 0)
(0.920463 0.463685 0)
(0.918933 0.464777 0)
(0.916972 0.465636 0)
(0.914702 0.466169 0)
(0.912257 0.466306 0)
(0.909744 0.466024 0)
(0.90725 0.465328 0)
(0.904874 0.464223 0)
(0.902742 0.462701 0)
(0.900988 0.460761 0)
(0.899709 0.458432 0)
(0.898937 0.455783 0)
(0.898656 0.452906 0)
(0.898842 0.449875 0)
(0.899496 0.446732 0)
(0.900658 0.443483 0)
(0.902376 0.440131 0)
(0.904658 0.436712 0)
(0.907416 0.433337 0)
(0.910435 0.430196 0)
(0.913384 0.427542 0)
(0.915879 0.425639 0)
(0.917563 0.424693 0)
(0.918202 0.424791 0)
(0.917733 0.425875 0)
(0.916273 0.427754 0)
(0.914065 0.430158 0)
(0.911417 0.432799 0)
(0.908626 0.435423 0)
(0.905931 0.437848 0)
(0.903493 0.439963 0)
(0.9014 0.441725 0)
(0.899676 0.443139 0)
(0.898306 0.444237 0)
(0.897248 0.445069 0)
(0.896451 0.445684 0)
(0.895865 0.44613 0)
(0.895441 0.446449 0)
(0.89514 0.446674 0)
(0.894927 0.44683 0)
(0.894778 0.446939 0)
(0.894674 0.447015 0)
(0.894601 0.447068 0)
(0.881829 0.437246 0)
(0.878526 0.434097 0)
(0.875425 0.430895 0)
(0.872971 0.428039 0)
(0.871456 0.42584 0)
(0.870966 0.424469 0)
(0.871424 0.423944 0)
(0.872666 0.424187 0)
(0.874499 0.425078 0)
(0.876745 0.426488 0)
(0.879252 0.428294 0)
(0.881888 0.430384 0)
(0.884558 0.432645 0)
(0.887202 0.434977 0)
(0.889776 0.437305 0)
(0.892249 0.439578 0)
(0.894614 0.441734 0)
(0.896884 0.443711 0)
(0.899068 0.445496 0)
(0.90116 0.447109 0)
(0.903171 0.448565 0)
(0.905122 0.449857 0)
(0.90701 0.451008 0)
(0.908797 0.452084 0)
(0.910441 0.453139 0)
(0.911917 0.454183 0)
(0.913198 0.455228 0)
(0.914214 0.456303 0)
(0.914888 0.457426 0)
(0.915188 0.458566 0)
(0.915115 0.459662 0)
(0.914666 0.460668 0)
(0.913833 0.461552 0)
(0.912632 0.462271 0)
(0.911132 0.462748 0)
(0.909433 0.462911 0)
(0.90763 0.462718 0)
(0.905796 0.462168 0)
(0.904 0.461263 0)
(0.902337 0.459996 0)
(0.900925 0.45835 0)
(0.899867 0.456333 0)
(0.899223 0.453986 0)
(0.899 0.451382 0)
(0.89918 0.448597 0)
(0.899757 0.445684 0)
(0.900754 0.442662 0)
(0.902218 0.439534 0)
(0.90418 0.436321 0)
(0.906604 0.433098 0)
(0.909345 0.430021 0)
(0.912142 0.427317 0)
(0.914653 0.425247 0)
(0.91653 0.424045 0)
(0.917497 0.423847 0)
(0.917428 0.424656 0)
(0.916363 0.426332 0)
(0.914487 0.428635 0)
(0.912071 0.431279 0)
(0.909406 0.433996 0)
(0.906743 0.436574 0)
(0.904268 0.438874 0)
(0.902093 0.440828 0)
(0.900266 0.442423 0)
(0.898787 0.443681 0)
(0.897627 0.444647 0)
(0.896742 0.44537 0)
(0.896082 0.445901 0)
(0.8956 0.446283 0)
(0.895254 0.446555 0)
(0.895008 0.446746 0)
(0.894835 0.44688 0)
(0.894715 0.446973 0)
(0.89463 0.447037 0)
(0.89457 0.447083 0)
(0.883958 0.438739 0)
(0.880903 0.435786 0)
(0.877789 0.432548 0)
(0.875033 0.429396 0)
(0.872999 0.426701 0)
(0.871887 0.424717 0)
(0.871718 0.423558 0)
(0.872385 0.423209 0)
(0.873723 0.423577 0)
(0.875558 0.424535 0)
(0.877726 0.425968 0)
(0.880089 0.427762 0)
(0.882544 0.429804 0)
(0.885014 0.431986 0)
(0.887441 0.434235 0)
(0.88978 0.436486 0)
(0.892018 0.438671 0)
(0.894152 0.440741 0)
(0.896173 0.442679 0)
(0.898081 0.444478 0)
(0.899891 0.446118 0)
(0.901611 0.447595 0)
(0.903226 0.44894 0)
(0.904714 0.450193 0)
(0.906066 0.451373 0)
(0.907271 0.452483 0)
(0.90829 0.453543 0)
(0.909072 0.454581 0)
(0.909582 0.455596 0)
(0.909814 0.456551 0)
(0.909765 0.457411 0)
(0.909421 0.458158 0)
(0.908779 0.458768 0)
(0.907874 0.459191 0)
(0.906776 0.459366 0)
(0.905562 0.459243 0)
(0.904291 0.458807 0)
(0.903015 0.458058 0)
(0.901798 0.456994 0)
(0.900731 0.4556 0)
(0.899912 0.453865 0)
(0.899416 0.451808 0)
(0.899272 0.449479 0)
(0.899477 0.446947 0)
(0.900019 0.44427 0)
(0.900911 0.441479 0)
(0.902188 0.438583 0)
(0.903889 0.435594 0)
(0.906011 0.432565 0)
(0.908466 0.429616 0)
(0.911058 0.426946 0)
(0.913498 0.424801 0)
(0.91546 0.423426 0)
(0.916656 0.422994 0)
(0.916912 0.423558 0)
(0.916204 0.425032 0)
(0.914658 0.42721 0)
(0.912501 0.429824 0)
(0.910004 0.432597 0)
(0.90742 0.435298 0)
(0.90495 0.437761 0)
(0.902729 0.439894 0)
(0.900825 0.441665 0)
(0.899256 0.443083 0)
(0.898006 0.444186 0)
(0.897038 0.445023 0)
(0.896307 0.445644 0)
(0.895766 0.446096 0)
(0.895374 0.44642 0)
(0.895094 0.44665 0)
(0.894896 0.446811 0)
(0.894757 0.446924 0)
(0.89466 0.447002 0)
(0.894592 0.447058 0)
(0.894543 0.447096 0)
(0.885864 0.440132 0)
(0.883162 0.437485 0)
(0.880213 0.434385 0)
(0.877346 0.431115 0)
(0.874939 0.428052 0)
(0.873283 0.425518 0)
(0.872497 0.423716 0)
(0.872563 0.422719 0)
(0.873366 0.422488 0)
(0.874741 0.422924 0)
(0.876525 0.42391 0)
(0.878579 0.425326 0)
(0.880793 0.427061 0)
(0.883071 0.429016 0)
(0.885335 0.431107 0)
(0.887541 0.433254 0)
(0.889664 0.435389 0)
(0.891685 0.437472 0)
(0.893585 0.439469 0)
(0.895364 0.441346 0)
(0.897034 0.44308 0)
(0.898593 0.444678 0)
(0.900027 0.44616 0)
(0.901325 0.447531 0)
(0.902492 0.448786 0)
(0.903519 0.449937 0)
(0.90437 0.451008 0)
(0.905015 0.452014 0)
(0.905445 0.45294 0)
(0.905664 0.453757 0)
(0.905668 0.454448 0)
(0.905443 0.455003 0)
(0.904996 0.455401 0)
(0.904368 0.455594 0)
(0.903622 0.455538 0)
(0.902811 0.455206 0)
(0.901976 0.454597 0)
(0.901159 0.453708 0)
(0.900424 0.45253 0)
(0.899855 0.451048 0)
(0.899524 0.449263 0)
(0.899477 0.447207 0)
(0.899724 0.444933 0)
(0.90026 0.442499 0)
(0.901087 0.439943 0)
(0.90223 0.437284 0)
(0.903726 0.434532 0)
(0.90559 0.431725 0)
(0.907774 0.428955 0)
(0.910136 0.426389 0)
(0.912442 0.424254 0)
(0.9144 0.422792 0)
(0.915731 0.422198 0)
(0.916231 0.422565 0)
(0.915828 0.423855 0)
(0.914591 0.425902 0)
(0.912702 0.428461 0)
(0.910402 0.431258 0)
(0.907937 0.43405 0)
(0.905514 0.436651 0)
(0.903284 0.438944 0)
(0.901333 0.44088 0)
(0.899697 0.442454 0)
(0.898371 0.443695 0)
(0.89733 0.444648 0)
(0.896533 0.445363 0)
(0.895937 0.445889 0)
(0.895499 0.44627 0)
(0.895184 0.446542 0)
(0.89496 0.446734 0)
(0.894803 0.446869 0)
(0.894692 0.446963 0)
(0.894614 0.447029 0)
(0.894559 0.447076 0)
(0.89452 0.447109 0)
(0.887516 0.441385 0)
(0.885208 0.439086 0)
(0.882557 0.436269 0)
(0.879777 0.433084 0)
(0.877186 0.429833 0)
(0.875109 0.426871 0)
(0.873771 0.424481 0)
(0.873241 0.42282 0)
(0.873472 0.421928 0)
(0.874341 0.421763 0)
(0.875702 0.422223 0)
(0.877413 0.423183 0)
(0.879345 0.424536 0)
(0.881392 0.426186 0)
(0.883477 0.428037 0)
(0.885548 0.430001 0)
(0.887559 0.432011 0)
(0.889475 0.434021 0)
(0.891278 0.435987 0)
(0.892968 0.437866 0)
(0.894543 0.439635 0)
(0.895993 0.441293 0)
(0.897311 0.442839 0)
(0.898501 0.44426 0)
(0.899562 0.44555 0)
(0.900482 0.446725 0)
(0.901239 0.4478 0)
(0.901823 0.44877 0)
(0.902239 0.449616 0)
(0.902491 0.450324 0)
(0.90257 0.45089 0)
(0.902472 0.451305 0)
(0.902217 0.451542 0)
(0.901847 0.451562 0)
(0.901409 0.451337 0)
(0.900937 0.450862 0)
(0.900463 0.450136 0)
(0.90003 0.449156 0)
(0.8997 0.447905 0)
(0.899541 0.446377 0)
(0.899603 0.444586 0)
(0.899908 0.442572 0)
(0.900457 0.440386 0)
(0.90125 0.438072 0)
(0.902302 0.435654 0)
(0.903643 0.433147 0)
(0.905293 0.430579 0)
(0.907232 0.428024 0)
(0.909359 0.425622 0)
(0.911492 0.423573 0)
(0.913381 0.422107 0)
(0.914763 0.421428 0)
(0.915428 0.421658 0)
(0.915269 0.422798 0)
(0.914308 0.424723 0)
(0.91268 0.427214 0)
(0.910593 0.43001 0)
(0.908277 0.432864 0)
(0.905939 0.435573 0)
(0.903736 0.438005 0)
(0.90177 0.440089 0)
(0.900092 0.441809 0)
(0.89871 0.443183 0)
(0.897608 0.444251 0)
(0.896753 0.445062 0)
(0.896106 0.445665 0)
(0.895626 0.446106 0)
(0.895276 0.446423 0)
(0.895026 0.446648 0)
(0.894849 0.446808 0)
(0.894724 0.446919 0)
(0.894637 0.446998 0)
(0.894576 0.447053 0)
(0.894532 0.447092 0)
(0.8945 0.447121 0)
(0.888919 0.442487 0)
(0.886999 0.440536 0)
(0.884709 0.438074 0)
(0.882163 0.435141 0)
(0.879591 0.43192 0)
(0.877282 0.428719 0)
(0.875505 0.425858 0)
(0.874427 0.423579 0)
(0.874085 0.422012 0)
(0.874416 0.421179 0)
(0.875307 0.421025 0)
(0.876622 0.421451 0)
(0.878232 0.422347 0)
(0.880023 0.42361 0)
(0.881907 0.425138 0)
(0.883818 0.426846 0)
(0.8857 0.428661 0)
(0.887515 0.430525 0)
(0.88924 0.432385 0)
(0.890862 0.434199 0)
(0.892368 0.435941 0)
(0.893748 0.43759 0)
(0.895005 0.43913 0)
(0.896139 0.440547 0)
(0.897145 0.441841 0)
(0.898012 0.443019 0)
(0.898736 0.444078 0)
(0.899321 0.445 0)
(0.899771 0.445774 0)
(0.900081 0.446399 0)
(0.900248 0.446874 0)
(0.900285 0.447184 0)
(0.900221 0.447299 0)
(0.90009 0.447193 0)
(0.899921 0.446856 0)
(0.899737 0.446289 0)
(0.899567 0.445492 0)
(0.899458 0.444456 0)
(0.899465 0.44317 0)
(0.899638 0.441638 0)
(0.900009 0.439886 0)
(0.900585 0.437955 0)
(0.901365 0.435888 0)
(0.902359 0.433716 0)
(0.903587 0.43146 0)
(0.905067 0.429146 0)
(0.906793 0.426835 0)
(0.908698 0.424641 0)
(0.91064 0.422742 0)
(0.912412 0.421348 0)
(0.913781 0.420663 0)
(0.914538 0.420823 0)
(0.914559 0.421858 0)
(0.913829 0.423681 0)
(0.912444 0.426103 0)
(0.910576 0.42888 0)
(0.908431 0.431768 0)
(0.906208 0.434558 0)
(0.904066 0.437101 0)
(0.902118 0.439314 0)
(0.900425 0.441165 0)
(0.899009 0.442663 0)
(0.897863 0.443842 0)
(0.896961 0.444747 0)
(0.896269 0.445427 0)
(0.89575 0.44593 0)
(0.895368 0.446294 0)
(0.895092 0.446556 0)
(0.894896 0.446741 0)
(0.894757 0.446872 0)
(0.89466 0.446963 0)
(0.894592 0.447028 0)
(0.894543 0.447074 0)
(0.894509 0.447107 0)
(0.894484 0.44713 0)
(0.890081 0.44343 0)
(0.88852 0.441815 0)
(0.886605 0.439719 0)
(0.884382 0.437134 0)
(0.88199 0.434136 0)
(0.879646 0.430922 0)
(0.877609 0.427784 0)
(0.876092 0.425011 0)
(0.87522 0.422813 0)
(0.875006 0.421294 0)
(0.87539 0.420463 0)
(0.876263 0.42027 0)
(0.877504 0.420622 0)
(0.878999 0.421413 0)
(0.880649 0.42254 0)
(0.882376 0.423918 0)
(0.884115 0.425467 0)
(0.885821 0.427114 0)
(0.887465 0.428799 0)
(0.889024 0.430481 0)
(0.890479 0.432128 0)
(0.89182 0.433709 0)
(0.893045 0.435195 0)
(0.894156 0.43657 0)
(0.895146 0.437833 0)
(0.896006 0.438978 0)
(0.89674 0.439992 0)
(0.897356 0.44086 0)
(0.897862 0.441575 0)
(0.898252 0.442136 0)
(0.89853 0.442537 0)
(0.898713 0.44276 0)
(0.89883 0.442783 0)
(0.898907 0.442593 0)
(0.898967 0.442189 0)
(0.89903 0.441573 0)
(0.899125 0.44074 0)
(0.899295 0.439682 0)
(0.899585 0.438399 0)
(0.900026 0.436905 0)
(0.900635 0.435232 0)
(0.901415 0.43342 0)
(0.90237 0.431502 0)
(0.903513 0.429504 0)
(0.90486 0.427455 0)
(0.906409 0.425408 0)
(0.908112 0.42346 0)
(0.909863 0.421764 0)
(0.91149 0.420512 0)
(0.912794 0.419893 0)
(0.913583 0.42005 0)
(0.913725 0.421035 0)
(0.913181 0.422787 0)
(0.912013 0.425146 0)
(0.910357 0.427893 0)
(0.908396 0.430792 0)
(0.906312 0.433634 0)
(0.904261 0.436262 0)
(0.902361 0.43858 0)
(0.900681 0.440543 0)
(0.899254 0.442152 0)
(0.898081 0.443433 0)
(0.897145 0.444428 0)
(0.896418 0.445184 0)
(0.895866 0.445747 0)
(0.895456 0.446159 0)
(0.895156 0.446457 0)
(0.894941 0.44667 0)
(0.894789 0.44682 0)
(0.894682 0.446927 0)
(0.894607 0.447002 0)
(0.894554 0.447055 0)
(0.894517 0.447092 0)
(0.894489 0.44712 0)
(0.894469 0.44714 0)