/*--------------------------------*- C++ -*----------------------------------*\
  =========                 |
  \\      /  F ield         | OpenFOAM: The Open Source CFD Toolbox
   \\    /   O peration     | Website:  https://openfoam.org
    \\  /    A nd           | Version:  6
     \\/     M anipulation  |
\*---------------------------------------------------------------------------*/
FoamFile
{
    version     2.0;
    format      ascii;
    class       volScalarField;
    location    "1.99";
    object      p;
}
// * * * * * * * * * * * * * * * * * * * * * * * * * * * * * * * * * * * * * //

dimensions      [0 2 -2 0 0 0 0];

internalField   nonuniform List<scalar> 
800
(
63.7833
-6714.12
2892.56
-587.698
-1033.4
-533.151
-819.992
-1445.57
-1660.37
-1808.96
-2081.74
-2183.64
-1957.58
-1563.63
-1626.85
-1370.07
-554.562
-2351.29
-3152.89
1396.11
592.459
-6117.81
2034.42
-787.588
-1075.99
-576.984
-840.035
-1547.56
-1713.22
-1942.28
-2037.62
-2284.09
-1934.15
-1688.46
-1625.89
-1485.7
-533.912
-2414.58
-3222.79
1119.79
204.746
-5859.69
1551.18
-763.473
-968.673
-367.614
-853.453
-1405.66
-1690.84
-1808.81
-2086.21
-2192.99
-1934.17
-1615.55
-1629.21
-1436.21
-551.059
-2410.66
-3263.52
1054.24
41.189
-5551.78
831.247
-778.119
-996.844
-350.19
-911.609
-1404.92
-1696.34
-1861.32
-2181.03
-2182.51
-1918.9
-1650.35
-1627.66
-1467.14
-600.782
-2413.13
-3264.69
1085.12
-137.621
-5369.31
460.288
-804.087
-976.934
-453.335
-933.699
-1441.07
-1684.18
-1901.82
-2204.47
-2145.68
-1940.13
-1668.34
-1617.22
-1484.8
-649.479
-2389.13
-3319.92
1039.19
11.2826
-5197.17
-34.1208
-805.856
-976.561
-478.663
-1013.51
-1464.28
-1685
-1902.91
-2243.77
-2146.97
-1973.03
-1680.03
-1609.82
-1504.37
-732.027
-2376.52
-3339.96
1016.53
-260.199
-5160.13
-61.441
-733.799
-980.521
-589.531
-1097.79
-1501.61
-1680.8
-1925.59
-2224.53
-2158.84
-2013.94
-1730.53
-1603.39
-1524.16
-789.033
-2361.39
-3395.19
951.762
-123.952
-5116.88
-376.939
-721.857
-970.469
-625.211
-1121.97
-1503.31
-1682.02
-1935.24
-2226.99
-2155.12
-2055.27
-1710.87
-1591.61
-1539.61
-882.111
-2354.68
-3416.14
946.122
-437.728
-5168.02
-381.776
-702.833
-1016.64
-687.616
-1121.7
-1520.99
-1691.31
-1954
-2221.48
-2178.18
-2077.83
-1737.52
-1602.74
-1568.3
-947.813
-2344.59
-3462.99
888.048
-364.386
-5180.28
-667.059
-706.443
-1031.15
-717.178
-1158.08
-1514.56
-1701.49
-1931.89
-2251.76
-2172.85
-2112.85
-1741.69
-1586.27
-1578.52
-1061.41
-2339.41
-3462.61
871.589
-672.381
-5249.98
-744.662
-726.663
-1067.85
-784.824
-1166.39
-1536.38
-1718.57
-1960.98
-2264.1
-2215.93
-2133.23
-1757.61
-1586.89
-1595.6
-1097.25
-2334.01
-3504.79
824.534
-744.887
-5265.42
-1026.05
-720.524
-1066.71
-809.516
-1210.52
-1538.39
-1748.13
-1952.27
-2285.57
-2204.97
-2197.58
-1793.34
-1577.77
-1578.72
-1192.04
-2334.98
-3477.29
789.62
-949.138
-5315.5
-1166.1
-772.745
-1100.62
-890.796
-1216.56
-1555.5
-1762.25
-1978.21
-2290.95
-2246.6
-2200.94
-1792.88
-1580.9
-1564.06
-1203.26
-2339.85
-3516.57
762.569
-1054.05
-5348.53
-1408.26
-762.356
-1104.24
-903.399
-1247.73
-1564.91
-1807.73
-1997.3
-2267.27
-2235.05
-2244.01
-1823.29
-1595.57
-1527.58
-1262.98
-2350.19
-3464.43
707.439
-1106.07
-5369.93
-1563.77
-811.442
-1117.15
-984.529
-1264.02
-1571.72
-1823.97
-2023.04
-2246.88
-2257.95
-2205.38
-1817.2
-1605.4
-1493.7
-1259.67
-2369.32
-3494.63
700.885
-1025.77
-5419
-1735.89
-808.336
-1132.3
-978.677
-1285.41
-1582.84
-1872.49
-2064
-2186.91
-2264.79
-2218.26
-1821.9
-1672.33
-1439.83
-1282.66
-2389.38
-3427.27
635.298
-1008.41
-5386.9
-1875.51
-826.424
-1128.06
-1038.46
-1316.5
-1590.18
-1891.11
-2067.38
-2142.04
-2272.19
-2177.16
-1821.4
-1664.19
-1399.32
-1298.36
-2423.15
-3444
646.655
-778.633
-5325.43
-1993.66
-862.683
-1154.54
-1011.63
-1335.35
-1605.16
-1898.6
-2096.28
-2095.57
-2292.34
-2193.77
-1820.38
-1674.83
-1385.69
-1363.46
-2454.94
-3364.65
583.953
-745.5
-5196.57
-2097.45
-851.514
-1147.16
-1036.25
-1369.01
-1606.98
-1930.63
-2083.04
-2025.62
-2309.84
-2171.87
-1823.41
-1642.3
-1379.57
-1372.58
-2505.58
-3363.23
600.679
-608.914
-4927.37
-2171.82
-946.04
-1159
-990.456
-1383.51
-1630.75
-1913.57
-2087.52
-1998.88
-2308.76
-2184.69
-1808.36
-1638.7
-1372.4
-1439.45
-2548.2
-3269.83
544.965
-382.36
-4685.09
-2226.36
-919.104
-1147.65
-983.475
-1429.13
-1623
-1912.9
-2075.36
-1936.38
-2343.4
-2163.65
-1800.3
-1600.83
-1362.73
-1435.68
-2613.19
-3248
551.258
-145.222
-4391.35
-2269.41
-1027.22
-1117.13
-937.284
-1435.42
-1635.85
-1908.7
-2068.84
-1952.09
-2288.38
-2163.71
-1771.74
-1599.48
-1355.91
-1506.02
-2659.26
-3140.25
496.56
336.221
-3924.53
-2371.69
-1038.3
-1091.93
-906.44
-1472.89
-1635.04
-1895.5
-2066.46
-1920.65
-2316.56
-2156.43
-1779.07
-1543.15
-1327.36
-1499.78
-2739.23
-3098.91
484.312
690.679
-3432.35
-2421.55
-1150.52
-1035.78
-870.57
-1469.2
-1635.73
-1894.61
-2061.95
-1978.93
-2206
-2156.73
-1751.05
-1538.02
-1320.62
-1577.33
-2773.68
-2978.8
429.035
981
-2432.99
-2303.89
-1216.01
-988.803
-833.279
-1487.95
-1636.82
-1884.74
-2061.23
-1976.37
-2230.42
-2149.59
-1772.54
-1499.48
-1273.7
-1590.25
-2844.33
-2921.87
410.677
962.292
-2422.52
-2337.84
-1216.99
-949.376
-806.118
-1473.29
-1631.69
-1883.16
-2059.53
-2061.48
-2114.33
-2153.06
-1737.46
-1480.59
-1270.58
-1673.58
-2864.24
-2795.75
371.428
777.832
-2267.17
-2184.58
-1114.31
-897.513
-768.309
-1473.37
-1629.21
-1871.93
-2057.61
-2077.59
-2130.3
-2123.71
-1739.5
-1464.7
-1228.85
-1739.95
-2905.14
-2724.53
381.537
796.911
-2303.89
-2108.07
-1011.43
-896.484
-740.395
-1449.31
-1619.62
-1873.27
-2047.3
-2178.91
-2044.12
-2111.15
-1708.8
-1424.59
-1227.2
-1846.6
-2906.42
-2586.32
389.116
738.919
-2115.98
-2141.21
-957.907
-863.284
-712.935
-1434.93
-1614.19
-1859.38
-2040.77
-2210.2
-2037.86
-2072.67
-1697.4
-1399.44
-1198.52
-1981.01
-2904.15
-2505.05
461.544
745.176
-1960.83
-2021.68
-939.162
-866.435
-683.215
-1407.97
-1604.38
-1861.23
-2021.85
-2321.91
-1982.91
-2035.65
-1677.41
-1356.64
-1184.77
-2099.63
-2885.94
-2366.08
528.633
633.824
-1863.07
-1840.03
-1216.61
-862.483
-681.935
-1384.34
-1597.74
-1842.17
-2003.23
-2350.03
-1955.94
-1998.14
-1670.48
-1314.5
-1160.63
-2290.6
-2858.09
-2277.63
651.553
562.535
-1926.39
-1835.23
-1496.7
-929.586
-705.06
-1358.95
-1592.92
-1836.36
-1969.56
-2434.78
-1928.58
-1958.52
-1650.72
-1282.05
-1126.17
-2468.71
-2746.49
-2121.72
734.517
465.243
-1862.08
-1824.31
-1474.53
-984.235
-709.486
-1328.18
-1584.84
-1808.74
-1940.04
-2440.14
-1888.74
-1914.47
-1660.51
-1247.1
-1208.83
-2591.03
-2698.52
-2007.32
842.837
383.73
-1828.29
-1748.75
-1499.11
-970.295
-694.371
-1301.29
-1581.73
-1784.61
-1913.23
-2485.93
-1877.49
-1895.04
-1643.24
-1267.51
-1285.97
-2700.55
-2611.24
-1807.48
883.115
282.954
-1683.87
-1654.31
-1462.79
-1035.76
-653.823
-1265.57
-1575.58
-1760.25
-1896.61
-2483.53
-1845.56
-1853.56
-1650.26
-1266.34
-1393.64
-2747.02
-2533.79
-1688.36
944.379
260.728
-1681.91
-1597.59
-1427.16
-993.597
-635.759
-1257.31
-1570.06
-1735.56
-1878.93
-2482.26
-1828.3
-1837.5
-1638.3
-1264.36
-1496.09
-2879.79
-2520.92
-1408.31
950.319
192.716
-1583.56
-1586.26
-1382.2
-971.01
-599.774
-1238.7
-1579.55
-1729.27
-1900.05
-2489.28
-1804.63
-1832.24
-1635.32
-1266.89
-1518.85
-3023.05
-2500.41
-1267.32
972.751
270.973
-1525.07
-1536.67
-1350.96
-976.698
-579.279
-1246.79
-1563.91
-1725.87
-1946.9
-2539.05
-1772.94
-1831.74
-1627.5
-1275.42
-1572.15
-3114.31
-2535.5
-1170.59
984.526
371.669
-1468.74
-1478.04
-1409.57
-962.068
-564.929
-1258.93
-1579.02
-1695.03
-1948.14
-2534.61
-1762.3
-1844.14
-1614.3
-1276.63
-1628.33
-3095.6
-2437.06
-1082.19
940.463
423.98
-1320.48
-1425.24
-1486.61
-928.095
-589.999
-1254.17
-1569.51
-1657.19
-1816.16
-2500.93
-1794.41
-1806.9
-1638.62
-1267.16
-1692.86
-3092.15
-2481.06
-882.589
891.103
)
;

boundaryField
{
    piston
    {
        type            zeroGradient;
    }
    outlet
    {
        type            zeroGradient;
    }
    walls
    {
        type            zeroGradient;
    }
    front
    {
        type            empty;
    }
    back
    {
        type            empty;
    }
}


// ************************************************************************* //
