/*--------------------------------*- C++ -*----------------------------------*\
  =========                 |
  \\      /  F ield         | OpenFOAM: The Open Source CFD Toolbox
   \\    /   O peration     | Website:  https://openfoam.org
    \\  /    A nd           | Version:  6
     \\/     M anipulation  |
\*---------------------------------------------------------------------------*/
FoamFile
{
    version     2.0;
    format      ascii;
    class       volVectorField;
    location    "1.99";
    object      U;
}
// * * * * * * * * * * * * * * * * * * * * * * * * * * * * * * * * * * * * * //

dimensions      [0 1 -1 0 0 0 0];

internalField   nonuniform List<vector> 
800
(
(-505.438 182.317 0)
(223.577 -106.535 0)
(69.4248 -65.1242 0)
(150.464 -21.9621 0)
(117.586 -58.2948 0)
(156.608 -20.8674 0)
(116.131 -58.229 0)
(167.1 -16.8659 0)
(126.625 -57.4858 0)
(175.218 -13.3958 0)
(114.749 -66.6431 0)
(198.619 -0.194283 0)
(117.079 -58.1393 0)
(201.22 -8.65482 0)
(116.48 -47.5298 0)
(203.992 -9.50229 0)
(116.422 -35.3123 0)
(203.602 -9.19234 0)
(124.234 -27.0494 0)
(217.766 -8.99555 0)
(-12.459 -107.164 0)
(-200.535 79.5428 0)
(72.4784 19.8194 0)
(-78.5837 -3.07942 0)
(190.135 42.317 0)
(-118.137 5.55253 0)
(-12.5829 55.8473 0)
(-134.905 0.0631813 0)
(-55.9731 51.364 0)
(-136.314 -6.01384 0)
(-20.2268 74.7454 0)
(-164.625 -19.3672 0)
(-45.1633 61.017 0)
(-123.869 -15.5316 0)
(-54.9413 47.7971 0)
(-104.391 -10.8427 0)
(-36.67 38.1952 0)
(-118.2 -1.94354 0)
(-41.8208 22.5215 0)
(98.2756 4.27473 0)
(-259.626 94.948 0)
(201.127 -127.728 0)
(-69.7162 -39.1355 0)
(80.5908 23.9087 0)
(-144.935 -15.6728 0)
(80.2615 37.7527 0)
(-66.4551 -47.3676 0)
(41.7004 35.3544 0)
(-57.7894 -44.1903 0)
(27.1908 37.4176 0)
(-194.104 -78.5125 0)
(43.5705 43.0477 0)
(-131.83 -67.2204 0)
(11.8311 47.9982 0)
(-117.908 -50.3978 0)
(19.8716 40.7662 0)
(-64.3238 -40.9433 0)
(-27.1796 9.97325 0)
(-96.7126 -28.2876 0)
(189.696 21.9666 0)
(33.0939 -57.971 0)
(-186.24 79.2125 0)
(70.8633 -5.86079 0)
(-79.5707 -13.7556 0)
(123.926 3.9603 0)
(-107.757 -31.1671 0)
(1.00859 41.4482 0)
(-170.625 -45.544 0)
(16.307 38.9682 0)
(-164.455 -48.573 0)
(57.2538 72.8041 0)
(71.0044 -55.7843 0)
(8.15649 70.835 0)
(-166.466 -65.215 0)
(-9.4824 47.9536 0)
(-150.355 -54.8727 0)
(7.14725 32.6204 0)
(54.7084 -11.7295 0)
(47.1516 15.2173 0)
(51.4313 8.55345 0)
(-219.616 92.531 0)
(195.568 -128.339 0)
(-80.4323 -37.3422 0)
(110.887 20.8439 0)
(-143.77 11.8646 0)
(115.578 40.2226 0)
(-108.431 -25.4106 0)
(8.90176 46.6373 0)
(-114.297 -36.9609 0)
(16.591 55.2386 0)
(-74.2305 -85.0097 0)
(67.7524 65.7006 0)
(-154.938 -58.9037 0)
(49.9313 65.4974 0)
(-140.902 -50.1933 0)
(25.417 57.0481 0)
(-74.6086 -50.443 0)
(-43.3506 17.5932 0)
(-94.3031 -34.4952 0)
(154.564 16.5659 0)
(51.8933 -35.4641 0)
(-181.925 74.955 0)
(76.5 -21.3186 0)
(-91.8515 -4.88852 0)
(151.16 -3.45812 0)
(-91.917 -18.7146 0)
(32.2067 48.0266 0)
(-150.972 -40.7133 0)
(21.7661 34.9 0)
(-136.257 -49.0327 0)
(75.3744 63.4212 0)
(-84.0447 -62.832 0)
(-9.11375 73.8239 0)
(-137.242 -62.801 0)
(17.2262 47.635 0)
(-127.837 -59.2941 0)
(19.6032 31.329 0)
(28.2177 -16.8937 0)
(50.4859 11.2073 0)
(26.1919 16.2822 0)
(-206.778 73.4543 0)
(182.082 -128.708 0)
(-91.003 -30.2555 0)
(53.3817 24.3111 0)
(-105.407 13.4259 0)
(77.7966 38.6749 0)
(-146.884 -18.0672 0)
(90.0764 42.8259 0)
(-114.778 -36.3261 0)
(60.844 47.8089 0)
(-99.7935 -85.4156 0)
(71.1454 72.8357 0)
(-158.013 -55.4119 0)
(40.6245 49.8295 0)
(-111.002 -51.7187 0)
(17.2623 57.1789 0)
(-57.4775 -57.5618 0)
(-15.1595 19.9909 0)
(-87.561 -37.7107 0)
(135.917 15.3172 0)
(73.1281 -5.39132 0)
(-184.476 71.9712 0)
(93.886 -33.6435 0)
(-92.1353 -13.641 0)
(132.052 1.30254 0)
(-126.349 -6.8494 0)
(49.8254 49.4646 0)
(-98.0651 -35.4791 0)
(22.6098 35.6789 0)
(-131.182 -49.0635 0)
(85.6259 61.1963 0)
(-115.713 -55.176 0)
(6.71948 75.3808 0)
(-132.934 -46.326 0)
(4.51923 52.5302 0)
(-94.1242 -58.1459 0)
(19.6653 27.9748 0)
(9.06011 -18.7338 0)
(60.6242 7.57395 0)
(5.52195 23.8885 0)
(-203.833 55.6022 0)
(164.515 -128.941 0)
(-98.5991 -25.7098 0)
(55.8979 26.3948 0)
(-128.768 8.31112 0)
(58.9894 41.9985 0)
(-96.43 -19.7797 0)
(76.4356 39.1645 0)
(-115.449 -32.9734 0)
(56.9927 38.5903 0)
(-108.031 -87.3552 0)
(85.6002 72.5881 0)
(-126.875 -52.332 0)
(34.4425 34.451 0)
(-93.5009 -63.3038 0)
(7.2945 50.9867 0)
(-43.1144 -61.4187 0)
(9.17677 21.7648 0)
(-79.1332 -39.9173 0)
(124.097 13.1136 0)
(96.7339 21.06 0)
(-186.931 69.2261 0)
(106.4 -41.9046 0)
(-80.5072 -11.6159 0)
(108.017 9.78709 0)
(-127.58 -7.69225 0)
(69.4154 43.0346 0)
(-108.417 -26.8087 0)
(48.5558 37.9816 0)
(-143.549 -38.3084 0)
(92.9513 58.7593 0)
(-123.952 -47.8979 0)
(19.0954 76.618 0)
(-99.4778 -39.8498 0)
(43.758 65.2724 0)
(-94.8462 -52.6834 0)
(30.2111 21.8287 0)
(11.0943 -20.0021 0)
(65.8137 6.49072 0)
(-15.1892 29.6801 0)
(-197.233 43.8158 0)
(154.154 -128.105 0)
(-97.8651 -27.8013 0)
(77.9389 24.7535 0)
(-135.525 10.2823 0)
(49.703 40.9317 0)
(-82.6858 -16.911 0)
(56.4066 36.0143 0)
(-92.8438 -29.3268 0)
(40.8341 23.4316 0)
(-118.449 -89.9829 0)
(94.8268 69.2456 0)
(-100.089 -50.7787 0)
(-2.57536 29.9608 0)
(-84.645 -73.6546 0)
(38.0289 42.0891 0)
(-37.7732 -62.9986 0)
(24.1881 22.0666 0)
(-68 -42.1311 0)
(114.482 12.5776 0)
(108.962 36.9539 0)
(-182.651 65.9441 0)
(109.99 -46.8131 0)
(-85.3492 -1.85273 0)
(102.776 18.4086 0)
(-117.062 -9.14018 0)
(47.7318 37.2985 0)
(-106.034 -20.9237 0)
(49.2767 37.3001 0)
(-103.936 -23.8714 0)
(94.0568 56.6942 0)
(-131.779 -40.3655 0)
(22.9378 77.8049 0)
(-73.4059 -45.7863 0)
(56.1953 68.0928 0)
(-54.5653 -39.9735 0)
(42.3685 15.8655 0)
(20.2986 -20.4594 0)
(66.3051 9.09897 0)
(-34.596 32.7303 0)
(-175.101 42.5849 0)
(153.251 -125.866 0)
(-95.4161 -33.6163 0)
(97.8956 17.0308 0)
(-130.216 10.8714 0)
(37.1264 39.8523 0)
(-74.9911 -12.7535 0)
(52.3063 32.937 0)
(-81.6357 -25.2136 0)
(16.7477 11.4151 0)
(-113.793 -91.1867 0)
(85.969 65.0505 0)
(-84.1678 -48.1326 0)
(9.15628 37.5695 0)
(-82.2321 -78.5321 0)
(46.0977 30.7131 0)
(-24.1518 -62.8928 0)
(10.8937 20.8787 0)
(-56.3842 -44.877 0)
(105.565 14.2187 0)
(106.253 40.9143 0)
(-172.269 62.2496 0)
(109.545 -48.2671 0)
(-96.5644 11.1773 0)
(102.534 28.9285 0)
(-96.4979 -8.40698 0)
(32.6144 31.6095 0)
(-92.112 -18.3681 0)
(27.9292 35.3223 0)
(-74.136 -17.7251 0)
(93.9561 55.887 0)
(-141.555 -34.8405 0)
(31.3866 76.3449 0)
(-50.3628 -56.2871 0)
(60.1395 64.6658 0)
(-26.9629 -29.0797 0)
(49.7065 12.4597 0)
(35.4532 -19.0675 0)
(64.1034 13.6236 0)
(-49.6436 32.5186 0)
(-147.601 46.7597 0)
(155.304 -121.818 0)
(-91.0124 -40.6432 0)
(105.753 8.51981 0)
(-116.718 10.7706 0)
(28.0234 38.8873 0)
(-61.9166 -10.5258 0)
(39.4711 33.4027 0)
(-62.3184 -21.0042 0)
(-6.82929 8.08749 0)
(-102.231 -91.8091 0)
(55.2241 63.6736 0)
(-72.7464 -46.1575 0)
(24.3803 44.2792 0)
(-71.4499 -75.0177 0)
(37.5027 20.6123 0)
(-4.69767 -63.416 0)
(-13.2501 18.283 0)
(-47.7682 -47.462 0)
(97.2642 18.0035 0)
(112.832 41.3954 0)
(-163.019 57.8032 0)
(112.04 -46.2971 0)
(-104.023 20.1232 0)
(96.0578 38.3248 0)
(-72.5807 -6.62275 0)
(23.2863 29.6432 0)
(-74.2762 -18.9724 0)
(9.34131 34.5514 0)
(-57.8083 -22.6612 0)
(88.8318 56.1983 0)
(-142.461 -34.3338 0)
(33.3453 71.1294 0)
(-56.5476 -61.3708 0)
(56.8445 51.6812 0)
(-13.2234 -21.9952 0)
(53.4391 12.8562 0)
(44.716 -14.4905 0)
(63.2198 18.1519 0)
(-59.627 29.7903 0)
(-142.955 45.3458 0)
(154.222 -115.55 0)
(-81.023 -48.2542 0)
(98.9885 6.57418 0)
(-96.5543 9.60418 0)
(22.0289 38.7132 0)
(-52.3802 -11.209 0)
(12.1117 35.861 0)
(-48.5871 -19.363 0)
(1.90093 17.3095 0)
(-92.8682 -91.1318 0)
(4.12151 66.8251 0)
(-56.9009 -44.1354 0)
(14.8252 43.8246 0)
(-70.2277 -64.1168 0)
(-3.31112 16.0178 0)
(13.4222 -65.5165 0)
(-39.4917 13.6706 0)
(-42.7699 -49.4683 0)
(89.2842 22.9885 0)
(151.753 46.1342 0)
(-154.662 53.3706 0)
(118.353 -41.6088 0)
(-101.256 18.8353 0)
(79.9414 45.856 0)
(-53.201 -4.66599 0)
(14.7021 33.1035 0)
(-54.4903 -21.2038 0)
(20.3857 36.5863 0)
(-64.0368 -34.4503 0)
(85.6541 57.376 0)
(-129.761 -37.4342 0)
(27.1411 63.0577 0)
(-59.2902 -60.6291 0)
(38.6034 44.1138 0)
(-38.9242 -30.8759 0)
(56.2184 11.8201 0)
(45.6092 -6.27099 0)
(65.7365 21.664 0)
(-66.2621 25.8598 0)
(-157.085 35.6048 0)
(161.241 -108.218 0)
(-66.8039 -56.0383 0)
(75.3785 17.0653 0)
(-71.1161 7.22633 0)
(18.4937 39.2969 0)
(-37.8947 -13.5283 0)
(11.3687 38.0478 0)
(-59.7586 -23.4538 0)
(27.7445 28.6776 0)
(-95.0321 -87.3073 0)
(-42.6054 70.4813 0)
(-26.8619 -41.4964 0)
(12.8946 41.2177 0)
(-21.9728 -56.9532 0)
(7.41777 16.4499 0)
(21.8662 -66.9918 0)
(-61.6366 5.53788 0)
(-38.6914 -50.993 0)
(81.4891 27.9797 0)
(188.958 47.5 0)
(-126.039 50.608 0)
(122.57 -32.9492 0)
(-83.6721 6.16846 0)
(57.8808 51.6071 0)
(-40.0538 -3.30009 0)
(13.2674 37.7603 0)
(-64.6251 -23.5896 0)
(29.238 41.0316 0)
(-56.2721 -43.9423 0)
(88.7104 58.9237 0)
(-103.344 -39.3217 0)
(26.5742 52.6795 0)
(-33.9606 -58.3517 0)
(5.44393 36.2267 0)
(-19.0353 -33.17 0)
(56.174 11.538 0)
(38.1719 5.80466 0)
(70.3058 23.8855 0)
(-71.4851 22.1294 0)
(-141.4 27.5697 0)
(189.18 -100.769 0)
(-48.6653 -62.1243 0)
(38.2746 37.8728 0)
(-43.2909 4.00926 0)
(16.5347 39.3732 0)
(-36.2436 -15.1251 0)
(24.5668 41.5115 0)
(-51.3781 -28.8539 0)
(28.6174 34.2588 0)
(-109.413 -80.5582 0)
(-65.5382 68.5392 0)
(11.8794 -37.9191 0)
(23.6801 39.2123 0)
(5.97505 -49.5535 0)
(29.71 13.6185 0)
(19.1581 -66.107 0)
(-74.959 -4.91375 0)
(-33.0475 -52.3875 0)
(73.9984 32.0064 0)
(206.462 36.0726 0)
(-81.8196 42.8292 0)
(122.685 -16.2471 0)
(-63.9586 -9.50969 0)
(36.1234 55.3146 0)
(-31.4953 -1.55972 0)
(23.746 42.8083 0)
(-56.2164 -27.0941 0)
(36.1955 41.0823 0)
(-50.8281 -42.8676 0)
(96.3995 57.4105 0)
(-64.2155 -36.7321 0)
(37.6244 40.2999 0)
(-7.22195 -52.9914 0)
(1.64742 26.0626 0)
(13.627 -35.5596 0)
(50.5095 12.5497 0)
(26.9591 19.6451 0)
(72.5017 24.9286 0)
(-76.5336 19.5005 0)
(-134.771 20.8224 0)
(209.756 -83.0771 0)
(-25.0398 -67.4921 0)
(0.222062 58.0978 0)
(-18.2105 0.105953 0)
(15.7606 38.3094 0)
(-30.4869 -17.0525 0)
(37.3444 42.6765 0)
(-42.1118 -28.0898 0)
(30.1897 32.5017 0)
(-121.921 -72.0177 0)
(-57.4736 58.1008 0)
(28.8299 -35.3596 0)
(34.2838 33.1114 0)
(19.3954 -38.8211 0)
(59.6397 13.4511 0)
(6.7333 -61.7436 0)
(-87.6533 -18.5046 0)
(-28.0753 -53.5817 0)
(66.8401 34.6146 0)
(257.617 19.1452 0)
(-36.3699 22.8209 0)
(99.839 5.99248 0)
(-48.1978 -19.5422 0)
(20.2392 55.7224 0)
(-24.0746 -0.261635 0)
(35.6762 46.0875 0)
(-45.502 -27.4474 0)
(43.4733 37.5127 0)
(-51.7566 -32.3178 0)
(103.119 51.5529 0)
(-14.1869 -27.5502 0)
(10.3873 28.4046 0)
(11.2278 -42.6718 0)
(-1.37451 14.1064 0)
(38.9447 -39.045 0)
(37.3434 15.5966 0)
(15.9572 35.4208 0)
(65.1231 24.4818 0)
(-81.8763 17.9745 0)
(-42.3071 5.14132 0)
(217.233 -26.3867 0)
(-10.1184 -59.9833 0)
(-37.3307 69.5518 0)
(-5.45085 -2.77124 0)
(15.5568 35.9924 0)
(-22.2876 -18.1254 0)
(48.384 41.0593 0)
(-32.8399 -25.0485 0)
(47.6066 29.5968 0)
(-103.485 -63.8425 0)
(-26.9178 41.5015 0)
(9.82646 -27.773 0)
(51.7107 20.8299 0)
(18.7971 -33.3966 0)
(82.6613 16.4006 0)
(-15.6527 -55.0489 0)
(-98.4472 -32.5713 0)
(-30.3439 -54.3323 0)
(59.3695 35.5711 0)
(-62.1398 -15.5746 0)
(-120.736 -25.8693 0)
(-3.42841 22.9567 0)
(-71.3519 -21.2652 0)
(33.4638 49.8736 0)
(-16.5549 0.0890749 0)
(46.3827 46.8947 0)
(-34.7013 -25.8385 0)
(51.3821 33.9286 0)
(-38.4294 -24.7246 0)
(99.2523 42.985 0)
(30.147 -12.4266 0)
(42.3753 14.9156 0)
(22.4962 -31.0198 0)
(-9.66646 9.0627 0)
(48.0301 -43.0252 0)
(13.948 21.6674 0)
(10.2461 47.5251 0)
(43.253 22.2204 0)
(-86.8562 16.6302 0)
(-134.143 -7.37006 0)
(120.315 0.0372219 0)
(-11.5766 -52.8951 0)
(-49.514 67.5299 0)
(-7.10346 -6.56008 0)
(16.3947 34.8638 0)
(-13.7948 -18.2591 0)
(58.4971 38.8262 0)
(-20.6277 -21.6473 0)
(49.9125 27.9647 0)
(-59.4132 -55.8288 0)
(6.34001 23.8056 0)
(10.2654 -16.8029 0)
(65.6243 13.6738 0)
(31.6503 -35.2799 0)
(90.6763 20.6464 0)
(-48.216 -49.5769 0)
(-110.792 -42.2439 0)
(-43.6807 -54.1021 0)
(49.9966 34.6763 0)
(-27.319 41.3601 0)
(-106.268 -50.5992 0)
(-29.4838 37.331 0)
(-100.263 -23.4306 0)
(63.3039 39.0267 0)
(-10.8876 -0.765366 0)
(54.2451 45.531 0)
(-23.7959 -24.2728 0)
(58.3722 31.1196 0)
(-21.0692 -20.2434 0)
(90.1524 33.0799 0)
(57.4584 0.974699 0)
(74.9243 3.01156 0)
(41.2728 -25.0302 0)
(-0.329966 10.2208 0)
(31.9804 -43.677 0)
(-17.2979 32.183 0)
(19.8684 53.1187 0)
(8.06086 18.7443 0)
(-89.9558 14.0437 0)
(-54.5464 -32.0042 0)
(78.6479 18.5647 0)
(6.29066 -69.0829 0)
(-34.4969 54.7045 0)
(-7.14213 -11.1097 0)
(23.9223 35.2825 0)
(-6.36074 -17.8996 0)
(66.7471 36.7268 0)
(-7.6839 -18.1215 0)
(49.3113 24.775 0)
(-25.6169 -49.6853 0)
(26.7033 10.9008 0)
(12.2302 -10.0466 0)
(64.8604 13.1333 0)
(30.7504 -37.2275 0)
(82.6061 26.0143 0)
(-82.2888 -51.0321 0)
(-107.31 -45.305 0)
(-64.1539 -52.6041 0)
(38.3936 31.9104 0)
(-49.8502 53.3167 0)
(-121.726 -59.5928 0)
(-65.6595 73.7106 0)
(-99.557 -14.9217 0)
(55.6508 28.7612 0)
(-12.0538 -0.874206 0)
(57.1821 42.9307 0)
(-13.1049 -23.643 0)
(63.6487 29.1607 0)
(-7.45814 -17.2175 0)
(87.2576 23.8345 0)
(73.9869 7.59393 0)
(93.5137 -1.1044 0)
(60.2537 -22.8617 0)
(31.138 11.1181 0)
(-9.54937 -40.1947 0)
(-43.0893 52.7035 0)
(26.8233 52.8109 0)
(-26.3504 15.2082 0)
(-91.0287 8.99251 0)
(-35.4744 -29.2841 0)
(53.4563 24.1794 0)
(101.425 -66.5527 0)
(77.7322 20.2092 0)
(26.6621 -14.1536 0)
(36.4929 33.2136 0)
(-0.746783 -17.6897 0)
(72.5178 35.0914 0)
(4.42915 -14.7318 0)
(61.2928 21.677 0)
(-5.75969 -45.5567 0)
(32.7185 5.34566 0)
(8.03361 -8.91957 0)
(54.296 13.2248 0)
(32.9491 -32.8215 0)
(46.7745 31.1769 0)
(-107.632 -67.7067 0)
(-83.1445 -48.7142 0)
(-74.5405 -50.1579 0)
(27.982 28.0194 0)
(-29.6813 58.5835 0)
(-40.7155 -80.7919 0)
(-16.7083 50.1089 0)
(4.68431 -12.673 0)
(66.3473 25.6099 0)
(-8.33125 0.563381 0)
(56.7291 39.7342 0)
(-2.93204 -24.9108 0)
(61.7747 27.1975 0)
(25.2952 -15.145 0)
(84.4053 18.5279 0)
(80.8312 6.78368 0)
(88.1209 -1.724 0)
(83.8181 -19.0079 0)
(32.1811 11.1097 0)
(-77.7767 -16.9241 0)
(-19.3477 62.54 0)
(49.0784 63.7862 0)
(-37.3309 13.9296 0)
(-93.1326 1.0614 0)
(-16.5305 -27.0838 0)
(14.9514 33.7588 0)
(2.13758 -68.1271 0)
(25.693 44.6739 0)
(3.98429 -12.3482 0)
(42.986 34.7948 0)
(1.84422 -17.0702 0)
(83.9631 35.1509 0)
(-2.24643 -14.509 0)
(90.2508 17.8921 0)
(-2.16639 -41.7949 0)
(36.3856 7.63419 0)
(11.1256 -6.33844 0)
(20.5262 7.39664 0)
(22.8538 -15.8759 0)
(-72.9263 1.33355 0)
(-70.0841 -61.7086 0)
(-64.6755 -64.9941 0)
(-61.3987 -46.4379 0)
(20.6492 25.0114 0)
(-19.9328 60.155 0)
(-30.129 -86.8684 0)
(-31.6612 62.0351 0)
(-16.1098 -38.6321 0)
(45.3082 36.7521 0)
(-5.32669 0.121635 0)
(47.3978 34.8253 0)
(23.9033 -25.7392 0)
(53.3194 25.3694 0)
(49.0027 -18.2755 0)
(61.9261 17.8315 0)
(79.6038 -0.129507 0)
(39.0763 -7.1374 0)
(89.4036 -7.08411 0)
(21.123 3.61685 0)
(74.8058 8.46874 0)
(3.03388 52.2781 0)
(76.0937 73.721 0)
(-24.6562 16.79 0)
(-100.578 -10.0046 0)
(22.0303 -27.2923 0)
(7.54795 44.9857 0)
(-44.3041 -72.4504 0)
(-5.38025 48.1437 0)
(-6.20782 -40.9302 0)
(37.3689 35.3529 0)
(-4.49095 -17.2928 0)
(96.592 35.1746 0)
(-17.9444 -16.8609 0)
(92.3852 15.2481 0)
(-19.0124 -38.8985 0)
(40.037 13.6006 0)
(40.8647 2.21361 0)
(-33.5175 -4.47775 0)
(67.6886 -3.65596 0)
(-104.474 -12.3723 0)
(-63.1454 -43.8661 0)
(-29.2215 -62.748 0)
(-36.1339 -46.7106 0)
(11.0847 26.6355 0)
(-30.7947 63.26 0)
(15.8215 -88.1454 0)
(-47.5202 59.5318 0)
(-8.68204 -47.5916 0)
(-48.457 62.3408 0)
(1.91749 -3.32813 0)
(16.8683 24.7642 0)
(39.3365 -23.6191 0)
(60.7552 27.0249 0)
(39.3147 -19.6619 0)
(31.9592 22.6147 0)
(71.8442 -8.42264 0)
(-4.18341 -9.26909 0)
(88.8495 5.32406 0)
(-60.0378 6.95584 0)
(22.9939 12.2276 0)
(-46.2531 32.5587 0)
(121.714 63.2854 0)
(1.18849 34.2769 0)
(-133.763 -26.0648 0)
(19.1501 -37.4404 0)
(8.94662 57.9808 0)
(-42.2891 -77.3371 0)
(-22.0694 51.6163 0)
(-40.7373 -53.7948 0)
(46.2832 29.3154 0)
(13.3538 -15.4722 0)
(72.6026 26.476 0)
(-21.7247 -18.4645 0)
(71.4223 14.5898 0)
(-17.7686 -38.1681 0)
(11.0613 16.0255 0)
(8.64112 3.67449 0)
(-15.1528 -8.56936 0)
(90.877 -3.30984 0)
(-8.90213 7.0123 0)
(-14.0041 -48.2028 0)
(-57.0206 -55.4097 0)
(-24.878 -42.6611 0)
(-0.459532 27.6531 0)
(-9.28306 69.5749 0)
(79.6127 -83.8328 0)
(-37.6152 70.3891 0)
(-14.1445 -38.5634 0)
(-0.496896 45.5846 0)
(-9.85031 -12.2009 0)
(32.7319 18.6862 0)
(29.9217 -13.5869 0)
(17.1853 25.6149 0)
(27.4068 -27.1546 0)
(56.9763 21.9499 0)
(92.9166 -8.33369 0)
(-6.02681 -6.97933 0)
(80.1326 3.86156 0)
(-76.7348 3.44684 0)
(90.8706 2.53852 0)
(54.9589 37.4887 0)
(65.9699 41.0607 0)
(18.7591 32.6087 0)
(44.3283 -25.3111 0)
(33.6315 -47.2193 0)
(-5.87619 60.5066 0)
(49.9448 -67.5143 0)
(-8.30864 27.4751 0)
(-20.0692 -44.839 0)
(57.069 25.6883 0)
(-8.68491 -18.2969 0)
(124.495 22.0952 0)
(32.5477 -14.651 0)
(93.3334 11.8592 0)
(19.345 -35.6037 0)
(3.13929 19.2143 0)
(90.3034 -5.21251 0)
(-15.7776 3.91007 0)
(98.191 -1.09071 0)
(-10.8669 0.930988 0)
(-49.0433 -30.0149 0)
(8.37856 -4.18288 0)
(-13.2525 -45.6682 0)
(148.273 13.1521 0)
(49.7147 62.7224 0)
(44.8724 -65.7481 0)
(-68.631 75.6146 0)
(22.6146 -31.7653 0)
(20.9609 42.454 0)
(-42.7822 -24.5597 0)
(46.3436 16.5324 0)
(-44.8569 -14.0033 0)
(99.6485 29.5324 0)
(65.2715 -15.279 0)
(-89.9141 36.079 0)
(47.6432 -27.9118 0)
(-104.081 24.2026 0)
(49.2696 -16.7116 0)
(-55.5722 7.77919 0)
(24.9974 1.92108 0)
(94.1956 26.4166 0)
(28.8561 -19.137 0)
(116.144 55.2622 0)
(-139.804 -24.5664 0)
)
;

boundaryField
{
    piston
    {
        type            movingWallVelocity;
        value           nonuniform List<vector> 
40
(
(1.40697 -8.67362e-17 0)
(1.40697 0 0)
(1.40697 -6.93889e-16 -1.38778e-15)
(1.40697 0 0)
(1.40697 -6.93889e-16 -1.38778e-15)
(1.40697 -1.38778e-15 -1.38778e-15)
(1.40697 -1.38778e-15 -1.38778e-15)
(1.40697 0 0)
(1.40697 -1.38778e-15 -1.38778e-15)
(1.40697 -1.38778e-15 -1.38778e-15)
(1.40697 0 0)
(1.40697 -2.77556e-15 -1.38778e-15)
(1.40697 0 0)
(1.40697 0 -1.38778e-15)
(1.40697 0 0)
(1.40697 0 -1.38778e-15)
(1.40697 0 -1.38778e-15)
(1.40697 0 0)
(1.40697 -2.77556e-15 -1.38778e-15)
(1.40697 0 0)
(1.40697 0 -1.38778e-15)
(1.40697 0 -1.38778e-15)
(1.40697 0 0)
(1.40697 -5.55112e-15 -1.38778e-15)
(1.40697 0 -1.38778e-15)
(1.40697 0 -1.38778e-15)
(1.40697 0 -1.38778e-15)
(1.40697 0 0)
(1.40697 0 -1.38778e-15)
(1.40697 0 -1.38778e-15)
(1.40697 0 -1.38778e-15)
(1.40697 -5.55112e-15 -1.38778e-15)
(1.40697 -5.55112e-15 0)
(1.40697 0 -1.38778e-15)
(1.40697 0 -1.38778e-15)
(1.40697 -5.55112e-15 -1.38778e-15)
(1.40697 -5.55112e-15 -1.38778e-15)
(1.40697 -5.55112e-15 0)
(1.40697 0 -1.38778e-15)
(1.40697 -5.55112e-15 -1.38778e-15)
)
;
    }
    outlet
    {
        type            noSlip;
    }
    walls
    {
        type            movingWallVelocity;
        value           nonuniform List<vector> 
40
(
(1.33662 0 1.38778e-15)
(1.19593 0 0)
(1.05523 0 0)
(0.914531 0 0)
(0.773834 0 0)
(0.633137 0 1.38778e-15)
(0.49244 0 -1.38778e-15)
(0.351743 0 -1.38778e-15)
(0.211046 0 -4.16334e-15)
(0.0703486 0 -4.16334e-15)
(0 0 -1.38778e-15)
(0 0 0)
(0 0 0)
(1.11022e-14 0 0)
(-1.11022e-14 0 -1.38778e-15)
(-2.22045e-14 0 -1.38778e-15)
(-2.22045e-14 0 -1.38778e-15)
(0 0 0)
(-2.22045e-14 0 -1.38778e-15)
(-2.22045e-14 0 -1.38778e-15)
(1.33662 3.7477e-15 2.77556e-15)
(1.19593 0 0)
(1.05523 0 -1.38778e-15)
(0.914531 0 0)
(0.773834 0 0)
(0.633137 0 -1.38778e-15)
(0.49244 0 0)
(0.351743 -3.7477e-15 -1.38778e-15)
(0.211046 0 -1.38778e-15)
(0.0703486 0 -1.38778e-15)
(-1.38778e-15 0 0)
(0 0 0)
(-1.11022e-14 0 -1.38778e-15)
(0 0 0)
(-1.11022e-14 0 -1.38778e-15)
(-2.22045e-14 0 -1.38778e-15)
(-2.22045e-14 0 -1.38778e-15)
(0 0 0)
(-2.22045e-14 0 -1.38778e-15)
(-2.22045e-14 0 -1.38778e-15)
)
;
    }
    front
    {
        type            empty;
    }
    back
    {
        type            empty;
    }
}


// ************************************************************************* //
