/*--------------------------------*- C++ -*----------------------------------*\
  =========                 |
  \\      /  F ield         | OpenFOAM: The Open Source CFD Toolbox
   \\    /   O peration     | Website:  https://openfoam.org
    \\  /    A nd           | Version:  6
     \\/     M anipulation  |
\*---------------------------------------------------------------------------*/
FoamFile
{
    version     2.0;
    format      ascii;
    class       surfaceVectorField;
    location    "1.99";
    object      Uf;
}
// * * * * * * * * * * * * * * * * * * * * * * * * * * * * * * * * * * * * * //

dimensions      [0 1 -1 0 0 0 0];

internalField   nonuniform List<vector> 
1540
(
(-96.8381 37.8913 0)
(-258.948 4.73314 0)
(103.249 -85.8293 0)
(11.5208 -22.5566 0)
(138.583 -43.5431 0)
(70.9516 -3.98331 0)
(130.188 -40.1284 0)
(35.94 0.94643 0)
(133.809 -39.5811 0)
(153.861 -0.408226 0)
(137.202 -39.5482 0)
(19.2355 -0.38254 0)
(142.946 -37.5475 0)
(51.774 -0.647587 0)
(146.274 -37.1759 0)
(16.0972 -0.375176 0)
(150.751 -35.4408 0)
(35.3259 -0.504686 0)
(153.901 -32.3873 0)
(19.4519 -0.355111 0)
(156.943 -33.4187 0)
(47.2612 -0.190121 0)
(157.605 -29.1668 0)
(16.9969 -0.041378 0)
(158.049 -33.3971 0)
(35.9578 -0.0277314 0)
(160.183 -28.0923 0)
(38.6755 -0.133392 0)
(160.758 -28.516 0)
(30.7692 -0.0358958 0)
(154.942 -22.4073 0)
(49.8006 0.363489 0)
(165.808 -22.2523 0)
(39.8761 -0.679175 0)
(170.738 -18.1209 0)
(42.7015 -0.308121 0)
(155.739 -18.0225 0)
(41.2064 0.937411 0)
(158.021 9.7337 0)
(-80.2434 -13.8108 0)
(-136.043 13.9379 0)
(-93.9071 49.6811 0)
(0.295566 -21.0162 0)
(27.0821 8.37 0)
(1.38112 -17.6229 0)
(46.3491 19.6188 0)
(1.00353 -1.22558 0)
(29.2116 23.9347 0)
(22.6003 1.52372 0)
(-65.0618 30.6999 0)
(-18.9376 10.2453 0)
(-69.9242 27.9552 0)
(-39.519 -0.099398 0)
(-97.4861 25.7136 0)
(-46.6024 2.732 0)
(-95.2968 22.6751 0)
(-56.8813 -0.751465 0)
(-96.116 22.7902 0)
(-54.5616 -0.26276 0)
(-90.3237 27.6891 0)
(-107.165 -0.55214 0)
(-106.748 20.8249 0)
(-60.5275 0.985162 0)
(-84.8072 22.7427 0)
(-88.4968 -1.39905 0)
(-88.6429 16.1328 0)
(-56.0192 0.106333 0)
(-76.8048 18.4772 0)
(-86.4247 -0.775784 0)
(-81.6047 13.6763 0)
(-42.2597 0.663469 0)
(-64.8035 18.1258 0)
(-50.4969 -1.72926 0)
(-65.3492 10.289 0)
(-72.6896 -0.274039 0)
(4.08554 13.3981 0)
(-69.2667 -3.40227 0)
(143.986 9.98904 0)
(-3.03622 -16.3898 0)
(-113.266 14.4388 0)
(38.237 -83.4316 0)
(7.44322 -25.6691 0)
(26.6025 -7.61342 0)
(0.573561 -16.3113 0)
(-37.4457 4.11797 0)
(0.510031 5.99488 0)
(-39.1225 11.04 0)
(-10.5042 1.7127 0)
(9.77015 -4.80745 0)
(-13.7476 4.73344 0)
(-9.30592 -6.00657 0)
(-32.7233 2.05115 0)
(-7.70616 -4.41794 0)
(-64.4624 2.55167 0)
(-17.9043 -3.38633 0)
(-20.7412 0.398238 0)
(-51.1024 -3.93067 0)
(-68.6319 3.4798 0)
(-74.7199 -17.7324 0)
(-68.4251 0.923958 0)
(-45.0057 -12.0864 0)
(57.2874 -0.871978 0)
(-61.8563 -9.61112 0)
(-61.8369 -0.345891 0)
(-50.4723 -1.19985 0)
(-77.3173 -0.605175 0)
(-44.8143 -4.81582 0)
(-63.6952 -1.12941 0)
(-37.342 -0.0885336 0)
(-65.2419 0.196435 0)
(-29.434 -15.485 0)
(-28.5883 -2.22352 0)
(-56.255 -9.15717 0)
(13.7644 1.40226 0)
(31.3776 -3.16047 0)
(-24.7805 -8.87932 0)
(120.564 11.9501 0)
(-59.1311 10.6207 0)
(-93.2611 21.2635 0)
(-76.4935 36.6759 0)
(4.66369 -23.7118 0)
(9.9631 -9.8082 0)
(-4.7845 -26.0579 0)
(22.074 -4.89766 0)
(15.6582 4.62961 0)
(-1.52802 -13.6034 0)
(-9.92205 4.37342 0)
(-49.0286 5.14053 0)
(3.91066 10.0884 0)
(-84.4658 -2.04794 0)
(-53.7111 6.04613 0)
(-77.2875 -3.28794 0)
(-80.8617 1.74244 0)
(-74.5829 -4.80244 0)
(-48.9951 0.093345 0)
(-84.6819 -5.28194 0)
(-73.9318 4.61831 0)
(64.6746 8.50991 0)
(-8.48835 -8.41082 0)
(38.2978 7.52537 0)
(69.3784 0.776567 0)
(-79.8451 2.81 0)
(-73.3908 7.03805 0)
(-86.8907 -8.6307 0)
(-58.2671 -0.16484 0)
(-77.5728 -3.45954 0)
(-75.1922 -1.71178 0)
(-78.7031 -11.1262 0)
(-62.4692 0.267059 0)
(40.2754 10.4454 0)
(-33.7307 -9.65968 0)
(55.1621 1.74389 0)
(5.67892 0.471812 0)
(36.8834 11.8854 0)
(-23.5757 -7.7369 0)
(102.998 14.2553 0)
(5.47771 -17.9039 0)
(-83.8614 20.8046 0)
(39.8541 -82.8405 0)
(6.82122 -27.5872 0)
(25.7431 -8.24912 0)
(-1.96614 -24.4671 0)
(-16.2793 16.3543 0)
(9.51782 9.367 0)
(-21.2525 26.0436 0)
(3.69494 4.93401 0)
(6.90095 7.406 0)
(11.8305 6.91455 0)
(-48.7554 10.6134 0)
(-38.112 12.3205 0)
(-53.4536 4.83824 0)
(-71.0349 2.2721 0)
(-48.8971 9.13888 0)
(-46.2656 -0.420307 0)
(-15.4302 5.21681 0)
(-59.8327 0.845454 0)
(-3.56542 -9.65456 0)
(0.571955 -9.15237 0)
(-44.032 3.39845 0)
(-8.14613 3.30573 0)
(-53.4878 3.29685 0)
(-82.0259 7.62903 0)
(-44.4398 7.65208 0)
(-43.6553 -0.730353 0)
(-53.7262 3.42742 0)
(-61.8379 -1.13139 0)
(-31.8803 3.30252 0)
(-51.2102 -1.09832 0)
(-51.9166 -16.4249 0)
(-27.5027 -8.40741 0)
(-64.4572 -8.45104 0)
(-7.56644 1.25558 0)
(18.8933 -8.96468 0)
(-21.9086 -12.9463 0)
(90.3781 15.4362 0)
(-51.0652 19.7455 0)
(-77.4424 26.72 0)
(-66.5891 26.8182 0)
(0.0786186 -25.8371 0)
(-0.207864 -13.1036 0)
(-7.25151 -31.9505 0)
(30.6981 -4.17332 0)
(-19.2349 5.88288 0)
(24.36 -11.0863 0)
(22.8764 5.64851 0)
(-27.3822 14.656 0)
(-7.0602 12.7477 0)
(-58.8304 3.65668 0)
(-57.3387 15.8658 0)
(-65.2461 -2.90664 0)
(-30.4475 2.99538 0)
(-57.2693 -7.06638 0)
(-46.5059 -1.31954 0)
(-60.1817 -8.92425 0)
(-37.7063 1.17378 0)
(-4.93191 0.294596 0)
(-12.2096 -12.6055 0)
(-46.5351 5.49595 0)
(-6.44966 5.90593 0)
(-73.9384 5.51148 0)
(-83.5635 9.34174 0)
(-59.3863 -7.58299 0)
(-48.3088 -1.63987 0)
(-52.1942 -5.82957 0)
(-46.8878 -1.5809 0)
(-59.7503 -13.9825 0)
(-55.2876 -0.626081 0)
(31.6912 7.21767 0)
(-18.9371 -14.1225 0)
(42.1042 -2.84319 0)
(6.52912 0.604732 0)
(28.3923 13.7448 0)
(-18.5376 -12.0893 0)
(81.0545 17.2107 0)
(2.01049 -27.6268 0)
(-66.825 26.6519 0)
(30.9363 -79.4818 0)
(-1.19668 -29.0981 0)
(-11.8049 -2.97221 0)
(1.44148 -27.1322 0)
(-24.8932 18.8685 0)
(-19.3768 7.3584 0)
(-17.9637 26.0504 0)
(13.3222 4.86725 0)
(-32.8446 10.3039 0)
(-24.2761 14.4253 0)
(-27.357 12.3794 0)
(-48.5293 15.2471 0)
(-14.2908 3.24989 0)
(-3.99432 1.52238 0)
(-25.2523 5.74139 0)
(-46.084 -0.0837865 0)
(2.80775 0.292248 0)
(-35.169 -1.98953 0)
(-14.8498 -6.28999 0)
(-7.0838 -11.5019 0)
(-43.3636 8.71187 0)
(-22.2841 7.68804 0)
(-59.2991 -2.79121 0)
(-75.6469 10.3377 0)
(-35.2245 -0.944627 0)
(-46.1548 -3.14454 0)
(-41.9725 2.7301 0)
(-53.2413 -1.15916 0)
(-26.3993 -0.191439 0)
(-38.431 -1.59942 0)
(-30.6136 -18.7855 0)
(-18.9061 -13.8591 0)
(-47.7886 -8.8599 0)
(-3.04969 1.67815 0)
(14.7853 -11.1967 0)
(-13.4684 -16.0002 0)
(70.7196 18.1348 0)
(-43.4101 33.2899 0)
(-65.3526 31.7043 0)
(-57.5628 19.1638 0)
(-9.98035 -27.5026 0)
(5.98275 -23.6422 0)
(-2.35657 -34.2959 0)
(22.2882 -6.16921 0)
(-18.1187 5.52026 0)
(-1.20474 -2.77343 0)
(1.64186 7.51568 0)
(-36.6459 21.3076 0)
(-33.6797 18.4207 0)
(-23.4185 6.99276 0)
(-23.3023 13.756 0)
(-38.9527 0.0999129 0)
(-10.8148 3.27361 0)
(-53.5552 -6.69227 0)
(-46.4197 1.56244 0)
(-53.8691 -9.73755 0)
(-37.0946 -1.95413 0)
(-15.5877 3.01016 0)
(-11.2027 -13.8945 0)
(-54.1572 10.1024 0)
(-15.0567 10.0986 0)
(-63.9684 14.5274 0)
(-60.0775 10.9509 0)
(-64.0301 3.10214 0)
(-49.2458 -3.14069 0)
(-41.383 -2.80785 0)
(-44.4909 -2.57461 0)
(-42.0317 -15.0856 0)
(-43.4149 -1.55889 0)
(19.4756 4.6205 0)
(-11.7245 -17.7033 0)
(38.3336 -5.57993 0)
(9.11844 0.499476 0)
(24.4445 15.7312 0)
(-9.25451 -15.1321 0)
(64.8096 19.6625 0)
(-7.09898 -36.6695 0)
(-53.5497 32.6632 0)
(20.0594 -77.3255 0)
(-11.2079 -30.5643 0)
(-16.5948 0.342515 0)
(3.9003 -30.1637 0)
(-34.7627 17.353 0)
(-12.3047 7.56843 0)
(-37.7471 25.1548 0)
(-10.3753 7.85208 0)
(-17.4328 11.1094 0)
(-34.2954 16.1306 0)
(-9.14229 9.69239 0)
(-13.5073 12.8214 0)
(-20.9796 3.09555 0)
(-15.9906 4.60808 0)
(-27.5275 2.80847 0)
(-33.4467 2.30063 0)
(-3.00001 -6.33013 0)
(-43.2783 -4.71921 0)
(-11.6789 -7.38355 0)
(-7.53999 -13.352 0)
(-20.3734 10.128 0)
(-19.1759 10.642 0)
(-47.1793 -8.94052 0)
(-53.8896 12.6263 0)
(-29.3697 -14.4264 0)
(-32.5176 -4.25379 0)
(-39.066 -6.15857 0)
(-24.8715 -1.9686 0)
(-22.7496 -5.21601 0)
(-43.7758 -2.57868 0)
(-12.666 -19.8269 0)
(-6.45164 -18.3335 0)
(-30.8798 -9.07627 0)
(10.1355 1.63782 0)
(14.0745 -13.4019 0)
(-6.65976 -17.9418 0)
(54.4541 20.5422 0)
(-34.0063 45.1431 0)
(-50.2496 36.6554 0)
(-51.1765 13.6607 0)
(-16.3885 -28.6286 0)
(15.9313 -26.7603 0)
(4.26732 -37.7291 0)
(16.3117 -0.914386 0)
(-1.28415 7.52558 0)
(-12.7561 1.04742 0)
(-13.754 11.129 0)
(-27.6013 17.6712 0)
(-38.9386 17.8042 0)
(-19.1607 8.11298 0)
(-6.6352 11.8698 0)
(-30.6147 5.58646 0)
(-26.0051 5.89934 0)
(-47.1248 -0.163416 0)
(-22.144 4.16189 0)
(-58.9478 -3.68767 0)
(-51.3576 -3.38634 0)
(-16.1028 5.43068 0)
(-12.7489 -16.0298 0)
(-51.9708 14.36 0)
(-14.5626 12.8838 0)
(-41.4307 18.3841 0)
(-40.4968 11.9675 0)
(-28.1178 12.7113 0)
(-51.0266 -5.08586 0)
(-20.905 6.29448 0)
(-20.4435 -2.41941 0)
(-36.7815 -15.4274 0)
(-28.4086 -1.58641 0)
(23.2484 0.913294 0)
(-3.78105 -22.0854 0)
(43.2272 -6.7557 0)
(17.6412 0.3891 0)
(17.3635 18.0854 0)
(-1.09318 -16.3253 0)
(49.6464 21.6274 0)
(-10.4971 -42.1448 0)
(-44.1355 37.9974 0)
(17.0092 -77.9534 0)
(-14.2487 -31.7296 0)
(-7.16351 -1.52392 0)
(6.06257 -35.004 0)
(-26.6767 17.5179 0)
(-3.70513 9.7254 0)
(-45.1409 25.607 0)
(-16.3749 13.2105 0)
(-15.3545 12.0104 0)
(-33.6795 14.4462 0)
(-12.5558 9.55165 0)
(-17.477 11.5543 0)
(-19.0891 3.34373 0)
(-24.8135 6.63587 0)
(-25.3366 -2.9476 0)
(-21.7835 4.8662 0)
(-16.2127 -17.0195 0)
(-31.551 -4.41491 0)
(-12.2782 -10.3687 0)
(-12.1962 -16.2757 0)
(-2.28411 9.23342 0)
(-18.4761 12.2591 0)
(-52.1669 -10.4089 0)
(-38.5756 15.0852 0)
(-43.6437 -21.8469 0)
(-37.9906 -5.61856 0)
(-18.7448 -15.7828 0)
(-14.2249 -3.9756 0)
(-4.94576 -10.4548 0)
(-8.26823 -2.44888 0)
(-4.88915 -20.466 0)
(2.29763 -22.089 0)
(-16.5241 -10.0322 0)
(22.2434 1.11627 0)
(15.3872 -14.7767 0)
(-0.847471 -18.3197 0)
(39.943 22.5891 0)
(-26.9004 51.449 0)
(-33.0695 41.1886 0)
(-45.8882 9.56551 0)
(-14.6998 -29.589 0)
(13.7135 -24.3329 0)
(7.28706 -41.7232 0)
(11.3541 8.27795 0)
(6.27324 9.9914 0)
(-9.37276 4.63422 0)
(-13.7201 15.5471 0)
(-33.3475 14.0791 0)
(-39.9678 17.149 0)
(-29.0077 8.18739 0)
(-13.6297 11.0651 0)
(-28.6698 8.18819 0)
(-26.8636 6.59779 0)
(-27.3932 6.71432 0)
(-16.1795 4.7223 0)
(-32.7349 4.8636 0)
(-43.5942 -3.81271 0)
(-19.4933 8.16437 0)
(-9.86798 -17.1033 0)
(-53.8787 18.7197 0)
(-22.905 14.4082 0)
(-26.433 16.0093 0)
(-30.615 13.3698 0)
(-8.48976 11.1533 0)
(-32.1248 -6.74003 0)
(6.55496 14.0597 0)
(-13.0184 -4.9159 0)
(-11.695 -12.054 0)
(-4.23383 -1.30829 0)
(32.4481 -2.29696 0)
(9.10833 -24.8479 0)
(48.5314 -5.68021 0)
(15.5961 0.111039 0)
(8.26014 20.9146 0)
(4.96046 -15.8028 0)
(35.4843 23.1054 0)
(-0.909945 -41.6405 0)
(-34.4239 41.4497 0)
(19.2644 -79.7411 0)
(-9.50889 -31.8633 0)
(2.33478 -8.29274 0)
(7.06422 -39.8146 0)
(-13.7307 13.9511 0)
(0.665599 11.8025 0)
(-48.1486 25.3618 0)
(-13.8407 19.4271 0)
(-18.081 13.5494 0)
(-29.6857 13.7594 0)
(-10.8754 10.0918 0)
(-21.1884 10.2528 0)
(-15.1757 3.8617 0)
(-19.9028 7.08258 0)
(-32.2407 -6.89926 0)
(-26.8533 6.64611 0)
(-29.7257 -25.1795 0)
(-28.6941 -4.09623 0)
(-14.3962 -13.0681 0)
(-9.91835 -18.0614 0)
(1.35627 8.45899 0)
(-27.7929 13.4237 0)
(-38.383 -5.28154 0)
(-26.3906 15.8535 0)
(-36.4057 -20.4813 0)
(-20.6032 -6.86361 0)
(-13.6526 -23.9095 0)
(-11.0463 -6.33798 0)
(5.90815 -16.0898 0)
(9.5674 -2.53085 0)
(-5.73208 -21.007 0)
(12.7773 -24.1204 0)
(-17.0116 -11.9991 0)
(23.1734 0.816004 0)
(17.0374 -15.3292 0)
(3.8596 -17.9309 0)
(27.9605 24.1702 0)
(-23.8673 51.5819 0)
(-20.6739 44.299 0)
(-39.8673 6.99126 0)
(-8.48261 -30.0596 0)
(6.59313 -18.5449 0)
(9.26606 -45.0523 0)
(5.88759 20.0529 0)
(4.59432 11.8821 0)
(1.31938 10.2607 0)
(-7.0919 19.9421 0)
(-30.9077 11.6012 0)
(-34.2372 17.3925 0)
(-29.6608 6.62068 0)
(-14.6511 10.1122 0)
(-32.123 8.47709 0)
(-26.3204 7.36016 0)
(-23.0445 8.79859 0)
(-17.1946 5.62266 0)
(-14.009 8.52981 0)
(-40.4826 -5.11482 0)
(-24.265 10.5233 0)
(-4.13741 -17.4204 0)
(-54.5551 20.7522 0)
(-43.1653 15.3168 0)
(-10.7135 10.0289 0)
(-20.6799 13.1134 0)
(5.60458 4.18932 0)
(-12.9912 -7.8835 0)
(19.3105 17.7931 0)
(-5.65517 -7.1946 0)
(7.91971 -8.30999 0)
(5.26992 -1.81896 0)
(43.4071 -3.30392 0)
(22.5044 -26.3384 0)
(54.8755 -2.72194 0)
(11.1016 0.0992057 0)
(-0.110635 23.0711 0)
(8.16759 -14.4942 0)
(23.8103 24.1633 0)
(13.2112 -37.529 0)
(-17.3843 42.9682 0)
(23.5898 -81.2305 0)
(-3.85767 -31.2296 0)
(7.11339 -16.0617 0)
(10.5139 -43.1949 0)
(-2.6908 9.64521 0)
(0.865031 12.9874 0)
(-45.4759 24.829 0)
(-10.3302 24.7654 0)
(-16.3708 14.1808 0)
(-22.2787 14.1113 0)
(-11.0055 11.4385 0)
(-19.3152 9.50738 0)
(-11.4712 6.19928 0)
(-17.4026 7.41266 0)
(-34.3175 -6.45833 0)
(-26.4885 8.19822 0)
(-41.168 -27.5422 0)
(-32.3188 -4.34253 0)
(-23.7776 -14.0678 0)
(-6.69957 -18.5073 0)
(-8.35176 8.75807 0)
(-43.6187 14.3527 0)
(-25.108 -0.939125 0)
(-19.7005 14.1607 0)
(-22.9996 -15.3692 0)
(-16.0837 -8.01527 0)
(-15.6261 -27.2027 0)
(-7.30266 -7.65545 0)
(14.0256 -21.4019 0)
(12.1397 -3.6722 0)
(-8.08197 -22.5665 0)
(24.3707 -24.9566 0)
(-24.9524 -14.5895 0)
(15.7329 1.15361 0)
(17.3381 -14.7293 0)
(7.72582 -17.1374 0)
(18.8186 25.2469 0)
(-15.8931 49.5993 0)
(-15.0613 44.9185 0)
(-33.6271 5.75305 0)
(-4.39845 -29.2304 0)
(3.08738 -13.087 0)
(15.5087 -47.3338 0)
(-0.74691 29.224 0)
(-2.51728 13.4196 0)
(10.4733 15.851 0)
(-0.248259 23.5005 0)
(-23.8688 11.5102 0)
(-25.2759 17.9829 0)
(-25.5573 5.3354 0)
(-14.547 9.69775 0)
(-32.244 7.78946 0)
(-31.0822 8.16648 0)
(-23.4934 5.94509 0)
(-19.6229 7.21175 0)
(-6.56391 5.46533 0)
(-27.9537 -6.25105 0)
(-26.8568 10.9323 0)
(-2.01821 -17.239 0)
(-54.2221 18.3978 0)
(-69.17 16.0631 0)
(-12.6943 4.87926 0)
(-11.7778 11.5652 0)
(1.26899 -4.84481 0)
(-20.8612 -8.88799 0)
(20.9695 14.843 0)
(-6.69157 -8.88674 0)
(19.4002 -4.56945 0)
(-8.26726 -3.57413 0)
(50.1391 -0.817135 0)
(33.4307 -26.8778 0)
(58.6972 1.83068 0)
(2.61211 0.618712 0)
(-5.33944 23.9711 0)
(10.225 -13.1351 0)
(14.8286 24.9132 0)
(14.838 -35.1022 0)
(4.39897 43.4044 0)
(28.6612 -81.9022 0)
(-0.219968 -30.7888 0)
(7.76467 -20.84 0)
(18.6651 -44.9781 0)
(4.36497 8.08918 0)
(-1.13378 13.8029 0)
(-38.1748 24.1587 0)
(-8.30648 28.2961 0)
(-14.6169 13.7521 0)
(-15.5861 15.3271 0)
(-20.3074 12.326 0)
(-18.8391 10.3393 0)
(-17.7767 8.24896 0)
(-21.1893 7.88119 0)
(-22.6967 -1.02678 0)
(-14.1007 7.7664 0)
(-33.1624 -21.3678 0)
(-31.0679 -5.07121 0)
(-44.2383 -12.1534 0)
(-3.60702 -16.5467 0)
(-26.154 11.3449 0)
(-62.8196 14.9328 0)
(-21.8448 -0.155376 0)
(-14.8799 11.2959 0)
(-26.854 -10.1461 0)
(-22.2325 -8.57491 0)
(-37.929 -24.0495 0)
(-15.8121 -8.19455 0)
(4.68442 -24.7494 0)
(-21.1176 -6.23747 0)
(-11.4254 -25.923 0)
(34.8203 -25.871 0)
(-36.151 -17.8989 0)
(3.05874 2.16406 0)
(15.9359 -13.2399 0)
(11.4833 -16.3905 0)
(11.511 25.9092 0)
(8.34915 49.7524 0)
(-2.66614 42.6217 0)
(-26.2968 5.88092 0)
(3.28906 -26.883 0)
(7.05851 -11.3868 0)
(25.7747 -48.7384 0)
(-7.36994 32.3457 0)
(-12.9387 15.4295 0)
(12.2598 20.595 0)
(4.41263 26.0832 0)
(-18.4034 14.2187 0)
(-17.3537 18.7839 0)
(-20.1826 5.94982 0)
(-11.5963 10.5399 0)
(-16.7366 7.69125 0)
(-21.5608 7.49272 0)
(-20.629 1.06802 0)
(-19.6864 8.20521 0)
(-12.4759 -1.69896 0)
(-18.1461 -5.99033 0)
(-21.6865 9.97089 0)
(-4.68898 -15.9711 0)
(-51.1231 12.8118 0)
(-86.183 16.7726 0)
(-17.0016 1.21434 0)
(0.139608 9.16332 0)
(-9.33437 -8.25764 0)
(-23.1978 -9.05412 0)
(-1.52429 6.61893 0)
(8.31533 -8.68269 0)
(8.69862 -9.52792 0)
(-15.7532 -6.87642 0)
(52.417 2.77453 0)
(39.0423 -28.6034 0)
(59.9763 7.69651 0)
(-8.01368 1.69159 0)
(-7.26745 23.7619 0)
(13.5225 -12.1878 0)
(7.61348 25.455 0)
(11.4651 -36.3068 0)
(15.9365 41.4878 0)
(39.6598 -82.1283 0)
(17.601 -30.0615 0)
(2.49571 -19.4865 0)
(27.8829 -44.5487 0)
(5.42868 12.1458 0)
(-4.14679 15.0989 0)
(-27.2976 23.2616 0)
(-6.61767 29.7725 0)
(-8.82412 12.8843 0)
(-10.78 16.7013 0)
(-13.838 12.2597 0)
(-12.3136 11.1051 0)
(-23.4649 7.29699 0)
(-26.6282 8.57799 0)
(-14.9449 2.6119 0)
(-15.2603 7.24472 0)
(-18.2449 -12.6903 0)
(-14.2638 -5.6183 0)
(-68.1902 -8.41298 0)
(-3.16083 -12.8495 0)
(-34.618 14.4925 0)
(-72.9748 14.6743 0)
(-7.78184 -0.139374 0)
(-0.143833 7.48606 0)
(-3.81856 -7.86775 0)
(-10.533 -9.30182 0)
(-8.26406 -20.2516 0)
(-8.26443 -8.40484 0)
(14.5192 -25.2709 0)
(-5.80876 -8.30037 0)
(-17.3789 -30.7269 0)
(39.0201 -26.6097 0)
(-46.3386 -22.7276 0)
(-11.7324 3.50157 0)
(14.2704 -11.5067 0)
(15.8072 -15.9759 0)
(5.00198 26.3469 0)
(40.6365 49.054 0)
(23.779 37.0653 0)
(-8.93392 8.82944 0)
(31.5708 -24.4733 0)
(17.8941 -13.3904 0)
(36.9522 -47.5732 0)
(-10.0325 28.8878 0)
(-22.6988 18.2471 0)
(7.76783 24.1535 0)
(7.29495 27.7658 0)
(-12.2543 17.2301 0)
(-11.7595 18.9585 0)
(-26.1891 7.08538 0)
(-11.4881 12.676 0)
(-17.237 8.72101 0)
(-20.0291 7.5688 0)
(-11.8157 -1.45533 0)
(-11.0701 6.63356 0)
(-7.41957 -7.25348 0)
(-13.8273 -6.11388 0)
(-6.48931 9.80101 0)
(-10.3512 -12.9076 0)
(-38.1306 6.67888 0)
(-84.4413 16.6519 0)
(-4.73406 -2.8361 0)
(19.2268 5.39879 0)
(-13.5308 -11.0625 0)
(-5.14022 -8.75202 0)
(-7.73713 1.52838 0)
(5.70949 -8.76695 0)
(18.5912 -10.816 0)
(5.33734 -9.9459 0)
(49.3881 8.67134 0)
(37.6661 -28.5345 0)
(57.5987 14.8451 0)
(-18.3936 2.9884 0)
(-7.35963 23.0075 0)
(18.6291 -11.916 0)
(1.25664 25.8869 0)
(33.0335 -36.5997 0)
(32.5309 33.4999 0)
(63.6032 -81.4466 0)
(53.6803 -27.9196 0)
(-7.14882 -12.1257 0)
(37.01 -39.597 0)
(0.533867 20.941 0)
(-12.842 17.3811 0)
(-14.5712 21.6912 0)
(-3.58371 29.4687 0)
(-8.41218 12.1241 0)
(-7.4803 18.2642 0)
(-6.88868 13.1932 0)
(-6.24881 12.5043 0)
(-12.5468 6.32876 0)
(-15.8248 8.20667 0)
(-9.34876 2.70241 0)
(-7.59131 6.27304 0)
(-24.3012 -6.69254 0)
(-11.1053 -4.42823 0)
(-86.351 -6.0095 0)
(-6.50667 -9.02951 0)
(-26.5521 15.3101 0)
(-64.8769 12.9145 0)
(16.701 0.646604 0)
(24.7519 2.69548 0)
(15.3839 -5.17062 0)
(8.22908 -8.66969 0)
(17.1574 -17.9675 0)
(3.81123 -8.87779 0)
(24.2789 -26.2443 0)
(21.6685 -10.391 0)
(-24.9085 -35.5104 0)
(34.8338 -25.4603 0)
(-51.3839 -28.6506 0)
(-23.9999 4.64312 0)
(13.8027 -10.1906 0)
(19.7271 -15.9901 0)
(-1.26757 26.7495 0)
(71.8157 39.4509 0)
(35.8453 25.5625 0)
(13.7434 13.2911 0)
(63.9683 -21.3729 0)
(27.9926 -12.8784 0)
(48.8227 -41.2034 0)
(-11.6842 22.9024 0)
(-31.8683 21.854 0)
(1.09045 26.8774 0)
(8.95645 28.0285 0)
(-2.23323 20.6243 0)
(-7.86735 18.6389 0)
(-17.2345 7.85707 0)
(-3.37047 14.1954 0)
(-9.25768 6.99406 0)
(-9.43596 7.30742 0)
(-3.73469 -0.892654 0)
(-2.95817 5.65042 0)
(-4.03594 -7.10182 0)
(-10.3192 -4.39425 0)
(17.1861 10.3392 0)
(-12.7606 -10.3559 0)
(-11.9776 1.7839 0)
(-60.8445 14.7372 0)
(13.0639 -6.34579 0)
(33.2271 1.13041 0)
(-1.99956 -13.4644 0)
(13.5309 -7.72822 0)
(6.76945 -4.74851 0)
(10.5214 -9.42586 0)
(32.0749 -11.5049 0)
(36.6334 -11.9726 0)
(41.4152 16.0974 0)
(28.6214 -26.0441 0)
(52.0753 22.2868 0)
(-30.3471 3.97685 0)
(-8.29226 22.2146 0)
(22.2132 -12.2172 0)
(-4.84674 26.2313 0)
(47.0191 -31.1274 0)
(61.4228 20.4204 0)
(87.008 -75.2846 0)
(86.6931 -25.881 0)
(-14.2571 -4.69716 0)
(37.3996 -29.7874 0)
(-6.74971 29.1019 0)
(-23.9878 21.0077 0)
(-2.52066 19.2077 0)
(1.01433 27.5517 0)
(-5.38784 10.6285 0)
(-4.157 18.9621 0)
(1.98877 12.812 0)
(2.59467 13.3639 0)
(-1.47873 7.29336 0)
(-4.07877 7.69833 0)
(-1.83007 2.20595 0)
(0.680734 5.69004 0)
(-30.6194 -4.77681 0)
(-10.7834 -1.14871 0)
(-88.4273 -6.95846 0)
(-9.40102 -6.74288 0)
(-12.7651 11.3706 0)
(-35.8302 10.0083 0)
(29.4867 -1.12407 0)
(19.6086 -1.51031 0)
(27.1272 -2.85483 0)
(22.7558 -7.58074 0)
(38.9785 -12.685 0)
(9.01046 -10.1666 0)
(33.0201 -24.1463 0)
(49.2922 -11.6002 0)
(-37.2839 -40.1241 0)
(22.0383 -21.6501 0)
(-56.2798 -36.0431 0)
(-35.848 5.1641 0)
(13.4524 -9.48355 0)
(18.5239 -16.5754 0)
(-7.51811 27.072 0)
(120.872 20.983 0)
(107.655 6.95256 0)
(26.7845 14.4067 0)
(90.4313 -15.2741 0)
(24.0999 -6.77488 0)
(44.8603 -29.4848 0)
(-12.4429 18.0901 0)
(-42.7642 25.1273 0)
(-3.07585 27.7304 0)
(7.39417 26.4957 0)
(7.83904 22.913 0)
(-4.25891 17.7317 0)
(-6.33948 9.32007 0)
(6.69429 14.9623 0)
(-0.0794178 5.03266 0)
(1.44103 6.99261 0)
(2.14147 2.59746 0)
(5.31668 5.43968 0)
(-5.67943 -2.40397 0)
(-2.07501 -0.267004 0)
(45.1556 12.0013 0)
(-0.183272 -9.92006 0)
(2.74975 0.427171 0)
(-20.5523 12.6587 0)
(5.96172 -7.1336 0)
(10.1069 -1.71102 0)
(5.53132 -14.2827 0)
(31.4692 -7.55384 0)
(18.0085 -12.4693 0)
(8.71129 -10.9464 0)
(38.1475 -11.7242 0)
(60.803 -12.8589 0)
(30.0351 25.5087 0)
(10.8453 -21.1431 0)
(41.5273 29.9513 0)
(-41.245 4.44583 0)
(-13.9002 21.2282 0)
(17.3896 -13.1112 0)
(-11.2534 26.2033 0)
(98.6001 -10.6227 0)
(-52.2235 -4.00444 0)
(100.692 -43.185 0)
(48.248 -15.5099 0)
(-25.6205 4.78425 0)
(-6.77341 -15.245 0)
(-20.4559 33.3903 0)
(-54.3413 24.5451 0)
(3.93179 16.6106 0)
(14.0065 23.7464 0)
(-1.0942 8.93348 0)
(-0.49902 18.2983 0)
(11.4958 11.4669 0)
(12.0475 13.5429 0)
(8.51923 8.00539 0)
(6.84136 7.32818 0)
(10.6654 2.27414 0)
(9.27105 5.19774 0)
(-11.3843 -3.72982 0)
(4.5886 2.21874 0)
(-64.382 -11.1705 0)
(-2.11647 -6.6077 0)
(-6.89618 6.86421 0)
(1.61464 9.06581 0)
(28.952 -3.47156 0)
(26.1009 -3.95153 0)
(35.3958 -6.28335 0)
(37.1035 -7.95657 0)
(50.0862 -8.498 0)
(4.56531 -11.8645 0)
(33.4584 -19.3241 0)
(65.3457 -11.8196 0)
(-53.7189 -43.8101 0)
(-0.852346 -15.6945 0)
(-63.8525 -43.4518 0)
(-44.1006 5.07919 0)
(9.44441 -9.38057 0)
(6.45452 -17.6923 0)
(-13.7433 26.7936 0)
(-76.4212 -20.7219 0)
(-98.1416 4.76938 0)
(-65.163 -1.45626 0)
(-0.210723 -16.7791 0)
(-39.7227 0.845768 0)
(-7.50251 -18.1131 0)
(-18.094 14.3042 0)
(-60.433 22.1068 0)
(7.44603 24.9813 0)
(13.1802 20.8672 0)
(17.1205 23.4919 0)
(-0.0800994 17.2076 0)
(4.31195 10.5281 0)
(16.2939 14.9869 0)
(9.11394 4.04507 0)
(11.8979 6.78684 0)
(8.24267 4.60202 0)
(15.3772 5.29597 0)
(8.14542 -0.574918 0)
(5.74154 2.22971 0)
(64.5897 15.2792 0)
(19.9196 -10.1355 0)
(38.1375 1.24448 0)
(18.2435 10.7191 0)
(30.4781 -8.05213 0)
(26.3203 -3.4728 0)
(6.80967 -10.9786 0)
(44.0603 -6.47729 0)
(18.2857 -16.9813 0)
(10.9919 -12.5818 0)
(31.1162 -10.6789 0)
(69.3532 -12.6216 0)
(16.3802 34.5962 0)
(-17.134 -14.7735 0)
(25.9895 34.8728 0)
(-50.2728 4.4786 0)
(-26.5044 19.4253 0)
(-0.213867 -14.4114 0)
(-18.4298 25.137 0)
(16.7912 -3.66642 0)
(-80.7312 3.03501 0)
(51.6017 -26.4289 0)
(7.0236 -20.7035 0)
(-33.2826 7.31741 0)
(-20.5302 -8.54373 0)
(-27.3383 30.4849 0)
(-74.8885 21.4367 0)
(3.49255 14.1519 0)
(28.1002 17.3915 0)
(3.69614 8.30236 0)
(2.75352 17.1847 0)
(20.8407 10.2835 0)
(20.2251 13.0541 0)
(19.4844 8.58942 0)
(17.3506 6.93974 0)
(16.0938 3.1587 0)
(18.8723 5.67822 0)
(8.81738 -1.92157 0)
(14.4216 3.05001 0)
(-26.6626 -16.0116 0)
(15.3696 -7.91796 0)
(9.92421 3.50135 0)
(31.8992 8.4324 0)
(36.4393 -1.56455 0)
(42.5948 -5.13 0)
(48.8255 -10.8031 0)
(53.4486 -7.25142 0)
(60.242 -7.31678 0)
(15.6602 -13.2953 0)
(21.4842 -14.4652 0)
(61.3284 -10.1992 0)
(-76.2936 -45.9104 0)
(-32.7569 -8.66237 0)
(-77.3568 -48.173 0)
(-45.4616 4.54506 0)
(-1.23578 -9.71291 0)
(-17.8099 -19.169 0)
(-19.9796 25.0598 0)
(-52.1345 -4.61957 0)
(-40.9327 9.07092 0)
(-70.0432 -6.63412 0)
(-13.81 -18.6846 0)
(-68.0993 6.95019 0)
(-11.5966 -8.76292 0)
(-16.968 7.79805 0)
(-67.3799 15.6724 0)
(24.9289 19.1307 0)
(28.0809 12.6683 0)
(23.9418 22.3828 0)
(6.51735 17.296 0)
(13.7403 10.6291 0)
(23.9422 14.2042 0)
(17.9292 3.4234 0)
(21.4756 6.46751 0)
(19.1512 5.4381 0)
(25.3441 5.54047 0)
(18.123 -1.22478 0)
(14.1211 3.16593 0)
(73.0038 17.0273 0)
(32.2677 -11.348 0)
(67.6846 1.99313 0)
(42.0808 8.76485 0)
(56.836 -11.0093 0)
(43.5772 -4.45195 0)
(20.6883 -7.40471 0)
(53.0666 -4.99219 0)
(14.5335 -16.7281 0)
(15.2102 -12.9106 0)
(8.01054 -5.747 0)
(57.2933 -9.79151 0)
(5.58565 42.6508 0)
(-49.7934 -8.51082 0)
(12.0092 35.9315 0)
(-43.7206 4.14359 0)
(-45.0452 16.394 0)
(-28.0465 -15.6031 0)
(-25.7811 22.2445 0)
(25.7543 -6.71972 0)
(-52.1983 6.32612 0)
(43.4205 -25.2591 0)
(-21.5392 -20.6762 0)
(-21.1236 -7.18918 0)
(-29.6844 -1.48665 0)
(-18.5454 21.7974 0)
(-67.0269 15.3818 0)
(6.84475 12.0864 0)
(24.2543 9.80589 0)
(11.2651 8.69146 0)
(5.93424 16.7977 0)
(28.7875 9.4136 0)
(25.4107 12.2288 0)
(29.9724 9.30265 0)
(26.8211 6.33394 0)
(21.202 3.32675 0)
(27.9824 6.52919 0)
(22.3501 -1.78245 0)
(20.9266 3.03649 0)
(-0.643092 -19.3923 0)
(30.8204 -9.91093 0)
(21.4052 0.427098 0)
(50.3451 7.38682 0)
(37.2665 1.54338 0)
(52.8719 -5.44328 0)
(47.9071 -12.0471 0)
(62.557 -5.65722 0)
(55.1816 -5.60662 0)
(30.9442 -13.3653 0)
(1.47695 -12.5089 0)
(36.5284 -6.43496 0)
(-92.177 -48.1685 0)
(-62.6891 -2.65744 0)
(-86.0782 -48.9545 0)
(-40.2432 3.76243 0)
(-16.9749 -10.3468 0)
(-45.2521 -19.922 0)
(-26.3176 21.1835 0)
(-76.8279 -3.13806 0)
(-42.6623 15.1458 0)
(-93.5807 7.05887 0)
(-34.1349 -18.7876 0)
(-87.8707 29.3944 0)
(17.8829 -2.13039 0)
(-19.437 6.91977 0)
(-10.9124 7.66701 0)
(20.0391 13.9435 0)
(41.1565 5.35559 0)
(25.0011 21.0282 0)
(12.2195 16.2383 0)
(20.6221 9.64385 0)
(28.2177 12.7225 0)
(25.81 2.75887 0)
(29.7064 5.7491 0)
(27.5449 5.97163 0)
(34.0389 6.33361 0)
(27.4665 -2.57563 0)
(26.9173 3.04532 0)
(79.2335 15.7142 0)
(40.749 -13.1464 0)
(85.1658 3.24476 0)
(53.3527 7.01605 0)
(76.1259 -11.983 0)
(50.7736 -4.87828 0)
(45.6676 -5.87179 0)
(57.2748 -3.75358 0)
(8.35651 -14.5383 0)
(32.0436 -11.0333 0)
(-23.329 6.25441 0)
(18.6126 -4.45462 0)
(-4.03524 52.7572 0)
(-75.3608 -3.8633 0)
(-2.31161 34.0095 0)
(-28.1606 3.6547 0)
(-62.7262 12.1003 0)
(-50.4454 -16.1461 0)
(-31.5233 17.2632 0)
(17.5411 -2.55233 0)
(-32.5778 13.327 0)
(76.0529 -21.1866 0)
(6.37042 -25.3839 0)
(87.2014 -23.1717 0)
(42.3585 -3.3873 0)
(52.3733 3.02778 0)
(41.2083 11.5933 0)
(30.7364 9.52998 0)
(46.5047 7.79477 0)
(20.1847 7.76194 0)
(14.0808 17.4278 0)
(34.6817 8.70087 0)
(27.9911 11.0882 0)
(38.81 10.1798 0)
(34.7929 5.2837 0)
(32.1187 3.4726 0)
(33.1019 7.08795 0)
(38.8709 -2.30298 0)
(43.294 2.28411 0)
(11.4162 -20.1055 0)
(39.3228 -11.4304 0)
(22.743 -1.78695 0)
(56.7748 6.30812 0)
(30.3581 2.15262 0)
(48.0772 -5.35422 0)
(43.3044 -9.79834 0)
(69.057 -4.56273 0)
(36.3198 -0.822293 0)
(32.5651 -10.5968 0)
(-25.2437 -18.2649 0)
(-15.5011 -0.6069 0)
(-94.4945 -58.2105 0)
(-63.49 0.464881 0)
(-79.08 -49.4361 0)
(-17.0331 2.6913 0)
(-27.7445 -11.0693 0)
(-55.9357 -19.3546 0)
(-32.5753 15.5291 0)
(-26.9103 -11.1042 0)
(-23.1059 16.5193 0)
(-29.4195 -15.3415 0)
(-12.882 -25.101 0)
(-8.57371 18.7179 0)
(-7.28536 -5.73745 0)
(33.881 6.46844 0)
(15.1886 6.80726 0)
(28.7789 13.0866 0)
(35.1658 8.36992 0)
(26.378 20.1488 0)
(17.3274 17.6985 0)
(25.8151 7.41169 0)
(29.2866 11.1517 0)
(29.7642 1.14334 0)
(40.5155 4.83851 0)
(41.9583 6.02627 0)
(29.7641 5.71327 0)
(48.9477 -3.13501 0)
(57.773 1.49616 0)
(80.7396 12.6558 0)
(41.1195 -13.4174 0)
(85.9199 2.52984 0)
(58.6084 5.98435 0)
(85.6693 -10.366 0)
(49.6232 -5.33856 0)
(57.5873 -3.94911 0)
(52.1722 -2.8076 0)
(-29.3747 -2.90719 0)
(27.5175 -5.16168 0)
(-37.0491 22.808 0)
(-75.3515 -0.127249 0)
(14.1728 63.1631 0)
(-44.7159 -2.73649 0)
(4.59359 38.8579 0)
(-7.79854 3.29001 0)
(-69.927 7.4955 0)
(-49.3648 -14.697 0)
(-36.2417 11.1587 0)
(6.88489 3.33751 0)
(-18.2317 15.9017 0)
(7.68398 -17.1841 0)
(-7.58882 -25.1911 0)
(11.8634 -11.7266 0)
(-14.7618 -6.20868 0)
(13.6587 16.1628 0)
(4.7916 6.60493 0)
(22.9642 11.2233 0)
(24.6462 7.32081 0)
(24.5201 8.86231 0)
(18.8297 17.5231 0)
(42.1258 9.04036 0)
(24.621 9.16691 0)
(40.9762 10.3209 0)
(53.9332 4.9681 0)
(42.5625 1.69155 0)
(25.5365 5.53444 0)
(59.8515 -3.39621 0)
(69.6268 -0.452904 0)
(14.2641 -17.0803 0)
(29.8798 -10.5682 0)
(26.3109 0.647874 0)
(57.9947 5.23141 0)
(16.247 0.529098 0)
(25.101 -4.70956 0)
(19.6568 -4.23961 0)
(54.9649 -3.02071 0)
(-30.9004 -7.27115 0)
(21.9884 -2.00185 0)
(-62.2039 -30.1875 0)
(0.939763 1.82923 0)
(-68.2922 -63.3513 0)
(-33.5251 -2.35596 0)
(-62.8061 -55.716 0)
(5.7091 2.94714 0)
(-26.2831 -10.7133 0)
(-43.0274 -16.9797 0)
(-39.9646 9.51599 0)
(-18.2566 -13.3567 0)
(1.04872 18.1184 0)
(-32.871 -12.4167 0)
(-11.2905 -23.5436 0)
(-23.659 11.7015 0)
(-37.9827 -7.24723 0)
(12.2629 -0.939985 0)
(-10.745 2.55532 0)
(19.8228 18.4369 0)
(19.5502 6.46854 0)
(23.2613 17.4735 0)
(16.0211 17.1354 0)
(34.9409 4.54303 0)
(21.4534 7.85023 0)
(38.4737 -0.184926 0)
(60.2477 4.56984 0)
(49.8318 3.54695 0)
(17.6875 4.25401 0)
(56.1618 -5.39735 0)
(70.694 -1.16652 0)
(68.1892 8.85101 0)
(21.4568 -11.3199 0)
(61.099 -3.63346 0)
(59.8204 5.67454 0)
(64.3692 -7.11076 0)
(39.9705 -4.91395 0)
(53.068 -1.73363 0)
(27.943 -2.31438 0)
(39.9808 6.0428 0)
(44.4058 -1.1839 0)
(52.175 30.3734 0)
(-14.8343 1.0671 0)
(37.3656 62.9995 0)
(-30.0558 -1.43037 0)
(25.5554 45.2555 0)
(23.4361 3.68528 0)
(-68.8648 3.39272 0)
(-30.395 -11.0785 0)
(-44.7468 5.21194 0)
(21.2102 8.84668 0)
(-4.38224 15.8859 0)
(-20.4293 -13.7324 0)
(11.6847 -18.8494 0)
(-24.3546 -12.1533 0)
(-45.9121 -6.80475 0)
(-7.5337 3.60677 0)
(-7.03115 0.659101 0)
(14.3907 -2.78862 0)
(-27.3324 3.99683 0)
(19.0119 9.03005 0)
(19.6432 16.6145 0)
(45.4566 8.94088 0)
(6.18869 4.86902 0)
(38.9515 9.15682 0)
(67.9643 5.30319 0)
(36.0662 -0.806401 0)
(21.4054 4.57928 0)
(55.3435 -4.06411 0)
(65.85 -3.33973 0)
(6.69907 -12.649 0)
(6.47339 -8.27967 0)
(43.3813 7.9071 0)
(55.9406 3.3819 0)
(5.53162 -1.13207 0)
(18.3406 -2.54835 0)
(8.58494 -4.06686 0)
(27.666 -2.50521 0)
(-19.8017 -8.01414 0)
(3.82538 0.590281 0)
(-75.0138 -28.1192 0)
(-40.7402 4.51786 0)
(-48.0594 -53.3071 0)
(-54.6993 -3.11501 0)
(-32.1767 -54.7293 0)
(46.2463 2.69262 0)
(-22.9032 -10.0376 0)
(-17.4727 -11.6581 0)
(-61.339 3.7805 0)
(-0.804946 -12.4427 0)
(-5.82232 16.1353 0)
(-18.631 -14.3068 0)
(12.3841 -16.8398 0)
(-26.8327 5.9701 0)
(-44.9046 -5.88017 0)
(-30.5613 7.3746 0)
(-15.3757 1.07945 0)
(-24.449 29.5063 0)
(-44.5972 3.30773 0)
(12.8635 10.718 0)
(24.1003 12.4081 0)
(26.9299 0.572538 0)
(15.1111 3.28327 0)
(49.383 1.7029 0)
(55.9696 2.77196 0)
(49.0459 3.68152 0)
(19.5153 4.61728 0)
(39.5114 -4.58329 0)
(55.3685 -2.26487 0)
(47.8269 7.09601 0)
(7.09527 -8.7994 0)
(36.6098 -8.84586 0)
(41.4528 4.08296 0)
(43.33 -1.97251 0)
(2.22886 -2.96836 0)
(6.91729 6.13995 0)
(36.8483 -0.229419 0)
(-19.8385 9.59173 0)
(15.4196 2.26253 0)
(-2.30347 22.3932 0)
(7.0459 3.42192 0)
(35.4335 47.9221 0)
(-30.1286 -5.47356 0)
(61.072 48.7812 0)
(32.3467 1.09023 0)
(-76.942 4.10608 0)
(-11.8448 -3.03218 0)