/*--------------------------------*- C++ -*----------------------------------*\
  =========                 |
  \\      /  F ield         | OpenFOAM: The Open Source CFD Toolbox
   \\    /   O peration     | Website:  https://openfoam.org
    \\  /    A nd           | Version:  6
     \\/     M anipulation  |
\*---------------------------------------------------------------------------*/
FoamFile
{
    version     2.0;
    format      ascii;
    class       volVectorField;
    location    "2.41";
    object      U;
}
// * * * * * * * * * * * * * * * * * * * * * * * * * * * * * * * * * * * * * //

dimensions      [0 1 -1 0 0 0 0];

internalField   nonuniform List<vector> 
4214
(
(4.91903 -0.0968543 0)
(5.03796 -0.0325997 -7.73029e-21)
(5.06743 0.0298843 6.73349e-21)
(5.07779 0.0778472 -3.17914e-20)
(5.09163 0.123801 4.19299e-21)
(5.11074 0.167912 2.62479e-20)
(5.1302 0.208244 -1.0218e-20)
(5.14472 0.245634 1.10672e-21)
(5.15142 0.280883 8.2418e-21)
(5.14899 0.313877 0)
(5.13666 0.343994 0)
(5.11457 0.370649 9.72049e-22)
(5.08501 0.393626 -2.76091e-22)
(5.05456 0.413554 0)
(5.03737 0.43267 0)
(5.05242 0.453307 0)
(5.10177 0.478305 -2.644e-21)
(5.15469 0.499745 3.47834e-21)
(5.13099 0.515585 1.10416e-20)
(4.93464 0.499589 1.32922e-20)
(4.60406 0.411319 0)
(4.53457 0.234253 3.89914e-22)
(4.7552 0.107197 -7.93753e-21)
(4.92798 0.0129037 3.5242e-22)
(4.94453 -0.0696096 -4.66345e-21)
(4.91435 -0.142751 -3.06464e-21)
(4.90294 -0.197716 0)
(4.91762 -0.234553 6.86863e-23)
(4.94352 -0.256164 0)
(4.96969 -0.265342 0)
(4.99181 -0.264805 0)
(5.00832 -0.256679 7.41994e-22)
(5.01847 -0.242247 5.85926e-22)
(5.02199 -0.222106 -2.13518e-21)
(5.0195 -0.19641 4.20786e-21)
(5.01313 -0.164775 -7.0174e-21)
(5.00754 -0.126861 -1.98016e-20)
(5.00565 -0.0845887 1.42894e-20)
(5.00613 -0.0389428 0)
(4.98809 0.0169273 7.77439e-20)
(4.8815 0.0785075 -5.42415e-20)
(5.15102 -0.0511659 -2.0282e-20)
(5.16639 0.0143851 7.8393e-21)
(5.1714 0.0686602 3.12017e-20)
(5.17477 0.108259 -1.05274e-19)
(5.18558 0.151137 5.18836e-21)
(5.19989 0.194714 3.84306e-20)
(5.21274 0.236271 0)
(5.2207 0.276115 1.98269e-22)
(5.22104 0.314414 6.80579e-22)
(5.21167 0.350894 -3.89225e-21)
(5.19164 0.38497 1.49886e-21)
(5.16169 0.416075 -6.03473e-21)
(5.12557 0.444123 2.81256e-22)
(5.09182 0.47051 2.04242e-21)
(5.07483 0.497365 -5.36415e-21)
(5.09192 0.527202 0)
(5.13974 0.557641 2.67761e-21)
(5.18043 0.575052 -3.51143e-21)
(5.1315 0.572614 -1.11073e-20)
(4.86953 0.521348 -1.33219e-20)
(4.4672 0.392337 -7.74731e-23)
(4.38761 0.211979 8.43833e-23)
(4.65922 0.107055 7.10603e-21)
(4.85549 0.0155458 0)
(4.88716 -0.0731799 4.56777e-21)
(4.87127 -0.151608 -6.52984e-21)
(4.87479 -0.209123 3.96177e-21)
(4.90086 -0.246641 -3.7998e-22)
(4.93462 -0.268066 0)
(4.9662 -0.276948 0)
(4.99228 -0.276338 0)
(5.01225 -0.268498 -7.58426e-22)
(5.02621 -0.254848 1.79721e-21)
(5.03455 -0.236107 0)
(5.03826 -0.212589 8.46627e-21)
(5.03922 -0.184263 5.40259e-21)
(5.04044 -0.150864 4.10573e-20)
(5.04697 -0.115289 -6.31221e-20)
(5.06106 -0.0820861 1.1798e-19)
(5.07449 -0.0400595 -3.51083e-20)
(5.07884 0.0158535 1.16158e-19)
(5.19587 -0.0282657 2.98997e-19)
(5.19918 0.0303991 0)
(5.21055 0.0829134 2.04576e-20)
(5.22098 0.124058 -8.59177e-20)
(5.23362 0.167255 8.37727e-20)
(5.24714 0.210294 3.52325e-21)
(5.25831 0.252173 0)
(5.26386 0.292987 0)
(5.26133 0.332791 -7.69681e-21)
(5.24894 0.371469 -8.82989e-21)
(5.22586 0.408826 9.81245e-21)
(5.19325 0.444526 -4.40311e-21)
(5.15579 0.478598 1.66371e-21)
(5.12291 0.512381 -2.078e-21)
(5.10856 0.547027 6.51765e-21)
(5.12499 0.584046 -1.12026e-21)
(5.1642 0.617181 -5.67021e-22)
(5.18375 0.631695 4.17122e-22)
(5.10965 0.605528 -6.41306e-20)
(4.79998 0.515301 7.34152e-20)
(4.36769 0.353734 1.65922e-23)
(4.32 0.182725 8.83129e-20)
(4.61888 0.0979169 2.1259e-22)
(4.82885 0.0094467 -2.31699e-22)
(4.85447 -0.0822897 0)
(4.84787 -0.160828 9.36261e-21)
(4.8596 -0.21801 -1.00277e-20)
(4.89166 -0.255033 7.97722e-22)
(4.92945 -0.275966 3.63291e-21)
(4.9639 -0.284514 -6.4063e-21)
(4.99205 -0.283728 3.39482e-21)
(5.01371 -0.275902 6.50415e-22)
(5.02932 -0.262512 -1.44434e-20)
(5.0395 -0.244344 -2.3177e-20)
(5.04532 -0.221755 0)
(5.04867 -0.194858 -1.84091e-20)
(5.05229 -0.16345 0)
(5.05988 -0.129226 6.0407e-20)
(5.07302 -0.0962078 2.53426e-20)
(5.08415 -0.0573807 -5.53327e-20)
(5.10167 -0.0123571 1.59689e-19)
(5.25553 -0.00680966 1.54879e-19)
(5.26535 0.0566632 -1.48826e-19)
(5.27757 0.10351 -1.31002e-19)
(5.28795 0.143967 2.28504e-19)
(5.29936 0.185447 -2.33386e-19)
(5.31045 0.226809 1.05191e-19)
(5.31842 0.267883 4.49336e-20)
(5.32055 0.308811 -3.23201e-20)
(5.31476 0.349762 2.91608e-21)
(5.29946 0.390941 -4.05089e-21)
(5.27387 0.43249 9.20226e-21)
(5.23935 0.47432 1.66199e-20)
(5.20117 0.516587 9.26442e-21)
(5.16962 0.560223 1.20599e-21)
(5.15762 0.605687 -1.25601e-21)
(5.1722 0.651503 -2.25344e-21)
(5.19678 0.687486 2.37291e-21)
(5.1838 0.692786 -7.01765e-20)
(5.05954 0.633723 -1.90186e-20)
(4.69683 0.494905 -1.71127e-19)
(4.24437 0.304592 0)
(4.24037 0.145061 -3.12087e-19)
(4.5642 0.0780764 1.14995e-21)
(4.76913 -0.00445569 7.71786e-20)
(4.81111 -0.0975198 -9.87794e-22)
(4.8154 -0.175728 0)
(4.83828 -0.231572 5.78193e-21)
(4.87865 -0.267202 -9.97371e-22)
(4.92221 -0.287037 -1.8397e-21)
(4.96077 -0.294812 4.43711e-22)
(4.9919 -0.293488 3.77524e-21)
(5.01594 -0.285398 -1.16281e-20)
(5.03384 -0.272072 1.52418e-20)
(5.04656 -0.25436 4.20895e-20)
(5.05536 -0.23267 -1.79526e-20)
(5.06211 -0.2072 -8.91752e-20)
(5.06924 -0.177954 0)
(5.07984 -0.146102 0)
(5.09521 -0.114894 -7.40971e-20)
(5.10794 -0.0800821 -8.40373e-20)
(5.12531 -0.0379895 -1.84653e-19)
(5.31531 0.0173523 -2.45563e-19)
(5.32866 0.0834268 -1.91885e-19)
(5.33974 0.12146 0)
(5.35031 0.159697 -1.39616e-19)
(5.36077 0.198124 1.62145e-19)
(5.36999 0.236878 7.42263e-20)
(5.37565 0.27628 -5.25032e-21)
(5.37559 0.316698 -7.40068e-20)
(5.36814 0.358586 -1.36455e-21)
(5.35193 0.402441 2.4051e-20)
(5.32619 0.448749 -4.45226e-20)
(5.29246 0.497841 4.46579e-20)
(5.25633 0.549995 -2.69324e-20)
(5.22822 0.605735 1.98567e-21)
(5.21802 0.664181 0)
(5.22848 0.719466 -6.7014e-20)
(5.22699 0.756667 -5.78827e-21)
(5.1617 0.738725 7.00589e-20)
(4.97298 0.641512 8.44153e-20)
(4.5628 0.453172 3.43574e-19)
(4.11262 0.23793 9.0866e-22)
(4.1745 0.0967195 2.24361e-19)
(4.51794 0.0469747 -4.76775e-21)
(4.7315 -0.0290853 -7.11309e-20)
(4.76647 -0.120989 -2.42258e-21)
(4.78278 -0.196409 4.06544e-20)
(4.81685 -0.24881 1.94878e-20)
(4.86511 -0.281811 -1.41158e-21)
(4.91451 -0.299973 -1.32081e-20)
(4.95722 -0.306619 3.19396e-21)
(4.99142 -0.30448 5.9041e-21)
(5.0179 -0.295876 -2.5856e-22)
(5.03798 -0.282369 1.36742e-20)
(5.05294 -0.264857 -3.11246e-20)
(5.06418 -0.243782 1.41619e-19)
(5.07357 -0.219367 -3.71128e-20)
(5.08337 -0.191711 -5.00631e-20)
(5.09602 -0.161774 9.98854e-20)
(5.11286 -0.131418 -3.90721e-19)
(5.12913 -0.101207 1.01802e-19)
(5.14612 -0.0583783 0)
(5.37591 0.045687 0)
(5.39199 0.104464 2.91374e-19)
(5.40195 0.135393 -2.20302e-19)
(5.41145 0.168917 0)
(5.42067 0.20297 0)
(5.42843 0.238408 8.20951e-20)
(5.43266 0.27577 -3.95772e-20)
(5.43169 0.315585 0)
(5.42419 0.358491 -3.19766e-20)
(5.409 0.405274 3.22818e-20)
(5.38559 0.457003 5.63946e-20)
(5.35567 0.514815 -3.03738e-20)
(5.32458 0.578947 1.36133e-20)
(5.30145 0.649271 1.7031e-20)
(5.29062 0.720201 -2.38484e-20)
(5.29078 0.782694 1.48949e-19)
(5.24323 0.815431 0)
(5.10904 0.76358 2.03986e-19)
(4.84722 0.623775 0)
(4.39356 0.386179 4.91255e-20)
(3.9714 0.150577 0)
(4.1016 0.0405989 3.17496e-19)
(4.47361 0.00501231 2.82581e-19)
(4.66682 -0.0667867 -2.17478e-19)
(4.71925 -0.154571 7.8983e-20)
(4.74802 -0.224322 -4.32455e-20)
(4.7932 -0.270933 -3.55178e-20)
(4.84993 -0.300009 3.75452e-21)
(4.90573 -0.315783 2.40032e-20)
(4.95304 -0.320744 -2.48287e-20)
(4.99071 -0.317409 0)
(5.01991 -0.307987 0)
(5.04235 -0.294041 5.58539e-22)
(5.05962 -0.276485 4.33286e-20)
(5.07327 -0.255769 -6.33357e-20)
(5.08518 -0.232133 9.44623e-20)
(5.09749 -0.205702 0)
(5.11232 -0.17741 6.56915e-20)
(5.13038 -0.147825 1.82907e-19)
(5.15022 -0.121061 0)
(5.16677 -0.0790114 2.88187e-19)
(5.43188 0.0696386 3.8597e-19)
(5.44809 0.114855 -6.46231e-20)
(5.4571 0.139402 2.60729e-19)
(5.4664 0.167648 -2.56035e-19)
(5.47568 0.197555 2.50152e-19)
(5.48332 0.230195 -2.30426e-19)
(5.48759 0.266043 -1.5057e-19)
(5.48727 0.305649 -7.33966e-21)
(5.48149 0.349751 -1.00256e-19)
(5.46968 0.399659 8.90596e-20)
(5.45205 0.457534 -5.79738e-20)
(5.42999 0.525735 0)
(5.4071 0.603715 0)
(5.38891 0.689532 -1.50922e-20)
(5.37029 0.769172 2.14534e-20)
(5.34683 0.831663 -7.3453e-20)
(5.23574 0.846291 1.40504e-19)
(5.01997 0.763844 2.55616e-20)
(4.67548 0.574698 0)
(4.18881 0.289922 -2.98394e-19)
(3.8279 0.0445653 0)
(4.04252 -0.0227399 -3.22781e-19)
(4.42568 -0.052935 -2.76099e-19)
(4.61617 -0.120935 4.63022e-19)
(4.66789 -0.200881 -7.7698e-20)
(4.71095 -0.260915 4.40151e-21)
(4.76814 -0.299015 1.40544e-20)
(4.83378 -0.322684 1.15906e-21)
(4.89604 -0.335024 1.68282e-20)
(4.94824 -0.33761 4.42823e-20)
(4.9897 -0.332629 1.62865e-20)
(5.0219 -0.322051 1.96037e-20)
(5.04687 -0.30739 -3.95167e-20)
(5.0665 -0.289532 -4.44201e-20)
(5.08249 -0.268908 0)
(5.09677 -0.245761 -1.92486e-19)
(5.11135 -0.220215 2.71796e-19)
(5.12814 -0.193119 -6.6649e-20)
(5.14739 -0.164507 4.05943e-19)
(5.16985 -0.139591 -7.62946e-20)
(5.18752 -0.0996605 -3.09191e-19)
(5.48071 0.0809525 2.67358e-19)
(5.49516 0.111876 -3.81816e-19)
(5.50495 0.131901 -3.15537e-19)
(5.51605 0.156372 6.11415e-19)
(5.52695 0.183764 -3.12458e-19)
(5.53579 0.214957 -7.62732e-20)
(5.54124 0.250177 1.28473e-19)
(5.54272 0.289943 -1.52001e-20)
(5.54024 0.335174 1.03375e-19)
(5.53466 0.388132 -9.17989e-20)
(5.52715 0.452511 0)
(5.51703 0.531803 0)
(5.50382 0.623569 0)
(5.48558 0.723303 6.70828e-20)
(5.44339 0.806686 0)
(5.38059 0.854312 0)
(5.19379 0.85006 -1.55442e-19)
(4.88584 0.730099 -2.24745e-19)
(4.45394 0.492695 0)
(3.95205 0.165044 -8.15127e-19)
(3.69016 -0.0729016 6.21431e-21)
(3.99058 -0.0982002 -8.56692e-19)
(4.3685 -0.134942 -3.6964e-19)
(4.54532 -0.196174 3.32819e-20)
(4.61405 -0.262287 0)
(4.67309 -0.308088 -1.16913e-19)
(4.74239 -0.334739 0)
(4.81676 -0.351 0)
(4.88547 -0.358531 5.81235e-21)
(4.94283 -0.357884 -2.31181e-20)
(4.98843 -0.350683 -1.5393e-20)
(5.02392 -0.338548 -1.90263e-20)
(5.05166 -0.322869 2.58962e-20)
(5.07381 -0.304438 5.74616e-20)
(5.09221 -0.283629 -5.72958e-20)
(5.10882 -0.260677 1.24739e-19)
(5.12559 -0.235691 -1.37563e-19)
(5.14422 -0.209424 0)
(5.16477 -0.181691 -3.27006e-19)
(5.18889 -0.157568 -3.92754e-19)
(5.2081 -0.120811 -4.02815e-19)
(5.52013 0.0777687 4.18592e-19)
(5.53511 0.0991832 4.63325e-20)
(5.54882 0.117464 3.78092e-19)
(5.56357 0.140695 -3.19958e-19)
(5.57695 0.167482 -3.50097e-19)
(5.5875 0.198455 4.24392e-19)
(5.59453 0.23357 1.77725e-19)
(5.59837 0.273371 0)
(5.60067 0.319085 0)
(5.60432 0.374106 0)
(5.611 0.443729 5.19896e-20)
(5.61509 0.531741 1.65058e-19)
(5.60989 0.634253 -1.68867e-19)
(5.58193 0.744186 -6.23973e-20)
(5.49936 0.825834 -6.82923e-21)
(5.39051 0.859578 0)
(5.10865 0.832491 0)
(4.69853 0.659924 0)
(4.18426 0.380279 0)
(3.69273 0.0179717 1.29145e-18)
(3.56181 -0.198661 -7.12384e-21)
(3.93376 -0.194864 8.55525e-19)
(4.29666 -0.24685 7.85919e-19)
(4.47415 -0.29494 -2.66089e-19)
(4.55821 -0.340339 0)
(4.63534 -0.367795 1.09533e-19)
(4.71696 -0.379757 5.40227e-21)
(4.79939 -0.386223 1.0784e-20)
(4.8743 -0.387306 -3.18611e-20)
(4.93692 -0.382339 0)
(4.98692 -0.372188 1.74219e-20)
(5.02602 -0.358006 0)
(5.05681 -0.34097 -2.4502e-20)
(5.08167 -0.32168 0)
(5.10261 -0.300395 -7.00778e-20)
(5.12162 -0.277335 6.94148e-20)
(5.14056 -0.2526 1.70376e-19)
(5.16099 -0.226844 9.28146e-20)
(5.1829 -0.199794 -2.91415e-19)
(5.20837 -0.176256 3.7079e-19)
(5.22867 -0.141898 1.65535e-19)
(5.55618 0.066466 0)
(5.57603 0.0859532 -4.33133e-19)
(5.5951 0.10502 3.00686e-21)
(5.6134 0.129244 8.23765e-19)
(5.62862 0.156521 -6.15375e-21)
(5.64023 0.187637 -6.20139e-19)
(5.64831 0.222315 -1.97553e-19)
(5.65454 0.261259 1.83976e-19)
(5.66258 0.30595 -1.84491e-19)
(5.67726 0.36024 -3.62298e-19)
(5.69958 0.4309 6.79103e-20)
(5.71612 0.520689 4.70418e-20)
(5.7141 0.627455 1.16947e-19)
(5.66752 0.739929 -2.52624e-20)
(5.53515 0.817293 2.42374e-20)
(5.37335 0.854918 1.89365e-21)
(4.96819 0.790546 -2.86479e-20)
(4.45546 0.558859 2.9888e-20)
(3.87506 0.244391 4.4651e-19)
(3.42076 -0.140716 -9.95801e-19)
(3.43934 -0.332885 0)
(3.861 -0.322072 0)
(4.20758 -0.389199 -4.21757e-19)
(4.39757 -0.417796 -3.3551e-19)
(4.50323 -0.436424 -1.04238e-20)
(4.59985 -0.441742 1.3949e-19)
(4.69331 -0.435751 0)
(4.7826 -0.429742 -1.04533e-20)
(4.86308 -0.422503 1.28709e-20)
(4.93082 -0.411889 -1.33311e-20)
(4.98532 -0.397881 -4.55522e-20)
(5.02832 -0.38106 -6.92046e-21)
(5.06248 -0.362256 1.15356e-19)
(5.09028 -0.341792 -6.14419e-20)
(5.11397 -0.319731 -1.51705e-19)
(5.13549 -0.296251 2.42329e-19)
(5.15668 -0.271468 -1.61965e-19)
(5.17898 -0.245937 0)
(5.20235 -0.219371 0)
(5.22903 -0.19615 0)
(5.25014 -0.163497 1.90454e-19)
(5.59987 0.0599029 6.29828e-19)
(5.62654 0.0846582 -5.73432e-19)
(5.6484 0.103958 0)
(5.66816 0.129612 -1.38757e-19)
(5.6835 0.157149 2.72006e-19)
(5.69471 0.187785 -2.24004e-19)
(5.70273 0.221009 4.51405e-19)
(5.71079 0.257567 -2.4972e-19)
(5.72413 0.299072 4.7668e-19)
(5.74873 0.34794 3.7606e-19)
(5.78364 0.412933 0)
(5.8064 0.493839 -2.21669e-19)
(5.80143 0.595218 -1.72445e-20)
(5.73063 0.701456 -5.97201e-20)
(5.54809 0.777664 0)
(5.32435 0.819127 -9.36649e-21)
(4.76943 0.728699 1.34549e-19)
(4.1616 0.436013 0)
(3.53826 0.0956203 -4.56086e-19)
(3.14289 -0.299337 5.32964e-19)
(3.3139 -0.479674 0)
(3.76073 -0.484493 0)
(4.10353 -0.558756 4.71962e-19)
(4.32324 -0.562573 3.43878e-19)
(4.45276 -0.548556 1.8242e-20)
(4.5694 -0.53081 -1.26694e-19)
(4.67333 -0.504081 -3.333e-20)
(4.76784 -0.482838 -2.30815e-20)
(4.85284 -0.465286 2.39818e-20)
(4.92519 -0.447534 3.05706e-20)
(4.98403 -0.428603 0)
(5.03113 -0.408453 -5.85992e-20)
(5.06894 -0.387375 4.25144e-20)
(5.09995 -0.365361 7.31269e-20)
(5.1266 -0.342205 8.03114e-20)
(5.15084 -0.317988 -1.57361e-19)
(5.17445 -0.292857 -1.93411e-19)
(5.19879 -0.267282 0)
(5.22383 -0.240987 0)
(5.25173 -0.217808 0)
(5.27377 -0.18654 0)
(5.65844 0.0691167 -2.01125e-18)
(5.68825 0.0993792 6.28175e-19)
(5.70885 0.118653 0)
(5.72727 0.144423 7.58264e-19)
(5.74112 0.171373 -8.87214e-19)
(5.75051 0.200467 -5.92693e-19)
(5.7573 0.231338 2.69676e-19)
(5.76596 0.263868 8.6004e-19)
(5.78219 0.300268 -2.37773e-19)
(5.81204 0.33868 -5.65145e-19)
(5.8522 0.391424 -2.42944e-19)
(5.87314 0.452355 4.57302e-19)
(5.86208 0.538162 0)
(5.76555 0.634555 -3.08129e-19)
(5.53551 0.712487 -2.56033e-19)
(5.2462 0.747185 3.11863e-20)
(4.51852 0.652364 -2.22044e-19)
(3.82619 0.308192 2.63989e-20)
(3.18349 -0.0558085 -2.74536e-20)
(2.8627 -0.450314 6.07209e-19)
(3.17154 -0.645971 1.95177e-20)
(3.62831 -0.677869 -6.12197e-19)
(3.98927 -0.746884 -5.00623e-19)
(4.25256 -0.724122 -3.42075e-19)
(4.40936 -0.674526 -1.65648e-20)
(4.54606 -0.634274 -2.24048e-20)
(4.65885 -0.584753 5.32411e-20)
(4.75679 -0.546264 4.17146e-20)
(4.84494 -0.516617 -1.08101e-19)
(4.92096 -0.490252 1.72302e-19)
(4.9838 -0.465251 -1.03034e-19)
(5.03501 -0.441031 7.30308e-20)
(5.07666 -0.417073 8.74544e-20)
(5.11116 -0.393059 -2.28913e-19)
(5.14099 -0.368435 8.00404e-20)
(5.16817 -0.343165 3.75914e-19)
(5.19445 -0.31737 1.98714e-19)
(5.22109 -0.291486 -1.98378e-19)
(5.24814 -0.265218 2.3538e-19)
(5.27746 -0.241753 0)
(5.30087 -0.211535 0)
(5.7291 0.101063 5.53311e-19)
(5.75593 0.128422 -7.27723e-19)
(5.77278 0.147541 0)
(5.78788 0.17124 0)
(5.79948 0.196834 0)
(5.80645 0.223625 3.30129e-19)
(5.81125 0.25229 7.31825e-19)
(5.81861 0.279669 -2.98514e-19)
(5.83367 0.310378 -6.42142e-19)
(5.862 0.335168 8.83855e-19)
(5.89827 0.371669 -3.44407e-19)
(5.91018 0.40583 -5.10101e-19)
(5.89157 0.469211 -7.30708e-19)
(5.77959 0.555185 3.194e-19)
(5.49577 0.633467 -1.07331e-19)
(5.13556 0.653512 -6.07003e-20)
(4.21646 0.557061 9.65077e-20)
(3.46088 0.19224 0)
(2.81496 -0.207229 -3.60363e-20)
(2.57772 -0.592411 6.61242e-19)
(3.00097 -0.83151 0)
(3.46918 -0.89464 1.21759e-18)
(3.8748 -0.947288 0)
(4.1907 -0.901935 3.80204e-19)
(4.37513 -0.814743 0)
(4.53148 -0.750238 0)
(4.65193 -0.677167 -1.02614e-20)
(4.75139 -0.619906 -8.54524e-21)
(4.84083 -0.576789 0)
(4.91913 -0.540676 -8.74132e-20)
(4.98541 -0.508585 8.19281e-22)
(5.04054 -0.479585 1.8866e-19)
(5.08609 -0.452115 -1.61533e-19)
(5.12431 -0.425614 0)
(5.15756 -0.399082 0)
(5.1879 -0.372427 -1.77483e-19)
(5.2171 -0.345641 2.12186e-19)
(5.24628 -0.31922 -2.08474e-19)
(5.27569 -0.292799 -4.64662e-19)
(5.30674 -0.268898 2.59481e-19)
(5.3324 -0.239671 -2.53589e-19)
(5.80205 0.142964 -1.79022e-20)
(5.82241 0.165309 0)
(5.83574 0.183711 -8.47606e-19)
(5.84725 0.204442 8.29964e-19)
(5.85684 0.229013 8.31289e-19)
(5.86141 0.253183 -8.20285e-19)
(5.86391 0.281449 -7.68099e-19)
(5.86782 0.303723 -4.49467e-19)
(5.877 0.329626 -3.90822e-19)
(5.89769 0.340513 3.54344e-19)
(5.92252 0.360107 2.84001e-19)
(5.92294 0.369375 -6.81065e-19)
(5.90005 0.405913 5.07773e-19)
(5.78118 0.479172 0)
(5.4265 0.552987 3.05999e-19)
(4.98499 0.556699 2.4128e-19)
(3.87371 0.444458 7.38977e-20)
(3.08066 0.0905714 -3.69213e-19)
(2.43082 -0.36177 0)
(2.27431 -0.72729 -6.69011e-19)
(2.7874 -1.03004 0)
(3.29189 -1.13041 5.53628e-19)
(3.7707 -1.15922 0)
(4.1477 -1.09874 3.8214e-19)
(4.35541 -0.972517 -2.08595e-19)
(4.53108 -0.877389 -6.35455e-20)
(4.65583 -0.780591 0)
(4.75407 -0.702553 -6.66426e-20)
(4.84227 -0.645081 0)
(4.92131 -0.598597 1.22251e-19)
(4.99006 -0.558761 -2.6233e-19)
(5.0485 -0.52442 1.60618e-19)
(5.0978 -0.4929 1.89771e-20)
(5.13982 -0.463449 -1.82657e-19)
(5.17665 -0.434604 1.80576e-19)
(5.21033 -0.406156 2.09317e-19)
(5.24253 -0.378099 -2.05638e-19)
(5.2744 -0.350969 2.40227e-19)
(5.30634 -0.324458 9.8596e-19)
(5.33951 -0.300287 -4.91548e-19)
(5.3682 -0.272527 0)
(5.869 0.183765 -1.70874e-18)
(5.88385 0.200656 0)
(5.89598 0.21985 5.06005e-19)
(5.90479 0.237551 0)
(5.91333 0.26342 -5.07019e-19)
(5.91574 0.284927 0)
(5.9154 0.316013 1.01363e-18)
(5.91441 0.334379 8.83907e-19)
(5.91333 0.357377 0)
(5.92187 0.357369 0)
(5.93113 0.360965 8.84514e-19)
(5.92323 0.355901 1.17086e-18)
(5.89206 0.359418 -3.89004e-19)
(5.77701 0.416297 0)
(5.33236 0.476042 5.90866e-19)
(4.81546 0.464285 -1.49742e-19)
(3.51636 0.346962 -2.84755e-20)
(2.69319 0.00710032 2.78074e-21)
(2.01361 -0.508256 -3.61953e-20)
(1.92729 -0.85077 3.0765e-21)
(2.51983 -1.22582 1.98621e-20)
(3.09385 -1.37844 -1.68089e-18)
(3.67511 -1.38361 -3.28038e-20)
(4.12624 -1.31672 -6.09248e-19)
(4.35736 -1.15151 8.70471e-20)
(4.55437 -1.01509 6.3371e-20)
(4.67607 -0.894907 -1.11618e-19)
(4.7685 -0.793159 1.38438e-20)
(4.85279 -0.720997 -4.66601e-20)
(4.93094 -0.663265 -5.99318e-20)
(5.00039 -0.615258 -8.40777e-20)
(5.0611 -0.574814 1.55572e-19)
(5.11353 -0.538996 -1.97948e-19)
(5.15933 -0.505993 0)
(5.19954 -0.474785 2.11371e-19)
(5.23682 -0.443877 1.643e-20)
(5.27177 -0.414586 -2.19057e-19)
(5.30671 -0.386336 -2.24883e-19)
(5.34091 -0.360144 -7.60283e-19)
(5.377 -0.335363 5.09336e-19)
(5.40887 -0.309126 0)
(5.92956 0.213127 0)
(5.94053 0.224883 0)
(5.95447 0.249026 -5.3759e-19)
(5.9619 0.263665 0)
(5.97062 0.295917 1.12992e-18)
(5.97161 0.314379 1.18381e-18)
(5.96726 0.352959 -2.26616e-18)
(5.96177 0.368727 -1.17087e-18)
(5.94716 0.39304 0)
(5.94043 0.389984 1.08915e-18)
(5.93184 0.375726 -4.5487e-19)
(5.91471 0.361072 -1.33638e-18)
(5.8702 0.335491 -1.1664e-19)
(5.7661 0.369283 0)
(5.20719 0.400666 -7.38065e-19)
(4.65609 0.385053 3.7215e-19)
(3.15439 0.256098 -2.40368e-21)
(2.28525 -0.0213366 2.60558e-19)
(1.54761 -0.6161 -6.46313e-19)
(1.51223 -0.968156 -1.19073e-18)
(2.21924 -1.40629 0)
(2.87802 -1.62333 -1.98305e-19)
(3.57965 -1.61192 0)
(4.11823 -1.55292 2.62706e-19)
(4.38331 -1.3505 3.37197e-20)
(4.60985 -1.16536 3.23927e-20)
(4.72126 -1.02199 8.30594e-20)
(4.80214 -0.893234 2.45264e-19)
(4.87779 -0.806514 1.68123e-19)
(4.95238 -0.734382 0)
(5.01923 -0.678484 8.17285e-20)
(5.08163 -0.629959 1.33082e-20)
(5.13551 -0.590578 -3.28311e-20)
(5.1859 -0.55235 1.06959e-19)
(5.22841 -0.519904 -2.19495e-19)
(5.27095 -0.484844 7.53822e-19)
(5.30747 -0.455602 -1.28051e-18)
(5.34774 -0.424286 -3.85668e-20)
(5.38235 -0.399513 -3.43471e-19)
(5.42424 -0.371301 5.52657e-19)
(5.45792 -0.345947 0)
(5.98792 0.225158 1.30889e-18)
(5.9948 0.231635 4.56354e-20)
(6.01398 0.26654 -1.27665e-18)
(6.0199 0.276914 0)
(6.03031 0.323851 -6.30295e-19)
(6.03088 0.337383 -1.25637e-18)
(6.02032 0.390076 2.59472e-18)
(6.0133 0.403741 -7.74352e-20)
(5.98215 0.438529 0)
(5.9645 0.442484 -1.14838e-18)
(5.92813 0.410529 0)
(5.90455 0.393632 0)
(5.82572 0.331178 1.38717e-18)
(5.74309 0.344656 5.2664e-19)
(5.00447 0.348515 -1.08282e-18)
(4.50382 0.34884 -1.39192e-19)
(2.77043 0.19136 8.00812e-20)
(1.8634 0.0272733 0)
(1.10039 -0.696168 2.74063e-19)
(1.03323 -1.1256 5.99078e-19)
(1.93629 -1.57051 -2.64419e-20)
(2.65419 -1.8266 7.49237e-19)
(3.47347 -1.81686 7.70964e-20)
(4.10025 -1.78933 0)
(4.4181 -1.55335 4.83287e-20)
(4.68685 -1.33178 0)
(4.78649 -1.16365 0)
(4.85744 -1.00146 3.80971e-20)
(4.92016 -0.903878 -3.50355e-19)
(4.98842 -0.811986 1.16717e-19)
(5.0469 -0.752696 -6.04919e-20)
(5.1123 -0.691537 -1.29365e-20)
(5.16221 -0.652791 -4.35103e-19)
(5.22194 -0.60451 2.11425e-19)
(5.26145 -0.575581 5.00388e-19)
(5.31666 -0.531061 -2.4585e-19)
(5.34819 -0.507482 2.63274e-19)
(5.40301 -0.465923 0)
(5.42934 -0.447548 9.28885e-19)
(5.48803 -0.406337 -2.80798e-19)
(5.51403 -0.386336 0)
(5.57387 -0.344153 9.29851e-20)
(5.50598 -0.32099 1.02665e-20)
(5.45334 -0.29121 6.02054e-19)
(5.41069 -0.257722 -6.5678e-19)
(5.37356 -0.22735 0)
(5.34091 -0.201434 0)
(5.31266 -0.177768 3.26759e-19)
(5.28802 -0.155898 -3.28791e-19)
(5.26588 -0.135872 5.65418e-19)
(5.24539 -0.116944 -2.72981e-19)
(5.22557 -0.0979142 2.2324e-19)
(5.20597 -0.0787342 -1.78659e-19)
(5.18691 -0.0573899 1.78487e-19)
(5.16779 -0.0364675 2.36501e-19)
(5.145 -0.000105842 -1.74283e-19)
(5.06357 0.0268352 -8.30809e-20)
(4.6916 0.100964 -3.75699e-20)
(5.60253 -0.32431 -1.64167e-18)
(5.54733 -0.304234 7.34958e-19)
(5.49822 -0.280225 0)
(5.45634 -0.250086 -7.7107e-19)
(5.41895 -0.2218 0)
(5.38531 -0.196492 0)
(5.35561 -0.172696 -3.32358e-19)
(5.32946 -0.150621 3.25565e-19)
(5.30617 -0.130094 -3.27734e-19)
(5.28518 -0.11036 6.81373e-19)
(5.26598 -0.0913225 0)
(5.24805 -0.0733474 -2.38027e-19)
(5.23101 -0.0540084 0)
(5.2135 -0.036155 -2.16306e-19)
(5.18977 -0.00714956 7.49834e-20)
(5.10474 -0.00515411 -2.19154e-19)
(4.67012 0.0758351 0)
(5.66143 -0.264058 4.70997e-19)
(5.59797 -0.266223 4.82408e-20)
(5.54681 -0.254942 4.39806e-19)
(5.5043 -0.233727 1.20794e-18)
(5.46628 -0.210772 -4.37227e-19)
(5.43183 -0.188365 0)
(5.40118 -0.166508 -4.45185e-19)
(5.3741 -0.145701 4.42001e-19)
(5.35013 -0.126134 -3.90769e-19)
(5.32886 -0.107466 -3.36169e-19)
(5.30973 -0.0893121 3.74365e-19)
(5.29203 -0.071685 -1.81321e-19)
(5.27511 -0.052781 0)
(5.25699 -0.0361881 -1.4198e-20)
(5.23077 -0.00897034 -1.52545e-20)
(5.13086 -0.00882607 4.20061e-19)
(4.64368 0.0887352 -3.94802e-20)
(5.68579 -0.234039 -5.0894e-19)
(5.63498 -0.233012 5.38912e-19)
(5.58935 -0.230223 4.72193e-19)
(5.5502 -0.216967 -5.03251e-19)
(5.51437 -0.199543 4.72784e-19)
(5.48081 -0.18098 -5.03269e-19)
(5.44998 -0.161393 -5.32003e-19)
(5.42216 -0.141784 -4.715e-19)
(5.39733 -0.122948 0)
(5.37526 -0.104819 0)
(5.35561 -0.0872854 2.38498e-19)
(5.3378 -0.0703923 1.90359e-19)
(5.32084 -0.0523953 2.06219e-19)
(5.30188 -0.0362015 1.64043e-19)
(5.27173 -0.0108032 -7.26347e-20)
(5.15763 -0.00685579 -7.75026e-20)
(4.62425 0.0913007 2.39087e-19)
(5.73802 -0.171978 -3.69994e-20)
(5.68251 -0.182648 5.9496e-19)
(5.63649 -0.189464 0)
(5.59828 -0.186981 -5.83171e-19)
(5.56385 -0.179065 -5.45631e-19)
(5.53133 -0.167097 -1.32971e-20)
(5.50075 -0.152019 1.12518e-18)
(5.4726 -0.135665 5.28995e-19)
(5.44718 -0.119014 0)
(5.42456 -0.102367 0)
(5.40452 -0.0859629 3.70818e-20)
(5.38644 -0.0697288 0)
(5.36892 -0.0522707 -2.18071e-19)
(5.34842 -0.0354795 0)
(5.31324 -0.0117349 3.83534e-19)
(5.18402 -0.00264823 -5.34837e-20)
(4.60918 0.0919304 -3.43436e-19)
(5.75311 -0.142466 -2.01008e-18)
(5.7087 -0.137726 -1.26877e-18)
(5.66985 -0.14381 0)
(5.63711 -0.148001 6.1228e-19)
(5.60746 -0.148115 4.32093e-20)
(5.57866 -0.143786 1.26932e-18)
(5.55042 -0.135375 3.5835e-19)
(5.5234 -0.124188 -6.61277e-19)
(5.4984 -0.111305 0)
(5.47594 -0.0975321 0)
(5.45601 -0.0832898 -2.93427e-19)
(5.43804 -0.0684791 2.96767e-19)
(5.42032 -0.0522023 -2.94695e-19)
(5.39846 -0.0354099 0)
(5.35751 -0.0130838 -2.32347e-19)
(5.21191 -0.000211016 0)
(4.60031 0.0885591 2.25945e-19)
(5.81304 -0.120592 1.46042e-18)
(5.75462 -0.107106 -3.15287e-20)
(5.70941 -0.104618 0)
(5.67482 -0.106771 0)
(5.64637 -0.110321 -1.41209e-18)
(5.62047 -0.111671 7.45849e-19)
(5.59539 -0.109456 -1.07505e-18)
(5.57099 -0.104343 2.54552e-20)
(5.54792 -0.0968781 7.55862e-19)
(5.52686 -0.0875779 -3.88642e-19)
(5.50804 -0.0768637 0)
(5.4911 -0.0647909 -7.29942e-19)
(5.47437 -0.0508655 -1.63494e-20)
(5.45231 -0.0353318 3.26852e-19)
(5.40516 -0.0144465 -1.65753e-19)
(5.24264 0.000403683 2.41452e-20)
(4.59898 0.0821029 -1.083e-19)
(5.82718 -0.113918 -8.16788e-19)
(5.77705 -0.0847449 8.0746e-19)
(5.7357 -0.068197 8.36666e-19)
(5.70317 -0.0664549 0)
(5.67674 -0.0683942 -8.43224e-19)
(5.65318 -0.0714445 0)
(5.63083 -0.0736933 0)
(5.60925 -0.0742397 4.33763e-19)
(5.58893 -0.0726017 0)
(5.57044 -0.0688889 3.98987e-19)
(5.55401 -0.0631925 -2.50763e-20)
(5.53966 -0.0555454 -4.34346e-19)
(5.52609 -0.0456464 1.22079e-18)
(5.50661 -0.0331987 0)
(5.45523 -0.0151573 -3.90688e-19)
(5.27688 6.60564e-05 -1.55838e-19)
(4.60648 0.0728243 0)
(5.90516 -0.139997 -1.81432e-18)
(5.83918 -0.0976847 1.82542e-18)
(5.78344 -0.0663289 -4.42213e-19)
(5.7388 -0.0484271 -4.63992e-19)
(5.70432 -0.0415639 4.36567e-19)
(5.67733 -0.0401211 4.65783e-19)
(5.65455 -0.0410553 -4.74429e-19)
(5.63392 -0.0426342 3.14101e-20)
(5.61535 -0.044304 4.61273e-19)
(5.59923 -0.045043 -9.8892e-21)
(5.58579 -0.044028 -2.50477e-20)
(5.57512 -0.041113 0)
(5.56663 -0.0360922 -4.41674e-19)
(5.55308 -0.0284078 0)
(5.50217 -0.0152179 4.34553e-19)
(5.31341 -0.000667144 -1.12542e-19)
(4.62416 0.059761 -1.0636e-19)
(5.91743 -0.151037 4.83978e-19)
(5.86223 -0.114327 -2.43523e-18)
(5.81279 -0.0770144 -9.79236e-19)
(5.76894 -0.0472364 -9.91945e-19)
(5.73083 -0.0299264 1.00257e-18)
(5.69852 -0.0217413 -1.04668e-20)
(5.67102 -0.0181983 -6.41706e-21)
(5.64718 -0.0170871 1.89554e-20)
(5.62669 -0.0184291 0)
(5.61031 -0.0207445 0)
(5.59873 -0.0228961 0)
(5.59131 -0.024027 0)
(5.58659 -0.0234249 0)
(5.57846 -0.0203706 2.67058e-19)
(5.53643 -0.013078 -1.27295e-19)
(5.34819 -0.00143538 1.27232e-19)
(4.65221 0.0427949 0)
(5.99383 -0.180351 5.18892e-19)
(5.93223 -0.151208 1.55106e-18)
(5.86983 -0.113938 5.2598e-19)
(5.81155 -0.0772516 1.04988e-18)
(5.76093 -0.0479213 -3.33907e-21)
(5.71863 -0.0274483 -4.80256e-21)
(5.68329 -0.0142858 -1.33987e-18)
(5.65324 -0.00697826 2.7286e-19)
(5.62774 -0.00428795 0)
(5.60787 -0.00407199 0)
(5.59501 -0.00557836 0)
(5.5894 -0.00819944 0)
(5.58914 -0.0104165 0)
(5.58526 -0.0110892 -5.6145e-19)
(5.54967 -0.00966485 0)
(5.37247 -0.00244101 2.88734e-19)
(4.68674 0.0245418 -2.8861e-19)
(6.00353 -0.190629 -1.09657e-18)
(5.95868 -0.178944 5.6045e-19)
(5.91201 -0.15272 -5.40419e-19)
(5.86114 -0.118059 2.72019e-19)
(5.8087 -0.0866702 -2.74287e-19)
(5.7584 -0.0604155 0)
(5.71219 -0.0384884 5.48094e-19)
(5.67091 -0.021324 -5.57047e-19)
(5.63521 -0.00983017 2.83749e-19)
(5.60614 -0.0024708 2.84579e-19)
(5.5849 0.00119049 1.44359e-19)
(5.5727 0.00148712 -5.94008e-22)
(5.57061 0.000219627 1.47595e-19)
(5.56939 -0.00264292 3.67097e-19)
(5.53805 -0.00608017 -2.26122e-19)
(5.38 -0.00211584 -2.95274e-19)
(4.72012 0.00731672 4.50068e-19)
(6.04258 -0.161439 2.71768e-19)
(6.00747 -0.172936 2.8601e-19)
(5.96558 -0.163542 0)
(5.91818 -0.14295 -5.35987e-19)
(5.86751 -0.121624 -5.39871e-19)
(5.81603 -0.0986822 0)
(5.76528 -0.0748063 -5.67213e-19)
(5.7165 -0.0532437 8.30837e-21)
(5.67111 -0.0350278 -7.13304e-20)
(5.6311 -0.0203403 -2.17984e-19)
(5.59877 -0.00914013 7.29188e-20)
(5.57532 -0.00154074 -7.38243e-20)
(5.55942 0.00171996 -3.36109e-19)
(5.54582 0.00187873 -1.11875e-19)
(5.51402 -0.000398051 1.52304e-19)
(5.36981 -0.000291907 1.53575e-19)
(4.74356 -0.00738721 -1.55536e-19)
(6.04435 -0.156545 0)
(6.02349 -0.170864 -5.27921e-19)
(5.99887 -0.167121 0)
(5.96619 -0.156408 -1.04847e-19)
(5.92636 -0.143115 7.70758e-19)
(5.88205 -0.12681 -6.89568e-20)
(5.8355 -0.10732 0)
(5.7879 -0.0869407 2.7578e-19)
(5.74032 -0.0668311 8.77099e-21)
(5.69452 -0.047725 0)
(5.65261 -0.0306431 -2.78875e-19)
(5.61584 -0.0164633 0)
(5.58262 -0.00574638 3.67032e-20)
(5.54761 0.00105901 1.12926e-19)
(5.49685 0.00227631 0)
(5.34202 0.00174802 -1.63231e-19)
(4.75106 -0.014984 -1.42315e-19)
(6.03403 -0.064347 -5.32818e-19)
(6.0289 -0.105824 8.1803e-19)
(6.01548 -0.120577 0)
(5.99512 -0.125359 5.54537e-19)
(5.96901 -0.1278 0)
(5.93814 -0.123548 0)
(5.90344 -0.113845 0)
(5.86554 -0.100716 0)
(5.82497 -0.0852461 -1.34933e-19)
(5.78258 -0.0678712 -1.25223e-19)
(5.73911 -0.050059 2.80805e-19)
(5.69474 -0.0329219 1.38186e-19)
(5.64723 -0.0172859 -6.91152e-20)
(5.58842 -0.00589374 -2.06115e-19)
(5.49827 0.00115111 0)
(5.30675 0.000216669 0)
(4.74846 -0.0181701 7.94386e-20)
(6.01965 -0.0387433 3.07115e-19)
(6.01422 -0.0622328 1.03301e-20)
(6.00878 -0.0773815 -3.24722e-20)
(5.99984 -0.08757 -1.13538e-19)
(5.98649 -0.0946654 -1.26244e-19)
(5.96999 -0.0977338 1.11485e-19)
(5.94969 -0.0969182 1.24811e-19)
(5.92597 -0.0923074 1.18258e-19)
(5.89878 -0.0841477 -1.25765e-19)
(5.86766 -0.0729133 3.87157e-19)
(5.83209 -0.0594433 0)
(5.79016 -0.0444005 1.20114e-19)
(5.73641 -0.0284723 -1.28298e-19)
(5.65828 -0.0163884 1.12771e-20)
(5.52842 -0.00299174 1.9543e-19)
(5.28793 -0.0041601 -6.57987e-20)
(4.7472 -0.0153053 6.96401e-20)
(5.97975 0.0567639 2.08503e-19)
(5.98631 0.0152978 -3.83098e-19)
(5.98542 -0.00626753 1.19045e-19)
(5.98208 -0.022565 1.38395e-19)
(5.97755 -0.0377648 0)
(5.971 -0.0490292 -1.31154e-20)
(5.96221 -0.0563244 -3.47082e-19)
(5.9509 -0.0600414 2.09991e-19)
(5.93808 -0.0604147 1.04524e-19)
(5.92122 -0.0577371 0)
(5.89916 -0.0521895 0)