/*--------------------------------*- C++ -*----------------------------------*\
  =========                 |
  \\      /  F ield         | OpenFOAM: The Open Source CFD Toolbox
   \\    /   O peration     | Website:  https://openfoam.org
    \\  /    A nd           | Version:  6
     \\/     M anipulation  |
\*---------------------------------------------------------------------------*/
FoamFile
{
    version     2.0;
    format      ascii;
    class       surfaceVectorField;
    location    "1.49";
    object      rhoUf;
}
// * * * * * * * * * * * * * * * * * * * * * * * * * * * * * * * * * * * * * //

dimensions      [1 -2 -1 0 0 0 0];

internalField   nonuniform List<vector> 
11670
(
(-0.00014549 -6.81176e-06 0.000163142)
(-0.000159775 -3.80031e-05 4.83825e-05)
(-0.000317414 -0.000115126 0.000283887)
(-0.000163937 -6.80447e-05 0.000272143)
(3.59596e-08 -2.93125e-07 -2.08523e-07)
(1.62201e-07 1.74763e-08 -2.19632e-07)
(-5.9607e-09 1.88691e-07 -8.72911e-08)
(8.74094e-09 -8.77227e-08 -4.34309e-08)
(-0.000407058 2.38185e-05 -0.000415621)
(-0.00049571 -0.000105931 -8.6043e-05)
(-0.000839314 -0.000181563 -0.000620029)
(-0.000368472 -0.000141789 -0.000528539)
(-4.28899e-06 -1.9842e-06 2.89102e-06)
(-4.46097e-06 -2.28478e-06 1.69012e-06)
(-7.75046e-06 -3.15875e-06 5.95103e-06)
(-4.9992e-06 -2.66441e-06 6.50594e-06)
(-4.37575e-05 1.81673e-06 6.50199e-07)
(-3.53662e-05 1.86881e-06 -4.7278e-06)
(-3.92648e-05 2.00045e-06 2.68381e-06)
(-5.59415e-05 3.78514e-07 1.75771e-08)
(1.31717e-09 1.46317e-07 -8.29717e-08)
(-5.04939e-09 1.16599e-07 -4.22814e-08)
(3.37107e-08 9.95584e-08 -3.42582e-08)
(-3.32125e-09 1.91154e-07 -4.79054e-08)
(4.60143e-08 -2.93463e-08 2.00258e-06)
(-2.02184e-07 2.07079e-07 1.29925e-06)
(1.01594e-07 7.98921e-07 6.44539e-07)
(4.09448e-08 2.90711e-08 1.00602e-06)
(-2.30616e-08 -1.09557e-06 -1.36943e-06)
(-6.39665e-07 3.04959e-07 -9.89843e-07)
(1.20683e-07 3.74844e-07 -2.94302e-07)
(-4.99927e-08 -2.89276e-07 2.45067e-07)
(-1.2389e-07 -2.50595e-07 6.99735e-07)
(-1.80608e-09 2.02785e-07 2.25826e-07)
(-1.76549e-07 7.43465e-07 -2.74249e-07)
(-1.00753e-07 3.24857e-08 1.32359e-07)
(-1.54809e-07 1.29876e-06 -1.09582e-06)
(-4.14075e-07 2.4809e-07 -8.45406e-07)
(3.20768e-08 -3.92549e-07 -5.39946e-07)
(-1.13362e-07 5.34234e-07 -1.23215e-07)
(-4.44732e-08 8.52145e-07 1.03809e-06)
(1.22196e-07 -7.63862e-07 -1.07421e-06)
(-5.43195e-08 -1.15629e-06 -1.71535e-06)
(-1.42674e-08 -1.71866e-07 -2.18439e-06)
(-6.60778e-05 -3.75512e-05 3.23482e-05)
(-6.06319e-06 -1.00549e-05 1.45329e-05)
(-1.19422e-05 -4.89039e-06 1.65384e-05)
(-1.36868e-05 -9.51038e-06 3.8165e-05)
(1.31256e-08 6.94799e-08 -6.22276e-08)
(3.80256e-08 -9.54576e-08 -1.94284e-07)
(3.95706e-08 1.80643e-08 -1.3885e-07)
(2.34158e-08 5.159e-09 -9.79632e-08)
(-3.23359e-08 -5.39299e-08 9.41725e-08)
(-4.10048e-08 -2.32714e-07 1.34816e-07)
(-2.16986e-08 -1.4169e-07 7.18799e-08)
(-3.00543e-08 -1.45951e-07 1.2568e-07)
(-2.85057e-05 -7.66661e-06 -2.50571e-05)
(-8.25918e-05 -2.75233e-05 -4.90951e-05)
(-2.79323e-05 -1.23518e-05 -4.0048e-05)
(-1.98929e-05 -1.11586e-05 -2.20114e-05)
(-2.24891e-08 1.24894e-07 -1.12729e-08)
(-2.19921e-08 -2.58233e-08 1.58699e-08)
(1.69302e-09 4.79889e-08 3.98581e-08)
(3.65878e-10 8.92373e-08 5.05079e-08)
(-0.00102828 0.000858112 -0.000720419)
(-0.000422817 0.000226471 0.000117626)
(-0.000352524 0.000493247 -0.000340633)
(-0.000337336 0.000560338 -0.000315403)
(-0.00131248 -0.0010301 0.000854054)
(-0.000388124 -0.000252062 -1.53414e-05)
(-0.000381741 -0.000492744 0.000326043)
(-0.000395834 -0.000485025 0.000486271)
(-7.29695e-08 -2.49145e-07 1.12904e-07)
(-1.91551e-08 -3.31368e-07 1.87552e-07)
(-1.98575e-08 -4.95895e-07 2.99401e-07)
(-1.73107e-08 -5.45631e-07 2.91438e-07)
(-4.01295e-08 2.09347e-08 -2.28818e-08)
(-2.94114e-08 -3.83116e-08 2.79349e-08)
(-7.45926e-09 -5.17957e-08 2.97547e-08)
(-3.22478e-09 -4.52008e-08 3.01703e-08)
(-0.000636339 -0.000166204 4.79946e-05)
(-0.00138524 -0.000268267 -0.00105901)
(-0.000521293 -0.000422791 -0.00051855)
(-0.000445562 -0.000444471 -0.000406395)
(-1.63374e-08 -1.25215e-08 -2.44318e-08)
(-1.59617e-08 -8.14506e-08 -6.18894e-09)
(-5.56658e-09 -6.67733e-08 -3.94122e-08)
(-3.26648e-09 -4.77504e-08 -4.21616e-08)
(-0.000474163 0.00013908 0.000107675)
(-0.00121942 0.000469118 0.00117028)
(-0.000347151 0.000588741 0.000362599)
(-0.00036101 0.000372334 0.000474152)
(-4.75088e-05 4.43568e-05 -2.32552e-05)
(-6.38828e-06 8.03676e-07 -9.35671e-06)
(-1.19952e-05 1.01639e-05 -2.37802e-05)
(-1.13562e-05 1.65935e-05 -1.19212e-05)
(-2.96811e-08 -1.69937e-08 1.6888e-08)
(-2.45028e-08 5.07669e-08 9.89235e-11)
(-8.0797e-09 2.86267e-08 2.81341e-08)
(-8.93851e-09 5.87364e-09 2.79007e-08)
(-5.3835e-08 1.71646e-07 5.66408e-08)
(-1.81374e-08 1.83612e-07 6.87402e-08)
(-4.08106e-09 1.38972e-07 6.9113e-08)
(3.43048e-09 2.61617e-07 1.98701e-08)
(-2.22388e-05 4.84653e-06 1.5703e-05)
(-6.74605e-05 5.31552e-05 3.75012e-05)
(-1.85505e-05 2.39733e-05 1.31989e-05)
(-2.28586e-05 1.33611e-05 2.69257e-05)
(-1.36613e-08 -1.51403e-08 1.68971e-07)
(-3.17404e-09 -1.13227e-07 1.96485e-07)
(-3.82743e-08 -3.9314e-08 2.38302e-07)
(-3.58825e-08 1.35827e-08 2.26689e-07)
(-3.74108e-07 1.25389e-07 -4.93907e-07)
(-2.28971e-06 -1.03224e-06 1.69531e-06)
(-3.93565e-07 -5.23542e-08 1.15832e-07)
(-4.32657e-07 -2.03313e-07 7.11025e-07)
(-8.23104e-08 -1.93266e-07 5.40664e-07)
(1.07277e-07 -2.19529e-07 8.6294e-07)
(-1.20335e-08 -2.83642e-07 6.16037e-07)
(-2.65436e-08 -2.76399e-07 1.25709e-06)
(-5.71046e-08 -1.5272e-07 2.94494e-07)
(1.05627e-07 -2.37483e-07 4.388e-07)
(1.65624e-08 -1.3984e-07 2.20776e-07)
(2.0028e-08 -1.60984e-07 2.84898e-07)
(-5.65884e-08 -3.51811e-08 1.19456e-08)
(-1.29068e-07 -3.26558e-08 -4.81375e-08)
(-6.87824e-08 7.90875e-08 6.71406e-08)
(-6.54922e-08 1.11401e-07 8.26987e-08)
(-1.54866e-08 -9.66278e-08 -2.07156e-07)
(3.56583e-08 -1.52914e-07 4.8362e-08)
(-1.45705e-08 -7.45566e-08 -5.82575e-08)
(-2.32123e-08 -2.88329e-07 -1.08209e-07)
(2.19753e-09 1.59947e-07 -2.14172e-07)
(-1.89925e-08 -2.8575e-07 -1.01343e-07)
(-3.69861e-08 -6.04382e-08 -2.14203e-07)
(-2.59532e-08 -6.19578e-08 -1.7347e-07)
(8.24569e-08 -4.62803e-07 -9.87731e-08)
(1.58485e-07 -4.7506e-07 -8.12163e-08)
(3.92307e-08 -2.8327e-07 2.3029e-09)
(3.76615e-08 -4.73468e-07 3.30733e-08)
(-4.22215e-08 -3.54242e-07 2.25339e-07)
(-8.08439e-08 -3.53384e-07 2.09575e-07)
(2.79714e-09 -1.42813e-07 5.2162e-08)
(-5.07582e-10 -3.17677e-07 8.15724e-08)
(3.95583e-08 4.13077e-07 1.49436e-07)
(1.0738e-07 9.87346e-09 -1.37454e-07)
(6.86941e-08 2.0947e-07 6.02686e-08)
(6.7144e-08 2.38741e-07 6.91418e-08)
(4.40048e-09 -2.0345e-07 -1.71091e-08)
(3.56546e-08 1.54944e-07 3.17791e-07)
(3.41322e-08 9.33353e-08 1.19361e-07)
(3.20637e-08 1.14065e-07 1.07212e-07)
(3.24325e-08 -1.4053e-07 -1.66555e-07)
(-3.92088e-08 -1.35704e-07 -1.79061e-07)
(3.722e-08 -1.25216e-07 -3.38201e-07)
(3.43795e-08 -3.47858e-08 -2.68839e-07)
(-5.22434e-08 -2.35569e-07 1.98405e-07)
(2.14204e-08 -3.22209e-07 2.16857e-07)
(-6.82638e-10 -5.02199e-08 1.89193e-07)
(-1.27682e-08 -2.91723e-07 3.73659e-07)
(2.12875e-08 7.74247e-07 3.90724e-07)
(-4.89583e-08 4.27411e-07 1.24686e-07)
(3.22239e-08 9.21439e-07 5.60742e-07)
(3.05505e-08 9.93182e-07 5.38306e-07)
(6.03821e-08 -1.00694e-07 -3.64698e-07)
(9.07121e-08 -2.52544e-07 -1.6925e-07)
(4.57445e-08 -8.37133e-08 -3.50391e-07)
(3.21666e-08 2.10759e-08 -2.57291e-07)
(-4.6352e-08 -3.0718e-07 1.73568e-07)
(-7.25316e-08 -3.59938e-07 -1.05846e-07)
(1.94154e-09 -2.22974e-07 1.27181e-07)
(-3.98415e-09 -3.29885e-07 6.28813e-11)
(7.71693e-08 -3.19476e-07 1.85421e-07)
(2.28381e-08 -2.05681e-07 1.09581e-07)
(7.11053e-08 -5.17705e-08 2.7292e-07)
(8.04732e-08 -1.67237e-07 3.70417e-07)
(-1.30103e-08 -7.9837e-08 5.23129e-08)
(-2.96122e-09 -1.32203e-07 8.8548e-08)
(-7.87112e-09 -6.35166e-08 2.72661e-08)
(-1.70765e-08 -8.35374e-08 4.48531e-08)
(2.20946e-09 1.65117e-08 -1.62129e-07)
(2.73951e-08 -2.09391e-07 -8.95834e-10)
(2.18722e-08 -7.52937e-08 -2.43591e-08)
(2.1426e-08 -1.1271e-07 -2.08949e-08)
(2.47323e-08 6.22568e-08 2.45884e-08)
(4.49828e-08 -1.19947e-07 -1.42044e-07)
(2.96955e-08 3.48602e-08 -5.90374e-08)
(2.6816e-08 4.84959e-08 -3.46725e-08)
(7.77204e-08 -3.7993e-07 8.54603e-08)
(6.91646e-08 -4.57104e-07 -6.34327e-08)
(1.83583e-08 -4.41664e-07 -1.01987e-08)
(9.64492e-09 -5.60071e-07 5.20593e-08)
(3.09157e-09 -2.90261e-07 1.61157e-07)
(6.97254e-09 -3.18913e-07 1.3642e-07)
(-8.16171e-09 -4.32509e-07 2.72977e-07)
(-6.81635e-09 -4.75337e-07 2.74223e-07)
(3.1134e-08 4.78971e-08 3.58225e-08)
(1.97619e-08 4.75816e-08 1.36683e-08)
(-3.35635e-09 5.12078e-09 7.27047e-08)
(-3.34505e-09 3.09358e-08 9.40735e-08)
(9.76037e-09 1.96355e-07 1.32725e-08)
(3.49196e-08 1.41445e-07 -2.01043e-08)
(7.28447e-09 1.3207e-07 4.23504e-08)
(1.33395e-08 2.10488e-07 -2.7296e-08)
(1.17853e-08 5.4341e-08 -1.11408e-07)
(3.42203e-08 8.05734e-08 -2.55346e-08)
(-5.04976e-09 2.68554e-08 -8.48672e-08)
(-8.42101e-10 -6.10371e-09 -6.46515e-08)
(2.03084e-08 -7.6222e-09 1.35465e-08)
(1.24884e-08 -1.73756e-08 2.72242e-08)
(1.03575e-08 1.63872e-08 1.67537e-08)
(1.16998e-08 1.71361e-08 2.62734e-08)
(-8.54737e-09 -2.22676e-08 -5.50276e-09)
(2.14417e-08 1.76743e-08 -5.17509e-08)
(-1.17171e-08 -8.54381e-09 -4.34798e-08)
(-6.46751e-09 -1.45144e-08 -2.01256e-08)
(2.92934e-08 3.59242e-08 3.99569e-09)
(2.54585e-08 -3.33186e-08 -3.34495e-09)
(1.42785e-08 3.96458e-09 2.75505e-09)
(1.73235e-08 4.61447e-09 4.59123e-09)
(1.2323e-08 5.74925e-08 -1.07146e-08)
(1.83755e-08 1.70759e-08 3.8741e-08)
(4.71188e-09 1.39192e-07 -3.67948e-08)
(2.67038e-09 1.01453e-07 -4.40395e-08)
(1.35396e-08 1.37442e-07 1.38366e-08)
(-3.91664e-09 2.2335e-08 -9.66869e-09)
(-1.40556e-08 1.95608e-07 -1.63702e-07)
(-1.11528e-08 2.38659e-07 -1.00084e-07)
(4.81297e-08 -1.425e-07 7.00448e-08)
(9.1901e-09 -1.48281e-07 8.15964e-08)
(4.94013e-09 -1.31062e-07 9.65482e-08)
(5.1657e-09 -7.16396e-08 8.28265e-08)
(4.8699e-08 -1.39274e-07 1.76335e-07)
(-4.08032e-08 -2.08116e-07 1.75764e-07)
(-7.51178e-09 -1.12341e-07 1.45629e-07)
(-1.13219e-08 -1.55623e-07 2.06943e-07)
(-6.61253e-09 2.15942e-08 9.65798e-09)
(8.29404e-09 3.76025e-08 -4.08999e-09)
(2.96426e-08 -3.75566e-08 6.88995e-08)
(2.86221e-08 -6.88381e-08 6.82926e-08)
(-1.09052e-06 1.15386e-06 7.42529e-07)
(-2.79368e-07 2.93731e-07 5.19139e-07)
(-3.23746e-07 5.31645e-07 5.05976e-07)
(-3.53189e-07 4.19414e-07 8.12902e-07)
(-6.62021e-09 5.05546e-08 -1.3897e-07)
(-6.44426e-08 1.10448e-07 5.10063e-08)
(1.40697e-09 2.19562e-08 -6.71687e-08)
(1.21552e-08 1.48902e-07 -1.01395e-07)
(-5.79812e-07 3.36486e-07 5.25377e-08)
(-1.026e-06 8.50754e-07 -6.85453e-08)
(-3.64663e-07 2.15098e-07 1.17567e-07)
(-3.33009e-07 5.76538e-07 1.52922e-07)
(-2.50918e-08 -6.61771e-07 3.82144e-07)
(-3.12981e-08 -5.28354e-07 2.45694e-07)
(-3.41584e-08 -8.72057e-07 5.8275e-07)
(-2.81121e-08 -9.58556e-07 5.82493e-07)
(4.73952e-08 4.19146e-07 2.05936e-07)
(2.35157e-08 3.43598e-07 7.29128e-08)
(1.04789e-08 3.59952e-07 1.85269e-07)
(2.10823e-08 5.7746e-07 7.38295e-08)
(-2.00291e-08 5.63914e-08 -1.41021e-07)
(-3.98634e-08 2.23106e-07 -8.13388e-08)
(-3.66365e-08 1.13481e-07 -1.42665e-07)
(-2.68665e-08 6.03403e-08 -7.47455e-08)
(-1.08002e-07 1.91973e-07 6.95528e-08)
(-9.03753e-09 1.14431e-07 1.05361e-08)
(-3.94561e-08 8.87414e-08 6.76539e-08)
(-4.3229e-08 8.51385e-08 9.79578e-08)
(8.61146e-08 6.32471e-08 -2.08371e-07)
(-2.0079e-08 1.93195e-08 -1.45351e-07)
(2.84569e-08 -6.32998e-09 -2.21375e-07)
(3.66252e-08 9.5327e-08 -2.57486e-07)
(-2.19899e-07 3.7709e-07 8.54854e-08)
(-1.20256e-07 8.98866e-08 -2.4785e-08)
(-1.22133e-07 7.32431e-08 9.90566e-08)
(-1.25923e-07 4.27068e-08 1.74186e-07)
(-4.15752e-08 1.1466e-07 -4.02257e-07)
(-1.44318e-07 3.9683e-07 -1.62162e-07)
(-8.62977e-08 2.55531e-07 -3.4833e-07)
(-7.32038e-08 1.70094e-07 -1.82628e-07)
(2.706e-08 1.96766e-07 1.61772e-07)
(6.47278e-08 2.41598e-07 9.7564e-08)
(1.13278e-08 6.4296e-08 1.24268e-07)
(1.29109e-08 2.44527e-07 2.28481e-07)
(-3.3133e-08 2.02982e-07 -1.4388e-07)
(6.03607e-08 1.45774e-07 -1.55878e-07)
(-3.35233e-08 1.27761e-07 -2.83378e-07)
(-2.5867e-08 6.39065e-08 -2.0777e-07)
(6.75197e-08 1.57093e-07 1.67118e-08)
(1.10199e-07 1.01762e-07 1.15723e-07)
(5.90861e-08 -1.54796e-08 -5.01092e-08)
(5.87855e-08 1.16337e-08 -4.12327e-08)
(-9.91921e-09 6.74051e-08 3.25073e-07)
(-2.00288e-08 2.23126e-07 -9.03447e-09)
(1.26621e-08 2.70605e-07 1.68148e-07)
(6.97585e-09 5.28852e-08 1.28149e-07)
(3.18876e-08 9.15734e-08 3.74048e-08)
(1.92965e-08 9.40368e-08 -1.29078e-08)
(2.1077e-08 3.74212e-08 7.51037e-08)
(2.0999e-08 7.20996e-09 6.91969e-08)
(-6.14153e-10 2.95814e-08 -1.614e-07)
(-6.05508e-08 1.50179e-07 4.13726e-10)
(-8.35787e-09 -1.47447e-08 -7.03908e-08)
(-4.87011e-09 1.45701e-07 -9.76375e-08)
(9.91496e-08 -2.13295e-07 1.29357e-07)
(7.41547e-08 1.59052e-07 -7.94846e-08)
(6.20117e-08 -5.22284e-08 5.82827e-08)
(6.83678e-08 -5.8543e-08 1.22805e-07)
(-9.16187e-08 4.66168e-07 -7.44454e-08)
(-7.48989e-09 4.93092e-07 -3.66738e-08)
(-1.73213e-08 4.73211e-07 -1.89132e-07)
(-1.17469e-08 2.84394e-07 -1.0567e-07)
(-1.06769e-07 2.30854e-07 2.33498e-07)
(8.85442e-09 -1.51855e-07 -2.24158e-08)
(-7.64766e-08 -2.46748e-07 -4.81638e-08)
(-7.28516e-08 -1.86934e-07 4.89872e-08)
(9.50916e-08 -1.08939e-06 3.92015e-07)
(-1.5153e-08 -6.13508e-07 -1.28724e-07)
(-9.89441e-09 -1.04455e-06 2.39167e-07)
(-3.39313e-09 -1.11872e-06 2.70196e-07)
(2.21366e-07 3.86919e-07 8.23939e-07)
(3.64252e-08 3.98466e-07 4.71998e-07)
(2.7404e-08 3.30389e-07 4.72409e-07)
(1.85634e-08 3.18612e-07 1.04444e-06)
(-6.46136e-08 3.8086e-07 2.88003e-07)
(5.81751e-08 2.71119e-07 2.36158e-07)
(-3.70269e-08 2.86313e-07 1.91024e-07)
(-4.71826e-08 2.78777e-07 2.5557e-07)
(2.21061e-08 -3.47974e-07 -1.1018e-07)
(1.4024e-07 -3.97085e-08 -2.48599e-08)
(4.2445e-08 -4.17614e-07 -8.96272e-08)
(-0.000675599 8.31742e-06 -0.000506913)
(-0.000411479 -7.1537e-06 -0.000130837)
(-0.000373015 -7.35481e-06 -0.000493816)
(-0.000207456 -1.49343e-05 0.000185417)
(-9.60379e-05 5.74341e-06 6.56406e-05)
(-0.000117076 5.36655e-06 0.000170571)
(1.1046e-08 8.05871e-07 6.20005e-07)
(-9.78568e-08 9.98966e-07 8.67264e-07)
(3.59312e-08 -1.0779e-08 2.34963e-06)
(-1.2189e-05 8.93267e-07 4.67271e-07)
(-1.25758e-05 9.66111e-07 1.27174e-06)
(-2.01937e-05 1.15285e-06 5.72402e-07)
(2.13879e-08 4.4949e-08 -1.8904e-08)
(8.25606e-08 -1.06837e-07 -8.9614e-08)
(1.2577e-09 5.29753e-08 -9.74137e-08)
(7.61891e-08 -1.25188e-06 -1.86981e-06)
(-3.32082e-07 -2.34451e-07 -1.15232e-06)
(4.61682e-08 -9.53445e-07 -1.84144e-06)
(-5.72407e-06 -1.67267e-06 3.09838e-06)
(-2.72856e-06 -6.22983e-07 1.13103e-06)
(-3.43787e-06 -7.42786e-07 2.73577e-06)
(-2.20005e-07 1.70139e-07 1.06511e-07)
(2.16903e-07 1.82456e-07 3.36509e-07)
(-1.41366e-07 -3.30848e-07 8.44113e-07)
(-9.66878e-08 1.01506e-06 -5.11072e-07)
(-3.91729e-07 4.5019e-07 -4.12268e-07)
(-1.52559e-07 1.49385e-06 -6.3349e-07)
(-2.11826e-07 1.16692e-06 1.66469e-06)
(8.11023e-08 4.01746e-07 9.69531e-07)
(-8.78065e-08 1.11794e-06 2.75538e-06)
(-3.77808e-08 -4.53132e-07 -1.85254e-07)
(-1.28445e-07 -3.76556e-07 3.20698e-07)
(-1.50775e-07 -7.22754e-07 -1.80669e-07)
(-1.14434e-07 -7.84131e-07 1.00829e-08)
(2.46922e-07 -3.69235e-07 2.04069e-08)
(1.53221e-07 -3.22418e-07 -2.2532e-07)
(1.68996e-07 -2.17013e-07 -7.00974e-09)
(2.04943e-07 -1.73999e-07 -1.51366e-08)
(-1.71542e-08 -1.20217e-08 -8.60187e-09)
(-1.36027e-08 3.50135e-08 3.65349e-08)
(-1.6554e-08 1.04027e-08 4.10885e-08)
(-2.8045e-08 1.13773e-08 2.89012e-08)
(-4.36164e-08 7.23302e-08 -6.80719e-08)
(-1.17219e-07 -8.25645e-09 3.60225e-08)
(-1.2972e-07 9.2401e-08 2.67538e-08)
(-1.09e-07 3.76803e-08 7.22755e-09)
(-5.30832e-08 1.67832e-09 -7.27518e-08)
(-5.2639e-08 -7.7837e-08 -4.79521e-08)
(-1.16026e-08 -6.37128e-09 -4.61205e-08)
(2.11262e-08 1.67505e-09 -5.51495e-08)
(-1.20985e-05 -8.28769e-08 -8.24119e-07)
(-1.50463e-05 7.81029e-07 -8.39669e-06)
(-1.9655e-05 -1.61674e-06 -8.1341e-06)
(-1.397e-05 1.30053e-06 -4.96799e-06)
(-1.10018e-07 4.29974e-07 1.46515e-07)
(3.42872e-08 -1.81078e-08 1.19287e-06)
(-6.95171e-08 2.26987e-07 3.73083e-07)
(-5.39242e-08 -1.71834e-07 8.42657e-07)
(-6.38379e-08 3.14054e-07 -3.46232e-07)
(4.41081e-08 2.11375e-07 -3.84262e-07)
(1.30239e-07 3.5542e-07 -2.72624e-07)
(9.95829e-08 3.67485e-07 -3.40678e-07)
(2.67547e-07 -2.32222e-07 1.61792e-08)
(2.55924e-07 -5.43969e-07 4.70592e-07)
(2.63356e-07 -4.84056e-07 2.44409e-07)
(1.8152e-08 6.61629e-08 -5.02958e-08)
(9.59587e-08 7.31153e-08 -3.1953e-08)
(9.89185e-08 6.97487e-08 -4.28098e-08)
(9.99998e-08 6.89426e-08 -4.44343e-08)
(-6.52644e-08 -1.74056e-07 -2.50489e-07)
(-1.13796e-07 -2.51475e-07 -1.58316e-07)
(-1.25686e-07 -2.33672e-07 -1.94035e-07)
(-9.87555e-08 -1.38214e-07 -1.73458e-07)
(-1.31756e-05 -1.63844e-06 -3.84598e-07)
(-1.5438e-05 -3.5515e-06 -4.2444e-06)
(-8.77514e-06 -9.25935e-07 -1.23762e-06)
(-8.7365e-06 -3.27302e-06 -1.43887e-06)
(2.20821e-08 2.15766e-07 -1.99474e-07)
(3.52183e-08 1.18282e-07 -1.27189e-07)
(-2.38272e-08 1.55761e-07 -1.90244e-07)
(-6.42451e-08 1.16827e-07 -1.72057e-07)
(-8.22797e-08 1.11157e-07 -1.18449e-07)
(-6.3987e-08 2.16255e-07 -9.60147e-08)
(-7.71837e-08 -9.06808e-09 -4.14516e-08)
(-2.24224e-05 5.23384e-08 5.09788e-08)
(-1.34663e-05 -1.94817e-06 -4.12448e-06)
(-1.26432e-05 1.50746e-06 -2.21456e-07)
(-9.00773e-08 -8.00056e-10 -2.30323e-08)
(-6.4982e-08 2.17213e-09 -2.29612e-08)
(-7.47012e-08 4.85208e-08 -1.99495e-08)
(-8.82338e-08 5.95704e-07 -2.44726e-07)
(-1.4166e-07 2.32312e-07 -4.80575e-07)
(-2.16406e-07 2.6591e-07 -6.89567e-08)
(-1.18456e-07 -7.89665e-08 -1.8149e-07)
(-8.71313e-08 1.29119e-07 -1.89452e-07)
(-1.17943e-07 1.70533e-07 -1.73008e-07)
(1.02685e-08 -8.4346e-08 -6.47781e-08)
(-3.69229e-09 -2.61305e-08 -5.82671e-08)
(-1.6859e-08 -4.36951e-10 -4.11573e-08)
(-9.87611e-06 9.5296e-07 5.36049e-06)
(-1.17145e-05 2.3902e-06 5.75926e-06)
(-1.31323e-05 -9.74063e-07 5.80409e-06)
(-1.24977e-07 3.5191e-07 -3.79556e-07)
(-2.91853e-07 3.7163e-07 -1.72992e-07)
(-2.34e-07 3.97741e-07 -2.8307e-07)
(5.05178e-09 1.05833e-07 -3.07888e-08)
(2.98174e-08 7.36904e-08 -3.80003e-08)
(2.31863e-08 7.40619e-08 -2.50728e-08)
(-4.76298e-09 3.00421e-08 -4.92126e-08)
(1.59124e-07 3.45211e-08 -4.73579e-08)
(1.28888e-07 5.42527e-08 -3.48132e-08)
(1.67753e-07 8.93768e-08 -3.90497e-08)
(-1.60282e-07 -5.13848e-08 -3.79739e-08)
(-1.28824e-07 -5.18592e-08 -3.13049e-08)
(-1.56896e-07 -5.37086e-08 -3.85653e-08)
(-1.23814e-08 1.57007e-07 -3.82852e-08)
(-6.02083e-08 1.71452e-07 2.228e-08)
(-1.27437e-07 3.58384e-07 -8.05061e-08)
(-1.02398e-07 2.80049e-07 -1.02997e-07)
(4.27662e-08 3.22767e-08 5.04661e-09)
(-1.61888e-08 3.00743e-08 -7.7828e-08)
(-2.08838e-09 -5.08639e-08 -6.0136e-08)
(-3.37507e-06 2.88191e-07 8.39384e-07)
(-1.07099e-05 -2.15697e-06 -3.38713e-06)
(-1.27931e-07 2.98391e-06 2.21493e-06)
(-4.27612e-06 2.41138e-07 -8.03131e-09)
(-4.6746e-06 -1.75726e-07 2.47028e-06)
(-1.43458e-06 -1.13746e-06 1.26958e-06)
(-3.50181e-06 -3.63016e-07 1.29378e-06)
(7.30291e-09 5.98423e-08 -4.8969e-08)
(1.08857e-08 5.54269e-08 8.92663e-08)
(-2.55946e-08 -2.87564e-08 2.2501e-08)
(-3.71054e-08 -3.88003e-08 3.7678e-08)
(8.44567e-08 2.2692e-07 -2.45542e-07)
(2.72523e-08 1.90532e-07 -1.36694e-07)
(4.67028e-08 1.34675e-07 -8.79145e-08)
(-1.61093e-07 1.11714e-07 5.79628e-08)
(-8.16666e-08 2.48343e-07 7.68905e-08)
(9.94243e-08 3.49923e-07 -1.62453e-07)
(5.01908e-08 2.174e-07 2.50613e-08)
(-3.17791e-07 1.17957e-07 2.26662e-07)
(-3.40256e-07 2.18214e-07 -1.18739e-07)
(-3.2302e-07 3.51362e-09 7.63289e-08)
(-4.62563e-08 1.21829e-07 3.22173e-08)
(3.13046e-08 1.98656e-07 -1.79729e-07)
(-2.22268e-07 4.11948e-07 -3.02702e-07)
(-1.85747e-07 2.86998e-07 -1.49646e-07)
(-7.31779e-08 2.82134e-08 1.40553e-07)
(4.93863e-08 8.52334e-08 -4.18437e-08)
(-2.05631e-08 -3.29414e-08 2.25949e-07)
(-1.16594e-08 1.6979e-07 -7.53667e-08)
(4.36316e-08 3.00827e-08 -4.55359e-08)
(6.25895e-08 1.06649e-08 -1.73141e-08)
(9.43348e-08 1.08733e-08 1.00191e-08)
(-1.2935e-07 2.1897e-07 -2.15049e-08)
(-1.44989e-07 2.08981e-07 6.63864e-08)
(-1.23151e-07 3.02053e-07 -1.07378e-07)
(-1.52911e-09 -2.66192e-07 2.53844e-07)
(-2.2245e-07 -2.42235e-07 1.28448e-07)
(1.55081e-07 -5.89916e-07 9.51525e-07)
(-2.18721e-07 -6.44105e-07 1.59225e-07)
(7.18249e-08 -5.21866e-07 -2.41409e-07)
(-2.14032e-07 -3.71524e-07 4.28009e-07)
(-1.01036e-07 -3.69599e-07 2.85383e-08)
(3.31036e-08 -6.0387e-09 1.31918e-08)
(2.39769e-08 -2.75412e-08 3.2762e-08)
(1.59799e-08 -2.14859e-08 2.82825e-08)
(2.77816e-08 -3.78525e-08 7.5759e-09)
(3.17447e-08 3.00933e-08 -1.41104e-08)
(1.70791e-09 6.56163e-08 1.09616e-09)
(2.63939e-08 2.88976e-08 1.39305e-08)
(6.97208e-08 -2.3881e-07 -2.57779e-07)
(7.36613e-08 -2.86512e-07 -2.59185e-07)
(5.23616e-09 -3.7947e-07 -6.82137e-07)
(-6.84502e-08 5.75315e-07 -3.61049e-07)
(-3.97897e-08 -3.16232e-07 -5.78504e-07)
(-4.1927e-08 -1.57439e-07 -7.01317e-07)
(-1.38127e-07 -2.01546e-07 -1.42751e-07)
(-4.86952e-08 7.10001e-07 1.17668e-07)
(-1.84727e-07 -1.91581e-07 -1.09357e-07)
(-1.15851e-07 -6.28251e-08 -1.76934e-07)
(-0.000666247 -0.000144205 -0.000270402)
(-0.00199767 0.00025861 -0.00129438)
(-0.000912236 -6.24809e-05 0.000268873)
(-0.000683669 0.000214931 -0.000785476)
(-1.58998e-07 -1.039e-07 -4.32137e-07)
(-5.29955e-08 3.84553e-07 -4.25308e-09)
(-2.108e-07 -1.65932e-07 -2.14871e-07)
(-1.18219e-07 -1.56805e-08 -3.27013e-07)
(-0.000913472 -9.60435e-05 0.000132749)
(-0.00220948 -0.000428809 0.00138382)
(-0.00118526 -0.000128052 -0.000497699)
(-0.000741633 -0.000353537 0.000701431)
(2.83641e-08 -2.00287e-07 -1.6969e-07)
(-8.39205e-09 2.91567e-07 3.08421e-08)
(-1.01671e-07 -3.0277e-07 -5.96653e-08)
(-2.89502e-08 -2.06855e-07 -8.90898e-08)
(-7.39429e-08 -7.0558e-09 -1.67267e-07)
(-1.55886e-08 1.8047e-07 -7.48859e-09)
(-8.19012e-08 -3.74931e-08 -8.98189e-08)
(-5.59839e-08 3.02254e-08 -1.48115e-07)
(2.6542e-08 -1.27777e-07 -9.10868e-08)
(1.48554e-10 9.7261e-08 -1.51614e-10)
(-2.56212e-08 -1.61618e-07 -2.05023e-08)
(-6.7482e-09 -1.41741e-07 -4.73187e-08)
(-0.000586865 -3.91086e-05 -0.000163355)
(-0.00159185 0.000253041 -0.0012611)
(-0.000804498 -2.65222e-05 0.000365981)
(-0.000581673 0.00027411 -0.000559923)
(-0.00060825 -9.23054e-05 -6.70259e-05)
(-0.00164518 -0.00043996 0.00128058)
(-0.000864906 -3.43588e-05 -0.000333647)
(-0.00058206 -0.000267056 0.000473129)
(-0.00100635 -0.000176565 0.000453877)
(-0.0025903 0.000146467 0.00118205)
(-0.00121306 7.59985e-06 -0.000305763)
(-0.000915415 0.000228106 0.00109905)
(-0.000824609 0.000128568 -0.00019062)
(-0.00244214 -0.000366358 -0.000894092)
(-0.00118068 -1.65696e-05 0.000203479)
(-0.000855518 -0.000181562 -0.000966629)
(-0.000320536 -7.30828e-05 0.000253522)
(-0.000349762 3.84711e-06 -2.27147e-06)
(-0.000885033 -1.29326e-05 0.000445853)
(-0.000281416 4.87385e-06 0.000418539)
(-0.000386626 0.000120658 -0.000294919)
(-0.000477211 1.6416e-05 3.24828e-05)
(-0.000976703 -0.000125378 -0.000437802)
(-0.000325665 6.3442e-05 -0.000467448)
(-7.04457e-08 8.01546e-07 -1.65296e-07)
(-3.09922e-07 3.18959e-07 -6.85956e-07)
(9.64867e-08 1.69358e-07 -5.57753e-07)
(-3.95232e-08 6.46167e-07 -3.9425e-07)
(-1.29822e-07 -1.14347e-06 -1.40923e-06)
(3.00095e-08 -6.79872e-07 -1.56795e-06)
(-2.35949e-07 -6.38276e-07 -1.51882e-06)
(-8.60478e-08 -4.299e-07 -1.85271e-06)
(-0.000346361 -0.000142325 0.000356281)
(-0.000892055 9.32487e-06 0.000460542)
(-0.000476496 -6.26979e-05 2.90243e-05)
(-0.000306919 -5.14633e-05 0.000508778)
(6.62698e-08 8.2367e-07 -2.04726e-07)
(9.88373e-08 -2.6126e-07 -4.86876e-08)
(-1.08501e-07 -8.53487e-08 -5.6028e-08)
(2.6921e-08 5.16916e-07 -2.87971e-07)
(-9.99181e-08 -1.27099e-06 2.57104e-06)
(-1.61775e-07 -6.11941e-07 1.70486e-06)
(6.54406e-08 -4.93356e-07 1.75949e-06)
(-3.85446e-08 -2.03129e-07 3.05348e-06)
(-1.19433e-07 -1.76318e-07 -5.97993e-07)
(-1.30839e-07 -9.20526e-08 -6.91304e-08)
(5.07778e-08 2.04335e-07 5.10729e-08)
(-3.29638e-08 -8.24562e-08 -3.88473e-07)
(-0.000101842 -1.60707e-05 -0.000103639)
(-0.000252094 -8.78709e-06 -0.000152015)
(-0.000103451 -1.32319e-06 -3.18548e-05)
(-9.51284e-05 -3.53467e-06 -0.000142758)
(-0.000123456 -2.25735e-05 4.70113e-05)
(-8.88197e-05 7.76335e-07 2.29741e-06)
(-0.000232364 -4.00913e-05 8.39321e-05)
(-7.80881e-05 -1.7248e-06 8.45139e-05)
(-7.82593e-06 -1.16056e-06 -3.80189e-06)
(-5.30985e-06 -6.61578e-07 -2.58564e-06)
(-1.06513e-05 -2.58559e-06 -6.53207e-06)
(-5.83144e-06 -4.23058e-07 -4.30654e-06)
(-1.18602e-07 7.1945e-07 -6.30941e-07)
(-3.14423e-07 2.00763e-07 -1.12471e-06)
(2.11845e-07 -1.78471e-07 -1.23917e-06)
(9.07546e-10 6.22821e-07 -1.46644e-06)
(-1.34745e-07 8.66328e-07 -7.3758e-07)
(-2.54719e-07 9.52206e-08 -3.58877e-07)
(-4.58947e-08 8.99433e-07 -1.94258e-07)
(-2.08226e-07 7.14259e-07 -4.38041e-07)
(-7.16578e-05 -2.76327e-05 4.94566e-05)
(-0.000180565 -1.79203e-05 4.0669e-05)
(-7.5243e-05 -1.58523e-05 5.4181e-08)
(-6.06859e-05 -1.51616e-05 6.58992e-05)
(-1.86857e-07 -4.75835e-08 -3.85329e-07)
(-2.64434e-07 5.61186e-07 -3.87109e-07)
(-1.16925e-07 1.69788e-06 -1.09341e-06)
(-2.57983e-07 6.55881e-07 -3.65813e-07)
(1.05633e-07 1.05789e-07 2.12381e-07)
(1.64618e-07 -2.77832e-07 1.11654e-07)
(2.27249e-07 -4.2881e-07 2.19433e-07)
(1.16938e-07 1.35498e-07 6.29904e-07)
(1.0633e-08 2.35157e-07 1.90311e-07)
(-2.34739e-07 4.38261e-07 3.63357e-07)
(1.35326e-08 1.01228e-07 3.75897e-07)
(-3.68202e-09 3.12544e-07 4.3791e-07)
(3.9249e-07 -5.68596e-07 6.76814e-07)
(9.3225e-08 1.11759e-07 1.09433e-07)
(-1.3525e-07 6.54323e-07 5.47905e-07)
(-8.49461e-08 7.01668e-07 2.81134e-07)
(-1.80463e-05 4.43215e-06 -1.47968e-05)
(-1.60926e-05 5.94238e-07 -9.831e-07)
(-3.45454e-05 -2.81101e-06 -1.33053e-05)
(-1.47027e-05 2.88275e-06 -1.55513e-05)
(4.10099e-08 -6.87481e-07 7.36506e-07)
(-1.02919e-07 -6.06955e-07 -1.51019e-08)
(-8.06649e-08 -7.63481e-07 -1.42155e-07)
(3.10547e-08 -4.41252e-07 5.21402e-07)
(9.20112e-08 -1.06375e-06 -2.11832e-06)
(3.57665e-07 -9.41188e-07 -2.06956e-06)
(-3.08276e-07 -8.50227e-07 -2.03285e-06)
(3.67052e-08 -3.69777e-07 -2.50425e-06)
(-4.82507e-06 -1.93124e-06 -3.69523e-06)
(-3.639e-06 -1.92977e-06 -5.82617e-07)
(-1.09755e-05 -1.77299e-06 -6.80495e-06)
(-3.87702e-06 -1.13311e-06 -5.01755e-06)
(8.07293e-08 -1.12183e-06 6.53331e-07)
(-9.01882e-08 -1.10505e-06 9.28889e-07)
(-3.30448e-07 -1.21294e-06 5.75725e-07)
(5.9793e-08 -8.6175e-07 6.23593e-07)
(8.87689e-08 -3.2442e-07 8.23597e-07)
(4.35964e-08 -2.58486e-07 6.26985e-07)
(-9.68516e-08 -3.13612e-07 5.59978e-07)
(4.86085e-08 -1.35167e-07 7.87747e-07)
(-1.83203e-08 3.40193e-07 -3.05817e-08)
(-1.67261e-07 5.51174e-07 -7.19585e-08)
(-7.62163e-09 -4.00318e-08 1.66217e-10)
(-1.13662e-07 1.81411e-09 -4.47772e-08)
(-2.92308e-07 -2.9092e-06 -1.9075e-06)
(-1.04967e-06 -5.62507e-06 -7.19435e-07)
(5.09244e-07 -4.89852e-06 4.47192e-08)
(-1.26888e-07 -1.04551e-06 -1.00116e-06)
(-5.94485e-08 1.10328e-06 -1.06355e-06)
(-6.82648e-08 1.01033e-07 1.39693e-07)
(3.5729e-07 6.01766e-07 1.32677e-07)
(-1.75887e-08 9.58845e-07 -2.64432e-07)
(1.03924e-07 -2.55491e-07 -5.09672e-07)
(5.03669e-07 -8.44021e-07 -1.37533e-07)
(-1.19933e-07 -6.67831e-07 -2.89032e-09)
(8.7994e-08 -6.21122e-09 -4.91329e-07)
(1.55699e-07 -1.59928e-07 -1.74717e-07)
(-1.39544e-08 7.86071e-08 6.91009e-08)
(2.69879e-08 -8.2575e-08 5.17279e-07)
(8.59889e-08 2.6218e-07 3.62394e-07)
(3.51032e-08 3.07107e-07 2.31869e-07)
(3.32256e-08 6.64729e-08 -1.31167e-07)
(1.05041e-07 1.63907e-07 -8.46135e-09)
(2.91342e-08 4.2426e-07 1.44194e-07)
(5.77033e-08 -1.46314e-07 8.2129e-07)
(-6.76906e-08 3.16698e-07 3.51058e-07)
(-2.54491e-08 9.15928e-08 3.86341e-07)
(3.5238e-08 2.07621e-07 7.55745e-07)
(-1.31782e-05 -5.11559e-06 1.28521e-05)
(-1.2674e-05 -2.23917e-06 4.56265e-06)
(-3.13422e-05 -2.04342e-06 1.36647e-05)
(-1.19001e-05 -2.54492e-06 1.57599e-05)
(-1.04034e-06 8.39451e-07 -1.0478e-06)
(-1.78748e-06 1.66119e-08 -1.6452e-06)
(-8.9284e-07 1.0602e-07 -6.00436e-08)
(-8.28176e-07 1.02579e-06 -8.89942e-07)
(-2.54143e-06 -3.26881e-07 -2.01196e-06)
(-6.74207e-06 -1.67096e-06 -3.37296e-06)
(-2.69106e-06 -3.68927e-07 -1.02003e-06)
(-2.54237e-06 -5.46589e-07 -3.11082e-06)
(-2.21204e-07 -2.38524e-07 -1.31694e-07)
(-7.06447e-08 -4.57008e-07 -2.60161e-07)
(-4.11938e-08 1.35679e-07 1.65085e-07)
(-6.84309e-08 2.06312e-07 -7.16481e-08)
(4.33172e-08 -1.49185e-07 -7.24397e-08)
(-9.95567e-08 -2.2866e-07 -3.07301e-07)
(1.87634e-08 -2.31656e-07 -2.22778e-07)
(3.35539e-08 -1.89112e-07 -2.14028e-07)
(6.26244e-08 2.39828e-07 9.72174e-08)
(2.75127e-08 8.5841e-08 -2.79806e-08)
(5.80649e-08 7.53063e-08 -3.22018e-08)
(4.21956e-08 2.26517e-07 -7.06085e-10)
(-1.08907e-08 -2.61433e-07 2.85823e-07)
(-1.0998e-08 -3.18419e-07 5.04893e-08)
(2.71829e-09 -3.26203e-07 5.27284e-08)
(-1.38618e-08 -4.2109e-07 2.12217e-07)
(9.75882e-08 -5.42262e-07 8.69197e-07)
(1.33393e-07 -3.25471e-07 4.14374e-07)
(-2.16286e-07 -2.81038e-07 7.96952e-07)
(9.63555e-08 -1.97625e-07 9.77823e-07)
(-2.36717e-08 -1.6836e-06 2.46645e-06)
(1.16951e-07 -1.25333e-06 1.76808e-06)
(-1.22277e-07 -1.09171e-06 1.85603e-06)
(-5.53598e-08 -1.0586e-06 3.25968e-06)
(4.40068e-08 -2.7538e-08 1.47947e-07)
(-5.25873e-09 -1.6867e-07 -1.21267e-07)
(-6.07048e-08 -3.43485e-07 -9.80625e-08)
(3.8619e-08 -2.55476e-07 -1.46e-07)
(-8.13349e-08 -2.1802e-06 -5.3524e-07)
(5.5225e-08 -2.11939e-06 -5.19774e-07)
(-2.66502e-07 -3.08393e-06 -2.90739e-07)
(-4.14545e-08 -9.94048e-07 -1.93523e-07)
(8.99522e-09 -1.20905e-06 1.22128e-06)
(-2.1046e-07 -1.60417e-06 2.23459e-07)
(2.11182e-07 -2.40078e-06 4.19931e-07)
(2.72999e-09 -5.01756e-07 8.58295e-07)
(2.16357e-08 -1.71712e-07 -4.98992e-08)
(3.46408e-08 -1.45748e-07 -1.02178e-07)
(3.86075e-08 -2.10267e-07 -5.48643e-08)
(2.25685e-08 -9.42162e-09 7.50883e-09)
(1.60481e-08 -1.02846e-08 8.02754e-10)
(7.86871e-10 7.9314e-09 -5.61573e-09)
(1.79043e-08 -6.64318e-09 3.10459e-09)
(1.51906e-08 -4.18025e-09 -1.26324e-08)
(1.91551e-10 1.72246e-08 -1.98449e-08)
(2.10971e-08 1.20023e-08 -1.95824e-08)
(1.73153e-08 6.53337e-09 -2.3613e-08)
(1.54407e-08 5.03128e-08 3.13238e-08)
(3.34119e-08 7.24873e-08 1.12287e-07)
(3.74994e-08 7.2784e-08 8.2998e-08)
(1.02956e-08 1.74553e-07 -1.19278e-07)
(7.1016e-08 3.5869e-08 2.36485e-08)
(1.03816e-07 6.1358e-07 8.44973e-08)
(7.48057e-08 8.75031e-07 6.28078e-08)
(-6.0468e-08 -1.14302e-06 7.64341e-07)
(-8.6453e-08 -8.14274e-07 -4.23606e-08)
(5.17043e-08 -9.07847e-07 1.14693e-07)
(1.19314e-08 -6.18275e-07 7.1273e-07)