/*--------------------------------*- C++ -*----------------------------------*\
  =========                 |
  \\      /  F ield         | OpenFOAM: The Open Source CFD Toolbox
   \\    /   O peration     | Website:  https://openfoam.org
    \\  /    A nd           | Version:  6
     \\/     M anipulation  |
\*---------------------------------------------------------------------------*/
FoamFile
{
    version     2.0;
    format      ascii;
    class       volScalarField;
    location    "1.93";
    object      p;
}
// * * * * * * * * * * * * * * * * * * * * * * * * * * * * * * * * * * * * * //

dimensions      [1 -1 -2 0 0 0 0];

internalField   nonuniform List<scalar> 
24166
(
0.997699
1.00297
1
1
1
1
1
1
1.00142
1
1.00005
1.00091
1.00218
0.997494
1.00017
1
1.00006
1.00008
1
0.999949
0.999997
0.999998
1
1
1.00085
1
1
0.979185
1
1
1.00218
1
1
1
1
1.02452
1
1.0576
1
0.752311
1.00002
1
1
1
1.00003
1
1.00415
1.0089
1
1.03691
1
1.00003
1
1.00005
0.999994
1.01442
1.01828
1
1
1.00001
0.578619
0.999927
1
1
1
1
1
1.03131
1.05754
1
1
1.00002
1
1
1
1
0.999996
1.01576
1
0.999999
1.04268
1
1
1.03948
1.00018
1
0.999947
1
1
0.999994
1
1
0.999462
1
0.999885
1.00012
1
1.00003
0.999995
1
1
1
1.00008
1
1
1
1
0.999995
1
0.999999
1
1
1
0.982533
0.997467
0.999999
1
1
0.999967
1
1
1
1.00158
1
1.01935
0.999972
1
1
1
1
1.00351
1.00307
1.00827
1.01068
1
1.00001
1
1.0341
1
0.999998
1.009
1
1.04045
1
0.996801
1
1
1.00001
0.971112
1
1
1
1
1.00001
1
1
1
1
1
1.00001
0.973556
1.01925
1
1
1
1
0.897861
1
1
1
1
1
1
0.999756
1
1.00034
1
1
1.00003
0.997426
1
1
1.04173
1
1
1
1
1
1
1
0.999999
1.0086
1
0.999064
1
0.999965
1.00099
1
1.00008
0.999995
1
1
1
1.00444
1
1
1
1
1
1.03492
1.01553
1
0.999831
1.00001
1
1
1
1
1.04337
1
1
0.999151
1
1
1.01841
1
1
1
1.00004
1
1.00226
0.999988
1.00007
1
1.00932
1
0.999997
1
1
1
1
1
1
1
1.00002
1
1.00003
0.999932
0.999937
1
0.999917
0.999999
0.999999
1.03551
1
1
1
1.00049
1
1.00001
1
1
1
1.00003
1
1
0.999999
1
1
1
0.999974
0.918013
1
1.00217
1
1
1
0.882731
0.999997
1
1.00852
1
0.826356
1
1
1
1
1
0.999998
1
0.9833
1
1
1
1.00003
0.797417
1
1
1.00061
1
1
1.00001
1.00061
1
1
1
1
1.00004
1.00122
1
1.00376
1.00001
1
0.654374
1.00111
1
0.999864
1
0.999973
1.00004
1
1
1.02596
1
1
0.999999
1
1
1
1.04448
1
1.00001
1
1.00039
1
1.0064
1
1
1.00002
1.00196
1
1
1
1
1
1
1
1
1
1
1
1
1
1
1
1
1
1
0.926953
1.00642
1
1
1
1.00649
1
1
0.996905
1
1
1
1.00021
1
1
1
1
0.999953
1
1.00038
1
1
1
1
1
1.00029
1.00085
1
1
1.00096
1
1.02409
1
1
1.00034
0.989182
1.02801
1.00039
1
1
1
1
1
1
1.00037
0.999885
1
1
1
1.00089
1
1
1.00084
1
1
0.999999
1
0.999979
0.999629
1
0.999996
1
1
0.99084
1
1
1
1
0.999296
1
1
1.00002
0.999954
1.02501
1
1.00001
1
1
1
1
1
1.00006
1.00001
1
0.965321
1
1
0.99998
1.02038
0.999999
1.06113
1.02589
1
1
1
0.998058
1.00105
0.999962
0.979391
1
1
1
0.729489
1
0.998714
1.0038
1
1
0.999999
1
0.999996
1
1
1.00067
1
1
1
1.00192
1
1
1
1.00002
1
1.00364
1
1
1.01223
1
0.999716
1
1
1
1
1
1
1
1.02778
1.02477
1
1.00003
1
0.997232
1
0.999248
1.01656
0.665643
1
1.00003
1.00001
1
1
1.0002
1
1
1
1
0.999769
1.00239
1.00115
1.00002
1
1
1
1
1.00783
1.02024
1
1
1
1
1
1.02497
1
0.999685
1
1
1
1
0.604717
1
1.00077
0.999999
1
1
1.00169
1
1.03757
0.999996
1.03945
1
1.00001
1.00041
1.02027
1
1.00001
1
1
1
1
1.01486
1
0.817464
0.693108
1
1
0.999616
1
1.02385
0.511426
1.00001
1
1
1
1.00869
0.999996
1
1.00184
1
0.999986
1
1
1
0.999318
1
1
1
0.999995
1
1
1.00314
1.00154
1.04964
1
0.999857
1
1
0.749414
1
0.999998
0.994465
1
1
0.998186
1
1
0.999605
1
0.998682
1.00001
1
0.999479
1
1.0034
1
0.999997
1
1.00028
1
1
1.03954
0.990305
1
0.982135
1
1.00064
0.999997
1
1
0.999663
1
1.02179
1
1
1.00974
1
0.990051
1
1
1.02866
1
1
1.01282
1
1
1.00047
0.999963
1.05543
1
0.999931
0.999995
0.999929
1
1
1
1
1
1.00003
1
1
1
1
1
1
0.999478
1
1
1
1.00058
0.990382
1
1.00001
1
1
0.995588
1
1
1
0.855515
0.999999
1
1.00001
1
1
1
1
1
1
1
1
1
1.00001
1.00297
1.00529
1.00001
1
0.999998
1
1
0.996379
0.999998
1.00793
1.01836
1
1
1
1
1.01086
1
0.999992
1.05301
1
1
1
0.998404
1
1
1
1
0.999107
1.04587
1
1.012
0.998418
1.03786
1
1
0.999766
1
1.03047
1
0.999963
1
1.00001
1
1.00063
1.00973
1.02966
1.00002
0.999992
1
1
1
0.999989
1
0.999988
0.999999
0.774649
1.00638
1
1
1
1
1
1
1
1
1.01814
1
1
1
1.00046
1
1
1
1
1
1.02971
1
1
1
1
1.00046
1
1
1
1
1
1.00001
1
1
1.04165
0.999997
1
1
1.00001
1
1
1
0.999996
1
1
1
1
1.04058
1
1
1
1
0.999998
1
1
1
1
0.820799
1.0152
1
1.03413
0.999998
1.00621
1
1
1
1
1
1
1
1
1
0.997733
0.999959
1
1
1
1
0.999995
1
1
1.02974
0.999993
1
1
1
1
0.999723
1
1
0.999996
1
0.999996
1.00435
1
0.999998
1.00235
0.998181
1
1.0148
1
1
1
1
1
1
1
1
0.999999
1.00069
1.00077
1
0.999763
1
1
1
1
0.99995
1
1
1
1.00089
1
1.0248
1
1.00264
0.999996
1
1
0.999615
1.06036
1
0.999999
1
0.999345
1
1
1
1.0001
1
0.999999
1
1
0.999994
1
0.983302
1
1
1.00919
1
1
1.00043
1
1.00001
1
1
0.999998
1
1
0.99995
1
1
0.988671
0.925847
1
0.999719
1
1
1.00001
1
1
1
1
1
0.999998
1.03701
1
1
1.00002
0.999971
1.01572
1.00004
1.00067
0.999999
1.00001
1
1
1
1
1.00001
0.984995
1.00021
1.10364
1
1.00413
0.999996
0.999995
1.0394
1.00561
1
1.00002
0.999998
1
1
1.00001
0.712627
0.999756
1.01983
1
1
0.998102
0.998766
1.00458
1
1
1
0.99814
1
1
1
1.02002
1
1
0.990722
1
1
1
1
1.00001
1
1
1
1
1
0.997473
0.999936
1.00019
1
1.0469
1
1
1
1.00829
1
0.999999
1.02046
1
1.02375
1
1
1
1
1
1
1.00119
1
1.00344
1
1.00008
1.01326
0.999979
1
1
1
1
1
1.03253
1.00001
1.00002
1.00003
1.00591
1.01204
1.01384
1
1
1
1
1.0005
1
1
0.999996
1
1.00273
0.999993
1
1
0.969492
1
0.999984
1
1
1
1
1
1
1.02688
1.00172
1
0.999851
1.0275
1
1
1
1.00386
1
1
0.999999
1.00001
1
1
0.999997
0.999976
0.999999
1
1.00023
1
1
0.999999
1
0.999999
1.00007
1.00344
1
1.00195
1.01966
1
0.999997
1
0.951311
1
1.00014
1
1
1
0.482059
1.00002
0.996875
1
1
1
0.999888
1
1.00014
1
1
1
0.999593
1
1
1
1
1
1.0009
1
1
1
1.0242
0.999975
0.994081
0.999982
1
0.999998
1.00001
1
1
1
1.00017
1.00068
1.00001
0.999999
1.00003
0.997711
1.00217
1
1
1
1
1.00065
1
0.999999
1
1
1
0.443193
1
0.487204
1
1
1
1.00022
1.00002
0.999995
0.999136
1.01879
0.999995
1
1.00591
1
1.01162
1.00053
1
1
0.99668
1
0.999417
1.04282
0.999999
0.999968
1
1
1
1
1.08661
0.996995
1
0.999999
1.00413
1
1
1.00531
0.323515
1
1
1.00004
1
1
1.02201
1.0098
1
1
0.999999
0.999996
1
1
1
1
1
1
1
1
1
0.999865
1
0.999998
1.00942
1.0001
1
1
0.995018
1
1
1
1
0.999977
1
1
1
1.00281
1
1.0277
0.999834
0.999992
1
1.0057
1
1
0.962893
1
1.00073
0.999996
1.00336
1
0.999999
1
1
1
1
1
0.829447
1
1.00096
1
1
1
1
1
1
1
1
1
1
1.00027
1.00005
1
1.06922
1
1.01504
1.00002
1
1
1
1
1
0.999981
0.999681
1.00001
1.00042
1.03072
1
1
1
1
1
1
1
1
1
1.07255
1.00977
0.413231
1
1
1.00024
1
0.437823
1
0.999691
1
1
1.00028
0.864778
1
1
1
0.999923
1.00275
0.999999
1
1
1
1.00873
1
0.999999
0.999987
1.02972
1
1
1.02477
0.999995
0.98533
1.00003
1
0.999994
1
1
1
1
1
1
1
1
1.00885
1
1
1
1
0.998683
1.00447
1
1
1
1
1
0.999986
1
1.00002
0.991206
1.00003
0.999995
1
1
0.943386
1.00005
1.00001
1
0.642027
1.00018
1
1
0.999999
1
1
1
0.999997
1
1
1
1.02316
1
1
0.999996
1
1.00249
1.00001
1.00006
1
1.01018
1
1
1
1
1
1
1.01551
0.999996
1
1
1
1
1
0.999938
1.00035
1.0028
1.00135
1
0.999987
1
1.00005
1
0.999997
0.999995
1
1
0.999998
0.953547
1.04302
1
1
1
1.03639
1
0.333008
1.00016
1
1
1.00093
0.999223
1
1
1
1.00153
1.02043
1
0.999973
0.999646
0.999995
1
1
1.0008
1
1
0.999976
1
1
0.999988
1
1
1
1
1.00247
1
1
1.00025
1.01567
1.00005
1.00201
1
1
1.00297
1.03184
0.999998
0.999998
1.02465
0.909261
0.383269
1
1
1
1
1
0.999999
1
1
0.99971
1
1
1.03109
1
0.999997
1
1
1
0.998995
1
1
1
1
1.00038
1
1
1
0.999999
0.999793
1
0.999277
1.00005
1
1
1
1
1
1
1
0.999828
0.371153
0.999997
1.00005
1
1
1
1
1
1
1.02966
1
1
1
1
1.01821
1.00029
1
1
0.999992
1
0.999994
1
1.01782
0.999751
1
1
1
0.999887
1.02456
1
1
1
1.00082
1
1
1
1
1.03452
1
1.00079
0.999994
1
1.06024
1.00065
1
0.996548
1.00002
1.05677
1
1.04163
1
1
0.999695
1
1
1
1
1
0.99999
1
1
0.999994
1
0.999953
1
1.00029
1.00001
1.01162
1
1.00004
1.03316
1.03038
1.00408
0.999988
1.00003
0.994513
1
1.00241
1.00003
0.996659
1
1
0.999982
1.00722
1
1.00045
1
1
1.00017
1
1
0.999014
1
1
1
1.00001
1.00389
1.00001
1.00001
1
1
0.999982
0.999998
1
1.06195
1
1
0.999999
1
0.999999
0.999986
1
0.99984
1
1
1.00007
1
1
1
1
1.00001
0.998935
1
1.0004
1
1.0065
1
1
1
0.999998
1
1
0.999998
0.999999
1
1
1.00007
1.02566
1
1
1
1
1
1
1
1
1
1
1.02562
1
0.999998
1.03118
1.05143
1
1
1.00222
1
1
1.02604
1
0.999988
1
0.999999
1
1.00661
1
0.998587
1.04695
1
1
1
1
1
1
0.973332
1
0.999919
1
1
1
1
1
0.98832
1.00222
0.99792
0.999999
1
0.738488
1.0122
0.999999
1.00268
1
1
1.02527
1
0.999998
1
1
1
1
1
1
1
1
1
1
0.999999
1
1
1
1
0.999999
1
1.00094
0.999996
1
1.00001
1
0.99961
1
1
1
0.999994
1.00214
1
1.05227
1
1.00017
1
1
1.00002
1.03028
1.00016
0.999972
1
1
0.999968
1
1.03355
1
1
1
1
1.00755
1
1.01107
1
1
1
1.01615
1
1
0.99764
1
1
1
1
1
1.04055
0.999998
1.00161
1.04275
0.999998
1.00357
1
1
0.999924
1
1
1
1
1.03032
1
1
1
1.00555
1.00001
1.00239
1.00006
1
1
1
1
1
1.02306
1
0.874723
1
1.01534
1
1
1.00071
1.00013
1
1
0.999956
1
1.00009
1
1
1.00005
0.999894
1
0.999347
0.999998
0.999998
1
0.996966
1
1
1
1.00392
1.03255
1.00001
1
1.00749
0.999998
1
1
1.02318
1
1
0.999961
1
1
1
1.00505
1
1
1
1
1
1
1
0.989561
1
1
1
0.999998
1.00373
1
1.00661
1.00002
1
1.00272
0.999996
0.99935
1.00001
0.999998
1
1
1
1
1.00001
1
1
0.999982
1
1
1
1.02325
1
1
1.004
1
1
1
1
0.999276
0.992778
1
1
1
1
1
1
0.996827
1.02379
1
0.999994
0.999999
1.00006
1
1.02051
1
0.999924
1
1
1.04647
1.00278
1.00001
1.00608
1.02076
1.04957
1.06061
1.00001
1.00003
0.9926
1.00579
1.07072
1
1
0.997603
1
1
1.0389
0.999997
1
1.01138
1
1.05653
1
1
0.999999
1.02314
1
1
1
1
1.00049
0.998047
1
0.999994
1
1
1.00113
1
1
1
1
1.01494
1
1
1.00001
1.01085
1
1
1
1
1.1975
1
0.999994
1.0484
1.00315
0.999884
1
1.00403
1.00345
0.999923
1.011
0.999389
1
1
1
1
1
1
1
1
1
1
1
1
0.999999
0.999985
1.02579
0.999997
1
0.989686
1.00002
1.00074
1.00355
1
1
1
0.999978
0.979004
0.992067
1.02927
1
1
0.999998
1.00001
1.01402
1
1.00021
1.018
1
0.616708
1
1
1
1
1.00024
1
1
1
0.833478
1.00013
1.00272
1
1
1
1
1
0.591987
1
0.999379
1
1
1
1
1
1
1
1
1
1.00203
1.00144
1
1
0.964909
1
1.00009
1
1
1
1
1
1
0.999988
1.00442
0.999009
0.999997
1
1
1
1
1.00193
1
1.00169
1
1
1.00102
1
1
1.01161
0.982947
1.00547
1.01285
1
1
1
1
0.999999
1.00096
1.00048
1.00337
0.999999
1.00001
1
1.00268
1.02419
1
1
1
0.999928
1
1.00001
1
1.00007
1.00734
0.999979
1.00044
1
1
0.999994
1
1
1.00065
1
1
1.01362
0.998536
1
1.01421
1
1
0.999704
1
1.03135
1
1
1.04006
0.79588
1
1.02394
1.00234
1
1
1
1
1
1
1
0.999921
1
1
0.982677
1.00651
1.00012
1
1
0.999998
1
1
1.0007
0.998089
0.999887
0.884588
1
1
1.00539
1
1
1
1
1
1
0.999993
1
1
0.773466
1
1
1.0007
1
1
1
0.999996
1
1
1
1
1
1
1
1.00168
1
1
1.02385
0.999098
1
1
0.99999
0.999999
1
1
1
1
1
0.999986
1
1
1
1.00197
1
1
1
0.999672
0.999998
0.999997
0.999975
1
0.87668
1
1
1
0.999988
1.00001
0.999988
1.00011
1
1
1
0.998141
1
0.700491
1
1
1
0.999945
1.00013
1
1
1.04785
1
0.999979
1
1.05108
0.99922
1.00141
1
1
1.02458
1
1.00601
1
1
1
1.00003
1
0.999999
1.04454
1
1
1
1
1.00006
1
1
0.999992
1
0.999994
1
0.999927
0.741186
1.00129
1.00041
1
1.00004
0.999998
1
1
1
0.999273
0.999995
1
1
1
1
0.999633
1.00146
1.00001
1
1
1
1
1.0157
1
1.00176
0.999668
1
1
0.990323
1.00004
1
1
1
1
1
1
1
1
1
1
1.00484
1
0.999906
1.00239
1
1.00004
1
1
1.01718
1.09297
0.994053
1
1
1
1
0.999999
1
0.999984
1.00002
0.99999
1
1.06499
1
1.00017
1.00038
1
1.00023
1.01191
1.03871
1
1.04572
1.00001
1.00493
1
1
1.00005
1
0.999993
1
1.07046
1
1
0.998194
0.843971
1
0.980056
1
0.999996
1.00003
1
1.00001
1
1
1
1
1
1
1
1
0.996414
1
1.00425
0.888323
1.00163
1
1
1.00372
1.00255
1
1
0.999748
1.03759
1.00329
0.999998
1
1
0.613
1.00205
1
1
1
1
1
1
0.999999
0.997819
0.997124
1.04922
0.972563
1
1.01738
1
0.991916
1
1
1.02058
0.999999
0.999999
1
1.00417
0.99999
1
1
1
1
1.00116
1
1
1
1
1.00072
1.02029
1
0.999998
1
1
1
1.01248
1
1
1.02376
1.00001
1
1
0.998386
1
1
0.999997
1
1
0.999733
1
1.00422
1
1
1
1
1
1
1.00013
1
1.00699
1.02389
1.02009
1
1
1.00014
1.00157
1.00665
1
1.06644
1
1.00002
0.962165
1
0.925422
1
1
1
1
1
1.0007
1
1.03285
1
0.992195
1
0.999979
1
1
1
1
1
1
0.999624
1
1.00001
1
1.02583
0.999997
1.00236
1
1
1.00091
1
1
1
1.05539
1.01049
0.999952
1
1
1
0.999766
1
1
1.01216
1.00371
1
1.02101
1
1.00002
0.999982
0.999967
1
1
0.994313
0.999998
1.00002
1
1
1
1.00001
1
1
1
1
1
1
1
1.00005
1.00356
1
0.841405
1.00008
1
0.999969
1.00076
0.990721
1
0.987811
1
1
1
1
1
1.00114
1
1
1
1.01618
1.00001
1
1.00137
1
1.00012
1
1
1.03053
1.05193
1
1
1.00041
1
1.02442
1
1
0.996064
1
1
0.972322
0.99997
0.999996
1
1
1
1
1.05236
1
0.865214
1.00233
1
0.999718
1
0.999999
1
1
1.03855
0.999947
1
1
1
1
1
1.00071
1
1
1
0.999831
1.00916
1.00207
1
1.00063
1
1.00022
1.00194
1
1
1
1
0.98529
1
1.02809
1.00028
1
1
1
1
1
1
1.00002
1
1
1
1
1
1
1
1
1.11865
0.99995
1.03602
0.999945
0.999737
0.999974
1
0.999775
0.402782
1.00009
1
1.01372
1
1.00006
1.00159
1.00471
1
1
0.999742
1
1
1
1
1.0001
1
1.0514
1
1.0009
1
1
0.999977
1
0.999998
1
1
1
1.00001
0.999083
1
1.00001
0.667158
0.999999
0.598881
1.00168
0.999992
1.00073
0.999999
1.00012
0.999718
1
1.008
0.999996
1
0.999996
1
1
1.00202
1.00088
1
1
1.07121
1
1
0.997948
1.00394
1
0.998305
1
1
1
1.01135
1
1
1
1
0.993215
0.999992
1
0.840198
1
1
0.691754
1
1.03843
1.00001
1.00002
1
1
1
1
1
1
1
1
1
0.999975
0.999946
1
0.594721
1
1
0.99855
1
1.00001
1
1
0.996927
1
1.00001
1
1
1
1
1
1
1
1
0.999999
1
1
1
1.00024
0.998554
1.00003
1
1.00186
1.0011
1.00001
0.999999
1
1.00002
1.00254
1
1
1
1.00328
1
1
0.452158
1
1
1
1
1
1.00001
1
0.999956
1
0.998958
1
0.999997
1.00101
1
1.00001
1.03642
1
1
1.02268
0.739805
1
1.00004
1
1
1
0.991228
0.999971
1
1.00046
0.770886
0.473432
1
0.842819
1
1
1
1
1
1
1.00014
1
0.455166
0.999973
1.00003
0.999997
1
1
1.00003
1
1
0.999996
1
1.00015
1.00001
0.999999
1
1
1
1
1
0.830753
1
0.999997
1
1
0.916847
1
0.999951
1
1
0.99999
1.0032
1.0009
1
1
1
1
1
1.00005
0.999597
1
1
1
1
1
1
1
1
1
1
1.00574
1
1.05028
1
1
1
1.00767
1
1
1.00049
1
1.00001
1.00001
1
1
1
0.999999
1.00004
1
0.999992
0.999996
0.999999
1
0.44188
1
1.00019
1
1
1.02473
0.99996
1.00229
1.02231
0.988084
1
1.04898
1
0.317177
1
1.00081
1
1
1
1
1.00934
1.0062
0.999995
1
1.04456
1.00335
1.00095
1
0.990485
1
1
1
1.00018
0.999317
1.00002
0.293098
1
1
1.00005
0.999986
1.045
1
1
1
1.00137
1
0.999956
0.999869
1.00001
1
1
1
1
0.9979
0.999823
1.04482
0.351221
0.999998
1
1
1
1.00013
0.996454
1.00003
0.999466
1
1
1.0001
1
1
1
0.999828
1.00688
1.0091
1.00001
1
0.999863
0.999856
0.985865
1
1.00621
1
0.956472
1
1.00039
0.999999
0.999982
1
1.03749
0.878982
1
1
1
1.00001
0.987058
1
0.999998
1
1
1.00681
1
1
1.00001
1.00088
1
1
1.00035
0.995899
1
1
0.619387
1
1.00004
1
1
1
1
1
0.999998
1
1.00001
1
1
1
1
1
1.00001
1
1
0.999918
1
1
1.0006
1
0.99126
1
1
1
1.00002
1
0.99444
1
1
0.999999
1
1
1
1
1
1.02148
1
1
1
0.362538
1
1.0066
1
1.024
1
1
1
0.846544
1
1
1.00035
1
1
1.00158
0.999434
0.981073
0.383546
1
1
1
1.12763
1
1
1.00206
1
1
1
0.999998
1
1.00001
1.01101
1
1
1
1
1.00916
0.999999
1
1
0.999483
1
1
1
1
1
1
1
1.00003
1
1
1
1
1
1.00002
0.999536
1
1
1
1
1
1.0037
0.999999
1
1
1
1.00006
0.734432
1
1.00005
0.999999
0.999992
1
0.99997
1
1.0001
1.00163
1
1
1.11105
1.02241
1
0.994877
1
1
0.405586
1
1
1.00001
1
1
1.00002
0.405731
1
1
1
1
1
1.0002
1
1
0.991451
1
1
1
1
1
0.999683
1.00052
1
1
1
0.999997
1
1
1
1
1
1
0.983897
1.00701
0.999995
1
1
1.03725
1
1
1
0.999999
1
1
0.999984
1
1.01956
1
1
1
1
1
1
1.00421
0.999965
1
1
1.01839
1
1
1
1.0087
1
1
1
1
1
1
1
0.999999
1.00012
0.512671
1
1
1
1
1.00003
1
1
1
1
0.999744
1.00001
1
1
1
1
1
0.922764
1
1
1
1
1
1
0.889707
1
1.01431
1
1
1.01179
0.993311
1
0.999999
1
0.987682
1.00001
1
1
1
1
1
1.00244
1
1.00043
1
1
1
1
1.00032
1
1.02715
0.999997
1.00003
1.05126
1
1
1.00015
1
1.00183
0.999999
1
1
1
1.00001
1
1
1
1
1.0004
1
1
1.03433
1
1
1.00107
0.955096
1.02436
1
1.00143
1
0.999998
0.960353
1.00609
1
1.00001
0.99996
1
1.00002
1.00003
1
1
1
1
1.0027
1
1
1.00109
1
1.03421
1
1
1
1
0.878274
1
1
1
1.00002
1
1
1
0.987671
0.985544
1
1
1
1
1
0.999976
1
0.843719
0.767901
1.0022
1
0.999684
1
1.00011
1.00453
0.999993
1
0.998893
1
1
1
0.593366
1
1
1.03941
0.99977
0.999997
0.992203
0.999794
0.999954
1
1.03301
1
1
0.99992
1
1
1
1
1.00001
1
1
1.00002
1
1
1.04235
1
1
1
1
0.978021
1
0.999997
1
0.999995
1
1
0.999999
1
1
1
1.00002
1
1
1
0.573963
1
1
1
1
1
0.999999
1.00021
1
1
1
1
1
1.00216
1
1
1
1.01185
1
1
0.999988
1
0.99998
1.00003
1
0.987328
1
1
0.996722
0.999811
1.0005
1
1
1
1
1
0.396595
1.00233
0.999816
1.00002
1
1
1
1
0.999998
0.99911
1
0.985176
1
1.00045
1
0.999999
1
1
1
1
1
1
1
0.99978
0.999978
1.02151
1.00093
1
1.00325
0.999698
0.999219
1
1
0.99935
0.999998
0.99999
1.01399
1
1
1
1.00607
1.04118
1
1
1
1
1
1
0.999961
0.999999
1
0.761395
1
1
1.00017
1
1.04986
1
0.999999
1
1
1
0.999888
1
1
1
1
1.00001
1
0.999994
0.999973
1
0.999988
1
0.999997
1
1
1
1
1
1
0.993597
1
1.00008
1
1
1.00072
1.00008
1
1
1
1.01093
1
1
1.03031
1
1.00099
1.00388
1
1
1
1.00985
1
1.00126
1.00021
0.999988
0.999986
1.01219
1.00005
1
0.999992
1
1.00005
1
1
1.00166
0.999954
0.999992
0.7032
1.00001
1.00003
1
1
1
1
1.00002
1
1.00031
1.03621
1
1
1
1
1
1
1
1
1
1
1
1
1
1
1
0.999998
1
1
0.999999
1.00001
1
1
1
0.539418
1
1
1
1
0.999968
1
1
1
1.00039
1
1.00004
1
1
1
1
1
1.00016
0.999998
1
1
1.00021
1
1
1
1.0042
1
1
1
1.00001
1
1
1
1
0.999988
0.999903
1
1
1
1
1
1
0.999422
1
0.999998
1
1
1
0.772422
0.999999
1
1
1
1
1
0.999583
1
1
1.02653
1.00355
1
1
1
1
1
1
1
1
1
1
1
1
1
1
1
1
1
1
1
1
1
1.00006
0.733457
1.00902
1
1
0.99998
1
0.776692
1
1
1
1
1
1
1.00045
1
1.00001
1
1.00732
1.00003
0.999985
1
1
0.999994
1
0.999998
1
1
1.00005
1
1
1.00002
1.00033
0.999999
1
1
0.99988
1
1
1
1
1
0.999995
1.00007
1.00021
1
1.00002
0.999979
0.99999
0.999993
1
1
1
1
1
1.00209
1
1
0.99995
0.999932
1
1
1
1.00441
0.938781
1
1
1
0.999994
1
0.999962
1
0.999998
1
1
1
1
1
1
0.970635
1
1
1
1.00001
1
1.04134
0.999998
1
0.996798
1
1
1
1
0.999592
1
1
1.00333
1
1
1.22946
0.999884
1
1
1.04161
0.999884
1
1
1
0.980916
1.00218
1
1
0.999985
1
0.999997
0.999679
1
0.999979
0.999996
1
1.02046
1
1
1
1
0.985516
0.305069
1
0.999928
1.03974
1
1
1
1
1
0.744712
1.00021
1
1
1
1
1.03193
1
1
1.00005
1
1
1
0.999956
1
1
1
1
1
1
1.00011
1
0.999941
0.902783
0.999916
1
1
0.990689
1
1.0001
1
1.00359
1
1
1.03288
1
1
0.993485
1
1
1.00005
1
1
0.999742
1.00447
1
1.01968
1
1
1
1
1.0441
1
1
1
1
1.00004
0.999183
1.00091
1
1
0.999988
1.00001
0.998965
1
1.00265
1
1
1
1
1.04394
1.00005
1
1
1
1
1
1
1
1.04907
1
0.98321
1
1
1
1
1.00001
1
0.905476
1.00375
1
1
1.03055
1
1
1
1
0.985601
1
1.04686
1
1
1
1
1
1
1
0.999982
1
1.00003
1
1
1
1
0.990294
0.999995
1
1
1
1
1.00019
1
1
1.02191
0.996564
0.996269
1
0.980617
0.999835
1
1
1.05271
1
1.00002
1
1.00008
1.03008
1
1
1.00002
1.00357
1
1
0.999985
0.99895
1
1.05597
0.99998
1
1
1
0.999999
1
1
0.999997
1
1
1
1
1
1.00003
0.999997
1
0.75188
1
0.999914
1
1.00015
0.999967
1
1
1.00001
1
1
1.00001
0.999993
1
1
0.890971
1
1
1
1
1
1
0.706179
1.03963
1.04788
1.00039
1
1
1
1
1
1
0.999991
1
1
1
1.00001
1.00107
1
1.00047
0.999975
1
1.00212
1
1.01004
1.0007
0.988062
0.999998
1
1.00012
1
1
0.999998
1
1.00001
1
0.999997
1.02062
0.999851
1
1.00008
1
0.998313
1
1
1
0.999934
1
1
1
1
1.02534
0.999932
1
1
0.926489
1
1.00004
1
1
1
1
1
1
1
1
1
1
1
1
1
1
1
1
1
1
1.00057
1
1.0218
1
1
1
1
1
1
0.999997
1
1
1
1.01513
1
1
1
1.00002
0.999991
1.00001
0.999533
1
1.00003
1.03408
1
1.05152
1.00011
1
1
1
1
0.999997
1
1
0.999136
1.00391
0.999836
1
1
1.00004
1
0.999924
1
1
0.984611
0.999976
0.834213
0.999995
1.00009
1
1
0.999858
0.999997
1
1
1
1
0.999982
0.999581
0.999987
1.03333
0.999964
1
1
1
1
1
1
1
1.00011
1
1
1
1.03776
1.00033
0.999995
1.02263
1
1
0.999999
1
0.9986
1.00192
0.999987
1
1
1
1.00006
1
1
1.05006
1
1
0.923799
0.999665
1
1
1.00382
1
1
1
0.974496
1
1
0.998252
1
1.00007
1.00849
1.00832
0.999982
1.00791
1
0.975803
0.999234
0.48274
1
1
1.00001
1
0.999998
1
1
1
0.999999
1
1
1.00017
0.711816
0.999801
1
1.00543
1
1.00088
1.00219
1.0001
1
1.02883
1
1
1
1.00397
0.999975
1
0.998182
1
0.999999
1
1
1
1.00023
1
1.00001
1
1
1
0.613315
1
1
1
0.484601
1
0.999908
1
1
1
1
1
1
1
1
1.00007
0.999668
0.994001
1
1.00633
1
1
1
1
1.01299
0.999918
1
0.760659
1
0.999997
1
1
0.999698
1.00037
1.02218
1.00532
1
1.00003
1.00017
0.991856
0.999959
1
1
1
0.999995
1.01069
1
1
1
1
1
1.04283
1.00155
1
0.990113
1
1
0.999925
1.00306
1.03701
1
0.999957
1
1
1
1.00012
1
1
1
1.0425
1
1
1
1
1.01565
1
0.986218
0.999999
0.999997
1.00015
1
0.999997
0.998586
1.00001
0.827189
1
1
1
1
1
1
1
1
1
1.00781
1
1
1
1
1
1
1
1.00001
0.963682
1
0.998166
1
1
1.01538
1.00043
1.00023
1
1
1
0.384491
1
1.00339
1
1.00084
1
0.999999
1
1
1
1
1
1
0.999975
1
1
1
1
1
1
1
1
1.01196
1
1.00515
1
1.00075
0.999999
1
1
1.02121
1
1
1
1
1.00828
0.999153
1
1.00044
0.999998
1.00012
1.04631
1
1
1.00019
1
1
1
1
1.04199
1
1
1
1.00001
1.00099
1
1
1.00001
1
1
1.00009
1.00083
1
1
1
1.00017
1.00924
1.02419
1
1
1.00016
1
1.02266
1
0.999472
1
1
1
1
1.03647
0.995497
1.01445
0.999983
1
1
1
1
0.999999
1
1
1
1.00458
1
1
1
1.03407
1.02926
1.02147
0.919742
1
0.952271
1
1
1
0.999966
1
0.999974
0.993133
1
1.00078
1
1
1.05936
1.05
1
1
1.00196
0.999528
1.03013
1
1.00021
0.382106
0.932937
1
1
0.999997
1
1.00299
0.995573
1.00491
1
1
1.01889
1
0.999991
0.944337
1
0.474758
1
1.02575
1
1.00001
0.594179
1
1
1
1.04019
1
0.627096
1
0.931354
1
0.999998
0.439246
1
1
1
0.999999
0.999793
1
1.01061
1
0.999999
0.997684
1.00033
0.999999
1
1
1
1.00975
1
1.00017
0.999619
1.00006
1.00008
1.04886
1.00005
1
0.995372
1
1
1.0373
1
1.01591
1.00007
1
0.99995
0.999516
1.01122
1
0.999671
1
1.00033
1.00029
1
0.776414
1.04442
0.999999
1.04521
1.0169
1
1
1
1.00001
1
1.00002
0.999986
1
1
1.00274
1
1.00001
1
1.00166
0.999977
1.0038
1
1
1
1
1
0.865023
0.999994
1
0.999531
1
1
1
0.902809
1
1
0.999544
1.00039
1
0.999997
1.00004
1.00046
1
1.00001
1
1.02706
1
1
1
1
1
0.942504
1.00192
1
1
0.999976
1.02249
1.00011
1
1
0.999995
1
1.02102
1
1.00001
1
1
1
1
1
1
1.00003
0.99999
1
1
1
0.968994
0.994593
0.99564
1
1
1.05157
1
1
1
1
0.737793
1
1
1
1
1.00001
1
0.519837
1
1
1
0.990689
1
1
1
1
1
0.780761
1.02213
1.04774
1
0.998139
0.968051
1
1.01095
0.979238
0.998933
1
1
1
1
1
1
1
0.999706
1.00065
1
1.01198
0.999986
0.999997
1
0.999983
1
1.00035
1
0.999972
0.999999
0.99998
1.00002
0.999995
1
1
1
1.00001
1.00879
1.04389
1
1
1
1
0.828444
1
1
1
1
1
0.999992
1.01063
1
1.00556
1
1
1
1
1
0.999964
1
1
1.04857
1
1.00005
1.00014
1
1
1
1
1
1
1
1
0.999985
1.02864
1
1
1.00001
1
0.893856
1
1.00001
1
1
1
1
1
1.00582
1
1
0.997801
1
1
1
1
1
1
1
1
1
1.00293
0.999574
1.00001
1.00679
1
1.00001
1
1
1
1.02858
0.998047
1.00109
0.999994
1
0.999997
1
1
1.00006
1
1
0.804842
1.0002
0.999999
1
1.00018
1.0209
1
1.00003
1
1
1
0.999998
1
1
1
1
0.761612
0.977005
0.99998
1
1
1
0.844402
1
0.999996
0.999999
1.00068
1
1
1
0.593648
1
1
1.01406
1
0.996032
1
1
1
1.00034
1
1
1
1
1
1.00304
1
1
1
0.999935
1
1
1.00002
1
1
1.00037
0.533474
1.00001
0.999981
1
1
1
1
1.00106
1
1
0.999977
0.999996
1
0.999999
1
1
1
1
1.0001
1
1
0.999986
1
1
1
1
1
0.999999
1
1
1
1
1
1
1
1.00002
1
1
1
1.00002
0.999998
0.934274
1.00024
1
1
1
1
0.999972
1
1
1.0072
1.02018
1
1.03681
1
1.00055
1.00892
0.999995
1
0.610513
1
1
1
0.999995
0.999997
0.862378
1
1
1
0.999675
1
1
1.00001
1
1.00008
1
1
1
1.00003
1
1.00001
1
1
0.999916
0.999998
0.995516
1.01615
1
1
0.764169
1
1
1
1
1.01609
1
1
1
0.999998
1
0.996449
1.00382
1
1
1
0.984445
1.01593
1
1
0.990135
1
0.998996
1.00321
1
1
1.00002
1
1.02105
1
1
1.00309
1
1.00676
0.997423
1
0.999773
1.00254
1.00001
0.988783
1
1
1
1
1
1
1.00004
0.993702
1.00005
0.999264
1
1
0.999977
1.00853
1
1
1
1
1
1
1.00001
1
1
1
0.999998
1
1
1
1
0.369904
1
1
1
0.999999
1
1
1
1
1
1.01504
1
1
1
1.00001
1
1
1
0.720655
1
1
1
1
1
0.999999
0.999811
1
1.00102
1
1
0.999858
1
1
1
0.999925
1
0.999999
1.00001
1
0.990066
0.288148
1.00089
1.08126
1
1
1.00008
1.02916
1.00005
1
1
1
1.01351
1
1
1
1.00044
1
1
1.00001
0.999998
1
1
1
1.00108
1
1.00002
1
1
0.655635
1
1.00001
1.01437
0.999998
1
1
1
1
1
1
1.04884
1
1
1
1
0.937162
1
1
0.999986
1
1
1
0.886648
1
1
1
1.00576
1.0319
1
1
1
1
1
1.0653
0.983039
0.999999
1
1
1
1
0.999986
1
1.00976
1
1
1.00005
0.99997
1.00001
1
1
1.00012
1
1
0.999999
1
1
1
1.00003
0.999999
0.999992
1
1
1
0.78974
1
1.00001
1.00031
1
1.01967
1.00675
1
1
1
1.00005
1
0.951447
1
1.00002
1
0.999673
1
1.00001
1.00199
1
1.00152
1
1.00319
1.00202
1
1
1
1
0.999994
1
1.00017
1
1.00034
1.0151
1
1
0.914247
1
1
1
1
1.00002
1.02883
1.00023
1
1.05381
1
1
1.00055
1
1
1
0.896063
1
1
1
1
1
0.99876
1.00006
1
1
1.0341
1.00579
1
0.999948
0.999897
1.00397
1
0.999999
1.00001
1
1
0.999993
1
0.72496
0.999817
1
1
1
1.00005
1.00005
0.999999
1
0.999984
1
0.999394
0.999902
0.999998
1
0.999968
1.00619
1
1
0.667982
1
1
1.00017
1
1
1.00022
1
0.972768
1.00006
0.980446
1
0.387061
1.00042
1
1
0.923133
0.734937
0.999988
0.526233
0.832755
1
1.00019
1
1.01706
0.999999
1
1
1
1.00715
1
0.994858
1
0.99999
1
1
1.00522
1
1
0.999965
0.478626
1
0.999618
1.0008
1
1
1
1.00006
1
1.07054
1
0.783786
1.00714
0.999996
0.999997
1
0.960933
1.00053
1
1
1.00008
1.0008
1
1
0.99995
1.00006
1.03815
1
1.00004
1
1.03721
1
1.00001
1
1.00623
1
1.02585
1.00007
1
1.00004
1
0.999996
1.00035
1.02119
1
1.01332
1
1
1
0.999997
1
1
1
1
1.0002
1
0.999991
1
1
0.947382
1.00001
0.999998
1.00002
1
1
1
0.975311
1
1
1
0.999999
1
1.00021
1
1
1.00115
1
1.00089
1
1.0013
1.04237
0.281433
1
1
1
1
1
1.00011
1.02731
1
1.00028
0.99993
0.919585
1
0.999985
1
1
1
1.0234
1
0.999811
0.999992
1
1.00107
0.997598
1
1
1.00615
0.999978
1.00002
1.0004
1
0.999995
1
1
1.0137
1
1
1
1
1
1
1
0.982214
1
0.999999
0.794491
1
1
0.999993
1
1
1.02016
1
1
1
1
1.00078
1
1.00007
1.02519
1
1
1
0.999988
1
1
1
0.942873
1.03743
1
1.0402
0.999991
1
1
1.00297
1.00029
1.04578
1.00001
0.999999
1
1
1
1
1
1
1
1
1.00835
0.98713
1.00023
1
0.997755
1.00162
1
1
0.999998
1
0.999992
1
1.00461
1
1
0.999995
0.999999
1
0.997332
1
1
1
1
1
1
1.00061
1
1
1
1.00012
1
1
0.999997
1.0068
1
0.999999
1
1
1
1.01214
1.00005
0.999999
1
1
1
1
1.00379
0.999639
1
0.999993
1
0.999958
1.00076
1
0.999991
1
0.998748
1
1
1
1.00012
1
1.00001
0.997346
1.01087
1
1
0.996634
0.982398
0.972057
1
1
1
1
1
1
1
1
1.00032
1.00026
0.999961
1
1
1.00001
1
1
1
1
1.00019
1
1
1.00058
1.04024
1
1.00801
1.00112
1
1
1
1
0.998031
1
1
1
1
1
1
1
0.999995
1
1
1
1.00001
1.00003
1
1
1
1.01009
1
1.00083
1.00355
1
1
1
1
1
1.00001
1
0.773397
0.999289
1
0.999902
1.00001
0.999885
1.01875
0.99715
1
1
1.00001
1
0.999986
1
1
1
1
0.966109
1.00013
1
1
1
1
1
1.0409
1
1
1
1
1.01632
0.999999
1
1
1.02125
1
1.00345
1.01122
1.0657
1
0.999649
1
1
1
0.542615
1
1
0.999995
1
1.00734
1
1.00001
0.994836
1
1
1
1.00001
0.999957
1.00025
1
1.01524
1
1
1
0.999989
1
1
1
1
1
1
1.01014
1
1
1
0.999981
1
1
1
1
1.00012
1.00105
1
0.999684
1
0.999946
1.02139
1
1.10498
1.00021
0.460606
1
0.99984
0.999963
0.745223
1
0.999946
1
0.992322
1
0.999965
1.00137
1.00007
0.991376
1
1
1
0.999958
0.992821
1
1.00001
1
1.00004
1
1
1
1
1
1
1.01943
1
0.999998
1.00006
1
1
1.01205
1
0.999995
0.999998
1
1
1.07917
1
1.00059
1.00001
1
1
0.983753
0.999999
1
1
1
1
1
0.715229
1
1
1.00034
1.00635
0.999999
1
1.00003
1.00001
1.00037
1.00008
1
1
1
1.00435
1
1
1
1.02836
1.03111
1.00004
1
1
1
1
1
1
1.00001
1.00033
1
1
1
1
0.99994
1.03113
1.00075
1
1.00003
1
0.999999
0.999996
1
1
1
1.00023
1
1
1
1
1
0.999999
0.999879
1
1
1.00003
1.00031
1
1
1
1
1
1
1.00001
1.00752
1.00585
1
1
1
1
1.00002
0.988957
1.00004
1
1.00044
1
1
1
1.02311
1
1
1.00151
1
1
1
1.03063
1
1.00009
1.0179
1.00328
1
1.02799
0.410909
1.00071
1
1
1
1.00409
0.982539
1
1.00032
1
1
1.00384
1
1
1.00249
1.00002
1
1
1.00342
1.00028
1.00212
0.999992
1
1.00009
1.00159
1
1
1
1
1
1.0029
1
1
0.999986
1.07036
1
1
1
1
1
1.00002
1
1.00183
1.00024
1
0.999969
1.01188
1
1.01635
0.999775
1
1.00278
0.400257
1.04141
1
1
1
1
1
1
1.00239
0.999999
0.999982
1.00182
1
1.0002
1.02149
1
1
0.999998
0.999313
1.01606
1
1
1.04071
1
1
1
1
1
1.00415
1
1
1
1.00007
1
1
1
1
1
1
1
0.996939
1
1
1
1
1
0.999992
1
1
1
1
0.999837
1
1
1
1
1.00029
1
1.00447
1
1
1
1.0026
0.99999
1
1.02796
1
1.00005
1
1
1.03474
1
1
1
1
1
1.0043
1.01363
1.09649
0.758783
1
1
1
1.00001
1.0007
1
1.00137
0.999994
1
0.938165
0.684683
0.999999
1
1
1
0.999967
1
0.999772
1
0.999963
1
1
1
0.961376
1
1
1
0.999999
1.00026
1
1
1
1
1
1
1.00642
1.01549
1
1
1
1.02567
1
1
1
1.00009
1.00044
0.999993
1
1.03625
1
1
1
0.999999
0.999996
0.9999
0.999999
1
1
1
1
1.00332
1
1
1
1
1
1
1.00001
1.02026
1
1.00043
0.967398
0.905908
1
1
1
1
1.0008
1
1
1.03844
1
1
0.999243
1
0.928675
0.999972
1
1
0.999996
1
1
1
1
1.01156
1
1
1
1
1
1
1.00108
0.992008
1
1
0.705884
0.999998
1
1
1.02095
0.440883
1
1
0.999991
1.00098
1
1
1
0.998823
1
0.924122
1
1
1
1
1.00019
1
1.00002
1.06667
1
1
1
1.02174
1
1
1
1.00816
0.999998
1
1
1.00084
1
1
0.917025
1
1
0.999995
1.02338
1
1
1
1
1.02267
1
1.00057
1.00001
1.00006
0.999996
1
1
0.89255
1
1.01319
1
1
1
1.00019
1
1
1
1
1
1.00457
1.00025
1
1.00326
1
0.613821
1
1
1
0.99962
1.01269
1
0.999999
1
1.00044
1
1
1
1.01303
1
1.01171
1
0.999939
1
1
1
1
1
1
0.999998
1
0.999999
1
1.11421
1
1
0.694048
1
1
1.0365
0.999999
0.993317
0.30008
1
1
1.00059
1
1
1
1
1
1
0.999947
1
1.00059
1.07208
1.00013
1
1
1
1
1
1.00001
0.999994
1
1
0.999996
1.01951
1
1
1
0.340874
1
1
1
1
1
0.995243
1
1
1
1
1.00486
1
1
0.999995
0.738757
1
1.00012
1
1
1
1
0.999806
0.818827
1.01573
1
0.998558
1
1
1
1
0.99998
1.00001
1
1
1.00547
1
0.999999
1.00003
1
0.999999
1
1.04784
1.00001
1
0.999634
1.00003
1.00014
1.00002
1.01032
1
1
1
1
0.568373
1
1.01675
1
0.991484
1.00816
1
1
1
1
1
0.998717
1
1.00875
1
0.999963
0.999998
1
1.00054
0.999989
1
1
1
1.00002
0.999946
1
0.99999
1.01327
1
1
1
1
1.00663
0.999979
1
0.999879
1
1
1
1
1
1.00986
1.00112
1
1.00032
1.01717
1.00003
1
0.999975
1.0134
1.00061
0.809359
1
1
1.00027
1.00008
1.00037
1.00004
1
0.999996
1
1
1
1
1
1.00002
1.00047
1
1
1
1
1.00001
1
1
1
1
1
1
0.999978
1
1.00068
1.00009
1.00022
1
1
1
1.00003
0.999992
1
1
1
1
0.999983
1.01398
1
0.99999
1
1
1
0.991144
1
1.00001
1
1
0.999976
0.999987
1
1.00032
1
1
1
1
1.00663
1
1.00002
1
1
1.00424
1
1
1
0.922802
0.994658
0.999999
1
1.00039
1.00498
0.327051
0.999995
0.999992
1.00362
1
1
1.0009
1.00027
1
1
0.999998
0.997122
1.0013
1
1.01061
0.999955
1
0.989817
1
1
1.06371
0.355935
0.999994
1
1
0.999999
0.999983
1
1
0.999968
0.99997
1
1.00006
0.999944
1
1.01496
1
1
1
0.999998
1
0.999958
1.00001
1
1
0.474906
1
1
1
0.642606
1
1
1.00306
1
1
1.00207
1
1
1
1
1
1.01365
1
1
1
1
1.00004
1
1.00019
1.00138
1
1
1
1
1
1
0.901841
0.867508
1.04766
0.999994
1
1
1
1
1.00003
1
1
1
1.00003