/*--------------------------------*- C++ -*----------------------------------*\
  =========                 |
  \\      /  F ield         | OpenFOAM: The Open Source CFD Toolbox
   \\    /   O peration     | Website:  https://openfoam.org
    \\  /    A nd           | Version:  6
     \\/     M anipulation  |
\*---------------------------------------------------------------------------*/
FoamFile
{
    version     2.0;
    format      ascii;
    class       volVectorField;
    location    "3.4";
    object      U;
}
// * * * * * * * * * * * * * * * * * * * * * * * * * * * * * * * * * * * * * //

dimensions      [0 1 -1 0 0 0 0];

internalField   nonuniform List<vector> 
10000
(
(0.8944 0.4472 0)
(0.8944 0.4472 0)
(0.8944 0.4472 0)
(0.8944 0.4472 0)
(0.8944 0.4472 0)
(0.8944 0.4472 0)
(0.8944 0.4472 0)
(0.8944 0.4472 0)
(0.8944 0.4472 0)
(0.8944 0.4472 0)
(0.8944 0.4472 0)
(0.8944 0.4472 0)
(0.8944 0.4472 0)
(0.8944 0.4472 0)
(0.8944 0.4472 0)
(0.8944 0.4472 0)
(0.8944 0.4472 0)
(0.8944 0.4472 0)
(0.8944 0.4472 0)
(0.8944 0.4472 0)
(0.8944 0.4472 0)
(0.8944 0.4472 0)
(0.8944 0.4472 0)
(0.8944 0.4472 0)
(0.8944 0.4472 0)
(0.8944 0.4472 0)
(0.8944 0.4472 0)
(0.8944 0.4472 0)
(0.8944 0.4472 0)
(0.8944 0.4472 0)
(0.8944 0.4472 0)
(0.8944 0.4472 0)
(0.8944 0.4472 0)
(0.8944 0.4472 0)
(0.8944 0.4472 0)
(0.8944 0.4472 0)
(0.8944 0.4472 0)
(0.8944 0.4472 0)
(0.8944 0.4472 0)
(0.8944 0.4472 0)
(0.8944 0.4472 0)
(0.8944 0.4472 0)
(0.8944 0.447201 0)
(0.8944 0.447201 0)
(0.8944 0.447201 0)
(0.894401 0.447201 0)
(0.894402 0.4472 0)
(0.894403 0.447199 0)
(0.894405 0.447198 0)
(0.894406 0.447195 0)
(0.894408 0.447191 0)
(0.89441 0.447187 0)
(0.894411 0.447181 0)
(0.894412 0.447176 0)
(0.894411 0.44717 0)
(0.894408 0.447165 0)
(0.894404 0.447162 0)
(0.894399 0.447162 0)
(0.894392 0.447164 0)
(0.894385 0.44717 0)
(0.894379 0.44718 0)
(0.894375 0.447192 0)
(0.894372 0.447207 0)
(0.894372 0.447223 0)
(0.894375 0.447239 0)
(0.894381 0.447251 0)
(0.894387 0.44726 0)
(0.894395 0.447267 0)
(0.894403 0.447267 0)
(0.894409 0.447264 0)
(0.894415 0.447259 0)
(0.894419 0.447247 0)
(0.894417 0.447237 0)
(0.894417 0.447228 0)
(0.894416 0.447216 0)
(0.894412 0.447207 0)
(0.894408 0.447201 0)
(0.894405 0.447196 0)
(0.894402 0.447192 0)
(0.8944 0.447192 0)
(0.894398 0.447191 0)
(0.894397 0.447192 0)
(0.894397 0.447193 0)
(0.894397 0.447194 0)
(0.894397 0.447195 0)
(0.894398 0.447197 0)
(0.894398 0.447197 0)
(0.894399 0.447198 0)
(0.894399 0.447199 0)
(0.894399 0.447199 0)
(0.8944 0.4472 0)
(0.8944 0.4472 0)
(0.8944 0.4472 0)
(0.8944 0.4472 0)
(0.8944 0.4472 0)
(0.8944 0.4472 0)
(0.8944 0.4472 0)
(0.8944 0.4472 0)
(0.8944 0.4472 0)
(0.8944 0.4472 0)
(0.8944 0.4472 0)
(0.8944 0.4472 0)
(0.8944 0.4472 0)
(0.8944 0.4472 0)
(0.8944 0.4472 0)
(0.8944 0.4472 0)
(0.8944 0.4472 0)
(0.8944 0.4472 0)
(0.8944 0.4472 0)
(0.8944 0.4472 0)
(0.8944 0.4472 0)
(0.8944 0.4472 0)
(0.8944 0.4472 0)
(0.8944 0.4472 0)
(0.8944 0.4472 0)
(0.8944 0.4472 0)
(0.8944 0.4472 0)
(0.8944 0.4472 0)
(0.8944 0.4472 0)
(0.8944 0.4472 0)
(0.8944 0.4472 0)
(0.8944 0.4472 0)
(0.8944 0.4472 0)
(0.8944 0.4472 0)
(0.8944 0.4472 0)
(0.8944 0.4472 0)
(0.8944 0.4472 0)
(0.8944 0.4472 0)
(0.8944 0.4472 0)
(0.8944 0.4472 0)
(0.8944 0.4472 0)
(0.8944 0.4472 0)
(0.8944 0.4472 0)
(0.8944 0.4472 0)
(0.8944 0.4472 0)
(0.8944 0.4472 0)
(0.8944 0.4472 0)
(0.8944 0.4472 0)
(0.8944 0.4472 0)
(0.8944 0.4472 0)
(0.8944 0.447201 0)
(0.8944 0.447201 0)
(0.8944 0.447201 0)
(0.8944 0.447202 0)
(0.8944 0.447202 0)
(0.894401 0.447202 0)
(0.894403 0.447201 0)
(0.894404 0.4472 0)
(0.894407 0.447197 0)
(0.894409 0.447194 0)
(0.894412 0.447189 0)
(0.894414 0.447183 0)
(0.894416 0.447176 0)
(0.894416 0.447169 0)
(0.894415 0.447163 0)
(0.894412 0.447157 0)
(0.894407 0.447153 0)
(0.8944 0.447152 0)
(0.894392 0.447154 0)
(0.894383 0.447161 0)
(0.894375 0.447172 0)
(0.894368 0.447187 0)
(0.894364 0.447205 0)
(0.894363 0.447224 0)
(0.894365 0.447243 0)
(0.89437 0.447261 0)
(0.894378 0.447276 0)
(0.894388 0.447284 0)
(0.894398 0.447289 0)
(0.894408 0.447288 0)
(0.894415 0.447281 0)
(0.89442 0.447274 0)
(0.894425 0.44726 0)
(0.894424 0.447244 0)
(0.894422 0.447232 0)
(0.894419 0.447219 0)
(0.894414 0.447208 0)
(0.894409 0.4472 0)
(0.894406 0.447195 0)
(0.894402 0.447191 0)
(0.894399 0.44719 0)
(0.894398 0.44719 0)
(0.894397 0.447191 0)
(0.894396 0.447192 0)
(0.894396 0.447194 0)
(0.894397 0.447195 0)
(0.894397 0.447196 0)
(0.894398 0.447197 0)
(0.894399 0.447198 0)
(0.894399 0.447199 0)
(0.894399 0.447199 0)
(0.8944 0.4472 0)
(0.8944 0.4472 0)
(0.8944 0.4472 0)
(0.8944 0.4472 0)
(0.8944 0.4472 0)
(0.8944 0.4472 0)
(0.8944 0.4472 0)
(0.8944 0.4472 0)
(0.8944 0.4472 0)
(0.8944 0.4472 0)
(0.8944 0.4472 0)
(0.8944 0.4472 0)
(0.8944 0.4472 0)
(0.8944 0.4472 0)
(0.8944 0.4472 0)
(0.8944 0.4472 0)
(0.8944 0.4472 0)
(0.8944 0.4472 0)
(0.8944 0.4472 0)
(0.8944 0.4472 0)
(0.8944 0.4472 0)
(0.8944 0.4472 0)
(0.8944 0.4472 0)
(0.8944 0.4472 0)
(0.8944 0.4472 0)
(0.8944 0.4472 0)
(0.8944 0.4472 0)
(0.8944 0.4472 0)
(0.8944 0.4472 0)
(0.8944 0.4472 0)
(0.8944 0.4472 0)
(0.8944 0.4472 0)
(0.8944 0.4472 0)
(0.8944 0.4472 0)
(0.8944 0.4472 0)
(0.8944 0.4472 0)
(0.8944 0.4472 0)
(0.8944 0.4472 0)
(0.8944 0.4472 0)
(0.8944 0.4472 0)
(0.8944 0.4472 0)
(0.8944 0.4472 0)
(0.8944 0.4472 0)
(0.8944 0.4472 0)
(0.8944 0.4472 0)
(0.8944 0.4472 0)
(0.8944 0.4472 0)
(0.894399 0.447201 0)
(0.894399 0.447201 0)
(0.8944 0.447201 0)
(0.894399 0.447202 0)
(0.894399 0.447202 0)
(0.8944 0.447203 0)
(0.8944 0.447203 0)
(0.894402 0.447203 0)
(0.894404 0.447202 0)
(0.894406 0.4472 0)
(0.89441 0.447197 0)
(0.894413 0.447193 0)
(0.894417 0.447187 0)
(0.89442 0.44718 0)
(0.894422 0.447171 0)
(0.894422 0.447163 0)
(0.894421 0.447155 0)
(0.894417 0.447148 0)
(0.894411 0.447143 0)
(0.894402 0.447142 0)
(0.894392 0.447144 0)
(0.89438 0.447152 0)
(0.89437 0.447164 0)
(0.89436 0.447181 0)
(0.894353 0.447202 0)
(0.89435 0.447226 0)
(0.894351 0.447251 0)
(0.894356 0.447273 0)
(0.894365 0.447293 0)
(0.894376 0.447308 0)
(0.894389 0.447316 0)
(0.894402 0.44732 0)
(0.894414 0.447315 0)
(0.894423 0.447303 0)
(0.894428 0.44729 0)
(0.894431 0.447274 0)
(0.89443 0.447255 0)
(0.894427 0.447238 0)
(0.894423 0.447223 0)
(0.894417 0.447209 0)
(0.894411 0.447199 0)
(0.894405 0.447193 0)
(0.894401 0.44719 0)
(0.894398 0.447188 0)
(0.894397 0.447188 0)
(0.894396 0.447189 0)
(0.894396 0.447191 0)
(0.894396 0.447193 0)
(0.894396 0.447195 0)
(0.894397 0.447196 0)
(0.894398 0.447197 0)
(0.894399 0.447198 0)
(0.894399 0.447199 0)
(0.894399 0.447199 0)
(0.8944 0.4472 0)
(0.8944 0.4472 0)
(0.8944 0.4472 0)
(0.8944 0.4472 0)
(0.8944 0.4472 0)
(0.8944 0.4472 0)
(0.8944 0.4472 0)
(0.8944 0.4472 0)
(0.8944 0.4472 0)
(0.8944 0.4472 0)
(0.8944 0.4472 0)
(0.8944 0.4472 0)
(0.8944 0.4472 0)
(0.8944 0.4472 0)
(0.8944 0.4472 0)
(0.8944 0.4472 0)
(0.8944 0.4472 0)
(0.8944 0.4472 0)
(0.8944 0.4472 0)
(0.8944 0.4472 0)
(0.8944 0.4472 0)
(0.8944 0.4472 0)
(0.8944 0.4472 0)
(0.8944 0.4472 0)
(0.8944 0.4472 0)
(0.8944 0.4472 0)
(0.8944 0.4472 0)
(0.8944 0.4472 0)
(0.8944 0.4472 0)
(0.8944 0.4472 0)
(0.8944 0.4472 0)
(0.8944 0.4472 0)
(0.8944 0.4472 0)
(0.8944 0.4472 0)
(0.8944 0.4472 0)
(0.8944 0.4472 0)
(0.8944 0.4472 0)
(0.8944 0.4472 0)
(0.8944 0.4472 0)
(0.8944 0.4472 0)
(0.8944 0.4472 0)
(0.8944 0.4472 0)
(0.8944 0.4472 0)
(0.8944 0.4472 0)
(0.8944 0.447201 0)
(0.894399 0.447201 0)
(0.894399 0.447202 0)
(0.894399 0.447202 0)
(0.894399 0.447203 0)
(0.894399 0.447204 0)
(0.894398 0.447205 0)
(0.894399 0.447206 0)
(0.894401 0.447206 0)
(0.894402 0.447206 0)
(0.894405 0.447205 0)
(0.894409 0.447203 0)
(0.894414 0.447198 0)
(0.894419 0.447193 0)
(0.894423 0.447185 0)
(0.894427 0.447176 0)
(0.894429 0.447166 0)
(0.894429 0.447156 0)
(0.894428 0.447147 0)
(0.894423 0.44714 0)
(0.894415 0.447135 0)
(0.894405 0.447133 0)
(0.894392 0.447136 0)
(0.894378 0.447145 0)
(0.894364 0.447158 0)
(0.894351 0.447178 0)
(0.894342 0.447202 0)
(0.894335 0.44723 0)
(0.894334 0.447259 0)
(0.894338 0.447288 0)
(0.894347 0.447314 0)
(0.89436 0.447335 0)
(0.894375 0.44735 0)
(0.894392 0.447356 0)
(0.894408 0.447355 0)
(0.894422 0.447348 0)
(0.894432 0.447332 0)
(0.894438 0.447311 0)
(0.89444 0.44729 0)
(0.894438 0.447267 0)
(0.894434 0.447245 0)
(0.894427 0.447226 0)
(0.894419 0.44721 0)
(0.894412 0.447199 0)
(0.894406 0.447192 0)
(0.894401 0.447188 0)
(0.894398 0.447187 0)
(0.894396 0.447187 0)
(0.894395 0.447189 0)
(0.894395 0.447191 0)
(0.894395 0.447193 0)
(0.894396 0.447195 0)
(0.894397 0.447196 0)
(0.894398 0.447197 0)
(0.894398 0.447198 0)
(0.894399 0.447199 0)
(0.894399 0.447199 0)
(0.8944 0.4472 0)
(0.8944 0.4472 0)
(0.8944 0.4472 0)
(0.8944 0.4472 0)
(0.8944 0.4472 0)
(0.8944 0.4472 0)
(0.8944 0.4472 0)
(0.8944 0.4472 0)
(0.8944 0.4472 0)
(0.8944 0.4472 0)
(0.8944 0.4472 0)
(0.8944 0.4472 0)
(0.8944 0.4472 0)
(0.8944 0.4472 0)
(0.8944 0.4472 0)
(0.8944 0.4472 0)
(0.8944 0.4472 0)
(0.8944 0.4472 0)
(0.8944 0.4472 0)
(0.8944 0.4472 0)
(0.8944 0.4472 0)
(0.8944 0.4472 0)
(0.8944 0.4472 0)
(0.8944 0.4472 0)
(0.8944 0.4472 0)
(0.8944 0.4472 0)
(0.8944 0.4472 0)
(0.8944 0.447201 0)
(0.8944 0.447199 0)
(0.8944 0.447201 0)
(0.8944 0.4472 0)
(0.8944 0.4472 0)
(0.8944 0.4472 0)
(0.8944 0.4472 0)
(0.8944 0.4472 0)
(0.8944 0.4472 0)
(0.8944 0.4472 0)
(0.8944 0.4472 0)
(0.8944 0.4472 0)
(0.8944 0.4472 0)
(0.8944 0.4472 0)
(0.894399 0.4472 0)
(0.894399 0.447201 0)
(0.894399 0.447201 0)
(0.894398 0.447202 0)
(0.894398 0.447203 0)
(0.894398 0.447204 0)
(0.894397 0.447205 0)
(0.894397 0.447207 0)
(0.894397 0.447209 0)
(0.894398 0.44721 0)
(0.8944 0.447211 0)
(0.894403 0.447211 0)
(0.894408 0.44721 0)
(0.894413 0.447207 0)
(0.894419 0.447201 0)
(0.894425 0.447194 0)
(0.894431 0.447184 0)
(0.894435 0.447174 0)
(0.894438 0.447163 0)
(0.894438 0.447152 0)
(0.894435 0.447142 0)
(0.894429 0.447135 0)
(0.89442 0.44713 0)
(0.894408 0.447129 0)
(0.894393 0.447133 0)
(0.894375 0.447143 0)
(0.894358 0.447158 0)
(0.894342 0.44718 0)
(0.894328 0.447208 0)
(0.894318 0.44724 0)
(0.894314 0.447274 0)
(0.894316 0.447309 0)
(0.894325 0.447342 0)
(0.894338 0.44737 0)
(0.894356 0.447391 0)
(0.894376 0.447404 0)
(0.894398 0.447408 0)
(0.894417 0.447402 0)
(0.894433 0.447388 0)
(0.894445 0.447366 0)
(0.894451 0.447339 0)
(0.894451 0.44731 0)
(0.894448 0.447281 0)
(0.894441 0.447254 0)
(0.894432 0.44723 0)
(0.894422 0.447212 0)
(0.894413 0.447198 0)
(0.894405 0.447189 0)
(0.894399 0.447186 0)
(0.894396 0.447185 0)
(0.894394 0.447186 0)
(0.894393 0.447188 0)
(0.894394 0.44719 0)
(0.894395 0.447193 0)
(0.894396 0.447195 0)
(0.894397 0.447196 0)
(0.894398 0.447198 0)
(0.894399 0.447199 0)
(0.894399 0.447199 0)
(0.894399 0.4472 0)
(0.8944 0.4472 0)
(0.8944 0.4472 0)
(0.8944 0.4472 0)
(0.8944 0.4472 0)
(0.8944 0.4472 0)
(0.8944 0.4472 0)
(0.8944 0.4472 0)
(0.8944 0.4472 0)
(0.8944 0.4472 0)
(0.8944 0.4472 0)
(0.8944 0.4472 0)
(0.8944 0.4472 0)
(0.8944 0.4472 0)
(0.8944 0.4472 0)
(0.8944 0.4472 0)
(0.8944 0.4472 0)
(0.8944 0.4472 0)
(0.8944 0.4472 0)
(0.8944 0.4472 0)
(0.8944 0.4472 0)
(0.8944 0.4472 0)
(0.8944 0.4472 0)
(0.8944 0.4472 0)
(0.8944 0.4472 0)
(0.8944 0.4472 0)
(0.8944 0.4472 0)
(0.8944 0.4472 0)
(0.8944 0.4472 0)
(0.8944 0.4472 0)
(0.8944 0.4472 0)
(0.8944 0.4472 0)
(0.8944 0.4472 0)
(0.894401 0.447201 0)
(0.8944 0.447199 0)
(0.8944 0.447201 0)
(0.894401 0.4472 0)
(0.894399 0.4472 0)
(0.8944 0.4472 0)
(0.8944 0.447201 0)
(0.8944 0.447201 0)
(0.894399 0.447201 0)
(0.894398 0.447202 0)
(0.894398 0.447203 0)
(0.894397 0.447204 0)
(0.894396 0.447206 0)
(0.894395 0.447208 0)
(0.894394 0.447211 0)
(0.894394 0.447214 0)
(0.894395 0.447217 0)
(0.894396 0.447219 0)
(0.894399 0.44722 0)
(0.894404 0.44722 0)
(0.894411 0.447218 0)
(0.894418 0.447214 0)
(0.894426 0.447207 0)
(0.894434 0.447197 0)
(0.894441 0.447186 0)
(0.894445 0.447175 0)
(0.894447 0.447163 0)
(0.894446 0.447152 0)
(0.894442 0.447143 0)
(0.894435 0.447136 0)
(0.894423 0.447133 0)
(0.894409 0.447134 0)
(0.894392 0.44714 0)
(0.894371 0.447151 0)
(0.89435 0.447169 0)
(0.89433 0.447193 0)
(0.894312 0.447224 0)
(0.894298 0.44726 0)
(0.89429 0.447299 0)
(0.894289 0.44734 0)
(0.894296 0.44738 0)
(0.89431 0.447416 0)
(0.89433 0.447445 0)
(0.894354 0.447465 0)
(0.89438 0.447474 0)
(0.894406 0.447473 0)
(0.89443 0.44746 0)
(0.894449 0.447437 0)
(0.894461 0.447406 0)
(0.894466 0.44737 0)
(0.894465 0.447333 0)
(0.89446 0.447297 0)
(0.89445 0.447263 0)
(0.894438 0.447235 0)
(0.894425 0.447212 0)
(0.894414 0.447196 0)
(0.894404 0.447187 0)
(0.894398 0.447183 0)
(0.894394 0.447182 0)
(0.894392 0.447184 0)
(0.894392 0.447187 0)
(0.894393 0.44719 0)
(0.894394 0.447193 0)
(0.894395 0.447195 0)
(0.894397 0.447197 0)
(0.894398 0.447198 0)
(0.894399 0.447199 0)
(0.894399 0.447199 0)
(0.894399 0.4472 0)
(0.8944 0.4472 0)
(0.8944 0.4472 0)
(0.8944 0.4472 0)
(0.8944 0.4472 0)
(0.8944 0.4472 0)
(0.8944 0.4472 0)
(0.8944 0.4472 0)
(0.8944 0.4472 0)
(0.8944 0.4472 0)
(0.8944 0.4472 0)
(0.8944 0.4472 0)
(0.8944 0.4472 0)
(0.8944 0.4472 0)
(0.8944 0.4472 0)
(0.8944 0.4472 0)
(0.8944 0.4472 0)
(0.8944 0.4472 0)
(0.8944 0.4472 0)
(0.8944 0.4472 0)
(0.8944 0.4472 0)
(0.8944 0.4472 0)
(0.8944 0.4472 0)
(0.8944 0.4472 0)
(0.8944 0.447199 0)
(0.8944 0.447201 0)
(0.8944 0.447199 0)
(0.8944 0.447201 0)
(0.8944 0.447199 0)
(0.8944 0.447201 0)
(0.8944 0.4472 0)
(0.894399 0.4472 0)
(0.894401 0.4472 0)
(0.894399 0.4472 0)
(0.8944 0.4472 0)
(0.8944 0.4472 0)
(0.894399 0.4472 0)
(0.8944 0.447201 0)
(0.8944 0.447201 0)
(0.894398 0.447202 0)
(0.894397 0.447202 0)
(0.894396 0.447204 0)
(0.894395 0.447206 0)
(0.894394 0.447209 0)
(0.894392 0.447212 0)
(0.89439 0.447216 0)
(0.894389 0.44722 0)
(0.894389 0.447225 0)
(0.894391 0.447229 0)
(0.894394 0.447232 0)
(0.894398 0.447234 0)
(0.894406 0.447233 0)
(0.894414 0.44723 0)
(0.894425 0.447225 0)
(0.894434 0.447216 0)
(0.894443 0.447206 0)
(0.894451 0.447194 0)
(0.894455 0.447182 0)
(0.894456 0.44717 0)
(0.894453 0.447161 0)
(0.894447 0.447154 0)
(0.894437 0.44715 0)
(0.894424 0.44715 0)
(0.894407 0.447154 0)
(0.894387 0.447163 0)
(0.894364 0.447177 0)
(0.894339 0.447197 0)
(0.894314 0.447225 0)
(0.894292 0.447259 0)
(0.894273 0.447298 0)
(0.894261 0.447343 0)
(0.894257 0.447389 0)
(0.894261 0.447436 0)
(0.894274 0.44748 0)
(0.894296 0.447517 0)
(0.894323 0.447545 0)
(0.894355 0.447561 0)
(0.894389 0.447564 0)
(0.89442 0.447555 0)
(0.894449 0.447533 0)
(0.89447 0.447499 0)
(0.894483 0.447456 0)
(0.894487 0.447407 0)
(0.894483 0.447359 0)
(0.894473 0.447313 0)
(0.89446 0.447273 0)
(0.894444 0.44724 0)
(0.894428 0.447213 0)
(0.894414 0.447195 0)
(0.894403 0.447184 0)
(0.894396 0.44718 0)
(0.894392 0.44718 0)
(0.89439 0.447182 0)
(0.894391 0.447186 0)
(0.894392 0.44719 0)
(0.894394 0.447193 0)
(0.894395 0.447195 0)
(0.894397 0.447197 0)
(0.894398 0.447198 0)
(0.894399 0.447199 0)
(0.894399 0.447199 0)
(0.8944 0.4472 0)
(0.8944 0.4472 0)
(0.8944 0.4472 0)
(0.8944 0.4472 0)
(0.8944 0.4472 0)
(0.8944 0.4472 0)
(0.8944 0.4472 0)
(0.8944 0.4472 0)
(0.8944 0.4472 0)
(0.8944 0.4472 0)
(0.8944 0.4472 0)
(0.8944 0.4472 0)
(0.8944 0.4472 0)
(0.8944 0.4472 0)
(0.8944 0.4472 0)
(0.8944 0.4472 0)
(0.8944 0.4472 0)
(0.8944 0.4472 0)
(0.8944 0.4472 0)
(0.8944 0.4472 0)
(0.8944 0.4472 0)
(0.8944 0.4472 0)
(0.8944 0.447201 0)
(0.8944 0.447199 0)
(0.8944 0.447201 0)
(0.8944 0.447199 0)
(0.8944 0.447201 0)
(0.894401 0.447199 0)
(0.894399 0.4472 0)
(0.8944 0.447201 0)
(0.8944 0.447199 0)
(0.894399 0.4472 0)
(0.8944 0.447201 0)
(0.8944 0.447198 0)
(0.894399 0.447202 0)
(0.8944 0.4472 0)
(0.894399 0.447201 0)
(0.894398 0.447202 0)
(0.894396 0.447204 0)
(0.894394 0.447206 0)
(0.894393 0.447208 0)
(0.89439 0.447213 0)
(0.894388 0.447217 0)
(0.894384 0.447222 0)
(0.894382 0.447228 0)
(0.894381 0.447236 0)
(0.894382 0.447242 0)
(0.894385 0.447248 0)
(0.89439 0.447252 0)
(0.894397 0.447254 0)
(0.894407 0.447253 0)
(0.894419 0.44725 0)
(0.894432 0.447243 0)
(0.894442 0.447234 0)
(0.894452 0.447223 0)
(0.894459 0.447212 0)
(0.894462 0.4472 0)
(0.894461 0.447191 0)
(0.894456 0.447185 0)
(0.894447 0.447182 0)
(0.894434 0.447183 0)
(0.894417 0.447188 0)
(0.894398 0.447198 0)
(0.894375 0.447212 0)
(0.894349 0.447231 0)
(0.894321 0.447255 0)
(0.894293 0.447286 0)
(0.894265 0.447324 0)
(0.894243 0.447368 0)
(0.894225 0.447416 0)
(0.894216 0.447469 0)
(0.894218 0.447522 0)
(0.89423 0.447573 0)
(0.894251 0.447618 0)
(0.894282 0.447655 0)
(0.89432 0.44768 0)
(0.894362 0.447688 0)
(0.894404 0.44768 0)
(0.894442 0.447658 0)
(0.894475 0.447623 0)
(0.894499 0.447574 0)
(0.894512 0.447516 0)
(0.894513 0.447452 0)
(0.894505 0.447389 0)
(0.89449 0.447331 0)
(0.89447 0.447283 0)
(0.89445 0.447243 0)
(0.89443 0.447214 0)
(0.894413 0.447193 0)
(0.894401 0.447182 0)
(0.894393 0.447177 0)
(0.894389 0.447177 0)
(0.894388 0.447181 0)
(0.894389 0.447185 0)
(0.894391 0.447189 0)
(0.894394 0.447193 0)
(0.894396 0.447196 0)
(0.894397 0.447197 0)
(0.894398 0.447199 0)
(0.894399 0.447199 0)
(0.894399 0.4472 0)
(0.8944 0.4472 0)
(0.8944 0.4472 0)
(0.8944 0.4472 0)
(0.8944 0.4472 0)
(0.8944 0.4472 0)
(0.8944 0.4472 0)
(0.8944 0.4472 0)
(0.8944 0.4472 0)
(0.8944 0.4472 0)
(0.8944 0.4472 0)
(0.8944 0.4472 0)
(0.8944 0.4472 0)
(0.8944 0.4472 0)
(0.8944 0.4472 0)
(0.8944 0.4472 0)
(0.8944 0.4472 0)
(0.8944 0.4472 0)
(0.8944 0.4472 0)
(0.8944 0.4472 0)
(0.8944 0.4472 0)
(0.8944 0.4472 0)
(0.8944 0.4472 0)
(0.8944 0.4472 0)
(0.8944 0.447201 0)
(0.894401 0.4472 0)
(0.8944 0.4472 0)
(0.894401 0.447201 0)
(0.894399 0.4472 0)
(0.894401 0.4472 0)
(0.8944 0.447199 0)
(0.894398 0.447201 0)
(0.894402 0.4472 0)
(0.894397 0.4472 0)
(0.8944 0.447202 0)
(0.8944 0.447202 0)
(0.894394 0.447201 0)
(0.894395 0.447206 0)
(0.894392 0.447208 0)
(0.89439 0.447211 0)
(0.894385 0.447215 0)
(0.894381 0.447223 0)
(0.894377 0.44723 0)
(0.894372 0.447239 0)
(0.894369 0.447248 0)
(0.894369 0.447259 0)
(0.894371 0.447267 0)
(0.894375 0.447275 0)
(0.894384 0.447281 0)
(0.894395 0.447284 0)
(0.894408 0.447283 0)
(0.894422 0.447279 0)
(0.894437 0.447272 0)
(0.894448 0.447263 0)
(0.894457 0.447253 0)
(0.894462 0.447245 0)
(0.894462 0.447237 0)
(0.894458 0.447234 0)
(0.894448 0.447233 0)
(0.894435 0.447238 0)
(0.894418 0.447247 0)
(0.894398 0.44726 0)
(0.894375 0.447278 0)
(0.89435 0.4473 0)
(0.894322 0.447326 0)
(0.894291 0.447356 0)
(0.894259 0.447393 0)
(0.894229 0.447436 0)
(0.894202 0.447484 0)
(0.89418 0.447536 0)
(0.894166 0.447594 0)
(0.894163 0.447656 0)
(0.894174 0.447714 0)
(0.894196 0.447766 0)
(0.894229 0.44781 0)
(0.894273 0.447842 0)
(0.894325 0.447858 0)
(0.894378 0.447854 0)
(0.89443 0.44783 0)
(0.894475 0.447789 0)
(0.894512 0.447735 0)
(0.894537 0.447666 0)
(0.894549 0.447587 0)
(0.894546 0.447502 0)
(0.894531 0.44742 0)
(0.894508 0.447349 0)
(0.894481 0.44729 0)
(0.894455 0.447245 0)
(0.894431 0.447213 0)
(0.894412 0.447191 0)
(0.894398 0.447179 0)
(0.89439 0.447175 0)
(0.894387 0.447176 0)
(0.894386 0.44718 0)
(0.894388 0.447185 0)
(0.894391 0.44719 0)
(0.894394 0.447193 0)
(0.894396 0.447196 0)
(0.894397 0.447198 0)
(0.894398 0.447199 0)
(0.894399 0.447199 0)
(0.8944 0.4472 0)
(0.8944 0.4472 0)
(0.8944 0.4472 0)
(0.8944 0.4472 0)
(0.8944 0.4472 0)
(0.8944 0.4472 0)
(0.8944 0.4472 0)
(0.8944 0.4472 0)
(0.8944 0.4472 0)
(0.8944 0.4472 0)
(0.8944 0.4472 0)
(0.8944 0.4472 0)
(0.8944 0.4472 0)
(0.8944 0.4472 0)
(0.8944 0.4472 0)
(0.8944 0.4472 0)
(0.8944 0.4472 0)
(0.8944 0.4472 0)
(0.8944 0.4472 0)
(0.8944 0.4472 0)
(0.8944 0.4472 0)
(0.8944 0.447199 0)
(0.8944 0.447201 0)
(0.8944 0.447199 0)
(0.894401 0.447201 0)
(0.8944 0.447198 0)
(0.894399 0.447203 0)
(0.894401 0.447198 0)
(0.8944 0.4472 0)
(0.894398 0.447202 0)
(0.8944 0.447199 0)
(0.894399 0.4472 0)
(0.894399 0.447204 0)
(0.894398 0.447199 0)
(0.894395 0.447205 0)
(0.894391 0.447205 0)
(0.89439 0.44721 0)
(0.894386 0.447214 0)
(0.894379 0.44722 0)
(0.894372 0.447228 0)
(0.894366 0.44724 0)
(0.894358 0.447251 0)
(0.894354 0.447265 0)
(0.894351 0.447278 0)
(0.89435 0.447292 0)
(0.894355 0.447304 0)
(0.894362 0.447315 0)
(0.894375 0.447322 0)
(0.894389 0.447326 0)
(0.894406 0.447326 0)
(0.894422 0.447323 0)
(0.894437 0.447318 0)
(0.894447 0.447312 0)
(0.894453 0.447307 0)
(0.894453 0.447304 0)
(0.894448 0.447304 0)
(0.894438 0.44731 0)
(0.894422 0.44732 0)
(0.894403 0.447335 0)
(0.894381 0.447357 0)
(0.894357 0.447382 0)
(0.894331 0.447412 0)
(0.894302 0.447446 0)
(0.894272 0.447482 0)
(0.894241 0.447522 0)
(0.894207 0.447566 0)
(0.894174 0.447614 0)
(0.894144 0.447669 0)
(0.894119 0.447728 0)
(0.894101 0.447791 0)
(0.894094 0.447858 0)
(0.894102 0.447925 0)
(0.894125 0.447986 0)
(0.894163 0.448034 0)
(0.894213 0.448072 0)
(0.894273 0.448095 0)
(0.894341 0.448094 0)
(0.894409 0.44807 0)
(0.894471 0.448022 0)
(0.894522 0.447954 0)
(0.894563 0.44787 0)
(0.894588 0.447774 0)
(0.894596 0.447668 0)
(0.894586 0.447559 0)
(0.894562 0.447456 0)
(0.894529 0.447367 0)
(0.894493 0.447296 0)
(0.894459 0.447244 0)
(0.89443 0.447209 0)
(0.894408 0.447188 0)
(0.894394 0.447178 0)
(0.894386 0.447175 0)
(0.894384 0.447176 0)
(0.894385 0.447181 0)
(0.894388 0.447186 0)
(0.894391 0.44719 0)
(0.894394 0.447194 0)
(0.894396 0.447197 0)
(0.894398 0.447198 0)
(0.894399 0.447199 0)
(0.894399 0.4472 0)
(0.8944 0.4472 0)
(0.8944 0.4472 0)
(0.8944 0.4472 0)
(0.8944 0.4472 0)
(0.8944 0.4472 0)
(0.8944 0.4472 0)
(0.8944 0.4472 0)
(0.8944 0.4472 0)
(0.8944 0.4472 0)
(0.8944 0.4472 0)
(0.8944 0.4472 0)
(0.8944 0.4472 0)
(0.8944 0.4472 0)
(0.8944 0.4472 0)
(0.8944 0.4472 0)
(0.8944 0.4472 0)
(0.8944 0.4472 0)
(0.8944 0.447199 0)
(0.8944 0.447201 0)
(0.8944 0.447199 0)
(0.894399 0.4472 0)
(0.8944 0.447202 0)
(0.894401 0.447198 0)
(0.8944 0.447201 0)
(0.8944 0.447201 0)
(0.8944 0.4472 0)
(0.894402 0.447197 0)
(0.894398 0.447203 0)
(0.894399 0.4472 0)
(0.894401 0.447198 0)
(0.894397 0.447203 0)
(0.894399 0.447203 0)
(0.894391 0.447201 0)
(0.89439 0.447209 0)
(0.894388 0.447213 0)
(0.89438 0.447214 0)
(0.894373 0.447227 0)
(0.894361 0.447235 0)
(0.894351 0.447249 0)
(0.894341 0.447264 0)
(0.894332 0.447283 0)
(0.894328 0.447302 0)
(0.894323 0.447321 0)
(0.894325 0.44734 0)
(0.894332 0.447355 0)
(0.894343 0.447369 0)
(0.89436 0.447379 0)
(0.894378 0.447385 0)
(0.894396 0.447389 0)
(0.894411 0.447389 0)
(0.894423 0.447389 0)
(0.894429 0.447391 0)
(0.894428 0.447395 0)
(0.89442 0.447403 0)
(0.894407 0.447417 0)
(0.894387 0.447437 0)
(0.894364 0.447464 0)
(0.894338 0.447495 0)
(0.894309 0.447534 0)
(0.89428 0.447578 0)
(0.89425 0.447622 0)
(0.894218 0.447673 0)
(0.894188 0.447724 0)
(0.894157 0.447777 0)
(0.894124 0.447832 0)
(0.894091 0.447888 0)
(0.894059 0.447952 0)
(0.894032 0.448019 0)
(0.894012 0.448089 0)
(0.894002 0.448165 0)
(0.894008 0.448238 0)
(0.894035 0.448305 0)
(0.894078 0.448368 0)
(0.894134 0.448412 0)
(0.894205 0.448432 0)
(0.894288 0.448432 0)
(0.894376 0.448407 0)
(0.894461 0.44835 0)
(0.894535 0.448267 0)
(0.894595 0.448159 0)
(0.894635 0.448031 0)
(0.894655 0.447896 0)
(0.894654 0.447758 0)
(0.894633 0.44762 0)
(0.894597 0.447492 0)
(0.89455 0.447382 0)
(0.894502 0.447298 0)
(0.89446 0.447239 0)
(0.894426 0.447203 0)
(0.894403 0.447184 0)
(0.894389 0.447176 0)
(0.894383 0.447175 0)
(0.894382 0.447178 0)
(0.894384 0.447182 0)
(0.894388 0.447187 0)
(0.894391 0.447192 0)
(0.894394 0.447195 0)
(0.894397 0.447197 0)
(0.894398 0.447199 0)
(0.894399 0.447199 0)
(0.8944 0.4472 0)
(0.8944 0.4472 0)
(0.8944 0.4472 0)
(0.8944 0.4472 0)
(0.8944 0.4472 0)
(0.8944 0.4472 0)
(0.8944 0.4472 0)
(0.8944 0.4472 0)
(0.8944 0.4472 0)
(0.8944 0.4472 0)
(0.8944 0.4472 0)
(0.8944 0.4472 0)
(0.8944 0.4472 0)
(0.8944 0.4472 0)
(0.8944 0.4472 0)
(0.8944 0.4472 0)
(0.8944 0.447199 0)
(0.8944 0.447201 0)
(0.8944 0.4472 0)
(0.8944 0.447199 0)
(0.894399 0.447202 0)
(0.894401 0.447199 0)
(0.894401 0.447199 0)
(0.894398 0.447202 0)
(0.894401 0.447202 0)
(0.894402 0.447192 0)
(0.894398 0.447207 0)
(0.894398 0.447199 0)
(0.894401 0.447197 0)
(0.894399 0.447203 0)
(0.894396 0.447205 0)
(0.89439 0.447199 0)
(0.894389 0.447214 0)
(0.894386 0.447209 0)
(0.894376 0.447223 0)
(0.894362 0.447225 0)
(0.894351 0.447243 0)
(0.894333 0.44726 0)
(0.894321 0.44728 0)
(0.894306 0.447301 0)
(0.894295 0.447328 0)
(0.894288 0.447352 0)
(0.894286 0.447379 0)
(0.894291 0.447402 0)
(0.8943 0.447423 0)
(0.894316 0.447442 0)
(0.894334 0.447456 0)
(0.894353 0.447468 0)
(0.894368 0.447479 0)
(0.894378 0.447488 0)
(0.894382 0.447501 0)
(0.894378 0.447516 0)
(0.894365 0.447536 0)
(0.894346 0.447563 0)
(0.894319 0.447599 0)
(0.894287 0.447639 0)
(0.894254 0.44769 0)
(0.894218 0.447746 0)
(0.894183 0.447806 0)
(0.894146 0.447874 0)
(0.894114 0.447942 0)
(0.894083 0.448011 0)
(0.894051 0.448083 0)
(0.894021 0.448154 0)
(0.893992 0.448222 0)
(0.893961 0.448297 0)
(0.893931 0.448373 0)
(0.893905 0.448444 0)
(0.893884 0.448532 0)
(0.893875 0.448623 0)
(0.893887 0.448695 0)
(0.893914 0.448777 0)
(0.893957 0.448852 0)
(0.894029 0.4489 0)
(0.89412 0.448928 0)
(0.89422 0.448923 0)
(0.894329 0.448881 0)
(0.894439 0.448815 0)
(0.894545 0.448717 0)
(0.894636 0.448572 0)
(0.894699 0.448399 0)
(0.894732 0.448218 0)
(0.894741 0.448033 0)
(0.894725 0.44785 0)
(0.894686 0.447676 0)
(0.894631 0.447521 0)
(0.894569 0.447392 0)
(0.894508 0.447295 0)
(0.894457 0.44723 0)
(0.89442 0.447193 0)
(0.894396 0.447177 0)
(0.894384 0.447173 0)
(0.89438 0.447175 0)
(0.894381 0.44718 0)
(0.894384 0.447185 0)
(0.894388 0.44719 0)
(0.894392 0.447193 0)
(0.894395 0.447196 0)
(0.894397 0.447198 0)
(0.894399 0.447199 0)
(0.894399 0.4472 0)
(0.8944 0.4472 0)
(0.8944 0.4472 0)
(0.8944 0.4472 0)
(0.8944 0.4472 0)
(0.8944 0.4472 0)
(0.8944 0.4472 0)
(0.8944 0.4472 0)
(0.8944 0.4472 0)
(0.8944 0.4472 0)
(0.8944 0.4472 0)
(0.8944 0.4472 0)
(0.8944 0.4472 0)
(0.8944 0.4472 0)
(0.894399 0.4472 0)
(0.894401 0.447201 0)
(0.894399 0.447199 0)
(0.894401 0.447202 0)
(0.8944 0.447197 0)
(0.894399 0.447202 0)
(0.894401 0.447201 0)
(0.8944 0.447196 0)
(0.8944 0.447204 0)
(0.894399 0.447202 0)
(0.894402 0.447194 0)
(0.894401 0.447202 0)
(0.894395 0.447207 0)
(0.894401 0.44719 0)
(0.894401 0.447205 0)
(0.894393 0.447206 0)
(0.89439 0.447199 0)
(0.894386 0.44721 0)
(0.894387 0.447215 0)
(0.894368 0.447218 0)
(0.894354 0.447231 0)
(0.894336 0.447251 0)
(0.894316 0.447262 0)
(0.894297 0.447296 0)
(0.894276 0.447319 0)
(0.894258 0.447352 0)
(0.894243 0.447385 0)
(0.894234 0.447417 0)
(0.894237 0.447453 0)
(0.894244 0.447482 0)
(0.894255 0.447511 0)
(0.894271 0.447538 0)
(0.894286 0.447562 0)
(0.894299 0.447586 0)
(0.894305 0.447611 0)
(0.894303 0.447639 0)
(0.894291 0.447672 0)
(0.894269 0.44771 0)
(0.894239 0.447758 0)
(0.894201 0.447813 0)
(0.894157 0.447877 0)
(0.89411 0.447949 0)
(0.894064 0.448031 0)
(0.894016 0.44812 0)
(0.893972 0.44821 0)
(0.893932 0.448307 0)
(0.893897 0.448407 0)
(0.893865 0.4485 0)
(0.893836 0.448601 0)
(0.893811 0.448695 0)
(0.893786 0.448785 0)
(0.89376 0.448885 0)
(0.89374 0.448972 0)
(0.893718 0.449063 0)
(0.893694 0.449176 0)
(0.893698 0.449263 0)
(0.893718 0.449365 0)
(0.893741 0.449467 0)
(0.893795 0.449537 0)
(0.893885 0.449613 0)
(0.893997 0.44965 0)
(0.894132 0.449625 0)
(0.894269 0.449573 0)
(0.894406 0.449494 0)
(0.894552 0.44935 0)
(0.894683 0.449153 0)
(0.894777 0.448935 0)
(0.894839 0.448693 0)
(0.894865 0.448434 0)
(0.894852 0.448175 0)
(0.894806 0.447934 0)
(0.89474 0.447722 0)
(0.894662 0.447542 0)
(0.894581 0.447396 0)
(0.894508 0.447289 0)
(0.89445 0.447221 0)
(0.89441 0.447184 0)
(0.894388 0.44717 0)
(0.894379 0.44717 0)
(0.894378 0.447175 0)
(0.894381 0.447182 0)
(0.894385 0.447187 0)
(0.89439 0.447192 0)
(0.894394 0.447195 0)
(0.894396 0.447197 0)
(0.894398 0.447199 0)
(0.894399 0.447199 0)
(0.8944 0.4472 0)
(0.8944 0.4472 0)
(0.8944 0.4472 0)
(0.8944 0.4472 0)
(0.8944 0.4472 0)
(0.8944 0.4472 0)
(0.8944 0.4472 0)
(0.8944 0.4472 0)
(0.8944 0.4472 0)
(0.8944 0.4472 0)
(0.8944 0.4472 0)
(0.8944 0.4472 0)
(0.8944 0.4472 0)
(0.894399 0.4472 0)
(0.894401 0.4472 0)
(0.894399 0.4472 0)
(0.8944 0.447201 0)
(0.8944 0.447198 0)
(0.894399 0.447204 0)
(0.894402 0.447196 0)
(0.894398 0.4472 0)
(0.894401 0.447207 0)
(0.8944 0.447192 0)
(0.894401 0.447198 0)
(0.894398 0.447216 0)
(0.894396 0.447183 0)
(0.894405 0.447206 0)
(0.894394 0.447207 0)
(0.894385 0.447201 0)
(0.894389 0.447202 0)
(0.894386 0.447224 0)
(0.894363 0.447207 0)
(0.894345 0.447244 0)
(0.894325 0.447239 0)
(0.8943 0.447282 0)
(0.89427 0.447291 0)
(0.894246 0.447336 0)
(0.894213 0.44737 0)
(0.894195 0.447414 0)
(0.894175 0.447451 0)
(0.894168 0.447499 0)
(0.894171 0.44754 0)
(0.894176 0.447583 0)
(0.894185 0.447624 0)
(0.894193 0.447666 0)
(0.894197 0.447709 0)
(0.894194 0.447755 0)
(0.89418 0.447805 0)
(0.894154 0.447864 0)
(0.894116 0.447929 0)
(0.894068 0.448004 0)
(0.894011 0.44809 0)
(0.893947 0.448186 0)
(0.893882 0.448291 0)
(0.893817 0.448407 0)
(0.893753 0.448529 0)
(0.893695 0.448659 0)
(0.89364 0.448793 0)
(0.893599 0.448923 0)
(0.893561 0.449062 0)
(0.893529 0.449194 0)
(0.893509 0.449324 0)
(0.893491 0.449449 0)
(0.893472 0.449581 0)
(0.893461 0.449698 0)
(0.893454 0.449805 0)
(0.893433 0.449954 0)
(0.893428 0.450058 0)
(0.893442 0.450175 0)
(0.893456 0.450326 0)
(0.893499 0.450418 0)
(0.893579 0.450543 0)
(0.893681 0.450635 0)
(0.893831 0.45065 0)
(0.894005 0.45065 0)
(0.894177 0.450606 0)
(0.894375 0.450465 0)
(0.894574 0.450245 0)
(0.894736 0.449995 0)
(0.89487 0.449709 0)
(0.894976 0.449381 0)
(0.89503 0.44902 0)
(0.895025 0.448654 0)
(0.894978 0.448315 0)
(0.894897 0.44801 0)
(0.894795 0.447748 0)
(0.894688 0.44754 0)
(0.894587 0.447385 0)
(0.894501 0.447276 0)
(0.894438 0.447209 0)
(0.894399 0.447176 0)
(0.894379 0.447166 0)
(0.894374 0.447169 0)
(0.894376 0.447176 0)
(0.894382 0.447184 0)
(0.894387 0.44719 0)
(0.894392 0.447194 0)
(0.894395 0.447196 0)
(0.894397 0.447198 0)
(0.894399 0.447199 0)
(0.894399 0.4472 0)
(0.8944 0.4472 0)
(0.8944 0.4472 0)
(0.8944 0.4472 0)
(0.8944 0.4472 0)
(0.8944 0.4472 0)
(0.8944 0.4472 0)
(0.8944 0.447201 0)
(0.8944 0.447199 0)
(0.8944 0.447201 0)
(0.8944 0.447199 0)
(0.8944 0.447201 0)
(0.8944 0.4472 0)
(0.894401 0.4472 0)
(0.894399 0.447199 0)
(0.894401 0.447201 0)
(0.894399 0.447197 0)
(0.894401 0.447203 0)
(0.8944 0.447198 0)
(0.894399 0.447197 0)
(0.894401 0.447207 0)
(0.894399 0.447197 0)
(0.894401 0.447191 0)
(0.894401 0.44722 0)
(0.894393 0.447188 0)
(0.894404 0.447192 0)
(0.894399 0.447221 0)