/*--------------------------------*- C++ -*----------------------------------*\
  =========                 |
  \\      /  F ield         | OpenFOAM: The Open Source CFD Toolbox
   \\    /   O peration     | Website:  https://openfoam.org
    \\  /    A nd           | Version:  6
     \\/     M anipulation  |
\*---------------------------------------------------------------------------*/
FoamFile
{
    version     2.0;
    format      ascii;
    class       volScalarField;
    location    "1.83";
    object      nut;
}
// * * * * * * * * * * * * * * * * * * * * * * * * * * * * * * * * * * * * * //

dimensions      [0 2 -1 0 0 0 0];

internalField   nonuniform List<scalar> 
4214
(
0.00494856
0.00633901
0.0082806
0.00994435
0.010995
0.0114853
0.0115827
0.0114382
0.0111633
0.010839
0.010524
0.0102604
0.0100763
0.00998948
0.0100118
0.0101595
0.0104754
0.0110466
0.0120511
0.0136912
0.0156997
0.0151922
0.0130967
0.0113738
0.0104215
0.0100818
0.0101557
0.0104747
0.0109073
0.0113593
0.0117648
0.0120853
0.0123038
0.0124068
0.0123595
0.0120739
0.0114001
0.0101826
0.00841707
0.00644759
0.00502886
0.00662344
0.00879914
0.0103449
0.0112346
0.0116202
0.0116609
0.0114793
0.0111699
0.0108067
0.0104471
0.0101347
0.00989989
0.00976179
0.00973161
0.00981841
0.0100397
0.0104449
0.0111271
0.0122754
0.0141002
0.0163642
0.0160728
0.013825
0.0118089
0.0105712
0.0099867
0.00987587
0.0100775
0.0104598
0.0109217
0.0113844
0.0117917
0.0121106
0.0123268
0.0124309
0.0123939
0.012148
0.0115849
0.0105805
0.00902457
0.00689757
0.00916659
0.0106338
0.01143
0.0117492
0.0117474
0.0115337
0.0111916
0.0107903
0.0103874
0.0100284
0.0097453
0.00955795
0.0094774
0.00950981
0.00966292
0.00995671
0.0104459
0.0112294
0.0125068
0.0145006
0.0170021
0.017013
0.0146816
0.0123796
0.0108428
0.00999006
0.00966076
0.00970211
0.00998661
0.0104134
0.0108984
0.0113733
0.0117877
0.0121113
0.0123307
0.0124378
0.0124108
0.0122013
0.0117354
0.0109067
0.00953225
0.0109183
0.0116357
0.0118956
0.0118537
0.0116079
0.0112323
0.0107923
0.0103464
0.00994238
0.00961422
0.00938252
0.00925767
0.00924368
0.00934289
0.00956272
0.00992562
0.0104912
0.0113632
0.0127477
0.0148883
0.0175968
0.0179825
0.0156515
0.0130959
0.011252
0.0101151
0.00954247
0.00938965
0.00953376
0.00987681
0.0103368
0.0108422
0.0113319
0.0117583
0.0120919
0.0123199
0.0124365
0.0124294
0.0122722
0.0119173
0.0112518
0.0118501
0.0120619
0.0119831
0.0117053
0.0112948
0.0108142
0.0103235
0.00987404
0.00950281
0.00923155
0.00906985
0.0090196
0.00907924
0.00924844
0.00953461
0.0099624
0.0105946
0.0115403
0.0130103
0.0152698
0.0181506
0.0189618
0.0167229
0.0139621
0.0118127
0.0103799
0.00954691
0.00917498
0.0091446
0.00936051
0.00974448
0.0102286
0.0107514
0.0112569
0.0116994
0.0120489
0.0122928
0.0124279
0.0124525
0.012357
0.0121034
0.0122439
0.0121411
0.0118342
0.0113873
0.0108621
0.0103222
0.0098238
0.00940842
0.00909971
0.0089069
0.00882985
0.00886379
0.00900305
0.0092455
0.00959818
0.0100868
0.0107757
0.0117804
0.0133143
0.0156667
0.0186792
0.0199339
0.0178721
0.0149735
0.0125312
0.0107942
0.00969026
0.0090847
0.00885775
0.00891436
0.00917889
0.00958839
0.0100873
0.0106232
0.0111448
0.0116074
0.0119804
0.0122493
0.0124125
0.0124747
0.0124371
0.012327
0.0120034
0.011521
0.0109468
0.0103502
0.00979568
0.00933095
0.00898304
0.0087613
0.0086637
0.00868257
0.00880848
0.00903311
0.00935288
0.00977368
0.0103207
0.0110573
0.0121067
0.0136839
0.016101
0.0192033
0.0208906
0.0190707
0.01611
0.0134014
0.0113584
0.0099774
0.00913196
0.00869816
0.00857737
0.0086931
0.00898483
0.0094034
0.00990578
0.0104482
0.0109853
0.0114742
0.0118811
0.0121864
0.0123855
0.0124914
0.0122139
0.0117069
0.0110818
0.0104207
0.00979899
0.00927506
0.00888131
0.00862829
0.00851211
0.00852214
0.00864561
0.00887034
0.00918644
0.00958891
0.0100815
0.0106871
0.0114652
0.012546
0.0141474
0.0166002
0.0197589
0.0218349
0.0202935
0.0173419
0.0144057
0.012062
0.0104022
0.00931687
0.00867578
0.00837276
0.00832651
0.00847463
0.00877037
0.00917944
0.00967132
0.0102134
0.0107679
0.011293
0.0117472
0.0120996
0.01235
0.0119435
0.0112768
0.0105475
0.00984805
0.00925093
0.00879948
0.0085074
0.00836969
0.00837233
0.00849902
0.0087342
0.00906447
0.00947893
0.0099711
0.0105416
0.0112094
0.0120271
0.0131269
0.0147351
0.0171944
0.0203807
0.0227817
0.0215253
0.0186339
0.0155141
0.0128839
0.0109488
0.0096284
0.00878719
0.00830799
0.00810111
0.00809792
0.00824939
0.00852449
0.0089035
0.00937168
0.00991013
0.0104893
0.0110638
0.0115776
0.0119975
0.0115239
0.0107358
0.0099553
0.00927305
0.008748
0.00840361
0.00823575
0.00822737
0.00835789
0.0086081
0.00896145
0.00940438
0.00992514
0.0105158
0.011173
0.0119106
0.0127711
0.0138797
0.0154782
0.0179151
0.0211025
0.0237577
0.022763
0.0199519
0.016688
0.0137925
0.0115924
0.0100464
0.00901868
0.0083787
0.00802395
0.00787442
0.00787706
0.00800095
0.00823268
0.00857024
0.00901126
0.00955088
0.0101661
0.0108013
0.0113922
0.0109645
0.0101182
0.00935081
0.00874028
0.00832698
0.00811503
0.00808634
0.00821606
0.00848068
0.00886021
0.00933828
0.00990168
0.0105379
0.0112378
0.0119934
0.0128124
0.0137237
0.0148376
0.0164062
0.0187937
0.0219524
0.0247938
0.0240179
0.0212731
0.0178953
0.0147515
0.0122988
0.0105444
0.00935667
0.00858251
0.00810199
0.00782737
0.00769578
0.00766953
0.00773706
0.00790657
0.00819579
0.00862194
0.00918071
0.0098423
0.0105474
0.0102978
0.00947245
0.00878196
0.00828888
0.00801619
0.00795276
0.00807221
0.00834562
0.00874931
0.00926348
0.00987309
0.0105655
0.0113276
0.0121498
0.0130184
0.0139347
0.0149095
0.0160341
0.0175458
0.0198621
0.0229611
0.025921
0.0252929
0.0225719
0.0190878
0.0157171
0.0130386
0.0111063
0.00978184
0.0088986
0.00832922
0.00796748
0.00773758
0.00759143
0.00751476
0.00751595
0.00761987
0.00786343
0.008276
0.00886713
0.00958686
0.0095806
0.0088528
0.00829114
0.00794804
0.00783439
0.00792846
0.00820125
0.00862156
0.00916872
0.00982296
0.0105718
0.0114028
0.0123023
0.0132625
0.014261
0.0152945
0.0163485
0.0174949
0.0189267
0.0211548
0.0241614
0.0271754
0.0265785
0.0238184
0.0202152
0.0166367
0.0137808
0.011691
0.0102573
0.0093126
0.00870202
0.00830047
0.0080176
0.00779274
0.00760758
0.00746611
0.00739693
0.00744405
0.00765254
0.00807061
0.00869466
0.00888019
0.00830754
0.00790935
0.007736
0.00779244
0.00804768
0.00847738
0.00904555
0.00974109
0.01054
0.0114376
0.0124189
0.01347
0.0145858
0.0157315
0.0169054
0.0180539
0.0192357
0.0205805
0.0226997
0.0255956
0.0285785
0.0278565
0.0249789
0.0212345
0.0174764
0.0144681
0.0122579
0.0107801
0.00983167
0.00923712
0.00884959
0.00856159
0.00830146
0.00804284
0.00778441
0.0075592
0.00741514
0.00741142
0.00761847
0.0080588
0.00825722
0.00787094
0.00765569
0.00766186
0.00789712
0.00831179
0.00890403
0.00961651
0.0104697
0.011415
0.0124766
0.01362
0.0148398
0.0161331
0.0174368
0.0187787
0.0200285
0.0212642
0.0225237
0.024517
0.0272842
0.0301086
0.0290995
0.0260064
0.022096
0.0181774
0.0150673
0.0128214
0.0113758
0.0104938
0.00997357
0.00965387
0.00940326
0.00914324
0.00883618
0.00847506
0.00809558
0.00775697
0.0075386
0.00752398
0.00775051
0.00775193
0.00756038
0.0075446
0.00772976
0.0081624
0.00872034
0.00949607
0.0103325
0.0113729
0.0124508
0.0137111
0.0150191
0.0164304
0.0179263
0.0193792
0.0209268
0.0222503
0.0235699
0.0247411
0.0266506
0.0291733
0.0316525
0.0302577
0.0268488
0.0227825
0.0187548
0.0156804
0.0134969
0.0121499
0.0113773
0.0109645
0.0107477
0.0105589
0.0103269
0.00997693
0.00950729
0.00895438
0.00840542
0.00795984
0.00771618
0.00772611
0.00738086
0.00737635
0.00761973
0.0079369
0.00864885
0.00926101
0.0103237
0.0111785
0.012532
0.0136415
0.0152244
0.0166332
0.0182982
0.0200104
0.0215583
0.0233922
0.0246416
0.0261292
0.0271276
0.0291514
0.0310169
0.0330317
0.0313211
0.0272139
0.0230746
0.0189183
0.0161188
0.0141344
0.0130531
0.0124817
0.0122595
0.0121755
0.0120652
0.0118193
0.0113823
0.0107563
0.0100289
0.00925485
0.00858291
0.00807963
0.0078747
0.00811937
0.00813768
0.00833686
0.00881759
0.00956287
0.0104594
0.011321
0.0119804
0.012377
0.0125431
0.012518
0.0122564
0.0115465
0.0100058
0.00738614
0.00454192
0.00516666
0.00836861
0.00866346
0.00901617
0.00954218
0.0102307
0.0109803
0.0116538
0.0121475
0.0124356
0.0125436
0.0124867
0.0121971
0.0114521
0.00987499
0.00723777
0.00441416
0.0052331
0.00891769
0.00935162
0.00976207
0.0102629
0.0108455
0.01143
0.0119241
0.0122723
0.0124682
0.0125265
0.0124403
0.0121232
0.0113419
0.00972723
0.00708063
0.0042881
0.0052646
0.00904807
0.00971875
0.010263
0.0107694
0.0112637
0.0117144
0.0120754
0.0123214
0.0124544
0.0124793
0.0123708
0.0120274
0.0112081
0.00955415
0.00690132
0.00414777
0.00527261
0.00915236
0.00986326
0.0104497
0.0109564
0.0114011
0.0117781
0.012071
0.0122703
0.0123773
0.0123894
0.0122688
0.0119029
0.0110475
0.00935971
0.00671073
0.00400094
0.00525845
0.00885309
0.00959259
0.0102371
0.0107831
0.0112388
0.0116108
0.0118999
0.0121044
0.0122228
0.0122443
0.0121243
0.0117445
0.0108629
0.00915683
0.00652601
0.00385819
0.00522303
0.00843752
0.00913594
0.00977525
0.0103453
0.0108352
0.0112437
0.0115717
0.011818
0.0119762
0.0120286
0.0119244
0.0115458
0.010659
0.00896171
0.00636631
0.00373011
0.00516647
0.00793777
0.00855292
0.00916716
0.00974431
0.0102651
0.0107195
0.011102
0.0114067
0.0116217
0.0117215
0.01165
0.0112945
0.0104346
0.00878357
0.0062434
0.00362329
0.00508763
0.00732079
0.00790823
0.00848861
0.00905374
0.00958674
0.0100739
0.0105043
0.0108661
0.0111419
0.0112988
0.0112766
0.0109694
0.0101737
0.00861139
0.00615126
0.00353701
0.00498451
0.00682984
0.00731014
0.00782566
0.00835083
0.0088653
0.00935611
0.00981021
0.0102115
0.0105368
0.0107492
0.0107863
0.010546
0.00984437
0.00840891
0.00606162
0.00346273
0.00485544
0.00620777
0.00668645
0.00716326
0.00764596
0.00813177
0.00860871
0.00906436
0.00948157
0.00983562
0.0100886
0.0101799
0.0100103
0.00941412
0.00812921
0.00593366
0.00338695
0.00470032
0.00578271
0.00615054
0.00656193
0.00699434
0.00743725
0.00788296
0.00831881
0.00872694
0.00908405
0.00935399
0.00948063
0.00937001
0.00887081
0.00774118
0.00573297
0.00329788
0.00452022
0.00521947
0.00559447
0.00597265
0.00636399
0.00676697
0.0071754
0.00757925
0.00796403
0.00830699
0.00857516
0.00871811
0.0086488
0.00822896
0.00724398
0.00544531
0.0031909
0.00431746
0.00486655
0.00513464
0.00544714
0.00578595
0.00614183
0.00650643
0.00686917
0.00721636
0.0075298
0.00778143
0.00792516
0.00788108
0.0075224
0.00666326
0.00507849
0.00306935
0.00409531
0.00437722
0.00465671
0.00494177
0.00524161
0.00555464
0.00587479
0.00619319
0.00649843
0.00677528
0.00700078
0.00713419
0.00710277
0.00679035
0.0060373
0.0046594
0.00294083
0.00385747
0.0040876
0.00427318
0.00449982
0.00475127
0.00501768
0.00529069
0.00556198
0.00582243
0.00605992
0.00625447
0.00637036
0.0063412
0.00606373
0.00540149
0.00422135
0.00281267
0.00360755
0.00367469
0.00387435
0.00408032
0.00429819
0.00452426
0.00475277
0.00497806
0.00519402
0.00539147
0.00555309
0.00564618
0.00561328
0.00536463
0.00478479
0.00379954
0.00268466
0.00334922
0.00343498
0.00355831
0.00371706
0.00389419
0.00407868
0.00426349
0.00444418
0.00461664
0.00477365
0.0049001
0.00496685
0.00492442
0.00470021
0.00420427
0.00340963
0.00256011
0.00308962
0.00309452
0.00323175
0.00337425
0.00352294
0.00367241
0.0038184
0.00395852
0.00409016
0.00420737
0.00429704
0.00433441
0.00427956
0.00407792
0.00366989
0.00305961
0.00246266
0.00283567
0.002892
0.00296907
0.00307405
0.00318931
0.00330486
0.00341582
0.00351994
0.00361476
0.00369488
0.00374914
0.00375801
0.00369239
0.00351641
0.00319912
0.00276569
0.00241169
0.00259496
0.00261613
0.00270222
0.0027912
0.00288191
0.0029699
0.00305228
0.00312707
0.00319167
0.00324117
0.00326682
0.00325488
0.00318704
0.00304419
0.00281787
0.0025465
0.0023784
0.00237283
0.00244301
0.00248174
0.00254031
0.00260464
0.00266827
0.00272779
0.00278059
0.00282361
0.00285262
0.00286154
0.00284229
0.00278569
0.0026851
0.00254614
0.00240958
0.00236427
0.00217276
0.00222495
0.00226685
0.0023099
0.00235481
0.00239981
0.00244289
0.00248151
0.00251267
0.00253301
0.00253897
0.00252693
0.00249417
0.00244133
0.00237956
0.0023439
0.00238036
0.00199728
0.00208167
0.00208932
0.00211057
0.0021375
0.00216769
0.00219948
0.00223064
0.00225857
0.00228074
0.00229514
0.00230073
0.00229791
0.00229025
0.00228984
0.00232638
0.00242802
0.00185096
0.00191852
0.00192768
0.00193814
0.00195296
0.00197289
0.0019978
0.00202647
0.00205714
0.00208789
0.00211717
0.00214433
0.00216994
0.00219749
0.00223829
0.00232163
0.00247565
0.00173573
0.00180877
0.00179758
0.00179608
0.00180156
0.00181458
0.00183573
0.00186485
0.00190108
0.00194295
0.00198859
0.00203607
0.002084
0.00213315
0.00219181
0.00228904
0.00246336
0.00164833
0.00169477
0.00168581
0.00167926
0.00167942
0.00168861
0.0017083
0.00173931
0.00178161
0.00183413
0.00189443
0.0019587
0.00202222
0.00208084
0.00213613
0.00221014
0.00234844
0.00158516
0.00161599
0.00159658
0.00158494
0.00158173
0.00158904
0.00160868
0.00164205
0.00168979
0.00175115
0.00182334
0.00190092
0.00197574
0.00203779
0.00207909
0.00210679
0.00215963
0.00154726
0.00153938
0.00152143
0.00150775
0.00150286
0.00150942
0.00152957
0.00156513
0.00161718
0.00168538
0.00176692
0.00185553
0.00194061
0.00200727
0.00203815
0.00202206
0.00197639
0.00154173
0.00148384
0.00146026
0.00144438
0.00143826
0.00144428
0.00146469
0.0015016
0.00155649
0.00162947
0.00171819
0.00181647
0.00191292
0.00198993
0.00202332
0.00198507
0.00186477
0.00157706
0.00143232
0.00140878
0.00139168
0.00138448
0.00138964
0.00140947
0.00144632
0.00150204
0.00157736
0.00167078
0.00177719
0.00188609
0.00197981
0.00203073
0.00199915
0.00184723
0.00166004
0.00139289
0.00136618
0.00134773
0.00133925
0.00134292
0.00136102
0.00139597
0.00144996
0.0015244
0.00161898
0.00173044
0.00185073
0.00196472
0.00204609
0.00204961
0.00191433
0.00179593
0.00135795
0.00133062
0.00131105
0.00130105
0.00130258
0.00131771
0.00134878
0.00139808
0.00146759
0.00155824
0.00166907
0.0017958
0.00192869
0.00204797
0.00211129
0.00204198
0.0019898
0.00132975
0.00130128
0.00128066
0.00126896
0.0012678
0.0012789
0.00130423
0.00134591
0.00140608
0.00148658
0.00158865
0.00171234
0.00185562
0.00201081
0.00215006
0.0021962
0.00224678
0.00130599
0.00127726
0.00125579
0.00124238
0.00123826
0.00124464
0.00126294
0.00129473
0.0013418
0.00140626
0.00149073
0.00159909
0.00173741
0.00191365
0.00212756
0.00233347
0.00257092
0.00128567
0.00125775
0.00123575
0.00122085
0.00121384
0.0012154
0.00122629
0.00124731
0.00127951
0.00132455
0.00138547
0.00146827
0.00158471
0.00175614
0.00201645
0.00239904
0.00296425
0.0012682
0.00124161
0.00121974
0.0012038
0.00119436
0.00119166
0.00119587
0.0012071
0.00122563
0.0012524
0.00129011
0.00134504
0.0014302
0.00157152
0.00182666
0.00233863
0.00342645
0.00125297
0.00122769
0.0012068
0.00119045
0.00117933
0.00117342
0.00117263
0.00117678
0.00118578
0.00120015
0.001222
0.00125645
0.0013136
0.00141477
0.00161883
0.0021419
0.00395541
0.00123928
0.00121553
0.00119574
0.00117987
0.00116796
0.00116021
0.00115664
0.00115738
0.00116269
0.00117312
0.00119007
0.00121639
0.00125711
0.00132434
0.00146072
0.00187221
0.00455553
0.00122676
0.00120467
0.00118623
0.00117124
0.00115969
0.00115176
0.00114797
0.00114926
0.00115666
0.00117092
0.00119222
0.00122068
0.00125739
0.00130713
0.00138982
0.00162846
0.00522428
0.00118681
0.00119683
0.00121192
0.00122229
0.00123584
0.00124594
0.00125701
0.00126604
0.00127462
0.00128192
0.00128795
0.00129264
0.00129596
0.00129783
0.00129817
0.00129688
0.00129388
0.00128913
0.00128271
0.00127461
0.00126073
0.00124672
0.00123763
0.00122975
0.00122297
0.00121731
0.00121273
0.00120913
0.00120638
0.00120432
0.0012028
0.00120164
0.00120071
0.00119991
0.00119925
0.0011989
0.00119917
0.00120057
0.00120361
0.00120863
0.00121568
0.00120475
0.0012186
0.00123347
0.00124727
0.00126081
0.00127298
0.0012842
0.00129408
0.00130267
0.00130976
0.00131508
0.00131881
0.00132094
0.00132139
0.00132009
0.00131697
0.001312
0.00130521
0.00129674
0.00128668
0.00127078
0.00125484
0.00124403
0.00123448
0.00122611
0.00121896
0.001213
0.00120813
0.00120426
0.0012012
0.00119881
0.00119688
0.00119522
0.00119367
0.00119213
0.00119061
0.00118932
0.00118865
0.00118913
0.00119126
0.00119529
0.00122672
0.00124298
0.00125916
0.0012744
0.0012885
0.00130123
0.00131259
0.0013225
0.00133083
0.00133739
0.00134183
0.0013445
0.00134534
0.0013443
0.00134133
0.00133641
0.00132956
0.00132089
0.00131059
0.0012988
0.00128129
0.00126376
0.00125136
0.00124022
0.00123031
0.00122168
0.00121431
0.00120815
0.00120309
0.00119898
0.00119566
0.00119293
0.00119058
0.00118838
0.00118616
0.00118378
0.0011813
0.00117898
0.00117732
0.00117695
0.00117844
0.00125013
0.00126839
0.00128581
0.00130179
0.00131623
0.00132916
0.00134056
0.00135033
0.00135828
0.00136408
0.00136761
0.00136916
0.00136869
0.00136617
0.00136159
0.001355
0.00134646
0.00133613
0.00132426
0.001311
0.00129228
0.00127352
0.0012597
0.00124711
0.00123574
0.00122567
0.00121693
0.00120946
0.00120319
0.00119798
0.00119369
0.00119012
0.00118706
0.00118427
0.0011815
0.00117853
0.00117523
0.00117169
0.00116828
0.00116571
0.00116498
0.00127403
0.00129394
0.00131214
0.00132847
0.00134309
0.00135611
0.00136747
0.00137699
0.00138444
0.00138929
0.0013919
0.00139234
0.00139061
0.00138672
0.00138071
0.00137265
0.00136268
0.00135098
0.00133782
0.00132337
0.00130383
0.00128419
0.00126915
0.00125526
0.00124256
0.00123117
0.00122111
0.00121238
0.0012049
0.00119859
0.0011933
0.00118886
0.00118506
0.00118169
0.00117846
0.0011751
0.00117134
0.00116703
0.00116234
0.0011579
0.00115501
0.00129789
0.00131892
0.00133742
0.00135385
0.00136855
0.0013816
0.00139282
0.00140196
0.00140858
0.0014126
0.00141434
0.00141377
0.00141093
0.00140586
0.00139866
0.00138943
0.00137833
0.00136557
0.00135142
0.00133606
0.00131605
0.00129587
0.00127983
0.00126483
0.00125098
0.0012384
0.00122714
0.00121723
0.00120861
0.00120122
0.00119494
0.00118962
0.00118509
0.00118113
0.0011775
0.00117389
0.00116996
0.00116538
0.00115999
0.00115412
0.00114908
0.00132124
0.00134268
0.0013611
0.00137753
0.00139227
0.00140522
0.00141615
0.00142462
0.00143038
0.00143377
0.00143476
0.00143337
0.00142965
0.0014237
0.00141561
0.00140553
0.00139363
0.00138012
0.00136526
0.00134926
0.0013291
0.00130869
0.00129189
0.00127601
0.00126121
0.00124761
0.00123531
0.00122434
0.0012147
0.00120632
0.00119911
0.00119296
0.00118771
0.00118319
0.00117918
0.00117543
0.00117157
0.00116716
0.00116178
0.00115521
0.00114823
0.00134328
0.00136448
0.00138278
0.00139922
0.00141387
0.00142651
0.00143678
0.00144455
0.0014499
0.00145279
0.00145324
0.00145128
0.00144699
0.00144046
0.00143183
0.00142124
0.00140886
0.00139491
0.00137963
0.00136325
0.00134321
0.00132286
0.00130554
0.00128903
0.00127349
0.00125909
0.00124594
0.0012341
0.00122358
0.00121434
0.00120633
0.00119944
0.00119356
0.00118854
0.00118423
0.0011804
0.00117675
0.00117288
0.00116819
0.001162
0.00115399
0.00136149
0.00138279
0.0014015
0.00141808
0.00143255
0.00144481
0.00145476
0.0014623
0.00146737
0.00146995
0.00147009
0.00146785
0.00146329
0.00145654
0.0014477
0.00143693
0.00142439
0.00141028
0.00139486
0.00137836
0.00135869
0.00133866
0.00132108
0.00130418
0.00128815
0.00127319
0.00125941
0.0012469
0.0012357
0.0012258
0.00121715
0.00120969
0.00120332
0.00119793
0.0011934
0.00118958
0.00118625
0.00118311
0.00117962
0.00117494
0.0011677
0.00137612
0.00139771
0.00141723
0.00143436
0.00144901
0.00146123
0.00147104
0.0014784
0.00148331
0.00148577
0.00148584
0.00148358
0.00147906
0.00147239
0.00146367
0.00145303
0.00144062
0.00142665
0.00141135
0.00139498
0.00137592
0.00135644
0.00133887
0.00132185
0.0013056
0.00129033
0.00127617
0.00126325
0.0012516
0.00124126
0.0012322
0.00122437
0.00121771
0.00121214
0.00120756
0.00120388
0.00120095
0.00119861
0.00119655
0.00119411
0.00118966
0.00139053
0.00141207
0.00143201
0.0014496
0.00146451
0.00147674
0.00148643
0.00149367
0.00149852
0.00150101
0.00150119
0.00149913
0.00149491
0.00148858
0.00148024
0.00147001
0.00145803
0.00144447
0.00142958
0.00141361
0.00139538
0.00137669
0.0013594
0.00134255
0.00132637
0.00131107
0.00129682
0.00128375
0.00127193
0.00126141
0.00125219
0.00124424
0.00123754
0.00123202
0.00122762
0.00122426
0.00122188
0.00122042
0.00121974
0.00121961
0.00121894
0.00140721
0.00142808
0.0014476
0.00146508
0.00148008
0.00149234
0.00150197
0.00150913
0.00151397
0.00151656
0.00151698
0.00151527
0.00151151
0.00150573
0.00149801
0.00148844
0.00147715
0.0014643
0.00145012
0.00143484
0.00141768
0.00140003
0.00138334
0.00136697
0.00135118
0.00133617
0.00132214
0.00130923
0.00129754
0.00128712
0.00127802
0.00127024
0.00126376
0.00125856
0.00125458
0.00125179
0.00125018
0.00124971
0.00125038
0.00125214
0.00125461
0.00142759
0.00144744
0.00146599
0.00148265
0.00149718
0.00150927
0.00151882
0.00152588
0.00153069
0.00153341
0.00153411
0.00153284
0.00152964
0.00152456
0.00151765
0.00150897
0.00149864
0.0014868
0.00147364
0.0014594
0.00144359
0.00142727
0.00141154
0.00139603
0.00138098
0.00136664
0.00135318
0.00134078
0.00132954
0.00131956
0.00131089
0.00130356
0.00129758
0.00129295
0.00128965
0.00128766
0.00128703
0.00128771
0.00128971
0.00129292
0.00129731
0.00145313
0.00147154
0.0014888
0.00150419
0.00151763
0.00152902
0.00153824
0.0015451
0.0015498
0.00155259
0.00155354
0.00155272
0.00155016
0.00154588
0.00153993
0.00153237
0.00152327
0.00151276
0.00150101
0.00148822
0.00147411
0.00145948
0.00144516
0.00143095
0.00141711
0.00140386
0.0013914
0.00137991
0.00136952
0.00136033
0.00135242
0.00134584
0.00134063
0.00133681
0.00133438
0.00133337
0.00133382
0.00133565
0.00133881
0.00134311
0.00134877
0.00148619
0.0015024
0.00151779
0.00153145
0.00154332
0.0015534
0.00156172
0.00156808
0.00157247
0.00157518
0.00157631
0.0015759
0.00157399
0.00157061
0.0015658
0.00155958
0.00155203
0.00154324
0.00153334
0.00152249
0.00151056
0.00149812
0.00148577
0.00147344
0.00146138
0.00144979
0.00143888
0.00142881
0.00141972
0.00141174
0.00140496
0.00139945
0.00139525
0.00139241
0.00139097
0.00139095
0.00139236
0.00139507
0.00139897
0.00140391
0.0014104
0.00153037
0.0015432
0.00155569
0.00156674
0.00157631
0.0015844
0.00159109
0.00159637
0.00160007
0.00160243
0.00160354
0.00160345
0.00160221
0.00159984
0.00159635
0.00159177
0.00158615
0.00157955
0.00157207
0.00156381
0.00155471
0.00154517
0.00153557
0.00152593
0.00151645
0.0015073
0.00149867
0.0014907
0.00148354
0.0014773
0.00147208
0.00146796
0.001465
0.00146323
0.00146272
0.00146346
0.0014654
0.00146841
0.0014724
0.00147724
0.00148374
0.00159141
0.00159885
0.00160668
0.00161357
0.00161951
0.00162452
0.00162863
0.00163191
0.00163429
0.00163582
0.00163663
0.00163672
0.00163613
0.00163487
0.00163295
0.0016304
0.00162722
0.00162346
0.00161915
0.00161437
0.00160909
0.0016035
0.0015978
0.00159203
0.00158632
0.00158077
0.00157552
0.00157068
0.00156634
0.0015626
0.00155954
0.00155721
0.00155565
0.0015549
0.00155501
0.00155594
0.00155762
0.00155999
0.00156297
0.00156645
0.00157157
0.00517199
0.00428951
0.00691947
0.00951238
0.0111911
0.012054
0.0124215
0.01252
0.0124452
0.0122124
0.0117993
0.0111937
0.0104367
0.00959863
0.00877918
0.00807476
0.0075408
0.00523573
0.00419183
0.00682477
0.00942827
0.0111202
0.011996
0.0123741
0.0124855
0.0124387
0.0122641
0.0119488
0.0114717
0.0108324
0.0100512
0.00918795
0.00833558
0.00761614
0.00526244
0.00410886
0.00675004
0.00935187
0.0110436
0.0119221
0.0123013
0.0124155
0.0123832
0.0122475
0.0120087
0.0116495
0.0111507
0.0104971
0.00969784
0.00878463
0.0078343
0.0052631
0.00402671
0.00667804
0.00927273
0.0109551
0.0118259
0.0121955
0.0122994
0.012263
0.0121385
0.011936
0.0116457
0.0112458
0.0107141
0.0100502
0.00928856
0.00848746
0.00523913
0.0039485
0.00661396
0.00919312
0.010852
0.011701
0.0120479
0.0121277
0.0120692
0.0119311
0.0117308
0.0114646
0.0111109
0.0106406
0.010033
0.00930079
0.00851081
0.00519186
0.0038754
0.00655709
0.00910872
0.0107269
0.0115391
0.0118505
0.0118938
0.0117997
0.0116331
0.0114199
0.011165
0.0108543
0.0104628
0.00995687
0.00930535
0.00851915
0.00512224
0.00380707
0.00650221
0.00900914
0.0105678
0.011329
0.0115947
0.0115926
0.0114534
0.0112478
0.0110095
0.0107502
0.010464
0.0101372
0.00974899
0.00927106
0.00867091
0.00503064
0.00374139
0.00643871
0.00887774
0.0103581
0.0110576
0.0112722
0.0112209
0.0110321
0.0107823
0.0105118
0.0102348
0.0099501
0.00964844
0.00931752
0.00894325
0.00850858
0.00491696
0.00367514
0.0063505
0.00869364
0.0100791
0.0107114
0.0108768
0.010779
0.0105444
0.0102534
0.00995135
0.00965501
0.0093655
0.0090747
0.00877134
0.00844959
0.00813409
0.00478121
0.00360428
0.00621907
0.00843633
0.00971437
0.0102797
0.0104035
0.0102705
0.0100027
0.00968246
0.00935681
0.00904684
0.00875702
0.00847992
0.00819897
0.00788729
0.00750255
0.00462379
0.00352386
0.00602861
0.00809147
0.0092539
0.00975569
0.00984794
0.00969503
0.00941228
0.00907722
0.00873737
0.0084184
0.0081304
0.00787314
0.00763987
0.00741738
0.00717495
0.00444576
0.00343071
0.0057688
0.0076549
0.00869894
0.00914191
0.00921242
0.00905555
0.00877632
0.00844146
0.00809747
0.00777172
0.00747727
0.00721791
0.00699319
0.00680934
0.00670357
0.00424897
0.0033254
0.00543909
0.00713626
0.00806502
0.00845482
0.0085122
0.00836627
0.00810776
0.00779253
0.00746212
0.00714434
0.00685446
0.00659614
0.00636198
0.00613401
0.0058848
0.00403554
0.00321381
0.00505486
0.00655838
0.00737857
0.00771965
0.00776802
0.00764004
0.00741215
0.0071302
0.00682845
0.00653339
0.00626436
0.00603261
0.00583997
0.00567705
0.00551298
0.00380772
0.00310384
0.00463978
0.00595001
0.00666871
0.00696545
0.00700502
0.00689457
0.00669891
0.00645502
0.00618867
0.00592104
0.00567075
0.00545299
0.00527895
0.0051602
0.00512383
0.00356838
0.00299683
0.0042192
0.0053371
0.00596353
0.00622011
0.006251
0.0061558
0.00599089
0.00578703
0.00556285
0.00533294
0.00511099
0.00490885
0.00473311
0.00458131
0.00444211
0.00332039
0.00288008
0.00381991
0.0047437
0.00528252
0.0055026
0.00552789
0.00544586
0.00530766
0.00514045
0.00495878
0.0047727
0.00459231
0.00442881
0.00429214
0.0041846
0.00408737
0.00306871
0.00275056
0.00344748
0.00418408
0.00463608
0.0048254
0.00484903
0.00478096
0.00466657
0.00453037
0.00438462
0.00423619
0.00409137
0.00395886
0.00385141
0.00378686
0.00379285
0.00281939
0.00262517
0.00311305
0.00366953
0.00403365
0.00419551
0.00422191
0.00417086
0.00408064
0.00397312
0.00385932
0.00374439
0.00363129
0.00352331
0.00342579
0.00334577
0.00329115
0.00258142
0.0025514
0.00283207
0.00321609
0.00348973
0.00362303
0.0036532
0.00362049
0.00355454
0.00347391
0.00338876
0.0033041
0.00322245
0.00314594
0.0030781
0.00302366
0.00297858
0.00236179
0.00253073
0.00262255
0.00284565
0.00302722
0.00312577
0.00315419
0.00313584
0.00309089
0.00303343
0.00297194
0.00291095
0.00285276
0.00279935
0.00275546
0.00273405
0.00276311
0.00216203
0.00250025
0.00248789
0.00257629
0.00266844
0.00272345
0.00273902
0.00272526
0.00269359
0.00265308
0.00260973
0.00256686
0.00252586
0.00248717
0.0024516
0.00242369
0.0024196
0.00198533
0.0024765
0.00241062
0.00240367
0.00241857
0.00242535
0.00241687
0.0023955
0.00236631
0.00233399
0.00230185
0.00227177
0.00224457
0.00222054
0.00219977
0.00218309
0.00217011
0.00183817
0.00248548
0.00236972
0.00229985
0.00225805
0.00222197
0.00218487
0.00214695
0.00211026
0.0020768
0.00204782
0.00202379
0.00200472
0.00199059
0.00198266
0.00198716
0.00202338
0.00172384
0.0025184
0.00233975
0.00222883
0.00215414
0.00208894
0.00202718
0.00197017
0.0019202
0.00187868
0.00184594
0.0018215
0.00180449
0.00179382
0.00178846
0.00178953
0.00180786
0.00163972
0.00251043
0.00228376
0.00216167
0.00207907
0.00200075
0.00192253
0.00184897
0.00178458
0.00173181
0.00169114
0.00166185
0.00164258
0.00163167
0.00162716
0.00162688
0.00162672
0.00158055
0.0023917
0.00217842
0.00208705
0.00201875
0.00193968
0.00185236
0.0017664
0.00168937
0.00162529
0.00157544
0.00153922
0.00151517
0.00150158
0.00149737
0.0015044
0.00153385
0.00154535
0.00216658
0.00204609
0.00201634
0.00197176
0.00189639
0.00180373
0.00170878
0.00162179
0.00154817
0.00148983
0.00144649
0.00141668
0.00139849
0.00139028
0.00139226
0.0014127
0.0015403
0.00192484
0.00194237
0.00197081
0.00194219
0.00186689
0.00176878
0.00166667
0.0015722
0.00149137
0.00142635
0.00137699
0.00134187
0.00131906
0.00130647
0.00130181
0.00130185
0.0015751
0.00177153
0.00190637
0.00196123
0.00193073
0.00184764
0.00174188
0.00163338
0.00153357
0.00144805
0.00137873
0.00132534
0.00128655
0.00126061
0.00124609
0.00124332
0.00125752
0.00165898
0.00175923
0.00193626
0.0019801
0.00193009
0.0018318
0.00171649
0.00160264
0.00149993
0.00141267
0.001342
0.00128734
0.00124722
0.00121981
0.00120351
0.00119801
0.00120779
0.00179603
0.00185127
0.0020054
0.00200865
0.00192649
0.00180897
0.00168462
0.00156809
0.00146602
0.00138075
0.00131231
0.00125952
0.00122056
0.00119343
0.00117612
0.00116649
0.00116197
0.00199064
0.00200051
0.00208376
0.00202386
0.00190293
0.00176742
0.00163843
0.00152444
0.00142806
0.00134929
0.00128685
0.00123881
0.00120304
0.00117761
0.00116087
0.00115177
0.00115069
0.0022488
0.00217359
0.00213804
0.0020003
0.00184332
0.00169828
0.00157361
0.00146983
0.00138522
0.00131753
0.00126434
0.00122323
0.0011921
0.00116923
0.00115331
0.00114359
0.00114081
0.00257573
0.00232987
0.00213048
0.00191792
0.00174152
0.00160279
0.00149422
0.00140873
0.00134118
0.00128787
0.00124585
0.0012128
0.00118694
0.00116699
0.00115201
0.00114129
0.00113433
0.0029741
0.0024116
0.00203386
0.00177927
0.00161202
0.00149723
0.00141436
0.00135201
0.00130364
0.00126528
0.00123428
0.00120885
0.0011878
0.00117038
0.0011561
0.00114469
0.0011362
0.00344349
0.00236294
0.0018619
0.00162023
0.00148862
0.00140771
0.00135273
0.00131241
0.00128092
0.00125493
0.00123257
0.00121277
0.001195
0.00117903
0.00116481
0.00115246
0.0011421
0.00398002
0.00217879
0.00167615
0.00149133
0.00140473
0.00135542
0.00132266
0.00129816
0.00127785
0.00125945
0.0012419
0.00122486
0.00120828
0.00119233
0.00117731
0.00116396
0.00115411
0.00458558
0.0019196
0.00153594
0.00142307
0.00137371
0.00134562
0.00132573
0.00130911
0.00129349
0.00127763
0.00126112
0.00124402
0.00122661
0.00120921
0.00119215
0.00117591
0.00116147
0.00525512
0.00168055
0.00147139
0.00141504
0.00138744
0.00136825
0.00135248
0.00133793
0.00132291
0.00130634