/*--------------------------------*- C++ -*----------------------------------*\
  =========                 |
  \\      /  F ield         | OpenFOAM: The Open Source CFD Toolbox
   \\    /   O peration     | Website:  https://openfoam.org
    \\  /    A nd           | Version:  6
     \\/     M anipulation  |
\*---------------------------------------------------------------------------*/
FoamFile
{
    version     2.0;
    format      ascii;
    class       volVectorField;
    location    "1.91";
    object      U;
}
// * * * * * * * * * * * * * * * * * * * * * * * * * * * * * * * * * * * * * //

dimensions      [0 1 -1 0 0 0 0];

internalField   nonuniform List<vector> 
5625
(
(0.8944 0.4472 0)
(0.8944 0.4472 0)
(0.8944 0.4472 0)
(0.8944 0.4472 0)
(0.8944 0.4472 0)
(0.8944 0.4472 0)
(0.8944 0.4472 0)
(0.8944 0.4472 0)
(0.8944 0.4472 0)
(0.8944 0.4472 0)
(0.8944 0.4472 0)
(0.8944 0.4472 0)
(0.8944 0.4472 0)
(0.8944 0.4472 0)
(0.8944 0.4472 0)
(0.8944 0.4472 0)
(0.8944 0.4472 0)
(0.8944 0.4472 0)
(0.8944 0.4472 0)
(0.8944 0.4472 0)
(0.8944 0.4472 0)
(0.8944 0.4472 0)
(0.8944 0.4472 0)
(0.8944 0.4472 0)
(0.8944 0.4472 0)
(0.8944 0.4472 0)
(0.8944 0.4472 0)
(0.8944 0.4472 0)
(0.8944 0.4472 0)
(0.8944 0.4472 0)
(0.8944 0.4472 0)
(0.8944 0.4472 0)
(0.8944 0.4472 0)
(0.8944 0.4472 0)
(0.8944 0.4472 0)
(0.8944 0.4472 0)
(0.8944 0.4472 0)
(0.8944 0.4472 0)
(0.8944 0.4472 0)
(0.8944 0.447201 0)
(0.894401 0.4472 0)
(0.894401 0.4472 0)
(0.894401 0.447201 0)
(0.894402 0.4472 0)
(0.894403 0.4472 0)
(0.894404 0.4472 0)
(0.894407 0.447199 0)
(0.894409 0.447197 0)
(0.894416 0.447196 0)
(0.894423 0.447193 0)
(0.894434 0.447185 0)
(0.894448 0.447173 0)
(0.894465 0.447152 0)
(0.894489 0.447111 0)
(0.894514 0.447039 0)
(0.894545 0.446915 0)
(0.894569 0.446702 0)
(0.894582 0.446341 0)
(0.894569 0.445749 0)
(0.894506 0.44479 0)
(0.89436 0.443276 0)
(0.894096 0.440933 0)
(0.893679 0.437401 0)
(0.893079 0.432184 0)
(0.89233 0.424684 0)
(0.891552 0.414145 0)
(0.891067 0.39973 0)
(0.891453 0.380539 0)
(0.893719 0.355678 0)
(0.899283 0.324441 0)
(0.909823 0.28646 0)
(0.927065 0.241811 0)
(0.952534 0.191052 0)
(0.987186 0.13561 0)
(1.03091 0.0783007 0)
(0.8944 0.4472 0)
(0.8944 0.4472 0)
(0.8944 0.4472 0)
(0.8944 0.4472 0)
(0.8944 0.4472 0)
(0.8944 0.4472 0)
(0.8944 0.4472 0)
(0.8944 0.4472 0)
(0.8944 0.4472 0)
(0.8944 0.4472 0)
(0.8944 0.4472 0)
(0.8944 0.4472 0)
(0.8944 0.4472 0)
(0.8944 0.4472 0)
(0.8944 0.4472 0)
(0.8944 0.4472 0)
(0.8944 0.4472 0)
(0.8944 0.4472 0)
(0.8944 0.4472 0)
(0.8944 0.4472 0)
(0.8944 0.4472 0)
(0.8944 0.4472 0)
(0.8944 0.4472 0)
(0.8944 0.4472 0)
(0.8944 0.4472 0)
(0.8944 0.4472 0)
(0.8944 0.4472 0)
(0.8944 0.4472 0)
(0.8944 0.4472 0)
(0.8944 0.4472 0)
(0.8944 0.4472 0)
(0.8944 0.4472 0)
(0.8944 0.4472 0)
(0.8944 0.4472 0)
(0.8944 0.4472 0)
(0.8944 0.4472 0)
(0.8944 0.4472 0)
(0.8944 0.4472 0)
(0.8944 0.4472 0)
(0.8944 0.4472 0)
(0.8944 0.4472 0)
(0.894401 0.4472 0)
(0.894401 0.4472 0)
(0.894402 0.4472 0)
(0.894403 0.4472 0)
(0.894404 0.4472 0)
(0.894408 0.447199 0)
(0.894409 0.447199 0)
(0.894417 0.447197 0)
(0.894423 0.447194 0)
(0.894435 0.447189 0)
(0.894448 0.447177 0)
(0.89447 0.447159 0)
(0.894493 0.447124 0)
(0.894521 0.447061 0)
(0.894557 0.446951 0)
(0.894589 0.446758 0)
(0.894616 0.446433 0)
(0.894625 0.445897 0)
(0.8946 0.445026 0)
(0.894515 0.443645 0)
(0.894343 0.441508 0)
(0.894062 0.438272 0)
(0.893657 0.433495 0)
(0.893165 0.426605 0)
(0.89271 0.416921 0)
(0.892588 0.403654 0)
(0.893344 0.385983 0)
(0.895893 0.363094 0)
(0.90157 0.334327 0)
(0.912012 0.299358 0)
(0.928909 0.258286 0)
(0.953787 0.211694 0)
(0.987754 0.160811 0)
(1.03103 0.107937 0)
(0.8944 0.4472 0)
(0.8944 0.4472 0)
(0.8944 0.4472 0)
(0.8944 0.4472 0)
(0.8944 0.4472 0)
(0.8944 0.4472 0)
(0.8944 0.4472 0)
(0.8944 0.4472 0)
(0.8944 0.4472 0)
(0.8944 0.4472 0)
(0.8944 0.4472 0)
(0.8944 0.4472 0)
(0.8944 0.4472 0)
(0.8944 0.4472 0)
(0.8944 0.4472 0)
(0.8944 0.4472 0)
(0.8944 0.4472 0)
(0.8944 0.4472 0)
(0.8944 0.4472 0)
(0.8944 0.4472 0)
(0.8944 0.4472 0)
(0.8944 0.4472 0)
(0.8944 0.4472 0)
(0.8944 0.4472 0)
(0.8944 0.4472 0)
(0.8944 0.4472 0)
(0.8944 0.4472 0)
(0.8944 0.4472 0)
(0.8944 0.4472 0)
(0.8944 0.447199 0)
(0.8944 0.4472 0)
(0.8944 0.4472 0)
(0.8944 0.4472 0)
(0.8944 0.4472 0)
(0.8944 0.4472 0)
(0.8944 0.4472 0)
(0.8944 0.4472 0)
(0.8944 0.4472 0)
(0.8944 0.4472 0)
(0.8944 0.4472 0)
(0.8944 0.4472 0)
(0.894401 0.4472 0)
(0.894401 0.4472 0)
(0.894402 0.4472 0)
(0.894403 0.4472 0)
(0.894404 0.4472 0)
(0.894407 0.447199 0)
(0.894411 0.4472 0)
(0.894416 0.447197 0)
(0.894424 0.447196 0)
(0.894436 0.447192 0)
(0.894449 0.447182 0)
(0.894471 0.447167 0)
(0.894495 0.447136 0)
(0.894526 0.447081 0)
(0.894564 0.446985 0)
(0.894603 0.446815 0)
(0.894641 0.446526 0)
(0.894669 0.446045 0)
(0.894676 0.445264 0)
(0.894644 0.44402 0)
(0.894551 0.44209 0)
(0.894388 0.439161 0)
(0.894151 0.434828 0)
(0.893884 0.428572 0)
(0.893705 0.419759 0)
(0.893886 0.407676 0)
(0.894928 0.391553 0)
(0.897647 0.370664 0)
(0.903273 0.3444 0)
(0.913359 0.312459 0)
(0.929562 0.274951 0)
(0.953392 0.232471 0)
(0.986004 0.186134 0)
(1.02788 0.13786 0)
(0.8944 0.4472 0)
(0.8944 0.4472 0)
(0.8944 0.4472 0)
(0.8944 0.4472 0)
(0.8944 0.4472 0)
(0.8944 0.4472 0)
(0.8944 0.4472 0)
(0.8944 0.4472 0)
(0.8944 0.4472 0)
(0.8944 0.4472 0)
(0.8944 0.4472 0)
(0.8944 0.4472 0)
(0.8944 0.4472 0)
(0.8944 0.4472 0)
(0.8944 0.4472 0)
(0.8944 0.4472 0)
(0.8944 0.4472 0)
(0.8944 0.4472 0)
(0.8944 0.4472 0)
(0.8944 0.4472 0)
(0.8944 0.4472 0)
(0.8944 0.4472 0)
(0.8944 0.4472 0)
(0.8944 0.4472 0)
(0.8944 0.4472 0)
(0.8944 0.4472 0)
(0.8944 0.4472 0)
(0.8944 0.4472 0)
(0.8944 0.4472 0)
(0.8944 0.4472 0)
(0.8944 0.4472 0)
(0.8944 0.4472 0)
(0.8944 0.4472 0)
(0.8944 0.4472 0)
(0.8944 0.4472 0)
(0.8944 0.4472 0)
(0.8944 0.4472 0)
(0.8944 0.4472 0)
(0.8944 0.4472 0)
(0.8944 0.4472 0)
(0.894401 0.4472 0)
(0.8944 0.4472 0)
(0.8944 0.4472 0)
(0.894402 0.4472 0)
(0.894402 0.4472 0)
(0.894405 0.4472 0)
(0.894406 0.447199 0)
(0.894411 0.447201 0)
(0.894415 0.447198 0)
(0.894425 0.447198 0)
(0.894434 0.447194 0)
(0.89445 0.447186 0)
(0.894471 0.447175 0)
(0.894495 0.447148 0)
(0.89453 0.447102 0)
(0.894566 0.447018 0)
(0.894612 0.446869 0)
(0.894658 0.446617 0)
(0.894701 0.44619 0)
(0.894735 0.445499 0)
(0.894744 0.44439 0)
(0.89472 0.442667 0)
(0.894658 0.440045 0)
(0.894562 0.436158 0)
(0.894484 0.430536 0)
(0.894535 0.422601 0)
(0.89496 0.411705 0)
(0.896213 0.397142 0)
(0.899007 0.378246 0)
(0.90446 0.354471 0)
(0.913996 0.325531 0)
(0.929214 0.291527 0)
(0.951618 0.253043 0)
(0.982357 0.211117 0)
(1.02207 0.167417 0)
(0.8944 0.4472 0)
(0.8944 0.4472 0)
(0.8944 0.4472 0)
(0.8944 0.4472 0)
(0.8944 0.4472 0)
(0.8944 0.4472 0)
(0.8944 0.4472 0)
(0.8944 0.4472 0)
(0.8944 0.4472 0)
(0.8944 0.4472 0)
(0.8944 0.4472 0)
(0.8944 0.4472 0)
(0.8944 0.4472 0)
(0.8944 0.4472 0)
(0.8944 0.4472 0)
(0.8944 0.4472 0)
(0.8944 0.4472 0)
(0.8944 0.4472 0)
(0.8944 0.4472 0)
(0.8944 0.4472 0)
(0.8944 0.4472 0)
(0.8944 0.4472 0)
(0.8944 0.4472 0)
(0.8944 0.4472 0)
(0.8944 0.4472 0)
(0.8944 0.4472 0)
(0.8944 0.4472 0)
(0.8944 0.4472 0)
(0.8944 0.4472 0)
(0.8944 0.4472 0)
(0.8944 0.4472 0)
(0.8944 0.4472 0)
(0.8944 0.4472 0)
(0.8944 0.4472 0)
(0.8944 0.4472 0)
(0.8944 0.4472 0)
(0.8944 0.4472 0)
(0.8944 0.4472 0)
(0.8944 0.4472 0)
(0.8944 0.4472 0)
(0.8944 0.4472 0)
(0.8944 0.4472 0)
(0.894401 0.447201 0)
(0.894401 0.4472 0)
(0.894403 0.4472 0)
(0.894405 0.4472 0)
(0.894406 0.4472 0)
(0.894412 0.4472 0)
(0.894413 0.4472 0)
(0.894426 0.447199 0)
(0.894431 0.447196 0)
(0.894452 0.447191 0)
(0.894468 0.44718 0)
(0.894496 0.44716 0)
(0.894528 0.447122 0)
(0.894567 0.447048 0)
(0.894616 0.446923 0)
(0.894667 0.446702 0)
(0.894723 0.446333 0)
(0.894776 0.445724 0)
(0.89482 0.44475 0)
(0.894851 0.443228 0)
(0.89487 0.440909 0)
(0.894889 0.437459 0)
(0.894967 0.432461 0)
(0.895202 0.425394 0)
(0.89582 0.415668 0)
(0.897209 0.402646 0)
(0.900018 0.38571 0)
(0.905196 0.364378 0)
(0.914057 0.338363 0)
(0.928085 0.307768 0)
(0.948755 0.273124 0)
(0.977234 0.235409 0)
(1.01422 0.19611 0)
(0.8944 0.4472 0)
(0.8944 0.4472 0)
(0.8944 0.4472 0)
(0.8944 0.4472 0)
(0.8944 0.4472 0)
(0.8944 0.4472 0)
(0.8944 0.4472 0)
(0.8944 0.4472 0)
(0.8944 0.4472 0)
(0.8944 0.4472 0)
(0.8944 0.4472 0)
(0.8944 0.4472 0)
(0.8944 0.4472 0)
(0.8944 0.4472 0)
(0.8944 0.4472 0)
(0.8944 0.4472 0)
(0.8944 0.4472 0)
(0.8944 0.4472 0)
(0.8944 0.4472 0)
(0.8944 0.4472 0)
(0.8944 0.4472 0)
(0.8944 0.4472 0)
(0.8944 0.4472 0)
(0.8944 0.4472 0)
(0.8944 0.4472 0)
(0.8944 0.4472 0)
(0.8944 0.4472 0)
(0.8944 0.4472 0)
(0.8944 0.4472 0)
(0.8944 0.4472 0)
(0.8944 0.4472 0)
(0.8944 0.4472 0)
(0.8944 0.4472 0)
(0.8944 0.4472 0)
(0.8944 0.4472 0)
(0.8944 0.4472 0)
(0.8944 0.447201 0)
(0.8944 0.4472 0)
(0.8944 0.447199 0)
(0.8944 0.4472 0)
(0.8944 0.447201 0)
(0.894401 0.4472 0)
(0.8944 0.4472 0)
(0.894402 0.4472 0)
(0.894402 0.447201 0)
(0.894404 0.4472 0)
(0.894406 0.447201 0)
(0.89441 0.4472 0)
(0.894414 0.4472 0)
(0.894424 0.4472 0)
(0.894431 0.447198 0)
(0.894449 0.447195 0)
(0.894465 0.447187 0)
(0.894494 0.44717 0)
(0.894523 0.447137 0)
(0.894568 0.447078 0)
(0.894612 0.446971 0)
(0.89467 0.446783 0)
(0.894735 0.446465 0)
(0.894801 0.445938 0)
(0.894872 0.44509 0)
(0.894945 0.443766 0)
(0.895029 0.441732 0)
(0.895141 0.438708 0)
(0.895334 0.434312 0)
(0.895709 0.428086 0)
(0.896475 0.419497 0)
(0.897947 0.40797 0)
(0.900705 0.392945 0)
(0.905559 0.373967 0)
(0.913662 0.350781 0)
(0.926382 0.323457 0)
(0.94512 0.292478 0)
(0.971049 0.258741 0)
(1.00491 0.223581 0)
(0.8944 0.4472 0)
(0.8944 0.4472 0)
(0.8944 0.4472 0)
(0.8944 0.4472 0)
(0.8944 0.4472 0)
(0.8944 0.4472 0)
(0.8944 0.4472 0)
(0.8944 0.4472 0)
(0.8944 0.4472 0)
(0.8944 0.4472 0)
(0.8944 0.4472 0)
(0.8944 0.4472 0)
(0.8944 0.4472 0)
(0.8944 0.4472 0)
(0.8944 0.4472 0)
(0.8944 0.4472 0)
(0.8944 0.4472 0)
(0.8944 0.4472 0)
(0.8944 0.4472 0)
(0.8944 0.4472 0)
(0.8944 0.4472 0)
(0.8944 0.4472 0)
(0.8944 0.4472 0)
(0.8944 0.4472 0)
(0.8944 0.4472 0)
(0.8944 0.4472 0)
(0.8944 0.4472 0)
(0.8944 0.4472 0)
(0.8944 0.4472 0)
(0.8944 0.4472 0)
(0.8944 0.4472 0)
(0.8944 0.4472 0)
(0.8944 0.4472 0)
(0.8944 0.4472 0)
(0.8944 0.4472 0)
(0.8944 0.4472 0)
(0.8944 0.4472 0)
(0.8944 0.4472 0)
(0.8944 0.4472 0)
(0.8944 0.4472 0)
(0.8944 0.447199 0)
(0.894401 0.447201 0)
(0.894401 0.4472 0)
(0.894401 0.4472 0)
(0.894403 0.4472 0)
(0.894403 0.447201 0)
(0.894406 0.447201 0)
(0.894409 0.447201 0)
(0.894414 0.447202 0)
(0.894421 0.4472 0)
(0.894432 0.447201 0)
(0.894445 0.447198 0)
(0.894465 0.447192 0)
(0.894489 0.447179 0)
(0.89452 0.447154 0)
(0.894561 0.447105 0)
(0.89461 0.447014 0)
(0.894665 0.446859 0)
(0.894735 0.446585 0)
(0.894813 0.446138 0)
(0.8949 0.445409 0)
(0.895007 0.444266 0)
(0.895134 0.442508 0)
(0.895316 0.439885 0)
(0.895598 0.436063 0)
(0.89608 0.430635 0)
(0.896928 0.423134 0)
(0.898454 0.413037 0)
(0.901104 0.399842 0)
(0.905604 0.383122 0)
(0.912925 0.362634 0)
(0.924292 0.338424 0)
(0.941003 0.31091 0)
(0.964211 0.2809 0)
(0.994706 0.249597 0)
(0.8944 0.4472 0)
(0.8944 0.4472 0)
(0.8944 0.4472 0)
(0.8944 0.4472 0)
(0.8944 0.4472 0)
(0.8944 0.4472 0)
(0.8944 0.4472 0)
(0.8944 0.4472 0)
(0.8944 0.4472 0)
(0.8944 0.4472 0)
(0.8944 0.4472 0)
(0.8944 0.4472 0)
(0.8944 0.4472 0)
(0.8944 0.4472 0)
(0.8944 0.4472 0)
(0.8944 0.4472 0)
(0.8944 0.4472 0)
(0.8944 0.4472 0)
(0.8944 0.4472 0)
(0.8944 0.4472 0)
(0.8944 0.4472 0)
(0.8944 0.4472 0)
(0.8944 0.4472 0)
(0.8944 0.4472 0)
(0.8944 0.4472 0)
(0.8944 0.4472 0)
(0.8944 0.4472 0)
(0.8944 0.4472 0)
(0.8944 0.4472 0)
(0.8944 0.4472 0)
(0.8944 0.4472 0)
(0.8944 0.4472 0)
(0.8944 0.4472 0)
(0.8944 0.4472 0)
(0.8944 0.4472 0)
(0.8944 0.4472 0)
(0.8944 0.447199 0)
(0.8944 0.4472 0)
(0.8944 0.4472 0)
(0.894401 0.4472 0)
(0.8944 0.4472 0)
(0.894401 0.4472 0)
(0.894401 0.4472 0)
(0.894401 0.4472 0)
(0.894402 0.4472 0)
(0.894403 0.447201 0)
(0.894406 0.4472 0)
(0.894408 0.447202 0)
(0.894415 0.447202 0)
(0.894419 0.447201 0)
(0.894431 0.447203 0)
(0.894441 0.4472 0)
(0.894463 0.447196 0)
(0.894482 0.447188 0)
(0.894517 0.447166 0)
(0.894549 0.44713 0)
(0.894603 0.447055 0)
(0.894655 0.446924 0)
(0.894729 0.446698 0)
(0.894811 0.446317 0)
(0.894911 0.445701 0)
(0.895039 0.444728 0)
(0.895195 0.443225 0)
(0.895426 0.440974 0)
(0.895763 0.43769 0)
(0.896314 0.433011 0)
(0.897217 0.426528 0)
(0.898738 0.417784 0)
(0.901264 0.406314 0)
(0.905388 0.391737 0)
(0.911938 0.373805 0)
(0.921974 0.352531 0)
(0.936656 0.328275 0)
(0.957098 0.301739 0)
(0.984109 0.273997 0)
(0.8944 0.4472 0)
(0.8944 0.4472 0)
(0.8944 0.4472 0)
(0.8944 0.4472 0)
(0.8944 0.4472 0)
(0.8944 0.4472 0)
(0.8944 0.4472 0)
(0.8944 0.4472 0)
(0.8944 0.4472 0)
(0.8944 0.4472 0)
(0.8944 0.4472 0)
(0.8944 0.4472 0)
(0.8944 0.4472 0)
(0.8944 0.4472 0)
(0.8944 0.4472 0)
(0.8944 0.4472 0)
(0.8944 0.4472 0)
(0.8944 0.4472 0)
(0.8944 0.4472 0)
(0.8944 0.4472 0)
(0.8944 0.4472 0)
(0.8944 0.4472 0)
(0.8944 0.4472 0)
(0.8944 0.4472 0)
(0.8944 0.4472 0)
(0.8944 0.4472 0)
(0.8944 0.4472 0)
(0.8944 0.4472 0)
(0.8944 0.4472 0)
(0.8944 0.4472 0)
(0.8944 0.4472 0)
(0.8944 0.4472 0)
(0.8944 0.4472 0)
(0.8944 0.4472 0)
(0.8944 0.4472 0)
(0.8944 0.4472 0)
(0.8944 0.4472 0)
(0.894399 0.4472 0)
(0.8944 0.4472 0)
(0.8944 0.4472 0)
(0.894401 0.4472 0)
(0.8944 0.4472 0)
(0.894401 0.4472 0)
(0.894401 0.4472 0)
(0.894402 0.447201 0)
(0.894404 0.447201 0)
(0.894405 0.4472 0)
(0.894408 0.447202 0)
(0.894412 0.447201 0)
(0.894419 0.447203 0)
(0.894427 0.447203 0)
(0.89444 0.447203 0)
(0.894456 0.447201 0)
(0.894478 0.447194 0)
(0.894508 0.447179 0)
(0.894542 0.447149 0)
(0.894589 0.447091 0)
(0.894644 0.446983 0)
(0.894715 0.446797 0)
(0.8948 0.44648 0)
(0.894906 0.445966 0)
(0.895042 0.445144 0)
(0.89522 0.443876 0)
(0.895476 0.441969 0)
(0.895854 0.439174 0)
(0.896433 0.435189 0)
(0.897354 0.429647 0)
(0.898839 0.422156 0)
(0.901211 0.412298 0)
(0.904961 0.399724 0)
(0.910776 0.384191 0)
(0.919543 0.365679 0)
(0.93229 0.344458 0)
(0.950027 0.321151 0)
(0.973568 0.296695 0)
(0.8944 0.4472 0)
(0.8944 0.4472 0)
(0.8944 0.4472 0)
(0.8944 0.4472 0)
(0.8944 0.4472 0)
(0.8944 0.4472 0)
(0.8944 0.4472 0)
(0.8944 0.4472 0)
(0.8944 0.4472 0)
(0.8944 0.4472 0)
(0.8944 0.4472 0)
(0.8944 0.4472 0)
(0.8944 0.4472 0)
(0.8944 0.4472 0)
(0.8944 0.4472 0)
(0.8944 0.4472 0)
(0.8944 0.4472 0)
(0.8944 0.4472 0)
(0.8944 0.4472 0)
(0.8944 0.4472 0)
(0.8944 0.4472 0)
(0.8944 0.4472 0)
(0.8944 0.4472 0)
(0.8944 0.4472 0)
(0.8944 0.4472 0)
(0.8944 0.4472 0)
(0.8944 0.4472 0)
(0.8944 0.4472 0)
(0.8944 0.4472 0)
(0.8944 0.4472 0)
(0.8944 0.4472 0)
(0.8944 0.4472 0)
(0.8944 0.4472 0)
(0.8944 0.4472 0)
(0.8944 0.4472 0)
(0.8944 0.4472 0)
(0.8944 0.4472 0)
(0.8944 0.4472 0)
(0.8944 0.4472 0)
(0.8944 0.4472 0)
(0.8944 0.4472 0)
(0.8944 0.4472 0)
(0.8944 0.4472 0)
(0.894401 0.4472 0)
(0.894402 0.447201 0)
(0.894403 0.4472 0)
(0.894405 0.447202 0)
(0.894408 0.447201 0)
(0.894411 0.447202 0)
(0.894419 0.447203 0)
(0.894425 0.447204 0)
(0.894438 0.447204 0)
(0.894451 0.447203 0)
(0.894471 0.4472 0)
(0.894499 0.447189 0)
(0.894532 0.447166 0)
(0.894573 0.44712 0)
(0.894629 0.447035 0)
(0.894696 0.446884 0)
(0.894777 0.446623 0)
(0.894887 0.446198 0)
(0.895025 0.445515 0)
(0.895211 0.444455 0)
(0.895483 0.44286 0)
(0.895868 0.440511 0)
(0.896458 0.437151 0)
(0.897369 0.432471 0)
(0.898784 0.426123 0)
(0.900981 0.417747 0)
(0.904364 0.407023 0)
(0.909491 0.393713 0)
(0.917092 0.377765 0)
(0.92804 0.359383 0)
(0.943233 0.339067 0)
(0.963442 0.317635 0)
(0.8944 0.4472 0)
(0.8944 0.4472 0)
(0.8944 0.4472 0)
(0.8944 0.4472 0)
(0.8944 0.4472 0)
(0.8944 0.4472 0)
(0.8944 0.4472 0)
(0.8944 0.4472 0)
(0.8944 0.4472 0)
(0.8944 0.4472 0)
(0.8944 0.4472 0)
(0.8944 0.4472 0)
(0.8944 0.4472 0)
(0.8944 0.4472 0)
(0.8944 0.4472 0)
(0.8944 0.4472 0)
(0.8944 0.4472 0)
(0.8944 0.4472 0)
(0.8944 0.4472 0)
(0.8944 0.4472 0)
(0.8944 0.4472 0)
(0.8944 0.4472 0)
(0.8944 0.4472 0)
(0.8944 0.4472 0)
(0.8944 0.4472 0)
(0.8944 0.4472 0)
(0.8944 0.4472 0)
(0.8944 0.4472 0)
(0.8944 0.4472 0)
(0.8944 0.4472 0)
(0.8944 0.4472 0)
(0.8944 0.4472 0)
(0.8944 0.4472 0)
(0.8944 0.4472 0)
(0.8944 0.4472 0)
(0.8944 0.4472 0)
(0.8944 0.4472 0)
(0.8944 0.4472 0)
(0.8944 0.4472 0)
(0.8944 0.4472 0)
(0.894401 0.4472 0)
(0.8944 0.447201 0)
(0.894401 0.4472 0)
(0.894401 0.4472 0)
(0.894402 0.447201 0)
(0.894403 0.447201 0)
(0.894404 0.447201 0)
(0.894408 0.447202 0)
(0.89441 0.447202 0)
(0.894416 0.447204 0)
(0.894423 0.447205 0)
(0.894435 0.447206 0)
(0.894446 0.447206 0)
(0.894466 0.447204 0)
(0.894489 0.447196 0)
(0.89452 0.447181 0)
(0.89456 0.447146 0)
(0.894609 0.447077 0)
(0.894672 0.446959 0)
(0.894754 0.446747 0)
(0.894855 0.4464 0)
(0.894995 0.445839 0)
(0.895182 0.444969 0)
(0.895442 0.443644 0)
(0.895835 0.441695 0)
(0.896407 0.438894 0)
(0.897277 0.434985 0)
(0.898602 0.42967 0)
(0.900612 0.422631 0)
(0.903636 0.413588 0)
(0.908128 0.402318 0)
(0.914681 0.388737 0)
(0.924004 0.37298 0)
(0.936874 0.355441 0)
(0.953989 0.336801 0)
(0.8944 0.4472 0)
(0.8944 0.4472 0)
(0.8944 0.4472 0)
(0.8944 0.4472 0)
(0.8944 0.4472 0)
(0.8944 0.4472 0)
(0.8944 0.4472 0)
(0.8944 0.4472 0)
(0.8944 0.4472 0)
(0.8944 0.4472 0)
(0.8944 0.4472 0)
(0.8944 0.4472 0)
(0.8944 0.4472 0)
(0.8944 0.4472 0)
(0.8944 0.4472 0)
(0.8944 0.4472 0)
(0.8944 0.4472 0)
(0.8944 0.4472 0)
(0.8944 0.4472 0)
(0.8944 0.4472 0)
(0.8944 0.4472 0)
(0.8944 0.4472 0)
(0.8944 0.4472 0)
(0.8944 0.4472 0)
(0.8944 0.4472 0)
(0.8944 0.4472 0)
(0.8944 0.4472 0)
(0.8944 0.4472 0)
(0.8944 0.4472 0)
(0.8944 0.4472 0)
(0.8944 0.4472 0)
(0.8944 0.4472 0)
(0.8944 0.4472 0)
(0.8944 0.4472 0)
(0.894399 0.4472 0)
(0.8944 0.4472 0)
(0.8944 0.4472 0)
(0.8944 0.4472 0)
(0.8944 0.4472 0)
(0.8944 0.4472 0)
(0.8944 0.447199 0)
(0.8944 0.447201 0)
(0.894401 0.4472 0)
(0.894401 0.447201 0)
(0.894401 0.447201 0)
(0.894402 0.447201 0)
(0.894404 0.447201 0)
(0.894407 0.447201 0)
(0.89441 0.447204 0)
(0.894414 0.447203 0)
(0.894421 0.447206 0)
(0.894429 0.447206 0)
(0.894443 0.447208 0)
(0.894459 0.447208 0)
(0.894479 0.447203 0)
(0.894509 0.447193 0)
(0.894545 0.447166 0)
(0.894587 0.447115 0)
(0.894649 0.447019 0)
(0.894722 0.446853 0)
(0.894819 0.446573 0)
(0.894948 0.446118 0)
(0.895129 0.445409 0)
(0.895385 0.444327 0)
(0.895751 0.442723 0)
(0.896299 0.440422 0)
(0.897108 0.43719 0)
(0.898328 0.432789 0)
(0.900139 0.426947 0)
(0.902818 0.419409 0)
(0.906726 0.409976 0)
(0.912341 0.398551 0)
(0.920229 0.385203 0)
(0.931034 0.370232 0)
(0.945366 0.354177 0)
(0.8944 0.4472 0)
(0.8944 0.4472 0)
(0.8944 0.4472 0)
(0.8944 0.4472 0)
(0.8944 0.4472 0)
(0.8944 0.4472 0)
(0.8944 0.4472 0)
(0.8944 0.4472 0)
(0.8944 0.4472 0)
(0.8944 0.4472 0)
(0.8944 0.4472 0)
(0.8944 0.4472 0)
(0.8944 0.4472 0)
(0.8944 0.4472 0)
(0.8944 0.4472 0)
(0.8944 0.4472 0)
(0.8944 0.4472 0)
(0.8944 0.4472 0)
(0.8944 0.4472 0)
(0.8944 0.4472 0)
(0.8944 0.4472 0)
(0.8944 0.4472 0)
(0.8944 0.4472 0)
(0.8944 0.4472 0)
(0.8944 0.4472 0)
(0.8944 0.4472 0)
(0.8944 0.4472 0)
(0.8944 0.4472 0)
(0.8944 0.4472 0)
(0.8944 0.4472 0)
(0.8944 0.4472 0)
(0.8944 0.4472 0)
(0.8944 0.4472 0)
(0.8944 0.4472 0)
(0.8944 0.4472 0)
(0.8944 0.4472 0)
(0.8944 0.4472 0)
(0.8944 0.4472 0)
(0.8944 0.4472 0)
(0.8944 0.4472 0)
(0.8944 0.4472 0)
(0.8944 0.4472 0)
(0.894401 0.4472 0)
(0.8944 0.447201 0)
(0.894401 0.4472 0)
(0.894402 0.447201 0)
(0.894404 0.447201 0)
(0.894406 0.447203 0)
(0.894409 0.447202 0)
(0.894412 0.447204 0)
(0.894419 0.447205 0)
(0.894427 0.447206 0)
(0.894437 0.44721 0)
(0.894452 0.447209 0)
(0.894473 0.447208 0)
(0.894495 0.4472 0)
(0.89453 0.447182 0)
(0.894568 0.447144 0)
(0.89462 0.447071 0)
(0.894691 0.44694 0)
(0.894776 0.446719 0)
(0.894898 0.446355 0)
(0.895065 0.445784 0)
(0.895302 0.444908 0)
(0.895642 0.443611 0)
(0.896147 0.441733 0)
(0.896889 0.439099 0)
(0.897984 0.435493 0)
(0.899597 0.430697 0)
(0.901946 0.42449 0)
(0.905322 0.416692 0)
(0.910098 0.407196 0)
(0.916737 0.396039 0)
(0.925745 0.383417 0)
(0.937635 0.369749 0)
(0.8944 0.4472 0)
(0.8944 0.4472 0)
(0.8944 0.4472 0)
(0.8944 0.4472 0)
(0.8944 0.4472 0)
(0.8944 0.4472 0)
(0.8944 0.4472 0)
(0.8944 0.4472 0)
(0.8944 0.4472 0)
(0.8944 0.4472 0)
(0.8944 0.4472 0)
(0.8944 0.4472 0)
(0.8944 0.4472 0)
(0.8944 0.4472 0)
(0.8944 0.4472 0)
(0.8944 0.4472 0)
(0.8944 0.4472 0)
(0.8944 0.4472 0)
(0.8944 0.4472 0)
(0.8944 0.4472 0)
(0.8944 0.4472 0)
(0.8944 0.4472 0)
(0.8944 0.4472 0)
(0.8944 0.4472 0)
(0.8944 0.4472 0)
(0.8944 0.4472 0)
(0.8944 0.4472 0)
(0.8944 0.4472 0)
(0.8944 0.4472 0)
(0.8944 0.4472 0)
(0.8944 0.4472 0)
(0.8944 0.4472 0)
(0.8944 0.4472 0)
(0.8944 0.4472 0)
(0.8944 0.4472 0)
(0.8944 0.4472 0)
(0.8944 0.4472 0)
(0.8944 0.4472 0)
(0.8944 0.4472 0)
(0.8944 0.4472 0)
(0.8944 0.4472 0)
(0.8944 0.447201 0)
(0.8944 0.4472 0)
(0.894401 0.4472 0)
(0.894401 0.447201 0)
(0.894402 0.447201 0)
(0.894403 0.447202 0)
(0.894405 0.447201 0)
(0.894406 0.447203 0)
(0.894412 0.447203 0)
(0.894415 0.447206 0)
(0.894424 0.447208 0)
(0.894432 0.44721 0)
(0.894446 0.447211 0)
(0.894464 0.44721 0)
(0.894483 0.447208 0)
(0.894514 0.447194 0)
(0.89455 0.447167 0)
(0.894594 0.447113 0)
(0.894654 0.44701 0)
(0.894736 0.44684 0)
(0.894842 0.446551 0)
(0.894992 0.446099 0)
(0.895206 0.445398 0)
(0.895518 0.444358 0)
(0.895968 0.442848 0)
(0.896632 0.44072 0)
(0.897603 0.437807 0)
(0.899018 0.433911 0)
(0.901054 0.428859 0)
(0.903941 0.42249 0)
(0.907984 0.414702 0)
(0.913535 0.405492 0)
(0.921001 0.394994 0)
(0.930789 0.383525 0)
(0.8944 0.4472 0)
(0.8944 0.4472 0)
(0.8944 0.4472 0)
(0.8944 0.4472 0)
(0.8944 0.4472 0)
(0.8944 0.4472 0)
(0.8944 0.4472 0)
(0.8944 0.4472 0)
(0.8944 0.4472 0)
(0.8944 0.4472 0)
(0.8944 0.4472 0)
(0.8944 0.4472 0)
(0.8944 0.4472 0)
(0.8944 0.4472 0)
(0.8944 0.4472 0)
(0.8944 0.4472 0)
(0.8944 0.4472 0)
(0.8944 0.4472 0)
(0.8944 0.4472 0)
(0.8944 0.4472 0)
(0.8944 0.4472 0)
(0.8944 0.4472 0)
(0.8944 0.4472 0)
(0.8944 0.4472 0)
(0.8944 0.4472 0)
(0.8944 0.4472 0)
(0.8944 0.4472 0)
(0.8944 0.4472 0)
(0.8944 0.4472 0)
(0.8944 0.4472 0)
(0.8944 0.4472 0)
(0.8944 0.4472 0)
(0.8944 0.4472 0)
(0.8944 0.4472 0)
(0.8944 0.4472 0)
(0.8944 0.4472 0)
(0.8944 0.4472 0)
(0.8944 0.4472 0)
(0.8944 0.4472 0)
(0.8944 0.4472 0)
(0.8944 0.4472 0)
(0.8944 0.4472 0)
(0.8944 0.4472 0)
(0.894401 0.447201 0)
(0.894401 0.4472 0)
(0.894402 0.447201 0)
(0.894403 0.447201 0)
(0.894404 0.447202 0)
(0.894407 0.447202 0)
(0.894409 0.447204 0)
(0.894415 0.447205 0)
(0.894419 0.447208 0)
(0.894429 0.447209 0)
(0.894441 0.447211 0)
(0.894452 0.447215 0)
(0.894476 0.44721 0)
(0.894495 0.447206 0)
(0.894532 0.447185 0)
(0.894568 0.447144 0)
(0.894621 0.447068 0)
(0.894692 0.446935 0)
(0.894784 0.446713 0)
(0.894919 0.446355 0)
(0.895107 0.445806 0)
(0.895383 0.44498 0)
(0.895778 0.443779 0)
(0.896361 0.442083 0)
(0.897206 0.439746 0)
(0.898429 0.436627 0)
(0.90017 0.432565 0)
(0.90262 0.427421 0)
(0.906015 0.421113 0)
(0.910626 0.413613 0)
(0.916775 0.405009 0)
(0.924775 0.395516 0)
(0.8944 0.4472 0)
(0.8944 0.4472 0)
(0.8944 0.4472 0)
(0.8944 0.4472 0)
(0.8944 0.4472 0)
(0.8944 0.4472 0)
(0.8944 0.4472 0)
(0.8944 0.4472 0)
(0.8944 0.4472 0)
(0.8944 0.4472 0)
(0.8944 0.4472 0)
(0.8944 0.4472 0)
(0.8944 0.4472 0)
(0.8944 0.4472 0)
(0.8944 0.4472 0)
(0.8944 0.4472 0)
(0.8944 0.4472 0)
(0.8944 0.4472 0)
(0.8944 0.4472 0)
(0.8944 0.4472 0)
(0.8944 0.4472 0)
(0.8944 0.4472 0)
(0.8944 0.4472 0)
(0.8944 0.4472 0)
(0.8944 0.4472 0)
(0.8944 0.4472 0)
(0.8944 0.4472 0)
(0.8944 0.4472 0)
(0.8944 0.4472 0)
(0.8944 0.4472 0)
(0.8944 0.4472 0)
(0.8944 0.4472 0)
(0.8944 0.4472 0)
(0.8944 0.4472 0)
(0.8944 0.4472 0)
(0.8944 0.4472 0)
(0.8944 0.4472 0)
(0.8944 0.4472 0)
(0.8944 0.4472 0)
(0.8944 0.4472 0)
(0.8944 0.4472 0)
(0.8944 0.4472 0)
(0.8944 0.4472 0)
(0.894401 0.4472 0)
(0.894401 0.4472 0)
(0.894401 0.447201 0)
(0.894402 0.447201 0)
(0.894404 0.447201 0)
(0.894405 0.447202 0)
(0.894408 0.447204 0)
(0.894412 0.447205 0)
(0.894418 0.447206 0)
(0.894423 0.447212 0)
(0.894436 0.44721 0)
(0.894446 0.447215 0)
(0.894463 0.447215 0)
(0.894485 0.44721 0)
(0.894508 0.447198 0)
(0.894546 0.447169 0)
(0.894589 0.447113 0)
(0.894647 0.447011 0)
(0.894732 0.446843 0)
(0.894844 0.446565 0)
(0.895007 0.446135 0)
(0.895244 0.445491 0)
(0.895589 0.444543 0)
(0.896087 0.443209 0)
(0.896811 0.441363 0)
(0.897853 0.438885 0)
(0.899321 0.435653 0)
(0.901384 0.431556 0)
(0.904202 0.426505 0)
(0.908009 0.420478 0)
(0.913036 0.41352 0)
(0.919535 0.405787 0)
(0.8944 0.4472 0)
(0.8944 0.4472 0)
(0.8944 0.4472 0)
(0.8944 0.4472 0)
(0.8944 0.4472 0)
(0.8944 0.4472 0)
(0.8944 0.4472 0)
(0.8944 0.4472 0)
(0.8944 0.4472 0)
(0.8944 0.4472 0)
(0.8944 0.4472 0)
(0.8944 0.4472 0)
(0.8944 0.4472 0)
(0.8944 0.4472 0)
(0.8944 0.4472 0)
(0.8944 0.4472 0)
(0.8944 0.4472 0)
(0.8944 0.4472 0)
(0.8944 0.4472 0)
(0.8944 0.4472 0)
(0.8944 0.4472 0)
(0.8944 0.4472 0)
(0.8944 0.4472 0)
(0.8944 0.4472 0)
(0.8944 0.4472 0)
(0.8944 0.4472 0)
(0.8944 0.4472 0)
(0.8944 0.4472 0)
(0.8944 0.4472 0)
(0.8944 0.4472 0)
(0.8944 0.4472 0)
(0.8944 0.4472 0)
(0.8944 0.4472 0)
(0.8944 0.4472 0)
(0.8944 0.4472 0)
(0.8944 0.4472 0)
(0.8944 0.4472 0)
(0.8944 0.4472 0)
(0.8944 0.4472 0)
(0.8944 0.4472 0)
(0.8944 0.4472 0)
(0.8944 0.4472 0)
(0.894401 0.4472 0)
(0.8944 0.447201 0)
(0.894401 0.4472 0)
(0.894401 0.447201 0)
(0.894402 0.447201 0)
(0.894404 0.447201 0)
(0.894405 0.447202 0)
(0.894407 0.447203 0)
(0.894411 0.447204 0)
(0.894415 0.447207 0)
(0.894421 0.447208 0)
(0.89443 0.447213 0)
(0.894438 0.447214 0)
(0.894455 0.447215 0)
(0.894471 0.447216 0)
(0.894493 0.447206 0)
(0.894522 0.447188 0)
(0.89456 0.447146 0)
(0.894609 0.447072 0)
(0.894677 0.446941 0)
(0.894776 0.446732 0)
(0.89491 0.446399 0)
(0.89511 0.445901 0)
(0.895404 0.445169 0)
(0.895828 0.444119 0)
(0.896433 0.442682 0)
(0.897307 0.440737 0)
(0.898537 0.438198 0)
(0.900239 0.434968 0)
(0.902567 0.430975 0)
(0.905682 0.426192 0)
(0.909769 0.420644 0)
(0.915014 0.414437 0)
(0.8944 0.4472 0)
(0.8944 0.4472 0)
(0.8944 0.4472 0)
(0.8944 0.4472 0)
(0.8944 0.4472 0)
(0.8944 0.4472 0)
(0.8944 0.4472 0)
(0.8944 0.4472 0)
(0.8944 0.4472 0)
(0.8944 0.4472 0)
(0.8944 0.4472 0)
(0.8944 0.4472 0)
(0.8944 0.4472 0)
(0.8944 0.4472 0)
(0.8944 0.4472 0)
(0.8944 0.4472 0)
(0.8944 0.4472 0)
(0.8944 0.4472 0)
(0.8944 0.4472 0)
(0.8944 0.4472 0)
(0.8944 0.4472 0)
(0.8944 0.4472 0)
(0.8944 0.4472 0)
(0.8944 0.4472 0)
(0.8944 0.4472 0)
(0.8944 0.4472 0)
(0.8944 0.4472 0)
(0.8944 0.4472 0)
(0.8944 0.4472 0)
(0.8944 0.4472 0)
(0.8944 0.4472 0)
(0.8944 0.4472 0)
(0.8944 0.4472 0)
(0.8944 0.4472 0)
(0.8944 0.4472 0)
(0.8944 0.4472 0)
(0.8944 0.4472 0)
(0.8944 0.4472 0)
(0.8944 0.4472 0)
(0.8944 0.4472 0)
(0.8944 0.4472 0)
(0.8944 0.4472 0)
(0.8944 0.4472 0)
(0.894401 0.4472 0)
(0.8944 0.4472 0)
(0.894401 0.4472 0)
(0.894402 0.447201 0)
(0.894402 0.447202 0)
(0.894404 0.447202 0)
(0.894406 0.447203 0)
(0.894408 0.447204 0)
(0.894413 0.447206 0)
(0.894417 0.447209 0)
(0.894425 0.44721 0)
(0.894434 0.447215 0)
(0.894444 0.447216 0)
(0.894459 0.447217 0)
(0.894478 0.447214 0)
(0.894501 0.447197 0)
(0.894533 0.447172 0)
(0.894573 0.447116 0)
(0.89463 0.44702 0)
(0.89471 0.44686 0)
(0.894822 0.446611 0)
(0.89499 0.446226 0)
(0.895231 0.445664 0)
(0.895581 0.444857 0)
(0.896086 0.44374 0)
(0.896808 0.442239 0)
(0.897817 0.440261 0)
(0.899213 0.437746 0)
(0.901112 0.434628 0)
(0.903635 0.430878 0)
(0.906928 0.426514 0)
(0.911137 0.421599 0)
(0.8944 0.4472 0)
(0.8944 0.4472 0)
(0.8944 0.4472 0)
(0.8944 0.4472 0)
(0.8944 0.4472 0)
(0.8944 0.4472 0)
(0.8944 0.4472 0)
(0.8944 0.4472 0)
(0.8944 0.4472 0)
(0.8944 0.4472 0)
(0.8944 0.4472 0)
(0.8944 0.4472 0)
(0.8944 0.4472 0)
(0.8944 0.4472 0)
(0.8944 0.4472 0)
(0.8944 0.4472 0)
(0.8944 0.4472 0)
(0.8944 0.4472 0)
(0.8944 0.4472 0)
(0.8944 0.4472 0)
(0.8944 0.4472 0)
(0.8944 0.4472 0)
(0.8944 0.4472 0)
(0.8944 0.4472 0)
(0.8944 0.4472 0)
(0.8944 0.4472 0)
(0.8944 0.4472 0)
(0.8944 0.4472 0)
(0.8944 0.4472 0)
(0.8944 0.4472 0)
(0.8944 0.4472 0)
(0.8944 0.4472 0)
(0.8944 0.4472 0)
(0.8944 0.4472 0)
(0.8944 0.4472 0)
(0.8944 0.4472 0)
(0.8944 0.4472 0)
(0.8944 0.4472 0)
(0.8944 0.4472 0)
(0.8944 0.4472 0)
(0.8944 0.4472 0)
(0.8944 0.4472 0)
(0.8944 0.4472 0)
(0.8944 0.4472 0)
(0.894401 0.4472 0)
(0.894401 0.447201 0)
(0.894401 0.4472 0)
(0.894403 0.447201 0)
(0.894403 0.447202 0)
(0.894404 0.447203 0)
(0.894408 0.447203 0)
(0.894408 0.447206 0)
(0.894417 0.447208 0)
(0.894419 0.447211 0)
(0.894428 0.447213 0)
(0.894437 0.447216 0)
(0.894449 0.447219 0)
(0.894463 0.447215 0)
(0.894483 0.447209 0)
(0.894509 0.447188 0)
(0.894541 0.447148 0)
(0.894587 0.447078 0)
(0.894651 0.446961 0)
(0.894744 0.446769 0)
(0.894878 0.446483 0)
(0.895075 0.446051 0)
(0.895359 0.44544 0)
(0.895774 0.444587 0)
(0.896356 0.443427 0)
(0.897183 0.441913 0)
(0.898308 0.439975 0)
(0.899839 0.437565 0)
(0.901865 0.434664 0)
(0.904498 0.43127 0)
(0.907837 0.427438 0)
(0.8944 0.4472 0)
(0.8944 0.4472 0)
(0.8944 0.4472 0)
(0.8944 0.4472 0)
(0.8944 0.4472 0)
(0.8944 0.4472 0)
(0.8944 0.4472 0)
(0.8944 0.4472 0)
(0.8944 0.4472 0)
(0.8944 0.4472 0)
(0.8944 0.4472 0)
(0.8944 0.4472 0)
(0.8944 0.4472 0)
(0.8944 0.4472 0)
(0.8944 0.4472 0)
(0.8944 0.4472 0)
(0.8944 0.4472 0)
(0.8944 0.4472 0)
(0.8944 0.4472 0)
(0.8944 0.4472 0)
(0.8944 0.4472 0)
(0.8944 0.4472 0)
(0.8944 0.4472 0)
(0.8944 0.4472 0)
(0.8944 0.4472 0)
(0.8944 0.4472 0)
(0.8944 0.4472 0)
(0.8944 0.4472 0)
(0.8944 0.4472 0)
(0.8944 0.4472 0)
(0.8944 0.4472 0)
(0.8944 0.4472 0)
(0.8944 0.4472 0)
(0.8944 0.4472 0)
(0.8944 0.4472 0)
(0.8944 0.4472 0)
(0.8944 0.4472 0)
(0.8944 0.4472 0)
(0.8944 0.4472 0)
(0.8944 0.4472 0)
(0.8944 0.4472 0)
(0.894401 0.4472 0)
(0.8944 0.4472 0)
(0.894401 0.4472 0)
(0.8944 0.4472 0)
(0.894401 0.4472 0)
(0.894401 0.447201 0)
(0.894402 0.447201 0)
(0.894403 0.447201 0)
(0.894404 0.447203 0)
(0.894406 0.447203 0)
(0.894409 0.447205 0)
(0.894411 0.447207 0)
(0.894417 0.447209 0)
(0.894424 0.447213 0)
(0.89443 0.447215 0)
(0.89444 0.447217 0)
(0.894451 0.447219 0)
(0.894469 0.447212 0)
(0.894485 0.4472 0)
(0.894514 0.447174 0)
(0.894553 0.44712 0)
(0.894597 0.447035 0)
(0.894673 0.446894 0)
(0.894784 0.446676 0)
(0.894936 0.446358 0)
(0.895167 0.44589 0)
(0.895498 0.445241 0)
(0.895964 0.444371 0)
(0.896622 0.443213 0)