/*--------------------------------*- C++ -*----------------------------------*\
  =========                 |
  \\      /  F ield         | OpenFOAM: The Open Source CFD Toolbox
   \\    /   O peration     | Website:  https://openfoam.org
    \\  /    A nd           | Version:  6
     \\/     M anipulation  |
\*---------------------------------------------------------------------------*/
FoamFile
{
    version     2.0;
    format      ascii;
    class       volScalarField;
    location    "3.11";
    object      rho;
}
// * * * * * * * * * * * * * * * * * * * * * * * * * * * * * * * * * * * * * //

dimensions      [1 -3 0 0 0 0 0];

internalField   nonuniform List<scalar> 
5625
(
1.4
1.4
1.39999
1.39999
1.39999
1.39999
1.39999
1.39999
1.39998
1.39998
1.39998
1.39998
1.39998
1.39999
1.39999
1.39999
1.39999
1.4
1.4
1.4
1.40001
1.40001
1.40002
1.40002
1.40002
1.40003
1.40003
1.40003
1.40003
1.40003
1.40003
1.40003
1.40003
1.40003
1.40002
1.40002
1.40002
1.40002
1.40002
1.40001
1.40001
1.40001
1.40001
1.40001
1.40001
1.40001
1.40001
1.40001
1.40001
1.40001
1.40001
1.40001
1.40001
1.40001
1.40001
1.40001
1.40001
1.40001
1.40001
1.40001
1.40001
1.40001
1.40001
1.40001
1.40001
1.40001
1.40001
1.40001
1.40001
1.40001
1.40001
1.40001
1.40001
1.40001
1.40001
1.4
1.39999
1.39999
1.39999
1.39999
1.39998
1.39998
1.39998
1.39998
1.39998
1.39998
1.39998
1.39998
1.39998
1.39998
1.39999
1.39999
1.4
1.4
1.40001
1.40001
1.40002
1.40002
1.40003
1.40003
1.40003
1.40004
1.40004
1.40004
1.40004
1.40004
1.40004
1.40003
1.40003
1.40003
1.40003
1.40003
1.40002
1.40002
1.40002
1.40002
1.40001
1.40001
1.40001
1.40001
1.40001
1.40001
1.40001
1.40001
1.40001
1.40001
1.40001
1.40001
1.40001
1.40001
1.40001
1.40001
1.40001
1.40001
1.40001
1.40001
1.40001
1.40001
1.40001
1.40001
1.40001
1.40001
1.40001
1.40001
1.40001
1.40001
1.40001
1.40001
1.40001
1.40001
1.39999
1.39999
1.39999
1.39998
1.39998
1.39998
1.39998
1.39997
1.39997
1.39997
1.39997
1.39997
1.39997
1.39998
1.39998
1.39999
1.39999
1.4
1.4
1.40001
1.40002
1.40002
1.40003
1.40004
1.40004
1.40004
1.40005
1.40005
1.40005
1.40005
1.40005
1.40005
1.40004
1.40004
1.40004
1.40004
1.40003
1.40003
1.40003
1.40002
1.40002
1.40002
1.40001
1.40001
1.40001
1.40001
1.40001
1.40001
1.40001
1.40001
1.40001
1.40001
1.40001
1.40001
1.40001
1.40001
1.40001
1.40001
1.40001
1.40001
1.40001
1.40001
1.40001
1.40001
1.40001
1.40001
1.40001
1.40001
1.40001
1.40001
1.40001
1.40001
1.40001
1.40001
1.40001
1.39999
1.39999
1.39998
1.39998
1.39998
1.39997
1.39997
1.39997
1.39997
1.39996
1.39997
1.39997
1.39997
1.39997
1.39998
1.39999
1.39999
1.4
1.40001
1.40002
1.40003
1.40003
1.40004
1.40005
1.40005
1.40006
1.40006
1.40006
1.40006
1.40006
1.40006
1.40006
1.40006
1.40005
1.40005
1.40004
1.40004
1.40004
1.40003
1.40003
1.40002
1.40002
1.40002
1.40001
1.40001
1.40001
1.40001
1.40001
1.40001
1.40001
1.40001
1.40001
1.40001
1.40001
1.40001
1.40001
1.40001
1.40001
1.40001
1.40001
1.40001
1.40001
1.40001
1.40001
1.40001
1.40001
1.40001
1.40001
1.40001
1.40001
1.40001
1.40001
1.40001
1.40001
1.40001
1.39999
1.39998
1.39998
1.39997
1.39997
1.39996
1.39996
1.39996
1.39996
1.39996
1.39996
1.39996
1.39997
1.39997
1.39998
1.39999
1.4
1.40001
1.40002
1.40003
1.40004
1.40005
1.40006
1.40007
1.40007
1.40008
1.40008
1.40008
1.40008
1.40008
1.40008
1.40008
1.40007
1.40007
1.40006
1.40006
1.40005
1.40004
1.40004
1.40003
1.40003
1.40002
1.40002
1.40002
1.40001
1.40001
1.40001
1.40001
1.40001
1.40001
1.40001
1.40001
1.40001
1.40001
1.40001
1.40001
1.4
1.40001
1.40001
1.40001
1.40001
1.40001
1.40001
1.40001
1.40001
1.40001
1.40001
1.40001
1.40001
1.40001
1.40001
1.40001
1.40001
1.40001
1.40001
1.39998
1.39998
1.39997
1.39997
1.39996
1.39996
1.39995
1.39995
1.39995
1.39995
1.39995
1.39996
1.39997
1.39998
1.39999
1.4
1.40001
1.40002
1.40004
1.40005
1.40006
1.40008
1.40009
1.40009
1.4001
1.40011
1.40011
1.40011
1.40011
1.40011
1.4001
1.4001
1.40009
1.40009
1.40008
1.40007
1.40006
1.40005
1.40005
1.40004
1.40003
1.40003
1.40002
1.40002
1.40002
1.40001
1.40001
1.40001
1.40001
1.40001
1.40001
1.40001
1.40001
1.40001
1.4
1.4
1.4
1.4
1.4
1.4
1.4
1.4
1.40001
1.40001
1.40001
1.40001
1.40001
1.40001
1.40001
1.40001
1.40001
1.40001
1.40001
1.40001
1.40001
1.39998
1.39997
1.39996
1.39996
1.39995
1.39995
1.39995
1.39994
1.39995
1.39995
1.39995
1.39996
1.39997
1.39999
1.4
1.40002
1.40003
1.40005
1.40007
1.40009
1.4001
1.40012
1.40013
1.40014
1.40014
1.40015
1.40015
1.40015
1.40015
1.40014
1.40014
1.40013
1.40012
1.40011
1.4001
1.40009
1.40008
1.40007
1.40006
1.40005
1.40004
1.40004
1.40003
1.40002
1.40002
1.40002
1.40001
1.40001
1.40001
1.40001
1.40001
1.40001
1.40001
1.40001
1.4
1.4
1.4
1.4
1.4
1.4
1.4
1.4
1.4
1.40001
1.40001
1.40001
1.40001
1.40001
1.40001
1.40001
1.40001
1.40001
1.40001
1.40001
1.40001
1.39997
1.39996
1.39996
1.39995
1.39995
1.39994
1.39994
1.39994
1.39994
1.39995
1.39996
1.39997
1.39999
1.40001
1.40003
1.40005
1.40008
1.4001
1.40012
1.40014
1.40016
1.40018
1.40019
1.4002
1.40021
1.40021
1.40021
1.40021
1.4002
1.40019
1.40018
1.40017
1.40016
1.40014
1.40013
1.40011
1.4001
1.40009
1.40007
1.40006
1.40005
1.40004
1.40003
1.40003
1.40002
1.40002
1.40001
1.40001
1.40001
1.40001
1.40001
1.40001
1.40001
1.4
1.4
1.4
1.4
1.4
1.4
1.4
1.4
1.4
1.4
1.4
1.4
1.40001
1.40001
1.40001
1.40001
1.40001
1.40001
1.40001
1.40001
1.40001
1.40001
1.39996
1.39996
1.39995
1.39994
1.39994
1.39994
1.39994
1.39994
1.39995
1.39996
1.39998
1.4
1.40003
1.40005
1.40008
1.40011
1.40015
1.40018
1.40021
1.40023
1.40026
1.40027
1.40029
1.4003
1.4003
1.4003
1.4003
1.40029
1.40027
1.40026
1.40024
1.40022
1.4002
1.40018
1.40016
1.40015
1.40013
1.40011
1.40009
1.40008
1.40006
1.40005
1.40004
1.40003
1.40003
1.40002
1.40002
1.40001
1.40001
1.40001
1.40001
1.40001
1.40001
1.4
1.4
1.4
1.4
1.4
1.4
1.4
1.4
1.4
1.4
1.4
1.4
1.40001
1.40001
1.40001
1.40001
1.40001
1.40001
1.40001
1.40001
1.40001
1.40001
1.39996
1.39995
1.39995
1.39994
1.39994
1.39994
1.39995
1.39996
1.39997
1.4
1.40002
1.40005
1.40009
1.40013
1.40017
1.40022
1.40026
1.4003
1.40034
1.40037
1.4004
1.40042
1.40043
1.40044
1.40044
1.40043
1.40042
1.4004
1.40038
1.40036
1.40033
1.4003
1.40027
1.40024
1.40021
1.40019
1.40016
1.40014
1.40012
1.4001
1.40008
1.40006
1.40005
1.40004
1.40003
1.40002
1.40002
1.40001
1.40001
1.40001
1.40001
1.40001
1.4
1.4
1.4
1.4
1.4
1.4
1.4
1.4
1.4
1.4
1.4
1.4
1.4
1.4
1.40001
1.40001
1.40001
1.40001
1.40001
1.40001
1.40001
1.40001
1.40001
1.39995
1.39995
1.39994
1.39994
1.39995
1.39995
1.39997
1.39999
1.40002
1.40005
1.40009
1.40014
1.4002
1.40026
1.40032
1.40038
1.40043
1.40049
1.40054
1.40058
1.40061
1.40063
1.40065
1.40065
1.40064
1.40062
1.4006
1.40057
1.40053
1.40049
1.40045
1.40041
1.40036
1.40032
1.40028
1.40024
1.40021
1.40018
1.40015
1.40012
1.4001
1.40008
1.40006
1.40005
1.40004
1.40003
1.40002
1.40002
1.40001
1.40001
1.40001
1.40001
1.4
1.4
1.4
1.4
1.4
1.4
1.4
1.4
1.4
1.4
1.4
1.4
1.4
1.4
1.4
1.40001
1.40001
1.40001
1.40001
1.40001
1.40001
1.40001
1.40001
1.39995
1.39995
1.39995
1.39995
1.39996
1.39998
1.40001
1.40004
1.40009
1.40015
1.40021
1.40029
1.40037
1.40045
1.40054
1.40062
1.4007
1.40078
1.40084
1.40089
1.40093
1.40095
1.40096
1.40095
1.40093
1.4009
1.40086
1.40081
1.40075
1.40069
1.40062
1.40056
1.40049
1.40043
1.40037
1.40032
1.40027
1.40023
1.40019
1.40015
1.40012
1.4001
1.40008
1.40006
1.40004
1.40003
1.40002
1.40002
1.40001
1.40001
1.40001
1.4
1.4
1.4
1.4
1.4
1.4
1.4
1.4
1.4
1.4
1.4
1.4
1.4
1.4
1.4
1.4
1.4
1.40001
1.40001
1.40001
1.40001
1.40001
1.40001
1.40001
1.39996
1.39996
1.39997
1.39998
1.4
1.40004
1.40008
1.40014
1.40021
1.4003
1.4004
1.40051
1.40063
1.40075
1.40087
1.40099
1.4011
1.40119
1.40128
1.40134
1.40139
1.40141
1.40141
1.40139
1.40135
1.4013
1.40123
1.40115
1.40106
1.40096
1.40086
1.40077
1.40067
1.40058
1.4005
1.40042
1.40036
1.4003
1.40024
1.4002
1.40016
1.40012
1.40009
1.40007
1.40005
1.40004
1.40003
1.40002
1.40001
1.40001
1.40001
1.4
1.4
1.4
1.4
1.4
1.4
1.4
1.4
1.4
1.4
1.4
1.4
1.4
1.4
1.4
1.4
1.4
1.40001
1.40001
1.40001
1.40001
1.40001
1.40001
1.40001
1.39997
1.39998
1.4
1.40002
1.40007
1.40013
1.4002
1.4003
1.40041
1.40054
1.40069
1.40085
1.40101
1.40118
1.40135
1.40152
1.40167
1.4018
1.40191
1.40199
1.40204
1.40206
1.40206
1.40202
1.40195
1.40186
1.40175
1.40163
1.40149
1.40135
1.4012
1.40106
1.40093
1.4008
1.40068
1.40057
1.40047
1.40039
1.40032
1.40025
1.4002
1.40015
1.40012
1.40009
1.40006
1.40005
1.40003
1.40002
1.40001
1.40001
1.40001
1.4
1.4
1.4
1.4
1.4
1.4
1.4
1.4
1.4
1.4
1.4
1.4
1.4
1.4
1.4
1.4
1.4
1.4
1.40001
1.40001
1.40001
1.40001
1.40001
1.40001
1.4
1.40002
1.40005
1.4001
1.40018
1.40027
1.40039
1.40053
1.4007
1.40089
1.40111
1.40134
1.40157
1.40181
1.40205
1.40227
1.40248
1.40265
1.40279
1.4029
1.40296
1.40298
1.40295
1.40289
1.40279
1.40265
1.40248
1.4023
1.4021
1.40189
1.40168
1.40147
1.40128
1.40109
1.40092
1.40077
1.40064
1.40052
1.40042
1.40033
1.40026
1.4002
1.40015
1.40011
1.40008
1.40006
1.40004
1.40002
1.40001
1.40001
1.4
1.4
1.4
1.4
1.4
1.4
1.4
1.4
1.4
1.4
1.4
1.4
1.4
1.4
1.4
1.4
1.4
1.4
1.4
1.4
1.40001
1.40001
1.40001
1.40001
1.40001
1.40004
1.40008
1.40014
1.40023
1.40034
1.40049
1.40067
1.40088
1.40113
1.40141
1.40171
1.40203
1.40237
1.4027
1.40302
1.40332
1.4036
1.40383
1.40401
1.40415
1.40422
1.40424
1.40419
1.40409
1.40393
1.40373
1.40349
1.40323
1.40294
1.40264
1.40234
1.40205
1.40177
1.40151
1.40127
1.40105
1.40086
1.4007
1.40055
1.40044
1.40034
1.40026
1.40019
1.40014
1.4001
1.40007
1.40005
1.40003
1.40002
1.40001
1.4
1.4
1.4
1.4
1.4
1.4
1.4
1.4
1.4
1.4
1.4
1.4
1.4
1.4
1.4
1.4
1.4
1.4
1.4
1.4
1.40001
1.40001
1.40001
1.40001
1.40001
1.40011
1.40018
1.40028
1.40042
1.40059
1.40081
1.40108
1.40139
1.40174
1.40214
1.40256
1.40301
1.40346
1.40392
1.40435
1.40476
1.40512
1.40543
1.40567
1.40584
1.40593
1.40593
1.40586
1.40571
1.40549
1.4052
1.40487
1.40449
1.40408
1.40366
1.40324
1.40283
1.40244
1.40207
1.40174
1.40143
1.40117
1.40094
1.40074
1.40058
1.40045
1.40034
1.40025
1.40018
1.40013
1.40009
1.40006
1.40003
1.40002
1.40001
1.4
1.4
1.4
1.4
1.4
1.4
1.4
1.4
1.4
1.4
1.4
1.4
1.4
1.4
1.4
1.4
1.4
1.4
1.4
1.4
1.4
1.40001
1.40001
1.40001
1.40001
1.40022
1.40034
1.40049
1.4007
1.40096
1.40128
1.40166
1.4021
1.40259
1.40314
1.40373
1.40433
1.40495
1.40556
1.40614
1.40668
1.40715
1.40755
1.40786
1.40807
1.40818
1.40818
1.40807
1.40786
1.40755
1.40716
1.4067
1.40618
1.40562
1.40505
1.40447
1.4039
1.40335
1.40284
1.40238
1.40196
1.40159
1.40128
1.40101
1.40078
1.4006
1.40045
1.40033
1.40024
1.40016
1.40011
1.40007
1.40004
1.40002
1.40001
1.4
1.39999
1.39999
1.39999
1.39999
1.39999
1.4
1.4
1.4
1.4
1.4
1.4
1.4
1.4
1.4
1.4
1.4
1.4
1.4
1.4
1.4
1.40001
1.40001
1.40001
1.40001
1.40038
1.40056
1.40079
1.40109
1.40147
1.40192
1.40246
1.40307
1.40376
1.4045
1.40529
1.4061
1.40692
1.40773
1.40849
1.40918
1.4098
1.41031
1.4107
1.41097
1.4111
1.41109
1.41093
1.41065
1.41024
1.40971
1.40909
1.4084
1.40766
1.40688
1.40609
1.40532
1.40458
1.40389
1.40325
1.40268
1.40217
1.40174
1.40137
1.40106
1.4008
1.4006
1.40044
1.40031
1.40022
1.40014
1.40009
1.40005
1.40003
1.40001
1.4
1.39999
1.39999
1.39999
1.39999
1.39999
1.39999
1.39999
1.4
1.4
1.4
1.4
1.4
1.4
1.4
1.4
1.4
1.4
1.4
1.4
1.4
1.4
1.40001
1.40001
1.40001
1.40062
1.40088
1.40122
1.40165
1.40218
1.40281
1.40355
1.40439
1.40531
1.40631
1.40735
1.40842
1.40949
1.41052
1.4115
1.41239
1.41316
1.41381
1.4143
1.41463
1.41478
1.41476
1.41456
1.41419
1.41366
1.41298
1.41217
1.41127
1.41029
1.40927
1.40823
1.4072
1.40621
1.40527
1.40441
1.40363
1.40295
1.40236
1.40185
1.40143
1.40109
1.40081
1.40059
1.40042
1.40029
1.40019
1.40012
1.40007
1.40003
1.40001
1.4
1.39999
1.39998
1.39998
1.39998
1.39999
1.39999
1.39999
1.39999
1.4
1.4
1.4
1.4
1.4
1.4
1.4
1.4
1.4
1.4
1.4
1.4
1.4
1.40001
1.40001
1.40001
1.40094
1.40132
1.4018
1.40241
1.40314
1.40401
1.405
1.40612
1.40734
1.40865
1.41
1.41138
1.41274
1.41405
1.41527
1.41638
1.41734
1.41813
1.41873
1.41913
1.41931
1.41928
1.41902
1.41856
1.41789
1.41704
1.41603
1.41488
1.41364
1.41232
1.41097
1.40963
1.40832
1.40709
1.40594
1.4049
1.40398
1.40318
1.4025
1.40193
1.40147
1.40109
1.40079
1.40056
1.40039
1.40026
1.40016
1.40009
1.40004
1.40001
1.39999
1.39998
1.39998
1.39998
1.39998
1.39998
1.39998
1.39999
1.39999
1.39999
1.4
1.4
1.4
1.4
1.4
1.4
1.4
1.4
1.4
1.4
1.4
1.4
1.4
1.40001
1.40001
1.40139
1.40192
1.40259
1.40342
1.40441
1.40558
1.4069
1.40836
1.40995
1.41162
1.41334
1.41507
1.41676
1.41837
1.41986
1.4212
1.42235
1.42329
1.42401
1.42448
1.42469
1.42465
1.42435
1.42379
1.42299
1.42197
1.42073
1.41932
1.41777
1.41612
1.41442
1.4127
1.41103
1.40942
1.40792
1.40656
1.40534
1.40428
1.40337
1.40261
1.40198
1.40147
1.40107
1.40076
1.40052
1.40035
1.40022
1.40013
1.40006
1.40002
1.4
1.39998
1.39997
1.39997
1.39997
1.39998
1.39998
1.39998
1.39999
1.39999
1.39999
1.4
1.4
1.4
1.4
1.4
1.4
1.4
1.4
1.4
1.4
1.4
1.4
1.40001
1.40001
1.402
1.40273
1.40364
1.40476
1.40608
1.4076
1.40932
1.4112
1.41321
1.41531
1.41744
1.41955
1.42159
1.42351
1.42527
1.42684
1.42817
1.42925
1.43007
1.4306
1.43085
1.4308
1.43046
1.42983
1.42891
1.42772
1.42628
1.42461
1.42275
1.42075
1.41865
1.41652
1.41441
1.41237
1.41045
1.40868
1.4071
1.4057
1.4045
1.40349
1.40266
1.40198
1.40145
1.40103
1.40071
1.40047
1.4003
1.40018
1.40009
1.40004
1.4
1.39998
1.39997
1.39997
1.39997
1.39997
1.39997
1.39998
1.39998
1.39999
1.39999
1.4
1.4
1.4
1.4
1.4
1.4
1.4
1.4
1.4
1.4
1.4
1.4
1.4
1.40001
1.40281
1.40379
1.40501
1.40648
1.4082
1.41017
1.41235
1.41471
1.4172
1.41976
1.42232
1.42482
1.4272
1.42941
1.43141
1.43316
1.43463
1.43582
1.4367
1.43728
1.43754
1.4375
1.43713
1.43646
1.43546
1.43416
1.43255
1.43067
1.42853
1.42619
1.4237
1.42113
1.41854
1.41601
1.4136
1.41136
1.40933
1.40753
1.40597
1.40464
1.40355
1.40265
1.40194
1.40139
1.40097
1.40065
1.40042
1.40025
1.40013
1.40006
1.40001
1.39998
1.39996
1.39996
1.39996
1.39996
1.39997
1.39997
1.39998
1.39998
1.39999
1.39999
1.4
1.4
1.4
1.4
1.4
1.4
1.4
1.4
1.4
1.4
1.4
1.4
1.40001
1.40386
1.40517
1.40676
1.40867
1.41087
1.41335
1.41606
1.41895
1.42195
1.42497
1.42794
1.43079
1.43346
1.43589
1.43804
1.43989
1.44142
1.44264
1.44354
1.44412
1.44439
1.44435
1.44399
1.44332
1.44232
1.44098
1.43931
1.43729
1.43497
1.43236
1.42952
1.42653
1.42346
1.42041
1.41745
1.41467
1.41211
1.40982
1.40783
1.40612
1.40469
1.40353
1.4026
1.40186
1.4013
1.40088
1.40057
1.40035
1.4002
1.40009
1.40002
1.39998
1.39996
1.39995
1.39995
1.39995
1.39996
1.39997
1.39997
1.39998
1.39999
1.39999
1.39999
1.4
1.4
1.4
1.4
1.4
1.4
1.4
1.4
1.4
1.4
1.4
1.4
1.40521
1.40691
1.40897
1.41139
1.41414
1.4172
1.42049
1.42392
1.42741
1.43086
1.43417
1.43727
1.4401
1.44261
1.44478
1.4466
1.44807
1.44921
1.45003
1.45056
1.45081
1.45078
1.45047
1.44987
1.44896
1.44771
1.4461
1.44412
1.44175
1.43901
1.43594
1.43261
1.42911
1.42555
1.42203
1.41865
1.41551
1.41266
1.41015
1.40798
1.40615
1.40465
1.40344
1.40248
1.40175
1.40119
1.40078
1.40049
1.40028
1.40014
1.40005
1.39999
1.39996
1.39995
1.39994
1.39995
1.39995
1.39996
1.39997
1.39998
1.39998
1.39999
1.39999
1.4
1.4
1.4
1.4
1.4
1.4
1.4
1.4
1.4
1.4
1.4
1.4
1.40691
1.40909
1.41169
1.4147
1.41807
1.42174
1.42561
1.42955
1.43347
1.43723
1.44073
1.44391
1.44671
1.44911
1.45109
1.45269
1.45393
1.45486
1.4555
1.4559
1.45609
1.45607
1.45584
1.45539
1.45469
1.45369
1.45234
1.45059
1.4484
1.44575
1.44265
1.43916
1.43535
1.43136
1.42731
1.42334
1.41957
1.4161
1.41299
1.41027
1.40797
1.40606
1.4045
1.40327
1.40232
1.40159
1.40106
1.40067
1.4004
1.40021
1.40009
1.40001
1.39997
1.39995
1.39994
1.39994
1.39994
1.39995
1.39996
1.39997
1.39998
1.39998
1.39999
1.39999
1.4
1.4
1.4
1.4
1.4
1.4
1.4
1.4
1.4
1.4
1.4
1.40902
1.41176
1.41498
1.41864
1.42266
1.42694
1.43133
1.43569
1.43987
1.44375
1.44722
1.45022
1.45274
1.45476
1.45632
1.45748
1.45831
1.45886
1.4592
1.4594
1.45947
1.45946
1.45936
1.45914
1.45877
1.45818
1.4573
1.45603
1.45429
1.45202
1.44918
1.44579
1.44191
1.43765
1.43319
1.42868
1.42429
1.42016
1.41639
1.41307
1.4102
1.4078
1.40584
1.40427
1.40305
1.40212
1.40142
1.40091
1.40055
1.40031
1.40014
1.40004
1.39998
1.39995
1.39993
1.39993
1.39994
1.39994
1.39995
1.39996
1.39997
1.39998
1.39999
1.39999
1.39999
1.4
1.4
1.4
1.4
1.4
1.4
1.4
1.4
1.4
1.4
1.4116
1.41497
1.41887
1.42321
1.42787
1.43269
1.43748
1.44205
1.44626
1.44997
1.4531
1.45562
1.45753
1.4589
1.45979
1.46029
1.46052
1.46055
1.46048
1.46039
1.46032
1.4603
1.46034
1.46042
1.46048
1.46045
1.46023
1.45969
1.45871
1.45715
1.45493
1.45199
1.44835
1.44412
1.43945
1.43454
1.4296
1.42483
1.42039
1.41639
1.4129
1.40994
1.40749
1.40552
1.40397
1.40278
1.40188
1.40123
1.40076
1.40044
1.40022
1.40008
1.4
1.39995
1.39993
1.39992
1.39993
1.39993
1.39995
1.39996
1.39997
1.39998
1.39998
1.39999
1.39999
1.4
1.4
1.4
1.4
1.4
1.4
1.4
1.4
1.4
1.4
1.41468
1.41875
1.42336
1.42836
1.43358
1.43878
1.44374
1.44825
1.45215
1.45534
1.45778
1.45947
1.46048
1.46092
1.46091
1.46057
1.46005
1.45945
1.45889
1.45846
1.45821
1.45817
1.45837
1.45877
1.45932
1.45995
1.46054
1.46094
1.46097
1.46045
1.45922
1.45714
1.45416
1.45033
1.44577
1.4407
1.43537
1.43004
1.42494
1.42025
1.41608
1.41249
1.40949
1.40704
1.4051
1.4036
1.40247
1.40163
1.40103
1.40061
1.40033
1.40014
1.40003
1.39996
1.39993
1.39992
1.39992
1.39993
1.39994
1.39995
1.39996
1.39997
1.39998
1.39999
1.39999
1.39999
1.4
1.4
1.4
1.4
1.4
1.4
1.4
1.4
1.4
1.41828
1.42309
1.42839
1.43397
1.43957
1.4449
1.44971
1.45379
1.45701
1.4593
1.46068
1.46123
1.46108
1.46038
1.4593
1.45801
1.45666
1.45539
1.45431
1.45351
1.45306
1.453
1.45334
1.45406
1.45512
1.45644
1.4579
1.45934
1.46056
1.46133
1.46142
1.4606
1.45872
1.45573
1.4517
1.44682
1.44137
1.43566
1.42999
1.42463
1.41975
1.41548
1.41186
1.40888
1.40649
1.40462
1.4032
1.40214
1.40137
1.40083
1.40047
1.40022
1.40007
1.39998
1.39993
1.39991
1.39991
1.39992
1.39993
1.39994
1.39995
1.39996
1.39997
1.39998
1.39999
1.39999
1.4
1.4
1.4
1.4
1.4
1.4
1.4
1.4
1.4
1.42242
1.42795
1.43385
1.43982
1.44553
1.45065
1.45492
1.45816
1.46029
1.46132
1.46135
1.46053
1.45904
1.4571
1.4549
1.45264
1.45046
1.44853
1.44694
1.4458
1.44516
1.44506
1.44552
1.44654
1.44806
1.45003
1.45233
1.45482
1.45728
1.45947
1.46109
1.46184
1.46146
1.45977
1.45674
1.45249
1.44727
1.44145
1.43539
1.42945
1.4239
1.41892
1.41463
1.41105
1.40814
1.40585
1.40408
1.40276
1.4018
1.40112
1.40065
1.40033
1.40013
1.40001
1.39995
1.39992
1.39991
1.39991
1.39992
1.39993
1.39995
1.39996
1.39997
1.39998
1.39999
1.39999
1.4
1.4
1.4
1.4
1.4
1.4
1.4
1.4
1.4
1.42703
1.4332
1.43953
1.44562
1.45109
1.45559
1.45889
1.46089
1.46158
1.46108
1.45956
1.45725
1.45438
1.4512
1.44793
1.44475
1.44183
1.43931
1.43728
1.43583
1.43503
1.43489
1.43545
1.4367
1.43862
1.44114
1.44419
1.44762
1.45125
1.45484
1.45806
1.46055
1.46195
1.46195
1.46038
1.45723
1.4527
1.44713
1.44095
1.43459
1.42844
1.42278
1.4178
1.41356
1.41008
1.40731
1.40515
1.40353
1.40233
1.40147
1.40088
1.40048
1.40022
1.40006
1.39997
1.39992
1.3999
1.3999
1.39991
1.39993
1.39994
1.39995
1.39996
1.39997
1.39998
1.39999
1.39999
1.4
1.4
1.4
1.4
1.4
1.4
1.4
1.4
1.43203
1.43868
1.44516
1.45101
1.45582
1.45926
1.4612
1.46162
1.46064
1.45845
1.45533
1.45154
1.44737
1.44306
1.43883
1.43488
1.43134
1.42834
1.42596
1.42428
1.42334
1.42317
1.4238
1.42522
1.42743
1.43039
1.43403
1.43825
1.44289
1.44773
1.45245
1.45669
1.46
1.46195
1.46221
1.46062
1.45724
1.45235
1.44639
1.43987
1.43328
1.42701
1.42134
1.41643
1.41233
1.40902
1.40642
1.40444
1.40297
1.40191
1.40116
1.40066
1.40033
1.40012
1.4
1.39993
1.3999
1.3999
1.39991
1.39992
1.39993
1.39995
1.39996
1.39997
1.39998
1.39999
1.39999
1.4
1.4
1.4
1.4
1.4
1.4
1.4
1.4
1.43727
1.44413
1.45042
1.45561
1.45932
1.46132
1.46158
1.46022
1.45745
1.45358
1.44891
1.44378
1.43845
1.43319
1.4282
1.42363
1.41962
1.41627
1.41363
1.41178
1.41073
1.41054
1.41121
1.41275
1.41516
1.41843
1.42252
1.42733
1.43277
1.43864
1.44467
1.4505
1.45566
1.45965
1.46197
1.4623
1.46051
1.45676
1.45144
1.44508
1.43826
1.43151
1.42521
1.41962
1.41487
1.41098
1.40789
1.40551
1.40373
1.40243
1.40151
1.40088
1.40046
1.4002
1.40004
1.39995
1.39991
1.3999
1.3999
1.39991
1.39993
1.39994
1.39995
1.39997
1.39998
1.39998
1.39999
1.39999
1.4
1.4
1.4
1.4
1.4
1.4
1.4
1.44252
1.44927
1.45495
1.45905
1.46128
1.46154
1.45994
1.45672
1.45221
1.44676
1.44073
1.43444
1.42818
1.42217
1.41659
1.41158
1.40724
1.40364
1.40083
1.39885
1.39774
1.39751
1.3982
1.3998
1.40234
1.40582
1.4102
1.41545
1.42148
1.42814
1.43522
1.4424
1.44923
1.45517
1.45962
1.46208
1.46222
1.46003
1.45577
1.44995
1.4432
1.43615
1.42933
1.42311
1.41771
1.4132
1.40958
1.40676
1.40462
1.40305
1.40193
1.40116
1.40064
1.4003
1.4001
1.39998
1.39992
1.3999
1.3999
1.3999
1.39992
1.39993
1.39995
1.39996
1.39997
1.39998
1.39999
1.39999
1.4
1.4
1.4
1.4
1.4
1.4
1.4
1.44755
1.45379
1.45844
1.46107
1.46153
1.45989
1.45639
1.45138
1.44526
1.43843
1.43125
1.42404
1.41707
1.41051
1.40452
1.39921
1.39464
1.39088
1.38795
1.38588
1.38471
1.38445
1.38512
1.38675
1.38936
1.39295
1.39753
1.40307
1.40951
1.41676
1.42465
1.43291
1.44114
1.44881
1.45529
1.45993
1.46223
1.46193
1.45912
1.45423
1.44788
1.44079
1.43361
1.42683
1.4208
1.41567
1.41148
1.40818
1.40565
1.40378
1.40243
1.40148
1.40085
1.40043
1.40017
1.40002
1.39994
1.3999
1.39989
1.3999
1.39991
1.39993
1.39994
1.39996
1.39997
1.39998
1.39999
1.39999
1.4
1.4
1.4
1.4
1.4
1.4
1.4
1.45207
1.4574
1.46064
1.46153
1.46006
1.45649
1.45116
1.44453
1.43701
1.42904
1.42096
1.41305
1.40555
1.39861
1.39234
1.38682
1.3821
1.37821
1.37519
1.37305
1.37181
1.37151
1.37216
1.37379
1.37642
1.38008
1.38477
1.3905
1.39723
1.40491
1.41339
1.42248
1.43183
1.44097
1.44927
1.456
1.46051
1.46231
1.46129
1.4577
1.45211
1.44526
1.43791
1.43071
1.4241
1.41836
1.41359
1.40977
1.40682
1.40461
1.403
1.40187
1.4011
1.40059
1.40026
1.40007
1.39996
1.39991
1.39989
1.3999
1.39991
1.39992
1.39994
1.39995
1.39997
1.39998
1.39998
1.39999
1.4
1.4
1.4
1.4
1.4
1.4
1.4
1.45583
1.45988
1.46143
1.46042
1.45701
1.45159
1.44461
1.43656
1.42789
1.41901
1.41024
1.40183
1.39396
1.38674
1.38027
1.37459
1.36973
1.36573
1.3626
1.36037
1.35907
1.35872
1.35935
1.36097
1.36362
1.36732
1.37209
1.37795
1.38488
1.39285
1.40177
1.41149
1.42172
1.43206
1.44191
1.45055
1.45719
1.46118
1.46217
1.46019
1.4557
1.4494
1.44213
1.43464
1.42755
1.42123
1.41588
1.41153
1.40813
1.40555
1.40366
1.40232
1.40139
1.40077
1.40038
1.40014
1.4
1.39993
1.3999
1.3999
1.3999
1.39992
1.39994
1.39995
1.39996
1.39997
1.39998
1.39999
1.39999
1.4
1.4
1.4
1.4
1.4
1.4
1.45864
1.46112
1.46082
1.45786
1.45259
1.44549
1.43707
1.42785
1.41826
1.40869
1.39941
1.39063
1.38249
1.37506
1.3684
1.36254
1.35752
1.35336
1.35009
1.34776
1.34638
1.34599
1.34661
1.34826
1.35096
1.35472
1.35957
1.36552
1.3726
1.38079
1.39004
1.40022
1.41113
1.42242
1.43356
1.44386
1.45248
1.45863
1.46173
1.4616
1.45849
1.45305
1.44611
1.43854
1.43108
1.42425
1.41833
1.41345
1.40957
1.40661
1.40441
1.40283
1.40173
1.40099
1.40051
1.40021
1.40004
1.39995
1.39991
1.3999
1.3999
1.39992
1.39993
1.39995
1.39996
1.39997
1.39998
1.39999
1.39999
1.4
1.4
1.4
1.4
1.4
1.4
1.46039
1.46111
1.4589
1.45408
1.4471
1.43852
1.42889
1.41872
1.40842
1.39834
1.38869
1.37963
1.37124
1.36359
1.3567
1.35059
1.34531
1.34091
1.33743
1.33494
1.33348
1.33307
1.33374
1.33549
1.33832
1.34223
1.34722
1.35331
1.36052
1.36888
1.37835
1.38888
1.40031
1.41234
1.42454
1.43625
1.44663
1.45482
1.46005
1.4619
1.46041
1.45609
1.44974
1.44231
1.43462
1.42736
1.42091
1.4155
1.41114
1.40777
1.40524
1.40341
1.40212
1.40124
1.40067
1.40031
1.4001
1.39998
1.39992
1.3999
1.3999
1.39991
1.39993
1.39994
1.39996
1.39997
1.39998
1.39999
1.39999
1.4
1.4
1.4
1.4
1.4
1.4
1.46104
1.45992
1.45586
1.44931
1.44082
1.43098
1.42036
1.40944
1.3986
1.38813
1.37818
1.36887
1.36022
1.35225
1.345
1.3385
1.33282
1.32804
1.32424
1.32152
1.31994
1.31955
1.32036
1.32234
1.32547
1.32968
1.33496
1.34129
1.3487
1.35722
1.36689
1.37767
1.38947
1.40207
1.41511
1.42798
1.4399
1.44995
1.45723
1.46111
1.46141
1.45844
1.45293
1.44583
1.43809
1.4305
1.42359
1.41766
1.41282
1.40902
1.40615
1.40404
1.40255
1.40153
1.40085
1.40042
1.40016
1.40001
1.39994
1.39991
1.3999
1.39991
1.39993
1.39994
1.39996
1.39997
1.39998
1.39999
1.39999
1.4
1.4
1.4
1.4
1.4
1.4
1.46065
1.45772
1.45192
1.4438
1.434
1.42312
1.41171
1.40021
1.38897
1.37818
1.36796
1.35834
1.34931
1.34088
1.33306
1.32595
1.31963
1.31424
1.30994
1.30687
1.30513
1.30479
1.30585
1.30827
1.31193
1.31673
1.32256
1.32936
1.33713
1.3459
1.35576
1.36673
1.3788
1.39182
1.40549
1.41931
1.43254
1.44424
1.45344
1.45933
1.4615
1.46005
1.45559
1.44904
1.44141
1.43361
1.4263
1.4199
1.41458
1.41036
1.40712
1.40474
1.40303
1.40185
1.40106
1.40055
1.40024
1.40006
1.39996
1.39992
1.39991
1.39991
1.39992
1.39994
1.39995
1.39997
1.39998
1.39998
1.39999
1.39999
1.4
1.4
1.4
1.4
1.4
1.45934
1.45467
1.44728
1.4378
1.42689
1.41515
1.40312
1.39118
1.37961
1.36853
1.35799
1.34794
1.33835
1.32919
1.32052
1.31244
1.30514
1.29883
1.29375
1.29013
1.28814
1.28789
1.28936
1.29247
1.29703
1.30281
1.30959
1.31723
1.32565
1.33488
1.34502
1.3562
1.36846
1.38176
1.3959
1.41046
1.42476
1.4379
1.44885
1.45667
1.46073
1.46093
1.45769
1.45187
1.44452
1.43663
1.42902
1.42219
1.41642
1.41176
1.40817
1.40548
1.40355
1.4022
1.40129
1.4007
1.40033
1.40011
1.39999
1.39993
1.39991
1.39991
1.39992
1.39994
1.39995
1.39996
1.39997
1.39998
1.39999
1.39999
1.4
1.4
1.4
1.4
1.4
1.45725
1.45097
1.44216
1.4315
1.41967
1.40725
1.39473
1.38244
1.37057
1.35918
1.3482
1.33753
1.32708
1.31685
1.30689
1.29738
1.28861
1.28091
1.27466
1.27022
1.26786
1.26772
1.2698
1.27394
1.27984
1.28714
1.29544
1.30444
1.31396
1.32399
1.33465
1.34612
1.35856
1.37206
1.38652
1.40162
1.41678
1.43114
1.44365
1.45327
1.45919
1.46108
1.45919
1.45427
1.44736
1.43953
1.43169
1.42449
1.41829
1.41323
1.40926
1.40628
1.40411
1.40258
1.40154
1.40086
1.40043
1.40017
1.40003
1.39995
1.39992
1.39992
1.39993
1.39994
1.39995
1.39996
1.39997
1.39998
1.39999
1.39999
1.4
1.4
1.4
1.4
1.4
1.45455
1.44681
1.43675
1.42509
1.4125
1.39954
1.38663
1.37404
1.36187
1.35006
1.33846
1.32689
1.31522
1.30341
1.29159
1.28002
1.26913
1.25945
1.25154
1.24595
1.24305
1.24306
1.24597
1.25156
1.25937
1.26885
1.27937
1.29042
1.30166
1.31298
1.3245
1.33647
1.34918
1.36284
1.3775
1.39298
1.40879
1.42415
1.43802
1.44929
1.45699
1.46058
1.46012
1.45623
1.44989
1.44224
1.43428
1.42677
1.42019
1.41472
1.4104
1.40711
1.4047
1.40298
1.40181
1.40103
1.40054
1.40024
1.40007
1.39998
1.39994
1.39992
1.39993
1.39994
1.39995
1.39996
1.39997
1.39998
1.39999
1.39999
1.4
1.4
1.4
1.4
1.4
1.45139
1.44235
1.43121
1.41871
1.4055
1.39211
1.37889
1.36602
1.35347
1.3411
1.32863
1.31579
1.30239
1.28839
1.27398
1.25956
1.24578
1.23341
1.22329
1.21615
1.21256
1.21277
1.21679
1.22429
1.23465
1.24707
1.26064
1.27456
1.28827
1.30151
1.31437
1.32715
1.34029
1.35415
1.36895
1.38467
1.40095
1.4171
1.43213
1.44487
1.45423
1.45949
1.46051
1.45773
1.45209
1.44473
1.43675
1.429
1.42207
1.41623
1.41156
1.40797
1.40531
1.40341
1.4021
1.40122
1.40066
1.40032
1.40011
1.4
1.39995
1.39993
1.39993
1.39994
1.39995
1.39996
1.39997
1.39998
1.39999
1.39999
1.4
1.4
1.4
1.4
1.4
1.44791
1.43773
1.42567
1.41247
1.39877
1.38503
1.37154
1.35835
1.34533
1.33219
1.31853
1.30396
1.28823
1.27129
1.25342
1.23525
1.21769
1.20189
1.18898
1.17996
1.17551
1.176
1.1814
1.1913
1.20489
1.22106
1.23858
1.25629
1.27332
1.28923
1.30402
1.31804
1.33185
1.34601
1.36095
1.37681
1.39341
1.41016
1.42614
1.44016
1.45104
1.45791
1.4604
1.4588
1.45395
1.44699
1.43906
1.43115
1.42392
1.41774
1.41273
1.40884
1.40594
1.40385
1.4024
1.40143
1.40079
1.4004
1.40016
1.40003
1.39997
1.39994
1.39994
1.39994
1.39995
1.39996
1.39997
1.39998
1.39999
1.39999
1.4
1.4
1.4
1.4
1.4
1.44426
1.43308
1.42023
1.40646
1.39236
1.37835
1.36458
1.35101
1.33737
1.32322
1.30799
1.29118
1.27241
1.25168
1.2294
1.2065
1.1843
1.16434
1.14814
1.1369
1.13147
1.13229
1.13935
1.15213
1.16961
1.19036
1.21273
1.23516
1.25643
1.27582
1.29321
1.30897
1.32378
1.33842
1.35353
1.36948
1.38627
1.40345
1.42018
1.4353
1.44756
1.45592
1.45985
1.45946
1.45547
1.44898
1.44121
1.4332
1.42572
1.41922
1.41389
1.40972
1.40658
1.40431
1.40271
1.40163
1.40093
1.40049
1.40022
1.40007
1.39999
1.39995
1.39994
1.39995
1.39995
1.39996
1.39997
1.39998
1.39999
1.39999
1.4
1.4
1.4
1.4
1.4
1.44055
1.42851
1.415
1.40076
1.38634
1.37207
1.35802
1.34398
1.32954
1.31409
1.29689
1.27725
1.2547
1.22928
1.20164
1.17308
1.14544
1.12073
1.10079
1.08707
1.08054
1.08172
1.09065
1.10674
1.12873
1.15482
1.18289
1.21094
1.23733
1.26104
1.28174
1.2998
1.31599
1.33133
1.3467
1.36273
1.37961
1.39708
1.41439
1.43043
1.44389
1.45364
1.45894
1.45975
1.45666
1.45072
1.44316
1.43511
1.42743
1.42066
1.41503
1.41059
1.40722
1.40476
1.40303
1.40185
1.40107
1.40058
1.40028
1.4001
1.40001
1.39997
1.39995
1.39995
1.39996
1.39997
1.39997
1.39998
1.39999
1.39999
1.4
1.4
1.4
1.4
1.4
1.43687
1.4241
1.41004
1.3954
1.38072
1.36622
1.35184
1.33722
1.32178
1.30474
1.28515
1.2621
1.23504
1.20408
1.1702
1.1352
1.1015
1.07157
1.04759
1.03117
1.02341
1.02494
1.03587
1.05558
1.0826
1.11469
1.14923
1.18368
1.21597
1.24475
1.26946
1.29039
1.3084
1.3247
1.34046
1.35658
1.3735
1.39113
1.40886
1.42564
1.44016
1.45115
1.45775
1.45973
1.45755
1.4522
1.44491
1.43688
1.42905
1.42203
1.41614
1.41144
1.40785
1.40522
1.40335
1.40207
1.40122
1.40067
1.40034
1.40014
1.40004
1.39998
1.39996
1.39996
1.39996
1.39997
1.39998
1.39998
1.39999
1.39999
1.4
1.4
1.4
1.4
1.4
1.43331
1.41991
1.4054
1.39044
1.37552
1.3608
1.34603
1.33071
1.31408
1.29517
1.27278
1.2458
1.21359
1.17638
1.13556
1.09357
1.0534
1.01801
0.989803
0.970538
0.961412
0.963202
0.976151
0.999668
1.03206
1.07067
1.11226
1.15374
1.19256
1.22702
1.25634
1.28067
1.30093
1.31848
1.33479
1.35104
1.36796
1.38566
1.40368
1.42105
1.43645
1.44855
1.45635
1.45945
1.45817
1.45343
1.44645
1.43849
1.43055
1.42333
1.4172
1.41226
1.40847
1.40566
1.40366
1.40228
1.40136
1.40077
1.4004
1.40019
1.40006
1.4
1.39997
1.39996
1.39997
1.39997
1.39998
1.39998
1.39999
1.39999
1.4
1.4
1.4
1.4
1.4
1.42994
1.41602
1.40112
1.38589
1.37076
1.3558
1.3406
1.32445
1.30645
1.28542
1.25992
1.22861
1.19076
1.14681
1.09865
1.04938
1.00261
0.9617
0.929251
0.907087
0.896513
0.89846
0.913339
0.940623
0.978481
1.02383
1.07285
1.12177
1.16755
1.20812
1.24248
1.27064
1.29352
1.31262
1.32965
1.34612
1.36302
1.38071
1.39892
1.41673
1.43287
1.44594
1.45481
1.45896
1.45855
1.45443
1.4478
1.43993
1.43193