/*--------------------------------*- C++ -*----------------------------------*\
  =========                 |
  \\      /  F ield         | OpenFOAM: The Open Source CFD Toolbox
   \\    /   O peration     | Website:  https://openfoam.org
    \\  /    A nd           | Version:  6
     \\/     M anipulation  |
\*---------------------------------------------------------------------------*/
FoamFile
{
    version     2.0;
    format      ascii;
    class       volVectorField;
    location    "2.1";
    object      U;
}
// * * * * * * * * * * * * * * * * * * * * * * * * * * * * * * * * * * * * * //

dimensions      [0 1 -1 0 0 0 0];

internalField   nonuniform List<vector> 
4214
(
(4.92913 -0.0533639 0)
(5.01074 -0.00443743 0)
(5.02393 0.0375843 -3.64245e-22)
(5.02705 0.0723885 2.70488e-20)
(5.03658 0.10529 -2.71669e-20)
(5.05241 0.137397 0)
(5.06923 0.168102 -4.81489e-21)
(5.08058 0.197056 9.87529e-21)
(5.08344 0.224292 -4.3299e-21)
(5.0772 0.249579 0)
(5.06219 0.272343 -7.92417e-22)
(5.03956 0.291581 0)
(5.01123 0.305895 0)
(4.98053 0.314795 -2.37076e-22)
(4.95314 0.320316 0)
(4.9356 0.327577 1.00525e-21)
(4.93089 0.343753 0)
(4.93197 0.366838 5.81558e-22)
(4.91528 0.382918 -5.98677e-22)
(4.88357 0.356451 0)
(4.89855 0.234172 0)
(4.95231 0.0715362 6.88598e-22)
(5.0576 -0.0465318 -4.62209e-21)
(5.09852 -0.110023 5.25247e-22)
(5.05199 -0.139337 0)
(5.00454 -0.160698 0)
(4.98735 -0.179912 0)
(4.99099 -0.195307 0)
(5.00226 -0.205206 1.27242e-23)
(5.0145 -0.208213 -1.26572e-23)
(5.02608 -0.204412 5.29805e-22)
(5.03558 -0.195237 -5.20224e-22)
(5.03988 -0.181693 -1.29693e-21)
(5.0363 -0.164372 0)
(5.02392 -0.143591 0)
(5.00561 -0.118794 0)
(4.99033 -0.0900564 0)
(4.98343 -0.05842 3.52765e-20)
(4.98378 -0.0236859 -3.34595e-20)
(4.97194 0.0176162 -7.08705e-21)
(4.89448 0.0649394 -7.55107e-20)
(5.09694 -0.00739133 1.40823e-19)
(5.09276 0.0385701 -5.25224e-20)
(5.08522 0.0747374 3.76849e-22)
(5.08332 0.103643 0)
(5.0919 0.133213 0)
(5.10564 0.164028 -3.09032e-21)
(5.11775 0.194178 -7.72303e-21)
(5.12387 0.222742 7.03679e-21)
(5.12189 0.249772 1.48103e-21)
(5.11105 0.275349 6.27809e-21)
(5.09117 0.299136 1.494e-21)
(5.06253 0.319979 -7.04118e-22)
(5.02728 0.3363 -2.75617e-23)
(4.99054 0.346855 2.66612e-22)
(4.96201 0.352221 0)
(4.95073 0.359113 3.33662e-21)
(4.95636 0.377103 0)
(4.95793 0.407137 8.39197e-21)
(4.91458 0.437976 0)
(4.80761 0.428574 1.2786e-20)
(4.74704 0.312343 3.00915e-22)
(4.80565 0.126818 1.39793e-20)
(4.96461 -0.00469462 1.5836e-20)
(5.05043 -0.0818319 3.93332e-21)
(5.02535 -0.124147 0)
(4.98338 -0.154969 0)
(4.96974 -0.180312 0)
(4.9781 -0.200181 0)
(4.99535 -0.21315 4.42349e-23)
(5.0139 -0.218602 -4.42147e-23)
(5.03119 -0.217002 0)
(5.04579 -0.210064 0)
(5.05506 -0.199002 6.39389e-21)
(5.05754 -0.184307 -9.5195e-21)
(5.05234 -0.166071 9.24203e-21)
(5.04181 -0.143782 7.37325e-21)
(5.03127 -0.118162 -2.58499e-20)
(5.02803 -0.0918297 2.47292e-20)
(5.03449 -0.0646537 -2.04028e-20)
(5.04577 -0.0295846 -1.20096e-20)
(5.0512 0.0125141 -8.20185e-20)
(5.12299 0.0188275 8.9023e-20)
(5.1095 0.0519966 -1.82544e-19)
(5.10622 0.0870963 1.72555e-19)
(5.11018 0.118722 -4.62382e-20)
(5.11992 0.149455 -6.65449e-20)
(5.13188 0.180255 6.36646e-21)
(5.14167 0.210295 3.08744e-20)
(5.14577 0.238983 1.19708e-20)
(5.1421 0.266322 -1.64217e-20)
(5.12969 0.292283 -3.49619e-21)
(5.10795 0.316467 0)
(5.07678 0.337904 5.10988e-22)
(5.03811 0.355431 -5.20274e-22)
(4.9977 0.367488 1.45859e-22)
(4.967 0.374076 7.56913e-21)
(4.9595 0.381333 -3.81679e-21)
(4.97186 0.39844 1.81326e-20)
(4.97803 0.426493 -8.39389e-21)
(4.92748 0.457293 0)
(4.78208 0.454841 6.1814e-21)
(4.66906 0.341447 -2.65354e-22)
(4.72495 0.148936 -3.46487e-20)
(4.91138 0.0144515 -1.14887e-20)
(5.01814 -0.0677464 -4.21854e-21)
(5.00392 -0.117681 -1.27599e-20)
(4.96767 -0.154616 0)
(4.95787 -0.183854 1.56301e-21)
(4.96976 -0.205851 0)
(4.99044 -0.219816 0)
(5.01213 -0.22573 0)
(5.03197 -0.224449 2.07685e-21)
(5.04865 -0.217727 0)
(5.06017 -0.207098 -5.18208e-21)
(5.0646 -0.193197 0)
(5.06172 -0.175822 -1.89656e-20)
(5.05415 -0.1546 1.07328e-20)
(5.04668 -0.130251 2.55213e-20)
(5.04384 -0.104431 -2.83528e-20)
(5.04731 -0.0764598 -8.29968e-20)
(5.05569 -0.0435162 9.20701e-20)
(5.07406 -0.0122472 9.61837e-21)
(5.1564 0.0403344 -8.62184e-21)
(5.1464 0.0710446 -1.13984e-19)
(5.14615 0.106636 1.16405e-19)
(5.15086 0.139156 5.19067e-20)
(5.15927 0.169943 -7.10946e-20)
(5.16868 0.20068 0)
(5.17539 0.231066 1.92255e-20)
(5.17637 0.260506 -1.92939e-20)
(5.16971 0.288778 0)
(5.15435 0.315586 -2.0007e-20)
(5.12949 0.340334 1.62542e-20)
(5.09478 0.362235 0)
(5.05199 0.380542 0)
(5.00733 0.393913 4.06463e-21)
(4.97371 0.402845 -7.15641e-21)
(4.97091 0.412234 -1.03941e-21)
(4.99056 0.429925 -1.83168e-20)
(5.00005 0.45656 0)
(4.93874 0.486661 1.55712e-22)
(4.74549 0.481514 -1.91063e-20)
(4.56684 0.372004 9.07396e-23)
(4.61883 0.169929 2.06171e-20)
(4.84154 0.0318119 -2.44611e-20)
(4.97587 -0.0555782 0)
(4.97576 -0.113283 1.1997e-20)
(4.94609 -0.156806 5.53651e-21)
(4.94107 -0.19076 -9.93651e-22)
(4.95788 -0.215506 0)
(4.98367 -0.230911 0)
(5.01011 -0.237633 -1.29154e-21)
(5.03406 -0.236991 -2.09418e-21)
(5.05416 -0.230777 -8.25422e-21)
(5.06885 -0.22067 0)
(5.07692 -0.207435 -2.39333e-20)
(5.07832 -0.19084 2.35575e-20)
(5.07532 -0.170704 3.19152e-20)
(5.07182 -0.147903 -6.1917e-20)
(5.07116 -0.123341 -4.15623e-20)
(5.07401 -0.095332 6.89695e-20)
(5.08102 -0.0628982 3.097e-20)
(5.09944 -0.0358166 -3.13452e-20)
(5.19146 0.0602778 8.91596e-21)
(5.18442 0.0906168 2.06143e-20)
(5.18531 0.126008 0)
(5.19018 0.158574 -6.76699e-20)
(5.19752 0.189568 1.43469e-19)
(5.20478 0.220929 -9.44884e-20)
(5.20882 0.252358 -2.54793e-20)
(5.20703 0.283205 -2.38316e-20)
(5.19759 0.313098 2.24376e-20)
(5.17925 0.341469 2.67486e-20)
(5.15117 0.367406 -3.51651e-21)
(5.11306 0.390161 0)
(5.06686 0.409269 0)
(5.0189 0.424452 -7.45955e-21)
(4.98601 0.436751 8.73498e-22)
(4.98423 0.449466 -3.31699e-21)
(5.00974 0.468081 1.45132e-21)
(5.02094 0.491769 4.11173e-20)
(4.94899 0.516466 -5.25941e-22)
(4.7112 0.503162 -8.17493e-22)
(4.46767 0.390458 0)
(4.51486 0.18136 9.02723e-22)
(4.77226 0.0425878 2.35027e-20)
(4.93016 -0.047678 0)
(4.94368 -0.112628 0)
(4.92152 -0.162852 -3.22431e-21)
(4.92247 -0.201349 -2.89372e-21)
(4.94494 -0.228502 -1.44632e-21)
(4.97609 -0.244844 1.46392e-21)
(5.00717 -0.251859 1.29394e-21)
(5.035 -0.251403 -7.11975e-21)
(5.05828 -0.245327 8.32983e-21)
(5.07592 -0.235285 2.69872e-20)
(5.08702 -0.222132 -3.2257e-20)
(5.09191 -0.205827 -1.45738e-21)
(5.09272 -0.186389 -6.78302e-20)
(5.09267 -0.164648 3.66047e-20)
(5.09426 -0.141035 9.93086e-20)
(5.09823 -0.113747 -1.03505e-19)
(5.10615 -0.082543 0)
(5.12343 -0.0562938 -1.04988e-19)
(5.23195 0.0802302 2.16697e-19)
(5.22741 0.110225 -2.06597e-19)
(5.22915 0.145399 2.08292e-19)
(5.23361 0.177997 -8.40355e-20)
(5.23937 0.209481 8.33851e-20)
(5.24434 0.241842 3.35607e-20)
(5.24579 0.274757 6.97078e-20)
(5.24126 0.307479 -4.73741e-21)
(5.22882 0.339525 -5.42931e-21)
(5.20702 0.370151 -6.30977e-20)
(5.17508 0.398188 3.84116e-20)
(5.13318 0.422736 0)
(5.08375 0.443515 -9.57567e-21)
(5.03388 0.461478 -3.46869e-21)
(5.00062 0.478029 0)
(5.00153 0.495302 -3.42043e-21)
(5.03025 0.515197 3.4908e-21)
(5.03741 0.535503 -4.00244e-20)
(4.95405 0.550409 6.48603e-20)
(4.66947 0.523022 -7.56275e-20)
(4.36092 0.39778 0)
(4.40647 0.183275 -8.2055e-20)
(4.70041 0.046285 7.04361e-20)
(4.88003 -0.0450993 3.90451e-21)
(4.90672 -0.116487 0)
(4.89278 -0.173458 1.82063e-20)
(4.90089 -0.216433 -6.0819e-21)
(4.9302 -0.245834 1.57959e-21)
(4.96751 -0.262833 7.05956e-22)
(5.00395 -0.269844 -4.41739e-21)
(5.03619 -0.269278 1.29904e-20)
(5.06308 -0.263043 -1.28358e-20)
(5.084 -0.252753 -2.73206e-20)
(5.09851 -0.239257 2.70223e-20)
(5.10716 -0.222764 -1.2858e-20)
(5.11185 -0.203581 4.48576e-20)
(5.1152 -0.182405 4.52274e-20)
(5.11915 -0.159246 -8.80034e-20)
(5.12473 -0.132552 2.27282e-19)
(5.13368 -0.102445 5.03878e-21)
(5.14987 -0.0772096 2.69918e-19)
(5.27694 0.0995595 0)
(5.27352 0.129387 5.96871e-20)
(5.27544 0.164286 -1.34574e-19)
(5.27926 0.197003 1.07649e-19)
(5.28361 0.229243 0)
(5.28657 0.262895 0)
(5.28563 0.297564 7.50195e-21)
(5.27845 0.332416 0)
(5.26299 0.366933 3.00784e-20)
(5.23763 0.400375 6.22062e-20)
(5.20166 0.431508 -5.93248e-20)
(5.15596 0.459251 -9.08313e-21)
(5.10379 0.48347 2.52592e-20)
(5.05344 0.505653 7.92291e-21)
(5.02153 0.527598 4.90787e-21)
(5.0237 0.550712 -6.71427e-20)
(5.05166 0.572094 2.4682e-21)
(5.0502 0.588135 -1.0992e-19)
(4.9492 0.587106 -6.3293e-20)
(4.61563 0.538028 -2.70099e-19)
(4.24604 0.390845 0)
(4.29642 0.173868 -1.51003e-20)
(4.62816 0.0424274 -7.43841e-20)
(4.82742 -0.0490254 0)
(4.86476 -0.126221 -1.14415e-20)
(4.85994 -0.189537 1.60374e-21)
(4.8765 -0.236558 -7.12082e-21)
(4.91372 -0.26769 1.63295e-21)
(4.95778 -0.284968 -1.5999e-22)
(5.0001 -0.291655 5.0967e-22)
(5.03707 -0.290555 0)
(5.06777 -0.283716 -1.91642e-20)
(5.09207 -0.272756 -9.30602e-22)
(5.11 -0.258531 0)
(5.12236 -0.241492 4.56414e-20)
(5.13086 -0.222184 -1.10293e-19)
(5.13755 -0.20116 3.06313e-19)
(5.14416 -0.178159 1.40956e-20)
(5.152 -0.151823 5.85869e-21)
(5.16243 -0.122386 -1.41049e-19)
(5.17863 -0.0977139 4.91746e-19)
(5.32559 0.117952 0)
(5.32272 0.147556 -1.31409e-19)
(5.32471 0.182151 5.86996e-20)
(5.328 0.2153 -1.27492e-19)
(5.33103 0.248543 0)
(5.33203 0.283582 0)
(5.32872 0.320043 -4.65137e-20)
(5.3189 0.35711 0)
(5.30049 0.394321 -9.00414e-20)
(5.27173 0.43108 1.42239e-20)
(5.23201 0.466291 1.12245e-19)
(5.18292 0.498846 0)
(5.12886 0.528613 -1.57728e-20)
(5.07914 0.557033 0)
(5.04939 0.586191 -5.31249e-21)
(5.05194 0.616273 1.19182e-19)
(5.07381 0.639725 9.39029e-20)
(5.05902 0.649083 1.16695e-19)
(4.92628 0.624025 -5.29669e-21)
(4.54257 0.540132 3.55089e-19)
(4.12018 0.367147 -6.25673e-21)
(4.18391 0.151496 1.0121e-19)
(4.55519 0.030081 0)
(4.7707 -0.0610536 1.01393e-19)
(4.81766 -0.143604 -3.08787e-20)
(4.82274 -0.212472 4.69621e-20)
(4.84917 -0.262713 -1.73428e-20)
(4.8954 -0.294806 3.73505e-21)
(4.94716 -0.31186 2.77326e-21)
(4.99602 -0.317866 -5.24639e-21)
(5.03823 -0.315783 0)
(5.07321 -0.307864 0)
(5.10121 -0.295739 -5.98786e-22)
(5.12277 -0.280343 -7.60662e-21)
(5.13886 -0.262352 5.44522e-20)
(5.15098 -0.242454 -1.37992e-19)
(5.16085 -0.221125 2.31268e-21)
(5.1702 -0.198005 0)
(5.18044 -0.171773 1.77998e-19)
(5.19257 -0.142718 0)
(5.20951 -0.118337 2.24614e-19)
(5.37739 0.134926 3.43196e-19)
(5.37485 0.16427 1.53821e-19)
(5.37674 0.198532 7.18371e-20)
(5.37942 0.232201 -7.85836e-20)
(5.38113 0.266426 1.33823e-19)
(5.38017 0.302742 -1.32738e-19)
(5.37455 0.340921 1.16126e-19)
(5.36225 0.380277 5.12913e-21)
(5.34123 0.420467 4.50487e-20)
(5.30963 0.461118 -3.2e-20)
(5.26701 0.501427 1.54565e-20)
(5.21555 0.54043 0)
(5.16078 0.577881 -3.12789e-20)
(5.11268 0.614871 2.97855e-21)
(5.08554 0.653478 0)
(5.08689 0.691565 -5.97592e-20)
(5.09536 0.717494 -2.00086e-19)
(5.05823 0.71555 0)
(4.87792 0.657042 0)
(4.44381 0.528389 0)
(3.98181 0.323887 -3.6877e-21)
(4.07735 0.114559 -1.25816e-19)
(4.48244 0.00672841 1.23443e-20)
(4.7102 -0.0836968 -1.92766e-19)
(4.76528 -0.171084 -1.50892e-20)
(4.78136 -0.244164 -2.98457e-20)
(4.81908 -0.296106 2.91397e-20)
(4.87518 -0.32805 3.43056e-23)
(4.93565 -0.344225 -7.59067e-21)
(4.99171 -0.349004 -4.38904e-21)
(5.03972 -0.345399 -1.48064e-20)
(5.0794 -0.335852 1.84647e-21)
(5.11146 -0.322036 -1.43594e-19)
(5.13683 -0.305024 5.40209e-20)
(5.15668 -0.285661 0)
(5.17234 -0.264699 0)
(5.18537 -0.242599 0)
(5.19757 -0.219008 0)
(5.21028 -0.192559 -1.89407e-19)
(5.22429 -0.163525 -1.92753e-19)
(5.24231 -0.139084 -2.18243e-19)
(5.43151 0.14973 3.6535e-19)
(5.42913 0.178621 -1.80011e-19)
(5.43074 0.212342 -3.52119e-19)
(5.43271 0.246308 8.00375e-20)
(5.43308 0.281331 1.5712e-19)
(5.43027 0.318785 7.45797e-21)
(5.42259 0.358655 -1.38258e-19)
(5.40825 0.400478 1.47754e-20)
(5.38528 0.444095 5.67093e-20)
(5.35185 0.489375 -5.68782e-20)
(5.30766 0.53589 -8.02346e-20)
(5.25541 0.582898 -7.71515e-20)
(5.2014 0.630085 4.91807e-20)
(5.15614 0.678052 -2.41803e-21)
(5.1314 0.728098 0)
(5.12804 0.775035 -8.68156e-20)
(5.11252 0.802614 1.28724e-19)
(5.03802 0.78231 -1.70059e-19)
(4.79683 0.681288 1.3823e-20)
(4.31226 0.499205 -2.74602e-19)
(3.82996 0.259049 4.0121e-21)
(3.974 0.0622112 1.14414e-19)
(4.41048 -0.0306405 -1.16222e-20)
(4.64538 -0.120868 1.47358e-19)
(4.70769 -0.212322 -5.666e-20)
(4.73643 -0.287383 3.42689e-20)
(4.78666 -0.33861 0)
(4.85355 -0.368769 -1.63238e-21)
(4.92348 -0.383073 3.70329e-21)
(4.9874 -0.385777 -1.98817e-21)
(5.04192 -0.379983 -2.36391e-20)
(5.08692 -0.368203 3.17622e-20)
(5.12342 -0.352133 6.08268e-20)
(5.15278 -0.333007 7.13979e-20)
(5.17637 -0.311805 1.61573e-19)
(5.1955 -0.289289 3.56033e-19)
(5.21177 -0.265947 -1.80047e-19)
(5.22694 -0.241504 -1.93947e-19)
(5.24215 -0.214571 -2.47157e-20)
(5.25801 -0.18525 0)
(5.27712 -0.16022 2.19647e-19)
(5.48609 0.160784 -3.07928e-19)
(5.48389 0.188885 5.1033e-19)
(5.48517 0.221737 0)
(5.48645 0.25574 1.59954e-20)
(5.48565 0.291426 7.57421e-21)
(5.48136 0.330005 3.21078e-20)
(5.47223 0.3717 -8.52729e-21)
(5.4567 0.416333 -1.70631e-19)
(5.43287 0.463982 0)
(5.39902 0.514751 0)
(5.35503 0.5686 1.73286e-19)
(5.30399 0.625024 1.28565e-19)
(5.25265 0.683778 0)
(5.21152 0.744777 -1.85379e-20)
(5.18831 0.807988 1.01345e-20)
(5.17395 0.86443 -6.32115e-21)
(5.12839 0.890391 3.72312e-20)
(4.98742 0.842426 1.34664e-19)
(4.67582 0.690825 2.34138e-19)
(4.14128 0.447355 -1.52386e-20)
(3.66532 0.171578 0)
(3.87483 -0.00462174 0)
(4.33841 -0.085075 0)
(4.57529 -0.177699 -1.20353e-19)
(4.64541 -0.272097 0)
(4.68888 -0.345682 7.25718e-21)
(4.75268 -0.392827 2.54108e-20)
(4.83128 -0.418898 0)
(4.91147 -0.429814 1.30443e-20)
(4.984 -0.429356 3.91956e-20)
(5.04548 -0.420433 -3.02473e-20)
(5.09609 -0.405517 -8.14983e-21)
(5.13734 -0.38648 -1.29655e-19)
(5.17091 -0.364729 9.08233e-20)
(5.19831 -0.341253 -5.1941e-19)
(5.221 -0.316747 -1.97541e-19)
(5.24066 -0.291695 -2.03668e-20)
(5.25892 -0.265905 -2.17333e-20)
(5.27664 -0.238067 4.6543e-19)
(5.29432 -0.208156 -2.41019e-19)
(5.31451 -0.182203 0)
(5.53822 0.165465 3.65581e-19)
(5.53691 0.192691 -9.40994e-19)
(5.53835 0.224677 1.16516e-18)
(5.53926 0.258667 -6.65401e-19)
(5.53781 0.295093 -2.29577e-19)
(5.53284 0.335025 -6.17044e-19)
(5.52329 0.37888 3.85996e-19)
(5.5078 0.426809 -2.72899e-20)
(5.48451 0.479122 1.88383e-19)
(5.45195 0.536223 -1.72619e-19)
(5.41012 0.598393 -6.29766e-20)
(5.36264 0.665483 -8.62704e-20)
(5.31603 0.73735 4.98995e-20)
(5.28029 0.812876 -5.79717e-20)
(5.25636 0.890836 0)
(5.22286 0.955324 6.30985e-20)
(5.12577 0.974618 0)
(4.90102 0.890368 1.72595e-19)
(4.50676 0.678587 -2.24884e-19)
(3.92605 0.367693 -4.33648e-20)
(3.49225 0.0630987 1.04689e-20)
(3.78317 -0.0850787 0)
(4.26268 -0.161933 1.64474e-19)
(4.49775 -0.260576 1.21459e-19)
(4.57942 -0.355782 -4.0773e-20)
(4.64007 -0.423186 -1.81117e-20)
(4.7187 -0.462205 2.69199e-20)
(4.81001 -0.481341 2.00975e-22)
(4.90061 -0.486504 -2.70141e-21)
(4.98162 -0.480879 -6.49064e-20)
(5.0503 -0.46733 -1.61549e-20)
(5.10705 -0.448306 1.74959e-19)
(5.15352 -0.425628 6.86231e-20)
(5.19156 -0.400695 -3.39257e-19)
(5.22293 -0.374442 3.58725e-19)
(5.24931 -0.347464 2.00879e-19)
(5.2725 -0.320206 2.18041e-19)
(5.29398 -0.292567 2.32439e-19)
(5.31432 -0.263398 0)
(5.33392 -0.232595 -5.50588e-19)
(5.35532 -0.205494 5.50677e-19)
(5.58608 0.160922 -2.08955e-20)
(5.58688 0.187799 -5.35591e-19)
(5.58938 0.219557 2.72747e-19)
(5.59059 0.253996 -5.15469e-19)
(5.58928 0.291502 2.33726e-19)
(5.58474 0.333248 2.24901e-19)
(5.57606 0.379721 0)
(5.56204 0.431475 2.0515e-19)
(5.54078 0.488885 6.56089e-21)
(5.51138 0.553029 4.08648e-21)
(5.47371 0.624209 3.70589e-19)
(5.43243 0.70329 -1.31285e-19)
(5.39197 0.789618 0)
(5.36212 0.880955 8.2049e-20)
(5.33165 0.973794 9.55868e-21)
(5.26717 1.04231 4.17337e-20)
(5.0965 1.04741 -1.60573e-19)
(4.76786 0.917984 -1.9497e-19)
(4.28223 0.63775 3.22319e-20)
(3.66792 0.257004 -4.29306e-20)
(3.32008 -0.0629585 2.42579e-20)
(3.69538 -0.180967 -4.27829e-19)
(4.17755 -0.269118 -1.27443e-19)
(4.4116 -0.376894 1.06371e-19)
(4.51024 -0.468798 6.40853e-20)
(4.59218 -0.524342 4.42438e-20)
(4.68845 -0.550973 -1.57752e-20)
(4.79323 -0.559268 2.65683e-20)
(4.89365 -0.554861 -1.4366e-20)
(4.98271 -0.541367 4.05996e-20)
(5.05853 -0.521479 -1.25116e-19)
(5.12157 -0.497105 2.91133e-19)
(5.17343 -0.469844 -1.54492e-19)
(5.21607 -0.44099 -2.02955e-19)
(5.25148 -0.411341 2.02557e-19)
(5.28161 -0.381363 -2.18456e-19)
(5.30835 -0.351439 -2.60131e-19)
(5.33305 -0.321542 -2.52475e-20)
(5.35608 -0.290711 0)
(5.37778 -0.258793 6.00508e-19)
(5.40055 -0.230376 -1.24831e-18)
(5.63155 0.146283 0)
(5.63492 0.173851 -3.16058e-19)
(5.63881 0.206337 5.90885e-19)
(5.64098 0.241976 -5.84924e-19)
(5.64058 0.281047 3.00854e-19)
(5.63764 0.32518 0)
(5.63105 0.374574 -2.85445e-19)
(5.61992 0.430544 0)
(5.60219 0.493013 0)
(5.57815 0.564791 -1.82398e-19)
(5.54698 0.645396 -1.68809e-19)
(5.51504 0.738497 1.98351e-19)
(5.48049 0.840435 6.30514e-20)
(5.456 0.949025 -2.68037e-20)
(5.40719 1.05376 -7.35853e-20)
(5.29477 1.11969 -3.99292e-20)
(5.02385 1.09584 2.25077e-19)
(4.57419 0.915779 -6.78788e-20)
(4.00024 0.56407 -3.22021e-19)
(3.37287 0.117959 2.44609e-20)
(3.15653 -0.202861 6.39853e-22)
(3.60201 -0.300563 4.59992e-19)
(4.07315 -0.417131 2.34874e-19)
(4.31428 -0.533803 -2.34566e-19)
(4.43861 -0.616011 -1.65656e-19)
(4.54986 -0.654404 -5.47179e-20)
(4.66593 -0.663681 4.53677e-20)
(4.78256 -0.655795 -1.47428e-22)
(4.89067 -0.637471 -2.25323e-20)
(4.98722 -0.613006 2.59428e-20)
(5.07011 -0.584477 7.26982e-20)
(5.13953 -0.553094 1.40402e-20)
(5.19687 -0.520055 0)
(5.24421 -0.486342 0)
(5.28372 -0.452534 -2.49615e-19)
(5.31765 -0.41893 2.48587e-19)
(5.34796 -0.385851 -5.73054e-19)
(5.37591 -0.353323 8.49959e-19)
(5.40178 -0.320574 0)
(5.42586 -0.287402 0)
(5.45035 -0.257598 1.04898e-18)
(5.67851 0.124328 6.90255e-19)
(5.68358 0.153682 -4.25678e-21)
(5.68822 0.187205 -3.53572e-19)
(5.69179 0.22455 -6.56897e-19)
(5.69297 0.265455 3.45613e-19)
(5.69257 0.312178 0)
(5.68885 0.364294 2.91626e-19)
(5.68181 0.424267 -3.21539e-19)
(5.66944 0.49143 0)
(5.65388 0.571016 -2.55863e-19)
(5.63295 0.66179 2.4632e-19)
(5.61437 0.771323 -2.48249e-19)
(5.58498 0.888765 0)
(5.56461 1.01544 0)
(5.47844 1.12352 0)
(5.3002 1.1794 2.39572e-20)
(4.89718 1.12847 -1.45313e-19)
(4.30783 0.875733 -1.21257e-19)
(3.65345 0.461115 6.3696e-19)
(3.03617 -0.0357873 4.86484e-19)
(2.98973 -0.353921 -1.50269e-20)
(3.48176 -0.46215 5.08193e-19)
(3.94035 -0.617424 -2.97849e-19)
(4.20749 -0.737477 9.43931e-20)
(4.37235 -0.802387 -9.09465e-20)
(4.52008 -0.817403 1.26537e-19)
(4.65646 -0.800223 0)
(4.78564 -0.769559 -2.21974e-21)
(4.90082 -0.732989 -6.72849e-21)
(5.00355 -0.694442 1.13135e-19)
(5.09147 -0.654807 -2.99675e-19)
(5.1663 -0.614546 -3.00504e-19)
(5.22829 -0.574399 -3.52472e-20)
(5.28007 -0.534765 0)
(5.32335 -0.496017 -2.91892e-19)
(5.36088 -0.458166 -6.00692e-19)
(5.39439 -0.421508 9.25426e-19)
(5.4252 -0.38604 -3.45583e-19)
(5.45355 -0.351143 0)
(5.47989 -0.316497 1.08363e-18)
(5.50602 -0.285057 -1.04983e-18)
(5.72842 0.101485 -1.18812e-18)
(5.73468 0.13209 2.41254e-21)
(5.73983 0.165866 -3.95991e-19)
(5.74505 0.20422 7.5052e-19)
(5.74845 0.246844 -3.41621e-19)
(5.75095 0.294859 1.1215e-18)
(5.75081 0.350178 7.10324e-19)
(5.74838 0.411795 -7.56464e-19)
(5.74431 0.485352 -3.36033e-19)
(5.74072 0.569822 6.63416e-19)
(5.73546 0.674407 -3.27968e-19)
(5.73414 0.79678 0)
(5.71131 0.929451 0)
(5.69021 1.07119 1.11084e-19)
(5.53676 1.16805 1.65282e-19)
(5.28455 1.21576 -4.01686e-20)
(4.71298 1.11963 -5.94724e-20)
(3.96898 0.818714 2.43183e-19)
(3.23101 0.346846 -4.1924e-19)
(2.63933 -0.184841 5.23328e-19)
(2.79109 -0.521576 1.76489e-20)
(3.3126 -0.690142 2.103e-20)
(3.78419 -0.874249 0)
(4.10726 -0.991515 6.89161e-20)
(4.32305 -1.02743 7.36375e-20)
(4.50853 -1.01392 -6.50681e-20)
(4.66211 -0.964764 -4.14817e-20)
(4.79806 -0.907313 2.39e-21)
(4.91858 -0.847228 2.06068e-20)
(5.02614 -0.791223 1.74788e-19)
(5.11807 -0.737715 -4.10513e-19)
(5.19797 -0.686514 9.23624e-20)
(5.26334 -0.637919 2.12761e-19)
(5.3201 -0.590969 2.73923e-19)
(5.36613 -0.546687 6.26073e-19)
(5.40803 -0.503442 -1.02561e-18)
(5.4435 -0.462965 3.44454e-19)
(5.47783 -0.423302 3.38533e-19)
(5.50789 -0.386353 0)
(5.5379 -0.348895 -7.67637e-19)
(5.56504 -0.315986 8.09153e-19)
(5.78281 0.0823727 -4.42877e-19)
(5.78943 0.109288 -4.55577e-19)
(5.79659 0.147229 -8.63206e-19)
(5.80182 0.180074 4.52436e-19)
(5.80864 0.230074 -3.99931e-19)
(5.81256 0.271465 4.50979e-19)
(5.81841 0.337903 0)
(5.81981 0.390293 3.84849e-19)
(5.83043 0.482109 0)
(5.83824 0.556359 3.903e-19)
(5.85358 0.688247 -3.92903e-19)
(5.86725 0.798097 0)
(5.84165 0.96337 4.08258e-19)
(5.80903 1.10411 1.72632e-19)
(5.53569 1.18369 -1.4697e-19)
(5.24289 1.22903 0)
(4.43406 1.06449 7.76944e-20)
(3.59949 0.810629 0)
(2.77662 0.2247 -3.86013e-19)
(2.20449 -0.333721 -4.9572e-20)
(2.57088 -0.726069 0)
(3.10044 -1.00271 -4.92678e-19)
(3.61479 -1.17346 -1.52672e-19)
(4.02844 -1.28056 9.17622e-20)
(4.2916 -1.26976 -4.62346e-20)
(4.52883 -1.22694 -2.344e-20)
(4.70431 -1.14439 9.34657e-22)
(4.85305 -1.05561 2.64209e-20)
(4.97574 -0.969633 0)
(5.07649 -0.891879 2.25375e-19)
(5.17344 -0.821049 -1.11096e-19)
(5.24928 -0.758557 -1.2812e-19)
(5.3225 -0.698132 3.38801e-19)
(5.37667 -0.64509 -1.0729e-18)
(5.43007 -0.590805 3.60114e-19)
(5.46938 -0.544271 1.12085e-18)
(5.5114 -0.494643 -7.63336e-19)
(5.54337 -0.45431 8.30637e-19)
(5.57986 -0.410055 -8.20063e-19)
(5.60663 -0.374719 3.96822e-19)
(5.63895 -0.333988 0)
(5.66374 -0.304786 -1.37021e-18)
(5.59537 -0.287438 2.54604e-20)
(5.53492 -0.262048 2.40126e-20)
(5.47889 -0.237602 -6.99221e-19)
(5.42845 -0.212965 1.07628e-18)
(5.38267 -0.190409 7.17994e-19)
(5.34136 -0.169233 0)
(5.30361 -0.149189 2.84205e-19)
(5.26867 -0.129735 -5.7777e-19)
(5.23609 -0.110473 -4.5542e-19)
(5.20598 -0.0913895 -1.94126e-19)
(5.17887 -0.0720639 -5.38283e-19)
(5.15527 -0.0524165 3.47141e-19)
(5.13468 -0.033745 0)
(5.10811 -0.00435993 -2.32356e-19)
(5.04147 0.0199008 1.23632e-19)
(4.75658 0.0871718 2.65054e-19)
(5.69443 -0.269 2.06458e-18)
(5.62829 -0.263833 0)
(5.57258 -0.242421 -1.33925e-18)
(5.51937 -0.221786 -4.48976e-19)
(5.47089 -0.200033 -4.01119e-19)
(5.42636 -0.179812 -3.49512e-19)
(5.38586 -0.160684 0)
(5.34873 -0.142519 0)
(5.31437 -0.124772 -2.93446e-21)
(5.2824 -0.107187 -2.92609e-19)
(5.25283 -0.0895712 8.31617e-19)
(5.22587 -0.0710781 -2.51859e-19)
(5.20164 -0.053051 -5.76013e-19)
(5.17918 -0.0348066 3.53189e-19)
(5.14884 -0.00910866 4.26179e-19)
(5.07896 -0.00497773 0)
(4.73951 0.070299 -1.71983e-19)
(5.71686 -0.23947 -5.88724e-19)
(5.65844 -0.236001 -1.09273e-18)
(5.60544 -0.220929 5.44673e-19)
(5.55492 -0.203922 9.73245e-19)
(5.50842 -0.184829 0)
(5.46532 -0.166629 0)
(5.42588 -0.149323 -3.66486e-20)
(5.38967 -0.132836 -4.35671e-19)
(5.35621 -0.116717 0)
(5.3252 -0.100883 3.44341e-19)
(5.29664 -0.0847304 -3.13718e-19)
(5.27051 -0.0677551 0)
(5.24652 -0.0518916 2.93825e-19)
(5.22256 -0.0327023 0)
(5.18771 -0.00922808 -3.60478e-19)
(5.10555 -0.0102237 2.00339e-19)
(4.72033 0.0756219 3.19178e-19)
(5.74124 -0.201624 0)
(5.68579 -0.210989 0)
(5.63783 -0.200348 1.21116e-18)
(5.59079 -0.187539 -1.17251e-18)
(5.54688 -0.171348 5.33222e-19)
(5.5057 -0.155135 -5.50487e-19)
(5.46769 -0.139448 4.92138e-19)
(5.43275 -0.124367 4.74174e-19)
(5.40054 -0.109703 -4.82844e-19)
(5.37081 -0.0953717 0)
(5.34342 -0.0804399 4.34872e-19)
(5.31811 -0.0651051 4.02639e-19)
(5.2941 -0.0510646 -3.19881e-19)
(5.26839 -0.0322952 0)
(5.22869 -0.0110428 -1.30597e-19)
(5.13299 -0.0135294 -9.72152e-20)
(4.70525 0.0748874 -5.77464e-19)
(5.75928 -0.166948 -4.01466e-20)
(5.71189 -0.179716 -7.04072e-19)
(5.66804 -0.177272 -1.94918e-18)
(5.62488 -0.169763 1.29632e-18)
(5.58392 -0.157243 6.45561e-19)
(5.54499 -0.143336 0)
(5.50867 -0.129261 0)
(5.47517 -0.115457 -5.53468e-19)
(5.4444 -0.102099 -9.13291e-21)
(5.41616 -0.0890676 0)
(5.39017 -0.0753319 -4.66011e-19)
(5.36584 -0.0616352 -4.33697e-19)
(5.34188 -0.0490209 -4.12801e-19)
(5.31441 -0.0309878 4.05437e-19)
(5.26941 -0.0126008 2.08099e-19)
(5.15914 -0.0146056 1.65346e-19)
(4.69352 0.073344 2.46034e-19)
(5.77604 -0.121516 -3.18236e-20)
(5.7336 -0.147788 -1.53166e-18)
(5.6958 -0.15134 7.62606e-19)
(5.65713 -0.150134 0)
(5.61959 -0.14238 -7.24352e-19)
(5.58332 -0.131627 -7.10546e-19)
(5.54899 -0.119613 -6.95978e-19)
(5.51711 -0.107229 -6.79569e-19)
(5.48784 -0.0950762 1.22808e-18)
(5.46112 -0.0830977 -6.2826e-19)
(5.43653 -0.0703774 1.18347e-18)
(5.41319 -0.058127 -1.15783e-18)
(5.38927 -0.0467094 -5.57329e-19)
(5.35998 -0.0295844 -5.17013e-19)
(5.30958 -0.0139381 -6.32573e-19)
(5.18448 -0.0148107 1.14183e-19)
(4.68719 0.0694588 4.87522e-19)
(5.78705 -0.0781575 1.70954e-18)
(5.75233 -0.106528 -7.98535e-21)
(5.71985 -0.119462 0)
(5.68627 -0.125725 3.95059e-19)
(5.65262 -0.124241 3.69718e-19)
(5.6195 -0.118118 1.1367e-18)
(5.58763 -0.109222 -2.24802e-20)
(5.55767 -0.0989434 1.10083e-18)
(5.53006 -0.0883403 0)
(5.50488 -0.0774313 3.90346e-19)
(5.4817 -0.065636 3.12574e-20)
(5.45934 -0.0546754 6.11047e-19)
(5.43545 -0.0441072 2.74689e-19)
(5.40435 -0.0278625 5.56687e-19)
(5.34871 -0.0148496 -1.36111e-19)
(5.20916 -0.0138447 8.37442e-21)
(4.68825 0.0635825 -3.08901e-19)
(5.79363 -0.0270704 -4.7814e-19)
(5.765 -0.0638738 -9.17869e-19)
(5.73894 -0.0819042 -4.46763e-19)
(5.71096 -0.0951234 1.35874e-18)
(5.68185 -0.100749 8.92587e-19)
(5.65244 -0.100689 0)
(5.62366 -0.0963475 0)
(5.5962 -0.0893898 4.11476e-19)
(5.57065 -0.081175 -4.18544e-19)
(5.54723 -0.071807 -3.81522e-19)
(5.52554 -0.061278 -3.99958e-19)
(5.50427 -0.0515209 3.98071e-19)
(5.4805 -0.0414056 3.8649e-19)
(5.44773 -0.0264429 -1.7279e-19)
(5.38702 -0.0149918 1.71665e-19)
(5.23393 -0.0121001 0)
(4.6977 0.0563019 0)
(5.79581 0.0152567 1.02847e-18)
(5.77266 -0.0150956 0)
(5.75175 -0.0382513 -9.99087e-19)
(5.72944 -0.0570057 -9.68678e-19)
(5.70542 -0.0696018 -9.51637e-19)
(5.68029 -0.0764659 4.97175e-19)
(5.65522 -0.0781937 9.55742e-19)
(5.63106 -0.0761042 0)
(5.6083 -0.0715645 -4.69624e-19)
(5.58723 -0.0648546 4.64016e-19)
(5.56752 -0.0564492 4.57198e-19)
(5.54783 -0.0481828 3.18423e-20)
(5.52483 -0.0387117 -1.05646e-18)
(5.49096 -0.0251994 2.08968e-19)
(5.42534 -0.0151335 -4.16984e-19)
(5.25921 -0.00950559 0)
(4.71463 0.0480846 0)
(5.79177 0.0549666 -2.77954e-18)
(5.77241 0.029454 1.18924e-20)
(5.75611 0.00781659 1.61895e-18)
(5.7392 -0.013243 5.26303e-19)
(5.72052 -0.0306273 -5.22621e-19)
(5.70026 -0.0436341 -4.99567e-19)
(5.67943 -0.0521018 -2.51004e-19)
(5.65916 -0.056255 -2.56812e-19)
(5.64006 -0.0568966 7.55256e-19)
(5.62228 -0.0543639 -2.33277e-19)
(5.60555 -0.0493696 2.62925e-20)
(5.58863 -0.0436108 -4.69725e-19)
(5.56796 -0.0355116 9.52259e-19)
(5.53481 -0.0237143 4.82528e-19)
(5.46527 -0.0156983 4.37791e-19)
(5.28496 -0.00640791 5.18027e-19)
(4.7367 0.0392635 3.90181e-19)
(5.78758 0.0751937 2.38972e-18)
(5.76718 0.0653282 0)
(5.75192 0.0489012 0)
(5.73832 0.0305686 0)
(5.72402 0.0124132 -1.40278e-18)
(5.70846 -0.00387129 2.80751e-19)
(5.69211 -0.017454 5.54569e-19)
(5.67599 -0.0278699 -5.51403e-19)
(5.66101 -0.0348555 -5.34022e-19)
(5.64737 -0.0378846 0)
(5.63481 -0.037889 -1.19719e-18)
(5.62248 -0.0361109 1.33568e-19)
(5.60654 -0.0306455 -5.09012e-19)
(5.57739 -0.0216501 -6.27837e-19)
(5.50729 -0.0159333 2.17586e-21)
(5.31164 -0.0047883 1.61758e-19)
(4.76188 0.0308393 -4.64162e-19)
(5.78401 0.079013 -1.59968e-18)
(5.76066 0.0807848 9.31948e-19)
(5.74283 0.0760259 -3.04894e-19)
(5.72849 0.0654497 3.39058e-21)
(5.71533 0.0510483 1.78422e-18)
(5.70222 0.0360352 -4.42369e-19)
(5.68894 0.0212894 -4.3426e-19)
(5.67621 0.00748626 5.747e-19)
(5.6651 -0.00445444 0)
(5.65616 -0.0137588 -4.3114e-19)
(5.64861 -0.0201909 9.87577e-19)
(5.6424 -0.0233798 7.01486e-20)
(5.63326 -0.0221323 -1.40136e-19)
(5.61092 -0.0177121 6.99456e-20)
(5.54723 -0.0146716 -6.87137e-20)
(5.33853 -0.004757 -4.62005e-19)
(4.78942 0.0217771 0)
(5.78794 0.0679713 0)
(5.7579 0.0814113 -6.63079e-19)
(5.73446 0.083195 6.34924e-19)
(5.71565 0.0817575 1.57317e-19)
(5.6993 0.0761521 -7.80708e-19)
(5.68434 0.0665485 6.06997e-19)
(5.67031 0.0550019 0)
(5.65771 0.0422568 0)
(5.64803 0.029104 0)
(5.64333 0.0165726 8.83529e-19)
(5.64381 0.00527997 -8.78055e-19)
(5.64448 -0.00349606 -2.92705e-19)
(5.64031 -0.00862571 2.91931e-19)
(5.62812 -0.0105159 0)
(5.57568 -0.0106238 2.911e-19)
(5.36004 -0.00375535 2.90167e-19)
(4.81663 0.0129847 0)
(5.80132 0.027685 -6.84044e-19)
(5.76482 0.059507 0)
(5.73365 0.0739069 -1.9767e-20)
(5.70739 0.0817815 6.39729e-19)
(5.68441 0.0831082 6.27855e-19)
(5.66377 0.0798186 -6.32371e-19)
(5.64492 0.0740106 -3.85904e-20)
(5.628 0.0663165 -3.80184e-20)
(5.61433 0.0557752 2.9897e-19)
(5.60617 0.0440353 -2.25679e-19)
(5.60552 0.0317758 3.37487e-21)
(5.6121 0.0198825 2.96132e-19)
(5.62167 0.0096205 -2.94233e-19)
(5.62845 0.00142398 0)
(5.58185 -0.00356255 -3.28255e-19)
(5.37288 -0.001597 -2.35315e-19)
(4.83642 0.00618204 -1.82936e-20)
(5.82191 -0.0140874 1.1657e-18)
(5.78379 0.009519 -8.6811e-20)
(5.74714 0.0311632 -6.87283e-19)
(5.71299 0.0495346 -6.69139e-19)
(5.68152 0.0626425 -6.53001e-19)
(5.65258 0.0703051 0)
(5.62576 0.0730011 0)
(5.60102 0.07054 -4.5026e-19)
(5.57942 0.0661514 -1.5393e-19)
(5.5632 0.0586896 0)
(5.55504 0.0498117 2.9742e-19)
(5.55701 0.0386445 0)
(5.56569 0.0267526 -1.45396e-19)
(5.57202 0.0145745 1.44673e-19)
(5.55823 0.00336881 0)
(5.38027 -0.00208933 3.59965e-20)
(4.84035 7.24014e-05 -3.59811e-20)
(5.84465 -0.0590894 -4.11839e-19)
(5.80977 -0.0380375 -4.30602e-20)
(5.77333 -0.0196889 8.35993e-20)
(5.73601 -0.00131031 0)
(5.69872 0.0156985 -1.58258e-19)
(5.66226 0.0300237 -1.44946e-19)
(5.62696 0.0411931 -3.02461e-19)
(5.59319 0.0488409 8.96323e-19)
(5.56181 0.0528079 -5.75023e-19)
(5.53474 0.0536532 2.87151e-19)
(5.51577 0.049933 -5.58788e-19)
(5.50588 0.0444693 2.80511e-19)
(5.50501 0.0358654 -2.77586e-19)
(5.50262 0.0253857 2.68577e-19)
(5.47449 0.0140242 0)
(5.37702 -0.000618026 6.84452e-20)
(4.82473 -0.00284695 -6.81771e-20)
(5.86114 -0.0699049 -1.73531e-19)
(5.83351 -0.0686668 1.66675e-19)
(5.80272 -0.0577113 3.10313e-19)
(5.76868 -0.045911 -2.99673e-19)
(5.73224 -0.0321238 0)
(5.69427 -0.0177764 3.04446e-19)