/*--------------------------------*- C++ -*----------------------------------*\
  =========                 |
  \\      /  F ield         | OpenFOAM: The Open Source CFD Toolbox
   \\    /   O peration     | Website:  https://openfoam.org
    \\  /    A nd           | Version:  6
     \\/     M anipulation  |
\*---------------------------------------------------------------------------*/
FoamFile
{
    version     2.0;
    format      ascii;
    class       volVectorField;
    location    "4.31";
    object      U;
}
// * * * * * * * * * * * * * * * * * * * * * * * * * * * * * * * * * * * * * //

dimensions      [0 1 -1 0 0 0 0];

internalField   nonuniform List<vector> 
5625
(
(0.865643 0.432061 0)
(0.868544 0.432759 0)
(0.872587 0.433952 0)
(0.877443 0.43544 0)
(0.882857 0.43699 0)
(0.888669 0.438347 0)
(0.894799 0.43924 0)
(0.901206 0.439407 0)
(0.907911 0.438572 0)
(0.91505 0.436409 0)
(0.922849 0.432629 0)
(0.931599 0.427017 0)
(0.941648 0.419422 0)
(0.953348 0.40981 0)
(0.967065 0.398298 0)
(0.983247 0.385193 0)
(1.00236 0.371091 0)
(1.02472 0.356829 0)
(1.0504 0.343328 0)
(1.07907 0.331676 0)
(1.11005 0.323235 0)
(1.14241 0.319268 0)
(1.17489 0.32052 0)
(1.20584 0.327319 0)
(1.23376 0.339798 0)
(1.2576 0.357712 0)
(1.2763 0.380187 0)
(1.28865 0.405894 0)
(1.29399 0.43343 0)
(1.29247 0.461499 0)
(1.28447 0.488841 0)
(1.27013 0.514086 0)
(1.24973 0.535799 0)
(1.22409 0.552869 0)
(1.19441 0.56485 0)
(1.16206 0.571893 0)
(1.12846 0.574439 0)
(1.095 0.573047 0)
(1.06281 0.568396 0)
(1.03264 0.561249 0)
(1.00505 0.552317 0)
(0.980529 0.54218 0)
(0.959474 0.531312 0)
(0.942056 0.520148 0)
(0.928157 0.509102 0)
(0.917456 0.498527 0)
(0.909599 0.488654 0)
(0.904324 0.479577 0)
(0.901473 0.47128 0)
(0.90092 0.463701 0)
(0.902454 0.456791 0)
(0.905692 0.450563 0)
(0.91005 0.445101 0)
(0.914782 0.440547 0)
(0.919095 0.437056 0)
(0.922296 0.434737 0)
(0.923925 0.433605 0)
(0.923836 0.433555 0)
(0.922191 0.434379 0)
(0.919373 0.4358 0)
(0.915864 0.437535 0)
(0.912131 0.43934 0)
(0.908542 0.441037 0)
(0.905338 0.442519 0)
(0.902637 0.443743 0)
(0.900462 0.444709 0)
(0.898776 0.445443 0)
(0.897508 0.445984 0)
(0.896581 0.446372 0)
(0.895917 0.446644 0)
(0.895451 0.44683 0)
(0.895127 0.446956 0)
(0.894904 0.447039 0)
(0.894751 0.447094 0)
(0.894646 0.44713 0)
(0.865295 0.431193 0)
(0.867609 0.431677 0)
(0.871152 0.432741 0)
(0.875593 0.434198 0)
(0.880651 0.435843 0)
(0.886139 0.437437 0)
(0.891955 0.438728 0)
(0.89804 0.439472 0)
(0.904409 0.439417 0)
(0.911158 0.438292 0)
(0.918442 0.435855 0)
(0.926484 0.431898 0)
(0.935572 0.426271 0)
(0.946024 0.41892 0)
(0.958201 0.409928 0)
(0.972471 0.399565 0)
(0.989121 0.388305 0)
(1.00833 0.37674 0)
(1.03017 0.365606 0)
(1.05449 0.355941 0)
(1.08083 0.348904 0)
(1.10837 0.345352 0)
(1.13599 0.345845 0)
(1.16246 0.350904 0)
(1.18665 0.360808 0)
(1.20747 0.375224 0)
(1.2237 0.393345 0)
(1.2344 0.41425 0)
(1.23927 0.436968 0)
(1.23834 0.460371 0)
(1.23153 0.483196 0)
(1.21878 0.504147 0)
(1.20055 0.522059 0)
(1.17782 0.536171 0)
(1.15171 0.546242 0)
(1.12344 0.552386 0)
(1.09423 0.554865 0)
(1.06526 0.554051 0)
(1.03743 0.550461 0)
(1.01138 0.544695 0)
(0.987613 0.537315 0)
(0.966603 0.52878 0)
(0.948704 0.519491 0)
(0.934027 0.509842 0)
(0.922424 0.500219 0)
(0.913605 0.490941 0)
(0.907281 0.482207 0)
(0.903263 0.47409 0)
(0.901442 0.466575 0)
(0.901705 0.45962 0)
(0.903826 0.453214 0)
(0.907392 0.447418 0)
(0.911799 0.442362 0)
(0.916307 0.438223 0)
(0.920168 0.435169 0)
(0.922774 0.433301 0)
(0.92377 0.432608 0)
(0.923117 0.432954 0)
(0.92105 0.434099 0)
(0.91799 0.435753 0)
(0.914412 0.437635 0)
(0.910747 0.439514 0)
(0.907314 0.441233 0)
(0.90431 0.442704 0)
(0.901814 0.443901 0)
(0.899828 0.444834 0)
(0.898304 0.445537 0)
(0.897167 0.446051 0)
(0.89634 0.446417 0)
(0.89575 0.446672 0)
(0.895337 0.446847 0)
(0.89505 0.446966 0)
(0.894853 0.447044 0)
(0.894718 0.447097 0)
(0.894624 0.447131 0)
(0.865191 0.430431 0)
(0.866882 0.430635 0)
(0.86988 0.431509 0)
(0.873856 0.432874 0)
(0.878521 0.434536 0)
(0.883668 0.436276 0)
(0.889157 0.437867 0)
(0.894909 0.439082 0)
(0.900921 0.439684 0)
(0.907266 0.439438 0)
(0.914051 0.438137 0)
(0.921431 0.435593 0)
(0.929635 0.43166 0)
(0.938956 0.426287 0)
(0.949712 0.419528 0)
(0.962163 0.411589 0)
(0.976496 0.402794 0)
(0.992902 0.3936 0)
(1.01149 0.384696 0)
(1.0321 0.376968 0)
(1.05429 0.371214 0)
(1.07741 0.368049 0)
(1.10066 0.368113 0)
(1.12311 0.371995 0)
(1.14372 0.379823 0)
(1.1614 0.391233 0)
(1.17516 0.405724 0)
(1.18437 0.42272 0)
(1.18874 0.441375 0)
(1.18798 0.460595 0)
(1.18182 0.479258 0)
(1.17037 0.496323 0)
(1.15429 0.510929 0)
(1.13449 0.52255 0)
(1.11194 0.531006 0)
(1.08764 0.536316 0)
(1.06263 0.538599 0)
(1.0379 0.538113 0)
(1.01416 0.535265 0)
(0.99196 0.530529 0)
(0.971779 0.524337 0)
(0.95406 0.517056 0)
(0.9391 0.509032 0)
(0.926955 0.500626 0)
(0.917464 0.492189 0)
(0.910372 0.484002 0)
(0.905461 0.476229 0)
(0.902607 0.468921 0)
(0.901737 0.462067 0)
(0.902739 0.455648 0)
(0.905363 0.449694 0)
(0.909165 0.44431 0)
(0.913523 0.439668 0)
(0.917714 0.435972 0)
(0.921049 0.433393 0)
(0.923015 0.43201 0)
(0.923371 0.431779 0)
(0.922179 0.432522 0)
(0.919741 0.433975 0)
(0.916495 0.435839 0)
(0.912901 0.43784 0)
(0.909345 0.439767 0)
(0.906096 0.441484 0)
(0.903304 0.442927 0)
(0.90102 0.444084 0)
(0.899223 0.444975 0)
(0.897856 0.44564 0)
(0.896844 0.446123 0)
(0.896113 0.446466 0)
(0.895593 0.446704 0)
(0.89523 0.446867 0)
(0.894978 0.446977 0)
(0.894805 0.447051 0)
(0.894686 0.4471 0)
(0.894603 0.447132 0)
(0.865366 0.429823 0)
(0.866401 0.429681 0)
(0.86881 0.430296 0)
(0.872276 0.431502 0)
(0.876509 0.433106 0)
(0.881284 0.434907 0)
(0.88643 0.436699 0)
(0.891843 0.438274 0)
(0.897502 0.439407 0)
(0.90344 0.439889 0)
(0.909725 0.439536 0)
(0.916483 0.438181 0)
(0.92391 0.435697 0)
(0.932236 0.432018 0)
(0.94167 0.427178 0)
(0.952402 0.421319 0)
(0.96466 0.414685 0)
(0.978657 0.407659 0)
(0.994409 0.400812 0)
(1.01169 0.394778 0)
(1.03019 0.390131 0)
(1.04949 0.387477 0)
(1.06896 0.387474 0)
(1.08774 0.390522 0)
(1.10492 0.396616 0)
(1.11965 0.405586 0)
(1.13118 0.417202 0)
(1.13897 0.430962 0)
(1.14257 0.446038 0)
(1.1416 0.46151 0)
(1.13589 0.47652 0)
(1.12578 0.490277 0)
(1.1119 0.502119 0)
(1.09501 0.511646 0)
(1.07584 0.518682 0)
(1.05525 0.523162 0)
(1.03413 0.525119 0)
(1.01328 0.524745 0)
(0.993281 0.522374 0)
(0.974618 0.518374 0)
(0.957739 0.51307 0)
(0.943041 0.506754 0)
(0.930761 0.499735 0)
(0.920907 0.492341 0)
(0.913318 0.484889 0)
(0.907785 0.477615 0)
(0.904158 0.470646 0)
(0.902366 0.464018 0)
(0.902358 0.457721 0)
(0.90401 0.451766 0)
(0.90704 0.446226 0)
(0.910972 0.441251 0)
(0.915173 0.437048 0)
(0.91895 0.433833 0)
(0.921691 0.431769 0)
(0.922987 0.430902 0)
(0.922713 0.431142 0)
(0.921024 0.432275 0)
(0.918274 0.434014 0)
(0.914906 0.436057 0)
(0.91135 0.438145 0)
(0.907941 0.440091 0)
(0.9049 0.441785 0)
(0.902333 0.443182 0)
(0.900262 0.444286 0)
(0.898651 0.445128 0)
(0.897437 0.445752 0)
(0.896544 0.446201 0)
(0.895902 0.446519 0)
(0.895448 0.446738 0)
(0.895131 0.446889 0)
(0.894912 0.44699 0)
(0.894761 0.447058 0)
(0.894656 0.447104 0)
(0.894584 0.447134 0)
(0.865855 0.429411 0)
(0.866205 0.428869 0)
(0.867981 0.429153 0)
(0.870897 0.430124 0)
(0.874661 0.431596 0)
(0.879027 0.433376 0)
(0.883805 0.435275 0)
(0.888875 0.437094 0)
(0.894184 0.438632 0)
(0.899722 0.439699 0)
(0.905533 0.440126 0)
(0.911722 0.439764 0)
(0.918441 0.438488 0)
(0.925842 0.436231 0)
(0.934069 0.433015 0)
(0.94332 0.428941 0)
(0.953828 0.424184 0)
(0.965702 0.419044 0)
(0.978868 0.413958 0)
(0.993198 0.409399 0)
(1.00855 0.405856 0)
(1.02458 0.403884 0)
(1.04066 0.403975 0)
(1.05609 0.406359 0)
(1.07021 0.411095 0)
(1.08235 0.418204 0)
(1.09185 0.42751 0)
(1.09817 0.438491 0)
(1.10085 0.450452 0)
(1.09961 0.462735 0)
(1.09447 0.474704 0)
(1.08578 0.485716 0)
(1.07406 0.495245 0)
(1.05986 0.502967 0)
(1.04377 0.508704 0)
(1.02655 0.512341 0)
(1.00894 0.513875 0)
(0.991577 0.51346 0)
(0.974945 0.511364 0)
(0.95947 0.507867 0)
(0.945573 0.50321 0)
(0.933597 0.497632 0)
(0.923714 0.491407 0)
(0.915895 0.48484 0)
(0.909992 0.478204 0)
(0.905848 0.47169 0)
(0.903372 0.465391 0)
(0.902534 0.459327 0)
(0.903289 0.453502 0)
(0.90549 0.44796 0)
(0.908816 0.442817 0)
(0.91276 0.438264 0)
(0.916692 0.434535 0)
(0.919963 0.431849 0)
(0.922051 0.43034 0)
(0.922664 0.430011 0)
(0.921789 0.430724 0)
(0.919661 0.432227 0)
(0.916669 0.434218 0)
(0.913247 0.436402 0)
(0.909781 0.438542 0)
(0.906556 0.440477 0)
(0.903741 0.442125 0)
(0.901406 0.443461 0)
(0.899547 0.444504 0)
(0.898117 0.44529 0)
(0.897047 0.445867 0)
(0.896267 0.446281 0)
(0.895708 0.446572 0)
(0.895315 0.446773 0)
(0.895041 0.446911 0)
(0.894851 0.447003 0)
(0.89472 0.447066 0)
(0.894629 0.447108 0)
(0.894565 0.447136 0)
(0.866681 0.429233 0)
(0.866332 0.428248 0)
(0.867442 0.428139 0)
(0.869763 0.428798 0)
(0.873015 0.430057 0)
(0.876939 0.431734 0)
(0.881326 0.433646 0)
(0.886037 0.435606 0)
(0.890992 0.437426 0)
(0.896147 0.438941 0)
(0.901521 0.439992 0)
(0.907188 0.440429 0)
(0.913247 0.440135 0)
(0.919803 0.439057 0)
(0.926997 0.437208 0)
(0.935015 0.434632 0)
(0.943989 0.431445 0)
(0.953935 0.427904 0)
(0.96484 0.424351 0)
(0.976714 0.421131 0)
(0.989414 0.418641 0)
(1.00254 0.417326 0)
(1.0156 0.417531 0)
(1.02813 0.419456 0)
(1.03963 0.423246 0)
(1.04948 0.428944 0)
(1.05708 0.43633 0)
(1.06198 0.444953 0)
(1.06385 0.454339 0)
(1.06251 0.464032 0)
(1.05805 0.47351 0)
(1.05077 0.482237 0)
(1.04101 0.489803 0)
(1.02919 0.495951 0)
(1.01584 0.500495 0)
(1.0016 0.503303 0)
(0.987094 0.504363 0)
(0.972812 0.503808 0)
(0.959156 0.501846 0)
(0.946518 0.498677 0)
(0.935276 0.494483 0)
(0.925711 0.489466 0)
(0.917934 0.483877 0)
(0.911893 0.477986 0)
(0.907463 0.472025 0)
(0.90454 0.466141 0)
(0.903083 0.460395 0)
(0.903088 0.454802 0)
(0.9045 0.449387 0)
(0.907136 0.444228 0)
(0.910635 0.439485 0)
(0.914467 0.435386 0)
(0.918015 0.432179 0)
(0.920697 0.430069 0)
(0.922093 0.42915 0)
(0.922031 0.429371 0)
(0.920604 0.430543 0)
(0.918109 0.432385 0)
(0.914952 0.434585 0)
(0.911542 0.436867 0)
(0.908217 0.43902 0)
(0.905207 0.440915 0)
(0.902633 0.442496 0)
(0.900532 0.443758 0)
(0.89888 0.44473 0)
(0.897622 0.445456 0)
(0.89669 0.445985 0)
(0.896013 0.446362 0)
(0.895532 0.446626 0)
(0.895194 0.446808 0)
(0.894958 0.446933 0)
(0.894795 0.447017 0)
(0.894682 0.447074 0)
(0.894603 0.447113 0)
(0.894548 0.447139 0)
(0.86786 0.42933 0)
(0.866818 0.427872 0)
(0.867231 0.427312 0)
(0.868915 0.427586 0)
(0.871614 0.428548 0)
(0.875061 0.430037 0)
(0.879031 0.431875 0)
(0.883366 0.433874 0)
(0.887959 0.435863 0)
(0.892744 0.437694 0)
(0.897711 0.439213 0)
(0.902899 0.440266 0)
(0.908365 0.44076 0)
(0.914196 0.440656 0)
(0.920514 0.439925 0)
(0.927439 0.438564 0)
(0.935034 0.436688 0)
(0.943336 0.434514 0)
(0.952408 0.432269 0)
(0.962234 0.43019 0)
(0.972599 0.428609 0)
(0.983184 0.42788 0)
(0.993706 0.428267 0)
(1.00383 0.429953 0)
(1.01307 0.433083 0)
(1.02086 0.437651 0)
(1.02678 0.443445 0)
(1.03052 0.450166 0)
(1.0318 0.457517 0)
(1.03051 0.465134 0)
(1.02674 0.472564 0)
(1.02069 0.479384 0)
(1.01263 0.485294 0)
(1.00288 0.490077 0)
(0.991924 0.493544 0)
(0.9803 0.495569 0)
(0.968495 0.496151 0)
(0.956892 0.495404 0)
(0.945838 0.493478 0)
(0.935689 0.490512 0)
(0.926774 0.486645 0)
(0.91931 0.48206 0)
(0.913353 0.476984 0)
(0.908841 0.471653 0)
(0.905682 0.466254 0)
(0.90382 0.460891 0)
(0.903256 0.455604 0)
(0.903989 0.450411 0)
(0.905944 0.445362 0)
(0.908892 0.440578 0)
(0.912432 0.43626 0)
(0.916021 0.432663 0)
(0.919077 0.430035 0)
(0.921101 0.428548 0)
(0.921787 0.428243 0)
(0.921083 0.429009 0)
(0.919171 0.430611 0)
(0.916394 0.432744 0)
(0.913155 0.435104 0)
(0.909824 0.437436 0)
(0.906684 0.439564 0)
(0.903911 0.441392 0)
(0.901586 0.442888 0)
(0.899717 0.444064 0)
(0.898265 0.44496 0)
(0.897171 0.445623 0)
(0.896365 0.446102 0)
(0.895784 0.446442 0)
(0.895373 0.44668 0)
(0.895084 0.446843 0)
(0.894884 0.446955 0)
(0.894745 0.447031 0)
(0.894648 0.447083 0)
(0.89458 0.447118 0)
(0.894532 0.447142 0)
(0.869386 0.429732 0)
(0.867684 0.427792 0)
(0.86739 0.426732 0)
(0.868406 0.426551 0)
(0.870505 0.427143 0)
(0.873431 0.428358 0)
(0.876957 0.430022 0)
(0.8809 0.431962 0)
(0.885122 0.43402 0)
(0.889538 0.436042 0)
(0.894122 0.437874 0)
(0.89888 0.439392 0)
(0.903829 0.440516 0)
(0.90903 0.441177 0)
(0.914577 0.441313 0)
(0.920546 0.440937 0)
(0.926987 0.440162 0)
(0.93396 0.439114 0)
(0.941506 0.437916 0)
(0.949547 0.43678 0)
(0.957911 0.436002 0)
(0.966425 0.435832 0)
(0.974893 0.436444 0)
(0.982976 0.438001 0)
(0.990235 0.440624 0)
(0.996299 0.444285 0)
(1.00088 0.448834 0)
(1.00372 0.454096 0)
(1.00458 0.459856 0)
(1.00339 0.465794 0)
(1.00023 0.471536 0)
(0.995244 0.476779 0)
(0.988628 0.481303 0)
(0.980677 0.484914 0)
(0.971799 0.48743 0)
(0.962432 0.488749 0)
(0.952944 0.488884 0)
(0.943645 0.487927 0)
(0.93484 0.485978 0)
(0.92685 0.483128 0)
(0.919945 0.479495 0)
(0.91428 0.47525 0)
(0.90987 0.470598 0)
(0.906657 0.465736 0)
(0.904583 0.460803 0)
(0.903637 0.455873 0)
(0.903843 0.450972 0)
(0.90519 0.446129 0)
(0.907563 0.44143 0)
(0.910687 0.437038 0)
(0.914126 0.433191 0)
(0.917344 0.430157 0)
(0.919813 0.428166 0)
(0.921132 0.427342 0)
(0.921118 0.427659 0)
(0.919828 0.428948 0)
(0.917517 0.430931 0)
(0.914552 0.433297 0)
(0.911313 0.435758 0)
(0.90812 0.438093 0)
(0.905202 0.44016 0)
(0.902685 0.441896 0)
(0.900611 0.443291 0)
(0.898967 0.444373 0)
(0.897705 0.445188 0)
(0.896762 0.445787 0)
(0.896073 0.446217 0)
(0.895579 0.44652 0)
(0.895231 0.446732 0)
(0.894987 0.446877 0)
(0.894817 0.446977 0)
(0.894699 0.447045 0)
(0.894617 0.447091 0)
(0.894559 0.447123 0)
(0.894517 0.447146 0)
(0.871232 0.430447 0)
(0.868938 0.428046 0)
(0.867954 0.426463 0)
(0.868277 0.42577 0)
(0.869736 0.425915 0)
(0.872102 0.426768 0)
(0.875147 0.428168 0)
(0.878668 0.429956 0)
(0.882508 0.431976 0)
(0.886566 0.434066 0)
(0.890787 0.436087 0)
(0.895142 0.437938 0)
(0.899626 0.439523 0)
(0.904285 0.440743 0)
(0.90918 0.441549 0)
(0.914355 0.441977 0)
(0.919849 0.442083 0)
(0.925714 0.441909 0)
(0.931954 0.441557 0)
(0.9385 0.441233 0)
(0.945258 0.441149 0)
(0.952117 0.441447 0)
(0.958876 0.442257 0)
(0.965229 0.443741 0)
(0.970876 0.445991 0)
(0.975587 0.448972 0)
(0.979132 0.452591 0)
(0.981262 0.456739 0)
(0.981803 0.461235 0)
(0.980729 0.465808 0)
(0.978105 0.470178 0)
(0.974024 0.474138 0)
(0.968645 0.477518 0)
(0.962238 0.480135 0)
(0.955147 0.481831 0)
(0.947702 0.482536 0)
(0.940184 0.482276 0)
(0.932848 0.481112 0)
(0.925971 0.479107 0)
(0.919829 0.476325 0)
(0.914634 0.472871 0)
(0.910482 0.468904 0)
(0.907368 0.464608 0)
(0.905245 0.460141 0)
(0.904092 0.455602 0)
(0.903929 0.451036 0)
(0.904783 0.446466 0)
(0.906621 0.441949 0)
(0.909279 0.437608 0)
(0.912435 0.43365 0)
(0.915632 0.430339 0)
(0.918359 0.427938 0)
(0.920165 0.426639 0)
(0.920762 0.4265 0)
(0.920087 0.427426 0)
(0.918293 0.429192 0)
(0.915685 0.431494 0)
(0.912627 0.434026 0)
(0.909464 0.436528 0)
(0.906463 0.438816 0)
(0.903794 0.440789 0)
(0.90154 0.442412 0)
(0.899714 0.443696 0)
(0.898285 0.444679 0)
(0.8972 0.445412 0)
(0.896396 0.445945 0)
(0.895813 0.446327 0)
(0.895397 0.446595 0)
(0.895105 0.446781 0)
(0.8949 0.44691 0)
(0.894758 0.446998 0)
(0.894659 0.447058 0)
(0.894589 0.4471 0)
(0.894539 0.447129 0)
(0.894503 0.447149 0)
(0.873352 0.431467 0)
(0.870573 0.428664 0)
(0.868937 0.426556 0)
(0.868562 0.425313 0)
(0.869353 0.424942 0)
(0.87112 0.42535 0)
(0.873643 0.4264 0)
(0.87671 0.427941 0)
(0.880153 0.429814 0)
(0.88385 0.431867 0)
(0.887716 0.433968 0)
(0.891691 0.436011 0)
(0.895769 0.437889 0)
(0.899972 0.439506 0)
(0.90432 0.440837 0)
(0.908825 0.441888 0)
(0.913529 0.442651 0)
(0.918476 0.443149 0)
(0.923654 0.443495 0)
(0.929012 0.443841 0)
(0.934492 0.444292 0)
(0.939995 0.444947 0)
(0.945338 0.445946 0)
(0.950304 0.447423 0)
(0.954709 0.449417 0)
(0.958376 0.451892 0)
(0.961091 0.454805 0)
(0.962654 0.458086 0)
(0.962966 0.461573 0)
(0.96203 0.465051 0)
(0.95988 0.468336 0)
(0.956576 0.471278 0)
(0.95226 0.473721 0)
(0.947177 0.475504 0)
(0.941603 0.47651 0)
(0.935781 0.476703 0)
(0.92992 0.476106 0)
(0.924244 0.474755 0)
(0.919002 0.472683 0)
(0.914425 0.469944 0)
(0.910663 0.466639 0)
(0.907766 0.462916 0)
(0.905721 0.45893 0)
(0.904504 0.454802 0)
(0.904125 0.450596 0)
(0.90462 0.446342 0)
(0.906004 0.442076 0)
(0.908204 0.437886 0)
(0.911004 0.43394 0)
(0.914042 0.430481 0)
(0.916858 0.427784 0)
(0.918991 0.426086 0)
(0.920087 0.425518 0)
(0.919978 0.426065 0)
(0.918713 0.427561 0)
(0.916517 0.429736 0)
(0.913719 0.432279 0)
(0.910665 0.434902 0)
(0.907648 0.437384 0)
(0.904878 0.439584 0)
(0.902476 0.441434 0)
(0.900487 0.442928 0)
(0.898899 0.444092 0)
(0.897673 0.444974 0)
(0.896751 0.445625 0)
(0.896073 0.446096 0)
(0.895584 0.446431 0)
(0.895238 0.446665 0)
(0.894994 0.446828 0)
(0.894824 0.44694 0)
(0.894706 0.447018 0)
(0.894623 0.447071 0)
(0.894564 0.447108 0)
(0.894522 0.447134 0)
(0.894491 0.447153 0)
(0.875665 0.432755 0)
(0.872551 0.429646 0)
(0.870345 0.427056 0)
(0.869288 0.425247 0)
(0.869398 0.424306 0)
(0.870535 0.424196 0)
(0.872495 0.424811 0)
(0.875073 0.426009 0)
(0.878095 0.427635 0)
(0.881416 0.429545 0)
(0.884924 0.431613 0)
(0.88855 0.433718 0)
(0.892271 0.435752 0)
(0.896075 0.437644 0)
(0.899945 0.43935 0)
(0.903897 0.440831 0)
(0.907972 0.442064 0)
(0.912188 0.443087 0)
(0.916517 0.443989 0)
(0.920924 0.444838 0)
(0.925374 0.445688 0)
(0.929784 0.446643 0)
(0.934014 0.447831 0)
(0.937921 0.449321 0)
(0.941375 0.451114 0)
(0.944217 0.453207 0)
(0.946271 0.455591 0)
(0.94741 0.458198 0)
(0.947591 0.460889 0)
(0.946811 0.463511 0)
(0.945077 0.465946 0)
(0.94244 0.468077 0)
(0.939041 0.469762 0)
(0.935087 0.470865 0)
(0.930784 0.471311 0)
(0.926312 0.47109 0)
(0.921839 0.470216 0)
(0.917563 0.468703 0)
(0.913699 0.46657 0)
(0.910426 0.46387 0)
(0.907844 0.460704 0)
(0.905973 0.457206 0)
(0.904802 0.453498 0)
(0.904333 0.449665 0)
(0.904598 0.445748 0)
(0.905634 0.441777 0)
(0.907426 0.437812 0)
(0.909849 0.433981 0)
(0.912638 0.430495 0)
(0.915405 0.42762 0)
(0.917715 0.425618 0)
(0.91918 0.424679 0)
(0.919556 0.424859 0)
(0.918794 0.426062 0)
(0.917035 0.428061 0)
(0.914554 0.43056 0)
(0.911677 0.433255 0)
(0.908712 0.435895 0)
(0.905898 0.4383 0)
(0.90339 0.440372 0)
(0.901263 0.442079 0)
(0.899532 0.443433 0)
(0.898171 0.444474 0)
(0.897131 0.445254 0)
(0.896356 0.445826 0)
(0.89579 0.446237 0)
(0.895385 0.446527 0)
(0.895099 0.446731 0)
(0.894898 0.446872 0)
(0.894758 0.446969 0)
(0.89466 0.447037 0)
(0.894591 0.447083 0)
(0.894542 0.447116 0)
(0.894506 0.447139 0)
(0.89448 0.447156 0)
(0.878074 0.434242 0)
(0.874793 0.430967 0)
(0.872148 0.42798 0)
(0.870475 0.425623 0)
(0.869905 0.424085 0)
(0.870382 0.4234 0)
(0.871746 0.423498 0)
(0.873802 0.42426 0)
(0.876371 0.425542 0)
(0.879292 0.427211 0)
(0.882443 0.429135 0)
(0.885739 0.431187 0)
(0.889125 0.433266 0)
(0.89256 0.435299 0)
(0.89603 0.437223 0)
(0.899549 0.438978 0)
(0.903125 0.440547 0)
(0.906743 0.441968 0)
(0.910385 0.443272 0)
(0.914046 0.444476 0)
(0.917702 0.445635 0)
(0.921269 0.446844 0)
(0.924645 0.448178 0)
(0.927741 0.44966 0)
(0.930457 0.451297 0)
(0.932661 0.453113 0)
(0.934226 0.455102 0)
(0.935083 0.457186 0)
(0.935209 0.459255 0)
(0.934589 0.461216 0)
(0.933222 0.46299 0)
(0.931168 0.464476 0)
(0.92856 0.465552 0)
(0.925558 0.466118 0)
(0.922312 0.46613 0)
(0.918954 0.465586 0)
(0.915635 0.464492 0)
(0.91253 0.46285 0)
(0.909813 0.460676 0)
(0.907613 0.458026 0)
(0.905989 0.455001 0)
(0.904947 0.451716 0)
(0.904487 0.448263 0)
(0.904632 0.444696 0)
(0.905423 0.441044 0)
(0.906881 0.437352 0)
(0.908949 0.433714 0)
(0.911446 0.430304 0)
(0.914066 0.427365 0)
(0.916422 0.425167 0)
(0.918126 0.423936 0)
(0.918884 0.423791 0)
(0.918572 0.424701 0)
(0.917244 0.426495 0)
(0.915112 0.428904 0)
(0.912468 0.431625 0)
(0.909617 0.434382 0)
(0.906816 0.436966 0)
(0.904247 0.439245 0)
(0.902017 0.44116 0)
(0.900164 0.442707 0)
(0.898679 0.443916 0)
(0.897527 0.444835 0)
(0.896655 0.445516 0)
(0.896012 0.446012 0)
(0.895545 0.446366 0)
(0.895213 0.446616 0)
(0.894979 0.446791 0)
(0.894815 0.446912 0)
(0.894701 0.446996 0)
(0.89462 0.447054 0)
(0.894563 0.447095 0)
(0.894522 0.447124 0)
(0.894492 0.447145 0)
(0.89447 0.44716 0)
(0.880469 0.435847 0)
(0.877203 0.432559 0)
(0.874286 0.42931 0)
(0.872104 0.426481 0)
(0.87089 0.42435 0)
(0.870701 0.423043 0)
(0.871442 0.422556 0)
(0.872943 0.4228 0)
(0.875022 0.423651 0)
(0.877519 0.42498 0)
(0.880301 0.426655 0)
(0.883265 0.428549 0)
(0.886326 0.430561 0)
(0.889435 0.432607 0)
(0.892572 0.434614 0)
(0.89573 0.436525 0)
(0.898887 0.438321 0)
(0.902023 0.44 0)
(0.905146 0.441558 0)
(0.908251 0.443007 0)
(0.911297 0.444399 0)
(0.914212 0.445792 0)
(0.916941 0.447213 0)
(0.919428 0.448675 0)
(0.92159 0.450204 0)
(0.923323 0.45182 0)
(0.924549 0.453499 0)
(0.925235 0.455172 0)
(0.925359 0.456766 0)
(0.9249 0.458229 0)
(0.923865 0.459495 0)
(0.922325 0.460473 0)
(0.920395 0.461066 0)
(0.91819 0.461216 0)
(0.915815 0.460901 0)
(0.913377 0.460118 0)
(0.911014 0.458863 0)
(0.908878 0.45713 0)
(0.907106 0.454942 0)
(0.905776 0.452365 0)
(0.904919 0.449492 0)
(0.904539 0.446416 0)
(0.904652 0.443201 0)
(0.905294 0.439882 0)
(0.906502 0.436492 0)
(0.908261 0.433103 0)
(0.910461 0.429852 0)
(0.912875 0.426954 0)
(0.915175 0.424667 0)
(0.916998 0.423237 0)
(0.918032 0.422828 0)
(0.918093 0.423472 0)
(0.917165 0.425054 0)
(0.91539 0.427343 0)
(0.913017 0.430048 0)
(0.910331 0.432883 0)
(0.907596 0.435613 0)
(0.905016 0.438077 0)
(0.902721 0.44019 0)
(0.900773 0.441927 0)
(0.899184 0.443306 0)
(0.897929 0.44437 0)
(0.896966 0.445169 0)
(0.896245 0.445757 0)
(0.895716 0.446182 0)
(0.895336 0.446484 0)
(0.895066 0.446697 0)
(0.894877 0.446845 0)
(0.894744 0.446949 0)
(0.894651 0.447021 0)
(0.894586 0.447071 0)
(0.894539 0.447106 0)
(0.894505 0.447132 0)
(0.89448 0.44715 0)
(0.89446 0.447163 0)
(0.882748 0.437467 0)
(0.879665 0.434325 0)
(0.876654 0.430983 0)
(0.874116 0.427811 0)
(0.872357 0.425148 0)
(0.871525 0.423213 0)
(0.871621 0.422088 0)
(0.872533 0.421741 0)
(0.874095 0.422078 0)
(0.876139 0.422973 0)
(0.878526 0.424296 0)
(0.881143 0.425929 0)
(0.883892 0.427771 0)
(0.886704 0.429723 0)
(0.889545 0.431704 0)
(0.892386 0.433658 0)
(0.895199 0.435553 0)
(0.897975 0.43736 0)
(0.900708 0.439062 0)
(0.90338 0.44067 0)
(0.905952 0.442217 0)
(0.908384 0.44372 0)
(0.910646 0.445183 0)
(0.912692 0.446624 0)
(0.91445 0.448071 0)
(0.915854 0.449527 0)
(0.916866 0.450954 0)
(0.917463 0.452306 0)
(0.917619 0.453546 0)
(0.917319 0.454635 0)
(0.91659 0.455511 0)
(0.915505 0.456094 0)
(0.91415 0.456319 0)
(0.912606 0.45616 0)
(0.910949 0.45561 0)
(0.909276 0.454659 0)
(0.907708 0.453292 0)
(0.90637 0.451509 0)
(0.905356 0.449345 0)
(0.904715 0.446869 0)
(0.904463 0.444163 0)
(0.904609 0.441296 0)
(0.905182 0.438311 0)
(0.906218 0.43524 0)
(0.907729 0.432135 0)
(0.909657 0.429107 0)
(0.911839 0.426336 0)
(0.914013 0.42406 0)
(0.915857 0.422529 0)
(0.917062 0.421935 0)
(0.917411 0.422361 0)
(0.91683 0.423745 0)
(0.915398 0.425899 0)
(0.913312 0.428558 0)
(0.91083 0.431433 0)
(0.90821 0.434275 0)
(0.905665 0.436898 0)
(0.903346 0.439191 0)
(0.901336 0.441109 0)
(0.899664 0.442656 0)
(0.898322 0.443866 0)
(0.897277 0.444788 0)
(0.896483 0.445474 0)
(0.895894 0.445975 0)
(0.895465 0.446335 0)
(0.895158 0.44659 0)
(0.894942 0.446769 0)
(0.89479 0.446894 0)
(0.894683 0.446982 0)
(0.894609 0.447043 0)
(0.894556 0.447086 0)
(0.894518 0.447117 0)
(0.894489 0.447139 0)
(0.894468 0.447155 0)
(0.894452 0.447167 0)
(0.884822 0.439014 0)
(0.882048 0.436145 0)
(0.879132 0.432895 0)
(0.876417 0.429555 0)
(0.874247 0.426482 0)
(0.872853 0.423972 0)
(0.872321 0.422194 0)
(0.872618 0.421197 0)
(0.873623 0.420938 0)
(0.875186 0.42131 0)
(0.877156 0.422191 0)
(0.879406 0.42347 0)
(0.881831 0.425039 0)
(0.884359 0.426792 0)
(0.88693 0.428645 0)
(0.889496 0.430539 0)
(0.892031 0.432424 0)
(0.894522 0.434258 0)
(0.89695 0.436014 0)
(0.899288 0.437697 0)
(0.901508 0.439311 0)
(0.903598 0.440854 0)
(0.905534 0.442323 0)
(0.907266 0.443737 0)
(0.908745 0.445109 0)
(0.909935 0.446425 0)
(0.910819 0.447649 0)
(0.911382 0.448756 0)
(0.911601 0.449729 0)
(0.911474 0.450532 0)
(0.911034 0.451106 0)
(0.910345 0.451395 0)
(0.909472 0.451359 0)
(0.908471 0.450987 0)
(0.907408 0.450273 0)
(0.906369 0.449206 0)
(0.905459 0.447772 0)
(0.904769 0.445983 0)
(0.90436 0.443884 0)
(0.90426 0.441541 0)
(0.904479 0.439019 0)
(0.905038 0.436367 0)
(0.905969 0.43362 0)
(0.907294 0.430822 0)
(0.908986 0.42806 0)
(0.910938 0.425484 0)
(0.912946 0.423308 0)
(0.914737 0.42177 0)
(0.916022 0.421078 0)
(0.916573 0.421348 0)
(0.916274 0.422567 0)
(0.915153 0.424591 0)
(0.913355 0.427183 0)
(0.911102 0.430068 0)
(0.908635 0.432988 0)
(0.906169 0.435739 0)
(0.903867 0.438189 0)
(0.90183 0.440274 0)
(0.900104 0.441981 0)
(0.898694 0.443335 0)
(0.897578 0.444379 0)
(0.896719 0.445166 0)
(0.896073 0.445747 0)
(0.895598 0.446169 0)
(0.895254 0.446471 0)
(0.89501 0.446684 0)
(0.894838 0.446833 0)
(0.894717 0.446938 0)
(0.894633 0.447011 0)
(0.894573 0.447063 0)
(0.89453 0.4471 0)
(0.894499 0.447126 0)
(0.894476 0.447145 0)
(0.894459 0.447159 0)
(0.894445 0.44717 0)
(0.886641 0.440429 0)
(0.88424 0.437906 0)
(0.881574 0.434902 0)
(0.87888 0.4316 0)
(0.876472 0.428299 0)
(0.874637 0.425329 0)
(0.873544 0.422945 0)
(0.873235 0.421279 0)
(0.873659 0.420356 0)
(0.874702 0.420122 0)
(0.876222 0.420477 0)
(0.878081 0.421312 0)
(0.880174 0.422508 0)
(0.882413 0.423964 0)
(0.884719 0.425596 0)
(0.887038 0.427334 0)
(0.889337 0.429112 0)
(0.891593 0.43088 0)
(0.893778 0.432611 0)
(0.895867 0.434289 0)
(0.897843 0.435895 0)
(0.899695 0.437418 0)
(0.901396 0.438861 0)
(0.90291 0.44023 0)
(0.904208 0.441518 0)
(0.905278 0.442704 0)
(0.906109 0.443766 0)
(0.906682 0.444691 0)
(0.906985 0.445462 0)
(0.907031 0.446043 0)
(0.906859 0.44639 0)
(0.906517 0.446464 0)
(0.906049 0.446249 0)
(0.905499 0.445738 0)
(0.904927 0.444922 0)
(0.904414 0.443788 0)
(0.904041 0.442335 0)
(0.903869 0.440585 0)
(0.903934 0.438588 0)
(0.904251 0.436405 0)
(0.904836 0.434084 0)
(0.905713 0.431664 0)
(0.906906 0.429186 0)
(0.908407 0.426721 0)
(0.910146 0.424395 0)
(0.91197 0.422392 0)
(0.913655 0.420934 0)
(0.914947 0.42023 0)
(0.91562 0.420416 0)
(0.915538 0.421517 0)
(0.914684 0.423429 0)
(0.913158 0.425949 0)
(0.911143 0.42882 0)
(0.908857 0.431786 0)
(0.906508 0.434634 0)
(0.904263 0.437214 0)
(0.902234 0.439444 0)
(0.900482 0.441297 0)
(0.899027 0.442788 0)
(0.897857 0.443953 0)
(0.896943 0.444841 0)
(0.896247 0.445504 0)
(0.895728 0.44599 0)
(0.89535 0.44634 0)
(0.895078 0.44659 0)
(0.894886 0.446766 0)
(0.894751 0.44689 0)
(0.894656 0.446977 0)
(0.89459 0.447038 0)
(0.894543 0.447081 0)
(0.894509 0.447112 0)
(0.894483 0.447135 0)
(0.894464 0.447151 0)
(0.89445 0.447164 0)
(0.894438 0.447173 0)
(0.888202 0.441691 0)
(0.88618 0.439531 0)
(0.883848 0.436865 0)
(0.881342 0.433776 0)
(0.878896 0.430468 0)
(0.876788 0.427231 0)
(0.875245 0.424358 0)
(0.874389 0.422066 0)
(0.874239 0.420463 0)
(0.874735 0.419558 0)
(0.875767 0.4193 0)
(0.877209 0.419592 0)
(0.878942 0.420325 0)
(0.880869 0.421399 0)
(0.882909 0.422721 0)
(0.884998 0.424209 0)
(0.887086 0.425788 0)
(0.889139 0.42741 0)
(0.891129 0.429036 0)
(0.893034 0.430631 0)
(0.894837 0.432167 0)
(0.896519 0.433628 0)
(0.898056 0.43501 0)
(0.89943 0.436305 0)
(0.90063 0.437493 0)
(0.901648 0.438556 0)
(0.902469 0.439485 0)
(0.903081 0.440269 0)
(0.903487 0.440885 0)
(0.90371 0.441297 0)
(0.903786 0.441474 0)
(0.903745 0.441401 0)
(0.903618 0.441071 0)
(0.903444 0.440478 0)
(0.903281 0.439609 0)
(0.903197 0.438455 0)
(0.903251 0.437028 0)
(0.903483 0.435363 0)
(0.903912 0.433508 0)
(0.904549 0.431513 0)
(0.905411 0.429419 0)
(0.906517 0.427267 0)
(0.907869 0.42512 0)
(0.909421 0.423082 0)
(0.911062 0.421314 0)
(0.912613 0.420014 0)
(0.913857 0.419379 0)
(0.914585 0.419556 0)
(0.914654 0.420593 0)
(0.914018 0.422424 0)
(0.912738 0.424878 0)
(0.910959 0.42772 0)
(0.908871 0.430705 0)
(0.906669 0.433617 0)
(0.904515 0.436297 0)
(0.902529 0.438647 0)
(0.900783 0.440628 0)
(0.899308 0.442242 0)
(0.898103 0.443519 0)
(0.897148 0.444505 0)
(0.896411 0.445249 0)
(0.895855 0.4458 0)
(0.895444 0.446201 0)
(0.895146 0.446489 0)
(0.894934 0.446693 0)
(0.894784 0.446838 0)
(0.894679 0.446939 0)
(0.894606 0.447011 0)
(0.894554 0.447061 0)
(0.894517 0.447097 0)
(0.89449 0.447124 0)
(0.89447 0.447143 0)
(0.894454 0.447157 0)
(0.894442 0.447168 0)
(0.894433 0.447176 0)
(0.889506 0.442776 0)
(0.887848 0.440975 0)
(0.885873 0.438688 0)
(0.883659 0.435929 0)
(0.881351 0.432807 0)
(0.879163 0.429529 0)
(0.877331 0.426367 0)
(0.876035 0.423574 0)
(0.875365 0.421337 0)
(0.87532 0.419749 0)
(0.875838 0.418815 0)
(0.876824 0.418481 0)
(0.878168 0.418661 0)
(0.879762 0.419257 0)
(0.881519 0.420173 0)
(0.883368 0.421322 0)
(0.885254 0.422627 0)
(0.887127 0.424026 0)
(0.888953 0.425469 0)
(0.89071 0.426912 0)
(0.892381 0.428322 0)
(0.893946 0.429676 0)
(0.895382 0.430957 0)
(0.896678 0.432148 0)
(0.89783 0.433228 0)
(0.898832 0.434177 0)
(0.899676 0.434988 0)
(0.900355 0.435649 0)
(0.900881 0.436135 0)
(0.901277 0.436418 0)
(0.90157 0.43648 0)
(0.901783 0.436314 0)
(0.901943 0.435917 0)
(0.902088 0.435282 0)
(0.902268 0.4344 0)
(0.902534 0.433274 0)
(0.902923 0.431925 0)
(0.903459 0.430391 0)
(0.904157 0.428718 0)
(0.905026 0.426949 0)
(0.906079 0.425128 0)
(0.907319 0.423311 0)
(0.908716 0.42159 0)
(0.910188 0.420103 0)
(0.911594 0.419023 0)
(0.912753 0.41853 0)
(0.913484 0.41877 0)
(0.913646 0.419803 0)
(0.913179 0.421589 0)
(0.912113 0.423989 0)
(0.91056 0.426794 0)
(0.908679 0.429776 0)
(0.906645 0.432723 0)
(0.904611 0.43547 0)
(0.9027 0.437911 0)
(0.90099 0.439996 0)
(0.899522 0.441716 0)
(0.898304 0.443093 0)
(0.897323 0.444169 0)
(0.896556 0.44499 0)
(0.895969 0.445604 0)
(0.895531 0.446056 0)
(0.895211 0.446383 0)
(0.89498 0.446617 0)
(0.894817 0.446782 0)
(0.894702 0.446899 0)
(0.894621 0.446981 0)
(0.894565 0.44704 0)
(0.894525 0.447081 0)
(0.894496 0.447112 0)
(0.894475 0.447134 0)
(0.894458 0.44715 0)
(0.894446 0.447163 0)
(0.894436 0.447172 0)
(0.894428 0.447179 0)
(0.890578 0.443696 0)
(0.889243 0.442218 0)