/*--------------------------------*- C++ -*----------------------------------*\
  =========                 |
  \\      /  F ield         | OpenFOAM: The Open Source CFD Toolbox
   \\    /   O peration     | Website:  https://openfoam.org
    \\  /    A nd           | Version:  6
     \\/     M anipulation  |
\*---------------------------------------------------------------------------*/
FoamFile
{
    version     2.0;
    format      ascii;
    class       surfaceScalarField;
    location    "3.12";
    object      meshPhi;
}
// * * * * * * * * * * * * * * * * * * * * * * * * * * * * * * * * * * * * * //

dimensions      [0 3 -1 0 0 0 0];

internalField   nonuniform List<scalar> 
8193
(
-0.0014569
-0.00338628
0.000522559
-0.00233444
-0.00640908
-0.00313684
-0.00913502
-0.00384841
-0.0115232
-0.00445645
-0.0135422
-0.00495143
-0.0151703
-0.00532702
-0.0163951
-0.0055799
-0.0172129
-0.00570955
-0.017628
-0.00571783
-0.0176522
-0.0056086
-0.0173034
-0.00538725
-0.0166051
-0.00506028
-0.0155851
-0.00463491
-0.0142747
-0.00411872
-0.0127081
-0.00351944
-0.010921
-0.0028448
-0.00895074
-0.00210241
-0.00683515
-0.00129986
-0.00461257
-0.000444783
-0.00232141
0.000454915
-1.09264e-14
0.0013908
0.00231352
0.00235358
0.00458129
0.00333276
0.00676581
0.00431623
0.00883003
0.0052899
0.0107375
0.0062373
0.0124528
0.00713926
0.0139415
0.00797366
0.0151711
0.00871523
0.0161112
0.00933559
0.0167344
0.00980339
0.0170172
0.0100847
0.0169403
0.0101436
0.0164899
0.00994323
0.0156584
0.00944687
0.0144451
0.00861954
0.0128569
0.00742981
0.0109085
0.0058519
0.00862351
0.0038679
0.00603369
0.0031795
0.00147014
-0.00534161
-0.010029
0.00262674
-0.00786609
-0.0155947
-0.0101509
-0.0205644
-0.0121551
-0.02487
-0.0138465
-0.0284604
-0.0152022
-0.0313012
-0.0162078
-0.0333743
-0.0168574
-0.0346772
-0.0171522
-0.0352221
-0.0170997
-0.035034
-0.0167124
-0.0341497
-0.0160064
-0.0326154
-0.0150006
-0.0304857
-0.0137153
-0.0278215
-0.0121716
-0.0246884
-0.0103907
-0.0211552
-0.00839365
-0.017293
-0.00620108
-0.013174
-0.00383357
-0.00887068
-0.00131191
-0.00445543
0.00134222
1.10047e-14
0.00410553
0.00442466
0.00695214
0.00874862
0.00985256
0.0129032
0.0127726
0.016821
0.0156722
0.0204367
0.0185046
0.0236868
0.021215
0.0265112
0.0237404
0.0288531
0.0260087
0.0306608
0.0279389
0.0318883
0.0294414
0.0324969
0.030419
0.0324564
0.030769
0.0317461
0.0303851
0.0303566
0.0291608
0.02829
0.0269936
0.0255615
0.0237897
0.0221995
0.0194691
0.0182455
0.0139724
0.0137547
0.00879494
0.00726617
-0.0110927
-0.0196581
0.00682662
-0.0150092
-0.0272606
-0.0185075
-0.0339818
-0.021532
-0.0397365
-0.0240411
-0.0444618
-0.026007
-0.048117
-0.0274144
-0.0506832
-0.02826
-0.0521625
-0.0285504
-0.0525766
-0.0283006
-0.051965
-0.0275324
-0.0503828
-0.0262719
-0.0478985
-0.0245485
-0.0445918
-0.0223934
-0.0405507
-0.0198378
-0.0358699
-0.0169133
-0.0306483
-0.0136505
-0.0249873
-0.0100794
-0.0189898
-0.00622991
-0.0127583
-0.00213215
-0.00639484
0.00218215
1.2829e-17
0.00667862
0.00632749
0.0113187
0.012491
0.016058
0.0183962
0.0208448
0.0239519
0.0256179
0.0290697
0.0303056
0.0336656
0.0348237
0.0376604
0.039075
0.0409808
0.042948
0.0435612
0.0463173
0.0453447
0.0490438
0.0462849
0.0509765
0.0463474
0.0519543
0.0455114
0.0518101
0.0437709
0.0503748
0.0411353
0.0474833
0.0376307
0.0429808
0.0332994
0.0367311
0.0281998
0.0286245
0.0224059
0.0160059
0.0185868
-0.0185645
-0.031926
0.0130304
-0.0235796
-0.041053
-0.0279978
-0.049039
-0.0317586
-0.0557887
-0.0348189
-0.061233
-0.037152
-0.0653291
-0.0387468
-0.0680604
-0.0396057
-0.0694355
-0.0397424
-0.0694866
-0.0391801
-0.0682678
-0.0379489
-0.0658521
-0.0360835
-0.0623288
-0.0336218
-0.0578006
-0.0306027
-0.0523806
-0.027065
-0.0461897
-0.0230469
-0.0393536
-0.0185855
-0.0320008
-0.0137168
-0.024261
-0.00847669
-0.016263
-0.00290143
-0.00813438
0.00297056
0
0.00909717
0.00801816
0.0154307
0.0158016
0.0219155
0.0232357
0.0284863
0.0302104
0.0350655
0.0366205
0.0415614
0.0423669
0.0478661
0.0473577
0.0538545
0.0515095
0.0593832
0.0547489
0.0642901
0.0570146
0.0683954
0.0582587
0.071503
0.0584489
0.0734037
0.0575695
0.0738785
0.0556226
0.0727049
0.0526293
0.0696628
0.0486291
0.0645428
0.0436803
0.057155
0.0378581
0.0473389
0.0312542
0.0239738
0.0349738
-0.0275325
-0.0464179
0.0210512
-0.0333303
-0.0565682
-0.0383661
-0.0653517
-0.0425812
-0.0726676
-0.0459366
-0.0784441
-0.048411
-0.0826389
-0.0499998
-0.0852396
-0.0507126
-0.0862623
-0.0505704
-0.08575
-0.0496037
-0.0837707
-0.0478495
-0.0804142
-0.045349
-0.0757889
-0.0421457
-0.0700186
-0.0382838
-0.0632387
-0.0338065
-0.0555935
-0.0287559
-0.0472323
-0.0231724
-0.0383074
-0.0170953
-0.0289715
-0.0105633
-0.0193763
-0.00361618
-0.00967073
0.0037038
0
0.0113497
0.00949491
0.0192677
0.018678
0.0273945
0.0274189
0.0356546
0.0355934
0.0439581
0.0430844
0.052198
0.0497828
0.0602481
0.0555891
0.0679613
0.0604148
0.075169
0.0641846
0.08168
0.0668375
0.0872822
0.0683294
0.0917437
0.0686347
0.0948161
0.0677473
0.0962393
0.0656817
0.0957467
0.0624736
0.0930733
0.058179
0.0879633
0.0528735
0.0801806
0.0466507
0.0695189
0.0396195
0.0319015
0.0558129
-0.0376992
-0.0626602
0.0306093
-0.0439597
-0.0733595
-0.0493176
-0.0825051
-0.0537207
-0.0899935
-0.0571368
-0.0957522
-0.059552
-0.0997413
-0.0609688
-0.101953
-0.0614037
-0.102411
-0.0608841
-0.10117
-0.0594459
-0.0983092
-0.0571311
-0.0939345
-0.0539848
-0.0881714
-0.0500538
-0.0811622
-0.0453845
-0.0730624
-0.0400221
-0.0640363
-0.0340099
-0.0542539
-0.027389
-0.0438879
-0.0201994
-0.0331109
-0.0124807
-0.0220935
-0.00427336
-0.0110026
0.00437871
1.11231e-14
0.0134263
0.010758
0.022812
0.021122
0.0324675
0.0309496
0.0423109
0.0401066
0.0522433
0.0484681
0.0621466
0.0559193
0.0718811
0.0623574
0.0812834
0.0676932
0.0901656
0.0718532
0.0983149
0.0747814
0.105494
0.0764413
0.111445
0.0768176
0.115889
0.0759172
0.118535
0.0737699
0.119082
0.0704285
0.117231
0.0659675
0.11269
0.0604815
0.105187
0.0540829
0.0944774
0.0468986
0.039066
0.0803595
-0.0487046
-0.08013
0.0413406
-0.0551229
-0.0909446
-0.0605304
-0.10006
-0.0648832
-0.107371
-0.0681568
-0.112807
-0.0703446
-0.116329
-0.0714555
-0.117935
-0.0715112
-0.117657
-0.0705437
-0.115558
-0.0685924
-0.111729
-0.0657014
-0.106289
-0.0619177
-0.0993801
-0.0572885
-0.0911595
-0.0518605
-0.0817998
-0.045678
-0.071483
-0.0387835
-0.0603967
-0.0312169
-0.0487307
-0.0230168
-0.0366743
-0.0142214
-0.0244138
-0.00487046
-0.0121306
0.00499266
3.5293e-20
0.0153184
0.0118099
0.0260481
0.0231394
0.0371109
0.0338377
0.048421
0.0437642
0.059874
0.0527894
0.0713444
0.0607963
0.0826831
0.0676823
0.0937156
0.073361
0.10424
0.0777639
0.114029
0.0808431
0.122828
0.0825725
0.130359
0.08295
0.136322
0.0819976
0.140405
0.0797626
0.142284
0.0763162
0.141635
0.0717525
0.138142
0.0661859
0.131506
0.0597479
0.121457
0.0525833
0.0448454
0.107766
-0.0601428
-0.0982637
0.0528127
-0.0664467
-0.108813
-0.0716681
-0.117559
-0.0757709
-0.124396
-0.0787375
-0.129254
-0.0805671
-0.132097
-0.0812731
-0.132927
-0.0808804
-0.131783
-0.0794232
-0.128736
-0.0769418
-0.123888
-0.0734805
-0.117369
-0.0690853
-0.109332
-0.0638021
-0.0999505
-0.0576753
-0.0894107
-0.0507471
-0.0779091
-0.0430569
-0.065648
-0.0346418
-0.0528314
-0.0255375
-0.0396624
-0.0157797
-0.0263399
-0.00540548
-0.0130572
0.00554355
-1.05879e-19
0.0170192
0.0126548
0.0289632
0.0247401
0.0413044
0.0360996
0.0539553
0.0465889
0.0668087
0.0560769
0.079735
0.0644472
0.0925796
0.0716002
0.105161
0.0774544
0.117269
0.0819494
0.128667
0.0850473
0.139088
0.0867347
0.148243
0.087024
0.155821
0.085954
0.161495
0.0835901
0.164927
0.0800228
0.165779
0.0753659
0.163721
0.0697535
0.158439
0.0633357
0.14965
0.0562745
0.0487383
0.137107
-0.0715814
-0.116469
0.0645472
-0.0775465
-0.126438
-0.0823937
-0.134538
-0.0860932
-0.140663
-0.0886322
-0.144744
-0.0900132
-0.146748
-0.0902517
-0.146681
-0.0893735
-0.144586
-0.0874124
-0.140542
-0.0844076
-0.134659
-0.0804013
-0.127076
-0.0754367
-0.117958
-0.0695563
-0.107489
-0.062801
-0.095867
-0.0552088
-0.0833005
-0.0468152
-0.0700038
-0.0376532
-0.0561928
-0.0277547
-0.0420813
-0.0171513
-0.0278786
-0.005877
-0.013787
0.00602982
5.50444e-15
0.0185234
0.0132989
0.0315473
0.0259378
0.0450316
0.0377571
0.058889
0.0486111
0.0730119
0.0583693
0.0872691
0.0669181
0.101504
0.0741627
0.115531
0.0800289
0.129138
0.0844657
0.14208
0.0874468
0.154089
0.0889725
0.164868
0.089071
0.174101
0.0877982
0.181455
0.0852379
0.186587
0.0814995
0.189154
0.0767161
0.188822
0.0710401
0.185272
0.0646394
0.178217
0.0576915
0.0503783
0.167405
-0.0825832
-0.134137
0.0760456
-0.088044
-0.143284
-0.0923845
-0.150531
-0.0955783
-0.155773
-0.0976149
-0.15894
-0.0984978
-0.160001
-0.098242
-0.158966
-0.096872
-0.155881
-0.0944191
-0.150831
-0.0909193
-0.143933
-0.0864109
-0.135334
-0.0809328
-0.125206
-0.074523
-0.113743
-0.0672174
-0.101153
-0.0590492
-0.0876542
-0.0500489
-0.0734698
-0.0402448
-0.0588252
-0.029664
-0.0439429
-0.0183338
-0.0290401
-0.00628411
-0.0143261
0.00645044
-1.63385e-14
0.0198273
0.0137503
0.0337931
0.0267498
0.0482799
0.0388377
0.0632025
0.0498689
0.0784543
0.0597152
0.0939052
0.0682673
0.109398
0.0754367
0.124749
0.081158
0.139743
0.0853904
0.154137
0.0881204
0.16766
0.0893626
0.180017
0.0891608
0.190891
0.0875882
0.19995
0.0847463
0.206854
0.0807626
0.211263
0.0757879
0.212844
0.0699919
0.211286
0.0635578
0.206305
0.0566769
0.049542
0.197656
-0.0927293
-0.150661
0.0868182
-0.0975852
-0.158827
-0.101345
-0.16509
-0.103982
-0.169346
-0.105488
-0.171524
-0.105862
-0.171596
-0.105119
-0.169573
-0.10328
-0.165505
-0.10037
-0.15948
-0.0964228
-0.151621
-0.0914704
-0.142081
-0.0855467
-0.13104
-0.0786841
-0.118697
-0.070913
-0.105267
-0.0622612
-0.0909782
-0.0527538
-0.0760602
-0.042414
-0.0607456
-0.0312639
-0.0452639
-0.0193262
-0.0298381
-0.00662642
-0.0146823
0.00680491
3.45872e-17
0.020929
0.0140184
0.0356959
0.0271965
0.0510409
0.0393739
0.0668814
0.0504071
0.0831136
0.0601718
0.0996097
0.068564
0.116215
0.0755029
0.132747
0.0809321
0.148994
0.0848223
0.164716
0.0871726
0.179645
0.0880121
0.19349
0.0874001
0.205938
0.0854262
0.216665
0.0822086
0.225338
0.0778918
0.231624
0.0726425
0.235204
0.0666453
0.235775
0.0600966
0.233067
0.0531987
0.046153
0.22685
-0.10164
-0.165456
0.0964114
-0.105856
-0.172566
-0.109018
-0.177793
-0.111099
-0.18103
-0.112086
-0.18221
-0.111979
-0.181303
-0.110786
-0.178323
-0.108523
-0.173322
-0.105213
-0.166391
-0.100881
-0.157658
-0.0955552
-0.14728
-0.089263
-0.135441
-0.082031
-0.122347
-0.0738838
-0.10822
-0.0648437
-0.0932913
-0.0549304
-0.0777981
-0.0441619
-0.0619783
-0.0325555
-0.0460661
-0.0201292
-0.0302892
-0.0069041
-0.0148652
0.00709328
5.30857e-15
0.0218281
0.0141144
0.037254
0.0273017
0.05331
0.0394026
0.0699169
0.0502768
0.0869742
0.0598044
0.104358
0.067888
0.121916
0.0744545
0.139472
0.0794576
0.156816
0.0828791
0.173715
0.0847311
0.189907
0.0850566
0.205108
0.08393
0.219013
0.0814564
0.231309
0.0777693
0.241672
0.0730283
0.249786
0.0674142
0.255343
0.0611242
0.258059
0.0543654
0.257681
0.0473486
0.0402809
0.253998
-0.108994
-0.177978
0.104433
-0.112596
-0.184045
-0.115195
-0.188259
-0.116763
-0.190516
-0.117284
-0.190748
-0.116752
-0.188927
-0.115171
-0.185068
-0.112553
-0.179225
-0.108914
-0.171493
-0.104274
-0.162001
-0.0986549
-0.150911
-0.0920781
-0.13841
-0.0845647
-0.124709
-0.0761337
-0.110035
-0.066802
-0.0946231
-0.0565841
-0.0787152
-0.0454934
-0.0625535
-0.0335423
-0.0463759
-0.0207448
-0.0304131
-0.00711779
-0.0148854
0.00731609
0
0.0225257
0.0140508
0.0384685
0.0270914
0.0550869
0.0389649
0.0723055
0.0495345
0.0900277
0.0586857
0.108133
0.0663277
0.126475
0.0723961
0.144881
0.0768543
0.163149
0.0796956
0.18105
0.0809446
0.19833
0.0806579
0.214716
0.078924
0.229913
0.0758621
0.243618
0.07162
0.255525
0.0663705
0.26533
0.0603066
0.272744
0.0536359
0.277502
0.0465739
0.27937
0.0393372
0.032136
0.278158
-0.114542
-0.187751
0.110572
-0.117608
-0.192868
-0.119724
-0.196168
-0.12086
-0.197547
-0.120995
-0.196939
-0.12012
-0.194318
-0.118235
-0.189701
-0.115345
-0.183145
-0.111461
-0.174745
-0.106598
-0.164635
-0.100772
-0.152978
-0.0939994
-0.139966
-0.0862953
-0.125813
-0.0776738
-0.110749
-0.0681469
-0.0950131
-0.0577249
-0.0788509
-0.0464165
-0.0625074
-0.0342304
-0.0462235
-0.0211766
-0.0302322
-0.00726865
-0.014755
0.00747442
-6.41627e-17
0.0230248
0.013841
0.0393432
0.026594
0.0563754
0.0381049
0.0740496
0.0482411
0.092273
0.0568937
0.110929
0.0639792
0.129877
0.0694415
0.148948
0.0732542
0.167948
0.0754217
0.186654
0.0759807
0.204822
0.0750007
0.222186
0.0725834
0.238466
0.0688614
0.25337
0.0639951
0.266606
0.0581691
0.277887
0.0515868
0.286942
0.0444642
0.293524
0.0370234
0.29742
0.0294848
0.0220599
0.298458
-0.118115
-0.194388
0.114611
-0.120762
-0.19872
-0.122509
-0.201266
-0.12332
-0.201926
-0.123174
-0.200636
-0.122058
-0.197373
-0.119965
-0.192157
-0.116897
-0.185045
-0.112861
-0.176138
-0.107866
-0.165569
-0.101923
-0.153507
-0.0950447
-0.140147
-0.087241
-0.125703
-0.0785217
-0.11041
-0.0688949
-0.0945105
-0.0583668
-0.0782516
-0.0469427
-0.0618815
-0.034628
-0.0456431
-0.0214297
-0.0297708
-0.0073583
-0.0144871
0.00756982
0
0.0233296
0.0134996
0.0398845
0.0258398
0.0571833
0.0368697
0.0751571
0.0464613
0.0937167
0.0545116
0.11275
0.0609445
0.132119
0.0657125
0.151661
0.0687989
0.171188
0.0702192
0.190485
0.0700219
0.209315
0.0682888
0.227423
0.065134
0.244538
0.0607024
0.260382
0.0551661
0.274675
0.0487201
0.287146
0.041577
0.29754
0.0339602
0.305625
0.0260966
0.311206
0.0182094
0.0105105
0.314127
-0.119627
-0.197609
0.116435
-0.122001
-0.20138
-0.123512
-0.203386
-0.124126
-0.203531
-0.123817
-0.201757
-0.122569
-0.198044
-0.120374
-0.192414
-0.117229
-0.184929
-0.113137
-0.175693
-0.108103
-0.164843
-0.102135
-0.152548
-0.0952413
-0.139007
-0.0874281
-0.124439
-0.0787018
-0.109079
-0.0690673
-0.093173
-0.0585279
-0.0769707
-0.0470864
-0.0607222
-0.0347456
-0.0446719
-0.0215102
-0.0290554
-0.0073888
-0.0140956
0.00760431
-6.74097e-17
0.023446
0.0130418
0.0401017
0.0248603
0.0575224
0.0353082
0.0756415
0.0442624
0.0943724
0.051626
0.113606
0.0573302
0.133209
0.0613363
0.153022
0.0636373
0.172863
0.0642596
0.192522
0.063263
0.211771
0.0607411
0.230362
0.0568203
0.248033
0.0516569
0.264518
0.045434
0.279547
0.0383564
0.292861
0.0306452
0.304217
0.0225302
0.313396
0.0142431
0.320213
0.00600971
-0.00195765
0.324522
-0.119075
0.116025
-0.121333
-0.122754
-0.123303
-0.122955
-0.121691
-0.119501
-0.116381
-0.112329
-0.10735
-0.101447
-0.0946254
-0.0868897
-0.0782438
-0.0686901
-0.0582301
-0.0468648
-0.0345955
-0.0214257
-0.00736266
0.00758036
0.0233813
0.0400066
0.0574084
0.0755217
0.0942615
0.113521
0.133169
0.15305
0.172985
0.19277
0.212181
0.230976
0.248902
0.265697
0.281102
0.294864
0.306746
0.316537
0.324055
0.329157
0.0407858
0.301553
0.0573878
0.297698
0.0719347
0.288974
0.0836987
0.275765
0.0921165
0.258575
0.0968153
0.238008
0.0976302
0.214748
0.0946135
0.189537
0.0880354
0.16316
0.0783776
0.136419
0.06632
0.110124
0.0527201
0.0850705
0.0385861
0.0620245
0.025042
0.0417032
0.0132859
0.0247578
0.00454087
0.011754
0.00315328
0.0469663
0.273645
0.0625472
0.270523
0.0762176
0.263301
0.0873437
0.252278
0.095426
0.237843
0.100121
0.220465
0.101255
0.200673
0.0988349
0.179047
0.0930451
0.1562
0.0842499
0.132766
0.0729816
0.109391
0.0599279
0.0867127
0.0459129
0.0653571
0.0318732
0.0459201
0.0188282
0.0289575
0.00784532
0.0149706
0.00439339
0.0521797
0.245926
0.0667093
0.243469
0.0794775
0.237574
0.0899314
0.228469
0.0976273
0.216452
0.102248
0.20188
0.103613
0.18516
0.10169
0.166737
0.0965932
0.147086
0.0885857
0.126704
0.0780724
0.106095
0.0655922
0.0857681
0.0518049
0.0662257
0.0374755
0.0479548
0.0234531
0.0314187
0.0106474
0.0170482
0.00523188
0.0563365
0.218836
0.0697981
0.216963
0.081648
0.21222
0.0914033
0.204779
0.098669
0.194863
0.103151
0.182741
0.104667
0.16872
0.103152
0.15314
0.098661
0.136363
0.0913728
0.118771
0.0815837
0.100756
0.0697038
0.0827177
0.0562486
0.0650523
0.0418286
0.0481511
0.0271355
0.0323926
0.0129254
0.0181366
0.00571779
0.0593835
0.19275
0.0717731
0.191375
0.0826976
0.187616
0.0917356
0.181601
0.0985351
0.173493
0.102824
0.163492
0.104419
0.151826
0.103231
0.138751
0.0992676
0.124538
0.0926371
0.109479
0.0835448
0.0938724
0.072291
0.0780263
0.0592667
0.0622503
0.044946
0.0468527
0.0298778
0.032136
0.0146747
0.0183935
0.00590427
0.0613032
0.167982
0.0726277
0.167018
0.0826288
0.164086
0.0909388
0.159278
0.0972439
0.152711
0.101293
0.14453
0.102905
0.134904
0.101973
0.124019
0.0984677
0.112078
0.09244
0.0992975
0.08402
0.0859036
0.0734168
0.0721294
0.060915
0.0582121
0.046871
0.0443902
0.0317074
0.030901
0.0159061
0.0179774
0.00584564
0.062111
0.144775
0.072387
0.144141
0.0814749
0.141892
0.0890537
0.138093
0.0948446
0.132826
0.0986167
0.126195
0.100193
0.11832
0.0994561
0.109337
0.0963476
0.0993927
0.0908738
0.0886466
0.0831047
0.0772656
0.073174
0.0654234
0.0612779
0.0532985
0.0476729
0.0410719
0.0326727
0.0289256
0.0166437
0.0170404
0.00559477
0.0618504
0.123308
0.0711033
0.122929
0.0792954
0.121234
0.0861477
0.118268
0.0914124
0.114088
0.0948789
0.108764
0.0963774
0.102382
0.0957832
0.095037
0.0930189
0.0868347
0.0880566
0.0778891
0.0809189
0.0683215
0.0716795
0.0582587
0.0604627
0.0478321
0.0474422
0.0371763
0.0328397
0.0264278
0.0169224
0.0157238
0.00520122
0.060588
0.103694
0.0688503
0.103504
0.0761709
0.102251
0.0823079
0.0999651
0.0870425
0.0966829
0.0901834
0.092453
0.0915703
0.0873329
0.0910765
0.0813888
0.088612
0.074694
0.0841244
0.0673287
0.0776007
0.0593788
0.0690681
0.0509349
0.0585936
0.0420917
0.0462844
0.0329468
0.0322869
0.0236004
0.0167852
0.0141539
0.00470974
0.0584068
0.0859884
0.0657166
0.0859305
0.0721959
0.0850241
0.0776354
0.0832857
0.081843
0.0807394
0.0846467
0.0774165
0.0858972
0.0733551
0.0854703
0.0685993
0.0832688
0.0631989
0.0792246
0.0572087
0.073299
0.050688
0.0654846
0.0436999
0.0558049
0.0363108
0.0443149
0.02859
0.0311011
0.0206088
0.0162804
0.0124405
0.00415939
0.0553992
0.0701933
0.0617996
0.0702226
0.0674721
0.0695814
0.0722374
0.0682789
0.0759278
0.0663295
0.0783903
0.0637525
0.079488
0.060572
0.0791024
0.0568165
0.0771348
0.0525187
0.0735076
0.0477147
0.0681659
0.0424444
0.0610776
0.0367503
0.0522345
0.0306778
0.0416528
0.0242744
0.0293727
0.0175898
0.0154589
0.0106752
0.00358312
0.0516611
0.0562686
0.057198
0.0563487
0.0621022
0.0559067
0.0662209
0.0549468
0.0694095
0.0534769
0.0715336
0.0515081
0.0724697
0.0490549
0.0721077
0.0461348
0.0703514
0.0427684
0.0671202
0.0389788
0.0623495
0.0347915
0.055992
0.0302345
0.0480177
0.0253375
0.0384152
0.0201324
0.0271913
0.0146524
0.0143715
0.00893218
0.0030077
0.047285
0.0441388
0.0520061
0.0442423
0.0561826
0.0439466
0.0596861
0.0432527
0.0623932
0.0421643
0.0641875
0.0406873
0.0649601
0.0388297
0.064611
0.0366018
0.0630503
0.0340157
0.0601986
0.0310854
0.0559881
0.0278267
0.0503633
0.0242572
0.0432815
0.0203957
0.0347131
0.0162625
0.0246424
0.0118792
0.0130673
0.00726852
0.00245402
0.0423547
0.0337033
0.0463081
0.0338105
0.049799
0.0336194
0.052721
0.0331296
0.0549706
0.032342
0.0564489
0.0312594
0.057062
0.0298857
0.0567218
0.0282262
0.0553469
0.0262879
0.0528631
0.0240787
0.0492043
0.0216077
0.0443129
0.0188855
0.0381403
0.0159233
0.0306471
0.0127337
0.0218038
0.00932995
0.0115912
0.00572626
0.00193758
0.0369407
0.0248452
0.0401738
0.0249429
0.0430214
0.0248247
0.045397
0.0244895
0.0472161
0.0239369
0.0483965
0.0231677
0.0488595
0.0221835
0.0485299
0.0209868
0.047337
0.019581
0.0452146
0.0179703
0.042102
0.0161596
0.0379443
0.0141549
0.0326925
0.0119624
0.0263043
0.00958953
0.018744
0.00704399
0.00998297
0.00433423
0.00146924
0.0310971
0.0174402
0.0336554
0.0175204
0.0359011
0.0174515
0.0377663
0.0172319
0.0391837
0.016861
0.0400879
0.0163384
0.0404149
0.0156646
0.0401033
0.0148405
0.0390942
0.0138674
0.0373318
0.0127473
0.0347636
0.0114826
0.0313409
0.0100764
0.027019
0.00853201
0.0217575
0.00685327
0.0155203
0.00504448
0.00827657
0.00311035
0.00105596
0.0248595
0.011364
0.0267856
0.0114231
0.0284694
0.0113862
0.0298598
0.011252
0.0309061
0.0110198
0.0315584
0.0106889
0.0317679
0.0102592
0.0314868
0.0097308
0.0306693
0.00910414
0.029271
0.00837994
0.0272499
0.00755923
0.0245661
0.00664333
0.0211824
0.00563384
0.017064
0.00453265
0.0121793
0.0033419
0.00649976
0.00206399
0.000701588
0.0182441
0.00649937
0.0195776
0.00653681
0.0207374
0.00651978
0.0216881
0.00644747
0.0223946
0.00631925
0.0228221
0.00613466
0.0229362
0.00589336
0.0227034
0.00559522
0.0220909
0.00524025
0.021067
0.00482862
0.0196011
0.00436066
0.017664
0.00383685
0.015228
0.00325784
0.012267
0.00262441
0.00875661
0.0019375
0.00467445
0.00119819
0.000407696
0.0112489
0.00274116
0.0120255
0.00275843
0.0126967
0.00275285
0.013242
0.00272405
0.013641
0.00267169
0.0138731
0.00259552
0.0139182
0.00249533
0.0137566
0.002371
0.0133687
0.00222244
0.0127357
0.00204965
0.0118392
0.00185269
0.0106617
0.00163167
0.00918636
0.00138677
0.00739707
0.00111825
0.00527879
0.000826389
0.00281744
0.000511568
0.00017421
0.00385551
3.67065e-18
0.00410709
2.91092e-18
0.00432297
3.11982e-18
0.00449647
3.0359e-18
0.00462092
2.36303e-18
0.00468968
2.24904e-18
0.00469621
2.14029e-18
0.00463402
1.60417e-18
0.00449679
1.11606e-18
0.00427832
7.96191e-19
0.00397263
4.50016e-19
0.0035739
4.52328e-19
0.00307659
5.62186e-19
0.0024754
3.94056e-19
0.00176532
2.01213e-19
0.00094164
8.06562e-20
1.61401e-20
-0.00396769
-0.00179531
-0.00421255
-0.00180904
-0.00442084
-0.00180785
-0.00458606
-0.00179142
-0.0047017
-0.00175946
-0.0047613
-0.00171173
-0.00475848
-0.00164803
-0.00468697
-0.00156817
-0.00454059
-0.00147205
-0.00431336
-0.00135957
-0.00399947
-0.00123071
-0.0035933
-0.00108545
-0.00308949
-0.000923856
-0.00248292
-0.00074602
-0.00176878
-0.000552083
-0.000942535
-0.000342232
-0.000116701
-0.012261
-0.00269703
-0.0129767
-0.00272096
-0.0135794
-0.00272242
-0.0140499
-0.00270084
-0.0143692
-0.0026557
-0.0145186
-0.00258653
-0.0144794
-0.00249296
-0.0142335
-0.00237464
-0.0137632
-0.00223132
-0.0130511
-0.0020628
-0.0120808
-0.00186898
-0.0108363
-0.00164981
-0.00930233
-0.00140533
-0.00746468
-0.00113567
-0.00530989
-0.000841023
-0.00282547
-0.000521689
-0.000178037
-0.0210681
-0.00273911
-0.0222313
-0.00277032
-0.023199
-0.00277861
-0.0239402
-0.00276319
-0.0244241
-0.00272336
-0.0246201
-0.00265845
-0.0244986
-0.00256788
-0.0240306
-0.00245115
-0.0231879
-0.00230784
-0.0219436
-0.00213761
-0.0202719
-0.00194024
-0.0181482
-0.00171559
-0.0155495
-0.00146364
-0.0124543
-0.00118448
-0.00884268
-0.000878316
-0.00469666
-0.000545479
-0.000186417
-0.0304306
-0.00193896
-0.0320189
-0.00197572
-0.0333219
-0.00199621
-0.0342969
-0.00199942
-0.034902
-0.00198442
-0.0350962
-0.00195029
-0.0348395
-0.00189621
-0.0340938
-0.00182143
-0.0328222
-0.00172526
-0.0309898
-0.00160714
-0.0285638
-0.00146662
-0.0255135
-0.00130337
-0.0218106
-0.00111719
-0.0174295
-0.000908044
-0.012347
-0.000676018
-0.00654298
-0.000421378
-0.000144546
-0.0403816
-0.000300377
-0.0423726
-0.000342765
-0.0439791
-0.000382848
-0.0451476
-0.000419338
-0.0458256
-0.000450932
-0.0459627
-0.000476334
-0.0455105
-0.000494283
-0.044423
-0.000503574
-0.042657
-0.000503085
-0.0401723
-0.000491796
-0.0369318
-0.000468815
-0.0329018
-0.000433391
-0.0280525
-0.000384939
-0.0223576
-0.00032305
-0.0157952
-0.000247505
-0.00834726
-0.000158287
-5.55823e-05
-0.0509394
0.00218269
-0.0533093
0.00213222
-0.0551846
0.00206227
-0.0565012
0.00197463
-0.0571974
0.00187124
-0.0572147
0.00175408
-0.056498
0.00162519
-0.0549959
0.00148656
-0.0526615
0.00134015
-0.0494523
0.00118783
-0.0453306
0.0010313
-0.0402639
0.000872132
-0.034225
0.000711692
-0.0271923
0.000551128
-0.0191497
0.000391357
-0.010087
0.000233048
7.66188e-05
-0.0621017
0.00552181
-0.0648243
0.0054578
-0.0669293
0.005344
-0.0683427
0.00518312
-0.0689949
0.00497816
-0.0688211
0.00473234
-0.0677616
0.00444898
-0.0657628
0.00413147
-0.0627773
0.00378322
-0.0587642
0.0034075
-0.0536898
0.00300751
-0.0475276
0.00258622
-0.0402585
0.00214639
-0.0318709
0.00169051
-0.0223613
0.00122079
-0.0117337
0.000739145
0.0002472
-0.0738406
0.00972938
-0.0768859
0.0096427
-0.0791759
0.00946655
-0.0806277
0.00920513
-0.0811653
0.00886323
-0.0807197
0.00844604
-0.0792297
0.00795903
-0.0766428
0.00740784
-0.0729154
0.00679819
-0.0680131
0.00613572
-0.0619114
0.00542595
-0.0545956
0.00467418
-0.0460612
0.00388544
-0.0363137
0.00306444
-0.0253688
0.00221556
-0.0132523
0.00134283
0.00044997
-0.0860982
0.0148137
-0.0894318
0.0146911
-0.0918556
0.0144288
-0.0932795
0.0140334
-0.0936226
0.0135126
-0.0928148
0.0128745
-0.0907968
0.0121281
-0.0875216
0.0112824
-0.0829543
0.0103466
-0.0770729
0.00933005
-0.0698684
0.0082418
-0.061345
0.00709069
-0.0515198
0.00588524
-0.0404233
0.00463359
-0.0280986
0.00334348
-0.0146015
0.0020223
0.000677078
-0.098784
0.0207746
-0.102366
0.0205979
-0.104866
0.0202196
-0.106187
0.01965
-0.106246
0.0189008
-0.104976
0.0179848
-0.102323
0.0169158
-0.098251
0.015708
-0.0927399
0.0143759
-0.0857869
0.0129339
-0.0774059
0.0113963
-0.0676278
0.0097772
-0.0565001
0.00809009
-0.0440864
0.00634816
-0.0304663
0.00456411
-0.0157345
0.00275029
0.000918726
-0.111773
0.0275986
-0.115559
0.0273448
-0.11807
0.0268142
-0.119205
0.0260224
-0.118882
0.0249871
-0.117039
0.0237279
-0.113635
0.0222653
-0.108651
0.0206209
-0.102088
0.0188164
-0.0939704
0.0168738
-0.0843438
0.0148145
-0.0732745
0.0126598
-0.0608497
0.0104304
-0.0471759
0.00814647
-0.0323784
0.0058277
-0.0166
0.00349347
0.00116295
-0.124909
0.0352558
-0.128848
0.0348966
-0.131298
0.0341705
-0.132156
0.0331005
-0.131343
0.0317128
-0.128809
0.030036
-0.124531
0.0281005
-0.118513
0.0259377
-0.110788
0.0235794
-0.101415
0.0210575
-0.0904809
0.0184034
-0.0780981
0.015648
-0.064403
0.0128217
-0.0495553
0.00995409
-0.0337357
0.00707455
-0.0171447
0.00421204
0.00139549
-0.138003
0.0436967
-0.142042
0.0431986
-0.144353
0.0422268
-0.144835
0.0408142
-0.143417
0.0389986
-0.140067
0.0368209
-0.134785
0.0343247
-0.127608
0.0315546
-0.11861
0.0285557
-0.107895
0.025373
-0.0956022
0.0220511
-0.0819004
0.0186337
-0.0669865
0.0151637
-0.0510833
0.0116834
-0.0344371
0.00823488
-0.0173145
0.00485974
0.00159979
-0.150841
0.05285
-0.154923
0.0521752
-0.157014
0.0509006
-0.157016
0.0490727
-0.154872
0.0467445
-0.150573
0.0439735
-0.144153
0.0408203
-0.135691
0.0373468
-0.125311
0.0336156
-0.113175
0.0296886
-0.0994859
0.0256272
-0.0844799
0.0214916
-0.0684256
0.0173411
-0.05162
0.0132342
-0.0343838
0.00922918
-0.0170581
0.00538412
0.00175714
-0.16319
0.062622
-0.167257
0.0617288
-0.169044
0.0600882
-0.168458
0.0577643
-0.165463
0.0548299
-0.16008
0.051364
-0.152386
0.0474491
-0.142513
0.0431696
-0.130647
0.0386099
-0.117021
0.0338537
-0.101913
0.0289835
-0.0856394
0.0240804
-0.0685526
0.0192243
-0.051033
0.0144943
-0.0334845
0.00996919
-0.0163291
0.00572738
0.00184696
-0.174805
0.0728962
-0.1788
0.0717407
-0.180199
0.0696656
-0.178918
0.0667575
-0.174944
0.0631147
-0.16834
0.0588435
-0.159235
0.0540544
-0.147829
0.0488598
-0.13438
0.0433718
-0.119206
0.037701
-0.102675
0.0319562
-0.0851957
0.0262445
-0.0672142
0.0206715
-0.0492045
0.0153419
-0.0316608
0.0103596
-0.0150894
0.00582756
0.00184736
-0.185439
0.0835347
-0.189311
0.0820724
-0.19024
0.0794904
-0.188155
0.0759036
-0.183077
0.0714424
-0.175116
0.0662473
-0.164468
0.060464
-0.151409
0.0542394
-0.13629
0.0477198
-0.119526
0.0410491
-0.101587
0.0343685
-0.0829881
0.0278169
-0.06428
0.0215314
-0.0460382
0.0156477
-0.0288516
0.0103001
-0.0133117
0.00562038
0.0017358
-0.194852
0.0943794
-0.198555
0.0925682
-0.198938
0.0894051
-0.195948
0.08504
-0.189643
0.0796434
-0.180193
0.0733983
-0.167873
0.0664935
-0.153052
0.0591187
-0.136186
0.0514617
-0.117804
0.0437068
-0.0984933
0.0360345
-0.0788866
0.0286225
-0.0596496
0.0216461
-0.041465
0.0152783
-0.0250185
0.00968885
-0.0109826
0.0050415
0.00149006
-0.202821
0.105256
-0.206319
0.103058
-0.206089
0.09924
-0.202098
0.0939938
-0.19445
0.0875393
-0.183386
0.0801114
-0.169272
0.0719516
-0.152589
0.0633014
-0.133913
0.0543988
-0.113903
0.0454767
-0.0932773
0.0367632
-0.0728001
0.0284828
-0.0532594
0.0208563
-0.0354493
0.0141007
-0.0201495
0.00842578
-0.00810439
0.00402941
0.0010894
-0.209149
0.115974
-0.212418
0.113363
-0.211521
0.108819
-0.206444
0.102587
-0.197347
0.0949481
-0.184551
0.0861989
-0.168532
0.0766447
-0.149897
0.0665894
-0.129361
0.056331
-0.107729
0.0461608
-0.0858683
0.0363638
-0.064682
0.0272203
-0.0450883
0.0190052
-0.0279929
0.0119862
-0.0142627
0.00641717
-0.00469763
0.00252879
0.000515904
0.323901
0.00213296
-0.329208
0.316191
0.00889248
0.306229
0.0157638
0.294204
0.0225844
0.280334
0.0291864
0.264858
0.0353998
0.248028
0.0410571
0.230104
0.0459971
0.21134
0.0500682
0.191988
0.0531317
0.172283
0.0550648
0.152442
0.055763
0.132663
0.0551417
0.11312
0.0531382
0.0939612
0.0497125
0.0753133
0.0448479
0.0572787
0.0385514
0.039939
0.0308534
0.0233566
0.0218076
0.0075776
0.0114904
-0.00736541
4.38678e-15
-0.0214504
-0.0125442
-0.0346631
-0.0260028
-0.0469945
-0.0402171
-0.0584386
-0.0550112
-0.0689904
-0.0701927
-0.0786447
-0.0855553
-0.087395
-0.100881
-0.095233
-0.115943
-0.102149
-0.130511
-0.108132
-0.14435
-0.11317
-0.157233
-0.117253
-0.168941
-0.120374
-0.17927
-0.122529
-0.188037
-0.123722
-0.195087
-0.123963
-0.200298
-0.123271
-0.203586
-0.121679
-0.204907
-0.119229
-0.204262
-0.201699
0.322932
0.0149545
-0.327595
0.315758
0.0214489
0.306231
0.0279655
0.294545
0.0343444
0.280927
0.0404221
0.265625
0.046036
0.248903
0.0510275
0.231028
0.0552456
0.212269
0.0585503
0.192884
0.0608154
0.173118
0.0619307
0.153196
0.0618041
0.133322
0.0603633
0.113677
0.057557
0.0944141
0.0533558
0.0756644
0.0477523
0.0575338
0.0407618
0.0401066
0.0324214
0.0234476
0.0227905
0.00760447
0.0119496
-0.00738864
-2.25734e-15
-0.0215087
-0.0129371
-0.0347407
-0.0267215
-0.047075
-0.0411949
-0.058505
-0.056182
-0.0690256
-0.0714924
-0.0786311
-0.0869218
-0.0873148
-0.102255
-0.095068
-0.117268
-0.101881
-0.131731
-0.107741
-0.145416
-0.112639
-0.158096
-0.116562
-0.169554
-0.119504
-0.179588
-0.121461
-0.188018
-0.122437
-0.194689
-0.122442
-0.199481
-0.121499
-0.20231
-0.119639
-0.203135
-0.116908
-0.201959
-0.198832
0.316558
0.0269448
-0.31992
0.31051
0.0331912
0.301946
0.039371
0.291075
0.0453263
0.278137