/*--------------------------------*- C++ -*----------------------------------*\
  =========                 |
  \\      /  F ield         | OpenFOAM: The Open Source CFD Toolbox
   \\    /   O peration     | Website:  https://openfoam.org
    \\  /    A nd           | Version:  6
     \\/     M anipulation  |
\*---------------------------------------------------------------------------*/
FoamFile
{
    version     2.0;
    format      ascii;
    class       volScalarField;
    location    "4.96";
    object      p;
}
// * * * * * * * * * * * * * * * * * * * * * * * * * * * * * * * * * * * * * //

dimensions      [1 -1 -2 0 0 0 0];

internalField   nonuniform List<scalar> 
5625
(
1.00012
1.00018
1.00027
1.00039
1.00056
1.00079
1.00109
1.00149
1.00199
1.00261
1.00335
1.00423
1.00524
1.00638
1.00765
1.00902
1.01047
1.01198
1.01352
1.01507
1.01658
1.01805
1.01943
1.02072
1.0219
1.02296
1.02388
1.02468
1.02534
1.02587
1.02626
1.02653
1.02668
1.0267
1.02659
1.02635
1.02599
1.02549
1.02485
1.02408
1.02316
1.0221
1.02091
1.01961
1.0182
1.01671
1.01516
1.0136
1.01204
1.01053
1.00909
1.00774
1.00651
1.0054
1.00442
1.00357
1.00285
1.00224
1.00173
1.00132
1.001
1.00074
1.00054
1.00038
1.00026
1.00018
1.00012
1.00007
1.00004
1.00002
1
0.999995
0.999991
0.999988
0.999988
1.00018
1.00027
1.00039
1.00056
1.0008
1.00112
1.00153
1.00207
1.00273
1.00355
1.00452
1.00565
1.00693
1.00836
1.00993
1.01159
1.01333
1.0151
1.01688
1.01863
1.0203
1.02189
1.02336
1.02469
1.02589
1.02693
1.02782
1.02857
1.02919
1.02967
1.03003
1.03027
1.0304
1.03042
1.03033
1.03013
1.02981
1.02936
1.02879
1.02806
1.02719
1.02616
1.02496
1.02361
1.02212
1.02049
1.01877
1.01699
1.01517
1.01338
1.01164
1.00998
1.00845
1.00705
1.0058
1.00471
1.00377
1.00298
1.00232
1.00178
1.00134
1.001
1.00073
1.00052
1.00036
1.00025
1.00016
1.0001
1.00006
1.00003
1.00001
0.999997
0.99999
0.999987
0.999986
1.00026
1.00038
1.00055
1.00079
1.00112
1.00155
1.00211
1.00282
1.0037
1.00475
1.00599
1.00742
1.00902
1.01077
1.01265
1.01462
1.01663
1.01864
1.0206
1.02248
1.02424
1.02585
1.0273
1.02858
1.02968
1.03061
1.03138
1.03201
1.0325
1.03287
1.03314
1.03332
1.03341
1.03343
1.03337
1.03323
1.033
1.03267
1.03222
1.03164
1.03091
1.03001
1.02892
1.02765
1.02617
1.02452
1.02271
1.02077
1.01875
1.01669
1.01465
1.01267
1.01081
1.00908
1.00752
1.00614
1.00495
1.00392
1.00307
1.00236
1.00179
1.00134
1.00098
1.0007
1.00049
1.00034
1.00022
1.00014
1.00008
1.00004
1.00002
1
0.999991
0.999985
0.999984
1.00037
1.00054
1.00077
1.0011
1.00154
1.00212
1.00286
1.00379
1.00492
1.00626
1.00782
1.00958
1.01153
1.01362
1.01581
1.01806
1.02029
1.02246
1.02452
1.02642
1.02814
1.02965
1.03094
1.03202
1.03291
1.03361
1.03415
1.03455
1.03484
1.03504
1.03517
1.03525
1.03529
1.0353
1.03528
1.03522
1.03512
1.03496
1.03471
1.03437
1.03389
1.03324
1.0324
1.03135
1.03005
1.02852
1.02675
1.02478
1.02264
1.02039
1.0181
1.01582
1.01361
1.01154
1.00963
1.00792
1.00642
1.00512
1.00402
1.00312
1.00237
1.00178
1.00131
1.00095
1.00067
1.00046
1.00031
1.0002
1.00012
1.00007
1.00003
1.00001
0.999992
0.999985
0.999982
1.00051
1.00074
1.00107
1.00151
1.00209
1.00286
1.00382
1.00501
1.00644
1.00813
1.01004
1.01217
1.01448
1.01689
1.01936
1.02181
1.02417
1.02637
1.02838
1.03015
1.03165
1.0329
1.03388
1.03463
1.03516
1.03551
1.03572
1.03581
1.03583
1.0358
1.03576
1.03571
1.03567
1.03566
1.03568
1.03572
1.03577
1.03582
1.03585
1.03581
1.03568
1.03541
1.03496
1.03429
1.03335
1.03212
1.03059
1.02876
1.02666
1.02435
1.02189
1.01937
1.01685
1.01443
1.01216
1.01008
1.00822
1.00661
1.00523
1.00407
1.00312
1.00235
1.00174
1.00127
1.0009
1.00063
1.00042
1.00028
1.00017
1.0001
1.00005
1.00002
0.999997
0.999985
0.99998
1.00071
1.00102
1.00145
1.00203
1.0028
1.00379
1.00503
1.00654
1.00832
1.01038
1.01269
1.01519
1.01782
1.02051
1.02316
1.02569
1.02802
1.03009
1.03186
1.0333
1.03441
1.03522
1.03573
1.036
1.03607
1.03598
1.03577
1.0355
1.0352
1.03491
1.03465
1.03446
1.03433
1.0343
1.03435
1.03449
1.03471
1.03499
1.03531
1.03563
1.03592
1.03612
1.03618
1.03603
1.03562
1.0349
1.03381
1.03234
1.0305
1.02831
1.02585
1.0232
1.02046
1.01773
1.0151
1.01264
1.0104
1.00842
1.00671
1.00526
1.00406
1.00308
1.00229
1.00168
1.00121
1.00085
1.00058
1.00038
1.00024
1.00014
1.00008
1.00003
1
0.999988
0.99998
1.00096
1.00137
1.00194
1.00271
1.00371
1.00497
1.00653
1.0084
1.01059
1.01305
1.01574
1.01858
1.02148
1.02432
1.027
1.02943
1.03153
1.03325
1.03458
1.0355
1.03604
1.03625
1.03618
1.03587
1.0354
1.03481
1.03416
1.0335
1.03287
1.03231
1.03184
1.03149
1.03127
1.0312
1.03129
1.03152
1.03189
1.0324
1.03301
1.03369
1.03441
1.03511
1.03574
1.03623
1.03648
1.03643
1.036
1.03513
1.03378
1.03196
1.02972
1.02713
1.0243
1.02136
1.01842
1.01559
1.01297
1.0106
1.00851
1.00672
1.00522
1.00399
1.00299
1.00221
1.00159
1.00113
1.00078
1.00052
1.00033
1.0002
1.00011
1.00005
1.00002
0.999993
0.99998
1.00128
1.00183
1.00257
1.00356
1.00483
1.00643
1.00837
1.01065
1.01325
1.01612
1.01916
1.02225
1.02527
1.0281
1.03061
1.03271
1.03435
1.0355
1.03618
1.03642
1.03626
1.03578
1.03504
1.03412
1.03309
1.032
1.03092
1.02989
1.02896
1.02815
1.02748
1.027
1.0267
1.02659
1.02669
1.027
1.0275
1.02819
1.02905
1.03006
1.03117
1.03236
1.03355
1.03468
1.03566
1.03639
1.03677
1.0367
1.03609
1.0349
1.03314
1.03086
1.02815
1.02516
1.02203
1.01891
1.01591
1.01314
1.01065
1.00848
1.00664
1.00511
1.00386
1.00287
1.00209
1.00149
1.00104
1.0007
1.00046
1.00029
1.00017
1.00009
1.00003
1
0.999983
1.00169
1.00241
1.00337
1.00463
1.00623
1.0082
1.01056
1.01328
1.01631
1.01953
1.02282
1.02602
1.02897
1.03155
1.03364
1.03517
1.03613
1.03653
1.03641
1.03585
1.03492
1.03372
1.03233
1.03082
1.02928
1.02775
1.0263
1.02496
1.02377
1.02276
1.02194
1.02135
1.02098
1.02084
1.02095
1.0213
1.02189
1.02271
1.02376
1.02502
1.02645
1.02804
1.02972
1.03144
1.03312
1.03464
1.03589
1.03674
1.03706
1.03675
1.03575
1.03406
1.03175
1.02893
1.02579
1.02248
1.01918
1.01603
1.01314
1.01057
1.00834
1.00647
1.00493
1.00368
1.0027
1.00194
1.00137
1.00094
1.00062
1.0004
1.00024
1.00013
1.00006
1.00002
0.999989
1.00222
1.00314
1.00436
1.00594
1.00792
1.01032
1.01314
1.01629
1.01968
1.02316
1.02654
1.02963
1.03227
1.03434
1.03576
1.03651
1.03661
1.03613
1.03514
1.03376
1.03209
1.03021
1.02824
1.02623
1.02426
1.02239
1.02065
1.01908
1.01772
1.01657
1.01565
1.01498
1.01456
1.0144
1.0145
1.01487
1.01551
1.01641
1.01758
1.01899
1.02065
1.02252
1.02457
1.02676
1.02901
1.03124
1.03333
1.03512
1.03646
1.03719
1.03718
1.03636
1.03473
1.03238
1.02946
1.02616
1.02269
1.01924
1.01597
1.01298
1.01035
1.0081
1.00622
1.00469
1.00347
1.00251
1.00178
1.00123
1.00083
1.00054
1.00033
1.00019
1.0001
1.00004
0.999999
1.00287
1.00404
1.00557
1.00753
1.00994
1.01281
1.01607
1.01962
1.02327
1.02683
1.03007
1.03279
1.03485
1.03617
1.03671
1.03651
1.03566
1.03426
1.03243
1.0303
1.02796
1.02553
1.02309
1.0207
1.01844
1.01633
1.01441
1.0127
1.01123
1.01001
1.00903
1.00832
1.00788
1.0077
1.0078
1.00817
1.00882
1.00975
1.01096
1.01245
1.01422
1.01626
1.01854
1.02103
1.0237
1.02648
1.02925
1.03189
1.03422
1.03605
1.03717
1.03744
1.03678
1.03519
1.03277
1.02973
1.02627
1.02265
1.01907
1.01571
1.01266
1.01
1.00775
1.00589
1.00439
1.00321
1.0023
1.0016
1.00109
1.00072
1.00045
1.00027
1.00015
1.00007
1.00001
1.00368
1.00515
1.00705
1.00943
1.01232
1.01565
1.01932
1.02315
1.02689
1.03029
1.03312
1.03519
1.03642
1.03678
1.03631
1.03512
1.03332
1.03107
1.0285
1.02573
1.02288
1.02003
1.01727
1.01464
1.0122
1.00996
1.00796
1.0062
1.0047
1.00346
1.00248
1.00176
1.00131
1.00112
1.0012
1.00156
1.00219
1.00311
1.00431
1.00581
1.00761
1.0097
1.01207
1.01473
1.01764
1.02076
1.02402
1.02732
1.03049
1.03333
1.03561
1.03709
1.03759
1.03704
1.03544
1.03293
1.02975
1.02614
1.02238
1.0187
1.01526
1.01219
1.00954
1.00732
1.0055
1.00405
1.00293
1.00206
1.00142
1.00095
1.00061
1.00037
1.00021
1.0001
1.00004
1.00468
1.00649
1.00881
1.01167
1.01503
1.0188
1.02278
1.02671
1.03029
1.03325
1.03539
1.03657
1.03678
1.03608
1.03457
1.03242
1.02978
1.02681
1.02364
1.02041
1.0172
1.0141
1.01115
1.00841
1.0059
1.00363
1.00163
0.999894
0.998419
0.997206
0.996253
0.995556
0.995114
0.994926
0.994993
0.995321
0.995916
0.996786
0.997939
0.999386
1.00114
1.0032
1.00557
1.00825
1.01125
1.01453
1.01807
1.0218
1.02559
1.02926
1.03257
1.03524
1.03701
1.03768
1.03716
1.0355
1.03286
1.02951
1.02576
1.02188
1.01812
1.01465
1.01159
1.00898
1.00681
1.00506
1.00369
1.00263
1.00183
1.00123
1.00081
1.0005
1.0003
1.00016
1.00007
1.00588
1.00809
1.01087
1.01423
1.01805
1.02216
1.02628
1.03007
1.03321
1.03545
1.03664
1.03676
1.03587
1.0341
1.03163
1.02865
1.02532
1.0218
1.01822
1.01469
1.01128
1.00805
1.00505
1.0023
0.999812
0.997603
0.995668
0.994003
0.992602
0.991456
0.990557
0.989898
0.989476
0.989288
0.989337
0.989626
0.990163
0.99096
0.992029
0.993384
0.99504
0.997009
0.999303
1.00193
1.00489
1.00819
1.01182
1.01576
1.01992
1.02416
1.02829
1.03201
1.035
1.03698
1.03773
1.03717
1.03537
1.03256
1.02903
1.02513
1.02115
1.01735
1.01389
1.01088
1.00833
1.00625
1.00459
1.0033
1.00232
1.00159
1.00105
1.00067
1.00041
1.00023
1.00011
1.00731
1.00997
1.01326
1.01709
1.0213
1.0256
1.02961
1.03297
1.03538
1.03665
1.03674
1.03573
1.03376
1.03103
1.02774
1.0241
1.02026
1.01638
1.01255
1.00886
1.00538
1.00215
0.999184
0.996512
0.994132
0.992039
0.990226
0.988681
0.987389
0.986337
0.985513
0.984906
0.984509
0.984322
0.984345
0.984582
0.985044
0.985745
0.9867
0.987929
0.989451
0.991284
0.993445
0.995947
0.998801
1.00202
1.00561
1.00957
1.01387
1.01845
1.02312
1.02765
1.03171
1.03495
1.03703
1.03775
1.03705
1.03505
1.03202
1.02831
1.02427
1.02022
1.01642
1.01301
1.01007
1.00763
1.00566
1.0041
1.00291
1.00201
1.00135
1.00088
1.00054
1.00032
1.00017
1.00899
1.01215
1.01594
1.0202
1.02465
1.0289
1.03253
1.03517
1.0366
1.03674
1.03568
1.03357
1.03063
1.0271
1.02319
1.01907
1.01491
1.01081
1.00687
1.00316
0.999711
0.996564
0.993728
0.991205
0.988988
0.987065
0.985419
0.984029
0.982877
0.981943
0.981211
0.980666
0.9803
0.980111
0.980099
0.980272
0.980639
0.981218
0.982029
0.983097
0.984446
0.986103
0.988087
0.990419
0.993113
0.996182
0.999642
1.00351
1.0078
1.01247
1.01744
1.02251
1.02739
1.03172
1.03508
1.03715
1.03773
1.03679
1.03453
1.03124
1.02734
1.02319
1.01911
1.01534
1.01202
1.0092
1.00689
1.00504
1.00361
1.00252
1.00171
1.00113
1.00071
1.00043
1.00024
1.01095
1.01462
1.01887
1.02344
1.02792
1.03185
1.03479
1.03646
1.03676
1.03573
1.03356
1.03048
1.02676
1.02262
1.01825
1.01383
1.00948
1.00531
1.00138
0.997734
0.994414
0.991432
0.988788
0.986474
0.984475
0.982769
0.981329
0.980131
0.979147
0.978353
0.977729
0.977257
0.976927
0.976734
0.976679
0.976771
0.977024
0.977454
0.978089
0.978957
0.980091
0.981525
0.983287
0.985403
0.987893
0.99077
0.994051
0.997756
1.00191
1.00653
1.01157
1.01692
1.02236
1.02753
1.03201
1.03539
1.03731
1.03762
1.03636
1.03377
1.03022
1.02614
1.02191
1.01784
1.01416
1.01096
1.00829
1.00612
1.00442
1.00312
1.00215
1.00143
1.00092
1.00057
1.00033
1.01317
1.01734
1.02197
1.02666
1.03091
1.03423
1.03623
1.03676
1.03587
1.03372
1.03058
1.02672
1.02239
1.01781
1.01316
1.00858
1.00418
1.00003
0.996195
0.992709
0.989589
0.986839
0.984449
0.982403
0.980673
0.979229
0.978038
0.977067
0.976281
0.975652
0.975153
0.974767
0.974478
0.974281
0.974176
0.974173
0.974288
0.974544
0.974967
0.975593
0.976464
0.97762
0.979104
0.980949
0.983182
0.985823
0.988883
0.992382
0.996345
1.0008
1.00577
1.01119
1.01691
1.02266
1.02804
1.03257
1.03582
1.03746
1.03739
1.03572
1.03277
1.02896
1.02472
1.02046
1.01645
1.01289
1.00985
1.00736
1.00537
1.00382
1.00265
1.00179
1.00117
1.00073
1.00044
1.01565
1.02026
1.02511
1.02969
1.03341
1.03584
1.03673
1.03607
1.03404
1.03092
1.02698
1.02251
1.01775
1.01289
1.00809
1.00346
0.999101
0.995073
0.991419
0.988163
0.985314
0.982861
0.980788
0.979066
0.977659
0.976527
0.975627
0.974919
0.974364
0.973925
0.973574
0.973286
0.973046
0.972848
0.97269
0.972581
0.972541
0.972594
0.972772
0.973115
0.973671
0.97449
0.975628
0.977132
0.979042
0.981383
0.984173
0.987424
0.991156
0.995402
1.00019
1.00553
1.01134
1.01741
1.02342
1.02889
1.03334
1.03631
1.03753
1.03698
1.03484
1.03151
1.02745
1.02312
1.01887
1.01498
1.01158
1.00873
1.00643
1.00463
1.00325
1.00222
1.00147
1.00094
1.00057
1.01835
1.02328
1.02814
1.03232
1.03525
1.03659
1.03629
1.0345
1.03147
1.02753
1.02298
1.01807
1.01302
1.008
1.00315
0.998576
0.994347
0.990519
0.987122
0.98417
0.98166
0.979572
0.977879
0.97654
0.97551
0.974739
0.974176
0.97377
0.973476
0.973254
0.973069
0.972895
0.972715
0.97252
0.972308
0.972089
0.97188
0.97171
0.971616
0.971639
0.971832
0.972257
0.972978
0.974061
0.975563
0.977526
0.979974
0.982919
0.986375
0.990366
0.994926
1.00008
1.00582
1.01202
1.01841
1.02458
1.03004
1.03424
1.03678
1.03745
1.03632
1.03369
1.02999
1.02573
1.02135
1.01718
1.01345
1.01025
1.00763
1.00554
1.00392
1.00271
1.00182
1.00118
1.00073
1.02119
1.02626
1.03088
1.03438
1.0363
1.03648
1.03502
1.0322
1.02834
1.02376
1.01875
1.01353
1.00832
1.00325
0.998448
0.994005
0.989987
0.986436
0.983371
0.980796
0.978696
0.977043
0.975795
0.974899
0.974301
0.973938
0.973751
0.973681
0.973674
0.973688
0.973685
0.973637
0.973524
0.973337
0.973075
0.972746
0.972366
0.971965
0.971581
0.971259
0.971056
0.971038
0.97128
0.971865
0.972869
0.974356
0.976368
0.978928
0.982044
0.985731
0.990015
0.994931
1.0005
1.00665
1.01322
1.01986
1.0261
1.03138
1.03517
1.03712
1.03713
1.03538
1.03224
1.02823
1.02383
1.01946
1.01543
1.0119
1.00895
1.00656
1.00469
1.00327
1.00222
1.00146
1.00092
1.02407
1.02907
1.03316
1.03575
1.03654
1.03556
1.03306
1.02937
1.02483
1.01977
1.01442
1.00902
1.00374
0.998706
0.994038
0.989811
0.986083
0.982886
0.98023
0.978107
0.976491
0.975341
0.974601
0.974206
0.974087
0.974172
0.974389
0.974673
0.974966
0.97522
0.9754
0.975478
0.975433
0.975258
0.974951
0.974519
0.973979
0.973355
0.972683
0.972012
0.971399
0.970913
0.970635
0.97066
0.971085
0.971998
0.973471
0.975542
0.97823
0.981543
0.985496
0.990118
0.995438
1.00144
1.00803
1.01493
1.02173
1.02788
1.0328
1.03601
1.03724
1.0365
1.0341
1.0305
1.02623
1.02177
1.0175
1.01366
1.01038
1.00769
1.00555
1.00391
1.00268
1.00178
1.00114
1.02688
1.03154
1.03486
1.03638
1.03602
1.03397
1.03056
1.02616
1.0211
1.01567
1.01011
1.00462
0.999349
0.994439
0.989984
0.986054
0.982695
0.97993
0.977759
0.976164
0.975103
0.974522
0.974347
0.974499
0.974892
0.97544
0.976064
0.976695
0.977273
0.977749
0.978091
0.978276
0.97829
0.978125
0.97778
0.977262
0.976583
0.975763
0.974834
0.973838
0.972832
0.971884
0.971078
0.970514
0.970305
0.970566
0.971398
0.972872
0.975026
0.977873
0.981421
0.985689
0.990703
0.996475
1.00295
1.00994
1.0171
1.02393
1.02981
1.03419
1.03664
1.03703
1.03551
1.03249
1.02849
1.02405
1.01962
1.01551
1.01192
1.00892
1.00651
1.00462
1.0032
1.00215
1.0014
1.02947
1.03354
1.0359
1.03631
1.03485
1.03186
1.02769
1.02272
1.01725
1.01156
1.00588
1.00038
0.995215
0.990506
0.986343
0.982787
0.979874
0.97762
0.976013
0.975017
0.974578
0.974619
0.97505
0.975769
0.976676
0.977672
0.978671
0.979602
0.980411
0.981058
0.981516
0.981772
0.98182
0.981657
0.981283
0.980701
0.979921
0.978955
0.977825
0.976564
0.975219
0.973855
0.972553
0.971414
0.97056
0.970125
0.970243
0.97102
0.97253
0.974805
0.977857
0.981696
0.986339
0.991805
0.99807
1.00501
1.01236
1.01966
1.02634
1.03176
1.03539
1.03694
1.03642
1.03412
1.03055
1.02625
1.02174
1.01742
1.01354
1.01024
1.00754
1.00541
1.00378
1.00257
1.00169
1.03172
1.03498
1.03629
1.0356
1.03316
1.02935
1.02456
1.01914
1.01337
1.00752
1.00179
0.996367
0.991385
0.986955
0.983161
0.980056
0.977668
0.976001
0.975029
0.974698
0.974932
0.97563
0.976675
0.977945
0.979322
0.980702
0.981995
0.983138
0.984086
0.984818
0.985321
0.985594
0.985641
0.985468
0.985077
0.984469
0.983642
0.982599
0.98135
0.979913
0.978323
0.976631
0.97491
0.973256
0.971793
0.970669
0.970041
0.970057
0.970829
0.972427
0.97488
0.9782
0.982397
0.987487
0.993462
1.00025
1.00763
1.01523
1.02251
1.02882
1.03355
1.03625
1.0368
1.03535
1.03234
1.02831
1.02382
1.01936
1.01523
1.01164
1.00866
1.00627
1.00443
1.00304
1.00202
1.03352
1.03584
1.03608
1.03437
1.03107
1.02658
1.02128
1.0155
1.00952
1.00359
0.997902
0.99263
0.987905
0.983829
0.980479
0.9779
0.976113
0.975104
0.974831
0.975215
0.976149
0.977501
0.979126
0.980878
0.982628
0.984271
0.985729
0.986952
0.987918
0.988625
0.989085
0.989311
0.989322
0.98913
0.98874
0.988148
0.987344
0.986312
0.985047
0.983549
0.981834
0.979937
0.977915
0.975854
0.973869
0.972111
0.970759
0.969991
0.969969
0.970804
0.972561
0.975266
0.978932
0.98357
0.989178
0.995708
1.00301
1.01076
1.01847
1.02551
1.03121
1.03502
1.03666
1.03615
1.03381
1.03017
1.02582
1.02128
1.01696
1.01311
1.00985
1.0072
1.00513
1.00355
1.00239
1.03483
1.03614
1.03535
1.03272
1.02868
1.02362
1.01791
1.01187
1.00577
0.999831
0.994257
0.989209
0.984812
0.981163
0.978328
0.976349
0.975231
0.974944
0.975418
0.976539
0.97816
0.980113
0.982223
0.984329
0.986299
0.988039
0.989493
0.990639
0.991482
0.992048
0.992372
0.992491
0.992435
0.992222
0.99186
0.991341
0.990639
0.989723
0.988561
0.987132
0.985432
0.983474
0.981297
0.978967
0.976587
0.974302
0.972295
0.970775
0.969943
0.969964
0.970946
0.972949
0.975997
0.980102
0.985267
0.991459
0.998565
1.00633
1.01431
1.02192
1.02846
1.03331
1.03602
1.0365
1.03494
1.03181
1.02769
1.02317
1.0187
1.01462
1.01109
1.00819
1.00588
1.00411
1.0028
1.03564
1.03594
1.03419
1.03076
1.02609
1.02056
1.01453
1.0083
1.00215
0.99628
0.990893
0.986138
0.982135
0.97898
0.976732
0.97542
0.975034
0.975514
0.976753
0.978591
0.980835
0.983275
0.985717
0.987994
0.989989
0.991629
0.992893
0.993796
0.994375
0.994685
0.994789
0.994743
0.994594
0.994366
0.994068
0.993684
0.993177
0.992491
0.991567
0.990354
0.98882
0.986956
0.984782
0.982343
0.979721
0.977047
0.974501
0.972306
0.970698
0.969892
0.970052
0.971281
0.973631
0.977126
0.981772
0.987547
0.994368
1.00203
1.01014
1.01817
1.02541
1.03118
1.03493
1.03642
1.0357
1.03318
1.02941
1.02498
1.02044
1.01616
1.01239
1.00923
1.00669
1.00472
1.00324
1.03597
1.0353
1.0327
1.02857
1.02336
1.01745
1.01118
1.00484
0.998703
0.992974
0.987836
0.983438
0.979896
0.977298
0.975701
0.975117
0.975507
0.976776
0.978759
0.98124
0.983979
0.986736
0.989305
0.991535
0.993337
0.994676
0.995568
0.996065
0.996243
0.996188
0.995987
0.995719
0.995447
0.995208
0.995011
0.994834
0.994623
0.994298
0.993763
0.99293
0.99173
0.990129
0.988122
0.98574
0.983044
0.980143
0.977203
0.974448
0.972138
0.970536
0.969861
0.970271
0.97186
0.974673
0.978727
0.984012
0.990464
0.997916
1.00605
1.01434
1.02214
1.02872
1.03344
1.03592
1.03611
1.03427
1.03092
1.02668
1.02213
1.0177
1.01372
1.01031
1.00754
1.00537
1.00372
1.03588
1.03432
1.03095
1.02622
1.02056
1.01434
1.0079
1.00153
0.995471
0.989938
0.985108
0.981126
0.978105
0.976127
0.975237
0.975427
0.976617
0.978652
0.981305
0.984299
0.987351
0.990208
0.992674
0.994629
0.996023
0.996864
0.997207
0.997141
0.996776
0.996233
0.995628
0.995065
0.994629
0.994371
0.994307
0.994409
0.994608
0.994792
0.994824
0.994566
0.9939
0.992752
0.991096
0.988944
0.986345
0.983387
0.980216
0.977045
0.974146
0.971814
0.970327
0.969903
0.970685
0.972757
0.976156
0.980882
0.986892
0.99405
1.00208
1.01052
1.01874
1.02601
1.03161
1.03506
1.03615
1.03506
1.03223
1.02826
1.02376
1.01924
1.01506
1.01143
1.00843
1.00605
1.00423
1.03543
1.03305
1.02901
1.02376
1.01773
1.01128
1.00474
0.99839
0.992472
0.987191
0.982723
0.979211
0.976767
0.975464
0.975328
0.976315
0.978291
0.981026
0.984219
0.987542
0.990686
0.993406
0.995537
0.996999
0.997781
0.997932
0.997544
0.99674
0.995666
0.994483
0.993345
0.992391
0.99173
0.991433
0.991525
0.991978
0.992705
0.993565
0.994372
0.994922
0.995032
0.994571
0.993477
0.991748
0.989425
0.986586
0.983358
0.979934
0.976584
0.973626
0.971384
0.970138
0.970095
0.971383
0.974071
0.97818
0.98368
0.990466
0.998301
1.00677
1.01529
1.02312
1.02951
1.03386
1.03587
1.03556
1.0333
1.02967
1.0253
1.02073
1.01641
1.01257
1.00935
1.00677
1.00476
1.03468
1.03157
1.02694
1.02125
1.01492
1.00831
1.00172
0.99545
0.989721
0.984743
0.980688
0.977696
0.975878
0.975296
0.975942
0.977722
0.980426
0.983741
0.987299
0.990733
0.993734
0.996086
0.997663
0.998423
0.998391
0.997645
0.996314
0.994559
0.992572
0.990562
0.988734
0.987269
0.986309
0.985947
0.986217
0.98709
0.988466
0.990175
0.991982
0.993609
0.994786
0.995299
0.995029
0.993949
0.992099
0.989561
0.986451
0.982948
0.979305
0.975849
0.972941
0.970919
0.970055
0.970537
0.972474
0.975913
0.980847
0.987193
0.994751
1.00316
1.01185
1.02012
1.0272
1.03239
1.03528
1.03577
1.03415
1.03092
1.02673
1.02218
1.01774
1.01372
1.0103
1.00751
1.00533
1.0337
1.02993
1.02479
1.01873
1.01217
1.00544
0.998872
0.992723
0.98723
0.982599
0.979003
0.976578
0.975428
0.975596
0.97703
0.97956
0.982889
0.986621
0.990334
0.993652
0.996285
0.998054
0.998869
0.998717
0.997646
0.995763
0.993234
0.990273
0.987133
0.984084
0.98139
0.979286
0.977952
0.977502
0.977977
0.979343
0.981488
0.984215
0.987244
0.990229
0.992797
0.994624
0.995497
0.99534
0.99419
0.992143
0.989332
0.985924
0.982158
0.978356
0.974898
0.972174
0.970522
0.970194
0.971353
0.974084
0.978403
0.984251
0.991461
0.999709
1.00848
1.01708
1.02474
1.03069
1.03442
1.03572
1.03475
1.03199
1.02805
1.02356
1.01904
1.01487
1.01125
1.00827
1.00591
1.03253
1.02818
1.0226
1.01624
1.0095
1.00272
0.996202
0.99022
0.985004
0.98076
0.977662
0.975844
0.975395
0.976322
0.978517
0.981717
0.985528
0.989485
0.993138
0.996122
0.99818
0.999163
0.999004
0.997705
0.995335
0.992033
0.988015
0.983564
0.979007
0.974693
0.970955
0.968086
0.966307
0.965757
0.966479
0.968427
0.971466
0.975372
0.979828
0.98443
0.988711
0.992218
0.994607
0.995709
0.99553
0.994192
0.991859
0.988717
0.984998
0.981009
0.97714
0.973815
0.971432
0.970315
0.970688
0.972682
0.976347
0.981649
0.988452
0.996467
1.00522
1.01406
1.02218
1.02881
1.03333
1.03542
1.03514
1.03288
1.02924
1.02485
1.0203
1.016
1.01221
1.00904
1.00651
1.03122
1.02636
1.02041
1.01381
1.00694
1.00014
0.993725
0.987946
0.983044
0.979223
0.976656
0.975473
0.975741
0.977418
0.980313
0.984065
0.988189
0.992171
0.995558
0.99801
0.999298
0.999291
0.997927
0.995217
0.991255
0.986221
0.9804
0.974154
0.967902
0.962082
0.95711
0.953345
0.951058
0.950409
0.951444
0.954093
0.958184
0.963447
0.969526
0.975971
0.982247
0.987782
0.992079
0.994827
0.995953
0.995579
0.99392
0.991209
0.987696
0.983681
0.979548
0.975742
0.972713
0.97085
0.970448
0.971692
0.974673
0.979391
0.985735
0.993455
1.00212
1.01109
1.01959
1.02681
1.03205
1.0349
1.03531
1.03358
1.03028
1.02606
1.02151
1.01711
1.01316
1.00982
1.00712
1.02982
1.02451
1.01825
1.01146
1.0045
0.997728
0.991444
0.985905
0.981344
0.977975
0.975966
0.975437
0.97642
0.978809
0.982317
0.986477
0.990733
0.994549
0.997484
0.999222
0.999549
0.998333
0.995511
0.991104
0.985235
0.978141
0.970183
0.961815
0.953557
0.945954
0.939524
0.934707
0.931834
0.931099
0.932547
0.936073
0.941439
0.948301
0.956235
0.964745
0.973252
0.981106
0.987669
0.99246
0.995272
0.996174
0.995419
0.993312
0.990155
0.986262
0.982011
0.977855
0.97428
0.971738
0.97059
0.971087
0.97337
0.977472
0.983318
0.990689
0.999185
1.00821
1.01701
1.02473
1.03063
1.0342
1.03529
1.03411
1.03119
1.02716
1.02265
1.01818
1.0141
1.0106
1.00773
1.02836
1.02267
1.01615
1.00921
1.0022
0.995484
0.989365
0.984092
0.979897
0.977001
0.97557
0.975701
0.977378
0.980415
0.984421
0.988835
0.993048
0.996523
0.998838
0.999688
0.998856
0.996202
0.99166
0.98526
0.97716
0.967659
0.957194
0.946323
0.935685
0.925954
0.917776
0.911701
0.908142
0.907335
0.909327
0.913971
0.920936
0.929754
0.939882
0.950742
0.961718
0.972126
0.981242
0.988429
0.993306
0.995834
0.996257
0.994951
0.992299
0.988664
0.984432
0.980058
0.976049
0.972908
0.971063
0.970833
0.972414
0.975884
0.9812
0.988178
0.996453
1.00547
1.01447
1.02262
1.02911
1.03335
1.03509
1.03448
1.03196
1.02815
1.02372
1.01921
1.01501
1.01136
1.00835
1.02688
1.02085
1.01412
1.00707
1.00005
0.993415
0.987482
0.9825
0.97869
0.976281
0.975436
0.976218
0.978549
0.982151
0.986528
0.991039
0.995051
0.99803
0.999568
0.99936
0.997174
0.992855
0.986328
0.977636
0.966966
0.954669
0.941265
0.927427
0.913939
0.901643
0.891349
0.883751
0.879367
0.87849
0.881178
0.887234
0.896215
0.907484
0.920303
0.93394
0.947707
0.96091
0.972805
0.982661
0.989934
0.994431
0.996333
0.996054
0.99407
0.990823
0.986735
0.982267
0.977939
0.974291
0.971812
0.970889
0.971778
0.974608
0.979374
0.985925
0.993933
1.00287
1.01201
1.0205
1.02751
1.03237
1.03475
1.03469
1.03259
1.02904
1.02471
1.02018
1.01589
1.01211
1.00895
1.02541
1.01909
1.01217
1.00505
0.998056
0.991522
0.985792
0.981119
0.977709
0.975791
0.975529
0.97694
0.979867
0.983936
0.988553
0.993019
0.996685
0.99903
0.999648
0.998221
0.994494
0.988289
0.97952
0.968227
0.954614
0.939073
0.922212
0.904841
0.887934
0.87255
0.859711
0.850287
0.844918
0.843964
0.847497
0.855275
0.866736
0.881039
0.897189
0.914203
0.931238
0.947566
0.962471
0.975212
0.985137
0.991899
0.995568
0.996556
0.995416
0.992688
0.988858
0.984411
0.979876
0.975818
0.972779
0.971208
0.971429
0.973623
0.977828
0.983928
0.991631
1.00044
1.00965
1.01842
1.02588
1.03131
1.03429
1.03477
1.03309
1.02981
1.02561
1.02109
1.01674
1.01284
1.00955
1.02397
1.0174
1.01033
1.00317
0.996223
0.989804
0.984287
0.979936
0.976934
0.975505
0.97581
0.977816
0.981267
0.985695
0.990429
0.994721
0.997917
0.999505
0.999077
0.996287
0.990847
0.982547
0.971277
0.957058
0.940085
0.920784
0.899861
0.878307
0.857348
0.838327
0.82252
0.810991
0.804499
0.803467
0.80798
0.817758
0.83213
0.850051
0.87022
0.891321
0.912246
0.932158
0.950372
0.966205
0.978984
0.988246
0.993936
0.996417
0.996299
0.99422
0.990755
0.986431
0.981794
0.977425
0.973905
0.971745
0.971331
0.972903
0.976545
0.982181
0.989549
0.998186
1.00742
1.0164
1.02425
1.03019
1.03373
1.03473
1.03348
1.03049
1.02643
1.02195
1.01753
1.01353
1.01012
1.02258
1.01581
1.00859
1.00142
0.994549
0.988261
0.982955
0.978933
0.976345
0.975392
0.976239
0.978792
0.982689
0.98737
0.992106
0.996115
0.998736
0.999465
0.997884
0.993608
0.9863
0.975707
0.961677
0.944184
0.923394
0.89976
0.874119
0.847714
0.822106
0.798973
0.779871
0.766045
0.758353
0.757263
0.762866
0.774858
0.792479
0.814498
0.839309
0.865199
0.890693
0.914739
0.936633
0.955788
0.971594
0.983539
0.991456
0.995633
0.996702
0.995398
0.992395
0.988285
0.983638
0.979051
0.975135
0.972449
0.971444
0.972418
0.975506
0.980671
0.987687
0.996121
1.00532
1.01446
1.02264
1.02904
1.03309
1.0346
1.03375
1.03106
1.02717
1.02273
1.01828
1.0142
1.01068
1.02124
1.01432
1.00698
0.999797
0.993031
0.986888
0.981787
0.978092
0.975919
0.975422
0.97677
0.979819
0.984083
0.988915
0.993553
0.997191
0.999152
0.998941
0.996124
0.990262
0.980949
0.967875
0.950826
0.929706
0.904624
0.876074
0.845091
0.813261
0.78255
0.755002
0.732432
0.716231
0.707322
0.706196
0.712956
0.727285
0.748364
0.77481
0.804732
0.836006
0.866705
0.895445
0.921424
0.944144
0.963124
0.977887
0.988188
0.994231
0.996636
0.996219
0.993764
0.989943
0.985366
0.980645
0.976414
0.973273
0.971728
0.972138
0.974688
0.979385
0.986039
0.994247
1.00338
1.01263
1.02108
1.02788
1.0324
1.03438
1.03394
1.03154
1.02782
1.02345
1.01898
1.01482
1.0112
1.01997
1.01294
1.00552
0.998305
0.991659
0.985684
0.980774
0.97739
0.975631
0.975565
0.977365
0.980852
0.985408
0.990298
0.994755
0.997953
0.999194
0.997985
0.993875
0.986351
0.974915
0.959189
0.938883
0.913794
0.883973
0.849998
0.813192
0.77557
0.739531
0.70746
0.681387
0.66281
0.652691
0.651538
0.659468
0.676169
0.700778
0.731796
0.767097
0.804169
0.840592
0.874542
0.905001
0.93152
0.953789
0.971444
0.984227
0.992259
0.996125
0.996694
0.994858
0.991389
0.986948
0.982168
0.977699
0.974172
0.972144
0.972028
0.974066
0.978306
0.984595
0.992561
1.0016
1.01092
1.01959
1.02674
1.03169
1.0341
1.03404
1.03193
1.02839
1.02409
1.01962
1.0154
1.0117
1.01877
1.01168
1.00419
0.996947
0.99042
0.984643
0.97991
0.976801
0.975453
0.975798
0.977985
0.981848
0.986631
0.991499
0.995705
0.998421
0.998909
0.996667
0.99123
0.981994
0.968347
0.94983
0.926056
0.896711
0.861803
0.82207
0.779208
0.735689
0.694316
0.657767
0.628259
0.607379
0.596106
0.594946
0.604028
0.623044
0.651104
0.686627
0.727321
0.770354
0.812824
0.852385
0.88768
0.918217
0.943856
0.964421
0.979711
0.989797
0.99521
0.996844
0.995689
0.992619
0.988364
0.983587
0.978949
0.975105
0.972653
0.972058
0.973614
0.977415
0.983344
0.99106
0.999985
1.00933
1.01819
1.02564
1.03096
1.03377
1.03408
1.03224
1.02888
1.02467
1.0202
1.01594
1.01216
1.01765
1.01052
1.00303
0.995732
0.989295
0.983747
0.979192
0.976308
0.975354
0.976093
0.9786
0.982772
0.987732
0.992512
0.996412
0.99863
0.998356
0.995067
0.988291
0.977327
0.961424
0.940013
0.91262
0.878833
0.83867
0.793104
0.744238
0.694965
0.648429
0.607585
0.574855
0.551906
0.539676
0.538606
0.548798
0.569955
0.60119
0.640897
0.686692
0.735524
0.784073
0.829445
0.869821
0.904548
0.933613
0.95706
0.974821
0.98696
0.993956
0.996705
0.996271
0.993635
0.989605
0.984879
0.980131
0.976035
0.973219
0.972195
0.973306
0.976693
0.982275
0.98974
0.998535
1.00789
1.01688
1.02459
1.03025
1.03342
1.03406
1.03249
1.0293
1.02517
1.02072
1.01642
1.01258
1.01662
1.00946
1.00203
0.994681
0.988275
0.982972
0.978622
0.9759
0.975293
0.976426
0.979192
0.98359
0.988696
0.99335
0.996895
0.998613
0.997603
0.993274
0.985169
0.972502
0.954346
0.930002
0.898919
0.860648
0.815295
0.76411
0.709563
0.654887
0.603535
0.558789
0.52331
0.498784
0.485985
0.485177
0.496388
0.519345
0.553234
0.59651
0.646796
0.700923
0.75525
0.806353
0.851874
0.890863
0.92335
0.949607
0.96975
0.983885
0.99245
0.996326
0.996632
0.994448
0.990665
0.986026
0.98122
0.97693
0.973809
0.97241
0.973119
0.976121
0.981373
0.988593
0.99725
1.00659
1.01569
1.02361
1.02957
1.03306
1.03399
1.03267
1.02965
1.02561
1.02118
1.01685
1.01296
1.01573
1.00847
1.00115
0.993814
0.987365
0.982279
0.978191
0.975578
0.975238
0.97677
0.979751
0.984279
0.989507
0.994028
0.997183
0.998412
0.996722
0.991387
0.981982
0.967679
0.947343
0.920101
0.885362
0.842735
0.792494
0.736163
0.676494
0.616971
0.561382
0.513404
0.475929
0.450528
0.437648
0.437267
0.449301
0.473545
0.509349
0.555344
0.609258
0.667897
0.727397
0.783869
0.834377
0.877561
0.913386
0.942318
0.964695
0.980713
0.990785
0.995765
0.996806
0.995075
0.991549
0.987021
0.982197