/*--------------------------------*- C++ -*----------------------------------*\
  =========                 |
  \\      /  F ield         | OpenFOAM: The Open Source CFD Toolbox
   \\    /   O peration     | Website:  https://openfoam.org
    \\  /    A nd           | Version:  6
     \\/     M anipulation  |
\*---------------------------------------------------------------------------*/
FoamFile
{
    version     2.0;
    format      ascii;
    class       surfaceScalarField;
    location    "1.5";
    object      meshPhi;
}
// * * * * * * * * * * * * * * * * * * * * * * * * * * * * * * * * * * * * * //

dimensions      [0 3 -1 0 0 0 0];

internalField   nonuniform List<scalar> 
8193
(
0.00311945
0.000576292
-0.00129224
0.00429978
0.0010056
0.00494565
0.00129414
0.00518075
0.00143927
0.00512839
0.0014493
0.00490185
0.00134146
0.00459706
0.00113942
0.00428786
0.000870667
0.00402385
0.00056397
0.00383046
0.00024715
0.00371086
-5.47101e-05
0.0036493
-0.00032057
0.0036153
-0.000534223
0.00356829
-0.000684641
0.00346232
-0.000765916
0.00325052
-0.000776933
0.00288911
-0.000720826
0.00234091
-0.000604346
0.00157813
-0.000437166
0.000584667
-0.000231211
-0.000642292
-9.92617e-22
-0.00209125
0.000241967
-0.00373593
0.000479816
-0.0055355
0.000698903
-0.00743535
0.000885441
-0.00936864
0.00102717
-0.0112586
0.00111407
-0.0130218
0.00113908
-0.0145716
0.0010988
-0.0158232
0.000994112
-0.0166986
0.000830615
-0.0171319
0.000618815
-0.0170747
0.000373931
-0.0165009
0.00011529
-0.0154107
-0.000134779
-0.0138322
-0.000352517
-0.0118224
-0.000514731
-0.00946458
-0.000601098
-0.00686432
-0.000596571
-0.00414223
-0.000493656
-0.000294295
-0.0014253
0.0101409
0.00329339
-0.00574907
0.0128978
0.00469077
0.014341
0.00555166
0.0148038
0.0058857
0.0146046
0.0057381
0.0140256
0.00518193
0.0132979
0.00430944
0.0125923
0.00322304
0.0120162
0.00202687
0.0116162
0.000819585
0.0113838
-0.000311424
0.011265
-0.00129403
0.0111712
-0.00207369
0.0109909
-0.00261427
0.0106016
-0.0028976
0.00988053
-0.00292207
0.00871475
-0.00270072
0.00700921
-0.00225892
0.00469386
-0.00163198
0.00172904
-0.000862869
-0.00189053
0
-0.00613305
0.000904829
-0.0109284
0.00179843
-0.0161685
0.00262823
-0.0217084
0.00334438
-0.0273704
0.00390197
-0.0329489
0.00426349
-0.0382178
0.00440131
-0.0429396
0.00430022
-0.046877
0.00395963
-0.049805
0.00339532
-0.0515255
0.00264038
-0.0518807
0.00174488
-0.0507665
0.000774261
-0.0481438
-0.000194024
-0.0440465
-0.00107542
-0.0385851
-0.00178475
-0.0319453
-0.00224375
-0.0243805
-0.00238933
-0.0161984
-0.0021815
-0.00161044
-0.00774234
0.0186315
0.00919166
-0.0131483
0.0219446
0.0116014
0.0235663
0.0128996
0.0239672
0.0131395
0.0235792
0.0124381
0.022771
0.01096
0.0218331
0.00890104
0.0209693
0.00647125
0.020296
0.00387925
0.019848
0.00131906
0.0195882
-0.00104007
0.0194213
-0.0030606
0.0192091
-0.00464045
0.0187866
-0.00571398
0.0179772
-0.00625063
0.0166073
-0.006252
0.0145192
-0.00574779
0.0115816
-0.00479131
0.00769886
-0.00345485
0.00281813
-0.00182531
-0.00306548
-9.10879e-15
-0.00990509
0.00191716
-0.0176001
0.00381939
-0.0259957
0.00560071
-0.0348852
0.00715992
-0.0440129
0.00840481
-0.0530813
0.00925677
-0.0617595
0.00965569
-0.0696952
0.00956486
-0.0765292
0.00897556
-0.0819119
0.00791072
-0.0855228
0.0064272
-0.0870892
0.00461587
-0.0864057
0.00259919
-0.0833518
0.000525655
-0.0779053
-0.00143878
-0.070152
-0.00312228
-0.0602881
-0.00436102
-0.0486161
-0.00501446
-0.0355327
-0.0049808
-0.00421096
-0.0215091
0.0276671
0.0186936
-0.0220572
0.0309669
0.0217525
0.0325137
0.0230435
0.0328332
0.0226959
0.0323902
0.0209263
0.0315685
0.0180159
0.0306578
0.0142843
0.029849
0.0100654
0.0292363
0.00568446
0.0288254
0.0014394
0.0285463
-0.0024134
0.0282686
-0.00566856
0.0278191
-0.00817645
0.0269989
-0.00984385
0.0256004
-0.0106314
0.0234228
-0.0105485
0.0202856
-0.00964722
0.0160402
-0.00801521
0.0105798
-0.00576864
0.00384675
-0.00304559
-0.00416116
0
-0.0133865
0.00320409
-0.0237096
0.00639789
-0.0349475
0.00941336
-0.0468554
0.0120889
-0.0591298
0.0142757
-0.0714145
0.0158447
-0.0833097
0.0166938
-0.0943841
0.0167559
-0.10419
0.0160056
-0.112282
0.0144655
-0.118236
0.0122105
-0.121675
0.0093682
-0.122287
0.00611682
-0.119849
0.00267766
-0.114245
-0.000696558
-0.10548
-0.00373788
-0.0936882
-0.00618303
-0.0791346
-0.00779568
-0.0622084
-0.00838935
-0.00784885
-0.0434083
0.0367634
0.0316198
-0.031477
0.0398853
0.0346936
0.041396
0.0353592
0.0418004
0.0338435
0.0415311
0.030479
0.0409334
0.0256726
0.0402561
0.0198728
0.0396503
0.0135383
0.039173
0.0071091
0.0387975
0.000983174
0.0384261
-0.00450105
0.0379062
-0.00907599
0.037047
-0.0125502
0.0356363
-0.0148082
0.0334573
-0.0158069
0.0303026
-0.0155679
0.0259881
-0.0141695
0.0203637
-0.011737
0.0133228
-0.00843306
0.00481007
-0.00444976
-0.00517252
2.7428e-17
-0.016561
0.00468954
-0.0292262
0.0093854
-0.0429722
0.0138543
-0.0575369
0.0178706
-0.0725939
0.0212246
-0.0877578
0.0237312
-0.102592
0.0252404
-0.11662
0.0256472
-0.12934
0.0249013
-0.14024
0.0230162
-0.148823
0.0200748
-0.154624
0.0162318
-0.157236
0.0117114
-0.156333
0.00679917
-0.151689
0.00182781
-0.143198
-0.00284259
-0.130885
-0.00684942
-0.114915
-0.00985577
-0.0955901
-0.0115799
-0.0118232
-0.0733462
0.0459226
0.0472922
-0.0409749
0.0490046
0.0496322
0.050703
0.0490172
0.0514454
0.0457795
0.0515891
0.0403681
0.0514089
0.0333114
0.051093
0.0251782
0.0507425
0.0165412
0.0503771
0.00794292
0.0499438
-0.000130774
0.0493296
-0.00727092
0.0483755
-0.0131579
0.0468916
-0.0175669
0.0446718
-0.0203672
0.0415088
-0.0215163
0.0372065
-0.0210517
0.0315925
-0.0190791
0.0245273
-0.0157619
0.0159137
-0.0113091
0.0057037
-0.00596499
-0.00609552
-1.58819e-20
-0.0194168
0.00629847
-0.0341294
0.012634
-0.0500367
0.0187095
-0.0668756
0.0242359
-0.0843178
0.028942
-0.101973
0.0325859
-0.119397
0.0349661
-0.136096
0.0359353
-0.151546
0.0354118
-0.165202
0.0333909
-0.176521
0.029953
-0.184979
0.0252675
-0.190096
0.0195903
-0.191456
0.0132565
-0.188728
0.00666387
-0.181689
0.000250666
-0.170234
-0.00553269
-0.154393
-0.0102565
-0.134333
-0.0135461
-0.0151158
-0.110358
0.0556012
0.0647028
-0.0507152
0.058947
0.0655925
0.0611204
0.0631221
0.0624417
0.0577231
0.0631718
0.0499493
0.0635052
0.0404347
0.0635665
0.0298511
0.0634115
0.0188661
0.0630312
0.00810699
0.0623598
-0.00186931
0.0612843
-0.0105977
0.0596562
-0.0177185
0.0573034
-0.0229826
0.0540429
-0.0262501
0.049692
-0.0274832
0.0440797
-0.0267362
0.0370567
-0.0241423
0.0285033
-0.0199006
0.0183381
-0.0142627
0.00652373
-0.00752161
-0.00692705
8.25619e-15
-0.0219466
0.00795888
-0.0384087
0.0160006
-0.0561252
0.0237689
-0.0748451
0.0309154
-0.0942542
0.0371107
-0.113977
0.0420572
-0.133582
0.0455027
-0.152588
0.0472553
-0.170473
0.0471976
-0.18669
0.0453002
-0.200679
0.0416312
-0.211888
0.0363616
-0.21979
0.0297647
-0.223904
0.022207
-0.223816
0.0141324
-0.219197
0.00603805
-0.209818
-0.00155689
-0.195567
-0.00814673
-0.176456
-0.0132774
-0.0165836
-0.152628
0.0666045
0.0827131
-0.0613848
0.0705371
0.0815831
0.0734213
0.0768459
0.0754633
0.0690158
0.0768291
0.0587313
0.0776389
0.0467102
0.0779645
0.0337039
0.0778292
0.0204534
0.0772109
0.00765007
0.0760465
-0.00409579
0.0742389
-0.0142778
0.0716655
-0.0225074
0.0681863
-0.0285195
0.063654
-0.0321698
0.0579223
-0.0334276
0.0508547
-0.0323635
0.0423326
-0.0291354
0.0322624
-0.0239742
0.0205819
-0.0171691
0.00726674
-0.00905482
-0.00766497
0
-0.0241473
0.0096036
-0.0420628
0.0193508
-0.0612387
0.0288329
-0.0814452
0.0376486
-0.102394
0.045416
-0.123739
0.0517862
-0.145079
0.0564589
-0.165962
0.0591984
-0.185895
0.0598503
-0.204351
0.0583557
-0.220783
0.054763
-0.234637
0.0492345
-0.245372
0.0420461
-0.252472
0.0335796
-0.255467
0.0243053
-0.253949
0.0147577
-0.247589
0.00550301
-0.23615
-0.00289874
-0.2195
-0.00993355
-0.0151729
-0.197617
0.0799222
0.10025
-0.0740256
0.0846543
0.0967473
0.0883403
0.0895369
0.0910858
0.0791949
0.0929777
0.0664206
0.0940793
0.0519917
0.0944278
0.0367156
0.094032
0.0213843
0.0928728
0.00673381
0.0909057
-0.00658865
0.0880632
-0.0180486
0.0842605
-0.0272385
0.0794004
-0.0338833
0.07338
-0.0378378
0.0660964
-0.0390784
0.0574533
-0.0376899
0.0473673
-0.0338514
0.0357736
-0.0278197
0.0226315
-0.0199149
0.00792985
-0.0105063
-0.00830804
5.66411e-16
-0.0260197
0.0111719
-0.0450993
0.0225617
-0.0653938
0.0337169
-0.0867003
0.0441909
-0.108764
0.0535565
-0.131277
0.0614197
-0.153882
0.067437
-0.176171
0.0713321
-0.197695
0.0729141
-0.217966
0.072093
-0.236474
0.068893
-0.252689
0.0634595
-0.266082
0.0560603
-0.276134
0.0470774
-0.282351
0.0369905
-0.284282
0.0263519
-0.281529
0.015753
-0.273764
0.00578665
-0.260739
-0.00299483
-0.0101194
-0.242298
0.0965281
0.116468
-0.0898003
0.102069
0.110474
0.106448
0.100791
0.109692
0.0880323
0.111835
0.0729363
0.112905
0.0563172
0.112925
0.0390172
0.111907
0.0218598
0.10985
0.00560873
0.106741
-0.00906603
0.102551
-0.0216124
0.097243
-0.0316111
0.0907676
-0.0387814
0.0830706
-0.0429785
0.0740959
-0.0441845
0.0637897
-0.0424957
0.0521048
-0.0381066
0.0390059
-0.0312942
0.0244739
-0.0224018
0.00851077
-0.0118253
-0.00885592
-7.63896e-15
-0.0275682
0.0126106
-0.0475334
0.0255253
-0.0686205
0.0382564
-0.0906565
0.0503207
-0.113424
0.0612535
-0.13666
0.0706233
-0.160055
0.0780494
-0.183255
0.0832198
-0.205865
0.0859099
-0.227454
0.0859993
-0.24756
0.083486
-0.2657
0.0784939
-0.281379
0.0712745
-0.294102
0.0621994
-0.303384
0.0517439
-0.308761
0.0404615
-0.309807
0.0289512
-0.306141
0.0178188
-0.297442
0.0076357
-0.00110147
-0.283459
0.117171
0.130846
-0.109725
0.123288
0.122458
0.128035
0.110477
0.131394
0.0955368
0.133369
0.0783953
0.133974
0.0598842
0.133237
0.0408624
0.131188
0.0221694
0.127854
0.00458299
0.123262
-0.0112144
0.11743
-0.024661
0.110368
-0.0353308
0.102078
-0.0429395
0.0925561
-0.0473424
0.0817919
-0.0485252
0.069773
-0.0465913
0.0564878
-0.0417454
0.0419289
-0.0342777
0.0260975
-0.0245478
0.00900781
-0.0129699
-0.00930912
3.26944e-16
-0.0288004
0.0138753
-0.0493873
0.0281502
-0.070961
0.0423102
-0.093379
0.0558445
-0.116462
0.068259
-0.139993
0.0790924
-0.163715
0.0879337
-0.187329
0.0944407
-0.210503
0.0983598
-0.232865
0.0995427
-0.254016
0.0979614
-0.27353
0.0937163
-0.290966
0.087038
-0.305872
0.0782805
-0.317793
0.0679049
-0.326288
0.0564541
-0.330932
0.0445206
-0.331331
0.0327083
-0.327133
0.0215918
0.011677
-0.318039
0.142186
0.143219
-0.13441
0.148418
0.132694
0.153029
0.118714
0.155982
0.10192
0.157271
0.0830718
0.156916
0.0630058
0.154962
0.0425842
0.151464
0.0226505
0.146488
0.00398698
0.140101
-0.0127191
0.132369
-0.0269014
0.123352
-0.0381299
0.113099
-0.0461176
0.101654
-0.0507183
0.0890494
-0.0519185
0.0753111
-0.0498239
0.0604596
-0.0446442
0.0445135
-0.0366763
0.027492
-0.0262888
0.00941994
-0.013907
-0.00966893
-6.35275e-20
-0.029727
0.0149309
-0.050689
0.030363
-0.0724673
0.0457637
-0.0949489
0.060602
-0.117992
0.0743627
-0.141422
0.0865621
-0.165033
0.0967659
-0.188584
0.104608
-0.211801
0.109811
-0.234379
0.112202
-0.255981
0.111729
-0.276249
0.108469
-0.294801
0.102631
-0.31124
0.0945451
-0.325165
0.0846535
-0.336172
0.0734803
-0.343866
0.0616019
-0.34787
0.0496098
-0.347837
0.0380705
0.0274879
-0.34346
0.171356
0.153731
-0.163853
0.177082
0.141423
0.180943
0.125811
0.1829
0.107531
0.182951
0.0873358
0.181136
0.0660549
0.177521
0.044545
0.172194
0.0236455
0.165259
0.00413679
0.156824
-0.013294
0.146998
-0.028079
0.135887
-0.0397855
0.123585
-0.0481232
0.110176
-0.0529425
0.0957325
-0.0542272
0.0803129
-0.0520813
0.0639664
-0.0467138
0.0467334
-0.0384228
0.028649
-0.0275795
0.00974678
-0.0146135
-0.00993737
3.8814e-15
-0.0303611
0.0157517
-0.0514711
0.0321095
-0.0731996
0.0485296
-0.0954598
0.0644684
-0.118143
0.0793965
-0.141117
0.092815
-0.16422
0.104273
-0.187265
0.113386
-0.210035
0.119857
-0.232286
0.123495
-0.253745
0.124226
-0.274117
0.122104
-0.293086
0.117316
-0.310317
0.110169
-0.325465
0.101082
-0.338178
0.0905534
-0.348107
0.0791395
-0.354912
0.0674116
-0.358274
0.0559208
0.0451611
-0.357904
0.203839
0.162726
-0.197309
0.208387
0.149032
0.21087
0.132175
0.211256
0.112777
0.209561
0.0915812
0.205843
0.0694017
0.200195
0.0470841
0.192738
0.0254586
0.183608
0.00529959
0.172952
-0.0127089
0.160919
-0.0279987
0.147653
-0.0401347
0.133285
-0.0488221
0.117936
-0.053906
0.101709
-0.055364
0.0846926
-0.0532944
0.0669584
-0.047901
0.0485655
-0.0394778
0.029562
-0.0283931
0.00998865
-0.0150753
-0.0101172
0
-0.0307176
0.0163218
-0.0517702
0.0333546
-0.0732236
0.0505495
-0.0950143
0.0673565
-0.117063
0.0832384
-0.139271
0.0976864
-0.161519
0.110239
-0.183667
0.120499
-0.205546
0.128157
-0.22697
0.133003
-0.247723
0.134947
-0.26757
0.134023
-0.286255
0.130395
-0.303503
0.124347
-0.319028
0.116271
-0.332533
0.106642
-0.343719
0.0959882
-0.352293
0.0848575
-0.357973
0.0737805
0.0632357
-0.360504
0.238175
0.17061
-0.233264
0.240952
0.155929
0.241524
0.1382
0.239874
0.118033
0.236037
0.0961503
0.230092
0.0733523
0.222158
0.0504685
0.212382
0.028317
0.200932
0.00766395
0.187988
-0.0108109
0.173728
-0.0265399
0.15833
-0.0390849
0.141956
-0.0481452
0.124755
-0.0535583
0.106857
-0.0552928
0.088372
-0.0534377
0.0693923
-0.0481878
0.049991
-0.0398286
0.0302269
-0.0287212
0.0101465
-0.015288
-0.0102116
3.30159e-15
-0.0308135
0.0166347
-0.0516251
0.0340821
-0.0726091
0.0517934
-0.0937207
0.0692171
-0.114904
0.0858131
-0.136091
0.101068
-0.157196
0.114515
-0.178115
0.125748
-0.198726
0.134448
-0.218887
0.140393
-0.238434
0.143477
-0.257183
0.143717
-0.274931
0.141255
-0.291458
0.136352
-0.306528
0.129373
-0.319898
0.120766
-0.331316
0.11103
-0.340533
0.100687
-0.347309
0.0902414
0.0801526
-0.351426
0.272383
0.177698
-0.269532
0.272999
0.162417
0.271326
0.144171
0.267365
0.123553
0.261171
0.101268
0.252843
0.0780963
0.242525
0.0548522
0.230387
0.0323403
0.216622
0.0113174
0.201434
-0.00754123
0.185031
-0.023668
0.167614
-0.0366208
0.149369
-0.0460919
0.13047
-0.0519088
0.111065
-0.0540287
0.0912837
-0.0525284
0.0712323
-0.0475904
0.0509961
-0.0394883
0.0306423
-0.0285724
0.0102222
-0.0152554
-0.0102246
-2.76611e-15
-0.0306666
0.0166925
-0.0510766
0.0342935
-0.0714275
0.0522581
-0.0916894
0.0700373
-0.111825
0.0870922
-0.131789
0.102909
-0.151523
0.117018
-0.170955
0.12901
-0.189997
0.138558
-0.208543
0.14543
-0.22647
0.149509
-0.243639
0.150795
-0.259889
0.14941
-0.275044
0.145591
-0.288916
0.139677
-0.3013
0.132085
-0.311989
0.123287
-0.320773
0.113772
-0.327446
0.104018
0.0944601
-0.331822
0.304125
-0.303438
0.302497
0.298523
0.292229
0.283689
0.273028
0.260408
0.246022
0.230086
0.212824
0.194465
0.175229
0.155325
0.13494
0.114242
0.0933733
0.0724517
0.0515724
0.0308093
0.0102179
-0.0101605
-0.0302961
-0.0501659
-0.0697505
-0.0890302
-0.107982
-0.126578
-0.144779
-0.162537
-0.179791
-0.196463
-0.212464
-0.227684
-0.242
-0.25527
-0.267341
-0.278045
-0.287206
-0.294647
-0.300192
-0.303677
-0.11622
-0.277005
-0.13475
-0.301531
-0.152808
-0.318993
-0.16873
-0.327804
-0.180765
-0.326989
-0.187328
-0.316308
-0.187238
-0.296292
-0.179924
-0.26821
-0.165553
-0.233947
-0.145058
-0.195819
-0.120063
-0.156353
-0.092713
-0.118041
-0.0654316
-0.0831089
-0.0406397
-0.053323
-0.020483
-0.0298533
-0.00660467
-0.0132118
-0.00326684
-0.107136
-0.249804
-0.125006
-0.270996
-0.142546
-0.28641
-0.158312
-0.294781
-0.170782
-0.29529
-0.178545
-0.287652
-0.180494
-0.272161
-0.175989
-0.249668
-0.164974
-0.221515
-0.14802
-0.189416
-0.126297
-0.155314
-0.101467
-0.121205
-0.0755191
-0.0889721
-0.0505597
-0.0602305
-0.028595
-0.0362057
-0.0113277
-0.0176541
-0.00483562
-0.0987449
-0.222698
-0.11573
-0.240849
-0.132487
-0.254325
-0.147775
-0.262121
-0.160281
-0.263553
-0.168764
-0.258323
-0.172203
-0.246555
-0.16993
-0.228793
-0.16173
-0.205962
-0.147894
-0.179299
-0.129217
-0.150259
-0.106937
-0.120399
-0.0826347
-0.0912581
-0.05808
-0.0642436
-0.0350691
-0.0405278
-0.0152551
-0.0209718
-0.00607939
-0.0911702
-0.196229
-0.1071
-0.211632
-0.122867
-0.223291
-0.137418
-0.230415
-0.149628
-0.232436
-0.158416
-0.229062
-0.162858
-0.220302
-0.162287
-0.20648
-0.156384
-0.188208
-0.145227
-0.166353
-0.12931
-0.141974
-0.109514
-0.11625
-0.0870465
-0.0903991
-0.0633419
-0.0655943
-0.0399439
-0.0428862
-0.0183729
-0.0231363
-0.00696783
-0.0844385
-0.170845
-0.0991941
-0.183788
-0.113826
-0.193765
-0.127445
-0.200157
-0.139097
-0.202495
-0.14785
-0.200506
-0.152877
-0.194131
-0.153538
-0.183536
-0.149452
-0.169108
-0.140543
-0.151429
-0.12707
-0.131247
-0.109619
-0.109428
-0.0890706
-0.0869011
-0.0665426
-0.0646076
-0.043307
-0.0434385
-0.0206957
-0.0241851
-0.00749397
-0.0784929
-0.146899
-0.0920064
-0.157661
-0.105413
-0.166099
-0.117968
-0.17173
-0.12887
-0.174173
-0.137321
-0.173181
-0.142591
-0.168656
-0.144082
-0.160662
-0.141383
-0.149422
-0.134316
-0.13531
-0.122962
-0.118832
-0.107669
-0.100604
-0.0890424
-0.0813094
-0.0679124
-0.0616726
-0.0452815
-0.0424137
-0.0222615
-0.0242125
-0.00767307
-0.0732114
-0.124651
-0.0854582
-0.133499
-0.0975998
-0.140545
-0.109017
-0.145415
-0.119039
-0.147805
-0.12699
-0.147496
-0.132235
-0.144376
-0.134225
-0.138441
-0.132546
-0.129804
-0.126954
-0.118688
-0.117401
-0.105423
-0.104055
-0.0904226
-0.0872934
-0.0741745
-0.0676957
-0.0572114
-0.0460123
-0.0400887
-0.0231256
-0.0233575
-0.00753934
-0.0684287
-0.104277
-0.0794203
-0.11146
-0.0902982
-0.117262
-0.10055
-0.121397
-0.10962
-0.123622
-0.116939
-0.123751
-0.121958
-0.12167
-0.124186
-0.117338
-0.123222
-0.110794
-0.118786
-0.102158
-0.110744
-0.0916294
-0.0991272
-0.0794752
-0.0841343
-0.066024
-0.0661351
-0.0516514
-0.0456552
-0.0367651
-0.0233552
-0.021788
-0.00714128
-0.0639591
-0.0858733
-0.0737342
-0.0916241
-0.083382
-0.0963292
-0.0924815
-0.0997711
-0.100573
-0.10176
-0.107181
-0.102142
-0.111838
-0.100809
-0.114107
-0.0977014
-0.113615
-0.0928153
-0.110069
-0.0862023
-0.103281
-0.0779701
-0.0931845
-0.0682795
-0.0798438
-0.0573397
-0.0634598
-0.0454012
-0.0443671
-0.0327478
-0.0230247
-0.0196864
-0.00653625
-0.0596177
-0.0694736
-0.0682337
-0.0740045
-0.0767078
-0.0777541
-0.0846953
-0.0805594
-0.0918187
-0.0822738
-0.0976826
-0.0827733
-0.101891
-0.0819613
-0.104064
-0.0797738
-0.10386
-0.0761822
-0.10099
-0.0711961
-0.0952382
-0.0648635
-0.0864737
-0.0572709
-0.0746633
-0.0485413
-0.0598786
-0.0388311
-0.0422992
-0.0283258
-0.0222111
-0.0172348
-0.0057852
-0.0552381
-0.0550576
-0.062763
-0.0585609
-0.0701337
-0.0614894
-0.077069
-0.0637228
-0.0832601
-0.06515
-0.0883806
-0.065673
-0.0920975
-0.0652107
-0.0940848
-0.0637017
-0.0940362
-0.0611071
-0.091679
-0.0574128
-0.0867869
-0.0526301
-0.0791923
-0.0467971
-0.0687959
-0.0399777
-0.0555758
-0.0322609
-0.0395921
-0.0237588
-0.0209902
-0.0146044
-0.00494788
-0.0506839
-0.0425653
-0.0571901
-0.0452131
-0.0635343
-0.0474457
-0.069488
-0.0491762
-0.0747998
-0.0503223
-0.0792018
-0.0508088
-0.082417
-0.0505702
-0.0841678
-0.0495525
-0.084186
-0.0477155
-0.0822214
-0.0450342
-0.0780523
-0.0414999
-0.0714941
-0.0371212
-0.0624083
-0.0319244
-0.0507097
-0.0259532
-0.0363723
-0.0192683
-0.0194343
-0.0119465
-0.00407922
-0.0458565
-0.0319085
-0.0514155
-0.0338529
-0.0568104
-0.0355049
-0.0618568
-0.0368028
-0.0663512
-0.0376874
-0.0700753
-0.0381028
-0.0728007
-0.0379984
-0.0742945
-0.03733
-0.0743255
-0.0360612
-0.0726711
-0.0341646
-0.0691235
-0.0316227
-0.0634971
-0.0284285
-0.0556346
-0.0245864
-0.0454135
-0.0201121
-0.0327511
-0.0150331
-0.0176097
-0.00938813
-0.00322678
-0.0406965
-0.0229818
-0.045375
-0.024357
-0.049894
-0.0255326
-0.0541058
-0.0264668
-0.0578472
-0.0271182
-0.060942
-0.027447
-0.0632041
-0.027416
-0.0644409
-0.0269913
-0.0644574
-0.0261431
-0.0630604
-0.0248465
-0.0600631
-0.0230823
-0.0552898
-0.0208375
-0.0485807
-0.0181055
-0.0397967
-0.0148872
-0.0288234
-0.0111903
-0.0155754
-0.00703015
-0.00242952
-0.0351819
-0.0156731
-0.0390393
-0.0165963
-0.0427486
-0.0173897
-0.0461929
-0.018026
-0.0492432
-0.0184777
-0.0517593
-0.0187181
-0.0535921
-0.0187213
-0.0545855
-0.0184632
-0.0545786
-0.0179215
-0.0534089
-0.0170766
-0.0509145
-0.0159116
-0.0469379
-0.014413
-0.0413289
-0.0125711
-0.0339478
-0.01038
-0.0246686
-0.00783808
-0.0133824
-0.00494818
-0.00171762
-0.0293224
-0.00987211
-0.0324096
-0.0104462
-0.0353664
-0.0109417
-0.0381022
-0.0113419
-0.0405172
-0.01163
-0.0425028
-0.0117894
-0.0439423
-0.0118035
-0.0447127
-0.0116568
-0.0446856
-0.0113341
-0.0437288
-0.0108218
-0.0417083
-0.0101074
-0.03849
-0.00918024
-0.0339418
-0.00803124
-0.027936
-0.00665354
-0.0203507
-0.00504243
-0.0110729
-0.00319558
-0.00111316
-0.0231533
-0.00547836
-0.0255119
-0.00579389
-0.0277631
-0.0060671
-0.0298396
-0.00628901
-0.0316671
-0.0064505
-0.0331646
-0.00654233
-0.0342447
-0.00655537
-0.0348147
-0.00648063
-0.0347766
-0.00630947
-0.0340286
-0.00603367
-0.0324655
-0.00564558
-0.0299806
-0.00513824
-0.026466
-0.00450548
-0.0218143
-0.00374207
-0.0159202
-0.00284378
-0.00868133
-0.0018075
-0.000631316
-0.0167284
-0.00240706
-0.0183906
-0.00254491
-0.0199727
-0.00266457
-0.0214284
-0.00276218
-0.0227063
-0.00283377
-0.0237503
-0.00287531
-0.0244999
-0.00288275
-0.0248903
-0.00285209
-0.0248526
-0.00277941
-0.0243145
-0.00266092
-0.0232009
-0.002493
-0.0214342
-0.00227231
-0.0189347
-0.00199575
-0.0156222
-0.00166058
-0.0114156
-0.00126443
-0.00623456
-0.000805335
-0.000281818
-0.0101141
-0.00059418
-0.0111024
-0.00062826
-0.0120414
-0.000657913
-0.0129038
-0.000682192
-0.0136595
-0.000700118
-0.0142757
-0.000710696
-0.0147165
-0.000712918
-0.0149437
-0.00070578
-0.0149165
-0.00068829
-0.0145917
-0.000659483
-0.0139243
-0.000618428
-0.0128671
-0.000564244
-0.0113715
-0.000496111
-0.00938783
-0.000413279
-0.00686542
-0.000315082
-0.00375319
-0.000200947
-7.04042e-05
-0.0033841
1.37636e-20
-0.00371206
1.09149e-20
-0.00402337
1.16982e-20
-0.00430903
1.13835e-20
-0.00455912
8.86052e-21
-0.00476278
8.43311e-21
-0.00490822
8.02533e-21
-0.00498278
6.01505e-21
-0.00497292
4.18482e-21
-0.00486433
2.98543e-21
-0.00464192
1.6874e-21
-0.00428996
1.69607e-21
-0.0037921
2.108e-21
-0.00313152
1.47757e-21
-0.00229099
7.54476e-22
-0.00125303
3.02432e-22
6.05195e-23
0.00338368
-0.00061119
0.00371166
-0.000645386
0.004023
-0.000675014
0.00430869
-0.000699123
0.00455882
-0.000716734
0.00476251
-0.000726847
0.00490799
-0.000728454
0.00498258
-0.000720551
0.00497276
-0.000702143
0.0048642
-0.000672266
0.00464182
-0.000629989
0.00428989
-0.000574432
0.00379205
-0.000504775
0.00313149
-0.000420269
0.00229098
-0.000320251
0.00125303
-0.000204148
-7.1495e-05
0.0101103
-0.00244154
0.0110988
-0.00257962
0.0120381
-0.00269922
0.0129008
-0.00279648
0.0136568
-0.00286742
0.0142732
-0.00290801
0.0147144
-0.0029142
0.0149419
-0.00288198
0.014915
-0.00280743
0.0145906
-0.00268676
0.0139234
-0.00251636
0.0128664
-0.00229288
0.0113711
-0.00201324
0.00938758
-0.00167468
0.0068653
-0.00127484
0.00375315
-0.000811783
-0.000284014
0.0167178
-0.00553125
0.0183806
-0.00584711
0.0199634
-0.00612021
0.0214199
-0.00634157
0.0226986
-0.00650203
0.0237436
-0.00659238
0.0244941
-0.00660346
0.0248853
-0.00652631
0.0248484
-0.00635226
0.0243112
-0.00607311
0.0231984
-0.0056812
0.0214323
-0.00516958
0.0189335
-0.00453209
0.0156215
-0.00376351
0.0114153
-0.0028596
0.00623448
-0.00181728
-0.000634646
0.0231324
-0.00994478
0.0254923
-0.0105193
0.0277449
-0.0110146
0.029823
-0.011414
0.0316521
-0.0117007
0.0331513
-0.0118579
0.0342332
-0.0118694
0.0348049
-0.0117192
0.0347685
-0.0113926
0.0340221
-0.0108756
0.0324606
-0.010156
0.029977
-0.00922291
0.0264636
-0.00806742
0.021813
-0.00668264
0.0159196
-0.00506388
0.00868117
-0.00320883
-0.00111766
0.0292876
-0.0157673
0.032377
-0.0166911
0.0353361
-0.0174843
0.0380745
-0.0181194
0.0404923
-0.0185691
0.0424807
-0.0188067
0.0439232
-0.0188063
0.0446965
-0.0185438
0.0446722
-0.0179968
0.0437181
-0.0171458
0.0417001
-0.0159739
0.0384841
-0.0144677
0.033938
-0.0126174
0.0279337
-0.0104171
0.0203497
-0.00786542
0.0110726
-0.00496503
-0.00172334
0.0351294
-0.0231
0.03899
-0.0244757
0.042703
-0.025651
0.0461513
-0.0265836
0.0492057
-0.0272325
0.0517262
-0.0275577
0.0535635
-0.027522
0.0545612
-0.0270916
0.0545587
-0.0262366
0.053393
-0.0249323
0.0509024
-0.0231595
0.0469292
-0.020905
0.0413232
-0.0181626
0.0339445
-0.0149329
0.0246671
-0.0112238
0.013382
-0.00705075
-0.0024365
0.0406225
-0.0320533
0.0453055
-0.0339984
0.0498297
-0.0356496
0.0540472
-0.0369455
0.0577946
-0.0378268
0.0608956
-0.0382376
0.063164
-0.0381273
0.064407
-0.0374517
0.0644296
-0.0361745
0.0630383
-0.0342684
0.0600462
-0.0317157
0.0552777
-0.0285098
0.0485728
-0.0246548
0.0397922
-0.0201668
0.0288213
-0.0150731
0.0155749
-0.00941261
-0.00323505
0.0457569
-0.0427398
0.0513222
-0.0453882
0.0567242
-0.0476198
0.0617782
-0.0493477
0.0662808
-0.0504896
0.0700134
-0.0509703
0.0727472
-0.0507243
0.0742494
-0.0496977
0.0742886
-0.0478504
0.0726418
-0.0451573
0.0691013
-0.04161
0.0634812
-0.0372171
0.0556242
-0.0320049
0.0454075
-0.0260172
0.0327484
-0.0193149
0.017609
-0.0119749
-0.00408881
0.0505547
-0.0552652
0.0570693
-0.0587692
0.0634227
-0.0616962
0.0693865
-0.0639262
0.074709
-0.065348
0.079122
-0.0658638
0.0823482
-0.0653924
0.0841101
-0.0638725
0.0841388
-0.0612653
0.0821841
-0.0575567
0.0780241
-0.0527584
0.0714741
-0.0469083
0.0623952
-0.0400707
0.0507021
-0.0323345
0.0363689
-0.0238122
0.0194334
-0.0146368
-0.00495878
0.0550754
-0.0697181
0.0626109
-0.0742495
0.0699935
-0.0779971
0.0769417
-0.080798
0.0831465
-0.0825057
0.0882809
-0.0829961
0.0920119
-0.0821729
0.094013
-0.0799721
0.0939777
-0.0763653
0.0916329
-0.0713621
0.0867523
-0.0650108
0.0791677
-0.0573981
0.0687799
-0.0486471
0.0555667
-0.0389145
0.039588
-0.0283859
0.0209891
-0.0172712
-0.00579735
0.0594176
-0.0861587
0.0680468
-0.0919096
0.0765358
-0.096612
0.0845394
-0.100048
0.0916798
-0.102029
0.0975611
-0.1024
0.101787
-0.101053
0.103977
-0.0979293
0.103789
-0.0930248
0.100935
-0.0863915
0.0951968
-0.0781372
0.0864445
-0.0684231
0.0746444
-0.0574584
0.0598679
-0.0454942
0.0422944
-0.0328144
0.0222099
-0.0197264
-0.00654955
0.0637179
-0.104607
0.0735092
-0.11179
0.0831753
-0.117589
0.0922946
-0.121716
0.100407
-0.12393
0.107037
-0.124047
0.111714
-0.121949
0.114004
-0.117597
0.113532
-0.111031
0.110004
-0.102371
0.103233
-0.0918165
0.0931507
-0.0796349
0.079822
-0.0661553
0.0634475
-0.0517535
0.0443617
-0.0368377
0.0230234
-0.0218312
-0.00715555
0.0681431
-0.12503
0.0791543
-0.133877
0.0900543
-0.140918
0.10033
-0.14578
0.109425
-0.148156
0.11677
-0.147831
0.121814
-0.144691
0.124067
-0.138733
0.123126
-0.130069
0.118712
-0.118926
0.110689
-0.10563
0.0990888
-0.0905981
0.0841098
-0.0743175
0.0661214
-0.0573216
0.0456492
-0.0401662
0.0233537
-0.0234032
-0.00755432
0.0728787
-0.14733
0.0851487
-0.158091
0.0973166
-0.166524
0.108762
-0.172143
0.118814
-0.17457
0.126795
-0.173558
0.13207
-0.169009
0.134089
-0.160987
0.132437
-0.149716
0.12687
-0.135571
0.11734
-0.119059
0.104012
-0.100793
0.0872666
-0.0814626
0.0676809
-0.0617894
0.0460059
-0.042495
0.023124
-0.0242597
-0.0076884
0.0781109
-0.171333
0.0916515
-0.184274
0.105089
-0.194244
0.117677
-0.200621
0.128614
-0.20294
0.1371
-0.200926
0.142405
-0.194522
0.14393
-0.183895
0.141263
-0.16943
0.134224
-0.151713
0.122895
-0.131491
0.107623
-0.10963
0.0890137
-0.0870625
0.0678968
-0.064729
0.0452748
-0.0435217
0.0222599
-0.0242326
-0.00750919
0.0840057
-0.196776
0.0987928
-0.212176
0.113461
-0.223826
0.127118
-0.230933
0.13881
-0.23293
0.147605
-0.229526
0.152672
-0.220732
0.153371
-0.206871
0.14932
-0.188557
0.140444
-0.166657
0.126998
-0.142232
0.10957
-0.116462
0.0890408
-0.0905655
0.0665266
-0.0657173
0.0433003
-0.0429688
0.0206942
-0.0231825
-0.00698235
0.0906861
-0.223307
0.106652
-0.241454
0.12246
-0.254917
0.137055
-0.262693
0.149311
-0.264096
0.158146
-0.258832
0.162634
-0.247023
0.162106
-0.229215
0.156243
-0.206334
0.145122
-0.17962
0.129235
-0.150528
0.109464
-0.120616
0.0870164
-0.0914257
0.0633261
-0.0643648
0.0399374
-0.0406069
0.0183714
-0.0210147
-0.0060925
0.0982099
-0.250476
0.115236
-0.271663
0.132039
-0.287062
0.147378
-0.295408
0.159936
-0.295883
0.168472
-0.288204
0.171962
-0.272665
0.169737
-0.250118
0.161582
-0.221907
0.147785
-0.18975
0.12914
-0.155589
0.106887
-0.121423
0.0826053
-0.089136
0.058065
-0.0603454
0.0350632
-0.036278
0.0152539
-0.0176914
-0.0048465
0.106551
-0.277741
0.124467
-0.30226
0.142059
-0.319704
0.157882
-0.328485
0.170411
-0.327631
0.178233
-0.3169
0.180239
-0.296827
0.175788
-0.268684
0.16482
-0.234355
0.147908
-0.19616
0.126221
-0.156628
0.101419
-0.118253
0.0754916
-0.0832633
0.0505463
-0.0534265
0.02859
-0.0299146
0.0113267
-0.0132407
-0.00327458
0.115589
-0.304477
0.134169
-0.332614
0.152285
-0.352196
0.168269
-0.361239
0.180371
-0.358591
0.186999
-0.344089
0.186972
-0.318602
0.179717
-0.28395
0.165398
-0.242715
0.144948
-0.197958
0.11999
-0.152896
0.0926682
-0.110558
0.0654072
-0.0734842
0.0406286
-0.0434945
0.0204794
-0.0215548
0.00660408
-0.0077601
-0.00142888
-0.303357
0.178446
0.302639
-0.301766
0.163205
-0.297835
0.144993
-0.291588
0.1244
-0.283099
0.102134
-0.272491
0.0789716
-0.259926
0.0557276
-0.245596
0.0332062
-0.229714
0.0121639
-0.212507
-0.0067239
-0.194199
-0.0228895
-0.175012
-0.0358905
-0.155153
-0.0454185
-0.134809
-0.0513005
-0.114147
-0.053493
-0.0933092
-0.0520716
-0.0724127
-0.0472181
-0.0515524
-0.0392051
-0.030802
-0.0283817
-0.0102171
-0.0151594
0.0101613
-3.9387e-16
0.0303034
0.0165966
0.050186
0.0341028
0.0697895
0.0519749
0.0890943
0.0696651
0.108077
0.0866354
0.126709
0.102373
0.144951
0.11641
0.162754
0.128337
0.180056
0.137827
0.196781
0.144652
0.212835
0.148692
0.22811
0.149948
0.242482
0.148544
0.255807
0.144715
0.267931
0.138801
0.278686
0.131219
0.287894
0.122439
0.295377
0.11295
0.30096
0.103229
0.0937112
-0.27162
0.171395
0.26874
-0.272272
0.156755
-0.270641
0.13906
-0.266726
0.118918
-0.260581
0.0970542
-0.252307
0.074265
-0.242043
0.0513803
-0.22996
0.029218
-0.21625
0.00854395
-0.201116
-0.00996205
-0.184765
-0.0257321
-0.167396
-0.0383276
-0.149197
-0.0474475
-0.130338
-0.0529285
-0.11097
-0.0547384
-0.0912194
-0.0529652
-0.0711931
-0.0478029
-0.050976
-0.0395359
-0.030635
-0.0285241
-0.0102214
-0.0151888
0.0102254
3.27529e-15
0.0306739
0.0165356
0.0510967
0.033885
0.0714667
0.0515007
0.0917536
0.0688322
0.11192
0.0853406
0.131921
0.100514
0.151695
0.113885
0.171172