/*--------------------------------*- C++ -*----------------------------------*\
  =========                 |
  \\      /  F ield         | OpenFOAM: The Open Source CFD Toolbox
   \\    /   O peration     | Website:  https://openfoam.org
    \\  /    A nd           | Version:  6
     \\/     M anipulation  |
\*---------------------------------------------------------------------------*/
FoamFile
{
    version     2.0;
    format      ascii;
    class       volVectorField;
    location    "3.05";
    object      U;
}
// * * * * * * * * * * * * * * * * * * * * * * * * * * * * * * * * * * * * * //

dimensions      [0 1 -1 0 0 0 0];

internalField   nonuniform List<vector> 
5625
(
(0.8944 0.4472 0)
(0.8944 0.4472 0)
(0.8944 0.4472 0)
(0.8944 0.4472 0)
(0.8944 0.4472 0)
(0.8944 0.4472 0)
(0.8944 0.4472 0)
(0.8944 0.4472 0)
(0.8944 0.4472 0)
(0.8944 0.4472 0)
(0.8944 0.4472 0)
(0.8944 0.4472 0)
(0.8944 0.4472 0)
(0.8944 0.4472 0)
(0.8944 0.4472 0)
(0.8944 0.4472 0)
(0.8944 0.4472 0)
(0.8944 0.4472 0)
(0.8944 0.4472 0)
(0.8944 0.4472 0)
(0.8944 0.4472 0)
(0.8944 0.4472 0)
(0.8944 0.4472 0)
(0.8944 0.4472 0)
(0.8944 0.4472 0)
(0.8944 0.4472 0)
(0.8944 0.4472 0)
(0.8944 0.4472 0)
(0.8944 0.4472 0)
(0.8944 0.4472 0)
(0.8944 0.4472 0)
(0.8944 0.4472 0)
(0.8944 0.4472 0)
(0.8944 0.4472 0)
(0.894399 0.4472 0)
(0.894401 0.4472 0)
(0.8944 0.4472 0)
(0.8944 0.4472 0)
(0.894399 0.4472 0)
(0.894401 0.4472 0)
(0.894399 0.4472 0)
(0.894401 0.4472 0)
(0.894399 0.447201 0)
(0.894402 0.4472 0)
(0.894401 0.447201 0)
(0.894404 0.4472 0)
(0.894404 0.4472 0)
(0.894407 0.447201 0)
(0.894411 0.447201 0)
(0.894415 0.447201 0)
(0.894423 0.447201 0)
(0.894432 0.447202 0)
(0.894445 0.447203 0)
(0.894458 0.447203 0)
(0.894472 0.447202 0)
(0.894487 0.447201 0)
(0.894492 0.447196 0)
(0.894481 0.447184 0)
(0.894435 0.447161 0)
(0.894328 0.447114 0)
(0.894118 0.447029 0)
(0.89374 0.446883 0)
(0.893116 0.44663 0)
(0.892123 0.446217 0)
(0.890638 0.445566 0)
(0.88849 0.444561 0)
(0.885556 0.44308 0)
(0.881755 0.440974 0)
(0.877229 0.438098 0)
(0.872393 0.434402 0)
(0.868009 0.429896 0)
(0.865132 0.424605 0)
(0.864744 0.41852 0)
(0.867488 0.411485 0)
(0.873715 0.40309 0)
(0.8944 0.4472 0)
(0.8944 0.4472 0)
(0.8944 0.4472 0)
(0.8944 0.4472 0)
(0.8944 0.4472 0)
(0.8944 0.4472 0)
(0.8944 0.4472 0)
(0.8944 0.4472 0)
(0.8944 0.4472 0)
(0.8944 0.4472 0)
(0.8944 0.4472 0)
(0.8944 0.4472 0)
(0.8944 0.4472 0)
(0.8944 0.4472 0)
(0.8944 0.4472 0)
(0.8944 0.4472 0)
(0.8944 0.4472 0)
(0.8944 0.4472 0)
(0.8944 0.4472 0)
(0.8944 0.4472 0)
(0.8944 0.4472 0)
(0.8944 0.4472 0)
(0.8944 0.4472 0)
(0.8944 0.4472 0)
(0.8944 0.4472 0)
(0.8944 0.4472 0)
(0.8944 0.4472 0)
(0.8944 0.4472 0)
(0.8944 0.4472 0)
(0.8944 0.4472 0)
(0.8944 0.4472 0)
(0.8944 0.4472 0)
(0.8944 0.4472 0)
(0.8944 0.4472 0)
(0.894399 0.4472 0)
(0.8944 0.4472 0)
(0.8944 0.4472 0)
(0.8944 0.4472 0)
(0.8944 0.4472 0)
(0.8944 0.4472 0)
(0.8944 0.447201 0)
(0.894401 0.4472 0)
(0.8944 0.447201 0)
(0.894402 0.4472 0)
(0.8944 0.447199 0)
(0.894404 0.447201 0)
(0.894404 0.447199 0)
(0.894407 0.447201 0)
(0.89441 0.447201 0)
(0.894415 0.447202 0)
(0.894423 0.447202 0)
(0.89443 0.447203 0)
(0.894443 0.447203 0)
(0.894458 0.447207 0)
(0.894471 0.447205 0)
(0.894489 0.447207 0)
(0.894496 0.447204 0)
(0.894491 0.447194 0)
(0.894458 0.447179 0)
(0.894368 0.447135 0)
(0.894191 0.447063 0)
(0.893863 0.446929 0)
(0.893321 0.446699 0)
(0.892448 0.446319 0)
(0.891129 0.445713 0)
(0.889211 0.444776 0)
(0.88656 0.443383 0)
(0.883079 0.441381 0)
(0.87884 0.438637 0)
(0.87417 0.435068 0)
(0.869717 0.430687 0)
(0.866436 0.425573 0)
(0.865334 0.419773 0)
(0.86716 0.413214 0)
(0.87232 0.405637 0)
(0.8944 0.4472 0)
(0.8944 0.4472 0)
(0.8944 0.4472 0)
(0.8944 0.4472 0)
(0.8944 0.4472 0)
(0.8944 0.4472 0)
(0.8944 0.4472 0)
(0.8944 0.4472 0)
(0.8944 0.4472 0)
(0.8944 0.4472 0)
(0.8944 0.4472 0)
(0.8944 0.4472 0)
(0.8944 0.4472 0)
(0.8944 0.4472 0)
(0.8944 0.4472 0)
(0.8944 0.4472 0)
(0.8944 0.4472 0)
(0.8944 0.4472 0)
(0.8944 0.4472 0)
(0.8944 0.4472 0)
(0.8944 0.4472 0)
(0.8944 0.4472 0)
(0.8944 0.4472 0)
(0.8944 0.4472 0)
(0.8944 0.4472 0)
(0.8944 0.4472 0)
(0.8944 0.4472 0)
(0.8944 0.4472 0)
(0.8944 0.4472 0)
(0.8944 0.4472 0)
(0.8944 0.4472 0)
(0.8944 0.4472 0)
(0.8944 0.4472 0)
(0.8944 0.4472 0)
(0.894399 0.4472 0)
(0.8944 0.4472 0)
(0.8944 0.4472 0)
(0.8944 0.4472 0)
(0.894401 0.4472 0)
(0.8944 0.4472 0)
(0.894401 0.4472 0)
(0.894399 0.4472 0)
(0.894402 0.4472 0)
(0.894401 0.4472 0)
(0.894401 0.4472 0)
(0.894403 0.4472 0)
(0.894403 0.4472 0)
(0.894408 0.447201 0)
(0.894409 0.447201 0)
(0.894415 0.447202 0)
(0.894422 0.447203 0)
(0.894429 0.447204 0)
(0.894443 0.447206 0)
(0.894457 0.447208 0)
(0.89447 0.447209 0)
(0.894489 0.447212 0)
(0.894499 0.447211 0)
(0.894498 0.447203 0)
(0.894475 0.447193 0)
(0.894402 0.447157 0)
(0.894255 0.447093 0)
(0.893976 0.446978 0)
(0.893507 0.446771 0)
(0.89275 0.446426 0)
(0.891589 0.445869 0)
(0.889897 0.445005 0)
(0.887523 0.443713 0)
(0.884374 0.441833 0)
(0.880455 0.43924 0)
(0.876 0.435829 0)
(0.871554 0.431592 0)
(0.867956 0.426638 0)
(0.866185 0.421069 0)
(0.867072 0.414899 0)
(0.871114 0.407979 0)
(0.8944 0.4472 0)
(0.8944 0.4472 0)
(0.8944 0.4472 0)
(0.8944 0.4472 0)
(0.8944 0.4472 0)
(0.8944 0.4472 0)
(0.8944 0.4472 0)
(0.8944 0.4472 0)
(0.8944 0.4472 0)
(0.8944 0.4472 0)
(0.8944 0.4472 0)
(0.8944 0.4472 0)
(0.8944 0.4472 0)
(0.8944 0.4472 0)
(0.8944 0.4472 0)
(0.8944 0.4472 0)
(0.8944 0.4472 0)
(0.8944 0.4472 0)
(0.8944 0.4472 0)
(0.8944 0.4472 0)
(0.8944 0.4472 0)
(0.8944 0.4472 0)
(0.8944 0.4472 0)
(0.8944 0.4472 0)
(0.8944 0.4472 0)
(0.8944 0.4472 0)
(0.8944 0.4472 0)
(0.8944 0.4472 0)
(0.8944 0.4472 0)
(0.8944 0.4472 0)
(0.8944 0.4472 0)
(0.8944 0.4472 0)
(0.8944 0.4472 0)
(0.8944 0.4472 0)
(0.8944 0.4472 0)
(0.8944 0.4472 0)
(0.8944 0.447199 0)
(0.894399 0.447201 0)
(0.894401 0.447201 0)
(0.894399 0.447199 0)
(0.894402 0.4472 0)
(0.894398 0.447201 0)
(0.894403 0.4472 0)
(0.894399 0.4472 0)
(0.894404 0.447201 0)
(0.8944 0.4472 0)
(0.894405 0.447201 0)
(0.894406 0.447201 0)
(0.89441 0.447201 0)
(0.894413 0.447203 0)
(0.894422 0.447203 0)
(0.894428 0.447205 0)
(0.894441 0.447209 0)
(0.894455 0.447208 0)
(0.894468 0.447213 0)
(0.894488 0.447215 0)
(0.894497 0.447216 0)
(0.894507 0.447215 0)
(0.894485 0.447203 0)
(0.894435 0.44718 0)
(0.894308 0.447123 0)
(0.894079 0.447023 0)
(0.893675 0.446842 0)
(0.893025 0.44653 0)
(0.892017 0.446032 0)
(0.890533 0.445244 0)
(0.888436 0.444054 0)
(0.885617 0.442321 0)
(0.882042 0.439892 0)
(0.877858 0.436665 0)
(0.873493 0.432609 0)
(0.869675 0.42781 0)
(0.867321 0.422429 0)
(0.867294 0.416565 0)
(0.870191 0.410164 0)
(0.8944 0.4472 0)
(0.8944 0.4472 0)
(0.8944 0.4472 0)
(0.8944 0.4472 0)
(0.8944 0.4472 0)
(0.8944 0.4472 0)
(0.8944 0.4472 0)
(0.8944 0.4472 0)
(0.8944 0.4472 0)
(0.8944 0.4472 0)
(0.8944 0.4472 0)
(0.8944 0.4472 0)
(0.8944 0.4472 0)
(0.8944 0.4472 0)
(0.8944 0.4472 0)
(0.8944 0.4472 0)
(0.8944 0.4472 0)
(0.8944 0.4472 0)
(0.8944 0.4472 0)
(0.8944 0.447201 0)
(0.8944 0.447199 0)
(0.8944 0.4472 0)
(0.8944 0.4472 0)
(0.8944 0.4472 0)
(0.8944 0.4472 0)
(0.8944 0.4472 0)
(0.8944 0.4472 0)
(0.8944 0.4472 0)
(0.8944 0.4472 0)
(0.8944 0.4472 0)
(0.8944 0.4472 0)
(0.8944 0.4472 0)
(0.8944 0.4472 0)
(0.8944 0.4472 0)
(0.894399 0.4472 0)
(0.8944 0.4472 0)
(0.8944 0.4472 0)
(0.8944 0.4472 0)
(0.8944 0.4472 0)
(0.8944 0.4472 0)
(0.894401 0.447199 0)
(0.894399 0.4472 0)
(0.894401 0.4472 0)
(0.894399 0.4472 0)
(0.894403 0.447201 0)
(0.894401 0.4472 0)
(0.894406 0.447201 0)
(0.894404 0.447201 0)
(0.894411 0.447202 0)
(0.894412 0.447203 0)
(0.894421 0.447204 0)
(0.894427 0.447204 0)
(0.894438 0.447209 0)
(0.894453 0.447211 0)
(0.894466 0.447214 0)
(0.894487 0.447219 0)
(0.894497 0.447222 0)
(0.89451 0.447222 0)
(0.894495 0.447215 0)
(0.894457 0.447197 0)
(0.894356 0.447154 0)
(0.894166 0.447066 0)
(0.893825 0.446908 0)
(0.89327 0.446637 0)
(0.892407 0.44619 0)
(0.891121 0.445484 0)
(0.889289 0.444406 0)
(0.886792 0.442825 0)
(0.883575 0.440583 0)
(0.879712 0.437563 0)
(0.875504 0.433714 0)
(0.871572 0.429095 0)
(0.868742 0.423884 0)
(0.867873 0.418245 0)
(0.869639 0.412231 0)
(0.8944 0.4472 0)
(0.8944 0.4472 0)
(0.8944 0.4472 0)
(0.8944 0.4472 0)
(0.8944 0.4472 0)
(0.8944 0.4472 0)
(0.8944 0.4472 0)
(0.8944 0.4472 0)
(0.8944 0.4472 0)
(0.8944 0.4472 0)
(0.8944 0.4472 0)
(0.8944 0.4472 0)
(0.8944 0.4472 0)
(0.8944 0.4472 0)
(0.8944 0.4472 0)
(0.8944 0.4472 0)
(0.8944 0.4472 0)
(0.8944 0.4472 0)
(0.8944 0.4472 0)
(0.8944 0.4472 0)
(0.8944 0.4472 0)
(0.8944 0.4472 0)
(0.8944 0.4472 0)
(0.8944 0.4472 0)
(0.8944 0.4472 0)
(0.8944 0.4472 0)
(0.8944 0.4472 0)
(0.8944 0.4472 0)
(0.8944 0.4472 0)
(0.8944 0.4472 0)
(0.8944 0.4472 0)
(0.8944 0.4472 0)
(0.8944 0.4472 0)
(0.8944 0.4472 0)
(0.8944 0.4472 0)
(0.894399 0.4472 0)
(0.8944 0.4472 0)
(0.8944 0.4472 0)
(0.894399 0.4472 0)
(0.894401 0.4472 0)
(0.8944 0.4472 0)
(0.894401 0.4472 0)
(0.8944 0.4472 0)
(0.894402 0.4472 0)
(0.8944 0.4472 0)
(0.894403 0.447201 0)
(0.894404 0.4472 0)
(0.894405 0.447202 0)
(0.894409 0.447202 0)
(0.894412 0.447203 0)
(0.894419 0.447205 0)
(0.894427 0.447206 0)
(0.894436 0.447209 0)
(0.89445 0.447212 0)
(0.894465 0.447217 0)
(0.89448 0.44722 0)
(0.894497 0.447226 0)
(0.894506 0.447228 0)
(0.894504 0.447227 0)
(0.894473 0.447211 0)
(0.894397 0.44718 0)
(0.894237 0.447106 0)
(0.893957 0.446971 0)
(0.89349 0.446738 0)
(0.892755 0.446345 0)
(0.891652 0.445717 0)
(0.89007 0.444757 0)
(0.887888 0.44333 0)
(0.885031 0.44129 0)
(0.88152 0.438504 0)
(0.877553 0.434892 0)
(0.873612 0.430487 0)
(0.870428 0.425447 0)
(0.868826 0.419984 0)
(0.869522 0.414243 0)
(0.8944 0.4472 0)
(0.8944 0.4472 0)
(0.8944 0.4472 0)
(0.8944 0.4472 0)
(0.8944 0.4472 0)
(0.8944 0.4472 0)
(0.8944 0.4472 0)
(0.8944 0.4472 0)
(0.8944 0.4472 0)
(0.8944 0.4472 0)
(0.8944 0.4472 0)
(0.8944 0.4472 0)
(0.8944 0.4472 0)
(0.8944 0.4472 0)
(0.8944 0.4472 0)
(0.8944 0.4472 0)
(0.8944 0.4472 0)
(0.8944 0.4472 0)
(0.8944 0.4472 0)
(0.8944 0.4472 0)
(0.8944 0.4472 0)
(0.8944 0.4472 0)
(0.8944 0.4472 0)
(0.8944 0.4472 0)
(0.8944 0.4472 0)
(0.8944 0.4472 0)
(0.8944 0.4472 0)
(0.8944 0.4472 0)
(0.8944 0.4472 0)
(0.8944 0.4472 0)
(0.8944 0.4472 0)
(0.8944 0.4472 0)
(0.8944 0.4472 0)
(0.8944 0.4472 0)
(0.8944 0.4472 0)
(0.8944 0.4472 0)
(0.8944 0.4472 0)
(0.894401 0.4472 0)
(0.894399 0.4472 0)
(0.8944 0.4472 0)
(0.8944 0.4472 0)
(0.894401 0.4472 0)
(0.8944 0.4472 0)
(0.894402 0.447201 0)
(0.8944 0.4472 0)
(0.894404 0.447202 0)
(0.894401 0.4472 0)
(0.894407 0.447202 0)
(0.894406 0.447202 0)
(0.894413 0.447202 0)
(0.894416 0.447205 0)
(0.894424 0.447207 0)
(0.894436 0.44721 0)
(0.894444 0.447212 0)
(0.894462 0.44722 0)
(0.894477 0.447221 0)
(0.894494 0.44723 0)
(0.894504 0.447235 0)
(0.894509 0.447234 0)
(0.894484 0.447227 0)
(0.894429 0.4472 0)
(0.894299 0.447144 0)
(0.89407 0.447029 0)
(0.893681 0.44683 0)
(0.893063 0.446494 0)
(0.892129 0.445942 0)
(0.890772 0.445096 0)
(0.888891 0.443827 0)
(0.886389 0.441996 0)
(0.883248 0.439462 0)
(0.879587 0.436121 0)
(0.875749 0.431966 0)
(0.872347 0.427123 0)
(0.870148 0.421819 0)
(0.86988 0.416269 0)
(0.8944 0.4472 0)
(0.8944 0.4472 0)
(0.8944 0.4472 0)
(0.8944 0.4472 0)
(0.8944 0.4472 0)
(0.8944 0.4472 0)
(0.8944 0.4472 0)
(0.8944 0.4472 0)
(0.8944 0.4472 0)
(0.8944 0.4472 0)
(0.8944 0.4472 0)
(0.8944 0.4472 0)
(0.8944 0.4472 0)
(0.8944 0.4472 0)
(0.8944 0.4472 0)
(0.8944 0.4472 0)
(0.8944 0.4472 0)
(0.8944 0.4472 0)
(0.8944 0.4472 0)
(0.8944 0.4472 0)
(0.8944 0.4472 0)
(0.8944 0.4472 0)
(0.8944 0.4472 0)
(0.8944 0.4472 0)
(0.8944 0.4472 0)
(0.8944 0.4472 0)
(0.8944 0.4472 0)
(0.8944 0.4472 0)
(0.8944 0.4472 0)
(0.8944 0.4472 0)
(0.8944 0.4472 0)
(0.8944 0.4472 0)
(0.8944 0.4472 0)
(0.8944 0.4472 0)
(0.8944 0.4472 0)
(0.8944 0.4472 0)
(0.8944 0.4472 0)
(0.8944 0.4472 0)
(0.8944 0.447201 0)
(0.8944 0.447199 0)
(0.894401 0.4472 0)
(0.894399 0.4472 0)
(0.894401 0.447199 0)
(0.8944 0.447201 0)
(0.894402 0.4472 0)
(0.894401 0.4472 0)
(0.894403 0.447202 0)
(0.894405 0.447201 0)
(0.894407 0.447201 0)
(0.894411 0.447204 0)
(0.894415 0.447204 0)
(0.894422 0.447207 0)
(0.894432 0.44721 0)
(0.894442 0.447213 0)
(0.894456 0.447219 0)
(0.894472 0.447226 0)
(0.894489 0.44723 0)
(0.894501 0.447239 0)
(0.894505 0.44724 0)
(0.894498 0.447237 0)
(0.894447 0.44722 0)
(0.894352 0.447174 0)
(0.894164 0.447084 0)
(0.893845 0.446915 0)
(0.89333 0.446627 0)
(0.892545 0.446156 0)
(0.8914 0.445417 0)
(0.889794 0.444305 0)
(0.887633 0.442685 0)
(0.88487 0.440413 0)
(0.881558 0.43737 0)
(0.877927 0.433508 0)
(0.874453 0.428906 0)
(0.871808 0.423771 0)
(0.870711 0.418362 0)
(0.8944 0.4472 0)
(0.8944 0.4472 0)
(0.8944 0.4472 0)
(0.8944 0.4472 0)
(0.8944 0.4472 0)
(0.8944 0.4472 0)
(0.8944 0.4472 0)
(0.8944 0.4472 0)
(0.8944 0.4472 0)
(0.8944 0.4472 0)
(0.8944 0.4472 0)
(0.8944 0.4472 0)
(0.8944 0.4472 0)
(0.8944 0.4472 0)
(0.8944 0.4472 0)
(0.8944 0.4472 0)
(0.8944 0.4472 0)
(0.8944 0.4472 0)
(0.8944 0.4472 0)
(0.8944 0.4472 0)
(0.8944 0.4472 0)
(0.8944 0.4472 0)
(0.8944 0.4472 0)
(0.8944 0.4472 0)
(0.894401 0.4472 0)
(0.894399 0.4472 0)
(0.8944 0.4472 0)
(0.8944 0.4472 0)
(0.8944 0.4472 0)
(0.8944 0.4472 0)
(0.8944 0.4472 0)
(0.8944 0.4472 0)
(0.8944 0.4472 0)
(0.8944 0.4472 0)
(0.8944 0.4472 0)
(0.8944 0.4472 0)
(0.8944 0.4472 0)
(0.8944 0.4472 0)
(0.8944 0.4472 0)
(0.8944 0.4472 0)
(0.8944 0.4472 0)
(0.8944 0.4472 0)
(0.894401 0.447199 0)
(0.894399 0.447201 0)
(0.894403 0.447201 0)
(0.8944 0.4472 0)
(0.894404 0.447201 0)
(0.894404 0.4472 0)
(0.894408 0.447203 0)
(0.894408 0.447202 0)
(0.894416 0.447205 0)
(0.894419 0.447206 0)
(0.894429 0.44721 0)
(0.894442 0.447214 0)
(0.89445 0.447218 0)
(0.894468 0.447226 0)
(0.894483 0.447234 0)
(0.894496 0.447238 0)
(0.894505 0.447247 0)
(0.894501 0.447245 0)
(0.894466 0.447235 0)
(0.894389 0.447202 0)
(0.894242 0.447127 0)
(0.893981 0.446993 0)
(0.893558 0.446749 0)
(0.892911 0.446349 0)
(0.891951 0.445717 0)
(0.890593 0.444753 0)
(0.888753 0.443337 0)
(0.88636 0.441333 0)
(0.883422 0.438607 0)
(0.880079 0.435077 0)
(0.876671 0.430769 0)
(0.873757 0.425848 0)
(0.871995 0.420571 0)
(0.8944 0.4472 0)
(0.8944 0.4472 0)
(0.8944 0.4472 0)
(0.8944 0.4472 0)
(0.8944 0.4472 0)
(0.8944 0.4472 0)
(0.8944 0.4472 0)
(0.8944 0.4472 0)
(0.8944 0.4472 0)
(0.8944 0.4472 0)
(0.8944 0.4472 0)
(0.8944 0.4472 0)
(0.8944 0.4472 0)
(0.8944 0.4472 0)
(0.8944 0.4472 0)
(0.8944 0.4472 0)
(0.8944 0.4472 0)
(0.8944 0.4472 0)
(0.8944 0.4472 0)
(0.8944 0.4472 0)
(0.8944 0.4472 0)
(0.8944 0.4472 0)
(0.8944 0.4472 0)
(0.8944 0.4472 0)
(0.8944 0.4472 0)
(0.8944 0.4472 0)
(0.8944 0.4472 0)
(0.8944 0.4472 0)
(0.8944 0.4472 0)
(0.8944 0.4472 0)
(0.8944 0.4472 0)
(0.8944 0.4472 0)
(0.8944 0.4472 0)
(0.8944 0.4472 0)
(0.8944 0.4472 0)
(0.8944 0.4472 0)
(0.8944 0.4472 0)
(0.894401 0.4472 0)
(0.894399 0.4472 0)
(0.8944 0.4472 0)
(0.8944 0.4472 0)
(0.8944 0.4472 0)
(0.894401 0.447199 0)
(0.8944 0.4472 0)
(0.894401 0.447201 0)
(0.894402 0.447201 0)
(0.894402 0.4472 0)
(0.894404 0.447202 0)
(0.894405 0.4472 0)
(0.89441 0.447204 0)
(0.894411 0.447205 0)
(0.89442 0.447205 0)
(0.894425 0.447211 0)
(0.894435 0.447214 0)
(0.894449 0.447218 0)
(0.89446 0.447225 0)
(0.894478 0.447234 0)
(0.89449 0.447241 0)
(0.894501 0.447249 0)
(0.894499 0.447254 0)
(0.894479 0.447245 0)
(0.894419 0.447225 0)
(0.894302 0.447169 0)
(0.894096 0.447054 0)
(0.893752 0.44686 0)
(0.893218 0.446524 0)
(0.892425 0.445987 0)
(0.891294 0.445167 0)
(0.889742 0.443944 0)
(0.887703 0.442203 0)
(0.885147 0.439802 0)
(0.882145 0.436631 0)
(0.878924 0.432673 0)
(0.875908 0.428025 0)
(0.87368 0.42292 0)
(0.8944 0.4472 0)
(0.8944 0.4472 0)
(0.8944 0.4472 0)
(0.8944 0.4472 0)
(0.8944 0.4472 0)
(0.8944 0.4472 0)
(0.8944 0.4472 0)
(0.8944 0.4472 0)
(0.8944 0.4472 0)
(0.8944 0.4472 0)
(0.8944 0.4472 0)
(0.8944 0.4472 0)
(0.8944 0.4472 0)
(0.8944 0.4472 0)
(0.8944 0.4472 0)
(0.8944 0.4472 0)
(0.8944 0.4472 0)
(0.8944 0.4472 0)
(0.8944 0.4472 0)
(0.8944 0.4472 0)
(0.8944 0.4472 0)
(0.8944 0.4472 0)
(0.8944 0.4472 0)
(0.8944 0.4472 0)
(0.8944 0.4472 0)
(0.8944 0.4472 0)
(0.8944 0.4472 0)
(0.8944 0.4472 0)
(0.8944 0.4472 0)
(0.8944 0.4472 0)
(0.8944 0.4472 0)
(0.8944 0.4472 0)
(0.894399 0.4472 0)
(0.8944 0.4472 0)
(0.8944 0.447199 0)
(0.8944 0.447201 0)
(0.8944 0.447199 0)
(0.8944 0.447201 0)
(0.8944 0.4472 0)
(0.8944 0.4472 0)
(0.8944 0.4472 0)
(0.894401 0.4472 0)
(0.8944 0.4472 0)
(0.894401 0.4472 0)
(0.8944 0.447199 0)
(0.894403 0.447201 0)
(0.894401 0.447202 0)
(0.894405 0.447199 0)
(0.894404 0.447203 0)
(0.894408 0.447202 0)
(0.894412 0.447204 0)
(0.894417 0.447207 0)
(0.894423 0.447208 0)
(0.894432 0.447213 0)
(0.894444 0.44722 0)
(0.894456 0.447224 0)
(0.89447 0.447233 0)
(0.894485 0.447244 0)
(0.894495 0.447249 0)
(0.894498 0.447258 0)
(0.894484 0.447258 0)
(0.894441 0.447239 0)
(0.894353 0.447199 0)
(0.894184 0.447115 0)
(0.893912 0.446951 0)
(0.893479 0.446677 0)
(0.892829 0.44623 0)
(0.891894 0.445537 0)
(0.890603 0.444503 0)
(0.888888 0.443005 0)
(0.886704 0.440919 0)
(0.884072 0.438132 0)
(0.881129 0.434565 0)
(0.878172 0.430262 0)
(0.875672 0.425396 0)
(0.8944 0.4472 0)
(0.8944 0.4472 0)
(0.8944 0.4472 0)
(0.8944 0.4472 0)
(0.8944 0.4472 0)
(0.8944 0.4472 0)
(0.8944 0.4472 0)
(0.8944 0.4472 0)
(0.8944 0.4472 0)
(0.8944 0.4472 0)
(0.8944 0.4472 0)
(0.8944 0.4472 0)
(0.8944 0.4472 0)
(0.8944 0.4472 0)
(0.8944 0.4472 0)
(0.8944 0.4472 0)
(0.8944 0.4472 0)
(0.8944 0.4472 0)
(0.8944 0.4472 0)
(0.8944 0.4472 0)
(0.8944 0.4472 0)
(0.8944 0.4472 0)
(0.8944 0.4472 0)
(0.8944 0.4472 0)
(0.8944 0.4472 0)
(0.8944 0.4472 0)
(0.8944 0.4472 0)
(0.8944 0.4472 0)
(0.8944 0.4472 0)
(0.8944 0.4472 0)
(0.8944 0.4472 0)
(0.8944 0.4472 0)
(0.8944 0.4472 0)
(0.8944 0.4472 0)
(0.8944 0.4472 0)
(0.8944 0.4472 0)
(0.894399 0.4472 0)
(0.8944 0.4472 0)
(0.8944 0.4472 0)
(0.8944 0.4472 0)
(0.8944 0.4472 0)
(0.8944 0.4472 0)
(0.894401 0.4472 0)
(0.8944 0.4472 0)
(0.894401 0.447199 0)
(0.894401 0.447201 0)
(0.894402 0.4472 0)
(0.894404 0.447201 0)
(0.894403 0.447202 0)
(0.894408 0.447202 0)
(0.894409 0.447204 0)
(0.894415 0.447207 0)
(0.894421 0.447208 0)
(0.894428 0.447213 0)
(0.89444 0.447217 0)
(0.894449 0.447225 0)
(0.894465 0.447232 0)
(0.894477 0.447241 0)
(0.894491 0.447252 0)
(0.894491 0.447259 0)
(0.894489 0.447262 0)
(0.894455 0.447255 0)
(0.894386 0.447224 0)
(0.894258 0.44716 0)
(0.894039 0.447031 0)
(0.893693 0.446808 0)
(0.893166 0.446443 0)
(0.892405 0.445867 0)
(0.891345 0.444995 0)
(0.889918 0.443733 0)
(0.888078 0.441953 0)
(0.885821 0.439533 0)
(0.883211 0.436389 0)
(0.880442 0.432498 0)
(0.877862 0.427957 0)
(0.8944 0.4472 0)
(0.8944 0.4472 0)
(0.8944 0.4472 0)
(0.8944 0.4472 0)
(0.8944 0.4472 0)
(0.8944 0.4472 0)
(0.8944 0.4472 0)
(0.8944 0.4472 0)
(0.8944 0.4472 0)
(0.8944 0.4472 0)
(0.8944 0.4472 0)
(0.8944 0.4472 0)
(0.8944 0.4472 0)
(0.8944 0.4472 0)
(0.8944 0.4472 0)
(0.8944 0.4472 0)
(0.8944 0.4472 0)
(0.8944 0.4472 0)
(0.8944 0.4472 0)
(0.8944 0.4472 0)
(0.8944 0.4472 0)
(0.8944 0.4472 0)
(0.8944 0.4472 0)
(0.8944 0.4472 0)
(0.8944 0.4472 0)
(0.8944 0.4472 0)
(0.8944 0.4472 0)
(0.8944 0.4472 0)
(0.8944 0.4472 0)
(0.8944 0.4472 0)
(0.8944 0.4472 0)
(0.8944 0.4472 0)
(0.8944 0.4472 0)
(0.8944 0.4472 0)
(0.8944 0.4472 0)
(0.8944 0.4472 0)
(0.8944 0.4472 0)
(0.8944 0.447199 0)
(0.8944 0.4472 0)
(0.894401 0.4472 0)
(0.894399 0.4472 0)
(0.8944 0.4472 0)
(0.894401 0.4472 0)
(0.8944 0.447201 0)
(0.894401 0.4472 0)
(0.894402 0.4472 0)
(0.8944 0.447202 0)
(0.894404 0.4472 0)
(0.894403 0.447202 0)
(0.894406 0.447203 0)
(0.89441 0.447203 0)
(0.894412 0.447206 0)
(0.894419 0.447208 0)
(0.894426 0.447213 0)
(0.894433 0.447217 0)
(0.894446 0.447222 0)
(0.894459 0.447233 0)
(0.894469 0.44724 0)
(0.894481 0.447251 0)
(0.89449 0.44726 0)
(0.894485 0.447264 0)
(0.894464 0.447265 0)
(0.894414 0.447244 0)
(0.894313 0.447193 0)
(0.894143 0.447098 0)
(0.893867 0.446921 0)
(0.893446 0.44662 0)
(0.892832 0.446152 0)
(0.891967 0.445433 0)
(0.890796 0.444376 0)
(0.889274 0.442878 0)
(0.887373 0.440819 0)
(0.885115 0.438097 0)
(0.882619 0.434659 0)
(0.880124 0.430526 0)
(0.8944 0.4472 0)
(0.8944 0.4472 0)
(0.8944 0.4472 0)
(0.8944 0.4472 0)
(0.8944 0.4472 0)
(0.8944 0.4472 0)
(0.8944 0.4472 0)
(0.8944 0.4472 0)
(0.8944 0.4472 0)
(0.8944 0.4472 0)
(0.8944 0.4472 0)
(0.8944 0.4472 0)
(0.8944 0.4472 0)
(0.8944 0.4472 0)
(0.8944 0.4472 0)
(0.8944 0.4472 0)
(0.8944 0.4472 0)
(0.8944 0.4472 0)
(0.8944 0.4472 0)
(0.8944 0.4472 0)
(0.8944 0.4472 0)
(0.8944 0.4472 0)
(0.8944 0.4472 0)
(0.8944 0.4472 0)
(0.8944 0.4472 0)
(0.8944 0.4472 0)
(0.8944 0.4472 0)
(0.8944 0.4472 0)
(0.8944 0.4472 0)
(0.8944 0.4472 0)
(0.8944 0.4472 0)
(0.8944 0.4472 0)
(0.8944 0.4472 0)
(0.8944 0.4472 0)
(0.8944 0.4472 0)
(0.8944 0.4472 0)
(0.8944 0.447201 0)
(0.8944 0.447199 0)
(0.8944 0.4472 0)
(0.8944 0.4472 0)
(0.8944 0.4472 0)
(0.8944 0.4472 0)
(0.894401 0.4472 0)
(0.8944 0.4472 0)
(0.894401 0.4472 0)
(0.894399 0.4472 0)
(0.894403 0.447201 0)
(0.894402 0.447201 0)
(0.894404 0.447201 0)
(0.894404 0.447203 0)
(0.894408 0.447203 0)
(0.894411 0.447205 0)
(0.894416 0.447208 0)
(0.894423 0.447211 0)
(0.89443 0.447216 0)
(0.89444 0.447222 0)
(0.89445 0.447229 0)
(0.894464 0.447238 0)
(0.894472 0.447249 0)
(0.894483 0.44726 0)
(0.894483 0.447264 0)
(0.894468 0.44727 0)
(0.89443 0.447258 0)
(0.894356 0.447222 0)
(0.894222 0.44715 0)
(0.894005 0.44701 0)
(0.893673 0.446774 0)
(0.893181 0.446393 0)
(0.892486 0.445808 0)
(0.89154 0.444939 0)
(0.890291 0.443694 0)
(0.888714 0.441966 0)
(0.886807 0.439656 0)
(0.884632 0.43668 0)
(0.882341 0.433018 0)
(0.8944 0.4472 0)
(0.8944 0.4472 0)
(0.8944 0.4472 0)
(0.8944 0.4472 0)
(0.8944 0.4472 0)
(0.8944 0.4472 0)
(0.8944 0.4472 0)
(0.8944 0.4472 0)
(0.8944 0.4472 0)
(0.8944 0.4472 0)
(0.8944 0.4472 0)
(0.8944 0.4472 0)
(0.8944 0.4472 0)
(0.8944 0.4472 0)
(0.8944 0.4472 0)
(0.8944 0.4472 0)
(0.8944 0.4472 0)
(0.8944 0.4472 0)
(0.8944 0.4472 0)
(0.8944 0.4472 0)
(0.8944 0.4472 0)
(0.8944 0.4472 0)
(0.8944 0.4472 0)
(0.8944 0.4472 0)
(0.8944 0.4472 0)
(0.8944 0.4472 0)
(0.8944 0.4472 0)
(0.8944 0.4472 0)
(0.894401 0.4472 0)
(0.8944 0.4472 0)
(0.8944 0.4472 0)
(0.8944 0.4472 0)
(0.8944 0.4472 0)
(0.8944 0.4472 0)
(0.8944 0.4472 0)
(0.8944 0.4472 0)
(0.8944 0.4472 0)
(0.8944 0.4472 0)
(0.894399 0.4472 0)
(0.894401 0.4472 0)
(0.894399 0.4472 0)
(0.8944 0.4472 0)
(0.8944 0.4472 0)
(0.894401 0.4472 0)
(0.8944 0.4472 0)
(0.894401 0.4472 0)
(0.894402 0.447201 0)
(0.894401 0.447201 0)
(0.894404 0.447202 0)
(0.894404 0.447201 0)
(0.894407 0.447204 0)
(0.89441 0.447204 0)
(0.894413 0.447208 0)
(0.89442 0.447211 0)
(0.894426 0.447215 0)
(0.894433 0.447221 0)
(0.894446 0.447227 0)
(0.894454 0.447236 0)
(0.894467 0.447246 0)
(0.894472 0.447258 0)
(0.894476 0.447265 0)
(0.89447 0.447271 0)
(0.89444 0.447266 0)
(0.894385 0.447241 0)
(0.894283 0.447188 0)
(0.894115 0.447085 0)
(0.893855 0.446898 0)
(0.893464 0.446594 0)
(0.892912 0.446124 0)
(0.892153 0.445418 0)
(0.891145 0.444398 0)
(0.889857 0.442973 0)
(0.888276 0.441041 0)
(0.886428 0.438517 0)
(0.884406 0.435349 0)
(0.8944 0.4472 0)
(0.8944 0.4472 0)
(0.8944 0.4472 0)
(0.8944 0.4472 0)
(0.8944 0.4472 0)
(0.8944 0.4472 0)
(0.8944 0.4472 0)
(0.8944 0.4472 0)
(0.8944 0.4472 0)
(0.8944 0.4472 0)
(0.8944 0.4472 0)
(0.8944 0.4472 0)
(0.8944 0.4472 0)
(0.8944 0.4472 0)
(0.8944 0.4472 0)
(0.8944 0.4472 0)
(0.8944 0.4472 0)
(0.8944 0.4472 0)
(0.8944 0.4472 0)
(0.8944 0.4472 0)
(0.8944 0.4472 0)
(0.8944 0.4472 0)
(0.8944 0.4472 0)
(0.8944 0.4472 0)
(0.8944 0.4472 0)
(0.8944 0.4472 0)
(0.8944 0.4472 0)
(0.8944 0.4472 0)
(0.8944 0.4472 0)
(0.8944 0.4472 0)
(0.8944 0.4472 0)
(0.8944 0.4472 0)
(0.8944 0.4472 0)
(0.8944 0.4472 0)
(0.8944 0.4472 0)
(0.8944 0.4472 0)
(0.8944 0.4472 0)
(0.8944 0.4472 0)
(0.8944 0.4472 0)
(0.8944 0.447199 0)
(0.8944 0.447201 0)
(0.8944 0.447199 0)
(0.8944 0.447201 0)
(0.894399 0.4472 0)
(0.894402 0.447199 0)
(0.894399 0.447202 0)
(0.894402 0.447199 0)
(0.894402 0.447201 0)
(0.894401 0.447202 0)
(0.894406 0.447201 0)
(0.894404 0.447203 0)
(0.894409 0.447205 0)
(0.894413 0.447206 0)
(0.894416 0.447209 0)
(0.894423 0.447214 0)
(0.89443 0.447219 0)
(0.894438 0.447225 0)
(0.894448 0.447234 0)
(0.894459 0.447243 0)
(0.894466 0.447253 0)
(0.894468 0.447264 0)
(0.894469 0.447269 0)
(0.894445 0.44727 0)
(0.894405 0.447255 0)
(0.894329 0.447217 0)
(0.894198 0.44714 0)
(0.893995 0.446996 0)
(0.893692 0.446759 0)
(0.893256 0.446386 0)
(0.892653 0.44582 0)
(0.89185 0.444994 0)
(0.89081 0.443835 0)
(0.889523 0.442246 0)
(0.887991 0.440144 0)
(0.886258 0.437463 0)
(0.8944 0.4472 0)
(0.8944 0.4472 0)
(0.8944 0.4472 0)
(0.8944 0.4472 0)
(0.8944 0.4472 0)
(0.8944 0.4472 0)
(0.8944 0.4472 0)
(0.8944 0.4472 0)
(0.8944 0.4472 0)
(0.8944 0.4472 0)
(0.8944 0.4472 0)
(0.8944 0.4472 0)
(0.8944 0.4472 0)
(0.8944 0.4472 0)
(0.8944 0.4472 0)
(0.8944 0.4472 0)
(0.8944 0.4472 0)
(0.8944 0.4472 0)
(0.8944 0.4472 0)
(0.8944 0.4472 0)
(0.8944 0.4472 0)
(0.8944 0.4472 0)
(0.8944 0.4472 0)
(0.8944 0.4472 0)
(0.8944 0.4472 0)
(0.8944 0.4472 0)
(0.8944 0.4472 0)
(0.8944 0.4472 0)
(0.8944 0.4472 0)
(0.8944 0.4472 0)
(0.8944 0.4472 0)
(0.8944 0.4472 0)
(0.8944 0.4472 0)
(0.8944 0.4472 0)
(0.8944 0.4472 0)
(0.8944 0.4472 0)
(0.8944 0.4472 0)
(0.8944 0.4472 0)
(0.8944 0.4472 0)
(0.8944 0.4472 0)
(0.894399 0.4472 0)
(0.894401 0.4472 0)
(0.894399 0.4472 0)
(0.894401 0.4472 0)
(0.8944 0.4472 0)
(0.894401 0.4472 0)
(0.894401 0.447202 0)
(0.894401 0.4472 0)
(0.894402 0.447202 0)
(0.894403 0.447201 0)
(0.894406 0.447203 0)
(0.894406 0.447204 0)
(0.894412 0.447205 0)
(0.894416 0.447208 0)
(0.894417 0.447214 0)
(0.894428 0.447215 0)
(0.894434 0.447223 0)
(0.894441 0.44723 0)
(0.894451 0.447239 0)
(0.894459 0.44725 0)
(0.894463 0.44726 0)
(0.89446 0.447267 0)
(0.894452 0.447272 0)
(0.894415 0.447265 0)
(0.894363 0.447238 0)
(0.894259 0.447179 0)
(0.894105 0.447074 0)
(0.893871 0.446892 0)
(0.893529 0.446597 0)
(0.893057 0.446151 0)
(0.892422 0.445495 0)
(0.891596 0.444559 0)
(0.890561 0.443272 0)
(0.889314 0.441552 0)
(0.887874 0.439329 0)
(0.8944 0.4472 0)
(0.8944 0.4472 0)
(0.8944 0.4472 0)
(0.8944 0.4472 0)
(0.8944 0.4472 0)
(0.8944 0.4472 0)
(0.8944 0.4472 0)
(0.8944 0.4472 0)
(0.8944 0.4472 0)
(0.8944 0.4472 0)
(0.8944 0.4472 0)
(0.8944 0.4472 0)
(0.8944 0.4472 0)
(0.8944 0.4472 0)
(0.8944 0.4472 0)
(0.8944 0.4472 0)
(0.8944 0.4472 0)
(0.8944 0.4472 0)
(0.8944 0.4472 0)
(0.8944 0.4472 0)
(0.8944 0.4472 0)
(0.8944 0.4472 0)
(0.8944 0.4472 0)
(0.8944 0.4472 0)
(0.8944 0.4472 0)
(0.8944 0.4472 0)
(0.8944 0.4472 0)
(0.8944 0.4472 0)
(0.8944 0.4472 0)
(0.8944 0.4472 0)
(0.8944 0.4472 0)
(0.8944 0.4472 0)
(0.8944 0.4472 0)
(0.8944 0.4472 0)
(0.8944 0.4472 0)
(0.8944 0.4472 0)
(0.8944 0.4472 0)
(0.8944 0.4472 0)
(0.8944 0.4472 0)
(0.8944 0.4472 0)
(0.894399 0.4472 0)
(0.894401 0.4472 0)
(0.894399 0.447201 0)
(0.894402 0.447199 0)
(0.894399 0.447201 0)
(0.894401 0.4472 0)
(0.894401 0.447199 0)
(0.894401 0.447202 0)
(0.894402 0.447199 0)
(0.894404 0.447202 0)
(0.894403 0.447203 0)
(0.894406 0.447202 0)
(0.894409 0.447207 0)
(0.89441 0.447207 0)
(0.894417 0.447211 0)
(0.894423 0.447215 0)
(0.894428 0.44722 0)
(0.894436 0.447229 0)
(0.894444 0.447235 0)
(0.89445 0.447245 0)
(0.894456 0.447256 0)
(0.894454 0.447264 0)
(0.894449 0.447267 0)
(0.894427 0.447268 0)
(0.89438 0.447252 0)
(0.894308 0.447209 0)
(0.89419 0.447132 0)
(0.894007 0.446993 0)
(0.893744 0.446768 0)
(0.893376 0.446418 0)
(0.892879 0.445901 0)
(0.892233 0.445161 0)
(0.89141 0.44413 0)
(0.890409 0.442743 0)
(0.889241 0.440932 0)
(0.8944 0.4472 0)
(0.8944 0.4472 0)
(0.8944 0.4472 0)
(0.8944 0.4472 0)
(0.8944 0.4472 0)
(0.8944 0.4472 0)
(0.8944 0.4472 0)
(0.8944 0.4472 0)
(0.8944 0.4472 0)
(0.8944 0.4472 0)
(0.8944 0.4472 0)
(0.8944 0.4472 0)
(0.8944 0.4472 0)
(0.8944 0.4472 0)
(0.8944 0.4472 0)
(0.8944 0.4472 0)
(0.8944 0.4472 0)
(0.8944 0.4472 0)
(0.8944 0.4472 0)
(0.8944 0.4472 0)
(0.8944 0.4472 0)
(0.8944 0.4472 0)
(0.8944 0.4472 0)
(0.8944 0.4472 0)
(0.8944 0.4472 0)
(0.8944 0.4472 0)
(0.8944 0.4472 0)
(0.8944 0.4472 0)
(0.8944 0.4472 0)
(0.8944 0.4472 0)
(0.8944 0.4472 0)
(0.8944 0.4472 0)
(0.8944 0.4472 0)
(0.8944 0.4472 0)
(0.8944 0.4472 0)
(0.8944 0.4472 0)
(0.8944 0.4472 0)
(0.8944 0.4472 0)
(0.8944 0.4472 0)
(0.8944 0.4472 0)
(0.894401 0.4472 0)
(0.894399 0.4472 0)
(0.894401 0.4472 0)
(0.8944 0.447199 0)
(0.894401 0.447201 0)
(0.8944 0.4472 0)
(0.8944 0.4472 0)
(0.894401 0.4472 0)
(0.894401 0.447202 0)
(0.894403 0.447201 0)
(0.894403 0.447202 0)
(0.894405 0.447203 0)
(0.894408 0.447203 0)
(0.89441 0.447207 0)
(0.894414 0.447209 0)
(0.894417 0.447213 0)
(0.894426 0.447219 0)
(0.89443 0.447224 0)
(0.894436 0.447232 0)
(0.894445 0.44724 0)
(0.894447 0.44725 0)
(0.89445 0.447258 0)
(0.894443 0.447267 0)
(0.894429 0.447267 0)
(0.894396 0.447259 0)
(0.894342 0.44723 0)
(0.894248 0.447173 0)
(0.894111 0.44707 0)
(0.893912 0.446897 0)
(0.893627 0.446632 0)
(0.893243 0.44623 0)
(0.892738 0.445648 0)
(0.892097 0.444836 0)
(0.891306 0.443732 0)
(0.89037 0.442278 0)
(0.8944 0.4472 0)
(0.8944 0.4472 0)
(0.8944 0.4472 0)
(0.8944 0.4472 0)
(0.8944 0.4472 0)
(0.8944 0.4472 0)
(0.8944 0.4472 0)
(0.8944 0.4472 0)
(0.8944 0.4472 0)
(0.8944 0.4472 0)
(0.8944 0.4472 0)
(0.8944 0.4472 0)
(0.8944 0.4472 0)
(0.8944 0.4472 0)
(0.8944 0.4472 0)
(0.8944 0.4472 0)
(0.8944 0.4472 0)
(0.8944 0.4472 0)
(0.8944 0.4472 0)
(0.8944 0.4472 0)
(0.8944 0.4472 0)
(0.8944 0.4472 0)
(0.8944 0.4472 0)
(0.8944 0.4472 0)
(0.8944 0.4472 0)
(0.8944 0.4472 0)
(0.8944 0.4472 0)
(0.8944 0.4472 0)
(0.8944 0.4472 0)
(0.8944 0.4472 0)
(0.8944 0.4472 0)
(0.8944 0.4472 0)
(0.8944 0.4472 0)
(0.8944 0.4472 0)
(0.8944 0.447199 0)
(0.8944 0.447201 0)
(0.894401 0.4472 0)
(0.8944 0.4472 0)
(0.8944 0.4472 0)
(0.8944 0.4472 0)
(0.8944 0.447201 0)
(0.8944 0.447199 0)
(0.8944 0.447201 0)
(0.8944 0.4472 0)
(0.8944 0.4472 0)
(0.8944 0.447201 0)
(0.894402 0.4472 0)
(0.894398 0.4472 0)
(0.894404 0.447201 0)
(0.8944 0.447202 0)
(0.894404 0.447201 0)
(0.894404 0.447203 0)
(0.894407 0.447203 0)
(0.894408 0.447206 0)
(0.894411 0.447208 0)
(0.894417 0.447211 0)
(0.894418 0.447217 0)
(0.894427 0.447221 0)
(0.894429 0.447228 0)
(0.894439 0.447237 0)
(0.89444 0.447244 0)
(0.894443 0.447252 0)
(0.89444 0.447263 0)
(0.894428 0.447264 0)
(0.894405 0.447261 0)
(0.894364 0.447243 0)