/*--------------------------------*- C++ -*----------------------------------*\
  =========                 |
  \\      /  F ield         | OpenFOAM: The Open Source CFD Toolbox
   \\    /   O peration     | Website:  https://openfoam.org
    \\  /    A nd           | Version:  6
     \\/     M anipulation  |
\*---------------------------------------------------------------------------*/
FoamFile
{
    version     2.0;
    format      ascii;
    class       volScalarField;
    location    "100";
    object      p;
}
// * * * * * * * * * * * * * * * * * * * * * * * * * * * * * * * * * * * * * //

dimensions      [0 2 -2 0 0 0 0];

internalField   nonuniform List<scalar> 
318
(
0.0307134
0.0280567
0.0251819
0.0221116
0.0188743
0.0155489
0.0121606
0.00870827
0.00521464
0.00171906
0.0304936
0.0278973
0.0250487
0.0220013
0.0187862
0.0154794
0.0121084
0.00866776
0.00518693
0.00169925
0.028085
0.0252016
0.0221232
0.0188831
0.0155549
0.0121662
0.00871189
0.00521783
0.00172209
0.0283048
0.0253861
0.022274
0.019003
0.0156495
0.0122381
0.00876688
0.00525642
0.0017491
0.0282876
0.0253783
0.0222707
0.0190027
0.0156507
0.0122388
0.00876881
0.00525694
0.0017496
0.0307179
0.0280775
0.0251927
0.0221105
0.0188737
0.0155403
0.0121468
0.00869464
0.00520158
0.00170966
0.030293
0.027745
0.0249038
0.0218619
0.0186681
0.0153724
0.0120182
0.0085916
0.00513095
0.00165805
0.0280357
0.0251614
0.0220796
0.0188477
0.0155187
0.012135
0.00868355
0.00519668
0.00170561
0.0283271
0.0254238
0.022307
0.0190381
0.0156755
0.0122574
0.00878206
0.00526442
0.00175673
0.0284242
0.0255144
0.02239
0.0191095
0.0157363
0.012303
0.00881972
0.00529012
0.00177387
0.0334917
0.0311525
0.0283669
0.0253802
0.022226
0.0189427
0.0155777
0.0121647
0.00870458
0.00520979
0.00170673
0.0323777
0.0301295
0.0274978
0.0246336
0.0215861
0.0184104
0.0151392
0.0118259
0.00843391
0.0050238
0.00157875
0.0281353
0.0252041
0.0220815
0.0188259
0.0154818
0.0121006
0.00865167
0.00517622
0.00168749
0.0285833
0.0256046
0.0224349
0.0191267
0.0157342
0.0122972
0.00881047
0.00528235
0.00176919
0.0290582
0.0260281
0.0228061
0.019444
0.0160017
0.0125028
0.00898004
0.00539766
0.00184679
0.0361756
0.0334653
0.0304185
0.0271557
0.0237464
0.0202608
0.0167397
0.0131827
0.0096341
0.00603994
0.00249191
0.0325519
0.0300724
0.027313
0.0243918
0.0213173
0.0181472
0.0148893
0.011612
0.00825881
0.0049082
0.00151677
0.0285239
0.0254449
0.0222243
0.0188989
0.0155098
0.0121038
0.00864569
0.00517286
0.00168571
0.029171
0.0259851
0.0226754
0.019271
0.0158209
0.0123419
0.00883662
0.00529383
0.00177385
0.0301842
0.0268859
0.0234387
0.019918
0.0163614
0.0127606
0.00918271
0.00552523
0.0019177
0.0388651
0.0346257
0.0307563
0.026989
0.0232278
0.0195586
0.0159451
0.0123761
0.00882606
0.00529235
0.0017633
0.0387681
0.034607
0.030456
0.0265615
0.0228193
0.0191825
0.0156072
0.0120893
0.00858248
0.00513634
0.00167404
0.0308999
0.0269647
0.0232067
0.0195266
0.0159122
0.0123386
0.00879572
0.00528278
0.00175694
0.0311248
0.0272208
0.023434
0.0197217
0.0160802
0.012479
0.00891075
0.0053441
0.00179956
0.0317004
0.0277763
0.0238934
0.0201026
0.016394
0.0127323
0.00911302
0.0054825
0.00187619
0.0364432
0.034137
0.0322766
0.0368055
0.0366511
0.0354782
0.0335972
0.0334654
0.0315888
0.0297409
0.0337536
0.0334212
0.032575
0.0307406
0.0302052
0.0287514
0.0269122
0.0305522
0.0300441
0.0295441
0.0277142
0.0267525
0.0257235
0.0239172
0.0271791
0.0265152
0.0263448
0.0245359
0.0231815
0.022548
0.0207872
0.0236814
0.022901
0.0230019
0.0212396
0.0195611
0.0192916
0.0175723
0.0201643
0.0192848
0.0196283
0.0179038
0.0159248
0.0159584
0.014293
0.0166312
0.0156624
0.0162077
0.0145304
0.0122825
0.012612
0.0109729
0.0130805
0.0120484
0.0127902
0.0111362
0.00865631
0.00919513
0.00760272
0.00954984
0.00845308
0.00933478
0.00772226
0.00500678
0.00580395
0.00420135
0.00598313
0.00484658
0.00590496
0.0042814
0.00134623
0.00230991
0.000790818
0.00246815
0.00119184
0.00240946
0.000850357
)
;

boundaryField
{
    inlet
    {
        type            zeroGradient;
    }
    outlet
    {
        type            fixedValue;
        value           uniform 0;
    }
    side1
    {
        type            cyclicAMI;
        value           nonuniform List<scalar> 
86
(
0.033905
0.0361758
0.0394599
0.0308212
0.0308973
0.031511
0.0334051
0.035166
0.0281722
0.0282509
0.0287125
0.0303439
0.0312283
0.0252801
0.0253535
0.0257042
0.0270698
0.0273827
0.0221912
0.0222502
0.022516
0.0236484
0.0235606
0.0189385
0.0189916
0.0191933
0.0201516
0.0198306
0.0155998
0.0156383
0.0157897
0.0166193
0.0161696
0.0121997
0.0122249
0.0123337
0.0130483
0.0125542
0.00873854
0.00875718
0.00884231
0.00949038
0.00896954
0.00523579
0.00524585
0.00530373
0.00587606
0.00538743
0.00173433
0.00174176
0.00177676
0.00230908
0.00181974
0.0363582
0.0364866
0.0365875
0.0334052
0.033371
0.0335882
0.0301985
0.0300926
0.0304247
0.026795
0.0266436
0.0270775
0.0232634
0.0230872
0.0235973
0.0196747
0.0195041
0.020079
0.0160638
0.0159045
0.0165377
0.0124348
0.0122951
0.0129697
0.00882391
0.00870579
0.00942268
0.00517185
0.00508163
0.00582453
0.00152818
0.00144325
0.00227749
)
;
    }
    side2
    {
        type            cyclicAMI;
        value           nonuniform List<scalar> 
45
(
0.0281722
0.0282509
0.0287125
0.0302648
0.0312283
0.0252801
0.0253535
0.0257042
0.0268957
0.0273827
0.0221912
0.0222502
0.022516
0.0233979
0.0235606
0.0189385
0.0189916
0.0191933
0.0198511
0.0198306
0.0155998
0.0156383
0.0157897
0.0162801
0.0161696
0.0121997
0.0122249
0.0123337
0.0126858
0.0125542
0.00873854
0.00875718
0.00884231
0.00910972
0.00896954
0.00523579
0.00524585
0.00530373
0.00548778
0.00538743
0.00173433
0.00174176
0.00177676
0.00188889
0.00181974
)
;
    }
    walls
    {
        type            zeroGradient;
    }
    procBoundary2to3
    {
        type            processor;
        value           nonuniform List<scalar> 
38
(
0.0327413
0.0325246
0.0306577
0.0306577
0.030876
0.030929
0.0328143
0.0328143
0.0323768
0.0323768
0.0305892
0.0305892
0.030907
0.0310768
0.0354591
0.0343077
0.033251
0.0308167
0.0308167
0.0313149
0.0318695
0.0391183
0.0348836
0.034323
0.0314945
0.0314945
0.0321996
0.0332762
0.0434555
0.0428508
0.0392769
0.0350818
0.0350818
0.0352028
0.0357063
0.0346199
0.039675
0.0362341
)
;
    }
}


// ************************************************************************* //
