/*--------------------------------*- C++ -*----------------------------------*\
  =========                 |
  \\      /  F ield         | OpenFOAM: The Open Source CFD Toolbox
   \\    /   O peration     | Website:  https://openfoam.org
    \\  /    A nd           | Version:  6
     \\/     M anipulation  |
\*---------------------------------------------------------------------------*/
FoamFile
{
    version     2.0;
    format      ascii;
    class       volVectorField;
    location    "3.52";
    object      U;
}
// * * * * * * * * * * * * * * * * * * * * * * * * * * * * * * * * * * * * * //

dimensions      [0 1 -1 0 0 0 0];

internalField   nonuniform List<vector> 
10000
(
(0.8944 0.4472 0)
(0.8944 0.4472 0)
(0.8944 0.4472 0)
(0.8944 0.4472 0)
(0.8944 0.4472 0)
(0.8944 0.4472 0)
(0.8944 0.4472 0)
(0.8944 0.4472 0)
(0.8944 0.4472 0)
(0.8944 0.4472 0)
(0.8944 0.4472 0)
(0.8944 0.4472 0)
(0.8944 0.4472 0)
(0.8944 0.4472 0)
(0.8944 0.4472 0)
(0.8944 0.4472 0)
(0.8944 0.4472 0)
(0.8944 0.4472 0)
(0.8944 0.4472 0)
(0.8944 0.4472 0)
(0.8944 0.4472 0)
(0.8944 0.4472 0)
(0.8944 0.4472 0)
(0.8944 0.4472 0)
(0.8944 0.4472 0)
(0.8944 0.4472 0)
(0.8944 0.4472 0)
(0.8944 0.4472 0)
(0.8944 0.4472 0)
(0.8944 0.4472 0)
(0.8944 0.4472 0)
(0.8944 0.4472 0)
(0.8944 0.4472 0)
(0.8944 0.4472 0)
(0.8944 0.4472 0)
(0.8944 0.4472 0)
(0.8944 0.4472 0)
(0.8944 0.4472 0)
(0.8944 0.4472 0)
(0.8944 0.4472 0)
(0.8944 0.4472 0)
(0.8944 0.4472 0)
(0.8944 0.447201 0)
(0.8944 0.447201 0)
(0.894401 0.4472 0)
(0.894402 0.4472 0)
(0.894404 0.447199 0)
(0.894406 0.447196 0)
(0.894409 0.447192 0)
(0.894413 0.447187 0)
(0.894418 0.44718 0)
(0.894422 0.447171 0)
(0.894425 0.44716 0)
(0.894428 0.447148 0)
(0.894428 0.447137 0)
(0.894425 0.447127 0)
(0.894419 0.447121 0)
(0.894409 0.447119 0)
(0.894397 0.447122 0)
(0.894383 0.447132 0)
(0.894369 0.447149 0)
(0.894356 0.447172 0)
(0.894345 0.4472 0)
(0.894337 0.447231 0)
(0.894335 0.447262 0)
(0.894336 0.447293 0)
(0.894343 0.44732 0)
(0.894353 0.447341 0)
(0.894366 0.447356 0)
(0.89438 0.447364 0)
(0.894394 0.447366 0)
(0.894407 0.447361 0)
(0.894418 0.44735 0)
(0.894426 0.447335 0)
(0.894431 0.447318 0)
(0.894433 0.4473 0)
(0.894433 0.447281 0)
(0.894431 0.447264 0)
(0.894427 0.447249 0)
(0.894423 0.447236 0)
(0.894418 0.447226 0)
(0.894414 0.447217 0)
(0.89441 0.447211 0)
(0.894407 0.447207 0)
(0.894405 0.447204 0)
(0.894403 0.447202 0)
(0.894402 0.447201 0)
(0.894401 0.4472 0)
(0.894401 0.4472 0)
(0.8944 0.4472 0)
(0.8944 0.4472 0)
(0.8944 0.4472 0)
(0.8944 0.4472 0)
(0.8944 0.4472 0)
(0.8944 0.4472 0)
(0.8944 0.4472 0)
(0.8944 0.4472 0)
(0.8944 0.4472 0)
(0.8944 0.4472 0)
(0.8944 0.4472 0)
(0.8944 0.4472 0)
(0.8944 0.4472 0)
(0.8944 0.4472 0)
(0.8944 0.4472 0)
(0.8944 0.4472 0)
(0.8944 0.4472 0)
(0.8944 0.4472 0)
(0.8944 0.4472 0)
(0.8944 0.4472 0)
(0.8944 0.4472 0)
(0.8944 0.4472 0)
(0.8944 0.4472 0)
(0.8944 0.4472 0)
(0.8944 0.4472 0)
(0.8944 0.4472 0)
(0.8944 0.4472 0)
(0.8944 0.4472 0)
(0.8944 0.4472 0)
(0.8944 0.4472 0)
(0.8944 0.4472 0)
(0.8944 0.4472 0)
(0.8944 0.4472 0)
(0.8944 0.4472 0)
(0.8944 0.4472 0)
(0.8944 0.4472 0)
(0.8944 0.4472 0)
(0.8944 0.4472 0)
(0.8944 0.4472 0)
(0.8944 0.4472 0)
(0.8944 0.4472 0)
(0.8944 0.4472 0)
(0.8944 0.4472 0)
(0.8944 0.4472 0)
(0.8944 0.4472 0)
(0.8944 0.4472 0)
(0.8944 0.4472 0)
(0.8944 0.4472 0)
(0.8944 0.4472 0)
(0.8944 0.4472 0)
(0.8944 0.4472 0)
(0.8944 0.447201 0)
(0.8944 0.447201 0)
(0.8944 0.447201 0)
(0.8944 0.447201 0)
(0.894401 0.447201 0)
(0.894403 0.4472 0)
(0.894405 0.447199 0)
(0.894409 0.447196 0)
(0.894413 0.447191 0)
(0.894419 0.447184 0)
(0.894425 0.447174 0)
(0.89443 0.447162 0)
(0.894435 0.447149 0)
(0.894437 0.447135 0)
(0.894436 0.447122 0)
(0.894431 0.447112 0)
(0.894421 0.447107 0)
(0.894407 0.447109 0)
(0.89439 0.447119 0)
(0.89437 0.447139 0)
(0.89435 0.447167 0)
(0.894332 0.447202 0)
(0.894318 0.447244 0)
(0.894309 0.447287 0)
(0.894307 0.447331 0)
(0.894311 0.447371 0)
(0.894322 0.447405 0)
(0.894337 0.447431 0)
(0.894356 0.447447 0)
(0.894376 0.447453 0)
(0.894397 0.44745 0)
(0.894415 0.447438 0)
(0.89443 0.447419 0)
(0.894441 0.447395 0)
(0.894447 0.447369 0)
(0.89445 0.447341 0)
(0.894449 0.447314 0)
(0.894445 0.44729 0)
(0.89444 0.447268 0)
(0.894433 0.44725 0)
(0.894426 0.447235 0)
(0.89442 0.447223 0)
(0.894415 0.447215 0)
(0.89441 0.447209 0)
(0.894407 0.447205 0)
(0.894404 0.447202 0)
(0.894403 0.447201 0)
(0.894401 0.4472 0)
(0.894401 0.4472 0)
(0.8944 0.4472 0)
(0.8944 0.4472 0)
(0.8944 0.4472 0)
(0.8944 0.4472 0)
(0.8944 0.4472 0)
(0.8944 0.4472 0)
(0.8944 0.4472 0)
(0.8944 0.4472 0)
(0.8944 0.4472 0)
(0.8944 0.4472 0)
(0.8944 0.4472 0)
(0.8944 0.4472 0)
(0.8944 0.4472 0)
(0.8944 0.4472 0)
(0.8944 0.4472 0)
(0.8944 0.4472 0)
(0.8944 0.4472 0)
(0.8944 0.4472 0)
(0.8944 0.4472 0)
(0.8944 0.4472 0)
(0.8944 0.4472 0)
(0.8944 0.4472 0)
(0.8944 0.4472 0)
(0.8944 0.4472 0)
(0.8944 0.4472 0)
(0.8944 0.4472 0)
(0.8944 0.4472 0)
(0.8944 0.4472 0)
(0.8944 0.4472 0)
(0.8944 0.4472 0)
(0.8944 0.4472 0)
(0.8944 0.4472 0)
(0.8944 0.4472 0)
(0.8944 0.4472 0)
(0.8944 0.4472 0)
(0.8944 0.4472 0)
(0.8944 0.4472 0)
(0.8944 0.4472 0)
(0.8944 0.4472 0)
(0.8944 0.4472 0)
(0.8944 0.4472 0)
(0.8944 0.4472 0)
(0.8944 0.4472 0)
(0.8944 0.4472 0)
(0.8944 0.4472 0)
(0.8944 0.4472 0)
(0.8944 0.4472 0)
(0.8944 0.4472 0)
(0.8944 0.4472 0)
(0.8944 0.4472 0)
(0.894399 0.447201 0)
(0.894399 0.447201 0)
(0.8944 0.447201 0)
(0.8944 0.447202 0)
(0.8944 0.447202 0)
(0.894402 0.447202 0)
(0.894404 0.447201 0)
(0.894407 0.447199 0)
(0.894412 0.447195 0)
(0.894418 0.447189 0)
(0.894426 0.44718 0)
(0.894434 0.447168 0)
(0.894441 0.447154 0)
(0.894446 0.447138 0)
(0.894448 0.447122 0)
(0.894445 0.44711 0)
(0.894436 0.447102 0)
(0.89442 0.447103 0)
(0.894399 0.447114 0)
(0.894374 0.447137 0)
(0.894347 0.447172 0)
(0.89432 0.447218 0)
(0.894297 0.447274 0)
(0.894279 0.447334 0)
(0.89427 0.447397 0)
(0.89427 0.447456 0)
(0.894278 0.447508 0)
(0.894296 0.44755 0)
(0.894319 0.447578 0)
(0.894347 0.447592 0)
(0.894376 0.447592 0)
(0.894404 0.447578 0)
(0.894429 0.447554 0)
(0.894449 0.447521 0)
(0.894463 0.447482 0)
(0.894471 0.447441 0)
(0.894474 0.447399 0)
(0.894471 0.44736 0)
(0.894465 0.447324 0)
(0.894457 0.447293 0)
(0.894448 0.447268 0)
(0.894438 0.447247 0)
(0.894429 0.447231 0)
(0.894421 0.447219 0)
(0.894415 0.447211 0)
(0.89441 0.447206 0)
(0.894406 0.447203 0)
(0.894404 0.447201 0)
(0.894402 0.4472 0)
(0.894401 0.447199 0)
(0.8944 0.447199 0)
(0.8944 0.447199 0)
(0.8944 0.447199 0)
(0.8944 0.4472 0)
(0.8944 0.4472 0)
(0.8944 0.4472 0)
(0.8944 0.4472 0)
(0.8944 0.4472 0)
(0.8944 0.4472 0)
(0.8944 0.4472 0)
(0.8944 0.4472 0)
(0.8944 0.4472 0)
(0.8944 0.4472 0)
(0.8944 0.4472 0)
(0.8944 0.4472 0)
(0.8944 0.4472 0)
(0.8944 0.4472 0)
(0.8944 0.4472 0)
(0.8944 0.4472 0)
(0.8944 0.4472 0)
(0.8944 0.4472 0)
(0.8944 0.4472 0)
(0.8944 0.4472 0)
(0.8944 0.4472 0)
(0.8944 0.4472 0)
(0.8944 0.4472 0)
(0.8944 0.4472 0)
(0.8944 0.4472 0)
(0.8944 0.4472 0)
(0.8944 0.4472 0)
(0.8944 0.4472 0)
(0.8944 0.4472 0)
(0.8944 0.4472 0)
(0.8944 0.4472 0)
(0.8944 0.4472 0)
(0.8944 0.4472 0)
(0.8944 0.4472 0)
(0.8944 0.4472 0)
(0.8944 0.4472 0)
(0.8944 0.4472 0)
(0.8944 0.4472 0)
(0.8944 0.4472 0)
(0.8944 0.4472 0)
(0.8944 0.4472 0)
(0.8944 0.4472 0)
(0.8944 0.4472 0)
(0.8944 0.4472 0)
(0.8944 0.4472 0)
(0.8944 0.4472 0)
(0.894399 0.447201 0)
(0.894399 0.447201 0)
(0.894399 0.447201 0)
(0.894399 0.447202 0)
(0.894399 0.447203 0)
(0.8944 0.447203 0)
(0.894402 0.447204 0)
(0.894405 0.447203 0)
(0.894409 0.4472 0)
(0.894416 0.447196 0)
(0.894425 0.447188 0)
(0.894434 0.447177 0)
(0.894444 0.447163 0)
(0.894453 0.447146 0)
(0.894458 0.447129 0)
(0.894458 0.447115 0)
(0.894451 0.447106 0)
(0.894435 0.447106 0)
(0.894411 0.447119 0)
(0.89438 0.447148 0)
(0.894344 0.447194 0)
(0.894307 0.447255 0)
(0.894271 0.447331 0)
(0.894242 0.447416 0)
(0.894222 0.447506 0)
(0.894214 0.447595 0)
(0.894218 0.447675 0)
(0.894236 0.447742 0)
(0.894264 0.447791 0)
(0.894301 0.447819 0)
(0.894342 0.447825 0)
(0.894383 0.44781 0)
(0.894422 0.447777 0)
(0.894456 0.44773 0)
(0.894482 0.447673 0)
(0.894499 0.44761 0)
(0.894508 0.447545 0)
(0.89451 0.447482 0)
(0.894505 0.447424 0)
(0.894495 0.447372 0)
(0.894482 0.447328 0)
(0.894468 0.447291 0)
(0.894454 0.447263 0)
(0.894441 0.447241 0)
(0.89443 0.447225 0)
(0.894421 0.447214 0)
(0.894414 0.447207 0)
(0.894408 0.447203 0)
(0.894405 0.4472 0)
(0.894403 0.447199 0)
(0.894401 0.447199 0)
(0.8944 0.447199 0)
(0.8944 0.447199 0)
(0.8944 0.447199 0)
(0.8944 0.447199 0)
(0.8944 0.4472 0)
(0.8944 0.4472 0)
(0.8944 0.4472 0)
(0.8944 0.4472 0)
(0.8944 0.4472 0)
(0.8944 0.4472 0)
(0.8944 0.4472 0)
(0.8944 0.4472 0)
(0.8944 0.4472 0)
(0.8944 0.4472 0)
(0.8944 0.4472 0)
(0.8944 0.4472 0)
(0.8944 0.4472 0)
(0.8944 0.4472 0)
(0.8944 0.4472 0)
(0.8944 0.4472 0)
(0.8944 0.4472 0)
(0.8944 0.4472 0)
(0.8944 0.4472 0)
(0.8944 0.4472 0)
(0.8944 0.4472 0)
(0.8944 0.4472 0)
(0.8944 0.4472 0)
(0.8944 0.4472 0)
(0.8944 0.4472 0)
(0.8944 0.4472 0)
(0.8944 0.4472 0)
(0.8944 0.4472 0)
(0.8944 0.4472 0)
(0.8944 0.4472 0)
(0.8944 0.4472 0)
(0.8944 0.4472 0)
(0.8944 0.4472 0)
(0.8944 0.4472 0)
(0.8944 0.4472 0)
(0.8944 0.4472 0)
(0.8944 0.4472 0)
(0.8944 0.4472 0)
(0.8944 0.4472 0)
(0.8944 0.4472 0)
(0.8944 0.4472 0)
(0.8944 0.4472 0)
(0.8944 0.4472 0)
(0.8944 0.4472 0)
(0.894399 0.4472 0)
(0.894399 0.447201 0)
(0.894399 0.447201 0)
(0.894399 0.447202 0)
(0.894399 0.447203 0)
(0.894399 0.447204 0)
(0.8944 0.447205 0)
(0.894402 0.447206 0)
(0.894406 0.447205 0)
(0.894412 0.447203 0)
(0.894421 0.447197 0)
(0.894432 0.447189 0)
(0.894445 0.447176 0)
(0.894457 0.44716 0)
(0.894466 0.447143 0)
(0.894469 0.447128 0)
(0.894465 0.447119 0)
(0.89445 0.447121 0)
(0.894424 0.447138 0)
(0.894387 0.447176 0)
(0.894341 0.447236 0)
(0.89429 0.447319 0)
(0.894239 0.447424 0)
(0.894193 0.447546 0)
(0.894158 0.447677 0)
(0.894137 0.44781 0)
(0.894134 0.447935 0)
(0.89415 0.448044 0)
(0.894182 0.448128 0)
(0.894229 0.448183 0)
(0.894285 0.448204 0)
(0.894345 0.448193 0)
(0.894405 0.448152 0)
(0.894458 0.448085 0)
(0.894503 0.448 0)
(0.894536 0.447903 0)
(0.894556 0.4478 0)
(0.894565 0.447698 0)
(0.894563 0.447602 0)
(0.894553 0.447515 0)
(0.894537 0.447439 0)
(0.894517 0.447375 0)
(0.894496 0.447323 0)
(0.894476 0.447283 0)
(0.894457 0.447253 0)
(0.894441 0.447231 0)
(0.894428 0.447217 0)
(0.894418 0.447207 0)
(0.894411 0.447202 0)
(0.894406 0.447199 0)
(0.894403 0.447198 0)
(0.894401 0.447197 0)
(0.8944 0.447198 0)
(0.8944 0.447198 0)
(0.8944 0.447198 0)
(0.8944 0.447199 0)
(0.8944 0.447199 0)
(0.8944 0.4472 0)
(0.8944 0.4472 0)
(0.8944 0.4472 0)
(0.8944 0.4472 0)
(0.8944 0.4472 0)
(0.8944 0.4472 0)
(0.8944 0.4472 0)
(0.8944 0.4472 0)
(0.8944 0.4472 0)
(0.8944 0.4472 0)
(0.8944 0.4472 0)
(0.8944 0.4472 0)
(0.8944 0.4472 0)
(0.8944 0.4472 0)
(0.8944 0.4472 0)
(0.8944 0.4472 0)
(0.8944 0.4472 0)
(0.8944 0.4472 0)
(0.8944 0.4472 0)
(0.8944 0.4472 0)
(0.8944 0.4472 0)
(0.8944 0.4472 0)
(0.8944 0.4472 0)
(0.8944 0.4472 0)
(0.8944 0.4472 0)
(0.8944 0.4472 0)
(0.8944 0.4472 0)
(0.8944 0.4472 0)
(0.8944 0.4472 0)
(0.8944 0.4472 0)
(0.8944 0.4472 0)
(0.8944 0.4472 0)
(0.8944 0.4472 0)
(0.8944 0.4472 0)
(0.8944 0.4472 0)
(0.8944 0.4472 0)
(0.8944 0.4472 0)
(0.8944 0.4472 0)
(0.8944 0.4472 0)
(0.8944 0.4472 0)
(0.8944 0.4472 0)
(0.8944 0.4472 0)
(0.8944 0.4472 0)
(0.894399 0.447201 0)
(0.894399 0.447201 0)
(0.894398 0.447202 0)
(0.894398 0.447204 0)
(0.894398 0.447205 0)
(0.894398 0.447207 0)
(0.894399 0.447209 0)
(0.894402 0.44721 0)
(0.894408 0.44721 0)
(0.894416 0.447207 0)
(0.894427 0.447201 0)
(0.894441 0.447192 0)
(0.894455 0.447179 0)
(0.894469 0.447164 0)
(0.894477 0.44715 0)
(0.894476 0.447142 0)
(0.894463 0.447147 0)
(0.894435 0.447171 0)
(0.894391 0.44722 0)
(0.894334 0.4473 0)
(0.894267 0.447414 0)
(0.894195 0.447559 0)
(0.894127 0.447732 0)
(0.894069 0.447924 0)
(0.894029 0.448124 0)
(0.894012 0.448319 0)
(0.894021 0.448496 0)
(0.894055 0.448642 0)
(0.894113 0.448748 0)
(0.894189 0.448806 0)
(0.894276 0.448812 0)
(0.894365 0.448769 0)
(0.89445 0.448682 0)
(0.894524 0.44856 0)
(0.894583 0.448412 0)
(0.894624 0.44825 0)
(0.894647 0.448085 0)
(0.894652 0.447925 0)
(0.894644 0.447777 0)
(0.894625 0.447646 0)
(0.894598 0.447534 0)
(0.894568 0.447442 0)
(0.894536 0.447368 0)
(0.894506 0.447311 0)
(0.894479 0.447269 0)
(0.894457 0.44724 0)
(0.894439 0.44722 0)
(0.894425 0.447207 0)
(0.894415 0.4472 0)
(0.894408 0.447197 0)
(0.894404 0.447195 0)
(0.894401 0.447195 0)
(0.8944 0.447196 0)
(0.894399 0.447197 0)
(0.894399 0.447198 0)
(0.894399 0.447198 0)
(0.894399 0.447199 0)
(0.894399 0.447199 0)
(0.8944 0.4472 0)
(0.8944 0.4472 0)
(0.8944 0.4472 0)
(0.8944 0.4472 0)
(0.8944 0.4472 0)
(0.8944 0.4472 0)
(0.8944 0.4472 0)
(0.8944 0.4472 0)
(0.8944 0.4472 0)
(0.8944 0.4472 0)
(0.8944 0.4472 0)
(0.8944 0.4472 0)
(0.8944 0.4472 0)
(0.8944 0.4472 0)
(0.8944 0.4472 0)
(0.8944 0.4472 0)
(0.8944 0.4472 0)
(0.8944 0.4472 0)
(0.8944 0.4472 0)
(0.8944 0.4472 0)
(0.8944 0.4472 0)
(0.8944 0.4472 0)
(0.8944 0.4472 0)
(0.8944 0.4472 0)
(0.8944 0.4472 0)
(0.8944 0.4472 0)
(0.8944 0.4472 0)
(0.8944 0.4472 0)
(0.8944 0.4472 0)
(0.8944 0.4472 0)
(0.8944 0.4472 0)
(0.8944 0.4472 0)
(0.8944 0.4472 0)
(0.8944 0.4472 0)
(0.8944 0.4472 0)
(0.8944 0.4472 0)
(0.8944 0.4472 0)
(0.8944 0.4472 0)
(0.8944 0.4472 0)
(0.8944 0.4472 0)
(0.8944 0.4472 0)
(0.894399 0.447201 0)
(0.894399 0.447201 0)
(0.894398 0.447202 0)
(0.894397 0.447203 0)
(0.894397 0.447206 0)
(0.894396 0.447208 0)
(0.894396 0.447211 0)
(0.894398 0.447213 0)
(0.894402 0.447216 0)
(0.894408 0.447216 0)
(0.894419 0.447214 0)
(0.894433 0.447209 0)
(0.894449 0.4472 0)
(0.894465 0.447189 0)
(0.894478 0.447178 0)
(0.894481 0.447174 0)
(0.894471 0.447183 0)
(0.894442 0.447215 0)
(0.894392 0.44728 0)
(0.894321 0.447385 0)
(0.894234 0.447536 0)
(0.894136 0.447735 0)
(0.894037 0.447977 0)
(0.893947 0.448253 0)
(0.893876 0.448549 0)
(0.893834 0.448849 0)
(0.893827 0.449132 0)
(0.893858 0.449381 0)
(0.893925 0.449578 0)
(0.894024 0.44971 0)
(0.894145 0.449766 0)
(0.894279 0.449746 0)
(0.894413 0.449651 0)
(0.894535 0.449492 0)
(0.894639 0.449281 0)
(0.894716 0.449036 0)
(0.894766 0.448775 0)
(0.894789 0.448513 0)
(0.894787 0.448264 0)
(0.894766 0.448037 0)
(0.894731 0.447839 0)
(0.894687 0.447672 0)
(0.89464 0.447537 0)
(0.894593 0.447431 0)
(0.894549 0.44735 0)
(0.89451 0.447291 0)
(0.894478 0.447251 0)
(0.894452 0.447224 0)
(0.894433 0.447207 0)
(0.894419 0.447198 0)
(0.89441 0.447193 0)
(0.894404 0.447192 0)
(0.894401 0.447192 0)
(0.894399 0.447194 0)
(0.894398 0.447195 0)
(0.894398 0.447196 0)
(0.894399 0.447197 0)
(0.894399 0.447198 0)
(0.894399 0.447199 0)
(0.894399 0.447199 0)
(0.8944 0.4472 0)
(0.8944 0.4472 0)
(0.8944 0.4472 0)
(0.8944 0.4472 0)
(0.8944 0.4472 0)
(0.8944 0.4472 0)
(0.8944 0.4472 0)
(0.8944 0.4472 0)
(0.8944 0.4472 0)
(0.8944 0.4472 0)
(0.8944 0.4472 0)
(0.8944 0.4472 0)
(0.8944 0.4472 0)
(0.8944 0.4472 0)
(0.8944 0.4472 0)
(0.8944 0.4472 0)
(0.8944 0.4472 0)
(0.8944 0.4472 0)
(0.8944 0.4472 0)
(0.8944 0.4472 0)
(0.8944 0.4472 0)
(0.8944 0.4472 0)
(0.8944 0.4472 0)
(0.8944 0.4472 0)
(0.8944 0.4472 0)
(0.8944 0.4472 0)
(0.8944 0.4472 0)
(0.8944 0.4472 0)
(0.8944 0.4472 0)
(0.8944 0.4472 0)
(0.8944 0.4472 0)
(0.8944 0.4472 0)
(0.8944 0.4472 0)
(0.8944 0.4472 0)
(0.8944 0.4472 0)
(0.8944 0.4472 0)
(0.8944 0.4472 0)
(0.8944 0.4472 0)
(0.894399 0.4472 0)
(0.894399 0.447201 0)
(0.894399 0.447201 0)
(0.894398 0.447202 0)
(0.894397 0.447203 0)
(0.894396 0.447205 0)
(0.894395 0.447208 0)
(0.894394 0.447211 0)
(0.894394 0.447215 0)
(0.894395 0.44722 0)
(0.8944 0.447224 0)
(0.894408 0.447226 0)
(0.894421 0.447225 0)
(0.894438 0.447222 0)
(0.894456 0.447216 0)
(0.894472 0.447211 0)
(0.894479 0.447211 0)
(0.894472 0.447227 0)
(0.894443 0.447269 0)
(0.894386 0.447351 0)
(0.894301 0.447485 0)
(0.894189 0.447681 0)
(0.894057 0.447945 0)
(0.893916 0.448274 0)
(0.89378 0.448659 0)
(0.893663 0.449086 0)
(0.89358 0.449531 0)
(0.893541 0.449971 0)
(0.893555 0.450377 0)
(0.893623 0.450723 0)
(0.893742 0.450987 0)
(0.893904 0.451151 0)
(0.894095 0.451202 0)
(0.894299 0.451139 0)
(0.894499 0.450967 0)
(0.894678 0.4507 0)
(0.894823 0.450359 0)
(0.894928 0.44997 0)
(0.894989 0.449559 0)
(0.895008 0.449152 0)
(0.894993 0.448768 0)
(0.894951 0.448422 0)
(0.89489 0.448124 0)
(0.894819 0.447876 0)
(0.894745 0.447676 0)
(0.894674 0.447521 0)
(0.894609 0.447406 0)
(0.894553 0.447323 0)
(0.894507 0.447266 0)
(0.894471 0.447229 0)
(0.894444 0.447207 0)
(0.894425 0.447194 0)
(0.894412 0.447189 0)
(0.894404 0.447187 0)
(0.8944 0.447188 0)
(0.894398 0.44719 0)
(0.894397 0.447192 0)
(0.894397 0.447194 0)
(0.894398 0.447196 0)
(0.894398 0.447197 0)
(0.894399 0.447198 0)
(0.894399 0.447199 0)
(0.894399 0.447199 0)
(0.8944 0.4472 0)
(0.8944 0.4472 0)
(0.8944 0.4472 0)
(0.8944 0.4472 0)
(0.8944 0.4472 0)
(0.8944 0.4472 0)
(0.8944 0.4472 0)
(0.8944 0.4472 0)
(0.8944 0.4472 0)
(0.8944 0.4472 0)
(0.8944 0.4472 0)
(0.8944 0.4472 0)
(0.8944 0.4472 0)
(0.8944 0.4472 0)
(0.8944 0.4472 0)
(0.8944 0.4472 0)
(0.8944 0.4472 0)
(0.8944 0.4472 0)
(0.8944 0.4472 0)
(0.8944 0.4472 0)
(0.8944 0.4472 0)
(0.8944 0.4472 0)
(0.8944 0.4472 0)
(0.8944 0.4472 0)
(0.8944 0.4472 0)
(0.8944 0.4472 0)
(0.8944 0.4472 0)
(0.8944 0.4472 0)
(0.8944 0.4472 0)
(0.8944 0.4472 0)
(0.8944 0.4472 0)
(0.8944 0.4472 0)
(0.8944 0.4472 0)
(0.8944 0.4472 0)
(0.8944 0.4472 0)
(0.8944 0.4472 0)
(0.8944 0.4472 0)
(0.894399 0.4472 0)
(0.894399 0.447201 0)
(0.894398 0.447202 0)
(0.894397 0.447203 0)
(0.894396 0.447205 0)
(0.894394 0.447207 0)
(0.894392 0.447211 0)
(0.89439 0.447216 0)
(0.89439 0.447222 0)
(0.894392 0.447229 0)
(0.894397 0.447235 0)
(0.894407 0.447239 0)
(0.894422 0.447242 0)
(0.89444 0.447243 0)
(0.894457 0.447244 0)
(0.894469 0.447251 0)
(0.894464 0.447274 0)
(0.894435 0.447326 0)
(0.894374 0.447426 0)
(0.894273 0.44759 0)
(0.894132 0.447835 0)
(0.893958 0.448173 0)
(0.893763 0.448605 0)
(0.893563 0.449125 0)
(0.893378 0.449717 0)
(0.893229 0.450353 0)
(0.893133 0.451003 0)
(0.893106 0.451632 0)
(0.893156 0.4522 0)
(0.893283 0.452674 0)
(0.893481 0.453024 0)
(0.893737 0.453228 0)
(0.894031 0.45327 0)
(0.894339 0.453148 0)
(0.894636 0.452869 0)
(0.894898 0.452453 0)
(0.895107 0.45193 0)
(0.895251 0.451336 0)
(0.895328 0.450711 0)
(0.895342 0.450093 0)
(0.895304 0.449513 0)
(0.895227 0.448993 0)
(0.895126 0.448546 0)
(0.895013 0.448176 0)
(0.894899 0.447882 0)
(0.894791 0.447656 0)
(0.894695 0.447489 0)
(0.894614 0.44737 0)
(0.894548 0.447289 0)
(0.894497 0.447237 0)
(0.894459 0.447206 0)
(0.894432 0.44719 0)
(0.894415 0.447183 0)
(0.894405 0.447181 0)
(0.894399 0.447183 0)
(0.894396 0.447186 0)
(0.894395 0.447189 0)
(0.894396 0.447192 0)
(0.894396 0.447194 0)
(0.894397 0.447196 0)
(0.894398 0.447197 0)
(0.894399 0.447198 0)
(0.894399 0.447199 0)
(0.894399 0.447199 0)
(0.8944 0.4472 0)
(0.8944 0.4472 0)
(0.8944 0.4472 0)
(0.8944 0.4472 0)
(0.8944 0.4472 0)
(0.8944 0.4472 0)
(0.8944 0.4472 0)
(0.8944 0.4472 0)
(0.8944 0.4472 0)
(0.8944 0.4472 0)
(0.8944 0.4472 0)
(0.8944 0.4472 0)
(0.8944 0.4472 0)
(0.8944 0.4472 0)
(0.8944 0.4472 0)
(0.8944 0.4472 0)
(0.8944 0.4472 0)
(0.8944 0.4472 0)
(0.8944 0.4472 0)
(0.8944 0.4472 0)
(0.8944 0.4472 0)
(0.8944 0.4472 0)
(0.8944 0.4472 0)
(0.8944 0.4472 0)
(0.8944 0.4472 0)
(0.8944 0.4472 0)
(0.8944 0.4472 0)
(0.8944 0.4472 0)
(0.8944 0.4472 0)
(0.8944 0.4472 0)
(0.8944 0.4472 0)
(0.8944 0.4472 0)
(0.8944 0.4472 0)
(0.8944 0.4472 0)
(0.8944 0.4472 0)
(0.8944 0.4472 0)
(0.894399 0.4472 0)
(0.894399 0.447201 0)
(0.894397 0.447202 0)
(0.894396 0.447204 0)
(0.894393 0.447207 0)
(0.894391 0.44721 0)
(0.894388 0.447216 0)
(0.894385 0.447223 0)
(0.894384 0.447231 0)
(0.894386 0.447241 0)
(0.894392 0.44725 0)
(0.894403 0.447259 0)
(0.894419 0.447267 0)
(0.894436 0.447276 0)
(0.894449 0.44729 0)
(0.894448 0.447321 0)
(0.89442 0.447383 0)
(0.894353 0.447498 0)
(0.894237 0.44769 0)
(0.894066 0.447983 0)
(0.893842 0.448398 0)
(0.893579 0.448943 0)
(0.893294 0.449618 0)
(0.893014 0.450405 0)
(0.892767 0.451276 0)
(0.89258 0.452192 0)
(0.892476 0.453108 0)
(0.892472 0.453976 0)
(0.892578 0.454748 0)
(0.892791 0.455381 0)
(0.893102 0.455838 0)
(0.893491 0.456092 0)
(0.893931 0.456124 0)
(0.894388 0.45593 0)
(0.894827 0.455517 0)
(0.895212 0.45491 0)
(0.895516 0.454148 0)
(0.895722 0.45328 0)
(0.895825 0.452363 0)
(0.895834 0.451453 0)
(0.895763 0.450595 0)
(0.895636 0.449826 0)
(0.895474 0.449165 0)
(0.895298 0.448619 0)
(0.895123 0.448187 0)
(0.894961 0.447856 0)
(0.894819 0.447613 0)
(0.8947 0.447441 0)
(0.894605 0.447325 0)
(0.894532 0.447251 0)
(0.894479 0.447208 0)
(0.894442 0.447185 0)
(0.894419 0.447175 0)
(0.894404 0.447173 0)
(0.894397 0.447175 0)
(0.894393 0.44718 0)
(0.894393 0.447184 0)
(0.894393 0.447188 0)
(0.894394 0.447192 0)
(0.894396 0.447194 0)
(0.894397 0.447196 0)
(0.894398 0.447198 0)
(0.894399 0.447199 0)
(0.894399 0.447199 0)
(0.894399 0.4472 0)
(0.8944 0.4472 0)
(0.8944 0.4472 0)
(0.8944 0.4472 0)
(0.8944 0.4472 0)
(0.8944 0.4472 0)
(0.8944 0.4472 0)
(0.8944 0.4472 0)
(0.8944 0.4472 0)
(0.8944 0.4472 0)
(0.8944 0.4472 0)
(0.8944 0.4472 0)
(0.8944 0.4472 0)
(0.8944 0.4472 0)
(0.8944 0.4472 0)
(0.8944 0.4472 0)
(0.8944 0.4472 0)
(0.8944 0.4472 0)
(0.8944 0.4472 0)
(0.8944 0.4472 0)
(0.8944 0.4472 0)
(0.8944 0.4472 0)
(0.8944 0.4472 0)
(0.8944 0.4472 0)
(0.8944 0.4472 0)
(0.8944 0.4472 0)
(0.8944 0.4472 0)
(0.8944 0.4472 0)
(0.8944 0.4472 0)
(0.8944 0.4472 0)
(0.8944 0.4472 0)
(0.8944 0.4472 0)
(0.8944 0.4472 0)
(0.8944 0.4472 0)
(0.8944 0.4472 0)
(0.894399 0.4472 0)
(0.894399 0.447201 0)
(0.894398 0.447202 0)
(0.894396 0.447203 0)
(0.894394 0.447205 0)
(0.894391 0.447209 0)
(0.894387 0.447214 0)
(0.894382 0.447222 0)
(0.894379 0.447232 0)
(0.894376 0.447243 0)
(0.894378 0.447257 0)
(0.894383 0.447271 0)
(0.894395 0.447286 0)
(0.894409 0.447302 0)
(0.894422 0.447325 0)
(0.894422 0.447363 0)
(0.894397 0.447433 0)
(0.894327 0.44756 0)
(0.894197 0.447774 0)
(0.893995 0.44811 0)
(0.893717 0.448597 0)
(0.893373 0.449256 0)
(0.892984 0.450094 0)
(0.89258 0.451098 0)
(0.892197 0.452238 0)
(0.891873 0.453467 0)
(0.891644 0.45473 0)
(0.891536 0.455968 0)
(0.89157 0.45712 0)
(0.891754 0.458128 0)
(0.892085 0.458944 0)
(0.892547 0.459525 0)
(0.893115 0.45984 0)
(0.893753 0.459868 0)
(0.894416 0.459598 0)
(0.895055 0.459037 0)
(0.89562 0.45821 0)
(0.89607 0.45716 0)
(0.896375 0.455952 0)
(0.896527 0.454661 0)
(0.896536 0.453364 0)
(0.896425 0.452133 0)
(0.896229 0.45102 0)
(0.89598 0.450059 0)
(0.895712 0.449265 0)
(0.895448 0.448634 0)
(0.895207 0.448152 0)
(0.894997 0.447799 0)
(0.894824 0.44755 0)
(0.894687 0.447383 0)
(0.894583 0.447277 0)
(0.894508 0.447214 0)
(0.894457 0.44718 0)
(0.894424 0.447166 0)
(0.894404 0.447163 0)
(0.894394 0.447166 0)
(0.894389 0.447172 0)
(0.894389 0.447178 0)
(0.89439 0.447184 0)
(0.894392 0.447189 0)
(0.894394 0.447192 0)
(0.894396 0.447195 0)
(0.894397 0.447197 0)
(0.894398 0.447198 0)
(0.894399 0.447199 0)
(0.894399 0.447199 0)
(0.8944 0.4472 0)
(0.8944 0.4472 0)
(0.8944 0.4472 0)
(0.8944 0.4472 0)
(0.8944 0.4472 0)
(0.8944 0.4472 0)
(0.8944 0.4472 0)
(0.8944 0.4472 0)
(0.8944 0.4472 0)
(0.8944 0.4472 0)
(0.8944 0.4472 0)
(0.8944 0.4472 0)
(0.8944 0.4472 0)
(0.8944 0.4472 0)
(0.8944 0.4472 0)
(0.8944 0.4472 0)
(0.8944 0.4472 0)
(0.8944 0.4472 0)
(0.8944 0.4472 0)
(0.8944 0.4472 0)
(0.8944 0.4472 0)
(0.8944 0.4472 0)
(0.8944 0.4472 0)
(0.8944 0.4472 0)
(0.8944 0.4472 0)
(0.8944 0.4472 0)
(0.8944 0.4472 0)
(0.8944 0.4472 0)
(0.8944 0.4472 0)
(0.8944 0.4472 0)
(0.8944 0.4472 0)
(0.8944 0.4472 0)
(0.8944 0.4472 0)
(0.8944 0.447201 0)
(0.894399 0.447201 0)
(0.894398 0.447201 0)
(0.894397 0.447202 0)
(0.894395 0.447204 0)
(0.894391 0.447207 0)
(0.894387 0.447213 0)
(0.894381 0.447219 0)
(0.894375 0.44723 0)
(0.894369 0.447243 0)
(0.894365 0.447259 0)
(0.894365 0.447277 0)
(0.89437 0.447298 0)
(0.89438 0.447322 0)
(0.894389 0.447352 0)
(0.89439 0.447397 0)
(0.894365 0.447474 0)
(0.894296 0.447608 0)
(0.894157 0.447835 0)
(0.893927 0.4482 0)
(0.893595 0.448746 0)
(0.893163 0.449509 0)
(0.89265 0.450508 0)
(0.892092 0.451735 0)
(0.891533 0.453162 0)
(0.891023 0.454736 0)
(0.890611 0.45639 0)
(0.890336 0.458049 0)
(0.890232 0.459639 0)
(0.890318 0.46109 0)
(0.890602 0.462343 0)
(0.891078 0.463346 0)
(0.891728 0.464058 0)
(0.892521 0.464446 0)
(0.893413 0.464484 0)
(0.894349 0.464157 0)
(0.895263 0.463461 0)
(0.896086 0.462415 0)
(0.896754 0.46106 0)
(0.897221 0.459468 0)
(0.897466 0.457734 0)
(0.897498 0.455961 0)
(0.897348 0.454252 0)
(0.897065 0.452687 0)
(0.896702 0.451323 0)
(0.896306 0.450188 0)
(0.895917 0.449281 0)
(0.895561 0.448587 0)
(0.895254 0.448077 0)
(0.895002 0.447717 0)
(0.894804 0.447475 0)
(0.894656 0.44732 0)
(0.89455 0.447228 0)
(0.894477 0.447179 0)
(0.894431 0.447157 0)
(0.894404 0.447152 0)
(0.89439 0.447155 0)
(0.894384 0.447162 0)
(0.894384 0.447171 0)
(0.894385 0.447178 0)
(0.894388 0.447184 0)
(0.894391 0.447189 0)
(0.894394 0.447193 0)
(0.894396 0.447196 0)
(0.894397 0.447197 0)
(0.894398 0.447198 0)
(0.894399 0.447199 0)
(0.894399 0.447199 0)
(0.894399 0.4472 0)
(0.8944 0.4472 0)
(0.8944 0.4472 0)
(0.8944 0.4472 0)
(0.8944 0.4472 0)
(0.8944 0.4472 0)
(0.8944 0.4472 0)
(0.8944 0.4472 0)
(0.8944 0.4472 0)
(0.8944 0.4472 0)
(0.8944 0.4472 0)
(0.8944 0.4472 0)
(0.8944 0.4472 0)
(0.8944 0.4472 0)
(0.8944 0.4472 0)
(0.8944 0.4472 0)
(0.8944 0.4472 0)
(0.8944 0.4472 0)
(0.8944 0.4472 0)
(0.8944 0.4472 0)
(0.8944 0.4472 0)
(0.8944 0.4472 0)
(0.8944 0.4472 0)
(0.8944 0.4472 0)
(0.8944 0.4472 0)
(0.8944 0.4472 0)
(0.8944 0.4472 0)
(0.8944 0.4472 0)
(0.8944 0.4472 0)
(0.8944 0.4472 0)
(0.8944 0.4472 0)
(0.8944 0.4472 0)
(0.894399 0.447201 0)
(0.894399 0.447201 0)
(0.894397 0.447202 0)
(0.894396 0.447203 0)
(0.894393 0.447206 0)
(0.894388 0.44721 0)
(0.894382 0.447216 0)
(0.894374 0.447226 0)
(0.894365 0.447239 0)
(0.894357 0.447257 0)
(0.89435 0.447278 0)
(0.894348 0.447303 0)
(0.89435 0.447333 0)
(0.894354 0.44737 0)
(0.894352 0.447421 0)
(0.89433 0.447501 0)
(0.894262 0.447637 0)
(0.894119 0.447869 0)
(0.89387 0.448247 0)
(0.89349 0.448831 0)
(0.892969 0.449673 0)
(0.892322 0.450811 0)
(0.891584 0.452252 0)
(0.89081 0.453967 0)
(0.890063 0.455898 0)
(0.889406 0.457962 0)
(0.888896 0.460067 0)
(0.888577 0.462119 0)
(0.888481 0.464036 0)
(0.888626 0.46575 0)
(0.889021 0.467208 0)
(0.889658 0.46837 0)
(0.890519 0.4692 0)
(0.891572 0.469669 0)
(0.892769 0.469748 0)
(0.894047 0.469412 0)
(0.895323 0.468642 0)
(0.896504 0.467435 0)
(0.897496 0.465816 0)
(0.898223 0.463854 0)
(0.898641 0.461651 0)
(0.898748 0.459342 0)
(0.898581 0.457064 0)
(0.898207 0.454939 0)
(0.897702 0.453059 0)
(0.897139 0.451473 0)
(0.896579 0.450196 0)
(0.896065 0.449211 0)
(0.895621 0.448482 0)
(0.895258 0.447966 0)
(0.894974 0.447617 0)
(0.894762 0.447393 0)
(0.89461 0.447258 0)
(0.894508 0.447185 0)
(0.894443 0.447151 0)
(0.894405 0.44714 0)
(0.894386 0.447143 0)
(0.894378 0.447151 0)
(0.894377 0.447161 0)
(0.894379 0.447171 0)
(0.894383 0.447179 0)
(0.894387 0.447186 0)
(0.894391 0.447191 0)
(0.894394 0.447194 0)
(0.894396 0.447196 0)
(0.894397 0.447198 0)
(0.894398 0.447199 0)
(0.894399 0.447199 0)
(0.894399 0.447199 0)
(0.8944 0.4472 0)
(0.8944 0.4472 0)
(0.8944 0.4472 0)
(0.8944 0.4472 0)
(0.8944 0.4472 0)
(0.8944 0.4472 0)
(0.8944 0.4472 0)
(0.8944 0.4472 0)
(0.8944 0.4472 0)
(0.8944 0.4472 0)
(0.8944 0.4472 0)
(0.8944 0.4472 0)
(0.8944 0.4472 0)
(0.8944 0.4472 0)
(0.8944 0.4472 0)
(0.8944 0.4472 0)
(0.8944 0.4472 0)
(0.8944 0.4472 0)
(0.8944 0.4472 0)
(0.8944 0.4472 0)
(0.8944 0.4472 0)
(0.8944 0.4472 0)
(0.8944 0.4472 0)
(0.8944 0.4472 0)
(0.8944 0.4472 0)
(0.8944 0.4472 0)
(0.8944 0.4472 0)
(0.8944 0.4472 0)
(0.8944 0.4472 0)
(0.8944 0.4472 0)
(0.894399 0.4472 0)
(0.894399 0.447201 0)
(0.894398 0.447201 0)
(0.894396 0.447202 0)
(0.894394 0.447204 0)
(0.89439 0.447208 0)
(0.894383 0.447213 0)
(0.894375 0.447222 0)
(0.894364 0.447234 0)
(0.894353 0.447251 0)
(0.89434 0.447273 0)
(0.89433 0.447301 0)
(0.894323 0.447335 0)
(0.89432 0.447377 0)
(0.894313 0.447433 0)
(0.89429 0.447516 0)
(0.894226 0.447648 0)
(0.894086 0.447873 0)
(0.893828 0.448247 0)
(0.893414 0.448841 0)
(0.892816 0.449729 0)
(0.892034 0.45097 0)
(0.891102 0.452592 0)
(0.890081 0.454574 0)
(0.889048 0.456851 0)
(0.888087 0.459322 0)
(0.887272 0.461867 0)
(0.886662 0.464368 0)
(0.886298 0.466723 0)
(0.886205 0.468854 0)
(0.886399 0.470714 0)
(0.886889 0.472275 0)
(0.887671 0.473519 0)
(0.888735 0.474428 0)
(0.890056 0.474983 0)
(0.891589 0.475153 0)
(0.893267 0.474898 0)
(0.894998 0.474174 0)
(0.896659 0.472943 0)
(0.898119 0.471194 0)
(0.899253 0.468966 0)
(0.899977 0.466358 0)
(0.900263 0.46352 0)
(0.900143 0.46063 0)
(0.8997 0.457862 0)
(0.899041 0.455358 0)
(0.898275 0.453209 0)
(0.897496 0.451453 0)
(0.89677 0.450082 0)
(0.89614 0.449059 0)
(0.895621 0.448329 0)
(0.895216 0.447831 0)
(0.894914 0.447509 0)
(0.8947 0.447313 0)
(0.894555 0.447203 0)
(0.894463 0.44715 0)
(0.894409 0.44713 0)
(0.894381 0.44713 0)
(0.89437 0.447139 0)
(0.894369 0.447151 0)
(0.894372 0.447163 0)
(0.894377 0.447173 0)
(0.894383 0.447182 0)
(0.894387 0.447188 0)
(0.894391 0.447192 0)
(0.894394 0.447195 0)
(0.894396 0.447197 0)
(0.894398 0.447198 0)
(0.894399 0.447199 0)
(0.894399 0.447199 0)
(0.894399 0.4472 0)
(0.8944 0.4472 0)
(0.8944 0.4472 0)
(0.8944 0.4472 0)
(0.8944 0.4472 0)
(0.8944 0.4472 0)
(0.8944 0.4472 0)
(0.8944 0.4472 0)
(0.8944 0.4472 0)
(0.8944 0.4472 0)
(0.8944 0.4472 0)
(0.8944 0.4472 0)
(0.8944 0.4472 0)
(0.8944 0.4472 0)
(0.8944 0.4472 0)
(0.8944 0.4472 0)
(0.8944 0.4472 0)
(0.8944 0.4472 0)
(0.8944 0.4472 0)
(0.8944 0.4472 0)
(0.8944 0.4472 0)
(0.8944 0.4472 0)
(0.8944 0.4472 0)
(0.8944 0.4472 0)
(0.8944 0.4472 0)
(0.8944 0.4472 0)
(0.8944 0.4472 0)
(0.8944 0.4472 0)
(0.8944 0.4472 0)
(0.894399 0.4472 0)
(0.894399 0.4472 0)
(0.894399 0.447201 0)
(0.894397 0.447201 0)
(0.894395 0.447203 0)
(0.894391 0.447206 0)
(0.894386 0.44721 0)
(0.894377 0.447217 0)
(0.894366 0.447228 0)
(0.894352 0.447243 0)
(0.894336 0.447266 0)
(0.894319 0.447293 0)
(0.894304 0.447329 0)
(0.89429 0.447374 0)
(0.894276 0.447432 0)
(0.89425 0.447514 0)
(0.894189 0.447642 0)
(0.894057 0.447852 0)
(0.893805 0.448205 0)
(0.893375 0.44878 0)