/*--------------------------------*- C++ -*----------------------------------*\
  =========                 |
  \\      /  F ield         | OpenFOAM: The Open Source CFD Toolbox
   \\    /   O peration     | Website:  https://openfoam.org
    \\  /    A nd           | Version:  6
     \\/     M anipulation  |
\*---------------------------------------------------------------------------*/
FoamFile
{
    version     2.0;
    format      ascii;
    class       volScalarField;
    location    "3.24";
    object      mag(U);
}
// * * * * * * * * * * * * * * * * * * * * * * * * * * * * * * * * * * * * * //

dimensions      [0 1 -1 0 0 0 0];

internalField   nonuniform List<scalar> 
10000
(
0.99997
0.99997
0.99997
0.99997
0.99997
0.99997
0.99997
0.99997
0.99997
0.99997
0.99997
0.99997
0.99997
0.99997
0.99997
0.99997
0.99997
0.99997
0.99997
0.99997
0.99997
0.99997
0.99997
0.99997
0.99997
0.99997
0.99997
0.99997
0.99997
0.99997
0.99997
0.99997
0.99997
0.99997
0.99997
0.99997
0.99997
0.99997
0.99997
0.99997
0.99997
0.99997
0.99997
0.99997
0.99997
0.99997
0.99997
0.999972
0.999971
0.999972
0.999971
0.999971
0.99997
0.999966
0.999964
0.999959
0.999954
0.999949
0.999944
0.999941
0.999939
0.999939
0.999941
0.999946
0.999954
0.999962
0.999972
0.999982
0.99999
0.999996
1
1
1
1
0.999999
0.999996
0.999992
0.999987
0.999983
0.999979
0.999977
0.999974
0.999972
0.999971
0.999971
0.99997
0.99997
0.99997
0.99997
0.99997
0.99997
0.99997
0.99997
0.99997
0.99997
0.99997
0.99997
0.99997
0.99997
0.99997
0.99997
0.99997
0.99997
0.99997
0.99997
0.99997
0.99997
0.99997
0.99997
0.99997
0.99997
0.99997
0.99997
0.99997
0.99997
0.99997
0.99997
0.99997
0.99997
0.99997
0.99997
0.99997
0.99997
0.99997
0.99997
0.99997
0.99997
0.99997
0.99997
0.99997
0.99997
0.99997
0.99997
0.99997
0.99997
0.99997
0.99997
0.99997
0.99997
0.99997
0.99997
0.99997
0.99997
0.99997
0.99997
0.999971
0.999971
0.999972
0.999973
0.999974
0.999974
0.999973
0.99997
0.999966
0.999962
0.999956
0.999948
0.999941
0.999934
0.999929
0.999927
0.999928
0.999932
0.99994
0.99995
0.999963
0.999976
0.999989
1
1.00001
1.00002
1.00002
1.00002
1.00002
1.00001
1.00001
1
0.999995
0.999989
0.999984
0.99998
0.999976
0.999974
0.999972
0.999971
0.99997
0.99997
0.99997
0.99997
0.99997
0.99997
0.99997
0.99997
0.99997
0.99997
0.99997
0.99997
0.99997
0.99997
0.99997
0.99997
0.99997
0.99997
0.99997
0.99997
0.99997
0.99997
0.99997
0.99997
0.99997
0.99997
0.99997
0.99997
0.99997
0.99997
0.99997
0.99997
0.99997
0.99997
0.99997
0.99997
0.99997
0.99997
0.99997
0.99997
0.99997
0.99997
0.99997
0.99997
0.99997
0.99997
0.99997
0.99997
0.99997
0.99997
0.99997
0.99997
0.99997
0.99997
0.99997
0.99997
0.99997
0.99997
0.999971
0.99997
0.999972
0.999973
0.999974
0.999975
0.999976
0.999976
0.999975
0.999971
0.999967
0.999959
0.999951
0.999942
0.999932
0.999924
0.999918
0.999915
0.999917
0.999924
0.999934
0.999949
0.999966
0.999985
1
1.00002
1.00003
1.00004
1.00004
1.00004
1.00004
1.00003
1.00002
1.00002
1.00001
0.999997
0.99999
0.999984
0.999979
0.999976
0.999973
0.999972
0.99997
0.99997
0.99997
0.99997
0.99997
0.99997
0.99997
0.99997
0.99997
0.99997
0.99997
0.99997
0.99997
0.99997
0.99997
0.99997
0.99997
0.99997
0.99997
0.99997
0.99997
0.99997
0.99997
0.99997
0.99997
0.99997
0.99997
0.99997
0.99997
0.99997
0.99997
0.99997
0.99997
0.99997
0.99997
0.99997
0.99997
0.99997
0.99997
0.99997
0.99997
0.99997
0.99997
0.99997
0.99997
0.99997
0.99997
0.99997
0.99997
0.99997
0.99997
0.99997
0.99997
0.99997
0.99997
0.99997
0.99997
0.99997
0.999971
0.999971
0.999973
0.999975
0.999976
0.999978
0.999979
0.999979
0.999978
0.999974
0.999967
0.999958
0.999947
0.999935
0.999921
0.999911
0.999904
0.999903
0.999906
0.999917
0.999933
0.999955
0.999979
1
1.00003
1.00005
1.00006
1.00008
1.00008
1.00008
1.00007
1.00006
1.00005
1.00003
1.00002
1.00001
1
0.99999
0.999983
0.999978
0.999975
0.999973
0.999971
0.99997
0.99997
0.99997
0.99997
0.99997
0.99997
0.99997
0.99997
0.99997
0.99997
0.99997
0.99997
0.99997
0.99997
0.99997
0.99997
0.99997
0.99997
0.99997
0.99997
0.99997
0.99997
0.99997
0.99997
0.99997
0.99997
0.99997
0.99997
0.99997
0.99997
0.99997
0.99997
0.99997
0.99997
0.99997
0.99997
0.99997
0.99997
0.99997
0.99997
0.99997
0.99997
0.99997
0.99997
0.99997
0.99997
0.99997
0.99997
0.99997
0.99997
0.99997
0.99997
0.99997
0.999969
0.99997
0.99997
0.99997
0.999971
0.999973
0.999975
0.999977
0.99998
0.999983
0.999985
0.999986
0.999983
0.999978
0.99997
0.999958
0.999943
0.999928
0.999913
0.9999
0.999893
0.999894
0.999902
0.999918
0.999942
0.999972
1.00001
1.00004
1.00007
1.0001
1.00012
1.00013
1.00013
1.00013
1.00012
1.0001
1.00008
1.00006
1.00004
1.00003
1.00001
0.999999
0.999988
0.999981
0.999976
0.999974
0.999971
0.99997
0.999969
0.999969
0.999969
0.99997
0.99997
0.99997
0.99997
0.99997
0.99997
0.99997
0.99997
0.99997
0.99997
0.99997
0.99997
0.99997
0.99997
0.99997
0.99997
0.99997
0.99997
0.99997
0.99997
0.99997
0.99997
0.99997
0.99997
0.99997
0.99997
0.99997
0.99997
0.99997
0.99997
0.99997
0.99997
0.99997
0.99997
0.99997
0.99997
0.99997
0.99997
0.99997
0.99997
0.99997
0.99997
0.99997
0.99997
0.99997
0.99997
0.99997
0.99997
0.999969
0.999969
0.99997
0.99997
0.999971
0.999972
0.999975
0.999977
0.999981
0.999985
0.999988
0.999992
0.999993
0.99999
0.999984
0.999973
0.999959
0.99994
0.999922
0.999904
0.999892
0.999888
0.999893
0.999909
0.999937
0.999973
1.00002
1.00006
1.00011
1.00015
1.00018
1.0002
1.00021
1.00021
1.0002
1.00018
1.00016
1.00013
1.0001
1.00007
1.00005
1.00003
1.00001
0.999995
0.999985
0.999979
0.999974
0.999972
0.99997
0.999969
0.999969
0.999969
0.999969
0.99997
0.99997
0.99997
0.99997
0.99997
0.99997
0.99997
0.99997
0.99997
0.99997
0.99997
0.99997
0.99997
0.99997
0.99997
0.99997
0.99997
0.99997
0.99997
0.99997
0.99997
0.99997
0.99997
0.99997
0.99997
0.99997
0.99997
0.99997
0.99997
0.99997
0.99997
0.99997
0.99997
0.99997
0.99997
0.99997
0.99997
0.99997
0.99997
0.99997
0.99997
0.99997
0.99997
0.99997
0.99997
0.99997
0.999969
0.999969
0.99997
0.99997
0.99997
0.999971
0.999973
0.999976
0.99998
0.999986
0.999992
0.999997
1
1
1
0.999992
0.999979
0.999961
0.99994
0.999919
0.999902
0.999893
0.999895
0.999911
0.999942
0.999986
1.00004
1.0001
1.00017
1.00023
1.00028
1.00032
1.00034
1.00034
1.00034
1.00031
1.00028
1.00024
1.0002
1.00015
1.00011
1.00008
1.00005
1.00002
1
0.99999
0.999981
0.999975
0.999971
0.999969
0.999968
0.999969
0.999968
0.999969
0.999969
0.99997
0.99997
0.99997
0.99997
0.99997
0.99997
0.99997
0.99997
0.99997
0.99997
0.99997
0.99997
0.99997
0.99997
0.99997
0.99997
0.99997
0.99997
0.99997
0.99997
0.99997
0.99997
0.99997
0.99997
0.99997
0.99997
0.99997
0.99997
0.99997
0.99997
0.99997
0.99997
0.99997
0.99997
0.99997
0.99997
0.99997
0.99997
0.99997
0.99997
0.99997
0.99997
0.99997
0.99997
0.999969
0.999969
0.99997
0.999969
0.99997
0.99997
0.999971
0.999975
0.999979
0.999984
0.999992
1
1.00001
1.00001
1.00002
1.00001
1
0.999987
0.999966
0.999942
0.999922
0.999908
0.999908
0.999924
0.999959
1.00001
1.00009
1.00017
1.00026
1.00035
1.00043
1.0005
1.00054
1.00056
1.00055
1.00052
1.00048
1.00042
1.00036
1.00029
1.00023
1.00017
1.00012
1.00007
1.00004
1.00001
0.999996
0.999983
0.999975
0.999971
0.999968
0.999968
0.999967
0.999968
0.999968
0.999968
0.999968
0.99997
0.99997
0.99997
0.99997
0.99997
0.99997
0.99997
0.99997
0.99997
0.99997
0.99997
0.99997
0.99997
0.99997
0.99997
0.99997
0.99997
0.99997
0.99997
0.99997
0.99997
0.99997
0.99997
0.99997
0.99997
0.99997
0.99997
0.99997
0.99997
0.99997
0.99997
0.99997
0.99997
0.99997
0.99997
0.99997
0.99997
0.99997
0.99997
0.99997
0.99997
0.99997
0.999969
0.999969
0.99997
0.999969
0.999969
0.999969
0.99997
0.999972
0.999976
0.999981
0.99999
1
1.00001
1.00002
1.00003
1.00003
1.00003
1.00002
0.999997
0.999973
0.999949
0.999932
0.999928
0.999944
0.999985
1.00005
1.00015
1.00027
1.0004
1.00053
1.00066
1.00077
1.00085
1.00089
1.0009
1.00087
1.00081
1.00073
1.00064
1.00053
1.00043
1.00033
1.00025
1.00017
1.00011
1.00006
1.00003
1
0.999987
0.999975
0.99997
0.999967
0.999966
0.999966
0.999966
0.999967
0.999968
0.999968
0.999968
0.99997
0.99997
0.99997
0.99997
0.99997
0.99997
0.99997
0.99997
0.99997
0.99997
0.99997
0.99997
0.99997
0.99997
0.99997
0.99997
0.99997
0.99997
0.99997
0.99997
0.99997
0.99997
0.99997
0.99997
0.99997
0.99997
0.99997
0.99997
0.99997
0.99997
0.99997
0.99997
0.99997
0.99997
0.99997
0.99997
0.99997
0.99997
0.99997
0.99997
0.99997
0.999969
0.999968
0.999969
0.999968
0.999968
0.999969
0.99997
0.999972
0.999978
0.999985
0.999996
1.00001
1.00002
1.00004
1.00005
1.00005
1.00004
1.00003
1
0.999979
0.999957
0.999949
0.999965
1.00001
1.00009
1.00021
1.00037
1.00055
1.00075
1.00095
1.00114
1.00129
1.00139
1.00144
1.00142
1.00136
1.00125
1.00111
1.00096
1.00079
1.00063
1.00049
1.00036
1.00025
1.00017
1.0001
1.00005
1.00001
0.99999
0.999976
0.999967
0.999964
0.999963
0.999963
0.999964
0.999966
0.999966
0.999968
0.999968
0.999968
0.99997
0.99997
0.99997
0.99997
0.99997
0.99997
0.99997
0.99997
0.99997
0.99997
0.99997
0.99997
0.99997
0.99997
0.99997
0.99997
0.99997
0.99997
0.99997
0.99997
0.99997
0.99997
0.99997
0.99997
0.99997
0.99997
0.99997
0.99997
0.99997
0.99997
0.99997
0.99997
0.99997
0.99997
0.99997
0.99997
0.99997
0.99997
0.99997
0.999969
0.999969
0.999969
0.999969
0.999968
0.999967
0.999968
0.99997
0.999972
0.999979
0.999989
1
1.00002
1.00004
1.00005
1.00007
1.00007
1.00006
1.00004
1.00001
0.999979
0.999964
0.999972
1.00002
1.00011
1.00025
1.00045
1.0007
1.00098
1.00128
1.00157
1.00184
1.00205
1.00219
1.00225
1.00221
1.00209
1.00191
1.00168
1.00143
1.00118
1.00093
1.00071
1.00052
1.00037
1.00024
1.00014
1.00007
1.00003
0.999994
0.999975
0.999964
0.99996
0.999959
0.99996
0.999962
0.999963
0.999965
0.999966
0.999968
0.999968
0.999968
0.99997
0.99997
0.99997
0.99997
0.99997
0.99997
0.99997
0.99997
0.99997
0.99997
0.99997
0.99997
0.99997
0.99997
0.99997
0.99997
0.99997
0.99997
0.99997
0.99997
0.99997
0.99997
0.99997
0.99997
0.99997
0.99997
0.99997
0.99997
0.99997
0.99997
0.99997
0.99997
0.99997
0.99997
0.99997
0.99997
0.99997
0.999969
0.999969
0.999969
0.999968
0.999967
0.999966
0.999966
0.999966
0.999968
0.999972
0.999981
0.999993
1.00001
1.00003
1.00005
1.00007
1.00008
1.00008
1.00006
1.00003
0.99999
0.999962
0.999957
0.999991
1.00008
1.00024
1.00047
1.00077
1.00114
1.00156
1.002
1.00243
1.00282
1.00313
1.00333
1.00341
1.00335
1.00316
1.00288
1.00252
1.00213
1.00174
1.00137
1.00104
1.00076
1.00053
1.00035
1.00021
1.00011
1.00004
1
0.999973
0.99996
0.999954
0.999953
0.999955
0.999958
0.999961
0.999963
0.999965
0.999967
0.999968
0.999968
0.99997
0.99997
0.99997
0.99997
0.99997
0.99997
0.99997
0.99997
0.99997
0.99997
0.99997
0.99997
0.99997
0.99997
0.99997
0.99997
0.99997
0.99997
0.99997
0.99997
0.99997
0.99997
0.99997
0.99997
0.99997
0.99997
0.99997
0.99997
0.99997
0.99997
0.99997
0.99997
0.99997
0.99997
0.99997
0.99997
0.999969
0.999969
0.999968
0.999968
0.999967
0.999966
0.999965
0.999963
0.999964
0.999966
0.99997
0.999982
0.999996
1.00002
1.00004
1.00006
1.00008
1.00008
1.00007
1.00004
0.999987
0.999939
0.999908
0.999916
0.999985
1.00013
1.00037
1.00071
1.00115
1.00167
1.00226
1.00289
1.00351
1.00408
1.00454
1.00486
1.00499
1.00492
1.00466
1.00425
1.00373
1.00315
1.00257
1.00202
1.00153
1.00111
1.00077
1.0005
1.00031
1.00017
1.00007
1.00001
0.999972
0.999953
0.999946
0.999945
0.999949
0.999952
0.999956
0.999961
0.999963
0.999966
0.999967
0.999968
0.999968
0.99997
0.99997
0.99997
0.99997
0.99997
0.99997
0.99997
0.99997
0.99997
0.99997
0.99997
0.99997
0.99997
0.99997
0.99997
0.99997
0.99997
0.99997
0.99997
0.99997
0.99997
0.99997
0.99997
0.99997
0.99997
0.99997
0.99997
0.99997
0.99997
0.99997
0.99997
0.99997
0.99997
0.99997
0.99997
0.999969
0.999968
0.999969
0.999967
0.999966
0.999964
0.999962
0.99996
0.99996
0.999962
0.999968
0.99998
0.999999
1.00002
1.00005
1.00007
1.00008
1.00007
1.00003
0.999968
0.999892
0.999823
0.999784
0.999806
0.999912
1.00012
1.00046
1.00091
1.0015
1.0022
1.003
1.00386
1.00473
1.00554
1.00624
1.00675
1.007
1.00698
1.00667
1.00612
1.0054
1.00458
1.00374
1.00294
1.00222
1.00161
1.00112
1.00073
1.00045
1.00025
1.00011
1.00002
0.999972
0.999946
0.999936
0.999936
0.99994
0.999945
0.999952
0.999957
0.99996
0.999964
0.999966
0.999967
0.999968
0.999968
0.99997
0.99997
0.99997
0.99997
0.99997
0.99997
0.99997
0.99997
0.99997
0.99997
0.99997
0.99997
0.99997
0.99997
0.99997
0.99997
0.99997
0.99997
0.99997
0.99997
0.99997
0.99997
0.99997
0.99997
0.99997
0.99997
0.99997
0.99997
0.99997
0.99997
0.99997
0.99997
0.99997
0.99997
0.999969
0.999968
0.999968
0.999966
0.999964
0.999962
0.999959
0.999957
0.999955
0.999957
0.999963
0.999976
0.999996
1.00002
1.00005
1.00006
1.00005
1.00001
0.999935
0.999827
0.999705
0.9996
0.999542
0.999567
0.999701
0.999963
1.00037
1.00093
1.00165
1.00252
1.00353
1.00465
1.00582
1.00698
1.00802
1.00885
1.00936
1.00948
1.00921
1.00856
1.00763
1.00653
1.00536
1.00423
1.0032
1.00233
1.00162
1.00107
1.00066
1.00037
1.00017
1.00005
0.999977
0.99994
0.999925
0.999924
0.999929
0.999937
0.999944
0.999952
0.999958
0.999962
0.999964
0.999966
0.999967
0.999968
0.999969
0.99997
0.99997
0.99997
0.99997
0.99997
0.99997
0.99997
0.99997
0.99997
0.99997
0.99997
0.99997
0.99997
0.99997
0.99997
0.99997
0.99997
0.99997
0.99997
0.99997
0.99997
0.99997
0.99997
0.99997
0.99997
0.99997
0.99997
0.99997
0.99997
0.99997
0.99997
0.999969
0.999969
0.999969
0.999968
0.999966
0.999965
0.999962
0.999958
0.999954
0.99995
0.999948
0.999948
0.999955
0.999968
0.999989
1.00001
1.00003
1.00002
0.999982
0.999893
0.999751
0.99957
0.999377
0.999211
0.99911
0.999109
0.999233
0.999496
0.999913
1.0005
1.00127
1.00225
1.00343
1.00481
1.00633
1.00792
1.00945
1.01079
1.01176
1.01224
1.01216
1.01154
1.01046
1.00906
1.00752
1.00598
1.00456
1.00333
1.00233
1.00154
1.00096
1.00055
1.00027
1.00009
0.999988
0.999935
0.999913
0.999909
0.999915
0.999926
0.999936
0.999945
0.999953
0.999958
0.999962
0.999965
0.999967
0.999968
0.999968
0.99997
0.99997
0.99997
0.99997
0.99997
0.99997
0.99997
0.99997
0.99997
0.99997
0.99997
0.99997
0.99997
0.99997
0.99997
0.99997
0.99997
0.99997
0.99997
0.99997
0.99997
0.99997
0.99997
0.99997
0.99997
0.99997
0.99997
0.99997
0.99997
0.99997
0.99997
0.999969
0.999969
0.999968
0.999967
0.999966
0.999963
0.999959
0.999954
0.999949
0.999942
0.999937
0.999937
0.999942
0.999954
0.999971
0.999986
0.999982
0.999944
0.999846
0.999676
0.999434
0.999141
0.998839
0.998574
0.998386
0.998301
0.998329
0.998476
0.998757
0.999202
0.999858
1.00078
1.00202
1.0036
1.00549
1.0076
1.00981
1.01189
1.01363
1.0148
1.01522
1.01487
1.0138
1.0122
1.01028
1.00828
1.00639
1.00471
1.00331
1.00222
1.0014
1.00081
1.00042
1.00016
1.00001
0.999935
0.999901
0.999894
0.9999
0.999911
0.999925
0.999938
0.999948
0.999954
0.99996
0.999963
0.999966
0.999967
0.999968
0.999969
0.99997
0.99997
0.99997
0.99997
0.99997
0.99997
0.99997
0.99997
0.99997
0.99997
0.99997
0.99997
0.99997
0.99997
0.99997
0.99997
0.99997
0.99997
0.99997
0.99997
0.99997
0.99997
0.99997
0.99997
0.99997
0.99997
0.99997
0.99997
0.99997
0.99997
0.999969
0.999969
0.999969
0.999966
0.999965
0.99996
0.999954
0.999949
0.99994
0.999931
0.999924
0.99992
0.999924
0.999931
0.99994
0.999936
0.999898
0.999799
0.999609
0.999315
0.998923
0.99847
0.998008
0.997586
0.997236
0.996954
0.996725
0.99654
0.996422
0.996429
0.99667
0.997273
0.998362
1.00001
1.00224
1.00496
1.00803
1.01118
1.01408
1.01638
1.01778
1.01811
1.01739
1.0158
1.01362
1.01117
1.00874
1.00652
1.00464
1.00314
1.002
1.00119
1.00063
1.00028
1.00006
0.999945
0.999892
0.999877
0.999881
0.999896
0.999912
0.999928
0.999941
0.99995
0.999957
0.999961
0.999965
0.999967
0.999968
0.999969
0.999969
0.99997
0.99997
0.99997
0.99997
0.99997
0.99997
0.99997
0.99997
0.99997
0.99997
0.99997
0.99997
0.99997
0.99997
0.99997
0.99997
0.99997
0.99997
0.99997
0.99997
0.99997
0.99997
0.99997
0.99997
0.99997
0.99997
0.99997
0.99997
0.999969
0.999969
0.999968
0.999968
0.999966
0.999962
0.999958
0.99995
0.999941
0.999929
0.999917
0.999906
0.999899
0.999896
0.999894
0.999886
0.99985
0.999754
0.999558
0.99923
0.998754
0.998151
0.997474
0.996788
0.996128
0.995487
0.994817
0.99406
0.993193
0.992259
0.991381
0.990762
0.990647
0.991272
0.9928
0.995299
0.998713
1.00286
1.00742
1.01195
1.01595
1.01894
1.02058
1.02074
1.01956
1.01737
1.0146
1.01164
1.00883
1.00637
1.00437
1.00283
1.00172
1.00094
1.00044
1.00014
0.99997
0.99989
0.999862
0.999864
0.999879
0.999898
0.999916
0.999932
0.999944
0.999953
0.999959
0.999964
0.999966
0.999967
0.999968
0.999969
0.99997
0.99997
0.99997
0.99997
0.99997
0.99997
0.99997
0.99997
0.99997
0.99997
0.99997
0.99997
0.99997
0.99997
0.99997
0.99997
0.99997
0.99997
0.99997
0.99997
0.99997
0.99997
0.99997
0.99997
0.99997
0.99997
0.99997
0.99997
0.999969
0.999969
0.999968
0.999966
0.999964
0.999959
0.999954
0.999945
0.999931
0.999916
0.999899
0.999883
0.999869
0.999857
0.99984
0.999802
0.999711
0.999522
0.999185
0.998654
0.997926
0.99704
0.99607
0.995076
0.994054
0.992926
0.991569
0.989874
0.987813
0.985482
0.983108
0.981045
0.979702
0.979473
0.980641
0.983338
0.987521
0.992973
0.999305
1.00597
1.0123
1.0176
1.02131
1.02309
1.02295
1.02121
1.01838
1.01503
1.01163
1.00855
1.00596
1.00393
1.00243
1.00138
1.00069
1.00026
1.00002
0.999899
0.999852
0.999846
0.99986
0.999882
0.999904
0.999923
0.999938
0.999949
0.999957
0.999962
0.999965
0.999967
0.999968
0.999969
0.99997
0.99997
0.99997
0.99997
0.99997
0.99997
0.99997
0.99997
0.99997
0.99997
0.99997
0.99997
0.99997
0.99997
0.99997
0.99997
0.99997
0.99997
0.99997
0.99997
0.99997
0.99997
0.99997
0.99997
0.99997
0.99997
0.99997
0.99997
0.999969
0.999969
0.999967
0.999965
0.999963
0.999957
0.999948
0.999937
0.99992
0.999899
0.999877
0.999854
0.99983
0.999803
0.999761
0.999675
0.999501
0.999177
0.998633
0.997824
0.99676
0.995514
0.994174
0.992768
0.991205
0.989298
0.986823
0.983624
0.979694
0.975224
0.970604
0.966396
0.96324
0.961728
0.962296
0.965145
0.970225
0.977257
0.985755
0.995051
1.00432
1.01268
1.01928
1.02354
1.02525
1.02462
1.02222
1.01874
1.01488
1.01116
1.00793
1.00533
1.00336
1.00197
1.00103
1.00045
1.0001
0.999927
0.99985
0.999831
0.999842
0.999865
0.99989
0.999913
0.999931
0.999944
0.999953
0.999959
0.999964
0.999966
0.999967
0.999968
0.999969
0.99997
0.99997
0.99997
0.99997
0.99997
0.99997
0.99997
0.99997
0.99997
0.99997
0.99997
0.99997
0.99997
0.99997
0.99997
0.99997
0.99997
0.99997
0.99997
0.99997
0.99997
0.99997
0.99997
0.99997
0.99997
0.999969
0.99997
0.999969
0.999968
0.999966
0.999965
0.999961
0.999954
0.999942
0.999927
0.999906
0.99988
0.99985
0.999818
0.99978
0.999731
0.999649
0.999493
0.999198
0.998678
0.99785
0.996673
0.995191
0.993513
0.991724
0.989767
0.987413
0.984319
0.980158
0.97474
0.96812
0.960637
0.952912
0.945785
0.940189
0.936976
0.936758
0.939802
0.946015
0.954997
0.966113
0.97854
0.991314
1.00336
1.01362
1.02122
1.02566
1.02696
1.02564
1.02249
1.01841
1.01417
1.01028
1.00704
1.00454
1.00273
1.00149
1.0007
1.00023
0.999978
0.99986
0.999822
0.999826
0.999849
0.999877
0.999902
0.999923
0.999939
0.99995
0.999958
0.999962
0.999965
0.999967
0.999968
0.999969
0.99997
0.99997
0.99997
0.99997
0.99997
0.99997
0.99997
0.99997
0.99997
0.99997
0.99997
0.99997
0.99997
0.99997
0.99997
0.99997
0.99997
0.99997
0.99997
0.99997
0.99997
0.99997
0.99997
0.99997
0.99997
0.99997
0.999969
0.999969
0.999968
0.999966
0.999963
0.999958
0.999949
0.999936
0.999916
0.99989
0.999858
0.999818
0.999772
0.999716
0.999635
0.999496
0.999238
0.998773
0.997987
0.996786
0.995148
0.993171
0.991003
0.98868
0.98599
0.982504
0.977704
0.97116
0.962685
0.952439
0.940973
0.929207
0.91834
0.909681
0.904407
0.903336
0.906778
0.914535
0.926
0.940297
0.956394
0.973165
0.98941
1.00391
1.01554
1.02352
1.0276
1.02812
1.0259
1.022
1.01743
1.01296
1.00908
1.00598
1.00369
1.00209
1.00105
1.00041
1.00006
0.999888
0.999822
0.999814
0.999833
0.999863
0.99989
0.999914
0.999932
0.999946
0.999955
0.999961
0.999964
0.999966
0.999967
0.999969
0.99997
0.99997
0.99997
0.99997
0.99997
0.99997
0.99997
0.99997
0.99997
0.99997
0.99997
0.99997
0.99997
0.99997
0.99997
0.99997
0.99997
0.99997
0.99997
0.99997
0.99997
0.99997
0.99997
0.99997
0.99997
0.99997
0.99997
0.999969
0.999968
0.999965
0.999961
0.999955
0.999945
0.999928
0.999904
0.999872
0.999831
0.999781
0.999718
0.999636
0.999511
0.999292
0.998893
0.998196
0.997061
0.99539
0.993207
0.990687
0.987992
0.985037
0.981374
0.976324
0.969192
0.959475
0.947018
0.932136
0.915646
0.898845
0.883398
0.871092
0.863515
0.861712
0.865998
0.875965
0.890669
0.90887
0.929236
0.950457
0.971247
0.990315
1.00642
1.01852
1.02608
1.02918
1.02856
1.02534
1.02077
1.01588
1.01139
1.00768
1.00485
1.00283
1.0015
1.00066
1.00018
0.999939
0.999835
0.999809
0.999821
0.999849
0.99988
0.999906
0.999927
0.999942
0.999952
0.999959
0.999963
0.999966
0.999967
0.999969
0.999969
0.99997
0.99997
0.99997
0.99997
0.99997
0.99997
0.99997
0.99997
0.99997
0.99997
0.99997
0.99997
0.99997
0.99997
0.99997
0.99997
0.99997
0.99997
0.99997
0.99997
0.99997
0.99997
0.99997
0.99997
0.99997
0.999969
0.999969
0.999967
0.999965
0.999959
0.999953
0.999939
0.999919
0.999891
0.999852
0.999801
0.999738
0.999657
0.999538
0.999352
0.999024
0.998439
0.997438
0.995863
0.993628
0.990843
0.987766
0.984527
0.980816
0.975874
0.968751
0.958594
0.944853
0.927444
0.906866
0.884263
0.8614
0.840531
0.824077
0.814141
0.812022
0.817944
0.831122
0.850085
0.873073
0.898363
0.924435
0.949954
0.973667
0.994333
1.01081
1.02228
1.02855
1.03014
1.02815
1.02397
1.01889
1.0139
1.00959
1.0062
1.00373
1.00205
1.00098
1.00035
1.00002
0.999862
0.999811
0.999814
0.999838
0.99987
0.999898
0.999921
0.999937
0.999949
0.999958
0.999962
0.999966
0.999967
0.999969
0.999969
0.99997
0.99997
0.99997
0.99997
0.99997
0.99997
0.99997
0.99997
0.99997
0.99997
0.99997
0.99997
0.99997
0.99997
0.99997
0.99997
0.99997
0.99997
0.99997
0.99997
0.99997
0.99997
0.99997
0.99997
0.99997
0.999969
0.999968
0.999966
0.999963
0.999958
0.999949
0.999934
0.99991
0.999877
0.999831
0.999767
0.99969
0.999582
0.999419
0.999152
0.998683
0.997855
0.996474
0.994364
0.991493
0.98809
0.984489
0.980693
0.976066
0.96948
0.959725
0.945819
0.927196
0.903857
0.876513
0.846684
0.816713
0.789621
0.768667
0.756614
0.755018
0.763845
0.781658
0.806179
0.834945
0.865777
0.896961
0.927183
0.955336
0.980322
1.00103
1.01649
1.02623
1.03048
1.03021
1.02684
1.02186
1.01653
1.01168
1.00773
1.00478
1.00272
1.00138
1.00058
1.00013
0.999911
0.999826
0.999813
0.999831
0.999861
0.999891
0.999916
0.999934
0.999948
0.999956
0.999962
0.999966
0.999966
0.999968
0.999969
0.99997
0.99997
0.99997
0.99997
0.99997
0.99997
0.99997
0.99997
0.99997
0.99997
0.99997
0.99997
0.99997
0.99997
0.99997
0.99997
0.99997
0.99997
0.99997
0.99997
0.99997
0.99997
0.99997
0.99997
0.99997
0.999969
0.999968
0.999966
0.999962
0.999956
0.999945
0.999928
0.999899
0.999861
0.999807
0.999731
0.999635
0.999498
0.999276
0.998904
0.998258
0.997129
0.995282
0.992554
0.989011
0.98503
0.98097
0.976596
0.970851
0.962222
0.949264
0.930906
0.906589
0.876398
0.841258
0.803109
0.76501
0.730988
0.705417
0.691922
0.692277
0.705911
0.730293
0.761945
0.797487
0.834274
0.870514
0.905066
0.937104
0.965808
0.990225
1.00937
1.02253
1.02964
1.03142
1.02922
1.02464
1.01917
1.01388
1.0094
1.00595
1.00349
1.00186
1.00085
1.00028
0.999981
0.999855
0.99982
0.999829
0.999856
0.999885
0.999911
0.999931
0.999945
0.999954
0.999961
0.999965
0.999966
0.999968
0.999969
0.99997
0.99997
0.99997
0.99997
0.99997
0.99997
0.99997
0.99997
0.99997
0.99997
0.99997
0.99997
0.99997
0.99997
0.99997
0.99997
0.99997
0.99997
0.99997
0.99997
0.99997
0.99997
0.99997
0.999969
0.99997
0.999969
0.999968
0.999965
0.999962
0.999954
0.999941
0.999922
0.99989
0.999845
0.999784
0.999694
0.999576
0.999402
0.999108
0.998606
0.997741
0.99625
0.993856
0.990447
0.986247
0.981782
0.977346
0.972349
0.965257
0.954178
0.937491
0.914072
0.883371
0.845541
0.801697
0.754238
0.707091
0.665588
0.635596
0.621882
0.62639
0.647526
0.680998
0.721588
0.764781
0.807535
0.848239
0.886198
0.921079
0.952477
0.979707
1.00185
1.01803
1.0279
1.03186
1.03106
1.02714
1.02173
1.01613
1.01117
1.00723
1.00436
1.00241
1.00118
1.00046
1.00008
0.999898
0.999836
0.999833
0.999853
0.999881
0.999907
0.999928
0.999943
0.999953
0.99996
0.999964
0.999966
0.999968
0.999969
0.99997
0.99997
0.99997
0.99997
0.99997
0.99997
0.99997
0.99997
0.99997
0.99997
0.99997
0.99997
0.99997
0.99997
0.99997
0.99997
0.99997
0.99997
0.99997
0.99997
0.99997
0.99997
0.99997
0.99997
0.99997
0.999969
0.999968
0.999965
0.999961
0.999953
0.999937
0.999917
0.999879
0.999828
0.999761
0.999655
0.99951
0.999297
0.998916
0.998254
0.997128
0.995215
0.992206
0.988087
0.9833
0.978484
0.973754
0.968063
0.959386
0.945505
0.92467
0.895751
0.858202
0.812197
0.759001
0.701479
0.64456
0.5952
0.561277
0.549178
0.560956
0.593217
0.638906
0.690404
0.741867
0.790058
0.833923
0.873633
0.909659
0.942195
0.970912
0.995002
1.01349
1.02572
1.03173
1.03243
1.02933
1.02414
1.01834
1.01298
1.00859
1.0053
1.00303
1.00156
1.00068
1.0002
0.999958
0.999863
0.999843
0.999856
0.99988
0.999905
0.999926
0.999941
0.999952
0.999959
0.999964
0.999966
0.999968
0.999969
0.999969
0.99997
0.99997
0.99997
0.99997
0.99997
0.99997
0.99997
0.99997
0.99997
0.99997
0.99997
0.99997
0.99997
0.99997
0.99997
0.99997
0.99997
0.99997
0.99997
0.99997
0.99997
0.99997
0.99997
0.999969
0.999968
0.999967
0.999964
0.99996
0.99995
0.999934
0.999912
0.999871
0.999811
0.999741
0.999619
0.999439
0.99918
0.998702
0.997849
0.996417
0.994034
0.990361
0.985545
0.980286
0.975277
0.970314
0.963841
0.953382
0.936453
0.911243
0.876651
0.832136
0.777839
0.715101
0.64721
0.580106
0.522588
0.48527
0.477132
0.500299
0.548208
0.609659
0.674019
0.734074
0.786649
0.831694
0.870738
0.905478
0.936972
0.96536
0.989974
1.00972
1.02364
1.03137
1.03346
1.03123
1.02637
1.02049
1.0148
1.00999
1.0063
1.00369
1.00198
1.00093
1.00034
1.00004
0.999902
0.99986
0.999862
0.999881
0.999905
0.999925
0.99994
0.999951
0.999958
0.999963
0.999966
0.999968
0.999969
0.999969
0.99997
0.99997
0.99997
0.99997
0.99997
0.99997
0.99997
0.99997
0.99997
0.99997
0.99997
0.99997
0.99997
0.99997
0.99997
0.99997
0.99997
0.99997
0.99997
0.99997
0.99997
0.99997
0.999969
0.999969
0.999969
0.999967
0.999963
0.999958
0.99995
0.999929
0.999908
0.999865
0.999795
0.999721
0.999586
0.999365
0.999052
0.99847
0.997391
0.995613
0.992728
0.988378
0.982909
0.977324
0.97228
0.967125
0.959792
0.947434
0.927394
0.897849
0.85778
0.806665
0.74458
0.67286
0.595043
0.517771
0.451594
0.410926
0.409301
0.448768
0.517192
0.597764
0.676662
0.745453
0.801201
0.845167
0.880683
0.91115
0.938852
0.964594
0.98791
1.00757
1.02224
1.03113
1.03435
1.03292
1.02844
1.02255
1.01659
1.0114
1.00733
1.0044
1.00244
1.00121
1.0005
1.00013
0.999951
0.999885
0.999875
0.999887
0.999907
0.999925
0.99994
0.999951
0.999958
0.999963
0.999966
0.999968
0.999969
0.999969
0.99997
0.99997
0.99997
0.99997
0.99997
0.99997
0.99997
0.99997
0.99997
0.99997
0.99997
0.99997
0.999969
0.99997
0.99997
0.99997
0.99997
0.99997
0.99997
0.99997
0.99997
0.99997
0.99997
0.999969
0.999969
0.999967
0.999963
0.999958
0.99995
0.999927
0.999903
0.999863
0.999782
0.999701
0.99956
0.999291
0.998913
0.998225
0.996899
0.994725
0.991328
0.986324
0.980272
0.974512
0.969582
0.964273
0.956036
0.9418
0.918822
0.885322
0.840425
0.783699
0.715184
0.636135
0.54997
0.46322
0.387438
0.342136
0.348996
0.409427
0.502181
0.604173
0.698885
0.776779
0.835026
0.876166
0.905552
0.928712
0.949608
0.970041
0.989898
1.00783
1.02211
1.0314
1.03533
1.03452
1.03036
1.02449
1.01831
1.01279
1.00836
1.00512
1.00292
1.00152
1.00069
1.00024
1.00001
0.999919
0.999892
0.999896
0.999911
0.999927
0.999941
0.999952
0.999959
0.999963
0.999966
0.999968
0.999969
0.999969
0.99997
0.99997
0.99997
0.99997
0.99997
0.99997
0.99997
0.99997
0.99997
0.99997
0.99997
0.99997
0.99997
0.99997
0.99997
0.99997
0.99997
0.99997
0.99997
0.99997
0.99997
0.99997
0.99997
0.999969
0.999969
0.999967
0.999963
0.999957
0.99995
0.999926
0.999898
0.999865
0.999772
0.999682
0.999543
0.999223
0.998763
0.997972
0.996384
0.993776
0.989874
0.98428
0.977724
0.971913
0.967239
0.961832
0.952718
0.936793
0.911338
0.87465
0.826077
0.765448
0.692907
0.609554
0.518138
0.423824
0.337546
0.28426
0.29906
0.382528
0.500831
0.625107
0.736689
0.824707
0.885925
0.923743
0.945443
0.958926
0.970277
0.982733
0.996823
1.01121
1.02375
1.03255
1.03662
1.03614
1.0322
1.02633
1.01996
1.01413
1.00938
1.00584
1.0034
1.00183
1.00089
1.00035
1.00008
0.999959
0.999915
0.999908
0.999918
0.999931
0.999943
0.999952
0.999959
0.999963
0.999966
0.999968
0.999969
0.999969
0.99997
0.99997
0.99997
0.99997
0.99997
0.99997
0.99997
0.99997
0.99997
0.99997
0.99997
0.99997
0.99997
0.99997
0.99997
0.99997
0.99997
0.99997
0.99997
0.99997
0.99997
0.999969
0.99997
0.999969
0.999968
0.999967
0.999964
0.999956
0.999951
0.999927
0.999894
0.999869
0.999772
0.999661
0.999531
0.999169
0.998605
0.997715
0.995874
0.992792
0.988403
0.982321
0.975343
0.969567
0.96528
0.959878
0.950006
0.93276
0.905593
0.866872
0.816279
0.754174
0.681055
0.597785
0.505822
0.407895
0.312397
0.246618
0.262972
0.366053
0.507961
0.654174
0.783588
0.883353
0.949092
0.984458
0.998312
1.00092
1.00078
1.003
1.00916
1.01816
1.02756
1.03486
1.03844
1.03791
1.034
1.02806
1.0215
1.0154
1.01035
1.00655
1.00389
1.00215
1.00109
1.00048
1.00016
1
0.999942
0.999924
0.999927
0.999936
0.999946
0.999954
0.999959
0.999964
0.999966
0.999968
0.999969
0.999969
0.99997
0.99997
0.99997
0.99997
0.99997
0.99997
0.99997
0.99997
0.99997
0.99997
0.99997
0.99997
0.99997
0.99997
0.99997
0.99997
0.99997
0.99997
0.99997
0.99997
0.99997
0.999969
0.99997
0.99997
0.999967
0.999967
0.999965
0.999955
0.999951
0.999931
0.99989
0.999872
0.999782
0.999643
0.999523
0.999136
0.998447
0.997455
0.995389
0.991816
0.986954
0.980507
0.973198
0.96749
0.963698
0.958474
0.948082
0.930047
0.902197
0.862962
0.812421
0.751818
0.682291
0.604298
0.517496
0.421922
0.322688
0.243885
0.249161
0.360501
0.520333
0.68656
0.834203
0.947257
1.01935
1.05383
1.06073
1.05242
1.03986
1.03034
1.02685
1.02883
1.03374
1.03853
1.04091
1.03991
1.0358
1.02971
1.02294
1.01657
1.01126
1.00721
1.00435
1.00246
1.00129
1.00061
1.00024
1.00006
0.999973
0.999943
0.999939
0.999943
0.99995
0.999956
0.999961
0.999965
0.999967
0.999968
0.999969
0.999969
0.99997
0.99997