/*--------------------------------*- C++ -*----------------------------------*\
  =========                 |
  \\      /  F ield         | OpenFOAM: The Open Source CFD Toolbox
   \\    /   O peration     | Website:  https://openfoam.org
    \\  /    A nd           | Version:  6
     \\/     M anipulation  |
\*---------------------------------------------------------------------------*/
FoamFile
{
    version     2.0;
    format      ascii;
    class       volScalarField;
    location    "4.67";
    object      rho;
}
// * * * * * * * * * * * * * * * * * * * * * * * * * * * * * * * * * * * * * //

dimensions      [1 -3 0 0 0 0 0];

internalField   nonuniform List<scalar> 
5625
(
1.45002
1.44532
1.4385
1.43023
1.42114
1.41176
1.40247
1.39362
1.38556
1.37852
1.37266
1.3682
1.36529
1.36398
1.36428
1.36606
1.369
1.37277
1.37699
1.38121
1.38503
1.38831
1.39079
1.39218
1.39267
1.39274
1.39237
1.39141
1.3903
1.3896
1.38922
1.38881
1.38849
1.3885
1.38877
1.38915
1.38959
1.38987
1.38949
1.38812
1.38581
1.38277
1.3791
1.37492
1.37057
1.36666
1.36381
1.36234
1.36229
1.36348
1.36582
1.36936
1.37436
1.38106
1.38959
1.39977
1.41102
1.42244
1.43286
1.44115
1.44648
1.44847
1.44731
1.44362
1.43828
1.43216
1.42602
1.42038
1.41551
1.41152
1.40838
1.40599
1.40422
1.40294
1.40204
1.45112
1.4475
1.44154
1.43392
1.42527
1.41615
1.40696
1.39806
1.38978
1.38237
1.37602
1.37092
1.36719
1.36495
1.36426
1.36497
1.36687
1.36981
1.37354
1.37759
1.38154
1.38516
1.38818
1.39047
1.39216
1.39333
1.39384
1.39384
1.39375
1.39366
1.39329
1.39268
1.39219
1.3919
1.3916
1.39118
1.39063
1.38972
1.38809
1.38564
1.38256
1.37907
1.37526
1.37127
1.36746
1.36439
1.36253
1.36207
1.36293
1.36493
1.36799
1.37224
1.37792
1.38527
1.39431
1.40478
1.41599
1.42697
1.43657
1.44374
1.4478
1.44857
1.4464
1.44201
1.4363
1.43011
1.42409
1.41869
1.41412
1.41042
1.40754
1.40537
1.40378
1.40263
1.40183
1.45177
1.44935
1.44437
1.43751
1.42942
1.42064
1.41162
1.40275
1.39434
1.38663
1.37984
1.37417
1.36975
1.36668
1.36498
1.36458
1.3655
1.36763
1.37059
1.37394
1.3775
1.38113
1.3845
1.38735
1.38971
1.39152
1.39272
1.39348
1.394
1.39414
1.39384
1.39336
1.39293
1.3924
1.39159
1.39051
1.3892
1.38742
1.38497
1.38194
1.37859
1.37508
1.37149
1.36798
1.36494
1.36285
1.36203
1.36255
1.36426
1.36701
1.37076
1.37568
1.38202
1.38995
1.39942
1.41005
1.42107
1.43143
1.44004
1.44596
1.44869
1.44824
1.44513
1.44013
1.43415
1.42796
1.42213
1.41701
1.41275
1.40936
1.40674
1.40479
1.40336
1.40234
1.40163
1.45188
1.45076
1.44689
1.44092
1.43349
1.42517
1.41641
1.40765
1.39919
1.39128
1.38413
1.37796
1.37292
1.36909
1.36647
1.36511
1.36508
1.36619
1.36807
1.3706
1.37373
1.37713
1.38036
1.38328
1.38588
1.38805
1.3897
1.39093
1.39177
1.3921
1.39201
1.39173
1.39128
1.39046
1.38923
1.38774
1.38594
1.38365
1.38082
1.37766
1.37443
1.37123
1.36814
1.36534
1.36321
1.36216
1.36237
1.36381
1.36631
1.36974
1.37414
1.37969
1.38663
1.39508
1.40488
1.41552
1.42616
1.43572
1.44316
1.44772
1.44908
1.44746
1.44349
1.438
1.43185
1.42575
1.42016
1.41536
1.41143
1.40834
1.40598
1.40424
1.40297
1.40207
1.40144
1.45139
1.45165
1.44901
1.44406
1.43742
1.42966
1.42129
1.41271
1.40428
1.39625
1.38885
1.38229
1.3767
1.37215
1.36874
1.36656
1.36556
1.36555
1.36642
1.3682
1.37069
1.3734
1.37609
1.3788
1.3814
1.38363
1.38543
1.38687
1.38787
1.38833
1.38842
1.38826
1.38772
1.38669
1.38528
1.38361
1.38161
1.37915
1.37633
1.3734
1.37058
1.36793
1.36551
1.36356
1.36242
1.3624
1.36358
1.36586
1.36906
1.37312
1.37811
1.38425
1.39175
1.40063
1.41062
1.4211
1.43115
1.4397
1.44583
1.44894
1.44894
1.44621
1.4415
1.43564
1.42944
1.4235
1.41822
1.41376
1.41017
1.40738
1.40527
1.40372
1.40261
1.40182
1.40127
1.45023
1.45191
1.45063
1.44683
1.44111
1.43404
1.42616
1.41789
1.40958
1.40151
1.39395
1.38708
1.38103
1.37589
1.37181
1.36885
1.36691
1.36591
1.36592
1.36685
1.36834
1.37015
1.37229
1.37469
1.37699
1.37898
1.38069
1.38211
1.3831
1.38363
1.38383
1.38369
1.38307
1.38198
1.38058
1.37894
1.37695
1.37461
1.37209
1.36966
1.36744
1.36547
1.36383
1.36279
1.36265
1.36361
1.36567
1.36868
1.3725
1.37712
1.38267
1.38935
1.39733
1.40653
1.41655
1.42666
1.4359
1.44326
1.44793
1.44955
1.44823
1.44451
1.43918
1.43309
1.42695
1.42126
1.41631
1.41222
1.40897
1.40648
1.40461
1.40325
1.40228
1.40159
1.40111
1.44835
1.45146
1.45162
1.44912
1.44445
1.43821
1.43094
1.42309
1.41501
1.40701
1.39938
1.39229
1.38587
1.38028
1.37564
1.37194
1.36916
1.36733
1.36649
1.36644
1.36695
1.36801
1.36957
1.37134
1.37303
1.37462
1.37614
1.3774
1.37826
1.37877
1.37899
1.37881
1.37817
1.37716
1.37591
1.37442
1.37263
1.37061
1.3686
1.3668
1.36527
1.36404
1.36324
1.36312
1.36393
1.36578
1.36861
1.37225
1.37662
1.38174
1.38779
1.39496
1.40333
1.4127
1.42255
1.43207
1.44027
1.44624
1.44937
1.44949
1.44694
1.44236
1.43659
1.43041
1.42443
1.41905
1.41448
1.41076
1.40786
1.40564
1.40401
1.40282
1.40198
1.40138
1.40097
1.44576
1.45023
1.45188
1.45078
1.44733
1.44207
1.43555
1.42823
1.42049
1.41268
1.40508
1.39787
1.3912
1.38525
1.38011
1.37578
1.3723
1.36977
1.3681
1.36713
1.36681
1.36714
1.36792
1.36889
1.36997
1.37117
1.37236
1.37329
1.37393
1.37435
1.37451
1.37429
1.37369
1.37285
1.37183
1.37059
1.36912
1.36758
1.36619
1.36507
1.36425
1.36377
1.36379
1.36457
1.36626
1.36889
1.37236
1.37653
1.38136
1.38693
1.39344
1.40102
1.40966
1.41903
1.42849
1.43716
1.4441
1.44853
1.45005
1.44874
1.44508
1.43983
1.43378
1.42763
1.42191
1.4169
1.41273
1.4094
1.40682
1.40488
1.40346
1.40243
1.4017
1.4012
1.40084
1.44251
1.44818
1.45131
1.45171
1.4496
1.44548
1.43985
1.4332
1.42594
1.41845
1.41097
1.40372
1.39693
1.39073
1.38518
1.38034
1.37632
1.37314
1.37071
1.36895
1.36787
1.36743
1.36743
1.36769
1.36822
1.36894
1.36964
1.37018
1.37059
1.37089
1.37095
1.37069
1.37018
1.36955
1.36879
1.36784
1.36678
1.36579
1.36504
1.3646
1.36446
1.36471
1.36553
1.36712
1.36958
1.37287
1.37687
1.38147
1.3867
1.39268
1.39958
1.40747
1.41623
1.42538
1.43419
1.44176
1.44722
1.45
1.44993
1.44729
1.44271
1.43696
1.4308
1.42483
1.41944
1.41485
1.41109
1.40813
1.40587
1.40419
1.40296
1.40208
1.40146
1.40103
1.40073
1.43869
1.44532
1.44984
1.45177
1.45114
1.4483
1.44372
1.43789
1.43126
1.42419
1.41695
1.40981
1.40299
1.39663
1.39078
1.38557
1.3811
1.37735
1.37426
1.37184
1.37012
1.36897
1.36823
1.36787
1.36785
1.36801
1.3682
1.36838
1.36857
1.3687
1.36864
1.36837
1.368
1.36756
1.36704
1.36641
1.3658
1.36538
1.36525
1.36542
1.36593
1.36686
1.36841
1.37072
1.37382
1.37764
1.38205
1.38701
1.39258
1.39891
1.40613
1.41421
1.42288
1.43156
1.43944
1.44565
1.44948
1.45057
1.44898
1.44518
1.43988
1.43385
1.42774
1.42206
1.41707
1.41291
1.40957
1.40697
1.40501
1.40356
1.40252
1.40177
1.40125
1.40088
1.40063
1.43446
1.44173
1.44745
1.45088
1.45179
1.45037
1.447
1.44217
1.4363
1.42977
1.42292
1.41603
1.40929
1.40284
1.39683
1.39138
1.38656
1.38232
1.37871
1.37578
1.37347
1.37166
1.37029
1.36937
1.36881
1.36845
1.3682
1.36806
1.36802
1.36793
1.36774
1.36749
1.36726
1.36701
1.36672
1.36642
1.36627
1.36638
1.3668
1.36752
1.3686
1.37016
1.37236
1.37528
1.3789
1.38311
1.38785
1.39309
1.39895
1.40557
1.41299
1.42109
1.42944
1.43736
1.44402
1.44866
1.45075
1.45017
1.44721
1.44247
1.43669
1.43057
1.42467
1.41936
1.41482
1.41111
1.40818
1.40593
1.40424
1.40301
1.40213
1.4015
1.40106
1.40075
1.40054
1.43002
1.43753
1.44417
1.44897
1.45144
1.45154
1.44954
1.44586
1.44091
1.43509
1.42878
1.42224
1.41569
1.40929
1.40325
1.39767
1.39257
1.38797
1.38399
1.38062
1.37779
1.37543
1.37356
1.37216
1.37109
1.37026
1.36963
1.36922
1.36891
1.36862
1.36835
1.36813
1.36801
1.36792
1.36785
1.36789
1.36816
1.36874
1.36963
1.37084
1.37243
1.37454
1.37728
1.38069
1.38469
1.3892
1.39417
1.39965
1.40574
1.41256
1.42005
1.42793
1.43567
1.44253
1.44771
1.45061
1.45094
1.44881
1.4447
1.43927
1.43325
1.42723
1.42166
1.41679
1.41273
1.40946
1.40692
1.40499
1.40356
1.40253
1.40178
1.40126
1.4009
1.40064
1.40046
1.42562
1.43296
1.44011
1.44604
1.44999
1.45167
1.45116
1.44878
1.44493
1.43999
1.43435
1.4283
1.42208
1.4159
1.40994
1.40428
1.39901
1.39422
1.38997
1.38623
1.38297
1.38021
1.37795
1.37611
1.37459
1.37336
1.37244
1.37176
1.37121
1.37076
1.37043
1.37026
1.37021
1.37024
1.37039
1.37075
1.3714
1.37237
1.37365
1.37526
1.3773
1.37988
1.38306
1.38683
1.3911
1.39581
1.40095
1.4066
1.41285
1.41974
1.42709
1.43449
1.44131
1.4468
1.45029
1.45137
1.45002
1.44654
1.44155
1.43571
1.42966
1.42391
1.41877
1.41439
1.41081
1.40798
1.4058
1.40417
1.40297
1.4021
1.40149
1.40106
1.40075
1.40054
1.4004
1.42145
1.42827
1.43549
1.44217
1.44741
1.45064
1.4517
1.45076
1.44816
1.44428
1.43948
1.43406
1.42832
1.42248
1.4167
1.41111
1.40582
1.40094
1.39651
1.3925
1.38894
1.38588
1.38328
1.38107
1.3792
1.37769
1.3765
1.37556
1.37481
1.37425
1.3739
1.37374
1.37374
1.37389
1.37424
1.37488
1.37585
1.37713
1.37872
1.38068
1.38309
1.38604
1.38955
1.39356
1.398
1.40282
1.40808
1.41384
1.42016
1.42694
1.43389
1.44049
1.44606
1.44992
1.45158
1.45089
1.44803
1.44349
1.4379
1.43192
1.42606
1.4207
1.41605
1.41218
1.40908
1.40666
1.40482
1.40345
1.40245
1.40174
1.40123
1.40088
1.40063
1.40046
1.40034
1.41766
1.42373
1.43061
1.43758
1.44375
1.44836
1.45101
1.45162
1.45043
1.44777
1.44397
1.43936
1.43424
1.42886
1.42341
1.41802
1.41285
1.40798
1.40344
1.39928
1.39555
1.39228
1.38941
1.38692
1.38481
1.38307
1.38166
1.38051
1.37961
1.37897
1.37859
1.37844
1.37849
1.37875
1.37929
1.38015
1.38135
1.38286
1.38471
1.38695
1.38967
1.3929
1.39661
1.40076
1.40527
1.41015
1.41546
1.42124
1.42746
1.4339
1.44014
1.44559
1.44961
1.45166
1.45149
1.44918
1.44509
1.4398
1.43394
1.42805
1.42254
1.41767
1.41355
1.41019
1.40754
1.4055
1.40396
1.40283
1.40201
1.40143
1.40102
1.40073
1.40053
1.40039
1.40029
1.41434
1.41955
1.42577
1.43257
1.4392
1.44488
1.44897
1.45119
1.45153
1.45023
1.4476
1.44398
1.43965
1.43489
1.42989
1.42485
1.4199
1.41513
1.41063
1.40645
1.40266
1.39924
1.39619
1.39352
1.39124
1.38933
1.38774
1.38644
1.38544
1.38474
1.38434
1.38418
1.38427
1.38464
1.38533
1.38637
1.38773
1.38942
1.39147
1.39393
1.39687
1.40027
1.40409
1.40827
1.41279
1.41767
1.42294
1.4286
1.4345
1.44029
1.44548
1.44946
1.45171
1.45191
1.45003
1.44636
1.44138
1.43569
1.42983
1.42424
1.41921
1.41488
1.4113
1.40843
1.40619
1.40449
1.40323
1.4023
1.40164
1.40117
1.40083
1.4006
1.40044
1.40033
1.40024
1.41151
1.41586
1.42125
1.4275
1.43411
1.44039
1.44563
1.44932
1.45125
1.45145
1.45017
1.4477
1.44434
1.44035
1.43597
1.43139
1.42679
1.42226
1.41791
1.41383
1.41004
1.40658
1.40345
1.40069
1.39831
1.39628
1.39456
1.39317
1.39212
1.39139
1.39095
1.39078
1.39092
1.39138
1.39219
1.39334
1.39482
1.39664
1.39883
1.40145
1.40452
1.40799
1.41182
1.41596
1.42042
1.42522
1.43033
1.43566
1.44094
1.44573
1.44952
1.45179
1.45219
1.45063
1.4473
1.44262
1.43713
1.43136
1.42574
1.42061
1.41612
1.41236
1.4093
1.40689
1.40503
1.40364
1.40261
1.40186
1.40132
1.40095
1.40068
1.4005
1.40036
1.40027
1.40021
1.40912
1.4127
1.41723
1.42269
1.42886
1.43524
1.44116
1.44603
1.44943
1.45121
1.45142
1.45028
1.44805
1.44501
1.4414
1.43746
1.43334
1.42918
1.4251
1.42119
1.41751
1.41411
1.41101
1.40824
1.40582
1.40372
1.40195
1.40052
1.39943
1.39867
1.39822
1.39807
1.39825
1.39878
1.39966
1.40088
1.40243
1.40434
1.40663
1.40934
1.41243
1.41588
1.41964
1.42367
1.42799
1.43257
1.43732
1.44204
1.44635
1.4498
1.45193
1.45237
1.451
1.44794
1.44353
1.43825
1.4326
1.42701
1.42183
1.41724
1.41334
1.41013
1.40756
1.40557
1.40405
1.40292
1.40209
1.40149
1.40106
1.40076
1.40055
1.40041
1.4003
1.40023
1.40017
1.40715
1.41004
1.41376
1.41838
1.42383
1.42984
1.43594
1.44154
1.44612
1.44935
1.45109
1.45141
1.4505
1.4486
1.44596
1.4428
1.4393
1.43565
1.43197
1.42836
1.42489
1.42164
1.41865
1.41596
1.41356
1.41146
1.4097
1.40827
1.40718
1.40641
1.40596
1.40583
1.40605
1.40663
1.40755
1.4088
1.41039
1.41234
1.41467
1.41737
1.42042
1.42376
1.42736
1.43119
1.43524
1.43941
1.44352
1.44728
1.45029
1.45213
1.45248
1.45117
1.44828
1.44409
1.43901
1.43351
1.42801
1.42283
1.41819
1.4142
1.41088
1.40819
1.40608
1.40445
1.40322
1.40232
1.40166
1.40118
1.40085
1.40061
1.40045
1.40033
1.40025
1.40019
1.40015
1.40554
1.40785
1.41085
1.41465
1.41928
1.42463
1.43043
1.43624
1.44154
1.44591
1.44905
1.45087
1.4514
1.45081
1.44931
1.44711
1.44443
1.44143
1.43828
1.4351
1.43197
1.42898
1.42618
1.42362
1.42131
1.4193
1.4176
1.41621
1.41514
1.41439
1.41396
1.41387
1.41412
1.41472
1.41564
1.4169
1.41849
1.42044
1.42273
1.42535
1.42826
1.4314
1.43473
1.43823
1.4418
1.44529
1.44844
1.45092
1.45237
1.45249
1.45113
1.44832
1.44429
1.43941
1.43408
1.42871
1.42359
1.41896
1.41492
1.41153
1.40875
1.40654
1.40482
1.40351
1.40254
1.40182
1.4013
1.40093
1.40067
1.40049
1.40036
1.40027
1.40021
1.40016
1.40012
1.40424
1.40606
1.40846
1.41153
1.41534
1.41989
1.42508
1.43062
1.43614
1.44118
1.44539
1.44853
1.45049
1.4513
1.45109
1.45005
1.44836
1.44621
1.44375
1.44113
1.43846
1.43584
1.43333
1.431
1.42888
1.42701
1.42541
1.42411
1.4231
1.42239
1.422
1.42194
1.42222
1.42281
1.42373
1.42496
1.42651
1.42838
1.43056
1.433
1.43566
1.43848
1.44141
1.44436
1.4472
1.4497
1.45159
1.45256
1.45236
1.45084
1.44804
1.44413
1.43943
1.43429
1.42907
1.42406
1.41949
1.41547
1.41204
1.40922
1.40695
1.40516
1.40378
1.40275
1.40198
1.40142
1.40101
1.40073
1.40053
1.40039
1.40029
1.40022
1.40017
1.40013
1.4001
1.40321
1.40464
1.40652
1.40895
1.41203
1.41579
1.42021
1.42517
1.43043
1.43565
1.44046
1.44456
1.44773
1.44988
1.45102
1.45125
1.45071
1.44957
1.44799
1.44609
1.44404
1.44192
1.43982
1.43782
1.43597
1.43431
1.43288
1.4317
1.43079
1.43016
1.42983
1.42981
1.43008
1.43065
1.43152
1.43268
1.43414
1.43587
1.43783
1.43998
1.44225
1.44459
1.44691
1.44907
1.45089
1.45215
1.45259
1.452
1.45027
1.44742
1.44359
1.43905
1.43411
1.42908
1.42424
1.41977
1.41581
1.41241
1.40958
1.40727
1.40544
1.40402
1.40293
1.40212
1.40152
1.40109
1.40079
1.40057
1.40042
1.40031
1.40023
1.40018
1.40014
1.40011
1.40009
1.4024
1.4035
1.40497
1.40688
1.40931
1.41234
1.41599
1.42022
1.42492
1.42987
1.43479
1.43938
1.44337
1.44659
1.44896
1.45045
1.45113
1.45113
1.45056
1.44956
1.44827
1.4468
1.44525
1.44369
1.44221
1.44085
1.43966
1.43866
1.4379
1.43737
1.43711
1.43711
1.43738
1.43791
1.4387
1.43973
1.441
1.44247
1.4441
1.44581
1.44754
1.4492
1.45068
1.45182
1.45243
1.45232
1.45132
1.44935
1.44641
1.44265
1.43827
1.43354
1.42874
1.4241
1.41979
1.41594
1.41261
1.40981
1.4075
1.40565
1.4042
1.40309
1.40224
1.40162
1.40116
1.40084
1.4006
1.40044
1.40032
1.40024
1.40019
1.40014
1.40011
1.40009
1.40007
1.40178
1.40261
1.40374
1.40522
1.40713
1.40951
1.41245
1.41594
1.41993
1.42433
1.42895
1.43356
1.43792
1.44181
1.44508
1.44764
1.44946
1.45058
1.4511
1.4511
1.4507
1.45001
1.44912
1.44814
1.44714
1.44617
1.4453
1.44455
1.44397
1.44358
1.4434
1.44343
1.44367
1.44412
1.44477
1.44561
1.4466
1.44769
1.44883
1.44996
1.45098
1.45179
1.45226
1.45225
1.45161
1.45021
1.44799
1.44498
1.44129
1.43708
1.43259
1.42804
1.42364
1.41954
1.41585
1.41263
1.4099
1.40763
1.40579
1.40434
1.40321
1.40234
1.4017
1.40122
1.40088
1.40063
1.40046
1.40034
1.40025
1.40019
1.40015
1.40012
1.40009
1.40008
1.40006
1.4013
1.40194
1.40279
1.40392
1.40539
1.40726
1.40956
1.41235
1.41564
1.41936
1.42343
1.4277
1.432
1.43611
1.43986
1.44313
1.44584
1.44793
1.44944
1.45043
1.45096
1.45113
1.45101
1.45068
1.45025
1.44976
1.44928
1.44884
1.4485
1.44827
1.44818
1.44822
1.44841
1.44873
1.44919
1.44974
1.45035
1.45096
1.45151
1.45192
1.45212
1.45199
1.45142
1.4503
1.44855
1.44614
1.44309
1.43949
1.43548
1.43126
1.427
1.42287
1.41902
1.41553
1.41246
1.40984
1.40764
1.40585
1.40441
1.40328
1.40241
1.40175
1.40127
1.40091
1.40066
1.40047
1.40035
1.40026
1.4002
1.40015
1.40012
1.4001
1.40008
1.40006
1.40005
1.40094
1.40141
1.40206
1.40292
1.40403
1.40547
1.40726
1.40945
1.41207
1.41511
1.41854
1.42226
1.42617
1.43011
1.43395
1.43752
1.44073
1.4435
1.44579
1.44761
1.44897
1.44994
1.45058
1.45095
1.45112
1.45116
1.45111
1.45103
1.45095
1.45089
1.45089
1.45095
1.45107
1.45124
1.45143
1.45163
1.45179
1.45185
1.45175
1.45142
1.45078
1.44976
1.44828
1.44628
1.44375
1.44072
1.43726
1.43349
1.42957
1.42562
1.42181
1.41824
1.41499
1.41212
1.40963
1.40754
1.40581
1.40441
1.4033
1.40244
1.40179
1.40129
1.40093
1.40067
1.40048
1.40035
1.40026
1.4002
1.40015
1.40012
1.40009
1.40008
1.40006
1.40005
1.40004
1.40068
1.40103
1.4015
1.40215
1.40299
1.40408
1.40545
1.40714
1.40919
1.41161
1.41438
1.41748
1.42085
1.42437
1.42795
1.43147
1.43481
1.43788
1.44063
1.443
1.44499
1.44661
1.44789
1.44888
1.44962
1.45015
1.45053
1.4508
1.45099
1.45111
1.45119
1.45125
1.45128
1.45127
1.4512
1.45103
1.45073
1.45025
1.44954
1.44855
1.44721
1.4455
1.44337
1.44082
1.43789
1.43463
1.43115
1.42755
1.42396
1.42049
1.41723
1.41425
1.4116
1.40929
1.40732
1.40568
1.40435
1.40328
1.40244
1.40179
1.4013
1.40094
1.40068
1.40049
1.40035
1.40026
1.40019
1.40015
1.40012
1.40009
1.40007
1.40006
1.40005
1.40004
1.40003
1.40048
1.40074
1.40109
1.40157
1.4022
1.40301
1.40405
1.40534
1.40691
1.40879
1.41098
1.41348
1.41625
1.41924
1.42237
1.42557
1.42874
1.43178
1.43464
1.43726
1.43959
1.44161
1.44334
1.44478
1.44596
1.4469
1.44763
1.44819
1.4486
1.44888
1.44905
1.4491
1.44903
1.44884
1.44852
1.44803
1.44734
1.44643
1.44525
1.44377
1.44198
1.43985
1.43739
1.43464
1.43165
1.4285
1.42527
1.42206
1.41895
1.41602
1.41334
1.41093
1.40881
1.407
1.40547
1.40421
1.4032
1.40239
1.40177
1.40129
1.40093
1.40067
1.40048
1.40035
1.40025
1.40019
1.40014
1.40011
1.40009
1.40007
1.40006
1.40005
1.40004
1.40003
1.40003
1.40034
1.40053
1.40079
1.40114
1.4016
1.40221
1.40298
1.40395
1.40514
1.40658
1.40827
1.41023
1.41244
1.41487
1.41749
1.42022
1.42302
1.42581
1.42852
1.43109
1.43348
1.43566
1.43759
1.43927
1.4407
1.4419
1.44288
1.44364
1.4442
1.44459
1.4448
1.44485
1.44471
1.44439
1.44388
1.44315
1.4422
1.441
1.43955
1.43782
1.43582
1.43356
1.43108
1.42842
1.42563
1.42279
1.41997
1.41724
1.41466
1.41228
1.41012
1.40822
1.40658
1.40518
1.40402
1.40307
1.40231
1.40172
1.40126
1.40091
1.40066
1.40047
1.40034
1.40024
1.40018
1.40014
1.4001
1.40008
1.40007
1.40006
1.40005
1.40004
1.40003
1.40003
1.40002
1.40024
1.40038
1.40057
1.40082
1.40116
1.40161
1.40218
1.4029
1.40379
1.40487
1.40616
1.40766
1.40938
1.4113
1.4134
1.41565
1.41799
1.42039
1.42279
1.42513
1.42736
1.42945
1.43137
1.4331
1.43461
1.4359
1.43697
1.43784
1.43848
1.43892
1.43915
1.43917
1.43899
1.4386
1.43798
1.43714
1.43607
1.43476
1.43322
1.43145
1.42948
1.42732
1.42502
1.42263
1.42019
1.41777
1.41542
1.41319
1.41111
1.40923
1.40755
1.40608
1.40482
1.40377
1.4029
1.4022
1.40164
1.40121
1.40088
1.40063
1.40045
1.40032
1.40023
1.40017
1.40013
1.4001
1.40008
1.40006
1.40005
1.40004
1.40004
1.40003
1.40003
1.40002
1.40002
1.40017
1.40027
1.4004
1.40059
1.40084
1.40116
1.40158
1.40211
1.40277
1.40357
1.40453
1.40567
1.40698
1.40846
1.4101
1.41188
1.41377
1.41574
1.41775
1.41975
1.4217
1.42358
1.42533
1.42694
1.42838
1.42963
1.43069
1.43154
1.4322
1.43264
1.43286
1.43287
1.43267
1.43225
1.43161
1.43076
1.42969
1.42842
1.42695
1.42531
1.42351
1.42159
1.41959
1.41756
1.41553
1.41355
1.41165
1.40988
1.40826
1.40681
1.40552
1.40441
1.40347
1.40269
1.40205
1.40154
1.40114
1.40083
1.4006
1.40043
1.4003
1.40022
1.40015
1.40011
1.40009
1.40007
1.40006
1.40005
1.40004
1.40003
1.40003
1.40003
1.40002
1.40002
1.40002
1.40012
1.40019
1.4003
1.40043
1.4006
1.40084
1.40114
1.40153
1.40201
1.4026
1.40331
1.40415
1.40513
1.40625
1.4075
1.40888
1.41036
1.41192
1.41353
1.41517
1.41679
1.41837
1.41988
1.42128
1.42255
1.42368
1.42464
1.42542
1.42602
1.42642
1.42663
1.42663
1.42643
1.42603
1.42543
1.42464
1.42366
1.42252
1.42121
1.41978
1.41824
1.41663
1.41497
1.41331
1.41168
1.41011
1.40864
1.40727
1.40603
1.40492
1.40396
1.40314
1.40245
1.40188
1.40142
1.40105
1.40077
1.40055
1.40039
1.40028
1.4002
1.40014
1.4001
1.40007
1.40006
1.40005
1.40004
1.40003
1.40003
1.40003
1.40002
1.40002
1.40002
1.40002
1.40001
1.40009
1.40014
1.40021
1.40031
1.40044
1.40061
1.40082
1.4011
1.40145
1.40188
1.4024
1.40302
1.40374
1.40457
1.40551
1.40655
1.40768
1.40888
1.41014
1.41143
1.41272
1.414
1.41523
1.41639
1.41745
1.4184
1.41923
1.4199
1.42041
1.42076
1.42093
1.42092
1.42075
1.42039
1.41987
1.41918
1.41833
1.41736
1.41627
1.41508
1.41382
1.41251
1.41119
1.40988
1.40861
1.4074
1.40627
1.40524
1.40431
1.40349
1.40278
1.40218
1.40168
1.40128
1.40095
1.4007
1.4005
1.40036
1.40025
1.40017
1.40012
1.40008
1.40006
1.40005
1.40004
1.40003
1.40003
1.40003
1.40002
1.40002
1.40002
1.40002
1.40002
1.40001
1.40001
1.40007
1.40011
1.40016
1.40022
1.40032
1.40044
1.4006
1.40079
1.40104
1.40136
1.40173
1.40218
1.4027
1.40331
1.40401
1.40477
1.40561
1.40652
1.40748
1.40847
1.40947
1.41047
1.41144
1.41236
1.41322
1.41398
1.41464
1.41519
1.41561
1.41589
1.41603
1.41602
1.41586
1.41556
1.41513
1.41456
1.41387
1.41307
1.41219
1.41124
1.41024
1.40922
1.4082
1.40719
1.40622
1.40531
1.40447
1.4037
1.40302
1.40242
1.40191
1.40148
1.40113
1.40084
1.40062
1.40044
1.40031
1.40022
1.40015
1.4001
1.40007
1.40005
1.40004
1.40003
1.40002
1.40002
1.40002
1.40002
1.40002
1.40002
1.40001
1.40001
1.40001
1.40001
1.40001
1.40005
1.40008
1.40012
1.40017
1.40024
1.40032
1.40043
1.40058
1.40076
1.40097
1.40124
1.40157
1.40195
1.40238
1.40288
1.40345
1.40407
1.40474
1.40545
1.40619
1.40694
1.4077
1.40844
1.40915
1.40981
1.41041
1.41093
1.41135
1.41168
1.4119
1.412
1.41199
1.41186
1.41162
1.41126
1.41081
1.41026
1.40963
1.40895
1.40821
1.40744
1.40666
1.40588
1.40513
1.40441
1.40373
1.40311
1.40255
1.40206
1.40164
1.40128
1.40097
1.40073
1.40054
1.40038
1.40027
1.40018
1.40012
1.40008
1.40005
1.40003
1.40002
1.40002
1.40002
1.40001
1.40001
1.40001
1.40001
1.40001
1.40001
1.40001
1.40001
1.40001
1.40001
1.40001
1.40004
1.40006
1.40009
1.40013
1.40018
1.40024
1.40032
1.40042
1.40055
1.40071
1.40089
1.40112
1.40139
1.40171
1.40207
1.40247
1.40292
1.40341
1.40392
1.40446
1.40502
1.40558
1.40614
1.40667
1.40716
1.40761
1.408
1.40833
1.40858
1.40874
1.40881
1.4088
1.40869
1.4085
1.40822
1.40786
1.40744
1.40696
1.40643
1.40587
1.4053
1.40471
1.40414
1.40358
1.40305
1.40256
1.40212
1.40172
1.40137
1.40107
1.40082
1.40062
1.40045
1.40032
1.40022
1.40015
1.40009
1.40006
1.40003
1.40002
1.40001
1.40001
1.40001
1.40001
1.40001
1.40001
1.40001
1.40001
1.40001
1.40001
1.40001
1.40001
1.40001
1.40001
1.40001
1.40004
1.40005
1.40007
1.4001
1.40014
1.40018
1.40024
1.40031
1.4004
1.40051
1.40065
1.40081
1.401
1.40122
1.40148
1.40176
1.40208
1.40243
1.4028
1.40319
1.40359
1.404
1.4044
1.40479
1.40515
1.40548
1.40577
1.40601
1.40619
1.4063
1.40635
1.40633
1.40625
1.4061
1.40589
1.40561
1.40529
1.40493
1.40454
1.40412
1.40369
1.40327
1.40285
1.40244
1.40206
1.40171
1.4014
1.40112
1.40088
1.40068
1.40051
1.40037
1.40026
1.40017
1.40011
1.40007
1.40004
1.40002
1.40001
1.4
1.4
1.4
1.4
1.4
1.4
1.40001
1.40001
1.40001
1.40001
1.40001
1.40001
1.40001
1.40001
1.40001
1.40001
1.40003
1.40004
1.40006
1.40008
1.4001
1.40014
1.40018
1.40023
1.4003
1.40038
1.40047
1.40059
1.40072
1.40087
1.40105
1.40125
1.40148
1.40172
1.40198
1.40226
1.40255
1.40284
1.40312
1.4034
1.40366
1.40389
1.4041
1.40427
1.40439
1.40447
1.4045
1.40449
1.40442
1.4043
1.40413
1.40393
1.40369
1.40343
1.40314
1.40283
1.40252
1.40221
1.40191
1.40163
1.40136
1.40111
1.40089
1.4007
1.40054
1.4004
1.40029
1.4002
1.40013
1.40008
1.40004
1.40002
1.4
1.39999
1.39999
1.39999
1.39999
1.39999
1.4
1.4
1.4
1.4
1.40001
1.40001
1.40001
1.40001
1.40001
1.40001
1.40001
1.40001
1.40001
1.40003
1.40003
1.40005
1.40006
1.40008
1.40011
1.40014
1.40018
1.40022
1.40028
1.40035
1.40043
1.40052
1.40063
1.40075
1.40089
1.40105
1.40122
1.4014
1.40159
1.40179
1.40199
1.40219
1.40238
1.40257
1.40273
1.40287
1.40299
1.40307
1.40313
1.40314
1.40312
1.40307
1.40298
1.40285
1.4027
1.40252
1.40233
1.40212
1.4019
1.40168
1.40146
1.40125
1.40105
1.40086
1.40069
1.40055
1.40042
1.40031
1.40022
1.40015
1.40009
1.40005
1.40002
1.4
1.39999
1.39998
1.39998
1.39998
1.39998
1.39999
1.39999
1.39999
1.4
1.4
1.4
1.4
1.40001
1.40001
1.40001
1.40001
1.40001
1.40001
1.40001
1.40001
1.40002
1.40003
1.40004
1.40005
1.40007
1.40009
1.40011
1.40014
1.40017
1.40021
1.40026
1.40031
1.40038
1.40046
1.40054
1.40064
1.40074
1.40086
1.40099
1.40112
1.40125
1.40139
1.40153
1.40166
1.40178
1.40189
1.40199
1.40207
1.40212
1.40215
1.40216
1.40214
1.40209
1.40202
1.40193
1.40182
1.40169
1.40155
1.4014
1.40124
1.40109
1.40093
1.40079
1.40065
1.40052
1.40041
1.40031
1.40023
1.40016
1.4001
1.40006
1.40002
1.4
1.39998
1.39998
1.39997
1.39997
1.39997
1.39998
1.39998
1.39999
1.39999
1.39999
1.4
1.4
1.4
1.4
1.4
1.40001
1.40001
1.40001
1.40001
1.40001
1.40001
1.40001
1.40003
1.40003
1.40003
1.40005
1.40006
1.40007
1.40008
1.40011
1.40013
1.40016
1.4002
1.40024
1.40028
1.40033
1.40039
1.40046
1.40053
1.40061
1.40069
1.40079
1.40088
1.40097
1.40106
1.40114
1.40123
1.4013
1.40136
1.40141
1.40144
1.40146
1.40146
1.40144
1.4014
1.40135
1.40128
1.4012
1.40111
1.40101
1.4009
1.40079
1.40068
1.40057
1.40047
1.40038
1.4003
1.40022
1.40016
1.4001
1.40006
1.40003
1.4
1.39998
1.39997
1.39997
1.39996
1.39997
1.39997
1.39997
1.39998
1.39998
1.39999
1.39999
1.39999
1.4
1.4
1.4
1.4
1.4
1.40001
1.40001
1.40001
1.40001
1.40001
1.40001
1.40001
1.40001
1.40003
1.40003
1.40003
1.40004
1.40006
1.40007
1.40009
1.40011
1.40013
1.40015
1.40018
1.40021
1.40025
1.40029
1.40033
1.40039
1.40044
1.40049
1.40055
1.40061
1.40068
1.40074
1.40079
1.40084
1.40089
1.40093
1.40096
1.40097
1.40098
1.40097
1.40096
1.40093
1.40088
1.40083
1.40077
1.4007
1.40063
1.40056
1.40048
1.40041
1.40033
1.40026
1.4002
1.40015
1.4001
1.40006
1.40003
1.4
1.39998
1.39997
1.39996
1.39996
1.39996
1.39996
1.39996
1.39997
1.39997
1.39998
1.39998
1.39999
1.39999
1.4
1.4
1.4
1.4
1.4
1.4
1.4
1.4
1.4
1.40001
1.40001
1.40001
1.40001
1.40002
1.40001
1.40002
1.40003
1.40004
1.40005
1.40006
1.40007
1.40008
1.4001
1.40012
1.40014
1.40016
1.40019
1.40022
1.40025
1.40028
1.40032
1.40036
1.4004
1.40043
1.40047
1.40051
1.40054
1.40058
1.40061
1.40062
1.40064
1.40065
1.40065
1.40064
1.40062
1.4006
1.40057
1.40053
1.40049
1.40043
1.40038
1.40033
1.40028
1.40023
1.40018
1.40013
1.40009
1.40006
1.40003
1.40001
1.39999
1.39997
1.39996
1.39996
1.39995
1.39995
1.39996
1.39996
1.39997
1.39997
1.39998
1.39998
1.39999
1.39999
1.39999
1.4
1.4
1.4
1.4
1.4
1.4
1.40001
1.40001
1.40001
1.40001
1.40001
1.40001
1.40001
1.40001
1.40002
1.40002
1.40002
1.40003
1.40004
1.40005
1.40006
1.40007
1.40008
1.4001
1.40011
1.40012
1.40014
1.40016
1.40019
1.40021
1.40023
1.40025
1.40028
1.40031
1.40033
1.40035
1.40037
1.40039
1.40041
1.40042
1.40043
1.40043
1.40042
1.40042
1.4004
1.40038
1.40035
1.40032
1.40029
1.40026
1.40022
1.40019
1.40015
1.40011
1.40008
1.40005
1.40003
1.40001
1.39999
1.39997
1.39996
1.39996
1.39995
1.39995
1.39995
1.39996
1.39996
1.39996
1.39997
1.39998
1.39998
1.39999
1.39999
1.39999
1.4
1.4
1.4
1.4
1.4
1.4
1.4
1.4
1.4
1.4
1.40001
1.40001
1.40001
1.40001
1.40001
1.40002
1.40002
1.40002
1.40003
1.40003
1.40004
1.40005
1.40006
1.40006
1.40007
1.40008
1.4001
1.40012
1.40012
1.40014
1.40016
1.40018
1.40019
1.4002
1.40022
1.40023
1.40025
1.40026
1.40027
1.40028
1.40028
1.40029
1.40028
1.40028
1.40027
1.40025
1.40024
1.40022
1.40019
1.40017
1.40014
1.40012
1.40009
1.40007
1.40005
1.40002
1.4
1.39999
1.39998
1.39997
1.39996
1.39995
1.39995
1.39995
1.39995
1.39996
1.39996
1.39997
1.39997
1.39998
1.39998
1.39998
1.39999
1.39999
1.39999
1.4
1.4
1.4
1.4
1.4
1.4
1.4
1.4
1.4
1.4
1.4
1.40001
1.4
1.40001
1.40001
1.40001
1.40002
1.40002
1.40002
1.40003
1.40003
1.40004
1.40004
1.40005
1.40006
1.40007
1.40007
1.40009
1.4001
1.40011
1.40012
1.40013
1.40014
1.40015
1.40016
1.40017
1.40018
1.40018
1.40019
1.40019
1.40019
1.40019
1.40018
1.40018
1.40017
1.40016
1.40014
1.40013
1.40011
1.4001
1.40008
1.40006
1.40004
1.40002
1.40001
1.39999
1.39998
1.39997
1.39996
1.39996
1.39996
1.39995
1.39995
1.39996
1.39996
1.39996
1.39997
1.39997
1.39997
1.39998
1.39998
1.39999
1.39999
1.39999
1.4
1.4
1.4
1.4
1.4
1.4
1.4
1.4
1.4
1.4
1.4
1.4
1.4
1.40001
1.4
1.40001
1.40001
1.40001
1.40002
1.40002
1.40002
1.40002
1.40003
1.40004
1.40004
1.40005
1.40006
1.40006
1.40007
1.40007
1.40008
1.40009
1.4001
1.4001
1.40011
1.40012
1.40013
1.40013
1.40013
1.40013
1.40013
1.40013
1.40013
1.40012
1.40011
1.40011
1.4001
1.40009
1.40007
1.40006
1.40005
1.40003
1.40002
1.40001
1.4
1.39999
1.39998
1.39997
1.39997
1.39996
1.39996
1.39996
1.39996
1.39996
1.39996
1.39996
1.39997
1.39997
1.39998
1.39998
1.39998
1.39999
1.39999
1.39999
1.4
1.4
1.4
1.4
1.4
1.4
1.4
1.4
1.4
1.4
1.40001
1.40001
1.40001
1.40001
1.4
1.40001
1.40001
1.40002
1.40001
1.40001
1.40002
1.40002
1.40002
1.40002
1.40003
1.40004
1.40004
1.40004
1.40005
1.40006
1.40006
1.40006
1.40007
1.40008
1.40008
1.40009
1.40009
1.40009
1.40009
1.4001
1.40009
1.40009
1.40009
1.40009
1.40008
1.40008
1.40007
1.40006
1.40005
1.40004
1.40003
1.40002
1.40001
1.4
1.39999
1.39999
1.39998
1.39997
1.39997
1.39996
1.39996
1.39996
1.39996
1.39996
1.39997
1.39997
1.39997
1.39997
1.39998
1.39998
1.39999
1.39999
1.39999
1.39999
1.4
1.4
1.4
1.4
1.4
1.4
1.4
1.4
1.4
1.4
1.4
1.4
1.4
1.4
1.40001
1.40001
1.40001
1.4
1.4
1.40001
1.40002
1.40001
1.40001
1.40002
1.40002
1.40002
1.40002
1.40003
1.40004
1.40004
1.40004
1.40005
1.40005
1.40006
1.40006
1.40006
1.40006
1.40007
1.40007
1.40007
1.40007
1.40007
1.40007
1.40006
1.40006
1.40005
1.40005
1.40004
1.40004
1.40003
1.40002
1.40001
1.40001
1.4
1.39999
1.39999
1.39998
1.39998
1.39997
1.39997
1.39997
1.39997
1.39997
1.39997
1.39997
1.39997
1.39998
1.39998
1.39998
1.39998
1.39999
1.39999
1.39999
1.39999
1.4
1.4
1.4
1.4
1.4
1.4
1.4
1.4
1.4
1.4
1.4
1.40001
1.40001
1.40001
1.4
1.4
1.4
1.4
1.40001
1.40001
1.4
1.40001
1.40002
1.40001
1.40001
1.40001
1.40002
1.40003
1.40003
1.40003
1.40003
1.40003
1.40004
1.40004
1.40004
1.40004
1.40005
1.40005
1.40005
1.40005
1.40005
1.40005
1.40005
1.40005
1.40005
1.40004
1.40004
1.40003
1.40003
1.40002
1.40002
1.40001
1.40001
1.4
1.4
1.39999
1.39999
1.39998
1.39998
1.39998
1.39998
1.39998
1.39997
1.39997
1.39998
1.39998
1.39998
1.39998
1.39998
1.39999
1.39999
1.39999
1.39999
1.39999
1.4
1.4
1.4
1.4
1.4
1.4
1.4
1.4
1.4
1.4
1.4
1.4
1.4
1.4
1.4
1.40001
1.40001
1.40001
1.4
1.4
1.40001
1.40001
1.40001
1.4
1.40001
1.40002
1.40001
1.40001
1.40001
1.40002
1.40002
1.40002
1.40002
1.40003
1.40003
1.40003
1.40003
1.40004
1.40004
1.40004
1.40004
1.40004
1.40004
1.40004