/*--------------------------------*- C++ -*----------------------------------*\
  =========                 |
  \\      /  F ield         | OpenFOAM: The Open Source CFD Toolbox
   \\    /   O peration     | Website:  https://openfoam.org
    \\  /    A nd           | Version:  6
     \\/     M anipulation  |
\*---------------------------------------------------------------------------*/
FoamFile
{
    version     2.0;
    format      ascii;
    class       volScalarField;
    location    "3.57";
    object      rho;
}
// * * * * * * * * * * * * * * * * * * * * * * * * * * * * * * * * * * * * * //

dimensions      [1 -3 0 0 0 0 0];

internalField   nonuniform List<scalar> 
10000
(
1.40001
1.40001
1.40001
1.40001
1.40001
1.40001
1.40001
1.40001
1.40001
1.40001
1.40001
1.40001
1.4
1.40001
1.4
1.40001
1.4
1.40001
1.4
1.40001
1.4
1.40001
1.4
1.40001
1.4
1.40001
1.40001
1.4
1.40001
1.40001
1.40001
1.40001
1.40001
1.4
1.4
1.40001
1.40001
1.40001
1.40001
1.40001
1.40001
1.40001
1.40001
1.40001
1.40001
1.40001
1.40001
1.4
1.4
1.39999
1.39998
1.39997
1.39996
1.39995
1.39994
1.39994
1.39993
1.39993
1.39994
1.39995
1.39997
1.4
1.40004
1.40007
1.40011
1.40014
1.40017
1.4002
1.40022
1.40022
1.40022
1.40021
1.40018
1.40016
1.40013
1.4001
1.40007
1.40004
1.40002
1.40001
1.4
1.39999
1.39999
1.39999
1.39999
1.39999
1.39999
1.4
1.4
1.4
1.4
1.4
1.4
1.4
1.4
1.4
1.4
1.4
1.40001
1.40001
1.40001
1.40001
1.40001
1.40001
1.40001
1.40001
1.40001
1.40001
1.40001
1.40001
1.4
1.40001
1.4
1.40001
1.4
1.40001
1.4
1.40001
1.4
1.40001
1.4
1.40001
1.4
1.40001
1.4
1.40001
1.40001
1.4
1.40001
1.4
1.4
1.40001
1.40001
1.4
1.40001
1.40001
1.40001
1.40001
1.40001
1.40001
1.40001
1.40001
1.40001
1.40001
1.40001
1.40001
1.40001
1.4
1.4
1.39999
1.39998
1.39997
1.39995
1.39994
1.39993
1.39992
1.39992
1.39993
1.39994
1.39996
1.39999
1.40003
1.40008
1.40013
1.40019
1.40024
1.40029
1.40033
1.40036
1.40038
1.40038
1.40037
1.40034
1.40031
1.40026
1.40021
1.40016
1.40012
1.40008
1.40004
1.40002
1.4
1.39999
1.39998
1.39998
1.39999
1.39999
1.39999
1.4
1.4
1.4
1.4
1.4
1.4
1.4
1.4
1.4
1.4
1.4
1.40001
1.40001
1.40001
1.40001
1.40001
1.40001
1.40001
1.40001
1.40001
1.4
1.40001
1.4
1.40001
1.4
1.40001
1.4
1.40001
1.4
1.40001
1.4
1.40001
1.4
1.40001
1.4
1.40001
1.4
1.40001
1.40001
1.4
1.40001
1.4
1.4
1.40001
1.40001
1.4
1.40001
1.40001
1.40001
1.40001
1.40001
1.40001
1.40001
1.40001
1.40001
1.40001
1.40001
1.40001
1.40001
1.4
1.4
1.39999
1.39998
1.39996
1.39995
1.39993
1.39992
1.39992
1.39992
1.39994
1.39997
1.4
1.40006
1.40012
1.40019
1.40027
1.40035
1.40043
1.40051
1.40058
1.40063
1.40066
1.40067
1.40066
1.40063
1.40057
1.40051
1.40043
1.40035
1.40027
1.40019
1.40012
1.40007
1.40003
1.4
1.39999
1.39998
1.39998
1.39998
1.39998
1.39999
1.39999
1.4
1.4
1.4
1.4
1.4
1.4
1.4
1.4
1.4
1.40001
1.40001
1.40001
1.40001
1.40001
1.40001
1.40001
1.40001
1.40001
1.4
1.40001
1.4
1.40001
1.4
1.40001
1.40001
1.40001
1.4
1.40001
1.4
1.40001
1.4
1.40001
1.4
1.40001
1.4
1.40001
1.4
1.4
1.40001
1.4
1.40001
1.40001
1.40001
1.40001
1.40001
1.40001
1.40001
1.40001
1.40001
1.40001
1.40001
1.40001
1.40001
1.40001
1.40002
1.40002
1.40001
1.40001
1.4
1.39999
1.39997
1.39996
1.39994
1.39993
1.39993
1.39994
1.39996
1.39999
1.40005
1.40012
1.40021
1.40032
1.40043
1.40056
1.40068
1.40081
1.40093
1.40103
1.40111
1.40116
1.40118
1.40117
1.40112
1.40104
1.40094
1.40082
1.40068
1.40055
1.40042
1.4003
1.40019
1.40011
1.40005
1.40001
1.39998
1.39997
1.39997
1.39998
1.39998
1.39999
1.39999
1.4
1.4
1.4
1.4
1.4
1.4
1.4
1.4
1.4
1.40001
1.40001
1.40001
1.40001
1.40001
1.40001
1.4
1.40001
1.4
1.40001
1.4
1.40001
1.40001
1.4
1.40001
1.4
1.40001
1.4
1.40001
1.4
1.40001
1.4
1.40001
1.4
1.4
1.40001
1.4
1.40001
1.4
1.40001
1.4
1.4
1.40001
1.40001
1.40001
1.40001
1.40001
1.40001
1.40001
1.40001
1.40001
1.40002
1.40002
1.40002
1.40002
1.40002
1.40002
1.40001
1.4
1.39999
1.39997
1.39996
1.39995
1.39995
1.39996
1.39999
1.40005
1.40013
1.40023
1.40037
1.40053
1.40071
1.4009
1.40111
1.40132
1.40152
1.4017
1.40186
1.40199
1.40207
1.4021
1.40207
1.402
1.40188
1.40171
1.40151
1.40129
1.40106
1.40084
1.40063
1.40044
1.40028
1.40016
1.40007
1.40002
1.39998
1.39997
1.39997
1.39997
1.39998
1.39999
1.39999
1.4
1.4
1.4
1.4
1.4
1.4
1.4
1.4
1.4
1.40001
1.40001
1.40001
1.40001
1.40001
1.4
1.40001
1.4
1.40001
1.4
1.40001
1.40001
1.4
1.40001
1.4
1.40001
1.4
1.40001
1.4
1.40001
1.4
1.40001
1.4
1.40001
1.4
1.40001
1.4
1.40001
1.40001
1.4
1.40001
1.40001
1.4
1.40001
1.40001
1.40001
1.40001
1.40001
1.40001
1.40002
1.40002
1.40003
1.40003
1.40003
1.40003
1.40003
1.40002
1.40001
1.4
1.39999
1.39998
1.39998
1.4
1.40005
1.40012
1.40024
1.40039
1.40059
1.40083
1.40111
1.40142
1.40176
1.40211
1.40246
1.40279
1.4031
1.40336
1.40357
1.4037
1.40374
1.4037
1.40357
1.40336
1.40308
1.40274
1.40237
1.40198
1.40159
1.40123
1.4009
1.40062
1.40039
1.40022
1.4001
1.40002
1.39998
1.39996
1.39996
1.39997
1.39998
1.39999
1.39999
1.4
1.4
1.4
1.4
1.4
1.4
1.4
1.4
1.40001
1.40001
1.40001
1.40001
1.40001
1.4
1.40001
1.4
1.40001
1.4
1.40001
1.40001
1.40001
1.40001
1.40001
1.40001
1.4
1.40001
1.4
1.40001
1.4
1.40001
1.40001
1.4
1.40001
1.40001
1.4
1.40001
1.4
1.4
1.40001
1.4
1.40001
1.40001
1.40001
1.40001
1.40001
1.40001
1.40002
1.40003
1.40003
1.40004
1.40004
1.40005
1.40005
1.40004
1.40004
1.40003
1.40002
1.40002
1.40003
1.40006
1.40012
1.40022
1.40037
1.40059
1.40087
1.40121
1.40163
1.40211
1.40263
1.4032
1.40379
1.40438
1.40494
1.40546
1.40591
1.40626
1.40649
1.40658
1.40653
1.40632
1.40595
1.40546
1.40489
1.40426
1.40359
1.40292
1.4023
1.40173
1.40123
1.40082
1.4005
1.40027
1.40012
1.40002
1.39998
1.39996
1.39996
1.39997
1.39998
1.39999
1.39999
1.4
1.4
1.4
1.4
1.4
1.4
1.4
1.40001
1.40001
1.40001
1.40001
1.40001
1.40001
1.40001
1.40001
1.40001
1.40001
1.40001
1.4
1.40001
1.4
1.40001
1.4
1.40001
1.40001
1.4
1.40001
1.4
1.40001
1.40001
1.4
1.40001
1.4
1.40001
1.40001
1.4
1.40001
1.4
1.4
1.40001
1.40001
1.40001
1.40001
1.40002
1.40002
1.40003
1.40004
1.40005
1.40005
1.40006
1.40007
1.40007
1.40007
1.40006
1.40006
1.40006
1.40008
1.40012
1.4002
1.40033
1.40053
1.40081
1.40118
1.40165
1.40223
1.40292
1.4037
1.40456
1.40548
1.40644
1.4074
1.40833
1.4092
1.40996
1.41057
1.41099
1.41121
1.41118
1.41088
1.41032
1.40955
1.40861
1.40753
1.40637
1.40523
1.40415
1.40317
1.40231
1.4016
1.40103
1.4006
1.40031
1.40012
1.40002
1.39997
1.39995
1.39996
1.39997
1.39998
1.39999
1.39999
1.4
1.4
1.4
1.4
1.4
1.4
1.40001
1.40001
1.40001
1.40001
1.40001
1.4
1.40001
1.4
1.40001
1.40001
1.40001
1.40001
1.40001
1.4
1.40001
1.4
1.40001
1.4
1.40001
1.4
1.40001
1.4
1.4
1.40001
1.4
1.4
1.40001
1.4
1.40001
1.40001
1.4
1.40001
1.40001
1.40001
1.40001
1.40002
1.40003
1.40003
1.40004
1.40006
1.40007
1.40008
1.40009
1.40009
1.4001
1.4001
1.4001
1.40011
1.40013
1.40019
1.40029
1.40045
1.4007
1.40105
1.40152
1.40213
1.4029
1.40381
1.40488
1.4061
1.40744
1.40887
1.41036
1.41186
1.41333
1.41473
1.41596
1.41697
1.41776
1.41822
1.4183
1.41798
1.41726
1.41617
1.41472
1.41298
1.41109
1.40918
1.40733
1.40564
1.40417
1.40294
1.40195
1.40121
1.40067
1.40032
1.40011
1.4
1.39996
1.39995
1.39996
1.39997
1.39998
1.39999
1.4
1.4
1.4
1.4
1.4
1.4
1.4
1.40001
1.40001
1.40001
1.40001
1.4
1.40001
1.4
1.40001
1.40001
1.4
1.40001
1.4
1.40001
1.4
1.4
1.40001
1.4
1.40001
1.4
1.40001
1.4
1.40001
1.40001
1.4
1.40001
1.4
1.40001
1.40001
1.4
1.40001
1.40001
1.40001
1.40002
1.40002
1.40003
1.40004
1.40005
1.40006
1.40008
1.40009
1.40011
1.40012
1.40013
1.40014
1.40015
1.40016
1.4002
1.40026
1.40038
1.40058
1.40087
1.40129
1.40187
1.40263
1.40358
1.40475
1.40614
1.40774
1.40954
1.41151
1.41362
1.41581
1.41801
1.42019
1.42226
1.4241
1.42571
1.427
1.42784
1.42821
1.42805
1.42733
1.42598
1.42402
1.42154
1.41871
1.41568
1.41265
1.40982
1.40731
1.40522
1.40354
1.40225
1.40132
1.40069
1.4003
1.40008
1.39998
1.39994
1.39994
1.39996
1.39997
1.39999
1.39999
1.4
1.4
1.4
1.4
1.4
1.4
1.40001
1.40001
1.40001
1.40001
1.4
1.40001
1.4
1.40001
1.40001
1.4
1.40001
1.4
1.40001
1.4
1.40001
1.40001
1.4
1.40001
1.4
1.40001
1.4
1.40001
1.4
1.4
1.40001
1.4
1.40001
1.4
1.4
1.40002
1.40001
1.40002
1.40002
1.40003
1.40004
1.40006
1.40008
1.40009
1.40011
1.40013
1.40015
1.40017
1.40018
1.4002
1.40022
1.40026
1.40034
1.40048
1.4007
1.40105
1.40153
1.40221
1.40311
1.40426
1.40568
1.4074
1.4094
1.41167
1.41421
1.41695
1.41986
1.42286
1.42588
1.42886
1.43166
1.4342
1.43646
1.43826
1.43956
1.44036
1.44056
1.44009
1.43882
1.43669
1.43373
1.43
1.42569
1.42111
1.41663
1.41254
1.40902
1.40618
1.40401
1.40243
1.40134
1.40065
1.40024
1.40003
1.39995
1.39993
1.39995
1.39996
1.39998
1.39999
1.4
1.4
1.4
1.4
1.4
1.4
1.40001
1.4
1.40001
1.40001
1.40001
1.40001
1.4
1.40001
1.4
1.40001
1.4
1.40001
1.40001
1.4
1.40001
1.4
1.40001
1.40001
1.4
1.4
1.40001
1.40001
1.39999
1.40002
1.4
1.40001
1.4
1.40001
1.40001
1.40001
1.40002
1.40002
1.40003
1.40005
1.40006
1.40009
1.40011
1.40013
1.40016
1.40018
1.4002
1.40022
1.40025
1.40028
1.40033
1.40043
1.40058
1.40084
1.40122
1.40177
1.40254
1.40358
1.40491
1.40659
1.40862
1.41101
1.41376
1.41684
1.42019
1.42377
1.42751
1.43131
1.4351
1.43878
1.44219
1.44529
1.44797
1.45008
1.45172
1.45283
1.4534
1.45341
1.45274
1.45122
1.44859
1.44466
1.4395
1.43346
1.42705
1.4208
1.4152
1.41054
1.40691
1.40426
1.40242
1.40124
1.40054
1.40016
1.39998
1.39993
1.39993
1.39995
1.39997
1.39998
1.39999
1.4
1.4
1.4
1.4
1.4
1.40001
1.4
1.40001
1.4
1.40001
1.4
1.40001
1.40001
1.4
1.40001
1.4
1.40001
1.4
1.40001
1.4
1.4
1.40001
1.4
1.4
1.4
1.40002
1.39999
1.40002
1.40001
1.4
1.40001
1.4
1.40002
1.40002
1.4
1.40005
1.40002
1.40006
1.40006
1.4001
1.40012
1.40015
1.40018
1.40021
1.40024
1.40027
1.4003
1.40034
1.40041
1.40051
1.40069
1.40097
1.40139
1.40201
1.40286
1.40402
1.40553
1.40744
1.40977
1.41254
1.41574
1.41931
1.42324
1.42739
1.43175
1.43614
1.44054
1.44478
1.44881
1.45241
1.45559
1.45809
1.45997
1.46137
1.4622
1.46275
1.46318
1.46344
1.46337
1.46239
1.45994
1.45557
1.44923
1.44139
1.43288
1.42466
1.41745
1.41163
1.40727
1.40422
1.40224
1.40104
1.40038
1.40006
1.39994
1.39992
1.39993
1.39996
1.39998
1.39999
1.4
1.4
1.4
1.4
1.4
1.4
1.4
1.40001
1.4
1.40001
1.4
1.40001
1.4
1.40001
1.4
1.40001
1.40001
1.4
1.40001
1.4
1.40001
1.40001
1.4
1.40001
1.40001
1.4
1.39999
1.40004
1.39998
1.40001
1.4
1.40003
1.4
1.40003
1.4
1.40006
1.40004
1.40008
1.4001
1.40013
1.40017
1.40021
1.40025
1.40028
1.40032
1.40036
1.40041
1.40048
1.4006
1.4008
1.4011
1.40156
1.40223
1.40317
1.40444
1.40611
1.40823
1.41084
1.41395
1.41756
1.4216
1.42601
1.43066
1.43546
1.44025
1.44494
1.44943
1.45356
1.45725
1.46029
1.46268
1.46408
1.46487
1.46492
1.46447
1.46419
1.46425
1.46505
1.46667
1.46857
1.46983
1.46905
1.4652
1.4581
1.44853
1.43791
1.42769
1.4189
1.41205
1.40714
1.40389
1.40189
1.40077
1.40021
1.39998
1.39991
1.39991
1.39994
1.39997
1.39998
1.39999
1.4
1.4
1.4
1.40001
1.4
1.40001
1.4
1.40001
1.4
1.40001
1.4
1.4
1.40001
1.4
1.40001
1.4
1.4
1.40001
1.4
1.40001
1.4
1.4
1.40001
1.40001
1.39998
1.40003
1.40001
1.39998
1.40002
1.40001
1.40003
1.40001
1.40002
1.40006
1.40002
1.40012
1.40008
1.40017
1.40018
1.40024
1.40028
1.40033
1.40037
1.40042
1.40048
1.40056
1.40069
1.4009
1.40124
1.40173
1.40246
1.40347
1.40485
1.40666
1.40897
1.41182
1.41526
1.41922
1.42367
1.42849
1.43354
1.43862
1.44364
1.44833
1.45273
1.45649
1.4598
1.4622
1.46382
1.46426
1.46359
1.46208
1.45955
1.4569
1.45457
1.4529
1.45302
1.45535
1.46008
1.46631
1.47193
1.47459
1.47241
1.46515
1.4541
1.44144
1.42934
1.41924
1.41168
1.40652
1.40329
1.40143
1.40048
1.40006
1.39992
1.3999
1.39992
1.39995
1.39998
1.39999
1.4
1.4
1.4
1.4
1.4
1.40001
1.4
1.40001
1.4
1.40001
1.4
1.40001
1.4
1.40001
1.4
1.40001
1.40001
1.40001
1.4
1.40001
1.4
1.40001
1.40002
1.39999
1.4
1.40005
1.39996
1.40003
1.4
1.40004
1.39998
1.40005
1.40001
1.4001
1.40004
1.40016
1.40015
1.40021
1.40027
1.4003
1.40038
1.40041
1.40048
1.40055
1.40064
1.40079
1.40101
1.40137
1.4019
1.40268
1.40377
1.40524
1.40717
1.40966
1.41275
1.41644
1.42074
1.42555
1.43071
1.43604
1.44133
1.44635
1.45091
1.45484
1.45806
1.4604
1.46193
1.46222
1.46154
1.4591
1.4556
1.4506
1.44485
1.43929
1.43391
1.42974
1.42779
1.42877
1.43415
1.4439
1.45659
1.46883
1.47653
1.47697
1.46982
1.45731
1.44281
1.42926
1.41834
1.41053
1.40548
1.40251
1.40094
1.40022
1.39995
1.39989
1.39991
1.39994
1.39997
1.39999
1.4
1.4
1.4
1.4
1.40001
1.4
1.40001
1.4
1.40001
1.40001
1.4
1.40001
1.4
1.4
1.40001
1.4
1.40001
1.4
1.40001
1.4
1.4
1.40001
1.40001
1.39997
1.40005
1.39998
1.39999
1.40004
1.4
1.40002
1.4
1.40006
1.40007
1.40006
1.40017
1.40012
1.40028
1.40023
1.40038
1.40038
1.40048
1.40053
1.40062
1.40072
1.40087
1.40112
1.4015
1.40207
1.40289
1.40405
1.40561
1.40767
1.41032
1.41359
1.41754
1.42213
1.42723
1.4327
1.43824
1.44363
1.44854
1.45283
1.45613
1.45859
1.45977
1.46017
1.45908
1.45697
1.45311
1.44771
1.44076
1.43211
1.42314
1.41417
1.40595
1.39979
1.39529
1.39356
1.39642
1.40557
1.42192
1.44276
1.46288
1.47626
1.47905
1.47168
1.45774
1.44177
1.42735
1.41627
1.40875
1.40419
1.4017
1.4005
1.40002
1.39989
1.39989
1.39992
1.39996
1.39998
1.39999
1.4
1.4
1.4
1.40001
1.4
1.40001
1.4
1.40001
1.4
1.40001
1.4
1.40001
1.4
1.40001
1.4
1.40001
1.39999
1.40002
1.39999
1.40001
1.40002
1.39998
1.4
1.40005
1.39994
1.40005
1.4
1.40004
1.39998
1.40009
1.40002
1.40013
1.40006
1.40026
1.40016
1.40035
1.40036
1.40042
1.40053
1.40057
1.40069
1.40079
1.40096
1.40122
1.40162
1.40223
1.4031
1.40432
1.40598
1.40815
1.41093
1.4144
1.41856
1.42339
1.42879
1.43448
1.4402
1.44562
1.45039
1.45423
1.45695
1.45842
1.45864
1.45753
1.45535
1.45167
1.44688
1.43989
1.43171
1.42138
1.41018
1.39836
1.38659
1.37671
1.36926
1.36353
1.36015
1.35916
1.36379
1.37734
1.40057
1.42998
1.45748
1.4752
1.4792
1.47083
1.45528
1.43833
1.42385
1.41335
1.40666
1.40287
1.40098
1.40017
1.3999
1.39987
1.3999
1.39994
1.39997
1.39999
1.4
1.4
1.40001
1.4
1.40001
1.4
1.40001
1.40001
1.4
1.40001
1.4
1.40001
1.4
1.40001
1.40001
1.4
1.40001
1.40001
1.39999
1.40002
1.40002
1.39995
1.40008
1.39995
1.40001
1.40003
1.4
1.40002
1.40002
1.40011
1.40005
1.40014
1.40018
1.40021
1.40034
1.40033
1.40056
1.40048
1.4007
1.4007
1.40087
1.40103
1.40132
1.40173
1.40237
1.40329
1.40457
1.40631
1.40859
1.41151
1.41514
1.4195
1.42457
1.43017
1.43608
1.44197
1.44737
1.45195
1.45536
1.45747
1.45797
1.45722
1.45481
1.45153
1.44658
1.4409
1.4332
1.4242
1.41312
1.40081
1.38795
1.37483
1.36231
1.35189
1.34362
1.33869
1.33572
1.33315
1.33294
1.33883
1.35641
1.38635
1.42265
1.45537
1.47493
1.4777
1.46708
1.45005
1.43292
1.41928
1.41005
1.40458
1.40172
1.40043
1.39996
1.39986
1.39988
1.39993
1.39997
1.39998
1.4
1.4
1.4
1.4
1.40001
1.4
1.40001
1.4
1.40001
1.4
1.40001
1.4
1.40001
1.4
1.40001
1.39999
1.40003
1.39998
1.40001
1.40003
1.39997
1.40001
1.40005
1.39993
1.40008
1.39998
1.40004
1.39999
1.4001
1.40003
1.40015
1.40014
1.40031
1.40021
1.4005
1.40041
1.40062
1.4007
1.40075
1.40095
1.40108
1.40139
1.40183
1.40249
1.40344
1.40478
1.4066
1.40899
1.41203
1.41582
1.42037
1.42562
1.43144
1.43754
1.44351
1.44892
1.45333
1.45631
1.45778
1.45754
1.45573
1.4524
1.44783
1.44223
1.43553
1.42779
1.41827
1.40748
1.39462
1.38145
1.36795
1.35572
1.34474
1.33519
1.32737
1.32347
1.32168
1.32097
1.3189
1.31805
1.32563
1.34704
1.38264
1.42393
1.45783
1.47498
1.47402
1.46056
1.44262
1.42631
1.41435
1.40686
1.40278
1.40085
1.40008
1.39987
1.39986
1.39991
1.39995
1.39998
1.39999
1.4
1.4
1.40001
1.4
1.40001
1.4
1.4
1.40001
1.4
1.40001
1.4
1.40001
1.4
1.40001
1.4
1.40001
1.39998
1.40004
1.39999
1.39995
1.4001
1.39992
1.40004
1.40002
1.40002
1.40002
1.40005
1.4001
1.40005
1.40022
1.40016
1.40035
1.40036
1.40055
1.40063
1.40062
1.40092
1.40089
1.40122
1.40143
1.40191
1.40257
1.40356
1.40495
1.40683
1.40931
1.41248
1.4164
1.42111
1.42656
1.43257
1.43882
1.44489
1.45029
1.45451
1.45719
1.45803
1.45713
1.45442
1.45036
1.44475
1.43849
1.43105
1.42337
1.41387
1.40363
1.39106
1.37823
1.36453
1.35244
1.34206
1.33431
1.32731
1.32174
1.31778
1.31668
1.31774
1.31678
1.31422
1.31354
1.32342
1.35033
1.39059
1.43259
1.46299
1.47415
1.46775
1.45161
1.43385
1.41941
1.40973
1.40418
1.40143
1.40028
1.39991
1.39986
1.3999
1.39994
1.39998
1.39999
1.4
1.4
1.40001
1.4
1.40001
1.4
1.40001
1.4
1.40001
1.4
1.40001
1.4
1.40001
1.4
1.40001
1.39999
1.40002
1.40003
1.39995
1.40005
1.40003
1.39993
1.40009
1.39996
1.40008
1.4
1.40008
1.40007
1.40015
1.40026
1.40027
1.40034
1.4006
1.40052
1.40084
1.40079
1.40101
1.40124
1.40145
1.40197
1.40261
1.40362
1.40503
1.40698
1.40953
1.4128
1.41685
1.42171
1.42733
1.43351
1.43992
1.44608
1.45145
1.45553
1.45796
1.45831
1.45682
1.45338
1.44861
1.44243
1.43541
1.42761
1.41959
1.41077
1.40093
1.38937
1.37669
1.36385
1.35169
1.34187
1.33422
1.32957
1.32573
1.32272
1.31898
1.31755
1.31739
1.31809
1.31672
1.31307
1.31517
1.33118
1.36394
1.40683
1.44565
1.46802
1.47055
1.45863
1.44108
1.42485
1.41308
1.40592
1.40219
1.40056
1.39998
1.39986
1.39988
1.39993
1.39997
1.39999
1.39999
1.40001
1.4
1.40001
1.4
1.40001
1.4
1.4
1.40001
1.4
1.40002
1.39999
1.40002
1.39999
1.40002
1.39998
1.40004
1.39998
1.39998
1.40009
1.39993
1.40005
1.39999
1.40004
1.4
1.40005
1.40005
1.40015
1.40022
1.40018
1.40048
1.40034
1.40078
1.40059
1.40089
1.40106
1.40114
1.40159
1.40189
1.40262
1.40361
1.40504
1.407
1.4096
1.41295
1.41711
1.4221
1.42786
1.43422
1.44079
1.44703
1.45243
1.4564
1.45855
1.45864
1.45659
1.45266
1.44722
1.44068
1.43309
1.42504
1.41658
1.40832
1.39908
1.389
1.37656
1.36441
1.35202
1.34313
1.33563
1.33157
1.32832
1.32658
1.32407
1.32116
1.31841
1.31687
1.31775
1.31658
1.31354
1.31264
1.32119
1.3462
1.38548
1.42741
1.45805
1.46942
1.46315
1.44733
1.43023
1.41671
1.40795
1.40316
1.40093
1.40009
1.39987
1.39987
1.39992
1.39996
1.39999
1.4
1.4
1.4
1.40001
1.4
1.40001
1.4
1.40002
1.39999
1.40002
1.39999
1.40001
1.4
1.40001
1.4
1.4
1.40004
1.39993
1.40006
1.40002
1.39993
1.40006
1.40001
1.4001
1.39995
1.40006
1.40012
1.40013
1.40034
1.40016
1.40057
1.40053
1.40063
1.40093
1.40089
1.40129
1.40145
1.40186
1.40259
1.40349
1.40493
1.40687
1.40952
1.41288
1.41711
1.4222
1.4281
1.43461
1.44134
1.44775
1.45317
1.45708
1.45906
1.45893
1.45653
1.45224
1.44617
1.43937
1.43153
1.42324
1.41441
1.40617
1.39779
1.38906
1.3779
1.36591
1.3535
1.34403
1.33741
1.33325
1.33064
1.32778
1.32529
1.32121
1.31746
1.31368
1.31347
1.31435
1.31362
1.31124
1.30868
1.31351
1.33321
1.36833
1.41072
1.44675
1.46553
1.46527
1.45224
1.43519
1.42036
1.41015
1.40428
1.4014
1.40025
1.3999
1.39987
1.39991
1.39995
1.39998
1.4
1.4
1.40001
1.4
1.40001
1.4
1.40001
1.4
1.4
1.40001
1.39999
1.40002
1.39999
1.40003
1.39998
1.40005
1.39996
1.39998
1.40013
1.39989
1.39998
1.40005
1.40007
1.39994
1.40005
1.40009
1.40024
1.40009
1.40026
1.40046
1.40035
1.40092
1.4005
1.40117
1.40107
1.40146
1.40185
1.40237
1.40337
1.4047
1.40661
1.40919
1.41255
1.41681
1.42195
1.42795
1.4346
1.44151
1.44809
1.45365
1.4576
1.45949
1.45914
1.45664
1.45208
1.44568
1.43833
1.43041
1.42212
1.41326
1.40452
1.3965
1.38887
1.38004
1.36864
1.35642
1.34507
1.3386
1.33424
1.33234
1.32816
1.32342
1.31642
1.3093
1.30243
1.29912
1.30142
1.30592
1.31022
1.30955
1.30535
1.3064
1.32133
1.35316
1.39552
1.43515
1.45991
1.46537
1.45574
1.43946
1.42382
1.41238
1.40547
1.40195
1.40045
1.39995
1.39986
1.3999
1.39994
1.39997
1.39999
1.4
1.4
1.4
1.40001
1.4
1.40001
1.39999
1.40002
1.39999
1.40002
1.4
1.40001
1.4
1.40001
1.40003
1.39991
1.40016
1.39995
1.39986
1.40017
1.40008
1.39993
1.39989
1.40012
1.40019
1.40004
1.40032
1.40011
1.40066
1.40034
1.40083
1.40095
1.40103
1.40145
1.40158
1.4023
1.40314
1.40434
1.40617
1.40863
1.41195
1.41611
1.42129
1.42733
1.43408
1.44116
1.44799
1.45378
1.45787
1.45983
1.45947
1.4568
1.45213
1.44573
1.43783
1.42968
1.42129
1.41278
1.4037
1.39555
1.38834
1.38149
1.372
1.36065
1.34812
1.3396
1.33451
1.33248
1.32891
1.32137
1.30967
1.2949
1.28096
1.26977
1.26679
1.27224
1.28616
1.30159
1.30841
1.30619
1.30358
1.31263
1.33995
1.38106
1.42331
1.45323
1.46398
1.4579
1.44294
1.42699
1.41456
1.4067
1.40253
1.40068
1.40002
1.39987
1.39989
1.39993
1.39997
1.39999
1.4
1.4
1.40001
1.4
1.40001
1.4
1.40001
1.4
1.4
1.40001
1.39999
1.40002
1.39999
1.40003
1.39994
1.40008
1.40006
1.39975
1.40017
1.40017
1.39984
1.39992
1.40015
1.40017
1.40012
1.39993
1.40033
1.40035
1.4004
1.40088
1.40043
1.40131
1.40099
1.40171
1.40197
1.40279
1.40394
1.40558
1.40788
1.411
1.41508
1.42015
1.42614
1.43297
1.44021
1.4473
1.45346
1.45788
1.46006
1.4598
1.45722
1.45243
1.44607
1.4381
1.42939
1.42075
1.41263
1.4037
1.39501
1.38765
1.38209
1.37521
1.36523
1.35283
1.34192
1.33562
1.33202
1.32885
1.32005
1.30478
1.28141
1.25502
1.22941
1.2118
1.20684
1.21788
1.24517
1.27678
1.29956
1.3074
1.3059
1.30981
1.33079
1.36869
1.41203
1.44597
1.46141
1.45888
1.44559
1.42973
1.4166
1.40792
1.40314
1.40093
1.4001
1.39989
1.39988
1.39993
1.39997
1.39999
1.39999
1.40001
1.4
1.40001
1.40001
1.4
1.40001
1.4
1.40001
1.4
1.40001
1.4
1.40001
1.4
1.4
1.40012
1.39977
1.40012
1.40025
1.39975
1.39988
1.40014
1.40022
1.40003
1.39991
1.40029
1.40015
1.40064
1.40029
1.40089
1.40076
1.40103
1.40145
1.40166
1.4026
1.40341
1.40485
1.40696
1.40984
1.41366
1.41849
1.42439
1.43116
1.43852
1.44592
1.45252
1.45748
1.46012
1.4602
1.45779
1.45321
1.44668
1.43898
1.42996
1.42067
1.41234
1.40423
1.39533
1.38725
1.38161
1.37719
1.36985
1.35865
1.34597
1.33758
1.33268
1.32903
1.31992
1.30209
1.27297
1.23426
1.19098
1.15079
1.12404
1.11708
1.13646
1.17835
1.22995
1.27518
1.30057
1.30734
1.31068
1.32675
1.36037
1.40267
1.4388
1.45803
1.45885
1.44739
1.43191
1.41836
1.40906
1.40375
1.4012
1.4002
1.39991
1.39988
1.39993
1.39996
1.39998
1.4
1.4
1.4
1.40001
1.4
1.40001
1.4
1.40001
1.4
1.40001
1.40001
1.4
1.4
1.4
1.40006
1.3999
1.4
1.40028
1.39975
1.39984
1.40028
1.4001
1.39999
1.39986
1.40003
1.40042
1.40027
1.40037
1.40064
1.40037
1.40125
1.4009
1.40179
1.40195
1.40294
1.40413
1.40594
1.40845
1.41195
1.41644
1.42201
1.42861
1.43602
1.44367
1.45083
1.4565
1.45988
1.46056
1.45861
1.45427
1.44801
1.44014
1.43143
1.4216
1.41226
1.40456
1.39624
1.38767
1.38093
1.37751
1.37325
1.36462
1.3518
1.34078
1.33464
1.33056
1.32178
1.30191
1.26937
1.22302
1.16568
1.10232
1.04616
1.00991
1.00482
1.03495
1.09357
1.168
1.23718
1.2827
1.30265
1.31094
1.32564
1.35569
1.39591
1.43277
1.45454
1.45808
1.44839
1.43353
1.41981
1.41005
1.40431
1.40146
1.4003
1.39994
1.39989
1.39992
1.39996
1.39998
1.4
1.4
1.40001
1.4
1.40001
1.4
1.40001
1.4
1.4
1.40001
1.40001
1.4
1.40001
1.40001
1.39999
1.39996
1.40022
1.3998
1.39986
1.4003
1.40005
1.39995
1.39986
1.40007
1.40034
1.40015
1.40033
1.40006
1.40067
1.40064
1.40102
1.40135
1.40155
1.40254
1.40326
1.40485
1.40704
1.41006
1.41405
1.41917
1.42541
1.43263
1.44044
1.44812
1.45469
1.45911
1.46077
1.45953
1.45574
1.44979
1.44217
1.43325
1.42379
1.41333
1.40457
1.39711
1.38886
1.38097
1.37672
1.37449
1.36937
1.35872
1.346
1.33733
1.33281
1.32605
1.30646
1.27041
1.21862
1.15385
1.07714
0.995396
0.924288
0.882013
0.882764
0.926671
1.00608
1.10412
1.19542
1.26014
1.29396
1.30912
1.3248
1.353
1.39153
1.42829
1.45145
1.45693
1.44876
1.43461
1.42093
1.41087
1.4048
1.40171
1.4004
1.39997
1.39989
1.39992
1.39996
1.39998
1.39999
1.4
1.4
1.4
1.40001
1.4
1.40001
1.4
1.40001
1.4
1.40001
1.4
1.40001
1.39999
1.40001
1.40008
1.39993
1.39988
1.40026
1.40002
1.39982
1.40003
1.39997
1.40026
1.40021
1.39997
1.40012
1.40047
1.40046
1.40103
1.40068
1.40155
1.4017
1.40269
1.40387
1.4056
1.40808
1.41155
1.41603
1.42171
1.42851
1.43621
1.4442
1.45167
1.45744
1.46048
1.46044
1.45747
1.45207
1.44484
1.43608
1.42644
1.4162
1.4056
1.39757
1.38995
1.38185
1.37634
1.3744
1.37146
1.36402
1.35287
1.34267
1.33587
1.32973
1.31403
1.27903
1.22305
1.1511
1.06804
0.975306
0.880642
0.800523
0.758189
0.767616
0.82855
0.929959
1.04903
1.15962
1.24097
1.28626
1.3072
1.3244
1.3518
1.38898
1.42519
1.44895
1.45566
1.44865
1.43519
1.42168
1.4115
1.4052
1.40193
1.4005
1.40001
1.3999
1.39992
1.39995
1.39998
1.39999
1.4
1.4
1.40001
1.4
1.40001
1.4
1.40001
1.4
1.40001
1.4
1.40001
1.4
1.40002
1.40001
1.39999
1.39993
1.40019
1.39995
1.39987
1.40011
1.39994
1.40018
1.4001
1.39989
1.40003
1.40022
1.40066
1.40046
1.40065
1.40096
1.40125
1.40222
1.4028
1.40432
1.40628
1.409
1.41278
1.41776
1.42391
1.43115
1.43912
1.44716
1.45425
1.45916
1.46088
1.45933
1.45481
1.44805
1.43977
1.43009
1.41994
1.40883
1.39873
1.39101
1.38269
1.37614
1.37428
1.37259
1.36664
1.35762
1.34922
1.3421
1.33437
1.32054
1.29069
1.23744
1.16149
1.07131
0.973221
0.870888
0.770977
0.691135
0.654964
0.676404
0.755253
0.874829
1.01003
1.13511
1.22803
1.28138
1.30696
1.32565
1.35236
1.38818
1.42346
1.44713
1.45441
1.44819
1.43531
1.42207
1.4119
1.40551
1.40211
1.40059
1.40005
1.39991
1.39992
1.39995
1.39998
1.39999
1.4
1.4
1.40001
1.4
1.40001
1.4
1.40001
1.4
1.40001
1.4
1.40001
1.4
1.40002
1.39998
1.40001
1.40006
1.39997
1.39993
1.40011
1.39997
1.39998
1.40021
1.39984
1.39994
1.40028
1.40043
1.40018
1.40042
1.40044
1.40123
1.40134
1.40216
1.40315
1.40454
1.40677
1.40978
1.41379
1.4191
1.42563
1.43318
1.44131
1.44926
1.45592
1.46004
1.46068
1.4578
1.45197
1.44402
1.4348
1.42458
1.41367
1.4021
1.39289
1.38407
1.3757
1.37324
1.37366
1.36894
1.35987
1.35307
1.34893
1.34188
1.32757
1.30129
1.2554
1.18391
1.09056
0.986231
0.879958
0.775815
0.6794
0.607727
0.582167
0.617539
0.711214
0.84382
0.990198
1.12318
1.22127
1.27897
1.30796
1.32812
1.35452
1.38913
1.42312
1.44603
1.45324
1.44741
1.43501
1.42211
1.41208
1.40569
1.40224
1.40067
1.40008
1.39993
1.39992
1.39995
1.39998
1.39999
1.4
1.40001
1.4
1.40001
1.4
1.40001
1.4
1.4
1.40001
1.4
1.40001
1.4
1.4
1.40002
1.4
1.4
1.39997
1.4001
1.39994
1.39994
1.40024
1.39984
1.39989
1.40024
1.40024
1.40014
1.40001
1.40043
1.40074
1.40092
1.40158
1.402
1.40322
1.40478
1.40708
1.41031
1.41449
1.41992
1.42672
1.43454
1.44276
1.45054
1.4568
1.4603
1.46016
1.45623
1.44923
1.44022
1.43018
1.41962
1.40772
1.39663
1.38735
1.37655
1.37079
1.37269
1.37157
1.36269
1.35455
1.35247
1.34931
1.33641
1.31151
1.27217
1.21092
1.12331
1.01644
0.904419
0.798019
0.699843
0.614089
0.554283
0.540597
0.587625
0.691549
0.833901
0.987279
1.12274
1.22119
1.27948
1.30965
1.331
1.35775
1.39149
1.42397
1.44557
1.45217
1.44637
1.43434
1.42182
1.41204
1.40575
1.40232
1.40073
1.40012
1.39994
1.39993
1.39996
1.39998
1.39999
1.4
1.4
1.4
1.40001
1.4
1.40001
1.4
1.40001
1.4
1.40001
1.4
1.40001
1.4
1.4
1.39999
1.40001
1.40004
1.39996
1.39997
1.40015
1.39995
1.39978
1.40025
1.40017
1.39995
1.39991
1.40028
1.4004
1.40073
1.40076
1.40133
1.40209
1.40318
1.4049
1.40719
1.41047
1.41475
1.42022
1.42714
1.43518
1.44349
1.45112
1.45702
1.46012
1.45952
1.45492
1.44685
1.43687
1.42605
1.41507
1.40274
1.39221
1.3812
1.37017
1.36865
1.37126
1.36646
1.35735
1.35372
1.35326
1.34457
1.32223
1.2871
1.23598
1.16106
1.0608
0.946004
0.833491
0.733601
0.647241
0.575256
0.527887
0.524905
0.580323
0.692284
0.841846
0.998273
1.13269
1.2281
1.28353
1.31272
1.3347
1.36192
1.39493
1.42576
1.44568
1.45122
1.44513
1.43335
1.42124
1.4118
1.40571
1.40235
1.40077
1.40015
1.39996
1.39994
1.39996
1.39998
1.39999
1.4
1.4
1.40001
1.4
1.40001
1.4
1.40001
1.4
1.4
1.40001
1.4
1.40001
1.4
1.4
1.40002
1.4
1.4
1.39999
1.40008
1.39999
1.39982
1.40019
1.40014
1.39984
1.39996
1.40009
1.40032
1.40028
1.40039
1.40078
1.40117
1.402
1.40314
1.40474
1.40702
1.41029
1.41466
1.42009
1.42691
1.43503
1.44353
1.45114
1.45678
1.45963
1.45891
1.45396
1.44511
1.43405
1.42254
1.41098
1.399
1.38807
1.37526
1.36634
1.36689
1.36687
1.36107
1.35616
1.35513
1.34988
1.33222
1.3013
1.25732
1.19526
1.10912
1.001
0.884636
0.777589
0.688723
0.616238
0.557756
0.523186
0.531499
0.596531
0.71627
0.869153
1.02391
1.15288
1.24107
1.29083
1.31774
1.33976
1.36723
1.39943
1.42841
1.44624
1.45031
1.44369
1.43207
1.42041
1.41138
1.40556
1.40233
1.40079
1.40017
1.39998
1.39995
1.39996
1.39998
1.39999
1.4
1.4
1.40001
1.4
1.40001
1.4
1.40001
1.4
1.40001
1.4
1.40001
1.4
1.4
1.40001
1.39999
1.40001
1.40001
1.40001
1.4
1.39994
1.40007
1.40012
1.39983
1.39995
1.40009
1.40016
1.40009
1.40019
1.40028
1.40065
1.40112
1.4018
1.40289
1.40441
1.40661
1.40981
1.41422
1.41958
1.42611
1.43411
1.44287
1.45071
1.45624
1.45894
1.4583
1.45337
1.44416
1.43193
1.41971
1.40741
1.39621
1.38417
1.37093
1.36411
1.36347
1.36128
1.35818
1.35718
1.35391
1.34086
1.31502
1.27657
1.22381
1.15217
1.05832
0.947206
0.834637
0.737684
0.662148
0.602599
0.557294
0.538011
0.562478
0.641294
0.767733
0.918945
1.06554
1.18241
1.25871
1.30056
1.3243
1.34609
1.37377
1.40499
1.43172
1.44703
1.44932
1.44201
1.43052
1.41934
1.4108
1.40531
1.40226
1.40079
1.40019
1.39999
1.39996
1.39997
1.39998
1.4
1.4
1.4
1.4
1.40001
1.4
1.40001
1.4
1.40001
1.4
1.40001
1.40001
1.4
1.40001
1.4
1.4
1.40002
1.39999
1.40001
1.4
1.40001
1.40006
1.39991
1.39996
1.40011
1.40002
1.40003
1.39997
1.40011
1.40027
1.40053
1.40093
1.40152
1.40244
1.404
1.4061
1.40905
1.41331
1.41867
1.42491
1.43257
1.44148
1.44978
1.45554
1.45819
1.45763
1.45304
1.44394
1.43085
1.4175
1.40457
1.3938
1.38092
1.36856
1.36208
1.35902
1.35672
1.35666
1.35646
1.34893
1.32894
1.29565
1.2493
1.18836
1.10934
1.01082
0.900892
0.797076
0.713777
0.651499
0.603859
0.573315
0.57353
0.619016
0.713022
0.843572
0.987871
1.11939
1.21819
1.27914
1.31162
1.3319
1.35359
1.38143
1.41133
1.43536
1.44782
1.44814
1.44007
1.42872
1.41808
1.41008
1.40498
1.40215
1.40078
1.4002
1.40001
1.39997
1.39997
1.39999
1.4
1.4
1.4
1.4
1.4
1.4
1.40001
1.4
1.40001
1.4
1.40001
1.4
1.4
1.40001
1.4
1.40001
1.4
1.4
1.40002
1.39999
1.40001
1.4
1.39997
1.40006
1.39999
1.39996
1.39997
1.40002
1.40008
1.4002
1.40034
1.4007
1.40121
1.40201
1.40342
1.40546
1.4081
1.412
1.41733
1.42347
1.43063
1.43939
1.44825
1.45467
1.45754
1.45698
1.45278
1.44427
1.43092
1.41616
1.40256
1.39116
1.37879
1.36758
1.36001
1.35514
1.35323
1.35412
1.35295
1.34167
1.31567
1.27528
1.22167
1.15351
1.06819
0.967983
0.864692
0.774479
0.705583
0.654817
0.619149
0.60573
0.628281
0.695135
0.801753
0.932422
1.06475
1.17651
1.25445
1.29921
1.32271
1.34025
1.36219
1.39004
1.41817
1.43911
1.44845
1.44669
1.43785
1.42669
1.41665
1.40926
1.4046
1.40201
1.40075
1.40021
1.40002
1.39998
1.39998
1.39999
1.4
1.4
1.4
1.40001
1.4
1.40001
1.4
1.40001
1.4
1.40001
1.4
1.40001
1.40001
1.4
1.40001
1.4
1.4
1.40001
1.39999
1.4
1.40002
1.39998
1.40002
1.40001
1.39994
1.4
1.39999
1.40002
1.4
1.40012
1.40021
1.40046
1.40091
1.40161
1.40274
1.4046
1.40706
1.4105
1.41557
1.42173
1.42854
1.43681
1.446
1.45345
1.45706