/*--------------------------------*- C++ -*----------------------------------*\
  =========                 |
  \\      /  F ield         | OpenFOAM: The Open Source CFD Toolbox
   \\    /   O peration     | Website:  https://openfoam.org
    \\  /    A nd           | Version:  6
     \\/     M anipulation  |
\*---------------------------------------------------------------------------*/
FoamFile
{
    version     2.0;
    format      ascii;
    class       volScalarField;
    location    "4.89";
    object      T;
}
// * * * * * * * * * * * * * * * * * * * * * * * * * * * * * * * * * * * * * //

dimensions      [0 0 0 1 0 0 0];

internalField   nonuniform List<scalar> 
5625
(
1
1
1
1
1
1
1
1
1
1
1
1
1
1
1
1.00001
1.00001
1.00001
1.00001
1.00001
1.00001
1.00001
1.00001
1.00001
1.00001
1.00001
1.00001
1.00002
1.00002
1.00002
1.00002
1.00002
1.00002
1.00002
1.00002
1.00002
1.00002
1.00002
1.00001
1.00001
1.00001
1.00001
1.00001
1.00001
1.00001
1.00001
1.00001
1.00001
1.00001
1.00001
1
1
1
1
1
1
1
1
1
1
1
1
1
1
1
1
1
1
1
1
1
1
1
1
1
1
1
1
1
1
1
1
1
1
1
1
1
1
1
1.00001
1.00001
1.00001
1.00001
1.00001
1.00001
1.00001
1.00001
1.00001
1.00002
1.00002
1.00002
1.00002
1.00002
1.00002
1.00002
1.00002
1.00002
1.00002
1.00002
1.00002
1.00002
1.00002
1.00002
1.00002
1.00002
1.00002
1.00002
1.00001
1.00001
1.00001
1.00001
1.00001
1.00001
1.00001
1.00001
1.00001
1.00001
1
1
1
1
1
1
1
1
1
1
1
1
1
1
1
1
1
1
1
1
1
1
1
1
1
1
1
1
1
1
1
1
1
1
1
1.00001
1.00001
1.00001
1.00001
1.00001
1.00001
1.00001
1.00001
1.00002
1.00002
1.00002
1.00002
1.00002
1.00002
1.00002
1.00002
1.00002
1.00002
1.00002
1.00002
1.00002
1.00002
1.00002
1.00002
1.00002
1.00002
1.00002
1.00002
1.00002
1.00002
1.00002
1.00002
1.00002
1.00001
1.00001
1.00001
1.00001
1.00001
1.00001
1.00001
1.00001
1
1
1
1
1
1
1
1
1
1
1
1
1
1
1
1
1
1
1
1
1
1
1
1
1
1
1
1
1
1
1
1
1
1.00001
1.00001
1.00001
1.00001
1.00001
1.00001
1.00001
1.00002
1.00002
1.00002
1.00002
1.00002
1.00002
1.00002
1.00002
1.00002
1.00002
1.00002
1.00002
1.00002
1.00002
1.00002
1.00002
1.00002
1.00002
1.00002
1.00002
1.00002
1.00002
1.00002
1.00002
1.00002
1.00002
1.00002
1.00002
1.00002
1.00001
1.00001
1.00001
1.00001
1.00001
1.00001
1.00001
1
1
1
1
1
1
1
1
1
1
1
1
1
1
1
1
1
1
1
1
1
1
1
1
1
1
1
1
1
1
1
1.00001
1.00001
1.00001
1.00001
1.00001
1.00001
1.00002
1.00002
1.00002
1.00002
1.00002
1.00002
1.00002
1.00002
1.00002
1.00002
1.00002
1.00002
1.00002
1.00002
1.00002
1.00002
1.00002
1.00002
1.00002
1.00002
1.00002
1.00002
1.00002
1.00002
1.00002
1.00002
1.00002
1.00002
1.00002
1.00002
1.00002
1.00002
1.00002
1.00001
1.00001
1.00001
1.00001
1.00001
1.00001
1.00001
1
1
1
1
1
1
1
1
1
1
1
1
1
1
1
1
1
1
1
1
1
1
1
1
1
1
1
1.00001
1.00001
1.00001
1.00001
1.00001
1.00001
1.00001
1.00002
1.00002
1.00002
1.00002
1.00002
1.00002
1.00002
1.00002
1.00002
1.00002
1.00003
1.00003
1.00003
1.00003
1.00003
1.00003
1.00002
1.00002
1.00002
1.00002
1.00003
1.00003
1.00003
1.00003
1.00003
1.00003
1.00002
1.00002
1.00002
1.00002
1.00002
1.00002
1.00002
1.00002
1.00002
1.00001
1.00001
1.00001
1.00001
1.00001
1.00001
1.00001
1
1
1
1
1
1
1
1
1
1
1
1
1
1
1
1
1
1
1
1
1
1
1
1
1
1.00001
1.00001
1.00001
1.00001
1.00001
1.00001
1.00002
1.00002
1.00002
1.00002
1.00002
1.00002
1.00002
1.00002
1.00002
1.00003
1.00003
1.00003
1.00003
1.00002
1.00002
1.00002
1.00002
1.00002
1.00002
1.00002
1.00002
1.00002
1.00002
1.00002
1.00002
1.00002
1.00003
1.00003
1.00003
1.00003
1.00003
1.00002
1.00002
1.00002
1.00002
1.00002
1.00002
1.00002
1.00002
1.00001
1.00001
1.00001
1.00001
1.00001
1.00001
1
1
1
1
1
1
1
1
1
1
1
1
1
1
1
1
1
1
1
1
1
1
1
1.00001
1.00001
1.00001
1.00001
1.00001
1.00001
1.00002
1.00002
1.00002
1.00002
1.00002
1.00002
1.00002
1.00003
1.00003
1.00003
1.00003
1.00002
1.00002
1.00002
1.00002
1.00002
1.00002
1.00002
1.00002
1.00002
1.00002
1.00002
1.00002
1.00002
1.00002
1.00002
1.00002
1.00002
1.00002
1.00002
1.00003
1.00003
1.00003
1.00003
1.00003
1.00002
1.00002
1.00002
1.00002
1.00002
1.00002
1.00001
1.00001
1.00001
1.00001
1.00001
1.00001
1
1
1
1
1
1
1
1
1
1
1
1
1
1
1
1
1
1
1
1
1
1.00001
1.00001
1.00001
1.00001
1.00001
1.00001
1.00002
1.00002
1.00002
1.00002
1.00002
1.00002
1.00003
1.00003
1.00003
1.00003
1.00002
1.00002
1.00002
1.00002
1.00002
1.00002
1.00002
1.00002
1.00002
1.00002
1.00002
1.00002
1.00002
1.00002
1.00002
1.00002
1.00002
1.00002
1.00002
1.00002
1.00002
1.00002
1.00002
1.00003
1.00003
1.00003
1.00003
1.00003
1.00002
1.00002
1.00002
1.00002
1.00002
1.00001
1.00001
1.00001
1.00001
1.00001
1.00001
1
1
1
1
1
1
1
1
1
1
1
1
1
1
1
1
1
1
1
1
1.00001
1.00001
1.00001
1.00001
1.00001
1.00002
1.00002
1.00002
1.00002
1.00002
1.00003
1.00003
1.00003
1.00003
1.00002
1.00002
1.00002
1.00002
1.00002
1.00002
1.00002
1.00002
1.00002
1.00002
1.00002
1.00001
1.00001
1.00001
1.00001
1.00001
1.00001
1.00002
1.00002
1.00002
1.00002
1.00002
1.00002
1.00002
1.00002
1.00002
1.00002
1.00003
1.00003
1.00003
1.00003
1.00002
1.00002
1.00002
1.00002
1.00002
1.00001
1.00001
1.00001
1.00001
1.00001
1.00001
1
1
1
1
1
1
1
1
1
1
1
1
1
1
1
1
1
1
1.00001
1.00001
1.00001
1.00001
1.00001
1.00002
1.00002
1.00002
1.00002
1.00002
1.00003
1.00003
1.00003
1.00003
1.00002
1.00002
1.00002
1.00002
1.00002
1.00002
1.00002
1.00001
1.00001
1.00001
1.00001
1.00001
1.00001
1.00001
1.00001
1.00001
1.00001
1.00001
1.00001
1.00001
1.00001
1.00001
1.00001
1.00002
1.00002
1.00002
1.00002
1.00002
1.00002
1.00003
1.00003
1.00003
1.00003
1.00003
1.00002
1.00002
1.00002
1.00002
1.00001
1.00001
1.00001
1.00001
1.00001
1
1
1
1
1
1
1
1
1
1
1
1
1
1
1
1
1
1.00001
1.00001
1.00001
1.00001
1.00001
1.00002
1.00002
1.00002
1.00002
1.00002
1.00003
1.00003
1.00003
1.00002
1.00002
1.00002
1.00002
1.00002
1.00002
1.00002
1.00001
1.00001
1.00001
1.00001
1.00001
1.00001
1.00001
1.00001
1.00001
1.00001
1
1.00001
1.00001
1.00001
1.00001
1.00001
1.00001
1.00001
1.00001
1.00001
1.00002
1.00002
1.00002
1.00002
1.00002
1.00002
1.00003
1.00003
1.00003
1.00003
1.00002
1.00002
1.00002
1.00002
1.00001
1.00001
1.00001
1.00001
1.00001
1
1
1
1
1
1
1
1
1
1
1
1
1
1
1
1.00001
1.00001
1.00001
1.00001
1.00001
1.00002
1.00002
1.00002
1.00002
1.00003
1.00003
1.00003
1.00003
1.00002
1.00002
1.00002
1.00002
1.00002
1.00002
1.00001
1.00001
1.00001
1.00001
1.00001
1
1
1
1
1
1
1
1
1
1
1
1
1
1
1.00001
1.00001
1.00001
1.00001
1.00001
1.00002
1.00002
1.00002
1.00002
1.00002
1.00003
1.00003
1.00003
1.00003
1.00002
1.00002
1.00002
1.00002
1.00001
1.00001
1.00001
1.00001
1.00001
1
1
1
1
1
1
1
1
1
1
1
1
1
1.00001
1.00001
1.00001
1.00001
1.00001
1.00002
1.00002
1.00002
1.00002
1.00003
1.00003
1.00003
1.00002
1.00002
1.00002
1.00002
1.00002
1.00002
1.00001
1.00001
1.00001
1.00001
1
1
1
1
0.999999
0.999998
0.999997
0.999996
0.999996
0.999996
0.999996
0.999996
0.999996
0.999997
0.999998
0.999999
1
1
1
1
1.00001
1.00001
1.00001
1.00001
1.00002
1.00002
1.00002
1.00002
1.00003
1.00003
1.00003
1.00003
1.00002
1.00002
1.00002
1.00002
1.00001
1.00001
1.00001
1.00001
1.00001
1
1
1
1
1
1
1
1
1
1
1
1
1.00001
1.00001
1.00001
1.00001
1.00002
1.00002
1.00002
1.00002
1.00003
1.00003
1.00003
1.00002
1.00002
1.00002
1.00002
1.00002
1.00001
1.00001
1.00001
1.00001
1
1
1
0.999999
0.999997
0.999996
0.999995
0.999994
0.999993
0.999992
0.999992
0.999992
0.999992
0.999992
0.999992
0.999993
0.999993
0.999994
0.999995
0.999997
0.999998
1
1
1
1.00001
1.00001
1.00001
1.00002
1.00002
1.00002
1.00002
1.00003
1.00003
1.00003
1.00003
1.00002
1.00002
1.00002
1.00002
1.00001
1.00001
1.00001
1.00001
1
1
1
1
1
1
1
1
1
1
1
1.00001
1.00001
1.00001
1.00001
1.00002
1.00002
1.00002
1.00002
1.00003
1.00003
1.00003
1.00002
1.00002
1.00002
1.00002
1.00002
1.00001
1.00001
1.00001
1
1
1
0.999998
0.999996
0.999995
0.999993
0.999992
0.999991
0.99999
0.999989
0.999988
0.999988
0.999988
0.999988
0.999988
0.999988
0.999989
0.999989
0.99999
0.999991
0.999992
0.999994
0.999996
0.999998
1
1
1.00001
1.00001
1.00001
1.00001
1.00002
1.00002
1.00002
1.00003
1.00003
1.00003
1.00003
1.00002
1.00002
1.00002
1.00002
1.00001
1.00001
1.00001
1.00001
1
1
1
1
1
1
1
1
1
1
1.00001
1.00001
1.00001
1.00002
1.00002
1.00002
1.00002
1.00003
1.00003
1.00003
1.00002
1.00002
1.00002
1.00002
1.00002
1.00001
1.00001
1.00001
1
1
0.999999
0.999996
0.999994
0.999992
0.999991
0.999989
0.999988
0.999987
0.999986
0.999985
0.999985
0.999984
0.999984
0.999984
0.999984
0.999984
0.999985
0.999986
0.999986
0.999987
0.999989
0.99999
0.999992
0.999994
0.999996
0.999998
1
1
1.00001
1.00001
1.00001
1.00002
1.00002
1.00002
1.00003
1.00003
1.00003
1.00002
1.00002
1.00002
1.00002
1.00001
1.00001
1.00001
1.00001
1.00001
1
1
1
1
1
1
1
1
1
1.00001
1.00001
1.00001
1.00002
1.00002
1.00002
1.00002
1.00003
1.00003
1.00002
1.00002
1.00002
1.00002
1.00001
1.00001
1.00001
1.00001
1
1
0.999997
0.999995
0.999993
0.999991
0.999989
0.999987
0.999986
0.999984
0.999983
0.999982
0.999982
0.999981
0.999981
0.99998
0.99998
0.99998
0.999981
0.999981
0.999982
0.999983
0.999984
0.999985
0.999986
0.999988
0.99999
0.999992
0.999994
0.999997
1
1
1.00001
1.00001
1.00001
1.00002
1.00002
1.00002
1.00003
1.00003
1.00003
1.00002
1.00002
1.00002
1.00002
1.00001
1.00001
1.00001
1.00001
1
1
1
1
1
1
1
1
1
1.00001
1.00001
1.00002
1.00002
1.00002
1.00002
1.00003
1.00003
1.00002
1.00002
1.00002
1.00002
1.00001
1.00001
1.00001
1
1
0.999999
0.999996
0.999994
0.999991
0.999989
0.999987
0.999985
0.999984
0.999982
0.999981
0.99998
0.999979
0.999978
0.999977
0.999977
0.999976
0.999976
0.999977
0.999977
0.999978
0.999978
0.999979
0.99998
0.999982
0.999983
0.999984
0.999986
0.999988
0.99999
0.999993
0.999996
0.999999
1
1.00001
1.00001
1.00001
1.00002
1.00002
1.00002
1.00003
1.00003
1.00003
1.00002
1.00002
1.00002
1.00002
1.00001
1.00001
1.00001
1.00001
1
1
1
1
1
1
1
1
1.00001
1.00002
1.00002
1.00002
1.00002
1.00003
1.00003
1.00002
1.00002
1.00002
1.00002
1.00001
1.00001
1.00001
1
1
0.999998
0.999995
0.999993
0.99999
0.999988
0.999986
0.999984
0.999982
0.99998
0.999979
0.999977
0.999976
0.999974
0.999973
0.999972
0.999972
0.999971
0.999971
0.999972
0.999973
0.999973
0.999974
0.999976
0.999977
0.999978
0.999979
0.999981
0.999983
0.999985
0.999987
0.999989
0.999992
0.999995
0.999998
1
1.00001
1.00001
1.00001
1.00002
1.00002
1.00002
1.00003
1.00003
1.00003
1.00002
1.00002
1.00002
1.00001
1.00001
1.00001
1.00001
1.00001
1
1
1
1
1
1
1
1.00001
1.00002
1.00002
1.00002
1.00003
1.00003
1.00003
1.00002
1.00002
1.00002
1.00001
1.00001
1.00001
1
1
0.999998
0.999995
0.999992
0.99999
0.999987
0.999985
0.999983
0.999981
0.999979
0.999977
0.999975
0.999972
0.99997
0.999968
0.999966
0.999965
0.999964
0.999964
0.999964
0.999965
0.999966
0.999968
0.999969
0.999971
0.999973
0.999974
0.999976
0.999978
0.999979
0.999981
0.999983
0.999986
0.999988
0.999991
0.999995
0.999998
1
1.00001
1.00001
1.00002
1.00002
1.00002
1.00003
1.00003
1.00003
1.00002
1.00002
1.00002
1.00002
1.00001
1.00001
1.00001
1.00001
1
1
1
1
1
1
1
1.00002
1.00002
1.00002
1.00002
1.00003
1.00003
1.00002
1.00002
1.00002
1.00002
1.00001
1.00001
1
1
0.999998
0.999994
0.999992
0.999989
0.999987
0.999985
0.999982
0.99998
0.999978
0.999975
0.999972
0.999969
0.999966
0.999962
0.999959
0.999957
0.999954
0.999953
0.999953
0.999954
0.999955
0.999957
0.999959
0.999962
0.999965
0.999967
0.99997
0.999972
0.999974
0.999976
0.999978
0.99998
0.999982
0.999985
0.999988
0.999991
0.999994
0.999998
1
1.00001
1.00001
1.00002
1.00002
1.00002
1.00003
1.00003
1.00003
1.00002
1.00002
1.00002
1.00001
1.00001
1.00001
1.00001
1.00001
1
1
1
1
1
1
1.00002
1.00002
1.00002
1.00003
1.00003
1.00002
1.00002
1.00002
1.00002
1.00001
1.00001
1.00001
1
0.999998
0.999994
0.999991
0.999989
0.999987
0.999984
0.999982
0.99998
0.999977
0.999974
0.99997
0.999966
0.999961
0.999955
0.99995
0.999945
0.99994
0.999937
0.999935
0.999934
0.999935
0.999938
0.999941
0.999946
0.99995
0.999955
0.999959
0.999963
0.999966
0.999969
0.999972
0.999974
0.999977
0.999979
0.999982
0.999984
0.999988
0.999991
0.999995
0.999999
1
1.00001
1.00001
1.00002
1.00002
1.00002
1.00003
1.00003
1.00002
1.00002
1.00002
1.00002
1.00001
1.00001
1.00001
1.00001
1
1
1
1
1
1
1.00002
1.00002
1.00002
1.00003
1.00003
1.00002
1.00002
1.00002
1.00001
1.00001
1.00001
1
0.999998
0.999995
0.999992
0.999989
0.999986
0.999984
0.999982
0.99998
0.999977
0.999973
0.999968
0.999963
0.999955
0.999947
0.999939
0.99993
0.999921
0.999913
0.999908
0.999904
0.999903
0.999905
0.999909
0.999915
0.999923
0.99993
0.999938
0.999946
0.999952
0.999958
0.999963
0.999967
0.99997
0.999973
0.999976
0.999979
0.999981
0.999984
0.999988
0.999991
0.999995
1
1
1.00001
1.00002
1.00002
1.00002
1.00003
1.00003
1.00003
1.00002
1.00002
1.00002
1.00001
1.00001
1.00001
1.00001
1.00001
1
1
1
1
1
1.00002
1.00002
1.00003
1.00003
1.00002
1.00002
1.00002
1.00001
1.00001
1.00001
1
0.999999
0.999995
0.999992
0.999989
0.999987
0.999984
0.999982
0.99998
0.999977
0.999973
0.999968
0.99996
0.999951
0.999939
0.999926
0.999911
0.999896
0.999881
0.999868
0.999859
0.999853
0.999851
0.999854
0.999861
0.999872
0.999884
0.999898
0.999911
0.999924
0.999936
0.999945
0.999953
0.99996
0.999965
0.999969
0.999972
0.999975
0.999978
0.999981
0.999984
0.999988
0.999992
0.999996
1
1.00001
1.00001
1.00002
1.00002
1.00002
1.00003
1.00003
1.00002
1.00002
1.00002
1.00002
1.00001
1.00001
1.00001
1.00001
1
1
1
1
1
1.00002
1.00003
1.00003
1.00002
1.00002
1.00002
1.00002
1.00001
1.00001
1
1
0.999996
0.999993
0.99999
0.999987
0.999985
0.999983
0.99998
0.999978
0.999974
0.999968
0.99996
0.999948
0.999932
0.999913
0.999891
0.999866
0.999841
0.999816
0.999795
0.999778
0.999768
0.999765
0.99977
0.999782
0.999799
0.99982
0.999843
0.999866
0.999888
0.999908
0.999924
0.999938
0.999948
0.999957
0.999963
0.999968
0.999972
0.999975
0.999978
0.999981
0.999985
0.999989
0.999993
0.999998
1
1.00001
1.00001
1.00002
1.00002
1.00002
1.00003
1.00003
1.00002
1.00002
1.00002
1.00001
1.00001
1.00001
1.00001
1
1
1
1
1
1.00002
1.00003
1.00003
1.00002
1.00002
1.00002
1.00001
1.00001
1.00001
1
0.999997
0.999994
0.99999
0.999988
0.999985
0.999983
0.999981
0.999979
0.999975
0.99997
0.99996
0.999947
0.999927
0.999902
0.999871
0.999834
0.999794
0.999752
0.999711
0.999676
0.999648
0.999632
0.999627
0.999635
0.999654
0.999682
0.999717
0.999755
0.999793
0.99983
0.999862
0.99989
0.999913
0.999931
0.999944
0.999954
0.999961
0.999967
0.999971
0.999975
0.999978
0.999982
0.999986
0.99999
0.999995
1
1.00001
1.00001
1.00002
1.00002
1.00002
1.00003
1.00003
1.00002
1.00002
1.00002
1.00002
1.00001
1.00001
1.00001
1.00001
1
1
1
1
1.00002
1.00003
1.00002
1.00002
1.00002
1.00002
1.00001
1.00001
1
0.999999
0.999995
0.999991
0.999988
0.999986
0.999984
0.999982
0.99998
0.999977
0.999972
0.999963
0.999948
0.999926
0.999894
0.999854
0.999803
0.999744
0.999679
0.999611
0.999546
0.999488
0.999443
0.999415
0.999407
0.99942
0.99945
0.999496
0.999552
0.999614
0.999677
0.999736
0.99979
0.999835
0.999873
0.999902
0.999924
0.999941
0.999952
0.999961
0.999967
0.999971
0.999975
0.999979
0.999983
0.999987
0.999992
0.999997
1
1.00001
1.00001
1.00002
1.00002
1.00002
1.00003
1.00002
1.00002
1.00002
1.00002
1.00001
1.00001
1.00001
1.00001
1
1
1
1
1.00003
1.00003
1.00002
1.00002
1.00002
1.00001
1.00001
1
1
0.999996
0.999993
0.999989
0.999986
0.999984
0.999983
0.999982
0.99998
0.999975
0.999967
0.999952
0.999928
0.999892
0.999843
0.999778
0.999698
0.999604
0.999501
0.999393
0.999289
0.999197
0.999125
0.999081
0.999067
0.999086
0.999134
0.999207
0.999296
0.999395
0.999495
0.999591
0.999676
0.99975
0.99981
0.999857
0.999893
0.99992
0.999938
0.999951
0.99996
0.999967
0.999972
0.999976
0.99998
0.999984
0.999989
0.999994
0.999999
1.00001
1.00001
1.00002
1.00002
1.00002
1.00003
1.00003
1.00002
1.00002
1.00002
1.00002
1.00001
1.00001
1.00001
1.00001
1
1
1
1.00003
1.00002
1.00002
1.00002
1.00002
1.00001
1.00001
1
0.999998
0.999994
0.99999
0.999987
0.999985
0.999984
0.999983
0.999982
0.999979
0.999972
0.999958
0.999934
0.999896
0.99984
0.999763
0.999662
0.999537
0.999391
0.999229
0.999061
0.998898
0.998754
0.998642
0.998572
0.998551
0.99858
0.998655
0.998768
0.998908
0.999062
0.999219
0.999368
0.999503
0.999619
0.999714
0.999789
0.999846
0.999887
0.999917
0.999937
0.999951
0.999961
0.999967
0.999973
0.999977
0.999981
0.999986
0.999991
0.999996
1
1.00001
1.00001
1.00002
1.00002
1.00002
1.00003
1.00002
1.00002
1.00002
1.00002
1.00001
1.00001
1.00001
1.00001
1
1
1
1.00003
1.00002
1.00002
1.00002
1.00001
1.00001
1
1
0.999996
0.999992
0.999988
0.999985
0.999984
0.999983
0.999983
0.999982
0.999978
0.999967
0.999945
0.999907
0.999848
0.999761
0.999642
0.999487
0.999296
0.999072
0.998823
0.998565
0.998316
0.998095
0.997924
0.997817
0.997784
0.997828
0.997943
0.998115
0.998329
0.998565
0.998806
0.999036
0.999243
0.999422
0.999569
0.999685
0.999774
0.999839
0.999885
0.999917
0.999938
0.999952
0.999962
0.999969
0.999974
0.999978
0.999983
0.999988
0.999993
0.999999
1.00001
1.00001
1.00002
1.00002
1.00002
1.00003
1.00002
1.00002
1.00002
1.00002
1.00001
1.00001
1.00001
1.00001
1
1
1
1.00002
1.00002
1.00002
1.00002
1.00001
1.00001
1
0.999998
0.999994
0.999989
0.999986
0.999984
0.999984
0.999984
0.999984
0.999983
0.999976
0.999958
0.999924
0.999865
0.999775
0.999643
0.999463
0.99923
0.998941
0.998603
0.998229
0.997841
0.997466
0.997135
0.996878
0.996719
0.996671
0.996736
0.996907
0.997166
0.997486
0.997841
0.998203
0.99855
0.998863
0.999133
0.999356
0.999533
0.999668
0.999767
0.999838
0.999886
0.999919
0.99994
0.999954
0.999963
0.99997
0.999975
0.99998
0.999985
0.999991
0.999996
1
1.00001
1.00001
1.00002
1.00002
1.00002
1.00003
1.00002
1.00002
1.00002
1.00002
1.00001
1.00001
1.00001
1.00001
1
1
1.00002
1.00002
1.00002
1.00001
1.00001
1
1
0.999996
0.999992
0.999988
0.999985
0.999983
0.999983
0.999985
0.999986
0.999983
0.999972
0.999944
0.999891
0.999803
0.999667
0.999471
0.999205
0.998858
0.998431
0.99793
0.997376
0.996803
0.996252
0.995767
0.995392
0.995159
0.995089
0.995185
0.995435
0.995814
0.996285
0.996807
0.997341
0.997854
0.998318
0.998719
0.999051
0.999314
0.999515
0.999663
0.999769
0.999842
0.999891
0.999923
0.999944
0.999957
0.999966
0.999972
0.999977
0.999983
0.999988
0.999994
1
1.00001
1.00001
1.00002
1.00002
1.00002
1.00003
1.00002
1.00002
1.00002
1.00002
1.00001
1.00001
1.00001
1.00001
1
1
1.00002
1.00002
1.00002
1.00001
1.00001
1
0.999998
0.999994
0.99999
0.999986
0.999984
0.999983
0.999984
0.999986
0.999988
0.999983
0.999965
0.999922
0.999843
0.999712
0.999512
0.999227
0.998837
0.998332
0.997709
0.99698
0.996178
0.99535
0.994557
0.993862
0.993325
0.992992
0.992891
0.993028
0.993386
0.993929
0.994606
0.99536
0.996133
0.996876
0.997552
0.998136
0.99862
0.999005
0.999299
0.999516
0.999672
0.999779
0.999851
0.999899
0.999929
0.999948
0.99996
0.999968
0.999974
0.99998
0.999985
0.999991
0.999997
1
1.00001
1.00002
1.00002
1.00002
1.00002
1.00002
1.00002
1.00002
1.00002
1.00001
1.00001
1.00001
1.00001
1
1
1.00002
1.00002
1.00002
1.00001
1.00001
1
0.999996
0.999992
0.999988
0.999985
0.999983
0.999982
0.999985
0.999989
0.999991
0.999983
0.999953
0.999889
0.999772
0.999582
0.999295
0.998885
0.998327
0.997602
0.99671
0.995671
0.994532
0.993363
0.992246
0.99127
0.990515
0.990045
0.989899
0.990087
0.990587
0.99135
0.992305
0.993372
0.99447
0.995529
0.996494
0.997331
0.998025
0.998577
0.999001
0.999313
0.999537
0.999692
0.999797
0.999865
0.999908
0.999935
0.999952
0.999963
0.999971
0.999977
0.999983
0.999989
0.999995
1
1.00001
1.00001
1.00002
1.00002
1.00002
1.00002
1.00002
1.00002
1.00002
1.00002
1.00001
1.00001
1.00001
1.00001
1
1.00002
1.00002
1.00001
1.00001
1
0.999999
0.999995
0.999991
0.999987
0.999984
0.999982
0.999982
0.999987
0.999993
0.999995
0.99998
0.999936
0.999841
0.999672
0.999403
0.998998
0.998419
0.997631
0.99661
0.995358
0.993907
0.992325
0.990707
0.989166
0.987818
0.986772
0.986115
0.985903
0.986153
0.986836
0.987887
0.98921
0.990693
0.992225
0.993706
0.995061
0.996239
0.997217
0.997997
0.998595
0.999037
0.999354
0.999574
0.999722
0.999819
0.99988
0.999919
0.999942
0.999957
0.999967
0.999974
0.99998
0.999986
0.999993
0.999999
1.00001
1.00001
1.00002
1.00002
1.00002
1.00002
1.00002
1.00002
1.00002
1.00002
1.00001
1.00001
1.00001
1.00001
1
1.00002
1.00002
1.00001
1.00001
1
0.999998
0.999993
0.999989
0.999986
0.999982
0.99998
0.999983
0.99999
0.999999
0.999999
0.999976
0.999909
0.999772
0.999536
0.999161
0.998599
0.997796
0.996703
0.995293
0.99357
0.991587
0.989435
0.98724
0.985148
0.983313
0.981879
0.980969
0.980664
0.980986
0.981904
0.983327
0.985127
0.987153
0.989252
0.991288
0.993155
0.994784
0.99614
0.997223
0.998054
0.998669
0.99911
0.999416
0.999622
0.999757
0.999843
0.999897
0.99993
0.99995
0.999962
0.999971
0.999978
0.999984
0.99999
0.999997
1
1.00001
1.00002
1.00002
1.00002
1.00002
1.00002
1.00002
1.00002
1.00002
1.00001
1.00001
1.00001
1.00001
1
1.00002
1.00002
1.00001
1.00001
1
0.999996
0.999992
0.999988
0.999985
0.99998
0.999979
0.999984
0.999995
1.00001
1
0.999967
0.99987
0.99968
0.999355
0.998842
0.998075
0.99698
0.995493
0.993583
0.991264
0.98861
0.985739
0.98281
0.980009
0.977539
0.975599
0.974359
0.973929
0.974345
0.975562
0.97746
0.979869
0.982586
0.985408
0.988153
0.990678
0.992887
0.994733
0.99621
0.997346
0.998188
0.998791
0.99921
0.999492
0.999677
0.999795
0.999868
0.999913
0.99994
0.999956
0.999967
0.999975
0.999982
0.999988
0.999995
1
1.00001
1.00001
1.00002
1.00002
1.00002
1.00002
1.00002
1.00002
1.00002
1.00001
1.00001
1.00001
1.00001
1
1.00002
1.00001
1.00001
1
0.999999
0.999995
0.999991
0.999987
0.999983
0.999978
0.999978
0.999986
1
1.00001
1.00001
0.999953
0.999817
0.999557
0.99912
0.998433
0.997404
0.995937
0.993953
0.991418
0.988364
0.984881
0.981114
0.977259
0.973556
0.970279
0.967703
0.966056
0.965483
0.966029
0.967628
0.970124
0.973289
0.976862
0.980577
0.984199
0.987541
0.990476
0.992937
0.994914
0.996438
0.99757
0.998381
0.998945
0.999325
0.999574
0.999732
0.999831
0.999891
0.999927
0.999949
0.999962
0.999972
0.999979
0.999986
0.999993
1
1.00001
1.00001
1.00002
1.00002
1.00002
1.00002
1.00002
1.00002
1.00002
1.00001
1.00001
1.00001
1.00001
1
1.00002
1.00001
1.00001
1
0.999997
0.999994
0.999991
0.999987
0.999981
0.999976
0.999977
0.999989
1.00001
1.00003
1.00001
0.999933
0.999747
0.999401
0.998824
0.99792
0.996564
0.994634
0.99204
0.98875
0.984807
0.980316
0.975443
0.970435
0.965613
0.961353
0.958021
0.955908
0.955194
0.955924
0.958007
0.961237
0.965321
0.969922
0.974705
0.979373
0.983693
0.9875
0.990708
0.993296
0.995301
0.996794
0.997866
0.998612
0.999115
0.999444
0.999654
0.999785
0.999865
0.999912
0.99994
0.999957
0.999968
0.999977
0.999984
0.999991
0.999998
1
1.00001
1.00002
1.00002
1.00002
1.00002
1.00002
1.00002
1.00002
1.00002
1.00001
1.00001
1.00001
1.00001
1.00002
1.00001
1.00001
1
0.999996
0.999994
0.999991
0.999986
0.999979
0.999973
0.999976
0.999993
1.00002
1.00004
1.00002
0.999905
0.999657
0.999207
0.998462
0.997291
0.995535
0.993048
0.989728
0.985548
0.980552
0.974846
0.968627
0.96222
0.956068
0.950673
0.946494
0.943878
0.943029
0.943997
0.946668
0.950782
0.955961
0.961777
0.967809
0.973691
0.979137
0.983953
0.98803
0.991339
0.993915
0.995844
0.997234
0.998203
0.998856
0.999285
0.999558
0.999728
0.999832
0.999893
0.99993
0.999951
0.999965
0.999974
0.999982
0.999989
0.999996
1
1.00001
1.00002
1.00002
1.00002
1.00002
1.00002
1.00002
1.00002
1.00002
1.00001
1.00001
1.00001
1.00001
1.00002
1.00001
1
0.999998
0.999995
0.999993
0.999991
0.999986
0.999977
0.999969
0.999974
0.999998
1.00003
1.00006
1.00002
0.999868
0.999548
0.998975
0.998029
0.996539
0.994309
0.991169
0.987013
0.981806
0.975576
0.968427
0.960609
0.952573
0.944925
0.938288
0.933185
0.929999
0.928975
0.930194
0.933544
0.938704
0.945192
0.952451
0.959943
0.967216
0.973935
0.979879
0.984929
0.989051
0.992282
0.994715
0.996479
0.997712
0.998546
0.999093
0.999443
0.99966
0.999792
0.999871
0.999917
0.999944
0.99996
0.999971
0.99998
0.999987
0.999994
1
1.00001
1.00001
1.00002
1.00002
1.00002
1.00002
1.00002
1.00002
1.00002
1.00001
1.00001
1.00001
1.00001
1.00002
1.00001
1
0.999997
0.999993
0.999993
0.999992
0.999986
0.999974
0.999964
0.999973
1.00001
1.00005
1.00007
1.00002
0.999823
0.999419
0.998706
0.997526
0.995664
0.992887
0.989009
0.983914
0.977544
0.969889
0.961061
0.951415
0.941584
0.932335
0.924358
0.918188
0.914251
0.912893
0.914301
0.918398
0.924797
0.932869
0.941878
0.951116
0.960013
0.968174
0.975364
0.981473
0.986477
0.990424
0.993419
0.995604
0.99714
0.998183
0.998869
0.999307
0.99958
0.999746
0.999845
0.999902
0.999936
0.999956
0.999968
0.999977
0.999985
0.999993
1
1.00001
1.00001
1.00002
1.00002
1.00002
1.00002
1.00002
1.00002
1.00002
1.00001
1.00001
1.00001
1.00001
1.00001
1.00001
1
0.999995
0.999992
0.999994
0.999993
0.999986
0.999971
0.999959
0.999971
1.00001
1.00007
1.00009
1.00002
0.99977
0.999275
0.998404
0.996957
0.994673
0.991288
0.986602
0.980479
0.97281
0.963541
0.952825
0.941192
0.929483
0.918555
0.909062
0.901513
0.896456
0.894468
0.895938
0.900848
0.908718
0.918721
0.929878
0.941248
0.952089
0.961922
0.970502
0.977752
0.983689
0.988393
0.991985
0.994626
0.996495
0.99777
0.998612
0.999152
0.999489
0.999693
0.999815
0.999886
0.999926
0.99995
0.999965
0.999975
0.999984
0.999991
0.999999
1.00001
1.00001
1.00002
1.00002
1.00002
1.00002
1.00002
1.00002
1.00002
1.00001
1.00001
1.00001
1.00001
1.00001
1.00001
1
0.999993
0.999991
0.999995
0.999996
0.999986
0.999966
0.999952
0.999969
1.00003
1.00009
1.00011
1.00001
0.999712
0.999119
0.998076
0.996334
0.993586
0.989548
0.984004
0.976779
0.967689
0.956639
0.943894
0.930214
0.916603
0.903866
0.89251
0.88307
0.876392
0.873452
0.874893
0.88072
0.890308
0.90259
0.916305
0.930235
0.943406
0.955207
0.965368
0.973861
0.980777
0.986256
0.99046
0.993573
0.995793
0.997317
0.998329
0.99898
0.999387
0.999634
0.999781
0.999867
0.999916
0.999944
0.999962
0.999973
0.999982
0.99999
0.999997
1
1.00001
1.00002
1.00002
1.00002
1.00002
1.00002
1.00002
1.00002
1.00001
1.00001
1.00001
1.00001
1.00001
1.00001
0.999999
0.999991
0.99999
0.999996
0.999998
0.999986
0.999961
0.999944
0.999967
1.00004
1.00012
1.00014
1.00001
0.999654
0.998959
0.997732
0.995673
0.992435
0.987719
0.981293
0.972915
0.962304
0.949365
0.934548
0.918852
0.903317
0.888525
0.874806
0.862906
0.854214
0.850203
0.851695
0.858599
0.870077
0.884833
0.901359
0.918161
0.933997
0.948066
0.960025
0.969885
0.977829
0.984093
0.988905
0.992487
0.995059
0.996839
0.998028
0.998796
0.999277
0.99957
0.999745
0.999847
0.999905
0.999938
0.999958
0.999971
0.99998
0.999988
0.999996
1
1.00001
1.00002
1.00002
1.00002
1.00002
1.00002
1.00002
1.00002
1.00002
1.00001
1.00001
1.00001
1.00002
1.00001
0.999997
0.999988
0.999989
0.999998
1
0.999987
0.999955
0.999934
0.999963
1.00005
1.00015
1.00016
1.00001
0.999599
0.998804
0.997387
0.994997
0.99126
0.985869
0.978565
0.96901
0.956825
0.941973
0.925142
0.90752
0.890002
0.872827
0.856273
0.841595
0.830912
0.826105
0.827945
0.83607
0.849409
0.866526
0.88578
0.905476
0.924109
0.940632
0.954564
0.965907
0.974931
0.981983
0.987384
0.991414
0.994325
0.996355
0.997719
0.998605
0.999162
0.999504
0.999707
0.999825
0.999893
0.999932
0.999954
0.999969
0.999979
0.999987
0.999995
1
1.00001
1.00002
1.00002
1.00002
1.00002
1.00002
1.00002
1.00002
1.00002
1.00001
1.00001
1.00001
1.00002
1.00001
0.999996
0.999985
0.999987
0.999999
1.00001
0.999989
0.999949
0.999923
0.999957
1.00006
1.00017
1.00019
1.00002
0.999556
0.998664
0.997057
0.994338
0.990113
0.984079
0.975929
0.96521
0.951463
0.934767
0.916072
0.89664
0.877064
0.857248
0.837691
0.820439
0.808323
0.803339
0.805899
0.815245
0.830135
0.849151
0.870687
0.892956
0.91423
0.933189
0.949149
0.962037
0.972169
0.980001
0.985961
0.990404
0.993627
0.995887
0.997417
0.998416
0.999049
0.999437
0.999669
0.999804
0.999881
0.999925
0.999951
0.999966
0.999977
0.999986
0.999994
1
1.00001
1.00001
1.00002
1.00002
1.00002
1.00002
1.00002
1.00002
1.00002
1.00001
1.00001
1.00001
1.00002
1.00001
0.999995
0.999982
0.999984
1
1.00001
0.999991
0.999944
0.999911
0.999949
1.00007
1.0002
1.00022
1.00003
0.999528
0.998548
0.996762
0.993729
0.989052
0.982429
0.973498
0.961678
0.946457
0.928079
0.907733
0.886634
0.86499
0.842534
0.820286
0.801186
0.788516
0.784004
0.787488
0.797819
0.813724
0.833969
0.857125
0.881418
0.904949
0.926127
0.944019
0.958419
0.96964
0.97822
0.984695
0.989505
0.992998
0.99546
0.997137
0.998239
0.99894
0.999373
0.999632
0.999783
0.99987
0.999919
0.999947
0.999964
0.999976
0.999985
0.999993
1
1.00001
1.00001
1.00002
1.00002
1.00002
1.00002
1.00002
1.00002
1.00002
1.00001
1.00001
1.00001
1.00002
1.00001
0.999994
0.999979
0.999981
1
1.00002
0.999996
0.999939
0.999896
0.999938
1.00008
1.00023
1.00026
1.00005
0.999522
0.998469
0.996523
0.993207
0.98813
0.981
0.971387
0.958582
0.942053
0.922232
0.900498
0.877921
0.854364
0.82962
0.805415
0.785421
0.772978
0.769278
0.773571
0.784465
0.800799
0.821621
0.845745
0.87147
0.896777
0.919828
0.939434
0.955218
0.967449
0.976714
0.983641
0.988759
0.992472
0.995097
0.996894
0.998083
0.998844
0.999315
0.999598
0.999764
0.99986
0.999914
0.999944
0.999963
0.999975
0.999984
0.999993
1
1.00001
1.00001
1.00002
1.00002
1.00002
1.00002
1.00002
1.00002
1.00002
1.00001
1.00001
1.00001
1.00002
1.00001
0.999994
0.999976
0.999978
1
1.00002
1
0.999936
0.999881
0.999922
1.00008
1.00026
1.0003
1.00009
0.999541
0.998438
0.996359
0.992805
0.987401
0.979868
0.969706
0.956088
0.938484
0.917519
0.894694
0.870903
0.845795
0.819417
0.794164
0.774085
0.762246
0.759262
0.763987
0.774989
0.791307
0.812256
0.836859
0.863504
0.8901
0.914617
0.935633
0.952595
0.965696
0.975546
0.982845
0.988201
0.992075
0.994818
0.996703
0.997958
0.998764
0.999266
0.99957
0.999748
0.999851
0.999909
0.999942
0.999961
0.999974
0.999984
0.999992
1
1.00001
1.00001
1.00002
1.00002
1.00002
1.00002
1.00002
1.00002
1.00002
1.00001
1.00001
1.00001
1.00002
1.00001
0.999995
0.999973
0.999973
1
1.00003
1.00001
0.999938
0.999866
0.999902
1.00007
1.00027
1.00033
1.00014
0.999589
0.998461
0.996288
0.992554
0.986907
0.979089
0.968542
0.954332
0.935947
0.914172
0.890583
0.865929
0.839799
0.812585
0.787113
0.767415
0.756129
0.753459
0.758147
0.768907
0.784985
0.805854
0.830642
0.8578
0.885223
0.910764
0.932824
0.950691
0.964471
0.974771
0.982342
0.987855
0.991827
0.994637
0.996575
0.99787
0.998707
0.999231
0.999548
0.999736
0.999844
0.999905
0.99994
0.99996
0.999973
0.999983
0.999992
0.999999
1.00001
1.00001
1.00002