/*--------------------------------*- C++ -*----------------------------------*\
  =========                 |
  \\      /  F ield         | OpenFOAM: The Open Source CFD Toolbox
   \\    /   O peration     | Website:  https://openfoam.org
    \\  /    A nd           | Version:  6
     \\/     M anipulation  |
\*---------------------------------------------------------------------------*/
FoamFile
{
    version     2.0;
    format      ascii;
    class       surfaceScalarField;
    location    "1.81";
    object      phi;
}
// * * * * * * * * * * * * * * * * * * * * * * * * * * * * * * * * * * * * * //

dimensions      [1 0 -1 0 0 0 0];

internalField   nonuniform List<scalar> 
11670
(
5.56298e-05
6.66567e-05
-0.000262997
0.000140065
3.84687e-07
2.4195e-07
-1.30092e-07
-3.22432e-07
1.95136e-05
6.26094e-05
-0.000264036
0.000181502
7.04878e-06
4.05277e-06
-2.91607e-05
1.78922e-05
1.01021e-06
-7.86035e-07
1.41615e-06
-1.55982e-06
-3.39483e-08
9.20121e-08
3.50973e-08
7.26107e-09
-2.54449e-06
2.06813e-06
-2.05072e-06
2.69892e-06
1.61541e-06
-1.17916e-06
1.02485e-06
-1.16218e-06
-2.51613e-06
-5.69139e-07
3.43448e-07
2.51953e-06
1.66719e-06
1.10061e-06
-6.74315e-07
-1.82056e-06
-4.33887e-06
3.69752e-06
-5.60164e-06
6.22447e-06
-5.26775e-05
1.97967e-06
3.46387e-05
1.62437e-05
1.73704e-08
-3.81749e-08
-1.01396e-07
4.86756e-08
-8.87294e-08
5.60336e-08
4.80567e-08
-1.07591e-07
-3.39213e-06
-8.47439e-05
8.69958e-05
1.37571e-06
-4.51867e-08
3.65084e-08
-5.79444e-08
2.38612e-08
-0.000185042
4.13265e-05
0.000107865
3.60633e-05
-0.000151486
2.88307e-06
8.73462e-05
6.1377e-05
-4.69633e-08
1.61267e-08
-8.1292e-08
5.10549e-08
-3.92421e-08
1.53488e-08
1.89139e-08
-2.78736e-08
8.62044e-05
-0.00026339
0.000242996
-6.56459e-05
-3.01445e-08
7.09604e-09
1.67387e-08
-1.67621e-08
8.09064e-05
-0.000133798
0.000174993
-0.000121932
-6.4394e-05
1.19565e-05
7.57698e-06
4.50626e-05
2.7992e-08
-3.64765e-08
-6.40695e-08
2.36917e-08
-1.24749e-07
1.00202e-07
4.85202e-08
-1.61088e-07
1.89593e-05
-9.45878e-05
2.20901e-05
5.38779e-05
-1.07845e-07
3.81272e-08
-1.16744e-07
7.64295e-08
-4.7908e-07
-1.53561e-05
2.2682e-06
1.36952e-05
1.09612e-07
-1.19941e-07
7.89135e-08
-2.52793e-07
3.13549e-07
-2.42032e-06
2.00938e-07
2.02856e-06
-1.29262e-07
4.32941e-08
-1.43368e-07
9.50699e-08
1.23879e-07
-1.37615e-07
9.81597e-08
-3.12515e-07
-6.87335e-08
-1.76777e-07
5.21277e-07
-1.30759e-07
-1.55219e-07
-5.6255e-07
-3.14616e-08
1.0023e-06
-1.852e-07
1.71348e-07
1.06744e-07
-3.41199e-07
-8.02367e-09
-8.45742e-08
-1.53727e-07
1.03384e-07
-7.08336e-08
4.35866e-08
-2.27617e-07
1.04421e-07
-4.27029e-08
7.48169e-08
1.77338e-07
-8.29624e-08
3.79425e-07
-3.82128e-07
-1.33959e-07
4.2944e-07
2.21814e-08
-7.64215e-08
-1.42988e-07
8.98028e-08
1.71507e-07
-1.71683e-07
2.54725e-07
-8.87211e-08
1.4766e-07
-1.89505e-07
8.53444e-08
-2.78302e-07
-2.28689e-08
1.15411e-07
-7.97058e-08
1.139e-07
-1.04382e-07
6.55983e-08
6.20752e-08
-1.23474e-07
1.21745e-07
-9.51357e-08
1.35016e-07
-6.30184e-08
1.96475e-08
-4.91261e-08
-1.48994e-07
6.28747e-08
-4.28859e-08
8.3974e-08
-6.17317e-08
1.36285e-07
1.20062e-08
-3.30438e-08
-5.54585e-08
3.48306e-08
-4.23145e-09
3.9653e-08
-3.14939e-08
3.89145e-08
6.94381e-08
-8.55108e-08
3.31014e-08
-1.08544e-07
6.53858e-08
-6.25917e-08
1.01866e-07
-3.36371e-08
-3.19869e-10
2.21371e-09
-1.48789e-10
3.66467e-09
-5.21105e-09
4.73591e-09
-8.02052e-09
-1.88882e-10
-7.50791e-12
1.37953e-13
4.59718e-13
6.96317e-12
5.01524e-09
-6.79657e-08
3.01585e-08
-2.57755e-08
-1.48654e-08
6.55826e-08
3.72997e-08
-3.08576e-08
6.31071e-08
-6.10809e-08
-1.23855e-07
4.05141e-08
-4.72566e-08
3.61497e-08
-3.52433e-08
1.01004e-07
-1.04984e-07
3.77573e-08
-1.10771e-07
7.62339e-08
-1.45596e-05
2.21371e-07
5.68559e-06
8.80152e-06
1.05644e-07
-1.15962e-07
7.87114e-08
-2.54925e-07
4.21271e-06
-3.5377e-05
2.67198e-05
4.75142e-06
1.90747e-08
-5.88696e-08
-1.04908e-07
6.58866e-08
1.23167e-07
-1.54845e-07
6.26155e-08
-2.07885e-07
1.74138e-07
-1.80779e-07
2.34389e-07
-6.76525e-08
-1.61907e-08
8.96981e-08
-6.29788e-08
8.02431e-08
2.39681e-08
-8.58759e-08
1.06985e-07
-1.70333e-07
-3.35703e-07
2.08106e-07
2.8862e-08
2.55407e-07
2.80772e-07
-6.92917e-07
7.2475e-07
-5.75054e-08
3.00237e-07
-3.54049e-07
-9.47459e-08
3.93642e-07
-7.41843e-08
1.23401e-07
1.79732e-07
-9.07415e-08
-1.55491e-07
3.51736e-08
9.97487e-08
-1.3169e-07
1.39736e-07
-1.31725e-07
-3.6135e-07
1.07332e-07
-1.2778e-07
4.32898e-08
-1.39825e-07
9.49539e-08
1.21643e-07
-1.34421e-07
9.80399e-08
-3.15137e-07
3.47382e-07
-2.3026e-06
1.47035e-06
6.38136e-07
-4.39853e-06
5.95851e-07
3.61272e-06
4.46212e-07
-5.63159e-08
1.82239e-07
9.99479e-08
-7.84675e-08
1.58801e-08
-1.06411e-07
-9.79212e-08
7.18175e-08
1.36169e-07
-1.72535e-07
1.13276e-07
-3.13288e-07
-1.38199e-07
1.0694e-07
-8.98665e-08
2.6208e-07
-3.64646e-07
3.90907e-07
4.93768e-07
-0.000179798
3.64191e-05
0.000162435
-0.000136411
2.43739e-05
0.000167193
-1.17998e-06
1.29878e-06
-2.49578e-06
5.44764e-07
-3.18175e-07
8.2997e-07
7.31826e-09
6.34168e-08
-2.30709e-08
5.84686e-07
-9.88678e-07
2.2398e-06
-1.40445e-05
5.53256e-07
2.03566e-05
5.80774e-07
-1.1426e-06
-2.13741e-06
-1.44871e-06
1.50843e-06
1.82493e-06
-1.97454e-06
2.02294e-06
-4.35757e-06
-3.52458e-07
8.5712e-07
-4.69515e-06
4.02379e-06
-2.09832e-06
-2.87613e-07
1.59173e-07
2.16295e-06
6.66572e-11
-1.59908e-08
3.46684e-08
-2.07395e-09
-3.7479e-08
7.15094e-07
1.23094e-08
-6.7769e-07
2.95437e-07
9.83807e-07
-1.45783e-06
1.94811e-07
-2.79418e-06
3.95273e-05
-3.251e-05
-4.05117e-06
-6.43514e-08
1.03869e-06
1.1695e-08
-9.77155e-07
-3.89684e-07
-1.11902e-06
1.93831e-06
-5.16434e-07
-1.367e-06
-4.69431e-06
3.78935e-06
4.25458e-08
1.11951e-07
-2.5228e-07
3.63201e-08
8.92653e-09
-4.39614e-08
-7.81346e-08
1.61518e-07
-2.14499e-06
-3.00399e-05
1.54574e-05
1.66675e-05
-1.0241e-07
1.4968e-07
1.39156e-08
-7.31614e-08
2.09334e-07
-2.18811e-07
6.20459e-08
-3.93074e-05
7.8041e-06
2.9312e-05
-1.32353e-08
-3.02326e-07
2.98136e-07
9.13368e-07
-1.00917e-06
4.07675e-08
2.06563e-06
3.23421e-08
-1.7901e-06
2.92172e-08
1.57467e-09
-1.43812e-08
2.49347e-05
-1.75922e-05
-9.98158e-06
-2.33489e-06
-2.62953e-07
2.12974e-06
3.86081e-07
-4.35818e-07
2.46413e-08
3.21515e-07
5.05671e-07
8.01223e-07
-1.79548e-06
1.18357e-06
8.56136e-07
-1.88527e-06
1.83716e-09
7.29232e-07
-6.33188e-09
-5.87909e-07
-4.43535e-07
-5.70506e-09
5.87905e-07
4.10542e-06
-7.86479e-05
-4.59096e-05
0.000120288
-6.2747e-05
-4.7722e-05
0.000114394
-9.70404e-08
-3.35517e-07
5.15199e-07
-1.70406e-07
-5.60449e-07
-3.38637e-07
7.14281e-07
-1.29247e-06
-1.74689e-06
-3.343e-06
6.14565e-06
-4.85571e-06
-3.1265e-06
6.45304e-06
-1.06927e-06
5.30992e-06
3.61926e-06
-7.78155e-06
2.18185e-06
3.57077e-06
-6.74351e-06
2.84343e-07
7.2108e-07
1.37516e-06
-2.31748e-06
2.20378e-06
1.35734e-06
-3.21366e-06
-4.17716e-07
1.75915e-06
1.64059e-06
-2.92284e-06
1.38853e-06
1.62538e-06
-3.37243e-06
-1.50524e-10
-8.29442e-08
-5.65484e-10
1.14568e-07
1.46071e-07
-5.37443e-10
-1.14776e-07
-1.98299e-06
1.28503e-06
-5.28417e-07
-2.26462e-07
6.08357e-07
4.21419e-07
6.60304e-07
-3.2519e-07
5.50476e-07
-5.15393e-07
-0.000228291
-0.000260363
0.000141366
0.000346388
5.49538e-07
-2.26e-07
4.0094e-07
-4.2825e-07
4.359e-06
-0.000233183
8.65133e-05
0.000141032
-3.85657e-07
-1.56679e-07
4.03384e-07
3.25392e-07
3.78843e-07
-1.20577e-07
2.36176e-07
-2.82152e-07
-1.64934e-07
-8.12901e-08
1.82083e-07
1.56981e-07
-0.000133126
-0.000249815
9.02039e-05
0.000292344
-1.64509e-05
-0.000234469
5.29147e-05
0.000197177
-0.000350582
-0.0002264
0.000152491
0.000423031
0.000115039
-0.000298509
9.17791e-05
8.99105e-05
-0.00021428
0.000108757
-0.000131697
0.000236566
3.71957e-05
5.98025e-05
-0.000201718
0.000103726
1.74941e-06
1.28309e-06
-1.303e-06
-1.31917e-06
-1.16901e-06
1.26619e-06
-7.90346e-07
9.77599e-07
-0.000161453
-0.000125519
9.52705e-05
0.000191203
-2.13066e-06
2.19583e-06
-1.40184e-06
1.72234e-06
1.95628e-06
1.54491e-06
-1.65223e-06
-1.48673e-06
1.17468e-06
-6.33665e-07
5.01239e-07
-7.77817e-07
-0.000106634
-0.000126035
6.94012e-05
0.000162888
3.95895e-06
1.12434e-05
-4.62214e-05
3.10552e-05
-1.24254e-05
2.67583e-06
-3.8747e-06
1.36458e-05
5.61357e-06
3.27664e-06
-4.33632e-06
-4.32131e-06
-6.25503e-06
-3.95447e-07
-4.70623e-07
6.90765e-06
-7.5204e-05
-3.54248e-05
3.43837e-05
7.60354e-05
-1.5068e-06
-3.62243e-06
2.78709e-06
2.58217e-06
2.49646e-06
1.21461e-06
-1.99552e-06
-1.41106e-06
2.50461e-06
1.38703e-06
-1.85154e-06
-1.70841e-06
1.5995e-06
-3.49538e-06
4.97819e-06
-2.93412e-06
-1.47022e-05
1.04355e-05
-3.69513e-05
4.14836e-05
3.57194e-06
1.32146e-06
-2.17973e-06
-2.46595e-06
-4.15779e-06
3.7174e-06
-2.66504e-06
3.32299e-06
-4.21008e-06
9.70229e-08
-4.6128e-06
8.65974e-06
-3.8602e-06
-1.22374e-06
3.13947e-06
2.18447e-06
-1.22465e-06
1.5093e-06
-1.14831e-06
1.23278e-06
-1.24792e-07
-9.62529e-07
-4.88711e-07
1.27644e-06
-3.88824e-06
2.53084e-06
2.60182e-08
1.32747e-06
-4.72281e-06
-1.42249e-06
1.79139e-06
4.1637e-06
4.18756e-06
2.17791e-07
-2.5058e-06
-1.87953e-06
4.12675e-06
2.06004e-06
-2.91322e-06
-3.10133e-06
-1.82195e-06
6.82676e-07
1.31048e-08
1.03165e-06
2.53896e-06
1.21216e-06
-1.72579e-06
-1.77766e-06
-1.62395e-05
9.28142e-06
-3.44807e-05
4.16295e-05
-2.08922e-07
-1.72857e-06
-1.31706e-06
3.25951e-06
-1.08596e-05
-1.18806e-05
3.31692e-06
1.91817e-05
2.0999e-06
-1.17626e-06
-2.82304e-06
2.14649e-06
-8.72251e-07
8.57765e-07
-3.57927e-07
6.02846e-07
-8.01029e-07
-2.76756e-07
5.80498e-07
5.71146e-07
3.36198e-07
-2.89922e-07
2.34678e-07
-3.2547e-07
-3.15216e-06
2.71815e-06
-2.11239e-06
2.77542e-06
2.37238e-06
-1.68899e-06
6.97894e-07
-1.59281e-06
-1.20956e-06
1.34771e-06
-1.03972e-06
1.21522e-06
-7.71765e-07
-7.46407e-08
7.44133e-07
2.03196e-07
6.32086e-07
-4.83823e-07
5.74953e-08
-1.66321e-07
4.14567e-08
2.25286e-07
-1.30241e-07
-7.21904e-11
-2.14265e-08
-7.52717e-10
7.96815e-11
1.71782e-09
2.04428e-08
-4.45252e-11
5.62688e-11
-9.1876e-08
2.63403e-07
-1.55842e-07
-4.27802e-07
1.02569e-06
-1.37532e-06
9.84604e-07
1.18342e-06
-6.76236e-07
4.96721e-07
-8.60738e-07
-7.60141e-11
-4.84796e-08
-8.88629e-08
1.3532e-10
-6.03052e-11
-3.52672e-08
-2.22542e-08
1.48501e-10
1.27238e-07
1.12271e-09
-6.8989e-08
-7.01584e-08
3.32307e-07
4.6008e-08
-7.90841e-08
-1.58696e-07
1.24805e-07
1.71973e-09
4.87087e-08
-6.9844e-08
-0.000105906
-0.000233732
6.17538e-05
0.000277511
-8.39605e-05
-0.000262574
8.27981e-05
0.00026384
7.1219e-10
8.39539e-08
5.41678e-08
1.2722e-11
1.42049e-11
-1.12276e-07
-7.72157e-08
7.10672e-11
-1.43966e-10
-1.02857e-07
-1.60062e-07
1.85486e-10
1.07506e-07
1.51443e-07
-9.52103e-11
6.65427e-10
2.59639e-06
5.46095e-07
-1.53809e-06
-1.89991e-06
-1.28548e-06
-5.07198e-07
1.25303e-06
7.6479e-07
1.12697e-06
-7.98319e-07
-2.32116e-06
1.72018e-06
5.51389e-06
-3.40018e-06
1.77172e-06
-3.93158e-06
-2.78048e-06
2.25322e-06
-1.80218e-07
7.50418e-07
6.23769e-07
2.41179e-07
-3.53884e-07
-3.46539e-07
-3.41209e-06
2.01177e-06
-1.34231e-06
2.67166e-06
-7.76049e-07
4.96298e-07
-9.6788e-08
5.28259e-07
-1.51313e-06
7.3351e-07
2.18904e-08
6.98567e-07
2.29199e-06
-1.52727e-06
9.97663e-07
-1.60411e-06
1.0644e-09
1.8159e-07
1.41006e-07
-6.82717e-11
-1.73601e-10
1.71508e-07
2.18112e-07
9.92384e-10
3.08769e-08
-1.92321e-07
-7.83386e-08
3.29016e-08
-2.07985e-06
-7.87819e-07
9.29578e-07
1.56266e-06
1.14952e-06
-5.80389e-07
-1.19064e-06
9.11416e-07
1.33669e-06
8.13421e-07
-8.47287e-07
-9.78067e-07
1.88858e-06
-1.30408e-06
6.28601e-07
-1.57123e-06
2.44361e-06
4.66852e-08
-1.91562e-06
-5.93793e-07
-1.93947e-06
3.07583e-06
-4.35996e-06
3.23205e-06
-7.17961e-07
-6.44773e-08
-3.01914e-08
5.28173e-07
2.14328e-06
9.86412e-07
-1.52757e-06
-1.72888e-06
-0.000298049
-0.000117249
0.000176555
0.000237556
6.22729e-07
-3.46659e-07
5.3452e-07
-4.82753e-07
-7.05719e-07
-3.03613e-07
8.24697e-07
5.63882e-07
7.82677e-07
-3.00383e-08
-5.15142e-07
-3.40408e-07
-1.057e-06
-8.92567e-07
1.13605e-06
1.06433e-06
-2.20726e-06
8.56306e-07
4.29225e-06
-3.07071e-06
-1.25032e-06
1.30805e-06
-7.35663e-07
1.00899e-06
1.43783e-06
1.17005e-06
-1.05866e-06
-1.15893e-06
-2.15788e-06
1.81908e-06
-9.94476e-07
1.61179e-06
-0.000152713
0.000113503
-0.000161592
0.000200363
1.2554e-06
-1.51675e-06
2.10396e-06
-1.57218e-06
0.000111057
-0.00024665
7.90956e-05
5.59917e-05
-2.27736e-06
1.52037e-06
1.73429e-06
3.1033e-06
-1.94169e-06
9.51967e-07
-2.16988e-06
2.45002e-06
-1.40548e-06
-2.83693e-06
2.03624e-06
-1.51975e-06
8.56157e-07
-5.07832e-07
1.11701e-06
-8.90934e-07
-2.11232e-07
2.25039e-07
5.76503e-07
-3.33281e-06
-8.93851e-07
1.73134e-06
2.42596e-06
1.54406e-06
7.47703e-07
-1.27286e-06
-2.14479e-06
-9.2477e-07
1.40619e-06
1.68847e-06
2.80611e-06
1.44102e-06
-1.98869e-06
-2.06415e-06
6.37808e-07
3.58573e-07
-5.07098e-07
-6.28308e-07
5.48696e-07
-2.35858e-07
-2.8295e-07
-2.33443e-06
5.75677e-07
-4.65228e-06
6.16936e-06
3.51387e-06
2.24788e-06
-2.86466e-06
-2.66875e-06
5.44226e-07
1.59951e-07
-1.60092e-07
-2.7435e-07
5.33798e-06
2.62343e-06
-3.83913e-06
-4.13007e-06
4.64415e-07
3.47109e-08
-1.7526e-07
-2.13887e-07
-3.5815e-06
2.99269e-06
-1.87379e-06
2.69681e-06
6.2799e-07
-2.10956e-07
1.14378e-07
-3.19293e-07
4.85256e-05
-4.73291e-05
-1.2865e-05
1.1357e-05
5.70236e-06
2.46897e-06
-3.88166e-06
-4.41661e-06
-6.19234e-06
4.3599e-06
-3.07069e-06
4.91735e-06
3.26845e-06
5.87616e-07
-2.02102e-06
-2.00232e-06
-1.77219e-05
-3.53181e-05
6.54355e-06
4.65406e-05
-8.23207e-05
-1.47123e-05
1.48886e-05
8.21551e-05
-2.39835e-06
8.31273e-07
-4.14228e-09
1.48585e-06
-4.08485e-05
-7.89482e-05
7.3937e-06
0.000112418
1.75258e-06
2.78691e-07
-1.0595e-06
-8.28967e-07
-7.76879e-08
-1.31895e-06
2.46089e-06
-1.1931e-06
-2.52065e-06
1.11195e-06
7.32765e-08
1.22208e-06
-0.000130367
1.44508e-05
-1.1861e-05
0.000127889
-0.000139882
-0.000109957
3.46913e-05
0.000215245
1.43645e-07
1.94593e-07
-3.30799e-12
2.99314e-11
-4.23446e-11
1.69625e-07
1.17787e-07
8.80177e-11
1.61906e-06
-4.39842e-08
-7.95142e-07
-8.20279e-07
-1.14272e-06
6.46057e-07
-9.18586e-08
5.80943e-07
-6.6295e-06
4.24539e-06
-3.00677e-06
5.26697e-06
4.09816e-06
-3.23652e-06
7.04478e-07
-1.47768e-06
-1.16149e-06
3.47345e-07
-4.47411e-07
9.35919e-07
1.22013e-06
2.49756e-07
-7.98852e-07
-1.01635e-06
-1.29813e-06
1.16212e-06
-5.78262e-07
9.8436e-07
9.83307e-07
-9.79274e-07
1.48312e-06
-1.17757e-06
-1.33971e-06
-1.38158e-07
1.23185e-06
3.52083e-07
-1.37981e-06
7.8604e-07
7.02578e-08
3.44793e-07
-2.62285e-05
-0.000182086
3.89509e-05
0.0001697
5.20047e-08
7.12316e-07
-1.705e-06
8.26718e-07
3.57563e-07
8.13756e-08
-3.00497e-07
-2.29283e-07
-9.80299e-07
-4.98678e-08
1.74679e-06
-8.46807e-07
1.67717e-06
-1.02621e-06
-5.50522e-08
-7.3961e-07
1.25859e-06
1.78349e-07
-7.77977e-07
-9.46764e-07
8.53382e-07
-3.04214e-08
-7.50142e-07
-2.13081e-07
3.50289e-07
-3.46698e-07
-1.12995e-06
8.57013e-07
1.76776e-05
-0.000102015
0.000118224
-3.32537e-05
-1.92197e-05
1.89381e-05
-5.2831e-05
5.33515e-05
1.17084e-06
-9.30029e-07
1.12055e-07
-3.08777e-07
-7.16011e-05
3.57886e-05
-4.26811e-05
7.85687e-05
1.05099e-07
-4.89213e-07
6.92904e-07
-4.34194e-07
2.45236e-06
-8.74234e-09
-1.19539e-06
-1.46931e-06
1.64881e-06
-1.23296e-06
6.444e-07
-9.50851e-07
-1.17513e-06
4.07707e-07
-1.49713e-07
6.55268e-07
-2.16158e-06
1.00189e-07
9.55092e-07
9.52838e-07
-0.000247393
8.07849e-05
-0.000368995
0.000536594
-5.5304e-07
-1.87348e-07
5.64258e-07
4.23436e-07
1.67989e-05
-0.000250022
7.74821e-05
0.000154741
-0.000230767
0.000158705
-0.00037483
0.000445526
-9.51073e-05
-0.000314918
2.58836e-05
0.000385108
-0.000152362
4.00285e-05
-5.74918e-05
0.000170049
-0.000301724
-0.000313961
0.000131812
0.000485119
-2.56212e-07
5.61985e-08
-6.82588e-09
1.09178e-07
-3.71019e-05
-0.000275879
6.39357e-05
0.000250149
5.15719e-07
-2.68972e-07
3.82676e-07
-4.40005e-07
-0.000147453
0.00011156
-0.000189956
0.000225824
-9.74519e-05
-0.000124504
0.000148113
7.29955e-05
-3.05012e-05
0.000105835
-0.000285838
0.000210633
-0.000175681
-0.000178728
0.000120375
0.000233827
-0.000163843
-0.000171137
0.000101176
0.000234254
-4.40169e-07
-1.12122e-07
4.34525e-07
2.77681e-07
-9.02023e-07
-1.78317e-07
2.91871e-07
5.77166e-07
4.09264e-06
-2.77812e-06
8.08926e-07
-2.27939e-06
-5.08476e-05
2.97284e-05
-9.07182e-05
0.000111995
-6.18274e-07
3.31951e-07
8.53671e-07
-7.94218e-07
-1.1095e-06
1.19873e-06
-6.52183e-07
7.79279e-07
-7.27094e-07
8.48658e-07
-5.90923e-07
7.34756e-07
9.18873e-07
-1.45016e-06
6.09086e-07
-3.74376e-07
5.24265e-07
-6.69966e-07
6.1858e-07
-4.22674e-05
-0.000103531
0.000115617
1.37311e-06
3.14457e-07
-9.7566e-07
-9.79118e-05
-4.20998e-05
0.000100411
-3.74505e-06
-6.5979e-07
2.1546e-06
2.07376e-06
1.06172e-06
-8.70428e-07
5.19094e-07
-1.04642e-06
-0.000313012
-0.000152463
0.000118077
0.000347991
3.24408e-06
-2.01387e-06
-4.28725e-06
3.27539e-06
5.34363e-06
-3.51169e-06
2.06194e-06
-4.12642e-06
-2.45696e-05
2.89554e-05
-9.65685e-05
9.27696e-05
4.6068e-06
2.68939e-06
-4.04395e-06
-3.00597e-06
-3.09203e-06
-9.76331e-07
1.28548e-06
2.51764e-06
3.97777e-06
6.91902e-07
-2.11942e-06
-2.39961e-06
-5.79893e-06
4.97189e-06
1.26768e-06
-6.2604e-07
-1.72694e-06
-3.82088e-07
6.47788e-07
1.20712e-06
1.37871e-06
8.14586e-07
-9.08337e-07
-9.6405e-07
2.14883e-06
-1.38116e-06
7.99243e-07
-1.88639e-06
4.58751e-07
8.1749e-08
-3.21412e-07
-3.32763e-07
-2.0289e-07
1.2919e-07
-1.40397e-07
2.01171e-07
-0.000110342
-0.000235503
4.72947e-05
0.000298624
-3.69409e-05
1.52292e-05
-4.60887e-05
6.81232e-05
-5.78884e-05
-0.00028243
9.89137e-05
0.000241992
-1.04835e-06
3.2498e-07
-4.75983e-08
6.63613e-07
-3.67737e-06
1.91373e-06
5.85795e-06
-4.25942e-06
1.66246e-06
2.2552e-08
-8.60107e-07
-9.72482e-07
2.80518e-06
-1.56443e-06
7.00182e-07
-2.2221e-06
1.87735e-06
8.56066e-07
-1.36324e-06
-1.11394e-06
-2.29452e-06
-6.65488e-07
1.01669e-06
1.5842e-06
-3.71965e-05
-2.87856e-05
9.66424e-06
5.65564e-05
2.05647e-06
5.44968e-07
-1.203e-06
-1.64268e-06
2.61374e-06
1.47751e-06
-1.90058e-06
-2.20769e-06
-3.13811e-06
-1.54799e-06
-7.43636e-07
5.77756e-06
4.85603e-06
-2.52437e-06
4.66604e-07
-2.85668e-06
-6.01877e-06
-2.50016e-06
4.239e-06
4.34596e-06
-9.19817e-06
2.68864e-06
-9.05409e-06
1.58656e-05
-6.21108e-06
-2.62611e-06
3.66764e-06
4.92146e-06
-4.71516e-05
3.75061e-05
-9.74324e-05
0.000107647
4.30453e-06
1.90868e-06
-2.98734e-06
-3.03397e-06
-1.51155e-05
6.52034e-06
3.39686e-05
-1.23185e-07
-1.30879e-06
1.68002e-06
-4.2924e-07
-2.91561e-06
-9.1814e-07
1.28917e-06
2.19118e-06
-6.54066e-06
-1.99494e-06
3.6144e-06
4.78231e-06
-4.51542e-05
1.84828e-05
-5.40012e-05
8.09267e-05
-2.01536e-06
1.41154e-06
-3.46289e-07
1.15675e-06
-2.46104e-06
2.43905e-06
-4.41891e-07
6.4647e-07
4.68772e-06
2.00664e-06
-2.9868e-06
-3.81906e-06
3.34662e-06
-2.2675e-06
1.53217e-06
-2.28517e-06
-9.36805e-07
1.76531e-06
-4.04437e-06
2.88785e-06
2.16974e-06
-4.12711e-06
-1.03921e-06
3.39227e-06
1.6805e-06
-8.53869e-07
-3.64033e-06
2.55321e-06
-2.81263e-06
2.10131e-06
-1.31093e-06
2.07486e-06
4.03058e-06
-2.30161e-06
4.87641e-07
-2.46797e-06
-1.65013e-05
5.0388e-06
-3.50206e-05
4.69452e-05
1.43782e-06
-8.67927e-07
4.61209e-07
-7.90594e-07
-4.11681e-06
-1.14616e-06
2.44199e-06
2.62995e-06
-8.24759e-07
4.57273e-07
-2.87939e-07
6.42375e-07
1.34354e-06
2.25774e-07
-7.44927e-07
-9.16475e-07
6.9208e-07
-3.92093e-07
2.95952e-08
-4.83887e-07
-1.08378e-11
-8.665e-08
-1.32368e-07
3.78026e-11
-2.43992e-08
5.37093e-08
1.48291e-07
8.07051e-09
6.7035e-07
4.34372e-08
-1.84723e-06
9.87117e-07
-8.18275e-09
-1.22461e-07
6.55677e-08
-3.07875e-12
-7.49833e-08
-5.26804e-08
3.16828e-11
2.20799e-06
-1.19016e-06
3.46878e-07
-1.6293e-06
1.71591e-08
9.10256e-08
2.58469e-08
2.04225e-08
-6.66404e-09
3.49743e-08
6.81659e-08
-3.29465e-09
6.96577e-11
-1.1462e-07
-1.80967e-07
3.77875e-11
-4.57671e-07
8.90161e-07
-2.40579e-06
1.6952e-06
-1.41369e-06
8.16386e-08
7.84257e-07
3.53928e-07
-1.24323e-06
-3.60098e-07
9.64648e-07
8.37512e-07
6.14726e-07
3.48226e-07
-5.06458e-07
-4.46434e-07
-1.27541e-06
8.22931e-07
-3.75181e-07
7.56729e-07
1.09395e-06
-9.43998e-07
-4.11818e-08
-2.73873e-07
1.13796e-06
-7.50568e-07
4.98128e-07
-7.58558e-07
-9.06869e-07
7.83746e-07
-1.68758e-07
4.44355e-07
-3.229e-11
-1.43408e-07
-9.76104e-08
1.20564e-10
-2.17516e-11
-3.10849e-08
-5.78531e-08
3.17366e-11
-5.10601e-07
2.80018e-07
-9.08812e-08
3.28867e-07
-4.41788e-07
1.82276e-07
-3.17096e-08
1.57498e-07
5.13827e-07
-3.22674e-07
7.96234e-08
-2.89045e-07
3.52835e-07
-1.19633e-07
5.61312e-08
-1.95989e-07
1.8308e-06
-1.35854e-06
8.02482e-07
-1.63339e-06
1.32651e-06
-3.34098e-06
3.45353e-07
1.98438e-06
-5.35235e-06
-1.71236e-06
2.9534e-06
4.28876e-06
-2.5716e-06
1.61315e-06
1.28946e-07
6.61001e-07
3.08223e-06
9.35317e-07
-2.31682e-06
-1.38434e-06
-1.61594e-05
8.99149e-06
4.72526e-05
1.00886e-06
-1.53572e-07
-9.31382e-07
2.33914e-07
1.12391e-06
3.49033e-07
-6.30141e-07
-6.40034e-07
-1.52915e-06
5.09067e-07
-2.3097e-07
9.84728e-07
-5.81969e-06
3.4887e-06
-2.41313e-06
4.6429e-06
2.74926e-06
4.49249e-07
-2.31612e-06
-7.21699e-07
-2.98314e-06
2.8688e-06
-4.81602e-07
7.61637e-07
2.94821e-06
-1.09197e-06
-4.04422e-06
2.2204e-06
-1.94631e-05
1.62157e-05
-4.19986e-05
4.59138e-05
-6.05649e-06
3.74829e-06
-1.46273e-06
3.60104e-06
2.09247e-06
-1.63357e-06
-1.17795e-07
-5.30649e-07
-3.37404e-06
-1.07833e-06
1.6006e-06
2.42923e-06
-1.00849e-06
-8.50106e-07
1.12545e-06
9.91667e-07
2.36881e-07
-1.02731e-06
1.30152e-06
-3.24086e-07
-2.17893e-06
-4.00494e-07
1.01294e-06
1.36678e-06
2.01907e-06
2.60379e-07
-3.05602e-06
6.99893e-07
-1.04573e-06
3.1233e-06
-4.64176e-06
2.62372e-06
2.53533e-06
4.0824e-07
-1.20141e-06
-1.56623e-06
3.10436e-06
4.48053e-07
-2.63335e-06
-7.92677e-07
-2.67818e-06
1.49265e-07
1.64865e-06
6.8029e-07
-4.15947e-06
2.20863e-06
-2.97926e-06
4.77899e-06
2.73737e-06
-1.80828e-06
1.27571e-06
-1.97107e-06
-8.26712e-07
-6.59211e-07
8.457e-07
8.21686e-07
-1.75742e-05
5.92559e-06
-2.67139e-05
3.80718e-05
4.54789e-06
-3.48158e-06
3.8672e-08
-1.16927e-06
-4.46372e-06
3.50568e-06
-1.53744e-06
2.55465e-06
2.72936e-06
-1.08031e-06
-3.43607e-06
1.76781e-06
-2.31111e-06
1.47809e-06
1.87866e-06
5.43424e-06
2.56878e-07
-3.29345e-06
-2.47188e-06
-4.46773e-06
-2.11122e-07
3.50366e-06
1.16951e-06
2.24983e-06
-1.40866e-06
9.16257e-07
-1.64401e-06
-1.84814e-05
4.16625e-06
-2.06066e-05
3.47427e-05
-1.4995e-05
6.18749e-06
-2.46792e-05
3.3448e-05
1.15693e-06
3.81266e-06
-2.89958e-06
4.35956e-06
-3.02448e-06
1.21328e-06
-2.63145e-06
-5.89523e-06
8.32949e-06
-3.60658e-05
3.36114e-05
-3.6999e-06
2.28786e-06
4.49634e-06
-2.87336e-06
-5.32361e-06
2.94625e-06
-1.9543e-06
4.05094e-06
3.16643e-06
-1.96479e-06
-5.55923e-06
4.32541e-06
6.33023e-06
-3.49307e-06
1.69943e-06
-4.51974e-06
2.91616e-06
-3.0513e-06
1.9484e-06
-1.52039e-06
-4.60482e-06
2.41646e-06
-1.25973e-06
3.33847e-06
-1.8194e-05
6.00693e-06
-3.22235e-05
4.44558e-05
-3.77654e-06
-1.19082e-07
1.95567e-06
1.83748e-06
2.82354e-06
2.24854e-06
-4.4423e-06
-5.62765e-07
-1.66009e-06
5.56733e-07
-2.60912e-07
1.11461e-06
-3.95402e-06
-2.41675e-06
3.09206e-06
3.49513e-06
3.62492e-06
1.48346e-06
-2.41299e-06
-2.95251e-06
4.34005e-06
1.44847e-06
-2.4814e-06
-3.3616e-06
-1.65473e-06
3.16486e-06
-5.37734e-06
3.91879e-06
-3.27522e-06
-8.89065e-08
4.3507e-06
-1.11232e-06
-2.30913e-06
-2.53876e-06
2.46109e-06
2.71663e-06
1.43153e-06
-9.24881e-07
5.07333e-07
-8.40749e-07
1.20233e-06
-2.17548e-06
3.63853e-06
-2.81789e-06
-1.04905e-05
1.02306e-05
-3.71664e-05
3.74844e-05
1.85527e-06
5.41684e-07
-1.32622e-06
-1.24802e-06
-1.91055e-06
-4.41495e-07
1.35048e-06
1.17392e-06
-4.25784e-06
-4.53885e-08
3.13846e-06
1.09235e-06
-1.22111e-06
-5.0255e-06
3.61643e-06
-1.77842e-06
3.27268e-06
-5.96669e-06
4.21971e-06
-2.58274e-05
1.53534e-05
-4.10585e-05
5.17499e-05
4.63008e-06
-2.51036e-06
-3.5162e-06
-3.10371e-06
-9.60261e-07
1.49572e-06
2.14692e-06
-4.07703e-06
-1.67287e-06
3.52733e-06
2.36682e-06
5.43755e-06
-3.10124e-06
1.47284e-06
-4.05631e-06
-1.70045e-05
5.97661e-06
-4.74002e-05
5.86376e-05
-3.68754e-06
-1.09861e-06
1.82796e-06
2.55043e-06
-3.63544e-07
3.14845e-06
-8.08401e-06
5.62468e-06
3.967e-06
1.89014e-07
-2.28934e-06
-1.91963e-06
-3.23343e-05
9.3198e-06
-1.69144e-05
4.01622e-05
1.64374e-06
-1.26373e-06
6.60226e-07
-1.36666e-06
-2.27783e-06
8.23027e-07
4.38759e-06
-3.09106e-06
-2.54863e-06
1.86247e-06
-1.04953e-06
1.90385e-06
-3.80032e-06
3.45352e-06
-1.14837e-05
1.21808e-05
1.99351e-06
-1.46912e-06
7.85353e-07
-1.65803e-06
2.24442e-06
1.96796e-07
-1.31805e-06
-1.08288e-06
2.6766e-06
2.56198e-07
-1.28761e-06
-1.69461e-06
-2.92967e-06
-1.1157e-06
2.33979e-06
1.75952e-06
-1.03007e-06
4.66005e-07
-7.07652e-08
5.26039e-07
-5.01833e-07
1.1707e-07
1.05228e-06
-5.81855e-07
-1.01957e-06
1.96071e-06
-4.04438e-06
2.98511e-06
1.42146e-06
-1.80368e-06
2.7276e-06
-2.19281e-06
-1.2992e-06
1.04498e-06
-5.98257e-08
3.24915e-07
2.3453e-06
-1.55345e-06
9.00732e-07
-1.69656e-06
1.84902e-06
7.45904e-07
-1.37485e-06
-1.20635e-06
-9.88703e-07
4.55651e-07
-1.83305e-07
6.32629e-07
9.29406e-07
1.17273e-08
-7.61814e-07
-2.32358e-07
-1.47407e-06
-9.81226e-07
1.20717e-06
1.34202e-06
6.52931e-06
-5.70318e-06
-2.33113e-08
-2.30481e-09
-1.32755e-07
2.38178e-06
1.336e-06
-5.43369e-07
8.77122e-06
4.27355e-05
-8.36018e-05
-1.25377e-07
1.91622e-06
-1.54215e-06
1.52125e-06
2.5318e-07
-2.02748e-07
3.04518e-06
-5.04719e-05
-9.70313e-08
8.89661e-07
-1.66548e-07
3.04338e-08
2.02101e-07
-9.26598e-07
9.71442e-06
-8.07121e-05
-2.04442e-07
1.23294e-06
-9.13056e-07
6.28835e-06
-3.08882e-07
7.49535e-07
-1.71236e-08
2.12061e-07
1.4956e-05
3.0687e-05
-6.28622e-05
2.85243e-07
6.43531e-08
1.07602e-06
-6.38981e-06
0.000183431
-0.000467405
-6.90035e-05
-2.80249e-07
4.54999e-07
-3.95451e-07
-2.49291e-07
6.64953e-07
4.75437e-07
0.000280127
-0.000481587
0.000203738
-0.000337621
0.000103078
5.26313e-06
-0.000290913
0.000136122
0.000137433
-1.83507e-07
2.91118e-07
-2.72614e-07
-1.59882e-07
4.36508e-07
3.47037e-07
1.0868e-06
-5.13339e-07
6.75754e-07
2.74015e-06
-2.22986e-06
-2.04081e-06
6.99476e-05
-0.000228021
-4.08651e-06
-0.000275908
0.000157407
-9.70625e-05
-1.90961e-06
2.33958e-06
1.87828e-06
-8.21023e-07
1.26107e-06
1.06582e-06
-9.56593e-07
9.1978e-07
-8.33284e-07
0.000115073
-0.000217158
0.000138403
-0.000303604
7.9935e-05
0.000117375
-5.3911e-08
1.52333e-07
1.48418e-07
-0.000363028
0.000161647
-9.86489e-05
1.17413e-06
-5.698e-07
-6.91864e-07
-2.73611e-07
4.10278e-07
4.2416e-07
-1.6434e-06
1.59773e-06
-1.76903e-06
-0.000235848
9.24737e-05
-9.90507e-06
2.7017e-06
-2.29214e-06
2.54001e-06
-9.46104e-05
4.42722e-05
-2.54192e-05
-2.98726e-06
2.36112e-06
-2.67365e-06
-0.000300855
9.57602e-05
7.15346e-05
-6.3467e-08
9.83733e-08
-8.98093e-08
8.76114e-05
-0.000194473
-4.06892e-07
1.23165e-05
-5.24084e-05
2.38594e-05
-8.21869e-06
-2.9625e-06
1.09572e-05
5.71317e-07
-4.14533e-07
5.49272e-07
8.27016e-07
-6.06037e-07
-9.1447e-07
-4.97357e-06
-7.77214e-07
-7.7551e-07
-3.94558e-06
4.43238e-06
-4.26736e-06
1.3635e-05
-3.34797e-05
7.41314e-06
1.99457e-07
-1.28905e-07
2.07611e-07
-1.55986e-05
4.15821e-06
7.01181e-06
5.57981e-06
-5.51703e-06
5.79389e-06
-3.16306e-06
2.87526e-06
3.22982e-06
-7.50528e-08
-1.08511e-07
9.39402e-11
1.03776e-07
8.41053e-08
7.88056e-09
-9.96398e-08
-6.57595e-08
4.26325e-11
-1.87804e-07
-2.12929e-07
-2.57382e-09
5.60871e-06
-5.57181e-06
-6.11399e-06
1.7257e-06
-3.08187e-06
-3.56293e-06
-0.000428895
0.000242999
0.000298768
4.01957e-06
-4.55551e-06
4.87041e-06
-2.10265e-05
3.53686e-06
6.07355e-06
2.06083e-07
1.63609e-07
1.53936e-08
-3.08026e-07
-1.78365e-07
2.86091e-09
3.45052e-06
-2.96075e-06
-4.38611e-06
4.87312e-06
-6.73401e-06
6.12708e-06
-8.62995e-07
1.00319e-06
-2.20928e-06
-2.31308e-06
1.70879e-06
-2.29953e-06
-1.56335e-06
2.06126e-06
2.26842e-06
-1.58945e-06
8.46549e-07
2.79991e-06
-1.16852e-06
1.85372e-06
1.58556e-06
6.47857e-07
-4.70274e-07
6.61195e-07
-1.25768e-06
9.08913e-07
1.75139e-06
-0.000287556
7.08749e-05
0.000106461
5.55413e-08
-1.57927e-07
-1.14497e-07
9.68736e-07
-9.00671e-07
-9.82148e-07
5.38175e-06
-5.58044e-06
-6.51538e-06
1.95845e-06
-4.46379e-06
6.76197e-06
1.23068e-06
-1.2842e-06
-2.50485e-06
1.36182e-06
-7.83201e-07
1.13087e-06
1.50955e-07
1.94237e-07
1.34284e-10
-1.48045e-05
2.7626e-06
9.16087e-06
1.03316e-06
-9.64126e-07
-1.03328e-06
1.7512e-06
-1.67683e-06
2.33822e-06
2.52493e-06
-2.51821e-06
-3.46426e-06
-4.66058e-06
4.3054e-06
5.73305e-06
-2.56993e-06
2.93108e-06
2.73116e-06
1.35998e-06
-1.52134e-06
2.07697e-06
1.75091e-06
-1.73636e-06
2.44067e-06
1.34918e-06
-1.10808e-06
-1.94571e-06
-2.23574e-06
2.56466e-06
-2.46457e-06
-4.85249e-06
4.49864e-06
-6.13257e-06
-3.23373e-06
3.6536e-06
4.10914e-06
7.17379e-07
-9.14473e-07
-1.36409e-06
9.81847e-07
-5.7256e-07
1.09894e-06
1.25767e-06
-1.62776e-06
-1.72769e-06
-9.5477e-07
9.61565e-07
-6.86703e-07
-1.18414e-06
-1.36992e-07
6.86324e-07
-8.34326e-07
7.24676e-07
-7.17192e-07
2.54518e-06
-2.71959e-06
-4.2972e-06
-5.13846e-07
5.61062e-07
7.41956e-07
8.205e-05
-0.000112368
3.43984e-05
5.51017e-07
-6.17932e-07
-4.92717e-07
-1.58925e-06
1.33507e-06
2.42921e-06
1.88508e-06
-1.22514e-06
-1.44586e-06
2.13156e-07
1.70207e-07
-4.2694e-12
3.09374e-07
-2.44836e-07
3.97464e-07
1.46818e-06
-8.4332e-07
1.18638e-06
-0.000276084
3.97485e-05
9.65954e-05
-6.96647e-05
2.41741e-05
3.14021e-05
-0.000173254
7.66977e-05
1.42997e-05
9.66892e-07
-4.91199e-07
6.63362e-07
-0.000235844
4.12075e-05
0.000153821
4.7469e-07
-6.99252e-07
5.8388e-07
-7.59442e-07
6.19193e-07
-6.10624e-07
1.0263e-06
-9.14905e-07
-6.97196e-07
-0.000313409
8.85346e-05
0.000141032
6.72484e-08
-9.83321e-08
1.45798e-07
-0.000133074
4.82962e-05
6.71637e-05
-8.39609e-07
9.07943e-07
-1.22837e-06
-1.36491e-06
9.00461e-07
1.81453e-06
5.80942e-05
-0.000156227
5.56153e-05
-8.67353e-07
2.69937e-07
-9.2522e-07
0.000190973
-0.000562952
7.23166e-05
-9.85672e-07
2.81756e-07
-9.12519e-07
-0.000240945
0.000101621
6.78962e-05
-0.000249806
0.000130613
-2.834e-05
-1.34273e-06
1.60954e-06
-2.20197e-06
1.08373e-06
-8.93554e-07
1.06817e-06
-0.000178029
0.000179167
1.78971e-05
-0.000531237
7.29883e-05
0.000364483
-0.000469892
0.000176418
0.000263159
-2.90486e-07
1.5059e-07
-3.35367e-07
-2.06089e-06
1.15927e-06
1.99654e-06
1.52168e-06
-2.46041e-06
2.83795e-06
1.9344e-06
-1.80716e-06
-2.83097e-06
-0.000298466
0.000117025
1.80898e-05
-0.000453587
0.000193804
0.000275034
-3.3474e-07
1.5849e-07
2.92606e-07
-0.000262081
0.000113682
0.000122689
-2.10732e-07
5.6298e-07
3.9203e-07
9.1687e-07
-4.1082e-07
-6.33579e-07
5.41882e-07