/*--------------------------------*- C++ -*----------------------------------*\
  =========                 |
  \\      /  F ield         | OpenFOAM: The Open Source CFD Toolbox
   \\    /   O peration     | Website:  https://openfoam.org
    \\  /    A nd           | Version:  6
     \\/     M anipulation  |
\*---------------------------------------------------------------------------*/
FoamFile
{
    version     2.0;
    format      ascii;
    class       volScalarField;
    location    "1.26";
    object      nut;
}
// * * * * * * * * * * * * * * * * * * * * * * * * * * * * * * * * * * * * * //

dimensions      [0 2 -1 0 0 0 0];

internalField   nonuniform List<scalar> 
4214
(
0.00472569
0.00670656
0.00950906
0.0114812
0.0122899
0.0125207
0.0125602
0.0125466
0.0125223
0.0124982
0.0124759
0.0124537
0.0124303
0.0124045
0.0123737
0.012335
0.0122852
0.0122204
0.0121382
0.0120271
0.0118962
0.0116311
0.0115258
0.0115615
0.0116765
0.0118295
0.0119914
0.0121411
0.0122664
0.0123631
0.0124335
0.0124828
0.0125166
0.0125372
0.0125365
0.012479
0.0122426
0.0114784
0.0095872
0.00676585
0.00472643
0.00707495
0.00952235
0.0113045
0.0121712
0.012485
0.0125699
0.0125755
0.0125557
0.0125306
0.0125058
0.0124821
0.0124573
0.0124296
0.0123968
0.0123558
0.0123026
0.0122329
0.0121422
0.0120267
0.0118737
0.0116795
0.0113832
0.0113037
0.0113685
0.0115171
0.0117102
0.0119139
0.0121016
0.0122566
0.0123739
0.0124563
0.0125118
0.0125485
0.012572
0.0125807
0.0125591
0.0124578
0.0121385
0.0112842
0.00948857
0.00696275
0.00900794
0.0108539
0.0119262
0.0123918
0.0125533
0.0125926
0.0125868
0.0125653
0.0125396
0.0125141
0.0124885
0.0124605
0.0124274
0.012386
0.0123322
0.0122613
0.0121684
0.0120494
0.0119021
0.0117191
0.0114836
0.0111992
0.011149
0.0112242
0.0113892
0.0116123
0.011853
0.0120762
0.0122593
0.0123951
0.0124877
0.0125475
0.0125854
0.0126092
0.0126204
0.0126106
0.012552
0.0123712
0.0118906
0.0107914
0.00885916
0.0102133
0.0115217
0.0122052
0.0124907
0.0125883
0.0126086
0.012598
0.0125757
0.0125494
0.0125226
0.0124946
0.0124625
0.0124226
0.0123705
0.0123012
0.0122095
0.0120914
0.0119457
0.0117759
0.0115918
0.0113691
0.0111408
0.0110963
0.0111443
0.0112992
0.0115384
0.011809
0.0120643
0.0122729
0.0124252
0.0125259
0.0125882
0.0126257
0.0126484
0.0126596
0.0126542
0.0126139
0.0124927
0.0121819
0.0114649
0.010081
0.0109416
0.011882
0.0123506
0.0125453
0.0126116
0.0126226
0.0126098
0.0125868
0.0125596
0.0125311
0.0124997
0.0124622
0.0124136
0.0123481
0.01226
0.0121449
0.0120018
0.0118359
0.0116625
0.0115246
0.0113983
0.0112533
0.0111613
0.0111301
0.0112432
0.0114834
0.0117769
0.0120613
0.0122935
0.0124607
0.0125679
0.0126312
0.0126669
0.012687
0.0126968
0.0126929
0.0126619
0.0125717
0.01235
0.0118493
0.0108511
0.0113952
0.0120946
0.0124378
0.012582
0.0126308
0.0126365
0.0126223
0.0125985
0.0125701
0.012539
0.0125031
0.0124583
0.0123982
0.012316
0.012206
0.0120662
0.0119015
0.0117281
0.0115795
0.0115508
0.0116211
0.0115598
0.0113429
0.0111725
0.011211
0.0114379
0.0117481
0.0120599
0.0123149
0.012497
0.0126102
0.0126736
0.0127064
0.0127231
0.0127304
0.0127267
0.0127014
0.0126301
0.012462
0.0120942
0.0113597
0.0116969
0.012234
0.0124983
0.012611
0.0126489
0.0126511
0.0126356
0.0126106
0.0125804
0.0125454
0.0125033
0.0124485
0.0123736
0.012271
0.0121366
0.0119729
0.0117944
0.0116321
0.0115446
0.0116973
0.0120642
0.0120592
0.0116254
0.0112555
0.0111885
0.0113889
0.0117104
0.0120501
0.0123293
0.0125285
0.0126485
0.0127124
0.012742
0.0127547
0.0127589
0.0127548
0.0127335
0.0126757
0.0125442
0.0122662
0.0117186
0.0119146
0.0123366
0.0125469
0.0126379
0.0126677
0.0126668
0.0126495
0.0126226
0.0125893
0.0125489
0.0124981
0.0124301
0.0123365
0.0122101
0.0120498
0.0118663
0.0116859
0.011558
0.0115714
0.0119778
0.0127245
0.0127309
0.0119857
0.0113614
0.0111613
0.0113223
0.0116497
0.0120202
0.012327
0.0125487
0.0126787
0.0127452
0.012772
0.0127807
0.0127817
0.0127768
0.0127587
0.0127116
0.0126079
0.0123958
0.0119871
0.012087
0.0124221
0.0125915
0.012665
0.0126875
0.012683
0.0126629
0.0126332
0.0125951
0.0125474
0.0124851
0.0124002
0.0122838
0.0121305
0.0119452
0.0117489
0.0115817
0.0115129
0.011666
0.0123896
0.0135689
0.0135419
0.0124023
0.0114767
0.0111181
0.0112247
0.0115509
0.0119568
0.0122964
0.0125501
0.012696
0.0127697
0.0127957
0.0128011
0.0127987
0.0127925
0.012777
0.0127391
0.012658
0.0124972
0.0121959
0.0122353
0.0124988
0.0126327
0.0126901
0.0127053
0.0126968
0.0126739
0.0126403
0.0125962
0.0125388
0.0124616
0.0123556
0.0122126
0.0120307
0.0118229
0.0116236
0.0114854
0.0114987
0.011825
0.0129124
0.0145399
0.0144595
0.0128622
0.0115938
0.0110531
0.0110858
0.0113997
0.0118463
0.0122246
0.0125245
0.0126949
0.0127841
0.0128125
0.0128165
0.0128107
0.0128028
0.0127889
0.0127588
0.0126965
0.012577
0.0123599
0.0123675
0.0125686
0.012671
0.0127137
0.0127217
0.0127089
0.0126823
0.0126435
0.0125913
0.0125211
0.0124249
0.0122934
0.0121199
0.0119088
0.0116833
0.0114918
0.0113965
0.0115102
0.0120354
0.0135111
0.0155647
0.0154603
0.0133641
0.0117117
0.0109681
0.0109005
0.0111851
0.0116759
0.0120967
0.0124622
0.0126682
0.0127859
0.0128217
0.0128276
0.0128188
0.0128085
0.012795
0.012771
0.0127242
0.0126376
0.0124861
0.0124868
0.012634
0.0127085
0.0127371
0.0127376
0.0127199
0.0126879
0.0126418
0.0125785
0.0124912
0.0123711
0.012209
0.012002
0.0117626
0.0115251
0.0113521
0.0113098
0.0115368
0.0122795
0.0141428
0.0165654
0.0165278
0.0139181
0.011836
0.0108742
0.0106701
0.010902
0.0114352
0.0118964
0.0123515
0.0126051
0.012771
0.0128212
0.0128353
0.0128242
0.0128113
0.0127965
0.0127762
0.0127412
0.0126801
0.012578
0.0125923
0.0126944
0.0127446
0.0127602
0.0127529
0.012729
0.0126901
0.012634
0.0125553
0.0124458
0.0122958
0.0120981
0.0118549
0.0115895
0.0113459
0.011201
0.0112175
0.0115654
0.0125397
0.0147741
0.0174716
0.0176523
0.0145443
0.011977
0.0107921
0.0104032
0.0105549
0.0111188
0.0116081
0.0121796
0.0124903
0.0127332
0.0128067
0.0128394
0.0128278
0.0128127
0.0127949
0.0127755
0.0127482
0.0127053
0.0126385
0.012682
0.0127481
0.0127782
0.0127821
0.0127672
0.0127361
0.0126881
0.0126184
0.0125193
0.0123813
0.0121948
0.0119566
0.0116746
0.0113874
0.0111425
0.0110344
0.0111144
0.0115843
0.0128061
0.0153801
0.0182424
0.018824
0.0152679
0.0121452
0.0107508
0.0101149
0.0101613
0.0107293
0.0112216
0.011934
0.0123036
0.0126638
0.0127694
0.0128389
0.0128296
0.0128149
0.0127927
0.0127712
0.0127472
0.0127151
0.0126712
0.0127548
0.0127941
0.012808
0.0128023
0.0127797
0.0127404
0.0126806
0.012593
0.0124677
0.0122945
0.0120636
0.0117811
0.0114552
0.0111549
0.0109133
0.0108517
0.0110032
0.0115904
0.0130871
0.0159559
0.018862
0.020028
0.0161145
0.012349
0.0107847
0.00982439
0.00975185
0.0102799
0.0107385
0.0116066
0.0120219
0.0125511
0.0126949
0.0128307
0.012828
0.0128197
0.0127929
0.0127667
0.0127422
0.0127139
0.0126824
0.0128112
0.0128318
0.0128344
0.0128206
0.0127907
0.0127416
0.0126666
0.0125561
0.0123959
0.0121807
0.0118887
0.0115635
0.0111829
0.0108912
0.0106602
0.0106567
0.0108994
0.0115935
0.013409
0.0165121
0.0193405
0.0212439
0.0171062
0.0125929
0.0109303
0.00955188
0.00936749
0.0097929
0.0101775
0.011198
0.0116235
0.0123831
0.0125603
0.0128093
0.0128175
0.0128281
0.0127989
0.0127661
0.0127395
0.012708
0.0126821
0.012852
0.0128605
0.0128544
0.0128356
0.0127952
0.0127368
0.0126328
0.0124992
0.0122684
0.0120196
0.0116157
0.0112856
0.0108418
0.010603
0.0103958
0.0104564
0.0108275
0.011614
0.0138023
0.0170593
0.0197246
0.0224624
0.0182572
0.0128821
0.0112193
0.00931538
0.00905332
0.00929606
0.00957688
0.0107202
0.0110981
0.0121496
0.0123345
0.012766
0.0127857
0.0128386
0.0128132
0.0127722
0.0127472
0.0127036
0.0126826
0.0126467
0.0126511
0.0126436
0.0126109
0.0125386
0.0124166
0.0122372
0.0119942
0.0116817
0.0112893
0.0107952
0.0101573
0.00930581
0.00814173
0.00658889
0.00479948
0.00445988
0.0126252
0.0126196
0.0125976
0.0125395
0.0124263
0.012243
0.011977
0.0116203
0.0111677
0.0106132
0.00994448
0.00913621
0.00815226
0.00695556
0.00555834
0.00413838
0.0038747
0.0125919
0.0125835
0.0125453
0.0124562
0.0122929
0.0120335
0.0116611
0.0111676
0.0105538
0.00982623
0.00899153
0.00805259
0.00701003
0.00587287
0.00468548
0.00358232
0.0033395
0.0125682
0.0125473
0.0124884
0.0123639
0.0121436
0.0117985
0.0113075
0.0106658
0.00988603
0.00899536
0.00802683
0.00701062
0.00597491
0.00494753
0.00396804
0.00310721
0.00286826
0.0125357
0.012508
0.0124285
0.0122674
0.0119884
0.0115554
0.0109454
0.0101591
0.00922554
0.00819817
0.00713572
0.00608996
0.00510117
0.00419568
0.00339086
0.00270501
0.00246341
0.0125092
0.0124687
0.0123686
0.0121728
0.0118396
0.011327
0.0106102
0.00969673
0.00863352
0.00750076
0.00637792
0.0053316
0.00440265
0.00360546
0.00293228
0.00237039
0.00212546
0.0124761
0.0124287
0.0123114
0.0120873
0.0117105
0.0111352
0.010335
0.00932286
0.00816
0.00694813
0.00578519
0.00474583
0.00386766
0.00315191
0.00257366
0.00209944
0.00185361
0.0124461
0.0123898
0.01226
0.0120171
0.0116128
0.0109986
0.0101453
0.00906747
0.00783392
0.00656118
0.0053641
0.00432416
0.00347667
0.00281382
0.00229929
0.00188811
0.00164624
0.0124107
0.0123519
0.0122161
0.0119661
0.0115534
0.0109278
0.0100558
0.00894722
0.00767108
0.00634884
0.00511244
0.00405365
0.00321088
0.00257256
0.00209663
0.0017317
0.00150105
0.0123756
0.012315
0.0121803
0.0119351
0.0115332
0.010924
0.0100693
0.0089668
0.00767623
0.00631373
0.00502729
0.00392458
0.00305639
0.00241483
0.00195565
0.00162468
0.00141505
0.0123345
0.0122779
0.0121506
0.0119218
0.0115483
0.0109809
0.0101756
0.0091168
0.00784338
0.00645893
0.00511236
0.00393738
0.00300799
0.00233197
0.00186828
0.00156047
0.00138407
0.0122888
0.0122385
0.0121258
0.0119223
0.01159
0.011083
0.0103545
0.00937414
0.00815431
0.00677288
0.00536668
0.00409682
0.00307043
0.00232341
0.00182841
0.0015316
0.00140281
0.0122337
0.0121934
0.0120989
0.0119259
0.0116419
0.0112058
0.0105721
0.00970027
0.00857558
0.00723764
0.00579686
0.00441765
0.00325615
0.00239433
0.00183456
0.00152935
0.00146456
0.0121663
0.0121365
0.0120619
0.011921
0.0116868
0.011324
0.010791
0.0100439
0.00904898
0.00780617
0.00637968
0.00490934
0.00358589
0.00255906
0.00188943
0.0015557
0.00156343
0.01208
0.0120606
0.0120054
0.0118957
0.0117088
0.0114151
0.0109782
0.0103564
0.00950766
0.00840363
0.00705651
0.00555456
0.00407522
0.00283919
0.00200152
0.00160491
0.00169232
0.0119698
0.0119578
0.0119193
0.0118377
0.0116932
0.0114607
0.0111091
0.010601
0.00989456
0.00894879
0.007739
0.00628861
0.00471617
0.00325782
0.00218766
0.00167487
0.00184344
0.0118272
0.0118193
0.0117925
0.0117339
0.0116254
0.011445
0.011166
0.0107551
0.0101734
0.00937858
0.00833017
0.00700614
0.00544409
0.00381558
0.00247008
0.00177058
0.00200884
0.0116475
0.011636
0.0116141
0.0115707
0.01149
0.0113522
0.0111325
0.0108026
0.0103258
0.00966097
0.00876497
0.0075981
0.00614134
0.00446159
0.00286116
0.00190358
0.00218078
0.0114212
0.0113993
0.011373
0.0113348
0.011271
0.0111642
0.0109924
0.0107279
0.0103383
0.0097831
0.00901876
0.00800163
0.00669236
0.00508136
0.00333505
0.00208679
0.00235279
0.0111476
0.0111026
0.0110604
0.0110148
0.0109547
0.0108651
0.0107263
0.0105133
0.0101956
0.0097342
0.00908484
0.00820139
0.0070393
0.00556035
0.00381238
0.00232289
0.00252089
0.0108184
0.0107418
0.0106706
0.0106032
0.0105314
0.0104426
0.0103202
0.0101426
0.00988146
0.00950124
0.00895716
0.0082004
0.00718084
0.00584979
0.0042
0.00259003
0.00268457
0.0104392
0.0103162
0.0102033
0.0100992
0.00999901
0.00989348
0.009769
0.00960756
0.00938594
0.00907179
0.00862419
0.00799299
0.00712174
0.00594898
0.00444287
0.00283905
0.00284681
0.010005
0.00982895
0.00966311
0.00950973
0.00936648
0.0092278
0.00908338
0.0089194
0.00871744
0.00845214
0.00808838
0.00757895
0.00686536
0.00587181
0.00454073
0.0030292
0.00301217
0.00952837
0.0092872
0.00906049
0.00884908
0.00865282
0.00846889
0.00829027
0.0081073
0.00790678
0.00767067
0.00737303
0.00697487
0.00642
0.00562523
0.00450473
0.00314526
0.00318465
0.00900767
0.00870093
0.00840986
0.00813714
0.00788405
0.00764963
0.00742936
0.00721702
0.00700422
0.00677973
0.00652695
0.00621804
0.00580725
0.00521451
0.00433614
0.00319035
0.00336714
0.00845993
0.00808288
0.00772867
0.00739726
0.00709036
0.00680793
0.00654684
0.00630305
0.00607155
0.00584627
0.00561819
0.00537043
0.00507098
0.00465701
0.00402648
0.00316776
0.00356428
0.00789009
0.00744892
0.00703721
0.00665486
0.00630307
0.00598174
0.00568803
0.00541874
0.00517045
0.00493975
0.00472205
0.00450894
0.0042821
0.0040012
0.00359087
0.00304608
0.00378519
0.00731792
0.0068165
0.00635669
0.00593502
0.00555135
0.00520452
0.00489112
0.00460757
0.00435058
0.00411697
0.00390371
0.00370735
0.00352159
0.00332876
0.00309328
0.00285173
0.00404231
0.00675313
0.00620342
0.00570753
0.00526025
0.00485933
0.00450174
0.00418279
0.0038978
0.00364207
0.00341115
0.0032022
0.00301534
0.00285354
0.00271877
0.00261489
0.00264856
0.00434571
0.00621397
0.00562563
0.00510657
0.00464748
0.00424322
0.00388825
0.00357592
0.00329947
0.00305255
0.00282959
0.00262853
0.00245277
0.00231108
0.00221771
0.00220744
0.00245844
0.00469387
0.00570716
0.00509422
0.00456473
0.00410614
0.00370987
0.00336722
0.0030691
0.00280699
0.0025737
0.00236411
0.002178
0.00202059
0.00190153
0.00183884
0.00188212
0.00225892
0.00506771
0.00524392
0.00461605
0.00408667
0.00363796
0.00325709
0.00293192
0.00265155
0.00240726
0.00219276
0.00200424
0.00184244
0.001711
0.00161652
0.00157504
0.0016355
0.00204951
0.00543652
0.00482102
0.00419129
0.00367095
0.0032383
0.00287636
0.00257064
0.00231036
0.00208839
0.00189964
0.00174031
0.00160927
0.0015067
0.00143562
0.00140763
0.00146266
0.00184625
0.00577043
0.00444589
0.0038187
0.00331252
0.00289877
0.00255679
0.00227197
0.00203545
0.0018416
0.00168468
0.00155859
0.00145929
0.00138407
0.00133311
0.00131327
0.0013537
0.00167212
0.00605189
0.00410223
0.00349065
0.00300315
0.00260952
0.00228841
0.00202731
0.00181922
0.00165794
0.00153537
0.00144171
0.00137087
0.00131871
0.00128368
0.0012692
0.00129471
0.0015399
0.0062753
0.00380297
0.00320382
0.00273559
0.00236226
0.00206385
0.00183014
0.00165395
0.00152716
0.00143738
0.00137218
0.00132467
0.00129048
0.00126759
0.00125743
0.00127144
0.00144757
0.00643474
0.00351843
0.00294769
0.00250155
0.00215011
0.00187732
0.00167397
0.00153171
0.00143808
0.00137777
0.0013361
0.00130659
0.00128555
0.00127154
0.00126533
0.00127292
0.00139113
0.00652067
0.00327635
0.00272229
0.00229679
0.00196853
0.00172368
0.00155303
0.00144393
0.00138153
0.00134672
0.00132359
0.00130672
0.00129438
0.00128677
0.00128493
0.00129178
0.00136867
0.00652256
0.0030322
0.0025164
0.00211527
0.0018128
0.00159853
0.0014606
0.00138426
0.00135072
0.00133669
0.00132668
0.00131708
0.00131005
0.00130791
0.00131207
0.00132399
0.00137779
0.00643509
0.00283704
0.00233534
0.00195522
0.00167934
0.00149692
0.00139248
0.0013484
0.0013399
0.00134027
0.00133728
0.00133059
0.00132781
0.00133234
0.00134561
0.00136874
0.00141693
0.00626136
0.00118306
0.00118311
0.00118654
0.00119207
0.00119875
0.00120589
0.00121298
0.00121966
0.00122572
0.00123101
0.00123551
0.00123923
0.00124225
0.00124465
0.00124659
0.0012482
0.00124966
0.00125112
0.00125282
0.00125509
0.0012606
0.00126503
0.00126764
0.00126987
0.00127222
0.00127501
0.00127932
0.00128879
0.00130289
0.00133224
0.00136499
0.00142779
0.00148601
0.00159218
0.00167932
0.00183002
0.00194512
0.00212927
0.00226726
0.00246656
0.00262161
0.00117931
0.00118498
0.00119245
0.00120088
0.00120959
0.00121812
0.0012261
0.0012333
0.00123957
0.00124485
0.00124913
0.00125247
0.00125499
0.00125681
0.00125809
0.00125903
0.00125979
0.00126057
0.00126158
0.0012632
0.00126779
0.00127169
0.0012738
0.0012755
0.00127705
0.00127858
0.00128021
0.00128332
0.0012895
0.00130215
0.00132141
0.00135351
0.0013939
0.001453
0.00151901
0.00160668
0.0016973
0.00180789
0.00191721
0.00204077
0.00216162
0.0011849
0.00119397
0.00120391
0.00121411
0.00122408
0.00123346
0.00124196
0.00124942
0.00125572
0.00126082
0.00126476
0.00126763
0.00126956
0.00127071
0.00127127
0.00127144
0.00127144
0.00127148
0.00127177
0.00127269
0.00127632
0.00127966
0.0012815
0.00128305
0.00128451
0.00128587
0.00128683
0.00128763
0.0012893
0.00129347
0.00130157
0.00131605
0.00133752
0.00136875
0.00140829
0.0014586
0.00151606
0.00158246
0.00165325
0.00172971
0.00180833
0.0011961
0.00120734
0.0012189
0.00123029
0.00124113
0.00125109
0.00125995
0.00126755
0.00127378
0.00127865
0.0012822
0.00128454
0.00128583
0.00128625
0.00128603
0.0012854
0.00128457
0.00128378
0.00128328
0.00128342
0.00128597
0.00128863
0.00129017
0.00129168
0.00129328
0.00129493
0.00129635
0.00129704
0.00129731
0.00129796
0.00129995
0.00130462
0.00131307
0.00132663
0.0013457
0.00137093
0.0014016
0.00143742
0.00147698
0.00151955
0.00156414
0.00121086
0.00122358
0.0012363
0.00124859
0.00126011
0.00127056
0.00127971
0.0012874
0.00129355
0.00129816
0.0013013
0.00130311
0.00130374
0.00130342
0.00130239
0.0013009
0.00129919
0.00129752
0.00129615
0.00129541
0.00129675
0.00129855
0.00129967
0.00130102
0.00130273
0.00130475
0.00130696
0.0013086
0.00130932
0.00130945
0.00130947
0.00131
0.00131178
0.00131558
0.00132201
0.00133149
0.00134402
0.00135937
0.00137696
0.00139613
0.00141639
0.00122805
0.00124186
0.00125549
0.00126855
0.00128067
0.00129155
0.00130097
0.00130876
0.00131484
0.00131921
0.00132197
0.00132325
0.00132325
0.0013222
0.00132036
0.001318
0.00131539
0.0013128
0.00131049
0.00130879
0.0013088
0.00130953
0.00131005
0.00131108
0.00131271
0.00131492
0.0013176
0.00132037
0.00132243
0.00132364
0.00132418
0.00132425
0.00132414
0.00132425
0.00132497
0.00132661
0.00132933
0.0013331
0.00133769
0.0013427
0.00134778
0.00124705
0.00126172
0.00127612
0.00128985
0.00130253
0.00131385
0.00132354
0.00133145
0.00133749
0.00134167
0.00134409
0.00134489
0.0013443
0.00134255
0.00133994
0.00133674
0.00133324
0.00132971
0.00132643
0.00132371
0.00132231
0.00132179
0.00132153
0.001322
0.00132329
0.00132538
0.00132821
0.00133163
0.00133508
0.00133786
0.00133989
0.00134125
0.001342
0.00134219
0.00134197
0.00134148
0.0013408
0.00133993
0.00133872
0.00133682
0.00133378
0.00126751
0.0012829
0.00129798
0.00131233
0.00132555
0.00133729
0.00134728
0.00135534
0.00136138
0.00136541
0.00136755
0.00136794
0.00136683
0.00136446
0.00136113
0.00135715
0.00135279
0.00134835
0.00134411
0.00134034
0.0013375
0.00133561
0.00133438
0.00133404
0.00133467
0.00133629
0.00133881
0.00134216
0.00134617
0.00135033
0.00135397
0.0013569
0.00135917
0.00136079
0.00136164
0.00136165
0.00136069
0.00135856
0.00135499
0.00134958
0.00134187
0.0012893
0.00130529
0.00132097
0.00133589
0.00134962
0.00136177
0.00137207
0.0013803
0.00138638
0.00139033
0.00139225
0.00139233
0.00139078
0.00138788
0.00138394
0.00137925
0.00137411
0.00136882
0.00136365
0.00135886
0.00135459
0.00135126
0.00134891
0.00134754
0.00134721
0.00134795
0.0013497
0.00135238
0.00135584
0.00135991
0.00136427
0.00136839
0.00137179
0.00137428
0.00137572
0.00137593
0.00137462
0.00137145
0.0013661
0.00135827
0.00134771
0.00131242
0.00132891
0.00134512
0.00136056
0.00137474
0.00138728
0.00139786
0.00140627
0.00141243
0.00141635
0.00141814
0.00141798
0.00141611
0.0014128
0.00140836
0.00140308
0.00139727
0.00139122
0.00138519
0.00137943
0.00137383
0.00136908
0.00136551
0.00136293
0.00136138
0.0013609
0.00136142
0.00136287
0.00136511
0.00136793
0.00137112
0.00137436
0.00137735
0.00137968
0.00138088
0.00138054
0.00137829
0.00137385
0.00136704
0.00135774
0.00134591
0.00133702
0.00135395
0.0013706
0.00138646
0.00140102
0.00141387
0.00142468
0.00143325
0.0014395
0.00144342
0.00144515
0.00144486
0.00144279
0.00143921
0.00143441
0.0014287
0.00142236
0.00141568
0.00140893
0.00140231
0.00139553
0.00138944
0.00138464
0.00138076
0.00137782
0.00137586
0.00137484
0.00137465
0.00137517
0.0013762
0.00137751
0.00137882
0.00137982
0.00138016
0.00137951
0.00137755
0.00137398
0.00136863
0.00136138
0.00135229
0.00134146
0.00136351
0.00138077
0.00139775
0.00141389
0.00142868
0.00144172
0.00145267
0.00146133
0.00146763
0.00147158
0.00147331
0.00147298
0.00147083
0.00146713
0.00146215
0.00145619
0.00144951
0.00144239
0.00143508
0.00142777
0.00142004
0.00141283
0.00140688
0.00140171
0.00139736
0.00139384
0.00139112
0.00138913
0.00138773
0.00138678
0.00138606
0.00138535
0.0013844
0.00138294
0.00138075
0.00137761
0.00137337
0.00136795
0.00136135
0.00135368
0.00134508
0.00139268
0.00141007
0.00142717
0.00144336
0.00145816
0.00147116
0.00148207
0.00149069
0.00149697
0.00150092
0.00150267
0.00150239
0.0015003
0.00149665
0.00149169
0.00148569
0.00147891
0.0014716
0.00146397
0.00145622
0.00144787
0.00143985
0.00143295
0.00142668
0.00142105
0.00141609
0.00141178
0.00140808
0.0014049
0.00140211
0.00139959
0.00139717
0.00139468
0.00139197
0.00138888
0.0013853
0.00138118
0.00137647
0.00137124
0.00136556
0.0013596
0.00142591
0.00144306
0.00145989
0.00147574
0.00149015
0.00150277
0.00151332
0.00152167
0.00152775
0.00153162
0.00153339
0.00153323
0.00153132
0.0015279
0.0015232
0.00151745
0.00151087
0.00150368
0.00149609
0.00148826
0.00147974
0.00147135
0.0014639
0.00145687
0.00145032
0.00144427
0.00143873
0.0014337
0.00142913
0.00142497
0.00142113
0.00141754
0.0014141
0.00141073
0.00140737
0.00140397
0.0014005
0.00139697
0.00139341
0.0013899
0.00138667
0.00146566
0.00148176
0.00149761
0.0015124
0.00152577
0.00153741
0.00154711
0.00155478
0.00156039
0.001564
0.00156572
0.0015657
0.00156411
0.00156114
0.00155697
0.00155181
0.00154583
0.00153922
0.00153214
0.00152474
0.00151667
0.00150858
0.00150115
0.00149396
0.00148709
0.00148057
0.00147445
0.00146875
0.00146348
0.00145861
0.00145415
0.00145006
0.00144631
0.0014429
0.0014398
0.00143699
0.0014345
0.00143232
0.00143048
0.00142902
0.00142838
0.001516
0.00152951
0.00154304
0.00155555
0.00156676
0.00157646
0.0015845
0.00159085
0.00159551
0.00159855
0.00160006
0.00160017
0.00159901
0.00159671
0.00159344
0.00158931
0.00158447
0.00157905
0.00157318
0.00156697
0.00156019
0.00155332
0.00154679
0.00154037
0.00153413
0.00152812
0.00152239
0.00151699
0.00151196
0.00150732
0.00150309
0.00149929
0.00149594
0.00149305
0.00149064
0.00148872
0.0014873
0.00148641
0.00148605
0.00148624
0.00148775
0.00158364
0.00159176
0.0016006
0.00160868
0.00161586
0.00162201
0.0016271
0.0016311
0.00163404
0.00163598
0.00163699
0.00163714
0.00163651
0.00163519
0.00163324
0.00163076
0.0016278
0.00162446
0.00162079
0.00161686
0.0016126
0.00160822
0.00160395
0.00159969
0.0015955
0.00159142
0.00158751
0.0015838
0.00158033
0.00157713
0.00157425
0.00157171
0.00156954
0.00156776
0.0015664
0.00156548
0.00156502
0.00156503
0.00156551
0.00156647
0.00156927
0.00444097
0.00494603
0.00683527
0.00839917
0.00950698
0.0102667
0.0108009
0.0111991
0.0115179
0.0117894
0.0120288
0.01224
0.0124213
0.0125701
0.0126862
0.0127717
0.0128317
0.00385965
0.00423633
0.00573741
0.0071485
0.00829105
0.00917691
0.00986627
0.0104216
0.0108899
0.0112987
0.01166
0.0119748
0.0122395
0.0124508
0.0126104
0.0127236
0.0128009
0.00332816
0.00364852
0.00480993
0.00600476
0.00708387
0.0080193
0.00882308
0.0095251
0.010151
0.0107154
0.01122
0.0116583
0.0120228
0.0123086
0.0125192
0.0126648
0.0127591
0.00285936
0.00315742
0.0040563
0.00503529
0.00600216
0.00692196
0.00778764
0.00860294
0.00937207
0.0100913
0.010746
0.0113175
0.0117893
0.0121548
0.0124197
0.0125996
0.0127133
0.0024564
0.0027472
0.00345674
0.00425591
0.00510066
0.00597148
0.00685725
0.00774936
0.00863411
0.00949158
0.0102871
0.0109862
0.0115626
0.0120049
0.012321
0.012532
0.012666
0.00212016
0.00240834
0.00298497
0.00364887
0.00438926
0.00520355
0.00608696
0.00702753
0.00800169
0.00897203
0.00988961
0.0107008
0.0113676
0.0118754
0.0122339
0.0124695
0.0126167
0.00185024
0.00213341
0.00261787
0.00318648
0.00384945
0.00461804
0.00549538
0.00647112
0.00751516
0.00857699
0.00959271
0.0104915
0.011226
0.0117798
0.0121661
0.0124171
0.0125693
0.00164519
0.00191684
0.00233746
0.00284291
0.00345649
0.00419902
0.00508065
0.00609209
0.00719755
0.00833403
0.00942191
0.010378
0.011151
0.0117263
0.0121223
0.0123762
0.0125307
0.00150252
0.00175548
0.0021306
0.00259807
0.00318862
0.0039296
0.00483491
0.00589312
0.00705871
0.00825605
0.00938793
0.010368
0.0111463
0.0117157
0.0121026
0.0123479
0.0124961
0.00141867
0.00164638
0.00198762
0.00243758
0.00303097
0.00379853
0.00475339
0.00587517
0.00710347
0.00834432
0.00948808
0.0104537
0.0112025
0.0117401
0.0121009
0.012328
0.0124582
0.00138913
0.00158396
0.00190034
0.00235264
0.00297755
0.00380526
0.00483958
0.00604102
0.00732692
0.00858132
0.00969869
0.0106111
0.0113001
0.0117863
0.0121096
0.0123118
0.0124247
0.00140824
0.00156021
0.0018626
0.00234158
0.00303283
0.00395796
0.00509878
0.00638544
0.00770439
0.00893298
0.00998044
0.0108061
0.0114148
0.0118384
0.0121182
0.012291
0.0123826
0.0014691
0.0015663
0.00187146
0.0024096
0.0032098
0.00427031
0.00553277
0.00688532
0.00819243
0.00934543
0.0102855
0.0110034
0.0115225
0.0118798
0.0121128
0.0122519
0.0123105
0.00156472
0.00159981
0.00193099
0.00257238
0.00352999
0.00475162
0.00612031
0.0074851
0.00872032
0.00975312
0.0105638
0.0111682
0.0115988
0.0118912
0.0120771
0.0121791
0.012206
0.00168808
0.00166002
0.00205248
0.00285221
0.00400553
0.00537712
0.00679032
0.00809537
0.00920641
0.0100965
0.010776
0.0112734
0.0116216
0.0118521
0.0119898
0.0120522
0.0120441
0.00183172
0.00174951
0.00225368
0.00326399
0.00461317
0.00606953
0.00744174
0.00862603
0.00958896
0.010337
0.0108948
0.0112935
0.0115644
0.0117338
0.011822
0.0118448
0.0117915
0.00198866
0.00187872
0.00255118
0.00379152
0.00527452
0.00671777
0.00797929
0.00901605
0.00983067
0.0104452
0.0108895
0.0111955
0.0113923
0.011503
0.011545
0.0115318
0.011448
0.0021531
0.00206009
0.00293771
0.00436358
0.00587648
0.0072277
0.00834708
0.00923169
0.00990141
0.0103868
0.0107222
0.0109406
0.0110697
0.0111291
0.0111352
0.0110963
0.0109986
0.00232142
0.00229522
0.0033611
0.00487573
0.00633051
0.00755039
0.00851411
0.00924037
0.0097629
0.0101214
0.0103547
0.0104962
0.0105705
0.0105947
0.0105806
0.010532
0.0104255
0.00249295
0.00255725
0.00374072
0.00525281
0.00659883
0.00765974
0.00844851
0.00900578
0.00938083
0.00962194
0.00976947
0.00985298
0.00989338
0.00990284
0.00988758
0.00984764
0.00976303
0.00267001
0.00279585
0.00402477
0.00547327
0.00666731
0.00753402
0.00812731
0.00851321
0.00875416
0.00889974
0.00898591
0.00903623
0.0090648
0.00907868
0.00907977
0.00906636
0.00902488
0.00285607
0.00297095
0.00419404
0.00553026
0.00651965
0.00716113
0.00755619
0.00778924
0.00792465
0.00800486
0.00805643
0.00809478
0.00812796
0.00815914
0.00818814
0.00821199
0.00821346
0.003052
0.00306994
0.0042659
0.00541881
0.00615398
0.00656456
0.00678565
0.00690244
0.00696728
0.00701009
0.00704707
0.00708673
0.00713301
0.00718701
0.00724787
0.00731201
0.00736623
0.00325336
0.0031189
0.00423311
0.00512631
0.00559061
0.00580186
0.00589548
0.00593804
0.00596396
0.0059901
0.00602471
0.0060719
0.00613356
0.00621022
0.00630137
0.00640475
0.00651629
0.00345279
0.00315317
0.00407131
0.00465379
0.004882
0.0049537
0.00497204
0.00497762
0.00498793
0.00501041
0.00504868
0.0051048
0.00518033
0.00527602
0.00539209
0.00552775
0.0056797
0.00364708
0.00315267
0.00375556
0.00404559
0.00411182
0.00410841
0.00409479
0.00408928
0.00409785
0.00412297
0.00416638
0.00422981
0.00431481
0.00442266
0.0045545
0.00471124
0.00489236
0.0038433
0.00305188
0.00331665
0.00339286
0.00337272
0.0033415
0.00332244
0.00331918
0.00333185
0.00336115
0.00340855
0.00347593
0.00356501
0.00367766
0.00381597
0.00398286
0.0041841
0.00406087
0.00287206
0.00283746
0.00278522
0.0027305
0.00269687
0.00268377
0.00268698
0.00270451
0.00273681
0.00278562
0.00285303
0.00294108
0.0030522
0.00318918
0.00335683
0.00356105
0.00432515
0.00266321
0.00239316
0.00227439
0.00221291
0.00218686
0.00218213
0.00219124
0.00221191
0.00224489
0.00229221
0.00235613
0.00243894
0.00254348
0.00267292
0.00283383
0.00303158
0.00465031
0.00243571
0.00201841
0.00187592
0.00182113
0.00180484
0.0018069
0.00181938
0.00184061
0.00187173
0.00191488
0.00197244
0.00204682
0.00214111
0.00225879
0.0024069
0.00259451
0.00502141
0.00220103
0.00172121
0.00158532
0.00154318
0.00153533
0.00154123
0.00155422
0.00157353
0.00160061
0.00163753
0.00168658
0.00175026
0.00183181
0.0019351
0.00206779
0.00223908
0.00539683
0.00197323
0.00150089
0.0013893
0.00136064
0.00135841
0.00136526
0.00137645
0.00139205
0.00141361
0.00144303
0.00148243
0.00153422
0.00160167
0.00168898
0.0018038
0.00195472
0.0057338
0.00176437
0.0013517
0.00127023
0.00125262
0.00125291
0.00125838
0.00126629
0.00127721
0.0012926
0.00131413
0.00134365
0.00138347
0.0014367
0.00150774
0.00160359
0.0017338
0.00601107
0.00159167
0.00126354
0.00120929
0.00119889
0.00119913
0.00120183
0.00120576
0.00121171
0.00122094
0.00123483
0.00125497
0.00128349
0.00132332
0.00137873
0.00145629
0.00156473
0.00622657
0.00146651
0.00122315
0.00118925
0.00118236
0.00118088
0.00118019
0.00118002
0.00118116
0.00118462
0.00119153
0.00120324
0.00122161
0.00124934
0.0012904
0.00135068
0.00143763
0.00637934
0.00138698
0.00121742
0.00119659
0.0011903
0.00118612
0.00118187
0.00117772
0.00117438
0.00117265
0.0011734
0.00117779
0.0011874
0.00120459
0.00123291
0.00127744
0.00134501
0.00646289
0.00134771
0.00123622
0.00122184
0.00121401
0.00120655
0.00119866
0.00119069
0.00118322
0.00117685
0.00117229
0.00117046
0.0011727
0.00118097
0.00119828
0.00122901
0.00127934
0.00646854
0.00134472
0.00127275
0.00125922
0.00124814
0.00123684
0.00122515
0.00121339
0.00120202
0.00119147
0.00118232
0.00117528
0.0011714
0.00117227
0.00118031
0.00119924
0.00123471
0.0063921
0.00137302
0.00132324
0.00130587
0.00128982
0.0012739
0.001258
0.00124232
0.00122712
0.00121274
0.00119956
0.00118812
0.00117917
0.00117392
0.00117429
0.0011834
0.00120632
0.00623609
0.00142958
0.00138688
0.00136112
0.00133797
0.00131622
0.00129545
0.00127553
0.00125648
0.00123844
0.00122159
0.00120627
0.001193
0.00118264
0.0011767
0.00117774
0.00119019
0.0128659
0.0128327
0.0126967
0.0123646
0.0117467
0.0109426
0.0103042
0.0102577
0.01168
0.0176372
0.0237383
0.0132188
0.00911365
0.00879169
0.0101666
0.0118273
0.0126823
0.012843
0.0127817
0.0126994
0.0128682
0.0128098
0.0126176
0.0121849
0.0114623
0.0106216
0.0100268
0.0101234
0.0118807
0.0184609
0.0255178
0.013838
0.00907859
0.00837378