/*--------------------------------*- C++ -*----------------------------------*\
  =========                 |
  \\      /  F ield         | OpenFOAM: The Open Source CFD Toolbox
   \\    /   O peration     | Website:  https://openfoam.org
    \\  /    A nd           | Version:  6
     \\/     M anipulation  |
\*---------------------------------------------------------------------------*/
FoamFile
{
    version     2.0;
    format      ascii;
    class       surfaceVectorField;
    location    "3.47";
    object      Uf;
}
// * * * * * * * * * * * * * * * * * * * * * * * * * * * * * * * * * * * * * //

dimensions      [0 1 -1 0 0 0 0];

internalField   nonuniform List<vector> 
8193
(
(4.88851 -0.0720922 5.19441e-20)
(4.94554 -0.0844104 4.27185e-20)
(4.60253 -0.104399 -2.88758e-19)
(5.03815 -0.0541446 7.69676e-21)
(5.06876 -0.0504382 -2.89908e-19)
(5.12137 -0.0297406 5.01526e-21)
(5.13699 -0.0263581 5.47779e-20)
(5.18188 -0.00244207 9.15689e-21)
(5.19005 -0.00320028 -9.99179e-20)
(5.23062 0.0261405 9.54565e-22)
(5.23641 0.0257789 -7.18431e-20)
(5.27087 0.0516117 -8.05023e-20)
(5.27358 0.052797 2.95522e-21)
(5.30504 0.0699193 2.26227e-21)
(5.30345 0.0725824 3.45689e-21)
(5.33612 0.0786683 -1.39128e-21)
(5.33 0.0835906 1.19672e-20)
(5.36838 0.0745166 -1.64164e-20)
(5.35612 0.0832689 -3.46538e-21)
(5.40869 0.051396 3.04598e-21)
(5.38585 0.067557 3.84685e-22)
(5.47014 0.00260503 -1.55073e-22)
(5.42886 0.0287677 -2.72027e-22)
(5.5584 -0.0749904 0)
(5.50047 -0.0396637 0)
(5.63173 -0.169975 6.80505e-21)
(5.59212 -0.137712 0)
(5.55961 -0.268143 4.68312e-20)
(5.62001 -0.239106 -1.65106e-20)
(5.11031 -0.385803 -3.13088e-21)
(5.3849 -0.352539 -1.55005e-21)
(4.32236 -0.561666 -2.1975e-20)
(4.62593 -0.500168 -1.16794e-19)
(3.64214 -0.805824 -9.05918e-21)
(3.74075 -0.706433 1.35124e-19)
(3.42887 -1.05928 -8.67481e-21)
(3.26451 -0.971768 1.23162e-19)
(3.67653 -1.25633 5.8063e-21)
(3.3696 -1.20659 -1.01559e-19)
(4.07097 -1.3978 2.84643e-21)
(3.82074 -1.3819 -4.52934e-20)
(4.34609 -1.50593 0)
(4.1891 -1.54414 -3.16279e-22)
(4.48586 -1.57544 1.61166e-21)
(4.40005 -1.68229 -1.23365e-20)
(4.55939 -1.59617 1.37763e-20)
(4.52358 -1.75979 1.625e-21)
(4.62399 -1.57305 8.22263e-21)
(4.61678 -1.77427 -7.65931e-20)
(4.71252 -1.51538 -1.53626e-20)
(4.71795 -1.73618 -3.95359e-21)
(4.83109 -1.43234 -9.4255e-21)
(4.84702 -1.65744 5.8356e-20)
(4.96503 -1.33203 1.78701e-20)
(4.99545 -1.54755 -5.28758e-20)
(5.09583 -1.2222 -1.51707e-20)
(5.14329 -1.42025 1.17019e-19)
(5.21 -1.10786 -1.33177e-20)
(5.27601 -1.28749 -4.57862e-20)
(5.30055 -0.991502 0)
(5.38567 -1.15559 8.84135e-21)
(5.36621 -0.875101 0)
(5.46807 -1.0266 0)
(5.40887 -0.760347 9.47056e-22)
(5.5243 -0.902178 -3.28184e-20)
(5.432 -0.647755 7.28338e-22)
(5.55747 -0.782704 6.85257e-21)
(5.43901 -0.53762 2.36373e-20)
(5.57232 -0.667774 7.75834e-21)
(5.43112 -0.43032 -2.14306e-19)
(5.57125 -0.556711 2.38974e-20)
(5.40823 -0.326458 -2.40028e-20)
(5.55462 -0.44831 -2.42568e-20)
(5.36959 -0.226886 -2.92573e-20)
(5.52199 -0.341898 0)
(5.31425 -0.131414 1.962e-19)
(5.47494 -0.241537 -2.43274e-20)
(5.22966 -0.0398268 3.42498e-20)
(5.41901 -0.150348 4.18015e-20)
(5.06109 0.0410486 1.08422e-19)
(5.33843 -0.0450713 -2.02768e-19)
(5.17767 0.0674566 1.98352e-19)
(4.74055 0.1194 -1.26228e-19)
(5.08486 -0.0320599 -3.80676e-20)
(5.03889 -0.0438977 1.12271e-19)
(4.984 -0.0791846 0)
(5.13484 -0.0163674 3.07571e-21)
(5.1069 -0.0145507 -6.87242e-21)
(5.18772 0.00426714 2.96595e-20)
(5.17628 0.00793662 1.01349e-19)
(5.23592 0.031376 -3.17222e-20)
(5.22645 0.0300536 -7.84574e-20)
(5.2727 0.0571692 -4.99013e-21)
(5.26373 0.0557751 -4.08386e-20)
(5.30106 0.077057 5.64176e-21)
(5.29228 0.0774005 2.33671e-20)
(5.32506 0.0887847 -7.28205e-22)
(5.31544 0.0911894 -8.96022e-21)
(5.34793 0.0900169 -2.71957e-20)
(5.33664 0.0960399 1.42897e-21)
(5.37239 0.0772277 6.73874e-21)
(5.35787 0.0891015 -3.00071e-21)
(5.40511 0.0445604 -5.20406e-22)
(5.38279 0.0662941 1.58354e-21)
(5.45805 -0.015733 -1.1723e-22)
(5.42057 0.0191616 -5.84742e-21)
(5.53396 -0.105395 0)
(5.48565 -0.0586629 4.12273e-21)
(5.58208 -0.213213 -1.27135e-20)
(5.5661 -0.16596 -1.05792e-20)
(5.46324 -0.321122 -1.30618e-20)
(5.5738 -0.276806 1.43768e-20)
(4.94226 -0.462918 -3.12752e-21)
(5.29047 -0.405711 8.40483e-21)
(4.10042 -0.646495 -1.28304e-20)
(4.49295 -0.558992 1.04397e-20)
(3.41939 -0.871418 -1.33523e-20)
(3.60103 -0.747049 -3.34048e-20)
(3.24515 -1.11095 -1.95719e-20)
(3.13782 -0.988334 -8.39468e-20)
(3.53205 -1.32489 -4.48293e-22)
(3.26149 -1.22323 3.86948e-20)
(3.94611 -1.52522 2.97018e-21)
(3.71082 -1.43645 4.90941e-20)
(4.24496 -1.71571 -1.36444e-20)
(4.07467 -1.66594 -3.14778e-22)
(4.43321 -1.86155 -1.24491e-20)
(4.31017 -1.87301 -9.39266e-21)
(4.57014 -1.93531 -1.36556e-20)
(4.48471 -2.00927 7.20986e-20)
(4.69424 -1.93587 -1.39746e-20)
(4.63597 -2.06155 -1.37192e-20)
(4.83118 -1.87557 7.40149e-21)
(4.78952 -2.03934 4.57546e-20)
(4.9869 -1.76891 -4.44773e-20)
(4.96103 -1.95377 -3.57995e-20)
(5.14687 -1.63289 -5.98882e-20)
(5.13812 -1.81579 -9.75077e-20)
(5.29407 -1.48415 -5.74889e-21)
(5.30028 -1.64871 6.74951e-20)
(5.41944 -1.33542 -5.06217e-20)
(5.43559 -1.47532 -6.31547e-21)
(5.51819 -1.19185 8.8103e-21)
(5.54353 -1.30915 -2.35883e-20)
(5.58886 -1.05574 -3.26298e-20)
(5.62249 -1.15509 -3.45314e-20)
(5.63406 -0.927709 -1.45247e-21)
(5.67461 -1.01482 8.47641e-21)
(5.6583 -0.807067 3.61469e-20)
(5.70385 -0.887038 -4.93793e-20)
(5.66546 -0.692637 2.23848e-22)
(5.71537 -0.769589 7.50571e-20)
(5.65723 -0.58245 0)
(5.71293 -0.659995 1.22068e-21)
(5.63332 -0.47463 0)
(5.69734 -0.555084 0)
(5.59305 -0.368455 5.29055e-21)
(5.66705 -0.451539 0)
(5.53853 -0.264375 1.65849e-20)
(5.62144 -0.350431 1.75722e-20)
(5.47804 -0.163845 6.84753e-21)
(5.56198 -0.25649 6.73844e-20)
(5.40811 -0.0617356 9.17505e-20)
(5.48606 -0.145199 1.0994e-19)
(5.40213 -0.0128226 9.75295e-20)
(5.27359 0.0787645 4.04273e-18)
(5.09257 -0.010747 1.32466e-19)
(5.08972 -0.0181195 -9.73929e-20)
(5.04754 -0.0389922 4.42892e-19)
(5.15883 0.00870353 4.8221e-21)
(5.15882 0.0139877 -8.23206e-20)
(5.21897 0.031088 -2.70089e-20)
(5.22257 0.0381135 7.95797e-21)
(5.26011 0.0562749 -1.43699e-20)
(5.26103 0.0590503 1.34234e-20)
(5.28838 0.077768 -7.50081e-20)
(5.28729 0.0802108 -7.91742e-21)
(5.31043 0.0926378 1.54118e-20)
(5.30777 0.0964365 1.32438e-20)
(5.33002 0.0997381 2.44539e-20)
(5.32508 0.105173 8.8441e-21)
(5.34902 0.0964445 3.43958e-20)
(5.34116 0.10511 -6.89296e-21)
(5.36966 0.0786615 6.15101e-22)
(5.35729 0.0934303 -4.87684e-21)
(5.39809 0.0402476 -1.35703e-21)
(5.37685 0.0648937 -4.20382e-22)
(5.44592 -0.0260653 -2.39442e-20)
(5.40881 0.0117403 -3.04174e-21)
(5.51416 -0.121612 -6.47796e-21)
(5.46654 -0.0727718 4.29179e-21)
(5.55161 -0.237174 -5.38012e-20)
(5.53425 -0.186095 -1.10281e-20)
(5.40092 -0.352785 1.215e-19)
(5.51904 -0.306748 -3.38697e-20)
(4.84124 -0.501188 2.22968e-20)
(5.18554 -0.444514 8.69313e-21)
(3.98904 -0.667879 6.55952e-20)
(4.35927 -0.588076 -1.6768e-20)
(3.30966 -0.868631 1.15025e-19)
(3.46384 -0.748185 -1.10344e-20)
(3.1403 -1.09427 6.15024e-20)
(3.0096 -0.964961 3.11089e-20)
(3.42525 -1.32969 5.35168e-20)
(3.13464 -1.20467 -6.81889e-20)
(3.82868 -1.57551 1.00595e-20)
(3.56897 -1.45477 -9.69766e-20)
(4.13218 -1.81736 -2.62885e-20)
(3.92474 -1.73694 6.32828e-23)
(4.35554 -2.0137 5.59726e-20)
(4.18526 -1.99845 1.12222e-19)
(4.54639 -2.13193 7.24845e-20)
(4.41527 -2.1867 8.85594e-20)
(4.72869 -2.16269 4.48968e-20)
(4.63668 -2.28236 -1.73882e-19)
(4.91799 -2.11117 4.71435e-20)
(4.86254 -2.28916 4.49466e-20)
(5.11283 -1.98909 -5.32976e-20)
(5.10025 -2.20775 -2.36108e-19)
(5.29528 -1.82192 -3.47891e-20)
(5.32208 -2.04559 -1.01222e-20)
(5.44876 -1.63335 6.66885e-20)
(5.50815 -1.83731 4.06187e-20)
(5.5697 -1.44522 4.50256e-20)
(5.64591 -1.61614 -2.73479e-20)
(5.66025 -1.2694 1.48149e-20)
(5.74388 -1.40385 8.87141e-21)
(5.72249 -1.11201 -4.29173e-20)
(5.80651 -1.21321 -5.64286e-20)
(5.75998 -0.972849 -6.75094e-20)
(5.84292 -1.05016 -6.67308e-20)
(5.77732 -0.849306 1.08931e-20)
(5.85928 -0.91184 5.40212e-20)
(5.77959 -0.738626 7.56697e-20)
(5.86025 -0.792928 9.04994e-20)
(5.77032 -0.637512 1.21567e-21)
(5.85021 -0.688594 8.23095e-20)
(5.75011 -0.541412 0)
(5.83234 -0.594002 -8.90271e-20)
(5.7167 -0.445545 -4.57393e-20)
(5.80645 -0.503995 0)
(5.66552 -0.34769 4.47337e-20)
(5.76992 -0.415163 -2.51852e-19)
(5.59593 -0.249236 5.82847e-19)
(5.71858 -0.329557 1.10288e-19)
(5.52636 -0.147358 1.15431e-19)
(5.64595 -0.22932 9.75201e-20)
(5.57325 -0.0977953 -1.6807e-19)
(5.4801 -0.0266692 0)
(5.15991 0.0222561 -6.5938e-20)
(5.1513 0.0196649 5.55512e-21)
(5.10203 -0.00293761 4.59718e-19)
(5.2184 0.0453209 -5.48992e-22)
(5.21578 0.0558689 1.29447e-20)
(5.26092 0.0653979 6.24732e-21)
(5.26342 0.0745381 2.64798e-20)
(5.28802 0.0848426 -6.44608e-21)
(5.28945 0.0907447 -7.82129e-20)
(5.3071 0.100785 -3.63101e-21)
(5.30663 0.106013 0)
(5.32243 0.110569 3.49468e-21)
(5.32009 0.116525 5.80752e-20)
(5.33628 0.112262 7.11264e-21)
(5.33174 0.119972 6.78616e-21)
(5.34997 0.103633 -1.59441e-21)
(5.34278 0.114809 -1.53727e-20)
(5.36507 0.0804951 2.00546e-20)
(5.35356 0.0979792 2.36319e-21)
(5.3873 0.0360532 1.67452e-21)
(5.36709 0.0639903 1.45769e-21)
(5.42789 -0.0368674 2.8898e-21)
(5.39239 0.00475238 -6.47058e-21)
(5.48474 -0.139234 0)
(5.44158 -0.0863625 8.48649e-21)
(5.49897 -0.263405 -6.09349e-20)
(5.49386 -0.205734 -1.71075e-20)
(5.31063 -0.388247 -6.24093e-20)
(5.45382 -0.336907 -5.65873e-20)
(4.71502 -0.533864 -1.88656e-20)
(5.0731 -0.478522 -6.47978e-20)
(3.84722 -0.677841 -9.29767e-20)
(4.22657 -0.602079 2.23621e-21)
(3.17103 -0.850866 -1.04391e-19)
(3.33015 -0.726528 -9.57181e-20)
(3.00337 -1.06393 -7.91779e-20)
(2.87736 -0.916571 2.88851e-22)
(3.27546 -1.32286 -1.13586e-19)
(2.9843 -1.16163 6.77702e-21)
(3.66335 -1.61386 -2.40005e-20)
(3.39043 -1.44449 8.35384e-20)
(3.9738 -1.9095 1.11172e-19)
(3.73198 -1.77274 6.29518e-23)
(4.23947 -2.16183 1.64861e-19)
(4.0154 -2.08519 1.82263e-20)
(4.49795 -2.333 -9.65532e-20)
(4.30254 -2.32582 -1.21125e-19)
(4.76107 -2.40539 -1.74171e-19)
(4.60295 -2.47003 5.57104e-20)
(5.03435 -2.37373 -1.90152e-19)
(4.92033 -2.51419 6.8005e-19)
(5.29781 -2.24312 -1.93196e-19)
(5.25391 -2.45438 -4.07881e-20)
(5.5234 -2.04696 0)
(5.54242 -2.27507 3.9688e-19)
(5.69537 -1.81351 1.49926e-20)
(5.7714 -2.03071 -1.08398e-19)
(5.81214 -1.5728 -3.56323e-20)
(5.92318 -1.76291 -1.55502e-19)
(5.88371 -1.34631 -1.11165e-19)
(6.01119 -1.49749 9.86228e-20)
(5.92176 -1.15048 -1.1107e-19)
(6.04373 -1.25704 -4.42072e-20)
(5.9379 -0.988446 4.92001e-20)
(6.04527 -1.05826 1.66899e-20)
(5.93855 -0.854888 1.36622e-19)
(6.03271 -0.900383 -2.40035e-19)
(5.92785 -0.742943 9.82904e-20)
(6.01262 -0.774528 1.70793e-19)
(5.90956 -0.6471 -9.58287e-21)
(5.98721 -0.6718 6.60749e-20)
(5.88635 -0.562769 -8.84643e-20)
(5.95842 -0.58527 -2.03053e-19)
(5.85813 -0.484166 -1.72229e-19)
(5.92849 -0.508911 1.9625e-21)
(5.82134 -0.405391 3.89156e-19)
(5.89652 -0.43736 -5.13288e-20)
(5.76911 -0.321877 1.5568e-19)
(5.85886 -0.367721 -2.74414e-20)
(5.70724 -0.226684 -1.95262e-19)
(5.80584 -0.291366 1.55077e-19)
(5.74312 -0.17062 -1.9162e-20)
(5.66694 -0.115689 -1.9e-18)
(5.21746 0.0644585 -2.06878e-19)
(5.21461 0.0644115 7.42865e-20)
(5.16891 0.0388189 1.92542e-20)
(5.26201 0.0842297 3.87379e-20)
(5.26782 0.0985774 -1.01162e-20)
(5.2917 0.0991333 -7.19826e-20)
(5.2979 0.109856 0)
(5.30873 0.113143 -6.81068e-20)
(5.31278 0.121564 1.56256e-19)
(5.32022 0.12341 4.69489e-20)
(5.32183 0.130996 -5.14448e-20)
(5.32962 0.127722 4.46834e-20)
(5.32903 0.135998 5.62606e-21)
(5.33839 0.124247 -8.07884e-21)
(5.33539 0.13442 -6.94561e-21)
(5.34698 0.11067 -3.5828e-20)
(5.34134 0.124467 -5.65542e-21)
(5.35639 0.0825759 8.08088e-21)
(5.34634 0.102786 4.23299e-21)
(5.37213 0.0328234 -1.23777e-20)
(5.35309 0.0638595 4.52274e-21)
(5.40476 -0.045769 -4.60591e-21)
(5.3707 -0.000777642 -2.25094e-20)
(5.44855 -0.154335 -8.67563e-21)
(5.40964 -0.0975076 -2.06731e-20)
(5.44428 -0.286478 6.04002e-20)
(5.4443 -0.222261 1.38384e-20)
(5.22028 -0.417992 -4.8091e-20)
(5.37738 -0.3633 -8.82042e-20)
(4.59214 -0.551765 -4.52713e-20)
(4.95533 -0.502408 1.01984e-19)
(3.71702 -0.663556 1.03258e-19)
(4.0984 -0.59729 4.93867e-20)
(3.03855 -0.802434 -2.91715e-20)
(3.20095 -0.67896 9.02539e-20)
(2.85735 -0.999541 7.89914e-20)
(2.73869 -0.836865 -1.20345e-20)
(3.09856 -1.27706 6.63426e-20)
(2.8065 -1.08201 4.58324e-20)
(3.45772 -1.60139 1.1687e-20)
(3.17271 -1.38388 1.0292e-20)
(3.76861 -1.93846 -6.10891e-20)
(3.49171 -1.74216 1.15309e-21)
(4.07267 -2.23771 -1.81791e-19)
(3.79078 -2.09062 2.96104e-19)
(4.40056 -2.4576 1.88923e-20)
(4.13052 -2.37324 -7.2771e-20)
(4.75248 -2.57254 8.31836e-19)
(4.5121 -2.55969 9.84698e-20)
(5.12774 -2.5702 9.90786e-19)
(4.9293 -2.6362 3.11772e-19)
(5.48662 -2.44778 4.75383e-19)
(5.38102 -2.60907 -8.73584e-20)
(5.78113 -2.23883 4.27491e-19)
(5.76094 -2.42823 1.04896e-18)
(5.99265 -1.97358 -2.75297e-19)
(6.05792 -2.16173 1.70076e-19)
(6.11811 -1.68687 3.01217e-21)
(6.24755 -1.86427 1.13719e-19)
(6.16854 -1.40717 1.62655e-19)
(6.34295 -1.55903 4.11698e-19)
(6.16576 -1.16381 7.31543e-20)
(6.34568 -1.2741 2.02565e-19)
(6.1396 -0.969237 -2.67461e-19)
(6.29658 -1.03696 2.01681e-19)
(6.10713 -0.819125 -2.23889e-19)
(6.2348 -0.85457 -5.74405e-19)
(6.07296 -0.702472 1.34761e-19)
(6.17788 -0.718376 1.75115e-19)
(6.03775 -0.609326 -1.27397e-19)
(6.12761 -0.615089 1.44658e-19)
(6.00292 -0.532668 -1.14136e-19)
(6.08171 -0.533964 -2.61635e-19)
(5.96998 -0.467381 1.70511e-19)
(6.03968 -0.467743 2.15679e-20)
(5.93796 -0.407609 -1.00616e-19)
(6.00271 -0.411149 -2.27313e-20)
(5.90145 -0.347679 3.23562e-19)
(5.96937 -0.358579 3.42193e-20)
(5.85885 -0.277953 3.53127e-19)
(5.93418 -0.307364 2.29546e-19)
(5.88786 -0.218576 2.62217e-19)
(5.83893 -0.187293 8.51154e-19)
(5.27368 0.109203 2.50348e-19)
(5.2731 0.112614 1.53035e-19)
(5.23877 0.0879571 3.96637e-20)
(5.30214 0.1233 -4.61744e-20)
(5.31134 0.140681 1.66271e-20)
(5.31801 0.132669 1.91749e-19)
(5.32517 0.144944 5.41302e-20)
(5.32555 0.141005 1.65079e-19)
(5.33087 0.151856 1.96998e-19)
(5.33019 0.145638 -8.48455e-20)
(5.33294 0.15559 -1.44977e-19)
(5.33394 0.144695 -1.6352e-20)
(5.33451 0.155424 -4.49024e-21)
(5.33761 0.136455 -3.20007e-20)
(5.33588 0.149129 4.82677e-21)
(5.34058 0.118118 2.9058e-21)
(5.33635 0.134613 2.16279e-20)
(5.34344 0.0853685 4.79789e-22)
(5.33499 0.108474 4.09563e-21)
(5.3517 0.0309229 -1.29005e-20)
(5.33412 0.0651284 6.90004e-22)
(5.37478 -0.0524621 -4.33765e-20)
(5.34281 -0.00407688 -1.57657e-20)
(5.40321 -0.166698 3.29627e-21)
(5.36928 -0.105152 -5.58253e-20)
(5.37425 -0.30473 -7.27642e-20)
(5.38393 -0.234285 5.3653e-20)
(5.11698 -0.441034 8.34406e-20)
(5.2888 -0.38295 6.14882e-20)
(4.46895 -0.55474 1.98378e-19)
(4.83583 -0.513246 6.14885e-20)
(3.58975 -0.627711 2.47616e-19)
(3.97808 -0.574071 5.35505e-20)
(2.9035 -0.72479 1.50821e-19)
(3.07909 -0.605763 1.64116e-20)
(2.69396 -0.900174 -5.07828e-20)
(2.59311 -0.723845 -3.44832e-21)
(2.88824 -1.18184 -9.9268e-21)
(2.60243 -0.957009 -8.61822e-21)
(3.20745 -1.52323 3.03565e-21)
(2.91521 -1.25774 -1.24048e-21)
(3.51006 -1.88276 3.52671e-19)
(3.20213 -1.6238 1.1464e-21)
(3.84524 -2.21248 4.25725e-19)
(3.5045 -1.98617 2.63009e-21)
(4.24098 -2.46729 3.03358e-20)
(3.88637 -2.29058 -6.75446e-19)
(4.68744 -2.60551 -4.5253e-19)
(4.3521 -2.50158 5.32161e-20)
(5.17273 -2.62996 -1.63063e-19)
(4.87387 -2.63729 -1.60644e-18)
(5.64084 -2.52732 5.04371e-19)
(5.4336 -2.59468 1.00528e-18)
(6.02871 -2.3264 1.13233e-18)
(5.92077 -2.42704 3.07351e-19)
(6.30674 -2.0497 5.38161e-19)
(6.31319 -2.15619 -1.96958e-18)
(6.4669 -1.73895 5.2455e-19)
(6.56623 -1.85177 3.25824e-19)
(6.51452 -1.42633 4.48261e-19)
(6.69482 -1.53414 7.33935e-19)
(6.47196 -1.14669 3.24913e-19)
(6.68867 -1.2329 2.75632e-19)
(6.38871 -0.921522 -9.50019e-20)
(6.59293 -0.97497 1.23205e-19)
(6.30363 -0.75297 -2.1265e-19)
(6.46991 -0.774328 -2.16329e-19)
(6.23148 -0.630211 1.6875e-19)
(6.35933 -0.629992 -1.06359e-19)
(6.17109 -0.538939 9.4364e-21)
(6.27235 -0.528075 3.96031e-19)
(6.1186 -0.468441 -1.34787e-19)
(6.20329 -0.453418 -3.48062e-19)
(6.07321 -0.412157 -1.34821e-19)
(6.14539 -0.39608 1.85008e-19)
(6.03538 -0.365568 1.55981e-19)
(6.09673 -0.350503 3.9373e-21)
(6.0037 -0.323926 2.78094e-19)
(6.0572 -0.312449 -5.26559e-20)
(5.97295 -0.280818 8.11843e-20)
(6.02669 -0.277867 6.47564e-20)
(5.99115 -0.227697 5.38852e-20)
(5.96876 -0.220164 4.75815e-20)
(5.31936 0.152925 1.69461e-19)
(5.32154 0.159103 5.36343e-20)
(5.3008 0.13728 1.94841e-19)
(5.33285 0.160925 1.5282e-19)
(5.34479 0.17978 -1.17092e-19)
(5.33767 0.165043 9.89356e-20)
(5.34575 0.178772 5.3462e-20)
(5.33767 0.168028 -2.46961e-20)
(5.34406 0.181141 1.88083e-20)
(5.33636 0.167515 -1.07682e-19)
(5.34012 0.179878 -5.35115e-20)
(5.33508 0.161816 -3.09771e-21)
(5.33656 0.175047 -2.63419e-22)
(5.33335 0.149084 1.68313e-20)
(5.33275 0.164386 -1.85141e-20)
(5.32985 0.126451 4.22788e-21)
(5.32718 0.145694 4.90734e-21)
(5.32524 0.0894715 2.57342e-22)
(5.31874 0.115669 -8.2019e-21)
(5.32483 0.0311088 -1.50721e-21)
(5.30937 0.0686492 2.59253e-20)
(5.33649 -0.055905 -2.81705e-20)
(5.30773 -0.00390104 -1.35512e-20)
(5.34737 -0.174311 -2.41332e-20)
(5.31922 -0.107451 1.4362e-21)
(5.29551 -0.315667 1.98535e-19)
(5.31222 -0.239455 -5.81015e-20)
(5.01045 -0.45203 7.2341e-20)
(5.18866 -0.392979 -8.1614e-20)
(4.35046 -0.541021 -1.50373e-19)
(4.71686 -0.509013 -8.81873e-20)
(3.47278 -0.569758 -9.56195e-20)
(3.86945 -0.53252 -2.35278e-19)
(2.77231 -0.614031 -1.25091e-19)
(2.97031 -0.507454 -1.59466e-19)
(2.51713 -0.758405 0)
(2.44213 -0.574506 -2.10636e-19)
(2.64837 -1.02256 0)
(2.37703 -0.776243 -8.75273e-21)
(2.91531 -1.35724 0)
(2.62133 -1.05127 -1.28772e-19)
(3.19488 -1.71406 -3.60696e-19)
(2.86382 -1.39629 -3.27166e-21)
(3.54341 -2.0477 -1.09693e-18)
(3.1531 -1.74042 -1.6949e-18)
(3.99202 -2.32192 -6.29642e-19)
(3.55219 -2.03538 -1.58129e-19)
(4.53423 -2.49914 -9.15149e-19)
(4.07149 -2.24337 -9.59927e-19)
(5.13806 -2.53014 -6.27696e-20)
(4.71201 -2.40093 -2.34867e-18)
(5.71551 -2.41622 5.67672e-19)
(5.38938 -2.32968 -5.52763e-19)
(6.20451 -2.22838 -2.72685e-18)
(5.97138 -2.19912 4.65545e-19)
(6.57217 -1.96093 -2.22998e-18)
(6.47587 -1.95479 -3.47305e-19)
(6.7927 -1.65243 5.65926e-19)
(6.81437 -1.66889 -5.36027e-19)
(6.86622 -1.34197 5.09009e-19)
(6.9939 -1.36716 -2.2726e-19)
(6.80736 -1.06116 5.13803e-20)
(7.00488 -1.08399 -5.72721e-19)
(6.67292 -0.82677 0)
(6.89338 -0.838557 2.38997e-19)
(6.52488 -0.650279 -1.34013e-19)
(6.71987 -0.642093 5.17064e-19)
(6.39976 -0.527078 1.19591e-19)
(6.54908 -0.502685 -2.12934e-19)
(6.30438 -0.441951 6.45116e-20)
(6.41497 -0.410448 1.21625e-20)
(6.23018 -0.3805 -3.54709e-20)
(6.31707 -0.348271 3.53602e-20)
(6.16943 -0.333887 3.28963e-19)
(6.24222 -0.303557 1.861e-19)
(6.11983 -0.297508 -1.29466e-19)
(6.18136 -0.269548 1.54497e-19)
(6.08158 -0.267891 -2.63872e-19)
(6.1322 -0.243674 -3.04169e-19)
(6.05101 -0.242926 3.69576e-20)
(6.09475 -0.220909 -1.15585e-20)
(6.06331 -0.200575 -3.10842e-19)
(6.04682 -0.207061 0)
(5.35446 0.193371 -4.77113e-20)
(5.35915 0.201458 -5.53735e-20)
(5.34948 0.183151 -5.24351e-20)
(5.35593 0.196319 -1.70024e-19)
(5.36903 0.215601 -1.1741e-19)
(5.35195 0.196187 7.46634e-21)
(5.3605 0.211385 -1.08206e-20)
(5.34561 0.194484 2.09142e-20)
(5.35263 0.209714 -1.66814e-19)
(5.33892 0.189451 2.26352e-20)
(5.34337 0.204278 1.10987e-19)
(5.33223 0.179533 -2.15826e-20)
(5.33477 0.195347 -2.90206e-20)
(5.32455 0.162714 -3.1321e-20)
(5.32542 0.180748 2.18223e-20)
(5.31421 0.136352 -8.08764e-21)
(5.31332 0.158464 0)
(5.30116 0.0959638 3.58416e-20)
(5.2969 0.125262 2.24368e-23)
(5.29055 0.0348171 -4.32818e-21)
(5.27801 0.0756057 1.25532e-20)
(5.28832 -0.0545584 2.67596e-20)
(5.26427 0.00153516 -4.06877e-20)
(5.28036 -0.175045 -4.55365e-20)
(5.25849 -0.102199 7.24322e-20)
(5.20403 -0.316464 -3.3487e-19)
(5.22847 -0.235139 -3.07806e-20)
(4.89766 -0.448308 -2.24786e-19)
(5.07701 -0.386453 -1.21321e-19)
(4.23972 -0.510148 -2.37271e-19)
(4.60068 -0.487001 -2.9626e-21)
(3.37105 -0.490207 -1.80276e-19)
(3.77684 -0.472141 -3.29817e-19)
(2.6512 -0.470079 -2.45071e-19)
(2.8832 -0.387282 -3.5319e-20)
(2.33393 -0.565911 -2.52285e-19)
(2.29325 -0.386752 7.21989e-19)
(2.38617 -0.788119 -1.36177e-19)
(2.13838 -0.532143 -4.48431e-20)
(2.58876 -1.0861 -1.381e-19)
(2.30009 -0.753981 -1.51714e-18)
(2.82788 -1.40631 -1.31414e-18)
(2.48527 -1.04525 1.83763e-21)
(3.16539 -1.70651 -5.85442e-19)
(2.74292 -1.33231 -1.82593e-18)
(3.64133 -1.95012 -2.87615e-19)
(3.13833 -1.57568 6.95523e-19)
(4.25901 -2.09513 -1.61184e-18)
(3.69014 -1.73394 -3.20222e-19)
(4.96673 -2.11386 -3.41949e-18)
(4.40482 -1.85215 -2.26597e-19)
(5.64676 -2.043 -5.08005e-19)
(5.17063 -1.81312 -4.91324e-19)
(6.24718 -1.89902 3.24528e-18)
(5.85064 -1.73357 1.24863e-20)
(6.72786 -1.67053 1.63492e-18)
(6.48432 -1.54651 -8.55671e-21)
(7.02717 -1.38948 -1.75426e-18)
(6.93677 -1.30421 8.2202e-19)
(7.14353 -1.10806 -1.70197e-18)
(7.18378 -1.04274 -1.0863e-18)
(7.09847 -0.863823 -3.76854e-19)
(7.22011 -0.799159 -6.83215e-19)
(6.94223 -0.65273 7.45909e-19)
(7.13196 -0.596667 -3.45802e-19)
(6.7438 -0.49326 5.23987e-19)
(6.93756 -0.438372 2.79535e-19)
(6.56349 -0.385636 -2.69451e-19)
(6.71956 -0.328353 -4.18103e-20)
(6.42683 -0.316595 -1.86481e-20)
(6.53897 -0.260341 -2.28844e-19)
(6.32842 -0.271182 2.54607e-19)
(6.40976 -0.219377 2.85238e-21)
(6.25365 -0.23909 2.47294e-20)
(6.31851 -0.193231 4.32786e-19)
(6.19343 -0.215202 0)
(6.24869 -0.174757 -5.9099e-19)
(6.14585 -0.19703 -5.98919e-20)
(6.19215 -0.162139 3.75217e-19)
(6.10874 -0.183499 -3.73893e-19)
(6.14727 -0.150473 -3.95995e-20)
(6.11259 -0.149083 -6.48665e-19)
(6.09551 -0.166064 2.81526e-20)
(5.37985 0.229943 5.92714e-20)
(5.38706 0.239188 -7.86234e-20)
(5.38521 0.223704 9.89305e-20)
(5.37201 0.229552 8.40413e-21)
(5.38558 0.2485 5.86325e-20)
(5.36118 0.226331 -1.40971e-19)
(5.37017 0.242778 -1.11249e-20)
(5.34936 0.220834 -7.10632e-20)
(5.35681 0.237981 -1.00992e-19)
(5.33751 0.212029 6.76544e-20)
(5.3426 0.229289 7.45983e-20)
(5.32531 0.198395 -6.19847e-21)
(5.32876 0.216925 -4.73234e-20)
(5.31117 0.178184 6.04406e-21)
(5.31342 0.199045 3.94872e-20)
(5.29294 0.148766 8.70962e-21)
(5.29402 0.173864 -1.00173e-20)
(5.2705 0.106016 -2.13257e-20)
(5.26883 0.138356 1.70451e-20)
(5.24813 0.0436718 -4.87812e-20)
(5.23939 0.0874864 -3.04905e-20)
(5.22977 -0.0457581 6.09872e-21)
(5.21173 0.0142847 -5.13656e-21)
(5.20158 -0.165261 1.38549e-19)
(5.18662 -0.0870432 -3.08384e-21)
(5.10023 -0.301725 1.89268e-19)
(5.13311 -0.217749 1.15287e-19)
(4.78075 -0.423639 1.03329e-19)
(4.95555 -0.359601 8.075e-20)
(4.1406 -0.458835 -6.31984e-20)
(4.48803 -0.442311 -1.85161e-19)
(3.29268 -0.390405 -3.3628e-20)
(3.70319 -0.392453 6.3355e-19)
(2.54272 -0.301813 2.11094e-19)
(2.82356 -0.249836 0)
(2.14784 -0.320923 2.03032e-19)
(2.16488 -0.164456 4.53105e-19)
(2.11392 -0.469527 9.87265e-20)
(1.90375 -0.223584 2.68923e-18)
(2.24245 -0.699749 1.36337e-19)
(1.96619 -0.364191 1.36039e-19)
(2.42871 -0.943552 5.9915e-19)
(2.08598 -0.569893 5.05364e-21)
(2.73235 -1.17144 5.96496e-19)
(2.29245 -0.765346 -5.15675e-19)
(3.2035 -1.34403 1.18739e-18)
(2.66296 -0.917198 1.17082e-20)
(3.85111 -1.43759 2.2867e-18)
(3.21659 -1.00218 1.24062e-18)
(4.61782 -1.46667 2.32903e-18)
(3.94866 -1.08812 1.01778e-18)
(5.38337 -1.44771 5.03416e-19)
(4.76443 -1.08915 1.86178e-18)
(6.10193 -1.36412 -4.05188e-18)
(5.53119 -1.06643 -1.79584e-18)
(6.70956 -1.19564 -9.78707e-19)
(6.2995 -0.951917 -7.92697e-19)
(7.10058 -0.971551 1.82511e-18)
(6.88481 -0.775651 -1.38402e-18)
(7.25908 -0.73908 -1.19337e-19)
(7.23378 -0.586394 1.83173e-18)
(7.24997 -0.542943 -6.95009e-19)
(7.31043 -0.405352 2.29841e-18)
(7.12095 -0.385409 -7.17413e-19)
(7.25086 -0.263616 -7.95459e-19)
(6.90757 -0.273608 -1.87698e-19)
(7.06613 -0.16946 -4.17773e-19)
(6.69138 -0.203925 5.82508e-22)
(6.82978 -0.112726 -1.95288e-19)
(6.51968 -0.163955 -2.24147e-19)
(6.62045 -0.0836624 -1.27438e-19)
(6.39851 -0.14199 1.66811e-19)
(6.46666 -0.0721726 3.63658e-20)
(6.31279 -0.129479 -1.87679e-19)
(6.36175 -0.0694583 3.93257e-19)
(6.2468 -0.12169 -2.30116e-19)
(6.28713 -0.0695937 -1.02192e-18)
(6.19348 -0.116774 3.88353e-19)
(6.22856 -0.0720377 7.98167e-19)
(6.15031 -0.114578 -3.21164e-19)
(6.18011 -0.0720904 -3.49345e-19)
(6.14252 -0.0846591 4.02495e-20)
(6.12687 -0.110489 6.42284e-19)
(5.39734 0.26309 -7.7453e-20)
(5.40676 0.272786 -2.30171e-19)
(5.41064 0.259279 -1.97156e-19)
(5.38223 0.260961 0)
(5.39598 0.279268 -1.30066e-19)
(5.3658 0.255826 5.36119e-20)
(5.37531 0.273168 2.40863e-19)
(5.34897 0.247618 5.13234e-20)
(5.35678 0.266405 -1.00131e-19)
(5.33191 0.235882 -2.37828e-20)
(5.3376 0.255477 4.64851e-20)
(5.31367 0.219313 -3.20341e-21)
(5.31809 0.240557 -4.63255e-20)
(5.29229 0.196405 4.31883e-20)
(5.29612 0.220207 5.03526e-20)
(5.26546 0.164848 5.58393e-21)
(5.26873 0.192993 -1.09476e-20)
(5.23275 0.121034 -6.34267e-21)
(5.23406 0.156294 3.84671e-20)
(5.19719 0.0593748 2.33039e-20)
(5.19314 0.105946 -3.20295e-20)
(5.1611 -0.0272376 2.73935e-20)
(5.15005 0.0361225 2.356e-20)
(5.11067 -0.141816 5.59104e-20)
(5.10383 -0.0597081 -1.12847e-19)
(4.9855 -0.270623 -5.23065e-20)
(5.02585 -0.183228 -8.0822e-22)
(4.66236 -0.376654 -2.15364e-19)
(4.82787 -0.310718 -7.29286e-20)
(4.05298 -0.385154 5.17421e-19)
(4.38045 -0.372168 3.02198e-20)
(3.23825 -0.272304 6.87186e-19)
(3.6504 -0.294586 8.05555e-19)
(2.46678 -0.112914 2.37805e-19)
(2.79873 -0.0989663 -4.22471e-20)
(1.98726 -0.0299338 2.97238e-19)
(2.08023 0.0817972 -1.14585e-18)
(1.85164 -0.0684241 7.06602e-20)
(1.70266 0.136783 -3.79739e-18)
(1.89993 -0.202681 0)
(1.64264 0.103566 3.05342e-19)
(2.02639 -0.337429 7.67556e-19)
(1.69143 0.0132633 -6.90202e-21)
(2.27576 -0.457482 7.69325e-19)
(1.83309 -0.0674773 1.81466e-18)
(2.70454 -0.547925 6.7604e-20)
(2.14707 -0.110481 6.65131e-20)
(3.32911 -0.608629 0)
(2.6611 -0.129357 1.7561e-18)
(4.10609 -0.655282 0)
(3.36277 -0.189372 0)
(4.92513 -0.680297 -4.08932e-19)
(4.19337 -0.220632 0)
(5.73922 -0.658525 1.4479e-18)
(5.0244 -0.258309 -2.1869e-18)
(6.4714 -0.564951 -5.64555e-19)
(5.9112 -0.221936 3.35242e-18)
(6.9958 -0.423055 -1.4969e-18)
(6.63001 -0.135618 8.7108e-19)
(7.25304 -0.27773 2.29464e-18)
(7.09413 -0.0452528 1.03336e-18)
(7.28401 -0.144302 1.09859e-18)
(7.26745 0.0429624 -6.9967e-19)
(7.18025 -0.0571439 -4.86978e-19)
(7.23796 0.110458 6.931e-19)
(6.97978 -0.0117455 -3.88244e-19)
(7.07592 0.133466 -6.9402e-19)
(6.75461 0.00540877 -2.85857e-19)
(6.85131 0.126877 3.209e-19)
(6.56488 0.00630503 1.03606e-19)
(6.63877 0.107123 -5.10641e-19)
(6.42851 -0.0011212 2.47927e-19)
(6.4752 0.0825716 4.86416e-19)
(6.33586 -0.010934 -4.44956e-19)
(6.36443 0.058899 0)
(6.269 -0.0204936 -3.16602e-20)
(6.29013 0.0391182 -5.757e-19)
(6.21577 -0.0294619 5.12604e-20)
(6.23471 0.0214876 9.81473e-19)
(6.17156 -0.0384396 -1.87574e-19)
(6.18786 0.0093638 -7.47708e-19)
(6.15137 -0.0133983 3.65174e-19)
(6.14062 -0.0456509 2.32594e-19)
(5.40862 0.293494 -3.6428e-19)
(5.4199 0.303128 -1.47887e-19)
(5.42831 0.290445 -2.54169e-20)
(5.38766 0.29107 1.46533e-19)
(5.40159 0.308568 -5.4356e-21)
(5.36615 0.285077 9.712e-20)
(5.37632 0.303017 1.39243e-19)
(5.34441 0.275342 -1.05566e-19)
(5.35269 0.295403 -1.58814e-19)
(5.32184 0.261682 2.37822e-20)
(5.3282 0.28338 9.32176e-20)
(5.29699 0.243148 -1.75543e-20)
(5.30241 0.266992 -4.63228e-20)
(5.26759 0.218485 1.49453e-20)
(5.27306 0.245271 8.3377e-20)
(5.23141 0.185923 1.30971e-20)
(5.23709 0.217115 4.17686e-20)
(5.1876 0.142523 -2.24006e-20)
(5.19241 0.180592 2.0177e-20)
(5.13777 0.0836307 -8.8118e-20)
(5.13934 0.132647 -2.02585e-20)
(5.08256 0.00303214 -1.1455e-19)
(5.07989 0.0686452 -1.35607e-19)
(5.0083 -0.102199 -1.15151e-19)
(5.01126 -0.0177545 -1.36058e-19)
(4.86154 -0.219458 -5.19196e-20)
(4.90758 -0.12719 -2.53663e-19)
(4.54286 -0.305679 2.02297e-19)
(4.69612 -0.234141 5.13488e-20)
(3.97752 -0.29055 2.8787e-19)
(4.27832 -0.274689 -1.04571e-19)
(3.21455 -0.139616 1.0571e-19)
(3.6198 -0.179632 -8.88609e-20)
(2.44183 0.0923693 -4.84252e-20)
(2.82012 0.0565982 -4.31313e-20)
(1.89125 0.299524 -3.41381e-20)
(2.06952 0.33338 -2.2429e-18)
(1.64001 0.392268 2.38889e-19)
(1.565 0.522839 -5.19666e-18)
(1.587 0.383187 2.92722e-19)
(1.36596 0.617756 6.02285e-18)
(1.64158 0.376219 1.02351e-18)
(1.32963 0.671959 7.38259e-21)
(1.81812 0.37302 1.04624e-18)
(1.39261 0.712612 3.14153e-18)
(2.17532 0.363045 1.72524e-18)
(1.62523 0.765789 1.77643e-18)
(2.7303 0.32853 1.74663e-18)
(2.0627 0.793684 3.96461e-18)
(3.46544 0.265196 0)
(2.69211 0.757038 -5.00911e-19)
(4.30238 0.192536 -1.74833e-18)
(3.50138 0.694711 4.7863e-19)
(5.19033 0.153761 -2.49496e-19)
(4.37709 0.592112 -1.14779e-18)
(6.04369 0.157341 3.42676e-18)
(5.34682 0.541512 -8.83491e-19)
(6.6932 0.199397 2.16669e-18)
(6.19054 0.526794 -3.45134e-19)
(7.08056 0.240829 -9.86133e-19)
(6.76372 0.514039 5.10061e-19)
(7.20375 0.284464 -6.94122e-19)
(7.05757 0.508782 -5.44582e-19)
(7.12662 0.292223 1.19665e-19)
(7.09314 0.489907 9.61856e-19)
(6.94456 0.26739 -1.34197e-20)
(6.97022 0.437948 -2.71573e-19)
(6.733 0.225821 9.27632e-20)
(6.77539 0.36496 2.85195e-19)
(6.54694 0.180798 -1.5665e-19)
(6.58138 0.291724 -1.49181e-19)
(6.40962 0.140153 2.33519e-19)
(6.42754 0.228331 1.97477e-20)
(6.31775 0.10673 -1.45373e-19)
(6.32321 0.178131 -1.0304e-19)
(6.25514 0.0798128 4.02548e-19)
(6.25577 0.140148 5.339e-20)
(6.20719 0.0575962 1.11825e-19)
(6.20832 0.109435 1.56459e-19)
(6.16736 0.0387117 -3.75356e-19)
(6.16849 0.086596 9.90043e-21)
(6.13818 0.0572321 2.37105e-20)
(6.13407 0.0224511 1.08431e-19)
(5.41525 0.321969 1.48293e-19)
(5.42857 0.331506 1.56267e-19)
(5.44054 0.318046 -6.75701e-20)
(5.38911 0.32038 1.24004e-20)
(5.40356 0.337115 1.41948e-19)
(5.3626 0.314551 -1.17874e-19)
(5.37371 0.332967 6.42299e-20)
(5.33564 0.304432 4.58689e-20)
(5.34471 0.325498 -1.0676e-19)
(5.30709 0.290041 2.05614e-20)
(5.31439 0.313531 1.97557e-20)
(5.27501 0.27074 1.16076e-20)
(5.28162 0.296899 2.27651e-20)
(5.23692 0.245613 4.06077e-20)
(5.24417 0.275201 2.74269e-20)
(5.19063 0.213393 3.1882e-22)
(5.19905 0.247537 8.66947e-21)
(5.13505 0.172049 3.75838e-20)
(5.14409 0.21284 -2.24725e-20)
(5.07033 0.118162 3.87533e-20)
(5.07871 0.169267 1.35151e-19)