/*--------------------------------*- C++ -*----------------------------------*\
  =========                 |
  \\      /  F ield         | OpenFOAM: The Open Source CFD Toolbox
   \\    /   O peration     | Website:  https://openfoam.org
    \\  /    A nd           | Version:  6
     \\/     M anipulation  |
\*---------------------------------------------------------------------------*/
FoamFile
{
    version     2.0;
    format      ascii;
    class       volVectorField;
    location    "1.97";
    object      U;
}
// * * * * * * * * * * * * * * * * * * * * * * * * * * * * * * * * * * * * * //

dimensions      [0 1 -1 0 0 0 0];

internalField   nonuniform List<vector> 
800
(
(-534.831 181.722 0)
(238.648 -103.713 0)
(87.4831 -68.0893 0)
(169.835 -33.1448 0)
(126.681 -63.4554 0)
(178.447 -26.8384 0)
(133.329 -60.3855 0)
(181.968 -26.0713 0)
(140.112 -54.9246 0)
(181.23 -18.1583 0)
(131.178 -65.9043 0)
(196.842 -3.27975 0)
(126.118 -64.3492 0)
(204.26 -10.3012 0)
(128.172 -48.6459 0)
(209.889 -6.86307 0)
(134.555 -38.2605 0)
(207.933 -7.71185 0)
(144.859 -31.4156 0)
(221.465 -4.73083 0)
(-33.7264 -111.192 0)
(-197.055 72.9189 0)
(49.8315 21.1032 0)
(-48.1902 -3.53012 0)
(141.997 50.363 0)
(-75.9784 5.61749 0)
(-1.76365 62.0699 0)
(-74.2881 -0.665857 0)
(3.85425 45.664 0)
(-91.5876 -2.58629 0)
(-20.4703 72.4164 0)
(-80.081 -8.5786 0)
(-73.1702 68.7951 0)
(-132.177 -12.669 0)
(-42.8419 44.6261 0)
(-153.172 -11.7556 0)
(-23.4872 39.604 0)
(-128.172 -3.41898 0)
(-55.6821 25.1513 0)
(120.031 -0.988126 0)
(-271.376 105.437 0)
(222.303 -129.706 0)
(-83.4861 -38.6949 0)
(77.2059 41.5745 0)
(-127.798 -32.8813 0)
(56.8839 39.4329 0)
(-107.473 -63.0317 0)
(16.8468 32.1556 0)
(-64.2165 -42.1284 0)
(12.6098 42.2063 0)
(-134.344 -74.5069 0)
(-13.5868 29.9607 0)
(-126.204 -65.2577 0)
(21.5828 33.4369 0)
(-114.094 -38.8856 0)
(-16.2614 38.4472 0)
(-81.4613 -44.2933 0)
(-1.93776 13.4361 0)
(-106.23 -30.9603 0)
(197.864 30.4334 0)
(6.44392 -70.6248 0)
(-182.749 77.8826 0)
(68.0738 -8.18039 0)
(-83.1406 -33.4176 0)
(141.428 15.8102 0)
(-60.6461 -35.418 0)
(72.1447 57.7453 0)
(-131.941 -42.7517 0)
(-39.6788 45.2679 0)
(-170.319 -45.4721 0)
(43.7198 64.541 0)
(76.4212 -42.4971 0)
(-43.6442 68.4942 0)
(-172.646 -44.5252 0)
(-27.7947 36.9199 0)
(-145.728 -48.5602 0)
(-32.8923 30.8278 0)
(72.0818 -15.9137 0)
(43.8066 18.125 0)
(64.5589 0.479729 0)
(-223.526 114.341 0)
(215.186 -137.289 0)
(-104.459 -25.7555 0)
(46.2545 36.8219 0)
(-127.41 0.32431 0)
(67.1909 43.1023 0)
(-126.109 -36.1122 0)
(35.6847 48.5874 0)
(-133.9 -43.6856 0)
(4.74002 53.4064 0)
(-107.137 -80.7652 0)
(28.8735 60.9092 0)
(-127.167 -55.6381 0)
(21.8098 37.0175 0)
(-101.318 -41.2276 0)
(-8.21047 52.1002 0)
(-68.2277 -54.5074 0)
(-27.0574 16.7494 0)
(-111.126 -33.6275 0)
(159.221 26.7446 0)
(22.7213 -60.5748 0)
(-169.461 78.2703 0)
(92.4336 -22.6771 0)
(-105.912 -13.1064 0)
(155.967 -4.09201 0)
(-118.25 -29.158 0)
(1.01143 48.5829 0)
(-93.3569 -41.1463 0)
(10.5053 50.6137 0)
(-120.483 -44.5831 0)
(52.3016 63.4349 0)
(-47.4994 -55.1537 0)
(26.208 73.3246 0)
(-133.522 -36.9156 0)
(-37.9312 48.4303 0)
(-98.3143 -46.0399 0)
(-24.0398 27.3099 0)
(27.1691 -21.6799 0)
(54.1114 13.433 0)
(40.1373 6.23573 0)
(-197.266 107.859 0)
(201.509 -140.136 0)
(-103.765 -21.4763 0)
(71.6224 14.7514 0)
(-141.234 4.04426 0)
(39.4118 53.8158 0)
(-68.9615 -34.8696 0)
(100.676 49.6274 0)
(-117.027 -40.4992 0)
(53.0732 45.5631 0)
(-113.806 -87.3684 0)
(47.9563 65.1933 0)
(-104.88 -48.9113 0)
(-16.871 35.8881 0)
(-74.6879 -64.1664 0)
(-1.13182 46.5612 0)
(-68.3098 -59.7778 0)
(-11.5484 19.0294 0)
(-92.5831 -35.752 0)
(133.673 26.2184 0)
(39.9142 -43.2625 0)
(-162.193 74.5215 0)
(100.334 -27.5746 0)
(-80.4495 0.0857114 0)
(96.9229 13.7073 0)
(-136.956 -28.2102 0)
(74.7473 46.1428 0)
(-119.573 -36.4083 0)
(52.5601 50.1152 0)
(-105.504 -40.2247 0)
(63.2409 64.838 0)
(-71.5902 -56.9979 0)
(52.9976 72.0463 0)
(-73.9151 -39.7647 0)
(-28.0932 77.0977 0)
(-105.791 -37.4288 0)
(-4.70688 22.2373 0)
(-11.4872 -26.1169 0)
(55.9171 10.9483 0)
(17.3912 13.3974 0)
(-182.295 96.9753 0)
(184.99 -138.751 0)
(-92.6263 -24.9077 0)
(90.2161 14.3648 0)
(-131.754 -2.34699 0)
(43.8565 46.7923 0)
(-116.446 -38.7952 0)
(39.8872 49.4443 0)
(-94.4994 -37.4741 0)
(32.4775 43.5129 0)
(-123.967 -90.5214 0)
(65.8061 66.3421 0)
(-101.694 -41.0763 0)
(2.023 48.1913 0)
(-114.4 -89.6846 0)
(-14.3302 30.7633 0)
(-72.3958 -61.8127 0)
(-24.411 16.9699 0)
(-67.6917 -40.1363 0)
(115.132 23.4192 0)
(64.4394 -21.199 0)
(-163.268 67.3216 0)
(103.548 -29.1756 0)
(-71.0568 3.6937 0)
(99.382 22.1063 0)
(-131.508 -27.1753 0)
(46.9816 45.1903 0)
(-132.813 -33.6934 0)
(58.9348 44.9804 0)
(-118.096 -35.8586 0)
(76.6441 62.6845 0)
(-91.5733 -58.1081 0)
(55.8984 70.6495 0)
(-72.7021 -51.4604 0)
(62.5769 81.919 0)
(-72.9021 -14.7301 0)
(6.34178 17.4113 0)
(-11.501 -27.3559 0)
(51.7436 10.1341 0)
(-4.47731 20.478 0)
(-179.359 78.7055 0)
(165.048 -134.806 0)
(-81.3345 -31.4566 0)
(87.151 20.5023 0)
(-113.994 6.70019 0)
(49.6658 49.1265 0)
(-123.266 -33.7216 0)
(47.6353 41.0209 0)
(-98.6636 -32.2462 0)
(20.7013 43.6482 0)
(-126.843 -91.322 0)
(66.0531 62.4064 0)
(-95.6558 -37.9408 0)
(18.03 59.4886 0)
(-134.809 -81.6573 0)
(1.52335 19.2564 0)
(-55.6082 -62.2649 0)
(-41.7019 11.9013 0)
(-49.043 -44.7825 0)
(104.035 20.3549 0)
(100.688 5.91584 0)
(-169.768 58.7104 0)
(107.885 -29.9341 0)
(-68.0547 1.34224 0)
(106.359 25.4958 0)
(-122.047 -21.4169 0)
(41.6429 39.3523 0)
(-119.392 -28.6506 0)
(37.5665 39.1623 0)
(-112.41 -31.4205 0)
(77.9332 58.2604 0)
(-109.383 -56.343 0)
(39.6547 72.9215 0)
(-56.7731 -55.5263 0)
(52.2231 69.5358 0)
(-46.6244 -11.1566 0)
(9.85628 16.6045 0)
(18.0166 -26.3356 0)
(47.075 9.71799 0)
(-23.652 26.7451 0)
(-185.26 57.7556 0)
(148.275 -129.698 0)
(-74.6286 -39.147 0)
(82.6255 25.6088 0)
(-100.98 13.9197 0)
(52.1073 49.3337 0)
(-107.842 -26.1905 0)
(52.4088 33.2595 0)
(-88.9934 -25.5803 0)
(11.9396 40.4614 0)
(-121.295 -90.3652 0)
(60.8695 58.3285 0)
(-81.1334 -42.2186 0)
(27.7576 62.5343 0)
(-99.227 -66.09 0)
(6.80984 15.9283 0)
(-31.9714 -64.9992 0)
(-45.1347 6.91547 0)
(-39.8393 -47.5855 0)
(99.3533 17.8868 0)
(138.462 30.573 0)
(-171.471 50.7134 0)
(111.145 -30.2225 0)
(-75.6967 1.518 0)
(112.175 29.1741 0)
(-109.331 -13.6037 0)
(38.4315 32.6596 0)
(-108.066 -23.9809 0)
(21.9575 35.4579 0)
(-97.8082 -25.9401 0)
(76.2206 53.8308 0)
(-131.889 -52.0005 0)
(15.3804 77.8169 0)
(-42.0428 -55.5099 0)
(44.795 54.7229 0)
(-26.218 -9.99517 0)
(15.0119 18.4947 0)
(36.5139 -24.4419 0)
(48.8092 9.79188 0)
(-39.6489 31.0828 0)
(-177.702 42.9924 0)
(144.187 -123.535 0)
(-72.5446 -47.3982 0)
(87.786 23.9539 0)
(-98.737 18.3197 0)
(49.1277 49.0133 0)
(-89.0838 -19.4117 0)
(43.8119 30.3353 0)
(-74.3928 -19.6608 0)
(0.215417 36.6933 0)
(-109.315 -88.1686 0)
(53.3992 52.7858 0)
(-74.739 -49.015 0)
(30.3367 58.7085 0)
(-67.4757 -55.6338 0)
(10.7928 15.0473 0)
(-14.2404 -68.4547 0)
(-37.9217 2.34914 0)
(-39.4297 -48.906 0)
(97.2703 17.1339 0)
(146.743 41.4159 0)
(-162.081 43.7088 0)
(107.429 -28.1231 0)
(-92.3651 7.49132 0)
(116.517 34.0119 0)
(-93.8228 -6.47187 0)
(33.8459 28.8098 0)
(-95.8608 -23.9182 0)
(7.98143 32.1713 0)
(-78.5533 -23.7968 0)
(78.0845 51.0092 0)
(-158.849 -44.3325 0)
(0.0285741 79.0056 0)
(-20.5566 -51.9325 0)
(47.0624 43.2984 0)
(-17.6462 -8.54074 0)
(25.4965 19.8485 0)
(44.2106 -21.2829 0)
(54.2228 10.7205 0)
(-52.1265 32.7845 0)
(-129.944 40.5621 0)
(148.04 -114.58 0)
(-70.294 -55.439 0)
(95.3245 16.3288 0)
(-100.297 20.1176 0)
(42.1728 48.9774 0)
(-68.0852 -15.579 0)
(29.6359 31.5513 0)
(-49.3945 -15.5123 0)
(-3.28874 39.1205 0)
(-89.5103 -85.536 0)
(40.0941 46.8437 0)
(-60.606 -52.8537 0)
(32.7877 48.9775 0)
(8.16069 -37.2401 0)
(7.11857 12.3582 0)
(-1.09967 -70.4662 0)
(-30.6793 -2.26384 0)
(-45.4619 -49.3374 0)
(94.6143 18.5726 0)
(121.899 38.2291 0)
(-151.686 35.2896 0)
(100.284 -22.0657 0)
(-110.414 15.8428 0)
(115.244 39.2047 0)
(-74.8984 -1.50128 0)
(29.8772 29.5162 0)
(-74.4681 -25.1088 0)
(-1.25441 32.5368 0)
(-80.4511 -31.2254 0)
(84.9834 50.03 0)
(-162.638 -38.9451 0)
(3.04773 74.02 0)
(-25.0456 -50.7671 0)
(-24.1796 35.0596 0)
(-18.9546 -10.5909 0)
(38.7641 18.5327 0)
(43.6964 -16.432 0)
(59.4386 12.3838 0)
(-61.1578 31.6109 0)
(-78.9604 41.1247 0)
(146.089 -100.961 0)
(-57.7427 -63.2677 0)
(94.917 8.79841 0)
(-95.796 19.5359 0)
(34.1243 49.3013 0)
(-47.0676 -14.8571 0)
(5.27626 33.3216 0)
(-56.6077 -18.851 0)
(26.1441 48.8838 0)
(-69.4149 -81.5768 0)
(19.6738 44.8949 0)
(-32.6291 -51.9092 0)
(-0.540505 40.0761 0)
(19.4104 -32.3477 0)
(10.8472 13.9529 0)
(11.8168 -70.2549 0)
(-30.6449 -6.73786 0)
(-54.4641 -49.3835 0)
(89.7361 21.8254 0)
(150.456 39.9449 0)
(-160.143 19.3831 0)
(97.0514 -12.5112 0)
(-125.912 20.0094 0)
(103.043 43.9669 0)
(-55.5181 1.31801 0)
(24.9484 33.5277 0)
(-55.9791 -25.0211 0)
(27.842 37.9653 0)
(-69.6177 -39.9333 0)
(97.8354 49.7381 0)
(-139.606 -39.1035 0)
(12.1323 65.7655 0)
(-34.5672 -45.3869 0)
(-16.0831 30.8652 0)
(-20.7642 -14.8857 0)
(51.0091 15.4789 0)
(37.833 -9.96313 0)
(62.476 14.3427 0)
(-67.8103 28.1156 0)
(-116.727 23.7638 0)
(131.004 -74.3777 0)
(-37.0812 -71.0607 0)
(76.0376 9.58077 0)
(-80.8713 15.8415 0)
(28.4558 49.3718 0)
(-28.7335 -14.9796 0)
(26.4472 35.6434 0)
(-54.6594 -27.0932 0)
(28.6883 48.4811 0)
(-54.0693 -76.7022 0)
(7.24186 45.9784 0)
(-3.03979 -45.7162 0)
(-7.65203 32.8769 0)
(14.6192 -27.858 0)
(9.50787 16.8075 0)
(23.9957 -68.4409 0)
(-39.5796 -10.6883 0)
(-61.4573 -49.3282 0)
(82.5551 25.7835 0)
(247.94 52.6367 0)
(-154.935 -0.986714 0)
(84.8827 -7.47246 0)
(-120.915 12.672 0)
(79.9982 47.3537 0)
(-40.5373 2.78518 0)
(30.571 36.6904 0)
(-50.5912 -27.5882 0)
(36.9532 44.1799 0)
(-59.0824 -36.8247 0)
(108.864 48.5912 0)
(-98.1785 -41.1104 0)
(19.3953 54.6314 0)
(-25.2802 -35.163 0)
(-13.8433 21.6099 0)
(-24.916 -22.3464 0)
(58.3637 12.08 0)
(31.7917 -2.17156 0)
(64.0843 16.0001 0)
(-73.4575 23.3939 0)
(-38.4458 -0.793623 0)
(200.357 -32.7915 0)
(-23.113 -70.3497 0)
(30.8929 23.8395 0)
(-58.2497 9.48624 0)
(27.0784 47.7811 0)
(-20.3001 -16.0637 0)
(40.5211 38.6706 0)
(-44.3948 -30.4297 0)
(35.7432 41.2799 0)
(-45.2839 -71.741 0)
(3.04718 46.4287 0)
(18.4515 -34.7735 0)
(21.174 19.6 0)
(29.6161 -20.1109 0)
(19.9551 18.4168 0)
(30.6316 -66.0379 0)
(-54.8544 -14.4297 0)
(-61.691 -49.131 0)
(73.7742 29.3441 0)
(327.546 49.274 0)
(-166.218 -28.7674 0)
(71.0372 6.39587 0)
(-131.02 0.506229 0)
(56.665 48.6144 0)
(-30.6258 3.53636 0)
(38.9252 39.5803 0)
(-39.9427 -28.8696 0)
(44.5905 44.2971 0)
(-49.5947 -31.3521 0)
(116.667 46.3718 0)
(-54.7564 -43.1938 0)
(27.2125 40.559 0)
(-20.7583 -21.6151 0)
(-4.4544 18.1744 0)
(-9.31075 -28.3087 0)
(57.7866 10.3702 0)
(28.7209 6.74666 0)
(65.6669 16.9467 0)
(-79.085 18.5575 0)
(7.41189 -20.2495 0)
(232.361 27.5425 0)
(1.19483 -64.5147 0)
(-17.6437 41.6979 0)
(-22.2286 -2.21881 0)
(25.9872 45.0344 0)
(-15.1903 -17.3284 0)
(49.5625 39.3791 0)
(-33.0234 -29.1591 0)
(44.4353 36.1033 0)
(-38.7163 -67.1132 0)
(5.82581 45.7512 0)
(29.6353 -21.4398 0)
(51.4993 7.23692 0)
(55.6098 -19.676 0)
(48.9014 21.3152 0)
(26.9873 -62.6765 0)
(-73.6768 -19.1616 0)
(-53.9737 -48.763 0)
(64.2913 31.9218 0)
(-69.3654 -6.3812 0)
(-96.3875 -53.7022 0)
(1.36038 24.3409 0)
(-87.2446 -21.4696 0)
(24.8796 46.5165 0)
(-20.4505 4.65889 0)
(45.3022 41.3569 0)
(-28.6341 -28.8125 0)
(52.8781 42.2968 0)
(-41.0901 -28.7374 0)
(122.226 43.3157 0)
(-13.2073 -42.1716 0)
(34.1598 23.7706 0)
(7.88962 -10.65 0)
(-1.18914 18.137 0)
(4.52425 -33.417 0)
(47.0079 11.8751 0)
(25.734 16.6654 0)
(65.7311 17.1503 0)
(-85.3781 14.4305 0)
(-106.501 5.95496 0)
(100.073 35.78 0)
(-20.5884 -61.4619 0)
(-51.418 61.0329 0)
(0.594562 -10.7968 0)
(22.0951 40.862 0)
(-10.7277 -18.3005 0)
(57.2172 38.4474 0)
(-23.6984 -26.4391 0)
(49.6126 32.6219 0)
(-30.0368 -63.7524 0)
(19.6818 40.3918 0)
(34.2368 -7.68287 0)
(64.8459 -1.22113 0)
(51.7169 -16.7696 0)
(71.7162 23.3754 0)
(9.78357 -58.6323 0)
(-95.0329 -25.8129 0)
(-42.7428 -48.4324 0)
(55.3713 33.169 0)
(-21.7482 24.4393 0)
(-68.4985 -61.1261 0)
(-12.8187 32.9183 0)
(-47.8379 -38.6212 0)
(12.2349 39.4033 0)
(-8.91623 4.84587 0)
(48.1535 41.5954 0)
(-19.0979 -28.6336 0)
(61.5456 40.3651 0)
(-35.2411 -27.1257 0)
(123.805 38.1513 0)
(23.8287 -35.8207 0)
(39.8133 6.92187 0)
(25.0421 -4.34719 0)
(18.3326 14.4401 0)
(20.0299 -34.8075 0)
(26.5922 16.8042 0)
(16.3488 26.4157 0)
(57.1609 16.3631 0)
(-93.1754 11.5078 0)
(-62.3909 -31.688 0)
(87.8836 42.7041 0)
(-34.3682 -59.9492 0)
(-35.1368 58.484 0)
(-26.0033 -11.8689 0)
(20.8036 36.7529 0)
(-6.57044 -18.3285 0)
(64.989 36.6828 0)
(-15.9011 -23.0509 0)
(52.2499 28.7507 0)
(-18.544 -61.6982 0)
(31.1638 32.3777 0)
(31.3866 5.16779 0)
(58.9806 -5.08178 0)
(42.7388 -9.91252 0)
(80.9982 23.3386 0)
(-22.8712 -54.5306 0)
(-112.105 -32.721 0)
(-37.704 -48.1915 0)
(48.505 32.349 0)
(-10.2425 59.2769 0)
(-48.7178 -72.6932 0)
(-27.0978 56.1175 0)
(-119.436 -23.2 0)
(56.5951 28.2059 0)
(-1.75555 2.15301 0)
(48.7309 40.1608 0)
(-10.3162 -29.1373 0)
(69.559 39.3696 0)
(-16.9618 -24.7923 0)
(124.33 32.8606 0)
(45.4005 -26.9067 0)
(49.6514 -4.75109 0)
(32.6366 -1.27016 0)
(19.2018 7.32549 0)
(32.6823 -29.4815 0)
(4.10019 25.5686 0)
(7.7614 33.0542 0)
(30.1645 13.6968 0)
(-102.837 9.54408 0)
(-40.5105 -52.7608 0)
(90.3391 57.4956 0)
(102.972 -53.9301 0)
(6.87408 22.4803 0)
(19.9601 -18.0066 0)
(22.3427 34.8847 0)
(-2.73198 -17.648 0)
(72.1189 34.3151 0)
(-9.61064 -20.5785 0)
(75.909 26.3758 0)
(-4.32733 -58.9582 0)
(31.3371 23.4113 0)
(27.037 12.9348 0)
(48.6571 -5.62954 0)
(41.5578 -2.28099 0)
(62.253 16.1821 0)
(-63.6169 -52.5901 0)
(-110.122 -37.0168 0)
(-47.5275 -47.2679 0)
(44.0857 28.7014 0)
(-66.8387 65.9462 0)
(25.4951 -90.2482 0)
(-12.1489 49.807 0)
(-25.8749 -9.44335 0)
(51.2531 23.2932 0)
(-0.682136 3.69366 0)
(46.8319 37.0743 0)
(0.0060609 -30.7287 0)
(69.1259 37.4922 0)
(16.9157 -26.0661 0)
(122.944 29.4481 0)
(58.9768 -17.879 0)
(65.7541 -8.33573 0)
(42.8055 0.353776 0)
(14.8561 1.77219 0)
(40.2617 -11.5662 0)
(1.08544 37.2421 0)
(39.3131 39.0808 0)
(-11.732 9.93157 0)
(-113.243 6.98975 0)
(-20.4789 -52.3108 0)
(4.26174 56.1284 0)
(37.7765 -47.2565 0)
(-0.351901 34.8931 0)
(5.10117 -18.7162 0)
(29.9003 34.9891 0)
(2.14504 -16.3311 0)
(82.5967 32.6942 0)
(-12.1524 -20.8367 0)
(96.8322 21.098 0)
(8.53748 -54.9928 0)
(30.0383 17.3309 0)
(15.2051 11.4167 0)
(22.6672 -7.2419 0)
(46.2701 3.83167 0)
(-0.664042 -2.98043 0)
(-92.9212 -52.9713 0)
(-75.7684 -44.4035 0)
(-60.5437 -43.6557 0)
(43.9362 23.0427 0)
(-33.6488 51.7252 0)
(7.63599 -91.1712 0)
(-25.3494 59.9201 0)
(-49.3851 -24.5916 0)
(50.7139 19.6901 0)
(-14.4797 4.47063 0)
(41.2138 31.384 0)
(20.434 -30.6258 0)
(58.0525 35.1659 0)
(37.3801 -29.5591 0)
(110.808 28.816 0)
(47.2251 -13.8601 0)
(59.885 -1.31481 0)
(63.6377 5.67179 0)
(1.79298 0.989743 0)
(48.9964 7.66786 0)
(0.94708 38.5043 0)
(102.09 54.6814 0)
(-34.4806 9.82633 0)
(-125.719 1.76447 0)
(-41.1078 -37.6692 0)
(-60.0092 57.6663 0)
(-30.2995 -40.3468 0)
(38.9512 25.2815 0)
(19.98 -25.7019 0)
(36.003 32.7394 0)
(5.55946 -16.0738 0)
(82.6473 30.0198 0)
(-20.1033 -22.7233 0)
(102.868 16.5529 0)
(3.25993 -50.7802 0)
(26.5889 18.9413 0)
(15.2665 -1.66236 0)
(-1.6353 -9.97387 0)
(57.9914 6.16748 0)
(7.62846 -8.91089 0)
(-84.9551 -47.5795 0)
(-27.3708 -61.717 0)
(-52.7091 -37.9492 0)
(54.5948 18.4187 0)
(0.557433 49.9024 0)
(4.16327 -87.7204 0)
(7.51917 55.833 0)
(4.61277 -35.7538 0)
(-22.2477 35.6866 0)
(-25.5529 3.46282 0)
(36.4917 22.4307 0)
(31.829 -26.9017 0)
(40.2919 33.6154 0)
(39.1711 -35.1969 0)
(69.581 32.771 0)
(28.3212 -15.8216 0)
(26.3027 14.162 0)
(39.5405 9.00397 0)
(-32.3016 2.66349 0)
(49.9878 11.7173 0)
(-5.31305 28.397 0)
(137.385 79.7452 0)
(-21.3303 16.7146 0)
(-139.537 -7.65823 0)
(56.306 -28.1469 0)
(-63.5761 55.5205 0)
(-37.5025 -65.3267 0)
(-27.948 61.8085 0)
(-29.4528 -42.3416 0)
(48.2981 30.9894 0)
(21.4678 -12.5124 0)
(79.314 26.9707 0)
(-57.3363 -24.9889 0)
(84.55 9.51435 0)
(-43.0961 -45.8517 0)
(-38.6742 18.3729 0)
(-7.13326 -9.88075 0)
(22.997 -8.67692 0)
(74.299 4.35186 0)
(31.3604 -7.23923 0)
(-49.3275 -33.1711 0)
(-91.8714 -87.2647 0)
(-40.0185 -32.6724 0)
(58.9346 16.5393 0)
(-8.09962 43.5006 0)
(0.0954903 -61.7554 0)
(-19.7979 56.8913 0)
(-21.611 -36.1878 0)
(6.39475 27.4106 0)
(-22.7511 -5.08419 0)
(24.0724 10.8029 0)
(58.029 -16.0594 0)
(59.1583 29.4774 0)
(14.7187 -34.9047 0)
(8.05634 32.3938 0)
(57.1531 -8.22687 0)
(-1.33296 7.88151 0)
(92.8858 9.19054 0)
(-64.08 4.33644 0)
(91.2067 17.2587 0)
(2.00765 5.55588 0)
(135.741 86.5152 0)
(-12.8093 22.2005 0)
(-122.422 -18.9742 0)
(24.391 -38.0887 0)
(24.8172 40.8875 0)
(41.353 -53.4798 0)
(12.566 19.2723 0)
(-30.3197 -30.7129 0)
(51.0158 25.497 0)
(58.8425 -14.5364 0)
(68.483 21.1932 0)
(73.3418 -14.5375 0)
(57.0403 10.1994 0)
(75.554 -34.7245 0)
(32.7727 15.234 0)
(59.0805 -16.7165 0)
(6.15183 -4.23541 0)
(82.2679 4.01757 0)
(23.1241 -13.8756 0)
(-83.2399 -4.59829 0)
(-87.4688 -55.352 0)
(6.32688 -33.2394 0)
(174.221 18.1102 0)
(-31.2063 50.3236 0)
(52.5109 -45.6549 0)
(-68.0848 71.5156 0)
(17.6525 -13.3293 0)
(59.1578 19.2729 0)
(-89.4859 -10.1348 0)
(110.083 17.4881 0)
(-93.7642 -17.2962 0)
(148.193 23.5508 0)
(-2.07506 -21.2312 0)
(-87.6724 37.1091 0)
(16.646 -29.8488 0)
(-101.91 33.6764 0)
(10.0298 -12.3478 0)
(-105.912 9.20025 0)
(172.993 21.6138 0)
(24.2583 -8.34312 0)
(171.907 24.5905 0)
(44.735 40.6971 0)
(-72.0399 -27.189 0)
)
;

boundaryField
{
    piston
    {
        type            movingWallVelocity;
        value           nonuniform List<vector> 
40
(
(1.54999 -8.67362e-17 0)
(1.54999 0 0)
(1.54999 -6.93889e-16 -1.38778e-15)
(1.54999 0 0)
(1.54999 -6.93889e-16 -1.38778e-15)
(1.54999 -1.38778e-15 -1.38778e-15)
(1.54999 -1.38778e-15 -1.38778e-15)
(1.54999 0 0)
(1.54999 -1.38778e-15 -1.38778e-15)
(1.54999 -1.38778e-15 -1.38778e-15)
(1.54999 0 0)
(1.54999 -2.77556e-15 -1.38778e-15)
(1.54999 0 0)
(1.54999 0 -1.38778e-15)
(1.54999 0 0)
(1.54999 0 -1.38778e-15)
(1.54999 0 -1.38778e-15)
(1.54999 0 0)
(1.54999 -2.77556e-15 -1.38778e-15)
(1.54999 0 0)
(1.54999 0 -1.38778e-15)
(1.54999 0 -1.38778e-15)
(1.54999 0 0)
(1.54999 -5.55112e-15 -1.38778e-15)
(1.54999 0 -1.38778e-15)
(1.54999 0 -1.38778e-15)
(1.54999 0 -1.38778e-15)
(1.54999 0 0)
(1.54999 0 -1.38778e-15)
(1.54999 0 -1.38778e-15)
(1.54999 0 -1.38778e-15)
(1.54999 -5.55112e-15 -1.38778e-15)
(1.54999 -5.55112e-15 0)
(1.54999 0 -1.38778e-15)
(1.54999 0 -1.38778e-15)
(1.54999 -5.55112e-15 -1.38778e-15)
(1.54999 -5.55112e-15 -1.38778e-15)
(1.54999 -5.55112e-15 0)
(1.54999 0 -1.38778e-15)
(1.54999 -5.55112e-15 -1.38778e-15)
)
;
    }
    outlet
    {
        type            noSlip;
    }
    walls
    {
        type            movingWallVelocity;
        value           nonuniform List<vector> 
40
(
(1.47249 0 -1.38778e-15)
(1.31749 0 -1.38778e-15)
(1.16249 0 -2.77556e-15)
(1.00749 0 -1.38778e-15)
(0.852495 0 -1.38778e-15)
(0.697496 0 -1.38778e-15)
(0.542497 0 0)
(0.387498 0 -1.38778e-15)
(0.232499 0 -2.77556e-15)
(0.0774996 0 -2.77556e-15)
(0 0 -1.38778e-15)
(0 0 0)
(0 0 0)
(1.11022e-14 0 0)
(-1.11022e-14 0 -1.38778e-15)
(-2.22045e-14 0 -1.38778e-15)
(-2.22045e-14 0 -1.38778e-15)
(0 0 0)
(-2.22045e-14 0 -1.38778e-15)
(-2.22045e-14 0 -1.38778e-15)
(1.47249 0 -1.38778e-15)
(1.31749 0 -1.38778e-15)
(1.16249 3.70074e-15 0)
(1.00749 0 -1.38778e-15)
(0.852495 0 -1.38778e-15)
(0.697496 0 -1.38778e-15)
(0.542497 0 0)
(0.387498 0 -1.38778e-15)
(0.232499 0 -2.77556e-15)
(0.0774996 0 -2.77556e-15)
(-1.38778e-15 0 0)
(0 0 0)
(-1.11022e-14 0 -1.38778e-15)
(0 0 0)
(-1.11022e-14 0 -1.38778e-15)
(-2.22045e-14 0 -1.38778e-15)
(-2.22045e-14 0 -1.38778e-15)
(0 0 0)
(-2.22045e-14 0 -1.38778e-15)
(-2.22045e-14 0 -1.38778e-15)
)
;
    }
    front
    {
        type            empty;
    }
    back
    {
        type            empty;
    }
}


// ************************************************************************* //
