/*--------------------------------*- C++ -*----------------------------------*\
  =========                 |
  \\      /  F ield         | OpenFOAM: The Open Source CFD Toolbox
   \\    /   O peration     | Website:  https://openfoam.org
    \\  /    A nd           | Version:  6
     \\/     M anipulation  |
\*---------------------------------------------------------------------------*/
FoamFile
{
    version     2.0;
    format      ascii;
    class       volScalarField;
    location    "2.49";
    object      rho;
}
// * * * * * * * * * * * * * * * * * * * * * * * * * * * * * * * * * * * * * //

dimensions      [1 -3 0 0 0 0 0];

internalField   nonuniform List<scalar> 
10000
(
1.40001
1.40001
1.40001
1.40001
1.40001
1.40001
1.40001
1.40001
1.40001
1.40001
1.40001
1.40001
1.40001
1.40001
1.40001
1.40001
1.40001
1.40001
1.40001
1.40001
1.40001
1.40001
1.40001
1.40001
1.40001
1.40001
1.40001
1.4
1.40001
1.4
1.40001
1.4
1.40001
1.4
1.40001
1.4
1.40001
1.4
1.40001
1.4
1.40001
1.4
1.40001
1.4
1.4
1.4
1.4
1.4
1.4
1.4
1.4
1.4
1.4
1.4
1.4
1.4
1.4
1.4
1.4
1.4
1.4
1.40001
1.40001
1.40001
1.40001
1.40001
1.40001
1.40001
1.40001
1.40001
1.40001
1.40001
1.40001
1.40001
1.40001
1.40001
1.40001
1.40001
1.40001
1.40001
1.40001
1.40001
1.40001
1.40001
1.40001
1.40001
1.40001
1.40001
1.40001
1.40001
1.40001
1.40001
1.40001
1.40001
1.40001
1.40001
1.40001
1.40001
1.40001
1.40001
1.40001
1.40001
1.40001
1.40001
1.40001
1.40001
1.40001
1.40001
1.40001
1.40001
1.40001
1.40001
1.40001
1.40001
1.40001
1.40001
1.40001
1.40001
1.40001
1.40001
1.40001
1.40001
1.4
1.40001
1.4
1.40001
1.4
1.40001
1.4
1.40001
1.4
1.40001
1.40001
1.40001
1.40001
1.40001
1.40001
1.4
1.40001
1.40001
1.40001
1.40001
1.4
1.4
1.4
1.4
1.4
1.4
1.4
1.4
1.4
1.4
1.4
1.4
1.39999
1.39999
1.4
1.4
1.4
1.4
1.4
1.40001
1.40001
1.40001
1.40001
1.40002
1.40002
1.40002
1.40001
1.40001
1.40001
1.40001
1.40001
1.40001
1.40001
1.40001
1.40001
1.40001
1.40001
1.40001
1.40001
1.40001
1.40001
1.40001
1.40001
1.40001
1.40001
1.40001
1.40001
1.40001
1.40001
1.40001
1.40001
1.40001
1.40001
1.40001
1.40001
1.40001
1.40001
1.40001
1.40001
1.40001
1.40001
1.40001
1.40001
1.40001
1.40001
1.40001
1.40001
1.40001
1.40001
1.40001
1.40001
1.40001
1.40001
1.40001
1.40001
1.40001
1.4
1.40001
1.4
1.40001
1.4
1.40001
1.4
1.40001
1.40001
1.40001
1.40001
1.4
1.40001
1.4
1.40001
1.4
1.40001
1.4
1.40001
1.4
1.40001
1.40001
1.40001
1.40001
1.4
1.4
1.4
1.4
1.4
1.4
1.4
1.4
1.4
1.39999
1.39999
1.39999
1.39999
1.39999
1.39999
1.39999
1.39999
1.4
1.4
1.40001
1.40001
1.40002
1.40002
1.40002
1.40002
1.40002
1.40002
1.40002
1.40002
1.40001
1.40001
1.40001
1.40001
1.40001
1.40001
1.40001
1.40001
1.40001
1.40001
1.40001
1.40001
1.40001
1.40001
1.40001
1.40001
1.40001
1.40001
1.40001
1.40001
1.40001
1.40001
1.40001
1.40001
1.40001
1.40001
1.40001
1.40001
1.40001
1.40001
1.40001
1.40001
1.40001
1.40001
1.40001
1.40001
1.40001
1.40001
1.40001
1.40001
1.40001
1.40001
1.40001
1.40001
1.40001
1.40001
1.40001
1.4
1.40001
1.4
1.40001
1.4
1.40001
1.4
1.40001
1.4
1.40001
1.40001
1.4
1.40001
1.4
1.40001
1.4
1.40001
1.4
1.40001
1.4
1.40001
1.40001
1.40001
1.4
1.4
1.4
1.4
1.4
1.4
1.4
1.4
1.39999
1.39999
1.39999
1.39998
1.39998
1.39998
1.39998
1.39998
1.39998
1.39999
1.4
1.4
1.40001
1.40002
1.40002
1.40003
1.40003
1.40003
1.40003
1.40003
1.40003
1.40002
1.40002
1.40002
1.40001
1.40001
1.40001
1.40001
1.40001
1.40001
1.40001
1.40001
1.40001
1.40001
1.40001
1.40001
1.40001
1.40001
1.40001
1.40001
1.40001
1.40001
1.40001
1.40001
1.40001
1.40001
1.40001
1.40001
1.40001
1.40001
1.40001
1.40001
1.40001
1.40001
1.40001
1.40001
1.40001
1.40001
1.40001
1.40001
1.40001
1.40001
1.40001
1.40001
1.40001
1.40001
1.40001
1.4
1.40001
1.4
1.40001
1.4
1.40001
1.4
1.40001
1.4
1.40001
1.4
1.40001
1.40001
1.4
1.40001
1.4
1.40001
1.4
1.40001
1.4
1.40001
1.4
1.40001
1.40001
1.40001
1.4
1.4
1.4
1.4
1.4
1.4
1.4
1.39999
1.39999
1.39998
1.39998
1.39997
1.39997
1.39997
1.39997
1.39997
1.39997
1.39998
1.39999
1.4
1.40001
1.40003
1.40003
1.40004
1.40004
1.40005
1.40004
1.40004
1.40004
1.40003
1.40003
1.40002
1.40002
1.40001
1.40001
1.40001
1.40001
1.40001
1.40001
1.40001
1.40001
1.40001
1.40001
1.40001
1.40001
1.40001
1.40001
1.40001
1.40001
1.40001
1.40001
1.40001
1.40001
1.40001
1.40001
1.40001
1.40001
1.40001
1.40001
1.40001
1.40001
1.40001
1.40001
1.40001
1.40001
1.40001
1.40001
1.40001
1.40001
1.40001
1.40001
1.40001
1.40001
1.4
1.40001
1.4
1.40001
1.4
1.40001
1.4
1.40001
1.4
1.40001
1.4
1.40001
1.40001
1.4
1.40001
1.4
1.40001
1.4
1.40001
1.4
1.40001
1.4
1.40001
1.40001
1.40001
1.40001
1.40001
1.4
1.4
1.4
1.4
1.4
1.4
1.39999
1.39999
1.39998
1.39997
1.39996
1.39996
1.39995
1.39995
1.39995
1.39995
1.39996
1.39997
1.39999
1.40001
1.40002
1.40004
1.40005
1.40006
1.40006
1.40007
1.40006
1.40006
1.40005
1.40005
1.40004
1.40003
1.40002
1.40002
1.40001
1.40001
1.40001
1.40001
1.40001
1.40001
1.40001
1.40001
1.40001
1.40001
1.40001
1.40001
1.40001
1.40001
1.40001
1.40001
1.40001
1.40001
1.40001
1.40001
1.40001
1.40001
1.40001
1.40001
1.40001
1.40001
1.40001
1.40001
1.40001
1.40001
1.40001
1.40001
1.40001
1.40001
1.40001
1.40001
1.40001
1.4
1.40001
1.4
1.40001
1.4
1.40001
1.4
1.40001
1.4
1.40001
1.4
1.40001
1.40001
1.40001
1.40001
1.4
1.40001
1.4
1.40001
1.40001
1.40001
1.4
1.40001
1.4
1.40001
1.40001
1.40001
1.40001
1.40001
1.4
1.4
1.4
1.4
1.4
1.39999
1.39999
1.39998
1.39997
1.39996
1.39995
1.39994
1.39993
1.39993
1.39993
1.39993
1.39995
1.39997
1.39999
1.40001
1.40003
1.40006
1.40007
1.40009
1.40009
1.4001
1.40009
1.40009
1.40008
1.40007
1.40005
1.40004
1.40003
1.40003
1.40002
1.40001
1.40001
1.40001
1.40001
1.40001
1.40001
1.40001
1.40001
1.4
1.4
1.4
1.40001
1.40001
1.40001
1.40001
1.40001
1.40001
1.40001
1.40001
1.40001
1.40001
1.40001
1.40001
1.40001
1.40001
1.40001
1.40001
1.40001
1.40001
1.40001
1.40001
1.40001
1.40001
1.40001
1.40001
1.40001
1.4
1.40001
1.4
1.40001
1.40001
1.40001
1.40001
1.40001
1.4
1.40001
1.40001
1.4
1.40001
1.4
1.40001
1.4
1.40001
1.4
1.40001
1.40001
1.40001
1.4
1.40001
1.4
1.40001
1.40001
1.40001
1.40001
1.40001
1.4
1.4
1.4
1.4
1.39999
1.39999
1.39998
1.39997
1.39995
1.39994
1.39992
1.39991
1.3999
1.3999
1.3999
1.39991
1.39993
1.39996
1.39999
1.40002
1.40006
1.40009
1.40011
1.40013
1.40014
1.40014
1.40014
1.40013
1.40011
1.40009
1.40008
1.40006
1.40005
1.40003
1.40003
1.40002
1.40001
1.40001
1.40001
1.40001
1.40001
1.40001
1.4
1.4
1.4
1.4
1.4
1.4
1.40001
1.40001
1.40001
1.40001
1.40001
1.40001
1.40001
1.40001
1.40001
1.40001
1.40001
1.40001
1.40001
1.40001
1.40001
1.40001
1.40001
1.40001
1.40001
1.40001
1.40001
1.40001
1.40001
1.4
1.40001
1.40001
1.40001
1.40001
1.40001
1.40001
1.40001
1.40001
1.4
1.40001
1.4
1.40001
1.40001
1.40001
1.4
1.40001
1.40001
1.40001
1.40001
1.40001
1.40001
1.40001
1.40001
1.40001
1.40001
1.40001
1.40001
1.40001
1.40001
1.4
1.4
1.4
1.39999
1.39998
1.39997
1.39995
1.39993
1.39991
1.39989
1.39987
1.39986
1.39986
1.39987
1.39989
1.39992
1.39996
1.4
1.40005
1.4001
1.40014
1.40017
1.40019
1.4002
1.4002
1.4002
1.40018
1.40016
1.40013
1.40011
1.40008
1.40006
1.40005
1.40003
1.40002
1.40002
1.40001
1.40001
1.40001
1.40001
1.4
1.4
1.4
1.4
1.4
1.4
1.4
1.4
1.40001
1.40001
1.40001
1.40001
1.40001
1.40001
1.40001
1.40001
1.40001
1.40001
1.40001
1.40001
1.40001
1.40001
1.40001
1.40001
1.40001
1.40001
1.40001
1.40001
1.40001
1.40001
1.40001
1.40001
1.40001
1.4
1.40001
1.4
1.40001
1.40001
1.40001
1.4
1.40001
1.4
1.40001
1.40001
1.40001
1.4
1.40001
1.4
1.40001
1.4
1.40001
1.40001
1.40001
1.40001
1.40001
1.40001
1.40001
1.40001
1.40001
1.40001
1.4
1.4
1.4
1.39999
1.39997
1.39995
1.39993
1.3999
1.39988
1.39985
1.39983
1.39983
1.39983
1.39985
1.39988
1.39992
1.39998
1.40004
1.40011
1.40017
1.40022
1.40026
1.40029
1.4003
1.4003
1.40028
1.40025
1.40022
1.40019
1.40015
1.40012
1.40009
1.40006
1.40004
1.40003
1.40002
1.40001
1.40001
1.40001
1.40001
1.4
1.4
1.4
1.4
1.4
1.4
1.4
1.4
1.4
1.40001
1.40001
1.40001
1.40001
1.40001
1.40001
1.40001
1.40001
1.40001
1.40001
1.40001
1.40001
1.40001
1.40001
1.40001
1.40001
1.40001
1.40001
1.40001
1.40001
1.40001
1.40001
1.40001
1.40001
1.4
1.40001
1.4
1.40001
1.40001
1.40001
1.4
1.40001
1.40001
1.4
1.40001
1.4
1.40001
1.40001
1.4
1.40001
1.4
1.40001
1.40001
1.40001
1.40001
1.40001
1.40001
1.40001
1.40001
1.40001
1.40001
1.40001
1.4
1.39999
1.39998
1.39996
1.39994
1.39991
1.39988
1.39984
1.39982
1.3998
1.39979
1.39981
1.39984
1.39989
1.39996
1.40005
1.40013
1.40022
1.4003
1.40037
1.40041
1.40044
1.40045
1.40043
1.4004
1.40036
1.40031
1.40026
1.40021
1.40016
1.40012
1.40008
1.40006
1.40004
1.40002
1.40001
1.40001
1.40001
1.4
1.4
1.4
1.4
1.4
1.4
1.4
1.4
1.4
1.4
1.40001
1.40001
1.40001
1.40001
1.40001
1.40001
1.40001
1.40001
1.40001
1.40001
1.40001
1.40001
1.40001
1.40001
1.40001
1.40001
1.40001
1.40001
1.40001
1.40001
1.40001
1.40001
1.4
1.40001
1.4
1.40001
1.4
1.40001
1.40001
1.40001
1.4
1.40001
1.40001
1.4
1.40001
1.40001
1.4
1.40001
1.40001
1.40001
1.40001
1.40001
1.40001
1.40001
1.40001
1.40001
1.40001
1.40001
1.40001
1.40001
1.40001
1.40001
1.4
1.39999
1.39998
1.39995
1.39992
1.39988
1.39984
1.39981
1.39978
1.39977
1.39978
1.39982
1.39988
1.39997
1.40007
1.40019
1.40032
1.40043
1.40053
1.40061
1.40066
1.40068
1.40067
1.40064
1.40058
1.40051
1.40044
1.40036
1.40029
1.40022
1.40016
1.40011
1.40007
1.40005
1.40003
1.40002
1.40001
1.4
1.4
1.4
1.4
1.4
1.4
1.4
1.4
1.4
1.4
1.4
1.4
1.40001
1.40001
1.40001
1.40001
1.40001
1.40001
1.40001
1.40001
1.40001
1.40001
1.40001
1.40001
1.40001
1.40001
1.40001
1.40001
1.40001
1.40001
1.40001
1.40001
1.40001
1.4
1.40001
1.4
1.40001
1.40001
1.40001
1.40001
1.40001
1.40001
1.40001
1.40001
1.40001
1.4
1.40001
1.4
1.40001
1.4
1.40001
1.40001
1.40001
1.40001
1.40001
1.40001
1.40001
1.40001
1.40001
1.40001
1.40001
1.40001
1.40001
1.4
1.39999
1.39997
1.39994
1.3999
1.39986
1.39982
1.39978
1.39977
1.39977
1.39982
1.39989
1.40001
1.40015
1.40031
1.40049
1.40066
1.40081
1.40093
1.40101
1.40106
1.40105
1.40101
1.40094
1.40085
1.40073
1.40062
1.4005
1.40039
1.40029
1.40021
1.40015
1.4001
1.40006
1.40003
1.40002
1.40001
1.4
1.4
1.4
1.4
1.4
1.4
1.4
1.4
1.4
1.4
1.4
1.4
1.4
1.40001
1.40001
1.40001
1.40001
1.40001
1.40001
1.40001
1.40001
1.40001
1.40001
1.40001
1.40001
1.40001
1.40001
1.40001
1.40001
1.40001
1.40001
1.40001
1.40001
1.4
1.40001
1.4
1.40001
1.40001
1.4
1.40001
1.40001
1.4
1.40001
1.4
1.40001
1.4
1.40001
1.40001
1.40001
1.4
1.40001
1.40001
1.40001
1.40001
1.40001
1.40001
1.40001
1.40001
1.40001
1.40002
1.40002
1.40002
1.40002
1.40001
1.4
1.39997
1.39994
1.39989
1.39985
1.39981
1.39979
1.3998
1.39984
1.39994
1.40009
1.40029
1.40052
1.40077
1.40103
1.40126
1.40146
1.4016
1.40168
1.4017
1.40165
1.40155
1.40141
1.40124
1.40106
1.40087
1.4007
1.40054
1.4004
1.40028
1.40019
1.40012
1.40007
1.40004
1.40002
1.4
1.4
1.4
1.4
1.4
1.4
1.4
1.4
1.4
1.4
1.4
1.4
1.4
1.4
1.40001
1.40001
1.40001
1.40001
1.40001
1.40001
1.40001
1.40001
1.40001
1.40001
1.40001
1.40001
1.40001
1.40001
1.40001
1.40001
1.40001
1.40001
1.4
1.40001
1.4
1.40001
1.40001
1.4
1.40001
1.4
1.40001
1.40001
1.4
1.40001
1.4
1.40001
1.4
1.40001
1.4
1.40001
1.4
1.40001
1.40001
1.40001
1.40001
1.40001
1.40001
1.40001
1.40001
1.40002
1.40002
1.40003
1.40003
1.40003
1.40002
1.4
1.39997
1.39994
1.39989
1.39985
1.39983
1.39984
1.3999
1.40003
1.40023
1.4005
1.40083
1.4012
1.40158
1.40195
1.40227
1.40253
1.40269
1.40276
1.40272
1.40259
1.40239
1.40213
1.40184
1.40155
1.40125
1.40098
1.40075
1.40054
1.40038
1.40025
1.40015
1.40009
1.40004
1.40001
1.4
1.39999
1.39999
1.39999
1.39999
1.4
1.4
1.4
1.4
1.4
1.4
1.4
1.4
1.4
1.4
1.40001
1.40001
1.40001
1.40001
1.40001
1.40001
1.40001
1.40001
1.40001
1.40001
1.40001
1.40001
1.40001
1.40001
1.40001
1.40001
1.40001
1.40001
1.40001
1.4
1.40001
1.40001
1.4
1.40001
1.4
1.40001
1.40001
1.40001
1.4
1.40001
1.4
1.40001
1.4
1.40001
1.40001
1.4
1.40001
1.40001
1.40001
1.40001
1.40001
1.40001
1.40001
1.40002
1.40002
1.40003
1.40004
1.40004
1.40004
1.40004
1.40002
1.39999
1.39995
1.39992
1.3999
1.39992
1.39999
1.40016
1.40042
1.40078
1.40124
1.40178
1.40236
1.40293
1.40346
1.40391
1.40423
1.40442
1.40444
1.40431
1.40405
1.40368
1.40324
1.40276
1.40228
1.40182
1.40141
1.40105
1.40075
1.40052
1.40033
1.4002
1.40011
1.40005
1.40001
1.39999
1.39998
1.39998
1.39998
1.39999
1.39999
1.4
1.4
1.4
1.4
1.4
1.4
1.4
1.4
1.4
1.4
1.40001
1.40001
1.40001
1.40001
1.40001
1.40001
1.40001
1.40001
1.40001
1.40001
1.40001
1.40001
1.40001
1.40001
1.40001
1.40001
1.40001
1.40001
1.40001
1.40001
1.40001
1.4
1.40001
1.4
1.40001
1.40001
1.4
1.40001
1.4
1.40001
1.4
1.40001
1.4
1.40001
1.4
1.40001
1.40001
1.40001
1.40001
1.40001
1.40001
1.40002
1.40002
1.40003
1.40004
1.40005
1.40006
1.40007
1.40006
1.40005
1.40002
1.4
1.39998
1.40001
1.4001
1.4003
1.40064
1.40112
1.40174
1.4025
1.40334
1.40421
1.40506
1.40582
1.40643
1.40685
1.40704
1.407
1.40673
1.40626
1.40564
1.40491
1.40414
1.40338
1.40267
1.40204
1.4015
1.40106
1.40071
1.40045
1.40026
1.40013
1.40005
1.4
1.39998
1.39997
1.39997
1.39997
1.39998
1.39999
1.39999
1.4
1.4
1.4
1.4
1.4
1.4
1.4
1.4
1.4
1.40001
1.40001
1.40001
1.40001
1.40001
1.40001
1.40001
1.40001
1.40001
1.40001
1.40001
1.40001
1.40001
1.40001
1.40001
1.40001
1.40001
1.40001
1.40001
1.40001
1.40001
1.40001
1.40001
1.40001
1.40001
1.4
1.40001
1.4
1.40001
1.40001
1.4
1.40001
1.40001
1.4
1.40001
1.40001
1.40001
1.40001
1.40001
1.40001
1.40002
1.40002
1.40003
1.40005
1.40006
1.40008
1.40009
1.4001
1.4001
1.40009
1.40008
1.40008
1.40011
1.40023
1.40046
1.40086
1.40147
1.40228
1.4033
1.40448
1.40576
1.40705
1.40826
1.40932
1.41014
1.41067
1.41087
1.41073
1.41026
1.4095
1.40852
1.40738
1.40619
1.40502
1.40393
1.40297
1.40216
1.40151
1.401
1.40063
1.40036
1.40018
1.40006
1.39999
1.39996
1.39995
1.39995
1.39996
1.39997
1.39998
1.39999
1.39999
1.4
1.4
1.4
1.4
1.4
1.4
1.4
1.4
1.4
1.40001
1.40001
1.40001
1.40001
1.40001
1.40001
1.40001
1.40001
1.40001
1.40001
1.40001
1.40001
1.40001
1.40001
1.40001
1.40001
1.40001
1.40001
1.40001
1.40001
1.40001
1.40001
1.40001
1.40001
1.40001
1.40001
1.4
1.40001
1.4
1.40001
1.4
1.40001
1.4
1.40001
1.40001
1.40001
1.40001
1.40001
1.40001
1.40002
1.40003
1.40004
1.40006
1.40008
1.40011
1.40013
1.40014
1.40015
1.40016
1.40017
1.40022
1.40035
1.40061
1.40107
1.40179
1.4028
1.40412
1.4057
1.40747
1.40932
1.41115
1.41283
1.41426
1.41534
1.416
1.41621
1.41595
1.41523
1.41409
1.41263
1.41094
1.40916
1.40741
1.40578
1.40435
1.40315
1.40218
1.40144
1.40089
1.4005
1.40024
1.40008
1.39999
1.39994
1.39993
1.39993
1.39994
1.39995
1.39997
1.39998
1.39999
1.39999
1.4
1.4
1.4
1.4
1.4
1.4
1.4
1.4
1.40001
1.40001
1.40001
1.40001
1.40001
1.40001
1.40001
1.40001
1.40001
1.40001
1.40001
1.40001
1.40001
1.40001
1.40001
1.40001
1.40001
1.4
1.40001
1.4
1.40001
1.40001
1.40001
1.40001
1.40001
1.40001
1.4
1.40001
1.4
1.40001
1.4
1.40001
1.4
1.40001
1.40001
1.40001
1.40001
1.40001
1.40002
1.40003
1.40004
1.40006
1.40008
1.40011
1.40014
1.40018
1.40021
1.40023
1.40027
1.40033
1.40046
1.40074
1.40124
1.40205
1.40324
1.40485
1.40686
1.40919
1.41173
1.41431
1.41679
1.41902
1.42086
1.42222
1.42303
1.42325
1.42285
1.42185
1.42028
1.41825
1.41587
1.41334
1.41081
1.40844
1.40635
1.40458
1.40317
1.40208
1.40128
1.40072
1.40035
1.40012
1.39999
1.39992
1.3999
1.3999
1.39992
1.39993
1.39995
1.39997
1.39998
1.39999
1.39999
1.4
1.4
1.4
1.4
1.4
1.4
1.4
1.4
1.40001
1.40001
1.40001
1.40001
1.40001
1.40001
1.40001
1.40001
1.40001
1.40001
1.40001
1.40001
1.40001
1.4
1.40001
1.4
1.40001
1.4
1.40001
1.4
1.40001
1.40001
1.4
1.40001
1.4
1.4
1.40001
1.4
1.40001
1.40001
1.4
1.40001
1.40001
1.40001
1.40001
1.40001
1.40001
1.40002
1.40003
1.40005
1.40008
1.40011
1.40015
1.40019
1.40024
1.40029
1.40034
1.40042
1.40056
1.40084
1.40135
1.40221
1.40354
1.40541
1.40784
1.41076
1.41405
1.4175
1.42092
1.42411
1.42689
1.42914
1.43076
1.43169
1.43191
1.4314
1.43014
1.42817
1.42554
1.4224
1.41896
1.41547
1.41214
1.40917
1.40664
1.4046
1.40303
1.40187
1.40106
1.40053
1.40019
1.4
1.3999
1.39987
1.39987
1.39989
1.39991
1.39993
1.39996
1.39997
1.39998
1.39999
1.4
1.4
1.4
1.4
1.4
1.4
1.4
1.4
1.40001
1.40001
1.40001
1.40001
1.40001
1.40001
1.40001
1.40001
1.40001
1.40001
1.40001
1.40001
1.40001
1.4
1.40001
1.4
1.40001
1.4
1.40001
1.4
1.40001
1.4
1.40001
1.40001
1.4
1.40001
1.4
1.40001
1.4
1.40001
1.4
1.40001
1.40001
1.40001
1.40001
1.40001
1.40002
1.40003
1.40004
1.40007
1.4001
1.40014
1.40019
1.40025
1.40032
1.40039
1.40049
1.40064
1.40091
1.40141
1.40227
1.40366
1.40571
1.4085
1.41199
1.41605
1.42044
1.42489
1.42915
1.43297
1.43619
1.4387
1.44045
1.44144
1.44165
1.44109
1.43971
1.43747
1.43437
1.43052
1.42616
1.42158
1.4171
1.41301
1.40949
1.40662
1.40438
1.40274
1.40158
1.4008
1.40032
1.40004
1.39989
1.39984
1.39983
1.39985
1.39988
1.39991
1.39994
1.39996
1.39998
1.39999
1.39999
1.4
1.4
1.4
1.4
1.4
1.4
1.4
1.4
1.40001
1.40001
1.40001
1.40001
1.40001
1.40001
1.40001
1.40001
1.40001
1.40001
1.4
1.40001
1.4
1.40001
1.4
1.40001
1.4
1.40001
1.4
1.40001
1.4
1.40001
1.40001
1.4
1.40001
1.40001
1.4
1.40001
1.4
1.40001
1.40001
1.40001
1.40001
1.40001
1.40001
1.40002
1.40003
1.40005
1.40008
1.40013
1.40018
1.40025
1.40033
1.40042
1.40053
1.40069
1.40095
1.40141
1.40223
1.40361
1.40573
1.40876
1.41273
1.41751
1.42284
1.42837
1.43374
1.43862
1.44279
1.44612
1.44859
1.45022
1.45109
1.45127
1.45077
1.44952
1.44735
1.44415
1.43991
1.43479
1.42916
1.42345
1.41806
1.41332
1.40937
1.40628
1.40396
1.40232
1.40122
1.40053
1.40012
1.3999
1.39981
1.3998
1.39982
1.39985
1.39989
1.39992
1.39995
1.39997
1.39998
1.39999
1.4
1.4
1.4
1.4
1.4
1.4
1.4
1.4
1.40001
1.40001
1.40001
1.40001
1.40001
1.40001
1.40001
1.40001
1.40001
1.40001
1.40001
1.40001
1.40001
1.40001
1.40001
1.40001
1.4
1.40001
1.4
1.40001
1.4
1.40001
1.40001
1.40001
1.4
1.40001
1.4
1.4
1.40001
1.40001
1.40001
1.40001
1.40001
1.40001
1.40002
1.40003
1.40004
1.40007
1.40011
1.40016
1.40023
1.40031
1.40042
1.40054
1.40071
1.40095
1.40137
1.40212
1.4034
1.40548
1.40859
1.41286
1.41824
1.42445
1.43105
1.43754
1.44346
1.44849
1.45244
1.4553
1.45718
1.45827
1.45878
1.45887
1.45859
1.45783
1.45631
1.45366
1.44965
1.44431
1.43795
1.4311
1.42437
1.41823
1.41301
1.40882
1.40565
1.40338
1.40184
1.40085
1.40026
1.39994
1.3998
1.39976
1.39978
1.39981
1.39986
1.3999
1.39993
1.39996
1.39997
1.39999
1.39999
1.4
1.4
1.4
1.4
1.4
1.4
1.4
1.4
1.40001
1.40001
1.40001
1.40001
1.40001
1.40001
1.40001
1.40001
1.40001
1.40001
1.40001
1.40001
1.40001
1.4
1.40001
1.4
1.40001
1.4
1.40001
1.4
1.40001
1.4
1.40001
1.4
1.40001
1.4
1.4
1.40001
1.40001
1.40001
1.40001
1.40001
1.40001
1.40002
1.40003
1.40005
1.40008
1.40013
1.4002
1.40028
1.40039
1.40052
1.40069
1.40093
1.4013
1.40195
1.40309
1.40501
1.40802
1.41237
1.41813
1.42507
1.43268
1.44028
1.44722
1.453
1.45735
1.46021
1.46176
1.46236
1.46238
1.46219
1.46209
1.4622
1.46239
1.46221
1.46104
1.45827
1.45362
1.44724
1.43971
1.4318
1.42424
1.41759
1.41212
1.4079
1.40482
1.4027
1.40133
1.40049
1.40003
1.39981
1.39974
1.39974
1.39978
1.39983
1.39987
1.39991
1.39994
1.39997
1.39998
1.39999
1.4
1.4
1.4
1.4
1.4
1.4
1.4
1.4
1.40001
1.40001
1.40001
1.40001
1.40001
1.40001
1.40001
1.40001
1.40001
1.40001
1.4
1.40001
1.4
1.40001
1.4
1.40001
1.4
1.40001
1.40001
1.4
1.40001
1.4
1.40001
1.4
1.40001
1.4
1.40001
1.40001
1.40001
1.40001
1.40001
1.40001
1.40001
1.40002
1.40004
1.40006
1.4001
1.40016
1.40024
1.40035
1.40048
1.40065
1.40087
1.40121
1.40176
1.40273
1.40439
1.40714
1.41133
1.41719
1.4246
1.43307
1.44175
1.44972
1.45623
1.46083
1.46336
1.46404
1.46333
1.46185
1.46024
1.45904
1.45865
1.4593
1.46085
1.46277
1.4641
1.46382
1.46115
1.4559
1.44854
1.43996
1.43119
1.4231
1.41621
1.41076
1.40671
1.40387
1.402
1.40084
1.40019
1.39986
1.39973
1.39971
1.39974
1.39979
1.39985
1.3999
1.39993
1.39996
1.39998
1.39999
1.39999
1.4
1.4
1.4
1.4
1.4
1.4
1.4
1.40001
1.40001
1.40001
1.40001
1.40001
1.40001
1.40001
1.40001
1.4
1.40001
1.40001
1.4
1.40001
1.4
1.40001
1.40001
1.40001
1.40001
1.4
1.40001
1.40001
1.4
1.40001
1.4
1.4
1.40001
1.40001
1.40001
1.40001
1.40001
1.40001
1.40001
1.40002
1.40003
1.40005
1.40008
1.40012
1.40019
1.40029
1.40041
1.40057
1.40079
1.40108
1.40155
1.40234
1.40373
1.40609
1.40989
1.41551
1.42305
1.43212
1.44179
1.45085
1.45818
1.46306
1.46517
1.46463
1.46199
1.45809
1.45387
1.45017
1.4477
1.44696
1.44825
1.4515
1.45611
1.46089
1.46435
1.46512
1.46246
1.45651
1.44816
1.4387
1.42937
1.42106
1.41427
1.40909
1.40539
1.4029
1.40133
1.40042
1.39995
1.39974
1.39968
1.39971
1.39976
1.39982
1.39988
1.39992
1.39995
1.39997
1.39998
1.39999
1.4
1.4
1.4
1.4
1.4
1.4
1.4
1.4
1.40001
1.40001
1.40001
1.40001
1.40001
1.4
1.40001
1.4
1.40001
1.40001
1.40001
1.40001
1.40001
1.40001
1.40001
1.40001
1.4
1.40001
1.4
1.40001
1.4
1.40001
1.40001
1.4
1.40001
1.40001
1.40001
1.40001
1.40001
1.40001
1.40001
1.40002
1.40003
1.40005
1.40009
1.40014
1.40022
1.40033
1.40048
1.40068
1.40095
1.40134
1.40198
1.40308
1.40501
1.40824
1.41331
1.42056
1.42984
1.4403
1.45048
1.45886
1.46427
1.46613
1.46441
1.45962
1.45271
1.44493
1.4375
1.43148
1.42764
1.42653
1.42855
1.4337
1.44137
1.45025
1.45844
1.46399
1.46545
1.46239
1.45549
1.44618
1.43607
1.42652
1.41837
1.41196
1.40727
1.40406
1.40199
1.40076
1.4001
1.39979
1.39968
1.39968
1.39973
1.3998
1.39986
1.3999
1.39994
1.39996
1.39998
1.39999
1.4
1.4
1.4
1.4
1.4
1.4
1.4
1.4
1.40001
1.40001
1.40001
1.40001
1.40001
1.4
1.40001
1.40001
1.40001
1.40001
1.4
1.40001
1.40001
1.40001
1.40001
1.40001
1.40001
1.40001
1.40001
1.40001
1.4
1.40001
1.40001
1.4
1.40001
1.40001
1.40001
1.40001
1.40001
1.40001
1.40001
1.40002
1.40004
1.40006
1.4001
1.40017
1.40026
1.40039
1.40056
1.40079
1.40112
1.40163
1.40249
1.404
1.4066
1.41088
1.41742
1.42641
1.43727
1.44851
1.45817
1.46456
1.46666
1.46419
1.4575
1.44756
1.43576
1.4237
1.41289
1.40447
1.39926
1.39785
1.40068
1.40784
1.41878
1.4321
1.44564
1.45692
1.46377
1.46506
1.46098
1.45291
1.44274
1.43232
1.42294
1.41529
1.40953
1.40549
1.40284
1.40122
1.40032
1.39987
1.3997
1.39967
1.39971
1.39977
1.39984
1.39989
1.39993
1.39996
1.39998
1.39999
1.4
1.4
1.4
1.4
1.4
1.4
1.4
1.4
1.40001
1.40001
1.40001
1.40001
1.40001
1.40001
1.40001
1.40001
1.40001
1.40001
1.40001
1.40001
1.40001
1.40001
1.4
1.40001
1.40001
1.4
1.40001
1.4
1.4
1.40001
1.4
1.4
1.40001
1.40001
1.40001
1.40001
1.40001
1.40001
1.40001
1.40002
1.40004
1.40007
1.40012
1.40019
1.40029
1.40044
1.40063
1.40091
1.40132
1.40197
1.40311
1.4051
1.40852
1.41403
1.42217
1.43285
1.44483
1.45594
1.46383
1.46689
1.46446
1.45665
1.44423
1.42859
1.41156
1.39506
1.38078
1.36995
1.36339
1.36173
1.36548
1.37482
1.38921
1.40719
1.42639
1.44393
1.45704
1.46383
1.46386
1.4582
1.44887
1.43813
1.42779
1.41897
1.41211
1.40718
1.40387
1.40181
1.40062
1.40001
1.39974
1.39967
1.3997
1.39975
1.39982
1.39988
1.39992
1.39995
1.39997
1.39999
1.39999
1.4
1.4
1.4
1.4
1.4
1.4
1.4
1.40001
1.40001
1.40001
1.40001
1.40001
1.40001
1.40001
1.40001
1.4
1.40001
1.40001
1.40001
1.40001
1.4
1.40001
1.4
1.40001
1.4
1.40001
1.4
1.40001
1.4
1.40001
1.4
1.40001
1.40001
1.40001
1.40001
1.40001
1.40001
1.40002
1.40003
1.40004
1.40008
1.40013
1.40021
1.40032
1.40049
1.40071
1.40103
1.40154
1.40237
1.40383
1.40641
1.41077
1.41765
1.42743
1.43953
1.45193
1.46178
1.46663
1.46526
1.45745
1.44369
1.42512
1.40351
1.38104
1.3599
1.34199
1.3286
1.32059
1.31867
1.32348
1.33527
1.35347
1.37643
1.40157
1.42567
1.44552
1.45858
1.46373
1.46154
1.45397
1.44358
1.43268
1.42287
1.41495
1.4091
1.40508
1.40252
1.40101
1.4002
1.39982
1.3997
1.39969
1.39974
1.39981
1.39986
1.39991
1.39995
1.39997
1.39998
1.39999
1.4
1.4
1.4
1.4
1.4
1.4
1.4
1.40001
1.40001
1.40001
1.40001
1.40001
1.40001
1.40001
1.40001
1.4
1.40001
1.40001
1.40001
1.40001
1.40001
1.4
1.40001
1.40001
1.4
1.40001
1.40001
1.4
1.40001
1.40001
1.40001
1.4
1.40001
1.40001
1.40001
1.40001
1.40001
1.40002
1.40003
1.40005
1.40008
1.40014
1.40023
1.40035
1.40053
1.40078
1.40116
1.40177
1.40281
1.40466
1.40791
1.41334
1.42164
1.43296
1.44601
1.45792
1.46537
1.46617
1.45965
1.44604
1.42609
1.40119
1.37338
1.34512
1.31891
1.2969
1.28052
1.27074
1.26845
1.27449
1.28919
1.31181
1.3404
1.37197
1.403
1.42989
1.44965
1.46057
1.46269
1.45773
1.44837
1.43737
1.42682
1.41796
1.4112
1.40645
1.40335
1.40148
1.40045
1.39994
1.39974
1.3997
1.39974
1.3998
1.39986
1.3999
1.39994
1.39997
1.39998
1.39999
1.4
1.4
1.4
1.4
1.4
1.4
1.4
1.40001
1.4
1.40001
1.40001
1.40001
1.40001
1.40001
1.40001
1.4
1.40001
1.40001
1.40001
1.40001
1.40001
1.4
1.40001
1.4
1.40001
1.4
1.4
1.40001
1.40001
1.4
1.40001
1.40001
1.4
1.40001
1.40001
1.40001
1.40001
1.40002
1.40003
1.40005
1.40009
1.40015
1.40024
1.40037
1.40057
1.40085
1.40128
1.40202
1.4033
1.40558
1.40959
1.41616
1.42588
1.43848
1.45185
1.46231
1.46642
1.46252
1.45058
1.43113
1.40497
1.37357
1.33914
1.30443
1.27234
1.24537
1.22524
1.21314
1.21029
1.21783
1.23613
1.26411
1.29926
1.33806
1.37655
1.41085
1.43762
1.45471
1.4617
1.45999
1.45228
1.44166
1.43068
1.42102
1.41341
1.40793
1.40428
1.40203
1.40075
1.40009
1.39981
1.39973
1.39974
1.3998
1.39985
1.3999
1.39994
1.39996
1.39998
1.39999
1.4
1.4
1.4
1.4
1.4
1.4
1.4
1.40001
1.4
1.40001
1.40001
1.40001
1.40001
1.4
1.40001
1.40001
1.40001
1.40001
1.4
1.40001
1.4
1.40001
1.4
1.40001
1.4
1.40001
1.4
1.40001
1.40001
1.4
1.40001
1.40001
1.40001
1.40001
1.40001
1.40001
1.40001
1.40002
1.40003
1.40005
1.40009
1.40015
1.40025
1.40039
1.4006
1.40091
1.4014
1.40227
1.40383
1.40659
1.4114
1.41914
1.4302
1.44367
1.45665
1.46487
1.46504
1.45621
1.43891
1.41379
1.38149
1.34332
1.30155
1.25933
1.22013
1.18702
1.16213
1.14705
1.14347
1.15299
1.17587
1.21042
1.25327
1.30023
1.34687
1.389
1.42305
1.44657
1.45878
1.46078
1.45522
1.4454
1.4343
1.42403
1.41566
1.40949
1.40528
1.40263
1.40109
1.40028
1.3999
1.39977
1.39976
1.3998
1.39985
1.3999
1.39994
1.39996
1.39998
1.39999
1.4
1.4
1.4
1.4
1.4
1.4
1.4
1.40001
1.4
1.40001
1.40001
1.40001
1.40001
1.4
1.40001
1.4
1.40001
1.4
1.40001
1.4
1.40001
1.4
1.40001
1.4
1.40001
1.40001
1.4
1.40001
1.40001
1.4
1.40001
1.4
1.40001
1.40001
1.40001
1.40001
1.40001
1.40002
1.40003
1.40006
1.40009
1.40016
1.40025
1.40039
1.40061
1.40095
1.4015
1.40253
1.40439
1.40766
1.41329
1.42219
1.43439
1.44827
1.46021
1.46565
1.46165
1.44797
1.4256
1.39513
1.35672
1.31133
1.26126
1.21017
1.16236
1.12173
1.09103
1.07236
1.06805
1.08024
1.10903
1.1516
1.20337
1.25933
1.31467
1.36497
1.40651
1.43662
1.45426
1.46027
1.4572
1.44852
1.43758
1.42689
1.41789
1.41107
1.40633
1.40329
1.40148
1.4005
1.40002
1.39983
1.39979
1.39981
1.39986
1.3999
1.39994
1.39996
1.39998
1.39999
1.4
1.4
1.4
1.4
1.4
1.4
1.4
1.40001
1.4
1.40001
1.40001
1.40001
1.40001
1.40001
1.40001
1.40001
1.40001
1.4
1.40001
1.4
1.40001
1.4
1.4
1.40001
1.4
1.40001
1.40001
1.40001
1.40001
1.4
1.40001
1.40001
1.40001
1.40001
1.40001
1.40001
1.40001
1.40002
1.40003
1.40005
1.40009
1.40015
1.40025
1.40039
1.40061
1.40099
1.4016
1.40277
1.40497
1.40875
1.41517
1.42516
1.43827
1.45211
1.4625
1.46493
1.45686
1.43861
1.41157
1.37609
1.33162
1.27852
1.2191
1.15768
1.09969
1.05023
1.01287
0.990156
0.985176
1.00095
1.03721
1.08944
1.15133
1.21693
1.28119
1.33969
1.38869
1.42538
1.44849
1.45864
1.4583
1.45102
1.44046
1.42954
1.42001
1.41262
1.40739
1.40397
1.40189
1.40074
1.40016
1.39991
1.39983
1.39983
1.39987
1.39991
1.39994
1.39996
1.39998
1.39999
1.4
1.4
1.4
1.4
1.4
1.4
1.4
1.40001
1.40001
1.40001
1.40001
1.40001
1.40001
1.4
1.40001
1.4
1.40001
1.4
1.40001
1.4
1.40001
1.4
1.40001
1.40001
1.4
1.4
1.40001
1.4
1.40001
1.4
1.40001
1.40001
1.40001
1.40001
1.40001
1.40001
1.40001
1.40002
1.40003
1.40005
1.40009
1.40015
1.40024
1.40038
1.4006
1.40101
1.40169
1.40299
1.40552
1.40983
1.41697
1.42793
1.44174
1.45513
1.46368
1.46315
1.4513
1.42886
1.39757
1.35748
1.30712
1.24598
1.17633
1.10331
1.03386
0.974635
0.930059
0.902931
0.897316
0.917514
0.962779
1.02626
1.09934
1.17497
1.24804
1.31439
1.37047
1.41345
1.44188
1.45616
1.45863
1.45291
1.44292
1.43191
1.42198
1.41409
1.40841
1.40464
1.40232
1.401
1.40031
1.4
1.39988
1.39986
1.39988
1.39992
1.39994
1.39997
1.39998
1.39999
1.4
1.4
1.4
1.4
1.4
1.4
1.4
1.40001
1.40001
1.40001
1.40001
1.40001
1.40001
1.4
1.40001
1.4
1.40001
1.40001
1.4
1.40001
1.4
1.40001
1.4
1.40001
1.40001
1.4
1.40001
1.4
1.40001
1.4
1.4
1.40001
1.4
1.40001
1.40001
1.40001
1.40001
1.40002
1.40003
1.40005
1.40008
1.40013
1.40022
1.40036
1.40057
1.40101
1.40176
1.40318
1.40603
1.41086
1.41863
1.43038
1.44469
1.4574
1.46398
1.46072
1.44557
1.41937
1.38421
1.33997
1.28414
1.21509
1.13486
1.04954
0.967954
0.898655
0.846685
0.814896
0.808619
0.83364
0.888724
0.964468
1.04946
1.13529
1.21681
1.29039
1.35287
1.40158
1.43493
1.45313
1.45835
1.45425
1.44494
1.43397
1.42374
1.41545
1.40938
1.4053
1.40275
1.40127
1.40048
1.4001
1.39994
1.3999
1.39991
1.39993
1.39995
1.39997
1.39998
1.39999
1.4
1.4
1.4
1.4
1.4
1.4
1.4
1.40001
1.40001
1.40001
1.40001
1.4
1.40001
1.4
1.40001
1.4
1.40001
1.40001
1.4
1.40001
1.40001
1.4
1.40001
1.4
1.40001
1.40001
1.40001
1.40001
1.4
1.40001
1.4
1.40001
1.40001
1.40001
1.40001
1.40001
1.40001
1.40002
1.40002
1.40004
1.40007
1.40011
1.4002
1.40033
1.40052
1.40098
1.40181
1.40332
1.40645
1.4118
1.42008
1.43242
1.44711
1.45907
1.46367
1.45801
1.44015
1.41067
1.37198
1.32411
1.26359
1.18745
1.0972
0.999848
0.906437
0.827509
0.768494
0.732306
0.725366
0.754605
0.818794
0.906555
1.0035
1.09936
1.18879
1.26879
1.33682
1.39047
1.42815
1.44988
1.45766
1.45513
1.44654
1.4357
1.42527
1.41666
1.41026
1.40591
1.40315
1.40153
1.40065
1.40021
1.40001
1.39994
1.39993
1.39994
1.39996
1.39998
1.39999
1.39999
1.4
1.4
1.4
1.4
1.4
1.4
1.4
1.40001
1.40001
1.40001
1.40001
1.4
1.40001
1.4
1.40001
1.40001
1.4
1.40001
1.40001
1.4
1.40001
1.4
1.4
1.40001
1.4
1.40001
1.4
1.40001
1.4
1.40001
1.40001
1.4
1.40001
1.4
1.40001
1.40001
1.40001
1.40001
1.40002
1.40003
1.40006
1.40009
1.40016
1.40029
1.40047
1.40092
1.40183
1.40343
1.40675
1.41258
1.4213
1.43399
1.44897
1.46029
1.46306
1.45532
1.4354
1.40323
1.36132
1.3103
1.24622
1.16463
1.0661
0.958347
0.854614
0.767338
0.70242
0.66293
0.655361
0.68704
0.757729
0.855531
0.963369
1.06851
1.165
1.25046
1.32303
1.38074
1.42202
1.44674
1.45676
1.45564
1.44775
1.43708
1.42653
1.41768
1.41102
1.40645
1.40353
1.40179
1.40082
1.40032
1.40008
1.39999
1.39996
1.39996
1.39997
1.39998
1.39999
1.4
1.4
1.4
1.4
1.4
1.4
1.4
1.4
1.40001
1.40001
1.40001
1.40001
1.4
1.40001
1.4
1.40001
1.4
1.4
1.40001
1.4
1.40001
1.40001
1.4
1.40001
1.4
1.40001
1.40001
1.4
1.40001
1.4