/*--------------------------------*- C++ -*----------------------------------*\
  =========                 |
  \\      /  F ield         | OpenFOAM: The Open Source CFD Toolbox
   \\    /   O peration     | Website:  https://openfoam.org
    \\  /    A nd           | Version:  6
     \\/     M anipulation  |
\*---------------------------------------------------------------------------*/
FoamFile
{
    version     2.0;
    format      ascii;
    class       volVectorField;
    location    "4.12";
    object      U;
}
// * * * * * * * * * * * * * * * * * * * * * * * * * * * * * * * * * * * * * //

dimensions      [0 1 -1 0 0 0 0];

internalField   nonuniform List<vector> 
4214
(
(4.93288 -0.0515604 1.11916e-19)
(5.33232 0.0312853 -2.02912e-19)
(5.42301 0.110926 9.14208e-20)
(5.42437 0.175571 -8.89033e-23)
(5.41139 0.234079 0)
(5.39315 0.284761 0)
(5.36758 0.32777 0)
(5.33195 0.365323 -6.01619e-23)
(5.28306 0.398248 6.79604e-23)
(5.21788 0.425842 0)
(5.13294 0.446126 0)
(5.02465 0.455347 0)
(4.89075 0.448413 -3.7136e-22)
(4.73112 0.417543 -2.3013e-21)
(4.5438 0.355652 9.32657e-21)
(4.29923 0.260292 -6.23199e-21)
(3.90387 0.188768 -4.84703e-21)
(3.32851 0.223996 -1.13286e-20)
(2.8233 0.207908 -5.70629e-21)
(2.5439 -0.107584 4.62992e-21)
(2.36001 -0.585435 9.35663e-22)
(2.27187 -1.00514 -3.78831e-21)
(2.36521 -1.28342 -5.91057e-21)
(2.7356 -1.4526 1.04888e-20)
(3.38557 -1.55681 3.6337e-20)
(4.24469 -1.62113 -7.27736e-20)
(5.17259 -1.63083 3.62404e-20)
(5.99456 -1.52892 0)
(6.56009 -1.33072 0)
(6.81442 -1.07864 -2.5086e-21)
(6.83496 -0.823928 -1.23738e-21)
(6.71185 -0.596142 -1.32943e-21)
(6.53619 -0.429125 1.29973e-21)
(6.39086 -0.319328 2.11369e-21)
(6.28631 -0.243088 -3.25748e-21)
(6.21161 -0.18708 5.00831e-21)
(6.1587 -0.142755 0)
(6.12106 -0.1045 0)
(6.08057 -0.075222 0)
(5.96992 -0.0560761 -2.97897e-21)
(5.58791 -0.0256966 0)
(5.51412 0.00198382 -6.19523e-21)
(5.5746 0.125575 6.50798e-21)
(5.5526 0.192887 0)
(5.52107 0.233106 3.31136e-22)
(5.49018 0.278081 0)
(5.46093 0.327346 0)
(5.42765 0.37684 4.9089e-22)
(5.38531 0.426093 -1.19765e-21)
(5.32996 0.474832 1.61748e-21)
(5.25746 0.52203 0)
(5.16259 0.566371 0)
(5.03953 0.605696 -6.66659e-21)
(4.88338 0.63609 -3.78561e-21)
(4.69297 0.650882 0)
(4.47223 0.641384 -5.25779e-21)
(4.22454 0.600337 2.72204e-20)
(3.90991 0.545352 1.33807e-20)
(3.41237 0.589576 -2.5743e-21)
(2.75387 0.791094 0)
(2.2158 0.891845 -3.23647e-20)
(1.95931 0.676058 4.15145e-22)
(1.93292 0.302265 -3.2027e-20)
(2.13934 -0.0636176 -1.13006e-19)
(2.59684 -0.376144 2.52654e-20)
(3.31382 -0.647251 -8.34564e-20)
(4.23656 -0.888671 8.46346e-20)
(5.24124 -1.07512 9.76512e-20)
(6.14672 -1.14637 0)
(6.77492 -1.07051 0)
(7.04253 -0.891793 0)
(7.06039 -0.679544 4.76051e-21)
(6.90508 -0.475812 -9.79096e-22)
(6.68402 -0.324363 0)
(6.50317 -0.230178 0)
(6.37473 -0.166899 -4.21394e-21)
(6.28341 -0.1238 2.92721e-20)
(6.21756 -0.0954389 -2.80395e-20)
(6.17326 -0.080428 -3.60404e-20)
(6.15235 -0.0838229 0)
(6.13538 -0.0824785 -1.18474e-19)
(6.06284 -0.0132401 -5.0407e-20)
(5.61223 0.0790562 -1.0921e-20)
(5.60271 0.151806 -3.10037e-21)
(5.57942 0.205331 8.86315e-22)
(5.55097 0.250193 -8.56313e-21)
(5.52679 0.300155 8.27178e-21)
(5.50317 0.355384 -6.58019e-22)
(5.47335 0.412855 -9.97713e-22)
(5.43287 0.471729 4.48762e-22)
(5.37842 0.531804 -1.27475e-21)
(5.30619 0.592167 0)
(5.21125 0.651346 -3.08704e-21)
(5.08744 0.707715 3.46525e-21)
(4.92852 0.759067 1.24776e-20)
(4.73147 0.800864 -3.53479e-20)
(4.49891 0.825603 -1.7335e-20)
(4.23397 0.82645 1.58242e-20)
(3.9253 0.808511 5.96368e-20)
(3.5159 0.827751 7.278e-20)
(2.9464 1.00064 4.68934e-21)
(2.33016 1.26736 9.65223e-20)
(1.90348 1.33483 -6.06016e-22)
(1.79974 1.12084 -6.06158e-20)
(1.99138 0.789104 9.63123e-20)
(2.45767 0.432837 0)
(3.18045 0.0745853 -2.42033e-19)
(4.11724 -0.267904 0)
(5.15279 -0.571171 -1.49086e-19)
(6.1103 -0.76831 5.23575e-20)
(6.80091 -0.807242 -4.45323e-21)
(7.103 -0.705062 0)
(7.1345 -0.540276 -1.72242e-20)
(6.97467 -0.372033 2.44566e-21)
(6.73435 -0.243255 -1.81554e-20)
(6.53856 -0.165048 -7.46042e-21)
(6.40107 -0.113271 5.33286e-20)
(6.30253 -0.0785158 8.2073e-21)
(6.22957 -0.0560621 1.02941e-19)
(6.17499 -0.0435873 -5.41597e-20)
(6.13497 -0.0438812 2.3519e-19)
(6.09981 -0.0525117 1.38119e-19)
(6.06817 -0.0466434 1.71005e-19)
(5.6891 0.125403 2.43734e-20)
(5.65751 0.179435 -7.55137e-21)
(5.63287 0.231951 -9.16755e-22)
(5.61137 0.281169 -8.63021e-21)
(5.59117 0.33449 6.29218e-21)
(5.5687 0.393796 3.51041e-21)
(5.53953 0.457727 -3.82706e-21)
(5.49979 0.525794 -4.57677e-22)
(5.4458 0.597988 2.04316e-21)
(5.37322 0.673517 1.37451e-21)
(5.27691 0.750561 -5.50345e-22)
(5.15072 0.827062 0)
(4.98789 0.90148 1.26589e-21)
(4.78348 0.971723 2.76501e-20)
(4.53868 1.03269 3.65043e-20)
(4.26118 1.07668 -5.19624e-20)
(3.95485 1.10183 -1.14388e-19)
(3.59481 1.13213 -7.72643e-20)
(3.11646 1.25543 4.7478e-21)
(2.51588 1.54933 -6.6846e-20)
(1.96156 1.8533 -1.20762e-21)
(1.71409 1.88481 8.24505e-20)
(1.81929 1.66076 1.892e-20)
(2.26437 1.30189 -4.38096e-19)
(2.99084 0.884414 2.69369e-19)
(3.94103 0.455028 -7.0187e-20)
(5.01279 0.0437659 1.02283e-19)
(6.03358 -0.284584 8.79022e-20)
(6.80838 -0.459404 4.44411e-21)
(7.1626 -0.45871 0)
(7.22529 -0.355232 1.73177e-20)
(7.06784 -0.232337 0)
(6.80366 -0.135534 -2.25132e-20)
(6.58809 -0.0788003 4.59825e-20)
(6.43851 -0.0434165 -5.52103e-20)
(6.33171 -0.021812 -5.85399e-20)
(6.25205 -0.0107114 -2.01092e-19)
(6.19129 -0.00708011 1.36897e-19)
(6.14497 -0.0107042 8.29266e-20)
(6.10982 -0.0213024 -4.10996e-20)
(6.08404 -0.0265915 3.63244e-20)
(5.73934 0.160123 -6.35481e-22)
(5.70823 0.205974 2.22492e-20)
(5.68923 0.257325 -2.19064e-20)
(5.67396 0.309439 3.72643e-21)
(5.65848 0.366063 2.32668e-21)
(5.63987 0.42946 0)
(5.61455 0.49965 -5.5438e-21)
(5.57876 0.576642 7.66928e-21)
(5.52834 0.66075 -2.19028e-21)
(5.45825 0.751623 6.14451e-21)
(5.36295 0.847481 2.79108e-21)
(5.23672 0.945655 0)
(5.07344 1.04415 4.07522e-21)
(4.86747 1.1421 0)
(4.61765 1.2374 0)
(4.33089 1.32366 0)
(4.01721 1.39423 5.48283e-20)
(3.674 1.45448 0)
(3.26903 1.5462 4.73231e-20)
(2.75472 1.77161 7.07071e-20)
(2.17712 2.14938 -1.14635e-22)
(1.74189 2.43254 -1.85082e-19)
(1.7443 2.41224 0)
(2.06843 2.12585 3.87686e-19)
(2.76485 1.6988 0)
(3.70417 1.206 1.85377e-20)
(4.79132 0.708838 -1.45058e-20)
(5.86033 0.267463 -1.23415e-19)
(6.72165 -0.0419752 0)
(7.17132 -0.161646 0)
(7.2595 -0.13651 0)
(7.12145 -0.0684867 -2.45794e-21)
(6.84452 -0.0132138 2.47379e-20)
(6.61509 0.0176465 2.97234e-20)
(6.45629 0.0339935 0)
(6.34324 0.0411927 0)
(6.25814 0.0416735 2.03686e-19)
(6.19144 0.0377462 2.06382e-19)
(6.13889 0.0289465 2.06367e-19)
(6.10092 0.0126983 -1.65098e-19)
(6.07466 0.000452525 1.65308e-19)
(5.79147 0.186556 -4.04199e-21)
(5.76911 0.22986 -1.77378e-20)
(5.75685 0.281031 0)
(5.747 0.334976 -3.8266e-21)
(5.7363 0.394087 0)
(5.72225 0.46108 0)
(5.70177 0.536878 -4.96592e-21)
(5.67133 0.622021 -7.81039e-21)
(5.62647 0.717462 5.08516e-21)
(5.56121 0.823605 -1.1336e-20)
(5.46901 0.939175 0)
(5.34413 1.06133 2.71371e-20)
(5.18156 1.1873 -4.11427e-21)
(4.97639 1.31604 0)
(4.7258 1.44703 0)
(4.43408 1.5758 0)
(4.11179 1.69361 2.59962e-20)
(3.76616 1.79354 -3.34554e-20)
(3.39207 1.88478 -4.73922e-20)
(2.95696 2.03315 -7.08236e-20)
(2.4415 2.33689 0)
(1.93022 2.73971 1.84598e-19)
(1.74366 2.94773 5.62408e-22)
(1.92722 2.82603 3.40952e-19)
(2.52477 2.45094 0)
(3.42453 1.93047 0)
(4.51016 1.37258 3.32116e-20)
(5.61214 0.847 -3.34929e-20)
(6.55133 0.424046 -2.1885e-20)
(7.11656 0.184816 -2.52468e-20)
(7.26842 0.116322 0)
(7.14859 0.116747 2.4638e-21)
(6.86733 0.123522 -5.47924e-20)
(6.62959 0.125012 0)
(6.46334 0.1191 -1.15764e-19)
(6.34584 0.109557 0)
(6.25712 0.0980403 1.58592e-19)
(6.18684 0.0857681 -3.31603e-19)
(6.13112 0.071184 -2.17542e-19)
(6.09006 0.0500676 0)
(6.05761 0.033389 0)
(5.85066 0.20685 -3.57273e-20)
(5.83679 0.248853 0)
(5.83056 0.299323 0)
(5.82595 0.353873 2.48182e-20)
(5.8205 0.414529 -9.29736e-21)
(5.81224 0.484438 1.70591e-20)
(5.79838 0.565112 -3.81592e-21)
(5.77543 0.657722 1.67037e-20)
(5.7386 0.763967 -1.96759e-20)
(5.68124 0.885102 3.00666e-20)
(5.59561 1.02076 -1.04102e-20)
(5.47541 1.16881 3.49715e-20)
(5.31648 1.32643 -4.61403e-21)
(5.11516 1.49194 6.82383e-20)
(4.86782 1.66455 0)
(4.57492 1.84025 0)
(4.24355 2.00802 -7.89477e-20)
(3.88539 2.1513 3.36299e-20)
(3.509 2.26037 3.5575e-22)
(3.11029 2.3617 -3.6551e-22)
(2.66972 2.54286 0)
(2.19777 2.88286 -4.72445e-21)
(1.85903 3.22924 4.8563e-21)
(1.88296 3.32207 -3.40239e-19)
(2.29404 3.07525 -2.8886e-20)
(3.11289 2.5804 -3.62241e-19)
(4.17192 1.98964 -6.34651e-20)
(5.29098 1.40906 1.00479e-19)
(6.29375 0.902571 4.07095e-20)
(6.96473 0.564756 6.84412e-20)
(7.20841 0.399388 0)
(7.14231 0.320468 0)
(6.86357 0.27291 0)
(6.62395 0.241703 1.24212e-19)
(6.45289 0.210704 -2.23972e-20)
(6.33337 0.1827 2.93607e-19)
(6.24313 0.158115 -9.8785e-20)
(6.17148 0.136446 4.28083e-19)
(6.11476 0.114509 -2.84124e-19)
(6.07203 0.0886055 0)
(6.03479 0.068704 0)
(5.91663 0.219653 4.91074e-20)
(5.90951 0.260219 -3.62828e-20)
(5.90859 0.309132 2.37813e-20)
(5.90946 0.363467 0)
(5.9101 0.424997 -3.32398e-20)
(5.90889 0.496965 4.09354e-20)
(5.90337 0.581665 -9.94834e-20)
(5.89003 0.681041 0)
(5.86377 0.797394 0)
(5.81729 0.9329 0)
(5.742 1.08862 0)
(5.63114 1.26409 -6.32298e-20)
(5.48094 1.45786 -9.81744e-20)
(5.28846 1.66826 -2.31318e-19)
(5.04859 1.89284 1.19431e-20)
(4.75703 2.12448 1.2192e-20)
(4.41577 2.34658 -1.24182e-19)
(4.03574 2.53455 -1.77042e-19)
(3.63318 2.66746 0)
(3.22744 2.74606 -2.05744e-19)
(2.82685 2.8224 0)
(2.4199 3.00652 -2.92714e-19)
(2.05078 3.32358 0)
(1.90888 3.56108 3.85163e-20)
(2.13082 3.49946 7.16019e-21)
(2.80101 3.10066 4.0582e-19)
(3.79188 2.51925 -2.63662e-19)
(4.91216 1.91359 -5.36518e-21)
(5.96999 1.35655 8.54244e-20)
(6.73882 0.945232 -1.94992e-19)
(7.08398 0.693583 4.71821e-20)
(7.05172 0.539822 -3.8651e-20)
(6.82959 0.436683 -8.15352e-20)
(6.59477 0.365417 -1.52686e-19)
(6.42394 0.306658 1.40166e-19)
(6.30554 0.258814 -4.57878e-19)
(6.2169 0.22033 2.18745e-20)
(6.14628 0.188468 -5.19815e-19)
(6.09024 0.158486 0)
(6.04654 0.127375 -3.39531e-19)
(6.00636 0.104057 3.33748e-19)
(5.98592 0.22381 6.31025e-20)
(5.98403 0.262167 -4.04267e-20)
(5.98803 0.308614 3.8899e-20)
(5.99485 0.361973 7.36852e-21)
(6.0026 0.423619 -6.59521e-20)
(6.00982 0.496723 -3.90573e-20)
(6.01443 0.584322 -1.82185e-20)
(6.013 0.689266 4.15923e-20)
(6.00016 0.814694 -4.14341e-20)
(5.96808 0.963807 5.56889e-20)
(5.90789 1.13935 8.88677e-20)
(5.81286 1.34368 2.04312e-19)
(5.67938 1.57822 2.80659e-19)
(5.50369 1.84238 3.57571e-19)
(5.27685 2.13086 -2.50279e-20)
(4.98787 2.42933 -2.35823e-19)
(4.6318 2.7116 1.38192e-19)
(4.21743 2.94338 1.62348e-19)
(3.76813 3.09706 3.8088e-19)
(3.32214 3.16025 2.06739e-19)
(2.916 3.15932 0)
(2.55692 3.18755 3.04612e-19)
(2.23339 3.35278 -1.13411e-20)
(2.00453 3.60315 3.13528e-20)
(2.06772 3.66483 -3.20675e-20)
(2.52537 3.43845 0)
(3.39792 2.92353 1.69442e-19)
(4.49251 2.32314 4.42994e-20)
(5.59285 1.75115 -3.84385e-21)
(6.45219 1.29713 -1.16019e-20)
(6.89679 0.979846 0)
(6.93923 0.762376 -1.09729e-19)
(6.75287 0.606529 0)
(6.53777 0.491466 3.31192e-19)
(6.37386 0.403333 3.84566e-19)
(6.26096 0.335241 5.79146e-19)
(6.17738 0.28264 -5.85094e-19)
(6.11027 0.240227 -1.90888e-20)
(6.0565 0.201959 3.78099e-19)
(6.0129 0.165417 3.47545e-19)
(5.9714 0.138159 3.52405e-20)
(6.05387 0.217812 -1.48159e-20)
(6.0571 0.253667 -7.96605e-20)
(6.06631 0.296837 7.78402e-20)
(6.0798 0.348323 0)
(6.09573 0.409227 0)
(6.11278 0.482407 6.45981e-20)
(6.12928 0.571529 7.78023e-20)
(6.14201 0.680377 9.38621e-20)
(6.14544 0.813101 0)
(6.13184 0.974349 -2.47264e-19)
(6.09311 1.16957 -2.6931e-19)
(6.02331 1.40492 -1.70698e-19)
(5.91788 1.68535 -4.86375e-19)
(5.76897 2.01091 -2.26483e-19)
(5.56001 2.37152 -4.06254e-19)
(5.27088 2.74301 2.4324e-19)
(4.88882 3.08717 1.02723e-19)
(4.4239 3.35739 5.27219e-19)
(3.90706 3.52237 -3.67479e-19)
(3.39278 3.5635 0)
(2.94504 3.5009 0)
(2.60214 3.40597 2.57585e-20)
(2.33708 3.39915 -2.63819e-20)
(2.12203 3.5321 2.5302e-19)
(2.06253 3.65582 -5.24428e-20)
(2.33497 3.5586 -8.4237e-20)
(3.03509 3.16356 8.54677e-20)
(4.06099 2.60526 -4.43158e-20)
(5.17796 2.05501 3.83809e-21)
(6.11119 1.59524 1.63145e-21)
(6.65123 1.24264 -9.9265e-20)
(6.77335 0.975425 5.81019e-20)
(6.64011 0.770596 -4.02035e-20)
(6.45082 0.614666 -1.9314e-19)
(6.30261 0.497603 -5.83967e-19)
(6.20026 0.409882 -3.91883e-19)
(6.12407 0.343323 3.96768e-19)
(6.06267 0.290473 4.1619e-19)
(6.01266 0.244118 4.23507e-19)
(5.97055 0.201965 -3.90737e-19)
(5.92958 0.169972 1.94372e-20)
(6.11651 0.200592 6.37842e-20)
(6.12558 0.233718 -5.94899e-20)
(6.14094 0.273324 0)
(6.16189 0.322043 -6.42979e-20)
(6.18698 0.381107 -1.61515e-19)
(6.21516 0.453087 1.77405e-19)
(6.24518 0.542066 -9.77827e-20)
(6.27416 0.652655 0)
(6.2969 0.790269 -1.77116e-19)
(6.30702 0.961776 3.88644e-19)
(6.29847 1.17658 4.73182e-19)
(6.26641 1.4455 0)
(6.20202 1.77607 2.93299e-19)
(6.08878 2.16538 1.13063e-19)
(5.89755 2.59594 2.97007e-19)
(5.598 3.033 -7.16384e-19)
(5.17101 3.42772 0)
(4.6327 3.7248 -5.88012e-19)
(4.0283 3.88372 9.08206e-19)
(3.42767 3.88877 -8.50698e-19)
(2.91726 3.77442 1.03664e-20)
(2.56198 3.59565 -6.06849e-19)
(2.34385 3.45251 0)
(2.17765 3.43932 -2.02857e-19)
(2.07756 3.50755 -1.93376e-19)
(2.20004 3.47507 6.27127e-20)
(2.72564 3.20579 0)
(3.65093 2.73854 0)
(4.75259 2.24718 6.23711e-20)
(5.73665 1.81808 -1.33088e-19)
(6.35818 1.46196 1.1122e-19)
(6.56019 1.16518 4.06922e-19)
(6.48695 0.921136 -2.41979e-19)
(6.33454 0.729318 2.10616e-19)
(6.20809 0.585573 4.9599e-19)
(6.12055 0.479911 -4.90068e-19)
(6.05567 0.400264 0)
(6.0029 0.336849 0)
(5.9586 0.282718 -4.2641e-19)
(5.91968 0.2355 -3.97381e-19)
(5.8813 0.198814 -1.24181e-20)
(6.17165 0.17165 -4.84525e-20)
(6.18724 0.201899 -2.28392e-20)
(6.20972 0.237841 0)
(6.23889 0.28304 1.35551e-19)
(6.27383 0.338967 1.69424e-19)
(6.31409 0.40817 -9.80282e-20)
(6.35882 0.49491 1.44758e-19)
(6.40588 0.604573 -1.51276e-19)
(6.45152 0.744127 7.96065e-19)
(6.49286 0.923934 -5.81226e-19)
(6.52633 1.1586 -4.76538e-19)
(6.54581 1.46274 4.31795e-19)
(6.53136 1.84162 -5.51154e-19)
(6.45421 2.28397 0)
(6.27045 2.76498 8.62246e-19)
(5.94181 3.2413 -7.57532e-20)
(5.44639 3.65792 -2.33189e-19)
(4.80692 3.96724 -1.33361e-19)
(4.09887 4.07818 -7.19428e-19)
(3.41431 4.04367 1.95425e-18)
(2.83761 3.90883 2.37819e-20)
(2.45165 3.68422 1.35958e-18)
(2.26124 3.45657 0)
(2.1574 3.32176 0)
(2.06125 3.30242 9.86451e-20)
(2.08777 3.27718 3.04617e-20)
(2.46414 3.08486 0)
(3.27857 2.72421 4.21115e-20)
(4.34084 2.32068 3.09737e-21)
(5.35054 1.95167 7.83579e-20)
(6.03458 1.61988 1.22145e-19)
(6.30776 1.31357 -2.08848e-19)
(6.29593 1.0431 7.46003e-19)
(6.18682 0.824702 -5.19741e-19)
(6.08899 0.660878 -1.03578e-18)
(6.02219 0.540301 1.01108e-18)
(5.97278 0.449043 -5.15145e-19)
(5.93101 0.376416 4.99787e-19)
(5.89417 0.315483 4.84188e-19)
(5.86044 0.263724 -9.08511e-19)
(5.82714 0.222701 1.33474e-18)
(6.21787 0.13195 -8.72073e-20)
(6.24068 0.158564 -1.97723e-20)
(6.27083 0.190457 -2.79146e-20)
(6.30868 0.231438 5.70039e-20)
(6.35385 0.282792 1.60279e-20)
(6.4067 0.347375 -1.05018e-19)
(6.46673 0.429071 0)
(6.53369 0.53477 3.7069e-20)
(6.60718 0.672912 -4.30469e-19)
(6.6901 0.859451 0)
(6.77816 1.11364 1.30242e-19)
(6.8575 1.44925 -1.59485e-18)
(6.88787 1.86076 8.42943e-19)
(6.83205 2.32567 0)
(6.63291 2.81864 -3.23487e-19)
(6.25208 3.29023 3.30028e-18)
(5.672 3.68818 0)
(4.92455 3.9955 1.74917e-18)
(4.10587 4.10529 1.78022e-19)
(3.33686 4.03594 -2.88709e-18)
(2.70387 3.86892 1.24283e-18)
(2.28624 3.6203 -1.74599e-18)
(2.10968 3.35098 -6.57893e-19)
(2.06512 3.14145 2.64071e-19)
(1.99938 3.03889 -6.96852e-20)
(1.97357 2.97737 -5.14395e-20)
(2.24231 2.83266 8.77422e-20)
(2.95445 2.57588 -4.201e-20)
(3.96459 2.27892 0)
(4.97292 1.99116 4.1357e-20)
(5.69639 1.705 1.63278e-19)
(6.02873 1.40933 3.21147e-20)
(6.07479 1.12835 9.08455e-19)
(6.01178 0.894577 -1.21403e-18)
(5.94883 0.717126 -5.84779e-20)
(5.90753 0.585934 1.41681e-20)
(5.87656 0.486146 4.79884e-19)
(5.84802 0.406341 -1.49415e-18)
(5.82065 0.339984 4.79024e-19)
(5.79449 0.284186 -1.90605e-18)
(5.76888 0.238482 1.39241e-18)
(6.2551 0.0814695 -1.04919e-19)
(6.28529 0.104306 1.78098e-19)
(6.32299 0.131666 -9.92355e-20)
(6.36933 0.167374 -2.49912e-19)
(6.42465 0.212242 2.73532e-19)
(6.4903 0.269958 0)
(6.56631 0.343139 1.90841e-19)
(6.65645 0.442054 -1.89504e-19)
(6.76544 0.575443 -3.16539e-19)
(6.90242 0.767465 3.15898e-19)
(7.05178 1.03642 4.9112e-19)
(7.1832 1.386 1.6572e-18)
(7.22927 1.79509 1.83638e-18)
(7.16657 2.23637 5.98218e-19)
(6.91986 2.69403 -6.05091e-19)
(6.46528 3.10821 -2.87041e-18)
(5.79204 3.44884 2.08647e-18)
(4.95532 3.71844 -2.03434e-18)
(4.04755 3.83013 2.47315e-18)
(3.19583 3.78735 3.56666e-18)
(2.51508 3.62318 -1.26778e-18)
(2.07689 3.37411 2.12612e-18)
(1.91005 3.09962 1.44052e-18)
(1.91614 2.85314 7.84421e-21)
(1.89786 2.69819 -5.06338e-20)
(1.85164 2.59831 1.99597e-19)
(2.05703 2.47895 -9.69894e-20)
(2.68911 2.31605 -2.53538e-19)
(3.64127 2.13438 0)
(4.62455 1.94017 3.80825e-19)
(5.35782 1.71156 2.87647e-20)
(5.7288 1.4421 -3.17486e-19)
(5.82694 1.1664 -9.73945e-19)
(5.81393 0.928567 6.40246e-19)
(5.78989 0.746327 6.14657e-19)
(5.77699 0.610724 1.15689e-18)
(5.76691 0.506265 -1.66285e-18)
(5.75388 0.421947 -5.31087e-22)
(5.73844 0.351849 4.83448e-19)
(5.72252 0.293003 4.63607e-19)
(5.70661 0.243637 -4.4742e-19)
(6.28077 0.0238105 4.305e-20)
(6.31947 0.0413447 2.83007e-20)
(6.36463 0.0626869 4.49145e-20)
(6.41864 0.0909368 1.45294e-19)
(6.48334 0.127055 -1.02493e-19)
(6.56071 0.174729 0)
(6.65453 0.236775 2.11572e-19)
(6.77388 0.326116 -2.10222e-19)
(6.92856 0.452285 0)
(7.13107 0.643982 8.91522e-19)
(7.33104 0.911096 -2.29722e-18)
(7.48557 1.2382 1.67427e-18)
(7.49856 1.60124 -1.87832e-18)
(7.39919 1.97586 0)
(7.07259 2.35802 0)
(6.5331 2.6729 -1.08947e-18)
(5.7626 2.93527 -1.63112e-18)
(4.85362 3.09372 -3.34459e-21)
(3.90022 3.17747 7.33384e-19)
(3.00241 3.18045 6.48647e-19)
(2.29367 3.08875 0)
(1.84729 2.91118 -1.2101e-18)
(1.69458 2.67548 -9.45411e-19)
(1.73752 2.42989 -1.1303e-19)
(1.75533 2.25956 1.34836e-19)
(1.72059 2.13871 4.85356e-20)
(1.89732 2.04241 4.30605e-19)
(2.48759 1.975 -3.12548e-19)
(3.38426 1.91002 4.03935e-19)
(4.32665 1.81296 -5.93367e-19)
(5.04156 1.6464 -7.96378e-19)
(5.43241 1.40945 -4.06658e-19)
(5.57254 1.14934 0)
(5.60648 0.921158 -6.71095e-19)
(5.62132 0.744267 6.6842e-19)
(5.63774 0.610686 0)
(5.64939 0.505788 1.65257e-18)
(5.65318 0.419844 -3.59235e-20)
(5.65153 0.347745 -5.09631e-19)
(5.64735 0.286797 -9.23168e-19)
(5.6416 0.235119 9.20642e-19)
(6.29985 -0.0453632 -2.73431e-20)
(6.34236 -0.0329356 -1.82686e-21)
(6.39215 -0.0164401 -4.56817e-20)
(6.45113 0.00331205 -1.24451e-19)
(6.52474 0.0317123 0)
(6.60939 0.0644397 -2.98248e-19)
(6.72792 0.116782 7.14527e-19)
(6.88047 0.18807 7.12718e-20)
(7.09147 0.306312 0)
(7.35534 0.473886 -9.13139e-19)
(7.56296 0.713096 1.27351e-18)
(7.69463 0.97433 -3.62459e-18)
(7.63622 1.26729 0)
(7.49815 1.549 0)
(7.05234 1.82624 -4.42194e-18)
(6.44601 2.02451 -1.29975e-18)
(5.58088 2.1909 1.32534e-18)
(4.63596 2.27632 0)
(3.67995 2.31615 -3.08719e-18)
(2.76389 2.32272 -4.80474e-18)
(2.06463 2.29393 0)
(1.62038 2.22306 1.54129e-19)
(1.48322 2.06449 9.81873e-19)
(1.56291 1.86216 -1.75881e-19)
(1.58722 1.70589 6.77685e-20)
(1.59553 1.59777 -3.69653e-19)
(1.81064 1.54901 3.15041e-19)
(2.36821 1.57807 -2.71145e-20)
(3.19344 1.62166 -9.12245e-19)
(4.06626 1.6134 9.12526e-19)
(4.72921 1.50372 1.28936e-18)
(5.13298 1.30572 -7.46021e-20)
(5.30779 1.07441 -5.0904e-20)
(5.39122 0.867618 -7.57193e-19)
(5.44288 0.704825 0)
(5.48914 0.57989 0)
(5.52298 0.479368 5.86006e-19)
(5.54647 0.395098 -1.07046e-18)
(5.56016 0.323872 4.93393e-19)
(5.56893 0.26304 4.67498e-19)
(5.57398 0.211565 1.28433e-18)
(6.30152 -0.110538 -2.81996e-20)
(6.34333 -0.106467 2.78091e-20)
(6.40659 -0.0943991 5.11673e-20)
(6.46018 -0.0869772 -8.98187e-20)
(6.55388 -0.0663828 9.28534e-20)
(6.62855 -0.0552003 -2.21793e-19)
(6.80503 -0.0102736 2.20233e-19)
(6.96152 0.0236504 -7.69108e-19)
(7.25242 0.13672 -1.37822e-19)
(7.51266 0.236285 4.05647e-19)
(7.67332 0.44082 0)
(7.75525 0.603721 1.9623e-18)
(7.60231 0.827695 4.61772e-18)
(7.4609 0.997037 -5.19689e-18)
(6.82372 1.14883 4.5643e-18)
(6.2326 1.2383 0)
(5.24029 1.30344 -3.17342e-18)
(4.35204 1.32964 0)
(3.3947 1.33825 3.22564e-18)
(2.49509 1.35199 8.74777e-18)
(1.8544 1.34203 0)
(1.37181 1.35221 1.74876e-18)
(1.20868 1.27159 -2.09507e-18)
(1.30315 1.16512 -5.57735e-20)
(1.30389 1.03899 1.54804e-19)
(1.42392 0.962581 -9.87032e-20)
(1.65098 1.00913 -8.32847e-20)
(2.292 1.17433 2.73263e-20)
(3.06395 1.32847 0)
(3.89483 1.38716 0)
(4.53354 1.30632 4.75438e-19)
(4.90727 1.12459 4.31181e-19)
(5.10672 0.930022 5.59836e-20)
(5.20337 0.755817 1.54008e-18)
(5.29445 0.618744 1.32709e-18)
(5.3552 0.508958 -6.83318e-19)
(5.41864 0.415511 2.40225e-20)
(5.44803 0.337419 -5.04111e-19)
(5.48166 0.269936 1.02173e-18)
(5.4938 0.212629 -4.51972e-19)
(5.51532 0.163062 -4.20864e-19)
(5.52215 0.119382 0)
(5.57568 0.166064 -1.69697e-18)
(5.63288 0.191181 -8.73611e-19)
(5.68908 0.202842 0)
(5.74298 0.202616 -9.49453e-19)
(5.79338 0.193066 -9.82107e-19)
(5.841 0.176793 0)
(5.8856 0.15624 -4.82295e-19)
(5.9263 0.131945 8.74312e-19)
(5.96235 0.10444 -8.71947e-19)
(5.99384 0.0749069 -7.16191e-19)
(6.02163 0.0445528 3.61565e-20)
(6.04483 0.0164736 2.96018e-19)
(6.0571 -0.00514048 -2.06547e-19)
(6.04306 -0.00890799 -6.84433e-19)
(5.87386 0.0601754 4.14607e-19)
(4.93858 -0.0332701 0)
(5.53475 0.0802584 1.15898e-18)
(5.56924 0.122593 8.87493e-19)
(5.61299 0.148205 5.04725e-19)
(5.65819 0.163478 4.59011e-19)
(5.70324 0.169311 1.99556e-18)
(5.74639 0.167268 -5.06748e-19)
(5.78774 0.159061 5.11925e-19)
(5.82814 0.145864 -5.18422e-19)
(5.86789 0.128691 1.02455e-18)
(5.90638 0.10843 0)
(5.94272 0.0847855 4.23101e-19)
(5.97626 0.0582695 -4.14197e-19)
(6.00547 0.0302363 6.99402e-19)
(6.02439 0.000600778 -3.17236e-19)
(6.02256 -0.0241533 -7.91786e-19)
(5.89184 -0.0268432 6.90801e-19)
(4.92746 -0.0670525 0)
(5.5408 0.045626 -4.24931e-19)
(5.5682 0.084601 1.42192e-20)
(5.60128 0.11002 1.40119e-18)
(5.63718 0.126498 -1.47623e-18)
(5.67445 0.135321 -1.56463e-18)
(5.71123 0.137298 5.40182e-19)
(5.74696 0.133632 0)
(5.78217 0.125232 0)
(5.81798 0.113367 -5.45144e-19)
(5.8548 0.0987402 0)
(5.89175 0.0809707 0)
(5.92668 0.0603462 9.37952e-19)
(5.95619 0.0375689 -4.40737e-19)
(5.97207 0.0139656 3.65035e-19)
(5.95439 -0.0092619 -8.35211e-20)
(5.85871 -0.0194031 -5.25393e-19)
(4.88941 -0.0567817 5.13999e-19)
(5.55422 0.0182273 0)
(5.56868 0.051972 0)
(5.59232 0.0762117 -9.72921e-19)
(5.61921 0.0936045 1.03038e-18)
(5.64865 0.104748 5.29205e-19)
(5.67905 0.11017 -5.51495e-19)
(5.70964 0.11062 5.61084e-19)
(5.74035 0.106533 0)
(5.77196 0.0987725 0)
(5.80537 0.0880822 0)
(5.84019 0.0748514 5.57406e-19)
(5.874 0.0586296 -5.48233e-19)
(5.90219 0.0396047 -5.17787e-19)
(5.91717 0.0176606 0)
(5.90425 -0.00460809 3.96492e-19)
(5.8243 -0.0149179 0)
(4.86338 -0.0478489 -2.32507e-19)
(5.5636 -0.008 -1.12174e-18)
(5.57292 0.023147 0)
(5.58841 0.0463829 0)
(5.60722 0.0635847 0)
(5.62892 0.0757844 -5.24636e-19)
(5.65255 0.0833063 0)
(5.67768 0.0866796 -1.18373e-18)
(5.70412 0.0861136 1.20305e-18)
(5.73193 0.0820257 0)
(5.76148 0.0749246 -6.18796e-19)
(5.7925 0.0654946 1.04119e-20)
(5.82295 0.0540334 6.11209e-19)
(5.84832 0.0401617 -1.67117e-20)
(5.86125 0.0227285 2.71529e-19)
(5.84836 0.00458891 -2.60105e-19)
(5.77567 -0.00859009 -4.90387e-19)
(4.83568 -0.0321445 -3.94295e-19)
(5.58007 -0.0252246 4.12342e-19)
(5.58056 -0.000122029 8.37206e-19)
(5.58902 0.0207065 -4.54476e-19)
(5.60061 0.0373334 -5.17919e-19)
(5.61513 0.0500554 5.70387e-19)
(5.63192 0.0587911 5.57906e-19)
(5.65106 0.0640116 0)
(5.67267 0.0661681 -6.32748e-19)
(5.69674 0.0652584 0)
(5.72284 0.0612184 -9.73714e-19)
(5.75 0.0546907 3.32789e-19)
(5.77607 0.0464456 3.26219e-19)
(5.79708 0.0362913 9.5552e-19)
(5.80603 0.0238108 -6.11276e-19)
(5.79072 0.00996214 -2.95152e-19)
(5.72023 -0.00348692 2.56838e-19)
(4.8041 -0.018724 -5.42087e-19)
(5.59285 -0.0426794 3.67807e-19)
(5.59135 -0.0203694 1.82123e-19)
(5.59423 -0.00109008 -1.87522e-19)
(5.59968 0.0143019 7.43265e-19)
(5.6079 0.0268512 8.14909e-19)
(5.61849 0.0362924 -5.91993e-19)
(5.63164 0.0429054 3.05351e-19)
(5.64776 0.0467931 -6.32603e-19)
(5.66716 0.0480511 3.2657e-19)
(5.68917 0.047044 3.33747e-19)
(5.71224 0.0440048 6.83712e-19)
(5.7337 0.0385332 -3.43724e-19)
(5.74962 0.031273 3.45172e-19)
(5.75385 0.0227241 -1.02202e-18)
(5.73477 0.0119838 -1.65855e-19)
(5.66094 0.00111687 7.9477e-19)
(4.77194 -0.00368779 6.03423e-19)
(5.61127 -0.0510793 -3.99249e-19)
(5.60406 -0.0352211 -6.60541e-19)
(5.60285 -0.0188696 7.04868e-19)
(5.60353 -0.00510908 -9.94706e-19)
(5.60665 0.00674571 -5.53825e-19)
(5.61209 0.0162501 0)
(5.62011 0.0235648 -3.03058e-19)
(5.63098 0.0286581 6.28697e-19)
(5.64537 0.0315948 -6.56274e-19)
(5.6625 0.0325229 -9.52605e-21)
(5.68081 0.0316407 -3.45406e-19)
(5.69743 0.0290069 7.13389e-19)
(5.70828 0.0252288 -7.15436e-19)
(5.70753 0.0199352 1.82792e-19)
(5.68361 0.0117132 -1.75669e-19)
(5.60323 0.00559862 -4.39501e-19)
(4.74132 0.00977593 -2.60359e-19)
(5.62564 -0.0601408 1.95192e-19)
(5.61827 -0.0464523 -5.93467e-19)
(5.6139 -0.0325436 0)
(5.61104 -0.0207166 9.72069e-19)
(5.61026 -0.0100318 -7.62286e-19)
(5.61161 -0.000988045 -9.76459e-21)
(5.61559 0.00634913 7.15702e-19)
(5.62215 0.0120547 -3.07122e-19)
(5.63198 0.0161628 -3.64385e-21)
(5.6445 0.0186984 1.65953e-19)
(5.65799 0.0196701 1.81665e-19)
(5.66968 0.0190067 -1.88357e-19)
(5.67571 0.0175386 5.44287e-19)
(5.67029 0.0153929 1.84941e-19)
(5.6407 0.00998707 3.78295e-19)
(5.54944 0.00500015 3.76541e-19)
(4.71557 0.0166954 3.7604e-19)
(5.64414 -0.0603351 1.73353e-19)
(5.63324 -0.0529349 6.35957e-19)
(5.62674 -0.0419711 -2.12796e-19)
(5.62137 -0.0321964 -6.15278e-19)
(5.61779 -0.0230158 1.01863e-18)
(5.61588 -0.0148842 -2.66748e-19)
(5.61549 -0.00785307 -2.9836e-19)
(5.62 -0.00201835 -1.37962e-19)
(5.62585 0.00255884 0)
(5.63435 0.00603124 0)
(5.64364 0.00828216 1.69999e-19)
(5.65113 0.00915908 3.25173e-21)
(5.65353 0.00947035 -5.47164e-19)
(5.64563 0.0101499 0)
(5.61455 0.00833649 0)
(5.4941 0.00391372 -4.12929e-19)
(4.70341 0.0222077 4.76814e-20)
(5.65906 -0.0617604 -2.85474e-19)
(5.64909 -0.0550709 -9.53824e-20)
(5.64086 -0.0471281 -1.10484e-19)
(5.6338 -0.0395459 -1.07855e-19)
(5.62839 -0.0321412 -2.54015e-19)
(5.62472 -0.0252326 0)
(5.6229 -0.018806 6.84989e-20)
(5.62312 -0.0131845 1.53748e-19)
(5.62598 -0.00853834 3.54993e-19)
(5.63099 -0.00465283 2.94392e-19)
(5.63663 -0.0015608 8.08152e-20)
(5.64057 0.000276894 2.35155e-19)
(5.64069 0.00160217 8.64515e-20)
(5.63363 0.00451381 -1.76267e-19)
(5.61008 0.00531168 8.9586e-20)
(5.43531 0.00167759 3.78808e-19)
(4.71301 0.0249961 0)
(5.67632 -0.0545799 9.44323e-20)
(5.66513 -0.0535518 9.63852e-20)
(5.65613 -0.0479896 0)
(5.64784 -0.0428002 2.31993e-19)
(5.64103 -0.0371441 2.98736e-20)
(5.63586 -0.0316215 -3.00408e-20)
(5.63242 -0.0263284 2.46187e-19)
(5.63089 -0.0214091 2.5635e-19)
(5.63141 -0.0169961 -2.81606e-19)
(5.63373 -0.0129836 -5.86793e-19)
(5.63662 -0.00944253 0)
(5.63831 -0.00705977 -3.2284e-19)
(5.63743 -0.00479521 -2.01714e-20)
(5.63194 -0.000588094 2.03543e-20)
(5.61317 0.000469047 2.12504e-20)
(5.38953 -0.00207791 -3.23477e-20)
(4.74284 0.0244738 1.10365e-20)
(5.6884 -0.0473021 4.85845e-20)
(5.68001 -0.0459743 -5.67087e-20)
(5.67128 -0.0436742 0)
(5.66267 -0.0407767 2.25477e-19)
(5.65506 -0.0374681 -1.20495e-20)
(5.64892 -0.0338207 -1.67956e-20)
(5.64441 -0.0298463 -2.39532e-19)
(5.64171 -0.025898 -2.63518e-19)
(5.64086 -0.0221935 -1.25541e-19)
(5.64151 -0.0185065 2.47103e-19)
(5.64282 -0.0150517 -7.6485e-22)
(5.64356 -0.012363 1.71985e-19)
(5.6421 -0.00923608 0)
(5.63571 -0.00490038 -1.90133e-20)
(5.61459 -0.0044532 1.66417e-19)
(5.37991 -0.00500926 0)
(4.78536 0.0203072 -1.56623e-19)
(5.69843 -0.0353481 4.79187e-20)
(5.69148 -0.036862 -4.18295e-19)
(5.68438 -0.0359914 -2.03213e-19)
(5.67668 -0.0348712 2.0288e-20)
(5.66928 -0.03323 -2.46709e-19)
(5.66286 -0.0312158 -5.78966e-20)
(5.65779 -0.02895 5.75996e-20)
(5.65433 -0.026571 -1.16985e-19)
(5.65261 -0.0239705 1.27532e-19)
(5.65245 -0.0209049 -6.3495e-20)
(5.65328 -0.0178845 6.35787e-20)
(5.65378 -0.0153132 -3.29581e-19)
(5.65194 -0.0119897 1.34012e-19)
(5.64424 -0.00802378 -1.99664e-19)
(5.61936 -0.00750478 -1.10861e-19)
(5.39864 -0.00683935 1.01058e-19)
(4.83563 0.0162967 1.54772e-19)
(5.70367 -0.0219384 0)
(5.69874 -0.0238448 2.16109e-19)
(5.69324 -0.0251168 2.19761e-19)
(5.68701 -0.0253852 -2.23402e-19)
(5.68066 -0.0250951 1.70186e-19)
(5.67494 -0.0244709 5.60472e-20)
(5.67022 -0.0235719 -1.15822e-19)
(5.66678 -0.0224184 1.16502e-19)
(5.66491 -0.0210753 1.16105e-19)
(5.66459 -0.0196892 0)
(5.66543 -0.0177519 2.39364e-19)
(5.66619 -0.0160021 1.27414e-19)
(5.6648 -0.0133611 -1.83749e-19)
(5.65694 -0.00997907 3.13521e-19)
(5.62908 -0.00928217 0)
(5.43217 -0.00842686 -1.33145e-19)
(4.8918 0.0122176 0)
(5.70642 -0.00659476 2.83977e-20)
(5.7018 -0.00957381 0)
(5.69733 -0.0114571 1.55894e-21)
(5.69221 -0.0131465 1.15274e-19)
(5.68681 -0.0142669 0)
(5.68186 -0.0149462 0)
(5.6778 -0.0151946 1.17228e-19)
(5.67484 -0.0150776 2.42001e-21)
(5.67331 -0.0147038 1.17029e-19)
(5.67348 -0.0140842 1.70792e-21)
(5.67478 -0.0132331 -3.21286e-22)
(5.67598 -0.012414 2.33886e-19)
(5.67548 -0.0114175 -1.74517e-19)
(5.6701 -0.00921053 -1.19056e-19)
(5.64101 -0.00901257 0)
(5.46969 -0.0102211 0)
(4.95111 0.00945943 5.86935e-20)
(5.70649 0.0130558 4.55101e-21)
(5.70208 0.00871935 0)
(5.69809 0.00521237 7.28744e-21)
(5.69359 0.00224913 -1.25779e-19)
(5.68862 -0.00010518 2.46396e-19)
(5.68393 -0.00203765 -1.20989e-19)
(5.6801 -0.00359623 -6.21015e-20)
(5.67737 -0.0048413 -1.17791e-19)
(5.67594 -0.00580786 0)
(5.67631 -0.00647575 -1.76218e-19)
(5.67815 -0.00690925 -1.15224e-19)
(5.67984 -0.00740799 -1.14405e-19)
(5.68003 -0.00773749 5.68197e-20)
(5.67781 -0.00642093 0)
(5.65204 -0.00642855 -5.60891e-20)
(5.50176 -0.013114 1.12607e-19)
(5.00773 0.0102558 -1.1305e-19)
(5.70438 0.0296466 -1.38081e-19)
(5.69974 0.0256513 0)
(5.69575 0.0226203 -1.32833e-19)