/*--------------------------------*- C++ -*----------------------------------*\
  =========                 |
  \\      /  F ield         | OpenFOAM: The Open Source CFD Toolbox
   \\    /   O peration     | Website:  https://openfoam.org
    \\  /    A nd           | Version:  6
     \\/     M anipulation  |
\*---------------------------------------------------------------------------*/
FoamFile
{
    version     2.0;
    format      ascii;
    class       volScalarField;
    location    "1.66";
    object      epsilon;
}
// * * * * * * * * * * * * * * * * * * * * * * * * * * * * * * * * * * * * * //

dimensions      [0 2 -3 0 0 0 0];

internalField   nonuniform List<scalar> 
4214
(
0.126649
0.0467888
0.02097
0.0126625
0.0101595
0.00964819
0.00995878
0.0108746
0.0126018
0.0156296
0.0207633
0.0292365
0.04292
0.0645052
0.098077
0.150278
0.235018
0.386774
0.675878
0.908853
0.892301
0.776451
0.530286
0.355119
0.244188
0.167289
0.11269
0.0747188
0.0492349
0.0327874
0.0225504
0.016384
0.0128002
0.0108119
0.00980868
0.00950672
0.0100808
0.0126959
0.021224
0.0476
0.129134
0.0197821
0.0125697
0.010124
0.00941275
0.00936335
0.00964335
0.0102393
0.0113273
0.0132702
0.0166545
0.022401
0.0319033
0.0472688
0.0714765
0.109008
0.1672
0.261828
0.432605
0.753024
0.996452
0.981891
0.879049
0.612319
0.409772
0.281483
0.19273
0.129589
0.0855112
0.0558623
0.0367289
0.0248599
0.0177364
0.0136099
0.0113082
0.0100827
0.00946642
0.0092217
0.00933114
0.01012
0.0126783
0.0201046
0.0100433
0.00940579
0.00925982
0.00933648
0.00955633
0.00994544
0.0106278
0.0118482
0.0140289
0.0178328
0.0243025
0.0350069
0.0523059
0.0794826
0.121471
0.186407
0.292201
0.483505
0.837539
1.09831
1.07876
0.995032
0.70921
0.476092
0.326302
0.223201
0.149885
0.0985378
0.0639042
0.0415194
0.0276496
0.0193503
0.0145624
0.0118981
0.0104798
0.00974867
0.00938133
0.00921119
0.00919358
0.00940003
0.0100967
0.00961287
0.00945795
0.00949424
0.0096371
0.00988907
0.0103178
0.0110798
0.0124572
0.0149303
0.0192463
0.0265873
0.0387146
0.058261
0.0888352
0.135864
0.208397
0.326883
0.542678
0.933335
1.21837
1.19368
1.13354
0.826636
0.557131
0.380462
0.259985
0.174538
0.114503
0.0738569
0.0474991
0.03115
0.0213721
0.0157449
0.0126184
0.0109608
0.0101129
0.00969141
0.0094842
0.0093992
0.00942306
0.00963326
0.00980705
0.00975695
0.00982549
0.0099809
0.0102526
0.0107298
0.0115988
0.0131842
0.016037
0.0210027
0.0294278
0.0432835
0.0655009
0.100031
0.15284
0.233989
0.366838
0.609458
1.03993
1.35388
1.32202
1.29362
0.968081
0.656544
0.446793
0.305073
0.205026
0.134477
0.086472
0.0551693
0.0356804
0.0239932
0.0172651
0.0135206
0.0115377
0.0105288
0.0100383
0.00980533
0.00970692
0.00969847
0.00980434
0.0101282
0.0101078
0.0101866
0.0103539
0.0106571
0.0112073
0.0122293
0.0141003
0.0174608
0.0232737
0.0330825
0.0490892
0.0745535
0.113775
0.173314
0.264323
0.413489
0.685114
1.15987
1.50499
1.46718
1.48016
1.13956
0.778529
0.529141
0.361164
0.243363
0.159952
0.102821
0.0652596
0.0417208
0.0275155
0.0193095
0.0147159
0.0122756
0.0110311
0.0104342
0.0101592
0.0100477
0.0100288
0.0101035
0.0104663
0.0104821
0.0105786
0.0107708
0.0111283
0.0117909
0.0130355
0.0153057
0.0193595
0.0262996
0.037914
0.056655
0.0861482
0.131031
0.19853
0.300939
0.468751
0.77253
1.29519
1.67477
1.63017
1.69597
1.34771
0.930037
0.632516
0.431912
0.29222
0.19293
0.124362
0.0787738
0.0499398
0.0323614
0.022142
0.016363
0.0132701
0.0116754
0.0109107
0.0105606
0.0104196
0.0103833
0.0104224
0.0108547
0.0109073
0.0110331
0.0112679
0.0117116
0.0125433
0.0141122
0.0169448
0.0219573
0.0304178
0.044426
0.066697
0.101277
0.153093
0.230125
0.345901
0.535214
0.874608
1.4489
1.86745
1.81319
1.94457
1.6005
1.11931
0.76291
0.522043
0.355089
0.236029
0.153035
0.0970653
0.061255
0.0391163
0.0261343
0.0186873
0.0146617
0.0125475
0.0115245
0.0110495
0.0108538
0.0107861
0.0107906
0.0113387
0.0114282
0.0115922
0.01189
0.0124655
0.0135483
0.015591
0.0192188
0.0255697
0.0360979
0.0533156
0.0801892
0.121269
0.181674
0.270242
0.401895
0.616031
0.995264
1.62486
2.08726
2.01867
2.22905
1.90689
1.35686
0.929074
0.637702
0.436498
0.292634
0.191371
0.12193
0.0769138
0.0485817
0.0318024
0.0219993
0.0166436
0.013762
0.0123491
0.0116766
0.0113936
0.01128
0.0112487
0.0119726
0.0120846
0.0122937
0.0126836
0.0134618
0.0149182
0.0176571
0.0224121
0.0306468
0.0439991
0.0655542
0.0984562
0.147903
0.219034
0.32173
0.47238
0.715818
1.1396
1.82796
2.33883
2.24981
2.55209
2.27677
1.65555
1.14232
0.787025
0.542442
0.367114
0.242678
0.155736
0.0986131
0.061856
0.0398713
0.0267301
0.0194852
0.0154711
0.0134763
0.0124949
0.0120783
0.0119039
0.0118481
0.0127579
0.0128883
0.0131643
0.0136984
0.0147964
0.01681
0.0205813
0.0269354
0.0378445
0.0550576
0.082512
0.123311
0.183578
0.268134
0.388344
0.561903
0.840219
1.31415
2.06437
2.62716
2.51078
2.91516
2.72038
2.03082
1.41697
0.981071
0.680951
0.465179
0.311329
0.201619
0.128683
0.0804543
0.051379
0.0334903
0.0235769
0.0178865
0.0150299
0.0135621
0.0129362
0.0126671
0.0125877
0.0136741
0.01384
0.0142365
0.0150042
0.0166161
0.0194588
0.0247789
0.0333966
0.0481445
0.0706197
0.106153
0.157246
0.231556
0.332882
0.475016
0.676503
0.996493
1.52676
2.34148
2.95768
2.80881
3.31647
3.24746
2.50019
1.77097
1.23464
0.86298
0.594495
0.403244
0.263749
0.170377
0.106481
0.0678499
0.0431631
0.0295122
0.0213211
0.0172018
0.014961
0.0140023
0.0135654
0.0134415
0.0147144
0.0149565
0.0155765
0.0167188
0.0191682
0.0232307
0.030915
0.0427119
0.0630567
0.0926345
0.139339
0.203692
0.296328
0.418447
0.58831
0.823899
1.19425
1.78688
2.66694
3.33662
3.15496
3.75349
3.86591
3.08202
2.2266
1.56714
1.10386
0.765575
0.526716
0.347719
0.228336
0.142859
0.0915806
0.0570424
0.0382314
0.0262536
0.0203148
0.0168318
0.0153524
0.0146105
0.0143965
0.0159127
0.0162906
0.0173228
0.0190448
0.0228898
0.0287039
0.0400987
0.0562692
0.0849676
0.123908
0.186306
0.267302
0.384155
0.53163
0.737074
1.01391
1.44568
2.10636
3.04948
3.77243
3.56061
4.23385
4.58258
3.79563
2.80944
2.00357
1.4253
0.992969
0.693847
0.461014
0.309374
0.193598
0.126122
0.0770129
0.0512834
0.0334205
0.0249371
0.019414
0.01715
0.0158512
0.0154766
0.0173506
0.0179404
0.0197556
0.0223182
0.0285865
0.0367774
0.0542566
0.0761278
0.117758
0.168349
0.25343
0.354143
0.503951
0.681143
0.93355
1.25856
1.76623
2.4985
3.49759
4.27733
4.03963
4.77336
5.40166
4.6588
3.54699
2.57441
1.85839
1.29644
0.923141
0.613412
0.423876
0.26397
0.177129
0.105717
0.0713112
0.0439224
0.0321037
0.0230953
0.0197308
0.0173878
0.0167587
0.0191926
0.0200647
0.0234623
0.0270521
0.037824
0.0487514
0.0769028
0.105114
0.167975
0.230922
0.350637
0.471391
0.669141
0.87729
1.19569
1.57042
2.17544
2.97099
4.00392
4.84641
4.55321
5.35811
6.28693
5.66873
4.46313
3.31107
2.44917
1.70063
1.24486
0.816692
0.588635
0.36019
0.253988
0.146469
0.103021
0.0592499
0.0437906
0.0284373
0.0237918
0.0193861
0.0184215
0.0218425
0.0228829
0.0297698
0.0338598
0.053871
0.0660917
0.11492
0.14622
0.247395
0.316332
0.494708
0.62544
0.902762
1.12907
1.55318
1.9548
2.69878
3.50292
4.49619
5.34953
4.43361
5.72453
7.0277
6.7305
5.5525
4.22539
3.27
2.22762
1.71356
1.08164
0.833603
0.487337
0.373447
0.202145
0.155355
0.0808452
0.0640285
0.036026
0.0308639
0.0220531
0.0209015
0.0189733
0.0176268
0.0164286
0.0153502
0.0143597
0.0134368
0.0125854
0.0118445
0.0112634
0.0108595
0.0105559
0.0103382
0.0101183
0.0102419
0.011962
0.0411982
0.387376
0.018968
0.0177442
0.0166735
0.0156968
0.0147796
0.0139041
0.0130758
0.0123326
0.0117273
0.0113069
0.0110328
0.0109327
0.0108612
0.0112794
0.0135563
0.0472727
0.445485
0.0189256
0.0179173
0.0169763
0.0160832
0.0152239
0.0143908
0.0135925
0.0128641
0.0122552
0.0118201
0.0115618
0.0115601
0.0117062
0.0126054
0.0159646
0.0573852
0.499277
0.0191298
0.0182284
0.0173579
0.016519
0.0157033
0.0149074
0.0141405
0.0134331
0.0128264
0.0123754
0.0121171
0.012187
0.0125869
0.0141753
0.0194651
0.0727743
0.559757
0.019495
0.018619
0.0177921
0.0169937
0.0162134
0.0154513
0.0147193
0.014042
0.0134492
0.012989
0.0127179
0.0128108
0.0134313
0.0158238
0.0241968
0.0944885
0.62783
0.019797
0.0190368
0.0182667
0.0175049
0.0167557
0.0160263
0.0153314
0.0146892
0.014119
0.0136605
0.0133777
0.0134635
0.0142293
0.0173523
0.029957
0.122841
0.705579
0.0203558
0.019554
0.0187954
0.018056
0.0173331
0.0166366
0.0159809
0.0153774
0.0148376
0.0143926
0.0141082
0.0141787
0.0150215
0.0186643
0.0360847
0.15729
0.794485
0.0207274
0.0200543
0.0193494
0.0186415
0.017948
0.0172871
0.0166725
0.0161101
0.0156057
0.0151848
0.0149135
0.0149818
0.0158687
0.0198305
0.0416286
0.194621
0.89578
0.02142
0.020671
0.0199618
0.0192711
0.0186067
0.0179845
0.0174127
0.0168922
0.0164261
0.0160375
0.0157931
0.0158795
0.0168136
0.0209561
0.0456815
0.228816
1.00869
0.0218574
0.0212496
0.0205943
0.0199386
0.0193129
0.0187348
0.018208
0.0177297
0.0173034
0.0169522
0.0167457
0.01687
0.0178697
0.0220954
0.0478774
0.253276
1.12877
0.0226672
0.0219587
0.0212924
0.0206601
0.0200756
0.0195453
0.0190651
0.0186297
0.0182436
0.0179331
0.0177728
0.0179516
0.0190384
0.0233365
0.048957
0.26513
1.2493
0.0231761
0.0226195
0.0220147
0.0214321
0.0209005
0.0204226
0.0199902
0.0195981
0.0192537
0.0189872
0.0188792
0.0191253
0.0203227
0.024724
0.0496077
0.265264
1.36508
0.0240945
0.0234226
0.0228168
0.0222757
0.0217989
0.0213745
0.0209902
0.0206424
0.0203417
0.0201216
0.0200714
0.0203955
0.0217284
0.0262886
0.0503324
0.257387
1.47464
0.0246859
0.0241829
0.0236601
0.0231892
0.0227765
0.0224081
0.0220728
0.0217705
0.0215159
0.0213464
0.0213601
0.0217706
0.0232617
0.0280425
0.0514187
0.247942
1.57634
0.0257062
0.0250969
0.0246015
0.024193
0.0238434
0.0235308
0.0232457
0.0229914
0.0227862
0.0226724
0.0227571
0.0232662
0.02494
0.029998
0.0530404
0.239844
1.66889
0.0264036
0.0259951
0.0256094
0.0252853
0.0250034
0.0247487
0.0245164
0.0243142
0.0241638
0.0241122
0.0242764
0.0248966
0.0267792
0.0321714
0.0554074
0.233521
1.74944
0.0275255
0.0270566
0.0267305
0.0264806
0.0262642
0.0260696
0.0258944
0.0257504
0.0256615
0.0256801
0.0259332
0.0266794
0.0287942
0.0345883
0.058528
0.228064
1.81416
0.0283745
0.0281475
0.0279401
0.0277769
0.0276302
0.0275009
0.02739
0.0273124
0.0272938
0.0273923
0.0277453
0.0286338
0.0310037
0.0372672
0.0620223
0.225734
1.85923
0.0296091
0.0293988
0.0292659
0.0291833
0.0291093
0.0290532
0.0290153
0.029014
0.0290762
0.0292675
0.0297337
0.0307826
0.0334291
0.0402339
0.0659276
0.227893
1.88482
0.0306876
0.0307205
0.0306925
0.030701
0.0307095
0.0307379
0.0307854
0.0308725
0.0310287
0.0313262
0.0319197
0.0331513
0.0360987
0.0435314
0.0705254
0.232371
1.88716
0.0320621
0.0321776
0.032237
0.0323407
0.0324437
0.0325702
0.0327176
0.0329085
0.0331749
0.0335951
0.0343327
0.035767
0.0390323
0.0471792
0.0758105
0.239125
1.86349
0.0334857
0.0337249
0.0338977
0.0341112
0.0343262
0.0345669
0.0348324
0.0351457
0.0355423
0.0361054
0.0370088
0.0386733
0.0422902
0.0512443
0.0819001
0.249204
1.81793
0.0350315
0.035392
0.0356922
0.0360294
0.0363751
0.0367495
0.0371547
0.0376134
0.0381646
0.0388955
0.0399923
0.0419156
0.0459237
0.0557512
0.088637
0.258188
1.75976
0.0366992
0.0371754
0.0376234
0.0381088
0.0386091
0.0391417
0.0397122
0.0403434
0.0410762
0.0420009
0.0433137
0.0455028
0.049878
0.060465
0.0950458
0.26472
1.6939
0.0384635
0.039106
0.0397187
0.0403722
0.0410521
0.0417725
0.0425402
0.0433777
0.044327
0.0454789
0.0470371
0.0495041
0.054225
0.065413
0.101062
0.268574
1.62313
0.0403708
0.0411749
0.0419838
0.0428402
0.0437333
0.0446772
0.0456811
0.0467673
0.0479777
0.049402
0.0512459
0.0540147
0.059063
0.0706786
0.106733
0.269872
1.54973
0.0423993
0.0434228
0.0444512
0.0455404
0.0466849
0.0478963
0.049185
0.0505732
0.0521027
0.0538607
0.056048
0.0591625
0.0645408
0.0764352
0.112258
0.26968
1.47547
0.0445973
0.0458411
0.0471335
0.0485018
0.0499454
0.0514777
0.0531112
0.0548691
0.0567927
0.0589658
0.0615805
0.0651157
0.0708674
0.0829796
0.118165
0.268923
1.40165
0.0469436
0.0484752
0.0500655
0.0517589
0.0535583
0.055477
0.0575304
0.0597432
0.0621578
0.0648547
0.0680154
0.0720899
0.0783163
0.0906599
0.124969
0.268471
1.32911
0.0494857
0.0513205
0.0532691
0.0553504
0.0575748
0.0599602
0.0625265
0.0653024
0.0683332
0.071698
0.0755677
0.0803589
0.0872307
0.0999066
0.13325
0.268807
1.25838
0.0522119
0.0544256
0.0567834
0.0593211
0.0620542
0.065005
0.0682005
0.0716764
0.0754845
0.0797071
0.0845084
0.0902726
0.0980626
0.111318
0.143758
0.2709
1.18985
0.0551546
0.0577927
0.06064
0.0637219
0.0670656
0.0707034
0.0746734
0.0790234
0.0838171
0.0891484
0.0951824
0.102279
0.111403
0.125674
0.157545
0.276049
1.12377
0.0583251
0.0614718
0.0648843
0.0686111
0.0726892
0.0771645
0.0820917
0.0875378
0.0935882
0.10036
0.108035
0.116968
0.128037
0.144029
0.176064
0.286148
1.06033
0.0617491
0.0654725
0.0695588
0.0740552
0.0790193
0.0845186
0.0906334
0.0974613
0.105124
0.113779
0.123653
0.135125
0.14903
0.167837
0.201297
0.303766
0.99965
0.0654374
0.0698457
0.0747169
0.0801303
0.0861662
0.0929224
0.100517
0.109097
0.11884
0.129977
0.142816
0.157822
0.175857
0.19916
0.236106
0.332719
0.941775
0.0694164
0.0746085
0.0804131
0.0869242
0.0942608
0.102566
0.112016
0.122829
0.135278
0.149712
0.166589
0.18655
0.210625
0.241004
0.284812
0.378961
0.886721
0.073696
0.0798128
0.0867118
0.0945375
0.103458
0.113682
0.12547
0.139154
0.155153
0.174012
0.196449
0.223441
0.256424
0.297902
0.35419
0.45228
0.834458
0.0783001
0.0854808
0.0936795
0.103085
0.11394
0.126551
0.141308
0.158711
0.179416
0.204285
0.234481
0.271598
0.317911
0.376936
0.455258
0.569802
0.78491
0.0832349
0.0916622
0.101389
0.112693
0.12592
0.141517
0.160066
0.182334
0.209345
0.242491
0.283691
0.335656
0.402303
0.489516
0.606558
0.763271
0.737951
0.0885163
0.0983805
0.10992
0.123511
0.139655
0.159005
0.182436
0.211128
0.246702
0.291427
0.348543
0.422786
0.521258
0.65493
0.841047
1.09474
0.693381
0.0942419
0.0988714
0.103636
0.108516
0.113488
0.118525
0.123587
0.128638
0.133634
0.138528
0.143269
0.147804
0.152076
0.156029
0.159609
0.162764
0.165444
0.167606
0.169213
0.170238
0.170639
0.170237
0.169211
0.167602
0.165437
0.162755
0.159597
0.156013
0.152056
0.147779
0.14324
0.138494
0.133595
0.128593
0.123536
0.118467
0.113424
0.108446
0.103559
0.0987859
0.0941464
0.105769
0.110915
0.116205
0.121611
0.127115
0.132677
0.138264
0.143828
0.149327
0.154703
0.159908
0.164877
0.169556
0.173878
0.17779
0.181231
0.184152
0.186504
0.18825
0.189358
0.189789
0.189358
0.188248
0.186501
0.184147
0.181224
0.17778
0.173866
0.16954
0.164857
0.159884
0.154675
0.149293
0.143789
0.13822
0.132626
0.127059
0.121549
0.116137
0.110839
0.105685
0.11943
0.12517
0.131058
0.13707
0.143178
0.149343
0.155524
0.161675
0.167742
0.173669
0.179396
0.18486
0.189995
0.194737
0.19902
0.202785
0.205976
0.208543
0.210444
0.211647
0.21211
0.211647
0.210444
0.208542
0.205973
0.202781
0.199013
0.194728
0.189983
0.184845
0.179377
0.173646
0.167714
0.161642
0.155487
0.1493
0.143129
0.137016
0.130998
0.125104
0.119359
0.135771
0.142191
0.148766
0.155472
0.162274
0.169129
0.175993
0.182811
0.189528
0.19608
0.202402
0.208426
0.21408
0.219295
0.223999
0.22813
0.231626
0.234435
0.236511
0.23782
0.238318
0.23782
0.236511
0.234434
0.231625
0.228128
0.223996
0.219289
0.214073
0.208415
0.202389
0.196063
0.189506
0.182785
0.175962
0.169094
0.162233
0.155426
0.148715
0.142136
0.135711
0.155505
0.162714
0.170081
0.177587
0.185189
0.192838
0.200483
0.208067
0.215526
0.222792
0.229793
0.236454
0.242698
0.248449
0.253631
0.258175
0.262016
0.265097
0.267371
0.2688
0.269337
0.268801
0.267372
0.265099
0.262017
0.258175
0.25363
0.248447
0.242694
0.236448
0.229785
0.222781
0.215511
0.208048
0.20046
0.19281
0.185156
0.17755
0.17004
0.162669
0.155456
0.179596
0.187722
0.196012
0.204442
0.212968
0.221532
0.230079
0.238542
0.246853
0.254935
0.262711
0.270098
0.277013
0.283374
0.289097
0.29411
0.298342
0.301731
0.304228
0.305791
0.306374
0.305792
0.30423
0.301734
0.298345
0.294113
0.2891
0.283375
0.277014
0.270097
0.262708
0.25493
0.246844
0.23853
0.230063
0.221512
0.212943
0.204414
0.195981
0.187688
0.179557
0.209359
0.218561
0.227926
0.237431
0.247027
0.25665
0.266235
0.275712
0.285001
0.29402
0.302682
0.310898
0.318578
0.325631
0.33197
0.337513
0.342187
0.345926
0.348673
0.350389
0.351021
0.35039
0.348676
0.345929
0.342192
0.337519
0.331975
0.325636
0.318582
0.310901
0.302684
0.29402
0.284998
0.275706
0.266226
0.256637
0.247011
0.237412
0.227904
0.218537
0.209332
0.246628
0.257093
0.267714
0.278474
0.289314
0.300162
0.310947
0.321591
0.332006
0.342099
0.351774
0.360937
0.369486
0.377328
0.384363
0.390508
0.395682
0.399813
0.402844
0.40473
0.405419
0.404732
0.402848
0.399818
0.395688
0.390516
0.384372
0.377336
0.369494
0.360944
0.351781
0.342103
0.332008
0.321591
0.310944
0.300156
0.289305
0.278463
0.267702
0.257079
0.246611
0.293998
0.305949
0.318043
0.330266
0.342553
0.354821
0.366992
0.378979
0.390685
0.402007
0.412841
0.42308
0.432617
0.44135
0.449174
0.455997
0.461733
0.466307
0.469655
0.471732
0.472483
0.471734
0.469659
0.466312
0.46174
0.456006
0.449185
0.441361
0.432628
0.42309
0.412851
0.402016
0.390691
0.378983
0.366995
0.354822
0.342551
0.330263
0.318039
0.305943
0.29399
0.355229
0.368926
0.382744
0.396673
0.410638
0.424549
0.438314
0.451839
0.465019
0.477741
0.489888
0.501345
0.511996
0.521732
0.53044
0.53802
0.544384
0.54945
0.553152
0.55544
0.55626
0.555442
0.553156
0.549456
0.544392
0.538031
0.530451
0.521745
0.512009
0.501358
0.4899
0.477752
0.465028
0.451847
0.438321
0.424554
0.410643
0.396676
0.382747
0.368928
0.35523
0.435903
0.451639
0.467461
0.483364
0.499263
0.515054
0.530637
0.545907
0.560752
0.575046
0.588664
0.601481
0.613371
0.624217
0.6339
0.642316
0.649368
0.654973
0.659061
0.66158
0.662474
0.661582
0.659065
0.654979
0.649376
0.642326
0.633912
0.624231
0.613385
0.601496
0.588678
0.575058
0.560763
0.545918
0.530648
0.515064
0.499272
0.483373
0.46747
0.451647
0.43591
0.544525
0.562611
0.580729
0.598878
0.616962
0.634868
0.652482
0.669689
0.68637
0.70239
0.717613
0.731908
0.745136
0.757176
0.767905
0.777211
0.784996
0.791173
0.795668
0.798429
0.799401
0.798431
0.795672
0.791179
0.785005
0.777222
0.767917
0.757191
0.745149
0.731922
0.717626
0.702403
0.686382
0.669701
0.652494
0.63488
0.616974
0.598889
0.580741
0.562622
0.544536
0.694472
0.71518
0.73584
0.75645
0.77691
0.797097
0.816885
0.836145
0.854758
0.872579
0.889462
0.905276
0.919873
0.933123
0.944906
0.955106
0.963622
0.970365
0.975263
0.978262
0.979308
0.978263
0.975266
0.97037
0.963629
0.955115
0.944917
0.933137
0.919883
0.905288
0.889474
0.87259
0.85477
0.836157
0.816897
0.79711
0.776922
0.756463
0.735853
0.715193
0.694484
0.90753
0.930962
0.954213
0.977302
1.00012
1.02254
1.04444
1.06566
1.08609
1.10558
1.12398
1.14117
1.15699
1.17131
1.18401
1.19498
1.20412
1.21135
1.21658
1.21978
1.22088
1.21978
1.21658
1.21135
1.20413
1.19499
1.18402
1.17132
1.157
1.14118
1.12399
1.10559
1.0861
1.06567
1.04445
1.02255
1.00013
0.977314
0.954225
0.930973
0.907541
1.22064
1.2464
1.27174
1.29678
1.32139
1.34546
1.36886
1.39143
1.41306
1.43361
1.45295
1.47093
1.48744
1.50233
1.51551
1.52686
1.53629
1.54373
1.54911
1.55238
1.55351
1.55239
1.54911
1.54374
1.5363
1.52687
1.51551
1.50234
1.48745
1.47094
1.45295
1.43362
1.41307
1.39143
1.36887
1.34547
1.3214
1.29679
1.27175
1.24641
1.22065
1.69944
1.72585
1.75136
1.77643
1.80091
1.82472
1.84774
1.86983
1.89088
1.91079
1.92944
1.94671
1.96251
1.9767
1.98923
1.99998
2.0089
2.01591
2.02097
2.02404
2.02509
2.02404
2.02097
2.01591
2.0089
1.99999
1.98923
1.9767
1.96251
1.94671
1.92945
1.91079
1.89089
1.86983
1.84774
1.82472
1.80092
1.77643
1.75137
1.72585
1.69944
2.46712
2.48918
2.50938
2.52906
2.54816
2.5666
2.5843
2.6012
2.6172
2.63225
2.64627
2.65919
2.67095
2.68148
2.69073
2.69865
2.7052
2.71034
2.71403
2.71627
2.71702
2.71627
2.71403
2.71034
2.7052
2.69866
2.69073
2.68148
2.67095
2.65919
2.64627
2.63225
2.61721
2.6012
2.58431
2.5666
2.54816
2.52906
2.50938
2.48918
2.46712
0.37954
0.0403459
0.0118432
0.0101762
0.0100765
0.0103223
0.010557
0.0108752
0.0113005
0.0119143
0.0127009
0.0136145
0.0146221
0.0157359
0.0169997
0.0184549
0.0201048
0.436172
0.0464109
0.0134252
0.0112169
0.0108246
0.0109201
0.0110292
0.0113133
0.0117514
0.0123878
0.0131778
0.0140675
0.0150219
0.0160485
0.017192
0.0185183
0.0200788
0.489087
0.0564388
0.0158265
0.0125641
0.0116881
0.0115612
0.0115614
0.0118241
0.0122731
0.0129135
0.0136883
0.0145449
0.0154484
0.0163994
0.0174287
0.0186044
0.0200378
0.549034
0.0717787
0.0193568
0.0141904
0.0126044
0.0122106
0.0121256
0.012383
0.0128454
0.0134817
0.0142328
0.0150546
0.0159138
0.0168022
0.0177291
0.0187177
0.0198138
0.617288
0.0936647
0.0242057
0.0159359
0.0134937
0.0128569
0.0127359
0.0130022
0.013472
0.0140924
0.0148103
0.0155948
0.0164182
0.0172656
0.0181361
0.0190343
0.0199697
0.695779
0.122529
0.0302263
0.0175833
0.0143322
0.013524
0.0134038
0.0136798
0.0141471
0.0147418
0.0154214
0.0161659
0.0169563
0.0177751
0.0186146
0.0194723
0.0203162
0.785846
0.158058
0.036763
0.0189953
0.0151507
0.0142465
0.0141406
0.0144181
0.0148711
0.0154325
0.0160696
0.0167716
0.0175266
0.0183174
0.0191316
0.0199776
0.0208957
0.88848
0.197176
0.0427808
0.0202106
0.0160087
0.0150526
0.0149516
0.0152167
0.0156445
0.0161677
0.0167603
0.0174186
0.0181366
0.0188961
0.0196709
0.0204418
0.0212189
1.00349
0.233813
0.0472733
0.0213599
0.0169548
0.0159521
0.015837
0.0160758
0.0164702
0.0169521
0.0174995
0.0181123
0.0187916
0.0195252
0.0202847
0.0210315
0.0216967
1.12684
0.260631
0.0496661
0.0224892
0.0180084
0.0169447
0.0167958
0.0169974
0.0173529
0.0177926
0.0182941
0.0188577
0.01949
0.020189
0.0209379
0.0217211
0.0225528
1.25156
0.273725
0.0506488
0.0236977
0.0191737
0.0180297
0.0178297
0.0179859
0.0182999
0.0186967
0.0191515
0.0196633
0.020241
0.0208884
0.0215894
0.0223091
0.0230331
1.3716
0.273981
0.0510476
0.0250454
0.020455
0.0192082
0.0189438
0.0190483
0.0193177
0.0196708
0.0200783
0.0205371
0.0210582
0.0216539
0.0223186
0.0230056
0.0236018
1.4846
0.264813
0.0514676
0.0265685
0.0218585
0.0204832
0.0201443
0.0201918
0.0204142
0.0207215
0.0210809
0.0214855
0.0219451
0.0224801
0.0231073
0.0238246
0.0246101
1.58908
0.253614
0.0522919
0.028283
0.0233887
0.0218636
0.0214415
0.0214259
0.0215974
0.0218573
0.0221679
0.0225177
0.0229121
0.0233703
0.0239152
0.0245506
0.025258
1.68373
0.244194
0.0537262
0.0302096
0.0250647
0.023364
0.0228467
0.0227613
0.0228773
0.0230867
0.0233472
0.0236426
0.0239733
0.0243563
0.0248197
0.0253732
0.0259225
1.76564
0.237086
0.0558752
0.0323623
0.026903
0.025
0.0243744
0.0242103
0.0242643
0.0244185
0.0246254
0.0248649
0.0251321
0.0254399
0.0258227
0.0263389
0.0270256
1.83109
0.231536
0.0588369
0.0347519
0.0289145
0.0267863
0.0260389
0.025787
0.0257711
0.0258634
0.0260112
0.0261912
0.026393
0.0266218
0.0268992
0.0272854
0.0278623
1.87627
0.22804
0.0623849
0.0374081
0.0311202
0.0287434
0.0278577
0.027507
0.0274116
0.0274337
0.0275146
0.0276296
0.0277635
0.0279172
0.028098
0.0283522
0.0286818
1.90104
0.229566
0.0662022
0.0403462
0.0335396
0.030893
0.0298512
0.029389
0.0292015
0.0291424
0.0291467
0.0291881
0.0292477
0.0293253
0.0294177
0.0295833
0.0298836
1.90228
0.233707
0.07069
0.0436092
0.0362003
0.0332609
0.0320405
0.0314527
0.0311595
0.0310066
0.0309223
0.0308779
0.030852
0.030845
0.0308406
0.0308909
0.0310021
1.87726
0.240101
0.0758537
0.047217
0.0391212
0.0358738
0.0344545
0.0337249
0.0333098
0.0330469
0.0328587
0.0327143
0.0325898
0.0324871
0.032384
0.032329
0.0322
1.8304
0.249873
0.0818026
0.0512358
0.0423635
0.0387759
0.0371298
0.0362367
0.0356797
0.0352869
0.0349765
0.0347137
0.0344745
0.034261
0.0340512
0.0338882
0.0336447
1.77051
0.258908
0.0884844
0.0557167
0.0459823
0.0420121
0.0401116
0.0390272
0.0383031
0.0377561
0.0373003
0.0368971
0.036524
0.0361804
0.0358445
0.0355439
0.0351941
1.70287
0.26543
0.0948659
0.060411
0.0499256
0.0455952
0.043431
0.042132
0.0412148
0.0404866
0.0398585
0.03929
0.0387594
0.0382617
0.0377767
0.0373315
0.0368663
1.63038
0.268858
0.100845
0.0653446
0.0542638
0.0495926
0.0471519
0.0456084
0.0444646
0.0435201
0.0426857
0.0419205
0.0412025
0.0405241
0.0398714
0.0392659
0.0386369
1.5554
0.270002
0.106499
0.070603
0.0590963
0.0541
0.0513582
0.0495293
0.0481133
0.0469079
0.0458251
0.0448237
0.0438817
0.0429906
0.042139
0.0413334
0.0405231
1.47975
0.269522
0.112013
0.0763591
0.0645718
0.0592454
0.0561575
0.0539849
0.0522354
0.0507111
0.0493266
0.048041
0.0468321
0.0456901
0.0446013
0.0435693
0.0425737
1.40476
0.268613
0.117917
0.0829097
0.0708984
0.0651964
0.0616868
0.0590862
0.0569213
0.0550032
0.0532494
0.0516191
0.05009
0.0486494
0.0472845
0.046002
0.0447652
1.33128
0.268119
0.124739
0.0906001
0.0783489
0.0721684
0.0681177
0.0649703
0.0622814
0.0598726
0.0576641
0.0556146
0.0536993
0.0519028
0.0502129
0.0486238
0.0471006
1.25982
0.268414
0.133043
0.0998586
0.0872652
0.0804347
0.0756649
0.0718075
0.0684506
0.0654258
0.0626549
0.0600931
0.0577118
0.0554916
0.0534147
0.0514676
0.0496389
1.19075
0.270465
0.143573
0.111282
0.0980984
0.0903444
0.0845992
0.0798093
0.0755945
0.0717929
0.0683226
0.0651323
0.0621864
0.0594581
0.0569234
0.054571
0.0523752
1.12429
0.275663
0.157392
0.12565
0.111439
0.102346
0.0952651
0.0892418
0.0839185
0.0791319
0.0747884
0.0708243
0.0671921
0.0638537
0.0607779
0.0579397
0.0552977
1.06061
0.285846
0.175949
0.144015
0.128071
0.117027
0.108108
0.100443
0.09368
0.0876375
0.0821986
0.0772783
0.0728095
0.0687376
0.0650166
0.0616039
0.0584706
0.999771
0.303543
0.201214
0.16783
0.149058
0.135174
0.123714
0.113851
0.105205
0.0975512
0.0907315
0.0846245
0.0791325
0.0741755
0.0696853
0.065609
0.0619018
0.941816
0.332573
0.23605
0.199154
0.175877
0.157859
0.142865
0.130036
0.118909
0.109176
0.100606
0.0930198
0.0862719
0.0802437
0.0748376
0.0699742
0.0655702
0.886724
0.378889
0.284774
0.240995
0.210634
0.186574
0.166624
0.149759
0.135336
0.122897
0.112095
0.102654
0.0943582
0.0870302
0.0805276
0.0747297
0.0695438
0.834448
0.452235
0.354156
0.297886
0.25642
0.223451
0.196471
0.174046
0.155198
0.139211
0.125538
0.11376
0.103547
0.0946357
0.0868178
0.0799259
0.0738324
0.7849
0.56976
0.45522
0.376909
0.317895
0.271594
0.23449
0.204306
0.179449
0.158757
0.141365
0.12662
0.114019
0.103174
0.0937789
0.0855933
0.0784111
0.737945
0.763221
0.606515
0.489482
0.402278
0.335642
0.283689
0.2425
0.209367
0.182368
0.160112
0.141575
0.12599
0.112774
0.10148
0.0917597
0.0833417
0.69338
1.09469
0.841009
0.654898
0.521232
0.422768
0.348534
0.291428
0.246715
0.211152
0.182472
0.159053
0.139714
0.123582
0.110001
0.0984735
0.0886288
0.0264505
0.0427401
0.08881
0.199317
0.423714
0.815289
1.43436
2.39605
4.03298
5.28466
6.5626
7.64373
5.27497
2.87148
1.40739
0.641963
0.270746
0.107895
0.045565
0.025361
0.0308281
0.0551858
0.121651
0.275029
0.573151
1.07762
1.8572
3.0112
4.72626
5.87449
6.91989
8.97955
6.74074
3.7938
1.8722
0.859467
0.368527
0.147162
0.0592092
0.0294877
0.0373382
0.0738812
0.16985
0.381585
0.776013
1.43171
2.43278
3.82266
5.57915
6.56751
7.35994
10.852
8.53071
5.02397
2.50667
1.15514
0.503729
0.203574
0.0794645
0.035622
0.0472446
0.102181
0.240298
0.530253
1.05197
1.91381
3.19615
4.80675
6.55263
7.20089
7.71357
12.8595
10.687
6.60603
3.3741
1.56113
0.690336
0.284497
0.109759
0.0449583
0.0626045
0.145158
0.342509
0.736573
1.43064
2.57782
4.2139
6.02904
7.66105
7.71606
7.87643
14.3544
13.0785
8.62044
4.53577
2.12144
0.94811
0.400244
0.155284
0.0594534
0.0867205
0.210262
0.489446
1.02335
1.95757
3.48595
5.56441
7.52853
9.04885
8.1239
7.85317
15.3767
15.5641
11.0421
6.12761
2.90084
1.30579
0.56512
0.223765
0.082297
0.12487
0.308251
0.699355
1.42496
2.69613
4.73138
7.20311
9.18449
10.21
8.3498
7.70893
15.946
18.1813
13.7317
8.15424
3.98719
1.80539
0.799527
0.326601
0.118703
0.18536
0.454577
0.999628
1.9899
3.71811
6.27137
9.01997
10.9336
11.2957
8.39991
7.48414
16.1582
20.4354
16.4088
10.5217
5.45345
2.50519
1.13331
0.480487
0.17714
0.281077
0.67204
1.43086
2.79193
5.04798
7.95546
10.8455
12.727
12.2479
8.29176
7.22544
16.0965
21.9042
18.7488
12.9405
7.31383
3.49711
1.61013
0.710122
0.271281
0.431982
0.996176
2.04972
3.89773
6.5581
9.57505
12.6102
14.5623
12.7889
8.15956
6.96734
15.9741
22.6867
20.6038
15.0452
9.36865
4.86379
2.29084
1.05324
0.42311
0.669915
1.48185
2.95653
5.2666
8.01359
11.0559
14.2932
15.8285
12.9462
7.99101
6.7993
15.8211
22.8743
21.967
16.6308
11.2226
6.55337
3.28067
1.5668
0.668324
1.04693
2.21334
4.19622
6.68411
9.29058
12.4471
15.6437
16.0136
12.6694
7.80677
6.77395
15.6577
22.5403
22.7109
17.7261
12.5563
8.2888
4.67281
2.33627
1.06592
1.65001
3.33555
5.666
7.92092
10.4373
13.7155
15.9905
15.4277
12.0125
7.60568
6.95303
15.4207
21.6483
22.3351
18.441
13.3369
9.60226
6.34558
3.52019
1.71322
2.63593
4.84745
7.05642
8.93077
11.5171
14.2097
15.3816
14.2572
11.1174
7.44958
7.27204
14.9869
20.2201
21.0835
18.4734
13.764
10.303
7.86994
5.17202
2.78162
4.15572
6.52054
8.17212
9.81502
12.1228
13.7074
13.9791
12.8133
10.2925
7.60086
7.76344
14.3657
18.3822
19.1664
17.497
13.969
10.5612
8.78585
7.06395
4.55577
6.12355
7.97616
8.98423
10.4059
11.8036
12.6022
12.5053
11.5531
9.80717
8.09635
8.54518
13.6306
16.3873
16.8634
15.7209
13.4259
10.6555
9.00684
8.44489
6.99094
7.94123
8.9412
9.42766
10.1826
10.944
11.3402
11.3897
10.9527
10.0541
9.22346
9.82025
13.1002
14.6555
14.6446
13.6512
12.2253
10.436
8.97358
8.86782
9.13458
9.29266
9.29949
9.20998
9.60326
10.1495
10.727
11.2428
11.4802
11.4063
11.3155
11.8493
13.3553
13.7785
13.2701
12.2153
11.0295
9.84913
8.88736
8.75578
9.68738
9.73928
9.37041
9.39629
9.7646
10.4845
11.475
12.4374
13.2751
13.9058
14.3224
14.6439
14.841
14.3571
13.3584
12.1074
10.8408
9.82363
9.19577
8.96556
9.31388
11.2868
12.9778
14.1803
15.4325
16.9094
18.6342
20.2006
21.4449
22.3129
22.8676
23.2448
23.1636
22.5008
21.2625
19.5373
17.5584
15.7848
14.2381
12.7283
10.7604
8.13084
10.1002
11.1901
8.7936
4.69332
2.27313
1.17938
0.642219
0.363426
0.214226
0.132319
0.08639
0.0600866
0.0446743
0.0354069
0.0296633
0.0259716
0.0234955
0.0217476
0.0204474
5.02285
8.58006
10.8001
5.71732
2.48962
1.15409
0.576399
0.304611
0.171056
0.102987
0.0671776
0.0477827
0.0369587
0.0307053
0.0269344
0.0245359
0.022909
0.0217268
0.0208017
0.0200339
3.08859
9.61972
8.26366
3.33439
1.32031
0.59276
0.289203
0.153815
0.0898941
0.0583917
0.0423032
0.033784
0.0290696
0.0263055
0.02456
0.0233582