/*--------------------------------*- C++ -*----------------------------------*\
  =========                 |
  \\      /  F ield         | OpenFOAM: The Open Source CFD Toolbox
   \\    /   O peration     | Website:  https://openfoam.org
    \\  /    A nd           | Version:  6
     \\/     M anipulation  |
\*---------------------------------------------------------------------------*/
FoamFile
{
    version     2.0;
    format      ascii;
    class       volScalarField;
    location    "4.68";
    object      p;
}
// * * * * * * * * * * * * * * * * * * * * * * * * * * * * * * * * * * * * * //

dimensions      [1 -1 -2 0 0 0 0];

internalField   nonuniform List<scalar> 
10000
(
0.99999
0.999994
0.999995
0.999998
0.999998
0.999999
0.999999
1
0.999999
1
0.999999
1
0.999999
1
1
1
1
1
0.999999
1
1
0.999999
1
1
0.999999
1
1
1
1
1
1
1
1
1
1
1
1
1
1
1
1.00001
1.00001
1.00002
1.00003
1.00004
1.00005
1.00007
1.00008
1.00008
1.00009
1.00011
1.00015
1.00023
1.00037
1.0006
1.00093
1.00138
1.00195
1.00264
1.00344
1.00432
1.00526
1.00622
1.00718
1.0081
1.00893
1.00964
1.01021
1.01061
1.01084
1.01087
1.01071
1.01037
1.00986
1.0092
1.00843
1.00758
1.0067
1.0058
1.00493
1.00412
1.00337
1.0027
1.00211
1.00161
1.00119
1.00085
1.00058
1.00037
1.00022
1.00012
1.00005
1.00001
0.999982
0.999972
0.99997
0.999972
0.999977
0.999982
0.999987
0.999988
0.999991
0.999995
0.999996
0.999998
0.999999
0.999999
0.999999
1
1
0.999999
1
0.999999
1
0.999999
1
1
1
0.999999
1
1
0.999998
1
1
1
0.999999
1
0.999999
1
1
1
1
1
1
1
0.999999
1
1
1
1
1.00001
1.00001
1.00002
1.00003
1.00005
1.00007
1.00008
1.0001
1.00011
1.00013
1.00017
1.00026
1.00043
1.00073
1.00119
1.00183
1.00269
1.00375
1.005
1.00642
1.00795
1.00954
1.01115
1.0127
1.01415
1.01543
1.01651
1.01734
1.0179
1.01818
1.01816
1.01783
1.01722
1.01632
1.01517
1.01382
1.01233
1.01077
1.00922
1.00774
1.00636
1.00513
1.00405
1.00313
1.00236
1.00173
1.00123
1.00084
1.00055
1.00033
1.00018
1.00008
1.00002
0.999987
0.999971
0.999966
0.999968
0.999972
0.999978
0.999983
0.999985
0.999989
0.999992
0.999996
0.999997
0.999998
0.999999
1
0.999999
1
1
1
0.999999
1
1
0.999999
1
1
0.999998
1
1
0.999997
1
1
0.999998
0.999999
1
1
1
1
1
1
1
1
1
1
1
1
1
1
1.00001
1.00001
1.00003
1.00004
1.00006
1.00008
1.00011
1.00013
1.00015
1.00019
1.00027
1.00045
1.00079
1.00136
1.0022
1.00336
1.00486
1.00667
1.00875
1.01103
1.01342
1.01584
1.0182
1.02042
1.02242
1.02414
1.02553
1.02658
1.02728
1.02762
1.0276
1.02721
1.02642
1.0252
1.02356
1.02153
1.0192
1.01672
1.01422
1.01182
1.00961
1.00765
1.00596
1.00455
1.0034
1.00247
1.00175
1.00119
1.00078
1.00048
1.00027
1.00013
1.00005
0.999997
0.999972
0.999963
0.999963
0.999967
0.999973
0.999979
0.999981
0.999986
0.99999
0.999993
0.999996
0.999998
0.999998
0.999999
1
0.999999
1
0.999998
1
0.999997
1
1
0.999995
1.00001
1
0.999992
1.00001
0.999999
0.999994
1
1
0.999997
1
1
1
0.999999
0.999999
1
1
0.999999
1
1
1
1
1
1
1.00001
1.00002
1.00003
1.00005
1.00008
1.00011
1.00014
1.00016
1.00019
1.00027
1.00043
1.00077
1.00139
1.00238
1.00384
1.00579
1.00821
1.01104
1.01416
1.01745
1.02075
1.02394
1.0269
1.02953
1.03176
1.03357
1.03496
1.03599
1.03669
1.03711
1.03727
1.03714
1.03663
1.03559
1.0339
1.03152
1.02848
1.02496
1.02124
1.01759
1.01421
1.01121
1.00864
1.00652
1.00482
1.00348
1.00244
1.00166
1.00109
1.00068
1.00039
1.0002
1.00008
1.00001
0.999975
0.99996
0.999957
0.999961
0.999967
0.999975
0.999976
0.999983
0.999987
0.999992
0.999994
0.999997
0.999998
0.999998
1
0.999996
1
0.999995
1
1
0.999992
1.00001
1
0.999989
1.00001
0.999999
0.999992
1.00001
0.999998
0.999996
1
1
0.999996
1
1
0.999999
0.999998
1
1
0.999999
0.999999
1
1
1
1
1
1.00001
1.00002
1.00003
1.00006
1.00009
1.00013
1.00017
1.0002
1.00025
1.00038
1.00067
1.00127
1.00233
1.00399
1.00634
1.00937
1.01297
1.01697
1.02113
1.02525
1.02911
1.03253
1.03539
1.03762
1.03924
1.04034
1.04103
1.04151
1.0419
1.04237
1.04296
1.04366
1.04428
1.04453
1.04404
1.04244
1.03955
1.03548
1.03061
1.02547
1.02054
1.01612
1.01235
1.00924
1.00675
1.00483
1.00337
1.00229
1.0015
1.00094
1.00055
1.00029
1.00013
1.00003
0.999981
0.999957
0.999951
0.999954
0.999961
0.999969
0.99997
0.999978
0.999984
0.999989
0.999993
0.999995
0.999997
0.999997
1
0.999998
0.999999
1
0.999994
0.999999
1.00001
0.999981
1.00001
1.00001
0.999979
1.00002
1
0.999989
1.00001
0.999999
0.999994
1.00001
0.999999
0.999996
1
1
0.999997
1
1
1
0.999998
1
1
1
1
1
1.00001
1.00002
1.00004
1.00007
1.00011
1.00016
1.0002
1.00025
1.00033
1.00055
1.00104
1.00204
1.00376
1.00638
1.00992
1.01425
1.01909
1.02407
1.02883
1.03306
1.03649
1.03895
1.04038
1.04084
1.04053
1.03974
1.03881
1.03802
1.03768
1.03802
1.03919
1.04126
1.04401
1.04698
1.04947
1.05069
1.04999
1.04702
1.04198
1.03563
1.02896
1.02275
1.01737
1.01293
1.00939
1.00667
1.00462
1.00312
1.00204
1.00129
1.00077
1.00042
1.0002
1.00007
0.999993
0.999958
0.999945
0.999946
0.999953
0.999962
0.999964
0.999972
0.99998
0.999985
0.999991
0.999993
0.999995
0.999999
0.999996
0.999998
1.00001
0.999982
1.00002
0.999982
0.999998
1.00002
0.999964
1.00003
0.999996
0.999981
1.00003
0.999989
0.999991
1.00002
0.999993
0.999996
1.00001
0.999997
0.999998
1
0.999999
0.999998
1
1
0.999998
0.999999
1
1
1
1
1.00001
1.00002
1.00005
1.00008
1.00014
1.00019
1.00024
1.0003
1.00043
1.00079
1.0016
1.00319
1.00585
1.00973
1.01469
1.02031
1.02603
1.03126
1.03554
1.0385
1.03993
1.03974
1.03807
1.03525
1.03178
1.02815
1.02489
1.0224
1.021
1.02089
1.02241
1.0258
1.03104
1.0377
1.04474
1.05096
1.05507
1.05603
1.05331
1.04734
1.03949
1.03134
1.02397
1.01783
1.01293
1.00915
1.00631
1.00425
1.00277
1.00175
1.00106
1.0006
1.0003
1.00012
1.00002
0.999964
0.999942
0.999939
0.999944
0.999954
0.999956
0.999965
0.999975
0.99998
0.999989
0.999988
0.999999
0.999989
1.00001
0.999983
1.00001
1.00001
0.999963
1.00005
0.999963
1
1.00003
0.999965
1.00003
0.999984
0.999996
1.00002
0.999979
1
1.00001
0.999987
1
1.00001
0.999996
1
1
0.999999
1
1
0.999999
0.999998
1
1
1
1
1.00001
1.00003
1.00006
1.0001
1.00016
1.00023
1.00028
1.00036
1.00057
1.00113
1.00242
1.00485
1.00877
1.01415
1.02048
1.02692
1.03257
1.03671
1.03889
1.03887
1.03658
1.0322
1.02623
1.01939
1.01246
1.00607
1.0007
0.996741
0.994346
0.993526
0.994631
0.998237
1.00495
1.01476
1.02668
1.03904
1.04984
1.05736
1.06024
1.0578
1.05092
1.04168
1.0323
1.02411
1.01751
1.0124
1.00857
1.00577
1.00377
1.00239
1.00145
1.00083
1.00044
1.0002
1.00005
0.999978
0.999943
0.999933
0.999936
0.999944
0.999947
0.999957
0.999968
0.999976
0.999984
0.999989
0.999989
1.00001
0.999969
1.00005
0.999934
1.00005
0.999993
0.999942
1.0001
0.999908
1.00004
1.00001
0.999962
1.00004
0.999976
1.00001
1.00001
0.999981
1.00001
1
0.999989
1.00001
1
0.999995
1
1
0.999999
0.999999
1
1
1
1
1
1
1.00001
1.00003
1.00006
1.00012
1.00019
1.00026
1.00033
1.00043
1.00075
1.00163
1.00358
1.00716
1.01261
1.01951
1.02672
1.03291
1.03698
1.03836
1.03683
1.0324
1.02533
1.01624
1.00616
0.99616
0.987109
0.97948
0.9734
0.968976
0.966206
0.964777
0.964574
0.9664
0.971855
0.982068
0.996983
1.01469
1.03248
1.04765
1.05819
1.0625
1.06005
1.0522
1.04189
1.03175
1.02319
1.0165
1.01145
1.00775
1.0051
1.00326
1.002
1.00117
1.00064
1.00031
1.00011
1
0.999951
0.99993
0.999928
0.999935
0.999937
0.999949
0.99996
0.999973
0.999974
0.999997
0.999968
1.00002
0.999973
0.999986
1.00007
0.999877
1.00013
0.999922
0.999997
1.00007
0.999894
1.00009
0.999951
0.999998
1.00003
0.999964
1.00002
0.999996
0.99999
1.00001
0.999991
0.999997
1.00001
0.999996
0.999996
1
1
0.999998
0.999999
1
1
1
1
1.00001
1.00001
1.00003
1.00007
1.00014
1.00022
1.0003
1.00037
1.00052
1.00101
1.00233
1.00519
1.01023
1.01735
1.02537
1.0324
1.03676
1.03761
1.03483
1.02864
1.01939
1.00779
0.995124
0.982905
0.972353
0.963979
0.957717
0.953016
0.949557
0.947343
0.945934
0.944378
0.942959
0.943809
0.949828
0.963027
0.982501
1.00535
1.02764
1.04592
1.05824
1.0629
1.05978
1.05104
1.04012
1.02985
1.02144
1.015
1.01024
1.0068
1.00439
1.00274
1.00164
1.00092
1.00047
1.0002
1.00005
0.999967
0.999932
0.999923
0.999926
0.999926
0.99994
0.999953
0.999958
0.999988
0.999949
1.00004
0.99991
1.0001
0.999896
1.00005
1.00006
0.99982
1.00024
0.999791
1.00011
0.999987
0.999948
1.00008
0.99992
1.00005
0.999989
0.999976
1.00003
0.999986
1
1.00001
0.999991
1.00001
1
0.999993
1
1
0.999997
0.999998
1
1
0.999999
1
1.00001
1.00001
1.00004
1.00008
1.00016
1.00025
1.00034
1.00042
1.00064
1.00136
1.0033
1.00737
1.01411
1.02273
1.03094
1.03621
1.03713
1.03361
1.02623
1.01557
1.00233
0.987892
0.974307
0.96334
0.9558
0.951352
0.94903
0.947568
0.946153
0.944975
0.944264
0.942668
0.938916
0.934037
0.932081
0.937437
0.952409
0.975064
1.00133
1.02599
1.04555
1.05778
1.06153
1.0572
1.04772
1.03679
1.02695
1.01912
1.01322
1.0089
1.00583
1.0037
1.00226
1.00131
1.00071
1.00033
1.00012
0.999998
0.999942
0.99992
0.99992
0.999916
0.999934
0.999935
0.999966
0.999957
0.999979
0.999978
1.00002
0.999893
1.00017
0.999774
1.00021
0.999869
0.999983
1.00017
0.999742
1.00024
0.999853
1.00006
1
0.999956
1.00006
0.999955
1.00001
1.00001
0.999977
1.00001
1
0.999992
1.00001
0.999997
0.999998
1.00001
0.999998
0.999995
1
1
0.999998
1
1.00001
1.00002
1.00004
1.00009
1.00018
1.00028
1.00037
1.00047
1.00078
1.00185
1.00462
1.0102
1.01873
1.02819
1.03514
1.03703
1.03348
1.0255
1.01415
1.00018
0.984745
0.970218
0.95931
0.953422
0.952145
0.953901
0.956749
0.958947
0.959268
0.95823
0.957477
0.956718
0.953539
0.946496
0.938033
0.932994
0.937596
0.952902
0.976468
1.00354
1.02802
1.04635
1.05683
1.05845
1.05273
1.0429
1.03249
1.02354
1.01656
1.01135
1.00756
1.00489
1.00306
1.00183
1.00104
1.00053
1.00023
1.00005
0.999965
0.999925
0.999916
0.999913
0.999922
0.999925
0.999973
0.999896
1.00007
0.999858
1.00009
0.999921
0.999965
1.00019
0.999628
1.00046
0.999555
1.00035
0.999817
0.999998
1.00014
0.999815
1.00014
0.999931
1.00003
0.999995
0.999963
1.00005
0.999985
0.999986
1.00001
0.999995
0.999999
1
0.999997
1
1
0.999996
0.999999
1
1
1
1.00001
1.00002
1.00005
1.0001
1.00021
1.00032
1.00041
1.00053
1.00098
1.0025
1.00637
1.01373
1.0238
1.03295
1.03699
1.03441
1.02642
1.01489
1.00088
0.985193
0.969885
0.958652
0.954191
0.956401
0.962864
0.970647
0.977331
0.981286
0.981329
0.978202
0.974436
0.972163
0.970241
0.966056
0.958336
0.949315
0.944284
0.949036
0.963552
0.986103
1.01111
1.03282
1.04783
1.05487
1.05396
1.04697
1.03732
1.02787
1.02002
1.01399
1.00953
1.0063
1.00403
1.00249
1.00147
1.00081
1.00039
1.00015
1.00001
0.999943
0.999915
0.999921
0.999892
0.999966
0.999859
1.00006
0.999845
1.00012
0.999761
1.00027
0.999721
1.0002
0.999906
0.999899
1.00031
0.999552
1.00046
0.999573
1.00033
0.999845
1.00001
1.00006
0.999893
1.00009
0.999979
0.999999
0.999999
0.999979
1.00003
1
0.999981
1.00001
1.00001
0.999994
1
1
0.999999
0.999998
1
1
1.00001
1.00002
1.00005
1.00012
1.00023
1.00035
1.00045
1.0006
1.00124
1.00338
1.00862
1.01789
1.02883
1.03613
1.03597
1.02879
1.01737
1.00365
0.988344
0.972653
0.960244
0.955964
0.960867
0.971795
0.984228
0.994547
1.00114
1.00348
1.00123
0.994895
0.986249
0.978266
0.972515
0.969229
0.966478
0.963808
0.959785
0.960028
0.966733
0.98037
1.00032
1.02189
1.0386
1.04898
1.05181
1.04836
1.04069
1.03167
1.0234
1.01672
1.01162
1.00786
1.00516
1.00328
1.002
1.00116
1.00062
1.00028
1.00008
0.99998
0.999923
0.999912
0.999924
0.999899
0.999916
1.00001
0.999867
0.99999
1.00003
0.999855
1.00026
0.999511
1.00063
0.999266
1.00073
0.999428
1.00025
1.00005
0.999814
1.00022
0.99972
1.00023
0.999945
0.999978
1.00001
0.999955
1.00007
0.999985
0.999974
1.00002
0.999997
0.999998
1.00001
0.999997
0.999992
1
1
1
1
1
1
1.00002
1.00006
1.00014
1.00026
1.00038
1.00047
1.00068
1.00159
1.00454
1.01144
1.02248
1.03316
1.0371
1.03222
1.02131
1.00785
0.993181
0.977766
0.964007
0.957824
0.963629
0.978199
0.994498
1.0074
1.01461
1.01703
1.01599
1.01224
1.00592
0.996825
0.984329
0.970019
0.957769
0.951519
0.952904
0.958999
0.965603
0.974778
0.984877
0.998064
1.01543
1.03206
1.04377
1.04867
1.04776
1.04228
1.03445
1.0264
1.01938
1.01378
1.00955
1.00642
1.00419
1.00264
1.00159
1.0009
1.00046
1.0002
1.00004
0.999959
0.999928
0.999951
0.99981
1.00011
0.999693
1.00016
0.999715
1.00029
0.999698
1.00007
1.00008
0.999657
1.00057
0.999328
1.00074
0.99918
1.00079
0.999355
1.00036
0.999944
0.999968
1.00003
0.999833
1.00019
0.999987
0.99994
0.999997
1
1.00004
0.999987
0.99997
1.00002
1.00001
0.999987
1
0.999999
0.999994
1.00001
1.00001
1.00001
1.00002
1.00007
1.00016
1.00029
1.00041
1.0005
1.00079
1.00206
1.00604
1.01484
1.02715
1.03613
1.0357
1.02651
1.01321
0.998965
0.984233
0.969933
0.960607
0.96405
0.980766
1.00073
1.01511
1.02125
1.02073
1.01781
1.01526
1.01376
1.01331
1.01234
1.00592
0.990244
0.966287
0.944007
0.931758
0.937026
0.950733
0.969356
0.98669
1.00065
1.01277
1.0281
1.03958
1.04636
1.04668
1.04281
1.03622
1.02878
1.02175
1.0159
1.01129
1.00779
1.00522
1.00338
1.00211
1.00126
1.0007
1.00034
1.00012
1.00001
1.00001
0.999842
1.00004
0.999809
0.999949
0.999887
1.00015
0.99972
1.00016
0.999657
1.00047
0.999387
1.00084
0.999103
1.00063
0.999601
1.00013
1.00024
0.999601
1.00035
0.999599
1.00031
1
0.999935
0.999958
0.999952
1.00014
0.999974
0.999932
1.00003
1.00001
1
0.999992
0.99999
1.00001
1.00001
0.999991
0.999988
1
1.00002
1.00003
1.00008
1.00018
1.00031
1.00043
1.00053
1.00094
1.00267
1.00795
1.01872
1.0314
1.03732
1.03226
1.01983
1.00544
0.991262
0.977214
0.965596
0.963703
0.978742
1.00266
1.01919
1.02304
1.01682
1.00712
1.0002
0.999003
1.00251
1.00991
1.02027
1.02954
1.02845
1.00942
0.976692
0.94382
0.926303
0.931482
0.94974
0.975261
0.997794
1.01246
1.02517
1.03601
1.0439
1.0457
1.04305
1.03747
1.03059
1.02377
1.01784
1.01297
1.00919
1.00633
1.00422
1.00273
1.00168
1.00099
1.00053
1.00025
1.00006
0.999999
0.999966
1.00002
0.999687
1.00015
0.999783
1.00013
0.999639
1.00007
1.00023
0.999555
1.00072
0.998993
1.00096
0.998911
1.00128
0.998892
1.00087
0.99916
1.00052
1.00005
0.999845
0.999999
0.999803
1.00031
0.999991
0.999858
1.00001
1.00002
1.00006
0.999966
0.999969
1.00004
1
0.999969
1.00001
1.00001
0.999998
0.999992
1
1.00002
1.00008
1.00019
1.00033
1.00045
1.00057
1.00115
1.00348
1.01031
1.02287
1.03474
1.03665
1.02742
1.01301
0.998525
0.984974
0.97248
0.965539
0.973694
0.998824
1.021
1.02384
1.01057
0.989557
0.971094
0.961189
0.961581
0.97005
0.983486
1.00056
1.02079
1.03843
1.0424
1.02397
0.990984
0.953814
0.937299
0.939747
0.960335
0.985348
1.00962
1.02167
1.03385
1.04046
1.0445
1.04282
1.03834
1.03205
1.0256
1.0196
1.01456
1.01056
1.00746
1.00513
1.00341
1.00219
1.00134
1.00077
1.0004
1.00019
1.00005
1.00017
0.999699
1.00011
0.999849
1.00004
0.999629
1.00011
1.00005
1.00004
0.999758
1.00012
0.999552
1.00067
0.999486
1.00046
0.999604
0.999887
1.00056
0.999558
1.00035
0.99934
1.00051
1.00012
0.99981
0.999879
0.999997
1.00024
0.999923
0.999869
1.00007
1.00003
0.999974
1.00001
1.00001
0.999993
0.999998
1.00001
1.00001
1.00001
1.00004
1.00009
1.0002
1.00036
1.00046
1.00063
1.00142
1.00451
1.01314
1.02698
1.03682
1.03438
1.02192
1.00662
0.992685
0.980237
0.970378
0.970248
0.989183
1.0181
1.0269
1.00839
0.974938
0.939006
0.91334
0.901732
0.904256
0.919877
0.94186
0.964451
0.984914
1.00514
1.02297
1.02933
1.01823
0.992754
0.96456
0.954355
0.958832
0.97649
1.00022
1.01826
1.03108
1.03807
1.04256
1.04214
1.03862
1.03319
1.02714
1.02122
1.01613
1.01192
1.00859
1.00606
1.00415
1.00276
1.00175
1.00107
1.0006
1.0003
1.00034
0.999943
0.999967
1.0001
0.999771
0.999931
0.999782
1.00028
0.999986
0.999432
1.00042
0.999344
1.00109
0.998993
1.00092
0.998707
1.00132
0.99898
1.00101
0.998926
1.00048
1.00023
0.999897
0.999893
0.999673
1.00047
1.00004
0.999744
0.999971
1.0001
1.0001
0.999914
0.999925
1.00005
1.00002
0.999974
1.00001
1.00001
0.999986
1.00002
1.00006
1.00012
1.00023
1.00038
1.00049
1.00071
1.00177
1.00582
1.01637
1.0307
1.03749
1.03096
1.01631
1.0009
0.987998
0.977167
0.971137
0.979356
1.00662
1.02917
1.01488
0.971855
0.918598
0.870536
0.841982
0.832513
0.842757
0.872019
0.910995
0.947795
0.971423
0.982066
0.988608
0.996744
0.999907
0.997135
0.980342
0.972537
0.969174
0.980535
0.992523
1.01542
1.02589
1.03709
1.03993
1.04164
1.03849
1.03398
1.0282
1.0227
1.01761
1.01326
1.00976
1.00701
1.00492
1.00337
1.00221
1.00142
1.00085
1.0004
1.00035
1
1.00028
0.999805
0.999921
0.999848
1.00016
1.00003
0.999366
1.00026
0.999885
1.00049
0.99969
0.999603
1.00024
0.999881
1.00056
0.999452
0.999779
1.00057
0.999734
1.00043
0.999007
1.00063
1.00024
0.999784
0.999768
1.00003
1.00033
0.999875
0.999818
1.00013
1.00007
0.999946
0.999968
0.99999
0.999998
1.00001
0.999989
0.999994
1.00002
1.00012
1.00025
1.00039
1.0005
1.00082
1.00222
1.00746
1.01986
1.0337
1.03689
1.02688
1.01094
0.995992
0.98449
0.97581
0.974691
0.991279
1.02106
1.02671
0.98491
0.918912
0.849545
0.794651
0.766132
0.761357
0.784093
0.830818
0.891265
0.949254
0.990329
1.00503
0.999377
0.988381
0.980494
0.975734
0.974806
0.969797
0.976718
0.985053
0.996186
1.01032
1.02333
1.03399
1.03849
1.0405
1.03845
1.03435
1.02915
1.02393
1.01888
1.01455
1.01094
1.008
1.00575
1.004
1.00273
1.0018
1.00109
1.00072
1.00034
1.00046
1.00006
0.999865
1.00004
0.999949
1.00012
0.999433
0.999958
1.00055
0.999695
1.00011
0.999156
1.00059
1.00006
1.00047
0.998872
1.0007
0.999479
1.00127
0.998558
1.0004
1.00023
1.00016
0.999843
0.999419
1.00066
1.0001
0.999641
0.999943
1.00015
1.00008
0.999879
0.999981
1.00014
1.00002
0.999921
1
1.00005
1.00002
1.00002
1.00011
1.00026
1.0004
1.00051
1.00098
1.00279
1.00946
1.02341
1.0358
1.03526
1.02254
1.006
0.991913
0.982154
0.976098
0.980453
1.00343
1.02805
1.01002
0.942323
0.858368
0.776525
0.714406
0.680778
0.679052
0.71296
0.774293
0.850377
0.926058
0.989213
1.02688
1.03431
1.01835
0.995334
0.974938
0.968499
0.961727
0.97272
0.981522
1.00083
1.00652
1.02414
1.02944
1.03827
1.03827
1.03843
1.03448
1.03017
1.02483
1.02004
1.01572
1.01204
1.009
1.00659
1.00469
1.00329
1.00218
1.00145
1.00096
1.00078
1.00047
1.00001
1.00012
1.00007
0.999955
0.999767
0.999639
1.00086
0.999269
1.0002
0.999147
1.00083
1.00021
0.999631
0.999846
0.999315
1.00162
0.999043
1.00001
0.999823
1.00018
1.00088
0.998493
1.00068
1.00026
0.99988
0.999737
0.99992
1.00047
0.999893
0.999701
1.00009
1.00005
0.999937
1.00004
1.00005
0.999981
1
1.00006
1.00008
1.00016
1.00028
1.0004
1.00056
1.00119
1.00354
1.01181
1.02675
1.03695
1.03292
1.01823
1.00158
0.988667
0.980908
0.977812
0.98727
1.01301
1.02577
0.983124
0.895344
0.796498
0.698156
0.619916
0.578795
0.584682
0.631882
0.704742
0.788377
0.872667
0.946951
1.00361
1.0345
1.03587
1.01686
0.994945
0.974681
0.96964
0.964348
0.979677
0.994544
1.00943
1.02029
1.02902
1.0357
1.03764
1.03766
1.0348
1.03061
1.02579
1.02117
1.01681
1.01307
1.00998
1.00741
1.00544
1.00383
1.00266
1.00186
1.00102
1.00107
1.00036
1.00033
1.00024
0.999973
0.99992
0.999696
1.00054
0.99969
0.999455
1.00016
1.00026
1.00019
0.999753
0.999052
1.00102
0.999996
0.999875
0.999864
0.999114
1.00211
0.998169
1.00077
0.999665
1.00019
1.00044
0.998978
1.00066
1.0002
0.999589
0.999964
1.00022
1.00016
0.999833
0.999812
1.00006
1.00006
0.999957
0.999951
1.00001
1.00007
1.00018
1.00028
1.00039
1.00062
1.00144
1.00446
1.01441
1.02968
1.03725
1.03015
1.01408
0.997714
0.986219
0.980596
0.980527
0.993721
1.01807
1.0158
0.952211
0.849204
0.730548
0.606684
0.51405
0.481805
0.509281
0.575438
0.65888
0.748704
0.837117
0.912747
0.970162
1.00827
1.02179
1.01393
1.00075
0.984665
0.977008
0.969059
0.980661
0.988036
1.00991
1.01521
1.03006
1.03211
1.0383
1.0362
1.03505
1.03076
1.02682
1.02208
1.01788
1.01409
1.01091
1.00825
1.00615
1.00442
1.00322
1.00211
1.00142
1.00103
1.00071
1.0005
1.00023
0.999932
1.00001
1.0001
1.00017
0.998998
1.00082
0.999615
1.0005
0.999063
1.00003
1.00074
0.999371
1.00104
0.997648
1.00275
0.997991
1.00129
0.999344
0.999409
1.00186
0.998043
1.00087
1.00023
0.999602
1.0001
0.999799
1.00031
0.999959
0.999746
1.00023
1.00018
0.999851
0.999916
1.00009
1.00001
0.99996
1.00004
1.00016
1.00028
1.00041
1.00073
1.00175
1.00563
1.01715
1.03209
1.03687
1.02718
1.01022
0.994408
0.9845
0.980987
0.983669
0.998549
1.01841
1.0016
0.921693
0.802712
0.656657
0.511048
0.42559
0.418247
0.468532
0.547229
0.636931
0.734586
0.834864
0.914249
0.964736
0.998747
1.00947
1.00479
0.99344
0.984374
0.973533
0.980256
0.976974
0.991797
1.00276
1.01706
1.02576
1.03234
1.03584
1.03628
1.03473
1.03139
1.0273
1.02293
1.01883
1.01509
1.01181
1.0091
1.00682
1.0051
1.00364
1.00251
1.0019
1.00131
1.00104
1.00054
1.00022
1.00013
1.00014
1.00011
0.999396
1.00035
1.00015
0.999628
0.999722
1.00025
0.999826
1.00083
0.99833
1.00144
0.999181
1.0002
1.00085
0.997699
1.00317
0.997216
1.00142
1.00009
0.998956
1.00126
0.999032
1.00032
1.00045
0.999529
0.99985
1.00011
1.00012
0.999962
0.999946
1.00008
1.00006
0.999989
1.00007
1.0001
1.00014
1.00031
1.00046
1.00086
1.00215
1.00706
1.01988
1.03394
1.03601
1.02416
1.00669
0.991648
0.983386
0.981806
0.986657
1.00112
1.01521
0.985976
0.892382
0.75461
0.584176
0.435161
0.366777
0.372415
0.428789
0.508665
0.601814
0.708024
0.826769
0.915914
0.966096
1.00176
1.01397
1.00966
0.995078
0.978757
0.971902
0.975306
0.979216
0.99384
0.998986
1.01735
1.02179
1.03263
1.03314
1.03712
1.03393
1.03198
1.02767
1.02384
1.01968
1.01602
1.01268
1.0099
1.00756
1.00569
1.0041
1.00307
1.00206
1.00179
1.00108
1.00069
1.00032
1.00041
1
0.999891
0.999901
1.00054
0.999121
1.00036
0.999762
1.0003
0.999848
0.999321
1.00132
0.998019
1.00284
0.996329
1.00387
0.996957
1.00118
1.00092
0.997628
1.00271
0.998152
1.00024
1.00093
0.999132
1.00016
1.00009
1.00021
1.00003
0.999609
0.99994
1.00024
0.999995
0.999833
1.00001
1.0001
1.00005
1.00015
1.00033
1.00046
1.00099
1.00263
1.00869
1.02248
1.03521
1.03484
1.02121
1.00351
0.989422
0.982716
0.982772
0.989032
1.00157
1.0097
0.97019
0.864698
0.711206
0.529377
0.384126
0.313919
0.317111
0.374192
0.455809
0.557349
0.673829
0.799519
0.896019
0.95194
0.993788
1.016
1.01594
1.00197
0.980043
0.97324
0.969411
0.984245
0.985958
1.00269
1.01134
1.0231
1.02909
1.0343
1.03478
1.03428
1.03199
1.02844
1.02447
1.02056
1.01682
1.01353
1.01067
1.00828
1.00625
1.00471
1.00343
1.00232
1.00197
1.00126
1.00084
1.00061
1.0003
1.00001
1.00007
1.00027
0.999556
0.999997
1.0002
0.999809
0.999792
1.0003
0.999343
1.00113
0.998425
1.00146
0.999491
0.998782
1.00283
0.996221
1.00379
0.997587
0.999986
1.00185
0.998057
1.00097
0.999831
0.999693
1.00046
0.999812
0.999893
1.00018
1.00009
0.999889
0.999895
1.00007
1.00006
0.999937
1.00003
1.00021
1.00029
1.00052
1.00117
1.00322
1.01048
1.02483
1.03602
1.03348
1.01846
1.00063
0.987682
0.982337
0.983649
0.990542
1.00049
1.00265
0.955178
0.841973
0.681063
0.495693
0.341655
0.25791
0.267861
0.33134
0.418862
0.534735
0.660133
0.776306
0.872632
0.938604
0.98348
1.0076
1.01028
1.00121
0.987797
0.97571
0.973091
0.975771
0.986045
1.00237
1.00881
1.02224
1.02673
1.03365
1.03311
1.03513
1.03161
1.02899
1.02509
1.02136
1.01761
1.01436
1.01142
1.00892
1.00688
1.0052
1.00377
1.00281
1.00214
1.00156
1.00102
1.00073
1.00019
1.00036
1.00008
0.999973
0.999754
1.00042
0.999532
1.00007
1.00002
0.999781
1.0004
0.999005
1.00189
0.997028
1.00365
0.996078
1.00353
0.998239
0.998995
1.00292
0.997016
1.00178
0.999765
0.999104
1.00116
0.999488
0.999761
1.00012
1.00007
1.00016
0.999911
0.999864
1.00011
1.00012
0.999932
1.00001
1.00017
1.00017
1.00023
1.00068
1.00139
1.00394
1.01242
1.02689
1.03644
1.03205
1.01596
0.998054
0.986329
0.982148
0.984261
0.991166
0.998515
0.994698
0.942537
0.827855
0.665122
0.474645
0.304644
0.22176
0.244151
0.308014
0.401754
0.528979
0.655244
0.761264
0.857704
0.938238
0.981054
0.998008
1.00202
0.998476
0.991096
0.977029
0.972589
0.973385
0.990264
0.995231
1.01065
1.01735
1.02693
1.03071
1.03494
1.03345
1.03204
1.02934
1.02582
1.02199
1.01848
1.01509
1.01212
1.0096
1.00744
1.00565
1.00424
1.00315
1.00248
1.00174
1.00122
1.00067
1.00052
1.00034
0.999999
1.00003
1.00016
0.999805
0.999895
1.00016
0.999759
0.999934
1.00035
0.99926
1.00093
0.998883
1.00079
1.00056
0.997473
1.00364
0.996638
1.00207
0.999918
0.998272
1.00205
0.999003
0.999928
1.00042
0.999771
1.00017
0.999862
0.999776
1.00015
1.00016
0.999954
0.999849
0.999989
1.00014
1.00011
1.0001
1.00031
1.00083
1.0016
1.00479
1.01437
1.02865
1.03655
1.03066
1.01381
0.995768
0.98523
0.982106
0.984538
0.990996
0.996189
0.986732
0.933848
0.822424
0.658748
0.462772
0.289393
0.220519
0.243617
0.301563
0.396282
0.517826
0.640664
0.74895
0.8468
0.9345
0.978133
0.995323
1.00174
0.997344
0.987709
0.977579
0.972331
0.978312
0.982794
0.994729
1.00792
1.01614
1.02554
1.03027
1.03364
1.03252
1.03295
1.02953
1.0263
1.02274
1.01919
1.01579
1.01282
1.01022
1.00795
1.00616
1.00464
1.0034
1.00273
1.00193
1.00131
1.00086
1.00067
1.00016
1.00027
1.00005
1.00002
0.999844
1.00017
0.999774
0.999964
1.00015
0.999655
1.00037
0.999219
1.00166
0.997329
1.00303
0.997367
1.00156
1.00027
0.99789
1.0025
0.99868
0.999942
1.00073
0.999183
1.00048
1.00002
0.999809
1.00013
0.999999
0.999985
0.999954
0.999966
1.00007
1.00003
0.999953
1.00005
1.00017
1.00035
1.00092
1.00193
1.00573
1.01627
1.03011
1.03645
1.02932
1.01204
0.993809
0.984201
0.982206
0.984509
0.990203
0.993853
0.979798
0.929423
0.823353
0.659603
0.4649
0.306223
0.251616
0.270538
0.323312
0.403307
0.504227
0.629695
0.745885
0.836555
0.919745
0.973125
0.995268
1.00262
0.997003
0.986216
0.977867
0.973499
0.975028
0.980975
0.995927
1.00284
1.01634
1.02276
1.02945
1.03092
1.03438
1.03216
1.02985
1.02691
1.02345
1.01979
1.01652
1.01347
1.01077
1.00851
1.00657
1.005
1.00371
1.00294
1.0021
1.00143
1.00106
1.00054
1.00039
1.00029
0.999972
1.00007
1.00003
0.999885
0.999931
1.00014
0.999716
1.00002
1.00032
0.999311
1.00079
0.99926
1.00028
1.00082
0.997899
1.00239
0.998594
0.999998
1.00105
0.998678
1.00076
1.00003
0.99961
1.00022
0.999929
1.00009
1.00008
0.999846
0.999954
1.0001
1.00012
0.999878
0.999976
1.00018
1.00016
1.00029
1.0011
1.00238
1.00671
1.01807
1.03136
1.03615
1.02812
1.01067
0.992273
0.983075
0.98241
0.984295
0.989052
0.991475
0.974959
0.928378
0.829224
0.669318
0.484676
0.348802
0.304936
0.320823
0.363615
0.422172
0.509654
0.638393
0.752945
0.829624
0.906682
0.968385
0.990708
0.998399
0.996873
0.98772
0.978775
0.973609
0.973071
0.982511
0.990012
1.00235
1.01282
1.02156
1.02699
1.032
1.03339
1.03159
1.03057
1.02744
1.02393
1.02052
1.01715
1.01406
1.01131
1.00899
1.00695
1.00536
1.00399
1.00313
1.00223
1.00163
1.00103
1.00068
1.00052
1.00011
1.00021
1.00001
0.99999
0.99992
1.0001
0.999782
1.00007
0.999967
0.999959
0.999984
0.999758
1.00087
0.998355
1.00186
0.998715
1.00024
1.0008
0.998649
1.00094
1.00003
0.999403
1.0006
0.999684
0.999993
1.00016
0.999832
0.999992
1.00012
1.00005
0.999877
0.999984
1
1.00008
1.00016
1.00006
1.00036
1.00129
1.00289
1.00771
1.0197
1.03242
1.03576
1.02704
1.00973
0.991201
0.981886
0.98245
0.984197
0.987733
0.98894
0.972934
0.92991
0.840085
0.690339
0.520142
0.402488
0.361947
0.370522
0.404347
0.458289
0.544329
0.662953
0.762458
0.829414
0.901597
0.962392
0.984936
0.992298
0.996036
0.990453
0.980545
0.972552
0.972737
0.978705
0.988504
1.00113
1.00959
1.01951
1.02626
1.03146
1.03124
1.0328
1.03061
1.02776
1.02459
1.02116
1.01774
1.01462
1.01183
1.00939
1.00735
1.00563
1.00424
1.00327
1.0024
1.00167
1.00111
1.00082
1.0004
1.00027
1.00022
0.999928
1.00008
0.999996
0.999891
0.999979
1.00008
0.999812
0.999977
1.00032
0.999302
1.00085
0.999269
1.00025
1.00049
0.998867
1.00108
0.999755
0.999383
1.00084
0.999487
1
1.00033
0.999735
1.00007
1.00003
0.999934
1.00007
0.999962
0.999901
1.0001
1.00005
0.999869
1.00016
1.00015
1.00044
1.00145
1.00348
1.00877
1.02109
1.03332
1.03542
1.02605
1.0092
0.990617
0.980834
0.981918
0.98451
0.986393
0.986429
0.973495
0.933788
0.855517
0.722684
0.567193
0.457238
0.412175
0.41288
0.447955
0.508951
0.591533
0.689147
0.771467
0.836756
0.900812
0.955163
0.982459
0.990766
0.993417
0.989426
0.981106
0.973495
0.973003
0.977405
0.987138
0.996626
1.00807
1.01693
1.02563
1.02858
1.03214
1.03249
1.03056
1.02835
1.02518
1.02169
1.01833
1.01514
1.01229
1.00977
1.00768
1.00587
1.00447
1.00341
1.00249
1.0017
1.00125
1.00074
1.0005
1.00035
1.00006
1.00015
0.999968
1.00003
0.999855
1.00018
0.999703
1.00023
0.999729
1.00028
0.999674
1.00011
1.00037
0.999041
1.00113
0.999383
0.999791
1.00068
0.99945
1.00005
1.00038
0.999525
1.00024
1.00004
0.999874
1.00007
0.999946
1.00006
0.999993
0.999972
1.00005
0.999987
0.999823
1.00025
1.00023
1.00036
1.0017
1.00414
1.00987
1.02218
1.03408
1.03518
1.02524
1.00889
0.990634
0.980066
0.980719
0.985008
0.985445
0.984338
0.975333
0.93997
0.873696
0.763214
0.623705
0.514918
0.463244
0.458102
0.492602
0.552406
0.627077
0.707019
0.781937
0.848804
0.903549
0.948067
0.979775
0.990886
0.990063
0.988042
0.98296
0.97602
0.972299
0.975559
0.98357
0.994502
1.00556
1.01546
1.02243
1.02803
1.03194
1.03158
1.03116
1.02876
1.02564
1.02229
1.01887
1.01563
1.01269
1.01013
1.00793
1.00611
1.00461
1.0035
1.00252
1.0018
1.00122
1.00078
1.00056
1.00026
1.00016
1.00014
0.999924
1.00005
0.999998
0.99991
1
1.00003
0.999895
0.999969
1.00027
0.999394
1.00077
0.99941
1.0001
1.00036
0.999501
1.00022
1.00026
0.999519
1.00028
1.00008
0.999765
1.00007
1.00008
1.00004
0.999852
1.00005
1.00006
0.999924
0.999987
1.00009
0.999869
1.00016
1.00029
1.00036
1.00199
1.0048
1.01095
1.02305
1.03461
1.0351
1.02475
1.00863
0.991245
0.9797
0.979224
0.984905
0.98544
0.983036
0.976861
0.948158
0.892756
0.806228
0.686933
0.580598
0.522896
0.509007
0.530879
0.580475
0.647998
0.721211
0.794622
0.859892
0.90888
0.943815
0.973267
0.988567
0.991141
0.988716
0.982434
0.975989
0.972146
0.974592
0.98186
0.991933
1.00237
1.01256
1.02026
1.02769
1.03016
1.03191
1.03125
1.02908
1.02621
1.02284
1.01938
1.01608
1.01306
1.01043
1.00815
1.00628
1.00473
1.00354
1.00255
1.00181
1.0012
1.00085
1.00049
1.0003
1.00022
1
1.00011
0.999915
1.00009
0.999812
1.00019
0.999759
1.00021
0.999714
1.00034
0.999664
1.00012
1.0002
0.999559
1.00038
0.999987
0.999711
1.00019
1.00015
0.999665
1.00021
1.00007
0.999816
1.00004
1.00012
0.999901
1.00001
1.00007
0.999862
1.00001
1.00013
0.999807
1.00005
1.00047
1.00047
1.00218
1.00545
1.01204
1.02377
1.03483
1.0352
1.02466
1.00854
0.992143
0.979919
0.977895
0.983671
0.986184
0.982939
0.977349
0.957094
0.911927
0.845133
0.749322
0.651953
0.590449
0.565436
0.57025
0.607259
0.668245
0.739871
0.80698
0.865125
0.913614
0.946495
0.968042
0.98372
0.99082
0.988832