/*--------------------------------*- C++ -*----------------------------------*\
  =========                 |
  \\      /  F ield         | OpenFOAM: The Open Source CFD Toolbox
   \\    /   O peration     | Website:  https://openfoam.org
    \\  /    A nd           | Version:  6
     \\/     M anipulation  |
\*---------------------------------------------------------------------------*/
FoamFile
{
    version     2.0;
    format      ascii;
    class       volScalarField;
    location    "4.19";
    object      rho;
}
// * * * * * * * * * * * * * * * * * * * * * * * * * * * * * * * * * * * * * //

dimensions      [1 -3 0 0 0 0 0];

internalField   nonuniform List<scalar> 
10000
(
1.4
1.4
1.4
1.4
1.4
1.40001
1.4
1.40001
1.40001
1.4
1.40001
1.4
1.40001
1.4
1.40001
1.4
1.40001
1.4
1.40001
1.4
1.40001
1.4
1.4
1.40001
1.4
1.4
1.40001
1.40001
1.4
1.40001
1.40001
1.4
1.40001
1.40001
1.40001
1.4
1.40001
1.40001
1.40001
1.40001
1.40001
1.40001
1.40002
1.40002
1.40002
1.40003
1.40003
1.40003
1.40003
1.40002
1.40001
1.4
1.4
1.4
1.40002
1.40006
1.40013
1.40023
1.40035
1.40051
1.40068
1.40088
1.40108
1.40128
1.40147
1.40164
1.40179
1.40191
1.40199
1.40203
1.40203
1.40199
1.40192
1.4018
1.40165
1.40149
1.4013
1.40111
1.40091
1.40073
1.40056
1.40042
1.40029
1.40019
1.40011
1.40005
1.40001
1.39999
1.39998
1.39998
1.39998
1.39998
1.39998
1.39999
1.39999
1.4
1.4
1.4
1.4
1.4
1.4
1.4
1.4
1.40001
1.4
1.4
1.40001
1.4
1.40001
1.4
1.40001
1.4
1.40001
1.4
1.4
1.40001
1.4
1.40001
1.40001
1.4
1.40001
1.40001
1.4
1.40001
1.40001
1.4
1.40001
1.40001
1.40001
1.4
1.4
1.40001
1.40001
1.4
1.40001
1.40001
1.4
1.40001
1.40001
1.40001
1.40001
1.40001
1.40002
1.40003
1.40004
1.40004
1.40005
1.40005
1.40005
1.40004
1.40003
1.40003
1.40003
1.40005
1.4001
1.40019
1.4003
1.40046
1.40065
1.40086
1.4011
1.40134
1.40158
1.40181
1.40202
1.4022
1.40234
1.40244
1.40249
1.4025
1.40246
1.40237
1.40225
1.40209
1.40189
1.40168
1.40146
1.40123
1.40101
1.40081
1.40062
1.40046
1.40032
1.40021
1.40012
1.40006
1.40002
1.39999
1.39998
1.39997
1.39997
1.39998
1.39998
1.39999
1.39999
1.39999
1.4
1.4
1.4
1.4
1.4
1.4
1.4
1.4
1.4
1.4
1.4
1.40001
1.4
1.40001
1.4
1.40001
1.4
1.40001
1.4
1.40001
1.4
1.40001
1.4
1.40001
1.4
1.4
1.40001
1.40001
1.4
1.40001
1.40001
1.4
1.40001
1.4
1.4
1.40001
1.40001
1.4
1.4
1.40001
1.40001
1.40001
1.40001
1.40001
1.40001
1.40002
1.40003
1.40004
1.40006
1.40007
1.40007
1.40008
1.40007
1.40007
1.40006
1.40007
1.4001
1.40016
1.40026
1.40041
1.4006
1.40083
1.4011
1.40139
1.40169
1.40199
1.40227
1.40253
1.40274
1.40291
1.40303
1.40309
1.4031
1.40306
1.40296
1.40281
1.40263
1.4024
1.40215
1.4019
1.40163
1.40137
1.40112
1.40088
1.40068
1.4005
1.40035
1.40023
1.40013
1.40007
1.40002
1.39999
1.39998
1.39997
1.39997
1.39997
1.39998
1.39998
1.39999
1.39999
1.4
1.4
1.4
1.4
1.4
1.4
1.4
1.4
1.4
1.4
1.40001
1.4
1.40001
1.40001
1.4
1.40001
1.4
1.40001
1.4
1.4
1.40001
1.4
1.4
1.40001
1.4
1.4
1.40001
1.4
1.4
1.40001
1.40001
1.4
1.4
1.40001
1.4
1.40001
1.40001
1.4
1.4
1.40001
1.40001
1.40001
1.40001
1.40001
1.40002
1.40003
1.40004
1.40006
1.40008
1.4001
1.40011
1.40011
1.40011
1.40011
1.40012
1.40016
1.40023
1.40035
1.40053
1.40077
1.40106
1.40139
1.40176
1.40214
1.40252
1.40288
1.4032
1.40346
1.40367
1.40381
1.40389
1.40389
1.40383
1.40372
1.40354
1.40331
1.40305
1.40276
1.40245
1.40213
1.40182
1.40151
1.40122
1.40097
1.40074
1.40054
1.40038
1.40025
1.40015
1.40007
1.40002
1.39999
1.39997
1.39997
1.39997
1.39997
1.39997
1.39998
1.39999
1.39999
1.39999
1.4
1.4
1.4
1.4
1.4
1.4
1.4
1.4
1.4
1.4
1.40001
1.4
1.40001
1.4
1.4
1.40001
1.4
1.40001
1.4
1.40001
1.4
1.4
1.40001
1.4
1.4
1.40001
1.4
1.4
1.40001
1.40001
1.4
1.4
1.40001
1.40001
1.40001
1.4
1.4
1.40001
1.40001
1.40001
1.40001
1.40001
1.40002
1.40003
1.40004
1.40006
1.40009
1.40011
1.40014
1.40015
1.40016
1.40016
1.40018
1.40022
1.4003
1.40045
1.40067
1.40096
1.40133
1.40176
1.40223
1.40272
1.40321
1.40367
1.40408
1.40442
1.40469
1.40486
1.40495
1.40495
1.40487
1.40472
1.4045
1.40422
1.4039
1.40354
1.40316
1.40277
1.4024
1.40203
1.40166
1.40135
1.40106
1.4008
1.40059
1.40041
1.40027
1.40016
1.40008
1.40003
1.39999
1.39997
1.39996
1.39996
1.39996
1.39997
1.39998
1.39998
1.39999
1.39999
1.4
1.4
1.4
1.4
1.4
1.4
1.4
1.4
1.4
1.4
1.40001
1.4
1.40001
1.40001
1.4
1.40001
1.4
1.40001
1.4
1.40001
1.4
1.40001
1.4
1.39999
1.40002
1.4
1.39999
1.40001
1.40001
1.4
1.4
1.4
1.40001
1.40001
1.40001
1.4
1.4
1.40001
1.40001
1.40001
1.40001
1.40001
1.40002
1.40004
1.40006
1.40009
1.40012
1.40016
1.40019
1.4002
1.40022
1.40023
1.40028
1.40037
1.40054
1.40081
1.40118
1.40164
1.40219
1.4028
1.40344
1.40408
1.40469
1.40523
1.40568
1.40603
1.40626
1.40637
1.40638
1.40627
1.40607
1.40578
1.40544
1.40503
1.40458
1.40408
1.40361
1.40317
1.40268
1.40223
1.40187
1.40146
1.40115
1.40089
1.40063
1.40045
1.4003
1.40018
1.40009
1.40003
1.4
1.39997
1.39996
1.39996
1.39996
1.39997
1.39997
1.39998
1.39998
1.39999
1.39999
1.4
1.4
1.4
1.4
1.4
1.4
1.4
1.4
1.4
1.40001
1.4
1.40001
1.40001
1.4
1.40001
1.4
1.4
1.40001
1.4
1.4
1.40002
1.39999
1.4
1.40002
1.4
1.39999
1.40001
1.40001
1.4
1.4
1.40001
1.40001
1.4
1.4
1.4
1.40001
1.40001
1.40001
1.40001
1.40001
1.40002
1.40003
1.40005
1.40008
1.40012
1.40017
1.40021
1.40025
1.40027
1.40029
1.40034
1.40044
1.40062
1.40093
1.40138
1.40196
1.40267
1.40346
1.40431
1.40515
1.40596
1.40669
1.40731
1.40779
1.40812
1.40828
1.40829
1.40816
1.40789
1.40751
1.40705
1.40654
1.40596
1.40535
1.40475
1.40416
1.40354
1.40301
1.40254
1.402
1.40163
1.4013
1.40092
1.40071
1.4005
1.40032
1.4002
1.40011
1.40004
1.4
1.39997
1.39996
1.39996
1.39996
1.39996
1.39997
1.39997
1.39998
1.39999
1.39999
1.39999
1.4
1.4
1.4
1.4
1.4
1.4
1.4
1.4
1.4
1.4
1.40001
1.4
1.40001
1.4
1.40001
1.4
1.40001
1.39999
1.40002
1.40001
1.39998
1.40003
1.40001
1.39999
1.40001
1.40001
1.4
1.4
1.4
1.40001
1.40001
1.4
1.4
1.40001
1.40001
1.4
1.40001
1.40001
1.40001
1.40002
1.40004
1.40007
1.40011
1.40016
1.40022
1.40028
1.40032
1.40035
1.40039
1.40048
1.40068
1.40101
1.40154
1.40225
1.40314
1.40417
1.40528
1.40642
1.40751
1.40851
1.40937
1.41005
1.41053
1.4108
1.41085
1.4107
1.41037
1.40989
1.4093
1.40862
1.40786
1.40706
1.40627
1.4055
1.40475
1.40407
1.40341
1.40272
1.40228
1.40184
1.40131
1.40108
1.40078
1.40051
1.40037
1.40022
1.40012
1.40005
1.4
1.39997
1.39996
1.39995
1.39995
1.39996
1.39996
1.39997
1.39998
1.39998
1.39999
1.39999
1.39999
1.39999
1.4
1.4
1.4
1.4
1.4
1.4
1.4
1.40001
1.4
1.4
1.40001
1.4
1.4
1.40002
1.39999
1.4
1.40004
1.39997
1.40001
1.40003
1.39999
1.39999
1.40002
1.40002
1.39999
1.4
1.40002
1.40001
1.4
1.4
1.4
1.40001
1.40001
1.4
1.4
1.40001
1.40002
1.40003
1.40005
1.40009
1.40015
1.40021
1.40029
1.40036
1.4004
1.40044
1.40052
1.40069
1.40104
1.40161
1.40244
1.40354
1.40484
1.4063
1.40781
1.4093
1.41068
1.41189
1.41287
1.4136
1.41404
1.4142
1.41408
1.4137
1.4131
1.41233
1.41146
1.4105
1.40945
1.40838
1.40737
1.4064
1.40546
1.40457
1.40377
1.40318
1.40255
1.40187
1.40159
1.40116
1.40078
1.40063
1.40038
1.40024
1.40015
1.40005
1.40001
1.39997
1.39996
1.39995
1.39995
1.39995
1.39996
1.39996
1.39997
1.39998
1.39998
1.39999
1.39999
1.39999
1.4
1.4
1.4
1.4
1.4
1.40001
1.4
1.40001
1.4
1.40001
1.40001
1.4
1.4
1.40002
1.39998
1.40003
1.40001
1.39997
1.40003
1.40001
1.39997
1.40002
1.40003
1.39999
1.4
1.40001
1.40001
1.40001
1.4
1.39999
1.40002
1.40001
1.40001
1.4
1.40001
1.40001
1.40002
1.40004
1.40006
1.40011
1.40019
1.40027
1.40036
1.40044
1.40049
1.40055
1.40069
1.401
1.40158
1.4025
1.40378
1.40538
1.40724
1.40923
1.41123
1.41312
1.41482
1.41624
1.41734
1.41809
1.41846
1.41845
1.41808
1.41739
1.41647
1.41536
1.41407
1.41268
1.4113
1.41
1.40873
1.40744
1.40623
1.4052
1.40434
1.40356
1.40274
1.40223
1.40171
1.40118
1.40099
1.40063
1.40042
1.4003
1.40014
1.40008
1.40001
1.39998
1.39996
1.39995
1.39994
1.39995
1.39995
1.39996
1.39996
1.39997
1.39998
1.39998
1.39999
1.39999
1.39999
1.39999
1.4
1.4
1.4
1.4
1.4
1.40001
1.4
1.40001
1.4
1.4
1.40003
1.39998
1.4
1.40006
1.39993
1.40003
1.40004
1.39996
1.4
1.40002
1.40002
1.39998
1.4
1.40003
1.40001
1.39999
1.40001
1.40001
1.40001
1.40001
1.40001
1.4
1.40001
1.40002
1.40002
1.40004
1.40008
1.40014
1.40023
1.40034
1.40044
1.40052
1.40058
1.40068
1.40092
1.40144
1.40237
1.40378
1.40567
1.40795
1.4105
1.41313
1.41568
1.41803
1.42006
1.4217
1.42291
1.42364
1.42389
1.42366
1.423
1.42194
1.42056
1.41897
1.41726
1.41543
1.41363
1.41195
1.41023
1.40861
1.40727
1.40607
1.40497
1.40388
1.40309
1.40254
1.40178
1.4015
1.40099
1.40069
1.40053
1.40029
1.40017
1.40009
1.40001
1.39998
1.39995
1.39994
1.39994
1.39994
1.39994
1.39995
1.39996
1.39996
1.39997
1.39998
1.39998
1.39998
1.39999
1.39999
1.39999
1.4
1.4
1.4
1.40001
1.4
1.40001
1.40001
1.4
1.4
1.40002
1.39998
1.40001
1.40003
1.39997
1.39999
1.40007
1.39995
1.39998
1.40008
1.39996
1.39999
1.40003
1.4
1.40002
1.39999
1.39999
1.40002
1.40002
1.39998
1.40001
1.40001
1.4
1.40002
1.40003
1.40005
1.4001
1.40018
1.40028
1.40041
1.40052
1.4006
1.40068
1.40084
1.40124
1.40207
1.4035
1.40558
1.40827
1.4114
1.41476
1.41812
1.42127
1.42408
1.42644
1.42829
1.42959
1.4303
1.4304
1.4299
1.42886
1.42738
1.42555
1.42339
1.42107
1.41883
1.41655
1.41415
1.41196
1.41016
1.40855
1.40696
1.40554
1.40445
1.40366
1.40265
1.40219
1.40156
1.40107
1.4009
1.40052
1.40031
1.40027
1.40004
1.40006
1.39996
1.39995
1.39993
1.39993
1.39993
1.39993
1.39994
1.39995
1.39996
1.39996
1.39997
1.39998
1.39998
1.39998
1.39999
1.39999
1.39999
1.4
1.39999
1.40001
1.39999
1.40001
1.40001
1.39998
1.40004
1.39996
1.40002
1.40006
1.39988
1.40011
1.40001
1.39989
1.40012
1.39997
1.39998
1.40005
1.39997
1.40002
1.40002
1.39997
1.40002
1.40002
1.39998
1.40004
1.4
1.39998
1.40002
1.40001
1.4
1.40004
1.40006
1.40012
1.40022
1.40034
1.40047
1.4006
1.40068
1.40079
1.40104
1.40169
1.40297
1.40507
1.40804
1.41172
1.41586
1.42011
1.4242
1.42793
1.43116
1.43382
1.43586
1.43725
1.43795
1.43794
1.43722
1.43583
1.43382
1.43139
1.42877
1.42588
1.42275
1.4198
1.41696
1.41432
1.41206
1.40982
1.40798
1.40648
1.40524
1.40407
1.40306
1.40244
1.40165
1.40144
1.40082
1.40065
1.40044
1.40017
1.40019
1.39998
1.40001
1.39994
1.39993
1.39992
1.39992
1.39992
1.39993
1.39994
1.39995
1.39996
1.39996
1.39997
1.39997
1.39997
1.39998
1.39999
1.39999
1.4
1.39999
1.4
1.4
1.39999
1.40001
1.4
1.40001
1.40001
1.39995
1.4001
1.39996
1.39989
1.40027
1.3998
1.39994
1.40029
1.39978
1.39999
1.40015
1.39992
1.40001
1.40003
1.39996
1.40005
1.4
1.39997
1.40004
1.39999
1.39999
1.40003
1.40001
1.40003
1.40008
1.40014
1.40024
1.4004
1.40053
1.40066
1.40076
1.40091
1.40132
1.40231
1.40421
1.40721
1.41129
1.41615
1.42136
1.42647
1.43119
1.43535
1.43887
1.44174
1.44394
1.44544
1.44618
1.44612
1.44523
1.44358
1.44126
1.43825
1.43474
1.43124
1.42763
1.42387
1.42052
1.41745
1.41422
1.41143
1.40934
1.40761
1.40598
1.40441
1.40384
1.40258
1.40211
1.40152
1.40104
1.40068
1.40057
1.40019
1.4002
1.40004
1.39999
1.39995
1.39992
1.39992
1.39991
1.39991
1.39992
1.39993
1.39994
1.39995
1.39995
1.39996
1.39996
1.39997
1.39997
1.39998
1.39998
1.39999
1.4
1.39998
1.40002
1.39999
1.39998
1.40006
1.39993
1.40005
1.40005
1.39981
1.40027
1.39986
1.39986
1.40039
1.39967
1.40004
1.40026
1.39971
1.4001
1.40015
1.39982
1.40007
1.40005
1.39994
1.40007
1.39998
1.39997
1.40006
1.39997
1.40001
1.40005
1.40002
1.40008
1.40017
1.40026
1.40044
1.40058
1.40071
1.40083
1.40106
1.4017
1.40318
1.40589
1.41004
1.41545
1.42157
1.42778
1.43355
1.43861
1.44289
1.44647
1.44937
1.45165
1.45326
1.45416
1.45425
1.45345
1.45172
1.44918
1.44605
1.44221
1.43767
1.43329
1.4289
1.42446
1.42051
1.41701
1.41411
1.41125
1.40859
1.40667
1.4056
1.40406
1.40309
1.40254
1.40137
1.4015
1.40076
1.40044
1.40059
1.39993
1.40026
1.39991
1.39999
1.39992
1.39991
1.3999
1.39991
1.39991
1.39992
1.39993
1.39994
1.39994
1.39995
1.39995
1.39996
1.39997
1.39998
1.39998
1.39998
1.4
1.39998
1.39999
1.40003
1.39996
1.40003
1.40004
1.39987
1.40022
1.39985
1.39984
1.40056
1.39939
1.40011
1.40058
1.39925
1.40026
1.40035
1.39955
1.40016
1.40015
1.39978
1.40012
1.40002
1.39993
1.40008
1.39994
1.40001
1.40006
1.39996
1.40004
1.40005
1.40006
1.40018
1.40029
1.40046
1.40062
1.40076
1.40091
1.40127
1.40223
1.40434
1.40812
1.41367
1.42053
1.42785
1.43476
1.44074
1.44564
1.4496
1.45283
1.4555
1.4577
1.45938
1.46048
1.46087
1.46049
1.45926
1.45707
1.45392
1.45015
1.44561
1.44019
1.43492
1.42974
1.42443
1.42021
1.41654
1.41329
1.41063
1.40827
1.40645
1.40439
1.40382
1.40261
1.40215
1.40111
1.40131
1.40047
1.40041
1.40038
1.39994
1.40014
1.39991
1.39995
1.3999
1.3999
1.3999
1.3999
1.39991
1.39991
1.39992
1.39993
1.39994
1.39994
1.39995
1.39996
1.39996
1.39998
1.39997
1.39999
1.4
1.39997
1.40001
1.40003
1.39991
1.40009
1.40001
1.39979
1.40042
1.3996
1.40002
1.40058
1.39916
1.40047
1.40033
1.39917
1.40059
1.40016
1.39941
1.40039
1.40008
1.39973
1.40021
1.39994
1.39995
1.40009
1.39992
1.40006
1.40002
1.39996
1.40007
1.40008
1.40017
1.40033
1.40049
1.40064
1.40081
1.40102
1.40156
1.40294
1.40588
1.41099
1.41815
1.42646
1.43465
1.44169
1.44719
1.45124
1.45429
1.45672
1.45881
1.46066
1.46227
1.46353
1.46432
1.46454
1.46408
1.46296
1.4609
1.45769
1.45355
1.44815
1.44191
1.43605
1.43059
1.42491
1.41955
1.4154
1.41253
1.41019
1.40706
1.40595
1.40454
1.40266
1.40298
1.40135
1.40106
1.40124
1.39996
1.40075
1.39991
1.40014
1.39996
1.39993
1.39991
1.39989
1.39989
1.39989
1.39989
1.3999
1.39991
1.39992
1.39993
1.39993
1.39994
1.39995
1.39996
1.39997
1.39998
1.39997
1.4
1.40001
1.39992
1.40009
1.39999
1.39983
1.40035
1.39966
1.39998
1.40068
1.39892
1.40066
1.4005
1.39864
1.40104
1.40016
1.39903
1.40077
1.40003
1.39945
1.4005
1.39991
1.39981
1.40022
1.39987
1.40007
1.40004
1.39992
1.40009
1.39997
1.40001
1.40014
1.40016
1.40032
1.40052
1.40066
1.40086
1.40117
1.40196
1.40388
1.40788
1.41457
1.42344
1.43296
1.4414
1.44775
1.4519
1.45439
1.45594
1.45709
1.45819
1.45933
1.46054
1.46177
1.46304
1.46422
1.46524
1.46569
1.46538
1.46411
1.46139
1.45716
1.45073
1.44283
1.43613
1.43031
1.42497
1.41975
1.41467
1.41106
1.40898
1.40733
1.40489
1.40416
1.40207
1.40301
1.40082
1.40107
1.40103
1.39983
1.4007
1.39982
1.40011
1.39991
1.39991
1.39989
1.39988
1.39988
1.39988
1.39989
1.3999
1.39991
1.39992
1.39992
1.39994
1.39994
1.39996
1.39995
1.39999
1.39996
1.39997
1.40003
1.39996
1.39996
1.40009
1.39997
1.39982
1.40046
1.39942
1.40032
1.40039
1.3989
1.40112
1.39987
1.39892
1.40139
1.3996
1.39918
1.40107
1.39973
1.39951
1.40059
1.39977
1.39992
1.40017
1.3999
1.4001
1.39993
1.39999
1.40009
1.39996
1.40014
1.4002
1.40029
1.40052
1.40068
1.40092
1.40138
1.40248
1.40509
1.41041
1.4189
1.42938
1.43954
1.44735
1.45204
1.45403
1.45433
1.45394
1.45343
1.45313
1.45312
1.45339
1.45412
1.4554
1.45731
1.45989
1.46284
1.46545
1.46673
1.46658
1.46505
1.46143
1.45416
1.444
1.4352
1.42904
1.42413
1.4194
1.41425
1.41129
1.40814
1.40531
1.40572
1.40279
1.40229
1.40259
1.40018
1.40172
1.40002
1.40045
1.40018
1.39997
1.4
1.3999
1.39989
1.39987
1.39987
1.39987
1.39988
1.39989
1.39989
1.39991
1.39991
1.39993
1.39993
1.39995
1.39995
1.39997
1.39997
1.4
1.3999
1.40015
1.39986
1.39993
1.40036
1.39951
1.40024
1.40042
1.39888
1.40119
1.39982
1.39873
1.40178
1.39933
1.39903
1.40151
1.39941
1.39935
1.40109
1.39947
1.39973
1.40057
1.39968
1.40005
1.40009
1.39993
1.40005
1.39993
1.40009
1.40002
1.40007
1.40021
1.40028
1.40049
1.4007
1.40101
1.40166
1.40314
1.40662
1.41351
1.42389
1.43562
1.44558
1.45174
1.45388
1.45309
1.45088
1.44831
1.44592
1.44388
1.4422
1.44104
1.44071
1.44155
1.44382
1.44723
1.45172
1.45732
1.46267
1.466
1.46709
1.46705
1.46542
1.45843
1.44682
1.43532
1.42713
1.42256
1.41899
1.41381
1.40989
1.40856
1.40462
1.40592
1.40156
1.40271
1.40212
1.39995
1.40177
1.39971
1.40053
1.40001
1.4
1.39994
1.39989
1.39988
1.39986
1.39987
1.39987
1.39988
1.39988
1.3999
1.39991
1.39991
1.39994
1.39993
1.39996
1.39994
1.39999
1.39999
1.39993
1.40003
1.40001
1.39999
1.39982
1.40043
1.39946
1.40041
1.40001
1.39933
1.4012
1.39913
1.39957
1.40164
1.39864
1.39971
1.40158
1.39886
1.39969
1.40117
1.39914
1.40007
1.40046
1.39958
1.40016
1.4
1.39996
1.40005
1.4
1.40004
1.40007
1.40015
1.40029
1.40049
1.40072
1.40114
1.40203
1.40397
1.40849
1.41718
1.42935
1.44165
1.45042
1.45398
1.45293
1.44914
1.44439
1.43968
1.43532
1.43125
1.4275
1.42438
1.42242
1.42252
1.42525
1.43045
1.43751
1.4454
1.45448
1.46271
1.46661
1.46671
1.46636
1.46642
1.4616
1.45038
1.43731
1.42681
1.42074
1.41714
1.41261
1.41153
1.40632
1.40505
1.40538
1.40112
1.40349
1.40051
1.40125
1.40073
1.40018
1.40033
1.40003
1.40001
1.39993
1.39991
1.39988
1.39988
1.39987
1.39988
1.39988
1.39989
1.39991
1.3999
1.39993
1.39992
1.39996
1.39992
1.40003
1.39986
1.40018
1.39973
1.40011
1.40022
1.3995
1.40038
1.4001
1.39934
1.40104
1.39914
1.39987
1.4014
1.39845
1.40011
1.40153
1.39843
1.40007
1.40138
1.39855
1.40033
1.4008
1.39901
1.40051
1.40003
1.39971
1.40027
1.39986
1.40006
1.40004
1.39992
1.40011
1.40013
1.40024
1.40055
1.40078
1.4013
1.40248
1.40496
1.41073
1.42135
1.43494
1.44696
1.45354
1.45379
1.44936
1.44271
1.43567
1.42904
1.42274
1.4165
1.41043
1.40483
1.40059
1.3988
1.40009
1.40548
1.41508
1.42727
1.44109
1.45609
1.46875
1.47328
1.46995
1.46599
1.46441
1.46079
1.45176
1.43916
1.4272
1.42063
1.41734
1.41043
1.41165
1.40488
1.40635
1.4041
1.40115
1.4037
1.40003
1.40159
1.40044
1.40035
1.40025
1.40007
1.40001
1.39995
1.39992
1.39989
1.39989
1.39988
1.39989
1.39988
1.39989
1.39992
1.3999
1.39995
1.39992
1.39997
1.39995
1.39995
1.40002
1.39996
1.40001
1.39981
1.40049
1.39941
1.40031
1.39998
1.39998
1.40027
1.39914
1.40087
1.40038
1.39835
1.40117
1.40078
1.39813
1.40088
1.40093
1.39841
1.40091
1.40014
1.39934
1.40057
1.39974
1.40009
1.40003
1.39988
1.40017
1.39987
1.40006
1.40023
1.40017
1.40055
1.40088
1.40151
1.403
1.40614
1.41335
1.42586
1.44027
1.45106
1.45467
1.45133
1.4437
1.43458
1.42571
1.41746
1.40932
1.401
1.39254
1.38447
1.378
1.37366
1.37186
1.37309
1.37838
1.38959
1.40565
1.42644
1.45224
1.47522
1.48549
1.48089
1.47126
1.46387
1.45807
1.44974
1.43995
1.42752
1.42184
1.41492
1.41191
1.41108
1.4043
1.407
1.40257
1.40302
1.402
1.40098
1.40116
1.40049
1.40041
1.40021
1.4001
1.40001
1.39997
1.39993
1.3999
1.3999
1.39989
1.3999
1.39989
1.39993
1.3999
1.39995
1.39991
1.40002
1.39982
1.40021
1.39964
1.40028
1.39998
1.3996
1.40047
1.39994
1.39967
1.40041
1.39939
1.401
1.39945
1.39909
1.40163
1.39972
1.39847
1.4015
1.40031
1.39828
1.40135
1.40017
1.3988
1.40107
1.39965
1.39982
1.40031
1.39985
1.40011
1.39984
1.4001
1.39999
1.39995
1.40028
1.40019
1.40046
1.40098
1.40177
1.40357
1.40752
1.41627
1.43043
1.44496
1.45368
1.45388
1.44707
1.43665
1.42563
1.41544
1.40587
1.39619
1.38601
1.37548
1.36568
1.35768
1.3522
1.34954
1.34871
1.3495
1.35358
1.3627
1.37817
1.40239
1.43702
1.4719
1.49252
1.49374
1.48305
1.47004
1.45853
1.44825
1.43873
1.42597
1.42365
1.41357
1.41347
1.4091
1.40542
1.40704
1.40188
1.40375
1.40156
1.40131
1.40105
1.40056
1.40043
1.40023
1.40013
1.40003
1.39999
1.39994
1.39993
1.3999
1.39991
1.39993
1.3999
1.39995
1.3999
1.39996
1.39994
1.39995
1.39998
1.39999
1.39997
1.39988
1.40044
1.39924
1.40054
1.40006
1.4
1.39928
1.4005
1.40118
1.39806
1.40021
1.40192
1.39854
1.39909
1.40198
1.39951
1.39855
1.40177
1.3994
1.39938
1.40098
1.39946
1.40005
1.40013
1.39992
1.39999
1.40002
1.40003
1.39993
1.40019
1.40021
1.40042
1.4011
1.40207
1.4042
1.40909
1.41936
1.43481
1.44873
1.45479
1.45155
1.44157
1.42894
1.41663
1.40553
1.39507
1.3842
1.37258
1.36091
1.35051
1.34246
1.33763
1.33579
1.33684
1.34009
1.34362
1.34791
1.35357
1.36238
1.38236
1.41694
1.45755
1.48717
1.49779
1.49178
1.47924
1.46279
1.45067
1.43775
1.42742
1.42259
1.41335
1.41443
1.40806
1.40708
1.4053
1.40337
1.40315
1.40183
1.40148
1.40101
1.40069
1.40045
1.40028
1.40016
1.40006
1.40001
1.39996
1.39994
1.39991
1.39994
1.39991
1.39994
1.39991
1.39998
1.39985
1.40019
1.3996
1.40038
1.39975
1.39986
1.40045
1.39966
1.39987
1.40015
1.40013
1.40066
1.39784
1.40174
1.40114
1.39721
1.40088
1.40194
1.39811
1.39948
1.40208
1.39878
1.39935
1.40159
1.39884
1.40025
1.40048
1.39941
1.40031
1.39993
1.3999
1.40017
1.39993
1.39995
1.40015
1.40014
1.40042
1.40129
1.40237
1.40491
1.41083
1.42248
1.43876
1.45147
1.4546
1.44807
1.43539
1.42116
1.40805
1.39654
1.38563
1.37401
1.36182
1.35013
1.34056
1.33439
1.33126
1.32996
1.33038
1.33307
1.33827
1.34494
1.35147
1.35695
1.36262
1.37799
1.40745
1.444
1.47459
1.49057
1.49123
1.48279
1.46633
1.45486
1.4377
1.43033
1.42145
1.4154
1.41392
1.40787
1.40827
1.40471
1.40391
1.40303
1.40198
1.40157
1.40105
1.40075
1.40049
1.40032
1.40017
1.40009
1.40001
1.39998
1.39994
1.39994
1.39996
1.39991
1.39997
1.39993
1.39994
1.39997
1.40003
1.39986
1.4
1.40024
1.39939
1.40077
1.39967
1.39984
1.39943
1.40172
1.39948
1.39741
1.40326
1.40008
1.39695
1.40189
1.40138
1.39766
1.40037
1.40174
1.39818
1.40047
1.40077
1.39896
1.40064
1.39976
1.39998
1.40026
1.39965
1.40023
1.39993
1.39983
1.40027
1.40017
1.40036
1.40152
1.40266
1.40563
1.41265
1.42551
1.44215
1.45326
1.45339
1.44385
1.42901
1.41366
1.40024
1.38881
1.37784
1.36626
1.35455
1.34434
1.3376
1.33472
1.33387
1.33277
1.32985
1.32592
1.32425
1.32764
1.33674
1.34919
1.36039
1.37047
1.38553
1.41064
1.44077
1.46747
1.48165
1.48489
1.47847
1.46632
1.45503
1.43895
1.43188
1.42142
1.41698
1.41311
1.40928
1.40765
1.40521
1.40408
1.40297
1.40216
1.40157
1.4011
1.40076
1.4005
1.40032
1.40018
1.40009
1.40001
1.39999
1.39997
1.39996
1.39994
1.39995
1.39992
1.40007
1.39969
1.40037
1.39964
1.4001
1.40012
1.39969
1.40021
1.39997
1.40034
1.3996
1.39866
1.4034
1.39813
1.3975
1.404
1.39949
1.397
1.40221
1.401
1.39768
1.40093
1.40089
1.39862
1.40088
1.39983
1.39969
1.40032
1.3998
1.4003
1.39973
1.40004
1.4001
1.39971
1.40025
1.40029
1.40031
1.4017
1.40299
1.4064
1.41449
1.42831
1.44491
1.45425
1.45146
1.43929
1.42272
1.40669
1.39342
1.38243
1.37202
1.3613
1.35133
1.34452
1.34293
1.34539
1.34816
1.34763
1.34239
1.33358
1.32362
1.31646
1.31614
1.324
1.33912
1.35661
1.37471
1.39527
1.41922
1.44418
1.46608
1.47758
1.48115
1.47293
1.46411
1.45136
1.43978
1.4309
1.42198
1.41791
1.41246
1.40993
1.40752
1.40537
1.40418
1.40297
1.4022
1.40156
1.40111
1.40075
1.4005
1.4003
1.40018
1.40008
1.40002
1.40003
1.39995
1.39998
1.39993
1.39997
1.39997
1.39999
1.39982
1.40016
1.40004
1.39963
1.40052
1.39953
1.40013
1.39992
1.4012
1.39809
1.39962
1.40373
1.39699
1.39854
1.40375
1.39881
1.39782
1.4023
1.40011
1.39818
1.40144
1.40001
1.39909
1.40074
1.39982
1.40002
1.4
1.39997
1.39995
1.39996
1.40014
1.39984
1.40014
1.40023
1.40027
1.40183
1.40335
1.40728
1.4163
1.43083
1.44705
1.45461
1.4491
1.43461
1.41674
1.4004
1.38759
1.37751
1.36818
1.35917
1.35233
1.35059
1.35586
1.36562
1.374
1.3769
1.3736
1.36508
1.35234
1.33677
1.32148
1.31135
1.31167
1.32525
1.34876
1.37578
1.40226
1.426
1.44802
1.46658
1.47648
1.47826
1.46987
1.46154
1.44871
1.4387
1.42981
1.42214
1.4174
1.41278
1.40982
1.40733
1.40546
1.40405
1.40295
1.40214
1.40151
1.40105
1.4007
1.40046
1.40027
1.40016
1.40005
1.40004
1.40001
1.39996
1.39997
1.39998
1.39987
1.4002
1.39967
1.40017
1.39992
1.40009
1.39997
1.39982
1.40039
1.39932
1.40025
1.40188
1.39671
1.40069
1.40353
1.39659
1.39903
1.40352
1.39867
1.39815
1.40213
1.39984
1.39882
1.40109
1.39952
1.39988
1.40052
1.39967
1.40007
1.39995
1.39989
1.40016
1.39999
1.39983
1.40017
1.40016
1.40025
1.40197
1.40376
1.40812
1.418
1.43307
1.44862
1.45457
1.44656
1.43002
1.41126
1.39482
1.38278
1.37396
1.36609
1.35971
1.35691
1.36096
1.37316
1.38901
1.40203
1.40922
1.41042
1.40594
1.39515
1.37816
1.35702
1.33505
1.31621
1.30791
1.31628
1.34018
1.37357
1.40693
1.4328
1.45171
1.46499
1.47431
1.47467
1.46834
1.45783
1.44723
1.43717
1.4284
1.42202
1.41679
1.41255
1.40962
1.40707
1.4053
1.40386
1.40281
1.402
1.4014
1.40095
1.40063
1.40039
1.40023
1.40012
1.40006
1.40004
1.39998
1.39999
1.39996
1.39997
1.39991
1.40017
1.39981
1.39987
1.40032
1.39977
1.40012
1.39986
1.40043
1.39879
1.40113
1.40124
1.39681
1.40124
1.40241
1.39733
1.39962
1.40238
1.39868
1.39921
1.40165
1.39912
1.39962
1.40094
1.39952
1.40007
1.3999
1.39993
1.40032
1.39977
1.40012
1.39999
1.39966
1.40016
1.40025
1.40033
1.40209
1.40421
1.40889
1.41955
1.43498
1.44973
1.4543
1.44397
1.42569
1.40639
1.38993
1.37893
1.37159
1.36552
1.36219
1.36359
1.37295
1.38988
1.40677
1.4182
1.4247
1.42714
1.42474
1.41655
1.40292
1.38665
1.36951
1.34983
1.32815
1.31343
1.31569
1.33719
1.37228
1.40836
1.43576
1.45461
1.46555
1.47196
1.47028
1.46468
1.45508
1.44454
1.43555
1.42719
1.42102
1.41601
1.4121
1.40907
1.40673
1.40495
1.40359
1.40257
1.40179
1.40123
1.40081
1.40053
1.4003
1.40018
1.40013
1.40003
1.40002
1.39997
1.39998
1.40002
1.39984
1.40015
1.39993
1.40009
1.39966
1.40027
1.4002
1.39942
1.40064
1.40007
1.39834
1.40206
1.40048
1.39706
1.40154
1.40191
1.39749
1.39985
1.40214
1.39878
1.3994
1.40109
1.39945
1.40016
1.40014
1.39965
1.40018
1.39991
1.40023
1.39991
1.39988
1.40006
1.39977
1.4001
1.4003
1.40038
1.40214
1.40465
1.40966
1.42096
1.43656
1.4505
1.45389
1.44151
1.42176
1.40215
1.3857
1.37594
1.37027
1.3659
1.36555
1.3708
1.38368
1.40086
1.4121
1.41422
1.41328
1.41252
1.41042
1.40572
1.39822
1.38822
1.37678
1.3647
1.34943
1.33237
1.32203
1.32459
1.34249
1.37337
1.40866
1.43758
1.45554
1.46552
1.46888
1.46773
1.46006
1.45162
1.44185
1.43316
1.42561
1.41978
1.41495
1.41131
1.40838
1.40617
1.40447
1.4032
1.40224
1.40154
1.40102
1.40066
1.40041
1.40023
1.40016
1.40006
1.40003
1.39999
1.39999
1.39998
1.40003
1.39983
1.40012
1.40009
1.39985
1.39996
1.40001
1.40032
1.39941
1.40073
1.39987
1.3987
1.40163
1.40029
1.39816
1.40075
1.40122
1.39863
1.40008
1.40093
1.39903
1.40032
1.4005
1.39935
1.40009
1.40008
1.40018
1.40006
1.39984
1.39992
1.39991
1.40007
1.39998
1.40007
1.40023
1.40035
1.40216
1.40507
1.41043
1.42221
1.43787
1.45101
1.45337
1.43934
1.41833
1.3985
1.38213
1.37378
1.36963
1.36663
1.36893
1.37674
1.39009
1.40234
1.40171
1.38929
1.37629
1.3699
1.37093
1.37778
1.38393
1.38454
1.37788
1.36607
1.35336
1.34
1.32848
1.32459
1.33187
1.35215
1.38155
1.41179
1.4375
1.45451
1.46472
1.46637
1.46329
1.45661
1.44752
1.43879
1.43062
1.42374
1.41815
1.41372
1.41022
1.40752
1.40545
1.40389
1.40273
1.40186
1.40125
1.4008
1.4005
1.40028
1.40019
1.4001
1.40003
1.40002
1.39998
1.39999
1.40004
1.39993
1.4
1.39989
1.40036
1.39971
1.39985
1.40045
1.39963
1.39986
1.40097
1.39911
1.39942
1.4015
1.39975
1.39862
1.401
1.40079
1.39862
1.40022
1.40082
1.39946
1.39996
1.40007
1.4
1.40015
1.39995
1.39996
1.39992
1.39999
1.40004
1.40004
1.39991
1.39998
1.40018
1.4004
1.40226
1.40549
1.41117
1.42323
1.43893
1.45131
1.45279
1.43766
1.41539
1.39541
1.37944
1.37207
1.36932
1.36768
1.37119
1.37942
1.39023
1.3927
1.37389
1.34319
1.31607
1.30309
1.30658
1.32678
1.35354
1.37531
1.38837
1.38771
1.37535
1.35747
1.33811
1.32477
1.32461
1.33811
1.36103
1.38904
1.41687
1.43934
1.45459
1.46148
1.4638
1.45921
1.45231
1.44373
1.43542
1.42782
1.42149
1.41629
1.41219
1.40897
1.4065
1.40463
1.40324
1.40221
1.40147
1.40095
1.40059
1.40035
1.40023
1.40012
1.40005
1.40003
1.39999
1.39999
1.39997
1.40008
1.39993
1.39997
1.39999
1.40014
1.40003
1.39961
1.40052
1.39974
1.39969
1.40083
1.39959
1.39938
1.40068
1.40039
1.39919
1.4001
1.40048
1.39965
1.40016
1.40004
1.39964
1.40028
1.4002
1.39985
1.39991
1.3999
1.40004
1.40012
1.40003
1.39996
1.39978
1.39993
1.40022
1.40053
1.40236
1.40582
1.41187
1.42407
1.43976
1.45146
1.45226
1.43645
1.41294
1.39303
1.37749
1.37038
1.36961
1.3688
1.37106
1.37851
1.38467
1.37211
1.32799
1.27403
1.22982
1.20557
1.20726
1.23469
1.28075
1.32631
1.36591
1.39414
1.39953
1.38657
1.3661
1.34602
1.33278
1.33096
1.34373
1.3688
1.39709
1.4227
1.44107
1.45427
1.46012
1.45975
1.45524
1.44783
1.43968
1.4318
1.42483
1.41898
1.41425
1.41051
1.40761
1.40541
1.40377
1.40257
1.4017
1.4011
1.40068
1.40041
1.40026
1.40014
1.40007
1.40002
1.40002
1.39999
1.39998
1.40001
1.40001
1.40006
1.3998
1.40016
1.40006
1.39984
1.40016
1.4
1.39971
1.40037
1.40008
1.39962
1.40006
1.4004
1.39981
1.39956
1.40053
1.40022
1.39937
1.40016
1.4003
1.39991
1.39998
1.39984
1.40005
1.40013
1.40001
1.40002
1.39985
1.39992
1.39992
1.4
1.40024
1.40058
1.40237
1.40606
1.41254
1.42479
1.44035
1.45157
1.45179
1.43567
1.41126
1.39124
1.37603
1.36893
1.37036
1.36942
1.36887
1.37531
1.37465
1.34417
1.27123
1.18429
1.11431
1.06987
1.06387
1.09478
1.15564
1.22661
1.29183
1.34917
1.38461
1.39245
1.38472
1.36997
1.35256
1.34027
1.34119
1.35556
1.37897
1.40466
1.42725
1.44441
1.45374
1.45786
1.45614
1.45073
1.4433
1.43547
1.42808
1.42167
1.41635
1.41208
1.40875
1.4062
1.40431
1.40292
1.40193
1.40124
1.40077
1.40046
1.40029
1.40015
1.40009
1.40002
1.40002
1.40001
1.40001
1.39997
1.40003
1.4
1.40008
1.39987
1.39998
1.40029
1.39966
1.40012
1.40027
1.39959
1.40001
1.40043
1.39992
1.39947
1.40031
1.40041
1.39961
1.39989
1.40015
1.40006
1.4001
1.39986
1.39992
1.40003
1.40011
1.40007
1.39989
1.40001
1.39988
1.39992
1.40004
1.40003
1.40013
1.40058
1.40244
1.40627
1.41317
1.42539
1.44068
1.45166
1.45134
1.43534
1.41051
1.38976
1.37514
1.36801
1.37059
1.37002
1.36624
1.37005
1.36039
1.31346
1.22034
1.09626
0.984098
0.907349
0.884044
0.913734
0.985536
1.08609
1.18483
1.27136
1.34211
1.3827
1.39278
1.38298
1.36496
1.35108
1.34663
1.35173
1.36711
1.38927
1.41333
1.43252
1.44623
1.45376
1.45534
1.45228
1.44611
1.43866
1.43114
1.42428
1.41843
1.41365
1.40988
1.40699
1.40484
1.40327
1.40215
1.40137
1.40085
1.40051
1.40031
1.40017
1.40009
1.40005
1.40001
1.40002
1.40002
1.4
1.4
1.39999
1.40005
1.4
1.39997
1.40001
1.39998
1.40011
1.39995
1.39986
1.40025
1.39993
1.39984
1.40013
1.40011
1.39998
1.39982
1.39995
1.40032
1.4
1.39974
1.4
1.40017
1.40002
1.40001
1.4
1.39983
1.4
1.40007
1.39997
1.39996
1.39998
1.40005
1.4006
1.40259
1.40645
1.41372
1.42589
1.44079
1.45174
1.45096
1.43545
1.41063
1.38862
1.37489
1.36757
1.36978
1.37142
1.36431
1.3616
1.34364
1.28245
1.18259
1.04202
0.884962
0.759881
0.704653
0.725273
0.800021
0.917582
1.05168
1.17746
1.28805
1.36584
1.39919
1.39873
1.38292
1.36545
1.35238
1.35008
1.35998
1.37853
1.40011
1.42061
1.43761
1.4482
1.45306
1.45247
1.448
1.44129
1.43388
1.42673
1.42043
1.41518
1.41099
1.40777
1.40535
1.40359
1.40235
1.40149
1.40092
1.40054
1.40033
1.40019
1.40009
1.40006
1.40002
1.40001
1.40001
1.40002
1.40001
1.39999
1.39999
1.40006
1.39999
1.39993
1.40017
1.39987
1.39995
1.40023
1.39995
1.39977
1.4001
1.40031
1.3998
1.3997
1.40028
1.40022
1.3998
1.39988
1.40006
1.40008
1.40009
1.39994