/*--------------------------------*- C++ -*----------------------------------*\
  =========                 |
  \\      /  F ield         | OpenFOAM: The Open Source CFD Toolbox
   \\    /   O peration     | Website:  https://openfoam.org
    \\  /    A nd           | Version:  6
     \\/     M anipulation  |
\*---------------------------------------------------------------------------*/
FoamFile
{
    version     2.0;
    format      ascii;
    class       volScalarField;
    location    "3.32";
    object      p;
}
// * * * * * * * * * * * * * * * * * * * * * * * * * * * * * * * * * * * * * //

dimensions      [1 -1 -2 0 0 0 0];

internalField   nonuniform List<scalar> 
10000
(
1
1
1
1
1
1
1
1
1
1
1
1
1
1
1
1
1
1
1
1
1
1
1
1
1
1
1
1
1
1
1
1
1
1
1
1
1
1
1
1
1
1
1
1
1
0.999999
0.999997
0.999994
0.99999
0.999985
0.999979
0.999971
0.999963
0.999954
0.999946
0.99994
0.999936
0.999936
0.999939
0.999948
0.99996
0.999975
0.999992
1.00001
1.00003
1.00005
1.00007
1.00008
1.00009
1.00009
1.00009
1.00009
1.00008
1.00007
1.00006
1.00005
1.00004
1.00003
1.00003
1.00002
1.00001
1.00001
1.00001
1
1
1
1
1
1
1
1
1
1
1
1
1
1
1
1
1
1
1
1
1
1
1
1
1
1
1
1
1
1
1
1
1
1
1
1
1
1
1
1
1
1
1
1
1
1
1
1
1
1
1
1
1
1
1
1
1
1
1
1
1
0.999999
0.999998
0.999995
0.999992
0.999986
0.999979
0.999971
0.99996
0.999949
0.999938
0.999928
0.999922
0.999919
0.999921
0.999928
0.999942
0.99996
0.999983
1.00001
1.00004
1.00006
1.00009
1.00011
1.00012
1.00013
1.00014
1.00014
1.00013
1.00012
1.00011
1.00009
1.00008
1.00006
1.00005
1.00004
1.00003
1.00002
1.00001
1.00001
1
1
1
1
1
1
1
1
1
1
1
1
1
1
1
1
1
1
1
1
1
1
1
1
1
1
1
1
1
1
1
1
1
1
1
1
1
1
1
1
1
1
1
1
1
1
1
1
1
1
1
1
1
1
1
1
1
1
1
1
1
0.999999
0.999997
0.999994
0.999989
0.999982
0.999972
0.99996
0.999947
0.999933
0.99992
0.99991
0.999903
0.999903
0.99991
0.999925
0.999947
0.999976
1.00001
1.00005
1.00008
1.00012
1.00015
1.00017
1.00019
1.0002
1.0002
1.0002
1.00019
1.00017
1.00015
1.00013
1.00011
1.00009
1.00007
1.00005
1.00004
1.00003
1.00002
1.00001
1.00001
1
1
1
1
1
1
1
1
1
1
1
1
1
1
1
1
1
1
1
1
1
1
1
1
1
1
1
1
1
1
1
1
1
1
1
1
1
1
1
1
1
1
1
1
1
1
1
1
1
1
1
1
1
1
1
1
1
1
1
1
0.999999
0.999997
0.999993
0.999986
0.999976
0.999963
0.999948
0.999932
0.999915
0.999901
0.999892
0.99989
0.999897
0.999914
0.999941
0.999978
1.00002
1.00007
1.00013
1.00018
1.00022
1.00026
1.00029
1.00031
1.00031
1.00031
1.0003
1.00028
1.00025
1.00022
1.00019
1.00015
1.00012
1.00009
1.00007
1.00005
1.00004
1.00002
1.00001
1.00001
1
1
1
1
1
1
1
1
1
1
1
1
1
1
1
1
1
1
1
1
1
1
1
1
1
1
1
1
1
1
1
1
1
1
1
1
1
1
1
1
1
1
1
1
1
1
1
1
1
1
1
1
1
1
1
1
1
1
1
1
1
0.999997
0.999991
0.999982
0.99997
0.999954
0.999936
0.999916
0.999899
0.999887
0.999883
0.99989
0.999911
0.999947
0.999996
1.00006
1.00013
1.0002
1.00028
1.00034
1.0004
1.00045
1.00048
1.00049
1.00049
1.00047
1.00044
1.0004
1.00036
1.00031
1.00026
1.00021
1.00017
1.00013
1.0001
1.00007
1.00005
1.00003
1.00002
1.00001
1.00001
1
1
0.999999
0.999999
0.999999
0.999999
0.999999
1
1
1
1
1
1
1
1
1
1
1
1
1
1
1
1
1
1
1
1
1
1
1
1
1
1
1
1
1
1
1
1
1
1
1
1
1
1
1
1
1
1
1
1
1
1
1
1
1
1
1
1
1
0.999997
0.99999
0.999979
0.999963
0.999945
0.999924
0.999904
0.99989
0.999885
0.999893
0.99992
0.999967
1.00003
1.00012
1.00022
1.00033
1.00044
1.00054
1.00064
1.00071
1.00076
1.00079
1.00079
1.00076
1.00072
1.00067
1.0006
1.00052
1.00045
1.00037
1.0003
1.00024
1.00018
1.00013
1.00009
1.00006
1.00004
1.00002
1.00001
1.00001
1
1
0.999999
0.999998
0.999998
0.999999
0.999999
0.999999
1
1
1
1
1
1
1
1
1
1
1
1
1
1
1
1
1
1
1
1
1
1
1
1
1
1
1
1
1
1
1
1
1
1
1
1
1
1
1
1
1
1
1
1
1
1
1
1
1.00001
1.00001
1.00001
1
0.999999
0.99999
0.999976
0.999959
0.999938
0.999917
0.999901
0.999896
0.999908
0.999942
1.00001
1.0001
1.00022
1.00036
1.00052
1.00069
1.00085
1.001
1.00113
1.00122
1.00127
1.00128
1.00126
1.0012
1.00112
1.00101
1.00089
1.00077
1.00065
1.00053
1.00042
1.00033
1.00025
1.00018
1.00013
1.00008
1.00005
1.00003
1.00002
1.00001
1
0.999998
0.999997
0.999997
0.999997
0.999998
0.999998
0.999999
0.999999
1
1
1
1
1
1
1
1
1
1
1
1
1
1
1
1
1
1
1
1
1
1
1
1
1
1
1
1
1
1
1
1
1
1
1
1
1
1
1
1
1
1
1
1
1
1
1.00001
1.00001
1.00001
1.00001
1.00001
1
0.999992
0.999976
0.999958
0.999937
0.999921
0.999917
0.999933
0.999978
1.00006
1.00019
1.00035
1.00056
1.00079
1.00105
1.0013
1.00154
1.00175
1.00191
1.00203
1.00208
1.00207
1.002
1.00188
1.00172
1.00154
1.00134
1.00114
1.00095
1.00077
1.0006
1.00046
1.00034
1.00025
1.00017
1.00011
1.00007
1.00004
1.00002
1.00001
0.999999
0.999996
0.999995
0.999995
0.999996
0.999997
0.999998
0.999998
0.999999
0.999999
1
1
1
1
1
1
1
1
1
1
1
1
1
1
1
1
1
1
1
1
1
1
1
1
1
1
1
1
1
1
1
1
1
1
1
1
1
1
1
1
1
1
1
1
1.00001
1.00001
1.00001
1.00002
1.00002
1.00001
1.00001
0.999998
0.999981
0.999964
0.999949
0.999947
0.999968
1.00002
1.00013
1.00029
1.00052
1.0008
1.00114
1.00151
1.0019
1.00228
1.00263
1.00292
1.00314
1.00328
1.00332
1.00327
1.00313
1.00292
1.00265
1.00235
1.00203
1.00171
1.0014
1.00112
1.00087
1.00066
1.00048
1.00034
1.00023
1.00015
1.00009
1.00005
1.00002
1.00001
0.999997
0.999992
0.999991
0.999992
0.999993
0.999995
0.999996
0.999997
0.999998
0.999999
0.999999
1
1
1
1
1
1
1
1
1
1
1
1
1
1
1
1
1
1
1
1
1
1
1
1
1
1
1
1
1
1
1
1
1
1
1
1
1
1
1
1
1
1
1.00001
1.00001
1.00001
1.00002
1.00002
1.00003
1.00002
1.00002
1.00001
0.999995
0.999984
0.999984
1.00001
1.00008
1.0002
1.00041
1.0007
1.00108
1.00155
1.00208
1.00265
1.00322
1.00378
1.00427
1.00468
1.00497
1.00513
1.00516
1.00505
1.00482
1.00447
1.00404
1.00356
1.00305
1.00255
1.00208
1.00164
1.00127
1.00095
1.00069
1.00048
1.00032
1.00021
1.00012
1.00006
1.00003
1
0.999992
0.999987
0.999986
0.999988
0.99999
0.999992
0.999994
0.999996
0.999997
0.999998
0.999999
0.999999
1
1
1
1
1
1
1
1
1
1
1
1
1
1
1
1
1
1
1
1
1
1
1
1
1
1
1
1
1
1
1
1
1
1
1
1
1
1
1
1
1.00001
1.00001
1.00002
1.00002
1.00003
1.00003
1.00004
1.00004
1.00004
1.00003
1.00002
1.00003
1.00006
1.00013
1.00028
1.00053
1.00089
1.00137
1.00199
1.00271
1.00351
1.00435
1.00519
1.00597
1.00666
1.00721
1.00759
1.00779
1.00779
1.0076
1.00723
1.00671
1.00606
1.00533
1.00456
1.0038
1.00308
1.00243
1.00186
1.00138
1.00099
1.00069
1.00046
1.00029
1.00017
1.00009
1.00003
1
0.999987
0.99998
0.99998
0.999982
0.999985
0.999988
0.999992
0.999994
0.999996
0.999998
0.999998
0.999999
0.999999
1
1
1
1
1
1
1
1
1
1
1
1
1
1
1
1
1
1
1
1
1
1
1
1
1
1
1
1
1
1
1
1
1
1
1
1
1
1
1.00001
1.00001
1.00001
1.00002
1.00003
1.00004
1.00005
1.00006
1.00006
1.00006
1.00006
1.00007
1.0001
1.00019
1.00035
1.00063
1.00106
1.00165
1.00243
1.00337
1.00445
1.00562
1.00682
1.00798
1.00904
1.00996
1.01068
1.01116
1.0114
1.01137
1.01109
1.01056
1.00981
1.00889
1.00784
1.00672
1.0056
1.00454
1.00357
1.00273
1.00202
1.00145
1.001
1.00066
1.00041
1.00024
1.00012
1.00005
1
0.999981
0.999972
0.999971
0.999974
0.999978
0.999983
0.999988
0.999992
0.999994
0.999996
0.999998
0.999999
0.999999
1
1
1
1
1
1
1
1
1
1
1
1
1
1
1
1
1
1
1
1
1
1
1
1
1
1
1
1
1
1
1
1
1
1
1
1
1
1
1.00001
1.00001
1.00002
1.00003
1.00004
1.00006
1.00007
1.00008
1.00009
1.0001
1.00011
1.00015
1.00024
1.00041
1.00071
1.00119
1.00189
1.00283
1.00401
1.00539
1.00694
1.00857
1.0102
1.01174
1.01313
1.01429
1.01518
1.01578
1.01605
1.01599
1.01561
1.01491
1.01392
1.01268
1.01125
1.0097
1.00813
1.00661
1.00521
1.00399
1.00295
1.00211
1.00146
1.00096
1.0006
1.00035
1.00018
1.00007
1.00001
0.999974
0.999961
0.999959
0.999963
0.99997
0.999977
0.999983
0.999988
0.999992
0.999995
0.999997
0.999998
0.999999
0.999999
1
1
1
1
1
1
1
1
1
1
1
1
1
1
1
1
1
1
1
1
1
1
1
1
1
1
1
1
1
1
1
1
1
1
1
1
1.00001
1.00001
1.00002
1.00003
1.00004
1.00006
1.00008
1.0001
1.00011
1.00013
1.00015
1.0002
1.00028
1.00045
1.00076
1.00128
1.00205
1.00314
1.00455
1.00626
1.00821
1.01033
1.01249
1.0146
1.01654
1.01824
1.01962
1.02066
1.02133
1.02163
1.02154
1.02108
1.02025
1.01904
1.0175
1.01567
1.01365
1.01154
1.00945
1.0075
1.00576
1.00428
1.00307
1.00212
1.0014
1.00088
1.00051
1.00027
1.00011
1.00002
0.99997
0.99995
0.999946
0.999951
0.999959
0.999968
0.999977
0.999984
0.999989
0.999993
0.999995
0.999997
0.999998
0.999999
1
1
1
1
1
1
1
1
1
1
1
1
1
1
1
1
1
1
1
1
1
1
1
1
1
1
1
1
1
1
1
1
1
1
1
1.00001
1.00001
1.00002
1.00003
1.00004
1.00006
1.00008
1.0001
1.00013
1.00016
1.00019
1.00023
1.00032
1.00048
1.00079
1.00131
1.00213
1.00332
1.00493
1.00696
1.00934
1.01197
1.01472
1.01743
1.01999
1.02226
1.02417
1.02568
1.02677
1.02745
1.02774
1.02763
1.02714
1.02625
1.02494
1.0232
1.02106
1.01858
1.01591
1.01319
1.01058
1.0082
1.00614
1.00443
1.00308
1.00205
1.00129
1.00076
1.00041
1.00018
1.00004
0.999971
0.999939
0.999931
0.999935
0.999946
0.999958
0.999969
0.999978
0.999985
0.99999
0.999994
0.999996
0.999998
0.999999
0.999999
0.999999
1
1
1
1
1
1
1
1
1
1
1
1
1
1
1
1
1
1
1
1
1
1
1
1
1
1
1
1
1
1
1
1
1
1.00001
1.00001
1.00002
1.00003
1.00005
1.00007
1.0001
1.00014
1.00017
1.00021
1.00026
1.00035
1.0005
1.00078
1.00129
1.00211
1.00336
1.00513
1.00742
1.01021
1.01336
1.01671
1.02006
1.02324
1.02609
1.02849
1.03041
1.03184
1.03282
1.03338
1.03359
1.03347
1.03303
1.03224
1.03103
1.02932
1.02708
1.02434
1.0212
1.01787
1.01453
1.01141
1.00863
1.00629
1.00441
1.00296
1.00189
1.00113
1.00062
1.00029
1.00009
0.999983
0.999932
0.999916
0.999918
0.99993
0.999945
0.999959
0.999971
0.99998
0.999987
0.999992
0.999995
0.999997
0.999998
0.999999
0.999999
1
1
1
1
1
1
1
1
1
1
1
1
1
1
1
1
1
1
1
1
1
1
1
1
1
1
1
1
1
1
1
1
1
1.00001
1.00002
1.00003
1.00004
1.00007
1.0001
1.00013
1.00018
1.00022
1.00028
1.00037
1.00051
1.00076
1.00122
1.00201
1.00326
1.0051
1.0076
1.01073
1.01437
1.01832
1.02232
1.02611
1.02949
1.03231
1.03451
1.03609
1.03714
1.03774
1.03802
1.03805
1.03792
1.03763
1.03713
1.03632
1.03502
1.03308
1.03043
1.02712
1.02334
1.01936
1.01545
1.01186
1.00876
1.00622
1.00422
1.00273
1.00167
1.00094
1.00047
1.00018
1.00001
0.999933
0.999902
0.999901
0.999913
0.99993
0.999948
0.999963
0.999974
0.999983
0.999989
0.999993
0.999996
0.999998
0.999999
0.999999
1
1
1
1
1
1
1
1
1
1
1
1
1
1
1
1
1
1
1
1
1
1
1
1
1
1
1
1
1
1
1
1
1.00001
1.00001
1.00002
1.00004
1.00006
1.00009
1.00012
1.00017
1.00022
1.00029
1.00037
1.0005
1.00073
1.00113
1.00185
1.00303
1.00486
1.00745
1.01084
1.01492
1.01943
1.02406
1.02845
1.03231
1.03545
1.03775
1.03926
1.04006
1.04035
1.04029
1.04007
1.03983
1.03967
1.03962
1.03963
1.03955
1.03911
1.03802
1.03603
1.03307
1.02924
1.02485
1.02026
1.01586
1.0119
1.00857
1.00591
1.00388
1.00241
1.0014
1.00073
1.00031
1.00007
0.999947
0.999895
0.999884
0.999895
0.999914
0.999934
0.999953
0.999967
0.999978
0.999986
0.999991
0.999995
0.999997
0.999998
0.999999
0.999999
1
1
1
1
1
1
1
1
1
1
1
1
1
1
1
1
1
1
1
1
1
1
1
1
1
1
1
1
1
1
1
1.00001
1.00002
1.00003
1.00005
1.00007
1.00011
1.00016
1.00021
1.00028
1.00037
1.00049
1.00068
1.00103
1.00165
1.00272
1.00444
1.00701
1.01052
1.01492
1.01994
1.02517
1.03015
1.03447
1.03783
1.0401
1.04129
1.04156
1.04114
1.04031
1.03933
1.03845
1.03784
1.03763
1.03787
1.03853
1.03946
1.04031
1.04065
1.04002
1.03811
1.03489
1.03058
1.02562
1.02052
1.01572
1.01152
1.00808
1.0054
1.00342
1.00203
1.0011
1.00052
1.00017
0.999982
0.999897
0.999871
0.999877
0.999896
0.999919
0.999941
0.999959
0.999972
0.999982
0.999989
0.999993
0.999996
0.999998
0.999998
0.999999
1
1
1
1
1
1
1
1
1
1
1
1
1
1
1
1
1
1
1
1
1
1
1
1
1
1
1
1
1
1
1.00001
1.00001
1.00002
1.00003
1.00006
1.00009
1.00013
1.00019
1.00026
1.00035
1.00046
1.00064
1.00092
1.00144
1.00235
1.00389
1.00631
1.00979
1.01436
1.01979
1.02559
1.03115
1.03592
1.03949
1.04162
1.04235
1.04186
1.04044
1.03846
1.03628
1.03424
1.03261
1.03158
1.03128
1.03181
1.03317
1.03522
1.03762
1.03985
1.04123
1.04119
1.03938
1.03588
1.03109
1.02563
1.02012
1.01506
1.01076
1.00733
1.00474
1.00288
1.00162
1.00081
1.00032
1.00005
0.999913
0.999864
0.99986
0.999878
0.999904
0.999929
0.99995
0.999966
0.999978
0.999986
0.999991
0.999995
0.999997
0.999998
0.999999
0.999999
1
1
1
1
1
1
1
1
1
1
1
1
1
1
1
1
1
1
1
1
1
1
1
1
1
1
1
1
1
1.00001
1.00001
1.00003
1.00004
1.00007
1.00011
1.00016
1.00023
1.00032
1.00043
1.00058
1.00082
1.00124
1.00199
1.00329
1.00544
1.00872
1.01327
1.01894
1.02523
1.0314
1.03668
1.0405
1.04252
1.04274
1.04136
1.03877
1.03543
1.03179
1.02825
1.02518
1.02283
1.02139
1.02099
1.02175
1.0237
1.02679
1.03075
1.03503
1.03884
1.04131
1.04175
1.03992
1.03605
1.03077
1.02487
1.01909
1.01394
1.00968
1.00639
1.00398
1.00231
1.00121
1.00054
1.00015
0.999952
0.999868
0.999849
0.999862
0.999887
0.999915
0.999939
0.999959
0.999973
0.999983
0.99999
0.999994
0.999996
0.999998
0.999999
0.999999
1
1
1
1
1
1
1
1
1
1
1
1
1
1
1
1
1
1
1
1
1
1
1
1
1
1
1
1
1
1.00001
1.00002
1.00003
1.00005
1.00009
1.00013
1.0002
1.00028
1.00038
1.00052
1.00072
1.00106
1.00165
1.0027
1.00452
1.00743
1.01173
1.01742
1.02407
1.03085
1.03675
1.04095
1.04299
1.04278
1.04055
1.03677
1.032
1.0268
1.02165
1.01696
1.01304
1.01012
1.00835
1.00786
1.00874
1.0111
1.01498
1.02022
1.02637
1.03262
1.03793
1.04125
1.0419
1.03978
1.03541
1.02964
1.02342
1.01753
1.01245
1.00839
1.00534
1.00319
1.00175
1.00084
1.00031
1.00002
0.999887
0.999845
0.999848
0.999872
0.999901
0.999929
0.999951
0.999968
0.999979
0.999987
0.999992
0.999996
0.999997
0.999998
0.999999
1
1
1
1
1
1
1
1
1
1
1
1
1
1
1
1
1
1
1
1
1
1
1
1
1
1
1
1
1.00001
1.00001
1.00002
1.00004
1.00006
1.0001
1.00016
1.00023
1.00033
1.00045
1.00062
1.00089
1.00135
1.00217
1.00362
1.00607
1.0099
1.01533
1.02212
1.02943
1.03606
1.04086
1.04316
1.04274
1.03985
1.035
1.02887
1.02215
1.01543
1.00914
1.00365
0.999184
0.995912
0.993935
0.99334
0.994243
0.996795
1.00112
1.00722
1.01479
1.02314
1.03117
1.03759
1.04128
1.04168
1.03898
1.03398
1.02776
1.02137
1.01555
1.01072
1.00698
1.00428
1.00243
1.00124
1.00052
1.00012
0.999927
0.999851
0.99984
0.999859
0.999888
0.999918
0.999943
0.999962
0.999976
0.999985
0.999991
0.999995
0.999996
0.999998
0.999999
1
1
1
1
1
1
1
1
1
1
1
1
1
1
1
1
1
1
1
1
1
1
1
1
1
1
1
1
1.00001
1.00001
1.00002
1.00004
1.00007
1.00012
1.00018
1.00027
1.00038
1.00053
1.00074
1.00109
1.00171
1.00283
1.00477
1.00799
1.01287
1.01946
1.02711
1.03451
1.04019
1.04308
1.0428
1.03955
1.0339
1.02661
1.01851
1.01032
1.00255
0.9956
0.98969
0.984979
0.981552
0.979457
0.978759
0.979584
0.98213
0.986604
0.993127
1.00158
1.01144
1.02173
1.03105
1.03794
1.04136
1.04102
1.03747
1.0318
1.02526
1.01888
1.01332
1.00888
1.00557
1.00326
1.00174
1.0008
1.00027
0.999991
0.999871
0.999838
0.999849
0.999877
0.999908
0.999935
0.999956
0.999972
0.999982
0.999989
0.999994
0.999996
0.999998
0.999999
0.999999
1
1
1
1
1
1
1
1
1
1
1
1
1
1
1
1
1
1
1
1
1
1
1
1
1
1
1
1.00001
1.00002
1.00003
1.00005
1.00008
1.00014
1.00021
1.0003
1.00043
1.00061
1.00088
1.00134
1.00216
1.00364
1.00619
1.0103
1.01631
1.02393
1.032
1.03875
1.04265
1.04299
1.03982
1.03372
1.02557
1.01631
1.00679
0.997669
0.98938
0.982162
0.976138
0.971374
0.967895
0.965713
0.964883
0.96555
0.967953
0.97237
0.979012
0.987898
0.998706
1.01063
1.02235
1.03223
1.03881
1.04128
1.03977
1.03521
1.02895
1.02227
1.01611
1.01099
1.00706
1.00425
1.00236
1.00116
1.00046
1.00008
0.999908
0.999847
0.999844
0.999868
0.999898
0.999927
0.99995
0.999968
0.99998
0.999988
0.999993
0.999995
0.999997
0.999999
0.999999
1
1
1
1
1
1
1
1
1
1
1
1
1
1
1
1
1
1
1
1
1
1
1
1
1
1
1
1.00001
1.00002
1.00003
1.00006
1.0001
1.00015
1.00023
1.00034
1.00049
1.0007
1.00104
1.00163
1.00271
1.00462
1.00787
1.01298
1.0201
1.02848
1.03632
1.04163
1.04312
1.04059
1.03454
1.02591
1.01576
1.00511
0.994747
0.985208
0.976765
0.969511
0.963468
0.958649
0.955063
0.952733
0.951726
0.952207
0.954442
0.958745
0.965381
0.97446
0.985808
0.99882
1.01234
1.02475
1.03432
1.03976
1.0407
1.03776
1.03222
1.02556
1.01898
1.01325
1.00871
1.00537
1.00308
1.0016
1.00071
1.00021
0.999965
0.999866
0.999846
0.999862
0.999891
0.99992
0.999945
0.999964
0.999977
0.999986
0.999992
0.999995
0.999997
0.999998
0.999999
1
1
1
1
1
1
1
1
1
1
1
1
1
1
1
1
1
1
1
1
1
1
1
1
1
1
1
1.00001
1.00002
1.00004
1.00007
1.00011
1.00017
1.00026
1.00038
1.00055
1.0008
1.00122
1.00197
1.00335
1.00578
1.00983
1.01598
1.02408
1.03274
1.03966
1.04286
1.0416
1.03622
1.02762
1.01694
1.00538
0.993901
0.983178
0.973544
0.965074
0.957719
0.951447
0.946298
0.942359
0.939733
0.938539
0.938939
0.941166
0.945502
0.952217
0.961466
0.97318
0.986929
1.00177
1.0162
1.02838
1.0367
1.04027
1.0393
1.0349
1.02859
1.02181
1.0156
1.01048
1.00662
1.0039
1.00211
1.001
1.00037
1.00004
0.999899
0.999856
0.999861
0.999886
0.999915
0.99994
0.99996
0.999975
0.999985
0.999991
0.999994
0.999997
0.999998
0.999999
1
1
1
1
1
1
1
1
1
1
1
1
1
1
1
1
1
1
1
1
1
1
1
1
1
1
1.00001
1.00001
1.00002
1.00004
1.00007
1.00012
1.00018
1.00028
1.00041
1.0006
1.00091
1.00143
1.00237
1.0041
1.00712
1.01203
1.0192
1.02801
1.03639
1.04171
1.04241
1.0384
1.03047
1.01977
1.00759
0.995144
0.983307
0.972515
0.962841
0.954128
0.946211
0.939107
0.933028
0.928279
0.925156
0.923876
0.924557
0.927263
0.932095
0.939225
0.948824
0.96092
0.975249
0.991077
1.00709
1.02149
1.03243
1.03863
1.03984
1.03688
1.03123
1.0245
1.01794
1.01232
1.00795
1.0048
1.00268
1.00135
1.00056
1.00014
0.999947
0.999874
0.999865
0.999884
0.999911
0.999937
0.999958
0.999973
0.999983
0.99999
0.999994
0.999997
0.999998
0.999999
0.999999
1
1
1
1
1
1
1
1
1
1
1
1
1
1
1
1
1
1
1
1
1
1
1
1
1
1.00001
1.00001
1.00003
1.00004
1.00008
1.00013
1.00019
1.0003
1.00045
1.00066
1.00103
1.00166
1.00281
1.00494
1.00863
1.01442
1.02249
1.03163
1.03915
1.04243
1.04053
1.03399
1.02393
1.01162
0.998438
0.985554
0.973646
0.962834
0.952835
0.94322
0.93379
0.924783
0.916796
0.910534
0.906645
0.905542
0.907252
0.911448
0.917751
0.926026
0.936398
0.94904
0.963914
0.98053
0.997796
1.01403
1.0273
1.036
1.03946
1.03815
1.03342
1.02695
1.02021
1.01418
1.00934
1.00577
1.00331
1.00174
1.00079
1.00027
1.00001
0.999902
0.999876
0.999886
0.99991
0.999935
0.999956
0.999971
0.999982
0.999989
0.999993
0.999996
0.999998
0.999999
0.999999
1
1
1
1
1
1
1
1
1
1
1
1
1
1
1
1
1
1
1
1
1
1
1
1
1
1.00001
1.00001
1.00003
1.00004
1.00008
1.00014
1.0002
1.00032
1.00048
1.00071
1.00114
1.00193
1.00331
1.00588
1.01026
1.01693
1.02569
1.03473
1.04093
1.04196
1.03758
1.02887
1.01713
1.00367
0.989888
0.976861
0.964979
0.953907
0.94288
0.931184
0.91872
0.906194
0.894837
0.885993
0.880889
0.880338
0.884288
0.891717
0.901267
0.912072
0.924058
0.937613
0.953078
0.970335
0.988585
1.00633
1.02161
1.03262
1.03829
1.03874
1.03512
1.02911
1.02234
1.016
1.01075
1.00677
1.00398
1.00216
1.00104
1.00041
1.00009
0.99994
0.999893
0.999893
0.999912
0.999934
0.999955
0.99997
0.999981
0.999989
0.999993
0.999996
0.999998
0.999999
0.999999
1
1
1
1
1
1
1
1
1
1
1
1
1
1
1
1
1
1
1
1
1
1
1
1
1
1.00001
1.00001
1.00003
1.00005
1.00008
1.00014
1.0002
1.00033
1.00051
1.00076
1.00126
1.00221
1.00386
1.00687
1.01198
1.01947
1.02864
1.03716
1.04178
1.04058
1.03397
1.02347
1.01048
0.996252
0.982153
0.969125
0.957151
0.945261
0.932053
0.916527
0.898875
0.880566
0.863771
0.850756
0.843653
0.844014
0.851831
0.865057
0.880647
0.896319
0.91145
0.926677
0.942943
0.960738
0.979715
0.998639
1.01563
1.0287
1.03648
1.03873
1.03633
1.03094
1.02428
1.01773
1.01213
1.00778
1.00468
1.00261
1.00132
1.00057
1.00018
0.999988
0.999916
0.999904
0.999916
0.999936
0.999955
0.99997
0.999981
0.999988
0.999993
0.999996
0.999998
0.999999
0.999999
1
1
1
1
1
1
1
1
1
1
1
1
1
1
1
1
1
1
1
1
1
1
1
1
1
1.00001
1.00001
1.00003
1.00005
1.00008
1.00015
1.00021
1.00033
1.00054
1.00081
1.00137
1.00251
1.00445
1.0079
1.01373
1.02193
1.03122
1.0389
1.04186
1.03859
1.03004
1.01811
1.00424
0.98955
0.975304
0.962256
0.949861
0.936288
0.919307
0.897645
0.872011
0.844998
0.820124
0.800936
0.790787
0.792327
0.805816
0.827944
0.853236
0.877098
0.897768
0.916015
0.933613
0.951972
0.971451
0.991235
1.0096
1.02447
1.0342
1.0382
1.0371
1.03243
1.026
1.01934
1.01345
1.00878
1.00538
1.00307
1.00161
1.00075
1.00028
1.00004
0.999947
0.999919
0.999923
0.999939
0.999956
0.99997
0.999981
0.999988
0.999993
0.999996
0.999998
0.999999
0.999999
1
1
1
1
1
1
1
1
1
1
1
1
1
1
1
1
1
1
1
1
1
1
1
1
1
1.00001
1.00001
1.00003
1.00005
1.00007
1.00015
1.00021
1.00031
1.00056
1.00087
1.00147
1.00282
1.00507
1.00894
1.01543
1.02424
1.03339
1.04001
1.04137
1.03629
1.02606
1.013
0.998576
0.983665
0.969313
0.956067
0.942743
0.926383
0.903707
0.873175
0.836297
0.797355
0.761792
0.734698
0.720684
0.723608
0.744245
0.778088
0.816809
0.852649
0.881896
0.905097
0.924964
0.944143
0.964001
0.984355
1.00376
1.02013
1.0316
1.03726
1.03746
1.03359
1.02748
1.0208
1.01469
1.00974
1.00606
1.00354
1.00191
1.00093
1.00039
1.00011
0.999983
0.999939
0.999934
0.999945
0.999959
0.999972
0.999982
0.999989
0.999994
0.999996
0.999998
0.999999
1
1
1
1
1
1
1
1
1
1
1
1
1
1
1
1
1
1
1
1
1
1
1
1
1
1
1.00001
1.00001
1.00003
1.00005
1.00006
1.00014
1.00021
1.00029
1.00057
1.00093
1.00157
1.0031
1.00571
1.00996
1.017
1.02631
1.03516
1.0406
1.04049
1.0339
1.02226
1.00828
0.993579
0.978622
0.964098
0.950334
0.935451
0.915124
0.884758
0.84254
0.791276
0.737823
0.690156
0.654738
0.636868
0.641309
0.669566
0.716476
0.771123
0.822146
0.863004
0.89336
0.916725
0.937202
0.957459
0.978167
0.998306
1.01588
1.02886
1.03603
1.03748
1.03444
1.02871
1.02208
1.01582
1.01063
1.00672
1.00399
1.00221
1.00112
1.0005
1.00018
1.00002
0.999963
0.999948
0.999952
0.999963
0.999974
0.999983
0.999989
0.999994
0.999997
0.999998
0.999999
1
1
1
1
1
1
1
1
1
1
1
1
1
1
1
1
1
1
1
1
1
1
1
1
1
1
1.00001
1.00001
1.00002
1.00005
1.00005
1.00013
1.00022
1.00026
1.00055
1.001
1.00166
1.00334
1.00633
1.01094
1.01839
1.02809
1.03659
1.04081
1.03937
1.03162
1.01881
1.00404
0.989253
0.974405
0.959576
0.944858
0.927762
0.902457
0.862757
0.806629
0.738974
0.670261
0.611206
0.5688
0.547969
0.553804
0.588723
0.647842
0.718657
0.786425
0.841104
0.88058
0.908701
0.931051
0.951825
0.972758
0.993387
1.01189
1.02613
1.03464
1.03725
1.03501
1.02971
1.02318
1.01682
1.01144
1.00732
1.00441
1.0025
1.00131
1.00062
1.00025
1.00007
0.99999
0.999964
0.999962
0.999969
0.999977
0.999985
0.999991
0.999995
0.999997
0.999998
0.999999
1
1
1
1
1
1
1
1
1
1
1
1
1
1
1
1
1
1
1
1
1
1
1
1
1
1
1.00001
1.00001
1.00002
1.00005
1.00005
1.0001
1.00022
1.00024
1.00051
1.00106
1.00175
1.00352
1.0069
1.01187
1.01956
1.02955
1.03775
1.04079
1.03813
1.02954
1.01584
1.00035
0.985553
0.970967
0.955712
0.939544
0.919644
0.888808
0.839061
0.768273
0.684265
0.60181
0.533916
0.486878
0.464283
0.471012
0.510489
0.57906
0.663966
0.747908
0.817174
0.867029
0.900918
0.925665
0.947092
0.968163
0.989084
1.00827
1.02353
1.03319
1.03684
1.03536
1.03048
1.02408
1.01767
1.01215
1.00786
1.0048
1.00276
1.00149
1.00074
1.00033
1.00012
1.00002
0.999982
0.999973
0.999976
0.999982
0.999987
0.999992
0.999996
0.999998
0.999999
0.999999
1
1
1
1
1
1
1
1
1
1
1
1
1
1
1
1
1
1
1
1
1
1
1
1
1
1
1.00001
1.00001
1.00001
1.00005
1.00005
1.00007
1.0002
1.00023
1.00045
1.00109
1.00187
1.00365
1.00736
1.01272
1.02053
1.03064
1.03869
1.0407
1.03686
1.02772
1.01348
0.997267
0.982397
0.968226
0.952552
0.934477
0.911297
0.87503
0.815971
0.731864
0.633721
0.540581
0.466859
0.417375
0.393976
0.400904
0.442487
0.516926
0.612372
0.710052
0.792994
0.853416
0.893592
0.921093
0.943272
0.964404
0.98545
1.0051
1.02116
1.03178
1.03632
1.03552
1.03104
1.02479
1.01837
1.01274
1.00832
1.00514
1.003
1.00165
1.00085
1.0004
1.00016
1.00005
1
0.999986
0.999983
0.999986
0.99999
0.999994
0.999997
0.999998
0.999999
0.999999
1
1
1
1
1
1
1
1
1
1
1
1
1
1
1
1
1
1
1
1
1
1
0.999999
1
1
1
1
1.00001
1
1.00003
1.00005
1.00004
1.00017
1.00023
1.00038
1.00107
1.00198
1.00374
1.00767
1.01346
1.02133
1.03137
1.0394
1.04069
1.03571
1.02614
1.01177
0.994919
0.979719
0.966035
0.950195
0.929994
0.903172
0.862127
0.795996
0.701978
0.593544
0.493148
0.415932
0.365434
0.341921
0.348529
0.390102
0.46693
0.568865
0.676677
0.770904
0.84084
0.887101
0.917418
0.940373
0.961492
0.982521
1.00246
1.01912
1.0305
1.03577
1.03554
1.03141
1.02532
1.0189
1.01321
1.0087
1.00543
1.00321
1.0018
1.00095
1.00047
1.00021
1.00008
1.00002
0.999999
0.999992
0.999992
0.999993
0.999995
0.999998
0.999999
0.999999
1
1
1
1
1
1
1
1
1
1
1
1
1
1
1
1
1
1
1
1
1
1
1
1
1
1
1
1
1.00001
1
1.00002
1.00004
1.00002
1.00012
1.00023
1.00033
1.00099
1.00207
1.00383
1.0078
1.01401
1.02198
1.03179
1.03984
1.04083
1.03484
1.02477
1.01064
0.993437
0.97756
0.964191
0.948681
0.926655
0.896018
0.850953
0.780797
0.681663
0.56777
0.463366
0.384122
0.333365
0.310329
0.316535
0.356654
0.432925
0.537384
0.651209
0.753344
0.830654
0.881985
0.914765
0.938382
0.959408
0.980308
1.00038
1.01745
1.0294
1.03524
1.03546
1.03162
1.02566
1.01928
1.01355
1.00898
1.00565
1.00338
1.00192
1.00104
1.00053
1.00026
1.00011
1.00004
1.00001
1
0.999997
0.999997
0.999998
1
1
1
1
1
1
1
1
1
1
1
1
1
1
1
1
1
1
1
1
1
1
1
1
1
1
1
1
1
0.999999
1
1
1
1
1.00003
1.00001
1.00006
1.0002
1.00031
1.00088
1.00208
1.00392
1.0078
1.01429
1.0225
1.032
1.03998
1.0411
1.03444
1.02367
1.00992
0.992884
0.976132
0.962543
0.947831
0.925028
0.890928
0.842298
0.770673
0.67132
0.557159
0.451958
0.371794
0.321074
0.298887
0.305012
0.343149
0.416814
0.520316
0.636004
0.742205
0.824065
0.878821
0.913302
0.937294
0.958119
0.978804
0.998896
1.01621
1.02854
1.03477
1.03531
1.03168
1.02584
1.01949
1.01376
1.00916
1.0058
1.0035
1.00202
1.00112
1.00059
1.0003
1.00014
1.00007
1.00003
1.00001
1
1
1
1
1
1
1
1
1
1
1
1
1
1
1
1
1
1
1
1
1
1
1
1
1
1
1
1
1
0.999999
1
1
0.999999
1
1
0.999998
0.999995
1.00001
1
1.00002
1.00014
1.00029
1.00078
1.002
1.00397
1.00773
1.01426
1.02278
1.0321
1.03986
1.04136
1.0346
1.02304
1.00943
0.993108
0.975753
0.961213
0.947248
0.925228
0.889132
0.837393
0.76538
0.669104
0.559067
0.456318
0.376694
0.326281
0.304993
0.311466
0.347923
0.418111
0.518143
0.632032
0.738473
0.821789
0.877984
0.913149
0.937103
0.957587
0.977994
0.998011
1.01543
1.02796
1.03441
1.03512
1.03161
1.02585
1.01954
1.01383
1.00925
1.00588
1.00358
1.00209
1.00118
1.00064
1.00034
1.00017
1.00009
1.00004
1.00002
1.00001
1
1
1
1
1
1
1
1
1
1
1
1
1
1
1
1
1
1
1
1
1
1
1
1
1
1
1
1
1
0.999999
1
0.999997
0.999999
0.999996
0.999993
0.999989
0.999984
0.999983
0.999987
1.00007
1.00025
1.00069
1.00184
1.00393
1.00761
1.01399
1.02273
1.03212
1.03964
1.04149
1.03521
1.02314
1.0092
0.993745
0.976557
0.960724
0.946711
0.92661
0.891177
0.837951
0.76575
0.673355
0.569598
0.471944
0.395018
0.345961
0.325736
0.33277
0.368014
0.43459
0.529658
0.638963
0.742296
0.824054
0.879596
0.914318
0.937772
0.957779
0.977863
0.997738
1.01514
1.02769
1.03417
1.03491
1.03143
1.02569
1.01943
1.01376
1.00922
1.00589
1.00361
1.00213
1.00122
1.00068
1.00037
1.0002
1.0001
1.00006
1.00003
1.00002
1.00001
1
1
1
1
1
1
1
1
1
1
1
1
1
1
1
1
1
1
1
1
1
1
1
1
1
1
1
1
0.999999
1
0.999997
0.999997
0.999994
0.999986
0.999983
0.999968
0.999958
0.999964
1.00001
1.00018
1.00063
1.00166
1.00375
1.00743
1.01356
1.0223
1.03194
1.03943
1.04152
1.03601
1.02407
1.00955
0.994511
0.978209
0.961655
0.946693
0.928288
0.896133
0.844821
0.773829
0.685038
0.587497
0.496281
0.424397
0.37858
0.360032
0.367568
0.40159
0.464302
0.553228
0.655733
0.753178
0.830709
0.883604
0.916751
0.939243
0.958663
0.978408
0.998088
1.01534
1.02774
1.03407
1.03468
1.03113
1.02539
1.01917
1.01357
1.0091
1.00583
1.00359
1.00214
1.00124
1.00071
1.00039
1.00022
1.00012
1.00007
1.00004
1.00002
1.00001
1.00001
1
1
1
1
1
1
1
1
1
1
1
1
1
1
1
1
1
1
1
1
1
1
1
0.999999
1
1
1
0.999999
1
0.999997
0.999996
0.999993
0.99998
0.999974
0.999959
0.99993
0.999935
0.999962
1.0001
1.00054
1.00149
1.00346
1.0071
1.01302
1.02156
1.03141
1.03924
1.04159
1.03682
1.02559
1.01083
0.995566
0.980114
0.96397
0.948159
0.930298
0.902216
0.856464
0.790308
0.70649
0.615238
0.531286
0.46622
0.424964
0.40828
0.415839
0.448156
0.506401
0.587811
0.681279
0.770269
0.84124
0.889763
0.92034
0.941469
0.960222
0.979634
0.999073
1.01605
1.02812
1.0341
1.03443
1.03071
1.02493
1.01875
1.01325
1.00888
1.0057
1.00353
1.00212
1.00125
1.00072
1.00041
1.00024
1.00014
1.00008
1.00004
1.00003
1.00001
1.00001
1.00001
1
1
1
1
1
1
1
1
1
1
1
1
1
1
1
1
1
1
1
1
1
1
0.999999
1
1
1
0.999999
0.999999
0.999997
0.999993
0.999992
0.999977
0.999965
0.99995
0.999911
0.999898
0.999926
1.00001
1.00041
1.00132
1.00312
1.00661
1.01236
1.02061
1.03048
1.03887
1.04183
1.03769
1.02735
1.01302
0.997423
0.982108
0.966913
0.951436
0.933763
0.908791
0.869973
0.812435
0.737277
0.654904
0.580268
0.523001
0.485861
0.47
0.476628
0.506557
0.559619
0.632145
0.714403
0.792516
0.854876
0.897627
0.92489
0.944396
0.962463
0.98156
1.0007
1.01726
1.0288
1.03424
1.03414
1.03017
1.02432
1.01819
1.01281
1.00857
1.00551
1.00342
1.00207
1.00123
1.00073
1.00043
1.00025
1.00015
1.00009
1.00005
1.00003
1.00002
1.00001
1.00001
1
1
1
1
1
1
1
1
1
1
1
1
1
1
1
1
1
1
1
1
1
1
1
1
1
0.999999
1
0.999999
0.999997
0.999993
0.999989
0.999976
0.999958
0.999939
0.9999
0.999864
0.999885
0.999953
1.00027
1.00112
1.00278
1.00599
1.01151
1.0195
1.02924
1.03815
1.04209
1.03878
1.02925
1.01575
1.00031
0.984706
0.969985
0.955689
0.939218
0.916767
0.883956
0.836218
0.773215
0.704089
0.641695
0.592261
0.55787
0.541785
0.546886
0.573826
0.620873
0.683339
0.752816
0.818332
0.870621
0.906651
0.930169
0.947971
0.965406
0.984213
1.00299
1.01896
1.02975
1.03445
1.03378
1.02949
1.02354
1.01749
1.01225
1.00818
1.00526
1.00328
1.002
1.0012
1.00072
1.00043
1.00026
1.00015
1.00009
1.00006
1.00003
1.00002
1.00001
1.00001
1
1
1
1
1
1
1
1
1
1
1
1
1
1
1
1
1
1
1
1
0.999999
1
1
0.999999
1
0.999999
0.999999
0.999999
0.999997
0.999992
0.999987
0.999975
0.999954
0.999929
0.99989
0.999843
0.999837
0.999898
1.00015
1.00088
1.00242
1.00533
1.01047
1.01818
1.02776
1.03703
1.04212
1.04007
1.03144
1.01874
1.00393
0.98835
0.973588
0.960139
0.945651
0.926289
0.898729
0.86014
0.810615
0.75723
0.70779
0.665342
0.633579
0.617994
0.621988
0.645479
0.685491
0.736942
0.792963
0.845361
0.88716
0.916226
0.935966
0.952172
0.96909
0.987625
1.00592
1.0211
1.03091
1.03468
1.03332
1.02866
1.02261
1.01665
1.01159
1.00771
1.00495
1.0031
1.00191
1.00116
1.0007
1.00043
1.00026
1.00016
1.0001
1.00006
1.00004
1.00002
1.00001
1.00001
1
1
1
1
1
1
1
1
1
1
1
1
1
1
1
1
1
1
1
0.999999
1
1
1
1
1
1
0.999999
0.999999
0.999996
0.999992
0.999986
0.999973
0.999952
0.999922
0.999879
0.999831
0.9998
0.999837
1.00004
1.00065
1.00202
1.00466
1.00933
1.0166
1.02601
1.03559
1.04176
1.04128
1.03396
1.02208
1.00792
0.992834
0.978213
0.965027
0.952046
0.935898
0.913869
0.884424
0.84804
0.808731
0.769781
0.733929
0.706629
0.693385
0.69682
0.716251
0.748296
0.788317
0.831201
0.871151
0.90311
0.925733
0.942107