/*--------------------------------*- C++ -*----------------------------------*\
  =========                 |
  \\      /  F ield         | OpenFOAM: The Open Source CFD Toolbox
   \\    /   O peration     | Website:  https://openfoam.org
    \\  /    A nd           | Version:  6
     \\/     M anipulation  |
\*---------------------------------------------------------------------------*/
FoamFile
{
    version     2.0;
    format      ascii;
    class       volScalarField;
    location    "2.42";
    object      rho;
}
// * * * * * * * * * * * * * * * * * * * * * * * * * * * * * * * * * * * * * //

dimensions      [1 -3 0 0 0 0 0];

internalField   nonuniform List<scalar> 
24166
(
1.40406
1.42094
1.40001
1.4
1.40001
1.4
1.40001
1.40001
1.42521
1.40001
1.39986
1.39797
1.39739
1.40298
1.40118
1.40003
1.40097
1.40018
1.4
1.40008
1.40013
1.40001
1.40001
1.40001
1.42139
1.40001
1.4
1.35404
1.40002
1.40001
1.36185
1.40001
1.4
1.4
1.4
1.48692
1.40001
1.42216
1.40001
0.569522
1.39984
1.40001
1.40001
1.4
1.39998
1.40001
1.42325
1.44728
1.40001
1.47306
1.40001
1.39985
1.40001
1.40084
1.40001
1.47124
1.46481
1.40001
1.40001
1.40002
0.851133
1.39994
1.40001
1.40001
1.4
1.40001
1.40001
1.70848
1.43803
1.40001
1.40001
1.40039
1.40001
1.40001
1.40001
1.39999
1.39997
1.47515
1.40001
1.40017
1.33931
1.4
1.40001
1.37156
1.40009
1.40001
1.40045
1.40001
1.40001
1.40001
1.40001
1.40001
1.40029
1.40001
1.39925
1.39988
1.40001
1.40021
1.4001
1.40003
1.4
1.40001
1.40078
1.40001
1.40001
1.40001
1.40001
1.39996
1.40001
1.40002
1.40001
1.40001
1.40001
1.48333
1.50161
1.39996
1.40001
1.4
1.40007
1.40001
1.40001
1.40001
1.39447
1.40001
1.46456
1.39955
1.4
1.4
1.40001
1.40001
1.18643
1.40036
1.43517
1.46559
1.39999
1.40007
1.40001
1.30586
1.4
1.40003
1.44796
1.40001
1.40042
1.40001
1.3511
1.39999
1.4
1.40004
1.16709
1.40001
1.40001
1.40001
1.4
1.39997
1.40001
1.40001
1.4
1.40001
1.40001
1.39996
1.44829
1.41927
1.40001
1.40001
1.40001
1.40001
1.31859
1.40001
1.40001
1.40001
1.40001
1.40001
1.40001
1.39834
1.40001
1.40471
1.40001
1.40001
1.3997
1.45587
1.4
1.40001
1.46658
1.40001
1.40001
1.40001
1.40001
1.4
1.40001
1.4
1.40001
1.46865
1.40001
1.39863
1.40001
1.39997
1.40568
1.4
1.40452
1.40009
1.40001
1.40001
1.40001
1.40359
1.40001
1.40001
1.40001
1.40001
1.40001
1.09236
1.47612
1.40001
1.40624
1.39993
1.40001
1.4
1.40001
1.40001
1.47226
1.40001
1.40001
1.39838
1.40001
1.40001
1.45288
1.40001
1.40001
1.4
1.39986
1.40001
1.40352
1.40038
1.39979
1.40001
1.42007
1.40001
1.40016
1.40001
1.4
1.40001
1.4
1.4
1.4
1.40001
1.39977
1.4
1.40059
1.40039
1.40055
1.40001
1.39989
1.4
1.4
1.44505
1.40001
1.40001
1.40001
1.40179
1.40001
1.40008
1.4
1.4
1.40001
1.40064
1.4
1.4
1.39999
1.4
1.4
1.40001
1.40072
1.29231
1.40001
1.40391
1.4
1.40002
1.40001
1.11131
1.4
1.40001
1.46505
1.40001
1.22452
1.40001
1.4
1.40001
1.40001
1.40001
1.40073
1.40001
1.24534
1.40001
1.40001
1.4
1.39923
1.18206
1.40001
1.40001
1.39699
1.40001
1.4
1.40045
1.401
1.4
1.40001
1.40001
1.40001
1.39995
1.39463
1.40001
1.37418
1.40003
1.40001
1.22792
1.39977
1.40001
1.40019
1.40001
1.40005
1.39863
1.40001
1.40001
1.4621
1.40001
1.4
1.4
1.40001
1.40001
1.40001
1.46084
1.40001
1.4
1.40001
1.41274
1.40001
1.40215
1.40001
1.4
1.40098
1.43403
1.40001
1.40001
1.40001
1.40001
1.40001
1.4
1.40001
1.40001
1.40001
1.40001
1.40001
1.40001
1.4
1.40001
1.40001
1.40001
1.40001
1.4
1.34688
1.41426
1.40001
1.40001
1.40001
1.40365
1.40001
1.4
1.40121
1.40001
1.40001
1.4
1.41442
1.40001
1.40001
1.40001
1.40001
1.40063
1.40001
1.40073
1.40001
1.4
1.4
1.40001
1.40001
1.39976
1.41765
1.40001
1.40001
1.40125
1.40001
1.28698
1.40001
1.40001
1.41101
1.42983
1.47433
1.40179
1.40002
1.40001
1.40001
1.40001
1.40001
1.40001
1.41037
1.39998
1.40001
1.40001
1.40001
1.39364
1.4
1.4
1.40076
1.40001
1.40001
1.4
1.40001
1.40238
1.41434
1.40001
1.4
1.40001
1.40001
1.4125
1.40001
1.40001
1.40001
1.40001
1.39568
1.40001
1.40001
1.40374
1.40017
1.42446
1.40001
1.40002
1.40002
1.40001
1.40001
1.4
1.40001
1.40159
1.40033
1.40001
1.36325
1.40001
1.40001
1.39997
1.39423
1.39999
1.45278
1.4608
1.40001
1.4
1.40001
1.39825
1.42846
1.39998
1.43585
1.40001
1.40001
1.4
0.958801
1.40001
1.39884
1.43286
1.40001
1.40001
1.4
1.40001
1.40041
1.40001
1.39999
1.42905
1.40001
1.40001
1.40001
1.40516
1.40001
1.4
1.40001
1.40052
1.40001
1.44524
1.40001
1.40001
1.34687
1.4
1.39937
1.40002
1.40001
1.40001
1.4
1.40001
1.40001
1.40001
1.42152
1.41566
1.40001
1.40013
1.40001
1.40995
1.40001
1.40161
1.48069
0.922713
1.40001
1.40001
1.40001
1.40001
1.4
1.40051
1.4
1.40001
1.4
1.40002
1.4044
1.42379
1.40987
1.40071
1.4
1.40001
1.40001
1.40001
1.42594
1.43574
1.4
1.40001
1.40001
1.40001
1.40001
1.35654
1.40001
1.40082
1.40001
1.4
1.40002
1.40001
0.766548
1.40001
1.40225
1.40001
1.40001
1.40001
1.41717
1.40001
1.42361
1.39998
1.45072
1.40001
1.40056
1.40063
1.39541
1.40001
1.40027
1.40001
1.40001
1.40001
1.40001
1.40657
1.40001
1.5157
0.760916
1.40001
1.40001
1.40377
1.40001
1.45899
0.720908
1.39994
1.4
1.40001
1.40001
1.46137
1.39999
1.40001
1.40161
1.40001
1.40046
1.40001
1.40002
1.40001
1.39853
1.40001
1.40001
1.40001
1.39999
1.40001
1.40001
1.38632
1.4008
1.44237
1.40001
1.39674
1.40001
1.40001
1.31221
1.40001
1.40001
1.47695
1.40001
1.40001
1.39733
1.40001
1.40001
1.4007
1.40001
1.39614
1.40048
1.40014
1.40815
1.40001
1.39371
1.40001
1.4
1.40001
1.40839
1.40001
1.40001
1.46805
1.38408
1.40001
1.37836
1.4
1.3963
1.4
1.40001
1.4
1.40127
1.4
1.45792
1.40001
1.40001
1.46002
1.40001
1.57032
1.40001
1.40001
1.37036
1.40001
1.40001
1.45435
1.4
1.40001
1.40379
1.40061
1.42081
1.4
1.40002
1.40032
1.39981
1.40002
1.4
1.4
1.40001
1.40001
1.40079
1.40001
1.4
1.40001
1.40001
1.40001
1.40001
1.39924
1.40001
1.40001
1.40001
1.39702
1.40649
1.40001
1.39996
1.40001
1.40001
1.44981
1.4
1.40001
1.40001
1.4238
1.39999
1.40001
1.40042
1.4
1.4
1.40001
1.40001
1.40003
1.40001
1.40001
1.4
1.40001
1.40003
1.39743
1.43047
1.40053
1.40001
1.39999
1.4
1.40001
1.41392
1.4
1.4391
1.40937
1.40001
1.40001
1.40001
1.40001
1.41922
1.40001
1.40006
1.34294
1.40001
1.40001
1.40001
1.41585
1.4
1.40001
1.4
1.40001
1.39638
1.39706
1.4
1.4191
1.39847
1.47212
1.40001
1.40001
1.39901
1.40001
1.46557
1.40001
1.40002
1.40001
1.40005
1.40001
1.40148
1.42387
1.42874
1.40068
1.39973
1.40001
1.40001
1.40001
1.40015
1.40001
1.39991
1.40182
1.26522
1.42461
1.40001
1.40001
1.4
1.4
1.40001
1.40001
1.40001
1.40001
1.44694
1.40001
1.40001
1.40002
1.39696
1.40001
1.4
1.40001
1.40001
1.40001
1.42495
1.4
1.40001
1.40001
1.4
1.39922
1.40001
1.40001
1.40001
1.40001
1.40001
1.40001
1.40001
1.40001
1.54373
1.4
1.40001
1.4
1.40003
1.4
1.40001
1.40001
1.39992
1.40001
1.40001
1.40001
1.40001
1.41643
1.40001
1.40001
1.40001
1.4
1.4
1.4
1.40001
1.40001
1.40001
1.29736
1.475
1.40001
1.46105
1.39998
1.45099
1.40001
1.40001
1.40001
1.4
1.40001
1.40001
1.4
1.40001
1.40001
1.18959
1.40015
1.40002
1.40001
1.40001
1.40005
1.4
1.40001
1.40001
1.32274
1.39999
1.40001
1.40001
1.40001
1.4
1.40116
1.4
1.40001
1.39998
1.40001
1.40001
1.30131
1.40001
1.40077
1.40584
1.40027
1.40001
1.38645
1.40001
1.40012
1.4
1.40001
1.40001
1.4
1.40001
1.40001
1.4
1.39737
1.41019
1.40001
1.4024
1.40001
1.40001
1.40001
1.40001
1.40023
1.40001
1.4
1.4
1.39722
1.40001
1.46316
1.40001
1.40712
1.40062
1.40001
1.40001
1.40108
1.39911
1.40001
1.40019
1.4
1.40093
1.40001
1.40001
1.40001
1.40049
1.40001
1.39999
1.40001
1.40001
1.39998
1.40001
1.43506
1.4
1.40001
1.47023
1.40001
1.40007
1.40133
1.40001
1.40003
1.40001
1.4
1.4005
1.4
1.40001
1.40019
1.40001
1.40001
1.39354
1.36995
1.40001
1.40156
1.40001
1.40001
1.40008
1.40001
1.40001
1.40001
1.40001
1.40001
1.40001
1.38826
1.40001
1.40001
1.39995
1.39954
1.39973
1.39951
1.40129
1.40001
1.40042
1.4
1.40001
1.39999
1.40001
1.40021
1.3691
1.40046
1.50215
1.4
1.39975
1.4
1.4
1.44308
1.45232
1.4
1.39994
1.4
1.40001
1.40001
1.39985
0.955153
1.40102
1.33386
1.40001
1.40001
1.40319
1.4036
1.44331
1.40001
1.40001
1.40001
1.39721
1.4
1.40001
1.4
1.39247
1.39998
1.40001
1.38013
1.4
1.40001
1.40001
1.40001
1.40005
1.40001
1.40001
1.40001
1.40001
1.40001
1.38267
1.40005
1.39996
1.40001
1.36959
1.4
1.40001
1.40001
1.47217
1.40001
1.40001
1.26628
1.40004
1.46801
1.40001
1.40001
1.4
1.4
1.40001
1.40001
1.42433
1.40001
1.38748
1.40001
1.40514
1.43587
1.4001
1.40001
1.40001
1.40001
1.40001
1.40001
1.4812
1.40005
1.40028
1.39985
1.38323
1.46303
1.43639
1.40001
1.4
1.40001
1.40001
1.40156
1.4
1.40001
1.4
1.4
1.40418
1.40013
1.40001
1.4
1.61053
1.40001
1.40004
1.40001
1.40001
1.40001
1.40001
1.40001
1.40001
1.46236
1.41052
1.40001
1.40001
1.41732
1.4
1.40001
1.40001
1.44988
1.4
1.40001
1.4
1.39996
1.40001
1.40005
1.4
1.40015
1.40001
1.4
1.40603
1.4
1.40001
1.4
1.40001
1.4
1.39899
1.41069
1.40001
1.43069
1.36409
1.40001
1.40005
1.40002
1.4136
1.40001
1.40661
1.40001
1.4
1.40001
1.08994
1.40002
1.40917
1.40001
1.40001
1.40001
1.40055
1.40001
1.40589
1.40001
1.40001
1.40001
1.40068
1.40001
1.40002
1.40001
1.40001
1.40001
1.40049
1.40001
1.4
1.40001
1.44365
1.40004
1.3961
1.40015
1.4
1.40001
1.4
1.40001
1.40001
1.40001
1.39996
1.4056
1.39944
1.40003
1.40005
1.36249
1.38039
1.40001
1.40001
1.40001
1.40001
1.39744
1.40001
1.40001
1.40001
1.40001
1.40001
0.573878
1.4
0.688092
1.40001
1.40002
1.40001
1.39928
1.39999
1.39999
1.40321
1.44494
1.40021
1.40001
1.45481
1.40001
1.39852
1.40937
1.40001
1.40001
1.39912
1.40001
1.39997
1.43486
1.4
1.39998
1.4
1.4
1.4
1.40001
1.44953
1.40316
1.40001
1.40001
1.39813
1.40001
1.40001
1.41666
0.796965
1.4
1.40001
1.4013
1.40001
1.40001
1.24521
1.43906
1.4
1.4
1.4
1.40001
1.4
1.40001
1.40003
1.39998
1.4
1.40001
1.4
1.4
1.40057
1.40023
1.40001
1.39999
1.44078
1.40629
1.40001
1.40001
1.42565
1.40001
1.40001
1.40001
1.40001
1.39998
1.40001
1.40001
1.40001
1.439
1.40001
1.46293
1.39952
1.40014
1.40001
1.45914
1.40001
1.40001
1.635
1.40001
1.4203
1.4
1.42996
1.40001
1.40001
1.40001
1.40001
1.40001
1.39994
1.40001
1.29655
1.40001
1.41191
1.40001
1.40001
1.40001
1.40001
1.40001
1.40001
1.40001
1.40001
1.40001
1.40001
1.40729
1.40149
1.4
1.58453
1.40001
1.30658
1.39988
1.40001
1.40002
1.40001
1.40001
1.40001
1.40009
1.40082
1.40003
1.40377
1.46394
1.40001
1.40001
1.40001
1.40002
1.40001
1.40001
1.40001
1.40001
1.40001
1.19222
1.47206
0.897654
1.40001
1.40001
1.41028
1.4
0.964696
1.40001
1.3991
1.4
1.4
1.39975
1.38475
1.4
1.40001
1.40001
1.39989
1.40522
1.40002
1.4
1.40002
1.40001
1.37073
1.40001
1.40001
1.40012
1.44547
1.40001
1.40001
1.43039
1.3999
1.40697
1.39999
1.40001
1.4
1.40001
1.40001
1.40001
1.39993
1.40001
1.4
1.40001
1.40001
1.45705
1.40001
1.40001
1.40001
1.40001
1.41759
1.47786
1.40001
1.40001
1.40001
1.40001
1.40001
1.40006
1.40001
1.39997
1.4685
1.40008
1.39999
1.40001
1.40001
1.59767
1.39992
1.40033
1.4
0.959044
1.40751
1.40001
1.4
1.40001
1.4
1.40001
1.40001
1.4
1.40001
1.40001
1.40001
1.3968
1.40002
1.4
1.4
1.40001
1.40042
1.40025
1.39974
1.40001
1.43735
1.40001
1.40001
1.40001
1.4
1.4
1.40001
1.44422
1.39999
1.40001
1.40001
1.40001
1.40003
1.4
1.4001
1.41071
1.44206
1.40627
1.40001
1.39987
1.4
1.40185
1.40001
1.39999
1.40005
1.40001
1.40001
1.40009
1.41158
1.32508
1.40001
1.4
1.4
1.44997
1.40001
0.881733
1.39871
1.40001
1.40001
1.40709
1.39741
1.4
1.40001
1.40001
1.41432
1.44917
1.40001
1.39999
1.39835
1.4
1.40001
1.39991
1.4114
1.40001
1.4
1.40014
1.4
1.4
1.40003
1.4
1.40001
1.40004
1.40001
1.40079
1.4
1.40001
1.3992
1.44236
1.40023
1.41706
1.4
1.40002
1.39975
1.38893
1.40001
1.39999
1.45609
1.52539
0.591433
1.40001
1.40001
1.40001
1.4
1.40001
1.39999
1.40001
1.40001
1.40034
1.40001
1.40001
1.38016
1.40001
1.4
1.4
1.40001
1.40001
1.38942
1.4
1.40001
1.40001
1.40001
1.41225
1.4
1.40001
1.40001
1.40001
1.40091
1.4
1.42507
1.40058
1.40001
1.40001
1.40001
1.40002
1.4
1.40001
1.4
1.39951
0.620417
1.39995
1.4024
1.40001
1.4
1.4
1.40001
1.40001
1.40001
1.46037
1.40001
1.40001
1.40001
1.40001
1.40853
1.39851
1.4
1.40001
1.39993
1.40001
1.40002
1.40001
1.46997
1.39571
1.40001
1.40001
1.40001
1.40044
1.20318
1.40001
1.40001
1.40001
1.40862
1.40001
1.40001
1.40001
1.40001
1.39998
1.4
1.40583
1.3999
1.40001
1.37477
1.40051
1.40001
1.40126
1.40006
1.39634
1.40001
1.42895
1.4013
1.40001
1.40044
1.40001
1.40001
1.40001
1.40001
1.4
1.4031
1.40001
1.40001
1.40004
1.4
1.40017
1.40001
1.40217
1.4001
1.43817
1.40001
1.40342
1.2784
1.44012
1.40806
1.4017
1.39965
1.41318
1.40001
1.40219
1.40034
1.39306
1.40001
1.40001
1.40034
1.41656
1.40001
1.40006
1.40001
1.4
1.40007
1.40001
1.40001
1.39791
1.4
1.40001
1.40001
1.40001
1.40091
1.40018
1.40013
1.40001
1.40001
1.40003
1.40001
1.40001
1.37087
1.40001
1.40001
1.40052
1.4
1.40022
1.40282
1.4
1.40094
1.40001
1.4
1.40335
1.40001
1.40001
1.40001
1.4
1.40083
1.39664
1.40001
1.40358
1.40001
1.33362
1.40001
1.4
1.40001
1.40002
1.40001
1.40001
1.40014
1.40001
1.40001
1.40001
1.40181
1.45819
1.40001
1.4
1.4
1.40001
1.40001
1.4
1.40001
1.40001
1.4
1.40001
1.32549
1.40001
1.4
1.3572
1.43479
1.40001
1.40001
1.4019
1.4
1.40001
1.40423
1.40001
1.40006
1.4
1.39998
1.4
1.39777
1.40001
1.39187
1.42056
1.40001
1.40001
1.40001
1.40001
1.40001
1.40001
1.42317
1.40001
1.40256
1.40001
1.40001
1.40001
1.4
1.40001
1.42677
1.39442
1.40229
1.39999
1.40001
1.44026
1.45688
1.4
1.40038
1.40001
1.40001
1.27938
1.40001
1.40005
1.40001
1.40001
1.40001
1.4
1.40001
1.40001
1.40001
1.40001
1.40001
1.4
1.4
1.40001
1.40001
1.4
1.40001
1.4
1.40001
1.40083
1.40002
1.40001
1.39998
1.4
1.39521
1.40001
1.40001
1.40001
1.39986
1.4065
1.40094
1.53357
1.4
1.39937
1.40001
1.40001
1.4003
1.43227
1.39951
1.39996
1.40042
1.40001
1.401
1.40001
1.423
1.40001
1.4
1.40001
1.40001
1.45589
1.40001
1.33999
1.40001
1.40001
1.40001
1.47153
1.40001
1.40002
1.39788
1.40001
1.40001
1.40001
1.40001
1.4
1.38444
1.4
1.41897
1.32558
1.39997
1.44264
1.40001
1.40001
1.39978
1.40001
1.40001
1.40001
1.40001
1.45012
1.40001
1.40001
1.4
1.41677
1.39966
1.41225
1.40048
1.40001
1.40001
1.4
1.40001
1.40001
1.3625
1.40001
1.33267
1.40001
1.44721
1.40036
1.40001
1.4008
1.39944
1.40001
1.40001
1.40024
1.40001
1.39927
1.39996
1.40001
1.40057
1.39995
1.40002
1.39972
1.39999
1.39999
1.40001
1.41843
1.40001
1.40001
1.40001
1.42115
1.4767
1.39998
1.40001
1.54119
1.40141
1.40026
1.40001
1.36743
1.40001
1.40001
1.39999
1.40001
1.40001
1.4
1.42568
1.40001
1.4
1.40001
1.4
1.40001
1.40001
1.4
1.40365
1.40001
1.40001
1.40001
1.4
1.39816
1.40001
1.45051
1.39997
1.4
1.39909
1.40003
1.39888
1.39989
1.40003
1.39996
1.40001
1.4
1.40001
1.40033
1.40002
1.39981
1.40124
1.4
1.40001
1.40001
1.41784
1.40001
1.40001
1.40152
1.40001
1.40001
1.40001
1.40001
1.39997
1.38596
1.4
1.40001
1.40001
1.40008
1.40001
1.40001
1.3728
1.43871
1.40001
1.39999
1.4
1.40055
1.40001
1.71267
1.40001
1.40012
1.40001
1.40001
1.41445
1.41739
1.4003
1.38997
1.28955
1.37225
1.48588
1.40017
1.39989
1.40913
1.44939
1.46571
1.40001
1.4
1.42963
1.40001
1.4
1.48761
1.39998
1.4
1.40626
1.40001
1.41698
1.40001
1.40001
1.40002
1.45085
1.40001
1.40001
1.40001
1.40001
1.39941
1.45105
1.40001
1.39999
1.4
1.40001
1.41012
1.4
1.40001
1.40001
1.40001
1.47236
1.4
1.40001
1.40048
1.39221
1.40001
1.40001
1.40001
1.40001
1.27457
1.40001
1.39997
1.46656
1.42536
1.40028
1.40001
1.40089
1.40231
1.40067
1.45121
1.40104
1.40001
1.40001
1.40001
1.40001
1.40001
1.40001
1.4
1.40028
1.40001
1.40001
1.40001
1.40001
1.4
1.39993
1.47015
1.40016
1.40001
1.36477
1.39708
1.39721
1.42634
1.40001
1.40001
1.40001
1.40001
1.41663
1.39297
1.48093
1.4
1.40001
1.39997
1.40004
1.41161
1.40001
1.40861
1.32462
1.40001
0.755237
1.40001
1.40001
1.40001
1.40001
1.39964
1.4
1.40001
1.40001
1.55541
1.40647
1.39717
1.40001
1.40001
1.40001
1.40001
1.40001
0.759084
1.40001
1.39674
1.40001
1.4
1.40001
1.40005
1.40001
1.4
1.40001
1.40001
1.40001
1.43179
1.40432
1.4
1.40001
1.38111
1.4
1.4017
1.40001
1.40001
1.40001
1.4
1.40001
1.40001
1.24406
1.43667
1.40723
1.40002
1.40001
1.40001
1.4
1.40001
1.43297
1.40009
1.41255
1.40001
1.40001
1.4052
1.40001
1.40001
1.42562
1.39203
1.41398
1.4655
1.40001
1.39999
1.40001
1.40001
1.40024
1.40162
1.41652
1.41782
1.39998
1.40001
1.4
1.39789
1.24206
1.40001
1.40001
1.40001
1.40104
1.40001
1.40035
1.40001
1.40598
1.41771
1.40006
1.4071
1.4
1.4
1.40001
1.40001
1.40001
1.41532
1.40001
1.4
1.44242
1.40453
1.40001
1.45759
1.4
1.40006
1.39995
1.4
1.44364
1.40001
1.4
1.41865
1.20976
1.40001
1.46731
1.4376
1.4
1.40001
1.40001
1.40001
1.40001
1.40001
1.4
1.39756
1.4
1.4
1.39008
1.27265
1.40065
1.4
1.40001
1.39999
1.40002
1.4
1.41672
1.39707
1.40026
1.26334
1.40001
1.4
1.40789
1.40001
1.40001
1.40001
1.4
1.4
1.40004
1.40082
1.40001
1.40001
1.34377
1.40001
1.40001
1.40407
1.40001
1.40006
1.40001
1.39998
1.4
1.40001
1.40001
1.4
1.40001
1.4
1.40001
1.41268
1.40001
1.40001
1.41236
1.40104
1.40001
1.40001
1.40022
1.40001
1.40001
1.40001
1.40001
1.40001
1.40001
1.40013
1.40001
1.40001
1.40001
1.41914
1.40001
1.40001
1.4
1.41335
1.40005
1.4
1.39983
1.40001
1.25968
1.40001
1.40001
1.40001
1.39999
1.40434
1.40012
1.39984
1.40001
1.40001
1.40001
1.39613
1.40001
1.18239
1.40001
1.40001
1.40001
1.39991
1.40132
1.40001
1.40001
1.43109
1.40001
1.40013
1.40001
1.46665
1.40082
1.40966
1.40001
1.40001
1.46754
1.40001
1.42711
1.40001
1.40001
1.40001
1.40002
1.40001
1.40001
1.4301
1.40001
1.40001
1.39997
1.4
1.39999
1.4
1.40001
1.40001
1.4
1.40001
1.40001
1.39971
1.40394
1.39219
1.40802
1.40001
1.39986
1.39999
1.4
1.40001
1.40001
1.3689
1.40108
1.40001
1.40001
1.40055
1.40001
1.40218
1.42019
1.40003
1.40001
1.40001
1.40001
1.40001
1.43619
1.40009
1.41976
1.40088
1.40001
1.4
1.40136
1.39999
1.40001
1.4
1.40001
1.40001
1.40001
1.40001
1.40001
1.40001
1.4
1.4
1.40726
1.40001
1.39973
1.43889
1.4
1.399
1.4
1.40001
1.45025
1.55568
1.41619
1.40001
1.40001
1.40001
1.40001
1.39999
1.40001
1.39994
1.40474
1.40027
1.40001
1.49232
1.40001
1.39992
1.39829
1.40001
1.40022
1.44062
1.41156
1.40001
1.33689
1.40009
1.43315
1.4
1.4
1.39949
1.40001
1.39991
1.40001
1.41071
1.40001
1.40024
1.39906
1.22784
1.40001
1.37828
1.40001
1.4
1.40005
1.40001
1.40003
1.40001
1.40001
1.4
1.40001
1.40001
1.4
1.4
1.40001
1.39369
1.4
1.40271
1.31527
1.32937
1.40001
1.40001
1.44795
1.34352
1.40001
1.40001
1.39967
1.4285
1.43857
1.39974
1.40001
1.40001
1.31891
1.39237
1.40001
1.40001
1.40001
1.40001
1.4
1.40001
1.40002
1.39875
1.42043
1.47809
1.30549
1.40009
1.28948
1.40001
1.40248
1.40001
1.40001
1.46667
1.40003
1.40006
1.40001
1.40593
1.39999
1.40001
1.40001
1.40001
1.40001
1.39882
1.39966
1.4
1.40001
1.40001
1.40122
1.27278
1.40001
1.40001
1.4
1.40001
1.40001
1.44814
1.40001
1.40001
1.43158
1.40039
1.40001
1.40001
1.40561
1.40001
1.40001
1.40001
1.40001
1.40001
1.39998
1.40001
1.4419
1.40001
1.4
1.4
1.40001
1.40001
1.4
1.4139
1.40001
1.43791
1.4504
1.45247
1.40001
1.40001
1.39967
1.40914
1.40951
1.40001
1.45132
1.40001
1.39991
1.24088
1.40001
1.19014
1.40001
1.40001
1.40001
1.40001
1.40001
1.41175
1.40001
1.3716
1.40001
1.4293
1.40001
1.39991
1.40001
1.40001
1.4
1.40001
1.40001
1.40001
1.39957
1.4
1.39999
1.40001
1.52148
1.4
1.38861
1.40001
1.40001
1.40239
1.4
1.40001
1.4
1.45176
1.46912
1.40009
1.40001
1.40001
1.40001
1.39905
1.40001
1.40001
1.25991
1.42868
1.4
1.44314
1.40001
1.40203
1.40207
1.40013
1.40001
1.40001
1.40875
1.4
1.40058
1.40001
1.40001
1.40001
1.40681
1.40001
1.40001
1.40001
1.4
1.4
1.40001
1.4
1.39919
1.4417
1.40001
1.20791
1.39984
1.40001
1.40015
1.42537
1.42859
1.4
1.40963
1.40001
1.4
1.40001
1.40001
1.40001
1.40953
1.40001
1.40001
1.40001
1.40272
1.39995
1.40001
1.39814
1.4
1.40272
1.40001
1.40001
1.45037
1.43526
1.40001
1.4
1.39879
1.40001
1.32387
1.40001
1.40001
1.40957
1.4
1.40001
1.37523
1.39994
1.4
1.40001
1.40001
1.4
1.40001
1.45103
1.40001
1.20473
1.40106
1.40001
1.40322
1.4
1.40005
1.40001
1.4
1.35992
1.39938
1.40001
1.40001
1.4
1.40001
1.40001
1.41811
1.4
1.40001
1.40001
1.40008
1.38909
1.39056
1.40001
1.41302
1.40001
1.4005
1.40205
1.4
1.4
1.40001
1.40001
1.43012
1.40001
1.47412
1.40571
1.40001
1.40001
1.40001
1.40001
1.40001
1.40001
1.40014
1.40001
1.4
1.4
1.4
1.40001
1.40001
1.40001
1.40001
1.52542
1.40029
1.46747
1.40004
1.39909
1.40274
1.40001
1.40042
0.68453
1.39917
1.40001
1.24004
1.40001
1.39991
1.41214
1.43328
1.40001
1.4
1.4018
1.4
1.40001
1.4
1.40001
1.39984
1.40001
1.47412
1.40043
1.42086
1.40001
1.40016
1.39995
1.40001
1.40001
1.40001
1.4
1.40001
1.40378
1.413
1.40001
1.40022
1.2786
1.40023
0.985001
1.4315
1.40366
1.40383
1.4
1.40358
1.39924
1.4
1.45371
1.40001
1.40001
1.40002
1.4
1.40001
1.44131
1.41746
1.40001
1.4
1.4134
1.40001
1.4
1.40812
1.43944
1.40001
1.39768
1.40001
1.4
1.4
1.43328
1.40001
1.40001
1.40001
1.40001
1.3717
1.39999
1.4
1.58857
1.40001
1.40001
1.40673
1.40001
1.40368
1.39997
1.40002
1.40001
1.40001
1.40001
1.40001
1.40001
1.40001
1.40001
1.4
1.40001
1.39999
1.40042
1.40001
0.949795
1.40001
1.40001
1.39295
1.40001
1.40046
1.40001
1.40001
1.39858
1.40001
1.40004
1.40001
1.40001
1.40001
1.40001
1.40001
1.40001
1.4
1.40001
1.4
1.4
1.40001
1.40001
1.40026
1.39921
1.40182
1.40001
1.42344
1.42176
1.39999
1.4
1.40001
1.40008
1.42702
1.40001
1.40001
1.40001
1.43652
1.40001
1.40001
1.08984
1.40001
1.4
1.40001
1.40001
1.40001
1.40028
1.40001
1.39995
1.40001
1.36882
1.40001
1.4
1.39979
1.40001
1.4
1.4489
1.40001
1.40001
1.34895
1.26817
1.40001
1.40025
1.40001
1.40001
1.4
1.45274
1.3999
1.4
1.40936
1.30988
0.941043
1.40001
1.01786
1.40001
1.4
1.40001
1.40001
1.40001
1.40001
1.40662
1.40038
1.106
1.39993
1.40139
1.39999
1.4
1.40001
1.40004
1.40001
1.40001
1.39997
1.40001
1.4007
1.39974
1.40007
1.40001
1.40001
1.40001
1.40001
1.40001
1.27492
1.4
1.39999
1.4
1.40001
1.35704
1.40001
1.39999
1.40001
1.40001
1.40001
1.42466
1.40769
1.40001
1.4
1.4
1.40001
1.40001
1.40047
1.39786
1.40001
1.40001
1.40001
1.40001
1.40001
1.40001
1.40333
1.40001
1.40001
1.40001
1.44918
1.40001
1.44175
1.40001
1.40001
1.4
1.43652
1.40001
1.40001
1.40105
1.4
1.40105
1.39994
1.40001
1.40001
1.40001
1.40001
1.40137
1.40001
1.39986
1.40003
1.39999
1.40001
0.876479
1.40001
1.4044
1.40001
1.40002
1.4116
1.39971
1.43999
1.48636
1.3847
1.40001
1.53565
1.4
0.645164
1.40001
1.39343
1.40001
1.40001
1.40001
1.40001
1.43119
1.38679
1.40749
1.4
1.40431
1.40825
1.39911
1.40001
1.41897
1.40001
1.40001
1.40001
1.39959
1.3985
1.39998
0.644903
1.40001
1.4
1.40012
1.40137
1.36962
1.40058
1.40001
1.40001
1.40313
1.4
1.39953
1.40017
1.40001
1.40001
1.40001
1.40001
1.40001
1.4041
1.39822
1.46284
0.828967
1.39999
1.40001
1.40001
1.40001
1.40209
1.40164
1.40139
1.39846
1.40001
1.40001
1.40549
1.40001
1.40001
1.40001
1.39886
1.44933
1.42867
1.40008
1.40001
1.39948
1.40085
1.4166
1.40001
1.25951
1.40001
1.17254
1.40001
1.40119
1.4
1.4003
1.4
1.56283
1.05717
1.4
1.40001
1.40001
1.40057
1.44437
1.40001
1.40001
1.40001
1.4
1.45291
1.40001
1.40001
1.40064
1.40547
1.40001
1.4
1.40289
1.39529
1.40001
1.40001
1.18931
1.40001
1.39996
1.40001
1.40001
1.40001
1.40001
1.40001
1.39999
1.40001
1.40025
1.40001
1.40001
1.4
1.40001
1.40001
1.40002
1.40001
1.40001
1.39925
1.40001
1.40009
1.40151
1.4
1.43409
1.40001
1.40001
1.40001
1.39998
1.40001
1.45444
1.40001
1.40001
1.39998
1.40001
1.40001
1.40001
1.40001
1.40001
1.47774
1.40001
1.4
1.39999
0.691994
1.4
1.40023
1.40001
1.46636
1.4
1.4
1.40001
0.992113
1.40001
1.40001
1.40398
1.40001
1.4
1.43379
1.39818
1.53204
0.819882
1.40001
1.40001
1.40001
1.41788
1.40001
1.40001
1.40897
1.40001
1.40001
1.40001
1.39999
1.40001
1.4
1.39325
1.40001
1.40001
1.40001
1.40001
1.51296
1.4
1.40001
1.40001
1.40445
1.40001
1.40001
1.40001
1.40001
1.40001
1.40001
1.40001
1.40076
1.40001
1.40001
1.40001
1.40001
1.40001
1.40001
1.39783
1.40001
1.40001
1.40001
1.4
1.40001
1.41902
1.4
1.40001
1.40001
1.40001
1.40277
1.20423
1.40001
1.40004
1.39999
1.40088
1.40001
1.39985
1.40001
1.39673
1.41647
1.40004
1.40001
1.58768
1.4493
1.40001
1.40035
1.40001
1.40001
0.92207
1.40001
1.4
1.40002
1.4
1.4
1.40049
0.912758
1.40001
1.40001
1.40001
1.40001
1.40001
1.40079
1.40001
1.40001
1.40899
1.40001
1.4
1.40001
1.40001
1.40001
1.39764
1.39976
1.40001
1.4
1.40001
1.39999
1.40001
1.40001
1.40001
1.4
1.40001
1.4
1.39424
1.41409
1.40004
1.40001
1.40001
1.40087
1.40001
1.4
1.40001
1.40001
1.40001
1.40001
1.40032
1.40001
1.52336
1.40001
1.40001
1.40001
1.40002
1.40001
1.40001
1.42505
1.40192
1.40001
1.4
1.45136
1.40001
1.40001
1.4
1.45231
1.40001
1.4
1.40001
1.4
1.40001
1.40001
1.40001
1.40003
1.39975
0.900245
1.40001
1.4
1.40001
1.40001
1.40016
1.40001
1.40001
1.40001
1.40001
1.40079
1.39992
1.40001
1.40001
1.40001
1.40001
1.40001
1.04725
1.40001
1.4
1.40001
1.40001
1.40001
1.4
1.36597
1.40001
1.42584
1.4
1.40003
1.44941
1.39288
1.40001
1.39999
1.40001
1.5381
1.40002
1.40001
1.40001
1.40001
1.40001
1.40001
1.42645
1.4
1.40096
1.40005
1.4
1.4
1.40001
1.41322
1.40001
1.37321
1.39999
1.40022
1.38084
1.40001
1.40001
1.40348
1.40001
1.4293
1.4
1.40001
1.40001
1.4
1.40059
1.40001
1.40001
1.40001
1.40001
1.40789
1.40001
1.4
1.44148
1.40001
1.4
1.41393
1.08688
1.46954
1.40001
1.41849
1.40001
1.39999
1.37979
1.3885
1.40001
1.4
1.4037
1.40001
1.40006
1.40013
1.40001
1.40001
1.40001
1.40001
1.39989
1.4
1.40001
1.42398
1.40001
1.44993
1.40001
1.40001
1.40001
1.40001
1.66959
1.40001
1.40001
1.40001
1.39999
1.40001
1.4
1.40001
0.986173
1.41082
1.4
1.40001
1.4
1.39993
1.40001
1.39989
1.40001
1.42123
0.929991
1.40842
1.40001
1.40134
1.40001
1.40026
1.37999
1.39999
1.40001
1.40347
1.40001
1.4
1.40002
0.60176
1.40001
1.39999
1.45128
1.39204
1.40001
1.38945
1.40378
1.39979
1.4
1.35514
1.40001
1.40001
1.39941
1.40005
1.40001
1.40003
1.40001
1.40003
1.40001
1.40001
1.40045
1.40001
1.40001
1.38931
1.40001
1.40001
1.40001
1.40001
1.41563
1.4
1.39923
1.40001
1.40007
1.40001
1.40001
1.40003
1.40001
1.40001
1.39998
1.40036
1.39999
1.40001
1.40001
0.660566
1.4
1.40001
1.40001
1.40001
1.40002
1.4
1.40352
1.40001
1.40001
1.40001
1.4
1.40001
1.39266
1.40001
1.39999
1.40001
1.45138
1.40001
1.40001
1.40002
1.40001
1.4011
1.39999
1.40001
1.41175
1.40001
1.40001
1.40121
1.4069
1.3989
1.40001
1.40001
1.40001
1.40001
1.39999
1.04628
1.42402
1.40031
1.40192
1.40001
1.40001
1.40001
1.40001
1.4
1.39973
1.4
1.3462
1.4
1.41309
1.40001
1.39999
1.40001
1.40001
1.40001
1.40001
1.40001
1.40001
1.40001
1.39916
1.40001
1.43486
1.41719
1.40001
1.38108
1.40103
1.39845
1.40001
1.40001
1.40148
1.39999
1.40001
1.46006
1.4
1.40001
1.40001
1.41468
1.45541
1.40001
1.40001
1.40001
1.40001
1.40001
1.40001
1.39826
1.4
1.40001
1.02688
1.40001
1.4
1.39947
1.40001
1.31719
1.40001
1.4
1.4
1.40001
1.40001
1.40328
1.40001
1.40001
1.40001
1.40001
1.4
1.40002
1.4
1.40169
1.40002
1.39998
1.39999
1.4
1.40004
1.4
1.40001
1.40001
1.4
1.40001
1.36371
1.40001
1.40331
1.40001
1.40001
1.4063
1.39997
1.40001
1.40001
1.40001
1.41421
1.40001
1.40001
1.37603
1.40001
1.40813
1.44623
1.40001
1.4
1.40001
1.45186
1.40001
1.40417
1.40884
1.39996
1.39997
1.42544
1.40144
1.40001
1.40058
1.40001
1.3998
1.40003
1.40001
1.38737
1.40014
1.39989
0.759752
1.40007
1.40096
1.4
1.40001
1.40001
1.40001
1.40002
1.40001
1.40042
1.38975
1.40001
1.40001
1.40001
1.40001
1.4
1.40001
1.40001
1.40001
1.40001
1.40001
1.4
1.40001
1.40001
1.4
1.40001
1.39999
1.40001
1.40001
1.4
1.39995
1.4
1.40001
1.40001
0.979225
1.40001
1.40001
1.40001
1.4
1.39975
1.40001
1.40001
1.40077
1.41448
1.4
1.40243
1.40001
1.40001
1.40001
1.40001
1.4
1.40709
1.39999
1.40001
1.40001
1.39883
1.4
1.40001
1.40001
1.6544
1.40001
1.40001
1.40001
1.40033
1.4
1.40001
1.40001
1.40001
1.40005
1.39933
1.40001
1.40001
1.40001
1.40001
1.40001
1.40001
1.39875
1.40001
1.40001
1.4
1.40001
1.40001
0.891714
1.39999
1.4
1.40001
1.40001
1.40001
1.40015
1.39769
1.40001
1.40001
1.4595
1.40046
1.40018
1.4
1.40001
1.40001
1.40001
1.40001
1.40001
1.40001
1.40001
1.4
1.4
1.4
1.39999
1.40001
1.40001
1.40001
1.40001
1.40001
1.40001
1.40001
1.40001
1.40425
1.05494
1.34129
1.4
1.40001
1.39965
1.40001
1.13239
1.40001
1.40001
1.4
1.40001
1.40001
1.40001
1.3956
1.4
1.39996
1.4
1.46021
1.40125
1.40107
1.4
1.40001
1.40001
1.40001
1.40002
1.4
1.40001
1.40014
1.4
1.40001
1.39999
1.41084
1.4
1.40001
1.40001
1.39887
1.40001
1.40001
1.40001
1.4
1.4
1.39999
1.40071
1.40288
1.40001
1.40008
1.40005
1.40076
1.39998
1.39991
1.40001
1.40001
1.40001
1.40001
1.39985
1.40005
1.40005
1.39992
1.40006
1.40001
1.40001
1.40001
1.40083
1.42132
1.40001
1.4
1.40001
1.40002
1.40001
1.40092
1.40001
1.39999
1.40001
1.40001
1.40001
1.40001
1.4
1.40001
1.33547
1.40001
1.40001
1.40001
1.4002
1.40001
1.41271
1.4
1.40001
1.37947
1.40001
1.40001
1.40001
1.4
1.39991
1.40001
1.40001
1.40567
1.40001
1.4
1.59671
1.40132
1.40001
1.40001
1.3896
1.3997
1.40001
1.40001
1.40001
1.3642
1.38654
1.40003
1.40001
1.39978
1.4
1.4
1.39957
1.40001
1.40008
1.39998
1.40001
1.4612
1.40001
1.40001
1.40001
1.40001
1.40629
0.774114
1.39999
1.40039
1.34744
1.40001
1.40001
1.40001
1.40001
1.40001
1.18836
1.3997
1.40001
1.40001
1.40001
1.40001
1.27881
1.40001
1.40001
1.40372
1.39998
1.40001
1.40001
1.39992
1.40001
1.40001
1.40001
1.40001
1.40001
1.40001
1.40045
1.40001
1.3999
1.2053
1.40587
1.40006
1.40001
1.38296
1.40001
1.39987
1.40001
1.39912
1.40001
1.4
1.42523
1.40001
1.40001
1.39929
1.4
1.40001
1.40255
1.40001
1.40001
1.40126
1.44506
1.40001
1.44395
1.40001
1.40001
1.40001
1.40001
1.36434
1.4
1.40001
1.40001
1.40001
1.40547
1.4011
1.40409
1.4
1.40001
1.40041
1.40039
1.40042
1.40001
1.40993
1.40001
1.40001
1.40001
1.40001
1.38943
1.40068
1.40001
1.40001
1.4
1.40001
1.40001
1.40001
1.40001
1.46111
1.4
1.45371
1.40001
1.40001
1.40002
1.40001
1.40002
1.40001
1.36957
1.39966
1.40001
1.4
1.42723
1.40001
1.40001
1.40001
1.40001
1.39878
1.40001
1.47507
1.40001
1.4
1.40001
1.40013
1.40001
1.40001
1.40001
1.39995
1.40001
1.40093
1.4
1.4
1.40001
1.40001
1.41611
1.40036
1.4
1.40001
1.40001
1.40001
1.39994
1.40001
1.40001
1.44216
1.38627
1.38997
1.4
1.36848
1.39955
1.40001
1.4
1.49292
1.40001
1.40002
1.40001
1.39953
1.49629
1.40001
1.40001
1.4004
1.4299
1.40001
1.40001
1.40058
1.3367
1.40001
1.25154
1.39986
1.40001
1.4
1.40001
1.39998
1.40001
1.4
1.40012
1.40001
1.40001
1.39991
1.40001
1.40001
1.40025
1.4
1.40001
0.870961
1.40001
1.40013
1.40001
1.40002
1.40023
1.40001
1.40001
1.40001
1.40001
1.4
1.40003
1.40034
1.40001
1.40001
1.11236
1.40001
1.40001
1.40001
1.40001
1.40001
1.40001
1.20388
1.43607
1.42242
1.40118
1.40003
1.40001
1.4
1.40001
1.40001
1.40001
1.39999
1.40001
1.40001
1.40001
1.4
1.41923
1.4
1.40992
1.40013
1.4
1.38846
1.40003
1.37013
1.42486
1.40906
1.4
1.4
1.40395
1.40001
1.40001
1.4
1.40001