/*--------------------------------*- C++ -*----------------------------------*\
  =========                 |
  \\      /  F ield         | OpenFOAM: The Open Source CFD Toolbox
   \\    /   O peration     | Website:  https://openfoam.org
    \\  /    A nd           | Version:  6
     \\/     M anipulation  |
\*---------------------------------------------------------------------------*/
FoamFile
{
    version     2.0;
    format      ascii;
    class       volScalarField;
    location    "3.16";
    object      p;
}
// * * * * * * * * * * * * * * * * * * * * * * * * * * * * * * * * * * * * * //

dimensions      [1 -1 -2 0 0 0 0];

internalField   nonuniform List<scalar> 
5625
(
1.03474
1.02767
1.01936
1.01033
1.00103
0.991737
0.982616
0.973671
0.964775
0.955679
0.946051
0.935585
0.924069
0.911465
0.898076
0.884495
0.871364
0.859365
0.849304
0.841943
0.837776
0.837063
0.839926
0.846188
0.855284
0.86651
0.879189
0.892581
0.905871
0.918456
0.930156
0.941066
0.951299
0.960935
0.970157
0.979327
0.988865
0.999
1.00955
1.01986
1.029
1.03596
1.04004
1.04104
1.03925
1.03538
1.0303
1.02481
1.01955
1.01489
1.01102
1.00796
1.00563
1.00392
1.00269
1.00183
1.00124
1.00084
1.00057
1.00039
1.00027
1.00019
1.00013
1.0001
1.00007
1.00005
1.00003
1.00002
1.00002
1.00001
1.00001
1.00001
1
1
1
1.03707
1.03081
1.02314
1.01462
1.00569
0.996701
0.98786
0.979252
0.970854
0.96252
0.954012
0.945103
0.935611
0.92548
0.914895
0.904232
0.893914
0.884464
0.876538
0.870721
0.86736
0.866668
0.86877
0.873517
0.880462
0.889096
0.898936
0.909413
0.919916
0.930058
0.939778
0.949165
0.958261
0.967081
0.975767
0.984629
0.993988
1.00393
1.01411
1.02381
1.03205
1.03792
1.04087
1.04084
1.03827
1.03392
1.02864
1.02319
1.0181
1.01368
1.01007
1.00724
1.0051
1.00354
1.00243
1.00166
1.00113
1.00077
1.00053
1.00036
1.00026
1.00018
1.00013
1.00009
1.00007
1.00005
1.00003
1.00002
1.00002
1.00001
1.00001
1.00001
1
1
1
1.03917
1.03382
1.0269
1.01896
1.01048
1.00183
0.993279
0.984969
0.976954
0.969167
0.961474
0.953726
0.945774
0.937534
0.929108
0.920715
0.912634
0.905259
0.899091
0.894531
0.891816
0.891142
0.892631
0.896152
0.90137
0.907951
0.915559
0.923758
0.932108
0.940389
0.94862
0.956863
0.965091
0.973283
0.981561
0.990182
0.999362
1.00904
1.01876
1.02769
1.03489
1.03957
1.04133
1.04029
1.037
1.03225
1.02685
1.02149
1.01661
1.01246
1.00912
1.00653
1.00459
1.00318
1.00219
1.00149
1.00102
1.0007
1.00048
1.00034
1.00024
1.00017
1.00012
1.00009
1.00006
1.00005
1.00003
1.00002
1.00002
1.00001
1.00001
1
1
1
1
1.04092
1.03659
1.03053
1.02327
1.01533
1.00708
0.998842
0.990819
0.983115
0.975732
0.968622
0.961702
0.954841
0.947965
0.941126
0.934448
0.928092
0.92234
0.917539
0.913946
0.911739
0.911106
0.912144
0.914725
0.918623
0.92365
0.929572
0.936056
0.942809
0.949739
0.956895
0.964298
0.971874
0.979587
0.98755
0.995969
1.00494
1.01427
1.02338
1.03139
1.03743
1.04082
1.04138
1.03937
1.03543
1.03037
1.02494
1.01973
1.01511
1.01125
1.00818
1.00583
1.00409
1.00284
1.00195
1.00134
1.00092
1.00063
1.00044
1.00031
1.00022
1.00016
1.00011
1.00008
1.00006
1.00004
1.00003
1.00002
1.00002
1.00001
1.00001
1
1
1
1
1.04224
1.03902
1.03392
1.02747
1.02015
1.01239
1.00452
0.996792
0.989363
0.982297
0.975603
0.969239
0.963114
0.957186
0.951487
0.94605
0.94095
0.936393
0.932609
0.929745
0.927943
0.927377
0.928099
0.929993
0.932932
0.936834
0.941534
0.946777
0.952395
0.958386
0.964797
0.971594
0.978679
0.986023
0.993734
1.00195
1.01066
1.01952
1.02785
1.03478
1.03952
1.04159
1.04096
1.03805
1.03358
1.02831
1.02293
1.01794
1.01362
1.01007
1.00728
1.00517
1.00362
1.00251
1.00173
1.00119
1.00082
1.00057
1.0004
1.00028
1.0002
1.00015
1.00011
1.00008
1.00006
1.00004
1.00003
1.00002
1.00001
1.00001
1.00001
1
1
1
1
1.04301
1.04099
1.03697
1.03143
1.02485
1.01767
1.01024
1.00286
0.995703
0.988901
0.98251
0.976522
0.970894
0.96562
0.960693
0.956088
0.951857
0.948153
0.945103
0.942777
0.941295
0.9408
0.941305
0.942721
0.945006
0.948135
0.951983
0.956369
0.961221
0.966587
0.97249
0.978849
0.985558
0.992608
1.00009
1.00808
1.01642
1.02465
1.03202
1.03772
1.04107
1.04178
1.04003
1.03634
1.03146
1.0261
1.02086
1.01614
1.01215
1.00892
1.00642
1.00454
1.00318
1.0022
1.00152
1.00105
1.00073
1.00051
1.00036
1.00026
1.00019
1.00014
1.0001
1.00007
1.00005
1.00004
1.00003
1.00002
1.00001
1.00001
1.00001
1
1
1
1
1.04316
1.04239
1.03955
1.03504
1.02932
1.02282
1.01593
1.00895
1.0021
0.995563
0.989424
0.983706
0.978416
0.973562
0.969123
0.965062
0.961429
0.958317
0.955764
0.953814
0.952584
0.952158
0.952516
0.953621
0.955492
0.95812
0.961397
0.965219
0.969585
0.974549
0.980097
0.986123
0.992529
0.999322
1.00657
1.01425
1.02208
1.0295
1.03574
1.04005
1.04196
1.04136
1.03859
1.03427
1.02911
1.02378
1.01877
1.01438
1.01073
1.00783
1.00561
1.00396
1.00276
1.00192
1.00133
1.00092
1.00064
1.00046
1.00033
1.00024
1.00017
1.00013
1.00009
1.00007
1.00005
1.00004
1.00003
1.00002
1.00001
1.00001
1.00001
1
1
1
1
1.04261
1.04311
1.04153
1.03816
1.03341
1.02771
1.02146
1.01497
1.00851
1.00227
0.996364
0.990864
0.985816
0.98124
0.977105
0.973399
0.970165
0.967434
0.965202
0.96352
0.962481
0.96211
0.962378
0.963304
0.964937
0.967253
0.970165
0.973636
0.977709
0.982415
0.987696
0.99344
0.999577
1.00612
1.01308
1.02033
1.02748
1.03388
1.03881
1.04165
1.04211
1.04029
1.03666
1.03187
1.02659
1.02141
1.01669
1.01266
1.00938
1.0068
1.00485
1.00342
1.00238
1.00166
1.00115
1.0008
1.00057
1.0004
1.00029
1.00021
1.00016
1.00012
1.00009
1.00006
1.00005
1.00003
1.00002
1.00002
1.00001
1.00001
1.00001
1
1
1
1
1.04132
1.04306
1.04277
1.04063
1.03698
1.03221
1.02671
1.02083
1.01483
1.00894
1.0033
0.998019
0.993185
0.988809
0.984872
0.9814
0.978426
0.97593
0.973903
0.972408
0.971502
0.971171
0.971404
0.972254
0.973762
0.975891
0.978581
0.981842
0.985733
0.99025
0.995304
1.00079
1.00666
1.01291
1.0195
1.02616
1.03242
1.03761
1.04108
1.0424
1.04148
1.03859
1.03428
1.0292
1.02397
1.01903
1.01467
1.01103
1.00811
1.00585
1.00416
1.00292
1.00204
1.00142
1.00099
1.0007
1.0005
1.00036
1.00026
1.00019
1.00014
1.0001
1.00008
1.00006
1.00004
1.00003
1.00002
1.00002
1.00001
1.00001
1
1
1
1
1
1.03928
1.04217
1.04317
1.04232
1.03987
1.03615
1.03153
1.02636
1.02094
1.01548
1.01017
1.00516
1.00054
0.996325
0.992548
0.989253
0.986444
0.984092
0.982214
0.980861
0.980046
0.979744
0.97998
0.980813
0.982257
0.98427
0.986825
0.989964
0.993727
0.998073
1.0029
1.00811
1.01367
1.01956
1.02562
1.03151
1.03666
1.04046
1.0424
1.04223
1.04006
1.0363
1.03153
1.02636
1.0213
1.01669
1.01274
1.00949
1.00693
1.00498
1.00353
1.00248
1.00173
1.00121
1.00085
1.0006
1.00043
1.00031
1.00023
1.00017
1.00013
1.00009
1.00007
1.00005
1.00004
1.00003
1.00002
1.00001
1.00001
1.00001
1
1
1
1
1
1.03655
1.04042
1.04265
1.0431
1.04192
1.03936
1.03575
1.03142
1.02667
1.02175
1.01688
1.0122
1.00781
1.00379
1.00019
0.997044
0.994351
0.992107
0.990348
0.9891
0.988343
0.988076
0.988344
0.989188
0.99059
0.99252
0.994992
0.998046
1.00168
1.00583
1.01039
1.01529
1.02049
1.02589
1.03124
1.03612
1.03998
1.04227
1.04267
1.04112
1.03791
1.03352
1.02852
1.02343
1.01866
1.01445
1.01092
1.00808
1.00587
1.0042
1.00297
1.00208
1.00146
1.00103
1.00072
1.00052
1.00037
1.00027
1.0002
1.00015
1.00011
1.00009
1.00006
1.00005
1.00003
1.00003
1.00002
1.00001
1.00001
1.00001
1
1
1
1
1
1.03323
1.03784
1.04115
1.04287
1.04299
1.04166
1.03916
1.0358
1.03185
1.02759
1.02325
1.01898
1.01491
1.01113
1.00774
1.00475
1.00218
1.00004
0.998395
0.997225
0.996518
0.996296
0.996605
0.997455
0.998817
1.00068
1.00308
1.00604
1.00952
1.01343
1.01768
1.0222
1.02691
1.03165
1.03608
1.03975
1.04215
1.0429
1.04184
1.03913
1.03513
1.03037
1.02535
1.02049
1.01611
1.01234
1.00925
1.00679
1.00491
1.0035
1.00247
1.00174
1.00122
1.00086
1.00061
1.00044
1.00032
1.00024
1.00018
1.00013
1.0001
1.00008
1.00006
1.00004
1.00003
1.00002
1.00002
1.00001
1.00001
1.00001
1
1
1
1
1
1.02951
1.03456
1.03871
1.04157
1.04295
1.0429
1.0416
1.03931
1.03629
1.03281
1.0291
1.02534
1.02168
1.01823
1.01509
1.01228
1.00987
1.00788
1.00634
1.00523
1.00458
1.00441
1.00476
1.0056
1.00692
1.00872
1.01103
1.01385
1.01711
1.02071
1.02456
1.02859
1.03267
1.03654
1.03985
1.04214
1.04302
1.04229
1.03998
1.03637
1.03187
1.02699
1.02214
1.01765
1.0137
1.0104
1.00773
1.00564
1.00406
1.00289
1.00204
1.00144
1.00101
1.00072
1.00052
1.00038
1.00028
1.00021
1.00016
1.00012
1.00009
1.00007
1.00005
1.00004
1.00003
1.00002
1.00001
1.00001
1.00001
1
1
1
1
1
1
1.0256
1.03076
1.03544
1.0392
1.04173
1.04294
1.04288
1.04175
1.03977
1.03718
1.03422
1.03108
1.02793
1.0249
1.02207
1.01951
1.01731
1.01548
1.01406
1.01304
1.01247
1.01236
1.01271
1.01352
1.01478
1.01651
1.01869
1.0213
1.02425
1.02745
1.0308
1.0342
1.03745
1.04027
1.04227
1.04311
1.04253
1.04051
1.03722
1.03301
1.02831
1.02353
1.01901
1.01495
1.01149
1.00864
1.00638
1.00463
1.00332
1.00236
1.00167
1.00118
1.00084
1.0006
1.00043
1.00032
1.00024
1.00018
1.00014
1.0001
1.00008
1.00006
1.00004
1.00003
1.00002
1.00002
1.00001
1.00001
1.00001
1
1
1
1
1
1
1.02171
1.02669
1.03157
1.03591
1.03936
1.04169
1.04285
1.04291
1.04205
1.04047
1.03838
1.03598
1.03344
1.0309
1.02848
1.02625
1.02431
1.02269
1.02141
1.02051
1.02002
1.01995
1.02031
1.02107
1.02225
1.02385
1.02584
1.02815
1.03069
1.03338
1.03609
1.03869
1.04094
1.04254
1.04316
1.04259
1.04073
1.03769
1.03375
1.02927
1.02462
1.02013
1.01604
1.01248
1.0095
1.00709
1.0052
1.00376
1.00269
1.00191
1.00135
1.00096
1.00068
1.00049
1.00036
1.00027
1.0002
1.00015
1.00012
1.00009
1.00007
1.00005
1.00004
1.00003
1.00002
1.00002
1.00001
1.00001
1.00001
1
1
1
1
1
1
1.01805
1.02261
1.02736
1.03194
1.03599
1.03921
1.04145
1.04267
1.04295
1.04243
1.0413
1.03974
1.03792
1.03599
1.03406
1.03225
1.03062
1.02924
1.02816
1.0274
1.02701
1.02698
1.02731
1.028
1.02906
1.03046
1.03216
1.03408
1.03611
1.03816
1.0401
1.04174
1.04285
1.04316
1.04246
1.04066
1.0378
1.0341
1.02984
1.02537
1.02098
1.01691
1.01331
1.01025
1.00774
1.00574
1.00419
1.00302
1.00215
1.00153
1.00108
1.00077
1.00056
1.00041
1.0003
1.00023
1.00017
1.00013
1.0001
1.00008
1.00006
1.00005
1.00003
1.00003
1.00002
1.00001
1.00001
1.00001
1
1
1
1
1
1
1
1.01473
1.01874
1.02312
1.02761
1.0319
1.03569
1.03875
1.04097
1.04232
1.04288
1.04275
1.04211
1.04109
1.03985
1.0385
1.03718
1.03594
1.03487
1.03402
1.03343
1.03313
1.03313
1.03342
1.03401
1.03489
1.03603
1.03734
1.03875
1.04015
1.04145
1.04248
1.04307
1.043
1.04211
1.04028
1.03754
1.03404
1.03001
1.02575
1.02151
1.01753
1.01395
1.01087
1.00829
1.00621
1.00458
1.00333
1.00239
1.0017
1.00121
1.00086
1.00062
1.00045
1.00033
1.00025
1.00019
1.00015
1.00011
1.00009
1.00007
1.00005
1.00004
1.00003
1.00002
1.00002
1.00001
1.00001
1.00001
1
1
1
1
1
1
1
1.01182
1.01524
1.0191
1.02324
1.02744
1.03144
1.035
1.03795
1.04019
1.04171
1.04256
1.04284
1.04267
1.04219
1.04149
1.04071
1.03993
1.03921
1.03863
1.03823
1.03803
1.03804
1.03827
1.03872
1.03936
1.04014
1.04098
1.04179
1.04249
1.04295
1.04304
1.04258
1.04144
1.03954
1.03687
1.03355
1.02976
1.02574
1.0217
1.01786
1.01437
1.01132
1.00873
1.00661
1.00492
1.0036
1.00261
1.00187
1.00133
1.00095
1.00068
1.00049
1.00036
1.00027
1.0002
1.00016
1.00012
1.0001
1.00007
1.00006
1.00004
1.00003
1.00003
1.00002
1.00001
1.00001
1.00001
1
1
1
1
1
1
1
1
1.00934
1.01218
1.01546
1.0191
1.02297
1.02687
1.03058
1.03393
1.03677
1.03904
1.04072
1.04184
1.04249
1.04276
1.04275
1.04254
1.04224
1.04192
1.04164
1.04143
1.04133
1.04135
1.0415
1.04176
1.0421
1.04246
1.04277
1.04296
1.04292
1.04255
1.04174
1.04038
1.03839
1.03579
1.03265
1.0291
1.02533
1.02153
1.01789
1.01454
1.01157
1.00902
1.0069
1.00519
1.00384
1.0028
1.00202
1.00144
1.00103
1.00074
1.00053
1.00039
1.00029
1.00022
1.00017
1.00013
1.0001
1.00008
1.00006
1.00005
1.00004
1.00003
1.00002
1.00002
1.00001
1.00001
1.00001
1
1
1
1
1
1
1
1
1.00728
1.00958
1.01229
1.01538
1.01876
1.02232
1.0259
1.02932
1.03245
1.03518
1.03745
1.03923
1.04057
1.04151
1.04213
1.04249
1.04267
1.04274
1.04275
1.04274
1.04273
1.04275
1.04279
1.04284
1.04286
1.04279
1.04258
1.04215
1.04144
1.04035
1.03882
1.03679
1.03427
1.03131
1.02801
1.02453
1.02101
1.01761
1.01445
1.01161
1.00915
1.00707
1.00537
1.00401
1.00295
1.00214
1.00154
1.0011
1.00079
1.00057
1.00041
1.0003
1.00023
1.00018
1.00014
1.00011
1.00008
1.00007
1.00005
1.00004
1.00003
1.00002
1.00002
1.00001
1.00001
1.00001
1.00001
1
1
1
1
1
1
1
1
1.00561
1.00742
1.00961
1.01215
1.01501
1.0181
1.02133
1.02457
1.02769
1.03057
1.03314
1.03535
1.03717
1.03863
1.03975
1.04059
1.04119
1.04161
1.04188
1.04204
1.04212
1.04213
1.04206
1.0419
1.04161
1.04116
1.04049
1.03956
1.03831
1.0367
1.03469
1.0323
1.02955
1.02653
1.02335
1.02014
1.01702
1.0141
1.01144
1.00911
1.00711
1.00545
1.00411
1.00305
1.00223
1.00161
1.00116
1.00083
1.00059
1.00043
1.00032
1.00024
1.00018
1.00014
1.00011
1.00009
1.00007
1.00006
1.00004
1.00003
1.00003
1.00002
1.00002
1.00001
1.00001
1.00001
1
1
1
1
1
1
1
1
1
1.00426
1.00569
1.00741
1.00945
1.01178
1.01437
1.01715
1.02003
1.02291
1.0257
1.02831
1.03067
1.03274
1.0345
1.03596
1.03713
1.03804
1.03872
1.0392
1.03951
1.03965
1.03964
1.03948
1.03914
1.03861
1.03786
1.03686
1.03558
1.034
1.0321
1.02988
1.02739
1.02468
1.02184
1.01896
1.01615
1.01349
1.01106
1.00889
1.00701
1.00543
1.00413
1.00309
1.00228
1.00166
1.0012
1.00086
1.00061
1.00044
1.00032
1.00024
1.00018
1.00014
1.00011
1.00009
1.00007
1.00006
1.00005
1.00004
1.00003
1.00002
1.00002
1.00001
1.00001
1.00001
1
1
1
1
1
1
1
1
1
1
1.0032
1.0043
1.00564
1.00724
1.0091
1.0112
1.0135
1.01595
1.01847
1.02098
1.02342
1.02571
1.02781
1.02966
1.03127
1.03261
1.0337
1.03454
1.03515
1.03554
1.03572
1.0357
1.03546
1.03501
1.03433
1.0334
1.03222
1.03077
1.02906
1.02709
1.02489
1.02252
1.02003
1.01751
1.01503
1.01267
1.01048
1.0085
1.00678
1.0053
1.00407
1.00308
1.00229
1.00168
1.00121
1.00087
1.00062
1.00045
1.00033
1.00024
1.00018
1.00014
1.00011
1.00009
1.00007
1.00006
1.00005
1.00004
1.00003
1.00002
1.00002
1.00001
1.00001
1.00001
1.00001
1
1
1
1
1
1
1
1
1
1
1.00238
1.00322
1.00425
1.00548
1.00693
1.00859
1.01044
1.01244
1.01454
1.0167
1.01884
1.02092
1.02286
1.02464
1.02623
1.02759
1.02872
1.02962
1.03028
1.0307
1.0309
1.03086
1.03059
1.03009
1.02935
1.02837
1.02714
1.02569
1.02401
1.02215
1.02013
1.01801
1.01585
1.01371
1.01165
1.00973
1.00797
1.00641
1.00507
1.00393
1.003
1.00225
1.00166
1.00121
1.00087
1.00062
1.00045
1.00032
1.00024
1.00018
1.00013
1.00011
1.00009
1.00007
1.00006
1.00005
1.00004
1.00003
1.00002
1.00002
1.00001
1.00001
1.00001
1.00001
1
1
1
1
1
1
1
1
1
1
1
1.00176
1.00238
1.00316
1.0041
1.00521
1.00649
1.00794
1.00953
1.01123
1.013
1.0148
1.01657
1.01828
1.01987
1.02131
1.02258
1.02366
1.02452
1.02516
1.02557
1.02576
1.02572
1.02545
1.02495
1.02422
1.02327
1.02212
1.02077
1.01925
1.01759
1.01584
1.01404
1.01224
1.0105
1.00884
1.00732
1.00595
1.00474
1.00372
1.00286
1.00216
1.00161
1.00118
1.00085
1.00061
1.00044
1.00031
1.00023
1.00017
1.00013
1.0001
1.00008
1.00006
1.00005
1.00004
1.00004
1.00003
1.00002
1.00002
1.00002
1.00001
1.00001
1.00001
1
1
1
1
1
1
1
1
1
1
1
1
1.00129
1.00175
1.00233
1.00303
1.00387
1.00485
1.00596
1.00719
1.00853
1.00994
1.01138
1.01284
1.01426
1.01561
1.01685
1.01795
1.0189
1.01967
1.02025
1.02063
1.02079
1.02075
1.0205
1.02004
1.01938
1.01853
1.0175
1.01632
1.01502
1.01362
1.01217
1.0107
1.00925
1.00787
1.00657
1.00539
1.00434
1.00344
1.00267
1.00203
1.00152
1.00112
1.00081
1.00058
1.00042
1.0003
1.00021
1.00015
1.00012
1.00009
1.00007
1.00006
1.00005
1.00004
1.00003
1.00003
1.00002
1.00002
1.00002
1.00001
1.00001
1.00001
1.00001
1
1
1
1
1
1
1
1
1
1
1
1
1.00094
1.00128
1.0017
1.00223
1.00285
1.00358
1.00441
1.00535
1.00638
1.00747
1.0086
1.00975
1.01089
1.01198
1.013
1.01392
1.01472
1.01537
1.01586
1.01618
1.01631
1.01627
1.01605
1.01565
1.01508
1.01436
1.01349
1.01251
1.01144
1.0103
1.00914
1.00797
1.00684
1.00577
1.00478
1.00389
1.00311
1.00243
1.00187
1.00141
1.00104
1.00076
1.00054
1.00039
1.00027
1.00019
1.00014
1.0001
1.00008
1.00006
1.00005
1.00004
1.00004
1.00003
1.00003
1.00002
1.00002
1.00002
1.00001
1.00001
1.00001
1.00001
1
1
1
1
1
1
1
1
1
1
1
1
1
1.00068
1.00093
1.00124
1.00162
1.00208
1.00262
1.00324
1.00394
1.00471
1.00553
1.0064
1.00729
1.00817
1.00903
1.00983
1.01057
1.0112
1.01172
1.01212
1.01237
1.01248
1.01244
1.01225
1.01192
1.01145
1.01086
1.01016
1.00937
1.00851
1.00762
1.00671
1.00581
1.00495
1.00414
1.0034
1.00274
1.00217
1.00168
1.00128
1.00095
1.00069
1.0005
1.00035
1.00025
1.00017
1.00012
1.00009
1.00006
1.00005
1.00004
1.00004
1.00003
1.00003
1.00002
1.00002
1.00002
1.00002
1.00001
1.00001
1.00001
1.00001
1
1
1
1
1
1
1
1
1
1
1
1
1
1
1.0005
1.00068
1.0009
1.00118
1.00151
1.0019
1.00236
1.00287
1.00344
1.00405
1.0047
1.00536
1.00603
1.00668
1.0073
1.00787
1.00836
1.00876
1.00907
1.00926
1.00934
1.00931
1.00915
1.00888
1.0085
1.00803
1.00747
1.00686
1.0062
1.00551
1.00482
1.00415
1.0035
1.0029
1.00236
1.00188
1.00147
1.00113
1.00084
1.00061
1.00044
1.00031
1.00021
1.00015
1.0001
1.00007
1.00005
1.00004
1.00003
1.00003
1.00002
1.00002
1.00002
1.00002
1.00002
1.00001
1.00001
1.00001
1.00001
1.00001
1
1
1
1
1
1
1
1
1
1
1
1
1
1
1
1.00036
1.00049
1.00066
1.00085
1.0011
1.00138
1.0017
1.00207
1.00249
1.00294
1.0034
1.00389
1.00439
1.00488
1.00534
1.00575
1.00612
1.00643
1.00666
1.0068
1.00685
1.00682
1.00669
1.00647
1.00618
1.00581
1.00539
1.00492
1.00441
1.0039
1.00339
1.00289
1.00242
1.00198
1.00159
1.00125
1.00096
1.00072
1.00053
1.00038
1.00026
1.00018
1.00012
1.00008
1.00005
1.00003
1.00003
1.00002
1.00002
1.00002
1.00002
1.00002
1.00001
1.00001
1.00001
1.00001
1.00001
1.00001
1.00001
1
1
1
1
1
1
1
1
1
1
1
1
1
1
1
1
1.00027
1.00036
1.00048
1.00062
1.00079
1.00099
1.00123
1.00149
1.00179
1.00211
1.00245
1.0028
1.00316
1.00351
1.00384
1.00415
1.00442
1.00463
1.0048
1.0049
1.00493
1.0049
1.00479
1.00462
1.0044
1.00412
1.0038
1.00345
1.00307
1.00269
1.00232
1.00196
1.00162
1.00131
1.00104
1.0008
1.0006
1.00044
1.00031
1.00022
1.00014
1.00009
1.00005
1.00003
1.00002
1.00001
1.00001
1.00001
1.00001
1.00001
1.00001
1.00001
1.00001
1.00001
1.00001
1.00001
1.00001
1.00001
1
1
1
1
1
1
1
1
1
1
1
1
1
1
1
1
1
1.0002
1.00027
1.00035
1.00045
1.00058
1.00072
1.00088
1.00107
1.00128
1.0015
1.00174
1.002
1.00225
1.0025
1.00273
1.00295
1.00314
1.00329
1.0034
1.00347
1.00349
1.00345
1.00337
1.00324
1.00306
1.00285
1.00262
1.00236
1.00209
1.00181
1.00154
1.00129
1.00105
1.00084
1.00065
1.00049
1.00036
1.00025
1.00017
1.0001
1.00006
1.00003
1.00001
1
0.999998
0.999997
0.999998
1
1
1
1.00001
1.00001
1.00001
1.00001
1.00001
1.00001
1
1
1
1
1
1
1
1
1
1
1
1
1
1
1
1
1
1
1
1.00015
1.0002
1.00026
1.00034
1.00042
1.00052
1.00064
1.00077
1.00091
1.00107
1.00124
1.00141
1.00159
1.00176
1.00192
1.00207
1.0022
1.0023
1.00238
1.00242
1.00242
1.00239
1.00232
1.00223
1.00209
1.00194
1.00176
1.00157
1.00138
1.00118
1.001
1.00082
1.00065
1.00051
1.00038
1.00028
1.00019
1.00012
1.00007
1.00003
1.00001
0.999995
0.999988
0.999985
0.999986
0.999989
0.999992
0.999995
0.999998
1
1
1
1
1
1
1
1
1
1
1
1
1
1
1
1
1
1
1
1
1
1
1
1
1
1
1.00012
1.00016
1.0002
1.00025
1.00031
1.00038
1.00046
1.00055
1.00065
1.00076
1.00088
1.001
1.00111
1.00123
1.00134
1.00144
1.00153
1.00159
1.00164
1.00166
1.00165
1.00163
1.00157
1.00149
1.0014
1.00128
1.00116
1.00102
1.00088
1.00075
1.00061
1.00049
1.00038
1.00028
1.0002
1.00013
1.00008
1.00004
1.00001
0.999992
0.999981
0.999975
0.999975
0.999977
0.99998
0.999984
0.999989
0.999993
0.999996
0.999998
1
1
1
1
1
1
1
1
1
1
1
1
1
1
1
1
1
1
1
1
1
1
1
1
1
1.00009
1.00012
1.00015
1.00019
1.00023
1.00028
1.00034
1.0004
1.00047
1.00054
1.00062
1.0007
1.00078
1.00086
1.00093
1.00099
1.00105
1.00109
1.00111
1.00112
1.00111
1.00108
1.00104
1.00098
1.00091
1.00083
1.00073
1.00064
1.00054
1.00045
1.00036
1.00027
1.0002
1.00014
1.00009
1.00004
1.00001
0.99999
0.999974
0.999966
0.999964
0.999965
0.999968
0.999972
0.999977
0.999982
0.999987
0.999992
0.999996
0.999998
1
1
1
1
1
1
1
1
1
1
1
1
1
1
1
1
1
1
1
1
1
1
1
1
1
1.00007
1.00009
1.00012
1.00014
1.00018
1.00021
1.00025
1.00029
1.00034
1.00039
1.00044
1.00049
1.00055
1.0006
1.00064
1.00068
1.00071
1.00073
1.00075
1.00075
1.00074
1.00071
1.00067
1.00063
1.00057
1.00051
1.00045
1.00038
1.00031
1.00025
1.00019
1.00013
1.00009
1.00005
1.00001
0.999991
0.999974
0.999963
0.999957
0.999956
0.999958
0.999961
0.999966
0.999972
0.999978
0.999983
0.999987
0.999991
0.999994
0.999996
0.999999
1
1
1
1
1
1
1
1
1
1
1
1
1
1
1
1
1
1
1
1
1
1
1
1
1.00006
1.00007
1.00009
1.00012
1.00014
1.00016
1.00019
1.00022
1.00025
1.00028
1.00032
1.00035
1.00038
1.00042
1.00044
1.00047
1.00048
1.00049
1.0005
1.00049
1.00048
1.00046
1.00043
1.00039
1.00035
1.00031
1.00026
1.00021
1.00017
1.00012
1.00008
1.00005
1.00002
0.999993
0.999975
0.999962
0.999954
0.99995
0.99995
0.999952
0.999956
0.999962
0.999968
0.999973
0.999979
0.999984
0.999988
0.999992
0.999995
0.999997
0.999998
0.999999
1
1
1
1
1
1
1
1
1
1
1
1
1
1
1
1
1
1
1
1
1
1
1
1.00005
1.00006
1.00007
1.00008
1.00011
1.00012
1.00014
1.00016
1.00019
1.00021
1.00023
1.00025
1.00027
1.00029
1.00031
1.00032
1.00033
1.00033
1.00033
1.00032
1.00031
1.00029
1.00026
1.00024
1.00021
1.00017
1.00014
1.00011
1.00007
1.00004
1.00002
0.999996
0.999978
0.999965
0.999955
0.999949
0.999946
0.999946
0.999949
0.999953
0.999959
0.999964
0.99997
0.999976
0.999981
0.999985
0.999989
0.999992
0.999995
0.999997
0.999998
0.999999
1
1
1
1
1
1
1
1
1
1
1
1
1
1
1
1
1
1
1
1
1
1
1
1.00004
1.00005
1.00006
1.00007
1.00008
1.0001
1.00011
1.00013
1.00014
1.00015
1.00017
1.00018
1.0002
1.00021
1.00022
1.00022
1.00022
1.00022
1.00021
1.00021
1.00019
1.00018
1.00016
1.00014
1.00011
1.00009
1.00006
1.00004
1.00002
1
0.999984
0.999969
0.999958
0.999951
0.999947
0.999945
0.999946
0.999949
0.999952
0.999957
0.999962
0.999968
0.999974
0.999979
0.999983
0.999987
0.999991
0.999994
0.999996
0.999997
0.999999
0.999999
1
1
1
1
1
1
1
1
1
1
1
1
1
1
1
1
1
1
1
1
1
1
1
1.00003
1.00004
1.00004
1.00005
1.00007
1.00007
1.00008
1.0001
1.00011
1.00012
1.00013
1.00014
1.00014
1.00015
1.00015
1.00015
1.00015
1.00015
1.00014
1.00013
1.00012
1.00011
1.00009
1.00007
1.00006
1.00004
1.00002
1.00001
0.99999
0.999976
0.999966
0.999958
0.999952
0.999948
0.999947
0.999947
0.999949
0.999953
0.999958
0.999962
0.999968
0.999973
0.999978
0.999982
0.999986
0.999989
0.999992
0.999994
0.999996
0.999997
0.999998
0.999999
1
1
1
1
1
1
1
1
1
1
1
1
1
1
1
1
1
1
1
1
1
1
1
1.00002
1.00003
1.00004
1.00004
1.00005
1.00006
1.00007
1.00007
1.00008
1.00009
1.00009
1.0001
1.0001
1.00011
1.00011
1.00011
1.0001
1.0001
1.00009
1.00009
1.00007
1.00006
1.00005
1.00004
1.00002
1.00001
0.999996
0.999985
0.999975
0.999966
0.999959
0.999954
0.999952
0.999951
0.999951
0.999953
0.999957
0.99996
0.999963
0.999968
0.999972
0.999977
0.999981
0.999985
0.999988
0.999991
0.999994
0.999995
0.999997
0.999998
0.999998
0.999999
0.999999
1
1
1
1
1
1
1
1
1
1
1
1
1
1
1
1
1
1
1
1
1
1
1.00002
1.00002
1.00003
1.00003
1.00004
1.00005
1.00005
1.00006
1.00006
1.00007
1.00007
1.00008
1.00008
1.00008
1.00008
1.00008
1.00007
1.00007
1.00006
1.00005
1.00005
1.00004
1.00003
1.00001
1
0.999995
0.999986
0.999978
0.99997
0.999965
0.999961
0.999958
0.999956
0.999955
0.999956
0.999958
0.999961
0.999965
0.999969
0.999974
0.999978
0.999982
0.999985
0.999987
0.99999
0.999992
0.999994
0.999996
0.999997
0.999998
0.999999
0.999999
1
1
1
1
1
1
1
1
1
1
1
1
1
1
1
1
1
1
1
1
1
1
1
1.00002
1.00002
1.00002
1.00003
1.00003
1.00004
1.00004
1.00004
1.00005
1.00005
1.00006
1.00006
1.00006
1.00006
1.00006
1.00006
1.00005
1.00005
1.00004
1.00003
1.00003
1.00002
1.00001
1
0.999995
0.999987
0.99998
0.999974
0.999969
0.999965
0.999963
0.999961
0.999961
0.999962
0.999964
0.999967
0.999969
0.999972
0.999975
0.999978
0.999981
0.999985
0.999988
0.99999
0.999992
0.999994
0.999996
0.999997
0.999998
0.999998
0.999999
0.999999
1
1
1
1
1
1
1
1
1
1
1
1
1
1
1
1
1
1
1
1
1
1
1
1.00001
1.00001
1.00002
1.00002
1.00002
1.00003
1.00003
1.00004
1.00004
1.00004
1.00004
1.00004
1.00004
1.00004
1.00004
1.00004
1.00004
1.00003
1.00003
1.00002
1.00002
1.00001
1
0.999998
0.999992
0.999986
0.999981
0.999976
0.999972
0.99997
0.999968
0.999967
0.999967
0.999968
0.999969
0.999971
0.999974
0.999978
0.999981
0.999984
0.999986
0.999988
0.99999
0.999992
0.999994
0.999995
0.999997
0.999997
0.999998
0.999999
0.999999
0.999999
1
1
1
1
1
1
1
1
1
1
1
1
1
1
1
1
1
1
1
1
1
1
1
1.00001
1.00001
1.00001
1.00002
1.00002
1.00002
1.00002
1.00003
1.00003
1.00003
1.00003
1.00003
1.00003
1.00003
1.00003
1.00003
1.00003
1.00002
1.00002
1.00001
1.00001
1.00001
1
0.999994
0.999989
0.999985
0.999982
0.999979
0.999977
0.999975
0.999973
0.999973
0.999974
0.999975
0.999977
0.999978
0.99998
0.999981
0.999984
0.999986
0.999989
0.999991
0.999993
0.999994
0.999995
0.999996
0.999998
0.999998
0.999999
0.999999
0.999999
0.999999
1
1
1
1
1
1
1
1
1
1
1
1
1
1
1
1
1
1
1
1
1
1
1
1.00001
1.00001
1.00001
1.00001
1.00002
1.00002
1.00002
1.00002
1.00002
1.00002
1.00002
1.00002
1.00003
1.00002
1.00002
1.00002
1.00002
1.00002
1.00001
1.00001
1.00001
1
0.999999
0.999995
0.999991
0.999987
0.999985
0.999982
0.99998
0.999978
0.999978
0.999978
0.999979
0.999979
0.999981
0.999983
0.999984
0.999986
0.999988
0.99999
0.999991
0.999993
0.999994
0.999995
0.999996
0.999997
0.999997
0.999998
0.999999
0.999999
1
1
1
1
1
1
1
1
1
1
1
1
1
1
1
1
1
1
1
1
1
1
1
1
1
1
1.00001
1.00001
1.00001
1.00001
1.00001
1.00002
1.00002
1.00002
1.00002
1.00002
1.00002
1.00002
1.00002
1.00002
1.00002
1.00001
1.00001
1.00001
1.00001
1
1
0.999997
0.999994
0.999992
0.99999
0.999987
0.999985
0.999985
0.999984
0.999983
0.999983
0.999984
0.999985
0.999986
0.999987
0.999988
0.999989
0.999991
0.999992
0.999993
0.999995
0.999995
0.999996
0.999997
0.999998
0.999999
0.999999
0.999999
0.999999
0.999999
1
1
1
1
1
1
1
1
1
1
1
1
1
1
1
1
1
1
1
1
1
1
1
1
1.00001
1
1.00001
1.00001
1.00001
1.00001
1.00001
1.00001
1.00001
1.00001
1.00001
1.00001
1.00001
1.00001
1.00001
1.00001
1.00001
1.00001
1.00001
1
1
1
0.999998
0.999995
0.999994
0.999992
0.99999
0.999988
0.999987
0.999987
0.999987
0.999987
0.999987
0.999987
0.999989
0.99999
0.999991
0.999992
0.999993
0.999994
0.999995
0.999996
0.999997
0.999997
0.999998
0.999998
0.999999
0.999999
1
1
1
1
1
1
1
1
1
1
1
1
1
1
1
1
1
1
1
1
1
1
1
1
1
1
1
1
1
1
1.00001
1.00001
1.00001
1.00001
1.00001
1.00001
1.00001
1.00001
1.00001
1.00001
1.00001
1.00001
1.00001
1.00001
1.00001
1.00001
1
1
1
0.999998
0.999996
0.999994
0.999993
0.999992
0.999991
0.999991
0.99999
0.99999
0.99999
0.999991
0.999991
0.999991
0.999992
0.999993
0.999994
0.999994
0.999995
0.999996
0.999997
0.999997
0.999998
0.999998
0.999999
0.999999
0.999999
0.999999
1
1
1
1
1
1
1
1
1
1
1
1
1
1
1
1
1
1
1
1
1
1
1
1
1
1
1
1
1
1
1
1
1.00001
1.00001
1.00001
1.00001
1.00001
1.00001
1.00001
1.00001
1.00001
1.00001
1.00001
1
1
1
1
1
0.999999
0.999998
0.999996
0.999995
0.999994
0.999993
0.999993
0.999992
0.999993
0.999993
0.999993
0.999993
0.999994
0.999994
0.999995
0.999996
0.999996
0.999997
0.999997
0.999998
0.999998
0.999999
0.999999
0.999999
0.999999
1
1
1
1
1
1
1
1
1
1
1
1
1
1
1
1
1
1
1
1
1
1
1
1
1
1
1
1
1
1
1
1
1
1
1
1
1
1.00001
1.00001
1.00001
1.00001
1.00001
1.00001
1
1
1
1
1
1
0.999999
0.999998
0.999998
0.999997
0.999996
0.999996
0.999995
0.999995
0.999995
0.999995
0.999995
0.999995
0.999995
0.999995
0.999996
0.999996
0.999996
0.999997
0.999997
0.999998
0.999998
0.999999
0.999999
0.999999
0.999999
1
1
1
1
1
1
1
1
1
1
1
1
1
1
1
1
1
1
1
1
1
1
1
1
1
1
1
1
1
1
1
1
1
1
1
1
1
1
1
1
1
1
1
1
1
1
1
1
1
1
1
0.999999
0.999998
0.999998
0.999997
0.999997
0.999997
0.999996
0.999996
0.999996
0.999996
0.999996
0.999997
0.999997
0.999997
0.999997
0.999998
0.999998
0.999998
0.999999
0.999999
0.999999
0.999999
0.999999
0.999999
1
1
1
1
1
1
1
1
1
1
1
1
1
1
1
1
1
1
1
1
1
1
1
1
1
1
1
1
1
1
1
1
1
1
1
1
1
1
1
1
1
1
1
1
1
1
1
1
1
1
1
0.999999
0.999999
0.999998
0.999998
0.999998
0.999997
0.999997
0.999997
0.999997
0.999997
0.999997
0.999997
0.999997
0.999997
0.999998
0.999998
0.999999
0.999999
0.999999
0.999999
0.999999
0.999999
1
1
1
1
1
1
1
1
1
1
1
1
1
1
1
1
1
1
1
1
1
1
1
1
1
1
1
1
1
1
1
1
1
1
1
1
1
1
1
1
1
1
1
1
1
1
1
1
1
1
1
1
1
1
0.999999
0.999999
0.999998
0.999998
0.999998
0.999998
0.999998
0.999998
0.999998
0.999998
0.999998
0.999999
0.999999
0.999999
0.999999
0.999999
0.999999
0.999999
0.999999
0.999999
1
1
1
1
1
1
1
1
1
1
1
1
1
1
1
1
1
1
1
1
1
1
1
1
1
1
1
1
1
1
1
1
1
1
1
1
1
1
1
1
1
1
1
1
1
1
1
1
1
1
1
1
1
1
1
0.999999
0.999999
0.999999
0.999999
0.999999
0.999999
0.999999
0.999999
0.999998
0.999998
0.999999
0.999999
0.999999
0.999999
0.999999
0.999999
0.999999
0.999999
1
1
1
1
1
1
1
1
1
1
1
1
1
1
1
1
1
1
1
1
1
1
1
1
1
1
1
1
1
1
1
1
1
1
1
1
1
1
1
1
1
1
1
1
1
1
1
1
1
1
1
1
1
1
1
1
1
1
0.999999
0.999999
0.999999
0.999999
0.999999
0.999999
0.999999
0.999999
0.999999
0.999999
0.999999
0.999999
0.999999
0.999999
0.999999
0.999999
1
1
1
1
1
1
1
1
1
1
1
1
1
1
1
1
1
1
1
1
1
1
1
1
1
1
1
1
1
1
1
1
1
1
1
1
1
1
1
1
1
1
1
1
1
1
1
1
1
1
1
1
1
1
1
1
1
1
1
0.999999
0.999999
1
1
0.999999
0.999999
0.999999
0.999999
0.999999
0.999999
0.999999
0.999999
0.999999
1
1
1
1
1
1
1
1
1
1
1
1
1
1
1
1
1
1
1
1
1
1
1
1
1
1
1
1
1
1
1
1
1
1
1
1
1
1
1
1
1
1
1
1
1
1
1
1
1
1
1
1
1
1
1
1
1
1
1
1
1
1
1
0.999999
0.999999
0.999999
1
1
0.999999
0.999999
1
1
1
1
1
1
1
1
1
1
1
1
1
1
1
1
1
1
1
1
1
1
1
1
1
1
1
1
1
1
1
1
1
1
1
1
1
1
1
1
1
1
1
1
1
1
1
1
1
1
1
1
1
1
1
1
1
1
1
1
1
1
1
1
1
1
1
1
1
1
1
1
1
1
1
1
0.999999
0.999999
1
1
1
1
1
1
1
1
1
1
1
1
1
1
1
1
1
1
1
1
1
1
1
1
1
1
1
1
1
1
1
1
1
1
1
1
1
1
1
1
1
1
1
1
1
1
1
1
1
1
1
1
1
1
1
1
1
1
1
1
1
1
1
1
1
1
1
1
1
1
1
1
1
1
1
1
1
1
1
1
1
1
1
1
1
1
1
1
1
1
1
1
1
1
1
1
1
1
1
1
1
1
1
1
1
1
1
1
1
1
1
1
1
1
1
1
1
1
1
1
1
1
1
1
1
1
1
1
1
1
1
1
1
1
1
1
1
1
1
1
1
1
1
1
1
1
1
1
1
1
1
1
1
1
1
1
1
1
1
1
1
1
1
1
1
1
1
1
1
1
1
1
1
1
1
1
1
1
1
1
1
1
1
1
1
1
1
1
1
1
1
1
1
1
1
1
1
1
1
1
1
1
1
1
1
1
1
1
1
1
1
1
1
1
1
1
1
1
1
1
1
1
1
1
1
1
1
1
1
1
1
1
1
1
1
1
1
1
1
1
1
1
1
1
1
1
1
1
1
1
1
1
1
1
1
1
1
1
1
1
1
1
1
1
1
1
1
1
1
1
1
1
1
1
1
1
1
1
1
1
1
1
1
1
1
1
1
1
1
1
1
1
1
1
1
1
1
1
1
1
1
1
1
1
1
1
1
1
1
1
1
1
1
1
1
1
1
1
1
1
1
1
1
1
1
1
1
1
1
1
1
1
1
1
1
1
1
1
1
1
1
1
1
1
0.999999
1
1
0.999999
1
1
1
1
1
0.999999
1
1
1
1
1
1
1
1
1
1
1
1
1
1
1
1
1
1
1
1
1
1
1
1
1
1
1
1
1
1
1
1
1
1
1
1
1
1
1
1
1
1
1
1
1
1
1
1
1
1
1
1
1
1
1
1
1
1
1
1
1
1
1
0.999999
1
1
0.999999
0.999999
1
0.999999
0.999999
0.999999
0.999999
0.999999
1
1
0.999999
1
1
1
1
1
1
1