/*--------------------------------*- C++ -*----------------------------------*\
  =========                 |
  \\      /  F ield         | OpenFOAM: The Open Source CFD Toolbox
   \\    /   O peration     | Website:  https://openfoam.org
    \\  /    A nd           | Version:  6
     \\/     M anipulation  |
\*---------------------------------------------------------------------------*/
FoamFile
{
    version     2.0;
    format      ascii;
    class       volScalarField;
    location    "3.45";
    object      p;
}
// * * * * * * * * * * * * * * * * * * * * * * * * * * * * * * * * * * * * * //

dimensions      [1 -1 -2 0 0 0 0];

internalField   nonuniform List<scalar> 
22500
(
1
1
1
1
1
1
1
1
1
1
1
1
1
1
1
1
1
1
1
1
1
1
1
1
1
1
1
1
1
1
1
1
1
1
1
1
1
1
1
1
1
1
1
1
1
1
1
1
1
1
1
1
1
1
1
1
1
1
1
1
1
1
1
1
1
1
1
0.999999
0.999999
0.999998
0.999998
0.999997
0.999995
0.999993
0.999992
0.99999
0.999987
0.999984
0.999982
0.999979
0.999976
0.999973
0.999971
0.999969
0.999967
0.999967
0.999968
0.999969
0.999972
0.999976
0.999981
0.999986
0.999993
1
1.00001
1.00002
1.00002
1.00003
1.00004
1.00004
1.00005
1.00005
1.00006
1.00006
1.00006
1.00006
1.00006
1.00006
1.00006
1.00005
1.00005
1.00005
1.00004
1.00004
1.00003
1.00003
1.00002
1.00002
1.00002
1.00001
1.00001
1.00001
1.00001
1.00001
1
1
1
1
1
1
1
1
1
1
1
1
1
1
1
1
1
1
1
1
1
1
1
1
1
1
1
1
1
1
1
1
1
1
1
1
1
1
1
1
1
1
1
1
1
1
1
1
1
1
1
1
1
1
1
1
1
1
1
1
1
1
1
1
1
1
1
1
1
1
1
1
1
1
1
1
1
1
1
1
1
1
1
1
1
1
1
1
1
1
1
1
1
0.999999
0.999999
0.999998
0.999997
0.999996
0.999994
0.999993
0.99999
0.999987
0.999984
0.999981
0.999977
0.999974
0.999971
0.999968
0.999965
0.999964
0.999963
0.999963
0.999965
0.999968
0.999973
0.999979
0.999986
0.999994
1
1.00001
1.00002
1.00003
1.00004
1.00005
1.00006
1.00007
1.00007
1.00008
1.00008
1.00008
1.00008
1.00008
1.00008
1.00008
1.00007
1.00007
1.00006
1.00006
1.00005
1.00005
1.00004
1.00004
1.00003
1.00003
1.00002
1.00002
1.00001
1.00001
1.00001
1.00001
1
1
1
1
1
1
1
1
1
1
1
1
1
1
1
1
1
1
1
1
1
1
1
1
1
1
1
1
1
1
1
1
1
1
1
1
1
1
1
1
1
1
1
1
1
1
1
1
1
1
1
1
1
1
1
1
1
1
1
1
1
1
1
1
1
1
1
1
1
1
1
1
1
1
1
1
1
1
1
1
1
1
1
1
1
1
1
1
1
1
1
1
1
0.999999
0.999999
0.999998
0.999996
0.999995
0.999993
0.99999
0.999988
0.999984
0.999981
0.999977
0.999973
0.999969
0.999966
0.999963
0.999961
0.99996
0.999961
0.999963
0.999966
0.999971
0.999979
0.999988
0.999998
1.00001
1.00002
1.00003
1.00005
1.00006
1.00007
1.00008
1.00009
1.0001
1.00011
1.00011
1.00012
1.00012
1.00012
1.00011
1.00011
1.0001
1.0001
1.00009
1.00008
1.00008
1.00007
1.00006
1.00005
1.00005
1.00004
1.00003
1.00003
1.00002
1.00002
1.00001
1.00001
1.00001
1.00001
1
1
1
1
1
1
1
1
1
1
1
1
1
1
1
1
1
1
1
1
1
1
1
1
1
1
1
1
1
1
1
1
1
1
1
1
1
1
1
1
1
1
1
1
1
1
1
1
1
1
1
1
1
1
1
1
1
1
1
1
1
1
1
1
1
1
1
1
1
1
1
1
1
1
1
1
1
1
1
1
1
1
1
1
1
1
1
1
1
1
1
1
0.999999
0.999998
0.999997
0.999996
0.999994
0.999991
0.999989
0.999985
0.999981
0.999977
0.999973
0.999969
0.999965
0.999961
0.999959
0.999958
0.999959
0.999961
0.999966
0.999972
0.999981
0.999993
1.00001
1.00002
1.00004
1.00005
1.00007
1.00009
1.00011
1.00012
1.00013
1.00015
1.00015
1.00016
1.00017
1.00017
1.00017
1.00016
1.00016
1.00015
1.00014
1.00013
1.00012
1.00011
1.0001
1.00009
1.00008
1.00007
1.00006
1.00005
1.00004
1.00003
1.00003
1.00002
1.00002
1.00001
1.00001
1.00001
1
1
1
1
1
1
1
1
1
1
1
1
1
1
1
1
1
1
1
1
1
1
1
1
1
1
1
1
1
1
1
1
1
1
1
1
1
1
1
1
1
1
1
1
1
1
1
1
1
1
1
1
1
1
1
1
1
1
1
1
1
1
1
1
1
1
1
1
1
1
1
1
1
1
1
1
1
1
1
1
1
1
1
1
1
1
1
1
1
1
1
1
0.999999
0.999998
0.999997
0.999995
0.999993
0.99999
0.999987
0.999983
0.999978
0.999974
0.999969
0.999965
0.999961
0.999958
0.999958
0.999958
0.999961
0.999967
0.999976
0.999988
1
1.00002
1.00004
1.00006
1.00009
1.00011
1.00013
1.00016
1.00018
1.0002
1.00021
1.00023
1.00024
1.00024
1.00024
1.00024
1.00024
1.00023
1.00022
1.00021
1.00019
1.00018
1.00016
1.00015
1.00013
1.00012
1.0001
1.00009
1.00008
1.00006
1.00005
1.00004
1.00003
1.00003
1.00002
1.00002
1.00001
1.00001
1.00001
1
1
1
1
1
1
1
1
1
1
1
1
1
1
1
1
1
1
1
1
1
1
1
1
1
1
1
1
1
1
1
1
1
1
1
1
1
1
1
1
1
1
1
1
1
1
1
1
1
1
1
1
1
1
1
1
1
1
1
1
1
1
1
1
1
1
1
1
1
1
1
1
1
1
1
1
1
1
1
1
1
1
1
1
1
1
1
1
1
1
1
0.999999
0.999998
0.999997
0.999995
0.999992
0.999988
0.999984
0.999981
0.999976
0.99997
0.999966
0.999962
0.999959
0.999958
0.99996
0.999965
0.999972
0.999983
0.999999
1.00002
1.00004
1.00007
1.0001
1.00013
1.00016
1.0002
1.00023
1.00026
1.00029
1.00031
1.00033
1.00035
1.00036
1.00036
1.00036
1.00035
1.00034
1.00033
1.00031
1.00029
1.00027
1.00024
1.00022
1.0002
1.00017
1.00015
1.00013
1.00011
1.0001
1.00008
1.00007
1.00005
1.00004
1.00003
1.00003
1.00002
1.00002
1.00001
1.00001
1
1
1
1
1
1
1
1
1
1
1
1
1
1
1
1
1
1
1
1
1
1
1
1
1
1
1
1
1
1
1
1
1
1
1
1
1
1
1
1
1
1
1
1
1
1
1
1
1
1
1
1
1
1
1
1
1
1
1
1
1
1
1
1
1
1
1
1
1
1
1
1
1
1
1
1
1
1
1
1
1
1
1
1
1
1
1
1
1
1
1
1
0.999998
0.999997
0.999994
0.999991
0.999987
0.999983
0.999978
0.999973
0.999968
0.999964
0.999962
0.999962
0.999964
0.99997
0.99998
0.999995
1.00001
1.00004
1.00007
1.00011
1.00015
1.00019
1.00024
1.00029
1.00033
1.00038
1.00042
1.00046
1.00049
1.00051
1.00053
1.00053
1.00053
1.00053
1.00051
1.00049
1.00047
1.00044
1.0004
1.00037
1.00034
1.0003
1.00027
1.00023
1.0002
1.00017
1.00015
1.00013
1.0001
1.00009
1.00007
1.00005
1.00004
1.00003
1.00002
1.00002
1.00001
1.00001
1.00001
1
1
1
1
1
0.999999
0.999999
0.999999
0.999999
0.999999
1
1
1
1
1
1
1
1
1
1
1
1
1
1
1
1
1
1
1
1
1
1
1
1
1
1
1
1
1
1
1
1
1
1
1
1
1
1
1
1
1
1
1
1
1
1
1
1
1
1
1
1
1
1
1
1
1
1
1
1
1
1
1
1
1
1
1
1
1
1
1
1
1
1
1
1
1
1
1
1
1
0.999998
0.999996
0.999994
0.99999
0.999986
0.999981
0.999977
0.999972
0.999968
0.999966
0.999966
0.99997
0.999977
0.99999
1.00001
1.00004
1.00007
1.00011
1.00016
1.00021
1.00027
1.00034
1.0004
1.00047
1.00054
1.0006
1.00065
1.0007
1.00074
1.00077
1.00079
1.00079
1.00078
1.00077
1.00074
1.00071
1.00067
1.00062
1.00057
1.00052
1.00047
1.00041
1.00036
1.00032
1.00027
1.00023
1.0002
1.00016
1.00013
1.00011
1.00009
1.00007
1.00005
1.00004
1.00003
1.00002
1.00002
1.00001
1.00001
1
1
1
1
0.999999
0.999999
0.999999
0.999999
0.999999
0.999999
0.999999
1
1
1
1
1
1
1
1
1
1
1
1
1
1
1
1
1
1
1
1
1
1
1
1
1
1
1
1
1
1
1
1
1
1
1
1
1
1
1
1
1
1
1
1
1
1
1
1
1
1
1
1
1
1
1
1
1
1
1
1
1
1
1
1
1
1
1
1
1
1
1
1
1
1
1
1
1
1
1
1
0.999999
0.999997
0.999994
0.99999
0.999986
0.999981
0.999977
0.999974
0.999972
0.999973
0.999978
0.999988
1
1.00003
1.00006
1.0001
1.00016
1.00022
1.00029
1.00037
1.00046
1.00056
1.00065
1.00074
1.00083
1.00092
1.00099
1.00106
1.00111
1.00114
1.00116
1.00116
1.00114
1.00111
1.00107
1.00102
1.00095
1.00088
1.0008
1.00073
1.00065
1.00057
1.0005
1.00043
1.00037
1.00031
1.00026
1.00021
1.00018
1.00014
1.00011
1.00009
1.00007
1.00005
1.00004
1.00003
1.00002
1.00001
1.00001
1
1
1
0.999999
0.999999
0.999998
0.999998
0.999999
0.999999
0.999999
0.999999
0.999999
0.999999
1
1
1
1
1
1
1
1
1
1
1
1
1
1
1
1
1
1
1
1
1
1
1
1
1
1
1
1
1
1
1
1
1
1
1
1
1
1
1
1
1
1
1
1
1
1
1
1
1
1
1
1
1
1
1
1
1
1
1
1
1
1
1
1
1
1
1
1
1
1
1
1
1
1
1
1
1
1
1
0.999997
0.999995
0.999991
0.999987
0.999983
0.99998
0.999979
0.999981
0.999987
1
1.00002
1.00005
1.00009
1.00014
1.00021
1.00029
1.00039
1.0005
1.00061
1.00074
1.00087
1.00101
1.00114
1.00126
1.00138
1.00148
1.00156
1.00162
1.00167
1.00168
1.00168
1.00165
1.0016
1.00153
1.00145
1.00135
1.00124
1.00113
1.00102
1.0009
1.00079
1.00069
1.00059
1.0005
1.00042
1.00035
1.00029
1.00023
1.00018
1.00015
1.00011
1.00009
1.00006
1.00005
1.00003
1.00002
1.00001
1.00001
1
1
1
0.999999
0.999998
0.999998
0.999998
0.999998
0.999998
0.999998
0.999999
0.999999
0.999999
0.999999
1
1
1
1
1
1
1
1
1
1
1
1
1
1
1
1
1
1
1
1
1
1
1
1
1
1
1
1
1
1
1
1
1
1
1
1
1
1
1
1
1
1
1
1
1
1
1
1
1
1
1
1
1
1
1
1
1
1
1
1
1
1
1
1
1
1
1
1
1
1
1
1
1
1.00001
1
1
1
1
0.999999
0.999997
0.999993
0.99999
0.999988
0.999987
0.99999
0.999998
1.00001
1.00004
1.00007
1.00012
1.00019
1.00027
1.00038
1.0005
1.00064
1.00079
1.00096
1.00114
1.00133
1.00151
1.00169
1.00187
1.00202
1.00215
1.00226
1.00234
1.00239
1.00241
1.0024
1.00235
1.00227
1.00217
1.00205
1.00191
1.00175
1.00159
1.00143
1.00126
1.0011
1.00095
1.00081
1.00069
1.00057
1.00047
1.00038
1.00031
1.00024
1.00019
1.00015
1.00011
1.00008
1.00006
1.00004
1.00003
1.00002
1.00001
1
1
0.999999
0.999998
0.999997
0.999997
0.999997
0.999997
0.999998
0.999998
0.999998
0.999999
0.999999
0.999999
0.999999
1
1
1
1
1
1
1
1
1
1
1
1
1
1
1
1
1
1
1
1
1
1
1
1
1
1
1
1
1
1
1
1
1
1
1
1
1
1
1
1
1
1
1
1
1
1
1
1
1
1
1
1
1
1
1
1
1
1
1
1
1
1
1
1
1
1
1
1
1
1
1.00001
1.00001
1.00001
1.00001
1.00001
1.00001
1
1
1
0.999997
0.999996
0.999996
1
1.00001
1.00003
1.00006
1.0001
1.00016
1.00024
1.00034
1.00047
1.00062
1.00079
1.001
1.00122
1.00146
1.00171
1.00196
1.00222
1.00246
1.00269
1.0029
1.00308
1.00322
1.00333
1.00339
1.0034
1.00338
1.0033
1.00319
1.00305
1.00287
1.00267
1.00245
1.00222
1.00199
1.00176
1.00153
1.00132
1.00112
1.00094
1.00078
1.00064
1.00052
1.00041
1.00033
1.00025
1.00019
1.00014
1.00011
1.00008
1.00005
1.00003
1.00002
1.00001
1.00001
1
0.999998
0.999996
0.999996
0.999996
0.999996
0.999996
0.999997
0.999997
0.999998
0.999998
0.999999
0.999999
0.999999
0.999999
1
1
1
1
1
1
1
1
1
1
1
1
1
1
1
1
1
1
1
1
1
1
1
1
1
1
1
1
1
1
1
1
1
1
1
1
1
1
1
1
1
1
1
1
1
1
1
1
1
1
1
1
1
1
1
1
1
1
1
1
1
1
1
1
1
1
1
1
1.00001
1.00001
1.00001
1.00001
1.00001
1.00001
1.00001
1.00001
1.00001
1.00001
1
1.00001
1.00001
1.00002
1.00004
1.00008
1.00012
1.00019
1.00029
1.00041
1.00056
1.00075
1.00096
1.00122
1.0015
1.00181
1.00214
1.00248
1.00283
1.00318
1.00351
1.00381
1.00409
1.00432
1.00451
1.00464
1.00471
1.00473
1.00469
1.00458
1.00443
1.00422
1.00398
1.0037
1.0034
1.00308
1.00275
1.00243
1.00212
1.00182
1.00155
1.00129
1.00107
1.00087
1.0007
1.00056
1.00044
1.00034
1.00026
1.00019
1.00014
1.0001
1.00007
1.00004
1.00003
1.00001
1.00001
1
0.999997
0.999995
0.999994
0.999994
0.999994
0.999995
0.999996
0.999996
0.999997
0.999998
0.999998
0.999999
0.999999
0.999999
1
1
1
1
1
1
1
1
1
1
1
1
1
1
1
1
1
1
1
1
1
1
1
1
1
1
1
1
1
1
1
1
1
1
1
1
1
1
1
1
1
1
1
1
1
1
1
1
1
1
1
1
1
1
1
1
1
1
1
1
1
1
1
1
1
1
1.00001
1.00001
1.00001
1.00001
1.00001
1.00001
1.00001
1.00001
1.00001
1.00001
1.00001
1.00001
1.00002
1.00002
1.00004
1.00006
1.00009
1.00015
1.00023
1.00033
1.00047
1.00065
1.00087
1.00114
1.00145
1.0018
1.00219
1.00262
1.00307
1.00353
1.004
1.00446
1.00489
1.0053
1.00565
1.00596
1.00619
1.00636
1.00645
1.00647
1.0064
1.00626
1.00605
1.00577
1.00544
1.00506
1.00465
1.00422
1.00378
1.00334
1.00291
1.0025
1.00212
1.00178
1.00147
1.00119
1.00096
1.00076
1.00059
1.00046
1.00034
1.00025
1.00018
1.00013
1.00009
1.00006
1.00003
1.00002
1.00001
1
0.999995
0.999993
0.999992
0.999992
0.999993
0.999993
0.999994
0.999995
0.999996
0.999997
0.999998
0.999998
0.999999
0.999999
0.999999
1
1
1
1
1
1
1
1
1
1
1
1
1
1
1
1
1
1
1
1
1
1
1
1
1
1
1
1
1
1
1
1
1
1
1
1
1
1
1
1
1
1
1
1
1
1
1
1
1
1
1
1
1
1
1
1
1
1
1
1
1
1
1
1
1
1.00001
1.00001
1.00001
1.00001
1.00001
1.00002
1.00002
1.00002
1.00002
1.00002
1.00002
1.00003
1.00003
1.00005
1.00007
1.00011
1.00017
1.00026
1.00038
1.00053
1.00074
1.001
1.00131
1.00168
1.00211
1.0026
1.00313
1.0037
1.0043
1.00492
1.00553
1.00613
1.00669
1.00721
1.00767
1.00806
1.00836
1.00857
1.00868
1.00869
1.0086
1.00841
1.00814
1.00777
1.00734
1.00684
1.0063
1.00572
1.00513
1.00454
1.00396
1.00341
1.00289
1.00242
1.002
1.00163
1.00131
1.00103
1.0008
1.00062
1.00046
1.00034
1.00025
1.00017
1.00012
1.00008
1.00005
1.00002
1.00001
1
0.999994
0.999991
0.99999
0.99999
0.99999
0.999991
0.999993
0.999994
0.999995
0.999996
0.999997
0.999998
0.999998
0.999999
0.999999
0.999999
1
1
1
1
1
1
1
1
1
1
1
1
1
1
1
1
1
1
1
1
1
1
1
1
1
1
1
1
1
1
1
1
1
1
1
1
1
1
1
1
1
1
1
1
1
1
1
1
1
1
1
1
1
1
1
1
1
1
1
1
1
1
1.00001
1.00001
1.00001
1.00001
1.00001
1.00002
1.00002
1.00002
1.00002
1.00002
1.00003
1.00003
1.00004
1.00004
1.00006
1.00009
1.00013
1.00019
1.00028
1.00041
1.00059
1.00082
1.00111
1.00147
1.00191
1.00242
1.00301
1.00366
1.00437
1.00512
1.00591
1.00671
1.0075
1.00826
1.00898
1.00964
1.01021
1.01069
1.01106
1.01132
1.01145
1.01146
1.01135
1.01111
1.01076
1.0103
1.00974
1.0091
1.0084
1.00765
1.00688
1.0061
1.00534
1.00461
1.00392
1.00329
1.00272
1.00221
1.00177
1.0014
1.00109
1.00083
1.00063
1.00046
1.00033
1.00023
1.00016
1.0001
1.00006
1.00003
1.00001
1
0.999993
0.999989
0.999987
0.999987
0.999988
0.999989
0.999991
0.999992
0.999994
0.999995
0.999996
0.999997
0.999998
0.999998
0.999999
0.999999
0.999999
1
1
1
1
1
1
1
1
1
1
1
1
1
1
1
1
1
1
1
1
1
1
1
1
1
1
1
1
1
1
1
1
1
1
1
1
1
1
1
1
1
1
1
1
1
1
1
1
1
1
1
1
1
1
1
1
1
1
1
1
1
1.00001
1.00001
1.00001
1.00001
1.00002
1.00002
1.00002
1.00003
1.00003
1.00003
1.00004
1.00004
1.00005
1.00007
1.0001
1.00014
1.00021
1.0003
1.00044
1.00063
1.00088
1.00121
1.00162
1.00212
1.00271
1.0034
1.00418
1.00504
1.00597
1.00695
1.00796
1.00897
1.00997
1.01092
1.01181
1.01262
1.01332
1.0139
1.01435
1.01466
1.01482
1.01483
1.01469
1.0144
1.01397
1.0134
1.01271
1.01192
1.01104
1.01009
1.00911
1.00811
1.00712
1.00616
1.00526
1.00442
1.00366
1.00299
1.0024
1.0019
1.00148
1.00113
1.00085
1.00063
1.00045
1.00032
1.00021
1.00014
1.00008
1.00005
1.00002
1
0.999992
0.999986
0.999984
0.999984
0.999984
0.999986
0.999988
0.99999
0.999992
0.999994
0.999995
0.999996
0.999997
0.999998
0.999999
0.999999
0.999999
1
1
1
1
1
1
1
1
1
1
1
1
1
1
1
1
1
1
1
1
1
1
1
1
1
1
1
1
1
1
1
1
1
1
1
1
1
1
1
1
1
1
1
1
1
1
1
1
1
1
1
1
1
1
1
1
1
1
1
1
1.00001
1.00001
1.00001
1.00001
1.00002
1.00002
1.00003
1.00003
1.00003
1.00004
1.00005
1.00005
1.00006
1.00008
1.00011
1.00015
1.00022
1.00032
1.00046
1.00066
1.00093
1.00128
1.00173
1.0023
1.00297
1.00377
1.00468
1.0057
1.00682
1.00801
1.00925
1.01051
1.01177
1.01299
1.01414
1.01521
1.01617
1.017
1.01768
1.01821
1.01857
1.01875
1.01877
1.0186
1.01827
1.01776
1.01709
1.01627
1.01532
1.01425
1.01309
1.01187
1.01062
1.00936
1.00814
1.00697
1.00588
1.00489
1.004
1.00322
1.00255
1.00199
1.00153
1.00115
1.00085
1.00061
1.00043
1.00029
1.00019
1.00012
1.00006
1.00003
1.00001
0.999992
0.999984
0.999981
0.99998
0.999981
0.999983
0.999985
0.999988
0.99999
0.999992
0.999994
0.999995
0.999997
0.999997
0.999998
0.999999
0.999999
0.999999
1
1
1
1
1
1
1
1
1
1
1
1
1
1
1
1
1
1
1
1
1
1
1
1
1
1
1
1
1
1
1
1
1
1
1
1
1
1
1
1
1
1
1
1
1
1
1
1
1
1
1
1
1
1
1
1
1
1
1.00001
1.00001
1.00001
1.00001
1.00002
1.00002
1.00003
1.00003
1.00004
1.00004
1.00005
1.00006
1.00007
1.00009
1.00012
1.00016
1.00023
1.00032
1.00047
1.00067
1.00096
1.00133
1.00182
1.00244
1.00319
1.00409
1.00513
1.00632
1.00763
1.00904
1.01053
1.01206
1.0136
1.01511
1.01656
1.01792
1.01916
1.02026
1.0212
1.02197
1.02255
1.02295
1.02316
1.02318
1.023
1.02263
1.02206
1.02131
1.02038
1.01928
1.01803
1.01666
1.0152
1.01367
1.01213
1.0106
1.00913
1.00774
1.00646
1.00531
1.00429
1.00341
1.00267
1.00205
1.00155
1.00114
1.00083
1.00058
1.0004
1.00026
1.00016
1.00009
1.00005
1.00001
0.999994
0.999983
0.999977
0.999976
0.999977
0.999979
0.999982
0.999985
0.999988
0.99999
0.999992
0.999994
0.999996
0.999997
0.999998
0.999998
0.999999
0.999999
0.999999
1
1
1
1
1
1
1
1
1
1
1
1
1
1
1
1
1
1
1
1
1
1
1
1
1
1
1
1
1
1
1
1
1
1
1
1
1
1
1
1
1
1
1
1
1
1
1
1
1
1
1
1
1
1
1
1
1
1.00001
1.00001
1.00001
1.00002
1.00002
1.00003
1.00003
1.00004
1.00005
1.00005
1.00006
1.00008
1.0001
1.00012
1.00016
1.00023
1.00033
1.00047
1.00068
1.00096
1.00136
1.00187
1.00253
1.00335
1.00434
1.00552
1.00686
1.00837
1.01001
1.01176
1.01357
1.01541
1.01723
1.01899
1.02065
1.02218
1.02355
1.02475
1.02576
1.02658
1.0272
1.02762
1.02784
1.02786
1.02768
1.0273
1.02671
1.02591
1.02491
1.02371
1.02233
1.02077
1.01908
1.01729
1.01545
1.01359
1.01178
1.01004
1.00843
1.00696
1.00565
1.00451
1.00354
1.00273
1.00207
1.00154
1.00112
1.00079
1.00054
1.00036
1.00023
1.00013
1.00007
1.00003
0.999998
0.999983
0.999975
0.999972
0.999972
0.999975
0.999978
0.999981
0.999985
0.999988
0.999991
0.999993
0.999995
0.999996
0.999997
0.999998
0.999999
0.999999
0.999999
1
1
1
1
1
1
1
1
1
1
1
1
1
1
1
1
1
1
1
1
1
1
1
1
1
1
1
1
1
1
1
1
1
1
1
1
1
1
1
1
1
1
1
1
1
1
1
1
1
1
1
1
1
1
1
1
1.00001
1.00001
1.00001
1.00001
1.00002
1.00003
1.00003
1.00004
1.00005
1.00006
1.00007
1.00008
1.0001
1.00013
1.00017
1.00023
1.00032
1.00046
1.00066
1.00095
1.00135
1.00188
1.00257
1.00345
1.00452
1.00581
1.00731
1.00901
1.01088
1.01289
1.01499
1.01714
1.01927
1.02134
1.0233
1.02511
1.02675
1.02818
1.02941
1.03043
1.03124
1.03185
1.03225
1.03246
1.03249
1.03232
1.03196
1.03139
1.03061
1.02962
1.0284
1.02695
1.02529
1.02343
1.02142
1.0193
1.01712
1.01495
1.01284
1.01085
1.00902
1.00736
1.00591
1.00466
1.00361
1.00275
1.00205
1.0015
1.00107
1.00074
1.00049
1.00032
1.00019
1.0001
1.00004
1.00001
0.999985
0.999973
0.999968
0.999968
0.99997
0.999973
0.999977
0.999981
0.999985
0.999988
0.999991
0.999993
0.999995
0.999997
0.999998
0.999998
0.999999
0.999999
0.999999
1
1
1
1
1
1
1
1
1
1
1
1
1
1
1
1
1
1
1
1
1
1
1
1
1
1
1
1
1
1
1
1
1
1
1
1
1
1
1
1
1
1
1
1
1
1
1
1
1
1
1
1
1
1
1.00001
1.00001
1.00001
1.00001
1.00002
1.00002
1.00003
1.00004
1.00005
1.00006
1.00007
1.00008
1.0001
1.00013
1.00017
1.00023
1.00031
1.00045
1.00064
1.00092
1.00132
1.00185
1.00256
1.00348
1.00462
1.006
1.00764
1.00952
1.01161
1.01388
1.01627
1.01873
1.02117
1.02355
1.02579
1.02786
1.02972
1.03135
1.03274
1.0339
1.03482
1.03554
1.03606
1.03641
1.03659
1.03661
1.03648
1.03618
1.0357
1.03503
1.03413
1.033
1.03162
1.02997
1.02806
1.02592
1.0236
1.02115
1.01864
1.01616
1.01376
1.01152
1.00947
1.00765
1.00607
1.00473
1.00362
1.00271
1.00199
1.00143
1.001
1.00067
1.00044
1.00027
1.00015
1.00007
1.00002
0.99999
0.999973
0.999965
0.999963
0.999965
0.999969
0.999973
0.999978
0.999982
0.999986
0.999989
0.999992
0.999994
0.999996
0.999997
0.999998
0.999999
0.999999
0.999999
1
1
1
1
1
1
1
1
1
1
1
1
1
1
1
1
1
1
1
1
1
1
1
1
1
1
1
1
1
1
1
1
1
1
1
1
1
1
1
1
1
1
1
1
1
1
1
1
1
1
1
1
1
1
1.00001
1.00001
1.00001
1.00002
1.00002
1.00003
1.00004
1.00005
1.00006
1.00007
1.00008
1.0001
1.00013
1.00017
1.00022
1.0003
1.00043
1.00061
1.00088
1.00126
1.00179
1.0025
1.00343
1.00462
1.00608
1.00783
1.00987
1.01218
1.01469
1.01737
1.02012
1.02287
1.02554
1.02805
1.03034
1.03238
1.03414
1.03561
1.03681
1.03776
1.03848
1.039
1.03937
1.0396
1.03971
1.03972
1.03964
1.03944
1.03912
1.03865
1.03798
1.03709
1.03592
1.03445
1.03266
1.03055
1.02816
1.02554
1.02278
1.01995
1.01716
1.01449
1.01201
1.00977
1.00781
1.00612
1.00471
1.00355
1.00262
1.00189
1.00133
1.00091
1.0006
1.00037
1.00022
1.00011
1.00004
0.999999
0.999975
0.999963
0.999959
0.99996
0.999963
0.999968
0.999974
0.999979
0.999983
0.999987
0.99999
0.999993
0.999995
0.999996
0.999997
0.999998
0.999999
0.999999
0.999999
1
1
1
1
1
1
1
1
1
1
1
1
1
1
1
1
1
1
1
1
1
1
1
1
1
1
1
1
1
1
1
1
1
1
1
1
1
1
0.999999
1
1
1
1
1
1
1
1
1
1
1
1
1
1
1.00001
1.00001
1.00001
1.00002
1.00003
1.00003
1.00004
1.00005
1.00007
1.00008
1.0001
1.00013
1.00016
1.00021
1.00029
1.0004
1.00057
1.00082
1.00118
1.00169
1.00239
1.00332
1.00453
1.00604
1.00788
1.01006
1.01255
1.0153
1.01824
1.02128
1.02433
1.02727
1.03002
1.0325
1.03466
1.03648
1.03795
1.03908
1.03993
1.04052
1.0409
1.04114
1.04126
1.04131
1.04133
1.04132
1.0413
1.04125
1.04115
1.04097
1.04065
1.04014
1.03937
1.03828
1.03682
1.03496
1.03271
1.03009
1.0272
1.02413
1.021
1.01792
1.015
1.01231
1.00991
1.00782
1.00606
1.0046
1.00342
1.00248
1.00176
1.00121
1.00081
1.00051
1.00031
1.00017
1.00007
1.00001
0.99998
0.999962
0.999955
0.999954
0.999958
0.999963
0.999969
0.999975
0.99998
0.999985
0.999988
0.999991
0.999994
0.999996
0.999997
0.999998
0.999999
0.999999
0.999999
1
1
1
1
1
1
1
1
1
1
1
1
1
1
1
1
1
1
1
1
1
1
1
1
1
1
1
1
1
1
1
1
1
1
1
1
1
1
1
1
1
1
1
1
1
1
1
1
1
1
1
1
1.00001
1.00001
1.00001
1.00002
1.00002
1.00003
1.00004
1.00005
1.00007
1.00008
1.0001
1.00013
1.00016
1.0002
1.00027
1.00037
1.00052
1.00075
1.00109
1.00157
1.00225
1.00316
1.00435
1.00589
1.00778
1.01006
1.0127
1.01566
1.01885
1.02217
1.0255
1.0287
1.03167
1.0343
1.03654
1.03834
1.03972
1.04069
1.04131
1.04163
1.04173
1.04167
1.04152
1.04134
1.04118
1.04107
1.04103
1.04107
1.04119
1.04135
1.04153
1.04166
1.04166
1.04146
1.04095
1.04006
1.0387
1.03684
1.03448
1.03167
1.02853
1.02517
1.02176
1.01841
1.01527
1.0124
1.00987
1.0077
1.00589
1.0044
1.00322
1.0023
1.0016
1.00108
1.0007
1.00043
1.00024
1.00012
1.00004
0.99999
0.999964
0.999953
0.99995
0.999952
0.999958
0.999964
0.999971
0.999977
0.999982
0.999986
0.99999
0.999993
0.999995
0.999996
0.999997
0.999998
0.999999
0.999999
0.999999
1
1
1
1
1
1
1
1
1
1
1
1
1
1
1
1
1
1
1
1
1
1
1
1
1
1
1
1
1
1
1
1
1
1
1
1
1
1
1
1
1
1
1
1
1
1
1
1
1
1
1.00001
1.00001
1.00001
1.00002
1.00002
1.00003
1.00004
1.00005
1.00006
1.00008
1.0001
1.00012
1.00015
1.00019
1.00025
1.00034
1.00048
1.00068
1.00099
1.00144
1.00207
1.00294
1.0041
1.00562
1.00754
1.00988
1.01264
1.01577
1.01919
1.02277
1.02636
1.02982
1.03299
1.03574
1.03801
1.03975
1.04096
1.04167
1.04196
1.0419
1.04158
1.04109
1.04052
1.03993
1.03941
1.039
1.03874
1.03866
1.03877
1.03905
1.0395
1.04007
1.0407
1.0413
1.04179
1.04203
1.04191
1.0413
1.04011
1.03829
1.03586
1.03288
1.0295
1.02588
1.0222
1.01862
1.01528
1.01228
1.00966
1.00744
1.00561
1.00414
1.00298
1.00209
1.00143
1.00094
1.00059
1.00034
1.00018
1.00007
1.00001
0.999971
0.999952
0.999946
0.999947
0.999952
0.999959
0.999966
0.999973
0.999979
0.999984
0.999988
0.999991
0.999994
0.999996
0.999997
0.999998
0.999999
0.999999
0.999999
1
1
1
1
1
1
1
1
1
1
1
1
1
1
1
1
1
1
1
1
1
1
1
1
1
1
1
1
1
1
1
1
1
1
1
1
1
1
1
1
1
1
1
1
1
1
1
1
1
1
1.00001
1.00001
1.00001
1.00002
1.00002
1.00003
1.00004
1.00006
1.00007
1.00009
1.00011
1.00014
1.00018
1.00023
1.00031
1.00043
1.00061
1.00089
1.00129
1.00187
1.00268
1.00379
1.00527
1.00716
1.00952
1.01235
1.01562
1.01923
1.02305
1.0269
1.0306
1.03396
1.03684
1.03911
1.04075
1.04174
1.04214
1.04202
1.04149
1.04065
1.03962
1.0385
1.03738
1.03636
1.03549
1.03483
1.03442
1.03429
1.03445
1.0349
1.03561
1.03656
1.03768
1.0389
1.04012
1.04121
1.042
1.04235
1.04209
1.04112
1.03936
1.03686
1.03371
1.03009
1.02622
1.0223
1.01853
1.01505
1.01196
1.00929
1.00706
1.00525
1.00381
1.0027
1.00186
1.00124
1.00079
1.00048
1.00026
1.00012
1.00003
0.999982
0.999955
0.999944
0.999942
0.999947
0.999953
0.999961
0.999969
0.999975
0.999981
0.999986
0.99999
0.999993
0.999995
0.999996
0.999997
0.999998
0.999999
0.999999
0.999999
1
1
1
1
1
1
1
1
1
1
1
1
1
1
1
1
1
1
1
1
1
1
1
1
1
1
1
1
1
1
1
1
1
1
1
1
1
1
1
1
1
1
1
1
1
1
1
1
1
1.00001
1.00001
1.00002
1.00002
1.00003
1.00004
1.00005
1.00006
1.00008
1.0001
1.00013
1.00017
1.00022
1.00029
1.00039
1.00055
1.00078
1.00114
1.00166
1.0024
1.00344
1.00484
1.00667
1.009
1.01185
1.0152
1.01896
1.023
1.0271
1.03105
1.03461
1.0376
1.03989
1.04142
1.04218
1.04222
1.04165
1.0406
1.03918
1.03754
1.0358
1.03407
1.03245
1.03102
1.02984
1.02896
1.02841
1.02824
1.02843
1.02901
1.02994
1.03122
1.03278
1.03457
1.03649
1.03841
1.04017
1.04159
1.04244
1.04256
1.04179
1.04008
1.03749
1.03415
1.03031
1.0262
1.02208
1.01816
1.01458
1.01144
1.00878
1.00658
1.00482
1.00344
1.00239
1.00161
1.00105
1.00064
1.00037
1.00019
1.00007
1
0.999961
0.999944
0.999939
0.999942
0.999948
0.999956
0.999964
0.999972
0.999978
0.999984
0.999988
0.999991
0.999994
0.999996
0.999997
0.999998
0.999999
0.999999
0.999999
1
1
1
1
1
1
1
1
1
1
1
1
1
1
1
1
1
1
1
1
1
1
1
1
1
1
1
1
1
1
1
1
1
1
1
1
1
1
1
1
1
1
1
1
1
1
1
1
1.00001
1.00001
1.00001
1.00002
1.00002
1.00003
1.00004
1.00006
1.00007
1.0001
1.00012
1.00015
1.0002
1.00026
1.00035
1.00048
1.00068
1.00099
1.00145
1.00211
1.00305
1.00435
1.00609
1.00835
1.01116
1.01453
1.0184
1.02261
1.02695
1.03114
1.03493
1.03807
1.0404
1.04183
1.04236
1.04206
1.04103
1.03943
1.03742
1.03514
1.03275
1.03038
1.02812
1.02607
1.0243
1.02286
1.02181
1.02115
1.02093
1.02115
1.02182
1.02292
1.02445
1.02637
1.02863
1.03114
1.03381
1.03648
1.03895
1.04099
1.04235
1.04281
1.0422
1.04049
1.03776
1.03422
1.03014
1.02582
1.02153
1.01751
1.01389
1.01076
1.00814
1.00601
1.00433
1.00304
1.00207
1.00136
1.00086
1.00051
1.00027
1.00012
1.00003
0.999973
0.999946
0.999937
0.999937
0.999943
0.999951
0.99996
0.999968
0.999975
0.999981
0.999986
0.99999
0.999993
0.999995
0.999997
0.999998
0.999998
0.999999
0.999999
0.999999
1
1
1
1
1
1
1
1
1
1
1
1
1
1
1
1
1
1
1
1
1
1
1
1
1
1
1
1
1
1
1
1
1
1
1
1
1
1
1
1
1
1
1
1
1
1
1
1.00001
1.00001
1.00001
1.00002
1.00003
1.00004
1.00005
1.00007
1.00009
1.00011
1.00014
1.00018
1.00023
1.00031
1.00042
1.00059
1.00085
1.00125
1.00183
1.00266
1.00384
1.00545
1.00758
1.0103
1.01364
1.01755
1.02189
1.02643
1.03088
1.03492
1.03825
1.04067
1.04205
1.0424
1.04178
1.04032
1.0382
1.0356
1.0327
1.02966
1.02664
1.02374
1.02107
1.01869
1.01667
1.01506
1.01387
1.01314
1.01288
1.01311
1.01383
1.01505
1.01675
1.01891
1.02151
1.02449
1.02776
1.03119
1.03461
1.03778
1.04041
1.04222
1.04294
1.04241
1.04062
1.0377
1.03391
1.0296
1.02509
1.02069
1.01661
1.01301
1.00994
1.00741
1.00539
1.00382
1.00263
1.00175
1.00112
1.00068
1.00038
1.00019
1.00006
0.999991
0.999953
0.999937
0.999934
0.999938
0.999946
0.999955
0.999964
0.999972
0.999979
0.999984
0.999988
0.999992
0.999994
0.999996
0.999997
0.999998
0.999999
0.999999
0.999999
1
1
1
1
1
1
1
1
1
1
1
1
1
1
1
1
1
1
1
1
1
1
1
1
1
1
1
1
1
1
1
1
1
1
1
1
1
0.999999
1
1
1
1
1
1
1
1
1.00001
1.00001
1.00001
1.00002
1.00002
1.00003
1.00004
1.00006
1.00007
1.0001
1.00012
1.00016
1.00021
1.00027
1.00037
1.00051
1.00073
1.00106
1.00155
1.00228
1.00333
1.00479
1.00675
1.00933
1.01256
1.01643
1.02084
1.02556
1.03026
1.03458
1.03815
1.04073
1.04215
1.04238
1.0415
1.03967
1.03707
1.03392
1.03043
1.02678
1.02312
1.01961
1.01633
1.01336
1.01077
1.0086
1.00687
1.0056
1.00482
1.00454
1.00476
1.00551
1.00677
1.00857
1.01088
1.0137
1.01699
1.02069
1.02471
1.02889
1.03304
1.03685
1.04
1.04215
1.04301
1.04244
1.04046
1.03729
1.03323
1.02869
1.02403
1.01956
1.0155
1.01197
1.00901
1.00662
1.00473
1.00329
1.00222
1.00144
1.0009
1.00052
1.00027
1.00011
1.00002
0.999964
0.99994
0.999932
0.999934
0.999941
0.99995
0.99996
0.999968
0.999976
0.999982
0.999987
0.999991
0.999993
0.999995
0.999997
0.999998
0.999998
0.999999
0.999999
1
1
1
1
1
1
1
1
1
1
1
1
1
1
1
1
1
1
1
1
1
1
1
1
1
1
1
1
1
1
1
1
1
1
1
1
1
1
1
1
1
1
1
1
1
1
1.00001
1.00001
1.00001
1.00002
1.00003
1.00004
1.00005
1.00006
1.00008
1.00011
1.00014
1.00018
1.00024
1.00032
1.00044
1.00061
1.00089
1.0013
1.00192
1.00283
1.00412
1.00589
1.00827
1.01133
1.0151
1.0195
1.02433
1.02926
1.03388
1.03777
1.04058
1.04213
1.04235
1.04131
1.03918
1.03618
1.03254
1.0285
1.02427
1.02003
1.01593
1.01207
1.00855
1.00541
1.00271
1.00046
0.998675
0.997375
0.996566
0.996258
0.996464
0.997196
0.998466
1.00029
1.00267
1.0056
1.00907
1.01305
1.01746
1.02221
1.02712
1.03193
1.0363
1.03985
1.0422
1.04305
1.04229
1.04002
1.03652
1.03218
1.02744
1.02268
1.01821
1.01422
1.01082
1.00802
1.0058
1.00407
1.00278
1.00183
1.00116
1.00069
1.00038
1.00018
1.00005
0.999982
0.999946
0.999932
0.999931
0.999937
0.999946
0.999955
0.999965
0.999973
0.99998
0.999985
0.999989
0.999992
0.999995
0.999996
0.999998
0.999998
0.999999
0.999999
0.999999
1
1
1
1
1
1
1
1
1
1
1
1
1
1
1
1
1
1
1
1
1
1
1
1
1
1
1
1
1
1
1
1
1
1
1
1
1
1
1
1
1
1
1
1
1
1.00001
1.00001
1.00001
1.00002
1.00003
1.00004
1.00005
1.00007
1.00009
1.00012
1.00016
1.00021
1.00027
1.00037
1.00052
1.00074
1.00108
1.00159
1.00236
1.00347
1.00504
1.00718
1.01001
1.01359
1.01789
1.02277
1.02789
1.03281
1.03706
1.04022
1.04201
1.04233
1.04125
1.03893
1.03561
1.03155
1.02703
1.02227
1.01748
1.01283
1.00843
1.00439
1.00074
0.99754
0.994802
0.992536
0.990747
0.989438
0.988614
0.988282
0.988456
0.98915
0.990384
0.992177
0.994547
0.997506
1.00105
1.00517
1.00983
1.01495
1.02041
1.02599
1.03139
1.03621
1.04
1.04236
1.04302
1.04193
1.03927
1.03539
1.03077
1.02587
1.02107
1.01667
1.01282
1.0096
1.007
1.00497
1.00343
1.00229
1.00147
1.00089
1.00051
1.00026
1.0001
1.00001
0.999957
0.999935
0.999929
0.999933
0.999942
0.999951
0.999961
0.99997
0.999977
0.999983
0.999988
0.999991
0.999994
0.999996
0.999997
0.999998
0.999999
0.999999
0.999999
1
1
1
1
1
1
1
1
1
1
1
1
1
1
1
1
1
1
1
1
1
1
1
1
1
1
1
1
1
1
1
1
1
1
1
1
1
1
1
1
1
1
1
1
1.00001
1.00001
1.00001
1.00002
1.00002
1.00003
1.00004
1.00006
1.00008
1.00011
1.00014
1.00018
1.00023
1.00031
1.00043
1.00061
1.00089
1.00131
1.00194
1.00288
1.00423
1.00611
1.00866
1.01198
1.01609
1.0209
1.02614
1.03135
1.036
1.03959
1.04175
1.04233
1.04133
1.03894
1.03541
1.03103
1.02609
1.02086
1.01557
1.0104
1.0055
1.00095
0.996824
0.993158
0.989967
0.987256
0.985018
0.98325
0.981949
0.981115
0.980755
0.980882
0.981516
0.98268
0.984399
0.986703
0.989616
0.993153
0.997317
1.00209
1.00743
1.01325
1.01939
1.02559
1.03147
1.03658
1.04042
1.04259
1.04287
1.0413
1.03816
1.03389
1.02902
1.02402
1.01926
1.01499
1.01135
1.00836
1.00599
1.00417
1.00282
1.00183
1.00114
1.00067
1.00035
1.00016
1.00004
0.999972
0.999941
0.99993
0.999931
0.999938
0.999948
0.999958
0.999967
0.999975
0.999981
0.999987
0.99999
0.999993
0.999995
0.999997
0.999998
0.999998
0.999999
0.999999
1
1
1
1
1
1
1
1
1
1
1
1
1
1
1
1
1
1
1
1
1
1
1
1
1
1
1
1
1
1
1
1
1
1
1
1
1
1
1
1
1
1
1
1
1.00001
1.00001
1.00001
1.00002
1.00003
1.00004
1.00005
1.00007
1.00009
1.00012
1.00015
1.0002
1.00026
1.00036
1.0005
1.00072
1.00106
1.00157
1.00234
1.00347
1.0051
1.00734
1.01033
1.01416
1.0188
1.02404
1.02948
1.03455
1.03864
1.0413
1.04228
1.04153
1.03922
1.0356
1.031
1.02573
1.02009
1.01434
1.00869
1.0033
0.998271
0.993686
0.98958
0.985964
0.982837
0.980188
0.978002
0.976267
0.974979
0.974135
0.973743
0.973816
0.974374
0.975445
0.97706
0.979254
0.982064
0.985522
0.989647
0.994441
0.999883
1.00591
1.01242
1.0192
1.02593
1.03216
1.03736
1.04102
1.04278
1.0425
1.04033
1.03667
1.03203
1.02697
1.02195
1.01731
1.01325
1.00986
1.00714
1.00502
1.00343
1.00226
1.00143
1.00086
1.00048
1.00023
1.00008
0.999994
0.99995
0.999932
0.99993
0.999935
0.999944
0.999954
0.999964
0.999973
0.99998
0.999985
0.999989
0.999993
0.999995
0.999997
0.999997
0.999998
0.999999
0.999999
1
1
1
1
1
1
1
1
1
1
1
1
1
1
1
1
1
1
1
1
1
1
1
1
1
1
1
1
1
1
1
1
1
1
1
1
1
1
1
1
1
1
1
1
1.00001
1.00001
1.00001
1.00002
1.00003
1.00004
1.00005
1.00007
1.0001
1.00013
1.00017
1.00022
1.0003
1.00041
1.00058
1.00085
1.00125
1.00187
1.00281
1.00416
1.00609
1.00872
1.01219
1.01654
1.02167
1.02722
1.03265
1.0373
1.04057
1.04211
1.04178
1.03971
1.03616
1.03146
1.02595
1.01997
1.01381
1.00771
1.00185
0.99636
0.991327
0.986794
0.98277
0.979249
0.976212