/*--------------------------------*- C++ -*----------------------------------*\
  =========                 |
  \\      /  F ield         | OpenFOAM: The Open Source CFD Toolbox
   \\    /   O peration     | Website:  https://openfoam.org
    \\  /    A nd           | Version:  6
     \\/     M anipulation  |
\*---------------------------------------------------------------------------*/
FoamFile
{
    version     2.0;
    format      ascii;
    class       surfaceScalarField;
    location    "3.07";
    object      meshPhi;
}
// * * * * * * * * * * * * * * * * * * * * * * * * * * * * * * * * * * * * * //

dimensions      [0 3 -1 0 0 0 0];

internalField   nonuniform List<scalar> 
8193
(
-0.00200914
-0.00359032
0.000733247
-0.0031677
-0.0067907
-0.0041936
-0.00967166
-0.0050756
-0.0121901
-0.00580634
-0.0143136
-0.00638192
-0.01602
-0.00680154
-0.0172976
-0.00706697
-0.0181436
-0.0071821
-0.0185642
-0.00715244
-0.018573
-0.00698466
-0.0181903
-0.0066862
-0.0174417
-0.00626493
-0.0163574
-0.0057289
-0.0149711
-0.00508615
-0.0133188
-0.00434464
-0.0114386
-0.00351226
-0.00936954
-0.00259692
-0.00715123
-0.00160673
-0.00482363
-0.000550236
-0.00242665
0.000563239
5.62042e-18
0.00172326
0.00241689
0.00291786
0.00478493
0.00413314
0.00706542
0.00535287
0.00922015
0.00655805
0.0112115
0.00772665
0.0130029
0.00883335
0.0145587
0.0098494
0.0158451
0.0107427
0.0168305
0.0114778
0.0174862
0.0120169
0.0177872
0.0123197
0.0177131
0.0123451
0.0172488
0.0120519
0.0163858
0.0114006
0.0151226
0.0103549
0.0134654
0.00888381
0.0114295
0.00696381
0.00903861
0.00458088
0.00632611
0.00333441
0.00173294
-0.0072992
-0.0107397
0.00364689
-0.0105919
-0.0166769
-0.0134854
-0.0219582
-0.0159517
-0.0265128
-0.0179734
-0.0302889
-0.0195425
-0.033254
-0.0206596
-0.0353936
-0.0213319
-0.0367103
-0.0215723
-0.0372218
-0.021398
-0.0369597
-0.0208287
-0.035967
-0.0198865
-0.0342965
-0.0185938
-0.0320086
-0.0169735
-0.0291698
-0.0150484
-0.0258503
-0.0128407
-0.0221235
-0.0103721
-0.0180641
-0.00766462
-0.0137472
-0.00474047
-0.00924812
-0.00162317
-0.00464121
0.00166161
0
0.00508504
0.00460313
0.00861394
0.00909707
0.0122096
0.0134121
0.0158265
0.01748
0.0194114
0.0212343
0.0229022
0.0246108
0.0262271
0.027548
0.0293047
0.029988
0.0320434
0.0318774
0.0343423
0.0331683
0.0360923
0.0338197
0.0371779
0.0337989
0.0374794
0.0330827
0.0368768
0.0316589
0.035253
0.0295273
0.0324992
0.0267012
0.0285198
0.0232077
0.0232385
0.0190884
0.016604
0.0143997
0.00921241
0.00859667
-0.0150322
-0.0212453
0.00938445
-0.0200729
-0.0294007
-0.0244547
-0.0365673
-0.0281424
-0.0426585
-0.0311163
-0.0476135
-0.0333705
-0.0513977
-0.0349113
-0.0540009
-0.0357541
-0.0554358
-0.0359225
-0.0557357
-0.0354452
-0.0549522
-0.0343548
-0.0531526
-0.0326859
-0.0504166
-0.0304739
-0.046834
-0.0277539
-0.0425023
-0.0245602
-0.0375237
-0.0209263
-0.0320036
-0.0168846
-0.0260489
-0.0124673
-0.0197663
-0.00770706
-0.0132616
-0.00263839
-0.00663887
0.00270103
1.07002e-14
0.00826866
0.00655551
0.0140153
0.0129308
0.019883
0.0190318
0.0258035
0.0247674
0.0316963
0.0300499
0.0374668
0.0347956
0.0430058
0.0389251
0.0481881
0.0423651
0.0528725
0.0450487
0.0569027
0.0469174
0.0601089
0.0479224
0.0623097
0.0480263
0.0633163
0.0472043
0.0629367
0.0454461
0.0609817
0.0427572
0.0572716
0.0391593
0.0516438
0.0346919
0.0439615
0.0294116
0.0341223
0.0233925
0.0167253
0.0220675
-0.0249754
-0.0347925
0.0177542
-0.031354
-0.0446166
-0.0368341
-0.0531401
-0.0413805
-0.060269
-0.0449767
-0.0659412
-0.0476227
-0.0701254
-0.0493326
-0.0728202
-0.0501315
-0.0740515
-0.0500533
-0.0738701
-0.0491377
-0.0723486
-0.0474284
-0.0695779
-0.0449709
-0.0656641
-0.0418107
-0.0607246
-0.0379925
-0.0548854
-0.0335596
-0.0482781
-0.0285533
-0.0410369
-0.0230136
-0.033297
-0.0169797
-0.0251928
-0.0104915
-0.0168565
-0.00359088
-0.00841703
0.00367636
0
0.0112581
0.00827319
0.0190935
0.0162854
0.0271109
0.023924
0.0352248
0.0310812
0.0433338
0.0376544
0.0513185
0.0435469
0.0590397
0.048669
0.0663374
0.0529387
0.0730307
0.0562832
0.0789181
0.0586406
0.0837792
0.0599613
0.0873778
0.0602097
0.089466
0.059366
0.0897898
0.0574271
0.0880959
0.054408
0.0841398
0.0503425
0.0776952
0.0452835
0.068564
0.0393026
0.0565873
0.0324895
0.0249507
0.0416563
-0.0368191
-0.0509635
0.0284662
-0.0441193
-0.0619008
-0.0503128
-0.0712598
-0.0553688
-0.0789457
-0.0592769
-0.0848991
-0.0620447
-0.0890959
-0.0636948
-0.0915458
-0.0642616
-0.0922891
-0.0637883
-0.0913944
-0.0623241
-0.0889549
-0.0599217
-0.0850842
-0.0566347
-0.0799125
-0.0525164
-0.0735829
-0.0476186
-0.0662473
-0.0419902
-0.0580631
-0.035678
-0.0491903
-0.0287266
-0.0397889
-0.0211796
-0.0300169
-0.0130807
-0.020029
-0.00447622
-0.00997514
0.00458306
0
0.0140391
0.00975754
0.0238237
0.0191648
0.0338555
0.0280954
0.0440371
0.0364301
0.0542521
0.0440568
0.0643626
0.0508717
0.0742072
0.05678
0.0835993
0.0616973
0.0923272
0.0655509
0.100154
0.0682815
0.10682
0.0698446
0.112044
0.0702124
0.115531
0.0693747
0.116976
0.0673407
0.116072
0.0641391
0.112519
0.0598188
0.106034
0.0544483
0.096363
0.0481153
0.0832927
0.0409249
0.032998
0.0666616
-0.0501861
-0.0692506
0.0411411
-0.0580038
-0.0807623
-0.064546
-0.0904624
-0.0697878
-0.0982581
-0.0737262
-0.104096
-0.0763764
-0.107959
-0.0777687
-0.109871
-0.0779454
-0.109884
-0.0769573
-0.108086
-0.0748605
-0.104588
-0.0717144
-0.0995247
-0.0675786
-0.0930481
-0.0625112
-0.0853242
-0.0565682
-0.0765277
-0.0498021
-0.0668389
-0.0422624
-0.0564401
-0.0339958
-0.0455126
-0.0250476
-0.0342346
-0.0154632
-0.0227796
-0.00529062
-0.0113147
0.00541727
3.5293e-20
0.0165995
0.0110121
0.0281838
0.0215772
0.0400833
0.0315597
0.052193
0.0408328
0.0643865
0.0492795
0.0765134
0.0567932
0.0883966
0.063279
0.0998307
0.0686547
0.110581
0.0728526
0.120386
0.0758206
0.128955
0.0775241
0.135974
0.0779474
0.141113
0.0770947
0.144025
0.0749907
0.144364
0.0716815
0.141784
0.0672337
0.135956
0.0617338
0.126581
0.0552868
0.113397
0.048014
0.0400502
0.0961951
-0.0646436
-0.0890698
0.0553236
-0.0726045
-0.100657
-0.0791642
-0.110248
-0.0843045
-0.117755
-0.0880286
-0.123129
-0.0903582
-0.126364
-0.0913297
-0.127492
-0.0909911
-0.126582
-0.0893983
-0.123735
-0.0866123
-0.119079
-0.0826962
-0.112767
-0.077713
-0.104971
-0.0717234
-0.0958769
-0.0647851
-0.0856787
-0.0569519
-0.0745765
-0.0482736
-0.0627717
-0.0387972
-0.0504637
-0.0285675
-0.0378477
-0.0176296
-0.0251125
-0.00603094
-0.0124392
0.00617576
3.5293e-20
0.0189291
0.0120423
0.0321556
0.0235353
0.045766
0.0343371
0.0596516
0.0443171
0.0736804
0.0533568
0.0876945
0.0613506
0.101507
0.0682067
0.1149
0.0738492
0.127626
0.0782187
0.139402
0.0812742
0.149921
0.0829944
0.158845
0.083379
0.165818
0.0824495
0.170468
0.0802493
0.172415
0.0768439
0.171285
0.0723199
0.166715
0.0667832
0.158369
0.0603574
0.14595
0.0531803
0.0454012
0.129212
-0.0797187
-0.109779
0.0704986
-0.0874928
-0.121001
-0.0937845
-0.130093
-0.0985807
-0.136972
-0.101889
-0.141595
-0.103736
-0.143964
-0.104162
-0.144119
-0.103217
-0.142141
-0.100961
-0.138145
-0.0974562
-0.132273
-0.0927674
-0.124694
-0.0869586
-0.115597
-0.0800907
-0.105183
-0.0722212
-0.0936647
-0.063403
-0.0812577
-0.0536848
-0.0681797
-0.0431116
-0.0546451
-0.0317265
-0.0408632
-0.0195725
-0.0270353
-0.0066947
-0.0133537
0.00685595
-1.02688e-14
0.0210197
0.0128557
0.0357241
0.0250554
0.0508802
0.0364538
0.0663785
0.0469193
0.0820852
0.0563344
0.0978392
0.0645972
0.113449
0.0716222
0.12869
0.0773419
0.143306
0.0817082
0.157007
0.0846934
0.169471
0.0862921
0.180349
0.0865216
0.189269
0.0854225
0.195842
0.0830587
0.199672
0.0795166
0.200364
0.0749035
0.197535
0.0693458
0.190829
0.0629857
0.179923
0.055978
0.0484858
0.164548
-0.094914
-0.130697
0.0861107
-0.102229
-0.141188
-0.108021
-0.149466
-0.112283
-0.155449
-0.115022
-0.1591
-0.116269
-0.160425
-0.116063
-0.159474
-0.114456
-0.156338
-0.111508
-0.15114
-0.107282
-0.144036
-0.10184
-0.135208
-0.0952468
-0.124857
-0.0875604
-0.113201
-0.0788366
-0.100463
-0.069126
-0.086875
-0.0584744
-0.0726672
-0.0469241
-0.0580664
-0.0345149
-0.0432933
-0.0212862
-0.0285593
-0.00728005
-0.0140654
0.00745596
-3.5293e-20
0.0228652
0.0134613
0.0388779
0.0261573
0.0554075
0.0379416
0.0723461
0.0486832
0.0895612
0.0582682
0.106892
0.0666001
0.124145
0.0736015
0.141097
0.0792154
0.157487
0.0834065
0.173022
0.0861622
0.187376
0.0874942
0.200196
0.0874385
0.211103
0.086056
0.219703
0.0834315
0.225591
0.0796726
0.228366
0.0749078
0.227638
0.0692832
0.223039
0.0629594
0.214239
0.0561072
0.048903
0.200956
-0.109726
-0.151126
0.101585
-0.116374
-0.16061
-0.121499
-0.16784
-0.12509
-0.172735
-0.127158
-0.175262
-0.12773
-0.175433
-0.126846
-0.173303
-0.124557
-0.168969
-0.12092
-0.162563
-0.115994
-0.154252
-0.109841
-0.144227
-0.102521
-0.1327
-0.0940899
-0.1199
-0.0846002
-0.106063
-0.0740986
-0.0914315
-0.0626273
-0.0762461
-0.0502245
-0.0607441
-0.036926
-0.0451551
-0.0227671
-0.0296988
-0.00778584
-0.0145825
0.00797456
4.99379e-15
0.0244615
0.0138699
0.0416092
0.0268642
0.0593347
0.0388369
0.0775339
0.0496597
0.0960772
0.0592232
0.114807
0.0674381
0.133533
0.0742361
0.152033
0.0795718
0.170049
0.0834237
0.18729
0.0857951
0.203432
0.0867153
0.218123
0.0862395
0.230988
0.0844486
0.241632
0.0814483
0.249656
0.0773669
0.25466
0.072353
0.256256
0.0665716
0.25408
0.0602002
0.247805
0.0534239
0.0464306
0.23715
-0.123662
-0.170373
0.116351
-0.129509
-0.178669
-0.133859
-0.184705
-0.136703
-0.188404
-0.138047
-0.189731
-0.137917
-0.188703
-0.136348
-0.185378
-0.133389
-0.179858
-0.129091
-0.172284
-0.123512
-0.162828
-0.116708
-0.15169
-0.108736
-0.139091
-0.0996473
-0.125268
-0.0894897
-0.110468
-0.0783059
-0.0949407
-0.0661337
-0.0789365
-0.0530069
-0.0627007
-0.0389566
-0.0464703
-0.0240137
-0.0304709
-0.00821154
-0.014915
0.00841122
9.76043e-15
0.0258066
0.0140933
0.0439136
0.0272017
0.0626539
0.0391807
0.0819281
0.0499057
0.101611
0.0592729
0.121551
0.0672007
0.141562
0.073631
0.161427
0.0785306
0.180893
0.0818919
0.199676
0.0837343
0.217459
0.0841047
0.233896
0.0830771
0.24862
0.0807519
0.261247
0.0772546
0.271386
0.072733
0.278647
0.0673543
0.282656
0.0613005
0.283061
0.054764
0.279547
0.0479422
0.0410319
0.271847
-0.136258
-0.187771
0.129863
-0.141242
-0.194801
-0.144778
-0.199591
-0.146853
-0.202064
-0.147471
-0.202188
-0.146651
-0.199979
-0.144427
-0.195501
-0.14084
-0.188859
-0.135938
-0.180198
-0.129772
-0.169695
-0.122396
-0.157557
-0.11386
-0.144013
-0.104211
-0.129307
-0.0934917
-0.113692
-0.0817404
-0.0974257
-0.0689901
-0.0807662
-0.0552699
-0.0639649
-0.0406065
-0.0472644
-0.0250261
-0.0308954
-0.00855728
-0.015074
0.00876602
0
0.0269006
0.0141449
0.0457904
0.0271981
0.0653624
0.0390176
0.0855222
0.0494831
0.106151
0.0584971
0.127102
0.0659863
0.148196
0.071903
0.169224
0.076226
0.189941
0.0789621
0.210071
0.0801463
0.229306
0.0798425
0.247313
0.0781426
0.263736
0.0751655
0.278205
0.0710552
0.290344
0.0659772
0.299781
0.0601154
0.306158
0.0536667
0.309143
0.0468361
0.308442
0.0398305
0.0328532
0.303808
-0.147096
-0.202709
0.141619
-0.151225
-0.208492
-0.153968
-0.212072
-0.155307
-0.21337
-0.155241
-0.212357
-0.153786
-0.209049
-0.150968
-0.203512
-0.146823
-0.195855
-0.141395
-0.186225
-0.13473
-0.174806
-0.126874
-0.161809
-0.117874
-0.147467
-0.10777
-0.132031
-0.0966015
-0.11576
-0.0844015
-0.0989192
-0.0711984
-0.0817702
-0.0570168
-0.0645703
-0.0418789
-0.0475669
-0.0258065
-0.0309944
-0.00882381
-0.0150717
0.00903971
-4.74642e-15
0.0277456
0.0140387
0.0472425
0.0268834
0.0674625
0.038395
0.0883168
0.0484579
0.109693
0.0569814
0.131449
0.0639006
0.153415
0.0691781
0.17539
0.072805
0.197136
0.0748016
0.21839
0.0752182
0.238854
0.0741349
0.258208
0.0716605
0.276112
0.0679311
0.292212
0.0631074
0.306151
0.0573711
0.317575
0.0509207
0.326149
0.0439656
0.331564
0.0367209
0.333548
0.0294011
0.0222133
0.33188
-0.155814
-0.214646
0.151185
-0.159162
-0.219298
-0.16119
-0.221786
-0.161873
-0.222034
-0.161209
-0.220013
-0.159205
-0.215742
-0.155884
-0.209288
-0.151277
-0.200764
-0.145421
-0.190319
-0.138357
-0.178142
-0.130126
-0.164446
-0.12077
-0.149471
-0.110324
-0.133471
-0.0988235
-0.116712
-0.0862961
-0.0994628
-0.0727663
-0.08199
-0.0582547
-0.0645556
-0.0427796
-0.0474105
-0.0263588
-0.030792
-0.0090125
-0.0149212
0.00923368
2.17405e-17
0.0283454
0.0137899
0.0482758
0.0262894
0.0689616
0.0373628
0.0903192
0.0468995
0.112241
0.0548156
0.134594
0.0610549
0.157213
0.06559
0.179905
0.0684239
0.202444
0.0695902
0.224575
0.0691537
0.246015
0.0672097
0.266456
0.063883
0.285573
0.0593254
0.303031
0.0537131
0.318491
0.0472421
0.33162
0.0401234
0.342105
0.0325776
0.349659
0.0248278
0.354035
0.0170937
0.00958471
0.355034
-0.162123
-0.223137
0.158207
-0.164821
-0.226855
-0.166258
-0.228444
-0.166408
-0.22783
-0.165263
-0.224986
-0.162827
-0.219937
-0.159118
-0.21275
-0.154162
-0.20354
-0.147992
-0.192462
-0.140643
-0.179706
-0.132152
-0.165491
-0.122554
-0.15006
-0.111884
-0.133671
-0.10017
-0.116596
-0.0874376
-0.0991058
-0.0737069
-0.0814734
-0.0589952
-0.0639635
-0.0433175
-0.0468304
-0.0266885
-0.0303138
-0.00912529
-0.0146362
0.0093499
-4.48755e-15
0.0287061
0.013414
0.0489
0.0254487
0.0698722
0.0359722
0.0915437
0.0448792
0.113812
0.0520925
0.136549
0.0575642
0.159598
0.0612772
0.182771
0.0632459
0.205854
0.0635168
0.228599
0.0621685
0.250737
0.0593107
0.271971
0.0550832
0.291994
0.0496527
0.310484
0.0432092
0.32712
0.0359619
0.34159
0.0281333
0.353598
0.0199532
0.36288
0.0116519
0.369208
0.00345321
-0.00443199
0.372404
-0.165813
-0.227845
0.162421
-0.168036
-0.230895
-0.169046
-0.231838
-0.168816
-0.230603
-0.167336
-0.22717
-0.164607
-0.221565
-0.160644
-0.213861
-0.155468
-0.204175
-0.149108
-0.192667
-0.141596
-0.179529
-0.132964
-0.164986
-0.123246
-0.149284
-0.11247
-0.132687
-0.100663
-0.115468
-0.0878465
-0.0979051
-0.0740385
-0.080273
-0.0592536
-0.0628404
-0.0435044
-0.0458644
-0.0268031
-0.0295868
-0.00916471
-0.0142311
0.00939092
-4.3181e-15
0.0288352
0.0129269
0.0491274
0.0243949
0.0702113
0.0342758
0.092011
0.0424696
0.114428
0.0489061
0.137339
0.0535457
0.160592
0.0563812
0.184008
0.0574383
0.207377
0.0567759
0.230462
0.054486
0.253002
0.0506923
0.274714
0.0455487
0.295301
0.0392358
0.314455
0.0319573
0.331872
0.0239344
0.347252
0.0154005
0.360317
0.00659423
0.370816
-0.00224753
0.378537
-0.0108965
-0.0191402
0.383312
-0.166758
0.163666
-0.168712
-0.169486
-0.169054
-0.167404
-0.164536
-0.160464
-0.155206
-0.148789
-0.141241
-0.132593
-0.122874
-0.112112
-0.10033
-0.0875492
-0.0737845
-0.0590492
-0.0433545
-0.0267115
-0.00913379
0.00935984
0.0287421
0.0489739
0.0700005
0.0917482
0.114121
0.136999
0.160235
0.183652
0.207047
0.230191
0.252828
0.274686
0.295475
0.314899
0.332661
0.348474
0.362068
0.3732
0.381664
0.387296
0.0637766
0.354698
0.0833026
0.351435
0.100264
0.342328
0.113774
0.32774
0.123132
0.308199
0.12787
0.28438
0.127778
0.257082
0.122925
0.227205
0.113663
0.195724
0.100622
0.163656
0.0846883
0.132033
0.0669711
0.101871
0.0487623
0.0741398
0.0314815
0.0497332
0.0166149
0.0294432
0.005649
0.0139349
0.00372578
0.0698234
0.321727
0.0881978
0.319146
0.104203
0.311652
0.117063
0.299527
0.126159
0.283176
0.131056
0.263116
0.131534
0.239964
0.127597
0.214413
0.119485
0.187221
0.107671
0.159185
0.0928446
0.131124
0.0758972
0.103854
0.0578869
0.0781688
0.0400031
0.0548183
0.0235217
0.0344883
0.00975519
0.0177818
0.00520273
0.0747266
0.288974
0.0919037
0.287009
0.106907
0.280934
0.11906
0.270962
0.127811
0.257399
0.13276
0.240637
0.133675
0.221143
0.130512
0.199446
0.123416
0.176128
0.112725
0.151806
0.098963
0.12712
0.0828272
0.102716
0.0651664
0.0792348
0.0469565
0.0572916
0.0292685
0.0374652
0.0132328
0.020283
0.00620844
0.0784046
0.25696
0.0943557
0.255534
0.108325
0.250685
0.119723
0.242572
0.128059
0.231423
0.132961
0.217528
0.134195
0.201238
0.131674
0.18295
0.125468
0.163104
0.115803
0.142172
0.103061
0.120647
0.0877721
0.0990332
0.0705997
0.077837
0.0523258
0.0575546
0.0338282
0.0386624
0.0160558
0.0216074
0.00679724
0.0808135
0.226138
0.0955255
0.225165
0.108443
0.221358
0.119049
0.214831
0.126909
0.205749
0.131678
0.194327
0.133123
0.18082
0.131127
0.165524
0.125696
0.148767
0.116967
0.130903
0.105202
0.112306
0.090789
0.0933637
0.0742311
0.0744685
0.0561374
0.0560125
0.0372086
0.0383792
0.0182195
0.0219362
0.00702928
0.0819459
0.196878
0.0954201
0.196273
0.107277
0.193335
0.117068
0.188144
0.124403
0.180817
0.128968
0.171508
0.130531
0.160402
0.128953
0.147713
0.124195
0.133682
0.116318
0.11857
0.105489
0.102657
0.0919755
0.0862338
0.0761444
0.0696004
0.0584545
0.0530595
0.0394479
0.0369124
0.0197387
0.0214538
0.006967
0.0818286
0.169473
0.0940788
0.169155
0.10488
0.166928
0.113841
0.162848
0.120616
0.156995
0.124917
0.149477
0.126518
0.140424
0.125268
0.12999
0.121091
0.118346
0.113992
0.105683
0.104059
0.0922035
0.0914632
0.0781242
0.0764572
0.0636685
0.0593718
0.0490654
0.0406109
0.0345459
0.0206443
0.0203398
0.00667216
0.0805173
0.144133
0.0915687
0.144028
0.101329
0.142374
0.109457
0.139206
0.115648
0.13458
0.119637
0.128566
0.121212
0.121256
0.120212
0.112755
0.116536
0.103185
0.110148
0.0926808
0.101075
0.0813873
0.08941
0.0694606
0.075313
0.0570641
0.0590085
0.0443668
0.0407828
0.0315414
0.0209807
0.0187624
0.00620338
0.0780916
0.120994
0.0879785
0.121037
0.0967208
0.119835
0.104023
0.117408
0.109616
0.11379
0.113261
0.10903
0.114757
0.103186
0.113942
0.0963323
0.110701
0.0885503
0.104966
0.0799331
0.0967179
0.0705826
0.0859918
0.0606085
0.0728733
0.050127
0.0575009
0.0392598
0.0400642
0.0281327
0.0208022
0.0168742
0.00561425
0.0746483
0.100121
0.0834127
0.100259
0.0911683
0.0994057
0.0976603
0.097571
0.102652
0.0947758
0.10593
0.0910501
0.107307
0.0864323
0.106626
0.0809693
0.103764
0.0747161
0.0986306
0.0677348
0.0911776
0.0600946
0.0813939
0.0518704
0.0693095
0.0431427
0.0549958
0.0339967
0.0385648
0.0245212
0.020169
0.0148083
0.00495209
0.0702941
0.0815187
0.0779837
0.0817089
0.0847901
0.0811184
0.0904947
0.0797519
0.0948915
0.0776207
0.0977908
0.0747421
0.0990216
0.0711397
0.0984344
0.0668429
0.0959039
0.0618865
0.0913309
0.0563107
0.0846444
0.0501609
0.0758028
0.0434867
0.0647954
0.0363421
0.0516428
0.0287846
0.0363978
0.0208752
0.0191448
0.0126774
0.00425722
0.0651386
0.0651402
0.0718052
0.0653487
0.0777046
0.064952
0.0826508
0.0639509
0.0864661
0.0623503
0.0889841
0.0601596
0.090051
0.057392
0.0895283
0.0540649
0.0872943
0.0501995
0.0832463
0.0458207
0.0773014
0.0409568
0.0693986
0.0356396
0.0594992
0.0299037
0.0475883
0.0237868
0.033675
0.0173291
0.0177928
0.0105729
0.00356271
0.0592878
0.0508972
0.0649853
0.0511
0.070023
0.0508422
0.0742444
0.0501225
0.0774981
0.0489421
0.0796401
0.0473051
0.0805349
0.0452184
0.0800571
0.0426914
0.0780931
0.0397361
0.0745421
0.0363671
0.0693175
0.0326012
0.0623478
0.0284577
0.053578
0.023958
0.0429697
0.0191256
0.0305024
0.0139859
0.0161738
0.00856599
0.00289462
0.0528376
0.0386725
0.0576205
0.0388534
0.0618435
0.0386922
0.0653769
0.0381865
0.0680938
0.0373357
0.0698719
0.0361409
0.0705943
0.0346049
0.0701506
0.0327322
0.0684384
0.0305291
0.0653635
0.0280035
0.0608417
0.0251647
0.0547988
0.0220238
0.0471721
0.0185933
0.0379107
0.014887
0.0269762
0.0109202
0.0143433
0.0067095
0.00227253
0.045869
0.0283301
0.0497907
0.0284796
0.0532465
0.0283832
0.0561305
0.0280384
0.0583391
0.0274437
0.0597707
0.0265987
0.0603273
0.0255041
0.0599148
0.0241615
0.058444
0.0225738
0.0558313
0.0207447
0.0519992
0.0186791
0.0468771
0.0163828
0.040402
0.0138626
0.0325187
0.0111261
0.0231807
0.00818214
0.0123505
0.00504009
0.0017103
0.0384442
0.0197259
0.0415562
0.0198399
0.0442909
0.0197854
0.0465651
0.0195601
0.0482963
0.0191624
0.0494032
0.0185914
0.0498065
0.0178467
0.0494292
0.0169285
0.048197
0.0158379
0.0460393
0.0145764
0.0428892
0.0131461
0.038684
0.0115498
0.033366
0.00979089
0.0268826
0.00787335
0.0191867
0.0058017
0.0102374
0.00358104
0.001217
0.0306045
0.0127168
0.0329547
0.0127955
0.0350129
0.0127669
0.0367164
0.0126292
0.0380029
0.0123812
0.0388104
0.0120219
0.0390782
0.0115506
0.0387466
0.0109671
0.0377574
0.0102716
0.0360547
0.00946436
0.0335846
0.00854627
0.0302959
0.00751847
0.0261402
0.00638244
0.0210725
0.00514003
0.0150511
0.00379341
0.00803823
0.00234508
0.00079787
0.0223695
0.00716873
0.0240018
0.00721536
0.0254253
0.00720199
0.0265965
0.00712759
0.0274719
0.00699129
0.0280084
0.0067924
0.028163
0.00653042
0.0278937
0.006205
0.0271591
0.005816
0.0259187
0.00536344
0.0241335
0.00484751
0.0217658
0.00426861
0.0187797
0.0036273
0.0151411
0.00292431
0.0108178
0.00216056
0.0057799
0.00133714
0.000455309
0.0137379
0.00296281
0.0146918
0.00298275
0.0155194
0.00297803
0.0161953
0.00294819
0.0166941
0.00289284
0.0169903
0.00281165
0.0170589
0.00270437
0.0168747
0.00257082
0.0164132
0.00241087
0.0156503
0.00222448
0.0145625
0.00201166
0.013127
0.0017725
0.0113217
0.00150717
0.00912585
0.00121589
0.00651927
0.000898955
0.00348319
0.000556739
0.000189675
0.00469013
3.85073e-18
0.00500037
3.05372e-18
0.00526787
3.27287e-18
0.00548439
3.18483e-18
0.00564166
2.47895e-18
0.00573138
2.35937e-18
0.00574532
2.24529e-18
0.0056753
1.68286e-18
0.00551326
1.17081e-18
0.00525128
8.35251e-19
0.00488162
4.72093e-19
0.00439674
4.74518e-19
0.00378937
5.89765e-19
0.00305252
4.13388e-19
0.00217949
2.11084e-19
0.00116397
8.4613e-20
1.69318e-20
-0.00480782
-0.0017962
-0.005111
-0.00180878
-0.00537054
-0.0018064
-0.00557838
-0.00178879
-0.0057264
-0.0017557
-0.00580651
-0.00170691
-0.00581065
-0.00164225
-0.00573084
-0.0015616
-0.00555921
-0.00146486
-0.00528804
-0.00135199
-0.00490978
-0.001223
-0.00441709
-0.00107791
-0.0038029
-0.000916813
-0.00306041
-0.000739834
-0.00218312
-0.000547141
-0.00116491
-0.000338947
-0.000115507
-0.0147995
-0.00247882
-0.0156897
-0.00249658
-0.0164454
-0.00249361
-0.0170427
-0.00246952
-0.017458
-0.00242395
-0.0176675
-0.00235663
-0.0176476
-0.00226731
-0.0173751
-0.00215584
-0.0168271
-0.0020221
-0.0159813
-0.00186606
-0.0148159
-0.00168773
-0.01331
-0.00148721
-0.0114434
-0.00126463
-0.00919678
-0.00102023
-0.0065519
-0.000754274
-0.00349161
-0.000467113
-0.000159158
-0.025332
-0.00207812
-0.0267857
-0.00209423
-0.0280077
-0.00209284
-0.0289591
-0.00207358
-0.0296009
-0.00203614
-0.0298946
-0.00198026
-0.029802
-0.00190574
-0.029286
-0.00181243
-0.0283099
-0.00170025
-0.0268383
-0.00156916
-0.0248372
-0.00141922
-0.0222738
-0.00125052
-0.0191171
-0.00106322
-0.0153376
-0.000857564
-0.0109081
-0.000633839
-0.0058032
-0.000392408
-0.000133698
-0.036449
-0.000603892
-0.0384447
-0.000612657
-0.0401034
-0.00061632
-0.0413712
-0.000614656
-0.0421948
-0.00060745
-0.0425217
-0.000594509
-0.0423006
-0.000575656
-0.0414814
-0.000550738
-0.0400159
-0.000519627
-0.0378578
-0.00048222
-0.0349629
-0.000438448
-0.0312896
-0.00038827
-0.0267993
-0.000331681
-0.0214559
-0.000268713
-0.0152271
-0.000199433
-0.00808357
-0.000123946
-4.23995e-05
-0.0481842
0.00195093
-0.050701
0.00195348
-0.0527652
0.00193904
-0.0543085
0.00190768
-0.0552639
0.00185954
-0.0555662
0.00179483
-0.055152
0.00171384
-0.0539608
0.00161692
-0.0519347
0.00150448
-0.0490192
0.00137698
-0.0451637
0.00123494
-0.0403214
0.00107891
-0.0344501
0.000909479
-0.0275122
0.000727276
-0.0194751
0.000532952
-0.0103116
0.000327186
0.000110672
-0.0605544
0.00560554
-0.0635706
0.00562104
-0.0660064
0.00558692
-0.0677795
0.00550318
-0.0688101
0.00537007
-0.0690215
0.0051881
-0.0683404
0.004958
-0.0666979
0.00468075
-0.0640297
0.00435752
-0.0602769
0.0039897
-0.0553862
0.00357888
-0.0493105
0.00312681
-0.0420097
0.00263541
-0.0334503
0.00210678
-0.0236064
0.00154313
-0.0124597
0.000946806
0.000320278
-0.0735534
0.0103857
-0.077045
0.0104128
-0.0798141
0.010346
-0.081765
0.0101853
-0.0828061
0.00993167
-0.082851
0.0095863
-0.0818187
0.00915103
-0.0796352
0.00862818
-0.0762333
0.00802055
-0.0715542
0.00733139
-0.0655472
0.00656437
-0.0581712
0.00572357
-0.0493942
0.00481343
-0.0391946
0.00383874
-0.0275611
0.00280457
-0.0144928
0.0017163
0.000579546
-0.0871462
0.0163178
-0.0910857
0.0163515
-0.0941442
0.0162337
-0.0962134
0.0159652
-0.0971911
0.015548
-0.0969833
0.014985
-0.0955046
0.0142801
-0.0926792
0.0134381
-0.0884422
0.0124647
-0.08274
0.0113664
-0.0755314
0.0101507
-0.0667878
0.00882538
-0.0564941
0.00739926
-0.0446488
0.00588158
-0.0312644
0.00428215
-0.0163679
0.00261123
0.000879499
-0.101265
0.0234224
-0.10562
0.0234532
-0.108918
0.0232601
-0.111037
0.0228453
-0.111867
0.0222128
-0.111309
0.0213683
-0.109277
0.0203194
-0.105698
0.0190749
-0.100515
0.0176455
-0.0936872
0.016043
-0.0851891
0.0142804
-0.0750142
0.0123721
-0.0631732
0.0103333
-0.049695
0.00818027
-0.0346268
0.00592994
-0.0180341
0.00359999
0.00120861
-0.115807
0.0317078
-0.12054
0.0317217
-0.124018
0.0314221
-0.12611
0.0308135
-0.126697
0.0299036
-0.125681
0.0287029
-0.122977
0.0272243
-0.118522
0.0254834
-0.112275
0.023498
-0.104213
0.021288
-0.0943377
0.0188753
-0.0826744
0.0162835
-0.0692702
0.0135375
-0.0541958
0.0106637
-0.0375451
0.00768941
-0.0194339
0.00464276
0.00155245
-0.130633
0.0411647
-0.1357
0.0411423
-0.139293
0.040697
-0.141269
0.0398376
-0.141508
0.038577
-0.139912
0.0369329
-0.136406
0.0349266
-0.130944
0.0325833
-0.123506
0.0299315
-0.1141
0.027003
-0.102764
0.0238321
-0.0895659
0.0204557
-0.0746018
0.0169125
-0.0579971
0.0132428
-0.0399048
0.00948807
-0.0205043
0.00569073
0.00189346
-0.145568
0.0517606
-0.15092
0.0516769
-0.154553
0.0510387
-0.156316
0.0498605
-0.15609
0.0481637
-0.153782
0.0459758
-0.149335
0.0433302
-0.142725
0.040266
-0.133965
0.0368269
-0.123104
0.0330611
-0.11023
0.0290203
-0.0954647
0.0247596
-0.0789677
0.0203361
-0.0609323
0.0158091
-0.0415842
0.0112388
-0.0211793
0.00668592
0.00221095
-0.160405
0.0634354
-0.165987
0.0632602
-0.169578
0.0623732
-0.171023
0.0607973
-0.170204
0.0585653
-0.167042
0.0557189
-0.161504
0.0523085
-0.153598
0.0483919
-0.143383
0.044034
-0.13096
0.039305
-0.116479
0.0342804
-0.100132
0.029039
-0.0821568
0.0236628
-0.0628283
0.0182352
-0.0424586
0.0128402
-0.0213921
0.0075615
0.0024812
-0.174911
0.0760984
-0.180663
0.0757966
-0.184125
0.0745965
-0.185137
0.0725323
-0.183589
0.0696525
-0.179422
0.0660182
-0.172634
0.0617026
-0.163281
0.0567892
-0.151475
0.0513705
-0.137387
0.0455467
-0.121244
0.0394237
-0.103324
0.0331119
-0.0839556
0.0267243
-0.0635125
0.0203751
-0.0424059
0.0141775
-0.021079
0.00824274
0.00267793
-0.188831
0.089626
-0.194691
0.0891589
-0.197932
0.0875734
-0.19839
0.084919
-0.195969
0.0812648
-0.190639
0.0766982
-0.182439
0.0713223
-0.171482
0.0652543
-0.157953
0.0586235
-0.142105
0.0515683
-0.124259
0.0442342
-0.104798
0.0367714
-0.0841567
0.0293318
-0.0628207
0.0220668
-0.0413122
0.0151249
-0.0201825
0.00864869
0.00277293
-0.201897
0.103862
-0.207803
0.103188
-0.210727
0.101138
-0.210508
0.0977803
-0.207067
0.0932118
-0.200408
0.0875531
-0.190629
0.0809469
-0.177913
0.0735542
-0.162531
0.065551
-0.14484
0.057125
-0.125271
0.0484714
-0.104327
0.0397896
-0.0825685
0.0312791
-0.0606048
0.0231358
-0.039079
0.0155485
-0.0186546
0.00869453
0.00273694
-0.213841
0.118615
-0.219732
0.117695
-0.222244
0.115095
-0.221222
0.110912
-0.216608
0.105275
-0.208456
0.0983505
-0.196929
0.0903296
-0.182299
0.0814299
-0.164943
0.0718867
-0.145337
0.0619493
-0.124046
0.0518746
-0.101708
0.041922
-0.0790252
0.0323479
-0.0567419
0.0233996
-0.0356286
0.0153105
-0.0164611
0.0082945
0.00254085
-0.224398
0.133667
-0.230217
0.132461
-0.232228
0.129225
-0.230277
0.124085
-0.224341
0.117215
-0.214529
0.108836
-0.201087
0.099202
-0.184394
0.0886018
-0.164951
0.0773449
-0.143377
0.0657566
-0.120386
0.0541691
-0.0967738
0.0429139
-0.0733959
0.0323135
-0.0511418
0.0226733
-0.0309106
0.0142744
-0.0135844
0.00736555
0.00215697
-0.233324
0.148771
-0.239022
0.147247
-0.240445
0.143287
-0.237447
0.137052
-0.230041
0.128773
-0.218406
0.118738
-0.202887
0.10728
-0.183988
0.0947765
-0.162358
0.0816278
-0.138778
0.0682524
-0.114136
0.0550734
-0.0894009
0.0425072
-0.0655938
0.030952
-0.0437546
0.0207766
-0.0249077
0.0123101
-0.010027
0.00583137
0.00156066
-0.240399
0.163655
-0.245938
0.161794
-0.246698
0.157024
-0.242541
0.149555
-0.233524
0.139682
-0.21991
0.127777
-0.202158
0.114274
-0.18092
0.0996542
-0.157016
0.0844327
-0.131414
0.0691401
-0.105196
0.0543072
-0.0795198
0.040449
-0.0555835
0.0280483
-0.0345771
0.017541
-0.0176397
0.00930083
-0.00581345
0.00362689
0.000731888
0.381633
-0.0183047
-0.387307
0.373129
-0.0103078
0.361962
-0.00193697
0.348339
0.00660531
0.332504
0.0151026
0.314727
0.0233306
0.295297
0.0310634
0.274508
0.0380799
0.252657
0.0441697
0.230031
0.0491382
0.206904
0.0528117
0.183527
0.0550407
0.160131
0.0557033
0.136917
0.0547069
0.11406
0.0519899
0.0917056
0.0475218
0.069974
0.0413033
0.0489601
0.033366
0.0287371
0.0237714
0.00935928
0.0126101
-0.00913435
-2.73232e-15
-0.0267165
-0.0139143
-0.0433682
-0.0289634
-0.0590756
-0.0449546
-0.073827
-0.0616741
-0.0876105
-0.0788887
-0.100412
-0.0963494
-0.112215
-0.113794
-0.122998
-0.130952
-0.132736
-0.147549
-0.1414
-0.163312
-0.14896
-0.177975
-0.155384
-0.191288
-0.160642
-0.203019
-0.164708
-0.212967
-0.16756
-0.220961
-0.169189
-0.226872
-0.169592
-0.230614
-0.168783
-0.232148
-0.16679
-0.231484
-0.22868
0.379092
-0.0035244
-0.383939
0.371299
0.00411483
0.360728
0.0120336
0.347596
0.0200317
0.332153
0.0278974
0.314681
0.0354137
0.295478
0.0423639
0.27485
0.0485382
0.253103
0.0537387
0.230536
0.0577845
0.207429
0.060516
0.184043
0.0617982
0.160616
0.0615231
0.137354
0.0596116
0.114437
0.0560144
0.0920156
0.050712
0.0702136
0.0437152
0.0491284
0.0350638
0.0288355
0.024826
0.00939095
0.0130975
-0.00916468
-2.35405e-17
-0.0268028
-0.0143196
-0.0435034
-0.0296911
-0.0592513
-0.0459219
-0.0740338
-0.0627995
-0.087838
-0.0800929
-0.100649
-0.097556
-0.112447
-0.11493
-0.12321
-0.131949
-0.132912
-0.148341
-0.141522
-0.163838
-0.149006
-0.17818
-0.155332
-0.191118
-0.160466
-0.202426
-0.164381
-0.211905
-0.167054
-0.219389
-0.168472
-0.224751
-0.168635
-0.227908
-0.167553
-0.228825
-0.165258
-0.227516
-0.224044
0.370301
0.0105824
-0.373587
0.363878
0.0178507
0.354498
0.0253072
0.342392
0.0327536
0.327827
0.0399829
0.311099
0.0467852
0.292523
0.0529539
0.272421
0.0582908
0.251113
0.0626115
0.22891
0.0657496
0.206105
0.0675604
0.18297
0.0679239
0.159751
0.0667467
0.136663
0.0639636
0.113893
0.0595381
0.0915975
0.0534624
0.0699046
0.045757
0.0489164
0.0364702