/*--------------------------------*- C++ -*----------------------------------*\
  =========                 |
  \\      /  F ield         | OpenFOAM: The Open Source CFD Toolbox
   \\    /   O peration     | Website:  https://openfoam.org
    \\  /    A nd           | Version:  6
     \\/     M anipulation  |
\*---------------------------------------------------------------------------*/
FoamFile
{
    version     2.0;
    format      ascii;
    class       volScalarField;
    location    "2.72";
    object      rho;
}
// * * * * * * * * * * * * * * * * * * * * * * * * * * * * * * * * * * * * * //

dimensions      [1 -3 0 0 0 0 0];

internalField   nonuniform List<scalar> 
5625
(
1.4
1.4
1.4
1.4
1.4
1.4
1.4
1.4
1.4
1.4
1.4
1.4
1.4
1.4
1.4
1.4
1.4
1.4
1.40001
1.40001
1.40001
1.40001
1.40001
1.40001
1.40001
1.40001
1.40001
1.40001
1.40001
1.40001
1.40001
1.40001
1.40001
1.40001
1.40001
1.40001
1.40001
1.40001
1.40001
1.40001
1.40001
1.40001
1.40001
1.40001
1.40001
1.40001
1.40001
1.40001
1.40001
1.40001
1.40001
1.40001
1.40001
1.40001
1.40001
1.40001
1.40001
1.40001
1.40001
1.40001
1.40001
1.40001
1.40001
1.40001
1.40001
1.40001
1.40001
1.40001
1.40001
1.40001
1.40001
1.40001
1.40001
1.40001
1.40001
1.4
1.4
1.4
1.4
1.4
1.4
1.4
1.4
1.4
1.4
1.4
1.4
1.4
1.4
1.4
1.4
1.4
1.4
1.40001
1.40001
1.40001
1.40001
1.40001
1.40001
1.40001
1.40001
1.40001
1.40001
1.40001
1.40001
1.40001
1.40001
1.40001
1.40001
1.40001
1.40001
1.40001
1.40001
1.40001
1.40001
1.40001
1.40001
1.40001
1.40001
1.40001
1.40001
1.40001
1.40001
1.40001
1.40001
1.40001
1.40001
1.40001
1.40001
1.40001
1.40001
1.40001
1.40001
1.40001
1.40001
1.40001
1.40001
1.40001
1.40001
1.40001
1.40001
1.40001
1.40001
1.40001
1.40001
1.40001
1.40001
1.40001
1.40001
1.40001
1.4
1.4
1.4
1.4
1.4
1.4
1.4
1.4
1.39999
1.39999
1.4
1.4
1.4
1.4
1.4
1.4
1.4
1.4
1.40001
1.40001
1.40001
1.40001
1.40001
1.40001
1.40002
1.40002
1.40002
1.40002
1.40002
1.40001
1.40001
1.40001
1.40001
1.40001
1.40001
1.40001
1.40001
1.40001
1.40001
1.40001
1.40001
1.40001
1.40001
1.40001
1.40001
1.40001
1.40001
1.40001
1.40001
1.40001
1.40001
1.40001
1.40001
1.40001
1.40001
1.40001
1.40001
1.40001
1.40001
1.40001
1.40001
1.40001
1.40001
1.40001
1.40001
1.40001
1.40001
1.40001
1.40001
1.40001
1.40001
1.40001
1.40001
1.40001
1.40001
1.4
1.4
1.4
1.4
1.39999
1.39999
1.39999
1.39999
1.39999
1.39999
1.39999
1.39999
1.39999
1.4
1.4
1.4
1.4
1.40001
1.40001
1.40001
1.40001
1.40001
1.40002
1.40002
1.40002
1.40002
1.40002
1.40002
1.40002
1.40002
1.40002
1.40002
1.40002
1.40001
1.40001
1.40001
1.40001
1.40001
1.40001
1.40001
1.40001
1.40001
1.40001
1.40001
1.40001
1.40001
1.40001
1.40001
1.40001
1.40001
1.40001
1.40001
1.40001
1.40001
1.40001
1.40001
1.40001
1.40001
1.40001
1.40001
1.40001
1.40001
1.40001
1.40001
1.40001
1.40001
1.40001
1.40001
1.40001
1.40001
1.40001
1.40001
1.40001
1.40001
1.40001
1.4
1.39999
1.39999
1.39999
1.39999
1.39999
1.39999
1.39999
1.39999
1.39999
1.39999
1.39999
1.39999
1.39999
1.4
1.4
1.4
1.40001
1.40001
1.40001
1.40001
1.40002
1.40002
1.40002
1.40002
1.40002
1.40002
1.40002
1.40002
1.40002
1.40002
1.40002
1.40002
1.40002
1.40002
1.40001
1.40001
1.40001
1.40001
1.40001
1.40001
1.40001
1.40001
1.40001
1.40001
1.40001
1.40001
1.40001
1.40001
1.40001
1.40001
1.40001
1.40001
1.40001
1.40001
1.40001
1.40001
1.40001
1.40001
1.40001
1.40001
1.40001
1.40001
1.40001
1.40001
1.40001
1.40001
1.40001
1.40001
1.40001
1.40001
1.40001
1.40001
1.40001
1.40001
1.39999
1.39999
1.39999
1.39999
1.39999
1.39998
1.39998
1.39998
1.39998
1.39998
1.39998
1.39998
1.39999
1.39999
1.39999
1.4
1.4
1.40001
1.40001
1.40002
1.40002
1.40002
1.40003
1.40003
1.40003
1.40003
1.40003
1.40003
1.40003
1.40003
1.40003
1.40003
1.40002
1.40002
1.40002
1.40002
1.40001
1.40001
1.40001
1.40001
1.40001
1.40001
1.40001
1.40001
1.40001
1.40001
1.40001
1.40001
1.40001
1.40001
1.40001
1.40001
1.40001
1.40001
1.40001
1.40001
1.40001
1.40001
1.40001
1.40001
1.40001
1.40001
1.40001
1.40001
1.40001
1.40001
1.40001
1.40001
1.40001
1.40001
1.40001
1.40001
1.40001
1.40001
1.40001
1.39999
1.39999
1.39999
1.39998
1.39998
1.39998
1.39998
1.39998
1.39998
1.39998
1.39998
1.39998
1.39998
1.39999
1.39999
1.4
1.4
1.40001
1.40001
1.40002
1.40003
1.40003
1.40003
1.40004
1.40004
1.40004
1.40004
1.40004
1.40004
1.40004
1.40003
1.40003
1.40003
1.40003
1.40002
1.40002
1.40002
1.40002
1.40001
1.40001
1.40001
1.40001
1.40001
1.40001
1.40001
1.40001
1.40001
1.40001
1.40001
1.40001
1.40001
1.40001
1.40001
1.40001
1.40001
1.40001
1.40001
1.40001
1.40001
1.40001
1.40001
1.40001
1.40001
1.40001
1.40001
1.40001
1.40001
1.40001
1.40001
1.40001
1.40001
1.40001
1.40001
1.40001
1.40001
1.39999
1.39998
1.39998
1.39998
1.39997
1.39997
1.39997
1.39997
1.39997
1.39997
1.39997
1.39997
1.39998
1.39998
1.39999
1.4
1.40001
1.40001
1.40002
1.40003
1.40003
1.40004
1.40004
1.40005
1.40005
1.40005
1.40005
1.40005
1.40005
1.40005
1.40004
1.40004
1.40004
1.40003
1.40003
1.40003
1.40002
1.40002
1.40002
1.40001
1.40001
1.40001
1.40001
1.40001
1.40001
1.40001
1.40001
1.40001
1.40001
1.40001
1.40001
1.40001
1.40001
1.40001
1.40001
1.40001
1.40001
1.40001
1.40001
1.40001
1.40001
1.40001
1.40001
1.40001
1.40001
1.40001
1.40001
1.40001
1.40001
1.40001
1.40001
1.40001
1.40001
1.40001
1.40001
1.39998
1.39998
1.39997
1.39997
1.39997
1.39996
1.39996
1.39996
1.39996
1.39996
1.39997
1.39997
1.39998
1.39998
1.39999
1.4
1.40001
1.40002
1.40003
1.40004
1.40005
1.40005
1.40006
1.40006
1.40007
1.40007
1.40007
1.40006
1.40006
1.40006
1.40006
1.40005
1.40005
1.40004
1.40004
1.40003
1.40003
1.40002
1.40002
1.40002
1.40001
1.40001
1.40001
1.40001
1.40001
1.40001
1.40001
1.40001
1.40001
1.40001
1.4
1.4
1.4
1.4
1.40001
1.40001
1.40001
1.40001
1.40001
1.40001
1.40001
1.40001
1.40001
1.40001
1.40001
1.40001
1.40001
1.40001
1.40001
1.40001
1.40001
1.40001
1.40001
1.40001
1.40001
1.39998
1.39997
1.39997
1.39996
1.39996
1.39995
1.39995
1.39995
1.39995
1.39996
1.39996
1.39997
1.39998
1.39999
1.4
1.40001
1.40002
1.40003
1.40004
1.40005
1.40006
1.40007
1.40008
1.40008
1.40009
1.40009
1.40009
1.40008
1.40008
1.40008
1.40007
1.40006
1.40006
1.40005
1.40004
1.40004
1.40003
1.40003
1.40002
1.40002
1.40002
1.40001
1.40001
1.40001
1.40001
1.40001
1.40001
1.40001
1.40001
1.40001
1.4
1.4
1.4
1.4
1.4
1.4
1.4
1.4
1.40001
1.40001
1.40001
1.40001
1.40001
1.40001
1.40001
1.40001
1.40001
1.40001
1.40001
1.40001
1.40001
1.40001
1.40001
1.40001
1.40001
1.39997
1.39996
1.39996
1.39995
1.39995
1.39995
1.39994
1.39994
1.39995
1.39995
1.39996
1.39997
1.39998
1.39999
1.40001
1.40002
1.40004
1.40005
1.40007
1.40008
1.40009
1.4001
1.40011
1.40011
1.40011
1.40012
1.40011
1.40011
1.4001
1.4001
1.40009
1.40008
1.40007
1.40006
1.40006
1.40005
1.40004
1.40003
1.40003
1.40002
1.40002
1.40002
1.40001
1.40001
1.40001
1.40001
1.40001
1.40001
1.40001
1.40001
1.4
1.4
1.4
1.4
1.4
1.4
1.4
1.4
1.4
1.40001
1.40001
1.40001
1.40001
1.40001
1.40001
1.40001
1.40001
1.40001
1.40001
1.40001
1.40001
1.40001
1.40001
1.40001
1.40001
1.39996
1.39995
1.39995
1.39994
1.39994
1.39994
1.39994
1.39994
1.39994
1.39995
1.39996
1.39998
1.39999
1.40001
1.40003
1.40005
1.40007
1.40009
1.40011
1.40012
1.40013
1.40014
1.40015
1.40015
1.40016
1.40015
1.40015
1.40014
1.40014
1.40013
1.40012
1.4001
1.40009
1.40008
1.40007
1.40006
1.40005
1.40004
1.40003
1.40003
1.40002
1.40002
1.40001
1.40001
1.40001
1.40001
1.40001
1.40001
1.40001
1.40001
1.4
1.4
1.4
1.4
1.4
1.4
1.4
1.4
1.4
1.4
1.40001
1.40001
1.40001
1.40001
1.40001
1.40001
1.40001
1.40001
1.40001
1.40001
1.40001
1.40001
1.40001
1.40001
1.40001
1.39995
1.39995
1.39994
1.39993
1.39993
1.39993
1.39993
1.39994
1.39995
1.39996
1.39998
1.4
1.40002
1.40005
1.40007
1.4001
1.40012
1.40015
1.40017
1.40018
1.4002
1.40021
1.40021
1.40021
1.40021
1.40021
1.4002
1.40019
1.40018
1.40016
1.40015
1.40013
1.40012
1.4001
1.40009
1.40007
1.40006
1.40005
1.40004
1.40003
1.40003
1.40002
1.40002
1.40001
1.40001
1.40001
1.40001
1.40001
1.40001
1.4
1.4
1.4
1.4
1.4
1.4
1.4
1.4
1.4
1.4
1.4
1.4
1.40001
1.40001
1.40001
1.40001
1.40001
1.40001
1.40001
1.40001
1.40001
1.40001
1.40001
1.40001
1.40001
1.40001
1.39995
1.39994
1.39993
1.39993
1.39993
1.39993
1.39994
1.39995
1.39997
1.39999
1.40002
1.40004
1.40008
1.40011
1.40014
1.40018
1.40021
1.40024
1.40026
1.40028
1.40029
1.4003
1.4003
1.4003
1.4003
1.40028
1.40027
1.40025
1.40023
1.40021
1.40019
1.40017
1.40015
1.40013
1.40011
1.40009
1.40008
1.40006
1.40005
1.40004
1.40003
1.40002
1.40002
1.40001
1.40001
1.40001
1.40001
1.40001
1.4
1.4
1.4
1.4
1.4
1.4
1.4
1.4
1.4
1.4
1.4
1.4
1.4
1.4
1.40001
1.40001
1.40001
1.40001
1.40001
1.40001
1.40001
1.40001
1.40001
1.40001
1.40001
1.40001
1.40001
1.39994
1.39993
1.39993
1.39993
1.39993
1.39994
1.39996
1.39998
1.40001
1.40004
1.40008
1.40012
1.40017
1.40021
1.40026
1.4003
1.40034
1.40037
1.4004
1.40042
1.40044
1.40044
1.40044
1.40043
1.40041
1.40039
1.40037
1.40034
1.40031
1.40028
1.40025
1.40022
1.40019
1.40016
1.40014
1.40012
1.40009
1.40008
1.40006
1.40005
1.40004
1.40003
1.40002
1.40002
1.40001
1.40001
1.40001
1.40001
1.4
1.4
1.4
1.4
1.4
1.4
1.4
1.4
1.4
1.4
1.4
1.4
1.4
1.4
1.40001
1.40001
1.40001
1.40001
1.40001
1.40001
1.40001
1.40001
1.40001
1.40001
1.40001
1.40001
1.40001
1.39994
1.39993
1.39993
1.39994
1.39995
1.39997
1.4
1.40003
1.40008
1.40013
1.40018
1.40025
1.40031
1.40037
1.40044
1.40049
1.40054
1.40058
1.40061
1.40064
1.40065
1.40064
1.40063
1.40061
1.40058
1.40055
1.40051
1.40047
1.40042
1.40038
1.40033
1.40029
1.40025
1.40021
1.40018
1.40015
1.40012
1.40009
1.40007
1.40006
1.40004
1.40003
1.40002
1.40002
1.40001
1.40001
1.40001
1.4
1.4
1.4
1.4
1.4
1.4
1.4
1.4
1.4
1.4
1.4
1.4
1.4
1.4
1.4
1.4
1.40001
1.40001
1.40001
1.40001
1.40001
1.40001
1.40001
1.40001
1.40001
1.40001
1.40001
1.40001
1.39994
1.39994
1.39995
1.39997
1.39999
1.40002
1.40007
1.40013
1.4002
1.40027
1.40036
1.40044
1.40054
1.40062
1.40071
1.40078
1.40085
1.4009
1.40093
1.40095
1.40096
1.40094
1.40092
1.40088
1.40083
1.40077
1.40071
1.40064
1.40057
1.40051
1.40044
1.40038
1.40032
1.40027
1.40023
1.40018
1.40015
1.40012
1.40009
1.40007
1.40005
1.40004
1.40003
1.40002
1.40001
1.40001
1.40001
1.4
1.4
1.4
1.4
1.4
1.4
1.4
1.4
1.4
1.4
1.4
1.4
1.4
1.4
1.4
1.4
1.4
1.40001
1.40001
1.40001
1.40001
1.40001
1.40001
1.40001
1.40001
1.40001
1.40001
1.40001
1.39996
1.39997
1.39999
1.40002
1.40006
1.40012
1.40019
1.40028
1.40039
1.4005
1.40062
1.40075
1.40088
1.401
1.40111
1.40121
1.40129
1.40135
1.40139
1.40141
1.4014
1.40137
1.40132
1.40126
1.40118
1.40109
1.40099
1.40089
1.40079
1.40069
1.4006
1.40051
1.40043
1.40036
1.40029
1.40024
1.40019
1.40015
1.40011
1.40008
1.40006
1.40004
1.40003
1.40002
1.40001
1.40001
1.4
1.4
1.4
1.4
1.4
1.4
1.4
1.4
1.4
1.4
1.4
1.4
1.4
1.4
1.4
1.4
1.4
1.4
1.40001
1.40001
1.40001
1.40001
1.40001
1.40001
1.40001
1.40001
1.40001
1.40001
1.40001
1.39998
1.40001
1.40005
1.4001
1.40018
1.40027
1.40039
1.40053
1.40068
1.40084
1.40102
1.4012
1.40138
1.40154
1.4017
1.40183
1.40193
1.40201
1.40205
1.40206
1.40204
1.40199
1.4019
1.4018
1.40167
1.40153
1.40139
1.40124
1.40109
1.40095
1.40081
1.40068
1.40057
1.40047
1.40038
1.40031
1.40024
1.40019
1.40014
1.4001
1.40008
1.40005
1.40004
1.40002
1.40001
1.40001
1.4
1.4
1.4
1.4
1.4
1.4
1.4
1.4
1.4
1.4
1.4
1.4
1.4
1.4
1.4
1.4
1.4
1.4
1.4
1.40001
1.40001
1.40001
1.40001
1.40001
1.40001
1.40001
1.40001
1.40001
1.40001
1.40004
1.40009
1.40015
1.40025
1.40037
1.40051
1.40069
1.40089
1.40111
1.40135
1.4016
1.40185
1.4021
1.40233
1.40253
1.40271
1.40284
1.40294
1.40298
1.40298
1.40293
1.40284
1.40271
1.40255
1.40237
1.40216
1.40194
1.40172
1.40151
1.4013
1.40111
1.40093
1.40077
1.40063
1.40051
1.4004
1.40031
1.40024
1.40018
1.40013
1.40009
1.40006
1.40004
1.40003
1.40001
1.40001
1.4
1.4
1.4
1.4
1.4
1.4
1.4
1.4
1.4
1.4
1.4
1.4
1.4
1.4
1.4
1.4
1.4
1.4
1.4
1.4
1.40001
1.40001
1.40001
1.40001
1.40001
1.40001
1.40001
1.40001
1.40001
1.40012
1.40021
1.40032
1.40046
1.40065
1.40087
1.40113
1.40142
1.40174
1.40207
1.40242
1.40277
1.40311
1.40342
1.4037
1.40392
1.4041
1.40421
1.40426
1.40425
1.40417
1.40403
1.40383
1.4036
1.40332
1.40302
1.40271
1.4024
1.40209
1.4018
1.40152
1.40127
1.40104
1.40085
1.40067
1.40053
1.40041
1.40031
1.40023
1.40017
1.40012
1.40008
1.40005
1.40003
1.40002
1.40001
1.4
1.4
1.4
1.39999
1.4
1.4
1.4
1.4
1.4
1.4
1.4
1.4
1.4
1.4
1.4
1.4
1.4
1.4
1.4
1.4
1.40001
1.40001
1.40001
1.40001
1.40001
1.40001
1.40001
1.40001
1.40001
1.40026
1.40039
1.40057
1.40079
1.40106
1.40138
1.40175
1.40217
1.40262
1.40309
1.40357
1.40404
1.4045
1.40491
1.40528
1.40558
1.40581
1.40595
1.406
1.40596
1.40584
1.40563
1.40535
1.40502
1.40463
1.40421
1.40377
1.40332
1.40289
1.40248
1.40209
1.40174
1.40142
1.40115
1.40091
1.40071
1.40054
1.40041
1.4003
1.40022
1.40015
1.4001
1.40006
1.40004
1.40002
1.4
1.4
1.39999
1.39999
1.39999
1.39999
1.39999
1.4
1.4
1.4
1.4
1.4
1.4
1.4
1.4
1.4
1.4
1.4
1.4
1.4
1.4
1.4
1.40001
1.40001
1.40001
1.40001
1.40001
1.40001
1.40001
1.40001
1.40046
1.40067
1.40093
1.40125
1.40165
1.40211
1.40263
1.40321
1.40383
1.40447
1.40512
1.40576
1.40637
1.40692
1.4074
1.40779
1.40807
1.40825
1.4083
1.40824
1.40806
1.40777
1.40738
1.40691
1.40638
1.4058
1.40519
1.40458
1.40397
1.4034
1.40286
1.40237
1.40194
1.40156
1.40123
1.40095
1.40073
1.40054
1.4004
1.40028
1.40019
1.40013
1.40008
1.40004
1.40002
1.4
1.39999
1.39999
1.39999
1.39999
1.39999
1.39999
1.39999
1.39999
1.4
1.4
1.4
1.4
1.4
1.4
1.4
1.4
1.4
1.4
1.4
1.4
1.4
1.40001
1.40001
1.40001
1.40001
1.40001
1.40001
1.40001
1.40001
1.40076
1.40106
1.40144
1.40191
1.40246
1.40311
1.40383
1.40462
1.40545
1.40632
1.40719
1.40803
1.40882
1.40954
1.41016
1.41066
1.41102
1.41124
1.4113
1.4112
1.41095
1.41056
1.41004
1.4094
1.40868
1.4079
1.40708
1.40624
1.40542
1.40464
1.40391
1.40324
1.40264
1.40211
1.40167
1.40129
1.40098
1.40073
1.40053
1.40037
1.40025
1.40017
1.4001
1.40006
1.40002
1.4
1.39999
1.39998
1.39998
1.39998
1.39998
1.39999
1.39999
1.39999
1.39999
1.4
1.4
1.4
1.4
1.4
1.4
1.4
1.4
1.4
1.4
1.4
1.4
1.4
1.40001
1.40001
1.40001
1.40001
1.40001
1.40001
1.40001
1.40117
1.40161
1.40215
1.4028
1.40357
1.40445
1.40543
1.40649
1.4076
1.40874
1.40987
1.41096
1.41198
1.4129
1.41368
1.41431
1.41476
1.41502
1.41508
1.41495
1.41462
1.41411
1.41343
1.4126
1.41166
1.41062
1.40954
1.40843
1.40734
1.40628
1.40529
1.40439
1.40358
1.40287
1.40226
1.40174
1.40132
1.40098
1.40071
1.4005
1.40034
1.40022
1.40013
1.40007
1.40003
1.4
1.39999
1.39998
1.39998
1.39998
1.39998
1.39998
1.39999
1.39999
1.39999
1.39999
1.4
1.4
1.4
1.4
1.4
1.4
1.4
1.4
1.4
1.4
1.4
1.4
1.40001
1.40001
1.40001
1.40001
1.40001
1.40001
1.40001
1.40174
1.40235
1.40311
1.40401
1.40505
1.40623
1.40753
1.40892
1.41037
1.41183
1.41328
1.41466
1.41594
1.41708
1.41805
1.41882
1.41937
1.41968
1.41976
1.41958
1.41917
1.41852
1.41766
1.41661
1.41541
1.41408
1.41268
1.41124
1.40981
1.40842
1.40711
1.4059
1.40482
1.40386
1.40304
1.40235
1.40178
1.40132
1.40096
1.40067
1.40046
1.4003
1.40018
1.4001
1.40004
1.40001
1.39999
1.39997
1.39997
1.39997
1.39997
1.39998
1.39998
1.39998
1.39999
1.39999
1.4
1.4
1.4
1.4
1.4
1.4
1.4
1.4
1.4
1.4
1.4
1.4
1.4
1.40001
1.40001
1.40001
1.40001
1.40001
1.40001
1.40251
1.40336
1.40438
1.40559
1.40698
1.40854
1.41022
1.41201
1.41385
1.41569
1.41749
1.41919
1.42076
1.42214
1.4233
1.42422
1.42487
1.42525
1.42533
1.42512
1.42462
1.42384
1.42279
1.42151
1.42002
1.41837
1.4166
1.41478
1.41294
1.41115
1.40945
1.40787
1.40644
1.40517
1.40408
1.40316
1.4024
1.40178
1.40129
1.40091
1.40062
1.40041
1.40025
1.40014
1.40006
1.40002
1.39999
1.39997
1.39996
1.39996
1.39996
1.39997
1.39997
1.39998
1.39998
1.39999
1.39999
1.4
1.4
1.4
1.4
1.4
1.4
1.4
1.4
1.4
1.4
1.4
1.4
1.40001
1.40001
1.40001
1.40001
1.40001
1.40001
1.40354
1.40468
1.40604
1.40764
1.40945
1.41145
1.41359
1.41584
1.41812
1.42037
1.42255
1.42458
1.42643
1.42805
1.4294
1.43046
1.43121
1.43163
1.43173
1.43148
1.43091
1.43001
1.42879
1.42728
1.42551
1.42353
1.42138
1.41912
1.41683
1.41457
1.4124
1.41037
1.40851
1.40687
1.40544
1.40422
1.40321
1.40239
1.40174
1.40123
1.40084
1.40055
1.40035
1.4002
1.4001
1.40003
1.39999
1.39997
1.39996
1.39995
1.39996
1.39996
1.39997
1.39997
1.39998
1.39999
1.39999
1.39999
1.4
1.4
1.4
1.4
1.4
1.4
1.4
1.4
1.4
1.4
1.4
1.4
1.40001
1.40001
1.40001
1.40001
1.40001
1.40487
1.40638
1.40816
1.41023
1.41254
1.41505
1.41771
1.42045
1.4232
1.42588
1.42842
1.43077
1.43287
1.43468
1.43618
1.43734
1.43816
1.43862
1.43873
1.43847
1.43785
1.43687
1.43552
1.43383
1.43182
1.42953
1.427
1.42431
1.42153
1.41875
1.41605
1.41349
1.41113
1.40902
1.40717
1.40559
1.40426
1.40319
1.40233
1.40165
1.40114
1.40076
1.40048
1.40028
1.40014
1.40005
1.4
1.39997
1.39995
1.39995
1.39995
1.39995
1.39996
1.39997
1.39997
1.39998
1.39999
1.39999
1.39999
1.4
1.4
1.4
1.4
1.4
1.4
1.4
1.4
1.4
1.4
1.4
1.40001
1.40001
1.40001
1.40001
1.40001
1.40657
1.40853
1.41082
1.41343
1.41631
1.41939
1.42261
1.42586
1.42906
1.43212
1.43497
1.43755
1.43982
1.44174
1.44331
1.44451
1.44534
1.44582
1.44593
1.44568
1.44506
1.44406
1.44268
1.4409
1.43874
1.43622
1.43338
1.43029
1.42704
1.42373
1.42045
1.4173
1.41436
1.4117
1.40935
1.40732
1.40561
1.40421
1.40309
1.40221
1.40153
1.40102
1.40065
1.40039
1.40021
1.40009
1.40001
1.39997
1.39995
1.39994
1.39994
1.39994
1.39995
1.39996
1.39997
1.39998
1.39998
1.39999
1.39999
1.4
1.4
1.4
1.4
1.4
1.4
1.4
1.4
1.4
1.4
1.4
1.4
1.40001
1.40001
1.40001
1.40001
1.40871
1.4112
1.41408
1.41731
1.4208
1.42448
1.42824
1.43196
1.43554
1.43888
1.44192
1.44459
1.44688
1.44878
1.45029
1.45142
1.4522
1.45263
1.45274
1.45253
1.45197
1.45106
1.44976
1.44804
1.44589
1.4433
1.44029
1.43692
1.43327
1.42946
1.42561
1.42184
1.41826
1.41498
1.41204
1.40948
1.40731
1.40552
1.40407
1.40292
1.40204
1.40138
1.40089
1.40054
1.4003
1.40014
1.40004
1.39998
1.39994
1.39993
1.39993
1.39993
1.39994
1.39995
1.39996
1.39997
1.39998
1.39999
1.39999
1.39999
1.4
1.4
1.4
1.4
1.4
1.4
1.4
1.4
1.4
1.4
1.4
1.40001
1.40001
1.40001
1.40001
1.41135
1.41446
1.41799
1.42188
1.42601
1.43026
1.43449
1.43857
1.44237
1.44581
1.44883
1.4514
1.4535
1.45518
1.45646
1.45738
1.458
1.45834
1.45843
1.45827
1.45786
1.45714
1.45609
1.45463
1.45271
1.45028
1.44733
1.44389
1.44001
1.43582
1.43146
1.42709
1.42286
1.41889
1.41529
1.41213
1.40941
1.40714
1.4053
1.40383
1.4027
1.40184
1.4012
1.40075
1.40043
1.40022
1.40008
1.39999
1.39995
1.39993
1.39992
1.39992
1.39993
1.39994
1.39995
1.39996
1.39997
1.39998
1.39999
1.39999
1.4
1.4
1.4
1.4
1.4
1.4
1.4
1.4
1.4
1.4
1.4
1.40001
1.40001
1.40001
1.40001
1.41453
1.41833
1.42256
1.42712
1.43184
1.43656
1.44112
1.44535
1.44914
1.45242
1.45514
1.45732
1.45898
1.46021
1.46106
1.46161
1.46195
1.46213
1.46217
1.4621
1.4619
1.46152
1.46089
1.45991
1.45849
1.45653
1.45395
1.45073
1.4469
1.44256
1.43785
1.43297
1.42811
1.42345
1.41915
1.4153
1.41196
1.40914
1.40682
1.40497
1.40353
1.40242
1.40161
1.40102
1.4006
1.40032
1.40013
1.40002
1.39996
1.39992
1.39991
1.39991
1.39992
1.39993
1.39995
1.39996
1.39997
1.39998
1.39998
1.39999
1.39999
1.4
1.4
1.4
1.4
1.4
1.4
1.4
1.4
1.4
1.4
1.4
1.40001
1.40001
1.40001
1.41829
1.42282
1.42775
1.43292
1.43812
1.44313
1.44775
1.45185
1.45531
1.45808
1.46018
1.46166
1.4626
1.46313
1.46335
1.46339
1.46334
1.46327
1.46325
1.46328
1.46336
1.46342
1.46338
1.46312
1.46248
1.46131
1.45947
1.45685
1.45344
1.44926
1.44448
1.43928
1.43391
1.42862
1.4236
1.41903
1.41499
1.41155
1.40868
1.40637
1.40456
1.40316
1.40212
1.40136
1.40083
1.40046
1.40022
1.40006
1.39997
1.39993
1.39991
1.3999
1.39991
1.39992
1.39994
1.39995
1.39996
1.39997
1.39998
1.39999
1.39999
1.4
1.4
1.4
1.4
1.4
1.4
1.4
1.4
1.4
1.4
1.4
1.40001
1.40001
1.40001
1.42263
1.42789
1.43347
1.43911
1.44456
1.44957
1.45393
1.45752
1.46026
1.46216
1.46328
1.46376
1.46372
1.46334
1.46277
1.46215
1.46162
1.46126
1.46115
1.46129
1.46169
1.46228
1.46295
1.46357
1.46396
1.4639
1.46317
1.46158
1.45901
1.45544
1.45095
1.44574
1.44008
1.43427
1.4286
1.42329
1.41853
1.41439
1.41091
1.40807
1.40582
1.40407
1.40276
1.4018
1.40111
1.40064
1.40032
1.40012
1.4
1.39993
1.3999
1.3999
1.3999
1.39991
1.39993
1.39994
1.39996
1.39997
1.39998
1.39998
1.39999
1.39999
1.4
1.4
1.4
1.4
1.4
1.4
1.4
1.4
1.4
1.4
1.40001
1.40001
1.40001
1.42752
1.43344
1.43951
1.44539
1.45078
1.45542
1.45911
1.46177
1.4634
1.46406
1.46391
1.46312
1.46191
1.46046
1.45899
1.45765
1.45659
1.45591
1.45569
1.45594
1.45667
1.45781
1.45927
1.46089
1.46246
1.46374
1.46443
1.46426
1.46299
1.46049
1.45676
1.45194
1.44631
1.44022
1.43402
1.42805
1.42255
1.41768
1.41352
1.41009
1.40733
1.40518
1.40355
1.40234
1.40148
1.40087
1.40047
1.4002
1.40004
1.39995
1.39991
1.39989
1.39989
1.3999
1.39992
1.39993
1.39995
1.39996
1.39997
1.39998
1.39999
1.39999
1.4
1.4
1.4
1.4
1.4
1.4
1.4
1.4
1.4
1.4
1.40001
1.40001
1.40001
1.43284
1.43929
1.44561
1.4514
1.45633
1.46016
1.46275
1.46408
1.46424
1.46338
1.46172
1.45951
1.45701
1.45444
1.45203
1.44995
1.44836
1.44736
1.44702
1.44738
1.44843
1.45013
1.45236
1.45499
1.45781
1.46054
1.46286
1.4644
1.46482
1.46385
1.46137
1.45743
1.45225
1.4462
1.43971
1.43319
1.42701
1.4214
1.41653
1.41244
1.40912
1.4065
1.4045
1.40301
1.40193
1.40117
1.40065
1.40031
1.4001
1.39998
1.39992
1.39989
1.39989
1.39989
1.39991
1.39993
1.39994
1.39996
1.39997
1.39998
1.39999
1.39999
1.4
1.4
1.4
1.4
1.4
1.4
1.4
1.4
1.4
1.4
1.4
1.40001
1.40001
1.43845
1.44519
1.45141
1.4567
1.46074
1.46332
1.4644
1.46407
1.46249
1.45992
1.45665
1.45297
1.44917
1.4455
1.44218
1.4394
1.43731
1.43601
1.43557
1.43603
1.43738
1.43958
1.44254
1.44614
1.45016
1.45435
1.45835
1.46175
1.46413
1.46507
1.46431
1.46173
1.45748
1.45189
1.44542
1.43857
1.43181
1.42551
1.41991
1.41513
1.41119
1.40805
1.40563
1.4038
1.40247
1.40153
1.40088
1.40045
1.40018
1.40002
1.39993
1.39989
1.39988
1.39989
1.3999
1.39992
1.39994
1.39995
1.39996
1.39997
1.39998
1.39999
1.39999
1.4
1.4
1.4
1.4
1.4
1.4
1.4
1.4
1.4
1.4
1.40001
1.40001
1.44412
1.45081
1.45654
1.46088
1.46358
1.46453
1.46379
1.46156
1.45811
1.45378
1.44889
1.44378
1.43874
1.43404
1.42991
1.4265
1.42396
1.4224
1.42188
1.42242
1.42404
1.4267
1.43032
1.43478
1.43991
1.44546
1.45108
1.45636
1.4608
1.46389
1.46519
1.46443
1.4616
1.45692
1.45086
1.44397
1.43683
1.42994
1.42364
1.41815
1.41356
1.40985
1.40695
1.40475
1.40313
1.40197
1.40117
1.40063
1.40029
1.40008
1.39996
1.3999
1.39988
1.39988
1.39989
1.39991
1.39993
1.39994
1.39996
1.39997
1.39998
1.39999
1.39999
1.4
1.4
1.4
1.4
1.4
1.4
1.4
1.4
1.4
1.4
1.40001
1.40001
1.44957
1.45582
1.46061
1.46358
1.46456
1.46358
1.46083
1.45661
1.45128
1.44522
1.43881
1.43237
1.42621
1.42058
1.4157
1.41173
1.40881
1.40701
1.40642
1.40705
1.40891
1.41198
1.41619
1.42143
1.42755
1.43433
1.44145
1.4485
1.45496
1.46027
1.46385
1.46524
1.46425
1.46095
1.45573
1.44916
1.4419
1.43456
1.42765
1.42147
1.4162
1.41188
1.40846
1.40584
1.40389
1.40249
1.40151
1.40085
1.40042
1.40015
1.4
1.39992
1.39988
1.39988
1.39989
1.3999
1.39992
1.39994
1.39995
1.39997
1.39998
1.39999
1.39999
1.4
1.4
1.4
1.4
1.4
1.4
1.4
1.4
1.4
1.4
1.40001
1.40001
1.4545
1.45988
1.46332
1.46454
1.46353
1.46047
1.45565
1.44946
1.44233
1.43466
1.42684
1.41919
1.41202
1.40555
1.39999
1.3955
1.3922
1.39019
1.38953
1.39025
1.39236
1.39582
1.40057
1.40653
1.41355
1.42143
1.42989
1.43856
1.44692
1.45439
1.46029
1.46404
1.46522
1.46371
1.45975
1.45389
1.44682
1.43926
1.43184
1.42503
1.41909
1.41414
1.41017
1.40709
1.40478
1.4031
1.40192
1.40111
1.40058
1.40025
1.40005
1.39994
1.39989
1.39988
1.39988
1.3999
1.39992
1.39993
1.39995
1.39996
1.39997
1.39998
1.39999
1.39999
1.4
1.4
1.4
1.4
1.4
1.4
1.4
1.4
1.4
1.4
1.40001
1.45862
1.46273
1.46445
1.46367
1.46054
1.45535
1.4485
1.44046
1.43166
1.42252
1.41341
1.40465
1.39651
1.38923
1.383
1.37798
1.37431
1.37208
1.37135
1.37216
1.37452
1.37838
1.38369
1.39035
1.39823
1.40714
1.41683
1.42696
1.43706
1.44654
1.45472
1.46087
1.4644
1.465
1.4627
1.45793
1.45139
1.44387
1.43613
1.42878
1.4222
1.41662
1.41207
1.4085
1.40579
1.40381
1.40239
1.40142
1.40077
1.40036
1.40011
1.39997
1.39991
1.39988
1.39988
1.39989
1.39991
1.39993
1.39995
1.39996
1.39997
1.39998
1.39999
1.39999
1.4
1.4
1.4
1.4
1.4
1.4
1.4
1.4
1.4
1.4
1.40001
1.46169
1.46418
1.46394
1.46103
1.45575
1.4485
1.43975
1.42998
1.41965
1.40916
1.39883
1.38899
1.37988
1.37174
1.36479
1.35918
1.35508
1.35259
1.35179
1.35272
1.35536
1.35968
1.36559
1.373
1.38176
1.39169
1.40256
1.41404
1.42573
1.43708
1.44739
1.45589
1.46185
1.46475
1.46441
1.4611
1.45543
1.44824
1.44039
1.43262
1.42548
1.41928
1.41414
1.41006
1.40692
1.4046
1.40294
1.40178
1.401
1.4005
1.40019
1.40002
1.39993
1.39989
1.39988
1.39989
1.39991
1.39992
1.39994
1.39996
1.39997
1.39998
1.39999
1.39999
1.4
1.4
1.4
1.4
1.4
1.4
1.4
1.4
1.4
1.4
1.40001
1.46356
1.46418
1.46184
1.4568
1.44943
1.44025
1.42974
1.4184
1.40664
1.39484
1.38331
1.37233
1.36215
1.35304
1.34522
1.3389
1.33428
1.33148
1.3306
1.33168
1.33469
1.33958
1.34622
1.35449
1.36423
1.37523
1.38727
1.40007
1.41326
1.42632
1.43861
1.44934
1.4577
1.46299
1.46482
1.46326
1.45879
1.45222
1.44449
1.43647
1.42886
1.42208
1.41636
1.41175
1.40817
1.40549
1.40355
1.40219
1.40127
1.40067
1.40029
1.40007
1.39995
1.3999
1.39988
1.39989
1.3999
1.39992
1.39994
1.39995
1.39997
1.39998
1.39999
1.39999
1.4
1.4
1.4
1.4
1.4
1.4
1.4
1.4
1.4
1.4
1.40001
1.46418
1.46278
1.45834
1.45121
1.4419
1.43092
1.4188
1.40599
1.39286
1.37974
1.3669
1.35463
1.34319
1.33289
1.324
1.3168
1.31152
1.30835
1.30739
1.30869
1.3122
1.31782
1.3254
1.33473
1.3456
1.3578
1.37111
1.38524
1.39986
1.41454
1.42867
1.44149
1.45215
1.45983
1.46395
1.46435
1.46135
1.45569
1.44832
1.44024
1.43227
1.42498
1.41871
1.41356
1.40952
1.40647
1.40423
1.40265
1.40157
1.40086
1.40041
1.40014
1.39999
1.39992
1.39989
1.39989
1.3999
1.39992
1.39993
1.39995
1.39996
1.39998
1.39998
1.39999
1.4
1.4
1.4
1.4
1.4
1.4
1.4
1.4
1.4
1.4
1.4
1.46358
1.46014
1.45364
1.44455
1.43343
1.42082
1.4072
1.39297
1.37844
1.36389
1.34956
1.33575
1.32277
1.31099
1.30075
1.29243
1.28633
1.28269
1.28166
1.28327
1.28747
1.29408
1.30286
1.31354
1.32583
1.33944
1.35414
1.36967
1.38574
1.40197
1.41782
1.43259
1.44543
1.45544
1.46188
1.46438
1.46307
1.45856
1.4518
1.44384
1.43564
1.42793
1.42113
1.41547
1.41097
1.40752
1.40497
1.40316
1.40191
1.40107
1.40054
1.40022
1.40003
1.39994
1.3999
1.39989
1.3999
1.39992
1.39993
1.39995
1.39996
1.39997
1.39998
1.39999
1.39999
1.4
1.4
1.4
1.4
1.4
1.4
1.4
1.4
1.4
1.4
1.46188
1.45643
1.44799
1.43709
1.42432
1.41019
1.39514
1.37947
1.36344
1.34726
1.33117
1.31548
1.30058
1.28692
1.27499
1.26525
1.25812
1.2539
1.2528
1.25485
1.25996
1.26788
1.27826
1.29069
1.30476
1.32011
1.33644
1.35351
1.37107
1.38882
1.4063
1.42289
1.43776
1.44999
1.45872
1.46339
1.46392
1.46077
1.45483
1.44719
1.43892
1.43087
1.42361
1.41746
1.41249
1.40864
1.40577
1.40371
1.40228
1.40131
1.40069
1.40031
1.40009
1.39997
1.39991
1.3999
1.3999
1.39991
1.39993
1.39995
1.39996
1.39997
1.39998
1.39999
1.39999
1.4
1.4
1.4
1.4
1.4
1.4
1.4
1.4
1.4
1.4
1.45924
1.45188
1.44163
1.42909
1.4148
1.39923
1.38275
1.36557
1.34785
1.32976
1.31154
1.29354
1.27626
1.26027
1.24621
1.23469
1.22626
1.22133
1.22015
1.22277
1.22906
1.23869
1.25114
1.26584
1.2822
1.29972
1.31802
1.33685
1.35601
1.37528
1.39432
1.41261
1.42937
1.4437
1.45464
1.46148
1.46394
1.46231
1.45738
1.45024
1.44203
1.43375
1.4261
1.41948
1.41406
1.40982
1.40662
1.4043
1.40268
1.40158
1.40086
1.40041
1.40015
1.4
1.39993
1.39991
1.39991
1.39992
1.39993
1.39995
1.39996
1.39997
1.39998
1.39999
1.39999
1.4
1.4
1.4
1.4
1.4
1.4
1.4
1.4
1.4
1.4
1.45584
1.4467
1.43481
1.42074
1.40503
1.38808
1.37013
1.3513
1.33165
1.3113
1.2905
1.26968
1.24947
1.23061
1.21392
1.20019
1.19015
1.18432
1.18303
1.18637
1.19414
1.20592
1.22102
1.23861
1.25788
1.27812
1.29884
1.31974
1.34068
1.36154
1.3821
1.40197
1.42048
1.43675
1.44979
1.45876
1.46319
1.46319
1.45941
1.45293
1.44493
1.43653
1.42855
1.42152
1.41567
1.41103
1.40751
1.40493
1.40311
1.40186
1.40105
1.40053
1.40022
1.40005
1.39996
1.39992
1.39991
1.39992
1.39993
1.39995
1.39996
1.39997
1.39998
1.39999
1.39999
1.4
1.4
1.4
1.4
1.4
1.4
1.4
1.4
1.4
1.4
1.45188
1.4411
1.4277
1.41224
1.3952
1.37686
1.35736
1.33669
1.31481
1.29178
1.2679
1.24368
1.21993
1.19758
1.1777
1.1613
1.1493
1.14239
1.14096
1.14514
1.15471
1.16911
1.18745
1.20863
1.23151
1.25513
1.27881
1.30219
1.32517
1.34774
1.36982
1.39119
1.4113
1.42935
1.44436
1.45537
1.46176
1.46344
1.46093
1.45524
1.44758
1.43917
1.43094
1.42353
1.41728
1.41227
1.40842
1.40558
1.40356
1.40216
1.40124
1.40066
1.4003
1.40009
1.39998
1.39994
1.39992
1.39992
1.39993
1.39995
1.39996
1.39997
1.39998
1.39999
1.39999
1.4
1.4
1.4
1.4
1.4
1.4
1.4
1.4
1.4
1.4
1.44753
1.43526
1.42049
1.40374
1.3854
1.36565
1.34448
1.32174
1.2973
1.27116
1.24364
1.21542
1.18747
1.161
1.13735
1.11783
1.10356
1.09536
1.09376
1.09889
1.11054
1.12802
1.15021
1.17568
1.20291
1.23061
1.25787
1.28422
1.30956
1.334
1.35765
1.38045
1.40204
1.42171
1.43852
1.45145
1.45974
1.46312
1.46196
1.45716
1.44996
1.44162
1.43322
1.4255
1.41888
1.41351
1.40934
1.40624
1.40402
1.40248
1.40145
1.40079
1.40038
1.40014
1.40002
1.39995
1.39993
1.39993
1.39994
1.39995
1.39996
1.39997
1.39998
1.39999
1.39999
1.4
1.4
1.4
1.4
1.4
1.4
1.4
1.4
1.4
1.4
1.44296
1.42934
1.41332
1.39537
1.37575
1.35453
1.33156
1.30652
1.27917
1.24947
1.21778
1.18493
1.15214
1.12093
1.09301
1.06998
1.05317
1.04355
1.04171
1.04788
1.06181
1.08275
1.10933
1.13974
1.17205
1.20455
1.23602
1.26584
1.2939
1.32042
1.34571
1.36992
1.39287
1.41401
1.43245
1.44717
1.45727
1.46232
1.46252
1.45869
1.45204
1.44388
1.43538
1.4274
1.42045
1.41473
1.41027
1.40691
1.40449
1.4028
1.40167
1.40093
1.40047
1.4002
1.40005
1.39997
1.39994
1.39994
1.39994
1.39995
1.39996
1.39997
1.39998
1.39999
1.39999
1.4
1.4
1.4
1.4
1.4
1.4
1.4
1.4
1.4
1.4
1.4383
1.42347
1.40632
1.38722
1.36634
1.34359
1.31867
1.29112
1.26054
1.22686
1.1905
1.15244
1.11424
1.07782
1.04526
1.01846
0.998944
0.98778
0.985637
0.992826
1.00917
1.03382
1.06518
1.10106
1.13907
1.17702
1.21332
1.24712
1.27828
1.30712
1.33415
1.35974
1.38395
1.40641
1.42633
1.44266
1.45445
1.46111
1.46269
1.45987
1.45382
1.44591
1.43739
1.4292
1.42195
1.41593
1.41117
1.40758
1.40497
1.40313
1.40189
1.40108
1.40057
1.40026
1.40009
1.4
1.39996
1.39995
1.39995
1.39995
1.39996
1.39997
1.39998
1.39999
1.39999
1.4
1.4
1.4
1.4
1.4
1.4
1.4
1.4
1.4
1.4
1.43369
1.41777
1.39958
1.37941
1.35725
1.33291
1.30592
1.27568
1.24163
1.20364
1.16218
1.11848
1.07447
1.03251
0.99511
0.964442
0.942152
0.929359
0.926818