/*--------------------------------*- C++ -*----------------------------------*\
  =========                 |
  \\      /  F ield         | OpenFOAM: The Open Source CFD Toolbox
   \\    /   O peration     | Website:  https://openfoam.org
    \\  /    A nd           | Version:  6
     \\/     M anipulation  |
\*---------------------------------------------------------------------------*/
FoamFile
{
    version     2.0;
    format      ascii;
    class       surfaceScalarField;
    location    "2.6";
    object      meshPhi;
}
// * * * * * * * * * * * * * * * * * * * * * * * * * * * * * * * * * * * * * //

dimensions      [0 3 -1 0 0 0 0];

internalField   nonuniform List<scalar> 
8193
(
0.00380064
-0.00135807
-0.00132009
0.00624775
-0.00251662
0.00855459
-0.00349574
0.0106206
-0.0042802
0.0123588
-0.00486611
0.0137018
-0.00525929
0.014605
-0.00547317
0.0150488
-0.00552652
0.0150377
-0.00544126
0.0145986
-0.00524038
0.0137772
-0.00494637
0.0126342
-0.00457985
0.0112401
-0.0041588
0.00967117
-0.00369808
0.00800437
-0.0032093
0.0063139
-0.00270101
0.00466757
-0.00217898
0.00312422
-0.00164673
0.0017317
-0.00110595
0.000525594
-0.000557122
-0.000471575
-5.01602e-18
-0.00125045
0.000565864
-0.00181452
0.00114061
-0.00217924
0.00172357
-0.00237066
0.00231277
-0.00242355
0.00290438
-0.00237891
0.00349226
-0.00228107
0.00406741
-0.00217419
0.00461764
-0.00209838
0.00512725
-0.00208566
0.00557696
-0.00215584
0.00594417
-0.00231283
0.0062035
-0.00254164
0.00632783
-0.00280654
0.00628966
-0.00305074
0.00606302
-0.0031981
0.00562565
-0.00315682
0.00496139
-0.00282548
0.00406266
-0.00210104
0.00293268
0.00158726
-0.000888494
0.0147985
-0.00459654
-0.00712864
0.0221216
-0.00687333
0.0288106
-0.00864826
0.0346109
-0.00990741
0.0393162
-0.0106685
0.0427795
-0.0109746
0.0449189
-0.0108873
0.0457188
-0.0104792
0.0452262
-0.00982691
0.0435434
-0.00900489
0.0408182
-0.00808092
0.0372323
-0.00711249
0.032989
-0.00614487
0.0283015
-0.00521033
0.0233817
-0.00432849
0.0184305
-0.00350734
0.0136298
-0.0027449
0.00913639
-0.00203109
0.00507731
-0.00134967
0.00154685
-0.000680227
-0.00139483
9.77838e-18
-0.00372189
0.000714328
-0.00544181
0.00148495
-0.00659319
0.00233124
-0.00724233
0.00326801
-0.0074787
0.00430371
-0.00740905
0.00543856
-0.0071502
0.00666269
-0.00682067
0.0079544
-0.00653119
0.00927886
-0.00637452
0.0105872
-0.00641512
0.0118169
-0.00667937
0.0128923
-0.00714728
0.0137279
-0.00774661
0.014232
-0.00835043
0.014312
-0.00877907
0.0138814
-0.00880699
0.0128673
-0.00817506
0.0112183
-0.00660794
0.00891265
0.0059643
-0.00383603
0.0323491
-0.00978761
-0.0197105
0.0440019
-0.0128434
0.054278
-0.0149926
0.0628538
-0.0162498
0.0694885
-0.0166822
0.0740343
-0.0163978
0.076439
-0.0155314
0.0767431
-0.0142314
0.0750714
-0.0126471
0.0716207
-0.010918
0.0666443
-0.00916615
0.0604354
-0.00748989
0.0533101
-0.00596165
0.045591
-0.00462709
0.0375931
-0.00350646
0.0296106
-0.00259722
0.0219075
-0.00187754
0.0147092
-0.00131017
0.00819769
-0.000846405
0.00250787
-0.000429856
-0.00227383
-2.20581e-21
-0.00610931
0.000504507
-0.00900716
0.00114267
-0.0110196
0.00196798
-0.0122381
0.00302519
-0.0127872
0.00434684
-0.0128171
0.0059496
-0.0124944
0.00783059
-0.011991
0.0099638
-0.0114717
0.0122971
-0.0110812
0.01475
-0.0109292
0.0172135
-0.0110777
0.0195512
-0.0115283
0.0216031
-0.0122133
0.0231926
-0.0129894
0.0241358
-0.0136384
0.0242533
-0.0138717
0.0233842
-0.0133439
0.0214009
-0.011671
0.018224
0.0138355
-0.00845615
0.0564803
-0.0165395
-0.0396297
0.0714856
-0.019822
0.0842379
-0.0217848
0.0944274
-0.0224962
0.101853
-0.0220947
0.106428
-0.0207696
0.108177
-0.018742
0.107228
-0.0162445
0.103801
-0.0135034
0.0981897
-0.0107244
0.0907441
-0.00808151
0.0818506
-0.00570978
0.0719124
-0.00370236
0.0613322
-0.00211051
0.0504961
-0.000946336
0.0397604
-0.000187363
0.0294415
0.000217793
0.019808
0.000343293
0.0110755
0.000280002
0.00340374
0.00012974
-0.0031044
2.75727e-22
-0.00840227
-9.28582e-07
-0.0124972
0.000231404
-0.0154473
0.000792999
-0.0173558
0.0017666
-0.0183655
0.00321656
-0.0186499
0.00518329
-0.0184037
0.0076776
-0.0178311
0.010675
-0.0171326
0.0141108
-0.0164901
0.0178765
-0.016052
0.0218179
-0.0159176
0.0257369
-0.0161233
0.029396
-0.0166309
0.0325273
-0.0173193
0.0348453
-0.0179818
0.036064
-0.0183283
0.0359165
-0.0179956
0.0341769
-0.0165628
0.0306824
0.0253532
-0.0135751
0.086609
-0.024052
-0.0667692
0.103659
-0.0269145
0.117574
-0.0281037
0.128125
-0.0277581
0.135203
-0.0260969
0.138822
-0.0233963
0.139108
-0.019963
0.13629
-0.0161104
0.130682
-0.0121358
0.122665
-0.00830255
0.112667
-0.00482762
0.101144
-0.00187303
0.0885575
0.000456894
0.0753608
0.00211443
0.0619816
0.00310408
0.0488097
0.00347596
0.0361884
0.00331782
0.0244072
0.00274677
0.0136973
0.00190107
0.00423036
0.000932612
-0.00388265
1.67441e-14
-0.0105897
-0.00073774
-0.0158953
-0.00112709
-0.0198567
-0.00102597
-0.0225788
-0.000309888
-0.0242078
0.0011213
-0.0249234
0.00333615
-0.0249294
0.00636399
-0.0244422
0.0101873
-0.0236786
0.0147345
-0.0228414
0.0198752
-0.0221048
0.0254167
-0.0215991
0.0311053
-0.0213966
0.0366313
-0.0214994
0.0416398
-0.0218299
0.0457462
-0.0222262
0.0485575
-0.0224411
0.0496966
-0.0221489
0.0488307
-0.0209567
0.0456994
0.040141
-0.0184221
0.121533
-0.0312429
-0.100251
0.139138
-0.0330693
0.152837
-0.0329773
0.162525
-0.0311795
0.168215
-0.0279748
0.170036
-0.0237188
0.168222
-0.0187943
0.163096
-0.0135827
0.155051
-0.00843872
0.144538
-0.00367008
0.132038
0.000476605
0.118049
0.00382419
0.103064
0.00626752
0.0875586
0.00777113
0.0719752
0.0083631
0.056713
0.00812646
0.0421204
0.00718918
0.0284897
0.00571383
0.0160535
0.00388758
0.00498441
0.00191303
-0.004605
7.91979e-15
-0.0126601
-0.00164201
-0.0191815
-0.00281077
-0.0242208
-0.0033183
-0.0278761
-0.00299823
-0.030286
-0.00171382
-0.0316221
0.000633286
-0.032081
0.00409368
-0.031874
0.00866073
-0.0312164
0.0142619
-0.0303143
0.0207515
-0.0293522
0.0279071
-0.0284792
0.0354293
-0.0277959
0.0429474
-0.0273437
0.0500308
-0.0270947
0.0562073
-0.0269469
0.0609863
-0.0267217
0.0638888
-0.0261667
0.0644787
-0.0249636
0.062397
0.0573931
-0.0227403
0.159495
-0.0369217
-0.138451
0.176153
-0.0372345
0.188339
-0.0355153
0.196086
-0.0320446
0.199533
-0.0271888
0.198922
-0.0213687
0.194577
-0.0150264
0.186899
-0.00859403
0.17634
-0.00246642
0.163393
0.00302019
0.148566
0.00760341
0.132372
0.0111028
0.11531
0.0134219
0.0978536
0.0145444
0.0804366
0.0145267
0.0634481
0.0134875
0.0472247
0.011596
0.0320471
0.00905977
0.0181382
0.00611322
0.00566339
0.00300729
-0.00526827
-1.76465e-20
-0.0146019
-0.00265191
-0.0223333
-0.0047008
-0.0285055
-0.00591588
-0.0332039
-0.00609147
-0.0365506
-0.00505605
-0.0386989
-0.00268221
-0.0398254
0.00110253
-0.0401222
0.00630484
-0.039787
0.0128553
-0.0390137
0.0205998
-0.0379808
0.0292949
-0.0368412
0.0386068
-0.0357109
0.048117
-0.0346603
0.0573348
-0.0337061
0.0657163
-0.032806
0.0726906
-0.0318568
0.0776917
-0.030695
0.0801947
-0.0291014
0.0797518
0.0760289
-0.0268091
0.198321
-0.0399825
-0.179119
0.212688
-0.0385157
0.222279
-0.0350321
0.227251
-0.029866
0.227855
-0.0234346
0.224422
-0.0162049
0.217346
-0.00865864
0.207078
-0.00125993
0.194101
0.00557351
0.178922
0.0114925
0.162053
0.0162316
0.143997
0.0196174
0.125235
0.0215691
0.10622
0.0220944
0.0873586
0.0212805
0.0690157
0.0192819
0.0515028
0.0163075
0.0350788
0.0126068
0.0199489
0.00845793
0.00626557
0.00415528
-0.00586966
0
-0.0164032
-0.00370928
-0.0253263
-0.00668481
-0.0326712
-0.00865807
-0.0385064
-0.00938863
-0.0429328
-0.00867394
-0.0460774
-0.00636024
-0.0480882
-0.00235435
-0.0491269
0.00336421
-0.0493621
0.0107318
-0.0489614
0.0195912
-0.0480832
0.0296855
-0.0468687
0.0406574
-0.0454342
0.0520543
-0.0438642
0.063341
-0.0422064
0.0739202
-0.0404675
0.0831602
-0.0386116
0.0904286
-0.0365613
0.0951301
-0.0341997
0.0967464
0.0948734
-0.0313756
0.235607
-0.0395841
-0.219577
0.246648
-0.0363104
0.252879
-0.0311413
0.254558
-0.0244474
0.252014
-0.0166781
0.245637
-0.00832731
0.235863
0.000102153
0.22316
0.00813188
0.208018
0.0153368
0.190934
0.0213678
0.172397
0.0259669
0.152882
0.0289749
0.132837
0.0303317
0.112674
0.0300714
0.0927649
0.0283116
0.0734372
0.0252408
0.0549694
0.0211042
0.0375918
0.0161889
0.0214868
0.0108108
0.00678998
0.0053019
-0.00640679
-3.2279e-16
-0.0180528
-0.00476098
-0.0281348
-0.00865971
-0.0366733
-0.0113962
-0.0437187
-0.0127011
-0.0493467
-0.0123458
-0.0536546
-0.0101544
-0.0567557
-0.00601572
-0.0587749
0.000103485
-0.059843
0.00814636
-0.0600915
0.0179558
-0.0596468
0.0292678
-0.0586255
0.0417104
-0.0571291
0.0548085
-0.0552406
0.0679976
-0.0530213
0.0806445
-0.0505092
0.0920757
-0.0477191
0.101613
-0.0446433
0.108612
-0.0412536
0.112504
0.112835
-0.0375045
0.268939
-0.0352882
-0.256984
0.276034
-0.0304018
0.278528
-0.0238124
0.276743
-0.0159109
0.271054
-0.00716177
0.261874
0.00193097
0.24965
0.0108595
0.234843
0.0191453
0.217922
0.0263684
0.199354
0.0321896
0.17959
0.0363655
0.159061
0.038756
0.138167
0.039324
0.117273
0.0381297
0.0967074
0.0353194
0.0767527
0.0311121
0.0576507
0.0257845
0.0395994
0.0196556
0.0227556
0.0130725
0.0072364
0.00639822
-0.00687777
1.82112e-17
-0.0195398
-0.00576003
-0.0307324
-0.010534
-0.0404646
-0.0139973
-0.048768
-0.015858
-0.0556929
-0.0158674
-0.0613047
-0.0138321
-0.0656802
-0.00962698
-0.0689039
-0.00320828
-0.0710644
0.00537342
-0.0722508
0.0159627
-0.07255
0.0282926
-0.0720439
0.0419831
-0.0708072
0.0565464
-0.0689069
0.0714009
-0.066401
0.0858919
-0.0633402
0.0993219
-0.0597683
0.110985
-0.0557247
0.120208
-0.0512463
0.126392
0.129048
-0.0463696
0.296128
-0.0271367
-0.288632
0.299119
-0.020997
0.297906
-0.0133813
0.292834
-0.00468761
0.284289
0.004618
0.272683
0.0140346
0.258442
0.0230613
0.242
0.0312303
0.223788
0.0381352
0.204226
0.0434532
0.183716
0.0469599
0.162634
0.0485364
0.141329
0.0481687
0.120112
0.0459413
0.0992626
0.0420261
0.0790189
0.036668
0.0595833
0.0301696
0.041121
0.0228753
0.0237623
0.0151574
0.00760529
0.00740233
-0.00728116
-3.00993e-15
-0.0208541
-0.00666646
-0.0330931
-0.0122297
-0.0439962
-0.0163472
-0.0535773
-0.018711
-0.0618618
-0.0190583
-0.0688843
-0.0171837
-0.0746853
-0.0129522
-0.0793089
-0.00631291
-0.0828002
0.00268821
-0.085204
0.0138976
-0.0865637
0.0270474
-0.0869207
0.0417541
-0.086315
0.0575242
-0.0847866
0.073768
-0.0823768
0.0898215
-0.0791315
0.104976
-0.0751035
0.118514
-0.070356
0.12975
-0.0649643
0.138069
0.142967
-0.0590182
0.315419
-0.0156542
-0.31223
0.314603
-0.00870711
0.310087
-0.000515185
0.302213
0.0085263
0.291349
0.0179591
0.277879
0.0272944
0.262195
0.0360466
0.244685
0.0437653
0.225732
0.0500631
0.205702
0.0546374
0.184939
0.0572848
0.163764
0.0579076
0.142469
0.0565134
0.121314
0.0532082
0.100528
0.0481854
0.0803058
0.0417107
0.0608123
0.0341069
0.0421806
0.0257381
0.0245158
0.0169946
0.00789775
0.00828
-0.00761606
-2.85125e-15
-0.021987
-0.0074479
-0.0351919
-0.0136834
-0.0472195
-0.0183527
-0.0580671
-0.0211378
-0.0677379
-0.0217676
-0.0762378
-0.0200299
-0.0835735
-0.0157846
-0.0897509
-0.00897715
-0.0947738
0.000348719
-0.0986437
0.0120403
-0.10136
0.0258295
-0.102923
0.0413319
-0.103334
0.0580526
-0.102599
0.0754005
-0.100734
0.0927105
-0.0977685
0.109273
-0.0937474
0.12437
-0.0887378
0.137314
-0.0828306
0.14749
0.15439
-0.0761416
0.325659
-0.00178001
-0.326151
0.321717
0.005527
0.314612
0.0138635
0.304657
0.0228432
0.292187
0.032022
0.277546
0.040929
0.261077
0.049099
0.24312
0.056103
0.224002
0.0615757
0.204031
0.0652362
0.183497
0.0669021
0.162663
0.066496
0.14177
0.0640445
0.121026
0.0596721
0.100616
0.053589
0.080694
0.0460771
0.0613894
0.0374739
0.0428063
0.028157
0.0250273
0.0185291
0.0081155
0.00900496
-0.00788211
-2.29151e-15
-0.022931
-0.0080799
-0.0370059
-0.0148475
-0.0500875
-0.0199431
-0.0621591
-0.0230445
-0.0732041
-0.0238776
-0.0832034
-0.0222282
-0.0921339
-0.0179555
-0.0999673
-0.0110048
-0.10667
-0.0014206
-0.112204
0.0106437
-0.116529
0.0249195
-0.119604
0.0410223
-0.121392
0.0584585
-0.121866
0.0766398
-0.12101
0.0949053
-0.118831
0.112551
-0.115355
0.128867
-0.110642
0.143172
-0.104779
0.154858
0.163422
-0.0978888
0.326403
0.0132609
-0.329592
0.320291
0.0205527
0.311513
0.0286824
0.300347
0.0372767
0.287084
0.0459101
0.272022
0.0541332
0.255458
0.0615041
0.237677
0.0676177
0.218954
0.0721319
0.199544
0.0747877
0.179683
0.0754232
0.159585
0.0739793
0.139441
0.0704996
0.119416
0.0651229
0.0996533
0.0580726
0.0802721
0.049642
0.0613711
0.0401787
0.0430295
0.0300687
0.0253098
0.0197219
0.00826079
0.00955903
-0.0080795
2.99853e-15
-0.0236803
-0.00854597
-0.0385148
-0.0156896
-0.052557
-0.0210705
-0.0657785
-0.0243669
-0.0781461
-0.0253061
-0.0896197
-0.0236765
-0.100151
-0.0193403
-0.109683
-0.0122464
-0.118149
-0.00244243
-0.125479
0.00991541
-0.131595
0.0245569
-0.136422
0.0410978
-0.139887
0.0590469
-0.141931
0.0778207
-0.142509
0.0967659
-0.1416
0.115189
-0.13921
0.13239
-0.135381
0.147703
-0.13019
0.160531
0.170381
-0.123751
0.31794
0.0281247
-0.322651
0.310749
0.0351483
0.301301
0.0428399
0.289838
0.0508432
0.27661
0.0587537
0.261871
0.0661464
0.245872
0.0726045
0.228851
0.0777481
0.211036
0.0812587
0.192634
0.0828993
0.173836
0.0825271
0.154812
0.0800999
0.135711
0.0756751
0.116662
0.0694036
0.0977722
0.0615181
0.0791331
0.0523196
0.0608173
0.0421614
0.0428834
0.0314339
0.0253774
0.0205499
0.00833641
0.00993189
-0.00820897
-2.45752e-15
-0.024231
-0.00883738
-0.0397016
-0.016193
-0.0545893
-0.0217099
-0.0688564
-0.0250705
-0.0824562
-0.0260077
-0.0953316
-0.0243157
-0.107414
-0.0198633
-0.118621
-0.0126058
-0.128863
-0.00259679
-0.13804
0.0100029
-0.146044
0.0249203
-0.152771
0.0417707
-0.15812
0.0600655
-0.162
0.0792272
-0.164341
0.0986116
-0.165098
0.117537
-0.164254
0.13532
-0.161832
0.151307
-0.157892
0.164918
0.175674
-0.152536
0.301247
0.0415274
-0.306288
0.294056
0.0481702
0.284907
0.0553261
0.274009
0.0626588
0.26158
0.0697877
0.247835
0.0763138
0.232985
0.0818471
0.21723
0.0860336
0.200757
0.0885789
0.183736
0.0892673
0.16632
0.0879743
0.148641
0.084673
0.130817
0.0794328
0.112946
0.0724138
0.0951084
0.0638555
0.0773719
0.0540632
0.0597893
0.0433929
0.0424026
0.0322361
0.0252454
0.0210052
0.00834556
0.0101207
-0.00827186
2.30435e-15
-0.0245813
-0.00895271
-0.0405535
-0.0163556
-0.0561525
-0.0218579
-0.0713331
-0.0251499
-0.0860379
-0.0259726
-0.100196
-0.0241296
-0.113723
-0.0194986
-0.126519
-0.0120439
-0.138471
-0.00182735
-0.149458
0.0109838
-0.15935
0.0261123
-0.168017
0.0431723
-0.175334
0.0616773
-0.181188
0.0810558
-0.185484
0.100673
-0.188153
0.119862
-0.189162
0.137952
-0.188511
0.154308
-0.186243
0.168366
0.179659
-0.182441
0.27787
-0.282194
0.27161
0.263587
0.253982
0.242985
0.23078
0.217549
0.203458
0.188665
0.173307
0.157508
0.141375
0.124997
0.108451
0.0917966
0.0750828
0.0583481
0.0416223
0.0249297
0.00829186
-0.00827003
-0.0247315
-0.041062
-0.0572218
-0.0731593
-0.0888087
-0.104089
-0.118901
-0.133133
-0.146655
-0.159327
-0.171002
-0.18153
-0.190766
-0.198576
-0.204846
-0.209487
-0.212444
-0.213697
-0.213268
-0.211218
-0.207533
-0.193189
-0.212557
-0.168377
-0.210923
-0.142507
-0.203219
-0.117372
-0.190458
-0.0944373
-0.173905
-0.0747249
-0.154893
-0.0587479
-0.134653
-0.0465162
-0.114191
-0.037604
-0.0942288
-0.0312701
-0.0752228
-0.0266132
-0.0574411
-0.0227412
-0.0410942
-0.0189321
-0.0264839
-0.0147646
-0.0141403
-0.0102003
-0.00491419
-0.00560806
-0.0017254
-0.212192
-0.175093
-0.217074
-0.153951
-0.215866
-0.131806
-0.209045
-0.110073
-0.197444
-0.089939
-0.182119
-0.072268
-0.164207
-0.0575525
-0.144792
-0.0459055
-0.124799
-0.0370974
-0.104938
-0.0306293
-0.0856932
-0.0258357
-0.0673718
-0.0220012
-0.0501868
-0.01848
-0.0343705
-0.0148009
-0.0202893
-0.0107478
-0.00853891
-0.00640349
-0.00215418
-0.213419
-0.157135
-0.218274
-0.139333
-0.217601
-0.120579
-0.211772
-0.101983
-0.201455
-0.0844947
-0.187514
-0.0688379
-0.170899
-0.055467
-0.152546
-0.0445555
-0.133285
-0.0360126
-0.113786
-0.0295255
-0.0945417
-0.0246244
-0.0758823
-0.0207607
-0.058031
-0.0173906
-0.0411821
-0.0140564
-0.0255906
-0.0104545
-0.0116583
-0.00648464
-0.00227411
-0.211283
-0.139518
-0.216181
-0.124709
-0.216102
-0.109003
-0.21132
-0.0932623
-0.202357
-0.0782428
-0.1899
-0.0645407
-0.17473
-0.0525628
-0.157635
-0.0425112
-0.139341
-0.0343881
-0.120463
-0.0280187
-0.101478
-0.0230898
-0.082725
-0.0191999
-0.0644373
-0.0159159
-0.0467908
-0.0128315
-0.02997
-0.00962116
-0.0142379
-0.00608474
-0.00217826
-0.205992
-0.122438
-0.210963
-0.11027
-0.211488
-0.0972688
-0.207758
-0.0840983
-0.200161
-0.0713519
-0.189235
-0.0595158
-0.175602
-0.048944
-0.159912
-0.0398442
-0.142785
-0.0322766
-0.124766
-0.0261643
-0.106299
-0.0213144
-0.08772
-0.017449
-0.0692653
-0.0142412
-0.0511034
-0.0113554
-0.0333778
-0.00848688
-0.0162594
-0.00539801
-0.00194756
-0.197871
-0.106082
-0.202907
-0.0962113
-0.204006
-0.0855791
-0.201284
-0.0746921
-0.19502
-0.0640116
-0.185616
-0.0539277
-0.173559
-0.044741
-0.15937
-0.0366499
-0.143562
-0.0297461
-0.126606
-0.0240183
-0.108903
-0.0193624
-0.0907678
-0.0155991
-0.0724352
-0.0124957
-0.0540697
-0.00979265
-0.0357933
-0.00723023
-0.0177206
-0.00457568
-0.00164749
-0.18733
-0.0906175
-0.192397
-0.0827159
-0.194005
-0.0741328
-0.192211
-0.06525
-0.187201
-0.0564217
-0.179267
-0.0479565
-0.168774
-0.0401038
-0.156128
-0.0330431
-0.141744
-0.0268791
-0.126015
-0.0216412
-0.109289
-0.0172872
-0.0918543
-0.0137129
-0.0739334
-0.0107642
-0.0556866
-0.00825303
-0.0372256
-0.00597481
-0.018635
-0.00372698
-0.00132708
-0.174839
-0.0761887
-0.179879
-0.069952
-0.181906
-0.0631183
-0.180931
-0.0559721
-0.177065
-0.0487818
-0.170508
-0.0417878
-0.161523
-0.0351923
-0.150416
-0.0291514
-0.137512
-0.0237698
-0.123127
-0.0190988
-0.107554
-0.0151371
-0.0910475
-0.0118346
-0.0738109
-0.00909864
-0.0559974
-0.00680296
-0.0377136
-0.00479823
-0.0190305
-0.00292377
-0.00101987
-0.160887
-0.0629126
-0.165829
-0.0580637
-0.168171
-0.0527044
-0.167888
-0.0470437
-0.165032
-0.041282
-0.15973
-0.0356035
-0.152161
-0.0301687
-0.142547
-0.0251084
-0.131131
-0.0205194
-0.118161
-0.0164622
-0.103874
-0.0129594
-0.088486
-0.00999747
-0.0721764
-0.00752903
-0.0550878
-0.00547741
-0.0373224
-0.00374244
-0.0189468
-0.00220726
-0.000746012
-0.145954
-0.0508752
-0.150722
-0.0471674
-0.153268
-0.0430345
-0.15354
-0.0386276
-0.151547
-0.0340943
-0.147359
-0.0295731
-0.141088
-0.0251885
-0.132887
-0.0210467
-0.122928
-0.0172323
-0.1114
-0.0138058
-0.0984867
-0.0108018
-0.0843635
-0.00822944
-0.0691845
-0.00607226
-0.0530769
-0.00429062
-0.0361378
-0.00282419
-0.018433
-0.00159569
-0.000515164
-0.130483
-0.0401315
-0.135003
-0.0373489
-0.137641
-0.0342224
-0.138331
-0.0308598
-0.13705
-0.0273675
-0.133824
-0.0238476
-0.128717
-0.0203946
-0.121823
-0.017092
-0.11326
-0.0140102
-0.103161
-0.0112044
-0.0916654
-0.00871298
-0.0789098
-0.00655678
-0.0650204
-0.00473883
-0.0501076
-0.00324484
-0.0342604
-0.00204422
-0.0175442
-0.00109168
-0.000329455
-0.114857
-0.0307067
-0.119061
-0.0286637
-0.121688
-0.026352
-0.122664
-0.0238467
-0.121947
-0.0212232
-0.119532
-0.0185551
-0.115444
-0.015912
-0.109736
-0.0133577
-0.102482
-0.0109482
-0.0937694
-0.00873064
-0.0836983
-0.0067414
-0.0723705
-0.00500579
-0.0598855
-0.00353721
-0.0463349
-0.00233704
-0.031798
-0.00139478
-0.0163381
-0.000688614
-0.000186283
-0.0993913
-0.0226
-0.103218
-0.0211397
-0.105741
-0.019478
-0.106882
-0.0176661
-0.106589
-0.015756
-0.104838
-0.0137992
-0.101627
-0.0118456
-0.0969777
-0.00994224
-0.0909293
-0.00813178
-0.0835368
-0.0064519
-0.0748659
-0.00493416
-0.064989
-0.00360324
-0.0539811
-0.00247646
-0.0419153
-0.00156327
-0.0288593
-0.000865187
-0.0148718
-0.000375709
-8.06003e-05
-0.0843173
-0.0157897
-0.0877172
-0.0147813
-0.090055
-0.0136299
-0.091255
-0.0123693
-0.0912613
-0.0110341
-0.0900375
-0.00965932
-0.0875661
-0.00827933
-0.083847
-0.00692725
-0.0788957
-0.00563417
-0.0727413
-0.0044285
-0.0654236
-0.00333535
-0.0569909
-0.00237593
-0.0474967
-0.00156716
-0.036997
-0.000921209
-0.0255471
-0.0004453
-0.0131993
-0.000141488
-6.61953e-06
-0.0697877
-0.0102397
-0.0727217
-0.00957547
-0.074807
-0.008817
-0.0759746
-0.00798564
-0.0761696
-0.00710351
-0.0753515
-0.00619319
-0.0734938
-0.00527725
-0.0705836
-0.00437782
-0.0666204
-0.0035162
-0.0616152
-0.00271242
-0.0555893
-0.00198484
-0.0485721
-0.00134984
-0.0405996
-0.000821468
-0.0317125
-0.000411149
-0.0219543
-0.000127459
-0.0113691
2.40676e-05
4.10737e-05
-0.0558786
-0.00590668
-0.0583168
-0.00549843
-0.0600954
-0.00503482
-0.0611548
-0.00452844
-0.0614455
-0.00399252
-0.0609278
-0.00344066
-0.0595726
-0.00288662
-0.0573606
-0.00234414
-0.0542826
-0.00182663
-0.0503383
-0.00134701
-0.0455361
-0.000917477
-0.0398919
-0.000549279
-0.0334284
-0.000252533
-0.0261737
-3.60416e-05
-0.0181601
9.28739e-05
-0.00942321
0.000128512
6.69149e-05
-0.0425982
-0.00274694
-0.0445184
-0.00252257
-0.0459477
-0.00227166
-0.0468381
-0.00200089
-0.047148
-0.00171734
-0.0468431
-0.00142835
-0.0458959
-0.00114138
-0.0442864
-0.000863978
-0.0420017
-0.00060361
-0.0390359
-0.000367579
-0.0353898
-0.000162907
-0.0310706
3.766e-06
-0.0260911
0.000126287
-0.0204697
0.000199089
-0.0142291
0.00021728
-0.00739598
0.000176729
7.41405e-05
-0.0298977
-0.00072329
-0.0312836
-0.000623031
-0.0323311
-0.000515036
-0.0330049
-0.00040222
-0.033274
-0.000287659
-0.0331117
-0.000174546
-0.0324962
-6.61534e-05
-0.0314102
3.42043e-05
-0.0298416
0.000123218
-0.0277831
0.000197624
-0.025232
0.000254248
-0.0221906
0.000290051
-0.0186654
0.000302166
-0.0146672
0.000287944
-0.0102109
0.000244991
-0.00531468
0.000171207
6.482e-05
-0.0176841
0.000189426
-0.0185232
0.000216624
-0.0191644
0.000242693
-0.0195862
0.000266866
-0.0197693
0.000288343
-0.019697
0.000306299
-0.019355
0.000319896
-0.0187321
0.000328288
-0.0178196
0.000330633
-0.0166117
0.000326104
-0.0151057
0.000313898
-0.0133016
0.000293246
-0.0112022
0.000263423
-0.00881298
0.000223758
-0.00614212
0.000173645
-0.00320019
0.000112549
4.00193e-05
-0.00583333
1.20667e-18
-0.00611533
9.56917e-19
-0.00633239
1.02559e-18
-0.00647722
9.98003e-19
-0.00654329
7.76808e-19
-0.00652482
7.39336e-19
-0.00641693
7.03586e-19
-0.00621558
5.27343e-19
-0.00591769
3.66886e-19
-0.0055211
2.61735e-19
-0.00502462
1.47936e-19
-0.00442801
1.48695e-19
-0.00373198
1.84809e-19
-0.00293819
1.2954e-19
-0.00204918
6.61454e-20
-0.00106837
2.65144e-20
5.30578e-21
0.00579645
-0.00130186
0.00608066
-0.00128486
0.00630021
-0.00125656
0.00644777
-0.00121752
0.00651673
-0.00116833
0.00650128
-0.00110964
0.00639645
-0.00104217
0.00619818
-0.000966651
0.00590329
-0.000883871
0.00550958
-0.000794624
0.0050158
-0.000699718
0.00442163
-0.000599963
0.00372774
-0.00049616
0.00293572
-0.000389089
0.00204804
-0.000279506
0.00106808
-0.000168124
-5.56129e-05
0.0173514
-0.00374646
0.0182105
-0.00366637
0.0188742
-0.00355326
0.0193206
-0.00340958
0.0195299
-0.00323803
0.0194848
-0.00304149
0.0191706
-0.00282302
0.0185753
-0.00258576
0.0176899
-0.00233294
0.016508
-0.00206782
0.0150263
-0.00179364
0.0132442
-0.0015136
0.0111641
-0.00123078
0.00879075
-0.000948121
0.0061319
-0.000668404
0.00319755
-0.000394175
-0.00012773
0.0289694
-0.00738309
0.0304112
-0.00718844
0.0315218
-0.00692811
0.0322646
-0.00660817
0.0326068
-0.00623517
0.0325207
-0.00581607
0.0319826
-0.00535807
0.0309739
-0.0048686
0.029481
-0.00435511
0.0274949
-0.00382505
0.0250115
-0.0032857
0.0220314
-0.00274409
0.0185597
-0.0022069
0.0146057
-0.00168032
0.0101826
-0.00117005
0.00530738
-0.000681093
-0.000217777
0.0407668
-0.0122772
0.042798
-0.0119075
0.0443526
-0.0114279
0.0453795
-0.0108504
0.0458345
-0.0101876
0.0456801
-0.00945277
0.0448861
-0.00865946
0.0434294
-0.00782146
0.041294
-0.00695245
0.0384709
-0.00606579
0.0349579
-0.00517434
0.0307592
-0.0042902
0.0258846
-0.00342455
0.0203496
-0.00258745
0.014174
-0.00178765
0.00738177
-0.00103249
-0.000327731
0.0528265
-0.018506
0.0554511
-0.0178877
0.0574399
-0.0171036
0.0587283
-0.016174
0.0592621
-0.0151206
0.0589965
-0.0139658
0.0578975
-0.0127322
0.0559406
-0.0114424
0.0531114
-0.0101185
0.0494045
-0.00878152
0.0448233
-0.00745117
0.0393788
-0.00614549
0.0330887
-0.00488046
0.0259764
-0.00366975
0.0180698
-0.00252442
0.00939997
-0.00145277
-0.000460188
0.0651859
-0.0261516
0.0684036
-0.025195
0.0708085
-0.0240038
0.0723243
-0.022611
0.0728884
-0.0210509
0.0724527
-0.0193587
0.0709828
-0.0175695
0.068458
-0.0157175
0.06487
-0.0138353
0.0602222
-0.0119535
0.054528
-0.0100995
0.0478095
-0.00829753
0.0400958
-0.00656773
0.0314206
-0.00492603
0.0218209
-0.00338372
0.0113349
-0.00194729
-0.000618381
0.0778258
-0.0352948
0.0816303
-0.0338895
0.0844237
-0.032168
0.0861196
-0.0301809
0.086651
-0.0279803
0.0859704
-0.0256188
0.0840488
-0.0231478
0.0808749
-0.0206163
0.0764531
-0.0180702
0.0708014
-0.0155506
0.0639491
-0.0130931
0.0559342
-0.0107272
0.0468004
-0.00847562
0.0365946
-0.00635359
0.0253638
-0.00436898
0.0131524
-0.00252213
-0.000806055
0.0906616
-0.0460058
0.0950389
-0.0440175
0.0981822
-0.0416185
0.0999977
-0.0388836
0.100418
-0.0358893
0.0994035
-0.0327111
0.0969364
-0.0294216
0.0930225
-0.0260886
0.0876863
-0.0227729
0.0809679
-0.0195273
0.0729187
-0.0163949
0.0635977
-0.0134083
0.0530673
-0.0105892
0.0413891
-0.00794786
0.0286205
-0.00548318
0.014811
-0.00318349
-0.0010271
0.103537
-0.0583367
0.108464
-0.0556039
0.111907
-0.052353
0.113769
-0.0486921
0.113987
-0.0447302
0.112536
-0.0405729
0.10942
-0.0363197
0.104669
-0.0320606
0.0983387
-0.0278736
0.0904976
-0.0238227
0.0812266
-0.0199565
0.0706108
-0.0163069
0.0587342
-0.012889
0.0456748
-0.00970145
0.0314997
-0.00672748
0.0162625
-0.00393619
-0.00128477
0.116221
-0.0723132
0.121667
-0.0686444
0.125349
-0.0643379
0.12717
-0.0595468
0.127083
-0.0544228
0.125085
-0.0491103
0.12121
-0.043742
0.115528
-0.0384339
0.10813
-0.0332821
0.0991242
-0.0283604
0.0886279
-0.0237184
0.0767565
-0.019381
0.0636182
-0.0153494
0.0493076
-0.0116023
0.0339008
-0.00809864
0.0174536
-0.00478119
-0.00158048
0.128411
-0.0879278
0.134337
-0.0830997
0.138188
-0.0775032
0.139874
-0.0713511
0.139371
-0.0648508
0.13671
-0.0581958
0.13197
-0.0515586
0.125266
-0.0450848
0.116742
-0.0388883
0.106552
-0.0330484
0.094856
-0.0276092
0.0818027
-0.0225798
0.0675261
-0.0179372
0.0521364
-0.0136301
0.0357179
-0.00958493
0.0183279
-0.00571172
-0.00191196
0.139743
-0.105135
0.146105
-0.0988911
0.150049
-0.0917392
0.151501
-0.0839697
0.150469
-0.0758612
0.147032
-0.0676684
0.141326
-0.0596112
0.133528
-0.0518667
0.123841
-0.0445639
0.112477
-0.0377813
0.0996402
-0.0315469
0.0855175
-0.0258422
0.0702667
-0.0206078
0.0540125
-0.0157518
0.0368461
-0.0111603
0.0188286
-0.00670807
-0.00227094
0.149806
-0.123846
0.156559
-0.115899
0.160519
-0.106896
0.161638
-0.0972288
0.159969
-0.0872659
0.155653
-0.0773367
0.148897
-0.0677159
0.139954
-0.0586127
0.129099
-0.0501657
0.116605
-0.0424413
0.102727
-0.0354381
0.0876876
-0.0290943
0.0716663
-0.0233004
0.0548005
-0.017914
0.0371885
-0.0127765
0.0189016
-0.00773119
-0.00264036
0.158162
-0.14393
0.165265
-0.133964
0.169173
-0.122787
0.169869
-0.11092
0.167468
-0.0988462
0.162187
-0.0869841
0.154323
-0.0756695
0.144216
-0.0651419
0.132223
-0.0555393
0.118684
-0.0469011
0.103904
-0.0391773
0.0881377
-0.0322454
0.0715837
-0.0259314
0.054389
-0.0200347
0.0366631
-0.0143545
0.0184988
-0.00871552
-0.00299151
0.164377
-0.165216
0.1718
-0.152889
0.175599
-0.139192
0.175801
-0.124808
0.172593
-0.11036
0.166291
-0.096376
0.157294
-0.0832563
0.146043
-0.0712649
0.132984
-0.0605242
0.118526
-0.0510248
0.103021
-0.0426456
0.0867498
-0.0351828
0.0699245
-0.0283853
0.0527016
-0.0219926
0.0352091
-0.0157739
0.0175815
-0.00956181
-0.00328134
0.168049
-0.187493
0.17578
-0.172448
0.179436
-0.155865
0.179098
-0.138635
0.175043
-0.121553
0.167698
-0.10527
0.157582
-0.0902573
0.145251
-0.0767915
0.131242
-0.0649574
0.116031
-0.0546691
0.10001
-0.0457068
0.0834778
-0.0377646
0.0666527
-0.0305053
0.0497035
-0.023617
0.0327917
-0.0168642
0.0161231
-0.0101311
-0.0034506
0.168843
-0.210519
0.176893
-0.19239
0.180404
-0.172547
0.179515
-0.152136
0.174609
-0.132164
0.166243
-0.113425
0.155071
-0.0964587
0.141771
-0.0815372
0.126971
-0.0686777
0.111208
-0.057683
0.0949022
-0.0482033
0.078358
-0.0398112
0.0617971
-0.0320832
0.045407
-0.0246769
0.0294058
-0.0173969
0.0141109
-0.0102414
-0.00342339
0.166518
-0.234024
0.174932
-0.212451
0.17833
-0.188971
0.176921
-0.16505
0.171206
-0.141945
0.16189
-0.120614
0.149775
-0.101662
0.135661
-0.0853299
0.120269
-0.0715282
0.104181
-0.0599062
0.0878287
-0.0499503
0.0715119
-0.0410974
0.0554522
-0.0328493
0.0398706
-0.0248739
0.025076
-0.017082
0.0115481
-0.00966753
-0.0031086
0.160957
-0.257719
0.169812
-0.232362
0.173173
-0.204879
0.171322
-0.177126
0.164891
-0.150662
0.154747
-0.126631
0.141848
-0.10569
0.127121
-0.0880143
0.111364
-0.0733573
0.0951898
-0.0611658
0.0790214
-0.0507293
0.0631403
-0.0413435
0.0477717
-0.0324655
0.033195
-0.0238385
0.0198549
-0.0155692
0.00845375
-0.00814739
-0.00240386
0.152186
-0.281298
0.161593
-0.251856
0.165036
-0.220027
0.162869
-0.18814
0.155865
-0.158116
0.145063
-0.131303
0.131585
-0.108396
0.11648
-0.0894556
0.100606
-0.0740183
0.0845799
-0.0612727
0.0687966
-0.0502814
0.0535088
-0.040209
0.0389567
-0.030522
0.0255139
-0.0211319
0.0138192
-0.0124567
0.00486266
-0.00539336
-0.00120218
-0.210536
0.107189
0.212114
-0.207554
0.117294
-0.203272
0.127368
-0.197801
0.136991
-0.191249
0.145707
-0.183716
0.153055
-0.175297
0.158597
-0.166074
0.161947
-0.156116
0.162794
-0.145483
0.160923
-0.134222
0.156224
-0.122368
0.148701
-0.10995
0.138467
-0.0969861
0.12574
-0.0834891
0.110827
-0.069467
0.0941091
-0.0549247
0.0760275
-0.0398657
0.0570638
-0.024295
0.0377256
-0.00822121
0.0185317
0.00834069
-1.97641e-18
0.0253663
-0.0173637
0.0428186
-0.033076
0.0606452
-0.0466857
0.0787751
-0.0577845
0.0971162
-0.0660186
0.115554
-0.0711009
0.133949
-0.0728249
0.152139
-0.0710782
0.169941
-0.0658549
0.187151
-0.0572656
0.20355
-0.0455432
0.218914
-0.0310431
0.233017
-0.0142361
0.24564
0.00430612
0.256582
0.0239327
0.265668
0.0439429
0.272759
0.0636196
0.277754
0.082266
0.280601
0.099242
0.113998
-0.234414
0.0969427
0.236873
-0.230361
0.107525
-0.224841
0.118196
-0.217987
0.128513
-0.209932
0.137998
-0.200807
0.146163
-0.190733
0.152547
-0.179821
0.15674