/*--------------------------------*- C++ -*----------------------------------*\
  =========                 |
  \\      /  F ield         | OpenFOAM: The Open Source CFD Toolbox
   \\    /   O peration     | Website:  https://openfoam.org
    \\  /    A nd           | Version:  6
     \\/     M anipulation  |
\*---------------------------------------------------------------------------*/
FoamFile
{
    version     2.0;
    format      ascii;
    class       volVectorField;
    location    "2.65";
    object      U;
}
// * * * * * * * * * * * * * * * * * * * * * * * * * * * * * * * * * * * * * //

dimensions      [0 1 -1 0 0 0 0];

internalField   nonuniform List<vector> 
5625
(
(0.8944 0.4472 0)
(0.8944 0.4472 0)
(0.8944 0.4472 0)
(0.8944 0.4472 0)
(0.8944 0.4472 0)
(0.8944 0.4472 0)
(0.8944 0.4472 0)
(0.8944 0.4472 0)
(0.8944 0.4472 0)
(0.8944 0.4472 0)
(0.8944 0.4472 0)
(0.8944 0.4472 0)
(0.8944 0.4472 0)
(0.8944 0.4472 0)
(0.8944 0.4472 0)
(0.8944 0.4472 0)
(0.8944 0.4472 0)
(0.8944 0.4472 0)
(0.8944 0.4472 0)
(0.8944 0.4472 0)
(0.8944 0.4472 0)
(0.8944 0.4472 0)
(0.8944 0.4472 0)
(0.8944 0.4472 0)
(0.8944 0.4472 0)
(0.8944 0.4472 0)
(0.8944 0.4472 0)
(0.8944 0.4472 0)
(0.8944 0.4472 0)
(0.8944 0.4472 0)
(0.8944 0.4472 0)
(0.8944 0.4472 0)
(0.8944 0.4472 0)
(0.8944 0.4472 0)
(0.8944 0.4472 0)
(0.8944 0.4472 0)
(0.8944 0.4472 0)
(0.8944 0.4472 0)
(0.8944 0.4472 0)
(0.8944 0.447201 0)
(0.8944 0.447199 0)
(0.894401 0.447201 0)
(0.8944 0.4472 0)
(0.894402 0.4472 0)
(0.894402 0.4472 0)
(0.894403 0.4472 0)
(0.894405 0.447201 0)
(0.894408 0.4472 0)
(0.894413 0.447201 0)
(0.894417 0.4472 0)
(0.894427 0.4472 0)
(0.894437 0.447201 0)
(0.894449 0.447199 0)
(0.894466 0.447198 0)
(0.894481 0.447194 0)
(0.894493 0.447188 0)
(0.894497 0.447172 0)
(0.894475 0.447146 0)
(0.894412 0.447094 0)
(0.894271 0.447 0)
(0.894002 0.446833 0)
(0.893539 0.446543 0)
(0.892781 0.446063 0)
(0.89162 0.44528 0)
(0.889916 0.444052 0)
(0.887546 0.442168 0)
(0.884448 0.439382 0)
(0.880686 0.43539 0)
(0.87659 0.429887 0)
(0.87287 0.422554 0)
(0.870593 0.413127 0)
(0.870982 0.401391 0)
(0.875262 0.386961 0)
(0.88441 0.369365 0)
(0.898971 0.348228 0)
(0.8944 0.4472 0)
(0.8944 0.4472 0)
(0.8944 0.4472 0)
(0.8944 0.4472 0)
(0.8944 0.4472 0)
(0.8944 0.4472 0)
(0.8944 0.4472 0)
(0.8944 0.4472 0)
(0.8944 0.4472 0)
(0.8944 0.4472 0)
(0.8944 0.4472 0)
(0.8944 0.4472 0)
(0.8944 0.4472 0)
(0.8944 0.4472 0)
(0.8944 0.4472 0)
(0.8944 0.4472 0)
(0.8944 0.4472 0)
(0.8944 0.4472 0)
(0.8944 0.4472 0)
(0.8944 0.4472 0)
(0.8944 0.4472 0)
(0.8944 0.4472 0)
(0.8944 0.4472 0)
(0.8944 0.4472 0)
(0.8944 0.4472 0)
(0.8944 0.4472 0)
(0.8944 0.4472 0)
(0.8944 0.4472 0)
(0.8944 0.4472 0)
(0.8944 0.4472 0)
(0.8944 0.4472 0)
(0.8944 0.4472 0)
(0.8944 0.4472 0)
(0.8944 0.4472 0)
(0.8944 0.4472 0)
(0.8944 0.4472 0)
(0.8944 0.4472 0)
(0.8944 0.4472 0)
(0.8944 0.4472 0)
(0.894401 0.447201 0)
(0.8944 0.4472 0)
(0.894401 0.4472 0)
(0.8944 0.4472 0)
(0.894403 0.4472 0)
(0.894401 0.4472 0)
(0.894405 0.447201 0)
(0.894403 0.4472 0)
(0.894409 0.4472 0)
(0.894413 0.447201 0)
(0.894417 0.4472 0)
(0.894427 0.447202 0)
(0.894435 0.447202 0)
(0.89445 0.447201 0)
(0.894467 0.447202 0)
(0.894482 0.447198 0)
(0.894497 0.447197 0)
(0.894505 0.447183 0)
(0.894492 0.447163 0)
(0.894441 0.447119 0)
(0.894324 0.447034 0)
(0.894095 0.446889 0)
(0.893692 0.446625 0)
(0.893029 0.446191 0)
(0.892004 0.445472 0)
(0.890488 0.444341 0)
(0.888362 0.442604 0)
(0.885552 0.440019 0)
(0.882082 0.436308 0)
(0.878219 0.431182 0)
(0.874535 0.424349 0)
(0.872013 0.41558 0)
(0.871828 0.404718 0)
(0.875173 0.391531 0)
(0.883079 0.375666 0)
(0.896226 0.356769 0)
(0.8944 0.4472 0)
(0.8944 0.4472 0)
(0.8944 0.4472 0)
(0.8944 0.4472 0)
(0.8944 0.4472 0)
(0.8944 0.4472 0)
(0.8944 0.4472 0)
(0.8944 0.4472 0)
(0.8944 0.4472 0)
(0.8944 0.4472 0)
(0.8944 0.4472 0)
(0.8944 0.4472 0)
(0.8944 0.4472 0)
(0.8944 0.4472 0)
(0.8944 0.4472 0)
(0.8944 0.4472 0)
(0.8944 0.4472 0)
(0.8944 0.4472 0)
(0.8944 0.4472 0)
(0.8944 0.4472 0)
(0.8944 0.4472 0)
(0.8944 0.4472 0)
(0.8944 0.4472 0)
(0.8944 0.4472 0)
(0.8944 0.4472 0)
(0.8944 0.4472 0)
(0.8944 0.4472 0)
(0.8944 0.4472 0)
(0.8944 0.4472 0)
(0.8944 0.4472 0)
(0.8944 0.4472 0)
(0.8944 0.4472 0)
(0.8944 0.4472 0)
(0.8944 0.4472 0)
(0.8944 0.4472 0)
(0.8944 0.4472 0)
(0.8944 0.4472 0)
(0.8944 0.4472 0)
(0.8944 0.4472 0)
(0.894401 0.4472 0)
(0.894399 0.4472 0)
(0.894401 0.4472 0)
(0.8944 0.4472 0)
(0.894403 0.4472 0)
(0.894401 0.4472 0)
(0.894405 0.447201 0)
(0.894403 0.4472 0)
(0.89441 0.4472 0)
(0.894411 0.447201 0)
(0.894418 0.447201 0)
(0.894425 0.447203 0)
(0.894436 0.447203 0)
(0.894449 0.447204 0)
(0.894466 0.447205 0)
(0.894482 0.447205 0)
(0.894498 0.447202 0)
(0.89451 0.447196 0)
(0.894504 0.447178 0)
(0.894467 0.447143 0)
(0.894369 0.44707 0)
(0.894179 0.446941 0)
(0.893833 0.446709 0)
(0.893262 0.446315 0)
(0.89236 0.445672 0)
(0.89103 0.444638 0)
(0.889143 0.443056 0)
(0.88662 0.440685 0)
(0.883455 0.437267 0)
(0.879847 0.432528 0)
(0.876254 0.426197 0)
(0.873527 0.418077 0)
(0.872784 0.408043 0)
(0.875184 0.395975 0)
(0.881777 0.38166 0)
(0.89333 0.364817 0)
(0.8944 0.4472 0)
(0.8944 0.4472 0)
(0.8944 0.4472 0)
(0.8944 0.4472 0)
(0.8944 0.4472 0)
(0.8944 0.4472 0)
(0.8944 0.4472 0)
(0.8944 0.4472 0)
(0.8944 0.4472 0)
(0.8944 0.4472 0)
(0.8944 0.4472 0)
(0.8944 0.4472 0)
(0.8944 0.4472 0)
(0.8944 0.4472 0)
(0.8944 0.4472 0)
(0.8944 0.4472 0)
(0.8944 0.4472 0)
(0.8944 0.4472 0)
(0.8944 0.4472 0)
(0.8944 0.4472 0)
(0.8944 0.4472 0)
(0.8944 0.4472 0)
(0.8944 0.4472 0)
(0.8944 0.4472 0)
(0.8944 0.4472 0)
(0.8944 0.4472 0)
(0.8944 0.4472 0)
(0.8944 0.4472 0)
(0.8944 0.4472 0)
(0.8944 0.4472 0)
(0.894401 0.4472 0)
(0.894399 0.4472 0)
(0.8944 0.4472 0)
(0.8944 0.4472 0)
(0.8944 0.4472 0)
(0.8944 0.4472 0)
(0.894399 0.4472 0)
(0.894401 0.4472 0)
(0.8944 0.4472 0)
(0.894399 0.4472 0)
(0.894401 0.4472 0)
(0.894401 0.4472 0)
(0.8944 0.447201 0)
(0.894401 0.4472 0)
(0.894402 0.4472 0)
(0.894403 0.4472 0)
(0.894405 0.447201 0)
(0.894408 0.447201 0)
(0.894411 0.447201 0)
(0.894418 0.447203 0)
(0.894424 0.447203 0)
(0.894436 0.447205 0)
(0.894448 0.447206 0)
(0.894462 0.447208 0)
(0.894483 0.447209 0)
(0.894499 0.447209 0)
(0.894512 0.447204 0)
(0.894514 0.447194 0)
(0.894484 0.447163 0)
(0.894411 0.447105 0)
(0.89425 0.446993 0)
(0.893959 0.446791 0)
(0.893471 0.446443 0)
(0.892693 0.445866 0)
(0.891535 0.444943 0)
(0.889875 0.44351 0)
(0.887635 0.441363 0)
(0.884787 0.438249 0)
(0.88145 0.433905 0)
(0.878002 0.428083 0)
(0.875143 0.420593 0)
(0.873882 0.411345 0)
(0.875363 0.400292 0)
(0.880627 0.387341 0)
(0.890489 0.372321 0)
(0.8944 0.4472 0)
(0.8944 0.4472 0)
(0.8944 0.4472 0)
(0.8944 0.4472 0)
(0.8944 0.4472 0)
(0.8944 0.4472 0)
(0.8944 0.4472 0)
(0.8944 0.4472 0)
(0.8944 0.4472 0)
(0.8944 0.4472 0)
(0.8944 0.4472 0)
(0.8944 0.4472 0)
(0.8944 0.4472 0)
(0.8944 0.4472 0)
(0.8944 0.4472 0)
(0.8944 0.4472 0)
(0.8944 0.4472 0)
(0.8944 0.4472 0)
(0.8944 0.4472 0)
(0.8944 0.4472 0)
(0.8944 0.4472 0)
(0.8944 0.4472 0)
(0.8944 0.4472 0)
(0.8944 0.4472 0)
(0.8944 0.4472 0)
(0.8944 0.4472 0)
(0.8944 0.4472 0)
(0.8944 0.4472 0)
(0.8944 0.4472 0)
(0.8944 0.4472 0)
(0.8944 0.4472 0)
(0.8944 0.4472 0)
(0.8944 0.4472 0)
(0.8944 0.4472 0)
(0.8944 0.4472 0)
(0.8944 0.4472 0)
(0.894399 0.4472 0)
(0.894401 0.4472 0)
(0.8944 0.4472 0)
(0.8944 0.4472 0)
(0.8944 0.4472 0)
(0.8944 0.4472 0)
(0.894401 0.4472 0)
(0.8944 0.4472 0)
(0.894403 0.447201 0)
(0.8944 0.4472 0)
(0.894407 0.447201 0)
(0.894405 0.447201 0)
(0.894412 0.447202 0)
(0.894416 0.447203 0)
(0.894423 0.447203 0)
(0.894433 0.447206 0)
(0.894446 0.447206 0)
(0.894461 0.44721 0)
(0.89448 0.447213 0)
(0.894498 0.447216 0)
(0.894513 0.447213 0)
(0.894519 0.447206 0)
(0.894499 0.447182 0)
(0.894445 0.447136 0)
(0.894311 0.447043 0)
(0.89407 0.446866 0)
(0.893655 0.446566 0)
(0.892994 0.446057 0)
(0.891992 0.445239 0)
(0.890557 0.443963 0)
(0.888588 0.442038 0)
(0.886054 0.439231 0)
(0.883013 0.435292 0)
(0.879755 0.429977 0)
(0.876843 0.423108 0)
(0.875154 0.414611 0)
(0.875767 0.404481 0)
(0.879725 0.392722 0)
(0.887874 0.379284 0)
(0.8944 0.4472 0)
(0.8944 0.4472 0)
(0.8944 0.4472 0)
(0.8944 0.4472 0)
(0.8944 0.4472 0)
(0.8944 0.4472 0)
(0.8944 0.4472 0)
(0.8944 0.4472 0)
(0.8944 0.4472 0)
(0.8944 0.4472 0)
(0.8944 0.4472 0)
(0.8944 0.4472 0)
(0.8944 0.4472 0)
(0.8944 0.4472 0)
(0.8944 0.4472 0)
(0.8944 0.4472 0)
(0.8944 0.4472 0)
(0.8944 0.4472 0)
(0.8944 0.4472 0)
(0.8944 0.4472 0)
(0.8944 0.4472 0)
(0.8944 0.4472 0)
(0.8944 0.4472 0)
(0.8944 0.4472 0)
(0.8944 0.4472 0)
(0.8944 0.4472 0)
(0.8944 0.4472 0)
(0.8944 0.4472 0)
(0.8944 0.4472 0)
(0.8944 0.4472 0)
(0.8944 0.4472 0)
(0.8944 0.4472 0)
(0.8944 0.4472 0)
(0.8944 0.4472 0)
(0.8944 0.4472 0)
(0.8944 0.4472 0)
(0.8944 0.4472 0)
(0.894399 0.4472 0)
(0.894401 0.4472 0)
(0.8944 0.4472 0)
(0.8944 0.4472 0)
(0.8944 0.447201 0)
(0.894401 0.4472 0)
(0.8944 0.4472 0)
(0.894403 0.4472 0)
(0.8944 0.4472 0)
(0.894406 0.447201 0)
(0.894404 0.447201 0)
(0.894413 0.447202 0)
(0.894413 0.447204 0)
(0.894425 0.447204 0)
(0.894429 0.447208 0)
(0.894445 0.447208 0)
(0.894459 0.447213 0)
(0.894476 0.447216 0)
(0.894495 0.447219 0)
(0.894511 0.447222 0)
(0.894522 0.447216 0)
(0.894508 0.447201 0)
(0.894471 0.447164 0)
(0.894363 0.447088 0)
(0.894167 0.44694 0)
(0.893815 0.44668 0)
(0.893267 0.446241 0)
(0.892406 0.445523 0)
(0.891173 0.444399 0)
(0.889468 0.442697 0)
(0.887237 0.440194 0)
(0.884513 0.436662 0)
(0.881485 0.431857 0)
(0.878602 0.425601 0)
(0.876597 0.417824 0)
(0.87644 0.408545 0)
(0.879159 0.39784 0)
(0.885624 0.385751 0)
(0.8944 0.4472 0)
(0.8944 0.4472 0)
(0.8944 0.4472 0)
(0.8944 0.4472 0)
(0.8944 0.4472 0)
(0.8944 0.4472 0)
(0.8944 0.4472 0)
(0.8944 0.4472 0)
(0.8944 0.4472 0)
(0.8944 0.4472 0)
(0.8944 0.4472 0)
(0.8944 0.4472 0)
(0.8944 0.4472 0)
(0.8944 0.4472 0)
(0.8944 0.4472 0)
(0.8944 0.4472 0)
(0.8944 0.4472 0)
(0.8944 0.4472 0)
(0.8944 0.4472 0)
(0.8944 0.4472 0)
(0.8944 0.4472 0)
(0.8944 0.4472 0)
(0.8944 0.4472 0)
(0.8944 0.4472 0)
(0.8944 0.4472 0)
(0.8944 0.4472 0)
(0.8944 0.4472 0)
(0.8944 0.4472 0)
(0.8944 0.4472 0)
(0.8944 0.4472 0)
(0.8944 0.4472 0)
(0.8944 0.4472 0)
(0.8944 0.4472 0)
(0.8944 0.4472 0)
(0.8944 0.4472 0)
(0.8944 0.4472 0)
(0.894401 0.4472 0)
(0.8944 0.4472 0)
(0.8944 0.447199 0)
(0.894401 0.4472 0)
(0.8944 0.4472 0)
(0.894401 0.4472 0)
(0.8944 0.4472 0)
(0.894402 0.4472 0)
(0.894401 0.4472 0)
(0.894403 0.447201 0)
(0.894403 0.4472 0)
(0.894406 0.447202 0)
(0.89441 0.447202 0)
(0.894413 0.447203 0)
(0.894422 0.447205 0)
(0.894429 0.447207 0)
(0.894442 0.447211 0)
(0.894456 0.447212 0)
(0.894473 0.447221 0)
(0.89449 0.447221 0)
(0.894511 0.447227 0)
(0.894521 0.447226 0)
(0.894516 0.447216 0)
(0.894488 0.447188 0)
(0.894406 0.447127 0)
(0.894243 0.447006 0)
(0.893962 0.446786 0)
(0.893494 0.446412 0)
(0.892779 0.44579 0)
(0.891726 0.444816 0)
(0.890266 0.443323 0)
(0.888331 0.441123 0)
(0.885921 0.437989 0)
(0.883165 0.433693 0)
(0.880385 0.428051 0)
(0.87818 0.42097 0)
(0.877394 0.41249 0)
(0.878992 0.402722 0)
(0.883853 0.391784 0)
(0.8944 0.4472 0)
(0.8944 0.4472 0)
(0.8944 0.4472 0)
(0.8944 0.4472 0)
(0.8944 0.4472 0)
(0.8944 0.4472 0)
(0.8944 0.4472 0)
(0.8944 0.4472 0)
(0.8944 0.4472 0)
(0.8944 0.4472 0)
(0.8944 0.4472 0)
(0.8944 0.4472 0)
(0.8944 0.4472 0)
(0.8944 0.4472 0)
(0.8944 0.4472 0)
(0.8944 0.4472 0)
(0.8944 0.4472 0)
(0.8944 0.4472 0)
(0.8944 0.4472 0)
(0.8944 0.4472 0)
(0.8944 0.4472 0)
(0.8944 0.4472 0)
(0.8944 0.4472 0)
(0.8944 0.4472 0)
(0.8944 0.4472 0)
(0.8944 0.4472 0)
(0.8944 0.4472 0)
(0.8944 0.4472 0)
(0.8944 0.4472 0)
(0.8944 0.4472 0)
(0.8944 0.4472 0)
(0.8944 0.4472 0)
(0.8944 0.447201 0)
(0.8944 0.4472 0)
(0.8944 0.4472 0)
(0.8944 0.4472 0)
(0.8944 0.4472 0)
(0.8944 0.4472 0)
(0.8944 0.4472 0)
(0.8944 0.4472 0)
(0.8944 0.447201 0)
(0.894401 0.447199 0)
(0.8944 0.4472 0)
(0.894402 0.4472 0)
(0.894401 0.4472 0)
(0.894403 0.447201 0)
(0.894403 0.447201 0)
(0.894406 0.447201 0)
(0.894408 0.447203 0)
(0.894415 0.447204 0)
(0.894417 0.447205 0)
(0.89443 0.447208 0)
(0.894436 0.44721 0)
(0.894453 0.447214 0)
(0.89447 0.447221 0)
(0.894484 0.447225 0)
(0.894505 0.44723 0)
(0.894517 0.447234 0)
(0.89452 0.447228 0)
(0.894498 0.447211 0)
(0.89444 0.447161 0)
(0.894308 0.447066 0)
(0.894081 0.446883 0)
(0.893695 0.446566 0)
(0.893097 0.44604 0)
(0.892216 0.4452 0)
(0.890977 0.443912 0)
(0.889319 0.441999 0)
(0.887224 0.439253 0)
(0.884758 0.435461 0)
(0.882154 0.430424 0)
(0.879872 0.424038 0)
(0.87861 0.416317 0)
(0.879243 0.407396 0)
(0.882636 0.39745 0)
(0.8944 0.4472 0)
(0.8944 0.4472 0)
(0.8944 0.4472 0)
(0.8944 0.4472 0)
(0.8944 0.4472 0)
(0.8944 0.4472 0)
(0.8944 0.4472 0)
(0.8944 0.4472 0)
(0.8944 0.4472 0)
(0.8944 0.4472 0)
(0.8944 0.4472 0)
(0.8944 0.4472 0)
(0.8944 0.4472 0)
(0.8944 0.4472 0)
(0.8944 0.4472 0)
(0.8944 0.4472 0)
(0.8944 0.4472 0)
(0.8944 0.4472 0)
(0.8944 0.4472 0)
(0.8944 0.4472 0)
(0.8944 0.4472 0)
(0.8944 0.4472 0)
(0.8944 0.4472 0)
(0.8944 0.4472 0)
(0.8944 0.4472 0)
(0.8944 0.4472 0)
(0.8944 0.4472 0)
(0.8944 0.4472 0)
(0.8944 0.4472 0)
(0.8944 0.4472 0)
(0.8944 0.4472 0)
(0.8944 0.4472 0)
(0.8944 0.4472 0)
(0.8944 0.4472 0)
(0.8944 0.4472 0)
(0.8944 0.4472 0)
(0.8944 0.4472 0)
(0.8944 0.4472 0)
(0.8944 0.4472 0)
(0.8944 0.4472 0)
(0.8944 0.4472 0)
(0.8944 0.447201 0)
(0.894401 0.4472 0)
(0.894401 0.4472 0)
(0.894401 0.4472 0)
(0.894402 0.4472 0)
(0.894404 0.447201 0)
(0.894405 0.447202 0)
(0.894408 0.447202 0)
(0.894412 0.447204 0)
(0.894417 0.447205 0)
(0.894426 0.447208 0)
(0.894435 0.447212 0)
(0.894448 0.447215 0)
(0.894464 0.447221 0)
(0.894481 0.447228 0)
(0.894498 0.447235 0)
(0.894513 0.447239 0)
(0.89452 0.447241 0)
(0.894507 0.447226 0)
(0.894462 0.447192 0)
(0.894363 0.447114 0)
(0.894175 0.446968 0)
(0.893866 0.446706 0)
(0.893372 0.446262 0)
(0.892642 0.445554 0)
(0.891604 0.444453 0)
(0.890199 0.44281 0)
(0.888401 0.440436 0)
(0.88624 0.437126 0)
(0.883865 0.432688 0)
(0.881611 0.426993 0)
(0.880041 0.42002 0)
(0.879902 0.411894 0)
(0.882006 0.402813 0)
(0.8944 0.4472 0)
(0.8944 0.4472 0)
(0.8944 0.4472 0)
(0.8944 0.4472 0)
(0.8944 0.4472 0)
(0.8944 0.4472 0)
(0.8944 0.4472 0)
(0.8944 0.4472 0)
(0.8944 0.4472 0)
(0.8944 0.4472 0)
(0.8944 0.4472 0)
(0.8944 0.4472 0)
(0.8944 0.4472 0)
(0.8944 0.4472 0)
(0.8944 0.4472 0)
(0.8944 0.4472 0)
(0.8944 0.4472 0)
(0.8944 0.4472 0)
(0.8944 0.4472 0)
(0.8944 0.4472 0)
(0.8944 0.4472 0)
(0.8944 0.4472 0)
(0.8944 0.4472 0)
(0.8944 0.4472 0)
(0.8944 0.4472 0)
(0.8944 0.4472 0)
(0.8944 0.4472 0)
(0.8944 0.4472 0)
(0.8944 0.4472 0)
(0.8944 0.4472 0)
(0.8944 0.4472 0)
(0.8944 0.4472 0)
(0.8944 0.4472 0)
(0.8944 0.4472 0)
(0.8944 0.4472 0)
(0.8944 0.4472 0)
(0.8944 0.4472 0)
(0.8944 0.4472 0)
(0.8944 0.4472 0)
(0.8944 0.4472 0)
(0.8944 0.4472 0)
(0.8944 0.4472 0)
(0.8944 0.4472 0)
(0.894401 0.4472 0)
(0.894402 0.447201 0)
(0.8944 0.4472 0)
(0.894405 0.4472 0)
(0.894403 0.447202 0)
(0.894408 0.447202 0)
(0.89441 0.447204 0)
(0.894417 0.447204 0)
(0.894422 0.447209 0)
(0.894434 0.447211 0)
(0.894443 0.447215 0)
(0.894457 0.447222 0)
(0.894476 0.447228 0)
(0.894491 0.447237 0)
(0.894506 0.447243 0)
(0.894517 0.447247 0)
(0.894509 0.447241 0)
(0.894479 0.447215 0)
(0.894404 0.447159 0)
(0.894254 0.447039 0)
(0.894004 0.446827 0)
(0.893606 0.446462 0)
(0.893004 0.445868 0)
(0.892142 0.444944 0)
(0.890973 0.443548 0)
(0.889449 0.44152 0)
(0.887587 0.438673 0)
(0.885474 0.434813 0)
(0.883341 0.429799 0)
(0.881618 0.423573 0)
(0.880914 0.416216 0)
(0.881957 0.407932 0)
(0.8944 0.4472 0)
(0.8944 0.4472 0)
(0.8944 0.4472 0)
(0.8944 0.4472 0)
(0.8944 0.4472 0)
(0.8944 0.4472 0)
(0.8944 0.4472 0)
(0.8944 0.4472 0)
(0.8944 0.4472 0)
(0.8944 0.4472 0)
(0.8944 0.4472 0)
(0.8944 0.4472 0)
(0.8944 0.4472 0)
(0.8944 0.4472 0)
(0.8944 0.4472 0)
(0.8944 0.4472 0)
(0.8944 0.4472 0)
(0.8944 0.4472 0)
(0.8944 0.4472 0)
(0.8944 0.4472 0)
(0.8944 0.4472 0)
(0.8944 0.4472 0)
(0.8944 0.4472 0)
(0.8944 0.4472 0)
(0.8944 0.4472 0)
(0.8944 0.4472 0)
(0.8944 0.4472 0)
(0.8944 0.4472 0)
(0.8944 0.4472 0)
(0.8944 0.4472 0)
(0.8944 0.4472 0)
(0.8944 0.4472 0)
(0.8944 0.4472 0)
(0.8944 0.4472 0)
(0.8944 0.4472 0)
(0.8944 0.447199 0)
(0.8944 0.4472 0)
(0.8944 0.4472 0)
(0.8944 0.4472 0)
(0.8944 0.4472 0)
(0.8944 0.4472 0)
(0.8944 0.4472 0)
(0.894401 0.4472 0)
(0.8944 0.447201 0)
(0.894401 0.4472 0)
(0.894403 0.447201 0)
(0.894402 0.4472 0)
(0.894403 0.447202 0)
(0.894408 0.447202 0)
(0.89441 0.447203 0)
(0.894414 0.447207 0)
(0.894422 0.447207 0)
(0.894428 0.447211 0)
(0.894441 0.447216 0)
(0.894453 0.447222 0)
(0.894466 0.447229 0)
(0.894485 0.447238 0)
(0.8945 0.447246 0)
(0.894509 0.447251 0)
(0.894512 0.447251 0)
(0.894487 0.447235 0)
(0.89443 0.447192 0)
(0.894319 0.447102 0)
(0.894118 0.44693 0)
(0.893795 0.446634 0)
(0.893309 0.446146 0)
(0.892605 0.445374 0)
(0.891636 0.444209 0)
(0.890367 0.442498 0)
(0.888784 0.440079 0)
(0.886946 0.43677 0)
(0.885006 0.432418 0)
(0.883262 0.426935 0)
(0.882198 0.420352 0)
(0.882424 0.412834 0)
(0.8944 0.4472 0)
(0.8944 0.4472 0)
(0.8944 0.4472 0)
(0.8944 0.4472 0)
(0.8944 0.4472 0)
(0.8944 0.4472 0)
(0.8944 0.4472 0)
(0.8944 0.4472 0)
(0.8944 0.4472 0)
(0.8944 0.4472 0)
(0.8944 0.4472 0)
(0.8944 0.4472 0)
(0.8944 0.4472 0)
(0.8944 0.4472 0)
(0.8944 0.4472 0)
(0.8944 0.4472 0)
(0.8944 0.4472 0)
(0.8944 0.4472 0)
(0.8944 0.4472 0)
(0.8944 0.4472 0)
(0.8944 0.4472 0)
(0.8944 0.4472 0)
(0.8944 0.4472 0)
(0.8944 0.4472 0)
(0.8944 0.4472 0)
(0.8944 0.4472 0)
(0.8944 0.4472 0)
(0.8944 0.4472 0)
(0.8944 0.4472 0)
(0.8944 0.4472 0)
(0.8944 0.4472 0)
(0.8944 0.4472 0)
(0.8944 0.4472 0)
(0.8944 0.4472 0)
(0.8944 0.4472 0)
(0.8944 0.4472 0)
(0.8944 0.4472 0)
(0.894401 0.4472 0)
(0.8944 0.4472 0)
(0.8944 0.447199 0)
(0.8944 0.447201 0)
(0.894401 0.447199 0)
(0.8944 0.447201 0)
(0.894401 0.4472 0)
(0.8944 0.4472 0)
(0.894402 0.447201 0)
(0.894402 0.4472 0)
(0.894404 0.447201 0)
(0.894407 0.447202 0)
(0.894408 0.447204 0)
(0.894414 0.447205 0)
(0.894419 0.447208 0)
(0.894425 0.44721 0)
(0.894438 0.447215 0)
(0.894446 0.447222 0)
(0.894461 0.447227 0)
(0.894477 0.447238 0)
(0.894491 0.447247 0)
(0.894504 0.447254 0)
(0.894506 0.447257 0)
(0.894494 0.447251 0)
(0.89445 0.447219 0)
(0.894363 0.447149 0)
(0.894207 0.44702 0)
(0.893951 0.446779 0)
(0.89356 0.446383 0)
(0.892991 0.445753 0)
(0.892198 0.444787 0)
(0.891153 0.443365 0)
(0.889834 0.441334 0)
(0.888266 0.438535 0)
(0.886548 0.434819 0)
(0.884892 0.430064 0)
(0.883648 0.424256 0)
(0.883301 0.417512 0)
(0.8944 0.4472 0)
(0.8944 0.4472 0)
(0.8944 0.4472 0)
(0.8944 0.4472 0)
(0.8944 0.4472 0)
(0.8944 0.4472 0)
(0.8944 0.4472 0)
(0.8944 0.4472 0)
(0.8944 0.4472 0)
(0.8944 0.4472 0)
(0.8944 0.4472 0)
(0.8944 0.4472 0)
(0.8944 0.4472 0)
(0.8944 0.4472 0)
(0.8944 0.4472 0)
(0.8944 0.4472 0)
(0.8944 0.4472 0)
(0.8944 0.4472 0)
(0.8944 0.4472 0)
(0.8944 0.4472 0)
(0.8944 0.4472 0)
(0.8944 0.4472 0)
(0.8944 0.4472 0)
(0.8944 0.4472 0)
(0.8944 0.4472 0)
(0.8944 0.4472 0)
(0.8944 0.4472 0)
(0.8944 0.4472 0)
(0.8944 0.4472 0)
(0.8944 0.4472 0)
(0.894401 0.4472 0)
(0.8944 0.4472 0)
(0.8944 0.4472 0)
(0.8944 0.4472 0)
(0.8944 0.4472 0)
(0.8944 0.4472 0)
(0.8944 0.4472 0)
(0.8944 0.4472 0)
(0.8944 0.4472 0)
(0.8944 0.4472 0)
(0.8944 0.4472 0)
(0.8944 0.4472 0)
(0.8944 0.4472 0)
(0.894401 0.4472 0)
(0.894399 0.4472 0)
(0.894402 0.447201 0)
(0.894402 0.4472 0)
(0.894404 0.447202 0)
(0.894405 0.447202 0)
(0.894409 0.447203 0)
(0.894409 0.447206 0)
(0.894419 0.447206 0)
(0.894422 0.447211 0)
(0.894432 0.447214 0)
(0.894443 0.447221 0)
(0.894453 0.447229 0)
(0.894471 0.447236 0)
(0.894483 0.447245 0)
(0.894495 0.447256 0)
(0.894499 0.447261 0)
(0.894496 0.447259 0)
(0.894461 0.447241 0)
(0.894398 0.44719 0)
(0.894276 0.447089 0)
(0.894078 0.446901 0)
(0.893763 0.446584 0)
(0.893306 0.446075 0)
(0.892671 0.445287 0)
(0.891817 0.444116 0)
(0.89073 0.442437 0)
(0.889419 0.440105 0)
(0.887941 0.43697 0)
(0.886437 0.432916 0)
(0.885153 0.427884 0)
(0.884461 0.421925 0)
(0.8944 0.4472 0)
(0.8944 0.4472 0)
(0.8944 0.4472 0)
(0.8944 0.4472 0)
(0.8944 0.4472 0)
(0.8944 0.4472 0)
(0.8944 0.4472 0)
(0.8944 0.4472 0)
(0.8944 0.4472 0)
(0.8944 0.4472 0)
(0.8944 0.4472 0)
(0.8944 0.4472 0)
(0.8944 0.4472 0)
(0.8944 0.4472 0)
(0.8944 0.4472 0)
(0.8944 0.4472 0)
(0.8944 0.4472 0)
(0.8944 0.4472 0)
(0.8944 0.4472 0)
(0.8944 0.4472 0)
(0.8944 0.4472 0)
(0.8944 0.4472 0)
(0.8944 0.4472 0)
(0.8944 0.4472 0)
(0.8944 0.4472 0)
(0.8944 0.4472 0)
(0.8944 0.4472 0)
(0.8944 0.4472 0)
(0.8944 0.4472 0)
(0.8944 0.4472 0)
(0.8944 0.4472 0)
(0.8944 0.4472 0)
(0.8944 0.4472 0)
(0.8944 0.4472 0)
(0.8944 0.4472 0)
(0.8944 0.4472 0)
(0.8944 0.4472 0)
(0.8944 0.4472 0)
(0.8944 0.447201 0)
(0.894401 0.4472 0)
(0.8944 0.4472 0)
(0.8944 0.4472 0)
(0.8944 0.447201 0)
(0.894401 0.447199 0)
(0.894401 0.447201 0)
(0.894401 0.4472 0)
(0.894403 0.447201 0)
(0.894403 0.447201 0)
(0.894404 0.447202 0)
(0.894407 0.447203 0)
(0.894409 0.447204 0)
(0.894416 0.447207 0)
(0.89442 0.44721 0)
(0.894428 0.447214 0)
(0.894438 0.447218 0)
(0.894449 0.447227 0)
(0.894461 0.447235 0)
(0.894475 0.447245 0)
(0.894487 0.447255 0)
(0.894492 0.447264 0)
(0.894489 0.447265 0)
(0.894472 0.447255 0)
(0.894419 0.44722 0)
(0.894327 0.447145 0)
(0.894172 0.446999 0)
(0.893926 0.446749 0)
(0.893566 0.446344 0)
(0.893055 0.445711 0)
(0.892369 0.444761 0)
(0.891488 0.443389 0)
(0.890406 0.441467 0)
(0.889161 0.438865 0)
(0.887845 0.435464 0)
(0.886625 0.431182 0)
(0.885769 0.426014 0)
(0.8944 0.4472 0)
(0.8944 0.4472 0)
(0.8944 0.4472 0)
(0.8944 0.4472 0)
(0.8944 0.4472 0)
(0.8944 0.4472 0)
(0.8944 0.4472 0)
(0.8944 0.4472 0)
(0.8944 0.4472 0)
(0.8944 0.4472 0)
(0.8944 0.4472 0)
(0.8944 0.4472 0)
(0.8944 0.4472 0)
(0.8944 0.4472 0)
(0.8944 0.4472 0)
(0.8944 0.4472 0)
(0.8944 0.4472 0)
(0.8944 0.4472 0)
(0.8944 0.4472 0)
(0.8944 0.4472 0)
(0.8944 0.4472 0)
(0.8944 0.4472 0)
(0.8944 0.4472 0)
(0.8944 0.4472 0)
(0.8944 0.4472 0)
(0.8944 0.4472 0)
(0.8944 0.4472 0)
(0.8944 0.4472 0)
(0.8944 0.447201 0)
(0.8944 0.4472 0)
(0.8944 0.4472 0)
(0.8944 0.4472 0)
(0.8944 0.4472 0)
(0.8944 0.4472 0)
(0.8944 0.4472 0)
(0.8944 0.4472 0)
(0.8944 0.4472 0)
(0.8944 0.4472 0)
(0.8944 0.447199 0)
(0.8944 0.447201 0)
(0.8944 0.447199 0)
(0.8944 0.4472 0)
(0.8944 0.4472 0)
(0.894401 0.4472 0)
(0.8944 0.4472 0)
(0.894402 0.4472 0)
(0.894401 0.447201 0)
(0.894403 0.4472 0)
(0.894403 0.447202 0)
(0.894406 0.447202 0)
(0.89441 0.447205 0)
(0.894411 0.447206 0)
(0.89442 0.44721 0)
(0.894424 0.447213 0)
(0.894433 0.447218 0)
(0.894443 0.447224 0)
(0.894453 0.447234 0)
(0.894468 0.447242 0)
(0.894476 0.447253 0)
(0.894485 0.447261 0)
(0.894484 0.447268 0)
(0.894471 0.447265 0)
(0.894436 0.447239 0)
(0.894362 0.447186 0)
(0.894248 0.447078 0)
(0.894054 0.446883 0)
(0.893769 0.446566 0)
(0.893366 0.44606 0)
(0.892823 0.445302 0)
(0.892111 0.444197 0)
(0.891237 0.442633 0)
(0.890211 0.440505 0)
(0.889088 0.437693 0)
(0.887992 0.43411 0)
(0.887102 0.429718 0)
(0.8944 0.4472 0)
(0.8944 0.4472 0)
(0.8944 0.4472 0)
(0.8944 0.4472 0)
(0.8944 0.4472 0)
(0.8944 0.4472 0)
(0.8944 0.4472 0)
(0.8944 0.4472 0)
(0.8944 0.4472 0)
(0.8944 0.4472 0)
(0.8944 0.4472 0)
(0.8944 0.4472 0)
(0.8944 0.4472 0)
(0.8944 0.4472 0)
(0.8944 0.4472 0)
(0.8944 0.4472 0)
(0.8944 0.4472 0)
(0.8944 0.4472 0)
(0.8944 0.4472 0)
(0.8944 0.4472 0)
(0.8944 0.4472 0)
(0.8944 0.4472 0)
(0.8944 0.4472 0)
(0.8944 0.4472 0)
(0.8944 0.4472 0)
(0.8944 0.4472 0)
(0.8944 0.4472 0)
(0.8944 0.4472 0)
(0.8944 0.4472 0)
(0.8944 0.4472 0)
(0.8944 0.4472 0)
(0.8944 0.4472 0)
(0.8944 0.4472 0)
(0.8944 0.4472 0)
(0.8944 0.4472 0)
(0.8944 0.4472 0)
(0.8944 0.4472 0)
(0.8944 0.4472 0)
(0.8944 0.4472 0)
(0.8944 0.4472 0)
(0.8944 0.4472 0)
(0.8944 0.4472 0)
(0.8944 0.4472 0)
(0.8944 0.4472 0)
(0.8944 0.447201 0)
(0.894402 0.447199 0)
(0.894401 0.447201 0)
(0.894402 0.447202 0)
(0.894405 0.4472 0)
(0.894403 0.447204 0)
(0.894409 0.447202 0)
(0.89441 0.447206 0)
(0.894414 0.447208 0)
(0.894422 0.447211 0)
(0.894427 0.447217 0)
(0.894437 0.447223 0)
(0.894448 0.447231 0)
(0.894456 0.447239 0)
(0.894469 0.447251 0)
(0.894475 0.447259 0)
(0.894479 0.447268 0)
(0.894468 0.44727 0)
(0.894443 0.447253 0)
(0.894392 0.447217 0)
(0.894296 0.447138 0)
(0.894155 0.446987 0)
(0.89393 0.446744 0)
(0.893616 0.446349 0)
(0.893185 0.445748 0)
(0.892622 0.444866 0)
(0.89192 0.443616 0)
(0.891089 0.441894 0)
(0.890159 0.439607 0)
(0.889209 0.436659 0)
(0.888368 0.432993 0)
(0.8944 0.4472 0)
(0.8944 0.4472 0)
(0.8944 0.4472 0)
(0.8944 0.4472 0)
(0.8944 0.4472 0)
(0.8944 0.4472 0)
(0.8944 0.4472 0)
(0.8944 0.4472 0)
(0.8944 0.4472 0)
(0.8944 0.4472 0)
(0.8944 0.4472 0)
(0.8944 0.4472 0)
(0.8944 0.4472 0)
(0.8944 0.4472 0)
(0.8944 0.4472 0)
(0.8944 0.4472 0)
(0.8944 0.4472 0)
(0.8944 0.4472 0)
(0.8944 0.4472 0)
(0.8944 0.4472 0)
(0.8944 0.4472 0)
(0.8944 0.4472 0)
(0.8944 0.4472 0)
(0.8944 0.4472 0)
(0.8944 0.4472 0)
(0.8944 0.4472 0)
(0.8944 0.4472 0)
(0.8944 0.4472 0)
(0.8944 0.4472 0)
(0.8944 0.4472 0)
(0.8944 0.4472 0)
(0.8944 0.4472 0)
(0.8944 0.4472 0)
(0.8944 0.4472 0)
(0.8944 0.4472 0)
(0.8944 0.4472 0)
(0.8944 0.4472 0)
(0.8944 0.4472 0)
(0.8944 0.4472 0)
(0.8944 0.4472 0)
(0.8944 0.4472 0)
(0.8944 0.4472 0)
(0.894401 0.447199 0)
(0.8944 0.447201 0)
(0.894401 0.4472 0)
(0.8944 0.4472 0)
(0.894402 0.447201 0)
(0.894401 0.4472 0)
(0.894403 0.447203 0)
(0.894404 0.447201 0)
(0.894406 0.447204 0)
(0.89441 0.447205 0)
(0.894412 0.447208 0)
(0.894419 0.44721 0)
(0.894424 0.447215 0)
(0.89443 0.447221 0)
(0.894441 0.447228 0)
(0.89445 0.447236 0)
(0.894458 0.447248 0)
(0.894467 0.447258 0)
(0.894469 0.447264 0)
(0.894464 0.44727 0)
(0.894446 0.447265 0)
(0.894408 0.447236 0)
(0.894336 0.44718 0)
(0.894224 0.447071 0)
(0.894056 0.446881 0)
(0.893811 0.446579 0)
(0.893473 0.44611 0)
(0.893033 0.445417 0)
(0.892477 0.444425 0)
(0.891811 0.443056 0)
(0.891056 0.441218 0)
(0.890261 0.438827 0)
(0.889514 0.435827 0)
(0.8944 0.4472 0)
(0.8944 0.4472 0)
(0.8944 0.4472 0)
(0.8944 0.4472 0)
(0.8944 0.4472 0)
(0.8944 0.4472 0)
(0.8944 0.4472 0)
(0.8944 0.4472 0)
(0.8944 0.4472 0)
(0.8944 0.4472 0)
(0.8944 0.4472 0)
(0.8944 0.4472 0)
(0.8944 0.4472 0)
(0.8944 0.4472 0)
(0.8944 0.4472 0)
(0.8944 0.4472 0)
(0.8944 0.4472 0)
(0.8944 0.4472 0)
(0.8944 0.4472 0)
(0.8944 0.4472 0)
(0.8944 0.4472 0)
(0.8944 0.4472 0)
(0.8944 0.4472 0)
(0.8944 0.4472 0)
(0.8944 0.4472 0)
(0.8944 0.4472 0)
(0.8944 0.4472 0)
(0.8944 0.4472 0)
(0.8944 0.4472 0)
(0.8944 0.4472 0)
(0.8944 0.4472 0)
(0.8944 0.4472 0)
(0.894399 0.4472 0)
(0.8944 0.4472 0)
(0.8944 0.4472 0)
(0.8944 0.4472 0)
(0.8944 0.4472 0)
(0.8944 0.4472 0)
(0.8944 0.4472 0)
(0.8944 0.4472 0)
(0.8944 0.4472 0)
(0.8944 0.4472 0)
(0.894399 0.4472 0)
(0.894401 0.4472 0)
(0.8944 0.447201 0)
(0.894401 0.4472 0)
(0.8944 0.447201 0)
(0.894403 0.4472 0)
(0.894402 0.447202 0)
(0.894403 0.447202 0)
(0.894407 0.447202 0)
(0.894405 0.447205 0)
(0.894413 0.447206 0)
(0.894414 0.447209 0)
(0.89442 0.447215 0)
(0.894428 0.447219 0)
(0.894433 0.447224 0)
(0.894444 0.447235 0)
(0.894449 0.447242 0)
(0.894459 0.447252 0)
(0.894462 0.447263 0)
(0.894456 0.447266 0)
(0.894446 0.447268 0)
(0.894418 0.447251 0)
(0.894363 0.447209 0)
(0.894277 0.447131 0)
(0.894152 0.446992 0)
(0.893957 0.446756 0)
(0.893701 0.446396 0)
(0.893357 0.445859 0)
(0.892921 0.445085 0)
(0.892396 0.444005 0)
(0.891793 0.442547 0)
(0.891143 0.440644 0)
(0.890505 0.438225 0)
(0.8944 0.4472 0)
(0.8944 0.4472 0)
(0.8944 0.4472 0)
(0.8944 0.4472 0)
(0.8944 0.4472 0)
(0.8944 0.4472 0)
(0.8944 0.4472 0)
(0.8944 0.4472 0)
(0.8944 0.4472 0)
(0.8944 0.4472 0)
(0.8944 0.4472 0)
(0.8944 0.4472 0)
(0.8944 0.4472 0)
(0.8944 0.4472 0)
(0.8944 0.4472 0)
(0.8944 0.4472 0)
(0.8944 0.4472 0)
(0.8944 0.4472 0)
(0.8944 0.4472 0)
(0.8944 0.4472 0)
(0.8944 0.4472 0)
(0.8944 0.4472 0)
(0.8944 0.4472 0)
(0.8944 0.4472 0)
(0.8944 0.4472 0)
(0.8944 0.4472 0)
(0.8944 0.4472 0)
(0.8944 0.4472 0)
(0.8944 0.4472 0)
(0.8944 0.4472 0)
(0.8944 0.4472 0)
(0.8944 0.4472 0)
(0.8944 0.4472 0)
(0.8944 0.4472 0)
(0.894401 0.4472 0)
(0.8944 0.4472 0)
(0.8944 0.447199 0)
(0.8944 0.4472 0)
(0.8944 0.4472 0)
(0.8944 0.4472 0)
(0.8944 0.4472 0)
(0.8944 0.4472 0)
(0.8944 0.4472 0)
(0.8944 0.4472 0)
(0.8944 0.4472 0)
(0.894401 0.4472 0)
(0.8944 0.4472 0)
(0.894403 0.447201 0)
(0.8944 0.4472 0)
(0.894405 0.447202 0)
(0.894402 0.447203 0)
(0.894408 0.447203 0)
(0.894408 0.447207 0)
(0.894413 0.447208 0)
(0.894417 0.447211 0)
(0.894422 0.447217 0)
(0.89443 0.447224 0)
(0.894435 0.447228 0)
(0.894444 0.447239 0)
(0.894448 0.447247 0)
(0.894454 0.447256 0)
(0.894451 0.447265 0)
(0.894444 0.447265 0)
(0.89442 0.447258 0)
(0.894383 0.447232 0)
(0.894316 0.447172 0)
(0.894217 0.447068 0)
(0.894074 0.446896 0)
(0.893873 0.446622 0)
(0.89361 0.446207 0)
(0.893273 0.44561 0)
(0.892863 0.444771 0)
(0.892386 0.443631 0)
(0.891867 0.44213 0)
(0.891343 0.440213 0)
(0.8944 0.4472 0)
(0.8944 0.4472 0)
(0.8944 0.4472 0)
(0.8944 0.4472 0)
(0.8944 0.4472 0)
(0.8944 0.4472 0)
(0.8944 0.4472 0)
(0.8944 0.4472 0)
(0.8944 0.4472 0)
(0.8944 0.4472 0)
(0.8944 0.4472 0)
(0.8944 0.4472 0)
(0.8944 0.4472 0)
(0.8944 0.4472 0)
(0.8944 0.4472 0)
(0.8944 0.4472 0)
(0.8944 0.4472 0)
(0.8944 0.4472 0)
(0.8944 0.4472 0)
(0.8944 0.4472 0)
(0.8944 0.4472 0)
(0.8944 0.4472 0)
(0.8944 0.4472 0)
(0.8944 0.4472 0)
(0.8944 0.4472 0)
(0.8944 0.4472 0)
(0.8944 0.4472 0)
(0.8944 0.4472 0)
(0.8944 0.4472 0)
(0.8944 0.4472 0)
(0.8944 0.4472 0)
(0.8944 0.4472 0)
(0.8944 0.4472 0)
(0.8944 0.4472 0)
(0.8944 0.4472 0)
(0.8944 0.4472 0)
(0.8944 0.4472 0)
(0.8944 0.447199 0)
(0.8944 0.4472 0)
(0.8944 0.4472 0)
(0.8944 0.4472 0)
(0.8944 0.447201 0)
(0.894401 0.4472 0)
(0.8944 0.4472 0)
(0.8944 0.4472 0)
(0.894401 0.4472 0)
(0.8944 0.447201 0)
(0.894401 0.4472 0)
(0.894402 0.447202 0)
(0.894402 0.4472 0)
(0.894404 0.447203 0)
(0.894404 0.447204 0)
(0.894408 0.447204 0)
(0.894411 0.447208 0)
(0.894412 0.44721 0)
(0.89442 0.447215 0)
(0.894426 0.447219 0)
(0.894428 0.447228 0)
(0.894437 0.447231 0)
(0.894442 0.447245 0)
(0.894442 0.447251 0)
(0.894446 0.447258 0)
(0.894439 0.447264 0)
(0.894421 0.447258 0)
(0.894393 0.447242 0)
(0.894344 0.447203 0)
(0.894267 0.447126 0)
(0.89416 0.446997 0)
(0.894006 0.446792 0)
(0.893802 0.446479 0)