/*--------------------------------*- C++ -*----------------------------------*\
  =========                 |
  \\      /  F ield         | OpenFOAM: The Open Source CFD Toolbox
   \\    /   O peration     | Website:  https://openfoam.org
    \\  /    A nd           | Version:  6
     \\/     M anipulation  |
\*---------------------------------------------------------------------------*/
FoamFile
{
    version     2.0;
    format      ascii;
    class       volScalarField;
    location    "4.55";
    object      p;
}
// * * * * * * * * * * * * * * * * * * * * * * * * * * * * * * * * * * * * * //

dimensions      [1 -1 -2 0 0 0 0];

internalField   nonuniform List<scalar> 
10000
(
0.999995
0.999997
0.999998
0.999999
0.999999
1
1
1
1
1
1
1
0.999999
1
0.999999
1
1
1
1
1
1
1
1
1
1
1
1
1
1
1
1
1
1
1
1
1
1
1
1
1
1.00001
1.00001
1.00001
1.00002
1.00003
1.00004
1.00005
1.00006
1.00006
1.00006
1.00007
1.00009
1.00013
1.00021
1.00034
1.00054
1.00081
1.00116
1.00159
1.00208
1.00263
1.00322
1.00382
1.00442
1.00498
1.00548
1.0059
1.00621
1.00642
1.00651
1.00648
1.00633
1.00608
1.00573
1.0053
1.00482
1.00431
1.00377
1.00324
1.00273
1.00226
1.00182
1.00143
1.00109
1.00081
1.00057
1.00039
1.00024
1.00014
1.00007
1.00002
0.999991
0.999977
0.999972
0.999973
0.999976
0.999981
0.999985
0.999989
0.999993
0.999993
0.999996
0.999997
0.999998
0.999999
0.999999
1
1
1
1
0.999999
1
0.999999
1
0.999999
1
1
1
0.999999
1
1
0.999999
1
1
1
1
1
0.999999
1
1
1
1
1
1
1
0.999999
1
1
1
1
1.00001
1.00001
1.00002
1.00003
1.00004
1.00006
1.00007
1.00008
1.00008
1.00009
1.00011
1.00016
1.00026
1.00044
1.00071
1.00109
1.0016
1.00224
1.00299
1.00384
1.00476
1.00572
1.00667
1.00758
1.00842
1.00913
1.0097
1.01009
1.01029
1.0103
1.01012
1.00976
1.00924
1.00859
1.00783
1.00702
1.00617
1.00532
1.0045
1.00374
1.00304
1.00242
1.00188
1.00142
1.00104
1.00074
1.0005
1.00032
1.00018
1.00009
1.00003
0.999996
0.999977
0.999969
0.999969
0.999972
0.999977
0.999982
0.999986
0.99999
0.999991
0.999994
0.999996
0.999998
0.999998
0.999999
0.999999
1
0.999999
1
0.999999
1
0.999999
1
1
1
0.999999
1
0.999998
0.999999
1
0.999998
0.999999
1
0.999999
0.999999
1
1
1
1
1
1
1
1
1
0.999999
1
1
1
1
1.00001
1.00001
1.00002
1.00004
1.00005
1.00007
1.00009
1.0001
1.00012
1.00014
1.00019
1.0003
1.0005
1.00084
1.00134
1.00204
1.00293
1.00401
1.00526
1.00662
1.00806
1.00952
1.01094
1.01225
1.01341
1.01437
1.01508
1.01552
1.01568
1.01554
1.01513
1.01445
1.01355
1.01246
1.01124
1.00993
1.00861
1.00733
1.00612
1.00501
1.00402
1.00317
1.00244
1.00183
1.00133
1.00094
1.00063
1.0004
1.00024
1.00012
1.00005
1
0.999978
0.999967
0.999965
0.999968
0.999972
0.999978
0.999983
0.999988
0.999989
0.999992
0.999994
0.999996
0.999998
0.999999
0.999999
0.999999
1
0.999999
1
0.999999
1
0.999999
1
1
0.999999
1
1
0.999996
1
1
0.999997
1
1
0.999998
1
1
1
0.999999
1
1
1
0.999999
1
1
1
1
1
1
1.00001
1.00002
1.00003
1.00005
1.00007
1.00009
1.00012
1.00014
1.00016
1.0002
1.00031
1.00052
1.0009
1.00151
1.00239
1.00357
1.00503
1.00675
1.00868
1.01073
1.01283
1.01489
1.01685
1.01861
1.0201
1.02128
1.0221
1.02255
1.02262
1.02231
1.02161
1.02056
1.01917
1.01751
1.01566
1.01372
1.01177
1.0099
1.00816
1.00659
1.00523
1.00407
1.0031
1.00231
1.00167
1.00117
1.00079
1.00051
1.0003
1.00016
1.00007
1.00001
0.99998
0.999965
0.999961
0.999963
0.999968
0.999973
0.999979
0.999984
0.999986
0.99999
0.999992
0.999995
0.999996
0.999998
0.999998
0.999999
1
0.999998
1
0.999997
1
1
0.999999
1
1
0.999998
0.999999
1
0.999998
1
1
0.999999
1
1
0.999998
1
1
0.999999
0.999998
1
1
0.999998
0.999999
1
1
1
1
1
1.00001
1.00002
1.00003
1.00006
1.00009
1.00012
1.00015
1.00018
1.00021
1.0003
1.00049
1.00087
1.00154
1.00258
1.00403
1.0059
1.00816
1.01072
1.01348
1.01633
1.01915
1.02183
1.02427
1.02639
1.02811
1.02941
1.03027
1.0307
1.03069
1.03025
1.02936
1.02799
1.02614
1.02385
1.02125
1.0185
1.01575
1.01312
1.01069
1.00855
1.0067
1.00515
1.00389
1.00287
1.00207
1.00145
1.00098
1.00063
1.00038
1.0002
1.00009
1.00002
0.999982
0.999963
0.999956
0.999957
0.999962
0.999968
0.999975
0.999981
0.999982
0.999987
0.99999
0.999993
0.999995
0.999997
0.999998
0.999998
1
0.999996
1
0.999996
1
0.999999
1
0.999997
0.999999
1.00001
0.999987
1
1.00001
0.999989
1
1.00001
0.999994
1
1
0.999998
1
1
0.999997
1
1
1
0.999997
1
1
1
1
1
1.00001
1.00002
1.00004
1.00007
1.00011
1.00015
1.00019
1.00022
1.00028
1.00043
1.00077
1.00144
1.00255
1.00421
1.00647
1.00927
1.01251
1.01604
1.01969
1.02329
1.02668
1.02976
1.03241
1.03457
1.03624
1.03742
1.03819
1.03859
1.03863
1.03832
1.03755
1.0362
1.03417
1.03144
1.02812
1.02443
1.02067
1.01709
1.01382
1.01094
1.00849
1.00645
1.00482
1.00353
1.00253
1.00176
1.00119
1.00077
1.00047
1.00026
1.00012
1.00003
0.999985
0.99996
0.999951
0.999951
0.999955
0.999962
0.999969
0.999976
0.999977
0.999983
0.999987
0.99999
0.999994
0.999995
0.999997
0.999997
1
0.999998
1
1
0.999997
1
0.999999
0.999999
0.999999
1
0.999999
0.999992
1.00001
0.999999
0.99999
1.00001
1
0.99999
1
1
0.999996
1
1
1
1
1
0.999998
0.999999
1
1
1
1
1.00001
1.00002
1.00005
1.00009
1.00014
1.00018
1.00023
1.00027
1.00037
1.00063
1.00121
1.00229
1.00405
1.00659
1.00989
1.01381
1.01811
1.02253
1.02685
1.03083
1.03434
1.03724
1.03949
1.04111
1.04221
1.04294
1.04344
1.04385
1.04424
1.04452
1.04449
1.0439
1.04242
1.03985
1.03617
1.03162
1.0267
1.02192
1.0176
1.01384
1.01065
1.00803
1.00594
1.0043
1.00306
1.00213
1.00144
1.00093
1.00057
1.00033
1.00016
1.00005
0.999992
0.999959
0.999945
0.999943
0.999947
0.999955
0.999963
0.99997
0.999971
0.999978
0.999984
0.999986
0.999993
0.999992
0.999996
1
0.999991
1.00001
0.999987
1.00001
0.999993
0.999996
1.00002
0.999974
1.00002
0.999995
0.999987
1.00002
0.999991
0.999999
1
0.999993
1.00001
0.999998
0.999993
1.00001
1
0.999994
1
1
0.999999
0.999999
0.999999
1
1
1
1
1
1.00001
1.00003
1.00006
1.0001
1.00016
1.00022
1.00027
1.00034
1.0005
1.00093
1.00185
1.00354
1.0062
1.00988
1.0144
1.01944
1.0246
1.02952
1.03389
1.0375
1.04022
1.042
1.04293
1.04319
1.04309
1.04295
1.04304
1.04359
1.0447
1.04622
1.04783
1.04904
1.04923
1.0479
1.04478
1.03998
1.03406
1.02785
1.02215
1.0173
1.01325
1.00995
1.0073
1.00526
1.00371
1.00256
1.00173
1.00112
1.0007
1.00041
1.00021
1.00008
1
0.999962
0.999942
0.999936
0.999939
0.999946
0.999955
0.999963
0.999964
0.999971
0.999979
0.999982
0.99999
0.99999
0.999992
1
0.999989
1
1.00001
0.99998
1.00002
0.99999
0.999998
1.00001
0.999986
1.00002
0.999975
1
1.00002
0.999971
1.00001
1.00001
0.999987
1.00001
0.999999
0.999998
1.00001
0.999995
0.999997
1.00001
1
0.999996
1
1
1
1
1
1.00001
1.00001
1.00003
1.00007
1.00013
1.00019
1.00026
1.00032
1.00041
1.00067
1.00135
1.00279
1.00532
1.00915
1.01414
1.01987
1.02574
1.03116
1.03571
1.03911
1.04121
1.04195
1.04146
1.04004
1.03816
1.03633
1.03504
1.03467
1.03548
1.03762
1.04101
1.04518
1.04928
1.05239
1.05369
1.0525
1.04867
1.04253
1.0351
1.02776
1.02143
1.01629
1.0122
1.00893
1.00642
1.00451
1.00311
1.00209
1.00136
1.00085
1.0005
1.00027
1.00012
1.00002
0.999969
0.999941
0.999931
0.999931
0.999937
0.999946
0.999955
0.999956
0.999965
0.999972
0.999979
0.999984
0.999985
0.999998
0.999981
1.00002
0.99997
1.00002
1
0.99995
1.00009
0.99992
1.00002
1.00004
0.999944
1.00004
0.999983
1.00001
1.00001
0.999973
1.00003
0.999997
0.999984
1.00001
1
0.999997
1
0.999997
1
1
0.999995
0.999999
1
1
0.999998
1
1.00001
1.00001
1.00004
1.00008
1.00015
1.00023
1.0003
1.00037
1.0005
1.0009
1.00195
1.0041
1.00776
1.01298
1.0193
1.02588
1.03183
1.03647
1.03945
1.04061
1.03992
1.03752
1.03379
1.02935
1.02496
1.02129
1.01885
1.01804
1.01907
1.02225
1.0277
1.03494
1.04287
1.05013
1.0553
1.05744
1.05603
1.05098
1.04334
1.0346
1.0265
1.01995
1.01481
1.01087
1.0078
1.00548
1.00378
1.00255
1.00167
1.00105
1.00063
1.00035
1.00016
1.00005
0.999981
0.999944
0.999928
0.999925
0.999928
0.999937
0.999946
0.999946
0.999958
0.999962
0.999978
0.999974
0.999987
0.999988
0.999994
0.999974
1.00004
0.999929
1.00006
0.999983
0.999958
1.00009
0.999881
1.00009
0.999982
0.999941
1.00008
0.999953
1.00001
1.00001
0.999986
1.00002
0.999982
0.999998
1.00002
0.999988
0.999996
1.00001
1
0.999999
0.999998
0.999999
1
1
0.999998
1
1.00001
1.00002
1.00004
1.00009
1.00017
1.00026
1.00034
1.00042
1.00061
1.00123
1.00279
1.0059
1.01094
1.01763
1.02496
1.03159
1.03645
1.03902
1.03916
1.03695
1.03253
1.02631
1.01904
1.01169
1.00515
1.00005
0.996759
0.995496
0.996437
0.999999
1.00678
1.01689
1.02915
1.04143
1.05155
1.05814
1.06034
1.05789
1.0514
1.04216
1.03256
1.02436
1.01792
1.01313
1.00942
1.00665
1.0046
1.00311
1.00206
1.00132
1.0008
1.00046
1.00023
1.00009
1
0.999951
0.999928
0.999919
0.999921
0.999928
0.999936
0.999936
0.999948
0.999954
0.999971
0.999963
0.999994
0.999962
1.00002
0.999966
0.999991
1.00008
0.999813
1.00023
0.999848
0.999985
1.00014
0.999826
1.00014
0.99992
1.00001
1.00006
0.999916
1.00005
1
0.999981
1.00002
0.999985
1.00001
1
0.999986
1.00001
1.00001
0.999992
1
1
1
1
1
1
1.00001
1.00002
1.00005
1.00011
1.0002
1.0003
1.00039
1.00047
1.00076
1.00168
1.00395
1.00829
1.01491
1.02288
1.03045
1.03591
1.03835
1.03766
1.03409
1.02793
1.01953
1.00967
0.99953
0.990301
0.982715
0.977073
0.973411
0.971719
0.972014
0.97464
0.980932
0.992265
1.00811
1.02584
1.04191
1.05384
1.06059
1.06197
1.05778
1.04952
1.03921
1.0294
1.02159
1.01575
1.01132
1.00807
1.00557
1.00381
1.00254
1.00165
1.00103
1.00061
1.00033
1.00015
1.00003
0.999967
0.999932
0.999917
0.999915
0.999918
0.999927
0.999927
0.999934
0.999953
0.999946
0.999985
0.999939
1.00003
0.999891
1.00013
0.99984
1.00009
1.00003
0.999794
1.00035
0.99962
1.00023
1.00002
0.999812
1.0002
0.999873
1.00006
0.999991
0.999958
1.00007
0.99995
1.00001
1.00002
0.999984
1.00001
0.999995
0.999997
1.00001
0.999992
0.999994
1.00001
0.999999
0.999996
1
1
1
1.00002
1.00005
1.00012
1.00023
1.00034
1.00042
1.00053
1.00095
1.00229
1.00549
1.01134
1.01953
1.02821
1.03484
1.03775
1.03667
1.03212
1.02467
1.01473
1.00293
0.99055
0.97917
0.969851
0.962839
0.957854
0.954579
0.952765
0.952144
0.952671
0.955954
0.964919
0.981278
1.00326
1.02595
1.04435
1.0563
1.06217
1.06144
1.05555
1.04572
1.03488
1.02571
1.01866
1.0135
1.00972
1.00674
1.00469
1.00314
1.00208
1.00133
1.00082
1.00047
1.00024
1.00009
0.999997
0.999945
0.99992
0.999911
0.99991
0.999918
0.999919
0.999921
0.999946
0.999937
0.999968
0.999954
0.999967
1.00004
0.999829
1.00027
0.999595
1.0004
0.999759
0.999945
1.00031
0.99954
1.00045
0.999707
1.00003
1.00016
0.999805
1.00012
0.999955
1.00001
1.00002
0.999953
1.00005
0.999987
0.999984
1.00002
0.99999
1
1
0.999992
1
1
0.999994
1
1.00001
1
1.00002
1.00006
1.00014
1.00025
1.00037
1.00046
1.0006
1.0012
1.00311
1.00751
1.01506
1.02454
1.03289
1.03719
1.03645
1.03143
1.02318
1.01236
0.999438
0.985535
0.972555
0.962232
0.955059
0.950481
0.947507
0.945541
0.944288
0.943418
0.942074
0.94087
0.94359
0.955062
0.976436
1.00374
1.02929
1.04773
1.05815
1.06173
1.05884
1.05104
1.04043
1.03025
1.02177
1.01599
1.01136
1.00819
1.00567
1.00389
1.00261
1.00172
1.00109
1.00066
1.00036
1.00017
1.00005
0.999974
0.999934
0.999913
0.999907
0.999909
0.999907
0.999921
0.999917
0.999968
0.999873
1.00008
0.999796
1.00017
0.999792
1.00005
1.00017
0.999495
1.00073
0.999242
1.00049
0.999925
0.999731
1.00042
0.999577
1.00031
0.999891
0.999921
1.00015
0.999896
1.00004
0.999984
0.999997
1.00003
0.999958
1.00002
1.00001
0.999984
1.00001
1
0.999996
1.00001
0.999996
1
1.00001
1.00001
1.00002
1.00007
1.00016
1.00028
1.0004
1.00049
1.00068
1.00154
1.0042
1.01007
1.01935
1.02943
1.03614
1.03691
1.03209
1.02347
1.01227
0.998982
0.984303
0.970129
0.95904
0.952385
0.949579
0.948936
0.94886
0.948526
0.948083
0.947784
0.94639
0.942598
0.938702
0.940798
0.95414
0.979317
1.00955
1.03509
1.05066
1.05881
1.05881
1.05402
1.04504
1.03471
1.02532
1.01862
1.01311
1.00981
1.0067
1.00477
1.00323
1.00218
1.00142
1.0009
1.00054
1.00029
1.00013
1.00003
0.999962
0.999927
0.999911
0.999908
0.999901
0.999918
0.99992
0.9999
0.999994
0.999842
1.00018
0.999544
1.00055
0.999379
1.00048
0.999706
0.999931
1.00048
0.999152
1.00097
0.999225
1.00033
1.00008
0.999716
1.00032
0.999739
1.00014
0.999996
0.999921
1.00008
0.999949
1.00003
0.999987
0.999982
1.00004
0.99998
0.999993
1.00002
0.999991
1
1.00001
0.999998
0.999999
1.00001
1.00002
1.00008
1.00018
1.00031
1.00043
1.00051
1.00079
1.002
1.00562
1.0132
1.02396
1.0336
1.03734
1.03393
1.02539
1.01407
1.00089
0.986154
0.97123
0.959094
0.952671
0.952037
0.954895
0.958335
0.960408
0.960298
0.959043
0.95826
0.958151
0.95601
0.950809
0.946025
0.948198
0.96294
0.989553
1.01908
1.0411
1.05309
1.05701
1.0544
1.04767
1.03796
1.02939
1.02083
1.0157
1.01102
1.00809
1.00565
1.00398
1.00269
1.00183
1.00119
1.00076
1.00045
1.00024
1.0001
1.00001
0.999956
0.999924
0.999913
0.999915
0.999911
0.999916
0.999872
1.00005
0.999789
1.00005
0.999912
0.99991
1.00031
0.999216
1.00103
0.998961
1.00077
0.9996
0.999927
1.00052
0.999177
1.00082
0.999473
1.00014
1.00011
0.999804
1.00018
0.999875
1.00005
1.00001
0.999963
1.00004
0.999961
1.00003
1.00001
0.999968
1.00002
1
0.999984
1.00001
1.00001
0.999994
1.00001
1.00003
1.00008
1.00019
1.00033
1.00045
1.00054
1.00094
1.00261
1.00744
1.01686
1.02853
1.03642
1.03623
1.02877
1.01743
1.00445
0.990178
0.975111
0.961784
0.954375
0.955113
0.961625
0.969412
0.974964
0.976453
0.973721
0.968553
0.964141
0.962947
0.963533
0.963512
0.961656
0.960112
0.963602
0.978594
1.00426
1.02993
1.0458
1.05433
1.05309
1.04868
1.04019
1.03228
1.02336
1.01823
1.0123
1.00972
1.00658
1.00482
1.0033
1.00232
1.00153
1.00102
1.00064
1.00038
1.0002
1.00008
1
0.999956
0.999922
0.99994
0.999913
0.999863
1.00005
0.999701
1.00027
0.999361
1.00076
0.999215
1.00038
0.999795
0.999973
1.00042
0.998954
1.00137
0.998685
1.00097
0.999464
1.00003
1.00039
0.999411
1.0005
0.999734
1.00004
1.00008
0.999894
1.00009
0.999946
1.00002
1.00001
0.999977
1.00003
0.999973
0.999996
1.00003
0.999984
0.999991
1.00001
0.999995
1.00001
1.00004
1.00009
1.0002
1.00035
1.00046
1.00058
1.00114
1.0034
1.00969
1.0209
1.03256
1.0375
1.03305
1.02228
1.00923
0.995471
0.980904
0.96683
0.957332
0.957294
0.966465
0.978905
0.988697
0.993256
0.991785
0.984997
0.974559
0.964306
0.957317
0.955032
0.957484
0.9641
0.971476
0.976252
0.982995
0.997449
1.01979
1.03864
1.04923
1.0522
1.04842
1.04256
1.03299
1.02707
1.01893
1.01507
1.01052
1.00801
1.00557
1.00413
1.0028
1.00198
1.00134
1.00088
1.00056
1.00033
1.00018
1.00006
1
0.999944
0.999958
0.999891
0.999987
0.999867
0.999931
0.999827
1.00018
0.999655
1.00029
0.999259
1.00106
0.998932
1.00074
0.999337
1.00043
1.00015
0.999137
1.00117
0.998897
1.00085
0.999517
1.00003
1.00028
0.999672
1.00022
0.999899
1.00001
1.00004
0.999943
1.00005
0.999966
1.00001
1.00002
0.99997
1.00002
1.00001
0.999983
1.00001
0.999997
1
1.00003
1.0001
1.00022
1.00037
1.00048
1.00064
1.00141
1.00442
1.01241
1.02508
1.03559
1.03674
1.02835
1.01531
1.0015
0.987656
0.97365
0.962177
0.958947
0.96799
0.984505
0.999103
1.0074
1.00941
1.0061
0.998053
0.985522
0.970958
0.956804
0.945071
0.938546
0.944064
0.960811
0.979664
0.992193
1.00114
1.01528
1.03246
1.0435
1.05102
1.04759
1.04398
1.03454
1.02912
1.02048
1.01738
1.01135
1.00942
1.00649
1.00492
1.0034
1.0025
1.0017
1.00118
1.00078
1.0005
1.00029
1.00016
1.00005
1
0.999957
0.999978
0.999999
0.999713
1.00024
0.999462
1.00064
0.999128
1.00033
1.00004
0.999894
1.00002
0.999344
1.00123
0.998602
1.00135
0.998624
1.00104
0.999719
0.999554
1.00072
0.999305
1.00057
0.999701
0.999958
1.00019
0.999873
1.00006
0.999943
1.00004
1.00002
0.999942
1.00004
0.999997
0.999975
1.00003
0.999991
0.999997
1.00002
1.00001
1.00001
1.0001
1.00024
1.00038
1.00048
1.00071
1.00175
1.00571
1.01555
1.02905
1.03732
1.03437
1.02282
1.00851
0.994682
0.981325
0.968912
0.961873
0.966915
0.98473
1.00456
1.01635
1.02079
1.0207
1.01836
1.01384
1.00545
0.992404
0.97615
0.956744
0.937022
0.92599
0.934266
0.960061
0.987008
1.00586
1.01605
1.02918
1.04067
1.04656
1.0483
1.04257
1.03845
1.02842
1.02477
1.01685
1.01421
1.00981
1.00792
1.00542
1.00427
1.00296
1.00216
1.00152
1.00104
1.00071
1.00044
1.00028
1.00013
1.00008
1.00004
1.0001
0.999735
1.00019
0.999652
1.00034
0.999377
1.00029
0.99968
1.00058
0.999068
1.0005
0.999569
1.00074
0.999307
0.999872
1.00079
0.998901
1.0013
0.998593
1.00107
0.999643
0.999752
1.00042
0.999635
1.00027
0.999888
0.999939
1.00008
0.999984
1.00002
0.999937
1.00003
1.00004
0.999944
1.00001
1.00002
0.999971
1.00001
1.00004
1.00003
1.00011
1.00025
1.00038
1.00049
1.00083
1.00218
1.00732
1.01899
1.03248
1.03765
1.03085
1.01703
1.00229
0.988983
0.976719
0.967064
0.966228
0.980186
1.00367
1.02037
1.02463
1.023
1.01981
1.01798
1.01855
1.01814
1.01364
1.00415
0.987519
0.964297
0.937983
0.924734
0.936088
0.965918
0.997142
1.01649
1.02814
1.03858
1.04261
1.04818
1.04184
1.04014
1.02993
1.02647
1.01811
1.01635
1.01067
1.00898
1.00634
1.00496
1.00352
1.00266
1.00189
1.00137
1.00094
1.00065
1.0004
1.00028
1.00011
1.00022
0.99994
1
1.00012
0.999698
1.00026
0.999348
1.00048
0.999958
0.999564
0.999874
1.00022
1.00032
0.999169
1.00083
0.998635
1.0019
0.998357
1.00079
0.999977
0.999431
1.00093
0.99902
1.00071
0.999766
0.999834
1.00024
0.999856
1.00009
0.999962
0.999977
1.00003
0.999979
1.00005
0.999981
0.999966
1.00003
1.00001
0.999955
1
1.00005
1.00014
1.00025
1.00037
1.00052
1.00098
1.00274
1.00929
1.02255
1.03507
1.03672
1.02664
1.01141
0.996845
0.984523
0.97399
0.968282
0.974762
0.99618
1.01923
1.02524
1.01723
1.00589
0.996386
0.99354
0.998755
1.00647
1.01242
1.01358
1.00808
0.993643
0.970508
0.945878
0.935376
0.949847
0.978945
1.00893
1.02476
1.03535
1.04314
1.04393
1.04522
1.03701
1.03468
1.02491
1.0229
1.01526
1.01357
1.00923
1.00786
1.00536
1.00434
1.00311
1.00234
1.00171
1.00121
1.00088
1.00057
1.00041
1.00019
1.00021
0.999967
1.00038
0.999597
1.00037
0.999376
1.00053
0.999742
0.99985
0.999611
1.00048
0.999806
1.0003
0.998742
1.00124
0.9995
0.999988
1.0005
0.998531
1.00196
0.99834
1.00104
0.999735
0.999541
1.00065
0.999568
1.00025
0.9999
0.999937
1.00011
0.999961
1.00003
0.999933
1.00001
1.00007
0.999962
0.999988
1.00006
0.999986
0.999978
1.00004
1.00013
1.00024
1.00036
1.00056
1.00116
1.00345
1.01159
1.02597
1.03671
1.03483
1.02215
1.0062
0.992272
0.981364
0.973158
0.972374
0.986051
1.011
1.02531
1.01354
0.989409
0.96665
0.952269
0.952786
0.964259
0.979588
0.993503
1.00199
1.00437
0.99966
0.988794
0.970842
0.955243
0.95315
0.968418
0.995522
1.01876
1.03198
1.04173
1.0413
1.04545
1.03663
1.03665
1.02652
1.02397
1.0166
1.01517
1.01039
1.00868
1.00633
1.00499
1.00369
1.00282
1.00207
1.00155
1.0011
1.00081
1.0005
1.00042
1.00018
1.0004
1.00001
0.999974
1.00009
0.999847
1.0003
0.999547
0.99978
1.00031
1.0003
0.999145
1.00021
1.00005
0.999801
1.00121
0.997496
1.00242
0.998253
1.00112
0.999966
0.998868
1.00137
0.9989
1.00081
0.999843
0.999519
1.00039
0.999999
0.999968
0.999907
1.00006
1.00008
0.999898
0.999978
1.00004
0.999998
1
1.00002
1.00003
1.00004
1.00011
1.00026
1.00037
1.00063
1.00138
1.00435
1.01414
1.02904
1.03743
1.03229
1.01767
1.00152
0.988604
0.979478
0.97409
0.978632
0.997852
1.02015
1.01737
0.983359
0.943165
0.912543
0.900515
0.910543
0.931026
0.955485
0.978413
0.993759
0.996849
0.992056
0.984417
0.976082
0.968945
0.964163
0.970821
0.988012
1.01187
1.02767
1.03556
1.04305
1.04052
1.04258
1.0328
1.0312
1.02241
1.02123
1.01405
1.013
1.00886
1.00772
1.00549
1.00444
1.00329
1.00251
1.0019
1.00137
1.00104
1.00071
1.00056
1.0005
1.00045
0.999828
1.0005
0.999649
1.00052
0.999381
1.00007
1.00021
1.00005
0.999438
1.0002
0.999388
1.00181
0.997591
1.00174
0.998685
1.00058
1.00113
0.997535
1.00237
0.998102
1.00117
1.0002
0.998975
1.00066
0.999666
1.00041
0.999926
0.999631
1.00015
1.00015
1.00001
0.999906
0.999988
1.00006
0.99996
0.999931
1.00003
1.00005
1.00002
1.0001
1.00028
1.00039
1.00074
1.00167
1.00549
1.01682
1.03161
1.03736
1.02936
1.01337
0.997426
0.985839
0.978736
0.976444
0.985869
1.00747
1.02016
0.994605
0.938436
0.885619
0.850215
0.841846
0.859413
0.891435
0.931395
0.969555
0.996149
1.00343
0.995006
0.981571
0.971581
0.965985
0.967426
0.97499
0.987692
1.00572
1.02209
1.03222
1.04181
1.03931
1.04243
1.03263
1.03326
1.02467
1.02166
1.01589
1.01396
1.01021
1.0084
1.00641
1.00502
1.00387
1.00299
1.00225
1.00172
1.00125
1.00098
1.00058
1.00074
1.00021
1.00038
1.00019
1.0001
0.999899
0.999918
1.00024
0.999987
0.999645
0.999564
1.00108
0.999052
1.0004
0.999712
0.999089
1.0028
0.996359
1.00315
0.997512
1.00109
1.00093
0.998129
1.00156
0.998745
1.00066
1.0005
0.999196
1.00006
1.0002
1.0002
0.999806
0.999765
1.00016
1.00017
0.999963
0.999929
1
1.00001
0.999988
1.00002
1.00012
1.00024
1.00038
1.00083
1.002
1.00683
1.0195
1.0336
1.03669
1.02625
1.00938
0.993929
0.983903
0.978941
0.97965
0.992693
1.01266
1.01039
0.960742
0.885778
0.821305
0.777522
0.766155
0.787528
0.833462
0.894377
0.951983
0.99306
1.01348
1.00957
0.993056
0.975544
0.963929
0.964462
0.971905
0.986114
1.0014
1.0182
1.03141
1.03513
1.04167
1.03671
1.03956
1.03036
1.02826
1.02064
1.01993
1.01335
1.0124
1.00882
1.00747
1.00562
1.0045
1.00345
1.00265
1.00206
1.00153
1.00115
1.0008
1.00073
1.00039
1.00069
0.999894
1.0004
0.999666
1.00059
0.999668
0.999827
0.999879
1.0006
0.999183
1.00088
0.997854
1.00331
0.996585
1.00273
0.998192
0.999761
1.0025
0.996688
1.00284
0.998038
1.00036
1.00118
0.998836
1.00042
0.999577
1.00033
1.00038
0.999574
0.999853
1.0002
1.00009
0.999857
0.999906
1.00013
1.00011
0.999919
0.999969
1.00011
1.00014
1.00019
1.00044
1.00094
1.00242
1.00837
1.02205
1.03505
1.03563
1.02312
1.00576
0.991026
0.982672
0.979816
0.983066
0.997802
1.01262
0.99305
0.921199
0.829347
0.748923
0.691345
0.675623
0.704599
0.764865
0.843642
0.919463
0.977008
1.01062
1.01821
1.00669
0.988712
0.973915
0.964048
0.966904
0.980556
0.997886
1.01494
1.02653
1.03254
1.04008
1.03745
1.03964
1.03029
1.02932
1.02384
1.0198
1.01549
1.01315
1.01012
1.00814
1.00649
1.00505
1.00397
1.00311
1.00239
1.00184
1.00136
1.00109
1.00082
1.00081
1.00038
1.00027
1.00013
1.00041
0.999802
0.999899
1.00011
1.00009
1.00006
0.999046
1.00116
0.999127
1.00033
1.00052
0.997519
1.00424
0.995341
1.00378
0.997961
0.99959
1.00213
0.997913
1.00135
0.999215
0.999828
1.00095
0.999586
0.999661
0.999971
1.00035
1.00019
0.999732
0.999848
1.00008
1.00006
0.999971
0.999913
1.00006
1.00011
1.00008
1.0002
1.00056
1.00107
1.00295
1.01007
1.02434
1.03602
1.03431
1.02009
1.00253
0.988671
0.982
0.98103
0.986126
1.00038
1.00803
0.971278
0.879558
0.769203
0.668129
0.597111
0.582779
0.621972
0.694442
0.786542
0.879714
0.953658
0.996389
1.01482
1.01241
0.999211
0.983341
0.969415
0.968024
0.976547
0.992902
1.00874
1.02185
1.03294
1.03488
1.04082
1.03415
1.03555
1.02897
1.02648
1.01921
1.01867
1.01322
1.01162
1.00895
1.00728
1.00569
1.00454
1.00356
1.00275
1.00214
1.00164
1.00124
1.00105
1.00092
1.00029
1.00063
1.00012
1.00035
0.9996
1.00055
0.999773
1.00011
0.999323
1.00106
0.998676
1.00181
0.996864
1.00402
0.996073
1.00269
0.999398
0.998036
1.00357
0.99651
1.00226
0.999452
0.998899
1.00148
0.999464
0.999983
0.999777
1
1.00044
0.999861
0.999675
1.00007
1.0003
1.00004
0.999767
0.999981
1.00006
1.00002
0.999991
1.00004
1.00022
1.00064
1.00121
1.0036
1.01185
1.02634
1.0366
1.03287
1.01725
0.999683
0.986822
0.981692
0.982305
0.988391
1.0003
1.00021
0.947707
0.837742
0.70757
0.585962
0.506574
0.496121
0.542704
0.626096
0.730889
0.83854
0.925283
0.980038
1.00842
1.01512
1.0026
0.98449
0.974802
0.972663
0.977208
0.986971
1.00203
1.01854
1.02907
1.03362
1.03807
1.0353
1.03651
1.03034
1.02596
1.02285
1.0187
1.01498
1.01252
1.01003
1.00796
1.00645
1.00508
1.004
1.00316
1.00245
1.00188
1.00143
1.00128
1.00082
1.00069
1.00052
1.00031
0.999922
1.00049
0.999945
0.999785
1.00014
0.999936
1.00029
0.999091
1.00096
0.999375
0.99972
1.00165
0.996515
1.00467
0.99562
1.00248
1.00014
0.997912
1.00222
0.998883
1.00025
1.00016
0.99935
1.00059
1.00022
0.999649
0.999777
1.00013
1.0002
0.999951
0.999864
0.999978
1.0002
0.999997
0.999893
1.00005
1.0001
1.0002
1.0007
1.00142
1.00433
1.01364
1.02804
1.03689
1.03142
1.01469
0.997148
0.98546
0.981532
0.983456
0.989636
0.997972
0.990393
0.92439
0.798628
0.650653
0.512169
0.427984
0.42032
0.474552
0.568219
0.679818
0.791798
0.889303
0.963346
1.00522
1.01831
1.00658
0.986192
0.975734
0.974546
0.977273
0.983457
0.997871
1.01338
1.02452
1.03298
1.0336
1.03877
1.03393
1.03225
1.0271
1.0253
1.01872
1.0172
1.01333
1.01099
1.00887
1.00711
1.00566
1.00449
1.00355
1.00276
1.00212
1.00164
1.00144
1.00091
1.00095
1.00035
1.00041
1.0002
1.00039
0.999563
1.00049
0.999704
1.00038
0.999111
1.00117
0.998543
1.00192
0.997039
1.00361
0.996861
1.00122
1.00119
0.997104
1.00304
0.99809
1.0003
1.001
0.998636
1.00061
1.0003
0.999719
0.999869
0.999914
1.00032
1.00017
0.999678
0.999854
1.00015
1.00008
0.999993
0.999876
0.999965
1.00021
1.00006
1.00016
1.00082
1.00173
1.0051
1.01542
1.02945
1.03695
1.03004
1.01249
0.994886
0.984505
0.981391
0.98434
0.989885
0.994148
0.979767
0.903792
0.767013
0.605123
0.452352
0.361906
0.356403
0.420157
0.519825
0.628431
0.738797
0.847559
0.943141
0.998597
1.015
1.01295
0.995321
0.97915
0.972764
0.972633
0.982514
0.995558
1.00786
1.01983
1.02886
1.03369
1.03691
1.03443
1.03251
1.03011
1.02452
1.02158
1.01796
1.01457
1.01201
1.00976
1.0078
1.00626
1.00499
1.00391
1.00308
1.0024
1.00181
1.0015
1.00118
1.00083
1.00049
1.00051
1.00034
0.99988
1.00029
1.00016
0.999655
1.00021
0.999914
1.00018
0.999345
1.00076
0.999614
0.999354
1.00186
0.997018
1.0033
0.997691
1.00022
1.00155
0.998204
1.00076
1.00022
0.99961
1.00029
0.999662
1.00009
1.00027
0.9999
0.999856
0.999891
1.00026
1.00012
0.99978
0.99989
1.00011
0.999955
1.00012
0.999966
1.0002
1.00094
1.00206
1.00594
1.01708
1.03064
1.03678
1.02885
1.01063
0.992935
0.98376
0.981309
0.984803
0.989413
0.989766
0.969382
0.888661
0.746812
0.574728
0.408212
0.30669
0.300072
0.368485
0.468005
0.574896
0.689836
0.807899
0.917681
0.982629
1.00362
1.01395
1.00572
0.987326
0.972997
0.969326
0.979795
0.99187
1.00305
1.01457
1.02496
1.03353
1.03373
1.03535
1.03337
1.03085
1.02564
1.02366
1.0187
1.016
1.01306
1.01057
1.00857
1.00686
1.00546
1.00431
1.00338
1.00263
1.00201
1.00162
1.00131
1.00076
1.00077
1.00039
1.00025
1.00015
1.00036
0.999623
1.00037
0.99975
1.00029
0.999386
1.00076
0.999105
1.00114
0.998147
1.00228
0.998356
0.999924
1.00152
0.998236
1.00102
0.999954
0.999364
1.00075
0.999651
0.999816
1.00033
1.00005
0.999791
0.999799
1.00026
1.00012
0.999917
0.999862
0.999963
1.00015
1.00013
0.999731
1.00009
1.00008
1.00019
1.00106
1.00243
1.00685
1.01855
1.03166
1.03645
1.02788
1.0092
0.991303
0.983049
0.981383
0.984741
0.98864
0.985582
0.960195
0.880456
0.738436
0.559613
0.381301
0.266084
0.252278
0.315414
0.409895
0.522656
0.64886
0.772606
0.886599
0.961427
0.9925
1.00919
1.00877
0.993339
0.978191
0.971345
0.975569
0.985891
0.998246
1.0109
1.02172
1.02957
1.03272
1.03463
1.03464
1.03042
1.02846
1.02396
1.02046
1.01718
1.01406
1.0115
1.00931
1.00747
1.00593
1.00471
1.00367
1.00285
1.0022
1.00179
1.00128
1.00094
1.00077
1.0003
1.00041
1.00025
0.999942
1.0001
1.00022
0.999685
1.0001
1.00009
0.999955
0.999581
1.00064
0.999642
0.999588
1.00104
0.998657
1.0012
0.999534
0.999435
1.00093
0.999661
0.999647
1.00044
0.999884
0.999909
1.00004
0.999985
1.00004
1.00011
0.99986
0.999871
1.00014
1.00005
0.999991
0.999962
0.999808
1.00017
1.00019
1.00004
1.00127
1.00287
1.00783
1.01981
1.03257
1.03607
1.02707
1.00827
0.990006
0.982267
0.981584
0.984297
0.987805
0.98204
0.953275
0.878622
0.740465
0.559092
0.375529
0.250807
0.226389
0.276282
0.360655
0.475434
0.607594
0.733654
0.84784
0.935586
0.985203
1.0063
1.00697
0.995395
0.982624
0.97455
0.973944
0.980776
0.993143
1.00665
1.01774
1.02508
1.03146
1.03417
1.03401
1.03167
1.0296
1.02508
1.02202
1.01827
1.01516
1.01242
1.01004
1.00806
1.00641
1.00506
1.00395
1.00306
1.00233
1.00186
1.00133
1.00106
1.0006
1.00054
1.00035
1.00012
1.00011
1.00023
0.99974
1.0002
0.999936
0.999983
0.999868
1.00019
0.999774
1.00029
0.999306
1.00101
0.999336
0.999738
1.00074
0.999638
0.999805
1.00041
0.999637
1.00013
1.00016
0.99973
1.00013
1.00009
0.999898
0.999972
0.999956
1.00008
1.00019
0.999773
0.999885
1.00015
0.99993
1.00002
1.00018
1.00003
1.00149
1.00336
1.00879
1.02087
1.03334
1.0357
1.02644
1.0078
0.989184
0.981317
0.981731
0.9839
0.98673
0.979587
0.949551
0.881524
0.751561
0.57258
0.39303
0.268731
0.235062
0.268442
0.33728
0.440987
0.566355
0.692033
0.805304
0.901578
0.973437
1.0038
1.00577
0.998018
0.985332
0.975828
0.973365
0.978119
0.988321
1.00074
1.01284
1.02178
1.02898
1.03321
1.03306
1.03311
1.02987
1.02684
1.0231
1.01953
1.01626
1.01332
1.0108
1.00865
1.00688
1.0054
1.00421
1.00324
1.00247
1.0019
1.00143
1.001
1.00067
1.0006
1.00018
1.00028
1.00016
0.999941
1.00007
1.00009
0.999867
0.999951
1.0002
0.999846
0.999763
1.0005
0.999626
0.999913
1.00034
0.999706
1.00016
1.00003
0.99968
1.00032
1.00008
0.999665
1.00024
0.999924
0.999984
1.00004
0.999899
1.00014
1.00001
0.999879
1.00008
0.999869
1.00005
1.00018
0.999779
0.999924
1.00026
1.00014
1.00155
1.00393
1.0097
1.0218
1.03384
1.03554
1.02589
1.00777
0.988984
0.980227
0.981572
0.983881
0.985351
0.978512
0.949507
0.887668
0.770527
0.599317
0.429053
0.31339
0.273735
0.290475
0.341367
0.424959
0.535782
0.662241
0.773376
0.865704
0.950336
0.994891
1.00319
1.00082
0.989992
0.977787
0.972226
0.975552
0.984033
0.995328
1.00742
1.01809
1.02612
1.03092
1.03302
1.03316
1.03076
1.02802
1.02432
1.02078
1.01733
1.01424
1.01154
1.00924
1.00731
1.00573
1.00443
1.0034
1.00257
1.00196
1.00142
1.00099
1.00076
1.00042
1.00033
1.00024
1.00004
1.00007
1.00013
0.999848
1.00007
1.00006
0.999822
1.00011
0.999955
1.00001
0.999977
0.99987
1.00034
0.999712
0.999883
1.00033
0.999947
0.999739
1.00024
0.999884
1.00004
1.00003
0.999944
1.00007
0.999918
1.00007
0.999959
0.999911
1.00017
0.999936
0.999937
1.00007
0.999813
1.00001
1.00026
1.00024
1.00161
1.00453
1.01062
1.02259
1.03409
1.03559
1.02552
1.00805
0.989447
0.979262
0.980831
0.984172
0.98419
0.978515
0.953018
0.896627
0.796118
0.639585
0.477423
0.369998
0.325694
0.327841
0.363796
0.426903
0.522255
0.647923
0.756211
0.838493
0.922638
0.980235
0.997754
0.999823
0.99355
0.981929
0.973317
0.972918
0.979626
0.990382
1.00225
1.01351
1.02266
1.02847
1.03246
1.03272
1.03168
1.02893
1.02559
1.02195
1.0184
1.01514
1.01226
1.0098
1.00772
1.00602
1.00464
1.00353
1.00264
1.00198
1.0014
1.00102
1.00069
1.00043