/*--------------------------------*- C++ -*----------------------------------*\
  =========                 |
  \\      /  F ield         | OpenFOAM: The Open Source CFD Toolbox
   \\    /   O peration     | Website:  https://openfoam.org
    \\  /    A nd           | Version:  6
     \\/     M anipulation  |
\*---------------------------------------------------------------------------*/
FoamFile
{
    version     2.0;
    format      ascii;
    class       surfaceScalarField;
    location    "2.86";
    object      meshPhi;
}
// * * * * * * * * * * * * * * * * * * * * * * * * * * * * * * * * * * * * * //

dimensions      [0 3 -1 0 0 0 0];

internalField   nonuniform List<scalar> 
8193
(
-0.00106335
-0.00333216
0.000391654
-0.00166422
-0.00629815
-0.00219208
-0.00896268
-0.00264697
-0.0112857
-0.00303024
-0.0132378
-0.00334386
-0.0147998
-0.00358973
-0.0159622
-0.00376927
-0.0167244
-0.00388313
-0.0170939
-0.00393105
-0.0170848
-0.00391189
-0.0167173
-0.00382376
-0.0160162
-0.00366427
-0.0150099
-0.00343077
-0.0137298
-0.00312071
-0.012209
-0.00273191
-0.0104822
-0.00226299
-0.00858466
-0.00171364
-0.006552
-0.00108495
-0.00441996
-0.000379803
-0.00222416
0.000396898
1.12377e-14
0.00123787
0.00221735
0.00213318
0.00439297
0.00307004
0.00649214
0.00403256
0.00848045
0.00500167
0.0103238
0.00595511
0.0119886
0.0068675
0.0134421
0.0077106
0.0146525
0.00845375
0.0155898
0.00906444
0.0162262
0.00950906
0.0165366
0.00975384
0.0165002
0.00976593
0.0161003
0.00951458
0.0153262
0.00897237
0.0141738
0.00811651
0.0126462
0.00693002
0.0107551
0.00540298
0.0085211
0.0035335
0.00597408
0.00315364
0.00132863
-0.00376471
-0.00998156
0.00189202
-0.00544229
-0.0154778
-0.00691965
-0.0203454
-0.00819632
-0.0245196
-0.00927453
-0.0279559
-0.0101576
-0.0306289
-0.0108483
-0.0325314
-0.0113484
-0.033672
-0.0116576
-0.0340737
-0.0117736
-0.033771
-0.0116921
-0.0328083
-0.0114073
-0.0312375
-0.0109123
-0.0291162
-0.0101999
-0.0265059
-0.00926333
-0.0234707
-0.00809725
-0.020076
-0.0066983
-0.0163877
-0.00506613
-0.0124713
-0.00320423
-0.008392
-0.00112076
-0.00421384
0.00117053
0
0.00364953
0.00418727
0.00628894
0.00828664
0.0090535
0.0122375
0.0118995
0.0159802
0.014774
0.0194557
0.0176153
0.022606
0.0203524
0.0253746
0.0229058
0.0277067
0.0251887
0.0295501
0.0271078
0.0308561
0.0285662
0.0315807
0.0294649
0.0316861
0.0297064
0.0311416
0.0291976
0.0299262
0.0278534
0.0280294
0.0256005
0.0254533
0.022381
0.0222142
0.018156
0.0183436
0.0129089
0.0138894
0.00891621
0.00664844
-0.00756707
-0.0197372
0.00473298
-0.0101072
-0.0272556
-0.0123462
-0.0338165
-0.0142818
-0.0393436
-0.0159149
-0.0437891
-0.0172469
-0.0471317
-0.0182787
-0.0493742
-0.0190096
-0.0505415
-0.0194363
-0.0506762
-0.0195534
-0.0498367
-0.0193529
-0.0480928
-0.0188253
-0.0455239
-0.01796
-0.0422152
-0.0167465
-0.0382564
-0.0151753
-0.0337391
-0.0132386
-0.0287555
-0.0109321
-0.0233974
-0.00825581
-0.0177552
-0.00521515
-0.0119175
-0.0018224
-0.00597096
0.0019021
0
0.00592867
0.00591282
0.010217
0.0116868
0.014715
0.0172429
0.0193577
0.0225035
0.0240663
0.0273927
0.028748
0.0318361
0.0332955
0.0357612
0.0375881
0.0390979
0.0414922
0.0417795
0.0448637
0.0437435
0.0475501
0.044933
0.0493946
0.0452986
0.0502397
0.0447996
0.049932
0.0434069
0.0483278
0.0411045
0.0452984
0.037892
0.0407361
0.0337866
0.0345598
0.028825
0.0267205
0.0230645
0.0165843
0.0172062
-0.0123008
-0.0322463
0.00872184
-0.0155137
-0.0412367
-0.018349
-0.0489614
-0.0208002
-0.0553428
-0.0228634
-0.0603379
-0.0245356
-0.0639359
-0.0258132
-0.0661551
-0.026691
-0.0670393
-0.0271619
-0.0666532
-0.0272164
-0.0650789
-0.0268435
-0.0624116
-0.0260305
-0.0587559
-0.0247643
-0.0542228
-0.0230322
-0.0489267
-0.0208229
-0.0429832
-0.0181278
-0.0365072
-0.0149422
-0.0296119
-0.0112664
-0.022408
-0.00710772
-0.0150026
-0.00248126
-0.00749981
0.00258798
0
0.00806365
0.00739947
0.0138963
0.0146043
0.020022
0.0215229
0.0263604
0.0280663
0.0328138
0.0341477
0.0392664
0.039683
0.0455835
0.0445905
0.0516123
0.0487918
0.0571824
0.0522123
0.0621085
0.0547822
0.0661926
0.0564381
0.0692282
0.0571244
0.0710054
0.0567954
0.0713161
0.0554177
0.069961
0.0529722
0.0667561
0.0494571
0.0615406
0.0448897
0.0541838
0.0393091
0.044593
0.0327774
0.0253812
0.0327198
-0.0178017
-0.0470296
0.0136635
-0.0215247
-0.0569338
-0.0248137
-0.0653026
-0.0276547
-0.0720637
-0.0300366
-0.0771839
-0.0319497
-0.0806664
-0.0333842
-0.0825468
-0.0343299
-0.0828881
-0.0347752
-0.0817768
-0.0347072
-0.0793174
-0.034112
-0.0756279
-0.0329752
-0.0708359
-0.031282
-0.0650744
-0.0290188
-0.0584792
-0.0261739
-0.051186
-0.0227384
-0.0433287
-0.0187078
-0.0350379
-0.0140832
-0.0264403
-0.00887297
-0.0176575
-0.00309428
-0.00880668
0.003225
0
0.0100444
0.00865489
0.0173087
0.0170547
0.0249462
0.0250999
0.0328667
0.032695
0.0409597
0.0397478
0.0490933
0.0461696
0.0571137
0.0518753
0.0648447
0.0567836
0.0720887
0.060818
0.0786289
0.0639073
0.0842318
0.0659871
0.0886514
0.0670013
0.0916342
0.0669043
0.0929257
0.0656626
0.0922774
0.0632579
0.0894547
0.0596892
0.0842454
0.0549756
0.0764683
0.0491582
0.0659819
0.0423022
0.0344977
0.0526927
-0.0239187
-0.0635073
0.0193747
-0.0280147
-0.0737916
-0.0316342
-0.0823216
-0.0347536
-0.0890338
-0.0373529
-0.0939068
-0.0394146
-0.0969582
-0.0409225
-0.0982401
-0.041861
-0.0978339
-0.0422147
-0.095845
-0.041968
-0.0923976
-0.0411052
-0.0876297
-0.0396108
-0.0816881
-0.03747
-0.0747244
-0.0346692
-0.0668923
-0.031197
-0.0583438
-0.0270452
-0.0492282
-0.0222098
-0.0396901
-0.0166927
-0.0298683
-0.010503
-0.019896
-0.00365881
-0.0098997
0.00381045
-8.20207e-15
0.0118623
0.0096886
0.0204387
0.0190572
0.0294638
0.0280024
0.0388419
0.0364257
0.0484549
0.0442334
0.0581615
0.0513365
0.0677954
0.0576507
0.0771651
0.0630967
0.0860548
0.0676007
0.0942256
0.071095
0.101418
0.0735193
0.107358
0.0748218
0.111758
0.0749615
0.114326
0.0739098
0.114775
0.0716527
0.112827
0.0681939
0.108226
0.0635563
0.100742
0.0577849
0.0901882
0.0509481
0.0431387
0.0764237
-0.0305159
-0.0810307
0.0256922
-0.0348686
-0.091215
-0.0387104
-0.0994835
-0.0420072
-0.105782
-0.04473
-0.1101
-0.0468534
-0.112468
-0.0483553
-0.112953
-0.0492156
-0.111651
-0.0494159
-0.108684
-0.0489388
-0.104192
-0.0477682
-0.0983295
-0.0458885
-0.0912585
-0.0432858
-0.0831461
-0.0399473
-0.0741598
-0.0358629
-0.0644652
-0.0310252
-0.0542234
-0.0254312
-0.0435899
-0.0190832
-0.0327134
-0.0119909
-0.021735
-0.00417265
-0.0107885
0.0043421
-3.88223e-20
0.0135105
0.0105117
0.023274
0.0206349
0.0335557
0.0302646
0.0442577
0.0393024
0.0552593
0.0476561
0.0664144
0.0552394
0.0775506
0.0619723
0.0884684
0.0677808
0.0989412
0.0725974
0.108717
0.0763618
0.11752
0.0790218
0.125057
0.0805342
0.131018
0.0808665
0.135085
0.0799987
0.136942
0.0779256
0.136278
0.0746583
0.132802
0.0702269
0.126246
0.0646825
0.116383
0.058098
0.0505698
0.10303
-0.0374702
-0.098918
0.0324721
-0.0419776
-0.1086
-0.0459434
-0.116261
-0.0493238
-0.121856
-0.0520812
-0.125384
-0.0541839
-0.126885
-0.0556047
-0.126437
-0.0563204
-0.124148
-0.0563106
-0.120152
-0.0555576
-0.114602
-0.0540454
-0.107665
-0.0517597
-0.0995142
-0.0486879
-0.0903296
-0.0448189
-0.0802894
-0.0401441
-0.0695694
-0.0346573
-0.0583401
-0.0283566
-0.0467652
-0.0212447
-0.0350008
-0.0133312
-0.0231941
-0.004634
-0.0114839
0.00481822
-3.88223e-20
0.0149838
0.0111365
0.0258053
0.021813
0.0372071
0.0319251
0.0490924
0.0413761
0.0613408
0.0500774
0.0738062
0.0579479
0.0863151
0.0649138
0.0986655
0.0709089
0.110627
0.075875
0.121942
0.0797619
0.132328
0.0825282
0.14148
0.0841423
0.149077
0.0845837
0.154786
0.0838443
0.158272
0.0819301
0.159204
0.0788632
0.157266
0.0746836
0.152165
0.0694503
0.143642
0.0632432
0.0561631
0.131484
-0.0446638
-0.11649
0.0395845
-0.0492326
-0.125359
-0.0532304
-0.132156
-0.0566052
-0.136841
-0.059313
-0.139419
-0.0613171
-0.139937
-0.062587
-0.138481
-0.0630975
-0.135167
-0.0628278
-0.130138
-0.0617604
-0.123556
-0.0598808
-0.115596
-0.0571763
-0.106442
-0.0536363
-0.0962815
-0.0492517
-0.0853015
-0.0440155
-0.0736855
-0.0379231
-0.0616112
-0.0309731
-0.0492487
-0.0231689
-0.0367593
-0.0145193
-0.0242951
-0.00504152
-0.0119979
0.00523754
-8.57197e-17
0.0162783
0.0115766
0.0280261
0.0226196
0.040408
0.0330262
0.0533305
0.0427034
0.0666763
0.0515672
0.0803026
0.0595427
0.0940386
0.0665643
0.107685
0.0725753
0.121012
0.0775279
0.133765
0.0813839
0.145658
0.084115
0.156387
0.0857032
0.165627
0.086142
0.173039
0.0854371
0.178281
0.0836084
0.181014
0.080691
0.180908
0.0767362
0.177657
0.0718136
0.170985
0.0660109
0.0594347
0.160658
-0.0519752
-0.133104
0.046902
-0.0565166
-0.140951
-0.0604585
-0.146718
-0.0637432
-0.150369
-0.0663223
-0.151911
-0.068156
-0.151397
-0.069212
-0.148915
-0.0694647
-0.144587
-0.0688935
-0.138563
-0.0674825
-0.131008
-0.0652188
-0.122106
-0.0620918
-0.112046
-0.0580932
-0.101022
-0.0532159
-0.0892272
-0.0474547
-0.0768507
-0.0408064
-0.0640757
-0.0332702
-0.0510771
-0.0248493
-0.0380206
-0.0155521
-0.0250611
-0.00539432
-0.0123431
0.00559931
-3.13696e-15
0.0173921
0.011846
0.0299327
0.0230838
0.0431525
0.0336133
0.0569626
0.0433453
0.0712509
0.0522014
0.0858799
0.0601141
0.100685
0.0670263
0.115471
0.0728914
0.130018
0.0776735
0.144072
0.0813473
0.157357
0.0838983
0.169571
0.0853232
0.180394
0.0856305
0.189492
0.0848415
0.196523
0.0829906
0.20115
0.080127
0.203043
0.076315
0.201893
0.0716349
0.197419
0.0661835
0.0600735
0.189382
-0.0592688
-0.148178
0.0542861
-0.0636975
-0.154895
-0.0675004
-0.159558
-0.0706165
-0.16213
-0.0729952
-0.162621
-0.0745951
-0.161084
-0.0753838
-0.157611
-0.0753361
-0.152325
-0.0744327
-0.145378
-0.0726594
-0.136941
-0.0700052
-0.1272
-0.0664621
-0.116348
-0.0620237
-0.104585
-0.0566852
-0.0921073
-0.0504428
-0.0791091
-0.0432942
-0.0657774
-0.0352395
-0.0522909
-0.0262814
-0.0388181
-0.0164276
-0.0255167
-0.00569194
-0.0125327
0.00590321
0
0.0183244
0.0119595
0.0315244
0.0232363
0.0454394
0.0337333
0.0599859
0.0433657
0.0750581
0.0520611
0.0905256
0.0597591
0.106231
0.0664118
0.121989
0.0719832
0.137586
0.0764491
0.15278
0.0797973
0.167302
0.0820276
0.180862
0.0831517
0.19315
0.0831935
0.20384
0.0821897
0.212604
0.0801899
0.21911
0.0772574
0.223039
0.0734695
0.224089
0.0689176
0.221988
0.0637071
0.0579567
0.216501
-0.0663863
-0.161215
0.061575
-0.0706229
-0.166788
-0.0742115
-0.170354
-0.07709
-0.171876
-0.0792072
-0.171363
-0.0805219
-0.168867
-0.0810023
-0.164481
-0.0806243
-0.158329
-0.0793703
-0.150563
-0.0772281
-0.141357
-0.0741888
-0.130898
-0.0702466
-0.119383
-0.065397
-0.107014
-0.0596369
-0.0939905
-0.0529639
-0.0805104
-0.0453768
-0.066764
-0.0368755
-0.0529325
-0.0274628
-0.0391871
-0.0171451
-0.0256872
-0.00593438
-0.0125801
0.00614944
-2.73003e-15
0.0190763
0.011932
0.0328032
0.0231082
0.0472712
0.0334345
0.0624029
0.0428307
0.0780992
0.0512302
0.0942374
0.05858
0.110669
0.064841
0.127218
0.0699874
0.143681
0.0740069
0.159829
0.0769002
0.175404
0.0786809
0.19013
0.0793753
0.20371
0.0790226
0.215835
0.0776742
0.226189
0.0753946
0.234458
0.0722607
0.240338
0.068362
0.243542
0.0638004
0.243813
0.0586892
0.053152
0.240931
-0.0731415
-0.17181
0.068574
-0.0771177
-0.17631
-0.0804296
-0.17886
-0.0830157
-0.179422
-0.0848255
-0.178005
-0.0858188
-0.174659
-0.0859651
-0.169476
-0.085242
-0.162581
-0.0836335
-0.154124
-0.0811293
-0.144281
-0.0777225
-0.133239
-0.0734091
-0.121198
-0.0681864
-0.108361
-0.0620526
-0.0949316
-0.0550066
-0.0811089
-0.0470475
-0.0670858
-0.0381756
-0.0530463
-0.028393
-0.0391635
-0.017705
-0.0255984
-0.00612204
-0.0124991
0.00633861
0
0.0196501
0.0117785
0.0337734
0.0227308
0.0486546
0.0327656
0.0642219
0.0418072
0.0803831
0.0497945
0.0970234
0.0566817
0.114003
0.0624382
0.131156
0.0670482
0.14829
0.0705105
0.165188
0.072838
0.181608
0.0740577
0.197287
0.0742099
0.211943
0.0733479
0.225286
0.0715376
0.237017
0.0688569
0.246842
0.0653956
0.254475
0.0612544
0.25965
0.0565445
0.26213
0.0513858
0.0459057
0.261714
-0.0793205
-0.179659
0.0750524
-0.082986
-0.183227
-0.085978
-0.184901
-0.0882363
-0.184646
-0.0897121
-0.182467
-0.0903669
-0.178416
-0.0901716
-0.172582
-0.0891053
-0.165089
-0.087154
-0.156088
-0.0843089
-0.145753
-0.0805648
-0.134274
-0.0759192
-0.12185
-0.0703708
-0.108688
-0.063919
-0.0949909
-0.0565634
-0.0809618
-0.0483035
-0.0667954
-0.0391396
-0.0526778
-0.0290734
-0.0387838
-0.0181092
-0.025276
-0.00625578
-0.0123032
0.00647179
0
0.0200495
0.0115142
0.034442
0.0221352
0.0495998
0.0317751
0.0654564
0.0403618
0.0819258
0.04784
0.0989005
0.0541704
0.116249
0.0593306
0.133816
0.0633139
0.151419
0.0661298
0.168853
0.067803
0.185891
0.0683728
0.202283
0.0678926
0.217766
0.066429
0.232064
0.0640611
0.244901
0.0608796
0.255999
0.0569859
0.265094
0.0524908
0.271941
0.0475134
0.276323
0.0421795
0.0366192
0.27806
-0.0846865
-0.184555
0.0807476
-0.0880172
-0.187384
-0.0906713
-0.188371
-0.0925911
-0.18748
-0.0937297
-0.184717
-0.0940504
-0.180133
-0.0935258
-0.173816
-0.0921368
-0.165888
-0.0898707
-0.156502
-0.0867201
-0.145831
-0.0826815
-0.134065
-0.0777533
-0.121406
-0.0719354
-0.108059
-0.0652281
-0.094232
-0.0576315
-0.0801287
-0.0491456
-0.0659463
-0.0397706
-0.0518726
-0.0295078
-0.0380845
-0.0183607
-0.0247457
-0.00633686
-0.012006
0.00655046
2.25274e-15
0.0202796
0.0111535
0.0348182
0.0213521
0.0501205
0.0305104
0.0661245
0.0385605
0.0827497
0.0454517
0.0998948
0.0511515
0.117436
0.0556447
0.135226
0.0589338
0.153093
0.0610379
0.170844
0.0619928
0.188261
0.0618495
0.205112
0.0606736
0.221146
0.0585442
0.236106
0.0555528
0.24973
0.0518016
0.261761
0.0474028
0.271953
0.0424764
0.28008
0.0371489
0.285942
0.031551
0.0258153
0.289379
-0.0889915
-0.186382
0.0853769
-0.0919957
-0.188707
-0.0943246
-0.189229
-0.0959233
-0.187912
-0.0967472
-0.184765
-0.0967618
-0.179839
-0.0959415
-0.173221
-0.0942686
-0.165034
-0.091732
-0.155431
-0.0883255
-0.144584
-0.0840468
-0.132685
-0.0788954
-0.119936
-0.072872
-0.106545
-0.0659776
-0.0927214
-0.058213
-0.0786708
-0.0495784
-0.0645925
-0.0400743
-0.0506767
-0.0297017
-0.0371017
-0.0184637
-0.0240328
-0.00636692
-0.0116206
0.00657651
2.13787e-15
0.0203467
0.0107109
0.0349133
0.0204112
0.0502336
0.0290181
0.0662489
0.0364671
0.0828831
0.0427126
0.10004
0.047728
0.117602
0.0515053
0.135429
0.0540553
0.153357
0.0554067
0.171202
0.0556054
0.188758
0.0547136
0.205803
0.0528086
0.222101
0.0499813
0.237407
0.0463346
0.251474
0.0419821
0.264059
0.037046
0.274931
0.0316553
0.283879
0.0259434
0.290718
0.020046
0.0140985
0.295298
-0.0919921
0.0886571
-0.0947149
-0.0967645
-0.0980894
-0.098648
-0.0984081
-0.0973462
-0.0954463
-0.0926988
-0.0890988
-0.0846451
-0.0793382
-0.0731798
-0.0661716
-0.0583149
-0.0496107
-0.0400596
-0.0296628
-0.0184235
-0.00634799
0.00655218
0.020258
0.0347405
0.0499586
0.0658561
0.0823598
0.0993771
0.116795
0.134478
0.15227
0.169992
0.187448
0.204424
0.220693
0.23602
0.25017
0.26291
0.274019
0.283295
0.290558
0.295665
0.0200044
0.270863
0.0356187
0.270687
0.0499992
0.265835
0.0623479
0.256423
0.071973
0.242736
0.0783392
0.225224
0.0811126
0.204489
0.080193
0.181268
0.0757322
0.1564
0.068135
0.130792
0.0580429
0.10538
0.0463004
0.0810849
0.0339083
0.0587726
0.021966
0.0392173
0.0116091
0.0230709
0.00394617
0.0108405
0.00287572
0.0249976
0.245767
0.0396496
0.24578
0.0531477
0.241871
0.0648007
0.23413
0.0740031
0.222769
0.0802752
0.208125
0.0832981
0.190651
0.0829411
0.170906
0.0792785
0.149531
0.0725941
0.127231
0.0633733
0.104742
0.0522819
0.0828041
0.0401336
0.062132
0.0278497
0.0433869
0.0164112
0.027152
0.00680998
0.0139126
0.00404245
0.029472
0.220837
0.0431139
0.221018
0.0556852
0.217929
0.0665884
0.211632
0.0752943
0.202284
0.0813735
0.190132
0.0845239
0.175513
0.0845933
0.158843
0.0815942
0.140607
0.075711
0.121342
0.0672967
0.10162
0.0568614
0.0820249
0.0450508
0.0631353
0.0326184
0.0455017
0.0203908
0.0296284
0.00923104
0.0159574
0.00485533
0.0333404
0.196479
0.0459435
0.1968
0.05756
0.194407
0.0676741
0.189343
0.0758244
0.181719
0.0816271
0.171714
0.0847982
0.159572
0.0851718
0.145601
0.0827127
0.13016
0.0775249
0.113652
0.0698516
0.0965142
0.0600694
0.0791991
0.0486761
0.0621651
0.0362713
0.0458595
0.0235334
0.0307055
0.0111922
0.0170894
0.0053494
0.0365318
0.173041
0.0480854
0.173467
0.0587346
0.171653
0.0680355
0.167627
0.0755862
0.161465
0.0810448
0.153293
0.0841463
0.143286
0.0847176
0.131664
0.0826884
0.11869
0.0780989
0.104662
0.0711029
0.0899073
0.0619654
0.0747699
0.0510559
0.0596052
0.0388372
0.0447682
0.0258494
0.0306036
0.0126915
0.017437
0.00556564
0.0389939
0.150806
0.0495028
0.151302
0.0591868
0.149961
0.0676646
0.146798
0.0745869
0.141863
0.0796499
0.135242
0.0826085
0.127057
0.0832878
0.117463
0.0815928
0.10665
0.0775152
0.0948318
0.0711372
0.0822484
0.0626323
0.0691571
0.052262
0.0558271
0.0403696
0.0425327
0.0273707
0.0295471
0.0137406
0.0171355
0.00554841
0.0406931
0.129994
0.050176
0.130527
0.0589097
0.129563
0.0665677
0.127107
0.072847
0.123191
0.0774786
0.117871
0.0802377
0.11123
0.0809522
0.103375
0.0795112
0.0944373
0.0758705
0.0845696
0.0700573
0.0739436
0.0621714
0.0627466
0.0523856
0.0511776
0.0409419
0.0394437
0.0281465
0.027755
0.0143624
0.0163204
0.00534316
0.0416153
0.110762
0.0501024
0.111302
0.0579119
0.110631
0.0647648
0.108747
0.0703992
0.105669
0.0745782
0.101431
0.077097
0.0960879
0.0777903
0.0897111
0.0765382
0.0823895
0.0732718
0.0742283
0.0679769
0.0653477
0.0606966
0.0558806
0.051532
0.0459704
0.0406418
0.0357688
0.0282393
0.0254328
0.014589
0.0151217
0.0049943
0.0417649
0.0932064
0.0492952
0.0937299
0.0562154
0.0932798
0.0622878
0.0918524
0.067287
0.0894559
0.0710051
0.0861108
0.0732574
0.0818506
0.073888
0.0767212
0.0727743
0.0707809
0.0698315
0.0641002
0.0650162
0.0567605
0.0583287
0.0488533
0.049815
0.040479
0.0395668
0.0317456
0.0277211
0.0227666
0.0144586
0.0136593
0.00454346
0.0411626
0.0773714
0.0477819
0.0778585
0.0538544
0.0775709
0.0591788
0.0765025
0.0635616
0.0746557
0.0668217
0.0720408
0.0687942
0.0686773
0.0693346
0.064593
0.0683222
0.0598247
0.0656639
0.0544176
0.0612969
0.048425
0.0551913
0.0419078
0.0473519
0.0349342
0.037819
0.027578
0.0266689
0.0199188
0.0140138
0.01204
0.00402817
0.0398428
0.063253
0.0456013
0.06369
0.0508728
0.0635171
0.0554873
0.0627274
0.05928
0.0613195
0.0620944
0.0592975
0.0637846
0.0566713
0.0642191
0.0534566
0.0632828
0.0496753
0.0608803
0.0453551
0.0569378
0.0405293
0.0514054
0.035237
0.0442588
0.0295222
0.0355007
0.0234341
0.0251613
0.017026
0.013299
0.0103549
0.00348102
0.0378497
0.0508086
0.0428001
0.0511868
0.0473199
0.0510912
0.0512668
0.0505149
0.0545014
0.0494545
0.0568895
0.0479104
0.0583041
0.0458864
0.0586272
0.0433905
0.0577525
0.0404347
0.0555865
0.0370347
0.0520513
0.0332103
0.0470856
0.0289854
0.0406464
0.0243872
0.0327105
0.0194467
0.0232749
0.0141982
0.012358
0.00867899
0.00292913
0.0352336
0.0399648
0.0394293
0.0402801
0.0432481
0.0402335
0.0465718
0.0398185
0.0492839
0.0390312
0.0512709
0.0378696
0.0524235
0.0363345
0.0526382
0.0344289
0.0518191
0.0321586
0.0498787
0.0295317
0.0467399
0.0265591
0.042337
0.0232544
0.0366168
0.0196335
0.0295399
0.015715
0.0210817
0.0115198
0.0112328
0.00707111
0.00239414
0.0320463
0.0306262
0.0355399
0.0308784
0.0387079
0.0308601
0.0414537
0.0305657
0.0436813
0.0299914
0.045296
0.0291345
0.0462058
0.0279939
0.0463219
0.02657
0.0455599
0.024865
0.0438412
0.0228824
0.0410936
0.0206276
0.037252
0.0181077
0.0322602
0.0153313
0.0260709
0.0123089
0.0186469
0.00905226
0.00996165
0.0055751
0.00189247
0.0283371
0.0226835
0.0311789
0.0228756
0.0337449
0.0228713
0.0359577
0.0226664
0.0377396
0.0222575
0.0390137
0.0216419
0.0397039
0.0208178
0.0397362
0.0197846
0.0390392
0.0185423
0.0375444
0.0170921
0.0351877
0.0154363
0.031909
0.013578
0.0276541
0.0115216
0.0223742
0.00927225
0.0160273
0.00683642
0.00857834
0.00422147
0.00143583
0.0241488
0.0160214
0.0263862
0.0161586
0.0283967
0.0161594
0.0301199
0.0160207
0.0314951
0.0157397
0.0324612
0.0153143
0.0329581
0.0147428
0.032926
0.014024
0.0323066
0.0131575
0.0310434
0.0121431
0.0290821
0.0109816
0.0263709
0.00967399
0.0228612
0.00822224
0.018508
0.00662875
0.0132703
0.00489662
0.00711159
0.00302956
0.00103192
0.0195149
0.0105249
0.0211917
0.0106144
0.0226901
0.0106154
0.0239653
0.0105257
0.0249717
0.0103437
0.0256636
0.0100676
0.0259953
0.00969626
0.0259214
0.00922864
0.025397
0.00866408
0.0243779
0.00800221
0.0228211
0.00724301
0.0206852
0.00638678
0.0179303
0.00543417
0.0145185
0.00438618
0.0104143
0.00324415
0.00558486
0.00200981
0.000685213
0.0144577
0.00608546
0.0156135
0.00613564
0.0166399
0.00613506
0.0175061
0.00608254
0.0181808
0.00597702
0.0186324
0.00581758
0.018829
0.00560347
0.0187389
0.00533405
0.0183305
0.00500885
0.0175725
0.00462758
0.0164342
0.00419008
0.0148853
0.00369637
0.0128967
0.00314665
0.0104402
0.00254129
0.0074887
0.00188083
0.00401664
0.001166
0.000397693
0.00898719
0.00260515
0.00965754
0.00262532
0.0102487
0.00262383
0.0107427
0.00260023
0.0111215
0.00255409
0.0113666
0.00248504
0.0114595
0.00239279
0.0113816
0.00227707
0.0111143
0.0021377
0.0106392
0.00197455
0.00993774
0.00178757
0.00899207
0.00157674
0.00778449
0.00134213
0.00629779
0.00108388
0.00451533
0.000802189
0.00242114
0.000497317
0.0001696
0.00310173
3.56293e-18
0.00331809
2.82549e-18
0.00350737
3.02826e-18
0.00366378
2.9468e-18
0.00378146
2.29368e-18
0.00385446
2.18304e-18
0.00387676
2.07748e-18
0.00384233
1.55709e-18
0.00374512
1.0833e-18
0.00357909
7.72825e-19
0.00333826
4.36809e-19
0.00301671
4.39053e-19
0.00260865
5.45687e-19
0.00210837
3.82492e-19
0.00151036
1.95308e-19
0.000809272
7.82891e-20
1.56664e-20
-0.00321063
-0.00179817
-0.00342046
-0.0018081
-0.00360237
-0.00180302
-0.00375074
-0.00178272
-0.00385987
-0.00174702
-0.00392397
-0.0016958
-0.00393721
-0.00162897
-0.00389372
-0.0015465
-0.00378763
-0.00144837
-0.0036131
-0.00133462
-0.00336431
-0.00120534
-0.00303554
-0.00106064
-0.00262116
-0.000900686
-0.00211567
-0.00072567
-0.00151371
-0.000535827
-0.00081014
-0.000331427
-0.000112773
-0.00996952
-0.00284104
-0.0105808
-0.00285043
-0.0111054
-0.0028359
-0.0115268
-0.00279729
-0.0118283
-0.00273454
-0.0119931
-0.00264766
-0.0120042
-0.00253673
-0.0118446
-0.00240192
-0.0114973
-0.00224344
-0.0109454
-0.00206159
-0.0101722
-0.00185673
-0.00916146
-0.00162927
-0.00789705
-0.00137966
-0.00636342
-0.00110843
-0.00454551
-0.000816147
-0.00242894
-0.000503405
-0.00017085
-0.0171988
-0.00316427
-0.0181893
-0.00316251
-0.0190294
-0.00313374
-0.0196922
-0.00307816
-0.0201507
-0.00299611
-0.0203776
-0.00288801
-0.0203455
-0.00275437
-0.0200271
-0.0025958
-0.0193953
-0.00241299
-0.0184235
-0.00220668
-0.0170853
-0.00197767
-0.0153554
-0.00172682
-0.0132089
-0.00145502
-0.010622
-0.00116317
-0.00757224
-0.000852211
-0.0040382
-0.000523085
-0.000176731
-0.0249226
-0.00278899
-0.0262714
-0.00276539
-0.0274002
-0.00271753
-0.0282721
-0.00264628
-0.0288503
-0.00255263
-0.0290975
-0.0024377
-0.0289769
-0.00230269
-0.0284519
-0.00214886
-0.0274867
-0.00197752
-0.0260462
-0.00179001
-0.0240964
-0.00158767
-0.0216047
-0.00137183
-0.0185401
-0.00114379
-0.0148733
-0.000904782
-0.0105771
-0.000655993
-0.00562681
-0.000398514
-0.000133346
-0.0331608
-0.00172411
-0.0348476
-0.00166801
-0.0362377
-0.00159646
-0.0372846
-0.00151133
-0.037942
-0.00141458
-0.0381636
-0.00130825
-0.0379041
-0.00119441
-0.0371189
-0.00107511
-0.0357649
-0.000952363
-0.0338006
-0.000828099
-0.0311866
-0.000704117
-0.027886
-0.000582067
-0.0238643
-0.000463414
-0.0190906
-0.000349412
-0.0135372
-0.000241082
-0.00718021
-0.000139192
-4.42466e-05
-0.041925
3.06118e-05
-0.0439289
0.000129818
-0.0455512
0.000229053
-0.046736
0.000325141
-0.0474281
0.000414882
-0.0475731
0.000495119
-0.0471181
0.000562812
-0.0460124
0.000615104
-0.0442075
0.000649385
-0.0416578
0.000663354
-0.0383215
0.000655075
-0.0341606
0.000623025
-0.0291416
0.000566133
-0.0232361
0.000483815
-0.0164211
0.000375991
-0.00867936
0.000243105
8.6121e-05
-0.0512138
0.00248112
-0.0535127
0.00263383
-0.0553353
0.0027638
-0.0566169
0.00286619
-0.057294
0.00293634
-0.0573051
0.00296985
-0.0565914
0.00296274
-0.0550975
0.00291153
-0.0527723
0.00281336
-0.0495692
0.00266607
-0.0454474
0.00246827
-0.0403724
0.0022194
-0.0343163
0.00191979
-0.0272589
0.00157067
-0.019188
0.00117419
-0.0101
0.000733363
0.000252089
-0.0610098
0.00563523
-0.063579
0.00585154
-0.0655665
0.00601395
-0.0668988
0.00611561
-0.0675051
0.0061502
-0.0673179
0.00611211
-0.0662743
0.00599662
-0.0643169
0.00580009
-0.0613947
0.00552008
-0.0574639
0.00515548
-0.0524894
0.0047066
-0.0464451
0.00417523
-0.0393149
0.00356465
-0.0310935
0.00287962
-0.0217868
0.00212635
-0.0114124
0.00131237
0.000446461
-0.0712761
0.00949872
-0.0740879
0.00978826
-0.0762002
0.00998307
-0.0775313
0.0100739
-0.0780039
0.0100527
-0.0775462
0.00991275
-0.0760933
0.00964913
-0.0735888
0.00925882
-0.0699854
0.00874094
-0.0652471
0.00809691
-0.0593495
0.00733048
-0.0522815
0.0064478
-0.0440458
0.00545732
-0.0346596
0.00436972
-0.0241555
0.00319774
-0.0125813
0.0019559
0.000660263
-0.0819542
0.0140715
-0.0849772
0.0144433
-0.0871691
0.0146683
-0.0884404
0.0147344
-0.0887088
0.0146319
-0.0878998
0.0143534
-0.0859495
0.0138944
-0.0828057
0.013254
-0.07843
0.0124345
-0.0727993
0.0114421
-0.0659067
0.0102864
-0.0577634
0.00898067
-0.0483991
0.00754163
-0.0378629
0.00598895
-0.0262228
0.00434496
-0.0135665
0.00263416
0.000882616
-0.0929631
0.0193438
-0.0961617
0.0198062
-0.0983821
0.0200566
-0.0995282
0.0200798
-0.0995134
0.0198643
-0.0982634
0.0194027
-0.0957183
0.0186925
-0.091835
0.0177367
-0.086589
0.0165433
-0.079977
0.015126
-0.0720174
0.013504
-0.0627526
0.0117015
-0.0522486
0.00974697
-0.040596
0.0076731
-0.0279088
0.00551543
-0.0143241
0.0033117
0.00110076
-0.104198
0.0252932
-0.107533
0.0258538
-0.109725
0.0261219
-0.110673
0.0260787
-0.110287
0.0257112
-0.108497
0.0250134
-0.105251
0.0239864
-0.10052
0.0226397
-0.0942995
0.0209906
-0.0866147
0.0190646
-0.0775184
0.0168946
-0.0670937
0.0145204
-0.0554539
0.0119874
-0.0427417
0.0093455
-0.0291275
0.00664753
-0.0148075
0.00394776
0.00130026
-0.115533
0.0318815
-0.118959
0.0325471
-0.12106
0.032822
-0.12173
0.0326832
-0.120878
0.032117
-0.11844
0.0311198
-0.114377
0.0296994
-0.108682
0.0278755
-0.101378
0.0256792
-0.092528
0.0231531
-0.0822293
0.0203496
-0.0706175
0.01733
-0.0578643
0.0141619
-0.0441761
0.0109177
-0.0297899
0.00767152
-0.0149696
0.00449717
0.00146543
-0.126819
0.0390527
-0.130289
0.0398295
-0.132232
0.0400969
-0.132535
0.0398273
-0.131113
0.0390066
-0.12791
0.0376362
-0.122907
0.0357341
-0.116124
0.0333351
-0.107625
0.0304902
-0.0975175
0.0272658
-0.0859577
0.023741
-0.0731455
0.0200055
-0.0593236
0.0161555
-0.0447731
0.012291
-0.0298073
0.00851138
-0.0147647
0.0049118
0.0015799
-0.13789
0.0467315
-0.141355
0.0476254
-0.143066
0.0478677
-0.142909
0.0474253
-0.140804
0.046285
-0.136712
0.0444562
-0.130637
0.0419716
-0.122638
0.0388877
-0.112828
0.0352832
-0.101375
0.0312568
-0.0885048
0.0269228
-0.0744962
0.0224072
-0.0596755
0.0178419
-0.0444094
0.0133595
-0.0290957
0.00908734
-0.0141512
0.00514255
0.0016274
-0.148566
0.0548227
-0.151972
0.0558397
-0.153375
0.0560359
-0.152659
0.0553721
-0.149753
0.0538374
-0.144638
0.0514526
-0.137354
0.0482719
-0.128007
0.0443817
-0.11677
0.0398979
-0.103889
0.0349617
-0.0896718
0.0297331
-0.0744914
0.0243833
-0.0587702
0.0190868
-0.0429707
0.0140132
-0.0275801
0.0093191
-0.013094
0.00514157
0.00159257
-0.158654
0.0632111
-0.161949
0.0643577
-0.162965
0.0644844
-0.161587
0.063544
-0.157756
0.0615299
-0.15148
0.0584796
-0.142844
0.0544764
-0.132013
0.0496468
-0.119238
0.0441565
-0.104852
0.0382014
-0.0892678
0.0319985
-0.0729639
0.0257744
-0.0564718
0.0197526
-0.0403573
0.0141428
-0.0251991
0.00912956
-0.0115672
0.00486489
0.00146185
-0.167957
0.0717628
-0.17109
0.0730473
-0.17164
0.0730786
-0.169493
0.0718004
-0.164609
0.0692122
-0.157031
0.0653745
-0.146898
0.0604096
-0.134448
0.0544975
-0.120025
0.0478675
-0.104072
0.0407855
-0.0871183
0.0335388
-0.0697657
0.0264186
-0.0526653
0.0197038
-0.0364908
0.0136444
-0.0219102
0.00844884
-0.00955635
0.00427487
0.00122433
-0.176279
0.0803269
-0.179202
0.0817601
-0.179208
0.0816693
-0.176188
0.0799866
-0.170121
0.0767203
-0.161097
0.0719615
-0.149319
0.0658839
-0.135118
0.0587369
-0.118947
0.050831
-0.101377
0.0425189
-0.0830734
0.0341724
-0.0647763
0.0261579
-0.0472645
0.0188126
-0.0313208
0.0124249
-0.0176937
0.00721821
-0.00706145
0.00334265
0.000872417
-0.183426
0.0887387
-0.186099
0.0903352
-0.185489
0.0900957
-0.181491
0.0879374
-0.174115
0.0838805
-0.1635
0.0780559
-0.149934
0.070704
-0.133854
0.0621623
-0.115845
0.0528436
-0.0966254
0.0432069
-0.0770175
0.0337236
-0.0579112
0.024844
-0.0402196
0.0169653
-0.0248302
0.0104068
-0.0125573
0.00539373
-0.00409833
0.00205009
0.000402394
0.290807
0.00749715
-0.295583
0.283854
0.0153938
0.274855
0.0234894
0.263975
0.0315677
0.251409
0.0394003
0.237374
0.0467536
0.222102
0.0533979
0.205832
0.059115
0.188804
0.0637051
0.171253
0.0669937
0.153402
0.0688354
0.135458
0.0691184
0.11761
0.0677655
0.100024
0.0647353
0.0828444
0.0600213
0.0661925
0.053651
0.0501679
0.0456834
0.0348495
0.0362071
0.0202977
0.0253375
0.00655663
0.0132145
-0.00634355
1.60725e-17
-0.0183838
-0.0141242
-0.0295539
-0.0289591
-0.0398503
-0.0442908
-0.0492744
-0.059893
-0.0578304
-0.0755309
-0.0655246
-0.0909641
-0.0723644
-0.105951
-0.0783577
-0.120255
-0.0835126
-0.133647
-0.0878378
-0.145915
-0.0913428
-0.156864
-0.0940384
-0.166327
-0.0959371
-0.174168
-0.0970545
-0.180284
-0.0974094
-0.18461
-0.0970249
-0.18712
-0.095929
-0.187824
-0.0941553
-0.186775
-0.0917433
-0.184055
-0.179781
0.28633
0.0186436
-0.290339
0.280067
0.0263231
0.271681
0.0341328
0.261341
0.0418564
0.249246
0.0492665
0.23562
0.0561331
0.220698
0.0622316
0.204728
0.0673504
0.187955
0.0712983
0.170618
0.0739099
0.152946
0.0750503
0.135149
0.0746182
0.117419
0.0725471
0.099926
0.0688059
0.0828159
0.063398
0.066212
0.0563598
0.0502151
0.0477583
0.0349054
0.037689
0.0203442
0.026273
0.00657625
0.0136548
-0.00636717
0
-0.0184662
-0.0145074
-0.0297096
-0.0296666
-0.0400927
-0.0452631
-0.0496154
-0.0610705
-0.0582802
-0.0768543
-0.0660917
-0.0923752
-0.0730548
-0.107393
-0.0791751
-0.121672
-0.084458
-0.134986
-0.0889093
-0.147123
-0.0925353
-0.157891
-0.0953437
-0.167127
-0.0973442
-0.174694
-0.098549
-0.180494
-0.0989743
-0.184464