/*--------------------------------*- C++ -*----------------------------------*\
  =========                 |
  \\      /  F ield         | OpenFOAM: The Open Source CFD Toolbox
   \\    /   O peration     | Website:  https://openfoam.org
    \\  /    A nd           | Version:  6
     \\/     M anipulation  |
\*---------------------------------------------------------------------------*/
FoamFile
{
    version     2.0;
    format      ascii;
    class       volVectorField;
    location    "1.82";
    object      U;
}
// * * * * * * * * * * * * * * * * * * * * * * * * * * * * * * * * * * * * * //

dimensions      [0 1 -1 0 0 0 0];

internalField   nonuniform List<vector> 
800
(
(-678.704 199.209 0)
(312.494 -92.3229 0)
(152.152 -81.1716 0)
(257.098 -32.2232 0)
(173.084 -71.238 0)
(252 -29.0909 0)
(165.119 -56.1268 0)
(249.682 -22.1788 0)
(163.99 -49.1666 0)
(245.148 -25.1727 0)
(147.918 -49.3192 0)
(254.957 -18.3922 0)
(148.955 -48.492 0)
(246.02 -15.3025 0)
(152.509 -40.5262 0)
(235.617 -11.5661 0)
(156.381 -45.3126 0)
(230.521 -11.3587 0)
(159.112 -37.2051 0)
(231.342 -11.4644 0)
(-104.025 -107.511 0)
(-193.017 41.9745 0)
(57.1518 44.5832 0)
(37.286 4.65538 0)
(123.169 67.4848 0)
(0.174291 -4.59725 0)
(-87.499 55.1575 0)
(30.5538 -2.72591 0)
(15.4348 54.1244 0)
(-101.396 2.16029 0)
(72.076 45.2455 0)
(-35.8223 -2.45764 0)
(-56.0353 47.9891 0)
(-14.958 -6.58683 0)
(25.1099 37.467 0)
(-56.6363 -2.66549 0)
(0.309901 36.299 0)
(-96.5476 -0.632582 0)
(-47.3208 27.1206 0)
(145.721 -0.840032 0)
(-271.333 87.9421 0)
(235.7 -106.09 0)
(-33.942 -65.6 0)
(99.79 30.6885 0)
(-16.7663 -48.5936 0)
(52.5059 57.7582 0)
(-18.2379 -58.0525 0)
(-50.8877 15.9597 0)
(-26.3412 -40.423 0)
(-74.0698 18.7226 0)
(-89.5861 -47.8351 0)
(-74.4417 36.5806 0)
(-110.365 -50.2336 0)
(-52.2406 21.658 0)
(-117.975 -30.6777 0)
(-45.8853 19.2501 0)
(-80.0866 -19.3962 0)
(28.6723 6.36298 0)
(-121.911 -18.0102 0)
(205.624 37.1393 0)
(-53.6648 -50.9417 0)
(-170.027 29.5606 0)
(40.1748 26.4462 0)
(26.1359 -29.9818 0)
(61.4718 36.8116 0)
(11.5468 -40.5389 0)
(20.5339 52.3487 0)
(48.1881 -20.3149 0)
(-21.6958 47.024 0)
(-114.648 -25.951 0)
(-26.9624 50.4 0)
(-113.971 -41.1352 0)
(30.9697 47.5623 0)
(-34.7727 -31.3058 0)
(-24.2162 35.5731 0)
(-109.653 -22.3461 0)
(-55.4629 14.5267 0)
(102.961 -12.6135 0)
(102.551 7.42303 0)
(105.344 -0.322357 0)
(-196.848 92.5903 0)
(206.995 -105.606 0)
(-45.7971 -71.9578 0)
(95.2897 33.9573 0)
(-40.3953 -25.4168 0)
(57.5667 50.2635 0)
(-62.7116 -40.9512 0)
(35.425 33.9991 0)
(-75.0219 -24.5315 0)
(-16.3438 35.0962 0)
(-89.7306 -56.0764 0)
(-36.8038 52.4585 0)
(-89.9582 -57.1164 0)
(-41.0722 35.6372 0)
(-97.7969 -25.2143 0)
(-60.6523 27.8151 0)
(-90.5288 -25.3643 0)
(130.105 0.862303 0)
(5.78486 -17.6741 0)
(161.696 38.6999 0)
(-33.6965 -39.8229 0)
(-156.511 19.7804 0)
(34.3598 14.6112 0)
(12.544 -14.322 0)
(63.2016 36.021 0)
(-18.138 -29.0507 0)
(12.2224 39.6551 0)
(-45.5127 -37.0385 0)
(-16.2637 51.6434 0)
(-56.9467 -35.8934 0)
(-17.125 57.6048 0)
(-89.6752 -50.6947 0)
(19.5279 51.4663 0)
(-137.069 -40.2675 0)
(-75.0805 32.237 0)
(-164.887 -32.4728 0)
(-69.241 -2.179 0)
(112.453 -26.187 0)
(153.301 6.85169 0)
(76.356 9.03345 0)
(-157.243 86.6757 0)
(188.605 -103.877 0)
(-48.5504 -74.6473 0)
(74.994 21.3714 0)
(-39.8025 -21.584 0)
(36.9204 51.6322 0)
(-69.1649 -32.0257 0)
(7.37962 43.2128 0)
(-70.4051 -22.8126 0)
(6.44562 39.6945 0)
(-83.58 -56.8413 0)
(-3.67725 54.78 0)
(-62.7047 -56.0906 0)
(-22.0412 43.7627 0)
(-124.231 -20.7634 0)
(9.19842 27.9764 0)
(-55.3992 -39.6386 0)
(85.6546 -9.39746 0)
(-80.7243 -14.7159 0)
(147.912 50.7314 0)
(-21.1633 -26.233 0)
(-148.329 11.5853 0)
(26.548 4.31811 0)
(4.26439 -3.06112 0)
(58.695 33.9665 0)
(-41.7962 -25.259 0)
(3.41254 37.9411 0)
(-58.1358 -33.2825 0)
(-3.91015 50.7996 0)
(-39.9552 -37.7643 0)
(-5.46544 60.8189 0)
(-60.9151 -55.7211 0)
(14.5956 53.0389 0)
(-101.56 -34.5909 0)
(-21.1038 32.3679 0)
(-81.6244 -29.0519 0)
(12.4582 -9.79814 0)
(22.5532 -29.574 0)
(61.262 7.71761 0)
(50.5455 16.6966 0)
(-131.574 82.5409 0)
(175.592 -100.217 0)
(-48.0574 -75.1931 0)
(54.264 18.3792 0)
(-42.8271 -11.2101 0)
(29.8635 51.8211 0)
(-67.1886 -27.6164 0)
(8.69951 42.6824 0)
(-63.5001 -23.4468 0)
(24.4984 40.4224 0)
(-68.4567 -56.0682 0)
(14.5478 55.5403 0)
(-51.4535 -53.1707 0)
(5.39308 44.0239 0)
(-89.323 -24.1025 0)
(29.451 18.5401 0)
(-34.704 -43.3304 0)
(46.6968 -10.7066 0)
(-115.805 -14.5589 0)
(133.327 53.7356 0)
(-12.0775 -14.7247 0)
(-143.458 3.57102 0)
(16.6496 -5.02895 0)
(-5.94662 -6.59419 0)
(46.7908 30.9532 0)
(-46.9579 -20.4601 0)
(6.6596 38.2353 0)
(-62.2917 -32.375 0)
(3.24917 47.6886 0)
(-32.537 -38.3607 0)
(-0.172944 63.3293 0)
(-45.4846 -59.3203 0)
(6.37176 53.178 0)
(-74.8552 -34.0121 0)
(-3.82409 33.1159 0)
(-26.9089 -23.342 0)
(39.6389 -12.6557 0)
(-31.8715 -29.5639 0)
(0.117231 9.79451 0)
(38.3087 17.646 0)
(-113.887 77.6092 0)
(166.501 -94.6071 0)
(-48.7225 -73.673 0)
(30.856 24.6381 0)
(-51.773 -5.90155 0)
(29.5864 52.0148 0)
(-71.5816 -24.761 0)
(12.3533 41.6376 0)
(-64.4498 -23.855 0)
(28.1209 38.5556 0)
(-62.5365 -54.8633 0)
(17.2781 56.5558 0)
(-50.8718 -51.773 0)
(18.4297 48.3208 0)
(-58.0041 -27.2607 0)
(41.9587 10.7813 0)
(-36.7735 -41.6865 0)
(30.4176 -8.2469 0)
(-123.773 -8.87787 0)
(123.429 52.7463 0)
(-4.85824 -4.08445 0)
(-140.832 -3.89836 0)
(8.14273 -10.0346 0)
(-42.4596 -9.07216 0)
(29.5139 31.0544 0)
(-53.721 -17.1315 0)
(3.56991 38.8135 0)
(-62.981 -30.9565 0)
(3.43671 43.9527 0)
(-41.8255 -38.1713 0)
(4.01507 64.9947 0)
(-40.9904 -61.338 0)
(1.23342 54.9212 0)
(-57.3559 -37.8009 0)
(3.37045 30.8725 0)
(-2.13419 -23.706 0)
(35.0777 -13.1935 0)
(-37.4629 -29.4759 0)
(-13.3415 1.96724 0)
(33.0679 15.504 0)
(-101.155 72.5275 0)
(160.991 -87.8855 0)
(-52.4534 -69.2592 0)
(-19.3358 27.8007 0)
(-69.5099 -5.68048 0)
(20.8152 52.1219 0)
(-77.2381 -22.7713 0)
(12.5069 39.8867 0)
(-70.0032 -23.4745 0)
(17.3693 36.6194 0)
(-60.8515 -53.9928 0)
(19.5147 56.9645 0)
(-52.3284 -52.3784 0)
(13.4639 50.4377 0)
(-49.3414 -27.8659 0)
(49.8747 8.28584 0)
(-36.4639 -38.4048 0)
(22.1858 -4.63595 0)
(-119.629 -5.62247 0)
(115.153 50.6416 0)
(1.15242 5.75854 0)
(-139.448 -10.1385 0)
(5.21921 -9.5767 0)
(-98.5876 -10.0847 0)
(31.1744 28.4682 0)
(-67.5704 -15.6755 0)
(4.82609 39.0711 0)
(-69.3932 -29.5453 0)
(3.61296 41.1588 0)
(-50.5438 -38.7206 0)
(7.53173 64.5571 0)
(-33.4151 -62.1047 0)
(11.1335 56.1206 0)
(-52.1779 -37.9406 0)
(12.3256 24.4761 0)
(6.13564 -22.4573 0)
(30.4877 -12.8205 0)
(-39.5107 -28.8365 0)
(-9.1871 -3.10452 0)
(28.0781 13.7542 0)
(-91.0075 67.24 0)
(157.403 -80.719 0)
(-55.4727 -62.0773 0)
(-41.0773 28.4713 0)
(-76.8203 -8.37261 0)
(7.38668 52.4393 0)
(-76.6147 -21.9021 0)
(5.88668 38.3181 0)
(-72.2635 -23.0162 0)
(7.03315 35.2215 0)
(-59.698 -53.128 0)
(16.022 56.8826 0)
(-55.445 -52.4238 0)
(20.331 47.3621 0)
(-44.9735 -28.4912 0)
(58.9273 3.118 0)
(-33.2304 -34.1114 0)
(11.2935 -1.58169 0)
(-114.922 -5.60388 0)
(105.944 49.5158 0)
(6.82127 14.8255 0)
(-137.947 -15.3402 0)
(9.1658 -5.82215 0)
(-125.239 -10.5095 0)
(46.944 24.2275 0)
(-80.6375 -14.8445 0)
(11.3702 39.6044 0)
(-79.126 -28.5059 0)
(8.08432 39.0011 0)
(-56.8142 -39.1018 0)
(9.783 62.2086 0)
(-32.4092 -62.5738 0)
(16.9188 56.6385 0)
(-43.2987 -34.2278 0)
(14.1311 21.2905 0)
(5.58139 -18.5428 0)
(24.4675 -11.0623 0)
(-34.9761 -27.1219 0)
(-9.06037 -5.75496 0)
(23.0581 12.7573 0)
(-81.7302 61.7271 0)
(154.306 -73.2823 0)
(-56.8186 -54.2971 0)
(-39.0687 29.3463 0)
(-81.0696 -11.6912 0)
(-2.95079 53.0631 0)
(-76.0101 -22.2436 0)
(-0.27924 37.6482 0)
(-70.4934 -23.4031 0)
(0.861253 34.0689 0)
(-59.1503 -52.0918 0)
(17.2096 55.4045 0)
(-55.1653 -51.3845 0)
(18.4367 41.4857 0)
(-40.5566 -29.1469 0)
(53.3065 -1.64522 0)
(-35.4977 -30.3756 0)
(7.7725 0.427884 0)
(-106.158 -7.57453 0)
(96.9503 48.4904 0)
(12.8318 23.1246 0)
(-136.241 -19.9776 0)
(17.8677 -0.590117 0)
(-134.193 -13.0296 0)
(57.1967 21.9602 0)
(-89.3758 -14.182 0)
(18.1261 41.0403 0)
(-88.8358 -28.6815 0)
(17.1755 37.5071 0)
(-60.9243 -38.9231 0)
(14.4204 59.1443 0)
(-36.9949 -61.5812 0)
(13.5519 53.8437 0)
(-36.6534 -27.9917 0)
(20.6783 16.5002 0)
(-4.98299 -16.6622 0)
(23.2514 -9.06769 0)
(-34.6571 -24.9977 0)
(-7.13317 -8.56499 0)
(17.559 11.7104 0)
(-72.643 55.8819 0)
(151.351 -65.5786 0)
(-55.2618 -47.6632 0)
(-33.3725 33.676 0)
(-87.1111 -16.3957 0)
(-8.62745 53.8049 0)
(-77.9887 -23.5752 0)
(-5.49317 37.752 0)
(-63.9012 -24.9847 0)
(-1.56515 33.2861 0)
(-55.139 -51.3566 0)
(17.7969 53.1716 0)
(-48.868 -46.3893 0)
(19.7339 33.4998 0)
(-36.5448 -28.2079 0)
(46.1717 -3.12936 0)
(-40.0683 -27.7388 0)
(4.98733 1.99774 0)
(-100.723 -8.70209 0)
(88.2455 47.3083 0)
(19.4963 30.6888 0)
(-134.899 -24.528 0)
(29.5849 5.86723 0)
(-138.031 -18.5444 0)
(60.205 22.5557 0)
(-94.0502 -14.2465 0)
(20.2757 43.331 0)
(-95.1406 -30.6426 0)
(29.5237 36.3851 0)
(-62.7562 -38.3978 0)
(25.1692 56.0067 0)
(-39.4575 -59.889 0)
(15.5143 47.1177 0)
(-30.2881 -22.2961 0)
(21.7511 13.3648 0)
(-12.1113 -16.209 0)
(21.4745 -6.7636 0)
(-31.9551 -23.0026 0)
(-4.97365 -12.297 0)
(12.1677 10.7509 0)
(-63.8535 49.6092 0)
(148.554 -57.6677 0)
(-48.5251 -43.3805 0)
(-26.1764 42.3273 0)
(-101.184 -21.9869 0)
(-12.1285 54.872 0)
(-74.9673 -24.8013 0)
(-11.8176 37.6725 0)
(-49.8366 -27.4125 0)
(-3.07471 32.5657 0)
(-38.5222 -51.0311 0)
(27.0651 51.1234 0)
(-43.3238 -39.4229 0)
(27.0359 28.149 0)
(-34.8668 -27.5933 0)
(33.3012 -2.60736 0)
(-45.1731 -26.0191 0)
(0.039898 3.19239 0)
(-97.2971 -9.08263 0)
(80.1298 45.9984 0)
(27.0531 37.5527 0)
(-134.24 -29.4236 0)
(43.0986 14.8802 0)
(-144.006 -25.8253 0)
(71.1374 25.9071 0)
(-92.5346 -15.9349 0)
(19.9771 45.3298 0)
(-97.8532 -33.5547 0)
(43.478 34.5503 0)
(-61.6037 -37.5832 0)
(40.2224 53.3891 0)
(-34.6781 -56.8367 0)
(16.9977 40.8812 0)
(-25.1253 -20.3528 0)
(28.0268 12.3052 0)
(-26.591 -16.9056 0)
(18.8141 -4.81598 0)
(-31.8645 -21.2651 0)
(-5.06065 -16.2441 0)
(7.04996 9.77009 0)
(-55.9633 42.8733 0)
(146.248 -49.8642 0)
(-35.7451 -43.5766 0)
(-27.2784 55.3984 0)
(-101.37 -30.1953 0)
(-13.7362 55.8533 0)
(-69.5975 -24.1493 0)
(-1.715 34.319 0)
(-29.3374 -29.5346 0)
(-1.68305 33.0255 0)
(-45.2653 -51.6785 0)
(28.7199 48.172 0)
(-42.4249 -36.0205 0)
(35.0798 26.3823 0)
(-37.4075 -26.4885 0)
(28.5444 -1.02245 0)
(-49.2714 -25.2493 0)
(-3.44101 4.23659 0)
(-95.0806 -9.20977 0)
(72.4534 44.3731 0)
(36.1327 43.6594 0)
(-132.585 -34.8484 0)
(54.7084 29.6561 0)
(-131.581 -35.9115 0)
(82.2233 32.743 0)
(-90.0043 -16.771 0)
(24.7489 43.6133 0)
(-67.8664 -37.9962 0)
(30.5033 32.12 0)
(-55.445 -34.3638 0)
(28.7709 49.2812 0)
(-39.7302 -54.047 0)
(17.6019 38.5359 0)
(-21.2253 -20.5481 0)
(31.1194 12.3775 0)
(-31.0524 -16.97 0)
(16.4006 -2.87164 0)
(-35.0934 -19.9291 0)
(-6.08059 -20.2034 0)
(2.06412 8.6126 0)
(-49.4256 35.6425 0)
(146.428 -42.5276 0)
(-36.877 -51.9208 0)
(-52.2236 71.088 0)
(-85.9218 -45.3427 0)
(-11.925 55.4733 0)
(-52.7922 -22.007 0)
(44.0065 31.6751 0)
(-12.9579 -25.5774 0)
(3.7601 31.4623 0)
(-40.7388 -51.7273 0)
(32.5526 45.9114 0)
(-43.2386 -34.1806 0)
(40.428 24.5869 0)
(-36.0272 -24.8529 0)
(21.5625 -0.059364 0)
(-54.2945 -24.4483 0)
(-9.47614 5.41793 0)
(-94.5396 -9.36596 0)
(64.9912 42.2797 0)
(46.8058 48.7006 0)
(-128.929 -39.3101 0)
(49.6173 54.2201 0)
(-111.826 -46.4482 0)
(54.8197 46.0073 0)
(-92.1213 -15.8494 0)
(48.2235 36.5304 0)
(-25.9482 -26.4705 0)
(-15.8999 23.9642 0)
(-14.4134 -30.3411 0)
(35.7261 48.9061 0)
(-31.7254 -51.1946 0)
(18.9222 32.3126 0)
(-18.7827 -19.8024 0)
(31.0171 13.2503 0)
(-27.8941 -15.8408 0)
(13.0105 -1.24007 0)
(-34.8968 -18.923 0)
(-7.67399 -23.9061 0)
(-2.59457 7.26041 0)
(-42.4361 28.0384 0)
(149.257 -33.9616 0)
(-84.7537 -69.7312 0)
(-41.7616 83.5395 0)
(-82.9686 -70.4725 0)
(-13.7406 49.3189 0)
(-30.7465 -18.5085 0)
(-7.38265 19.3387 0)
(-8.77863 -27.0407 0)
(29.8218 27.2317 0)
(-29.9521 -50.7247 0)
(44.5398 42.6339 0)
(-34.0737 -26.9697 0)
(38.4518 22.1322 0)
(-30.1437 -23.3942 0)
(13.7705 0.501154 0)
(-59.0086 -23.039 0)
(-22.5038 6.38634 0)
(-95.3166 -10.1382 0)
(57.83 39.6024 0)
(55.8871 52.3353 0)
(-136.569 -36.3316 0)
(15.6226 70.834 0)
(-138.312 -51.7911 0)
(11.8788 70.2952 0)
(-104.723 -13.3708 0)
(45.9546 22.1853 0)
(15.7685 -24.7663 0)
(58.8258 33.6162 0)
(-12.8364 -17.8924 0)
(45.3409 47.5374 0)
(-20.6036 -44.5 0)
(19.4405 21.7928 0)
(-19.8043 -18.7294 0)
(32.2043 14.6837 0)
(-21.2041 -13.7509 0)
(10.3053 0.362397 0)
(-26.1051 -17.5202 0)
(-10.9252 -26.7024 0)
(-6.60045 5.70136 0)
(-33.251 20.72 0)
(150.587 -21.9689 0)
(-198.161 -56.605 0)
(5.72964 82.2568 0)
(-22.2604 -97.3333 0)
(-8.65617 32.7211 0)
(5.50819 -8.77665 0)
(71.2297 20.4405 0)
(13.608 -40.6408 0)
(57.9606 14.9964 0)
(-17.224 -48.8802 0)
(51.0089 32.924 0)
(-10.2494 -16.3233 0)
(37.2391 19.6468 0)
(-21.8183 -22.2569 0)
(6.33874 1.07868 0)
(-63.2004 -21.5463 0)
(-39.7433 6.37216 0)
(-96.4908 -12.0756 0)
(51.2543 36.2435 0)
(62.0417 55.2268 0)
(-163.502 -29.2538 0)
(45.9928 62.7685 0)
(-134.127 -53.6249 0)
(27.583 93.4526 0)
(-145.658 -1.19004 0)
(127.284 7.00444 0)
(-5.92896 -17.3094 0)
(37.7067 37.7444 0)
(-6.82363 -6.1353 0)
(46.8021 45.0189 0)
(-10.6595 -31.757 0)
(20.3385 17.6974 0)
(-18.8319 -16.7739 0)
(39.0207 16.3111 0)
(-10.3985 -10.6531 0)
(13.8005 2.73582 0)
(-5.5883 -14.7699 0)
(-16.0921 -27.931 0)
(-9.94548 3.89669 0)
(-27.6454 13.8742 0)
(132.567 -13.45 0)
(-218.389 -41.2676 0)
(-19.4849 74.2801 0)
(103.664 -90.89 0)
(11.8362 -6.1015 0)
(20.2432 -9.45158 0)
(45.8911 6.18795 0)
(-15.6266 -40.3703 0)
(49.1059 7.82789 0)
(-10.2695 -40.6836 0)
(54.6657 20.5969 0)
(-0.516036 -17.6184 0)
(49.895 16.3008 0)
(-9.72393 -20.2149 0)
(-0.457621 1.36566 0)
(-66.6917 -21.2909 0)
(-52.8181 4.95036 0)
(-95.8022 -15.1174 0)
(45.6283 32.2169 0)
(72.9707 59.8934 0)
(-232.95 -11.6455 0)
(3.76529 60.085 0)
(-30.1576 -63.6572 0)
(78.7402 69.4026 0)
(-125.922 15.8315 0)
(85.6118 0.496679 0)
(-6.22076 -3.18236 0)
(37.8589 36.1773 0)
(-14.5229 2.46319 0)
(51.8764 36.7476 0)
(6.41116 -20.1336 0)
(32.5528 23.4799 0)
(-11.0898 -13.3676 0)
(48.8764 17.8812 0)
(5.16911 -5.62116 0)
(26.9767 6.57383 0)
(30.9495 -10.0924 0)
(-20.2431 -26.9153 0)
(-13.5817 1.82897 0)
(-39.4074 10.6551 0)
(151.208 8.02127 0)
(110.24 -61.6122 0)
(96.083 27.3433 0)
(109.115 -63.0637 0)
(19.1296 5.61069 0)
(-32.3967 -23.826 0)
(36.6577 7.56414 0)
(1.26919 -33.1904 0)
(53.2247 -1.35292 0)
(13.6161 -36.5345 0)
(60.0624 12.0163 0)
(11.2224 -23.6578 0)
(52.9626 10.5079 0)
(27.4194 -19.661 0)
(-10.4617 -0.732374 0)
(-68.7082 -23.8539 0)
(-52.3101 2.01409 0)
(-88.2181 -18.2925 0)
(41.4842 27.797 0)
(78.3063 63.7378 0)
(-108.901 -35.7949 0)
(48.6077 54.9456 0)
(-120.434 -24.5336 0)
(69.6983 53.046 0)
(-7.20166 0.514949 0)
(49.5421 25.2047 0)
(-34.6188 -2.34934 0)
(51.012 28.007 0)
(-21.651 5.78526 0)
(55.0191 32.9349 0)
(18.0007 -13.145 0)
(37.3711 32.1179 0)
(6.77144 -10.5432 0)
(38.3006 24.4138 0)
(29.4032 -0.215013 0)
(42.9295 12.5095 0)
(81.9369 -3.51582 0)
(-15.8587 -23.124 0)
(-20.6607 -0.366534 0)
(-24.0909 2.57595 0)
(103.509 8.23817 0)
(133.615 -34.9778 0)
(160.164 19.9996 0)
(75.4108 -57.2666 0)
(69.4093 25.6568 0)
(45.0603 -41.5164 0)
(70.6709 -0.830634 0)
(41.5899 -31.6464 0)
(76.7036 -0.76683 0)
(38.6755 -36.4959 0)
(84.2163 7.37848 0)
(26.5336 -30.6727 0)
(76.2633 7.70279 0)
(20.8011 -25.2921 0)
(86.1149 3.85027 0)
(-69.4876 -28.1984 0)
(-25.284 -4.16853 0)
(-69.6989 -19.4934 0)
(39.6922 23.5511 0)
(91.4442 58.396 0)
(-1.96153 -34.8827 0)
(18.4562 33.846 0)
(94.9443 -29.2626 0)
(54.9299 56.2574 0)
(22.9314 -3.3522 0)
(0.395533 29.5634 0)
(33.2542 -8.4148 0)
(68.8609 27.9921 0)
(-12.205 0.85312 0)
(60.0238 28.6449 0)
(18.7035 -9.14068 0)
(46.151 37.3039 0)
(9.58018 -13.132 0)
(64.2193 32.948 0)
(-0.320104 -8.07755 0)
(62.9712 16.9214 0)
(122.009 10.9964 0)
(4.15949 -15.1801 0)
(-37.8633 -2.36375 0)
(-8.49847 -4.17496 0)
(101.41 7.59983 0)
(106.483 -43.0173 0)
(82.5244 19.3302 0)
(88.5338 -41.4314 0)
(59.7236 27.4711 0)
(68.7341 -28.9302 0)
(105.184 2.61176 0)
(61.3574 -31.1529 0)
(99.4046 8.93782 0)
(54.6959 -31.7926 0)
(100.117 5.73536 0)
(32.1466 -29.8771 0)
(109.078 11.3711 0)
(15.3037 -30.338 0)
(122.016 18.5293 0)
(0.395369 -34.4287 0)
(-13.1121 -10.9601 0)
(-53.8721 -18.8907 0)
(40.2314 19.4809 0)
(102.468 45.965 0)
(21.5434 -32.5183 0)
(-77.997 34.4941 0)
(-5.26943 -17.8959 0)
(-76.9974 40.5694 0)
(49.4123 -4.11674 0)
(86.687 18.4187 0)
(32.5282 -8.52 0)
(34.2577 26.4668 0)
(15.3007 -7.61336 0)
(35.9677 24.0083 0)
(-39.2989 -10.3864 0)
(35.1028 31.5161 0)
(20.4237 -15.3293 0)
(26.5824 29.5989 0)
(31.253 -12.6294 0)
(65.044 24.409 0)
(-23.8495 6.75398 0)
(11.8865 -10.2461 0)
(-71.064 -4.08754 0)
(7.40297 -11.9204 0)
(101.298 10.1873 0)
(119.826 -34.7582 0)
(86.3463 10.1819 0)
(114.802 -29.2466 0)
(47.0326 19.1733 0)
(46.7726 -25.5685 0)
(46.4247 8.45762 0)
(34.7163 -23.8307 0)
(53.1575 16.4209 0)
(54.9918 -24.8103 0)
(67.9287 13.1765 0)
(53.9188 -25.7397 0)
(80.6487 12.2019 0)
(47.7475 -20.8087 0)
(101.988 7.67271 0)
(29.1758 -14.7454 0)
(91.8131 1.83644 0)
(-26.5542 -16.9357 0)
(38.9733 16.0209 0)
(132.411 32.8372 0)
(55.6543 -17.1226 0)
(-85.2846 31.3045 0)
(38.9651 -18.346 0)
(-120.265 26.6684 0)
(134.689 -12.3315 0)
(1.45263 20.8107 0)
(80.1064 -13.5323 0)
(-2.10065 19.2713 0)
(31.6077 -11.7532 0)
(62.3835 22.8935 0)
(-23.0841 -12.1763 0)
(32.3043 24.4986 0)
(11.6691 -13.5362 0)
(-39.7635 20.8778 0)
(97.255 -5.64937 0)
(-55.7559 9.94597 0)
(130.57 -1.26838 0)
(2.34348 8.92729 0)
(-123.91 -6.62575 0)
)
;

boundaryField
{
    piston
    {
        type            movingWallVelocity;
        value           nonuniform List<vector> 
40
(
(2.18072 -8.67362e-17 0)
(2.18072 0 0)
(2.18072 -6.93889e-16 -1.38778e-15)
(2.18072 0 0)
(2.18072 -6.93889e-16 -1.38778e-15)
(2.18072 -1.38778e-15 -1.38778e-15)
(2.18072 -1.38778e-15 -1.38778e-15)
(2.18072 0 0)
(2.18072 -1.38778e-15 -1.38778e-15)
(2.18072 -1.38778e-15 -1.38778e-15)
(2.18072 0 0)
(2.18072 -2.77556e-15 -1.38778e-15)
(2.18072 0 0)
(2.18072 0 -1.38778e-15)
(2.18072 0 0)
(2.18072 0 -1.38778e-15)
(2.18072 0 -1.38778e-15)
(2.18072 0 0)
(2.18072 -2.77556e-15 -1.38778e-15)
(2.18072 0 0)
(2.18072 0 -1.38778e-15)
(2.18072 0 -1.38778e-15)
(2.18072 0 0)
(2.18072 -5.55112e-15 -1.38778e-15)
(2.18072 0 -1.38778e-15)
(2.18072 0 -1.38778e-15)
(2.18072 0 -1.38778e-15)
(2.18072 0 0)
(2.18072 0 -1.38778e-15)
(2.18072 0 -1.38778e-15)
(2.18072 0 -1.38778e-15)
(2.18072 -5.55112e-15 -1.38778e-15)
(2.18072 -5.55112e-15 0)
(2.18072 0 -1.38778e-15)
(2.18072 0 -1.38778e-15)
(2.18072 -5.55112e-15 -1.38778e-15)
(2.18072 -5.55112e-15 -1.38778e-15)
(2.18072 -5.55112e-15 0)
(2.18072 0 -1.38778e-15)
(2.18072 -5.55112e-15 -1.38778e-15)
)
;
    }
    outlet
    {
        type            noSlip;
    }
    walls
    {
        type            movingWallVelocity;
        value           nonuniform List<vector> 
40
(
(2.07169 0 2.77556e-15)
(1.85361 0 -1.38778e-15)
(1.63554 0 0)
(1.41747 0 1.38778e-15)
(1.1994 0 2.77556e-15)
(0.981325 0 1.38778e-15)
(0.763253 0 1.38778e-15)
(0.54518 0 1.38778e-15)
(0.327108 0 0)
(0.109036 0 0)
(0 0 -1.38778e-15)
(0 0 0)
(0 0 0)
(1.11022e-14 0 0)
(-1.11022e-14 0 -1.38778e-15)
(-2.22045e-14 0 -1.38778e-15)
(-2.22045e-14 0 -1.38778e-15)
(0 0 0)
(-2.22045e-14 0 -1.38778e-15)
(-2.22045e-14 0 -1.38778e-15)
(2.07169 0 -4.16334e-15)
(1.85361 1.87869e-15 -4.16334e-15)
(1.63554 0 0)
(1.41747 0 -4.16334e-15)
(1.1994 0 -1.38778e-15)
(0.981325 1.87869e-15 -2.77556e-15)
(0.763253 3.70074e-15 0)
(0.54518 0 -1.38778e-15)
(0.327108 0 0)
(0.109036 0 0)
(-1.38778e-15 0 0)
(0 0 0)
(-1.11022e-14 0 -1.38778e-15)
(0 0 0)
(-1.11022e-14 0 -1.38778e-15)
(-2.22045e-14 0 -1.38778e-15)
(-2.22045e-14 0 -1.38778e-15)
(0 0 0)
(-2.22045e-14 0 -1.38778e-15)
(-2.22045e-14 0 -1.38778e-15)
)
;
    }
    front
    {
        type            empty;
    }
    back
    {
        type            empty;
    }
}


// ************************************************************************* //
