# vtk DataFile Version 2.0
bottom_cyc
ASCII
DATASET POLYDATA
POINTS 202 float
-10 -7.5 0 -9.8 -7.5 0 -9.8 -7.5 1 -10 -7.5
1 -9.6 -7.5 0 -9.6 -7.5 1 -9.4 -7.5 0
-9.4 -7.5 1 -9.2 -7.5 0 -9.2 -7.5 1 -9
-7.5 0 -9 -7.5 1 -8.8 -7.5 0 -8.8 -7.5
1 -8.6 -7.5 0 -8.6 -7.5 1 -8.4 -7.5 0
-8.4 -7.5 1 -8.2 -7.5 0 -8.2 -7.5 1 -8
-7.5 0 -8 -7.5 1 -7.8 -7.5 0 -7.8 -7.5
1 -7.6 -7.5 0 -7.6 -7.5 1 -7.4 -7.5 0
-7.4 -7.5 1 -7.2 -7.5 0 -7.2 -7.5 1 -7
-7.5 0 -7 -7.5 1 -6.8 -7.5 0 -6.8 -7.5
1 -6.6 -7.5 0 -6.6 -7.5 1 -6.4 -7.5 0
-6.4 -7.5 1 -6.2 -7.5 0 -6.2 -7.5 1 -6
-7.5 0 -6 -7.5 1 -5.8 -7.5 0 -5.8 -7.5
1 -5.6 -7.5 0 -5.6 -7.5 1 -5.4 -7.5 0
-5.4 -7.5 1 -5.2 -7.5 0 -5.2 -7.5 1 -5
-7.5 0 -5 -7.5 1 -4.8 -7.5 0 -4.8 -7.5
1 -4.6 -7.5 0 -4.6 -7.5 1 -4.4 -7.5 0
-4.4 -7.5 1 -4.2 -7.5 0 -4.2 -7.5 1 -4
-7.5 0 -4 -7.5 1 -3.8 -7.5 0 -3.8 -7.5
1 -3.6 -7.5 0 -3.6 -7.5 1 -3.4 -7.5 0
-3.4 -7.5 1 -3.2 -7.5 0 -3.2 -7.5 1 -3
-7.5 0 -3 -7.5 1 -2.8 -7.5 0 -2.8 -7.5
1 -2.6 -7.5 0 -2.6 -7.5 1 -2.4 -7.5 0
-2.4 -7.5 1 -2.2 -7.5 0 -2.2 -7.5 1 -2
-7.5 0 -2 -7.5 1 -1.8 -7.5 0 -1.8 -7.5
1 -1.6 -7.5 0 -1.6 -7.5 1 -1.4 -7.5 0
-1.4 -7.5 1 -1.2 -7.5 0 -1.2 -7.5 1 -1
-7.5 0 -1 -7.5 1 -0.8 -7.5 0 -0.8 -7.5
1 -0.6 -7.5 0 -0.6 -7.5 1 -0.4 -7.5 0
-0.4 -7.5 1 -0.2 -7.5 0 -0.2 -7.5 1 -1.23261e-11
-7.5 0 -1.23261e-11 -7.5 1 0.2 -7.5 0 0.2 -7.5
1 0.4 -7.5 0 0.4 -7.5 1 0.6 -7.5 0
0.6 -7.5 1 0.8 -7.5 0 0.8 -7.5 1 1
-7.5 0 1 -7.5 1 1.2 -7.5 0 1.2 -7.5
1 1.4 -7.5 0 1.4 -7.5 1 1.6 -7.5 0
1.6 -7.5 1 1.8 -7.5 0 1.8 -7.5 1 2
-7.5 0 2 -7.5 1 2.2 -7.5 0 2.2 -7.5
1 2.4 -7.5 0 2.4 -7.5 1 2.6 -7.5 0
2.6 -7.5 1 2.8 -7.5 0 2.8 -7.5 1 3
-7.5 0 3 -7.5 1 3.2 -7.5 0 3.2 -7.5
1 3.4 -7.5 0 3.4 -7.5 1 3.6 -7.5 0
3.6 -7.5 1 3.8 -7.5 0 3.8 -7.5 1 4
-7.5 0 4 -7.5 1 4.2 -7.5 0 4.2 -7.5
1 4.4 -7.5 0 4.4 -7.5 1 4.6 -7.5 0
4.6 -7.5 1 4.8 -7.5 0 4.8 -7.5 1 5
-7.5 0 5 -7.5 1 5.2 -7.5 0 5.2 -7.5
1 5.4 -7.5 0 5.4 -7.5 1 5.6 -7.5 0
5.6 -7.5 1 5.8 -7.5 0 5.8 -7.5 1 6
-7.5 0 6 -7.5 1 6.2 -7.5 0 6.2 -7.5
1 6.4 -7.5 0 6.4 -7.5 1 6.6 -7.5 0
6.6 -7.5 1 6.8 -7.5 0 6.8 -7.5 1 7
-7.5 0 7 -7.5 1 7.2 -7.5 0 7.2 -7.5
1 7.4 -7.5 0 7.4 -7.5 1 7.6 -7.5 0
7.6 -7.5 1 7.8 -7.5 0 7.8 -7.5 1 8
-7.5 0 8 -7.5 1 8.2 -7.5 0 8.2 -7.5
1 8.4 -7.5 0 8.4 -7.5 1 8.6 -7.5 0
8.6 -7.5 1 8.8 -7.5 0 8.8 -7.5 1 9
-7.5 0 9 -7.5 1 9.2 -7.5 0 9.2 -7.5
1 9.4 -7.5 0 9.4 -7.5 1 9.6 -7.5 0
9.6 -7.5 1 9.8 -7.5 0 9.8 -7.5 1 10
-7.5 0 10 -7.5 1 
POLYGONS 100 500
4 0 1 2 3 4 1 4 5 2 4
4 6 7 5 4 6 8 9 7 4
8 10 11 9 4 10 12 13 11 4
12 14 15 13 4 14 16 17 15 4
16 18 19 17 4 18 20 21 19 4
20 22 23 21 4 22 24 25 23 4
24 26 27 25 4 26 28 29 27 4
28 30 31 29 4 30 32 33 31 4
32 34 35 33 4 34 36 37 35 4
36 38 39 37 4 38 40 41 39 4
40 42 43 41 4 42 44 45 43 4
44 46 47 45 4 46 48 49 47 4
48 50 51 49 4 50 52 53 51 4
52 54 55 53 4 54 56 57 55 4
56 58 59 57 4 58 60 61 59 4
60 62 63 61 4 62 64 65 63 4
64 66 67 65 4 66 68 69 67 4
68 70 71 69 4 70 72 73 71 4
72 74 75 73 4 74 76 77 75 4
76 78 79 77 4 78 80 81 79 4
80 82 83 81 4 82 84 85 83 4
84 86 87 85 4 86 88 89 87 4
88 90 91 89 4 90 92 93 91 4
92 94 95 93 4 94 96 97 95 4
96 98 99 97 4 98 100 101 99 4
100 102 103 101 4 102 104 105 103 4
104 106 107 105 4 106 108 109 107 4
108 110 111 109 4 110 112 113 111 4
112 114 115 113 4 114 116 117 115 4
116 118 119 117 4 118 120 121 119 4
120 122 123 121 4 122 124 125 123 4
124 126 127 125 4 126 128 129 127 4
128 130 131 129 4 130 132 133 131 4
132 134 135 133 4 134 136 137 135 4
136 138 139 137 4 138 140 141 139 4
140 142 143 141 4 142 144 145 143 4
144 146 147 145 4 146 148 149 147 4
148 150 151 149 4 150 152 153 151 4
152 154 155 153 4 154 156 157 155 4
156 158 159 157 4 158 160 161 159 4
160 162 163 161 4 162 164 165 163 4
164 166 167 165 4 166 168 169 167 4
168 170 171 169 4 170 172 173 171 4
172 174 175 173 4 174 176 177 175 4
176 178 179 177 4 178 180 181 179 4
180 182 183 181 4 182 184 185 183 4
184 186 187 185 4 186 188 189 187 4
188 190 191 189 4 190 192 193 191 4
192 194 195 193 4 194 196 197 195 4
196 198 199 197 4 198 200 201 199 
CELL_DATA 100
FIELD attributes 7
patchID 1 100 float
2 2 2 2 2 2 2 2 2 2 2
2 2 2 2 2 2 2 2 2 2
2 2 2 2 2 2 2 2 2 2
2 2 2 2 2 2 2 2 2 2
2 2 2 2 2 2 2 2 2 2
2 2 2 2 2 2 2 2 2 2
2 2 2 2 2 2 2 2 2 2
2 2 2 2 2 2 2 2 2 2
2 2 2 2 2 2 2 2 2 2
2 2 2 2 2 2 2 2 2 
mag(U) 1 100 float
0.999969 0.999969 0.99997 0.99997 0.99997 0.99997 0.99997 0.99997 0.99997 0.99997 0.99997
0.99997 0.99997 0.99997 0.99997 0.99997 0.99997 0.99997 0.99997 0.99997 0.99997
0.99997 0.99997 0.99997 0.99997 0.99997 0.99997 0.99997 0.99997 0.99997 0.99997
0.99997 0.99997 0.99997 0.99997 0.99997 0.99997 0.999969 0.999969 0.999969 0.999969
0.999969 0.99997 0.99997 0.999972 0.999973 0.999977 0.999982 0.999988 0.999996 1
1.00001 1.00002 1.00002 1.00001 0.999999 0.999992 0.999987 0.999987 1 1.00003
1.00008 1.00016 1.00025 1.00038 1.00051 1.00066 1.00081 1.00094 1.00107 1.00117
1.00124 1.00127 1.00127 1.00123 1.00117 1.00107 1.00095 1.00083 1.00071 1.00059
1.00048 1.00038 1.00029 1.00021 1.00014 1.00009 1.00005 1.00003 1 0.999988
0.999978 0.999973 0.999969 0.999968 0.999968 0.999968 0.999968 0.999968 0.999969 
p 1 100 float
0.999999 0.999999 1 1 1 1 1 1 1 1 1
1 1 1 1 1 1 1 1 1 1
1 1 1 1 1 1 1 1 1 1
1 1 1 1 1 1 1 1 1 1
1.00001 1.00001 1.00001 1.00001 1.00001 1.00001 1 0.999995 0.999983 0.999972
0.999961 0.999958 0.999969 1 1.00007 1.00017 1.00032 1.00052 1.00076 1.00106
1.00137 1.00171 1.00205 1.00237 1.00266 1.0029 1.00308 1.0032 1.00323 1.0032
1.0031 1.00294 1.00273 1.00247 1.00219 1.0019 1.00162 1.00136 1.0011 1.00089
1.00069 1.00054 1.0004 1.00029 1.00021 1.00014 1.0001 1.00005 1.00004 1.00002
1.00001 1 0.999997 0.999996 0.999996 0.999997 0.999997 0.999999 0.999999 
T 1 100 float
1 1 1 1 1 1 1 1 1 1 1
1 1 1 1 1 1 1 1 1 1
1 1 1 1 1 1 1 1 1 1
1 1 1 1 1 1 1 1 1 1
1 1 1 1 1 1 1 1 1 1
1 1 1 1 1 1 1 1 1 1
1 1 1 1 1 1 1 1 1 1
1 1 1 1 1 1 1 1 1 1
1 1 1 1 1 1 1 1 1 1
1 1 1 1 1 1 1 1 1 
e 1 100 float
1006.29 1006.29 1006.29 1006.29 1006.29 1006.29 1006.29 1006.29 1006.29 1006.29 1006.29
1006.29 1006.29 1006.29 1006.29 1006.29 1006.29 1006.29 1006.29 1006.29 1006.29
1006.29 1006.29 1006.29 1006.29 1006.29 1006.29 1006.29 1006.29 1006.29 1006.29
1006.29 1006.29 1006.29 1006.29 1006.29 1006.29 1006.29 1006.29 1006.29 1006.29
1006.29 1006.29 1006.29 1006.29 1006.29 1006.29 1006.29 1006.29 1006.29 1006.29
1006.29 1006.29 1006.29 1006.29 1006.29 1006.29 1006.29 1006.29 1006.29 1006.29
1006.29 1006.29 1006.29 1006.29 1006.29 1006.29 1006.29 1006.29 1006.29 1006.29
1006.29 1006.29 1006.29 1006.29 1006.29 1006.29 1006.29 1006.29 1006.29 1006.29
1006.29 1006.29 1006.29 1006.29 1006.29 1006.29 1006.29 1006.29 1006.29 1006.29
1006.29 1006.29 1006.29 1006.29 1006.29 1006.29 1006.29 1006.29 1006.29 
rho 1 100 float
1.4 1.4 1.4 1.4 1.4 1.4 1.4 1.40001 1.4 1.40001 1.4
1.4 1.4 1.4 1.40001 1.4 1.40001 1.4 1.4 1.4 1.40001
1.4 1.4 1.4 1.40001 1.4 1.4 1.40001 1.4 1.4 1.40001
1.4 1.4 1.4 1.40001 1.40001 1.40001 1.40001 1.40001 1.40001 1.40001
1.40001 1.40001 1.40001 1.40001 1.40001 1.40001 1.40001 1.4 1.39998 1.39997
1.39996 1.39995 1.39996 1.40001 1.40009 1.40024 1.40045 1.40074 1.40108 1.40148
1.40192 1.4024 1.40287 1.40332 1.40372 1.40406 1.40431 1.40447 1.40453 1.40449
1.40435 1.40411 1.40382 1.40347 1.40307 1.40267 1.40227 1.4019 1.40155 1.40124
1.40098 1.40075 1.40056 1.40041 1.40029 1.4002 1.40013 1.40008 1.40005 1.40003
1.40001 1.4 1.4 1.4 1.4 1.4 1.4 1.4 1.4 
U 3 100 float
0.8944 0.447199 0 0.8944 0.447199 0 0.8944 0.4472 0 0.8944 0.4472
0 0.8944 0.4472 0 0.8944 0.4472 0 0.8944 0.4472 0
0.8944 0.4472 0 0.8944 0.4472 0 0.8944 0.4472 0 0.8944
0.4472 0 0.8944 0.4472 0 0.8944 0.4472 0 0.8944 0.4472
0 0.8944 0.4472 0 0.8944 0.4472 0 0.8944 0.4472 0
0.8944 0.4472 0 0.8944 0.4472 0 0.8944 0.4472 0 0.8944
0.4472 0 0.8944 0.4472 0 0.8944 0.4472 0 0.8944 0.4472
0 0.8944 0.4472 0 0.8944 0.4472 0 0.8944 0.4472 0
0.8944 0.4472 0 0.8944 0.4472 0 0.8944 0.4472 0 0.8944
0.4472 0 0.8944 0.4472 0 0.8944 0.4472 0 0.8944 0.4472
0 0.8944 0.4472 0 0.8944 0.4472 0 0.8944 0.4472 0
0.8944 0.4472 0 0.894399 0.447201 0 0.894399 0.447201 0 0.894399
0.447202 0 0.894398 0.447203 0 0.894397 0.447205 0 0.894397 0.447206
0 0.894398 0.447208 0 0.8944 0.44721 0 0.894403 0.44721 0
0.894409 0.44721 0 0.894418 0.447207 0 0.894428 0.447202 0 0.894439
0.447195 0 0.894449 0.447188 0 0.894455 0.447183 0 0.894453 0.447188
0 0.89444 0.447206 0 0.894411 0.447246 0 0.894366 0.447318 0
0.894306 0.447426 0 0.894232 0.447576 0 0.894151 0.447769 0 0.894069
0.448002 0 0.893993 0.448268 0 0.893932 0.448557 0 0.893892 0.448857
0 0.893878 0.449151 0 0.893893 0.449421 0 0.893938 0.449656 0
0.89401 0.449841 0 0.894105 0.449965 0 0.894215 0.450022 0 0.894333
0.450011 0 0.89445 0.449931 0 0.894558 0.449791 0 0.894651 0.449599
0 0.894723 0.449369 0 0.894773 0.449115 0 0.894801 0.448851 0
0.894807 0.44859 0 0.894795 0.448343 0 0.894769 0.448118 0 0.894733
0.447919 0 0.894691 0.447749 0 0.894647 0.447609 0 0.894603 0.447495
0 0.894562 0.447407 0 0.894525 0.447339 0 0.894494 0.447289 0
0.894467 0.447253 0 0.894446 0.447229 0 0.894431 0.447214 0 0.894419
0.447204 0 0.89441 0.447199 0 0.894405 0.447196 0 0.894402 0.447196
0 0.8944 0.447196 0 0.8944 0.447197 0 0.894399 0.447197 0
0.894399 0.447197 0 0.894399 0.447199 0 0.8944 0.447199 0 
POINT_DATA  202
FIELD attributes 6
mag(U) 1 202 float
0.999969 0.999969 0.999969 0.999969 0.99997 0.99997 0.99997 0.99997 0.99997 0.99997 0.99997
0.99997 0.99997 0.99997 0.99997 0.99997 0.99997 0.99997 0.99997 0.99997 0.99997
0.99997 0.99997 0.99997 0.99997 0.99997 0.99997 0.99997 0.99997 0.99997 0.99997
0.99997 0.99997 0.99997 0.99997 0.99997 0.99997 0.99997 0.99997 0.99997 0.99997
0.99997 0.99997 0.99997 0.99997 0.99997 0.99997 0.99997 0.99997 0.99997 0.99997
0.99997 0.99997 0.99997 0.99997 0.99997 0.99997 0.99997 0.99997 0.99997 0.99997
0.99997 0.99997 0.99997 0.99997 0.99997 0.99997 0.99997 0.99997 0.99997 0.99997
0.99997 0.99997 0.99997 0.99997 0.99997 0.999969 0.999969 0.999969 0.999969 0.999969
0.999969 0.999969 0.999969 0.99997 0.99997 0.99997 0.99997 0.999971 0.999971 0.999973
0.999973 0.999975 0.999975 0.99998 0.99998 0.999986 0.999986 0.999992 0.999992 1
1 1 1 1.00001 1.00001 1.00002 1.00002 1.00001 1.00001 1
1 0.999995 0.999995 0.999989 0.999989 0.999987 0.999987 0.999995 0.999995 1.00002
1.00002 1.00006 1.00006 1.00012 1.00012 1.00021 1.00021 1.00031 1.00031 1.00045
1.00045 1.00058 1.00058 1.00073 1.00073 1.00087 1.00087 1.00101 1.00101 1.00112
1.00112 1.0012 1.0012 1.00126 1.00126 1.00127 1.00127 1.00125 1.00125 1.0012
1.0012 1.00112 1.00112 1.00101 1.00101 1.0009 1.0009 1.00077 1.00077 1.00065
1.00065 1.00053 1.00053 1.00042 1.00042 1.00033 1.00033 1.00025 1.00025 1.00017
1.00017 1.00012 1.00012 1.00007 1.00007 1.00004 1.00004 1.00001 1.00001 0.999996
0.999996 0.999983 0.999983 0.999976 0.999976 0.999971 0.999971 0.999969 0.999969 0.999968
0.999968 0.999968 0.999968 0.999968 0.999968 0.999968 0.999968 0.999968 0.999968 0.999969
0.999969 
p 1 202 float
0.999999 0.999999 0.999999 0.999999 1 1 1 1 1 1 1
1 1 1 1 1 1 1 1 1 1
1 1 1 1 1 1 1 1 1 1
1 1 1 1 1 1 1 1 1 1
1 1 1 1 1 1 1 1 1 1
1 1 1 1 1 1 1 1 1 1
1 1 1 1 1 1 1 1 1 1
1 1 1 1 1 1 1 1 1 1
1 1 1 1.00001 1.00001 1.00001 1.00001 1.00001 1.00001 1.00001
1.00001 1.00001 1.00001 1 1 0.999997 0.999997 0.999989 0.999989 0.999978
0.999978 0.999967 0.999967 0.99996 0.99996 0.999964 0.999964 0.999986 0.999986 1.00004
1.00004 1.00012 1.00012 1.00025 1.00025 1.00042 1.00042 1.00064 1.00064 1.00091
1.00091 1.00121 1.00121 1.00154 1.00154 1.00188 1.00188 1.00221 1.00221 1.00251
1.00251 1.00278 1.00278 1.00299 1.00299 1.00314 1.00314 1.00321 1.00321 1.00322
1.00322 1.00315 1.00315 1.00302 1.00302 1.00283 1.00283 1.0026 1.0026 1.00233
1.00233 1.00205 1.00205 1.00177 1.00177 1.00149 1.00149 1.00123 1.00123 1.001
1.001 1.00079 1.00079 1.00062 1.00062 1.00047 1.00047 1.00034 1.00034 1.00025
1.00025 1.00017 1.00017 1.00012 1.00012 1.00007 1.00007 1.00004 1.00004 1.00003
1.00003 1.00001 1.00001 1.00001 1.00001 0.999999 0.999999 0.999997 0.999997 0.999996
0.999996 0.999996 0.999996 0.999997 0.999997 0.999998 0.999998 0.999999 0.999999 0.999999
0.999999 
T 1 202 float
1 1 1 1 1 1 1 1 1 1 1
1 1 1 1 1 1 1 1 1 1
1 1 1 1 1 1 1 1 1 1
1 1 1 1 1 1 1 1 1 1
1 1 1 1 1 1 1 1 1 1
1 1 1 1 1 1 1 1 1 1
1 1 1 1 1 1 1 1 1 1
1 1 1 1 1 1 1 1 1 1
1 1 1 1 1 1 1 1 1 1
1 1 1 1 1 1 1 1 1 1
1 1 1 1 1 1 1 1 1 1
1 1 1 1 1 1 1 1 1 1
1 1 1 1 1 1 1 1 1 1
1 1 1 1 1 1 1 1 1 1
1 1 1 1 1 1 1 1 1 1
1 1 1 1 1 1 1 1 1 1
1 1 1 1 1 1 1 1 1 1
1 1 1 1 1 1 1 1 1 1
1 1 1 1 1 1 1 1 1 1
1 1 1 1 1 1 1 1 1 1
1 
e 1 202 float
1006.29 1006.29 1006.29 1006.29 1006.29 1006.29 1006.29 1006.29 1006.29 1006.29 1006.29
1006.29 1006.29 1006.29 1006.29 1006.29 1006.29 1006.29 1006.29 1006.29 1006.29
1006.29 1006.29 1006.29 1006.29 1006.29 1006.29 1006.29 1006.29 1006.29 1006.29
1006.29 1006.29 1006.29 1006.29 1006.29 1006.29 1006.29 1006.29 1006.29 1006.29
1006.29 1006.29 1006.29 1006.29 1006.29 1006.29 1006.29 1006.29 1006.29 1006.29
1006.29 1006.29 1006.29 1006.29 1006.29 1006.29 1006.29 1006.29 1006.29 1006.29
1006.29 1006.29 1006.29 1006.29 1006.29 1006.29 1006.29 1006.29 1006.29 1006.29
1006.29 1006.29 1006.29 1006.29 1006.29 1006.29 1006.29 1006.29 1006.29 1006.29
1006.29 1006.29 1006.29 1006.29 1006.29 1006.29 1006.29 1006.29 1006.29 1006.29
1006.29 1006.29 1006.29 1006.29 1006.29 1006.29 1006.29 1006.29 1006.29 1006.29
1006.29 1006.29 1006.29 1006.29 1006.29 1006.29 1006.29 1006.29 1006.29 1006.29
1006.29 1006.29 1006.29 1006.29 1006.29 1006.29 1006.29 1006.29 1006.29 1006.29
1006.29 1006.29 1006.29 1006.29 1006.29 1006.29 1006.29 1006.29 1006.29 1006.29
1006.29 1006.29 1006.29 1006.29 1006.29 1006.29 1006.29 1006.29 1006.29 1006.29
1006.29 1006.29 1006.29 1006.29 1006.29 1006.29 1006.29 1006.29 1006.29 1006.29
1006.29 1006.29 1006.29 1006.29 1006.29 1006.29 1006.29 1006.29 1006.29 1006.29
1006.29 1006.29 1006.29 1006.29 1006.29 1006.29 1006.29 1006.29 1006.29 1006.29
1006.29 1006.29 1006.29 1006.29 1006.29 1006.29 1006.29 1006.29 1006.29 1006.29
1006.29 1006.29 1006.29 1006.29 1006.29 1006.29 1006.29 1006.29 1006.29 1006.29
1006.29 1006.29 1006.29 1006.29 1006.29 1006.29 1006.29 1006.29 1006.29 1006.29
1006.29 
rho 1 202 float
1.4 1.4 1.4 1.4 1.4 1.4 1.4 1.4 1.4 1.4 1.4
1.4 1.4 1.4 1.4 1.4 1.4 1.4 1.4 1.4 1.40001
1.40001 1.4 1.4 1.4 1.4 1.4 1.4 1.40001 1.40001 1.40001
1.40001 1.40001 1.40001 1.40001 1.40001 1.4 1.4 1.4 1.4 1.40001
1.40001 1.40001 1.40001 1.4 1.4 1.4 1.4 1.40001 1.40001 1.40001
1.40001 1.4 1.4 1.40001 1.40001 1.40001 1.40001 1.4 1.4 1.40001
1.40001 1.40001 1.40001 1.4 1.4 1.4 1.4 1.40001 1.40001 1.40001
1.40001 1.40001 1.40001 1.40001 1.40001 1.40001 1.40001 1.40001 1.40001 1.40001
1.40001 1.40001 1.40001 1.40001 1.40001 1.40001 1.40001 1.40001 1.40001 1.40001
1.40001 1.40001 1.40001 1.40001 1.40001 1.4 1.4 1.39999 1.39999 1.39997
1.39997 1.39996 1.39996 1.39995 1.39995 1.39995 1.39995 1.39998 1.39998 1.40005
1.40005 1.40017 1.40017 1.40035 1.40035 1.40059 1.40059 1.40091 1.40091 1.40128
1.40128 1.4017 1.4017 1.40216 1.40216 1.40263 1.40263 1.4031 1.4031 1.40352
1.40352 1.40389 1.40389 1.40419 1.40419 1.40439 1.40439 1.4045 1.4045 1.40451
1.40451 1.40442 1.40442 1.40423 1.40423 1.40396 1.40396 1.40364 1.40364 1.40327
1.40327 1.40287 1.40287 1.40247 1.40247 1.40209 1.40209 1.40173 1.40173 1.4014
1.4014 1.40111 1.40111 1.40086 1.40086 1.40066 1.40066 1.40049 1.40049 1.40035
1.40035 1.40024 1.40024 1.40016 1.40016 1.40011 1.40011 1.40007 1.40007 1.40004
1.40004 1.40002 1.40002 1.40001 1.40001 1.4 1.4 1.4 1.4 1.4
1.4 1.4 1.4 1.4 1.4 1.4 1.4 1.4 1.4 1.4
1.4 
U 3 202 float
0.8944 0.447199 0 0.8944 0.447199 0 0.8944 0.447199 0 0.8944 0.447199
0 0.8944 0.4472 0 0.8944 0.4472 0 0.8944 0.4472 0
0.8944 0.4472 0 0.8944 0.4472 0 0.8944 0.4472 0 0.8944
0.4472 0 0.8944 0.4472 0 0.8944 0.4472 0 0.8944 0.4472
0 0.8944 0.4472 0 0.8944 0.4472 0 0.8944 0.4472 0
0.8944 0.4472 0 0.8944 0.4472 0 0.8944 0.4472 0 0.8944
0.4472 0 0.8944 0.4472 0 0.8944 0.4472 0 0.8944 0.4472
0 0.8944 0.4472 0 0.8944 0.4472 0 0.8944 0.4472 0
0.8944 0.4472 0 0.8944 0.4472 0 0.8944 0.4472 0 0.8944
0.4472 0 0.8944 0.4472 0 0.8944 0.4472 0 0.8944 0.4472
0 0.8944 0.4472 0 0.8944 0.4472 0 0.8944 0.4472 0
0.8944 0.4472 0 0.8944 0.4472 0 0.8944 0.4472 0 0.8944
0.4472 0 0.8944 0.4472 0 0.8944 0.4472 0 0.8944 0.4472
0 0.8944 0.4472 0 0.8944 0.4472 0 0.8944 0.4472 0
0.8944 0.4472 0 0.8944 0.4472 0 0.8944 0.4472 0 0.8944
0.4472 0 0.8944 0.4472 0 0.8944 0.4472 0 0.8944 0.4472
0 0.8944 0.4472 0 0.8944 0.4472 0 0.8944 0.4472 0
0.8944 0.4472 0 0.8944 0.4472 0 0.8944 0.4472 0 0.8944
0.4472 0 0.8944 0.4472 0 0.8944 0.4472 0 0.8944 0.4472
0 0.8944 0.4472 0 0.8944 0.4472 0 0.8944 0.4472 0
0.8944 0.4472 0 0.8944 0.4472 0 0.8944 0.4472 0 0.8944
0.4472 0 0.8944 0.4472 0 0.8944 0.4472 0 0.8944 0.4472
0 0.8944 0.4472 0 0.8944 0.4472 0 0.894399 0.447201 0
0.894399 0.447201 0 0.894399 0.447201 0 0.894399 0.447201 0 0.894399
0.447202 0 0.894399 0.447202 0 0.894398 0.447203 0 0.894398 0.447203
0 0.894398 0.447204 0 0.894398 0.447204 0 0.894397 0.447206 0
0.894397 0.447206 0 0.894398 0.447208 0 0.894398 0.447208 0 0.894399
0.447209 0 0.894399 0.447209 0 0.894401 0.44721 0 0.894401 0.44721
0 0.894406 0.44721 0 0.894406 0.44721 0 0.894413 0.447208 0
0.894413 0.447208 0 0.894423 0.447205 0 0.894423 0.447205 0 0.894434
0.447199 0 0.894434 0.447199 0 0.894444 0.447191 0 0.894444 0.447191
0 0.894452 0.447185 0 0.894452 0.447185 0 0.894454 0.447185 0
0.894454 0.447185 0 0.894446 0.447197 0 0.894446 0.447197 0 0.894425
0.447226 0 0.894425 0.447226 0 0.894388 0.447282 0 0.894388 0.447282
0 0.894336 0.447372 0 0.894336 0.447372 0 0.894269 0.447501 0
0.894269 0.447501 0 0.894192 0.447672 0 0.894192 0.447672 0 0.89411
0.447885 0 0.89411 0.447885 0 0.894031 0.448135 0 0.894031 0.448135
0 0.893962 0.448413 0 0.893962 0.448413 0 0.893911 0.448707 0
0.893911 0.448707 0 0.893885 0.449004 0 0.893885 0.449004 0 0.893886
0.449286 0 0.893886 0.449286 0 0.893916 0.449539 0 0.893916 0.449539
0 0.893974 0.449749 0 0.893974 0.449749 0 0.894058 0.449903 0
0.894058 0.449903 0 0.89416 0.449993 0 0.89416 0.449993 0 0.894274
0.450016 0 0.894274 0.450016 0 0.894391 0.449971 0 0.894391 0.449971
0 0.894504 0.449861 0 0.894504 0.449861 0 0.894605 0.449695 0
0.894605 0.449695 0 0.894687 0.449484 0 0.894687 0.449484 0 0.894749
0.449242 0 0.894749 0.449242 0 0.894787 0.448983 0 0.894787 0.448983
0 0.894804 0.448721 0 0.894804 0.448721 0 0.894801 0.448467 0
0.894801 0.448467 0 0.894782 0.448231 0 0.894782 0.448231 0 0.894751
0.448019 0 0.894751 0.448019 0 0.894712 0.447834 0 0.894712 0.447834
0 0.894669 0.447679 0 0.894669 0.447679 0 0.894625 0.447552 0
0.894625 0.447552 0 0.894582 0.447451 0 0.894582 0.447451 0 0.894543
0.447373 0 0.894543 0.447373 0 0.894509 0.447314 0 0.894509 0.447314
0 0.89448 0.447271 0 0.89448 0.447271 0 0.894457 0.447241 0
0.894457 0.447241 0 0.894439 0.447221 0 0.894439 0.447221 0 0.894425
0.447209 0 0.894425 0.447209 0 0.894415 0.447201 0 0.894415 0.447201
0 0.894408 0.447197 0 0.894408 0.447197 0 0.894404 0.447196 0
0.894404 0.447196 0 0.894401 0.447196 0 0.894401 0.447196 0 0.8944
0.447196 0 0.8944 0.447196 0 0.894399 0.447197 0 0.894399 0.447197
0 0.894399 0.447197 0 0.894399 0.447197 0 0.894399 0.447198 0
0.894399 0.447198 0 0.894399 0.447199 0 0.894399 0.447199 0 0.8944
0.447199 0 0.8944 0.447199 0 
