# vtk DataFile Version 2.0
bottom_cyc
ASCII
DATASET POLYDATA
POINTS 202 float
-10 -7.5 0 -9.8 -7.5 0 -9.8 -7.5 1 -10 -7.5
1 -9.6 -7.5 0 -9.6 -7.5 1 -9.4 -7.5 0
-9.4 -7.5 1 -9.2 -7.5 0 -9.2 -7.5 1 -9
-7.5 0 -9 -7.5 1 -8.8 -7.5 0 -8.8 -7.5
1 -8.6 -7.5 0 -8.6 -7.5 1 -8.4 -7.5 0
-8.4 -7.5 1 -8.2 -7.5 0 -8.2 -7.5 1 -8
-7.5 0 -8 -7.5 1 -7.8 -7.5 0 -7.8 -7.5
1 -7.6 -7.5 0 -7.6 -7.5 1 -7.4 -7.5 0
-7.4 -7.5 1 -7.2 -7.5 0 -7.2 -7.5 1 -7
-7.5 0 -7 -7.5 1 -6.8 -7.5 0 -6.8 -7.5
1 -6.6 -7.5 0 -6.6 -7.5 1 -6.4 -7.5 0
-6.4 -7.5 1 -6.2 -7.5 0 -6.2 -7.5 1 -6
-7.5 0 -6 -7.5 1 -5.8 -7.5 0 -5.8 -7.5
1 -5.6 -7.5 0 -5.6 -7.5 1 -5.4 -7.5 0
-5.4 -7.5 1 -5.2 -7.5 0 -5.2 -7.5 1 -5
-7.5 0 -5 -7.5 1 -4.8 -7.5 0 -4.8 -7.5
1 -4.6 -7.5 0 -4.6 -7.5 1 -4.4 -7.5 0
-4.4 -7.5 1 -4.2 -7.5 0 -4.2 -7.5 1 -4
-7.5 0 -4 -7.5 1 -3.8 -7.5 0 -3.8 -7.5
1 -3.6 -7.5 0 -3.6 -7.5 1 -3.4 -7.5 0
-3.4 -7.5 1 -3.2 -7.5 0 -3.2 -7.5 1 -3
-7.5 0 -3 -7.5 1 -2.8 -7.5 0 -2.8 -7.5
1 -2.6 -7.5 0 -2.6 -7.5 1 -2.4 -7.5 0
-2.4 -7.5 1 -2.2 -7.5 0 -2.2 -7.5 1 -2
-7.5 0 -2 -7.5 1 -1.8 -7.5 0 -1.8 -7.5
1 -1.6 -7.5 0 -1.6 -7.5 1 -1.4 -7.5 0
-1.4 -7.5 1 -1.2 -7.5 0 -1.2 -7.5 1 -1
-7.5 0 -1 -7.5 1 -0.8 -7.5 0 -0.8 -7.5
1 -0.6 -7.5 0 -0.6 -7.5 1 -0.4 -7.5 0
-0.4 -7.5 1 -0.2 -7.5 0 -0.2 -7.5 1 -1.23261e-11
-7.5 0 -1.23261e-11 -7.5 1 0.2 -7.5 0 0.2 -7.5
1 0.4 -7.5 0 0.4 -7.5 1 0.6 -7.5 0
0.6 -7.5 1 0.8 -7.5 0 0.8 -7.5 1 1
-7.5 0 1 -7.5 1 1.2 -7.5 0 1.2 -7.5
1 1.4 -7.5 0 1.4 -7.5 1 1.6 -7.5 0
1.6 -7.5 1 1.8 -7.5 0 1.8 -7.5 1 2
-7.5 0 2 -7.5 1 2.2 -7.5 0 2.2 -7.5
1 2.4 -7.5 0 2.4 -7.5 1 2.6 -7.5 0
2.6 -7.5 1 2.8 -7.5 0 2.8 -7.5 1 3
-7.5 0 3 -7.5 1 3.2 -7.5 0 3.2 -7.5
1 3.4 -7.5 0 3.4 -7.5 1 3.6 -7.5 0
3.6 -7.5 1 3.8 -7.5 0 3.8 -7.5 1 4
-7.5 0 4 -7.5 1 4.2 -7.5 0 4.2 -7.5
1 4.4 -7.5 0 4.4 -7.5 1 4.6 -7.5 0
4.6 -7.5 1 4.8 -7.5 0 4.8 -7.5 1 5
-7.5 0 5 -7.5 1 5.2 -7.5 0 5.2 -7.5
1 5.4 -7.5 0 5.4 -7.5 1 5.6 -7.5 0
5.6 -7.5 1 5.8 -7.5 0 5.8 -7.5 1 6
-7.5 0 6 -7.5 1 6.2 -7.5 0 6.2 -7.5
1 6.4 -7.5 0 6.4 -7.5 1 6.6 -7.5 0
6.6 -7.5 1 6.8 -7.5 0 6.8 -7.5 1 7
-7.5 0 7 -7.5 1 7.2 -7.5 0 7.2 -7.5
1 7.4 -7.5 0 7.4 -7.5 1 7.6 -7.5 0
7.6 -7.5 1 7.8 -7.5 0 7.8 -7.5 1 8
-7.5 0 8 -7.5 1 8.2 -7.5 0 8.2 -7.5
1 8.4 -7.5 0 8.4 -7.5 1 8.6 -7.5 0
8.6 -7.5 1 8.8 -7.5 0 8.8 -7.5 1 9
-7.5 0 9 -7.5 1 9.2 -7.5 0 9.2 -7.5
1 9.4 -7.5 0 9.4 -7.5 1 9.6 -7.5 0
9.6 -7.5 1 9.8 -7.5 0 9.8 -7.5 1 10
-7.5 0 10 -7.5 1 
POLYGONS 100 500
4 0 1 2 3 4 1 4 5 2 4
4 6 7 5 4 6 8 9 7 4
8 10 11 9 4 10 12 13 11 4
12 14 15 13 4 14 16 17 15 4
16 18 19 17 4 18 20 21 19 4
20 22 23 21 4 22 24 25 23 4
24 26 27 25 4 26 28 29 27 4
28 30 31 29 4 30 32 33 31 4
32 34 35 33 4 34 36 37 35 4
36 38 39 37 4 38 40 41 39 4
40 42 43 41 4 42 44 45 43 4
44 46 47 45 4 46 48 49 47 4
48 50 51 49 4 50 52 53 51 4
52 54 55 53 4 54 56 57 55 4
56 58 59 57 4 58 60 61 59 4
60 62 63 61 4 62 64 65 63 4
64 66 67 65 4 66 68 69 67 4
68 70 71 69 4 70 72 73 71 4
72 74 75 73 4 74 76 77 75 4
76 78 79 77 4 78 80 81 79 4
80 82 83 81 4 82 84 85 83 4
84 86 87 85 4 86 88 89 87 4
88 90 91 89 4 90 92 93 91 4
92 94 95 93 4 94 96 97 95 4
96 98 99 97 4 98 100 101 99 4
100 102 103 101 4 102 104 105 103 4
104 106 107 105 4 106 108 109 107 4
108 110 111 109 4 110 112 113 111 4
112 114 115 113 4 114 116 117 115 4
116 118 119 117 4 118 120 121 119 4
120 122 123 121 4 122 124 125 123 4
124 126 127 125 4 126 128 129 127 4
128 130 131 129 4 130 132 133 131 4
132 134 135 133 4 134 136 137 135 4
136 138 139 137 4 138 140 141 139 4
140 142 143 141 4 142 144 145 143 4
144 146 147 145 4 146 148 149 147 4
148 150 151 149 4 150 152 153 151 4
152 154 155 153 4 154 156 157 155 4
156 158 159 157 4 158 160 161 159 4
160 162 163 161 4 162 164 165 163 4
164 166 167 165 4 166 168 169 167 4
168 170 171 169 4 170 172 173 171 4
172 174 175 173 4 174 176 177 175 4
176 178 179 177 4 178 180 181 179 4
180 182 183 181 4 182 184 185 183 4
184 186 187 185 4 186 188 189 187 4
188 190 191 189 4 190 192 193 191 4
192 194 195 193 4 194 196 197 195 4
196 198 199 197 4 198 200 201 199 
CELL_DATA 100
FIELD attributes 7
patchID 1 100 float
2 2 2 2 2 2 2 2 2 2 2
2 2 2 2 2 2 2 2 2 2
2 2 2 2 2 2 2 2 2 2
2 2 2 2 2 2 2 2 2 2
2 2 2 2 2 2 2 2 2 2
2 2 2 2 2 2 2 2 2 2
2 2 2 2 2 2 2 2 2 2
2 2 2 2 2 2 2 2 2 2
2 2 2 2 2 2 2 2 2 2
2 2 2 2 2 2 2 2 2 
mag(U) 1 100 float
0.999968 0.999968 0.999968 0.999969 0.99997 0.99997 0.99997 0.99997 0.99997 0.99997 0.99997
0.99997 0.99997 0.99997 0.99997 0.99997 0.99997 0.99997 0.99997 0.99997 0.99997
0.99997 0.99997 0.99997 0.99997 0.99997 0.99997 0.99997 0.99997 0.99997 0.99997
0.99997 0.99997 0.99997 0.99997 0.99997 0.99997 0.999969 0.999969 0.999969 0.999969
0.999969 0.999969 0.999969 0.99997 0.999974 0.999978 0.999985 0.999992 0.999999 1.00001
1.00002 1.00003 1.00002 1.00002 1.00001 0.999999 0.999997 1.00001 1.00005 1.00012
1.00022 1.00037 1.00055 1.00076 1.00101 1.00127 1.00154 1.0018 1.00204 1.00224
1.00239 1.00249 1.00251 1.00248 1.00238 1.00223 1.00203 1.0018 1.00155 1.00131
1.00108 1.00087 1.00067 1.00051 1.00038 1.00027 1.00017 1.00012 1.00006 1.00003
1 0.999985 0.999975 0.999969 0.999967 0.999965 0.999966 0.999967 0.999967 
p 1 100 float
0.999997 0.999999 0.999999 0.999999 1 1 1 1 1 1 1
1 1 1 1 1 1 1 1 1 1
1 1 1 1 1 1 1 1 1 1
1 1 1 1 1 1 1 1 1 1
1.00001 1.00001 1.00001 1.00002 1.00002 1.00002 1.00001 1.00001 0.999996 0.999991
0.999988 1.00001 1.00005 1.00013 1.00028 1.00048 1.00077 1.00113 1.00159 1.00209
1.00266 1.00324 1.00384 1.00441 1.00493 1.00538 1.00573 1.00596 1.0061 1.0061
1.00599 1.00576 1.00543 1.00502 1.00454 1.00402 1.00349 1.00295 1.00245 1.00199
1.00159 1.00124 1.00093 1.0007 1.0005 1.00036 1.00024 1.00015 1.0001 1.00005
1.00003 1.00001 1 0.999996 0.999994 0.999994 0.999994 0.999995 0.999996 
T 1 100 float
1 1 1 1 1 1 1 1 1 1 1
1 1 1 1 1 1 1 1 1 1
1 1 1 1 1 1 1 1 1 1
1 1 1 1 1 1 1 1 1 1
1 1 1 1 1 1 1 1 1 1
1 1 1 1 1 1 1 1 1 1
1 1 1 1 1 1 1 1.00001 1.00001 1.00001
1.00001 1 1 1 1 1 1 1 1 1
1 1 1 1 1 1 1 1 1 1
1 1 1 1 1 1 1 1 1 
e 1 100 float
1006.29 1006.29 1006.29 1006.29 1006.29 1006.29 1006.29 1006.29 1006.29 1006.29 1006.29
1006.29 1006.29 1006.29 1006.29 1006.29 1006.29 1006.29 1006.29 1006.29 1006.29
1006.29 1006.29 1006.29 1006.29 1006.29 1006.29 1006.29 1006.29 1006.29 1006.29
1006.29 1006.29 1006.29 1006.29 1006.29 1006.29 1006.29 1006.29 1006.29 1006.29
1006.29 1006.29 1006.29 1006.29 1006.29 1006.29 1006.29 1006.29 1006.29 1006.29
1006.29 1006.29 1006.29 1006.29 1006.29 1006.29 1006.29 1006.29 1006.29 1006.29
1006.29 1006.29 1006.29 1006.29 1006.29 1006.29 1006.29 1006.29 1006.29 1006.29
1006.29 1006.29 1006.29 1006.29 1006.29 1006.29 1006.29 1006.29 1006.29 1006.29
1006.29 1006.29 1006.29 1006.29 1006.29 1006.29 1006.29 1006.29 1006.29 1006.29
1006.29 1006.29 1006.29 1006.29 1006.29 1006.29 1006.29 1006.29 1006.29 
rho 1 100 float
1.4 1.4 1.4 1.4 1.4 1.4 1.4 1.4 1.4 1.4 1.4
1.4 1.40001 1.4 1.4 1.4 1.4 1.4 1.4 1.4 1.40001
1.4 1.40001 1.4 1.4 1.4 1.4 1.4 1.4 1.40001 1.4
1.4 1.4 1.4 1.40001 1.40001 1.40001 1.40001 1.40001 1.40001 1.40001
1.40001 1.40002 1.40002 1.40003 1.40003 1.40003 1.40003 1.40001 1.4 1.39999
1.39999 1.40001 1.40007 1.4002 1.40039 1.40068 1.40108 1.40159 1.40222 1.40293
1.40372 1.40454 1.40538 1.40618 1.4069 1.40752 1.40801 1.40835 1.40853 1.40854
1.40838 1.40806 1.40761 1.40702 1.40636 1.40563 1.40488 1.40415 1.40344 1.4028
1.40223 1.40173 1.40131 1.40098 1.40071 1.4005 1.40034 1.40023 1.40014 1.40008
1.40005 1.40002 1.40001 1.4 1.39999 1.39999 1.4 1.4 1.4 
U 3 100 float
0.894399 0.447198 0 0.894399 0.447199 0 0.894399 0.447199 0 0.8944 0.447199
0 0.8944 0.4472 0 0.8944 0.4472 0 0.8944 0.4472 0
0.8944 0.4472 0 0.8944 0.4472 0 0.8944 0.4472 0 0.8944
0.4472 0 0.8944 0.4472 0 0.8944 0.4472 0 0.8944 0.4472
0 0.8944 0.4472 0 0.8944 0.4472 0 0.8944 0.4472 0
0.8944 0.4472 0 0.8944 0.4472 0 0.8944 0.4472 0 0.8944
0.4472 0 0.8944 0.4472 0 0.8944 0.4472 0 0.8944 0.4472
0 0.8944 0.4472 0 0.8944 0.4472 0 0.8944 0.4472 0
0.8944 0.4472 0 0.8944 0.4472 0 0.8944 0.4472 0 0.8944
0.4472 0 0.8944 0.4472 0 0.8944 0.4472 0 0.8944 0.4472
0 0.8944 0.4472 0 0.8944 0.4472 0 0.8944 0.4472 0
0.8944 0.447201 0 0.894399 0.447201 0 0.894399 0.447201 0 0.894397
0.447203 0 0.894397 0.447205 0 0.894395 0.447207 0 0.894395 0.44721
0 0.894395 0.447212 0 0.894397 0.447215 0 0.8944 0.447218 0
0.894407 0.447219 0 0.894417 0.447218 0 0.894427 0.447217 0 0.894437
0.447215 0 0.894445 0.447216 0 0.894444 0.447226 0 0.894429 0.447255
0 0.894395 0.447311 0 0.894337 0.447408 0 0.894254 0.447558 0
0.894147 0.447771 0 0.894021 0.448054 0 0.893885 0.448407 0 0.89375
0.448826 0 0.893628 0.449298 0 0.893531 0.449807 0 0.893471 0.450332
0 0.893453 0.450846 0 0.893485 0.451328 0 0.893566 0.451753 0
0.893692 0.4521 0 0.893857 0.45235 0 0.894051 0.452495 0 0.894261
0.452527 0 0.894473 0.452443 0 0.894677 0.45225 0 0.894858 0.451958
0 0.895006 0.451582 0 0.895114 0.451145 0 0.89518 0.450671 0
0.895204 0.450181 0 0.895191 0.449701 0 0.895148 0.449247 0 0.895082
0.448836 0 0.895003 0.448476 0 0.894919 0.448169 0 0.894832 0.447917
0 0.894751 0.447716 0 0.894677 0.44756 0 0.894612 0.447441 0
0.894557 0.447354 0 0.894512 0.447293 0 0.894477 0.447251 0 0.894451
0.447224 0 0.894431 0.447208 0 0.894418 0.447198 0 0.894409 0.447194
0 0.894404 0.447192 0 0.8944 0.447192 0 0.894399 0.447194 0
0.894399 0.447195 0 0.894399 0.447196 0 0.894399 0.447197 0 
POINT_DATA  202
FIELD attributes 6
mag(U) 1 202 float
0.999968 0.999968 0.999968 0.999968 0.999968 0.999968 0.999969 0.999969 0.999969 0.999969 0.99997
0.99997 0.99997 0.99997 0.99997 0.99997 0.99997 0.99997 0.99997 0.99997 0.99997
0.99997 0.99997 0.99997 0.99997 0.99997 0.99997 0.99997 0.99997 0.99997 0.99997
0.99997 0.99997 0.99997 0.99997 0.99997 0.99997 0.99997 0.99997 0.99997 0.99997
0.99997 0.99997 0.99997 0.99997 0.99997 0.99997 0.99997 0.99997 0.99997 0.99997
0.99997 0.99997 0.99997 0.99997 0.99997 0.99997 0.99997 0.99997 0.99997 0.99997
0.99997 0.99997 0.99997 0.99997 0.99997 0.99997 0.99997 0.99997 0.99997 0.99997
0.99997 0.99997 0.99997 0.99997 0.99997 0.999969 0.999969 0.999969 0.999969 0.999969
0.999969 0.999969 0.999969 0.999969 0.999969 0.999969 0.999969 0.99997 0.99997 0.999972
0.999972 0.999976 0.999976 0.999981 0.999981 0.999988 0.999988 0.999996 0.999996 1
1 1.00001 1.00001 1.00002 1.00002 1.00002 1.00002 1.00002 1.00002 1.00001
1.00001 1 1 0.999998 0.999998 1 1 1.00003 1.00003 1.00008
1.00008 1.00017 1.00017 1.00029 1.00029 1.00046 1.00046 1.00065 1.00065 1.00088
1.00088 1.00114 1.00114 1.00141 1.00141 1.00167 1.00167 1.00192 1.00192 1.00214
1.00214 1.00232 1.00232 1.00244 1.00244 1.0025 1.0025 1.0025 1.0025 1.00243
1.00243 1.0023 1.0023 1.00213 1.00213 1.00191 1.00191 1.00168 1.00168 1.00144
1.00144 1.0012 1.0012 1.00098 1.00098 1.00077 1.00077 1.00059 1.00059 1.00045
1.00045 1.00032 1.00032 1.00022 1.00022 1.00014 1.00014 1.00009 1.00009 1.00004
1.00004 1.00001 1.00001 0.999994 0.999994 0.99998 0.99998 0.999972 0.999972 0.999968
0.999968 0.999966 0.999966 0.999965 0.999965 0.999966 0.999966 0.999967 0.999967 0.999967
0.999967 
p 1 202 float
0.999997 0.999998 0.999998 0.999997 0.999999 0.999999 0.999999 0.999999 0.999999 0.999999 1
1 1 1 1 1 1 1 1 1 1
1 1 1 1 1 1 1 1 1 1
1 1 1 1 1 1 1 1 1 1
1 1 1 1 1 1 1 1 1 1
1 1 1 1 1 1 1 1 1 1
1 1 1 1 1 1 1 1 1 1
1 1 1 1 1 1 1 1 1 1
1 1 1 1.00001 1.00001 1.00001 1.00001 1.00001 1.00001 1.00002
1.00002 1.00002 1.00002 1.00001 1.00001 1.00001 1.00001 1 1 0.999994
0.999994 0.99999 0.99999 0.999997 0.999997 1.00003 1.00003 1.0001 1.0001 1.00021
1.00021 1.00038 1.00038 1.00063 1.00063 1.00095 1.00095 1.00136 1.00136 1.00184
1.00184 1.00238 1.00238 1.00295 1.00295 1.00354 1.00354 1.00412 1.00412 1.00467
1.00467 1.00515 1.00515 1.00555 1.00555 1.00584 1.00584 1.00603 1.00603 1.0061
1.0061 1.00604 1.00604 1.00587 1.00587 1.00559 1.00559 1.00522 1.00522 1.00478
1.00478 1.00428 1.00428 1.00375 1.00375 1.00322 1.00322 1.0027 1.0027 1.00223
1.00223 1.00179 1.00179 1.00141 1.00141 1.00109 1.00109 1.00082 1.00082 1.0006
1.0006 1.00043 1.00043 1.0003 1.0003 1.0002 1.0002 1.00013 1.00013 1.00007
1.00007 1.00004 1.00004 1.00002 1.00002 1.00001 1.00001 0.999998 0.999998 0.999995
0.999995 0.999994 0.999994 0.999994 0.999994 0.999995 0.999995 0.999996 0.999996 0.999996
0.999996 
T 1 202 float
1 1 1 1 1 1 1 1 1 1 1
1 1 1 1 1 1 1 1 1 1
1 1 1 1 1 1 1 1 1 1
1 1 1 1 1 1 1 1 1 1
1 1 1 1 1 1 1 1 1 1
1 1 1 1 1 1 1 1 1 1
1 1 1 1 1 1 1 1 1 1
1 1 1 1 1 1 1 1 1 1
1 1 1 1 1 1 1 1 1 1
1 1 1 1 1 1 1 1 1 1
1 1 1 1 1 1 1 1 1 1
1 1 1 1 1 1 1 1 1 1
1 1 1 1 1 1 1 1 1 1
1 1 1 1 1 1 1 1.00001 1.00001 1.00001
1.00001 1.00001 1.00001 1 1 1 1 1 1 1
1 1 1 1 1 1 1 1 1 1
1 1 1 1 1 1 1 1 1 1
1 1 1 1 1 1 1 1 1 1
1 1 1 1 1 1 1 1 1 1
1 1 1 1 1 1 1 1 1 1
1 
e 1 202 float
1006.29 1006.29 1006.29 1006.29 1006.29 1006.29 1006.29 1006.29 1006.29 1006.29 1006.29
1006.29 1006.29 1006.29 1006.29 1006.29 1006.29 1006.29 1006.29 1006.29 1006.29
1006.29 1006.29 1006.29 1006.29 1006.29 1006.29 1006.29 1006.29 1006.29 1006.29
1006.29 1006.29 1006.29 1006.29 1006.29 1006.29 1006.29 1006.29 1006.29 1006.29
1006.29 1006.29 1006.29 1006.29 1006.29 1006.29 1006.29 1006.29 1006.29 1006.29
1006.29 1006.29 1006.29 1006.29 1006.29 1006.29 1006.29 1006.29 1006.29 1006.29
1006.29 1006.29 1006.29 1006.29 1006.29 1006.29 1006.29 1006.29 1006.29 1006.29
1006.29 1006.29 1006.29 1006.29 1006.29 1006.29 1006.29 1006.29 1006.29 1006.29
1006.29 1006.29 1006.29 1006.29 1006.29 1006.29 1006.29 1006.29 1006.29 1006.29
1006.29 1006.29 1006.29 1006.29 1006.29 1006.29 1006.29 1006.29 1006.29 1006.29
1006.29 1006.29 1006.29 1006.29 1006.29 1006.29 1006.29 1006.29 1006.29 1006.29
1006.29 1006.29 1006.29 1006.29 1006.29 1006.29 1006.29 1006.29 1006.29 1006.29
1006.29 1006.29 1006.29 1006.29 1006.29 1006.29 1006.29 1006.29 1006.29 1006.29
1006.29 1006.29 1006.29 1006.29 1006.29 1006.29 1006.29 1006.29 1006.29 1006.29
1006.29 1006.29 1006.29 1006.29 1006.29 1006.29 1006.29 1006.29 1006.29 1006.29
1006.29 1006.29 1006.29 1006.29 1006.29 1006.29 1006.29 1006.29 1006.29 1006.29
1006.29 1006.29 1006.29 1006.29 1006.29 1006.29 1006.29 1006.29 1006.29 1006.29
1006.29 1006.29 1006.29 1006.29 1006.29 1006.29 1006.29 1006.29 1006.29 1006.29
1006.29 1006.29 1006.29 1006.29 1006.29 1006.29 1006.29 1006.29 1006.29 1006.29
1006.29 1006.29 1006.29 1006.29 1006.29 1006.29 1006.29 1006.29 1006.29 1006.29
1006.29 
rho 1 202 float
1.4 1.4 1.4 1.4 1.4 1.4 1.4 1.4 1.4 1.4 1.4
1.4 1.4 1.4 1.4 1.4 1.4 1.4 1.4 1.4 1.4
1.4 1.4 1.4 1.4 1.4 1.40001 1.40001 1.4 1.4 1.4
1.4 1.4 1.4 1.4 1.4 1.4 1.4 1.4 1.4 1.40001
1.40001 1.40001 1.40001 1.40001 1.40001 1.40001 1.40001 1.4 1.4 1.4
1.4 1.4 1.4 1.4 1.4 1.4 1.4 1.40001 1.40001 1.4
1.4 1.4 1.4 1.4 1.4 1.4 1.4 1.4 1.4 1.40001
1.40001 1.40001 1.40001 1.40001 1.40001 1.40001 1.40001 1.40001 1.40001 1.40001
1.40001 1.40001 1.40001 1.40002 1.40002 1.40002 1.40002 1.40002 1.40002 1.40003
1.40003 1.40003 1.40003 1.40003 1.40003 1.40002 1.40002 1.40001 1.40001 1.39999
1.39999 1.39999 1.39999 1.4 1.4 1.40005 1.40005 1.40014 1.40014 1.40029
1.40029 1.40053 1.40053 1.40088 1.40088 1.40134 1.40134 1.40191 1.40191 1.40258
1.40258 1.40332 1.40332 1.40413 1.40413 1.40496 1.40496 1.40578 1.40578 1.40654
1.40654 1.40721 1.40721 1.40777 1.40777 1.40818 1.40818 1.40844 1.40844 1.40854
1.40854 1.40846 1.40846 1.40822 1.40822 1.40784 1.40784 1.40732 1.40732 1.40669
1.40669 1.40599 1.40599 1.40525 1.40525 1.40451 1.40451 1.40379 1.40379 1.40312
1.40312 1.40251 1.40251 1.40198 1.40198 1.40153 1.40153 1.40115 1.40115 1.40085
1.40085 1.40061 1.40061 1.40042 1.40042 1.40028 1.40028 1.40018 1.40018 1.40011
1.40011 1.40006 1.40006 1.40003 1.40003 1.40001 1.40001 1.4 1.4 1.4
1.4 1.39999 1.39999 1.4 1.4 1.4 1.4 1.4 1.4 1.4
1.4 
U 3 202 float
0.894399 0.447198 0 0.894399 0.447198 0 0.894399 0.447198 0 0.894399 0.447198
0 0.894399 0.447199 0 0.894399 0.447199 0 0.894399 0.447199 0
0.894399 0.447199 0 0.8944 0.4472 0 0.8944 0.4472 0 0.8944
0.4472 0 0.8944 0.4472 0 0.8944 0.4472 0 0.8944 0.4472
0 0.8944 0.4472 0 0.8944 0.4472 0 0.8944 0.4472 0
0.8944 0.4472 0 0.8944 0.4472 0 0.8944 0.4472 0 0.8944
0.4472 0 0.8944 0.4472 0 0.8944 0.4472 0 0.8944 0.4472
0 0.8944 0.4472 0 0.8944 0.4472 0 0.8944 0.4472 0
0.8944 0.4472 0 0.8944 0.4472 0 0.8944 0.4472 0 0.8944
0.4472 0 0.8944 0.4472 0 0.8944 0.4472 0 0.8944 0.4472
0 0.8944 0.4472 0 0.8944 0.4472 0 0.8944 0.4472 0
0.8944 0.4472 0 0.8944 0.4472 0 0.8944 0.4472 0 0.8944
0.4472 0 0.8944 0.4472 0 0.8944 0.4472 0 0.8944 0.4472
0 0.8944 0.4472 0 0.8944 0.4472 0 0.8944 0.4472 0
0.8944 0.4472 0 0.8944 0.4472 0 0.8944 0.4472 0 0.8944
0.4472 0 0.8944 0.4472 0 0.8944 0.4472 0 0.8944 0.4472
0 0.8944 0.4472 0 0.8944 0.4472 0 0.8944 0.4472 0
0.8944 0.4472 0 0.8944 0.4472 0 0.8944 0.4472 0 0.8944
0.4472 0 0.8944 0.4472 0 0.8944 0.4472 0 0.8944 0.4472
0 0.8944 0.4472 0 0.8944 0.4472 0 0.8944 0.4472 0
0.8944 0.4472 0 0.8944 0.4472 0 0.8944 0.4472 0 0.8944
0.4472 0 0.8944 0.4472 0 0.8944 0.4472 0 0.8944 0.4472
0 0.8944 0.4472 0 0.8944 0.4472 0 0.894399 0.447201 0
0.894399 0.447201 0 0.894399 0.447201 0 0.894399 0.447201 0 0.894398
0.447202 0 0.894398 0.447202 0 0.894397 0.447203 0 0.894397 0.447203
0 0.894396 0.447206 0 0.894396 0.447206 0 0.894395 0.447208 0
0.894395 0.447208 0 0.894395 0.447211 0 0.894395 0.447211 0 0.894396
0.447214 0 0.894396 0.447214 0 0.894399 0.447217 0 0.894399 0.447217
0 0.894404 0.447219 0 0.894404 0.447219 0 0.894412 0.447219 0
0.894412 0.447219 0 0.894422 0.447217 0 0.894422 0.447217 0 0.894432
0.447215 0 0.894432 0.447215 0 0.894441 0.447215 0 0.894441 0.447215
0 0.894445 0.447221 0 0.894445 0.447221 0 0.894436 0.447241 0
0.894436 0.447241 0 0.894412 0.447282 0 0.894412 0.447282 0 0.894366
0.447359 0 0.894366 0.447359 0 0.894296 0.447483 0 0.894296 0.447483
0 0.8942 0.447664 0 0.8942 0.447664 0 0.894084 0.447913 0
0.894084 0.447913 0 0.893953 0.448231 0 0.893953 0.448231 0 0.893818
0.448616 0 0.893818 0.448616 0 0.893689 0.449062 0 0.893689 0.449062
0 0.893579 0.449553 0 0.893579 0.449553 0 0.893501 0.450069 0
0.893501 0.450069 0 0.893462 0.450589 0 0.893462 0.450589 0 0.89347
0.451088 0 0.89347 0.451088 0 0.893526 0.45154 0 0.893526 0.45154
0 0.893629 0.451926 0 0.893629 0.451926 0 0.893775 0.452225 0
0.893775 0.452225 0 0.893954 0.452423 0 0.893954 0.452423 0 0.894156
0.452511 0 0.894156 0.452511 0 0.894367 0.452485 0 0.894367 0.452485
0 0.894575 0.452347 0 0.894575 0.452347 0 0.894767 0.452104 0
0.894767 0.452104 0 0.894931 0.45177 0 0.894931 0.45177 0 0.89506
0.451364 0 0.89506 0.451364 0 0.895147 0.450908 0 0.895147 0.450908
0 0.895192 0.450426 0 0.895192 0.450426 0 0.895198 0.449941 0
0.895198 0.449941 0 0.895169 0.449474 0 0.895169 0.449474 0 0.895115
0.449041 0 0.895115 0.449041 0 0.895043 0.448656 0 0.895043 0.448656
0 0.894961 0.448323 0 0.894961 0.448323 0 0.894875 0.448043 0
0.894875 0.448043 0 0.894791 0.447817 0 0.894791 0.447817 0 0.894714
0.447638 0 0.894714 0.447638 0 0.894644 0.4475 0 0.894644 0.4475
0 0.894584 0.447398 0 0.894584 0.447398 0 0.894535 0.447324 0
0.894535 0.447324 0 0.894495 0.447272 0 0.894495 0.447272 0 0.894464
0.447237 0 0.894464 0.447237 0 0.894441 0.447215 0 0.894441 0.447215
0 0.894424 0.447203 0 0.894424 0.447203 0 0.894413 0.447196 0
0.894413 0.447196 0 0.894406 0.447193 0 0.894406 0.447193 0 0.894402
0.447192 0 0.894402 0.447192 0 0.8944 0.447193 0 0.8944 0.447193
0 0.894399 0.447194 0 0.894399 0.447194 0 0.894399 0.447196 0
0.894399 0.447196 0 0.894399 0.447197 0 0.894399 0.447197 0 0.894399
0.447197 0 0.894399 0.447197 0 
