/*--------------------------------*- C++ -*----------------------------------*\
  =========                 |
  \\      /  F ield         | OpenFOAM: The Open Source CFD Toolbox
   \\    /   O peration     | Website:  https://openfoam.org
    \\  /    A nd           | Version:  6
     \\/     M anipulation  |
\*---------------------------------------------------------------------------*/
FoamFile
{
    version     2.0;
    format      ascii;
    class       surfaceScalarField;
    location    "1.8";
    object      meshPhi;
}
// * * * * * * * * * * * * * * * * * * * * * * * * * * * * * * * * * * * * * //

dimensions      [0 3 -1 0 0 0 0];

internalField   nonuniform List<scalar> 
11670
(
-0.0736466
0.0670723
-0.0893658
0.118871
-0.0239165
-0.0208038
0.0127954
0.0200461
-0.206019
0.135901
-0.131814
0.221481
-0.207829
0.166349
-0.257422
0.3217
-0.0569668
0.0610514
-0.100498
0.0879593
0.00202826
-0.00734083
-0.00264508
-0.000432674
0.137464
-0.158893
0.153478
-0.145807
-0.0892513
0.098996
-0.120841
0.0917185
0.169865
0.0473873
-0.0315372
-0.170094
-0.101094
-0.0989243
0.0708323
0.110394
0.281513
-0.30035
0.424451
-0.403855
-0.00671987
0.00309056
0.00296201
-0.00413688
-0.0018266
0.00315689
0.00648348
-0.00311243
0.00640497
-0.00431433
-0.00307286
0.00687964
0.00574136
-0.00599225
-0.00872832
0.00316278
0.00353006
-0.00297515
0.0037051
-0.00152574
0.00106074
-0.00170175
-0.00281566
0.00123478
-0.00233322
0.00108454
0.00124269
-0.00172934
0.00346042
-0.00148866
0.005198
-0.00326457
0.00293045
-0.00140265
-0.0012094
0.0017823
0.00339604
-0.00381198
-0.00360664
0.00133287
0.00221514
-0.000741369
-0.00107031
0.00107181
-0.00273624
0.00158385
0.00116022
-0.00168722
0.00188947
-0.00482523
-0.00495352
0.00316558
-0.00243311
0.00297563
0.00409676
-0.0015149
0.00961067
-0.00804105
-0.00310249
0.0103003
-0.0102561
0.00984179
0.00326846
-0.0101298
0.00753866
-0.00308075
0.00746485
-0.00488708
0.00411734
-0.00703971
0.00505023
-0.00799262
-0.0086525
0.00931297
-0.00504591
0.0161642
0.00554901
-0.00918657
0.00628615
-0.0100085
0.00891384
-0.00341688
0.00916725
-0.00607899
-0.00954472
0.010423
-0.00627656
0.0199829
-0.0143714
0.00843107
-0.00987624
0.00661215
0.021362
-0.0222462
0.00682704
-0.021765
0.0133912
-0.0125054
-0.00682547
0.021817
-0.000129959
0.00605088
0.00982967
-0.00661063
0.00525655
-0.00351431
0.0145544
-0.00667694
0.00476165
-0.00956947
-0.00980172
0.00654096
-0.0335055
0.0311579
0.00758548
-0.02393
-0.00198346
0.0054517
0.009143
-0.0057422
-0.0145503
0.0141014
-0.0157117
0.00555884
-0.0113827
0.0140584
-0.00545712
0.0177953
0.00344962
-0.00969943
0.00520597
-0.00705836
0.00750838
-0.0050285
-0.00396923
0.00789525
-0.00947761
0.00773064
-0.00857547
0.00401728
-0.00207839
0.00396331
0.00952703
-0.00402035
0.00462324
-0.00728203
0.0039662
-0.00870154
-0.00111871
0.00246389
0.00354616
-0.00222714
0.000826752
-0.00309567
0.00201448
-0.00248496
-0.00565317
0.00668086
-0.00211657
0.00694057
-0.00526626
0.00508346
-0.00650956
0.00215102
5.081e-05
-0.000172351
9.79258e-06
-0.000234161
0.000410185
-0.00038047
0.000513545
1.20498e-05
1.53569e-14
-3.0195e-14
3.01227e-14
-4.0059e-14
-0.000888996
0.0049141
-0.0019284
0.00164823
0.00172712
-0.00497308
-0.00238231
0.00197338
-0.00500023
0.00487057
0.00791968
-0.00259055
0.00382548
-0.00311791
0.00225331
-0.0064556
0.00737119
-0.00307257
0.00708295
-0.00487457
0.00331535
-0.00810471
0.0045161
-0.00652323
-0.00831828
0.00897806
-0.00503299
0.0163005
-0.0205101
0.0193583
-0.017538
0.00561139
-0.00174279
0.00428737
0.00670804
-0.00421294
-0.00974613
0.0117717
-0.00400378
0.0132927
-0.0144587
0.014823
-0.0149424
0.00434182
0.00239699
-0.00713159
0.00403507
-0.00510439
-0.00207441
0.00603294
-0.00684086
0.0108915
0.00511093
-0.0129927
0.00655592
-0.00859667
-0.0252513
0.0258326
-0.0237114
0.00705431
-0.0246897
0.0239313
0.00663771
-0.0215214
0.00475019
-0.0104902
-0.00951498
0.00642878
0.0106528
-0.00295941
-0.00637817
0.00842059
-0.0105885
0.0100762
0.0231055
-0.00686305
0.0088366
-0.00343411
0.00894075
-0.00607157
-0.00935827
0.0101753
-0.0062689
0.0201506
-0.0145392
0.00736651
0.00602121
-0.00778935
0.0205497
-0.0200122
-0.0219755
0.00647895
0.00580358
-0.0141725
-0.00614227
0.00508792
-0.00171677
0.00750553
0.00626131
-0.00459218
-0.0104812
0.0128065
-0.00724314
0.0200324
0.0112598
-0.00943555
0.00580968
-0.0166443
0.0292741
-0.031762
-0.0306983
-0.048445
0.0767509
-0.214925
-0.0204482
0.0277573
-0.0660102
0.10272
-0.113245
0.134832
-0.041517
0.0263469
-0.0468027
-0.000664685
-0.00537615
0.00138006
-0.088286
0.0874706
-0.102693
-0.0666986
0.0729333
-0.197404
-0.0477325
0.0862202
0.144297
0.118018
-0.12351
-0.110658
0.170852
-0.173596
0.282727
0.0363729
-0.0704805
0.323806
-0.277306
0.156324
0.0230338
-0.0204176
-0.154208
-4.16553e-06
0.00145533
-0.00252965
9.52719e-06
0.0018931
-0.0579971
0.00534427
0.0504375
-0.0216499
-0.0875536
0.110889
-0.00214317
0.0109142
0.191931
-0.176833
-0.026811
0.00262981
-0.0783828
0.00727307
0.0669732
0.0277998
0.0939867
-0.145006
0.0298483
0.106532
0.323806
-0.261141
-0.00315967
-0.00926158
0.0189345
-0.00145412
-0.000640068
0.00459166
0.00559935
-0.0126066
-0.0037617
0.0478875
-0.00921232
-0.0344774
0.00898955
-0.0107254
-0.00221113
0.00416906
-0.0147249
0.0162977
-0.00417897
0.0227079
-0.0219347
-0.00403626
0.00225502
0.02266
-0.0231507
-0.0760114
0.0703236
0.00684554
-0.168446
0.0109207
0.135654
-0.00229891
0.00020913
0.00103744
0.203036
-0.030986
-0.162026
0.181236
0.0115066
-0.158917
-0.0342243
0.0328916
0.00288596
-0.0235341
-0.0440613
-0.0656216
0.147055
-0.0939868
-0.0701197
0.15441
-0.000126632
-0.0591453
0.000538514
0.049993
0.0406407
0.000485191
-0.049993
0.0191698
0.0388738
0.0767628
-0.131334
0.127582
0.0771824
-0.182122
0.00656908
0.0270382
-0.0414975
0.0145965
0.0435351
0.0272852
-0.0575449
0.0929009
0.14989
0.267598
-0.491943
0.377628
0.250268
-0.516549
0.0739245
-0.430841
-0.306672
0.659355
-0.199145
-0.302562
0.571399
-0.0176556
-0.0651224
-0.116065
0.195597
-0.177577
-0.11456
0.271236
0.0228415
-0.130748
-0.129952
0.231762
-0.121877
-0.128815
0.267438
9.49443e-06
0.00742174
5.11969e-05
-0.00945378
-0.011464
4.8374e-05
0.00945378
0.145923
-0.0822636
0.0280429
0.0195983
-0.0472413
-0.0223645
-0.032626
0.0255108
-0.0480798
0.0254659
-0.0389989
-0.0131277
0.034588
0.0340222
-0.0291638
0.017829
-0.0349069
0.0227271
0.0555322
-0.016854
0.0248386
-0.0419145
0.0221918
0.0135019
-0.0315743
-0.018724
-0.0217997
0.00955972
-0.0205281
0.0162358
0.0102169
0.00699031
-0.0143471
-0.00972421
-0.0133246
-0.00691647
0.0147733
0.0130943
0.0316261
-0.00863779
0.0148296
-0.0228897
-0.0765252
-0.0193328
0.0587258
0.0625327
0.0909678
-0.0298624
0.0433979
-0.0747099
-0.16955
0.118911
-0.0657137
0.141096
0.23782
0.098604
-0.116083
-0.188202
-0.0954024
-0.112026
0.10446
0.0719399
0.0681964
-0.101513
0.0694033
-0.05703
-0.230352
-0.0545265
0.14797
0.158618
0.109711
-0.173112
0.121489
-0.0886858
-0.0978088
-0.134738
0.129275
0.0743323
-0.0685268
0.050469
-0.0466149
0.0453754
-0.0421822
-0.0200056
0.0396438
0.0354124
0.30712
0.0142003
-0.192447
-0.113926
0.271542
-0.00486079
-0.133287
-0.126818
-0.353862
-0.287385
0.353402
0.272402
0.292235
0.107606
-0.19271
-0.188896
-0.249352
-0.0455119
0.165699
0.149602
0.135878
0.199284
-0.21166
-0.142055
-0.142499
-0.113648
0.153433
0.0805438
-0.158985
-0.124407
0.153474
0.108445
-0.151025
0.259393
-0.291796
0.171983
0.44342
0.227022
-0.302326
-0.34905
-0.214838
-0.124197
0.173453
0.148317
0.262849
-0.302726
0.235632
-0.210074
-0.227896
0.138938
-0.00790549
0.106506
0.232176
0.128766
-0.246465
-0.131388
0.0781116
-0.125664
0.102477
-0.0786301
-0.0738452
-0.0260736
0.0607653
0.0586805
0.215362
-0.191478
0.0307687
-0.0538719
0.258142
0.122975
-0.175187
-0.194035
-0.278076
-0.0372071
0.189825
0.12481
-0.272143
-0.182546
0.240292
0.20452
0.105642
-0.0535654
0.00552145
-0.051732
-0.165699
-0.108728
0.143314
0.116015
-0.359312
0.273297
-0.177941
0.280932
-0.262711
-0.029102
0.16793
0.128365
-0.207081
-0.0705828
0.141546
0.156577
-0.168419
0.11
0.173811
-0.132156
0.0545966
-0.0686831
0.0364872
-0.0377338
0.0462948
0.0232449
-0.0445974
-0.032945
-0.0208744
0.0222676
-0.0198085
0.02025
0.205718
-0.225063
0.186651
-0.181131
-0.164387
0.132789
-0.0927628
0.137638
0.0779067
-0.112251
0.0928453
-0.0782716
0.0413855
0.0118303
-0.0512551
-0.0108847
-0.0365747
0.0337799
-0.0109682
0.00964667
-0.00395679
-0.0139754
0.00808053
-4.88738e-16
0.00158511
0.000222973
1.50179e-16
-0.000323669
-0.00148441
5.51588e-16
-2.6738e-16
0.00722441
-0.0173016
0.0102376
0.0390226
-0.0762953
0.0690662
-0.0494106
-0.0635021
0.0502778
-0.0455069
0.0462233
1.0727e-13
0.00420391
0.00699127
-7.17539e-14
-1.51931e-14
0.00276464
0.00191897
2.37273e-14
-0.00836627
-9.62243e-05
0.00546682
0.00461311
-0.02066
-0.00530812
0.00643661
0.00986636
-0.00773108
-0.000136954
-0.00422025
0.0043265
0.00836627
-0.000115419
0.0033402
-0.0046127
0.00773157
-9.65045e-05
-0.00502342
-0.0043265
-4.16003e-05
-0.006483
-0.00480242
5.32062e-06
-3.24651e-07
0.00892036
0.00652276
2.71552e-06
3.32009e-06
0.00867993
0.0127542
-2.57287e-07
-0.00939128
-0.0117525
6.74902e-06
-3.16401e-05
-0.188306
-0.0472685
0.122196
0.137794
0.0623442
0.0437752
-0.0875808
-0.0370725
-0.0896342
0.0690784
0.167063
-0.123807
-0.380635
0.27358
-0.158324
0.271405
0.156874
-0.157039
0.0368837
-0.0411022
-0.0360835
-0.0219717
0.0257673
0.0200468
0.195649
-0.156304
0.109629
-0.147259
0.0448919
-0.0396242
0.0139723
-0.0305579
0.0898704
-0.0503184
0.00413236
-0.0405748
-0.153026
0.126197
-0.0887272
0.1071
-5.22475e-05
-0.0141356
-0.012205
5.10204e-06
6.59592e-06
-0.0147641
-0.0170395
-4.37544e-05
-0.00223303
0.0148089
0.0067318
-0.00237573
0.149672
0.0656726
-0.0732673
-0.112437
-0.0895409
0.051906
0.0638608
-0.0488841
-0.0671281
-0.0731586
0.0654991
0.0491182
-0.13346
0.102623
-0.0522199
0.111058
-0.144223
-0.025225
0.131528
0.037815
0.173457
-0.248272
0.297086
-0.220231
0.0456026
-0.00983859
0.00482112
-0.0226437
-0.131723
-0.0862207
0.113959
0.110465
-0.0896655
-0.00437011
0.0647098
0.050377
-0.0300243
0.0269644
-0.0470445
0.0232755
0.0335829
0.0261418
-0.0638654
-0.0268333
-0.0503186
-0.00196675
0.0358037
0.0228178
0.0686709
0.0791641
-0.0940845
-0.0691467
0.176097
-0.0775903
-0.304243
0.217658
0.0627902
-0.102507
0.0638855
-0.0506709
-0.0697732
-0.100965
0.0831109
0.0562389
0.107888
-0.13879
0.0887159
-0.0805849
-0.244381
0.160057
-0.0771521
0.184079
-0.111169
0.115687
-0.10627
0.07941
0.127955
-0.157444
0.271806
-0.215724
0.126202
-0.11475
-0.095409
-0.216366
0.156876
-0.0846523
0.151287
-0.18683
0.12403
0.14665
-0.104466
0.0893496
-0.0650262
0.0417274
-0.0651618
0.0533831
0.0075364
-0.0136268
-0.0278754
0.232367
0.0819886
-0.137982
-0.16914
-0.0912579
-0.063886
0.0757523
0.145607
0.0829599
-0.113345
-0.114627
-0.149524
-0.1281
0.150185
0.110601
-0.0399932
-0.0298566
0.0382139
0.039716
-0.0356475
0.0181358
0.0183826
0.0426765
0.00630601
-0.0132207
-0.0208743
-0.19102
-0.192392
0.219276
0.145077
-0.0340646
-0.0141996
0.0131536
0.0171723
-0.3362
-0.223385
0.299433
0.260123
-0.030048
-0.004239
0.0135891
0.0138386
0.193488
-0.229488
0.162506
-0.145693
-0.0409475
0.0174169
-0.0100852
0.0208192
-0.0248329
0.0458271
-0.000656346
-0.00843494
-0.379433
-0.209242
0.304494
0.293879
0.389839
-0.342648
0.260865
-0.309572
-0.235491
-0.0499985
0.155066
0.144266
0.0778751
0.0274176
-0.0806172
-0.0352054
-0.0780636
0.0635299
-0.0292649
0.0352895
0.168543
-0.06703
0.0106869
-0.104417
0.0837626
0.0507086
-0.100655
-0.0462877
-0.109581
-0.0333008
0.0815865
0.0518316
0.00108237
0.1003
-0.176874
0.0857528
0.181612
-0.0852285
0.000993195
-0.0880501
0.103469
-0.152814
0.112733
-0.0893389
-0.097982
0.103991
-0.101457
0.0741834
-0.0125704
-0.0150143
-4.65335e-13
3.51745e-13
3.41955e-13
-0.0129458
-0.0104958
-2.67498e-13
-0.113779
-0.000650475
0.0606021
0.0576447
0.0780356
-0.0497135
0.0129282
-0.0396724
0.441574
-0.335393
0.254384
-0.350819
-0.270867
0.247711
-0.137402
0.156172
0.0845672
-0.0278202
0.0379137
-0.0681437
-0.0886083
-0.0209083
0.0637751
0.0738094
0.062994
-0.0887417
0.0514586
-0.0477677
-0.0858417
0.0754186
-0.0728336
0.0578284
0.0708249
0.0224854
-0.0841979
-0.0186132
0.095725
-0.0581129
-0.000320215
-0.0239201
0.0548278
0.0555177
-0.0839426
-0.0456699
0.000705439
-0.0547805
0.123329
-0.059793
-0.0240849
-0.00670101
0.0224556
0.0154442
0.0751308
0.000694973
-0.126687
0.0614209
-0.116354
0.0759279
-0.000131799
0.0513107
-0.0916369
-0.015297
0.0615982
0.0689334
-0.0571918
-0.00151753
0.0544256
0.0142802
-0.0278824
0.0303291
0.0816327
-0.0619145
-0.0275997
0.0119451
-0.0172764
0.0173796
0.0583174
0.0119852
-0.0558164
-0.0149565
-0.0660246
0.0640788
-0.0203233
0.0174122
-0.0969625
0.0846999
-0.00817741
0.0250073
-0.00868806
0.036845
-0.0484572
0.0303647
-0.17409
-0.00609417
0.0929941
0.104305
-0.0871657
0.084329
-0.0572409
0.0502676
0.0853404
-0.0314871
0.0148805
-0.0475867
0.153448
-0.00223476
-0.0717031
-0.0676408
0.0254852
-0.0408861
-0.031903
0.023628
0.0282451
0.016005
-0.0432903
-0.0216259
0.0681213
-0.0224891
0.024132
-0.0525149
-0.0163317
0.0598704
-0.0909099
0.0716524
0.0293237
0.0216323
-0.0523131
-0.0231157
-0.0492829
0.0247091
-0.00557311
0.0287996
-0.0331508
0.0279378
-0.0520576
0.0261374
0.0172581
-0.00427398
0.0018905
-0.0073541
0.0331151
0.0200914
-0.0539982
-0.0244257
-0.0285025
0.0209528
-0.0328126
0.024318
-0.191008
0.145022
-0.0798228
0.141458
-0.0645139
-0.0106678
0.0487226
0.0405986
0.15569
0.103669
-0.117732
-0.131182
-0.0192829
-0.00204433
0.0144522
0.0111138
-0.0841499
0.0864883
-0.0893819
0.058157
0.024327
0.00956254
-0.0321237
-0.0153468
0.0604516
0.0152587
-0.0219981
-0.0386804
-0.270931
0.197294
-0.0673634
0.151633
0.0917288
-0.103376
0.0520912
-0.059369
0.0461833
-0.0271209
-0.0558555
0.0520969
0.0711197
-0.0933987
0.05846
-0.0499523
0.0453421
-0.0694822
0.0520585
-0.0458199
-0.079114
0.0639927
-0.0349917
0.068512
-0.0423183
0.0439262
-0.0405571
0.0683388
0.0242765
-0.0472686
-0.0937689
-0.028636
0.0666275
0.0322911
-0.0357714
0.0309456
0.246517
0.0524993
-0.151876
-0.135201
-0.0688367
0.0624413
-0.0405648
0.0691029
-0.0286408
0.0140089
-0.0166397
0.0178863
-0.261117
0.181334
0.236687
-0.173793
-0.370254
0.276709
-0.173974
0.285915
0.114721
0.104951
-0.121397
-0.105998
-0.281571
-0.237271
0.317917
0.183727
0.175703
0.0456337
-0.0857893
-0.119167
-0.257124
-0.0817401
0.174393
0.155111
0.379607
-0.329967
-0.0795219
0.0413844
0.117132
0.0314631
-0.0486748
-0.0817647
-0.0813248
-0.0723448
0.0738861
0.0568657
-0.145879
0.105522
-0.0648086
0.128183
-0.0315402
-0.00696583
0.0255888
0.0228783
0.0133406
-0.0103297
0.0120787
-0.0132275
-0.0102229
0.00874609
-0.00992833
0.00958852
-0.0855152
0.0517886
-0.0302272
0.0576656
0.0223147
0.00763078
-0.0252885
-0.0162387
0.0641451
-0.0242402
0.00664589
-0.0406042
0.279532
-0.163116
-0.389563
0.285056
-0.103661
-0.0101895
0.062088
0.060638
-0.187188
0.11514
-0.0573232
0.148814
-0.113837
-0.076532
0.105217
0.0675459
0.152598
0.0514367
-0.0748141
-0.104549
0.152156
-0.102151
0.0270248
-0.0768204
-0.130845
-0.044523
0.08632
0.104517
-0.152581
-0.121437
0.143114
0.128877
0.135086
-0.179262
0.139055
-0.113807
-0.314186
0.178477
-0.0582967
0.197085
0.39006
0.221345
-0.333513
-0.28165
-0.102882
0.0657961
-0.043246
0.069075
0.431158
0.221087
-0.290686
-0.341636
-0.187883
0.149949
-0.101611
0.138733
-0.245797
-0.18167
0.23089
0.181426
0.234426
0.158327
-0.195042
0.00231285
0.090674
-0.108954
0.0278375
0.203175
0.07457
-0.0989235
-0.152614
0.434239
0.169871
-0.278072
-0.315741
0.282448
0.0230489
-0.122821
-0.177113
0.112267
-0.111024
0.0477616
-0.0644376
0.144176
-0.18026
0.060855
-0.0378725
-0.295872
-0.166077
0.227602
0.241045
-0.196056
0.182601
-0.143666
0.133873
0.0760332
-0.131751
0.275108
-0.196041
-0.241157
-0.178312
0.231778
0.169233
-0.121663
0.0691366
0.230577
-0.161719
0.157334
-0.157586
0.109178
-0.116064
-0.264525
0.168294
-0.0488209
0.161972
0.326331
0.221777
-0.288446
-0.25779
-0.0920317
0.0716987
-0.0527238
0.0574817
0.293844
0.0966731
-0.18721
-0.187717
0.0554428
-0.0361512
0.0262638
-0.0431713
-0.0936805
-0.0206071
0.059064
0.0639123
-0.0465286
0.0302697
-0.00504615
0.0325321
-8.52445e-13
0.00733085
0.0105274
6.32414e-13
0.00134457
-0.00487801
-0.011213
-0.000443799
-0.0532475
0.00420388
0.13191
-0.0704824
0.000584159
0.00941751
-0.00470057
5.58312e-13
0.00595769
0.00445068
-5.04066e-13
-0.15769
0.0926847
-0.0304423
0.116362
-0.000945951
-0.0071741
-0.00319005
-0.00112487
0.000398035
-0.00299478
-0.00500627
0.000197286
-4.52081e-06
0.0096724
0.0144274
3.71559e-07
0.0403989
-0.0696035
0.174041
-0.122634
0.100962
-0.0011374
-0.059307
-0.0252764
0.0643592
0.0349299
-0.0733548
-0.043356
-0.0368727
-0.0297143
0.0372935
0.0267782
0.0889205
-0.0629367
0.0335236
-0.0527508
-0.0762746
0.0703817
-0.000558145
0.0190958
-0.0589098
0.0514012
-0.0427221
0.0392688
0.0469247
-0.0561364
0.0201886
-0.0229771
4.76797e-07
0.011431
0.00821982
-3.78028e-06
-4.21954e-13
0.00272465
0.00452724
2.85967e-13
0.030627
-0.0210056
0.00803056
-0.0197261
0.0297013
-0.0135029
0.00417963
-0.0105885
-0.0345535
0.0244151
-0.0069552
0.0194404
-0.021172
0.0089485
-0.00637384
0.0117641
-0.120676
0.101353
-0.0640778
0.107663
-0.139207
0.279338
-0.0108872
-0.150752
0.264313
0.163406
-0.272915
-0.16571
0.168773
-0.113637
-0.000441776
-0.0433811
-0.212883
-0.140092
0.197125
0.135514
-0.347237
0.264422
0.27231
-0.075266
0.0218869
0.0565179
-0.0141496
-0.0699035
-0.0325452
0.0483521
0.0404629
0.100793
-0.0370273
0.0190926
-0.0649075
0.36654
-0.267811
0.199613
-0.292422
-0.156813
-0.0644961
0.168097
0.0411645
0.170153
-0.208086
0.0689569
-0.0434424
-0.20701
0.0962447
0.237718
-0.130515
-0.427277
0.347415
-0.248459
0.333425
0.402997
-0.280159
0.128986
-0.239612
-0.144147
0.119653
0.00182321
0.0365557
0.227783
0.0857982
-0.12001
-0.163999
0.0652499
0.0761309
-0.0933279
-0.0641615
-0.033036
0.0752786
-0.07462
0.0186815
0.150103
0.0324653
-0.0739031
-0.0941556
-0.173371
-0.0229781
0.154386
0.0443347
0.111279
-0.248955
0.311538
-0.176095
-0.131522
-0.0577163
0.0939157
0.0812494
-0.174803
-0.0672665
0.187353
0.0446348
0.188505
-0.00247755
-0.122934
-0.0478824
0.117342
-0.0787276
0.0319647
-0.0635211
-0.180822
0.150439
-0.113394
0.130202
0.0539049
0.0582218
-0.069463
-0.0535772
-0.0595411
-0.0341031
0.0489918
0.0554922
-0.303449
0.256545
-0.0270523
0.0789066
0.271626
-0.255885
0.134941
-0.155455
-0.180272
0.0351681
0.192319
-0.0491322
0.15572
-0.11911
-0.126582
-0.370183
-0.0468521
0.255183
0.168386
0.297098
0.0442756
-0.262934
-0.0772545
-0.151591
0.116186
-0.080412
0.110771
0.100456
-0.0614899
0.0345943
-0.0699387
-0.171767
-0.1597
0.179148
0.138554
-0.102921
-0.263109
0.200097
-0.305402
0.234183
-0.105026
0.184342
0.195756
-0.226017
0.169854
-0.157504
0.26553
-0.194751
-0.30483
0.219714
0.344621
-0.220709
0.156796
-0.262236
-0.240362
0.165766
0.338795
-0.263602
-0.423139
0.273687
-0.154861
0.304396
-0.206547
0.198295
-0.160803
0.149723
0.282639
-0.17802
0.10614
-0.204912
-0.17768
-0.194195
0.214198
0.136266
0.266252
0.0212974
-0.149534
-0.129545
-0.256693
-0.150177
0.23702
0.161946
0.106667
-0.0397644
0.0208111
-0.0716174
0.244962
0.168511
-0.236795
-0.191118
-0.233904
-0.119249
0.17942
0.190516
-0.266388
-0.123499
0.185995
0.206331
0.149827
-0.250389
0.354316
-0.256097
0.245843
-0.0111257
-0.302049
0.0773524
0.139934
0.147575
-0.1813
-0.127539
-0.0980136
0.0684327
-0.0430295
0.06187
-0.0999356
0.159753
-0.225932
0.174975
0.199725
-0.26402
0.199928
-0.160006
-0.116858
-0.0423073
0.0915476
0.0786091
0.121661
0.0481738
-0.10916
-0.0713525
0.294883
0.0258352
-0.238628
-0.0755187
0.104802
0.353555
-0.254424
0.150699
-0.250869
0.405845
-0.287018
-0.17859
-0.202026
0.213101
0.135819
-0.32228
0.192477
0.244747
0.211877
0.0772329
-0.112467
-0.146561
0.19046
0.073022
-0.226703
-0.0486178
-0.367109
0.235737
-0.124616
0.273857
0.134513
-0.194442
0.145213
-0.109436
0.245695
0.0870271
-0.134855
-0.169932
-0.171931
-0.155595
0.179057
0.124271
-0.274975
-0.0286039
0.175207
0.133239
-0.0599049
-0.0332558
0.0444362
0.0346398
-0.10907
0.0943058
-0.0534799
0.0906842
0.18065
-0.0745584
-0.312435
0.220151
0.133303
-0.140569
0.0921645
-0.0995784
0.122131
-0.171442
0.137104
-0.111445
-0.130396
0.107622
-0.0624778
0.108453
-0.151797
-0.0254351
0.102009
0.0735602
-0.159441
-0.0358945
0.0960444
0.100945
0.197587
0.099637
-0.181059
-0.11827
0.063604
-0.0325793
0.00778169
-0.0324813
0.0390593
-0.0130789
-0.0696652
0.0387092
0.0922798
-0.155979
0.284582
-0.209997
-0.12206
0.137229
-0.148074
0.119042
0.0744433
-0.0716382
0.0133808
-0.0186174
-0.161582
0.127167
-0.0791605
0.116965
-0.105948
-0.0619185
0.095693
0.069123
0.0600077
-0.0333848
0.015763
-0.0383963
-0.0564087
-0.00800142
0.0527811
0.0141026
0.098336
0.0859015
-0.0989631
-0.0894351
-0.485619
0.408993
0.0015442
0.00208694
0.00427786
-0.177225
-0.0994672
0.00814937
0.126322
-0.00226154
-0.300322
0.00121449
-0.127895
0.112393
-0.0913033
-0.0188049
0.0105081
-0.00881252
0.127951
0.00694532
-0.0684278
0.0119424
0.0080625
-0.0141994
0.0688423
0.0165054
0.00360779
0.0151073
-0.0951516
0.0607208
-0.481219
-0.0105062
-0.0474291
0.000991479
-0.0154794
-0.00616802
0.384057
-0.411055
-0.0193767
-0.0160522
-0.0741194
0.478472
0.0818436
-0.0346347
-0.0802335
0.0222072
-0.0396586
0.0209864
0.0213581
-0.0524799
-0.0252313
0.0583295
-0.0314722
0.064995
-0.0159061
0.0244659
-0.0284591
-0.010746
0.0316001
0.0280675
0.0146118
-0.0253382
0.015687
0.0136883
-0.0346283
-0.0199695
-0.0891562
0.0424349
-0.0333894
-0.226608
0.184272
0.105084
0.0852139
-0.114615
-0.172105
-0.111389
0.158059
-0.173059
0.158856
-0.194466
-0.10243
0.0693996
-0.0999484
-0.0621767
0.0752406
-0.077502
0.0486111
0.144925
-0.0736808
0.198465
-0.00381172
0.0107123
0.00958833
0.00460611
-0.0121416
-0.00919376
-0.0378929
0.0522675
-0.0680373
-0.095659
0.0460777
0.0329236
0.023677
-0.0335895
-0.0263706
0.128901
-0.137247
0.0884466
-0.154315
0.108525
-0.171754
-0.229715
0.199021
-0.144984
-0.164143
0.224744
-0.27078
0.230237
-0.203751
0.144442
-0.0054563
0.0086417
-0.00752848
0.0050755
-0.00853725
0.00556325
0.0237222
-0.0222009
-0.0240091
0.344844
-0.288799
-0.383311
-0.259979
0.388032
-0.373653
-0.0456546
0.0331459
-0.0317463
-0.0661712
0.0483492
0.0529505
-0.271237
0.269952
0.321214
0.339917
-0.371549
0.269776
0.253247
-0.280424
0.325588
-0.0160051
0.0105367
-0.0128487
-0.168639
0.182524
-0.216402
-0.465429
0.460444
-0.365229
0.266999
-0.249311
-0.20502
0.0063223
0.00864012
-1.00026e-13
-0.00851368
-0.00703725
-0.000446244
0.00789829
0.00557976
2.33396e-07
0.0154604
0.0172291
0.000186407
-0.461261
0.457947
0.384906
-0.261474
0.256267
0.276202
-0.0275621
0.0877567
0.0684625
-0.343821
0.381346
-0.321184
-0.123334
0.129248
-0.1731
-0.0168868
-0.0137511
-0.000754031
0.0248659
0.015022
-0.000198404
-0.408188
0.312113
0.313878
-0.421436
0.547802
-0.406869
0.0768133
-0.104981
0.149193
0.192089
-0.151523
0.150074
0.139314
-0.170785
-0.148043
0.12521
-0.102973
-0.167012
0.10101
-0.144954
-0.0792735
-0.0531569
0.0408778
-0.041386
0.10081
-0.0728258
-0.123731
0.00373958
-0.0102879
-0.00556368
-0.00472992
0.0126338
0.00752848
-0.0841292
0.070866
0.0493229
-0.442771
0.458412
0.433973
-0.34626
0.396037
-0.328328
-0.0981307
0.105609
0.180282
-0.107604
0.0676647
-0.0567915
-0.0130529
-0.0151064
-4.74231e-06
-0.0523509
0.0452714
0.083995
-0.0893899
0.0751505
0.0501417
-0.144586
0.13403
-0.134142
-0.20946
0.195621
0.208802
0.38726
-0.358215
-0.395764
0.204719
-0.235606
-0.144442
-0.112945
0.11557
-0.122249
-0.149321
0.15074
-0.162953
-0.106443
0.0876131
0.118862
0.174302
-0.201788
0.138295
0.398321
-0.369452
0.425709
0.263207
-0.303554
-0.223805
-0.0614118
0.0700153
0.080744
-0.0751903
0.0483167
-0.0644937
-0.105902
0.134239
0.11729
0.0820857
-0.0827518
0.0437998
-0.0417644
0.0516321
-0.0510769
0.071586
-0.0640109
0.0461938
-0.207283
0.22371
0.306721
0.0448008
-0.0470342
-0.0482031
0.263424
-0.329301
0.405113
-0.0478829
0.050835
0.0308405
0.12981
-0.107399
-0.17618
-0.15239
0.103622
0.0701774
-0.0166443
-0.0146253
-3.12536e-13
-0.0246326
0.0194847
-0.0245635
-0.114994
0.0725356
-0.0575708
0.17006
-0.197374
-0.10746
-0.392698
0.413335
0.443998
0.154325
-0.165366
-0.0966654
-0.0800269
0.0395081
-0.0319834
0.140318
-0.19528
0.10772
-0.0414451
0.052947
-0.0357678
0.0638934
-0.0537184
0.0396708
-0.0877349
0.0808222
0.0446907
0.00515263
-0.00869365
0.00919794
-0.00539563
0.00849803
-0.00958666
0.135312
-0.17783
0.0891853
0.0730999
-0.074934
0.0838847
0.113439
-0.078087
-0.123914
-0.0730258
0.0651433
0.0716896
0.0692629
-0.0225469
0.0673648
-0.0933942
0.0443141
-0.0334006
0.0784571
-0.0236686
0.0662688
-0.0797168
0.0978067
-0.106763
-0.118232
0.13313
-0.186641
0.109374
-0.124859
0.152762
-0.0862444
0.0707771
-0.0602349
0.0271721
-0.0587158
-0.0264077
0.0295716
-0.0589076
0.0268626
-0.115432
0.142801
0.140376
0.0233997
-0.0120383
0.0225898
0.159974
-0.0942534
-0.13851
-0.122683
0.192765
-0.201462
-0.151747
0.146102
0.200967
0.136363
-0.166112
-0.0936285
-0.0254057
0.0579357
0.0626977
0.0267685
-0.0127622
-0.0197095
0.0534028
-0.0603931
0.0385661
0.018021
-0.0443729
-0.0216665
-0.0731737
0.033686
0.0323584
-0.0428908
0.0558026
-0.0465479
-0.061718
0.0713473
0.0827543
-0.0266674
0.0500934
-0.0619512
0.0304189
-0.0135651
-0.0262711
0.0189215
-0.0324654
0.020536
0.167117
-0.220979
0.0999848
0.0501006
-0.0362927
-0.0651599
-0.0931185
0.0448195
0.0332066
0.0510158
-0.034389
-0.0758869
0.0375168
-0.04003
0.0268101
0.285138
-0.219677
0.304295
-0.0660812
0.0338199
-0.028725
-0.41423
0.433662
-0.434028
-0.045093
0.0227253
0.0255674
0.0417235
-0.018249
-0.0394442
0.0386099
-0.0357175
-0.0383393
-0.232531
0.30721
0.343451
0.077746
-0.0891235
-0.0828007
0.109998
-0.0800728
0.0751431
0.0835451
-0.105476
0.0999555
0.0450995
-0.0319675
0.0294576
-0.0376244
0.0442336
0.0731474
0.0796347
-0.0832679
-0.0809922
-0.171222
0.191964
-0.14704
0.148101
-0.165958
0.170511
-0.140063
0.154859
0.0955157
0.147058
-0.16451
-0.135049
0.226668
-0.173208
-0.24055
-0.0743612
0.0611621
-0.0931147
0.0614545
-0.0664768
0.0475005
0.00438827
0.00600031
-3.95458e-13
-0.0131844
-0.00712502
-0.00115007
0.0130081
0.015184
4.09522e-06
-0.0317132
0.0284131
0.030308
-0.00459553
-0.00575439
0.000532551
0.00812279
0.0113469
7.71517e-13
0.0150672
0.0143871
-0.000566547
0.0103985
0.00717536
-3.42985e-07
-0.0135174
-0.00830815
0.0009372
-0.140807
0.115826
-0.0917152
-0.0390438
0.0223515
-0.023725
0.0909083
-0.152157
0.0654433
0.00666205
0.00505001
3.72903e-13
0.048936
-0.0303764
-0.041084
0.0353387
-0.0293569
0.0439392
0.267691
-0.280075
0.234158
0.270738
-0.289313
-0.241543
-0.220382
0.173268
0.192468
0.126731
-0.129516
-0.108444
0.0790809
-0.0455004
0.104883
0.0598683
-0.0751514
-0.107048
-0.215695
0.268087
-0.19389
0.0729066
-0.0462251
0.0991514
0.0500062
-0.0678794
-0.0778689
0.134613
-0.135735
0.192852
0.194778
-0.184437
-0.24268
0.332577
-0.340637
-0.239648
-0.206174
0.188044
-0.26673
0.194967
-0.264849
-0.263843
0.295709
-0.217301
0.247575
0.253135
-0.305394
-0.295737
0.387691
-0.43806
0.285353
-0.285546
0.225655
-0.305489
-0.108662
0.16657
0.19911
-0.114959
0.129168
0.182816
0.128598
-0.100642
0.205078
0.127088
-0.157436
-0.10866
0.0948229
-0.0579667
0.137541
0.0706908
-0.0960427
-0.137991
-0.395136
0.439933
-0.321471
-0.206654
0.147144
0.287064
0.246111
-0.249015
-0.343882
-0.441765
0.456187
-0.320428
-0.306448
0.344196
-0.342541
0.455229
-0.450795
0.373974
-0.232719
0.217275
0.134303
-0.339368
0.315474
-0.209012
0.0398412
-0.0445965
-0.0487877
0.0564485
-0.0452248
-0.0592585
0.262303
-0.253272
-0.303944
-0.440549
0.36216
0.335171
0.0799258
-0.0823932
0.107089
0.140615
-0.0979895
0.109246
0.123925
-0.14103
-0.138938
-0.189688
0.181392
-0.186631
0.11232
-0.147469
0.169118
-0.195583
0.241432
-0.212325
0.178029
-0.207313
-0.156496
0.36034
-0.280852
-0.363697
0.374021
-0.365482
0.437932
0.261072
-0.358526
0.392426
-0.214737
0.159755
-0.140909
-0.196795
0.211915
0.160818
0.310303
-0.312591
-0.267972
0.361082
-0.308451
-0.25321
-0.31612
0.359222
-0.399231
0.320767
-0.355022
0.194355
0.31944
-0.313759
0.360232
0.159276
-0.176174
0.127582
0.299437
-0.331502
-0.187671
-0.194203
0.139702
-0.207434
-0.160052
0.20476
0.243234
0.262051
-0.234453
-0.306866
0.23628
-0.196557
0.186852
0.175434
-0.218937
-0.179983
-0.159547
0.186797
-0.233308
0.194652
-0.230514
0.132713
-0.160538
0.176324
0.235945
-0.110585
0.0985959
0.152513
0.153984
-0.142907
0.100156
0.406482
-0.254733
-0.410298
0.0811927
-0.0797861
-0.0947996
0.154168
-0.148718
-0.126869
0.148203
-0.145113
0.0959154
0.0624086
-0.0663512
-0.0772904
0.133446
-0.130208
-0.0981406
0.289138
-0.392269
0.414752
-0.419788
0.334363
0.243318
-0.260903
0.276329
-0.34834
-0.125093
0.0941922
0.0995397
-0.125469
0.134308
-0.165164
-0.132365
0.128028
-0.108564
-0.192734
0.2011
0.273548
-0.289273
0.293308
-0.208837
-0.0615929
0.0570865
-0.046206
0.093804
-0.0727443
0.0706831
-0.0882937
0.0737771
0.0822637
-0.142397
0.146014
0.087524
0.0697177
-0.0788767
-0.0922846
0.203531
-0.244949
0.233561
0.241524
-0.168611
-0.229394
-0.17522
0.183341
-0.160733
-0.111881
0.0787589
0.116077
-0.403485
0.25415
-0.093587
0.432134
-0.640704
0.110062
0.125502
-0.228703
0.0905036
0.0449495
-0.0599153
-0.384265
0.445261
0.165069
0.190635
-0.180026
0.0746253
-0.0338857
0.0950772
0.0487913
-8.2789e-16
-0.00674637
0.0157014
0.00674637
0.00220868
9.43764e-16
-1.034e-14
0.0137625
9.88606e-15
0.000269738
0.410474
0.341862
-0.611635
0.0610916
-0.0957914
-0.0340474
0.0378213
-0.0690783
0.0631605
-0.0850058
0.028006
-0.0436098
-0.167437
-0.135973
0.425661
0.108786
0.171119
0.381687
-0.227117
0.0243572
-0.0725811
0.108253
-0.0346582
-0.00991509
0.105246
-0.423447
-0.206847
0.426361
-0.16652
-0.0136691
-0.366961
0.00810701
0.164439
0.225782
-0.0890032
-0.348709
-0.344052
-0.178537
0.0821716
-0.0604453
-0.0209249
-0.215614
-0.536787
0.513019
-0.521875
0.0538303
0.283979
-0.211207
-0.0485763
-0.444205
-0.25839
0.187118
-0.413858
0.0331406
-0.508679
0.508924
0.228765
-0.059482
0.118729
-0.110686
0.0197766
-0.111711
0.0601271
0.196045
0.281674
-0.293776
-0.163729
0.34621
0.0385932
0.178196
-0.0502988
0.180671
0.437522
0.374657
-0.314737
0.144952
-0.487842
-0.0993183
0.313722
0.299039
-0.186056
0.00535338
-0.281782