/*--------------------------------*- C++ -*----------------------------------*\
  =========                 |
  \\      /  F ield         | OpenFOAM: The Open Source CFD Toolbox
   \\    /   O peration     | Website:  https://openfoam.org
    \\  /    A nd           | Version:  6
     \\/     M anipulation  |
\*---------------------------------------------------------------------------*/
FoamFile
{
    version     2.0;
    format      ascii;
    class       volScalarField;
    location    "2.72";
    object      nut;
}
// * * * * * * * * * * * * * * * * * * * * * * * * * * * * * * * * * * * * * //

dimensions      [0 2 -1 0 0 0 0];

internalField   nonuniform List<scalar> 
4214
(
0.00484487
0.00275673
0.00209799
0.00196014
0.00199723
0.00221069
0.0028953
0.00443188
0.00717725
0.011314
0.016739
0.0230589
0.0296653
0.035984
0.0416496
0.0465121
0.05071
0.0544622
0.0581233
0.0618471
0.0654801
0.0687904
0.0715018
0.0739841
0.0785397
0.0950204
0.131498
0.165556
0.168706
0.141194
0.100035
0.060826
0.0319956
0.0148769
0.0066097
0.00334915
0.00232255
0.00205249
0.00205514
0.00254293
0.00429296
0.00196181
0.00190566
0.00195415
0.00199318
0.00213015
0.00272671
0.00430534
0.00743619
0.0125507
0.0196111
0.0280616
0.0370058
0.0455519
0.0531155
0.0594303
0.0645776
0.0688776
0.0724836
0.0758567
0.079211
0.0821073
0.084131
0.0850036
0.0854056
0.0885744
0.104724
0.137555
0.169963
0.17649
0.153146
0.112181
0.0705325
0.0381769
0.0180453
0.00793508
0.00380001
0.00243961
0.00210628
0.00200567
0.00190264
0.00182546
0.00202908
0.00206744
0.00205135
0.00208401
0.00250898
0.00395629
0.00728174
0.0133009
0.0222754
0.0335114
0.0457423
0.0576005
0.0681254
0.0768738
0.0838036
0.0892079
0.0935492
0.0972626
0.100454
0.102827
0.103967
0.103299
0.101085
0.0987583
0.100929
0.116703
0.145818
0.1748
0.182805
0.163603
0.124124
0.0806979
0.044948
0.021654
0.00950318
0.0043666
0.0026016
0.00215473
0.00208416
0.00205688
0.00201034
0.00215817
0.00211788
0.0020806
0.00230608
0.00344077
0.00660465
0.0131846
0.0240399
0.038675
0.0552994
0.0718955
0.0868789
0.0994184
0.109318
0.11677
0.122368
0.126667
0.129862
0.131689
0.13186
0.129672
0.125104
0.119282
0.114639
0.116855
0.131737
0.156808
0.180981
0.1887
0.172805
0.1354
0.0909948
0.0522036
0.0256999
0.0113292
0.00505325
0.00280947
0.00219433
0.00209408
0.00208438
0.00207719
0.00217985
0.00211895
0.00217498
0.00290706
0.00550733
0.0119783
0.0241967
0.0424037
0.0646154
0.0876619
0.109011
0.127074
0.141164
0.151388
0.158389
0.163147
0.166088
0.167027
0.165876
0.161971
0.155187
0.146281
0.137603
0.132444
0.135622
0.149025
0.169455
0.188041
0.193963
0.179942
0.144919
0.1005
0.0594109
0.0299644
0.0133508
0.00584899
0.00306823
0.00225044
0.00209689
0.00208044
0.00207108
0.00218429
0.0021441
0.00248307
0.0042979
0.00978977
0.0222435
0.0433887
0.0718687
0.103319
0.133441
0.158921
0.178004
0.190632
0.198036
0.2018
0.203078
0.202254
0.199206
0.193577
0.185394
0.175132
0.164271
0.155606
0.151888
0.155905
0.16678
0.182001
0.194916
0.198014
0.184368
0.151712
0.10824
0.0659147
0.0341312
0.0154579
0.0067257
0.0033736
0.00232771
0.0021069
0.00207893
0.00206204
0.00219337
0.0022602
0.00324664
0.00724099
0.0181644
0.0406176
0.0746111
0.116227
0.15776
0.193018
0.216889
0.230031
0.234941
0.234839
0.232141
0.22781
0.222108
0.215136
0.206963
0.197801
0.187914
0.178621
0.17244
0.17091
0.174744
0.182574
0.192548
0.200083
0.199735
0.185372
0.154701
0.113046
0.070814
0.0377035
0.0174506
0.00762231
0.00371067
0.00242401
0.00212575
0.00208511
0.00206385
0.00222246
0.00258456
0.00489793
0.0130721
0.0335131
0.0711101
0.122288
0.178985
0.224769
0.25416
0.263771
0.262534
0.256416
0.248044
0.23891
0.229858
0.221402
0.213562
0.206243
0.199434
0.193464
0.188222
0.185363
0.185634
0.188653
0.193553
0.198807
0.201503
0.197455
0.181809
0.15281
0.113753
0.0731154
0.0400601
0.0190443
0.00843855
0.00405064
0.00253214
0.0021515
0.00209726
0.00207554
0.00231255
0.00331296
0.00816126
0.0237809
0.0594479
0.118668
0.188579
0.251485
0.281601
0.28853
0.281859
0.268539
0.253221
0.23856
0.225873
0.215639
0.20776
0.201714
0.197198
0.193907
0.191735
0.190492
0.190604
0.191941
0.194197
0.196728
0.198335
0.196963
0.189456
0.17317
0.145832
0.109752
0.0719777
0.0405664
0.0199021
0.00903773
0.00434917
0.00263944
0.00218079
0.00211245
0.00209371
0.00253323
0.00472022
0.014043
0.0416009
0.099857
0.183428
0.258199
0.297295
0.307352
0.297687
0.277989
0.255458
0.234537
0.21722
0.203986
0.194484
0.187971
0.183905
0.181738
0.181124
0.181608
0.18296
0.184767
0.186768
0.188604
0.189703
0.188791
0.184529
0.17488
0.158142
0.13306
0.100823
0.0671463
0.0388196
0.0197223
0.00927056
0.00454965
0.00272737
0.00220845
0.00212739
0.00211498
0.00295285
0.00706103
0.0233766
0.0677157
0.152707
0.239871
0.297595
0.319665
0.313815
0.291443
0.262794
0.234974
0.211509
0.193312
0.180057
0.170573
0.164367
0.160829
0.159684
0.160116
0.161673
0.163954
0.166534
0.16894
0.170586
0.170676
0.16851
0.163059
0.152894
0.136676
0.114529
0.0870664
0.0587135
0.0348044
0.0183766
0.00902261
0.00459529
0.00277382
0.00222745
0.00213805
0.00213555
0.00356468
0.0102166
0.0352112
0.0984164
0.188607
0.270757
0.317711
0.327736
0.31124
0.280644
0.246566
0.215424
0.189845
0.170233
0.155932
0.145639
0.138764
0.134573
0.132839
0.132842
0.13408
0.136111
0.13849
0.14067
0.141988
0.14167
0.139226
0.133772
0.124343
0.110233
0.0916114
0.0697703
0.0475741
0.0289584
0.0159875
0.00828189
0.00445477
0.00276099
0.00223039
0.00213952
0.00215048
0.00415944
0.0130628
0.044373
0.110878
0.202629
0.282891
0.325744
0.330251
0.307915
0.272115
0.233836
0.199536
0.171513
0.149898
0.133904
0.122272
0.114251
0.109117
0.106132
0.104913
0.104928
0.105739
0.106964
0.108137
0.108672
0.107989
0.105583
0.10077
0.0929153
0.0817253
0.0674617
0.0514131
0.0355135
0.0223005
0.0129859
0.00717674
0.00415057
0.00268683
0.00221306
0.00212659
0.00215326
0.00428312
0.0131224
0.0422408
0.103947
0.194252
0.27838
0.325822
0.332037
0.307885
0.268633
0.226791
0.188945
0.15792
0.133961
0.116298
0.103479
0.0945065
0.0885471
0.0846564
0.0821403
0.0806437
0.0797814
0.0792839
0.078853
0.0781039
0.0767005
0.0741322
0.0699865
0.0638397
0.0556576
0.045755
0.034993
0.0246699
0.0161279
0.0100319
0.00597723
0.00377408
0.00257685
0.00218091
0.00209585
0.00213582
0.00369218
0.00976822
0.0313221
0.0811626
0.16635
0.25618
0.319042
0.333251
0.312284
0.271127
0.225542
0.184269
0.150056
0.123627
0.104367
0.0910847
0.0815377
0.0752283
0.070764
0.067529
0.0648331
0.0625112
0.0603493
0.0582943
0.0560695
0.0536457
0.0505815
0.0468115
0.0419687
0.0362205
0.0297098
0.0230029
0.016793
0.0115595
0.00779261
0.00502284
0.00348563
0.00249233
0.00216067
0.00205119
0.00209182
0.00295086
0.0056874
0.0176344
0.0491162
0.122918
0.20976
0.301648
0.329336
0.318532
0.277935
0.229447
0.184473
0.147832
0.119272
0.0983341
0.0847684
0.0749248
0.0688491
0.0641443
0.0606918
0.0574408
0.0543159
0.0509804
0.0478531
0.0443457
0.0411169
0.0373763
0.03376
0.0295617
0.025344
0.0208626
0.0164835
0.0126549
0.00916526
0.00675463
0.00461527
0.00349855
0.00252915
0.00222003
0.00201371
0.00202869
0.00257654
0.0032388
0.00809939
0.0198769
0.0763742
0.13569
0.270266
0.311759
0.322546
0.291126
0.239211
0.195019
0.152347
0.122081
0.0970245
0.0844261
0.072778
0.0676062
0.0625809
0.059615
0.0559839
0.0531006
0.048945
0.0457519
0.0410365
0.0377797
0.0330852
0.0297853
0.0254803
0.0219992
0.0183843
0.0147899
0.0121042
0.008927
0.00724401
0.00495424
0.00410702
0.0028054
0.00250926
0.00203131
0.00199884
0.00204186
0.00212037
0.00216662
0.00217923
0.00216779
0.00214333
0.00211405
0.00208517
0.00206037
0.00204282
0.00203611
0.0020446
0.00206784
0.0020752
0.00194517
0.00194253
0.00961727
0.00204727
0.00212084
0.00215337
0.00215398
0.00213666
0.0021116
0.00208492
0.00206001
0.00203919
0.00202493
0.00202064
0.00203096
0.00205671
0.00207109
0.00195915
0.00192636
0.0098216
0.00213435
0.00215032
0.00214634
0.00212983
0.00210724
0.00208278
0.0020591
0.00203788
0.00202051
0.00200902
0.00200676
0.0020187
0.00204684
0.00206822
0.00197158
0.00193379
0.00995404
0.00212338
0.00212843
0.00211809
0.00209997
0.00207872
0.00205712
0.00203682
0.00201888
0.00200439
0.00199517
0.00199455
0.0020078
0.00203812
0.00206615
0.00198553
0.00195742
0.0100531
0.00211757
0.00210676
0.00209098
0.00207264
0.00205362
0.00203518
0.00201811
0.00200307
0.00199097
0.00198355
0.00198417
0.00199839
0.00203061
0.00206487
0.00200104
0.00199448
0.0101159
0.00210284
0.00208569
0.00206792
0.00205042
0.00203363
0.00201779
0.00200323
0.00199041
0.00198012
0.00197407
0.00197559
0.00199051
0.00202431
0.00206428
0.002018
0.00204317
0.0101389
0.002069
0.00205713
0.00204393
0.00203027
0.00201667
0.00200355
0.00199133
0.00198045
0.00197168
0.0019667
0.00196892
0.00198436
0.0020195
0.00206462
0.00203646
0.00210209
0.010113
0.00205943
0.00204423
0.00203023
0.00201714
0.0020049
0.00199345
0.00198286
0.00197337
0.00196573
0.00196158
0.00196437
0.00198029
0.00201662
0.0020664
0.00205688
0.00217024
0.0100313
0.00203621
0.00202643
0.00201621
0.00200599
0.00199597
0.0019863
0.00197716
0.00196887
0.00196218
0.00195881
0.00196224
0.00197875
0.00201631
0.00207046
0.00208028
0.00224721
0.00988947
0.00203181
0.0020207
0.00201033
0.00200057
0.00199136
0.00198266
0.00197449
0.0019671
0.00196124
0.00195863
0.00196285
0.00198025
0.00201931
0.00207799
0.00210841
0.00233362
0.00968759
0.00202197
0.0020137
0.00200542
0.00199729
0.00198941
0.00198179
0.00197453
0.00196796
0.00196291
0.00196119
0.0019665
0.00198528
0.0020265
0.00209056
0.00214379
0.0024309
0.00942968
0.00202133
0.00201324
0.00200547
0.00199802
0.00199083
0.00198388
0.0019773
0.00197146
0.00196726
0.00196666
0.00197348
0.00199441
0.0020389
0.00211011
0.00218962
0.00254024
0.0091218
0.00202136
0.00201433
0.00200756
0.00200101
0.00199463
0.00198843
0.00198257
0.00197752
0.00197435
0.00197521
0.00198418
0.00200835
0.00205784
0.00213909
0.00224959
0.00266279
0.00877104
0.00202367
0.00201795
0.00201219
0.00200646
0.00200079
0.00199528
0.00199017
0.00198606
0.00198421
0.0019871
0.00199915
0.00202815
0.00208516
0.0021805
0.00232748
0.0027988
0.008385
0.00203074
0.00202491
0.00201947
0.00201423
0.00200913
0.00200427
0.00199998
0.00199704
0.001997
0.00200275
0.0020193
0.00205526
0.00212316
0.00223772
0.00242664
0.0029476
0.00797187
0.00203552
0.00203178
0.00202768
0.00202341
0.00201914
0.00201512
0.00201191
0.0020106
0.00201316
0.00202296
0.00204594
0.00209174
0.00217473
0.00231418
0.00254894
0.00310614
0.00753961
0.00204726
0.00204266
0.00203859
0.00203473
0.00203107
0.00202796
0.00202619
0.0020272
0.00203345
0.00204907
0.00208098
0.00214025
0.00224324
0.00241291
0.00269363
0.003266
0.00709436
0.00205407
0.00205218
0.00204972
0.002047
0.00204441
0.00204271
0.00204312
0.00204754
0.0020591
0.00208284
0.0021269
0.0022039
0.00233184
0.00253543
0.00285674
0.00341338
0.00664022
0.00206892
0.00206582
0.00206341
0.00206123
0.00205974
0.00205998
0.00206351
0.00207279
0.00209172
0.00212641
0.00218638
0.00228552
0.00244247
0.00268024
0.00302868
0.00354146
0.00618296
0.00207766
0.00207782
0.00207724
0.00207653
0.002077
0.00208021
0.00208825
0.00210427
0.0021331
0.00218207
0.00226189
0.00238703
0.00257488
0.00284238
0.00319935
0.00363954
0.00572866
0.00209473
0.00209374
0.00209352
0.00209407
0.00209709
0.00210439
0.00211851
0.00214346
0.00218508
0.0022518
0.00235501
0.00250855
0.00272595
0.0030135
0.00335633
0.00370021
0.00528248
0.0021058
0.00210845
0.00211041
0.00211352
0.00212035
0.00213316
0.00215525
0.00219156
0.00224891
0.00233649
0.0024655
0.00264741
0.00288901
0.00318221
0.00348694
0.0037185
0.00485112
0.0021247
0.00212657
0.0021299
0.00213585
0.00214741
0.00216716
0.00219914
0.00224915
0.0023248
0.00243536
0.00259065
0.00279781
0.00305429
0.00333577
0.00358028
0.00368997
0.00444052
0.00213852
0.00214425
0.00215062
0.00216085
0.00217841
0.0022065
0.00225013
0.00231579
0.00241139
0.00254546
0.00272509
0.00295125
0.00321041
0.00346252
0.00362959
0.00361309
0.00405727
0.00215911
0.00216491
0.002174
0.00218881
0.00221315
0.00225073
0.00230725
0.00238961
0.00250543
0.00266159
0.00286116
0.00309774
0.00334658
0.00355455
0.00363523
0.00350278
0.00370891
0.00217645
0.00218574
0.00219876
0.00221906
0.00225087
0.00229854
0.00236838
0.0024673
0.002602
0.0027769
0.00299026
0.00322791
0.00345517
0.00360991
0.00360464
0.00337559
0.00340389
0.00219741
0.00220877
0.00222536
0.00225096
0.00229021
0.00234782
0.00243035
0.00254433
0.00269505
0.00288399
0.00310437
0.00333495
0.00353349
0.00363324
0.00355092
0.00324715
0.00315162
0.00221812
0.0022319
0.00225235
0.00228319
0.00232932
0.00239586
0.00248933
0.0026156
0.00277836
0.00297607
0.00319745
0.00341577
0.00358402
0.0036344
0.00349059
0.00313474
0.0029618
0.0022399
0.00225615
0.00227955
0.00231451
0.00236614
0.0024396
0.00254115
0.00267586
0.0028459
0.00304731
0.00326577
0.00347169
0.00361683
0.00363536
0.00345795
0.00307921
0.00285115
0.0022617
0.00227952
0.00230532
0.00234313
0.00239818
0.00247564
0.00258141
0.00272
0.00289263
0.00309423
0.00330958
0.00350902
0.00364565
0.00365627
0.00347506
0.00309773
0.00283423
0.00228394
0.00230289
0.00232948
0.0023681
0.00242383
0.00250174
0.00260729
0.00274477
0.00291528
0.00311419
0.00332772
0.00352911
0.00367534
0.00370615
0.00355384
0.00320201
0.00292441
0.00230622
0.00232521
0.0023516
0.00238908
0.00244256
0.00251702
0.00261749
0.00274836
0.0029114
0.0031039
0.00331589
0.00352661
0.00370019
0.00378106
0.00369575
0.00339908
0.0031352
0.00232933
0.00234793
0.00237254
0.00240688
0.00245522
0.00252234
0.00261282
0.00273111
0.00288018
0.00306015
0.00326661
0.00348776
0.00369944
0.00385634
0.00388213
0.00369423
0.00347967
0.00235354
0.00237107
0.00239338
0.0024232
0.00246423
0.00252071
0.00259687
0.00269683
0.00282457
0.00298304
0.00317375
0.0033955
0.00364059
0.00388441
0.00406372
0.00406393
0.00396972
0.00237999
0.00239659
0.00241605
0.00244076
0.00247345
0.00251743
0.00257643
0.00265404
0.00275422
0.00288169
0.00304238
0.00324437
0.00349778
0.00380952
0.00415992
0.00444731
0.00461566
0.00240896
0.00242505
0.00244237
0.00246247
0.00248738
0.00251932
0.00256097
0.00261539
0.00268593
0.00277723
0.00289667
0.0030573
0.0032815
0.00360705
0.00408644
0.00473363
0.00542548
0.00243982
0.00245724
0.00247364
0.00249065
0.00250974
0.00253231
0.00255993
0.00259457
0.0026388
0.00269643
0.00277373
0.00288305
0.00304912
0.00332403
0.00382229
0.00477832
0.00640404
0.00247097
0.00249127
0.00250927
0.00252573
0.00254197
0.00255916
0.00257819
0.00260012
0.00262648
0.00265964
0.0027039
0.00276806
0.0028712
0.00305918
0.00345967
0.00449223
0.00755211
0.00250131
0.00252559
0.00254688
0.00256548
0.00258218
0.00259812
0.00261416
0.00263088
0.00264913
0.00267018
0.00269623
0.00273187
0.00278784
0.00289325
0.00314332
0.00396455
0.00886581
0.00252977
0.00255842
0.00258403
0.00260644
0.00262604
0.00264388
0.0026611
0.00267837
0.00269624
0.00271545
0.00273708
0.00276311
0.00279783
0.00285321
0.00297387
0.00342313
0.0103362
0.00219186
0.00219081
0.00219417
0.00219953
0.00220542
0.0022115
0.00221802
0.00222544
0.00223419
0.00224468
0.00225725
0.00227218
0.00228976
0.0023101
0.00233327
0.00235917
0.00238771
0.00241855
0.00245127
0.00248543
0.00252443
0.00256605
0.00259672
0.00262415
0.0026483
0.0026688
0.00268542
0.00269813
0.00270695
0.00271203
0.00271346
0.00271139
0.00270598
0.00269734
0.00268565
0.00267093
0.00265348
0.00263335
0.00261084
0.00258553
0.00255739
0.00218086
0.00218089
0.00218629
0.00219336
0.00220048
0.00220751
0.00221493
0.00222327
0.00223305
0.00224465
0.00225848
0.00227476
0.00229384
0.00231573
0.00234058
0.00236823
0.00239855
0.0024312
0.00246572
0.00250166
0.00254211
0.00258483
0.00261721
0.00264654
0.00267267
0.00269518
0.00271382
0.00272846
0.00273909
0.00274576
0.00274855
0.00274755
0.0027429
0.00273472
0.00272315
0.00270828
0.00269031
0.00266948
0.00264598
0.0026197
0.0025899
0.0021723
0.00217427
0.00218209
0.00219077
0.00219886
0.00220662
0.00221476
0.00222391
0.00223461
0.00224728
0.00226226
0.00227986
0.00230029
0.00232369
0.00235007
0.00237934
0.00241129
0.00244558
0.00248173
0.00251924
0.00256092
0.00260449
0.00263839
0.00266943
0.00269731
0.00272162
0.00274204
0.0027584
0.00277064
0.00277873
0.00278272
0.00278263
0.00277858
0.00277069
0.00275906
0.00274383
0.00272516
0.00270332
0.00267859
0.00265102
0.00261969
0.00216717
0.00217233
0.00218266
0.00219254
0.00220118
0.00220937
0.00221803
0.00222786
0.00223937
0.00225299
0.00226905
0.00228783
0.00230954
0.00233429
0.00236209
0.0023928
0.0024262
0.00246193
0.00249951
0.00253838
0.00258108
0.00262527
0.00266051
0.00269302
0.00272242
0.00274826
0.00277022
0.00278806
0.00280167
0.00281096
0.00281593
0.00281655
0.00281292
0.00280513
0.00279329
0.0027775
0.00275795
0.0027349
0.00270867
0.00267939
0.00264636
0.0021672
0.00217683
0.00218918
0.00219946
0.00220809
0.00221637
0.00222532
0.00223565
0.00224785
0.00226229
0.0022793
0.00229913
0.00232197
0.00234792
0.00237695
0.00240892
0.00244357
0.00248053
0.0025193
0.0025593
0.00260282
0.00264741
0.00268379
0.00271753
0.0027482
0.00277532
0.00279854
0.00281759
0.0028323
0.00284255
0.00284826
0.00284939
0.00284598
0.00283812
0.00282591
0.00280942
0.00278884
0.00276445
0.0027365
0.00270502
0.00266984
0.00217517
0.00218971
0.00220268
0.00221226
0.00222026
0.00222827
0.00223729
0.00224794
0.00226064
0.00227575
0.00229354
0.00231426
0.00233805
0.00236501
0.00239508
0.00242809
0.00246376
0.00250172
0.00254144
0.00258232
0.00262643
0.0026712
0.0027085
0.00274323
0.00277489
0.00280301
0.0028272
0.00284718
0.00286271
0.00287365
0.00287986
0.00288129
0.00287792
0.00286985
0.00285713
0.00283984
0.00281818
0.00279235
0.00276249
0.00272838
0.00269093
0.00219488
0.00221242
0.0022238
0.00223156
0.00223841
0.00224586
0.0022547
0.00226545
0.00227846
0.00229403
0.00231241
0.00233381
0.00235836
0.0023861
0.00241696
0.00245077
0.00248722
0.00252589
0.00256629
0.0026078
0.00265227
0.00269699
0.00273495
0.00277039
0.00280277
0.0028316
0.00285646
0.00287706
0.00289313
0.00290449
0.00291098
0.00291249
0.00290902
0.00290061
0.0028873
0.00286917
0.00284639
0.00281908
0.00278707
0.00275032
0.00271132
0.00222965
0.00224527
0.00225281
0.002258
0.00226338
0.00227001
0.00227843
0.00228904
0.00230211
0.00231791
0.00233664
0.00235849
0.00238354
0.00241181
0.00244321
0.00247754
0.00251448
0.0025536
0.00259439
0.00263622
0.00268076
0.00272517
0.00276351
0.00279937
0.00283217
0.00286139
0.00288663
0.00290754
0.00292386
0.00293537
0.0029419
0.00294333
0.00293962
0.00293077
0.00291683
0.00289789
0.00287401
0.00284511
0.00281078
0.0027722
0.0027323
0.00227945
0.00228743
0.00229001
0.00229244
0.00229617
0.00230175
0.00230949
0.00231968
0.00233255
0.00234831
0.00236713
0.00238915
0.00241443
0.00244295
0.00247459
0.00250914
0.00254625
0.00258549
0.00262632
0.00266814
0.00271241
0.00275621
0.00279463
0.00283058
0.00286346
0.00289275
0.00291803
0.00293894
0.00295522
0.00296663
0.002973
0.00297419
0.00297014
0.00296081
0.00294624
0.0029265
0.00290157
0.00287092
0.0028346
0.00279531
0.00275437
0.00233959
0.00233828
0.00233635
0.00233616
0.00233809
0.00234236
0.00234912
0.00235859
0.00237095
0.00238637
0.00240498
0.00242687
0.00245206
0.0024805
0.00251205
0.00254646
0.00258338
0.00262235
0.00266285
0.00270425
0.00274784
0.00279073
0.00282885
0.0028645
0.00289709
0.00292609
0.00295105
0.00297165
0.00298759
0.00299866
0.00300468
0.00300551
0.00300105
0.00299124
0.0029761
0.00295562
0.00292964
0.00289717
0.00286003
0.00282028
0.00277818
0.00240643
0.00239926
0.00239371
0.00239084
0.00239073
0.00239338
0.00239884
0.00240728
0.00241881
0.00243356
0.00245162
0.00247303
0.00249777
0.00252575
0.0025568
0.00259066
0.00262696
0.00266523
0.00270494
0.00274547
0.00278791
0.00282948
0.00286682
0.00290173
0.00293359
0.00296188
0.00298616
0.00300609
0.00302141
0.00303189
0.00303738
0.00303775
0.00303285
0.00302262
0.003007
0.00298591
0.00295882
0.00292517
0.00288817
0.00284777
0.00280483
0.00248325
0.00247287
0.00246434
0.00245854
0.00245601
0.00245674
0.00246061
0.00246769
0.00247806
0.00249179
0.00250892
0.00252944
0.00255331
0.00258039
0.00261048
0.0026433
0.00267846
0.0027155
0.00275387
0.00279296
0.00283365
0.0028734
0.0029094
0.00294301
0.00297362
0.00300071
0.00302388
0.00304278
0.00305716
0.00306682
0.00307163
0.00307146
0.00306616
0.0030556
0.00303967
0.00301812
0.00299002
0.00295667
0.00291982
0.00287913
0.00283587
0.00257443
0.00256102
0.00255008
0.00254166
0.00253647
0.00253501
0.00253704
0.00254248
0.00255135
0.00256368
0.00257946
0.00259865
0.00262115
0.00264679
0.00267534
0.00270649
0.00273987
0.00277499
0.00281133
0.00284827
0.00288648
0.0029237
0.00295765
0.00298927
0.00301798
0.0030433
0.00306484
0.00308229
0.00309541
0.00310404
0.00310803
0.00310728
0.00310164
0.00309096
0.00307499
0.00305325
0.00302501
0.00299292
0.00295656
0.00291628
0.00287351
0.00268218
0.00266615
0.00265321
0.00264291
0.0026355
0.00263172
0.00263176
0.00263534
0.00264242
0.00265295
0.00266692
0.00268423
0.00270474
0.00272826
0.00275452
0.00278322
0.00281396
0.00284627
0.00287964
0.00291349
0.00294825
0.00298202
0.00301298
0.00304172
0.00306772
0.00309055
0.00310985
0.00312535
0.00313685
0.00314419
0.00314727
0.00314597
0.00314018
0.00312969
0.00311414
0.00309263
0.00306613
0.00303561
0.00300076
0.00296201
0.00292101
0.00280928
0.00279175
0.00277771
0.00276623
0.0027576
0.00275199
0.00275008
0.00275173
0.00275677
0.00276513
0.00277674
0.00279149
0.00280921
0.00282969
0.00285266
0.00287779
0.0029047
0.00293296
0.00296208
0.00299153
0.0030215
0.00305055
0.00307725
0.00310195
0.00312418
0.0031436
0.0031599
0.00317285
0.0031823
0.00318812
0.00319022
0.00318852
0.0031829
0.00317314
0.00315871
0.00313887
0.00311535
0.00308765
0.00305592
0.00302047
0.00298326
0.00295973
0.00294274
0.00292942
0.00291824
0.00290947
0.00290335
0.00290005
0.00289997
0.00290288
0.00290869
0.0029173
0.0029286
0.00294243
0.00295856
0.00297674
0.00299668
0.00301802
0.00304039
0.00306336
0.0030865
0.00310982
0.00313231
0.00315302
0.00317207
0.00318913
0.00320392
0.00321622
0.00322588
0.00323279
0.00323686
0.00323803
0.00323621
0.00323132
0.00322316
0.00321099
0.00319512
0.003176
0.00315333
0.00312723
0.00309792
0.00306768
0.00313941
0.00312652
0.00311711
0.003109
0.00310241
0.00309752
0.00309448
0.00309342
0.00309442
0.00309737
0.00310219
0.00310879
0.00311706
0.00312682
0.0031379
0.00315006
0.00316307
0.00317666
0.00319056
0.00320448
0.00321833
0.0032316
0.00324382
0.00325499
0.0032649
0.00327343
0.00328044
0.00328587
0.00328966
0.00329177
0.00329217
0.00329079
0.00328757
0.0032824
0.00327472
0.00326506
0.00325318
0.00323904
0.00322264
0.00320409
0.00318598
0.0111048
0.00244788
0.00194881
0.00215668
0.00221209
0.00223445
0.00225914
0.00227694
0.00228347
0.00229455
0.0023364
0.00242001
0.00251452
0.00255706
0.00252534
0.00249224
0.00249169
0.0113344
0.00234721
0.00200633
0.00219469
0.00223489
0.00225777
0.00228632
0.00231351
0.0023331
0.00234635
0.0023585
0.00237597
0.00240154
0.00243
0.00245482
0.00247137
0.00247998
0.0113762
0.00216586
0.00207031
0.00222484
0.0022578
0.00228038
0.00231006
0.00234091
0.00236723
0.00238768
0.00240423
0.00242008
0.00243684
0.00245312
0.00246588
0.00247312
0.00247789
0.0112864
0.00207247
0.00212079
0.00225199
0.00227847
0.00229938
0.00232701
0.00235609
0.00238193
0.00240292
0.00241962
0.00243309
0.00244367
0.00245192
0.0024585
0.00246354
0.00246945
0.0110901
0.00208702
0.00216698
0.00227593
0.00229635
0.002315
0.00233956
0.00236494
0.0023871
0.0024051
0.00241951
0.00243101
0.00244002
0.00244735
0.00245376
0.00246011
0.00246678
0.0108615
0.00212413
0.00220652
0.00229561
0.00231028
0.00232658
0.0023485
0.00237095
0.00239035
0.00240599
0.00241827
0.00242783
0.0024355
0.00244212
0.00244821
0.00245444
0.00246207
0.0106116
0.00217479
0.00223902
0.00231061
0.00231985
0.00233362
0.00235311
0.00237312
0.0023903
0.0024039
0.00241414
0.00242163
0.00242722
0.00243163
0.00243503
0.00243725
0.00243836
0.0103446
0.0022358
0.00226554
0.00232116
0.00232523
0.00233638
0.00235403
0.00237263
0.00238872
0.00240144
0.00241107
0.00241831
0.00242385
0.00242819
0.0024317
0.00243461
0.00243688
0.0100574
0.00230619
0.00228811
0.00232824
0.00232703
0.00233517
0.00235103
0.00236868
0.0023843
0.00239666
0.00240585
0.00241252
0.00241736
0.002421
0.00242401
0.0024271
0.00243125
0.00974711
0.00238472
0.00230959
0.00233343
0.00232641
0.0023309
0.00234458
0.00236113
0.00237642
0.00238884
0.00239815
0.00240471
0.00240906
0.00241161
0.00241265
0.00241228
0.00241047
0.009413
0.00247447
0.00233362
0.00233886
0.00232499
0.00232498
0.00233589
0.00235107
0.00236611
0.00237894
0.00238893
0.00239621
0.00240125
0.00240457
0.00240666
0.00240778
0.00240783
0.0090546
0.00257876
0.00236478
0.00234733
0.00232478
0.00231896
0.00232608
0.00233921
0.00235355
0.00236656
0.00237714
0.00238506
0.00239056
0.00239419
0.0023966
0.00239863
0.00240133
0.00867333
0.00269881
0.00240825
0.00236226
0.00232824
0.00231484
0.00231687
0.00232692
0.00233981
0.00235258
0.00236365
0.00237237
0.00237859
0.00238244
0.00238419
0.00238409
0.00238229
0.00827088
0.00283244
0.0024691
0.00238764
0.0023383
0.00231492
0.00231015
0.00231578
0.0023262
0.00233797
0.00234916
0.00235874
0.00236626
0.00237166
0.00237518
0.00237713
0.00237753
0.00784963
0.00297375
0.00255133
0.0024278
0.00235834
0.00232184
0.00230807
0.00230758
0.00231415
0.00232382
0.00233423
0.00234397
0.00235223
0.00235861
0.00236324
0.00236675
0.0023703
0.00741334
0.00312024
0.00265675
0.00248684
0.00239196
0.00233862
0.00231305
0.0023044
0.00230549
0.00231175
0.00232035
0.00232947
0.00233795
0.0023449
0.00234981
0.00235245
0.00235285
0.00696634
0.00326561
0.00278412
0.00256786
0.00244274
0.00236841
0.00232775
0.00230841
0.00230209
0.00230336
0.00230886
0.00231641
0.00232454
0.00233219
0.0023386
0.00234329
0.00234591
0.00651342
0.00340459
0.00292899
0.00267184
0.0025135
0.00241419
0.00235487
0.00232187
0.00230579
0.00230025
0.00230109
0.0023057
0.00231225
0.00231946
0.00232634
0.00233244
0.00233819
0.00606192
0.00353186
0.00308344
0.00279677
0.00260548
0.00247822
0.00239675
0.00234692
0.00231843
0.00230394
0.00229848
0.00229875
0.00230253
0.00230819
0.00231431
0.00231967
0.00232325
0.00561477
0.0036344
0.00323642
0.00293722
0.00271752
0.00256136
0.00245498
0.00238523
0.00234151
0.00231574
0.00230211
0.00229658
0.0022964
0.00229967
0.00230482
0.00231049
0.00231528
0.00517476
0.00369853
0.003375
0.00308446
0.00284571
0.00266263
0.00252997
0.00243774
0.00237606
0.00233656
0.00231272
0.00229977
0.0022943
0.00229396
0.00229696
0.00230186
0.00230809
0.00474765
0.00371554
0.00348699
0.00322784
0.0029833
0.00277864
0.00262039
0.00250423
0.00242234
0.00236678
0.00233071
0.0023087
0.00229663
0.00229162
0.00229138
0.00229391
0.0022974
0.00433625
0.00368145
0.00356191
0.00335566
0.00312125
0.0029037
0.00272311
0.00258312
0.00247963
0.00240611
0.0023559
0.0023232
0.00230329
0.00229269
0.0022887
0.00228892
0.00229135
0.00395197
0.00360216
0.00359474
0.00345765
0.00324949
0.00302997
0.00283285
0.0026711
0.00254594
0.00245333
0.00238752
0.00234273
0.00231379
0.00229667
0.00228824
0.0022856
0.00228692
0.00360576
0.00349308
0.00358923
0.00352814
0.00335901
0.00314885
0.00294281
0.00276334
0.00261797
0.00250624
0.00242407
0.00236622
0.00232734
0.00230294
0.00228952
0.00228352
0.0022819
0.00330505
0.00337139
0.00355404
0.00356744
0.00344479
0.00325347
0.0030464
0.00285441
0.00269164
0.00256187
0.00246344
0.00239213
0.00234283
0.00231069
0.00229194
0.00228255
0.00227929
0.00306114
0.00324862
0.00350092
0.00358111
0.00350589
0.00333921
0.00313783
0.00293885
0.00276239
0.00261672
0.00250302
0.00241857
0.00235887
0.00231891
0.00229474
0.00228196
0.00227729
0.00288301
0.00314137
0.00344392
0.00357788
0.0035451
0.00340413
0.00321262
0.00301154
0.00282556
0.00266695
0.00253984
0.00244333
0.00237386
0.00232648
0.00229714
0.00228117
0.00227491
0.00278576
0.00308433
0.00341284
0.00357577
0.00356916
0.00344796
0.00326725
0.00306796
0.00287659
0.00270849
0.00257066
0.00246397
0.00238602
0.00233221
0.00229838
0.00227966
0.00227212
0.0027821
0.00309357
0.00342732
0.00359378
0.00359209
0.00347683
0.00330066
0.00310271
0.00290931
0.00273631
0.00259168
0.00247784
0.00239353
0.00233492
0.0022978
0.00227722
0.00226869
0.00288472
0.00318218
0.00349933
0.00363967
0.00361807
0.00349248
0.0033127
0.00311406
0.0029202
0.00274569
0.00259841
0.00248132
0.00239388
0.00233288
0.00229421
0.00227296
0.00226422
0.00310655
0.00336328
0.00363008
0.00370921
0.00364108
0.00348852
0.00329725
0.00309631
0.00290434
0.00273263
0.00258755
0.00247181
0.00238516
0.00232487
0.00228698
0.00226652
0.00225855
0.00345991
0.00364142
0.00380412
0.00378023
0.00364071
0.00344933
0.0032427
0.00304122
0.00285593
0.00269301
0.00255628
0.00244752
0.0023664
0.0023105
0.00227599
0.00225804
0.0022519
0.00395604
0.00399489
0.00397715
0.00380772
0.00358159
0.00335092
0.00313532
0.00294123
0.00277071
0.0026247
0.00250377
0.00240847
0.0023381
0.00229043
0.00226184
0.00224793
0.00224437
0.00460477
0.00436746
0.0040719
0.00373109
0.00342719
0.00317495
0.00296736
0.00279515
0.00265113
0.00253117
0.00243371
0.00235802
0.00230303
0.00226665
0.00224582
0.00223686
0.00223627
0.00541393
0.00465332
0.00399934
0.00351293
0.00317388
0.00293378
0.00275678
0.00262076
0.00251274
0.00242585
0.00235677
0.00230402
0.00226643
0.00224236
0.00222965
0.00222571
0.00222812
0.00638867
0.00470561
0.00372262
0.00318854
0.00287908
0.00268401
0.00255166
0.00245669
0.00238545
0.00233043
0.00228787
0.00225602
0.0022339
0.00222057
0.00221479
0.00221512
0.00222005
0.00753064
0.00441969
0.00332843
0.00287237
0.00263786
0.00249773
0.00240537
0.00234141
0.00229599
0.00226284
0.0022383
0.00222061
0.00220896
0.00220288
0.00220186
0.00220522
0.00221206
0.00883721
0.00387686
0.00298033
0.00266728
0.00250916
0.00240982
0.00233982
0.00228917
0.00225335
0.00222824
0.0022106
0.00219865
0.00219156
0.00218896
0.00219057
0.00219596
0.00220443
0.010301
0.00331672
0.00279441
0.00260955
0.00249742
0.00241348
0.00234595
0.00229118
0.0022496
0.00222
0.0021996
0.00218638
0.00217923
0.00217752
0.00218061
0.00218762
0.00219754
0.00251674
0.00431322
0.050713
0.257887
0.318928
0.230521
0.145273
0.0922121
0.0706426
0.0625122
0.0567513
0.0497652
0.04127
0.0324376
0.0239618
0.0164908
0.0104552
0.0061051
0.00342697