/*--------------------------------*- C++ -*----------------------------------*\
  =========                 |
  \\      /  F ield         | OpenFOAM: The Open Source CFD Toolbox
   \\    /   O peration     | Website:  https://openfoam.org
    \\  /    A nd           | Version:  6
     \\/     M anipulation  |
\*---------------------------------------------------------------------------*/
FoamFile
{
    version     2.0;
    format      ascii;
    class       volScalarField;
    location    "2.75";
    object      p;
}
// * * * * * * * * * * * * * * * * * * * * * * * * * * * * * * * * * * * * * //

dimensions      [1 -1 -2 0 0 0 0];

internalField   nonuniform List<scalar> 
5625
(
0.999998
0.999998
0.999997
0.999997
0.999996
0.999996
0.999996
0.999996
0.999996
0.999995
0.999995
0.999996
0.999996
0.999997
0.999998
0.999998
0.999999
0.999999
1
1
1
1
1
1
1
1
1
1
1
1
1
1
1
1
1
1
1
1
1
1
1
1
1
1
1
1
1
1
1
1
1
1
1
1
1
1
1
1
1
1
1
1
1
1
1
1
1
1
1
1
1
1
1
1
1
0.999997
0.999997
0.999996
0.999996
0.999995
0.999995
0.999994
0.999994
0.999994
0.999994
0.999994
0.999994
0.999995
0.999996
0.999996
0.999997
0.999998
1
1
1
1
1
1
1.00001
1.00001
1.00001
1.00001
1.00001
1.00001
1.00001
1.00001
1.00001
1
1
1
1
1
1
1
1
1
1
1
1
1
1
1
1
1
1
1
1
1
1
1
1
1
1
1
1
1
1
1
1
1
1
1
1
1
1
1
1
1
1
1
0.999996
0.999995
0.999995
0.999994
0.999994
0.999993
0.999992
0.999992
0.999992
0.999992
0.999992
0.999992
0.999993
0.999994
0.999996
0.999997
0.999998
0.999999
1
1
1
1.00001
1.00001
1.00001
1.00001
1.00001
1.00001
1.00001
1.00001
1.00001
1.00001
1.00001
1.00001
1.00001
1
1
1
1
1
1
1
1
1
1
1
1
1
1
1
1
1
1
1
1
1
1
1
1
1
1
1
1
1
1
1
1
1
1
1
1
1
1
1
1
1
0.999995
0.999994
0.999993
0.999992
0.999991
0.999991
0.99999
0.999989
0.999989
0.999989
0.99999
0.99999
0.999991
0.999992
0.999994
0.999996
0.999998
1
1
1
1.00001
1.00001
1.00001
1.00001
1.00001
1.00001
1.00001
1.00001
1.00001
1.00001
1.00001
1.00001
1.00001
1.00001
1.00001
1.00001
1
1
1
1
1
1
1
1
1
1
1
1
1
1
1
1
1
1
1
1
1
1
1
1
1
1
1
1
1
1
1
1
1
1
1
1
1
1
1
0.999993
0.999992
0.999991
0.99999
0.999989
0.999988
0.999987
0.999986
0.999986
0.999986
0.999986
0.999987
0.999989
0.99999
0.999992
0.999995
0.999997
1
1
1.00001
1.00001
1.00001
1.00001
1.00001
1.00001
1.00002
1.00002
1.00002
1.00002
1.00001
1.00001
1.00001
1.00001
1.00001
1.00001
1.00001
1.00001
1.00001
1
1
1
1
1
1
1
1
1
1
1
1
1
1
1
1
1
1
1
1
1
1
1
1
1
1
1
1
1
1
1
1
1
1
1
1
1
0.999991
0.99999
0.999988
0.999987
0.999985
0.999984
0.999983
0.999982
0.999982
0.999982
0.999983
0.999984
0.999986
0.999988
0.999991
0.999994
0.999997
1
1
1.00001
1.00001
1.00001
1.00002
1.00002
1.00002
1.00002
1.00002
1.00002
1.00002
1.00002
1.00002
1.00002
1.00001
1.00001
1.00001
1.00001
1.00001
1.00001
1.00001
1
1
1
1
1
1
1
1
1
1
1
1
1
1
1
1
1
1
1
1
1
1
1
1
1
1
1
1
1
1
1
1
1
1
1
1
0.999989
0.999987
0.999985
0.999983
0.999981
0.999979
0.999978
0.999977
0.999977
0.999977
0.999978
0.99998
0.999983
0.999986
0.99999
0.999994
0.999998
1
1.00001
1.00001
1.00002
1.00002
1.00002
1.00002
1.00003
1.00003
1.00003
1.00003
1.00003
1.00003
1.00002
1.00002
1.00002
1.00002
1.00002
1.00001
1.00001
1.00001
1.00001
1.00001
1
1
1
1
1
1
1
1
1
1
1
1
1
1
1
1
1
1
1
1
1
1
1
1
1
1
1
1
1
1
1
1
1
1
1
0.999986
0.999983
0.99998
0.999978
0.999976
0.999974
0.999973
0.999972
0.999972
0.999972
0.999974
0.999977
0.99998
0.999985
0.999989
0.999995
1
1.00001
1.00001
1.00002
1.00002
1.00003
1.00003
1.00003
1.00004
1.00004
1.00004
1.00004
1.00004
1.00003
1.00003
1.00003
1.00003
1.00002
1.00002
1.00002
1.00001
1.00001
1.00001
1.00001
1.00001
1
1
1
1
1
1
1
1
1
1
1
1
1
1
1
1
1
1
1
1
1
1
1
1
1
1
1
1
1
1
1
1
1
1
0.999982
0.999979
0.999976
0.999973
0.99997
0.999968
0.999966
0.999966
0.999967
0.999968
0.99997
0.999974
0.999979
0.999984
0.999991
0.999998
1
1.00001
1.00002
1.00003
1.00003
1.00004
1.00004
1.00005
1.00005
1.00005
1.00005
1.00005
1.00005
1.00004
1.00004
1.00004
1.00003
1.00003
1.00003
1.00002
1.00002
1.00001
1.00001
1.00001
1.00001
1.00001
1
1
1
1
1
1
1
1
1
1
1
1
1
1
1
1
1
1
1
1
1
1
1
1
1
1
1
1
1
1
1
1
1
0.999978
0.999974
0.99997
0.999967
0.999964
0.999962
0.99996
0.99996
0.999961
0.999964
0.999967
0.999973
0.99998
0.999987
0.999995
1
1.00001
1.00002
1.00003
1.00004
1.00005
1.00005
1.00006
1.00006
1.00006
1.00007
1.00006
1.00006
1.00006
1.00006
1.00005
1.00005
1.00004
1.00004
1.00003
1.00003
1.00002
1.00002
1.00002
1.00001
1.00001
1.00001
1
1
1
1
1
1
1
1
1
1
1
1
1
1
1
1
1
1
1
1
1
1
1
1
1
1
1
1
1
1
1
1
1
0.999973
0.999968
0.999964
0.99996
0.999957
0.999955
0.999954
0.999955
0.999958
0.999962
0.999968
0.999975
0.999985
0.999995
1.00001
1.00002
1.00003
1.00004
1.00005
1.00006
1.00007
1.00008
1.00008
1.00009
1.00009
1.00009
1.00009
1.00008
1.00008
1.00007
1.00007
1.00006
1.00005
1.00005
1.00004
1.00003
1.00003
1.00002
1.00002
1.00002
1.00001
1.00001
1.00001
1
1
1
1
1
1
1
1
1
1
1
1
1
1
1
1
1
1
1
1
1
1
1
1
1
1
1
1
1
1
1
1
0.999967
0.999962
0.999958
0.999954
0.999951
0.99995
0.99995
0.999953
0.999957
0.999964
0.999974
0.999984
0.999997
1.00001
1.00003
1.00004
1.00006
1.00007
1.00008
1.0001
1.00011
1.00011
1.00012
1.00012
1.00012
1.00012
1.00012
1.00011
1.0001
1.0001
1.00009
1.00008
1.00007
1.00006
1.00005
1.00004
1.00004
1.00003
1.00002
1.00002
1.00001
1.00001
1.00001
1.00001
1
1
1
1
1
1
1
1
1
1
1
1
1
1
1
1
1
1
1
1
1
1
1
1
1
1
1
1
1
1
1
0.999962
0.999956
0.999952
0.999949
0.999947
0.999947
0.99995
0.999956
0.999964
0.999975
0.999989
1
1.00002
1.00004
1.00006
1.00008
1.0001
1.00012
1.00013
1.00015
1.00016
1.00017
1.00017
1.00017
1.00017
1.00016
1.00016
1.00015
1.00014
1.00013
1.00012
1.0001
1.00009
1.00008
1.00007
1.00006
1.00005
1.00004
1.00003
1.00002
1.00002
1.00001
1.00001
1.00001
1
1
1
1
1
1
1
1
1
1
1
1
1
1
1
1
1
1
1
1
1
1
1
1
1
1
1
1
1
1
1
0.999957
0.999952
0.999948
0.999946
0.999946
0.999949
0.999956
0.999967
0.99998
0.999998
1.00002
1.00004
1.00007
1.00009
1.00012
1.00015
1.00017
1.00019
1.00021
1.00023
1.00024
1.00024
1.00025
1.00024
1.00024
1.00023
1.00022
1.0002
1.00019
1.00017
1.00015
1.00013
1.00012
1.0001
1.00009
1.00007
1.00006
1.00005
1.00004
1.00003
1.00002
1.00002
1.00001
1.00001
1
1
1
1
1
1
0.999999
0.999999
0.999999
0.999999
1
1
1
1
1
1
1
1
1
1
1
1
1
1
1
1
1
1
1
1
1
0.999954
0.99995
0.999947
0.999948
0.999952
0.99996
0.999974
0.999992
1.00001
1.00004
1.00007
1.00011
1.00014
1.00018
1.00022
1.00025
1.00028
1.00031
1.00033
1.00035
1.00036
1.00036
1.00036
1.00035
1.00034
1.00032
1.0003
1.00028
1.00025
1.00023
1.0002
1.00018
1.00015
1.00013
1.00011
1.00009
1.00007
1.00006
1.00005
1.00004
1.00003
1.00002
1.00001
1.00001
1.00001
1
1
1
1
0.999999
0.999999
0.999999
0.999999
0.999999
0.999999
1
1
1
1
1
1
1
1
1
1
1
1
1
1
1
1
1
1
1
1
0.999953
0.999951
0.999953
0.999958
0.999969
0.999985
1.00001
1.00004
1.00007
1.00012
1.00016
1.00021
1.00026
1.00032
1.00037
1.00041
1.00045
1.00048
1.00051
1.00053
1.00053
1.00053
1.00052
1.0005
1.00048
1.00045
1.00042
1.00038
1.00034
1.00031
1.00027
1.00023
1.0002
1.00017
1.00014
1.00012
1.00009
1.00007
1.00006
1.00004
1.00003
1.00002
1.00002
1.00001
1.00001
1
1
1
0.999999
0.999999
0.999999
0.999999
0.999999
0.999999
0.999999
0.999999
0.999999
1
1
1
1
1
1
1
1
1
1
1
1
1
1
1
1
1
1
0.999958
0.99996
0.999968
0.999981
1
1.00003
1.00007
1.00012
1.00017
1.00024
1.0003
1.00038
1.00045
1.00052
1.00059
1.00065
1.0007
1.00074
1.00077
1.00079
1.00079
1.00078
1.00076
1.00072
1.00068
1.00064
1.00058
1.00053
1.00047
1.00042
1.00036
1.00031
1.00026
1.00022
1.00018
1.00015
1.00012
1.00009
1.00007
1.00005
1.00004
1.00003
1.00002
1.00001
1.00001
1
1
0.999999
0.999999
0.999998
0.999998
0.999998
0.999998
0.999998
0.999999
0.999999
0.999999
0.999999
1
1
1
1
1
1
1
1
1
1
1
1
1
1
1
1
1
0.99997
0.99998
0.999998
1.00002
1.00006
1.00011
1.00017
1.00025
1.00033
1.00042
1.00052
1.00063
1.00073
1.00083
1.00092
1.001
1.00107
1.00112
1.00115
1.00116
1.00116
1.00114
1.0011
1.00104
1.00097
1.0009
1.00082
1.00074
1.00065
1.00057
1.00049
1.00042
1.00035
1.00029
1.00024
1.00019
1.00015
1.00012
1.00009
1.00007
1.00005
1.00003
1.00002
1.00001
1.00001
1
1
0.999999
0.999998
0.999997
0.999997
0.999997
0.999998
0.999998
0.999998
0.999999
0.999999
0.999999
0.999999
1
1
1
1
1
1
1
1
1
1
1
1
1
1
1
1
0.999996
1.00002
1.00005
1.0001
1.00016
1.00024
1.00033
1.00044
1.00057
1.0007
1.00084
1.00099
1.00113
1.00127
1.0014
1.0015
1.00159
1.00165
1.00169
1.0017
1.00168
1.00164
1.00157
1.00149
1.00139
1.00127
1.00115
1.00103
1.0009
1.00079
1.00067
1.00057
1.00047
1.00039
1.00032
1.00025
1.0002
1.00015
1.00012
1.00008
1.00006
1.00004
1.00003
1.00002
1.00001
1
0.999999
0.999997
0.999996
0.999996
0.999996
0.999996
0.999997
0.999997
0.999998
0.999998
0.999999
0.999999
0.999999
0.999999
1
1
1
1
1
1
1
1
1
1
1
1
1
1
1
1.00004
1.00008
1.00014
1.00021
1.00031
1.00043
1.00057
1.00073
1.00091
1.00111
1.00131
1.00151
1.00171
1.0019
1.00207
1.00221
1.00232
1.0024
1.00244
1.00245
1.00241
1.00234
1.00224
1.00211
1.00196
1.00179
1.00161
1.00143
1.00126
1.00109
1.00093
1.00078
1.00064
1.00052
1.00042
1.00033
1.00026
1.0002
1.00015
1.00011
1.00008
1.00005
1.00003
1.00002
1.00001
1
0.999998
0.999996
0.999994
0.999994
0.999994
0.999995
0.999996
0.999996
0.999997
0.999998
0.999998
0.999999
0.999999
0.999999
0.999999
1
1
1
1
1
1
1
1
1
1
1
1
1
1
1.00011
1.00018
1.00027
1.00039
1.00054
1.00071
1.00092
1.00116
1.00141
1.00168
1.00197
1.00225
1.00252
1.00277
1.003
1.00318
1.00333
1.00343
1.00347
1.00347
1.00341
1.0033
1.00315
1.00296
1.00274
1.00251
1.00225
1.002
1.00174
1.0015
1.00127
1.00106
1.00088
1.00071
1.00057
1.00045
1.00034
1.00026
1.00019
1.00014
1.0001
1.00007
1.00004
1.00002
1.00001
1
0.999997
0.999994
0.999992
0.999992
0.999992
0.999993
0.999994
0.999995
0.999996
0.999997
0.999998
0.999998
0.999999
0.999999
0.999999
1
1
1
1
1
1
1
1
1
1
1
1
1
1
1.00022
1.00033
1.00047
1.00064
1.00086
1.00112
1.00142
1.00175
1.00211
1.00248
1.00287
1.00325
1.00362
1.00395
1.00425
1.0045
1.00469
1.00481
1.00486
1.00484
1.00475
1.0046
1.00438
1.00412
1.00381
1.00347
1.00312
1.00276
1.00241
1.00207
1.00175
1.00146
1.0012
1.00097
1.00077
1.0006
1.00046
1.00035
1.00026
1.00018
1.00013
1.00008
1.00005
1.00003
1.00001
1
0.999995
0.999992
0.99999
0.999989
0.99999
0.999991
0.999992
0.999994
0.999995
0.999996
0.999997
0.999998
0.999998
0.999999
0.999999
0.999999
1
1
1
1
1
1
1
1
1
1
1
1
1
1.00038
1.00054
1.00075
1.00101
1.00132
1.00169
1.00211
1.00256
1.00306
1.00357
1.00409
1.0046
1.00508
1.00552
1.00591
1.00623
1.00647
1.00662
1.00668
1.00665
1.00652
1.0063
1.00601
1.00565
1.00523
1.00477
1.00429
1.00379
1.00331
1.00284
1.0024
1.002
1.00163
1.00132
1.00104
1.00081
1.00062
1.00047
1.00034
1.00024
1.00017
1.00011
1.00007
1.00004
1.00002
1
0.999994
0.999989
0.999987
0.999986
0.999987
0.999988
0.99999
0.999992
0.999993
0.999995
0.999996
0.999997
0.999998
0.999998
0.999999
0.999999
0.999999
1
1
1
1
1
1
1
1
1
1
1
1
1.00061
1.00085
1.00115
1.00152
1.00196
1.00247
1.00304
1.00366
1.00432
1.00501
1.00569
1.00636
1.00699
1.00757
1.00806
1.00847
1.00877
1.00896
1.00903
1.00897
1.0088
1.00851
1.00812
1.00764
1.00708
1.00647
1.00582
1.00516
1.0045
1.00386
1.00327
1.00272
1.00222
1.00179
1.00142
1.0011
1.00084
1.00063
1.00046
1.00033
1.00022
1.00015
1.00009
1.00005
1.00002
1
0.999992
0.999986
0.999983
0.999982
0.999983
0.999985
0.999987
0.999989
0.999991
0.999993
0.999995
0.999996
0.999997
0.999998
0.999999
0.999999
0.999999
1
1
1
1
1
1
1
1
1
1
1
1
1.00093
1.00127
1.0017
1.00222
1.00282
1.00351
1.00428
1.00511
1.00598
1.00687
1.00776
1.00862
1.00943
1.01016
1.01078
1.01129
1.01166
1.01189
1.01197
1.01189
1.01167
1.01129
1.01079
1.01017
1.00944
1.00865
1.0078
1.00693
1.00606
1.00521
1.00441
1.00368
1.00301
1.00243
1.00192
1.00149
1.00114
1.00085
1.00062
1.00044
1.0003
1.0002
1.00012
1.00007
1.00003
1.00001
0.999991
0.999982
0.999978
0.999978
0.999979
0.999981
0.999984
0.999987
0.999989
0.999991
0.999993
0.999995
0.999996
0.999997
0.999998
0.999999
0.999999
0.999999
1
1
1
1
1
1
1
1
1
1
1
1.00137
1.00185
1.00244
1.00314
1.00396
1.00488
1.00589
1.00698
1.0081
1.00924
1.01037
1.01145
1.01245
1.01335
1.01411
1.01473
1.01518
1.01546
1.01555
1.01545
1.01517
1.01471
1.01408
1.0133
1.01239
1.01138
1.0103
1.00918
1.00805
1.00695
1.0059
1.00493
1.00405
1.00326
1.00259
1.00201
1.00153
1.00114
1.00083
1.00059
1.00041
1.00027
1.00017
1.00009
1.00004
1.00001
0.999991
0.999979
0.999974
0.999973
0.999974
0.999976
0.99998
0.999983
0.999986
0.999989
0.999992
0.999994
0.999995
0.999997
0.999998
0.999998
0.999999
0.999999
0.999999
1
1
1
1
1
1
1
1
1
1
1.00196
1.00262
1.00342
1.00436
1.00543
1.00664
1.00795
1.00933
1.01075
1.01217
1.01356
1.01488
1.01609
1.01716
1.01808
1.0188
1.01933
1.01966
1.01976
1.01964
1.01931
1.01876
1.01801
1.01708
1.01597
1.01473
1.01339
1.01199
1.01056
1.00916
1.0078
1.00654
1.00538
1.00435
1.00346
1.0027
1.00206
1.00154
1.00113
1.0008
1.00055
1.00037
1.00023
1.00013
1.00007
1.00002
0.999994
0.999978
0.99997
0.999967
0.999968
0.999971
0.999975
0.999979
0.999983
0.999987
0.99999
0.999992
0.999994
0.999996
0.999997
0.999998
0.999999
0.999999
0.999999
1
1
1
1
1
1
1
1
1
1
1.00275
1.00363
1.00468
1.00591
1.00731
1.00885
1.0105
1.01222
1.01396
1.01569
1.01736
1.01891
1.02032
1.02156
1.02261
1.02343
1.02403
1.02439
1.02451
1.02438
1.02401
1.02339
1.02253
1.02145
1.02017
1.0187
1.0171
1.01539
1.01364
1.01188
1.01018
1.00857
1.00709
1.00575
1.00459
1.00359
1.00275
1.00206
1.00151
1.00108
1.00075
1.0005
1.00032
1.00019
1.0001
1.00004
0.999999
0.999977
0.999966
0.999962
0.999962
0.999965
0.99997
0.999975
0.999979
0.999984
0.999987
0.999991
0.999993
0.999995
0.999996
0.999997
0.999998
0.999999
0.999999
0.999999
1
1
1
1
1
1
1
1
1
1.00376
1.00492
1.00629
1.00787
1.00964
1.01156
1.01359
1.01567
1.01776
1.01978
1.0217
1.02347
1.02505
1.02642
1.02755
1.02844
1.02908
1.02946
1.02959
1.02946
1.02907
1.02841
1.0275
1.02632
1.02489
1.02324
1.02139
1.01939
1.0173
1.01517
1.01308
1.01108
1.00921
1.00752
1.00602
1.00473
1.00364
1.00274
1.00202
1.00145
1.00101
1.00068
1.00044
1.00026
1.00014
1.00006
1.00001
0.999979
0.999963
0.999957
0.999956
0.999959
0.999964
0.99997
0.999975
0.99998
0.999985
0.999989
0.999991
0.999994
0.999996
0.999997
0.999998
0.999999
0.999999
0.999999
1
1
1
1
1
1
1
1
1
1.00504
1.00654
1.00829
1.01028
1.01246
1.0148
1.01723
1.01967
1.02207
1.02436
1.02648
1.02839
1.03006
1.03148
1.03263
1.03352
1.03415
1.03453
1.03466
1.03454
1.03417
1.03353
1.03262
1.03142
1.02994
1.02818
1.02616
1.02392
1.02152
1.01903
1.01654
1.0141
1.0118
1.00969
1.0078
1.00616
1.00476
1.00361
1.00267
1.00193
1.00135
1.00092
1.0006
1.00037
1.00021
1.0001
1.00003
0.999985
0.999962
0.999952
0.99995
0.999952
0.999957
0.999964
0.99997
0.999976
0.999982
0.999986
0.99999
0.999993
0.999995
0.999996
0.999997
0.999998
0.999999
0.999999
0.999999
1
1
1
1
1
1
1
1
1.00665
1.00854
1.01073
1.01317
1.0158
1.01857
1.02138
1.02414
1.02679
1.02924
1.03145
1.03339
1.03503
1.03638
1.03745
1.03825
1.03881
1.03914
1.03926
1.03916
1.03885
1.0383
1.03749
1.03639
1.03498
1.03324
1.03118
1.02881
1.02619
1.0234
1.02052
1.01765
1.0149
1.01232
1.00999
1.00793
1.00617
1.0047
1.0035
1.00254
1.0018
1.00123
1.00081
1.00051
1.00029
1.00015
1.00005
0.999997
0.999964
0.999948
0.999944
0.999945
0.99995
0.999958
0.999965
0.999972
0.999978
0.999983
0.999988
0.999991
0.999994
0.999995
0.999997
0.999998
0.999999
0.999999
0.999999
1
1
1
1
1
1
1
1
1.00862
1.01097
1.01363
1.01655
1.01964
1.0228
1.02592
1.0289
1.03167
1.03414
1.03628
1.03807
1.03952
1.04065
1.0415
1.04211
1.04251
1.04274
1.04282
1.04276
1.04255
1.04217
1.04158
1.04073
1.03956
1.03803
1.03611
1.03379
1.03111
1.02813
1.02495
1.02169
1.01848
1.01542
1.0126
1.01008
1.0079
1.00605
1.00453
1.00331
1.00236
1.00163
1.00109
1.00069
1.00041
1.00022
1.0001
1.00002
0.999971
0.999947
0.999938
0.999938
0.999943
0.999951
0.999959
0.999967
0.999974
0.99998
0.999985
0.999989
0.999992
0.999995
0.999996
0.999997
0.999998
0.999999
0.999999
1
1
1
1
1
1
1
1
1.01098
1.01383
1.017
1.02039
1.02389
1.02735
1.03066
1.0337
1.03639
1.03867
1.04053
1.04196
1.04303
1.04376
1.04424
1.04453
1.04469
1.04476
1.04478
1.04477
1.04471
1.04458
1.04432
1.04387
1.04313
1.04203
1.04049
1.03847
1.03594
1.03298
1.02966
1.02612
1.02251
1.01898
1.01565
1.01263
1.00997
1.00769
1.0058
1.00427
1.00307
1.00214
1.00144
1.00093
1.00057
1.00032
1.00015
1.00005
0.999983
0.999949
0.999935
0.999932
0.999936
0.999944
0.999953
0.999962
0.99997
0.999977
0.999983
0.999987
0.999991
0.999994
0.999996
0.999997
0.999998
0.999999
0.999999
0.999999
1
1
1
1
1
1
1
1.01376
1.01714
1.0208
1.02461
1.0284
1.03202
1.03532
1.03819
1.04056
1.04239
1.04371
1.04457
1.04504
1.04521
1.04518
1.04504
1.04486
1.04473
1.04467
1.0447
1.04483
1.04501
1.04519
1.04528
1.04517
1.04472
1.04382
1.04237
1.0403
1.03761
1.03438
1.03074
1.02686
1.02293
1.01912
1.01558
1.01241
1.00965
1.00734
1.00544
1.00394
1.00277
1.00188
1.00123
1.00077
1.00045
1.00023
1.00009
1
0.999956
0.999934
0.999927
0.999929
0.999937
0.999946
0.999956
0.999965
0.999973
0.99998
0.999985
0.999989
0.999992
0.999995
0.999996
0.999998
0.999998
0.999999
0.999999
1
1
1
1
1
1
1
1.01694
1.02084
1.02494
1.02905
1.03297
1.03652
1.03955
1.04197
1.04373
1.04485
1.04539
1.04545
1.04515
1.04461
1.04395
1.0433
1.04274
1.04235
1.04219
1.04228
1.04261
1.04315
1.04383
1.04456
1.04521
1.04561
1.0456
1.04501
1.04371
1.04163
1.03879
1.03531
1.03136
1.02716
1.02295
1.01891
1.01521
1.01194
1.00915
1.00685
1.00499
1.00354
1.00244
1.00162
1.00102
1.00061
1.00033
1.00015
1.00003
0.999968
0.999936
0.999923
0.999923
0.99993
0.99994
0.99995
0.99996
0.999969
0.999977
0.999983
0.999988
0.999991
0.999994
0.999996
0.999997
0.999998
0.999999
0.999999
1
1
1
1
1
1
1
1.0205
1.02485
1.02926
1.03349
1.03729
1.04049
1.04295
1.04461
1.04549
1.04564
1.0452
1.0443
1.0431
1.04176
1.04042
1.03921
1.03824
1.03759
1.03732
1.03745
1.03799
1.03889
1.04011
1.04152
1.04301
1.04439
1.04544
1.04596
1.04572
1.04459
1.0425
1.0395
1.03575
1.0315
1.02701
1.02256
1.01835
1.01456
1.01126
1.0085
1.00625
1.00447
1.00311
1.00209
1.00134
1.00082
1.00046
1.00023
1.00008
0.999989
0.999942
0.999922
0.999918
0.999923
0.999933
0.999944
0.999955
0.999965
0.999973
0.99998
0.999986
0.99999
0.999993
0.999995
0.999997
0.999998
0.999999
0.999999
0.999999
1
1
1
1
1
1
1.02435
1.02903
1.03357
1.03765
1.04105
1.04358
1.04516
1.04578
1.04554
1.04454
1.04297
1.04102
1.03886
1.03669
1.03465
1.03289
1.03151
1.03061
1.03023
1.0304
1.03113
1.03239
1.03412
1.03622
1.03856
1.04095
1.04316
1.04494
1.04601
1.04611
1.04511
1.04295
1.03974
1.03571
1.03116
1.02642
1.02178
1.01748
1.01366
1.0104
1.00772
1.00557
1.00391
1.00265
1.00173
1.00108
1.00063
1.00033
1.00013
1.00002
0.999955
0.999925
0.999915
0.999918
0.999927
0.999938
0.99995
0.999961
0.99997
0.999978
0.999984
0.999988
0.999992
0.999994
0.999996
0.999997
0.999998
0.999999
0.999999
1
1
1
1
1
1
1.02836
1.0332
1.03759
1.04124
1.0439
1.04546
1.04588
1.04525
1.04372
1.04146
1.03871
1.03568
1.03257
1.02959
1.02689
1.02461
1.02285
1.02171
1.02123
1.02145
1.02237
1.02395
1.02616
1.0289
1.03204
1.03542
1.03879
1.04189
1.04438
1.04594
1.04631
1.04533
1.04301
1.03953
1.03518
1.03035
1.0254
1.02065
1.01633
1.01256
1.00941
1.00685
1.00485
1.00333
1.00221
1.0014
1.00083
1.00046
1.00021
1.00006
0.999975
0.999931
0.999914
0.999913
0.999921
0.999932
0.999945
0.999956
0.999966
0.999975
0.999982
0.999987
0.999991
0.999994
0.999996
0.999997
0.999998
0.999999
0.999999
1
1
1
1
1
1
1.03237
1.03711
1.04107
1.04395
1.04558
1.04589
1.04496
1.04294
1.04004
1.03651
1.03258
1.02852
1.02452
1.02078
1.01746
1.0147
1.01261
1.01125
1.01069
1.01095
1.01204
1.01393
1.01657
1.0199
1.02378
1.02807
1.03254
1.03691
1.04085
1.04397
1.0459
1.04638
1.04528
1.04269
1.03886
1.03418
1.0291
1.02401
1.01922
1.01495
1.01131
1.00832
1.00595
1.00412
1.00276
1.00178
1.00109
1.00062
1.00031
1.00011
1
0.999943
0.999917
0.999911
0.999916
0.999927
0.999939
0.999952
0.999963
0.999972
0.999979
0.999985
0.99999
0.999993
0.999995
0.999997
0.999998
0.999999
0.999999
0.999999
1
1
1
1
1
1.03617
1.04052
1.04373
1.04556
1.04589
1.04478
1.04239
1.03893
1.03467
1.0299
1.02487
1.01983
1.015
1.01056
1.00668
1.00347
1.00105
0.999494
0.998857
0.999165
1.00042
1.00261
1.00567
1.00954
1.0141
1.01922
1.0247
1.03027
1.03559
1.04026
1.04384
1.04596
1.04635
1.04496
1.04196
1.03773
1.03273
1.02744
1.02228
1.01754
1.01341
1.00997
1.00719
1.00504
1.00341
1.00223
1.00139
1.00081
1.00043
1.00019
1.00004
0.99996
0.999922
0.99991
0.999912
0.999922
0.999935
0.999947
0.999959
0.999969
0.999977
0.999984
0.999988
0.999992
0.999995
0.999996
0.999998
0.999998
0.999999
0.999999
1
1
1
1
1
1.03955
1.04321
1.04538
1.0459
1.04478
1.04216
1.03827
1.03341
1.02786
1.02192
1.01586
1.00991
1.0043
0.999184
0.994736
0.991081
0.988332
0.986574
0.985861
0.986224
0.987663
0.990153
0.99364
0.998048
1.00327
1.00918
1.01558
1.02224
1.02885
1.03499
1.04021
1.04404
1.04609
1.04616
1.0443
1.0408
1.03614
1.03084
1.02542
1.02028
1.01569
1.01178
1.00859
1.00607
1.00416
1.00275
1.00174
1.00104
1.00057
1.00027
1.00009
0.999985
0.999933
0.999912
0.99991
0.999918
0.99993
0.999943
0.999956
0.999966
0.999975
0.999982
0.999987
0.999991
0.999994
0.999996
0.999997
0.999998
0.999999
0.999999
1
1
1
1
1
1.04231
1.04499
1.04589
1.04495
1.0423
1.03815
1.03282
1.02662
1.01986
1.01284
1.0058
0.998977
0.992569
0.986756
0.981704
0.977556
0.974437
0.972447
0.971651
0.972081
0.973733
0.976571
0.980529
0.985518
0.991426
0.998114
1.00541
1.0131
1.02089
1.02841
1.0352
1.04072
1.04451
1.04622
1.04573
1.04325
1.03917
1.03409
1.02857
1.02312
1.0181
1.01374
1.01012
1.00723
1.005
1.00334
1.00215
1.00131
1.00075
1.00038
1.00015
1.00002
0.999949
0.999918
0.99991
0.999915
0.999927
0.99994
0.999952
0.999963
0.999973
0.99998
0.999986
0.99999
0.999993
0.999996
0.999997
0.999998
0.999999
0.999999
1
1
1
1
1
1.0443
1.04577
1.04524
1.04277
1.03858
1.03297
1.02628
1.01883
1.01094
1.00287
0.99486
0.987125
0.97986
0.973253
0.967492
0.962752
0.959185
0.956912
0.956021
0.956543
0.958464
0.961731
0.966256
0.97192
0.978592
0.986121
0.994337
1.00304
1.01196
1.02076
1.029
1.03616
1.04169
1.04512
1.04619
1.04494
1.04172
1.03706
1.03162
1.02598
1.02061
1.01582
1.01177
1.00849
1.00593
1.00401
1.00261
1.00162
1.00095
1.0005
1.00023
1.00006
0.99997
0.999927
0.999913
0.999914
0.999924
0.999937
0.999949
0.999961
0.999971
0.999979
0.999985
0.999989
0.999993
0.999995
0.999997
0.999998
0.999999
0.999999
0.999999
1
1
1
1
1.04542
1.04553
1.04349
1.0395
1.03383
1.02684
1.01888
1.01026
1.00127
0.99215
0.983107
0.974349
0.966077
0.958511
0.951875
0.94639
0.94226
0.93964
0.938638
0.939292
0.941575
0.945402
0.950643
0.957139
0.964718
0.973205
0.982419
0.992162
1.0022
1.01223
1.02185
1.03055
1.03776
1.04292
1.04565
1.04583
1.04366
1.03966
1.03448
1.02878
1.02315
1.01799
1.01353
1.00985
1.00695
1.00475
1.00313
1.00197
1.00118
1.00065
1.00032
1.00011
0.999998
0.99994
0.999918
0.999915
0.999922
0.999934
0.999947
0.999959
0.999969
0.999977
0.999984
0.999989
0.999992
0.999995
0.999997
0.999998
0.999999
0.999999
0.999999
1
1
1
1
1.04566
1.04432
1.04078
1.03532
1.02826
1.01999
1.01083
1.00108
0.990974
0.980725
0.97051
0.960537
0.951029
0.94226
0.934516
0.928089
0.923246
0.920197
0.919074
0.919922
0.922694
0.927263
0.933438
0.940994
0.949697
0.959325
0.969675
0.980551
0.991739
1.00298
1.01391
1.02407
1.03288
1.03975
1.04418
1.04589
1.04496
1.04181
1.03707
1.03147
1.02568
1.0202
1.01536
1.0113
1.00805
1.00555
1.0037
1.00236
1.00144
1.00082
1.00042
1.00017
1.00003
0.999958
0.999926
0.999917
0.999922
0.999933
0.999945
0.999957
0.999967
0.999976
0.999983
0.999988
0.999992
0.999994
0.999996
0.999998
0.999998
0.999999
0.999999
1
1
1
1
1.04505
1.04226
1.03727
1.03042
1.02207
1.01259
1.00228
0.991389
0.980097
0.968567
0.956959
0.945494
0.934445
0.924158
0.915011
0.907396
0.90166
0.898078
0.896822
0.897943
0.901371
0.90692
0.914317
0.923242
0.933369
0.944403
0.956098
0.968249
0.980665
0.993127
1.00533
1.01688
1.02722
1.03574
1.04184
1.04515
1.04559
1.04345
1.03933
1.03398
1.02814
1.02242
1.01723
1.01281
1.00921
1.00641
1.00431
1.00279
1.00173
1.00101
1.00054
1.00025
1.00007
0.999981
0.999937
0.999922
0.999923
0.999932
0.999944
0.999955
0.999966
0.999975
0.999982
0.999987
0.999991
0.999994
0.999996
0.999997
0.999998
0.999999
0.999999
1
1
1
1
1.04369
1.03948
1.03312
1.02498
1.01544
1.0048
0.993353
0.981253
0.968628
0.95559
0.942293
0.928983
0.91601
0.903824
0.892926
0.883825
0.876975
0.872732
0.87132
0.872801
0.877079
0.883897
0.892877
0.90357
0.915517
0.928314
0.941645
0.955282
0.969055
0.982795
0.996273
1.00915
1.02093
1.03101
1.03876
1.04368
1.04556
1.04456
1.04121
1.03625
1.03048
1.0246
1.01913
1.01436
1.01042
1.00732
1.00497
1.00325
1.00204
1.00121
1.00067
1.00033
1.00012
1.00001
0.999951
0.999929
0.999926
0.999932
0.999943
0.999955
0.999965
0.999974
0.999981
0.999987
0.999991
0.999994
0.999996
0.999997
0.999998
0.999999
0.999999
1
1
1
1
1.04169
1.03615
1.02852
1.01918
1.0085
0.996746
0.984111
0.970688
0.956525
0.941686
0.926329
0.91075
0.895407
0.880884
0.867828
0.856894
0.848666
0.843601
0.841987
0.843913
0.849252
0.857673
0.868664
0.881605
0.895863
0.91088
0.926231
0.941646
0.956967
0.972084
0.98685
1.00101
1.01416
1.02572
1.03505
1.04156
1.04492
1.04515
1.04269
1.03825
1.03266
1.02671
1.021
1.01592
1.01167
1.00827
1.00567
1.00375
1.00238
1.00144
1.00082
1.00042
1.00018
1.00004
0.999969
0.999938
0.99993
0.999934
0.999943
0.999954
0.999964
0.999973
0.999981
0.999986
0.99999
0.999994
0.999996
0.999997
0.999998
0.999999
0.999999
1
1
1
1
1.0392
1.0324
1.02359
1.01315
1.00138
0.988497
0.974599
0.959687
0.943728
0.926738
0.908894
0.890571
0.872362
0.855011
0.839345
0.826191
0.816285
0.810208
0.808328
0.810771
0.817389
0.827766
0.841234
0.85697
0.87411
0.89189
0.909736
0.927301
0.94443
0.961074
0.977184
0.992617
1.00706
1.02001
1.03083
1.03888
1.04372
1.04524
1.04376
1.03995
1.03465
1.02871
1.02283
1.01749
1.01293
1.00924
1.00638
1.00426
1.00274
1.00168
1.00097
1.00052
1.00024
1.00008
0.999991
0.99995
0.999936
0.999937
0.999944
0.999954
0.999964
0.999973
0.99998
0.999986
0.99999
0.999993
0.999995
0.999997
0.999998
0.999999
0.999999
1
1
1
1
1.03633
1.02838
1.01849
1.00701
0.994173
0.98012
0.964846
0.948244
0.930188
0.910659
0.889867
0.868289
0.846686
0.825991
0.807241
0.791465
0.779571
0.772283
0.770066
0.773089
0.781192
0.793868
0.810285
0.829377
0.850009
0.871153
0.892034
0.912192
0.931453
0.949828
0.967377
0.984091
0.999777
1.01403
1.02624
1.03576
1.04204
1.04486
1.04443
1.04133
1.03642
1.03058
1.02459
1.01902
1.01418
1.01022
1.00712
1.00479
1.00311
1.00194
1.00114
1.00063
1.00031
1.00012
1.00002
0.999965
0.999944
0.999941
0.999947
0.999955
0.999965
0.999973
0.99998
0.999986
0.99999
0.999993
0.999995
0.999997
0.999998
0.999999
0.999999
1
1
1
1
1.03322
1.02421
1.01333
1.00085
0.986952
0.971668
0.95488
0.93636
0.915892
0.893423
0.869209
0.843866
0.818339
0.793795
0.771511
0.752741
0.738589
0.729925
0.727311
0.730963
0.740718
0.755988
0.775771
0.798745
0.823459
0.848573
0.873053
0.896283
0.918043
0.938393
0.957513
0.975541
0.992433
1.0079
1.02141
1.0323
1.03997
1.04409
1.04473
1.04242
1.03796
1.03229
1.02626
1.0205
1.01542
1.0112
1.00786
1.00533
1.00349
1.0022
1.00132
1.00074
1.00038
1.00017
1.00004
0.999981
0.999954
0.999946
0.999949
0.999957
0.999965
0.999974
0.99998
0.999986
0.99999
0.999993
0.999995
0.999997
0.999998
0.999999
0.999999
1
1
1
1
1.02996
1.02
1.00819
0.99476
0.979786
0.963192
0.944741
0.924077
0.900884
0.875089
0.847007
0.817417
0.78749
0.758658
0.732473
0.710437
0.693851
0.683712
0.680664
0.684973
0.696483
0.71455
0.738008
0.765278
0.794574
0.824204
0.852821
0.8796
0.904236
0.926827
0.94767
0.967068
0.985145
1.00175
1.01646
1.02863
1.03761
1.04298
1.04471
1.04321
1.03927
1.03384
1.02781
1.02191
1.01661
1.01215
1.00859
1.00587
1.00388
1.00247
1.0015
1.00086
1.00046
1.00022
1.00007
1
0.999965
0.999954
0.999954
0.999959
0.999967
0.999974
0.999981
0.999986
0.99999
0.999993
0.999996
0.999997
0.999998
0.999999
0.999999
1
1
1
1
1.02668
1.01584
1.00317
0.988812
0.972738
0.954755
0.934496
0.911478
0.885288
0.855826
0.823495
0.789262
0.754561
0.721133
0.690835
0.665416
0.64635
0.634725
0.631238
0.636201
0.649486
0.670413
0.697694
0.729502
0.763722
0.798284
0.83149
0.862245
0.890116
0.915208
0.937935
0.958768
0.978019
0.995703
1.0115
1.02484
1.03504
1.04161
1.0444
1.04373
1.04035
1.0352
1.02923
1.02324
1.01775
1.01308
1.00931
1.00641
1.00426
1.00274
1.00169
1.00099
1.00054
1.00027
1.00011
1.00002
0.999978
0.999962
0.999959
0.999962
0.999969
0.999976
0.999982
0.999987
0.999991
0.999994
0.999996
0.999997
0.999998
0.999999
0.999999
1
1
1
1
1.02344
1.01181
0.99834
0.983076
0.965879
0.946432
0.924244
0.898708
0.869311
0.835936
0.799085
0.759944
0.720257
0.682113
0.647683
0.618952
0.597507
0.584472
0.580558
0.586127
0.601106
0.624818
0.655881
0.692259
0.731532
0.771256
0.809354
0.844416
0.875825
0.903652
0.928407
0.950738
0.971153
0.989852
1.00665
1.02105
1.03237
1.04005
1.04386
1.04402
1.04122
1.03638
1.03052
1.02446
1.01883
1.01396
1.01
1.00693
1.00464
1.003
1.00187
1.00111
1.00062
1.00032
1.00014
1.00004
0.999993
0.999971
0.999965
0.999966
0.999971
0.999977
0.999983
0.999987
0.999991
0.999994
0.999996
0.999997
0.999998
0.999999
0.999999
1
1
1
1
1.02033
1.00798
0.993762
0.97762
0.959286
0.938323
0.914125
0.885967
0.85325
0.815842
0.774354
0.730223
0.68554
0.642769
0.604404
0.572611
0.549017
0.534708
0.530384
0.53646
0.552955
0.579234
0.613863
0.65464
0.698868
0.743759
0.786858
0.826412
0.861564
0.892302
0.919202
0.943078
0.964645
0.984296
1.002
1.01734
1.02967
1.03838
1.04315
1.04411
1.04189
1.0374
1.03166
1.02558
1.01982
1.01479
1.01065
1.00742
1.005
1.00326
1.00205
1.00123
1.00071
1.00038
1.00018
1.00007
1.00001
0.999981
0.999972
0.999971
0.999974
0.999979
0.999984
0.999988
0.999992
0.999994
0.999996
0.999997
0.999998
0.999999
0.999999
1
1
1
1
1.01742
1.00442
0.989499
0.972512
0.953049
0.930549
0.904307
0.873513
0.837484
0.796078
0.750026
0.701029
0.651555
0.604461
0.562537
0.528072
0.502644
0.487236
0.482516
0.488966
0.506716
0.535216
0.573033
0.617849
0.666733
0.716581
0.764581
0.808632
0.847602
0.881341
0.910453
0.935896
0.958588
0.979123
0.997637
1.01381
1.02704
1.03668
1.04232
1.04404
1.04238
1.03824
1.03265
1.02657
1.02072
1.01555
1.01126
1.00788
1.00535
1.00351
1.00222
1.00135
1.00079
1.00043
1.00022
1.00009
1.00003
0.999992
0.999979
0.999976
0.999978
0.999982
0.999986
0.999989
0.999992
0.999995
0.999996
0.999998
0.999998