/*--------------------------------*- C++ -*----------------------------------*\
  =========                 |
  \\      /  F ield         | OpenFOAM: The Open Source CFD Toolbox
   \\    /   O peration     | Website:  https://openfoam.org
    \\  /    A nd           | Version:  6
     \\/     M anipulation  |
\*---------------------------------------------------------------------------*/
FoamFile
{
    version     2.0;
    format      ascii;
    class       volVectorField;
    location    "1.35";
    object      U;
}
// * * * * * * * * * * * * * * * * * * * * * * * * * * * * * * * * * * * * * //

dimensions      [0 1 -1 0 0 0 0];

internalField   nonuniform List<vector> 
4214
(
(4.95542 -0.0351962 0)
(4.98489 -0.00843525 0)
(4.97907 0.0167353 7.55415e-21)
(4.97013 0.0374151 -3.90767e-21)
(4.97212 0.0576019 0)
(4.98142 0.0779842 0)
(4.9958 0.0977874 -6.0919e-22)
(5.01047 0.11494 5.37322e-22)
(5.02158 0.127656 1.38658e-22)
(5.02644 0.135362 -2.92807e-22)
(5.02543 0.138422 0)
(5.02124 0.137446 0)
(5.0173 0.132902 0)
(5.01566 0.12484 4.10044e-22)
(5.01644 0.113175 -2.32416e-22)
(5.01871 0.0981701 -5.38029e-22)
(5.02129 0.0804053 -1.2174e-21)
(5.02344 0.0606581 -2.16794e-21)
(5.02452 0.0397711 2.57759e-21)
(5.0235 0.0184401 5.60615e-21)
(5.02623 -0.000612542 0)
(5.02844 -0.0150869 3.03895e-21)
(5.02586 -0.0269729 0)
(5.02123 -0.0423296 0)
(5.01819 -0.0617633 9.65691e-22)
(5.01716 -0.0818689 -6.47723e-22)
(5.01705 -0.0990373 0)
(5.0165 -0.111689 -1.33845e-21)
(5.01543 -0.11982 1.29099e-21)
(5.01447 -0.123935 8.22803e-23)
(5.01358 -0.124245 -8.04128e-23)
(5.01166 -0.120592 -3.43394e-22)
(5.00694 -0.112812 -7.01335e-23)
(4.99793 -0.100895 -2.02236e-21)
(4.98478 -0.0856177 1.96171e-21)
(4.97009 -0.0682144 -5.25329e-21)
(4.95926 -0.0498781 5.34585e-21)
(4.95536 -0.0314847 0)
(4.95849 -0.0123893 0)
(4.95497 0.0122882 0)
(4.91306 0.0381515 7.57948e-20)
(5.02516 -0.0108631 -1.56226e-20)
(5.01719 0.012682 0)
(4.99885 0.0309633 -6.80454e-21)
(4.98874 0.0460155 -2.10045e-20)
(4.99051 0.0637381 2.73511e-21)
(4.999 0.0829036 -4.89935e-22)
(5.01 0.101803 -1.59552e-21)
(5.02038 0.118421 -4.45765e-21)
(5.02741 0.130919 -2.7827e-21)
(5.02928 0.138594 -7.20212e-23)
(5.02617 0.141753 3.68942e-22)
(5.02019 0.140985 5.25878e-22)
(5.01415 0.136698 1.16113e-23)
(5.00996 0.12884 -4.82594e-22)
(5.00782 0.116977 9.37921e-22)
(5.0071 0.100888 -5.87229e-21)
(5.00685 0.0807998 3.88776e-21)
(5.00656 0.0576957 -7.56102e-22)
(5.00584 0.033743 -1.00132e-21)
(5.00447 0.0115022 -1.58107e-20)
(5.00983 -0.00383487 0)
(5.01453 -0.00993163 -1.45533e-20)
(5.00921 -0.0130883 0)
(4.99679 -0.0255183 1.01379e-20)
(4.9885 -0.0501928 6.63458e-21)
(4.98794 -0.0779551 2.08206e-21)
(4.99275 -0.101727 -1.96093e-21)
(4.99878 -0.118636 1.88429e-21)
(5.00454 -0.129172 0)
(5.0105 -0.134401 -1.44351e-21)
(5.01668 -0.134874 3.31965e-22)
(5.02259 -0.130795 2.21545e-22)
(5.02647 -0.122118 4.79625e-22)
(5.0259 -0.108807 1.25727e-21)
(5.01931 -0.0917863 -1.4781e-21)
(5.00782 -0.0730499 0)
(4.99622 -0.0547263 0)
(4.9911 -0.0385928 -2.45264e-20)
(4.99485 -0.0244936 2.96985e-20)
(5.00012 -0.00402774 2.81559e-20)
(4.99918 0.0221131 -1.99026e-20)
(5.03347 1.05397e-05 -4.53582e-20)
(5.01558 0.0194278 3.16519e-20)
(5.00262 0.0360873 2.35498e-20)
(4.99599 0.050717 0)
(4.99854 0.0678412 0)
(5.00642 0.0862226 0)
(5.01613 0.104433 1.10869e-20)
(5.02489 0.120577 3.31857e-21)
(5.0303 0.132861 2.84668e-21)
(5.03084 0.140541 -1.74222e-21)
(5.02669 0.143849 1.14288e-22)
(5.01981 0.143324 -9.36019e-22)
(5.01273 0.139272 5.2311e-22)
(5.00721 0.131528 0)
(5.00338 0.119409 1.10893e-21)
(5.00066 0.102237 -3.26374e-21)
(4.99843 0.0797996 -1.81712e-20)
(4.99681 0.0531987 -2.34242e-20)
(4.99632 0.0259933 0)
(4.99722 0.00271133 1.0141e-20)
(5.00679 -0.00860494 0)
(5.0145 -0.0070982 -2.31385e-20)
(5.00634 -0.00628038 0)
(4.98364 -0.0177048 -1.01412e-20)
(4.96737 -0.0480569 1.30089e-20)
(4.96636 -0.0815916 5.17408e-21)
(4.97542 -0.109604 0)
(4.98721 -0.129112 1.31699e-20)
(4.99868 -0.141001 -1.25711e-21)
(5.00945 -0.146366 4.00405e-21)
(5.01987 -0.146123 -7.10196e-22)
(5.03014 -0.141043 5.93921e-22)
(5.0387 -0.131283 2.67373e-21)
(5.0427 -0.117017 -5.20607e-22)
(5.03945 -0.099228 -5.63549e-21)
(5.02904 -0.0799153 6.63762e-21)
(5.01605 -0.0612639 0)
(5.00757 -0.0448149 0)
(5.00735 -0.0303669 -3.68153e-20)
(5.0108 -0.0104959 6.06775e-20)
(5.01514 0.0121627 -2.48007e-20)
(5.04107 0.0103954 1.64365e-19)
(5.02442 0.0281143 -8.26751e-20)
(5.01262 0.0432648 -2.37957e-20)
(5.00681 0.0567346 -3.38308e-21)
(5.00946 0.0726927 -1.79142e-20)
(5.01649 0.0901334 0)
(5.02446 0.107638 -1.31175e-20)
(5.03102 0.12332 1.59121e-21)
(5.03427 0.135435 1.42148e-22)
(5.03299 0.143201 3.90397e-21)
(5.02742 0.146773 5.61666e-22)
(5.01922 0.146624 2.74412e-22)
(5.01062 0.142944 1.25753e-21)
(5.00315 0.135384 7.27494e-22)
(4.99685 0.122893 8.94728e-21)
(4.99122 0.104174 2.05483e-20)
(4.98604 0.0783965 1.97828e-20)
(4.98268 0.0468562 2.09489e-20)
(4.98312 0.0150517 3.89476e-20)
(4.98859 -0.00999826 5.99649e-22)
(5.00561 -0.0158954 -1.19456e-21)
(5.01635 -0.00664266 3.50022e-20)
(5.00098 -0.00438446 -4.546e-20)
(4.96503 -0.0196105 -4.20165e-20)
(4.9396 -0.0560555 9.17459e-21)
(4.93886 -0.0949106 3.08735e-20)
(4.9542 -0.126374 2.40787e-20)
(4.97389 -0.147762 -1.33545e-20)
(4.99269 -0.16032 0)
(5.00952 -0.165165 -1.57291e-21)
(5.02556 -0.16375 -1.37488e-21)
(5.04141 -0.157313 -3.96787e-21)
(5.05576 -0.146226 -2.20275e-21)
(5.06536 -0.130889 0)
(5.06646 -0.112301 -9.27871e-22)
(5.0579 -0.0923385 -2.16031e-20)
(5.04387 -0.0731711 4.99224e-20)
(5.0326 -0.0562521 -5.27559e-20)
(5.03006 -0.0418225 1.5469e-20)
(5.03322 -0.0229801 5.26738e-20)
(5.03731 0.00145773 -5.46912e-20)
(5.04834 0.0197082 -1.97171e-19)
(5.03169 0.0369416 1.05453e-19)
(5.02065 0.0500176 0)
(5.01634 0.0627537 0)
(5.01927 0.0777571 0)
(5.02559 0.09434 3.89547e-20)
(5.03215 0.111154 2.68174e-21)
(5.03688 0.126382 1.17253e-21)
(5.03822 0.138356 -6.28372e-21)
(5.03525 0.146267 -5.43077e-21)
(5.02824 0.1502 -5.61007e-22)
(5.0187 0.150539 2.6496e-21)
(5.00859 0.14733 -1.40998e-21)
(4.99908 0.140003 4.49207e-22)
(4.98995 0.127027 -1.06481e-20)
(4.98079 0.106355 -1.52646e-20)
(4.97201 0.0764005 -1.96769e-21)
(4.96689 0.0387549 -3.66711e-20)
(4.96962 0.00128308 8.53532e-21)
(4.98315 -0.0259201 2.07266e-21)
(5.01145 -0.0258769 8.45201e-23)
(5.0239 -0.0112929 -1.18405e-19)
(4.99624 -0.00911674 1.63016e-19)
(4.94502 -0.0375458 -7.05101e-20)
(4.91225 -0.0776339 6.6126e-20)
(4.91259 -0.118969 -3.5895e-20)
(4.93519 -0.152033 -5.38639e-20)
(4.96352 -0.173854 0)
(4.98959 -0.1858 1.05309e-20)
(5.01255 -0.189348 2.16362e-21)
(5.03415 -0.186432 -4.20753e-21)
(5.0552 -0.178386 -7.30976e-21)
(5.07464 -0.165936 0)
(5.08912 -0.149769 -5.38931e-21)
(5.09412 -0.130802 -7.26577e-21)
(5.08744 -0.110515 2.32616e-21)
(5.07262 -0.0906979 1.35592e-20)
(5.05843 -0.0727629 0)
(5.05285 -0.0572085 -7.93495e-20)
(5.05559 -0.0395955 1.46239e-19)
(5.0608 -0.0127353 -9.09531e-20)
(5.05596 0.029108 -5.46932e-20)
(5.03995 0.0456197 -1.14185e-19)
(5.02958 0.0570194 3.08197e-20)
(5.02644 0.0691626 3.25955e-20)
(5.02947 0.0832528 1.27083e-20)
(5.03507 0.099056 -5.73499e-20)
(5.04024 0.115243 -4.98457e-21)
(5.04314 0.130062 2.82226e-21)
(5.04254 0.141935 9.06199e-21)
(5.03777 0.150057 2.43816e-21)
(5.02917 0.154453 -2.18911e-21)
(5.01812 0.155392 -2.41858e-21)
(5.00626 0.152765 -2.3475e-21)
(4.99436 0.145755 4.20376e-21)
(4.98179 0.132223 -2.45833e-22)
(4.96811 0.109251 0)
(4.95475 0.0744763 -3.51432e-20)
(4.94765 0.0300135 3.77561e-20)
(4.95405 -0.0138059 -1.57029e-19)
(4.9789 -0.0433928 -1.23041e-19)
(5.01968 -0.0390166 0)
(5.02906 -0.0282857 1.159e-19)
(4.99158 -0.0399287 -1.1632e-19)
(4.92636 -0.0723725 2.42019e-19)
(4.88791 -0.112372 -9.72572e-20)
(4.88938 -0.152548 0)
(4.91966 -0.185072 2.82204e-20)
(4.95653 -0.206002 2.65477e-21)
(4.98955 -0.216419 -1.21167e-20)
(5.01885 -0.218335 -1.8837e-21)
(5.04608 -0.213731 1.44027e-20)
(5.07212 -0.203996 2.90941e-20)
(5.09612 -0.190196 0)
(5.11489 -0.173328 1.49778e-20)
(5.1237 -0.154231 1.76016e-20)
(5.11953 -0.133884 1.46291e-20)
(5.10505 -0.113532 -2.13183e-20)
(5.08895 -0.0944197 -4.49661e-20)
(5.08046 -0.0771539 5.97892e-20)
(5.08177 -0.0594354 9.81456e-21)
(5.08763 -0.0308889 -1.22576e-19)
(5.06419 0.0388579 -2.25829e-20)
(5.04852 0.0542472 3.43758e-19)
(5.03892 0.0644628 1.31735e-19)
(5.03682 0.0759962 -2.85403e-20)
(5.03995 0.0893428 0)
(5.04483 0.104462 -1.33892e-20)
(5.04863 0.120087 -4.0633e-20)
(5.04971 0.13455 0)
(5.04712 0.146369 1.17796e-20)
(5.04048 0.154778 -1.0007e-21)
(5.0302 0.159751 8.17049e-21)
(5.01747 0.161417 0)
(5.00357 0.159479 -3.02873e-21)
(4.98884 0.152882 -8.37464e-21)
(4.9722 0.138846 -3.54248e-23)
(4.95291 0.113481 0)
(4.93384 0.0737469 3.36609e-20)
(4.92466 0.0227866 1.09481e-19)
(4.93658 -0.0266614 1.09061e-19)
(4.97427 -0.0569778 -2.26326e-20)
(5.02375 -0.0524227 0)
(5.03013 -0.0553283 -1.83236e-19)
(4.98625 -0.0851558 -1.83176e-21)
(4.91327 -0.117958 -1.30795e-19)
(4.86933 -0.155615 -1.36337e-19)
(4.87162 -0.192451 1.09489e-19)
(4.90852 -0.222655 9.18379e-22)
(4.95314 -0.241883 -2.3138e-22)
(4.99295 -0.250618 1.87328e-20)
(5.02854 -0.250968 6.5655e-21)
(5.06134 -0.244678 -9.26041e-21)
(5.09208 -0.233226 -1.74588e-20)
(5.11998 -0.217983 3.21658e-20)
(5.14229 -0.200253 -1.53962e-20)
(5.15457 -0.180891 -1.8107e-20)
(5.15348 -0.160464 0)
(5.14073 -0.139639 0)
(5.12414 -0.119338 5.35152e-20)
(5.1133 -0.10021 -7.09766e-20)
(5.11248 -0.0815586 1.42428e-19)
(5.11787 -0.0520262 -1.16015e-19)
(5.07289 0.0491051 4.17691e-19)
(5.0578 0.0630664 -1.42156e-19)
(5.04913 0.0725081 -1.77669e-19)
(5.04791 0.0835094 -4.38048e-20)
(5.05107 0.0962517 -1.72368e-20)
(5.05516 0.110782 1.01587e-19)
(5.05751 0.125921 -2.34347e-20)
(5.05668 0.140094 0)
(5.05201 0.15193 -1.38978e-20)
(5.04338 0.16072 3.51638e-21)
(5.03128 0.166399 -4.24872e-21)
(5.0167 0.168953 -5.30187e-22)
(5.00038 0.167834 -1.59241e-21)
(4.98214 0.161723 4.44689e-21)
(4.96066 0.147393 -1.7884e-20)
(4.93471 0.120011 0)
(4.90879 0.0759541 8.11059e-22)
(4.89753 0.0202623 1.66872e-20)
(4.91638 -0.0319957 4.8321e-22)
(4.96747 -0.0617371 1.44076e-19)
(5.02252 -0.0606389 -1.95765e-22)
(5.02601 -0.0842961 -3.51591e-20)
(4.97785 -0.134848 2.09437e-19)
(4.90496 -0.167511 1.13321e-22)
(4.85681 -0.202081 1.39475e-19)
(4.86158 -0.235129 -1.15209e-19)
(4.90131 -0.262304 3.0875e-21)
(4.95268 -0.279779 4.80875e-20)
(4.99924 -0.287283 -1.9164e-20)
(5.04121 -0.286264 -3.7657e-21)
(5.07959 -0.278502 -2.92842e-21)
(5.11504 -0.26537 8.22777e-21)
(5.14647 -0.248504 -6.18232e-20)
(5.17176 -0.229513 2.06314e-20)
(5.18717 -0.209366 -5.543e-20)
(5.18956 -0.18846 -4.13333e-21)
(5.17987 -0.16701 0)
(5.16451 -0.145544 -6.57065e-20)
(5.15252 -0.124553 -2.11278e-21)
(5.14945 -0.104652 7.54841e-20)
(5.15309 -0.0741725 -1.87522e-20)
(5.08195 0.0596346 -4.76269e-19)
(5.068 0.0725535 0)
(5.06044 0.0814182 -1.54715e-19)
(5.05997 0.0919868 4.81113e-20)
(5.06303 0.104248 0)
(5.06618 0.118281 2.62721e-20)
(5.06692 0.133006 4.10817e-20)
(5.06405 0.146964 -2.84265e-20)
(5.05717 0.158907 0)
(5.04644 0.168199 0)
(5.03238 0.174725 7.12062e-21)
(5.01573 0.178337 0)
(4.99663 0.178267 1.2324e-20)
(4.97413 0.17279 0)
(4.94678 0.158489 -1.26344e-21)
(4.91315 0.130038 -4.24411e-21)
(4.87955 0.0834852 1.07891e-19)
(4.8659 0.0269028 -1.25271e-19)
(4.89058 -0.0240939 2.24861e-21)
(4.95554 -0.0617621 0)
(5.01526 -0.0576831 0)
(5.00015 -0.108027 4.87252e-19)
(4.96361 -0.180582 -4.63935e-19)
(4.89911 -0.215179 -3.34604e-21)
(4.84919 -0.247623 4.87198e-21)
(4.85476 -0.278124 -1.17418e-20)
(4.8975 -0.302296 6.82717e-21)
(4.95424 -0.318599 -4.91969e-20)
(5.00745 -0.32593 -9.09135e-22)
(5.05635 -0.323761 8.95607e-22)
(5.10038 -0.31475 1.64627e-20)
(5.14085 -0.299958 -1.63851e-20)
(5.17576 -0.281249 0)
(5.20385 -0.26055 0)
(5.22209 -0.238944 2.95014e-20)
(5.2281 -0.216955 3.24714e-20)
(5.22232 -0.194514 -7.75756e-20)
(5.20973 -0.171859 8.00051e-20)
(5.19816 -0.149235 0)
(5.19352 -0.128116 0)
(5.1947 -0.096924 0)
(5.09181 0.0705901 1.84637e-19)
(5.07947 0.0829056 -1.92226e-19)
(5.0732 0.0914577 -1.18529e-20)
(5.07333 0.101743 1.03014e-19)
(5.07606 0.113651 9.18287e-20)
(5.07802 0.127274 9.749e-21)
(5.07692 0.141652 -1.57321e-20)
(5.07181 0.155474 4.21561e-20)
(5.06259 0.167635 1.80804e-21)
(5.04964 0.177568 1.07199e-20)
(5.03348 0.185099 -6.78396e-21)
(5.01448 0.189955 3.21693e-21)
(4.99212 0.191191 -2.22056e-21)
(4.96473 0.186708 0)
(4.93027 0.173046 -2.65676e-20)
(4.88778 0.144933 -8.78416e-20)
(4.84628 0.0992046 -2.17722e-19)
(4.83039 0.04823 1.66866e-19)
(4.858 0.00363832 -5.13395e-21)
(4.93302 -0.0349405 0)
(4.98703 -0.0391386 0)
(4.95587 -0.119826 -2.65294e-19)
(4.9396 -0.215936 5.54148e-19)
(4.89277 -0.257595 2.62837e-19)
(4.84368 -0.289586 0)
(4.85098 -0.320328 0)
(4.89569 -0.34273 9.42582e-20)
(4.95679 -0.358538 4.01617e-20)
(5.01679 -0.366836 0)
(5.07374 -0.363593 0)
(5.12341 -0.353373 1.1421e-19)
(5.16955 -0.336723 -5.19143e-20)
(5.20797 -0.315854 2.92325e-20)
(5.23909 -0.293028 7.69846e-20)
(5.25995 -0.269327 -7.7999e-20)
(5.26956 -0.245715 0)
(5.26803 -0.221824 0)
(5.25929 -0.197961 4.57792e-20)
(5.24967 -0.174002 -3.12055e-19)
(5.24459 -0.151651 -2.91512e-20)
(5.24334 -0.12021 -7.50117e-21)
(5.10323 0.0823389 0)
(5.0928 0.0943814 1.81743e-19)
(5.08785 0.102921 3.43817e-19)
(5.08832 0.11312 -1.99639e-19)
(5.09036 0.12481 -3.78374e-20)
(5.09075 0.138106 -1.14678e-19)
(5.0875 0.1522 1.09296e-19)
(5.07993 0.16597 2.87731e-20)
(5.06826 0.178474 -4.02508e-20)
(5.053 0.189202 5.62132e-21)
(5.03459 0.197918 0)
(5.01296 0.204247 -7.24858e-21)
(4.98681 0.20713 -1.03527e-20)
(4.95384 0.204244 -2.02281e-23)
(4.91113 0.192272 4.96793e-20)
(4.85884 0.166366 7.63425e-20)
(4.81026 0.125802 1.08742e-19)
(4.79343 0.0884011 -1.575e-19)
(4.81981 0.0547495 -1.48239e-21)
(4.89618 0.0174092 5.47391e-19)
(4.93996 -0.00389483 2.20164e-21)
(4.88978 -0.117987 7.57819e-19)
(4.90085 -0.23919 -3.03873e-19)
(4.88311 -0.294607 -2.51322e-19)
(4.83741 -0.327763 -4.00522e-20)
(4.84854 -0.362113 7.48525e-21)
(4.89503 -0.384892 -1.7437e-19)
(4.96006 -0.400952 -4.12529e-20)
(5.02703 -0.410938 2.26486e-20)
(5.09371 -0.406342 1.08997e-20)
(5.14867 -0.39467 3.28766e-20)
(5.20142 -0.37548 -1.58282e-19)
(5.24309 -0.351947 0)
(5.27784 -0.3264 -6.52415e-21)
(5.30106 -0.300021 -2.01741e-19)
(5.31429 -0.274408 2.15553e-19)
(5.3169 -0.24856 -1.12533e-19)
(5.31253 -0.223536 5.5523e-20)
(5.30582 -0.19824 0)
(5.3014 -0.174381 3.05904e-20)
(5.29894 -0.143474 -3.60212e-20)
(5.11719 0.0951276 0)
(5.10883 0.107207 0)
(5.10499 0.116081 -1.12291e-19)
(5.10531 0.12642 -1.01958e-19)
(5.10608 0.138037 4.49891e-20)
(5.10441 0.151095 -4.51181e-20)
(5.09865 0.164978 -3.55235e-20)
(5.08844 0.178794 -3.5125e-20)
(5.07423 0.191783 -3.01206e-20)
(5.0566 0.203473 -5.34694e-21)
(5.03581 0.213583 1.43346e-20)
(5.01121 0.221687 -3.57852e-21)
(4.98066 0.226655 0)
(4.94158 0.22632 -8.87547e-21)
(4.89042 0.217596 9.48259e-21)
(4.82907 0.196342 5.62758e-21)
(4.77603 0.165723 -1.43196e-20)
(4.7583 0.149197 -1.35476e-20)
(4.77604 0.127741 2.55992e-19)
(4.84375 0.0884178 -8.60537e-19)
(4.87052 0.0471495 -1.12749e-21)
(4.7993 -0.105006 -1.19858e-18)
(4.84343 -0.250954 -1.23433e-20)
(4.86663 -0.32796 -1.84834e-20)
(4.82894 -0.364107 1.79941e-20)
(4.84624 -0.405871 0)
(4.89528 -0.430545 9.61411e-20)
(4.96463 -0.447816 -1.09259e-20)
(5.03825 -0.459403 -1.1787e-19)
(5.11678 -0.452759 1.84137e-20)
(5.17622 -0.439261 -1.73135e-19)
(5.23697 -0.416064 3.04318e-19)
(5.28107 -0.389396 -2.25093e-19)
(5.32046 -0.359984 -5.45773e-21)
(5.34548 -0.33034 -1.28151e-19)
(5.36237 -0.302237 1.30721e-19)
(5.36861 -0.273774 0)
(5.36843 -0.247398 -1.55365e-19)
(5.36464 -0.220373 8.03224e-20)
(5.36174 -0.195137 0)
(5.35989 -0.165632 3.7345e-20)
(5.13495 0.109282 1.41019e-19)
(5.12847 0.121644 -1.1864e-20)
(5.12519 0.13122 -2.45858e-19)
(5.1246 0.14193 1.16592e-19)
(5.12333 0.153641 -1.15348e-20)
(5.119 0.166573 0)
(5.11036 0.180331 -7.5672e-20)
(5.09737 0.194309 1.07699e-19)
(5.08057 0.207924 0)
(5.06052 0.220776 -2.18819e-20)
(5.03708 0.232555 -1.37267e-20)
(5.00902 0.242922 1.51441e-20)
(4.97336 0.250348 2.62023e-22)
(4.92773 0.253243 1.92626e-20)
(4.86886 0.249193 0)
(4.80095 0.235592 1.0961e-19)
(4.7471 0.22019 -1.61283e-19)
(4.72588 0.228995 0)
(4.72601 0.217279 -2.62328e-19)
(4.77568 0.17896 -4.10603e-19)
(4.7792 0.111025 1.37505e-20)
(4.68574 -0.085032 -6.16512e-19)
(4.76454 -0.253795 9.90791e-19)
(4.83931 -0.361738 8.34991e-19)
(4.81653 -0.402224 0)
(4.84285 -0.455016 0)
(4.89622 -0.481298 -1.03675e-20)
(4.97132 -0.501282 3.2065e-20)
(5.05039 -0.513342 2.8134e-20)
(5.14328 -0.503588 2.78287e-20)
(5.20604 -0.487993 1.08711e-19)
(5.27692 -0.458336 -3.67978e-19)
(5.3222 -0.428544 2.46256e-19)
(5.36728 -0.393265 -3.15525e-19)
(5.39302 -0.360026 -1.56665e-19)
(5.41361 -0.32805 -1.6493e-19)
(5.42234 -0.296549 3.33289e-19)
(5.42566 -0.267641 1.61681e-19)
(5.42426 -0.23881 4.60281e-19)
(5.42329 -0.212504 -6.3571e-19)
(5.42304 -0.184785 1.07008e-21)
(5.158 0.125644 -1.43181e-19)
(5.15237 0.138312 1.43628e-19)
(5.1487 0.148748 -1.20284e-19)
(5.14607 0.160073 1.2034e-19)
(5.14185 0.172008 9.86463e-20)
(5.13427 0.184975 9.98889e-20)
(5.12242 0.198687 -7.99524e-20)
(5.10662 0.212988 7.9402e-20)
(5.08715 0.227355 5.87945e-20)
(5.0646 0.24168 -5.81399e-20)
(5.03816 0.25548 3.54579e-20)
(5.00623 0.268733 -1.62046e-20)
(4.96513 0.278854 9.47932e-22)
(4.91256 0.285224 -1.15725e-20)
(4.84586 0.286805 0)
(4.77242 0.283426 -1.08921e-19)
(4.71955 0.287372 1.84561e-22)
(4.69292 0.32106 -3.01635e-19)
(4.66918 0.314217 -3.15115e-19)
(4.68991 0.282675 7.13448e-19)
(4.66112 0.180545 7.29238e-21)
(4.55048 -0.0638184 1.10622e-18)
(4.66321 -0.251394 -1.06352e-18)
(4.80147 -0.400826 -8.73488e-19)
(4.80009 -0.44622 7.76448e-20)
(4.83827 -0.51261 3.31679e-19)
(4.89754 -0.538292 -5.37403e-20)
(4.98115 -0.563073 -2.00934e-20)
(5.06414 -0.573254 1.98649e-20)
(5.17418 -0.559308 2.17766e-19)
(5.23908 -0.541488 2.99057e-19)
(5.32255 -0.502124 2.69491e-19)
(5.3673 -0.469759 0)
(5.41886 -0.425425 1.46336e-19)
(5.44391 -0.389553 -4.17007e-19)
(5.46829 -0.350552 7.89543e-19)
(5.47759 -0.317196 -7.96441e-19)
(5.48385 -0.282821 4.10631e-19)
(5.48384 -0.253621 4.38545e-19)
(5.48466 -0.225035 -1.18367e-18)
(5.48516 -0.198796 4.43622e-19)
(5.1882 0.145419 1.6093e-19)
(5.18131 0.158212 -1.19694e-19)
(5.1758 0.169011 2.70379e-19)
(5.16945 0.181173 -2.27268e-19)
(5.16155 0.193324 3.45124e-19)
(5.14993 0.206612 -9.38356e-20)
(5.13493 0.220402 0)
(5.11623 0.235287 0)
(5.09443 0.25061 0)
(5.06927 0.266716 0)
(5.04007 0.282787 4.75303e-20)
(5.00438 0.299022 -3.53376e-20)
(4.95846 0.312567 0)
(4.90022 0.323517 0)
(4.82733 0.3341 0)
(4.74943 0.343349 1.27194e-19)
(4.69879 0.367289 3.83606e-19)
(4.66581 0.418238 2.77034e-19)
(4.61022 0.412384 5.36443e-21)
(4.57599 0.392517 -2.62788e-20)
(4.50237 0.243513 0)
(4.39071 -0.0516935 7.37972e-19)
(4.53864 -0.250717 -1.34594e-18)
(4.76091 -0.449582 -1.08618e-18)
(4.78061 -0.498219 5.44507e-19)
(4.83364 -0.579768 -3.11725e-19)
(4.89927 -0.602308 9.98056e-20)
(4.99571 -0.634429 0)
(5.08184 -0.638843 -1.13056e-19)
(5.21218 -0.619618 -2.65619e-19)
(5.27819 -0.599015 2.41828e-19)
(5.37579 -0.546616 4.17036e-19)
(5.41783 -0.512912 -6.90715e-19)
(5.47673 -0.455297 2.16364e-19)
(5.49923 -0.419601 1.39373e-18)
(5.52772 -0.367841 -2.22491e-19)
(5.53542 -0.33693 -4.76076e-19)
(5.54421 -0.291798 0)
(5.54423 -0.265768 -7.14092e-19)
(5.54617 -0.230659 1.22844e-18)
(5.54552 -0.207606 -1.0474e-20)
(5.22673 0.169426 -4.78116e-19)
(5.21713 0.181753 -1.37412e-19)
(5.20751 0.192158 1.48004e-19)
(5.19624 0.204725 0)
(5.18371 0.217359 1.73726e-20)
(5.16773 0.230895 -2.04101e-19)
(5.14957 0.245459 2.0555e-19)
(5.12812 0.260812 0)
(5.10439 0.277751 0)
(5.07692 0.295124 1.07702e-21)
(5.04537 0.313823 -1.15561e-20)
(5.00658 0.331919 0)
(4.95612 0.350774 1.97448e-20)
(4.89591 0.367306 -1.07734e-20)
(4.8211 0.391972 3.49471e-20)
(4.74664 0.416961 -1.51346e-19)
(4.7043 0.461784 -3.73552e-19)
(4.6655 0.522654 0)
(4.5632 0.522747 7.28511e-19)
(4.42853 0.512996 0)
(4.29957 0.290892 9.72789e-19)
(4.20105 -0.0625673 -7.0747e-19)
(4.38953 -0.264545 1.25207e-18)
(4.70735 -0.514961 1.20174e-18)
(4.75904 -0.55872 -6.27653e-19)
(4.83093 -0.654869 0)
(4.90246 -0.674218 -4.58481e-20)
(5.01639 -0.71627 -5.32384e-20)
(5.10555 -0.710635 5.27958e-20)
(5.25985 -0.68468 2.07403e-19)
(5.32525 -0.659288 -8.64205e-19)
(5.43806 -0.590606 -1.96725e-19)
(5.47514 -0.557516 4.98291e-19)
(5.54243 -0.481115 5.91742e-19)
(5.56002 -0.450317 3.17441e-20)
(5.59285 -0.378964 -5.72183e-19)
(5.59752 -0.355538 0)
(5.60839 -0.294101 0)
(5.60745 -0.275825 0)
(5.6094 -0.22773 0)
(5.60672 -0.212378 1.15368e-18)
(5.26896 0.199779 -1.69182e-19)
(5.2598 0.209057 -3.02907e-19)
(5.24016 0.221582 1.6992e-19)
(5.22823 0.231164 2.64942e-19)
(5.20633 0.246847 -3.89434e-19)
(5.19011 0.257842 0)
(5.16506 0.275757 2.04526e-19)
(5.14399 0.289105 -2.06766e-19)
(5.11501 0.30944 5.75094e-20)
(5.08772 0.325458 -8.10699e-20)
(5.05048 0.3482 5.13805e-20)
(5.01146 0.36648 -7.30293e-20)
(4.95425 0.393213 -3.89274e-20)
(4.89692 0.415491 3.39303e-21)
(4.82378 0.452968 -3.52199e-20)
(4.7588 0.489831 3.40669e-20)
(4.72335 0.555735 -1.03917e-19)
(4.6779 0.627181 6.74325e-20)
(4.50979 0.649842 7.68259e-20)
(4.26254 0.658083 0)
(4.09479 0.338758 -9.97309e-19)
(3.99004 -0.0952557 -9.69132e-19)
(4.22585 -0.298689 7.49939e-19)
(4.63666 -0.604311 9.41119e-20)
(4.72181 -0.638493 5.62123e-20)
(4.83099 -0.736315 -1.32649e-19)
(4.90667 -0.756154 0)
(5.04444 -0.808016 0)
(5.13286 -0.792282 0)
(5.31581 -0.756331 2.73328e-19)
(5.37563 -0.724941 -2.73402e-19)
(5.50744 -0.635577 -6.70168e-19)
(5.53748 -0.604621 0)
(5.61398 -0.501942 -2.00726e-18)
(5.62528 -0.480939 1.41229e-18)
(5.66216 -0.385318 0)
(5.66414 -0.370922 0)
(5.67582 -0.292653 3.13041e-19)
(5.67417 -0.282842 -3.86415e-19)
(5.67447 -0.220364 -2.85966e-20)
(5.67159 -0.214217 -2.02599e-18)
(5.67052 -0.16399 1.08456e-18)
(5.6117 -0.177366 -1.59416e-18)
(5.55523 -0.185386 -5.60245e-19)
(5.49934 -0.184241 2.37397e-19)
(5.44133 -0.17488 -2.37273e-21)
(5.38136 -0.159413 2.03712e-19)
(5.32253 -0.140344 -3.1746e-19)
(5.2682 -0.119506 3.19698e-19)
(5.21991 -0.0992132 2.74237e-19)
(5.17734 -0.0798575 2.72952e-20)
(5.13979 -0.060497 4.18748e-19)
(5.10675 -0.0413287 1.61048e-19)
(5.07829 -0.0235524 1.40038e-19)
(5.05387 -0.00896953 -1.37933e-19)
(5.03156 0.00516108 0)
(4.99244 0.0182877 0)
(4.83964 0.0438197 -1.09267e-19)
(5.67022 -0.159787 7.98833e-19)
(5.61662 -0.164147 0)
(5.56722 -0.167415 6.29686e-19)
(5.51832 -0.166847 -8.54225e-19)
(5.46634 -0.160839 2.6966e-19)
(5.41126 -0.149803 -2.18558e-19)
(5.35599 -0.134331 2.14028e-19)
(5.30389 -0.116124 5.49806e-19)
(5.25677 -0.0976057 1.69342e-19)
(5.2148 -0.0793261 -5.76925e-19)
(5.17761 -0.0609547 -2.40317e-19)
(5.14473 -0.0427196 -2.18042e-19)
(5.11515 -0.0252549 2.16083e-19)
(5.08799 -0.0101173 -2.82557e-19)
(5.05999 0.00554545 8.35455e-20)
(5.01222 0.00997261 0)
(4.82922 0.0405944 0)
(5.67009 -0.117977 2.11519e-19)
(5.62341 -0.134216 -9.87809e-19)
(5.57974 -0.145248 -1.62583e-18)
(5.53671 -0.14854 8.39492e-19)
(5.49085 -0.145183 0)
(5.44134 -0.136633 0)
(5.39061 -0.12404 -2.74346e-19)
(5.34168 -0.108947 -1.13878e-18)
(5.29637 -0.0927194 -3.90642e-19)
(5.25527 -0.0763455 3.67184e-19)
(5.2182 -0.0600724 1.74109e-19)
(5.18467 -0.0437743 -1.43528e-19)
(5.15379 -0.0275964 -1.4907e-19)
(5.12404 -0.012949 2.28028e-19)
(5.08976 0.00303006 -3.40937e-19)
(5.02875 0.0085105 1.01912e-19)
(4.81776 0.04475 0)
(5.66958 -0.113443 0)
(5.62696 -0.121796 9.08298e-19)
(5.58883 -0.128622 1.21996e-20)
(5.55189 -0.13218 7.71023e-19)
(5.51235 -0.131341 0)
(5.46875 -0.125596 -3.23091e-19)
(5.42294 -0.11592 6.17871e-19)
(5.37769 -0.10347 1.11251e-18)
(5.33486 -0.0892465 -2.61987e-19)
(5.29539 -0.0743811 -2.22444e-19)
(5.2595 -0.059274 2.21648e-19)
(5.22686 -0.0439791 -1.86327e-19)
(5.19617 -0.0287605 3.32363e-19)
(5.16444 -0.0146796 0)
(5.12373 0.000901257 2.03635e-19)
(5.0488 0.00776749 1.01005e-19)
(4.80843 0.0468916 2.22208e-19)
(5.66918 -0.0832566 -1.05982e-18)
(5.63216 -0.0989829 0)
(5.59797 -0.110396 9.52833e-19)
(5.56504 -0.11673 -8.93218e-19)
(5.53062 -0.118322 0)
(5.49292 -0.115479 -3.96632e-19)
(5.45241 -0.108288 -5.49101e-19)
(5.41133 -0.0979493 1.89687e-19)
(5.3716 -0.0856167 6.03851e-19)
(5.33438 -0.0721948 -1.8946e-20)
(5.30025 -0.0581649 3.55464e-21)
(5.26897 -0.0437871 -4.93499e-19)
(5.23901 -0.0294178 4.54557e-19)
(5.20621 -0.0159414 2.24984e-19)
(5.1604 -0.000728446 9.44013e-20)
(5.07274 0.00749956 9.92911e-20)
(4.80088 0.0484406 -4.65685e-19)
(5.66889 -0.0768523 1.36463e-18)
(5.63546 -0.087221 9.7722e-19)
(5.60542 -0.0957732 1.36248e-19)
(5.57616 -0.101842 0)
(5.54597 -0.1051 0)
(5.51378 -0.104757 6.83489e-19)
(5.47907 -0.100364 4.1994e-19)
(5.44276 -0.0924833 -1.9255e-19)
(5.40661 -0.0821979 3.86906e-19)
(5.37199 -0.0703274 0)
(5.33971 -0.0574515 -6.59066e-19)
(5.30976 -0.0439237 -4.70692e-19)
(5.28064 -0.0302153 -1.27865e-20)
(5.24759 -0.0171949 -1.12763e-19)
(5.1987 -0.00240726 0)
(5.10038 0.00678902 -2.21159e-19)
(4.7959 0.0488602 4.29559e-19)
(5.66946 -0.0550912 4.84614e-19)
(5.6399 -0.0697804 -1.10808e-18)
(5.61321 -0.0806374 0)
(5.58684 -0.0878057 -5.73946e-19)
(5.55957 -0.0920743 0)
(5.53143 -0.093414 1.30275e-19)
(5.50218 -0.091668 -1.27029e-19)
(5.47134 -0.0866139 -9.54294e-19)
(5.43952 -0.0787706 -6.63209e-19)
(5.40799 -0.0687427 6.52482e-19)
(5.37773 -0.0571429 8.01321e-19)
(5.34896 -0.0444952 3.65631e-19)
(5.32057 -0.0313793 3.44765e-19)
(5.28783 -0.0186815 -3.2429e-19)
(5.23773 -0.0042099 0)
(5.13094 0.00568556 -2.42882e-19)
(4.79516 0.0480361 -3.3431e-19)
(5.66959 -0.0472509 -7.26769e-19)
(5.64326 -0.0583323 0)
(5.62001 -0.0674007 8.21453e-19)
(5.59694 -0.0743973 -1.52053e-19)
(5.57255 -0.079333 0)
(5.54726 -0.0818716 0)
(5.52179 -0.0818092 0)
(5.49593 -0.0791946 5.4676e-19)
(5.46914 -0.0740294 0)
(5.44164 -0.0665425 -3.68701e-19)
(5.41415 -0.0568488 -2.16591e-19)
(5.38703 -0.0455133 1.15796e-19)
(5.35954 -0.0331754 0)
(5.32747 -0.0207651 3.25197e-19)
(5.27741 -0.00634158 9.95445e-20)
(5.16424 0.00404057 3.54507e-19)
(4.80102 0.0461009 0)
(5.67088 -0.0304079 1.90899e-19)
(5.64743 -0.0442069 -1.87176e-19)
(5.62681 -0.0542154 -7.28176e-19)
(5.60651 -0.0616106 7.07827e-19)
(5.58506 -0.0670838 0)
(5.56253 -0.0703707 0)
(5.53964 -0.0715012 0)
(5.51694 -0.0704796 0)
(5.49434 -0.0673095 -5.9643e-19)
(5.47135 -0.0621003 1.42209e-19)
(5.44776 -0.0549101 -6.82546e-19)
(5.42352 -0.0457697 -5.39435e-19)
(5.39792 -0.0349444 5.18975e-19)
(5.3672 -0.0233002 2.85747e-20)
(5.31816 -0.00932745 0)
(5.20073 0.000992747 0)
(4.81585 0.0428464 0)
(5.67168 -0.0216721 0)
(5.65108 -0.0329991 9.85487e-20)
(5.63311 -0.0418748 -1.92507e-19)
(5.61541 -0.0491726 9.39678e-20)
(5.59677 -0.0550772 0)
(5.57714 -0.0590158 0)
(5.5569 -0.0609398 0)
(5.53651 -0.0611047 0)
(5.51642 -0.0595664 -2.01547e-22)
(5.49668 -0.056013 0)
(5.47697 -0.050661 -7.62337e-20)
(5.45656 -0.043704 7.33119e-19)
(5.43425 -0.035182 -6.332e-19)
(5.40618 -0.0251986 -2.57122e-19)
(5.35939 -0.0129135 0)
(5.24054 -0.00340509 2.63417e-19)
(4.84115 0.0380316 0)
(5.67348 -0.00708177 -1.06895e-19)
(5.65512 -0.0203507 1.04183e-19)
(5.63917 -0.0296339 0)
(5.62364 -0.0370003 8.00551e-19)
(5.60754 -0.0431703 3.98981e-23)
(5.59066 -0.0476505 -2.34722e-20)
(5.57318 -0.0503695 0)
(5.55531 -0.0514011 0)
(5.53736 -0.0509463 6.89145e-19)
(5.51969 -0.0491201 5.28458e-21)
(5.50245 -0.0456098 2.04049e-20)
(5.4852 -0.04011 3.19464e-19)
(5.46652 -0.0329831 -1.94707e-20)
(5.44206 -0.0246252 -2.96372e-19)
(5.39873 -0.0149143 0)
(5.282 -0.00684357 1.14402e-20)
(4.87653 0.0325403 0)
(5.67485 0.0021907 -1.11638e-19)
(5.65874 -0.00920884 5.37268e-20)
(5.64459 -0.0175863 0)
(5.63096 -0.0247554 -4.27532e-19)
(5.61712 -0.0311071 0)
(5.60282 -0.0360285 3.79924e-19)
(5.588 -0.0395076 3.71743e-19)
(5.57273 -0.0415759 0)
(5.55717 -0.0421529 -3.10654e-19)
(5.54155 -0.0412394 -8.74978e-20)
(5.52616 -0.0390829 4.2663e-20)
(5.51098 -0.0355769 -3.31097e-19)
(5.49498 -0.0301825 0)
(5.47385 -0.0229177 0)
(5.43445 -0.0151764 0)
(5.32252 -0.00836813 -2.94186e-19)
(4.91911 0.0284049 -5.71959e-22)
(5.67688 0.0159654 -7.03409e-21)
(5.66232 0.00310689 6.78715e-21)
(5.64928 -0.00511792 -3.81642e-19)
(5.63711 -0.012213 -9.56462e-20)
(5.62516 -0.0186942 3.37332e-19)
(5.61312 -0.0240208 -2.98401e-19)
(5.60078 -0.0281717 -2.89724e-19)
(5.58805 -0.0310827 2.7027e-19)
(5.57495 -0.032708 4.55749e-19)
(5.56164 -0.0330897 4.44156e-22)
(5.54834 -0.0322633 -3.39489e-19)
(5.53509 -0.0301033 -4.16388e-19)
(5.52119 -0.0263776 -8.18217e-20)
(5.50285 -0.0212239 -2.38257e-19)
(5.46752 -0.0163374 3.10899e-19)
(5.36147 -0.0109505 0)
(4.9652 0.0236362 -2.9785e-19)
(5.67863 0.0257712 -4.41367e-19)
(5.66548 0.014843 0)
(5.65324 0.00755201 7.23247e-19)
(5.64206 0.000596594 -3.11894e-19)
(5.63149 -0.00586477 -1.20124e-19)
(5.62119 -0.0114333 9.42333e-20)
(5.61092 -0.0161081 -3.58244e-19)
(5.60045 -0.0198065 -1.80917e-20)
(5.5897 -0.0224615 0)
(5.57868 -0.0240612 1.72696e-19)
(5.56757 -0.0246316 3.4172e-19)
(5.55642 -0.0241709 3.32656e-19)
(5.54469 -0.0225254 -3.93918e-19)
(5.5291 -0.0195739 3.14443e-19)
(5.49783 -0.0155254 -8.00909e-20)
(5.39886 -0.0143243 2.58638e-19)
(5.01248 0.0147726 3.26301e-19)
(5.68065 0.039619 6.77984e-19)
(5.6683 0.0277425 1.05443e-19)
(5.65655 0.0206688 -3.20474e-19)
(5.6459 0.0137632 0)
(5.6361 0.00733546 -5.63355e-19)
(5.62692 0.00163 0)
(5.61811 -0.00340608 2.01073e-19)
(5.60939 -0.00771283 -5.19216e-19)
(5.60056 -0.0112193 -1.51334e-19)
(5.5915 -0.013891 -1.60373e-19)
(5.58232 -0.0157427 0)
(5.57307 -0.0167945 -1.42355e-19)
(5.5633 -0.0170459 5.70914e-21)
(5.55035 -0.0164778 -1.39469e-19)
(5.52294 -0.0132301 -2.91561e-19)
(5.43197 -0.0174893 -2.49213e-19)
(5.05766 0.00588784 -3.43386e-20)
(5.68222 0.0503453 -1.24755e-19)
(5.67053 0.0403936 -2.9683e-19)
(5.65921 0.0339521 -2.866e-19)
(5.64878 0.0272224 0)
(5.63916 0.0208603 1.80294e-19)
(5.63039 0.0150181 0)
(5.62228 0.00970787 4.8634e-19)
(5.61458 0.00497281 1.56129e-19)
(5.60701 0.000838821 1.64154e-19)
(5.59933 -0.00270554 1.47339e-19)
(5.5915 -0.00563646 -2.84609e-19)
(5.58354 -0.00786543 5.57316e-19)
(5.57514 -0.00979016 0)
(5.5642 -0.0114936 2.74175e-19)
(5.54011 -0.00872822 1.23116e-19)