/*--------------------------------*- C++ -*----------------------------------*\
  =========                 |
  \\      /  F ield         | OpenFOAM: The Open Source CFD Toolbox
   \\    /   O peration     | Website:  https://openfoam.org
    \\  /    A nd           | Version:  6
     \\/     M anipulation  |
\*---------------------------------------------------------------------------*/
FoamFile
{
    version     2.0;
    format      ascii;
    class       volVectorField;
    location    "2.67";
    object      U;
}
// * * * * * * * * * * * * * * * * * * * * * * * * * * * * * * * * * * * * * //

dimensions      [0 1 -1 0 0 0 0];

internalField   nonuniform List<vector> 
10000
(
(0.8944 0.4472 0)
(0.8944 0.4472 0)
(0.8944 0.4472 0)
(0.8944 0.4472 0)
(0.8944 0.4472 0)
(0.8944 0.4472 0)
(0.8944 0.4472 0)
(0.8944 0.4472 0)
(0.8944 0.4472 0)
(0.8944 0.4472 0)
(0.8944 0.4472 0)
(0.8944 0.4472 0)
(0.8944 0.4472 0)
(0.8944 0.4472 0)
(0.8944 0.4472 0)
(0.8944 0.4472 0)
(0.8944 0.4472 0)
(0.8944 0.4472 0)
(0.8944 0.4472 0)
(0.8944 0.4472 0)
(0.8944 0.4472 0)
(0.8944 0.4472 0)
(0.8944 0.4472 0)
(0.8944 0.4472 0)
(0.8944 0.4472 0)
(0.8944 0.4472 0)
(0.8944 0.4472 0)
(0.8944 0.4472 0)
(0.8944 0.4472 0)
(0.8944 0.4472 0)
(0.8944 0.4472 0)
(0.8944 0.4472 0)
(0.8944 0.4472 0)
(0.8944 0.4472 0)
(0.8944 0.4472 0)
(0.8944 0.4472 0)
(0.8944 0.4472 0)
(0.8944 0.4472 0)
(0.8944 0.4472 0)
(0.8944 0.4472 0)
(0.8944 0.4472 0)
(0.8944 0.4472 0)
(0.8944 0.4472 0)
(0.8944 0.4472 0)
(0.8944 0.4472 0)
(0.8944 0.4472 0)
(0.8944 0.447199 0)
(0.894401 0.447199 0)
(0.894401 0.447199 0)
(0.894401 0.447198 0)
(0.894401 0.447197 0)
(0.894401 0.447197 0)
(0.894401 0.447196 0)
(0.8944 0.447196 0)
(0.8944 0.447196 0)
(0.894399 0.447196 0)
(0.894399 0.447197 0)
(0.894398 0.447198 0)
(0.894398 0.447199 0)
(0.894398 0.447201 0)
(0.894398 0.447202 0)
(0.894399 0.447203 0)
(0.894399 0.447204 0)
(0.8944 0.447205 0)
(0.894401 0.447205 0)
(0.894401 0.447204 0)
(0.894401 0.447203 0)
(0.894402 0.447202 0)
(0.894402 0.447201 0)
(0.894401 0.4472 0)
(0.894401 0.447199 0)
(0.8944 0.447199 0)
(0.8944 0.447198 0)
(0.8944 0.447198 0)
(0.8944 0.447198 0)
(0.8944 0.447198 0)
(0.8944 0.447199 0)
(0.8944 0.447199 0)
(0.8944 0.447199 0)
(0.8944 0.4472 0)
(0.8944 0.4472 0)
(0.8944 0.4472 0)
(0.8944 0.4472 0)
(0.8944 0.4472 0)
(0.8944 0.4472 0)
(0.8944 0.4472 0)
(0.8944 0.4472 0)
(0.8944 0.4472 0)
(0.8944 0.4472 0)
(0.8944 0.4472 0)
(0.8944 0.4472 0)
(0.8944 0.4472 0)
(0.8944 0.4472 0)
(0.8944 0.4472 0)
(0.8944 0.4472 0)
(0.8944 0.4472 0)
(0.8944 0.4472 0)
(0.8944 0.4472 0)
(0.8944 0.4472 0)
(0.8944 0.4472 0)
(0.8944 0.4472 0)
(0.8944 0.4472 0)
(0.8944 0.4472 0)
(0.8944 0.4472 0)
(0.8944 0.4472 0)
(0.8944 0.4472 0)
(0.8944 0.4472 0)
(0.8944 0.4472 0)
(0.8944 0.4472 0)
(0.8944 0.4472 0)
(0.8944 0.4472 0)
(0.8944 0.4472 0)
(0.8944 0.4472 0)
(0.8944 0.4472 0)
(0.8944 0.4472 0)
(0.8944 0.4472 0)
(0.8944 0.4472 0)
(0.8944 0.4472 0)
(0.8944 0.4472 0)
(0.8944 0.4472 0)
(0.8944 0.4472 0)
(0.8944 0.4472 0)
(0.8944 0.4472 0)
(0.8944 0.4472 0)
(0.8944 0.4472 0)
(0.8944 0.4472 0)
(0.8944 0.4472 0)
(0.8944 0.4472 0)
(0.8944 0.4472 0)
(0.8944 0.4472 0)
(0.8944 0.4472 0)
(0.8944 0.4472 0)
(0.8944 0.4472 0)
(0.8944 0.4472 0)
(0.8944 0.4472 0)
(0.8944 0.4472 0)
(0.8944 0.4472 0)
(0.8944 0.4472 0)
(0.8944 0.4472 0)
(0.8944 0.4472 0)
(0.8944 0.4472 0)
(0.8944 0.4472 0)
(0.8944 0.4472 0)
(0.8944 0.4472 0)
(0.8944 0.4472 0)
(0.8944 0.4472 0)
(0.894401 0.447199 0)
(0.894401 0.447199 0)
(0.894401 0.447198 0)
(0.894401 0.447197 0)
(0.894401 0.447196 0)
(0.894401 0.447195 0)
(0.894401 0.447194 0)
(0.8944 0.447193 0)
(0.8944 0.447193 0)
(0.894398 0.447193 0)
(0.894397 0.447195 0)
(0.894396 0.447197 0)
(0.894396 0.447199 0)
(0.894396 0.447202 0)
(0.894396 0.447205 0)
(0.894397 0.447208 0)
(0.894399 0.447209 0)
(0.8944 0.44721 0)
(0.894401 0.44721 0)
(0.894402 0.447208 0)
(0.894403 0.447206 0)
(0.894403 0.447204 0)
(0.894403 0.447202 0)
(0.894402 0.4472 0)
(0.894402 0.447199 0)
(0.894401 0.447197 0)
(0.8944 0.447197 0)
(0.8944 0.447197 0)
(0.894399 0.447197 0)
(0.894399 0.447197 0)
(0.894399 0.447198 0)
(0.894399 0.447198 0)
(0.894399 0.447199 0)
(0.894399 0.447199 0)
(0.8944 0.447199 0)
(0.8944 0.4472 0)
(0.8944 0.4472 0)
(0.8944 0.4472 0)
(0.8944 0.4472 0)
(0.8944 0.4472 0)
(0.8944 0.4472 0)
(0.8944 0.4472 0)
(0.8944 0.4472 0)
(0.8944 0.4472 0)
(0.8944 0.4472 0)
(0.8944 0.4472 0)
(0.8944 0.4472 0)
(0.8944 0.4472 0)
(0.8944 0.4472 0)
(0.8944 0.4472 0)
(0.8944 0.4472 0)
(0.8944 0.4472 0)
(0.8944 0.4472 0)
(0.8944 0.4472 0)
(0.8944 0.4472 0)
(0.8944 0.4472 0)
(0.8944 0.4472 0)
(0.8944 0.4472 0)
(0.8944 0.4472 0)
(0.8944 0.4472 0)
(0.8944 0.4472 0)
(0.8944 0.4472 0)
(0.8944 0.4472 0)
(0.8944 0.4472 0)
(0.8944 0.4472 0)
(0.8944 0.4472 0)
(0.8944 0.4472 0)
(0.8944 0.4472 0)
(0.8944 0.4472 0)
(0.8944 0.4472 0)
(0.8944 0.4472 0)
(0.8944 0.4472 0)
(0.8944 0.4472 0)
(0.8944 0.4472 0)
(0.8944 0.4472 0)
(0.8944 0.4472 0)
(0.8944 0.4472 0)
(0.8944 0.4472 0)
(0.8944 0.4472 0)
(0.8944 0.4472 0)
(0.8944 0.4472 0)
(0.8944 0.4472 0)
(0.8944 0.4472 0)
(0.8944 0.4472 0)
(0.8944 0.4472 0)
(0.8944 0.4472 0)
(0.8944 0.4472 0)
(0.8944 0.4472 0)
(0.8944 0.4472 0)
(0.8944 0.4472 0)
(0.8944 0.4472 0)
(0.8944 0.4472 0)
(0.8944 0.4472 0)
(0.8944 0.4472 0)
(0.8944 0.4472 0)
(0.8944 0.4472 0)
(0.8944 0.4472 0)
(0.8944 0.4472 0)
(0.8944 0.4472 0)
(0.8944 0.4472 0)
(0.894401 0.447199 0)
(0.894401 0.447199 0)
(0.894402 0.447197 0)
(0.894402 0.447196 0)
(0.894402 0.447194 0)
(0.894402 0.447192 0)
(0.894402 0.44719 0)
(0.894401 0.447189 0)
(0.894399 0.447188 0)
(0.894397 0.447189 0)
(0.894395 0.447191 0)
(0.894393 0.447195 0)
(0.894392 0.4472 0)
(0.894392 0.447206 0)
(0.894393 0.447211 0)
(0.894395 0.447215 0)
(0.894398 0.447218 0)
(0.894401 0.447219 0)
(0.894403 0.447219 0)
(0.894405 0.447216 0)
(0.894406 0.447213 0)
(0.894406 0.447208 0)
(0.894406 0.447204 0)
(0.894405 0.4472 0)
(0.894403 0.447197 0)
(0.894402 0.447196 0)
(0.8944 0.447195 0)
(0.894399 0.447194 0)
(0.894399 0.447195 0)
(0.894398 0.447195 0)
(0.894398 0.447196 0)
(0.894399 0.447197 0)
(0.894399 0.447198 0)
(0.894399 0.447199 0)
(0.894399 0.447199 0)
(0.8944 0.447199 0)
(0.8944 0.4472 0)
(0.8944 0.4472 0)
(0.8944 0.4472 0)
(0.8944 0.4472 0)
(0.8944 0.4472 0)
(0.8944 0.4472 0)
(0.8944 0.4472 0)
(0.8944 0.4472 0)
(0.8944 0.4472 0)
(0.8944 0.4472 0)
(0.8944 0.4472 0)
(0.8944 0.4472 0)
(0.8944 0.4472 0)
(0.8944 0.4472 0)
(0.8944 0.4472 0)
(0.8944 0.4472 0)
(0.8944 0.4472 0)
(0.8944 0.4472 0)
(0.8944 0.4472 0)
(0.8944 0.4472 0)
(0.8944 0.4472 0)
(0.8944 0.4472 0)
(0.8944 0.4472 0)
(0.8944 0.4472 0)
(0.8944 0.4472 0)
(0.8944 0.4472 0)
(0.8944 0.4472 0)
(0.8944 0.4472 0)
(0.8944 0.4472 0)
(0.8944 0.4472 0)
(0.8944 0.4472 0)
(0.8944 0.4472 0)
(0.8944 0.4472 0)
(0.8944 0.4472 0)
(0.8944 0.4472 0)
(0.8944 0.4472 0)
(0.8944 0.4472 0)
(0.8944 0.4472 0)
(0.8944 0.4472 0)
(0.8944 0.4472 0)
(0.8944 0.4472 0)
(0.8944 0.4472 0)
(0.8944 0.4472 0)
(0.8944 0.4472 0)
(0.8944 0.4472 0)
(0.8944 0.4472 0)
(0.8944 0.4472 0)
(0.8944 0.4472 0)
(0.8944 0.4472 0)
(0.8944 0.4472 0)
(0.8944 0.4472 0)
(0.8944 0.4472 0)
(0.8944 0.4472 0)
(0.8944 0.4472 0)
(0.8944 0.4472 0)
(0.8944 0.4472 0)
(0.8944 0.4472 0)
(0.8944 0.4472 0)
(0.8944 0.4472 0)
(0.8944 0.4472 0)
(0.8944 0.4472 0)
(0.8944 0.4472 0)
(0.8944 0.4472 0)
(0.894401 0.4472 0)
(0.894401 0.447199 0)
(0.894402 0.447198 0)
(0.894403 0.447196 0)
(0.894403 0.447194 0)
(0.894404 0.447191 0)
(0.894404 0.447188 0)
(0.894403 0.447185 0)
(0.894401 0.447182 0)
(0.894398 0.447181 0)
(0.894394 0.447183 0)
(0.89439 0.447187 0)
(0.894387 0.447194 0)
(0.894385 0.447203 0)
(0.894385 0.447213 0)
(0.894387 0.447222 0)
(0.894391 0.44723 0)
(0.894396 0.447236 0)
(0.894402 0.447238 0)
(0.894407 0.447235 0)
(0.89441 0.447231 0)
(0.894412 0.447224 0)
(0.894412 0.447216 0)
(0.894411 0.447208 0)
(0.894408 0.447201 0)
(0.894405 0.447196 0)
(0.894403 0.447193 0)
(0.8944 0.447191 0)
(0.894399 0.447191 0)
(0.894398 0.447192 0)
(0.894397 0.447193 0)
(0.894397 0.447194 0)
(0.894398 0.447196 0)
(0.894398 0.447197 0)
(0.894398 0.447198 0)
(0.894399 0.447199 0)
(0.894399 0.447199 0)
(0.8944 0.447199 0)
(0.8944 0.4472 0)
(0.8944 0.4472 0)
(0.8944 0.4472 0)
(0.8944 0.4472 0)
(0.8944 0.4472 0)
(0.8944 0.4472 0)
(0.8944 0.4472 0)
(0.8944 0.4472 0)
(0.8944 0.4472 0)
(0.8944 0.4472 0)
(0.8944 0.4472 0)
(0.8944 0.4472 0)
(0.8944 0.4472 0)
(0.8944 0.4472 0)
(0.8944 0.4472 0)
(0.8944 0.4472 0)
(0.8944 0.4472 0)
(0.8944 0.4472 0)
(0.8944 0.4472 0)
(0.8944 0.4472 0)
(0.8944 0.4472 0)
(0.8944 0.4472 0)
(0.8944 0.4472 0)
(0.8944 0.4472 0)
(0.8944 0.4472 0)
(0.8944 0.4472 0)
(0.8944 0.4472 0)
(0.8944 0.4472 0)
(0.8944 0.4472 0)
(0.8944 0.4472 0)
(0.8944 0.4472 0)
(0.8944 0.4472 0)
(0.8944 0.4472 0)
(0.8944 0.4472 0)
(0.8944 0.4472 0)
(0.8944 0.4472 0)
(0.8944 0.4472 0)
(0.8944 0.4472 0)
(0.8944 0.4472 0)
(0.8944 0.4472 0)
(0.8944 0.4472 0)
(0.8944 0.4472 0)
(0.8944 0.4472 0)
(0.8944 0.4472 0)
(0.8944 0.4472 0)
(0.8944 0.4472 0)
(0.8944 0.4472 0)
(0.8944 0.4472 0)
(0.8944 0.4472 0)
(0.8944 0.4472 0)
(0.8944 0.4472 0)
(0.8944 0.4472 0)
(0.8944 0.4472 0)
(0.8944 0.4472 0)
(0.8944 0.4472 0)
(0.8944 0.4472 0)
(0.8944 0.4472 0)
(0.8944 0.4472 0)
(0.8944 0.4472 0)
(0.8944 0.4472 0)
(0.8944 0.4472 0)
(0.8944 0.4472 0)
(0.894401 0.4472 0)
(0.894401 0.447199 0)
(0.894403 0.447198 0)
(0.894404 0.447195 0)
(0.894405 0.447192 0)
(0.894406 0.447187 0)
(0.894406 0.447182 0)
(0.894404 0.447176 0)
(0.894401 0.447172 0)
(0.894395 0.447171 0)
(0.894389 0.447173 0)
(0.894382 0.447181 0)
(0.894376 0.447193 0)
(0.894373 0.447209 0)
(0.894373 0.447227 0)
(0.894377 0.447244 0)
(0.894384 0.447259 0)
(0.894394 0.447268 0)
(0.894404 0.447271 0)
(0.894412 0.447267 0)
(0.894419 0.447258 0)
(0.894422 0.447245 0)
(0.894422 0.44723 0)
(0.894419 0.447216 0)
(0.894414 0.447204 0)
(0.894409 0.447195 0)
(0.894404 0.44719 0)
(0.8944 0.447187 0)
(0.894397 0.447187 0)
(0.894396 0.447188 0)
(0.894396 0.44719 0)
(0.894396 0.447192 0)
(0.894396 0.447194 0)
(0.894397 0.447195 0)
(0.894398 0.447197 0)
(0.894398 0.447198 0)
(0.894399 0.447199 0)
(0.894399 0.447199 0)
(0.8944 0.4472 0)
(0.8944 0.4472 0)
(0.8944 0.4472 0)
(0.8944 0.4472 0)
(0.8944 0.4472 0)
(0.8944 0.4472 0)
(0.8944 0.4472 0)
(0.8944 0.4472 0)
(0.8944 0.4472 0)
(0.8944 0.4472 0)
(0.8944 0.4472 0)
(0.8944 0.4472 0)
(0.8944 0.4472 0)
(0.8944 0.4472 0)
(0.8944 0.4472 0)
(0.8944 0.4472 0)
(0.8944 0.4472 0)
(0.8944 0.4472 0)
(0.8944 0.4472 0)
(0.8944 0.4472 0)
(0.8944 0.4472 0)
(0.8944 0.4472 0)
(0.8944 0.4472 0)
(0.8944 0.4472 0)
(0.8944 0.4472 0)
(0.8944 0.4472 0)
(0.8944 0.4472 0)
(0.8944 0.4472 0)
(0.8944 0.4472 0)
(0.8944 0.4472 0)
(0.8944 0.4472 0)
(0.8944 0.4472 0)
(0.8944 0.4472 0)
(0.8944 0.4472 0)
(0.8944 0.4472 0)
(0.8944 0.4472 0)
(0.8944 0.4472 0)
(0.8944 0.4472 0)
(0.8944 0.4472 0)
(0.8944 0.4472 0)
(0.8944 0.4472 0)
(0.8944 0.4472 0)
(0.8944 0.4472 0)
(0.8944 0.4472 0)
(0.8944 0.4472 0)
(0.8944 0.4472 0)
(0.8944 0.4472 0)
(0.8944 0.4472 0)
(0.8944 0.4472 0)
(0.8944 0.4472 0)
(0.8944 0.4472 0)
(0.8944 0.4472 0)
(0.8944 0.4472 0)
(0.8944 0.4472 0)
(0.8944 0.4472 0)
(0.8944 0.4472 0)
(0.8944 0.4472 0)
(0.8944 0.4472 0)
(0.8944 0.4472 0)
(0.8944 0.4472 0)
(0.8944 0.4472 0)
(0.8944 0.4472 0)
(0.894401 0.4472 0)
(0.894402 0.447199 0)
(0.894404 0.447197 0)
(0.894406 0.447194 0)
(0.894408 0.447189 0)
(0.894409 0.447182 0)
(0.894409 0.447173 0)
(0.894406 0.447165 0)
(0.8944 0.447158 0)
(0.894391 0.447156 0)
(0.894379 0.447161 0)
(0.894366 0.447174 0)
(0.894355 0.447196 0)
(0.894349 0.447224 0)
(0.89435 0.447256 0)
(0.894357 0.447287 0)
(0.894371 0.447312 0)
(0.894388 0.447328 0)
(0.894407 0.447332 0)
(0.894423 0.447324 0)
(0.894434 0.447307 0)
(0.894439 0.447283 0)
(0.894438 0.447257 0)
(0.894433 0.447233 0)
(0.894424 0.447212 0)
(0.894415 0.447197 0)
(0.894406 0.447187 0)
(0.8944 0.447182 0)
(0.894395 0.447181 0)
(0.894393 0.447183 0)
(0.894393 0.447186 0)
(0.894393 0.447189 0)
(0.894394 0.447192 0)
(0.894395 0.447194 0)
(0.894397 0.447196 0)
(0.894398 0.447197 0)
(0.894398 0.447198 0)
(0.894399 0.447199 0)
(0.894399 0.447199 0)
(0.8944 0.4472 0)
(0.8944 0.4472 0)
(0.8944 0.4472 0)
(0.8944 0.4472 0)
(0.8944 0.4472 0)
(0.8944 0.4472 0)
(0.8944 0.4472 0)
(0.8944 0.4472 0)
(0.8944 0.4472 0)
(0.8944 0.4472 0)
(0.8944 0.4472 0)
(0.8944 0.4472 0)
(0.8944 0.4472 0)
(0.8944 0.4472 0)
(0.8944 0.4472 0)
(0.8944 0.4472 0)
(0.8944 0.4472 0)
(0.8944 0.4472 0)
(0.8944 0.4472 0)
(0.8944 0.4472 0)
(0.8944 0.4472 0)
(0.8944 0.4472 0)
(0.8944 0.4472 0)
(0.8944 0.4472 0)
(0.8944 0.4472 0)
(0.8944 0.4472 0)
(0.8944 0.4472 0)
(0.8944 0.4472 0)
(0.8944 0.4472 0)
(0.8944 0.4472 0)
(0.8944 0.4472 0)
(0.8944 0.4472 0)
(0.8944 0.4472 0)
(0.8944 0.4472 0)
(0.8944 0.4472 0)
(0.8944 0.4472 0)
(0.8944 0.4472 0)
(0.8944 0.4472 0)
(0.8944 0.4472 0)
(0.8944 0.4472 0)
(0.8944 0.4472 0)
(0.8944 0.4472 0)
(0.8944 0.4472 0)
(0.8944 0.4472 0)
(0.8944 0.4472 0)
(0.8944 0.4472 0)
(0.8944 0.4472 0)
(0.8944 0.4472 0)
(0.8944 0.4472 0)
(0.8944 0.4472 0)
(0.8944 0.4472 0)
(0.8944 0.4472 0)
(0.8944 0.4472 0)
(0.8944 0.4472 0)
(0.8944 0.4472 0)
(0.8944 0.4472 0)
(0.8944 0.4472 0)
(0.8944 0.4472 0)
(0.8944 0.4472 0)
(0.8944 0.4472 0)
(0.8944 0.447201 0)
(0.894401 0.4472 0)
(0.894403 0.447199 0)
(0.894405 0.447196 0)
(0.894408 0.447192 0)
(0.894411 0.447184 0)
(0.894414 0.447174 0)
(0.894413 0.447162 0)
(0.894409 0.447149 0)
(0.894398 0.44714 0)
(0.894382 0.447138 0)
(0.894361 0.447147 0)
(0.894338 0.447171 0)
(0.894319 0.44721 0)
(0.894308 0.447261 0)
(0.894309 0.447317 0)
(0.894322 0.44737 0)
(0.894347 0.447412 0)
(0.89438 0.447437 0)
(0.894412 0.447441 0)
(0.894441 0.447425 0)
(0.89446 0.447392 0)
(0.894468 0.44735 0)
(0.894466 0.447304 0)
(0.894455 0.447262 0)
(0.894441 0.447228 0)
(0.894425 0.447202 0)
(0.894411 0.447186 0)
(0.8944 0.447177 0)
(0.894393 0.447175 0)
(0.894389 0.447177 0)
(0.894389 0.447181 0)
(0.89439 0.447185 0)
(0.894392 0.44719 0)
(0.894393 0.447193 0)
(0.894395 0.447195 0)
(0.894397 0.447197 0)
(0.894398 0.447198 0)
(0.894399 0.447199 0)
(0.894399 0.447199 0)
(0.894399 0.4472 0)
(0.8944 0.4472 0)
(0.8944 0.4472 0)
(0.8944 0.4472 0)
(0.8944 0.4472 0)
(0.8944 0.4472 0)
(0.8944 0.4472 0)
(0.8944 0.4472 0)
(0.8944 0.4472 0)
(0.8944 0.4472 0)
(0.8944 0.4472 0)
(0.8944 0.4472 0)
(0.8944 0.4472 0)
(0.8944 0.4472 0)
(0.8944 0.4472 0)
(0.8944 0.4472 0)
(0.8944 0.4472 0)
(0.8944 0.4472 0)
(0.8944 0.4472 0)
(0.8944 0.4472 0)
(0.8944 0.4472 0)
(0.8944 0.4472 0)
(0.8944 0.4472 0)
(0.8944 0.4472 0)
(0.8944 0.4472 0)
(0.8944 0.4472 0)
(0.8944 0.4472 0)
(0.8944 0.4472 0)
(0.8944 0.4472 0)
(0.8944 0.4472 0)
(0.8944 0.4472 0)
(0.8944 0.4472 0)
(0.8944 0.4472 0)
(0.8944 0.4472 0)
(0.8944 0.4472 0)
(0.8944 0.4472 0)
(0.8944 0.4472 0)
(0.8944 0.4472 0)
(0.8944 0.4472 0)
(0.8944 0.4472 0)
(0.8944 0.4472 0)
(0.8944 0.4472 0)
(0.8944 0.4472 0)
(0.8944 0.4472 0)
(0.8944 0.4472 0)
(0.8944 0.4472 0)
(0.8944 0.4472 0)
(0.8944 0.4472 0)
(0.8944 0.4472 0)
(0.8944 0.4472 0)
(0.8944 0.4472 0)
(0.8944 0.4472 0)
(0.8944 0.4472 0)
(0.8944 0.4472 0)
(0.8944 0.4472 0)
(0.8944 0.4472 0)
(0.8944 0.4472 0)
(0.8944 0.4472 0)
(0.8944 0.4472 0)
(0.8944 0.447201 0)
(0.8944 0.447201 0)
(0.894402 0.447201 0)
(0.894404 0.447199 0)
(0.894407 0.447196 0)
(0.894412 0.44719 0)
(0.894417 0.447179 0)
(0.89442 0.447165 0)
(0.894419 0.447147 0)
(0.894412 0.447129 0)
(0.894393 0.447117 0)
(0.894365 0.447118 0)
(0.894327 0.447139 0)
(0.894287 0.447184 0)
(0.894253 0.447254 0)
(0.894234 0.447343 0)
(0.894236 0.447439 0)
(0.894261 0.447528 0)
(0.894306 0.447595 0)
(0.894364 0.44763 0)
(0.894422 0.447629 0)
(0.894471 0.447595 0)
(0.894504 0.447536 0)
(0.894517 0.447461 0)
(0.894511 0.447384 0)
(0.894492 0.447313 0)
(0.894467 0.447255 0)
(0.894441 0.447214 0)
(0.894419 0.447188 0)
(0.894402 0.447174 0)
(0.894391 0.447169 0)
(0.894385 0.44717 0)
(0.894384 0.447175 0)
(0.894385 0.44718 0)
(0.894388 0.447186 0)
(0.894391 0.447191 0)
(0.894394 0.447194 0)
(0.894396 0.447196 0)
(0.894397 0.447198 0)
(0.894398 0.447199 0)
(0.894399 0.447199 0)
(0.894399 0.4472 0)
(0.8944 0.4472 0)
(0.8944 0.4472 0)
(0.8944 0.4472 0)
(0.8944 0.4472 0)
(0.8944 0.4472 0)
(0.8944 0.4472 0)
(0.8944 0.4472 0)
(0.8944 0.4472 0)
(0.8944 0.4472 0)
(0.8944 0.4472 0)
(0.8944 0.4472 0)
(0.8944 0.4472 0)
(0.8944 0.4472 0)
(0.8944 0.4472 0)
(0.8944 0.4472 0)
(0.8944 0.4472 0)
(0.8944 0.4472 0)
(0.8944 0.4472 0)
(0.8944 0.4472 0)
(0.8944 0.4472 0)
(0.8944 0.4472 0)
(0.8944 0.4472 0)
(0.8944 0.4472 0)
(0.8944 0.4472 0)
(0.8944 0.4472 0)
(0.8944 0.4472 0)
(0.8944 0.4472 0)
(0.8944 0.4472 0)
(0.8944 0.4472 0)
(0.8944 0.4472 0)
(0.8944 0.4472 0)
(0.8944 0.4472 0)
(0.8944 0.4472 0)
(0.8944 0.4472 0)
(0.8944 0.4472 0)
(0.8944 0.4472 0)
(0.8944 0.4472 0)
(0.8944 0.4472 0)
(0.8944 0.4472 0)
(0.8944 0.4472 0)
(0.8944 0.4472 0)
(0.8944 0.4472 0)
(0.8944 0.4472 0)
(0.8944 0.4472 0)
(0.8944 0.4472 0)
(0.8944 0.4472 0)
(0.8944 0.4472 0)
(0.8944 0.4472 0)
(0.8944 0.4472 0)
(0.8944 0.4472 0)
(0.8944 0.4472 0)
(0.8944 0.4472 0)
(0.8944 0.4472 0)
(0.8944 0.4472 0)
(0.8944 0.4472 0)
(0.8944 0.4472 0)
(0.8944 0.4472 0)
(0.8944 0.447201 0)
(0.8944 0.447201 0)
(0.8944 0.447201 0)
(0.894402 0.447201 0)
(0.894405 0.4472 0)
(0.89441 0.447196 0)
(0.894417 0.447188 0)
(0.894424 0.447173 0)
(0.894429 0.447153 0)
(0.894427 0.447129 0)
(0.894412 0.447107 0)
(0.894381 0.447096 0)
(0.89433 0.447107 0)
(0.894265 0.447151 0)
(0.894195 0.447237 0)
(0.894136 0.447363 0)
(0.894103 0.447518 0)
(0.894109 0.447679 0)
(0.894156 0.447823 0)
(0.894237 0.447924 0)
(0.894337 0.447968 0)
(0.894439 0.447951 0)
(0.894521 0.44788 0)
(0.894575 0.447769 0)
(0.894595 0.44764 0)
(0.894584 0.44751 0)
(0.894553 0.447394 0)
(0.894509 0.447301 0)
(0.894465 0.447235 0)
(0.894429 0.447194 0)
(0.894404 0.447173 0)
(0.894389 0.447165 0)
(0.894381 0.447165 0)
(0.894378 0.447169 0)
(0.89438 0.447175 0)
(0.894383 0.447182 0)
(0.894387 0.447187 0)
(0.894391 0.447192 0)
(0.894394 0.447195 0)
(0.894396 0.447197 0)
(0.894398 0.447198 0)
(0.894399 0.447199 0)
(0.894399 0.447199 0)
(0.894399 0.4472 0)
(0.8944 0.4472 0)
(0.8944 0.4472 0)
(0.8944 0.4472 0)
(0.8944 0.4472 0)
(0.8944 0.4472 0)
(0.8944 0.4472 0)
(0.8944 0.4472 0)
(0.8944 0.4472 0)
(0.8944 0.4472 0)
(0.8944 0.4472 0)
(0.8944 0.4472 0)
(0.8944 0.4472 0)
(0.8944 0.4472 0)
(0.8944 0.4472 0)
(0.8944 0.4472 0)
(0.8944 0.4472 0)
(0.8944 0.4472 0)
(0.8944 0.4472 0)
(0.8944 0.4472 0)
(0.8944 0.4472 0)
(0.8944 0.4472 0)
(0.8944 0.4472 0)
(0.8944 0.4472 0)
(0.8944 0.4472 0)
(0.8944 0.4472 0)
(0.8944 0.4472 0)
(0.8944 0.4472 0)
(0.8944 0.4472 0)
(0.894399 0.4472 0)
(0.894401 0.447199 0)
(0.8944 0.447201 0)
(0.8944 0.447199 0)
(0.8944 0.447201 0)
(0.8944 0.447199 0)
(0.8944 0.447201 0)
(0.8944 0.4472 0)
(0.8944 0.4472 0)
(0.8944 0.4472 0)
(0.8944 0.4472 0)
(0.8944 0.4472 0)
(0.8944 0.4472 0)
(0.8944 0.4472 0)
(0.8944 0.4472 0)
(0.8944 0.4472 0)
(0.8944 0.4472 0)
(0.8944 0.4472 0)
(0.8944 0.4472 0)
(0.8944 0.4472 0)
(0.8944 0.4472 0)
(0.8944 0.4472 0)
(0.8944 0.4472 0)
(0.8944 0.4472 0)
(0.8944 0.4472 0)
(0.8944 0.4472 0)
(0.8944 0.4472 0)
(0.8944 0.4472 0)
(0.8944 0.447201 0)
(0.8944 0.447202 0)
(0.8944 0.447202 0)
(0.894402 0.447203 0)
(0.894406 0.447202 0)
(0.894413 0.447197 0)
(0.894423 0.447186 0)
(0.894433 0.447167 0)
(0.894439 0.447141 0)
(0.894434 0.447112 0)
(0.894407 0.447089 0)
(0.894352 0.447087 0)
(0.894263 0.447124 0)
(0.89415 0.447218 0)
(0.894029 0.447381 0)
(0.893928 0.447606 0)
(0.893875 0.447871 0)
(0.893889 0.448137 0)
(0.893976 0.448361 0)
(0.89412 0.448505 0)
(0.894294 0.448546 0)
(0.894465 0.448485 0)
(0.894603 0.448339 0)
(0.894687 0.448137 0)
(0.894715 0.447916 0)
(0.894695 0.447701 0)
(0.894644 0.447517 0)
(0.894576 0.447373 0)
(0.894506 0.44727 0)
(0.894447 0.447206 0)
(0.894408 0.447173 0)
(0.894385 0.44716 0)
(0.894375 0.44716 0)
(0.894373 0.447165 0)
(0.894375 0.447172 0)
(0.894379 0.447179 0)
(0.894384 0.447185 0)
(0.894388 0.44719 0)
(0.894392 0.447193 0)
(0.894395 0.447196 0)
(0.894397 0.447198 0)
(0.894398 0.447199 0)
(0.894399 0.447199 0)
(0.894399 0.4472 0)
(0.8944 0.4472 0)
(0.8944 0.4472 0)
(0.8944 0.4472 0)
(0.8944 0.4472 0)
(0.8944 0.4472 0)
(0.8944 0.4472 0)
(0.8944 0.4472 0)
(0.8944 0.4472 0)
(0.8944 0.4472 0)
(0.8944 0.4472 0)
(0.8944 0.4472 0)
(0.8944 0.4472 0)
(0.8944 0.4472 0)
(0.8944 0.4472 0)
(0.8944 0.4472 0)
(0.8944 0.4472 0)
(0.8944 0.4472 0)
(0.8944 0.4472 0)
(0.8944 0.4472 0)
(0.8944 0.4472 0)
(0.8944 0.4472 0)
(0.8944 0.4472 0)
(0.8944 0.4472 0)
(0.8944 0.4472 0)
(0.8944 0.4472 0)
(0.8944 0.4472 0)
(0.8944 0.4472 0)
(0.8944 0.4472 0)
(0.8944 0.447201 0)
(0.8944 0.447199 0)
(0.8944 0.447201 0)
(0.894399 0.447199 0)
(0.8944 0.447201 0)
(0.8944 0.447199 0)
(0.8944 0.4472 0)
(0.8944 0.4472 0)
(0.8944 0.4472 0)
(0.8944 0.4472 0)
(0.8944 0.4472 0)
(0.8944 0.4472 0)
(0.8944 0.4472 0)
(0.8944 0.4472 0)
(0.8944 0.4472 0)
(0.8944 0.4472 0)
(0.8944 0.4472 0)
(0.8944 0.4472 0)
(0.8944 0.4472 0)
(0.8944 0.4472 0)
(0.8944 0.4472 0)
(0.8944 0.4472 0)
(0.8944 0.4472 0)
(0.8944 0.4472 0)
(0.8944 0.4472 0)
(0.8944 0.4472 0)
(0.8944 0.4472 0)
(0.8944 0.4472 0)
(0.894399 0.447201 0)
(0.894399 0.447202 0)
(0.8944 0.447204 0)
(0.894402 0.447205 0)
(0.894407 0.447205 0)
(0.894417 0.447199 0)
(0.894431 0.447185 0)
(0.894445 0.447161 0)
(0.894451 0.44713 0)
(0.894437 0.4471 0)
(0.894387 0.447086 0)
(0.894288 0.447114 0)
(0.894134 0.447209 0)
(0.893938 0.447402 0)
(0.893732 0.447702 0)
(0.893563 0.448098 0)
(0.89348 0.448545 0)
(0.893514 0.448975 0)
(0.893673 0.449315 0)
(0.893929 0.449504 0)
(0.894226 0.449511 0)
(0.894511 0.449351 0)
(0.894733 0.449062 0)
(0.894863 0.448701 0)
(0.8949 0.448326 0)
(0.894861 0.44798 0)
(0.894773 0.447692 0)
(0.894669 0.447474 0)
(0.894568 0.447322 0)
(0.89448 0.447227 0)
(0.894417 0.447176 0)
(0.894381 0.447155 0)
(0.894367 0.447152 0)
(0.894365 0.447159 0)
(0.894369 0.447168 0)
(0.894374 0.447177 0)
(0.89438 0.447184 0)
(0.894386 0.447189 0)
(0.89439 0.447192 0)
(0.894393 0.447195 0)
(0.894396 0.447197 0)
(0.894398 0.447198 0)
(0.894399 0.447199 0)
(0.894399 0.4472 0)
(0.8944 0.4472 0)
(0.8944 0.4472 0)
(0.8944 0.4472 0)
(0.8944 0.4472 0)
(0.8944 0.4472 0)
(0.8944 0.4472 0)
(0.8944 0.4472 0)
(0.8944 0.4472 0)
(0.8944 0.4472 0)
(0.8944 0.4472 0)
(0.8944 0.4472 0)
(0.8944 0.4472 0)
(0.8944 0.4472 0)
(0.8944 0.4472 0)
(0.8944 0.4472 0)
(0.8944 0.4472 0)
(0.8944 0.4472 0)
(0.8944 0.4472 0)
(0.8944 0.4472 0)
(0.8944 0.4472 0)
(0.8944 0.4472 0)
(0.8944 0.4472 0)
(0.8944 0.4472 0)
(0.8944 0.4472 0)
(0.8944 0.4472 0)
(0.8944 0.4472 0)
(0.894401 0.4472 0)
(0.894398 0.4472 0)
(0.894402 0.4472 0)
(0.894398 0.447201 0)
(0.894401 0.4472 0)
(0.8944 0.4472 0)
(0.8944 0.4472 0)
(0.894401 0.447201 0)
(0.894399 0.4472 0)
(0.8944 0.4472 0)
(0.8944 0.4472 0)
(0.8944 0.4472 0)
(0.8944 0.4472 0)
(0.8944 0.4472 0)
(0.8944 0.4472 0)
(0.8944 0.4472 0)
(0.8944 0.4472 0)
(0.8944 0.4472 0)
(0.8944 0.4472 0)
(0.8944 0.4472 0)
(0.8944 0.4472 0)
(0.8944 0.4472 0)
(0.8944 0.4472 0)
(0.8944 0.4472 0)
(0.8944 0.4472 0)
(0.8944 0.4472 0)
(0.8944 0.4472 0)
(0.8944 0.4472 0)
(0.894399 0.4472 0)
(0.8944 0.447201 0)
(0.894399 0.447201 0)
(0.894399 0.447203 0)
(0.894399 0.447206 0)
(0.894402 0.447209 0)
(0.894409 0.447209 0)
(0.894422 0.447203 0)
(0.894441 0.447186 0)
(0.894458 0.447158 0)
(0.89446 0.447125 0)
(0.894427 0.447105 0)
(0.894334 0.447122 0)
(0.894157 0.447217 0)
(0.893891 0.44743 0)
(0.893555 0.4478 0)
(0.893207 0.448339 0)
(0.892927 0.449018 0)
(0.8928 0.449757 0)
(0.892878 0.45044 0)
(0.893167 0.450941 0)
(0.893613 0.451168 0)
(0.89412 0.451081 0)
(0.894587 0.450722 0)
(0.894937 0.450176 0)
(0.895131 0.449544 0)
(0.895176 0.448921 0)
(0.895103 0.448374 0)
(0.894959 0.447934 0)
(0.894797 0.447608 0)
(0.894648 0.447389 0)
(0.894526 0.447257 0)
(0.894436 0.447185 0)
(0.894382 0.447153 0)
(0.894359 0.447144 0)
(0.894354 0.44715 0)
(0.894359 0.447161 0)
(0.894367 0.447173 0)
(0.894377 0.447182 0)
(0.894383 0.447188 0)
(0.894389 0.447192 0)
(0.894392 0.447195 0)
(0.894395 0.447196 0)
(0.894397 0.447198 0)
(0.894398 0.447199 0)
(0.894399 0.447199 0)
(0.894399 0.4472 0)
(0.8944 0.4472 0)
(0.8944 0.4472 0)
(0.8944 0.4472 0)
(0.8944 0.4472 0)
(0.8944 0.4472 0)
(0.8944 0.4472 0)
(0.8944 0.4472 0)
(0.8944 0.4472 0)
(0.8944 0.4472 0)
(0.8944 0.4472 0)
(0.8944 0.4472 0)
(0.8944 0.4472 0)
(0.8944 0.4472 0)
(0.8944 0.4472 0)
(0.8944 0.4472 0)
(0.8944 0.4472 0)
(0.8944 0.4472 0)
(0.8944 0.4472 0)
(0.8944 0.4472 0)
(0.8944 0.4472 0)
(0.8944 0.4472 0)
(0.8944 0.447199 0)
(0.8944 0.4472 0)
(0.8944 0.447199 0)
(0.8944 0.447201 0)
(0.8944 0.447199 0)
(0.894399 0.447201 0)
(0.894401 0.447199 0)
(0.894399 0.447202 0)
(0.8944 0.447198 0)
(0.894401 0.447202 0)
(0.894399 0.447199 0)
(0.8944 0.447201 0)
(0.8944 0.4472 0)
(0.894399 0.4472 0)
(0.8944 0.4472 0)
(0.8944 0.4472 0)
(0.8944 0.4472 0)
(0.8944 0.4472 0)
(0.8944 0.4472 0)
(0.8944 0.4472 0)
(0.8944 0.4472 0)
(0.8944 0.4472 0)
(0.8944 0.4472 0)
(0.8944 0.4472 0)
(0.8944 0.4472 0)
(0.8944 0.4472 0)
(0.8944 0.4472 0)
(0.8944 0.4472 0)
(0.8944 0.4472 0)
(0.8944 0.4472 0)
(0.8944 0.4472 0)
(0.8944 0.4472 0)
(0.894399 0.447201 0)
(0.8944 0.447201 0)
(0.894399 0.447202 0)
(0.894398 0.447205 0)
(0.894398 0.447209 0)
(0.894401 0.447214 0)
(0.894411 0.447216 0)
(0.894429 0.44721 0)
(0.894453 0.447191 0)
(0.89447 0.447161 0)
(0.894461 0.447136 0)
(0.89439 0.447146 0)
(0.894216 0.447236 0)
(0.893904 0.447463 0)
(0.893446 0.447889 0)
(0.892876 0.448561 0)
(0.892295 0.44949 0)
(0.891835 0.450619 0)
(0.891641 0.451811 0)
(0.891801 0.452873 0)
(0.892317 0.453597 0)
(0.893085 0.453841 0)
(0.89394 0.453562 0)
(0.894699 0.452846 0)
(0.895242 0.451861 0)
(0.895527 0.450787 0)
(0.895572 0.449774 0)
(0.895446 0.448922 0)
(0.895225 0.448261 0)
(0.894974 0.447786 0)
(0.894751 0.447475 0)
(0.894581 0.44729 0)
(0.894462 0.447194 0)
(0.894388 0.447152 0)
(0.894353 0.44714 0)
(0.894344 0.447143 0)
(0.894348 0.447154 0)
(0.894359 0.447166 0)
(0.89437 0.447177 0)
(0.894379 0.447186 0)
(0.894387 0.447192 0)
(0.894391 0.447194 0)
(0.894394 0.447196 0)
(0.894396 0.447197 0)
(0.894398 0.447198 0)
(0.894399 0.447199 0)
(0.894399 0.447199 0)
(0.8944 0.4472 0)
(0.8944 0.4472 0)
(0.8944 0.4472 0)
(0.8944 0.4472 0)
(0.8944 0.4472 0)
(0.8944 0.4472 0)
(0.8944 0.4472 0)
(0.8944 0.4472 0)
(0.8944 0.4472 0)
(0.8944 0.4472 0)
(0.8944 0.4472 0)
(0.8944 0.4472 0)
(0.8944 0.4472 0)
(0.8944 0.4472 0)
(0.8944 0.4472 0)
(0.8944 0.4472 0)
(0.8944 0.4472 0)
(0.8944 0.4472 0)
(0.894401 0.4472 0)
(0.894399 0.4472 0)
(0.894401 0.4472 0)
(0.894399 0.447199 0)
(0.8944 0.447201 0)
(0.8944 0.4472 0)
(0.894401 0.4472 0)
(0.894398 0.4472 0)
(0.894402 0.447201 0)
(0.894398 0.4472 0)
(0.894402 0.4472 0)
(0.894399 0.4472 0)
(0.8944 0.447201 0)
(0.894399 0.447199 0)
(0.894401 0.447199 0)
(0.8944 0.447202 0)
(0.8944 0.447198 0)
(0.8944 0.447201 0)
(0.894401 0.4472 0)
(0.894399 0.4472 0)
(0.8944 0.4472 0)
(0.8944 0.4472 0)
(0.8944 0.4472 0)
(0.8944 0.4472 0)
(0.8944 0.4472 0)
(0.8944 0.4472 0)
(0.8944 0.4472 0)
(0.8944 0.4472 0)
(0.8944 0.4472 0)
(0.8944 0.4472 0)
(0.8944 0.4472 0)
(0.8944 0.4472 0)
(0.8944 0.4472 0)
(0.8944 0.4472 0)
(0.8944 0.4472 0)
(0.894399 0.447201 0)
(0.894399 0.447201 0)
(0.894398 0.447203 0)
(0.894397 0.447207 0)
(0.894396 0.447214 0)
(0.8944 0.447221 0)
(0.894413 0.447227 0)
(0.894436 0.44722 0)
(0.894465 0.447201 0)
(0.894479 0.447176 0)
(0.89444 0.447177 0)
(0.894295 0.447256 0)
(0.893979 0.447486 0)
(0.893437 0.447947 0)
(0.892658 0.448724 0)
(0.891704 0.449874 0)
(0.890736 0.451402 0)
(0.889982 0.453209 0)
(0.889681 0.455076 0)
(0.889982 0.45669 0)
(0.890878 0.457728 0)
(0.892184 0.457962 0)
(0.893602 0.457352 0)
(0.894831 0.456051 0)
(0.895675 0.454358 0)
(0.896088 0.452593 0)
(0.896127 0.450988 0)
(0.895918 0.449676 0)
(0.895582 0.448699 0)
(0.895215 0.448024 0)
(0.894892 0.447587 0)
(0.894652 0.44733 0)
(0.894491 0.447198 0)
(0.894394 0.447144 0)
(0.894345 0.447132 0)
(0.894334 0.447135 0)
(0.894339 0.447148 0)
(0.894352 0.447159 0)
(0.894362 0.447172 0)
(0.894374 0.447182 0)
(0.894383 0.447189 0)
(0.894389 0.447194 0)
(0.894393 0.447196 0)
(0.894396 0.447198 0)
(0.894397 0.447198 0)
(0.894398 0.447199 0)
(0.894399 0.447199 0)
(0.894399 0.4472 0)
(0.8944 0.4472 0)
(0.8944 0.4472 0)
(0.8944 0.4472 0)
(0.8944 0.4472 0)
(0.8944 0.4472 0)
(0.8944 0.4472 0)
(0.8944 0.4472 0)
(0.8944 0.4472 0)
(0.8944 0.4472 0)
(0.8944 0.4472 0)
(0.8944 0.4472 0)
(0.8944 0.4472 0)
(0.8944 0.4472 0)
(0.8944 0.4472 0)
(0.8944 0.4472 0)
(0.8944 0.4472 0)
(0.8944 0.447201 0)
(0.8944 0.447199 0)
(0.894399 0.447202 0)
(0.894402 0.447198 0)
(0.894398 0.447202 0)
(0.894402 0.447199 0)
(0.894399 0.4472 0)
(0.8944 0.447199 0)
(0.894399 0.447203 0)
(0.894402 0.447197 0)
(0.894397 0.447201 0)
(0.894402 0.447199 0)
(0.894399 0.447202 0)
(0.894399 0.447196 0)
(0.894403 0.447201 0)
(0.894398 0.447201 0)
(0.894399 0.4472 0)
(0.894401 0.447199 0)
(0.894399 0.4472 0)
(0.894402 0.447201 0)
(0.894399 0.447199 0)
(0.8944 0.4472 0)
(0.8944 0.4472 0)
(0.8944 0.4472 0)
(0.8944 0.4472 0)
(0.8944 0.4472 0)
(0.894401 0.4472 0)
(0.894399 0.447199 0)
(0.8944 0.447201 0)
(0.8944 0.4472 0)
(0.8944 0.4472 0)
(0.8944 0.4472 0)
(0.8944 0.4472 0)
(0.8944 0.4472 0)
(0.8944 0.447199 0)
(0.8944 0.447201 0)
(0.8944 0.447201 0)
(0.894398 0.447201 0)
(0.894396 0.447205 0)
(0.894395 0.44721 0)
(0.894394 0.44722 0)
(0.894398 0.447232 0)
(0.894413 0.447241 0)
(0.894443 0.447237 0)
(0.894476 0.447221 0)
(0.894475 0.447213 0)
(0.894378 0.447271 0)
(0.894098 0.447481 0)
(0.893537 0.447951 0)
(0.892613 0.448789 0)
(0.89131 0.450097 0)
(0.889731 0.451946 0)
(0.888133 0.454328 0)
(0.886896 0.457096 0)
(0.886411 0.459916 0)
(0.886932 0.462313 0)
(0.888438 0.463796 0)
(0.890609 0.464014 0)
(0.892936 0.462908 0)
(0.894921 0.460736 0)
(0.896244 0.457981 0)
(0.896853 0.455176 0)
(0.896888 0.452701 0)
(0.896551 0.450727 0)
(0.896048 0.449296 0)
(0.895528 0.448335 0)
(0.895076 0.447732 0)
(0.89474 0.447383 0)
(0.894525 0.447206 0)
(0.894401 0.447133 0)
(0.894339 0.447114 0)
(0.894317 0.447121 0)
(0.894326 0.447137 0)
(0.894341 0.447154 0)
(0.894357 0.447168 0)
(0.89437 0.447177 0)
(0.894379 0.447185 0)
(0.894386 0.447192 0)
(0.894392 0.447195 0)
(0.894395 0.447197 0)
(0.894397 0.447198 0)
(0.894398 0.447199 0)
(0.894399 0.447199 0)
(0.894399 0.4472 0)