/*--------------------------------*- C++ -*----------------------------------*\
  =========                 |
  \\      /  F ield         | OpenFOAM: The Open Source CFD Toolbox
   \\    /   O peration     | Website:  https://openfoam.org
    \\  /    A nd           | Version:  6
     \\/     M anipulation  |
\*---------------------------------------------------------------------------*/
FoamFile
{
    version     2.0;
    format      ascii;
    class       volScalarField;
    location    "1.92";
    object      mag(U);
}
// * * * * * * * * * * * * * * * * * * * * * * * * * * * * * * * * * * * * * //

dimensions      [0 1 -1 0 0 0 0];

internalField   nonuniform List<scalar> 
10000
(
0.99997
0.99997
0.99997
0.99997
0.99997
0.99997
0.99997
0.99997
0.99997
0.99997
0.99997
0.99997
0.99997
0.99997
0.99997
0.99997
0.99997
0.99997
0.99997
0.99997
0.99997
0.99997
0.99997
0.99997
0.99997
0.99997
0.99997
0.99997
0.99997
0.99997
0.99997
0.99997
0.99997
0.99997
0.99997
0.99997
0.99997
0.99997
0.99997
0.99997
0.99997
0.99997
0.99997
0.99997
0.99997
0.99997
0.99997
0.99997
0.99997
0.99997
0.99997
0.99997
0.99997
0.99997
0.99997
0.99997
0.99997
0.99997
0.99997
0.99997
0.99997
0.99997
0.99997
0.99997
0.99997
0.99997
0.99997
0.99997
0.99997
0.99997
0.99997
0.99997
0.99997
0.99997
0.99997
0.99997
0.99997
0.99997
0.99997
0.99997
0.99997
0.99997
0.99997
0.99997
0.99997
0.99997
0.99997
0.99997
0.99997
0.99997
0.99997
0.99997
0.99997
0.99997
0.99997
0.99997
0.99997
0.99997
0.99997
0.99997
0.99997
0.99997
0.99997
0.99997
0.99997
0.99997
0.99997
0.99997
0.99997
0.99997
0.99997
0.99997
0.99997
0.99997
0.99997
0.99997
0.99997
0.99997
0.99997
0.99997
0.99997
0.99997
0.99997
0.99997
0.99997
0.99997
0.99997
0.99997
0.99997
0.99997
0.99997
0.99997
0.99997
0.99997
0.99997
0.99997
0.99997
0.99997
0.99997
0.99997
0.99997
0.99997
0.99997
0.99997
0.99997
0.99997
0.99997
0.99997
0.99997
0.99997
0.99997
0.99997
0.999969
0.999969
0.99997
0.99997
0.99997
0.99997
0.99997
0.99997
0.99997
0.99997
0.99997
0.99997
0.99997
0.99997
0.99997
0.99997
0.99997
0.99997
0.99997
0.99997
0.99997
0.99997
0.99997
0.99997
0.99997
0.99997
0.99997
0.99997
0.99997
0.99997
0.99997
0.99997
0.99997
0.99997
0.99997
0.99997
0.99997
0.99997
0.99997
0.99997
0.99997
0.99997
0.99997
0.99997
0.99997
0.99997
0.99997
0.99997
0.99997
0.99997
0.99997
0.99997
0.99997
0.99997
0.99997
0.99997
0.99997
0.99997
0.99997
0.99997
0.99997
0.99997
0.99997
0.99997
0.99997
0.99997
0.99997
0.99997
0.99997
0.99997
0.99997
0.99997
0.99997
0.99997
0.99997
0.99997
0.99997
0.99997
0.99997
0.99997
0.99997
0.99997
0.99997
0.99997
0.99997
0.99997
0.99997
0.99997
0.99997
0.99997
0.99997
0.99997
0.99997
0.99997
0.99997
0.99997
0.99997
0.999969
0.999969
0.999969
0.999969
0.999969
0.999969
0.999969
0.99997
0.99997
0.99997
0.99997
0.99997
0.99997
0.99997
0.99997
0.99997
0.99997
0.99997
0.99997
0.99997
0.99997
0.99997
0.99997
0.99997
0.99997
0.99997
0.99997
0.99997
0.99997
0.99997
0.99997
0.99997
0.99997
0.99997
0.99997
0.99997
0.99997
0.99997
0.99997
0.99997
0.99997
0.99997
0.99997
0.99997
0.99997
0.99997
0.99997
0.99997
0.99997
0.99997
0.99997
0.99997
0.99997
0.99997
0.99997
0.99997
0.99997
0.99997
0.99997
0.99997
0.99997
0.99997
0.99997
0.99997
0.99997
0.99997
0.99997
0.99997
0.99997
0.99997
0.99997
0.99997
0.99997
0.99997
0.99997
0.99997
0.99997
0.99997
0.99997
0.99997
0.99997
0.99997
0.99997
0.99997
0.99997
0.99997
0.99997
0.99997
0.99997
0.99997
0.99997
0.99997
0.99997
0.99997
0.99997
0.99997
0.99997
0.99997
0.999969
0.999969
0.999969
0.999969
0.999969
0.999969
0.999969
0.999969
0.999969
0.999969
0.999969
0.999969
0.999969
0.99997
0.99997
0.99997
0.99997
0.99997
0.99997
0.99997
0.99997
0.99997
0.99997
0.99997
0.99997
0.99997
0.99997
0.99997
0.99997
0.99997
0.99997
0.99997
0.99997
0.99997
0.99997
0.99997
0.99997
0.99997
0.99997
0.99997
0.99997
0.99997
0.99997
0.99997
0.99997
0.99997
0.99997
0.99997
0.99997
0.99997
0.99997
0.99997
0.99997
0.99997
0.99997
0.99997
0.99997
0.99997
0.99997
0.99997
0.99997
0.99997
0.99997
0.99997
0.99997
0.99997
0.99997
0.99997
0.99997
0.99997
0.99997
0.99997
0.99997
0.99997
0.99997
0.99997
0.99997
0.99997
0.99997
0.99997
0.99997
0.99997
0.99997
0.99997
0.99997
0.99997
0.99997
0.99997
0.99997
0.99997
0.99997
0.99997
0.99997
0.99997
0.99997
0.99997
0.99997
0.99997
0.999969
0.999969
0.999969
0.999969
0.99997
0.999969
0.999969
0.999968
0.999968
0.999969
0.999968
0.999968
0.999968
0.999969
0.999969
0.99997
0.99997
0.99997
0.999971
0.99997
0.99997
0.99997
0.99997
0.99997
0.99997
0.99997
0.99997
0.99997
0.99997
0.99997
0.99997
0.99997
0.99997
0.99997
0.99997
0.99997
0.99997
0.99997
0.99997
0.99997
0.99997
0.99997
0.99997
0.99997
0.99997
0.99997
0.99997
0.99997
0.99997
0.99997
0.99997
0.99997
0.99997
0.99997
0.99997
0.99997
0.99997
0.99997
0.99997
0.99997
0.99997
0.99997
0.99997
0.99997
0.99997
0.99997
0.99997
0.99997
0.99997
0.99997
0.99997
0.99997
0.99997
0.99997
0.99997
0.99997
0.99997
0.99997
0.99997
0.99997
0.99997
0.99997
0.99997
0.99997
0.99997
0.99997
0.99997
0.99997
0.99997
0.99997
0.99997
0.99997
0.99997
0.99997
0.99997
0.99997
0.99997
0.99997
0.99997
0.99997
0.99997
0.99997
0.99997
0.99997
0.999969
0.999969
0.999968
0.999967
0.999967
0.999967
0.999967
0.999967
0.999967
0.999968
0.999969
0.999969
0.99997
0.99997
0.999971
0.999971
0.999971
0.999972
0.999972
0.999971
0.999971
0.999971
0.99997
0.99997
0.99997
0.99997
0.99997
0.99997
0.99997
0.99997
0.99997
0.99997
0.99997
0.99997
0.99997
0.99997
0.99997
0.99997
0.99997
0.99997
0.99997
0.99997
0.99997
0.99997
0.99997
0.99997
0.99997
0.99997
0.99997
0.99997
0.99997
0.99997
0.99997
0.99997
0.99997
0.99997
0.99997
0.99997
0.99997
0.99997
0.99997
0.99997
0.99997
0.99997
0.99997
0.99997
0.99997
0.99997
0.99997
0.99997
0.99997
0.99997
0.99997
0.99997
0.99997
0.99997
0.99997
0.99997
0.99997
0.99997
0.99997
0.99997
0.99997
0.99997
0.99997
0.99997
0.99997
0.99997
0.99997
0.99997
0.99997
0.99997
0.99997
0.99997
0.999969
0.999969
0.99997
0.99997
0.999969
0.999969
0.999968
0.999968
0.999967
0.999966
0.999965
0.999965
0.999964
0.999965
0.999965
0.999966
0.999967
0.999969
0.99997
0.999971
0.999972
0.999973
0.999974
0.999973
0.999973
0.999972
0.999972
0.999971
0.999971
0.999971
0.99997
0.99997
0.99997
0.99997
0.99997
0.99997
0.99997
0.99997
0.99997
0.99997
0.99997
0.99997
0.99997
0.99997
0.99997
0.99997
0.99997
0.99997
0.99997
0.99997
0.99997
0.99997
0.99997
0.99997
0.99997
0.99997
0.99997
0.99997
0.99997
0.99997
0.99997
0.99997
0.99997
0.99997
0.99997
0.99997
0.99997
0.99997
0.99997
0.99997
0.99997
0.99997
0.99997
0.99997
0.99997
0.99997
0.99997
0.99997
0.99997
0.99997
0.99997
0.99997
0.99997
0.99997
0.99997
0.99997
0.99997
0.99997
0.99997
0.99997
0.99997
0.99997
0.99997
0.99997
0.99997
0.99997
0.99997
0.99997
0.99997
0.99997
0.99997
0.99997
0.99997
0.99997
0.999969
0.999969
0.999968
0.999967
0.999966
0.999963
0.999962
0.999961
0.99996
0.99996
0.999962
0.999963
0.999966
0.999968
0.99997
0.999972
0.999973
0.999975
0.999975
0.999975
0.999975
0.999974
0.999973
0.999972
0.999971
0.999971
0.999971
0.99997
0.99997
0.99997
0.99997
0.99997
0.99997
0.99997
0.99997
0.99997
0.99997
0.99997
0.99997
0.99997
0.99997
0.99997
0.99997
0.99997
0.99997
0.99997
0.99997
0.99997
0.99997
0.99997
0.99997
0.99997
0.99997
0.99997
0.99997
0.99997
0.99997
0.99997
0.99997
0.99997
0.99997
0.99997
0.99997
0.99997
0.99997
0.99997
0.99997
0.99997
0.99997
0.99997
0.99997
0.99997
0.99997
0.99997
0.99997
0.99997
0.99997
0.99997
0.99997
0.99997
0.99997
0.99997
0.99997
0.99997
0.99997
0.99997
0.99997
0.99997
0.99997
0.99997
0.99997
0.99997
0.99997
0.99997
0.99997
0.99997
0.99997
0.99997
0.99997
0.99997
0.999969
0.999968
0.999966
0.999964
0.999962
0.999959
0.999958
0.999955
0.999954
0.999954
0.999955
0.999958
0.99996
0.999965
0.999969
0.999973
0.999975
0.999977
0.999978
0.999978
0.999978
0.999976
0.999975
0.999974
0.999973
0.999971
0.999971
0.999971
0.99997
0.99997
0.99997
0.99997
0.99997
0.99997
0.99997
0.99997
0.99997
0.99997
0.99997
0.99997
0.99997
0.99997
0.99997
0.99997
0.99997
0.99997
0.99997
0.99997
0.99997
0.99997
0.99997
0.99997
0.99997
0.99997
0.99997
0.99997
0.99997
0.99997
0.99997
0.99997
0.99997
0.99997
0.99997
0.99997
0.99997
0.99997
0.99997
0.99997
0.99997
0.99997
0.99997
0.99997
0.99997
0.99997
0.99997
0.99997
0.99997
0.99997
0.99997
0.99997
0.99997
0.99997
0.99997
0.99997
0.99997
0.99997
0.99997
0.99997
0.99997
0.99997
0.99997
0.99997
0.99997
0.99997
0.99997
0.99997
0.99997
0.99997
0.99997
0.99997
0.999969
0.999967
0.999964
0.999962
0.999957
0.999953
0.999948
0.999945
0.999942
0.999942
0.999944
0.999948
0.999953
0.99996
0.999966
0.999972
0.999977
0.99998
0.999982
0.999983
0.999982
0.99998
0.999978
0.999977
0.999975
0.999973
0.999972
0.999971
0.999971
0.99997
0.99997
0.99997
0.99997
0.99997
0.99997
0.99997
0.99997
0.99997
0.99997
0.99997
0.99997
0.99997
0.99997
0.99997
0.99997
0.99997
0.99997
0.99997
0.99997
0.99997
0.99997
0.99997
0.99997
0.99997
0.99997
0.99997
0.99997
0.99997
0.99997
0.99997
0.99997
0.99997
0.99997
0.99997
0.99997
0.99997
0.99997
0.99997
0.99997
0.99997
0.99997
0.99997
0.99997
0.99997
0.99997
0.99997
0.99997
0.99997
0.99997
0.99997
0.99997
0.99997
0.99997
0.99997
0.99997
0.99997
0.99997
0.99997
0.99997
0.99997
0.99997
0.99997
0.99997
0.99997
0.99997
0.99997
0.99997
0.999971
0.999971
0.99997
0.999968
0.999966
0.999962
0.999956
0.999949
0.999941
0.999934
0.999927
0.999923
0.999923
0.999925
0.999931
0.999939
0.99995
0.999961
0.99997
0.999978
0.999984
0.999987
0.999988
0.999987
0.999985
0.999983
0.999979
0.999977
0.999975
0.999973
0.999972
0.999971
0.99997
0.99997
0.99997
0.99997
0.99997
0.99997
0.99997
0.99997
0.99997
0.99997
0.99997
0.99997
0.99997
0.99997
0.99997
0.99997
0.99997
0.99997
0.99997
0.99997
0.99997
0.99997
0.99997
0.99997
0.99997
0.99997
0.99997
0.99997
0.99997
0.99997
0.99997
0.99997
0.99997
0.99997
0.99997
0.99997
0.99997
0.99997
0.99997
0.99997
0.99997
0.99997
0.99997
0.99997
0.99997
0.99997
0.99997
0.99997
0.99997
0.99997
0.99997
0.99997
0.99997
0.99997
0.99997
0.99997
0.99997
0.99997
0.99997
0.99997
0.99997
0.99997
0.99997
0.99997
0.99997
0.99997
0.999971
0.999972
0.999972
0.999971
0.99997
0.999967
0.999963
0.999956
0.999946
0.999935
0.999922
0.999909
0.999898
0.999891
0.999889
0.999892
0.999901
0.999914
0.999931
0.999948
0.999965
0.999977
0.999987
0.999993
0.999996
0.999995
0.999992
0.999989
0.999984
0.99998
0.999977
0.999974
0.999972
0.999971
0.99997
0.99997
0.99997
0.99997
0.99997
0.99997
0.99997
0.99997
0.99997
0.99997
0.99997
0.99997
0.99997
0.99997
0.99997
0.99997
0.99997
0.99997
0.99997
0.99997
0.99997
0.99997
0.99997
0.99997
0.99997
0.99997
0.99997
0.99997
0.99997
0.99997
0.99997
0.99997
0.99997
0.99997
0.99997
0.99997
0.99997
0.99997
0.99997
0.99997
0.99997
0.99997
0.99997
0.99997
0.99997
0.99997
0.99997
0.99997
0.99997
0.99997
0.99997
0.99997
0.99997
0.99997
0.99997
0.99997
0.99997
0.99997
0.99997
0.99997
0.99997
0.99997
0.99997
0.99997
0.999971
0.999971
0.999972
0.999973
0.999973
0.999972
0.99997
0.999966
0.999958
0.999946
0.99993
0.999911
0.999889
0.999868
0.999849
0.999836
0.999831
0.999836
0.999849
0.99987
0.999895
0.999923
0.999949
0.999972
0.999989
0.999999
1
1
1
0.999996
0.999991
0.999985
0.99998
0.999977
0.999974
0.999972
0.99997
0.99997
0.99997
0.99997
0.99997
0.99997
0.99997
0.99997
0.99997
0.99997
0.99997
0.99997
0.99997
0.99997
0.99997
0.99997
0.99997
0.99997
0.99997
0.99997
0.99997
0.99997
0.99997
0.99997
0.99997
0.99997
0.99997
0.99997
0.99997
0.99997
0.99997
0.99997
0.99997
0.99997
0.99997
0.99997
0.99997
0.99997
0.99997
0.99997
0.99997
0.99997
0.99997
0.99997
0.99997
0.99997
0.99997
0.99997
0.99997
0.99997
0.99997
0.99997
0.99997
0.99997
0.99997
0.99997
0.99997
0.99997
0.99997
0.99997
0.99997
0.99997
0.99997
0.99997
0.999971
0.999972
0.999973
0.999974
0.999974
0.999974
0.99997
0.999962
0.999949
0.999929
0.999903
0.99987
0.999834
0.999798
0.999767
0.999745
0.999734
0.99974
0.999759
0.999792
0.999832
0.999876
0.999919
0.999955
0.999984
1
1.00001
1.00002
1.00001
1.00001
0.999999
0.999991
0.999984
0.999979
0.999975
0.999973
0.99997
0.99997
0.999969
0.99997
0.99997
0.99997
0.99997
0.99997
0.99997
0.99997
0.99997
0.99997
0.99997
0.99997
0.99997
0.99997
0.99997
0.99997
0.99997
0.99997
0.99997
0.99997
0.99997
0.99997
0.99997
0.99997
0.99997
0.99997
0.99997
0.99997
0.99997
0.99997
0.99997
0.99997
0.99997
0.99997
0.99997
0.99997
0.99997
0.99997
0.99997
0.99997
0.99997
0.99997
0.99997
0.99997
0.99997
0.99997
0.99997
0.99997
0.99997
0.99997
0.99997
0.99997
0.99997
0.99997
0.99997
0.99997
0.99997
0.99997
0.99997
0.999969
0.99997
0.99997
0.999971
0.999973
0.999974
0.999975
0.999975
0.999974
0.999968
0.999955
0.999931
0.999899
0.999854
0.999802
0.999742
0.999682
0.99963
0.999593
0.999574
0.999579
0.999609
0.999658
0.999721
0.999791
0.999859
0.999919
0.999967
1
1.00002
1.00003
1.00002
1.00002
1.00001
0.999998
0.999989
0.999981
0.999976
0.999973
0.999971
0.99997
0.999969
0.999969
0.999969
0.99997
0.99997
0.99997
0.99997
0.99997
0.99997
0.99997
0.99997
0.99997
0.99997
0.99997
0.99997
0.99997
0.99997
0.99997
0.99997
0.99997
0.99997
0.99997
0.99997
0.99997
0.99997
0.99997
0.99997
0.99997
0.99997
0.99997
0.99997
0.99997
0.99997
0.99997
0.99997
0.99997
0.99997
0.99997
0.99997
0.99997
0.99997
0.99997
0.99997
0.99997
0.99997
0.99997
0.99997
0.99997
0.99997
0.99997
0.99997
0.99997
0.99997
0.99997
0.99997
0.99997
0.99997
0.999969
0.999969
0.99997
0.999971
0.99997
0.999971
0.999974
0.999976
0.999977
0.999978
0.999973
0.999962
0.999939
0.999901
0.999847
0.999774
0.999687
0.999589
0.999491
0.999404
0.99934
0.999308
0.999313
0.999355
0.999431
0.99953
0.999639
0.999749
0.999845
0.999925
0.999981
1.00002
1.00003
1.00004
1.00003
1.00002
1
0.999993
0.999984
0.999977
0.999973
0.999971
0.999969
0.999969
0.999969
0.999969
0.999969
0.99997
0.99997
0.99997
0.99997
0.99997
0.99997
0.99997
0.99997
0.99997
0.99997
0.99997
0.99997
0.99997
0.99997
0.99997
0.99997
0.99997
0.99997
0.99997
0.99997
0.99997
0.99997
0.99997
0.99997
0.99997
0.99997
0.99997
0.99997
0.99997
0.99997
0.99997
0.99997
0.99997
0.99997
0.99997
0.99997
0.99997
0.99997
0.99997
0.99997
0.99997
0.99997
0.99997
0.99997
0.99997
0.99997
0.99997
0.99997
0.99997
0.99997
0.99997
0.99997
0.999969
0.999969
0.99997
0.999969
0.99997
0.99997
0.999972
0.999975
0.999977
0.999979
0.999978
0.999968
0.999948
0.999909
0.999847
0.999756
0.999637
0.999492
0.999334
0.999174
0.999032
0.998925
0.998869
0.998872
0.998936
0.999053
0.999207
0.999381
0.999553
0.99971
0.999838
0.999934
0.999997
1.00003
1.00004
1.00004
1.00003
1.00001
0.999997
0.999986
0.999978
0.999972
0.999969
0.999968
0.999967
0.999967
0.999968
0.999968
0.999968
0.99997
0.99997
0.99997
0.99997
0.99997
0.99997
0.99997
0.99997
0.99997
0.99997
0.99997
0.99997
0.99997
0.99997
0.99997
0.99997
0.99997
0.99997
0.99997
0.99997
0.99997
0.99997
0.99997
0.99997
0.99997
0.99997
0.99997
0.99997
0.99997
0.99997
0.99997
0.99997
0.99997
0.99997
0.99997
0.99997
0.99997
0.99997
0.99997
0.99997
0.99997
0.99997
0.99997
0.99997
0.99997
0.99997
0.99997
0.99997
0.99997
0.99997
0.999969
0.999969
0.99997
0.999969
0.999969
0.999969
0.99997
0.999973
0.999975
0.999978
0.999979
0.999975
0.999958
0.999921
0.999854
0.99975
0.999601
0.999407
0.999173
0.998916
0.998657
0.998427
0.998253
0.99816
0.99816
0.998256
0.998437
0.998677
0.99895
0.999223
0.999472
0.99968
0.999838
0.999946
1.00001
1.00004
1.00004
1.00003
1.00002
1
0.999987
0.999976
0.99997
0.999966
0.999965
0.999966
0.999966
0.999966
0.999968
0.999968
0.999968
0.99997
0.99997
0.99997
0.99997
0.99997
0.99997
0.99997
0.99997
0.99997
0.99997
0.99997
0.99997
0.99997
0.99997
0.99997
0.99997
0.99997
0.99997
0.99997
0.99997
0.99997
0.99997
0.99997
0.99997
0.99997
0.99997
0.99997
0.99997
0.99997
0.99997
0.99997
0.99997
0.99997
0.99997
0.99997
0.99997
0.99997
0.99997
0.99997
0.99997
0.99997
0.99997
0.99997
0.99997
0.99997
0.99997
0.99997
0.99997
0.999969
0.999969
0.999969
0.999969
0.999968
0.999968
0.999969
0.99997
0.999972
0.999975
0.999978
0.999976
0.999964
0.999932
0.999868
0.999756
0.999583
0.999339
0.999024
0.998647
0.998234
0.997822
0.997454
0.997176
0.997024
0.99702
0.997167
0.997447
0.997823
0.998249
0.998679
0.999073
0.999406
0.999662
0.999841
0.999953
1.00001
1.00003
1.00003
1.00002
0.999999
0.999983
0.999972
0.999966
0.999962
0.999961
0.999962
0.999963
0.999965
0.999966
0.999967
0.999968
0.999968
0.99997
0.99997
0.99997
0.99997
0.99997
0.99997
0.99997
0.99997
0.99997
0.99997
0.99997
0.99997
0.99997
0.99997
0.99997
0.99997
0.99997
0.99997
0.99997
0.99997
0.99997
0.99997
0.99997
0.99997
0.99997
0.99997
0.99997
0.99997
0.99997
0.99997
0.99997
0.99997
0.99997
0.99997
0.99997
0.99997
0.99997
0.99997
0.99997
0.99997
0.99997
0.99997
0.99997
0.99997
0.99997
0.99997
0.999969
0.999969
0.999969
0.999969
0.999969
0.999967
0.999967
0.999967
0.999969
0.99997
0.999974
0.999974
0.999966
0.999941
0.999884
0.999772
0.999585
0.999302
0.998907
0.998401
0.997801
0.997147
0.996496
0.995916
0.995477
0.995237
0.995229
0.995457
0.995891
0.996477
0.997142
0.997814
0.998432
0.998955
0.999363
0.999656
0.999846
0.999954
1
1.00001
1.00001
0.999991
0.999976
0.999964
0.999957
0.999955
0.999955
0.999957
0.999959
0.999962
0.999964
0.999966
0.999967
0.999968
0.999968
0.99997
0.99997
0.99997
0.99997
0.99997
0.99997
0.99997
0.99997
0.99997
0.99997
0.99997
0.99997
0.99997
0.99997
0.99997
0.99997
0.99997
0.99997
0.99997
0.99997
0.99997
0.99997
0.99997
0.99997
0.99997
0.99997
0.99997
0.99997
0.99997
0.99997
0.99997
0.99997
0.99997
0.99997
0.99997
0.99997
0.99997
0.99997
0.99997
0.99997
0.99997
0.99997
0.99997
0.99997
0.99997
0.999969
0.999969
0.999969
0.999967
0.999968
0.999966
0.999965
0.999965
0.999965
0.999967
0.999968
0.999964
0.999945
0.999896
0.999794
0.999606
0.999299
0.99884
0.998209
0.997407
0.996463
0.99544
0.994424
0.993522
0.992841
0.992468
0.992457
0.992813
0.99349
0.9944
0.995431
0.996473
0.997432
0.998247
0.998887
0.999352
0.999662
0.999847
0.999942
0.999979
0.999983
0.999973
0.99996
0.999949
0.999944
0.999943
0.999945
0.99995
0.999954
0.999958
0.999962
0.999964
0.999967
0.999967
0.999968
0.99997
0.99997
0.99997
0.99997
0.99997
0.99997
0.99997
0.99997
0.99997
0.99997
0.99997
0.99997
0.99997
0.99997
0.99997
0.99997
0.99997
0.99997
0.99997
0.99997
0.99997
0.99997
0.99997
0.99997
0.99997
0.99997
0.99997
0.99997
0.99997
0.99997
0.99997
0.99997
0.99997
0.99997
0.99997
0.99997
0.99997
0.99997
0.99997
0.99997
0.99997
0.99997
0.99997
0.99997
0.999969
0.999969
0.999968
0.999968
0.999967
0.999966
0.999963
0.999962
0.999961
0.99996
0.999959
0.999957
0.999943
0.999904
0.999815
0.99964
0.99933
0.998832
0.998101
0.997107
0.995853
0.994389
0.992808
0.991245
0.989862
0.98882
0.988256
0.988248
0.988804
0.989855
0.991261
0.99285
0.994453
0.995928
0.997178
0.998164
0.998886
0.999373
0.999675
0.99984
0.999917
0.999941
0.999941
0.999933
0.999927
0.999924
0.999926
0.999932
0.999939
0.999947
0.999953
0.999958
0.999962
0.999965
0.999967
0.999968
0.999968
0.99997
0.99997
0.99997
0.99997
0.99997
0.99997
0.99997
0.99997
0.99997
0.99997
0.99997
0.99997
0.99997
0.99997
0.99997
0.99997
0.99997
0.99997
0.99997
0.99997
0.99997
0.99997
0.99997
0.99997
0.99997
0.99997
0.99997
0.99997
0.99997
0.99997
0.99997
0.99997
0.99997
0.99997
0.99997
0.99997
0.99997
0.99997
0.99997
0.99997
0.99997
0.999969
0.99997
0.999969
0.999969
0.999969
0.999967
0.999965
0.999963
0.99996
0.999958
0.999955
0.999952
0.999947
0.999936
0.999905
0.999832
0.999677
0.999384
0.998882
0.998093
0.996947
0.995405
0.993478
0.991238
0.988832
0.986462
0.984372
0.982804
0.981963
0.98197
0.982837
0.984456
0.986615
0.989047
0.991491
0.993729
0.995622
0.997113
0.998206
0.998951
0.999419
0.999687
0.999822
0.999878
0.999894
0.999894
0.999893
0.999895
0.999903
0.999913
0.999925
0.999937
0.999945
0.999953
0.999959
0.999963
0.999966
0.999967
0.999968
0.999969
0.99997
0.99997
0.99997
0.99997
0.99997
0.99997
0.99997
0.99997
0.99997
0.99997
0.99997
0.99997
0.99997
0.99997
0.99997
0.99997
0.99997
0.99997
0.99997
0.99997
0.99997
0.99997
0.99997
0.99997
0.99997
0.99997
0.99997
0.99997
0.99997
0.99997
0.99997
0.99997
0.99997
0.99997
0.99997
0.99997
0.99997
0.99997
0.99997
0.99997
0.99997
0.99997
0.999969
0.999968
0.999968
0.999966
0.999963
0.99996
0.999956
0.999951
0.999945
0.999937
0.999925
0.999899
0.99984
0.999712
0.999452
0.998979
0.998185
0.996956
0.995193
0.992845
0.989929
0.986561
0.982957
0.979417
0.976303
0.973978
0.972745
0.972791
0.974131
0.976603
0.979884
0.983568
0.98725
0.990607
0.993433
0.995649
0.997268
0.998373
0.999073
0.99948
0.999694
0.999791
0.999829
0.999842
0.999849
0.999858
0.999871
0.999888
0.999905
0.999922
0.999936
0.999946
0.999955
0.99996
0.999964
0.999966
0.999967
0.999968
0.99997
0.99997
0.99997
0.99997
0.99997
0.99997
0.99997
0.99997
0.99997
0.99997
0.99997
0.99997
0.99997
0.99997
0.99997
0.99997
0.99997
0.99997
0.99997
0.99997
0.99997
0.99997
0.99997
0.99997
0.99997
0.99997
0.99997
0.99997
0.99997
0.99997
0.99997
0.99997
0.99997
0.99997
0.99997
0.99997
0.99997
0.99997
0.99997
0.99997
0.99997
0.999969
0.999969
0.999968
0.999966
0.999964
0.999961
0.999956
0.999949
0.999941
0.999931
0.999915
0.999892
0.999843
0.999737
0.999521
0.999102
0.998357
0.997129
0.995256
0.992599
0.989085
0.984753
0.979773
0.974462
0.969263
0.964696
0.961298
0.959521
0.95964
0.961687
0.965414
0.970341
0.975852
0.981334
0.986302
0.990456
0.993689
0.996038
0.997633
0.99864
0.999227
0.99954
0.999689
0.999751
0.999777
0.999793
0.99981
0.999832
0.999857
0.999881
0.999903
0.999923
0.999938
0.999949
0.999957
0.999962
0.999965
0.999967
0.999968
0.999969
0.99997
0.99997
0.99997
0.99997
0.99997
0.99997
0.99997
0.99997
0.99997
0.99997
0.99997
0.99997
0.99997
0.99997
0.99997
0.99997
0.99997
0.99997
0.99997
0.99997
0.99997
0.99997
0.99997
0.99997
0.99997
0.99997
0.99997
0.99997
0.99997
0.99997
0.99997
0.99997
0.99997
0.99997
0.99997
0.99997
0.99997
0.99997
0.99997
0.999969
0.999969
0.999968
0.999967
0.999966
0.999962
0.999958
0.999949
0.99994
0.999928
0.99991
0.999885
0.999842
0.999756
0.999581
0.999231
0.998577
0.997434
0.99558
0.992785
0.988857
0.983704
0.977387
0.970157
0.96247
0.954954
0.948367
0.943483
0.940963
0.941218
0.944295
0.949838
0.957129
0.965254
0.973297
0.980538
0.986547
0.991179
0.99451
0.996749
0.998148
0.998956
0.999383
0.999586
0.999672
0.999708
0.999731
0.999755
0.999784
0.999818
0.999851
0.999882
0.999908
0.999928
0.999942
0.999952
0.999959
0.999964
0.999966
0.999967
0.999969
0.99997
0.99997
0.99997
0.99997
0.99997
0.99997
0.99997
0.99997
0.99997
0.99997
0.99997
0.99997
0.99997
0.99997
0.99997
0.99997
0.99997
0.99997
0.99997
0.99997
0.99997
0.99997
0.99997
0.99997
0.99997
0.99997
0.99997
0.99997
0.99997
0.99997
0.99997
0.99997
0.99997
0.99997
0.99997
0.99997
0.99997
0.99997
0.99997
0.999969
0.999969
0.999968
0.999966
0.999964
0.99996
0.999952
0.999943
0.999928
0.999909
0.999883
0.999841
0.999769
0.999629
0.999349
0.998807
0.997813
0.996106
0.993371
0.98929
0.983605
0.976197
0.967166
0.956869
0.94594
0.935273
0.925937
0.919045
0.915551
0.916047
0.920607
0.928711
0.93932
0.951089
0.962687
0.973058
0.981593
0.988103
0.992726
0.995784
0.997664
0.998726
0.999269
0.999516
0.999611
0.999647
0.999669
0.999696
0.999732
0.999774
0.999817
0.999856
0.999889
0.999915
0.999933
0.999947
0.999956
0.999962
0.999965
0.999967
0.999968
0.999969
0.99997
0.99997
0.99997
0.99997
0.99997
0.99997
0.99997
0.99997
0.99997
0.99997
0.99997
0.99997
0.99997
0.99997
0.99997
0.99997
0.99997
0.99997
0.99997
0.99997
0.99997
0.99997
0.99997
0.99997
0.99997
0.99997
0.99997
0.99997
0.99997
0.99997
0.99997
0.99997
0.99997
0.99997
0.99997
0.99997
0.99997
0.99997
0.999969
0.999969
0.999968
0.999966
0.999962
0.999956
0.999947
0.999933
0.999914
0.999886
0.999846
0.999782
0.999668
0.999449
0.999021
0.998208
0.996739
0.994251
0.99031
0.984483
0.976429
0.966004
0.953353
0.938972
0.923736
0.908881
0.895911
0.886396
0.881691
0.882632
0.889304
0.900951
0.916083
0.932782
0.949148
0.963697
0.975568
0.984525
0.990793
0.994863
0.997301
0.998627
0.999269
0.999528
0.999606
0.999617
0.999621
0.999641
0.999679
0.999728
0.999779
0.999826
0.999868
0.999901
0.999924
0.999941
0.999952
0.99996
0.999964
0.999966
0.999967
0.999969
0.99997
0.99997
0.99997
0.99997
0.99997
0.99997
0.99997
0.99997
0.99997
0.99997
0.99997
0.99997
0.99997
0.99997
0.99997
0.99997
0.99997
0.99997
0.99997
0.99997
0.99997
0.99997
0.99997
0.99997
0.99997
0.99997
0.99997
0.99997
0.99997
0.99997
0.99997
0.99997
0.99997
0.99997
0.99997
0.99997
0.99997
0.99997
0.999969
0.999968
0.999967
0.999965
0.99996
0.999952
0.99994
0.999921
0.999894
0.999856
0.999798
0.999703
0.999531
0.999204
0.99857
0.997385
0.995274
0.991737
0.986191
0.978056
0.966896
0.952537
0.93519
0.91552
0.894714
0.87446
0.856843
0.844056
0.837984
0.839757
0.849428
0.865876
0.886988
0.910104
0.932615
0.952502
0.968604
0.980626
0.988913
0.994177
0.997227
0.9988
0.999486
0.999699
0.999704
0.999651
0.99961
0.999605
0.999633
0.999682
0.999739
0.999796
0.999845
0.999885
0.999913
0.999934
0.999948
0.999957
0.999962
0.999965
0.999967
0.999969
0.99997
0.99997
0.99997
0.99997
0.99997
0.99997
0.99997
0.99997
0.99997
0.99997
0.99997
0.99997
0.99997
0.99997
0.99997
0.99997
0.99997
0.99997
0.99997
0.99997
0.99997
0.99997
0.99997
0.99997
0.99997
0.99997
0.99997
0.99997
0.99997
0.99997
0.99997
0.99997
0.99997
0.99997
0.99997
0.99997
0.99997
0.999969
0.999969
0.999968
0.999966
0.999963
0.999957
0.999947
0.999932
0.999907
0.999872
0.999819
0.999738
0.999602
0.999353
0.998879
0.997971
0.996293
0.993336
0.988431
0.980804
0.96971
0.954596
0.935264
0.912
0.885689
0.857905
0.830928
0.807613
0.79098
0.783602
0.78693
0.800864
0.823694
0.852448
0.883547
0.913575
0.939919
0.961103
0.976767
0.98741
0.994008
0.997676
0.999428
1.00006
1.00013
0.999977
0.999794
0.999663
0.999603
0.999604
0.999644
0.999703
0.999765
0.999822
0.999868
0.999902
0.999927
0.999943
0.999955
0.999961
0.999964
0.999967
0.999969
0.999969
0.99997
0.99997
0.99997
0.99997
0.99997
0.99997
0.99997
0.99997
0.99997
0.99997
0.99997
0.99997
0.99997
0.99997
0.99997
0.99997
0.99997
0.99997
0.99997
0.99997
0.99997
0.99997
0.99997
0.99997
0.99997
0.99997
0.99997
0.99997
0.99997
0.99997
0.99997
0.99997
0.99997
0.99997
0.99997
0.99997
0.999969
0.999969
0.999967
0.999965
0.999961
0.999954
0.999942
0.999922
0.999892
0.999846
0.999776
0.999666
0.999477
0.999128
0.998462
0.9972
0.994886
0.990851
0.984214
0.973977
0.959199
0.939213
0.913794
0.883334
0.848978
0.812778
0.777773
0.747809
0.726996
0.718767
0.724883
0.744846
0.77599
0.814166
0.854715
0.893383
0.927018
0.953873
0.973564
0.986759
0.994732
0.998947
1.00074
1.00116
1.00093
1.00051
1.0001
0.999816
0.999659
0.999605
0.999622
0.999674
0.999738
0.999799
0.999852
0.999891
0.999919
0.999939
0.999952
0.999959
0.999964
0.999966
0.999967
0.999969
0.99997
0.99997
0.99997
0.99997
0.99997
0.99997
0.99997
0.99997
0.99997
0.99997
0.99997
0.99997
0.99997
0.99997
0.99997
0.99997
0.99997
0.99997
0.99997
0.99997
0.99997
0.99997
0.99997
0.99997
0.99997
0.99997
0.99997
0.99997
0.99997
0.99997
0.999969
0.99997
0.99997
0.999969
0.99997
0.99997
0.999969
0.999969
0.999967
0.999964
0.99996
0.99995
0.999936
0.999911
0.999874
0.999817
0.999726
0.999581
0.999324
0.998849
0.997943
0.996234
0.993129
0.98776
0.979001
0.965595
0.946392
0.92061
0.88803
0.849171
0.805484
0.759599
0.715465
0.678178
0.653237
0.645158
0.655935
0.684253
0.725955
0.775331
0.826496
0.874444
0.915652
0.948263
0.971969
0.987631
0.996833
1.0014
1.003
1.00298
1.00226
1.00139
1.00064
1.00011
0.999799
0.999656
0.999626
0.999658
0.999717
0.99978
0.999836
0.999881
0.999912
0.999935
0.999949
0.999958
0.999962
0.999966
0.999968
0.999969
0.99997
0.99997
0.99997
0.99997
0.99997
0.99997
0.99997
0.99997
0.99997
0.99997
0.99997
0.99997
0.99997
0.99997
0.99997
0.99997
0.99997
0.99997
0.99997
0.99997
0.99997
0.99997
0.99997
0.99997
0.99997
0.99997
0.99997
0.99997
0.99997
0.99997
0.99997
0.99997
0.99997
0.99997
0.99997
0.99997
0.999969
0.999969
0.999966
0.999963
0.999958
0.999947
0.999929
0.9999
0.999855
0.999783
0.999671
0.999483
0.999146
0.998516
0.997316
0.995066
0.991005
0.984042
0.972769
0.955653
0.931335
0.898951
0.858332
0.810171
0.756269
0.699873
0.645952
0.601062
0.572449
0.566024
0.583908
0.623362
0.678045
0.740259
0.802813
0.860084
0.908442
0.946205
0.973319
0.99093
1.00092
1.00544
1.0065
1.00573
1.00424
1.00272
1.00147
1.00059
1.00005
0.999772
0.999668
0.999664
0.999708
0.999768
0.999824
0.999871
0.999906
0.99993
0.999946
0.999956
0.999962
0.999966
0.999968
0.999969
0.999969
0.99997
0.99997
0.99997
0.99997
0.99997
0.99997
0.99997
0.99997
0.99997
0.99997
0.99997
0.99997
0.99997
0.99997
0.99997
0.99997
0.99997
0.99997
0.99997
0.99997
0.99997
0.99997
0.99997
0.99997
0.99997
0.99997
0.99997
0.99997
0.99997
0.99997
0.99997
0.99997
0.99997
0.99997
0.999969
0.999969
0.999968
0.999966
0.999962
0.999956
0.999944
0.999922
0.999889
0.999835
0.99975
0.999611
0.999373
0.998943
0.998131
0.996585
0.993698
0.988524
0.97972
0.965586
0.944301
0.914332
0.874809
0.825706
0.767955
0.703717
0.636812
0.573141
0.520759
0.489027
0.485838
0.513458
0.566952
0.636979
0.713468
0.787842
0.853989
0.90845
0.950055
0.979302
0.997786
1.00772
1.01155
1.01155
1.00961
1.00704
1.0046
1.00266
1.0013
1.00044
0.999971
0.999758
0.999697
0.999715
0.999763
0.999818
0.999865
0.999902
0.999927
0.999944
0.999955
0.999962
0.999965
0.999968
0.999969
0.999969
0.99997
0.99997
0.99997
0.99997
0.99997
0.99997
0.99997
0.99997
0.99997
0.99997
0.99997
0.99997
0.99997
0.99997
0.99997
0.99997
0.99997
0.99997
0.99997
0.99997
0.99997
0.99997
0.99997
0.99997
0.99997
0.99997
0.99997
0.99997
0.99997
0.99997
0.99997
0.99997
0.99997
0.99997
0.99997
0.999969
0.999968
0.999966
0.999961
0.999955
0.99994
0.999917
0.999878
0.999816
0.999715
0.999549
0.999258
0.998722
0.997701
0.995762
0.992153
0.985725
0.974883
0.957629
0.931882
0.896007
0.84927
0.791948
0.725316
0.651858
0.575739
0.503352
0.443794
0.408828
0.409572
0.448986
0.519026
0.606453
0.698461
0.784957
0.859356
0.91855
0.962208
0.991746
1.00948
1.01807
1.02024
1.01847
1.01483
1.01076
1.00711
1.00427
1.00227
1.001
1.00027
0.999907
0.999764
0.999741
0.999771
0.999817
0.999862
0.999898
0.999925
0.999942
0.999954
0.999961
0.999965
0.999967
0.999969
0.999969
0.99997
0.99997
0.99997
0.99997
0.99997
0.99997
0.99997
0.99997
0.99997
0.99997
0.99997