/*--------------------------------*- C++ -*----------------------------------*\
  =========                 |
  \\      /  F ield         | OpenFOAM: The Open Source CFD Toolbox
   \\    /   O peration     | Website:  https://openfoam.org
    \\  /    A nd           | Version:  6
     \\/     M anipulation  |
\*---------------------------------------------------------------------------*/
FoamFile
{
    version     2.0;
    format      ascii;
    class       volScalarField;
    location    "1.62";
    object      rho;
}
// * * * * * * * * * * * * * * * * * * * * * * * * * * * * * * * * * * * * * //

dimensions      [1 -3 0 0 0 0 0];

internalField   nonuniform List<scalar> 
24166
(
1.40014
1.40038
1.40001
1.40001
1.40001
1.40001
1.40001
1.40001
1.40038
1.40001
1.4
1.39918
1.39846
1.40092
1.40013
1.40001
1.40007
1.40005
1.40001
1.40004
1.40002
1.4
1.40001
1.40001
1.40016
1.40001
1.4
1.38901
1.40001
1.40001
1.38913
1.40001
1.40001
1.4
1.40001
1.47424
1.40001
1.4293
1.40001
0.777151
1.4
1.40001
1.40001
1.40001
1.40002
1.40001
1.40172
1.42202
1.40001
1.43802
1.40001
1.40004
1.40001
1.40007
1.4
1.40369
1.41471
1.40001
1.40001
1.40001
0.915557
1.39992
1.40001
1.40001
1.40001
1.40001
1.40001
1.44792
1.42555
1.40001
1.4
1.39991
1.40001
1.40001
1.40001
1.40001
1.40001
1.43475
1.40001
1.40004
1.43355
1.40001
1.40001
1.42362
1.40004
1.40001
1.39997
1.40001
1.40001
1.4
1.40001
1.40001
1.3999
1.40001
1.39996
1.40016
1.40001
1.39992
1.40001
1.4
1.40001
1.40001
1.39995
1.40001
1.40001
1.40001
1.40001
1.4
1.40001
1.4
1.40001
1.40001
1.40001
1.32574
1.37812
1.4
1.40001
1.40001
1.40003
1.40001
1.40001
1.40001
1.40288
1.40001
1.40629
1.39991
1.40001
1.40001
1.40001
1.40001
1.47461
1.40063
1.41156
1.40143
1.4
1.40001
1.40001
1.42863
1.40001
1.4
1.40091
1.40001
1.42113
1.40001
1.41687
1.4
1.4
1.40001
1.44873
1.40001
1.40001
1.40001
1.4
1.40001
1.40001
1.40001
1.40001
1.40001
1.40001
1.4
1.404
1.41869
1.40001
1.40001
1.40001
1.40001
1.31512
1.40001
1.40001
1.40001
1.40001
1.40001
1.40001
1.4004
1.40001
1.40007
1.40001
1.40001
1.40003
1.39822
1.40001
1.40001
1.42771
1.40001
1.40001
1.40001
1.40001
1.40001
1.40001
1.40001
1.4
1.40177
1.4
1.39886
1.40001
1.4
1.40125
1.40001
1.40001
1.40001
1.40001
1.40001
1.40001
1.4031
1.40001
1.40001
1.40001
1.40001
1.40001
1.35795
1.40475
1.40001
1.39975
1.39996
1.40001
1.4
1.40001
1.40001
1.44127
1.40001
1.40001
1.39881
1.40001
1.40001
1.40427
1.40001
1.40001
1.4
1.40004
1.40001
1.40232
1.40002
1.40002
1.40001
1.40513
1.40001
1.39989
1.40001
1.40001
1.40001
1.4
1.40001
1.40001
1.40001
1.39998
1.40001
1.4
1.39998
1.3999
1.4
1.39992
1.4
1.4
1.42348
1.40001
1.40001
1.40001
1.39975
1.40001
1.40003
1.40001
1.40001
1.40001
1.40034
1.4
1.40001
1.4
1.40001
1.40001
1.40001
1.40001
1.15805
1.40001
1.40118
1.40001
1.40001
1.40001
1.31581
1.4
1.40001
1.40213
1.40001
1.0885
1.40001
1.40001
1.40001
1.40001
1.40001
1.39993
1.40001
1.4296
1.40001
1.40001
1.40001
1.40004
1.06593
1.40001
1.40001
1.3978
1.40001
1.40001
1.40004
1.40054
1.40001
1.40001
1.40001
1.40001
1.39999
1.39878
1.40001
1.39535
1.40001
1.40001
0.875739
1.39948
1.40001
1.40012
1.40001
1.40001
1.4
1.40001
1.40001
1.4146
1.40001
1.40001
1.4
1.40001
1.40001
1.40001
1.43492
1.40001
1.4
1.40001
1.40014
1.40001
1.40987
1.40001
1.4
1.4
1.40034
1.40001
1.40001
1.40001
1.40001
1.40001
1.4
1.40001
1.40001
1.40001
1.40001
1.40001
1.40001
1.40001
1.40001
1.40001
1.40001
1.40001
1.40001
1.38735
1.40407
1.40001
1.40001
1.40001
1.40605
1.40001
1.4
1.39875
1.40001
1.40001
1.40001
1.40004
1.40001
1.40001
1.40001
1.40001
1.40013
1.40001
1.40025
1.40001
1.40001
1.40001
1.40001
1.40001
1.39966
1.40027
1.40001
1.40001
1.39972
1.40001
1.46819
1.40001
1.40001
1.4
1.39338
1.42361
1.4007
1.40001
1.40001
1.40001
1.40001
1.40001
1.40001
1.40008
1.39961
1.40001
1.40001
1.40001
1.39938
1.40001
1.40001
1.39846
1.40001
1.40001
1.4
1.40001
1.39819
1.39917
1.40001
1.4
1.40001
1.40001
1.37572
1.40001
1.40001
1.40001
1.40001
1.39945
1.40001
1.40001
1.40258
1.40007
1.40586
1.40001
1.40001
1.40001
1.40001
1.40001
1.40001
1.40001
1.39978
1.4
1.40001
1.36855
1.40001
1.40001
1.40002
1.46034
1.40001
1.46095
1.44735
1.40001
1.40001
1.40001
1.40001
1.40031
1.4
1.39382
1.40001
1.40001
1.40001
1.22885
1.40001
1.40002
1.44525
1.40001
1.40001
1.40001
1.40001
1.40001
1.40001
1.40001
1.40007
1.40001
1.40001
1.40001
1.40201
1.40001
1.40001
1.40001
1.40002
1.40001
1.44736
1.40001
1.4
1.4353
1.40001
1.39989
1.4
1.40001
1.40001
1.40001
1.40001
1.40001
1.40001
1.41585
1.4196
1.40001
1.40003
1.40001
1.38675
1.40001
1.39991
1.43115
1.19681
1.40001
1.40006
1.4
1.40001
1.40001
1.40018
1.40001
1.40001
1.40001
1.4
1.39855
1.40087
1.37315
1.40001
1.40001
1.40001
1.40001
1.40001
1.40374
1.41905
1.40001
1.40001
1.40001
1.40001
1.40001
1.42641
1.40001
1.39987
1.40001
1.40001
1.40001
1.4
1.16301
1.40001
1.40155
1.40001
1.40001
1.40001
1.40106
1.40001
1.41028
1.40001
1.47323
1.40001
1.4
1.40015
1.41674
1.40001
1.40013
1.40001
1.40001
1.40001
1.40001
1.43153
1.40001
1.0457
1.28992
1.40001
1.40001
1.39918
1.40001
1.41326
0.970133
1.40003
1.40001
1.40001
1.40001
1.40053
1.4
1.40001
1.40094
1.40001
1.40001
1.40001
1.40001
1.40001
1.39975
1.40001
1.40001
1.40001
1.4
1.40001
1.40001
1.40808
1.40764
1.44541
1.40001
1.39961
1.40001
1.40001
0.981565
1.4
1.4
1.46082
1.40001
1.40001
1.3965
1.40001
1.4
1.40006
1.40001
1.40083
1.40001
1.4
1.39878
1.40001
1.40361
1.40001
1.4
1.40001
1.40161
1.40001
1.40001
1.45884
1.37532
1.40001
1.39264
1.40001
1.39965
1.4
1.40001
1.4
1.40005
1.4
1.41812
1.40001
1.40001
1.40183
1.40001
1.40845
1.40001
1.40001
1.4274
1.40001
1.40001
1.40245
1.4
1.40001
1.4002
1.40013
1.47934
1.4
1.39996
1.4
1.39993
1.40001
1.40001
1.40001
1.40001
1.40001
1.4
1.4
1.40001
1.40001
1.40001
1.4
1.40001
1.39977
1.40001
1.40001
1.40001
1.40539
1.37186
1.40001
1.40001
1.40001
1.40001
1.31209
1.40001
1.40001
1.4
1.09571
1.40001
1.40001
1.4
1.40001
1.40001
1.40001
1.40001
1.40001
1.40001
1.4
1.4
1.40001
1.39998
1.39363
1.40216
1.40001
1.40001
1.4
1.40001
1.40001
1.39913
1.40001
1.40863
1.42527
1.40001
1.40001
1.40001
1.40001
1.41047
1.40001
1.40003
1.46105
1.40001
1.40001
1.40001
1.40267
1.40001
1.40001
1.40001
1.40001
1.39877
1.43759
1.40001
1.40855
1.39727
1.46969
1.4
1.40001
1.39951
1.40001
1.42108
1.40001
1.39998
1.40001
1.40001
1.40001
1.40063
1.40952
1.42085
1.40001
1.40007
1.40001
1.40001
1.40001
1.39999
1.40001
1.40001
1.40001
1.11592
1.40702
1.40001
1.40001
1.4
1.40001
1.40001
1.40001
1.40001
1.40001
1.40282
1.40001
1.40001
1.40001
1.39769
1.40001
1.40001
1.40001
1.40001
1.40001
1.40929
1.40001
1.40001
1.40001
1.40001
1.4004
1.40001
1.40001
1.40001
1.40001
1.40001
1.40001
1.40001
1.40001
1.43053
1.4
1.4
1.40001
1.40001
1.40001
1.40001
1.40001
1.4
1.40001
1.40001
1.40001
1.40001
1.44052
1.4
1.40001
1.40001
1.40001
1.40001
1.40001
1.40001
1.40001
1.40001
1.11336
1.40488
1.40001
1.43306
1.40001
1.40132
1.40001
1.4
1.40001
1.40001
1.40001
1.40001
1.40001
1.40001
1.40001
1.29024
1.40023
1.4
1.40001
1.40001
1.40001
1.40002
1.40001
1.40001
1.48057
1.40001
1.40001
1.40001
1.40001
1.40001
1.39988
1.40001
1.40001
1.4
1.40001
1.40001
1.4287
1.40001
1.40001
1.4009
1.40157
1.40001
1.40488
1.40001
1.40001
1.40001
1.40001
1.40001
1.40001
1.40001
1.40001
1.40001
1.40009
1.39937
1.4
1.39677
1.4
1.40001
1.40001
1.40001
1.39993
1.40001
1.4
1.40001
1.39861
1.40001
1.42877
1.40001
1.40213
1.40001
1.40001
1.40001
1.39986
1.44509
1.40001
1.4
1.40001
1.40001
1.40001
1.40001
1.40001
1.40016
1.40001
1.4
1.40001
1.40001
1.4
1.40001
1.37663
1.4
1.40001
1.40305
1.40001
1.39985
1.40026
1.40001
1.4
1.4
1.40001
1.40001
1.40001
1.40001
1.39998
1.40001
1.40001
1.42122
1.3443
1.40001
1.39943
1.40001
1.4
1.40001
1.4
1.40001
1.40001
1.40001
1.40001
1.4
1.41528
1.40001
1.40001
1.4
1.40035
1.43189
1.40002
1.40055
1.40001
1.40001
1.40001
1.40001
1.4
1.40001
1.40001
1.41425
1.40006
1.54862
1.40001
1.40353
1.4
1.4
1.45375
1.46054
1.40001
1.40003
1.4
1.40001
1.40001
1.40001
1.21253
1.39954
1.38737
1.40001
1.40001
1.39958
1.40023
1.40088
1.4
1.40001
1.40001
1.39308
1.40001
1.40001
1.40001
1.43019
1.40001
1.40001
1.38318
1.40001
1.40001
1.40001
1.4
1.40001
1.40001
1.40001
1.40001
1.40001
1.40001
1.40403
1.39997
1.40016
1.40001
1.4271
1.40001
1.40001
1.40001
1.32018
1.40001
1.40001
1.43231
1.40001
1.44067
1.40001
1.40001
1.4
1.40001
1.40001
1.40001
1.4001
1.4
1.39671
1.40001
1.40003
1.4088
1.4
1.40001
1.40001
1.40001
1.40001
1.40001
1.43424
1.40001
1.40008
1.40003
1.39405
1.40383
1.41811
1.40001
1.4
1.40001
1.40001
1.40168
1.4
1.40001
1.40001
1.40001
1.40212
1.39999
1.40001
1.40001
1.37644
1.40001
1.40002
1.4
1.40001
1.40001
1.40001
1.40001
1.40001
1.40838
1.42453
1.40001
1.40003
1.4005
1.4
1.4
1.40001
1.40049
1.4
1.40001
1.40001
1.40002
1.40001
1.4
1.40001
1.4
1.4
1.40001
1.4
1.4
1.40001
1.40001
1.40001
1.4
1.39983
1.36197
1.40001
1.40038
1.39436
1.40001
1.40001
1.40001
1.38503
1.40001
1.40004
1.40001
1.4
1.40001
0.624039
1.4
1.39603
1.40001
1.40001
1.40001
1.39988
1.40001
1.4
1.40001
1.40001
1.40001
1.39998
1.40001
1.40001
1.40001
1.40001
1.40001
1.40055
1.40001
1.4
1.40001
1.43484
1.39998
1.39153
1.3999
1.40001
1.4
1.40001
1.40001
1.40001
1.4
1.40002
1.40009
1.40004
1.4
1.40003
1.40911
1.39877
1.40001
1.40001
1.40001
1.40001
1.39966
1.40001
1.4
1.40001
1.40001
1.40001
0.974524
1.40001
1.0124
1.40001
1.40001
1.40001
1.39998
1.4
1.39999
1.39968
1.4101
1.4
1.40001
1.39984
1.40001
1.37628
1.39997
1.40001
1.40001
1.4012
1.40001
1.39971
1.44425
1.40001
1.39999
1.40001
1.40001
1.4
1.40001
1.52192
1.39798
1.40001
1.4
1.39916
1.40001
1.40001
1.4058
0.642698
1.4
1.40001
1.40003
1.40001
1.4
1.4478
1.40247
1.40001
1.40001
1.40001
1.4
1.4
1.40001
1.40001
1.4
1.4
1.40001
1.40001
1.40001
1.40001
1.39981
1.40001
1.4
1.40418
1.39995
1.40001
1.40001
1.38966
1.40001
1.40001
1.40001
1.40001
1.39999
1.40001
1.40001
1.40001
1.40069
1.40001
1.41643
1.39996
1.40001
1.40001
1.40117
1.40001
1.4
1.32282
1.40001
1.40008
1.4
1.40121
1.40001
1.4
1.40001
1.40001
1.40001
1.40001
1.4
1.21219
1.40001
1.40004
1.40001
1.40001
1.40001
1.40001
1.40001
1.40001
1.40001
1.40001
1.40001
1.40001
1.39995
1.4
1.40001
1.47921
1.40001
1.43388
1.40002
1.40001
1.40001
1.40001
1.40001
1.40001
1.40002
1.40014
1.4
1.39997
1.42855
1.40001
1.40001
1.40001
1.4
1.40001
1.40001
1.40001
1.40001
1.40001
1.41628
1.40229
0.589722
1.40001
1.40001
1.39998
1.40001
0.669081
1.40001
1.39991
1.40001
1.40001
1.4
1.13388
1.4
1.40001
1.40001
1.39999
1.40456
1.4
1.40001
1.40001
1.40001
1.39423
1.40001
1.4
1.4
1.42192
1.40001
1.40001
1.42589
1.4
1.37124
1.39996
1.40001
1.39996
1.40001
1.40001
1.40001
1.40001
1.40001
1.40001
1.40001
1.40001
1.40066
1.40001
1.40001
1.40001
1.40001
1.39213
1.4561
1.40001
1.40001
1.40001
1.4
1.40001
1.4
1.40001
1.40002
1.34513
1.40002
1.4
1.40001
1.40001
1.39908
1.40009
1.40001
1.40001
1.1531
1.4
1.40001
1.40001
1.4
1.40001
1.40001
1.4
1.4
1.40001
1.40001
1.40001
1.42726
1.40001
1.40001
1.40001
1.40001
1.39745
1.40001
1.39995
1.4
1.40611
1.40001
1.40001
1.40001
1.40001
1.4
1.40001
1.40986
1.39997
1.40001
1.40001
1.40001
1.40001
1.40001
1.40001
1.40022
1.40041
1.40878
1.40001
1.39999
1.40001
1.4
1.40001
1.4
1.4
1.40001
1.40001
1.4
1.3766
1.43923
1.40001
1.40001
1.40001
1.41658
1.4
0.600455
1.40033
1.40001
1.40001
1.40014
1.39943
1.40001
1.4
1.40001
1.40037
1.44862
1.40001
1.39999
1.3997
1.4
1.40001
1.40001
1.42733
1.40001
1.40001
1.40006
1.40001
1.40001
1.4
1.4
1.40001
1.4
1.40001
1.40399
1.40001
1.40001
1.4001
1.41377
1.40003
1.40114
1.40001
1.40001
1.40246
1.44451
1.4
1.4
1.41632
1.08802
0.748753
1.40001
1.40001
1.40001
1.40001
1.40001
1.4
1.40001
1.40001
1.40009
1.40001
1.40001
1.41628
1.40001
1.4
1.40001
1.40001
1.40001
1.39914
1.40001
1.40001
1.40001
1.40001
1.4002
1.40001
1.40001
1.40001
1.4
1.3999
1.40001
1.40594
1.40014
1.40001
1.40001
1.4
1.40001
1.40001
1.4
1.40001
1.3999
0.792721
1.4
1.4
1.40001
1.4
1.40001
1.40001
1.40001
1.40001
1.44941
1.40001
1.40001
1.40001
1.40001
1.40469
1.39996
1.4
1.40001
1.40001
1.40001
1.4
1.40001
1.40654
1.39779
1.40001
1.40001
1.40001
1.39999
1.49068
1.40001
1.40001
1.40001
1.39965
1.40001
1.40001
1.4
1.40001
1.4172
1.40001
1.40257
1.40002
1.40001
1.46046
1.40012
1.40001
1.39889
1.40001
1.44188
1.40001
1.43964
1.40001
1.40001
1.39994
1.40001
1.40001
1.4
1.40001
1.40001
1.4
1.40001
1.40001
1.4
1.40001
1.39999
1.40001
1.39967
1.4
1.39998
1.40001
1.40002
1.4519
1.41162
1.40388
1.39981
1.39993
1.39057
1.40001
1.40491
1.40001
1.39507
1.40001
1.40001
1.40006
1.40605
1.40001
1.40029
1.40001
1.40001
1.40012
1.40001
1.40001
1.39857
1.40001
1.40001
1.40001
1.40001
1.4048
1.40001
1.40001
1.40001
1.40001
1.4
1.40001
1.40001
1.47278
1.40001
1.40001
1.39996
1.40001
1.4
1.40001
1.40001
1.4001
1.40001
1.4
1.40001
1.40001
1.40001
1.40001
1.40001
1.40001
1.40054
1.40001
1.40018
1.40001
1.37884
1.40001
1.40001
1.40001
1.4
1.40001
1.40001
1.4
1.4
1.40001
1.40001
1.40002
1.4485
1.40001
1.40001
1.40001
1.40001
1.40001
1.40001
1.40001
1.40001
1.40001
1.4
1.41562
1.40001
1.40001
1.42137
1.43106
1.40001
1.40001
1.4112
1.4
1.40001
1.42837
1.40001
1.4
1.40001
1.4
1.40001
1.39877
1.40001
1.39166
1.45409
1.39999
1.40001
1.40001
1.40001
1.40001
1.40001
1.37974
1.40001
1.39996
1.40001
1.4
1.40001
1.4
1.40001
1.39389
1.39998
1.40621
1.40001
1.40001
1.0624
1.40412
1.40001
1.40152
1.40001
1.40001
1.42938
1.40001
1.4
1.40001
1.40001
1.40001
1.4
1.40001
1.4
1.40001
1.40001
1.40001
1.40001
1.4
1.40001
1.40001
1.40001
1.40001
1.4
1.40001
1.40095
1.40001
1.40001
1.4
1.40001
1.39692
1.40001
1.4
1.4
1.39999
1.39986
1.40001
1.47225
1.40001
1.40018
1.40001
1.40001
1.39997
1.43322
1.39989
1.39994
1.40001
1.40001
1.40001
1.40001
1.45319
1.40001
1.4
1.40001
1.40001
1.40802
1.40001
1.43767
1.40001
1.40001
1.40001
1.4551
1.40001
1.40001
1.39779
1.4
1.40001
1.40001
1.40001
1.4
1.42641
1.4
1.40061
1.43726
1.4
1.40017
1.40001
1.40001
1.39995
1.40001
1.40001
1.40001
1.40001
1.41052
1.40001
1.40001
1.40001
1.39206
1.39996
1.40257
1.40001
1.40001
1.40001
1.40001
1.40001
1.40001
1.39447
1.40001
1.28123
1.40001
1.30095
1.4
1.40001
1.40074
1.39995
1.40001
1.40001
1.40016
1.40001
1.40001
1.40001
1.40001
1.40045
1.39995
1.4
1.39996
1.40001
1.40001
1.4
1.39335
1.40001
1.40001
1.40001
1.40213
1.42628
1.40001
1.40001
1.42926
1.4
1.40001
1.40001
1.41292
1.40001
1.40001
1.39997
1.40001
1.40001
1.40001
1.39314
1.40001
1.40001
1.40001
1.40001
1.40001
1.40001
1.40001
1.43134
1.40001
1.40001
1.40001
1.4
1.40277
1.40001
1.4003
1.40001
1.40001
1.40291
1.40001
1.39963
1.40003
1.4
1.4
1.40001
1.4
1.40001
1.40001
1.4
1.40006
1.4006
1.40001
1.40001
1.40001
1.41406
1.40001
1.40001
1.40578
1.4
1.40001
1.40001
1.40001
1.3997
1.38775
1.40001
1.40001
1.40001
1.40001
1.40001
1.40001
1.40232
1.44971
1.40001
1.40001
1.40001
1.40007
1.40001
1.49034
1.40001
1.39999
1.40001
1.40001
1.42394
1.39974
1.40001
1.40447
1.43377
1.43552
1.48268
1.39999
1.40009
1.38846
1.40036
1.41964
1.40001
1.40001
1.40666
1.40001
1.40001
1.44074
1.4
1.40001
1.41199
1.40001
1.45965
1.40001
1.40001
1.4
1.41895
1.40001
1.40001
1.40001
1.40001
1.40016
1.40668
1.40001
1.40002
1.4
1.4
1.40047
1.40001
1.4
1.40001
1.40001
1.40756
1.40001
1.40001
1.40001
1.41104
1.40001
1.40001
1.40001
1.40001
1.57619
1.40001
1.4
1.4292
1.40055
1.40329
1.40001
1.40303
1.40458
1.39989
1.40552
1.40105
1.40001
1.40001
1.40001
1.40001
1.40001
1.4
1.4
1.40001
1.40001
1.40001
1.40001
1.40001
1.40001
1.39999
1.41743
1.4
1.40001
1.37463
1.43896
1.39951
1.40027
1.40001
1.4
1.40001
1.40004
1.37665
1.38271
1.41575
1.40001
1.40001
1.4
1.40002
1.41717
1.40001
1.39999
1.41637
1.40001
1.16736
1.40001
1.40001
1.40001
1.40001
1.39956
1.40001
1.40001
1.40001
1.02629
1.40002
1.40141
1.40001
1.40001
1.40001
1.40001
1.40001
1.1691
1.40001
1.39871
1.40001
1.4
1.40001
1.40001
1.40001
1.40001
1.40001
1.40001
1.40001
1.40048
1.40122
1.40001
1.40001
1.37758
1.40001
1.39717
1.40001
1.40001
1.4
1.40001
1.40001
1.40001
1.44922
1.40023
1.40246
1.4
1.40001
1.40001
1.40001
1.40001
1.40036
1.40001
1.40059
1.40001
1.40001
1.40091
1.40001
1.40001
1.40703
1.37173
1.40278
1.40315
1.40001
1.40001
1.40001
1.4
1.4
1.40098
1.39999
1.40159
1.40001
1.40001
1.40001
1.40155
1.45197
1.4
1.40001
1.40001
1.40012
1.40001
1.40001
1.4
1.39998
1.40369
1.40002
1.40021
1.40001
1.40001
1.40001
1.40001
1.40001
1.40009
1.40001
1.40001
1.44046
1.39854
1.40001
1.40344
1.40001
1.40001
1.40006
1.40001
1.41264
1.40001
1.4
1.44867
1.22632
1.40001
1.41071
1.40017
1.4
1.40001
1.40001
1.4
1.40001
1.40001
1.40001
1.40024
1.40001
1.40001
1.39395
1.46447
1.40001
1.40001
1.40001
1.40001
1.40001
1.40001
1.39959
1.40153
1.40009
1.30414
1.40001
1.40001
1.40652
1.40001
1.40001
1.40001
1.40001
1.40001
1.4
1.40001
1.40001
1.40001
1.05963
1.40001
1.40001
1.40048
1.40001
1.40001
1.40001
1.4
1.40001
1.40001
1.40001
1.40001
1.40001
1.40001
1.40001
1.40071
1.40001
1.40001
1.41294
1.3964
1.40001
1.40001
1.40001
1.40001
1.40001
1.40001
1.40001
1.40001
1.40001
1.4
1.40001
1.40001
1.40001
1.40094
1.40001
1.40001
1.40001
1.39799
1.40001
1.40001
1.39998
1.40001
1.29274
1.4
1.40001
1.40001
1.4
1.39999
1.40001
1.39999
1.40001
1.40001
1.40001
1.39606
1.40001
1.1193
1.40001
1.40001
1.40001
1.4
1.3999
1.40001
1.40001
1.4343
1.40001
1.4
1.40001
1.45038
1.39986
1.40114
1.40001
1.40001
1.41855
1.40001
1.41006
1.40001
1.40001
1.40001
1.4
1.40001
1.40001
1.44678
1.40001
1.40001
1.4
1.40001
1.40007
1.40001
1.40001
1.4
1.4
1.4
1.40001
1.40007
0.950301
1.3987
1.40013
1.4
1.40004
1.40001
1.40001
1.40001
1.40001
1.39699
1.40001
1.40001
1.40001
1.40001
1.40001
1.4016
1.40045
1.40001
1.40001
1.40001
1.4
1.40001
1.40364
1.40001
1.41999
1.39987
1.40001
1.4
1.3887
1.40004
1.40001
1.4
1.40001
1.40001
1.40001
1.4
1.40001
1.40001
1.4
1.40001
1.40025
1.40001
1.39997
1.40037
1.40001
1.40005
1.40001
1.40001
1.41639
1.53349
1.39288
1.4
1.40001
1.40001
1.4
1.4
1.40001
1.4
1.39989
1.39999
1.40001
1.39347
1.40001
1.39956
1.39974
1.40001
1.40054
1.42731
1.37352
1.40001
1.4571
1.40002
1.40057
1.4
1.40001
1.39989
1.40001
1.4
1.40001
1.45782
1.40001
1.4
1.4001
1.04681
1.40001
1.36512
1.40001
1.4
1.40002
1.40001
1.40002
1.40001
1.40001
1.40001
1.40001
1.40001
1.4
1.40001
1.40001
1.39532
1.40001
1.40436
1.24098
1.41927
1.40001
1.40001
1.40029
1.42581
1.40001
1.40001
1.3999
1.46328
1.40006
1.39999
1.40001
1.40001
0.843537
1.39819
1.40001
1.40001
1.40001
1.40001
1.40001
1.40001
1.40001
1.39828
1.37392
1.42814
1.28647
1.40001
1.47037
1.40001
1.39641
1.40001
1.40001
1.40695
1.4
1.4
1.40001
1.40756
1.4
1.40001
1.40001
1.40001
1.40001
1.40425
1.39998
1.40001
1.40001
1.40001
1.40063
1.44519
1.40001
1.4
1.4
1.40001
1.40001
1.40393
1.40001
1.40001
1.41901
1.39999
1.40001
1.40001
1.39898
1.4
1.40001
1.40001
1.40001
1.40001
1.40013
1.40001
1.40166
1.40001
1.4
1.40001
1.40001
1.40001
1.40001
1.39995
1.40001
1.40016
1.40932
1.40501
1.40001
1.40001
1.40015
1.39994
1.39731
1.40001
1.48508
1.40001
1.40001
1.44582
1.40001
1.4036
1.40001
1.40001
1.40001
1.40001
1.40001
1.40033
1.40001
1.44777
1.40001
1.39263
1.40001
1.4
1.40001
1.40001
1.4
1.40001
1.40001
1.40001
1.39991
1.40001
1.40001
1.40001
1.43349
1.4
1.41707
1.40001
1.40001
1.40285
1.4
1.40001
1.40001
1.4618
1.40331
1.4
1.40001
1.40001
1.40001
1.39963
1.40001
1.40001
1.44169
1.40065
1.4
1.41918
1.40001
1.4
1.39976
1.39999
1.40001
1.40001
1.39797
1.40001
1.40002
1.40001
1.40001
1.40001
1.3999
1.40001
1.40001
1.40001
1.40001
1.4
1.40001
1.40001
1.40014
1.40081
1.40001
1.27931
1.40009
1.40001
1.39998
1.40015
1.41691
1.40001
1.39021
1.40001
1.40001
1.40001
1.40001
1.40001
1.40051
1.40001
1.4
1.40001
1.42084
1.4
1.40001
1.39671
1.40001
1.40002
1.40001
1.40001
1.41239
1.45644
1.40001
1.4
1.40145
1.40001
1.44183
1.40001
1.40001
1.43219
1.40001
1.40001
1.37989
1.4
1.4
1.40001
1.40001
1.40001
1.40001
1.44508
1.40001
1.32646
1.40187
1.40001
1.40036
1.40001
1.4
1.40001
1.40001
1.4842
1.40026
1.40001
1.40001
1.40001
1.40001
1.4
1.40002
1.40001
1.40001
1.4
1.4008
1.40751
1.40003
1.40001
1.4
1.40001
1.40022
1.40188
1.40001
1.40001
1.40001
1.40001
1.36687
1.40001
1.47802
1.40005
1.40001
1.40001
1.40001
1.40001
1.40001
1.40001
1.40006
1.40001
1.40001
1.40001
1.40001
1.40001
1.40001
1.4
1.40001
1.47936
1.39989
1.42356
1.39995
1.39971
1.40054
1.40001
1.40055
0.876371
1.40006
1.40001
1.43839
1.40001
1.39998
1.39749
1.40142
1.40001
1.40001
1.40048
1.40001
1.40001
1.40001
1.40001
1.40001
1.40001
1.45586
1.39998
1.40004
1.40001
1.4
1.40001
1.40001
1.4
1.40001
1.40001
1.40001
1.39997
1.39388
1.40001
1.40001
0.868551
1.39999
0.883259
1.40027
1.4
1.40038
1.40001
1.40004
1.39973
1.40001
1.40253
1.40001
1.40001
1.40001
1.40001
1.40001
1.39992
1.39995
1.40001
1.40001
1.44038
1.40001
1.40001
1.40623
1.40082
1.40001
1.4005
1.40001
1.4
1.40001
1.39186
1.40001
1.40001
1.40001
1.40001
1.409
1.4
1.40001
0.972311
1.40001
1.40001
0.950832
1.40001
1.4412
1.4
1.4
1.40001
1.40001
1.40001
1.40001
1.4
1.40001
1.40001
1.40001
1.40001
1.39999
1.40001
1.40001
0.989479
1.40001
1.40001
1.40407
1.40001
1.39998
1.40001
1.40001
1.39896
1.40001
1.40001
1.40001
1.40001
1.4
1.40001
1.40001
1.40001
1.40001
1.40001
1.40001
1.40001
1.40001
1.4
1.40124
1.40089
1.40008
1.40001
1.40049
1.40014
1.4
1.4
1.40001
1.4
1.39988
1.40001
1.40001
1.40001
1.40026
1.4
1.40001
0.640667
1.40001
1.40001
1.40001
1.40001
1.40001
1.39999
1.40001
1.39998
1.40001
1.40494
1.40001
1.4
1.39945
1.40001
1.4
1.42746
1.40001
1.40001
1.46655
1.01384
1.40001
1.4
1.40001
1.40001
1.40001
1.39218
1.39999
1.40001
1.40021
1.03425
0.73618
1.40001
1.38133
1.40001
1.40001
1.40001
1.40001
1.40001
1.40001
1.40001
1.4
0.696279
1.4
1.40001
1.4
1.40001
1.40001
1.40004
1.40001
1.40001
1.40001
1.40001
1.39995
1.39999
1.4
1.40001
1.40001
1.40001
1.40001
1.40001
1.10023
1.40001
1.40001
1.40001
1.40001
1.5602
1.40001
1.40004
1.40001
1.40001
1.40001
1.39963
1.39982
1.40001
1.40001
1.40001
1.40001
1.40001
1.4001
1.39653
1.40001
1.40001
1.40001
1.40001
1.40001
1.40001
1.39993
1.40001
1.40001
1.40001
1.4012
1.40001
1.42535
1.40001
1.40001
1.40001
1.40403
1.40001
1.40001
1.3999
1.4
1.40001
1.39999
1.40001
1.40001
1.40001
1.4
1.40001
1.40001
1.4
1.4
1.4
1.40001
0.764622
1.40001
1.40014
1.40001
1.39999
1.42195
1.39999
1.40051
1.40645
1.38171
1.40001
1.4269
1.40001
0.643796
1.40001
1.41207
1.40001
1.40001
1.40001
1.40001
1.41781
1.41627
1.39986
1.4
1.42357
1.40171
1.40058
1.4
1.40894
1.40001
1.40001
1.40001
1.39956
1.40009
1.40002
0.579954
1.40001
1.40001
1.40001
1.39833
1.435
1.40001
1.40001
1.40001
1.40051
1.40001
1.4
1.39989
1.40001
1.40001
1.4
1.40001
1.40001
1.40096
1.40021
1.44063
0.586743
1.4
1.40001
1.40001
1.40001
1.39765
1.39895
1.4
1.39858
1.40001
1.40001
1.40001
1.40001
1.4
1.40001
1.40043
1.40199
1.40528
1.40001
1.40001
1.40013
1.3999
1.4264
1.40001
1.45034
1.40001
1.42437
1.40001
1.40016
1.40001
1.39998
1.40001
1.44593
1.41556
1.4
1.40001
1.40001
1.40001
1.40575
1.40001
1.40001
1.40001
1.40001
1.4008
1.40001
1.40001
1.40001
1.39943
1.40001
1.40001
1.40031
1.4009
1.40001
1.40001
1.00677
1.40001
1.40001
1.40001
1.40001
1.40001
1.40001
1.40001
1.40001
1.40001
1.40001
1.40001
1.40001
1.40001
1.40001
1.40001
1.4
1.40001
1.40001
1.39937
1.4
1.40001
1.39969
1.4
1.39626
1.40001
1.40001
1.40001
1.40001
1.40001
1.40903
1.40001
1.40001
1.4
1.40001
1.40001
1.40001
1.40001
1.40001
1.40772
1.40001
1.4
1.4
0.730615
1.40001
1.40041
1.40001
1.40768
1.40001
1.40001
1.40001
1.39482
1.40001
1.40001
1.39984
1.40001
1.40001
1.40004
1.39882
1.35198
0.73836
1.40001
1.40001
1.40001
1.51983
1.40001
1.40001
1.40085
1.40001
1.40001
1.40001
1.40001
1.40001
1.40001
1.41036
1.40001
1.4
1.40001
1.40001
1.40731
1.40001
1.40001
1.40001
1.40243
1.40001
1.40001
1.40001
1.40001
1.40001
1.40001
1.40001
1.40002
1.40001
1.40001
1.40001
1.40001
1.40001
1.4
1.40125
1.40001
1.40001
1.40001
1.40001
1.40001
1.40984
1.40001
1.40001
1.40001
1.40001
1.4
0.91511
1.40001
1.39998
1.40001
1.40001
1.40001
1.39994
1.40001
1.39974
1.40069
1.4
1.40001
1.56727
1.40644
1.40001
1.39747
1.40001
1.40001
0.599942
1.40001
1.40001
1.39992
1.4
1.40001
1.4
0.817209
1.40001
1.4
1.40001
1.40001
1.40001
1.39994
1.40001
1.40001
1.38864
1.40001
1.4
1.40001
1.40001
1.40001
1.40168
1.40078
1.40001
1.4
1.40001
1.40001
1.40001
1.40001
1.40001
1.4
1.40001
1.40001
1.37449
1.40716
1.4
1.40001
1.40001
1.43175
1.40001
1.40001
1.40001
1.4
1.40001
1.40001
1.39998
1.40001
1.4257
1.40001
1.40001
1.40001
1.4
1.40001
1.40001
1.40138
1.39998
1.40001
1.40001
1.40264
1.40001
1.40001
1.40001
1.40322
1.40001
1.4
1.40001
1.40001
1.40001
1.40001
1.40001
1.4
1.40016
0.841588
1.40001
1.40001
1.40001
1.40001
1.40001
1.40001
1.40001
1.40001
1.40001
1.40002
1.39999
1.40001
1.40001
1.40001
1.40001
1.40001
1.41793
1.40001
1.40001
1.40001
1.40001
1.40001
1.40001
1.25099
1.4
1.4134
1.40001
1.40001
1.4043
1.39499
1.40001
1.40001
1.40001
1.41189
1.40001
1.40001
1.40001
1.40001
1.40001
1.40001
1.40051
1.40001
1.39927
1.4
1.40001
1.4
1.40001
1.40008
1.40001
1.40999
1.4
1.39999
1.44128
1.40001
1.40001
1.40001
1.40001
1.40056
1.4
1.40001
1.40001
1.40001
1.40001
1.40001
1.40001
1.40001
1.40001
1.39993
1.40001
1.4
1.45621
1.40001
1.40001
1.39874
1.48186
1.40742
1.40001
1.40024
1.40001
1.4
1.27135
1.40696
1.40001
1.4
1.40005
1.40001
1.4
1.4
1.40001
1.40001
1.40001
1.40001
1.40174
1.40001
1.40001
1.40021
1.40001
1.4594
1.40001
1.40001
1.40001
1.40001
1.20549
1.40001
1.40001
1.40001
1.39998
1.40001
1.4
1.40001
1.35371
1.39581
1.40001
1.40001
1.40001
1.40001
1.40001
1.40001
1.40001
0.985468
1.36265
1.40494
1.40001
1.40003
1.40001
1.40003
1.40522
1.40001
1.40001
1.38659
1.40001
1.40001
1.4
1.18042
1.40001
1.4
1.43824
1.3962
1.4
1.38132
1.39877
1.39999
1.40001
1.4135
1.40001
1.40001
1.40024
1.40002
1.40001
1.4
1.40001
1.4
1.40001
1.40001
1.40012
1.40001
1.40001
1.42136
1.40001
1.40001
1.40001
1.40001
1.37465
1.40001
1.39932
1.40001
1.4
1.40001
1.40001
1.4
1.40001
1.40001
1.40001
1.39999
1.40001
1.40001
1.40001
1.15993
1.40001
1.40001
1.40001
1.40001
1.40001
1.4
1.40005
1.40001
1.40001
1.40001
1.40001
1.40001
1.39796
1.40001
1.40001
1.40001
1.40401
1.40001
1.40001
1.39998
1.40001
1.40001
1.40003
1.40001
1.37501
1.40001
1.40001
1.3977
1.39952
1.40051
1.40001
1.40001
1.40001
1.40001
1.40001
0.500877
1.40058
1.40006
1.39985
1.40001
1.40001
1.40001
1.40001
1.4
1.40004
1.40001
1.39239
1.40001
1.40004
1.40001
1.4
1.40001
1.40001
1.4
1.40001
1.40001
1.40001
1.40001
1.39978
1.39999
1.39934
1.40016
1.40001
1.39587
1.40003
1.39971
1.40001
1.40001
1.39952
1.4
1.4
1.40179
1.40001
1.40001
1.40001
1.39407
1.4599
1.40001
1.40001
1.40001
1.40001
1.40001
1.40001
1.39938
1.4
1.40001
1.26255
1.40001
1.40001
1.40001
1.40001
1.45157
1.40001
1.4
1.4
1.40001
1.40001
1.39903
1.40001
1.40001
1.40001
1.40001
1.4
1.40001
1.4
1.40001
1.40001
1.4
1.4
1.40001
1.40001
1.40001
1.40001
1.40001
1.40001
1.40001
1.3885
1.40001
1.40003
1.40001
1.40001
1.40047
1.40005
1.40001
1.40001
1.40001
1.40183
1.40001
1.4
1.41187
1.40001
1.40043
1.41612
1.40001
1.40001
1.40001
1.40159
1.40001
1.40097
1.40001
1.40001
1.39999
1.3979
1.40001
1.40001
1.39997
1.40001
1.4
1.40001
1.40001
1.40841
1.40003
1.39997
1.26407
1.4
1.40001
1.40001
1.40001
1.4
1.40001
1.40003
1.40001
1.40005
1.4223
1.40001
1.40001
1.40001
1.40001
1.4
1.40001
1.40001
1.40001
1.40001
1.4
1.40001
1.40001
1.40001
1.40001
1.40001
1.40001
1.40001
1.40001
1.40001
1.40001
1.4
1.40001
1.40001
0.895032
1.40001
1.40001
1.40001
1.40001
1.40013
1.40001
1.40001
1.39975
1.39996
1.40001
1.40002
1.40001
1.40001
1.40001
1.40001
1.40001
1.40004
1.4
1.40001
1.40001
1.39889
1.40001
1.40001
1.40001
1.32032
1.40001
1.40001
1.40001
1.4
1.4
1.40001
1.40001
1.40001
1.4
1.40015
1.40001
1.40001
1.40001
1.40001
1.40001
1.40001
1.3992
1.4
1.40001
1.40001
1.4
1.40001
1.35902
1.4
1.40001
1.40001
1.40001
1.40001
1.4
1.40076
1.40001
1.4
1.40997
1.4033
1.4
1.4
1.40001
1.40001
1.40001
1.40001
1.40001
1.40001
1.40001
1.40001
1.40001
1.40001
1.40001
1.40001
1.40001
1.40001
1.40001
1.40001
1.40001
1.40001
1.40001
1.39998
1.2003
1.38929
1.40001
1.40001
1.39678
1.40001
1.2197
1.40001
1.4
1.40001
1.40001
1.40001
1.40001
1.39605
1.40001
1.40001
1.40001
1.42291
1.4
1.40001
1.40001
1.40001
1.40001
1.40001
1.40001
1.4
1.40001
1.40004
1.40001
1.40001
1.39998
1.39995
1.4
1.40001
1.40001
1.39972
1.40001
1.40001
1.40001
1.40001
1.40001
1.40001
1.40002
1.39985
1.40001
1.39995
1.40001
1.40001
1.39998
1.4
1.40001
1.40001
1.40001
1.40001
1.39253
1.40001
1.4
1.39997
1.39988
1.40001
1.40001
1.40001
1.39612
1.42574
1.40001
1.4
1.40001
1.40001
1.40001
1.39968
1.40001
1.4
1.40001
1.40001
1.40001
1.40001
1.4
1.4
1.39967
1.40001
1.40001
1.40001
1.40001
1.40001
1.43982
1.40001
1.40001
1.40882
1.40001
1.40001
1.40001
1.40001
1.39977
1.40001
1.40001
1.40725
1.40001
1.40001
1.26025
1.40058
1.40001
1.40001
1.42153
1.39941
1.40001
1.40001
1.40001
1.27987
1.42897
1.40001
1.40001
1.4
1.40001
1.40001
1.40002
1.40001
1.40001
1.4
1.40001
1.41632
1.40001
1.40001
1.40001
1.40001
1.38703
0.652996
1.40001
1.40009
1.42438
1.40001
1.40001
1.40001
1.4
1.40001
1.11848
1.39963
1.40001
1.40001
1.40001
1.40001
1.44133
1.40001
1.40001
1.40001
1.40001
1.40001
1.40001
1.40003
1.40001
1.40001
1.40001
1.40001
1.40001
1.40001
1.40004
1.40001
1.40005
1.38099
1.40177
1.4
1.40001
1.3841
1.40001
1.39997
1.40001
1.40521
1.40001
1.40001
1.43807
1.40001
1.40001
1.38449
1.40001
1.40001
1.39999
1.40001
1.4
1.39947
1.40091
1.40001
1.42367
1.40001
1.40001
1.40001
1.40001
1.441
1.40001
1.40001
1.40001
1.40001
1.40001
1.40032
1.39872
1.40001
1.40001
1.39999
1.40001
1.3986
1.40001
1.40417
1.40001
1.40001
1.40001
1.40001
1.40775
1.39998
1.40001
1.40001
1.40001
1.40001
1.4
1.40001
1.40001
1.44493
1.4
1.38514
1.40001
1.40001
1.40001
1.40001
1.40002
1.40001
1.20349
1.39987
1.40001
1.40001
1.42359
1.40001
1.40001
1.40001
1.40001
1.38387
1.40001
1.40791
1.4
1.40001
1.40001
1.40001
1.40001
1.40001
1.40001
1.4
1.40001
1.40001
1.4
1.40001
1.40001
1.40001
1.39972
1.4
1.40001
1.40001
1.40001
1.40001
1.40078
1.40001
1.40001
1.40793
1.40277
1.40179
1.40001
1.37947
1.39976
1.40001
1.40001
1.4332
1.40001
1.40006
1.40001
1.39996
1.42188
1.40001
1.40001
1.39989
1.40095
1.40001
1.40001
1.40001
1.40822
1.40001
1.49409
1.39999
1.40001
1.40001
1.40001
1.4
1.40001
1.40001
1.40001
1.40001
1.40001
1.4
1.40001
1.40001
1.40008
1.40001
1.4
1.31206
1.40001
1.39978
1.40001
1.4
1.39999
1.40001
1.40001
1.40001
1.40001
1.4
1.40001
1.40001
1.40001
1.40001
1.37863
1.40001
1.40001
1.40001
1.40001