/*--------------------------------*- C++ -*----------------------------------*\
  =========                 |
  \\      /  F ield         | OpenFOAM: The Open Source CFD Toolbox
   \\    /   O peration     | Website:  https://openfoam.org
    \\  /    A nd           | Version:  6
     \\/     M anipulation  |
\*---------------------------------------------------------------------------*/
FoamFile
{
    version     2.0;
    format      ascii;
    class       surfaceScalarField;
    location    "1.99";
    object      meshPhi;
}
// * * * * * * * * * * * * * * * * * * * * * * * * * * * * * * * * * * * * * //

dimensions      [0 3 -1 0 0 0 0];

internalField   nonuniform List<scalar> 
44700
(
-0.000550556
0.00109911
-0.00110018
0.00329572
-0.00164784
0.00548606
-0.0021926
0.00766694
-0.00273355
0.00983519
-0.00326967
0.0119847
-0.00380005
0.0141139
-0.0043238
0.0162196
-0.00483992
0.0182944
-0.00534755
0.0203382
-0.00584583
0.0223481
-0.00633382
0.0243155
-0.0068107
0.0262418
-0.00727566
0.0281243
-0.00772782
0.0299532
-0.00816642
0.0317315
-0.00859073
0.0334568
-0.00899994
0.0351184
-0.00939335
0.0367209
-0.00977032
0.0382618
-0.0101301
0.0397299
-0.0104721
0.0411311
-0.0107958
0.0424634
-0.0111005
0.0437148
-0.0113858
0.0448926
-0.0116511
0.0459952
-0.0118959
0.0470103
-0.0121198
0.0479462
-0.0123226
0.0488017
-0.0125036
0.0495644
-0.0126628
0.0502436
-0.0127997
0.0508386
-0.0129142
0.0513368
-0.013006
0.0517487
-0.0130751
0.0520737
-0.0131211
0.0522996
-0.0131442
0.0524377
-0.0131442
0.0524876
-0.0131211
0.0524377
-0.0130751
0.0522996
-0.013006
0.0520738
-0.0129142
0.0517487
-0.0127997
0.0513368
-0.0126628
0.0508386
-0.0125036
0.0502437
-0.0123226
0.0495644
-0.0121198
0.0488018
-0.0118959
0.0479462
-0.0116511
0.0470103
-0.0113858
0.0459953
-0.0111005
0.0448927
-0.0107958
0.0437148
-0.0104721
0.0424634
-0.0101301
0.0411311
-0.00977032
0.0397299
-0.00939335
0.0382619
-0.00899994
0.0367209
-0.00859073
0.0351185
-0.00816642
0.0334569
-0.00772782
0.0317316
-0.00727566
0.0299532
-0.0068107
0.0281243
-0.00633382
0.0262418
-0.00584583
0.0243155
-0.00534755
0.0223482
-0.00483992
0.0203382
-0.0043238
0.0182944
-0.00380006
0.0162192
-0.00326967
0.0141142
-0.00273354
0.011985
-0.00219261
0.00983477
-0.00164784
0.00766715
-0.00110017
0.00548617
-0.000550568
0.00329558
5.02342e-14
0.00109916
0.00055057
-0.00109916
0.00110018
-0.00329558
0.00164786
-0.00548617
0.00219265
-0.00766715
0.0027336
-0.00983477
0.00326975
-0.011985
0.00380017
-0.0141142
0.00432394
-0.0162192
0.0048401
-0.0182944
0.00534777
-0.0203382
0.0058461
-0.0223482
0.00633413
-0.0243155
0.00681106
-0.0262418
0.00727607
-0.0281243
0.00772829
-0.0299532
0.00816694
-0.0317316
0.00859131
-0.0334569
0.00900057
-0.0351185
0.00939404
-0.0367209
0.00977106
-0.0382619
0.0101309
-0.0397299
0.010473
-0.0411311
0.0107967
-0.0424634
0.0111015
-0.0437148
0.0113868
-0.0448927
0.0116521
-0.0459953
0.011897
-0.0470103
0.012121
-0.0479462
0.0123237
-0.0488018
0.0125049
-0.0495644
0.012664
-0.0502437
0.012801
-0.0508386
0.0129155
-0.0513368
0.0130074
-0.0517487
0.0130764
-0.0520738
0.0131225
-0.0522996
0.0131455
-0.0524377
0.0131455
-0.0524876
0.0131225
-0.0524377
0.0130764
-0.0522996
0.0130074
-0.0520737
0.0129155
-0.0517487
0.012801
-0.0513368
0.012664
-0.0508386
0.0125049
-0.0502436
0.0123237
-0.0495644
0.012121
-0.0488017
0.011897
-0.0479462
0.0116521
-0.0470103
0.0113868
-0.0459952
0.0111015
-0.0448926
0.0107967
-0.0437148
0.010473
-0.0424634
0.0101309
-0.0411311
0.00977106
-0.0397299
0.00939404
-0.0382618
0.00900057
-0.0367209
0.00859131
-0.0351184
0.00816694
-0.0334568
0.00772829
-0.0317315
0.00727607
-0.0299532
0.00681106
-0.0281243
0.00633413
-0.0262418
0.0058461
-0.0243155
0.00534777
-0.0223481
0.0048401
-0.0203382
0.00432394
-0.0182944
0.00380016
-0.0162196
0.00326975
-0.0141139
0.00273361
-0.0119847
0.00219264
-0.00983519
0.00164786
-0.00766694
0.00110019
-0.00548606
0.000550558
-0.00329572
-0.00109911
-0.0016507
0.00219628
-0.00329862
0.00658565
-0.00494063
0.0109625
-0.00657396
0.0153204
-0.00819587
0.0196531
-0.00980327
0.0239484
-0.0113935
0.0282029
-0.0129638
0.0324106
-0.0145113
0.0365566
-0.0160333
0.0406407
-0.0175272
0.044657
-0.0189903
0.0485883
-0.0204201
0.0524375
-0.0218142
0.0561991
-0.0231699
0.0598537
-0.0244849
0.0634074
-0.0257571
0.0668549
-0.026984
0.0701752
-0.0281636
0.0733773
-0.0292938
0.0764564
-0.0303726
0.07939
-0.031398
0.08219
-0.0323685
0.0848522
-0.0332821
0.0873528
-0.0341373
0.0897065
-0.0349327
0.0919097
-0.0356668
0.093938
-0.0363383
0.0958083
-0.0369461
0.0975178
-0.037489
0.0990417
-0.0379662
0.100399
-0.0383767
0.101588
-0.03872
0.102583
-0.0389953
0.103407
-0.0392022
0.104056
-0.0393404
0.104507
-0.0394095
0.104783
-0.0394095
0.104883
-0.0393404
0.104783
-0.0392022
0.104508
-0.0389953
0.104056
-0.03872
0.103407
-0.0383767
0.102584
-0.0379662
0.101588
-0.037489
0.100399
-0.0369461
0.0990419
-0.0363383
0.097518
-0.0356668
0.0958084
-0.0349327
0.0939382
-0.0341373
0.0919099
-0.0332821
0.0897067
-0.0323685
0.087353
-0.031398
0.0848524
-0.0303726
0.0821902
-0.0292938
0.0793902
-0.0281636
0.0764567
-0.026984
0.0733775
-0.0257571
0.0701754
-0.0244849
0.0668552
-0.0231699
0.0634076
-0.0218142
0.0598539
-0.0204201
0.0561993
-0.0189903
0.0524377
-0.0175272
0.0485885
-0.0160333
0.0446572
-0.0145113
0.0406408
-0.0129638
0.0365567
-0.0113935
0.0324101
-0.00980327
0.0282037
-0.00819583
0.023949
-0.00657399
0.0196523
-0.00494063
0.0153209
-0.00329859
0.0109627
-0.00165074
0.00658539
1.49258e-13
0.00219639
0.00165075
-0.00219639
0.00329861
-0.00658539
0.00494069
-0.0109627
0.00657411
-0.0153209
0.00819601
-0.0196523
0.00980353
-0.023949
0.0113939
-0.0282037
0.0129642
-0.0324101
0.0145118
-0.0365567
0.0160339
-0.0406408
0.017528
-0.0446572
0.0189913
-0.0485885
0.0204212
-0.0524377
0.0218154
-0.0561993
0.0231713
-0.0598539
0.0244865
-0.0634076
0.0257589
-0.0668552
0.0269859
-0.0701754
0.0281656
-0.0733775
0.029296
-0.0764567
0.030375
-0.0793902
0.0314006
-0.0821902
0.0323712
-0.0848524
0.033285
-0.087353
0.0341404
-0.0897067
0.0349359
-0.0919099
0.0356701
-0.0939382
0.0363417
-0.0958084
0.0369496
-0.097518
0.0374926
-0.0990419
0.0379699
-0.100399
0.0383806
-0.101588
0.0387239
-0.102584
0.0389993
-0.103407
0.0392062
-0.104056
0.0393444
-0.104508
0.0394136
-0.104783
0.0394136
-0.104883
0.0393444
-0.104783
0.0392062
-0.104507
0.0389993
-0.104056
0.0387239
-0.103407
0.0383806
-0.102583
0.0379699
-0.101588
0.0374926
-0.100399
0.0369496
-0.0990417
0.0363417
-0.0975178
0.0356701
-0.0958083
0.0349359
-0.093938
0.0341404
-0.0919097
0.033285
-0.0897065
0.0323712
-0.0873528
0.0314006
-0.0848522
0.030375
-0.08219
0.029296
-0.07939
0.0281656
-0.0764564
0.0269859
-0.0733773
0.0257589
-0.0701752
0.0244865
-0.0668549
0.0231713
-0.0634074
0.0218154
-0.0598537
0.0204212
-0.0561991
0.0189913
-0.0524375
0.017528
-0.0485883
0.0160339
-0.044657
0.0145118
-0.0406407
0.0129642
-0.0365566
0.0113938
-0.0324106
0.00980353
-0.0282029
0.00819604
-0.0239484
0.00657407
-0.0196531
0.00494069
-0.0153204
0.00329865
-0.0109625
0.00165071
-0.00658565
-0.00219628
-0.00274795
0.0032896
-0.00549127
0.00986403
-0.00822475
0.0164197
-0.0109438
0.022947
-0.0136438
0.0294365
-0.0163197
0.03587
-0.0189669
0.0422425
-0.0215811
0.0485448
-0.0241571
0.0547546
-0.0266908
0.0608718
-0.0291779
0.0668875
-0.0316136
0.0727758
-0.0339938
0.0785412
-0.0363145
0.0841753
-0.0385713
0.0896492
-0.0407605
0.0949719
-0.0428783
0.100136
-0.0449208
0.105109
-0.0468844
0.109905
-0.0487659
0.114517
-0.0505617
0.118911
-0.0522689
0.123105
-0.0538844
0.127092
-0.0554053
0.130838
-0.056829
0.134363
-0.0581531
0.137663
-0.0593751
0.140701
-0.060493
0.143502
-0.0615048
0.146063
-0.0624086
0.148345
-0.0632029
0.150378
-0.0638864
0.152159
-0.0644578
0.15365
-0.0649162
0.154883
-0.0652606
0.155856
-0.0654906
0.156532
-0.0656057
0.156945
-0.0656057
0.157095
-0.0654906
0.156945
-0.0652606
0.156532
-0.0649162
0.155856
-0.0644578
0.154883
-0.0638864
0.15365
-0.0632029
0.152159
-0.0624086
0.150379
-0.0615048
0.148346
-0.060493
0.146063
-0.0593751
0.143503
-0.0581531
0.140701
-0.056829
0.137663
-0.0554053
0.134363
-0.0538844
0.130838
-0.0522689
0.127093
-0.0505617
0.123105
-0.0487659
0.118911
-0.0468844
0.114517
-0.0449208
0.109905
-0.0428783
0.105109
-0.0407605
0.100136
-0.0385713
0.0949724
-0.0363145
0.0896497
-0.0339938
0.0841758
-0.0316136
0.0785416
-0.0291779
0.0727762
-0.0266908
0.0668879
-0.0241571
0.0608722
-0.0215811
0.054755
-0.018967
0.0485441
-0.0163197
0.0422438
-0.0136437
0.035871
-0.0109438
0.0294354
-0.00822475
0.0229477
-0.00549121
0.0164201
-0.00274801
0.00986365
2.45312e-13
0.00328977
0.00274802
-0.00328977
0.00549126
-0.00986365
0.00822485
-0.0164201
0.010944
-0.0229477
0.013644
-0.0294354
0.0163201
-0.035871
0.0189675
-0.0422438
0.0215818
-0.0485441
0.0241581
-0.054755
0.026692
-0.0608722
0.0291792
-0.0668879
0.0316151
-0.0727762
0.0339956
-0.0785416
0.0363166
-0.0841758
0.0385737
-0.0896497
0.0407631
-0.0949724
0.0428812
-0.100136
0.0449239
-0.105109
0.0468878
-0.109905
0.0487696
-0.114517
0.0505657
-0.118911
0.0522731
-0.123105
0.053889
-0.127093
0.0554101
-0.130838
0.0568341
-0.134363
0.0581584
-0.137663
0.0593806
-0.140701
0.0604987
-0.143503
0.0615107
-0.146063
0.0624146
-0.148346
0.0632091
-0.150379
0.0638928
-0.152159
0.0644643
-0.15365
0.0649227
-0.154883
0.0652673
-0.155856
0.0654973
-0.156532
0.0656124
-0.156945
0.0656124
-0.157095
0.0654973
-0.156945
0.0652673
-0.156532
0.0649227
-0.155856
0.0644643
-0.154883
0.0638928
-0.15365
0.0632091
-0.152159
0.0624146
-0.150378
0.0615107
-0.148345
0.0604987
-0.146063
0.0593806
-0.143502
0.0581584
-0.140701
0.0568341
-0.137663
0.0554101
-0.134363
0.053889
-0.130838
0.0522731
-0.127092
0.0505657
-0.123105
0.0487696
-0.118911
0.0468878
-0.114517
0.0449239
-0.109905
0.0428812
-0.105109
0.0407631
-0.100136
0.0385737
-0.0949719
0.0363166
-0.0896492
0.0339956
-0.0841753
0.0316151
-0.0785412
0.0291792
-0.0727758
0.026692
-0.0668875
0.0241581
-0.0608718
0.0215818
-0.0547546
0.0189675
-0.0485448
0.0163201
-0.0422425
0.0136441
-0.03587
0.010944
-0.0294365
0.00822485
-0.022947
0.00549132
-0.0164197
0.00274796
-0.00986403
-0.0032896
-0.00384038
0.00437715
-0.00767429
0.0131251
-0.0114944
0.021848
-0.0152944
0.0305333
-0.0190678
0.0391683
-0.0228075
0.0477287
-0.0265071
0.0562079
-0.0301605
0.0645938
-0.0337607
0.0728566
-0.0373016
0.0809961
-0.0407774
0.0890006
-0.0441813
0.0968355
-0.0475078
0.104507
-0.0507511
0.112004
-0.0539051
0.119287
-0.0569646
0.12637
-0.0599243
0.133241
-0.0627787
0.139858
-0.065523
0.14624
-0.0681525
0.152376
-0.0706622
0.158223
-0.073048
0.163803
-0.0753058
0.169109
-0.0774313
0.174093
-0.079421
0.178784
-0.0812715
0.183175
-0.0829793
0.187217
-0.0845415
0.190944
-0.0859556
0.194351
-0.0872187
0.197389
-0.0883288
0.200094
-0.0892841
0.202463
-0.0900826
0.204447
-0.0907232
0.206088
-0.0912046
0.207382
-0.091526
0.208282
-0.0916868
0.208832
-0.0916868
0.209031
-0.091526
0.208832
-0.0912046
0.208282
-0.0907232
0.207383
-0.0900826
0.206088
-0.0892841
0.204448
-0.0883288
0.202464
-0.0872187
0.200094
-0.0859556
0.197389
-0.0845415
0.194352
-0.0829793
0.190945
-0.0812715
0.187218
-0.079421
0.183175
-0.0774313
0.178784
-0.0753058
0.174094
-0.073048
0.16911
-0.0706622
0.163804
-0.0681525
0.158224
-0.065523
0.152377
-0.0627787
0.146241
-0.0599243
0.139859
-0.0569646
0.133242
-0.0539051
0.126371
-0.0507511
0.119288
-0.0475078
0.112005
-0.0441813
0.104508
-0.0407774
0.0968363
-0.0373016
0.0890013
-0.0337607
0.0809968
-0.0301605
0.0728572
-0.0265072
0.0645929
-0.0228075
0.0562098
-0.0190677
0.04773
-0.0152945
0.0391668
-0.0114944
0.0305343
-0.00767421
0.0218486
-0.00384047
0.0131246
3.38221e-13
0.00437739
0.00384048
-0.00437739
0.00767427
-0.0131246
0.0114946
-0.0218486
0.0152947
-0.0305343
0.0190681
-0.0391668
0.022808
-0.04773
0.026508
-0.0562098
0.0301615
-0.0645929
0.0337619
-0.0728572
0.0373032
-0.0809968
0.0407792
-0.0890013
0.0441835
-0.0968363
0.0475103
-0.104508
0.0507539
-0.112005
0.0539083
-0.119288
0.0569682
-0.126371
0.0599283
-0.133242
0.0627831
-0.139859
0.0655277
-0.146241
0.0681576
-0.152377
0.0706678
-0.158224
0.0730539
-0.163804
0.0753121
-0.16911
0.077438
-0.174094
0.079428
-0.178784
0.0812789
-0.183175
0.082987
-0.187218
0.0845495
-0.190945
0.0859638
-0.194352
0.0872271
-0.197389
0.0883375
-0.200094
0.0892929
-0.202464
0.0900916
-0.204448
0.0907323
-0.206088
0.0912138
-0.207383
0.0915353
-0.208282
0.0916962
-0.208832
0.0916962
-0.209031
0.0915353
-0.208832
0.0912138
-0.208282
0.0907323
-0.207382
0.0900916
-0.206088
0.0892929
-0.204447
0.0883375
-0.202463
0.0872271
-0.200094
0.0859638
-0.197389
0.0845495
-0.194351
0.082987
-0.190944
0.0812789
-0.187217
0.079428
-0.183175
0.077438
-0.178784
0.0753121
-0.174093
0.0730539
-0.169109
0.0706678
-0.163803
0.0681576
-0.158223
0.0655277
-0.152376
0.0627831
-0.14624
0.0599283
-0.139858
0.0569682
-0.133241
0.0539083
-0.12637
0.0507539
-0.119287
0.0475103
-0.112004
0.0441835
-0.104507
0.0407792
-0.0968355
0.0373032
-0.0890006
0.0337619
-0.0809961
0.0301615
-0.0728566
0.0265079
-0.0645938
0.022808
-0.0562079
0.0190682
-0.0477287
0.0152947
-0.0391683
0.0114946
-0.0305333
0.00767436
-0.021848
0.0038404
-0.0131251
-0.00437715
-0.00492607
0.00545702
-0.00984385
0.0163631
-0.014744
0.0272381
-0.0196182
0.038066
-0.0244584
0.0488313
-0.0292552
0.0595036
-0.0340008
0.0700747
-0.038687
0.0805294
-0.0433049
0.0908307
-0.0478469
0.100978
-0.0523053
0.110958
-0.0566716
0.120725
-0.0609384
0.130289
-0.0650986
0.139636
-0.0691443
0.148716
-0.0730687
0.157546
-0.0768652
0.166112
-0.0805266
0.174362
-0.0840466
0.182318
-0.0874195
0.189968
-0.0906388
0.197257
-0.093699
0.204214
-0.0965951
0.210829
-0.0993215
0.217042
-0.101874
0.22289
-0.104247
0.228365
-0.106438
0.233404
-0.108442
0.238051
-0.110256
0.242299
-0.111876
0.246086
-0.1133
0.249458
-0.114525
0.252412
-0.115549
0.254886
-0.116371
0.256931
-0.116989
0.258545
-0.117401
0.259666
-0.117607
0.260352
-0.117607
0.2606
-0.117401
0.260352
-0.116989
0.259667
-0.116371
0.258545
-0.115549
0.256931
-0.114525
0.254886
-0.1133
0.252413
-0.111876
0.249459
-0.110256
0.246086
-0.108442
0.2423
-0.106438
0.238052
-0.104247
0.233406
-0.101874
0.228366
-0.0993215
0.222892
-0.0965951
0.217044
-0.093699
0.21083
-0.0906388
0.204216
-0.0874195
0.197259
-0.0840466
0.18997
-0.0805266
0.182319
-0.0768652
0.174363
-0.0730687
0.166113
-0.0691443
0.157547
-0.0650986
0.148718
-0.0609384
0.139637
-0.0566716
0.130291
-0.0523053
0.120727
-0.0478469
0.110959
-0.0433049
0.100979
-0.038687
0.0908316
-0.0340009
0.0805285
-0.0292552
0.0700771
-0.0244582
0.0595054
-0.0196183
0.0488296
-0.014744
0.0380674
-0.00984374
0.0272388
-0.00492618
0.0163626
4.27867e-13
0.00545732
0.0049262
-0.00545732
0.00984382
-0.0163626
0.0147442
-0.0272388
0.0196186
-0.0380674
0.0244588
-0.0488296
0.029256
-0.0595054
0.0340019
-0.0700771
0.0386883
-0.0805285
0.0433066
-0.0908316
0.0478489
-0.100979
0.0523077
-0.110959
0.0566743
-0.120727
0.0609416
-0.130291
0.0651023
-0.139637
0.0691484
-0.148718
0.0730733
-0.157547
0.0768703
-0.166113
0.0805321
-0.174363
0.0840527
-0.182319
0.0874261
-0.18997
0.0906458
-0.197259
0.0937066
-0.204216
0.0966031
-0.21083
0.09933
-0.217044
0.101883
-0.222892
0.104257
-0.228366
0.106448
-0.233406
0.108452
-0.238052
0.110266
-0.2423
0.111887
-0.246086
0.113311
-0.249459
0.114536
-0.252413
0.115561
-0.254886
0.116383
-0.256931
0.117
-0.258545
0.117413
-0.259667
0.117619
-0.260352
0.117619
-0.2606
0.117413
-0.260352
0.117
-0.259666
0.116383
-0.258545
0.115561
-0.256931
0.114536
-0.254886
0.113311
-0.252412
0.111887
-0.249458
0.110266
-0.246086
0.108452
-0.242299
0.106448
-0.238051
0.104257
-0.233404
0.101883
-0.228365
0.09933
-0.22289
0.0966031
-0.217042
0.0937066
-0.210829
0.0906458
-0.204214
0.0874261
-0.197257
0.0840527
-0.189968
0.0805321
-0.182318
0.0768703
-0.174362
0.0730733
-0.166112
0.0691484
-0.157546
0.0651023
-0.148716
0.0609416
-0.139636
0.0566743
-0.130289
0.0523077
-0.120725
0.0478489
-0.110958
0.0433066
-0.100978
0.0386883
-0.0908307
0.0340017
-0.0805294
0.029256
-0.0700747
0.0244589
-0.0595036
0.0196185
-0.0488313
0.0147442
-0.038066
0.00984393
-0.0272381
0.00492609
-0.0163631
-0.00545702
-0.00600312
0.00652731
-0.0119961
0.0195724
-0.0179676
0.0325803
-0.0239076
0.045532
-0.029806
0.0584086
-0.0356517
0.0711741
-0.0414348
0.0838186
-0.0471456
0.0963237
-0.0527733
0.108645
-0.0583083
0.120783
-0.0637415
0.13272
-0.0690624
0.144403
-0.0742622
0.155843
-0.079332
0.167023
-0.0842623
0.177884
-0.0890447
0.188446
-0.0936713
0.198692
-0.0981331
0.20856
-0.102423
0.218076
-0.106533
0.227227
-0.110456
0.235946
-0.114186
0.244267
-0.117715
0.252179
-0.121038
0.259611
-0.124148
0.266606
-0.12704
0.273154
-0.12971
0.279182
-0.132152
0.284741
-0.134362
0.289822
-0.136337
0.294351
-0.138072
0.298385
-0.139565
0.301918
-0.140814
0.304877
-0.141815
0.307323
-0.142567
0.309254
-0.14307
0.310595
-0.143321
0.311415
-0.143321
0.311712
-0.14307
0.311415
-0.142567
0.310596
-0.141815
0.309254
-0.140814
0.307324
-0.139565
0.304878
-0.138072
0.301919
-0.136337
0.298386
-0.134362
0.294352
-0.132152
0.289823
-0.12971
0.284742
-0.12704
0.279184
-0.124148
0.273156
-0.121038
0.266608
-0.117715
0.259613
-0.114186
0.252181
-0.110456
0.244269
-0.106533
0.235948
-0.102423
0.227229
-0.0981331
0.218078
-0.0936713
0.208561
-0.0890447
0.198694
-0.0842623
0.188447
-0.079332
0.177886
-0.0742622
0.167025
-0.0690624
0.155845
-0.0637415
0.144405
-0.0583083
0.132721
-0.0527733
0.120785
-0.0471456
0.108647
-0.0414349
0.0963229
-0.0356517
0.0838216
-0.0298059
0.0711764
-0.0239077
0.0584067
-0.0179676
0.0455337
-0.011996
0.0325813
-0.00600326
0.0195718
5.14089e-13
0.00652769
0.00600328
-0.00652769
0.0119961
-0.0195718
0.0179679
-0.0325813
0.0239081
-0.0455337
0.0298065
-0.0584067
0.0356526
-0.0711764
0.0414361
-0.0838216
0.0471472
-0.0963229
0.0527752
-0.108647
0.0583107
-0.120785
0.0637443
-0.132721
0.0690657
-0.144405
0.074266
-0.155845
0.0793364
-0.167025
0.0842672
-0.177886
0.0890502
-0.188447
0.0936774
-0.198694
0.0981399
-0.208561
0.10243
-0.218078
0.106541
-0.227229
0.110465
-0.235948
0.114195
-0.244269
0.117725
-0.252181
0.121048
-0.259613
0.124158
-0.266608
0.127052
-0.273156
0.129722
-0.279184
0.132164
-0.284742
0.134375
-0.289823
0.13635
-0.294352
0.138085
-0.298386
0.139579
-0.301919
0.140827
-0.304878
0.141829
-0.307324
0.142582
-0.309254
0.143084
-0.310596
0.143335
-0.311415
0.143335
-0.311712
0.143084
-0.311415
0.142582
-0.310595
0.141829
-0.309254
0.140827
-0.307323
0.139579
-0.304877
0.138085
-0.301918
0.13635
-0.298385
0.134375
-0.294351
0.132164
-0.289822
0.129722
-0.284741
0.127052
-0.279182
0.124158
-0.273154
0.121048
-0.266606
0.117725
-0.259611
0.114195
-0.252179
0.110465
-0.244267
0.106541
-0.235946
0.10243
-0.227227
0.0981399
-0.218076
0.0936774
-0.20856
0.0890502
-0.198692
0.0842672
-0.188446
0.0793364
-0.177884
0.074266
-0.167023
0.0690657
-0.155843
0.0637443
-0.144403
0.0583107
-0.13272
0.0527752
-0.120783
0.0471472
-0.108645
0.041436
-0.0963237
0.0356526
-0.0838186
0.0298066
-0.0711741
0.023908
-0.0584086
0.0179679
-0.045532
0.0119962
-0.0325803
0.00600315
-0.0195724
-0.00652731
-0.00706964
0.00758615
-0.0141274
0.0227474
-0.0211598
0.0378653
-0.028155
0.052918
-0.0351014
0.0678835
-0.0419856
0.0827197
-0.0487961
0.0974153
-0.0555215
0.111949
-0.062149
0.12627
-0.0686674
0.140376
-0.0750659
0.154249
-0.0813321
0.167828
-0.0874556
0.181124
-0.0934262
0.194117
-0.0992324
0.20674
-0.104864
0.219015
-0.110313
0.230923
-0.115568
0.242391
-0.120619
0.253452
-0.12546
0.264087
-0.13008
0.27422
-0.134472
0.283892
-0.138628
0.293087
-0.142541
0.301725
-0.146204
0.309854
-0.14961
0.317465
-0.152754
0.324471
-0.15563
0.330931
-0.158233
0.336836
-0.160558
0.3421
-0.162602
0.346788
-0.164361
0.350895
-0.165831
0.354333
-0.16701
0.357177
-0.167896
0.35942
-0.168488
0.360979
-0.168784
0.361932
-0.168784
0.362277
-0.168488
0.361932
-0.167896
0.36098
-0.16701
0.359421
-0.165831
0.357177
-0.164361
0.354335
-0.162602
0.350896
-0.160558
0.34679
-0.158233
0.342101
-0.15563
0.336838
-0.152754
0.330933
-0.14961
0.324473
-0.146204
0.317467
-0.142541
0.309857
-0.138628
0.301727
-0.134472
0.29309
-0.13008
0.283894
-0.12546
0.274223
-0.120619
0.26409
-0.115568
0.253454
-0.110313
0.242394
-0.104864
0.230925
-0.0992324
0.219017
-0.0934262
0.206742
-0.0874556
0.194119
-0.0813321
0.181126
-0.0750659
0.16783
-0.0686674
0.154251
-0.062149
0.140378
-0.0555215
0.126271
-0.0487963
0.111948
-0.0419856
0.0974191
-0.0351012
0.0827226
-0.0281552
0.0678814
-0.0211598
0.0529201
-0.0141272
0.0378666
-0.0070698
0.0227467
5.96772e-13
0.0075866
0.00706983
-0.0075866
0.0141273
-0.0227467
0.02116
-0.0378666
0.0281556
-0.0529201
0.0351019
-0.0678814
0.0419866
-0.0827226
0.0487977
-0.0974191
0.0555233
-0.111948
0.0621513
-0.126271
0.0686702
-0.140378
0.0750692
-0.154251
0.081336
-0.16783
0.0874601
-0.181126
0.0934313
-0.194119
0.0992382
-0.206742
0.104871
-0.219017
0.11032
-0.230925
0.115575
-0.242394
0.120628
-0.253454
0.125469
-0.26409
0.13009
-0.274223
0.134483
-0.283894
0.13864
-0.29309
0.142553
-0.301727
0.146216
-0.309857
0.149624
-0.317467
0.152768
-0.324473
0.155644
-0.330933
0.158248
-0.336838
0.160574
-0.342101
0.162618
-0.34679
0.164376
-0.350896
0.165847
-0.354335
0.167026
-0.357177
0.167913
-0.359421
0.168504
-0.36098
0.1688
-0.361932
0.1688
-0.362277
0.168504
-0.361932
0.167913
-0.360979
0.167026
-0.35942
0.165847
-0.357177
0.164376
-0.354333
0.162618
-0.350895
0.160574
-0.346788
0.158248
-0.3421
0.155644
-0.336836
0.152768
-0.330931
0.149624
-0.324471
0.146216
-0.317465
0.142553
-0.309854
0.13864
-0.301725
0.134483
-0.293087
0.13009
-0.283892
0.125469
-0.27422
0.120628
-0.264087
0.115575
-0.253452
0.11032
-0.242391
0.104871
-0.230923
0.0992382
-0.219015
0.0934313
-0.20674
0.0874601
-0.194117
0.081336
-0.181124
0.0750692
-0.167828
0.0686702
-0.154249
0.0621513
-0.140376
0.0555233
-0.12627
0.0487975
-0.111949
0.0419866
-0.0974153
0.0351021
-0.0827197
0.0281555
-0.0678835
0.02116
-0.052918
0.0141275
-0.0378653
0.00706967
-0.0227474
-0.00758615
-0.00812375
0.00863167
-0.0162338
0.0258825
-0.0243148
0.043084
-0.0323531
0.0602112
-0.0403351
0.0772392
-0.0482458
0.0941202
-0.0560718
0.110841
-0.0638001
0.127378
-0.0714157
0.143672
-0.0789061
0.159723
-0.0862586
0.175508
-0.0934591
0.190958
-0.100496
0.206086
-0.107356
0.22087
-0.114028
0.235233
-0.1205
0.249199
-0.126761
0.262749
-0.132799
0.275798
-0.138604
0.288382
-0.144167
0.300484
-0.149476
0.312014
-0.154522
0.323018
-0.159299
0.333481
-0.163795
0.343309
-0.168004
0.352559
-0.171918
0.361218
-0.175531
0.36919
-0.178835
0.37654
-0.181827
0.383259
-0.184499
0.389248
-0.186847
0.394583
-0.188868
0.399256
-0.190557
0.403168
-0.191912
0.406403
-0.19293
0.408956
-0.19361
0.41073
-0.19395
0.411814
-0.19395
0.412207
-0.19361
0.411815
-0.19293
0.410731
-0.191912
0.408957
-0.190557
0.406404
-0.188868
0.40317
-0.186847
0.399257
-0.184499
0.394585
-0.181827
0.38925
-0.178835
0.383261
-0.175531
0.376543
-0.171918
0.369192
-0.168004
0.361221
-0.163795
0.352562
-0.159299
0.343312
-0.154522
0.333484
-0.149476
0.323021
-0.144167
0.312017
-0.138604
0.300488
-0.132799
0.288386
-0.126761
0.275801
-0.1205
0.262752
-0.114028
0.249203
-0.107356
0.235236
-0.100496
0.220873
-0.0934591
0.206089
-0.0862586
0.190961
-0.0789061
0.17551
-0.0714157
0.159726
-0.0638001
0.143674
-0.056072
0.127377
-0.0482458
0.110846
-0.040335
0.0941236
-0.0323532
0.077237
-0.0243148
0.0602137
-0.0162336
0.0430855
-0.00812394
0.0258817
6.75786e-13
0.00863221
0.00812397
-0.00863221
0.0162338
-0.0258817
0.0243151
-0.0430855
0.0323538
-0.0602137
0.0403358
-0.077237
0.048247
-0.0941236
0.0560736
-0.110846
0.0638021
-0.127377
0.0714183
-0.143674
0.0789092
-0.159726
0.0862623
-0.17551
0.0934635
-0.190961
0.100501
-0.206089
0.107362
-0.220873
0.114035
-0.235236
0.120508
-0.249203
0.126769
-0.262752
0.132808
-0.275801
0.138614
-0.288386
0.144177
-0.300488
0.149487
-0.312017
0.154535
-0.323021
0.159311
-0.333484
0.163808
-0.343312
0.168018
-0.352562
0.171933
-0.361221
0.175546
-0.369192
0.178852
-0.376543
0.181843
-0.383261
0.184516
-0.38925
0.186865
-0.394585
0.188886
-0.399257
0.190575
-0.40317
0.19193
-0.406404
0.192949
-0.408957
0.193629
-0.410731
0.193969
-0.411815
0.193969
-0.412207
0.193629
-0.411814
0.192949
-0.41073
0.19193
-0.408956
0.190575
-0.406403
0.188886
-0.403168
0.186865
-0.399256
0.184516
-0.394583
0.181843
-0.389248
0.178852
-0.383259
0.175546
-0.37654
0.171933
-0.36919
0.168018
-0.361218
0.163808
-0.352559
0.159311
-0.343309
0.154535
-0.333481
0.149487
-0.323018
0.144177
-0.312014
0.138614
-0.300484
0.132808
-0.288382
0.126769
-0.275798
0.120508
-0.262749
0.114035
-0.249199
0.107362
-0.235233
0.100501
-0.22087
0.0934635
-0.206086
0.0862623
-0.190958
0.0789092
-0.175508
0.0714183
-0.159723
0.0638021
-0.143672
0.0560734
-0.127378
0.048247
-0.110841
0.040336
-0.0941202
0.0323536
-0.0772392
0.0243151
-0.0602112
0.016234
-0.043084
0.00812379
-0.0258825
-0.00863167
-0.00916362
0.00966205
-0.0183118
0.0289721
-0.0274272
0.048227
-0.0364943
0.0673987
-0.0454982
0.0864594
-0.0544214
0.105355
-0.0632492
0.124073
-0.0719667
0.142583
-0.0805572
0.160823
-0.0890063
0.17879
-0.0972999
0.196459
-0.105422
0.213753
-0.113359
0.230687
-0.121098
0.247236
-0.128624
0.263313
-0.135925
0.278947
-0.142987
0.294114
-0.149798
0.308721
-0.156346
0.322807
-0.162621
0.336354
-0.168609
0.349259
-0.174302
0.361577
-0.179689
0.373289
-0.184761
0.38429
-0.189509
0.394645
-0.193924
0.404338
-0.197999
0.413261
-0.201727
0.421489
-0.205101
0.42901
-0.208115
0.435714
-0.210764
0.441686
-0.213043
0.446916
-0.214949
0.451296
-0.216477
0.454917
-0.217626
0.457774
-0.218393
0.45976
-0.218777
0.460974
-0.218777
0.461413
-0.218393
0.460974
-0.217626
0.459761
-0.216477
0.457775
-0.214949
0.454918
-0.213043
0.451297
-0.210764
0.446918
-0.208115
0.441688
-0.205101
0.435717
-0.201727
0.429013
-0.197999
0.421492
-0.193924
0.413264
-0.189509
0.404341
-0.184761
0.394649
-0.179689
0.384294
-0.174302
0.373293
-0.168609
0.361581
-0.162621
0.349264
-0.156346
0.336358
-0.149798
0.322812
-0.142987
0.308725
-0.135925
0.294118
-0.128624
0.278951
-0.121098
0.263317
-0.113359
0.24724
-0.105422
0.230691
-0.0972999
0.213757
-0.0890063
0.196462
-0.0805572
0.178793
-0.0719667
0.160825
-0.0632494
0.142583
-0.0544214
0.124078
-0.045498
0.10536
-0.0364945
0.0864571
-0.0274272
0.0674017
-0.0183116
0.0482288
-0.00916382
0.0289714
7.51042e-13
0.00966267
0.00916386
-0.00966267
0.0183118
-0.0289714
0.0274275
-0.0482288
0.0364951
-0.0674017
0.0454989
-0.0864571
0.0544227
-0.10536
0.0632512
-0.124078
0.0719689
-0.142583
0.08056
-0.160825
0.0890098
-0.178793
0.0973041
-0.196462
0.105427
-0.213757
0.113365
-0.230691
0.121105
-0.24724
0.128632
-0.263317
0.135933
-0.278951
0.142996
-0.294118
0.149808
-0.308725
0.156357
-0.322812
0.162632
-0.336358
0.168622
-0.349264
0.174315
-0.361581
0.179704
-0.373293
0.184776
-0.384294
0.189525
-0.394649
0.193941
-0.404341
0.198017
-0.413264
0.201745
-0.421492
0.20512
-0.429013
0.208134
-0.435717
0.210784
-0.441688
0.213063
-0.446918
0.214969
-0.451297
0.216498
-0.454918
0.217647
-0.457775
0.218414
-0.459761
0.218798
-0.460974
0.218798
-0.461413
0.218414
-0.460974
0.217647
-0.45976
0.216498
-0.457774
0.214969
-0.454917
0.213063
-0.451296
0.210784
-0.446916
0.208134
-0.441686
0.20512
-0.435714
0.201745
-0.42901
0.198017
-0.421489
0.193941
-0.413261
0.189525
-0.404338
0.184776
-0.394645
0.179704
-0.38429
0.174315
-0.373289
0.168622
-0.361577
0.162632
-0.349259
0.156357
-0.336354
0.149808
-0.322807
0.142996
-0.308721
0.135933
-0.294114
0.128632
-0.278947
0.121105
-0.263313
0.113365
-0.247236
0.105427
-0.230687
0.0973041
-0.213753
0.0890098
-0.196459
0.08056
-0.17879
0.0719689
-0.160823
0.063251
-0.142583
0.0544227
-0.124073
0.0454991
-0.105355
0.0364949
-0.0864594
0.0274275
-0.0673987
0.018312
-0.048227
0.00916365
-0.0289721
-0.00966205
-0.0101874
0.0106755
-0.0203577
0.0320109
-0.0304914
0.0532854
-0.0405716
0.074468
-0.0505814
0.0955279
-0.0605016
0.116406
-0.0703156
0.137086
-0.080007
0.157538
-0.0895573
0.177691
-0.0989504
0.197542
-0.108171
0.217065
-0.1172
0.236173
-0.126024
0.254884
-0.134628
0.273168
-0.142995
0.290932
-0.151111
0.308205
-0.158962
0.324963
-0.166534
0.341102
-0.173814
0.356666
-0.180789
0.371633
-0.187447
0.385893
-0.193776
0.399502
-0.199765
0.412443
-0.205403
0.424598
-0.210681
0.436038
-0.21559
0.446748
-0.220121
0.456607
-0.224265
0.465698
-0.228016
0.474008
-0.231366
0.481415
-0.234311
0.488013
-0.236845
0.493792
-0.238964
0.498631
-0.240663
0.502632
-0.24194
0.50579
-0.242793
0.507984
-0.243219
0.509325
-0.243219
0.50981
-0.242793
0.509325
-0.24194
0.507985
-0.240663
0.505791
-0.238964
0.502634
-0.236845
0.498634
-0.234311
0.493795
-0.231366
0.488016
-0.228016
0.481418
-0.224265
0.474011
-0.220121
0.465702
-0.21559
0.456611
-0.210681
0.446752
-0.205403
0.436043
-0.199765
0.424603
-0.193776
0.412448
-0.187447
0.399508
-0.180789
0.385898
-0.173814
0.371638
-0.166534
0.356671
-0.158962
0.341107
-0.151111
0.324968
-0.142995
0.30821
-0.134628
0.290937
-0.126024
0.273172
-0.1172
0.254888
-0.108171
0.236178
-0.0989504
0.217069
-0.0895573
0.197546
-0.080007
0.177694
-0.0703158
0.157538
-0.0605016
0.137092
-0.0505811
0.116411
-0.0405718
0.0955256
-0.0304914
0.0744715
-0.0203574
0.0532875
-0.0101876
0.0320102
8.22431e-13
0.0106762
0.0101877
-0.0106762
0.0203576
-0.0320102
0.0304918
-0.0532875
0.0405725
-0.0744715
0.0505821
-0.0955256
0.060503
-0.116411
0.0703178
-0.137092
0.0800095
-0.157538
0.0895604
-0.177694
0.0989542
-0.197546
0.108175
-0.217069
0.117206
-0.236178
0.126031
-0.254888
0.134635
-0.273172
0.143003
-0.290937
0.15112
-0.30821
0.158972
-0.324968
0.166545
-0.341107
0.173826
-0.356671
0.180802
-0.371638
0.18746
-0.385898
0.19379
-0.399508
0.19978
-0.412448
0.20542
-0.424603
0.210699
-0.436043
0.215608
-0.446752
0.220139
-0.456611
0.224284
-0.465702
0.228036
-0.474011
0.231387
-0.481418
0.234333
-0.488016
0.236867
-0.493795
0.238986
-0.498634
0.240685
-0.502634
0.241963
-0.505791
0.242816
-0.507985
0.243242
-0.509325
0.243242
-0.50981
0.242816
-0.509325
0.241963
-0.507984
0.240685
-0.50579
0.238986
-0.502632
0.236867
-0.498631
0.234333
-0.493792
0.231387
-0.488013
0.228036
-0.481415
0.224284
-0.474008
0.220139
-0.465698