/*--------------------------------*- C++ -*----------------------------------*\
  =========                 |
  \\      /  F ield         | OpenFOAM: The Open Source CFD Toolbox
   \\    /   O peration     | Website:  https://openfoam.org
    \\  /    A nd           | Version:  6
     \\/     M anipulation  |
\*---------------------------------------------------------------------------*/
FoamFile
{
    version     2.0;
    format      ascii;
    class       surfaceScalarField;
    location    "2.4";
    object      phi;
}
// * * * * * * * * * * * * * * * * * * * * * * * * * * * * * * * * * * * * * //

dimensions      [0 3 -1 0 0 0 0];

internalField   nonuniform List<scalar> 
8193
(
0.159625
-0.365285
-0.162639
0.14641
-0.379644
0.130961
-0.383599
0.116301
-0.384855
0.103627
-0.386026
0.0933432
-0.386925
0.0855479
-0.387407
0.0801648
-0.387392
0.0769878
-0.386629
0.0757681
-0.38488
0.0761473
-0.381919
0.0777067
-0.377554
0.079955
-0.371525
0.0824305
-0.363741
0.0847133
-0.354189
0.0864734
-0.34311
0.0873921
-0.330715
0.0870794
-0.317166
0.0851035
-0.301953
0.0814846
-0.284115
0.0776783
-0.260938
0.0744964
-0.22614
0.0691802
-0.17977
0.0596351
-0.145459
0.0491158
-0.150318
0.0382914
-0.188195
0.028195
-0.260035
0.0183861
-0.346082
0.00842382
-0.424207
-0.00161568
-0.473013
-0.0119826
-0.481662
-0.0231653
-0.470436
-0.035879
-0.453944
-0.0505873
-0.441106
-0.0672891
-0.431371
-0.0860826
-0.423276
-0.107233
-0.416647
-0.130928
-0.411499
-0.156146
-0.407961
-0.180041
-0.404197
-0.394039
-0.196846
0.159974
-0.358583
-0.173797
0.137886
-0.3651
0.117076
-0.370597
0.0994423
-0.37514
0.0850379
-0.379509
0.0739904
-0.383599
0.0663198
-0.38717
0.0618735
-0.389979
0.0603954
-0.391684
0.0615084
-0.391939
0.0647152
-0.390409
0.0694624
-0.386859
0.0750994
-0.380943
0.0811228
-0.372728
0.0870107
-0.362195
0.092338
-0.349694
0.096683
-0.335449
0.0994612
-0.319471
0.100063
-0.301237
0.0978189
-0.279735
0.0938506
-0.254056
0.0912961
-0.219945
0.0890211
-0.173189
0.0811213
-0.132663
0.0695023
-0.133298
0.0551614
-0.168047
0.0413862
-0.240157
0.0288523
-0.327271
0.0172771
-0.406312
0.00668424
-0.456201
-0.00337813
-0.46563
-0.0135768
-0.454672
-0.0248185
-0.437701
-0.037703
-0.423941
-0.0523591
-0.413312
-0.068994
-0.404261
-0.0880154
-0.396404
-0.109963
-0.389607
-0.135445
-0.383907
-0.164027
-0.378483
-0.372805
-0.189609
0.139878
-0.343992
-0.165503
0.114839
-0.351019
0.0929492
-0.359417
0.0747019
-0.367199
0.0601607
-0.374735
0.0494529
-0.382002
0.0426291
-0.388701
0.039592
-0.394459
0.0399725
-0.398679
0.043338
-0.400965
0.0490807
-0.400822
0.0566153
-0.39805
0.0651866
-0.392145
0.0743314
-0.383479
0.0834356
-0.371892
0.0919161
-0.357772
0.0991959
-0.341363
0.104527
-0.322512
0.107242
-0.300785
0.106855
-0.275363
0.103628
-0.246094
0.100463
-0.211372
0.098839
-0.165572
0.0931281
-0.120475
0.0826415
-0.11596
0.0680645
-0.146367
0.0525218
-0.217392
0.0380548
-0.305606
0.0250861
-0.386325
0.013825
-0.438264
0.003902
-0.449543
-0.00560696
-0.439686
-0.0156945
-0.422998
-0.0270584
-0.408998
-0.0399019
-0.398091
-0.0544926
-0.388652
-0.0712617
-0.380113
-0.0906409
-0.372318
-0.113273
-0.365067
-0.139638
-0.357666
-0.350611
-0.169153
0.116463
-0.329358
-0.145531
0.0905865
-0.338989
0.0681397
-0.350062
0.0495504
-0.360803
0.0352374
-0.371601
0.0253969
-0.382235
0.0200542
-0.392256
0.0188865
-0.400965
0.0215053
-0.407717
0.0274003
-0.412012
0.0358576
-0.413165
0.0463391
-0.411165
0.0579496
-0.405163
0.0702979
-0.396043
0.0826188
-0.383281
0.0941628
-0.36729
0.104176
-0.348315
0.111827
-0.326136
0.116299
-0.300338
0.117168
-0.270504
0.114513
-0.236992
0.110685
-0.20048
0.108573
-0.155888
0.104338
-0.108278
0.0948017
-0.0982031
0.0806801
-0.123906
0.0641601
-0.192566
0.0481078
-0.281445
0.0337095
-0.364186
0.0215098
-0.418874
0.0114077
-0.432988
0.00223594
-0.42499
-0.00707825
-0.409281
-0.0173146
-0.395669
-0.0287291
-0.385074
-0.0416011
-0.375833
-0.0563765
-0.367194
-0.0735801
-0.358895
-0.093787
-0.350655
-0.117254
-0.34206
-0.333174
-0.144626
0.0891903
-0.316455
-0.119324
0.0629469
-0.328894
0.0405374
-0.342566
0.0225657
-0.356391
0.0094523
-0.370605
0.00132726
-0.384723
-0.00205331
-0.397949
-0.000991838
-0.409546
0.00408321
-0.418763
0.0126051
-0.424978
0.0238137
-0.427327
0.0373137
-0.426176
0.0519536
-0.419929
0.067457
-0.410355
0.0826935
-0.396081
0.096926
-0.377922
0.109158
-0.355866
0.118537
-0.329844
0.124398
-0.299636
0.126234
-0.264985
0.124113
-0.226836
0.119864
-0.187632
0.116893
-0.14388
0.113608
-0.0956509
0.105307
-0.0804009
0.092504
-0.101598
0.075923
-0.166644
0.0588759
-0.255396
0.0431313
-0.339968
0.0298196
-0.397812
0.0192673
-0.415612
0.0101314
-0.410163
0.00125733
-0.396055
-0.00820295
-0.383398
-0.0185645
-0.373636
-0.0300967
-0.365139
-0.0432042
-0.356996
-0.0583991
-0.348812
-0.0762087
-0.340258
-0.097073
-0.330963
-0.320805
-0.121576
0.0589863
-0.305658
-0.0891537
0.0331827
-0.320916
0.0117762
-0.337318
-0.00462744
-0.35439
-0.0157414
-0.372079
-0.0217346
-0.389476
-0.0228183
-0.405767
-0.0193467
-0.420094
-0.0117185
-0.431682
-0.000504647
-0.439752
0.0135535
-0.443282
0.0302026
-0.443136
0.0478233
-0.436362
0.0663016
-0.426238
0.0840527
-0.409927
0.100287
-0.389042
0.114048
-0.363411
0.124477
-0.333062
0.13109
-0.298157
0.133594
-0.258633
0.131931
-0.215676
0.127666
-0.173358
0.123956
-0.129786
0.121139
-0.0822224
0.114329
-0.0629063
0.103382
-0.080061
0.0876135
-0.140555
0.0702841
-0.228205
0.0535362
-0.314016
0.0390851
-0.37502
0.0278839
-0.397148
0.0185083
-0.394822
0.00980453
-0.382901
0.00080864
-0.371683
-0.00885695
-0.363188
-0.0194489
-0.355892
-0.031318
-0.34877
-0.044938
-0.341275
-0.0607591
-0.333066
-0.0792332
-0.323732
-0.31303
-0.100883
0.0267331
-0.297453
-0.055749
0.00237261
-0.31542
-0.0169787
-0.334792
-0.0309179
-0.35518
-0.0395948
-0.376012
-0.0431307
-0.396435
-0.0417522
-0.415555
-0.0358445
-0.432377
-0.0256398
-0.446297
-0.0116732
-0.456247
0.0053274
-0.461024
0.0251894
-0.462056
0.0455522
-0.454207
0.066554
-0.443261
0.0861113
-0.424161
0.103441
-0.399822
0.117918
-0.370232
0.128618
-0.335122
0.135202
-0.295243
0.137779
-0.250982
0.136785
-0.203856
0.133077
-0.158362
0.129255
-0.114362
0.126715
-0.0679177
0.121581
-0.0460083
0.113045
-0.0599348
0.0988825
-0.115159
0.0820908
-0.200734
0.0649447
-0.286948
0.0494839
-0.350612
0.037534
-0.377446
0.0277259
-0.378685
0.0189597
-0.369459
0.010178
-0.360101
0.000916916
-0.353221
-0.00908562
-0.347479
-0.020125
-0.341797
-0.0326246
-0.335473
-0.046951
-0.328187
-0.0635319
-0.319426
-0.308924
-0.0827714
-0.00565575
-0.292311
-0.0210303
-0.0274189
-0.312922
-0.0439394
-0.335198
-0.0551277
-0.358557
-0.0611187
-0.382231
-0.0620939
-0.40535
-0.0582855
-0.426991
-0.0500531
-0.446055
-0.0373
-0.462408
-0.0205682
-0.474356
-0.000682001
-0.480423
0.0222209
-0.482731
0.0447836
-0.472929
0.0675447
-0.460698
0.0879153
-0.437854
0.10551
-0.409517
0.119604
-0.375337
0.129551
-0.335121
0.135401
-0.29032
0.138145
-0.24226
0.138086
-0.191778
0.135297
-0.143144
0.132024
-0.0983985
0.130017
-0.0531151
0.126765
-0.0300219
0.12098
-0.0416543
0.109292
-0.0914003
0.0939315
-0.173927
0.0771642
-0.259568
0.0611153
-0.325004
0.048368
-0.356422
0.0380386
-0.361593
0.0290546
-0.355461
0.0203152
-0.34833
0.0112514
-0.343331
0.00155914
-0.339378
-0.00900881
-0.335428
-0.020826
-0.330625
-0.0341733
-0.324712
-0.0494157
-0.317049
-0.307435
-0.0668073
-0.0362491
-0.290468
0.0128241
-0.0546587
-0.313565
-0.0679268
-0.338426
-0.0761159
-0.364312
-0.0793679
-0.390406
-0.0778884
-0.415799
-0.071854
-0.439622
-0.0615236
-0.46071
-0.0463568
-0.479742
-0.0270439
-0.493805
-0.00467561
-0.50103
0.0206373
-0.504524
0.0445313
-0.491684
0.068031
-0.477582
0.08804
-0.449911
0.10484
-0.417168
0.117542
-0.377831
0.126839
-0.333287
0.132677
-0.284242
0.135093
-0.232114
0.135321
-0.178936
0.133609
-0.127999
0.131375
-0.0825185
0.130302
-0.0383409
0.129333
-0.0154626
0.126686
-0.0257061
0.118386
-0.070274
0.105387
-0.148777
0.0897755
-0.232692
0.0738497
-0.29892
0.0604722
-0.334223
0.0495988
-0.34347
0.0403159
-0.340739
0.0315242
-0.336145
0.0225343
-0.333224
0.0129777
-0.331195
0.00263422
-0.329148
-0.00884216
-0.326074
-0.0216514
-0.321829
-0.0361047
-0.315626
-0.307396
-0.0523345
-0.062807
-0.291778
0.0431564
-0.0775134
-0.317129
-0.0874004
-0.344117
-0.0926294
-0.371996
-0.0933437
-0.399997
-0.0897522
-0.427171
-0.081856
-0.452873
-0.0698075
-0.475807
-0.0526028
-0.497819
-0.0312682
-0.513975
-0.00729806
-0.521945
0.0193386
-0.526362
0.0433652
-0.509319
0.0664763
-0.492856
0.0848658
-0.459164
0.0996974
-0.421708
0.110022
-0.376849
0.116981
-0.328065
0.121746
-0.276089
0.124652
-0.221502
0.126319
-0.166624
0.126758
-0.114142
0.126239
-0.0675352
0.126851
-0.0244739
0.128738
-0.0030215
0.129587
-0.012552
0.125594
-0.0527886
0.115926
-0.126324
0.102327
-0.207224
0.087286
-0.273146
0.073658
-0.311226
0.0623875
-0.32443
0.0528336
-0.325252
0.0439666
-0.323418
0.0350196
-0.322721
0.0255325
-0.322676
0.0152876
-0.322595
0.00394109
-0.321321
-0.00863538
-0.318894
-0.0227327
-0.314327
-0.307762
-0.0383893
-0.0830607
-0.296043
0.0675881
-0.0941235
-0.323042
-0.100836
-0.351633
-0.10347
-0.380889
-0.102118
-0.41025
-0.0969956
-0.438659
-0.0877519
-0.466065
-0.0746047
-0.490612
-0.056086
-0.515846
-0.0336907
-0.533877
-0.00945111
-0.541841
0.0170462
-0.54682
0.0398153
-0.524506
0.0614331
-0.5055
0.0768889
-0.464403
0.088601
-0.422103
0.0956376
-0.371611
0.100024
-0.319356
0.103326
-0.26561
0.106504
-0.210349
0.109926
-0.155302
0.113191
-0.10239
0.115473
-0.0546701
0.118783
-0.0126574
0.124275
0.00643225
0.129138
-0.0028198
0.130301
-0.0398875
0.12492
-0.107603
0.114248
-0.184139
0.100797
-0.248425
0.0875447
-0.288071
0.076176
-0.304757
0.0665035
-0.309107
0.0576276
-0.310138
0.048775
-0.311759
0.0393909
-0.313696
0.0292362
-0.315559
0.0179469
-0.316043
0.00545685
-0.315456
-0.0085366
-0.31254
-0.307732
-0.0239998
-0.0947308
-0.302366
0.0830629
-0.102685
-0.330327
-0.106868
-0.359967
-0.107625
-0.389984
-0.104923
-0.420217
-0.0990801
-0.449286
-0.0891953
-0.478371
-0.0758635
-0.504137
-0.0571328
-0.532686
-0.0349097
-0.552277
-0.0119033
-0.559246
0.0126793
-0.564178
0.0328771
-0.536009
0.051854
-0.514462
0.062944
-0.464305
0.07054
-0.41748
0.0737115
-0.36167
0.0757587
-0.307531
0.0780162
-0.253367
0.0812937
-0.198629
0.0862657
-0.144909
0.0923054
-0.0928311
0.0982967
-0.044968
0.105315
-0.00403164
0.115248
0.0119404
0.124947
0.00255638
0.131886
-0.0322903
0.131688
-0.0935938
0.124834
-0.164396
0.113725
-0.225558
0.101545
-0.265482
0.090518
-0.284894
0.0809813
-0.292537
0.0722696
-0.296422
0.0636434
-0.300383
0.0544792
-0.304249
0.0445019
-0.307962
0.0333163
-0.310077
0.0209052
-0.311251
0.00692073
-0.309861
-0.306811
-0.00847838
-0.0961549
-0.309225
0.0872059
-0.10199
-0.337639
-0.104555
-0.367921
-0.104412
-0.398077
-0.101291
-0.428802
-0.0956845
-0.457974
-0.0860331
-0.488844
-0.0735761
-0.515289
-0.0560385
-0.546936
-0.0356107
-0.567583
-0.0152865
-0.572766
0.00600548
-0.577136
0.0221831
-0.542473
0.0371327
-0.518465
0.0424096
-0.457544
0.0452108
-0.407289
0.0444591
-0.347104
0.044399
-0.292962
0.0457099
-0.239601
0.0489416
-0.186338
0.0553128
-0.135437
0.0644753
-0.0859545
0.0746276
-0.0390166
0.0861586
0.000468915
0.101328
0.012585
0.11678
0.00254728
0.129766
-0.0303713
0.135454
-0.0850918
0.133184
-0.148838
0.125224
-0.205414
0.114852
-0.244238
0.104753
-0.265452
0.0956934
-0.27588
0.0874127
-0.282512
0.0792145
-0.288739
0.0704431
-0.294419
0.0607931
-0.299832
0.0498426
-0.303393
0.0375941
-0.306156
0.0236475
-0.306063
-0.304668
0.00828822
-0.08676
-0.3152
0.0794418
-0.09163
-0.343559
-0.0937022
-0.374164
-0.0937488
-0.403926
-0.0911732
-0.434934
-0.0867394
-0.463726
-0.0782672
-0.496511
-0.0676617
-0.523096
-0.0526373
-0.557306
-0.0356448
-0.57821
-0.0197099
-0.58077
-0.00223205
-0.585263
0.00799023
-0.542069
0.0170232
-0.515737
0.015712
-0.44347
0.013518
-0.391462
0.00941539
-0.328622
0.00757282
-0.276115
0.00761879
-0.224133
0.0107352
-0.173548
0.018274
-0.126792
0.0296264
-0.0809639
0.0443633
-0.0373725
0.0614711
-0.000347694
0.0825819
0.00753987
0.104612
-0.00378771
0.123731
-0.0343222
0.135682
-0.0825686
0.138519
-0.138073
0.134448
-0.188803
0.126594
-0.225103
0.117966
-0.247009
0.109826
-0.259599
0.102303
-0.268732
0.094761
-0.277028
0.0865703
-0.284341
0.077426
-0.291263
0.06689
-0.296052
0.0549307
-0.300144
0.0411701
-0.301102
-0.301165
0.0259528
-0.0669322
-0.318791
0.0599689
-0.0721036
-0.346649
-0.0747718
-0.377484
-0.0760174
-0.406443
-0.074866
-0.437693
-0.0724359
-0.465699
-0.0660722
-0.500461
-0.0581845
-0.526734
-0.0468734
-0.562661
-0.0341283
-0.583427
-0.0235784
-0.582358
-0.0112536
-0.587329
-0.00888289
-0.533019
-0.00760906
-0.504559
-0.0152953
-0.422428
-0.0221695
-0.370449
-0.028867
-0.307118
-0.0326606
-0.256959
-0.0334656
-0.207518
-0.0300517
-0.16081
-0.0224133
-0.118044
-0.0101362
-0.0767274
0.00934168
-0.040322
0.0321646
-0.00674515
0.0594209
-0.00351958
0.0887298
-0.0172633
0.114099
-0.0443664
0.132242
-0.0860518
0.140428
-0.132432
0.140766
-0.176323
0.135756
-0.208472
0.129086
-0.230107
0.122233
-0.2441
0.115807
-0.255444
0.109078
-0.26541
0.101678
-0.274208
0.0932017
-0.282376
0.0832269
-0.288135
0.071853
-0.293415
0.0584772
-0.295047
-0.29624
0.0435055
-0.0375589
-0.318571
0.0296352
-0.0443827
-0.345484
-0.0487151
-0.376773
-0.0522672
-0.404509
-0.0532008
-0.436433
-0.0536902
-0.463017
-0.0497672
-0.500422
-0.0455344
-0.525343
-0.038594
-0.562434
-0.030739
-0.582695
-0.0261902
-0.577027
-0.0216222
-0.580851
-0.0277253
-0.514828
-0.0352392
-0.484035
-0.048071
-0.395782
-0.0586022
-0.345408
-0.0676611
-0.282962
-0.0727458
-0.236291
-0.0733571
-0.190936
-0.0685809
-0.149324
-0.0598193
-0.110348
-0.0455354
-0.0744564
-0.0235633
-0.0457438
0.00296092
-0.0168315
0.0360106
-0.0203586
0.071269
-0.0366623
0.102171
-0.0598948
0.125649
-0.0947846
0.138472
-0.131296
0.143256
-0.168099
0.140708
-0.19404
0.136671
-0.21549
0.131228
-0.229564
0.12647
-0.243262
0.120474
-0.253837
0.114257
-0.264427
0.106438
-0.27316
0.0974035
-0.279999
0.0863241
-0.285636
0.0735669
-0.288066
-0.289493
0.0585292
-0.000916383
-0.00955921
-0.00999901
-0.0172383
-0.0234562
-0.0276618
-0.0310324
-0.0313011
-0.0305628
-0.0289025
-0.0261475
-0.0285391
-0.0333228
-0.048288
-0.0628162
-0.0789413
-0.092567
-0.103455
-0.109366
-0.108853
-0.102103
-0.0877751
-0.069556
-0.0441374
-0.013611
0.0215784
0.0571629
0.0895711
0.116244
0.131381
0.139801
0.140126
0.139341
0.135881
0.132862
0.128122
0.123006
0.115856
0.107125
0.0964894
0.0835047
0.0684965
0.293311
0.0519774
0.296776
0.0450581
0.295813
0.0328758
0.290162
0.0185619
0.280227
0.0039317
0.266839
-0.0103787
0.250768
-0.0239099
0.232622
-0.0365778
0.212748
-0.048779
0.191239
-0.0612167
0.167971
-0.0746329
0.142872
-0.0897471
0.115898
-0.10704
0.0873571
-0.126678
0.0578826
-0.148148
0.030569
-0.168419
-0.169897
0.288572
0.0353345
0.292039
0.030618
0.290695
0.0217837
0.285027
0.0104387
0.275508
-0.00153776
0.262724
-0.0135758
0.247277
-0.0251957
0.2297
-0.0362046
0.210374
-0.0468266
0.189474
-0.0575365
0.167002
-0.0688991
0.142821
-0.0814945
0.116747
-0.0957671
0.0887321
-0.11204
0.0590516
-0.130156
0.0288256
-0.147963
-0.148741
0.279051
0.0191012
0.281572
0.0165329
0.280617
0.00982041
0.275917
0.000947445
0.267473
-0.00843583
0.255779
-0.018215
0.24137
-0.0279175
0.224726
-0.037268
0.206216
-0.046353
0.186057
-0.0554776
0.164305
-0.0650371
0.140908
-0.0754974
0.115764
-0.0872549
0.0888007
-0.100677
0.0599424
-0.115617
0.0295208
-0.130358
-0.130341
0.269073
0.00321787
0.271727
0.00206841
0.270473
-0.001993
0.265787
-0.00863292
0.257926
-0.0159477
0.247104
-0.0237521
0.233685
-0.0316937
0.218047
-0.039487
0.200499
-0.0471258
0.181248
-0.0547993
0.160387
-0.0627718
0.137895
-0.0713916
0.113679
-0.0809796
0.0875964
-0.0918553
0.0595509
-0.103929
0.0296473
-0.115701
-0.114638
0.254929
-0.0116609
0.256695
-0.0114487
0.25602
-0.0142373
0.252266
-0.0189268
0.245467
-0.0242619
0.235791
-0.0301639
0.223582
-0.0364344
0.209149
-0.0427324
0.192755
-0.0489852
0.174606
-0.0553085
0.154805
-0.0618525
0.133364
-0.0688632
0.110216
-0.0765775
0.0852412
-0.0852592
0.0582627
-0.0947673
0.029289
-0.103791
-0.101482
0.240502
-0.0258182
0.242312
-0.0246885
0.241317
-0.0257573
0.237667
-0.0288546
0.231462
-0.0326532
0.222754
-0.0370101
0.21168
-0.0417904
0.198454
-0.0467133
0.183292
-0.0516898
0.166355
-0.0567668
0.147744
-0.0620225
0.127489
-0.0676201
0.105547
-0.0737179
0.0818176
-0.0805153
0.0561153
-0.087786
0.0283827
-0.0943483
-0.090797
0.223078
-0.0385785
0.224216
-0.0367214
0.22368
-0.0371214
0.220762
-0.0388335
0.215397
-0.0411572
0.207732
-0.0441448
0.197867
-0.0476017
0.185943
-0.0512706
0.172122
-0.0550705
0.15653
-0.0590002
0.139264
-0.0630929
0.120353
-0.0674391
0.0997806
-0.0721394
0.0774598
-0.0773172
0.0532601
-0.0826986
0.0270255
-0.0870741
-0.0824389
0.205308
-0.0502072
0.206417
-0.0480252
0.205634
-0.0474608
0.202873
-0.0481248
0.198161
-0.0494165
0.191436
-0.0512903
0.182703
-0.0536007
0.172054
-0.0561706
0.159598
-0.0589197
0.145423
-0.0618177
0.1296
-0.0648693
0.112161
-0.0681149
0.0931032
-0.0716131
0.0723681
-0.0754239
0.0498526
-0.0792233
0.0253674
-0.0817109
-0.0761565
0.186142
-0.0602708
0.186643
-0.0579025
0.186038
-0.0570828
0.183769
-0.0569446
0.179726
-0.0573256
0.173906
-0.0582781
0.1663
-0.0596388
0.156938
-0.0612622
0.145877
-0.0630843
0.133177
-0.0650669
0.118886
-0.0671968
0.103035
-0.0694844
0.0856256
-0.0719534
0.0666207
-0.0746179
0.0459399
-0.0771031
0.0234295
-0.0780306
-0.0717299
0.166703
-0.0691012
0.167168
-0.0668511
0.166366
-0.0655393
0.164237
-0.0648656
0.160726
-0.064667
0.155706
-0.0649153
0.149119
-0.0655084
0.140969
-0.0663544
0.131272
-0.0673963
0.120055
-0.0685943
0.107343
-0.0699306
0.0931572
-0.0714001
0.0774975
-0.0729997
0.0603361
-0.0747087
0.0416227
-0.0761234
0.0212587
-0.0758113
-0.0689514
0.14731
-0.0765001
0.147219
-0.074316
0.146401
-0.0729766
0.144525
-0.0719666
0.14146
-0.0713138
0.137129
-0.0710433
0.131475
-0.0710635
0.124463
-0.0713011
0.116081
-0.0717131
0.106327
-0.0722666
0.0952106
-0.0729452
0.0827397
-0.0737391
0.0689055
-0.0746201
0.0536849
-0.0755477
0.0370459
-0.0761035
0.0189578
-0.0748505
-0.0675728
0.127489
-0.0829315
0.127431
-0.0808857
0.126535
-0.079333
0.124805
-0.0781363
0.122161
-0.0772359
0.118472
-0.0766024
0.113669
-0.0762006
0.107715
-0.0759856
0.10058
-0.0759166
0.0922456
-0.0759666
0.082707
-0.0761281
0.0719614
-0.0763878
0.0599879
-0.0766942
0.0467676
-0.0770036
0.032277
-0.0768877
0.0165453
-0.0749572
-0.0673897
0.10837
-0.0879639
0.107956
-0.0861976
0.10703
-0.0846838
0.10544
-0.0833949
0.103106
-0.0823446
0.0999493
-0.0814988
0.0958969
-0.0808274
0.0908998
-0.0803045
0.0849219
-0.0798989
0.0779364
-0.079589
0.0699246
-0.0793715
0.0608726
-0.0792336
0.0507678
-0.0791208
0.0395814
-0.0789688
0.0273012
-0.0783617
0.0139962
-0.0759867
-0.068282
0.0886305
-0.0924276
0.0882874
-0.0907267
0.0874438
-0.0891876
0.0861041
-0.0878996
0.0841906
-0.0867931
0.0816222
-0.0858283
0.0783359
-0.084991
0.0742778
-0.0842618
0.0694108
-0.0836237
0.0637107
-0.0830651
0.057152
-0.0825782
0.0497283
-0.0821661
0.0414577
-0.0817955
0.0322921
-0.0813323
0.0222474
-0.0804209
0.0114273
-0.0778332
-0.0700677
0.0697337
-0.0954054
0.0690356
-0.0941062
0.0681939
-0.0928248
0.0670411
-0.0916465
0.0654805
-0.0905718
0.0634464
-0.0895903
0.0608789
-0.0886921
0.0577294
-0.0878672
0.0539575
-0.0871051
0.0495362
-0.0864051
0.0444448
-0.0857638
0.0386712
-0.0851903
0.0322182
-0.0846635
0.0250607
-0.0840191
0.0172427
-0.0829672
0.00887491
-0.080344
-0.0725767
0.0502453
-0.0982055
0.0497544
-0.0969645
0.0490577
-0.0958051
0.0481289
-0.0947388
0.0469224
-0.0937461
0.0453956
-0.092819
0.0435091
-0.0919492
0.0412285
-0.091131
0.0385253
-0.0903582
0.0353707
-0.0896282
0.0317413
-0.0889415
0.027613
-0.0883047
0.0229658
-0.0876987
0.0178596
-0.0870373
0.0122639
-0.0859382
0.00631603
-0.0834027
-0.0757029
0.0316834
-0.0997716
0.030969
-0.0989368
0.0302835
-0.0980609
0.0295402
-0.0972039
0.0286828
-0.0963758
0.027668
-0.0955811
0.0264586
-0.094817
0.0250231
-0.0940828
0.0233355
-0.0933763
0.0213729
-0.0926977
0.0191207
-0.0920541
0.0165689
-0.0914558
0.0137159
-0.0908906
0.0105738
-0.0902845
0.00721576
-0.0893146
0.00370531
-0.0869712
-0.0794187
0.0121998
-0.10132
0.0117599
-0.100581
0.0113158
-0.0998828
0.0108788
-0.0992223
0.0104344
-0.0985833
0.00996436
-0.0979662
0.00944963
-0.0973668
0.00887226
-0.096785
0.00821647
-0.0962203
0.00746951
-0.0956751
0.00662013
-0.0951572
0.005663
-0.0946822
0.0046036
-0.0942476
0.00342888
-0.09376
0.00224381
-0.0930136
0.00112279
-0.0909669
-0.0836429
-0.00654725
-0.101832
-0.00716329
-0.101496
-0.00755995
-0.101126
-0.00778048
-0.100753
-0.00785056
-0.100378
-0.0077888
-0.100007
-0.00760906
-0.0996421
-0.00732275
-0.099284
-0.00693913
-0.0989344
-0.00646557
-0.0985971
-0.00590655
-0.0982824
-0.0052632
-0.0980088
-0.00452849
-0.0977815
-0.00367716
-0.0975247
-0.0027289
-0.0969871
-0.00147837
-0.0953517
-0.088361
-0.0266011
-0.102416
-0.0268783
-0.102232
-0.0269551
-0.102099
-0.0268016
-0.101989
-0.0263995
-0.101891
-0.02574
-0.101803
-0.0248177
-0.101721
-0.0236299
-0.101645
-0.0221751
-0.101575
-0.0204524
-0.101514
-0.0184603
-0.101472
-0.0161951
-0.10147
-0.0136465
-0.10152
-0.010794
-0.101556
-0.00764297
-0.101301
-0.00405815
-0.100078
-0.0935335
-0.0459156
-0.102085
-0.046323
-0.102341
-0.0462962
-0.102604
-0.0458572
-0.102858
-0.0450045
-0.103117
-0.043733
-0.10338
-0.0420351
-0.103649
-0.0399039
-0.103922
-0.0373337
-0.104196
-0.0343201
-0.104474
-0.0308591
-0.104767
-0.0269467
-0.105096
-0.0225741
-0.105476
-0.0177239
-0.105851
-0.0123827
-0.10594
-0.00654785
-0.105057
-0.0990643
-0.0668395
-0.101929
-0.0668362
-0.102367
-0.0664115
-0.102936
-0.0655102
-0.103537
-0.0640873
-0.104173
-0.0621125
-0.104829
-0.0595619
-0.1055
-0.0564176
-0.106177
-0.052667
-0.106856
-0.0483021
-0.107533
-0.0433176
-0.108216
-0.0377108
-0.108926
-0.0314767
-0.10968
-0.0246062
-0.110428
-0.0171116
-0.110867
-0.00902369
-0.110293
-0.104944
-0.0871536
-0.100798
-0.0872777
-0.101758
-0.0867147
-0.10282
-0.0854693
-0.10389
-0.0835173
-0.104998
-0.0808342
-0.106131
-0.0773971
-0.107283
-0.0731879
-0.108441
-0.0681948
-0.109594
-0.0624121
-0.110734
-0.0558384
-0.111865
-0.0484791
-0.113003
-0.0403444
-0.114161
-0.031432
-0.115302
-0.0217657
-0.116099
-0.0114459
-0.115774
-0.111137
-0.109247
-0.099869
-0.108944
-0.101041
-0.107961
-0.102507
-0.106199
-0.104053
-0.103591
-0.105683
-0.100092
-0.107358
-0.0956697
-0.109059
-0.090304
-0.110767
-0.0839827
-0.112459
-0.0767039
-0.114122
-0.0684748
-0.115751
-0.0593117
-0.117354
-0.0492337
-0.118943
-0.0382602
-0.120484
-0.0264164
-0.121646
-0.0137943
-0.121584
-0.117601
-0.131006
-0.0976504
-0.130863
-0.0995865
-0.12968
-0.101731
-0.127472
-0.103912
-0.124205
-0.10618
-0.119847
-0.108499
-0.114372
-0.110847
-0.107763
-0.11319
-0.10002
-0.1155
-0.0911502
-0.11775
-0.0811773
-0.119926
-0.0701352
-0.122026
-0.0580657
-0.124058
-0.0450041
-0.125997
-0.030981
-0.12752
-0.0160519
-0.127761
-0.124296
-0.154404
-0.09577
-0.153802
-0.0979664
-0.152181
-0.100677
-0.149398
-0.103536
-0.145363
-0.10654
-0.140031
-0.109612
-0.133379
-0.112708
-0.125403
-0.11578
-0.116115
-0.118784
-0.105544
-0.12168
-0.0937335
-0.124445
-0.0807431
-0.127063
-0.0666389
-0.129538
-0.0514786
-0.131859
-0.0353072
-0.133718
-0.0181967
-0.134227
-0.131186
-0.17744
-0.0921842
-0.177039
-0.0954667
-0.17513
-0.099137
-0.171743
-0.102892
-0.16685
-0.106788
-0.160428
-0.110745
-0.152472
-0.114706
-0.142998
-0.118605
-0.132043
-0.122379
-0.119664
-0.125976
-0.105934
-0.129358
-0.090943
-0.132498
-0.0747882
-0.135399
-0.0575585
-0.138061
-0.0393262
-0.1402
-0.0201846
-0.140911
-0.138226
-0.201867
-0.0890284
-0.200911
-0.0927917
-0.198459
-0.0973098
-0.194335
-0.102052
-0.188459
-0.106987
-0.180809
-0.111974
-0.171404
-0.116926
-0.160291
-0.12175
-0.147541
-0.126367
-0.13325
-0.130705
-0.11753
-0.134714
-0.10051
-0.138358
-0.0823275
-0.141638
-0.0631076
-0.144571
-0.0429497
-0.146907
-0.0219384
-0.147761
-0.145332
-0.225493
-0.0838857
-0.224706
-0.0891722
-0.221817
-0.0950379
-0.216874
-0.101044
-0.209877
-0.107215
-0.200845
-0.113396
-0.189834
-0.119471
-0.176932
-0.12532
-0.162261
-0.130838
-0.145964
-0.135938
-0.128205
-0.140557
-0.10916
-0.144657
-0.0890102
-0.14824
-0.0679222
-0.151345
-0.0460216
-0.15377
-0.0233882
-0.154686
-0.152397
-0.249929
-0.0792251
-0.248482
-0.0854067
-0.244899
-0.0925392
-0.238988
-0.0999733
-0.230719
-0.107581
-0.22014
-0.115134
-0.207357
-0.122469
-0.192519
-0.129431
-0.175809
-0.135891
-0.157434
-0.141747
-0.137617
-0.146931
-0.116589
-0.151403
-0.0945789
-0.155179
-0.0717952
-0.158327
-0.0483922
-0.160708
-0.0244759
-0.161548
-0.159314
-0.272897
-0.0725059
-0.271519
-0.080752
-0.267269
-0.0897664
-0.260258
-0.0989478
-0.250543
-0.10823
-0.23824
-0.11734
-0.223519
-0.126066
-0.206606
-0.134215
-0.18776
-0.141632
-0.167264
-0.148204
-0.145412
-0.153865
-0.122492
-0.158589
-0.0987862
-0.162412
-0.0745451
-0.165441
-0.0499561
-0.167612
-0.0251228
-0.168241
-0.165952
-0.295709
-0.0663293
-0.293559
-0.0760601
-0.288435
-0.0869296
-0.280173
-0.0981157
-0.268851
-0.109322
-0.254653
-0.120183
-0.237841
-0.130425
-0.218733
-0.139811
-0.197683
-0.148167
-0.175062
-0.155376
-0.151241
-0.161385
-0.126575
-0.166198
-0.101393
-0.169887
-0.0759887
-0.172608
-0.0505773
-0.174382
-0.0252648
-0.174644
-0.17218
-0.316228
-0.058268
-0.31399
-0.0706856
-0.307921
-0.0841316
-0.298246
-0.097664
-0.285139
-0.111058
-0.268881
-0.123856
-0.249841
-0.135717
-0.228446
-0.146362
-0.205162
-0.155598
-0.180457
-0.163319
-0.154787
-0.169503
-0.128574
-0.174201
-0.102194
-0.177543
-0.0759734
-0.179746
-0.0501525
-0.180925
-0.0248407
-0.180654
-0.177868
-0.335401
-0.0507703
-0.33227
-0.0655077
-0.325142
-0.0815475
-0.313932
-0.0977726
-0.298901
-0.113631
-0.280446
-0.128554
-0.259067
-0.142121
-0.235328
-0.15401
-0.209821
-0.164022
-0.183127
-0.172079
-0.155786
-0.178219
-0.128281
-0.182565
-0.10103
-0.185324
-0.0743851
-0.186787
-0.0486085
-0.187168
-0.0238183
-0.186187
-0.182911
-0.351313
-0.0417816
-0.347956
-0.0599663
-0.33965
-0.0793947
-0.326762
-0.0986725
-0.309656
-0.117279
-0.288882
-0.134491
-0.2651
-0.149805
-0.239023
-0.16287
-0.211371
-0.173507
-0.182834
-0.181689
-0.15405
-0.187525
-0.125557
-0.191253
-0.0978015
-0.193183
-0.0711542
-0.193686
-0.0458974
-0.19307
-0.0221654
-0.191199
-0.187227
-0.364681
-0.0334126
-0.360403
-0.0549036
-0.350864
-0.0778595
-0.336191
-0.100595
-0.316932
-0.122202
-0.293794
-0.141835
-0.267607
-0.158903
-0.239252
-0.173036
-0.209601
-0.184092
-0.179454
-0.192139
-0.149504
-0.197409
-0.120358
-0.200246
-0.0924846
-0.201102
-0.0662647
-0.20044
-0.0420042
-0.198639
-0.0198727
-0.195687
-0.190764
-0.373935
-0.0240997
-0.369278
-0.0499594
-0.358458
-0.0771583
-0.341989
-0.103705
-0.320551
-0.128575
-0.295044
-0.150745
-0.266496
-0.16954
-0.235973
-0.184587
-0.204497
-0.195821
-0.172983
-0.203439
-0.142202
-0.207841
-0.112759
-0.209546
-0.0851538
-0.209109
-0.0597772
-0.207105
-0.0369646
-0.20395
-0.0169609
-0.199703
-0.193525
-0.379737
-0.015495
-0.374267
-0.0457879
-0.362227
-0.0774299
-0.34397
-0.108182
-0.320375
-0.136556
-0.292554
-0.161349
-0.261753
-0.1818
-0.229233
-0.197566
-0.196171
-0.2087
-0.163587
-0.215584
-0.132303
-0.218831
-0.102942
-0.219163
-0.0759843
-0.217277
-0.0518418
-0.213796
-0.0308949
-0.209143
-0.0135028
-0.203363
-0.195596
-0.380901
-0.00654482
-0.375259
-0.0420001
-0.362057
-0.0788458
-0.342092
-0.11416
-0.31642
-0.146269
-0.286397
-0.173736
-0.253508
-0.195732
-0.219218
-0.211982
-0.184852
-0.222719
-0.151517
-0.228568
-0.120068
-0.230403
-0.0911371
-0.229171
-0.0651742
-0.225732
-0.0426068
-0.220701
-0.0239038
-0.214417
-0.00955283
-0.206848
-0.197111
-0.37844
0.00171572
-0.37221
-0.0392933
-0.358021
-0.0814853
-0.336468
-0.121752
-0.308862
-0.157792
-0.276813
-0.18795
-0.242054
-0.211348
-0.206259
-0.227823
-0.170894
-0.237859
-0.137127
-0.242401
-0.105823
-0.242631
-0.0775903
-0.239738
-0.0528933
-0.234695
-0.0321636
-0.228098
-0.0159532
-0.220099
-0.00501811
-0.210382
-0.198085
0.0579163
-0.230149
-0.0451522
0.066847
-0.233126
0.0753558
-0.236491
0.0805967
-0.239424
0.0851885
-0.242283
0.0874635
-0.244728
0.0883479
-0.246682
0.0878686
-0.247721
0.085488
-0.247659
0.0825068
-0.246313
0.0775664
-0.243755
0.0724889
-0.239436
0.0656859
-0.233895
0.0589861
-0.226435
0.051037
-0.217945
0.043349
-0.208085
0.0347462
-0.19761
0.0264892
-0.186688
0.0176163
-0.175865
0.0091172
-0.165498
0.000221765
-0.156048
-0.00828483
-0.147925
-0.0169589
-0.141552
-0.0251899
-0.137274
-0.0333107
-0.135394
-0.0408546
-0.136239
-0.0479694
-0.139933
-0.0543063
-0.146652
-0.0598709
-0.156356
-0.0644217
-0.169007
-0.0677967
-0.184399
-0.0698469
-0.202193
-0.0702994
-0.221966
-0.0691146
-0.243109
-0.0659697
-0.26503
-0.0608825
-0.286965
-0.0535421
-0.308194
-0.0440673
-0.327915
-0.0321653
-0.345424
-0.0181675
-0.360105
-0.371264
0.0707016
-0.233469
-0.0590918
0.080129
-0.236777
0.0872585
-0.24032
0.0923321
-0.243599
0.0954999
-0.246848
0.0968118
-0.249604
0.0964371
-0.251884
0.09454
-0.253247
0.0912672
-0.253479
0.086742
-0.252368
0.0810392
-0.249937
0.0745694
-0.245974
0.0671977
-0.240483
0.0594324
-0.233414
0.0511537
-0.22504
0.0427369
-0.215527
0.0341126
-0.205197
0.0255215
-0.194535
0.0169375
-0.183831
0.00852542
-0.17364
0.000273019
-0.164254
-0.00767389
-0.156241
-0.0153058
-0.149891
-0.0224755
-0.145688
-0.0291356
-0.143831
-0.0351995
-0.144684
-0.0405546
-0.148393
-0.0450873
-0.155129
-0.0486388
-0.164893
-0.0510615
-0.177631
-0.0522012
-0.193139
-0.0518805
-0.211101
-0.0499365
-0.231077
-0.0461846
-0.252485
-0.0404996
-0.274678
-0.0327453
-0.296911
-0.02282
-0.318445
-0.0106701
-0.338447
0.00376495
-0.356238
0.0203728
-0.371054
-0.382481
0.0777298
-0.235729
-0.0654219
0.0875074
-0.239235
0.0947066
-0.242874
0.0996184
-0.246453
0.102268
-0.249909
0.102964
-0.253033
0.101787
-0.255596
0.0990145
-0.257337
0.094826
-0.257936
0.0894098
-0.257184
0.0828804
-0.255028
0.0755402
-0.251452
0.0675179
-0.246288
0.0590754
-0.239631
0.0503584
-0.231648
0.0415573
-0.22256
0.0328104
-0.212646
0.0242035
-0.202353
0.0158712
-0.192027
0.00785952
-0.182142
0.000291818
-0.173073
-0.00679381