/*--------------------------------*- C++ -*----------------------------------*\
  =========                 |
  \\      /  F ield         | OpenFOAM: The Open Source CFD Toolbox
   \\    /   O peration     | Website:  https://openfoam.org
    \\  /    A nd           | Version:  6
     \\/     M anipulation  |
\*---------------------------------------------------------------------------*/
FoamFile
{
    version     2.0;
    format      ascii;
    class       volScalarField;
    location    "2.81";
    object      rho;
}
// * * * * * * * * * * * * * * * * * * * * * * * * * * * * * * * * * * * * * //

dimensions      [1 -3 0 0 0 0 0];

internalField   nonuniform List<scalar> 
10000
(
1.40001
1.40001
1.40001
1.40001
1.40001
1.40001
1.40001
1.40001
1.40001
1.40001
1.40001
1.40001
1.40001
1.40001
1.4
1.40001
1.4
1.40001
1.4
1.40001
1.40001
1.40001
1.40001
1.4
1.40001
1.4
1.40001
1.4
1.40001
1.4
1.40001
1.4
1.40001
1.4
1.40001
1.4
1.40001
1.4
1.40001
1.4
1.40001
1.4
1.4
1.4
1.4
1.4
1.4
1.4
1.4
1.4
1.4
1.39999
1.39999
1.39999
1.39998
1.39998
1.39998
1.39998
1.39999
1.39999
1.4
1.4
1.40001
1.40001
1.40002
1.40002
1.40003
1.40003
1.40003
1.40003
1.40002
1.40002
1.40002
1.40002
1.40001
1.40001
1.40001
1.40001
1.40001
1.40001
1.40001
1.40001
1.40001
1.40001
1.40001
1.40001
1.40001
1.40001
1.40001
1.40001
1.40001
1.40001
1.40001
1.40001
1.40001
1.40001
1.40001
1.40001
1.40001
1.40001
1.40001
1.40001
1.40001
1.40001
1.40001
1.40001
1.40001
1.40001
1.40001
1.40001
1.40001
1.40001
1.40001
1.40001
1.40001
1.40001
1.40001
1.40001
1.4
1.40001
1.4
1.40001
1.4
1.40001
1.4
1.40001
1.4
1.40001
1.40001
1.4
1.40001
1.40001
1.4
1.40001
1.4
1.40001
1.40001
1.40001
1.4
1.40001
1.40001
1.40001
1.4
1.4
1.4
1.4
1.4
1.4
1.4
1.39999
1.39999
1.39999
1.39998
1.39998
1.39997
1.39997
1.39997
1.39997
1.39998
1.39998
1.39999
1.4
1.40001
1.40002
1.40003
1.40003
1.40004
1.40004
1.40004
1.40004
1.40004
1.40003
1.40003
1.40002
1.40002
1.40002
1.40001
1.40001
1.40001
1.40001
1.40001
1.40001
1.40001
1.40001
1.40001
1.40001
1.40001
1.40001
1.40001
1.40001
1.40001
1.40001
1.40001
1.40001
1.40001
1.40001
1.40001
1.40001
1.40001
1.40001
1.40001
1.40001
1.40001
1.40001
1.40001
1.40001
1.40001
1.40001
1.40001
1.40001
1.40001
1.40001
1.4
1.40001
1.4
1.40001
1.4
1.40001
1.4
1.40001
1.4
1.40001
1.40001
1.40001
1.40001
1.4
1.40001
1.4
1.40001
1.4
1.40001
1.4
1.40001
1.4
1.40001
1.4
1.40001
1.40001
1.40001
1.4
1.40001
1.4
1.4
1.4
1.4
1.4
1.4
1.4
1.39999
1.39999
1.39998
1.39998
1.39997
1.39996
1.39996
1.39996
1.39996
1.39996
1.39997
1.39998
1.39999
1.4
1.40001
1.40003
1.40004
1.40005
1.40005
1.40006
1.40006
1.40006
1.40005
1.40005
1.40004
1.40003
1.40003
1.40002
1.40002
1.40001
1.40001
1.40001
1.40001
1.40001
1.40001
1.40001
1.40001
1.40001
1.40001
1.40001
1.40001
1.40001
1.40001
1.40001
1.40001
1.40001
1.40001
1.40001
1.40001
1.40001
1.40001
1.40001
1.40001
1.40001
1.40001
1.40001
1.40001
1.40001
1.40001
1.40001
1.40001
1.40001
1.40001
1.40001
1.4
1.40001
1.4
1.40001
1.4
1.40001
1.4
1.40001
1.4
1.40001
1.4
1.40001
1.40001
1.40001
1.40001
1.40001
1.40001
1.40001
1.40001
1.4
1.40001
1.4
1.40001
1.40001
1.40001
1.40001
1.40001
1.40001
1.40001
1.4
1.4
1.4
1.4
1.4
1.4
1.39999
1.39999
1.39998
1.39997
1.39996
1.39995
1.39995
1.39994
1.39994
1.39994
1.39994
1.39995
1.39997
1.39998
1.4
1.40002
1.40004
1.40006
1.40007
1.40008
1.40008
1.40008
1.40008
1.40007
1.40006
1.40006
1.40005
1.40004
1.40003
1.40002
1.40002
1.40001
1.40001
1.40001
1.40001
1.40001
1.40001
1.40001
1.40001
1.40001
1.40001
1.40001
1.40001
1.40001
1.40001
1.40001
1.40001
1.40001
1.40001
1.40001
1.40001
1.40001
1.40001
1.40001
1.40001
1.40001
1.40001
1.40001
1.40001
1.40001
1.40001
1.40001
1.40001
1.4
1.40001
1.4
1.40001
1.4
1.40001
1.4
1.40001
1.4
1.40001
1.40001
1.40001
1.40001
1.4
1.40001
1.4
1.40001
1.4
1.40001
1.4
1.40001
1.4
1.40001
1.4
1.40001
1.40001
1.40001
1.40001
1.40001
1.40001
1.40001
1.4
1.4
1.4
1.4
1.4
1.4
1.39999
1.39998
1.39997
1.39996
1.39995
1.39993
1.39992
1.39991
1.39991
1.39991
1.39992
1.39994
1.39996
1.39998
1.40001
1.40004
1.40007
1.40009
1.40011
1.40012
1.40012
1.40012
1.40012
1.40011
1.40009
1.40008
1.40006
1.40005
1.40004
1.40003
1.40002
1.40002
1.40001
1.40001
1.40001
1.40001
1.40001
1.40001
1.40001
1.4
1.4
1.4
1.4
1.40001
1.40001
1.40001
1.40001
1.40001
1.40001
1.40001
1.40001
1.40001
1.40001
1.40001
1.40001
1.40001
1.40001
1.40001
1.40001
1.40001
1.40001
1.40001
1.40001
1.4
1.40001
1.40001
1.40001
1.40001
1.40001
1.40001
1.40001
1.40001
1.40001
1.40001
1.4
1.40001
1.4
1.40001
1.4
1.40001
1.4
1.40001
1.40001
1.40001
1.4
1.40001
1.4
1.40001
1.40001
1.40001
1.40001
1.40001
1.40001
1.40001
1.40001
1.40001
1.4
1.4
1.4
1.39999
1.39998
1.39997
1.39996
1.39994
1.39992
1.39991
1.39989
1.39988
1.39988
1.39989
1.3999
1.39993
1.39996
1.39999
1.40003
1.40007
1.40011
1.40014
1.40016
1.40017
1.40018
1.40018
1.40017
1.40015
1.40013
1.40011
1.40009
1.40007
1.40005
1.40004
1.40003
1.40002
1.40001
1.40001
1.40001
1.40001
1.40001
1.40001
1.4
1.4
1.4
1.4
1.4
1.4
1.40001
1.40001
1.40001
1.40001
1.40001
1.40001
1.40001
1.40001
1.40001
1.40001
1.40001
1.40001
1.40001
1.40001
1.40001
1.40001
1.40001
1.40001
1.40001
1.4
1.40001
1.40001
1.40001
1.40001
1.40001
1.40001
1.40001
1.40001
1.4
1.40001
1.4
1.40001
1.40001
1.40001
1.4
1.40001
1.4
1.40001
1.4
1.40001
1.4
1.40001
1.40001
1.40001
1.40001
1.40001
1.40001
1.40001
1.40001
1.40001
1.40001
1.40001
1.4
1.4
1.39999
1.39999
1.39997
1.39996
1.39994
1.39992
1.3999
1.39988
1.39986
1.39985
1.39985
1.39987
1.39989
1.39993
1.39998
1.40003
1.40008
1.40013
1.40018
1.40022
1.40024
1.40026
1.40026
1.40025
1.40024
1.40021
1.40018
1.40015
1.40013
1.4001
1.40007
1.40005
1.40004
1.40003
1.40002
1.40001
1.40001
1.40001
1.40001
1.4
1.4
1.4
1.4
1.4
1.4
1.4
1.4
1.40001
1.40001
1.40001
1.40001
1.40001
1.40001
1.40001
1.40001
1.40001
1.40001
1.40001
1.40001
1.40001
1.40001
1.40001
1.40001
1.40001
1.40001
1.40001
1.40001
1.40001
1.4
1.40001
1.4
1.40001
1.4
1.40001
1.4
1.40001
1.4
1.40001
1.40001
1.40001
1.4
1.40001
1.4
1.40001
1.4
1.40001
1.40001
1.40001
1.40001
1.40001
1.40001
1.40001
1.40001
1.40001
1.40001
1.40001
1.40001
1.40001
1.4
1.4
1.39999
1.39998
1.39996
1.39994
1.39992
1.39989
1.39987
1.39984
1.39983
1.39982
1.39984
1.39986
1.39991
1.39996
1.40003
1.4001
1.40018
1.40024
1.4003
1.40035
1.40038
1.40039
1.40039
1.40037
1.40034
1.4003
1.40026
1.40022
1.40017
1.40013
1.4001
1.40007
1.40005
1.40003
1.40002
1.40001
1.40001
1.40001
1.40001
1.4
1.4
1.4
1.4
1.4
1.4
1.4
1.4
1.4
1.40001
1.40001
1.40001
1.40001
1.40001
1.40001
1.40001
1.40001
1.40001
1.40001
1.40001
1.40001
1.40001
1.40001
1.40001
1.40001
1.40001
1.40001
1.40001
1.40001
1.4
1.40001
1.4
1.40001
1.40001
1.40001
1.4
1.40001
1.40001
1.4
1.40001
1.40001
1.4
1.40001
1.40001
1.40001
1.4
1.40001
1.40001
1.40001
1.40001
1.40001
1.40001
1.40001
1.40001
1.40001
1.40001
1.40001
1.40001
1.40001
1.40001
1.4
1.39999
1.39997
1.39995
1.39993
1.3999
1.39986
1.39984
1.39981
1.3998
1.39981
1.39984
1.3999
1.39997
1.40006
1.40015
1.40026
1.40036
1.40044
1.40051
1.40056
1.40059
1.40059
1.40057
1.40054
1.40049
1.40043
1.40036
1.4003
1.40024
1.40018
1.40014
1.4001
1.40007
1.40004
1.40003
1.40002
1.40001
1.40001
1.4
1.4
1.4
1.4
1.4
1.4
1.4
1.4
1.4
1.4
1.4
1.40001
1.40001
1.40001
1.40001
1.40001
1.40001
1.40001
1.40001
1.40001
1.40001
1.40001
1.40001
1.40001
1.40001
1.40001
1.40001
1.40001
1.4
1.40001
1.4
1.40001
1.4
1.40001
1.40001
1.40001
1.4
1.40001
1.40001
1.40001
1.4
1.40001
1.4
1.40001
1.4
1.40001
1.40001
1.4
1.40001
1.40001
1.4
1.40001
1.40001
1.40001
1.40001
1.40001
1.40001
1.40001
1.40001
1.40001
1.40001
1.4
1.39999
1.39997
1.39994
1.39991
1.39987
1.39984
1.39981
1.3998
1.39981
1.39984
1.39991
1.4
1.40012
1.40026
1.4004
1.40055
1.40068
1.40079
1.40087
1.40092
1.40093
1.40091
1.40086
1.40079
1.40071
1.40061
1.40051
1.40042
1.40033
1.40025
1.40018
1.40013
1.40009
1.40005
1.40003
1.40002
1.40001
1.4
1.4
1.4
1.4
1.4
1.4
1.4
1.4
1.4
1.4
1.4
1.4
1.4
1.40001
1.40001
1.40001
1.40001
1.40001
1.40001
1.40001
1.40001
1.40001
1.40001
1.40001
1.40001
1.40001
1.40001
1.40001
1.40001
1.4
1.40001
1.4
1.40001
1.40001
1.4
1.40001
1.40001
1.40001
1.40001
1.40001
1.40001
1.4
1.40001
1.4
1.40001
1.4
1.40001
1.4
1.4
1.40001
1.40001
1.40001
1.40001
1.40001
1.40001
1.40001
1.40001
1.40001
1.40001
1.40002
1.40002
1.40001
1.4
1.39999
1.39997
1.39993
1.3999
1.39986
1.39983
1.39981
1.39982
1.39986
1.39995
1.40007
1.40024
1.40043
1.40065
1.40086
1.40107
1.40124
1.40138
1.40146
1.4015
1.40148
1.40141
1.40131
1.40118
1.40103
1.40088
1.40072
1.40058
1.40045
1.40034
1.40024
1.40017
1.40011
1.40007
1.40004
1.40002
1.40001
1.4
1.4
1.4
1.4
1.4
1.4
1.4
1.4
1.4
1.4
1.4
1.4
1.4
1.40001
1.40001
1.40001
1.40001
1.40001
1.40001
1.40001
1.40001
1.40001
1.40001
1.40001
1.40001
1.40001
1.40001
1.4
1.40001
1.4
1.40001
1.4
1.40001
1.40001
1.4
1.40001
1.40001
1.4
1.40001
1.4
1.40001
1.4
1.40001
1.4
1.40001
1.4
1.40001
1.40001
1.4
1.40001
1.40001
1.40001
1.40001
1.40001
1.40001
1.40001
1.40001
1.40002
1.40002
1.40002
1.40002
1.40002
1.40001
1.39999
1.39996
1.39993
1.39989
1.39986
1.39984
1.39986
1.39991
1.40002
1.40019
1.40042
1.4007
1.40101
1.40134
1.40166
1.40194
1.40217
1.40234
1.40242
1.40242
1.40234
1.4022
1.402
1.40177
1.40153
1.40128
1.40104
1.40082
1.40063
1.40046
1.40033
1.40022
1.40014
1.40008
1.40004
1.40002
1.40001
1.4
1.4
1.4
1.4
1.4
1.4
1.4
1.4
1.4
1.4
1.4
1.4
1.4
1.4
1.40001
1.40001
1.40001
1.40001
1.40001
1.40001
1.40001
1.40001
1.40001
1.40001
1.40001
1.40001
1.40001
1.4
1.40001
1.4
1.40001
1.40001
1.4
1.40001
1.4
1.40001
1.40001
1.4
1.40001
1.4
1.40001
1.4
1.40001
1.4
1.40001
1.4
1.40001
1.4
1.40001
1.40001
1.40001
1.40001
1.40001
1.40001
1.40001
1.40001
1.40002
1.40002
1.40003
1.40003
1.40003
1.40003
1.40002
1.4
1.39997
1.39994
1.39991
1.39989
1.39991
1.39998
1.40012
1.40035
1.40066
1.40105
1.4015
1.40199
1.40249
1.40295
1.40336
1.40366
1.40386
1.40392
1.40387
1.40369
1.40342
1.40307
1.40268
1.40227
1.40187
1.4015
1.40117
1.40088
1.40064
1.40044
1.4003
1.40018
1.40011
1.40005
1.40002
1.4
1.39999
1.39999
1.39999
1.39999
1.4
1.4
1.4
1.4
1.4
1.4
1.4
1.4
1.4
1.4
1.4
1.40001
1.40001
1.40001
1.40001
1.40001
1.40001
1.40001
1.40001
1.40001
1.40001
1.40001
1.40001
1.40001
1.40001
1.40001
1.40001
1.40001
1.4
1.40001
1.40001
1.40001
1.40001
1.40001
1.4
1.40001
1.4
1.40001
1.4
1.40001
1.4
1.4
1.40001
1.4
1.40001
1.40001
1.40001
1.40001
1.40001
1.40001
1.40001
1.40002
1.40002
1.40003
1.40004
1.40004
1.40005
1.40005
1.40004
1.40002
1.39999
1.39997
1.39996
1.39999
1.40007
1.40025
1.40053
1.40094
1.40148
1.40212
1.40283
1.40358
1.40432
1.40499
1.40554
1.40595
1.40618
1.40621
1.40606
1.40573
1.40526
1.40469
1.40405
1.4034
1.40277
1.4022
1.40168
1.40125
1.4009
1.40061
1.4004
1.40024
1.40013
1.40006
1.40002
1.39999
1.39998
1.39998
1.39998
1.39999
1.39999
1.39999
1.4
1.4
1.4
1.4
1.4
1.4
1.4
1.4
1.4
1.40001
1.40001
1.40001
1.40001
1.40001
1.40001
1.40001
1.40001
1.40001
1.40001
1.40001
1.40001
1.40001
1.40001
1.40001
1.40001
1.40001
1.4
1.40001
1.40001
1.40001
1.40001
1.40001
1.40001
1.40001
1.40001
1.4
1.40001
1.4
1.40001
1.40001
1.4
1.40001
1.40001
1.40001
1.40001
1.40001
1.40001
1.40001
1.40002
1.40002
1.40003
1.40004
1.40005
1.40006
1.40007
1.40007
1.40007
1.40005
1.40004
1.40004
1.40007
1.40017
1.40038
1.40073
1.40124
1.40194
1.40281
1.40381
1.40491
1.40602
1.40708
1.40802
1.40879
1.40932
1.40958
1.40957
1.40928
1.40874
1.40799
1.40708
1.4061
1.40509
1.40412
1.40323
1.40246
1.4018
1.40128
1.40087
1.40056
1.40033
1.40018
1.40008
1.40002
1.39998
1.39997
1.39997
1.39997
1.39998
1.39998
1.39999
1.39999
1.4
1.4
1.4
1.4
1.4
1.4
1.4
1.4
1.4
1.40001
1.40001
1.40001
1.40001
1.40001
1.40001
1.40001
1.40001
1.40001
1.40001
1.40001
1.40001
1.40001
1.40001
1.40001
1.40001
1.40001
1.40001
1.40001
1.40001
1.4
1.40001
1.4
1.40001
1.4
1.40001
1.40001
1.40001
1.4
1.40001
1.4
1.40001
1.40001
1.40001
1.40001
1.40001
1.40001
1.40001
1.40002
1.40003
1.40004
1.40005
1.40007
1.40009
1.4001
1.40011
1.40011
1.40011
1.40012
1.40016
1.40027
1.4005
1.40091
1.40153
1.4024
1.40353
1.40487
1.40639
1.40799
1.40958
1.41106
1.41235
1.41337
1.41405
1.41435
1.41428
1.41381
1.413
1.41188
1.41053
1.40906
1.40755
1.40609
1.40476
1.4036
1.40263
1.40184
1.40124
1.40079
1.40046
1.40024
1.4001
1.40002
1.39997
1.39995
1.39995
1.39996
1.39996
1.39997
1.39998
1.39999
1.39999
1.4
1.4
1.4
1.4
1.4
1.4
1.4
1.4
1.4
1.40001
1.40001
1.40001
1.40001
1.40001
1.40001
1.40001
1.40001
1.40001
1.40001
1.40001
1.40001
1.40001
1.40001
1.40001
1.40001
1.40001
1.40001
1.40001
1.40001
1.4
1.40001
1.40001
1.4
1.40001
1.40001
1.40001
1.4
1.40001
1.4
1.4
1.40001
1.40001
1.40001
1.40001
1.40001
1.40002
1.40003
1.40004
1.40005
1.40007
1.4001
1.40012
1.40014
1.40016
1.40017
1.40019
1.40025
1.40037
1.40061
1.40106
1.40177
1.4028
1.40419
1.40591
1.40791
1.4101
1.41234
1.41452
1.41651
1.4182
1.4195
1.42035
1.4207
1.42055
1.41989
1.41875
1.41719
1.41531
1.41321
1.41104
1.40892
1.40697
1.40526
1.40383
1.40268
1.40179
1.40114
1.40067
1.40035
1.40015
1.40002
1.39996
1.39993
1.39993
1.39994
1.39995
1.39996
1.39997
1.39998
1.39999
1.4
1.4
1.4
1.4
1.4
1.4
1.4
1.4
1.4
1.40001
1.40001
1.40001
1.40001
1.40001
1.40001
1.40001
1.40001
1.40001
1.40001
1.40001
1.40001
1.40001
1.40001
1.40001
1.40001
1.40001
1.40001
1.40001
1.40001
1.40001
1.4
1.40001
1.4
1.40001
1.4
1.40001
1.4
1.40001
1.40001
1.4
1.40001
1.40001
1.40001
1.40001
1.40001
1.40002
1.40003
1.40005
1.40007
1.4001
1.40013
1.40016
1.4002
1.40023
1.40027
1.40033
1.40045
1.4007
1.40116
1.40193
1.4031
1.40472
1.40682
1.40934
1.41218
1.41519
1.41819
1.42104
1.42356
1.42565
1.42722
1.42822
1.42861
1.42839
1.42755
1.4261
1.42409
1.42161
1.41879
1.4158
1.41285
1.41009
1.40764
1.40557
1.4039
1.40261
1.40166
1.40098
1.40052
1.40022
1.40005
1.39995
1.39991
1.3999
1.39991
1.39993
1.39995
1.39996
1.39997
1.39998
1.39999
1.4
1.4
1.4
1.4
1.4
1.4
1.4
1.4
1.4
1.40001
1.40001
1.40001
1.40001
1.40001
1.40001
1.40001
1.40001
1.4
1.40001
1.4
1.40001
1.4
1.40001
1.4
1.40001
1.4
1.40001
1.40001
1.4
1.40001
1.40001
1.4
1.40001
1.40001
1.4
1.40001
1.4
1.40001
1.40001
1.40001
1.40001
1.40001
1.40001
1.40002
1.40003
1.40004
1.40006
1.40009
1.40013
1.40017
1.40022
1.40027
1.40032
1.4004
1.40052
1.40077
1.40122
1.40201
1.40325
1.40506
1.40749
1.41052
1.41404
1.41788
1.4218
1.4256
1.42908
1.43206
1.43446
1.43621
1.43728
1.43768
1.43742
1.43647
1.43482
1.43246
1.42944
1.4259
1.42203
1.41809
1.41432
1.41092
1.40802
1.40565
1.4038
1.40242
1.40144
1.40078
1.40035
1.40009
1.39995
1.39989
1.39988
1.39988
1.3999
1.39993
1.39995
1.39996
1.39998
1.39999
1.39999
1.4
1.4
1.4
1.4
1.4
1.4
1.4
1.4
1.40001
1.40001
1.40001
1.40001
1.40001
1.40001
1.40001
1.40001
1.4
1.40001
1.40001
1.40001
1.4
1.40001
1.4
1.40001
1.4
1.40001
1.40001
1.4
1.40001
1.4
1.40001
1.4
1.40001
1.4
1.40001
1.4
1.40001
1.40001
1.40001
1.40001
1.40001
1.40001
1.40002
1.40004
1.40006
1.40008
1.40012
1.40017
1.40022
1.40029
1.40036
1.40045
1.40058
1.40081
1.40124
1.402
1.40325
1.40516
1.40784
1.41132
1.4155
1.42018
1.42507
1.42989
1.43435
1.43825
1.44146
1.44391
1.44561
1.44661
1.44696
1.44669
1.44578
1.44416
1.44173
1.43845
1.43437
1.4297
1.42475
1.41985
1.41531
1.41134
1.40805
1.40547
1.40352
1.40213
1.40117
1.40056
1.40018
1.39998
1.39988
1.39985
1.39985
1.39988
1.3999
1.39993
1.39995
1.39997
1.39998
1.39999
1.4
1.4
1.4
1.4
1.4
1.4
1.4
1.4
1.4
1.40001
1.40001
1.40001
1.40001
1.40001
1.4
1.40001
1.4
1.40001
1.4
1.40001
1.4
1.40001
1.4
1.40001
1.40001
1.4
1.40001
1.4
1.4
1.40001
1.4
1.40001
1.4
1.40001
1.4
1.40001
1.40001
1.40001
1.40001
1.40001
1.40001
1.40002
1.40003
1.40004
1.40007
1.40011
1.40016
1.40022
1.40029
1.40037
1.40047
1.40061
1.40083
1.40122
1.40191
1.40311
1.40502
1.40782
1.41163
1.41639
1.42187
1.42773
1.43357
1.43903
1.44379
1.44768
1.45063
1.4527
1.454
1.45468
1.45486
1.45463
1.45397
1.45275
1.45074
1.44772
1.44359
1.43848
1.43269
1.42668
1.4209
1.41569
1.41128
1.40775
1.40506
1.4031
1.40176
1.40088
1.40033
1.40003
1.39988
1.39982
1.39982
1.39984
1.39988
1.39991
1.39994
1.39996
1.39997
1.39999
1.39999
1.4
1.4
1.4
1.4
1.4
1.4
1.4
1.4
1.40001
1.40001
1.40001
1.40001
1.40001
1.40001
1.40001
1.40001
1.40001
1.40001
1.40001
1.4
1.40001
1.4
1.40001
1.4
1.40001
1.40001
1.40001
1.4
1.40001
1.40001
1.4
1.4
1.40001
1.4
1.40001
1.40001
1.40001
1.40001
1.40001
1.40001
1.40002
1.40004
1.40006
1.40009
1.40013
1.4002
1.40027
1.40036
1.40047
1.40062
1.40082
1.40117
1.40178
1.40287
1.40467
1.40745
1.41141
1.41658
1.42276
1.42955
1.43641
1.44282
1.44836
1.45277
1.45594
1.45796
1.45904
1.45947
1.45949
1.45936
1.45921
1.45905
1.45869
1.45775
1.45578
1.45241
1.44756
1.44146
1.43462
1.42766
1.42113
1.41543
1.41075
1.40712
1.40445
1.40258
1.40135
1.40058
1.40013
1.3999
1.39981
1.39979
1.39981
1.39985
1.39989
1.39992
1.39995
1.39997
1.39998
1.39999
1.4
1.4
1.4
1.4
1.4
1.4
1.4
1.4
1.4
1.40001
1.40001
1.40001
1.40001
1.40001
1.40001
1.40001
1.40001
1.40001
1.40001
1.40001
1.40001
1.4
1.40001
1.4
1.40001
1.4
1.40001
1.4
1.40001
1.40001
1.4
1.40001
1.40001
1.4
1.40001
1.40001
1.40001
1.40001
1.40001
1.40002
1.40003
1.40004
1.40007
1.40011
1.40016
1.40024
1.40034
1.40045
1.4006
1.40079
1.4011
1.40163
1.40256
1.40417
1.40678
1.41069
1.41605
1.42275
1.43036
1.4382
1.44555
1.45182
1.45659
1.4597
1.46125
1.46153
1.46097
1.46002
1.45907
1.45846
1.4584
1.45895
1.45989
1.46072
1.46072
1.45918
1.45565
1.45014
1.44311
1.43533
1.42758
1.42052
1.41455
1.4098
1.40624
1.40372
1.40202
1.40094
1.4003
1.39996
1.39981
1.39977
1.39978
1.39982
1.39986
1.3999
1.39993
1.39996
1.39997
1.39999
1.39999
1.4
1.4
1.4
1.4
1.4
1.4
1.4
1.4
1.40001
1.40001
1.40001
1.40001
1.40001
1.40001
1.40001
1.4
1.40001
1.4
1.40001
1.4
1.40001
1.4
1.40001
1.4
1.4
1.40001
1.4
1.40001
1.40001
1.4
1.40001
1.40001
1.4
1.40001
1.40001
1.40001
1.40001
1.40001
1.40002
1.40003
1.40005
1.40009
1.40013
1.4002
1.40029
1.40041
1.40055
1.40074
1.40101
1.40146
1.40224
1.4036
1.40591
1.40955
1.41483
1.42179
1.43003
1.43879
1.4471
1.4541
1.45919
1.46209
1.46287
1.46187
1.45967
1.4569
1.45418
1.45202
1.45081
1.45084
1.4522
1.45474
1.45788
1.4607
1.4621
1.46116
1.45746
1.45126
1.44336
1.43477
1.42648
1.41915
1.41315
1.40854
1.40521
1.40292
1.40145
1.40056
1.40007
1.39984
1.39975
1.39975
1.39979
1.39983
1.39988
1.39992
1.39995
1.39997
1.39998
1.39999
1.4
1.4
1.4
1.4
1.4
1.4
1.4
1.4
1.40001
1.4
1.40001
1.4
1.40001
1.40001
1.40001
1.40001
1.4
1.40001
1.4
1.40001
1.4
1.40001
1.40001
1.4
1.4
1.40001
1.4
1.40001
1.40001
1.4
1.40001
1.40001
1.40001
1.40001
1.40001
1.40001
1.40001
1.40001
1.40002
1.40004
1.40006
1.4001
1.40016
1.40024
1.40035
1.40049
1.40067
1.40091
1.40129
1.40192
1.40303
1.40497
1.40817
1.41308
1.41994
1.42855
1.43809
1.44739
1.45523
1.46073
1.46344
1.46335
1.46084
1.45658
1.4514
1.44612
1.44148
1.43803
1.4362
1.43628
1.43846
1.44266
1.44835
1.4545
1.45971
1.46254
1.46201
1.45793
1.45094
1.44221
1.43303
1.42446
1.41716
1.41138
1.4071
1.40411
1.40214
1.40093
1.40025
1.3999
1.39976
1.39973
1.39976
1.39981
1.39986
1.3999
1.39994
1.39996
1.39998
1.39999
1.4
1.4
1.4
1.4
1.4
1.4
1.4
1.4
1.40001
1.4
1.40001
1.4
1.40001
1.40001
1.40001
1.40001
1.40001
1.4
1.40001
1.40001
1.4
1.40001
1.4
1.40001
1.40001
1.4
1.40001
1.4
1.40001
1.40001
1.4
1.40001
1.40001
1.40001
1.40001
1.40001
1.40001
1.40002
1.40003
1.40004
1.40007
1.40012
1.40019
1.40028
1.40041
1.40057
1.4008
1.40111
1.40162
1.40249
1.40404
1.4067
1.41101
1.41741
1.42596
1.43604
1.44631
1.45517
1.46135
1.46411
1.46332
1.45935
1.45294
1.44508
1.4368
1.42904
1.42257
1.41794
1.41553
1.41566
1.41857
1.4243
1.43244
1.442
1.45141
1.45881
1.46259
1.46195
1.45712
1.4492
1.43976
1.43026
1.42173
1.41473
1.4094
1.4056
1.40305
1.40144
1.4005
1.40001
1.39979
1.39972
1.39974
1.39978
1.39984
1.39989
1.39992
1.39995
1.39997
1.39999
1.39999
1.4
1.4
1.4
1.4
1.4
1.4
1.4
1.40001
1.4
1.40001
1.40001
1.4
1.40001
1.4
1.40001
1.4
1.40001
1.40001
1.40001
1.40001
1.4
1.40001
1.4
1.4
1.40001
1.40001
1.4
1.40001
1.40001
1.4
1.40001
1.40001
1.40001
1.40001
1.40001
1.40001
1.40002
1.40003
1.40005
1.40009
1.40014
1.40022
1.40033
1.40047
1.40067
1.40094
1.40135
1.40202
1.40321
1.40531
1.40886
1.41447
1.4225
1.43268
1.44376
1.45384
1.46107
1.46433
1.46329
1.45821
1.44989
1.43943
1.42803
1.41686
1.40689
1.39887
1.39325
1.39037
1.39055
1.39409
1.40114
1.41144
1.42413
1.43762
1.44984
1.45864
1.4625
1.46102
1.45503
1.44616
1.43622
1.42669
1.41853
1.4121
1.40739
1.40417
1.40209
1.40085
1.40017
1.39985
1.39973
1.39972
1.39976
1.39982
1.39987
1.39991
1.39994
1.39997
1.39998
1.39999
1.4
1.4
1.4
1.4
1.4
1.4
1.4
1.40001
1.4
1.40001
1.40001
1.4
1.40001
1.40001
1.40001
1.40001
1.40001
1.4
1.40001
1.4
1.4
1.40001
1.4
1.40001
1.40001
1.40001
1.40001
1.4
1.40001
1.40001
1.40001
1.40001
1.40001
1.40001
1.40001
1.40001
1.40002
1.40003
1.40006
1.4001
1.40016
1.40025
1.40037
1.40054
1.40077
1.4011
1.40162
1.40251
1.40409
1.40686
1.41147
1.41854
1.42823
1.43972
1.45104
1.45978
1.46416
1.46349
1.45794
1.44826
1.4356
1.42132
1.40674
1.39304
1.38118
1.37183
1.36538
1.36212
1.36235
1.36645
1.37469
1.3869
1.40235
1.41955
1.43636
1.45031
1.45926
1.46209
1.45907
1.45168
1.44196
1.43182
1.42264
1.41514
1.40948
1.40551
1.4029
1.40131
1.4004
1.39995
1.39976
1.39972
1.39975
1.3998
1.39985
1.3999
1.39994
1.39996
1.39998
1.39999
1.4
1.4
1.4
1.4
1.4
1.4
1.4
1.4
1.4
1.40001
1.40001
1.4
1.40001
1.40001
1.40001
1.40001
1.4
1.40001
1.4
1.40001
1.4
1.40001
1.4
1.40001
1.4
1.40001
1.40001
1.4
1.40001
1.40001
1.4
1.40001
1.40001
1.40001
1.40001
1.40001
1.40002
1.40004
1.40007
1.40011
1.40018
1.40028
1.40041
1.40061
1.40087
1.40127
1.40193
1.40308
1.40514
1.40871
1.41453
1.42315
1.43436
1.44658
1.45712
1.46335
1.4639
1.45871
1.44848
1.43433
1.41768
1.39999
1.38257
1.36658
1.35296
1.34233
1.33503
1.33133
1.3316
1.33632
1.34579
1.3599
1.37794
1.39851
1.41952
1.43837
1.45252
1.46017
1.46093
1.45589
1.4471
1.43684
1.42691
1.41842
1.41181
1.40706
1.40386
1.40186
1.4007
1.40009
1.39982
1.39973
1.39974
1.39979
1.39984
1.39989
1.39993
1.39996
1.39998
1.39999
1.4
1.4
1.4
1.4
1.4
1.4
1.4
1.4
1.4
1.40001
1.40001
1.4
1.40001
1.40001
1.4
1.40001
1.40001
1.4
1.40001
1.40001
1.4
1.40001
1.40001
1.4
1.40001
1.40001
1.40001
1.4
1.40001
1.40001
1.40001
1.40001
1.40001
1.40001
1.40001
1.40001
1.40003
1.40004
1.40007
1.40012
1.4002
1.4003
1.40045
1.40067
1.40098
1.40146
1.40228
1.40375
1.40636
1.41084
1.41798
1.42814
1.44051
1.45268
1.46137
1.46415
1.46032
1.45048
1.43579
1.41761
1.39744
1.37666
1.35651
1.33811
1.32246
1.31021
1.30175
1.29743
1.29776
1.30329
1.31434
1.33068
1.35152
1.37542
1.40036
1.42379
1.44294
1.45555
1.46056
1.45854
1.45136
1.44149
1.43114
1.42183
1.41433
1.40878
1.40497
1.40252
1.40107
1.40028
1.39991
1.39977
1.39975
1.39978
1.39983
1.39988
1.39992
1.39995
1.39997
1.39999
1.39999
1.4
1.4
1.4
1.4
1.4
1.4
1.4
1.40001
1.4
1.40001
1.4
1.40001
1.40001
1.40001
1.40001
1.40001
1.40001
1.4
1.40001
1.40001
1.4
1.40001
1.40001
1.4
1.40001
1.40001
1.4
1.40001
1.40001
1.40001
1.40001
1.40001
1.40001
1.40001
1.40002
1.40003
1.40005
1.40008
1.40013
1.40021
1.40033
1.40049
1.40073
1.40108
1.40165
1.40268
1.40452
1.40775
1.41324
1.42175
1.4333
1.44629
1.4575
1.46346
1.46224
1.45391
1.43969
1.421
1.39931
1.37595
1.3521
1.32886
1.30743
1.28895
1.27432
1.26409
1.25887
1.25937
1.26623
1.27957
1.29889
1.32311
1.35066
1.37956
1.40734
1.43125
1.44872
1.45816
1.45959
1.45456
1.44557
1.43516
1.42525
1.41695
1.41063
1.40618
1.40328
1.40151
1.40052
1.40002
1.39982
1.39976
1.39978
1.39983
1.39988
1.39992
1.39995
1.39997
1.39998
1.39999
1.4
1.4
1.4
1.4
1.4
1.4
1.4
1.40001
1.4
1.40001
1.4
1.40001
1.40001
1.40001
1.4
1.40001
1.4
1.40001
1.40001
1.4
1.40001
1.40001
1.4
1.40001
1.4
1.40001
1.40001
1.40001
1.4
1.40001
1.40001
1.40001
1.40001
1.40001
1.40002
1.40003
1.40005
1.40008
1.40014
1.40022
1.40035
1.40051
1.40078
1.40119
1.40186
1.40311
1.40537
1.4093
1.41583
1.4257
1.43836
1.45132
1.46075
1.46339
1.45803
1.44545
1.4273
1.40518
1.3804
1.35392
1.32657
1.29933
1.27362
1.251
1.23278
1.21996
1.21353
1.21457
1.2237
1.24058
1.26406
1.29258
1.32438
1.35748
1.38959
1.41805
1.4402
1.45407
1.45916
1.45666
1.44897
1.43884
1.42856
1.41958
1.41255
1.40748
1.4041
1.402
1.4008
1.40017
1.39989
1.39979
1.39979
1.39983
1.39988
1.39992
1.39995
1.39997
1.39998
1.39999
1.4
1.4
1.4
1.4
1.4
1.4
1.4
1.40001
1.4
1.40001
1.4
1.40001
1.40001
1.40001
1.4
1.40001
1.4
1.40001
1.4
1.40001
1.40001
1.4
1.40001
1.40001
1.4
1.40001
1.40001
1.40001
1.4
1.40001
1.40001
1.40001
1.40001
1.40001
1.40002
1.40003
1.40005
1.40009
1.40014
1.40023
1.40036
1.40053
1.40082
1.4013
1.40208
1.40357
1.4063
1.41096
1.41855
1.42966
1.44305
1.45533
1.46238
1.46149
1.45218
1.43578
1.41423
1.38917
1.36153
1.33167
1.29991
1.26722
1.23542
1.20682
1.18348
1.16704
1.15912
1.16136
1.17428
1.19663
1.22604
1.26011
1.29688
1.33451
1.37097
1.40384
1.43045
1.44864
1.45747
1.45772
1.45164
1.44209
1.43166
1.42216
1.41448
1.40883
1.40498
1.40254
1.40111
1.40034
1.39998
1.39984
1.39981
1.39984
1.39988
1.39992
1.39995
1.39997
1.39998
1.39999
1.4
1.4
1.4
1.4
1.4
1.4
1.4
1.40001
1.4
1.40001
1.40001
1.40001
1.40001
1.40001
1.40001
1.40001
1.40001
1.4
1.40001
1.4
1.40001
1.4
1.40001
1.40001
1.4
1.40001
1.4
1.40001
1.40001
1.40001
1.40001
1.40001
1.40001
1.40001
1.40002
1.40003
1.40005
1.40009
1.40014
1.40022
1.40037
1.40055
1.40085
1.4014
1.40231
1.40404
1.40727
1.4127
1.42129
1.43344
1.44718
1.45823
1.46257
1.45823
1.44538
1.42563
1.40116
1.37354
1.34308
1.30929
1.27186
1.23177
1.1916
1.15479
1.12453
1.10326
1.0935
1.09777
1.11656
1.14707
1.18485
1.22618
1.26882
1.31128
1.35205
1.3891
1.41993
1.44224
1.45475
1.45786
1.45359
1.44485
1.43448
1.4246
1.41637
1.41018
1.40588
1.40311
1.40146
1.40054
1.40009
1.3999
1.39984
1.39985
1.39988
1.39992
1.39995
1.39997
1.39998
1.39999
1.4
1.4
1.4
1.4
1.4
1.4
1.4
1.40001
1.4
1.40001
1.4
1.40001
1.4
1.40001
1.4
1.40001
1.40001
1.4
1.40001
1.4
1.40001
1.40001
1.4
1.40001
1.4
1.40001
1.40001
1.4
1.40001
1.4
1.40001
1.40001
1.40001
1.40001
1.40002
1.40003
1.40005
1.40009
1.40014
1.40022
1.40036
1.40055
1.40086
1.40149
1.40254
1.40451
1.40826
1.41447
1.42395
1.4369
1.45064
1.46012
1.46163
1.45412
1.43822
1.41562
1.38861
1.35866
1.32531
1.28689
1.2423
1.19263
1.14151
1.09407
1.05491
1.02742
1.01522
1.02229
1.04929
1.09122
1.14047
1.19127
1.24094
1.28858
1.33354
1.37443
1.40912
1.43525
1.45127
1.45722
1.45488
1.44711
1.43697
1.42685
1.41817
1.4115
1.40678
1.4037
1.40182
1.40076
1.40021
1.39997
1.39988
1.39987
1.3999
1.39992
1.39995
1.39997
1.39998
1.39999
1.4
1.4
1.4
1.4
1.4
1.4
1.4
1.40001
1.4
1.40001
1.4
1.40001
1.4
1.40001
1.40001
1.4
1.40001
1.4
1.40001
1.4
1.4
1.40001
1.40001
1.4
1.40001
1.4
1.40001
1.4
1.40001
1.40001
1.40001
1.40001
1.40001
1.40001
1.40002
1.40003
1.40005
1.40008
1.40014
1.4002
1.40035
1.40055
1.40085
1.40156
1.40277
1.40495
1.4092
1.41619
1.42643
1.43991
1.4534
1.4612
1.45993
1.44961
1.4312
1.40619
1.3769
1.34476
1.30842
1.26476
1.21164
1.15023
1.08568
1.02531
0.9755
0.940498
0.925134
0.935413
0.972535
1.02893
1.09289
1.15567
1.21379
1.26711
1.31614
1.36047
1.39852
1.42806
1.44732
1.45599
1.45558
1.4489
1.43911
1.42887
1.41983
1.41274
1.40765
1.40428
1.40219
1.40099
1.40035
1.40005
1.39993
1.3999
1.39991
1.39993
1.39995
1.39997
1.39998
1.39999
1.4
1.4
1.4
1.4
1.4
1.4
1.4
1.40001
1.4
1.40001
1.4
1.40001
1.40001
1.40001
1.4
1.40001
1.4
1.40001
1.40001
1.40001
1.40001
1.4
1.40001
1.4
1.40001
1.4
1.40001
1.40001
1.4
1.40001
1.40001
1.40001
1.40001
1.40001
1.40002
1.40003
1.40004
1.40007
1.40013
1.40018
1.40032
1.40054
1.40083
1.4016
1.40299
1.40537
1.41006
1.41781
1.42867
1.44239
1.4555
1.46171
1.45784
1.44505
1.42467
1.39768
1.36626
1.33196
1.29265
1.24349
1.18094
1.10625
1.02643
0.95168
0.890376
0.847302
0.828386
0.841732
0.88942
0.961802
1.04281
1.11978
1.18779
1.24733
1.30037
1.34774
1.38863
1.42108
1.4432
1.45437
1.45581
1.45023
1.44089
1.43062
1.42132
1.41388
1.40847
1.40483
1.40255
1.40122
1.40049
1.40014
1.39998
1.39993
1.39993
1.39994
1.39996
1.39998
1.39999
1.39999
1.4
1.4
1.4
1.4
1.4
1.4
1.4
1.40001
1.4
1.40001
1.40001
1.4
1.40001
1.4
1.4
1.40001
1.4
1.40001
1.4
1.4
1.40001
1.4
1.40001
1.4
1.40001
1.40001
1.4
1.4
1.40001
1.40001
1.40001
1.40001
1.40001
1.40001
1.40001
1.40003
1.40004
1.40006
1.40011
1.40016
1.40028
1.40052
1.40081
1.40159
1.40318
1.40576
1.41078
1.41924
1.43063
1.44434
1.45702
1.46189
1.45569
1.4407
1.41886
1.39035
1.3569
1.32038
1.27825
1.22395
1.15211
1.0638
0.9683
0.879303
0.807178
0.756867
0.734864
0.750483
0.806953
0.894085
0.992341
1.08459
1.16346
1.22965
1.28659
1.33661
1.37983
1.41466
1.4392
1.45256
1.45569
1.45117
1.4423
1.43208
1.42259
1.41488
1.4092
1.40534
1.40289
1.40144
1.40064
1.40023
1.40004
1.39997
1.39995
1.39996
1.39997
1.39998
1.39999
1.4
1.4
1.4
1.4
1.4
1.4
1.4
1.4
1.40001
1.4
1.40001
1.40001
1.4
1.40001
1.4
1.4
1.40001
1.4
1.4
1.40001
1.4
1.40001
1.4
1.40001
1.4
1.40001
1.4
1.40001
1.40001
1.4
1.40001
1.40001
1.40001
1.40001
1.40001
1.40001
1.40002
1.40003
1.40005
1.4001
1.40014
1.40023
1.40048
1.40078
1.40155
1.40331
1.40611
1.41135
1.4204
1.43229
1.44582
1.458
1.46193
1.4538
1.43678
1.41386
1.38437
1.34906
1.31017
1.26548
1.20706
1.12748
1.02714
0.917591
0.816302
0.735467
0.680155
0.656406
0.673125
0.73472
0.832444
0.945278
1.05196
1.1417
1.21454
1.27513
1.32736
1.37237
1.40907
1.43556
1.45075
1.45535
1.45178
1.44338
1.43325
1.42364
1.41572
1.40983
1.40579
1.40321
1.40165
1.40078
1.40032
1.4001
1.40001
1.39998
1.39997
1.39998
1.39999
1.39999
1.4
1.4
1.4
1.4
1.4
1.4
1.4
1.4
1.40001
1.4
1.40001
1.40001
1.4
1.40001
1.4
1.40001
1.4
1.40001
1.4
1.40001
1.40001
1.4
1.40001
1.40001
1.40001
1.4
1.4
1.40001
1.40001
1.4
1.40001
1.40001
1.4
1.40001
1.40001
1.40001
1.40002
1.40002
1.40003
1.40007
1.40011
1.40017
1.40041
1.40075
1.40148
1.40335
1.40639
1.41175
1.42121
1.43362
1.44691
1.45851
1.46191
1.45243
1.43353
1.40968
1.37983
1.34305
1.30164
1.25451
1.19347
1.1091
1.00044
0.880671
0.770419
0.683692
0.62615
0.602424
0.61933
0.681927
0.784373
0.906592
1.02455
1.12376
1.20259
1.26631
1.32019
1.36647
1.40451
1.43248
1.44911
1.45489
1.45213
1.44413
1.43412
1.42445
1.41639
1.41035
1.40617
1.40348
1.40185
1.40092
1.40042
1.40017
1.40005
1.40001
1.39999
1.39999
1.39999
1.4
1.4
1.4
1.4
1.4
1.4
1.4
1.40001
1.4
1.40001
1.4
1.40001
1.40001
1.4
1.40001
1.4
1.40001
1.40001
1.4
1.40001
1.4
1.4
1.40001
1.4
1.40001
1.40001
1.4
1.4
1.4
1.40001
1.40001
1.4
1.40001
1.4
1.40001
1.40001
1.40001