/*--------------------------------*- C++ -*----------------------------------*\
  =========                 |
  \\      /  F ield         | OpenFOAM: The Open Source CFD Toolbox
   \\    /   O peration     | Website:  https://openfoam.org
    \\  /    A nd           | Version:  6
     \\/     M anipulation  |
\*---------------------------------------------------------------------------*/
FoamFile
{
    version     2.0;
    format      ascii;
    class       volScalarField;
    location    "1.86";
    object      epsilon;
}
// * * * * * * * * * * * * * * * * * * * * * * * * * * * * * * * * * * * * * //

dimensions      [0 2 -3 0 0 0 0];

internalField   nonuniform List<scalar> 
4214
(
0.136907
0.0508064
0.0226514
0.013348
0.010335
0.00948748
0.00948533
0.0100013
0.0111499
0.0133102
0.0171967
0.0239842
0.0355394
0.0546956
0.0857391
0.135791
0.220027
0.3792
0.716404
1.10635
1.18229
1.25176
0.924308
0.579448
0.363753
0.228981
0.142075
0.0866759
0.0526483
0.0326068
0.0212626
0.0150571
0.0117907
0.0101614
0.00946487
0.00943626
0.0103302
0.0134643
0.0230579
0.0519833
0.140245
0.0316719
0.0167855
0.0117236
0.00999553
0.00946716
0.00944796
0.0097702
0.010511
0.0119454
0.0145742
0.0192458
0.0273086
0.0408522
0.0629515
0.0981409
0.153844
0.246319
0.419997
0.782137
1.2058
1.28558
1.42143
1.09178
0.690468
0.433203
0.273861
0.170868
0.104542
0.0633188
0.0387711
0.0247504
0.0170137
0.0128979
0.0107905
0.0097835
0.00938496
0.00940888
0.00997309
0.0117584
0.0169232
0.0320249
0.0133998
0.0109583
0.00997474
0.00960822
0.00956078
0.00975193
0.0102359
0.0111972
0.0129992
0.0162539
0.0219638
0.0316844
0.0477599
0.0735188
0.113736
0.176105
0.277847
0.466318
0.853247
1.30971
1.38718
1.59832
1.28785
0.828353
0.519727
0.329875
0.207136
0.127355
0.077146
0.0468655
0.0293776
0.0196287
0.0143882
0.0116618
0.0103156
0.00970018
0.00948721
0.00954862
0.00993116
0.0109158
0.0133233
0.0110433
0.0102577
0.00991097
0.00981335
0.00990863
0.0102206
0.0108711
0.0121129
0.0144038
0.0184848
0.0255517
0.0374072
0.0566872
0.0869792
0.133288
0.203583
0.316235
0.522464
0.936489
1.43329
1.51085
1.80412
1.52638
0.998608
0.627766
0.399538
0.252516
0.15623
0.0948849
0.0573744
0.0354489
0.0230834
0.0163687
0.0128258
0.0110424
0.0101883
0.00982512
0.00973281
0.00984173
0.0101849
0.0109326
0.0104498
0.0101982
0.0101123
0.0101638
0.010374
0.0108213
0.0116895
0.0133091
0.0162569
0.0214356
0.0302837
0.0448968
0.0682397
0.104153
0.157854
0.237611
0.363048
0.5885
1.03161
1.57067
1.64628
2.02413
1.80827
1.20932
0.763495
0.486488
0.309305
0.192732
0.117602
0.0709907
0.0433926
0.0276291
0.0189805
0.0143535
0.0119873
0.0108198
0.0102831
0.0100647
0.0100267
0.0101204
0.0103646
0.010503
0.0104526
0.0104996
0.0106538
0.0109746
0.0115873
0.0127467
0.0148778
0.0187111
0.0253515
0.0365431
0.0547242
0.0832251
0.126121
0.188812
0.279942
0.420595
0.668335
1.14312
1.72706
1.80467
2.25959
2.14204
1.47037
0.933768
0.595489
0.38044
0.238818
0.146643
0.088602
0.0537727
0.0335998
0.0224193
0.0163539
0.0132111
0.0116266
0.010874
0.0105298
0.0103918
0.0103638
0.0104233
0.0108424
0.0109016
0.0110338
0.0112748
0.0117214
0.0125519
0.0141116
0.0169426
0.021979
0.0305762
0.0448679
0.0676814
0.102748
0.154337
0.227989
0.332819
0.491758
0.765437
1.27488
1.9053
1.98958
2.50772
2.5329
1.79311
1.14799
0.732909
0.469883
0.297091
0.183803
0.111401
0.0673608
0.041458
0.0269565
0.0189751
0.0147931
0.012644
0.0116069
0.0111149
0.0108918
0.0107908
0.0107594
0.0113907
0.0115035
0.0116972
0.0120276
0.0126377
0.0137695
0.0158908
0.0196888
0.0263748
0.0376113
0.056031
0.0848854
0.128336
0.190767
0.27784
0.399218
0.580293
0.8845
1.43217
2.1099
2.2054
2.77017
2.98629
2.19062
1.41845
0.906946
0.583002
0.371035
0.231482
0.140998
0.0852229
0.0518504
0.0329827
0.0224325
0.0168527
0.0139286
0.0125033
0.0118166
0.0115029
0.011351
0.0112802
0.0120662
0.012218
0.0124754
0.0129211
0.0137647
0.0153274
0.0182502
0.0233975
0.032372
0.0471967
0.0711571
0.107926
0.162117
0.238085
0.341645
0.483145
0.690949
1.03138
1.62135
2.34607
2.45599
3.04837
3.50636
2.67732
1.76058
1.12869
0.727043
0.465382
0.292931
0.179582
0.108847
0.065692
0.0410672
0.0270435
0.0195724
0.015571
0.0136036
0.0126402
0.0122071
0.0120022
0.0119084
0.0128389
0.0130304
0.0133738
0.0139874
0.0151811
0.0173703
0.0214555
0.0285042
0.0406965
0.060438
0.0918969
0.139069
0.207053
0.299925
0.423789
0.589899
0.830154
1.21312
1.85013
2.62035
2.74527
3.3452
4.09604
3.26846
2.19269
1.41267
0.911936
0.586568
0.3726
0.230135
0.140325
0.0842782
0.0520483
0.0332787
0.023235
0.017717
0.014985
0.013613
0.0130046
0.0127243
0.0126095
0.0136981
0.0139466
0.0144246
0.0152944
0.0170269
0.0201355
0.0259362
0.035688
0.0524737
0.0789905
0.120676
0.181527
0.267232
0.38119
0.530124
0.726459
1.00629
1.43885
2.12681
2.93973
3.07673
3.66475
4.75706
3.97896
2.73528
1.7777
1.15126
0.743413
0.476641
0.296722
0.182603
0.109437
0.0671672
0.0418355
0.028281
0.0205961
0.0167812
0.0147942
0.0139199
0.0135154
0.0133656
0.0146584
0.0149979
0.0156978
0.0169639
0.0195446
0.0240089
0.0323951
0.0460112
0.0694618
0.10532
0.161045
0.239783
0.348246
0.488444
0.668469
0.90195
1.23003
1.71982
2.46139
3.31166
3.45315
4.01242
5.48823
4.82022
3.41146
2.24687
1.46321
0.948023
0.613682
0.384865
0.239877
0.143723
0.0882749
0.0537411
0.0354001
0.0245632
0.0192169
0.0162888
0.0150103
0.014395
0.0141808
0.0157591
0.0162448
0.017324
0.0192023
0.0231537
0.0296131
0.0419991
0.0611251
0.0944206
0.143037
0.218157
0.31996
0.457688
0.630439
0.849321
1.1284
1.51485
2.06911
2.86523
3.74539
3.87745
4.39522
6.28628
5.80034
4.24362
2.84727
1.87195
1.21689
0.796044
0.502034
0.318199
0.190657
0.118159
0.0704904
0.0456893
0.0301593
0.0226671
0.0182683
0.0163831
0.0154051
0.0150779
0.0170762
0.0177902
0.0195451
0.0223525
0.0285973
0.0379426
0.056721
0.0835469
0.131696
0.197258
0.299446
0.430157
0.605937
0.818868
1.08696
1.42144
1.87733
2.50151
3.35073
4.25374
4.3567
4.82938
7.1538
6.92431
5.25034
3.60835
2.40898
1.57198
1.04175
0.658163
0.426519
0.254961
0.161091
0.0942054
0.0609327
0.0381951
0.0277715
0.0210042
0.0182336
0.0166171
0.0161045
0.0187444
0.0198
0.0228253
0.0269668
0.0372396
0.0505371
0.0799767
0.116933
0.18817
0.274777
0.415671
0.580606
0.807713
1.06935
1.40125
1.80053
2.33664
3.03219
3.9313
4.85854
4.91717
5.38548
8.10657
8.19559
6.4431
4.55845
3.11495
2.04109
1.37806
0.865931
0.578586
0.342623
0.223798
0.127734
0.0841213
0.0498337
0.0356629
0.0249091
0.0209321
0.018146
0.0173524
0.0210302
0.0225294
0.0281135
0.0338672
0.0516997
0.0695687
0.117853
0.166034
0.274982
0.383515
0.583139
0.783191
1.08578
1.40163
1.82094
2.28693
2.91431
3.66931
4.61282
5.5944
5.85204
6.24751
9.17446
9.59694
7.80778
5.70966
4.04319
2.65407
1.84899
1.13985
0.796922
0.460285
0.317393
0.174408
0.120492
0.0665628
0.0484582
0.0305459
0.0252171
0.0201646
0.0190155
0.0245722
0.0263015
0.0375003
0.0439986
0.0773438
0.0973721
0.18178
0.235292
0.41118
0.529956
0.829698
1.04881
1.48066
1.8345
2.39169
2.90046
3.63369
4.37889
5.34563
6.45466
5.50275
6.47171
9.79406
10.9558
9.22273
7.00742
5.26717
3.42422
2.53401
1.49129
1.12221
0.612326
0.461773
0.236578
0.179828
0.0896284
0.0703913
0.0384403
0.0326753
0.0228664
0.0215519
0.0193591
0.0180536
0.0169048
0.0158883
0.0149703
0.0141213
0.0133221
0.0125684
0.0118696
0.01126
0.0107859
0.010592
0.0108441
0.012518
0.0194608
0.0779425
0.418216
0.0193056
0.0181094
0.0170844
0.0161669
0.0153194
0.0145192
0.013757
0.0130361
0.0123667
0.0117748
0.0112945
0.0110698
0.011301
0.0131822
0.0229221
0.100908
0.490641
0.019185
0.018223
0.0173329
0.0164974
0.0157031
0.0149413
0.0142108
0.0135203
0.0128813
0.0123131
0.0118436
0.0116067
0.0118288
0.0138637
0.0264005
0.129546
0.564552
0.0193672
0.0185016
0.0176748
0.0168865
0.0161283
0.0153961
0.0146938
0.0140339
0.0134267
0.0128857
0.0124346
0.0121959
0.0124161
0.0145575
0.0292979
0.159095
0.650572
0.0196986
0.0188602
0.0180737
0.01732
0.0165896
0.0158823
0.0152073
0.0145785
0.0140034
0.0134921
0.0130679
0.0128434
0.0130808
0.0153046
0.0312742
0.184708
0.74744
0.0199864
0.0192553
0.0185188
0.0177946
0.0170871
0.0164031
0.0157567
0.0151598
0.0146171
0.0141363
0.013743
0.0135433
0.0138183
0.0160645
0.0325363
0.201819
0.853251
0.0205249
0.01975
0.0190201
0.0183121
0.017623
0.0169629
0.0163469
0.015783
0.0152732
0.0148237
0.014464
0.0142984
0.014628
0.016909
0.033309
0.207755
0.963248
0.0208852
0.0202322
0.01955
0.0188669
0.0181997
0.0175672
0.0169841
0.0164547
0.0159778
0.01556
0.0152353
0.0151112
0.0155097
0.0178489
0.033861
0.204161
1.07377
0.021563
0.0208315
0.0201404
0.0194686
0.0188239
0.0182231
0.0176757
0.0171815
0.0167376
0.0163524
0.0160642
0.0159879
0.0164677
0.0189007
0.0344656
0.197218
1.18161
0.0219915
0.0213957
0.0207535
0.0201113
0.0194996
0.0189374
0.018429
0.0179705
0.0175598
0.0172082
0.0169592
0.0169367
0.0175103
0.0200804
0.0353126
0.1906
1.28611
0.0227904
0.0220918
0.0214346
0.0208113
0.0202364
0.0197174
0.0192506
0.0188291
0.0184524
0.0181358
0.0179299
0.0179684
0.0186509
0.0214053
0.0365249
0.186227
1.38637
0.0232925
0.0227418
0.0221426
0.0215652
0.0210399
0.0205698
0.0201468
0.0197637
0.019423
0.0191442
0.0189867
0.0190943
0.0199054
0.0228963
0.0381926
0.184634
1.48222
0.0242032
0.0235357
0.0229328
0.0223945
0.0219216
0.0215025
0.0211242
0.0207812
0.0204793
0.0202422
0.0201391
0.0203251
0.0212897
0.0245737
0.0403614
0.185708
1.57482
0.0247894
0.0242883
0.0237666
0.0232972
0.022887
0.0225218
0.0221899
0.0218892
0.0216295
0.0214392
0.0213986
0.0216735
0.0228162
0.0264493
0.0430367
0.189024
1.66165
0.0258048
0.0251966
0.0247014
0.0242936
0.0239454
0.0236346
0.0233508
0.0230955
0.0228826
0.0227455
0.0227763
0.0231544
0.024505
0.0285459
0.0462168
0.193966
1.74174
0.0264984
0.0260906
0.0257048
0.0253811
0.0250999
0.0248461
0.0246137
0.0244088
0.0242488
0.0241732
0.0242853
0.0247817
0.02637
0.0308785
0.0499245
0.199632
1.81077
0.0276181
0.0271501
0.0268238
0.0265739
0.026358
0.0261635
0.0259873
0.0258395
0.0257401
0.0257354
0.0259395
0.0265719
0.0284253
0.0334634
0.0541146
0.205276
1.86483
0.028465
0.0282399
0.0280326
0.0278696
0.0277231
0.0275938
0.0274813
0.0273993
0.0273701
0.0274468
0.0277552
0.0285426
0.0306856
0.0363152
0.0584984
0.212307
1.90107
0.0297
0.0294923
0.0293591
0.0292767
0.0292028
0.0291464
0.0291068
0.0291011
0.0291538
0.0293254
0.029752
0.0307138
0.033169
0.0394616
0.0633292
0.219737
1.91954
0.0307796
0.0308153
0.0307868
0.0307959
0.0308043
0.0308327
0.0308784
0.0309616
0.0311093
0.0313898
0.0319495
0.033109
0.0358991
0.0429234
0.0686344
0.227658
1.91579
0.0321562
0.0322744
0.032333
0.0324375
0.0325406
0.0326671
0.0328131
0.0330006
0.0332598
0.0336657
0.0343751
0.0357511
0.0388902
0.0467125
0.074418
0.236272
1.88679
0.03358
0.0338233
0.0339955
0.0342102
0.0344253
0.0346662
0.0349307
0.0352414
0.0356321
0.0361834
0.0370635
0.0386816
0.0422008
0.0508905
0.0808264
0.247067
1.83707
0.0351276
0.0354922
0.0357923
0.0361308
0.0364768
0.0368516
0.0372562
0.037713
0.0382596
0.0389812
0.0400589
0.0419439
0.0458754
0.0555054
0.0879382
0.25726
1.77392
0.0367977
0.0372771
0.0377255
0.0382124
0.0387133
0.0392466
0.039817
0.0404469
0.0411764
0.0420938
0.0433915
0.0455505
0.0498647
0.0603035
0.094597
0.264585
1.70448
0.0385635
0.0392098
0.0398231
0.0404781
0.0411589
0.0418801
0.0426481
0.0434851
0.0444321
0.0455784
0.0471245
0.0495675
0.0542393
0.0653139
0.10077
0.268542
1.63112
0.0404729
0.0412801
0.04209
0.0429481
0.0438423
0.0447874
0.0457919
0.046878
0.048087
0.0495071
0.0513414
0.0540904
0.0590976
0.0706212
0.106526
0.269873
1.5558
0.0425026
0.0435299
0.0445593
0.0456501
0.0467959
0.0480087
0.0492982
0.0506868
0.0522155
0.0539704
0.0561499
0.0592476
0.0645896
0.0764028
0.112082
0.269606
1.48007
0.0447023
0.045949
0.0472429
0.0486131
0.0500581
0.0515918
0.0532265
0.0549851
0.0569084
0.0590793
0.0616876
0.0652082
0.0709275
0.0829665
0.118019
0.268837
1.4051
0.0470493
0.0485845
0.0501762
0.0518714
0.0536722
0.0555924
0.0576471
0.0598609
0.0622757
0.0649711
0.0681267
0.0721887
0.0783865
0.0906645
0.124842
0.268247
1.33166
0.0495931
0.0514302
0.0533807
0.0554637
0.0576897
0.0600765
0.0626441
0.0654213
0.0684526
0.0718165
0.0756823
0.0804631
0.0873095
0.0999262
0.13314
0.268544
1.26024
0.0523198
0.0545362
0.0568955
0.0594349
0.0621695
0.0651218
0.0683186
0.0717959
0.0756048
0.0798271
0.0846256
0.0903815
0.0981496
0.111353
0.14367
0.270597
1.19116
0.0552627
0.0579031
0.0607522
0.0638359
0.0671811
0.0708203
0.0747915
0.0791427
0.0839375
0.089269
0.0953013
0.102392
0.111497
0.125723
0.15748
0.275743
1.12467
0.0584331
0.0615823
0.0649965
0.0687249
0.0728045
0.0772811
0.0822095
0.0876566
0.093708
0.10048
0.108155
0.117083
0.128138
0.144092
0.176025
0.285874
1.06092
0.0618567
0.0655822
0.0696704
0.0741685
0.0791341
0.0846346
0.0907504
0.0975791
0.105242
0.113898
0.123772
0.135241
0.149135
0.167913
0.201288
0.303552
1.00002
0.0655441
0.0699547
0.0748276
0.0802427
0.08628
0.0930373
0.100633
0.109213
0.118956
0.130093
0.142933
0.157937
0.175964
0.199245
0.236126
0.332572
0.94199
0.0695218
0.0747159
0.0805224
0.0870351
0.094373
0.102679
0.11213
0.122943
0.135392
0.149826
0.166702
0.186662
0.210731
0.241095
0.284857
0.378885
0.886838
0.0737994
0.0799184
0.0868192
0.0946464
0.103568
0.113792
0.125581
0.139265
0.155263
0.174122
0.196557
0.223548
0.256526
0.297995
0.354253
0.452267
0.834514
0.0784012
0.0855837
0.0937841
0.103191
0.114047
0.126659
0.141415
0.158818
0.179521
0.204389
0.234583
0.271697
0.318006
0.377024
0.455329
0.569835
0.784933
0.0833326
0.0917618
0.10149
0.112795
0.126023
0.141619
0.160168
0.182434
0.209443
0.242586
0.283783
0.335744
0.402386
0.489594
0.606627
0.763329
0.737958
0.0886102
0.0984755
0.110015
0.123608
0.13975
0.1591
0.182529
0.211218
0.246788
0.291507
0.348618
0.422855
0.521319
0.654985
0.841096
1.0948
0.693383
0.0941649
0.0987916
0.103554
0.108434
0.113406
0.118442
0.123505
0.128557
0.133555
0.138451
0.143195
0.147733
0.15201
0.155968
0.159554
0.162714
0.1654
0.167569
0.169182
0.170214
0.17062
0.170223
0.169204
0.167602
0.165444
0.162769
0.159618
0.156041
0.15209
0.14782
0.143287
0.138547
0.133653
0.128656
0.123603
0.118539
0.1135
0.108526
0.103642
0.0988724
0.0942354
0.105694
0.110837
0.116126
0.121531
0.127034
0.132596
0.138183
0.143748
0.149249
0.154628
0.159836
0.164809
0.169491
0.173819
0.177736
0.181183
0.184109
0.186468
0.188221
0.189336
0.189771
0.189345
0.188243
0.186502
0.184155
0.181239
0.177803
0.173895
0.169576
0.1649
0.159933
0.154729
0.149353
0.143853
0.138289
0.132699
0.127136
0.12163
0.116221
0.110926
0.105775
0.119358
0.125096
0.130981
0.136992
0.143099
0.149264
0.155446
0.161597
0.167666
0.173595
0.179326
0.184793
0.189933
0.194679
0.198968
0.202739
0.205936
0.208509
0.210417
0.211626
0.212093
0.211636
0.210439
0.208544
0.205983
0.202797
0.199037
0.194758
0.19002
0.184888
0.179427
0.173701
0.167774
0.161707
0.155556
0.149373
0.143206
0.137097
0.131082
0.125191
0.119449
0.1357
0.142119
0.148692
0.155397
0.162198
0.169054
0.175917
0.182736
0.189454
0.196009
0.202334
0.208361
0.21402
0.219239
0.223949
0.228085
0.231587
0.234402
0.236485
0.2378
0.238303
0.23781
0.236508
0.234438
0.231636
0.228145
0.22402
0.21932
0.21411
0.208459
0.202438
0.196118
0.189567
0.18285
0.176031
0.169167
0.16231
0.155506
0.148798
0.142222
0.1358
0.155436
0.162643
0.17001
0.177516
0.185117
0.192765
0.200411
0.207995
0.215456
0.222724
0.229728
0.236392
0.24264
0.248395
0.253582
0.258132
0.26198
0.265067
0.267346
0.268782
0.269324
0.268792
0.26737
0.265103
0.262028
0.258193
0.253655
0.248479
0.242732
0.236492
0.229834
0.222836
0.215571
0.208112
0.200528
0.192882
0.185231
0.177627
0.170122
0.162754
0.155544
0.179529
0.187655
0.195944
0.204375
0.2129
0.221464
0.23001
0.238474
0.246786
0.254871
0.262649
0.270039
0.276958
0.283323
0.289052
0.29407
0.298308
0.301703
0.304205
0.305775
0.306362
0.305785
0.304228
0.301739
0.298356
0.294131
0.289125
0.283407
0.277052
0.27014
0.262757
0.254984
0.246902
0.238592
0.230128
0.221581
0.213015
0.204489
0.19606
0.187771
0.179643
0.209296
0.218497
0.227861
0.237368
0.246963
0.256586
0.266172
0.275649
0.284939
0.293959
0.302624
0.310843
0.318526
0.325584
0.331927
0.337476
0.342156
0.3459
0.348653
0.350374
0.351011
0.350384
0.348676
0.345935
0.342204
0.337537
0.332
0.325668
0.318619
0.310944
0.302731
0.294071
0.285054
0.275765
0.266288
0.256702
0.24708
0.237484
0.227981
0.218617
0.209414
0.246569
0.257033
0.267654
0.278415
0.289255
0.300103
0.310889
0.321534
0.331949
0.342043
0.35172
0.360885
0.369439
0.377283
0.384324
0.390474
0.395653
0.39979
0.402826
0.404717
0.40541
0.404727
0.402848
0.399824
0.3957
0.390533
0.384396
0.377366
0.369529
0.360984
0.351826
0.342152
0.33206
0.321646
0.311002
0.300218
0.28937
0.278532
0.267774
0.257154
0.246688
0.293944
0.305893
0.317988
0.330213
0.342499
0.354768
0.36694
0.378927
0.390634
0.401957
0.412792
0.423033
0.432574
0.44131
0.449139
0.455967
0.461708
0.466286
0.469639
0.471721
0.472476
0.47173
0.46966
0.466318
0.461752
0.456023
0.449207
0.44139
0.432661
0.423128
0.412892
0.40206
0.390738
0.379033
0.367048
0.354879
0.342611
0.330326
0.318105
0.306012
0.294061
0.355181
0.368877
0.382695
0.396626
0.410591
0.424502
0.438268
0.451794
0.464975
0.477697
0.489845
0.501304
0.511958
0.521696
0.530408
0.537994
0.544362
0.549432
0.553138
0.555431
0.556254
0.555439
0.553157
0.549462
0.544403
0.538046
0.530472
0.521771
0.512039
0.501392
0.489937
0.477791
0.46507
0.451892
0.438369
0.424606
0.410697
0.396733
0.382806
0.36899
0.355293
0.435861
0.451597
0.46742
0.483324
0.499222
0.515014
0.530598
0.545869
0.560715
0.57501
0.588629
0.601447
0.613339
0.624186
0.633873
0.642293
0.64935
0.654958
0.659049
0.661572
0.662469
0.661579
0.659066
0.654984
0.649386
0.64234
0.633931
0.624255
0.61341
0.601524
0.588708
0.575092
0.560799
0.545957
0.53069
0.515108
0.499319
0.483421
0.467521
0.4517
0.435964
0.544491
0.562576
0.580695
0.598845
0.616929
0.634835
0.65245
0.669658
0.68634
0.70236
0.717586
0.73188
0.74511
0.757151
0.767883
0.777193
0.784982
0.791161
0.795659
0.798424
0.799397
0.79843
0.795673
0.791183
0.785013
0.777234
0.767933
0.757211
0.74517
0.731944
0.717651
0.70243
0.686412
0.669734
0.652529
0.634917
0.617012
0.598929
0.580783
0.562666
0.544579
0.694447
0.715154
0.735814
0.756425
0.776885
0.797072
0.81686
0.836121
0.854736
0.872556
0.889443
0.905256
0.919853
0.933104
0.944889
0.955092
0.963611
0.970356
0.975256
0.978258
0.979305
0.978262
0.975267
0.970374
0.963635
0.955125
0.94493
0.933154
0.919898
0.905305
0.889493
0.872611
0.854792
0.836183
0.816924
0.797138
0.776952
0.756493
0.735884
0.715226
0.694517
0.907513
0.930945
0.954196
0.977285
1.0001
1.02253
1.04442
1.06564
1.08607
1.10556
1.12397
1.14116
1.15698
1.17129
1.184
1.19497
1.20412
1.21134
1.21658
1.21977
1.22088
1.21978
1.21659
1.21135
1.20413
1.195
1.18403
1.17133
1.15701
1.14119
1.12401
1.1056
1.08611
1.06568
1.04447
1.02257
1.00015
0.977334
0.954246
0.930995
0.907563
1.22063
1.2464
1.27173
1.29677
1.32138
1.34545
1.36885
1.39142
1.41305
1.4336
1.45294
1.47093
1.48743
1.50232
1.5155
1.52686
1.53629
1.54373
1.54911
1.55238
1.55351
1.55239
1.54911
1.54374
1.5363
1.52687
1.51552
1.50234
1.48745
1.47095
1.45296
1.43363
1.41307
1.39144
1.36888
1.34548
1.32141
1.2968
1.27176
1.24642
1.22066
1.69943
1.72585
1.75136
1.77642
1.80091
1.82472
1.84773
1.86982
1.89088
1.91079
1.92944
1.94671
1.9625
1.9767
1.98922
1.99998
2.0089
2.01591
2.02097
2.02404
2.02509
2.02404
2.02097
2.01592
2.0089
1.99999
1.98923
1.97671
1.96251
1.94672
1.92945
1.9108
1.89089
1.86983
1.84774
1.82473
1.80092
1.77643
1.75137
1.72586
1.69944
2.46712
2.48918
2.50938
2.52906
2.54816
2.5666
2.5843
2.6012
2.6172
2.63225
2.64627
2.65919
2.67095
2.68148
2.69073
2.69865
2.7052
2.71034
2.71403
2.71627
2.71702
2.71627
2.71403
2.71034
2.7052
2.69866
2.69073
2.68148
2.67095
2.65919
2.64627
2.63225
2.61721
2.6012
2.58431
2.5666
2.54816
2.52907
2.50938
2.48918
2.46712
0.408981
0.0771317
0.0196782
0.0127447
0.0109594
0.0106805
0.0108505
0.0113386
0.01198
0.0127332
0.0135682
0.0144836
0.0154986
0.0166619
0.0180404
0.0196875
0.0215881
0.481234
0.101068
0.0235002
0.0134866
0.0114356
0.0111635
0.0113672
0.0118623
0.0124848
0.0132049
0.0139994
0.0148629
0.0158
0.0168468
0.0180747
0.0195807
0.0214351
0.55583
0.131478
0.0274126
0.0141973
0.0119725
0.0117056
0.0119246
0.0124081
0.0130046
0.0136902
0.0144463
0.0152648
0.016138
0.0170815
0.0181457
0.0194384
0.0211468
0.643493
0.163781
0.0307524
0.0148979
0.0125644
0.012298
0.0125225
0.0129867
0.0135539
0.0142042
0.0149238
0.0157035
0.0165284
0.0173936
0.0183104
0.0193016
0.0204095
0.743147
0.192649
0.033008
0.0156494
0.0132293
0.0129495
0.0131621
0.0135984
0.0141335
0.0147478
0.0154322
0.0161788
0.0169714
0.0177964
0.018654
0.0195494
0.0204919
0.852859
0.212576
0.0343193
0.0164174
0.013966
0.0136526
0.0138425
0.0142465
0.0147493
0.015327
0.0159749
0.0166891
0.0174543
0.0182519
0.0190739
0.0199228
0.0207783
0.968073
0.220611
0.0349849
0.0172367
0.0147734
0.0144094
0.0145677
0.0149368
0.0154061
0.0159475
0.016558
0.017238
0.0179749
0.018747
0.0195393
0.0203604
0.02125
1.08442
0.216828
0.0353309
0.01814
0.0156516
0.0152233
0.0153424
0.0156755
0.0161106
0.016616
0.0171889
0.0178325
0.0185386
0.0192832
0.0200385
0.020787
0.0215386
1.19743
0.207718
0.0356477
0.0191515
0.0166039
0.0161001
0.0161742
0.0164699
0.0168704
0.0173401
0.0178741
0.0184778
0.01915
0.0198728
0.0206157
0.0213425
0.0219884
1.3054
0.198442
0.0361934
0.0202911
0.0176397
0.0170492
0.017072
0.0173285
0.017694
0.0181273
0.01862
0.019178
0.0198071
0.0205005
0.0212376
0.0220024
0.0228083
1.40705
0.19177
0.0371438
0.0215806
0.018774
0.0180816
0.0180464
0.0182601
0.0185889
0.0189842
0.0194336
0.0199421
0.0205191
0.021165
0.0218595
0.0225656
0.0232683
1.50349
0.188403
0.0386211
0.0230424
0.0200224
0.0192079
0.0191065
0.0192725
0.019562
0.0199171
0.0203221
0.0207797
0.021302
0.0218988
0.0225609
0.0232385
0.0238179
1.59616
0.188425
0.0406455
0.0246881
0.0213975
0.020438
0.0202624
0.0203739
0.0206204
0.0209334
0.0212926
0.0216972
0.0221591
0.0226968
0.0233253
0.0240382
0.0248069
1.68288
0.191091
0.0431974
0.0265313
0.0229168
0.0217859
0.021524
0.0215732
0.0217723
0.0220407
0.0223529
0.0227029
0.0230991
0.02356
0.0241078
0.0247431
0.0254391
1.76302
0.195582
0.0463006
0.0285987
0.0245979
0.0232644
0.0229027
0.0228809
0.0230264
0.0232462
0.0235096
0.0238054
0.024137
0.0245215
0.024989
0.0255451
0.0260868
1.82996
0.200395
0.0499261
0.0308978
0.0264519
0.0248865
0.0244104
0.0243081
0.0243922
0.024558
0.0247689
0.025009
0.0252762
0.0255846
0.0259714
0.0264928
0.0271729
1.88188
0.20543
0.0539725
0.0334436
0.0284922
0.0266688
0.0260606
0.0258674
0.0258809
0.0259855
0.0261381
0.0263191
0.0265202
0.0267488
0.0270287
0.0274196
0.0279923
1.91549
0.211982
0.0582409
0.0362524
0.0307332
0.0286286
0.0278691
0.0275733
0.0275058
0.0275403
0.0276267
0.0277433
0.0278764
0.0280289
0.0282105
0.0284685
0.0287931
1.93153
0.219069
0.062956
0.0393536
0.0331916
0.0307859
0.0298554
0.0294434
0.0292822
0.0292357
0.0292456
0.0292889
0.0293478
0.0294242
0.0295163
0.0296858
0.0299787
1.92564
0.226732
0.0681506
0.0427694
0.0358927
0.0331641
0.0320413
0.0314982
0.0312278
0.0310865
0.0310079
0.030966
0.03094
0.0309323
0.0309262
0.0309784
0.0310793
1.8952
0.235138
0.073837
0.0465134
0.0388584
0.0357879
0.0344516
0.0337613
0.0333667
0.0331142
0.0329314
0.0327898
0.0326656
0.0325634
0.0324582
0.0324041
0.0322635
1.8447
0.245672
0.0801531
0.0506439
0.042147
0.0386986
0.0371231
0.0362644
0.0357253
0.0353419
0.0350366
0.0347767
0.0345384
0.034326
0.0341146
0.0339536
0.0336973
1.77908
0.256912
0.0871872
0.0552105
0.0457894
0.0419402
0.0400991
0.0390451
0.0383371
0.0377992
0.0373484
0.0369479
0.036576
0.0362337
0.035897
0.0355976
0.0352391
1.7076
0.263502
0.0939162
0.0600186
0.0497682
0.0455341
0.0434168
0.0421426
0.0412389
0.0405186
0.039895
0.0393293
0.0388002
0.0383035
0.0378182
0.0373729
0.036903
1.6327
0.267629
0.100165
0.0650443
0.0541365
0.0495396
0.0471354
0.0456117
0.044479
0.0435413
0.0427111
0.0419486
0.0412324
0.0405553
0.0399032
0.0392985
0.0386647
1.55629
0.268843
0.106003
0.0703743
0.0589931
0.0540523
0.0513383
0.0495251
0.0481183
0.0469187
0.0458398
0.0448412
0.043901
0.0430114
0.0421605
0.0413563
0.0405427
1.47984
0.268709
0.111645
0.0761848
0.0644858
0.0592001
0.0561331
0.0539729
0.0522308
0.0507118
0.0493311
0.0480482
0.0468414
0.045701
0.0446132
0.0435817
0.0425848
1.40444
0.268078
0.117665
0.0827812
0.0708254
0.0651515
0.0616571
0.0590662
0.0569075
0.0549942
0.0532439
0.0516165
0.0500895
0.0486508
0.0472872
0.046006
0.0447682
1.33079
0.267698
0.124568
0.0905011
0.0782841
0.0721221
0.0680824
0.0649424
0.0622586
0.0598544
0.0576494
0.0556027
0.0536896
0.051895
0.0502066
0.048619
0.0470945
1.2593
0.268197
0.132931
0.0997802
0.0872048
0.0803856
0.0756235
0.0717717
0.0684192
0.065399
0.0626315
0.0600724
0.0576934
0.0554751
0.0533998
0.0514538
0.0496254
1.19028
0.270368
0.143502
0.111217
0.0980394
0.0902914
0.0845513
0.0797661
0.0755553
0.0717579
0.068291
0.0651033
0.0621597
0.0594334
0.0569004
0.0545494
0.0523541
1.12391
0.275655
0.157345
0.125591
0.111379
0.102288
0.0952112
0.0891917
0.0838723
0.0790895
0.0747491
0.0707876
0.0671576
0.0638212
0.0607471
0.0579104
0.055269
1.06032
0.285895
0.17592
0.143959
0.128008
0.116964
0.108049
0.100387
0.0936276
0.0875884
0.0821523
0.0772344
0.0727677
0.0686977
0.0649784
0.0615669
0.0584341
0.999572
0.303604
0.201187
0.167772
0.148992
0.135107
0.12365
0.11379
0.105147
0.0974961
0.0906788
0.084574
0.0790841
0.0741288
0.0696402
0.0655651
0.0618582
0.941689
0.33263
0.236019
0.199093
0.175808
0.157789
0.142798
0.129971
0.118847
0.109116
0.100548
0.0929635
0.0862174
0.0801908
0.0747861
0.0699238
0.0655203
0.88665
0.37892
0.284735
0.240931
0.210564
0.186503
0.166555
0.149691
0.13527
0.122833
0.112032
0.102593
0.0942984
0.0869718
0.0804704
0.0746732
0.0694875
0.83441
0.452233
0.354108
0.297821
0.256351
0.22338
0.196401
0.173977
0.15513
0.139143
0.125472
0.113695
0.103482
0.0945725
0.0867555
0.0798641
0.0737701
0.784884
0.569731
0.455168
0.376846
0.317829
0.271526
0.234421
0.204237
0.17938
0.158688
0.141296
0.126552
0.113952
0.103107
0.0937123
0.0855268
0.0783445
0.73794
0.763178
0.606465
0.489426
0.402218
0.335579
0.283624
0.242434
0.2093
0.1823
0.160043
0.141506
0.12592
0.112704
0.101411
0.0916894
0.0832705
0.693379
1.09465
0.840972
0.654858
0.521186
0.422718
0.348479
0.29137
0.246652
0.211087
0.182405
0.158984
0.139644
0.123511
0.109929
0.0984006
0.0885535
0.0311287
0.057258
0.133583
0.32308
0.710535
1.37666
2.36683
3.63236
5.05888
6.32395
7.55057
11.3767
8.28749
4.29833
1.91139
0.791168
0.310488
0.117574
0.0480926
0.0261611
0.0374767
0.0761647
0.185525
0.446098
0.959685
1.83531
3.10602
4.58717
5.8917
6.74282
8.00741
12.9556
10.0616
5.53079
2.5077
1.04506
0.41639
0.158343
0.0620336
0.0303632
0.0469405
0.104263
0.260202
0.616038
1.2997
2.46134
4.10428
5.78812
6.932
7.20724
8.36464
14.5177
12.1097
7.08339
3.30296
1.38787
0.561077
0.21612
0.0824869
0.036563
0.0612367
0.146017
0.366749
0.85039
1.76916
3.32073
5.43581
7.296
8.19482
7.61563
8.59792
15.8246
14.3703
8.9598
4.35856
1.85348
0.75885
0.298013
0.11273
0.0459159
0.083067
0.20791
0.517787
1.1751
2.41762
4.49079
7.07619
8.99985
9.63175
7.91618
8.70754
16.8501
16.683
11.197
5.72311
2.48659
1.02996
0.413988
0.157712
0.0603034
0.116602
0.299138
0.731309
1.62856
3.31785
5.9924
8.94777
10.8127
10.8221
8.02528
8.72179
17.5799
18.8959
13.6777
7.50006
3.35313
1.40368
0.577975
0.22479
0.0827777
0.168252
0.432798
1.0345
2.26071
4.52928
7.74631
10.8965
12.6441
11.7019
8.02367
8.62504
18.0923
21.0157
16.1722
9.61783
4.53032
1.92159
0.810078
0.324871
0.118315
0.247753
0.628194
1.46721
3.15462
6.04368
9.57331
12.796
14.3711
12.1961
7.92395
8.50032
18.3762
22.3183
18.3629
11.8925
6.06018
2.64136
1.13951
0.474018
0.175001
0.369912
0.91541
2.08313
4.36316
7.71809
11.3165
14.5932
15.7603
12.3923
7.76571
8.41256
18.4879
23.1855
20.0184
13.9831
7.90241
3.65229
1.60863
0.696224
0.265938
0.557628
1.33899
2.97871
5.84885
9.34555
12.9265
16.1917
16.4288
12.2811
7.59161
8.38784
18.4938
23.6665
21.08
15.5543
9.79583
5.00457
2.27619
1.02811
0.412329
0.846874
1.96705
4.20455
7.42757
10.8128
14.426
17.1901
16.3424
11.8805
7.44131
8.45099
18.3824
23.7085
21.6074
16.4609
11.333
6.63172
3.24524
1.525
0.648844
1.29781
2.92107
5.71514
8.88363
12.1197
15.634
17.3313
15.683
11.2767
7.3533
8.64076
18.1403
23.1375
21.6023
16.7996
12.2157
8.22187
4.59582
2.2701
1.03304
2.01375
4.25258
7.26386
10.0891
13.301
16.0635
16.7298
14.6271
10.6259
7.4161
9.00201
17.6872
21.9238
20.9371
16.7358
12.4578
9.29189
6.19921
3.41778
1.66015
3.13187
5.87711
8.58998
11.066
14.026
15.682
15.498
13.4171
10.1151
7.7246
9.44328
16.9034
20.1773
19.5117
16.4103
12.3902
9.66331
7.61338
5.02182
2.69816
4.73518
7.45012
9.51165
11.8156
13.8844
14.7576
14.1495
12.3346
9.82525
8.20421
9.85523
15.7761
18.0714
17.6022
15.4651
12.2558
9.59495
8.35212
6.86206
4.43617
6.54578
8.50841
10.063
11.8558
13.2016
13.5846
12.9428
11.6242
9.93552
8.95417
10.3864
14.3894
15.8418
15.4231
13.9622
11.7811
9.47955
8.36379
8.14978
6.82959
7.79313
8.95905
10.0758
11.1919
11.986
12.269
12.1211
11.4771
10.5754
10.1046
11.1171
13.2368
13.8864
13.3687
12.2467
10.8576
9.32098
8.21628
8.44453
8.95459
8.45403
8.96986
9.46998
10.1951
10.9154
11.5378
11.9334
12.0065
11.8538
11.7777
12.2597
12.894
12.7943
12.0774
11.0401
9.99247
8.97785
8.20347
8.25428
9.3731
8.65417
8.80818
9.21422
9.85656
10.8034
11.8078
12.6806
13.3589
13.7889
13.9963
14.0378
13.8023
13.1443
12.1759
11.0596
9.98306
9.23979
8.75741
8.55671
8.92361
10.7612
12.5975
14.005
15.5245
17.4201
19.2927
20.8457
21.9613
22.6874
23.088
23.0524
22.5892
21.6493
20.2511
18.5178
16.6356
15.0904
13.6564
12.1907
10.2578
7.69471
9.66525
11.0673
8.68466
4.57851
2.20369
1.1421
0.622452
0.353487
0.209615
0.130469
0.0858856
0.0601869
0.0450133
0.0358151
0.0300707
0.0263559
0.0238558
0.0220912
0.020784
4.7349
8.28339
10.7899
5.62254
2.43349
1.12635
0.562658
0.298267
0.168376
0.102023
0.0669667
0.0478727
0.0371488
0.0309146
0.0271364
0.0247275
0.0230955
0.0219155
0.0209995
0.0202465
2.91339
9.76028
8.25508
3.29642
1.30211
0.584425
0.285809
0.152635
0.0896233
0.0584517
0.0424558
0.0339419
0.0292091
0.0264273
0.0246725
0.0234703
0.0225711
0.0218447
0.0212142
0.0206448
2.32983
11.5399
5.35626
1.82044