/*--------------------------------*- C++ -*----------------------------------*\
  =========                 |
  \\      /  F ield         | OpenFOAM: The Open Source CFD Toolbox
   \\    /   O peration     | Website:  https://openfoam.org
    \\  /    A nd           | Version:  6
     \\/     M anipulation  |
\*---------------------------------------------------------------------------*/
FoamFile
{
    version     2.0;
    format      ascii;
    class       volScalarField;
    location    "3.54";
    object      k;
}
// * * * * * * * * * * * * * * * * * * * * * * * * * * * * * * * * * * * * * //

dimensions      [0 2 -2 0 0 0 0];

internalField   nonuniform List<scalar> 
4214
(
0.0224336
0.014805
0.0118995
0.0108636
0.0106026
0.0107646
0.0113571
0.0126212
0.0150851
0.0197963
0.028797
0.0458236
0.076494
0.126068
0.196667
0.265671
0.271305
0.217849
0.176686
0.152919
0.130576
0.108217
0.0904149
0.0775062
0.0675076
0.0583853
0.0490319
0.0394293
0.0306245
0.0234316
0.0181313
0.0144771
0.0121748
0.0108563
0.0101899
0.00992447
0.00993428
0.0103157
0.0116
0.0151138
0.0239987
0.0129851
0.0110746
0.0103018
0.0100622
0.0101277
0.0104886
0.0112905
0.0128566
0.0158177
0.0214019
0.0319632
0.0516653
0.0864364
0.141236
0.216831
0.28271
0.276572
0.22258
0.183975
0.162886
0.141652
0.11959
0.102881
0.0917745
0.0837156
0.0760185
0.0665677
0.0549045
0.0429155
0.0321724
0.0237441
0.0175895
0.0135428
0.0111006
0.00977986
0.00917033
0.00898967
0.00911333
0.00964471
0.0109519
0.0138329
0.0103713
0.00978839
0.00956145
0.00956569
0.00978682
0.0103089
0.0113318
0.0132436
0.0167904
0.023412
0.0358098
0.0585712
0.0978323
0.157851
0.237145
0.296805
0.282796
0.228846
0.192784
0.174457
0.154899
0.133933
0.119047
0.110839
0.10631
0.101844
0.0936783
0.0803601
0.0646481
0.0487989
0.0354132
0.0249692
0.0176929
0.013032
0.0103162
0.0089061
0.00830663
0.00819532
0.00844149
0.00905013
0.0100759
0.00926151
0.00907699
0.0090497
0.00918572
0.00953588
0.0102234
0.011491
0.0138012
0.0180403
0.0258932
0.0404353
0.0666599
0.110711
0.176197
0.257558
0.308879
0.291551
0.238578
0.204649
0.189446
0.172325
0.15321
0.140965
0.136706
0.137086
0.137619
0.132385
0.118457
0.0991688
0.0768343
0.0563983
0.0393415
0.0267221
0.0181702
0.0128343
0.00979024
0.00825606
0.00764651
0.00759372
0.0079236
0.00844229
0.0085433
0.00854328
0.00863941
0.00888685
0.00936679
0.0102332
0.0117784
0.0145556
0.0196174
0.0289291
0.0459388
0.0760132
0.124994
0.195961
0.2746
0.321303
0.302875
0.251208
0.219083
0.207603
0.194275
0.178227
0.169587
0.1704
0.177248
0.184226
0.183276
0.170431
0.148585
0.119158
0.0897288
0.0637317
0.0431879
0.0284123
0.0186557
0.0127136
0.00940043
0.00775814
0.00711185
0.00709455
0.00734621
0.00800244
0.00811768
0.00831284
0.00866578
0.0092807
0.0103443
0.0122093
0.0155385
0.0215739
0.0325991
0.0524101
0.0865636
0.140718
0.213369
0.290177
0.335089
0.31747
0.267532
0.23677
0.229647
0.221869
0.210389
0.20649
0.213968
0.228685
0.244068
0.247892
0.237439
0.214178
0.177967
0.138545
0.10092
0.0694552
0.0456583
0.0291904
0.0186524
0.0123955
0.00897875
0.00731658
0.0066823
0.00661508
0.00757965
0.00777855
0.00806167
0.00851951
0.00927914
0.0105657
0.012803
0.0167876
0.0239658
0.0369306
0.0599639
0.097825
0.154682
0.229016
0.305737
0.350738
0.336029
0.288204
0.257827
0.255548
0.255491
0.250371
0.252536
0.26854
0.29206
0.317169
0.328495
0.321095
0.297851
0.255683
0.204583
0.152648
0.107261
0.0714596
0.0456867
0.0285555
0.0179314
0.0117749
0.00847705
0.00689895
0.00630058
0.00725089
0.00751515
0.00788113
0.00844774
0.00936757
0.010912
0.0135828
0.0183304
0.0268722
0.0418339
0.067291
0.108028
0.167363
0.24291
0.320552
0.368413
0.359312
0.314055
0.282295
0.284386
0.294443
0.297537
0.307416
0.334239
0.370021
0.406188
0.426131
0.424218
0.401498
0.353352
0.289575
0.220321
0.157443
0.106427
0.0686335
0.0428274
0.0263565
0.0164493
0.0108406
0.00788815
0.006493
0.00699888
0.00731957
0.00776928
0.0084548
0.00955593
0.0114011
0.0145874
0.0201265
0.0298152
0.0464729
0.074056
0.116966
0.177955
0.25459
0.333831
0.387642
0.387917
0.346236
0.31018
0.314083
0.336162
0.349726
0.369823
0.406063
0.452446
0.500643
0.534215
0.542721
0.523738
0.470816
0.392793
0.304027
0.21975
0.149946
0.0973724
0.0609279
0.0373077
0.0228158
0.0143564
0.00967279
0.00724682
0.00681098
0.00718802
0.0077289
0.00855006
0.0098642
0.0120138
0.0156597
0.021917
0.032633
0.0506174
0.0796549
0.123773
0.185372
0.262368
0.343995
0.406564
0.421623
0.387321
0.34352
0.342756
0.377735
0.401129
0.428606
0.469399
0.522562
0.58207
0.632944
0.660037
0.653373
0.601411
0.510253
0.39964
0.291397
0.199697
0.129883
0.0812026
0.0495316
0.0300053
0.0184821
0.0119532
0.00841802
0.00668043
0.00712131
0.00777032
0.00872974
0.0102434
0.012691
0.0167664
0.0236087
0.0350548
0.0538027
0.0833834
0.127474
0.188319
0.26455
0.348376
0.421683
0.457399
0.439338
0.390332
0.375678
0.412979
0.441246
0.470396
0.509728
0.56289
0.629276
0.698528
0.752262
0.77008
0.72945
0.631364
0.500019
0.366141
0.250701
0.1624
0.100855
0.0609931
0.0365763
0.0222359
0.0140945
0.00961966
0.00660799
0.00712015
0.0078738
0.00897996
0.0107006
0.0134143
0.0178277
0.0250393
0.0367947
0.0555708
0.0845609
0.127103
0.185468
0.259173
0.343293
0.425898
0.486604
0.499251
0.459326
0.422129
0.443117
0.464754
0.48746
0.518523
0.565596
0.634593
0.720964
0.804732
0.856689
0.83744
0.740424
0.591654
0.433508
0.295198
0.189419
0.116162
0.0692373
0.0409085
0.0245353
0.015369
0.0103662
0.0065824
0.00717338
0.00805048
0.00930308
0.0112202
0.0141399
0.018758
0.0260546
0.0376107
0.0555658
0.0826924
0.121912
0.175494
0.24384
0.324373
0.410082
0.487735
0.538459
0.531379
0.483982
0.477533
0.478706
0.485105
0.503007
0.541292
0.61045
0.710179
0.822549
0.910601
0.916191
0.825574
0.662856
0.483427
0.325174
0.205385
0.123629
0.0722342
0.0418545
0.024715
0.0153562
0.0103649
0.0066119
0.00728469
0.00830034
0.00968575
0.0117829
0.0148194
0.0194866
0.0265442
0.037376
0.0536604
0.0776676
0.11175
0.157983
0.217249
0.288578
0.368227
0.448974
0.519322
0.559222
0.526398
0.50396
0.485433
0.474688
0.479028
0.508543
0.577986
0.68782
0.824182
0.944039
0.9687
0.884045
0.706512
0.509638
0.335736
0.2074
0.121716
0.0694086
0.0393325
0.0228911
0.0141944
0.00970964
0.00670229
0.00744534
0.00862677
0.010107
0.0123817
0.0154145
0.0199998
0.0264921
0.0361712
0.0500772
0.0700317
0.0976115
0.134524
0.181641
0.238838
0.304251
0.374619
0.445438
0.513255
0.507771
0.489476
0.4679
0.45213
0.451407
0.478017
0.551554
0.669816
0.828097
0.971533
1.00171
0.919036
0.720051
0.511795
0.326122
0.196323
0.111439
0.0620183
0.0343852
0.0199015
0.0124721
0.00879428
0.00687134
0.00763805
0.00905996
0.0105399
0.0130673
0.015919
0.0204258
0.0260401
0.0344121
0.0455011
0.0611306
0.081786
0.109059
0.143377
0.185345
0.234487
0.290238
0.35075
0.41744
0.434576
0.430909
0.421083
0.413662
0.419652
0.450583
0.537218
0.662088
0.847031
0.999627
1.01788
0.934939
0.699866
0.494631
0.297564
0.176819
0.0954786
0.0526838
0.0285528
0.0168638
0.0108355
0.00803695
0.00718122
0.00781926
0.00971901
0.0109282
0.0140518
0.0163389
0.0211949
0.0255013
0.0330665
0.0411081
0.0531747
0.0674422
0.0865654
0.109847
0.138839
0.174478
0.219554
0.277631
0.321081
0.353867
0.359828
0.363515
0.368696
0.386658
0.427763
0.542736
0.665621
0.898127
1.02259
1.01556
0.935795
0.637776
0.471273
0.24949
0.157774
0.0755105
0.0448322
0.0227722
0.0148075
0.00957232
0.00770016
0.00648801
0.00666941
0.00701543
0.00746733
0.00781806
0.00784824
0.00749092
0.0068891
0.00630068
0.00594994
0.00596224
0.00644945
0.0074537
0.0090525
0.0118291
0.0204378
0.046697
0.00606372
0.00604729
0.00615735
0.00634774
0.00651114
0.00652901
0.00635709
0.00606245
0.00578154
0.00564883
0.00576548
0.00621633
0.0071029
0.00865332
0.0116914
0.0213757
0.0481435
0.00581907
0.00575887
0.00575688
0.00580578
0.00585676
0.00584962
0.00575814
0.00561337
0.00548828
0.00546589
0.00562287
0.00603556
0.00684298
0.00836706
0.0116597
0.0227067
0.0497626
0.00574823
0.0056479
0.00558701
0.00556045
0.00554612
0.00551523
0.00545412
0.00537815
0.00532805
0.00535746
0.00552608
0.00590957
0.00666132
0.00816343
0.0116554
0.023955
0.0522938
0.00572764
0.00561977
0.00553266
0.00546775
0.00541688
0.00536785
0.00531503
0.00526765
0.00525062
0.00530124
0.00546915
0.00583103
0.00655003
0.00804093
0.0116797
0.025105
0.055532
0.00573597
0.0056282
0.00553249
0.00545093
0.00538171
0.0053211
0.00526848
0.0052312
0.00522689
0.00528439
0.00544815
0.00579606
0.00649714
0.00798026
0.0117203
0.0260417
0.0589794
0.0057746
0.00566594
0.00556602
0.00547662
0.00539809
0.0053304
0.00527561
0.00524079
0.00524049
0.00529963
0.00546036
0.00580127
0.00649415
0.00796643
0.0117436
0.026552
0.0618607
0.00580142
0.00570253
0.00560766
0.0055192
0.00543904
0.00536925
0.00531367
0.00527986
0.00528153
0.00534221
0.00550319
0.00584367
0.00653163
0.00797744
0.0116959
0.0264135
0.0635561
0.00586765
0.00576804
0.00567276
0.00558344
0.00550193
0.00543095
0.00537507
0.0053423
0.00534629
0.00541007
0.00557435
0.00591873
0.00659639
0.0079907
0.0115376
0.0255471
0.0638775
0.00589631
0.00580913
0.00572425
0.00564315
0.00556784
0.00550167
0.00545009
0.0054219
0.00543115
0.00550101
0.00567423
0.00601938
0.00667723
0.00799807
0.0112917
0.0241704
0.0633226
0.00599235
0.0059071
0.00582219
0.00574043
0.00566481
0.00559949
0.00555052
0.00552793
0.00554689
0.00563002
0.00581013
0.00615041
0.00678105
0.00802108
0.0110312
0.0226702
0.0627319
0.00602375
0.00595706
0.00589112
0.0058269
0.00576749
0.0057177
0.0056844
0.00567628
0.00570596
0.00579371
0.00597374
0.00630775
0.00691733
0.00808961
0.0108455
0.021397
0.0628088
0.00613209
0.00606222
0.00599538
0.00593331
0.00587903
0.00583672
0.0058121
0.0058136
0.00585408
0.00595394
0.00614672
0.0064907
0.00709744
0.00822687
0.0107944
0.0205182
0.0638161
0.0061709
0.00612123
0.00607077
0.00602355
0.00598359
0.00595541
0.00594505
0.00596132
0.00601781
0.00613561
0.00634828
0.00671174
0.00732946
0.0084402
0.0108917
0.0200519
0.065635
0.00628474
0.00622687
0.0061768
0.00613567
0.00610546
0.00608937
0.00609289
0.00612504
0.00620009
0.00633992
0.0065783
0.00696942
0.00761046
0.00872463
0.0111285
0.0199888
0.0679454
0.00633611
0.00630353
0.00627237
0.00624777
0.00623309
0.00623248
0.00625243
0.00630314
0.0064
0.0065659
0.00683497
0.00726031
0.00793509
0.00907369
0.0114989
0.0203185
0.0703435
0.00645333
0.00641342
0.0063877
0.00637387
0.00637241
0.00638689
0.0064243
0.0064956
0.00661705
0.00681225
0.00711576
0.00758035
0.00829819
0.00948499
0.0120057
0.0209911
0.0724388
0.00651979
0.0065089
0.00650286
0.00650525
0.00651941
0.00655076
0.00660752
0.00670163
0.00685007
0.00707707
0.00741779
0.00792592
0.00869695
0.00996357
0.0126625
0.0219558
0.0738504
0.00663834
0.0066261
0.00662986
0.00664532
0.00667475
0.00672392
0.00680158
0.00692024
0.00709752
0.00735826
0.00773862
0.00829545
0.00913438
0.0105272
0.0135102
0.0232447
0.0743
0.00672395
0.0067399
0.00676033
0.006791
0.00683709
0.00690541
0.00700535
0.00714997
0.00735752
0.00765378
0.00807723
0.00869145
0.00962238
0.0112056
0.0146094
0.024929
0.0736224
0.00684156
0.00686372
0.00689661
0.00694232
0.00700582
0.00709426
0.00721749
0.00738912
0.00762818
0.00796211
0.00843385
0.00911916
0.0101775
0.0120295
0.0159891
0.0269903
0.0716349
0.00695322
0.00698991
0.00703697
0.00709871
0.00718053
0.00729001
0.00743747
0.00763718
0.00790947
0.00828492
0.00881426
0.00959213
0.0108224
0.0130138
0.0175797
0.0291104
0.0690433
0.00706848
0.00711777
0.00717886
0.00725645
0.00735621
0.00748601
0.00765673
0.00788358
0.00818889
0.00860787
0.00920139
0.0100852
0.0115041
0.0140285
0.0190952
0.0308749
0.066958
0.00718366
0.0072455
0.00732066
0.00741381
0.00753094
0.00768032
0.0078734
0.00812666
0.00846508
0.00892951
0.00959183
0.0105882
0.0121966
0.0150249
0.0204894
0.0323633
0.0654295
0.00729834
0.00737278
0.00746171
0.0075701
0.00770412
0.00787237
0.00808702
0.008366
0.00873731
0.00924769
0.00997973
0.0110875
0.0128744
0.0159674
0.0217445
0.0336619
0.0644619
0.00741192
0.00749897
0.00760178
0.00772525
0.00787579
0.00806236
0.00829785
0.00860174
0.0090051
0.00956025
0.0103594
0.0115715
0.0135186
0.0168379
0.0228652
0.034816
0.0640375
0.00752478
0.00762464
0.00774135
0.00787995
0.00804695
0.00825157
0.00850741
0.00883536
0.00926923
0.00986621
0.0107265
0.0120309
0.0141157
0.0176259
0.023869
0.0358945
0.064118
0.00763767
0.00775067
0.0078819
0.00803625
0.00822016
0.00844293
0.00871877
0.00906976
0.00953189
0.0101662
0.0110788
0.0124598
0.0146567
0.0183231
0.0247557
0.0369094
0.0646489
0.0077562
0.00788291
0.00802952
0.0082019
0.00840657
0.00864985
0.00894504
0.0093155
0.00979972
0.0104632
0.0114175
0.012856
0.0151355
0.0189206
0.0255176
0.0378587
0.0655634
0.0079108
0.00806678
0.00824068
0.00843502
0.00865602
0.00891519
0.00922723
0.00961436
0.0101139
0.01079
0.0117566
0.0132209
0.0155488
0.0194085
0.026135
0.0387098
0.0667841
0.00805771
0.00822674
0.00841607
0.00863089
0.00887682
0.00916229
0.00950025
0.00991202
0.0104339
0.0111291
0.0121093
0.0135761
0.0158993
0.0197801
0.0265851
0.0394171
0.0682228
0.00818371
0.00837459
0.00858937
0.00883217
0.00910824
0.009425
0.00979408
0.0102348
0.0107806
0.0114908
0.0124724
0.0139214
0.0162052
0.0200383
0.0268464
0.0399184
0.0697749
0.0083076
0.00852376
0.00876766
0.00904315
0.00935502
0.00970981
0.0101175
0.0105947
0.0111707
0.0118987
0.0128765
0.0142893
0.016495
0.0202053
0.0269125
0.040148
0.071318
0.00843134
0.00867589
0.00895282
0.00926623
0.00962062
0.0100217
0.0104779
0.0110027
0.0116206
0.0123765
0.013356
0.0147255
0.0168197
0.0203365
0.026812
0.0400575
0.0727162
0.00855658
0.00883218
0.00914638
0.00950351
0.00990811
0.0103654
0.0108822
0.0114695
0.0121468
0.0129504
0.0139508
0.0152903
0.0172669
0.0205385
0.0266399
0.0396544
0.0738349
0.00868407
0.00899398
0.00934993
0.00975713
0.0102205
0.0107451
0.0113372
0.0120056
0.0127661
0.0136474
0.0147062
0.0160578
0.0179541
0.0209857
0.0265978
0.0390595
0.0745633
0.00881543
0.00916262
0.00956516
0.0100293
0.0105609
0.0111655
0.0118493
0.0126208
0.0134938
0.0144937
0.0156678
0.0171102
0.0190262
0.0219244
0.0270291
0.0385858
0.0748369
0.008952
0.00933994
0.00979419
0.0103227
0.0109327
0.0116311
0.0124249
0.0133238
0.0143436
0.0155122
0.0168787
0.0185317
0.0206466
0.0236578
0.0284361
0.0388392
0.074653
0.00909539
0.00952743
0.0100389
0.0106398
0.0113393
0.0121463
0.0130698
0.014123
0.0153278
0.0167237
0.0183799
0.0204153
0.0230336
0.0265236
0.0314621
0.0408248
0.0740721
0.00924772
0.00972787
0.0103025
0.0109846
0.0117858
0.0127175
0.0137926
0.0150307
0.0164665
0.0181641
0.0202349
0.0228743
0.0264575
0.0309413
0.0368959
0.0460675
0.0731993
0.0173395
0.0182377
0.019117
0.0199284
0.0206487
0.0212614
0.021753
0.0221126
0.0223348
0.0224201
0.0223752
0.0222118
0.0219454
0.021593
0.021171
0.0206922
0.0201647
0.0195905
0.0189702
0.0183055
0.0173697
0.0165062
0.0158962
0.0153153
0.0147594
0.0142251
0.0137115
0.0132192
0.0127499
0.0123056
0.0118875
0.0114962
0.011132
0.0107936
0.010481
0.010194
0.0099371
0.00971698
0.00954168
0.00941252
0.00932064
0.0187646
0.0198332
0.0208421
0.0217569
0.0225629
0.0232443
0.0237845
0.0241703
0.0243951
0.0244599
0.0243731
0.0241494
0.0238075
0.0233674
0.0228478
0.0222636
0.0216245
0.020936
0.0202032
0.0194344
0.018405
0.0174574
0.0167778
0.0161382
0.0155332
0.0149586
0.0144111
0.0138896
0.0133944
0.0129267
0.0124879
0.0120777
0.0116962
0.0113414
0.011012
0.010707
0.0104304
0.0101908
0.0100004
0.00986634
0.00978222
0.0203052
0.021558
0.0227021
0.0237329
0.024642
0.0254094
0.0260132
0.0264365
0.0266705
0.026717
0.0265864
0.0262965
0.0258698
0.0253298
0.0246984
0.0239935
0.0232282
0.0224128
0.0215581
0.0206779
0.0195527
0.0185167
0.017761
0.0170565
0.0163976
0.0157793
0.0151965
0.014646
0.0141262
0.0136375
0.0131801
0.0127543
0.0123589
0.0119918
0.0116496
0.01133
0.0110346
0.0107727
0.0105611
0.0104153
0.0103359
0.0219501
0.0233861
0.0246726
0.0258391
0.0268749
0.0277508
0.0284374
0.0289127
0.029166
0.0291989
0.0290242
0.0286632
0.0281427
0.0274907
0.0267334
0.0258932
0.0249885
0.0240354
0.0230511
0.0220535
0.0208304
0.0197025
0.0188637
0.0180879
0.0173694
0.0167028
0.016082
0.0155016
0.0149583
0.0144506
0.013978
0.0135401
0.0131354
0.0127612
0.0124129
0.0120849
0.0117752
0.0114906
0.0112507
0.0110818
0.0109981
0.02368
0.0252875
0.0267313
0.0280602
0.0292503
0.0302602
0.031052
0.0315976
0.0318832
0.0319102
0.0316934
0.0312581
0.030636
0.029861
0.0289651
0.027977
0.0269219
0.0258227
0.0247024
0.0235822
0.0222595
0.0210366
0.0201079
0.0192541
0.0184696
0.017749
0.0170857
0.0164731
0.015906
0.0153809
0.014896
0.0144499
0.0140409
0.0136661
0.0133195
0.0129931
0.0126788
0.0123765
0.0121034
0.0118953
0.0117885
0.025472
0.0272401
0.028865
0.0303854
0.0317576
0.0329282
0.0338496
0.0344866
0.034821
0.034853
0.034599
0.0340886
0.0333596
0.032453
0.0314086
0.0302633
0.0290499
0.0277987
0.0265376
0.0252902
0.0238663
0.0225458
0.0215209
0.0205824
0.0197253
0.0189441
0.0182323
0.0175829
0.0169893
0.0164465
0.0159508
0.0154996
0.0150908
0.0147211
0.0143848
0.0140718
0.0137682
0.0134625
0.0131598
0.012896
0.0127335
0.0273116
0.0292404
0.0310731
0.0328102
0.0343898
0.0357466
0.0368225
0.0375739
0.0379762
0.0380273
0.0377447
0.0371623
0.036325
0.0352824
0.0340842
0.0327763
0.0314005
0.0299937
0.0285885
0.0272101
0.0256838
0.024264
0.023137
0.0221077
0.0211713
0.0203225
0.0195552
0.0188623
0.018237
0.017673
0.0171651
0.0167093
0.0163026
0.0159418
0.0156218
0.0153326
0.0150571
0.0147722
0.0144603
0.0141361
0.0138743
0.0292024
0.0313079
0.0333693
0.035341
0.0371475
0.0387123
0.039966
0.0408545
0.0413455
0.0414328
0.0411342
0.0404878
0.0395465
0.0383698
0.0370181
0.0355477
0.0340092
0.0324462
0.0308952
0.0293832
0.0277542
0.0262342
0.0250002
0.0238747
0.022853
0.0219301
0.0211001
0.0203562
0.0196917
0.0190997
0.0185742
0.0181103
0.017704
0.0173516
0.0170488
0.0167881
0.0165539
0.0163172
0.0160364
0.0156781
0.0152792
0.0311748
0.0334866
0.035786
0.0380001
0.0400448
0.0418324
0.0432818
0.0443274
0.0449276
0.0450703
0.0447727
0.0440766
0.0430428
0.0417414
0.0402439
0.0386172
0.0369207
0.0352045
0.0335089
0.0318627
0.0301316
0.0285121
0.0271678
0.0259417
0.0248299
0.0238276
0.0229288
0.0221271
0.0214156
0.0207876
0.020237
0.0197581
0.0193464
0.0189979
0.0187088
0.0184744
0.0182843
0.0181146
0.0179139
0.0175927
0.0170641
0.0333433
0.0358426
0.0383815
0.040833
0.0431159
0.0451299
0.0467836
0.0479997
0.0487262
0.048944
0.0486683
0.0479434
0.0468372
0.0454296
0.0438029
0.0420341
0.040191
0.0383298
0.036495
0.0347176
0.0328874
0.0311715
0.0297157
0.028387
0.027182
0.0260965
0.0251248
0.0242603
0.0234964
0.0228264
0.0222441
0.0217439
0.0213211
0.0209716
0.0206922
0.0204801
0.0203303
0.0202307
0.0201437
0.0199595
0.0194121
0.0358554
0.038533
0.0412416
0.043917
0.0464218
0.0486499
0.0505031
0.0518917
0.0527545
0.0530649
0.0528342
0.0521077
0.0509584
0.0494739
0.0477454
0.0458589
0.0438898
0.0419
0.0399383
0.0380388
0.0361171
0.034311
0.0327468
0.0313167
0.0300185
0.0288489
0.0278026
0.0268735
0.026055
0.0253407
0.0247245
0.0242012
0.0237661
0.0234157
0.0231471
0.0229587
0.0228489
0.022815
0.0228442
0.0228684
0.0225453
0.0388483
0.041685
0.04456
0.0473831
0.0500533
0.0524694
0.0544972
0.0560427
0.0570401
0.0574542
0.0572916
0.0565959
0.0554419
0.0539217
0.0521323
0.0501662
0.0481048
0.0460153
0.0439503
0.0419477
0.0399496
0.0380663
0.0364036
0.0348793
0.0334932
0.0322431
0.0311246
0.0301326
0.0292611
0.0285043
0.0278567
0.0273136
0.0268709
0.0265255
0.0262756
0.0261203
0.0260592
0.0260938
0.0262259
0.0264466
0.0265982
0.042562
0.0455046
0.0484886
0.0514221
0.0542015
0.0567152
0.0588523
0.0605184
0.0616327
0.0621493
0.0620733
0.0614436
0.0603322
0.0588309
0.0570382
0.0550491
0.0529482
0.0508063
0.0486793
0.0466091
0.0445631
0.0426279
0.0408882
0.0392874
0.0378278
0.0365087
0.0353276
0.0342808
0.0333637
0.0325716
0.0319
0.0313452
0.0309039
0.0305743
0.0303555
0.0302474
0.0302512
0.0303698
0.0306088
0.0309747
0.031488
0.0473446
0.0503087
0.0533088
0.0562542
0.0590454
0.0615751
0.0637379
0.0654401
0.0666104
0.067209
0.0672301
0.0667003
0.0656866
0.0642744
0.0625564
0.0606252
0.0585647
0.056446
0.0543263
0.0522505
0.050209
0.048269
0.0464947
0.0448541
0.0433519
0.0419905
0.0407697
0.0396879
0.0387427
0.0379313
0.0372508
0.036699
0.036274
0.0359755
0.0358037
0.0357598
0.0358467
0.0360697
0.0364349
0.0369668
0.0376219
0.0537157
0.056564
0.0594317
0.0622338
0.0648807
0.0672779
0.0693331
0.070965
0.0721115
0.0727371
0.0728369
0.0724356
0.0715834
0.070345
0.068805
0.0670466
0.0651455
0.0631677
0.0611688
0.0591931
0.0572503
0.0553914
0.0536633
0.0520544
0.0505732
0.0492251
0.0480131
0.0469388
0.0460024
0.045204
0.044543
0.0440192
0.043633
0.0433855
0.0432785
0.0433142
0.0434972
0.0438412
0.0443369
0.0449848
0.0457901
0.0624885
0.0649837
0.0674716
0.0698796
0.0721368
0.0741712
0.0759139
0.0773051
0.0782995
0.0788715
0.0790171
0.0787538
0.078118
0.0771603
0.0759391
0.0745158
0.0729484
0.0712932
0.0695982
0.0679024
0.0662255
0.0646053
0.063075
0.0616372
0.0603034
0.0590821
0.0579798
0.0570013
0.0561503
0.0554297
0.054842
0.0543896
0.0540749
0.0539009
0.0538717
0.0539912
0.0542603
0.0546811
0.0552551
0.0559824
0.0568688
0.0750221
0.0767205
0.0783883
0.0799767
0.0814458
0.0827563
0.0838727
0.0847647
0.0854103
0.0857976
0.0859254
0.0858033
0.0854505
0.0848936
0.0841641
0.0832956
0.0823218
0.0812746
0.0801831
0.0790729
0.0779605
0.0768711
0.0758263
0.0748329
0.0739015
0.0730414
0.0722603
0.0715647
0.0709605
0.0704525
0.0700453
0.0697431
0.0695494
0.0694676
0.0695005
0.0696504
0.0699189
0.0703064
0.0708122
0.0714334
0.0721753
0.0425933
0.0175268
0.0116451
0.00969812
0.00863745
0.0079138
0.00737902
0.00697831
0.00667812
0.00645472
0.0062921
0.00618051
0.00611591
0.0060881
0.00609001
0.00611
0.00611523
0.0433667
0.0188962
0.011794
0.0094982
0.00831086
0.00755957
0.00703557
0.00665318
0.00636707
0.00615042
0.00598671
0.00586615
0.005784
0.00573271
0.00571071
0.00572181
0.00578212
0.0445997
0.0209009
0.0121364
0.00939246
0.00804502
0.00724498
0.00672126
0.0063574
0.00609387
0.00589788
0.00575088
0.00564295
0.00556964
0.00552874
0.00552488
0.00557121
0.00569522
0.046848
0.0233523
0.0126461
0.00937557
0.00784464
0.00698059
0.00644427
0.00609004
0.00584515
0.00567045
0.00554403
0.00545391
0.00539429
0.00536245
0.00536002
0.00538931
0.00544953
0.050177
0.0261667
0.0132585
0.00942026
0.0077077
0.00677747
0.00622072
0.00586669
0.00563187
0.00547214
0.00536322
0.00529165
0.00525053
0.00523541
0.00524785
0.00529095
0.00536823
0.0546673
0.0292874
0.013878
0.00948804
0.00762297
0.00663842
0.00606367
0.00570892
0.00548241
0.00533571
0.00524222
0.00518746
0.00516427
0.00516832
0.00519903
0.00525984
0.00535516
0.0599526
0.0323858
0.0143877
0.00953337
0.00756614
0.00654901
0.00596534
0.00561464
0.0054015
0.0052755
0.00520823
0.00518316
0.00519102
0.00522722
0.00529106
0.00538354
0.005507
0.0650008
0.0347842
0.0146711
0.00952386
0.00751845
0.00649512
0.0059124
0.00556637
0.00536143
0.00524748
0.00519605
0.00518959
0.0052165
0.00526926
0.00534437
0.00544071
0.00555602
0.0685431
0.0357944
0.0146532
0.00945302
0.00747941
0.0064792
0.00591173
0.0055763
0.00537868
0.0052692
0.00521956
0.00521274
0.00523783
0.00528807
0.00536085
0.00545441
0.00556535
0.0698444
0.0350624
0.0143172
0.00932863
0.00745044
0.00649828
0.00596061
0.00564857
0.00547371
0.00538899
0.00536646
0.00538795
0.00544083
0.00551597
0.00560738
0.00571162
0.00582792
0.0693245
0.0328749
0.0137567
0.00919083
0.00744952
0.00655552
0.00604632
0.00574851
0.00558024
0.00549805
0.00547624
0.00549758
0.00554946
0.00562226
0.00570939
0.00580638
0.00591058
0.0682955
0.0299988
0.013133
0.0090908
0.00749964
0.00666443
0.00618166
0.00589577
0.00573149
0.00564785
0.00562007
0.0056314
0.00566947
0.0057247
0.00579075
0.00586335
0.00594028
0.0680026
0.0272309
0.0126024
0.00906654
0.00761133
0.00682455
0.00636021
0.00608127
0.0059201
0.0058395
0.00581693
0.00583722
0.00588866
0.00596095
0.00604536
0.00613557
0.00622798
0.068917
0.0250771
0.0122689
0.0091405
0.00779016
0.00703462
0.00657616
0.00629351
0.00612443
0.00603306
0.00599718
0.00600221
0.00603782
0.00609533
0.00616711
0.0062476
0.00633487
0.0707706
0.0236914
0.012163
0.00931189
0.00803002
0.00728786
0.00682449
0.00653186
0.00635198
0.00624954
0.0062017
0.00619316
0.00621333
0.00625356
0.00630483
0.0063573
0.00640135
0.072998
0.0230318
0.0122796
0.00957082
0.00831976
0.00757397
0.00709616
0.00678787
0.00659404
0.00647963
0.00642147
0.00640419
0.00641796
0.00645676
0.00651571
0.00658856
0.00666658
0.0750098
0.0229688
0.0126029
0.00990652
0.00864957
0.00788567
0.00738637
0.00705804
0.00684696
0.00671763
0.00664558
0.00661399
0.00661154
0.00663158
0.0066712
0.00672972
0.00680684
0.0763591
0.0233939
0.0131405
0.0103146
0.00901098
0.00821568
0.0076899
0.00733952
0.00711015
0.00696542
0.00687978
0.00683512
0.00681872
0.0068221
0.00684009
0.00686887
0.00689991
0.0767087
0.0242119
0.0138763
0.0108073
0.00940455
0.00856217
0.00800545
0.00763168
0.00738341
0.00722282
0.00712345
0.00706646
0.00703868
0.00703147
0.00704063
0.00706858
0.00712346
0.0758446
0.0255254
0.0148595
0.0114116
0.00984172
0.00892888
0.00833485
0.00793613
0.00766845
0.00749147
0.00737764
0.0073075
0.00726727
0.0072475
0.00724165
0.00725092
0.00729036
0.0737351
0.0273475
0.0161454
0.0121671
0.0103466
0.00932748
0.00868356
0.00825592
0.00796755
0.0077735
0.0076446
0.00756071
0.00750756
0.00747541
0.00745648
0.00744896
0.00744391
0.0709032
0.0294561
0.0176939
0.0131079
0.010956
0.00978141
0.00906463
0.00859848
0.00828554
0.00807264
0.00792749
0.0078288
0.0077618
0.00771634
0.00768504
0.00766561
0.00764624
0.0685725
0.0313339
0.0192288
0.0141177
0.0116308
0.0102775
0.00947015
0.00895646
0.00861566
0.00838341
0.00822243
0.00810939
0.00802869
0.00796978
0.00792537
0.00789078
0.00785925
0.0668083
0.0328929
0.0206727
0.0151477
0.012352
0.0108144
0.00990578
0.00933682
0.00896413
0.00871103
0.00853395
0.00840661
0.00831211
0.00823939
0.00818075
0.0081311
0.0080868
0.0656136
0.0341115
0.0219598
0.0161453
0.0130911
0.0113824
0.0103722
0.00974481
0.00933751
0.00906192
0.00886784
0.00872557
0.00861664
0.00852948
0.00845591
0.00839177
0.00833121
0.0649718
0.035267
0.0231392
0.0170945
0.0138279
0.0119708
0.0108676
0.0101841
0.0097421
0.00944317
0.00923096
0.00907241
0.00894746
0.00884379
0.00875301
0.00867128
0.00859121
0.0648367
0.0362657
0.0241824
0.0179727
0.0145445
0.0125699
0.0113901
0.0106581
0.0101844
0.00986265
0.00963152
0.00945516
0.00931219
0.00918949
0.00907901
0.00897529
0.00887571
0.0651632
0.0372517
0.0251241
0.018778
0.0152324
0.0131747
0.01194
0.0111716
0.0106718
0.0103289
0.0100781
0.00988188
0.00971803
0.0095733
0.00943982
0.00931257
0.00918924
0.0658925
0.0381802
0.0259528
0.0195046
0.0158889
0.0137866
0.0125226
0.0117326
0.0112141
0.0108522
0.0105808
0.0103619
0.010173
0.0100014
0.00983937
0.00968365
0.00952903
0.0669548
0.0390196
0.0266517
0.0201473
0.0165169
0.0144134
0.013149
0.012354
0.0118244
0.0114454
0.0111517
0.010906
0.010687
0.0104854
0.010298
0.010118
0.00994144
0.0682731
0.039753
0.0272189
0.0207163
0.0171335
0.0150751
0.0138392
0.0130547
0.0125201
0.0121241
0.0118044
0.0115276
0.0112849
0.0110584
0.0108364
0.0106157
0.0103955
0.0697527
0.0403175
0.0276472
0.0212332
0.0177707
0.0158048
0.0146236
0.0138612
0.013324
0.0129075
0.012558
0.0122572
0.0119729
0.0116969
0.011424
0.0111526
0.0108808
0.0712862
0.0406754
0.0279559
0.0217455
0.018482
0.0166516
0.0155439
0.0148075
0.0142633
0.0138182
0.0134407
0.0130878
0.0127469
0.0124108
0.012076
0.0117416
0.0114082
0.0727579
0.040805
0.0282044
0.0223387
0.0193491
0.0176834
0.0166531
0.0159347
0.0153701
0.0148904
0.0144537
0.0140348
0.0136223
0.0132117
0.0128016
0.012392
0.0119848
0.0740567
0.040745
0.0285231
0.0231516
0.020487
0.018987
0.0180151
0.0172897
0.0166794
0.016138
0.0156212
0.015115
0.0146118
0.0141091
0.013607
0.0131075
0.0126122
0.0750902
0.0406389
0.0291427
0.024385
0.0220428
0.0206645
0.0197006
0.0189227
0.0182295
0.017588
0.0169634
0.016345
0.0157283
0.0151124
0.014499
0.0138908
0.0132917
0.0757945
0.0408086
0.0304187
0.0262989
0.024187
0.0228265
0.0217834
0.0208854
0.0200572
0.0192714
0.0185033
0.0177425
0.016985
0.0162312
0.0154836
0.0147461
0.0140239
0.0761359
0.0418486
0.0328459
0.0291997
0.0271023
0.0255864
0.0243396
0.0232331
0.0222018
0.021221
0.0202671
0.0193273
0.0183967
0.0174751
0.0165661
0.015675
0.0148079
0.0761043
0.0447281
0.0370426
0.0334213
0.0309787
0.0290657
0.0274551
0.0260306
0.0247164
0.0234765
0.022285
0.021122
0.0199784
0.0188532
0.0177504
0.0166767
0.01564
0.0757168
0.0509003
0.0437232
0.0393216
0.0360329
0.0334145
0.0312403
0.0293605
0.0276674
0.0260837
0.0245899
0.0231487
0.021744
0.0203724
0.0190379
0.0177485
0.0165143
0.00782968
0.0110291
0.0164367
0.0249881
0.0381349
0.0580313
0.0878119
0.133485
0.231639
0.291799
0.315448
0.360449
0.582871
1.01542
0.999101
0.517223
0.170298
0.0471747
0.0157516
0.00820397
0.00839393
0.0119378
0.0176628
0.0262014
0.0385034
0.0562077
0.082181
0.12239
0.206157
0.246707
0.277508
0.334657
0.595858
1.08784
1.01269
0.470873
0.138926
0.0382253
0.014636
0.00834618
0.00920208
0.0132971
0.0197786
0.0293
0.0428057
0.0620764
0.0906705
0.137682
0.20228
0.231453
0.255646
0.322143
0.629839
1.17896
1.01168
0.411612
0.109057
0.0324
0.0147203
0.00876736
0.0103773
0.0152706
0.0229168
0.034225
0.0504528
0.0738182
0.108673
0.168309
0.212731
0.233672
0.247906
0.322957
0.688614
1.28675
0.986815
0.342795
0.084384
0.0301899
0.0158744
0.00942804
0.0121337
0.0181551
0.0273661
0.0410662
0.0610069
0.0899697
0.132937
0.20138
0.236561
0.246063
0.250415
0.33766
0.777401
1.40535
0.930329
0.270168
0.0675432
0.0313363
0.0179041
0.0103307
0.0148589
0.0225258
0.0338238
0.0505008
0.0749266
0.110642
0.164658
0.233002
0.265417
0.265136
0.260756
0.366426
0.906766
1.52262
0.837139
0.201902
0.0597036
0.0351422
0.0206925
0.0115357
0.0192544
0.0294357
0.0436659
0.0641873
0.0940742
0.137745
0.204569
0.267285
0.295081
0.288647
0.277198
0.41364
1.10241
1.61116
0.706598
0.146989
0.0601773
0.0408447
0.0242596
0.0132655
0.0265825
0.0407022
0.0592234
0.0850157
0.122078
0.175962
0.249436
0.308981
0.335854
0.318938
0.299771
0.508489
1.45111
1.64117
0.54932
0.112725
0.0668147
0.0480852
0.0289
0.015462
0.0390703
0.0593142
0.0841199
0.117495
0.164606
0.231248
0.303125
0.3652