/*--------------------------------*- C++ -*----------------------------------*\
  =========                 |
  \\      /  F ield         | OpenFOAM: The Open Source CFD Toolbox
   \\    /   O peration     | Website:  https://openfoam.org
    \\  /    A nd           | Version:  6
     \\/     M anipulation  |
\*---------------------------------------------------------------------------*/
FoamFile
{
    version     2.0;
    format      ascii;
    class       volScalarField;
    location    "3.54";
    object      p;
}
// * * * * * * * * * * * * * * * * * * * * * * * * * * * * * * * * * * * * * //

dimensions      [0 2 -2 0 0 0 0];

internalField   nonuniform List<scalar> 
4214
(
-1.31055
-1.26995
-0.893654
-0.577105
-0.468449
-0.455107
-0.453613
-0.451949
-0.462692
-0.472753
-0.476483
-0.473252
-0.462552
-0.434271
-0.367299
-0.238896
-0.0573964
0.16076
0.327768
0.43726
0.614634
0.729422
0.38288
-0.0379864
-0.403984
-0.402774
0.126125
0.773834
1.26247
1.47996
1.40313
1.43486
1.23766
0.988854
0.876718
0.77715
0.72199
0.727744
0.580678
0.260712
0.689826
-0.333857
-0.799516
-0.951864
-0.738155
-0.659781
-0.703759
-0.748603
-0.783878
-0.845823
-0.918249
-0.992333
-1.06212
-1.11618
-1.12681
-1.07506
-0.915556
-0.610336
-0.148927
0.302517
0.572875
0.732872
0.740079
0.406382
-0.037885
-0.216741
-0.165048
0.22223
0.594351
0.828989
0.978883
1.41145
2.24188
2.59466
2.36981
2.14467
1.9421
1.77079
1.70585
1.61774
1.6023
2.19312
-1.10564
-1.32136
-1.52145
-1.38258
-1.31361
-1.37818
-1.46347
-1.55372
-1.6809
-1.82895
-1.98582
-2.14301
-2.28687
-2.39166
-2.40902
-2.29653
-1.98471
-1.47531
-0.922321
-0.550252
-0.323099
-0.150256
0.185492
0.192794
0.9144
1.65329
2.36869
2.85443
3.05376
3.12994
3.41521
4.02915
4.3568
4.08033
3.70463
3.36834
3.0597
2.85521
2.71519
2.49426
2.6875
-1.65023
-1.70136
-1.96911
-1.90472
-1.88648
-2.01545
-2.1619
-2.32912
-2.54612
-2.79846
-3.07544
-3.37008
-3.67364
-3.96641
-4.21269
-4.32226
-4.22959
-3.87465
-3.33814
-2.82281
-2.33213
-1.70044
-0.544254
0.433268
2.17574
3.84434
4.98226
5.54825
5.63085
5.4683
5.5298
5.88933
6.10007
5.74247
5.21973
4.74539
4.2892
3.96669
3.79886
3.40318
3.36411
-2.18688
-2.23435
-2.52512
-2.50903
-2.56217
-2.76279
-2.98283
-3.24616
-3.57904
-3.9667
-4.4044
-4.89587
-5.44856
-6.0561
-6.68366
-7.21565
-7.53675
-7.45879
-7.03473
-6.31221
-5.26917
-3.88504
-1.87085
0.50529
3.28456
5.93565
7.67251
8.40682
8.48572
8.12969
7.91167
7.96482
7.96138
7.4437
6.74591
6.10527
5.4953
5.04932
4.76132
4.2373
4.06816
-2.67305
-2.76586
-3.09732
-3.14816
-3.28765
-3.57363
-3.89084
-4.27392
-4.75405
-5.31716
-5.97103
-6.74296
-7.66596
-8.75279
-9.95831
-11.0902
-11.9129
-12.1268
-11.8973
-10.9247
-9.02339
-6.57887
-3.48637
0.137306
3.97448
7.62667
10.0397
11.038
11.2064
10.7775
10.3496
10.1234
9.83441
9.11719
8.2208
7.39877
6.65575
6.07416
5.61326
5.05045
4.77099
-3.18446
-3.34791
-3.71222
-3.85866
-4.08129
-4.46387
-4.9054
-5.4347
-6.09547
-6.88191
-7.82645
-8.98724
-10.4256
-12.1651
-14.1264
-16.0185
-17.5254
-18.0491
-17.667
-16.1613
-13.3395
-9.66483
-5.33052
-0.512778
4.3729
8.8319
11.8789
13.2751
13.5777
13.2151
12.6907
12.232
11.6127
10.655
9.58456
8.59643
7.71801
6.99351
6.37751
5.78305
5.4083
-3.72646
-3.94653
-4.35527
-4.62562
-4.95007
-5.43417
-6.02473
-6.73435
-7.6052
-8.66738
-9.98582
-11.6523
-13.762
-16.3203
-19.1708
-21.924
-24.062
-24.782
-24.113
-21.8444
-17.9622
-12.9504
-7.28855
-1.32342
4.50732
9.56483
13.1721
14.9988
15.4811
15.3125
14.7826
14.1037
13.1733
12.0103
10.7746
9.63751
8.6261
7.76178
7.01387
6.35557
5.87491
-4.33749
-4.57659
-5.03589
-5.42976
-5.87534
-6.476
-7.22935
-8.14402
-9.26694
-10.6643
-12.4433
-14.737
-17.6381
-21.1065
-24.8254
-28.2372
-30.7059
-31.5524
-30.5909
-27.5163
-22.4935
-16.1452
-9.19657
-2.18232
4.45078
9.96347
13.9366
16.1649
16.9392
16.9859
16.4724
15.6311
14.4562
13.1084
11.7341
10.4754
9.35334
8.37658
7.52448
6.79625
6.22045
-4.98427
-5.23272
-5.72408
-6.23831
-6.82131
-7.5595
-8.48848
-9.62595
-11.0343
-12.8235
-15.1604
-18.1989
-21.9054
-26.2129
-30.6005
-34.365
-36.8812
-37.5691
-36.1295
-32.3113
-26.3192
-18.8572
-10.8426
-2.98365
4.20189
10.0848
14.2947
16.8395
17.9616
18.1635
17.7184
16.7547
15.4043
13.9236
12.4542
11.1129
9.91319
8.85531
7.91839
7.11264
6.43144
-5.55092
-5.86531
-6.38912
-7.0139
-7.74221
-8.632
-9.75274
-11.1282
-12.8604
-15.1097
-18.106
-21.83
-26.25
-31.1194
-35.7848
-39.5124
-41.786
-42.0968
-40.1645
-35.7223
-28.9931
-20.7495
-12.0323
-3.6447
3.87324
9.97501
14.3858
17.1296
18.5273
18.8868
18.4754
17.4257
15.9784
14.4189
12.8696
11.4392
10.1445
8.98533
7.95676
7.09759
6.37732
-6.0089
-6.42298
-7.00043
-7.72459
-8.59029
-9.6327
-10.9536
-12.5746
-14.6939
-17.4813
-21.079
-25.1694
-30.1332
-35.1612
-39.6439
-42.9826
-44.8206
-44.6986
-42.3184
-37.4156
-30.2477
-21.6344
-12.6676
-4.10889
3.50161
9.67265
14.2447
17.1811
18.6967
19.1478
18.6992
17.496
15.9349
14.3301
12.7597
11.3103
9.99363
8.8083
7.75594
6.88515
6.13582
-6.36682
-6.88434
-7.53203
-8.34821
-9.33014
-10.5082
-12.0081
-13.8349
-16.3368
-19.5696
-23.3768
-27.8566
-32.9355
-37.6605
-41.6307
-44.3675
-45.7034
-45.1763
-42.4668
-37.3524
-30.0763
-21.4879
-12.6365
-4.25585
3.14955
9.24962
13.8227
16.8589
18.4763
18.9544
18.4085
17.13
15.5269
13.9067
12.3328
10.8764
9.54751
8.34521
7.27472
6.39231
5.6219
-6.59585
-7.21712
-7.93643
-8.83292
-9.89528
-11.1801
-12.8146
-14.7645
-17.4641
-20.6876
-24.8369
-29.4274
-34.1811
-38.1928
-41.4692
-43.5989
-44.4657
-43.6127
-40.7407
-35.6628
-28.6889
-20.6116
-12.2864
-4.22542
2.84573
8.75525
13.2471
16.2823
17.8762
18.2998
17.5818
16.2457
14.6299
13.0349
11.4935
10.0675
8.75562
7.56783
6.50441
5.63629
4.88557
-6.65335
-7.32903
-8.08897
-9.05558
-10.143
-11.5101
-13.2022
-15.2602
-18.2328
-21.1132
-25.5986
-29.4963
-33.6594
-36.8032
-39.4434
-40.9852
-41.4527
-40.3799
-37.5296
-32.7984
-26.4863
-19.2974
-11.622
-4.19474
2.48724
8.14576
12.4415
15.4248
16.7925
17.0893
16.1201
14.7678
13.1671
11.6481
10.1517
8.80477
7.51985
6.39019
5.35529
4.54394
3.83295
-6.43887
-7.15484
-7.84676
-8.87937
-9.89684
-11.5066
-13.1972
-15.3241
-18.6551
-21.1977
-25.4384
-28.1408
-31.582
-33.9262
-36.0769
-37.0869
-37.2829
-36.0775
-33.3785
-29.277
-23.8664
-17.8312
-10.8778
-4.19931
1.97934
7.4171
11.2534
14.2095
14.9474
15.0829
13.814
12.533
10.9512
9.60202
8.08378
6.89688
5.58825
4.60712
3.58671
2.89577
2.1746
-6.13782
-6.7762
-7.33873
-8.29806
-9.17166
-10.9656
-13.0238
-15.2652
-18.6674
-20.1127
-23.8546
-25.4657
-28.2179
-29.9599
-31.8144
-32.4236
-32.5294
-31.4214
-28.8667
-25.6666
-21.2303
-16.5565
-10.3977
-4.35692
0.990133
6.42949
9.27913
12.362
12.243
12.2438
10.8366
9.6136
8.12187
6.92943
5.41409
4.36923
3.07056
2.25249
1.26634
0.686806
-0.0661111
-0.543271
1.39539
2.95212
3.99398
4.71858
5.28887
5.64589
5.81307
5.7909
5.67434
5.49192
5.22876
4.79281
4.30669
3.70762
3.28548
2.04327
-1.19864
0.580617
2.07446
3.17023
3.90933
4.50304
4.9361
5.20508
5.3181
5.31163
5.2454
5.1112
4.93452
4.65435
4.25518
3.95319
3.22009
-1.42034
0.0351701
1.30503
2.35742
3.13096
3.74408
4.22695
4.57443
4.79607
4.91504
4.95307
4.92807
4.85638
4.76231
4.59901
4.35918
3.99462
-1.84102
-0.544323
0.6246
1.61046
2.37873
3.0037
3.52111
3.92516
4.2219
4.42952
4.56683
4.64678
4.67816
4.66686
4.63815
4.55816
4.43477
-1.89148
-0.867335
0.0862328
0.953271
1.69683
2.29485
2.8118
3.25596
3.61034
3.88369
4.09525
4.25575
4.38024
4.45972
4.54023
4.53902
4.58401
-2.10835
-1.22734
-0.379616
0.389386
1.08774
1.65649
2.14535
2.58121
2.96177
3.28249
3.548
3.76551
3.95577
4.10346
4.27104
4.3401
4.5362
-2.05474
-1.38231
-0.716956
-0.0646585
0.553459
1.09628
1.54968
1.95607
2.32469
2.65179
2.94194
3.19542
3.42761
3.61861
3.83666
3.95766
4.24389
-2.0413
-1.51516
-0.980758
-0.431183
0.103393
0.602812
1.02912
1.40005
1.74003
2.05213
2.33728
2.59557
2.83969
3.05351
3.29308
3.44173
3.76314
-1.86397
-1.47364
-1.10103
-0.688804
-0.254024
0.173693
0.576722
0.919545
1.22514
1.50701
1.77023
2.01422
2.2474
2.45951
2.69427
2.85092
3.17607
-1.72027
-1.38823
-1.09476
-0.803281
-0.488351
-0.155571
0.179177
0.501654
0.781093
1.03118
1.2648
1.48139
1.68747
1.88069
2.08606
2.23899
2.54242
-1.42304
-1.19334
-0.981766
-0.767617
-0.552119
-0.332634
-0.0951131
0.153452
0.402876
0.628835
0.829393
1.01099
1.18765
1.35241
1.51573
1.6542
1.89114
-1.18572
-0.97105
-0.800783
-0.638306
-0.476208
-0.318896
-0.169211
-0.0189269
0.141992
0.310491
0.484233
0.63681
0.780699
0.903273
1.02127
1.13563
1.29671
-0.810524
-0.667633
-0.546493
-0.427047
-0.308126
-0.195411
-0.0879879
0.0139853
0.11119
0.203374
0.300311
0.395254
0.501449
0.590489
0.67564
0.754245
0.834476
-0.526132
-0.375796
-0.27312
-0.178453
-0.0854042
0.00170274
0.0818504
0.155154
0.221484
0.27835
0.32983
0.369463
0.415272
0.447488
0.491963
0.529566
0.540519
-0.0487106
0.0321347
0.095103
0.154281
0.214605
0.271788
0.323209
0.367958
0.405416
0.433544
0.456428
0.466949
0.482293
0.482711
0.49151
0.486161
0.462835
0.311337
0.422008
0.487781
0.541909
0.590607
0.632866
0.668111
0.696246
0.716758
0.728577
0.735716
0.724464
0.727156
0.685842
0.689451
0.650021
0.58963
0.879504
0.931319
0.977034
1.01796
1.05611
1.08984
1.11791
1.14005
1.15581
1.16495
1.16871
1.14713
1.14556
1.09386
1.10134
1.03068
0.958825
1.3446
1.44212
1.50511
1.55892
1.60427
1.64262
1.67432
1.70001
1.71968
1.73365
1.74247
1.74013
1.74356
1.69274
1.70336
1.62685
1.61706
2.08025
2.12706
2.17927
2.23382
2.2835
2.32873
2.36846
2.40308
2.43255
2.45753
2.47847
2.49159
2.5067
2.48535
2.50645
2.4465
2.47179
2.68894
2.83283
2.92282
3.00649
3.07904
3.14533
3.2043
3.25712
3.30371
3.34481
3.38033
3.40856
3.43932
3.44874
3.48433
3.45078
3.50493
3.55161
3.63999
3.73637
3.84161
3.94037
4.03486
4.12274
4.20545
4.28349
4.35801
4.42774
4.4908
4.56046
4.60417
4.68894
4.68413
4.80909
4.18167
4.40721
4.56515
4.7126
4.85089
4.9867
5.11901
5.24716
5.37001
5.48991
5.60405
5.71493
5.83337
5.91005
6.06155
6.08135
6.28582
5.12901
5.27922
5.45361
5.64883
5.83503
6.01709
6.19324
6.36521
6.53316
6.69812
6.85773
7.01757
7.17873
7.30791
7.51593
7.56584
7.84916
5.80775
6.14941
6.39975
6.63941
6.86826
7.0948
7.31543
7.53141
7.74335
7.95145
8.15438
8.35828
8.5592
8.73923
8.98633
9.07033
9.43097
6.84341
7.0812
7.35753
7.649
7.92613
8.19701
8.46049
8.71837
8.97139
9.21916
9.46133
9.70374
9.93955
10.16
10.4334
10.5554
10.984
7.55684
8.01133
8.34769
8.67639
8.99268
9.30273
9.60453
9.89925
10.1875
10.4694
10.7462
11.0225
11.2899
11.5494
11.8547
12.0258
12.4861
8.61557
8.9524
9.32162
9.69406
10.0504
10.3962
10.7309
11.0563
11.3737
11.6835
11.9886
12.2939
12.5918
12.8858
13.2043
13.4026
13.8749
9.35585
9.8832
10.3017
10.704
11.0901
11.4644
11.8257
12.1764
12.5193
12.8555
13.1855
13.5097
13.8187
14.1196
14.4378
14.6489
15.1138
10.3975
10.81
11.2501
11.6843
12.0976
12.4944
12.8764
13.2478
13.6078
13.9548
14.2908
14.6165
14.9248
15.2272
15.5382
15.7522
16.1941
11.1285
11.709
12.1838
12.6342
13.0629
13.4737
13.8678
14.2457
14.6073
14.9537
15.2866
15.6059
15.9072
16.2031
16.4972
16.7094
17.1206
12.1232
12.5887
13.0735
13.5385
13.9759
14.3907
14.7846
15.1595
15.5147
15.852
16.1741
16.4802
16.7684
17.0514
17.3228
17.5268
17.9019
12.838
13.4388
13.9346
14.3975
14.8317
15.2406
15.6259
15.9882
16.3308
16.6532
16.9584
17.2466
17.5168
17.7804
18.027
18.2197
18.5544
13.7705
14.2544
14.7463
15.2049
15.6287
16.0231
16.3912
16.7348
17.057
17.3601
17.6444
17.9113
18.1609
18.4011
18.6216
18.8004
19.093
14.46
15.0449
15.5253
15.9639
16.3677
16.7404
17.0851
17.4052
17.7026
17.9805
18.2407
18.4825
18.7081
18.924
19.1191
19.2802
19.5286
15.3294
15.7938
16.2542
16.6705
17.048
17.3929
17.7098
18.0023
18.273
18.5237
18.7581
18.9746
19.1735
19.3607
19.5286
19.6703
19.8752
15.9855
16.515
16.9416
17.3218
17.6657
17.9784
18.2644
18.5271
18.7691
18.9924
19.1978
19.3885
19.5634
19.7245
19.8651
19.9839
20.1458
16.784
17.1859
17.5751
17.9172
18.2236
18.501
18.7542
18.9861
19.1986
19.3934
19.5714
19.7319
19.8781
20.0139
20.1309
20.2294
20.3528
17.4121
17.8422
18.1809
18.4764
18.7423
18.983
19.2023
19.4018
19.5832
19.7478
19.8963
20.0292
20.1484
20.253
20.339
20.4115
20.5057
18.172
18.4734
18.7644
19.0162
19.2419
19.4453
19.6292
19.7943
19.942
20.0735
20.1895
20.2907
20.3779
20.4505
20.5069
20.5556
20.6183
18.7737
19.0739
19.2992
19.4996
19.6822
19.8462
19.9926
20.122
20.2363
20.3361
20.4216
20.4928
20.5494
20.5917
20.6237
20.6591
20.7041
21.0155
21.489
22.0077
22.431
22.8932
23.2845
23.7106
24.0704
24.4458
24.7622
25.0798
25.3461
25.6006
25.8105
25.9974
26.1454
26.2614
26.3424
26.3859
26.3963
26.3671
26.3046
26.2039
26.0682
25.899
25.691
25.4579
25.1802
24.8887
24.5451
24.2014
23.7969
23.4078
22.9486
22.523
22.0204
21.5694
21.0265
20.5375
19.9332
19.4123
21.0947
21.5346
21.9511
22.3587
22.7554
23.1388
23.5054
23.8547
24.1848
24.493
24.7791
25.0391
25.2737
25.4786
25.6547
25.7985
25.9102
25.9879
26.0312
26.04
26.0128
25.9506
25.853
25.721
25.5556
25.3568
25.1276
24.8671
24.5798
24.2642
23.9255
23.5624
23.1794
22.7765
22.3565
21.9205
21.4724
21.013
20.5379
20.0607
19.5582
21.1757
21.5586
21.9269
22.2944
22.6524
23.0018
23.3365
23.6592
23.9643
24.2532
24.5209
24.7678
24.9896
25.1862
25.3543
25.4932
25.6007
25.6757
25.7178
25.726
25.6996
25.6383
25.5432
25.4146
25.2535
25.0614
24.8391
24.5895
24.313
24.0136
23.6909
23.3502
22.9902
22.6167
22.2274
21.8286
21.4167
21.0004
20.5745
20.1522
19.7146
21.2579
21.596
21.9203
22.2499
22.5717
22.8876
23.1947
23.4918
23.776
24.0456
24.298
24.5312
24.7425
24.9301
25.0915
25.2249
25.3286
25.4008
25.4414
25.4493
25.4231
25.363
25.27
25.1446
24.9878
24.8013
24.5865
24.3457
24.0808
23.7944
23.4885
23.166
22.8288
22.4799
22.1211
21.755
21.382
21.0036
20.6256
20.247
19.8574
21.3333
21.6332
21.92
22.2142
22.5055
22.7926
23.074
23.3486
23.6134
23.8662
24.1043
24.3253
24.5267
24.7061
24.861
24.9895
25.0894
25.159
25.1982
25.2053
25.1794
25.1203
25.0292
24.9067
24.7539
24.5726
24.3646
24.1321
23.8775
23.6033
23.3121
23.0065
22.6894
22.3635
22.031
21.693
21.3501
21.0092
20.6701
20.3348
19.9886
21.4021
21.6658
21.9219
22.1851
22.4487
22.7131
22.9724
23.2265
23.4737
23.7113
23.9364
24.1463
24.3385
24.5104
24.6594
24.7832
24.8796
24.9469
24.9847
24.9905
24.9649
24.9067
24.8173
24.6974
24.5483
24.3718
24.1698
23.9449
23.6996
23.4365
23.1585
22.8684
22.5695
22.2639
21.9524
21.6378
21.3246
21.0153
20.7087
20.4126
20.1074
21.4653
21.6992
21.9273
22.1641
22.4029
22.6441
22.8857
23.1226
23.3538
23.5775
23.7909
23.9908
24.1747
24.3397
24.4833
24.6028
24.6961
24.7612
24.7977
24.8021
24.7767
24.7193
24.6314
24.5138
24.3679
24.1956
23.999
23.7809
23.5438
23.2907
23.0245
22.7488
22.4657
22.1761
21.8837
21.5927
21.3048
21.023
20.7459
20.4819
20.2133
21.5266
21.7331
21.936
22.1491
22.3663
22.5876
22.8104
23.0333
23.2508
23.4619
23.6647
23.8559
24.0325
24.1914
24.3301
24.4458
24.5362
24.5993
24.6346
24.6376
24.6123
24.5556
24.469
24.3533
24.2102
24.0415
23.8497
23.6374
23.4074
23.163
22.9076
22.644
22.3732
22.0988
21.8252
21.5547
21.2893
21.0321
20.7814
20.5458
20.3072
21.5843
21.7664
21.9466
22.1387
22.3364
22.54
22.7467
22.9545
23.1618
23.3625
23.5558
23.7392
23.9094
24.063
24.1973
24.3096
24.3975
24.4589
24.4931
24.4949
24.4695
24.4133
24.3277
24.2136
24.0728
23.9073
23.7195
23.5122
23.2884
23.0517
22.8053
22.5506
22.2908
22.0311
21.7738
21.5216
21.2765
21.0412
20.8142
20.6039
20.3924
21.6373
21.7976
21.958
22.1317
22.3124
22.5005
22.6932
22.8884
23.0839
23.277
23.4624
23.6385
23.8029
23.9519
24.0827
24.1923
24.2782
24.3382
24.3714
24.3722
24.3467
24.2908
24.2058
24.0928
23.9536
23.7905
23.6059
23.4029
23.1849
22.9551
22.7154
22.4684
22.2199
21.9728
21.7298
21.4933
21.2655
21.0488
20.8428
20.655
20.4677
21.6846
21.8257
21.9683
22.1262
22.2924
22.4669
22.6474
22.8318
23.0176
23.202
23.3813
23.5514
23.7108
23.8562
23.9843
24.092
24.1765
24.2355
24.2679
24.2681
24.2423
24.1864
24.1017
23.9893
23.851
23.6892
23.5067
23.3071
23.0939
22.8693
22.6346
22.3962
22.1573
21.9211
21.6904
21.4675
21.2544
21.0534
20.8657
20.6982
20.5323
21.7249
21.8491
21.976
22.1189
22.2717
22.4338
22.6035
22.7785
22.9564
23.1339
23.3088
23.4755
23.6319
23.7749
23.9012
24.0076
24.0912
24.1496
24.1814
24.1813
24.1552
24.0992
24.0144
23.9021
23.7642
23.6031
23.4217
23.2238
23.0122
22.7891
22.559
22.3268
22.0954
21.8683
21.6484
21.4379
21.239
21.0537
20.8822
20.7326
20.5856
21.7568
21.8662
21.9804
22.11
22.2513
22.4028
22.5631
22.7303
22.9018
23.0741
23.2447
23.4106
23.5669
23.7084
23.833
23.9382
24.0211
24.0792
24.1106
24.1104
24.0839
24.0276
23.9426
23.8302
23.6926
23.5322
23.3518
23.154
22.94
22.7176
22.4912
22.2637
22.0382
21.8186
21.6078
21.4079
21.2209
21.0488
20.892
20.7566
20.6261
21.7793
21.8754
21.9819
22.1029
22.2364
22.3806
22.534
22.6942
22.8602
23.0284
23.1963
23.3592
23.5136
23.6539
23.7775
23.882
23.9648
24.0228
24.0541
24.0541
24.0272
23.9704
23.8848
23.7718
23.6339
23.4735
23.2935
23.0959
22.8838
22.6631
22.4392
22.2155
21.9953
21.7831
21.5792
21.3867
21.2077
21.0437
20.8961
20.7689
20.6532
21.7971
21.8782
21.9763
22.0877
22.2131
22.3506
22.4993
22.6546
22.8165
22.982
23.1472
23.3088
23.4613
23.6031
23.7292
23.8362
23.9205
23.9795
24.0113
24.0121
23.9846
23.9269
23.8398
23.7248
23.5838
23.4198
23.2362
23.0362
22.8258
22.6064
22.3838
22.1624
21.9456
21.7376
21.5379
21.3518
21.181
21.0263
20.8896
20.7711
20.6723
21.824
21.8821
21.9602
22.0551
22.168
22.2969
22.4398
22.5954
22.7557
22.9211
23.0852
23.2497
23.4059
23.5534
23.6864
23.7996
23.8881
23.95
23.9836
23.9859
23.9577
23.8982
23.8081
23.689
23.5418
23.3698
23.1778
22.9703
22.7549
22.5328
22.3088
22.0866
21.8695
21.6586
21.4633
21.2846
21.1244
20.9845
20.867
20.7713
20.6988
21.8687
21.8924
21.954
22.0399
22.1464
22.2702
22.4079
22.558
22.7184
22.8838
23.0525
23.2175
23.3781
23.5279
23.6626
23.7779
23.8706
23.9364
23.9722
23.9759
23.9472
23.886
23.7925
23.6685
23.5175
23.3428
23.148
22.9384
22.7172
22.4914
22.2639
22.0394
21.8225
21.6174
21.4269
21.2522
21.0972
20.9648
20.8578
20.7796
20.742
-1.88773
-1.84858
-2.08023
-2.54032
-2.90358
-3.32417
-3.73706
-4.21937
-4.71257
-5.10509
-5.41128
-5.66123
-5.85852
-5.97905
-6.01193
-5.85566
-5.66415
-2.05981
-2.36734
-2.55467
-2.98379
-3.28253
-3.66691
-4.04249
-4.44023
-4.75394
-4.99804
-5.20104
-5.36474
-5.47071
-5.52806
-5.5291
-5.2983
-5.06498
-2.4802
-2.93295
-3.07283
-3.42299
-3.6613
-3.98876
-4.2829
-4.51062
-4.68157
-4.82871
-4.953
-5.0323
-5.06647
-5.07682
-5.03892
-4.80728
-4.6988
-2.95061
-3.33164
-3.46398
-3.74349
-3.94494
-4.16742
-4.32155
-4.43477
-4.53612
-4.62123
-4.6785
-4.70039
-4.68581
-4.65799
-4.57878
-4.37744
-4.32905
-3.39901
-3.66542
-3.78009
-3.94963
-4.08893
-4.17534
-4.2448
-4.30735
-4.35444
-4.38101
-4.38802
-4.36187
-4.30036
-4.2484
-4.15589
-3.9025
-3.77959
-3.73061
-3.86327
-3.96412
-4.01497
-4.06538
-4.09685
-4.12243
-4.13467
-4.13445
-4.11094
-4.06943
-3.99936
-3.90292
-3.8232
-3.70981
-3.46629
-3.435
-3.93026
-3.93208
-3.97587
-3.9759
-3.98284
-3.96582
-3.94584
-3.90971
-3.86061
-3.79405
-3.71409
-3.61083
-3.48915
-3.38725
-3.25279
-3.04247
-3.0145
-3.96701
-3.90459
-3.91143
-3.845
-3.81336
-3.75192
-3.69229
-3.61622
-3.52905
-3.42938
-3.32088
-3.19475
-3.05736
-2.94923
-2.81312
-2.55976
-2.46225
-3.88835
-3.74872
-3.72907
-3.61815
-3.55512
-3.45917
-3.36453
-3.25654
-3.13975
-3.0152
-2.8857
-2.74424
-2.59699
-2.47931
-2.33614
-2.10135
-2.10746
-3.68206
-3.4836
-3.43854
-3.30497
-3.20988
-3.0848
-2.96143
-2.83021
-2.69257
-2.55184
-2.40877
-2.25743
-2.10229
-1.97311
-1.821
-1.62071
-1.59984
-3.36218
-3.12131
-3.05277
-2.8913
-2.76899
-2.6254
-2.48203
-2.33741
-2.1871
-2.03822
-1.88887
-1.73458
-1.57965
-1.45529
-1.30787
-1.06533
-0.959704
-2.91578
-2.64861
-2.55657
-2.37775
-2.23556
-2.08439
-1.92763
-1.77753
-1.62077
-1.46906
-1.31819
-1.16603
-1.01671
-0.89439
-0.747776
-0.535543
-0.550267
-2.32603
-2.046
-1.94189
-1.7697
-1.61169
-1.46253
-1.29871
-1.14899
-0.992487
-0.843287
-0.695721
-0.547512
-0.400452
-0.272706
-0.128496
0.0356737
0.0493636
-1.60874
-1.33941
-1.21918
-1.06043
-0.892139
-0.752554
-0.592618
-0.449263
-0.300414
-0.160741
-0.0234082
0.114314
0.248223
0.359045
0.487733
0.680329
0.788323
-0.768139
-0.527882
-0.38713
-0.250969
-0.0834649
0.0437073
0.194235
0.324574
0.459078
0.583883
0.706184
0.825924
0.935704
1.02751
1.14515
1.29035
1.26586
0.214223
0.414306
0.553083
0.655076
0.816888
0.925892
1.05792
1.16739
1.28037
1.38493
1.48734
1.58662
1.67909
1.76703
1.8715
1.94769
1.92932
1.30798
1.45893
1.6106
1.6709
1.80867
1.88863
1.99111
2.07346
2.1591
2.23718
2.31216
2.38376
2.44892
2.50932
2.58025
2.6515
2.69244
2.57453
2.61668
2.75582
2.77397
2.8784
2.93007
3.00143
3.05423
3.10858
3.15632
3.19907
3.23706
3.26667
3.29005
3.31002
3.30699
3.24961
3.92386
3.89618
3.99099
3.98074
4.04768
4.06402
4.09967
4.11831
4.13471
4.14653
4.153
4.15543
4.15366
4.1499
4.14276
4.12685
4.08131
5.32683
5.26856
5.31654
5.28737
5.28906
5.27139
5.26028
5.24252
5.22155
5.1972
5.16889
5.1373
5.10143
5.06315
5.02398
4.99764
4.98611
6.87449
6.74421
6.75196
6.66784
6.63487
6.56749
6.50944
6.44659
6.38161
6.31505
6.24558
6.17321
6.09431
6.00984
5.91569
5.81776
5.66543
8.49834
8.28934
8.27079
8.11453
8.04042
7.9225
7.81514
7.70536
7.59164
7.47746
7.36146
7.24489
7.1277
7.01895
6.90408
6.7781
6.60249
10.123
9.84189
9.79265
9.58743
9.45945
9.30144
9.14627
8.99232
8.83388
8.67379
8.51047
8.34283
8.17033
7.99839
7.81917
7.67825
7.58454
11.707
11.3565
11.2728
11.0359
10.8612
10.6673
10.4712
10.2775
10.0797
9.87959
9.67712
9.47136
9.25939
9.03861
8.79364
8.54327
8.22364
13.208
12.8079
12.688
12.4305
12.2209
11.9981
11.7681
11.5392
11.3056
11.0678
10.8266
10.582
10.3337
10.087
9.83742
9.5866
9.23236
14.6154
14.1947
14.0339
13.7553
13.5159
13.2694
13.0125
12.7551
12.4928
12.2244
11.9504
11.6699
11.3804
11.0848
10.7802
10.502
10.2736
15.8881
15.4665
15.2823
14.9946
14.7281
14.4613
14.1853
13.9074
13.6238
13.3323
13.0334
12.727
12.412
12.0863
11.7346
11.3644
10.9284
17.0016
16.5964
16.4039
16.1213
15.8505
15.5736
15.2838
14.9886
14.6893
14.3817
14.064
13.7358
13.3972
13.0508
12.6979
12.3439
11.8628
17.9542
17.5755
17.3845
17.1145
16.8475
16.5758
16.2886
15.9908
15.6826
15.3645
15.036
14.6945
14.3376
13.965
13.5758
13.1869
12.8634
18.76
18.4125
18.2276
17.9772
17.7203
17.4591
17.1817
16.8912
16.5882
16.2704
15.9389
15.5932
15.2311
14.8515
14.4424
13.997
13.5048
19.4344
19.1214
18.9461
18.7178
18.4765
18.2301
17.9677
17.6913
17.4001
17.0919
16.7672
16.425
16.0637
15.6833
15.2844
14.8769
14.329
19.993
19.7156
19.5519
19.346
19.1253
18.8976
18.6546
18.396
18.1209
17.83
17.5199
17.1902
16.838
16.4603
16.0549
15.6317
15.259
20.4483
20.2077
20.0596
19.8768
19.6774
19.4705
19.2487
19.0106
18.758
18.4881
18.1986
17.8882
17.5541
17.1941
16.7985
16.3512
15.8601
20.8162
20.6125
20.4804
20.3195
20.1431
19.9588
19.7598
19.5465
19.3185
19.0728
18.8079
18.5214
18.2105
17.873
17.5058
17.1172
16.5798
21.11
20.9407
20.826
20.6891
20.5368
20.3747
20.1994
20.0111
19.808
19.5887
19.3509
19.0924
18.8099
18.4989
18.1536
17.7768
17.4261
21.3406
21.2054
21.1098
20.9945
20.8631
20.7226
20.5721
20.4081
20.2307
20.0383
19.8289
19.6005
19.3501
19.0746
18.7647
18.3976
17.982
21.5186
21.4123
21.3319
21.2367
21.129
21.0132
20.8855
20.7458
20.5937
20.4282
20.2479
20.0506
19.8338
19.5949
19.3293
19.0449
18.6107
21.6517
21.5679
21.5094
21.4398
21.3549
21.2605
21.1562
21.0409
20.9146
20.7766
20.626
20.4607
20.2788
20.0762
19.8493
19.6
19.3696
21.7531
21.6958
21.6533
21.6063
21.5465
21.4767
21.3974
21.3082
21.209
21.0995
20.9793
20.8468
20.7004
20.5371
20.3563
20.1253
19.8857
21.8338
21.7881
21.7542
21.7255
21.6895
21.6435
21.5879
21.523
21.4494
21.3675
21.2776
21.1791
21.0696
20.9481
20.8176
20.6636
20.4248
-6.49234
-7.77778
-9.52065
-12.8707
-17.0323
-21.5467
-24.7725
-27.1098
-27.0015
-23.2919
-16.3008
-5.5406
4.38149
9.65207
9.08534
6.478
3.99542
1.79122
0.0437394
-1.23536
-6.41476
-7.42392
-8.83409
-11.1725
-14.928
-17.991
-20.228
-22.2532
-22.8844
-21.4194
-16.0719
-7.77096
0.913773
5.56383
5.16268
3.1658
1.23947
-0.480046
-1.80708
-2.74706
-6.3106
-7.02231
-8.19833
-9.41618
-12.3807
-14.1714
-16.0467
-18.0633
-19.8184
-20.4686
-17.0599
-11.144
-3.8138
0.416091
0.492847
-0.736065
-1.98001
-3.1025
-3.92253
-4.45812
-6.17839
-6.62044
-7.47946
-8.09218
-9.94078
-10.7669
-12.5825
-14.8654
-17.8762
-20.5438
-19.6691
-15.9672
-10.2421
-6.19381
-5.24151
-5.38945
-5.75102
-6.14274
-6.35131
-6.41551
-6.05646
-6.22808
-6.54776
-6.68033
-7.46439
-8.04077
-10.0809
-12.8949
-17.1207
-21.6882
-23.7954
-22.5154
-18.5293
-14.5235
-12.2134
-10.9226
-10.1184
-9.61332
-9.10969
-8.60685
-6.00141
-5.88664
-5.5522
-5.21128
-5.26906
-6.21604
-8.72512
-12.2256
-17.5667
-24.0051
-29.0836
-30.4956
-28.5113
-24.7605
-20.636
-17.5287
-15.1554
-13.517
-12.1849
-11.047
-6.06197
-5.7497
-4.80194
-4.15117
-3.92027
-5.52119
-8.60917
-12.8272
-19.1158
-27.1464
-34.8061
-39.4087
-39.6577
-36.0963
-30.4003
-25.1707
-20.8935
-17.8307
-15.5491
-13.7258
-6.27684
-5.86045
-4.46952
-3.78305
-3.72891
-6.04314
-9.69358
-14.5283
-21.4971
-30.6342
-40.175
-47.388
-50.077
-47.4616
-40.8155
-33.1711
-27.2066
-22.5607
-19.1603
-16.6146
-6.81657
-6.22985
-4.83362
-4.20997
-4.75249
-7.71765
-11.7959
-17.02
-24.2981
-33.7921
-44.1523
-52.8632
-57.4413
-56.4442
-50.1684
-41.0823
-33.6465
-27.6467
-22.9645
-19.6483
-7.68766
-6.89374
-6.05388
-5.64252
-6.94306
-10.3561
-14.6245
-19.9299
-27.0531
-36.0562
-46.1176
-54.9698
-60.3783
-60.9576
-56.4502
-48.1103
-39.1948
-32.5738
-26.8451
-22.7353
-8.9744
-8.3311
-8.19455
-8.2177
-10.1314
-13.6748
-17.8333
-22.8803
-29.3918
-37.3335
-46.1527
-54.0515
-59.2854
-60.7949
-58.4143
-52.4684
-43.8856
-36.4158
-30.535
-25.7903
-10.6636
-10.5396
-11.1219
-11.8869
-14.0197
-17.3195
-21.0808
-25.5853
-31.1585
-37.7094
-44.8018
-51.2364
-55.7346
-57.5091
-56.547
-53.1827
-47.2071
-39.577
-33.7259
-28.7009
-13.0622
-13.5828
-14.7511
-16.0159
-18.0924
-20.8977
-24.0607
-27.8239
-32.3222
-37.4284
-42.8095
-47.7075
-51.287
-52.9857
-52.6169
-50.8549
-47.3778
-41.9838
-36.0544
-31.344
-16.798
-17.2425
-18.7115
-20.1112
-21.9015
-24.086
-26.5683
-29.5349
-33.0072
-36.8424
-40.7602
-44.3124
-47.0056
-48.4805
-48.3583
-47.3182
-45.5138
-42.5176
-38.1336
-33.6031
-21.7372
-21.5187
-22.4616
-23.7053
-25.0919
-26.6553
-28.5259
-30.7833
-33.3803
-36.1607
-38.9405
-41.4479
-43.3929
-44.5683
-44.6311
-44.0007
-42.8987
-41.5267
-39.5381
-36.1094
-25.6017
-25.2391
-25.456
-26.4386
-27.4328
-28.5446
-29.9476
-31.6355
-33.5332
-35.512
-37.4602
-39.2083
-40.5769
-41.4568
-41.6478
-41.2693
-40.4314
-39.6639
-39.2746
-38.2685
-27.7558
-27.4122
-27.4922
-28.2416
-28.9744
-29.8405
-30.9217
-32.18
-33.5446
-34.9623
-36.3311
-37.5491
-38.5142
-39.1677
-39.3911
-39.1749
-38.631
-37.9457
-37.8972
-38.3307
-28.7756
-28.6279
-28.8889
-29.4164
-29.9982
-30.7152
-31.5713
-32.5161
-33.4952
-34.5255
-35.51
-36.3862
-37.0942
-37.5943
-37.8452
-37.7444
-37.4422
-36.8875
-36.6248
-36.9611
-29.3064
-29.2782
-29.6357
-30.0789
-30.5771
-31.1543
-31.798
-32.4937
-33.2613
-34.0464
-34.8098
-35.5178
-36.1293
-36.6132
-36.9502
-37.0363
-36.9398
-36.6711
-36.2371
-35.9121
-29.7709
-29.9904
-30.2722
-30.5625
-30.8967
-31.2899
-31.741
-32.245
-32.7813
-33.3373
-33.9058
-34.474
-35.0148
-35.489
-35.8714
-36.1528
-36.3398
-36.436
-36.4359
-36.4737
-36.6258
-34.7974
-34.8236
-34.1128
-33.0104
-31.5857
-29.9211
-27.8575
-25.4818
-22.952
-20.3311
-17.6942
-15.1283
-12.7022
-10.4545
-8.40158
-6.54954
-4.89301
-3.43921
-2.15392
-36.9538
-34.8039
-34.8212
-33.8281
-32.0476
-29.3857
-27.5409
-25.4227
-23.0715
-20.6941
-18.3308
-16.0104
-13.784
-11.6937
-9.76366
-8.00401
-6.41849
-4.99934
-3.74932
-2.63334
-37.5554
-35.2328
-34.5136
-33.0509
-30.5269
-27.4715
-25.3402
-23.1685
-20.9202
-18.7031
-16.5424
-14.462
-12.4947
-10.6644
-8.98344
-7.45489
-6.07954
-4.8481
-3.76411
-2.79103
-38.1492
-35.9831
-34.2538
-32.3658
-28.8138
-25.9311
-23.5139
-21.2065
-18.9962
-16.8807
-14.8655
-12.9675
-11.2012
-9.57462
-8.09012
-6.74596
-5.54085
-4.46149
-3.51594
-2.66413
-38.6881
-36.9828
-34.1015
-31.5434
-27.1247
-24.3204
-21.7684
-19.3726
-17.1749
-15.1365
-13.2407
-11.4888
-9.88171
-8.41714
-7.0904
-5.89631
-4.82912
-3.87242
-3.04125
-2.2832
-39.1505
-38.1156
-34.2951
-30.6771
-25.7772
-22.718
-20.0371
-17.5991
-15.4036
-13.4204
-11.6204
-9.98685
-8.50902
-7.17712
-5.9815
-4.91396
-3.96197
-3.11353
-2.38499
-1.70159
-39.5107
-39.0324
-34.4253
-29.6052
-24.5427
-21.1275
-18.2729
-15.8085
-13.6199
-11.685
-9.9661
-8.43271
-7.06395
-5.84435
-4.76112
-3.80178
-2.95016
-2.20769
-1.57197
-0.960118
-39.8135
-39.5331
-34.1456
-28.0414
-23.175
-19.4809
-16.4382
-13.9503
-11.7782
-9.89377
-8.2482
-6.80352
-5.53041
-4.40899
-3.4231
-2.55544
-1.79488
-1.15072
-0.579542
-0.0471337
-40.1856
-39.524
-33.495
-26.1253
-21.4654
-17.6614
-14.4877
-11.9871
-9.84322
-8.01727
-6.44421
-5.08311
-3.89791
-2.8651
-1.96386
-1.17556
-0.498291
0.0738724
0.61043
1.02617
-40.6695
-39.2276
-32.3813
-24.0742
-19.4306
-15.6185
-12.3859
-9.89264
-7.79074
-6.03458
-4.53872
-3.26135
-2.16116
-1.21089
-0.38592
0.328396
0.932468
1.46231
1.9612
2.2538
-41.1247
-38.4401
-31.0311
-21.951
-17.1404
-13.337
-10.1018
-7.64439
-5.60367
-3.93199
-2.52301
-1.33417
-0.320017
0.550216
1.30171
1.94404
2.48854
2.98705
3.41686
3.62123
-41.3815
-36.9939
-29.4346
-19.7397
-14.5829
-10.7876
-7.60676
-5.22573
-3.27286
-1.70386
-0.395824
0.695948
1.61964
2.40843
3.08513
3.65812
4.15488
4.62314
4.97318
5.11136
-41.4234
-34.325
-26.7307
-17.1377
-11.7093
-7.95813
-4.8882
-2.63177
-0.799317
0.646154
1.83629
2.81976
3.64597
4.34868
4.94743
5.4539
5.9086
6.34053
6.61603
6.7156
-41.047
-30.4941
-22.8545
-13.9642
-8.51342
-4.87459
-1.95718
0.129925
1.80683
3.10651
4.16068
5.02319
5.7429
6.35226
6.86836
7.30828
7.71827
8.10443
8.31547
8.40164
-40.7866
-26.1769
-18.6144
-10.3572
-5.04079
-1.57233
1.16537
3.04739
4.53179
5.6612
6.56061
7.28781
7.89024
8.39754
8.82523
9.19497
9.55169
9.88132
10.0363
10.1191
-41.6146
-22.239
-14.6651
-6.48199
-1.26207
1.96359
4.46846
6.1064
7.35948
8.29088
9.01585
9.59273
10.0663
10.4626
10.7956
11.0888
11.3816
11.6462
11.75
11.8222
-47.0609
-20.0887
-11.112
-2.18704
2.99823
5.78641
7.94621
9.28007
10.2592
10.9645
11.4968
11.911
12.2465
12.5249
12.7572
12.9661
13.1845
13.3778
13.4325
13.4833
-65.8782
-12.4583
-5.42462
2.77841
7.80865
9.86677
11.5495
12.4977
13.1655
13.6248
13.9528
14.1996
14.396
14.5538
14.6825
14.8029