/*--------------------------------*- C++ -*----------------------------------*\
  =========                 |
  \\      /  F ield         | OpenFOAM: The Open Source CFD Toolbox
   \\    /   O peration     | Website:  https://openfoam.org
    \\  /    A nd           | Version:  6
     \\/     M anipulation  |
\*---------------------------------------------------------------------------*/
FoamFile
{
    version     2.0;
    format      ascii;
    class       volVectorField;
    location    "5";
    object      U;
}
// * * * * * * * * * * * * * * * * * * * * * * * * * * * * * * * * * * * * * //

dimensions      [0 1 -1 0 0 0 0];

internalField   nonuniform List<vector> 
10000
(
(0.894392 0.447178 0)
(0.894391 0.447182 0)
(0.894391 0.447186 0)
(0.894393 0.44719 0)
(0.894394 0.447192 0)
(0.894396 0.447195 0)
(0.894397 0.447196 0)
(0.894398 0.447198 0)
(0.894399 0.447198 0)
(0.894399 0.447199 0)
(0.894399 0.447199 0)
(0.8944 0.4472 0)
(0.8944 0.4472 0)
(0.8944 0.4472 0)
(0.8944 0.4472 0)
(0.8944 0.4472 0)
(0.8944 0.4472 0)
(0.8944 0.4472 0)
(0.8944 0.4472 0)
(0.8944 0.4472 0)
(0.8944 0.4472 0)
(0.8944 0.4472 0)
(0.8944 0.4472 0)
(0.8944 0.4472 0)
(0.8944 0.4472 0)
(0.8944 0.4472 0)
(0.8944 0.4472 0)
(0.8944 0.4472 0)
(0.8944 0.4472 0)
(0.8944 0.4472 0)
(0.8944 0.4472 0)
(0.8944 0.4472 0)
(0.8944 0.4472 0)
(0.8944 0.4472 0)
(0.8944 0.4472 0)
(0.894399 0.4472 0)
(0.894399 0.447201 0)
(0.894398 0.447201 0)
(0.894397 0.447203 0)
(0.894395 0.447205 0)
(0.894392 0.447208 0)
(0.894388 0.447212 0)
(0.894384 0.447219 0)
(0.89438 0.447227 0)
(0.894376 0.447237 0)
(0.894375 0.447248 0)
(0.894375 0.447261 0)
(0.894378 0.447277 0)
(0.89438 0.447296 0)
(0.894374 0.447326 0)
(0.894351 0.447377 0)
(0.894296 0.44747 0)
(0.894187 0.44763 0)
(0.894006 0.447896 0)
(0.893734 0.44831 0)
(0.893361 0.448915 0)
(0.892893 0.449747 0)
(0.892345 0.450827 0)
(0.89175 0.452156 0)
(0.89115 0.453709 0)
(0.890594 0.455441 0)
(0.890127 0.457289 0)
(0.88979 0.459179 0)
(0.889612 0.461037 0)
(0.889606 0.462796 0)
(0.889775 0.464401 0)
(0.890109 0.46581 0)
(0.890589 0.467 0)
(0.891195 0.467959 0)
(0.8919 0.468684 0)
(0.892681 0.469179 0)
(0.893512 0.469448 0)
(0.89437 0.469494 0)
(0.895232 0.469319 0)
(0.896075 0.468918 0)
(0.896873 0.468284 0)
(0.897597 0.467407 0)
(0.898214 0.466282 0)
(0.89869 0.464914 0)
(0.898996 0.463326 0)
(0.899115 0.461565 0)
(0.899046 0.459695 0)
(0.898807 0.457796 0)
(0.898431 0.455952 0)
(0.897962 0.454235 0)
(0.897447 0.4527 0)
(0.896925 0.45138 0)
(0.896431 0.450286 0)
(0.895987 0.449411 0)
(0.895604 0.448733 0)
(0.895287 0.448225 0)
(0.895033 0.447856 0)
(0.894836 0.447598 0)
(0.894689 0.447424 0)
(0.894582 0.447311 0)
(0.894507 0.447243 0)
(0.894457 0.447204 0)
(0.894426 0.447184 0)
(0.894407 0.447176 0)
(0.894397 0.447175 0)
(0.894389 0.447172 0)
(0.894387 0.447176 0)
(0.894388 0.447181 0)
(0.89439 0.447186 0)
(0.894392 0.44719 0)
(0.894394 0.447193 0)
(0.894396 0.447195 0)
(0.894397 0.447197 0)
(0.894398 0.447198 0)
(0.894399 0.447199 0)
(0.894399 0.447199 0)
(0.894399 0.4472 0)
(0.8944 0.4472 0)
(0.8944 0.4472 0)
(0.8944 0.4472 0)
(0.8944 0.4472 0)
(0.8944 0.4472 0)
(0.8944 0.4472 0)
(0.8944 0.4472 0)
(0.8944 0.4472 0)
(0.8944 0.4472 0)
(0.8944 0.4472 0)
(0.8944 0.4472 0)
(0.8944 0.4472 0)
(0.8944 0.4472 0)
(0.8944 0.4472 0)
(0.8944 0.4472 0)
(0.8944 0.4472 0)
(0.8944 0.4472 0)
(0.8944 0.4472 0)
(0.8944 0.4472 0)
(0.8944 0.4472 0)
(0.8944 0.4472 0)
(0.8944 0.4472 0)
(0.8944 0.4472 0)
(0.894399 0.447201 0)
(0.894398 0.447201 0)
(0.894397 0.447202 0)
(0.894395 0.447204 0)
(0.894392 0.447206 0)
(0.894389 0.447211 0)
(0.894384 0.447216 0)
(0.894378 0.447225 0)
(0.894372 0.447236 0)
(0.894367 0.447249 0)
(0.894364 0.447264 0)
(0.894363 0.447282 0)
(0.894362 0.447304 0)
(0.894356 0.447336 0)
(0.894335 0.447386 0)
(0.894283 0.447474 0)
(0.894176 0.447628 0)
(0.893989 0.447888 0)
(0.893693 0.448306 0)
(0.893271 0.448937 0)
(0.892717 0.449831 0)
(0.892046 0.451024 0)
(0.891291 0.452526 0)
(0.890504 0.454316 0)
(0.889748 0.45634 0)
(0.889087 0.458519 0)
(0.888576 0.460761 0)
(0.888258 0.462967 0)
(0.888154 0.465052 0)
(0.888271 0.466946 0)
(0.888595 0.468602 0)
(0.889104 0.469997 0)
(0.889768 0.471123 0)
(0.890555 0.471994 0)
(0.891436 0.472626 0)
(0.892385 0.473041 0)
(0.893379 0.473259 0)
(0.894397 0.473291 0)
(0.895422 0.473139 0)
(0.896435 0.472797 0)
(0.897414 0.472247 0)
(0.898333 0.47146 0)
(0.899152 0.470409 0)
(0.899828 0.469067 0)
(0.900315 0.467431 0)
(0.900573 0.465526 0)
(0.900586 0.463409 0)
(0.900359 0.461169 0)
(0.899928 0.458913 0)
(0.899344 0.456747 0)
(0.898671 0.454758 0)
(0.897968 0.453009 0)
(0.897287 0.451533 0)
(0.896665 0.450333 0)
(0.896124 0.449393 0)
(0.895672 0.44868 0)
(0.895309 0.448159 0)
(0.895027 0.447791 0)
(0.894816 0.44754 0)
(0.894663 0.447377 0)
(0.894556 0.447275 0)
(0.894484 0.447217 0)
(0.894438 0.447186 0)
(0.894411 0.447173 0)
(0.894396 0.44717 0)
(0.894387 0.447166 0)
(0.894384 0.44717 0)
(0.894384 0.447176 0)
(0.894386 0.447182 0)
(0.894389 0.447187 0)
(0.894392 0.447191 0)
(0.894394 0.447194 0)
(0.894396 0.447196 0)
(0.894397 0.447197 0)
(0.894398 0.447199 0)
(0.894399 0.447199 0)
(0.894399 0.4472 0)
(0.8944 0.4472 0)
(0.8944 0.4472 0)
(0.8944 0.4472 0)
(0.8944 0.4472 0)
(0.8944 0.4472 0)
(0.8944 0.4472 0)
(0.8944 0.4472 0)
(0.8944 0.4472 0)
(0.8944 0.4472 0)
(0.8944 0.4472 0)
(0.8944 0.4472 0)
(0.8944 0.4472 0)
(0.8944 0.4472 0)
(0.8944 0.4472 0)
(0.8944 0.4472 0)
(0.8944 0.4472 0)
(0.8944 0.4472 0)
(0.8944 0.4472 0)
(0.8944 0.4472 0)
(0.8944 0.4472 0)
(0.8944 0.4472 0)
(0.8944 0.4472 0)
(0.894399 0.447201 0)
(0.894399 0.447201 0)
(0.894398 0.447202 0)
(0.894396 0.447203 0)
(0.894393 0.447205 0)
(0.894389 0.447209 0)
(0.894384 0.447215 0)
(0.894378 0.447222 0)
(0.89437 0.447233 0)
(0.894362 0.447247 0)
(0.894355 0.447264 0)
(0.89435 0.447284 0)
(0.894345 0.447309 0)
(0.894338 0.447341 0)
(0.894318 0.44739 0)
(0.894271 0.447472 0)
(0.89417 0.447614 0)
(0.893985 0.447859 0)
(0.893679 0.448264 0)
(0.893219 0.448896 0)
(0.89259 0.449822 0)
(0.891796 0.451097 0)
(0.890871 0.452743 0)
(0.889876 0.454746 0)
(0.888889 0.457046 0)
(0.887996 0.459545 0)
(0.887274 0.462125 0)
(0.886785 0.46466 0)
(0.886562 0.467034 0)
(0.886613 0.469159 0)
(0.886923 0.47098 0)
(0.88746 0.472473 0)
(0.888183 0.473642 0)
(0.889049 0.474515 0)
(0.890018 0.475134 0)
(0.891058 0.475543 0)
(0.892145 0.475786 0)
(0.893262 0.475898 0)
(0.894398 0.475901 0)
(0.895543 0.4758 0)
(0.896689 0.475587 0)
(0.897826 0.475234 0)
(0.898933 0.474696 0)
(0.899973 0.473912 0)
(0.900894 0.472822 0)
(0.90163 0.471373 0)
(0.902115 0.46955 0)
(0.9023 0.467381 0)
(0.902169 0.464946 0)
(0.901742 0.462366 0)
(0.901075 0.459779 0)
(0.900247 0.457318 0)
(0.899342 0.45509 0)
(0.898437 0.453162 0)
(0.897591 0.451563 0)
(0.896843 0.450289 0)
(0.896211 0.449311 0)
(0.8957 0.448586 0)
(0.8953 0.448069 0)
(0.894999 0.447712 0)
(0.894781 0.447477 0)
(0.894627 0.447329 0)
(0.894524 0.447241 0)
(0.894459 0.447194 0)
(0.894419 0.447172 0)
(0.894397 0.447165 0)
(0.894385 0.44716 0)
(0.894379 0.447164 0)
(0.894379 0.447171 0)
(0.894382 0.447177 0)
(0.894385 0.447183 0)
(0.894389 0.447188 0)
(0.894392 0.447192 0)
(0.894394 0.447195 0)
(0.894396 0.447197 0)
(0.894397 0.447198 0)
(0.894399 0.447199 0)
(0.894399 0.447199 0)
(0.8944 0.4472 0)
(0.8944 0.4472 0)
(0.8944 0.4472 0)
(0.8944 0.4472 0)
(0.8944 0.4472 0)
(0.8944 0.4472 0)
(0.8944 0.4472 0)
(0.8944 0.4472 0)
(0.8944 0.4472 0)
(0.8944 0.4472 0)
(0.8944 0.4472 0)
(0.8944 0.4472 0)
(0.8944 0.4472 0)
(0.8944 0.4472 0)
(0.8944 0.4472 0)
(0.8944 0.4472 0)
(0.8944 0.4472 0)
(0.8944 0.4472 0)
(0.8944 0.4472 0)
(0.8944 0.4472 0)
(0.8944 0.4472 0)
(0.894399 0.4472 0)
(0.894399 0.447201 0)
(0.894398 0.447201 0)
(0.894397 0.447202 0)
(0.894394 0.447204 0)
(0.894391 0.447207 0)
(0.894386 0.447211 0)
(0.894379 0.447219 0)
(0.89437 0.447229 0)
(0.894359 0.447243 0)
(0.894349 0.44726 0)
(0.894339 0.447282 0)
(0.894331 0.447308 0)
(0.89432 0.447342 0)
(0.894301 0.447389 0)
(0.894258 0.447464 0)
(0.894168 0.447592 0)
(0.893992 0.447814 0)
(0.893689 0.448191 0)
(0.893211 0.448798 0)
(0.892525 0.449721 0)
(0.891621 0.451035 0)
(0.890526 0.452785 0)
(0.889309 0.454964 0)
(0.888063 0.457511 0)
(0.886903 0.460308 0)
(0.885935 0.463204 0)
(0.885244 0.466034 0)
(0.884883 0.468651 0)
(0.884864 0.470936 0)
(0.885167 0.472822 0)
(0.885747 0.474285 0)
(0.886547 0.475342 0)
(0.887506 0.476042 0)
(0.888569 0.476451 0)
(0.889691 0.476645 0)
(0.890843 0.476698 0)
(0.892007 0.476674 0)
(0.893177 0.476625 0)
(0.894354 0.476581 0)
(0.895545 0.476554 0)
(0.896756 0.476532 0)
(0.897991 0.476482 0)
(0.899244 0.476346 0)
(0.900491 0.476039 0)
(0.901679 0.475457 0)
(0.902726 0.474494 0)
(0.903535 0.47307 0)
(0.904015 0.471155 0)
(0.904104 0.46879 0)
(0.903792 0.466088 0)
(0.903122 0.46321 0)
(0.902183 0.460335 0)
(0.901082 0.457626 0)
(0.89993 0.455206 0)
(0.898819 0.453146 0)
(0.897813 0.451468 0)
(0.896949 0.450157 0)
(0.896241 0.449171 0)
(0.895683 0.448457 0)
(0.89526 0.447959 0)
(0.89495 0.447625 0)
(0.894733 0.447412 0)
(0.894585 0.447283 0)
(0.894491 0.447211 0)
(0.894433 0.447175 0)
(0.894401 0.447161 0)
(0.894385 0.447155 0)
(0.894375 0.447158 0)
(0.894374 0.447164 0)
(0.894377 0.447172 0)
(0.894381 0.447179 0)
(0.894385 0.447185 0)
(0.894389 0.44719 0)
(0.894392 0.447193 0)
(0.894395 0.447196 0)
(0.894397 0.447197 0)
(0.894398 0.447198 0)
(0.894399 0.447199 0)
(0.894399 0.447199 0)
(0.8944 0.4472 0)
(0.8944 0.4472 0)
(0.8944 0.4472 0)
(0.8944 0.4472 0)
(0.8944 0.4472 0)
(0.8944 0.4472 0)
(0.8944 0.4472 0)
(0.8944 0.4472 0)
(0.8944 0.4472 0)
(0.8944 0.4472 0)
(0.8944 0.4472 0)
(0.8944 0.4472 0)
(0.8944 0.4472 0)
(0.8944 0.4472 0)
(0.8944 0.4472 0)
(0.8944 0.4472 0)
(0.8944 0.4472 0)
(0.8944 0.4472 0)
(0.8944 0.4472 0)
(0.8944 0.4472 0)
(0.894399 0.4472 0)
(0.894399 0.447201 0)
(0.894398 0.447201 0)
(0.894396 0.447203 0)
(0.894392 0.447205 0)
(0.894388 0.447209 0)
(0.89438 0.447215 0)
(0.894371 0.447224 0)
(0.89436 0.447237 0)
(0.894346 0.447254 0)
(0.894333 0.447276 0)
(0.894319 0.447303 0)
(0.894305 0.447338 0)
(0.894284 0.447383 0)
(0.894246 0.447452 0)
(0.894166 0.447565 0)
(0.894008 0.44776 0)
(0.893721 0.448096 0)
(0.893247 0.448655 0)
(0.892531 0.449538 0)
(0.891541 0.450843 0)
(0.890292 0.452642 0)
(0.888849 0.454947 0)
(0.887326 0.457698 0)
(0.885866 0.460761 0)
(0.884615 0.463944 0)
(0.883693 0.467038 0)
(0.883176 0.469848 0)
(0.883086 0.472223 0)
(0.883398 0.474076 0)
(0.88405 0.475383 0)
(0.884962 0.476173 0)
(0.886047 0.47652 0)
(0.887231 0.476522 0)
(0.88845 0.476285 0)
(0.889663 0.475915 0)
(0.890846 0.47551 0)
(0.891995 0.475152 0)
(0.893121 0.4749 0)
(0.89424 0.474795 0)
(0.895377 0.474849 0)
(0.896554 0.475054 0)
(0.897796 0.475377 0)
(0.899118 0.475754 0)
(0.900516 0.476088 0)
(0.901952 0.476244 0)
(0.903342 0.476064 0)
(0.90456 0.475392 0)
(0.905466 0.474114 0)
(0.905937 0.472195 0)
(0.905905 0.469699 0)
(0.905375 0.466784 0)
(0.904425 0.46366 0)
(0.903183 0.460552 0)
(0.901794 0.457654 0)
(0.900393 0.455101 0)
(0.899084 0.452964 0)
(0.897934 0.451255 0)
(0.896974 0.449946 0)
(0.896209 0.448983 0)
(0.895623 0.448301 0)
(0.89519 0.447838 0)
(0.894884 0.447536 0)
(0.894675 0.44735 0)
(0.89454 0.447243 0)
(0.894456 0.447186 0)
(0.894409 0.447162 0)
(0.894388 0.447153 0)
(0.894372 0.447152 0)
(0.894368 0.447158 0)
(0.894371 0.447167 0)
(0.894375 0.447175 0)
(0.894381 0.447182 0)
(0.894386 0.447187 0)
(0.89439 0.447192 0)
(0.894393 0.447194 0)
(0.894395 0.447197 0)
(0.894397 0.447198 0)
(0.894398 0.447199 0)
(0.894399 0.447199 0)
(0.894399 0.4472 0)
(0.8944 0.4472 0)
(0.8944 0.4472 0)
(0.8944 0.4472 0)
(0.8944 0.4472 0)
(0.8944 0.4472 0)
(0.8944 0.4472 0)
(0.8944 0.4472 0)
(0.8944 0.4472 0)
(0.8944 0.4472 0)
(0.8944 0.4472 0)
(0.8944 0.4472 0)
(0.8944 0.4472 0)
(0.8944 0.4472 0)
(0.8944 0.4472 0)
(0.8944 0.4472 0)
(0.8944 0.4472 0)
(0.8944 0.4472 0)
(0.8944 0.4472 0)
(0.8944 0.447201 0)
(0.894399 0.4472 0)
(0.894398 0.447201 0)
(0.894397 0.447202 0)
(0.894394 0.447204 0)
(0.89439 0.447207 0)
(0.894383 0.447212 0)
(0.894375 0.44722 0)
(0.894362 0.447231 0)
(0.894347 0.447247 0)
(0.89433 0.447268 0)
(0.894313 0.447295 0)
(0.894293 0.447329 0)
(0.894271 0.447373 0)
(0.894234 0.447435 0)
(0.894165 0.447533 0)
(0.894027 0.4477 0)
(0.893769 0.44799 0)
(0.893321 0.448484 0)
(0.892607 0.449293 0)
(0.891571 0.450538 0)
(0.890197 0.452322 0)
(0.888543 0.454689 0)
(0.886733 0.457589 0)
(0.884947 0.460874 0)
(0.883375 0.464314 0)
(0.882187 0.467643 0)
(0.881493 0.470609 0)
(0.881331 0.473019 0)
(0.881671 0.474761 0)
(0.882432 0.475809 0)
(0.883502 0.476206 0)
(0.884765 0.476054 0)
(0.886114 0.475482 0)
(0.887466 0.474633 0)
(0.888762 0.473647 0)
(0.889969 0.47265 0)
(0.891077 0.471751 0)
(0.892101 0.471036 0)
(0.893069 0.470571 0)
(0.894018 0.470397 0)
(0.894989 0.470528 0)
(0.896024 0.47096 0)
(0.897163 0.471663 0)
(0.898447 0.472583 0)
(0.899902 0.473626 0)
(0.901516 0.474651 0)
(0.903223 0.475465 0)
(0.90489 0.475846 0)
(0.906333 0.475585 0)
(0.907358 0.474537 0)
(0.907811 0.472673 0)
(0.907626 0.470094 0)
(0.906839 0.467012 0)
(0.905576 0.463697 0)
(0.904012 0.460421 0)
(0.902332 0.457402 0)
(0.900694 0.454783 0)
(0.899211 0.45263 0)
(0.897944 0.450942 0)
(0.896916 0.449674 0)
(0.896118 0.448762 0)
(0.895524 0.448131 0)
(0.895098 0.447714 0)
(0.894806 0.447451 0)
(0.894614 0.447295 0)
(0.894494 0.447209 0)
(0.894425 0.447168 0)
(0.894397 0.447155 0)
(0.894371 0.447149 0)
(0.894363 0.447153 0)
(0.894364 0.447161 0)
(0.894369 0.44717 0)
(0.894376 0.447178 0)
(0.894382 0.447185 0)
(0.894387 0.44719 0)
(0.894391 0.447193 0)
(0.894394 0.447196 0)
(0.894396 0.447197 0)
(0.894398 0.447198 0)
(0.894399 0.447199 0)
(0.894399 0.4472 0)
(0.8944 0.447199 0)
(0.8944 0.4472 0)
(0.8944 0.4472 0)
(0.8944 0.4472 0)
(0.8944 0.4472 0)
(0.8944 0.4472 0)
(0.8944 0.4472 0)
(0.8944 0.4472 0)
(0.8944 0.4472 0)
(0.8944 0.4472 0)
(0.8944 0.4472 0)
(0.8944 0.4472 0)
(0.8944 0.4472 0)
(0.8944 0.4472 0)
(0.8944 0.4472 0)
(0.8944 0.4472 0)
(0.8944 0.4472 0)
(0.8944 0.4472 0)
(0.894399 0.447201 0)
(0.894399 0.447201 0)
(0.894397 0.447201 0)
(0.894396 0.447203 0)
(0.894392 0.447205 0)
(0.894387 0.447209 0)
(0.894378 0.447215 0)
(0.894366 0.447225 0)
(0.894351 0.447238 0)
(0.894332 0.447258 0)
(0.894311 0.447283 0)
(0.894287 0.447316 0)
(0.89426 0.447358 0)
(0.894225 0.447415 0)
(0.894164 0.4475 0)
(0.894047 0.44764 0)
(0.893824 0.447882 0)
(0.89342 0.448301 0)
(0.892744 0.449011 0)
(0.891707 0.450148 0)
(0.890259 0.45185 0)
(0.888428 0.454201 0)
(0.886342 0.45718 0)
(0.884209 0.460633 0)
(0.88228 0.464296 0)
(0.880783 0.467839 0)
(0.879881 0.470943 0)
(0.879636 0.47336 0)
(0.880018 0.474948 0)
(0.880922 0.475674 0)
(0.882203 0.475601 0)
(0.883702 0.474857 0)
(0.885277 0.473608 0)
(0.886812 0.472034 0)
(0.888229 0.470308 0)
(0.889482 0.468584 0)
(0.890559 0.466994 0)
(0.891471 0.465642 0)
(0.892252 0.464611 0)
(0.892951 0.463959 0)
(0.893625 0.463723 0)
(0.89433 0.463919 0)
(0.895121 0.464542 0)
(0.896054 0.465573 0)
(0.897187 0.466972 0)
(0.898578 0.468671 0)
(0.900256 0.470546 0)
(0.902194 0.472407 0)
(0.904279 0.473996 0)
(0.906307 0.475021 0)
(0.90802 0.47522 0)
(0.909167 0.474428 0)
(0.909574 0.472636 0)
(0.909192 0.469996 0)
(0.908107 0.466786 0)
(0.906503 0.463337 0)
(0.904613 0.45996 0)
(0.902658 0.456894 0)
(0.900813 0.45428 0)
(0.89919 0.452172 0)
(0.897843 0.450551 0)
(0.89678 0.44936 0)
(0.895976 0.448522 0)
(0.895394 0.447957 0)
(0.89499 0.447594 0)
(0.894721 0.447373 0)
(0.894551 0.447247 0)
(0.894451 0.447183 0)
(0.894413 0.447165 0)
(0.894374 0.447149 0)
(0.894359 0.447149 0)
(0.894358 0.447156 0)
(0.894363 0.447165 0)
(0.89437 0.447174 0)
(0.894377 0.447182 0)
(0.894384 0.447187 0)
(0.894389 0.447192 0)
(0.894392 0.447195 0)
(0.894395 0.447197 0)
(0.894397 0.447198 0)
(0.894398 0.447199 0)
(0.894399 0.447199 0)
(0.8944 0.447199 0)
(0.894399 0.4472 0)
(0.8944 0.4472 0)
(0.8944 0.4472 0)
(0.8944 0.4472 0)
(0.8944 0.4472 0)
(0.8944 0.4472 0)
(0.8944 0.4472 0)
(0.8944 0.4472 0)
(0.8944 0.4472 0)
(0.8944 0.4472 0)
(0.8944 0.4472 0)
(0.8944 0.4472 0)
(0.8944 0.4472 0)
(0.8944 0.4472 0)
(0.8944 0.4472 0)
(0.8944 0.4472 0)
(0.894399 0.4472 0)
(0.894399 0.447201 0)
(0.894398 0.447201 0)
(0.894397 0.447201 0)
(0.894394 0.447204 0)
(0.894389 0.447206 0)
(0.894382 0.447211 0)
(0.894371 0.447219 0)
(0.894357 0.44723 0)
(0.894337 0.447247 0)
(0.894314 0.44727 0)
(0.894287 0.4473 0)
(0.894256 0.44734 0)
(0.894219 0.447392 0)
(0.894164 0.447466 0)
(0.894065 0.447582 0)
(0.893879 0.447778 0)
(0.893531 0.448123 0)
(0.892922 0.448719 0)
(0.891936 0.449711 0)
(0.890478 0.451266 0)
(0.888531 0.453515 0)
(0.8862 0.456486 0)
(0.883718 0.460042 0)
(0.881395 0.463888 0)
(0.879539 0.467631 0)
(0.878379 0.470874 0)
(0.878023 0.473304 0)
(0.878445 0.474736 0)
(0.879518 0.475131 0)
(0.881053 0.474566 0)
(0.882848 0.473204 0)
(0.884712 0.471246 0)
(0.886491 0.468909 0)
(0.888077 0.4664 0)
(0.889413 0.463902 0)
(0.890478 0.461566 0)
(0.891288 0.459512 0)
(0.891879 0.457827 0)
(0.892309 0.456575 0)
(0.892645 0.4558 0)
(0.892961 0.45553 0)
(0.893326 0.455775 0)
(0.893804 0.456534 0)
(0.894455 0.457795 0)
(0.895348 0.459539 0)
(0.896563 0.461729 0)
(0.898173 0.464288 0)
(0.900205 0.467062 0)
(0.902598 0.469805 0)
(0.905169 0.472188 0)
(0.907625 0.473847 0)
(0.909625 0.474474 0)
(0.910867 0.473899 0)
(0.911172 0.472151 0)
(0.910535 0.469449 0)
(0.909109 0.46614 0)
(0.907151 0.462612 0)
(0.904946 0.459208 0)
(0.902748 0.45617 0)
(0.900739 0.45363 0)
(0.899024 0.451622 0)
(0.897639 0.450111 0)
(0.896575 0.449026 0)
(0.895794 0.44828 0)
(0.895244 0.447791 0)
(0.894874 0.447486 0)
(0.894636 0.447307 0)
(0.894493 0.44721 0)
(0.894442 0.447183 0)
(0.894383 0.447154 0)
(0.894358 0.447148 0)
(0.894352 0.447152 0)
(0.894356 0.447161 0)
(0.894364 0.44717 0)
(0.894372 0.447178 0)
(0.89438 0.447185 0)
(0.894386 0.44719 0)
(0.89439 0.447193 0)
(0.894394 0.447196 0)
(0.894396 0.447198 0)
(0.894398 0.447198 0)
(0.894399 0.447199 0)
(0.894399 0.447199 0)
(0.894399 0.4472 0)
(0.8944 0.4472 0)
(0.8944 0.4472 0)
(0.8944 0.4472 0)
(0.8944 0.4472 0)
(0.8944 0.4472 0)
(0.8944 0.4472 0)
(0.8944 0.4472 0)
(0.8944 0.4472 0)
(0.8944 0.4472 0)
(0.8944 0.4472 0)
(0.8944 0.4472 0)
(0.8944 0.4472 0)
(0.8944 0.4472 0)
(0.8944 0.4472 0)
(0.894399 0.4472 0)
(0.894399 0.447201 0)
(0.894399 0.4472 0)
(0.894398 0.447201 0)
(0.894396 0.447202 0)
(0.894392 0.447204 0)
(0.894386 0.447208 0)
(0.894377 0.447214 0)
(0.894364 0.447223 0)
(0.894345 0.447237 0)
(0.894321 0.447257 0)
(0.894292 0.447284 0)
(0.894258 0.44732 0)
(0.894218 0.447367 0)
(0.894166 0.447431 0)
(0.894082 0.447528 0)
(0.893929 0.447685 0)
(0.893642 0.447958 0)
(0.893118 0.44844 0)
(0.892229 0.449267 0)
(0.890834 0.450622 0)
(0.888854 0.452684 0)
(0.886343 0.455546 0)
(0.883533 0.459117 0)
(0.88079 0.463096 0)
(0.878515 0.46703 0)
(0.877032 0.470433 0)
(0.876509 0.47291 0)
(0.876943 0.474229 0)
(0.878188 0.474334 0)
(0.880009 0.473317 0)
(0.882147 0.471371 0)
(0.884358 0.468739 0)
(0.886443 0.465673 0)
(0.888257 0.462411 0)
(0.889717 0.459165 0)
(0.890795 0.456108 0)
(0.89151 0.453372 0)
(0.891911 0.451051 0)
(0.892064 0.449206 0)
(0.892052 0.447872 0)
(0.891958 0.44707 0)
(0.891869 0.446811 0)
(0.891862 0.447099 0)
(0.892002 0.447932 0)
(0.892346 0.449308 0)
(0.89296 0.451226 0)
(0.893929 0.453684 0)
(0.89536 0.456657 0)
(0.897339 0.460058 0)
(0.899879 0.463701 0)
(0.902859 0.467274 0)
(0.906004 0.470371 0)
(0.908917 0.472562 0)
(0.911173 0.473507 0)
(0.912436 0.473054 0)
(0.912555 0.471289 0)
(0.911593 0.468506 0)
(0.909789 0.465125 0)
(0.907476 0.461577 0)
(0.904988 0.458218 0)
(0.902597 0.455281 0)
(0.90048 0.452879 0)
(0.898725 0.45102 0)
(0.897349 0.449652 0)
(0.89632 0.448693 0)
(0.895586 0.44805 0)
(0.895084 0.447639 0)
(0.894758 0.447392 0)
(0.894557 0.447253 0)
(0.894488 0.447214 0)
(0.894401 0.447166 0)
(0.894361 0.44715 0)
(0.894348 0.44715 0)
(0.894349 0.447157 0)
(0.894357 0.447166 0)
(0.894366 0.447175 0)
(0.894375 0.447183 0)
(0.894382 0.447188 0)
(0.894388 0.447192 0)
(0.894392 0.447195 0)
(0.894395 0.447197 0)
(0.894397 0.447198 0)
(0.894398 0.447199 0)
(0.894399 0.447199 0)
(0.894399 0.4472 0)
(0.8944 0.4472 0)
(0.8944 0.4472 0)
(0.8944 0.4472 0)
(0.8944 0.4472 0)
(0.8944 0.4472 0)
(0.8944 0.4472 0)
(0.8944 0.4472 0)
(0.8944 0.4472 0)
(0.8944 0.4472 0)
(0.8944 0.4472 0)
(0.8944 0.4472 0)
(0.8944 0.4472 0)
(0.8944 0.4472 0)
(0.8944 0.4472 0)
(0.8944 0.4472 0)
(0.894399 0.4472 0)
(0.894399 0.447201 0)
(0.894397 0.447201 0)
(0.894395 0.447203 0)
(0.89439 0.447205 0)
(0.894382 0.447209 0)
(0.894371 0.447217 0)
(0.894354 0.447227 0)
(0.894331 0.447244 0)
(0.894302 0.447267 0)
(0.894267 0.447299 0)
(0.894224 0.447341 0)
(0.894172 0.447397 0)
(0.894099 0.447476 0)
(0.893974 0.447601 0)
(0.893742 0.447813 0)
(0.893313 0.448189 0)
(0.892549 0.448851 0)
(0.891286 0.449975 0)
(0.889374 0.451775 0)
(0.886785 0.45442 0)
(0.883706 0.457899 0)
(0.880537 0.46194 0)
(0.877782 0.466046 0)
(0.875887 0.469641 0)
(0.875113 0.47223 0)
(0.875497 0.473514 0)
(0.876884 0.473416 0)
(0.878996 0.472038 0)
(0.88151 0.4696 0)
(0.884118 0.466382 0)
(0.886568 0.462672 0)
(0.888669 0.458741 0)
(0.890306 0.454824 0)
(0.89143 0.451118 0)
(0.892057 0.447771 0)
(0.892249 0.44489 0)
(0.892097 0.442535 0)
(0.891705 0.44073 0)
(0.891179 0.439476 0)
(0.890619 0.438764 0)
(0.890119 0.438579 0)
(0.889756 0.438916 0)
(0.889589 0.439772 0)
(0.889661 0.441153 0)
(0.890021 0.443075 0)
(0.890744 0.445566 0)
(0.891946 0.448651 0)
(0.893761 0.452321 0)
(0.896282 0.456475 0)
(0.899484 0.460877 0)
(0.903162 0.465145 0)
(0.906923 0.468793 0)
(0.910259 0.471338 0)
(0.912678 0.472432 0)
(0.913845 0.471968 0)
(0.913669 0.470108 0)
(0.91231 0.467228 0)
(0.910104 0.463805 0)
(0.907457 0.460298 0)
(0.904736 0.457055 0)
(0.902216 0.454287 0)
(0.900057 0.452074 0)
(0.89832 0.450402 0)
(0.896995 0.4492 0)
(0.896033 0.448378 0)
(0.895367 0.447841 0)
(0.894926 0.447509 0)
(0.89465 0.447316 0)
(0.894555 0.447259 0)
(0.894431 0.447187 0)
(0.89437 0.447157 0)
(0.894347 0.447151 0)
(0.894343 0.447155 0)
(0.89435 0.447164 0)
(0.89436 0.447172 0)
(0.89437 0.44718 0)
(0.894379 0.447186 0)
(0.894385 0.447191 0)
(0.89439 0.447194 0)
(0.894394 0.447197 0)
(0.894396 0.447198 0)
(0.894398 0.447199 0)
(0.894399 0.447199 0)
(0.894399 0.447199 0)
(0.894399 0.4472 0)
(0.8944 0.4472 0)
(0.894399 0.4472 0)
(0.8944 0.4472 0)
(0.8944 0.4472 0)
(0.8944 0.4472 0)
(0.8944 0.4472 0)
(0.8944 0.4472 0)
(0.8944 0.4472 0)
(0.8944 0.4472 0)
(0.8944 0.4472 0)
(0.8944 0.4472 0)
(0.8944 0.4472 0)
(0.8944 0.4472 0)
(0.894399 0.4472 0)
(0.894399 0.447201 0)
(0.894398 0.447201 0)
(0.894396 0.447201 0)
(0.894393 0.447204 0)
(0.894387 0.447206 0)
(0.894378 0.447211 0)
(0.894363 0.44722 0)
(0.894343 0.447232 0)
(0.894315 0.447252 0)
(0.89428 0.447278 0)
(0.894237 0.447314 0)
(0.894185 0.447363 0)
(0.894116 0.447429 0)
(0.894012 0.447528 0)
(0.89383 0.44769 0)
(0.893489 0.447975 0)
(0.892864 0.448483 0)
(0.891779 0.449374 0)
(0.890035 0.450867 0)
(0.8875 0.453192 0)
(0.884261 0.456451 0)
(0.880704 0.460453 0)
(0.877423 0.464693 0)
(0.875012 0.468508 0)
(0.873868 0.471289 0)
(0.8741 0.472649 0)
(0.875559 0.472471 0)
(0.87793 0.47086 0)
(0.880827 0.468063 0)
(0.883872 0.46439 0)
(0.886742 0.460159 0)
(0.889195 0.45567 0)
(0.89107 0.451184 0)
(0.892287 0.44692 0)
(0.892845 0.443049 0)
(0.892808 0.439693 0)
(0.892291 0.436927 0)
(0.891437 0.434774 0)
(0.890394 0.433219 0)
(0.889297 0.432221 0)
(0.888263 0.431729 0)
(0.887387 0.431701 0)
(0.886735 0.432109 0)
(0.88635 0.432951 0)
(0.886251 0.434242 0)
(0.886455 0.436016 0)
(0.887011 0.43833 0)
(0.88802 0.44125 0)
(0.889638 0.444833 0)
(0.892026 0.449075 0)
(0.895267 0.453845 0)
(0.899268 0.458847 0)
(0.903704 0.463613 0)
(0.908053 0.467588 0)
(0.911704 0.470258 0)
(0.914132 0.471303 0)
(0.915044 0.470684 0)
(0.914453 0.468656 0)
(0.912636 0.465672 0)
(0.910029 0.462251 0)
(0.907092 0.458849 0)
(0.904209 0.455791 0)
(0.901636 0.453248 0)
(0.899503 0.451265 0)
(0.897838 0.449803 0)
(0.896605 0.448778 0)
(0.895735 0.448095 0)
(0.895151 0.447662 0)
(0.894779 0.447403 0)
(0.89465 0.447321 0)
(0.894477 0.447218 0)
(0.894388 0.447171 0)
(0.89435 0.447155 0)
(0.894339 0.447155 0)
(0.894344 0.447162 0)
(0.894353 0.44717 0)
(0.894364 0.447178 0)
(0.894374 0.447185 0)
(0.894382 0.44719 0)
(0.894388 0.447193 0)
(0.894392 0.447196 0)
(0.894395 0.447198 0)
(0.894397 0.447198 0)
(0.894398 0.447199 0)
(0.894399 0.447199 0)
(0.894399 0.4472 0)
(0.8944 0.4472 0)
(0.8944 0.4472 0)
(0.8944 0.4472 0)
(0.8944 0.4472 0)
(0.8944 0.4472 0)
(0.8944 0.4472 0)
(0.8944 0.4472 0)
(0.8944 0.4472 0)
(0.8944 0.4472 0)
(0.8944 0.4472 0)
(0.8944 0.4472 0)
(0.8944 0.4472 0)
(0.8944 0.4472 0)
(0.8944 0.4472 0)
(0.894399 0.4472 0)
(0.894398 0.447201 0)
(0.894395 0.447202 0)
(0.894391 0.447204 0)
(0.894383 0.447207 0)
(0.894373 0.447214 0)
(0.894355 0.447223 0)
(0.89433 0.447238 0)
(0.894297 0.447259 0)
(0.894255 0.44729 0)
(0.894203 0.447329 0)
(0.894139 0.447385 0)
(0.894048 0.447464 0)
(0.893902 0.447587 0)
(0.893639 0.447798 0)
(0.893148 0.448176 0)
(0.892263 0.448853 0)
(0.890761 0.450028 0)
(0.888422 0.451963 0)
(0.885186 0.454868 0)
(0.88134 0.458692 0)
(0.877524 0.462992 0)
(0.874495 0.467036 0)
(0.872832 0.47009 0)
(0.872765 0.471653 0)
(0.874182 0.471544 0)
(0.876739 0.469858 0)
(0.87999 0.46686 0)
(0.883485 0.462887 0)
(0.886828 0.458283 0)
(0.889704 0.453367 0)
(0.891894 0.448421 0)
(0.893273 0.443688 0)
(0.893806 0.439364 0)
(0.893539 0.435599 0)
(0.892598 0.43249 0)
(0.891163 0.430081 0)
(0.88944 0.428358 0)
(0.88763 0.427261 0)
(0.885909 0.426701 0)
(0.884412 0.426579 0)
(0.883231 0.426809 0)
(0.882412 0.427335 0)
(0.881963 0.428144 0)
(0.881862 0.429264 0)
(0.882085 0.430758 0)
(0.882635 0.432713 0)
(0.88358 0.435233 0)
(0.885068 0.43843 0)
(0.887303 0.442377 0)
(0.890463 0.447058 0)
(0.894585 0.452291 0)
(0.899471 0.457697 0)
(0.904654 0.462727 0)
(0.909476 0.466771 0)
(0.913256 0.469321 0)
(0.915484 0.470116 0)
(0.915965 0.469217 0)
(0.914847 0.466974 0)
(0.912539 0.463903 0)
(0.909561 0.460537 0)
(0.906406 0.457307 0)
(0.903446 0.454493 0)
(0.9009 0.452218 0)
(0.898859 0.450491 0)
(0.897314 0.44925 0)
(0.896204 0.448403 0)
(0.895445 0.447853 0)
(0.894952 0.447516 0)
(0.894778 0.447402 0)
(0.894544 0.447262 0)
(0.894418 0.447193 0)
(0.894359 0.447164 0)
(0.894339 0.447158 0)
(0.894338 0.447161 0)
(0.894347 0.447169 0)
(0.894359 0.447177 0)
(0.89437 0.447183 0)
(0.894379 0.447189 0)
(0.894386 0.447192 0)
(0.894391 0.447196 0)
(0.894394 0.447197 0)
(0.894396 0.447198 0)
(0.894398 0.447199 0)
(0.894399 0.447199 0)
(0.894399 0.4472 0)
(0.894399 0.4472 0)
(0.8944 0.4472 0)
(0.8944 0.4472 0)
(0.8944 0.4472 0)
(0.8944 0.4472 0)
(0.8944 0.4472 0)
(0.8944 0.4472 0)
(0.8944 0.4472 0)
(0.8944 0.4472 0)
(0.8944 0.4472 0)
(0.8944 0.4472 0)
(0.8944 0.4472 0)
(0.8944 0.4472 0)
(0.894399 0.4472 0)
(0.894399 0.4472 0)
(0.894397 0.447201 0)
(0.894394 0.447203 0)
(0.894389 0.447204 0)
(0.89438 0.447209 0)
(0.894366 0.447216 0)
(0.894345 0.447226 0)
(0.894315 0.447243 0)
(0.894277 0.447267 0)
(0.894227 0.4473 0)
(0.894165 0.447345 0)
(0.894084 0.447408 0)
(0.893965 0.447502 0)
(0.893762 0.447656 0)
(0.893388 0.447929 0)
(0.892698 0.448424 0)
(0.891474 0.449308 0)
(0.889446 0.450828 0)
(0.886406 0.453268 0)
(0.882454 0.45675 0)
(0.878169 0.460979 0)
(0.874447 0.465222 0)
(0.872098 0.468614 0)
(0.871541 0.470508 0)
(0.872749 0.47063 0)
(0.875372 0.469043 0)
(0.878909 0.466019 0)
(0.882836 0.461916 0)
(0.886682 0.457097 0)
(0.890056 0.451894 0)
(0.892661 0.446603 0)
(0.894303 0.441482 0)
(0.894892 0.436756 0)
(0.894438 0.432609 0)
(0.89305 0.429175 0)
(0.890922 0.426532 0)
(0.888315 0.424693 0)
(0.885516 0.423611 0)
(0.882798 0.423178 0)
(0.880387 0.423252 0)
(0.878447 0.423675 0)
(0.877067 0.424303 0)
(0.876259 0.425031 0)
(0.875972 0.425821 0)
(0.876123 0.426712 0)
(0.87662 0.427802 0)
(0.877409 0.429225 0)
(0.878507 0.431138 0)
(0.880034 0.433697 0)
(0.882205 0.437041 0)
(0.885265 0.441244 0)
(0.88938 0.446242 0)
(0.894501 0.451777 0)
(0.900286 0.457375 0)
(0.906109 0.462415 0)
(0.9112 0.466264 0)
(0.914855 0.468457 0)
(0.916645 0.468832 0)
(0.916524 0.467567 0)
(0.914801 0.465101 0)
(0.912007 0.461986 0)
(0.908724 0.458741 0)
(0.905444 0.455748 0)
(0.9025 0.453225 0)
(0.900061 0.451246 0)
(0.898169 0.449784 0)
(0.896782 0.448762 0)
(0.895816 0.448083 0)
(0.895178 0.447656 0)
(0.894945 0.447503 0)
(0.894634 0.447319 0)
(0.894462 0.447223 0)
(0.894376 0.447179 0)
(0.894342 0.447163 0)
(0.894335 0.447163 0)
(0.894342 0.447168 0)
(0.894353 0.447176 0)
(0.894365 0.447182 0)
(0.894375 0.447188 0)
(0.894383 0.447192 0)
(0.894389 0.447195 0)
(0.894393 0.447197 0)
(0.894396 0.447198 0)
(0.894398 0.447199 0)
(0.894398 0.447199 0)
(0.894399 0.4472 0)
(0.894399 0.4472 0)
(0.8944 0.4472 0)
(0.8944 0.4472 0)
(0.8944 0.4472 0)
(0.8944 0.4472 0)
(0.8944 0.4472 0)
(0.8944 0.4472 0)
(0.8944 0.4472 0)
(0.8944 0.4472 0)
(0.8944 0.4472 0)
(0.8944 0.4472 0)
(0.8944 0.4472 0)
(0.8944 0.4472 0)
(0.894399 0.4472 0)
(0.894398 0.4472 0)
(0.894396 0.447201 0)
(0.894393 0.447203 0)
(0.894386 0.447205 0)
(0.894376 0.44721 0)
(0.894359 0.447218 0)
(0.894334 0.447229 0)
(0.894299 0.447248 0)
(0.894255 0.447275 0)
(0.894196 0.44731 0)
(0.894122 0.447359 0)
(0.89402 0.447432 0)
(0.893863 0.447544 0)
(0.893583 0.447736 0)
(0.893062 0.448086 0)
(0.892114 0.448725 0)
(0.89046 0.449859 0)
(0.887792 0.451782 0)
(0.883981 0.45476 0)
(0.879403 0.458732 0)
(0.874988 0.463075 0)
(0.871799 0.466831 0)
(0.870529 0.469169 0)
(0.871305 0.469681 0)
(0.873816 0.468372 0)
(0.877521 0.465503 0)
(0.881823 0.461444 0)
(0.886175 0.456574 0)
(0.890107 0.451231 0)
(0.893237 0.445715 0)
(0.895281 0.440292 0)
(0.896063 0.435207 0)
(0.895528 0.430676 0)
(0.893737 0.426878 0)
(0.890868 0.423941 0)
(0.887206 0.42193 0)
(0.88311 0.420841 0)
(0.878969 0.42059 0)
(0.875148 0.421029 0)
(0.87195 0.421957 0)
(0.86958 0.423147 0)
(0.86813 0.424375 0)
(0.867568 0.42546 0)
(0.867761 0.426311 0)
(0.868519 0.426956 0)
(0.869651 0.427531 0)
(0.87102 0.428244 0)
(0.872579 0.429329 0)
(0.874406 0.431011 0)
(0.876704 0.433486 0)
(0.879761 0.436896 0)
(0.883843 0.441274 0)
(0.889058 0.44648 0)
(0.895224 0.452153 0)
(0.901821 0.457724 0)
(0.908074 0.462517 0)
(0.913144 0.46592 0)
(0.916378 0.467558 0)