/*--------------------------------*- C++ -*----------------------------------*\
  =========                 |
  \\      /  F ield         | OpenFOAM: The Open Source CFD Toolbox
   \\    /   O peration     | Website:  https://openfoam.org
    \\  /    A nd           | Version:  6
     \\/     M anipulation  |
\*---------------------------------------------------------------------------*/
FoamFile
{
    version     2.0;
    format      ascii;
    class       volScalarField;
    location    "1.48";
    object      p;
}
// * * * * * * * * * * * * * * * * * * * * * * * * * * * * * * * * * * * * * //

dimensions      [1 -1 -2 0 0 0 0];

internalField   nonuniform List<scalar> 
5625
(
1
1
1
1
1
1
1
1
1
1
1
1
1
1
1
1
1
1
1
1
1
1
1
1
1
1
1
1
1
1
1
1
1
1
1
1
1
1
1
1
1
1
1
1
1
1
1
1
1
1
1
1
1
1
1
1
1
1
1
1
1
1
1
1
1
1
1
1
1
1
1
1
1
1
1
1
1
1
1
1
1
1
1
1
1
1
1
1
1
1
1
1
1
1
1
1
1
1
1
1
1
1
1
1
1
1
1
1
1
1
1
1
1
1
1
1
1
1
1
1
1
1
1
1
1
1
1
1
1
1
1
1
1
1
1
1
1
1
1
1
1
1
1
1
1
1
1
1
1
1
1
1
1
1
1
1
1
1
1
1
1
1
1
1
1
1
1
1
1
1
1
1
1
1
1
1
1
1
1
1
1
1
1
1
1
1
1
1
1
1
1
1
1
1
1
1
1
1
1
1
1
1
1
1
1
1
1
1
1
1
1
1
1
1
1
1
1
1
1
1
1
1
1
1
1
1
1
1
1
1
1
1
1
1
1
1
1
1
1
1
1
1
1
1
1
1
1
1
1
1
1
1
1
1
1
1
1
1
1
1
1
1
1
1
1
1
1
1
1
1
1
1
1
1
1
1
1
1
1
1
1
1
1
1
1
1
1
1
1
1
1
1
1
1
1
1
1
1
1
1
1
1
1
1
1
1
1
1
1
1
1
1
1
1
1
1
1
1
1
1
1
1
1
1
1
1
1
1
1
1
1
1
1
1
1
1
1
1
1
1
1
1
1
1
1
1
1
1
1
1
1
1
1
1
1
1
1
1
1
1
1
1
1
1
1
1
1
1
1
1
1
1
1
1
1
1
1
1
1
1
1
1
1
1
1
1
1
1
1
1
1
1
1
1
1
1
1
1
1
1
1
1
1
1
1
1
1
1
1
1
1
1
1
1
1
1
1
1
1
1
1
1
1
1
1
1
1
1
1
1
1
1
1
1
1
1
1
1
1
1
1
1
1
1
1
1
1
1
1
1
1
1
1
1
1
1
1
1
1
1
1
1
1
1
1
1
1
1
1
1
1
1
1
1
1
1
1
1
1
1
1
1
1
1
1
1
1
1
1
1
1
1
1
1
1
1
1
1
1
1
1
1
1
1
1
1
1
1
1
1
1
1
1
1
1
1
1
1
1
1
1
1
1
1
1
1
1
1
1
1
1
1
1
1
1
1
1
1
1
1
1
1
1
1
1
1
1
1
1
1
1
1
1
1
1
1
1
1
1
1
1
1
1
1
1
1
1
1
1
1
1
1
1
1
1
1
1
1
1
1
1
1
1
1
1
1
1
1
1
1
1
1
1
1
1
1
1
1
1
1
1
1
0.999999
1
1
1
1
1
1
1
1
1
1
1
1
1
1
1
1
1
1
1
1
1
1
1
1
1
1
1
1
1
1
1
1
1
1
1
1
1
1
1
1
1
1
1
1
1
1
1
1
1
1
1
1
1
1
1
1
1
1
1
1
1
1
1
1
1
1
1
1
1
1
1
1
1
1
0.999999
0.999999
1
1
1
1
1
1
1
1
1
1
1
1
1
1
1
1
1
1
1
1
1
1
1
1
1
1
1
1
1
1
1
1
1
1
1
1
1
1
1
1
1
1
1
1
1
1
1
1
1
1
1
1
1
1
1
1
1
1
1
1
1
1
1
1
1
1
1
1
1
1
1
0.999999
1
0.999999
0.999999
1
1
1
1
1
1
1
1
1
1
1
1
1
1
1
1
1
1
1
1
1
1
1
1
1
1
1
1
1
1
1
1
1
1
1
1
1
1
1
1
1
1
1
1
1
1
1
1
1
1
1
1
1
1
1
1
1
1
1
1
1
1
1
1
1
1
1
1
1
1
1
0.999999
0.999999
0.999999
0.999999
0.999999
0.999999
1
1
1
1
1
1
1
1
1
1
1
1
1
1
1
1
1
1
1
1
1
1
1
1
1
1
1
1
1
1
1
1
1
1
1
1
1
1
1
1
1
1
1
1
1
1
1
1
1
1
1
1
1
1
1
1
1
1
1
1
1
1
1
1
1
1
1
1
1
0.999999
0.999999
0.999999
0.999999
0.999999
0.999999
0.999999
1
1
1
1
1
1
1
1
1
1
1
1
1
1
1
1
1
1
1
1
1
1
1
1
1
1
1
1
1
1
1
1
1
1
1
1
1
1
1
1
1
1
1
1
1
1
1
1
1
1
1
1
1
1
1
1
1
1
1
1
1
1
1
1
1
1
1
1
0.999998
0.999998
0.999998
0.999998
0.999998
0.999998
0.999999
0.999999
0.999999
1
1
1
1
1
1
1
1
1
1
1
1
1
1
1
1
1
1
1
1
1
1
1
1
1
1
1
1
1
1
1
1
1
1
1
1
1
1
1
1
1
1
1
1
1
1
1
1
1
1
1
1
1
1
1
1
1
1
1
1
1
1
1
1
1
1
0.999998
0.999998
0.999998
0.999998
0.999998
0.999998
0.999998
0.999999
0.999999
1
1
1
1
1
1
1
1
1
1
1
1
1
1
1
1
1
1
1
1
1
1
1
1
1
1
1
1
1
1
1
1
1
1
1
1
1
1
1
1
1
1
1
1
1
1
1
1
1
1
1
1
1
1
1
1
1
1
1
1
1
1
1
1
1
1
0.999997
0.999997
0.999996
0.999996
0.999997
0.999997
0.999998
0.999999
0.999999
1
1
1
1
1
1
1
1
1
1
1
1
1
1
1
1
1
1
1
1
1
1
1
1
1
1
1
1
1
1
1
1
1
1
1
1
1
1
1
1
1
1
1
1
1
1
1
1
1
1
1
1
1
1
1
1
1
1
1
1
1
1
1
1
1
1
0.999995
0.999995
0.999995
0.999995
0.999996
0.999997
0.999997
0.999998
0.999999
1
1
1
1
1
1
1
1
1
1
1
1
1
1
1
1
1
1
1
1
1
1
1
1
1
1
1
1
1
1
1
1
1
1
1
1
1
1
1
1
1
1
1
1
1
1
1
1
1
1
1
1
1
1
1
1
1
1
1
1
1
1
1
1
1
1
0.999993
0.999993
0.999993
0.999993
0.999994
0.999995
0.999996
0.999997
0.999998
1
1
1
1
1.00001
1.00001
1.00001
1.00001
1.00001
1.00001
1.00001
1.00001
1.00001
1.00001
1
1
1
1
1
1
1
1
1
1
1
1
1
1
1
1
1
1
1
1
1
1
1
1
1
1
1
1
1
1
1
1
1
1
1
1
1
1
1
1
1
1
1
1
1
1
1
1
1
1
1
1
0.999991
0.999991
0.999991
0.999991
0.999992
0.999993
0.999995
0.999996
0.999998
1
1
1
1.00001
1.00001
1.00001
1.00001
1.00001
1.00001
1.00001
1.00001
1.00001
1.00001
1.00001
1.00001
1
1
1
1
1
1
1
1
1
1
1
1
1
1
1
1
1
1
1
1
1
1
1
1
1
1
1
1
1
1
1
1
1
1
1
1
1
1
1
1
1
1
1
1
1
1
1
1
1
1
1
0.999988
0.999987
0.999988
0.999988
0.999989
0.99999
0.999993
0.999995
0.999997
0.999999
1
1.00001
1.00001
1.00001
1.00001
1.00001
1.00001
1.00001
1.00001
1.00001
1.00001
1.00001
1.00001
1.00001
1.00001
1.00001
1
1
1
1
1
1
1
1
1
1
1
1
1
1
1
1
1
1
1
1
1
1
1
1
1
1
1
1
1
1
1
1
1
1
1
1
1
1
1
1
1
1
1
1
1
1
1
1
1
0.999984
0.999983
0.999983
0.999984
0.999985
0.999987
0.99999
0.999993
0.999996
1
1
1.00001
1.00001
1.00001
1.00002
1.00002
1.00002
1.00002
1.00002
1.00002
1.00002
1.00001
1.00001
1.00001
1.00001
1.00001
1.00001
1
1
1
1
1
1
1
1
1
1
1
1
1
1
1
1
1
1
1
1
1
1
1
1
1
1
1
1
1
1
1
1
1
1
1
1
1
1
1
1
1
1
1
1
1
1
1
1
0.999978
0.999978
0.999978
0.999979
0.999981
0.999984
0.999987
0.999991
0.999996
1
1.00001
1.00001
1.00001
1.00002
1.00002
1.00002
1.00002
1.00002
1.00002
1.00002
1.00002
1.00002
1.00002
1.00001
1.00001
1.00001
1.00001
1.00001
1
1
1
1
1
1
1
1
1
1
1
1
1
1
1
1
1
1
1
1
1
1
1
1
1
1
1
1
1
1
1
1
1
1
1
1
1
1
1
1
1
1
1
1
1
1
1
0.999972
0.999971
0.999972
0.999973
0.999976
0.999979
0.999984
0.999989
0.999995
1
1.00001
1.00001
1.00002
1.00002
1.00003
1.00003
1.00003
1.00003
1.00003
1.00003
1.00003
1.00002
1.00002
1.00002
1.00002
1.00001
1.00001
1.00001
1.00001
1
1
1
1
1
1
1
1
1
1
1
1
1
1
1
1
1
1
1
1
1
1
1
1
1
1
1
1
1
1
1
1
1
1
1
1
1
1
1
1
1
1
1
1
1
1
0.999964
0.999963
0.999964
0.999966
0.999969
0.999974
0.99998
0.999987
0.999996
1
1.00001
1.00002
1.00003
1.00003
1.00004
1.00004
1.00004
1.00004
1.00004
1.00004
1.00004
1.00003
1.00003
1.00002
1.00002
1.00002
1.00001
1.00001
1.00001
1.00001
1
1
1
1
1
1
1
1
1
1
1
1
1
1
1
1
1
1
1
1
1
1
1
1
1
1
1
1
1
1
1
1
1
1
1
1
1
1
1
1
1
1
1
1
1
0.999955
0.999954
0.999955
0.999958
0.999963
0.99997
0.999978
0.999987
0.999997
1.00001
1.00002
1.00003
1.00004
1.00004
1.00005
1.00005
1.00006
1.00006
1.00005
1.00005
1.00005
1.00004
1.00004
1.00003
1.00003
1.00002
1.00002
1.00001
1.00001
1.00001
1
1
1
1
1
1
1
1
1
1
1
1
1
1
1
1
1
1
1
1
1
1
1
1
1
1
1
1
1
1
1
1
1
1
1
1
1
1
1
1
1
1
1
1
1
0.999944
0.999944
0.999946
0.99995
0.999957
0.999966
0.999977
0.999989
1
1.00002
1.00003
1.00004
1.00005
1.00006
1.00007
1.00007
1.00007
1.00007
1.00007
1.00007
1.00006
1.00006
1.00005
1.00004
1.00003
1.00003
1.00002
1.00002
1.00001
1.00001
1.00001
1
1
1
1
1
1
1
1
1
1
1
1
1
1
1
1
1
1
1
1
1
1
1
1
1
1
1
1
1
1
1
1
1
1
1
1
1
1
1
1
1
1
1
1
0.999933
0.999933
0.999937
0.999943
0.999952
0.999964
0.999978
0.999995
1.00001
1.00003
1.00005
1.00006
1.00007
1.00008
1.00009
1.0001
1.0001
1.0001
1.00009
1.00009
1.00008
1.00007
1.00006
1.00005
1.00004
1.00003
1.00003
1.00002
1.00002
1.00001
1.00001
1
1
1
1
1
1
0.999999
0.999999
0.999999
1
1
1
1
1
1
1
1
1
1
1
1
1
1
1
1
1
1
1
1
1
1
1
1
1
1
1
1
1
1
1
1
1
1
1
0.999922
0.999924
0.999929
0.999939
0.999952
0.999969
0.999987
1.00001
1.00003
1.00005
1.00007
1.00009
1.00011
1.00012
1.00013
1.00013
1.00013
1.00013
1.00012
1.00011
1.0001
1.00009
1.00008
1.00007
1.00005
1.00004
1.00003
1.00003
1.00002
1.00001
1.00001
1.00001
1
1
1
1
0.999999
0.999999
0.999999
0.999999
0.999999
0.999999
1
1
1
1
1
1
1
1
1
1
1
1
1
1
1
1
1
1
1
1
1
1
1
1
1
1
1
1
1
1
1
1
1
0.999914
0.999919
0.999927
0.999941
0.99996
0.999982
1.00001
1.00003
1.00006
1.00009
1.00012
1.00014
1.00016
1.00017
1.00018
1.00018
1.00018
1.00017
1.00016
1.00015
1.00013
1.00012
1.0001
1.00008
1.00007
1.00005
1.00004
1.00003
1.00002
1.00002
1.00001
1.00001
1
1
1
0.999999
0.999999
0.999999
0.999999
0.999999
0.999999
0.999999
0.999999
1
1
1
1
1
1
1
1
1
1
1
1
1
1
1
1
1
1
1
1
1
1
1
1
1
1
1
1
1
1
1
1
0.99991
0.999919
0.999934
0.999955
0.999982
1.00001
1.00005
1.00008
1.00012
1.00015
1.00018
1.00021
1.00023
1.00024
1.00025
1.00025
1.00024
1.00023
1.00021
1.00019
1.00017
1.00015
1.00013
1.00011
1.00009
1.00007
1.00005
1.00004
1.00003
1.00002
1.00001
1.00001
1
1
0.999999
0.999999
0.999998
0.999998
0.999998
0.999999
0.999999
0.999999
0.999999
0.999999
1
1
1
1
1
1
1
1
1
1
1
1
1
1
1
1
1
1
1
1
1
1
1
1
1
1
1
1
1
1
1
0.999917
0.999933
0.999958
0.999989
1.00003
1.00007
1.00011
1.00016
1.00021
1.00025
1.00029
1.00031
1.00033
1.00035
1.00035
1.00034
1.00033
1.00031
1.00028
1.00026
1.00022
1.00019
1.00016
1.00013
1.00011
1.00008
1.00006
1.00005
1.00003
1.00002
1.00001
1.00001
1
1
0.999999
0.999998
0.999997
0.999997
0.999998
0.999998
0.999998
0.999999
0.999999
0.999999
1
1
1
1
1
1
1
1
1
1
1
1
1
1
1
1
1
1
1
1
1
1
1
1
1
1
1
1
1
1
1
0.999941
0.99997
1.00001
1.00005
1.00011
1.00017
1.00023
1.00029
1.00035
1.0004
1.00044
1.00047
1.00049
1.0005
1.0005
1.00048
1.00045
1.00042
1.00038
1.00034
1.0003
1.00025
1.00021
1.00017
1.00014
1.00011
1.00008
1.00006
1.00004
1.00003
1.00002
1.00001
1
0.999999
0.999997
0.999996
0.999996
0.999996
0.999996
0.999997
0.999998
0.999998
0.999999
0.999999
0.999999
0.999999
1
1
1
1
1
1
1
1
1
1
1
1
1
1
1
1
1
1
1
1
1
1
1
1
1
1
1
1
1
0.999993
1.00004
1.0001
1.00017
1.00025
1.00033
1.00041
1.00049
1.00057
1.00063
1.00068
1.00071
1.00073
1.00073
1.00071
1.00068
1.00063
1.00058
1.00052
1.00045
1.00039
1.00033
1.00027
1.00022
1.00017
1.00013
1.0001
1.00007
1.00005
1.00003
1.00002
1.00001
1
0.999997
0.999995
0.999994
0.999994
0.999994
0.999995
0.999996
0.999997
0.999997
0.999998
0.999999
0.999999
0.999999
1
1
1
1
1
1
1
1
1
1
1
1
1
1
1
1
1
1
1
1
1
1
1
1
1
1
1
1
1
1.00009
1.00016
1.00025
1.00035
1.00046
1.00058
1.00069
1.0008
1.0009
1.00097
1.00103
1.00106
1.00107
1.00105
1.00101
1.00095
1.00088
1.0008
1.00071
1.00061
1.00052
1.00043
1.00035
1.00028
1.00022
1.00017
1.00012
1.00008
1.00006
1.00003
1.00002
1.00001
0.999999
0.999994
0.999992
0.999992
0.999992
0.999992
0.999993
0.999995
0.999996
0.999997
0.999997
0.999998
0.999999
0.999999
0.999999
1
1
1
1
1
1
1
1
1
1
1
1
1
1
1
1
1
1
1
1
1
1
1
1
1
1
1
1
1.00024
1.00036
1.00049
1.00064
1.0008
1.00096
1.00111
1.00126
1.00138
1.00147
1.00153
1.00156
1.00155
1.00151
1.00144
1.00135
1.00123
1.0011
1.00097
1.00083
1.0007
1.00058
1.00047
1.00037
1.00028
1.00021
1.00015
1.0001
1.00007
1.00004
1.00002
1.00001
0.999997
0.999991
0.999989
0.999988
0.999989
0.99999
0.999991
0.999993
0.999994
0.999996
0.999997
0.999998
0.999998
0.999999
0.999999
0.999999
1
1
1
1
1
1
1
1
1
1
1
1
1
1
1
1
1
1
1
1
1
1
1
1
1
1
1
1.00049
1.00066
1.00086
1.00107
1.00129
1.00151
1.00172
1.00191
1.00206
1.00218
1.00225
1.00227
1.00224
1.00216
1.00205
1.0019
1.00172
1.00153
1.00133
1.00113
1.00095
1.00077
1.00062
1.00048
1.00037
1.00027
1.00019
1.00013
1.00008
1.00005
1.00002
1
0.999993
0.999987
0.999984
0.999984
0.999985
0.999986
0.999988
0.99999
0.999993
0.999994
0.999996
0.999997
0.999998
0.999998
0.999999
0.999999
0.999999
1
1
1
1
1
1
1
1
1
1
1
1
1
1
1
1
1
1
1
1
1
1
1
1
1
1
1.00085
1.00111
1.00139
1.00169
1.002
1.0023
1.00258
1.00283
1.00302
1.00316
1.00324
1.00325
1.00318
1.00306
1.00288
1.00265
1.00239
1.00212
1.00183
1.00155
1.00129
1.00104
1.00083
1.00064
1.00048
1.00035
1.00024
1.00016
1.0001
1.00006
1.00002
1
0.999989
0.999981
0.999978
0.999978
0.99998
0.999982
0.999985
0.999988
0.99999
0.999993
0.999995
0.999996
0.999997
0.999998
0.999999
0.999999
0.999999
1
1
1
1
1
1
1
1
1
1
1
1
1
1
1
1
1
1
1
1
1
1
1
1
1
1
1.00138
1.00175
1.00215
1.00257
1.00299
1.0034
1.00377
1.00409
1.00434
1.00451
1.00459
1.00457
1.00447
1.00427
1.00401
1.00368
1.00331
1.00291
1.00251
1.00212
1.00175
1.00141
1.00111
1.00085
1.00063
1.00046
1.00032
1.00021
1.00013
1.00007
1.00003
1
0.999984
0.999975
0.999971
0.999971
0.999973
0.999977
0.99998
0.999984
0.999987
0.99999
0.999993
0.999995
0.999996
0.999997
0.999998
0.999999
0.999999
0.999999
1
1
1
1
1
1
1
1
1
1
1
1
1
1
1
1
1
1
1
1
1
1
1
1
1
1.00212
1.00264
1.00319
1.00376
1.00433
1.00487
1.00535
1.00576
1.00608
1.00628
1.00637
1.00633
1.00616
1.00589
1.00551
1.00505
1.00453
1.00398
1.00342
1.00288
1.00237
1.0019
1.00149
1.00114
1.00084
1.00061
1.00042
1.00027
1.00017
1.00009
1.00004
1
0.999979
0.999968
0.999963
0.999963
0.999966
0.999971
0.999975
0.99998
0.999984
0.999988
0.999991
0.999993
0.999995
0.999997
0.999998
0.999998
0.999999
0.999999
1
1
1
1
1
1
1
1
1
1
1
1
1
1
1
1
1
1
1
1
1
1
1
1
1
1.00313
1.00384
1.00459
1.00535
1.00609
1.00679
1.00742
1.00794
1.00833
1.00858
1.00867
1.00859
1.00836
1.00797
1.00746
1.00683
1.00613
1.00539
1.00463
1.00389
1.00319
1.00256
1.002
1.00152
1.00113
1.00081
1.00055
1.00036
1.00022
1.00012
1.00005
1
0.999974
0.999959
0.999954
0.999954
0.999958
0.999963
0.999969
0.999975
0.99998
0.999985
0.999989
0.999992
0.999994
0.999996
0.999997
0.999998
0.999999
0.999999
0.999999
1
1
1
1
1
1
1
1
1
1
1
1
1
1
1
1
1
1
1
1
1
1
1
1
1.00448
1.00542
1.0064
1.00739
1.00835
1.00924
1.01002
1.01067
1.01115
1.01144
1.01154
1.01143
1.01111
1.01061
1.00993
1.00911
1.00819
1.0072
1.00619
1.00521
1.00427
1.00343
1.00268
1.00204
1.0015
1.00108
1.00074
1.00048
1.00029
1.00016
1.00007
1.00001
0.99997
0.999951
0.999944
0.999944
0.999948
0.999955
0.999962
0.999969
0.999976
0.999982
0.999986
0.99999
0.999993
0.999995
0.999996
0.999998
0.999998
0.999999
0.999999
1
1
1
1
1
1
1
1
1
1
1
1
1
1
1
1
1
1
1
1
1
1
1
1
1.00621
1.00744
1.00871
1.00996
1.01115
1.01225
1.0132
1.01397
1.01455
1.01489
1.01499
1.01485
1.01445
1.01382
1.01297
1.01193
1.01075
1.00948
1.00817
1.00689
1.00567
1.00455
1.00356
1.00271
1.002
1.00143
1.00098
1.00064
1.00039
1.00022
1.00009
1.00002
0.999968
0.999943
0.999933
0.999932
0.999937
0.999945
0.999954
0.999963
0.999971
0.999978
0.999983
0.999988
0.999991
0.999994
0.999996
0.999997
0.999998
0.999999
0.999999
0.999999
1
1
1
1
1
1
1
1
1
1
1
1
1
1
1
1
1
1
1
1
1
1
1
1.0084
1.00995
1.01153
1.01306
1.0145
1.0158
1.01691
1.01781
1.01847
1.01886
1.01898
1.01881
1.01834
1.01759
1.01657
1.01531
1.01386
1.01227
1.01063
1.00899
1.00742
1.00598
1.00469
1.00358
1.00265
1.0019
1.00131
1.00086
1.00053
1.0003
1.00014
1.00003
0.999971
0.999937
0.999922
0.99992
0.999925
0.999934
0.999945
0.999955
0.999965
0.999973
0.99998
0.999985
0.99999
0.999993
0.999995
0.999997
0.999998
0.999999
0.999999
0.999999
1
1
1
1
1
1
1
1
1
1
1
1
1
1
1
1
1
1
1
1
1
1
1
1.01106
1.01297
1.01486
1.01667
1.01833
1.01979
1.02103
1.02201
1.02273
1.02316
1.0233
1.02313
1.02263
1.0218
1.02065
1.0192
1.01749
1.01559
1.01358
1.01155
1.00958
1.00775
1.00611
1.00468
1.00348
1.0025
1.00174
1.00115
1.00072
1.00041
1.0002
1.00006
0.999979
0.999933
0.999912
0.999907
0.999912
0.999922
0.999935
0.999947
0.999958
0.999968
0.999976
0.999983
0.999988
0.999991
0.999994
0.999996
0.999997
0.999998
0.999999
0.999999
1
1
1
1
1
1
1
1
1
1
1
1
1
1
1
1
1
1
1
1
1
1
1
1.0142
1.01645
1.01863
1.02065
1.02245
1.024
1.02527
1.02627
1.02698
1.02743
1.0276
1.02746
1.027
1.02619
1.025
1.02344
1.02154
1.01937
1.01701
1.01458
1.01218
1.00991
1.00785
1.00604
1.00452
1.00327
1.00228
1.00152
1.00096
1.00056
1.00029
1.00011
0.999996
0.999933
0.999904
0.999896
0.999899
0.99991
0.999924
0.999938
0.999951
0.999963
0.999972
0.99998
0.999985
0.99999
0.999993
0.999995
0.999997
0.999998
0.999999
0.999999
0.999999
1
1
1
1
1
1
1
1
1
1
1
1
1
1
1
1
1
1
1
1
1
1
1.01777
1.02031
1.02267
1.02478
1.02657
1.02802
1.02917
1.03004
1.03066
1.03107
1.03127
1.03125
1.03094
1.0303
1.02924
1.02775
1.02581
1.02347
1.02084
1.01804
1.0152
1.01247
1.00995
1.00771
1.0058
1.00422
1.00297
1.002
1.00128
1.00076
1.00041
1.00017
1.00002
0.99994
0.999898
0.999885
0.999886
0.999897
0.999912
0.999928
0.999943
0.999957
0.999968
0.999976
0.999983
0.999988
0.999992
0.999995
0.999996
0.999998
0.999999
0.999999
0.999999
1
1
1
1
1
1
1
1
1
1
1
1
1
1
1
1
1
1
1
1
1
1
1.02163
1.02432
1.02669
1.02864
1.03015
1.03126
1.03203
1.03255
1.03293
1.03322
1.03347
1.03365
1.03367
1.03342
1.03277
1.03162
1.0299
1.02763
1.02488
1.02182
1.0186
1.01541
1.0124
1.00968
1.00734
1.00538
1.00381
1.00259
1.00168
1.00102
1.00056
1.00026
1.00007
0.999956
0.999898
0.999876
0.999874
0.999885
0.999901
0.999918
0.999935
0.99995
0.999962
0.999973
0.99998
0.999986
0.999991
0.999994
0.999996
0.999997
0.999998
0.999999
0.999999
1
1
1
1
1
1
1
1
1
1
1
1
1
1
1
1
1
1
1
1
1
1
1.02556
1.02817
1.03023
1.03167
1.03251
1.03287
1.03289
1.03277
1.03268
1.03275
1.03306
1.03356
1.03414
1.03462
1.03477
1.03437
1.03327
1.03141
1.02885
1.02572
1.02225
1.01867
1.01519
1.01197
1.00915
1.00676
1.00483
1.00332
1.00218
1.00135
1.00077
1.00038
1.00013
0.999982
0.999904
0.99987
0.999864
0.999873
0.999889
0.999908
0.999927
0.999944
0.999958
0.999969
0.999978
0.999984
0.999989
0.999993
0.999995
0.999997
0.999998
0.999999
0.999999
1
1
1
1
1
1
1
1
1
1
1
1
1
1
1
1
1
1
1
1
1
1
1.02923
1.03138
1.03267
1.03309
1.03273
1.03181
1.0306
1.02944
1.0286
1.0283
1.02866
1.02965
1.0311
1.03273
1.03418
1.0351
1.03518
1.03425
1.0323
1.02945
1.02596
1.02213
1.01824
1.01455
1.01123
1.00838
1.00604
1.00419
1.00278
1.00175
1.00102
1.00053
1.00021
1.00002
0.999918
0.999869
0.999856
0.999862
0.999878
0.999898
0.999919
0.999937
0.999952
0.999965
0.999975
0.999982
0.999988
0.999992
0.999994
0.999996
0.999998
0.999999
0.999999
0.999999
1
1
1
1
1
1
1
1
1
1
1
1
1
1
1
1
1
1
1
1
1
1.03218
1.03335
1.03327
1.03199
1.02974
1.02687
1.02385
1.02116
1.01923
1.01839
1.01881
1.02046
1.02313
1.02642
1.0298
1.03273
1.03472
1.0354
1.03467
1.0326
1.02946
1.02562
1.02147
1.01736
1.01355
1.01022
1.00744
1.00521
1.0035
1.00223
1.00134
1.00072
1.00032
1.00008
0.999942
0.999875
0.999852
0.999853
0.999868
0.999889
0.99991
0.99993
0.999947
0.999961
0.999972
0.99998
0.999986
0.999991
0.999994
0.999996
0.999997
0.999998
0.999999
0.999999
1
1
1
1
1
1
1
1
1
1
1
1
1
1
1
1
1
1
1
1
1
1.03387
1.03338
1.03115
1.02736
1.02239
1.01682
1.01132
1.00657
1.00318
1.00162
1.0021
1.00462
1.00889
1.01438
1.0204
1.02616
1.0309
1.03405
1.0353
1.03465
1.03237
1.02888
1.0247
1.02031
1.01607
1.01226
1.00902
1.00639
1.00434
1.00281
1.00171
1.00096
1.00046
1.00016
0.999979
0.999888
0.999851
0.999847
0.999859
0.99988
0.999902
0.999924
0.999942
0.999957
0.999969
0.999979
0.999985
0.99999
0.999993
0.999996
0.999997
0.999998
0.999999
0.999999
1
1
1
1
1
1
1
1
1
1
1
1
1
1
1
1
1
1
1
1
1
1.03366
1.03069
1.02542
1.01819
1.00962
1.00053
0.991857
0.984522
0.979324
0.976847
0.977401
0.98097
0.987219
0.99549
1.00487
1.01431
1.02276
1.02933
1.03348
1.03505
1.03427
1.03162
1.02775
1.02327
1.01871
1.01447
1.01077
1.00771
1.0053
1.00348
1.00216
1.00124
1.00064
1.00025
1.00003
0.99991
0.999857
0.999844
0.999854
0.999873
0.999896
0.999918
0.999938
0.999954
0.999966
0.999976
0.999984
0.999989
0.999993
0.999995
0.999997
0.999998
0.999999
0.999999
1
1
1
1
1
1
1
1
1
1
1
1
1
1
1
1
1
1
1
1
1
1.03093
1.02456
1.01528
1.00364
0.990558
0.977165
0.964689
0.954292
0.946968
0.943427
0.944052
0.948838
0.957402
0.968958
0.98239
0.996357
1.00946
1.02047
1.02851
1.03322
1.03471
1.03351
1.03037
1.02609
1.02138
1.01678
1.01265
1.00916
1.00637
1.00423
1.00267
1.00158
1.00084
1.00038
1.0001
0.999941
0.999868
0.999846
0.99985
0.999867
0.99989
0.999913
0.999933
0.99995
0.999964
0.999975
0.999982
0.999988
0.999992
0.999995
0.999997
0.999998
0.999999
0.999999
0.999999
1
1
1
1
1
1
1
1
1
1
1
1
1
1
1
1
1
1
1
1
1.02512
1.01439
1.0001
0.983129
0.964721
0.946354
0.929558
0.915737
0.906054
0.901334
0.902023
0.90814
0.919261
0.934504
0.95256
0.971797
0.990456
1.00689
1.01985
1.02866
1.03328
1.03421
1.03233
1.0286
1.02396
1.01913
1.01462
1.01072
1.00754
1.00507
1.00325
1.00196
1.00109
1.00052
1.00018
0.999985
0.999889
0.999852
0.99985
0.999865
0.999886
0.999909
0.99993
0.999948
0.999962
0.999973
0.999981
0.999987
0.999992
0.999995
0.999997
0.999998
0.999999
0.999999
0.999999
1
1
1
1
1
1
1
1
1
1
1
1
1
1
1
1
1
1
1
1
1.01582
0.999785
0.979597
0.956489
0.932106
0.90828
0.886834
0.86938
0.857213
0.851249
0.85198
0.859464
0.873264
0.892433
0.915506
0.940586
0.965543
0.988289
1.00712
1.02099
1.02961
1.03343
1.03337
1.03062
1.02632
1.02143
1.01663
1.01235
1.00879
1.00599
1.00389
1.00239
1.00136
1.00069
1.00028
1.00004
0.999917
0.999864
0.999853
0.999863
0.999883
0.999906
0.999927
0.999946
0.999961
0.999972
0.99998
0.999986
0.999991
0.999994
0.999996
0.999998
0.999999
0.999999
0.999999
1
1
1
1
1
1
1
1
1
1
1
1
1
1
1
1
1
1
1
1
1.00284
0.980666
0.953843
0.924012
0.893245
0.863722
0.83752
0.816407
0.801753
0.79453
0.795269
0.804071
0.820523
0.843657
0.87191
0.903163
0.934935
0.964686
0.990211
1.01001
1.02348
1.03093
1.03332
1.032
1.02836
1.0236
1.01862
1.01402
1.0101
1.00696
1.00458
1.00286
1.00167
1.00089
1.0004
1.00011
0.999953
0.999882
0.99986
0.999866
0.999883
0.999905
0.999926
0.999944
0.999959
0.999971
0.99998
0.999986
0.999991
0.999994
0.999996
0.999998
0.999999
0.999999
0.999999
1
1
1
1
1
1
1
1
1
1
1
1
1
1
1
1
1
1
1
1
0.98624
0.95729
0.923328
0.886459
0.849183
0.814005
0.78318
0.758565
0.741549
0.733114
0.733815
0.743807
0.762731
0.789659
0.822991
0.860458
0.899279
0.936469
0.9693
0.995753
1.01483
1.0266
1.03204
1.03261
1.02996
1.02556
1.02054
1.01569
1.01144
1.00798
1.00531
1.00337
1.00201
1.0011
1.00053
1.00019
0.999998
0.999906
0.999873
0.999872
0.999885
0.999905
0.999926
0.999944
0.999959
0.99997
0.999979
0.999986
0.999991
0.999994
0.999996
0.999998
0.999998
0.999999
0.999999
1
1
1
1
1
1
1
1
1
1
1
1
1
1
1
1
1
1
1
1
0.966382
0.930251
0.888922
0.845001
0.801389
0.760862
0.725777
0.697995
0.678863
0.669327
0.669952
0.680944
0.702032
0.732378
0.770426
0.813842
0.859619
0.904376
0.944854
0.978471
1.00374
1.02045
1.02947
1.03239
1.03106
1.02724
1.02233
1.01731
1.01278
1.00901
1.00607
1.0039
1.00237
1.00134
1.00068
1.00028
1.00005
0.999937
0.99989
0.99988
0.999889
0.999907
0.999926
0.999944
0.999959
0.99997
0.999979
0.999986
0.999991
0.999994
0.999996
0.999997
0.999998
0.999999
0.999999
1
1
1
1
1
1
1
1
1
1
1
1
1
1
1
1
1
1
1
1
0.943886
0.900433
0.851805
0.801107
0.751606
0.706272
0.667479
0.637009
0.616111
0.605652
0.606187
0.61796
0.640808
0.674032
0.7162
0.765011
0.817331
0.869454
0.917614
0.958643
0.990509
1.01261
1.02566
1.03131
1.03161
1.0286
1.02394
1.01885
1.0141
1.01005
1.00685
1.00445
1.00274
1.00159
1.00084
1.00038
1.00011
0.999974
0.999911
0.999893
0.999897
0.999911
0.999928
0.999945
0.99996
0.999971
0.99998
0.999986
0.999991
0.999994
0.999996
0.999997
0.999998
0.999999
0.999999
1
1
1
1
1
1
1
1
1
1
1
1
1
1
1
1
1
1
1
1
0.919575
0.868938
0.81335
0.756408
0.701683
0.652255
0.610436
0.577855
0.555614
0.544468
0.544925
0.557255
0.581409
0.616869
0.662398
0.715827
0.774002
0.832977
0.888543
0.936947
0.975567
1.00334
1.02075
1.02943
1.03162
1.02961
1.02535
1.02028
1.01535
1.01107
1.00762
1.00501
1.00313
1.00185
1.00101
1.00049
1.00018
1.00002
0.999937
0.999909
0.999907
0.999918
0.999933
0.999948
0.999961
0.999972
0.99998
0.999986
0.999991
0.999994
0.999996
0.999998
0.999998
0.999999
0.999999
1
1
1
1
1
1
1
1
1
1
1
1
1
1
1
1
1
1
1
1
0.894424
0.836987
0.775013
0.712548
0.653404
0.600686
0.55658
0.522505
0.499375
0.487799
0.48821
0.500886
0.52589
0.562911
0.61097
0.668113
0.731261
0.796335
0.858753
0.914215
0.959494
0.993012
1.01494
1.02687
1.03114
1.03029
1.02653
1.02158
1.01653
1.01204
1.00837
1.00556
1.00352
1.00211
1.00118
1.0006
1.00026
1.00006
0.999967
0.999929
0.999919
0.999925
0.999938
0.999951
0.999964
0.999974
0.999981
0.999987
0.999991
0.999994
0.999996
0.999998
0.999999
0.999999
0.999999
1
1
1
1
1
1
1
1
1
1
1
1
1
1
1
1
1
1
1
1
0.869464
0.805825
0.738207
0.671052
0.608351
0.553156
0.507477
0.472499
0.448908
0.437151
0.43755
0.450379
0.475811
0.513757
0.563536
0.623467
0.69063
0.7609
0.829409
0.89137
0.942971
0.982093
1.00855
1.02378
1.03024
1.03065
1.0275
1.02272
1.01762
1.01295
1.00909
1.00609
1.0039
1.00237
1.00136
1.00072
1.00033
1.00011
1
0.99995
0.999934
0.999936
0.999945
0.999956
0.999967
0.999976
0.999983
0.999988
0.999992
0.999995
0.999997
0.999998
0.999999
0.999999
0.999999
1
1
1
1
1
1
1
1
1
1
1
1
1
1
1
1
1
1
1
1
0.845723
0.776636
0.704217
0.633236
0.567809
0.510886
0.464266
0.428881
0.405187
0.393444
0.393854
0.406673
0.432178
0.470506
0.52129
0.58316
0.653403
0.727915
0.801629
0.86935
0.926726
0.971103
1.0019
1.02039
1.02904
1.03075
1.02826
1.0237
1.01859
1.01379
1.00975
1.00659
1.00426
1.00263
1.00154
1.00084
1.00041
1.00017
1.00004
0.999976
0.999951
0.999948
0.999953
0.999962
0.999971
0.999979
0.999985
0.999989
0.999993
0.999995
0.999997
0.999998
0.999999
0.999999
1
1
1
1
1
1
1
1
1
1
1
1
1
1
1
1
1
1
1
1
1
0.824147
0.750467
0.674128
0.600158
0.532743
0.474717
0.42765
0.392233
0.368687
0.357084
0.357508
0.370189
0.395499
0.433795
0.485014
0.548107
0.62059
0.698428
0.776422
0.849047
0.911484
0.960588
0.995382
1.01692
1.02767
1.03066
1.02883
1.02453
1.01943
1.01454
1.01035
1.00705
1.0046
1.00287
1.0017
1.00095
1.00049
1.00022
1.00008
1
0.99997
0.999961
0.999963
0.999968
0.999975
0.999982
0.999987
0.999991
0.999994
0.999996
0.999998
0.999998
0.999999
0.999999
1
1
1
1
1
1
1
1
1
1
1
1
1
1
1
1
1
1
1
1
1
0.805559
0.728197
0.648804
0.572605
0.503814
0.445152
0.39798
0.362759
0.339499
0.328095
0.32852
0.340982
0.365927
0.403913
0.455158
0.518915
0.592934
0.673269
0.754634
0.831252
0.897925
0.951076
0.989364
1.01362
1.02627
1.03045
1.02925
1.02521
1.02015
1.01518
1.01088
1.00746
1.0049
1.00309
1.00186
1.00107
1.00057
1.00028
1.00012
1.00003
0.999991
0.999976
0.999973
0.999975
0.99998
0.999985
0.999989
0.999992
0.999995
0.999997
0.999998
0.999999
0.999999
0.999999
1
1
1
1
1
1
1
1
1
1
1
1
1
1
1
1
1
1
1
1
1
0.790619
0.710502
0.628881
0.551119
0.481432
0.422441
0.375349
0.340419
0.317484
0.306281
0.306698
0.318907
0.343418
0.380947
0.431959
0.495978
0.570963
0.653061
0.736937
0.816628
0.886638
0.943049
0.984206
1.01074
1.025
1.0302
1.02955
1.02575
1.02073
1.01571
1.01132
1.00781
1.00517
1.00329
1.002
1.00117
1.00065
1.00034
1.00016
1.00006
1.00001
0.999991
0.999984
0.999984
0.999986
0.999989
0.999992
0.999995
0.999996
0.999998
0.999999
0.999999
0.999999
0.999999
1
1
1
1
1
1
1
1
1
1
1
1
1
1
1
1
1
1
1
1
1
0.779806
0.697864
0.614791
0.536034
0.465809
0.40667
0.35971
0.325058
0.302403
0.291372
0.291776
0.303757
0.327856
0.3649
0.415551
0.479553
0.555051
0.63827
0.723847
0.805694
0.878105
0.936911
0.980215
1.00848
1.02399
1.02998
1.02977
1.02616
1.02118
1.01612
1.01167
1.00809
1.00538
1.00345
1.00213
1.00126
1.00072
1.00039
1.0002
1.00009
1.00003
1.00001
0.999996
0.999992
0.999992
0.999994
0.999995
0.999996
0.999997
0.999998
0.999999
0.999999
1
1
1
1
1
1
1
1
1
1
1
1
1
1
1
1
1
1
1
1
1
1
1
0.773427
0.690559
0.606768
0.527521
0.45703
0.397831
0.350965
0.316494
0.294026
0.283117
0.283519
0.295343
0.319128
0.355757
0.40602
0.469832
0.545473
0.629234
0.715742
0.798832
0.872681
0.932966
0.977629
1.007
1.02333
1.02985
1.02992
1.02644
1.02149
1.01641
1.01192
1.00829
1.00555
1.00358
1.00223
1.00134
1.00078
1.00044
1.00023
1.00012
1.00006
1.00002
1.00001
1
0.999998
0.999998
0.999998
0.999999
0.999999
0.999999
1
1
1
1
1
1
1
1
1
1
1
1
1
1
1
1
1
1
1
1
1
1
1
1
1
0.771616
0.688692
0.604882
0.52561
0.455086
0.395868
0.349015
0.314595
0.292196
0.281351
0.281778
0.293547
0.317165
0.353516
0.40344
0.46695
0.542415
0.626177
0.712863
0.796291
0.870602
0.931415
0.976603
1.00644
1.0231
1.02984
1.03004
1.0266
1.02166
1.01658
1.01206
1.00842
1.00565
1.00367
1.00231
1.00141
1.00083
1.00048
1.00027
1.00015
1.00008
1.00004
1.00002
1.00001
1
1
1
1
1
1
1
1
1
1
1
1
1
1
1
1
1
1
1
1
1
1
1
1
1
1
1
1
1
1
1
0.774355
0.692199
0.609048
0.530213
0.459893
0.400704
0.353789
0.319293
0.296849
0.286018
0.286505
0.298333
0.321952
0.358189
0.407862
0.470992
0.545983
0.629205
0.715318
0.798173
0.871962
0.932344
0.977208
1.00681
1.02333
1.02998
1.03012
1.02665
1.0217
1.01661
1.0121
1.00846
1.0057
1.00372
1.00236
1.00146
1.00088
1.00052
1.0003
1.00017
1.0001
1.00006
1.00003
1.00002
1.00001
1.00001
1
1
1
1
1
1
1
1
1
1
1
1
1
1
1
1
1
1
1
1
1
1
1
1
1
1
1
1
1
0.781506
0.700896
0.619059
0.541137
0.471299
0.412235
0.365235
0.330576
0.308008
0.297161
0.29775
0.309752
0.333525
0.369797
0.419294
0.481963
0.556172
0.638302
0.723069
0.804432
0.876717
0.935716
0.979416
1.00812
1.02401
1.03024
1.03015
1.02657
1.02158
1.0165
1.01203
1.00842
1.00569
1.00373
1.00238
1.00149
1.00091
1.00055
1.00033
1.0002
1.00012
1.00007
1.00004
1.00003
1.00002
1.00001
1.00001
1
1
1
1
1
1
1
1
1
1
1
1
1
1
1
1
1
1
1
1
1
1
1
1
1
1
1
1
0.792826
0.714502
0.634612
0.558105
0.489088
0.430335
0.383307
0.348477
0.325763
0.314904
0.315644
0.32791
0.35195
0.388355
0.437694
0.499769
0.572844
0.653292
0.735924
0.814868
0.884678
0.941369
0.983102
1.01027
1.02507
1.0306
1.03011
1.02635
1.02132
1.01627
1.01185
1.0083
1.00562
1.0037
1.00238
1.0015
1.00093
1.00057
1.00035
1.00022
1.00013
1.00008
1.00005
1.00004
1.00002
1.00002
1.00001
1.00001
1
1
1
1
1
1
1
1
1
1
1
1
1
1
1
1
1
1
1
1
1
1
1
1
1
1
1
0.807979
0.732658
0.655338
0.580777
0.512989
0.45483
0.407945
0.373036
0.350234
0.339413
0.340356
0.352941
0.377295
0.413841
0.462943
0.524192
0.595705
0.67383
0.753508
0.829118
0.895518
0.949031
0.988052
1.01311
1.02641
1.03099
1.02998
1.02599
1.02091
1.0159
1.01156
1.00809
1.00549
1.00363
1.00235
1.00149
1.00094
1.00059
1.00037
1.00023
1.00015
1.0001
1.00006
1.00004
1.00003
1.00002
1.00001
1.00001
1.00001
1
1
1
1
1
1
1
1
1
1
1
1
1
1
1
1
1
1
1
1
1
1
1
1
1
1
0.826511
0.754919
0.680822
0.608766
0.542688
0.485509
0.439052
0.40427
0.381523
0.370834
0.372033
0.384938
0.409559
0.446139
0.494801
0.554873
0.624289
0.699385
0.775277
0.846659
0.908774
0.958319
0.993978
1.01644
1.02791
1.03134
1.02971
1.02546
1.02033
1.01539
1.01116
1.00781
1.00531
1.00352
1.00229
1.00147
1.00094
1.0006
1.00038
1.00025
1.00016
1.00011
1.00007
1.00005
1.00003
1.00002
1.00002
1.00001
1.00001
1
1
1
1
1
1
1
1
1
1
1
1
1
1
1
1
1
1
1
1
1
1
1
1
1
1
0.847845
0.780714
0.710534
0.641615
0.577805
0.522081
0.476454
0.442112
0.419641
0.409212
0.410692
0.423853
0.44859
0.484964
0.53283
0.591234
0.657921
0.72923
0.800501
0.866814
0.923862
0.968763
1.00053
1.02
1.0294
1.03157
1.02926
1.02475
1.01961
1.01477
1.01068
1.00747
1.00508
1.00338
1.00221
1.00143
1.00092
1.0006
1.00039
1.00026
1.00017
1.00012
1.00008
1.00005
1.00004
1.00003
1.00002
1.00001
1.00001
1
1
1
1
1
1
1
1
1
1
1
1
1
1
1
1
1
1
1
1
1
1
1
1
1
1
)
;

boundaryField
{
    emptyPatches_empt
    {
        type            empty;
    }
    top_cyc
    {
        type            cyclic;
    }
    bottom_cyc
    {
        type            cyclic;
    }
    inlet_cyc
    {
        type            cyclic;
    }
    outlet_cyc
    {
        type            cyclic;
    }
    procBoundary3to1
    {
        type            processor;
        value           nonuniform List<scalar> 
75
(
0.871246
0.809327
0.743792
0.678707
0.61782