/*--------------------------------*- C++ -*----------------------------------*\
  =========                 |
  \\      /  F ield         | OpenFOAM: The Open Source CFD Toolbox
   \\    /   O peration     | Website:  https://openfoam.org
    \\  /    A nd           | Version:  6
     \\/     M anipulation  |
\*---------------------------------------------------------------------------*/
FoamFile
{
    version     2.0;
    format      ascii;
    class       volScalarField;
    location    "2.46";
    object      p;
}
// * * * * * * * * * * * * * * * * * * * * * * * * * * * * * * * * * * * * * //

dimensions      [1 -1 -2 0 0 0 0];

internalField   nonuniform List<scalar> 
22500
(
1
1
1
1
1
1
1
1
1
1
1
1
1
1
1
1
1
1
1
1
1
1
1
1
1
1
1
1
1
1
1
1
1
1
1
1
1
1
1
1
1
1
1
1
1
1
1
1
1
1
1
1
1
1
1
1
1
1
1
1
1
1
1
1
1
1
1
1
1
1
1
1
1
1
1
1
1
1
1
1
1
1
1
1
1
1
1
1
1
1
1
1
1
1
1
1
1
1
1
1
1
0.999999
0.999999
1
1
0.999999
0.999999
0.999999
0.999999
1
1
1
1
1
1
1
1
1
1
1
1
1
1
1
1
1
1
1
1
1
1
1
1
1
1
1
1
1
1
1
1
1
1
1
1
1
1
1
1
1
1
1
1
1
1
1
1
1
1
1
1
1
1
1
1
1
1
1
1
1
1
1
1
1
1
1
1
1
1
1
1
1
1
1
1
1
1
1
1
1
1
1
1
1
1
1
1
1
1
1
1
1
1
1
1
1
1
1
1
1
1
1
1
1
1
1
1
1
1
1
1
1
1
1
1
1
1
1
1
1
0.999999
1
1
1
1
1
1
1
1
1
1
1
1
1
1
1
1
1
0.999999
0.999999
0.999999
0.999999
0.999999
0.999999
0.999999
0.999999
0.999999
0.999999
0.999999
0.999999
1
1
1
1
1
1
1
1
1
1
1
1
1
1
1
1
1
1
1
1
1
1
1
1
1
1
1
1
1
1
1
1
1
1
1
1
1
1
1
1
1
1
1
1
1
1
1
1
1
1
1
1
1
1
1
1
1
1
1
1
1
1
1
1
1
1
1
1
1
1
1
1
1
1
1
1
1
1
1
1
1
1
1
1
1
1
1
1
1
1
1
1
1
1
1
1
1
1
1
1
1
1
1
1
1
1
1
1
1
1
1
1
1
0.999999
1
0.999999
1
0.999999
1
1
1
1
1
1
1
1
1
1
1
1
1
1
1
1
1
1
1
1
1
1
1
0.999999
0.999999
0.999999
0.999999
0.999999
0.999999
0.999999
0.999999
0.999999
0.999999
1
1
1
1
1
1
1
1
1
1
1
1
1
1
1
1
1
1
1
1
1
1
1
1
1
1
1
1
1
1
1
1
1
1
1
1
1
1
1
1
1
1
1
1
1
1
1
1
1
1
1
1
1
1
1
1
1
1
1
1
1
1
1
1
1
1
1
1
1
1
1
1
1
1
1
1
1
1
1
1
1
1
1
1
1
1
1
1
1
1
1
1
1
1
1
1
1
1
1
1
1
1
1
1
1
1
1
1
1
1
1
1
1
1
1
0.999999
0.999999
0.999999
1
1
1
1
1
1
1
1
1
1
1
1
1
1
1
1
1
1
1
0.999999
0.999999
0.999999
0.999999
0.999999
0.999999
0.999998
0.999998
0.999998
0.999998
0.999999
0.999999
0.999999
1
1
1
1
1
1
1
1
1
1
1
1
1
1
1
1
1
1
1
1
1
1
1
1
1
1
1
1
1
1
1
1
1
1
1
1
1
1
1
1
1
1
1
1
1
1
1
1
1
1
1
1
1
1
1
1
1
1
1
1
1
1
1
1
1
1
1
1
1
1
1
1
1
1
1
1
1
1
1
1
1
1
1
1
1
1
1
1
1
1
1
1
1
1
1
1
1
1
1
1
1
1
1
1
1
1
1
1
1
1
1
1
0.999999
0.999999
0.999999
0.999999
0.999999
0.999999
0.999999
0.999999
1
1
1
1
1
1
1
1
1
1
1
1
1
1
1
1
1
0.999999
0.999999
0.999999
0.999998
0.999998
0.999999
0.999998
0.999998
0.999998
0.999998
0.999998
0.999999
0.999999
0.999999
1
1
1
1
1
1
1
1
1
1
1
1
1
1
1
1
1
1
1
1
1
1
1
1
1
1
1
1
1
1
1
1
1
1
1
1
1
1
1
1
1
1
1
1
1
1
1
1
1
1
1
1
1
1
1
1
1
1
1
1
1
1
1
1
1
1
1
1
1
1
1
1
1
1
1
1
1
1
1
1
1
1
1
1
1
1
1
1
1
1
1
1
1
1
1
1
1
1
1
1
1
1
1
1
1
1
1
1
1
0.999999
0.999999
0.999999
0.999999
0.999999
0.999999
0.999999
0.999999
0.999999
0.999999
1
1
1
1
1
1
1
1
1
1
1
1
1
1
1
1
0.999999
0.999999
0.999998
0.999998
0.999998
0.999998
0.999998
0.999998
0.999998
0.999998
0.999998
0.999998
0.999998
0.999999
0.999999
0.999999
1
1
1
1
1
1
1
1
1
1
1
1
1
1
1
1
1
1
1
1
1
1
1
1
1
1
1
1
1
1
1
1
1
1
1
1
1
1
1
1
1
1
1
1
1
1
1
1
1
1
1
1
1
1
1
1
1
1
1
1
1
1
1
1
1
1
1
1
1
1
1
1
1
1
1
1
1
1
1
1
1
1
1
1
1
1
1
1
1
1
1
1
1
1
1
1
1
1
1
1
1
1
1
1
1
1
1
0.999999
0.999999
0.999999
0.999999
0.999999
0.999999
0.999999
0.999999
0.999999
0.999999
0.999999
1
1
1
1
1
1
1
1
1
1
1
1
1
1
1
0.999999
0.999999
0.999998
0.999997
0.999997
0.999997
0.999997
0.999998
0.999998
0.999998
0.999998
0.999998
0.999998
0.999998
0.999998
0.999999
0.999999
1
1
1
1
1
1
1
1
1
1
1
1
1
1
1
1
1
1
1
1
1
1
1
1
1
1
1
1
1
1
1
1
1
1
1
1
1
1
1
1
1
1
1
1
1
1
1
1
1
1
1
1
1
1
1
1
1
1
1
1
1
1
1
1
1
1
0.999999
1
1
1
1
0.999999
1
1
1
1
1
1
1
1
1
1
1
1
0.999999
1
1
1
1
1
1
1
1
1
1
1
1
1
1
1
1
1
1
1
1
1
1
0.999999
0.999999
0.999999
0.999999
0.999998
0.999998
0.999998
0.999998
0.999998
0.999999
0.999999
1
1
1
1
1
1
1
1
1
1
1
1
1
1
1
0.999999
0.999998
0.999997
0.999996
0.999996
0.999996
0.999996
0.999996
0.999997
0.999998
0.999998
0.999997
0.999997
0.999997
0.999998
0.999998
0.999999
0.999999
1
1
1
1
1
1
1
1
1
1
1
1
1
1
1
1
1
1
1
1
1
1
1
1
1
1
1
1
1
1
1
1
1
1
1
1
1
1
1
1
1
1
1
1
1
1
1
1
1
1
1
1
1
1
1
1
1
1
1
1
1
1
1
0.999999
1
0.999998
1
1
0.999999
1
0.999999
1
1
0.999999
1
1
1
1
1
1
1
1
1
1
1
1
1
1
1
1
1
1
1
1
1
1
1
1
1
1
1
1
1
1
1
1
1
0.999999
0.999999
0.999999
0.999998
0.999998
0.999998
0.999998
0.999998
0.999998
0.999999
1
1
1
1
1
1
1.00001
1.00001
1.00001
1
1
1
1
1
1
0.999999
0.999997
0.999996
0.999995
0.999994
0.999994
0.999993
0.999994
0.999997
0.999998
0.999998
0.999997
0.999997
0.999997
0.999997
0.999998
0.999999
0.999999
1
1
1
1
1
1
1
1
1
1
1
1
1
1
1
1
1
1
1
1
1
1
1
1
1
1
1
1
1
1
1
1
1
1
1
1
1
1
1
1
1
1
1
1
1
1
1
1
1
1
1
1
1
1
1
1
1
1
0.999999
1
1
0.999999
1
0.999998
1
0.999999
1
1
0.999999
1
1
0.999998
1
1
0.999999
1
0.999999
0.999999
1
0.999999
1
1
1
1
1
1
1
0.999999
1
1
1
1
1
1
1
1
1
1
1
1
1
1
1
1
1
1
1
0.999999
0.999998
0.999998
0.999998
0.999997
0.999998
0.999997
0.999998
0.999998
0.999999
1
1
1
1
1
1.00001
1.00001
1.00001
1.00001
1.00001
1.00001
1
1
1
1
0.999998
0.999996
0.999996
0.999995
0.999993
0.999992
0.999991
0.999992
0.999995
0.999997
0.999998
0.999998
0.999997
0.999996
0.999996
0.999998
0.999998
0.999999
1
1
1
1
1
1
1
1
1
1
1
1
1
1
1
1
1
1
1
1
1
1
1
1
1
1
1
1
1
1
1
1
1
1
1
1
1
1
1
1
1
1
1
1
1
1
1
1
1
1
1
1
1
1
1
1
1
1
1
0.999999
1
0.999999
0.999999
1
0.999997
1
0.999999
0.999998
1
0.999996
1
1
0.999996
1
0.999998
0.999999
1
0.999998
1
1
0.999999
1
1
1
0.999999
1
1
0.999998
1
1
1
1
0.999999
1
1
1
1
1
1
1
1
1
1
1
1
1
1
0.999999
0.999998
0.999998
0.999997
0.999997
0.999997
0.999997
0.999997
0.999997
0.999998
1
1
1
1
1.00001
1.00001
1.00001
1.00001
1.00001
1.00001
1.00001
1
1
1
1
0.999997
0.999994
0.999996
0.999995
0.999993
0.999993
0.999991
0.999988
0.99999
0.999996
0.999999
0.999999
0.999997
0.999996
0.999996
0.999997
0.999998
0.999998
1
1
1
1
1
1
1
0.999999
1
1
1
1
1
1
1
1
1
1
1
1
1
1
1
1
1
1
1
1
1
1
1
1
1
1
1
1
1
1
1
1
1
1
1
1
1
1
1
1
1
1
1
1
1
1
1
1
1
0.999998
1
0.999998
1
1
0.999991
1.00001
0.999992
1
1.00001
0.999988
1.00001
1
0.999992
1.00001
0.999995
0.999998
1.00001
0.999995
1
1
0.999998
1
1
0.999999
1
1
0.999999
1
1
0.999998
0.999999
1
1
0.999999
1
1
1
1
1
1
1
1
1
1
1
1
1
1
1
0.999999
0.999998
0.999997
0.999997
0.999996
0.999996
0.999996
0.999996
0.999997
0.999997
0.999999
1
1
1.00001
1.00001
1.00001
1.00001
1.00001
1.00001
1.00001
1.00001
1.00001
1
1
0.999998
0.999995
0.999992
0.999994
0.999994
0.999992
0.999998
0.999995
0.999981
0.99998
0.999993
1
1
0.999995
0.999996
0.999997
0.999994
0.999995
1
1
0.999997
1
1
0.999998
1
1
1
1
0.999999
1
1
1
1
1
1
1
1
1
1
1
1
1
1
1
1
1
1
1
1
1
1
1
1
1
1
1
1
1
1
1
1
1
1
1
1
1
1
1
1
1
1
1
1
1
0.999999
1
0.999998
1
1
0.999996
1.00001
0.999994
1
1.00001
0.99999
1.00001
0.999999
0.999991
1.00001
0.99999
0.999999
1.00001
0.999987
1.00001
1
0.999992
1.00001
1
0.999996
1
1
0.999997
1
1
0.999999
1
1
0.999999
1
1
0.999998
1
1
1
1
1
1
1
1
1
1
1
1
1
1
1
0.999999
0.999998
0.999998
0.999997
0.999996
0.999995
0.999995
0.999995
0.999996
0.999997
0.999998
1
1
1.00001
1.00001
1.00001
1.00001
1.00001
1.00001
1.00001
1.00001
1.00001
1
1
0.999995
0.999995
0.99999
0.99999
0.999992
0.999988
1
1
0.999982
0.999968
0.999983
1
1.00001
0.999999
0.999994
0.999993
0.999995
0.999997
0.999999
0.999999
1
1
0.999997
1
1
0.999998
1
0.999999
1
1
1
1
1
1
1
1
1
1
1
1
1
1
1
1
1
1
1
1
1
1
1
1
1
1
1
1
1
1
1
1
1
1
1
1
1
1
1
1
1
1
1
1
1
1
1
0.999996
1.00001
0.999995
1
1.00001
0.999983
1.00002
0.999981
1
1.00002
0.999968
1.00003
0.999986
0.99999
1.00003
0.999975
1.00001
1.00001
0.999985
1.00001
0.999997
0.999995
1.00001
0.999997
0.999996
1.00001
0.999998
0.999996
1
1
0.999996
1
1
0.999999
1
0.999999
1
1
1
1
1
1
1
1
1
1
1
1
1
1
1
1
0.999999
0.999998
0.999997
0.999995
0.999994
0.999994
0.999994
0.999994
0.999996
0.999997
1
1
1.00001
1.00001
1.00001
1.00002
1.00002
1.00002
1.00002
1.00001
1.00001
1.00001
1
0.999994
0.999997
0.99999
0.999982
0.99999
0.999978
0.999979
1.00001
1.00001
0.999968
0.999949
0.999982
1.00002
1.00002
0.999991
0.999977
0.999994
1
0.999991
0.999997
1.00001
0.999996
0.999997
1.00001
0.999996
1
1
0.999996
1
0.999998
1
1
1
1
1
1
1
1
1
1
1
1
1
1
1
1
1
1
1
1
1
1
1
1
1
1
1
1
1
1
1
1
1
1
1
1
1
1
0.999999
1
0.999997
1
0.999997
1
1
0.999994
1.00001
0.999997
0.999991
1.00002
0.999972
1.00002
1.00001
0.999964
1.00005
0.999971
0.999989
1.00005
0.999945
1.00003
1.00002
0.999957
1.00004
0.999993
0.999983
1.00002
0.999991
0.999995
1.00001
0.999994
1
1.00001
0.999994
1
1
0.999994
1
1.00001
0.999998
0.999997
1
1
1
1
1
1
1
1
1
1
1
1
1
1
1
1
1
0.999999
0.999998
0.999996
0.999995
0.999994
0.999993
0.999993
0.999994
0.999995
0.999997
1
1.00001
1.00001
1.00002
1.00002
1.00002
1.00002
1.00002
1.00002
1.00002
1.00002
1.00001
1
0.999997
0.999997
0.99999
0.999974
0.999991
0.99997
0.99993
1.00001
1.00008
1
0.99991
0.999937
1.00002
1.00004
1.00001
0.99999
0.999982
0.999977
0.999992
1.00001
1
0.999991
1.00001
0.999996
0.999996
1.00001
0.999996
0.999999
1.00001
0.999995
1
0.999999
1
1
1
1
1
1
1
1
1
1
1
1
1
1
1
1
1
1
1
1
1
1
1
1
1
1
1
1
1
1
1
1
1
1
1
1
0.999999
1
0.999996
1.00001
0.999994
1.00001
0.999995
1
1.00001
0.999987
1.00002
0.999974
1.00003
0.999976
1.00001
1.00002
0.999946
1.00007
0.999939
1.00002
1.00003
0.999932
1.00007
0.999974
0.999976
1.00005
0.999963
1
1.00002
0.999979
1
1.00001
0.999988
1
1
0.999994
1
1
0.999997
1
1
0.999996
1
1
0.999998
0.999999
1
1
1
1
1
1
1
1
1
1
1
1
1
0.999999
0.999998
0.999996
0.999995
0.999994
0.999993
0.999993
0.999994
0.999995
0.999999
1
1.00001
1.00001
1.00002
1.00002
1.00003
1.00003
1.00003
1.00003
1.00002
1.00002
1.00001
1.00001
1
0.999991
0.999991
0.999968
0.999986
1
0.999911
0.999917
1.00007
1.00011
0.999974
0.999876
0.99992
1.00003
1.00009
1.00004
0.999954
0.999957
1.00001
0.99999
0.999981
1.00002
1.00001
0.999977
1.00002
0.999997
0.999992
1.00001
0.999993
1
1
0.999999
1
1
1
1
1
1
1
1
1
1
1
1
1
1
1
1
1
1
1
1
1
1
1
1
1
1
1
1
1
1
1
1
1
0.999999
1
0.999996
1.00001
0.999991
1.00001
0.999986
1.00001
0.999994
0.999998
1.00001
1
0.999976
1.00005
0.999951
1.00002
1.00003
0.999906
1.00012
0.99992
0.999988
1.00011
0.999847
1.00011
0.999986
0.999924
1.00011
0.99993
1.00001
1.00004
0.999948
1.00002
1.00001
0.999968
1.00002
1
0.999983
1.00001
1
0.99999
1.00001
1
0.999993
1
1
1
1
0.999999
0.999998
1
1
1
1
1
1
1
1.00001
1.00001
1.00001
1
1
1
1
0.999999
0.999998
0.999997
0.999996
0.999996
0.999995
0.999997
0.999998
1
1.00001
1.00001
1.00002
1.00003
1.00004
1.00004
1.00005
1.00004
1.00004
1.00003
1.00002
1.00002
1.00001
1
0.999981
0.999993
0.999971
0.999961
1.00008
1
0.99977
0.999884
1.00021
1.0002
0.999902
0.999761
0.999929
1.00012
1.00011
1.00002
0.999983
0.999973
0.999957
0.999987
1.00003
0.99997
1.00001
1.00002
0.999976
1.00001
1.00002
0.999969
1.00003
0.999982
1.00001
0.999999
1
1
1
1
1
1
1
1
1
1
1
1
1
1
1
1
1
1
1
1
1
1
1
1
1
1
1
1
1
1
0.999999
1
0.999997
1.00001
0.99999
1.00002
0.999975
1.00003
0.999963
1.00003
0.999986
0.999984
1.00005
0.99993
1.00007
0.999942
1.00004
0.999985
0.999989
1.00005
0.999899
1.00015
0.999838
1.00011
1.00001
0.999864
1.0002
0.999842
1.00002
1.0001
0.999866
1.00007
1.00001
0.999938
1.00005
0.999987
0.999975
1.00003
0.999986
0.999991
1.00002
0.999992
0.999998
1.00001
0.999992
0.999996
1.00001
1
0.999993
1
1
1
1
1
1
1
1.00001
1.00001
1.00001
1.00001
1.00001
1.00001
1.00001
1
1
1
1
1
1
1
1
1
1.00001
1.00001
1.00002
1.00003
1.00004
1.00004
1.00006
1.00006
1.00006
1.00006
1.00006
1.00005
1.00003
1.00003
1.00001
0.999996
0.999986
0.999998
0.999996
0.999904
1.00005
1.0002
0.999833
0.999601
1
1.00036
1.00019
0.999842
0.999735
0.99987
1.00009
1.00023
1.00009
0.999902
0.999972
1.00004
0.999924
0.999983
1.00008
0.999924
1.00004
1
0.999997
0.999985
1.00003
0.999969
1.00002
0.999991
1
1
1
1
1
1
1
1
1
1
1
1
1
1
1
1
1
1
1
1
1
1
1
1
1
1
1
1
1
1
1
0.999998
1
0.999992
1.00001
0.999978
1.00003
0.99996
1.00004
0.999963
1.00003
0.999966
1.00005
0.999929
1.00008
0.999959
0.999957
1.00015
0.999762
1.00024
0.999867
0.999939
1.00025
0.99966
1.00028
0.999876
0.999941
1.00019
0.999775
1.00015
0.999991
0.999886
1.00013
0.999939
0.999968
1.00007
0.999954
1
1.00003
0.999972
1
1.00002
0.999989
0.999996
1.00001
0.999997
1
1
0.999991
0.999998
1.00001
1
0.999998
1
1
1
1
1.00001
1.00001
1.00001
1.00001
1.00001
1.00001
1.00001
1.00001
1.00001
1.00001
1.00001
1.00001
1.00001
1.00002
1.00002
1.00003
1.00003
1.00004
1.00005
1.00006
1.00007
1.00008
1.00009
1.00009
1.00009
1.00008
1.00008
1.00005
1.00004
1.00002
1.00001
1.00001
0.99999
1.00005
0.999892
0.999784
1.00024
1.00034
0.999657
0.999395
1.00002
1.00058
1.00032
0.999703
0.999543
0.999895
1.00017
1.00016
1.00008
1.00004
0.999974
0.9999
1.00008
0.999949
0.999973
1.00005
1.00001
0.999921
1.0001
0.999917
1.00004
0.99999
1
1
1
1
1
1
1
1
1
1
1
1
1
1
1
1
1
1
1
1
1
1
1
1
1
1
1
1
0.999999
1
0.999996
1.00001
0.999987
1.00002
0.999962
1.00006
0.999912
1.00012
0.999872
1.00011
0.999954
0.999949
1.00015
0.999787
1.00021
0.999847
1.00007
0.999997
0.999938
1.00014
0.999755
1.00036
0.999593
1.00032
0.999939
0.999733
1.00048
0.99955
1.0002
1.00009
0.999746
1.00026
0.999862
0.99998
1.00013
0.999867
1.00004
1.00004
0.999932
1.00003
1.00001
0.999972
1.00003
1
0.999974
1.00001
1.00001
0.999988
0.999997
1
0.999997
1
1.00001
0.999998
0.999998
1
1
1
1.00001
1.00001
1.00001
1.00001
1.00001
1.00001
1.00001
1.00001
1.00001
1.00002
1.00002
1.00003
1.00004
1.00004
1.00005
1.00006
1.00007
1.00008
1.0001
1.00011
1.00013
1.00013
1.00014
1.00013
1.00013
1.00012
1.0001
1.00009
1.00006
1.00006
1.00002
1.00001
0.999956
1.00006
1.00005
0.999539
0.999796
1.00076
1.0004
0.999172
0.999195
1.00028
1.00075
1.00022
0.999715
0.999634
0.999674
0.999998
1.00034
1.00013
0.999828
1.00017
0.999998
0.999801
1.00018
0.9999
1.00003
0.999933
1.00014
0.999815
1.00016
0.999901
1.00005
0.999991
1
1
0.999999
1
1
1
1
1
1
1
1
1
1
1
1
1
1
1
1
1
1
1
1
1
1
1
0.999999
1
0.999998
1
1
0.999994
1.00002
0.999963
1.00006
0.999917
1.0001
0.999896
1.00011
0.999873
1.00015
0.999842
1.0001
1.00003
0.999765
1.00044
0.999449
1.00049
0.99978
0.999822
1.00054
0.999286
1.00066
0.999567
1.0001
1.00026
0.999491
1.00051
0.99974
0.999926
1.00027
0.999735
1.00013
1.00002
0.999875
1.00013
0.99997
0.999945
1.00006
0.999991
0.999983
1.00001
0.999988
1
1.00002
0.999987
0.999983
1.00002
1.00001
0.999988
1
1.00001
0.999996
0.999998
1
1
1.00001
1.00002
1.00002
1.00002
1.00002
1.00002
1.00002
1.00002
1.00003
1.00003
1.00005
1.00006
1.00008
1.00009
1.00011
1.00012
1.00014
1.00016
1.00018
1.00019
1.00021
1.00021
1.00021
1.00021
1.00019
1.00018
1.00014
1.00013
1.00009
1.00007
1.00005
1.00001
0.999927
0.999906
1.0003
0.99997
0.999151
0.999929
1.00112
1.00045
0.998965
0.998889
1.00019
1.00104
1.00053
0.999574
0.999428
0.999814
1.00001
0.999979
1.00021
1.00018
0.999753
1.00016
0.999984
0.999952
0.999908
1.00024
0.999735
1.00016
0.999971
0.99996
1.00005
0.999979
1
1.00001
0.999995
1
0.999999
1
1
1
1
1
1
1
1
1
1
1
1
1
1
1
1
1
1
1
1
0.999999
1
0.999995
1.00001
0.999975
1.00005
0.99991
1.00015
0.999775
1.0003
0.999666
1.00029
0.999861
0.9999
1.00034
0.999514
1.00047
0.999678
1.00013
1.00002
0.999861
1.00027
0.999518
1.00076
0.999049
1.00082
0.999721
0.999536
1.00099
0.998968
1.00067
0.999842
0.999729
1.00054
0.999478
1.00028
1.00006
0.999738
1.00023
0.999891
0.999979
1.00009
0.999898
1.00003
1.00006
0.999943
0.999991
1.00004
0.999992
0.99999
1.00001
0.999991
1
1.00002
0.99999
0.999985
1.00001
1.00001
1.00001
1.00001
1.00002
1.00002
1.00002
1.00003
1.00003
1.00003
1.00003
1.00003
1.00003
1.00004
1.00006
1.00008
1.00011
1.00014
1.00017
1.0002
1.00023
1.00026
1.00028
1.0003
1.00032
1.00033
1.00034
1.00032
1.00032
1.00028
1.00026
1.00021
1.00018
1.00013
1.00007
1.00006
1.00002
1
0.999738
1.00017
1.0008
0.999457
0.998421
1.00032
1.00196
1.00045
0.998348
0.998783
1.00057
1.00095
1.00032
1.00006
0.999745
0.99931
0.99985
1.00047
0.999668
1.00012
1.00027
0.999739
1.00005
1.00003
1.00013
0.999596
1.00053
0.999551
1.00025
0.999928
0.999992
1.00003
0.999987
1
1
0.999999
1
1
1
1
1
1
1
1
1
1
1
1
1
1
1
1
1
1
1
1
0.999998
1
0.999993
1.00001
0.999988
1.00001
1
0.999971
1.00007
0.999887
1.00015
0.999833
1.00018
0.999786
1.00025
0.999759
1.00012
1.00015
0.999497
1.00083
0.999003
1.00086
0.999602
0.999761
1.00082
0.99879
1.00138
0.998746
1.00073
1.00014
0.999053
1.00121
0.999134
1.00025
1.00019
0.999537
1.00051
0.99968
1
1.00026
0.999781
1.00007
1.00003
0.999947
1.00005
0.999973
0.999969
1.00005
1
0.999959
1.00002
1.00002
0.999979
1
1.00001
0.999987
0.999995
1.00002
1.00002
1.00002
1.00002
1.00003
1.00003
1.00003
1.00004
1.00004
1.00004
1.00004
1.00005
1.00007
1.0001
1.00014
1.00019
1.00025
1.0003
1.00035
1.0004
1.00044
1.00048
1.00051
1.00053
1.00053
1.00053
1.00051
1.00047
1.00043
1.00037
1.00032
1.00025
1.00021
1.00012
1.00007
1.00002
1.00016
0.99991
0.999432
1.00061
1.00106
0.99892
0.998298
1.00058
1.00214
1.00074
0.998561
0.99842
1.00006
1.00125
1.00075
0.999823
0.999741
1.00008
0.999377
0.999879
1.00055
0.999623
1.00007
1.00005
1.00026
0.999395
1.00059
0.999753
0.999878
1.00027
0.999797
1.00008
1.00001
0.999965
1.00003
0.999988
1
0.999999
1
1
1
1
1
1
1
1
1
1
1
1
1
1
1
1
1
1
1
0.999999
0.999999
1.00001
0.999974
1.00007
0.999855
1.00027
0.999566
1.00061
0.99927
1.0007
0.999555
0.99999
1.00051
0.999174
1.0008
0.999532
1.00004
1.00024
0.999704
1.00027
0.999531
1.00104
0.998325
1.00176
0.999037
0.999644
1.00144
0.998143
1.00168
0.998886
1.00024
1.00073
0.998799
1.00101
0.999658
0.999832
1.00032
0.999621
1.0003
0.999896
0.999843
1.00022
0.999941
0.999933
1.00005
1
0.999989
1.00001
0.999986
0.999993
1.00002
0.999994
0.999974
1.00001
1.00002
1
1.00001
1.00002
1.00002
1.00002
1.00003
1.00003
1.00004
1.00005
1.00005
1.00005
1.00006
1.00008
1.00011
1.00017
1.00023
1.00032
1.00041
1.00051
1.00059
1.00067
1.00074
1.00079
1.00083
1.00085
1.00085
1.00081
1.00078
1.0007
1.00064
1.00054
1.00046
1.00034
1.00027
1.0002
1.00014
1.00009
1.00012
1.00031
0.999182
0.999177
1.00172
1.00139
0.998022
0.997608
1.00103
1.00293
1.00053
0.998103
0.998884
1.00022
1.00034
1.00051
1.00097
0.99971
0.999275
1.00055
0.999562
0.999845
1.00014
1.00042
0.999294
1.00033
1.0004
0.999179
1.00066
0.999793
0.999861
1.00024
0.999833
1.00007
0.999986
0.999997
1
0.999999
1
1
1
1
1
1
1
1
1
1
1
1
1
1
1
1
0.999999
1
0.999997
1
0.999992
1.00001
0.999977
1.00003
0.999958
1.00004
0.999972
0.999997
1.00004
0.999941
1.00008
0.999882
1.0002
0.99974
1.00021
1.00005
0.999504
1.00096
0.998804
1.00098
0.999587
0.999807
1.0006
0.998945
1.00183
0.997418
1.00238
0.999141
0.998979
1.00202
0.998114
1.00124
0.999406
0.999753
1.00094
0.998944
1.00057
1.00012
0.999694
1.00024
0.999826
1.00011
1.00003
0.999854
1.00009
1.00004
0.999939
1.00001
1.00003
0.999972
1
1.00003
0.99997
0.999989
1.00004
1.00002
0.99998
0.999994
1.00001
1.00001
1.00002
1.00003
1.00004
1.00005
1.00006
1.00007
1.00009
1.00012
1.00018
1.00026
1.00038
1.00051
1.00066
1.00081
1.00095
1.00108
1.00118
1.00126
1.00131
1.00132
1.0013
1.00124
1.00116
1.00104
1.00092
1.00078
1.00065
1.00052
1.00037
1.00029
1.0002
1.00017
0.999908
1.00043
1.00036
0.99835
0.999575
1.00241
1.00075
0.997676
0.997873
1.00069
1.00236
1.00113
0.99884
0.998347
0.999615
1.0007
1.00041
0.99988
1.00111
0.99966
0.999111
1.0007
0.999925
0.999735
0.999681
1.00111
0.998895
1.00029
1.00056
0.999185
1.00052
0.999899
0.999865
1.00016
0.9999
1.00004
0.99999
1
1
1
1
1
1
1
1
1
1
1
1
1
1
1
1
1
0.999999
1
0.999995
1.00001
0.999992
0.999994
1.00005
0.999836
1.00037
0.999325
1.00106
0.998575
1.00162
0.998534
1.00089
0.999973
0.999264
1.00096
0.999521
0.999597
1.00103
0.999136
1.00008
1.00046
1.00011
0.998509
1.00246
0.997985
1.00061
1.00077
0.99825
1.0026
0.996926
1.00227
0.999836
0.998227
1.0022
0.998722
1.00046
0.999899
0.999636
1.00072
0.999298
1.00019
1.00026
0.999748
1.0001
0.999986
0.999985
1.00004
0.999976
0.999992
1.00002
0.999995
0.999987
1.00001
1.00001
0.999987
1.00001
1.00001
0.999989
0.999987
0.999997
1.00001
1.00002
1.00004
1.00006
1.00006
1.00008
1.0001
1.00012
1.00017
1.00027
1.0004
1.00058
1.00079
1.00103
1.00126
1.00148
1.00167
1.00183
1.00195
1.00201
1.00202
1.00197
1.00187
1.00171
1.00154
1.00132
1.00112
1.00089
1.00075
1.00056
1.00043
1.00024
1.00011
0.999855
0.999905
1.00152
0.999884
0.997014
1.0002
1.00324
1.0008
0.997024
0.99703
1.00107
1.00264
1.00049
0.999142
0.999353
0.999275
0.999028
1.00135
1.00038
0.99934
1.00093
0.999618
1.00034
0.998394
1.00263
0.997748
1.00084
1.00015
1.00001
0.99921
1.00128
0.99886
1.00067
0.999743
1.00005
1.00001
0.999994
0.999998
1
0.999999
1
1
1
1
1
1
1
1
1
1
1
1
1
1
1
0.999998
1
0.999995
1.00001
0.99998
1.00005
0.999892
1.00021
0.999663
1.00045
0.999495
1.00048
0.999607
1.00023
1.00004
0.999557
1.00087
0.998999
1.00065
1.00004
0.999499
1.00017
1.00061
0.999141
0.999922
1.00096
0.999903
0.997478
1.00428
0.996719
1.00061
1.00143
0.997785
1.00262
0.99735
1.00149
1.00051
0.99806
1.00172
0.999483
0.99996
1.00011
0.999775
1.00041
0.999656
1.00001
1.0002
0.999849
1.00003
1.00005
0.999937
1.00001
1.00005
0.999961
0.999965
1.00007
1.00001
0.999934
0.999978
1.00004
1.00002
1.00001
1.00004
1.00006
1.00007
1.00008
1.00009
1.0001
1.00013
1.00017
1.00025
1.00039
1.0006
1.00087
1.00119
1.00154
1.00189
1.00223
1.00252
1.00275
1.00292
1.00301
1.00302
1.00293
1.00277
1.00252
1.00224
1.00191
1.00159
1.00127
1.00101
1.00079
1.00056
1.00039
1.00017
1.00019
0.999256
1.00032
1.00239
0.998396
0.996628
1.00159
1.0033
1.0003
0.997567
0.997501
0.999882
1.00209
1.00133
0.999597
0.999053
0.999692
0.999712
0.998957
1.00113
1.00088
0.998876
1.00006
1.00091
0.999676
0.998931
1.00127
1.00009
0.998398
1.00187
0.999018
0.999921
1.00059
0.999454
1.0003
0.9999
1.00002
1
1
0.999998
1
0.999999
1
1
1
1
1
1
1
1
1
1
1
0.999998
1.00001
0.999988
1.00002
0.999966
1.00004
1
0.999866
1.00043
0.999049
1.00171
0.997375
1.00354
0.995872
1.00403
0.996989
1.00132
1.00016
0.999488
0.99946
1.00194
0.99795
1.00021
1.00231
0.996874
1.00161
1.00067
0.998467
1.00137
0.998628
1.00153
1.00017
0.996334
1.00564
0.996386
0.999575
1.00252
0.997774
1.00173
0.998459
1.00072
1.0006
0.998559
1.001
0.99986
0.999828
1.00015
0.999861
1.00015
0.999915
1
1.00007
0.999905
1.00001
1.00009
0.999959
0.999939
1.00005
1.00004
0.999943
0.999961
1.00005
1.00006
1.00006
1.00007
1.00009
1.0001
1.00011
1.00012
1.00014
1.00017
1.00023
1.00037
1.00057
1.00088
1.00128
1.00175
1.00226
1.00278
1.00326
1.00369
1.00403
1.00428
1.00441
1.00441
1.00427
1.00401
1.00365
1.0032
1.00273
1.00223
1.00182
1.00137
1.00104
1.00071
1.00057
1.00044
1.0006
0.999911
0.99793
1.00143
1.00341
0.997244
0.996605
1.00155
1.00367
1.002
0.997586
0.997047
0.999866
1.00126
1.00105
1.00063
1.00046
0.997523
1.0008
1.00035
0.998448
1.00174
0.998327
1.00362
0.994086
1.0061
0.995854
1.00242
0.997436
1.00375
0.995774
1.00336
0.998127
1.00068
0.99989
0.999978
1
1.00002
0.999984
1.00001
0.999998
1
1
1
1
1
1
1
1
1
1
1
1
0.999999
1
0.999997
1
0.999998
0.999992
1.00005
0.999835
1.00041
0.999194
1.00124
0.998502
1.00139
0.999105
1.00015
1.00079
0.998039
1.00344
0.99546
1.00449
0.996928
1.00145
0.998616
1.00289
0.996273
1.00111
1.00361
0.993947
1.0031
1.00193
0.99547
1.00363
0.997931
1.00101
1.00102
0.996055
1.00524
0.997269
0.998757
1.00278
0.998297
1.00074
0.999474
1.00029
1.00032
0.999267
1.00052
0.999881
0.99988
1.00021
0.99985
1.00001
1.00007
0.999946
0.999989
1.00007
0.999997
0.999904
0.999993
1.00008
1.00004
0.999985
1.00002
1.00006
1.00008
1.00009
1.0001
1.00012
1.00014
1.00017
1.00022
1.00033
1.00051
1.00083
1.00127
1.00184
1.00251
1.00324
1.00397
1.00466
1.00527
1.00576
1.00611
1.00629
1.00629
1.0061
1.00572
1.00519
1.00453
1.00386
1.00315
1.00251
1.00191
1.00138
1.001
1.00069
1.00058
1.00031
1.00121
0.998985
0.997348
1.00367
1.00317
0.995981
0.99689
1.00136
1.00315
1.00254
0.999368
0.997211
0.999183
1.00089
1.00071
1.00008
1.00135
0.999708
0.998418
1.00003
1.00087
1.0003
0.997857
1.00228
0.999353
1.00008
0.998154
1.0039
0.996168
1.00168
1.00062
0.998387
1.00135
0.999327
1.00019
0.999998
0.999981
1
1
0.999996
1
1
1
1
1
1
1
1
1
1
1
1
1
0.999988
1.00003
0.999944
1.00009
0.999925
0.999933
1.00049
0.998665
1.00272
0.995382
1.00689
0.990836
1.01071
0.989506
1.0078
0.996546
0.99947
1.00172
0.999893
0.998483
1.00027
1.00381
0.992693
1.00771
0.994543
1.00367
0.997786
0.999019
1.00652
0.991487
1.00348
1.00435
0.992824
1.00411
0.999169
0.999555
1.00147
0.99681
1.00359
0.99855
0.998699
1.00195
0.999044
1.00023
0.999903
1.00008
1.00008
0.999714
1.00037
0.999817
0.999803
1.00032
0.99996
0.999766
1.00012
1.00015
0.999872
0.999885
1.00011
1.00013
0.99998
0.99996
1.00001
1.00004
1.00005
1.00008
1.00012
1.00016
1.00021
1.00029
1.00045
1.00072
1.00117
1.00179
1.00259
1.00352
1.00454
1.00555
1.00651
1.00734
1.00803
1.00852
1.00878
1.00879
1.00853
1.00801
1.00725
1.00637
1.00537
1.0044
1.00342
1.00264
1.00194
1.00146
1.00089
1.00053
0.999918
1.00055
1.00238
0.997697
0.996839
1.00408
1.00216
0.997354
0.997167
0.998167
1.00231
1.00328
1.00065
0.998637
0.99836
0.99977
1.00006
1.00259
0.998256
1.00034
1.00202
0.995991
1.00454
0.99342
1.00972
0.989232
1.00876
0.993428
1.00691
0.991225
1.00923
0.992868
1.00388
0.998676
1.00015
1.00008
0.999993
0.999949
1.00005
0.999979
1.00001
1
0.999999
1
1
1
1
1
1
1
1
1
0.999999
1
0.999993
1.00001
0.999987
1.00001
1.00003
0.999847
1.00047
0.998943
1.00177
0.997807
1.00171
0.999951
0.997547
1.00513
0.992395
1.01035
0.987403
1.01284
0.990114
1.0048
0.998473
1.00292
0.993258
1.00605
1.00151
0.988941
1.01409
0.990321
1.0027
1.00131
0.995886
1.00743
0.991811
1.0027
1.00556
0.992071
1.00358
1.00098
0.998152
1.00137
0.998414
1.00168
0.999362
0.999367
1.00091
0.999441
1.00027
0.999917
0.999888
1.00023
0.99977
1.00007
1.00018
0.999805
0.999886
1.00014
1.00012
0.999969
0.999951
0.999997
1.00003
1.00002
1.00001
1.00002
1.00006
1.00012
1.00015
1.0002
1.00026
1.00038
1.0006
1.001
1.00161
1.00248
1.00357
1.00485
1.00621
1.00758
1.00887
1.01
1.01093
1.01159
1.01198
1.01202
1.01169
1.01101
1.00999
1.00876
1.00738
1.00603
1.00472
1.00359
1.00268
1.00196
1.00137
1.00071
1.00059
0.999335
1.00153
1.00229
0.995412
0.997725
1.00433
1.00177
0.998406
0.997267
0.997133
1.00036
1.00255
1.00041
1.00006
0.999679
0.999695
0.997403
1.00246
1.00131
0.997761
1.00183
0.997432
1.00462
0.994222
1.0047
0.995964
1.00592
0.991851
1.00718
0.997028
0.998671
1.00315
0.997423
1.00122
0.99973
0.999937
1.00007
0.999982
0.999994
1.00001
0.999998
1
1
1
1
1
1
1
1
1
1
0.999998
0.999994
1.00002
0.999945
1.00011
0.999857
1.00003
1.00047
0.998311
1.00391
0.99279
1.01139
0.984036
1.02006
0.978048
1.01935
0.988357
1.00069
1.00795
0.989941
1.0075
0.994832
1.00618
0.990487
1.01219
0.988092
1.01145
0.988411
1.00847
1.00271
0.984617
1.01931
0.988932
1.00013
1.00516
0.994061
1.00592
0.995083
1.00034
1.00499
0.994198
1.00199
1.0014
0.998265
1.00088
0.999512
1.00051
0.999596
1.00008
1.00046
0.999204
1.00037
1.00036
0.999475
1.00011
1.00033
0.999748
0.999766
1.00021
1.00022
0.99991
0.999838
1.00002
1.00011
1.00009
1.00008
1.00015
1.0002
1.00022
1.00025
1.00033
1.0005
1.00081
1.00136
1.0022
1.00338
1.00484
1.00654
1.00833
1.01014
1.01181
1.0133
1.0145
1.01541
1.01594
1.01604
1.01568
1.01482
1.01354
1.01188
1.01004
1.00814
1.00647
1.0049
1.00358
1.00243
1.00185
1.00118
1.00111
1.00026
0.998503
1.00235
1.0021
0.99637
0.999531
1.00169
1.00059
1.00175
0.999042
0.997543
0.998059
0.999988
1.00177
1.00069
1.0001
0.998275
1.00098
0.999099
0.998686
1.00555
0.99208
1.00975
0.987594
1.01372
0.987937
1.01006
0.988867
1.01418
0.98502
1.01162
0.993768
1.00197
0.999964
0.999737
1.00005
1.00008
0.999918
1.00004
0.999991
1
1
0.999999
1
1
1
1
1
1
1
1
1
0.999996
1.00001
0.999989
1.00002
0.999986
0.999968
1.00021
0.999395
1.00114
0.998723
0.999951
1.00373
0.990393
1.01605
0.978998
1.02475
0.973066
1.02651
0.978412
1.01053
1.00163
0.994634
0.999278
1.00674
0.995147
0.99434
1.01755
0.976849
1.02022
0.985453
1.00679
1.00494
0.98251
1.02001
0.991091
0.996037
1.00793
0.995185
1.00231
0.998636
0.999313
1.00309
0.996988
1.00077
1.00081
0.999121
1.00046
0.999629
1.00041
0.999834
0.999713
1.0006
0.999651
0.999615
1.00054
1.00021
0.999633
0.999833
1.00012
1.00004
0.999966
1.00003
1.00009
1.00012
1.00015
1.0002
1.00022
1.00026
1.0003
1.00042
1.00064
1.00109
1.00182
1.00297
1.00451
1.00645
1.00865
1.01096
1.01325
1.01537
1.01725
1.01879
1.01996
1.02068
1.0209
1.02054
1.01954
1.01797
1.01588
1.01352
1.01099
1.00865
1.00658
1.00479
1.00329
1.0022
1.00175
1.00069
1.00106
0.999111
0.999002
1.00412
1.00076
0.996782
0.999655
1.00122
1.00118
1.00173
1.00075
0.999508
0.999732
0.997027
1.00002
1.00163
1.00288
0.996218
0.998955
1.00546
0.992428
1.00811
0.99091
1.01049
0.98967
1.01002
0.988066
1.014
0.988169
1.00514
1.00167
0.995317
1.00392
0.99818
1.00033
1.00017
0.999849
1.00004
1.00001
0.99999
1
1
0.999999
1
1
1
1
1
1
1
0.999999
1
1.00001
0.999969
1.00009
0.999838
1.00015
1.00025
0.998447
1.00433
0.991099
1.015
0.978201
1.02817
0.967694
1.03116
0.977809
1.00422
1.01622
0.970999
1.03137
0.974195
1.01773
0.98635
1.01292
0.990058
1.00916
0.984516
1.0216
0.984606
0.996624
1.02408
0.96798
1.02477
0.988429
1.00091
1.0071
0.986072
1.01401
0.995059
0.994759
1.0074
0.996856
0.99974
1.00082
0.999318
1.00093
0.999055
1.00076
0.999764
0.999277
1.00104
0.999671
0.9997
1.00046
0.999636
0.999747
1.00048
1.00025
0.999711
0.999731
1.00004
1.00018
1.00008
1.00001
1.00005
1.00013
1.00016
1.00018
1.00025
1.00035
1.00052
1.00083
1.00143
1.00242
1.00393
1.00594
1.00844
1.01121
1.01412
1.01693
1.01955
1.02181
1.02371
1.02516
1.02613
1.02651
1.02622
1.02518
1.02335
1.02084
1.01786
1.01469
1.01151
1.00873
1.00645
1.00464
1.00289
1.00214
1.00126
1.00081
1.00095
0.998482
0.999468
1.00243
0.998678
0.998896
1.00176
0.999819
0.999123
0.998895
1.00298
1.00317
0.999043
0.997117
0.998741
1.00152
1.00079
1.00159
0.998121
0.996574
1.00826
0.989685
1.01171
0.987514
1.01123
0.99002
1.01234
0.982808
1.01907
0.984861
1.00808
0.997684
0.999735
1.00057
0.999824
0.999923
1.0001
0.999949
1.00001
1
0.999998
1
1
1
1
1
1
1
1
0.999998
1
0.999995
1.00001
1
0.999971
1.0001
0.999763
1.00043
0.999241
1.00167
0.99571
1.01015
0.980032
1.032
0.958054
1.04778
0.951866
1.04428
0.962809
1.02003
1.00526
0.978007
1.02299
0.985628
1.00209
1.00378
1.00457
0.980762
1.02865
0.967734
1.03025
0.981214
0.996605
1.02577
0.967446
1.02144
0.995165
0.995339
1.00757