/*--------------------------------*- C++ -*----------------------------------*\
  =========                 |
  \\      /  F ield         | OpenFOAM: The Open Source CFD Toolbox
   \\    /   O peration     | Website:  https://openfoam.org
    \\  /    A nd           | Version:  6
     \\/     M anipulation  |
\*---------------------------------------------------------------------------*/
FoamFile
{
    version     2.0;
    format      ascii;
    class       volScalarField;
    location    "3.72";
    object      k;
}
// * * * * * * * * * * * * * * * * * * * * * * * * * * * * * * * * * * * * * //

dimensions      [0 2 -2 0 0 0 0];

internalField   nonuniform List<scalar> 
4214
(
0.111845
0.0484527
0.0265011
0.0190716
0.0168009
0.016507
0.0174332
0.0202708
0.0279885
0.0477363
0.0938669
0.187853
0.349778
0.57957
0.843364
1.08798
1.26767
1.36441
1.41309
1.53052
1.89123
2.52737
3.18781
3.628
3.95729
4.58829
5.85609
7.54959
8.7719
8.53634
5.87382
2.17859
0.363374
0.043927
0.0198415
0.0167575
0.0164249
0.0180124
0.0241725
0.0431003
0.0972905
0.0263996
0.0194399
0.0168955
0.0161279
0.0161593
0.0167575
0.0183545
0.0224826
0.0337336
0.0626024
0.12964
0.263431
0.484952
0.782577
1.10373
1.38019
1.56163
1.63404
1.62392
1.62807
1.818
2.28881
2.88273
3.38736
3.85994
4.7147
6.19124
7.96057
9.1209
8.73315
5.94634
2.21379
0.372651
0.0452456
0.0203979
0.0169623
0.0160187
0.015743
0.0160526
0.0175138
0.0218578
0.0168283
0.0160682
0.0158872
0.0160299
0.0164638
0.0173838
0.0196501
0.025588
0.0421011
0.0845298
0.181945
0.370597
0.668386
1.04548
1.42727
1.73272
1.90801
1.94007
1.86204
1.76151
1.79238
2.08801
2.59347
3.16446
3.85758
5.02526
6.76161
8.55908
9.5152
8.79134
5.77235
2.12159
0.354545
0.0446702
0.0207226
0.0172097
0.0161779
0.0157214
0.0155296
0.0155592
0.015951
0.015961
0.0159215
0.016072
0.0163914
0.0169944
0.0182353
0.0214509
0.0300677
0.0544873
0.117008
0.258082
0.521324
0.916036
1.38891
1.84162
2.17757
2.33376
2.3021
2.13959
1.94368
1.8571
2.02406
2.46372
3.11399
4.06731
5.57386
7.52414
9.23108
9.83407
8.64125
5.40394
1.93723
0.319636
0.0431447
0.0210307
0.0175091
0.0164334
0.0159335
0.0156665
0.0155278
0.0155225
0.0160434
0.0161892
0.0164475
0.0168643
0.0176474
0.0193282
0.0239587
0.0365564
0.0728351
0.164784
0.367251
0.729056
1.24426
1.83177
2.36498
2.72414
2.83389
2.71365
2.44508
2.15138
1.97952
2.08075
2.52557
3.3162
4.57828
6.4024
8.42903
9.86505
9.96464
8.21923
4.86087
1.66515
0.269903
0.0406635
0.0212437
0.0177997
0.0166998
0.0161804
0.0158946
0.0157194
0.0156187
0.0163807
0.0165906
0.0169094
0.0174211
0.0184494
0.020764
0.027526
0.0460229
0.100009
0.234405
0.521533
1.0121
1.67888
2.40495
3.02211
3.37637
3.39411
3.14636
2.75399
2.36975
2.15195
2.26508
2.82765
3.83902
5.46542
7.4856
9.35586
10.3093
9.75119
7.51562
4.16976
1.33933
0.214053
0.0377404
0.0214065
0.0181032
0.0169898
0.0164557
0.0161609
0.0159788
0.0158622
0.0168135
0.0170579
0.0174334
0.0180666
0.0194535
0.0226887
0.0326718
0.0598421
0.140025
0.334383
0.736362
1.39523
2.25271
3.1378
3.81768
4.10545
3.97486
3.56186
3.04274
2.59947
2.40755
2.65765
3.4927
4.80136
6.70647
8.66094
10.09
10.3793
9.17349
6.58059
3.36991
0.998832
0.160473
0.0348217
0.0215445
0.0184235
0.0173037
0.0167569
0.016457
0.0162754
0.016161
0.017301
0.0175746
0.0180227
0.0188261
0.0207488
0.0253133
0.0401614
0.0799127
0.198335
0.475508
1.03255
1.91115
2.99938
4.0426
4.72204
4.85535
4.52152
3.92827
3.31248
2.90185
2.88528
3.43369
4.5962
6.18008
8.06439
9.64591
10.4237
9.98761
8.21605
5.43535
2.53126
0.686718
0.115955
0.0322898
0.0217008
0.0187723
0.0176475
0.0170863
0.0167818
0.0166021
0.0164936
0.0178287
0.018139
0.0186925
0.01974
0.0224669
0.0289248
0.0510968
0.10874
0.282096
0.671508
1.43828
2.59134
3.94255
5.09304
5.66707
5.56007
4.98484
4.24711
3.65858
3.42401
3.71444
4.6242
6.01583
7.66016
9.22048
10.207
10.2451
9.12324
6.92955
4.16782
1.74163
0.436683
0.0835327
0.0303776
0.0219276
0.0191678
0.018031
0.0174499
0.0171384
0.0169599
0.0168573
0.0183924
0.018757
0.0194705
0.0208666
0.0247999
0.0338978
0.0670367
0.149459
0.40061
0.940906
1.98362
3.47179
5.06958
6.21791
6.56329
6.15978
5.3834
4.63425
4.1864
4.22864
4.85998
6.01783
7.45026
8.86653
9.89774
10.183
9.50066
7.82393
5.42411
2.92142
1.08806
0.262474
0.0626226
0.0291941
0.0222888
0.0196379
0.018471
0.0178574
0.0175332
0.0173527
0.0172553
0.0189982
0.0194435
0.020401
0.0222847
0.0280226
0.0406931
0.0901362
0.205741
0.56583
1.3053
2.69937
4.55655
6.31484
7.32457
7.33736
6.66672
5.80607
5.13331
4.90149
5.23461
6.10274
7.30217
8.5507
9.52922
9.92645
9.51566
8.2281
6.20799
3.87511
1.84962
0.623899
0.157218
0.0506454
0.0287664
0.0228508
0.020214
0.0189869
0.0183204
0.0179739
0.0177854
0.0176916
0.0196644
0.020223
0.0215522
0.0240958
0.0325211
0.0498277
0.123306
0.281511
0.791966
1.78354
3.60892
5.79606
7.58605
8.31828
7.98554
7.13862
6.26387
5.71876
5.70118
6.23022
7.1515
8.19354
9.07276
9.50274
9.26337
8.25907
6.56852
4.48665
2.49609
1.06192
0.343899
0.101927
0.0448664
0.0291164
0.0236954
0.0209377
0.0196059
0.0188534
0.01847
0.0182625
0.0181682
0.0204167
0.0211272
0.0230249
0.0264169
0.038831
0.0618012
0.170435
0.380088
1.09953
2.38696
4.68564
7.10826
8.79149
9.14552
8.54388
7.58054
6.72543
6.29797
6.41251
6.98177
7.77031
8.50285
8.912
8.78018
7.99442
6.58643
4.77158
2.92519
1.4585
0.576467
0.200833
0.0771113
0.0433728
0.0303258
0.0249501
0.0218727
0.0203719
0.0194778
0.0190366
0.0187915
0.0186888
0.0212893
0.0221936
0.024969
0.0293641
0.0476927
0.0769521
0.23665
0.504427
1.50314
3.09513
5.87119
8.39808
9.82995
9.8307
9.02502
7.97424
7.12988
6.75567
6.87664
7.32862
7.85235
8.18455
8.10872
7.49435
6.33773
4.78843
3.14596
1.74266
0.813593
0.328141
0.140065
0.0693194
0.0452914
0.0325816
0.0268273
0.0231171
0.0213612
0.0202274
0.0197003
0.0193861
0.0192641
0.0223358
0.0234627
0.0276137
0.0330149
0.0601494
0.0952227
0.328921
0.651335
2.01512
3.8512
7.07934
9.57282
10.6529
10.4072
9.43052
8.29527
7.41736
7.00361
7.00663
7.22372
7.40877
7.3302
6.84015
5.90394
4.61843
3.19857
1.93866
1.01128
0.48996
0.225704
0.123451
0.0717689
0.0507564
0.0362304
0.0297087
0.0248204
0.0227119
0.0211522
0.0205061
0.0200625
0.0199082
0.0236576
0.0249628
0.0313274
0.0373296
0.0777269
0.115722
0.456891
0.809063
2.6434
4.55602
8.22362
10.526
11.3036
10.8969
9.75534
8.5323
7.5555
7.01241
6.80673
6.73624
6.56622
6.1467
5.387
4.3415
3.17157
2.05261
1.22408
0.650393
0.369688
0.200805
0.132831
0.0821378
0.061052
0.0418091
0.0343238
0.0271955
0.0246946
0.0223226
0.0215424
0.0208399
0.0206443
0.0254745
0.0266617
0.0367498
0.0419717
0.102788
0.135827
0.634445
0.948522
3.40794
5.06555
9.24663
11.2267
11.7535
11.3422
9.98064
8.71837
7.56623
6.83398
6.36422
6.00518
5.53556
4.90095
4.0586
3.08883
2.20831
1.38538
0.912401
0.520546
0.364057
0.218012
0.164703
0.100304
0.0793468
0.0499221
0.0421819
0.0304698
0.027893
0.023811
0.0230131
0.0217411
0.0215333
0.0212429
0.0205169
0.0198437
0.0192234
0.018653
0.0181273
0.0176415
0.017196
0.0167906
0.0164215
0.0160855
0.0157946
0.0156039
0.0157367
0.0170985
0.03349
0.246251
0.021275
0.0206018
0.0199794
0.0193993
0.018857
0.0183499
0.017877
0.0174398
0.0170383
0.0166704
0.0163367
0.0160578
0.0159046
0.0161248
0.0178286
0.0355281
0.254375
0.0213324
0.0207233
0.0201505
0.0196082
0.0190935
0.0186061
0.0181479
0.0177207
0.0173249
0.0169602
0.0166324
0.0163693
0.0162579
0.0165896
0.0186569
0.0378519
0.262025
0.0214425
0.0208911
0.0203579
0.0198463
0.0193547
0.0188848
0.0184408
0.0180252
0.0176382
0.0172817
0.0169652
0.0167245
0.0166661
0.0171356
0.0196187
0.0404581
0.270164
0.0216396
0.021103
0.0205968
0.0201099
0.0196387
0.0191859
0.0187564
0.0183539
0.0179787
0.0176349
0.0173352
0.0171253
0.0171329
0.0177671
0.0207229
0.0436355
0.27899
0.0218004
0.0213295
0.0208579
0.0203949
0.0199432
0.0195075
0.0190939
0.0187065
0.0183462
0.0180187
0.017741
0.0175697
0.0176566
0.0184829
0.0219687
0.0473393
0.288177
0.0220923
0.0216081
0.0211489
0.0207025
0.0202676
0.0198495
0.0194542
0.0190844
0.0187417
0.0184335
0.0181822
0.0180567
0.0182365
0.0192796
0.0233531
0.051459
0.297374
0.0222919
0.0218812
0.0214549
0.0210285
0.0206118
0.0202134
0.0198386
0.0194889
0.0191662
0.0188801
0.0186592
0.018586
0.0188716
0.0201522
0.0248672
0.0557517
0.306322
0.0226556
0.0222134
0.021791
0.0213779
0.020979
0.0206017
0.0202494
0.0199219
0.0196209
0.0193595
0.019173
0.0191584
0.0195623
0.0210991
0.02649
0.0600974
0.314794
0.0228894
0.0225266
0.0221375
0.021747
0.021371
0.021018
0.0206896
0.0203852
0.0201076
0.0198732
0.0197253
0.0197756
0.0203092
0.0221171
0.0282022
0.0643728
0.322561
0.0233127
0.0229046
0.022516
0.0221429
0.0217917
0.0214654
0.0211623
0.0208817
0.0206287
0.0204237
0.0203186
0.0204398
0.0211136
0.0232056
0.0299891
0.0684666
0.329489
0.0235812
0.0232572
0.022906
0.0225631
0.0222426
0.0219456
0.0216693
0.0214136
0.0211867
0.0210139
0.0209558
0.0211543
0.0219784
0.0243653
0.0318476
0.072339
0.335507
0.0240564
0.0236799
0.0233339
0.0230168
0.0227276
0.0224607
0.0222119
0.0219827
0.0217842
0.0216462
0.0216396
0.0219221
0.0229076
0.0256044
0.0337899
0.0760079
0.340671
0.0243638
0.024079
0.02378
0.023502
0.023248
0.0230123
0.0227919
0.0225906
0.0224228
0.0223234
0.0223722
0.0227439
0.0239011
0.0269141
0.0358093
0.0794834
0.345139
0.024884
0.0245513
0.0242703
0.0240267
0.0238068
0.0236022
0.0234109
0.0232391
0.0231044
0.0230469
0.0231556
0.0236228
0.0249599
0.0282945
0.0379091
0.0827769
0.348853
0.0252395
0.0250115
0.0247874
0.0245877
0.0244037
0.024231
0.0240702
0.02393
0.0238312
0.0238188
0.0239917
0.0245595
0.026084
0.0297461
0.0400953
0.0858684
0.351765
0.0258
0.0255452
0.0253517
0.0251899
0.0250403
0.0249002
0.0247715
0.0246654
0.0246055
0.0246409
0.0248818
0.0255537
0.0272683
0.0312591
0.0423685
0.0886438
0.353689
0.0262213
0.0260851
0.025949
0.0258304
0.0257164
0.0256107
0.0255165
0.0254475
0.0254293
0.0255157
0.0258273
0.0266055
0.0285085
0.0328301
0.0447078
0.0910314
0.354366
0.0268206
0.0266916
0.0265905
0.0265113
0.0264334
0.0263645
0.0263078
0.0262789
0.026305
0.0264458
0.0268292
0.0277146
0.0298009
0.0344498
0.0469344
0.0935905
0.354037
0.0273362
0.0273202
0.0272671
0.027231
0.0271923
0.0271637
0.027148
0.0271625
0.027236
0.0274334
0.0278885
0.0288811
0.0311404
0.036115
0.0491913
0.0961114
0.352312
0.0279783
0.0279989
0.0279851
0.027992
0.0279962
0.0280117
0.0280411
0.0281027
0.0282271
0.0284828
0.0290088
0.0301045
0.0325201
0.0378134
0.0514759
0.0986814
0.348894
0.0286339
0.0287052
0.0287416
0.0287955
0.0288479
0.028912
0.0289913
0.0291043
0.0292836
0.0296
0.0301971
0.0313936
0.0339544
0.0395609
0.0538302
0.101595
0.344263
0.0293291
0.0294514
0.0295413
0.0296457
0.0297514
0.0298692
0.0300038
0.0301734
0.0304119
0.0307915
0.03146
0.0327514
0.0354475
0.0413332
0.0561774
0.10423
0.33942
0.0300648
0.0302332
0.0303825
0.0305451
0.0307106
0.0308884
0.0310844
0.0313159
0.0316172
0.0320602
0.0327952
0.0341631
0.0369546
0.043057
0.0583557
0.10664
0.33477
0.0308281
0.0310615
0.0312743
0.0314997
0.0317314
0.0319767
0.0322415
0.0325423
0.0329119
0.0334208
0.0342185
0.035646
0.0384985
0.0447395
0.0603607
0.108768
0.330424
0.0316382
0.0319296
0.0322148
0.0325135
0.0328205
0.0331424
0.0334855
0.0338649
0.0343113
0.0348915
0.0357516
0.0372252
0.0401031
0.0463937
0.0621659
0.110376
0.326453
0.0324801
0.0328512
0.0332142
0.0335931
0.033985
0.0343947
0.0348279
0.0352981
0.0358334
0.0364952
0.0374223
0.0389346
0.0418065
0.0480566
0.0637821
0.111658
0.322899
0.0333732
0.0338184
0.0342722
0.0347444
0.0352335
0.0357441
0.0362819
0.0368586
0.0374992
0.0382588
0.0392645
0.0408181
0.043665
0.0498078
0.0653361
0.112755
0.31977
0.0343046
0.0348464
0.035398
0.0359743
0.0365744
0.037202
0.0378619
0.0385648
0.0393323
0.0402124
0.0413183
0.0429279
0.0457458
0.0517264
0.0669055
0.113694
0.317031
0.0352866
0.0359278
0.0365939
0.0372902
0.0380179
0.0387809
0.0395844
0.0404377
0.0413595
0.0423907
0.0436293
0.0453232
0.0481247
0.053901
0.068589
0.114531
0.31463
0.0363166
0.0370774
0.0378683
0.0387002
0.0395745
0.0404953
0.0414677
0.0425009
0.043611
0.0448327
0.0462488
0.048073
0.0508949
0.056458
0.0705183
0.115335
0.312506
0.0374002
0.0382894
0.0392254
0.0402131
0.0412564
0.0423608
0.0435325
0.0447808
0.0461211
0.0475829
0.0492352
0.0512572
0.0541642
0.0595454
0.0728802
0.116257
0.310596
0.0385382
0.0395772
0.0406734
0.0418383
0.0430766
0.0443951
0.0458021
0.0473084
0.0489297
0.0506934
0.0526571
0.0549684
0.0580606
0.0633437
0.07592
0.117494
0.308839
0.0397348
0.0409368
0.0422181
0.0435862
0.0450496
0.0466183
0.0483036
0.0501196
0.0520846
0.0542265
0.0565969
0.0593167
0.0627396
0.068072
0.0799393
0.119331
0.307179
0.0409899
0.0423801
0.0438678
0.0454679
0.0471917
0.0490531
0.0510683
0.0532568
0.0556427
0.0582586
0.061156
0.0644389
0.0683922
0.074004
0.0853281
0.122193
0.305563
0.0423078
0.0439047
0.0456296
0.047496
0.0495216
0.0517263
0.0541335
0.0567715
0.0596742
0.0628847
0.0664629
0.0705095
0.0752596
0.0814949
0.0926095
0.12673
0.303943
0.0436874
0.0455209
0.0475122
0.0496841
0.0520602
0.0546689
0.057544
0.0607266
0.0642665
0.0682258
0.0726846
0.0777589
0.0836646
0.0910171
0.102497
0.133889
0.302277
0.0451319
0.0472272
0.0495235
0.0520468
0.0548311
0.0579168
0.0613528
0.065199
0.0695297
0.0744373
0.0800401
0.0864966
0.094049
0.103221
0.116015
0.145189
0.300523
0.046639
0.0490315
0.0516718
0.0545994
0.0578601
0.061511
0.0656227
0.0702828
0.0756019
0.081721
0.0888223
0.0971474
0.107034
0.119037
0.134662
0.16305
0.298636
0.0482097
0.0509323
0.0539653
0.0573587
0.0611769
0.0655005
0.0704308
0.0760964
0.0826629
0.0903469
0.0994356
0.110318
0.123533
0.139869
0.160736
0.19157
0.296559
0.0497215
0.0510599
0.0524092
0.0537628
0.0551146
0.0564572
0.0577818
0.0590793
0.0603408
0.0615559
0.0627152
0.0638077
0.0648239
0.0657529
0.0665857
0.067313
0.0679264
0.0684191
0.0687848
0.0690194
0.0691132
0.0690235
0.068795
0.0684354
0.0679488
0.0673418
0.066621
0.0657949
0.0648724
0.063863
0.062777
0.0616244
0.0604157
0.0591608
0.0578696
0.0565511
0.0552144
0.0538683
0.0525199
0.0511756
0.0498408
0.0528266
0.0542419
0.0556674
0.0570942
0.0585183
0.0599296
0.0613213
0.0626823
0.0640047
0.0652767
0.0664893
0.0676307
0.0686913
0.06966
0.0705276
0.0712841
0.0719219
0.072433
0.0728118
0.0730535
0.0731493
0.0730572
0.0728209
0.0724475
0.0719419
0.07131
0.0705593
0.0696977
0.0687351
0.0676804
0.0665451
0.0653384
0.0640725
0.0627559
0.0614007
0.0600146
0.0586087
0.0571899
0.0557681
0.0543475
0.0529364
0.0563144
0.0578123
0.0593174
0.0608236
0.0623237
0.0638095
0.0652719
0.0667013
0.0680878
0.0694207
0.0706894
0.0718829
0.0729904
0.0740012
0.0749053
0.0756932
0.0763563
0.0768871
0.0772796
0.077529
0.0776266
0.0775322
0.0772876
0.0768999
0.0763739
0.075716
0.0749333
0.0740346
0.0730291
0.0719269
0.0707388
0.0694755
0.0681479
0.0667667
0.0653424
0.0638851
0.0624043
0.060909
0.0594076
0.0579071
0.0564135
0.0602568
0.0618418
0.0634321
0.0650221
0.066604
0.0681687
0.069707
0.0712088
0.0726637
0.0740609
0.0753894
0.0766378
0.077795
0.0788502
0.0797929
0.0806137
0.0813036
0.0818551
0.082262
0.0825196
0.082619
0.0825223
0.0822689
0.0818661
0.0813188
0.0806334
0.0798172
0.0788792
0.0778287
0.0766761
0.0754323
0.0741086
0.072716
0.0712657
0.0697685
0.0682348
0.0666745
0.0650969
0.0635113
0.0619253
0.0603442
0.0647417
0.0664202
0.0681013
0.0697805
0.0714495
0.0730982
0.074717
0.0762956
0.0778231
0.0792884
0.0806799
0.0819863
0.0831959
0.0842976
0.085281
0.0861363
0.0868543
0.0874275
0.0878495
0.0881155
0.088217
0.0881178
0.0878553
0.0874367
0.0868671
0.0861529
0.0853017
0.0843223
0.0832245
0.0820188
0.0807165
0.079329
0.0778677
0.0763442
0.0747696
0.0731547
0.0715099
0.0698448
0.0681694
0.0664921
0.0648173
0.0698822
0.0716606
0.0734388
0.0752128
0.076974
0.0787117
0.0804159
0.0820757
0.0836798
0.0852166
0.0866744
0.0880415
0.0893059
0.0904563
0.0914821
0.0923732
0.0931205
0.0937162
0.0941538
0.0944286
0.0945322
0.0944305
0.0941586
0.0937237
0.093131
0.0923869
0.0914992
0.0904768
0.0893296
0.0880684
0.0867048
0.0852503
0.0837168
0.0821161
0.0804597
0.078759
0.0770247
0.0752668
0.073496
0.0717211
0.0699458
0.0758233
0.0777084
0.0795898
0.0814643
0.0833227
0.0851541
0.086948
0.088693
0.0903772
0.0919888
0.0935157
0.0949458
0.0962671
0.0974678
0.0985373
0.0994653
0.100243
0.100861
0.101315
0.101599
0.101705
0.1016
0.101319
0.100867
0.100251
0.0994763
0.098551
0.0974843
0.0962861
0.0949675
0.0935401
0.092016
0.0904071
0.0887256
0.0869836
0.0851927
0.0833641
0.0815084
0.0796365
0.0777578
0.0758752
0.0827538
0.0847521
0.0867424
0.0887226
0.0906829
0.092612
0.0944989
0.0963322
0.0980994
0.0997881
0.101386
0.102881
0.10426
0.105512
0.106626
0.107591
0.108399
0.109041
0.109511
0.109803
0.109911
0.109804
0.109513
0.109045
0.108405
0.107599
0.106636
0.105525
0.104275
0.102897
0.101405
0.0998093
0.0981226
0.0963577
0.094527
0.0926425
0.0907156
0.0887573
0.0867792
0.084791
0.0827946
0.090923
0.0930399
0.0951439
0.0972336
0.0992992
0.101329
0.103311
0.105234
0.107085
0.108851
0.110521
0.11208
0.113517
0.11482
0.115977
0.116979
0.117817
0.118482
0.118967
0.119268
0.119378
0.119269
0.118969
0.118485
0.117822
0.116986
0.115985
0.114829
0.113528
0.112092
0.110535
0.108867
0.107102
0.105253
0.103332
0.101352
0.0993239
0.0972598
0.0951716
0.0930693
0.0909537
0.100666
0.102905
0.105124
0.107325
0.109497
0.111626
0.113703
0.115714
0.117648
0.11949
0.121229
0.12285
0.124342
0.125693
0.126892
0.127929
0.128794
0.12948
0.12998
0.130289
0.130401
0.13029
0.129981
0.129482
0.128797
0.127933
0.126898
0.1257
0.12435
0.122859
0.121238
0.119501
0.11766
0.115728
0.113718
0.111643
0.109514
0.107344
0.105144
0.102926
0.100688
0.112443
0.1148
0.117133
0.119442
0.121715
0.123941
0.126106
0.1282
0.130209
0.132121
0.133922
0.135599
0.13714
0.138534
0.139769
0.140835
0.141724
0.142427
0.142939
0.143254
0.143367
0.143255
0.14294
0.142428
0.141726
0.140838
0.139772
0.138538
0.137145
0.135605
0.133928
0.132128
0.130217
0.128209
0.126117
0.123952
0.121727
0.119454
0.117147
0.114814
0.112457
0.126895
0.12936
0.131796
0.134201
0.136563
0.138871
0.141112
0.143274
0.145345
0.147311
0.149161
0.15088
0.152458
0.153882
0.155142
0.156229
0.157134
0.157848
0.158367
0.158686
0.158799
0.158686
0.158368
0.157849
0.157135
0.15623
0.155144
0.153885
0.15246
0.150884
0.149164
0.147315
0.145349
0.14328
0.141118
0.138878
0.13657
0.134208
0.131804
0.129368
0.126903
0.144943
0.147488
0.150001
0.152474
0.154898
0.15726
0.159548
0.16175
0.163855
0.16585
0.167722
0.169459
0.171051
0.172485
0.173752
0.174842
0.175749
0.176464
0.176982
0.1773
0.177411
0.1773
0.176983
0.176464
0.175749
0.174843
0.173752
0.172486
0.171052
0.169461
0.167724
0.165852
0.163858
0.161754
0.159552
0.157264
0.154902
0.152478
0.150005
0.147492
0.144947
0.167944
0.170512
0.173047
0.175535
0.177966
0.180328
0.18261
0.1848
0.186887
0.188861
0.19071
0.192421
0.193986
0.195394
0.196635
0.197702
0.198587
0.199284
0.199788
0.200096
0.200203
0.200096
0.199788
0.199284
0.198587
0.197702
0.196635
0.195394
0.193986
0.192422
0.19071
0.188862
0.186888
0.184802
0.182611
0.180329
0.177967
0.175537
0.173049
0.170513
0.167946
0.197962
0.200442
0.202894
0.205291
0.207625
0.209886
0.212064
0.214146
0.216125
0.217992
0.219735
0.221345
0.222813
0.224132
0.225292
0.226288
0.227112
0.22776
0.228228
0.228513
0.228611
0.228513
0.228228
0.22776
0.227112
0.226287
0.225292
0.224131
0.222814
0.221345
0.219735
0.217992
0.216126
0.214147
0.212063
0.209886
0.207626
0.205292
0.202894
0.200443
0.197962
0.238255
0.240439
0.242602
0.244709
0.246752
0.248723
0.250615
0.252418
0.254125
0.255729
0.257222
0.258598
0.259849
0.26097
0.261954
0.262797
0.263494
0.26404
0.264434
0.264673
0.264754
0.264673
0.264434
0.26404
0.263494
0.262797
0.261954
0.26097
0.25985
0.258598
0.257222
0.255728
0.254125
0.252418
0.250614
0.248723
0.246753
0.244709
0.242602
0.240439
0.238255
0.294192
0.295677
0.297157
0.29859
0.299973
0.301301
0.302568
0.303772
0.304907
0.30597
0.306955
0.30786
0.308681
0.309413
0.310055
0.310603
0.311055
0.311409
0.311664
0.311818
0.31187
0.311818
0.311664
0.311409
0.311055
0.310603
0.310055
0.309413
0.308681
0.30786
0.306955
0.30597
0.304907
0.303772
0.302568
0.3013
0.299973
0.29859
0.297157
0.295677
0.294192
0.294346
0.0447392
0.0187702
0.0163058
0.016016
0.0162494
0.0166426
0.0171105
0.0176215
0.0181614
0.0187258
0.0193269
0.0199844
0.0207137
0.0215187
0.0223821
0.0232472
0.307911
0.0456831
0.0193554
0.0167323
0.0163808
0.0165796
0.0169476
0.0173863
0.0178627
0.0183623
0.0188779
0.0194151
0.0199917
0.0206315
0.0213589
0.0221911
0.0231143
0.314043
0.0469018
0.0200357
0.0172013
0.0167756
0.0169339
0.0172748
0.0176851
0.0181304
0.0185964
0.0190731
0.0195592
0.0200637
0.0206049
0.0212123
0.0219321
0.0228358
0.318451
0.0481408
0.020774
0.0177084
0.0171985
0.0173115
0.0176221
0.0180043
0.0184208
0.0188571
0.0193032
0.0197536
0.0202092
0.020675
0.0211593
0.0216729
0.0222298
0.321602
0.049561
0.0215958
0.0182649
0.0176532
0.0177148
0.0179915
0.0183454
0.0187339
0.0191428
0.0195632
0.0199888
0.0204179
0.0208529
0.0212987
0.0217597
0.0222421
0.324881
0.051288
0.0225195
0.018874
0.0181413
0.0181442
0.0183836
0.0187083
0.0190695
0.019452
0.0198483
0.0202522
0.0206598
0.0210714
0.0214916
0.0219233
0.0223595
0.328198
0.0533503
0.0235643
0.0195411
0.0186666
0.0186018
0.0187998
0.0190942
0.0194284
0.0197852
0.0201581
0.0205418
0.0209308
0.0213226
0.0217206
0.0221354
0.0225875
0.331725
0.0556685
0.0247476
0.0202711
0.0192323
0.01909
0.0192424
0.0195046
0.0198118
0.0201433
0.0204929
0.0208566
0.021229
0.0216039
0.0219771
0.0223479
0.0227274
0.335329
0.0581096
0.0260476
0.0210693
0.0198425
0.0196115
0.0197139
0.0199417
0.0202217
0.0205279
0.0208536
0.0211965
0.0215528
0.0219164
0.0222806
0.0226339
0.0229503
0.338797
0.0607658
0.0274522
0.0219401
0.0205019
0.0201699
0.0202176
0.0204085
0.0206606
0.0209411
0.021242
0.0215617
0.0218987
0.0222491
0.0226101
0.0229836
0.0233826
0.342105
0.0637151
0.0289838
0.0228886
0.0212159
0.020769
0.0207572
0.0209079
0.0211312
0.0213856
0.0216611
0.0219554
0.0222686
0.0225974
0.0229353
0.0232735
0.023616
0.345277
0.0669378
0.0306579
0.0239212
0.0219898
0.0214132
0.0213365
0.0214434
0.0216363
0.021864
0.0221137
0.0223815
0.0226692
0.022977
0.0233001
0.0236194
0.0238908
0.348282
0.0703825
0.0324765
0.0250427
0.0228285
0.022107
0.0219589
0.022018
0.0221786
0.0223788
0.0226021
0.0228421
0.0231011
0.0233832
0.0236931
0.0240308
0.0243942
0.351006
0.0739798
0.0344295
0.026256
0.023735
0.0228549
0.022628
0.0226352
0.0227608
0.0229324
0.0231287
0.0233403
0.0235676
0.0238152
0.0240885
0.024387
0.0247094
0.353141
0.0776355
0.0365023
0.0275707
0.0247159
0.0236612
0.0233473
0.0232984
0.0233857
0.023527
0.0236958
0.0238792
0.0240752
0.0242886
0.024527
0.0247876
0.0250282
0.354587
0.0812881
0.0386753
0.0289747
0.0257742
0.024532
0.0241199
0.0240108
0.0240562
0.0241649
0.0243046
0.0244594
0.0246243
0.0248034
0.0250077
0.0252562
0.0255614
0.355361
0.0848477
0.0409251
0.0304631
0.0269082
0.0254691
0.0249495
0.0247758
0.0247754
0.0248488
0.0249572
0.0250821
0.0252152
0.0253578
0.0255152
0.0257076
0.0259617
0.355117
0.0882405
0.0432315
0.0320301
0.028115
0.0264733
0.0258394
0.0255968
0.0255472
0.0255818
0.0256559
0.025749
0.0258495
0.0259578
0.0260722
0.0262092
0.026349
0.354112
0.0914915
0.0455882
0.0336661
0.0293903
0.0275442
0.0267931
0.0264782
0.0263748
0.0263667
0.0264028
0.0264611
0.0265271
0.0266012
0.0266764
0.02678
0.0269136
0.351927
0.0945173
0.0479789
0.0353679
0.0307318
0.0286836
0.0278124
0.0274229
0.0272617
0.0272075
0.0272019
0.0272213
0.0272489
0.0272858
0.0273178
0.0273742
0.0274306
0.348268
0.0973525
0.0503917
0.0371233
0.0321284
0.0298909
0.0289019
0.028436
0.0282144
0.0281092
0.0280578
0.0280336
0.0280187
0.0280147
0.0280037
0.0280166
0.027976
0.343508
0.100312
0.0528681
0.0389431
0.0335926
0.0311755
0.0300689
0.0295242
0.0292384
0.0290774
0.0289749
0.0289016
0.0288397
0.0287895
0.0287345
0.0287028
0.0286188
0.338046
0.103257
0.0554363
0.0408317
0.0351255
0.0325438
0.0313219
0.0306958
0.0303418
0.030119
0.0299591
0.0298304
0.0297157
0.0296127
0.0295078
0.02942
0.0292975
0.333056
0.105772
0.0578239
0.0426807
0.0366907
0.0339765
0.0326562
0.0319517
0.0315279
0.0312393
0.031016
0.0308257
0.0306516
0.0304894
0.0303277
0.0301811
0.030016
0.328594
0.107949
0.060001
0.0444757
0.0382916
0.0354821
0.0340826
0.0333039
0.0328081
0.0324477
0.0321536
0.0318938
0.0316522
0.0314236
0.0311995
0.0309915
0.0307643
0.324672
0.109739
0.0619602
0.0462287
0.0399484
0.0370833
0.0356206
0.0347695
0.0341968
0.0337564
0.0333819
0.0330428
0.032724
0.03242
0.0321243
0.0318424
0.0315488
0.321279
0.111253
0.0637158
0.0479761
0.041696
0.038812
0.0372966
0.0363705
0.0357114
0.0351792
0.0347122
0.0342821
0.0338751
0.0334858
0.0331078
0.0327446
0.0323864
0.318374
0.112589
0.0653902
0.0497955
0.0435889
0.0407109
0.0391437
0.0381328
0.0373722
0.0367324
0.0361573
0.0356215
0.0351128
0.0346257
0.0341556
0.0337069
0.0332647
0.31589
0.113753
0.0670546
0.0517589
0.0456935
0.0428319
0.0412017
0.0400865
0.0392027
0.0384342
0.0377315
0.0370723
0.0364458
0.0358467
0.0352715
0.0347206
0.0341819
0.313743
0.114782
0.0688011
0.0539603
0.0480862
0.0452345
0.0435163
0.0422662
0.0412296
0.0403054
0.0394509
0.0386471
0.037884
0.0371567
0.036461
0.0357949
0.0351563
0.31185
0.115729
0.0707629
0.0565265
0.0508618
0.0479887
0.0461396
0.0447112
0.0434831
0.0423693
0.0413338
0.0403597
0.0394378
0.0385627
0.0377298
0.0369394
0.0361848
0.310138
0.116711
0.0731248
0.0596081
0.0541304
0.0511758
0.0491306
0.0474663
0.0459974
0.0446525
0.0434005
0.0422258
0.041119
0.0400737
0.0390849
0.0381497
0.0372575
0.308541
0.117944
0.0761382
0.0633911
0.0580231
0.0548902
0.0525586
0.0505837
0.0488125
0.0471854
0.0456741
0.0442628
0.0429405
0.0416991
0.0405316
0.039431
0.0383938
0.306999
0.119726
0.0801121
0.0680996
0.0626987
0.0592432
0.0565065
0.0541256
0.0519757
0.0500037
0.0481815
0.0464904
0.0449167
0.0434488
0.0420768
0.0407938
0.0395933
0.305465
0.122503
0.0854484
0.0740128
0.0683503
0.0643725
0.0610755
0.0581682
0.0555436
0.0531496
0.0509535
0.0489313
0.0470636
0.045334
0.0437288
0.0422369
0.0408428
0.303897
0.126932
0.0926793
0.0814895
0.0752205
0.0704525
0.0663941
0.062806
0.0595859
0.0566741
0.0540274
0.0516119
0.0493996
0.047367
0.0454943
0.0437635
0.0421616
0.302259
0.134002
0.102529
0.0910049
0.0836318
0.0777128
0.072628
0.0681591
0.0641898
0.0606399
0.0574475
0.0545631
0.0519456
0.0495613
0.0473815
0.045383
0.0435489
0.300519
0.145241
0.116026
0.103209
0.0940242
0.0864616
0.0799955
0.0743827
0.0694648
0.0651236
0.0612668
0.0578205
0.0547249
0.0519313
0.0493993
0.0470965
0.0449911
0.298636
0.163066
0.134663
0.119029
0.107017
0.0971232
0.0887894
0.0816785
0.0755492
0.0702192
0.0655479
0.0614252
0.0577634
0.0544923
0.0515551
0.0489046
0.0465039
0.296559
0.191572
0.160736
0.139866
0.123524
0.110303
0.0994136
0.090316
0.0826221
0.0760448
0.0703678
0.0654259
0.0610906
0.0572611
0.053857
0.0508143
0.0480854
0.0283072
0.0459212
0.149316
1.00979
5.20782
11.7122
11.8827
9.00313
6.62005
5.20655
3.82198
2.23994
1.06252
0.510676
0.260984
0.125741
0.0605231
0.0345783
0.0255703
0.0227565
0.0305043
0.0522749
0.17556
1.17696
5.80867
12.3865
12.2884
9.13273
6.38318
4.61703
3.12778
1.7859
0.987594
0.5946
0.338248
0.165687
0.0767728
0.0405918
0.0277951
0.0237203
0.0332999
0.0601535
0.205871
1.35305
6.34849
12.8681
12.6823
9.36113
6.30694
4.2665
2.74591
1.66707
1.09374
0.752087
0.45082
0.223315
0.100532
0.0494317
0.0309804
0.0249773
0.0369042
0.070015
0.240734
1.53368
6.79351
13.1358
13.0424
9.66348
6.38204
4.13269
2.63218
1.75357
1.33795
0.987707
0.609534
0.305148
0.135003
0.0624932
0.0356652
0.0266953
0.0416204
0.0825214
0.281317
1.71004
7.10628
13.1675
13.32
10.0064
6.62183
4.21354
2.7573
2.04744
1.71932
1.3296
0.834204
0.420546
0.184555
0.081792
0.0426965
0.0291606
0.0478926
0.0986242
0.329498
1.87707
7.27038
12.9487
13.4175
10.3701
6.9771
4.50509
3.07907
2.52161
2.2879
1.82902
1.15696
0.583892
0.255163
0.110154
0.0533637
0.0328442
0.0563856
0.119721
0.387609
2.02526
7.27061
12.4764
13.1593
10.6085
7.36015
4.91237
3.52125
3.09784
3.00959
2.52755
1.6214
0.817216
0.355469
0.151532
0.0696124
0.0385235
0.0681088
0.147896
0.459925
2.16529
7.12602
11.7541
12.4922
10.521
7.70707
5.41366
4.0474
3.68013
3.77171
3.39587
2.27831
1.15079
0.498765
0.211527
0.0943386
0.0474688
0.0846213
0.186292
0.553139
2.31395
6.87925
10.8287
11.5391
10.0988
7.83992
5.86699
4.66526
4.26243
4.43132
4.27655
3.12458
1.63215
0.704138
0.298416
0.131838
0.0617498
0.108368
0.239632
0.677327
2.49021
6.56472
9.7599
10.401
9.41852
7.7618
6.19901
5.19729
4.82697
4.94193
4.97401
4.02814
2.29303
0.998519
0.424636
0.188547
0.0847352
0.143237
0.315407
0.847637
2.71256
6.20776
8.5859
9.17001
8.6038
7.50046
6.37325
5.60744
5.29509
5.33425
5.40531
4.77198
3.08979
1.43295
0.608236
0.274359
0.12194
0.195579
0.425242
1.08016
2.9861
5.85374
7.54086
8.04552
7.78711
7.12518
6.39107
5.86636
5.61296
5.58828
5.59576
5.21254
3.84921
2.01761
0.879514
0.404589
0.182559
0.276058
0.588092
1.39712
3.28286
5.45568
6.58454
7.03473
7.01557
6.68197
6.25001
5.89908
5.72644
5.66284
5.59833
5.33253
4.36929
2.69413
1.28878
0.602856
0.282077
0.403193
0.833171
1.80575
3.52458
4.95706
5.74137
6.18035
6.3124
6.205
5.98688
5.77814
5.64211
5.55233
5.43909
5.18967
4.557
3.27133
1.8277
0.914929
0.446664
0.611095
1.18955
2.25121
3.57402
4.44139
5.05259
5.47316
5.6773
5.70421
5.61587
5.49302
5.37845
5.27382
5.1321
4.88928
4.44078
3.57542
2.4036
1.37846
0.72567
0.949617
1.64333
2.56446
3.35648
3.96017
4.48419
4.86651
5.08656
5.16773
5.14909
5.07348
4.97138
4.85632
4.70322
4.47807
4.12788
3.56347
2.80712
1.96577
1.20098
1.44817
2.02645
2.54388
3.02223
3.53232
3.97081
4.29479
4.49699
4.59067
4.60415
4.55042
4.45425
4.33121
4.17937
3.98003
3.70932
3.33436
2.86978
2.44366
1.90646
1.85194
2.00395
2.26838
2.67611
3.08895
3.4367
3.6981
3.87017
3.95871
3.98055
3.93749
3.8472
3.72254
3.57905
3.40651
3.19934
2.94925
2.67249
2.4779
2.46086
1.50771
1.6045
1.87716
2.21257
2.51815
2.77396
2.9722
3.10858
3.18491
3.20717
3.17094
3.09611
2.9899
2.86132
2.71682
2.55281
2.37404
2.20061
2.08961
2.18258
0.564717
0.695018
0.908598
1.11485
1.28826
1.42967
1.53969
1.61782
1.66491
1.68255
1.66903
1.63017
1.56748
1.48585
1.40006
1.31529
1.2253
1.12744
1.02125
0.928824
0.847295
2.2849
2.51934
1.34723
0.626669
0.327032